; DMPC_128_GMX.top created by acpype (v: 2023.10.27) on Wed Jan  8 13:04:35 2025

[ defaults ]
; nbfunc        comb-rule       gen-pairs       fudgeLJ fudgeQQ
1               2               yes             0.5     0.8333333333           

[ atomtypes ]
;name   bond_type     mass     charge   ptype   sigma         epsilon       Amb
 hc       hc          0.00000  0.00000   A     2.60018e-01   8.70272e-02 ; 1.46  0.0208
 ha       ha          0.00000  0.00000   A     2.62548e-01   6.73624e-02 ; 1.47  0.0161
 h4       h4          0.00000  0.00000   A     2.53639e-01   6.73624e-02 ; 1.42  0.0161
 hn       hn          0.00000  0.00000   A     1.10650e-01   4.18400e-02 ; 0.62  0.0100
 h1       h1          0.00000  0.00000   A     2.42200e-01   8.70272e-02 ; 1.36  0.0208
 c3       c3          0.00000  0.00000   A     3.39771e-01   4.51035e-01 ; 1.91  0.1078
 cc       cc          0.00000  0.00000   A     3.31521e-01   4.13379e-01 ; 1.86  0.0988
 cd       cd          0.00000  0.00000   A     3.31521e-01   4.13379e-01 ; 1.86  0.0988
 ca       ca          0.00000  0.00000   A     3.31521e-01   4.13379e-01 ; 1.86  0.0988
 nu       nu          0.00000  0.00000   A     3.27904e-01   6.46428e-01 ; 1.84  0.1545
 cy       cy          0.00000  0.00000   A     3.39771e-01   4.51035e-01 ; 1.91  0.1078
 c1       c1          0.00000  0.00000   A     3.47896e-01   6.67766e-01 ; 1.95  0.1596
 c6       c6          0.00000  0.00000   A     3.39771e-01   4.51035e-01 ; 1.91  0.1078
 nb       nb          0.00000  0.00000   A     3.38417e-01   3.93714e-01 ; 1.90  0.0941
 nn       nn          0.00000  0.00000   A     3.18995e-01   8.99560e-01 ; 1.79  0.2150
 n1       n1          0.00000  0.00000   A     3.27352e-01   4.59403e-01 ; 1.84  0.1098
 n3       n3          0.00000  0.00000   A     3.36510e-01   3.58987e-01 ; 1.89  0.0858
 ss       ss          0.00000  0.00000   A     3.53241e-01   1.18156e+00 ; 1.98  0.2824
 nd       nd          0.00000  0.00000   A     3.38417e-01   3.93714e-01 ; 1.90  0.0941
 hL       hL          0.00000  0.00000   A     2.60142e-01   4.18400e-02 ; 1.46  0.0100
 cD       cD          0.00000  0.00000   A     3.39967e-01   4.57730e-01 ; 1.91  0.1094
 cC       cC          0.00000  0.00000   A     3.39967e-01   3.59824e-01 ; 1.91  0.0860
 oC       oC          0.00000  0.00000   A     2.95992e-01   8.78640e-01 ; 1.66  0.2100
 oS       oS          0.00000  0.00000   A     3.00001e-01   7.11280e-01 ; 1.68  0.1700
 cA       cA          0.00000  0.00000   A     3.39967e-01   4.57730e-01 ; 1.91  0.1094
 hE       hE          0.00000  0.00000   A     2.47135e-01   6.56888e-02 ; 1.39  0.0157
 oT       oT          0.00000  0.00000   A     3.00001e-01   7.11280e-01 ; 1.68  0.1700
 pA       pA          0.00000  0.00000   A     3.74177e-01   8.36800e-01 ; 2.10  0.2000
 hX       hX          0.00000  0.00000   A     1.95998e-01   6.56888e-02 ; 1.10  0.0157
 nA       nA          0.00000  0.00000   A     3.25000e-01   7.11280e-01 ; 1.82  0.1700
 oP       oP          0.00000  0.00000   A     2.95992e-01   8.78640e-01 ; 1.66  0.2100
 OW       OW          0.00000  0.00000   A     3.15075e-01   6.35968e-01 ; 1.77  0.1520
 HW       HW          0.00000  0.00000   A     0.00000e+00   0.00000e+00 ; 0.00  0.0000

; Include solute parameters
#include "YT0_GMX.itp"
 
; Ligand position restraints
#ifdef POSRES
#include "posre_LIG.itp"
#endif


[ moleculetype ]
;name            nrexcl
 DMPC_128         3

[ atoms ]
;   nr  type  resi  res  atom  cgnr     charge      mass       ; qtot   bond_type
     1   hL     1    MY  H14T    1     0.025511      1.00800 ; qtot 0.026
     2   cD     1    MY  C114    2    -0.111712     12.01000 ; qtot -0.086
     3   hL     1    MY  H14R    3     0.025511      1.00800 ; qtot -0.061
     4   hL     1    MY  H14S    4     0.025511      1.00800 ; qtot -0.035
     5   cD     1    MY  C113    5     0.017463     12.01000 ; qtot -0.018
     6   hL     1    MY  H13R    6     0.007531      1.00800 ; qtot -0.010
     7   hL     1    MY  H13S    7     0.007531      1.00800 ; qtot -0.003
     8   cD     1    MY  C112    8    -0.028094     12.01000 ; qtot -0.031
     9   hL     1    MY  H12R    9     0.017208      1.00800 ; qtot -0.014
    10   hL     1    MY  H12S   10     0.017208      1.00800 ; qtot 0.004
    11   cD     1    MY  C111   11    -0.031787     12.01000 ; qtot -0.028
    12   hL     1    MY  H11R   12     0.012677      1.00800 ; qtot -0.015
    13   hL     1    MY  H11S   13     0.012677      1.00800 ; qtot -0.003
    14   cD     1    MY  C110   14    -0.021025     12.01000 ; qtot -0.024
    15   hL     1    MY  H10R   15     0.010037      1.00800 ; qtot -0.014
    16   hL     1    MY  H10S   16     0.010037      1.00800 ; qtot -0.004
    17   cD     1    MY   C19   17    -0.014653     12.01000 ; qtot -0.018
    18   hL     1    MY   H9R   18     0.010172      1.00800 ; qtot -0.008
    19   hL     1    MY   H9S   19     0.010172      1.00800 ; qtot 0.002
    20   cD     1    MY   C18   20    -0.026451     12.01000 ; qtot -0.024
    21   hL     1    MY   H8R   21     0.011241      1.00800 ; qtot -0.013
    22   hL     1    MY   H8S   22     0.011241      1.00800 ; qtot -0.002
    23   cD     1    MY   C17   23    -0.004386     12.01000 ; qtot -0.006
    24   hL     1    MY   H7R   24     0.006833      1.00800 ; qtot 0.000
    25   hL     1    MY   H7S   25     0.006833      1.00800 ; qtot 0.007
    26   cD     1    MY   C16   26    -0.027812     12.01000 ; qtot -0.021
    27   hL     1    MY   H6R   27     0.011511      1.00800 ; qtot -0.009
    28   hL     1    MY   H6S   28     0.011511      1.00800 ; qtot 0.002
    29   cD     1    MY   C15   29    -0.016521     12.01000 ; qtot -0.014
    30   hL     1    MY   H5R   30     0.010573      1.00800 ; qtot -0.003
    31   hL     1    MY   H5S   31     0.010573      1.00800 ; qtot 0.007
    32   cD     1    MY   C14   32    -0.026954     12.01000 ; qtot -0.020
    33   hL     1    MY   H4R   33     0.020431      1.00800 ; qtot 0.001
    34   hL     1    MY   H4S   34     0.020431      1.00800 ; qtot 0.021
    35   cD     1    MY   C13   35    -0.002435     12.01000 ; qtot 0.019
    36   hL     1    MY   H3R   36     0.018859      1.00800 ; qtot 0.037
    37   hL     1    MY   H3S   37     0.018859      1.00800 ; qtot 0.056
    38   cD     1    MY   C12   38    -0.164200     12.01000 ; qtot -0.108
    39   hL     1    MY   H2R   39     0.053944      1.00800 ; qtot -0.054
    40   hL     1    MY   H2S   40     0.053944      1.00800 ; qtot -0.000
    41   cC     2    PC   C11   41     0.910403     12.01000 ; qtot 0.910
    42   oC     2    PC   O12   42    -0.671566     16.00000 ; qtot 0.239
    43   oS     2    PC   O11   43    -0.575489     16.00000 ; qtot -0.337
    44   cA     2    PC    C1   44     0.196939     12.01000 ; qtot -0.140
    45   hE     2    PC    HR   45     0.070469      1.00800 ; qtot -0.069
    46   hE     2    PC    HS   46     0.070469      1.00800 ; qtot 0.001
    47   cA     2    PC    C2   47     0.281242     12.01000 ; qtot 0.282
    48   hE     2    PC    HX   48     0.063253      1.00800 ; qtot 0.346
    49   cA     2    PC    C3   49     0.017459     12.01000 ; qtot 0.363
    50   hE     2    PC    HA   50     0.095591      1.00800 ; qtot 0.459
    51   hE     2    PC    HB   51     0.095591      1.00800 ; qtot 0.554
    52   oT     2    PC   O31   52    -0.509480     16.00000 ; qtot 0.045
    53   pA     2    PC   P31   53     1.339721     30.97000 ; qtot 1.385
    54   oT     2    PC   O32   54    -0.508176     16.00000 ; qtot 0.876
    55   cA     2    PC   C31   55     0.166801     12.01000 ; qtot 1.043
    56   hE     2    PC   H1A   56     0.078534      1.00800 ; qtot 1.122
    57   hE     2    PC   H1B   57     0.078534      1.00800 ; qtot 1.200
    58   cA     2    PC   C32   58    -0.170824     12.01000 ; qtot 1.029
    59   hX     2    PC   H2A   59     0.136415      1.00800 ; qtot 1.166
    60   hX     2    PC   H2B   60     0.136415      1.00800 ; qtot 1.302
    61   nA     2    PC   N31   61     0.245262     14.01000 ; qtot 1.548
    62   cA     2    PC   C33   62    -0.338973     12.01000 ; qtot 1.209
    63   hX     2    PC   H3A   63     0.172230      1.00800 ; qtot 1.381
    64   hX     2    PC   H3B   64     0.172230      1.00800 ; qtot 1.553
    65   hX     2    PC   H3C   65     0.172230      1.00800 ; qtot 1.725
    66   cA     2    PC   C34   66    -0.338973     12.01000 ; qtot 1.386
    67   hX     2    PC   H4A   67     0.172230      1.00800 ; qtot 1.559
    68   hX     2    PC   H4B   68     0.172230      1.00800 ; qtot 1.731
    69   hX     2    PC   H4C   69     0.172230      1.00800 ; qtot 1.903
    70   cA     2    PC   C35   70    -0.338973     12.01000 ; qtot 1.564
    71   hX     2    PC   H5A   71     0.172230      1.00800 ; qtot 1.736
    72   hX     2    PC   H5B   72     0.172230      1.00800 ; qtot 1.908
    73   hX     2    PC   H5C   73     0.172230      1.00800 ; qtot 2.081
    74   oP     2    PC   O33   74    -0.875812     16.00000 ; qtot 1.205
    75   oP     2    PC   O34   75    -0.875812     16.00000 ; qtot 0.329
    76   oS     2    PC   O21   76    -0.552948     16.00000 ; qtot -0.224
    77   cC     2    PC   C21   77     0.897613     12.01000 ; qtot 0.674
    78   oC     2    PC   O22   78    -0.673755     16.00000 ; qtot 0.000
    79   hL     3    MY  H14T   79     0.025511      1.00800 ; qtot 0.026
    80   cD     3    MY  C114   80    -0.111712     12.01000 ; qtot -0.086
    81   hL     3    MY  H14R   81     0.025511      1.00800 ; qtot -0.061
    82   hL     3    MY  H14S   82     0.025511      1.00800 ; qtot -0.035
    83   cD     3    MY  C113   83     0.017463     12.01000 ; qtot -0.018
    84   hL     3    MY  H13R   84     0.007531      1.00800 ; qtot -0.010
    85   hL     3    MY  H13S   85     0.007531      1.00800 ; qtot -0.003
    86   cD     3    MY  C112   86    -0.028094     12.01000 ; qtot -0.031
    87   hL     3    MY  H12R   87     0.017208      1.00800 ; qtot -0.014
    88   hL     3    MY  H12S   88     0.017208      1.00800 ; qtot 0.004
    89   cD     3    MY  C111   89    -0.031787     12.01000 ; qtot -0.028
    90   hL     3    MY  H11R   90     0.012677      1.00800 ; qtot -0.015
    91   hL     3    MY  H11S   91     0.012677      1.00800 ; qtot -0.003
    92   cD     3    MY  C110   92    -0.021025     12.01000 ; qtot -0.024
    93   hL     3    MY  H10R   93     0.010037      1.00800 ; qtot -0.014
    94   hL     3    MY  H10S   94     0.010037      1.00800 ; qtot -0.004
    95   cD     3    MY   C19   95    -0.014653     12.01000 ; qtot -0.018
    96   hL     3    MY   H9R   96     0.010172      1.00800 ; qtot -0.008
    97   hL     3    MY   H9S   97     0.010172      1.00800 ; qtot 0.002
    98   cD     3    MY   C18   98    -0.026451     12.01000 ; qtot -0.024
    99   hL     3    MY   H8R   99     0.011241      1.00800 ; qtot -0.013
   100   hL     3    MY   H8S  100     0.011241      1.00800 ; qtot -0.002
   101   cD     3    MY   C17  101    -0.004386     12.01000 ; qtot -0.006
   102   hL     3    MY   H7R  102     0.006833      1.00800 ; qtot 0.000
   103   hL     3    MY   H7S  103     0.006833      1.00800 ; qtot 0.007
   104   cD     3    MY   C16  104    -0.027812     12.01000 ; qtot -0.021
   105   hL     3    MY   H6R  105     0.011511      1.00800 ; qtot -0.009
   106   hL     3    MY   H6S  106     0.011511      1.00800 ; qtot 0.002
   107   cD     3    MY   C15  107    -0.016521     12.01000 ; qtot -0.014
   108   hL     3    MY   H5R  108     0.010573      1.00800 ; qtot -0.003
   109   hL     3    MY   H5S  109     0.010573      1.00800 ; qtot 0.007
   110   cD     3    MY   C14  110    -0.026954     12.01000 ; qtot -0.020
   111   hL     3    MY   H4R  111     0.020431      1.00800 ; qtot 0.001
   112   hL     3    MY   H4S  112     0.020431      1.00800 ; qtot 0.021
   113   cD     3    MY   C13  113    -0.002435     12.01000 ; qtot 0.019
   114   hL     3    MY   H3R  114     0.018859      1.00800 ; qtot 0.037
   115   hL     3    MY   H3S  115     0.018859      1.00800 ; qtot 0.056
   116   cD     3    MY   C12  116    -0.164200     12.01000 ; qtot -0.108
   117   hL     3    MY   H2R  117     0.053944      1.00800 ; qtot -0.054
   118   hL     3    MY   H2S  118     0.053944      1.00800 ; qtot -0.000
   119   hL     4    MY  H14T  119     0.025511      1.00800 ; qtot 0.026
   120   cD     4    MY  C114  120    -0.111712     12.01000 ; qtot -0.086
   121   hL     4    MY  H14R  121     0.025511      1.00800 ; qtot -0.061
   122   hL     4    MY  H14S  122     0.025511      1.00800 ; qtot -0.035
   123   cD     4    MY  C113  123     0.017463     12.01000 ; qtot -0.018
   124   hL     4    MY  H13R  124     0.007531      1.00800 ; qtot -0.010
   125   hL     4    MY  H13S  125     0.007531      1.00800 ; qtot -0.003
   126   cD     4    MY  C112  126    -0.028094     12.01000 ; qtot -0.031
   127   hL     4    MY  H12R  127     0.017208      1.00800 ; qtot -0.014
   128   hL     4    MY  H12S  128     0.017208      1.00800 ; qtot 0.004
   129   cD     4    MY  C111  129    -0.031787     12.01000 ; qtot -0.028
   130   hL     4    MY  H11R  130     0.012677      1.00800 ; qtot -0.015
   131   hL     4    MY  H11S  131     0.012677      1.00800 ; qtot -0.003
   132   cD     4    MY  C110  132    -0.021025     12.01000 ; qtot -0.024
   133   hL     4    MY  H10R  133     0.010037      1.00800 ; qtot -0.014
   134   hL     4    MY  H10S  134     0.010037      1.00800 ; qtot -0.004
   135   cD     4    MY   C19  135    -0.014653     12.01000 ; qtot -0.018
   136   hL     4    MY   H9R  136     0.010172      1.00800 ; qtot -0.008
   137   hL     4    MY   H9S  137     0.010172      1.00800 ; qtot 0.002
   138   cD     4    MY   C18  138    -0.026451     12.01000 ; qtot -0.024
   139   hL     4    MY   H8R  139     0.011241      1.00800 ; qtot -0.013
   140   hL     4    MY   H8S  140     0.011241      1.00800 ; qtot -0.002
   141   cD     4    MY   C17  141    -0.004386     12.01000 ; qtot -0.006
   142   hL     4    MY   H7R  142     0.006833      1.00800 ; qtot 0.000
   143   hL     4    MY   H7S  143     0.006833      1.00800 ; qtot 0.007
   144   cD     4    MY   C16  144    -0.027812     12.01000 ; qtot -0.021
   145   hL     4    MY   H6R  145     0.011511      1.00800 ; qtot -0.009
   146   hL     4    MY   H6S  146     0.011511      1.00800 ; qtot 0.002
   147   cD     4    MY   C15  147    -0.016521     12.01000 ; qtot -0.014
   148   hL     4    MY   H5R  148     0.010573      1.00800 ; qtot -0.003
   149   hL     4    MY   H5S  149     0.010573      1.00800 ; qtot 0.007
   150   cD     4    MY   C14  150    -0.026954     12.01000 ; qtot -0.020
   151   hL     4    MY   H4R  151     0.020431      1.00800 ; qtot 0.001
   152   hL     4    MY   H4S  152     0.020431      1.00800 ; qtot 0.021
   153   cD     4    MY   C13  153    -0.002435     12.01000 ; qtot 0.019
   154   hL     4    MY   H3R  154     0.018859      1.00800 ; qtot 0.037
   155   hL     4    MY   H3S  155     0.018859      1.00800 ; qtot 0.056
   156   cD     4    MY   C12  156    -0.164200     12.01000 ; qtot -0.108
   157   hL     4    MY   H2R  157     0.053944      1.00800 ; qtot -0.054
   158   hL     4    MY   H2S  158     0.053944      1.00800 ; qtot -0.000
   159   cC     5    PC   C11  159     0.910403     12.01000 ; qtot 0.910
   160   oC     5    PC   O12  160    -0.671566     16.00000 ; qtot 0.239
   161   oS     5    PC   O11  161    -0.575489     16.00000 ; qtot -0.337
   162   cA     5    PC    C1  162     0.196939     12.01000 ; qtot -0.140
   163   hE     5    PC    HR  163     0.070469      1.00800 ; qtot -0.069
   164   hE     5    PC    HS  164     0.070469      1.00800 ; qtot 0.001
   165   cA     5    PC    C2  165     0.281242     12.01000 ; qtot 0.282
   166   hE     5    PC    HX  166     0.063253      1.00800 ; qtot 0.346
   167   cA     5    PC    C3  167     0.017459     12.01000 ; qtot 0.363
   168   hE     5    PC    HA  168     0.095591      1.00800 ; qtot 0.459
   169   hE     5    PC    HB  169     0.095591      1.00800 ; qtot 0.554
   170   oT     5    PC   O31  170    -0.509480     16.00000 ; qtot 0.045
   171   pA     5    PC   P31  171     1.339721     30.97000 ; qtot 1.385
   172   oT     5    PC   O32  172    -0.508176     16.00000 ; qtot 0.876
   173   cA     5    PC   C31  173     0.166801     12.01000 ; qtot 1.043
   174   hE     5    PC   H1A  174     0.078534      1.00800 ; qtot 1.122
   175   hE     5    PC   H1B  175     0.078534      1.00800 ; qtot 1.200
   176   cA     5    PC   C32  176    -0.170824     12.01000 ; qtot 1.029
   177   hX     5    PC   H2A  177     0.136415      1.00800 ; qtot 1.166
   178   hX     5    PC   H2B  178     0.136415      1.00800 ; qtot 1.302
   179   nA     5    PC   N31  179     0.245262     14.01000 ; qtot 1.548
   180   cA     5    PC   C33  180    -0.338973     12.01000 ; qtot 1.209
   181   hX     5    PC   H3A  181     0.172230      1.00800 ; qtot 1.381
   182   hX     5    PC   H3B  182     0.172230      1.00800 ; qtot 1.553
   183   hX     5    PC   H3C  183     0.172230      1.00800 ; qtot 1.725
   184   cA     5    PC   C34  184    -0.338973     12.01000 ; qtot 1.386
   185   hX     5    PC   H4A  185     0.172230      1.00800 ; qtot 1.559
   186   hX     5    PC   H4B  186     0.172230      1.00800 ; qtot 1.731
   187   hX     5    PC   H4C  187     0.172230      1.00800 ; qtot 1.903
   188   cA     5    PC   C35  188    -0.338973     12.01000 ; qtot 1.564
   189   hX     5    PC   H5A  189     0.172230      1.00800 ; qtot 1.736
   190   hX     5    PC   H5B  190     0.172230      1.00800 ; qtot 1.908
   191   hX     5    PC   H5C  191     0.172230      1.00800 ; qtot 2.081
   192   oP     5    PC   O33  192    -0.875812     16.00000 ; qtot 1.205
   193   oP     5    PC   O34  193    -0.875812     16.00000 ; qtot 0.329
   194   oS     5    PC   O21  194    -0.552948     16.00000 ; qtot -0.224
   195   cC     5    PC   C21  195     0.897613     12.01000 ; qtot 0.674
   196   oC     5    PC   O22  196    -0.673755     16.00000 ; qtot 0.000
   197   hL     6    MY  H14T  197     0.025511      1.00800 ; qtot 0.026
   198   cD     6    MY  C114  198    -0.111712     12.01000 ; qtot -0.086
   199   hL     6    MY  H14R  199     0.025511      1.00800 ; qtot -0.061
   200   hL     6    MY  H14S  200     0.025511      1.00800 ; qtot -0.035
   201   cD     6    MY  C113  201     0.017463     12.01000 ; qtot -0.018
   202   hL     6    MY  H13R  202     0.007531      1.00800 ; qtot -0.010
   203   hL     6    MY  H13S  203     0.007531      1.00800 ; qtot -0.003
   204   cD     6    MY  C112  204    -0.028094     12.01000 ; qtot -0.031
   205   hL     6    MY  H12R  205     0.017208      1.00800 ; qtot -0.014
   206   hL     6    MY  H12S  206     0.017208      1.00800 ; qtot 0.004
   207   cD     6    MY  C111  207    -0.031787     12.01000 ; qtot -0.028
   208   hL     6    MY  H11R  208     0.012677      1.00800 ; qtot -0.015
   209   hL     6    MY  H11S  209     0.012677      1.00800 ; qtot -0.003
   210   cD     6    MY  C110  210    -0.021025     12.01000 ; qtot -0.024
   211   hL     6    MY  H10R  211     0.010037      1.00800 ; qtot -0.014
   212   hL     6    MY  H10S  212     0.010037      1.00800 ; qtot -0.004
   213   cD     6    MY   C19  213    -0.014653     12.01000 ; qtot -0.018
   214   hL     6    MY   H9R  214     0.010172      1.00800 ; qtot -0.008
   215   hL     6    MY   H9S  215     0.010172      1.00800 ; qtot 0.002
   216   cD     6    MY   C18  216    -0.026451     12.01000 ; qtot -0.024
   217   hL     6    MY   H8R  217     0.011241      1.00800 ; qtot -0.013
   218   hL     6    MY   H8S  218     0.011241      1.00800 ; qtot -0.002
   219   cD     6    MY   C17  219    -0.004386     12.01000 ; qtot -0.006
   220   hL     6    MY   H7R  220     0.006833      1.00800 ; qtot 0.000
   221   hL     6    MY   H7S  221     0.006833      1.00800 ; qtot 0.007
   222   cD     6    MY   C16  222    -0.027812     12.01000 ; qtot -0.021
   223   hL     6    MY   H6R  223     0.011511      1.00800 ; qtot -0.009
   224   hL     6    MY   H6S  224     0.011511      1.00800 ; qtot 0.002
   225   cD     6    MY   C15  225    -0.016521     12.01000 ; qtot -0.014
   226   hL     6    MY   H5R  226     0.010573      1.00800 ; qtot -0.003
   227   hL     6    MY   H5S  227     0.010573      1.00800 ; qtot 0.007
   228   cD     6    MY   C14  228    -0.026954     12.01000 ; qtot -0.020
   229   hL     6    MY   H4R  229     0.020431      1.00800 ; qtot 0.001
   230   hL     6    MY   H4S  230     0.020431      1.00800 ; qtot 0.021
   231   cD     6    MY   C13  231    -0.002435     12.01000 ; qtot 0.019
   232   hL     6    MY   H3R  232     0.018859      1.00800 ; qtot 0.037
   233   hL     6    MY   H3S  233     0.018859      1.00800 ; qtot 0.056
   234   cD     6    MY   C12  234    -0.164200     12.01000 ; qtot -0.108
   235   hL     6    MY   H2R  235     0.053944      1.00800 ; qtot -0.054
   236   hL     6    MY   H2S  236     0.053944      1.00800 ; qtot -0.000
   237   hL     7    MY  H14T  237     0.025511      1.00800 ; qtot 0.026
   238   cD     7    MY  C114  238    -0.111712     12.01000 ; qtot -0.086
   239   hL     7    MY  H14R  239     0.025511      1.00800 ; qtot -0.061
   240   hL     7    MY  H14S  240     0.025511      1.00800 ; qtot -0.035
   241   cD     7    MY  C113  241     0.017463     12.01000 ; qtot -0.018
   242   hL     7    MY  H13R  242     0.007531      1.00800 ; qtot -0.010
   243   hL     7    MY  H13S  243     0.007531      1.00800 ; qtot -0.003
   244   cD     7    MY  C112  244    -0.028094     12.01000 ; qtot -0.031
   245   hL     7    MY  H12R  245     0.017208      1.00800 ; qtot -0.014
   246   hL     7    MY  H12S  246     0.017208      1.00800 ; qtot 0.004
   247   cD     7    MY  C111  247    -0.031787     12.01000 ; qtot -0.028
   248   hL     7    MY  H11R  248     0.012677      1.00800 ; qtot -0.015
   249   hL     7    MY  H11S  249     0.012677      1.00800 ; qtot -0.003
   250   cD     7    MY  C110  250    -0.021025     12.01000 ; qtot -0.024
   251   hL     7    MY  H10R  251     0.010037      1.00800 ; qtot -0.014
   252   hL     7    MY  H10S  252     0.010037      1.00800 ; qtot -0.004
   253   cD     7    MY   C19  253    -0.014653     12.01000 ; qtot -0.018
   254   hL     7    MY   H9R  254     0.010172      1.00800 ; qtot -0.008
   255   hL     7    MY   H9S  255     0.010172      1.00800 ; qtot 0.002
   256   cD     7    MY   C18  256    -0.026451     12.01000 ; qtot -0.024
   257   hL     7    MY   H8R  257     0.011241      1.00800 ; qtot -0.013
   258   hL     7    MY   H8S  258     0.011241      1.00800 ; qtot -0.002
   259   cD     7    MY   C17  259    -0.004386     12.01000 ; qtot -0.006
   260   hL     7    MY   H7R  260     0.006833      1.00800 ; qtot 0.000
   261   hL     7    MY   H7S  261     0.006833      1.00800 ; qtot 0.007
   262   cD     7    MY   C16  262    -0.027812     12.01000 ; qtot -0.021
   263   hL     7    MY   H6R  263     0.011511      1.00800 ; qtot -0.009
   264   hL     7    MY   H6S  264     0.011511      1.00800 ; qtot 0.002
   265   cD     7    MY   C15  265    -0.016521     12.01000 ; qtot -0.014
   266   hL     7    MY   H5R  266     0.010573      1.00800 ; qtot -0.003
   267   hL     7    MY   H5S  267     0.010573      1.00800 ; qtot 0.007
   268   cD     7    MY   C14  268    -0.026954     12.01000 ; qtot -0.020
   269   hL     7    MY   H4R  269     0.020431      1.00800 ; qtot 0.001
   270   hL     7    MY   H4S  270     0.020431      1.00800 ; qtot 0.021
   271   cD     7    MY   C13  271    -0.002435     12.01000 ; qtot 0.019
   272   hL     7    MY   H3R  272     0.018859      1.00800 ; qtot 0.037
   273   hL     7    MY   H3S  273     0.018859      1.00800 ; qtot 0.056
   274   cD     7    MY   C12  274    -0.164200     12.01000 ; qtot -0.108
   275   hL     7    MY   H2R  275     0.053944      1.00800 ; qtot -0.054
   276   hL     7    MY   H2S  276     0.053944      1.00800 ; qtot -0.000
   277   cC     8    PC   C11  277     0.910403     12.01000 ; qtot 0.910
   278   oC     8    PC   O12  278    -0.671566     16.00000 ; qtot 0.239
   279   oS     8    PC   O11  279    -0.575489     16.00000 ; qtot -0.337
   280   cA     8    PC    C1  280     0.196939     12.01000 ; qtot -0.140
   281   hE     8    PC    HR  281     0.070469      1.00800 ; qtot -0.069
   282   hE     8    PC    HS  282     0.070469      1.00800 ; qtot 0.001
   283   cA     8    PC    C2  283     0.281242     12.01000 ; qtot 0.282
   284   hE     8    PC    HX  284     0.063253      1.00800 ; qtot 0.346
   285   cA     8    PC    C3  285     0.017459     12.01000 ; qtot 0.363
   286   hE     8    PC    HA  286     0.095591      1.00800 ; qtot 0.459
   287   hE     8    PC    HB  287     0.095591      1.00800 ; qtot 0.554
   288   oT     8    PC   O31  288    -0.509480     16.00000 ; qtot 0.045
   289   pA     8    PC   P31  289     1.339721     30.97000 ; qtot 1.385
   290   oT     8    PC   O32  290    -0.508176     16.00000 ; qtot 0.876
   291   cA     8    PC   C31  291     0.166801     12.01000 ; qtot 1.043
   292   hE     8    PC   H1A  292     0.078534      1.00800 ; qtot 1.122
   293   hE     8    PC   H1B  293     0.078534      1.00800 ; qtot 1.200
   294   cA     8    PC   C32  294    -0.170824     12.01000 ; qtot 1.029
   295   hX     8    PC   H2A  295     0.136415      1.00800 ; qtot 1.166
   296   hX     8    PC   H2B  296     0.136415      1.00800 ; qtot 1.302
   297   nA     8    PC   N31  297     0.245262     14.01000 ; qtot 1.548
   298   cA     8    PC   C33  298    -0.338973     12.01000 ; qtot 1.209
   299   hX     8    PC   H3A  299     0.172230      1.00800 ; qtot 1.381
   300   hX     8    PC   H3B  300     0.172230      1.00800 ; qtot 1.553
   301   hX     8    PC   H3C  301     0.172230      1.00800 ; qtot 1.725
   302   cA     8    PC   C34  302    -0.338973     12.01000 ; qtot 1.386
   303   hX     8    PC   H4A  303     0.172230      1.00800 ; qtot 1.559
   304   hX     8    PC   H4B  304     0.172230      1.00800 ; qtot 1.731
   305   hX     8    PC   H4C  305     0.172230      1.00800 ; qtot 1.903
   306   cA     8    PC   C35  306    -0.338973     12.01000 ; qtot 1.564
   307   hX     8    PC   H5A  307     0.172230      1.00800 ; qtot 1.736
   308   hX     8    PC   H5B  308     0.172230      1.00800 ; qtot 1.908
   309   hX     8    PC   H5C  309     0.172230      1.00800 ; qtot 2.081
   310   oP     8    PC   O33  310    -0.875812     16.00000 ; qtot 1.205
   311   oP     8    PC   O34  311    -0.875812     16.00000 ; qtot 0.329
   312   oS     8    PC   O21  312    -0.552948     16.00000 ; qtot -0.224
   313   cC     8    PC   C21  313     0.897613     12.01000 ; qtot 0.674
   314   oC     8    PC   O22  314    -0.673755     16.00000 ; qtot 0.000
   315   hL     9    MY  H14T  315     0.025511      1.00800 ; qtot 0.026
   316   cD     9    MY  C114  316    -0.111712     12.01000 ; qtot -0.086
   317   hL     9    MY  H14R  317     0.025511      1.00800 ; qtot -0.061
   318   hL     9    MY  H14S  318     0.025511      1.00800 ; qtot -0.035
   319   cD     9    MY  C113  319     0.017463     12.01000 ; qtot -0.018
   320   hL     9    MY  H13R  320     0.007531      1.00800 ; qtot -0.010
   321   hL     9    MY  H13S  321     0.007531      1.00800 ; qtot -0.003
   322   cD     9    MY  C112  322    -0.028094     12.01000 ; qtot -0.031
   323   hL     9    MY  H12R  323     0.017208      1.00800 ; qtot -0.014
   324   hL     9    MY  H12S  324     0.017208      1.00800 ; qtot 0.004
   325   cD     9    MY  C111  325    -0.031787     12.01000 ; qtot -0.028
   326   hL     9    MY  H11R  326     0.012677      1.00800 ; qtot -0.015
   327   hL     9    MY  H11S  327     0.012677      1.00800 ; qtot -0.003
   328   cD     9    MY  C110  328    -0.021025     12.01000 ; qtot -0.024
   329   hL     9    MY  H10R  329     0.010037      1.00800 ; qtot -0.014
   330   hL     9    MY  H10S  330     0.010037      1.00800 ; qtot -0.004
   331   cD     9    MY   C19  331    -0.014653     12.01000 ; qtot -0.018
   332   hL     9    MY   H9R  332     0.010172      1.00800 ; qtot -0.008
   333   hL     9    MY   H9S  333     0.010172      1.00800 ; qtot 0.002
   334   cD     9    MY   C18  334    -0.026451     12.01000 ; qtot -0.024
   335   hL     9    MY   H8R  335     0.011241      1.00800 ; qtot -0.013
   336   hL     9    MY   H8S  336     0.011241      1.00800 ; qtot -0.002
   337   cD     9    MY   C17  337    -0.004386     12.01000 ; qtot -0.006
   338   hL     9    MY   H7R  338     0.006833      1.00800 ; qtot 0.000
   339   hL     9    MY   H7S  339     0.006833      1.00800 ; qtot 0.007
   340   cD     9    MY   C16  340    -0.027812     12.01000 ; qtot -0.021
   341   hL     9    MY   H6R  341     0.011511      1.00800 ; qtot -0.009
   342   hL     9    MY   H6S  342     0.011511      1.00800 ; qtot 0.002
   343   cD     9    MY   C15  343    -0.016521     12.01000 ; qtot -0.014
   344   hL     9    MY   H5R  344     0.010573      1.00800 ; qtot -0.003
   345   hL     9    MY   H5S  345     0.010573      1.00800 ; qtot 0.007
   346   cD     9    MY   C14  346    -0.026954     12.01000 ; qtot -0.020
   347   hL     9    MY   H4R  347     0.020431      1.00800 ; qtot 0.001
   348   hL     9    MY   H4S  348     0.020431      1.00800 ; qtot 0.021
   349   cD     9    MY   C13  349    -0.002435     12.01000 ; qtot 0.019
   350   hL     9    MY   H3R  350     0.018859      1.00800 ; qtot 0.037
   351   hL     9    MY   H3S  351     0.018859      1.00800 ; qtot 0.056
   352   cD     9    MY   C12  352    -0.164200     12.01000 ; qtot -0.108
   353   hL     9    MY   H2R  353     0.053944      1.00800 ; qtot -0.054
   354   hL     9    MY   H2S  354     0.053944      1.00800 ; qtot -0.000
   355   hL    10    MY  H14T  355     0.025511      1.00800 ; qtot 0.026
   356   cD    10    MY  C114  356    -0.111712     12.01000 ; qtot -0.086
   357   hL    10    MY  H14R  357     0.025511      1.00800 ; qtot -0.061
   358   hL    10    MY  H14S  358     0.025511      1.00800 ; qtot -0.035
   359   cD    10    MY  C113  359     0.017463     12.01000 ; qtot -0.018
   360   hL    10    MY  H13R  360     0.007531      1.00800 ; qtot -0.010
   361   hL    10    MY  H13S  361     0.007531      1.00800 ; qtot -0.003
   362   cD    10    MY  C112  362    -0.028094     12.01000 ; qtot -0.031
   363   hL    10    MY  H12R  363     0.017208      1.00800 ; qtot -0.014
   364   hL    10    MY  H12S  364     0.017208      1.00800 ; qtot 0.004
   365   cD    10    MY  C111  365    -0.031787     12.01000 ; qtot -0.028
   366   hL    10    MY  H11R  366     0.012677      1.00800 ; qtot -0.015
   367   hL    10    MY  H11S  367     0.012677      1.00800 ; qtot -0.003
   368   cD    10    MY  C110  368    -0.021025     12.01000 ; qtot -0.024
   369   hL    10    MY  H10R  369     0.010037      1.00800 ; qtot -0.014
   370   hL    10    MY  H10S  370     0.010037      1.00800 ; qtot -0.004
   371   cD    10    MY   C19  371    -0.014653     12.01000 ; qtot -0.018
   372   hL    10    MY   H9R  372     0.010172      1.00800 ; qtot -0.008
   373   hL    10    MY   H9S  373     0.010172      1.00800 ; qtot 0.002
   374   cD    10    MY   C18  374    -0.026451     12.01000 ; qtot -0.024
   375   hL    10    MY   H8R  375     0.011241      1.00800 ; qtot -0.013
   376   hL    10    MY   H8S  376     0.011241      1.00800 ; qtot -0.002
   377   cD    10    MY   C17  377    -0.004386     12.01000 ; qtot -0.006
   378   hL    10    MY   H7R  378     0.006833      1.00800 ; qtot 0.000
   379   hL    10    MY   H7S  379     0.006833      1.00800 ; qtot 0.007
   380   cD    10    MY   C16  380    -0.027812     12.01000 ; qtot -0.021
   381   hL    10    MY   H6R  381     0.011511      1.00800 ; qtot -0.009
   382   hL    10    MY   H6S  382     0.011511      1.00800 ; qtot 0.002
   383   cD    10    MY   C15  383    -0.016521     12.01000 ; qtot -0.014
   384   hL    10    MY   H5R  384     0.010573      1.00800 ; qtot -0.003
   385   hL    10    MY   H5S  385     0.010573      1.00800 ; qtot 0.007
   386   cD    10    MY   C14  386    -0.026954     12.01000 ; qtot -0.020
   387   hL    10    MY   H4R  387     0.020431      1.00800 ; qtot 0.001
   388   hL    10    MY   H4S  388     0.020431      1.00800 ; qtot 0.021
   389   cD    10    MY   C13  389    -0.002435     12.01000 ; qtot 0.019
   390   hL    10    MY   H3R  390     0.018859      1.00800 ; qtot 0.037
   391   hL    10    MY   H3S  391     0.018859      1.00800 ; qtot 0.056
   392   cD    10    MY   C12  392    -0.164200     12.01000 ; qtot -0.108
   393   hL    10    MY   H2R  393     0.053944      1.00800 ; qtot -0.054
   394   hL    10    MY   H2S  394     0.053944      1.00800 ; qtot -0.000
   395   cC    11    PC   C11  395     0.910403     12.01000 ; qtot 0.910
   396   oC    11    PC   O12  396    -0.671566     16.00000 ; qtot 0.239
   397   oS    11    PC   O11  397    -0.575489     16.00000 ; qtot -0.337
   398   cA    11    PC    C1  398     0.196939     12.01000 ; qtot -0.140
   399   hE    11    PC    HR  399     0.070469      1.00800 ; qtot -0.069
   400   hE    11    PC    HS  400     0.070469      1.00800 ; qtot 0.001
   401   cA    11    PC    C2  401     0.281242     12.01000 ; qtot 0.282
   402   hE    11    PC    HX  402     0.063253      1.00800 ; qtot 0.346
   403   cA    11    PC    C3  403     0.017459     12.01000 ; qtot 0.363
   404   hE    11    PC    HA  404     0.095591      1.00800 ; qtot 0.459
   405   hE    11    PC    HB  405     0.095591      1.00800 ; qtot 0.554
   406   oT    11    PC   O31  406    -0.509480     16.00000 ; qtot 0.045
   407   pA    11    PC   P31  407     1.339721     30.97000 ; qtot 1.385
   408   oT    11    PC   O32  408    -0.508176     16.00000 ; qtot 0.876
   409   cA    11    PC   C31  409     0.166801     12.01000 ; qtot 1.043
   410   hE    11    PC   H1A  410     0.078534      1.00800 ; qtot 1.122
   411   hE    11    PC   H1B  411     0.078534      1.00800 ; qtot 1.200
   412   cA    11    PC   C32  412    -0.170824     12.01000 ; qtot 1.029
   413   hX    11    PC   H2A  413     0.136415      1.00800 ; qtot 1.166
   414   hX    11    PC   H2B  414     0.136415      1.00800 ; qtot 1.302
   415   nA    11    PC   N31  415     0.245262     14.01000 ; qtot 1.548
   416   cA    11    PC   C33  416    -0.338973     12.01000 ; qtot 1.209
   417   hX    11    PC   H3A  417     0.172230      1.00800 ; qtot 1.381
   418   hX    11    PC   H3B  418     0.172230      1.00800 ; qtot 1.553
   419   hX    11    PC   H3C  419     0.172230      1.00800 ; qtot 1.725
   420   cA    11    PC   C34  420    -0.338973     12.01000 ; qtot 1.386
   421   hX    11    PC   H4A  421     0.172230      1.00800 ; qtot 1.559
   422   hX    11    PC   H4B  422     0.172230      1.00800 ; qtot 1.731
   423   hX    11    PC   H4C  423     0.172230      1.00800 ; qtot 1.903
   424   cA    11    PC   C35  424    -0.338973     12.01000 ; qtot 1.564
   425   hX    11    PC   H5A  425     0.172230      1.00800 ; qtot 1.736
   426   hX    11    PC   H5B  426     0.172230      1.00800 ; qtot 1.908
   427   hX    11    PC   H5C  427     0.172230      1.00800 ; qtot 2.081
   428   oP    11    PC   O33  428    -0.875812     16.00000 ; qtot 1.205
   429   oP    11    PC   O34  429    -0.875812     16.00000 ; qtot 0.329
   430   oS    11    PC   O21  430    -0.552948     16.00000 ; qtot -0.224
   431   cC    11    PC   C21  431     0.897613     12.01000 ; qtot 0.674
   432   oC    11    PC   O22  432    -0.673755     16.00000 ; qtot 0.000
   433   hL    12    MY  H14T  433     0.025511      1.00800 ; qtot 0.026
   434   cD    12    MY  C114  434    -0.111712     12.01000 ; qtot -0.086
   435   hL    12    MY  H14R  435     0.025511      1.00800 ; qtot -0.061
   436   hL    12    MY  H14S  436     0.025511      1.00800 ; qtot -0.035
   437   cD    12    MY  C113  437     0.017463     12.01000 ; qtot -0.018
   438   hL    12    MY  H13R  438     0.007531      1.00800 ; qtot -0.010
   439   hL    12    MY  H13S  439     0.007531      1.00800 ; qtot -0.003
   440   cD    12    MY  C112  440    -0.028094     12.01000 ; qtot -0.031
   441   hL    12    MY  H12R  441     0.017208      1.00800 ; qtot -0.014
   442   hL    12    MY  H12S  442     0.017208      1.00800 ; qtot 0.004
   443   cD    12    MY  C111  443    -0.031787     12.01000 ; qtot -0.028
   444   hL    12    MY  H11R  444     0.012677      1.00800 ; qtot -0.015
   445   hL    12    MY  H11S  445     0.012677      1.00800 ; qtot -0.003
   446   cD    12    MY  C110  446    -0.021025     12.01000 ; qtot -0.024
   447   hL    12    MY  H10R  447     0.010037      1.00800 ; qtot -0.014
   448   hL    12    MY  H10S  448     0.010037      1.00800 ; qtot -0.004
   449   cD    12    MY   C19  449    -0.014653     12.01000 ; qtot -0.018
   450   hL    12    MY   H9R  450     0.010172      1.00800 ; qtot -0.008
   451   hL    12    MY   H9S  451     0.010172      1.00800 ; qtot 0.002
   452   cD    12    MY   C18  452    -0.026451     12.01000 ; qtot -0.024
   453   hL    12    MY   H8R  453     0.011241      1.00800 ; qtot -0.013
   454   hL    12    MY   H8S  454     0.011241      1.00800 ; qtot -0.002
   455   cD    12    MY   C17  455    -0.004386     12.01000 ; qtot -0.006
   456   hL    12    MY   H7R  456     0.006833      1.00800 ; qtot 0.000
   457   hL    12    MY   H7S  457     0.006833      1.00800 ; qtot 0.007
   458   cD    12    MY   C16  458    -0.027812     12.01000 ; qtot -0.021
   459   hL    12    MY   H6R  459     0.011511      1.00800 ; qtot -0.009
   460   hL    12    MY   H6S  460     0.011511      1.00800 ; qtot 0.002
   461   cD    12    MY   C15  461    -0.016521     12.01000 ; qtot -0.014
   462   hL    12    MY   H5R  462     0.010573      1.00800 ; qtot -0.003
   463   hL    12    MY   H5S  463     0.010573      1.00800 ; qtot 0.007
   464   cD    12    MY   C14  464    -0.026954     12.01000 ; qtot -0.020
   465   hL    12    MY   H4R  465     0.020431      1.00800 ; qtot 0.001
   466   hL    12    MY   H4S  466     0.020431      1.00800 ; qtot 0.021
   467   cD    12    MY   C13  467    -0.002435     12.01000 ; qtot 0.019
   468   hL    12    MY   H3R  468     0.018859      1.00800 ; qtot 0.037
   469   hL    12    MY   H3S  469     0.018859      1.00800 ; qtot 0.056
   470   cD    12    MY   C12  470    -0.164200     12.01000 ; qtot -0.108
   471   hL    12    MY   H2R  471     0.053944      1.00800 ; qtot -0.054
   472   hL    12    MY   H2S  472     0.053944      1.00800 ; qtot -0.000
   473   hL    13    MY  H14T  473     0.025511      1.00800 ; qtot 0.026
   474   cD    13    MY  C114  474    -0.111712     12.01000 ; qtot -0.086
   475   hL    13    MY  H14R  475     0.025511      1.00800 ; qtot -0.061
   476   hL    13    MY  H14S  476     0.025511      1.00800 ; qtot -0.035
   477   cD    13    MY  C113  477     0.017463     12.01000 ; qtot -0.018
   478   hL    13    MY  H13R  478     0.007531      1.00800 ; qtot -0.010
   479   hL    13    MY  H13S  479     0.007531      1.00800 ; qtot -0.003
   480   cD    13    MY  C112  480    -0.028094     12.01000 ; qtot -0.031
   481   hL    13    MY  H12R  481     0.017208      1.00800 ; qtot -0.014
   482   hL    13    MY  H12S  482     0.017208      1.00800 ; qtot 0.004
   483   cD    13    MY  C111  483    -0.031787     12.01000 ; qtot -0.028
   484   hL    13    MY  H11R  484     0.012677      1.00800 ; qtot -0.015
   485   hL    13    MY  H11S  485     0.012677      1.00800 ; qtot -0.003
   486   cD    13    MY  C110  486    -0.021025     12.01000 ; qtot -0.024
   487   hL    13    MY  H10R  487     0.010037      1.00800 ; qtot -0.014
   488   hL    13    MY  H10S  488     0.010037      1.00800 ; qtot -0.004
   489   cD    13    MY   C19  489    -0.014653     12.01000 ; qtot -0.018
   490   hL    13    MY   H9R  490     0.010172      1.00800 ; qtot -0.008
   491   hL    13    MY   H9S  491     0.010172      1.00800 ; qtot 0.002
   492   cD    13    MY   C18  492    -0.026451     12.01000 ; qtot -0.024
   493   hL    13    MY   H8R  493     0.011241      1.00800 ; qtot -0.013
   494   hL    13    MY   H8S  494     0.011241      1.00800 ; qtot -0.002
   495   cD    13    MY   C17  495    -0.004386     12.01000 ; qtot -0.006
   496   hL    13    MY   H7R  496     0.006833      1.00800 ; qtot 0.000
   497   hL    13    MY   H7S  497     0.006833      1.00800 ; qtot 0.007
   498   cD    13    MY   C16  498    -0.027812     12.01000 ; qtot -0.021
   499   hL    13    MY   H6R  499     0.011511      1.00800 ; qtot -0.009
   500   hL    13    MY   H6S  500     0.011511      1.00800 ; qtot 0.002
   501   cD    13    MY   C15  501    -0.016521     12.01000 ; qtot -0.014
   502   hL    13    MY   H5R  502     0.010573      1.00800 ; qtot -0.003
   503   hL    13    MY   H5S  503     0.010573      1.00800 ; qtot 0.007
   504   cD    13    MY   C14  504    -0.026954     12.01000 ; qtot -0.020
   505   hL    13    MY   H4R  505     0.020431      1.00800 ; qtot 0.001
   506   hL    13    MY   H4S  506     0.020431      1.00800 ; qtot 0.021
   507   cD    13    MY   C13  507    -0.002435     12.01000 ; qtot 0.019
   508   hL    13    MY   H3R  508     0.018859      1.00800 ; qtot 0.037
   509   hL    13    MY   H3S  509     0.018859      1.00800 ; qtot 0.056
   510   cD    13    MY   C12  510    -0.164200     12.01000 ; qtot -0.108
   511   hL    13    MY   H2R  511     0.053944      1.00800 ; qtot -0.054
   512   hL    13    MY   H2S  512     0.053944      1.00800 ; qtot -0.000
   513   cC    14    PC   C11  513     0.910403     12.01000 ; qtot 0.910
   514   oC    14    PC   O12  514    -0.671566     16.00000 ; qtot 0.239
   515   oS    14    PC   O11  515    -0.575489     16.00000 ; qtot -0.337
   516   cA    14    PC    C1  516     0.196939     12.01000 ; qtot -0.140
   517   hE    14    PC    HR  517     0.070469      1.00800 ; qtot -0.069
   518   hE    14    PC    HS  518     0.070469      1.00800 ; qtot 0.001
   519   cA    14    PC    C2  519     0.281242     12.01000 ; qtot 0.282
   520   hE    14    PC    HX  520     0.063253      1.00800 ; qtot 0.346
   521   cA    14    PC    C3  521     0.017459     12.01000 ; qtot 0.363
   522   hE    14    PC    HA  522     0.095591      1.00800 ; qtot 0.459
   523   hE    14    PC    HB  523     0.095591      1.00800 ; qtot 0.554
   524   oT    14    PC   O31  524    -0.509480     16.00000 ; qtot 0.045
   525   pA    14    PC   P31  525     1.339721     30.97000 ; qtot 1.385
   526   oT    14    PC   O32  526    -0.508176     16.00000 ; qtot 0.876
   527   cA    14    PC   C31  527     0.166801     12.01000 ; qtot 1.043
   528   hE    14    PC   H1A  528     0.078534      1.00800 ; qtot 1.122
   529   hE    14    PC   H1B  529     0.078534      1.00800 ; qtot 1.200
   530   cA    14    PC   C32  530    -0.170824     12.01000 ; qtot 1.029
   531   hX    14    PC   H2A  531     0.136415      1.00800 ; qtot 1.166
   532   hX    14    PC   H2B  532     0.136415      1.00800 ; qtot 1.302
   533   nA    14    PC   N31  533     0.245262     14.01000 ; qtot 1.548
   534   cA    14    PC   C33  534    -0.338973     12.01000 ; qtot 1.209
   535   hX    14    PC   H3A  535     0.172230      1.00800 ; qtot 1.381
   536   hX    14    PC   H3B  536     0.172230      1.00800 ; qtot 1.553
   537   hX    14    PC   H3C  537     0.172230      1.00800 ; qtot 1.725
   538   cA    14    PC   C34  538    -0.338973     12.01000 ; qtot 1.386
   539   hX    14    PC   H4A  539     0.172230      1.00800 ; qtot 1.559
   540   hX    14    PC   H4B  540     0.172230      1.00800 ; qtot 1.731
   541   hX    14    PC   H4C  541     0.172230      1.00800 ; qtot 1.903
   542   cA    14    PC   C35  542    -0.338973     12.01000 ; qtot 1.564
   543   hX    14    PC   H5A  543     0.172230      1.00800 ; qtot 1.736
   544   hX    14    PC   H5B  544     0.172230      1.00800 ; qtot 1.908
   545   hX    14    PC   H5C  545     0.172230      1.00800 ; qtot 2.081
   546   oP    14    PC   O33  546    -0.875812     16.00000 ; qtot 1.205
   547   oP    14    PC   O34  547    -0.875812     16.00000 ; qtot 0.329
   548   oS    14    PC   O21  548    -0.552948     16.00000 ; qtot -0.224
   549   cC    14    PC   C21  549     0.897613     12.01000 ; qtot 0.674
   550   oC    14    PC   O22  550    -0.673755     16.00000 ; qtot 0.000
   551   hL    15    MY  H14T  551     0.025511      1.00800 ; qtot 0.026
   552   cD    15    MY  C114  552    -0.111712     12.01000 ; qtot -0.086
   553   hL    15    MY  H14R  553     0.025511      1.00800 ; qtot -0.061
   554   hL    15    MY  H14S  554     0.025511      1.00800 ; qtot -0.035
   555   cD    15    MY  C113  555     0.017463     12.01000 ; qtot -0.018
   556   hL    15    MY  H13R  556     0.007531      1.00800 ; qtot -0.010
   557   hL    15    MY  H13S  557     0.007531      1.00800 ; qtot -0.003
   558   cD    15    MY  C112  558    -0.028094     12.01000 ; qtot -0.031
   559   hL    15    MY  H12R  559     0.017208      1.00800 ; qtot -0.014
   560   hL    15    MY  H12S  560     0.017208      1.00800 ; qtot 0.004
   561   cD    15    MY  C111  561    -0.031787     12.01000 ; qtot -0.028
   562   hL    15    MY  H11R  562     0.012677      1.00800 ; qtot -0.015
   563   hL    15    MY  H11S  563     0.012677      1.00800 ; qtot -0.003
   564   cD    15    MY  C110  564    -0.021025     12.01000 ; qtot -0.024
   565   hL    15    MY  H10R  565     0.010037      1.00800 ; qtot -0.014
   566   hL    15    MY  H10S  566     0.010037      1.00800 ; qtot -0.004
   567   cD    15    MY   C19  567    -0.014653     12.01000 ; qtot -0.018
   568   hL    15    MY   H9R  568     0.010172      1.00800 ; qtot -0.008
   569   hL    15    MY   H9S  569     0.010172      1.00800 ; qtot 0.002
   570   cD    15    MY   C18  570    -0.026451     12.01000 ; qtot -0.024
   571   hL    15    MY   H8R  571     0.011241      1.00800 ; qtot -0.013
   572   hL    15    MY   H8S  572     0.011241      1.00800 ; qtot -0.002
   573   cD    15    MY   C17  573    -0.004386     12.01000 ; qtot -0.006
   574   hL    15    MY   H7R  574     0.006833      1.00800 ; qtot 0.000
   575   hL    15    MY   H7S  575     0.006833      1.00800 ; qtot 0.007
   576   cD    15    MY   C16  576    -0.027812     12.01000 ; qtot -0.021
   577   hL    15    MY   H6R  577     0.011511      1.00800 ; qtot -0.009
   578   hL    15    MY   H6S  578     0.011511      1.00800 ; qtot 0.002
   579   cD    15    MY   C15  579    -0.016521     12.01000 ; qtot -0.014
   580   hL    15    MY   H5R  580     0.010573      1.00800 ; qtot -0.003
   581   hL    15    MY   H5S  581     0.010573      1.00800 ; qtot 0.007
   582   cD    15    MY   C14  582    -0.026954     12.01000 ; qtot -0.020
   583   hL    15    MY   H4R  583     0.020431      1.00800 ; qtot 0.001
   584   hL    15    MY   H4S  584     0.020431      1.00800 ; qtot 0.021
   585   cD    15    MY   C13  585    -0.002435     12.01000 ; qtot 0.019
   586   hL    15    MY   H3R  586     0.018859      1.00800 ; qtot 0.037
   587   hL    15    MY   H3S  587     0.018859      1.00800 ; qtot 0.056
   588   cD    15    MY   C12  588    -0.164200     12.01000 ; qtot -0.108
   589   hL    15    MY   H2R  589     0.053944      1.00800 ; qtot -0.054
   590   hL    15    MY   H2S  590     0.053944      1.00800 ; qtot -0.000
   591   hL    16    MY  H14T  591     0.025511      1.00800 ; qtot 0.026
   592   cD    16    MY  C114  592    -0.111712     12.01000 ; qtot -0.086
   593   hL    16    MY  H14R  593     0.025511      1.00800 ; qtot -0.061
   594   hL    16    MY  H14S  594     0.025511      1.00800 ; qtot -0.035
   595   cD    16    MY  C113  595     0.017463     12.01000 ; qtot -0.018
   596   hL    16    MY  H13R  596     0.007531      1.00800 ; qtot -0.010
   597   hL    16    MY  H13S  597     0.007531      1.00800 ; qtot -0.003
   598   cD    16    MY  C112  598    -0.028094     12.01000 ; qtot -0.031
   599   hL    16    MY  H12R  599     0.017208      1.00800 ; qtot -0.014
   600   hL    16    MY  H12S  600     0.017208      1.00800 ; qtot 0.004
   601   cD    16    MY  C111  601    -0.031787     12.01000 ; qtot -0.028
   602   hL    16    MY  H11R  602     0.012677      1.00800 ; qtot -0.015
   603   hL    16    MY  H11S  603     0.012677      1.00800 ; qtot -0.003
   604   cD    16    MY  C110  604    -0.021025     12.01000 ; qtot -0.024
   605   hL    16    MY  H10R  605     0.010037      1.00800 ; qtot -0.014
   606   hL    16    MY  H10S  606     0.010037      1.00800 ; qtot -0.004
   607   cD    16    MY   C19  607    -0.014653     12.01000 ; qtot -0.018
   608   hL    16    MY   H9R  608     0.010172      1.00800 ; qtot -0.008
   609   hL    16    MY   H9S  609     0.010172      1.00800 ; qtot 0.002
   610   cD    16    MY   C18  610    -0.026451     12.01000 ; qtot -0.024
   611   hL    16    MY   H8R  611     0.011241      1.00800 ; qtot -0.013
   612   hL    16    MY   H8S  612     0.011241      1.00800 ; qtot -0.002
   613   cD    16    MY   C17  613    -0.004386     12.01000 ; qtot -0.006
   614   hL    16    MY   H7R  614     0.006833      1.00800 ; qtot 0.000
   615   hL    16    MY   H7S  615     0.006833      1.00800 ; qtot 0.007
   616   cD    16    MY   C16  616    -0.027812     12.01000 ; qtot -0.021
   617   hL    16    MY   H6R  617     0.011511      1.00800 ; qtot -0.009
   618   hL    16    MY   H6S  618     0.011511      1.00800 ; qtot 0.002
   619   cD    16    MY   C15  619    -0.016521     12.01000 ; qtot -0.014
   620   hL    16    MY   H5R  620     0.010573      1.00800 ; qtot -0.003
   621   hL    16    MY   H5S  621     0.010573      1.00800 ; qtot 0.007
   622   cD    16    MY   C14  622    -0.026954     12.01000 ; qtot -0.020
   623   hL    16    MY   H4R  623     0.020431      1.00800 ; qtot 0.001
   624   hL    16    MY   H4S  624     0.020431      1.00800 ; qtot 0.021
   625   cD    16    MY   C13  625    -0.002435     12.01000 ; qtot 0.019
   626   hL    16    MY   H3R  626     0.018859      1.00800 ; qtot 0.037
   627   hL    16    MY   H3S  627     0.018859      1.00800 ; qtot 0.056
   628   cD    16    MY   C12  628    -0.164200     12.01000 ; qtot -0.108
   629   hL    16    MY   H2R  629     0.053944      1.00800 ; qtot -0.054
   630   hL    16    MY   H2S  630     0.053944      1.00800 ; qtot -0.000
   631   cC    17    PC   C11  631     0.910403     12.01000 ; qtot 0.910
   632   oC    17    PC   O12  632    -0.671566     16.00000 ; qtot 0.239
   633   oS    17    PC   O11  633    -0.575489     16.00000 ; qtot -0.337
   634   cA    17    PC    C1  634     0.196939     12.01000 ; qtot -0.140
   635   hE    17    PC    HR  635     0.070469      1.00800 ; qtot -0.069
   636   hE    17    PC    HS  636     0.070469      1.00800 ; qtot 0.001
   637   cA    17    PC    C2  637     0.281242     12.01000 ; qtot 0.282
   638   hE    17    PC    HX  638     0.063253      1.00800 ; qtot 0.346
   639   cA    17    PC    C3  639     0.017459     12.01000 ; qtot 0.363
   640   hE    17    PC    HA  640     0.095591      1.00800 ; qtot 0.459
   641   hE    17    PC    HB  641     0.095591      1.00800 ; qtot 0.554
   642   oT    17    PC   O31  642    -0.509480     16.00000 ; qtot 0.045
   643   pA    17    PC   P31  643     1.339721     30.97000 ; qtot 1.385
   644   oT    17    PC   O32  644    -0.508176     16.00000 ; qtot 0.876
   645   cA    17    PC   C31  645     0.166801     12.01000 ; qtot 1.043
   646   hE    17    PC   H1A  646     0.078534      1.00800 ; qtot 1.122
   647   hE    17    PC   H1B  647     0.078534      1.00800 ; qtot 1.200
   648   cA    17    PC   C32  648    -0.170824     12.01000 ; qtot 1.029
   649   hX    17    PC   H2A  649     0.136415      1.00800 ; qtot 1.166
   650   hX    17    PC   H2B  650     0.136415      1.00800 ; qtot 1.302
   651   nA    17    PC   N31  651     0.245262     14.01000 ; qtot 1.548
   652   cA    17    PC   C33  652    -0.338973     12.01000 ; qtot 1.209
   653   hX    17    PC   H3A  653     0.172230      1.00800 ; qtot 1.381
   654   hX    17    PC   H3B  654     0.172230      1.00800 ; qtot 1.553
   655   hX    17    PC   H3C  655     0.172230      1.00800 ; qtot 1.725
   656   cA    17    PC   C34  656    -0.338973     12.01000 ; qtot 1.386
   657   hX    17    PC   H4A  657     0.172230      1.00800 ; qtot 1.559
   658   hX    17    PC   H4B  658     0.172230      1.00800 ; qtot 1.731
   659   hX    17    PC   H4C  659     0.172230      1.00800 ; qtot 1.903
   660   cA    17    PC   C35  660    -0.338973     12.01000 ; qtot 1.564
   661   hX    17    PC   H5A  661     0.172230      1.00800 ; qtot 1.736
   662   hX    17    PC   H5B  662     0.172230      1.00800 ; qtot 1.908
   663   hX    17    PC   H5C  663     0.172230      1.00800 ; qtot 2.081
   664   oP    17    PC   O33  664    -0.875812     16.00000 ; qtot 1.205
   665   oP    17    PC   O34  665    -0.875812     16.00000 ; qtot 0.329
   666   oS    17    PC   O21  666    -0.552948     16.00000 ; qtot -0.224
   667   cC    17    PC   C21  667     0.897613     12.01000 ; qtot 0.674
   668   oC    17    PC   O22  668    -0.673755     16.00000 ; qtot 0.000
   669   hL    18    MY  H14T  669     0.025511      1.00800 ; qtot 0.026
   670   cD    18    MY  C114  670    -0.111712     12.01000 ; qtot -0.086
   671   hL    18    MY  H14R  671     0.025511      1.00800 ; qtot -0.061
   672   hL    18    MY  H14S  672     0.025511      1.00800 ; qtot -0.035
   673   cD    18    MY  C113  673     0.017463     12.01000 ; qtot -0.018
   674   hL    18    MY  H13R  674     0.007531      1.00800 ; qtot -0.010
   675   hL    18    MY  H13S  675     0.007531      1.00800 ; qtot -0.003
   676   cD    18    MY  C112  676    -0.028094     12.01000 ; qtot -0.031
   677   hL    18    MY  H12R  677     0.017208      1.00800 ; qtot -0.014
   678   hL    18    MY  H12S  678     0.017208      1.00800 ; qtot 0.004
   679   cD    18    MY  C111  679    -0.031787     12.01000 ; qtot -0.028
   680   hL    18    MY  H11R  680     0.012677      1.00800 ; qtot -0.015
   681   hL    18    MY  H11S  681     0.012677      1.00800 ; qtot -0.003
   682   cD    18    MY  C110  682    -0.021025     12.01000 ; qtot -0.024
   683   hL    18    MY  H10R  683     0.010037      1.00800 ; qtot -0.014
   684   hL    18    MY  H10S  684     0.010037      1.00800 ; qtot -0.004
   685   cD    18    MY   C19  685    -0.014653     12.01000 ; qtot -0.018
   686   hL    18    MY   H9R  686     0.010172      1.00800 ; qtot -0.008
   687   hL    18    MY   H9S  687     0.010172      1.00800 ; qtot 0.002
   688   cD    18    MY   C18  688    -0.026451     12.01000 ; qtot -0.024
   689   hL    18    MY   H8R  689     0.011241      1.00800 ; qtot -0.013
   690   hL    18    MY   H8S  690     0.011241      1.00800 ; qtot -0.002
   691   cD    18    MY   C17  691    -0.004386     12.01000 ; qtot -0.006
   692   hL    18    MY   H7R  692     0.006833      1.00800 ; qtot 0.000
   693   hL    18    MY   H7S  693     0.006833      1.00800 ; qtot 0.007
   694   cD    18    MY   C16  694    -0.027812     12.01000 ; qtot -0.021
   695   hL    18    MY   H6R  695     0.011511      1.00800 ; qtot -0.009
   696   hL    18    MY   H6S  696     0.011511      1.00800 ; qtot 0.002
   697   cD    18    MY   C15  697    -0.016521     12.01000 ; qtot -0.014
   698   hL    18    MY   H5R  698     0.010573      1.00800 ; qtot -0.003
   699   hL    18    MY   H5S  699     0.010573      1.00800 ; qtot 0.007
   700   cD    18    MY   C14  700    -0.026954     12.01000 ; qtot -0.020
   701   hL    18    MY   H4R  701     0.020431      1.00800 ; qtot 0.001
   702   hL    18    MY   H4S  702     0.020431      1.00800 ; qtot 0.021
   703   cD    18    MY   C13  703    -0.002435     12.01000 ; qtot 0.019
   704   hL    18    MY   H3R  704     0.018859      1.00800 ; qtot 0.037
   705   hL    18    MY   H3S  705     0.018859      1.00800 ; qtot 0.056
   706   cD    18    MY   C12  706    -0.164200     12.01000 ; qtot -0.108
   707   hL    18    MY   H2R  707     0.053944      1.00800 ; qtot -0.054
   708   hL    18    MY   H2S  708     0.053944      1.00800 ; qtot -0.000
   709   hL    19    MY  H14T  709     0.025511      1.00800 ; qtot 0.026
   710   cD    19    MY  C114  710    -0.111712     12.01000 ; qtot -0.086
   711   hL    19    MY  H14R  711     0.025511      1.00800 ; qtot -0.061
   712   hL    19    MY  H14S  712     0.025511      1.00800 ; qtot -0.035
   713   cD    19    MY  C113  713     0.017463     12.01000 ; qtot -0.018
   714   hL    19    MY  H13R  714     0.007531      1.00800 ; qtot -0.010
   715   hL    19    MY  H13S  715     0.007531      1.00800 ; qtot -0.003
   716   cD    19    MY  C112  716    -0.028094     12.01000 ; qtot -0.031
   717   hL    19    MY  H12R  717     0.017208      1.00800 ; qtot -0.014
   718   hL    19    MY  H12S  718     0.017208      1.00800 ; qtot 0.004
   719   cD    19    MY  C111  719    -0.031787     12.01000 ; qtot -0.028
   720   hL    19    MY  H11R  720     0.012677      1.00800 ; qtot -0.015
   721   hL    19    MY  H11S  721     0.012677      1.00800 ; qtot -0.003
   722   cD    19    MY  C110  722    -0.021025     12.01000 ; qtot -0.024
   723   hL    19    MY  H10R  723     0.010037      1.00800 ; qtot -0.014
   724   hL    19    MY  H10S  724     0.010037      1.00800 ; qtot -0.004
   725   cD    19    MY   C19  725    -0.014653     12.01000 ; qtot -0.018
   726   hL    19    MY   H9R  726     0.010172      1.00800 ; qtot -0.008
   727   hL    19    MY   H9S  727     0.010172      1.00800 ; qtot 0.002
   728   cD    19    MY   C18  728    -0.026451     12.01000 ; qtot -0.024
   729   hL    19    MY   H8R  729     0.011241      1.00800 ; qtot -0.013
   730   hL    19    MY   H8S  730     0.011241      1.00800 ; qtot -0.002
   731   cD    19    MY   C17  731    -0.004386     12.01000 ; qtot -0.006
   732   hL    19    MY   H7R  732     0.006833      1.00800 ; qtot 0.000
   733   hL    19    MY   H7S  733     0.006833      1.00800 ; qtot 0.007
   734   cD    19    MY   C16  734    -0.027812     12.01000 ; qtot -0.021
   735   hL    19    MY   H6R  735     0.011511      1.00800 ; qtot -0.009
   736   hL    19    MY   H6S  736     0.011511      1.00800 ; qtot 0.002
   737   cD    19    MY   C15  737    -0.016521     12.01000 ; qtot -0.014
   738   hL    19    MY   H5R  738     0.010573      1.00800 ; qtot -0.003
   739   hL    19    MY   H5S  739     0.010573      1.00800 ; qtot 0.007
   740   cD    19    MY   C14  740    -0.026954     12.01000 ; qtot -0.020
   741   hL    19    MY   H4R  741     0.020431      1.00800 ; qtot 0.001
   742   hL    19    MY   H4S  742     0.020431      1.00800 ; qtot 0.021
   743   cD    19    MY   C13  743    -0.002435     12.01000 ; qtot 0.019
   744   hL    19    MY   H3R  744     0.018859      1.00800 ; qtot 0.037
   745   hL    19    MY   H3S  745     0.018859      1.00800 ; qtot 0.056
   746   cD    19    MY   C12  746    -0.164200     12.01000 ; qtot -0.108
   747   hL    19    MY   H2R  747     0.053944      1.00800 ; qtot -0.054
   748   hL    19    MY   H2S  748     0.053944      1.00800 ; qtot -0.000
   749   cC    20    PC   C11  749     0.910403     12.01000 ; qtot 0.910
   750   oC    20    PC   O12  750    -0.671566     16.00000 ; qtot 0.239
   751   oS    20    PC   O11  751    -0.575489     16.00000 ; qtot -0.337
   752   cA    20    PC    C1  752     0.196939     12.01000 ; qtot -0.140
   753   hE    20    PC    HR  753     0.070469      1.00800 ; qtot -0.069
   754   hE    20    PC    HS  754     0.070469      1.00800 ; qtot 0.001
   755   cA    20    PC    C2  755     0.281242     12.01000 ; qtot 0.282
   756   hE    20    PC    HX  756     0.063253      1.00800 ; qtot 0.346
   757   cA    20    PC    C3  757     0.017459     12.01000 ; qtot 0.363
   758   hE    20    PC    HA  758     0.095591      1.00800 ; qtot 0.459
   759   hE    20    PC    HB  759     0.095591      1.00800 ; qtot 0.554
   760   oT    20    PC   O31  760    -0.509480     16.00000 ; qtot 0.045
   761   pA    20    PC   P31  761     1.339721     30.97000 ; qtot 1.385
   762   oT    20    PC   O32  762    -0.508176     16.00000 ; qtot 0.876
   763   cA    20    PC   C31  763     0.166801     12.01000 ; qtot 1.043
   764   hE    20    PC   H1A  764     0.078534      1.00800 ; qtot 1.122
   765   hE    20    PC   H1B  765     0.078534      1.00800 ; qtot 1.200
   766   cA    20    PC   C32  766    -0.170824     12.01000 ; qtot 1.029
   767   hX    20    PC   H2A  767     0.136415      1.00800 ; qtot 1.166
   768   hX    20    PC   H2B  768     0.136415      1.00800 ; qtot 1.302
   769   nA    20    PC   N31  769     0.245262     14.01000 ; qtot 1.548
   770   cA    20    PC   C33  770    -0.338973     12.01000 ; qtot 1.209
   771   hX    20    PC   H3A  771     0.172230      1.00800 ; qtot 1.381
   772   hX    20    PC   H3B  772     0.172230      1.00800 ; qtot 1.553
   773   hX    20    PC   H3C  773     0.172230      1.00800 ; qtot 1.725
   774   cA    20    PC   C34  774    -0.338973     12.01000 ; qtot 1.386
   775   hX    20    PC   H4A  775     0.172230      1.00800 ; qtot 1.559
   776   hX    20    PC   H4B  776     0.172230      1.00800 ; qtot 1.731
   777   hX    20    PC   H4C  777     0.172230      1.00800 ; qtot 1.903
   778   cA    20    PC   C35  778    -0.338973     12.01000 ; qtot 1.564
   779   hX    20    PC   H5A  779     0.172230      1.00800 ; qtot 1.736
   780   hX    20    PC   H5B  780     0.172230      1.00800 ; qtot 1.908
   781   hX    20    PC   H5C  781     0.172230      1.00800 ; qtot 2.081
   782   oP    20    PC   O33  782    -0.875812     16.00000 ; qtot 1.205
   783   oP    20    PC   O34  783    -0.875812     16.00000 ; qtot 0.329
   784   oS    20    PC   O21  784    -0.552948     16.00000 ; qtot -0.224
   785   cC    20    PC   C21  785     0.897613     12.01000 ; qtot 0.674
   786   oC    20    PC   O22  786    -0.673755     16.00000 ; qtot 0.000
   787   hL    21    MY  H14T  787     0.025511      1.00800 ; qtot 0.026
   788   cD    21    MY  C114  788    -0.111712     12.01000 ; qtot -0.086
   789   hL    21    MY  H14R  789     0.025511      1.00800 ; qtot -0.061
   790   hL    21    MY  H14S  790     0.025511      1.00800 ; qtot -0.035
   791   cD    21    MY  C113  791     0.017463     12.01000 ; qtot -0.018
   792   hL    21    MY  H13R  792     0.007531      1.00800 ; qtot -0.010
   793   hL    21    MY  H13S  793     0.007531      1.00800 ; qtot -0.003
   794   cD    21    MY  C112  794    -0.028094     12.01000 ; qtot -0.031
   795   hL    21    MY  H12R  795     0.017208      1.00800 ; qtot -0.014
   796   hL    21    MY  H12S  796     0.017208      1.00800 ; qtot 0.004
   797   cD    21    MY  C111  797    -0.031787     12.01000 ; qtot -0.028
   798   hL    21    MY  H11R  798     0.012677      1.00800 ; qtot -0.015
   799   hL    21    MY  H11S  799     0.012677      1.00800 ; qtot -0.003
   800   cD    21    MY  C110  800    -0.021025     12.01000 ; qtot -0.024
   801   hL    21    MY  H10R  801     0.010037      1.00800 ; qtot -0.014
   802   hL    21    MY  H10S  802     0.010037      1.00800 ; qtot -0.004
   803   cD    21    MY   C19  803    -0.014653     12.01000 ; qtot -0.018
   804   hL    21    MY   H9R  804     0.010172      1.00800 ; qtot -0.008
   805   hL    21    MY   H9S  805     0.010172      1.00800 ; qtot 0.002
   806   cD    21    MY   C18  806    -0.026451     12.01000 ; qtot -0.024
   807   hL    21    MY   H8R  807     0.011241      1.00800 ; qtot -0.013
   808   hL    21    MY   H8S  808     0.011241      1.00800 ; qtot -0.002
   809   cD    21    MY   C17  809    -0.004386     12.01000 ; qtot -0.006
   810   hL    21    MY   H7R  810     0.006833      1.00800 ; qtot 0.000
   811   hL    21    MY   H7S  811     0.006833      1.00800 ; qtot 0.007
   812   cD    21    MY   C16  812    -0.027812     12.01000 ; qtot -0.021
   813   hL    21    MY   H6R  813     0.011511      1.00800 ; qtot -0.009
   814   hL    21    MY   H6S  814     0.011511      1.00800 ; qtot 0.002
   815   cD    21    MY   C15  815    -0.016521     12.01000 ; qtot -0.014
   816   hL    21    MY   H5R  816     0.010573      1.00800 ; qtot -0.003
   817   hL    21    MY   H5S  817     0.010573      1.00800 ; qtot 0.007
   818   cD    21    MY   C14  818    -0.026954     12.01000 ; qtot -0.020
   819   hL    21    MY   H4R  819     0.020431      1.00800 ; qtot 0.001
   820   hL    21    MY   H4S  820     0.020431      1.00800 ; qtot 0.021
   821   cD    21    MY   C13  821    -0.002435     12.01000 ; qtot 0.019
   822   hL    21    MY   H3R  822     0.018859      1.00800 ; qtot 0.037
   823   hL    21    MY   H3S  823     0.018859      1.00800 ; qtot 0.056
   824   cD    21    MY   C12  824    -0.164200     12.01000 ; qtot -0.108
   825   hL    21    MY   H2R  825     0.053944      1.00800 ; qtot -0.054
   826   hL    21    MY   H2S  826     0.053944      1.00800 ; qtot -0.000
   827   hL    22    MY  H14T  827     0.025511      1.00800 ; qtot 0.026
   828   cD    22    MY  C114  828    -0.111712     12.01000 ; qtot -0.086
   829   hL    22    MY  H14R  829     0.025511      1.00800 ; qtot -0.061
   830   hL    22    MY  H14S  830     0.025511      1.00800 ; qtot -0.035
   831   cD    22    MY  C113  831     0.017463     12.01000 ; qtot -0.018
   832   hL    22    MY  H13R  832     0.007531      1.00800 ; qtot -0.010
   833   hL    22    MY  H13S  833     0.007531      1.00800 ; qtot -0.003
   834   cD    22    MY  C112  834    -0.028094     12.01000 ; qtot -0.031
   835   hL    22    MY  H12R  835     0.017208      1.00800 ; qtot -0.014
   836   hL    22    MY  H12S  836     0.017208      1.00800 ; qtot 0.004
   837   cD    22    MY  C111  837    -0.031787     12.01000 ; qtot -0.028
   838   hL    22    MY  H11R  838     0.012677      1.00800 ; qtot -0.015
   839   hL    22    MY  H11S  839     0.012677      1.00800 ; qtot -0.003
   840   cD    22    MY  C110  840    -0.021025     12.01000 ; qtot -0.024
   841   hL    22    MY  H10R  841     0.010037      1.00800 ; qtot -0.014
   842   hL    22    MY  H10S  842     0.010037      1.00800 ; qtot -0.004
   843   cD    22    MY   C19  843    -0.014653     12.01000 ; qtot -0.018
   844   hL    22    MY   H9R  844     0.010172      1.00800 ; qtot -0.008
   845   hL    22    MY   H9S  845     0.010172      1.00800 ; qtot 0.002
   846   cD    22    MY   C18  846    -0.026451     12.01000 ; qtot -0.024
   847   hL    22    MY   H8R  847     0.011241      1.00800 ; qtot -0.013
   848   hL    22    MY   H8S  848     0.011241      1.00800 ; qtot -0.002
   849   cD    22    MY   C17  849    -0.004386     12.01000 ; qtot -0.006
   850   hL    22    MY   H7R  850     0.006833      1.00800 ; qtot 0.000
   851   hL    22    MY   H7S  851     0.006833      1.00800 ; qtot 0.007
   852   cD    22    MY   C16  852    -0.027812     12.01000 ; qtot -0.021
   853   hL    22    MY   H6R  853     0.011511      1.00800 ; qtot -0.009
   854   hL    22    MY   H6S  854     0.011511      1.00800 ; qtot 0.002
   855   cD    22    MY   C15  855    -0.016521     12.01000 ; qtot -0.014
   856   hL    22    MY   H5R  856     0.010573      1.00800 ; qtot -0.003
   857   hL    22    MY   H5S  857     0.010573      1.00800 ; qtot 0.007
   858   cD    22    MY   C14  858    -0.026954     12.01000 ; qtot -0.020
   859   hL    22    MY   H4R  859     0.020431      1.00800 ; qtot 0.001
   860   hL    22    MY   H4S  860     0.020431      1.00800 ; qtot 0.021
   861   cD    22    MY   C13  861    -0.002435     12.01000 ; qtot 0.019
   862   hL    22    MY   H3R  862     0.018859      1.00800 ; qtot 0.037
   863   hL    22    MY   H3S  863     0.018859      1.00800 ; qtot 0.056
   864   cD    22    MY   C12  864    -0.164200     12.01000 ; qtot -0.108
   865   hL    22    MY   H2R  865     0.053944      1.00800 ; qtot -0.054
   866   hL    22    MY   H2S  866     0.053944      1.00800 ; qtot -0.000
   867   cC    23    PC   C11  867     0.910403     12.01000 ; qtot 0.910
   868   oC    23    PC   O12  868    -0.671566     16.00000 ; qtot 0.239
   869   oS    23    PC   O11  869    -0.575489     16.00000 ; qtot -0.337
   870   cA    23    PC    C1  870     0.196939     12.01000 ; qtot -0.140
   871   hE    23    PC    HR  871     0.070469      1.00800 ; qtot -0.069
   872   hE    23    PC    HS  872     0.070469      1.00800 ; qtot 0.001
   873   cA    23    PC    C2  873     0.281242     12.01000 ; qtot 0.282
   874   hE    23    PC    HX  874     0.063253      1.00800 ; qtot 0.346
   875   cA    23    PC    C3  875     0.017459     12.01000 ; qtot 0.363
   876   hE    23    PC    HA  876     0.095591      1.00800 ; qtot 0.459
   877   hE    23    PC    HB  877     0.095591      1.00800 ; qtot 0.554
   878   oT    23    PC   O31  878    -0.509480     16.00000 ; qtot 0.045
   879   pA    23    PC   P31  879     1.339721     30.97000 ; qtot 1.385
   880   oT    23    PC   O32  880    -0.508176     16.00000 ; qtot 0.876
   881   cA    23    PC   C31  881     0.166801     12.01000 ; qtot 1.043
   882   hE    23    PC   H1A  882     0.078534      1.00800 ; qtot 1.122
   883   hE    23    PC   H1B  883     0.078534      1.00800 ; qtot 1.200
   884   cA    23    PC   C32  884    -0.170824     12.01000 ; qtot 1.029
   885   hX    23    PC   H2A  885     0.136415      1.00800 ; qtot 1.166
   886   hX    23    PC   H2B  886     0.136415      1.00800 ; qtot 1.302
   887   nA    23    PC   N31  887     0.245262     14.01000 ; qtot 1.548
   888   cA    23    PC   C33  888    -0.338973     12.01000 ; qtot 1.209
   889   hX    23    PC   H3A  889     0.172230      1.00800 ; qtot 1.381
   890   hX    23    PC   H3B  890     0.172230      1.00800 ; qtot 1.553
   891   hX    23    PC   H3C  891     0.172230      1.00800 ; qtot 1.725
   892   cA    23    PC   C34  892    -0.338973     12.01000 ; qtot 1.386
   893   hX    23    PC   H4A  893     0.172230      1.00800 ; qtot 1.559
   894   hX    23    PC   H4B  894     0.172230      1.00800 ; qtot 1.731
   895   hX    23    PC   H4C  895     0.172230      1.00800 ; qtot 1.903
   896   cA    23    PC   C35  896    -0.338973     12.01000 ; qtot 1.564
   897   hX    23    PC   H5A  897     0.172230      1.00800 ; qtot 1.736
   898   hX    23    PC   H5B  898     0.172230      1.00800 ; qtot 1.908
   899   hX    23    PC   H5C  899     0.172230      1.00800 ; qtot 2.081
   900   oP    23    PC   O33  900    -0.875812     16.00000 ; qtot 1.205
   901   oP    23    PC   O34  901    -0.875812     16.00000 ; qtot 0.329
   902   oS    23    PC   O21  902    -0.552948     16.00000 ; qtot -0.224
   903   cC    23    PC   C21  903     0.897613     12.01000 ; qtot 0.674
   904   oC    23    PC   O22  904    -0.673755     16.00000 ; qtot 0.000
   905   hL    24    MY  H14T  905     0.025511      1.00800 ; qtot 0.026
   906   cD    24    MY  C114  906    -0.111712     12.01000 ; qtot -0.086
   907   hL    24    MY  H14R  907     0.025511      1.00800 ; qtot -0.061
   908   hL    24    MY  H14S  908     0.025511      1.00800 ; qtot -0.035
   909   cD    24    MY  C113  909     0.017463     12.01000 ; qtot -0.018
   910   hL    24    MY  H13R  910     0.007531      1.00800 ; qtot -0.010
   911   hL    24    MY  H13S  911     0.007531      1.00800 ; qtot -0.003
   912   cD    24    MY  C112  912    -0.028094     12.01000 ; qtot -0.031
   913   hL    24    MY  H12R  913     0.017208      1.00800 ; qtot -0.014
   914   hL    24    MY  H12S  914     0.017208      1.00800 ; qtot 0.004
   915   cD    24    MY  C111  915    -0.031787     12.01000 ; qtot -0.028
   916   hL    24    MY  H11R  916     0.012677      1.00800 ; qtot -0.015
   917   hL    24    MY  H11S  917     0.012677      1.00800 ; qtot -0.003
   918   cD    24    MY  C110  918    -0.021025     12.01000 ; qtot -0.024
   919   hL    24    MY  H10R  919     0.010037      1.00800 ; qtot -0.014
   920   hL    24    MY  H10S  920     0.010037      1.00800 ; qtot -0.004
   921   cD    24    MY   C19  921    -0.014653     12.01000 ; qtot -0.018
   922   hL    24    MY   H9R  922     0.010172      1.00800 ; qtot -0.008
   923   hL    24    MY   H9S  923     0.010172      1.00800 ; qtot 0.002
   924   cD    24    MY   C18  924    -0.026451     12.01000 ; qtot -0.024
   925   hL    24    MY   H8R  925     0.011241      1.00800 ; qtot -0.013
   926   hL    24    MY   H8S  926     0.011241      1.00800 ; qtot -0.002
   927   cD    24    MY   C17  927    -0.004386     12.01000 ; qtot -0.006
   928   hL    24    MY   H7R  928     0.006833      1.00800 ; qtot 0.000
   929   hL    24    MY   H7S  929     0.006833      1.00800 ; qtot 0.007
   930   cD    24    MY   C16  930    -0.027812     12.01000 ; qtot -0.021
   931   hL    24    MY   H6R  931     0.011511      1.00800 ; qtot -0.009
   932   hL    24    MY   H6S  932     0.011511      1.00800 ; qtot 0.002
   933   cD    24    MY   C15  933    -0.016521     12.01000 ; qtot -0.014
   934   hL    24    MY   H5R  934     0.010573      1.00800 ; qtot -0.003
   935   hL    24    MY   H5S  935     0.010573      1.00800 ; qtot 0.007
   936   cD    24    MY   C14  936    -0.026954     12.01000 ; qtot -0.020
   937   hL    24    MY   H4R  937     0.020431      1.00800 ; qtot 0.001
   938   hL    24    MY   H4S  938     0.020431      1.00800 ; qtot 0.021
   939   cD    24    MY   C13  939    -0.002435     12.01000 ; qtot 0.019
   940   hL    24    MY   H3R  940     0.018859      1.00800 ; qtot 0.037
   941   hL    24    MY   H3S  941     0.018859      1.00800 ; qtot 0.056
   942   cD    24    MY   C12  942    -0.164200     12.01000 ; qtot -0.108
   943   hL    24    MY   H2R  943     0.053944      1.00800 ; qtot -0.054
   944   hL    24    MY   H2S  944     0.053944      1.00800 ; qtot -0.000
   945   hL    25    MY  H14T  945     0.025511      1.00800 ; qtot 0.026
   946   cD    25    MY  C114  946    -0.111712     12.01000 ; qtot -0.086
   947   hL    25    MY  H14R  947     0.025511      1.00800 ; qtot -0.061
   948   hL    25    MY  H14S  948     0.025511      1.00800 ; qtot -0.035
   949   cD    25    MY  C113  949     0.017463     12.01000 ; qtot -0.018
   950   hL    25    MY  H13R  950     0.007531      1.00800 ; qtot -0.010
   951   hL    25    MY  H13S  951     0.007531      1.00800 ; qtot -0.003
   952   cD    25    MY  C112  952    -0.028094     12.01000 ; qtot -0.031
   953   hL    25    MY  H12R  953     0.017208      1.00800 ; qtot -0.014
   954   hL    25    MY  H12S  954     0.017208      1.00800 ; qtot 0.004
   955   cD    25    MY  C111  955    -0.031787     12.01000 ; qtot -0.028
   956   hL    25    MY  H11R  956     0.012677      1.00800 ; qtot -0.015
   957   hL    25    MY  H11S  957     0.012677      1.00800 ; qtot -0.003
   958   cD    25    MY  C110  958    -0.021025     12.01000 ; qtot -0.024
   959   hL    25    MY  H10R  959     0.010037      1.00800 ; qtot -0.014
   960   hL    25    MY  H10S  960     0.010037      1.00800 ; qtot -0.004
   961   cD    25    MY   C19  961    -0.014653     12.01000 ; qtot -0.018
   962   hL    25    MY   H9R  962     0.010172      1.00800 ; qtot -0.008
   963   hL    25    MY   H9S  963     0.010172      1.00800 ; qtot 0.002
   964   cD    25    MY   C18  964    -0.026451     12.01000 ; qtot -0.024
   965   hL    25    MY   H8R  965     0.011241      1.00800 ; qtot -0.013
   966   hL    25    MY   H8S  966     0.011241      1.00800 ; qtot -0.002
   967   cD    25    MY   C17  967    -0.004386     12.01000 ; qtot -0.006
   968   hL    25    MY   H7R  968     0.006833      1.00800 ; qtot 0.000
   969   hL    25    MY   H7S  969     0.006833      1.00800 ; qtot 0.007
   970   cD    25    MY   C16  970    -0.027812     12.01000 ; qtot -0.021
   971   hL    25    MY   H6R  971     0.011511      1.00800 ; qtot -0.009
   972   hL    25    MY   H6S  972     0.011511      1.00800 ; qtot 0.002
   973   cD    25    MY   C15  973    -0.016521     12.01000 ; qtot -0.014
   974   hL    25    MY   H5R  974     0.010573      1.00800 ; qtot -0.003
   975   hL    25    MY   H5S  975     0.010573      1.00800 ; qtot 0.007
   976   cD    25    MY   C14  976    -0.026954     12.01000 ; qtot -0.020
   977   hL    25    MY   H4R  977     0.020431      1.00800 ; qtot 0.001
   978   hL    25    MY   H4S  978     0.020431      1.00800 ; qtot 0.021
   979   cD    25    MY   C13  979    -0.002435     12.01000 ; qtot 0.019
   980   hL    25    MY   H3R  980     0.018859      1.00800 ; qtot 0.037
   981   hL    25    MY   H3S  981     0.018859      1.00800 ; qtot 0.056
   982   cD    25    MY   C12  982    -0.164200     12.01000 ; qtot -0.108
   983   hL    25    MY   H2R  983     0.053944      1.00800 ; qtot -0.054
   984   hL    25    MY   H2S  984     0.053944      1.00800 ; qtot -0.000
   985   cC    26    PC   C11  985     0.910403     12.01000 ; qtot 0.910
   986   oC    26    PC   O12  986    -0.671566     16.00000 ; qtot 0.239
   987   oS    26    PC   O11  987    -0.575489     16.00000 ; qtot -0.337
   988   cA    26    PC    C1  988     0.196939     12.01000 ; qtot -0.140
   989   hE    26    PC    HR  989     0.070469      1.00800 ; qtot -0.069
   990   hE    26    PC    HS  990     0.070469      1.00800 ; qtot 0.001
   991   cA    26    PC    C2  991     0.281242     12.01000 ; qtot 0.282
   992   hE    26    PC    HX  992     0.063253      1.00800 ; qtot 0.346
   993   cA    26    PC    C3  993     0.017459     12.01000 ; qtot 0.363
   994   hE    26    PC    HA  994     0.095591      1.00800 ; qtot 0.459
   995   hE    26    PC    HB  995     0.095591      1.00800 ; qtot 0.554
   996   oT    26    PC   O31  996    -0.509480     16.00000 ; qtot 0.045
   997   pA    26    PC   P31  997     1.339721     30.97000 ; qtot 1.385
   998   oT    26    PC   O32  998    -0.508176     16.00000 ; qtot 0.876
   999   cA    26    PC   C31  999     0.166801     12.01000 ; qtot 1.043
  1000   hE    26    PC   H1A 1000     0.078534      1.00800 ; qtot 1.122
  1001   hE    26    PC   H1B 1001     0.078534      1.00800 ; qtot 1.200
  1002   cA    26    PC   C32 1002    -0.170824     12.01000 ; qtot 1.029
  1003   hX    26    PC   H2A 1003     0.136415      1.00800 ; qtot 1.166
  1004   hX    26    PC   H2B 1004     0.136415      1.00800 ; qtot 1.302
  1005   nA    26    PC   N31 1005     0.245262     14.01000 ; qtot 1.548
  1006   cA    26    PC   C33 1006    -0.338973     12.01000 ; qtot 1.209
  1007   hX    26    PC   H3A 1007     0.172230      1.00800 ; qtot 1.381
  1008   hX    26    PC   H3B 1008     0.172230      1.00800 ; qtot 1.553
  1009   hX    26    PC   H3C 1009     0.172230      1.00800 ; qtot 1.725
  1010   cA    26    PC   C34 1010    -0.338973     12.01000 ; qtot 1.386
  1011   hX    26    PC   H4A 1011     0.172230      1.00800 ; qtot 1.559
  1012   hX    26    PC   H4B 1012     0.172230      1.00800 ; qtot 1.731
  1013   hX    26    PC   H4C 1013     0.172230      1.00800 ; qtot 1.903
  1014   cA    26    PC   C35 1014    -0.338973     12.01000 ; qtot 1.564
  1015   hX    26    PC   H5A 1015     0.172230      1.00800 ; qtot 1.736
  1016   hX    26    PC   H5B 1016     0.172230      1.00800 ; qtot 1.908
  1017   hX    26    PC   H5C 1017     0.172230      1.00800 ; qtot 2.081
  1018   oP    26    PC   O33 1018    -0.875812     16.00000 ; qtot 1.205
  1019   oP    26    PC   O34 1019    -0.875812     16.00000 ; qtot 0.329
  1020   oS    26    PC   O21 1020    -0.552948     16.00000 ; qtot -0.224
  1021   cC    26    PC   C21 1021     0.897613     12.01000 ; qtot 0.674
  1022   oC    26    PC   O22 1022    -0.673755     16.00000 ; qtot 0.000
  1023   hL    27    MY  H14T 1023     0.025511      1.00800 ; qtot 0.026
  1024   cD    27    MY  C114 1024    -0.111712     12.01000 ; qtot -0.086
  1025   hL    27    MY  H14R 1025     0.025511      1.00800 ; qtot -0.061
  1026   hL    27    MY  H14S 1026     0.025511      1.00800 ; qtot -0.035
  1027   cD    27    MY  C113 1027     0.017463     12.01000 ; qtot -0.018
  1028   hL    27    MY  H13R 1028     0.007531      1.00800 ; qtot -0.010
  1029   hL    27    MY  H13S 1029     0.007531      1.00800 ; qtot -0.003
  1030   cD    27    MY  C112 1030    -0.028094     12.01000 ; qtot -0.031
  1031   hL    27    MY  H12R 1031     0.017208      1.00800 ; qtot -0.014
  1032   hL    27    MY  H12S 1032     0.017208      1.00800 ; qtot 0.004
  1033   cD    27    MY  C111 1033    -0.031787     12.01000 ; qtot -0.028
  1034   hL    27    MY  H11R 1034     0.012677      1.00800 ; qtot -0.015
  1035   hL    27    MY  H11S 1035     0.012677      1.00800 ; qtot -0.003
  1036   cD    27    MY  C110 1036    -0.021025     12.01000 ; qtot -0.024
  1037   hL    27    MY  H10R 1037     0.010037      1.00800 ; qtot -0.014
  1038   hL    27    MY  H10S 1038     0.010037      1.00800 ; qtot -0.004
  1039   cD    27    MY   C19 1039    -0.014653     12.01000 ; qtot -0.018
  1040   hL    27    MY   H9R 1040     0.010172      1.00800 ; qtot -0.008
  1041   hL    27    MY   H9S 1041     0.010172      1.00800 ; qtot 0.002
  1042   cD    27    MY   C18 1042    -0.026451     12.01000 ; qtot -0.024
  1043   hL    27    MY   H8R 1043     0.011241      1.00800 ; qtot -0.013
  1044   hL    27    MY   H8S 1044     0.011241      1.00800 ; qtot -0.002
  1045   cD    27    MY   C17 1045    -0.004386     12.01000 ; qtot -0.006
  1046   hL    27    MY   H7R 1046     0.006833      1.00800 ; qtot 0.000
  1047   hL    27    MY   H7S 1047     0.006833      1.00800 ; qtot 0.007
  1048   cD    27    MY   C16 1048    -0.027812     12.01000 ; qtot -0.021
  1049   hL    27    MY   H6R 1049     0.011511      1.00800 ; qtot -0.009
  1050   hL    27    MY   H6S 1050     0.011511      1.00800 ; qtot 0.002
  1051   cD    27    MY   C15 1051    -0.016521     12.01000 ; qtot -0.014
  1052   hL    27    MY   H5R 1052     0.010573      1.00800 ; qtot -0.003
  1053   hL    27    MY   H5S 1053     0.010573      1.00800 ; qtot 0.007
  1054   cD    27    MY   C14 1054    -0.026954     12.01000 ; qtot -0.020
  1055   hL    27    MY   H4R 1055     0.020431      1.00800 ; qtot 0.001
  1056   hL    27    MY   H4S 1056     0.020431      1.00800 ; qtot 0.021
  1057   cD    27    MY   C13 1057    -0.002435     12.01000 ; qtot 0.019
  1058   hL    27    MY   H3R 1058     0.018859      1.00800 ; qtot 0.037
  1059   hL    27    MY   H3S 1059     0.018859      1.00800 ; qtot 0.056
  1060   cD    27    MY   C12 1060    -0.164200     12.01000 ; qtot -0.108
  1061   hL    27    MY   H2R 1061     0.053944      1.00800 ; qtot -0.054
  1062   hL    27    MY   H2S 1062     0.053944      1.00800 ; qtot -0.000
  1063   hL    28    MY  H14T 1063     0.025511      1.00800 ; qtot 0.026
  1064   cD    28    MY  C114 1064    -0.111712     12.01000 ; qtot -0.086
  1065   hL    28    MY  H14R 1065     0.025511      1.00800 ; qtot -0.061
  1066   hL    28    MY  H14S 1066     0.025511      1.00800 ; qtot -0.035
  1067   cD    28    MY  C113 1067     0.017463     12.01000 ; qtot -0.018
  1068   hL    28    MY  H13R 1068     0.007531      1.00800 ; qtot -0.010
  1069   hL    28    MY  H13S 1069     0.007531      1.00800 ; qtot -0.003
  1070   cD    28    MY  C112 1070    -0.028094     12.01000 ; qtot -0.031
  1071   hL    28    MY  H12R 1071     0.017208      1.00800 ; qtot -0.014
  1072   hL    28    MY  H12S 1072     0.017208      1.00800 ; qtot 0.004
  1073   cD    28    MY  C111 1073    -0.031787     12.01000 ; qtot -0.028
  1074   hL    28    MY  H11R 1074     0.012677      1.00800 ; qtot -0.015
  1075   hL    28    MY  H11S 1075     0.012677      1.00800 ; qtot -0.003
  1076   cD    28    MY  C110 1076    -0.021025     12.01000 ; qtot -0.024
  1077   hL    28    MY  H10R 1077     0.010037      1.00800 ; qtot -0.014
  1078   hL    28    MY  H10S 1078     0.010037      1.00800 ; qtot -0.004
  1079   cD    28    MY   C19 1079    -0.014653     12.01000 ; qtot -0.018
  1080   hL    28    MY   H9R 1080     0.010172      1.00800 ; qtot -0.008
  1081   hL    28    MY   H9S 1081     0.010172      1.00800 ; qtot 0.002
  1082   cD    28    MY   C18 1082    -0.026451     12.01000 ; qtot -0.024
  1083   hL    28    MY   H8R 1083     0.011241      1.00800 ; qtot -0.013
  1084   hL    28    MY   H8S 1084     0.011241      1.00800 ; qtot -0.002
  1085   cD    28    MY   C17 1085    -0.004386     12.01000 ; qtot -0.006
  1086   hL    28    MY   H7R 1086     0.006833      1.00800 ; qtot 0.000
  1087   hL    28    MY   H7S 1087     0.006833      1.00800 ; qtot 0.007
  1088   cD    28    MY   C16 1088    -0.027812     12.01000 ; qtot -0.021
  1089   hL    28    MY   H6R 1089     0.011511      1.00800 ; qtot -0.009
  1090   hL    28    MY   H6S 1090     0.011511      1.00800 ; qtot 0.002
  1091   cD    28    MY   C15 1091    -0.016521     12.01000 ; qtot -0.014
  1092   hL    28    MY   H5R 1092     0.010573      1.00800 ; qtot -0.003
  1093   hL    28    MY   H5S 1093     0.010573      1.00800 ; qtot 0.007
  1094   cD    28    MY   C14 1094    -0.026954     12.01000 ; qtot -0.020
  1095   hL    28    MY   H4R 1095     0.020431      1.00800 ; qtot 0.001
  1096   hL    28    MY   H4S 1096     0.020431      1.00800 ; qtot 0.021
  1097   cD    28    MY   C13 1097    -0.002435     12.01000 ; qtot 0.019
  1098   hL    28    MY   H3R 1098     0.018859      1.00800 ; qtot 0.037
  1099   hL    28    MY   H3S 1099     0.018859      1.00800 ; qtot 0.056
  1100   cD    28    MY   C12 1100    -0.164200     12.01000 ; qtot -0.108
  1101   hL    28    MY   H2R 1101     0.053944      1.00800 ; qtot -0.054
  1102   hL    28    MY   H2S 1102     0.053944      1.00800 ; qtot -0.000
  1103   cC    29    PC   C11 1103     0.910403     12.01000 ; qtot 0.910
  1104   oC    29    PC   O12 1104    -0.671566     16.00000 ; qtot 0.239
  1105   oS    29    PC   O11 1105    -0.575489     16.00000 ; qtot -0.337
  1106   cA    29    PC    C1 1106     0.196939     12.01000 ; qtot -0.140
  1107   hE    29    PC    HR 1107     0.070469      1.00800 ; qtot -0.069
  1108   hE    29    PC    HS 1108     0.070469      1.00800 ; qtot 0.001
  1109   cA    29    PC    C2 1109     0.281242     12.01000 ; qtot 0.282
  1110   hE    29    PC    HX 1110     0.063253      1.00800 ; qtot 0.346
  1111   cA    29    PC    C3 1111     0.017459     12.01000 ; qtot 0.363
  1112   hE    29    PC    HA 1112     0.095591      1.00800 ; qtot 0.459
  1113   hE    29    PC    HB 1113     0.095591      1.00800 ; qtot 0.554
  1114   oT    29    PC   O31 1114    -0.509480     16.00000 ; qtot 0.045
  1115   pA    29    PC   P31 1115     1.339721     30.97000 ; qtot 1.385
  1116   oT    29    PC   O32 1116    -0.508176     16.00000 ; qtot 0.876
  1117   cA    29    PC   C31 1117     0.166801     12.01000 ; qtot 1.043
  1118   hE    29    PC   H1A 1118     0.078534      1.00800 ; qtot 1.122
  1119   hE    29    PC   H1B 1119     0.078534      1.00800 ; qtot 1.200
  1120   cA    29    PC   C32 1120    -0.170824     12.01000 ; qtot 1.029
  1121   hX    29    PC   H2A 1121     0.136415      1.00800 ; qtot 1.166
  1122   hX    29    PC   H2B 1122     0.136415      1.00800 ; qtot 1.302
  1123   nA    29    PC   N31 1123     0.245262     14.01000 ; qtot 1.548
  1124   cA    29    PC   C33 1124    -0.338973     12.01000 ; qtot 1.209
  1125   hX    29    PC   H3A 1125     0.172230      1.00800 ; qtot 1.381
  1126   hX    29    PC   H3B 1126     0.172230      1.00800 ; qtot 1.553
  1127   hX    29    PC   H3C 1127     0.172230      1.00800 ; qtot 1.725
  1128   cA    29    PC   C34 1128    -0.338973     12.01000 ; qtot 1.386
  1129   hX    29    PC   H4A 1129     0.172230      1.00800 ; qtot 1.559
  1130   hX    29    PC   H4B 1130     0.172230      1.00800 ; qtot 1.731
  1131   hX    29    PC   H4C 1131     0.172230      1.00800 ; qtot 1.903
  1132   cA    29    PC   C35 1132    -0.338973     12.01000 ; qtot 1.564
  1133   hX    29    PC   H5A 1133     0.172230      1.00800 ; qtot 1.736
  1134   hX    29    PC   H5B 1134     0.172230      1.00800 ; qtot 1.908
  1135   hX    29    PC   H5C 1135     0.172230      1.00800 ; qtot 2.081
  1136   oP    29    PC   O33 1136    -0.875812     16.00000 ; qtot 1.205
  1137   oP    29    PC   O34 1137    -0.875812     16.00000 ; qtot 0.329
  1138   oS    29    PC   O21 1138    -0.552948     16.00000 ; qtot -0.224
  1139   cC    29    PC   C21 1139     0.897613     12.01000 ; qtot 0.674
  1140   oC    29    PC   O22 1140    -0.673755     16.00000 ; qtot 0.000
  1141   hL    30    MY  H14T 1141     0.025511      1.00800 ; qtot 0.026
  1142   cD    30    MY  C114 1142    -0.111712     12.01000 ; qtot -0.086
  1143   hL    30    MY  H14R 1143     0.025511      1.00800 ; qtot -0.061
  1144   hL    30    MY  H14S 1144     0.025511      1.00800 ; qtot -0.035
  1145   cD    30    MY  C113 1145     0.017463     12.01000 ; qtot -0.018
  1146   hL    30    MY  H13R 1146     0.007531      1.00800 ; qtot -0.010
  1147   hL    30    MY  H13S 1147     0.007531      1.00800 ; qtot -0.003
  1148   cD    30    MY  C112 1148    -0.028094     12.01000 ; qtot -0.031
  1149   hL    30    MY  H12R 1149     0.017208      1.00800 ; qtot -0.014
  1150   hL    30    MY  H12S 1150     0.017208      1.00800 ; qtot 0.004
  1151   cD    30    MY  C111 1151    -0.031787     12.01000 ; qtot -0.028
  1152   hL    30    MY  H11R 1152     0.012677      1.00800 ; qtot -0.015
  1153   hL    30    MY  H11S 1153     0.012677      1.00800 ; qtot -0.003
  1154   cD    30    MY  C110 1154    -0.021025     12.01000 ; qtot -0.024
  1155   hL    30    MY  H10R 1155     0.010037      1.00800 ; qtot -0.014
  1156   hL    30    MY  H10S 1156     0.010037      1.00800 ; qtot -0.004
  1157   cD    30    MY   C19 1157    -0.014653     12.01000 ; qtot -0.018
  1158   hL    30    MY   H9R 1158     0.010172      1.00800 ; qtot -0.008
  1159   hL    30    MY   H9S 1159     0.010172      1.00800 ; qtot 0.002
  1160   cD    30    MY   C18 1160    -0.026451     12.01000 ; qtot -0.024
  1161   hL    30    MY   H8R 1161     0.011241      1.00800 ; qtot -0.013
  1162   hL    30    MY   H8S 1162     0.011241      1.00800 ; qtot -0.002
  1163   cD    30    MY   C17 1163    -0.004386     12.01000 ; qtot -0.006
  1164   hL    30    MY   H7R 1164     0.006833      1.00800 ; qtot 0.000
  1165   hL    30    MY   H7S 1165     0.006833      1.00800 ; qtot 0.007
  1166   cD    30    MY   C16 1166    -0.027812     12.01000 ; qtot -0.021
  1167   hL    30    MY   H6R 1167     0.011511      1.00800 ; qtot -0.009
  1168   hL    30    MY   H6S 1168     0.011511      1.00800 ; qtot 0.002
  1169   cD    30    MY   C15 1169    -0.016521     12.01000 ; qtot -0.014
  1170   hL    30    MY   H5R 1170     0.010573      1.00800 ; qtot -0.003
  1171   hL    30    MY   H5S 1171     0.010573      1.00800 ; qtot 0.007
  1172   cD    30    MY   C14 1172    -0.026954     12.01000 ; qtot -0.020
  1173   hL    30    MY   H4R 1173     0.020431      1.00800 ; qtot 0.001
  1174   hL    30    MY   H4S 1174     0.020431      1.00800 ; qtot 0.021
  1175   cD    30    MY   C13 1175    -0.002435     12.01000 ; qtot 0.019
  1176   hL    30    MY   H3R 1176     0.018859      1.00800 ; qtot 0.037
  1177   hL    30    MY   H3S 1177     0.018859      1.00800 ; qtot 0.056
  1178   cD    30    MY   C12 1178    -0.164200     12.01000 ; qtot -0.108
  1179   hL    30    MY   H2R 1179     0.053944      1.00800 ; qtot -0.054
  1180   hL    30    MY   H2S 1180     0.053944      1.00800 ; qtot -0.000
  1181   hL    31    MY  H14T 1181     0.025511      1.00800 ; qtot 0.026
  1182   cD    31    MY  C114 1182    -0.111712     12.01000 ; qtot -0.086
  1183   hL    31    MY  H14R 1183     0.025511      1.00800 ; qtot -0.061
  1184   hL    31    MY  H14S 1184     0.025511      1.00800 ; qtot -0.035
  1185   cD    31    MY  C113 1185     0.017463     12.01000 ; qtot -0.018
  1186   hL    31    MY  H13R 1186     0.007531      1.00800 ; qtot -0.010
  1187   hL    31    MY  H13S 1187     0.007531      1.00800 ; qtot -0.003
  1188   cD    31    MY  C112 1188    -0.028094     12.01000 ; qtot -0.031
  1189   hL    31    MY  H12R 1189     0.017208      1.00800 ; qtot -0.014
  1190   hL    31    MY  H12S 1190     0.017208      1.00800 ; qtot 0.004
  1191   cD    31    MY  C111 1191    -0.031787     12.01000 ; qtot -0.028
  1192   hL    31    MY  H11R 1192     0.012677      1.00800 ; qtot -0.015
  1193   hL    31    MY  H11S 1193     0.012677      1.00800 ; qtot -0.003
  1194   cD    31    MY  C110 1194    -0.021025     12.01000 ; qtot -0.024
  1195   hL    31    MY  H10R 1195     0.010037      1.00800 ; qtot -0.014
  1196   hL    31    MY  H10S 1196     0.010037      1.00800 ; qtot -0.004
  1197   cD    31    MY   C19 1197    -0.014653     12.01000 ; qtot -0.018
  1198   hL    31    MY   H9R 1198     0.010172      1.00800 ; qtot -0.008
  1199   hL    31    MY   H9S 1199     0.010172      1.00800 ; qtot 0.002
  1200   cD    31    MY   C18 1200    -0.026451     12.01000 ; qtot -0.024
  1201   hL    31    MY   H8R 1201     0.011241      1.00800 ; qtot -0.013
  1202   hL    31    MY   H8S 1202     0.011241      1.00800 ; qtot -0.002
  1203   cD    31    MY   C17 1203    -0.004386     12.01000 ; qtot -0.006
  1204   hL    31    MY   H7R 1204     0.006833      1.00800 ; qtot 0.000
  1205   hL    31    MY   H7S 1205     0.006833      1.00800 ; qtot 0.007
  1206   cD    31    MY   C16 1206    -0.027812     12.01000 ; qtot -0.021
  1207   hL    31    MY   H6R 1207     0.011511      1.00800 ; qtot -0.009
  1208   hL    31    MY   H6S 1208     0.011511      1.00800 ; qtot 0.002
  1209   cD    31    MY   C15 1209    -0.016521     12.01000 ; qtot -0.014
  1210   hL    31    MY   H5R 1210     0.010573      1.00800 ; qtot -0.003
  1211   hL    31    MY   H5S 1211     0.010573      1.00800 ; qtot 0.007
  1212   cD    31    MY   C14 1212    -0.026954     12.01000 ; qtot -0.020
  1213   hL    31    MY   H4R 1213     0.020431      1.00800 ; qtot 0.001
  1214   hL    31    MY   H4S 1214     0.020431      1.00800 ; qtot 0.021
  1215   cD    31    MY   C13 1215    -0.002435     12.01000 ; qtot 0.019
  1216   hL    31    MY   H3R 1216     0.018859      1.00800 ; qtot 0.037
  1217   hL    31    MY   H3S 1217     0.018859      1.00800 ; qtot 0.056
  1218   cD    31    MY   C12 1218    -0.164200     12.01000 ; qtot -0.108
  1219   hL    31    MY   H2R 1219     0.053944      1.00800 ; qtot -0.054
  1220   hL    31    MY   H2S 1220     0.053944      1.00800 ; qtot -0.000
  1221   cC    32    PC   C11 1221     0.910403     12.01000 ; qtot 0.910
  1222   oC    32    PC   O12 1222    -0.671566     16.00000 ; qtot 0.239
  1223   oS    32    PC   O11 1223    -0.575489     16.00000 ; qtot -0.337
  1224   cA    32    PC    C1 1224     0.196939     12.01000 ; qtot -0.140
  1225   hE    32    PC    HR 1225     0.070469      1.00800 ; qtot -0.069
  1226   hE    32    PC    HS 1226     0.070469      1.00800 ; qtot 0.001
  1227   cA    32    PC    C2 1227     0.281242     12.01000 ; qtot 0.282
  1228   hE    32    PC    HX 1228     0.063253      1.00800 ; qtot 0.346
  1229   cA    32    PC    C3 1229     0.017459     12.01000 ; qtot 0.363
  1230   hE    32    PC    HA 1230     0.095591      1.00800 ; qtot 0.459
  1231   hE    32    PC    HB 1231     0.095591      1.00800 ; qtot 0.554
  1232   oT    32    PC   O31 1232    -0.509480     16.00000 ; qtot 0.045
  1233   pA    32    PC   P31 1233     1.339721     30.97000 ; qtot 1.385
  1234   oT    32    PC   O32 1234    -0.508176     16.00000 ; qtot 0.876
  1235   cA    32    PC   C31 1235     0.166801     12.01000 ; qtot 1.043
  1236   hE    32    PC   H1A 1236     0.078534      1.00800 ; qtot 1.122
  1237   hE    32    PC   H1B 1237     0.078534      1.00800 ; qtot 1.200
  1238   cA    32    PC   C32 1238    -0.170824     12.01000 ; qtot 1.029
  1239   hX    32    PC   H2A 1239     0.136415      1.00800 ; qtot 1.166
  1240   hX    32    PC   H2B 1240     0.136415      1.00800 ; qtot 1.302
  1241   nA    32    PC   N31 1241     0.245262     14.01000 ; qtot 1.548
  1242   cA    32    PC   C33 1242    -0.338973     12.01000 ; qtot 1.209
  1243   hX    32    PC   H3A 1243     0.172230      1.00800 ; qtot 1.381
  1244   hX    32    PC   H3B 1244     0.172230      1.00800 ; qtot 1.553
  1245   hX    32    PC   H3C 1245     0.172230      1.00800 ; qtot 1.725
  1246   cA    32    PC   C34 1246    -0.338973     12.01000 ; qtot 1.386
  1247   hX    32    PC   H4A 1247     0.172230      1.00800 ; qtot 1.559
  1248   hX    32    PC   H4B 1248     0.172230      1.00800 ; qtot 1.731
  1249   hX    32    PC   H4C 1249     0.172230      1.00800 ; qtot 1.903
  1250   cA    32    PC   C35 1250    -0.338973     12.01000 ; qtot 1.564
  1251   hX    32    PC   H5A 1251     0.172230      1.00800 ; qtot 1.736
  1252   hX    32    PC   H5B 1252     0.172230      1.00800 ; qtot 1.908
  1253   hX    32    PC   H5C 1253     0.172230      1.00800 ; qtot 2.081
  1254   oP    32    PC   O33 1254    -0.875812     16.00000 ; qtot 1.205
  1255   oP    32    PC   O34 1255    -0.875812     16.00000 ; qtot 0.329
  1256   oS    32    PC   O21 1256    -0.552948     16.00000 ; qtot -0.224
  1257   cC    32    PC   C21 1257     0.897613     12.01000 ; qtot 0.674
  1258   oC    32    PC   O22 1258    -0.673755     16.00000 ; qtot 0.000
  1259   hL    33    MY  H14T 1259     0.025511      1.00800 ; qtot 0.026
  1260   cD    33    MY  C114 1260    -0.111712     12.01000 ; qtot -0.086
  1261   hL    33    MY  H14R 1261     0.025511      1.00800 ; qtot -0.061
  1262   hL    33    MY  H14S 1262     0.025511      1.00800 ; qtot -0.035
  1263   cD    33    MY  C113 1263     0.017463     12.01000 ; qtot -0.018
  1264   hL    33    MY  H13R 1264     0.007531      1.00800 ; qtot -0.010
  1265   hL    33    MY  H13S 1265     0.007531      1.00800 ; qtot -0.003
  1266   cD    33    MY  C112 1266    -0.028094     12.01000 ; qtot -0.031
  1267   hL    33    MY  H12R 1267     0.017208      1.00800 ; qtot -0.014
  1268   hL    33    MY  H12S 1268     0.017208      1.00800 ; qtot 0.004
  1269   cD    33    MY  C111 1269    -0.031787     12.01000 ; qtot -0.028
  1270   hL    33    MY  H11R 1270     0.012677      1.00800 ; qtot -0.015
  1271   hL    33    MY  H11S 1271     0.012677      1.00800 ; qtot -0.003
  1272   cD    33    MY  C110 1272    -0.021025     12.01000 ; qtot -0.024
  1273   hL    33    MY  H10R 1273     0.010037      1.00800 ; qtot -0.014
  1274   hL    33    MY  H10S 1274     0.010037      1.00800 ; qtot -0.004
  1275   cD    33    MY   C19 1275    -0.014653     12.01000 ; qtot -0.018
  1276   hL    33    MY   H9R 1276     0.010172      1.00800 ; qtot -0.008
  1277   hL    33    MY   H9S 1277     0.010172      1.00800 ; qtot 0.002
  1278   cD    33    MY   C18 1278    -0.026451     12.01000 ; qtot -0.024
  1279   hL    33    MY   H8R 1279     0.011241      1.00800 ; qtot -0.013
  1280   hL    33    MY   H8S 1280     0.011241      1.00800 ; qtot -0.002
  1281   cD    33    MY   C17 1281    -0.004386     12.01000 ; qtot -0.006
  1282   hL    33    MY   H7R 1282     0.006833      1.00800 ; qtot 0.000
  1283   hL    33    MY   H7S 1283     0.006833      1.00800 ; qtot 0.007
  1284   cD    33    MY   C16 1284    -0.027812     12.01000 ; qtot -0.021
  1285   hL    33    MY   H6R 1285     0.011511      1.00800 ; qtot -0.009
  1286   hL    33    MY   H6S 1286     0.011511      1.00800 ; qtot 0.002
  1287   cD    33    MY   C15 1287    -0.016521     12.01000 ; qtot -0.014
  1288   hL    33    MY   H5R 1288     0.010573      1.00800 ; qtot -0.003
  1289   hL    33    MY   H5S 1289     0.010573      1.00800 ; qtot 0.007
  1290   cD    33    MY   C14 1290    -0.026954     12.01000 ; qtot -0.020
  1291   hL    33    MY   H4R 1291     0.020431      1.00800 ; qtot 0.001
  1292   hL    33    MY   H4S 1292     0.020431      1.00800 ; qtot 0.021
  1293   cD    33    MY   C13 1293    -0.002435     12.01000 ; qtot 0.019
  1294   hL    33    MY   H3R 1294     0.018859      1.00800 ; qtot 0.037
  1295   hL    33    MY   H3S 1295     0.018859      1.00800 ; qtot 0.056
  1296   cD    33    MY   C12 1296    -0.164200     12.01000 ; qtot -0.108
  1297   hL    33    MY   H2R 1297     0.053944      1.00800 ; qtot -0.054
  1298   hL    33    MY   H2S 1298     0.053944      1.00800 ; qtot -0.000
  1299   hL    34    MY  H14T 1299     0.025511      1.00800 ; qtot 0.026
  1300   cD    34    MY  C114 1300    -0.111712     12.01000 ; qtot -0.086
  1301   hL    34    MY  H14R 1301     0.025511      1.00800 ; qtot -0.061
  1302   hL    34    MY  H14S 1302     0.025511      1.00800 ; qtot -0.035
  1303   cD    34    MY  C113 1303     0.017463     12.01000 ; qtot -0.018
  1304   hL    34    MY  H13R 1304     0.007531      1.00800 ; qtot -0.010
  1305   hL    34    MY  H13S 1305     0.007531      1.00800 ; qtot -0.003
  1306   cD    34    MY  C112 1306    -0.028094     12.01000 ; qtot -0.031
  1307   hL    34    MY  H12R 1307     0.017208      1.00800 ; qtot -0.014
  1308   hL    34    MY  H12S 1308     0.017208      1.00800 ; qtot 0.004
  1309   cD    34    MY  C111 1309    -0.031787     12.01000 ; qtot -0.028
  1310   hL    34    MY  H11R 1310     0.012677      1.00800 ; qtot -0.015
  1311   hL    34    MY  H11S 1311     0.012677      1.00800 ; qtot -0.003
  1312   cD    34    MY  C110 1312    -0.021025     12.01000 ; qtot -0.024
  1313   hL    34    MY  H10R 1313     0.010037      1.00800 ; qtot -0.014
  1314   hL    34    MY  H10S 1314     0.010037      1.00800 ; qtot -0.004
  1315   cD    34    MY   C19 1315    -0.014653     12.01000 ; qtot -0.018
  1316   hL    34    MY   H9R 1316     0.010172      1.00800 ; qtot -0.008
  1317   hL    34    MY   H9S 1317     0.010172      1.00800 ; qtot 0.002
  1318   cD    34    MY   C18 1318    -0.026451     12.01000 ; qtot -0.024
  1319   hL    34    MY   H8R 1319     0.011241      1.00800 ; qtot -0.013
  1320   hL    34    MY   H8S 1320     0.011241      1.00800 ; qtot -0.002
  1321   cD    34    MY   C17 1321    -0.004386     12.01000 ; qtot -0.006
  1322   hL    34    MY   H7R 1322     0.006833      1.00800 ; qtot 0.000
  1323   hL    34    MY   H7S 1323     0.006833      1.00800 ; qtot 0.007
  1324   cD    34    MY   C16 1324    -0.027812     12.01000 ; qtot -0.021
  1325   hL    34    MY   H6R 1325     0.011511      1.00800 ; qtot -0.009
  1326   hL    34    MY   H6S 1326     0.011511      1.00800 ; qtot 0.002
  1327   cD    34    MY   C15 1327    -0.016521     12.01000 ; qtot -0.014
  1328   hL    34    MY   H5R 1328     0.010573      1.00800 ; qtot -0.003
  1329   hL    34    MY   H5S 1329     0.010573      1.00800 ; qtot 0.007
  1330   cD    34    MY   C14 1330    -0.026954     12.01000 ; qtot -0.020
  1331   hL    34    MY   H4R 1331     0.020431      1.00800 ; qtot 0.001
  1332   hL    34    MY   H4S 1332     0.020431      1.00800 ; qtot 0.021
  1333   cD    34    MY   C13 1333    -0.002435     12.01000 ; qtot 0.019
  1334   hL    34    MY   H3R 1334     0.018859      1.00800 ; qtot 0.037
  1335   hL    34    MY   H3S 1335     0.018859      1.00800 ; qtot 0.056
  1336   cD    34    MY   C12 1336    -0.164200     12.01000 ; qtot -0.108
  1337   hL    34    MY   H2R 1337     0.053944      1.00800 ; qtot -0.054
  1338   hL    34    MY   H2S 1338     0.053944      1.00800 ; qtot -0.000
  1339   cC    35    PC   C11 1339     0.910403     12.01000 ; qtot 0.910
  1340   oC    35    PC   O12 1340    -0.671566     16.00000 ; qtot 0.239
  1341   oS    35    PC   O11 1341    -0.575489     16.00000 ; qtot -0.337
  1342   cA    35    PC    C1 1342     0.196939     12.01000 ; qtot -0.140
  1343   hE    35    PC    HR 1343     0.070469      1.00800 ; qtot -0.069
  1344   hE    35    PC    HS 1344     0.070469      1.00800 ; qtot 0.001
  1345   cA    35    PC    C2 1345     0.281242     12.01000 ; qtot 0.282
  1346   hE    35    PC    HX 1346     0.063253      1.00800 ; qtot 0.346
  1347   cA    35    PC    C3 1347     0.017459     12.01000 ; qtot 0.363
  1348   hE    35    PC    HA 1348     0.095591      1.00800 ; qtot 0.459
  1349   hE    35    PC    HB 1349     0.095591      1.00800 ; qtot 0.554
  1350   oT    35    PC   O31 1350    -0.509480     16.00000 ; qtot 0.045
  1351   pA    35    PC   P31 1351     1.339721     30.97000 ; qtot 1.385
  1352   oT    35    PC   O32 1352    -0.508176     16.00000 ; qtot 0.876
  1353   cA    35    PC   C31 1353     0.166801     12.01000 ; qtot 1.043
  1354   hE    35    PC   H1A 1354     0.078534      1.00800 ; qtot 1.122
  1355   hE    35    PC   H1B 1355     0.078534      1.00800 ; qtot 1.200
  1356   cA    35    PC   C32 1356    -0.170824     12.01000 ; qtot 1.029
  1357   hX    35    PC   H2A 1357     0.136415      1.00800 ; qtot 1.166
  1358   hX    35    PC   H2B 1358     0.136415      1.00800 ; qtot 1.302
  1359   nA    35    PC   N31 1359     0.245262     14.01000 ; qtot 1.548
  1360   cA    35    PC   C33 1360    -0.338973     12.01000 ; qtot 1.209
  1361   hX    35    PC   H3A 1361     0.172230      1.00800 ; qtot 1.381
  1362   hX    35    PC   H3B 1362     0.172230      1.00800 ; qtot 1.553
  1363   hX    35    PC   H3C 1363     0.172230      1.00800 ; qtot 1.725
  1364   cA    35    PC   C34 1364    -0.338973     12.01000 ; qtot 1.386
  1365   hX    35    PC   H4A 1365     0.172230      1.00800 ; qtot 1.559
  1366   hX    35    PC   H4B 1366     0.172230      1.00800 ; qtot 1.731
  1367   hX    35    PC   H4C 1367     0.172230      1.00800 ; qtot 1.903
  1368   cA    35    PC   C35 1368    -0.338973     12.01000 ; qtot 1.564
  1369   hX    35    PC   H5A 1369     0.172230      1.00800 ; qtot 1.736
  1370   hX    35    PC   H5B 1370     0.172230      1.00800 ; qtot 1.908
  1371   hX    35    PC   H5C 1371     0.172230      1.00800 ; qtot 2.081
  1372   oP    35    PC   O33 1372    -0.875812     16.00000 ; qtot 1.205
  1373   oP    35    PC   O34 1373    -0.875812     16.00000 ; qtot 0.329
  1374   oS    35    PC   O21 1374    -0.552948     16.00000 ; qtot -0.224
  1375   cC    35    PC   C21 1375     0.897613     12.01000 ; qtot 0.674
  1376   oC    35    PC   O22 1376    -0.673755     16.00000 ; qtot 0.000
  1377   hL    36    MY  H14T 1377     0.025511      1.00800 ; qtot 0.026
  1378   cD    36    MY  C114 1378    -0.111712     12.01000 ; qtot -0.086
  1379   hL    36    MY  H14R 1379     0.025511      1.00800 ; qtot -0.061
  1380   hL    36    MY  H14S 1380     0.025511      1.00800 ; qtot -0.035
  1381   cD    36    MY  C113 1381     0.017463     12.01000 ; qtot -0.018
  1382   hL    36    MY  H13R 1382     0.007531      1.00800 ; qtot -0.010
  1383   hL    36    MY  H13S 1383     0.007531      1.00800 ; qtot -0.003
  1384   cD    36    MY  C112 1384    -0.028094     12.01000 ; qtot -0.031
  1385   hL    36    MY  H12R 1385     0.017208      1.00800 ; qtot -0.014
  1386   hL    36    MY  H12S 1386     0.017208      1.00800 ; qtot 0.004
  1387   cD    36    MY  C111 1387    -0.031787     12.01000 ; qtot -0.028
  1388   hL    36    MY  H11R 1388     0.012677      1.00800 ; qtot -0.015
  1389   hL    36    MY  H11S 1389     0.012677      1.00800 ; qtot -0.003
  1390   cD    36    MY  C110 1390    -0.021025     12.01000 ; qtot -0.024
  1391   hL    36    MY  H10R 1391     0.010037      1.00800 ; qtot -0.014
  1392   hL    36    MY  H10S 1392     0.010037      1.00800 ; qtot -0.004
  1393   cD    36    MY   C19 1393    -0.014653     12.01000 ; qtot -0.018
  1394   hL    36    MY   H9R 1394     0.010172      1.00800 ; qtot -0.008
  1395   hL    36    MY   H9S 1395     0.010172      1.00800 ; qtot 0.002
  1396   cD    36    MY   C18 1396    -0.026451     12.01000 ; qtot -0.024
  1397   hL    36    MY   H8R 1397     0.011241      1.00800 ; qtot -0.013
  1398   hL    36    MY   H8S 1398     0.011241      1.00800 ; qtot -0.002
  1399   cD    36    MY   C17 1399    -0.004386     12.01000 ; qtot -0.006
  1400   hL    36    MY   H7R 1400     0.006833      1.00800 ; qtot 0.000
  1401   hL    36    MY   H7S 1401     0.006833      1.00800 ; qtot 0.007
  1402   cD    36    MY   C16 1402    -0.027812     12.01000 ; qtot -0.021
  1403   hL    36    MY   H6R 1403     0.011511      1.00800 ; qtot -0.009
  1404   hL    36    MY   H6S 1404     0.011511      1.00800 ; qtot 0.002
  1405   cD    36    MY   C15 1405    -0.016521     12.01000 ; qtot -0.014
  1406   hL    36    MY   H5R 1406     0.010573      1.00800 ; qtot -0.003
  1407   hL    36    MY   H5S 1407     0.010573      1.00800 ; qtot 0.007
  1408   cD    36    MY   C14 1408    -0.026954     12.01000 ; qtot -0.020
  1409   hL    36    MY   H4R 1409     0.020431      1.00800 ; qtot 0.001
  1410   hL    36    MY   H4S 1410     0.020431      1.00800 ; qtot 0.021
  1411   cD    36    MY   C13 1411    -0.002435     12.01000 ; qtot 0.019
  1412   hL    36    MY   H3R 1412     0.018859      1.00800 ; qtot 0.037
  1413   hL    36    MY   H3S 1413     0.018859      1.00800 ; qtot 0.056
  1414   cD    36    MY   C12 1414    -0.164200     12.01000 ; qtot -0.108
  1415   hL    36    MY   H2R 1415     0.053944      1.00800 ; qtot -0.054
  1416   hL    36    MY   H2S 1416     0.053944      1.00800 ; qtot -0.000
  1417   hL    37    MY  H14T 1417     0.025511      1.00800 ; qtot 0.026
  1418   cD    37    MY  C114 1418    -0.111712     12.01000 ; qtot -0.086
  1419   hL    37    MY  H14R 1419     0.025511      1.00800 ; qtot -0.061
  1420   hL    37    MY  H14S 1420     0.025511      1.00800 ; qtot -0.035
  1421   cD    37    MY  C113 1421     0.017463     12.01000 ; qtot -0.018
  1422   hL    37    MY  H13R 1422     0.007531      1.00800 ; qtot -0.010
  1423   hL    37    MY  H13S 1423     0.007531      1.00800 ; qtot -0.003
  1424   cD    37    MY  C112 1424    -0.028094     12.01000 ; qtot -0.031
  1425   hL    37    MY  H12R 1425     0.017208      1.00800 ; qtot -0.014
  1426   hL    37    MY  H12S 1426     0.017208      1.00800 ; qtot 0.004
  1427   cD    37    MY  C111 1427    -0.031787     12.01000 ; qtot -0.028
  1428   hL    37    MY  H11R 1428     0.012677      1.00800 ; qtot -0.015
  1429   hL    37    MY  H11S 1429     0.012677      1.00800 ; qtot -0.003
  1430   cD    37    MY  C110 1430    -0.021025     12.01000 ; qtot -0.024
  1431   hL    37    MY  H10R 1431     0.010037      1.00800 ; qtot -0.014
  1432   hL    37    MY  H10S 1432     0.010037      1.00800 ; qtot -0.004
  1433   cD    37    MY   C19 1433    -0.014653     12.01000 ; qtot -0.018
  1434   hL    37    MY   H9R 1434     0.010172      1.00800 ; qtot -0.008
  1435   hL    37    MY   H9S 1435     0.010172      1.00800 ; qtot 0.002
  1436   cD    37    MY   C18 1436    -0.026451     12.01000 ; qtot -0.024
  1437   hL    37    MY   H8R 1437     0.011241      1.00800 ; qtot -0.013
  1438   hL    37    MY   H8S 1438     0.011241      1.00800 ; qtot -0.002
  1439   cD    37    MY   C17 1439    -0.004386     12.01000 ; qtot -0.006
  1440   hL    37    MY   H7R 1440     0.006833      1.00800 ; qtot 0.000
  1441   hL    37    MY   H7S 1441     0.006833      1.00800 ; qtot 0.007
  1442   cD    37    MY   C16 1442    -0.027812     12.01000 ; qtot -0.021
  1443   hL    37    MY   H6R 1443     0.011511      1.00800 ; qtot -0.009
  1444   hL    37    MY   H6S 1444     0.011511      1.00800 ; qtot 0.002
  1445   cD    37    MY   C15 1445    -0.016521     12.01000 ; qtot -0.014
  1446   hL    37    MY   H5R 1446     0.010573      1.00800 ; qtot -0.003
  1447   hL    37    MY   H5S 1447     0.010573      1.00800 ; qtot 0.007
  1448   cD    37    MY   C14 1448    -0.026954     12.01000 ; qtot -0.020
  1449   hL    37    MY   H4R 1449     0.020431      1.00800 ; qtot 0.001
  1450   hL    37    MY   H4S 1450     0.020431      1.00800 ; qtot 0.021
  1451   cD    37    MY   C13 1451    -0.002435     12.01000 ; qtot 0.019
  1452   hL    37    MY   H3R 1452     0.018859      1.00800 ; qtot 0.037
  1453   hL    37    MY   H3S 1453     0.018859      1.00800 ; qtot 0.056
  1454   cD    37    MY   C12 1454    -0.164200     12.01000 ; qtot -0.108
  1455   hL    37    MY   H2R 1455     0.053944      1.00800 ; qtot -0.054
  1456   hL    37    MY   H2S 1456     0.053944      1.00800 ; qtot -0.000
  1457   cC    38    PC   C11 1457     0.910403     12.01000 ; qtot 0.910
  1458   oC    38    PC   O12 1458    -0.671566     16.00000 ; qtot 0.239
  1459   oS    38    PC   O11 1459    -0.575489     16.00000 ; qtot -0.337
  1460   cA    38    PC    C1 1460     0.196939     12.01000 ; qtot -0.140
  1461   hE    38    PC    HR 1461     0.070469      1.00800 ; qtot -0.069
  1462   hE    38    PC    HS 1462     0.070469      1.00800 ; qtot 0.001
  1463   cA    38    PC    C2 1463     0.281242     12.01000 ; qtot 0.282
  1464   hE    38    PC    HX 1464     0.063253      1.00800 ; qtot 0.346
  1465   cA    38    PC    C3 1465     0.017459     12.01000 ; qtot 0.363
  1466   hE    38    PC    HA 1466     0.095591      1.00800 ; qtot 0.459
  1467   hE    38    PC    HB 1467     0.095591      1.00800 ; qtot 0.554
  1468   oT    38    PC   O31 1468    -0.509480     16.00000 ; qtot 0.045
  1469   pA    38    PC   P31 1469     1.339721     30.97000 ; qtot 1.385
  1470   oT    38    PC   O32 1470    -0.508176     16.00000 ; qtot 0.876
  1471   cA    38    PC   C31 1471     0.166801     12.01000 ; qtot 1.043
  1472   hE    38    PC   H1A 1472     0.078534      1.00800 ; qtot 1.122
  1473   hE    38    PC   H1B 1473     0.078534      1.00800 ; qtot 1.200
  1474   cA    38    PC   C32 1474    -0.170824     12.01000 ; qtot 1.029
  1475   hX    38    PC   H2A 1475     0.136415      1.00800 ; qtot 1.166
  1476   hX    38    PC   H2B 1476     0.136415      1.00800 ; qtot 1.302
  1477   nA    38    PC   N31 1477     0.245262     14.01000 ; qtot 1.548
  1478   cA    38    PC   C33 1478    -0.338973     12.01000 ; qtot 1.209
  1479   hX    38    PC   H3A 1479     0.172230      1.00800 ; qtot 1.381
  1480   hX    38    PC   H3B 1480     0.172230      1.00800 ; qtot 1.553
  1481   hX    38    PC   H3C 1481     0.172230      1.00800 ; qtot 1.725
  1482   cA    38    PC   C34 1482    -0.338973     12.01000 ; qtot 1.386
  1483   hX    38    PC   H4A 1483     0.172230      1.00800 ; qtot 1.559
  1484   hX    38    PC   H4B 1484     0.172230      1.00800 ; qtot 1.731
  1485   hX    38    PC   H4C 1485     0.172230      1.00800 ; qtot 1.903
  1486   cA    38    PC   C35 1486    -0.338973     12.01000 ; qtot 1.564
  1487   hX    38    PC   H5A 1487     0.172230      1.00800 ; qtot 1.736
  1488   hX    38    PC   H5B 1488     0.172230      1.00800 ; qtot 1.908
  1489   hX    38    PC   H5C 1489     0.172230      1.00800 ; qtot 2.081
  1490   oP    38    PC   O33 1490    -0.875812     16.00000 ; qtot 1.205
  1491   oP    38    PC   O34 1491    -0.875812     16.00000 ; qtot 0.329
  1492   oS    38    PC   O21 1492    -0.552948     16.00000 ; qtot -0.224
  1493   cC    38    PC   C21 1493     0.897613     12.01000 ; qtot 0.674
  1494   oC    38    PC   O22 1494    -0.673755     16.00000 ; qtot 0.000
  1495   hL    39    MY  H14T 1495     0.025511      1.00800 ; qtot 0.026
  1496   cD    39    MY  C114 1496    -0.111712     12.01000 ; qtot -0.086
  1497   hL    39    MY  H14R 1497     0.025511      1.00800 ; qtot -0.061
  1498   hL    39    MY  H14S 1498     0.025511      1.00800 ; qtot -0.035
  1499   cD    39    MY  C113 1499     0.017463     12.01000 ; qtot -0.018
  1500   hL    39    MY  H13R 1500     0.007531      1.00800 ; qtot -0.010
  1501   hL    39    MY  H13S 1501     0.007531      1.00800 ; qtot -0.003
  1502   cD    39    MY  C112 1502    -0.028094     12.01000 ; qtot -0.031
  1503   hL    39    MY  H12R 1503     0.017208      1.00800 ; qtot -0.014
  1504   hL    39    MY  H12S 1504     0.017208      1.00800 ; qtot 0.004
  1505   cD    39    MY  C111 1505    -0.031787     12.01000 ; qtot -0.028
  1506   hL    39    MY  H11R 1506     0.012677      1.00800 ; qtot -0.015
  1507   hL    39    MY  H11S 1507     0.012677      1.00800 ; qtot -0.003
  1508   cD    39    MY  C110 1508    -0.021025     12.01000 ; qtot -0.024
  1509   hL    39    MY  H10R 1509     0.010037      1.00800 ; qtot -0.014
  1510   hL    39    MY  H10S 1510     0.010037      1.00800 ; qtot -0.004
  1511   cD    39    MY   C19 1511    -0.014653     12.01000 ; qtot -0.018
  1512   hL    39    MY   H9R 1512     0.010172      1.00800 ; qtot -0.008
  1513   hL    39    MY   H9S 1513     0.010172      1.00800 ; qtot 0.002
  1514   cD    39    MY   C18 1514    -0.026451     12.01000 ; qtot -0.024
  1515   hL    39    MY   H8R 1515     0.011241      1.00800 ; qtot -0.013
  1516   hL    39    MY   H8S 1516     0.011241      1.00800 ; qtot -0.002
  1517   cD    39    MY   C17 1517    -0.004386     12.01000 ; qtot -0.006
  1518   hL    39    MY   H7R 1518     0.006833      1.00800 ; qtot 0.000
  1519   hL    39    MY   H7S 1519     0.006833      1.00800 ; qtot 0.007
  1520   cD    39    MY   C16 1520    -0.027812     12.01000 ; qtot -0.021
  1521   hL    39    MY   H6R 1521     0.011511      1.00800 ; qtot -0.009
  1522   hL    39    MY   H6S 1522     0.011511      1.00800 ; qtot 0.002
  1523   cD    39    MY   C15 1523    -0.016521     12.01000 ; qtot -0.014
  1524   hL    39    MY   H5R 1524     0.010573      1.00800 ; qtot -0.003
  1525   hL    39    MY   H5S 1525     0.010573      1.00800 ; qtot 0.007
  1526   cD    39    MY   C14 1526    -0.026954     12.01000 ; qtot -0.020
  1527   hL    39    MY   H4R 1527     0.020431      1.00800 ; qtot 0.001
  1528   hL    39    MY   H4S 1528     0.020431      1.00800 ; qtot 0.021
  1529   cD    39    MY   C13 1529    -0.002435     12.01000 ; qtot 0.019
  1530   hL    39    MY   H3R 1530     0.018859      1.00800 ; qtot 0.037
  1531   hL    39    MY   H3S 1531     0.018859      1.00800 ; qtot 0.056
  1532   cD    39    MY   C12 1532    -0.164200     12.01000 ; qtot -0.108
  1533   hL    39    MY   H2R 1533     0.053944      1.00800 ; qtot -0.054
  1534   hL    39    MY   H2S 1534     0.053944      1.00800 ; qtot -0.000
  1535   hL    40    MY  H14T 1535     0.025511      1.00800 ; qtot 0.026
  1536   cD    40    MY  C114 1536    -0.111712     12.01000 ; qtot -0.086
  1537   hL    40    MY  H14R 1537     0.025511      1.00800 ; qtot -0.061
  1538   hL    40    MY  H14S 1538     0.025511      1.00800 ; qtot -0.035
  1539   cD    40    MY  C113 1539     0.017463     12.01000 ; qtot -0.018
  1540   hL    40    MY  H13R 1540     0.007531      1.00800 ; qtot -0.010
  1541   hL    40    MY  H13S 1541     0.007531      1.00800 ; qtot -0.003
  1542   cD    40    MY  C112 1542    -0.028094     12.01000 ; qtot -0.031
  1543   hL    40    MY  H12R 1543     0.017208      1.00800 ; qtot -0.014
  1544   hL    40    MY  H12S 1544     0.017208      1.00800 ; qtot 0.004
  1545   cD    40    MY  C111 1545    -0.031787     12.01000 ; qtot -0.028
  1546   hL    40    MY  H11R 1546     0.012677      1.00800 ; qtot -0.015
  1547   hL    40    MY  H11S 1547     0.012677      1.00800 ; qtot -0.003
  1548   cD    40    MY  C110 1548    -0.021025     12.01000 ; qtot -0.024
  1549   hL    40    MY  H10R 1549     0.010037      1.00800 ; qtot -0.014
  1550   hL    40    MY  H10S 1550     0.010037      1.00800 ; qtot -0.004
  1551   cD    40    MY   C19 1551    -0.014653     12.01000 ; qtot -0.018
  1552   hL    40    MY   H9R 1552     0.010172      1.00800 ; qtot -0.008
  1553   hL    40    MY   H9S 1553     0.010172      1.00800 ; qtot 0.002
  1554   cD    40    MY   C18 1554    -0.026451     12.01000 ; qtot -0.024
  1555   hL    40    MY   H8R 1555     0.011241      1.00800 ; qtot -0.013
  1556   hL    40    MY   H8S 1556     0.011241      1.00800 ; qtot -0.002
  1557   cD    40    MY   C17 1557    -0.004386     12.01000 ; qtot -0.006
  1558   hL    40    MY   H7R 1558     0.006833      1.00800 ; qtot 0.000
  1559   hL    40    MY   H7S 1559     0.006833      1.00800 ; qtot 0.007
  1560   cD    40    MY   C16 1560    -0.027812     12.01000 ; qtot -0.021
  1561   hL    40    MY   H6R 1561     0.011511      1.00800 ; qtot -0.009
  1562   hL    40    MY   H6S 1562     0.011511      1.00800 ; qtot 0.002
  1563   cD    40    MY   C15 1563    -0.016521     12.01000 ; qtot -0.014
  1564   hL    40    MY   H5R 1564     0.010573      1.00800 ; qtot -0.003
  1565   hL    40    MY   H5S 1565     0.010573      1.00800 ; qtot 0.007
  1566   cD    40    MY   C14 1566    -0.026954     12.01000 ; qtot -0.020
  1567   hL    40    MY   H4R 1567     0.020431      1.00800 ; qtot 0.001
  1568   hL    40    MY   H4S 1568     0.020431      1.00800 ; qtot 0.021
  1569   cD    40    MY   C13 1569    -0.002435     12.01000 ; qtot 0.019
  1570   hL    40    MY   H3R 1570     0.018859      1.00800 ; qtot 0.037
  1571   hL    40    MY   H3S 1571     0.018859      1.00800 ; qtot 0.056
  1572   cD    40    MY   C12 1572    -0.164200     12.01000 ; qtot -0.108
  1573   hL    40    MY   H2R 1573     0.053944      1.00800 ; qtot -0.054
  1574   hL    40    MY   H2S 1574     0.053944      1.00800 ; qtot -0.000
  1575   cC    41    PC   C11 1575     0.910403     12.01000 ; qtot 0.910
  1576   oC    41    PC   O12 1576    -0.671566     16.00000 ; qtot 0.239
  1577   oS    41    PC   O11 1577    -0.575489     16.00000 ; qtot -0.337
  1578   cA    41    PC    C1 1578     0.196939     12.01000 ; qtot -0.140
  1579   hE    41    PC    HR 1579     0.070469      1.00800 ; qtot -0.069
  1580   hE    41    PC    HS 1580     0.070469      1.00800 ; qtot 0.001
  1581   cA    41    PC    C2 1581     0.281242     12.01000 ; qtot 0.282
  1582   hE    41    PC    HX 1582     0.063253      1.00800 ; qtot 0.346
  1583   cA    41    PC    C3 1583     0.017459     12.01000 ; qtot 0.363
  1584   hE    41    PC    HA 1584     0.095591      1.00800 ; qtot 0.459
  1585   hE    41    PC    HB 1585     0.095591      1.00800 ; qtot 0.554
  1586   oT    41    PC   O31 1586    -0.509480     16.00000 ; qtot 0.045
  1587   pA    41    PC   P31 1587     1.339721     30.97000 ; qtot 1.385
  1588   oT    41    PC   O32 1588    -0.508176     16.00000 ; qtot 0.876
  1589   cA    41    PC   C31 1589     0.166801     12.01000 ; qtot 1.043
  1590   hE    41    PC   H1A 1590     0.078534      1.00800 ; qtot 1.122
  1591   hE    41    PC   H1B 1591     0.078534      1.00800 ; qtot 1.200
  1592   cA    41    PC   C32 1592    -0.170824     12.01000 ; qtot 1.029
  1593   hX    41    PC   H2A 1593     0.136415      1.00800 ; qtot 1.166
  1594   hX    41    PC   H2B 1594     0.136415      1.00800 ; qtot 1.302
  1595   nA    41    PC   N31 1595     0.245262     14.01000 ; qtot 1.548
  1596   cA    41    PC   C33 1596    -0.338973     12.01000 ; qtot 1.209
  1597   hX    41    PC   H3A 1597     0.172230      1.00800 ; qtot 1.381
  1598   hX    41    PC   H3B 1598     0.172230      1.00800 ; qtot 1.553
  1599   hX    41    PC   H3C 1599     0.172230      1.00800 ; qtot 1.725
  1600   cA    41    PC   C34 1600    -0.338973     12.01000 ; qtot 1.386
  1601   hX    41    PC   H4A 1601     0.172230      1.00800 ; qtot 1.559
  1602   hX    41    PC   H4B 1602     0.172230      1.00800 ; qtot 1.731
  1603   hX    41    PC   H4C 1603     0.172230      1.00800 ; qtot 1.903
  1604   cA    41    PC   C35 1604    -0.338973     12.01000 ; qtot 1.564
  1605   hX    41    PC   H5A 1605     0.172230      1.00800 ; qtot 1.736
  1606   hX    41    PC   H5B 1606     0.172230      1.00800 ; qtot 1.908
  1607   hX    41    PC   H5C 1607     0.172230      1.00800 ; qtot 2.081
  1608   oP    41    PC   O33 1608    -0.875812     16.00000 ; qtot 1.205
  1609   oP    41    PC   O34 1609    -0.875812     16.00000 ; qtot 0.329
  1610   oS    41    PC   O21 1610    -0.552948     16.00000 ; qtot -0.224
  1611   cC    41    PC   C21 1611     0.897613     12.01000 ; qtot 0.674
  1612   oC    41    PC   O22 1612    -0.673755     16.00000 ; qtot 0.000
  1613   hL    42    MY  H14T 1613     0.025511      1.00800 ; qtot 0.026
  1614   cD    42    MY  C114 1614    -0.111712     12.01000 ; qtot -0.086
  1615   hL    42    MY  H14R 1615     0.025511      1.00800 ; qtot -0.061
  1616   hL    42    MY  H14S 1616     0.025511      1.00800 ; qtot -0.035
  1617   cD    42    MY  C113 1617     0.017463     12.01000 ; qtot -0.018
  1618   hL    42    MY  H13R 1618     0.007531      1.00800 ; qtot -0.010
  1619   hL    42    MY  H13S 1619     0.007531      1.00800 ; qtot -0.003
  1620   cD    42    MY  C112 1620    -0.028094     12.01000 ; qtot -0.031
  1621   hL    42    MY  H12R 1621     0.017208      1.00800 ; qtot -0.014
  1622   hL    42    MY  H12S 1622     0.017208      1.00800 ; qtot 0.004
  1623   cD    42    MY  C111 1623    -0.031787     12.01000 ; qtot -0.028
  1624   hL    42    MY  H11R 1624     0.012677      1.00800 ; qtot -0.015
  1625   hL    42    MY  H11S 1625     0.012677      1.00800 ; qtot -0.003
  1626   cD    42    MY  C110 1626    -0.021025     12.01000 ; qtot -0.024
  1627   hL    42    MY  H10R 1627     0.010037      1.00800 ; qtot -0.014
  1628   hL    42    MY  H10S 1628     0.010037      1.00800 ; qtot -0.004
  1629   cD    42    MY   C19 1629    -0.014653     12.01000 ; qtot -0.018
  1630   hL    42    MY   H9R 1630     0.010172      1.00800 ; qtot -0.008
  1631   hL    42    MY   H9S 1631     0.010172      1.00800 ; qtot 0.002
  1632   cD    42    MY   C18 1632    -0.026451     12.01000 ; qtot -0.024
  1633   hL    42    MY   H8R 1633     0.011241      1.00800 ; qtot -0.013
  1634   hL    42    MY   H8S 1634     0.011241      1.00800 ; qtot -0.002
  1635   cD    42    MY   C17 1635    -0.004386     12.01000 ; qtot -0.006
  1636   hL    42    MY   H7R 1636     0.006833      1.00800 ; qtot 0.000
  1637   hL    42    MY   H7S 1637     0.006833      1.00800 ; qtot 0.007
  1638   cD    42    MY   C16 1638    -0.027812     12.01000 ; qtot -0.021
  1639   hL    42    MY   H6R 1639     0.011511      1.00800 ; qtot -0.009
  1640   hL    42    MY   H6S 1640     0.011511      1.00800 ; qtot 0.002
  1641   cD    42    MY   C15 1641    -0.016521     12.01000 ; qtot -0.014
  1642   hL    42    MY   H5R 1642     0.010573      1.00800 ; qtot -0.003
  1643   hL    42    MY   H5S 1643     0.010573      1.00800 ; qtot 0.007
  1644   cD    42    MY   C14 1644    -0.026954     12.01000 ; qtot -0.020
  1645   hL    42    MY   H4R 1645     0.020431      1.00800 ; qtot 0.001
  1646   hL    42    MY   H4S 1646     0.020431      1.00800 ; qtot 0.021
  1647   cD    42    MY   C13 1647    -0.002435     12.01000 ; qtot 0.019
  1648   hL    42    MY   H3R 1648     0.018859      1.00800 ; qtot 0.037
  1649   hL    42    MY   H3S 1649     0.018859      1.00800 ; qtot 0.056
  1650   cD    42    MY   C12 1650    -0.164200     12.01000 ; qtot -0.108
  1651   hL    42    MY   H2R 1651     0.053944      1.00800 ; qtot -0.054
  1652   hL    42    MY   H2S 1652     0.053944      1.00800 ; qtot -0.000
  1653   hL    43    MY  H14T 1653     0.025511      1.00800 ; qtot 0.026
  1654   cD    43    MY  C114 1654    -0.111712     12.01000 ; qtot -0.086
  1655   hL    43    MY  H14R 1655     0.025511      1.00800 ; qtot -0.061
  1656   hL    43    MY  H14S 1656     0.025511      1.00800 ; qtot -0.035
  1657   cD    43    MY  C113 1657     0.017463     12.01000 ; qtot -0.018
  1658   hL    43    MY  H13R 1658     0.007531      1.00800 ; qtot -0.010
  1659   hL    43    MY  H13S 1659     0.007531      1.00800 ; qtot -0.003
  1660   cD    43    MY  C112 1660    -0.028094     12.01000 ; qtot -0.031
  1661   hL    43    MY  H12R 1661     0.017208      1.00800 ; qtot -0.014
  1662   hL    43    MY  H12S 1662     0.017208      1.00800 ; qtot 0.004
  1663   cD    43    MY  C111 1663    -0.031787     12.01000 ; qtot -0.028
  1664   hL    43    MY  H11R 1664     0.012677      1.00800 ; qtot -0.015
  1665   hL    43    MY  H11S 1665     0.012677      1.00800 ; qtot -0.003
  1666   cD    43    MY  C110 1666    -0.021025     12.01000 ; qtot -0.024
  1667   hL    43    MY  H10R 1667     0.010037      1.00800 ; qtot -0.014
  1668   hL    43    MY  H10S 1668     0.010037      1.00800 ; qtot -0.004
  1669   cD    43    MY   C19 1669    -0.014653     12.01000 ; qtot -0.018
  1670   hL    43    MY   H9R 1670     0.010172      1.00800 ; qtot -0.008
  1671   hL    43    MY   H9S 1671     0.010172      1.00800 ; qtot 0.002
  1672   cD    43    MY   C18 1672    -0.026451     12.01000 ; qtot -0.024
  1673   hL    43    MY   H8R 1673     0.011241      1.00800 ; qtot -0.013
  1674   hL    43    MY   H8S 1674     0.011241      1.00800 ; qtot -0.002
  1675   cD    43    MY   C17 1675    -0.004386     12.01000 ; qtot -0.006
  1676   hL    43    MY   H7R 1676     0.006833      1.00800 ; qtot 0.000
  1677   hL    43    MY   H7S 1677     0.006833      1.00800 ; qtot 0.007
  1678   cD    43    MY   C16 1678    -0.027812     12.01000 ; qtot -0.021
  1679   hL    43    MY   H6R 1679     0.011511      1.00800 ; qtot -0.009
  1680   hL    43    MY   H6S 1680     0.011511      1.00800 ; qtot 0.002
  1681   cD    43    MY   C15 1681    -0.016521     12.01000 ; qtot -0.014
  1682   hL    43    MY   H5R 1682     0.010573      1.00800 ; qtot -0.003
  1683   hL    43    MY   H5S 1683     0.010573      1.00800 ; qtot 0.007
  1684   cD    43    MY   C14 1684    -0.026954     12.01000 ; qtot -0.020
  1685   hL    43    MY   H4R 1685     0.020431      1.00800 ; qtot 0.001
  1686   hL    43    MY   H4S 1686     0.020431      1.00800 ; qtot 0.021
  1687   cD    43    MY   C13 1687    -0.002435     12.01000 ; qtot 0.019
  1688   hL    43    MY   H3R 1688     0.018859      1.00800 ; qtot 0.037
  1689   hL    43    MY   H3S 1689     0.018859      1.00800 ; qtot 0.056
  1690   cD    43    MY   C12 1690    -0.164200     12.01000 ; qtot -0.108
  1691   hL    43    MY   H2R 1691     0.053944      1.00800 ; qtot -0.054
  1692   hL    43    MY   H2S 1692     0.053944      1.00800 ; qtot -0.000
  1693   cC    44    PC   C11 1693     0.910403     12.01000 ; qtot 0.910
  1694   oC    44    PC   O12 1694    -0.671566     16.00000 ; qtot 0.239
  1695   oS    44    PC   O11 1695    -0.575489     16.00000 ; qtot -0.337
  1696   cA    44    PC    C1 1696     0.196939     12.01000 ; qtot -0.140
  1697   hE    44    PC    HR 1697     0.070469      1.00800 ; qtot -0.069
  1698   hE    44    PC    HS 1698     0.070469      1.00800 ; qtot 0.001
  1699   cA    44    PC    C2 1699     0.281242     12.01000 ; qtot 0.282
  1700   hE    44    PC    HX 1700     0.063253      1.00800 ; qtot 0.346
  1701   cA    44    PC    C3 1701     0.017459     12.01000 ; qtot 0.363
  1702   hE    44    PC    HA 1702     0.095591      1.00800 ; qtot 0.459
  1703   hE    44    PC    HB 1703     0.095591      1.00800 ; qtot 0.554
  1704   oT    44    PC   O31 1704    -0.509480     16.00000 ; qtot 0.045
  1705   pA    44    PC   P31 1705     1.339721     30.97000 ; qtot 1.385
  1706   oT    44    PC   O32 1706    -0.508176     16.00000 ; qtot 0.876
  1707   cA    44    PC   C31 1707     0.166801     12.01000 ; qtot 1.043
  1708   hE    44    PC   H1A 1708     0.078534      1.00800 ; qtot 1.122
  1709   hE    44    PC   H1B 1709     0.078534      1.00800 ; qtot 1.200
  1710   cA    44    PC   C32 1710    -0.170824     12.01000 ; qtot 1.029
  1711   hX    44    PC   H2A 1711     0.136415      1.00800 ; qtot 1.166
  1712   hX    44    PC   H2B 1712     0.136415      1.00800 ; qtot 1.302
  1713   nA    44    PC   N31 1713     0.245262     14.01000 ; qtot 1.548
  1714   cA    44    PC   C33 1714    -0.338973     12.01000 ; qtot 1.209
  1715   hX    44    PC   H3A 1715     0.172230      1.00800 ; qtot 1.381
  1716   hX    44    PC   H3B 1716     0.172230      1.00800 ; qtot 1.553
  1717   hX    44    PC   H3C 1717     0.172230      1.00800 ; qtot 1.725
  1718   cA    44    PC   C34 1718    -0.338973     12.01000 ; qtot 1.386
  1719   hX    44    PC   H4A 1719     0.172230      1.00800 ; qtot 1.559
  1720   hX    44    PC   H4B 1720     0.172230      1.00800 ; qtot 1.731
  1721   hX    44    PC   H4C 1721     0.172230      1.00800 ; qtot 1.903
  1722   cA    44    PC   C35 1722    -0.338973     12.01000 ; qtot 1.564
  1723   hX    44    PC   H5A 1723     0.172230      1.00800 ; qtot 1.736
  1724   hX    44    PC   H5B 1724     0.172230      1.00800 ; qtot 1.908
  1725   hX    44    PC   H5C 1725     0.172230      1.00800 ; qtot 2.081
  1726   oP    44    PC   O33 1726    -0.875812     16.00000 ; qtot 1.205
  1727   oP    44    PC   O34 1727    -0.875812     16.00000 ; qtot 0.329
  1728   oS    44    PC   O21 1728    -0.552948     16.00000 ; qtot -0.224
  1729   cC    44    PC   C21 1729     0.897613     12.01000 ; qtot 0.674
  1730   oC    44    PC   O22 1730    -0.673755     16.00000 ; qtot 0.000
  1731   hL    45    MY  H14T 1731     0.025511      1.00800 ; qtot 0.026
  1732   cD    45    MY  C114 1732    -0.111712     12.01000 ; qtot -0.086
  1733   hL    45    MY  H14R 1733     0.025511      1.00800 ; qtot -0.061
  1734   hL    45    MY  H14S 1734     0.025511      1.00800 ; qtot -0.035
  1735   cD    45    MY  C113 1735     0.017463     12.01000 ; qtot -0.018
  1736   hL    45    MY  H13R 1736     0.007531      1.00800 ; qtot -0.010
  1737   hL    45    MY  H13S 1737     0.007531      1.00800 ; qtot -0.003
  1738   cD    45    MY  C112 1738    -0.028094     12.01000 ; qtot -0.031
  1739   hL    45    MY  H12R 1739     0.017208      1.00800 ; qtot -0.014
  1740   hL    45    MY  H12S 1740     0.017208      1.00800 ; qtot 0.004
  1741   cD    45    MY  C111 1741    -0.031787     12.01000 ; qtot -0.028
  1742   hL    45    MY  H11R 1742     0.012677      1.00800 ; qtot -0.015
  1743   hL    45    MY  H11S 1743     0.012677      1.00800 ; qtot -0.003
  1744   cD    45    MY  C110 1744    -0.021025     12.01000 ; qtot -0.024
  1745   hL    45    MY  H10R 1745     0.010037      1.00800 ; qtot -0.014
  1746   hL    45    MY  H10S 1746     0.010037      1.00800 ; qtot -0.004
  1747   cD    45    MY   C19 1747    -0.014653     12.01000 ; qtot -0.018
  1748   hL    45    MY   H9R 1748     0.010172      1.00800 ; qtot -0.008
  1749   hL    45    MY   H9S 1749     0.010172      1.00800 ; qtot 0.002
  1750   cD    45    MY   C18 1750    -0.026451     12.01000 ; qtot -0.024
  1751   hL    45    MY   H8R 1751     0.011241      1.00800 ; qtot -0.013
  1752   hL    45    MY   H8S 1752     0.011241      1.00800 ; qtot -0.002
  1753   cD    45    MY   C17 1753    -0.004386     12.01000 ; qtot -0.006
  1754   hL    45    MY   H7R 1754     0.006833      1.00800 ; qtot 0.000
  1755   hL    45    MY   H7S 1755     0.006833      1.00800 ; qtot 0.007
  1756   cD    45    MY   C16 1756    -0.027812     12.01000 ; qtot -0.021
  1757   hL    45    MY   H6R 1757     0.011511      1.00800 ; qtot -0.009
  1758   hL    45    MY   H6S 1758     0.011511      1.00800 ; qtot 0.002
  1759   cD    45    MY   C15 1759    -0.016521     12.01000 ; qtot -0.014
  1760   hL    45    MY   H5R 1760     0.010573      1.00800 ; qtot -0.003
  1761   hL    45    MY   H5S 1761     0.010573      1.00800 ; qtot 0.007
  1762   cD    45    MY   C14 1762    -0.026954     12.01000 ; qtot -0.020
  1763   hL    45    MY   H4R 1763     0.020431      1.00800 ; qtot 0.001
  1764   hL    45    MY   H4S 1764     0.020431      1.00800 ; qtot 0.021
  1765   cD    45    MY   C13 1765    -0.002435     12.01000 ; qtot 0.019
  1766   hL    45    MY   H3R 1766     0.018859      1.00800 ; qtot 0.037
  1767   hL    45    MY   H3S 1767     0.018859      1.00800 ; qtot 0.056
  1768   cD    45    MY   C12 1768    -0.164200     12.01000 ; qtot -0.108
  1769   hL    45    MY   H2R 1769     0.053944      1.00800 ; qtot -0.054
  1770   hL    45    MY   H2S 1770     0.053944      1.00800 ; qtot -0.000
  1771   hL    46    MY  H14T 1771     0.025511      1.00800 ; qtot 0.026
  1772   cD    46    MY  C114 1772    -0.111712     12.01000 ; qtot -0.086
  1773   hL    46    MY  H14R 1773     0.025511      1.00800 ; qtot -0.061
  1774   hL    46    MY  H14S 1774     0.025511      1.00800 ; qtot -0.035
  1775   cD    46    MY  C113 1775     0.017463     12.01000 ; qtot -0.018
  1776   hL    46    MY  H13R 1776     0.007531      1.00800 ; qtot -0.010
  1777   hL    46    MY  H13S 1777     0.007531      1.00800 ; qtot -0.003
  1778   cD    46    MY  C112 1778    -0.028094     12.01000 ; qtot -0.031
  1779   hL    46    MY  H12R 1779     0.017208      1.00800 ; qtot -0.014
  1780   hL    46    MY  H12S 1780     0.017208      1.00800 ; qtot 0.004
  1781   cD    46    MY  C111 1781    -0.031787     12.01000 ; qtot -0.028
  1782   hL    46    MY  H11R 1782     0.012677      1.00800 ; qtot -0.015
  1783   hL    46    MY  H11S 1783     0.012677      1.00800 ; qtot -0.003
  1784   cD    46    MY  C110 1784    -0.021025     12.01000 ; qtot -0.024
  1785   hL    46    MY  H10R 1785     0.010037      1.00800 ; qtot -0.014
  1786   hL    46    MY  H10S 1786     0.010037      1.00800 ; qtot -0.004
  1787   cD    46    MY   C19 1787    -0.014653     12.01000 ; qtot -0.018
  1788   hL    46    MY   H9R 1788     0.010172      1.00800 ; qtot -0.008
  1789   hL    46    MY   H9S 1789     0.010172      1.00800 ; qtot 0.002
  1790   cD    46    MY   C18 1790    -0.026451     12.01000 ; qtot -0.024
  1791   hL    46    MY   H8R 1791     0.011241      1.00800 ; qtot -0.013
  1792   hL    46    MY   H8S 1792     0.011241      1.00800 ; qtot -0.002
  1793   cD    46    MY   C17 1793    -0.004386     12.01000 ; qtot -0.006
  1794   hL    46    MY   H7R 1794     0.006833      1.00800 ; qtot 0.000
  1795   hL    46    MY   H7S 1795     0.006833      1.00800 ; qtot 0.007
  1796   cD    46    MY   C16 1796    -0.027812     12.01000 ; qtot -0.021
  1797   hL    46    MY   H6R 1797     0.011511      1.00800 ; qtot -0.009
  1798   hL    46    MY   H6S 1798     0.011511      1.00800 ; qtot 0.002
  1799   cD    46    MY   C15 1799    -0.016521     12.01000 ; qtot -0.014
  1800   hL    46    MY   H5R 1800     0.010573      1.00800 ; qtot -0.003
  1801   hL    46    MY   H5S 1801     0.010573      1.00800 ; qtot 0.007
  1802   cD    46    MY   C14 1802    -0.026954     12.01000 ; qtot -0.020
  1803   hL    46    MY   H4R 1803     0.020431      1.00800 ; qtot 0.001
  1804   hL    46    MY   H4S 1804     0.020431      1.00800 ; qtot 0.021
  1805   cD    46    MY   C13 1805    -0.002435     12.01000 ; qtot 0.019
  1806   hL    46    MY   H3R 1806     0.018859      1.00800 ; qtot 0.037
  1807   hL    46    MY   H3S 1807     0.018859      1.00800 ; qtot 0.056
  1808   cD    46    MY   C12 1808    -0.164200     12.01000 ; qtot -0.108
  1809   hL    46    MY   H2R 1809     0.053944      1.00800 ; qtot -0.054
  1810   hL    46    MY   H2S 1810     0.053944      1.00800 ; qtot -0.000
  1811   cC    47    PC   C11 1811     0.910403     12.01000 ; qtot 0.910
  1812   oC    47    PC   O12 1812    -0.671566     16.00000 ; qtot 0.239
  1813   oS    47    PC   O11 1813    -0.575489     16.00000 ; qtot -0.337
  1814   cA    47    PC    C1 1814     0.196939     12.01000 ; qtot -0.140
  1815   hE    47    PC    HR 1815     0.070469      1.00800 ; qtot -0.069
  1816   hE    47    PC    HS 1816     0.070469      1.00800 ; qtot 0.001
  1817   cA    47    PC    C2 1817     0.281242     12.01000 ; qtot 0.282
  1818   hE    47    PC    HX 1818     0.063253      1.00800 ; qtot 0.346
  1819   cA    47    PC    C3 1819     0.017459     12.01000 ; qtot 0.363
  1820   hE    47    PC    HA 1820     0.095591      1.00800 ; qtot 0.459
  1821   hE    47    PC    HB 1821     0.095591      1.00800 ; qtot 0.554
  1822   oT    47    PC   O31 1822    -0.509480     16.00000 ; qtot 0.045
  1823   pA    47    PC   P31 1823     1.339721     30.97000 ; qtot 1.385
  1824   oT    47    PC   O32 1824    -0.508176     16.00000 ; qtot 0.876
  1825   cA    47    PC   C31 1825     0.166801     12.01000 ; qtot 1.043
  1826   hE    47    PC   H1A 1826     0.078534      1.00800 ; qtot 1.122
  1827   hE    47    PC   H1B 1827     0.078534      1.00800 ; qtot 1.200
  1828   cA    47    PC   C32 1828    -0.170824     12.01000 ; qtot 1.029
  1829   hX    47    PC   H2A 1829     0.136415      1.00800 ; qtot 1.166
  1830   hX    47    PC   H2B 1830     0.136415      1.00800 ; qtot 1.302
  1831   nA    47    PC   N31 1831     0.245262     14.01000 ; qtot 1.548
  1832   cA    47    PC   C33 1832    -0.338973     12.01000 ; qtot 1.209
  1833   hX    47    PC   H3A 1833     0.172230      1.00800 ; qtot 1.381
  1834   hX    47    PC   H3B 1834     0.172230      1.00800 ; qtot 1.553
  1835   hX    47    PC   H3C 1835     0.172230      1.00800 ; qtot 1.725
  1836   cA    47    PC   C34 1836    -0.338973     12.01000 ; qtot 1.386
  1837   hX    47    PC   H4A 1837     0.172230      1.00800 ; qtot 1.559
  1838   hX    47    PC   H4B 1838     0.172230      1.00800 ; qtot 1.731
  1839   hX    47    PC   H4C 1839     0.172230      1.00800 ; qtot 1.903
  1840   cA    47    PC   C35 1840    -0.338973     12.01000 ; qtot 1.564
  1841   hX    47    PC   H5A 1841     0.172230      1.00800 ; qtot 1.736
  1842   hX    47    PC   H5B 1842     0.172230      1.00800 ; qtot 1.908
  1843   hX    47    PC   H5C 1843     0.172230      1.00800 ; qtot 2.081
  1844   oP    47    PC   O33 1844    -0.875812     16.00000 ; qtot 1.205
  1845   oP    47    PC   O34 1845    -0.875812     16.00000 ; qtot 0.329
  1846   oS    47    PC   O21 1846    -0.552948     16.00000 ; qtot -0.224
  1847   cC    47    PC   C21 1847     0.897613     12.01000 ; qtot 0.674
  1848   oC    47    PC   O22 1848    -0.673755     16.00000 ; qtot 0.000
  1849   hL    48    MY  H14T 1849     0.025511      1.00800 ; qtot 0.026
  1850   cD    48    MY  C114 1850    -0.111712     12.01000 ; qtot -0.086
  1851   hL    48    MY  H14R 1851     0.025511      1.00800 ; qtot -0.061
  1852   hL    48    MY  H14S 1852     0.025511      1.00800 ; qtot -0.035
  1853   cD    48    MY  C113 1853     0.017463     12.01000 ; qtot -0.018
  1854   hL    48    MY  H13R 1854     0.007531      1.00800 ; qtot -0.010
  1855   hL    48    MY  H13S 1855     0.007531      1.00800 ; qtot -0.003
  1856   cD    48    MY  C112 1856    -0.028094     12.01000 ; qtot -0.031
  1857   hL    48    MY  H12R 1857     0.017208      1.00800 ; qtot -0.014
  1858   hL    48    MY  H12S 1858     0.017208      1.00800 ; qtot 0.004
  1859   cD    48    MY  C111 1859    -0.031787     12.01000 ; qtot -0.028
  1860   hL    48    MY  H11R 1860     0.012677      1.00800 ; qtot -0.015
  1861   hL    48    MY  H11S 1861     0.012677      1.00800 ; qtot -0.003
  1862   cD    48    MY  C110 1862    -0.021025     12.01000 ; qtot -0.024
  1863   hL    48    MY  H10R 1863     0.010037      1.00800 ; qtot -0.014
  1864   hL    48    MY  H10S 1864     0.010037      1.00800 ; qtot -0.004
  1865   cD    48    MY   C19 1865    -0.014653     12.01000 ; qtot -0.018
  1866   hL    48    MY   H9R 1866     0.010172      1.00800 ; qtot -0.008
  1867   hL    48    MY   H9S 1867     0.010172      1.00800 ; qtot 0.002
  1868   cD    48    MY   C18 1868    -0.026451     12.01000 ; qtot -0.024
  1869   hL    48    MY   H8R 1869     0.011241      1.00800 ; qtot -0.013
  1870   hL    48    MY   H8S 1870     0.011241      1.00800 ; qtot -0.002
  1871   cD    48    MY   C17 1871    -0.004386     12.01000 ; qtot -0.006
  1872   hL    48    MY   H7R 1872     0.006833      1.00800 ; qtot 0.000
  1873   hL    48    MY   H7S 1873     0.006833      1.00800 ; qtot 0.007
  1874   cD    48    MY   C16 1874    -0.027812     12.01000 ; qtot -0.021
  1875   hL    48    MY   H6R 1875     0.011511      1.00800 ; qtot -0.009
  1876   hL    48    MY   H6S 1876     0.011511      1.00800 ; qtot 0.002
  1877   cD    48    MY   C15 1877    -0.016521     12.01000 ; qtot -0.014
  1878   hL    48    MY   H5R 1878     0.010573      1.00800 ; qtot -0.003
  1879   hL    48    MY   H5S 1879     0.010573      1.00800 ; qtot 0.007
  1880   cD    48    MY   C14 1880    -0.026954     12.01000 ; qtot -0.020
  1881   hL    48    MY   H4R 1881     0.020431      1.00800 ; qtot 0.001
  1882   hL    48    MY   H4S 1882     0.020431      1.00800 ; qtot 0.021
  1883   cD    48    MY   C13 1883    -0.002435     12.01000 ; qtot 0.019
  1884   hL    48    MY   H3R 1884     0.018859      1.00800 ; qtot 0.037
  1885   hL    48    MY   H3S 1885     0.018859      1.00800 ; qtot 0.056
  1886   cD    48    MY   C12 1886    -0.164200     12.01000 ; qtot -0.108
  1887   hL    48    MY   H2R 1887     0.053944      1.00800 ; qtot -0.054
  1888   hL    48    MY   H2S 1888     0.053944      1.00800 ; qtot -0.000
  1889   hL    49    MY  H14T 1889     0.025511      1.00800 ; qtot 0.026
  1890   cD    49    MY  C114 1890    -0.111712     12.01000 ; qtot -0.086
  1891   hL    49    MY  H14R 1891     0.025511      1.00800 ; qtot -0.061
  1892   hL    49    MY  H14S 1892     0.025511      1.00800 ; qtot -0.035
  1893   cD    49    MY  C113 1893     0.017463     12.01000 ; qtot -0.018
  1894   hL    49    MY  H13R 1894     0.007531      1.00800 ; qtot -0.010
  1895   hL    49    MY  H13S 1895     0.007531      1.00800 ; qtot -0.003
  1896   cD    49    MY  C112 1896    -0.028094     12.01000 ; qtot -0.031
  1897   hL    49    MY  H12R 1897     0.017208      1.00800 ; qtot -0.014
  1898   hL    49    MY  H12S 1898     0.017208      1.00800 ; qtot 0.004
  1899   cD    49    MY  C111 1899    -0.031787     12.01000 ; qtot -0.028
  1900   hL    49    MY  H11R 1900     0.012677      1.00800 ; qtot -0.015
  1901   hL    49    MY  H11S 1901     0.012677      1.00800 ; qtot -0.003
  1902   cD    49    MY  C110 1902    -0.021025     12.01000 ; qtot -0.024
  1903   hL    49    MY  H10R 1903     0.010037      1.00800 ; qtot -0.014
  1904   hL    49    MY  H10S 1904     0.010037      1.00800 ; qtot -0.004
  1905   cD    49    MY   C19 1905    -0.014653     12.01000 ; qtot -0.018
  1906   hL    49    MY   H9R 1906     0.010172      1.00800 ; qtot -0.008
  1907   hL    49    MY   H9S 1907     0.010172      1.00800 ; qtot 0.002
  1908   cD    49    MY   C18 1908    -0.026451     12.01000 ; qtot -0.024
  1909   hL    49    MY   H8R 1909     0.011241      1.00800 ; qtot -0.013
  1910   hL    49    MY   H8S 1910     0.011241      1.00800 ; qtot -0.002
  1911   cD    49    MY   C17 1911    -0.004386     12.01000 ; qtot -0.006
  1912   hL    49    MY   H7R 1912     0.006833      1.00800 ; qtot 0.000
  1913   hL    49    MY   H7S 1913     0.006833      1.00800 ; qtot 0.007
  1914   cD    49    MY   C16 1914    -0.027812     12.01000 ; qtot -0.021
  1915   hL    49    MY   H6R 1915     0.011511      1.00800 ; qtot -0.009
  1916   hL    49    MY   H6S 1916     0.011511      1.00800 ; qtot 0.002
  1917   cD    49    MY   C15 1917    -0.016521     12.01000 ; qtot -0.014
  1918   hL    49    MY   H5R 1918     0.010573      1.00800 ; qtot -0.003
  1919   hL    49    MY   H5S 1919     0.010573      1.00800 ; qtot 0.007
  1920   cD    49    MY   C14 1920    -0.026954     12.01000 ; qtot -0.020
  1921   hL    49    MY   H4R 1921     0.020431      1.00800 ; qtot 0.001
  1922   hL    49    MY   H4S 1922     0.020431      1.00800 ; qtot 0.021
  1923   cD    49    MY   C13 1923    -0.002435     12.01000 ; qtot 0.019
  1924   hL    49    MY   H3R 1924     0.018859      1.00800 ; qtot 0.037
  1925   hL    49    MY   H3S 1925     0.018859      1.00800 ; qtot 0.056
  1926   cD    49    MY   C12 1926    -0.164200     12.01000 ; qtot -0.108
  1927   hL    49    MY   H2R 1927     0.053944      1.00800 ; qtot -0.054
  1928   hL    49    MY   H2S 1928     0.053944      1.00800 ; qtot -0.000
  1929   cC    50    PC   C11 1929     0.910403     12.01000 ; qtot 0.910
  1930   oC    50    PC   O12 1930    -0.671566     16.00000 ; qtot 0.239
  1931   oS    50    PC   O11 1931    -0.575489     16.00000 ; qtot -0.337
  1932   cA    50    PC    C1 1932     0.196939     12.01000 ; qtot -0.140
  1933   hE    50    PC    HR 1933     0.070469      1.00800 ; qtot -0.069
  1934   hE    50    PC    HS 1934     0.070469      1.00800 ; qtot 0.001
  1935   cA    50    PC    C2 1935     0.281242     12.01000 ; qtot 0.282
  1936   hE    50    PC    HX 1936     0.063253      1.00800 ; qtot 0.346
  1937   cA    50    PC    C3 1937     0.017459     12.01000 ; qtot 0.363
  1938   hE    50    PC    HA 1938     0.095591      1.00800 ; qtot 0.459
  1939   hE    50    PC    HB 1939     0.095591      1.00800 ; qtot 0.554
  1940   oT    50    PC   O31 1940    -0.509480     16.00000 ; qtot 0.045
  1941   pA    50    PC   P31 1941     1.339721     30.97000 ; qtot 1.385
  1942   oT    50    PC   O32 1942    -0.508176     16.00000 ; qtot 0.876
  1943   cA    50    PC   C31 1943     0.166801     12.01000 ; qtot 1.043
  1944   hE    50    PC   H1A 1944     0.078534      1.00800 ; qtot 1.122
  1945   hE    50    PC   H1B 1945     0.078534      1.00800 ; qtot 1.200
  1946   cA    50    PC   C32 1946    -0.170824     12.01000 ; qtot 1.029
  1947   hX    50    PC   H2A 1947     0.136415      1.00800 ; qtot 1.166
  1948   hX    50    PC   H2B 1948     0.136415      1.00800 ; qtot 1.302
  1949   nA    50    PC   N31 1949     0.245262     14.01000 ; qtot 1.548
  1950   cA    50    PC   C33 1950    -0.338973     12.01000 ; qtot 1.209
  1951   hX    50    PC   H3A 1951     0.172230      1.00800 ; qtot 1.381
  1952   hX    50    PC   H3B 1952     0.172230      1.00800 ; qtot 1.553
  1953   hX    50    PC   H3C 1953     0.172230      1.00800 ; qtot 1.725
  1954   cA    50    PC   C34 1954    -0.338973     12.01000 ; qtot 1.386
  1955   hX    50    PC   H4A 1955     0.172230      1.00800 ; qtot 1.559
  1956   hX    50    PC   H4B 1956     0.172230      1.00800 ; qtot 1.731
  1957   hX    50    PC   H4C 1957     0.172230      1.00800 ; qtot 1.903
  1958   cA    50    PC   C35 1958    -0.338973     12.01000 ; qtot 1.564
  1959   hX    50    PC   H5A 1959     0.172230      1.00800 ; qtot 1.736
  1960   hX    50    PC   H5B 1960     0.172230      1.00800 ; qtot 1.908
  1961   hX    50    PC   H5C 1961     0.172230      1.00800 ; qtot 2.081
  1962   oP    50    PC   O33 1962    -0.875812     16.00000 ; qtot 1.205
  1963   oP    50    PC   O34 1963    -0.875812     16.00000 ; qtot 0.329
  1964   oS    50    PC   O21 1964    -0.552948     16.00000 ; qtot -0.224
  1965   cC    50    PC   C21 1965     0.897613     12.01000 ; qtot 0.674
  1966   oC    50    PC   O22 1966    -0.673755     16.00000 ; qtot 0.000
  1967   hL    51    MY  H14T 1967     0.025511      1.00800 ; qtot 0.026
  1968   cD    51    MY  C114 1968    -0.111712     12.01000 ; qtot -0.086
  1969   hL    51    MY  H14R 1969     0.025511      1.00800 ; qtot -0.061
  1970   hL    51    MY  H14S 1970     0.025511      1.00800 ; qtot -0.035
  1971   cD    51    MY  C113 1971     0.017463     12.01000 ; qtot -0.018
  1972   hL    51    MY  H13R 1972     0.007531      1.00800 ; qtot -0.010
  1973   hL    51    MY  H13S 1973     0.007531      1.00800 ; qtot -0.003
  1974   cD    51    MY  C112 1974    -0.028094     12.01000 ; qtot -0.031
  1975   hL    51    MY  H12R 1975     0.017208      1.00800 ; qtot -0.014
  1976   hL    51    MY  H12S 1976     0.017208      1.00800 ; qtot 0.004
  1977   cD    51    MY  C111 1977    -0.031787     12.01000 ; qtot -0.028
  1978   hL    51    MY  H11R 1978     0.012677      1.00800 ; qtot -0.015
  1979   hL    51    MY  H11S 1979     0.012677      1.00800 ; qtot -0.003
  1980   cD    51    MY  C110 1980    -0.021025     12.01000 ; qtot -0.024
  1981   hL    51    MY  H10R 1981     0.010037      1.00800 ; qtot -0.014
  1982   hL    51    MY  H10S 1982     0.010037      1.00800 ; qtot -0.004
  1983   cD    51    MY   C19 1983    -0.014653     12.01000 ; qtot -0.018
  1984   hL    51    MY   H9R 1984     0.010172      1.00800 ; qtot -0.008
  1985   hL    51    MY   H9S 1985     0.010172      1.00800 ; qtot 0.002
  1986   cD    51    MY   C18 1986    -0.026451     12.01000 ; qtot -0.024
  1987   hL    51    MY   H8R 1987     0.011241      1.00800 ; qtot -0.013
  1988   hL    51    MY   H8S 1988     0.011241      1.00800 ; qtot -0.002
  1989   cD    51    MY   C17 1989    -0.004386     12.01000 ; qtot -0.006
  1990   hL    51    MY   H7R 1990     0.006833      1.00800 ; qtot 0.000
  1991   hL    51    MY   H7S 1991     0.006833      1.00800 ; qtot 0.007
  1992   cD    51    MY   C16 1992    -0.027812     12.01000 ; qtot -0.021
  1993   hL    51    MY   H6R 1993     0.011511      1.00800 ; qtot -0.009
  1994   hL    51    MY   H6S 1994     0.011511      1.00800 ; qtot 0.002
  1995   cD    51    MY   C15 1995    -0.016521     12.01000 ; qtot -0.014
  1996   hL    51    MY   H5R 1996     0.010573      1.00800 ; qtot -0.003
  1997   hL    51    MY   H5S 1997     0.010573      1.00800 ; qtot 0.007
  1998   cD    51    MY   C14 1998    -0.026954     12.01000 ; qtot -0.020
  1999   hL    51    MY   H4R 1999     0.020431      1.00800 ; qtot 0.001
  2000   hL    51    MY   H4S 2000     0.020431      1.00800 ; qtot 0.021
  2001   cD    51    MY   C13 2001    -0.002435     12.01000 ; qtot 0.019
  2002   hL    51    MY   H3R 2002     0.018859      1.00800 ; qtot 0.037
  2003   hL    51    MY   H3S 2003     0.018859      1.00800 ; qtot 0.056
  2004   cD    51    MY   C12 2004    -0.164200     12.01000 ; qtot -0.108
  2005   hL    51    MY   H2R 2005     0.053944      1.00800 ; qtot -0.054
  2006   hL    51    MY   H2S 2006     0.053944      1.00800 ; qtot -0.000
  2007   hL    52    MY  H14T 2007     0.025511      1.00800 ; qtot 0.026
  2008   cD    52    MY  C114 2008    -0.111712     12.01000 ; qtot -0.086
  2009   hL    52    MY  H14R 2009     0.025511      1.00800 ; qtot -0.061
  2010   hL    52    MY  H14S 2010     0.025511      1.00800 ; qtot -0.035
  2011   cD    52    MY  C113 2011     0.017463     12.01000 ; qtot -0.018
  2012   hL    52    MY  H13R 2012     0.007531      1.00800 ; qtot -0.010
  2013   hL    52    MY  H13S 2013     0.007531      1.00800 ; qtot -0.003
  2014   cD    52    MY  C112 2014    -0.028094     12.01000 ; qtot -0.031
  2015   hL    52    MY  H12R 2015     0.017208      1.00800 ; qtot -0.014
  2016   hL    52    MY  H12S 2016     0.017208      1.00800 ; qtot 0.004
  2017   cD    52    MY  C111 2017    -0.031787     12.01000 ; qtot -0.028
  2018   hL    52    MY  H11R 2018     0.012677      1.00800 ; qtot -0.015
  2019   hL    52    MY  H11S 2019     0.012677      1.00800 ; qtot -0.003
  2020   cD    52    MY  C110 2020    -0.021025     12.01000 ; qtot -0.024
  2021   hL    52    MY  H10R 2021     0.010037      1.00800 ; qtot -0.014
  2022   hL    52    MY  H10S 2022     0.010037      1.00800 ; qtot -0.004
  2023   cD    52    MY   C19 2023    -0.014653     12.01000 ; qtot -0.018
  2024   hL    52    MY   H9R 2024     0.010172      1.00800 ; qtot -0.008
  2025   hL    52    MY   H9S 2025     0.010172      1.00800 ; qtot 0.002
  2026   cD    52    MY   C18 2026    -0.026451     12.01000 ; qtot -0.024
  2027   hL    52    MY   H8R 2027     0.011241      1.00800 ; qtot -0.013
  2028   hL    52    MY   H8S 2028     0.011241      1.00800 ; qtot -0.002
  2029   cD    52    MY   C17 2029    -0.004386     12.01000 ; qtot -0.006
  2030   hL    52    MY   H7R 2030     0.006833      1.00800 ; qtot 0.000
  2031   hL    52    MY   H7S 2031     0.006833      1.00800 ; qtot 0.007
  2032   cD    52    MY   C16 2032    -0.027812     12.01000 ; qtot -0.021
  2033   hL    52    MY   H6R 2033     0.011511      1.00800 ; qtot -0.009
  2034   hL    52    MY   H6S 2034     0.011511      1.00800 ; qtot 0.002
  2035   cD    52    MY   C15 2035    -0.016521     12.01000 ; qtot -0.014
  2036   hL    52    MY   H5R 2036     0.010573      1.00800 ; qtot -0.003
  2037   hL    52    MY   H5S 2037     0.010573      1.00800 ; qtot 0.007
  2038   cD    52    MY   C14 2038    -0.026954     12.01000 ; qtot -0.020
  2039   hL    52    MY   H4R 2039     0.020431      1.00800 ; qtot 0.001
  2040   hL    52    MY   H4S 2040     0.020431      1.00800 ; qtot 0.021
  2041   cD    52    MY   C13 2041    -0.002435     12.01000 ; qtot 0.019
  2042   hL    52    MY   H3R 2042     0.018859      1.00800 ; qtot 0.037
  2043   hL    52    MY   H3S 2043     0.018859      1.00800 ; qtot 0.056
  2044   cD    52    MY   C12 2044    -0.164200     12.01000 ; qtot -0.108
  2045   hL    52    MY   H2R 2045     0.053944      1.00800 ; qtot -0.054
  2046   hL    52    MY   H2S 2046     0.053944      1.00800 ; qtot -0.000
  2047   cC    53    PC   C11 2047     0.910403     12.01000 ; qtot 0.910
  2048   oC    53    PC   O12 2048    -0.671566     16.00000 ; qtot 0.239
  2049   oS    53    PC   O11 2049    -0.575489     16.00000 ; qtot -0.337
  2050   cA    53    PC    C1 2050     0.196939     12.01000 ; qtot -0.140
  2051   hE    53    PC    HR 2051     0.070469      1.00800 ; qtot -0.069
  2052   hE    53    PC    HS 2052     0.070469      1.00800 ; qtot 0.001
  2053   cA    53    PC    C2 2053     0.281242     12.01000 ; qtot 0.282
  2054   hE    53    PC    HX 2054     0.063253      1.00800 ; qtot 0.346
  2055   cA    53    PC    C3 2055     0.017459     12.01000 ; qtot 0.363
  2056   hE    53    PC    HA 2056     0.095591      1.00800 ; qtot 0.459
  2057   hE    53    PC    HB 2057     0.095591      1.00800 ; qtot 0.554
  2058   oT    53    PC   O31 2058    -0.509480     16.00000 ; qtot 0.045
  2059   pA    53    PC   P31 2059     1.339721     30.97000 ; qtot 1.385
  2060   oT    53    PC   O32 2060    -0.508176     16.00000 ; qtot 0.876
  2061   cA    53    PC   C31 2061     0.166801     12.01000 ; qtot 1.043
  2062   hE    53    PC   H1A 2062     0.078534      1.00800 ; qtot 1.122
  2063   hE    53    PC   H1B 2063     0.078534      1.00800 ; qtot 1.200
  2064   cA    53    PC   C32 2064    -0.170824     12.01000 ; qtot 1.029
  2065   hX    53    PC   H2A 2065     0.136415      1.00800 ; qtot 1.166
  2066   hX    53    PC   H2B 2066     0.136415      1.00800 ; qtot 1.302
  2067   nA    53    PC   N31 2067     0.245262     14.01000 ; qtot 1.548
  2068   cA    53    PC   C33 2068    -0.338973     12.01000 ; qtot 1.209
  2069   hX    53    PC   H3A 2069     0.172230      1.00800 ; qtot 1.381
  2070   hX    53    PC   H3B 2070     0.172230      1.00800 ; qtot 1.553
  2071   hX    53    PC   H3C 2071     0.172230      1.00800 ; qtot 1.725
  2072   cA    53    PC   C34 2072    -0.338973     12.01000 ; qtot 1.386
  2073   hX    53    PC   H4A 2073     0.172230      1.00800 ; qtot 1.559
  2074   hX    53    PC   H4B 2074     0.172230      1.00800 ; qtot 1.731
  2075   hX    53    PC   H4C 2075     0.172230      1.00800 ; qtot 1.903
  2076   cA    53    PC   C35 2076    -0.338973     12.01000 ; qtot 1.564
  2077   hX    53    PC   H5A 2077     0.172230      1.00800 ; qtot 1.736
  2078   hX    53    PC   H5B 2078     0.172230      1.00800 ; qtot 1.908
  2079   hX    53    PC   H5C 2079     0.172230      1.00800 ; qtot 2.081
  2080   oP    53    PC   O33 2080    -0.875812     16.00000 ; qtot 1.205
  2081   oP    53    PC   O34 2081    -0.875812     16.00000 ; qtot 0.329
  2082   oS    53    PC   O21 2082    -0.552948     16.00000 ; qtot -0.224
  2083   cC    53    PC   C21 2083     0.897613     12.01000 ; qtot 0.674
  2084   oC    53    PC   O22 2084    -0.673755     16.00000 ; qtot 0.000
  2085   hL    54    MY  H14T 2085     0.025511      1.00800 ; qtot 0.026
  2086   cD    54    MY  C114 2086    -0.111712     12.01000 ; qtot -0.086
  2087   hL    54    MY  H14R 2087     0.025511      1.00800 ; qtot -0.061
  2088   hL    54    MY  H14S 2088     0.025511      1.00800 ; qtot -0.035
  2089   cD    54    MY  C113 2089     0.017463     12.01000 ; qtot -0.018
  2090   hL    54    MY  H13R 2090     0.007531      1.00800 ; qtot -0.010
  2091   hL    54    MY  H13S 2091     0.007531      1.00800 ; qtot -0.003
  2092   cD    54    MY  C112 2092    -0.028094     12.01000 ; qtot -0.031
  2093   hL    54    MY  H12R 2093     0.017208      1.00800 ; qtot -0.014
  2094   hL    54    MY  H12S 2094     0.017208      1.00800 ; qtot 0.004
  2095   cD    54    MY  C111 2095    -0.031787     12.01000 ; qtot -0.028
  2096   hL    54    MY  H11R 2096     0.012677      1.00800 ; qtot -0.015
  2097   hL    54    MY  H11S 2097     0.012677      1.00800 ; qtot -0.003
  2098   cD    54    MY  C110 2098    -0.021025     12.01000 ; qtot -0.024
  2099   hL    54    MY  H10R 2099     0.010037      1.00800 ; qtot -0.014
  2100   hL    54    MY  H10S 2100     0.010037      1.00800 ; qtot -0.004
  2101   cD    54    MY   C19 2101    -0.014653     12.01000 ; qtot -0.018
  2102   hL    54    MY   H9R 2102     0.010172      1.00800 ; qtot -0.008
  2103   hL    54    MY   H9S 2103     0.010172      1.00800 ; qtot 0.002
  2104   cD    54    MY   C18 2104    -0.026451     12.01000 ; qtot -0.024
  2105   hL    54    MY   H8R 2105     0.011241      1.00800 ; qtot -0.013
  2106   hL    54    MY   H8S 2106     0.011241      1.00800 ; qtot -0.002
  2107   cD    54    MY   C17 2107    -0.004386     12.01000 ; qtot -0.006
  2108   hL    54    MY   H7R 2108     0.006833      1.00800 ; qtot 0.000
  2109   hL    54    MY   H7S 2109     0.006833      1.00800 ; qtot 0.007
  2110   cD    54    MY   C16 2110    -0.027812     12.01000 ; qtot -0.021
  2111   hL    54    MY   H6R 2111     0.011511      1.00800 ; qtot -0.009
  2112   hL    54    MY   H6S 2112     0.011511      1.00800 ; qtot 0.002
  2113   cD    54    MY   C15 2113    -0.016521     12.01000 ; qtot -0.014
  2114   hL    54    MY   H5R 2114     0.010573      1.00800 ; qtot -0.003
  2115   hL    54    MY   H5S 2115     0.010573      1.00800 ; qtot 0.007
  2116   cD    54    MY   C14 2116    -0.026954     12.01000 ; qtot -0.020
  2117   hL    54    MY   H4R 2117     0.020431      1.00800 ; qtot 0.001
  2118   hL    54    MY   H4S 2118     0.020431      1.00800 ; qtot 0.021
  2119   cD    54    MY   C13 2119    -0.002435     12.01000 ; qtot 0.019
  2120   hL    54    MY   H3R 2120     0.018859      1.00800 ; qtot 0.037
  2121   hL    54    MY   H3S 2121     0.018859      1.00800 ; qtot 0.056
  2122   cD    54    MY   C12 2122    -0.164200     12.01000 ; qtot -0.108
  2123   hL    54    MY   H2R 2123     0.053944      1.00800 ; qtot -0.054
  2124   hL    54    MY   H2S 2124     0.053944      1.00800 ; qtot -0.000
  2125   hL    55    MY  H14T 2125     0.025511      1.00800 ; qtot 0.026
  2126   cD    55    MY  C114 2126    -0.111712     12.01000 ; qtot -0.086
  2127   hL    55    MY  H14R 2127     0.025511      1.00800 ; qtot -0.061
  2128   hL    55    MY  H14S 2128     0.025511      1.00800 ; qtot -0.035
  2129   cD    55    MY  C113 2129     0.017463     12.01000 ; qtot -0.018
  2130   hL    55    MY  H13R 2130     0.007531      1.00800 ; qtot -0.010
  2131   hL    55    MY  H13S 2131     0.007531      1.00800 ; qtot -0.003
  2132   cD    55    MY  C112 2132    -0.028094     12.01000 ; qtot -0.031
  2133   hL    55    MY  H12R 2133     0.017208      1.00800 ; qtot -0.014
  2134   hL    55    MY  H12S 2134     0.017208      1.00800 ; qtot 0.004
  2135   cD    55    MY  C111 2135    -0.031787     12.01000 ; qtot -0.028
  2136   hL    55    MY  H11R 2136     0.012677      1.00800 ; qtot -0.015
  2137   hL    55    MY  H11S 2137     0.012677      1.00800 ; qtot -0.003
  2138   cD    55    MY  C110 2138    -0.021025     12.01000 ; qtot -0.024
  2139   hL    55    MY  H10R 2139     0.010037      1.00800 ; qtot -0.014
  2140   hL    55    MY  H10S 2140     0.010037      1.00800 ; qtot -0.004
  2141   cD    55    MY   C19 2141    -0.014653     12.01000 ; qtot -0.018
  2142   hL    55    MY   H9R 2142     0.010172      1.00800 ; qtot -0.008
  2143   hL    55    MY   H9S 2143     0.010172      1.00800 ; qtot 0.002
  2144   cD    55    MY   C18 2144    -0.026451     12.01000 ; qtot -0.024
  2145   hL    55    MY   H8R 2145     0.011241      1.00800 ; qtot -0.013
  2146   hL    55    MY   H8S 2146     0.011241      1.00800 ; qtot -0.002
  2147   cD    55    MY   C17 2147    -0.004386     12.01000 ; qtot -0.006
  2148   hL    55    MY   H7R 2148     0.006833      1.00800 ; qtot 0.000
  2149   hL    55    MY   H7S 2149     0.006833      1.00800 ; qtot 0.007
  2150   cD    55    MY   C16 2150    -0.027812     12.01000 ; qtot -0.021
  2151   hL    55    MY   H6R 2151     0.011511      1.00800 ; qtot -0.009
  2152   hL    55    MY   H6S 2152     0.011511      1.00800 ; qtot 0.002
  2153   cD    55    MY   C15 2153    -0.016521     12.01000 ; qtot -0.014
  2154   hL    55    MY   H5R 2154     0.010573      1.00800 ; qtot -0.003
  2155   hL    55    MY   H5S 2155     0.010573      1.00800 ; qtot 0.007
  2156   cD    55    MY   C14 2156    -0.026954     12.01000 ; qtot -0.020
  2157   hL    55    MY   H4R 2157     0.020431      1.00800 ; qtot 0.001
  2158   hL    55    MY   H4S 2158     0.020431      1.00800 ; qtot 0.021
  2159   cD    55    MY   C13 2159    -0.002435     12.01000 ; qtot 0.019
  2160   hL    55    MY   H3R 2160     0.018859      1.00800 ; qtot 0.037
  2161   hL    55    MY   H3S 2161     0.018859      1.00800 ; qtot 0.056
  2162   cD    55    MY   C12 2162    -0.164200     12.01000 ; qtot -0.108
  2163   hL    55    MY   H2R 2163     0.053944      1.00800 ; qtot -0.054
  2164   hL    55    MY   H2S 2164     0.053944      1.00800 ; qtot -0.000
  2165   cC    56    PC   C11 2165     0.910403     12.01000 ; qtot 0.910
  2166   oC    56    PC   O12 2166    -0.671566     16.00000 ; qtot 0.239
  2167   oS    56    PC   O11 2167    -0.575489     16.00000 ; qtot -0.337
  2168   cA    56    PC    C1 2168     0.196939     12.01000 ; qtot -0.140
  2169   hE    56    PC    HR 2169     0.070469      1.00800 ; qtot -0.069
  2170   hE    56    PC    HS 2170     0.070469      1.00800 ; qtot 0.001
  2171   cA    56    PC    C2 2171     0.281242     12.01000 ; qtot 0.282
  2172   hE    56    PC    HX 2172     0.063253      1.00800 ; qtot 0.346
  2173   cA    56    PC    C3 2173     0.017459     12.01000 ; qtot 0.363
  2174   hE    56    PC    HA 2174     0.095591      1.00800 ; qtot 0.459
  2175   hE    56    PC    HB 2175     0.095591      1.00800 ; qtot 0.554
  2176   oT    56    PC   O31 2176    -0.509480     16.00000 ; qtot 0.045
  2177   pA    56    PC   P31 2177     1.339721     30.97000 ; qtot 1.385
  2178   oT    56    PC   O32 2178    -0.508176     16.00000 ; qtot 0.876
  2179   cA    56    PC   C31 2179     0.166801     12.01000 ; qtot 1.043
  2180   hE    56    PC   H1A 2180     0.078534      1.00800 ; qtot 1.122
  2181   hE    56    PC   H1B 2181     0.078534      1.00800 ; qtot 1.200
  2182   cA    56    PC   C32 2182    -0.170824     12.01000 ; qtot 1.029
  2183   hX    56    PC   H2A 2183     0.136415      1.00800 ; qtot 1.166
  2184   hX    56    PC   H2B 2184     0.136415      1.00800 ; qtot 1.302
  2185   nA    56    PC   N31 2185     0.245262     14.01000 ; qtot 1.548
  2186   cA    56    PC   C33 2186    -0.338973     12.01000 ; qtot 1.209
  2187   hX    56    PC   H3A 2187     0.172230      1.00800 ; qtot 1.381
  2188   hX    56    PC   H3B 2188     0.172230      1.00800 ; qtot 1.553
  2189   hX    56    PC   H3C 2189     0.172230      1.00800 ; qtot 1.725
  2190   cA    56    PC   C34 2190    -0.338973     12.01000 ; qtot 1.386
  2191   hX    56    PC   H4A 2191     0.172230      1.00800 ; qtot 1.559
  2192   hX    56    PC   H4B 2192     0.172230      1.00800 ; qtot 1.731
  2193   hX    56    PC   H4C 2193     0.172230      1.00800 ; qtot 1.903
  2194   cA    56    PC   C35 2194    -0.338973     12.01000 ; qtot 1.564
  2195   hX    56    PC   H5A 2195     0.172230      1.00800 ; qtot 1.736
  2196   hX    56    PC   H5B 2196     0.172230      1.00800 ; qtot 1.908
  2197   hX    56    PC   H5C 2197     0.172230      1.00800 ; qtot 2.081
  2198   oP    56    PC   O33 2198    -0.875812     16.00000 ; qtot 1.205
  2199   oP    56    PC   O34 2199    -0.875812     16.00000 ; qtot 0.329
  2200   oS    56    PC   O21 2200    -0.552948     16.00000 ; qtot -0.224
  2201   cC    56    PC   C21 2201     0.897613     12.01000 ; qtot 0.674
  2202   oC    56    PC   O22 2202    -0.673755     16.00000 ; qtot 0.000
  2203   hL    57    MY  H14T 2203     0.025511      1.00800 ; qtot 0.026
  2204   cD    57    MY  C114 2204    -0.111712     12.01000 ; qtot -0.086
  2205   hL    57    MY  H14R 2205     0.025511      1.00800 ; qtot -0.061
  2206   hL    57    MY  H14S 2206     0.025511      1.00800 ; qtot -0.035
  2207   cD    57    MY  C113 2207     0.017463     12.01000 ; qtot -0.018
  2208   hL    57    MY  H13R 2208     0.007531      1.00800 ; qtot -0.010
  2209   hL    57    MY  H13S 2209     0.007531      1.00800 ; qtot -0.003
  2210   cD    57    MY  C112 2210    -0.028094     12.01000 ; qtot -0.031
  2211   hL    57    MY  H12R 2211     0.017208      1.00800 ; qtot -0.014
  2212   hL    57    MY  H12S 2212     0.017208      1.00800 ; qtot 0.004
  2213   cD    57    MY  C111 2213    -0.031787     12.01000 ; qtot -0.028
  2214   hL    57    MY  H11R 2214     0.012677      1.00800 ; qtot -0.015
  2215   hL    57    MY  H11S 2215     0.012677      1.00800 ; qtot -0.003
  2216   cD    57    MY  C110 2216    -0.021025     12.01000 ; qtot -0.024
  2217   hL    57    MY  H10R 2217     0.010037      1.00800 ; qtot -0.014
  2218   hL    57    MY  H10S 2218     0.010037      1.00800 ; qtot -0.004
  2219   cD    57    MY   C19 2219    -0.014653     12.01000 ; qtot -0.018
  2220   hL    57    MY   H9R 2220     0.010172      1.00800 ; qtot -0.008
  2221   hL    57    MY   H9S 2221     0.010172      1.00800 ; qtot 0.002
  2222   cD    57    MY   C18 2222    -0.026451     12.01000 ; qtot -0.024
  2223   hL    57    MY   H8R 2223     0.011241      1.00800 ; qtot -0.013
  2224   hL    57    MY   H8S 2224     0.011241      1.00800 ; qtot -0.002
  2225   cD    57    MY   C17 2225    -0.004386     12.01000 ; qtot -0.006
  2226   hL    57    MY   H7R 2226     0.006833      1.00800 ; qtot 0.000
  2227   hL    57    MY   H7S 2227     0.006833      1.00800 ; qtot 0.007
  2228   cD    57    MY   C16 2228    -0.027812     12.01000 ; qtot -0.021
  2229   hL    57    MY   H6R 2229     0.011511      1.00800 ; qtot -0.009
  2230   hL    57    MY   H6S 2230     0.011511      1.00800 ; qtot 0.002
  2231   cD    57    MY   C15 2231    -0.016521     12.01000 ; qtot -0.014
  2232   hL    57    MY   H5R 2232     0.010573      1.00800 ; qtot -0.003
  2233   hL    57    MY   H5S 2233     0.010573      1.00800 ; qtot 0.007
  2234   cD    57    MY   C14 2234    -0.026954     12.01000 ; qtot -0.020
  2235   hL    57    MY   H4R 2235     0.020431      1.00800 ; qtot 0.001
  2236   hL    57    MY   H4S 2236     0.020431      1.00800 ; qtot 0.021
  2237   cD    57    MY   C13 2237    -0.002435     12.01000 ; qtot 0.019
  2238   hL    57    MY   H3R 2238     0.018859      1.00800 ; qtot 0.037
  2239   hL    57    MY   H3S 2239     0.018859      1.00800 ; qtot 0.056
  2240   cD    57    MY   C12 2240    -0.164200     12.01000 ; qtot -0.108
  2241   hL    57    MY   H2R 2241     0.053944      1.00800 ; qtot -0.054
  2242   hL    57    MY   H2S 2242     0.053944      1.00800 ; qtot -0.000
  2243   hL    58    MY  H14T 2243     0.025511      1.00800 ; qtot 0.026
  2244   cD    58    MY  C114 2244    -0.111712     12.01000 ; qtot -0.086
  2245   hL    58    MY  H14R 2245     0.025511      1.00800 ; qtot -0.061
  2246   hL    58    MY  H14S 2246     0.025511      1.00800 ; qtot -0.035
  2247   cD    58    MY  C113 2247     0.017463     12.01000 ; qtot -0.018
  2248   hL    58    MY  H13R 2248     0.007531      1.00800 ; qtot -0.010
  2249   hL    58    MY  H13S 2249     0.007531      1.00800 ; qtot -0.003
  2250   cD    58    MY  C112 2250    -0.028094     12.01000 ; qtot -0.031
  2251   hL    58    MY  H12R 2251     0.017208      1.00800 ; qtot -0.014
  2252   hL    58    MY  H12S 2252     0.017208      1.00800 ; qtot 0.004
  2253   cD    58    MY  C111 2253    -0.031787     12.01000 ; qtot -0.028
  2254   hL    58    MY  H11R 2254     0.012677      1.00800 ; qtot -0.015
  2255   hL    58    MY  H11S 2255     0.012677      1.00800 ; qtot -0.003
  2256   cD    58    MY  C110 2256    -0.021025     12.01000 ; qtot -0.024
  2257   hL    58    MY  H10R 2257     0.010037      1.00800 ; qtot -0.014
  2258   hL    58    MY  H10S 2258     0.010037      1.00800 ; qtot -0.004
  2259   cD    58    MY   C19 2259    -0.014653     12.01000 ; qtot -0.018
  2260   hL    58    MY   H9R 2260     0.010172      1.00800 ; qtot -0.008
  2261   hL    58    MY   H9S 2261     0.010172      1.00800 ; qtot 0.002
  2262   cD    58    MY   C18 2262    -0.026451     12.01000 ; qtot -0.024
  2263   hL    58    MY   H8R 2263     0.011241      1.00800 ; qtot -0.013
  2264   hL    58    MY   H8S 2264     0.011241      1.00800 ; qtot -0.002
  2265   cD    58    MY   C17 2265    -0.004386     12.01000 ; qtot -0.006
  2266   hL    58    MY   H7R 2266     0.006833      1.00800 ; qtot 0.000
  2267   hL    58    MY   H7S 2267     0.006833      1.00800 ; qtot 0.007
  2268   cD    58    MY   C16 2268    -0.027812     12.01000 ; qtot -0.021
  2269   hL    58    MY   H6R 2269     0.011511      1.00800 ; qtot -0.009
  2270   hL    58    MY   H6S 2270     0.011511      1.00800 ; qtot 0.002
  2271   cD    58    MY   C15 2271    -0.016521     12.01000 ; qtot -0.014
  2272   hL    58    MY   H5R 2272     0.010573      1.00800 ; qtot -0.003
  2273   hL    58    MY   H5S 2273     0.010573      1.00800 ; qtot 0.007
  2274   cD    58    MY   C14 2274    -0.026954     12.01000 ; qtot -0.020
  2275   hL    58    MY   H4R 2275     0.020431      1.00800 ; qtot 0.001
  2276   hL    58    MY   H4S 2276     0.020431      1.00800 ; qtot 0.021
  2277   cD    58    MY   C13 2277    -0.002435     12.01000 ; qtot 0.019
  2278   hL    58    MY   H3R 2278     0.018859      1.00800 ; qtot 0.037
  2279   hL    58    MY   H3S 2279     0.018859      1.00800 ; qtot 0.056
  2280   cD    58    MY   C12 2280    -0.164200     12.01000 ; qtot -0.108
  2281   hL    58    MY   H2R 2281     0.053944      1.00800 ; qtot -0.054
  2282   hL    58    MY   H2S 2282     0.053944      1.00800 ; qtot -0.000
  2283   cC    59    PC   C11 2283     0.910403     12.01000 ; qtot 0.910
  2284   oC    59    PC   O12 2284    -0.671566     16.00000 ; qtot 0.239
  2285   oS    59    PC   O11 2285    -0.575489     16.00000 ; qtot -0.337
  2286   cA    59    PC    C1 2286     0.196939     12.01000 ; qtot -0.140
  2287   hE    59    PC    HR 2287     0.070469      1.00800 ; qtot -0.069
  2288   hE    59    PC    HS 2288     0.070469      1.00800 ; qtot 0.001
  2289   cA    59    PC    C2 2289     0.281242     12.01000 ; qtot 0.282
  2290   hE    59    PC    HX 2290     0.063253      1.00800 ; qtot 0.346
  2291   cA    59    PC    C3 2291     0.017459     12.01000 ; qtot 0.363
  2292   hE    59    PC    HA 2292     0.095591      1.00800 ; qtot 0.459
  2293   hE    59    PC    HB 2293     0.095591      1.00800 ; qtot 0.554
  2294   oT    59    PC   O31 2294    -0.509480     16.00000 ; qtot 0.045
  2295   pA    59    PC   P31 2295     1.339721     30.97000 ; qtot 1.385
  2296   oT    59    PC   O32 2296    -0.508176     16.00000 ; qtot 0.876
  2297   cA    59    PC   C31 2297     0.166801     12.01000 ; qtot 1.043
  2298   hE    59    PC   H1A 2298     0.078534      1.00800 ; qtot 1.122
  2299   hE    59    PC   H1B 2299     0.078534      1.00800 ; qtot 1.200
  2300   cA    59    PC   C32 2300    -0.170824     12.01000 ; qtot 1.029
  2301   hX    59    PC   H2A 2301     0.136415      1.00800 ; qtot 1.166
  2302   hX    59    PC   H2B 2302     0.136415      1.00800 ; qtot 1.302
  2303   nA    59    PC   N31 2303     0.245262     14.01000 ; qtot 1.548
  2304   cA    59    PC   C33 2304    -0.338973     12.01000 ; qtot 1.209
  2305   hX    59    PC   H3A 2305     0.172230      1.00800 ; qtot 1.381
  2306   hX    59    PC   H3B 2306     0.172230      1.00800 ; qtot 1.553
  2307   hX    59    PC   H3C 2307     0.172230      1.00800 ; qtot 1.725
  2308   cA    59    PC   C34 2308    -0.338973     12.01000 ; qtot 1.386
  2309   hX    59    PC   H4A 2309     0.172230      1.00800 ; qtot 1.559
  2310   hX    59    PC   H4B 2310     0.172230      1.00800 ; qtot 1.731
  2311   hX    59    PC   H4C 2311     0.172230      1.00800 ; qtot 1.903
  2312   cA    59    PC   C35 2312    -0.338973     12.01000 ; qtot 1.564
  2313   hX    59    PC   H5A 2313     0.172230      1.00800 ; qtot 1.736
  2314   hX    59    PC   H5B 2314     0.172230      1.00800 ; qtot 1.908
  2315   hX    59    PC   H5C 2315     0.172230      1.00800 ; qtot 2.081
  2316   oP    59    PC   O33 2316    -0.875812     16.00000 ; qtot 1.205
  2317   oP    59    PC   O34 2317    -0.875812     16.00000 ; qtot 0.329
  2318   oS    59    PC   O21 2318    -0.552948     16.00000 ; qtot -0.224
  2319   cC    59    PC   C21 2319     0.897613     12.01000 ; qtot 0.674
  2320   oC    59    PC   O22 2320    -0.673755     16.00000 ; qtot 0.000
  2321   hL    60    MY  H14T 2321     0.025511      1.00800 ; qtot 0.026
  2322   cD    60    MY  C114 2322    -0.111712     12.01000 ; qtot -0.086
  2323   hL    60    MY  H14R 2323     0.025511      1.00800 ; qtot -0.061
  2324   hL    60    MY  H14S 2324     0.025511      1.00800 ; qtot -0.035
  2325   cD    60    MY  C113 2325     0.017463     12.01000 ; qtot -0.018
  2326   hL    60    MY  H13R 2326     0.007531      1.00800 ; qtot -0.010
  2327   hL    60    MY  H13S 2327     0.007531      1.00800 ; qtot -0.003
  2328   cD    60    MY  C112 2328    -0.028094     12.01000 ; qtot -0.031
  2329   hL    60    MY  H12R 2329     0.017208      1.00800 ; qtot -0.014
  2330   hL    60    MY  H12S 2330     0.017208      1.00800 ; qtot 0.004
  2331   cD    60    MY  C111 2331    -0.031787     12.01000 ; qtot -0.028
  2332   hL    60    MY  H11R 2332     0.012677      1.00800 ; qtot -0.015
  2333   hL    60    MY  H11S 2333     0.012677      1.00800 ; qtot -0.003
  2334   cD    60    MY  C110 2334    -0.021025     12.01000 ; qtot -0.024
  2335   hL    60    MY  H10R 2335     0.010037      1.00800 ; qtot -0.014
  2336   hL    60    MY  H10S 2336     0.010037      1.00800 ; qtot -0.004
  2337   cD    60    MY   C19 2337    -0.014653     12.01000 ; qtot -0.018
  2338   hL    60    MY   H9R 2338     0.010172      1.00800 ; qtot -0.008
  2339   hL    60    MY   H9S 2339     0.010172      1.00800 ; qtot 0.002
  2340   cD    60    MY   C18 2340    -0.026451     12.01000 ; qtot -0.024
  2341   hL    60    MY   H8R 2341     0.011241      1.00800 ; qtot -0.013
  2342   hL    60    MY   H8S 2342     0.011241      1.00800 ; qtot -0.002
  2343   cD    60    MY   C17 2343    -0.004386     12.01000 ; qtot -0.006
  2344   hL    60    MY   H7R 2344     0.006833      1.00800 ; qtot 0.000
  2345   hL    60    MY   H7S 2345     0.006833      1.00800 ; qtot 0.007
  2346   cD    60    MY   C16 2346    -0.027812     12.01000 ; qtot -0.021
  2347   hL    60    MY   H6R 2347     0.011511      1.00800 ; qtot -0.009
  2348   hL    60    MY   H6S 2348     0.011511      1.00800 ; qtot 0.002
  2349   cD    60    MY   C15 2349    -0.016521     12.01000 ; qtot -0.014
  2350   hL    60    MY   H5R 2350     0.010573      1.00800 ; qtot -0.003
  2351   hL    60    MY   H5S 2351     0.010573      1.00800 ; qtot 0.007
  2352   cD    60    MY   C14 2352    -0.026954     12.01000 ; qtot -0.020
  2353   hL    60    MY   H4R 2353     0.020431      1.00800 ; qtot 0.001
  2354   hL    60    MY   H4S 2354     0.020431      1.00800 ; qtot 0.021
  2355   cD    60    MY   C13 2355    -0.002435     12.01000 ; qtot 0.019
  2356   hL    60    MY   H3R 2356     0.018859      1.00800 ; qtot 0.037
  2357   hL    60    MY   H3S 2357     0.018859      1.00800 ; qtot 0.056
  2358   cD    60    MY   C12 2358    -0.164200     12.01000 ; qtot -0.108
  2359   hL    60    MY   H2R 2359     0.053944      1.00800 ; qtot -0.054
  2360   hL    60    MY   H2S 2360     0.053944      1.00800 ; qtot -0.000
  2361   hL    61    MY  H14T 2361     0.025511      1.00800 ; qtot 0.026
  2362   cD    61    MY  C114 2362    -0.111712     12.01000 ; qtot -0.086
  2363   hL    61    MY  H14R 2363     0.025511      1.00800 ; qtot -0.061
  2364   hL    61    MY  H14S 2364     0.025511      1.00800 ; qtot -0.035
  2365   cD    61    MY  C113 2365     0.017463     12.01000 ; qtot -0.018
  2366   hL    61    MY  H13R 2366     0.007531      1.00800 ; qtot -0.010
  2367   hL    61    MY  H13S 2367     0.007531      1.00800 ; qtot -0.003
  2368   cD    61    MY  C112 2368    -0.028094     12.01000 ; qtot -0.031
  2369   hL    61    MY  H12R 2369     0.017208      1.00800 ; qtot -0.014
  2370   hL    61    MY  H12S 2370     0.017208      1.00800 ; qtot 0.004
  2371   cD    61    MY  C111 2371    -0.031787     12.01000 ; qtot -0.028
  2372   hL    61    MY  H11R 2372     0.012677      1.00800 ; qtot -0.015
  2373   hL    61    MY  H11S 2373     0.012677      1.00800 ; qtot -0.003
  2374   cD    61    MY  C110 2374    -0.021025     12.01000 ; qtot -0.024
  2375   hL    61    MY  H10R 2375     0.010037      1.00800 ; qtot -0.014
  2376   hL    61    MY  H10S 2376     0.010037      1.00800 ; qtot -0.004
  2377   cD    61    MY   C19 2377    -0.014653     12.01000 ; qtot -0.018
  2378   hL    61    MY   H9R 2378     0.010172      1.00800 ; qtot -0.008
  2379   hL    61    MY   H9S 2379     0.010172      1.00800 ; qtot 0.002
  2380   cD    61    MY   C18 2380    -0.026451     12.01000 ; qtot -0.024
  2381   hL    61    MY   H8R 2381     0.011241      1.00800 ; qtot -0.013
  2382   hL    61    MY   H8S 2382     0.011241      1.00800 ; qtot -0.002
  2383   cD    61    MY   C17 2383    -0.004386     12.01000 ; qtot -0.006
  2384   hL    61    MY   H7R 2384     0.006833      1.00800 ; qtot 0.000
  2385   hL    61    MY   H7S 2385     0.006833      1.00800 ; qtot 0.007
  2386   cD    61    MY   C16 2386    -0.027812     12.01000 ; qtot -0.021
  2387   hL    61    MY   H6R 2387     0.011511      1.00800 ; qtot -0.009
  2388   hL    61    MY   H6S 2388     0.011511      1.00800 ; qtot 0.002
  2389   cD    61    MY   C15 2389    -0.016521     12.01000 ; qtot -0.014
  2390   hL    61    MY   H5R 2390     0.010573      1.00800 ; qtot -0.003
  2391   hL    61    MY   H5S 2391     0.010573      1.00800 ; qtot 0.007
  2392   cD    61    MY   C14 2392    -0.026954     12.01000 ; qtot -0.020
  2393   hL    61    MY   H4R 2393     0.020431      1.00800 ; qtot 0.001
  2394   hL    61    MY   H4S 2394     0.020431      1.00800 ; qtot 0.021
  2395   cD    61    MY   C13 2395    -0.002435     12.01000 ; qtot 0.019
  2396   hL    61    MY   H3R 2396     0.018859      1.00800 ; qtot 0.037
  2397   hL    61    MY   H3S 2397     0.018859      1.00800 ; qtot 0.056
  2398   cD    61    MY   C12 2398    -0.164200     12.01000 ; qtot -0.108
  2399   hL    61    MY   H2R 2399     0.053944      1.00800 ; qtot -0.054
  2400   hL    61    MY   H2S 2400     0.053944      1.00800 ; qtot -0.000
  2401   cC    62    PC   C11 2401     0.910403     12.01000 ; qtot 0.910
  2402   oC    62    PC   O12 2402    -0.671566     16.00000 ; qtot 0.239
  2403   oS    62    PC   O11 2403    -0.575489     16.00000 ; qtot -0.337
  2404   cA    62    PC    C1 2404     0.196939     12.01000 ; qtot -0.140
  2405   hE    62    PC    HR 2405     0.070469      1.00800 ; qtot -0.069
  2406   hE    62    PC    HS 2406     0.070469      1.00800 ; qtot 0.001
  2407   cA    62    PC    C2 2407     0.281242     12.01000 ; qtot 0.282
  2408   hE    62    PC    HX 2408     0.063253      1.00800 ; qtot 0.346
  2409   cA    62    PC    C3 2409     0.017459     12.01000 ; qtot 0.363
  2410   hE    62    PC    HA 2410     0.095591      1.00800 ; qtot 0.459
  2411   hE    62    PC    HB 2411     0.095591      1.00800 ; qtot 0.554
  2412   oT    62    PC   O31 2412    -0.509480     16.00000 ; qtot 0.045
  2413   pA    62    PC   P31 2413     1.339721     30.97000 ; qtot 1.385
  2414   oT    62    PC   O32 2414    -0.508176     16.00000 ; qtot 0.876
  2415   cA    62    PC   C31 2415     0.166801     12.01000 ; qtot 1.043
  2416   hE    62    PC   H1A 2416     0.078534      1.00800 ; qtot 1.122
  2417   hE    62    PC   H1B 2417     0.078534      1.00800 ; qtot 1.200
  2418   cA    62    PC   C32 2418    -0.170824     12.01000 ; qtot 1.029
  2419   hX    62    PC   H2A 2419     0.136415      1.00800 ; qtot 1.166
  2420   hX    62    PC   H2B 2420     0.136415      1.00800 ; qtot 1.302
  2421   nA    62    PC   N31 2421     0.245262     14.01000 ; qtot 1.548
  2422   cA    62    PC   C33 2422    -0.338973     12.01000 ; qtot 1.209
  2423   hX    62    PC   H3A 2423     0.172230      1.00800 ; qtot 1.381
  2424   hX    62    PC   H3B 2424     0.172230      1.00800 ; qtot 1.553
  2425   hX    62    PC   H3C 2425     0.172230      1.00800 ; qtot 1.725
  2426   cA    62    PC   C34 2426    -0.338973     12.01000 ; qtot 1.386
  2427   hX    62    PC   H4A 2427     0.172230      1.00800 ; qtot 1.559
  2428   hX    62    PC   H4B 2428     0.172230      1.00800 ; qtot 1.731
  2429   hX    62    PC   H4C 2429     0.172230      1.00800 ; qtot 1.903
  2430   cA    62    PC   C35 2430    -0.338973     12.01000 ; qtot 1.564
  2431   hX    62    PC   H5A 2431     0.172230      1.00800 ; qtot 1.736
  2432   hX    62    PC   H5B 2432     0.172230      1.00800 ; qtot 1.908
  2433   hX    62    PC   H5C 2433     0.172230      1.00800 ; qtot 2.081
  2434   oP    62    PC   O33 2434    -0.875812     16.00000 ; qtot 1.205
  2435   oP    62    PC   O34 2435    -0.875812     16.00000 ; qtot 0.329
  2436   oS    62    PC   O21 2436    -0.552948     16.00000 ; qtot -0.224
  2437   cC    62    PC   C21 2437     0.897613     12.01000 ; qtot 0.674
  2438   oC    62    PC   O22 2438    -0.673755     16.00000 ; qtot 0.000
  2439   hL    63    MY  H14T 2439     0.025511      1.00800 ; qtot 0.026
  2440   cD    63    MY  C114 2440    -0.111712     12.01000 ; qtot -0.086
  2441   hL    63    MY  H14R 2441     0.025511      1.00800 ; qtot -0.061
  2442   hL    63    MY  H14S 2442     0.025511      1.00800 ; qtot -0.035
  2443   cD    63    MY  C113 2443     0.017463     12.01000 ; qtot -0.018
  2444   hL    63    MY  H13R 2444     0.007531      1.00800 ; qtot -0.010
  2445   hL    63    MY  H13S 2445     0.007531      1.00800 ; qtot -0.003
  2446   cD    63    MY  C112 2446    -0.028094     12.01000 ; qtot -0.031
  2447   hL    63    MY  H12R 2447     0.017208      1.00800 ; qtot -0.014
  2448   hL    63    MY  H12S 2448     0.017208      1.00800 ; qtot 0.004
  2449   cD    63    MY  C111 2449    -0.031787     12.01000 ; qtot -0.028
  2450   hL    63    MY  H11R 2450     0.012677      1.00800 ; qtot -0.015
  2451   hL    63    MY  H11S 2451     0.012677      1.00800 ; qtot -0.003
  2452   cD    63    MY  C110 2452    -0.021025     12.01000 ; qtot -0.024
  2453   hL    63    MY  H10R 2453     0.010037      1.00800 ; qtot -0.014
  2454   hL    63    MY  H10S 2454     0.010037      1.00800 ; qtot -0.004
  2455   cD    63    MY   C19 2455    -0.014653     12.01000 ; qtot -0.018
  2456   hL    63    MY   H9R 2456     0.010172      1.00800 ; qtot -0.008
  2457   hL    63    MY   H9S 2457     0.010172      1.00800 ; qtot 0.002
  2458   cD    63    MY   C18 2458    -0.026451     12.01000 ; qtot -0.024
  2459   hL    63    MY   H8R 2459     0.011241      1.00800 ; qtot -0.013
  2460   hL    63    MY   H8S 2460     0.011241      1.00800 ; qtot -0.002
  2461   cD    63    MY   C17 2461    -0.004386     12.01000 ; qtot -0.006
  2462   hL    63    MY   H7R 2462     0.006833      1.00800 ; qtot 0.000
  2463   hL    63    MY   H7S 2463     0.006833      1.00800 ; qtot 0.007
  2464   cD    63    MY   C16 2464    -0.027812     12.01000 ; qtot -0.021
  2465   hL    63    MY   H6R 2465     0.011511      1.00800 ; qtot -0.009
  2466   hL    63    MY   H6S 2466     0.011511      1.00800 ; qtot 0.002
  2467   cD    63    MY   C15 2467    -0.016521     12.01000 ; qtot -0.014
  2468   hL    63    MY   H5R 2468     0.010573      1.00800 ; qtot -0.003
  2469   hL    63    MY   H5S 2469     0.010573      1.00800 ; qtot 0.007
  2470   cD    63    MY   C14 2470    -0.026954     12.01000 ; qtot -0.020
  2471   hL    63    MY   H4R 2471     0.020431      1.00800 ; qtot 0.001
  2472   hL    63    MY   H4S 2472     0.020431      1.00800 ; qtot 0.021
  2473   cD    63    MY   C13 2473    -0.002435     12.01000 ; qtot 0.019
  2474   hL    63    MY   H3R 2474     0.018859      1.00800 ; qtot 0.037
  2475   hL    63    MY   H3S 2475     0.018859      1.00800 ; qtot 0.056
  2476   cD    63    MY   C12 2476    -0.164200     12.01000 ; qtot -0.108
  2477   hL    63    MY   H2R 2477     0.053944      1.00800 ; qtot -0.054
  2478   hL    63    MY   H2S 2478     0.053944      1.00800 ; qtot -0.000
  2479   hL    64    MY  H14T 2479     0.025511      1.00800 ; qtot 0.026
  2480   cD    64    MY  C114 2480    -0.111712     12.01000 ; qtot -0.086
  2481   hL    64    MY  H14R 2481     0.025511      1.00800 ; qtot -0.061
  2482   hL    64    MY  H14S 2482     0.025511      1.00800 ; qtot -0.035
  2483   cD    64    MY  C113 2483     0.017463     12.01000 ; qtot -0.018
  2484   hL    64    MY  H13R 2484     0.007531      1.00800 ; qtot -0.010
  2485   hL    64    MY  H13S 2485     0.007531      1.00800 ; qtot -0.003
  2486   cD    64    MY  C112 2486    -0.028094     12.01000 ; qtot -0.031
  2487   hL    64    MY  H12R 2487     0.017208      1.00800 ; qtot -0.014
  2488   hL    64    MY  H12S 2488     0.017208      1.00800 ; qtot 0.004
  2489   cD    64    MY  C111 2489    -0.031787     12.01000 ; qtot -0.028
  2490   hL    64    MY  H11R 2490     0.012677      1.00800 ; qtot -0.015
  2491   hL    64    MY  H11S 2491     0.012677      1.00800 ; qtot -0.003
  2492   cD    64    MY  C110 2492    -0.021025     12.01000 ; qtot -0.024
  2493   hL    64    MY  H10R 2493     0.010037      1.00800 ; qtot -0.014
  2494   hL    64    MY  H10S 2494     0.010037      1.00800 ; qtot -0.004
  2495   cD    64    MY   C19 2495    -0.014653     12.01000 ; qtot -0.018
  2496   hL    64    MY   H9R 2496     0.010172      1.00800 ; qtot -0.008
  2497   hL    64    MY   H9S 2497     0.010172      1.00800 ; qtot 0.002
  2498   cD    64    MY   C18 2498    -0.026451     12.01000 ; qtot -0.024
  2499   hL    64    MY   H8R 2499     0.011241      1.00800 ; qtot -0.013
  2500   hL    64    MY   H8S 2500     0.011241      1.00800 ; qtot -0.002
  2501   cD    64    MY   C17 2501    -0.004386     12.01000 ; qtot -0.006
  2502   hL    64    MY   H7R 2502     0.006833      1.00800 ; qtot 0.000
  2503   hL    64    MY   H7S 2503     0.006833      1.00800 ; qtot 0.007
  2504   cD    64    MY   C16 2504    -0.027812     12.01000 ; qtot -0.021
  2505   hL    64    MY   H6R 2505     0.011511      1.00800 ; qtot -0.009
  2506   hL    64    MY   H6S 2506     0.011511      1.00800 ; qtot 0.002
  2507   cD    64    MY   C15 2507    -0.016521     12.01000 ; qtot -0.014
  2508   hL    64    MY   H5R 2508     0.010573      1.00800 ; qtot -0.003
  2509   hL    64    MY   H5S 2509     0.010573      1.00800 ; qtot 0.007
  2510   cD    64    MY   C14 2510    -0.026954     12.01000 ; qtot -0.020
  2511   hL    64    MY   H4R 2511     0.020431      1.00800 ; qtot 0.001
  2512   hL    64    MY   H4S 2512     0.020431      1.00800 ; qtot 0.021
  2513   cD    64    MY   C13 2513    -0.002435     12.01000 ; qtot 0.019
  2514   hL    64    MY   H3R 2514     0.018859      1.00800 ; qtot 0.037
  2515   hL    64    MY   H3S 2515     0.018859      1.00800 ; qtot 0.056
  2516   cD    64    MY   C12 2516    -0.164200     12.01000 ; qtot -0.108
  2517   hL    64    MY   H2R 2517     0.053944      1.00800 ; qtot -0.054
  2518   hL    64    MY   H2S 2518     0.053944      1.00800 ; qtot -0.000
  2519   cC    65    PC   C11 2519     0.910403     12.01000 ; qtot 0.910
  2520   oC    65    PC   O12 2520    -0.671566     16.00000 ; qtot 0.239
  2521   oS    65    PC   O11 2521    -0.575489     16.00000 ; qtot -0.337
  2522   cA    65    PC    C1 2522     0.196939     12.01000 ; qtot -0.140
  2523   hE    65    PC    HR 2523     0.070469      1.00800 ; qtot -0.069
  2524   hE    65    PC    HS 2524     0.070469      1.00800 ; qtot 0.001
  2525   cA    65    PC    C2 2525     0.281242     12.01000 ; qtot 0.282
  2526   hE    65    PC    HX 2526     0.063253      1.00800 ; qtot 0.346
  2527   cA    65    PC    C3 2527     0.017459     12.01000 ; qtot 0.363
  2528   hE    65    PC    HA 2528     0.095591      1.00800 ; qtot 0.459
  2529   hE    65    PC    HB 2529     0.095591      1.00800 ; qtot 0.554
  2530   oT    65    PC   O31 2530    -0.509480     16.00000 ; qtot 0.045
  2531   pA    65    PC   P31 2531     1.339721     30.97000 ; qtot 1.385
  2532   oT    65    PC   O32 2532    -0.508176     16.00000 ; qtot 0.876
  2533   cA    65    PC   C31 2533     0.166801     12.01000 ; qtot 1.043
  2534   hE    65    PC   H1A 2534     0.078534      1.00800 ; qtot 1.122
  2535   hE    65    PC   H1B 2535     0.078534      1.00800 ; qtot 1.200
  2536   cA    65    PC   C32 2536    -0.170824     12.01000 ; qtot 1.029
  2537   hX    65    PC   H2A 2537     0.136415      1.00800 ; qtot 1.166
  2538   hX    65    PC   H2B 2538     0.136415      1.00800 ; qtot 1.302
  2539   nA    65    PC   N31 2539     0.245262     14.01000 ; qtot 1.548
  2540   cA    65    PC   C33 2540    -0.338973     12.01000 ; qtot 1.209
  2541   hX    65    PC   H3A 2541     0.172230      1.00800 ; qtot 1.381
  2542   hX    65    PC   H3B 2542     0.172230      1.00800 ; qtot 1.553
  2543   hX    65    PC   H3C 2543     0.172230      1.00800 ; qtot 1.725
  2544   cA    65    PC   C34 2544    -0.338973     12.01000 ; qtot 1.386
  2545   hX    65    PC   H4A 2545     0.172230      1.00800 ; qtot 1.559
  2546   hX    65    PC   H4B 2546     0.172230      1.00800 ; qtot 1.731
  2547   hX    65    PC   H4C 2547     0.172230      1.00800 ; qtot 1.903
  2548   cA    65    PC   C35 2548    -0.338973     12.01000 ; qtot 1.564
  2549   hX    65    PC   H5A 2549     0.172230      1.00800 ; qtot 1.736
  2550   hX    65    PC   H5B 2550     0.172230      1.00800 ; qtot 1.908
  2551   hX    65    PC   H5C 2551     0.172230      1.00800 ; qtot 2.081
  2552   oP    65    PC   O33 2552    -0.875812     16.00000 ; qtot 1.205
  2553   oP    65    PC   O34 2553    -0.875812     16.00000 ; qtot 0.329
  2554   oS    65    PC   O21 2554    -0.552948     16.00000 ; qtot -0.224
  2555   cC    65    PC   C21 2555     0.897613     12.01000 ; qtot 0.674
  2556   oC    65    PC   O22 2556    -0.673755     16.00000 ; qtot 0.000
  2557   hL    66    MY  H14T 2557     0.025511      1.00800 ; qtot 0.026
  2558   cD    66    MY  C114 2558    -0.111712     12.01000 ; qtot -0.086
  2559   hL    66    MY  H14R 2559     0.025511      1.00800 ; qtot -0.061
  2560   hL    66    MY  H14S 2560     0.025511      1.00800 ; qtot -0.035
  2561   cD    66    MY  C113 2561     0.017463     12.01000 ; qtot -0.018
  2562   hL    66    MY  H13R 2562     0.007531      1.00800 ; qtot -0.010
  2563   hL    66    MY  H13S 2563     0.007531      1.00800 ; qtot -0.003
  2564   cD    66    MY  C112 2564    -0.028094     12.01000 ; qtot -0.031
  2565   hL    66    MY  H12R 2565     0.017208      1.00800 ; qtot -0.014
  2566   hL    66    MY  H12S 2566     0.017208      1.00800 ; qtot 0.004
  2567   cD    66    MY  C111 2567    -0.031787     12.01000 ; qtot -0.028
  2568   hL    66    MY  H11R 2568     0.012677      1.00800 ; qtot -0.015
  2569   hL    66    MY  H11S 2569     0.012677      1.00800 ; qtot -0.003
  2570   cD    66    MY  C110 2570    -0.021025     12.01000 ; qtot -0.024
  2571   hL    66    MY  H10R 2571     0.010037      1.00800 ; qtot -0.014
  2572   hL    66    MY  H10S 2572     0.010037      1.00800 ; qtot -0.004
  2573   cD    66    MY   C19 2573    -0.014653     12.01000 ; qtot -0.018
  2574   hL    66    MY   H9R 2574     0.010172      1.00800 ; qtot -0.008
  2575   hL    66    MY   H9S 2575     0.010172      1.00800 ; qtot 0.002
  2576   cD    66    MY   C18 2576    -0.026451     12.01000 ; qtot -0.024
  2577   hL    66    MY   H8R 2577     0.011241      1.00800 ; qtot -0.013
  2578   hL    66    MY   H8S 2578     0.011241      1.00800 ; qtot -0.002
  2579   cD    66    MY   C17 2579    -0.004386     12.01000 ; qtot -0.006
  2580   hL    66    MY   H7R 2580     0.006833      1.00800 ; qtot 0.000
  2581   hL    66    MY   H7S 2581     0.006833      1.00800 ; qtot 0.007
  2582   cD    66    MY   C16 2582    -0.027812     12.01000 ; qtot -0.021
  2583   hL    66    MY   H6R 2583     0.011511      1.00800 ; qtot -0.009
  2584   hL    66    MY   H6S 2584     0.011511      1.00800 ; qtot 0.002
  2585   cD    66    MY   C15 2585    -0.016521     12.01000 ; qtot -0.014
  2586   hL    66    MY   H5R 2586     0.010573      1.00800 ; qtot -0.003
  2587   hL    66    MY   H5S 2587     0.010573      1.00800 ; qtot 0.007
  2588   cD    66    MY   C14 2588    -0.026954     12.01000 ; qtot -0.020
  2589   hL    66    MY   H4R 2589     0.020431      1.00800 ; qtot 0.001
  2590   hL    66    MY   H4S 2590     0.020431      1.00800 ; qtot 0.021
  2591   cD    66    MY   C13 2591    -0.002435     12.01000 ; qtot 0.019
  2592   hL    66    MY   H3R 2592     0.018859      1.00800 ; qtot 0.037
  2593   hL    66    MY   H3S 2593     0.018859      1.00800 ; qtot 0.056
  2594   cD    66    MY   C12 2594    -0.164200     12.01000 ; qtot -0.108
  2595   hL    66    MY   H2R 2595     0.053944      1.00800 ; qtot -0.054
  2596   hL    66    MY   H2S 2596     0.053944      1.00800 ; qtot -0.000
  2597   hL    67    MY  H14T 2597     0.025511      1.00800 ; qtot 0.026
  2598   cD    67    MY  C114 2598    -0.111712     12.01000 ; qtot -0.086
  2599   hL    67    MY  H14R 2599     0.025511      1.00800 ; qtot -0.061
  2600   hL    67    MY  H14S 2600     0.025511      1.00800 ; qtot -0.035
  2601   cD    67    MY  C113 2601     0.017463     12.01000 ; qtot -0.018
  2602   hL    67    MY  H13R 2602     0.007531      1.00800 ; qtot -0.010
  2603   hL    67    MY  H13S 2603     0.007531      1.00800 ; qtot -0.003
  2604   cD    67    MY  C112 2604    -0.028094     12.01000 ; qtot -0.031
  2605   hL    67    MY  H12R 2605     0.017208      1.00800 ; qtot -0.014
  2606   hL    67    MY  H12S 2606     0.017208      1.00800 ; qtot 0.004
  2607   cD    67    MY  C111 2607    -0.031787     12.01000 ; qtot -0.028
  2608   hL    67    MY  H11R 2608     0.012677      1.00800 ; qtot -0.015
  2609   hL    67    MY  H11S 2609     0.012677      1.00800 ; qtot -0.003
  2610   cD    67    MY  C110 2610    -0.021025     12.01000 ; qtot -0.024
  2611   hL    67    MY  H10R 2611     0.010037      1.00800 ; qtot -0.014
  2612   hL    67    MY  H10S 2612     0.010037      1.00800 ; qtot -0.004
  2613   cD    67    MY   C19 2613    -0.014653     12.01000 ; qtot -0.018
  2614   hL    67    MY   H9R 2614     0.010172      1.00800 ; qtot -0.008
  2615   hL    67    MY   H9S 2615     0.010172      1.00800 ; qtot 0.002
  2616   cD    67    MY   C18 2616    -0.026451     12.01000 ; qtot -0.024
  2617   hL    67    MY   H8R 2617     0.011241      1.00800 ; qtot -0.013
  2618   hL    67    MY   H8S 2618     0.011241      1.00800 ; qtot -0.002
  2619   cD    67    MY   C17 2619    -0.004386     12.01000 ; qtot -0.006
  2620   hL    67    MY   H7R 2620     0.006833      1.00800 ; qtot 0.000
  2621   hL    67    MY   H7S 2621     0.006833      1.00800 ; qtot 0.007
  2622   cD    67    MY   C16 2622    -0.027812     12.01000 ; qtot -0.021
  2623   hL    67    MY   H6R 2623     0.011511      1.00800 ; qtot -0.009
  2624   hL    67    MY   H6S 2624     0.011511      1.00800 ; qtot 0.002
  2625   cD    67    MY   C15 2625    -0.016521     12.01000 ; qtot -0.014
  2626   hL    67    MY   H5R 2626     0.010573      1.00800 ; qtot -0.003
  2627   hL    67    MY   H5S 2627     0.010573      1.00800 ; qtot 0.007
  2628   cD    67    MY   C14 2628    -0.026954     12.01000 ; qtot -0.020
  2629   hL    67    MY   H4R 2629     0.020431      1.00800 ; qtot 0.001
  2630   hL    67    MY   H4S 2630     0.020431      1.00800 ; qtot 0.021
  2631   cD    67    MY   C13 2631    -0.002435     12.01000 ; qtot 0.019
  2632   hL    67    MY   H3R 2632     0.018859      1.00800 ; qtot 0.037
  2633   hL    67    MY   H3S 2633     0.018859      1.00800 ; qtot 0.056
  2634   cD    67    MY   C12 2634    -0.164200     12.01000 ; qtot -0.108
  2635   hL    67    MY   H2R 2635     0.053944      1.00800 ; qtot -0.054
  2636   hL    67    MY   H2S 2636     0.053944      1.00800 ; qtot -0.000
  2637   cC    68    PC   C11 2637     0.910403     12.01000 ; qtot 0.910
  2638   oC    68    PC   O12 2638    -0.671566     16.00000 ; qtot 0.239
  2639   oS    68    PC   O11 2639    -0.575489     16.00000 ; qtot -0.337
  2640   cA    68    PC    C1 2640     0.196939     12.01000 ; qtot -0.140
  2641   hE    68    PC    HR 2641     0.070469      1.00800 ; qtot -0.069
  2642   hE    68    PC    HS 2642     0.070469      1.00800 ; qtot 0.001
  2643   cA    68    PC    C2 2643     0.281242     12.01000 ; qtot 0.282
  2644   hE    68    PC    HX 2644     0.063253      1.00800 ; qtot 0.346
  2645   cA    68    PC    C3 2645     0.017459     12.01000 ; qtot 0.363
  2646   hE    68    PC    HA 2646     0.095591      1.00800 ; qtot 0.459
  2647   hE    68    PC    HB 2647     0.095591      1.00800 ; qtot 0.554
  2648   oT    68    PC   O31 2648    -0.509480     16.00000 ; qtot 0.045
  2649   pA    68    PC   P31 2649     1.339721     30.97000 ; qtot 1.385
  2650   oT    68    PC   O32 2650    -0.508176     16.00000 ; qtot 0.876
  2651   cA    68    PC   C31 2651     0.166801     12.01000 ; qtot 1.043
  2652   hE    68    PC   H1A 2652     0.078534      1.00800 ; qtot 1.122
  2653   hE    68    PC   H1B 2653     0.078534      1.00800 ; qtot 1.200
  2654   cA    68    PC   C32 2654    -0.170824     12.01000 ; qtot 1.029
  2655   hX    68    PC   H2A 2655     0.136415      1.00800 ; qtot 1.166
  2656   hX    68    PC   H2B 2656     0.136415      1.00800 ; qtot 1.302
  2657   nA    68    PC   N31 2657     0.245262     14.01000 ; qtot 1.548
  2658   cA    68    PC   C33 2658    -0.338973     12.01000 ; qtot 1.209
  2659   hX    68    PC   H3A 2659     0.172230      1.00800 ; qtot 1.381
  2660   hX    68    PC   H3B 2660     0.172230      1.00800 ; qtot 1.553
  2661   hX    68    PC   H3C 2661     0.172230      1.00800 ; qtot 1.725
  2662   cA    68    PC   C34 2662    -0.338973     12.01000 ; qtot 1.386
  2663   hX    68    PC   H4A 2663     0.172230      1.00800 ; qtot 1.559
  2664   hX    68    PC   H4B 2664     0.172230      1.00800 ; qtot 1.731
  2665   hX    68    PC   H4C 2665     0.172230      1.00800 ; qtot 1.903
  2666   cA    68    PC   C35 2666    -0.338973     12.01000 ; qtot 1.564
  2667   hX    68    PC   H5A 2667     0.172230      1.00800 ; qtot 1.736
  2668   hX    68    PC   H5B 2668     0.172230      1.00800 ; qtot 1.908
  2669   hX    68    PC   H5C 2669     0.172230      1.00800 ; qtot 2.081
  2670   oP    68    PC   O33 2670    -0.875812     16.00000 ; qtot 1.205
  2671   oP    68    PC   O34 2671    -0.875812     16.00000 ; qtot 0.329
  2672   oS    68    PC   O21 2672    -0.552948     16.00000 ; qtot -0.224
  2673   cC    68    PC   C21 2673     0.897613     12.01000 ; qtot 0.674
  2674   oC    68    PC   O22 2674    -0.673755     16.00000 ; qtot 0.000
  2675   hL    69    MY  H14T 2675     0.025511      1.00800 ; qtot 0.026
  2676   cD    69    MY  C114 2676    -0.111712     12.01000 ; qtot -0.086
  2677   hL    69    MY  H14R 2677     0.025511      1.00800 ; qtot -0.061
  2678   hL    69    MY  H14S 2678     0.025511      1.00800 ; qtot -0.035
  2679   cD    69    MY  C113 2679     0.017463     12.01000 ; qtot -0.018
  2680   hL    69    MY  H13R 2680     0.007531      1.00800 ; qtot -0.010
  2681   hL    69    MY  H13S 2681     0.007531      1.00800 ; qtot -0.003
  2682   cD    69    MY  C112 2682    -0.028094     12.01000 ; qtot -0.031
  2683   hL    69    MY  H12R 2683     0.017208      1.00800 ; qtot -0.014
  2684   hL    69    MY  H12S 2684     0.017208      1.00800 ; qtot 0.004
  2685   cD    69    MY  C111 2685    -0.031787     12.01000 ; qtot -0.028
  2686   hL    69    MY  H11R 2686     0.012677      1.00800 ; qtot -0.015
  2687   hL    69    MY  H11S 2687     0.012677      1.00800 ; qtot -0.003
  2688   cD    69    MY  C110 2688    -0.021025     12.01000 ; qtot -0.024
  2689   hL    69    MY  H10R 2689     0.010037      1.00800 ; qtot -0.014
  2690   hL    69    MY  H10S 2690     0.010037      1.00800 ; qtot -0.004
  2691   cD    69    MY   C19 2691    -0.014653     12.01000 ; qtot -0.018
  2692   hL    69    MY   H9R 2692     0.010172      1.00800 ; qtot -0.008
  2693   hL    69    MY   H9S 2693     0.010172      1.00800 ; qtot 0.002
  2694   cD    69    MY   C18 2694    -0.026451     12.01000 ; qtot -0.024
  2695   hL    69    MY   H8R 2695     0.011241      1.00800 ; qtot -0.013
  2696   hL    69    MY   H8S 2696     0.011241      1.00800 ; qtot -0.002
  2697   cD    69    MY   C17 2697    -0.004386     12.01000 ; qtot -0.006
  2698   hL    69    MY   H7R 2698     0.006833      1.00800 ; qtot 0.000
  2699   hL    69    MY   H7S 2699     0.006833      1.00800 ; qtot 0.007
  2700   cD    69    MY   C16 2700    -0.027812     12.01000 ; qtot -0.021
  2701   hL    69    MY   H6R 2701     0.011511      1.00800 ; qtot -0.009
  2702   hL    69    MY   H6S 2702     0.011511      1.00800 ; qtot 0.002
  2703   cD    69    MY   C15 2703    -0.016521     12.01000 ; qtot -0.014
  2704   hL    69    MY   H5R 2704     0.010573      1.00800 ; qtot -0.003
  2705   hL    69    MY   H5S 2705     0.010573      1.00800 ; qtot 0.007
  2706   cD    69    MY   C14 2706    -0.026954     12.01000 ; qtot -0.020
  2707   hL    69    MY   H4R 2707     0.020431      1.00800 ; qtot 0.001
  2708   hL    69    MY   H4S 2708     0.020431      1.00800 ; qtot 0.021
  2709   cD    69    MY   C13 2709    -0.002435     12.01000 ; qtot 0.019
  2710   hL    69    MY   H3R 2710     0.018859      1.00800 ; qtot 0.037
  2711   hL    69    MY   H3S 2711     0.018859      1.00800 ; qtot 0.056
  2712   cD    69    MY   C12 2712    -0.164200     12.01000 ; qtot -0.108
  2713   hL    69    MY   H2R 2713     0.053944      1.00800 ; qtot -0.054
  2714   hL    69    MY   H2S 2714     0.053944      1.00800 ; qtot -0.000
  2715   hL    70    MY  H14T 2715     0.025511      1.00800 ; qtot 0.026
  2716   cD    70    MY  C114 2716    -0.111712     12.01000 ; qtot -0.086
  2717   hL    70    MY  H14R 2717     0.025511      1.00800 ; qtot -0.061
  2718   hL    70    MY  H14S 2718     0.025511      1.00800 ; qtot -0.035
  2719   cD    70    MY  C113 2719     0.017463     12.01000 ; qtot -0.018
  2720   hL    70    MY  H13R 2720     0.007531      1.00800 ; qtot -0.010
  2721   hL    70    MY  H13S 2721     0.007531      1.00800 ; qtot -0.003
  2722   cD    70    MY  C112 2722    -0.028094     12.01000 ; qtot -0.031
  2723   hL    70    MY  H12R 2723     0.017208      1.00800 ; qtot -0.014
  2724   hL    70    MY  H12S 2724     0.017208      1.00800 ; qtot 0.004
  2725   cD    70    MY  C111 2725    -0.031787     12.01000 ; qtot -0.028
  2726   hL    70    MY  H11R 2726     0.012677      1.00800 ; qtot -0.015
  2727   hL    70    MY  H11S 2727     0.012677      1.00800 ; qtot -0.003
  2728   cD    70    MY  C110 2728    -0.021025     12.01000 ; qtot -0.024
  2729   hL    70    MY  H10R 2729     0.010037      1.00800 ; qtot -0.014
  2730   hL    70    MY  H10S 2730     0.010037      1.00800 ; qtot -0.004
  2731   cD    70    MY   C19 2731    -0.014653     12.01000 ; qtot -0.018
  2732   hL    70    MY   H9R 2732     0.010172      1.00800 ; qtot -0.008
  2733   hL    70    MY   H9S 2733     0.010172      1.00800 ; qtot 0.002
  2734   cD    70    MY   C18 2734    -0.026451     12.01000 ; qtot -0.024
  2735   hL    70    MY   H8R 2735     0.011241      1.00800 ; qtot -0.013
  2736   hL    70    MY   H8S 2736     0.011241      1.00800 ; qtot -0.002
  2737   cD    70    MY   C17 2737    -0.004386     12.01000 ; qtot -0.006
  2738   hL    70    MY   H7R 2738     0.006833      1.00800 ; qtot 0.000
  2739   hL    70    MY   H7S 2739     0.006833      1.00800 ; qtot 0.007
  2740   cD    70    MY   C16 2740    -0.027812     12.01000 ; qtot -0.021
  2741   hL    70    MY   H6R 2741     0.011511      1.00800 ; qtot -0.009
  2742   hL    70    MY   H6S 2742     0.011511      1.00800 ; qtot 0.002
  2743   cD    70    MY   C15 2743    -0.016521     12.01000 ; qtot -0.014
  2744   hL    70    MY   H5R 2744     0.010573      1.00800 ; qtot -0.003
  2745   hL    70    MY   H5S 2745     0.010573      1.00800 ; qtot 0.007
  2746   cD    70    MY   C14 2746    -0.026954     12.01000 ; qtot -0.020
  2747   hL    70    MY   H4R 2747     0.020431      1.00800 ; qtot 0.001
  2748   hL    70    MY   H4S 2748     0.020431      1.00800 ; qtot 0.021
  2749   cD    70    MY   C13 2749    -0.002435     12.01000 ; qtot 0.019
  2750   hL    70    MY   H3R 2750     0.018859      1.00800 ; qtot 0.037
  2751   hL    70    MY   H3S 2751     0.018859      1.00800 ; qtot 0.056
  2752   cD    70    MY   C12 2752    -0.164200     12.01000 ; qtot -0.108
  2753   hL    70    MY   H2R 2753     0.053944      1.00800 ; qtot -0.054
  2754   hL    70    MY   H2S 2754     0.053944      1.00800 ; qtot -0.000
  2755   cC    71    PC   C11 2755     0.910403     12.01000 ; qtot 0.910
  2756   oC    71    PC   O12 2756    -0.671566     16.00000 ; qtot 0.239
  2757   oS    71    PC   O11 2757    -0.575489     16.00000 ; qtot -0.337
  2758   cA    71    PC    C1 2758     0.196939     12.01000 ; qtot -0.140
  2759   hE    71    PC    HR 2759     0.070469      1.00800 ; qtot -0.069
  2760   hE    71    PC    HS 2760     0.070469      1.00800 ; qtot 0.001
  2761   cA    71    PC    C2 2761     0.281242     12.01000 ; qtot 0.282
  2762   hE    71    PC    HX 2762     0.063253      1.00800 ; qtot 0.346
  2763   cA    71    PC    C3 2763     0.017459     12.01000 ; qtot 0.363
  2764   hE    71    PC    HA 2764     0.095591      1.00800 ; qtot 0.459
  2765   hE    71    PC    HB 2765     0.095591      1.00800 ; qtot 0.554
  2766   oT    71    PC   O31 2766    -0.509480     16.00000 ; qtot 0.045
  2767   pA    71    PC   P31 2767     1.339721     30.97000 ; qtot 1.385
  2768   oT    71    PC   O32 2768    -0.508176     16.00000 ; qtot 0.876
  2769   cA    71    PC   C31 2769     0.166801     12.01000 ; qtot 1.043
  2770   hE    71    PC   H1A 2770     0.078534      1.00800 ; qtot 1.122
  2771   hE    71    PC   H1B 2771     0.078534      1.00800 ; qtot 1.200
  2772   cA    71    PC   C32 2772    -0.170824     12.01000 ; qtot 1.029
  2773   hX    71    PC   H2A 2773     0.136415      1.00800 ; qtot 1.166
  2774   hX    71    PC   H2B 2774     0.136415      1.00800 ; qtot 1.302
  2775   nA    71    PC   N31 2775     0.245262     14.01000 ; qtot 1.548
  2776   cA    71    PC   C33 2776    -0.338973     12.01000 ; qtot 1.209
  2777   hX    71    PC   H3A 2777     0.172230      1.00800 ; qtot 1.381
  2778   hX    71    PC   H3B 2778     0.172230      1.00800 ; qtot 1.553
  2779   hX    71    PC   H3C 2779     0.172230      1.00800 ; qtot 1.725
  2780   cA    71    PC   C34 2780    -0.338973     12.01000 ; qtot 1.386
  2781   hX    71    PC   H4A 2781     0.172230      1.00800 ; qtot 1.559
  2782   hX    71    PC   H4B 2782     0.172230      1.00800 ; qtot 1.731
  2783   hX    71    PC   H4C 2783     0.172230      1.00800 ; qtot 1.903
  2784   cA    71    PC   C35 2784    -0.338973     12.01000 ; qtot 1.564
  2785   hX    71    PC   H5A 2785     0.172230      1.00800 ; qtot 1.736
  2786   hX    71    PC   H5B 2786     0.172230      1.00800 ; qtot 1.908
  2787   hX    71    PC   H5C 2787     0.172230      1.00800 ; qtot 2.081
  2788   oP    71    PC   O33 2788    -0.875812     16.00000 ; qtot 1.205
  2789   oP    71    PC   O34 2789    -0.875812     16.00000 ; qtot 0.329
  2790   oS    71    PC   O21 2790    -0.552948     16.00000 ; qtot -0.224
  2791   cC    71    PC   C21 2791     0.897613     12.01000 ; qtot 0.674
  2792   oC    71    PC   O22 2792    -0.673755     16.00000 ; qtot 0.000
  2793   hL    72    MY  H14T 2793     0.025511      1.00800 ; qtot 0.026
  2794   cD    72    MY  C114 2794    -0.111712     12.01000 ; qtot -0.086
  2795   hL    72    MY  H14R 2795     0.025511      1.00800 ; qtot -0.061
  2796   hL    72    MY  H14S 2796     0.025511      1.00800 ; qtot -0.035
  2797   cD    72    MY  C113 2797     0.017463     12.01000 ; qtot -0.018
  2798   hL    72    MY  H13R 2798     0.007531      1.00800 ; qtot -0.010
  2799   hL    72    MY  H13S 2799     0.007531      1.00800 ; qtot -0.003
  2800   cD    72    MY  C112 2800    -0.028094     12.01000 ; qtot -0.031
  2801   hL    72    MY  H12R 2801     0.017208      1.00800 ; qtot -0.014
  2802   hL    72    MY  H12S 2802     0.017208      1.00800 ; qtot 0.004
  2803   cD    72    MY  C111 2803    -0.031787     12.01000 ; qtot -0.028
  2804   hL    72    MY  H11R 2804     0.012677      1.00800 ; qtot -0.015
  2805   hL    72    MY  H11S 2805     0.012677      1.00800 ; qtot -0.003
  2806   cD    72    MY  C110 2806    -0.021025     12.01000 ; qtot -0.024
  2807   hL    72    MY  H10R 2807     0.010037      1.00800 ; qtot -0.014
  2808   hL    72    MY  H10S 2808     0.010037      1.00800 ; qtot -0.004
  2809   cD    72    MY   C19 2809    -0.014653     12.01000 ; qtot -0.018
  2810   hL    72    MY   H9R 2810     0.010172      1.00800 ; qtot -0.008
  2811   hL    72    MY   H9S 2811     0.010172      1.00800 ; qtot 0.002
  2812   cD    72    MY   C18 2812    -0.026451     12.01000 ; qtot -0.024
  2813   hL    72    MY   H8R 2813     0.011241      1.00800 ; qtot -0.013
  2814   hL    72    MY   H8S 2814     0.011241      1.00800 ; qtot -0.002
  2815   cD    72    MY   C17 2815    -0.004386     12.01000 ; qtot -0.006
  2816   hL    72    MY   H7R 2816     0.006833      1.00800 ; qtot 0.000
  2817   hL    72    MY   H7S 2817     0.006833      1.00800 ; qtot 0.007
  2818   cD    72    MY   C16 2818    -0.027812     12.01000 ; qtot -0.021
  2819   hL    72    MY   H6R 2819     0.011511      1.00800 ; qtot -0.009
  2820   hL    72    MY   H6S 2820     0.011511      1.00800 ; qtot 0.002
  2821   cD    72    MY   C15 2821    -0.016521     12.01000 ; qtot -0.014
  2822   hL    72    MY   H5R 2822     0.010573      1.00800 ; qtot -0.003
  2823   hL    72    MY   H5S 2823     0.010573      1.00800 ; qtot 0.007
  2824   cD    72    MY   C14 2824    -0.026954     12.01000 ; qtot -0.020
  2825   hL    72    MY   H4R 2825     0.020431      1.00800 ; qtot 0.001
  2826   hL    72    MY   H4S 2826     0.020431      1.00800 ; qtot 0.021
  2827   cD    72    MY   C13 2827    -0.002435     12.01000 ; qtot 0.019
  2828   hL    72    MY   H3R 2828     0.018859      1.00800 ; qtot 0.037
  2829   hL    72    MY   H3S 2829     0.018859      1.00800 ; qtot 0.056
  2830   cD    72    MY   C12 2830    -0.164200     12.01000 ; qtot -0.108
  2831   hL    72    MY   H2R 2831     0.053944      1.00800 ; qtot -0.054
  2832   hL    72    MY   H2S 2832     0.053944      1.00800 ; qtot -0.000
  2833   hL    73    MY  H14T 2833     0.025511      1.00800 ; qtot 0.026
  2834   cD    73    MY  C114 2834    -0.111712     12.01000 ; qtot -0.086
  2835   hL    73    MY  H14R 2835     0.025511      1.00800 ; qtot -0.061
  2836   hL    73    MY  H14S 2836     0.025511      1.00800 ; qtot -0.035
  2837   cD    73    MY  C113 2837     0.017463     12.01000 ; qtot -0.018
  2838   hL    73    MY  H13R 2838     0.007531      1.00800 ; qtot -0.010
  2839   hL    73    MY  H13S 2839     0.007531      1.00800 ; qtot -0.003
  2840   cD    73    MY  C112 2840    -0.028094     12.01000 ; qtot -0.031
  2841   hL    73    MY  H12R 2841     0.017208      1.00800 ; qtot -0.014
  2842   hL    73    MY  H12S 2842     0.017208      1.00800 ; qtot 0.004
  2843   cD    73    MY  C111 2843    -0.031787     12.01000 ; qtot -0.028
  2844   hL    73    MY  H11R 2844     0.012677      1.00800 ; qtot -0.015
  2845   hL    73    MY  H11S 2845     0.012677      1.00800 ; qtot -0.003
  2846   cD    73    MY  C110 2846    -0.021025     12.01000 ; qtot -0.024
  2847   hL    73    MY  H10R 2847     0.010037      1.00800 ; qtot -0.014
  2848   hL    73    MY  H10S 2848     0.010037      1.00800 ; qtot -0.004
  2849   cD    73    MY   C19 2849    -0.014653     12.01000 ; qtot -0.018
  2850   hL    73    MY   H9R 2850     0.010172      1.00800 ; qtot -0.008
  2851   hL    73    MY   H9S 2851     0.010172      1.00800 ; qtot 0.002
  2852   cD    73    MY   C18 2852    -0.026451     12.01000 ; qtot -0.024
  2853   hL    73    MY   H8R 2853     0.011241      1.00800 ; qtot -0.013
  2854   hL    73    MY   H8S 2854     0.011241      1.00800 ; qtot -0.002
  2855   cD    73    MY   C17 2855    -0.004386     12.01000 ; qtot -0.006
  2856   hL    73    MY   H7R 2856     0.006833      1.00800 ; qtot 0.000
  2857   hL    73    MY   H7S 2857     0.006833      1.00800 ; qtot 0.007
  2858   cD    73    MY   C16 2858    -0.027812     12.01000 ; qtot -0.021
  2859   hL    73    MY   H6R 2859     0.011511      1.00800 ; qtot -0.009
  2860   hL    73    MY   H6S 2860     0.011511      1.00800 ; qtot 0.002
  2861   cD    73    MY   C15 2861    -0.016521     12.01000 ; qtot -0.014
  2862   hL    73    MY   H5R 2862     0.010573      1.00800 ; qtot -0.003
  2863   hL    73    MY   H5S 2863     0.010573      1.00800 ; qtot 0.007
  2864   cD    73    MY   C14 2864    -0.026954     12.01000 ; qtot -0.020
  2865   hL    73    MY   H4R 2865     0.020431      1.00800 ; qtot 0.001
  2866   hL    73    MY   H4S 2866     0.020431      1.00800 ; qtot 0.021
  2867   cD    73    MY   C13 2867    -0.002435     12.01000 ; qtot 0.019
  2868   hL    73    MY   H3R 2868     0.018859      1.00800 ; qtot 0.037
  2869   hL    73    MY   H3S 2869     0.018859      1.00800 ; qtot 0.056
  2870   cD    73    MY   C12 2870    -0.164200     12.01000 ; qtot -0.108
  2871   hL    73    MY   H2R 2871     0.053944      1.00800 ; qtot -0.054
  2872   hL    73    MY   H2S 2872     0.053944      1.00800 ; qtot -0.000
  2873   cC    74    PC   C11 2873     0.910403     12.01000 ; qtot 0.910
  2874   oC    74    PC   O12 2874    -0.671566     16.00000 ; qtot 0.239
  2875   oS    74    PC   O11 2875    -0.575489     16.00000 ; qtot -0.337
  2876   cA    74    PC    C1 2876     0.196939     12.01000 ; qtot -0.140
  2877   hE    74    PC    HR 2877     0.070469      1.00800 ; qtot -0.069
  2878   hE    74    PC    HS 2878     0.070469      1.00800 ; qtot 0.001
  2879   cA    74    PC    C2 2879     0.281242     12.01000 ; qtot 0.282
  2880   hE    74    PC    HX 2880     0.063253      1.00800 ; qtot 0.346
  2881   cA    74    PC    C3 2881     0.017459     12.01000 ; qtot 0.363
  2882   hE    74    PC    HA 2882     0.095591      1.00800 ; qtot 0.459
  2883   hE    74    PC    HB 2883     0.095591      1.00800 ; qtot 0.554
  2884   oT    74    PC   O31 2884    -0.509480     16.00000 ; qtot 0.045
  2885   pA    74    PC   P31 2885     1.339721     30.97000 ; qtot 1.385
  2886   oT    74    PC   O32 2886    -0.508176     16.00000 ; qtot 0.876
  2887   cA    74    PC   C31 2887     0.166801     12.01000 ; qtot 1.043
  2888   hE    74    PC   H1A 2888     0.078534      1.00800 ; qtot 1.122
  2889   hE    74    PC   H1B 2889     0.078534      1.00800 ; qtot 1.200
  2890   cA    74    PC   C32 2890    -0.170824     12.01000 ; qtot 1.029
  2891   hX    74    PC   H2A 2891     0.136415      1.00800 ; qtot 1.166
  2892   hX    74    PC   H2B 2892     0.136415      1.00800 ; qtot 1.302
  2893   nA    74    PC   N31 2893     0.245262     14.01000 ; qtot 1.548
  2894   cA    74    PC   C33 2894    -0.338973     12.01000 ; qtot 1.209
  2895   hX    74    PC   H3A 2895     0.172230      1.00800 ; qtot 1.381
  2896   hX    74    PC   H3B 2896     0.172230      1.00800 ; qtot 1.553
  2897   hX    74    PC   H3C 2897     0.172230      1.00800 ; qtot 1.725
  2898   cA    74    PC   C34 2898    -0.338973     12.01000 ; qtot 1.386
  2899   hX    74    PC   H4A 2899     0.172230      1.00800 ; qtot 1.559
  2900   hX    74    PC   H4B 2900     0.172230      1.00800 ; qtot 1.731
  2901   hX    74    PC   H4C 2901     0.172230      1.00800 ; qtot 1.903
  2902   cA    74    PC   C35 2902    -0.338973     12.01000 ; qtot 1.564
  2903   hX    74    PC   H5A 2903     0.172230      1.00800 ; qtot 1.736
  2904   hX    74    PC   H5B 2904     0.172230      1.00800 ; qtot 1.908
  2905   hX    74    PC   H5C 2905     0.172230      1.00800 ; qtot 2.081
  2906   oP    74    PC   O33 2906    -0.875812     16.00000 ; qtot 1.205
  2907   oP    74    PC   O34 2907    -0.875812     16.00000 ; qtot 0.329
  2908   oS    74    PC   O21 2908    -0.552948     16.00000 ; qtot -0.224
  2909   cC    74    PC   C21 2909     0.897613     12.01000 ; qtot 0.674
  2910   oC    74    PC   O22 2910    -0.673755     16.00000 ; qtot 0.000
  2911   hL    75    MY  H14T 2911     0.025511      1.00800 ; qtot 0.026
  2912   cD    75    MY  C114 2912    -0.111712     12.01000 ; qtot -0.086
  2913   hL    75    MY  H14R 2913     0.025511      1.00800 ; qtot -0.061
  2914   hL    75    MY  H14S 2914     0.025511      1.00800 ; qtot -0.035
  2915   cD    75    MY  C113 2915     0.017463     12.01000 ; qtot -0.018
  2916   hL    75    MY  H13R 2916     0.007531      1.00800 ; qtot -0.010
  2917   hL    75    MY  H13S 2917     0.007531      1.00800 ; qtot -0.003
  2918   cD    75    MY  C112 2918    -0.028094     12.01000 ; qtot -0.031
  2919   hL    75    MY  H12R 2919     0.017208      1.00800 ; qtot -0.014
  2920   hL    75    MY  H12S 2920     0.017208      1.00800 ; qtot 0.004
  2921   cD    75    MY  C111 2921    -0.031787     12.01000 ; qtot -0.028
  2922   hL    75    MY  H11R 2922     0.012677      1.00800 ; qtot -0.015
  2923   hL    75    MY  H11S 2923     0.012677      1.00800 ; qtot -0.003
  2924   cD    75    MY  C110 2924    -0.021025     12.01000 ; qtot -0.024
  2925   hL    75    MY  H10R 2925     0.010037      1.00800 ; qtot -0.014
  2926   hL    75    MY  H10S 2926     0.010037      1.00800 ; qtot -0.004
  2927   cD    75    MY   C19 2927    -0.014653     12.01000 ; qtot -0.018
  2928   hL    75    MY   H9R 2928     0.010172      1.00800 ; qtot -0.008
  2929   hL    75    MY   H9S 2929     0.010172      1.00800 ; qtot 0.002
  2930   cD    75    MY   C18 2930    -0.026451     12.01000 ; qtot -0.024
  2931   hL    75    MY   H8R 2931     0.011241      1.00800 ; qtot -0.013
  2932   hL    75    MY   H8S 2932     0.011241      1.00800 ; qtot -0.002
  2933   cD    75    MY   C17 2933    -0.004386     12.01000 ; qtot -0.006
  2934   hL    75    MY   H7R 2934     0.006833      1.00800 ; qtot 0.000
  2935   hL    75    MY   H7S 2935     0.006833      1.00800 ; qtot 0.007
  2936   cD    75    MY   C16 2936    -0.027812     12.01000 ; qtot -0.021
  2937   hL    75    MY   H6R 2937     0.011511      1.00800 ; qtot -0.009
  2938   hL    75    MY   H6S 2938     0.011511      1.00800 ; qtot 0.002
  2939   cD    75    MY   C15 2939    -0.016521     12.01000 ; qtot -0.014
  2940   hL    75    MY   H5R 2940     0.010573      1.00800 ; qtot -0.003
  2941   hL    75    MY   H5S 2941     0.010573      1.00800 ; qtot 0.007
  2942   cD    75    MY   C14 2942    -0.026954     12.01000 ; qtot -0.020
  2943   hL    75    MY   H4R 2943     0.020431      1.00800 ; qtot 0.001
  2944   hL    75    MY   H4S 2944     0.020431      1.00800 ; qtot 0.021
  2945   cD    75    MY   C13 2945    -0.002435     12.01000 ; qtot 0.019
  2946   hL    75    MY   H3R 2946     0.018859      1.00800 ; qtot 0.037
  2947   hL    75    MY   H3S 2947     0.018859      1.00800 ; qtot 0.056
  2948   cD    75    MY   C12 2948    -0.164200     12.01000 ; qtot -0.108
  2949   hL    75    MY   H2R 2949     0.053944      1.00800 ; qtot -0.054
  2950   hL    75    MY   H2S 2950     0.053944      1.00800 ; qtot -0.000
  2951   hL    76    MY  H14T 2951     0.025511      1.00800 ; qtot 0.026
  2952   cD    76    MY  C114 2952    -0.111712     12.01000 ; qtot -0.086
  2953   hL    76    MY  H14R 2953     0.025511      1.00800 ; qtot -0.061
  2954   hL    76    MY  H14S 2954     0.025511      1.00800 ; qtot -0.035
  2955   cD    76    MY  C113 2955     0.017463     12.01000 ; qtot -0.018
  2956   hL    76    MY  H13R 2956     0.007531      1.00800 ; qtot -0.010
  2957   hL    76    MY  H13S 2957     0.007531      1.00800 ; qtot -0.003
  2958   cD    76    MY  C112 2958    -0.028094     12.01000 ; qtot -0.031
  2959   hL    76    MY  H12R 2959     0.017208      1.00800 ; qtot -0.014
  2960   hL    76    MY  H12S 2960     0.017208      1.00800 ; qtot 0.004
  2961   cD    76    MY  C111 2961    -0.031787     12.01000 ; qtot -0.028
  2962   hL    76    MY  H11R 2962     0.012677      1.00800 ; qtot -0.015
  2963   hL    76    MY  H11S 2963     0.012677      1.00800 ; qtot -0.003
  2964   cD    76    MY  C110 2964    -0.021025     12.01000 ; qtot -0.024
  2965   hL    76    MY  H10R 2965     0.010037      1.00800 ; qtot -0.014
  2966   hL    76    MY  H10S 2966     0.010037      1.00800 ; qtot -0.004
  2967   cD    76    MY   C19 2967    -0.014653     12.01000 ; qtot -0.018
  2968   hL    76    MY   H9R 2968     0.010172      1.00800 ; qtot -0.008
  2969   hL    76    MY   H9S 2969     0.010172      1.00800 ; qtot 0.002
  2970   cD    76    MY   C18 2970    -0.026451     12.01000 ; qtot -0.024
  2971   hL    76    MY   H8R 2971     0.011241      1.00800 ; qtot -0.013
  2972   hL    76    MY   H8S 2972     0.011241      1.00800 ; qtot -0.002
  2973   cD    76    MY   C17 2973    -0.004386     12.01000 ; qtot -0.006
  2974   hL    76    MY   H7R 2974     0.006833      1.00800 ; qtot 0.000
  2975   hL    76    MY   H7S 2975     0.006833      1.00800 ; qtot 0.007
  2976   cD    76    MY   C16 2976    -0.027812     12.01000 ; qtot -0.021
  2977   hL    76    MY   H6R 2977     0.011511      1.00800 ; qtot -0.009
  2978   hL    76    MY   H6S 2978     0.011511      1.00800 ; qtot 0.002
  2979   cD    76    MY   C15 2979    -0.016521     12.01000 ; qtot -0.014
  2980   hL    76    MY   H5R 2980     0.010573      1.00800 ; qtot -0.003
  2981   hL    76    MY   H5S 2981     0.010573      1.00800 ; qtot 0.007
  2982   cD    76    MY   C14 2982    -0.026954     12.01000 ; qtot -0.020
  2983   hL    76    MY   H4R 2983     0.020431      1.00800 ; qtot 0.001
  2984   hL    76    MY   H4S 2984     0.020431      1.00800 ; qtot 0.021
  2985   cD    76    MY   C13 2985    -0.002435     12.01000 ; qtot 0.019
  2986   hL    76    MY   H3R 2986     0.018859      1.00800 ; qtot 0.037
  2987   hL    76    MY   H3S 2987     0.018859      1.00800 ; qtot 0.056
  2988   cD    76    MY   C12 2988    -0.164200     12.01000 ; qtot -0.108
  2989   hL    76    MY   H2R 2989     0.053944      1.00800 ; qtot -0.054
  2990   hL    76    MY   H2S 2990     0.053944      1.00800 ; qtot -0.000
  2991   cC    77    PC   C11 2991     0.910403     12.01000 ; qtot 0.910
  2992   oC    77    PC   O12 2992    -0.671566     16.00000 ; qtot 0.239
  2993   oS    77    PC   O11 2993    -0.575489     16.00000 ; qtot -0.337
  2994   cA    77    PC    C1 2994     0.196939     12.01000 ; qtot -0.140
  2995   hE    77    PC    HR 2995     0.070469      1.00800 ; qtot -0.069
  2996   hE    77    PC    HS 2996     0.070469      1.00800 ; qtot 0.001
  2997   cA    77    PC    C2 2997     0.281242     12.01000 ; qtot 0.282
  2998   hE    77    PC    HX 2998     0.063253      1.00800 ; qtot 0.346
  2999   cA    77    PC    C3 2999     0.017459     12.01000 ; qtot 0.363
  3000   hE    77    PC    HA 3000     0.095591      1.00800 ; qtot 0.459
  3001   hE    77    PC    HB 3001     0.095591      1.00800 ; qtot 0.554
  3002   oT    77    PC   O31 3002    -0.509480     16.00000 ; qtot 0.045
  3003   pA    77    PC   P31 3003     1.339721     30.97000 ; qtot 1.385
  3004   oT    77    PC   O32 3004    -0.508176     16.00000 ; qtot 0.876
  3005   cA    77    PC   C31 3005     0.166801     12.01000 ; qtot 1.043
  3006   hE    77    PC   H1A 3006     0.078534      1.00800 ; qtot 1.122
  3007   hE    77    PC   H1B 3007     0.078534      1.00800 ; qtot 1.200
  3008   cA    77    PC   C32 3008    -0.170824     12.01000 ; qtot 1.029
  3009   hX    77    PC   H2A 3009     0.136415      1.00800 ; qtot 1.166
  3010   hX    77    PC   H2B 3010     0.136415      1.00800 ; qtot 1.302
  3011   nA    77    PC   N31 3011     0.245262     14.01000 ; qtot 1.548
  3012   cA    77    PC   C33 3012    -0.338973     12.01000 ; qtot 1.209
  3013   hX    77    PC   H3A 3013     0.172230      1.00800 ; qtot 1.381
  3014   hX    77    PC   H3B 3014     0.172230      1.00800 ; qtot 1.553
  3015   hX    77    PC   H3C 3015     0.172230      1.00800 ; qtot 1.725
  3016   cA    77    PC   C34 3016    -0.338973     12.01000 ; qtot 1.386
  3017   hX    77    PC   H4A 3017     0.172230      1.00800 ; qtot 1.559
  3018   hX    77    PC   H4B 3018     0.172230      1.00800 ; qtot 1.731
  3019   hX    77    PC   H4C 3019     0.172230      1.00800 ; qtot 1.903
  3020   cA    77    PC   C35 3020    -0.338973     12.01000 ; qtot 1.564
  3021   hX    77    PC   H5A 3021     0.172230      1.00800 ; qtot 1.736
  3022   hX    77    PC   H5B 3022     0.172230      1.00800 ; qtot 1.908
  3023   hX    77    PC   H5C 3023     0.172230      1.00800 ; qtot 2.081
  3024   oP    77    PC   O33 3024    -0.875812     16.00000 ; qtot 1.205
  3025   oP    77    PC   O34 3025    -0.875812     16.00000 ; qtot 0.329
  3026   oS    77    PC   O21 3026    -0.552948     16.00000 ; qtot -0.224
  3027   cC    77    PC   C21 3027     0.897613     12.01000 ; qtot 0.674
  3028   oC    77    PC   O22 3028    -0.673755     16.00000 ; qtot 0.000
  3029   hL    78    MY  H14T 3029     0.025511      1.00800 ; qtot 0.026
  3030   cD    78    MY  C114 3030    -0.111712     12.01000 ; qtot -0.086
  3031   hL    78    MY  H14R 3031     0.025511      1.00800 ; qtot -0.061
  3032   hL    78    MY  H14S 3032     0.025511      1.00800 ; qtot -0.035
  3033   cD    78    MY  C113 3033     0.017463     12.01000 ; qtot -0.018
  3034   hL    78    MY  H13R 3034     0.007531      1.00800 ; qtot -0.010
  3035   hL    78    MY  H13S 3035     0.007531      1.00800 ; qtot -0.003
  3036   cD    78    MY  C112 3036    -0.028094     12.01000 ; qtot -0.031
  3037   hL    78    MY  H12R 3037     0.017208      1.00800 ; qtot -0.014
  3038   hL    78    MY  H12S 3038     0.017208      1.00800 ; qtot 0.004
  3039   cD    78    MY  C111 3039    -0.031787     12.01000 ; qtot -0.028
  3040   hL    78    MY  H11R 3040     0.012677      1.00800 ; qtot -0.015
  3041   hL    78    MY  H11S 3041     0.012677      1.00800 ; qtot -0.003
  3042   cD    78    MY  C110 3042    -0.021025     12.01000 ; qtot -0.024
  3043   hL    78    MY  H10R 3043     0.010037      1.00800 ; qtot -0.014
  3044   hL    78    MY  H10S 3044     0.010037      1.00800 ; qtot -0.004
  3045   cD    78    MY   C19 3045    -0.014653     12.01000 ; qtot -0.018
  3046   hL    78    MY   H9R 3046     0.010172      1.00800 ; qtot -0.008
  3047   hL    78    MY   H9S 3047     0.010172      1.00800 ; qtot 0.002
  3048   cD    78    MY   C18 3048    -0.026451     12.01000 ; qtot -0.024
  3049   hL    78    MY   H8R 3049     0.011241      1.00800 ; qtot -0.013
  3050   hL    78    MY   H8S 3050     0.011241      1.00800 ; qtot -0.002
  3051   cD    78    MY   C17 3051    -0.004386     12.01000 ; qtot -0.006
  3052   hL    78    MY   H7R 3052     0.006833      1.00800 ; qtot 0.000
  3053   hL    78    MY   H7S 3053     0.006833      1.00800 ; qtot 0.007
  3054   cD    78    MY   C16 3054    -0.027812     12.01000 ; qtot -0.021
  3055   hL    78    MY   H6R 3055     0.011511      1.00800 ; qtot -0.009
  3056   hL    78    MY   H6S 3056     0.011511      1.00800 ; qtot 0.002
  3057   cD    78    MY   C15 3057    -0.016521     12.01000 ; qtot -0.014
  3058   hL    78    MY   H5R 3058     0.010573      1.00800 ; qtot -0.003
  3059   hL    78    MY   H5S 3059     0.010573      1.00800 ; qtot 0.007
  3060   cD    78    MY   C14 3060    -0.026954     12.01000 ; qtot -0.020
  3061   hL    78    MY   H4R 3061     0.020431      1.00800 ; qtot 0.001
  3062   hL    78    MY   H4S 3062     0.020431      1.00800 ; qtot 0.021
  3063   cD    78    MY   C13 3063    -0.002435     12.01000 ; qtot 0.019
  3064   hL    78    MY   H3R 3064     0.018859      1.00800 ; qtot 0.037
  3065   hL    78    MY   H3S 3065     0.018859      1.00800 ; qtot 0.056
  3066   cD    78    MY   C12 3066    -0.164200     12.01000 ; qtot -0.108
  3067   hL    78    MY   H2R 3067     0.053944      1.00800 ; qtot -0.054
  3068   hL    78    MY   H2S 3068     0.053944      1.00800 ; qtot -0.000
  3069   hL    79    MY  H14T 3069     0.025511      1.00800 ; qtot 0.026
  3070   cD    79    MY  C114 3070    -0.111712     12.01000 ; qtot -0.086
  3071   hL    79    MY  H14R 3071     0.025511      1.00800 ; qtot -0.061
  3072   hL    79    MY  H14S 3072     0.025511      1.00800 ; qtot -0.035
  3073   cD    79    MY  C113 3073     0.017463     12.01000 ; qtot -0.018
  3074   hL    79    MY  H13R 3074     0.007531      1.00800 ; qtot -0.010
  3075   hL    79    MY  H13S 3075     0.007531      1.00800 ; qtot -0.003
  3076   cD    79    MY  C112 3076    -0.028094     12.01000 ; qtot -0.031
  3077   hL    79    MY  H12R 3077     0.017208      1.00800 ; qtot -0.014
  3078   hL    79    MY  H12S 3078     0.017208      1.00800 ; qtot 0.004
  3079   cD    79    MY  C111 3079    -0.031787     12.01000 ; qtot -0.028
  3080   hL    79    MY  H11R 3080     0.012677      1.00800 ; qtot -0.015
  3081   hL    79    MY  H11S 3081     0.012677      1.00800 ; qtot -0.003
  3082   cD    79    MY  C110 3082    -0.021025     12.01000 ; qtot -0.024
  3083   hL    79    MY  H10R 3083     0.010037      1.00800 ; qtot -0.014
  3084   hL    79    MY  H10S 3084     0.010037      1.00800 ; qtot -0.004
  3085   cD    79    MY   C19 3085    -0.014653     12.01000 ; qtot -0.018
  3086   hL    79    MY   H9R 3086     0.010172      1.00800 ; qtot -0.008
  3087   hL    79    MY   H9S 3087     0.010172      1.00800 ; qtot 0.002
  3088   cD    79    MY   C18 3088    -0.026451     12.01000 ; qtot -0.024
  3089   hL    79    MY   H8R 3089     0.011241      1.00800 ; qtot -0.013
  3090   hL    79    MY   H8S 3090     0.011241      1.00800 ; qtot -0.002
  3091   cD    79    MY   C17 3091    -0.004386     12.01000 ; qtot -0.006
  3092   hL    79    MY   H7R 3092     0.006833      1.00800 ; qtot 0.000
  3093   hL    79    MY   H7S 3093     0.006833      1.00800 ; qtot 0.007
  3094   cD    79    MY   C16 3094    -0.027812     12.01000 ; qtot -0.021
  3095   hL    79    MY   H6R 3095     0.011511      1.00800 ; qtot -0.009
  3096   hL    79    MY   H6S 3096     0.011511      1.00800 ; qtot 0.002
  3097   cD    79    MY   C15 3097    -0.016521     12.01000 ; qtot -0.014
  3098   hL    79    MY   H5R 3098     0.010573      1.00800 ; qtot -0.003
  3099   hL    79    MY   H5S 3099     0.010573      1.00800 ; qtot 0.007
  3100   cD    79    MY   C14 3100    -0.026954     12.01000 ; qtot -0.020
  3101   hL    79    MY   H4R 3101     0.020431      1.00800 ; qtot 0.001
  3102   hL    79    MY   H4S 3102     0.020431      1.00800 ; qtot 0.021
  3103   cD    79    MY   C13 3103    -0.002435     12.01000 ; qtot 0.019
  3104   hL    79    MY   H3R 3104     0.018859      1.00800 ; qtot 0.037
  3105   hL    79    MY   H3S 3105     0.018859      1.00800 ; qtot 0.056
  3106   cD    79    MY   C12 3106    -0.164200     12.01000 ; qtot -0.108
  3107   hL    79    MY   H2R 3107     0.053944      1.00800 ; qtot -0.054
  3108   hL    79    MY   H2S 3108     0.053944      1.00800 ; qtot -0.000
  3109   cC    80    PC   C11 3109     0.910403     12.01000 ; qtot 0.910
  3110   oC    80    PC   O12 3110    -0.671566     16.00000 ; qtot 0.239
  3111   oS    80    PC   O11 3111    -0.575489     16.00000 ; qtot -0.337
  3112   cA    80    PC    C1 3112     0.196939     12.01000 ; qtot -0.140
  3113   hE    80    PC    HR 3113     0.070469      1.00800 ; qtot -0.069
  3114   hE    80    PC    HS 3114     0.070469      1.00800 ; qtot 0.001
  3115   cA    80    PC    C2 3115     0.281242     12.01000 ; qtot 0.282
  3116   hE    80    PC    HX 3116     0.063253      1.00800 ; qtot 0.346
  3117   cA    80    PC    C3 3117     0.017459     12.01000 ; qtot 0.363
  3118   hE    80    PC    HA 3118     0.095591      1.00800 ; qtot 0.459
  3119   hE    80    PC    HB 3119     0.095591      1.00800 ; qtot 0.554
  3120   oT    80    PC   O31 3120    -0.509480     16.00000 ; qtot 0.045
  3121   pA    80    PC   P31 3121     1.339721     30.97000 ; qtot 1.385
  3122   oT    80    PC   O32 3122    -0.508176     16.00000 ; qtot 0.876
  3123   cA    80    PC   C31 3123     0.166801     12.01000 ; qtot 1.043
  3124   hE    80    PC   H1A 3124     0.078534      1.00800 ; qtot 1.122
  3125   hE    80    PC   H1B 3125     0.078534      1.00800 ; qtot 1.200
  3126   cA    80    PC   C32 3126    -0.170824     12.01000 ; qtot 1.029
  3127   hX    80    PC   H2A 3127     0.136415      1.00800 ; qtot 1.166
  3128   hX    80    PC   H2B 3128     0.136415      1.00800 ; qtot 1.302
  3129   nA    80    PC   N31 3129     0.245262     14.01000 ; qtot 1.548
  3130   cA    80    PC   C33 3130    -0.338973     12.01000 ; qtot 1.209
  3131   hX    80    PC   H3A 3131     0.172230      1.00800 ; qtot 1.381
  3132   hX    80    PC   H3B 3132     0.172230      1.00800 ; qtot 1.553
  3133   hX    80    PC   H3C 3133     0.172230      1.00800 ; qtot 1.725
  3134   cA    80    PC   C34 3134    -0.338973     12.01000 ; qtot 1.386
  3135   hX    80    PC   H4A 3135     0.172230      1.00800 ; qtot 1.559
  3136   hX    80    PC   H4B 3136     0.172230      1.00800 ; qtot 1.731
  3137   hX    80    PC   H4C 3137     0.172230      1.00800 ; qtot 1.903
  3138   cA    80    PC   C35 3138    -0.338973     12.01000 ; qtot 1.564
  3139   hX    80    PC   H5A 3139     0.172230      1.00800 ; qtot 1.736
  3140   hX    80    PC   H5B 3140     0.172230      1.00800 ; qtot 1.908
  3141   hX    80    PC   H5C 3141     0.172230      1.00800 ; qtot 2.081
  3142   oP    80    PC   O33 3142    -0.875812     16.00000 ; qtot 1.205
  3143   oP    80    PC   O34 3143    -0.875812     16.00000 ; qtot 0.329
  3144   oS    80    PC   O21 3144    -0.552948     16.00000 ; qtot -0.224
  3145   cC    80    PC   C21 3145     0.897613     12.01000 ; qtot 0.674
  3146   oC    80    PC   O22 3146    -0.673755     16.00000 ; qtot 0.000
  3147   hL    81    MY  H14T 3147     0.025511      1.00800 ; qtot 0.026
  3148   cD    81    MY  C114 3148    -0.111712     12.01000 ; qtot -0.086
  3149   hL    81    MY  H14R 3149     0.025511      1.00800 ; qtot -0.061
  3150   hL    81    MY  H14S 3150     0.025511      1.00800 ; qtot -0.035
  3151   cD    81    MY  C113 3151     0.017463     12.01000 ; qtot -0.018
  3152   hL    81    MY  H13R 3152     0.007531      1.00800 ; qtot -0.010
  3153   hL    81    MY  H13S 3153     0.007531      1.00800 ; qtot -0.003
  3154   cD    81    MY  C112 3154    -0.028094     12.01000 ; qtot -0.031
  3155   hL    81    MY  H12R 3155     0.017208      1.00800 ; qtot -0.014
  3156   hL    81    MY  H12S 3156     0.017208      1.00800 ; qtot 0.004
  3157   cD    81    MY  C111 3157    -0.031787     12.01000 ; qtot -0.028
  3158   hL    81    MY  H11R 3158     0.012677      1.00800 ; qtot -0.015
  3159   hL    81    MY  H11S 3159     0.012677      1.00800 ; qtot -0.003
  3160   cD    81    MY  C110 3160    -0.021025     12.01000 ; qtot -0.024
  3161   hL    81    MY  H10R 3161     0.010037      1.00800 ; qtot -0.014
  3162   hL    81    MY  H10S 3162     0.010037      1.00800 ; qtot -0.004
  3163   cD    81    MY   C19 3163    -0.014653     12.01000 ; qtot -0.018
  3164   hL    81    MY   H9R 3164     0.010172      1.00800 ; qtot -0.008
  3165   hL    81    MY   H9S 3165     0.010172      1.00800 ; qtot 0.002
  3166   cD    81    MY   C18 3166    -0.026451     12.01000 ; qtot -0.024
  3167   hL    81    MY   H8R 3167     0.011241      1.00800 ; qtot -0.013
  3168   hL    81    MY   H8S 3168     0.011241      1.00800 ; qtot -0.002
  3169   cD    81    MY   C17 3169    -0.004386     12.01000 ; qtot -0.006
  3170   hL    81    MY   H7R 3170     0.006833      1.00800 ; qtot 0.000
  3171   hL    81    MY   H7S 3171     0.006833      1.00800 ; qtot 0.007
  3172   cD    81    MY   C16 3172    -0.027812     12.01000 ; qtot -0.021
  3173   hL    81    MY   H6R 3173     0.011511      1.00800 ; qtot -0.009
  3174   hL    81    MY   H6S 3174     0.011511      1.00800 ; qtot 0.002
  3175   cD    81    MY   C15 3175    -0.016521     12.01000 ; qtot -0.014
  3176   hL    81    MY   H5R 3176     0.010573      1.00800 ; qtot -0.003
  3177   hL    81    MY   H5S 3177     0.010573      1.00800 ; qtot 0.007
  3178   cD    81    MY   C14 3178    -0.026954     12.01000 ; qtot -0.020
  3179   hL    81    MY   H4R 3179     0.020431      1.00800 ; qtot 0.001
  3180   hL    81    MY   H4S 3180     0.020431      1.00800 ; qtot 0.021
  3181   cD    81    MY   C13 3181    -0.002435     12.01000 ; qtot 0.019
  3182   hL    81    MY   H3R 3182     0.018859      1.00800 ; qtot 0.037
  3183   hL    81    MY   H3S 3183     0.018859      1.00800 ; qtot 0.056
  3184   cD    81    MY   C12 3184    -0.164200     12.01000 ; qtot -0.108
  3185   hL    81    MY   H2R 3185     0.053944      1.00800 ; qtot -0.054
  3186   hL    81    MY   H2S 3186     0.053944      1.00800 ; qtot -0.000
  3187   hL    82    MY  H14T 3187     0.025511      1.00800 ; qtot 0.026
  3188   cD    82    MY  C114 3188    -0.111712     12.01000 ; qtot -0.086
  3189   hL    82    MY  H14R 3189     0.025511      1.00800 ; qtot -0.061
  3190   hL    82    MY  H14S 3190     0.025511      1.00800 ; qtot -0.035
  3191   cD    82    MY  C113 3191     0.017463     12.01000 ; qtot -0.018
  3192   hL    82    MY  H13R 3192     0.007531      1.00800 ; qtot -0.010
  3193   hL    82    MY  H13S 3193     0.007531      1.00800 ; qtot -0.003
  3194   cD    82    MY  C112 3194    -0.028094     12.01000 ; qtot -0.031
  3195   hL    82    MY  H12R 3195     0.017208      1.00800 ; qtot -0.014
  3196   hL    82    MY  H12S 3196     0.017208      1.00800 ; qtot 0.004
  3197   cD    82    MY  C111 3197    -0.031787     12.01000 ; qtot -0.028
  3198   hL    82    MY  H11R 3198     0.012677      1.00800 ; qtot -0.015
  3199   hL    82    MY  H11S 3199     0.012677      1.00800 ; qtot -0.003
  3200   cD    82    MY  C110 3200    -0.021025     12.01000 ; qtot -0.024
  3201   hL    82    MY  H10R 3201     0.010037      1.00800 ; qtot -0.014
  3202   hL    82    MY  H10S 3202     0.010037      1.00800 ; qtot -0.004
  3203   cD    82    MY   C19 3203    -0.014653     12.01000 ; qtot -0.018
  3204   hL    82    MY   H9R 3204     0.010172      1.00800 ; qtot -0.008
  3205   hL    82    MY   H9S 3205     0.010172      1.00800 ; qtot 0.002
  3206   cD    82    MY   C18 3206    -0.026451     12.01000 ; qtot -0.024
  3207   hL    82    MY   H8R 3207     0.011241      1.00800 ; qtot -0.013
  3208   hL    82    MY   H8S 3208     0.011241      1.00800 ; qtot -0.002
  3209   cD    82    MY   C17 3209    -0.004386     12.01000 ; qtot -0.006
  3210   hL    82    MY   H7R 3210     0.006833      1.00800 ; qtot 0.000
  3211   hL    82    MY   H7S 3211     0.006833      1.00800 ; qtot 0.007
  3212   cD    82    MY   C16 3212    -0.027812     12.01000 ; qtot -0.021
  3213   hL    82    MY   H6R 3213     0.011511      1.00800 ; qtot -0.009
  3214   hL    82    MY   H6S 3214     0.011511      1.00800 ; qtot 0.002
  3215   cD    82    MY   C15 3215    -0.016521     12.01000 ; qtot -0.014
  3216   hL    82    MY   H5R 3216     0.010573      1.00800 ; qtot -0.003
  3217   hL    82    MY   H5S 3217     0.010573      1.00800 ; qtot 0.007
  3218   cD    82    MY   C14 3218    -0.026954     12.01000 ; qtot -0.020
  3219   hL    82    MY   H4R 3219     0.020431      1.00800 ; qtot 0.001
  3220   hL    82    MY   H4S 3220     0.020431      1.00800 ; qtot 0.021
  3221   cD    82    MY   C13 3221    -0.002435     12.01000 ; qtot 0.019
  3222   hL    82    MY   H3R 3222     0.018859      1.00800 ; qtot 0.037
  3223   hL    82    MY   H3S 3223     0.018859      1.00800 ; qtot 0.056
  3224   cD    82    MY   C12 3224    -0.164200     12.01000 ; qtot -0.108
  3225   hL    82    MY   H2R 3225     0.053944      1.00800 ; qtot -0.054
  3226   hL    82    MY   H2S 3226     0.053944      1.00800 ; qtot -0.000
  3227   cC    83    PC   C11 3227     0.910403     12.01000 ; qtot 0.910
  3228   oC    83    PC   O12 3228    -0.671566     16.00000 ; qtot 0.239
  3229   oS    83    PC   O11 3229    -0.575489     16.00000 ; qtot -0.337
  3230   cA    83    PC    C1 3230     0.196939     12.01000 ; qtot -0.140
  3231   hE    83    PC    HR 3231     0.070469      1.00800 ; qtot -0.069
  3232   hE    83    PC    HS 3232     0.070469      1.00800 ; qtot 0.001
  3233   cA    83    PC    C2 3233     0.281242     12.01000 ; qtot 0.282
  3234   hE    83    PC    HX 3234     0.063253      1.00800 ; qtot 0.346
  3235   cA    83    PC    C3 3235     0.017459     12.01000 ; qtot 0.363
  3236   hE    83    PC    HA 3236     0.095591      1.00800 ; qtot 0.459
  3237   hE    83    PC    HB 3237     0.095591      1.00800 ; qtot 0.554
  3238   oT    83    PC   O31 3238    -0.509480     16.00000 ; qtot 0.045
  3239   pA    83    PC   P31 3239     1.339721     30.97000 ; qtot 1.385
  3240   oT    83    PC   O32 3240    -0.508176     16.00000 ; qtot 0.876
  3241   cA    83    PC   C31 3241     0.166801     12.01000 ; qtot 1.043
  3242   hE    83    PC   H1A 3242     0.078534      1.00800 ; qtot 1.122
  3243   hE    83    PC   H1B 3243     0.078534      1.00800 ; qtot 1.200
  3244   cA    83    PC   C32 3244    -0.170824     12.01000 ; qtot 1.029
  3245   hX    83    PC   H2A 3245     0.136415      1.00800 ; qtot 1.166
  3246   hX    83    PC   H2B 3246     0.136415      1.00800 ; qtot 1.302
  3247   nA    83    PC   N31 3247     0.245262     14.01000 ; qtot 1.548
  3248   cA    83    PC   C33 3248    -0.338973     12.01000 ; qtot 1.209
  3249   hX    83    PC   H3A 3249     0.172230      1.00800 ; qtot 1.381
  3250   hX    83    PC   H3B 3250     0.172230      1.00800 ; qtot 1.553
  3251   hX    83    PC   H3C 3251     0.172230      1.00800 ; qtot 1.725
  3252   cA    83    PC   C34 3252    -0.338973     12.01000 ; qtot 1.386
  3253   hX    83    PC   H4A 3253     0.172230      1.00800 ; qtot 1.559
  3254   hX    83    PC   H4B 3254     0.172230      1.00800 ; qtot 1.731
  3255   hX    83    PC   H4C 3255     0.172230      1.00800 ; qtot 1.903
  3256   cA    83    PC   C35 3256    -0.338973     12.01000 ; qtot 1.564
  3257   hX    83    PC   H5A 3257     0.172230      1.00800 ; qtot 1.736
  3258   hX    83    PC   H5B 3258     0.172230      1.00800 ; qtot 1.908
  3259   hX    83    PC   H5C 3259     0.172230      1.00800 ; qtot 2.081
  3260   oP    83    PC   O33 3260    -0.875812     16.00000 ; qtot 1.205
  3261   oP    83    PC   O34 3261    -0.875812     16.00000 ; qtot 0.329
  3262   oS    83    PC   O21 3262    -0.552948     16.00000 ; qtot -0.224
  3263   cC    83    PC   C21 3263     0.897613     12.01000 ; qtot 0.674
  3264   oC    83    PC   O22 3264    -0.673755     16.00000 ; qtot 0.000
  3265   hL    84    MY  H14T 3265     0.025511      1.00800 ; qtot 0.026
  3266   cD    84    MY  C114 3266    -0.111712     12.01000 ; qtot -0.086
  3267   hL    84    MY  H14R 3267     0.025511      1.00800 ; qtot -0.061
  3268   hL    84    MY  H14S 3268     0.025511      1.00800 ; qtot -0.035
  3269   cD    84    MY  C113 3269     0.017463     12.01000 ; qtot -0.018
  3270   hL    84    MY  H13R 3270     0.007531      1.00800 ; qtot -0.010
  3271   hL    84    MY  H13S 3271     0.007531      1.00800 ; qtot -0.003
  3272   cD    84    MY  C112 3272    -0.028094     12.01000 ; qtot -0.031
  3273   hL    84    MY  H12R 3273     0.017208      1.00800 ; qtot -0.014
  3274   hL    84    MY  H12S 3274     0.017208      1.00800 ; qtot 0.004
  3275   cD    84    MY  C111 3275    -0.031787     12.01000 ; qtot -0.028
  3276   hL    84    MY  H11R 3276     0.012677      1.00800 ; qtot -0.015
  3277   hL    84    MY  H11S 3277     0.012677      1.00800 ; qtot -0.003
  3278   cD    84    MY  C110 3278    -0.021025     12.01000 ; qtot -0.024
  3279   hL    84    MY  H10R 3279     0.010037      1.00800 ; qtot -0.014
  3280   hL    84    MY  H10S 3280     0.010037      1.00800 ; qtot -0.004
  3281   cD    84    MY   C19 3281    -0.014653     12.01000 ; qtot -0.018
  3282   hL    84    MY   H9R 3282     0.010172      1.00800 ; qtot -0.008
  3283   hL    84    MY   H9S 3283     0.010172      1.00800 ; qtot 0.002
  3284   cD    84    MY   C18 3284    -0.026451     12.01000 ; qtot -0.024
  3285   hL    84    MY   H8R 3285     0.011241      1.00800 ; qtot -0.013
  3286   hL    84    MY   H8S 3286     0.011241      1.00800 ; qtot -0.002
  3287   cD    84    MY   C17 3287    -0.004386     12.01000 ; qtot -0.006
  3288   hL    84    MY   H7R 3288     0.006833      1.00800 ; qtot 0.000
  3289   hL    84    MY   H7S 3289     0.006833      1.00800 ; qtot 0.007
  3290   cD    84    MY   C16 3290    -0.027812     12.01000 ; qtot -0.021
  3291   hL    84    MY   H6R 3291     0.011511      1.00800 ; qtot -0.009
  3292   hL    84    MY   H6S 3292     0.011511      1.00800 ; qtot 0.002
  3293   cD    84    MY   C15 3293    -0.016521     12.01000 ; qtot -0.014
  3294   hL    84    MY   H5R 3294     0.010573      1.00800 ; qtot -0.003
  3295   hL    84    MY   H5S 3295     0.010573      1.00800 ; qtot 0.007
  3296   cD    84    MY   C14 3296    -0.026954     12.01000 ; qtot -0.020
  3297   hL    84    MY   H4R 3297     0.020431      1.00800 ; qtot 0.001
  3298   hL    84    MY   H4S 3298     0.020431      1.00800 ; qtot 0.021
  3299   cD    84    MY   C13 3299    -0.002435     12.01000 ; qtot 0.019
  3300   hL    84    MY   H3R 3300     0.018859      1.00800 ; qtot 0.037
  3301   hL    84    MY   H3S 3301     0.018859      1.00800 ; qtot 0.056
  3302   cD    84    MY   C12 3302    -0.164200     12.01000 ; qtot -0.108
  3303   hL    84    MY   H2R 3303     0.053944      1.00800 ; qtot -0.054
  3304   hL    84    MY   H2S 3304     0.053944      1.00800 ; qtot -0.000
  3305   hL    85    MY  H14T 3305     0.025511      1.00800 ; qtot 0.026
  3306   cD    85    MY  C114 3306    -0.111712     12.01000 ; qtot -0.086
  3307   hL    85    MY  H14R 3307     0.025511      1.00800 ; qtot -0.061
  3308   hL    85    MY  H14S 3308     0.025511      1.00800 ; qtot -0.035
  3309   cD    85    MY  C113 3309     0.017463     12.01000 ; qtot -0.018
  3310   hL    85    MY  H13R 3310     0.007531      1.00800 ; qtot -0.010
  3311   hL    85    MY  H13S 3311     0.007531      1.00800 ; qtot -0.003
  3312   cD    85    MY  C112 3312    -0.028094     12.01000 ; qtot -0.031
  3313   hL    85    MY  H12R 3313     0.017208      1.00800 ; qtot -0.014
  3314   hL    85    MY  H12S 3314     0.017208      1.00800 ; qtot 0.004
  3315   cD    85    MY  C111 3315    -0.031787     12.01000 ; qtot -0.028
  3316   hL    85    MY  H11R 3316     0.012677      1.00800 ; qtot -0.015
  3317   hL    85    MY  H11S 3317     0.012677      1.00800 ; qtot -0.003
  3318   cD    85    MY  C110 3318    -0.021025     12.01000 ; qtot -0.024
  3319   hL    85    MY  H10R 3319     0.010037      1.00800 ; qtot -0.014
  3320   hL    85    MY  H10S 3320     0.010037      1.00800 ; qtot -0.004
  3321   cD    85    MY   C19 3321    -0.014653     12.01000 ; qtot -0.018
  3322   hL    85    MY   H9R 3322     0.010172      1.00800 ; qtot -0.008
  3323   hL    85    MY   H9S 3323     0.010172      1.00800 ; qtot 0.002
  3324   cD    85    MY   C18 3324    -0.026451     12.01000 ; qtot -0.024
  3325   hL    85    MY   H8R 3325     0.011241      1.00800 ; qtot -0.013
  3326   hL    85    MY   H8S 3326     0.011241      1.00800 ; qtot -0.002
  3327   cD    85    MY   C17 3327    -0.004386     12.01000 ; qtot -0.006
  3328   hL    85    MY   H7R 3328     0.006833      1.00800 ; qtot 0.000
  3329   hL    85    MY   H7S 3329     0.006833      1.00800 ; qtot 0.007
  3330   cD    85    MY   C16 3330    -0.027812     12.01000 ; qtot -0.021
  3331   hL    85    MY   H6R 3331     0.011511      1.00800 ; qtot -0.009
  3332   hL    85    MY   H6S 3332     0.011511      1.00800 ; qtot 0.002
  3333   cD    85    MY   C15 3333    -0.016521     12.01000 ; qtot -0.014
  3334   hL    85    MY   H5R 3334     0.010573      1.00800 ; qtot -0.003
  3335   hL    85    MY   H5S 3335     0.010573      1.00800 ; qtot 0.007
  3336   cD    85    MY   C14 3336    -0.026954     12.01000 ; qtot -0.020
  3337   hL    85    MY   H4R 3337     0.020431      1.00800 ; qtot 0.001
  3338   hL    85    MY   H4S 3338     0.020431      1.00800 ; qtot 0.021
  3339   cD    85    MY   C13 3339    -0.002435     12.01000 ; qtot 0.019
  3340   hL    85    MY   H3R 3340     0.018859      1.00800 ; qtot 0.037
  3341   hL    85    MY   H3S 3341     0.018859      1.00800 ; qtot 0.056
  3342   cD    85    MY   C12 3342    -0.164200     12.01000 ; qtot -0.108
  3343   hL    85    MY   H2R 3343     0.053944      1.00800 ; qtot -0.054
  3344   hL    85    MY   H2S 3344     0.053944      1.00800 ; qtot -0.000
  3345   cC    86    PC   C11 3345     0.910403     12.01000 ; qtot 0.910
  3346   oC    86    PC   O12 3346    -0.671566     16.00000 ; qtot 0.239
  3347   oS    86    PC   O11 3347    -0.575489     16.00000 ; qtot -0.337
  3348   cA    86    PC    C1 3348     0.196939     12.01000 ; qtot -0.140
  3349   hE    86    PC    HR 3349     0.070469      1.00800 ; qtot -0.069
  3350   hE    86    PC    HS 3350     0.070469      1.00800 ; qtot 0.001
  3351   cA    86    PC    C2 3351     0.281242     12.01000 ; qtot 0.282
  3352   hE    86    PC    HX 3352     0.063253      1.00800 ; qtot 0.346
  3353   cA    86    PC    C3 3353     0.017459     12.01000 ; qtot 0.363
  3354   hE    86    PC    HA 3354     0.095591      1.00800 ; qtot 0.459
  3355   hE    86    PC    HB 3355     0.095591      1.00800 ; qtot 0.554
  3356   oT    86    PC   O31 3356    -0.509480     16.00000 ; qtot 0.045
  3357   pA    86    PC   P31 3357     1.339721     30.97000 ; qtot 1.385
  3358   oT    86    PC   O32 3358    -0.508176     16.00000 ; qtot 0.876
  3359   cA    86    PC   C31 3359     0.166801     12.01000 ; qtot 1.043
  3360   hE    86    PC   H1A 3360     0.078534      1.00800 ; qtot 1.122
  3361   hE    86    PC   H1B 3361     0.078534      1.00800 ; qtot 1.200
  3362   cA    86    PC   C32 3362    -0.170824     12.01000 ; qtot 1.029
  3363   hX    86    PC   H2A 3363     0.136415      1.00800 ; qtot 1.166
  3364   hX    86    PC   H2B 3364     0.136415      1.00800 ; qtot 1.302
  3365   nA    86    PC   N31 3365     0.245262     14.01000 ; qtot 1.548
  3366   cA    86    PC   C33 3366    -0.338973     12.01000 ; qtot 1.209
  3367   hX    86    PC   H3A 3367     0.172230      1.00800 ; qtot 1.381
  3368   hX    86    PC   H3B 3368     0.172230      1.00800 ; qtot 1.553
  3369   hX    86    PC   H3C 3369     0.172230      1.00800 ; qtot 1.725
  3370   cA    86    PC   C34 3370    -0.338973     12.01000 ; qtot 1.386
  3371   hX    86    PC   H4A 3371     0.172230      1.00800 ; qtot 1.559
  3372   hX    86    PC   H4B 3372     0.172230      1.00800 ; qtot 1.731
  3373   hX    86    PC   H4C 3373     0.172230      1.00800 ; qtot 1.903
  3374   cA    86    PC   C35 3374    -0.338973     12.01000 ; qtot 1.564
  3375   hX    86    PC   H5A 3375     0.172230      1.00800 ; qtot 1.736
  3376   hX    86    PC   H5B 3376     0.172230      1.00800 ; qtot 1.908
  3377   hX    86    PC   H5C 3377     0.172230      1.00800 ; qtot 2.081
  3378   oP    86    PC   O33 3378    -0.875812     16.00000 ; qtot 1.205
  3379   oP    86    PC   O34 3379    -0.875812     16.00000 ; qtot 0.329
  3380   oS    86    PC   O21 3380    -0.552948     16.00000 ; qtot -0.224
  3381   cC    86    PC   C21 3381     0.897613     12.01000 ; qtot 0.674
  3382   oC    86    PC   O22 3382    -0.673755     16.00000 ; qtot 0.000
  3383   hL    87    MY  H14T 3383     0.025511      1.00800 ; qtot 0.026
  3384   cD    87    MY  C114 3384    -0.111712     12.01000 ; qtot -0.086
  3385   hL    87    MY  H14R 3385     0.025511      1.00800 ; qtot -0.061
  3386   hL    87    MY  H14S 3386     0.025511      1.00800 ; qtot -0.035
  3387   cD    87    MY  C113 3387     0.017463     12.01000 ; qtot -0.018
  3388   hL    87    MY  H13R 3388     0.007531      1.00800 ; qtot -0.010
  3389   hL    87    MY  H13S 3389     0.007531      1.00800 ; qtot -0.003
  3390   cD    87    MY  C112 3390    -0.028094     12.01000 ; qtot -0.031
  3391   hL    87    MY  H12R 3391     0.017208      1.00800 ; qtot -0.014
  3392   hL    87    MY  H12S 3392     0.017208      1.00800 ; qtot 0.004
  3393   cD    87    MY  C111 3393    -0.031787     12.01000 ; qtot -0.028
  3394   hL    87    MY  H11R 3394     0.012677      1.00800 ; qtot -0.015
  3395   hL    87    MY  H11S 3395     0.012677      1.00800 ; qtot -0.003
  3396   cD    87    MY  C110 3396    -0.021025     12.01000 ; qtot -0.024
  3397   hL    87    MY  H10R 3397     0.010037      1.00800 ; qtot -0.014
  3398   hL    87    MY  H10S 3398     0.010037      1.00800 ; qtot -0.004
  3399   cD    87    MY   C19 3399    -0.014653     12.01000 ; qtot -0.018
  3400   hL    87    MY   H9R 3400     0.010172      1.00800 ; qtot -0.008
  3401   hL    87    MY   H9S 3401     0.010172      1.00800 ; qtot 0.002
  3402   cD    87    MY   C18 3402    -0.026451     12.01000 ; qtot -0.024
  3403   hL    87    MY   H8R 3403     0.011241      1.00800 ; qtot -0.013
  3404   hL    87    MY   H8S 3404     0.011241      1.00800 ; qtot -0.002
  3405   cD    87    MY   C17 3405    -0.004386     12.01000 ; qtot -0.006
  3406   hL    87    MY   H7R 3406     0.006833      1.00800 ; qtot 0.000
  3407   hL    87    MY   H7S 3407     0.006833      1.00800 ; qtot 0.007
  3408   cD    87    MY   C16 3408    -0.027812     12.01000 ; qtot -0.021
  3409   hL    87    MY   H6R 3409     0.011511      1.00800 ; qtot -0.009
  3410   hL    87    MY   H6S 3410     0.011511      1.00800 ; qtot 0.002
  3411   cD    87    MY   C15 3411    -0.016521     12.01000 ; qtot -0.014
  3412   hL    87    MY   H5R 3412     0.010573      1.00800 ; qtot -0.003
  3413   hL    87    MY   H5S 3413     0.010573      1.00800 ; qtot 0.007
  3414   cD    87    MY   C14 3414    -0.026954     12.01000 ; qtot -0.020
  3415   hL    87    MY   H4R 3415     0.020431      1.00800 ; qtot 0.001
  3416   hL    87    MY   H4S 3416     0.020431      1.00800 ; qtot 0.021
  3417   cD    87    MY   C13 3417    -0.002435     12.01000 ; qtot 0.019
  3418   hL    87    MY   H3R 3418     0.018859      1.00800 ; qtot 0.037
  3419   hL    87    MY   H3S 3419     0.018859      1.00800 ; qtot 0.056
  3420   cD    87    MY   C12 3420    -0.164200     12.01000 ; qtot -0.108
  3421   hL    87    MY   H2R 3421     0.053944      1.00800 ; qtot -0.054
  3422   hL    87    MY   H2S 3422     0.053944      1.00800 ; qtot -0.000
  3423   hL    88    MY  H14T 3423     0.025511      1.00800 ; qtot 0.026
  3424   cD    88    MY  C114 3424    -0.111712     12.01000 ; qtot -0.086
  3425   hL    88    MY  H14R 3425     0.025511      1.00800 ; qtot -0.061
  3426   hL    88    MY  H14S 3426     0.025511      1.00800 ; qtot -0.035
  3427   cD    88    MY  C113 3427     0.017463     12.01000 ; qtot -0.018
  3428   hL    88    MY  H13R 3428     0.007531      1.00800 ; qtot -0.010
  3429   hL    88    MY  H13S 3429     0.007531      1.00800 ; qtot -0.003
  3430   cD    88    MY  C112 3430    -0.028094     12.01000 ; qtot -0.031
  3431   hL    88    MY  H12R 3431     0.017208      1.00800 ; qtot -0.014
  3432   hL    88    MY  H12S 3432     0.017208      1.00800 ; qtot 0.004
  3433   cD    88    MY  C111 3433    -0.031787     12.01000 ; qtot -0.028
  3434   hL    88    MY  H11R 3434     0.012677      1.00800 ; qtot -0.015
  3435   hL    88    MY  H11S 3435     0.012677      1.00800 ; qtot -0.003
  3436   cD    88    MY  C110 3436    -0.021025     12.01000 ; qtot -0.024
  3437   hL    88    MY  H10R 3437     0.010037      1.00800 ; qtot -0.014
  3438   hL    88    MY  H10S 3438     0.010037      1.00800 ; qtot -0.004
  3439   cD    88    MY   C19 3439    -0.014653     12.01000 ; qtot -0.018
  3440   hL    88    MY   H9R 3440     0.010172      1.00800 ; qtot -0.008
  3441   hL    88    MY   H9S 3441     0.010172      1.00800 ; qtot 0.002
  3442   cD    88    MY   C18 3442    -0.026451     12.01000 ; qtot -0.024
  3443   hL    88    MY   H8R 3443     0.011241      1.00800 ; qtot -0.013
  3444   hL    88    MY   H8S 3444     0.011241      1.00800 ; qtot -0.002
  3445   cD    88    MY   C17 3445    -0.004386     12.01000 ; qtot -0.006
  3446   hL    88    MY   H7R 3446     0.006833      1.00800 ; qtot 0.000
  3447   hL    88    MY   H7S 3447     0.006833      1.00800 ; qtot 0.007
  3448   cD    88    MY   C16 3448    -0.027812     12.01000 ; qtot -0.021
  3449   hL    88    MY   H6R 3449     0.011511      1.00800 ; qtot -0.009
  3450   hL    88    MY   H6S 3450     0.011511      1.00800 ; qtot 0.002
  3451   cD    88    MY   C15 3451    -0.016521     12.01000 ; qtot -0.014
  3452   hL    88    MY   H5R 3452     0.010573      1.00800 ; qtot -0.003
  3453   hL    88    MY   H5S 3453     0.010573      1.00800 ; qtot 0.007
  3454   cD    88    MY   C14 3454    -0.026954     12.01000 ; qtot -0.020
  3455   hL    88    MY   H4R 3455     0.020431      1.00800 ; qtot 0.001
  3456   hL    88    MY   H4S 3456     0.020431      1.00800 ; qtot 0.021
  3457   cD    88    MY   C13 3457    -0.002435     12.01000 ; qtot 0.019
  3458   hL    88    MY   H3R 3458     0.018859      1.00800 ; qtot 0.037
  3459   hL    88    MY   H3S 3459     0.018859      1.00800 ; qtot 0.056
  3460   cD    88    MY   C12 3460    -0.164200     12.01000 ; qtot -0.108
  3461   hL    88    MY   H2R 3461     0.053944      1.00800 ; qtot -0.054
  3462   hL    88    MY   H2S 3462     0.053944      1.00800 ; qtot -0.000
  3463   cC    89    PC   C11 3463     0.910403     12.01000 ; qtot 0.910
  3464   oC    89    PC   O12 3464    -0.671566     16.00000 ; qtot 0.239
  3465   oS    89    PC   O11 3465    -0.575489     16.00000 ; qtot -0.337
  3466   cA    89    PC    C1 3466     0.196939     12.01000 ; qtot -0.140
  3467   hE    89    PC    HR 3467     0.070469      1.00800 ; qtot -0.069
  3468   hE    89    PC    HS 3468     0.070469      1.00800 ; qtot 0.001
  3469   cA    89    PC    C2 3469     0.281242     12.01000 ; qtot 0.282
  3470   hE    89    PC    HX 3470     0.063253      1.00800 ; qtot 0.346
  3471   cA    89    PC    C3 3471     0.017459     12.01000 ; qtot 0.363
  3472   hE    89    PC    HA 3472     0.095591      1.00800 ; qtot 0.459
  3473   hE    89    PC    HB 3473     0.095591      1.00800 ; qtot 0.554
  3474   oT    89    PC   O31 3474    -0.509480     16.00000 ; qtot 0.045
  3475   pA    89    PC   P31 3475     1.339721     30.97000 ; qtot 1.385
  3476   oT    89    PC   O32 3476    -0.508176     16.00000 ; qtot 0.876
  3477   cA    89    PC   C31 3477     0.166801     12.01000 ; qtot 1.043
  3478   hE    89    PC   H1A 3478     0.078534      1.00800 ; qtot 1.122
  3479   hE    89    PC   H1B 3479     0.078534      1.00800 ; qtot 1.200
  3480   cA    89    PC   C32 3480    -0.170824     12.01000 ; qtot 1.029
  3481   hX    89    PC   H2A 3481     0.136415      1.00800 ; qtot 1.166
  3482   hX    89    PC   H2B 3482     0.136415      1.00800 ; qtot 1.302
  3483   nA    89    PC   N31 3483     0.245262     14.01000 ; qtot 1.548
  3484   cA    89    PC   C33 3484    -0.338973     12.01000 ; qtot 1.209
  3485   hX    89    PC   H3A 3485     0.172230      1.00800 ; qtot 1.381
  3486   hX    89    PC   H3B 3486     0.172230      1.00800 ; qtot 1.553
  3487   hX    89    PC   H3C 3487     0.172230      1.00800 ; qtot 1.725
  3488   cA    89    PC   C34 3488    -0.338973     12.01000 ; qtot 1.386
  3489   hX    89    PC   H4A 3489     0.172230      1.00800 ; qtot 1.559
  3490   hX    89    PC   H4B 3490     0.172230      1.00800 ; qtot 1.731
  3491   hX    89    PC   H4C 3491     0.172230      1.00800 ; qtot 1.903
  3492   cA    89    PC   C35 3492    -0.338973     12.01000 ; qtot 1.564
  3493   hX    89    PC   H5A 3493     0.172230      1.00800 ; qtot 1.736
  3494   hX    89    PC   H5B 3494     0.172230      1.00800 ; qtot 1.908
  3495   hX    89    PC   H5C 3495     0.172230      1.00800 ; qtot 2.081
  3496   oP    89    PC   O33 3496    -0.875812     16.00000 ; qtot 1.205
  3497   oP    89    PC   O34 3497    -0.875812     16.00000 ; qtot 0.329
  3498   oS    89    PC   O21 3498    -0.552948     16.00000 ; qtot -0.224
  3499   cC    89    PC   C21 3499     0.897613     12.01000 ; qtot 0.674
  3500   oC    89    PC   O22 3500    -0.673755     16.00000 ; qtot 0.000
  3501   hL    90    MY  H14T 3501     0.025511      1.00800 ; qtot 0.026
  3502   cD    90    MY  C114 3502    -0.111712     12.01000 ; qtot -0.086
  3503   hL    90    MY  H14R 3503     0.025511      1.00800 ; qtot -0.061
  3504   hL    90    MY  H14S 3504     0.025511      1.00800 ; qtot -0.035
  3505   cD    90    MY  C113 3505     0.017463     12.01000 ; qtot -0.018
  3506   hL    90    MY  H13R 3506     0.007531      1.00800 ; qtot -0.010
  3507   hL    90    MY  H13S 3507     0.007531      1.00800 ; qtot -0.003
  3508   cD    90    MY  C112 3508    -0.028094     12.01000 ; qtot -0.031
  3509   hL    90    MY  H12R 3509     0.017208      1.00800 ; qtot -0.014
  3510   hL    90    MY  H12S 3510     0.017208      1.00800 ; qtot 0.004
  3511   cD    90    MY  C111 3511    -0.031787     12.01000 ; qtot -0.028
  3512   hL    90    MY  H11R 3512     0.012677      1.00800 ; qtot -0.015
  3513   hL    90    MY  H11S 3513     0.012677      1.00800 ; qtot -0.003
  3514   cD    90    MY  C110 3514    -0.021025     12.01000 ; qtot -0.024
  3515   hL    90    MY  H10R 3515     0.010037      1.00800 ; qtot -0.014
  3516   hL    90    MY  H10S 3516     0.010037      1.00800 ; qtot -0.004
  3517   cD    90    MY   C19 3517    -0.014653     12.01000 ; qtot -0.018
  3518   hL    90    MY   H9R 3518     0.010172      1.00800 ; qtot -0.008
  3519   hL    90    MY   H9S 3519     0.010172      1.00800 ; qtot 0.002
  3520   cD    90    MY   C18 3520    -0.026451     12.01000 ; qtot -0.024
  3521   hL    90    MY   H8R 3521     0.011241      1.00800 ; qtot -0.013
  3522   hL    90    MY   H8S 3522     0.011241      1.00800 ; qtot -0.002
  3523   cD    90    MY   C17 3523    -0.004386     12.01000 ; qtot -0.006
  3524   hL    90    MY   H7R 3524     0.006833      1.00800 ; qtot 0.000
  3525   hL    90    MY   H7S 3525     0.006833      1.00800 ; qtot 0.007
  3526   cD    90    MY   C16 3526    -0.027812     12.01000 ; qtot -0.021
  3527   hL    90    MY   H6R 3527     0.011511      1.00800 ; qtot -0.009
  3528   hL    90    MY   H6S 3528     0.011511      1.00800 ; qtot 0.002
  3529   cD    90    MY   C15 3529    -0.016521     12.01000 ; qtot -0.014
  3530   hL    90    MY   H5R 3530     0.010573      1.00800 ; qtot -0.003
  3531   hL    90    MY   H5S 3531     0.010573      1.00800 ; qtot 0.007
  3532   cD    90    MY   C14 3532    -0.026954     12.01000 ; qtot -0.020
  3533   hL    90    MY   H4R 3533     0.020431      1.00800 ; qtot 0.001
  3534   hL    90    MY   H4S 3534     0.020431      1.00800 ; qtot 0.021
  3535   cD    90    MY   C13 3535    -0.002435     12.01000 ; qtot 0.019
  3536   hL    90    MY   H3R 3536     0.018859      1.00800 ; qtot 0.037
  3537   hL    90    MY   H3S 3537     0.018859      1.00800 ; qtot 0.056
  3538   cD    90    MY   C12 3538    -0.164200     12.01000 ; qtot -0.108
  3539   hL    90    MY   H2R 3539     0.053944      1.00800 ; qtot -0.054
  3540   hL    90    MY   H2S 3540     0.053944      1.00800 ; qtot -0.000
  3541   hL    91    MY  H14T 3541     0.025511      1.00800 ; qtot 0.026
  3542   cD    91    MY  C114 3542    -0.111712     12.01000 ; qtot -0.086
  3543   hL    91    MY  H14R 3543     0.025511      1.00800 ; qtot -0.061
  3544   hL    91    MY  H14S 3544     0.025511      1.00800 ; qtot -0.035
  3545   cD    91    MY  C113 3545     0.017463     12.01000 ; qtot -0.018
  3546   hL    91    MY  H13R 3546     0.007531      1.00800 ; qtot -0.010
  3547   hL    91    MY  H13S 3547     0.007531      1.00800 ; qtot -0.003
  3548   cD    91    MY  C112 3548    -0.028094     12.01000 ; qtot -0.031
  3549   hL    91    MY  H12R 3549     0.017208      1.00800 ; qtot -0.014
  3550   hL    91    MY  H12S 3550     0.017208      1.00800 ; qtot 0.004
  3551   cD    91    MY  C111 3551    -0.031787     12.01000 ; qtot -0.028
  3552   hL    91    MY  H11R 3552     0.012677      1.00800 ; qtot -0.015
  3553   hL    91    MY  H11S 3553     0.012677      1.00800 ; qtot -0.003
  3554   cD    91    MY  C110 3554    -0.021025     12.01000 ; qtot -0.024
  3555   hL    91    MY  H10R 3555     0.010037      1.00800 ; qtot -0.014
  3556   hL    91    MY  H10S 3556     0.010037      1.00800 ; qtot -0.004
  3557   cD    91    MY   C19 3557    -0.014653     12.01000 ; qtot -0.018
  3558   hL    91    MY   H9R 3558     0.010172      1.00800 ; qtot -0.008
  3559   hL    91    MY   H9S 3559     0.010172      1.00800 ; qtot 0.002
  3560   cD    91    MY   C18 3560    -0.026451     12.01000 ; qtot -0.024
  3561   hL    91    MY   H8R 3561     0.011241      1.00800 ; qtot -0.013
  3562   hL    91    MY   H8S 3562     0.011241      1.00800 ; qtot -0.002
  3563   cD    91    MY   C17 3563    -0.004386     12.01000 ; qtot -0.006
  3564   hL    91    MY   H7R 3564     0.006833      1.00800 ; qtot 0.000
  3565   hL    91    MY   H7S 3565     0.006833      1.00800 ; qtot 0.007
  3566   cD    91    MY   C16 3566    -0.027812     12.01000 ; qtot -0.021
  3567   hL    91    MY   H6R 3567     0.011511      1.00800 ; qtot -0.009
  3568   hL    91    MY   H6S 3568     0.011511      1.00800 ; qtot 0.002
  3569   cD    91    MY   C15 3569    -0.016521     12.01000 ; qtot -0.014
  3570   hL    91    MY   H5R 3570     0.010573      1.00800 ; qtot -0.003
  3571   hL    91    MY   H5S 3571     0.010573      1.00800 ; qtot 0.007
  3572   cD    91    MY   C14 3572    -0.026954     12.01000 ; qtot -0.020
  3573   hL    91    MY   H4R 3573     0.020431      1.00800 ; qtot 0.001
  3574   hL    91    MY   H4S 3574     0.020431      1.00800 ; qtot 0.021
  3575   cD    91    MY   C13 3575    -0.002435     12.01000 ; qtot 0.019
  3576   hL    91    MY   H3R 3576     0.018859      1.00800 ; qtot 0.037
  3577   hL    91    MY   H3S 3577     0.018859      1.00800 ; qtot 0.056
  3578   cD    91    MY   C12 3578    -0.164200     12.01000 ; qtot -0.108
  3579   hL    91    MY   H2R 3579     0.053944      1.00800 ; qtot -0.054
  3580   hL    91    MY   H2S 3580     0.053944      1.00800 ; qtot -0.000
  3581   cC    92    PC   C11 3581     0.910403     12.01000 ; qtot 0.910
  3582   oC    92    PC   O12 3582    -0.671566     16.00000 ; qtot 0.239
  3583   oS    92    PC   O11 3583    -0.575489     16.00000 ; qtot -0.337
  3584   cA    92    PC    C1 3584     0.196939     12.01000 ; qtot -0.140
  3585   hE    92    PC    HR 3585     0.070469      1.00800 ; qtot -0.069
  3586   hE    92    PC    HS 3586     0.070469      1.00800 ; qtot 0.001
  3587   cA    92    PC    C2 3587     0.281242     12.01000 ; qtot 0.282
  3588   hE    92    PC    HX 3588     0.063253      1.00800 ; qtot 0.346
  3589   cA    92    PC    C3 3589     0.017459     12.01000 ; qtot 0.363
  3590   hE    92    PC    HA 3590     0.095591      1.00800 ; qtot 0.459
  3591   hE    92    PC    HB 3591     0.095591      1.00800 ; qtot 0.554
  3592   oT    92    PC   O31 3592    -0.509480     16.00000 ; qtot 0.045
  3593   pA    92    PC   P31 3593     1.339721     30.97000 ; qtot 1.385
  3594   oT    92    PC   O32 3594    -0.508176     16.00000 ; qtot 0.876
  3595   cA    92    PC   C31 3595     0.166801     12.01000 ; qtot 1.043
  3596   hE    92    PC   H1A 3596     0.078534      1.00800 ; qtot 1.122
  3597   hE    92    PC   H1B 3597     0.078534      1.00800 ; qtot 1.200
  3598   cA    92    PC   C32 3598    -0.170824     12.01000 ; qtot 1.029
  3599   hX    92    PC   H2A 3599     0.136415      1.00800 ; qtot 1.166
  3600   hX    92    PC   H2B 3600     0.136415      1.00800 ; qtot 1.302
  3601   nA    92    PC   N31 3601     0.245262     14.01000 ; qtot 1.548
  3602   cA    92    PC   C33 3602    -0.338973     12.01000 ; qtot 1.209
  3603   hX    92    PC   H3A 3603     0.172230      1.00800 ; qtot 1.381
  3604   hX    92    PC   H3B 3604     0.172230      1.00800 ; qtot 1.553
  3605   hX    92    PC   H3C 3605     0.172230      1.00800 ; qtot 1.725
  3606   cA    92    PC   C34 3606    -0.338973     12.01000 ; qtot 1.386
  3607   hX    92    PC   H4A 3607     0.172230      1.00800 ; qtot 1.559
  3608   hX    92    PC   H4B 3608     0.172230      1.00800 ; qtot 1.731
  3609   hX    92    PC   H4C 3609     0.172230      1.00800 ; qtot 1.903
  3610   cA    92    PC   C35 3610    -0.338973     12.01000 ; qtot 1.564
  3611   hX    92    PC   H5A 3611     0.172230      1.00800 ; qtot 1.736
  3612   hX    92    PC   H5B 3612     0.172230      1.00800 ; qtot 1.908
  3613   hX    92    PC   H5C 3613     0.172230      1.00800 ; qtot 2.081
  3614   oP    92    PC   O33 3614    -0.875812     16.00000 ; qtot 1.205
  3615   oP    92    PC   O34 3615    -0.875812     16.00000 ; qtot 0.329
  3616   oS    92    PC   O21 3616    -0.552948     16.00000 ; qtot -0.224
  3617   cC    92    PC   C21 3617     0.897613     12.01000 ; qtot 0.674
  3618   oC    92    PC   O22 3618    -0.673755     16.00000 ; qtot 0.000
  3619   hL    93    MY  H14T 3619     0.025511      1.00800 ; qtot 0.026
  3620   cD    93    MY  C114 3620    -0.111712     12.01000 ; qtot -0.086
  3621   hL    93    MY  H14R 3621     0.025511      1.00800 ; qtot -0.061
  3622   hL    93    MY  H14S 3622     0.025511      1.00800 ; qtot -0.035
  3623   cD    93    MY  C113 3623     0.017463     12.01000 ; qtot -0.018
  3624   hL    93    MY  H13R 3624     0.007531      1.00800 ; qtot -0.010
  3625   hL    93    MY  H13S 3625     0.007531      1.00800 ; qtot -0.003
  3626   cD    93    MY  C112 3626    -0.028094     12.01000 ; qtot -0.031
  3627   hL    93    MY  H12R 3627     0.017208      1.00800 ; qtot -0.014
  3628   hL    93    MY  H12S 3628     0.017208      1.00800 ; qtot 0.004
  3629   cD    93    MY  C111 3629    -0.031787     12.01000 ; qtot -0.028
  3630   hL    93    MY  H11R 3630     0.012677      1.00800 ; qtot -0.015
  3631   hL    93    MY  H11S 3631     0.012677      1.00800 ; qtot -0.003
  3632   cD    93    MY  C110 3632    -0.021025     12.01000 ; qtot -0.024
  3633   hL    93    MY  H10R 3633     0.010037      1.00800 ; qtot -0.014
  3634   hL    93    MY  H10S 3634     0.010037      1.00800 ; qtot -0.004
  3635   cD    93    MY   C19 3635    -0.014653     12.01000 ; qtot -0.018
  3636   hL    93    MY   H9R 3636     0.010172      1.00800 ; qtot -0.008
  3637   hL    93    MY   H9S 3637     0.010172      1.00800 ; qtot 0.002
  3638   cD    93    MY   C18 3638    -0.026451     12.01000 ; qtot -0.024
  3639   hL    93    MY   H8R 3639     0.011241      1.00800 ; qtot -0.013
  3640   hL    93    MY   H8S 3640     0.011241      1.00800 ; qtot -0.002
  3641   cD    93    MY   C17 3641    -0.004386     12.01000 ; qtot -0.006
  3642   hL    93    MY   H7R 3642     0.006833      1.00800 ; qtot 0.000
  3643   hL    93    MY   H7S 3643     0.006833      1.00800 ; qtot 0.007
  3644   cD    93    MY   C16 3644    -0.027812     12.01000 ; qtot -0.021
  3645   hL    93    MY   H6R 3645     0.011511      1.00800 ; qtot -0.009
  3646   hL    93    MY   H6S 3646     0.011511      1.00800 ; qtot 0.002
  3647   cD    93    MY   C15 3647    -0.016521     12.01000 ; qtot -0.014
  3648   hL    93    MY   H5R 3648     0.010573      1.00800 ; qtot -0.003
  3649   hL    93    MY   H5S 3649     0.010573      1.00800 ; qtot 0.007
  3650   cD    93    MY   C14 3650    -0.026954     12.01000 ; qtot -0.020
  3651   hL    93    MY   H4R 3651     0.020431      1.00800 ; qtot 0.001
  3652   hL    93    MY   H4S 3652     0.020431      1.00800 ; qtot 0.021
  3653   cD    93    MY   C13 3653    -0.002435     12.01000 ; qtot 0.019
  3654   hL    93    MY   H3R 3654     0.018859      1.00800 ; qtot 0.037
  3655   hL    93    MY   H3S 3655     0.018859      1.00800 ; qtot 0.056
  3656   cD    93    MY   C12 3656    -0.164200     12.01000 ; qtot -0.108
  3657   hL    93    MY   H2R 3657     0.053944      1.00800 ; qtot -0.054
  3658   hL    93    MY   H2S 3658     0.053944      1.00800 ; qtot -0.000
  3659   hL    94    MY  H14T 3659     0.025511      1.00800 ; qtot 0.026
  3660   cD    94    MY  C114 3660    -0.111712     12.01000 ; qtot -0.086
  3661   hL    94    MY  H14R 3661     0.025511      1.00800 ; qtot -0.061
  3662   hL    94    MY  H14S 3662     0.025511      1.00800 ; qtot -0.035
  3663   cD    94    MY  C113 3663     0.017463     12.01000 ; qtot -0.018
  3664   hL    94    MY  H13R 3664     0.007531      1.00800 ; qtot -0.010
  3665   hL    94    MY  H13S 3665     0.007531      1.00800 ; qtot -0.003
  3666   cD    94    MY  C112 3666    -0.028094     12.01000 ; qtot -0.031
  3667   hL    94    MY  H12R 3667     0.017208      1.00800 ; qtot -0.014
  3668   hL    94    MY  H12S 3668     0.017208      1.00800 ; qtot 0.004
  3669   cD    94    MY  C111 3669    -0.031787     12.01000 ; qtot -0.028
  3670   hL    94    MY  H11R 3670     0.012677      1.00800 ; qtot -0.015
  3671   hL    94    MY  H11S 3671     0.012677      1.00800 ; qtot -0.003
  3672   cD    94    MY  C110 3672    -0.021025     12.01000 ; qtot -0.024
  3673   hL    94    MY  H10R 3673     0.010037      1.00800 ; qtot -0.014
  3674   hL    94    MY  H10S 3674     0.010037      1.00800 ; qtot -0.004
  3675   cD    94    MY   C19 3675    -0.014653     12.01000 ; qtot -0.018
  3676   hL    94    MY   H9R 3676     0.010172      1.00800 ; qtot -0.008
  3677   hL    94    MY   H9S 3677     0.010172      1.00800 ; qtot 0.002
  3678   cD    94    MY   C18 3678    -0.026451     12.01000 ; qtot -0.024
  3679   hL    94    MY   H8R 3679     0.011241      1.00800 ; qtot -0.013
  3680   hL    94    MY   H8S 3680     0.011241      1.00800 ; qtot -0.002
  3681   cD    94    MY   C17 3681    -0.004386     12.01000 ; qtot -0.006
  3682   hL    94    MY   H7R 3682     0.006833      1.00800 ; qtot 0.000
  3683   hL    94    MY   H7S 3683     0.006833      1.00800 ; qtot 0.007
  3684   cD    94    MY   C16 3684    -0.027812     12.01000 ; qtot -0.021
  3685   hL    94    MY   H6R 3685     0.011511      1.00800 ; qtot -0.009
  3686   hL    94    MY   H6S 3686     0.011511      1.00800 ; qtot 0.002
  3687   cD    94    MY   C15 3687    -0.016521     12.01000 ; qtot -0.014
  3688   hL    94    MY   H5R 3688     0.010573      1.00800 ; qtot -0.003
  3689   hL    94    MY   H5S 3689     0.010573      1.00800 ; qtot 0.007
  3690   cD    94    MY   C14 3690    -0.026954     12.01000 ; qtot -0.020
  3691   hL    94    MY   H4R 3691     0.020431      1.00800 ; qtot 0.001
  3692   hL    94    MY   H4S 3692     0.020431      1.00800 ; qtot 0.021
  3693   cD    94    MY   C13 3693    -0.002435     12.01000 ; qtot 0.019
  3694   hL    94    MY   H3R 3694     0.018859      1.00800 ; qtot 0.037
  3695   hL    94    MY   H3S 3695     0.018859      1.00800 ; qtot 0.056
  3696   cD    94    MY   C12 3696    -0.164200     12.01000 ; qtot -0.108
  3697   hL    94    MY   H2R 3697     0.053944      1.00800 ; qtot -0.054
  3698   hL    94    MY   H2S 3698     0.053944      1.00800 ; qtot -0.000
  3699   cC    95    PC   C11 3699     0.910403     12.01000 ; qtot 0.910
  3700   oC    95    PC   O12 3700    -0.671566     16.00000 ; qtot 0.239
  3701   oS    95    PC   O11 3701    -0.575489     16.00000 ; qtot -0.337
  3702   cA    95    PC    C1 3702     0.196939     12.01000 ; qtot -0.140
  3703   hE    95    PC    HR 3703     0.070469      1.00800 ; qtot -0.069
  3704   hE    95    PC    HS 3704     0.070469      1.00800 ; qtot 0.001
  3705   cA    95    PC    C2 3705     0.281242     12.01000 ; qtot 0.282
  3706   hE    95    PC    HX 3706     0.063253      1.00800 ; qtot 0.346
  3707   cA    95    PC    C3 3707     0.017459     12.01000 ; qtot 0.363
  3708   hE    95    PC    HA 3708     0.095591      1.00800 ; qtot 0.459
  3709   hE    95    PC    HB 3709     0.095591      1.00800 ; qtot 0.554
  3710   oT    95    PC   O31 3710    -0.509480     16.00000 ; qtot 0.045
  3711   pA    95    PC   P31 3711     1.339721     30.97000 ; qtot 1.385
  3712   oT    95    PC   O32 3712    -0.508176     16.00000 ; qtot 0.876
  3713   cA    95    PC   C31 3713     0.166801     12.01000 ; qtot 1.043
  3714   hE    95    PC   H1A 3714     0.078534      1.00800 ; qtot 1.122
  3715   hE    95    PC   H1B 3715     0.078534      1.00800 ; qtot 1.200
  3716   cA    95    PC   C32 3716    -0.170824     12.01000 ; qtot 1.029
  3717   hX    95    PC   H2A 3717     0.136415      1.00800 ; qtot 1.166
  3718   hX    95    PC   H2B 3718     0.136415      1.00800 ; qtot 1.302
  3719   nA    95    PC   N31 3719     0.245262     14.01000 ; qtot 1.548
  3720   cA    95    PC   C33 3720    -0.338973     12.01000 ; qtot 1.209
  3721   hX    95    PC   H3A 3721     0.172230      1.00800 ; qtot 1.381
  3722   hX    95    PC   H3B 3722     0.172230      1.00800 ; qtot 1.553
  3723   hX    95    PC   H3C 3723     0.172230      1.00800 ; qtot 1.725
  3724   cA    95    PC   C34 3724    -0.338973     12.01000 ; qtot 1.386
  3725   hX    95    PC   H4A 3725     0.172230      1.00800 ; qtot 1.559
  3726   hX    95    PC   H4B 3726     0.172230      1.00800 ; qtot 1.731
  3727   hX    95    PC   H4C 3727     0.172230      1.00800 ; qtot 1.903
  3728   cA    95    PC   C35 3728    -0.338973     12.01000 ; qtot 1.564
  3729   hX    95    PC   H5A 3729     0.172230      1.00800 ; qtot 1.736
  3730   hX    95    PC   H5B 3730     0.172230      1.00800 ; qtot 1.908
  3731   hX    95    PC   H5C 3731     0.172230      1.00800 ; qtot 2.081
  3732   oP    95    PC   O33 3732    -0.875812     16.00000 ; qtot 1.205
  3733   oP    95    PC   O34 3733    -0.875812     16.00000 ; qtot 0.329
  3734   oS    95    PC   O21 3734    -0.552948     16.00000 ; qtot -0.224
  3735   cC    95    PC   C21 3735     0.897613     12.01000 ; qtot 0.674
  3736   oC    95    PC   O22 3736    -0.673755     16.00000 ; qtot 0.000
  3737   hL    96    MY  H14T 3737     0.025511      1.00800 ; qtot 0.026
  3738   cD    96    MY  C114 3738    -0.111712     12.01000 ; qtot -0.086
  3739   hL    96    MY  H14R 3739     0.025511      1.00800 ; qtot -0.061
  3740   hL    96    MY  H14S 3740     0.025511      1.00800 ; qtot -0.035
  3741   cD    96    MY  C113 3741     0.017463     12.01000 ; qtot -0.018
  3742   hL    96    MY  H13R 3742     0.007531      1.00800 ; qtot -0.010
  3743   hL    96    MY  H13S 3743     0.007531      1.00800 ; qtot -0.003
  3744   cD    96    MY  C112 3744    -0.028094     12.01000 ; qtot -0.031
  3745   hL    96    MY  H12R 3745     0.017208      1.00800 ; qtot -0.014
  3746   hL    96    MY  H12S 3746     0.017208      1.00800 ; qtot 0.004
  3747   cD    96    MY  C111 3747    -0.031787     12.01000 ; qtot -0.028
  3748   hL    96    MY  H11R 3748     0.012677      1.00800 ; qtot -0.015
  3749   hL    96    MY  H11S 3749     0.012677      1.00800 ; qtot -0.003
  3750   cD    96    MY  C110 3750    -0.021025     12.01000 ; qtot -0.024
  3751   hL    96    MY  H10R 3751     0.010037      1.00800 ; qtot -0.014
  3752   hL    96    MY  H10S 3752     0.010037      1.00800 ; qtot -0.004
  3753   cD    96    MY   C19 3753    -0.014653     12.01000 ; qtot -0.018
  3754   hL    96    MY   H9R 3754     0.010172      1.00800 ; qtot -0.008
  3755   hL    96    MY   H9S 3755     0.010172      1.00800 ; qtot 0.002
  3756   cD    96    MY   C18 3756    -0.026451     12.01000 ; qtot -0.024
  3757   hL    96    MY   H8R 3757     0.011241      1.00800 ; qtot -0.013
  3758   hL    96    MY   H8S 3758     0.011241      1.00800 ; qtot -0.002
  3759   cD    96    MY   C17 3759    -0.004386     12.01000 ; qtot -0.006
  3760   hL    96    MY   H7R 3760     0.006833      1.00800 ; qtot 0.000
  3761   hL    96    MY   H7S 3761     0.006833      1.00800 ; qtot 0.007
  3762   cD    96    MY   C16 3762    -0.027812     12.01000 ; qtot -0.021
  3763   hL    96    MY   H6R 3763     0.011511      1.00800 ; qtot -0.009
  3764   hL    96    MY   H6S 3764     0.011511      1.00800 ; qtot 0.002
  3765   cD    96    MY   C15 3765    -0.016521     12.01000 ; qtot -0.014
  3766   hL    96    MY   H5R 3766     0.010573      1.00800 ; qtot -0.003
  3767   hL    96    MY   H5S 3767     0.010573      1.00800 ; qtot 0.007
  3768   cD    96    MY   C14 3768    -0.026954     12.01000 ; qtot -0.020
  3769   hL    96    MY   H4R 3769     0.020431      1.00800 ; qtot 0.001
  3770   hL    96    MY   H4S 3770     0.020431      1.00800 ; qtot 0.021
  3771   cD    96    MY   C13 3771    -0.002435     12.01000 ; qtot 0.019
  3772   hL    96    MY   H3R 3772     0.018859      1.00800 ; qtot 0.037
  3773   hL    96    MY   H3S 3773     0.018859      1.00800 ; qtot 0.056
  3774   cD    96    MY   C12 3774    -0.164200     12.01000 ; qtot -0.108
  3775   hL    96    MY   H2R 3775     0.053944      1.00800 ; qtot -0.054
  3776   hL    96    MY   H2S 3776     0.053944      1.00800 ; qtot -0.000
  3777   hL    97    MY  H14T 3777     0.025511      1.00800 ; qtot 0.026
  3778   cD    97    MY  C114 3778    -0.111712     12.01000 ; qtot -0.086
  3779   hL    97    MY  H14R 3779     0.025511      1.00800 ; qtot -0.061
  3780   hL    97    MY  H14S 3780     0.025511      1.00800 ; qtot -0.035
  3781   cD    97    MY  C113 3781     0.017463     12.01000 ; qtot -0.018
  3782   hL    97    MY  H13R 3782     0.007531      1.00800 ; qtot -0.010
  3783   hL    97    MY  H13S 3783     0.007531      1.00800 ; qtot -0.003
  3784   cD    97    MY  C112 3784    -0.028094     12.01000 ; qtot -0.031
  3785   hL    97    MY  H12R 3785     0.017208      1.00800 ; qtot -0.014
  3786   hL    97    MY  H12S 3786     0.017208      1.00800 ; qtot 0.004
  3787   cD    97    MY  C111 3787    -0.031787     12.01000 ; qtot -0.028
  3788   hL    97    MY  H11R 3788     0.012677      1.00800 ; qtot -0.015
  3789   hL    97    MY  H11S 3789     0.012677      1.00800 ; qtot -0.003
  3790   cD    97    MY  C110 3790    -0.021025     12.01000 ; qtot -0.024
  3791   hL    97    MY  H10R 3791     0.010037      1.00800 ; qtot -0.014
  3792   hL    97    MY  H10S 3792     0.010037      1.00800 ; qtot -0.004
  3793   cD    97    MY   C19 3793    -0.014653     12.01000 ; qtot -0.018
  3794   hL    97    MY   H9R 3794     0.010172      1.00800 ; qtot -0.008
  3795   hL    97    MY   H9S 3795     0.010172      1.00800 ; qtot 0.002
  3796   cD    97    MY   C18 3796    -0.026451     12.01000 ; qtot -0.024
  3797   hL    97    MY   H8R 3797     0.011241      1.00800 ; qtot -0.013
  3798   hL    97    MY   H8S 3798     0.011241      1.00800 ; qtot -0.002
  3799   cD    97    MY   C17 3799    -0.004386     12.01000 ; qtot -0.006
  3800   hL    97    MY   H7R 3800     0.006833      1.00800 ; qtot 0.000
  3801   hL    97    MY   H7S 3801     0.006833      1.00800 ; qtot 0.007
  3802   cD    97    MY   C16 3802    -0.027812     12.01000 ; qtot -0.021
  3803   hL    97    MY   H6R 3803     0.011511      1.00800 ; qtot -0.009
  3804   hL    97    MY   H6S 3804     0.011511      1.00800 ; qtot 0.002
  3805   cD    97    MY   C15 3805    -0.016521     12.01000 ; qtot -0.014
  3806   hL    97    MY   H5R 3806     0.010573      1.00800 ; qtot -0.003
  3807   hL    97    MY   H5S 3807     0.010573      1.00800 ; qtot 0.007
  3808   cD    97    MY   C14 3808    -0.026954     12.01000 ; qtot -0.020
  3809   hL    97    MY   H4R 3809     0.020431      1.00800 ; qtot 0.001
  3810   hL    97    MY   H4S 3810     0.020431      1.00800 ; qtot 0.021
  3811   cD    97    MY   C13 3811    -0.002435     12.01000 ; qtot 0.019
  3812   hL    97    MY   H3R 3812     0.018859      1.00800 ; qtot 0.037
  3813   hL    97    MY   H3S 3813     0.018859      1.00800 ; qtot 0.056
  3814   cD    97    MY   C12 3814    -0.164200     12.01000 ; qtot -0.108
  3815   hL    97    MY   H2R 3815     0.053944      1.00800 ; qtot -0.054
  3816   hL    97    MY   H2S 3816     0.053944      1.00800 ; qtot -0.000
  3817   cC    98    PC   C11 3817     0.910403     12.01000 ; qtot 0.910
  3818   oC    98    PC   O12 3818    -0.671566     16.00000 ; qtot 0.239
  3819   oS    98    PC   O11 3819    -0.575489     16.00000 ; qtot -0.337
  3820   cA    98    PC    C1 3820     0.196939     12.01000 ; qtot -0.140
  3821   hE    98    PC    HR 3821     0.070469      1.00800 ; qtot -0.069
  3822   hE    98    PC    HS 3822     0.070469      1.00800 ; qtot 0.001
  3823   cA    98    PC    C2 3823     0.281242     12.01000 ; qtot 0.282
  3824   hE    98    PC    HX 3824     0.063253      1.00800 ; qtot 0.346
  3825   cA    98    PC    C3 3825     0.017459     12.01000 ; qtot 0.363
  3826   hE    98    PC    HA 3826     0.095591      1.00800 ; qtot 0.459
  3827   hE    98    PC    HB 3827     0.095591      1.00800 ; qtot 0.554
  3828   oT    98    PC   O31 3828    -0.509480     16.00000 ; qtot 0.045
  3829   pA    98    PC   P31 3829     1.339721     30.97000 ; qtot 1.385
  3830   oT    98    PC   O32 3830    -0.508176     16.00000 ; qtot 0.876
  3831   cA    98    PC   C31 3831     0.166801     12.01000 ; qtot 1.043
  3832   hE    98    PC   H1A 3832     0.078534      1.00800 ; qtot 1.122
  3833   hE    98    PC   H1B 3833     0.078534      1.00800 ; qtot 1.200
  3834   cA    98    PC   C32 3834    -0.170824     12.01000 ; qtot 1.029
  3835   hX    98    PC   H2A 3835     0.136415      1.00800 ; qtot 1.166
  3836   hX    98    PC   H2B 3836     0.136415      1.00800 ; qtot 1.302
  3837   nA    98    PC   N31 3837     0.245262     14.01000 ; qtot 1.548
  3838   cA    98    PC   C33 3838    -0.338973     12.01000 ; qtot 1.209
  3839   hX    98    PC   H3A 3839     0.172230      1.00800 ; qtot 1.381
  3840   hX    98    PC   H3B 3840     0.172230      1.00800 ; qtot 1.553
  3841   hX    98    PC   H3C 3841     0.172230      1.00800 ; qtot 1.725
  3842   cA    98    PC   C34 3842    -0.338973     12.01000 ; qtot 1.386
  3843   hX    98    PC   H4A 3843     0.172230      1.00800 ; qtot 1.559
  3844   hX    98    PC   H4B 3844     0.172230      1.00800 ; qtot 1.731
  3845   hX    98    PC   H4C 3845     0.172230      1.00800 ; qtot 1.903
  3846   cA    98    PC   C35 3846    -0.338973     12.01000 ; qtot 1.564
  3847   hX    98    PC   H5A 3847     0.172230      1.00800 ; qtot 1.736
  3848   hX    98    PC   H5B 3848     0.172230      1.00800 ; qtot 1.908
  3849   hX    98    PC   H5C 3849     0.172230      1.00800 ; qtot 2.081
  3850   oP    98    PC   O33 3850    -0.875812     16.00000 ; qtot 1.205
  3851   oP    98    PC   O34 3851    -0.875812     16.00000 ; qtot 0.329
  3852   oS    98    PC   O21 3852    -0.552948     16.00000 ; qtot -0.224
  3853   cC    98    PC   C21 3853     0.897613     12.01000 ; qtot 0.674
  3854   oC    98    PC   O22 3854    -0.673755     16.00000 ; qtot 0.000
  3855   hL    99    MY  H14T 3855     0.025511      1.00800 ; qtot 0.026
  3856   cD    99    MY  C114 3856    -0.111712     12.01000 ; qtot -0.086
  3857   hL    99    MY  H14R 3857     0.025511      1.00800 ; qtot -0.061
  3858   hL    99    MY  H14S 3858     0.025511      1.00800 ; qtot -0.035
  3859   cD    99    MY  C113 3859     0.017463     12.01000 ; qtot -0.018
  3860   hL    99    MY  H13R 3860     0.007531      1.00800 ; qtot -0.010
  3861   hL    99    MY  H13S 3861     0.007531      1.00800 ; qtot -0.003
  3862   cD    99    MY  C112 3862    -0.028094     12.01000 ; qtot -0.031
  3863   hL    99    MY  H12R 3863     0.017208      1.00800 ; qtot -0.014
  3864   hL    99    MY  H12S 3864     0.017208      1.00800 ; qtot 0.004
  3865   cD    99    MY  C111 3865    -0.031787     12.01000 ; qtot -0.028
  3866   hL    99    MY  H11R 3866     0.012677      1.00800 ; qtot -0.015
  3867   hL    99    MY  H11S 3867     0.012677      1.00800 ; qtot -0.003
  3868   cD    99    MY  C110 3868    -0.021025     12.01000 ; qtot -0.024
  3869   hL    99    MY  H10R 3869     0.010037      1.00800 ; qtot -0.014
  3870   hL    99    MY  H10S 3870     0.010037      1.00800 ; qtot -0.004
  3871   cD    99    MY   C19 3871    -0.014653     12.01000 ; qtot -0.018
  3872   hL    99    MY   H9R 3872     0.010172      1.00800 ; qtot -0.008
  3873   hL    99    MY   H9S 3873     0.010172      1.00800 ; qtot 0.002
  3874   cD    99    MY   C18 3874    -0.026451     12.01000 ; qtot -0.024
  3875   hL    99    MY   H8R 3875     0.011241      1.00800 ; qtot -0.013
  3876   hL    99    MY   H8S 3876     0.011241      1.00800 ; qtot -0.002
  3877   cD    99    MY   C17 3877    -0.004386     12.01000 ; qtot -0.006
  3878   hL    99    MY   H7R 3878     0.006833      1.00800 ; qtot 0.000
  3879   hL    99    MY   H7S 3879     0.006833      1.00800 ; qtot 0.007
  3880   cD    99    MY   C16 3880    -0.027812     12.01000 ; qtot -0.021
  3881   hL    99    MY   H6R 3881     0.011511      1.00800 ; qtot -0.009
  3882   hL    99    MY   H6S 3882     0.011511      1.00800 ; qtot 0.002
  3883   cD    99    MY   C15 3883    -0.016521     12.01000 ; qtot -0.014
  3884   hL    99    MY   H5R 3884     0.010573      1.00800 ; qtot -0.003
  3885   hL    99    MY   H5S 3885     0.010573      1.00800 ; qtot 0.007
  3886   cD    99    MY   C14 3886    -0.026954     12.01000 ; qtot -0.020
  3887   hL    99    MY   H4R 3887     0.020431      1.00800 ; qtot 0.001
  3888   hL    99    MY   H4S 3888     0.020431      1.00800 ; qtot 0.021
  3889   cD    99    MY   C13 3889    -0.002435     12.01000 ; qtot 0.019
  3890   hL    99    MY   H3R 3890     0.018859      1.00800 ; qtot 0.037
  3891   hL    99    MY   H3S 3891     0.018859      1.00800 ; qtot 0.056
  3892   cD    99    MY   C12 3892    -0.164200     12.01000 ; qtot -0.108
  3893   hL    99    MY   H2R 3893     0.053944      1.00800 ; qtot -0.054
  3894   hL    99    MY   H2S 3894     0.053944      1.00800 ; qtot -0.000
  3895   hL   100    MY  H14T 3895     0.025511      1.00800 ; qtot 0.026
  3896   cD   100    MY  C114 3896    -0.111712     12.01000 ; qtot -0.086
  3897   hL   100    MY  H14R 3897     0.025511      1.00800 ; qtot -0.061
  3898   hL   100    MY  H14S 3898     0.025511      1.00800 ; qtot -0.035
  3899   cD   100    MY  C113 3899     0.017463     12.01000 ; qtot -0.018
  3900   hL   100    MY  H13R 3900     0.007531      1.00800 ; qtot -0.010
  3901   hL   100    MY  H13S 3901     0.007531      1.00800 ; qtot -0.003
  3902   cD   100    MY  C112 3902    -0.028094     12.01000 ; qtot -0.031
  3903   hL   100    MY  H12R 3903     0.017208      1.00800 ; qtot -0.014
  3904   hL   100    MY  H12S 3904     0.017208      1.00800 ; qtot 0.004
  3905   cD   100    MY  C111 3905    -0.031787     12.01000 ; qtot -0.028
  3906   hL   100    MY  H11R 3906     0.012677      1.00800 ; qtot -0.015
  3907   hL   100    MY  H11S 3907     0.012677      1.00800 ; qtot -0.003
  3908   cD   100    MY  C110 3908    -0.021025     12.01000 ; qtot -0.024
  3909   hL   100    MY  H10R 3909     0.010037      1.00800 ; qtot -0.014
  3910   hL   100    MY  H10S 3910     0.010037      1.00800 ; qtot -0.004
  3911   cD   100    MY   C19 3911    -0.014653     12.01000 ; qtot -0.018
  3912   hL   100    MY   H9R 3912     0.010172      1.00800 ; qtot -0.008
  3913   hL   100    MY   H9S 3913     0.010172      1.00800 ; qtot 0.002
  3914   cD   100    MY   C18 3914    -0.026451     12.01000 ; qtot -0.024
  3915   hL   100    MY   H8R 3915     0.011241      1.00800 ; qtot -0.013
  3916   hL   100    MY   H8S 3916     0.011241      1.00800 ; qtot -0.002
  3917   cD   100    MY   C17 3917    -0.004386     12.01000 ; qtot -0.006
  3918   hL   100    MY   H7R 3918     0.006833      1.00800 ; qtot 0.000
  3919   hL   100    MY   H7S 3919     0.006833      1.00800 ; qtot 0.007
  3920   cD   100    MY   C16 3920    -0.027812     12.01000 ; qtot -0.021
  3921   hL   100    MY   H6R 3921     0.011511      1.00800 ; qtot -0.009
  3922   hL   100    MY   H6S 3922     0.011511      1.00800 ; qtot 0.002
  3923   cD   100    MY   C15 3923    -0.016521     12.01000 ; qtot -0.014
  3924   hL   100    MY   H5R 3924     0.010573      1.00800 ; qtot -0.003
  3925   hL   100    MY   H5S 3925     0.010573      1.00800 ; qtot 0.007
  3926   cD   100    MY   C14 3926    -0.026954     12.01000 ; qtot -0.020
  3927   hL   100    MY   H4R 3927     0.020431      1.00800 ; qtot 0.001
  3928   hL   100    MY   H4S 3928     0.020431      1.00800 ; qtot 0.021
  3929   cD   100    MY   C13 3929    -0.002435     12.01000 ; qtot 0.019
  3930   hL   100    MY   H3R 3930     0.018859      1.00800 ; qtot 0.037
  3931   hL   100    MY   H3S 3931     0.018859      1.00800 ; qtot 0.056
  3932   cD   100    MY   C12 3932    -0.164200     12.01000 ; qtot -0.108
  3933   hL   100    MY   H2R 3933     0.053944      1.00800 ; qtot -0.054
  3934   hL   100    MY   H2S 3934     0.053944      1.00800 ; qtot -0.000
  3935   cC   101    PC   C11 3935     0.910403     12.01000 ; qtot 0.910
  3936   oC   101    PC   O12 3936    -0.671566     16.00000 ; qtot 0.239
  3937   oS   101    PC   O11 3937    -0.575489     16.00000 ; qtot -0.337
  3938   cA   101    PC    C1 3938     0.196939     12.01000 ; qtot -0.140
  3939   hE   101    PC    HR 3939     0.070469      1.00800 ; qtot -0.069
  3940   hE   101    PC    HS 3940     0.070469      1.00800 ; qtot 0.001
  3941   cA   101    PC    C2 3941     0.281242     12.01000 ; qtot 0.282
  3942   hE   101    PC    HX 3942     0.063253      1.00800 ; qtot 0.346
  3943   cA   101    PC    C3 3943     0.017459     12.01000 ; qtot 0.363
  3944   hE   101    PC    HA 3944     0.095591      1.00800 ; qtot 0.459
  3945   hE   101    PC    HB 3945     0.095591      1.00800 ; qtot 0.554
  3946   oT   101    PC   O31 3946    -0.509480     16.00000 ; qtot 0.045
  3947   pA   101    PC   P31 3947     1.339721     30.97000 ; qtot 1.385
  3948   oT   101    PC   O32 3948    -0.508176     16.00000 ; qtot 0.876
  3949   cA   101    PC   C31 3949     0.166801     12.01000 ; qtot 1.043
  3950   hE   101    PC   H1A 3950     0.078534      1.00800 ; qtot 1.122
  3951   hE   101    PC   H1B 3951     0.078534      1.00800 ; qtot 1.200
  3952   cA   101    PC   C32 3952    -0.170824     12.01000 ; qtot 1.029
  3953   hX   101    PC   H2A 3953     0.136415      1.00800 ; qtot 1.166
  3954   hX   101    PC   H2B 3954     0.136415      1.00800 ; qtot 1.302
  3955   nA   101    PC   N31 3955     0.245262     14.01000 ; qtot 1.548
  3956   cA   101    PC   C33 3956    -0.338973     12.01000 ; qtot 1.209
  3957   hX   101    PC   H3A 3957     0.172230      1.00800 ; qtot 1.381
  3958   hX   101    PC   H3B 3958     0.172230      1.00800 ; qtot 1.553
  3959   hX   101    PC   H3C 3959     0.172230      1.00800 ; qtot 1.725
  3960   cA   101    PC   C34 3960    -0.338973     12.01000 ; qtot 1.386
  3961   hX   101    PC   H4A 3961     0.172230      1.00800 ; qtot 1.559
  3962   hX   101    PC   H4B 3962     0.172230      1.00800 ; qtot 1.731
  3963   hX   101    PC   H4C 3963     0.172230      1.00800 ; qtot 1.903
  3964   cA   101    PC   C35 3964    -0.338973     12.01000 ; qtot 1.564
  3965   hX   101    PC   H5A 3965     0.172230      1.00800 ; qtot 1.736
  3966   hX   101    PC   H5B 3966     0.172230      1.00800 ; qtot 1.908
  3967   hX   101    PC   H5C 3967     0.172230      1.00800 ; qtot 2.081
  3968   oP   101    PC   O33 3968    -0.875812     16.00000 ; qtot 1.205
  3969   oP   101    PC   O34 3969    -0.875812     16.00000 ; qtot 0.329
  3970   oS   101    PC   O21 3970    -0.552948     16.00000 ; qtot -0.224
  3971   cC   101    PC   C21 3971     0.897613     12.01000 ; qtot 0.674
  3972   oC   101    PC   O22 3972    -0.673755     16.00000 ; qtot 0.000
  3973   hL   102    MY  H14T 3973     0.025511      1.00800 ; qtot 0.026
  3974   cD   102    MY  C114 3974    -0.111712     12.01000 ; qtot -0.086
  3975   hL   102    MY  H14R 3975     0.025511      1.00800 ; qtot -0.061
  3976   hL   102    MY  H14S 3976     0.025511      1.00800 ; qtot -0.035
  3977   cD   102    MY  C113 3977     0.017463     12.01000 ; qtot -0.018
  3978   hL   102    MY  H13R 3978     0.007531      1.00800 ; qtot -0.010
  3979   hL   102    MY  H13S 3979     0.007531      1.00800 ; qtot -0.003
  3980   cD   102    MY  C112 3980    -0.028094     12.01000 ; qtot -0.031
  3981   hL   102    MY  H12R 3981     0.017208      1.00800 ; qtot -0.014
  3982   hL   102    MY  H12S 3982     0.017208      1.00800 ; qtot 0.004
  3983   cD   102    MY  C111 3983    -0.031787     12.01000 ; qtot -0.028
  3984   hL   102    MY  H11R 3984     0.012677      1.00800 ; qtot -0.015
  3985   hL   102    MY  H11S 3985     0.012677      1.00800 ; qtot -0.003
  3986   cD   102    MY  C110 3986    -0.021025     12.01000 ; qtot -0.024
  3987   hL   102    MY  H10R 3987     0.010037      1.00800 ; qtot -0.014
  3988   hL   102    MY  H10S 3988     0.010037      1.00800 ; qtot -0.004
  3989   cD   102    MY   C19 3989    -0.014653     12.01000 ; qtot -0.018
  3990   hL   102    MY   H9R 3990     0.010172      1.00800 ; qtot -0.008
  3991   hL   102    MY   H9S 3991     0.010172      1.00800 ; qtot 0.002
  3992   cD   102    MY   C18 3992    -0.026451     12.01000 ; qtot -0.024
  3993   hL   102    MY   H8R 3993     0.011241      1.00800 ; qtot -0.013
  3994   hL   102    MY   H8S 3994     0.011241      1.00800 ; qtot -0.002
  3995   cD   102    MY   C17 3995    -0.004386     12.01000 ; qtot -0.006
  3996   hL   102    MY   H7R 3996     0.006833      1.00800 ; qtot 0.000
  3997   hL   102    MY   H7S 3997     0.006833      1.00800 ; qtot 0.007
  3998   cD   102    MY   C16 3998    -0.027812     12.01000 ; qtot -0.021
  3999   hL   102    MY   H6R 3999     0.011511      1.00800 ; qtot -0.009
  4000   hL   102    MY   H6S 4000     0.011511      1.00800 ; qtot 0.002
  4001   cD   102    MY   C15 4001    -0.016521     12.01000 ; qtot -0.014
  4002   hL   102    MY   H5R 4002     0.010573      1.00800 ; qtot -0.003
  4003   hL   102    MY   H5S 4003     0.010573      1.00800 ; qtot 0.007
  4004   cD   102    MY   C14 4004    -0.026954     12.01000 ; qtot -0.020
  4005   hL   102    MY   H4R 4005     0.020431      1.00800 ; qtot 0.001
  4006   hL   102    MY   H4S 4006     0.020431      1.00800 ; qtot 0.021
  4007   cD   102    MY   C13 4007    -0.002435     12.01000 ; qtot 0.019
  4008   hL   102    MY   H3R 4008     0.018859      1.00800 ; qtot 0.037
  4009   hL   102    MY   H3S 4009     0.018859      1.00800 ; qtot 0.056
  4010   cD   102    MY   C12 4010    -0.164200     12.01000 ; qtot -0.108
  4011   hL   102    MY   H2R 4011     0.053944      1.00800 ; qtot -0.054
  4012   hL   102    MY   H2S 4012     0.053944      1.00800 ; qtot -0.000
  4013   hL   103    MY  H14T 4013     0.025511      1.00800 ; qtot 0.026
  4014   cD   103    MY  C114 4014    -0.111712     12.01000 ; qtot -0.086
  4015   hL   103    MY  H14R 4015     0.025511      1.00800 ; qtot -0.061
  4016   hL   103    MY  H14S 4016     0.025511      1.00800 ; qtot -0.035
  4017   cD   103    MY  C113 4017     0.017463     12.01000 ; qtot -0.018
  4018   hL   103    MY  H13R 4018     0.007531      1.00800 ; qtot -0.010
  4019   hL   103    MY  H13S 4019     0.007531      1.00800 ; qtot -0.003
  4020   cD   103    MY  C112 4020    -0.028094     12.01000 ; qtot -0.031
  4021   hL   103    MY  H12R 4021     0.017208      1.00800 ; qtot -0.014
  4022   hL   103    MY  H12S 4022     0.017208      1.00800 ; qtot 0.004
  4023   cD   103    MY  C111 4023    -0.031787     12.01000 ; qtot -0.028
  4024   hL   103    MY  H11R 4024     0.012677      1.00800 ; qtot -0.015
  4025   hL   103    MY  H11S 4025     0.012677      1.00800 ; qtot -0.003
  4026   cD   103    MY  C110 4026    -0.021025     12.01000 ; qtot -0.024
  4027   hL   103    MY  H10R 4027     0.010037      1.00800 ; qtot -0.014
  4028   hL   103    MY  H10S 4028     0.010037      1.00800 ; qtot -0.004
  4029   cD   103    MY   C19 4029    -0.014653     12.01000 ; qtot -0.018
  4030   hL   103    MY   H9R 4030     0.010172      1.00800 ; qtot -0.008
  4031   hL   103    MY   H9S 4031     0.010172      1.00800 ; qtot 0.002
  4032   cD   103    MY   C18 4032    -0.026451     12.01000 ; qtot -0.024
  4033   hL   103    MY   H8R 4033     0.011241      1.00800 ; qtot -0.013
  4034   hL   103    MY   H8S 4034     0.011241      1.00800 ; qtot -0.002
  4035   cD   103    MY   C17 4035    -0.004386     12.01000 ; qtot -0.006
  4036   hL   103    MY   H7R 4036     0.006833      1.00800 ; qtot 0.000
  4037   hL   103    MY   H7S 4037     0.006833      1.00800 ; qtot 0.007
  4038   cD   103    MY   C16 4038    -0.027812     12.01000 ; qtot -0.021
  4039   hL   103    MY   H6R 4039     0.011511      1.00800 ; qtot -0.009
  4040   hL   103    MY   H6S 4040     0.011511      1.00800 ; qtot 0.002
  4041   cD   103    MY   C15 4041    -0.016521     12.01000 ; qtot -0.014
  4042   hL   103    MY   H5R 4042     0.010573      1.00800 ; qtot -0.003
  4043   hL   103    MY   H5S 4043     0.010573      1.00800 ; qtot 0.007
  4044   cD   103    MY   C14 4044    -0.026954     12.01000 ; qtot -0.020
  4045   hL   103    MY   H4R 4045     0.020431      1.00800 ; qtot 0.001
  4046   hL   103    MY   H4S 4046     0.020431      1.00800 ; qtot 0.021
  4047   cD   103    MY   C13 4047    -0.002435     12.01000 ; qtot 0.019
  4048   hL   103    MY   H3R 4048     0.018859      1.00800 ; qtot 0.037
  4049   hL   103    MY   H3S 4049     0.018859      1.00800 ; qtot 0.056
  4050   cD   103    MY   C12 4050    -0.164200     12.01000 ; qtot -0.108
  4051   hL   103    MY   H2R 4051     0.053944      1.00800 ; qtot -0.054
  4052   hL   103    MY   H2S 4052     0.053944      1.00800 ; qtot -0.000
  4053   cC   104    PC   C11 4053     0.910403     12.01000 ; qtot 0.910
  4054   oC   104    PC   O12 4054    -0.671566     16.00000 ; qtot 0.239
  4055   oS   104    PC   O11 4055    -0.575489     16.00000 ; qtot -0.337
  4056   cA   104    PC    C1 4056     0.196939     12.01000 ; qtot -0.140
  4057   hE   104    PC    HR 4057     0.070469      1.00800 ; qtot -0.069
  4058   hE   104    PC    HS 4058     0.070469      1.00800 ; qtot 0.001
  4059   cA   104    PC    C2 4059     0.281242     12.01000 ; qtot 0.282
  4060   hE   104    PC    HX 4060     0.063253      1.00800 ; qtot 0.346
  4061   cA   104    PC    C3 4061     0.017459     12.01000 ; qtot 0.363
  4062   hE   104    PC    HA 4062     0.095591      1.00800 ; qtot 0.459
  4063   hE   104    PC    HB 4063     0.095591      1.00800 ; qtot 0.554
  4064   oT   104    PC   O31 4064    -0.509480     16.00000 ; qtot 0.045
  4065   pA   104    PC   P31 4065     1.339721     30.97000 ; qtot 1.385
  4066   oT   104    PC   O32 4066    -0.508176     16.00000 ; qtot 0.876
  4067   cA   104    PC   C31 4067     0.166801     12.01000 ; qtot 1.043
  4068   hE   104    PC   H1A 4068     0.078534      1.00800 ; qtot 1.122
  4069   hE   104    PC   H1B 4069     0.078534      1.00800 ; qtot 1.200
  4070   cA   104    PC   C32 4070    -0.170824     12.01000 ; qtot 1.029
  4071   hX   104    PC   H2A 4071     0.136415      1.00800 ; qtot 1.166
  4072   hX   104    PC   H2B 4072     0.136415      1.00800 ; qtot 1.302
  4073   nA   104    PC   N31 4073     0.245262     14.01000 ; qtot 1.548
  4074   cA   104    PC   C33 4074    -0.338973     12.01000 ; qtot 1.209
  4075   hX   104    PC   H3A 4075     0.172230      1.00800 ; qtot 1.381
  4076   hX   104    PC   H3B 4076     0.172230      1.00800 ; qtot 1.553
  4077   hX   104    PC   H3C 4077     0.172230      1.00800 ; qtot 1.725
  4078   cA   104    PC   C34 4078    -0.338973     12.01000 ; qtot 1.386
  4079   hX   104    PC   H4A 4079     0.172230      1.00800 ; qtot 1.559
  4080   hX   104    PC   H4B 4080     0.172230      1.00800 ; qtot 1.731
  4081   hX   104    PC   H4C 4081     0.172230      1.00800 ; qtot 1.903
  4082   cA   104    PC   C35 4082    -0.338973     12.01000 ; qtot 1.564
  4083   hX   104    PC   H5A 4083     0.172230      1.00800 ; qtot 1.736
  4084   hX   104    PC   H5B 4084     0.172230      1.00800 ; qtot 1.908
  4085   hX   104    PC   H5C 4085     0.172230      1.00800 ; qtot 2.081
  4086   oP   104    PC   O33 4086    -0.875812     16.00000 ; qtot 1.205
  4087   oP   104    PC   O34 4087    -0.875812     16.00000 ; qtot 0.329
  4088   oS   104    PC   O21 4088    -0.552948     16.00000 ; qtot -0.224
  4089   cC   104    PC   C21 4089     0.897613     12.01000 ; qtot 0.674
  4090   oC   104    PC   O22 4090    -0.673755     16.00000 ; qtot 0.000
  4091   hL   105    MY  H14T 4091     0.025511      1.00800 ; qtot 0.026
  4092   cD   105    MY  C114 4092    -0.111712     12.01000 ; qtot -0.086
  4093   hL   105    MY  H14R 4093     0.025511      1.00800 ; qtot -0.061
  4094   hL   105    MY  H14S 4094     0.025511      1.00800 ; qtot -0.035
  4095   cD   105    MY  C113 4095     0.017463     12.01000 ; qtot -0.018
  4096   hL   105    MY  H13R 4096     0.007531      1.00800 ; qtot -0.010
  4097   hL   105    MY  H13S 4097     0.007531      1.00800 ; qtot -0.003
  4098   cD   105    MY  C112 4098    -0.028094     12.01000 ; qtot -0.031
  4099   hL   105    MY  H12R 4099     0.017208      1.00800 ; qtot -0.014
  4100   hL   105    MY  H12S 4100     0.017208      1.00800 ; qtot 0.004
  4101   cD   105    MY  C111 4101    -0.031787     12.01000 ; qtot -0.028
  4102   hL   105    MY  H11R 4102     0.012677      1.00800 ; qtot -0.015
  4103   hL   105    MY  H11S 4103     0.012677      1.00800 ; qtot -0.003
  4104   cD   105    MY  C110 4104    -0.021025     12.01000 ; qtot -0.024
  4105   hL   105    MY  H10R 4105     0.010037      1.00800 ; qtot -0.014
  4106   hL   105    MY  H10S 4106     0.010037      1.00800 ; qtot -0.004
  4107   cD   105    MY   C19 4107    -0.014653     12.01000 ; qtot -0.018
  4108   hL   105    MY   H9R 4108     0.010172      1.00800 ; qtot -0.008
  4109   hL   105    MY   H9S 4109     0.010172      1.00800 ; qtot 0.002
  4110   cD   105    MY   C18 4110    -0.026451     12.01000 ; qtot -0.024
  4111   hL   105    MY   H8R 4111     0.011241      1.00800 ; qtot -0.013
  4112   hL   105    MY   H8S 4112     0.011241      1.00800 ; qtot -0.002
  4113   cD   105    MY   C17 4113    -0.004386     12.01000 ; qtot -0.006
  4114   hL   105    MY   H7R 4114     0.006833      1.00800 ; qtot 0.000
  4115   hL   105    MY   H7S 4115     0.006833      1.00800 ; qtot 0.007
  4116   cD   105    MY   C16 4116    -0.027812     12.01000 ; qtot -0.021
  4117   hL   105    MY   H6R 4117     0.011511      1.00800 ; qtot -0.009
  4118   hL   105    MY   H6S 4118     0.011511      1.00800 ; qtot 0.002
  4119   cD   105    MY   C15 4119    -0.016521     12.01000 ; qtot -0.014
  4120   hL   105    MY   H5R 4120     0.010573      1.00800 ; qtot -0.003
  4121   hL   105    MY   H5S 4121     0.010573      1.00800 ; qtot 0.007
  4122   cD   105    MY   C14 4122    -0.026954     12.01000 ; qtot -0.020
  4123   hL   105    MY   H4R 4123     0.020431      1.00800 ; qtot 0.001
  4124   hL   105    MY   H4S 4124     0.020431      1.00800 ; qtot 0.021
  4125   cD   105    MY   C13 4125    -0.002435     12.01000 ; qtot 0.019
  4126   hL   105    MY   H3R 4126     0.018859      1.00800 ; qtot 0.037
  4127   hL   105    MY   H3S 4127     0.018859      1.00800 ; qtot 0.056
  4128   cD   105    MY   C12 4128    -0.164200     12.01000 ; qtot -0.108
  4129   hL   105    MY   H2R 4129     0.053944      1.00800 ; qtot -0.054
  4130   hL   105    MY   H2S 4130     0.053944      1.00800 ; qtot -0.000
  4131   hL   106    MY  H14T 4131     0.025511      1.00800 ; qtot 0.026
  4132   cD   106    MY  C114 4132    -0.111712     12.01000 ; qtot -0.086
  4133   hL   106    MY  H14R 4133     0.025511      1.00800 ; qtot -0.061
  4134   hL   106    MY  H14S 4134     0.025511      1.00800 ; qtot -0.035
  4135   cD   106    MY  C113 4135     0.017463     12.01000 ; qtot -0.018
  4136   hL   106    MY  H13R 4136     0.007531      1.00800 ; qtot -0.010
  4137   hL   106    MY  H13S 4137     0.007531      1.00800 ; qtot -0.003
  4138   cD   106    MY  C112 4138    -0.028094     12.01000 ; qtot -0.031
  4139   hL   106    MY  H12R 4139     0.017208      1.00800 ; qtot -0.014
  4140   hL   106    MY  H12S 4140     0.017208      1.00800 ; qtot 0.004
  4141   cD   106    MY  C111 4141    -0.031787     12.01000 ; qtot -0.028
  4142   hL   106    MY  H11R 4142     0.012677      1.00800 ; qtot -0.015
  4143   hL   106    MY  H11S 4143     0.012677      1.00800 ; qtot -0.003
  4144   cD   106    MY  C110 4144    -0.021025     12.01000 ; qtot -0.024
  4145   hL   106    MY  H10R 4145     0.010037      1.00800 ; qtot -0.014
  4146   hL   106    MY  H10S 4146     0.010037      1.00800 ; qtot -0.004
  4147   cD   106    MY   C19 4147    -0.014653     12.01000 ; qtot -0.018
  4148   hL   106    MY   H9R 4148     0.010172      1.00800 ; qtot -0.008
  4149   hL   106    MY   H9S 4149     0.010172      1.00800 ; qtot 0.002
  4150   cD   106    MY   C18 4150    -0.026451     12.01000 ; qtot -0.024
  4151   hL   106    MY   H8R 4151     0.011241      1.00800 ; qtot -0.013
  4152   hL   106    MY   H8S 4152     0.011241      1.00800 ; qtot -0.002
  4153   cD   106    MY   C17 4153    -0.004386     12.01000 ; qtot -0.006
  4154   hL   106    MY   H7R 4154     0.006833      1.00800 ; qtot 0.000
  4155   hL   106    MY   H7S 4155     0.006833      1.00800 ; qtot 0.007
  4156   cD   106    MY   C16 4156    -0.027812     12.01000 ; qtot -0.021
  4157   hL   106    MY   H6R 4157     0.011511      1.00800 ; qtot -0.009
  4158   hL   106    MY   H6S 4158     0.011511      1.00800 ; qtot 0.002
  4159   cD   106    MY   C15 4159    -0.016521     12.01000 ; qtot -0.014
  4160   hL   106    MY   H5R 4160     0.010573      1.00800 ; qtot -0.003
  4161   hL   106    MY   H5S 4161     0.010573      1.00800 ; qtot 0.007
  4162   cD   106    MY   C14 4162    -0.026954     12.01000 ; qtot -0.020
  4163   hL   106    MY   H4R 4163     0.020431      1.00800 ; qtot 0.001
  4164   hL   106    MY   H4S 4164     0.020431      1.00800 ; qtot 0.021
  4165   cD   106    MY   C13 4165    -0.002435     12.01000 ; qtot 0.019
  4166   hL   106    MY   H3R 4166     0.018859      1.00800 ; qtot 0.037
  4167   hL   106    MY   H3S 4167     0.018859      1.00800 ; qtot 0.056
  4168   cD   106    MY   C12 4168    -0.164200     12.01000 ; qtot -0.108
  4169   hL   106    MY   H2R 4169     0.053944      1.00800 ; qtot -0.054
  4170   hL   106    MY   H2S 4170     0.053944      1.00800 ; qtot -0.000
  4171   cC   107    PC   C11 4171     0.910403     12.01000 ; qtot 0.910
  4172   oC   107    PC   O12 4172    -0.671566     16.00000 ; qtot 0.239
  4173   oS   107    PC   O11 4173    -0.575489     16.00000 ; qtot -0.337
  4174   cA   107    PC    C1 4174     0.196939     12.01000 ; qtot -0.140
  4175   hE   107    PC    HR 4175     0.070469      1.00800 ; qtot -0.069
  4176   hE   107    PC    HS 4176     0.070469      1.00800 ; qtot 0.001
  4177   cA   107    PC    C2 4177     0.281242     12.01000 ; qtot 0.282
  4178   hE   107    PC    HX 4178     0.063253      1.00800 ; qtot 0.346
  4179   cA   107    PC    C3 4179     0.017459     12.01000 ; qtot 0.363
  4180   hE   107    PC    HA 4180     0.095591      1.00800 ; qtot 0.459
  4181   hE   107    PC    HB 4181     0.095591      1.00800 ; qtot 0.554
  4182   oT   107    PC   O31 4182    -0.509480     16.00000 ; qtot 0.045
  4183   pA   107    PC   P31 4183     1.339721     30.97000 ; qtot 1.385
  4184   oT   107    PC   O32 4184    -0.508176     16.00000 ; qtot 0.876
  4185   cA   107    PC   C31 4185     0.166801     12.01000 ; qtot 1.043
  4186   hE   107    PC   H1A 4186     0.078534      1.00800 ; qtot 1.122
  4187   hE   107    PC   H1B 4187     0.078534      1.00800 ; qtot 1.200
  4188   cA   107    PC   C32 4188    -0.170824     12.01000 ; qtot 1.029
  4189   hX   107    PC   H2A 4189     0.136415      1.00800 ; qtot 1.166
  4190   hX   107    PC   H2B 4190     0.136415      1.00800 ; qtot 1.302
  4191   nA   107    PC   N31 4191     0.245262     14.01000 ; qtot 1.548
  4192   cA   107    PC   C33 4192    -0.338973     12.01000 ; qtot 1.209
  4193   hX   107    PC   H3A 4193     0.172230      1.00800 ; qtot 1.381
  4194   hX   107    PC   H3B 4194     0.172230      1.00800 ; qtot 1.553
  4195   hX   107    PC   H3C 4195     0.172230      1.00800 ; qtot 1.725
  4196   cA   107    PC   C34 4196    -0.338973     12.01000 ; qtot 1.386
  4197   hX   107    PC   H4A 4197     0.172230      1.00800 ; qtot 1.559
  4198   hX   107    PC   H4B 4198     0.172230      1.00800 ; qtot 1.731
  4199   hX   107    PC   H4C 4199     0.172230      1.00800 ; qtot 1.903
  4200   cA   107    PC   C35 4200    -0.338973     12.01000 ; qtot 1.564
  4201   hX   107    PC   H5A 4201     0.172230      1.00800 ; qtot 1.736
  4202   hX   107    PC   H5B 4202     0.172230      1.00800 ; qtot 1.908
  4203   hX   107    PC   H5C 4203     0.172230      1.00800 ; qtot 2.081
  4204   oP   107    PC   O33 4204    -0.875812     16.00000 ; qtot 1.205
  4205   oP   107    PC   O34 4205    -0.875812     16.00000 ; qtot 0.329
  4206   oS   107    PC   O21 4206    -0.552948     16.00000 ; qtot -0.224
  4207   cC   107    PC   C21 4207     0.897613     12.01000 ; qtot 0.674
  4208   oC   107    PC   O22 4208    -0.673755     16.00000 ; qtot 0.000
  4209   hL   108    MY  H14T 4209     0.025511      1.00800 ; qtot 0.026
  4210   cD   108    MY  C114 4210    -0.111712     12.01000 ; qtot -0.086
  4211   hL   108    MY  H14R 4211     0.025511      1.00800 ; qtot -0.061
  4212   hL   108    MY  H14S 4212     0.025511      1.00800 ; qtot -0.035
  4213   cD   108    MY  C113 4213     0.017463     12.01000 ; qtot -0.018
  4214   hL   108    MY  H13R 4214     0.007531      1.00800 ; qtot -0.010
  4215   hL   108    MY  H13S 4215     0.007531      1.00800 ; qtot -0.003
  4216   cD   108    MY  C112 4216    -0.028094     12.01000 ; qtot -0.031
  4217   hL   108    MY  H12R 4217     0.017208      1.00800 ; qtot -0.014
  4218   hL   108    MY  H12S 4218     0.017208      1.00800 ; qtot 0.004
  4219   cD   108    MY  C111 4219    -0.031787     12.01000 ; qtot -0.028
  4220   hL   108    MY  H11R 4220     0.012677      1.00800 ; qtot -0.015
  4221   hL   108    MY  H11S 4221     0.012677      1.00800 ; qtot -0.003
  4222   cD   108    MY  C110 4222    -0.021025     12.01000 ; qtot -0.024
  4223   hL   108    MY  H10R 4223     0.010037      1.00800 ; qtot -0.014
  4224   hL   108    MY  H10S 4224     0.010037      1.00800 ; qtot -0.004
  4225   cD   108    MY   C19 4225    -0.014653     12.01000 ; qtot -0.018
  4226   hL   108    MY   H9R 4226     0.010172      1.00800 ; qtot -0.008
  4227   hL   108    MY   H9S 4227     0.010172      1.00800 ; qtot 0.002
  4228   cD   108    MY   C18 4228    -0.026451     12.01000 ; qtot -0.024
  4229   hL   108    MY   H8R 4229     0.011241      1.00800 ; qtot -0.013
  4230   hL   108    MY   H8S 4230     0.011241      1.00800 ; qtot -0.002
  4231   cD   108    MY   C17 4231    -0.004386     12.01000 ; qtot -0.006
  4232   hL   108    MY   H7R 4232     0.006833      1.00800 ; qtot 0.000
  4233   hL   108    MY   H7S 4233     0.006833      1.00800 ; qtot 0.007
  4234   cD   108    MY   C16 4234    -0.027812     12.01000 ; qtot -0.021
  4235   hL   108    MY   H6R 4235     0.011511      1.00800 ; qtot -0.009
  4236   hL   108    MY   H6S 4236     0.011511      1.00800 ; qtot 0.002
  4237   cD   108    MY   C15 4237    -0.016521     12.01000 ; qtot -0.014
  4238   hL   108    MY   H5R 4238     0.010573      1.00800 ; qtot -0.003
  4239   hL   108    MY   H5S 4239     0.010573      1.00800 ; qtot 0.007
  4240   cD   108    MY   C14 4240    -0.026954     12.01000 ; qtot -0.020
  4241   hL   108    MY   H4R 4241     0.020431      1.00800 ; qtot 0.001
  4242   hL   108    MY   H4S 4242     0.020431      1.00800 ; qtot 0.021
  4243   cD   108    MY   C13 4243    -0.002435     12.01000 ; qtot 0.019
  4244   hL   108    MY   H3R 4244     0.018859      1.00800 ; qtot 0.037
  4245   hL   108    MY   H3S 4245     0.018859      1.00800 ; qtot 0.056
  4246   cD   108    MY   C12 4246    -0.164200     12.01000 ; qtot -0.108
  4247   hL   108    MY   H2R 4247     0.053944      1.00800 ; qtot -0.054
  4248   hL   108    MY   H2S 4248     0.053944      1.00800 ; qtot -0.000
  4249   hL   109    MY  H14T 4249     0.025511      1.00800 ; qtot 0.026
  4250   cD   109    MY  C114 4250    -0.111712     12.01000 ; qtot -0.086
  4251   hL   109    MY  H14R 4251     0.025511      1.00800 ; qtot -0.061
  4252   hL   109    MY  H14S 4252     0.025511      1.00800 ; qtot -0.035
  4253   cD   109    MY  C113 4253     0.017463     12.01000 ; qtot -0.018
  4254   hL   109    MY  H13R 4254     0.007531      1.00800 ; qtot -0.010
  4255   hL   109    MY  H13S 4255     0.007531      1.00800 ; qtot -0.003
  4256   cD   109    MY  C112 4256    -0.028094     12.01000 ; qtot -0.031
  4257   hL   109    MY  H12R 4257     0.017208      1.00800 ; qtot -0.014
  4258   hL   109    MY  H12S 4258     0.017208      1.00800 ; qtot 0.004
  4259   cD   109    MY  C111 4259    -0.031787     12.01000 ; qtot -0.028
  4260   hL   109    MY  H11R 4260     0.012677      1.00800 ; qtot -0.015
  4261   hL   109    MY  H11S 4261     0.012677      1.00800 ; qtot -0.003
  4262   cD   109    MY  C110 4262    -0.021025     12.01000 ; qtot -0.024
  4263   hL   109    MY  H10R 4263     0.010037      1.00800 ; qtot -0.014
  4264   hL   109    MY  H10S 4264     0.010037      1.00800 ; qtot -0.004
  4265   cD   109    MY   C19 4265    -0.014653     12.01000 ; qtot -0.018
  4266   hL   109    MY   H9R 4266     0.010172      1.00800 ; qtot -0.008
  4267   hL   109    MY   H9S 4267     0.010172      1.00800 ; qtot 0.002
  4268   cD   109    MY   C18 4268    -0.026451     12.01000 ; qtot -0.024
  4269   hL   109    MY   H8R 4269     0.011241      1.00800 ; qtot -0.013
  4270   hL   109    MY   H8S 4270     0.011241      1.00800 ; qtot -0.002
  4271   cD   109    MY   C17 4271    -0.004386     12.01000 ; qtot -0.006
  4272   hL   109    MY   H7R 4272     0.006833      1.00800 ; qtot 0.000
  4273   hL   109    MY   H7S 4273     0.006833      1.00800 ; qtot 0.007
  4274   cD   109    MY   C16 4274    -0.027812     12.01000 ; qtot -0.021
  4275   hL   109    MY   H6R 4275     0.011511      1.00800 ; qtot -0.009
  4276   hL   109    MY   H6S 4276     0.011511      1.00800 ; qtot 0.002
  4277   cD   109    MY   C15 4277    -0.016521     12.01000 ; qtot -0.014
  4278   hL   109    MY   H5R 4278     0.010573      1.00800 ; qtot -0.003
  4279   hL   109    MY   H5S 4279     0.010573      1.00800 ; qtot 0.007
  4280   cD   109    MY   C14 4280    -0.026954     12.01000 ; qtot -0.020
  4281   hL   109    MY   H4R 4281     0.020431      1.00800 ; qtot 0.001
  4282   hL   109    MY   H4S 4282     0.020431      1.00800 ; qtot 0.021
  4283   cD   109    MY   C13 4283    -0.002435     12.01000 ; qtot 0.019
  4284   hL   109    MY   H3R 4284     0.018859      1.00800 ; qtot 0.037
  4285   hL   109    MY   H3S 4285     0.018859      1.00800 ; qtot 0.056
  4286   cD   109    MY   C12 4286    -0.164200     12.01000 ; qtot -0.108
  4287   hL   109    MY   H2R 4287     0.053944      1.00800 ; qtot -0.054
  4288   hL   109    MY   H2S 4288     0.053944      1.00800 ; qtot -0.000
  4289   cC   110    PC   C11 4289     0.910403     12.01000 ; qtot 0.910
  4290   oC   110    PC   O12 4290    -0.671566     16.00000 ; qtot 0.239
  4291   oS   110    PC   O11 4291    -0.575489     16.00000 ; qtot -0.337
  4292   cA   110    PC    C1 4292     0.196939     12.01000 ; qtot -0.140
  4293   hE   110    PC    HR 4293     0.070469      1.00800 ; qtot -0.069
  4294   hE   110    PC    HS 4294     0.070469      1.00800 ; qtot 0.001
  4295   cA   110    PC    C2 4295     0.281242     12.01000 ; qtot 0.282
  4296   hE   110    PC    HX 4296     0.063253      1.00800 ; qtot 0.346
  4297   cA   110    PC    C3 4297     0.017459     12.01000 ; qtot 0.363
  4298   hE   110    PC    HA 4298     0.095591      1.00800 ; qtot 0.459
  4299   hE   110    PC    HB 4299     0.095591      1.00800 ; qtot 0.554
  4300   oT   110    PC   O31 4300    -0.509480     16.00000 ; qtot 0.045
  4301   pA   110    PC   P31 4301     1.339721     30.97000 ; qtot 1.385
  4302   oT   110    PC   O32 4302    -0.508176     16.00000 ; qtot 0.876
  4303   cA   110    PC   C31 4303     0.166801     12.01000 ; qtot 1.043
  4304   hE   110    PC   H1A 4304     0.078534      1.00800 ; qtot 1.122
  4305   hE   110    PC   H1B 4305     0.078534      1.00800 ; qtot 1.200
  4306   cA   110    PC   C32 4306    -0.170824     12.01000 ; qtot 1.029
  4307   hX   110    PC   H2A 4307     0.136415      1.00800 ; qtot 1.166
  4308   hX   110    PC   H2B 4308     0.136415      1.00800 ; qtot 1.302
  4309   nA   110    PC   N31 4309     0.245262     14.01000 ; qtot 1.548
  4310   cA   110    PC   C33 4310    -0.338973     12.01000 ; qtot 1.209
  4311   hX   110    PC   H3A 4311     0.172230      1.00800 ; qtot 1.381
  4312   hX   110    PC   H3B 4312     0.172230      1.00800 ; qtot 1.553
  4313   hX   110    PC   H3C 4313     0.172230      1.00800 ; qtot 1.725
  4314   cA   110    PC   C34 4314    -0.338973     12.01000 ; qtot 1.386
  4315   hX   110    PC   H4A 4315     0.172230      1.00800 ; qtot 1.559
  4316   hX   110    PC   H4B 4316     0.172230      1.00800 ; qtot 1.731
  4317   hX   110    PC   H4C 4317     0.172230      1.00800 ; qtot 1.903
  4318   cA   110    PC   C35 4318    -0.338973     12.01000 ; qtot 1.564
  4319   hX   110    PC   H5A 4319     0.172230      1.00800 ; qtot 1.736
  4320   hX   110    PC   H5B 4320     0.172230      1.00800 ; qtot 1.908
  4321   hX   110    PC   H5C 4321     0.172230      1.00800 ; qtot 2.081
  4322   oP   110    PC   O33 4322    -0.875812     16.00000 ; qtot 1.205
  4323   oP   110    PC   O34 4323    -0.875812     16.00000 ; qtot 0.329
  4324   oS   110    PC   O21 4324    -0.552948     16.00000 ; qtot -0.224
  4325   cC   110    PC   C21 4325     0.897613     12.01000 ; qtot 0.674
  4326   oC   110    PC   O22 4326    -0.673755     16.00000 ; qtot 0.000
  4327   hL   111    MY  H14T 4327     0.025511      1.00800 ; qtot 0.026
  4328   cD   111    MY  C114 4328    -0.111712     12.01000 ; qtot -0.086
  4329   hL   111    MY  H14R 4329     0.025511      1.00800 ; qtot -0.061
  4330   hL   111    MY  H14S 4330     0.025511      1.00800 ; qtot -0.035
  4331   cD   111    MY  C113 4331     0.017463     12.01000 ; qtot -0.018
  4332   hL   111    MY  H13R 4332     0.007531      1.00800 ; qtot -0.010
  4333   hL   111    MY  H13S 4333     0.007531      1.00800 ; qtot -0.003
  4334   cD   111    MY  C112 4334    -0.028094     12.01000 ; qtot -0.031
  4335   hL   111    MY  H12R 4335     0.017208      1.00800 ; qtot -0.014
  4336   hL   111    MY  H12S 4336     0.017208      1.00800 ; qtot 0.004
  4337   cD   111    MY  C111 4337    -0.031787     12.01000 ; qtot -0.028
  4338   hL   111    MY  H11R 4338     0.012677      1.00800 ; qtot -0.015
  4339   hL   111    MY  H11S 4339     0.012677      1.00800 ; qtot -0.003
  4340   cD   111    MY  C110 4340    -0.021025     12.01000 ; qtot -0.024
  4341   hL   111    MY  H10R 4341     0.010037      1.00800 ; qtot -0.014
  4342   hL   111    MY  H10S 4342     0.010037      1.00800 ; qtot -0.004
  4343   cD   111    MY   C19 4343    -0.014653     12.01000 ; qtot -0.018
  4344   hL   111    MY   H9R 4344     0.010172      1.00800 ; qtot -0.008
  4345   hL   111    MY   H9S 4345     0.010172      1.00800 ; qtot 0.002
  4346   cD   111    MY   C18 4346    -0.026451     12.01000 ; qtot -0.024
  4347   hL   111    MY   H8R 4347     0.011241      1.00800 ; qtot -0.013
  4348   hL   111    MY   H8S 4348     0.011241      1.00800 ; qtot -0.002
  4349   cD   111    MY   C17 4349    -0.004386     12.01000 ; qtot -0.006
  4350   hL   111    MY   H7R 4350     0.006833      1.00800 ; qtot 0.000
  4351   hL   111    MY   H7S 4351     0.006833      1.00800 ; qtot 0.007
  4352   cD   111    MY   C16 4352    -0.027812     12.01000 ; qtot -0.021
  4353   hL   111    MY   H6R 4353     0.011511      1.00800 ; qtot -0.009
  4354   hL   111    MY   H6S 4354     0.011511      1.00800 ; qtot 0.002
  4355   cD   111    MY   C15 4355    -0.016521     12.01000 ; qtot -0.014
  4356   hL   111    MY   H5R 4356     0.010573      1.00800 ; qtot -0.003
  4357   hL   111    MY   H5S 4357     0.010573      1.00800 ; qtot 0.007
  4358   cD   111    MY   C14 4358    -0.026954     12.01000 ; qtot -0.020
  4359   hL   111    MY   H4R 4359     0.020431      1.00800 ; qtot 0.001
  4360   hL   111    MY   H4S 4360     0.020431      1.00800 ; qtot 0.021
  4361   cD   111    MY   C13 4361    -0.002435     12.01000 ; qtot 0.019
  4362   hL   111    MY   H3R 4362     0.018859      1.00800 ; qtot 0.037
  4363   hL   111    MY   H3S 4363     0.018859      1.00800 ; qtot 0.056
  4364   cD   111    MY   C12 4364    -0.164200     12.01000 ; qtot -0.108
  4365   hL   111    MY   H2R 4365     0.053944      1.00800 ; qtot -0.054
  4366   hL   111    MY   H2S 4366     0.053944      1.00800 ; qtot -0.000
  4367   hL   112    MY  H14T 4367     0.025511      1.00800 ; qtot 0.026
  4368   cD   112    MY  C114 4368    -0.111712     12.01000 ; qtot -0.086
  4369   hL   112    MY  H14R 4369     0.025511      1.00800 ; qtot -0.061
  4370   hL   112    MY  H14S 4370     0.025511      1.00800 ; qtot -0.035
  4371   cD   112    MY  C113 4371     0.017463     12.01000 ; qtot -0.018
  4372   hL   112    MY  H13R 4372     0.007531      1.00800 ; qtot -0.010
  4373   hL   112    MY  H13S 4373     0.007531      1.00800 ; qtot -0.003
  4374   cD   112    MY  C112 4374    -0.028094     12.01000 ; qtot -0.031
  4375   hL   112    MY  H12R 4375     0.017208      1.00800 ; qtot -0.014
  4376   hL   112    MY  H12S 4376     0.017208      1.00800 ; qtot 0.004
  4377   cD   112    MY  C111 4377    -0.031787     12.01000 ; qtot -0.028
  4378   hL   112    MY  H11R 4378     0.012677      1.00800 ; qtot -0.015
  4379   hL   112    MY  H11S 4379     0.012677      1.00800 ; qtot -0.003
  4380   cD   112    MY  C110 4380    -0.021025     12.01000 ; qtot -0.024
  4381   hL   112    MY  H10R 4381     0.010037      1.00800 ; qtot -0.014
  4382   hL   112    MY  H10S 4382     0.010037      1.00800 ; qtot -0.004
  4383   cD   112    MY   C19 4383    -0.014653     12.01000 ; qtot -0.018
  4384   hL   112    MY   H9R 4384     0.010172      1.00800 ; qtot -0.008
  4385   hL   112    MY   H9S 4385     0.010172      1.00800 ; qtot 0.002
  4386   cD   112    MY   C18 4386    -0.026451     12.01000 ; qtot -0.024
  4387   hL   112    MY   H8R 4387     0.011241      1.00800 ; qtot -0.013
  4388   hL   112    MY   H8S 4388     0.011241      1.00800 ; qtot -0.002
  4389   cD   112    MY   C17 4389    -0.004386     12.01000 ; qtot -0.006
  4390   hL   112    MY   H7R 4390     0.006833      1.00800 ; qtot 0.000
  4391   hL   112    MY   H7S 4391     0.006833      1.00800 ; qtot 0.007
  4392   cD   112    MY   C16 4392    -0.027812     12.01000 ; qtot -0.021
  4393   hL   112    MY   H6R 4393     0.011511      1.00800 ; qtot -0.009
  4394   hL   112    MY   H6S 4394     0.011511      1.00800 ; qtot 0.002
  4395   cD   112    MY   C15 4395    -0.016521     12.01000 ; qtot -0.014
  4396   hL   112    MY   H5R 4396     0.010573      1.00800 ; qtot -0.003
  4397   hL   112    MY   H5S 4397     0.010573      1.00800 ; qtot 0.007
  4398   cD   112    MY   C14 4398    -0.026954     12.01000 ; qtot -0.020
  4399   hL   112    MY   H4R 4399     0.020431      1.00800 ; qtot 0.001
  4400   hL   112    MY   H4S 4400     0.020431      1.00800 ; qtot 0.021
  4401   cD   112    MY   C13 4401    -0.002435     12.01000 ; qtot 0.019
  4402   hL   112    MY   H3R 4402     0.018859      1.00800 ; qtot 0.037
  4403   hL   112    MY   H3S 4403     0.018859      1.00800 ; qtot 0.056
  4404   cD   112    MY   C12 4404    -0.164200     12.01000 ; qtot -0.108
  4405   hL   112    MY   H2R 4405     0.053944      1.00800 ; qtot -0.054
  4406   hL   112    MY   H2S 4406     0.053944      1.00800 ; qtot -0.000
  4407   cC   113    PC   C11 4407     0.910403     12.01000 ; qtot 0.910
  4408   oC   113    PC   O12 4408    -0.671566     16.00000 ; qtot 0.239
  4409   oS   113    PC   O11 4409    -0.575489     16.00000 ; qtot -0.337
  4410   cA   113    PC    C1 4410     0.196939     12.01000 ; qtot -0.140
  4411   hE   113    PC    HR 4411     0.070469      1.00800 ; qtot -0.069
  4412   hE   113    PC    HS 4412     0.070469      1.00800 ; qtot 0.001
  4413   cA   113    PC    C2 4413     0.281242     12.01000 ; qtot 0.282
  4414   hE   113    PC    HX 4414     0.063253      1.00800 ; qtot 0.346
  4415   cA   113    PC    C3 4415     0.017459     12.01000 ; qtot 0.363
  4416   hE   113    PC    HA 4416     0.095591      1.00800 ; qtot 0.459
  4417   hE   113    PC    HB 4417     0.095591      1.00800 ; qtot 0.554
  4418   oT   113    PC   O31 4418    -0.509480     16.00000 ; qtot 0.045
  4419   pA   113    PC   P31 4419     1.339721     30.97000 ; qtot 1.385
  4420   oT   113    PC   O32 4420    -0.508176     16.00000 ; qtot 0.876
  4421   cA   113    PC   C31 4421     0.166801     12.01000 ; qtot 1.043
  4422   hE   113    PC   H1A 4422     0.078534      1.00800 ; qtot 1.122
  4423   hE   113    PC   H1B 4423     0.078534      1.00800 ; qtot 1.200
  4424   cA   113    PC   C32 4424    -0.170824     12.01000 ; qtot 1.029
  4425   hX   113    PC   H2A 4425     0.136415      1.00800 ; qtot 1.166
  4426   hX   113    PC   H2B 4426     0.136415      1.00800 ; qtot 1.302
  4427   nA   113    PC   N31 4427     0.245262     14.01000 ; qtot 1.548
  4428   cA   113    PC   C33 4428    -0.338973     12.01000 ; qtot 1.209
  4429   hX   113    PC   H3A 4429     0.172230      1.00800 ; qtot 1.381
  4430   hX   113    PC   H3B 4430     0.172230      1.00800 ; qtot 1.553
  4431   hX   113    PC   H3C 4431     0.172230      1.00800 ; qtot 1.725
  4432   cA   113    PC   C34 4432    -0.338973     12.01000 ; qtot 1.386
  4433   hX   113    PC   H4A 4433     0.172230      1.00800 ; qtot 1.559
  4434   hX   113    PC   H4B 4434     0.172230      1.00800 ; qtot 1.731
  4435   hX   113    PC   H4C 4435     0.172230      1.00800 ; qtot 1.903
  4436   cA   113    PC   C35 4436    -0.338973     12.01000 ; qtot 1.564
  4437   hX   113    PC   H5A 4437     0.172230      1.00800 ; qtot 1.736
  4438   hX   113    PC   H5B 4438     0.172230      1.00800 ; qtot 1.908
  4439   hX   113    PC   H5C 4439     0.172230      1.00800 ; qtot 2.081
  4440   oP   113    PC   O33 4440    -0.875812     16.00000 ; qtot 1.205
  4441   oP   113    PC   O34 4441    -0.875812     16.00000 ; qtot 0.329
  4442   oS   113    PC   O21 4442    -0.552948     16.00000 ; qtot -0.224
  4443   cC   113    PC   C21 4443     0.897613     12.01000 ; qtot 0.674
  4444   oC   113    PC   O22 4444    -0.673755     16.00000 ; qtot 0.000
  4445   hL   114    MY  H14T 4445     0.025511      1.00800 ; qtot 0.026
  4446   cD   114    MY  C114 4446    -0.111712     12.01000 ; qtot -0.086
  4447   hL   114    MY  H14R 4447     0.025511      1.00800 ; qtot -0.061
  4448   hL   114    MY  H14S 4448     0.025511      1.00800 ; qtot -0.035
  4449   cD   114    MY  C113 4449     0.017463     12.01000 ; qtot -0.018
  4450   hL   114    MY  H13R 4450     0.007531      1.00800 ; qtot -0.010
  4451   hL   114    MY  H13S 4451     0.007531      1.00800 ; qtot -0.003
  4452   cD   114    MY  C112 4452    -0.028094     12.01000 ; qtot -0.031
  4453   hL   114    MY  H12R 4453     0.017208      1.00800 ; qtot -0.014
  4454   hL   114    MY  H12S 4454     0.017208      1.00800 ; qtot 0.004
  4455   cD   114    MY  C111 4455    -0.031787     12.01000 ; qtot -0.028
  4456   hL   114    MY  H11R 4456     0.012677      1.00800 ; qtot -0.015
  4457   hL   114    MY  H11S 4457     0.012677      1.00800 ; qtot -0.003
  4458   cD   114    MY  C110 4458    -0.021025     12.01000 ; qtot -0.024
  4459   hL   114    MY  H10R 4459     0.010037      1.00800 ; qtot -0.014
  4460   hL   114    MY  H10S 4460     0.010037      1.00800 ; qtot -0.004
  4461   cD   114    MY   C19 4461    -0.014653     12.01000 ; qtot -0.018
  4462   hL   114    MY   H9R 4462     0.010172      1.00800 ; qtot -0.008
  4463   hL   114    MY   H9S 4463     0.010172      1.00800 ; qtot 0.002
  4464   cD   114    MY   C18 4464    -0.026451     12.01000 ; qtot -0.024
  4465   hL   114    MY   H8R 4465     0.011241      1.00800 ; qtot -0.013
  4466   hL   114    MY   H8S 4466     0.011241      1.00800 ; qtot -0.002
  4467   cD   114    MY   C17 4467    -0.004386     12.01000 ; qtot -0.006
  4468   hL   114    MY   H7R 4468     0.006833      1.00800 ; qtot 0.000
  4469   hL   114    MY   H7S 4469     0.006833      1.00800 ; qtot 0.007
  4470   cD   114    MY   C16 4470    -0.027812     12.01000 ; qtot -0.021
  4471   hL   114    MY   H6R 4471     0.011511      1.00800 ; qtot -0.009
  4472   hL   114    MY   H6S 4472     0.011511      1.00800 ; qtot 0.002
  4473   cD   114    MY   C15 4473    -0.016521     12.01000 ; qtot -0.014
  4474   hL   114    MY   H5R 4474     0.010573      1.00800 ; qtot -0.003
  4475   hL   114    MY   H5S 4475     0.010573      1.00800 ; qtot 0.007
  4476   cD   114    MY   C14 4476    -0.026954     12.01000 ; qtot -0.020
  4477   hL   114    MY   H4R 4477     0.020431      1.00800 ; qtot 0.001
  4478   hL   114    MY   H4S 4478     0.020431      1.00800 ; qtot 0.021
  4479   cD   114    MY   C13 4479    -0.002435     12.01000 ; qtot 0.019
  4480   hL   114    MY   H3R 4480     0.018859      1.00800 ; qtot 0.037
  4481   hL   114    MY   H3S 4481     0.018859      1.00800 ; qtot 0.056
  4482   cD   114    MY   C12 4482    -0.164200     12.01000 ; qtot -0.108
  4483   hL   114    MY   H2R 4483     0.053944      1.00800 ; qtot -0.054
  4484   hL   114    MY   H2S 4484     0.053944      1.00800 ; qtot -0.000
  4485   hL   115    MY  H14T 4485     0.025511      1.00800 ; qtot 0.026
  4486   cD   115    MY  C114 4486    -0.111712     12.01000 ; qtot -0.086
  4487   hL   115    MY  H14R 4487     0.025511      1.00800 ; qtot -0.061
  4488   hL   115    MY  H14S 4488     0.025511      1.00800 ; qtot -0.035
  4489   cD   115    MY  C113 4489     0.017463     12.01000 ; qtot -0.018
  4490   hL   115    MY  H13R 4490     0.007531      1.00800 ; qtot -0.010
  4491   hL   115    MY  H13S 4491     0.007531      1.00800 ; qtot -0.003
  4492   cD   115    MY  C112 4492    -0.028094     12.01000 ; qtot -0.031
  4493   hL   115    MY  H12R 4493     0.017208      1.00800 ; qtot -0.014
  4494   hL   115    MY  H12S 4494     0.017208      1.00800 ; qtot 0.004
  4495   cD   115    MY  C111 4495    -0.031787     12.01000 ; qtot -0.028
  4496   hL   115    MY  H11R 4496     0.012677      1.00800 ; qtot -0.015
  4497   hL   115    MY  H11S 4497     0.012677      1.00800 ; qtot -0.003
  4498   cD   115    MY  C110 4498    -0.021025     12.01000 ; qtot -0.024
  4499   hL   115    MY  H10R 4499     0.010037      1.00800 ; qtot -0.014
  4500   hL   115    MY  H10S 4500     0.010037      1.00800 ; qtot -0.004
  4501   cD   115    MY   C19 4501    -0.014653     12.01000 ; qtot -0.018
  4502   hL   115    MY   H9R 4502     0.010172      1.00800 ; qtot -0.008
  4503   hL   115    MY   H9S 4503     0.010172      1.00800 ; qtot 0.002
  4504   cD   115    MY   C18 4504    -0.026451     12.01000 ; qtot -0.024
  4505   hL   115    MY   H8R 4505     0.011241      1.00800 ; qtot -0.013
  4506   hL   115    MY   H8S 4506     0.011241      1.00800 ; qtot -0.002
  4507   cD   115    MY   C17 4507    -0.004386     12.01000 ; qtot -0.006
  4508   hL   115    MY   H7R 4508     0.006833      1.00800 ; qtot 0.000
  4509   hL   115    MY   H7S 4509     0.006833      1.00800 ; qtot 0.007
  4510   cD   115    MY   C16 4510    -0.027812     12.01000 ; qtot -0.021
  4511   hL   115    MY   H6R 4511     0.011511      1.00800 ; qtot -0.009
  4512   hL   115    MY   H6S 4512     0.011511      1.00800 ; qtot 0.002
  4513   cD   115    MY   C15 4513    -0.016521     12.01000 ; qtot -0.014
  4514   hL   115    MY   H5R 4514     0.010573      1.00800 ; qtot -0.003
  4515   hL   115    MY   H5S 4515     0.010573      1.00800 ; qtot 0.007
  4516   cD   115    MY   C14 4516    -0.026954     12.01000 ; qtot -0.020
  4517   hL   115    MY   H4R 4517     0.020431      1.00800 ; qtot 0.001
  4518   hL   115    MY   H4S 4518     0.020431      1.00800 ; qtot 0.021
  4519   cD   115    MY   C13 4519    -0.002435     12.01000 ; qtot 0.019
  4520   hL   115    MY   H3R 4520     0.018859      1.00800 ; qtot 0.037
  4521   hL   115    MY   H3S 4521     0.018859      1.00800 ; qtot 0.056
  4522   cD   115    MY   C12 4522    -0.164200     12.01000 ; qtot -0.108
  4523   hL   115    MY   H2R 4523     0.053944      1.00800 ; qtot -0.054
  4524   hL   115    MY   H2S 4524     0.053944      1.00800 ; qtot -0.000
  4525   cC   116    PC   C11 4525     0.910403     12.01000 ; qtot 0.910
  4526   oC   116    PC   O12 4526    -0.671566     16.00000 ; qtot 0.239
  4527   oS   116    PC   O11 4527    -0.575489     16.00000 ; qtot -0.337
  4528   cA   116    PC    C1 4528     0.196939     12.01000 ; qtot -0.140
  4529   hE   116    PC    HR 4529     0.070469      1.00800 ; qtot -0.069
  4530   hE   116    PC    HS 4530     0.070469      1.00800 ; qtot 0.001
  4531   cA   116    PC    C2 4531     0.281242     12.01000 ; qtot 0.282
  4532   hE   116    PC    HX 4532     0.063253      1.00800 ; qtot 0.346
  4533   cA   116    PC    C3 4533     0.017459     12.01000 ; qtot 0.363
  4534   hE   116    PC    HA 4534     0.095591      1.00800 ; qtot 0.459
  4535   hE   116    PC    HB 4535     0.095591      1.00800 ; qtot 0.554
  4536   oT   116    PC   O31 4536    -0.509480     16.00000 ; qtot 0.045
  4537   pA   116    PC   P31 4537     1.339721     30.97000 ; qtot 1.385
  4538   oT   116    PC   O32 4538    -0.508176     16.00000 ; qtot 0.876
  4539   cA   116    PC   C31 4539     0.166801     12.01000 ; qtot 1.043
  4540   hE   116    PC   H1A 4540     0.078534      1.00800 ; qtot 1.122
  4541   hE   116    PC   H1B 4541     0.078534      1.00800 ; qtot 1.200
  4542   cA   116    PC   C32 4542    -0.170824     12.01000 ; qtot 1.029
  4543   hX   116    PC   H2A 4543     0.136415      1.00800 ; qtot 1.166
  4544   hX   116    PC   H2B 4544     0.136415      1.00800 ; qtot 1.302
  4545   nA   116    PC   N31 4545     0.245262     14.01000 ; qtot 1.548
  4546   cA   116    PC   C33 4546    -0.338973     12.01000 ; qtot 1.209
  4547   hX   116    PC   H3A 4547     0.172230      1.00800 ; qtot 1.381
  4548   hX   116    PC   H3B 4548     0.172230      1.00800 ; qtot 1.553
  4549   hX   116    PC   H3C 4549     0.172230      1.00800 ; qtot 1.725
  4550   cA   116    PC   C34 4550    -0.338973     12.01000 ; qtot 1.386
  4551   hX   116    PC   H4A 4551     0.172230      1.00800 ; qtot 1.559
  4552   hX   116    PC   H4B 4552     0.172230      1.00800 ; qtot 1.731
  4553   hX   116    PC   H4C 4553     0.172230      1.00800 ; qtot 1.903
  4554   cA   116    PC   C35 4554    -0.338973     12.01000 ; qtot 1.564
  4555   hX   116    PC   H5A 4555     0.172230      1.00800 ; qtot 1.736
  4556   hX   116    PC   H5B 4556     0.172230      1.00800 ; qtot 1.908
  4557   hX   116    PC   H5C 4557     0.172230      1.00800 ; qtot 2.081
  4558   oP   116    PC   O33 4558    -0.875812     16.00000 ; qtot 1.205
  4559   oP   116    PC   O34 4559    -0.875812     16.00000 ; qtot 0.329
  4560   oS   116    PC   O21 4560    -0.552948     16.00000 ; qtot -0.224
  4561   cC   116    PC   C21 4561     0.897613     12.01000 ; qtot 0.674
  4562   oC   116    PC   O22 4562    -0.673755     16.00000 ; qtot 0.000
  4563   hL   117    MY  H14T 4563     0.025511      1.00800 ; qtot 0.026
  4564   cD   117    MY  C114 4564    -0.111712     12.01000 ; qtot -0.086
  4565   hL   117    MY  H14R 4565     0.025511      1.00800 ; qtot -0.061
  4566   hL   117    MY  H14S 4566     0.025511      1.00800 ; qtot -0.035
  4567   cD   117    MY  C113 4567     0.017463     12.01000 ; qtot -0.018
  4568   hL   117    MY  H13R 4568     0.007531      1.00800 ; qtot -0.010
  4569   hL   117    MY  H13S 4569     0.007531      1.00800 ; qtot -0.003
  4570   cD   117    MY  C112 4570    -0.028094     12.01000 ; qtot -0.031
  4571   hL   117    MY  H12R 4571     0.017208      1.00800 ; qtot -0.014
  4572   hL   117    MY  H12S 4572     0.017208      1.00800 ; qtot 0.004
  4573   cD   117    MY  C111 4573    -0.031787     12.01000 ; qtot -0.028
  4574   hL   117    MY  H11R 4574     0.012677      1.00800 ; qtot -0.015
  4575   hL   117    MY  H11S 4575     0.012677      1.00800 ; qtot -0.003
  4576   cD   117    MY  C110 4576    -0.021025     12.01000 ; qtot -0.024
  4577   hL   117    MY  H10R 4577     0.010037      1.00800 ; qtot -0.014
  4578   hL   117    MY  H10S 4578     0.010037      1.00800 ; qtot -0.004
  4579   cD   117    MY   C19 4579    -0.014653     12.01000 ; qtot -0.018
  4580   hL   117    MY   H9R 4580     0.010172      1.00800 ; qtot -0.008
  4581   hL   117    MY   H9S 4581     0.010172      1.00800 ; qtot 0.002
  4582   cD   117    MY   C18 4582    -0.026451     12.01000 ; qtot -0.024
  4583   hL   117    MY   H8R 4583     0.011241      1.00800 ; qtot -0.013
  4584   hL   117    MY   H8S 4584     0.011241      1.00800 ; qtot -0.002
  4585   cD   117    MY   C17 4585    -0.004386     12.01000 ; qtot -0.006
  4586   hL   117    MY   H7R 4586     0.006833      1.00800 ; qtot 0.000
  4587   hL   117    MY   H7S 4587     0.006833      1.00800 ; qtot 0.007
  4588   cD   117    MY   C16 4588    -0.027812     12.01000 ; qtot -0.021
  4589   hL   117    MY   H6R 4589     0.011511      1.00800 ; qtot -0.009
  4590   hL   117    MY   H6S 4590     0.011511      1.00800 ; qtot 0.002
  4591   cD   117    MY   C15 4591    -0.016521     12.01000 ; qtot -0.014
  4592   hL   117    MY   H5R 4592     0.010573      1.00800 ; qtot -0.003
  4593   hL   117    MY   H5S 4593     0.010573      1.00800 ; qtot 0.007
  4594   cD   117    MY   C14 4594    -0.026954     12.01000 ; qtot -0.020
  4595   hL   117    MY   H4R 4595     0.020431      1.00800 ; qtot 0.001
  4596   hL   117    MY   H4S 4596     0.020431      1.00800 ; qtot 0.021
  4597   cD   117    MY   C13 4597    -0.002435     12.01000 ; qtot 0.019
  4598   hL   117    MY   H3R 4598     0.018859      1.00800 ; qtot 0.037
  4599   hL   117    MY   H3S 4599     0.018859      1.00800 ; qtot 0.056
  4600   cD   117    MY   C12 4600    -0.164200     12.01000 ; qtot -0.108
  4601   hL   117    MY   H2R 4601     0.053944      1.00800 ; qtot -0.054
  4602   hL   117    MY   H2S 4602     0.053944      1.00800 ; qtot -0.000
  4603   hL   118    MY  H14T 4603     0.025511      1.00800 ; qtot 0.026
  4604   cD   118    MY  C114 4604    -0.111712     12.01000 ; qtot -0.086
  4605   hL   118    MY  H14R 4605     0.025511      1.00800 ; qtot -0.061
  4606   hL   118    MY  H14S 4606     0.025511      1.00800 ; qtot -0.035
  4607   cD   118    MY  C113 4607     0.017463     12.01000 ; qtot -0.018
  4608   hL   118    MY  H13R 4608     0.007531      1.00800 ; qtot -0.010
  4609   hL   118    MY  H13S 4609     0.007531      1.00800 ; qtot -0.003
  4610   cD   118    MY  C112 4610    -0.028094     12.01000 ; qtot -0.031
  4611   hL   118    MY  H12R 4611     0.017208      1.00800 ; qtot -0.014
  4612   hL   118    MY  H12S 4612     0.017208      1.00800 ; qtot 0.004
  4613   cD   118    MY  C111 4613    -0.031787     12.01000 ; qtot -0.028
  4614   hL   118    MY  H11R 4614     0.012677      1.00800 ; qtot -0.015
  4615   hL   118    MY  H11S 4615     0.012677      1.00800 ; qtot -0.003
  4616   cD   118    MY  C110 4616    -0.021025     12.01000 ; qtot -0.024
  4617   hL   118    MY  H10R 4617     0.010037      1.00800 ; qtot -0.014
  4618   hL   118    MY  H10S 4618     0.010037      1.00800 ; qtot -0.004
  4619   cD   118    MY   C19 4619    -0.014653     12.01000 ; qtot -0.018
  4620   hL   118    MY   H9R 4620     0.010172      1.00800 ; qtot -0.008
  4621   hL   118    MY   H9S 4621     0.010172      1.00800 ; qtot 0.002
  4622   cD   118    MY   C18 4622    -0.026451     12.01000 ; qtot -0.024
  4623   hL   118    MY   H8R 4623     0.011241      1.00800 ; qtot -0.013
  4624   hL   118    MY   H8S 4624     0.011241      1.00800 ; qtot -0.002
  4625   cD   118    MY   C17 4625    -0.004386     12.01000 ; qtot -0.006
  4626   hL   118    MY   H7R 4626     0.006833      1.00800 ; qtot 0.000
  4627   hL   118    MY   H7S 4627     0.006833      1.00800 ; qtot 0.007
  4628   cD   118    MY   C16 4628    -0.027812     12.01000 ; qtot -0.021
  4629   hL   118    MY   H6R 4629     0.011511      1.00800 ; qtot -0.009
  4630   hL   118    MY   H6S 4630     0.011511      1.00800 ; qtot 0.002
  4631   cD   118    MY   C15 4631    -0.016521     12.01000 ; qtot -0.014
  4632   hL   118    MY   H5R 4632     0.010573      1.00800 ; qtot -0.003
  4633   hL   118    MY   H5S 4633     0.010573      1.00800 ; qtot 0.007
  4634   cD   118    MY   C14 4634    -0.026954     12.01000 ; qtot -0.020
  4635   hL   118    MY   H4R 4635     0.020431      1.00800 ; qtot 0.001
  4636   hL   118    MY   H4S 4636     0.020431      1.00800 ; qtot 0.021
  4637   cD   118    MY   C13 4637    -0.002435     12.01000 ; qtot 0.019
  4638   hL   118    MY   H3R 4638     0.018859      1.00800 ; qtot 0.037
  4639   hL   118    MY   H3S 4639     0.018859      1.00800 ; qtot 0.056
  4640   cD   118    MY   C12 4640    -0.164200     12.01000 ; qtot -0.108
  4641   hL   118    MY   H2R 4641     0.053944      1.00800 ; qtot -0.054
  4642   hL   118    MY   H2S 4642     0.053944      1.00800 ; qtot -0.000
  4643   cC   119    PC   C11 4643     0.910403     12.01000 ; qtot 0.910
  4644   oC   119    PC   O12 4644    -0.671566     16.00000 ; qtot 0.239
  4645   oS   119    PC   O11 4645    -0.575489     16.00000 ; qtot -0.337
  4646   cA   119    PC    C1 4646     0.196939     12.01000 ; qtot -0.140
  4647   hE   119    PC    HR 4647     0.070469      1.00800 ; qtot -0.069
  4648   hE   119    PC    HS 4648     0.070469      1.00800 ; qtot 0.001
  4649   cA   119    PC    C2 4649     0.281242     12.01000 ; qtot 0.282
  4650   hE   119    PC    HX 4650     0.063253      1.00800 ; qtot 0.346
  4651   cA   119    PC    C3 4651     0.017459     12.01000 ; qtot 0.363
  4652   hE   119    PC    HA 4652     0.095591      1.00800 ; qtot 0.459
  4653   hE   119    PC    HB 4653     0.095591      1.00800 ; qtot 0.554
  4654   oT   119    PC   O31 4654    -0.509480     16.00000 ; qtot 0.045
  4655   pA   119    PC   P31 4655     1.339721     30.97000 ; qtot 1.385
  4656   oT   119    PC   O32 4656    -0.508176     16.00000 ; qtot 0.876
  4657   cA   119    PC   C31 4657     0.166801     12.01000 ; qtot 1.043
  4658   hE   119    PC   H1A 4658     0.078534      1.00800 ; qtot 1.122
  4659   hE   119    PC   H1B 4659     0.078534      1.00800 ; qtot 1.200
  4660   cA   119    PC   C32 4660    -0.170824     12.01000 ; qtot 1.029
  4661   hX   119    PC   H2A 4661     0.136415      1.00800 ; qtot 1.166
  4662   hX   119    PC   H2B 4662     0.136415      1.00800 ; qtot 1.302
  4663   nA   119    PC   N31 4663     0.245262     14.01000 ; qtot 1.548
  4664   cA   119    PC   C33 4664    -0.338973     12.01000 ; qtot 1.209
  4665   hX   119    PC   H3A 4665     0.172230      1.00800 ; qtot 1.381
  4666   hX   119    PC   H3B 4666     0.172230      1.00800 ; qtot 1.553
  4667   hX   119    PC   H3C 4667     0.172230      1.00800 ; qtot 1.725
  4668   cA   119    PC   C34 4668    -0.338973     12.01000 ; qtot 1.386
  4669   hX   119    PC   H4A 4669     0.172230      1.00800 ; qtot 1.559
  4670   hX   119    PC   H4B 4670     0.172230      1.00800 ; qtot 1.731
  4671   hX   119    PC   H4C 4671     0.172230      1.00800 ; qtot 1.903
  4672   cA   119    PC   C35 4672    -0.338973     12.01000 ; qtot 1.564
  4673   hX   119    PC   H5A 4673     0.172230      1.00800 ; qtot 1.736
  4674   hX   119    PC   H5B 4674     0.172230      1.00800 ; qtot 1.908
  4675   hX   119    PC   H5C 4675     0.172230      1.00800 ; qtot 2.081
  4676   oP   119    PC   O33 4676    -0.875812     16.00000 ; qtot 1.205
  4677   oP   119    PC   O34 4677    -0.875812     16.00000 ; qtot 0.329
  4678   oS   119    PC   O21 4678    -0.552948     16.00000 ; qtot -0.224
  4679   cC   119    PC   C21 4679     0.897613     12.01000 ; qtot 0.674
  4680   oC   119    PC   O22 4680    -0.673755     16.00000 ; qtot 0.000
  4681   hL   120    MY  H14T 4681     0.025511      1.00800 ; qtot 0.026
  4682   cD   120    MY  C114 4682    -0.111712     12.01000 ; qtot -0.086
  4683   hL   120    MY  H14R 4683     0.025511      1.00800 ; qtot -0.061
  4684   hL   120    MY  H14S 4684     0.025511      1.00800 ; qtot -0.035
  4685   cD   120    MY  C113 4685     0.017463     12.01000 ; qtot -0.018
  4686   hL   120    MY  H13R 4686     0.007531      1.00800 ; qtot -0.010
  4687   hL   120    MY  H13S 4687     0.007531      1.00800 ; qtot -0.003
  4688   cD   120    MY  C112 4688    -0.028094     12.01000 ; qtot -0.031
  4689   hL   120    MY  H12R 4689     0.017208      1.00800 ; qtot -0.014
  4690   hL   120    MY  H12S 4690     0.017208      1.00800 ; qtot 0.004
  4691   cD   120    MY  C111 4691    -0.031787     12.01000 ; qtot -0.028
  4692   hL   120    MY  H11R 4692     0.012677      1.00800 ; qtot -0.015
  4693   hL   120    MY  H11S 4693     0.012677      1.00800 ; qtot -0.003
  4694   cD   120    MY  C110 4694    -0.021025     12.01000 ; qtot -0.024
  4695   hL   120    MY  H10R 4695     0.010037      1.00800 ; qtot -0.014
  4696   hL   120    MY  H10S 4696     0.010037      1.00800 ; qtot -0.004
  4697   cD   120    MY   C19 4697    -0.014653     12.01000 ; qtot -0.018
  4698   hL   120    MY   H9R 4698     0.010172      1.00800 ; qtot -0.008
  4699   hL   120    MY   H9S 4699     0.010172      1.00800 ; qtot 0.002
  4700   cD   120    MY   C18 4700    -0.026451     12.01000 ; qtot -0.024
  4701   hL   120    MY   H8R 4701     0.011241      1.00800 ; qtot -0.013
  4702   hL   120    MY   H8S 4702     0.011241      1.00800 ; qtot -0.002
  4703   cD   120    MY   C17 4703    -0.004386     12.01000 ; qtot -0.006
  4704   hL   120    MY   H7R 4704     0.006833      1.00800 ; qtot 0.000
  4705   hL   120    MY   H7S 4705     0.006833      1.00800 ; qtot 0.007
  4706   cD   120    MY   C16 4706    -0.027812     12.01000 ; qtot -0.021
  4707   hL   120    MY   H6R 4707     0.011511      1.00800 ; qtot -0.009
  4708   hL   120    MY   H6S 4708     0.011511      1.00800 ; qtot 0.002
  4709   cD   120    MY   C15 4709    -0.016521     12.01000 ; qtot -0.014
  4710   hL   120    MY   H5R 4710     0.010573      1.00800 ; qtot -0.003
  4711   hL   120    MY   H5S 4711     0.010573      1.00800 ; qtot 0.007
  4712   cD   120    MY   C14 4712    -0.026954     12.01000 ; qtot -0.020
  4713   hL   120    MY   H4R 4713     0.020431      1.00800 ; qtot 0.001
  4714   hL   120    MY   H4S 4714     0.020431      1.00800 ; qtot 0.021
  4715   cD   120    MY   C13 4715    -0.002435     12.01000 ; qtot 0.019
  4716   hL   120    MY   H3R 4716     0.018859      1.00800 ; qtot 0.037
  4717   hL   120    MY   H3S 4717     0.018859      1.00800 ; qtot 0.056
  4718   cD   120    MY   C12 4718    -0.164200     12.01000 ; qtot -0.108
  4719   hL   120    MY   H2R 4719     0.053944      1.00800 ; qtot -0.054
  4720   hL   120    MY   H2S 4720     0.053944      1.00800 ; qtot -0.000
  4721   hL   121    MY  H14T 4721     0.025511      1.00800 ; qtot 0.026
  4722   cD   121    MY  C114 4722    -0.111712     12.01000 ; qtot -0.086
  4723   hL   121    MY  H14R 4723     0.025511      1.00800 ; qtot -0.061
  4724   hL   121    MY  H14S 4724     0.025511      1.00800 ; qtot -0.035
  4725   cD   121    MY  C113 4725     0.017463     12.01000 ; qtot -0.018
  4726   hL   121    MY  H13R 4726     0.007531      1.00800 ; qtot -0.010
  4727   hL   121    MY  H13S 4727     0.007531      1.00800 ; qtot -0.003
  4728   cD   121    MY  C112 4728    -0.028094     12.01000 ; qtot -0.031
  4729   hL   121    MY  H12R 4729     0.017208      1.00800 ; qtot -0.014
  4730   hL   121    MY  H12S 4730     0.017208      1.00800 ; qtot 0.004
  4731   cD   121    MY  C111 4731    -0.031787     12.01000 ; qtot -0.028
  4732   hL   121    MY  H11R 4732     0.012677      1.00800 ; qtot -0.015
  4733   hL   121    MY  H11S 4733     0.012677      1.00800 ; qtot -0.003
  4734   cD   121    MY  C110 4734    -0.021025     12.01000 ; qtot -0.024
  4735   hL   121    MY  H10R 4735     0.010037      1.00800 ; qtot -0.014
  4736   hL   121    MY  H10S 4736     0.010037      1.00800 ; qtot -0.004
  4737   cD   121    MY   C19 4737    -0.014653     12.01000 ; qtot -0.018
  4738   hL   121    MY   H9R 4738     0.010172      1.00800 ; qtot -0.008
  4739   hL   121    MY   H9S 4739     0.010172      1.00800 ; qtot 0.002
  4740   cD   121    MY   C18 4740    -0.026451     12.01000 ; qtot -0.024
  4741   hL   121    MY   H8R 4741     0.011241      1.00800 ; qtot -0.013
  4742   hL   121    MY   H8S 4742     0.011241      1.00800 ; qtot -0.002
  4743   cD   121    MY   C17 4743    -0.004386     12.01000 ; qtot -0.006
  4744   hL   121    MY   H7R 4744     0.006833      1.00800 ; qtot 0.000
  4745   hL   121    MY   H7S 4745     0.006833      1.00800 ; qtot 0.007
  4746   cD   121    MY   C16 4746    -0.027812     12.01000 ; qtot -0.021
  4747   hL   121    MY   H6R 4747     0.011511      1.00800 ; qtot -0.009
  4748   hL   121    MY   H6S 4748     0.011511      1.00800 ; qtot 0.002
  4749   cD   121    MY   C15 4749    -0.016521     12.01000 ; qtot -0.014
  4750   hL   121    MY   H5R 4750     0.010573      1.00800 ; qtot -0.003
  4751   hL   121    MY   H5S 4751     0.010573      1.00800 ; qtot 0.007
  4752   cD   121    MY   C14 4752    -0.026954     12.01000 ; qtot -0.020
  4753   hL   121    MY   H4R 4753     0.020431      1.00800 ; qtot 0.001
  4754   hL   121    MY   H4S 4754     0.020431      1.00800 ; qtot 0.021
  4755   cD   121    MY   C13 4755    -0.002435     12.01000 ; qtot 0.019
  4756   hL   121    MY   H3R 4756     0.018859      1.00800 ; qtot 0.037
  4757   hL   121    MY   H3S 4757     0.018859      1.00800 ; qtot 0.056
  4758   cD   121    MY   C12 4758    -0.164200     12.01000 ; qtot -0.108
  4759   hL   121    MY   H2R 4759     0.053944      1.00800 ; qtot -0.054
  4760   hL   121    MY   H2S 4760     0.053944      1.00800 ; qtot -0.000
  4761   cC   122    PC   C11 4761     0.910403     12.01000 ; qtot 0.910
  4762   oC   122    PC   O12 4762    -0.671566     16.00000 ; qtot 0.239
  4763   oS   122    PC   O11 4763    -0.575489     16.00000 ; qtot -0.337
  4764   cA   122    PC    C1 4764     0.196939     12.01000 ; qtot -0.140
  4765   hE   122    PC    HR 4765     0.070469      1.00800 ; qtot -0.069
  4766   hE   122    PC    HS 4766     0.070469      1.00800 ; qtot 0.001
  4767   cA   122    PC    C2 4767     0.281242     12.01000 ; qtot 0.282
  4768   hE   122    PC    HX 4768     0.063253      1.00800 ; qtot 0.346
  4769   cA   122    PC    C3 4769     0.017459     12.01000 ; qtot 0.363
  4770   hE   122    PC    HA 4770     0.095591      1.00800 ; qtot 0.459
  4771   hE   122    PC    HB 4771     0.095591      1.00800 ; qtot 0.554
  4772   oT   122    PC   O31 4772    -0.509480     16.00000 ; qtot 0.045
  4773   pA   122    PC   P31 4773     1.339721     30.97000 ; qtot 1.385
  4774   oT   122    PC   O32 4774    -0.508176     16.00000 ; qtot 0.876
  4775   cA   122    PC   C31 4775     0.166801     12.01000 ; qtot 1.043
  4776   hE   122    PC   H1A 4776     0.078534      1.00800 ; qtot 1.122
  4777   hE   122    PC   H1B 4777     0.078534      1.00800 ; qtot 1.200
  4778   cA   122    PC   C32 4778    -0.170824     12.01000 ; qtot 1.029
  4779   hX   122    PC   H2A 4779     0.136415      1.00800 ; qtot 1.166
  4780   hX   122    PC   H2B 4780     0.136415      1.00800 ; qtot 1.302
  4781   nA   122    PC   N31 4781     0.245262     14.01000 ; qtot 1.548
  4782   cA   122    PC   C33 4782    -0.338973     12.01000 ; qtot 1.209
  4783   hX   122    PC   H3A 4783     0.172230      1.00800 ; qtot 1.381
  4784   hX   122    PC   H3B 4784     0.172230      1.00800 ; qtot 1.553
  4785   hX   122    PC   H3C 4785     0.172230      1.00800 ; qtot 1.725
  4786   cA   122    PC   C34 4786    -0.338973     12.01000 ; qtot 1.386
  4787   hX   122    PC   H4A 4787     0.172230      1.00800 ; qtot 1.559
  4788   hX   122    PC   H4B 4788     0.172230      1.00800 ; qtot 1.731
  4789   hX   122    PC   H4C 4789     0.172230      1.00800 ; qtot 1.903
  4790   cA   122    PC   C35 4790    -0.338973     12.01000 ; qtot 1.564
  4791   hX   122    PC   H5A 4791     0.172230      1.00800 ; qtot 1.736
  4792   hX   122    PC   H5B 4792     0.172230      1.00800 ; qtot 1.908
  4793   hX   122    PC   H5C 4793     0.172230      1.00800 ; qtot 2.081
  4794   oP   122    PC   O33 4794    -0.875812     16.00000 ; qtot 1.205
  4795   oP   122    PC   O34 4795    -0.875812     16.00000 ; qtot 0.329
  4796   oS   122    PC   O21 4796    -0.552948     16.00000 ; qtot -0.224
  4797   cC   122    PC   C21 4797     0.897613     12.01000 ; qtot 0.674
  4798   oC   122    PC   O22 4798    -0.673755     16.00000 ; qtot 0.000
  4799   hL   123    MY  H14T 4799     0.025511      1.00800 ; qtot 0.026
  4800   cD   123    MY  C114 4800    -0.111712     12.01000 ; qtot -0.086
  4801   hL   123    MY  H14R 4801     0.025511      1.00800 ; qtot -0.061
  4802   hL   123    MY  H14S 4802     0.025511      1.00800 ; qtot -0.035
  4803   cD   123    MY  C113 4803     0.017463     12.01000 ; qtot -0.018
  4804   hL   123    MY  H13R 4804     0.007531      1.00800 ; qtot -0.010
  4805   hL   123    MY  H13S 4805     0.007531      1.00800 ; qtot -0.003
  4806   cD   123    MY  C112 4806    -0.028094     12.01000 ; qtot -0.031
  4807   hL   123    MY  H12R 4807     0.017208      1.00800 ; qtot -0.014
  4808   hL   123    MY  H12S 4808     0.017208      1.00800 ; qtot 0.004
  4809   cD   123    MY  C111 4809    -0.031787     12.01000 ; qtot -0.028
  4810   hL   123    MY  H11R 4810     0.012677      1.00800 ; qtot -0.015
  4811   hL   123    MY  H11S 4811     0.012677      1.00800 ; qtot -0.003
  4812   cD   123    MY  C110 4812    -0.021025     12.01000 ; qtot -0.024
  4813   hL   123    MY  H10R 4813     0.010037      1.00800 ; qtot -0.014
  4814   hL   123    MY  H10S 4814     0.010037      1.00800 ; qtot -0.004
  4815   cD   123    MY   C19 4815    -0.014653     12.01000 ; qtot -0.018
  4816   hL   123    MY   H9R 4816     0.010172      1.00800 ; qtot -0.008
  4817   hL   123    MY   H9S 4817     0.010172      1.00800 ; qtot 0.002
  4818   cD   123    MY   C18 4818    -0.026451     12.01000 ; qtot -0.024
  4819   hL   123    MY   H8R 4819     0.011241      1.00800 ; qtot -0.013
  4820   hL   123    MY   H8S 4820     0.011241      1.00800 ; qtot -0.002
  4821   cD   123    MY   C17 4821    -0.004386     12.01000 ; qtot -0.006
  4822   hL   123    MY   H7R 4822     0.006833      1.00800 ; qtot 0.000
  4823   hL   123    MY   H7S 4823     0.006833      1.00800 ; qtot 0.007
  4824   cD   123    MY   C16 4824    -0.027812     12.01000 ; qtot -0.021
  4825   hL   123    MY   H6R 4825     0.011511      1.00800 ; qtot -0.009
  4826   hL   123    MY   H6S 4826     0.011511      1.00800 ; qtot 0.002
  4827   cD   123    MY   C15 4827    -0.016521     12.01000 ; qtot -0.014
  4828   hL   123    MY   H5R 4828     0.010573      1.00800 ; qtot -0.003
  4829   hL   123    MY   H5S 4829     0.010573      1.00800 ; qtot 0.007
  4830   cD   123    MY   C14 4830    -0.026954     12.01000 ; qtot -0.020
  4831   hL   123    MY   H4R 4831     0.020431      1.00800 ; qtot 0.001
  4832   hL   123    MY   H4S 4832     0.020431      1.00800 ; qtot 0.021
  4833   cD   123    MY   C13 4833    -0.002435     12.01000 ; qtot 0.019
  4834   hL   123    MY   H3R 4834     0.018859      1.00800 ; qtot 0.037
  4835   hL   123    MY   H3S 4835     0.018859      1.00800 ; qtot 0.056
  4836   cD   123    MY   C12 4836    -0.164200     12.01000 ; qtot -0.108
  4837   hL   123    MY   H2R 4837     0.053944      1.00800 ; qtot -0.054
  4838   hL   123    MY   H2S 4838     0.053944      1.00800 ; qtot -0.000
  4839   hL   124    MY  H14T 4839     0.025511      1.00800 ; qtot 0.026
  4840   cD   124    MY  C114 4840    -0.111712     12.01000 ; qtot -0.086
  4841   hL   124    MY  H14R 4841     0.025511      1.00800 ; qtot -0.061
  4842   hL   124    MY  H14S 4842     0.025511      1.00800 ; qtot -0.035
  4843   cD   124    MY  C113 4843     0.017463     12.01000 ; qtot -0.018
  4844   hL   124    MY  H13R 4844     0.007531      1.00800 ; qtot -0.010
  4845   hL   124    MY  H13S 4845     0.007531      1.00800 ; qtot -0.003
  4846   cD   124    MY  C112 4846    -0.028094     12.01000 ; qtot -0.031
  4847   hL   124    MY  H12R 4847     0.017208      1.00800 ; qtot -0.014
  4848   hL   124    MY  H12S 4848     0.017208      1.00800 ; qtot 0.004
  4849   cD   124    MY  C111 4849    -0.031787     12.01000 ; qtot -0.028
  4850   hL   124    MY  H11R 4850     0.012677      1.00800 ; qtot -0.015
  4851   hL   124    MY  H11S 4851     0.012677      1.00800 ; qtot -0.003
  4852   cD   124    MY  C110 4852    -0.021025     12.01000 ; qtot -0.024
  4853   hL   124    MY  H10R 4853     0.010037      1.00800 ; qtot -0.014
  4854   hL   124    MY  H10S 4854     0.010037      1.00800 ; qtot -0.004
  4855   cD   124    MY   C19 4855    -0.014653     12.01000 ; qtot -0.018
  4856   hL   124    MY   H9R 4856     0.010172      1.00800 ; qtot -0.008
  4857   hL   124    MY   H9S 4857     0.010172      1.00800 ; qtot 0.002
  4858   cD   124    MY   C18 4858    -0.026451     12.01000 ; qtot -0.024
  4859   hL   124    MY   H8R 4859     0.011241      1.00800 ; qtot -0.013
  4860   hL   124    MY   H8S 4860     0.011241      1.00800 ; qtot -0.002
  4861   cD   124    MY   C17 4861    -0.004386     12.01000 ; qtot -0.006
  4862   hL   124    MY   H7R 4862     0.006833      1.00800 ; qtot 0.000
  4863   hL   124    MY   H7S 4863     0.006833      1.00800 ; qtot 0.007
  4864   cD   124    MY   C16 4864    -0.027812     12.01000 ; qtot -0.021
  4865   hL   124    MY   H6R 4865     0.011511      1.00800 ; qtot -0.009
  4866   hL   124    MY   H6S 4866     0.011511      1.00800 ; qtot 0.002
  4867   cD   124    MY   C15 4867    -0.016521     12.01000 ; qtot -0.014
  4868   hL   124    MY   H5R 4868     0.010573      1.00800 ; qtot -0.003
  4869   hL   124    MY   H5S 4869     0.010573      1.00800 ; qtot 0.007
  4870   cD   124    MY   C14 4870    -0.026954     12.01000 ; qtot -0.020
  4871   hL   124    MY   H4R 4871     0.020431      1.00800 ; qtot 0.001
  4872   hL   124    MY   H4S 4872     0.020431      1.00800 ; qtot 0.021
  4873   cD   124    MY   C13 4873    -0.002435     12.01000 ; qtot 0.019
  4874   hL   124    MY   H3R 4874     0.018859      1.00800 ; qtot 0.037
  4875   hL   124    MY   H3S 4875     0.018859      1.00800 ; qtot 0.056
  4876   cD   124    MY   C12 4876    -0.164200     12.01000 ; qtot -0.108
  4877   hL   124    MY   H2R 4877     0.053944      1.00800 ; qtot -0.054
  4878   hL   124    MY   H2S 4878     0.053944      1.00800 ; qtot -0.000
  4879   cC   125    PC   C11 4879     0.910403     12.01000 ; qtot 0.910
  4880   oC   125    PC   O12 4880    -0.671566     16.00000 ; qtot 0.239
  4881   oS   125    PC   O11 4881    -0.575489     16.00000 ; qtot -0.337
  4882   cA   125    PC    C1 4882     0.196939     12.01000 ; qtot -0.140
  4883   hE   125    PC    HR 4883     0.070469      1.00800 ; qtot -0.069
  4884   hE   125    PC    HS 4884     0.070469      1.00800 ; qtot 0.001
  4885   cA   125    PC    C2 4885     0.281242     12.01000 ; qtot 0.282
  4886   hE   125    PC    HX 4886     0.063253      1.00800 ; qtot 0.346
  4887   cA   125    PC    C3 4887     0.017459     12.01000 ; qtot 0.363
  4888   hE   125    PC    HA 4888     0.095591      1.00800 ; qtot 0.459
  4889   hE   125    PC    HB 4889     0.095591      1.00800 ; qtot 0.554
  4890   oT   125    PC   O31 4890    -0.509480     16.00000 ; qtot 0.045
  4891   pA   125    PC   P31 4891     1.339721     30.97000 ; qtot 1.385
  4892   oT   125    PC   O32 4892    -0.508176     16.00000 ; qtot 0.876
  4893   cA   125    PC   C31 4893     0.166801     12.01000 ; qtot 1.043
  4894   hE   125    PC   H1A 4894     0.078534      1.00800 ; qtot 1.122
  4895   hE   125    PC   H1B 4895     0.078534      1.00800 ; qtot 1.200
  4896   cA   125    PC   C32 4896    -0.170824     12.01000 ; qtot 1.029
  4897   hX   125    PC   H2A 4897     0.136415      1.00800 ; qtot 1.166
  4898   hX   125    PC   H2B 4898     0.136415      1.00800 ; qtot 1.302
  4899   nA   125    PC   N31 4899     0.245262     14.01000 ; qtot 1.548
  4900   cA   125    PC   C33 4900    -0.338973     12.01000 ; qtot 1.209
  4901   hX   125    PC   H3A 4901     0.172230      1.00800 ; qtot 1.381
  4902   hX   125    PC   H3B 4902     0.172230      1.00800 ; qtot 1.553
  4903   hX   125    PC   H3C 4903     0.172230      1.00800 ; qtot 1.725
  4904   cA   125    PC   C34 4904    -0.338973     12.01000 ; qtot 1.386
  4905   hX   125    PC   H4A 4905     0.172230      1.00800 ; qtot 1.559
  4906   hX   125    PC   H4B 4906     0.172230      1.00800 ; qtot 1.731
  4907   hX   125    PC   H4C 4907     0.172230      1.00800 ; qtot 1.903
  4908   cA   125    PC   C35 4908    -0.338973     12.01000 ; qtot 1.564
  4909   hX   125    PC   H5A 4909     0.172230      1.00800 ; qtot 1.736
  4910   hX   125    PC   H5B 4910     0.172230      1.00800 ; qtot 1.908
  4911   hX   125    PC   H5C 4911     0.172230      1.00800 ; qtot 2.081
  4912   oP   125    PC   O33 4912    -0.875812     16.00000 ; qtot 1.205
  4913   oP   125    PC   O34 4913    -0.875812     16.00000 ; qtot 0.329
  4914   oS   125    PC   O21 4914    -0.552948     16.00000 ; qtot -0.224
  4915   cC   125    PC   C21 4915     0.897613     12.01000 ; qtot 0.674
  4916   oC   125    PC   O22 4916    -0.673755     16.00000 ; qtot 0.000
  4917   hL   126    MY  H14T 4917     0.025511      1.00800 ; qtot 0.026
  4918   cD   126    MY  C114 4918    -0.111712     12.01000 ; qtot -0.086
  4919   hL   126    MY  H14R 4919     0.025511      1.00800 ; qtot -0.061
  4920   hL   126    MY  H14S 4920     0.025511      1.00800 ; qtot -0.035
  4921   cD   126    MY  C113 4921     0.017463     12.01000 ; qtot -0.018
  4922   hL   126    MY  H13R 4922     0.007531      1.00800 ; qtot -0.010
  4923   hL   126    MY  H13S 4923     0.007531      1.00800 ; qtot -0.003
  4924   cD   126    MY  C112 4924    -0.028094     12.01000 ; qtot -0.031
  4925   hL   126    MY  H12R 4925     0.017208      1.00800 ; qtot -0.014
  4926   hL   126    MY  H12S 4926     0.017208      1.00800 ; qtot 0.004
  4927   cD   126    MY  C111 4927    -0.031787     12.01000 ; qtot -0.028
  4928   hL   126    MY  H11R 4928     0.012677      1.00800 ; qtot -0.015
  4929   hL   126    MY  H11S 4929     0.012677      1.00800 ; qtot -0.003
  4930   cD   126    MY  C110 4930    -0.021025     12.01000 ; qtot -0.024
  4931   hL   126    MY  H10R 4931     0.010037      1.00800 ; qtot -0.014
  4932   hL   126    MY  H10S 4932     0.010037      1.00800 ; qtot -0.004
  4933   cD   126    MY   C19 4933    -0.014653     12.01000 ; qtot -0.018
  4934   hL   126    MY   H9R 4934     0.010172      1.00800 ; qtot -0.008
  4935   hL   126    MY   H9S 4935     0.010172      1.00800 ; qtot 0.002
  4936   cD   126    MY   C18 4936    -0.026451     12.01000 ; qtot -0.024
  4937   hL   126    MY   H8R 4937     0.011241      1.00800 ; qtot -0.013
  4938   hL   126    MY   H8S 4938     0.011241      1.00800 ; qtot -0.002
  4939   cD   126    MY   C17 4939    -0.004386     12.01000 ; qtot -0.006
  4940   hL   126    MY   H7R 4940     0.006833      1.00800 ; qtot 0.000
  4941   hL   126    MY   H7S 4941     0.006833      1.00800 ; qtot 0.007
  4942   cD   126    MY   C16 4942    -0.027812     12.01000 ; qtot -0.021
  4943   hL   126    MY   H6R 4943     0.011511      1.00800 ; qtot -0.009
  4944   hL   126    MY   H6S 4944     0.011511      1.00800 ; qtot 0.002
  4945   cD   126    MY   C15 4945    -0.016521     12.01000 ; qtot -0.014
  4946   hL   126    MY   H5R 4946     0.010573      1.00800 ; qtot -0.003
  4947   hL   126    MY   H5S 4947     0.010573      1.00800 ; qtot 0.007
  4948   cD   126    MY   C14 4948    -0.026954     12.01000 ; qtot -0.020
  4949   hL   126    MY   H4R 4949     0.020431      1.00800 ; qtot 0.001
  4950   hL   126    MY   H4S 4950     0.020431      1.00800 ; qtot 0.021
  4951   cD   126    MY   C13 4951    -0.002435     12.01000 ; qtot 0.019
  4952   hL   126    MY   H3R 4952     0.018859      1.00800 ; qtot 0.037
  4953   hL   126    MY   H3S 4953     0.018859      1.00800 ; qtot 0.056
  4954   cD   126    MY   C12 4954    -0.164200     12.01000 ; qtot -0.108
  4955   hL   126    MY   H2R 4955     0.053944      1.00800 ; qtot -0.054
  4956   hL   126    MY   H2S 4956     0.053944      1.00800 ; qtot -0.000
  4957   hL   127    MY  H14T 4957     0.025511      1.00800 ; qtot 0.026
  4958   cD   127    MY  C114 4958    -0.111712     12.01000 ; qtot -0.086
  4959   hL   127    MY  H14R 4959     0.025511      1.00800 ; qtot -0.061
  4960   hL   127    MY  H14S 4960     0.025511      1.00800 ; qtot -0.035
  4961   cD   127    MY  C113 4961     0.017463     12.01000 ; qtot -0.018
  4962   hL   127    MY  H13R 4962     0.007531      1.00800 ; qtot -0.010
  4963   hL   127    MY  H13S 4963     0.007531      1.00800 ; qtot -0.003
  4964   cD   127    MY  C112 4964    -0.028094     12.01000 ; qtot -0.031
  4965   hL   127    MY  H12R 4965     0.017208      1.00800 ; qtot -0.014
  4966   hL   127    MY  H12S 4966     0.017208      1.00800 ; qtot 0.004
  4967   cD   127    MY  C111 4967    -0.031787     12.01000 ; qtot -0.028
  4968   hL   127    MY  H11R 4968     0.012677      1.00800 ; qtot -0.015
  4969   hL   127    MY  H11S 4969     0.012677      1.00800 ; qtot -0.003
  4970   cD   127    MY  C110 4970    -0.021025     12.01000 ; qtot -0.024
  4971   hL   127    MY  H10R 4971     0.010037      1.00800 ; qtot -0.014
  4972   hL   127    MY  H10S 4972     0.010037      1.00800 ; qtot -0.004
  4973   cD   127    MY   C19 4973    -0.014653     12.01000 ; qtot -0.018
  4974   hL   127    MY   H9R 4974     0.010172      1.00800 ; qtot -0.008
  4975   hL   127    MY   H9S 4975     0.010172      1.00800 ; qtot 0.002
  4976   cD   127    MY   C18 4976    -0.026451     12.01000 ; qtot -0.024
  4977   hL   127    MY   H8R 4977     0.011241      1.00800 ; qtot -0.013
  4978   hL   127    MY   H8S 4978     0.011241      1.00800 ; qtot -0.002
  4979   cD   127    MY   C17 4979    -0.004386     12.01000 ; qtot -0.006
  4980   hL   127    MY   H7R 4980     0.006833      1.00800 ; qtot 0.000
  4981   hL   127    MY   H7S 4981     0.006833      1.00800 ; qtot 0.007
  4982   cD   127    MY   C16 4982    -0.027812     12.01000 ; qtot -0.021
  4983   hL   127    MY   H6R 4983     0.011511      1.00800 ; qtot -0.009
  4984   hL   127    MY   H6S 4984     0.011511      1.00800 ; qtot 0.002
  4985   cD   127    MY   C15 4985    -0.016521     12.01000 ; qtot -0.014
  4986   hL   127    MY   H5R 4986     0.010573      1.00800 ; qtot -0.003
  4987   hL   127    MY   H5S 4987     0.010573      1.00800 ; qtot 0.007
  4988   cD   127    MY   C14 4988    -0.026954     12.01000 ; qtot -0.020
  4989   hL   127    MY   H4R 4989     0.020431      1.00800 ; qtot 0.001
  4990   hL   127    MY   H4S 4990     0.020431      1.00800 ; qtot 0.021
  4991   cD   127    MY   C13 4991    -0.002435     12.01000 ; qtot 0.019
  4992   hL   127    MY   H3R 4992     0.018859      1.00800 ; qtot 0.037
  4993   hL   127    MY   H3S 4993     0.018859      1.00800 ; qtot 0.056
  4994   cD   127    MY   C12 4994    -0.164200     12.01000 ; qtot -0.108
  4995   hL   127    MY   H2R 4995     0.053944      1.00800 ; qtot -0.054
  4996   hL   127    MY   H2S 4996     0.053944      1.00800 ; qtot -0.000
  4997   cC   128    PC   C11 4997     0.910403     12.01000 ; qtot 0.910
  4998   oC   128    PC   O12 4998    -0.671566     16.00000 ; qtot 0.239
  4999   oS   128    PC   O11 4999    -0.575489     16.00000 ; qtot -0.337
  5000   cA   128    PC    C1 5000     0.196939     12.01000 ; qtot -0.140
  5001   hE   128    PC    HR 5001     0.070469      1.00800 ; qtot -0.069
  5002   hE   128    PC    HS 5002     0.070469      1.00800 ; qtot 0.001
  5003   cA   128    PC    C2 5003     0.281242     12.01000 ; qtot 0.282
  5004   hE   128    PC    HX 5004     0.063253      1.00800 ; qtot 0.346
  5005   cA   128    PC    C3 5005     0.017459     12.01000 ; qtot 0.363
  5006   hE   128    PC    HA 5006     0.095591      1.00800 ; qtot 0.459
  5007   hE   128    PC    HB 5007     0.095591      1.00800 ; qtot 0.554
  5008   oT   128    PC   O31 5008    -0.509480     16.00000 ; qtot 0.045
  5009   pA   128    PC   P31 5009     1.339721     30.97000 ; qtot 1.385
  5010   oT   128    PC   O32 5010    -0.508176     16.00000 ; qtot 0.876
  5011   cA   128    PC   C31 5011     0.166801     12.01000 ; qtot 1.043
  5012   hE   128    PC   H1A 5012     0.078534      1.00800 ; qtot 1.122
  5013   hE   128    PC   H1B 5013     0.078534      1.00800 ; qtot 1.200
  5014   cA   128    PC   C32 5014    -0.170824     12.01000 ; qtot 1.029
  5015   hX   128    PC   H2A 5015     0.136415      1.00800 ; qtot 1.166
  5016   hX   128    PC   H2B 5016     0.136415      1.00800 ; qtot 1.302
  5017   nA   128    PC   N31 5017     0.245262     14.01000 ; qtot 1.548
  5018   cA   128    PC   C33 5018    -0.338973     12.01000 ; qtot 1.209
  5019   hX   128    PC   H3A 5019     0.172230      1.00800 ; qtot 1.381
  5020   hX   128    PC   H3B 5020     0.172230      1.00800 ; qtot 1.553
  5021   hX   128    PC   H3C 5021     0.172230      1.00800 ; qtot 1.725
  5022   cA   128    PC   C34 5022    -0.338973     12.01000 ; qtot 1.386
  5023   hX   128    PC   H4A 5023     0.172230      1.00800 ; qtot 1.559
  5024   hX   128    PC   H4B 5024     0.172230      1.00800 ; qtot 1.731
  5025   hX   128    PC   H4C 5025     0.172230      1.00800 ; qtot 1.903
  5026   cA   128    PC   C35 5026    -0.338973     12.01000 ; qtot 1.564
  5027   hX   128    PC   H5A 5027     0.172230      1.00800 ; qtot 1.736
  5028   hX   128    PC   H5B 5028     0.172230      1.00800 ; qtot 1.908
  5029   hX   128    PC   H5C 5029     0.172230      1.00800 ; qtot 2.081
  5030   oP   128    PC   O33 5030    -0.875812     16.00000 ; qtot 1.205
  5031   oP   128    PC   O34 5031    -0.875812     16.00000 ; qtot 0.329
  5032   oS   128    PC   O21 5032    -0.552948     16.00000 ; qtot -0.224
  5033   cC   128    PC   C21 5033     0.897613     12.01000 ; qtot 0.674
  5034   oC   128    PC   O22 5034    -0.673755     16.00000 ; qtot 0.000
  5035   hL   129    MY  H14T 5035     0.025511      1.00800 ; qtot 0.026
  5036   cD   129    MY  C114 5036    -0.111712     12.01000 ; qtot -0.086
  5037   hL   129    MY  H14R 5037     0.025511      1.00800 ; qtot -0.061
  5038   hL   129    MY  H14S 5038     0.025511      1.00800 ; qtot -0.035
  5039   cD   129    MY  C113 5039     0.017463     12.01000 ; qtot -0.018
  5040   hL   129    MY  H13R 5040     0.007531      1.00800 ; qtot -0.010
  5041   hL   129    MY  H13S 5041     0.007531      1.00800 ; qtot -0.003
  5042   cD   129    MY  C112 5042    -0.028094     12.01000 ; qtot -0.031
  5043   hL   129    MY  H12R 5043     0.017208      1.00800 ; qtot -0.014
  5044   hL   129    MY  H12S 5044     0.017208      1.00800 ; qtot 0.004
  5045   cD   129    MY  C111 5045    -0.031787     12.01000 ; qtot -0.028
  5046   hL   129    MY  H11R 5046     0.012677      1.00800 ; qtot -0.015
  5047   hL   129    MY  H11S 5047     0.012677      1.00800 ; qtot -0.003
  5048   cD   129    MY  C110 5048    -0.021025     12.01000 ; qtot -0.024
  5049   hL   129    MY  H10R 5049     0.010037      1.00800 ; qtot -0.014
  5050   hL   129    MY  H10S 5050     0.010037      1.00800 ; qtot -0.004
  5051   cD   129    MY   C19 5051    -0.014653     12.01000 ; qtot -0.018
  5052   hL   129    MY   H9R 5052     0.010172      1.00800 ; qtot -0.008
  5053   hL   129    MY   H9S 5053     0.010172      1.00800 ; qtot 0.002
  5054   cD   129    MY   C18 5054    -0.026451     12.01000 ; qtot -0.024
  5055   hL   129    MY   H8R 5055     0.011241      1.00800 ; qtot -0.013
  5056   hL   129    MY   H8S 5056     0.011241      1.00800 ; qtot -0.002
  5057   cD   129    MY   C17 5057    -0.004386     12.01000 ; qtot -0.006
  5058   hL   129    MY   H7R 5058     0.006833      1.00800 ; qtot 0.000
  5059   hL   129    MY   H7S 5059     0.006833      1.00800 ; qtot 0.007
  5060   cD   129    MY   C16 5060    -0.027812     12.01000 ; qtot -0.021
  5061   hL   129    MY   H6R 5061     0.011511      1.00800 ; qtot -0.009
  5062   hL   129    MY   H6S 5062     0.011511      1.00800 ; qtot 0.002
  5063   cD   129    MY   C15 5063    -0.016521     12.01000 ; qtot -0.014
  5064   hL   129    MY   H5R 5064     0.010573      1.00800 ; qtot -0.003
  5065   hL   129    MY   H5S 5065     0.010573      1.00800 ; qtot 0.007
  5066   cD   129    MY   C14 5066    -0.026954     12.01000 ; qtot -0.020
  5067   hL   129    MY   H4R 5067     0.020431      1.00800 ; qtot 0.001
  5068   hL   129    MY   H4S 5068     0.020431      1.00800 ; qtot 0.021
  5069   cD   129    MY   C13 5069    -0.002435     12.01000 ; qtot 0.019
  5070   hL   129    MY   H3R 5070     0.018859      1.00800 ; qtot 0.037
  5071   hL   129    MY   H3S 5071     0.018859      1.00800 ; qtot 0.056
  5072   cD   129    MY   C12 5072    -0.164200     12.01000 ; qtot -0.108
  5073   hL   129    MY   H2R 5073     0.053944      1.00800 ; qtot -0.054
  5074   hL   129    MY   H2S 5074     0.053944      1.00800 ; qtot -0.000
  5075   hL   130    MY  H14T 5075     0.025511      1.00800 ; qtot 0.026
  5076   cD   130    MY  C114 5076    -0.111712     12.01000 ; qtot -0.086
  5077   hL   130    MY  H14R 5077     0.025511      1.00800 ; qtot -0.061
  5078   hL   130    MY  H14S 5078     0.025511      1.00800 ; qtot -0.035
  5079   cD   130    MY  C113 5079     0.017463     12.01000 ; qtot -0.018
  5080   hL   130    MY  H13R 5080     0.007531      1.00800 ; qtot -0.010
  5081   hL   130    MY  H13S 5081     0.007531      1.00800 ; qtot -0.003
  5082   cD   130    MY  C112 5082    -0.028094     12.01000 ; qtot -0.031
  5083   hL   130    MY  H12R 5083     0.017208      1.00800 ; qtot -0.014
  5084   hL   130    MY  H12S 5084     0.017208      1.00800 ; qtot 0.004
  5085   cD   130    MY  C111 5085    -0.031787     12.01000 ; qtot -0.028
  5086   hL   130    MY  H11R 5086     0.012677      1.00800 ; qtot -0.015
  5087   hL   130    MY  H11S 5087     0.012677      1.00800 ; qtot -0.003
  5088   cD   130    MY  C110 5088    -0.021025     12.01000 ; qtot -0.024
  5089   hL   130    MY  H10R 5089     0.010037      1.00800 ; qtot -0.014
  5090   hL   130    MY  H10S 5090     0.010037      1.00800 ; qtot -0.004
  5091   cD   130    MY   C19 5091    -0.014653     12.01000 ; qtot -0.018
  5092   hL   130    MY   H9R 5092     0.010172      1.00800 ; qtot -0.008
  5093   hL   130    MY   H9S 5093     0.010172      1.00800 ; qtot 0.002
  5094   cD   130    MY   C18 5094    -0.026451     12.01000 ; qtot -0.024
  5095   hL   130    MY   H8R 5095     0.011241      1.00800 ; qtot -0.013
  5096   hL   130    MY   H8S 5096     0.011241      1.00800 ; qtot -0.002
  5097   cD   130    MY   C17 5097    -0.004386     12.01000 ; qtot -0.006
  5098   hL   130    MY   H7R 5098     0.006833      1.00800 ; qtot 0.000
  5099   hL   130    MY   H7S 5099     0.006833      1.00800 ; qtot 0.007
  5100   cD   130    MY   C16 5100    -0.027812     12.01000 ; qtot -0.021
  5101   hL   130    MY   H6R 5101     0.011511      1.00800 ; qtot -0.009
  5102   hL   130    MY   H6S 5102     0.011511      1.00800 ; qtot 0.002
  5103   cD   130    MY   C15 5103    -0.016521     12.01000 ; qtot -0.014
  5104   hL   130    MY   H5R 5104     0.010573      1.00800 ; qtot -0.003
  5105   hL   130    MY   H5S 5105     0.010573      1.00800 ; qtot 0.007
  5106   cD   130    MY   C14 5106    -0.026954     12.01000 ; qtot -0.020
  5107   hL   130    MY   H4R 5107     0.020431      1.00800 ; qtot 0.001
  5108   hL   130    MY   H4S 5108     0.020431      1.00800 ; qtot 0.021
  5109   cD   130    MY   C13 5109    -0.002435     12.01000 ; qtot 0.019
  5110   hL   130    MY   H3R 5110     0.018859      1.00800 ; qtot 0.037
  5111   hL   130    MY   H3S 5111     0.018859      1.00800 ; qtot 0.056
  5112   cD   130    MY   C12 5112    -0.164200     12.01000 ; qtot -0.108
  5113   hL   130    MY   H2R 5113     0.053944      1.00800 ; qtot -0.054
  5114   hL   130    MY   H2S 5114     0.053944      1.00800 ; qtot -0.000
  5115   cC   131    PC   C11 5115     0.910403     12.01000 ; qtot 0.910
  5116   oC   131    PC   O12 5116    -0.671566     16.00000 ; qtot 0.239
  5117   oS   131    PC   O11 5117    -0.575489     16.00000 ; qtot -0.337
  5118   cA   131    PC    C1 5118     0.196939     12.01000 ; qtot -0.140
  5119   hE   131    PC    HR 5119     0.070469      1.00800 ; qtot -0.069
  5120   hE   131    PC    HS 5120     0.070469      1.00800 ; qtot 0.001
  5121   cA   131    PC    C2 5121     0.281242     12.01000 ; qtot 0.282
  5122   hE   131    PC    HX 5122     0.063253      1.00800 ; qtot 0.346
  5123   cA   131    PC    C3 5123     0.017459     12.01000 ; qtot 0.363
  5124   hE   131    PC    HA 5124     0.095591      1.00800 ; qtot 0.459
  5125   hE   131    PC    HB 5125     0.095591      1.00800 ; qtot 0.554
  5126   oT   131    PC   O31 5126    -0.509480     16.00000 ; qtot 0.045
  5127   pA   131    PC   P31 5127     1.339721     30.97000 ; qtot 1.385
  5128   oT   131    PC   O32 5128    -0.508176     16.00000 ; qtot 0.876
  5129   cA   131    PC   C31 5129     0.166801     12.01000 ; qtot 1.043
  5130   hE   131    PC   H1A 5130     0.078534      1.00800 ; qtot 1.122
  5131   hE   131    PC   H1B 5131     0.078534      1.00800 ; qtot 1.200
  5132   cA   131    PC   C32 5132    -0.170824     12.01000 ; qtot 1.029
  5133   hX   131    PC   H2A 5133     0.136415      1.00800 ; qtot 1.166
  5134   hX   131    PC   H2B 5134     0.136415      1.00800 ; qtot 1.302
  5135   nA   131    PC   N31 5135     0.245262     14.01000 ; qtot 1.548
  5136   cA   131    PC   C33 5136    -0.338973     12.01000 ; qtot 1.209
  5137   hX   131    PC   H3A 5137     0.172230      1.00800 ; qtot 1.381
  5138   hX   131    PC   H3B 5138     0.172230      1.00800 ; qtot 1.553
  5139   hX   131    PC   H3C 5139     0.172230      1.00800 ; qtot 1.725
  5140   cA   131    PC   C34 5140    -0.338973     12.01000 ; qtot 1.386
  5141   hX   131    PC   H4A 5141     0.172230      1.00800 ; qtot 1.559
  5142   hX   131    PC   H4B 5142     0.172230      1.00800 ; qtot 1.731
  5143   hX   131    PC   H4C 5143     0.172230      1.00800 ; qtot 1.903
  5144   cA   131    PC   C35 5144    -0.338973     12.01000 ; qtot 1.564
  5145   hX   131    PC   H5A 5145     0.172230      1.00800 ; qtot 1.736
  5146   hX   131    PC   H5B 5146     0.172230      1.00800 ; qtot 1.908
  5147   hX   131    PC   H5C 5147     0.172230      1.00800 ; qtot 2.081
  5148   oP   131    PC   O33 5148    -0.875812     16.00000 ; qtot 1.205
  5149   oP   131    PC   O34 5149    -0.875812     16.00000 ; qtot 0.329
  5150   oS   131    PC   O21 5150    -0.552948     16.00000 ; qtot -0.224
  5151   cC   131    PC   C21 5151     0.897613     12.01000 ; qtot 0.674
  5152   oC   131    PC   O22 5152    -0.673755     16.00000 ; qtot 0.000
  5153   hL   132    MY  H14T 5153     0.025511      1.00800 ; qtot 0.026
  5154   cD   132    MY  C114 5154    -0.111712     12.01000 ; qtot -0.086
  5155   hL   132    MY  H14R 5155     0.025511      1.00800 ; qtot -0.061
  5156   hL   132    MY  H14S 5156     0.025511      1.00800 ; qtot -0.035
  5157   cD   132    MY  C113 5157     0.017463     12.01000 ; qtot -0.018
  5158   hL   132    MY  H13R 5158     0.007531      1.00800 ; qtot -0.010
  5159   hL   132    MY  H13S 5159     0.007531      1.00800 ; qtot -0.003
  5160   cD   132    MY  C112 5160    -0.028094     12.01000 ; qtot -0.031
  5161   hL   132    MY  H12R 5161     0.017208      1.00800 ; qtot -0.014
  5162   hL   132    MY  H12S 5162     0.017208      1.00800 ; qtot 0.004
  5163   cD   132    MY  C111 5163    -0.031787     12.01000 ; qtot -0.028
  5164   hL   132    MY  H11R 5164     0.012677      1.00800 ; qtot -0.015
  5165   hL   132    MY  H11S 5165     0.012677      1.00800 ; qtot -0.003
  5166   cD   132    MY  C110 5166    -0.021025     12.01000 ; qtot -0.024
  5167   hL   132    MY  H10R 5167     0.010037      1.00800 ; qtot -0.014
  5168   hL   132    MY  H10S 5168     0.010037      1.00800 ; qtot -0.004
  5169   cD   132    MY   C19 5169    -0.014653     12.01000 ; qtot -0.018
  5170   hL   132    MY   H9R 5170     0.010172      1.00800 ; qtot -0.008
  5171   hL   132    MY   H9S 5171     0.010172      1.00800 ; qtot 0.002
  5172   cD   132    MY   C18 5172    -0.026451     12.01000 ; qtot -0.024
  5173   hL   132    MY   H8R 5173     0.011241      1.00800 ; qtot -0.013
  5174   hL   132    MY   H8S 5174     0.011241      1.00800 ; qtot -0.002
  5175   cD   132    MY   C17 5175    -0.004386     12.01000 ; qtot -0.006
  5176   hL   132    MY   H7R 5176     0.006833      1.00800 ; qtot 0.000
  5177   hL   132    MY   H7S 5177     0.006833      1.00800 ; qtot 0.007
  5178   cD   132    MY   C16 5178    -0.027812     12.01000 ; qtot -0.021
  5179   hL   132    MY   H6R 5179     0.011511      1.00800 ; qtot -0.009
  5180   hL   132    MY   H6S 5180     0.011511      1.00800 ; qtot 0.002
  5181   cD   132    MY   C15 5181    -0.016521     12.01000 ; qtot -0.014
  5182   hL   132    MY   H5R 5182     0.010573      1.00800 ; qtot -0.003
  5183   hL   132    MY   H5S 5183     0.010573      1.00800 ; qtot 0.007
  5184   cD   132    MY   C14 5184    -0.026954     12.01000 ; qtot -0.020
  5185   hL   132    MY   H4R 5185     0.020431      1.00800 ; qtot 0.001
  5186   hL   132    MY   H4S 5186     0.020431      1.00800 ; qtot 0.021
  5187   cD   132    MY   C13 5187    -0.002435     12.01000 ; qtot 0.019
  5188   hL   132    MY   H3R 5188     0.018859      1.00800 ; qtot 0.037
  5189   hL   132    MY   H3S 5189     0.018859      1.00800 ; qtot 0.056
  5190   cD   132    MY   C12 5190    -0.164200     12.01000 ; qtot -0.108
  5191   hL   132    MY   H2R 5191     0.053944      1.00800 ; qtot -0.054
  5192   hL   132    MY   H2S 5192     0.053944      1.00800 ; qtot -0.000
  5193   hL   133    MY  H14T 5193     0.025511      1.00800 ; qtot 0.026
  5194   cD   133    MY  C114 5194    -0.111712     12.01000 ; qtot -0.086
  5195   hL   133    MY  H14R 5195     0.025511      1.00800 ; qtot -0.061
  5196   hL   133    MY  H14S 5196     0.025511      1.00800 ; qtot -0.035
  5197   cD   133    MY  C113 5197     0.017463     12.01000 ; qtot -0.018
  5198   hL   133    MY  H13R 5198     0.007531      1.00800 ; qtot -0.010
  5199   hL   133    MY  H13S 5199     0.007531      1.00800 ; qtot -0.003
  5200   cD   133    MY  C112 5200    -0.028094     12.01000 ; qtot -0.031
  5201   hL   133    MY  H12R 5201     0.017208      1.00800 ; qtot -0.014
  5202   hL   133    MY  H12S 5202     0.017208      1.00800 ; qtot 0.004
  5203   cD   133    MY  C111 5203    -0.031787     12.01000 ; qtot -0.028
  5204   hL   133    MY  H11R 5204     0.012677      1.00800 ; qtot -0.015
  5205   hL   133    MY  H11S 5205     0.012677      1.00800 ; qtot -0.003
  5206   cD   133    MY  C110 5206    -0.021025     12.01000 ; qtot -0.024
  5207   hL   133    MY  H10R 5207     0.010037      1.00800 ; qtot -0.014
  5208   hL   133    MY  H10S 5208     0.010037      1.00800 ; qtot -0.004
  5209   cD   133    MY   C19 5209    -0.014653     12.01000 ; qtot -0.018
  5210   hL   133    MY   H9R 5210     0.010172      1.00800 ; qtot -0.008
  5211   hL   133    MY   H9S 5211     0.010172      1.00800 ; qtot 0.002
  5212   cD   133    MY   C18 5212    -0.026451     12.01000 ; qtot -0.024
  5213   hL   133    MY   H8R 5213     0.011241      1.00800 ; qtot -0.013
  5214   hL   133    MY   H8S 5214     0.011241      1.00800 ; qtot -0.002
  5215   cD   133    MY   C17 5215    -0.004386     12.01000 ; qtot -0.006
  5216   hL   133    MY   H7R 5216     0.006833      1.00800 ; qtot 0.000
  5217   hL   133    MY   H7S 5217     0.006833      1.00800 ; qtot 0.007
  5218   cD   133    MY   C16 5218    -0.027812     12.01000 ; qtot -0.021
  5219   hL   133    MY   H6R 5219     0.011511      1.00800 ; qtot -0.009
  5220   hL   133    MY   H6S 5220     0.011511      1.00800 ; qtot 0.002
  5221   cD   133    MY   C15 5221    -0.016521     12.01000 ; qtot -0.014
  5222   hL   133    MY   H5R 5222     0.010573      1.00800 ; qtot -0.003
  5223   hL   133    MY   H5S 5223     0.010573      1.00800 ; qtot 0.007
  5224   cD   133    MY   C14 5224    -0.026954     12.01000 ; qtot -0.020
  5225   hL   133    MY   H4R 5225     0.020431      1.00800 ; qtot 0.001
  5226   hL   133    MY   H4S 5226     0.020431      1.00800 ; qtot 0.021
  5227   cD   133    MY   C13 5227    -0.002435     12.01000 ; qtot 0.019
  5228   hL   133    MY   H3R 5228     0.018859      1.00800 ; qtot 0.037
  5229   hL   133    MY   H3S 5229     0.018859      1.00800 ; qtot 0.056
  5230   cD   133    MY   C12 5230    -0.164200     12.01000 ; qtot -0.108
  5231   hL   133    MY   H2R 5231     0.053944      1.00800 ; qtot -0.054
  5232   hL   133    MY   H2S 5232     0.053944      1.00800 ; qtot -0.000
  5233   cC   134    PC   C11 5233     0.910403     12.01000 ; qtot 0.910
  5234   oC   134    PC   O12 5234    -0.671566     16.00000 ; qtot 0.239
  5235   oS   134    PC   O11 5235    -0.575489     16.00000 ; qtot -0.337
  5236   cA   134    PC    C1 5236     0.196939     12.01000 ; qtot -0.140
  5237   hE   134    PC    HR 5237     0.070469      1.00800 ; qtot -0.069
  5238   hE   134    PC    HS 5238     0.070469      1.00800 ; qtot 0.001
  5239   cA   134    PC    C2 5239     0.281242     12.01000 ; qtot 0.282
  5240   hE   134    PC    HX 5240     0.063253      1.00800 ; qtot 0.346
  5241   cA   134    PC    C3 5241     0.017459     12.01000 ; qtot 0.363
  5242   hE   134    PC    HA 5242     0.095591      1.00800 ; qtot 0.459
  5243   hE   134    PC    HB 5243     0.095591      1.00800 ; qtot 0.554
  5244   oT   134    PC   O31 5244    -0.509480     16.00000 ; qtot 0.045
  5245   pA   134    PC   P31 5245     1.339721     30.97000 ; qtot 1.385
  5246   oT   134    PC   O32 5246    -0.508176     16.00000 ; qtot 0.876
  5247   cA   134    PC   C31 5247     0.166801     12.01000 ; qtot 1.043
  5248   hE   134    PC   H1A 5248     0.078534      1.00800 ; qtot 1.122
  5249   hE   134    PC   H1B 5249     0.078534      1.00800 ; qtot 1.200
  5250   cA   134    PC   C32 5250    -0.170824     12.01000 ; qtot 1.029
  5251   hX   134    PC   H2A 5251     0.136415      1.00800 ; qtot 1.166
  5252   hX   134    PC   H2B 5252     0.136415      1.00800 ; qtot 1.302
  5253   nA   134    PC   N31 5253     0.245262     14.01000 ; qtot 1.548
  5254   cA   134    PC   C33 5254    -0.338973     12.01000 ; qtot 1.209
  5255   hX   134    PC   H3A 5255     0.172230      1.00800 ; qtot 1.381
  5256   hX   134    PC   H3B 5256     0.172230      1.00800 ; qtot 1.553
  5257   hX   134    PC   H3C 5257     0.172230      1.00800 ; qtot 1.725
  5258   cA   134    PC   C34 5258    -0.338973     12.01000 ; qtot 1.386
  5259   hX   134    PC   H4A 5259     0.172230      1.00800 ; qtot 1.559
  5260   hX   134    PC   H4B 5260     0.172230      1.00800 ; qtot 1.731
  5261   hX   134    PC   H4C 5261     0.172230      1.00800 ; qtot 1.903
  5262   cA   134    PC   C35 5262    -0.338973     12.01000 ; qtot 1.564
  5263   hX   134    PC   H5A 5263     0.172230      1.00800 ; qtot 1.736
  5264   hX   134    PC   H5B 5264     0.172230      1.00800 ; qtot 1.908
  5265   hX   134    PC   H5C 5265     0.172230      1.00800 ; qtot 2.081
  5266   oP   134    PC   O33 5266    -0.875812     16.00000 ; qtot 1.205
  5267   oP   134    PC   O34 5267    -0.875812     16.00000 ; qtot 0.329
  5268   oS   134    PC   O21 5268    -0.552948     16.00000 ; qtot -0.224
  5269   cC   134    PC   C21 5269     0.897613     12.01000 ; qtot 0.674
  5270   oC   134    PC   O22 5270    -0.673755     16.00000 ; qtot 0.000
  5271   hL   135    MY  H14T 5271     0.025511      1.00800 ; qtot 0.026
  5272   cD   135    MY  C114 5272    -0.111712     12.01000 ; qtot -0.086
  5273   hL   135    MY  H14R 5273     0.025511      1.00800 ; qtot -0.061
  5274   hL   135    MY  H14S 5274     0.025511      1.00800 ; qtot -0.035
  5275   cD   135    MY  C113 5275     0.017463     12.01000 ; qtot -0.018
  5276   hL   135    MY  H13R 5276     0.007531      1.00800 ; qtot -0.010
  5277   hL   135    MY  H13S 5277     0.007531      1.00800 ; qtot -0.003
  5278   cD   135    MY  C112 5278    -0.028094     12.01000 ; qtot -0.031
  5279   hL   135    MY  H12R 5279     0.017208      1.00800 ; qtot -0.014
  5280   hL   135    MY  H12S 5280     0.017208      1.00800 ; qtot 0.004
  5281   cD   135    MY  C111 5281    -0.031787     12.01000 ; qtot -0.028
  5282   hL   135    MY  H11R 5282     0.012677      1.00800 ; qtot -0.015
  5283   hL   135    MY  H11S 5283     0.012677      1.00800 ; qtot -0.003
  5284   cD   135    MY  C110 5284    -0.021025     12.01000 ; qtot -0.024
  5285   hL   135    MY  H10R 5285     0.010037      1.00800 ; qtot -0.014
  5286   hL   135    MY  H10S 5286     0.010037      1.00800 ; qtot -0.004
  5287   cD   135    MY   C19 5287    -0.014653     12.01000 ; qtot -0.018
  5288   hL   135    MY   H9R 5288     0.010172      1.00800 ; qtot -0.008
  5289   hL   135    MY   H9S 5289     0.010172      1.00800 ; qtot 0.002
  5290   cD   135    MY   C18 5290    -0.026451     12.01000 ; qtot -0.024
  5291   hL   135    MY   H8R 5291     0.011241      1.00800 ; qtot -0.013
  5292   hL   135    MY   H8S 5292     0.011241      1.00800 ; qtot -0.002
  5293   cD   135    MY   C17 5293    -0.004386     12.01000 ; qtot -0.006
  5294   hL   135    MY   H7R 5294     0.006833      1.00800 ; qtot 0.000
  5295   hL   135    MY   H7S 5295     0.006833      1.00800 ; qtot 0.007
  5296   cD   135    MY   C16 5296    -0.027812     12.01000 ; qtot -0.021
  5297   hL   135    MY   H6R 5297     0.011511      1.00800 ; qtot -0.009
  5298   hL   135    MY   H6S 5298     0.011511      1.00800 ; qtot 0.002
  5299   cD   135    MY   C15 5299    -0.016521     12.01000 ; qtot -0.014
  5300   hL   135    MY   H5R 5300     0.010573      1.00800 ; qtot -0.003
  5301   hL   135    MY   H5S 5301     0.010573      1.00800 ; qtot 0.007
  5302   cD   135    MY   C14 5302    -0.026954     12.01000 ; qtot -0.020
  5303   hL   135    MY   H4R 5303     0.020431      1.00800 ; qtot 0.001
  5304   hL   135    MY   H4S 5304     0.020431      1.00800 ; qtot 0.021
  5305   cD   135    MY   C13 5305    -0.002435     12.01000 ; qtot 0.019
  5306   hL   135    MY   H3R 5306     0.018859      1.00800 ; qtot 0.037
  5307   hL   135    MY   H3S 5307     0.018859      1.00800 ; qtot 0.056
  5308   cD   135    MY   C12 5308    -0.164200     12.01000 ; qtot -0.108
  5309   hL   135    MY   H2R 5309     0.053944      1.00800 ; qtot -0.054
  5310   hL   135    MY   H2S 5310     0.053944      1.00800 ; qtot -0.000
  5311   hL   136    MY  H14T 5311     0.025511      1.00800 ; qtot 0.026
  5312   cD   136    MY  C114 5312    -0.111712     12.01000 ; qtot -0.086
  5313   hL   136    MY  H14R 5313     0.025511      1.00800 ; qtot -0.061
  5314   hL   136    MY  H14S 5314     0.025511      1.00800 ; qtot -0.035
  5315   cD   136    MY  C113 5315     0.017463     12.01000 ; qtot -0.018
  5316   hL   136    MY  H13R 5316     0.007531      1.00800 ; qtot -0.010
  5317   hL   136    MY  H13S 5317     0.007531      1.00800 ; qtot -0.003
  5318   cD   136    MY  C112 5318    -0.028094     12.01000 ; qtot -0.031
  5319   hL   136    MY  H12R 5319     0.017208      1.00800 ; qtot -0.014
  5320   hL   136    MY  H12S 5320     0.017208      1.00800 ; qtot 0.004
  5321   cD   136    MY  C111 5321    -0.031787     12.01000 ; qtot -0.028
  5322   hL   136    MY  H11R 5322     0.012677      1.00800 ; qtot -0.015
  5323   hL   136    MY  H11S 5323     0.012677      1.00800 ; qtot -0.003
  5324   cD   136    MY  C110 5324    -0.021025     12.01000 ; qtot -0.024
  5325   hL   136    MY  H10R 5325     0.010037      1.00800 ; qtot -0.014
  5326   hL   136    MY  H10S 5326     0.010037      1.00800 ; qtot -0.004
  5327   cD   136    MY   C19 5327    -0.014653     12.01000 ; qtot -0.018
  5328   hL   136    MY   H9R 5328     0.010172      1.00800 ; qtot -0.008
  5329   hL   136    MY   H9S 5329     0.010172      1.00800 ; qtot 0.002
  5330   cD   136    MY   C18 5330    -0.026451     12.01000 ; qtot -0.024
  5331   hL   136    MY   H8R 5331     0.011241      1.00800 ; qtot -0.013
  5332   hL   136    MY   H8S 5332     0.011241      1.00800 ; qtot -0.002
  5333   cD   136    MY   C17 5333    -0.004386     12.01000 ; qtot -0.006
  5334   hL   136    MY   H7R 5334     0.006833      1.00800 ; qtot 0.000
  5335   hL   136    MY   H7S 5335     0.006833      1.00800 ; qtot 0.007
  5336   cD   136    MY   C16 5336    -0.027812     12.01000 ; qtot -0.021
  5337   hL   136    MY   H6R 5337     0.011511      1.00800 ; qtot -0.009
  5338   hL   136    MY   H6S 5338     0.011511      1.00800 ; qtot 0.002
  5339   cD   136    MY   C15 5339    -0.016521     12.01000 ; qtot -0.014
  5340   hL   136    MY   H5R 5340     0.010573      1.00800 ; qtot -0.003
  5341   hL   136    MY   H5S 5341     0.010573      1.00800 ; qtot 0.007
  5342   cD   136    MY   C14 5342    -0.026954     12.01000 ; qtot -0.020
  5343   hL   136    MY   H4R 5343     0.020431      1.00800 ; qtot 0.001
  5344   hL   136    MY   H4S 5344     0.020431      1.00800 ; qtot 0.021
  5345   cD   136    MY   C13 5345    -0.002435     12.01000 ; qtot 0.019
  5346   hL   136    MY   H3R 5346     0.018859      1.00800 ; qtot 0.037
  5347   hL   136    MY   H3S 5347     0.018859      1.00800 ; qtot 0.056
  5348   cD   136    MY   C12 5348    -0.164200     12.01000 ; qtot -0.108
  5349   hL   136    MY   H2R 5349     0.053944      1.00800 ; qtot -0.054
  5350   hL   136    MY   H2S 5350     0.053944      1.00800 ; qtot -0.000
  5351   cC   137    PC   C11 5351     0.910403     12.01000 ; qtot 0.910
  5352   oC   137    PC   O12 5352    -0.671566     16.00000 ; qtot 0.239
  5353   oS   137    PC   O11 5353    -0.575489     16.00000 ; qtot -0.337
  5354   cA   137    PC    C1 5354     0.196939     12.01000 ; qtot -0.140
  5355   hE   137    PC    HR 5355     0.070469      1.00800 ; qtot -0.069
  5356   hE   137    PC    HS 5356     0.070469      1.00800 ; qtot 0.001
  5357   cA   137    PC    C2 5357     0.281242     12.01000 ; qtot 0.282
  5358   hE   137    PC    HX 5358     0.063253      1.00800 ; qtot 0.346
  5359   cA   137    PC    C3 5359     0.017459     12.01000 ; qtot 0.363
  5360   hE   137    PC    HA 5360     0.095591      1.00800 ; qtot 0.459
  5361   hE   137    PC    HB 5361     0.095591      1.00800 ; qtot 0.554
  5362   oT   137    PC   O31 5362    -0.509480     16.00000 ; qtot 0.045
  5363   pA   137    PC   P31 5363     1.339721     30.97000 ; qtot 1.385
  5364   oT   137    PC   O32 5364    -0.508176     16.00000 ; qtot 0.876
  5365   cA   137    PC   C31 5365     0.166801     12.01000 ; qtot 1.043
  5366   hE   137    PC   H1A 5366     0.078534      1.00800 ; qtot 1.122
  5367   hE   137    PC   H1B 5367     0.078534      1.00800 ; qtot 1.200
  5368   cA   137    PC   C32 5368    -0.170824     12.01000 ; qtot 1.029
  5369   hX   137    PC   H2A 5369     0.136415      1.00800 ; qtot 1.166
  5370   hX   137    PC   H2B 5370     0.136415      1.00800 ; qtot 1.302
  5371   nA   137    PC   N31 5371     0.245262     14.01000 ; qtot 1.548
  5372   cA   137    PC   C33 5372    -0.338973     12.01000 ; qtot 1.209
  5373   hX   137    PC   H3A 5373     0.172230      1.00800 ; qtot 1.381
  5374   hX   137    PC   H3B 5374     0.172230      1.00800 ; qtot 1.553
  5375   hX   137    PC   H3C 5375     0.172230      1.00800 ; qtot 1.725
  5376   cA   137    PC   C34 5376    -0.338973     12.01000 ; qtot 1.386
  5377   hX   137    PC   H4A 5377     0.172230      1.00800 ; qtot 1.559
  5378   hX   137    PC   H4B 5378     0.172230      1.00800 ; qtot 1.731
  5379   hX   137    PC   H4C 5379     0.172230      1.00800 ; qtot 1.903
  5380   cA   137    PC   C35 5380    -0.338973     12.01000 ; qtot 1.564
  5381   hX   137    PC   H5A 5381     0.172230      1.00800 ; qtot 1.736
  5382   hX   137    PC   H5B 5382     0.172230      1.00800 ; qtot 1.908
  5383   hX   137    PC   H5C 5383     0.172230      1.00800 ; qtot 2.081
  5384   oP   137    PC   O33 5384    -0.875812     16.00000 ; qtot 1.205
  5385   oP   137    PC   O34 5385    -0.875812     16.00000 ; qtot 0.329
  5386   oS   137    PC   O21 5386    -0.552948     16.00000 ; qtot -0.224
  5387   cC   137    PC   C21 5387     0.897613     12.01000 ; qtot 0.674
  5388   oC   137    PC   O22 5388    -0.673755     16.00000 ; qtot 0.000
  5389   hL   138    MY  H14T 5389     0.025511      1.00800 ; qtot 0.026
  5390   cD   138    MY  C114 5390    -0.111712     12.01000 ; qtot -0.086
  5391   hL   138    MY  H14R 5391     0.025511      1.00800 ; qtot -0.061
  5392   hL   138    MY  H14S 5392     0.025511      1.00800 ; qtot -0.035
  5393   cD   138    MY  C113 5393     0.017463     12.01000 ; qtot -0.018
  5394   hL   138    MY  H13R 5394     0.007531      1.00800 ; qtot -0.010
  5395   hL   138    MY  H13S 5395     0.007531      1.00800 ; qtot -0.003
  5396   cD   138    MY  C112 5396    -0.028094     12.01000 ; qtot -0.031
  5397   hL   138    MY  H12R 5397     0.017208      1.00800 ; qtot -0.014
  5398   hL   138    MY  H12S 5398     0.017208      1.00800 ; qtot 0.004
  5399   cD   138    MY  C111 5399    -0.031787     12.01000 ; qtot -0.028
  5400   hL   138    MY  H11R 5400     0.012677      1.00800 ; qtot -0.015
  5401   hL   138    MY  H11S 5401     0.012677      1.00800 ; qtot -0.003
  5402   cD   138    MY  C110 5402    -0.021025     12.01000 ; qtot -0.024
  5403   hL   138    MY  H10R 5403     0.010037      1.00800 ; qtot -0.014
  5404   hL   138    MY  H10S 5404     0.010037      1.00800 ; qtot -0.004
  5405   cD   138    MY   C19 5405    -0.014653     12.01000 ; qtot -0.018
  5406   hL   138    MY   H9R 5406     0.010172      1.00800 ; qtot -0.008
  5407   hL   138    MY   H9S 5407     0.010172      1.00800 ; qtot 0.002
  5408   cD   138    MY   C18 5408    -0.026451     12.01000 ; qtot -0.024
  5409   hL   138    MY   H8R 5409     0.011241      1.00800 ; qtot -0.013
  5410   hL   138    MY   H8S 5410     0.011241      1.00800 ; qtot -0.002
  5411   cD   138    MY   C17 5411    -0.004386     12.01000 ; qtot -0.006
  5412   hL   138    MY   H7R 5412     0.006833      1.00800 ; qtot 0.000
  5413   hL   138    MY   H7S 5413     0.006833      1.00800 ; qtot 0.007
  5414   cD   138    MY   C16 5414    -0.027812     12.01000 ; qtot -0.021
  5415   hL   138    MY   H6R 5415     0.011511      1.00800 ; qtot -0.009
  5416   hL   138    MY   H6S 5416     0.011511      1.00800 ; qtot 0.002
  5417   cD   138    MY   C15 5417    -0.016521     12.01000 ; qtot -0.014
  5418   hL   138    MY   H5R 5418     0.010573      1.00800 ; qtot -0.003
  5419   hL   138    MY   H5S 5419     0.010573      1.00800 ; qtot 0.007
  5420   cD   138    MY   C14 5420    -0.026954     12.01000 ; qtot -0.020
  5421   hL   138    MY   H4R 5421     0.020431      1.00800 ; qtot 0.001
  5422   hL   138    MY   H4S 5422     0.020431      1.00800 ; qtot 0.021
  5423   cD   138    MY   C13 5423    -0.002435     12.01000 ; qtot 0.019
  5424   hL   138    MY   H3R 5424     0.018859      1.00800 ; qtot 0.037
  5425   hL   138    MY   H3S 5425     0.018859      1.00800 ; qtot 0.056
  5426   cD   138    MY   C12 5426    -0.164200     12.01000 ; qtot -0.108
  5427   hL   138    MY   H2R 5427     0.053944      1.00800 ; qtot -0.054
  5428   hL   138    MY   H2S 5428     0.053944      1.00800 ; qtot -0.000
  5429   hL   139    MY  H14T 5429     0.025511      1.00800 ; qtot 0.026
  5430   cD   139    MY  C114 5430    -0.111712     12.01000 ; qtot -0.086
  5431   hL   139    MY  H14R 5431     0.025511      1.00800 ; qtot -0.061
  5432   hL   139    MY  H14S 5432     0.025511      1.00800 ; qtot -0.035
  5433   cD   139    MY  C113 5433     0.017463     12.01000 ; qtot -0.018
  5434   hL   139    MY  H13R 5434     0.007531      1.00800 ; qtot -0.010
  5435   hL   139    MY  H13S 5435     0.007531      1.00800 ; qtot -0.003
  5436   cD   139    MY  C112 5436    -0.028094     12.01000 ; qtot -0.031
  5437   hL   139    MY  H12R 5437     0.017208      1.00800 ; qtot -0.014
  5438   hL   139    MY  H12S 5438     0.017208      1.00800 ; qtot 0.004
  5439   cD   139    MY  C111 5439    -0.031787     12.01000 ; qtot -0.028
  5440   hL   139    MY  H11R 5440     0.012677      1.00800 ; qtot -0.015
  5441   hL   139    MY  H11S 5441     0.012677      1.00800 ; qtot -0.003
  5442   cD   139    MY  C110 5442    -0.021025     12.01000 ; qtot -0.024
  5443   hL   139    MY  H10R 5443     0.010037      1.00800 ; qtot -0.014
  5444   hL   139    MY  H10S 5444     0.010037      1.00800 ; qtot -0.004
  5445   cD   139    MY   C19 5445    -0.014653     12.01000 ; qtot -0.018
  5446   hL   139    MY   H9R 5446     0.010172      1.00800 ; qtot -0.008
  5447   hL   139    MY   H9S 5447     0.010172      1.00800 ; qtot 0.002
  5448   cD   139    MY   C18 5448    -0.026451     12.01000 ; qtot -0.024
  5449   hL   139    MY   H8R 5449     0.011241      1.00800 ; qtot -0.013
  5450   hL   139    MY   H8S 5450     0.011241      1.00800 ; qtot -0.002
  5451   cD   139    MY   C17 5451    -0.004386     12.01000 ; qtot -0.006
  5452   hL   139    MY   H7R 5452     0.006833      1.00800 ; qtot 0.000
  5453   hL   139    MY   H7S 5453     0.006833      1.00800 ; qtot 0.007
  5454   cD   139    MY   C16 5454    -0.027812     12.01000 ; qtot -0.021
  5455   hL   139    MY   H6R 5455     0.011511      1.00800 ; qtot -0.009
  5456   hL   139    MY   H6S 5456     0.011511      1.00800 ; qtot 0.002
  5457   cD   139    MY   C15 5457    -0.016521     12.01000 ; qtot -0.014
  5458   hL   139    MY   H5R 5458     0.010573      1.00800 ; qtot -0.003
  5459   hL   139    MY   H5S 5459     0.010573      1.00800 ; qtot 0.007
  5460   cD   139    MY   C14 5460    -0.026954     12.01000 ; qtot -0.020
  5461   hL   139    MY   H4R 5461     0.020431      1.00800 ; qtot 0.001
  5462   hL   139    MY   H4S 5462     0.020431      1.00800 ; qtot 0.021
  5463   cD   139    MY   C13 5463    -0.002435     12.01000 ; qtot 0.019
  5464   hL   139    MY   H3R 5464     0.018859      1.00800 ; qtot 0.037
  5465   hL   139    MY   H3S 5465     0.018859      1.00800 ; qtot 0.056
  5466   cD   139    MY   C12 5466    -0.164200     12.01000 ; qtot -0.108
  5467   hL   139    MY   H2R 5467     0.053944      1.00800 ; qtot -0.054
  5468   hL   139    MY   H2S 5468     0.053944      1.00800 ; qtot -0.000
  5469   cC   140    PC   C11 5469     0.910403     12.01000 ; qtot 0.910
  5470   oC   140    PC   O12 5470    -0.671566     16.00000 ; qtot 0.239
  5471   oS   140    PC   O11 5471    -0.575489     16.00000 ; qtot -0.337
  5472   cA   140    PC    C1 5472     0.196939     12.01000 ; qtot -0.140
  5473   hE   140    PC    HR 5473     0.070469      1.00800 ; qtot -0.069
  5474   hE   140    PC    HS 5474     0.070469      1.00800 ; qtot 0.001
  5475   cA   140    PC    C2 5475     0.281242     12.01000 ; qtot 0.282
  5476   hE   140    PC    HX 5476     0.063253      1.00800 ; qtot 0.346
  5477   cA   140    PC    C3 5477     0.017459     12.01000 ; qtot 0.363
  5478   hE   140    PC    HA 5478     0.095591      1.00800 ; qtot 0.459
  5479   hE   140    PC    HB 5479     0.095591      1.00800 ; qtot 0.554
  5480   oT   140    PC   O31 5480    -0.509480     16.00000 ; qtot 0.045
  5481   pA   140    PC   P31 5481     1.339721     30.97000 ; qtot 1.385
  5482   oT   140    PC   O32 5482    -0.508176     16.00000 ; qtot 0.876
  5483   cA   140    PC   C31 5483     0.166801     12.01000 ; qtot 1.043
  5484   hE   140    PC   H1A 5484     0.078534      1.00800 ; qtot 1.122
  5485   hE   140    PC   H1B 5485     0.078534      1.00800 ; qtot 1.200
  5486   cA   140    PC   C32 5486    -0.170824     12.01000 ; qtot 1.029
  5487   hX   140    PC   H2A 5487     0.136415      1.00800 ; qtot 1.166
  5488   hX   140    PC   H2B 5488     0.136415      1.00800 ; qtot 1.302
  5489   nA   140    PC   N31 5489     0.245262     14.01000 ; qtot 1.548
  5490   cA   140    PC   C33 5490    -0.338973     12.01000 ; qtot 1.209
  5491   hX   140    PC   H3A 5491     0.172230      1.00800 ; qtot 1.381
  5492   hX   140    PC   H3B 5492     0.172230      1.00800 ; qtot 1.553
  5493   hX   140    PC   H3C 5493     0.172230      1.00800 ; qtot 1.725
  5494   cA   140    PC   C34 5494    -0.338973     12.01000 ; qtot 1.386
  5495   hX   140    PC   H4A 5495     0.172230      1.00800 ; qtot 1.559
  5496   hX   140    PC   H4B 5496     0.172230      1.00800 ; qtot 1.731
  5497   hX   140    PC   H4C 5497     0.172230      1.00800 ; qtot 1.903
  5498   cA   140    PC   C35 5498    -0.338973     12.01000 ; qtot 1.564
  5499   hX   140    PC   H5A 5499     0.172230      1.00800 ; qtot 1.736
  5500   hX   140    PC   H5B 5500     0.172230      1.00800 ; qtot 1.908
  5501   hX   140    PC   H5C 5501     0.172230      1.00800 ; qtot 2.081
  5502   oP   140    PC   O33 5502    -0.875812     16.00000 ; qtot 1.205
  5503   oP   140    PC   O34 5503    -0.875812     16.00000 ; qtot 0.329
  5504   oS   140    PC   O21 5504    -0.552948     16.00000 ; qtot -0.224
  5505   cC   140    PC   C21 5505     0.897613     12.01000 ; qtot 0.674
  5506   oC   140    PC   O22 5506    -0.673755     16.00000 ; qtot 0.000
  5507   hL   141    MY  H14T 5507     0.025511      1.00800 ; qtot 0.026
  5508   cD   141    MY  C114 5508    -0.111712     12.01000 ; qtot -0.086
  5509   hL   141    MY  H14R 5509     0.025511      1.00800 ; qtot -0.061
  5510   hL   141    MY  H14S 5510     0.025511      1.00800 ; qtot -0.035
  5511   cD   141    MY  C113 5511     0.017463     12.01000 ; qtot -0.018
  5512   hL   141    MY  H13R 5512     0.007531      1.00800 ; qtot -0.010
  5513   hL   141    MY  H13S 5513     0.007531      1.00800 ; qtot -0.003
  5514   cD   141    MY  C112 5514    -0.028094     12.01000 ; qtot -0.031
  5515   hL   141    MY  H12R 5515     0.017208      1.00800 ; qtot -0.014
  5516   hL   141    MY  H12S 5516     0.017208      1.00800 ; qtot 0.004
  5517   cD   141    MY  C111 5517    -0.031787     12.01000 ; qtot -0.028
  5518   hL   141    MY  H11R 5518     0.012677      1.00800 ; qtot -0.015
  5519   hL   141    MY  H11S 5519     0.012677      1.00800 ; qtot -0.003
  5520   cD   141    MY  C110 5520    -0.021025     12.01000 ; qtot -0.024
  5521   hL   141    MY  H10R 5521     0.010037      1.00800 ; qtot -0.014
  5522   hL   141    MY  H10S 5522     0.010037      1.00800 ; qtot -0.004
  5523   cD   141    MY   C19 5523    -0.014653     12.01000 ; qtot -0.018
  5524   hL   141    MY   H9R 5524     0.010172      1.00800 ; qtot -0.008
  5525   hL   141    MY   H9S 5525     0.010172      1.00800 ; qtot 0.002
  5526   cD   141    MY   C18 5526    -0.026451     12.01000 ; qtot -0.024
  5527   hL   141    MY   H8R 5527     0.011241      1.00800 ; qtot -0.013
  5528   hL   141    MY   H8S 5528     0.011241      1.00800 ; qtot -0.002
  5529   cD   141    MY   C17 5529    -0.004386     12.01000 ; qtot -0.006
  5530   hL   141    MY   H7R 5530     0.006833      1.00800 ; qtot 0.000
  5531   hL   141    MY   H7S 5531     0.006833      1.00800 ; qtot 0.007
  5532   cD   141    MY   C16 5532    -0.027812     12.01000 ; qtot -0.021
  5533   hL   141    MY   H6R 5533     0.011511      1.00800 ; qtot -0.009
  5534   hL   141    MY   H6S 5534     0.011511      1.00800 ; qtot 0.002
  5535   cD   141    MY   C15 5535    -0.016521     12.01000 ; qtot -0.014
  5536   hL   141    MY   H5R 5536     0.010573      1.00800 ; qtot -0.003
  5537   hL   141    MY   H5S 5537     0.010573      1.00800 ; qtot 0.007
  5538   cD   141    MY   C14 5538    -0.026954     12.01000 ; qtot -0.020
  5539   hL   141    MY   H4R 5539     0.020431      1.00800 ; qtot 0.001
  5540   hL   141    MY   H4S 5540     0.020431      1.00800 ; qtot 0.021
  5541   cD   141    MY   C13 5541    -0.002435     12.01000 ; qtot 0.019
  5542   hL   141    MY   H3R 5542     0.018859      1.00800 ; qtot 0.037
  5543   hL   141    MY   H3S 5543     0.018859      1.00800 ; qtot 0.056
  5544   cD   141    MY   C12 5544    -0.164200     12.01000 ; qtot -0.108
  5545   hL   141    MY   H2R 5545     0.053944      1.00800 ; qtot -0.054
  5546   hL   141    MY   H2S 5546     0.053944      1.00800 ; qtot -0.000
  5547   hL   142    MY  H14T 5547     0.025511      1.00800 ; qtot 0.026
  5548   cD   142    MY  C114 5548    -0.111712     12.01000 ; qtot -0.086
  5549   hL   142    MY  H14R 5549     0.025511      1.00800 ; qtot -0.061
  5550   hL   142    MY  H14S 5550     0.025511      1.00800 ; qtot -0.035
  5551   cD   142    MY  C113 5551     0.017463     12.01000 ; qtot -0.018
  5552   hL   142    MY  H13R 5552     0.007531      1.00800 ; qtot -0.010
  5553   hL   142    MY  H13S 5553     0.007531      1.00800 ; qtot -0.003
  5554   cD   142    MY  C112 5554    -0.028094     12.01000 ; qtot -0.031
  5555   hL   142    MY  H12R 5555     0.017208      1.00800 ; qtot -0.014
  5556   hL   142    MY  H12S 5556     0.017208      1.00800 ; qtot 0.004
  5557   cD   142    MY  C111 5557    -0.031787     12.01000 ; qtot -0.028
  5558   hL   142    MY  H11R 5558     0.012677      1.00800 ; qtot -0.015
  5559   hL   142    MY  H11S 5559     0.012677      1.00800 ; qtot -0.003
  5560   cD   142    MY  C110 5560    -0.021025     12.01000 ; qtot -0.024
  5561   hL   142    MY  H10R 5561     0.010037      1.00800 ; qtot -0.014
  5562   hL   142    MY  H10S 5562     0.010037      1.00800 ; qtot -0.004
  5563   cD   142    MY   C19 5563    -0.014653     12.01000 ; qtot -0.018
  5564   hL   142    MY   H9R 5564     0.010172      1.00800 ; qtot -0.008
  5565   hL   142    MY   H9S 5565     0.010172      1.00800 ; qtot 0.002
  5566   cD   142    MY   C18 5566    -0.026451     12.01000 ; qtot -0.024
  5567   hL   142    MY   H8R 5567     0.011241      1.00800 ; qtot -0.013
  5568   hL   142    MY   H8S 5568     0.011241      1.00800 ; qtot -0.002
  5569   cD   142    MY   C17 5569    -0.004386     12.01000 ; qtot -0.006
  5570   hL   142    MY   H7R 5570     0.006833      1.00800 ; qtot 0.000
  5571   hL   142    MY   H7S 5571     0.006833      1.00800 ; qtot 0.007
  5572   cD   142    MY   C16 5572    -0.027812     12.01000 ; qtot -0.021
  5573   hL   142    MY   H6R 5573     0.011511      1.00800 ; qtot -0.009
  5574   hL   142    MY   H6S 5574     0.011511      1.00800 ; qtot 0.002
  5575   cD   142    MY   C15 5575    -0.016521     12.01000 ; qtot -0.014
  5576   hL   142    MY   H5R 5576     0.010573      1.00800 ; qtot -0.003
  5577   hL   142    MY   H5S 5577     0.010573      1.00800 ; qtot 0.007
  5578   cD   142    MY   C14 5578    -0.026954     12.01000 ; qtot -0.020
  5579   hL   142    MY   H4R 5579     0.020431      1.00800 ; qtot 0.001
  5580   hL   142    MY   H4S 5580     0.020431      1.00800 ; qtot 0.021
  5581   cD   142    MY   C13 5581    -0.002435     12.01000 ; qtot 0.019
  5582   hL   142    MY   H3R 5582     0.018859      1.00800 ; qtot 0.037
  5583   hL   142    MY   H3S 5583     0.018859      1.00800 ; qtot 0.056
  5584   cD   142    MY   C12 5584    -0.164200     12.01000 ; qtot -0.108
  5585   hL   142    MY   H2R 5585     0.053944      1.00800 ; qtot -0.054
  5586   hL   142    MY   H2S 5586     0.053944      1.00800 ; qtot -0.000
  5587   cC   143    PC   C11 5587     0.910403     12.01000 ; qtot 0.910
  5588   oC   143    PC   O12 5588    -0.671566     16.00000 ; qtot 0.239
  5589   oS   143    PC   O11 5589    -0.575489     16.00000 ; qtot -0.337
  5590   cA   143    PC    C1 5590     0.196939     12.01000 ; qtot -0.140
  5591   hE   143    PC    HR 5591     0.070469      1.00800 ; qtot -0.069
  5592   hE   143    PC    HS 5592     0.070469      1.00800 ; qtot 0.001
  5593   cA   143    PC    C2 5593     0.281242     12.01000 ; qtot 0.282
  5594   hE   143    PC    HX 5594     0.063253      1.00800 ; qtot 0.346
  5595   cA   143    PC    C3 5595     0.017459     12.01000 ; qtot 0.363
  5596   hE   143    PC    HA 5596     0.095591      1.00800 ; qtot 0.459
  5597   hE   143    PC    HB 5597     0.095591      1.00800 ; qtot 0.554
  5598   oT   143    PC   O31 5598    -0.509480     16.00000 ; qtot 0.045
  5599   pA   143    PC   P31 5599     1.339721     30.97000 ; qtot 1.385
  5600   oT   143    PC   O32 5600    -0.508176     16.00000 ; qtot 0.876
  5601   cA   143    PC   C31 5601     0.166801     12.01000 ; qtot 1.043
  5602   hE   143    PC   H1A 5602     0.078534      1.00800 ; qtot 1.122
  5603   hE   143    PC   H1B 5603     0.078534      1.00800 ; qtot 1.200
  5604   cA   143    PC   C32 5604    -0.170824     12.01000 ; qtot 1.029
  5605   hX   143    PC   H2A 5605     0.136415      1.00800 ; qtot 1.166
  5606   hX   143    PC   H2B 5606     0.136415      1.00800 ; qtot 1.302
  5607   nA   143    PC   N31 5607     0.245262     14.01000 ; qtot 1.548
  5608   cA   143    PC   C33 5608    -0.338973     12.01000 ; qtot 1.209
  5609   hX   143    PC   H3A 5609     0.172230      1.00800 ; qtot 1.381
  5610   hX   143    PC   H3B 5610     0.172230      1.00800 ; qtot 1.553
  5611   hX   143    PC   H3C 5611     0.172230      1.00800 ; qtot 1.725
  5612   cA   143    PC   C34 5612    -0.338973     12.01000 ; qtot 1.386
  5613   hX   143    PC   H4A 5613     0.172230      1.00800 ; qtot 1.559
  5614   hX   143    PC   H4B 5614     0.172230      1.00800 ; qtot 1.731
  5615   hX   143    PC   H4C 5615     0.172230      1.00800 ; qtot 1.903
  5616   cA   143    PC   C35 5616    -0.338973     12.01000 ; qtot 1.564
  5617   hX   143    PC   H5A 5617     0.172230      1.00800 ; qtot 1.736
  5618   hX   143    PC   H5B 5618     0.172230      1.00800 ; qtot 1.908
  5619   hX   143    PC   H5C 5619     0.172230      1.00800 ; qtot 2.081
  5620   oP   143    PC   O33 5620    -0.875812     16.00000 ; qtot 1.205
  5621   oP   143    PC   O34 5621    -0.875812     16.00000 ; qtot 0.329
  5622   oS   143    PC   O21 5622    -0.552948     16.00000 ; qtot -0.224
  5623   cC   143    PC   C21 5623     0.897613     12.01000 ; qtot 0.674
  5624   oC   143    PC   O22 5624    -0.673755     16.00000 ; qtot 0.000
  5625   hL   144    MY  H14T 5625     0.025511      1.00800 ; qtot 0.026
  5626   cD   144    MY  C114 5626    -0.111712     12.01000 ; qtot -0.086
  5627   hL   144    MY  H14R 5627     0.025511      1.00800 ; qtot -0.061
  5628   hL   144    MY  H14S 5628     0.025511      1.00800 ; qtot -0.035
  5629   cD   144    MY  C113 5629     0.017463     12.01000 ; qtot -0.018
  5630   hL   144    MY  H13R 5630     0.007531      1.00800 ; qtot -0.010
  5631   hL   144    MY  H13S 5631     0.007531      1.00800 ; qtot -0.003
  5632   cD   144    MY  C112 5632    -0.028094     12.01000 ; qtot -0.031
  5633   hL   144    MY  H12R 5633     0.017208      1.00800 ; qtot -0.014
  5634   hL   144    MY  H12S 5634     0.017208      1.00800 ; qtot 0.004
  5635   cD   144    MY  C111 5635    -0.031787     12.01000 ; qtot -0.028
  5636   hL   144    MY  H11R 5636     0.012677      1.00800 ; qtot -0.015
  5637   hL   144    MY  H11S 5637     0.012677      1.00800 ; qtot -0.003
  5638   cD   144    MY  C110 5638    -0.021025     12.01000 ; qtot -0.024
  5639   hL   144    MY  H10R 5639     0.010037      1.00800 ; qtot -0.014
  5640   hL   144    MY  H10S 5640     0.010037      1.00800 ; qtot -0.004
  5641   cD   144    MY   C19 5641    -0.014653     12.01000 ; qtot -0.018
  5642   hL   144    MY   H9R 5642     0.010172      1.00800 ; qtot -0.008
  5643   hL   144    MY   H9S 5643     0.010172      1.00800 ; qtot 0.002
  5644   cD   144    MY   C18 5644    -0.026451     12.01000 ; qtot -0.024
  5645   hL   144    MY   H8R 5645     0.011241      1.00800 ; qtot -0.013
  5646   hL   144    MY   H8S 5646     0.011241      1.00800 ; qtot -0.002
  5647   cD   144    MY   C17 5647    -0.004386     12.01000 ; qtot -0.006
  5648   hL   144    MY   H7R 5648     0.006833      1.00800 ; qtot 0.000
  5649   hL   144    MY   H7S 5649     0.006833      1.00800 ; qtot 0.007
  5650   cD   144    MY   C16 5650    -0.027812     12.01000 ; qtot -0.021
  5651   hL   144    MY   H6R 5651     0.011511      1.00800 ; qtot -0.009
  5652   hL   144    MY   H6S 5652     0.011511      1.00800 ; qtot 0.002
  5653   cD   144    MY   C15 5653    -0.016521     12.01000 ; qtot -0.014
  5654   hL   144    MY   H5R 5654     0.010573      1.00800 ; qtot -0.003
  5655   hL   144    MY   H5S 5655     0.010573      1.00800 ; qtot 0.007
  5656   cD   144    MY   C14 5656    -0.026954     12.01000 ; qtot -0.020
  5657   hL   144    MY   H4R 5657     0.020431      1.00800 ; qtot 0.001
  5658   hL   144    MY   H4S 5658     0.020431      1.00800 ; qtot 0.021
  5659   cD   144    MY   C13 5659    -0.002435     12.01000 ; qtot 0.019
  5660   hL   144    MY   H3R 5660     0.018859      1.00800 ; qtot 0.037
  5661   hL   144    MY   H3S 5661     0.018859      1.00800 ; qtot 0.056
  5662   cD   144    MY   C12 5662    -0.164200     12.01000 ; qtot -0.108
  5663   hL   144    MY   H2R 5663     0.053944      1.00800 ; qtot -0.054
  5664   hL   144    MY   H2S 5664     0.053944      1.00800 ; qtot -0.000
  5665   hL   145    MY  H14T 5665     0.025511      1.00800 ; qtot 0.026
  5666   cD   145    MY  C114 5666    -0.111712     12.01000 ; qtot -0.086
  5667   hL   145    MY  H14R 5667     0.025511      1.00800 ; qtot -0.061
  5668   hL   145    MY  H14S 5668     0.025511      1.00800 ; qtot -0.035
  5669   cD   145    MY  C113 5669     0.017463     12.01000 ; qtot -0.018
  5670   hL   145    MY  H13R 5670     0.007531      1.00800 ; qtot -0.010
  5671   hL   145    MY  H13S 5671     0.007531      1.00800 ; qtot -0.003
  5672   cD   145    MY  C112 5672    -0.028094     12.01000 ; qtot -0.031
  5673   hL   145    MY  H12R 5673     0.017208      1.00800 ; qtot -0.014
  5674   hL   145    MY  H12S 5674     0.017208      1.00800 ; qtot 0.004
  5675   cD   145    MY  C111 5675    -0.031787     12.01000 ; qtot -0.028
  5676   hL   145    MY  H11R 5676     0.012677      1.00800 ; qtot -0.015
  5677   hL   145    MY  H11S 5677     0.012677      1.00800 ; qtot -0.003
  5678   cD   145    MY  C110 5678    -0.021025     12.01000 ; qtot -0.024
  5679   hL   145    MY  H10R 5679     0.010037      1.00800 ; qtot -0.014
  5680   hL   145    MY  H10S 5680     0.010037      1.00800 ; qtot -0.004
  5681   cD   145    MY   C19 5681    -0.014653     12.01000 ; qtot -0.018
  5682   hL   145    MY   H9R 5682     0.010172      1.00800 ; qtot -0.008
  5683   hL   145    MY   H9S 5683     0.010172      1.00800 ; qtot 0.002
  5684   cD   145    MY   C18 5684    -0.026451     12.01000 ; qtot -0.024
  5685   hL   145    MY   H8R 5685     0.011241      1.00800 ; qtot -0.013
  5686   hL   145    MY   H8S 5686     0.011241      1.00800 ; qtot -0.002
  5687   cD   145    MY   C17 5687    -0.004386     12.01000 ; qtot -0.006
  5688   hL   145    MY   H7R 5688     0.006833      1.00800 ; qtot 0.000
  5689   hL   145    MY   H7S 5689     0.006833      1.00800 ; qtot 0.007
  5690   cD   145    MY   C16 5690    -0.027812     12.01000 ; qtot -0.021
  5691   hL   145    MY   H6R 5691     0.011511      1.00800 ; qtot -0.009
  5692   hL   145    MY   H6S 5692     0.011511      1.00800 ; qtot 0.002
  5693   cD   145    MY   C15 5693    -0.016521     12.01000 ; qtot -0.014
  5694   hL   145    MY   H5R 5694     0.010573      1.00800 ; qtot -0.003
  5695   hL   145    MY   H5S 5695     0.010573      1.00800 ; qtot 0.007
  5696   cD   145    MY   C14 5696    -0.026954     12.01000 ; qtot -0.020
  5697   hL   145    MY   H4R 5697     0.020431      1.00800 ; qtot 0.001
  5698   hL   145    MY   H4S 5698     0.020431      1.00800 ; qtot 0.021
  5699   cD   145    MY   C13 5699    -0.002435     12.01000 ; qtot 0.019
  5700   hL   145    MY   H3R 5700     0.018859      1.00800 ; qtot 0.037
  5701   hL   145    MY   H3S 5701     0.018859      1.00800 ; qtot 0.056
  5702   cD   145    MY   C12 5702    -0.164200     12.01000 ; qtot -0.108
  5703   hL   145    MY   H2R 5703     0.053944      1.00800 ; qtot -0.054
  5704   hL   145    MY   H2S 5704     0.053944      1.00800 ; qtot -0.000
  5705   cC   146    PC   C11 5705     0.910403     12.01000 ; qtot 0.910
  5706   oC   146    PC   O12 5706    -0.671566     16.00000 ; qtot 0.239
  5707   oS   146    PC   O11 5707    -0.575489     16.00000 ; qtot -0.337
  5708   cA   146    PC    C1 5708     0.196939     12.01000 ; qtot -0.140
  5709   hE   146    PC    HR 5709     0.070469      1.00800 ; qtot -0.069
  5710   hE   146    PC    HS 5710     0.070469      1.00800 ; qtot 0.001
  5711   cA   146    PC    C2 5711     0.281242     12.01000 ; qtot 0.282
  5712   hE   146    PC    HX 5712     0.063253      1.00800 ; qtot 0.346
  5713   cA   146    PC    C3 5713     0.017459     12.01000 ; qtot 0.363
  5714   hE   146    PC    HA 5714     0.095591      1.00800 ; qtot 0.459
  5715   hE   146    PC    HB 5715     0.095591      1.00800 ; qtot 0.554
  5716   oT   146    PC   O31 5716    -0.509480     16.00000 ; qtot 0.045
  5717   pA   146    PC   P31 5717     1.339721     30.97000 ; qtot 1.385
  5718   oT   146    PC   O32 5718    -0.508176     16.00000 ; qtot 0.876
  5719   cA   146    PC   C31 5719     0.166801     12.01000 ; qtot 1.043
  5720   hE   146    PC   H1A 5720     0.078534      1.00800 ; qtot 1.122
  5721   hE   146    PC   H1B 5721     0.078534      1.00800 ; qtot 1.200
  5722   cA   146    PC   C32 5722    -0.170824     12.01000 ; qtot 1.029
  5723   hX   146    PC   H2A 5723     0.136415      1.00800 ; qtot 1.166
  5724   hX   146    PC   H2B 5724     0.136415      1.00800 ; qtot 1.302
  5725   nA   146    PC   N31 5725     0.245262     14.01000 ; qtot 1.548
  5726   cA   146    PC   C33 5726    -0.338973     12.01000 ; qtot 1.209
  5727   hX   146    PC   H3A 5727     0.172230      1.00800 ; qtot 1.381
  5728   hX   146    PC   H3B 5728     0.172230      1.00800 ; qtot 1.553
  5729   hX   146    PC   H3C 5729     0.172230      1.00800 ; qtot 1.725
  5730   cA   146    PC   C34 5730    -0.338973     12.01000 ; qtot 1.386
  5731   hX   146    PC   H4A 5731     0.172230      1.00800 ; qtot 1.559
  5732   hX   146    PC   H4B 5732     0.172230      1.00800 ; qtot 1.731
  5733   hX   146    PC   H4C 5733     0.172230      1.00800 ; qtot 1.903
  5734   cA   146    PC   C35 5734    -0.338973     12.01000 ; qtot 1.564
  5735   hX   146    PC   H5A 5735     0.172230      1.00800 ; qtot 1.736
  5736   hX   146    PC   H5B 5736     0.172230      1.00800 ; qtot 1.908
  5737   hX   146    PC   H5C 5737     0.172230      1.00800 ; qtot 2.081
  5738   oP   146    PC   O33 5738    -0.875812     16.00000 ; qtot 1.205
  5739   oP   146    PC   O34 5739    -0.875812     16.00000 ; qtot 0.329
  5740   oS   146    PC   O21 5740    -0.552948     16.00000 ; qtot -0.224
  5741   cC   146    PC   C21 5741     0.897613     12.01000 ; qtot 0.674
  5742   oC   146    PC   O22 5742    -0.673755     16.00000 ; qtot 0.000
  5743   hL   147    MY  H14T 5743     0.025511      1.00800 ; qtot 0.026
  5744   cD   147    MY  C114 5744    -0.111712     12.01000 ; qtot -0.086
  5745   hL   147    MY  H14R 5745     0.025511      1.00800 ; qtot -0.061
  5746   hL   147    MY  H14S 5746     0.025511      1.00800 ; qtot -0.035
  5747   cD   147    MY  C113 5747     0.017463     12.01000 ; qtot -0.018
  5748   hL   147    MY  H13R 5748     0.007531      1.00800 ; qtot -0.010
  5749   hL   147    MY  H13S 5749     0.007531      1.00800 ; qtot -0.003
  5750   cD   147    MY  C112 5750    -0.028094     12.01000 ; qtot -0.031
  5751   hL   147    MY  H12R 5751     0.017208      1.00800 ; qtot -0.014
  5752   hL   147    MY  H12S 5752     0.017208      1.00800 ; qtot 0.004
  5753   cD   147    MY  C111 5753    -0.031787     12.01000 ; qtot -0.028
  5754   hL   147    MY  H11R 5754     0.012677      1.00800 ; qtot -0.015
  5755   hL   147    MY  H11S 5755     0.012677      1.00800 ; qtot -0.003
  5756   cD   147    MY  C110 5756    -0.021025     12.01000 ; qtot -0.024
  5757   hL   147    MY  H10R 5757     0.010037      1.00800 ; qtot -0.014
  5758   hL   147    MY  H10S 5758     0.010037      1.00800 ; qtot -0.004
  5759   cD   147    MY   C19 5759    -0.014653     12.01000 ; qtot -0.018
  5760   hL   147    MY   H9R 5760     0.010172      1.00800 ; qtot -0.008
  5761   hL   147    MY   H9S 5761     0.010172      1.00800 ; qtot 0.002
  5762   cD   147    MY   C18 5762    -0.026451     12.01000 ; qtot -0.024
  5763   hL   147    MY   H8R 5763     0.011241      1.00800 ; qtot -0.013
  5764   hL   147    MY   H8S 5764     0.011241      1.00800 ; qtot -0.002
  5765   cD   147    MY   C17 5765    -0.004386     12.01000 ; qtot -0.006
  5766   hL   147    MY   H7R 5766     0.006833      1.00800 ; qtot 0.000
  5767   hL   147    MY   H7S 5767     0.006833      1.00800 ; qtot 0.007
  5768   cD   147    MY   C16 5768    -0.027812     12.01000 ; qtot -0.021
  5769   hL   147    MY   H6R 5769     0.011511      1.00800 ; qtot -0.009
  5770   hL   147    MY   H6S 5770     0.011511      1.00800 ; qtot 0.002
  5771   cD   147    MY   C15 5771    -0.016521     12.01000 ; qtot -0.014
  5772   hL   147    MY   H5R 5772     0.010573      1.00800 ; qtot -0.003
  5773   hL   147    MY   H5S 5773     0.010573      1.00800 ; qtot 0.007
  5774   cD   147    MY   C14 5774    -0.026954     12.01000 ; qtot -0.020
  5775   hL   147    MY   H4R 5775     0.020431      1.00800 ; qtot 0.001
  5776   hL   147    MY   H4S 5776     0.020431      1.00800 ; qtot 0.021
  5777   cD   147    MY   C13 5777    -0.002435     12.01000 ; qtot 0.019
  5778   hL   147    MY   H3R 5778     0.018859      1.00800 ; qtot 0.037
  5779   hL   147    MY   H3S 5779     0.018859      1.00800 ; qtot 0.056
  5780   cD   147    MY   C12 5780    -0.164200     12.01000 ; qtot -0.108
  5781   hL   147    MY   H2R 5781     0.053944      1.00800 ; qtot -0.054
  5782   hL   147    MY   H2S 5782     0.053944      1.00800 ; qtot -0.000
  5783   hL   148    MY  H14T 5783     0.025511      1.00800 ; qtot 0.026
  5784   cD   148    MY  C114 5784    -0.111712     12.01000 ; qtot -0.086
  5785   hL   148    MY  H14R 5785     0.025511      1.00800 ; qtot -0.061
  5786   hL   148    MY  H14S 5786     0.025511      1.00800 ; qtot -0.035
  5787   cD   148    MY  C113 5787     0.017463     12.01000 ; qtot -0.018
  5788   hL   148    MY  H13R 5788     0.007531      1.00800 ; qtot -0.010
  5789   hL   148    MY  H13S 5789     0.007531      1.00800 ; qtot -0.003
  5790   cD   148    MY  C112 5790    -0.028094     12.01000 ; qtot -0.031
  5791   hL   148    MY  H12R 5791     0.017208      1.00800 ; qtot -0.014
  5792   hL   148    MY  H12S 5792     0.017208      1.00800 ; qtot 0.004
  5793   cD   148    MY  C111 5793    -0.031787     12.01000 ; qtot -0.028
  5794   hL   148    MY  H11R 5794     0.012677      1.00800 ; qtot -0.015
  5795   hL   148    MY  H11S 5795     0.012677      1.00800 ; qtot -0.003
  5796   cD   148    MY  C110 5796    -0.021025     12.01000 ; qtot -0.024
  5797   hL   148    MY  H10R 5797     0.010037      1.00800 ; qtot -0.014
  5798   hL   148    MY  H10S 5798     0.010037      1.00800 ; qtot -0.004
  5799   cD   148    MY   C19 5799    -0.014653     12.01000 ; qtot -0.018
  5800   hL   148    MY   H9R 5800     0.010172      1.00800 ; qtot -0.008
  5801   hL   148    MY   H9S 5801     0.010172      1.00800 ; qtot 0.002
  5802   cD   148    MY   C18 5802    -0.026451     12.01000 ; qtot -0.024
  5803   hL   148    MY   H8R 5803     0.011241      1.00800 ; qtot -0.013
  5804   hL   148    MY   H8S 5804     0.011241      1.00800 ; qtot -0.002
  5805   cD   148    MY   C17 5805    -0.004386     12.01000 ; qtot -0.006
  5806   hL   148    MY   H7R 5806     0.006833      1.00800 ; qtot 0.000
  5807   hL   148    MY   H7S 5807     0.006833      1.00800 ; qtot 0.007
  5808   cD   148    MY   C16 5808    -0.027812     12.01000 ; qtot -0.021
  5809   hL   148    MY   H6R 5809     0.011511      1.00800 ; qtot -0.009
  5810   hL   148    MY   H6S 5810     0.011511      1.00800 ; qtot 0.002
  5811   cD   148    MY   C15 5811    -0.016521     12.01000 ; qtot -0.014
  5812   hL   148    MY   H5R 5812     0.010573      1.00800 ; qtot -0.003
  5813   hL   148    MY   H5S 5813     0.010573      1.00800 ; qtot 0.007
  5814   cD   148    MY   C14 5814    -0.026954     12.01000 ; qtot -0.020
  5815   hL   148    MY   H4R 5815     0.020431      1.00800 ; qtot 0.001
  5816   hL   148    MY   H4S 5816     0.020431      1.00800 ; qtot 0.021
  5817   cD   148    MY   C13 5817    -0.002435     12.01000 ; qtot 0.019
  5818   hL   148    MY   H3R 5818     0.018859      1.00800 ; qtot 0.037
  5819   hL   148    MY   H3S 5819     0.018859      1.00800 ; qtot 0.056
  5820   cD   148    MY   C12 5820    -0.164200     12.01000 ; qtot -0.108
  5821   hL   148    MY   H2R 5821     0.053944      1.00800 ; qtot -0.054
  5822   hL   148    MY   H2S 5822     0.053944      1.00800 ; qtot -0.000
  5823   cC   149    PC   C11 5823     0.910403     12.01000 ; qtot 0.910
  5824   oC   149    PC   O12 5824    -0.671566     16.00000 ; qtot 0.239
  5825   oS   149    PC   O11 5825    -0.575489     16.00000 ; qtot -0.337
  5826   cA   149    PC    C1 5826     0.196939     12.01000 ; qtot -0.140
  5827   hE   149    PC    HR 5827     0.070469      1.00800 ; qtot -0.069
  5828   hE   149    PC    HS 5828     0.070469      1.00800 ; qtot 0.001
  5829   cA   149    PC    C2 5829     0.281242     12.01000 ; qtot 0.282
  5830   hE   149    PC    HX 5830     0.063253      1.00800 ; qtot 0.346
  5831   cA   149    PC    C3 5831     0.017459     12.01000 ; qtot 0.363
  5832   hE   149    PC    HA 5832     0.095591      1.00800 ; qtot 0.459
  5833   hE   149    PC    HB 5833     0.095591      1.00800 ; qtot 0.554
  5834   oT   149    PC   O31 5834    -0.509480     16.00000 ; qtot 0.045
  5835   pA   149    PC   P31 5835     1.339721     30.97000 ; qtot 1.385
  5836   oT   149    PC   O32 5836    -0.508176     16.00000 ; qtot 0.876
  5837   cA   149    PC   C31 5837     0.166801     12.01000 ; qtot 1.043
  5838   hE   149    PC   H1A 5838     0.078534      1.00800 ; qtot 1.122
  5839   hE   149    PC   H1B 5839     0.078534      1.00800 ; qtot 1.200
  5840   cA   149    PC   C32 5840    -0.170824     12.01000 ; qtot 1.029
  5841   hX   149    PC   H2A 5841     0.136415      1.00800 ; qtot 1.166
  5842   hX   149    PC   H2B 5842     0.136415      1.00800 ; qtot 1.302
  5843   nA   149    PC   N31 5843     0.245262     14.01000 ; qtot 1.548
  5844   cA   149    PC   C33 5844    -0.338973     12.01000 ; qtot 1.209
  5845   hX   149    PC   H3A 5845     0.172230      1.00800 ; qtot 1.381
  5846   hX   149    PC   H3B 5846     0.172230      1.00800 ; qtot 1.553
  5847   hX   149    PC   H3C 5847     0.172230      1.00800 ; qtot 1.725
  5848   cA   149    PC   C34 5848    -0.338973     12.01000 ; qtot 1.386
  5849   hX   149    PC   H4A 5849     0.172230      1.00800 ; qtot 1.559
  5850   hX   149    PC   H4B 5850     0.172230      1.00800 ; qtot 1.731
  5851   hX   149    PC   H4C 5851     0.172230      1.00800 ; qtot 1.903
  5852   cA   149    PC   C35 5852    -0.338973     12.01000 ; qtot 1.564
  5853   hX   149    PC   H5A 5853     0.172230      1.00800 ; qtot 1.736
  5854   hX   149    PC   H5B 5854     0.172230      1.00800 ; qtot 1.908
  5855   hX   149    PC   H5C 5855     0.172230      1.00800 ; qtot 2.081
  5856   oP   149    PC   O33 5856    -0.875812     16.00000 ; qtot 1.205
  5857   oP   149    PC   O34 5857    -0.875812     16.00000 ; qtot 0.329
  5858   oS   149    PC   O21 5858    -0.552948     16.00000 ; qtot -0.224
  5859   cC   149    PC   C21 5859     0.897613     12.01000 ; qtot 0.674
  5860   oC   149    PC   O22 5860    -0.673755     16.00000 ; qtot 0.000
  5861   hL   150    MY  H14T 5861     0.025511      1.00800 ; qtot 0.026
  5862   cD   150    MY  C114 5862    -0.111712     12.01000 ; qtot -0.086
  5863   hL   150    MY  H14R 5863     0.025511      1.00800 ; qtot -0.061
  5864   hL   150    MY  H14S 5864     0.025511      1.00800 ; qtot -0.035
  5865   cD   150    MY  C113 5865     0.017463     12.01000 ; qtot -0.018
  5866   hL   150    MY  H13R 5866     0.007531      1.00800 ; qtot -0.010
  5867   hL   150    MY  H13S 5867     0.007531      1.00800 ; qtot -0.003
  5868   cD   150    MY  C112 5868    -0.028094     12.01000 ; qtot -0.031
  5869   hL   150    MY  H12R 5869     0.017208      1.00800 ; qtot -0.014
  5870   hL   150    MY  H12S 5870     0.017208      1.00800 ; qtot 0.004
  5871   cD   150    MY  C111 5871    -0.031787     12.01000 ; qtot -0.028
  5872   hL   150    MY  H11R 5872     0.012677      1.00800 ; qtot -0.015
  5873   hL   150    MY  H11S 5873     0.012677      1.00800 ; qtot -0.003
  5874   cD   150    MY  C110 5874    -0.021025     12.01000 ; qtot -0.024
  5875   hL   150    MY  H10R 5875     0.010037      1.00800 ; qtot -0.014
  5876   hL   150    MY  H10S 5876     0.010037      1.00800 ; qtot -0.004
  5877   cD   150    MY   C19 5877    -0.014653     12.01000 ; qtot -0.018
  5878   hL   150    MY   H9R 5878     0.010172      1.00800 ; qtot -0.008
  5879   hL   150    MY   H9S 5879     0.010172      1.00800 ; qtot 0.002
  5880   cD   150    MY   C18 5880    -0.026451     12.01000 ; qtot -0.024
  5881   hL   150    MY   H8R 5881     0.011241      1.00800 ; qtot -0.013
  5882   hL   150    MY   H8S 5882     0.011241      1.00800 ; qtot -0.002
  5883   cD   150    MY   C17 5883    -0.004386     12.01000 ; qtot -0.006
  5884   hL   150    MY   H7R 5884     0.006833      1.00800 ; qtot 0.000
  5885   hL   150    MY   H7S 5885     0.006833      1.00800 ; qtot 0.007
  5886   cD   150    MY   C16 5886    -0.027812     12.01000 ; qtot -0.021
  5887   hL   150    MY   H6R 5887     0.011511      1.00800 ; qtot -0.009
  5888   hL   150    MY   H6S 5888     0.011511      1.00800 ; qtot 0.002
  5889   cD   150    MY   C15 5889    -0.016521     12.01000 ; qtot -0.014
  5890   hL   150    MY   H5R 5890     0.010573      1.00800 ; qtot -0.003
  5891   hL   150    MY   H5S 5891     0.010573      1.00800 ; qtot 0.007
  5892   cD   150    MY   C14 5892    -0.026954     12.01000 ; qtot -0.020
  5893   hL   150    MY   H4R 5893     0.020431      1.00800 ; qtot 0.001
  5894   hL   150    MY   H4S 5894     0.020431      1.00800 ; qtot 0.021
  5895   cD   150    MY   C13 5895    -0.002435     12.01000 ; qtot 0.019
  5896   hL   150    MY   H3R 5896     0.018859      1.00800 ; qtot 0.037
  5897   hL   150    MY   H3S 5897     0.018859      1.00800 ; qtot 0.056
  5898   cD   150    MY   C12 5898    -0.164200     12.01000 ; qtot -0.108
  5899   hL   150    MY   H2R 5899     0.053944      1.00800 ; qtot -0.054
  5900   hL   150    MY   H2S 5900     0.053944      1.00800 ; qtot -0.000
  5901   hL   151    MY  H14T 5901     0.025511      1.00800 ; qtot 0.026
  5902   cD   151    MY  C114 5902    -0.111712     12.01000 ; qtot -0.086
  5903   hL   151    MY  H14R 5903     0.025511      1.00800 ; qtot -0.061
  5904   hL   151    MY  H14S 5904     0.025511      1.00800 ; qtot -0.035
  5905   cD   151    MY  C113 5905     0.017463     12.01000 ; qtot -0.018
  5906   hL   151    MY  H13R 5906     0.007531      1.00800 ; qtot -0.010
  5907   hL   151    MY  H13S 5907     0.007531      1.00800 ; qtot -0.003
  5908   cD   151    MY  C112 5908    -0.028094     12.01000 ; qtot -0.031
  5909   hL   151    MY  H12R 5909     0.017208      1.00800 ; qtot -0.014
  5910   hL   151    MY  H12S 5910     0.017208      1.00800 ; qtot 0.004
  5911   cD   151    MY  C111 5911    -0.031787     12.01000 ; qtot -0.028
  5912   hL   151    MY  H11R 5912     0.012677      1.00800 ; qtot -0.015
  5913   hL   151    MY  H11S 5913     0.012677      1.00800 ; qtot -0.003
  5914   cD   151    MY  C110 5914    -0.021025     12.01000 ; qtot -0.024
  5915   hL   151    MY  H10R 5915     0.010037      1.00800 ; qtot -0.014
  5916   hL   151    MY  H10S 5916     0.010037      1.00800 ; qtot -0.004
  5917   cD   151    MY   C19 5917    -0.014653     12.01000 ; qtot -0.018
  5918   hL   151    MY   H9R 5918     0.010172      1.00800 ; qtot -0.008
  5919   hL   151    MY   H9S 5919     0.010172      1.00800 ; qtot 0.002
  5920   cD   151    MY   C18 5920    -0.026451     12.01000 ; qtot -0.024
  5921   hL   151    MY   H8R 5921     0.011241      1.00800 ; qtot -0.013
  5922   hL   151    MY   H8S 5922     0.011241      1.00800 ; qtot -0.002
  5923   cD   151    MY   C17 5923    -0.004386     12.01000 ; qtot -0.006
  5924   hL   151    MY   H7R 5924     0.006833      1.00800 ; qtot 0.000
  5925   hL   151    MY   H7S 5925     0.006833      1.00800 ; qtot 0.007
  5926   cD   151    MY   C16 5926    -0.027812     12.01000 ; qtot -0.021
  5927   hL   151    MY   H6R 5927     0.011511      1.00800 ; qtot -0.009
  5928   hL   151    MY   H6S 5928     0.011511      1.00800 ; qtot 0.002
  5929   cD   151    MY   C15 5929    -0.016521     12.01000 ; qtot -0.014
  5930   hL   151    MY   H5R 5930     0.010573      1.00800 ; qtot -0.003
  5931   hL   151    MY   H5S 5931     0.010573      1.00800 ; qtot 0.007
  5932   cD   151    MY   C14 5932    -0.026954     12.01000 ; qtot -0.020
  5933   hL   151    MY   H4R 5933     0.020431      1.00800 ; qtot 0.001
  5934   hL   151    MY   H4S 5934     0.020431      1.00800 ; qtot 0.021
  5935   cD   151    MY   C13 5935    -0.002435     12.01000 ; qtot 0.019
  5936   hL   151    MY   H3R 5936     0.018859      1.00800 ; qtot 0.037
  5937   hL   151    MY   H3S 5937     0.018859      1.00800 ; qtot 0.056
  5938   cD   151    MY   C12 5938    -0.164200     12.01000 ; qtot -0.108
  5939   hL   151    MY   H2R 5939     0.053944      1.00800 ; qtot -0.054
  5940   hL   151    MY   H2S 5940     0.053944      1.00800 ; qtot -0.000
  5941   cC   152    PC   C11 5941     0.910403     12.01000 ; qtot 0.910
  5942   oC   152    PC   O12 5942    -0.671566     16.00000 ; qtot 0.239
  5943   oS   152    PC   O11 5943    -0.575489     16.00000 ; qtot -0.337
  5944   cA   152    PC    C1 5944     0.196939     12.01000 ; qtot -0.140
  5945   hE   152    PC    HR 5945     0.070469      1.00800 ; qtot -0.069
  5946   hE   152    PC    HS 5946     0.070469      1.00800 ; qtot 0.001
  5947   cA   152    PC    C2 5947     0.281242     12.01000 ; qtot 0.282
  5948   hE   152    PC    HX 5948     0.063253      1.00800 ; qtot 0.346
  5949   cA   152    PC    C3 5949     0.017459     12.01000 ; qtot 0.363
  5950   hE   152    PC    HA 5950     0.095591      1.00800 ; qtot 0.459
  5951   hE   152    PC    HB 5951     0.095591      1.00800 ; qtot 0.554
  5952   oT   152    PC   O31 5952    -0.509480     16.00000 ; qtot 0.045
  5953   pA   152    PC   P31 5953     1.339721     30.97000 ; qtot 1.385
  5954   oT   152    PC   O32 5954    -0.508176     16.00000 ; qtot 0.876
  5955   cA   152    PC   C31 5955     0.166801     12.01000 ; qtot 1.043
  5956   hE   152    PC   H1A 5956     0.078534      1.00800 ; qtot 1.122
  5957   hE   152    PC   H1B 5957     0.078534      1.00800 ; qtot 1.200
  5958   cA   152    PC   C32 5958    -0.170824     12.01000 ; qtot 1.029
  5959   hX   152    PC   H2A 5959     0.136415      1.00800 ; qtot 1.166
  5960   hX   152    PC   H2B 5960     0.136415      1.00800 ; qtot 1.302
  5961   nA   152    PC   N31 5961     0.245262     14.01000 ; qtot 1.548
  5962   cA   152    PC   C33 5962    -0.338973     12.01000 ; qtot 1.209
  5963   hX   152    PC   H3A 5963     0.172230      1.00800 ; qtot 1.381
  5964   hX   152    PC   H3B 5964     0.172230      1.00800 ; qtot 1.553
  5965   hX   152    PC   H3C 5965     0.172230      1.00800 ; qtot 1.725
  5966   cA   152    PC   C34 5966    -0.338973     12.01000 ; qtot 1.386
  5967   hX   152    PC   H4A 5967     0.172230      1.00800 ; qtot 1.559
  5968   hX   152    PC   H4B 5968     0.172230      1.00800 ; qtot 1.731
  5969   hX   152    PC   H4C 5969     0.172230      1.00800 ; qtot 1.903
  5970   cA   152    PC   C35 5970    -0.338973     12.01000 ; qtot 1.564
  5971   hX   152    PC   H5A 5971     0.172230      1.00800 ; qtot 1.736
  5972   hX   152    PC   H5B 5972     0.172230      1.00800 ; qtot 1.908
  5973   hX   152    PC   H5C 5973     0.172230      1.00800 ; qtot 2.081
  5974   oP   152    PC   O33 5974    -0.875812     16.00000 ; qtot 1.205
  5975   oP   152    PC   O34 5975    -0.875812     16.00000 ; qtot 0.329
  5976   oS   152    PC   O21 5976    -0.552948     16.00000 ; qtot -0.224
  5977   cC   152    PC   C21 5977     0.897613     12.01000 ; qtot 0.674
  5978   oC   152    PC   O22 5978    -0.673755     16.00000 ; qtot 0.000
  5979   hL   153    MY  H14T 5979     0.025511      1.00800 ; qtot 0.026
  5980   cD   153    MY  C114 5980    -0.111712     12.01000 ; qtot -0.086
  5981   hL   153    MY  H14R 5981     0.025511      1.00800 ; qtot -0.061
  5982   hL   153    MY  H14S 5982     0.025511      1.00800 ; qtot -0.035
  5983   cD   153    MY  C113 5983     0.017463     12.01000 ; qtot -0.018
  5984   hL   153    MY  H13R 5984     0.007531      1.00800 ; qtot -0.010
  5985   hL   153    MY  H13S 5985     0.007531      1.00800 ; qtot -0.003
  5986   cD   153    MY  C112 5986    -0.028094     12.01000 ; qtot -0.031
  5987   hL   153    MY  H12R 5987     0.017208      1.00800 ; qtot -0.014
  5988   hL   153    MY  H12S 5988     0.017208      1.00800 ; qtot 0.004
  5989   cD   153    MY  C111 5989    -0.031787     12.01000 ; qtot -0.028
  5990   hL   153    MY  H11R 5990     0.012677      1.00800 ; qtot -0.015
  5991   hL   153    MY  H11S 5991     0.012677      1.00800 ; qtot -0.003
  5992   cD   153    MY  C110 5992    -0.021025     12.01000 ; qtot -0.024
  5993   hL   153    MY  H10R 5993     0.010037      1.00800 ; qtot -0.014
  5994   hL   153    MY  H10S 5994     0.010037      1.00800 ; qtot -0.004
  5995   cD   153    MY   C19 5995    -0.014653     12.01000 ; qtot -0.018
  5996   hL   153    MY   H9R 5996     0.010172      1.00800 ; qtot -0.008
  5997   hL   153    MY   H9S 5997     0.010172      1.00800 ; qtot 0.002
  5998   cD   153    MY   C18 5998    -0.026451     12.01000 ; qtot -0.024
  5999   hL   153    MY   H8R 5999     0.011241      1.00800 ; qtot -0.013
  6000   hL   153    MY   H8S 6000     0.011241      1.00800 ; qtot -0.002
  6001   cD   153    MY   C17 6001    -0.004386     12.01000 ; qtot -0.006
  6002   hL   153    MY   H7R 6002     0.006833      1.00800 ; qtot 0.000
  6003   hL   153    MY   H7S 6003     0.006833      1.00800 ; qtot 0.007
  6004   cD   153    MY   C16 6004    -0.027812     12.01000 ; qtot -0.021
  6005   hL   153    MY   H6R 6005     0.011511      1.00800 ; qtot -0.009
  6006   hL   153    MY   H6S 6006     0.011511      1.00800 ; qtot 0.002
  6007   cD   153    MY   C15 6007    -0.016521     12.01000 ; qtot -0.014
  6008   hL   153    MY   H5R 6008     0.010573      1.00800 ; qtot -0.003
  6009   hL   153    MY   H5S 6009     0.010573      1.00800 ; qtot 0.007
  6010   cD   153    MY   C14 6010    -0.026954     12.01000 ; qtot -0.020
  6011   hL   153    MY   H4R 6011     0.020431      1.00800 ; qtot 0.001
  6012   hL   153    MY   H4S 6012     0.020431      1.00800 ; qtot 0.021
  6013   cD   153    MY   C13 6013    -0.002435     12.01000 ; qtot 0.019
  6014   hL   153    MY   H3R 6014     0.018859      1.00800 ; qtot 0.037
  6015   hL   153    MY   H3S 6015     0.018859      1.00800 ; qtot 0.056
  6016   cD   153    MY   C12 6016    -0.164200     12.01000 ; qtot -0.108
  6017   hL   153    MY   H2R 6017     0.053944      1.00800 ; qtot -0.054
  6018   hL   153    MY   H2S 6018     0.053944      1.00800 ; qtot -0.000
  6019   hL   154    MY  H14T 6019     0.025511      1.00800 ; qtot 0.026
  6020   cD   154    MY  C114 6020    -0.111712     12.01000 ; qtot -0.086
  6021   hL   154    MY  H14R 6021     0.025511      1.00800 ; qtot -0.061
  6022   hL   154    MY  H14S 6022     0.025511      1.00800 ; qtot -0.035
  6023   cD   154    MY  C113 6023     0.017463     12.01000 ; qtot -0.018
  6024   hL   154    MY  H13R 6024     0.007531      1.00800 ; qtot -0.010
  6025   hL   154    MY  H13S 6025     0.007531      1.00800 ; qtot -0.003
  6026   cD   154    MY  C112 6026    -0.028094     12.01000 ; qtot -0.031
  6027   hL   154    MY  H12R 6027     0.017208      1.00800 ; qtot -0.014
  6028   hL   154    MY  H12S 6028     0.017208      1.00800 ; qtot 0.004
  6029   cD   154    MY  C111 6029    -0.031787     12.01000 ; qtot -0.028
  6030   hL   154    MY  H11R 6030     0.012677      1.00800 ; qtot -0.015
  6031   hL   154    MY  H11S 6031     0.012677      1.00800 ; qtot -0.003
  6032   cD   154    MY  C110 6032    -0.021025     12.01000 ; qtot -0.024
  6033   hL   154    MY  H10R 6033     0.010037      1.00800 ; qtot -0.014
  6034   hL   154    MY  H10S 6034     0.010037      1.00800 ; qtot -0.004
  6035   cD   154    MY   C19 6035    -0.014653     12.01000 ; qtot -0.018
  6036   hL   154    MY   H9R 6036     0.010172      1.00800 ; qtot -0.008
  6037   hL   154    MY   H9S 6037     0.010172      1.00800 ; qtot 0.002
  6038   cD   154    MY   C18 6038    -0.026451     12.01000 ; qtot -0.024
  6039   hL   154    MY   H8R 6039     0.011241      1.00800 ; qtot -0.013
  6040   hL   154    MY   H8S 6040     0.011241      1.00800 ; qtot -0.002
  6041   cD   154    MY   C17 6041    -0.004386     12.01000 ; qtot -0.006
  6042   hL   154    MY   H7R 6042     0.006833      1.00800 ; qtot 0.000
  6043   hL   154    MY   H7S 6043     0.006833      1.00800 ; qtot 0.007
  6044   cD   154    MY   C16 6044    -0.027812     12.01000 ; qtot -0.021
  6045   hL   154    MY   H6R 6045     0.011511      1.00800 ; qtot -0.009
  6046   hL   154    MY   H6S 6046     0.011511      1.00800 ; qtot 0.002
  6047   cD   154    MY   C15 6047    -0.016521     12.01000 ; qtot -0.014
  6048   hL   154    MY   H5R 6048     0.010573      1.00800 ; qtot -0.003
  6049   hL   154    MY   H5S 6049     0.010573      1.00800 ; qtot 0.007
  6050   cD   154    MY   C14 6050    -0.026954     12.01000 ; qtot -0.020
  6051   hL   154    MY   H4R 6051     0.020431      1.00800 ; qtot 0.001
  6052   hL   154    MY   H4S 6052     0.020431      1.00800 ; qtot 0.021
  6053   cD   154    MY   C13 6053    -0.002435     12.01000 ; qtot 0.019
  6054   hL   154    MY   H3R 6054     0.018859      1.00800 ; qtot 0.037
  6055   hL   154    MY   H3S 6055     0.018859      1.00800 ; qtot 0.056
  6056   cD   154    MY   C12 6056    -0.164200     12.01000 ; qtot -0.108
  6057   hL   154    MY   H2R 6057     0.053944      1.00800 ; qtot -0.054
  6058   hL   154    MY   H2S 6058     0.053944      1.00800 ; qtot -0.000
  6059   cC   155    PC   C11 6059     0.910403     12.01000 ; qtot 0.910
  6060   oC   155    PC   O12 6060    -0.671566     16.00000 ; qtot 0.239
  6061   oS   155    PC   O11 6061    -0.575489     16.00000 ; qtot -0.337
  6062   cA   155    PC    C1 6062     0.196939     12.01000 ; qtot -0.140
  6063   hE   155    PC    HR 6063     0.070469      1.00800 ; qtot -0.069
  6064   hE   155    PC    HS 6064     0.070469      1.00800 ; qtot 0.001
  6065   cA   155    PC    C2 6065     0.281242     12.01000 ; qtot 0.282
  6066   hE   155    PC    HX 6066     0.063253      1.00800 ; qtot 0.346
  6067   cA   155    PC    C3 6067     0.017459     12.01000 ; qtot 0.363
  6068   hE   155    PC    HA 6068     0.095591      1.00800 ; qtot 0.459
  6069   hE   155    PC    HB 6069     0.095591      1.00800 ; qtot 0.554
  6070   oT   155    PC   O31 6070    -0.509480     16.00000 ; qtot 0.045
  6071   pA   155    PC   P31 6071     1.339721     30.97000 ; qtot 1.385
  6072   oT   155    PC   O32 6072    -0.508176     16.00000 ; qtot 0.876
  6073   cA   155    PC   C31 6073     0.166801     12.01000 ; qtot 1.043
  6074   hE   155    PC   H1A 6074     0.078534      1.00800 ; qtot 1.122
  6075   hE   155    PC   H1B 6075     0.078534      1.00800 ; qtot 1.200
  6076   cA   155    PC   C32 6076    -0.170824     12.01000 ; qtot 1.029
  6077   hX   155    PC   H2A 6077     0.136415      1.00800 ; qtot 1.166
  6078   hX   155    PC   H2B 6078     0.136415      1.00800 ; qtot 1.302
  6079   nA   155    PC   N31 6079     0.245262     14.01000 ; qtot 1.548
  6080   cA   155    PC   C33 6080    -0.338973     12.01000 ; qtot 1.209
  6081   hX   155    PC   H3A 6081     0.172230      1.00800 ; qtot 1.381
  6082   hX   155    PC   H3B 6082     0.172230      1.00800 ; qtot 1.553
  6083   hX   155    PC   H3C 6083     0.172230      1.00800 ; qtot 1.725
  6084   cA   155    PC   C34 6084    -0.338973     12.01000 ; qtot 1.386
  6085   hX   155    PC   H4A 6085     0.172230      1.00800 ; qtot 1.559
  6086   hX   155    PC   H4B 6086     0.172230      1.00800 ; qtot 1.731
  6087   hX   155    PC   H4C 6087     0.172230      1.00800 ; qtot 1.903
  6088   cA   155    PC   C35 6088    -0.338973     12.01000 ; qtot 1.564
  6089   hX   155    PC   H5A 6089     0.172230      1.00800 ; qtot 1.736
  6090   hX   155    PC   H5B 6090     0.172230      1.00800 ; qtot 1.908
  6091   hX   155    PC   H5C 6091     0.172230      1.00800 ; qtot 2.081
  6092   oP   155    PC   O33 6092    -0.875812     16.00000 ; qtot 1.205
  6093   oP   155    PC   O34 6093    -0.875812     16.00000 ; qtot 0.329
  6094   oS   155    PC   O21 6094    -0.552948     16.00000 ; qtot -0.224
  6095   cC   155    PC   C21 6095     0.897613     12.01000 ; qtot 0.674
  6096   oC   155    PC   O22 6096    -0.673755     16.00000 ; qtot 0.000
  6097   hL   156    MY  H14T 6097     0.025511      1.00800 ; qtot 0.026
  6098   cD   156    MY  C114 6098    -0.111712     12.01000 ; qtot -0.086
  6099   hL   156    MY  H14R 6099     0.025511      1.00800 ; qtot -0.061
  6100   hL   156    MY  H14S 6100     0.025511      1.00800 ; qtot -0.035
  6101   cD   156    MY  C113 6101     0.017463     12.01000 ; qtot -0.018
  6102   hL   156    MY  H13R 6102     0.007531      1.00800 ; qtot -0.010
  6103   hL   156    MY  H13S 6103     0.007531      1.00800 ; qtot -0.003
  6104   cD   156    MY  C112 6104    -0.028094     12.01000 ; qtot -0.031
  6105   hL   156    MY  H12R 6105     0.017208      1.00800 ; qtot -0.014
  6106   hL   156    MY  H12S 6106     0.017208      1.00800 ; qtot 0.004
  6107   cD   156    MY  C111 6107    -0.031787     12.01000 ; qtot -0.028
  6108   hL   156    MY  H11R 6108     0.012677      1.00800 ; qtot -0.015
  6109   hL   156    MY  H11S 6109     0.012677      1.00800 ; qtot -0.003
  6110   cD   156    MY  C110 6110    -0.021025     12.01000 ; qtot -0.024
  6111   hL   156    MY  H10R 6111     0.010037      1.00800 ; qtot -0.014
  6112   hL   156    MY  H10S 6112     0.010037      1.00800 ; qtot -0.004
  6113   cD   156    MY   C19 6113    -0.014653     12.01000 ; qtot -0.018
  6114   hL   156    MY   H9R 6114     0.010172      1.00800 ; qtot -0.008
  6115   hL   156    MY   H9S 6115     0.010172      1.00800 ; qtot 0.002
  6116   cD   156    MY   C18 6116    -0.026451     12.01000 ; qtot -0.024
  6117   hL   156    MY   H8R 6117     0.011241      1.00800 ; qtot -0.013
  6118   hL   156    MY   H8S 6118     0.011241      1.00800 ; qtot -0.002
  6119   cD   156    MY   C17 6119    -0.004386     12.01000 ; qtot -0.006
  6120   hL   156    MY   H7R 6120     0.006833      1.00800 ; qtot 0.000
  6121   hL   156    MY   H7S 6121     0.006833      1.00800 ; qtot 0.007
  6122   cD   156    MY   C16 6122    -0.027812     12.01000 ; qtot -0.021
  6123   hL   156    MY   H6R 6123     0.011511      1.00800 ; qtot -0.009
  6124   hL   156    MY   H6S 6124     0.011511      1.00800 ; qtot 0.002
  6125   cD   156    MY   C15 6125    -0.016521     12.01000 ; qtot -0.014
  6126   hL   156    MY   H5R 6126     0.010573      1.00800 ; qtot -0.003
  6127   hL   156    MY   H5S 6127     0.010573      1.00800 ; qtot 0.007
  6128   cD   156    MY   C14 6128    -0.026954     12.01000 ; qtot -0.020
  6129   hL   156    MY   H4R 6129     0.020431      1.00800 ; qtot 0.001
  6130   hL   156    MY   H4S 6130     0.020431      1.00800 ; qtot 0.021
  6131   cD   156    MY   C13 6131    -0.002435     12.01000 ; qtot 0.019
  6132   hL   156    MY   H3R 6132     0.018859      1.00800 ; qtot 0.037
  6133   hL   156    MY   H3S 6133     0.018859      1.00800 ; qtot 0.056
  6134   cD   156    MY   C12 6134    -0.164200     12.01000 ; qtot -0.108
  6135   hL   156    MY   H2R 6135     0.053944      1.00800 ; qtot -0.054
  6136   hL   156    MY   H2S 6136     0.053944      1.00800 ; qtot -0.000
  6137   hL   157    MY  H14T 6137     0.025511      1.00800 ; qtot 0.026
  6138   cD   157    MY  C114 6138    -0.111712     12.01000 ; qtot -0.086
  6139   hL   157    MY  H14R 6139     0.025511      1.00800 ; qtot -0.061
  6140   hL   157    MY  H14S 6140     0.025511      1.00800 ; qtot -0.035
  6141   cD   157    MY  C113 6141     0.017463     12.01000 ; qtot -0.018
  6142   hL   157    MY  H13R 6142     0.007531      1.00800 ; qtot -0.010
  6143   hL   157    MY  H13S 6143     0.007531      1.00800 ; qtot -0.003
  6144   cD   157    MY  C112 6144    -0.028094     12.01000 ; qtot -0.031
  6145   hL   157    MY  H12R 6145     0.017208      1.00800 ; qtot -0.014
  6146   hL   157    MY  H12S 6146     0.017208      1.00800 ; qtot 0.004
  6147   cD   157    MY  C111 6147    -0.031787     12.01000 ; qtot -0.028
  6148   hL   157    MY  H11R 6148     0.012677      1.00800 ; qtot -0.015
  6149   hL   157    MY  H11S 6149     0.012677      1.00800 ; qtot -0.003
  6150   cD   157    MY  C110 6150    -0.021025     12.01000 ; qtot -0.024
  6151   hL   157    MY  H10R 6151     0.010037      1.00800 ; qtot -0.014
  6152   hL   157    MY  H10S 6152     0.010037      1.00800 ; qtot -0.004
  6153   cD   157    MY   C19 6153    -0.014653     12.01000 ; qtot -0.018
  6154   hL   157    MY   H9R 6154     0.010172      1.00800 ; qtot -0.008
  6155   hL   157    MY   H9S 6155     0.010172      1.00800 ; qtot 0.002
  6156   cD   157    MY   C18 6156    -0.026451     12.01000 ; qtot -0.024
  6157   hL   157    MY   H8R 6157     0.011241      1.00800 ; qtot -0.013
  6158   hL   157    MY   H8S 6158     0.011241      1.00800 ; qtot -0.002
  6159   cD   157    MY   C17 6159    -0.004386     12.01000 ; qtot -0.006
  6160   hL   157    MY   H7R 6160     0.006833      1.00800 ; qtot 0.000
  6161   hL   157    MY   H7S 6161     0.006833      1.00800 ; qtot 0.007
  6162   cD   157    MY   C16 6162    -0.027812     12.01000 ; qtot -0.021
  6163   hL   157    MY   H6R 6163     0.011511      1.00800 ; qtot -0.009
  6164   hL   157    MY   H6S 6164     0.011511      1.00800 ; qtot 0.002
  6165   cD   157    MY   C15 6165    -0.016521     12.01000 ; qtot -0.014
  6166   hL   157    MY   H5R 6166     0.010573      1.00800 ; qtot -0.003
  6167   hL   157    MY   H5S 6167     0.010573      1.00800 ; qtot 0.007
  6168   cD   157    MY   C14 6168    -0.026954     12.01000 ; qtot -0.020
  6169   hL   157    MY   H4R 6169     0.020431      1.00800 ; qtot 0.001
  6170   hL   157    MY   H4S 6170     0.020431      1.00800 ; qtot 0.021
  6171   cD   157    MY   C13 6171    -0.002435     12.01000 ; qtot 0.019
  6172   hL   157    MY   H3R 6172     0.018859      1.00800 ; qtot 0.037
  6173   hL   157    MY   H3S 6173     0.018859      1.00800 ; qtot 0.056
  6174   cD   157    MY   C12 6174    -0.164200     12.01000 ; qtot -0.108
  6175   hL   157    MY   H2R 6175     0.053944      1.00800 ; qtot -0.054
  6176   hL   157    MY   H2S 6176     0.053944      1.00800 ; qtot -0.000
  6177   cC   158    PC   C11 6177     0.910403     12.01000 ; qtot 0.910
  6178   oC   158    PC   O12 6178    -0.671566     16.00000 ; qtot 0.239
  6179   oS   158    PC   O11 6179    -0.575489     16.00000 ; qtot -0.337
  6180   cA   158    PC    C1 6180     0.196939     12.01000 ; qtot -0.140
  6181   hE   158    PC    HR 6181     0.070469      1.00800 ; qtot -0.069
  6182   hE   158    PC    HS 6182     0.070469      1.00800 ; qtot 0.001
  6183   cA   158    PC    C2 6183     0.281242     12.01000 ; qtot 0.282
  6184   hE   158    PC    HX 6184     0.063253      1.00800 ; qtot 0.346
  6185   cA   158    PC    C3 6185     0.017459     12.01000 ; qtot 0.363
  6186   hE   158    PC    HA 6186     0.095591      1.00800 ; qtot 0.459
  6187   hE   158    PC    HB 6187     0.095591      1.00800 ; qtot 0.554
  6188   oT   158    PC   O31 6188    -0.509480     16.00000 ; qtot 0.045
  6189   pA   158    PC   P31 6189     1.339721     30.97000 ; qtot 1.385
  6190   oT   158    PC   O32 6190    -0.508176     16.00000 ; qtot 0.876
  6191   cA   158    PC   C31 6191     0.166801     12.01000 ; qtot 1.043
  6192   hE   158    PC   H1A 6192     0.078534      1.00800 ; qtot 1.122
  6193   hE   158    PC   H1B 6193     0.078534      1.00800 ; qtot 1.200
  6194   cA   158    PC   C32 6194    -0.170824     12.01000 ; qtot 1.029
  6195   hX   158    PC   H2A 6195     0.136415      1.00800 ; qtot 1.166
  6196   hX   158    PC   H2B 6196     0.136415      1.00800 ; qtot 1.302
  6197   nA   158    PC   N31 6197     0.245262     14.01000 ; qtot 1.548
  6198   cA   158    PC   C33 6198    -0.338973     12.01000 ; qtot 1.209
  6199   hX   158    PC   H3A 6199     0.172230      1.00800 ; qtot 1.381
  6200   hX   158    PC   H3B 6200     0.172230      1.00800 ; qtot 1.553
  6201   hX   158    PC   H3C 6201     0.172230      1.00800 ; qtot 1.725
  6202   cA   158    PC   C34 6202    -0.338973     12.01000 ; qtot 1.386
  6203   hX   158    PC   H4A 6203     0.172230      1.00800 ; qtot 1.559
  6204   hX   158    PC   H4B 6204     0.172230      1.00800 ; qtot 1.731
  6205   hX   158    PC   H4C 6205     0.172230      1.00800 ; qtot 1.903
  6206   cA   158    PC   C35 6206    -0.338973     12.01000 ; qtot 1.564
  6207   hX   158    PC   H5A 6207     0.172230      1.00800 ; qtot 1.736
  6208   hX   158    PC   H5B 6208     0.172230      1.00800 ; qtot 1.908
  6209   hX   158    PC   H5C 6209     0.172230      1.00800 ; qtot 2.081
  6210   oP   158    PC   O33 6210    -0.875812     16.00000 ; qtot 1.205
  6211   oP   158    PC   O34 6211    -0.875812     16.00000 ; qtot 0.329
  6212   oS   158    PC   O21 6212    -0.552948     16.00000 ; qtot -0.224
  6213   cC   158    PC   C21 6213     0.897613     12.01000 ; qtot 0.674
  6214   oC   158    PC   O22 6214    -0.673755     16.00000 ; qtot 0.000
  6215   hL   159    MY  H14T 6215     0.025511      1.00800 ; qtot 0.026
  6216   cD   159    MY  C114 6216    -0.111712     12.01000 ; qtot -0.086
  6217   hL   159    MY  H14R 6217     0.025511      1.00800 ; qtot -0.061
  6218   hL   159    MY  H14S 6218     0.025511      1.00800 ; qtot -0.035
  6219   cD   159    MY  C113 6219     0.017463     12.01000 ; qtot -0.018
  6220   hL   159    MY  H13R 6220     0.007531      1.00800 ; qtot -0.010
  6221   hL   159    MY  H13S 6221     0.007531      1.00800 ; qtot -0.003
  6222   cD   159    MY  C112 6222    -0.028094     12.01000 ; qtot -0.031
  6223   hL   159    MY  H12R 6223     0.017208      1.00800 ; qtot -0.014
  6224   hL   159    MY  H12S 6224     0.017208      1.00800 ; qtot 0.004
  6225   cD   159    MY  C111 6225    -0.031787     12.01000 ; qtot -0.028
  6226   hL   159    MY  H11R 6226     0.012677      1.00800 ; qtot -0.015
  6227   hL   159    MY  H11S 6227     0.012677      1.00800 ; qtot -0.003
  6228   cD   159    MY  C110 6228    -0.021025     12.01000 ; qtot -0.024
  6229   hL   159    MY  H10R 6229     0.010037      1.00800 ; qtot -0.014
  6230   hL   159    MY  H10S 6230     0.010037      1.00800 ; qtot -0.004
  6231   cD   159    MY   C19 6231    -0.014653     12.01000 ; qtot -0.018
  6232   hL   159    MY   H9R 6232     0.010172      1.00800 ; qtot -0.008
  6233   hL   159    MY   H9S 6233     0.010172      1.00800 ; qtot 0.002
  6234   cD   159    MY   C18 6234    -0.026451     12.01000 ; qtot -0.024
  6235   hL   159    MY   H8R 6235     0.011241      1.00800 ; qtot -0.013
  6236   hL   159    MY   H8S 6236     0.011241      1.00800 ; qtot -0.002
  6237   cD   159    MY   C17 6237    -0.004386     12.01000 ; qtot -0.006
  6238   hL   159    MY   H7R 6238     0.006833      1.00800 ; qtot 0.000
  6239   hL   159    MY   H7S 6239     0.006833      1.00800 ; qtot 0.007
  6240   cD   159    MY   C16 6240    -0.027812     12.01000 ; qtot -0.021
  6241   hL   159    MY   H6R 6241     0.011511      1.00800 ; qtot -0.009
  6242   hL   159    MY   H6S 6242     0.011511      1.00800 ; qtot 0.002
  6243   cD   159    MY   C15 6243    -0.016521     12.01000 ; qtot -0.014
  6244   hL   159    MY   H5R 6244     0.010573      1.00800 ; qtot -0.003
  6245   hL   159    MY   H5S 6245     0.010573      1.00800 ; qtot 0.007
  6246   cD   159    MY   C14 6246    -0.026954     12.01000 ; qtot -0.020
  6247   hL   159    MY   H4R 6247     0.020431      1.00800 ; qtot 0.001
  6248   hL   159    MY   H4S 6248     0.020431      1.00800 ; qtot 0.021
  6249   cD   159    MY   C13 6249    -0.002435     12.01000 ; qtot 0.019
  6250   hL   159    MY   H3R 6250     0.018859      1.00800 ; qtot 0.037
  6251   hL   159    MY   H3S 6251     0.018859      1.00800 ; qtot 0.056
  6252   cD   159    MY   C12 6252    -0.164200     12.01000 ; qtot -0.108
  6253   hL   159    MY   H2R 6253     0.053944      1.00800 ; qtot -0.054
  6254   hL   159    MY   H2S 6254     0.053944      1.00800 ; qtot -0.000
  6255   hL   160    MY  H14T 6255     0.025511      1.00800 ; qtot 0.026
  6256   cD   160    MY  C114 6256    -0.111712     12.01000 ; qtot -0.086
  6257   hL   160    MY  H14R 6257     0.025511      1.00800 ; qtot -0.061
  6258   hL   160    MY  H14S 6258     0.025511      1.00800 ; qtot -0.035
  6259   cD   160    MY  C113 6259     0.017463     12.01000 ; qtot -0.018
  6260   hL   160    MY  H13R 6260     0.007531      1.00800 ; qtot -0.010
  6261   hL   160    MY  H13S 6261     0.007531      1.00800 ; qtot -0.003
  6262   cD   160    MY  C112 6262    -0.028094     12.01000 ; qtot -0.031
  6263   hL   160    MY  H12R 6263     0.017208      1.00800 ; qtot -0.014
  6264   hL   160    MY  H12S 6264     0.017208      1.00800 ; qtot 0.004
  6265   cD   160    MY  C111 6265    -0.031787     12.01000 ; qtot -0.028
  6266   hL   160    MY  H11R 6266     0.012677      1.00800 ; qtot -0.015
  6267   hL   160    MY  H11S 6267     0.012677      1.00800 ; qtot -0.003
  6268   cD   160    MY  C110 6268    -0.021025     12.01000 ; qtot -0.024
  6269   hL   160    MY  H10R 6269     0.010037      1.00800 ; qtot -0.014
  6270   hL   160    MY  H10S 6270     0.010037      1.00800 ; qtot -0.004
  6271   cD   160    MY   C19 6271    -0.014653     12.01000 ; qtot -0.018
  6272   hL   160    MY   H9R 6272     0.010172      1.00800 ; qtot -0.008
  6273   hL   160    MY   H9S 6273     0.010172      1.00800 ; qtot 0.002
  6274   cD   160    MY   C18 6274    -0.026451     12.01000 ; qtot -0.024
  6275   hL   160    MY   H8R 6275     0.011241      1.00800 ; qtot -0.013
  6276   hL   160    MY   H8S 6276     0.011241      1.00800 ; qtot -0.002
  6277   cD   160    MY   C17 6277    -0.004386     12.01000 ; qtot -0.006
  6278   hL   160    MY   H7R 6278     0.006833      1.00800 ; qtot 0.000
  6279   hL   160    MY   H7S 6279     0.006833      1.00800 ; qtot 0.007
  6280   cD   160    MY   C16 6280    -0.027812     12.01000 ; qtot -0.021
  6281   hL   160    MY   H6R 6281     0.011511      1.00800 ; qtot -0.009
  6282   hL   160    MY   H6S 6282     0.011511      1.00800 ; qtot 0.002
  6283   cD   160    MY   C15 6283    -0.016521     12.01000 ; qtot -0.014
  6284   hL   160    MY   H5R 6284     0.010573      1.00800 ; qtot -0.003
  6285   hL   160    MY   H5S 6285     0.010573      1.00800 ; qtot 0.007
  6286   cD   160    MY   C14 6286    -0.026954     12.01000 ; qtot -0.020
  6287   hL   160    MY   H4R 6287     0.020431      1.00800 ; qtot 0.001
  6288   hL   160    MY   H4S 6288     0.020431      1.00800 ; qtot 0.021
  6289   cD   160    MY   C13 6289    -0.002435     12.01000 ; qtot 0.019
  6290   hL   160    MY   H3R 6290     0.018859      1.00800 ; qtot 0.037
  6291   hL   160    MY   H3S 6291     0.018859      1.00800 ; qtot 0.056
  6292   cD   160    MY   C12 6292    -0.164200     12.01000 ; qtot -0.108
  6293   hL   160    MY   H2R 6293     0.053944      1.00800 ; qtot -0.054
  6294   hL   160    MY   H2S 6294     0.053944      1.00800 ; qtot -0.000
  6295   cC   161    PC   C11 6295     0.910403     12.01000 ; qtot 0.910
  6296   oC   161    PC   O12 6296    -0.671566     16.00000 ; qtot 0.239
  6297   oS   161    PC   O11 6297    -0.575489     16.00000 ; qtot -0.337
  6298   cA   161    PC    C1 6298     0.196939     12.01000 ; qtot -0.140
  6299   hE   161    PC    HR 6299     0.070469      1.00800 ; qtot -0.069
  6300   hE   161    PC    HS 6300     0.070469      1.00800 ; qtot 0.001
  6301   cA   161    PC    C2 6301     0.281242     12.01000 ; qtot 0.282
  6302   hE   161    PC    HX 6302     0.063253      1.00800 ; qtot 0.346
  6303   cA   161    PC    C3 6303     0.017459     12.01000 ; qtot 0.363
  6304   hE   161    PC    HA 6304     0.095591      1.00800 ; qtot 0.459
  6305   hE   161    PC    HB 6305     0.095591      1.00800 ; qtot 0.554
  6306   oT   161    PC   O31 6306    -0.509480     16.00000 ; qtot 0.045
  6307   pA   161    PC   P31 6307     1.339721     30.97000 ; qtot 1.385
  6308   oT   161    PC   O32 6308    -0.508176     16.00000 ; qtot 0.876
  6309   cA   161    PC   C31 6309     0.166801     12.01000 ; qtot 1.043
  6310   hE   161    PC   H1A 6310     0.078534      1.00800 ; qtot 1.122
  6311   hE   161    PC   H1B 6311     0.078534      1.00800 ; qtot 1.200
  6312   cA   161    PC   C32 6312    -0.170824     12.01000 ; qtot 1.029
  6313   hX   161    PC   H2A 6313     0.136415      1.00800 ; qtot 1.166
  6314   hX   161    PC   H2B 6314     0.136415      1.00800 ; qtot 1.302
  6315   nA   161    PC   N31 6315     0.245262     14.01000 ; qtot 1.548
  6316   cA   161    PC   C33 6316    -0.338973     12.01000 ; qtot 1.209
  6317   hX   161    PC   H3A 6317     0.172230      1.00800 ; qtot 1.381
  6318   hX   161    PC   H3B 6318     0.172230      1.00800 ; qtot 1.553
  6319   hX   161    PC   H3C 6319     0.172230      1.00800 ; qtot 1.725
  6320   cA   161    PC   C34 6320    -0.338973     12.01000 ; qtot 1.386
  6321   hX   161    PC   H4A 6321     0.172230      1.00800 ; qtot 1.559
  6322   hX   161    PC   H4B 6322     0.172230      1.00800 ; qtot 1.731
  6323   hX   161    PC   H4C 6323     0.172230      1.00800 ; qtot 1.903
  6324   cA   161    PC   C35 6324    -0.338973     12.01000 ; qtot 1.564
  6325   hX   161    PC   H5A 6325     0.172230      1.00800 ; qtot 1.736
  6326   hX   161    PC   H5B 6326     0.172230      1.00800 ; qtot 1.908
  6327   hX   161    PC   H5C 6327     0.172230      1.00800 ; qtot 2.081
  6328   oP   161    PC   O33 6328    -0.875812     16.00000 ; qtot 1.205
  6329   oP   161    PC   O34 6329    -0.875812     16.00000 ; qtot 0.329
  6330   oS   161    PC   O21 6330    -0.552948     16.00000 ; qtot -0.224
  6331   cC   161    PC   C21 6331     0.897613     12.01000 ; qtot 0.674
  6332   oC   161    PC   O22 6332    -0.673755     16.00000 ; qtot 0.000
  6333   hL   162    MY  H14T 6333     0.025511      1.00800 ; qtot 0.026
  6334   cD   162    MY  C114 6334    -0.111712     12.01000 ; qtot -0.086
  6335   hL   162    MY  H14R 6335     0.025511      1.00800 ; qtot -0.061
  6336   hL   162    MY  H14S 6336     0.025511      1.00800 ; qtot -0.035
  6337   cD   162    MY  C113 6337     0.017463     12.01000 ; qtot -0.018
  6338   hL   162    MY  H13R 6338     0.007531      1.00800 ; qtot -0.010
  6339   hL   162    MY  H13S 6339     0.007531      1.00800 ; qtot -0.003
  6340   cD   162    MY  C112 6340    -0.028094     12.01000 ; qtot -0.031
  6341   hL   162    MY  H12R 6341     0.017208      1.00800 ; qtot -0.014
  6342   hL   162    MY  H12S 6342     0.017208      1.00800 ; qtot 0.004
  6343   cD   162    MY  C111 6343    -0.031787     12.01000 ; qtot -0.028
  6344   hL   162    MY  H11R 6344     0.012677      1.00800 ; qtot -0.015
  6345   hL   162    MY  H11S 6345     0.012677      1.00800 ; qtot -0.003
  6346   cD   162    MY  C110 6346    -0.021025     12.01000 ; qtot -0.024
  6347   hL   162    MY  H10R 6347     0.010037      1.00800 ; qtot -0.014
  6348   hL   162    MY  H10S 6348     0.010037      1.00800 ; qtot -0.004
  6349   cD   162    MY   C19 6349    -0.014653     12.01000 ; qtot -0.018
  6350   hL   162    MY   H9R 6350     0.010172      1.00800 ; qtot -0.008
  6351   hL   162    MY   H9S 6351     0.010172      1.00800 ; qtot 0.002
  6352   cD   162    MY   C18 6352    -0.026451     12.01000 ; qtot -0.024
  6353   hL   162    MY   H8R 6353     0.011241      1.00800 ; qtot -0.013
  6354   hL   162    MY   H8S 6354     0.011241      1.00800 ; qtot -0.002
  6355   cD   162    MY   C17 6355    -0.004386     12.01000 ; qtot -0.006
  6356   hL   162    MY   H7R 6356     0.006833      1.00800 ; qtot 0.000
  6357   hL   162    MY   H7S 6357     0.006833      1.00800 ; qtot 0.007
  6358   cD   162    MY   C16 6358    -0.027812     12.01000 ; qtot -0.021
  6359   hL   162    MY   H6R 6359     0.011511      1.00800 ; qtot -0.009
  6360   hL   162    MY   H6S 6360     0.011511      1.00800 ; qtot 0.002
  6361   cD   162    MY   C15 6361    -0.016521     12.01000 ; qtot -0.014
  6362   hL   162    MY   H5R 6362     0.010573      1.00800 ; qtot -0.003
  6363   hL   162    MY   H5S 6363     0.010573      1.00800 ; qtot 0.007
  6364   cD   162    MY   C14 6364    -0.026954     12.01000 ; qtot -0.020
  6365   hL   162    MY   H4R 6365     0.020431      1.00800 ; qtot 0.001
  6366   hL   162    MY   H4S 6366     0.020431      1.00800 ; qtot 0.021
  6367   cD   162    MY   C13 6367    -0.002435     12.01000 ; qtot 0.019
  6368   hL   162    MY   H3R 6368     0.018859      1.00800 ; qtot 0.037
  6369   hL   162    MY   H3S 6369     0.018859      1.00800 ; qtot 0.056
  6370   cD   162    MY   C12 6370    -0.164200     12.01000 ; qtot -0.108
  6371   hL   162    MY   H2R 6371     0.053944      1.00800 ; qtot -0.054
  6372   hL   162    MY   H2S 6372     0.053944      1.00800 ; qtot -0.000
  6373   hL   163    MY  H14T 6373     0.025511      1.00800 ; qtot 0.026
  6374   cD   163    MY  C114 6374    -0.111712     12.01000 ; qtot -0.086
  6375   hL   163    MY  H14R 6375     0.025511      1.00800 ; qtot -0.061
  6376   hL   163    MY  H14S 6376     0.025511      1.00800 ; qtot -0.035
  6377   cD   163    MY  C113 6377     0.017463     12.01000 ; qtot -0.018
  6378   hL   163    MY  H13R 6378     0.007531      1.00800 ; qtot -0.010
  6379   hL   163    MY  H13S 6379     0.007531      1.00800 ; qtot -0.003
  6380   cD   163    MY  C112 6380    -0.028094     12.01000 ; qtot -0.031
  6381   hL   163    MY  H12R 6381     0.017208      1.00800 ; qtot -0.014
  6382   hL   163    MY  H12S 6382     0.017208      1.00800 ; qtot 0.004
  6383   cD   163    MY  C111 6383    -0.031787     12.01000 ; qtot -0.028
  6384   hL   163    MY  H11R 6384     0.012677      1.00800 ; qtot -0.015
  6385   hL   163    MY  H11S 6385     0.012677      1.00800 ; qtot -0.003
  6386   cD   163    MY  C110 6386    -0.021025     12.01000 ; qtot -0.024
  6387   hL   163    MY  H10R 6387     0.010037      1.00800 ; qtot -0.014
  6388   hL   163    MY  H10S 6388     0.010037      1.00800 ; qtot -0.004
  6389   cD   163    MY   C19 6389    -0.014653     12.01000 ; qtot -0.018
  6390   hL   163    MY   H9R 6390     0.010172      1.00800 ; qtot -0.008
  6391   hL   163    MY   H9S 6391     0.010172      1.00800 ; qtot 0.002
  6392   cD   163    MY   C18 6392    -0.026451     12.01000 ; qtot -0.024
  6393   hL   163    MY   H8R 6393     0.011241      1.00800 ; qtot -0.013
  6394   hL   163    MY   H8S 6394     0.011241      1.00800 ; qtot -0.002
  6395   cD   163    MY   C17 6395    -0.004386     12.01000 ; qtot -0.006
  6396   hL   163    MY   H7R 6396     0.006833      1.00800 ; qtot 0.000
  6397   hL   163    MY   H7S 6397     0.006833      1.00800 ; qtot 0.007
  6398   cD   163    MY   C16 6398    -0.027812     12.01000 ; qtot -0.021
  6399   hL   163    MY   H6R 6399     0.011511      1.00800 ; qtot -0.009
  6400   hL   163    MY   H6S 6400     0.011511      1.00800 ; qtot 0.002
  6401   cD   163    MY   C15 6401    -0.016521     12.01000 ; qtot -0.014
  6402   hL   163    MY   H5R 6402     0.010573      1.00800 ; qtot -0.003
  6403   hL   163    MY   H5S 6403     0.010573      1.00800 ; qtot 0.007
  6404   cD   163    MY   C14 6404    -0.026954     12.01000 ; qtot -0.020
  6405   hL   163    MY   H4R 6405     0.020431      1.00800 ; qtot 0.001
  6406   hL   163    MY   H4S 6406     0.020431      1.00800 ; qtot 0.021
  6407   cD   163    MY   C13 6407    -0.002435     12.01000 ; qtot 0.019
  6408   hL   163    MY   H3R 6408     0.018859      1.00800 ; qtot 0.037
  6409   hL   163    MY   H3S 6409     0.018859      1.00800 ; qtot 0.056
  6410   cD   163    MY   C12 6410    -0.164200     12.01000 ; qtot -0.108
  6411   hL   163    MY   H2R 6411     0.053944      1.00800 ; qtot -0.054
  6412   hL   163    MY   H2S 6412     0.053944      1.00800 ; qtot -0.000
  6413   cC   164    PC   C11 6413     0.910403     12.01000 ; qtot 0.910
  6414   oC   164    PC   O12 6414    -0.671566     16.00000 ; qtot 0.239
  6415   oS   164    PC   O11 6415    -0.575489     16.00000 ; qtot -0.337
  6416   cA   164    PC    C1 6416     0.196939     12.01000 ; qtot -0.140
  6417   hE   164    PC    HR 6417     0.070469      1.00800 ; qtot -0.069
  6418   hE   164    PC    HS 6418     0.070469      1.00800 ; qtot 0.001
  6419   cA   164    PC    C2 6419     0.281242     12.01000 ; qtot 0.282
  6420   hE   164    PC    HX 6420     0.063253      1.00800 ; qtot 0.346
  6421   cA   164    PC    C3 6421     0.017459     12.01000 ; qtot 0.363
  6422   hE   164    PC    HA 6422     0.095591      1.00800 ; qtot 0.459
  6423   hE   164    PC    HB 6423     0.095591      1.00800 ; qtot 0.554
  6424   oT   164    PC   O31 6424    -0.509480     16.00000 ; qtot 0.045
  6425   pA   164    PC   P31 6425     1.339721     30.97000 ; qtot 1.385
  6426   oT   164    PC   O32 6426    -0.508176     16.00000 ; qtot 0.876
  6427   cA   164    PC   C31 6427     0.166801     12.01000 ; qtot 1.043
  6428   hE   164    PC   H1A 6428     0.078534      1.00800 ; qtot 1.122
  6429   hE   164    PC   H1B 6429     0.078534      1.00800 ; qtot 1.200
  6430   cA   164    PC   C32 6430    -0.170824     12.01000 ; qtot 1.029
  6431   hX   164    PC   H2A 6431     0.136415      1.00800 ; qtot 1.166
  6432   hX   164    PC   H2B 6432     0.136415      1.00800 ; qtot 1.302
  6433   nA   164    PC   N31 6433     0.245262     14.01000 ; qtot 1.548
  6434   cA   164    PC   C33 6434    -0.338973     12.01000 ; qtot 1.209
  6435   hX   164    PC   H3A 6435     0.172230      1.00800 ; qtot 1.381
  6436   hX   164    PC   H3B 6436     0.172230      1.00800 ; qtot 1.553
  6437   hX   164    PC   H3C 6437     0.172230      1.00800 ; qtot 1.725
  6438   cA   164    PC   C34 6438    -0.338973     12.01000 ; qtot 1.386
  6439   hX   164    PC   H4A 6439     0.172230      1.00800 ; qtot 1.559
  6440   hX   164    PC   H4B 6440     0.172230      1.00800 ; qtot 1.731
  6441   hX   164    PC   H4C 6441     0.172230      1.00800 ; qtot 1.903
  6442   cA   164    PC   C35 6442    -0.338973     12.01000 ; qtot 1.564
  6443   hX   164    PC   H5A 6443     0.172230      1.00800 ; qtot 1.736
  6444   hX   164    PC   H5B 6444     0.172230      1.00800 ; qtot 1.908
  6445   hX   164    PC   H5C 6445     0.172230      1.00800 ; qtot 2.081
  6446   oP   164    PC   O33 6446    -0.875812     16.00000 ; qtot 1.205
  6447   oP   164    PC   O34 6447    -0.875812     16.00000 ; qtot 0.329
  6448   oS   164    PC   O21 6448    -0.552948     16.00000 ; qtot -0.224
  6449   cC   164    PC   C21 6449     0.897613     12.01000 ; qtot 0.674
  6450   oC   164    PC   O22 6450    -0.673755     16.00000 ; qtot 0.000
  6451   hL   165    MY  H14T 6451     0.025511      1.00800 ; qtot 0.026
  6452   cD   165    MY  C114 6452    -0.111712     12.01000 ; qtot -0.086
  6453   hL   165    MY  H14R 6453     0.025511      1.00800 ; qtot -0.061
  6454   hL   165    MY  H14S 6454     0.025511      1.00800 ; qtot -0.035
  6455   cD   165    MY  C113 6455     0.017463     12.01000 ; qtot -0.018
  6456   hL   165    MY  H13R 6456     0.007531      1.00800 ; qtot -0.010
  6457   hL   165    MY  H13S 6457     0.007531      1.00800 ; qtot -0.003
  6458   cD   165    MY  C112 6458    -0.028094     12.01000 ; qtot -0.031
  6459   hL   165    MY  H12R 6459     0.017208      1.00800 ; qtot -0.014
  6460   hL   165    MY  H12S 6460     0.017208      1.00800 ; qtot 0.004
  6461   cD   165    MY  C111 6461    -0.031787     12.01000 ; qtot -0.028
  6462   hL   165    MY  H11R 6462     0.012677      1.00800 ; qtot -0.015
  6463   hL   165    MY  H11S 6463     0.012677      1.00800 ; qtot -0.003
  6464   cD   165    MY  C110 6464    -0.021025     12.01000 ; qtot -0.024
  6465   hL   165    MY  H10R 6465     0.010037      1.00800 ; qtot -0.014
  6466   hL   165    MY  H10S 6466     0.010037      1.00800 ; qtot -0.004
  6467   cD   165    MY   C19 6467    -0.014653     12.01000 ; qtot -0.018
  6468   hL   165    MY   H9R 6468     0.010172      1.00800 ; qtot -0.008
  6469   hL   165    MY   H9S 6469     0.010172      1.00800 ; qtot 0.002
  6470   cD   165    MY   C18 6470    -0.026451     12.01000 ; qtot -0.024
  6471   hL   165    MY   H8R 6471     0.011241      1.00800 ; qtot -0.013
  6472   hL   165    MY   H8S 6472     0.011241      1.00800 ; qtot -0.002
  6473   cD   165    MY   C17 6473    -0.004386     12.01000 ; qtot -0.006
  6474   hL   165    MY   H7R 6474     0.006833      1.00800 ; qtot 0.000
  6475   hL   165    MY   H7S 6475     0.006833      1.00800 ; qtot 0.007
  6476   cD   165    MY   C16 6476    -0.027812     12.01000 ; qtot -0.021
  6477   hL   165    MY   H6R 6477     0.011511      1.00800 ; qtot -0.009
  6478   hL   165    MY   H6S 6478     0.011511      1.00800 ; qtot 0.002
  6479   cD   165    MY   C15 6479    -0.016521     12.01000 ; qtot -0.014
  6480   hL   165    MY   H5R 6480     0.010573      1.00800 ; qtot -0.003
  6481   hL   165    MY   H5S 6481     0.010573      1.00800 ; qtot 0.007
  6482   cD   165    MY   C14 6482    -0.026954     12.01000 ; qtot -0.020
  6483   hL   165    MY   H4R 6483     0.020431      1.00800 ; qtot 0.001
  6484   hL   165    MY   H4S 6484     0.020431      1.00800 ; qtot 0.021
  6485   cD   165    MY   C13 6485    -0.002435     12.01000 ; qtot 0.019
  6486   hL   165    MY   H3R 6486     0.018859      1.00800 ; qtot 0.037
  6487   hL   165    MY   H3S 6487     0.018859      1.00800 ; qtot 0.056
  6488   cD   165    MY   C12 6488    -0.164200     12.01000 ; qtot -0.108
  6489   hL   165    MY   H2R 6489     0.053944      1.00800 ; qtot -0.054
  6490   hL   165    MY   H2S 6490     0.053944      1.00800 ; qtot -0.000
  6491   hL   166    MY  H14T 6491     0.025511      1.00800 ; qtot 0.026
  6492   cD   166    MY  C114 6492    -0.111712     12.01000 ; qtot -0.086
  6493   hL   166    MY  H14R 6493     0.025511      1.00800 ; qtot -0.061
  6494   hL   166    MY  H14S 6494     0.025511      1.00800 ; qtot -0.035
  6495   cD   166    MY  C113 6495     0.017463     12.01000 ; qtot -0.018
  6496   hL   166    MY  H13R 6496     0.007531      1.00800 ; qtot -0.010
  6497   hL   166    MY  H13S 6497     0.007531      1.00800 ; qtot -0.003
  6498   cD   166    MY  C112 6498    -0.028094     12.01000 ; qtot -0.031
  6499   hL   166    MY  H12R 6499     0.017208      1.00800 ; qtot -0.014
  6500   hL   166    MY  H12S 6500     0.017208      1.00800 ; qtot 0.004
  6501   cD   166    MY  C111 6501    -0.031787     12.01000 ; qtot -0.028
  6502   hL   166    MY  H11R 6502     0.012677      1.00800 ; qtot -0.015
  6503   hL   166    MY  H11S 6503     0.012677      1.00800 ; qtot -0.003
  6504   cD   166    MY  C110 6504    -0.021025     12.01000 ; qtot -0.024
  6505   hL   166    MY  H10R 6505     0.010037      1.00800 ; qtot -0.014
  6506   hL   166    MY  H10S 6506     0.010037      1.00800 ; qtot -0.004
  6507   cD   166    MY   C19 6507    -0.014653     12.01000 ; qtot -0.018
  6508   hL   166    MY   H9R 6508     0.010172      1.00800 ; qtot -0.008
  6509   hL   166    MY   H9S 6509     0.010172      1.00800 ; qtot 0.002
  6510   cD   166    MY   C18 6510    -0.026451     12.01000 ; qtot -0.024
  6511   hL   166    MY   H8R 6511     0.011241      1.00800 ; qtot -0.013
  6512   hL   166    MY   H8S 6512     0.011241      1.00800 ; qtot -0.002
  6513   cD   166    MY   C17 6513    -0.004386     12.01000 ; qtot -0.006
  6514   hL   166    MY   H7R 6514     0.006833      1.00800 ; qtot 0.000
  6515   hL   166    MY   H7S 6515     0.006833      1.00800 ; qtot 0.007
  6516   cD   166    MY   C16 6516    -0.027812     12.01000 ; qtot -0.021
  6517   hL   166    MY   H6R 6517     0.011511      1.00800 ; qtot -0.009
  6518   hL   166    MY   H6S 6518     0.011511      1.00800 ; qtot 0.002
  6519   cD   166    MY   C15 6519    -0.016521     12.01000 ; qtot -0.014
  6520   hL   166    MY   H5R 6520     0.010573      1.00800 ; qtot -0.003
  6521   hL   166    MY   H5S 6521     0.010573      1.00800 ; qtot 0.007
  6522   cD   166    MY   C14 6522    -0.026954     12.01000 ; qtot -0.020
  6523   hL   166    MY   H4R 6523     0.020431      1.00800 ; qtot 0.001
  6524   hL   166    MY   H4S 6524     0.020431      1.00800 ; qtot 0.021
  6525   cD   166    MY   C13 6525    -0.002435     12.01000 ; qtot 0.019
  6526   hL   166    MY   H3R 6526     0.018859      1.00800 ; qtot 0.037
  6527   hL   166    MY   H3S 6527     0.018859      1.00800 ; qtot 0.056
  6528   cD   166    MY   C12 6528    -0.164200     12.01000 ; qtot -0.108
  6529   hL   166    MY   H2R 6529     0.053944      1.00800 ; qtot -0.054
  6530   hL   166    MY   H2S 6530     0.053944      1.00800 ; qtot -0.000
  6531   cC   167    PC   C11 6531     0.910403     12.01000 ; qtot 0.910
  6532   oC   167    PC   O12 6532    -0.671566     16.00000 ; qtot 0.239
  6533   oS   167    PC   O11 6533    -0.575489     16.00000 ; qtot -0.337
  6534   cA   167    PC    C1 6534     0.196939     12.01000 ; qtot -0.140
  6535   hE   167    PC    HR 6535     0.070469      1.00800 ; qtot -0.069
  6536   hE   167    PC    HS 6536     0.070469      1.00800 ; qtot 0.001
  6537   cA   167    PC    C2 6537     0.281242     12.01000 ; qtot 0.282
  6538   hE   167    PC    HX 6538     0.063253      1.00800 ; qtot 0.346
  6539   cA   167    PC    C3 6539     0.017459     12.01000 ; qtot 0.363
  6540   hE   167    PC    HA 6540     0.095591      1.00800 ; qtot 0.459
  6541   hE   167    PC    HB 6541     0.095591      1.00800 ; qtot 0.554
  6542   oT   167    PC   O31 6542    -0.509480     16.00000 ; qtot 0.045
  6543   pA   167    PC   P31 6543     1.339721     30.97000 ; qtot 1.385
  6544   oT   167    PC   O32 6544    -0.508176     16.00000 ; qtot 0.876
  6545   cA   167    PC   C31 6545     0.166801     12.01000 ; qtot 1.043
  6546   hE   167    PC   H1A 6546     0.078534      1.00800 ; qtot 1.122
  6547   hE   167    PC   H1B 6547     0.078534      1.00800 ; qtot 1.200
  6548   cA   167    PC   C32 6548    -0.170824     12.01000 ; qtot 1.029
  6549   hX   167    PC   H2A 6549     0.136415      1.00800 ; qtot 1.166
  6550   hX   167    PC   H2B 6550     0.136415      1.00800 ; qtot 1.302
  6551   nA   167    PC   N31 6551     0.245262     14.01000 ; qtot 1.548
  6552   cA   167    PC   C33 6552    -0.338973     12.01000 ; qtot 1.209
  6553   hX   167    PC   H3A 6553     0.172230      1.00800 ; qtot 1.381
  6554   hX   167    PC   H3B 6554     0.172230      1.00800 ; qtot 1.553
  6555   hX   167    PC   H3C 6555     0.172230      1.00800 ; qtot 1.725
  6556   cA   167    PC   C34 6556    -0.338973     12.01000 ; qtot 1.386
  6557   hX   167    PC   H4A 6557     0.172230      1.00800 ; qtot 1.559
  6558   hX   167    PC   H4B 6558     0.172230      1.00800 ; qtot 1.731
  6559   hX   167    PC   H4C 6559     0.172230      1.00800 ; qtot 1.903
  6560   cA   167    PC   C35 6560    -0.338973     12.01000 ; qtot 1.564
  6561   hX   167    PC   H5A 6561     0.172230      1.00800 ; qtot 1.736
  6562   hX   167    PC   H5B 6562     0.172230      1.00800 ; qtot 1.908
  6563   hX   167    PC   H5C 6563     0.172230      1.00800 ; qtot 2.081
  6564   oP   167    PC   O33 6564    -0.875812     16.00000 ; qtot 1.205
  6565   oP   167    PC   O34 6565    -0.875812     16.00000 ; qtot 0.329
  6566   oS   167    PC   O21 6566    -0.552948     16.00000 ; qtot -0.224
  6567   cC   167    PC   C21 6567     0.897613     12.01000 ; qtot 0.674
  6568   oC   167    PC   O22 6568    -0.673755     16.00000 ; qtot 0.000
  6569   hL   168    MY  H14T 6569     0.025511      1.00800 ; qtot 0.026
  6570   cD   168    MY  C114 6570    -0.111712     12.01000 ; qtot -0.086
  6571   hL   168    MY  H14R 6571     0.025511      1.00800 ; qtot -0.061
  6572   hL   168    MY  H14S 6572     0.025511      1.00800 ; qtot -0.035
  6573   cD   168    MY  C113 6573     0.017463     12.01000 ; qtot -0.018
  6574   hL   168    MY  H13R 6574     0.007531      1.00800 ; qtot -0.010
  6575   hL   168    MY  H13S 6575     0.007531      1.00800 ; qtot -0.003
  6576   cD   168    MY  C112 6576    -0.028094     12.01000 ; qtot -0.031
  6577   hL   168    MY  H12R 6577     0.017208      1.00800 ; qtot -0.014
  6578   hL   168    MY  H12S 6578     0.017208      1.00800 ; qtot 0.004
  6579   cD   168    MY  C111 6579    -0.031787     12.01000 ; qtot -0.028
  6580   hL   168    MY  H11R 6580     0.012677      1.00800 ; qtot -0.015
  6581   hL   168    MY  H11S 6581     0.012677      1.00800 ; qtot -0.003
  6582   cD   168    MY  C110 6582    -0.021025     12.01000 ; qtot -0.024
  6583   hL   168    MY  H10R 6583     0.010037      1.00800 ; qtot -0.014
  6584   hL   168    MY  H10S 6584     0.010037      1.00800 ; qtot -0.004
  6585   cD   168    MY   C19 6585    -0.014653     12.01000 ; qtot -0.018
  6586   hL   168    MY   H9R 6586     0.010172      1.00800 ; qtot -0.008
  6587   hL   168    MY   H9S 6587     0.010172      1.00800 ; qtot 0.002
  6588   cD   168    MY   C18 6588    -0.026451     12.01000 ; qtot -0.024
  6589   hL   168    MY   H8R 6589     0.011241      1.00800 ; qtot -0.013
  6590   hL   168    MY   H8S 6590     0.011241      1.00800 ; qtot -0.002
  6591   cD   168    MY   C17 6591    -0.004386     12.01000 ; qtot -0.006
  6592   hL   168    MY   H7R 6592     0.006833      1.00800 ; qtot 0.000
  6593   hL   168    MY   H7S 6593     0.006833      1.00800 ; qtot 0.007
  6594   cD   168    MY   C16 6594    -0.027812     12.01000 ; qtot -0.021
  6595   hL   168    MY   H6R 6595     0.011511      1.00800 ; qtot -0.009
  6596   hL   168    MY   H6S 6596     0.011511      1.00800 ; qtot 0.002
  6597   cD   168    MY   C15 6597    -0.016521     12.01000 ; qtot -0.014
  6598   hL   168    MY   H5R 6598     0.010573      1.00800 ; qtot -0.003
  6599   hL   168    MY   H5S 6599     0.010573      1.00800 ; qtot 0.007
  6600   cD   168    MY   C14 6600    -0.026954     12.01000 ; qtot -0.020
  6601   hL   168    MY   H4R 6601     0.020431      1.00800 ; qtot 0.001
  6602   hL   168    MY   H4S 6602     0.020431      1.00800 ; qtot 0.021
  6603   cD   168    MY   C13 6603    -0.002435     12.01000 ; qtot 0.019
  6604   hL   168    MY   H3R 6604     0.018859      1.00800 ; qtot 0.037
  6605   hL   168    MY   H3S 6605     0.018859      1.00800 ; qtot 0.056
  6606   cD   168    MY   C12 6606    -0.164200     12.01000 ; qtot -0.108
  6607   hL   168    MY   H2R 6607     0.053944      1.00800 ; qtot -0.054
  6608   hL   168    MY   H2S 6608     0.053944      1.00800 ; qtot -0.000
  6609   hL   169    MY  H14T 6609     0.025511      1.00800 ; qtot 0.026
  6610   cD   169    MY  C114 6610    -0.111712     12.01000 ; qtot -0.086
  6611   hL   169    MY  H14R 6611     0.025511      1.00800 ; qtot -0.061
  6612   hL   169    MY  H14S 6612     0.025511      1.00800 ; qtot -0.035
  6613   cD   169    MY  C113 6613     0.017463     12.01000 ; qtot -0.018
  6614   hL   169    MY  H13R 6614     0.007531      1.00800 ; qtot -0.010
  6615   hL   169    MY  H13S 6615     0.007531      1.00800 ; qtot -0.003
  6616   cD   169    MY  C112 6616    -0.028094     12.01000 ; qtot -0.031
  6617   hL   169    MY  H12R 6617     0.017208      1.00800 ; qtot -0.014
  6618   hL   169    MY  H12S 6618     0.017208      1.00800 ; qtot 0.004
  6619   cD   169    MY  C111 6619    -0.031787     12.01000 ; qtot -0.028
  6620   hL   169    MY  H11R 6620     0.012677      1.00800 ; qtot -0.015
  6621   hL   169    MY  H11S 6621     0.012677      1.00800 ; qtot -0.003
  6622   cD   169    MY  C110 6622    -0.021025     12.01000 ; qtot -0.024
  6623   hL   169    MY  H10R 6623     0.010037      1.00800 ; qtot -0.014
  6624   hL   169    MY  H10S 6624     0.010037      1.00800 ; qtot -0.004
  6625   cD   169    MY   C19 6625    -0.014653     12.01000 ; qtot -0.018
  6626   hL   169    MY   H9R 6626     0.010172      1.00800 ; qtot -0.008
  6627   hL   169    MY   H9S 6627     0.010172      1.00800 ; qtot 0.002
  6628   cD   169    MY   C18 6628    -0.026451     12.01000 ; qtot -0.024
  6629   hL   169    MY   H8R 6629     0.011241      1.00800 ; qtot -0.013
  6630   hL   169    MY   H8S 6630     0.011241      1.00800 ; qtot -0.002
  6631   cD   169    MY   C17 6631    -0.004386     12.01000 ; qtot -0.006
  6632   hL   169    MY   H7R 6632     0.006833      1.00800 ; qtot 0.000
  6633   hL   169    MY   H7S 6633     0.006833      1.00800 ; qtot 0.007
  6634   cD   169    MY   C16 6634    -0.027812     12.01000 ; qtot -0.021
  6635   hL   169    MY   H6R 6635     0.011511      1.00800 ; qtot -0.009
  6636   hL   169    MY   H6S 6636     0.011511      1.00800 ; qtot 0.002
  6637   cD   169    MY   C15 6637    -0.016521     12.01000 ; qtot -0.014
  6638   hL   169    MY   H5R 6638     0.010573      1.00800 ; qtot -0.003
  6639   hL   169    MY   H5S 6639     0.010573      1.00800 ; qtot 0.007
  6640   cD   169    MY   C14 6640    -0.026954     12.01000 ; qtot -0.020
  6641   hL   169    MY   H4R 6641     0.020431      1.00800 ; qtot 0.001
  6642   hL   169    MY   H4S 6642     0.020431      1.00800 ; qtot 0.021
  6643   cD   169    MY   C13 6643    -0.002435     12.01000 ; qtot 0.019
  6644   hL   169    MY   H3R 6644     0.018859      1.00800 ; qtot 0.037
  6645   hL   169    MY   H3S 6645     0.018859      1.00800 ; qtot 0.056
  6646   cD   169    MY   C12 6646    -0.164200     12.01000 ; qtot -0.108
  6647   hL   169    MY   H2R 6647     0.053944      1.00800 ; qtot -0.054
  6648   hL   169    MY   H2S 6648     0.053944      1.00800 ; qtot -0.000
  6649   cC   170    PC   C11 6649     0.910403     12.01000 ; qtot 0.910
  6650   oC   170    PC   O12 6650    -0.671566     16.00000 ; qtot 0.239
  6651   oS   170    PC   O11 6651    -0.575489     16.00000 ; qtot -0.337
  6652   cA   170    PC    C1 6652     0.196939     12.01000 ; qtot -0.140
  6653   hE   170    PC    HR 6653     0.070469      1.00800 ; qtot -0.069
  6654   hE   170    PC    HS 6654     0.070469      1.00800 ; qtot 0.001
  6655   cA   170    PC    C2 6655     0.281242     12.01000 ; qtot 0.282
  6656   hE   170    PC    HX 6656     0.063253      1.00800 ; qtot 0.346
  6657   cA   170    PC    C3 6657     0.017459     12.01000 ; qtot 0.363
  6658   hE   170    PC    HA 6658     0.095591      1.00800 ; qtot 0.459
  6659   hE   170    PC    HB 6659     0.095591      1.00800 ; qtot 0.554
  6660   oT   170    PC   O31 6660    -0.509480     16.00000 ; qtot 0.045
  6661   pA   170    PC   P31 6661     1.339721     30.97000 ; qtot 1.385
  6662   oT   170    PC   O32 6662    -0.508176     16.00000 ; qtot 0.876
  6663   cA   170    PC   C31 6663     0.166801     12.01000 ; qtot 1.043
  6664   hE   170    PC   H1A 6664     0.078534      1.00800 ; qtot 1.122
  6665   hE   170    PC   H1B 6665     0.078534      1.00800 ; qtot 1.200
  6666   cA   170    PC   C32 6666    -0.170824     12.01000 ; qtot 1.029
  6667   hX   170    PC   H2A 6667     0.136415      1.00800 ; qtot 1.166
  6668   hX   170    PC   H2B 6668     0.136415      1.00800 ; qtot 1.302
  6669   nA   170    PC   N31 6669     0.245262     14.01000 ; qtot 1.548
  6670   cA   170    PC   C33 6670    -0.338973     12.01000 ; qtot 1.209
  6671   hX   170    PC   H3A 6671     0.172230      1.00800 ; qtot 1.381
  6672   hX   170    PC   H3B 6672     0.172230      1.00800 ; qtot 1.553
  6673   hX   170    PC   H3C 6673     0.172230      1.00800 ; qtot 1.725
  6674   cA   170    PC   C34 6674    -0.338973     12.01000 ; qtot 1.386
  6675   hX   170    PC   H4A 6675     0.172230      1.00800 ; qtot 1.559
  6676   hX   170    PC   H4B 6676     0.172230      1.00800 ; qtot 1.731
  6677   hX   170    PC   H4C 6677     0.172230      1.00800 ; qtot 1.903
  6678   cA   170    PC   C35 6678    -0.338973     12.01000 ; qtot 1.564
  6679   hX   170    PC   H5A 6679     0.172230      1.00800 ; qtot 1.736
  6680   hX   170    PC   H5B 6680     0.172230      1.00800 ; qtot 1.908
  6681   hX   170    PC   H5C 6681     0.172230      1.00800 ; qtot 2.081
  6682   oP   170    PC   O33 6682    -0.875812     16.00000 ; qtot 1.205
  6683   oP   170    PC   O34 6683    -0.875812     16.00000 ; qtot 0.329
  6684   oS   170    PC   O21 6684    -0.552948     16.00000 ; qtot -0.224
  6685   cC   170    PC   C21 6685     0.897613     12.01000 ; qtot 0.674
  6686   oC   170    PC   O22 6686    -0.673755     16.00000 ; qtot 0.000
  6687   hL   171    MY  H14T 6687     0.025511      1.00800 ; qtot 0.026
  6688   cD   171    MY  C114 6688    -0.111712     12.01000 ; qtot -0.086
  6689   hL   171    MY  H14R 6689     0.025511      1.00800 ; qtot -0.061
  6690   hL   171    MY  H14S 6690     0.025511      1.00800 ; qtot -0.035
  6691   cD   171    MY  C113 6691     0.017463     12.01000 ; qtot -0.018
  6692   hL   171    MY  H13R 6692     0.007531      1.00800 ; qtot -0.010
  6693   hL   171    MY  H13S 6693     0.007531      1.00800 ; qtot -0.003
  6694   cD   171    MY  C112 6694    -0.028094     12.01000 ; qtot -0.031
  6695   hL   171    MY  H12R 6695     0.017208      1.00800 ; qtot -0.014
  6696   hL   171    MY  H12S 6696     0.017208      1.00800 ; qtot 0.004
  6697   cD   171    MY  C111 6697    -0.031787     12.01000 ; qtot -0.028
  6698   hL   171    MY  H11R 6698     0.012677      1.00800 ; qtot -0.015
  6699   hL   171    MY  H11S 6699     0.012677      1.00800 ; qtot -0.003
  6700   cD   171    MY  C110 6700    -0.021025     12.01000 ; qtot -0.024
  6701   hL   171    MY  H10R 6701     0.010037      1.00800 ; qtot -0.014
  6702   hL   171    MY  H10S 6702     0.010037      1.00800 ; qtot -0.004
  6703   cD   171    MY   C19 6703    -0.014653     12.01000 ; qtot -0.018
  6704   hL   171    MY   H9R 6704     0.010172      1.00800 ; qtot -0.008
  6705   hL   171    MY   H9S 6705     0.010172      1.00800 ; qtot 0.002
  6706   cD   171    MY   C18 6706    -0.026451     12.01000 ; qtot -0.024
  6707   hL   171    MY   H8R 6707     0.011241      1.00800 ; qtot -0.013
  6708   hL   171    MY   H8S 6708     0.011241      1.00800 ; qtot -0.002
  6709   cD   171    MY   C17 6709    -0.004386     12.01000 ; qtot -0.006
  6710   hL   171    MY   H7R 6710     0.006833      1.00800 ; qtot 0.000
  6711   hL   171    MY   H7S 6711     0.006833      1.00800 ; qtot 0.007
  6712   cD   171    MY   C16 6712    -0.027812     12.01000 ; qtot -0.021
  6713   hL   171    MY   H6R 6713     0.011511      1.00800 ; qtot -0.009
  6714   hL   171    MY   H6S 6714     0.011511      1.00800 ; qtot 0.002
  6715   cD   171    MY   C15 6715    -0.016521     12.01000 ; qtot -0.014
  6716   hL   171    MY   H5R 6716     0.010573      1.00800 ; qtot -0.003
  6717   hL   171    MY   H5S 6717     0.010573      1.00800 ; qtot 0.007
  6718   cD   171    MY   C14 6718    -0.026954     12.01000 ; qtot -0.020
  6719   hL   171    MY   H4R 6719     0.020431      1.00800 ; qtot 0.001
  6720   hL   171    MY   H4S 6720     0.020431      1.00800 ; qtot 0.021
  6721   cD   171    MY   C13 6721    -0.002435     12.01000 ; qtot 0.019
  6722   hL   171    MY   H3R 6722     0.018859      1.00800 ; qtot 0.037
  6723   hL   171    MY   H3S 6723     0.018859      1.00800 ; qtot 0.056
  6724   cD   171    MY   C12 6724    -0.164200     12.01000 ; qtot -0.108
  6725   hL   171    MY   H2R 6725     0.053944      1.00800 ; qtot -0.054
  6726   hL   171    MY   H2S 6726     0.053944      1.00800 ; qtot -0.000
  6727   hL   172    MY  H14T 6727     0.025511      1.00800 ; qtot 0.026
  6728   cD   172    MY  C114 6728    -0.111712     12.01000 ; qtot -0.086
  6729   hL   172    MY  H14R 6729     0.025511      1.00800 ; qtot -0.061
  6730   hL   172    MY  H14S 6730     0.025511      1.00800 ; qtot -0.035
  6731   cD   172    MY  C113 6731     0.017463     12.01000 ; qtot -0.018
  6732   hL   172    MY  H13R 6732     0.007531      1.00800 ; qtot -0.010
  6733   hL   172    MY  H13S 6733     0.007531      1.00800 ; qtot -0.003
  6734   cD   172    MY  C112 6734    -0.028094     12.01000 ; qtot -0.031
  6735   hL   172    MY  H12R 6735     0.017208      1.00800 ; qtot -0.014
  6736   hL   172    MY  H12S 6736     0.017208      1.00800 ; qtot 0.004
  6737   cD   172    MY  C111 6737    -0.031787     12.01000 ; qtot -0.028
  6738   hL   172    MY  H11R 6738     0.012677      1.00800 ; qtot -0.015
  6739   hL   172    MY  H11S 6739     0.012677      1.00800 ; qtot -0.003
  6740   cD   172    MY  C110 6740    -0.021025     12.01000 ; qtot -0.024
  6741   hL   172    MY  H10R 6741     0.010037      1.00800 ; qtot -0.014
  6742   hL   172    MY  H10S 6742     0.010037      1.00800 ; qtot -0.004
  6743   cD   172    MY   C19 6743    -0.014653     12.01000 ; qtot -0.018
  6744   hL   172    MY   H9R 6744     0.010172      1.00800 ; qtot -0.008
  6745   hL   172    MY   H9S 6745     0.010172      1.00800 ; qtot 0.002
  6746   cD   172    MY   C18 6746    -0.026451     12.01000 ; qtot -0.024
  6747   hL   172    MY   H8R 6747     0.011241      1.00800 ; qtot -0.013
  6748   hL   172    MY   H8S 6748     0.011241      1.00800 ; qtot -0.002
  6749   cD   172    MY   C17 6749    -0.004386     12.01000 ; qtot -0.006
  6750   hL   172    MY   H7R 6750     0.006833      1.00800 ; qtot 0.000
  6751   hL   172    MY   H7S 6751     0.006833      1.00800 ; qtot 0.007
  6752   cD   172    MY   C16 6752    -0.027812     12.01000 ; qtot -0.021
  6753   hL   172    MY   H6R 6753     0.011511      1.00800 ; qtot -0.009
  6754   hL   172    MY   H6S 6754     0.011511      1.00800 ; qtot 0.002
  6755   cD   172    MY   C15 6755    -0.016521     12.01000 ; qtot -0.014
  6756   hL   172    MY   H5R 6756     0.010573      1.00800 ; qtot -0.003
  6757   hL   172    MY   H5S 6757     0.010573      1.00800 ; qtot 0.007
  6758   cD   172    MY   C14 6758    -0.026954     12.01000 ; qtot -0.020
  6759   hL   172    MY   H4R 6759     0.020431      1.00800 ; qtot 0.001
  6760   hL   172    MY   H4S 6760     0.020431      1.00800 ; qtot 0.021
  6761   cD   172    MY   C13 6761    -0.002435     12.01000 ; qtot 0.019
  6762   hL   172    MY   H3R 6762     0.018859      1.00800 ; qtot 0.037
  6763   hL   172    MY   H3S 6763     0.018859      1.00800 ; qtot 0.056
  6764   cD   172    MY   C12 6764    -0.164200     12.01000 ; qtot -0.108
  6765   hL   172    MY   H2R 6765     0.053944      1.00800 ; qtot -0.054
  6766   hL   172    MY   H2S 6766     0.053944      1.00800 ; qtot -0.000
  6767   cC   173    PC   C11 6767     0.910403     12.01000 ; qtot 0.910
  6768   oC   173    PC   O12 6768    -0.671566     16.00000 ; qtot 0.239
  6769   oS   173    PC   O11 6769    -0.575489     16.00000 ; qtot -0.337
  6770   cA   173    PC    C1 6770     0.196939     12.01000 ; qtot -0.140
  6771   hE   173    PC    HR 6771     0.070469      1.00800 ; qtot -0.069
  6772   hE   173    PC    HS 6772     0.070469      1.00800 ; qtot 0.001
  6773   cA   173    PC    C2 6773     0.281242     12.01000 ; qtot 0.282
  6774   hE   173    PC    HX 6774     0.063253      1.00800 ; qtot 0.346
  6775   cA   173    PC    C3 6775     0.017459     12.01000 ; qtot 0.363
  6776   hE   173    PC    HA 6776     0.095591      1.00800 ; qtot 0.459
  6777   hE   173    PC    HB 6777     0.095591      1.00800 ; qtot 0.554
  6778   oT   173    PC   O31 6778    -0.509480     16.00000 ; qtot 0.045
  6779   pA   173    PC   P31 6779     1.339721     30.97000 ; qtot 1.385
  6780   oT   173    PC   O32 6780    -0.508176     16.00000 ; qtot 0.876
  6781   cA   173    PC   C31 6781     0.166801     12.01000 ; qtot 1.043
  6782   hE   173    PC   H1A 6782     0.078534      1.00800 ; qtot 1.122
  6783   hE   173    PC   H1B 6783     0.078534      1.00800 ; qtot 1.200
  6784   cA   173    PC   C32 6784    -0.170824     12.01000 ; qtot 1.029
  6785   hX   173    PC   H2A 6785     0.136415      1.00800 ; qtot 1.166
  6786   hX   173    PC   H2B 6786     0.136415      1.00800 ; qtot 1.302
  6787   nA   173    PC   N31 6787     0.245262     14.01000 ; qtot 1.548
  6788   cA   173    PC   C33 6788    -0.338973     12.01000 ; qtot 1.209
  6789   hX   173    PC   H3A 6789     0.172230      1.00800 ; qtot 1.381
  6790   hX   173    PC   H3B 6790     0.172230      1.00800 ; qtot 1.553
  6791   hX   173    PC   H3C 6791     0.172230      1.00800 ; qtot 1.725
  6792   cA   173    PC   C34 6792    -0.338973     12.01000 ; qtot 1.386
  6793   hX   173    PC   H4A 6793     0.172230      1.00800 ; qtot 1.559
  6794   hX   173    PC   H4B 6794     0.172230      1.00800 ; qtot 1.731
  6795   hX   173    PC   H4C 6795     0.172230      1.00800 ; qtot 1.903
  6796   cA   173    PC   C35 6796    -0.338973     12.01000 ; qtot 1.564
  6797   hX   173    PC   H5A 6797     0.172230      1.00800 ; qtot 1.736
  6798   hX   173    PC   H5B 6798     0.172230      1.00800 ; qtot 1.908
  6799   hX   173    PC   H5C 6799     0.172230      1.00800 ; qtot 2.081
  6800   oP   173    PC   O33 6800    -0.875812     16.00000 ; qtot 1.205
  6801   oP   173    PC   O34 6801    -0.875812     16.00000 ; qtot 0.329
  6802   oS   173    PC   O21 6802    -0.552948     16.00000 ; qtot -0.224
  6803   cC   173    PC   C21 6803     0.897613     12.01000 ; qtot 0.674
  6804   oC   173    PC   O22 6804    -0.673755     16.00000 ; qtot 0.000
  6805   hL   174    MY  H14T 6805     0.025511      1.00800 ; qtot 0.026
  6806   cD   174    MY  C114 6806    -0.111712     12.01000 ; qtot -0.086
  6807   hL   174    MY  H14R 6807     0.025511      1.00800 ; qtot -0.061
  6808   hL   174    MY  H14S 6808     0.025511      1.00800 ; qtot -0.035
  6809   cD   174    MY  C113 6809     0.017463     12.01000 ; qtot -0.018
  6810   hL   174    MY  H13R 6810     0.007531      1.00800 ; qtot -0.010
  6811   hL   174    MY  H13S 6811     0.007531      1.00800 ; qtot -0.003
  6812   cD   174    MY  C112 6812    -0.028094     12.01000 ; qtot -0.031
  6813   hL   174    MY  H12R 6813     0.017208      1.00800 ; qtot -0.014
  6814   hL   174    MY  H12S 6814     0.017208      1.00800 ; qtot 0.004
  6815   cD   174    MY  C111 6815    -0.031787     12.01000 ; qtot -0.028
  6816   hL   174    MY  H11R 6816     0.012677      1.00800 ; qtot -0.015
  6817   hL   174    MY  H11S 6817     0.012677      1.00800 ; qtot -0.003
  6818   cD   174    MY  C110 6818    -0.021025     12.01000 ; qtot -0.024
  6819   hL   174    MY  H10R 6819     0.010037      1.00800 ; qtot -0.014
  6820   hL   174    MY  H10S 6820     0.010037      1.00800 ; qtot -0.004
  6821   cD   174    MY   C19 6821    -0.014653     12.01000 ; qtot -0.018
  6822   hL   174    MY   H9R 6822     0.010172      1.00800 ; qtot -0.008
  6823   hL   174    MY   H9S 6823     0.010172      1.00800 ; qtot 0.002
  6824   cD   174    MY   C18 6824    -0.026451     12.01000 ; qtot -0.024
  6825   hL   174    MY   H8R 6825     0.011241      1.00800 ; qtot -0.013
  6826   hL   174    MY   H8S 6826     0.011241      1.00800 ; qtot -0.002
  6827   cD   174    MY   C17 6827    -0.004386     12.01000 ; qtot -0.006
  6828   hL   174    MY   H7R 6828     0.006833      1.00800 ; qtot 0.000
  6829   hL   174    MY   H7S 6829     0.006833      1.00800 ; qtot 0.007
  6830   cD   174    MY   C16 6830    -0.027812     12.01000 ; qtot -0.021
  6831   hL   174    MY   H6R 6831     0.011511      1.00800 ; qtot -0.009
  6832   hL   174    MY   H6S 6832     0.011511      1.00800 ; qtot 0.002
  6833   cD   174    MY   C15 6833    -0.016521     12.01000 ; qtot -0.014
  6834   hL   174    MY   H5R 6834     0.010573      1.00800 ; qtot -0.003
  6835   hL   174    MY   H5S 6835     0.010573      1.00800 ; qtot 0.007
  6836   cD   174    MY   C14 6836    -0.026954     12.01000 ; qtot -0.020
  6837   hL   174    MY   H4R 6837     0.020431      1.00800 ; qtot 0.001
  6838   hL   174    MY   H4S 6838     0.020431      1.00800 ; qtot 0.021
  6839   cD   174    MY   C13 6839    -0.002435     12.01000 ; qtot 0.019
  6840   hL   174    MY   H3R 6840     0.018859      1.00800 ; qtot 0.037
  6841   hL   174    MY   H3S 6841     0.018859      1.00800 ; qtot 0.056
  6842   cD   174    MY   C12 6842    -0.164200     12.01000 ; qtot -0.108
  6843   hL   174    MY   H2R 6843     0.053944      1.00800 ; qtot -0.054
  6844   hL   174    MY   H2S 6844     0.053944      1.00800 ; qtot -0.000
  6845   hL   175    MY  H14T 6845     0.025511      1.00800 ; qtot 0.026
  6846   cD   175    MY  C114 6846    -0.111712     12.01000 ; qtot -0.086
  6847   hL   175    MY  H14R 6847     0.025511      1.00800 ; qtot -0.061
  6848   hL   175    MY  H14S 6848     0.025511      1.00800 ; qtot -0.035
  6849   cD   175    MY  C113 6849     0.017463     12.01000 ; qtot -0.018
  6850   hL   175    MY  H13R 6850     0.007531      1.00800 ; qtot -0.010
  6851   hL   175    MY  H13S 6851     0.007531      1.00800 ; qtot -0.003
  6852   cD   175    MY  C112 6852    -0.028094     12.01000 ; qtot -0.031
  6853   hL   175    MY  H12R 6853     0.017208      1.00800 ; qtot -0.014
  6854   hL   175    MY  H12S 6854     0.017208      1.00800 ; qtot 0.004
  6855   cD   175    MY  C111 6855    -0.031787     12.01000 ; qtot -0.028
  6856   hL   175    MY  H11R 6856     0.012677      1.00800 ; qtot -0.015
  6857   hL   175    MY  H11S 6857     0.012677      1.00800 ; qtot -0.003
  6858   cD   175    MY  C110 6858    -0.021025     12.01000 ; qtot -0.024
  6859   hL   175    MY  H10R 6859     0.010037      1.00800 ; qtot -0.014
  6860   hL   175    MY  H10S 6860     0.010037      1.00800 ; qtot -0.004
  6861   cD   175    MY   C19 6861    -0.014653     12.01000 ; qtot -0.018
  6862   hL   175    MY   H9R 6862     0.010172      1.00800 ; qtot -0.008
  6863   hL   175    MY   H9S 6863     0.010172      1.00800 ; qtot 0.002
  6864   cD   175    MY   C18 6864    -0.026451     12.01000 ; qtot -0.024
  6865   hL   175    MY   H8R 6865     0.011241      1.00800 ; qtot -0.013
  6866   hL   175    MY   H8S 6866     0.011241      1.00800 ; qtot -0.002
  6867   cD   175    MY   C17 6867    -0.004386     12.01000 ; qtot -0.006
  6868   hL   175    MY   H7R 6868     0.006833      1.00800 ; qtot 0.000
  6869   hL   175    MY   H7S 6869     0.006833      1.00800 ; qtot 0.007
  6870   cD   175    MY   C16 6870    -0.027812     12.01000 ; qtot -0.021
  6871   hL   175    MY   H6R 6871     0.011511      1.00800 ; qtot -0.009
  6872   hL   175    MY   H6S 6872     0.011511      1.00800 ; qtot 0.002
  6873   cD   175    MY   C15 6873    -0.016521     12.01000 ; qtot -0.014
  6874   hL   175    MY   H5R 6874     0.010573      1.00800 ; qtot -0.003
  6875   hL   175    MY   H5S 6875     0.010573      1.00800 ; qtot 0.007
  6876   cD   175    MY   C14 6876    -0.026954     12.01000 ; qtot -0.020
  6877   hL   175    MY   H4R 6877     0.020431      1.00800 ; qtot 0.001
  6878   hL   175    MY   H4S 6878     0.020431      1.00800 ; qtot 0.021
  6879   cD   175    MY   C13 6879    -0.002435     12.01000 ; qtot 0.019
  6880   hL   175    MY   H3R 6880     0.018859      1.00800 ; qtot 0.037
  6881   hL   175    MY   H3S 6881     0.018859      1.00800 ; qtot 0.056
  6882   cD   175    MY   C12 6882    -0.164200     12.01000 ; qtot -0.108
  6883   hL   175    MY   H2R 6883     0.053944      1.00800 ; qtot -0.054
  6884   hL   175    MY   H2S 6884     0.053944      1.00800 ; qtot -0.000
  6885   cC   176    PC   C11 6885     0.910403     12.01000 ; qtot 0.910
  6886   oC   176    PC   O12 6886    -0.671566     16.00000 ; qtot 0.239
  6887   oS   176    PC   O11 6887    -0.575489     16.00000 ; qtot -0.337
  6888   cA   176    PC    C1 6888     0.196939     12.01000 ; qtot -0.140
  6889   hE   176    PC    HR 6889     0.070469      1.00800 ; qtot -0.069
  6890   hE   176    PC    HS 6890     0.070469      1.00800 ; qtot 0.001
  6891   cA   176    PC    C2 6891     0.281242     12.01000 ; qtot 0.282
  6892   hE   176    PC    HX 6892     0.063253      1.00800 ; qtot 0.346
  6893   cA   176    PC    C3 6893     0.017459     12.01000 ; qtot 0.363
  6894   hE   176    PC    HA 6894     0.095591      1.00800 ; qtot 0.459
  6895   hE   176    PC    HB 6895     0.095591      1.00800 ; qtot 0.554
  6896   oT   176    PC   O31 6896    -0.509480     16.00000 ; qtot 0.045
  6897   pA   176    PC   P31 6897     1.339721     30.97000 ; qtot 1.385
  6898   oT   176    PC   O32 6898    -0.508176     16.00000 ; qtot 0.876
  6899   cA   176    PC   C31 6899     0.166801     12.01000 ; qtot 1.043
  6900   hE   176    PC   H1A 6900     0.078534      1.00800 ; qtot 1.122
  6901   hE   176    PC   H1B 6901     0.078534      1.00800 ; qtot 1.200
  6902   cA   176    PC   C32 6902    -0.170824     12.01000 ; qtot 1.029
  6903   hX   176    PC   H2A 6903     0.136415      1.00800 ; qtot 1.166
  6904   hX   176    PC   H2B 6904     0.136415      1.00800 ; qtot 1.302
  6905   nA   176    PC   N31 6905     0.245262     14.01000 ; qtot 1.548
  6906   cA   176    PC   C33 6906    -0.338973     12.01000 ; qtot 1.209
  6907   hX   176    PC   H3A 6907     0.172230      1.00800 ; qtot 1.381
  6908   hX   176    PC   H3B 6908     0.172230      1.00800 ; qtot 1.553
  6909   hX   176    PC   H3C 6909     0.172230      1.00800 ; qtot 1.725
  6910   cA   176    PC   C34 6910    -0.338973     12.01000 ; qtot 1.386
  6911   hX   176    PC   H4A 6911     0.172230      1.00800 ; qtot 1.559
  6912   hX   176    PC   H4B 6912     0.172230      1.00800 ; qtot 1.731
  6913   hX   176    PC   H4C 6913     0.172230      1.00800 ; qtot 1.903
  6914   cA   176    PC   C35 6914    -0.338973     12.01000 ; qtot 1.564
  6915   hX   176    PC   H5A 6915     0.172230      1.00800 ; qtot 1.736
  6916   hX   176    PC   H5B 6916     0.172230      1.00800 ; qtot 1.908
  6917   hX   176    PC   H5C 6917     0.172230      1.00800 ; qtot 2.081
  6918   oP   176    PC   O33 6918    -0.875812     16.00000 ; qtot 1.205
  6919   oP   176    PC   O34 6919    -0.875812     16.00000 ; qtot 0.329
  6920   oS   176    PC   O21 6920    -0.552948     16.00000 ; qtot -0.224
  6921   cC   176    PC   C21 6921     0.897613     12.01000 ; qtot 0.674
  6922   oC   176    PC   O22 6922    -0.673755     16.00000 ; qtot 0.000
  6923   hL   177    MY  H14T 6923     0.025511      1.00800 ; qtot 0.026
  6924   cD   177    MY  C114 6924    -0.111712     12.01000 ; qtot -0.086
  6925   hL   177    MY  H14R 6925     0.025511      1.00800 ; qtot -0.061
  6926   hL   177    MY  H14S 6926     0.025511      1.00800 ; qtot -0.035
  6927   cD   177    MY  C113 6927     0.017463     12.01000 ; qtot -0.018
  6928   hL   177    MY  H13R 6928     0.007531      1.00800 ; qtot -0.010
  6929   hL   177    MY  H13S 6929     0.007531      1.00800 ; qtot -0.003
  6930   cD   177    MY  C112 6930    -0.028094     12.01000 ; qtot -0.031
  6931   hL   177    MY  H12R 6931     0.017208      1.00800 ; qtot -0.014
  6932   hL   177    MY  H12S 6932     0.017208      1.00800 ; qtot 0.004
  6933   cD   177    MY  C111 6933    -0.031787     12.01000 ; qtot -0.028
  6934   hL   177    MY  H11R 6934     0.012677      1.00800 ; qtot -0.015
  6935   hL   177    MY  H11S 6935     0.012677      1.00800 ; qtot -0.003
  6936   cD   177    MY  C110 6936    -0.021025     12.01000 ; qtot -0.024
  6937   hL   177    MY  H10R 6937     0.010037      1.00800 ; qtot -0.014
  6938   hL   177    MY  H10S 6938     0.010037      1.00800 ; qtot -0.004
  6939   cD   177    MY   C19 6939    -0.014653     12.01000 ; qtot -0.018
  6940   hL   177    MY   H9R 6940     0.010172      1.00800 ; qtot -0.008
  6941   hL   177    MY   H9S 6941     0.010172      1.00800 ; qtot 0.002
  6942   cD   177    MY   C18 6942    -0.026451     12.01000 ; qtot -0.024
  6943   hL   177    MY   H8R 6943     0.011241      1.00800 ; qtot -0.013
  6944   hL   177    MY   H8S 6944     0.011241      1.00800 ; qtot -0.002
  6945   cD   177    MY   C17 6945    -0.004386     12.01000 ; qtot -0.006
  6946   hL   177    MY   H7R 6946     0.006833      1.00800 ; qtot 0.000
  6947   hL   177    MY   H7S 6947     0.006833      1.00800 ; qtot 0.007
  6948   cD   177    MY   C16 6948    -0.027812     12.01000 ; qtot -0.021
  6949   hL   177    MY   H6R 6949     0.011511      1.00800 ; qtot -0.009
  6950   hL   177    MY   H6S 6950     0.011511      1.00800 ; qtot 0.002
  6951   cD   177    MY   C15 6951    -0.016521     12.01000 ; qtot -0.014
  6952   hL   177    MY   H5R 6952     0.010573      1.00800 ; qtot -0.003
  6953   hL   177    MY   H5S 6953     0.010573      1.00800 ; qtot 0.007
  6954   cD   177    MY   C14 6954    -0.026954     12.01000 ; qtot -0.020
  6955   hL   177    MY   H4R 6955     0.020431      1.00800 ; qtot 0.001
  6956   hL   177    MY   H4S 6956     0.020431      1.00800 ; qtot 0.021
  6957   cD   177    MY   C13 6957    -0.002435     12.01000 ; qtot 0.019
  6958   hL   177    MY   H3R 6958     0.018859      1.00800 ; qtot 0.037
  6959   hL   177    MY   H3S 6959     0.018859      1.00800 ; qtot 0.056
  6960   cD   177    MY   C12 6960    -0.164200     12.01000 ; qtot -0.108
  6961   hL   177    MY   H2R 6961     0.053944      1.00800 ; qtot -0.054
  6962   hL   177    MY   H2S 6962     0.053944      1.00800 ; qtot -0.000
  6963   hL   178    MY  H14T 6963     0.025511      1.00800 ; qtot 0.026
  6964   cD   178    MY  C114 6964    -0.111712     12.01000 ; qtot -0.086
  6965   hL   178    MY  H14R 6965     0.025511      1.00800 ; qtot -0.061
  6966   hL   178    MY  H14S 6966     0.025511      1.00800 ; qtot -0.035
  6967   cD   178    MY  C113 6967     0.017463     12.01000 ; qtot -0.018
  6968   hL   178    MY  H13R 6968     0.007531      1.00800 ; qtot -0.010
  6969   hL   178    MY  H13S 6969     0.007531      1.00800 ; qtot -0.003
  6970   cD   178    MY  C112 6970    -0.028094     12.01000 ; qtot -0.031
  6971   hL   178    MY  H12R 6971     0.017208      1.00800 ; qtot -0.014
  6972   hL   178    MY  H12S 6972     0.017208      1.00800 ; qtot 0.004
  6973   cD   178    MY  C111 6973    -0.031787     12.01000 ; qtot -0.028
  6974   hL   178    MY  H11R 6974     0.012677      1.00800 ; qtot -0.015
  6975   hL   178    MY  H11S 6975     0.012677      1.00800 ; qtot -0.003
  6976   cD   178    MY  C110 6976    -0.021025     12.01000 ; qtot -0.024
  6977   hL   178    MY  H10R 6977     0.010037      1.00800 ; qtot -0.014
  6978   hL   178    MY  H10S 6978     0.010037      1.00800 ; qtot -0.004
  6979   cD   178    MY   C19 6979    -0.014653     12.01000 ; qtot -0.018
  6980   hL   178    MY   H9R 6980     0.010172      1.00800 ; qtot -0.008
  6981   hL   178    MY   H9S 6981     0.010172      1.00800 ; qtot 0.002
  6982   cD   178    MY   C18 6982    -0.026451     12.01000 ; qtot -0.024
  6983   hL   178    MY   H8R 6983     0.011241      1.00800 ; qtot -0.013
  6984   hL   178    MY   H8S 6984     0.011241      1.00800 ; qtot -0.002
  6985   cD   178    MY   C17 6985    -0.004386     12.01000 ; qtot -0.006
  6986   hL   178    MY   H7R 6986     0.006833      1.00800 ; qtot 0.000
  6987   hL   178    MY   H7S 6987     0.006833      1.00800 ; qtot 0.007
  6988   cD   178    MY   C16 6988    -0.027812     12.01000 ; qtot -0.021
  6989   hL   178    MY   H6R 6989     0.011511      1.00800 ; qtot -0.009
  6990   hL   178    MY   H6S 6990     0.011511      1.00800 ; qtot 0.002
  6991   cD   178    MY   C15 6991    -0.016521     12.01000 ; qtot -0.014
  6992   hL   178    MY   H5R 6992     0.010573      1.00800 ; qtot -0.003
  6993   hL   178    MY   H5S 6993     0.010573      1.00800 ; qtot 0.007
  6994   cD   178    MY   C14 6994    -0.026954     12.01000 ; qtot -0.020
  6995   hL   178    MY   H4R 6995     0.020431      1.00800 ; qtot 0.001
  6996   hL   178    MY   H4S 6996     0.020431      1.00800 ; qtot 0.021
  6997   cD   178    MY   C13 6997    -0.002435     12.01000 ; qtot 0.019
  6998   hL   178    MY   H3R 6998     0.018859      1.00800 ; qtot 0.037
  6999   hL   178    MY   H3S 6999     0.018859      1.00800 ; qtot 0.056
  7000   cD   178    MY   C12 7000    -0.164200     12.01000 ; qtot -0.108
  7001   hL   178    MY   H2R 7001     0.053944      1.00800 ; qtot -0.054
  7002   hL   178    MY   H2S 7002     0.053944      1.00800 ; qtot -0.000
  7003   cC   179    PC   C11 7003     0.910403     12.01000 ; qtot 0.910
  7004   oC   179    PC   O12 7004    -0.671566     16.00000 ; qtot 0.239
  7005   oS   179    PC   O11 7005    -0.575489     16.00000 ; qtot -0.337
  7006   cA   179    PC    C1 7006     0.196939     12.01000 ; qtot -0.140
  7007   hE   179    PC    HR 7007     0.070469      1.00800 ; qtot -0.069
  7008   hE   179    PC    HS 7008     0.070469      1.00800 ; qtot 0.001
  7009   cA   179    PC    C2 7009     0.281242     12.01000 ; qtot 0.282
  7010   hE   179    PC    HX 7010     0.063253      1.00800 ; qtot 0.346
  7011   cA   179    PC    C3 7011     0.017459     12.01000 ; qtot 0.363
  7012   hE   179    PC    HA 7012     0.095591      1.00800 ; qtot 0.459
  7013   hE   179    PC    HB 7013     0.095591      1.00800 ; qtot 0.554
  7014   oT   179    PC   O31 7014    -0.509480     16.00000 ; qtot 0.045
  7015   pA   179    PC   P31 7015     1.339721     30.97000 ; qtot 1.385
  7016   oT   179    PC   O32 7016    -0.508176     16.00000 ; qtot 0.876
  7017   cA   179    PC   C31 7017     0.166801     12.01000 ; qtot 1.043
  7018   hE   179    PC   H1A 7018     0.078534      1.00800 ; qtot 1.122
  7019   hE   179    PC   H1B 7019     0.078534      1.00800 ; qtot 1.200
  7020   cA   179    PC   C32 7020    -0.170824     12.01000 ; qtot 1.029
  7021   hX   179    PC   H2A 7021     0.136415      1.00800 ; qtot 1.166
  7022   hX   179    PC   H2B 7022     0.136415      1.00800 ; qtot 1.302
  7023   nA   179    PC   N31 7023     0.245262     14.01000 ; qtot 1.548
  7024   cA   179    PC   C33 7024    -0.338973     12.01000 ; qtot 1.209
  7025   hX   179    PC   H3A 7025     0.172230      1.00800 ; qtot 1.381
  7026   hX   179    PC   H3B 7026     0.172230      1.00800 ; qtot 1.553
  7027   hX   179    PC   H3C 7027     0.172230      1.00800 ; qtot 1.725
  7028   cA   179    PC   C34 7028    -0.338973     12.01000 ; qtot 1.386
  7029   hX   179    PC   H4A 7029     0.172230      1.00800 ; qtot 1.559
  7030   hX   179    PC   H4B 7030     0.172230      1.00800 ; qtot 1.731
  7031   hX   179    PC   H4C 7031     0.172230      1.00800 ; qtot 1.903
  7032   cA   179    PC   C35 7032    -0.338973     12.01000 ; qtot 1.564
  7033   hX   179    PC   H5A 7033     0.172230      1.00800 ; qtot 1.736
  7034   hX   179    PC   H5B 7034     0.172230      1.00800 ; qtot 1.908
  7035   hX   179    PC   H5C 7035     0.172230      1.00800 ; qtot 2.081
  7036   oP   179    PC   O33 7036    -0.875812     16.00000 ; qtot 1.205
  7037   oP   179    PC   O34 7037    -0.875812     16.00000 ; qtot 0.329
  7038   oS   179    PC   O21 7038    -0.552948     16.00000 ; qtot -0.224
  7039   cC   179    PC   C21 7039     0.897613     12.01000 ; qtot 0.674
  7040   oC   179    PC   O22 7040    -0.673755     16.00000 ; qtot 0.000
  7041   hL   180    MY  H14T 7041     0.025511      1.00800 ; qtot 0.026
  7042   cD   180    MY  C114 7042    -0.111712     12.01000 ; qtot -0.086
  7043   hL   180    MY  H14R 7043     0.025511      1.00800 ; qtot -0.061
  7044   hL   180    MY  H14S 7044     0.025511      1.00800 ; qtot -0.035
  7045   cD   180    MY  C113 7045     0.017463     12.01000 ; qtot -0.018
  7046   hL   180    MY  H13R 7046     0.007531      1.00800 ; qtot -0.010
  7047   hL   180    MY  H13S 7047     0.007531      1.00800 ; qtot -0.003
  7048   cD   180    MY  C112 7048    -0.028094     12.01000 ; qtot -0.031
  7049   hL   180    MY  H12R 7049     0.017208      1.00800 ; qtot -0.014
  7050   hL   180    MY  H12S 7050     0.017208      1.00800 ; qtot 0.004
  7051   cD   180    MY  C111 7051    -0.031787     12.01000 ; qtot -0.028
  7052   hL   180    MY  H11R 7052     0.012677      1.00800 ; qtot -0.015
  7053   hL   180    MY  H11S 7053     0.012677      1.00800 ; qtot -0.003
  7054   cD   180    MY  C110 7054    -0.021025     12.01000 ; qtot -0.024
  7055   hL   180    MY  H10R 7055     0.010037      1.00800 ; qtot -0.014
  7056   hL   180    MY  H10S 7056     0.010037      1.00800 ; qtot -0.004
  7057   cD   180    MY   C19 7057    -0.014653     12.01000 ; qtot -0.018
  7058   hL   180    MY   H9R 7058     0.010172      1.00800 ; qtot -0.008
  7059   hL   180    MY   H9S 7059     0.010172      1.00800 ; qtot 0.002
  7060   cD   180    MY   C18 7060    -0.026451     12.01000 ; qtot -0.024
  7061   hL   180    MY   H8R 7061     0.011241      1.00800 ; qtot -0.013
  7062   hL   180    MY   H8S 7062     0.011241      1.00800 ; qtot -0.002
  7063   cD   180    MY   C17 7063    -0.004386     12.01000 ; qtot -0.006
  7064   hL   180    MY   H7R 7064     0.006833      1.00800 ; qtot 0.000
  7065   hL   180    MY   H7S 7065     0.006833      1.00800 ; qtot 0.007
  7066   cD   180    MY   C16 7066    -0.027812     12.01000 ; qtot -0.021
  7067   hL   180    MY   H6R 7067     0.011511      1.00800 ; qtot -0.009
  7068   hL   180    MY   H6S 7068     0.011511      1.00800 ; qtot 0.002
  7069   cD   180    MY   C15 7069    -0.016521     12.01000 ; qtot -0.014
  7070   hL   180    MY   H5R 7070     0.010573      1.00800 ; qtot -0.003
  7071   hL   180    MY   H5S 7071     0.010573      1.00800 ; qtot 0.007
  7072   cD   180    MY   C14 7072    -0.026954     12.01000 ; qtot -0.020
  7073   hL   180    MY   H4R 7073     0.020431      1.00800 ; qtot 0.001
  7074   hL   180    MY   H4S 7074     0.020431      1.00800 ; qtot 0.021
  7075   cD   180    MY   C13 7075    -0.002435     12.01000 ; qtot 0.019
  7076   hL   180    MY   H3R 7076     0.018859      1.00800 ; qtot 0.037
  7077   hL   180    MY   H3S 7077     0.018859      1.00800 ; qtot 0.056
  7078   cD   180    MY   C12 7078    -0.164200     12.01000 ; qtot -0.108
  7079   hL   180    MY   H2R 7079     0.053944      1.00800 ; qtot -0.054
  7080   hL   180    MY   H2S 7080     0.053944      1.00800 ; qtot -0.000
  7081   hL   181    MY  H14T 7081     0.025511      1.00800 ; qtot 0.026
  7082   cD   181    MY  C114 7082    -0.111712     12.01000 ; qtot -0.086
  7083   hL   181    MY  H14R 7083     0.025511      1.00800 ; qtot -0.061
  7084   hL   181    MY  H14S 7084     0.025511      1.00800 ; qtot -0.035
  7085   cD   181    MY  C113 7085     0.017463     12.01000 ; qtot -0.018
  7086   hL   181    MY  H13R 7086     0.007531      1.00800 ; qtot -0.010
  7087   hL   181    MY  H13S 7087     0.007531      1.00800 ; qtot -0.003
  7088   cD   181    MY  C112 7088    -0.028094     12.01000 ; qtot -0.031
  7089   hL   181    MY  H12R 7089     0.017208      1.00800 ; qtot -0.014
  7090   hL   181    MY  H12S 7090     0.017208      1.00800 ; qtot 0.004
  7091   cD   181    MY  C111 7091    -0.031787     12.01000 ; qtot -0.028
  7092   hL   181    MY  H11R 7092     0.012677      1.00800 ; qtot -0.015
  7093   hL   181    MY  H11S 7093     0.012677      1.00800 ; qtot -0.003
  7094   cD   181    MY  C110 7094    -0.021025     12.01000 ; qtot -0.024
  7095   hL   181    MY  H10R 7095     0.010037      1.00800 ; qtot -0.014
  7096   hL   181    MY  H10S 7096     0.010037      1.00800 ; qtot -0.004
  7097   cD   181    MY   C19 7097    -0.014653     12.01000 ; qtot -0.018
  7098   hL   181    MY   H9R 7098     0.010172      1.00800 ; qtot -0.008
  7099   hL   181    MY   H9S 7099     0.010172      1.00800 ; qtot 0.002
  7100   cD   181    MY   C18 7100    -0.026451     12.01000 ; qtot -0.024
  7101   hL   181    MY   H8R 7101     0.011241      1.00800 ; qtot -0.013
  7102   hL   181    MY   H8S 7102     0.011241      1.00800 ; qtot -0.002
  7103   cD   181    MY   C17 7103    -0.004386     12.01000 ; qtot -0.006
  7104   hL   181    MY   H7R 7104     0.006833      1.00800 ; qtot 0.000
  7105   hL   181    MY   H7S 7105     0.006833      1.00800 ; qtot 0.007
  7106   cD   181    MY   C16 7106    -0.027812     12.01000 ; qtot -0.021
  7107   hL   181    MY   H6R 7107     0.011511      1.00800 ; qtot -0.009
  7108   hL   181    MY   H6S 7108     0.011511      1.00800 ; qtot 0.002
  7109   cD   181    MY   C15 7109    -0.016521     12.01000 ; qtot -0.014
  7110   hL   181    MY   H5R 7110     0.010573      1.00800 ; qtot -0.003
  7111   hL   181    MY   H5S 7111     0.010573      1.00800 ; qtot 0.007
  7112   cD   181    MY   C14 7112    -0.026954     12.01000 ; qtot -0.020
  7113   hL   181    MY   H4R 7113     0.020431      1.00800 ; qtot 0.001
  7114   hL   181    MY   H4S 7114     0.020431      1.00800 ; qtot 0.021
  7115   cD   181    MY   C13 7115    -0.002435     12.01000 ; qtot 0.019
  7116   hL   181    MY   H3R 7116     0.018859      1.00800 ; qtot 0.037
  7117   hL   181    MY   H3S 7117     0.018859      1.00800 ; qtot 0.056
  7118   cD   181    MY   C12 7118    -0.164200     12.01000 ; qtot -0.108
  7119   hL   181    MY   H2R 7119     0.053944      1.00800 ; qtot -0.054
  7120   hL   181    MY   H2S 7120     0.053944      1.00800 ; qtot -0.000
  7121   cC   182    PC   C11 7121     0.910403     12.01000 ; qtot 0.910
  7122   oC   182    PC   O12 7122    -0.671566     16.00000 ; qtot 0.239
  7123   oS   182    PC   O11 7123    -0.575489     16.00000 ; qtot -0.337
  7124   cA   182    PC    C1 7124     0.196939     12.01000 ; qtot -0.140
  7125   hE   182    PC    HR 7125     0.070469      1.00800 ; qtot -0.069
  7126   hE   182    PC    HS 7126     0.070469      1.00800 ; qtot 0.001
  7127   cA   182    PC    C2 7127     0.281242     12.01000 ; qtot 0.282
  7128   hE   182    PC    HX 7128     0.063253      1.00800 ; qtot 0.346
  7129   cA   182    PC    C3 7129     0.017459     12.01000 ; qtot 0.363
  7130   hE   182    PC    HA 7130     0.095591      1.00800 ; qtot 0.459
  7131   hE   182    PC    HB 7131     0.095591      1.00800 ; qtot 0.554
  7132   oT   182    PC   O31 7132    -0.509480     16.00000 ; qtot 0.045
  7133   pA   182    PC   P31 7133     1.339721     30.97000 ; qtot 1.385
  7134   oT   182    PC   O32 7134    -0.508176     16.00000 ; qtot 0.876
  7135   cA   182    PC   C31 7135     0.166801     12.01000 ; qtot 1.043
  7136   hE   182    PC   H1A 7136     0.078534      1.00800 ; qtot 1.122
  7137   hE   182    PC   H1B 7137     0.078534      1.00800 ; qtot 1.200
  7138   cA   182    PC   C32 7138    -0.170824     12.01000 ; qtot 1.029
  7139   hX   182    PC   H2A 7139     0.136415      1.00800 ; qtot 1.166
  7140   hX   182    PC   H2B 7140     0.136415      1.00800 ; qtot 1.302
  7141   nA   182    PC   N31 7141     0.245262     14.01000 ; qtot 1.548
  7142   cA   182    PC   C33 7142    -0.338973     12.01000 ; qtot 1.209
  7143   hX   182    PC   H3A 7143     0.172230      1.00800 ; qtot 1.381
  7144   hX   182    PC   H3B 7144     0.172230      1.00800 ; qtot 1.553
  7145   hX   182    PC   H3C 7145     0.172230      1.00800 ; qtot 1.725
  7146   cA   182    PC   C34 7146    -0.338973     12.01000 ; qtot 1.386
  7147   hX   182    PC   H4A 7147     0.172230      1.00800 ; qtot 1.559
  7148   hX   182    PC   H4B 7148     0.172230      1.00800 ; qtot 1.731
  7149   hX   182    PC   H4C 7149     0.172230      1.00800 ; qtot 1.903
  7150   cA   182    PC   C35 7150    -0.338973     12.01000 ; qtot 1.564
  7151   hX   182    PC   H5A 7151     0.172230      1.00800 ; qtot 1.736
  7152   hX   182    PC   H5B 7152     0.172230      1.00800 ; qtot 1.908
  7153   hX   182    PC   H5C 7153     0.172230      1.00800 ; qtot 2.081
  7154   oP   182    PC   O33 7154    -0.875812     16.00000 ; qtot 1.205
  7155   oP   182    PC   O34 7155    -0.875812     16.00000 ; qtot 0.329
  7156   oS   182    PC   O21 7156    -0.552948     16.00000 ; qtot -0.224
  7157   cC   182    PC   C21 7157     0.897613     12.01000 ; qtot 0.674
  7158   oC   182    PC   O22 7158    -0.673755     16.00000 ; qtot 0.000
  7159   hL   183    MY  H14T 7159     0.025511      1.00800 ; qtot 0.026
  7160   cD   183    MY  C114 7160    -0.111712     12.01000 ; qtot -0.086
  7161   hL   183    MY  H14R 7161     0.025511      1.00800 ; qtot -0.061
  7162   hL   183    MY  H14S 7162     0.025511      1.00800 ; qtot -0.035
  7163   cD   183    MY  C113 7163     0.017463     12.01000 ; qtot -0.018
  7164   hL   183    MY  H13R 7164     0.007531      1.00800 ; qtot -0.010
  7165   hL   183    MY  H13S 7165     0.007531      1.00800 ; qtot -0.003
  7166   cD   183    MY  C112 7166    -0.028094     12.01000 ; qtot -0.031
  7167   hL   183    MY  H12R 7167     0.017208      1.00800 ; qtot -0.014
  7168   hL   183    MY  H12S 7168     0.017208      1.00800 ; qtot 0.004
  7169   cD   183    MY  C111 7169    -0.031787     12.01000 ; qtot -0.028
  7170   hL   183    MY  H11R 7170     0.012677      1.00800 ; qtot -0.015
  7171   hL   183    MY  H11S 7171     0.012677      1.00800 ; qtot -0.003
  7172   cD   183    MY  C110 7172    -0.021025     12.01000 ; qtot -0.024
  7173   hL   183    MY  H10R 7173     0.010037      1.00800 ; qtot -0.014
  7174   hL   183    MY  H10S 7174     0.010037      1.00800 ; qtot -0.004
  7175   cD   183    MY   C19 7175    -0.014653     12.01000 ; qtot -0.018
  7176   hL   183    MY   H9R 7176     0.010172      1.00800 ; qtot -0.008
  7177   hL   183    MY   H9S 7177     0.010172      1.00800 ; qtot 0.002
  7178   cD   183    MY   C18 7178    -0.026451     12.01000 ; qtot -0.024
  7179   hL   183    MY   H8R 7179     0.011241      1.00800 ; qtot -0.013
  7180   hL   183    MY   H8S 7180     0.011241      1.00800 ; qtot -0.002
  7181   cD   183    MY   C17 7181    -0.004386     12.01000 ; qtot -0.006
  7182   hL   183    MY   H7R 7182     0.006833      1.00800 ; qtot 0.000
  7183   hL   183    MY   H7S 7183     0.006833      1.00800 ; qtot 0.007
  7184   cD   183    MY   C16 7184    -0.027812     12.01000 ; qtot -0.021
  7185   hL   183    MY   H6R 7185     0.011511      1.00800 ; qtot -0.009
  7186   hL   183    MY   H6S 7186     0.011511      1.00800 ; qtot 0.002
  7187   cD   183    MY   C15 7187    -0.016521     12.01000 ; qtot -0.014
  7188   hL   183    MY   H5R 7188     0.010573      1.00800 ; qtot -0.003
  7189   hL   183    MY   H5S 7189     0.010573      1.00800 ; qtot 0.007
  7190   cD   183    MY   C14 7190    -0.026954     12.01000 ; qtot -0.020
  7191   hL   183    MY   H4R 7191     0.020431      1.00800 ; qtot 0.001
  7192   hL   183    MY   H4S 7192     0.020431      1.00800 ; qtot 0.021
  7193   cD   183    MY   C13 7193    -0.002435     12.01000 ; qtot 0.019
  7194   hL   183    MY   H3R 7194     0.018859      1.00800 ; qtot 0.037
  7195   hL   183    MY   H3S 7195     0.018859      1.00800 ; qtot 0.056
  7196   cD   183    MY   C12 7196    -0.164200     12.01000 ; qtot -0.108
  7197   hL   183    MY   H2R 7197     0.053944      1.00800 ; qtot -0.054
  7198   hL   183    MY   H2S 7198     0.053944      1.00800 ; qtot -0.000
  7199   hL   184    MY  H14T 7199     0.025511      1.00800 ; qtot 0.026
  7200   cD   184    MY  C114 7200    -0.111712     12.01000 ; qtot -0.086
  7201   hL   184    MY  H14R 7201     0.025511      1.00800 ; qtot -0.061
  7202   hL   184    MY  H14S 7202     0.025511      1.00800 ; qtot -0.035
  7203   cD   184    MY  C113 7203     0.017463     12.01000 ; qtot -0.018
  7204   hL   184    MY  H13R 7204     0.007531      1.00800 ; qtot -0.010
  7205   hL   184    MY  H13S 7205     0.007531      1.00800 ; qtot -0.003
  7206   cD   184    MY  C112 7206    -0.028094     12.01000 ; qtot -0.031
  7207   hL   184    MY  H12R 7207     0.017208      1.00800 ; qtot -0.014
  7208   hL   184    MY  H12S 7208     0.017208      1.00800 ; qtot 0.004
  7209   cD   184    MY  C111 7209    -0.031787     12.01000 ; qtot -0.028
  7210   hL   184    MY  H11R 7210     0.012677      1.00800 ; qtot -0.015
  7211   hL   184    MY  H11S 7211     0.012677      1.00800 ; qtot -0.003
  7212   cD   184    MY  C110 7212    -0.021025     12.01000 ; qtot -0.024
  7213   hL   184    MY  H10R 7213     0.010037      1.00800 ; qtot -0.014
  7214   hL   184    MY  H10S 7214     0.010037      1.00800 ; qtot -0.004
  7215   cD   184    MY   C19 7215    -0.014653     12.01000 ; qtot -0.018
  7216   hL   184    MY   H9R 7216     0.010172      1.00800 ; qtot -0.008
  7217   hL   184    MY   H9S 7217     0.010172      1.00800 ; qtot 0.002
  7218   cD   184    MY   C18 7218    -0.026451     12.01000 ; qtot -0.024
  7219   hL   184    MY   H8R 7219     0.011241      1.00800 ; qtot -0.013
  7220   hL   184    MY   H8S 7220     0.011241      1.00800 ; qtot -0.002
  7221   cD   184    MY   C17 7221    -0.004386     12.01000 ; qtot -0.006
  7222   hL   184    MY   H7R 7222     0.006833      1.00800 ; qtot 0.000
  7223   hL   184    MY   H7S 7223     0.006833      1.00800 ; qtot 0.007
  7224   cD   184    MY   C16 7224    -0.027812     12.01000 ; qtot -0.021
  7225   hL   184    MY   H6R 7225     0.011511      1.00800 ; qtot -0.009
  7226   hL   184    MY   H6S 7226     0.011511      1.00800 ; qtot 0.002
  7227   cD   184    MY   C15 7227    -0.016521     12.01000 ; qtot -0.014
  7228   hL   184    MY   H5R 7228     0.010573      1.00800 ; qtot -0.003
  7229   hL   184    MY   H5S 7229     0.010573      1.00800 ; qtot 0.007
  7230   cD   184    MY   C14 7230    -0.026954     12.01000 ; qtot -0.020
  7231   hL   184    MY   H4R 7231     0.020431      1.00800 ; qtot 0.001
  7232   hL   184    MY   H4S 7232     0.020431      1.00800 ; qtot 0.021
  7233   cD   184    MY   C13 7233    -0.002435     12.01000 ; qtot 0.019
  7234   hL   184    MY   H3R 7234     0.018859      1.00800 ; qtot 0.037
  7235   hL   184    MY   H3S 7235     0.018859      1.00800 ; qtot 0.056
  7236   cD   184    MY   C12 7236    -0.164200     12.01000 ; qtot -0.108
  7237   hL   184    MY   H2R 7237     0.053944      1.00800 ; qtot -0.054
  7238   hL   184    MY   H2S 7238     0.053944      1.00800 ; qtot -0.000
  7239   cC   185    PC   C11 7239     0.910403     12.01000 ; qtot 0.910
  7240   oC   185    PC   O12 7240    -0.671566     16.00000 ; qtot 0.239
  7241   oS   185    PC   O11 7241    -0.575489     16.00000 ; qtot -0.337
  7242   cA   185    PC    C1 7242     0.196939     12.01000 ; qtot -0.140
  7243   hE   185    PC    HR 7243     0.070469      1.00800 ; qtot -0.069
  7244   hE   185    PC    HS 7244     0.070469      1.00800 ; qtot 0.001
  7245   cA   185    PC    C2 7245     0.281242     12.01000 ; qtot 0.282
  7246   hE   185    PC    HX 7246     0.063253      1.00800 ; qtot 0.346
  7247   cA   185    PC    C3 7247     0.017459     12.01000 ; qtot 0.363
  7248   hE   185    PC    HA 7248     0.095591      1.00800 ; qtot 0.459
  7249   hE   185    PC    HB 7249     0.095591      1.00800 ; qtot 0.554
  7250   oT   185    PC   O31 7250    -0.509480     16.00000 ; qtot 0.045
  7251   pA   185    PC   P31 7251     1.339721     30.97000 ; qtot 1.385
  7252   oT   185    PC   O32 7252    -0.508176     16.00000 ; qtot 0.876
  7253   cA   185    PC   C31 7253     0.166801     12.01000 ; qtot 1.043
  7254   hE   185    PC   H1A 7254     0.078534      1.00800 ; qtot 1.122
  7255   hE   185    PC   H1B 7255     0.078534      1.00800 ; qtot 1.200
  7256   cA   185    PC   C32 7256    -0.170824     12.01000 ; qtot 1.029
  7257   hX   185    PC   H2A 7257     0.136415      1.00800 ; qtot 1.166
  7258   hX   185    PC   H2B 7258     0.136415      1.00800 ; qtot 1.302
  7259   nA   185    PC   N31 7259     0.245262     14.01000 ; qtot 1.548
  7260   cA   185    PC   C33 7260    -0.338973     12.01000 ; qtot 1.209
  7261   hX   185    PC   H3A 7261     0.172230      1.00800 ; qtot 1.381
  7262   hX   185    PC   H3B 7262     0.172230      1.00800 ; qtot 1.553
  7263   hX   185    PC   H3C 7263     0.172230      1.00800 ; qtot 1.725
  7264   cA   185    PC   C34 7264    -0.338973     12.01000 ; qtot 1.386
  7265   hX   185    PC   H4A 7265     0.172230      1.00800 ; qtot 1.559
  7266   hX   185    PC   H4B 7266     0.172230      1.00800 ; qtot 1.731
  7267   hX   185    PC   H4C 7267     0.172230      1.00800 ; qtot 1.903
  7268   cA   185    PC   C35 7268    -0.338973     12.01000 ; qtot 1.564
  7269   hX   185    PC   H5A 7269     0.172230      1.00800 ; qtot 1.736
  7270   hX   185    PC   H5B 7270     0.172230      1.00800 ; qtot 1.908
  7271   hX   185    PC   H5C 7271     0.172230      1.00800 ; qtot 2.081
  7272   oP   185    PC   O33 7272    -0.875812     16.00000 ; qtot 1.205
  7273   oP   185    PC   O34 7273    -0.875812     16.00000 ; qtot 0.329
  7274   oS   185    PC   O21 7274    -0.552948     16.00000 ; qtot -0.224
  7275   cC   185    PC   C21 7275     0.897613     12.01000 ; qtot 0.674
  7276   oC   185    PC   O22 7276    -0.673755     16.00000 ; qtot 0.000
  7277   hL   186    MY  H14T 7277     0.025511      1.00800 ; qtot 0.026
  7278   cD   186    MY  C114 7278    -0.111712     12.01000 ; qtot -0.086
  7279   hL   186    MY  H14R 7279     0.025511      1.00800 ; qtot -0.061
  7280   hL   186    MY  H14S 7280     0.025511      1.00800 ; qtot -0.035
  7281   cD   186    MY  C113 7281     0.017463     12.01000 ; qtot -0.018
  7282   hL   186    MY  H13R 7282     0.007531      1.00800 ; qtot -0.010
  7283   hL   186    MY  H13S 7283     0.007531      1.00800 ; qtot -0.003
  7284   cD   186    MY  C112 7284    -0.028094     12.01000 ; qtot -0.031
  7285   hL   186    MY  H12R 7285     0.017208      1.00800 ; qtot -0.014
  7286   hL   186    MY  H12S 7286     0.017208      1.00800 ; qtot 0.004
  7287   cD   186    MY  C111 7287    -0.031787     12.01000 ; qtot -0.028
  7288   hL   186    MY  H11R 7288     0.012677      1.00800 ; qtot -0.015
  7289   hL   186    MY  H11S 7289     0.012677      1.00800 ; qtot -0.003
  7290   cD   186    MY  C110 7290    -0.021025     12.01000 ; qtot -0.024
  7291   hL   186    MY  H10R 7291     0.010037      1.00800 ; qtot -0.014
  7292   hL   186    MY  H10S 7292     0.010037      1.00800 ; qtot -0.004
  7293   cD   186    MY   C19 7293    -0.014653     12.01000 ; qtot -0.018
  7294   hL   186    MY   H9R 7294     0.010172      1.00800 ; qtot -0.008
  7295   hL   186    MY   H9S 7295     0.010172      1.00800 ; qtot 0.002
  7296   cD   186    MY   C18 7296    -0.026451     12.01000 ; qtot -0.024
  7297   hL   186    MY   H8R 7297     0.011241      1.00800 ; qtot -0.013
  7298   hL   186    MY   H8S 7298     0.011241      1.00800 ; qtot -0.002
  7299   cD   186    MY   C17 7299    -0.004386     12.01000 ; qtot -0.006
  7300   hL   186    MY   H7R 7300     0.006833      1.00800 ; qtot 0.000
  7301   hL   186    MY   H7S 7301     0.006833      1.00800 ; qtot 0.007
  7302   cD   186    MY   C16 7302    -0.027812     12.01000 ; qtot -0.021
  7303   hL   186    MY   H6R 7303     0.011511      1.00800 ; qtot -0.009
  7304   hL   186    MY   H6S 7304     0.011511      1.00800 ; qtot 0.002
  7305   cD   186    MY   C15 7305    -0.016521     12.01000 ; qtot -0.014
  7306   hL   186    MY   H5R 7306     0.010573      1.00800 ; qtot -0.003
  7307   hL   186    MY   H5S 7307     0.010573      1.00800 ; qtot 0.007
  7308   cD   186    MY   C14 7308    -0.026954     12.01000 ; qtot -0.020
  7309   hL   186    MY   H4R 7309     0.020431      1.00800 ; qtot 0.001
  7310   hL   186    MY   H4S 7310     0.020431      1.00800 ; qtot 0.021
  7311   cD   186    MY   C13 7311    -0.002435     12.01000 ; qtot 0.019
  7312   hL   186    MY   H3R 7312     0.018859      1.00800 ; qtot 0.037
  7313   hL   186    MY   H3S 7313     0.018859      1.00800 ; qtot 0.056
  7314   cD   186    MY   C12 7314    -0.164200     12.01000 ; qtot -0.108
  7315   hL   186    MY   H2R 7315     0.053944      1.00800 ; qtot -0.054
  7316   hL   186    MY   H2S 7316     0.053944      1.00800 ; qtot -0.000
  7317   hL   187    MY  H14T 7317     0.025511      1.00800 ; qtot 0.026
  7318   cD   187    MY  C114 7318    -0.111712     12.01000 ; qtot -0.086
  7319   hL   187    MY  H14R 7319     0.025511      1.00800 ; qtot -0.061
  7320   hL   187    MY  H14S 7320     0.025511      1.00800 ; qtot -0.035
  7321   cD   187    MY  C113 7321     0.017463     12.01000 ; qtot -0.018
  7322   hL   187    MY  H13R 7322     0.007531      1.00800 ; qtot -0.010
  7323   hL   187    MY  H13S 7323     0.007531      1.00800 ; qtot -0.003
  7324   cD   187    MY  C112 7324    -0.028094     12.01000 ; qtot -0.031
  7325   hL   187    MY  H12R 7325     0.017208      1.00800 ; qtot -0.014
  7326   hL   187    MY  H12S 7326     0.017208      1.00800 ; qtot 0.004
  7327   cD   187    MY  C111 7327    -0.031787     12.01000 ; qtot -0.028
  7328   hL   187    MY  H11R 7328     0.012677      1.00800 ; qtot -0.015
  7329   hL   187    MY  H11S 7329     0.012677      1.00800 ; qtot -0.003
  7330   cD   187    MY  C110 7330    -0.021025     12.01000 ; qtot -0.024
  7331   hL   187    MY  H10R 7331     0.010037      1.00800 ; qtot -0.014
  7332   hL   187    MY  H10S 7332     0.010037      1.00800 ; qtot -0.004
  7333   cD   187    MY   C19 7333    -0.014653     12.01000 ; qtot -0.018
  7334   hL   187    MY   H9R 7334     0.010172      1.00800 ; qtot -0.008
  7335   hL   187    MY   H9S 7335     0.010172      1.00800 ; qtot 0.002
  7336   cD   187    MY   C18 7336    -0.026451     12.01000 ; qtot -0.024
  7337   hL   187    MY   H8R 7337     0.011241      1.00800 ; qtot -0.013
  7338   hL   187    MY   H8S 7338     0.011241      1.00800 ; qtot -0.002
  7339   cD   187    MY   C17 7339    -0.004386     12.01000 ; qtot -0.006
  7340   hL   187    MY   H7R 7340     0.006833      1.00800 ; qtot 0.000
  7341   hL   187    MY   H7S 7341     0.006833      1.00800 ; qtot 0.007
  7342   cD   187    MY   C16 7342    -0.027812     12.01000 ; qtot -0.021
  7343   hL   187    MY   H6R 7343     0.011511      1.00800 ; qtot -0.009
  7344   hL   187    MY   H6S 7344     0.011511      1.00800 ; qtot 0.002
  7345   cD   187    MY   C15 7345    -0.016521     12.01000 ; qtot -0.014
  7346   hL   187    MY   H5R 7346     0.010573      1.00800 ; qtot -0.003
  7347   hL   187    MY   H5S 7347     0.010573      1.00800 ; qtot 0.007
  7348   cD   187    MY   C14 7348    -0.026954     12.01000 ; qtot -0.020
  7349   hL   187    MY   H4R 7349     0.020431      1.00800 ; qtot 0.001
  7350   hL   187    MY   H4S 7350     0.020431      1.00800 ; qtot 0.021
  7351   cD   187    MY   C13 7351    -0.002435     12.01000 ; qtot 0.019
  7352   hL   187    MY   H3R 7352     0.018859      1.00800 ; qtot 0.037
  7353   hL   187    MY   H3S 7353     0.018859      1.00800 ; qtot 0.056
  7354   cD   187    MY   C12 7354    -0.164200     12.01000 ; qtot -0.108
  7355   hL   187    MY   H2R 7355     0.053944      1.00800 ; qtot -0.054
  7356   hL   187    MY   H2S 7356     0.053944      1.00800 ; qtot -0.000
  7357   cC   188    PC   C11 7357     0.910403     12.01000 ; qtot 0.910
  7358   oC   188    PC   O12 7358    -0.671566     16.00000 ; qtot 0.239
  7359   oS   188    PC   O11 7359    -0.575489     16.00000 ; qtot -0.337
  7360   cA   188    PC    C1 7360     0.196939     12.01000 ; qtot -0.140
  7361   hE   188    PC    HR 7361     0.070469      1.00800 ; qtot -0.069
  7362   hE   188    PC    HS 7362     0.070469      1.00800 ; qtot 0.001
  7363   cA   188    PC    C2 7363     0.281242     12.01000 ; qtot 0.282
  7364   hE   188    PC    HX 7364     0.063253      1.00800 ; qtot 0.346
  7365   cA   188    PC    C3 7365     0.017459     12.01000 ; qtot 0.363
  7366   hE   188    PC    HA 7366     0.095591      1.00800 ; qtot 0.459
  7367   hE   188    PC    HB 7367     0.095591      1.00800 ; qtot 0.554
  7368   oT   188    PC   O31 7368    -0.509480     16.00000 ; qtot 0.045
  7369   pA   188    PC   P31 7369     1.339721     30.97000 ; qtot 1.385
  7370   oT   188    PC   O32 7370    -0.508176     16.00000 ; qtot 0.876
  7371   cA   188    PC   C31 7371     0.166801     12.01000 ; qtot 1.043
  7372   hE   188    PC   H1A 7372     0.078534      1.00800 ; qtot 1.122
  7373   hE   188    PC   H1B 7373     0.078534      1.00800 ; qtot 1.200
  7374   cA   188    PC   C32 7374    -0.170824     12.01000 ; qtot 1.029
  7375   hX   188    PC   H2A 7375     0.136415      1.00800 ; qtot 1.166
  7376   hX   188    PC   H2B 7376     0.136415      1.00800 ; qtot 1.302
  7377   nA   188    PC   N31 7377     0.245262     14.01000 ; qtot 1.548
  7378   cA   188    PC   C33 7378    -0.338973     12.01000 ; qtot 1.209
  7379   hX   188    PC   H3A 7379     0.172230      1.00800 ; qtot 1.381
  7380   hX   188    PC   H3B 7380     0.172230      1.00800 ; qtot 1.553
  7381   hX   188    PC   H3C 7381     0.172230      1.00800 ; qtot 1.725
  7382   cA   188    PC   C34 7382    -0.338973     12.01000 ; qtot 1.386
  7383   hX   188    PC   H4A 7383     0.172230      1.00800 ; qtot 1.559
  7384   hX   188    PC   H4B 7384     0.172230      1.00800 ; qtot 1.731
  7385   hX   188    PC   H4C 7385     0.172230      1.00800 ; qtot 1.903
  7386   cA   188    PC   C35 7386    -0.338973     12.01000 ; qtot 1.564
  7387   hX   188    PC   H5A 7387     0.172230      1.00800 ; qtot 1.736
  7388   hX   188    PC   H5B 7388     0.172230      1.00800 ; qtot 1.908
  7389   hX   188    PC   H5C 7389     0.172230      1.00800 ; qtot 2.081
  7390   oP   188    PC   O33 7390    -0.875812     16.00000 ; qtot 1.205
  7391   oP   188    PC   O34 7391    -0.875812     16.00000 ; qtot 0.329
  7392   oS   188    PC   O21 7392    -0.552948     16.00000 ; qtot -0.224
  7393   cC   188    PC   C21 7393     0.897613     12.01000 ; qtot 0.674
  7394   oC   188    PC   O22 7394    -0.673755     16.00000 ; qtot 0.000
  7395   hL   189    MY  H14T 7395     0.025511      1.00800 ; qtot 0.026
  7396   cD   189    MY  C114 7396    -0.111712     12.01000 ; qtot -0.086
  7397   hL   189    MY  H14R 7397     0.025511      1.00800 ; qtot -0.061
  7398   hL   189    MY  H14S 7398     0.025511      1.00800 ; qtot -0.035
  7399   cD   189    MY  C113 7399     0.017463     12.01000 ; qtot -0.018
  7400   hL   189    MY  H13R 7400     0.007531      1.00800 ; qtot -0.010
  7401   hL   189    MY  H13S 7401     0.007531      1.00800 ; qtot -0.003
  7402   cD   189    MY  C112 7402    -0.028094     12.01000 ; qtot -0.031
  7403   hL   189    MY  H12R 7403     0.017208      1.00800 ; qtot -0.014
  7404   hL   189    MY  H12S 7404     0.017208      1.00800 ; qtot 0.004
  7405   cD   189    MY  C111 7405    -0.031787     12.01000 ; qtot -0.028
  7406   hL   189    MY  H11R 7406     0.012677      1.00800 ; qtot -0.015
  7407   hL   189    MY  H11S 7407     0.012677      1.00800 ; qtot -0.003
  7408   cD   189    MY  C110 7408    -0.021025     12.01000 ; qtot -0.024
  7409   hL   189    MY  H10R 7409     0.010037      1.00800 ; qtot -0.014
  7410   hL   189    MY  H10S 7410     0.010037      1.00800 ; qtot -0.004
  7411   cD   189    MY   C19 7411    -0.014653     12.01000 ; qtot -0.018
  7412   hL   189    MY   H9R 7412     0.010172      1.00800 ; qtot -0.008
  7413   hL   189    MY   H9S 7413     0.010172      1.00800 ; qtot 0.002
  7414   cD   189    MY   C18 7414    -0.026451     12.01000 ; qtot -0.024
  7415   hL   189    MY   H8R 7415     0.011241      1.00800 ; qtot -0.013
  7416   hL   189    MY   H8S 7416     0.011241      1.00800 ; qtot -0.002
  7417   cD   189    MY   C17 7417    -0.004386     12.01000 ; qtot -0.006
  7418   hL   189    MY   H7R 7418     0.006833      1.00800 ; qtot 0.000
  7419   hL   189    MY   H7S 7419     0.006833      1.00800 ; qtot 0.007
  7420   cD   189    MY   C16 7420    -0.027812     12.01000 ; qtot -0.021
  7421   hL   189    MY   H6R 7421     0.011511      1.00800 ; qtot -0.009
  7422   hL   189    MY   H6S 7422     0.011511      1.00800 ; qtot 0.002
  7423   cD   189    MY   C15 7423    -0.016521     12.01000 ; qtot -0.014
  7424   hL   189    MY   H5R 7424     0.010573      1.00800 ; qtot -0.003
  7425   hL   189    MY   H5S 7425     0.010573      1.00800 ; qtot 0.007
  7426   cD   189    MY   C14 7426    -0.026954     12.01000 ; qtot -0.020
  7427   hL   189    MY   H4R 7427     0.020431      1.00800 ; qtot 0.001
  7428   hL   189    MY   H4S 7428     0.020431      1.00800 ; qtot 0.021
  7429   cD   189    MY   C13 7429    -0.002435     12.01000 ; qtot 0.019
  7430   hL   189    MY   H3R 7430     0.018859      1.00800 ; qtot 0.037
  7431   hL   189    MY   H3S 7431     0.018859      1.00800 ; qtot 0.056
  7432   cD   189    MY   C12 7432    -0.164200     12.01000 ; qtot -0.108
  7433   hL   189    MY   H2R 7433     0.053944      1.00800 ; qtot -0.054
  7434   hL   189    MY   H2S 7434     0.053944      1.00800 ; qtot -0.000
  7435   hL   190    MY  H14T 7435     0.025511      1.00800 ; qtot 0.026
  7436   cD   190    MY  C114 7436    -0.111712     12.01000 ; qtot -0.086
  7437   hL   190    MY  H14R 7437     0.025511      1.00800 ; qtot -0.061
  7438   hL   190    MY  H14S 7438     0.025511      1.00800 ; qtot -0.035
  7439   cD   190    MY  C113 7439     0.017463     12.01000 ; qtot -0.018
  7440   hL   190    MY  H13R 7440     0.007531      1.00800 ; qtot -0.010
  7441   hL   190    MY  H13S 7441     0.007531      1.00800 ; qtot -0.003
  7442   cD   190    MY  C112 7442    -0.028094     12.01000 ; qtot -0.031
  7443   hL   190    MY  H12R 7443     0.017208      1.00800 ; qtot -0.014
  7444   hL   190    MY  H12S 7444     0.017208      1.00800 ; qtot 0.004
  7445   cD   190    MY  C111 7445    -0.031787     12.01000 ; qtot -0.028
  7446   hL   190    MY  H11R 7446     0.012677      1.00800 ; qtot -0.015
  7447   hL   190    MY  H11S 7447     0.012677      1.00800 ; qtot -0.003
  7448   cD   190    MY  C110 7448    -0.021025     12.01000 ; qtot -0.024
  7449   hL   190    MY  H10R 7449     0.010037      1.00800 ; qtot -0.014
  7450   hL   190    MY  H10S 7450     0.010037      1.00800 ; qtot -0.004
  7451   cD   190    MY   C19 7451    -0.014653     12.01000 ; qtot -0.018
  7452   hL   190    MY   H9R 7452     0.010172      1.00800 ; qtot -0.008
  7453   hL   190    MY   H9S 7453     0.010172      1.00800 ; qtot 0.002
  7454   cD   190    MY   C18 7454    -0.026451     12.01000 ; qtot -0.024
  7455   hL   190    MY   H8R 7455     0.011241      1.00800 ; qtot -0.013
  7456   hL   190    MY   H8S 7456     0.011241      1.00800 ; qtot -0.002
  7457   cD   190    MY   C17 7457    -0.004386     12.01000 ; qtot -0.006
  7458   hL   190    MY   H7R 7458     0.006833      1.00800 ; qtot 0.000
  7459   hL   190    MY   H7S 7459     0.006833      1.00800 ; qtot 0.007
  7460   cD   190    MY   C16 7460    -0.027812     12.01000 ; qtot -0.021
  7461   hL   190    MY   H6R 7461     0.011511      1.00800 ; qtot -0.009
  7462   hL   190    MY   H6S 7462     0.011511      1.00800 ; qtot 0.002
  7463   cD   190    MY   C15 7463    -0.016521     12.01000 ; qtot -0.014
  7464   hL   190    MY   H5R 7464     0.010573      1.00800 ; qtot -0.003
  7465   hL   190    MY   H5S 7465     0.010573      1.00800 ; qtot 0.007
  7466   cD   190    MY   C14 7466    -0.026954     12.01000 ; qtot -0.020
  7467   hL   190    MY   H4R 7467     0.020431      1.00800 ; qtot 0.001
  7468   hL   190    MY   H4S 7468     0.020431      1.00800 ; qtot 0.021
  7469   cD   190    MY   C13 7469    -0.002435     12.01000 ; qtot 0.019
  7470   hL   190    MY   H3R 7470     0.018859      1.00800 ; qtot 0.037
  7471   hL   190    MY   H3S 7471     0.018859      1.00800 ; qtot 0.056
  7472   cD   190    MY   C12 7472    -0.164200     12.01000 ; qtot -0.108
  7473   hL   190    MY   H2R 7473     0.053944      1.00800 ; qtot -0.054
  7474   hL   190    MY   H2S 7474     0.053944      1.00800 ; qtot -0.000
  7475   cC   191    PC   C11 7475     0.910403     12.01000 ; qtot 0.910
  7476   oC   191    PC   O12 7476    -0.671566     16.00000 ; qtot 0.239
  7477   oS   191    PC   O11 7477    -0.575489     16.00000 ; qtot -0.337
  7478   cA   191    PC    C1 7478     0.196939     12.01000 ; qtot -0.140
  7479   hE   191    PC    HR 7479     0.070469      1.00800 ; qtot -0.069
  7480   hE   191    PC    HS 7480     0.070469      1.00800 ; qtot 0.001
  7481   cA   191    PC    C2 7481     0.281242     12.01000 ; qtot 0.282
  7482   hE   191    PC    HX 7482     0.063253      1.00800 ; qtot 0.346
  7483   cA   191    PC    C3 7483     0.017459     12.01000 ; qtot 0.363
  7484   hE   191    PC    HA 7484     0.095591      1.00800 ; qtot 0.459
  7485   hE   191    PC    HB 7485     0.095591      1.00800 ; qtot 0.554
  7486   oT   191    PC   O31 7486    -0.509480     16.00000 ; qtot 0.045
  7487   pA   191    PC   P31 7487     1.339721     30.97000 ; qtot 1.385
  7488   oT   191    PC   O32 7488    -0.508176     16.00000 ; qtot 0.876
  7489   cA   191    PC   C31 7489     0.166801     12.01000 ; qtot 1.043
  7490   hE   191    PC   H1A 7490     0.078534      1.00800 ; qtot 1.122
  7491   hE   191    PC   H1B 7491     0.078534      1.00800 ; qtot 1.200
  7492   cA   191    PC   C32 7492    -0.170824     12.01000 ; qtot 1.029
  7493   hX   191    PC   H2A 7493     0.136415      1.00800 ; qtot 1.166
  7494   hX   191    PC   H2B 7494     0.136415      1.00800 ; qtot 1.302
  7495   nA   191    PC   N31 7495     0.245262     14.01000 ; qtot 1.548
  7496   cA   191    PC   C33 7496    -0.338973     12.01000 ; qtot 1.209
  7497   hX   191    PC   H3A 7497     0.172230      1.00800 ; qtot 1.381
  7498   hX   191    PC   H3B 7498     0.172230      1.00800 ; qtot 1.553
  7499   hX   191    PC   H3C 7499     0.172230      1.00800 ; qtot 1.725
  7500   cA   191    PC   C34 7500    -0.338973     12.01000 ; qtot 1.386
  7501   hX   191    PC   H4A 7501     0.172230      1.00800 ; qtot 1.559
  7502   hX   191    PC   H4B 7502     0.172230      1.00800 ; qtot 1.731
  7503   hX   191    PC   H4C 7503     0.172230      1.00800 ; qtot 1.903
  7504   cA   191    PC   C35 7504    -0.338973     12.01000 ; qtot 1.564
  7505   hX   191    PC   H5A 7505     0.172230      1.00800 ; qtot 1.736
  7506   hX   191    PC   H5B 7506     0.172230      1.00800 ; qtot 1.908
  7507   hX   191    PC   H5C 7507     0.172230      1.00800 ; qtot 2.081
  7508   oP   191    PC   O33 7508    -0.875812     16.00000 ; qtot 1.205
  7509   oP   191    PC   O34 7509    -0.875812     16.00000 ; qtot 0.329
  7510   oS   191    PC   O21 7510    -0.552948     16.00000 ; qtot -0.224
  7511   cC   191    PC   C21 7511     0.897613     12.01000 ; qtot 0.674
  7512   oC   191    PC   O22 7512    -0.673755     16.00000 ; qtot 0.000
  7513   hL   192    MY  H14T 7513     0.025511      1.00800 ; qtot 0.026
  7514   cD   192    MY  C114 7514    -0.111712     12.01000 ; qtot -0.086
  7515   hL   192    MY  H14R 7515     0.025511      1.00800 ; qtot -0.061
  7516   hL   192    MY  H14S 7516     0.025511      1.00800 ; qtot -0.035
  7517   cD   192    MY  C113 7517     0.017463     12.01000 ; qtot -0.018
  7518   hL   192    MY  H13R 7518     0.007531      1.00800 ; qtot -0.010
  7519   hL   192    MY  H13S 7519     0.007531      1.00800 ; qtot -0.003
  7520   cD   192    MY  C112 7520    -0.028094     12.01000 ; qtot -0.031
  7521   hL   192    MY  H12R 7521     0.017208      1.00800 ; qtot -0.014
  7522   hL   192    MY  H12S 7522     0.017208      1.00800 ; qtot 0.004
  7523   cD   192    MY  C111 7523    -0.031787     12.01000 ; qtot -0.028
  7524   hL   192    MY  H11R 7524     0.012677      1.00800 ; qtot -0.015
  7525   hL   192    MY  H11S 7525     0.012677      1.00800 ; qtot -0.003
  7526   cD   192    MY  C110 7526    -0.021025     12.01000 ; qtot -0.024
  7527   hL   192    MY  H10R 7527     0.010037      1.00800 ; qtot -0.014
  7528   hL   192    MY  H10S 7528     0.010037      1.00800 ; qtot -0.004
  7529   cD   192    MY   C19 7529    -0.014653     12.01000 ; qtot -0.018
  7530   hL   192    MY   H9R 7530     0.010172      1.00800 ; qtot -0.008
  7531   hL   192    MY   H9S 7531     0.010172      1.00800 ; qtot 0.002
  7532   cD   192    MY   C18 7532    -0.026451     12.01000 ; qtot -0.024
  7533   hL   192    MY   H8R 7533     0.011241      1.00800 ; qtot -0.013
  7534   hL   192    MY   H8S 7534     0.011241      1.00800 ; qtot -0.002
  7535   cD   192    MY   C17 7535    -0.004386     12.01000 ; qtot -0.006
  7536   hL   192    MY   H7R 7536     0.006833      1.00800 ; qtot 0.000
  7537   hL   192    MY   H7S 7537     0.006833      1.00800 ; qtot 0.007
  7538   cD   192    MY   C16 7538    -0.027812     12.01000 ; qtot -0.021
  7539   hL   192    MY   H6R 7539     0.011511      1.00800 ; qtot -0.009
  7540   hL   192    MY   H6S 7540     0.011511      1.00800 ; qtot 0.002
  7541   cD   192    MY   C15 7541    -0.016521     12.01000 ; qtot -0.014
  7542   hL   192    MY   H5R 7542     0.010573      1.00800 ; qtot -0.003
  7543   hL   192    MY   H5S 7543     0.010573      1.00800 ; qtot 0.007
  7544   cD   192    MY   C14 7544    -0.026954     12.01000 ; qtot -0.020
  7545   hL   192    MY   H4R 7545     0.020431      1.00800 ; qtot 0.001
  7546   hL   192    MY   H4S 7546     0.020431      1.00800 ; qtot 0.021
  7547   cD   192    MY   C13 7547    -0.002435     12.01000 ; qtot 0.019
  7548   hL   192    MY   H3R 7548     0.018859      1.00800 ; qtot 0.037
  7549   hL   192    MY   H3S 7549     0.018859      1.00800 ; qtot 0.056
  7550   cD   192    MY   C12 7550    -0.164200     12.01000 ; qtot -0.108
  7551   hL   192    MY   H2R 7551     0.053944      1.00800 ; qtot -0.054
  7552   hL   192    MY   H2S 7552     0.053944      1.00800 ; qtot -0.000
  7553   hL   193    MY  H14T 7553     0.025511      1.00800 ; qtot 0.026
  7554   cD   193    MY  C114 7554    -0.111712     12.01000 ; qtot -0.086
  7555   hL   193    MY  H14R 7555     0.025511      1.00800 ; qtot -0.061
  7556   hL   193    MY  H14S 7556     0.025511      1.00800 ; qtot -0.035
  7557   cD   193    MY  C113 7557     0.017463     12.01000 ; qtot -0.018
  7558   hL   193    MY  H13R 7558     0.007531      1.00800 ; qtot -0.010
  7559   hL   193    MY  H13S 7559     0.007531      1.00800 ; qtot -0.003
  7560   cD   193    MY  C112 7560    -0.028094     12.01000 ; qtot -0.031
  7561   hL   193    MY  H12R 7561     0.017208      1.00800 ; qtot -0.014
  7562   hL   193    MY  H12S 7562     0.017208      1.00800 ; qtot 0.004
  7563   cD   193    MY  C111 7563    -0.031787     12.01000 ; qtot -0.028
  7564   hL   193    MY  H11R 7564     0.012677      1.00800 ; qtot -0.015
  7565   hL   193    MY  H11S 7565     0.012677      1.00800 ; qtot -0.003
  7566   cD   193    MY  C110 7566    -0.021025     12.01000 ; qtot -0.024
  7567   hL   193    MY  H10R 7567     0.010037      1.00800 ; qtot -0.014
  7568   hL   193    MY  H10S 7568     0.010037      1.00800 ; qtot -0.004
  7569   cD   193    MY   C19 7569    -0.014653     12.01000 ; qtot -0.018
  7570   hL   193    MY   H9R 7570     0.010172      1.00800 ; qtot -0.008
  7571   hL   193    MY   H9S 7571     0.010172      1.00800 ; qtot 0.002
  7572   cD   193    MY   C18 7572    -0.026451     12.01000 ; qtot -0.024
  7573   hL   193    MY   H8R 7573     0.011241      1.00800 ; qtot -0.013
  7574   hL   193    MY   H8S 7574     0.011241      1.00800 ; qtot -0.002
  7575   cD   193    MY   C17 7575    -0.004386     12.01000 ; qtot -0.006
  7576   hL   193    MY   H7R 7576     0.006833      1.00800 ; qtot 0.000
  7577   hL   193    MY   H7S 7577     0.006833      1.00800 ; qtot 0.007
  7578   cD   193    MY   C16 7578    -0.027812     12.01000 ; qtot -0.021
  7579   hL   193    MY   H6R 7579     0.011511      1.00800 ; qtot -0.009
  7580   hL   193    MY   H6S 7580     0.011511      1.00800 ; qtot 0.002
  7581   cD   193    MY   C15 7581    -0.016521     12.01000 ; qtot -0.014
  7582   hL   193    MY   H5R 7582     0.010573      1.00800 ; qtot -0.003
  7583   hL   193    MY   H5S 7583     0.010573      1.00800 ; qtot 0.007
  7584   cD   193    MY   C14 7584    -0.026954     12.01000 ; qtot -0.020
  7585   hL   193    MY   H4R 7585     0.020431      1.00800 ; qtot 0.001
  7586   hL   193    MY   H4S 7586     0.020431      1.00800 ; qtot 0.021
  7587   cD   193    MY   C13 7587    -0.002435     12.01000 ; qtot 0.019
  7588   hL   193    MY   H3R 7588     0.018859      1.00800 ; qtot 0.037
  7589   hL   193    MY   H3S 7589     0.018859      1.00800 ; qtot 0.056
  7590   cD   193    MY   C12 7590    -0.164200     12.01000 ; qtot -0.108
  7591   hL   193    MY   H2R 7591     0.053944      1.00800 ; qtot -0.054
  7592   hL   193    MY   H2S 7592     0.053944      1.00800 ; qtot -0.000
  7593   cC   194    PC   C11 7593     0.910403     12.01000 ; qtot 0.910
  7594   oC   194    PC   O12 7594    -0.671566     16.00000 ; qtot 0.239
  7595   oS   194    PC   O11 7595    -0.575489     16.00000 ; qtot -0.337
  7596   cA   194    PC    C1 7596     0.196939     12.01000 ; qtot -0.140
  7597   hE   194    PC    HR 7597     0.070469      1.00800 ; qtot -0.069
  7598   hE   194    PC    HS 7598     0.070469      1.00800 ; qtot 0.001
  7599   cA   194    PC    C2 7599     0.281242     12.01000 ; qtot 0.282
  7600   hE   194    PC    HX 7600     0.063253      1.00800 ; qtot 0.346
  7601   cA   194    PC    C3 7601     0.017459     12.01000 ; qtot 0.363
  7602   hE   194    PC    HA 7602     0.095591      1.00800 ; qtot 0.459
  7603   hE   194    PC    HB 7603     0.095591      1.00800 ; qtot 0.554
  7604   oT   194    PC   O31 7604    -0.509480     16.00000 ; qtot 0.045
  7605   pA   194    PC   P31 7605     1.339721     30.97000 ; qtot 1.385
  7606   oT   194    PC   O32 7606    -0.508176     16.00000 ; qtot 0.876
  7607   cA   194    PC   C31 7607     0.166801     12.01000 ; qtot 1.043
  7608   hE   194    PC   H1A 7608     0.078534      1.00800 ; qtot 1.122
  7609   hE   194    PC   H1B 7609     0.078534      1.00800 ; qtot 1.200
  7610   cA   194    PC   C32 7610    -0.170824     12.01000 ; qtot 1.029
  7611   hX   194    PC   H2A 7611     0.136415      1.00800 ; qtot 1.166
  7612   hX   194    PC   H2B 7612     0.136415      1.00800 ; qtot 1.302
  7613   nA   194    PC   N31 7613     0.245262     14.01000 ; qtot 1.548
  7614   cA   194    PC   C33 7614    -0.338973     12.01000 ; qtot 1.209
  7615   hX   194    PC   H3A 7615     0.172230      1.00800 ; qtot 1.381
  7616   hX   194    PC   H3B 7616     0.172230      1.00800 ; qtot 1.553
  7617   hX   194    PC   H3C 7617     0.172230      1.00800 ; qtot 1.725
  7618   cA   194    PC   C34 7618    -0.338973     12.01000 ; qtot 1.386
  7619   hX   194    PC   H4A 7619     0.172230      1.00800 ; qtot 1.559
  7620   hX   194    PC   H4B 7620     0.172230      1.00800 ; qtot 1.731
  7621   hX   194    PC   H4C 7621     0.172230      1.00800 ; qtot 1.903
  7622   cA   194    PC   C35 7622    -0.338973     12.01000 ; qtot 1.564
  7623   hX   194    PC   H5A 7623     0.172230      1.00800 ; qtot 1.736
  7624   hX   194    PC   H5B 7624     0.172230      1.00800 ; qtot 1.908
  7625   hX   194    PC   H5C 7625     0.172230      1.00800 ; qtot 2.081
  7626   oP   194    PC   O33 7626    -0.875812     16.00000 ; qtot 1.205
  7627   oP   194    PC   O34 7627    -0.875812     16.00000 ; qtot 0.329
  7628   oS   194    PC   O21 7628    -0.552948     16.00000 ; qtot -0.224
  7629   cC   194    PC   C21 7629     0.897613     12.01000 ; qtot 0.674
  7630   oC   194    PC   O22 7630    -0.673755     16.00000 ; qtot 0.000
  7631   hL   195    MY  H14T 7631     0.025511      1.00800 ; qtot 0.026
  7632   cD   195    MY  C114 7632    -0.111712     12.01000 ; qtot -0.086
  7633   hL   195    MY  H14R 7633     0.025511      1.00800 ; qtot -0.061
  7634   hL   195    MY  H14S 7634     0.025511      1.00800 ; qtot -0.035
  7635   cD   195    MY  C113 7635     0.017463     12.01000 ; qtot -0.018
  7636   hL   195    MY  H13R 7636     0.007531      1.00800 ; qtot -0.010
  7637   hL   195    MY  H13S 7637     0.007531      1.00800 ; qtot -0.003
  7638   cD   195    MY  C112 7638    -0.028094     12.01000 ; qtot -0.031
  7639   hL   195    MY  H12R 7639     0.017208      1.00800 ; qtot -0.014
  7640   hL   195    MY  H12S 7640     0.017208      1.00800 ; qtot 0.004
  7641   cD   195    MY  C111 7641    -0.031787     12.01000 ; qtot -0.028
  7642   hL   195    MY  H11R 7642     0.012677      1.00800 ; qtot -0.015
  7643   hL   195    MY  H11S 7643     0.012677      1.00800 ; qtot -0.003
  7644   cD   195    MY  C110 7644    -0.021025     12.01000 ; qtot -0.024
  7645   hL   195    MY  H10R 7645     0.010037      1.00800 ; qtot -0.014
  7646   hL   195    MY  H10S 7646     0.010037      1.00800 ; qtot -0.004
  7647   cD   195    MY   C19 7647    -0.014653     12.01000 ; qtot -0.018
  7648   hL   195    MY   H9R 7648     0.010172      1.00800 ; qtot -0.008
  7649   hL   195    MY   H9S 7649     0.010172      1.00800 ; qtot 0.002
  7650   cD   195    MY   C18 7650    -0.026451     12.01000 ; qtot -0.024
  7651   hL   195    MY   H8R 7651     0.011241      1.00800 ; qtot -0.013
  7652   hL   195    MY   H8S 7652     0.011241      1.00800 ; qtot -0.002
  7653   cD   195    MY   C17 7653    -0.004386     12.01000 ; qtot -0.006
  7654   hL   195    MY   H7R 7654     0.006833      1.00800 ; qtot 0.000
  7655   hL   195    MY   H7S 7655     0.006833      1.00800 ; qtot 0.007
  7656   cD   195    MY   C16 7656    -0.027812     12.01000 ; qtot -0.021
  7657   hL   195    MY   H6R 7657     0.011511      1.00800 ; qtot -0.009
  7658   hL   195    MY   H6S 7658     0.011511      1.00800 ; qtot 0.002
  7659   cD   195    MY   C15 7659    -0.016521     12.01000 ; qtot -0.014
  7660   hL   195    MY   H5R 7660     0.010573      1.00800 ; qtot -0.003
  7661   hL   195    MY   H5S 7661     0.010573      1.00800 ; qtot 0.007
  7662   cD   195    MY   C14 7662    -0.026954     12.01000 ; qtot -0.020
  7663   hL   195    MY   H4R 7663     0.020431      1.00800 ; qtot 0.001
  7664   hL   195    MY   H4S 7664     0.020431      1.00800 ; qtot 0.021
  7665   cD   195    MY   C13 7665    -0.002435     12.01000 ; qtot 0.019
  7666   hL   195    MY   H3R 7666     0.018859      1.00800 ; qtot 0.037
  7667   hL   195    MY   H3S 7667     0.018859      1.00800 ; qtot 0.056
  7668   cD   195    MY   C12 7668    -0.164200     12.01000 ; qtot -0.108
  7669   hL   195    MY   H2R 7669     0.053944      1.00800 ; qtot -0.054
  7670   hL   195    MY   H2S 7670     0.053944      1.00800 ; qtot -0.000
  7671   hL   196    MY  H14T 7671     0.025511      1.00800 ; qtot 0.026
  7672   cD   196    MY  C114 7672    -0.111712     12.01000 ; qtot -0.086
  7673   hL   196    MY  H14R 7673     0.025511      1.00800 ; qtot -0.061
  7674   hL   196    MY  H14S 7674     0.025511      1.00800 ; qtot -0.035
  7675   cD   196    MY  C113 7675     0.017463     12.01000 ; qtot -0.018
  7676   hL   196    MY  H13R 7676     0.007531      1.00800 ; qtot -0.010
  7677   hL   196    MY  H13S 7677     0.007531      1.00800 ; qtot -0.003
  7678   cD   196    MY  C112 7678    -0.028094     12.01000 ; qtot -0.031
  7679   hL   196    MY  H12R 7679     0.017208      1.00800 ; qtot -0.014
  7680   hL   196    MY  H12S 7680     0.017208      1.00800 ; qtot 0.004
  7681   cD   196    MY  C111 7681    -0.031787     12.01000 ; qtot -0.028
  7682   hL   196    MY  H11R 7682     0.012677      1.00800 ; qtot -0.015
  7683   hL   196    MY  H11S 7683     0.012677      1.00800 ; qtot -0.003
  7684   cD   196    MY  C110 7684    -0.021025     12.01000 ; qtot -0.024
  7685   hL   196    MY  H10R 7685     0.010037      1.00800 ; qtot -0.014
  7686   hL   196    MY  H10S 7686     0.010037      1.00800 ; qtot -0.004
  7687   cD   196    MY   C19 7687    -0.014653     12.01000 ; qtot -0.018
  7688   hL   196    MY   H9R 7688     0.010172      1.00800 ; qtot -0.008
  7689   hL   196    MY   H9S 7689     0.010172      1.00800 ; qtot 0.002
  7690   cD   196    MY   C18 7690    -0.026451     12.01000 ; qtot -0.024
  7691   hL   196    MY   H8R 7691     0.011241      1.00800 ; qtot -0.013
  7692   hL   196    MY   H8S 7692     0.011241      1.00800 ; qtot -0.002
  7693   cD   196    MY   C17 7693    -0.004386     12.01000 ; qtot -0.006
  7694   hL   196    MY   H7R 7694     0.006833      1.00800 ; qtot 0.000
  7695   hL   196    MY   H7S 7695     0.006833      1.00800 ; qtot 0.007
  7696   cD   196    MY   C16 7696    -0.027812     12.01000 ; qtot -0.021
  7697   hL   196    MY   H6R 7697     0.011511      1.00800 ; qtot -0.009
  7698   hL   196    MY   H6S 7698     0.011511      1.00800 ; qtot 0.002
  7699   cD   196    MY   C15 7699    -0.016521     12.01000 ; qtot -0.014
  7700   hL   196    MY   H5R 7700     0.010573      1.00800 ; qtot -0.003
  7701   hL   196    MY   H5S 7701     0.010573      1.00800 ; qtot 0.007
  7702   cD   196    MY   C14 7702    -0.026954     12.01000 ; qtot -0.020
  7703   hL   196    MY   H4R 7703     0.020431      1.00800 ; qtot 0.001
  7704   hL   196    MY   H4S 7704     0.020431      1.00800 ; qtot 0.021
  7705   cD   196    MY   C13 7705    -0.002435     12.01000 ; qtot 0.019
  7706   hL   196    MY   H3R 7706     0.018859      1.00800 ; qtot 0.037
  7707   hL   196    MY   H3S 7707     0.018859      1.00800 ; qtot 0.056
  7708   cD   196    MY   C12 7708    -0.164200     12.01000 ; qtot -0.108
  7709   hL   196    MY   H2R 7709     0.053944      1.00800 ; qtot -0.054
  7710   hL   196    MY   H2S 7710     0.053944      1.00800 ; qtot -0.000
  7711   cC   197    PC   C11 7711     0.910403     12.01000 ; qtot 0.910
  7712   oC   197    PC   O12 7712    -0.671566     16.00000 ; qtot 0.239
  7713   oS   197    PC   O11 7713    -0.575489     16.00000 ; qtot -0.337
  7714   cA   197    PC    C1 7714     0.196939     12.01000 ; qtot -0.140
  7715   hE   197    PC    HR 7715     0.070469      1.00800 ; qtot -0.069
  7716   hE   197    PC    HS 7716     0.070469      1.00800 ; qtot 0.001
  7717   cA   197    PC    C2 7717     0.281242     12.01000 ; qtot 0.282
  7718   hE   197    PC    HX 7718     0.063253      1.00800 ; qtot 0.346
  7719   cA   197    PC    C3 7719     0.017459     12.01000 ; qtot 0.363
  7720   hE   197    PC    HA 7720     0.095591      1.00800 ; qtot 0.459
  7721   hE   197    PC    HB 7721     0.095591      1.00800 ; qtot 0.554
  7722   oT   197    PC   O31 7722    -0.509480     16.00000 ; qtot 0.045
  7723   pA   197    PC   P31 7723     1.339721     30.97000 ; qtot 1.385
  7724   oT   197    PC   O32 7724    -0.508176     16.00000 ; qtot 0.876
  7725   cA   197    PC   C31 7725     0.166801     12.01000 ; qtot 1.043
  7726   hE   197    PC   H1A 7726     0.078534      1.00800 ; qtot 1.122
  7727   hE   197    PC   H1B 7727     0.078534      1.00800 ; qtot 1.200
  7728   cA   197    PC   C32 7728    -0.170824     12.01000 ; qtot 1.029
  7729   hX   197    PC   H2A 7729     0.136415      1.00800 ; qtot 1.166
  7730   hX   197    PC   H2B 7730     0.136415      1.00800 ; qtot 1.302
  7731   nA   197    PC   N31 7731     0.245262     14.01000 ; qtot 1.548
  7732   cA   197    PC   C33 7732    -0.338973     12.01000 ; qtot 1.209
  7733   hX   197    PC   H3A 7733     0.172230      1.00800 ; qtot 1.381
  7734   hX   197    PC   H3B 7734     0.172230      1.00800 ; qtot 1.553
  7735   hX   197    PC   H3C 7735     0.172230      1.00800 ; qtot 1.725
  7736   cA   197    PC   C34 7736    -0.338973     12.01000 ; qtot 1.386
  7737   hX   197    PC   H4A 7737     0.172230      1.00800 ; qtot 1.559
  7738   hX   197    PC   H4B 7738     0.172230      1.00800 ; qtot 1.731
  7739   hX   197    PC   H4C 7739     0.172230      1.00800 ; qtot 1.903
  7740   cA   197    PC   C35 7740    -0.338973     12.01000 ; qtot 1.564
  7741   hX   197    PC   H5A 7741     0.172230      1.00800 ; qtot 1.736
  7742   hX   197    PC   H5B 7742     0.172230      1.00800 ; qtot 1.908
  7743   hX   197    PC   H5C 7743     0.172230      1.00800 ; qtot 2.081
  7744   oP   197    PC   O33 7744    -0.875812     16.00000 ; qtot 1.205
  7745   oP   197    PC   O34 7745    -0.875812     16.00000 ; qtot 0.329
  7746   oS   197    PC   O21 7746    -0.552948     16.00000 ; qtot -0.224
  7747   cC   197    PC   C21 7747     0.897613     12.01000 ; qtot 0.674
  7748   oC   197    PC   O22 7748    -0.673755     16.00000 ; qtot 0.000
  7749   hL   198    MY  H14T 7749     0.025511      1.00800 ; qtot 0.026
  7750   cD   198    MY  C114 7750    -0.111712     12.01000 ; qtot -0.086
  7751   hL   198    MY  H14R 7751     0.025511      1.00800 ; qtot -0.061
  7752   hL   198    MY  H14S 7752     0.025511      1.00800 ; qtot -0.035
  7753   cD   198    MY  C113 7753     0.017463     12.01000 ; qtot -0.018
  7754   hL   198    MY  H13R 7754     0.007531      1.00800 ; qtot -0.010
  7755   hL   198    MY  H13S 7755     0.007531      1.00800 ; qtot -0.003
  7756   cD   198    MY  C112 7756    -0.028094     12.01000 ; qtot -0.031
  7757   hL   198    MY  H12R 7757     0.017208      1.00800 ; qtot -0.014
  7758   hL   198    MY  H12S 7758     0.017208      1.00800 ; qtot 0.004
  7759   cD   198    MY  C111 7759    -0.031787     12.01000 ; qtot -0.028
  7760   hL   198    MY  H11R 7760     0.012677      1.00800 ; qtot -0.015
  7761   hL   198    MY  H11S 7761     0.012677      1.00800 ; qtot -0.003
  7762   cD   198    MY  C110 7762    -0.021025     12.01000 ; qtot -0.024
  7763   hL   198    MY  H10R 7763     0.010037      1.00800 ; qtot -0.014
  7764   hL   198    MY  H10S 7764     0.010037      1.00800 ; qtot -0.004
  7765   cD   198    MY   C19 7765    -0.014653     12.01000 ; qtot -0.018
  7766   hL   198    MY   H9R 7766     0.010172      1.00800 ; qtot -0.008
  7767   hL   198    MY   H9S 7767     0.010172      1.00800 ; qtot 0.002
  7768   cD   198    MY   C18 7768    -0.026451     12.01000 ; qtot -0.024
  7769   hL   198    MY   H8R 7769     0.011241      1.00800 ; qtot -0.013
  7770   hL   198    MY   H8S 7770     0.011241      1.00800 ; qtot -0.002
  7771   cD   198    MY   C17 7771    -0.004386     12.01000 ; qtot -0.006
  7772   hL   198    MY   H7R 7772     0.006833      1.00800 ; qtot 0.000
  7773   hL   198    MY   H7S 7773     0.006833      1.00800 ; qtot 0.007
  7774   cD   198    MY   C16 7774    -0.027812     12.01000 ; qtot -0.021
  7775   hL   198    MY   H6R 7775     0.011511      1.00800 ; qtot -0.009
  7776   hL   198    MY   H6S 7776     0.011511      1.00800 ; qtot 0.002
  7777   cD   198    MY   C15 7777    -0.016521     12.01000 ; qtot -0.014
  7778   hL   198    MY   H5R 7778     0.010573      1.00800 ; qtot -0.003
  7779   hL   198    MY   H5S 7779     0.010573      1.00800 ; qtot 0.007
  7780   cD   198    MY   C14 7780    -0.026954     12.01000 ; qtot -0.020
  7781   hL   198    MY   H4R 7781     0.020431      1.00800 ; qtot 0.001
  7782   hL   198    MY   H4S 7782     0.020431      1.00800 ; qtot 0.021
  7783   cD   198    MY   C13 7783    -0.002435     12.01000 ; qtot 0.019
  7784   hL   198    MY   H3R 7784     0.018859      1.00800 ; qtot 0.037
  7785   hL   198    MY   H3S 7785     0.018859      1.00800 ; qtot 0.056
  7786   cD   198    MY   C12 7786    -0.164200     12.01000 ; qtot -0.108
  7787   hL   198    MY   H2R 7787     0.053944      1.00800 ; qtot -0.054
  7788   hL   198    MY   H2S 7788     0.053944      1.00800 ; qtot -0.000
  7789   hL   199    MY  H14T 7789     0.025511      1.00800 ; qtot 0.026
  7790   cD   199    MY  C114 7790    -0.111712     12.01000 ; qtot -0.086
  7791   hL   199    MY  H14R 7791     0.025511      1.00800 ; qtot -0.061
  7792   hL   199    MY  H14S 7792     0.025511      1.00800 ; qtot -0.035
  7793   cD   199    MY  C113 7793     0.017463     12.01000 ; qtot -0.018
  7794   hL   199    MY  H13R 7794     0.007531      1.00800 ; qtot -0.010
  7795   hL   199    MY  H13S 7795     0.007531      1.00800 ; qtot -0.003
  7796   cD   199    MY  C112 7796    -0.028094     12.01000 ; qtot -0.031
  7797   hL   199    MY  H12R 7797     0.017208      1.00800 ; qtot -0.014
  7798   hL   199    MY  H12S 7798     0.017208      1.00800 ; qtot 0.004
  7799   cD   199    MY  C111 7799    -0.031787     12.01000 ; qtot -0.028
  7800   hL   199    MY  H11R 7800     0.012677      1.00800 ; qtot -0.015
  7801   hL   199    MY  H11S 7801     0.012677      1.00800 ; qtot -0.003
  7802   cD   199    MY  C110 7802    -0.021025     12.01000 ; qtot -0.024
  7803   hL   199    MY  H10R 7803     0.010037      1.00800 ; qtot -0.014
  7804   hL   199    MY  H10S 7804     0.010037      1.00800 ; qtot -0.004
  7805   cD   199    MY   C19 7805    -0.014653     12.01000 ; qtot -0.018
  7806   hL   199    MY   H9R 7806     0.010172      1.00800 ; qtot -0.008
  7807   hL   199    MY   H9S 7807     0.010172      1.00800 ; qtot 0.002
  7808   cD   199    MY   C18 7808    -0.026451     12.01000 ; qtot -0.024
  7809   hL   199    MY   H8R 7809     0.011241      1.00800 ; qtot -0.013
  7810   hL   199    MY   H8S 7810     0.011241      1.00800 ; qtot -0.002
  7811   cD   199    MY   C17 7811    -0.004386     12.01000 ; qtot -0.006
  7812   hL   199    MY   H7R 7812     0.006833      1.00800 ; qtot 0.000
  7813   hL   199    MY   H7S 7813     0.006833      1.00800 ; qtot 0.007
  7814   cD   199    MY   C16 7814    -0.027812     12.01000 ; qtot -0.021
  7815   hL   199    MY   H6R 7815     0.011511      1.00800 ; qtot -0.009
  7816   hL   199    MY   H6S 7816     0.011511      1.00800 ; qtot 0.002
  7817   cD   199    MY   C15 7817    -0.016521     12.01000 ; qtot -0.014
  7818   hL   199    MY   H5R 7818     0.010573      1.00800 ; qtot -0.003
  7819   hL   199    MY   H5S 7819     0.010573      1.00800 ; qtot 0.007
  7820   cD   199    MY   C14 7820    -0.026954     12.01000 ; qtot -0.020
  7821   hL   199    MY   H4R 7821     0.020431      1.00800 ; qtot 0.001
  7822   hL   199    MY   H4S 7822     0.020431      1.00800 ; qtot 0.021
  7823   cD   199    MY   C13 7823    -0.002435     12.01000 ; qtot 0.019
  7824   hL   199    MY   H3R 7824     0.018859      1.00800 ; qtot 0.037
  7825   hL   199    MY   H3S 7825     0.018859      1.00800 ; qtot 0.056
  7826   cD   199    MY   C12 7826    -0.164200     12.01000 ; qtot -0.108
  7827   hL   199    MY   H2R 7827     0.053944      1.00800 ; qtot -0.054
  7828   hL   199    MY   H2S 7828     0.053944      1.00800 ; qtot -0.000
  7829   cC   200    PC   C11 7829     0.910403     12.01000 ; qtot 0.910
  7830   oC   200    PC   O12 7830    -0.671566     16.00000 ; qtot 0.239
  7831   oS   200    PC   O11 7831    -0.575489     16.00000 ; qtot -0.337
  7832   cA   200    PC    C1 7832     0.196939     12.01000 ; qtot -0.140
  7833   hE   200    PC    HR 7833     0.070469      1.00800 ; qtot -0.069
  7834   hE   200    PC    HS 7834     0.070469      1.00800 ; qtot 0.001
  7835   cA   200    PC    C2 7835     0.281242     12.01000 ; qtot 0.282
  7836   hE   200    PC    HX 7836     0.063253      1.00800 ; qtot 0.346
  7837   cA   200    PC    C3 7837     0.017459     12.01000 ; qtot 0.363
  7838   hE   200    PC    HA 7838     0.095591      1.00800 ; qtot 0.459
  7839   hE   200    PC    HB 7839     0.095591      1.00800 ; qtot 0.554
  7840   oT   200    PC   O31 7840    -0.509480     16.00000 ; qtot 0.045
  7841   pA   200    PC   P31 7841     1.339721     30.97000 ; qtot 1.385
  7842   oT   200    PC   O32 7842    -0.508176     16.00000 ; qtot 0.876
  7843   cA   200    PC   C31 7843     0.166801     12.01000 ; qtot 1.043
  7844   hE   200    PC   H1A 7844     0.078534      1.00800 ; qtot 1.122
  7845   hE   200    PC   H1B 7845     0.078534      1.00800 ; qtot 1.200
  7846   cA   200    PC   C32 7846    -0.170824     12.01000 ; qtot 1.029
  7847   hX   200    PC   H2A 7847     0.136415      1.00800 ; qtot 1.166
  7848   hX   200    PC   H2B 7848     0.136415      1.00800 ; qtot 1.302
  7849   nA   200    PC   N31 7849     0.245262     14.01000 ; qtot 1.548
  7850   cA   200    PC   C33 7850    -0.338973     12.01000 ; qtot 1.209
  7851   hX   200    PC   H3A 7851     0.172230      1.00800 ; qtot 1.381
  7852   hX   200    PC   H3B 7852     0.172230      1.00800 ; qtot 1.553
  7853   hX   200    PC   H3C 7853     0.172230      1.00800 ; qtot 1.725
  7854   cA   200    PC   C34 7854    -0.338973     12.01000 ; qtot 1.386
  7855   hX   200    PC   H4A 7855     0.172230      1.00800 ; qtot 1.559
  7856   hX   200    PC   H4B 7856     0.172230      1.00800 ; qtot 1.731
  7857   hX   200    PC   H4C 7857     0.172230      1.00800 ; qtot 1.903
  7858   cA   200    PC   C35 7858    -0.338973     12.01000 ; qtot 1.564
  7859   hX   200    PC   H5A 7859     0.172230      1.00800 ; qtot 1.736
  7860   hX   200    PC   H5B 7860     0.172230      1.00800 ; qtot 1.908
  7861   hX   200    PC   H5C 7861     0.172230      1.00800 ; qtot 2.081
  7862   oP   200    PC   O33 7862    -0.875812     16.00000 ; qtot 1.205
  7863   oP   200    PC   O34 7863    -0.875812     16.00000 ; qtot 0.329
  7864   oS   200    PC   O21 7864    -0.552948     16.00000 ; qtot -0.224
  7865   cC   200    PC   C21 7865     0.897613     12.01000 ; qtot 0.674
  7866   oC   200    PC   O22 7866    -0.673755     16.00000 ; qtot 0.000
  7867   hL   201    MY  H14T 7867     0.025511      1.00800 ; qtot 0.026
  7868   cD   201    MY  C114 7868    -0.111712     12.01000 ; qtot -0.086
  7869   hL   201    MY  H14R 7869     0.025511      1.00800 ; qtot -0.061
  7870   hL   201    MY  H14S 7870     0.025511      1.00800 ; qtot -0.035
  7871   cD   201    MY  C113 7871     0.017463     12.01000 ; qtot -0.018
  7872   hL   201    MY  H13R 7872     0.007531      1.00800 ; qtot -0.010
  7873   hL   201    MY  H13S 7873     0.007531      1.00800 ; qtot -0.003
  7874   cD   201    MY  C112 7874    -0.028094     12.01000 ; qtot -0.031
  7875   hL   201    MY  H12R 7875     0.017208      1.00800 ; qtot -0.014
  7876   hL   201    MY  H12S 7876     0.017208      1.00800 ; qtot 0.004
  7877   cD   201    MY  C111 7877    -0.031787     12.01000 ; qtot -0.028
  7878   hL   201    MY  H11R 7878     0.012677      1.00800 ; qtot -0.015
  7879   hL   201    MY  H11S 7879     0.012677      1.00800 ; qtot -0.003
  7880   cD   201    MY  C110 7880    -0.021025     12.01000 ; qtot -0.024
  7881   hL   201    MY  H10R 7881     0.010037      1.00800 ; qtot -0.014
  7882   hL   201    MY  H10S 7882     0.010037      1.00800 ; qtot -0.004
  7883   cD   201    MY   C19 7883    -0.014653     12.01000 ; qtot -0.018
  7884   hL   201    MY   H9R 7884     0.010172      1.00800 ; qtot -0.008
  7885   hL   201    MY   H9S 7885     0.010172      1.00800 ; qtot 0.002
  7886   cD   201    MY   C18 7886    -0.026451     12.01000 ; qtot -0.024
  7887   hL   201    MY   H8R 7887     0.011241      1.00800 ; qtot -0.013
  7888   hL   201    MY   H8S 7888     0.011241      1.00800 ; qtot -0.002
  7889   cD   201    MY   C17 7889    -0.004386     12.01000 ; qtot -0.006
  7890   hL   201    MY   H7R 7890     0.006833      1.00800 ; qtot 0.000
  7891   hL   201    MY   H7S 7891     0.006833      1.00800 ; qtot 0.007
  7892   cD   201    MY   C16 7892    -0.027812     12.01000 ; qtot -0.021
  7893   hL   201    MY   H6R 7893     0.011511      1.00800 ; qtot -0.009
  7894   hL   201    MY   H6S 7894     0.011511      1.00800 ; qtot 0.002
  7895   cD   201    MY   C15 7895    -0.016521     12.01000 ; qtot -0.014
  7896   hL   201    MY   H5R 7896     0.010573      1.00800 ; qtot -0.003
  7897   hL   201    MY   H5S 7897     0.010573      1.00800 ; qtot 0.007
  7898   cD   201    MY   C14 7898    -0.026954     12.01000 ; qtot -0.020
  7899   hL   201    MY   H4R 7899     0.020431      1.00800 ; qtot 0.001
  7900   hL   201    MY   H4S 7900     0.020431      1.00800 ; qtot 0.021
  7901   cD   201    MY   C13 7901    -0.002435     12.01000 ; qtot 0.019
  7902   hL   201    MY   H3R 7902     0.018859      1.00800 ; qtot 0.037
  7903   hL   201    MY   H3S 7903     0.018859      1.00800 ; qtot 0.056
  7904   cD   201    MY   C12 7904    -0.164200     12.01000 ; qtot -0.108
  7905   hL   201    MY   H2R 7905     0.053944      1.00800 ; qtot -0.054
  7906   hL   201    MY   H2S 7906     0.053944      1.00800 ; qtot -0.000
  7907   hL   202    MY  H14T 7907     0.025511      1.00800 ; qtot 0.026
  7908   cD   202    MY  C114 7908    -0.111712     12.01000 ; qtot -0.086
  7909   hL   202    MY  H14R 7909     0.025511      1.00800 ; qtot -0.061
  7910   hL   202    MY  H14S 7910     0.025511      1.00800 ; qtot -0.035
  7911   cD   202    MY  C113 7911     0.017463     12.01000 ; qtot -0.018
  7912   hL   202    MY  H13R 7912     0.007531      1.00800 ; qtot -0.010
  7913   hL   202    MY  H13S 7913     0.007531      1.00800 ; qtot -0.003
  7914   cD   202    MY  C112 7914    -0.028094     12.01000 ; qtot -0.031
  7915   hL   202    MY  H12R 7915     0.017208      1.00800 ; qtot -0.014
  7916   hL   202    MY  H12S 7916     0.017208      1.00800 ; qtot 0.004
  7917   cD   202    MY  C111 7917    -0.031787     12.01000 ; qtot -0.028
  7918   hL   202    MY  H11R 7918     0.012677      1.00800 ; qtot -0.015
  7919   hL   202    MY  H11S 7919     0.012677      1.00800 ; qtot -0.003
  7920   cD   202    MY  C110 7920    -0.021025     12.01000 ; qtot -0.024
  7921   hL   202    MY  H10R 7921     0.010037      1.00800 ; qtot -0.014
  7922   hL   202    MY  H10S 7922     0.010037      1.00800 ; qtot -0.004
  7923   cD   202    MY   C19 7923    -0.014653     12.01000 ; qtot -0.018
  7924   hL   202    MY   H9R 7924     0.010172      1.00800 ; qtot -0.008
  7925   hL   202    MY   H9S 7925     0.010172      1.00800 ; qtot 0.002
  7926   cD   202    MY   C18 7926    -0.026451     12.01000 ; qtot -0.024
  7927   hL   202    MY   H8R 7927     0.011241      1.00800 ; qtot -0.013
  7928   hL   202    MY   H8S 7928     0.011241      1.00800 ; qtot -0.002
  7929   cD   202    MY   C17 7929    -0.004386     12.01000 ; qtot -0.006
  7930   hL   202    MY   H7R 7930     0.006833      1.00800 ; qtot 0.000
  7931   hL   202    MY   H7S 7931     0.006833      1.00800 ; qtot 0.007
  7932   cD   202    MY   C16 7932    -0.027812     12.01000 ; qtot -0.021
  7933   hL   202    MY   H6R 7933     0.011511      1.00800 ; qtot -0.009
  7934   hL   202    MY   H6S 7934     0.011511      1.00800 ; qtot 0.002
  7935   cD   202    MY   C15 7935    -0.016521     12.01000 ; qtot -0.014
  7936   hL   202    MY   H5R 7936     0.010573      1.00800 ; qtot -0.003
  7937   hL   202    MY   H5S 7937     0.010573      1.00800 ; qtot 0.007
  7938   cD   202    MY   C14 7938    -0.026954     12.01000 ; qtot -0.020
  7939   hL   202    MY   H4R 7939     0.020431      1.00800 ; qtot 0.001
  7940   hL   202    MY   H4S 7940     0.020431      1.00800 ; qtot 0.021
  7941   cD   202    MY   C13 7941    -0.002435     12.01000 ; qtot 0.019
  7942   hL   202    MY   H3R 7942     0.018859      1.00800 ; qtot 0.037
  7943   hL   202    MY   H3S 7943     0.018859      1.00800 ; qtot 0.056
  7944   cD   202    MY   C12 7944    -0.164200     12.01000 ; qtot -0.108
  7945   hL   202    MY   H2R 7945     0.053944      1.00800 ; qtot -0.054
  7946   hL   202    MY   H2S 7946     0.053944      1.00800 ; qtot -0.000
  7947   cC   203    PC   C11 7947     0.910403     12.01000 ; qtot 0.910
  7948   oC   203    PC   O12 7948    -0.671566     16.00000 ; qtot 0.239
  7949   oS   203    PC   O11 7949    -0.575489     16.00000 ; qtot -0.337
  7950   cA   203    PC    C1 7950     0.196939     12.01000 ; qtot -0.140
  7951   hE   203    PC    HR 7951     0.070469      1.00800 ; qtot -0.069
  7952   hE   203    PC    HS 7952     0.070469      1.00800 ; qtot 0.001
  7953   cA   203    PC    C2 7953     0.281242     12.01000 ; qtot 0.282
  7954   hE   203    PC    HX 7954     0.063253      1.00800 ; qtot 0.346
  7955   cA   203    PC    C3 7955     0.017459     12.01000 ; qtot 0.363
  7956   hE   203    PC    HA 7956     0.095591      1.00800 ; qtot 0.459
  7957   hE   203    PC    HB 7957     0.095591      1.00800 ; qtot 0.554
  7958   oT   203    PC   O31 7958    -0.509480     16.00000 ; qtot 0.045
  7959   pA   203    PC   P31 7959     1.339721     30.97000 ; qtot 1.385
  7960   oT   203    PC   O32 7960    -0.508176     16.00000 ; qtot 0.876
  7961   cA   203    PC   C31 7961     0.166801     12.01000 ; qtot 1.043
  7962   hE   203    PC   H1A 7962     0.078534      1.00800 ; qtot 1.122
  7963   hE   203    PC   H1B 7963     0.078534      1.00800 ; qtot 1.200
  7964   cA   203    PC   C32 7964    -0.170824     12.01000 ; qtot 1.029
  7965   hX   203    PC   H2A 7965     0.136415      1.00800 ; qtot 1.166
  7966   hX   203    PC   H2B 7966     0.136415      1.00800 ; qtot 1.302
  7967   nA   203    PC   N31 7967     0.245262     14.01000 ; qtot 1.548
  7968   cA   203    PC   C33 7968    -0.338973     12.01000 ; qtot 1.209
  7969   hX   203    PC   H3A 7969     0.172230      1.00800 ; qtot 1.381
  7970   hX   203    PC   H3B 7970     0.172230      1.00800 ; qtot 1.553
  7971   hX   203    PC   H3C 7971     0.172230      1.00800 ; qtot 1.725
  7972   cA   203    PC   C34 7972    -0.338973     12.01000 ; qtot 1.386
  7973   hX   203    PC   H4A 7973     0.172230      1.00800 ; qtot 1.559
  7974   hX   203    PC   H4B 7974     0.172230      1.00800 ; qtot 1.731
  7975   hX   203    PC   H4C 7975     0.172230      1.00800 ; qtot 1.903
  7976   cA   203    PC   C35 7976    -0.338973     12.01000 ; qtot 1.564
  7977   hX   203    PC   H5A 7977     0.172230      1.00800 ; qtot 1.736
  7978   hX   203    PC   H5B 7978     0.172230      1.00800 ; qtot 1.908
  7979   hX   203    PC   H5C 7979     0.172230      1.00800 ; qtot 2.081
  7980   oP   203    PC   O33 7980    -0.875812     16.00000 ; qtot 1.205
  7981   oP   203    PC   O34 7981    -0.875812     16.00000 ; qtot 0.329
  7982   oS   203    PC   O21 7982    -0.552948     16.00000 ; qtot -0.224
  7983   cC   203    PC   C21 7983     0.897613     12.01000 ; qtot 0.674
  7984   oC   203    PC   O22 7984    -0.673755     16.00000 ; qtot 0.000
  7985   hL   204    MY  H14T 7985     0.025511      1.00800 ; qtot 0.026
  7986   cD   204    MY  C114 7986    -0.111712     12.01000 ; qtot -0.086
  7987   hL   204    MY  H14R 7987     0.025511      1.00800 ; qtot -0.061
  7988   hL   204    MY  H14S 7988     0.025511      1.00800 ; qtot -0.035
  7989   cD   204    MY  C113 7989     0.017463     12.01000 ; qtot -0.018
  7990   hL   204    MY  H13R 7990     0.007531      1.00800 ; qtot -0.010
  7991   hL   204    MY  H13S 7991     0.007531      1.00800 ; qtot -0.003
  7992   cD   204    MY  C112 7992    -0.028094     12.01000 ; qtot -0.031
  7993   hL   204    MY  H12R 7993     0.017208      1.00800 ; qtot -0.014
  7994   hL   204    MY  H12S 7994     0.017208      1.00800 ; qtot 0.004
  7995   cD   204    MY  C111 7995    -0.031787     12.01000 ; qtot -0.028
  7996   hL   204    MY  H11R 7996     0.012677      1.00800 ; qtot -0.015
  7997   hL   204    MY  H11S 7997     0.012677      1.00800 ; qtot -0.003
  7998   cD   204    MY  C110 7998    -0.021025     12.01000 ; qtot -0.024
  7999   hL   204    MY  H10R 7999     0.010037      1.00800 ; qtot -0.014
  8000   hL   204    MY  H10S 8000     0.010037      1.00800 ; qtot -0.004
  8001   cD   204    MY   C19 8001    -0.014653     12.01000 ; qtot -0.018
  8002   hL   204    MY   H9R 8002     0.010172      1.00800 ; qtot -0.008
  8003   hL   204    MY   H9S 8003     0.010172      1.00800 ; qtot 0.002
  8004   cD   204    MY   C18 8004    -0.026451     12.01000 ; qtot -0.024
  8005   hL   204    MY   H8R 8005     0.011241      1.00800 ; qtot -0.013
  8006   hL   204    MY   H8S 8006     0.011241      1.00800 ; qtot -0.002
  8007   cD   204    MY   C17 8007    -0.004386     12.01000 ; qtot -0.006
  8008   hL   204    MY   H7R 8008     0.006833      1.00800 ; qtot 0.000
  8009   hL   204    MY   H7S 8009     0.006833      1.00800 ; qtot 0.007
  8010   cD   204    MY   C16 8010    -0.027812     12.01000 ; qtot -0.021
  8011   hL   204    MY   H6R 8011     0.011511      1.00800 ; qtot -0.009
  8012   hL   204    MY   H6S 8012     0.011511      1.00800 ; qtot 0.002
  8013   cD   204    MY   C15 8013    -0.016521     12.01000 ; qtot -0.014
  8014   hL   204    MY   H5R 8014     0.010573      1.00800 ; qtot -0.003
  8015   hL   204    MY   H5S 8015     0.010573      1.00800 ; qtot 0.007
  8016   cD   204    MY   C14 8016    -0.026954     12.01000 ; qtot -0.020
  8017   hL   204    MY   H4R 8017     0.020431      1.00800 ; qtot 0.001
  8018   hL   204    MY   H4S 8018     0.020431      1.00800 ; qtot 0.021
  8019   cD   204    MY   C13 8019    -0.002435     12.01000 ; qtot 0.019
  8020   hL   204    MY   H3R 8020     0.018859      1.00800 ; qtot 0.037
  8021   hL   204    MY   H3S 8021     0.018859      1.00800 ; qtot 0.056
  8022   cD   204    MY   C12 8022    -0.164200     12.01000 ; qtot -0.108
  8023   hL   204    MY   H2R 8023     0.053944      1.00800 ; qtot -0.054
  8024   hL   204    MY   H2S 8024     0.053944      1.00800 ; qtot -0.000
  8025   hL   205    MY  H14T 8025     0.025511      1.00800 ; qtot 0.026
  8026   cD   205    MY  C114 8026    -0.111712     12.01000 ; qtot -0.086
  8027   hL   205    MY  H14R 8027     0.025511      1.00800 ; qtot -0.061
  8028   hL   205    MY  H14S 8028     0.025511      1.00800 ; qtot -0.035
  8029   cD   205    MY  C113 8029     0.017463     12.01000 ; qtot -0.018
  8030   hL   205    MY  H13R 8030     0.007531      1.00800 ; qtot -0.010
  8031   hL   205    MY  H13S 8031     0.007531      1.00800 ; qtot -0.003
  8032   cD   205    MY  C112 8032    -0.028094     12.01000 ; qtot -0.031
  8033   hL   205    MY  H12R 8033     0.017208      1.00800 ; qtot -0.014
  8034   hL   205    MY  H12S 8034     0.017208      1.00800 ; qtot 0.004
  8035   cD   205    MY  C111 8035    -0.031787     12.01000 ; qtot -0.028
  8036   hL   205    MY  H11R 8036     0.012677      1.00800 ; qtot -0.015
  8037   hL   205    MY  H11S 8037     0.012677      1.00800 ; qtot -0.003
  8038   cD   205    MY  C110 8038    -0.021025     12.01000 ; qtot -0.024
  8039   hL   205    MY  H10R 8039     0.010037      1.00800 ; qtot -0.014
  8040   hL   205    MY  H10S 8040     0.010037      1.00800 ; qtot -0.004
  8041   cD   205    MY   C19 8041    -0.014653     12.01000 ; qtot -0.018
  8042   hL   205    MY   H9R 8042     0.010172      1.00800 ; qtot -0.008
  8043   hL   205    MY   H9S 8043     0.010172      1.00800 ; qtot 0.002
  8044   cD   205    MY   C18 8044    -0.026451     12.01000 ; qtot -0.024
  8045   hL   205    MY   H8R 8045     0.011241      1.00800 ; qtot -0.013
  8046   hL   205    MY   H8S 8046     0.011241      1.00800 ; qtot -0.002
  8047   cD   205    MY   C17 8047    -0.004386     12.01000 ; qtot -0.006
  8048   hL   205    MY   H7R 8048     0.006833      1.00800 ; qtot 0.000
  8049   hL   205    MY   H7S 8049     0.006833      1.00800 ; qtot 0.007
  8050   cD   205    MY   C16 8050    -0.027812     12.01000 ; qtot -0.021
  8051   hL   205    MY   H6R 8051     0.011511      1.00800 ; qtot -0.009
  8052   hL   205    MY   H6S 8052     0.011511      1.00800 ; qtot 0.002
  8053   cD   205    MY   C15 8053    -0.016521     12.01000 ; qtot -0.014
  8054   hL   205    MY   H5R 8054     0.010573      1.00800 ; qtot -0.003
  8055   hL   205    MY   H5S 8055     0.010573      1.00800 ; qtot 0.007
  8056   cD   205    MY   C14 8056    -0.026954     12.01000 ; qtot -0.020
  8057   hL   205    MY   H4R 8057     0.020431      1.00800 ; qtot 0.001
  8058   hL   205    MY   H4S 8058     0.020431      1.00800 ; qtot 0.021
  8059   cD   205    MY   C13 8059    -0.002435     12.01000 ; qtot 0.019
  8060   hL   205    MY   H3R 8060     0.018859      1.00800 ; qtot 0.037
  8061   hL   205    MY   H3S 8061     0.018859      1.00800 ; qtot 0.056
  8062   cD   205    MY   C12 8062    -0.164200     12.01000 ; qtot -0.108
  8063   hL   205    MY   H2R 8063     0.053944      1.00800 ; qtot -0.054
  8064   hL   205    MY   H2S 8064     0.053944      1.00800 ; qtot -0.000
  8065   cC   206    PC   C11 8065     0.910403     12.01000 ; qtot 0.910
  8066   oC   206    PC   O12 8066    -0.671566     16.00000 ; qtot 0.239
  8067   oS   206    PC   O11 8067    -0.575489     16.00000 ; qtot -0.337
  8068   cA   206    PC    C1 8068     0.196939     12.01000 ; qtot -0.140
  8069   hE   206    PC    HR 8069     0.070469      1.00800 ; qtot -0.069
  8070   hE   206    PC    HS 8070     0.070469      1.00800 ; qtot 0.001
  8071   cA   206    PC    C2 8071     0.281242     12.01000 ; qtot 0.282
  8072   hE   206    PC    HX 8072     0.063253      1.00800 ; qtot 0.346
  8073   cA   206    PC    C3 8073     0.017459     12.01000 ; qtot 0.363
  8074   hE   206    PC    HA 8074     0.095591      1.00800 ; qtot 0.459
  8075   hE   206    PC    HB 8075     0.095591      1.00800 ; qtot 0.554
  8076   oT   206    PC   O31 8076    -0.509480     16.00000 ; qtot 0.045
  8077   pA   206    PC   P31 8077     1.339721     30.97000 ; qtot 1.385
  8078   oT   206    PC   O32 8078    -0.508176     16.00000 ; qtot 0.876
  8079   cA   206    PC   C31 8079     0.166801     12.01000 ; qtot 1.043
  8080   hE   206    PC   H1A 8080     0.078534      1.00800 ; qtot 1.122
  8081   hE   206    PC   H1B 8081     0.078534      1.00800 ; qtot 1.200
  8082   cA   206    PC   C32 8082    -0.170824     12.01000 ; qtot 1.029
  8083   hX   206    PC   H2A 8083     0.136415      1.00800 ; qtot 1.166
  8084   hX   206    PC   H2B 8084     0.136415      1.00800 ; qtot 1.302
  8085   nA   206    PC   N31 8085     0.245262     14.01000 ; qtot 1.548
  8086   cA   206    PC   C33 8086    -0.338973     12.01000 ; qtot 1.209
  8087   hX   206    PC   H3A 8087     0.172230      1.00800 ; qtot 1.381
  8088   hX   206    PC   H3B 8088     0.172230      1.00800 ; qtot 1.553
  8089   hX   206    PC   H3C 8089     0.172230      1.00800 ; qtot 1.725
  8090   cA   206    PC   C34 8090    -0.338973     12.01000 ; qtot 1.386
  8091   hX   206    PC   H4A 8091     0.172230      1.00800 ; qtot 1.559
  8092   hX   206    PC   H4B 8092     0.172230      1.00800 ; qtot 1.731
  8093   hX   206    PC   H4C 8093     0.172230      1.00800 ; qtot 1.903
  8094   cA   206    PC   C35 8094    -0.338973     12.01000 ; qtot 1.564
  8095   hX   206    PC   H5A 8095     0.172230      1.00800 ; qtot 1.736
  8096   hX   206    PC   H5B 8096     0.172230      1.00800 ; qtot 1.908
  8097   hX   206    PC   H5C 8097     0.172230      1.00800 ; qtot 2.081
  8098   oP   206    PC   O33 8098    -0.875812     16.00000 ; qtot 1.205
  8099   oP   206    PC   O34 8099    -0.875812     16.00000 ; qtot 0.329
  8100   oS   206    PC   O21 8100    -0.552948     16.00000 ; qtot -0.224
  8101   cC   206    PC   C21 8101     0.897613     12.01000 ; qtot 0.674
  8102   oC   206    PC   O22 8102    -0.673755     16.00000 ; qtot 0.000
  8103   hL   207    MY  H14T 8103     0.025511      1.00800 ; qtot 0.026
  8104   cD   207    MY  C114 8104    -0.111712     12.01000 ; qtot -0.086
  8105   hL   207    MY  H14R 8105     0.025511      1.00800 ; qtot -0.061
  8106   hL   207    MY  H14S 8106     0.025511      1.00800 ; qtot -0.035
  8107   cD   207    MY  C113 8107     0.017463     12.01000 ; qtot -0.018
  8108   hL   207    MY  H13R 8108     0.007531      1.00800 ; qtot -0.010
  8109   hL   207    MY  H13S 8109     0.007531      1.00800 ; qtot -0.003
  8110   cD   207    MY  C112 8110    -0.028094     12.01000 ; qtot -0.031
  8111   hL   207    MY  H12R 8111     0.017208      1.00800 ; qtot -0.014
  8112   hL   207    MY  H12S 8112     0.017208      1.00800 ; qtot 0.004
  8113   cD   207    MY  C111 8113    -0.031787     12.01000 ; qtot -0.028
  8114   hL   207    MY  H11R 8114     0.012677      1.00800 ; qtot -0.015
  8115   hL   207    MY  H11S 8115     0.012677      1.00800 ; qtot -0.003
  8116   cD   207    MY  C110 8116    -0.021025     12.01000 ; qtot -0.024
  8117   hL   207    MY  H10R 8117     0.010037      1.00800 ; qtot -0.014
  8118   hL   207    MY  H10S 8118     0.010037      1.00800 ; qtot -0.004
  8119   cD   207    MY   C19 8119    -0.014653     12.01000 ; qtot -0.018
  8120   hL   207    MY   H9R 8120     0.010172      1.00800 ; qtot -0.008
  8121   hL   207    MY   H9S 8121     0.010172      1.00800 ; qtot 0.002
  8122   cD   207    MY   C18 8122    -0.026451     12.01000 ; qtot -0.024
  8123   hL   207    MY   H8R 8123     0.011241      1.00800 ; qtot -0.013
  8124   hL   207    MY   H8S 8124     0.011241      1.00800 ; qtot -0.002
  8125   cD   207    MY   C17 8125    -0.004386     12.01000 ; qtot -0.006
  8126   hL   207    MY   H7R 8126     0.006833      1.00800 ; qtot 0.000
  8127   hL   207    MY   H7S 8127     0.006833      1.00800 ; qtot 0.007
  8128   cD   207    MY   C16 8128    -0.027812     12.01000 ; qtot -0.021
  8129   hL   207    MY   H6R 8129     0.011511      1.00800 ; qtot -0.009
  8130   hL   207    MY   H6S 8130     0.011511      1.00800 ; qtot 0.002
  8131   cD   207    MY   C15 8131    -0.016521     12.01000 ; qtot -0.014
  8132   hL   207    MY   H5R 8132     0.010573      1.00800 ; qtot -0.003
  8133   hL   207    MY   H5S 8133     0.010573      1.00800 ; qtot 0.007
  8134   cD   207    MY   C14 8134    -0.026954     12.01000 ; qtot -0.020
  8135   hL   207    MY   H4R 8135     0.020431      1.00800 ; qtot 0.001
  8136   hL   207    MY   H4S 8136     0.020431      1.00800 ; qtot 0.021
  8137   cD   207    MY   C13 8137    -0.002435     12.01000 ; qtot 0.019
  8138   hL   207    MY   H3R 8138     0.018859      1.00800 ; qtot 0.037
  8139   hL   207    MY   H3S 8139     0.018859      1.00800 ; qtot 0.056
  8140   cD   207    MY   C12 8140    -0.164200     12.01000 ; qtot -0.108
  8141   hL   207    MY   H2R 8141     0.053944      1.00800 ; qtot -0.054
  8142   hL   207    MY   H2S 8142     0.053944      1.00800 ; qtot -0.000
  8143   hL   208    MY  H14T 8143     0.025511      1.00800 ; qtot 0.026
  8144   cD   208    MY  C114 8144    -0.111712     12.01000 ; qtot -0.086
  8145   hL   208    MY  H14R 8145     0.025511      1.00800 ; qtot -0.061
  8146   hL   208    MY  H14S 8146     0.025511      1.00800 ; qtot -0.035
  8147   cD   208    MY  C113 8147     0.017463     12.01000 ; qtot -0.018
  8148   hL   208    MY  H13R 8148     0.007531      1.00800 ; qtot -0.010
  8149   hL   208    MY  H13S 8149     0.007531      1.00800 ; qtot -0.003
  8150   cD   208    MY  C112 8150    -0.028094     12.01000 ; qtot -0.031
  8151   hL   208    MY  H12R 8151     0.017208      1.00800 ; qtot -0.014
  8152   hL   208    MY  H12S 8152     0.017208      1.00800 ; qtot 0.004
  8153   cD   208    MY  C111 8153    -0.031787     12.01000 ; qtot -0.028
  8154   hL   208    MY  H11R 8154     0.012677      1.00800 ; qtot -0.015
  8155   hL   208    MY  H11S 8155     0.012677      1.00800 ; qtot -0.003
  8156   cD   208    MY  C110 8156    -0.021025     12.01000 ; qtot -0.024
  8157   hL   208    MY  H10R 8157     0.010037      1.00800 ; qtot -0.014
  8158   hL   208    MY  H10S 8158     0.010037      1.00800 ; qtot -0.004
  8159   cD   208    MY   C19 8159    -0.014653     12.01000 ; qtot -0.018
  8160   hL   208    MY   H9R 8160     0.010172      1.00800 ; qtot -0.008
  8161   hL   208    MY   H9S 8161     0.010172      1.00800 ; qtot 0.002
  8162   cD   208    MY   C18 8162    -0.026451     12.01000 ; qtot -0.024
  8163   hL   208    MY   H8R 8163     0.011241      1.00800 ; qtot -0.013
  8164   hL   208    MY   H8S 8164     0.011241      1.00800 ; qtot -0.002
  8165   cD   208    MY   C17 8165    -0.004386     12.01000 ; qtot -0.006
  8166   hL   208    MY   H7R 8166     0.006833      1.00800 ; qtot 0.000
  8167   hL   208    MY   H7S 8167     0.006833      1.00800 ; qtot 0.007
  8168   cD   208    MY   C16 8168    -0.027812     12.01000 ; qtot -0.021
  8169   hL   208    MY   H6R 8169     0.011511      1.00800 ; qtot -0.009
  8170   hL   208    MY   H6S 8170     0.011511      1.00800 ; qtot 0.002
  8171   cD   208    MY   C15 8171    -0.016521     12.01000 ; qtot -0.014
  8172   hL   208    MY   H5R 8172     0.010573      1.00800 ; qtot -0.003
  8173   hL   208    MY   H5S 8173     0.010573      1.00800 ; qtot 0.007
  8174   cD   208    MY   C14 8174    -0.026954     12.01000 ; qtot -0.020
  8175   hL   208    MY   H4R 8175     0.020431      1.00800 ; qtot 0.001
  8176   hL   208    MY   H4S 8176     0.020431      1.00800 ; qtot 0.021
  8177   cD   208    MY   C13 8177    -0.002435     12.01000 ; qtot 0.019
  8178   hL   208    MY   H3R 8178     0.018859      1.00800 ; qtot 0.037
  8179   hL   208    MY   H3S 8179     0.018859      1.00800 ; qtot 0.056
  8180   cD   208    MY   C12 8180    -0.164200     12.01000 ; qtot -0.108
  8181   hL   208    MY   H2R 8181     0.053944      1.00800 ; qtot -0.054
  8182   hL   208    MY   H2S 8182     0.053944      1.00800 ; qtot -0.000
  8183   cC   209    PC   C11 8183     0.910403     12.01000 ; qtot 0.910
  8184   oC   209    PC   O12 8184    -0.671566     16.00000 ; qtot 0.239
  8185   oS   209    PC   O11 8185    -0.575489     16.00000 ; qtot -0.337
  8186   cA   209    PC    C1 8186     0.196939     12.01000 ; qtot -0.140
  8187   hE   209    PC    HR 8187     0.070469      1.00800 ; qtot -0.069
  8188   hE   209    PC    HS 8188     0.070469      1.00800 ; qtot 0.001
  8189   cA   209    PC    C2 8189     0.281242     12.01000 ; qtot 0.282
  8190   hE   209    PC    HX 8190     0.063253      1.00800 ; qtot 0.346
  8191   cA   209    PC    C3 8191     0.017459     12.01000 ; qtot 0.363
  8192   hE   209    PC    HA 8192     0.095591      1.00800 ; qtot 0.459
  8193   hE   209    PC    HB 8193     0.095591      1.00800 ; qtot 0.554
  8194   oT   209    PC   O31 8194    -0.509480     16.00000 ; qtot 0.045
  8195   pA   209    PC   P31 8195     1.339721     30.97000 ; qtot 1.385
  8196   oT   209    PC   O32 8196    -0.508176     16.00000 ; qtot 0.876
  8197   cA   209    PC   C31 8197     0.166801     12.01000 ; qtot 1.043
  8198   hE   209    PC   H1A 8198     0.078534      1.00800 ; qtot 1.122
  8199   hE   209    PC   H1B 8199     0.078534      1.00800 ; qtot 1.200
  8200   cA   209    PC   C32 8200    -0.170824     12.01000 ; qtot 1.029
  8201   hX   209    PC   H2A 8201     0.136415      1.00800 ; qtot 1.166
  8202   hX   209    PC   H2B 8202     0.136415      1.00800 ; qtot 1.302
  8203   nA   209    PC   N31 8203     0.245262     14.01000 ; qtot 1.548
  8204   cA   209    PC   C33 8204    -0.338973     12.01000 ; qtot 1.209
  8205   hX   209    PC   H3A 8205     0.172230      1.00800 ; qtot 1.381
  8206   hX   209    PC   H3B 8206     0.172230      1.00800 ; qtot 1.553
  8207   hX   209    PC   H3C 8207     0.172230      1.00800 ; qtot 1.725
  8208   cA   209    PC   C34 8208    -0.338973     12.01000 ; qtot 1.386
  8209   hX   209    PC   H4A 8209     0.172230      1.00800 ; qtot 1.559
  8210   hX   209    PC   H4B 8210     0.172230      1.00800 ; qtot 1.731
  8211   hX   209    PC   H4C 8211     0.172230      1.00800 ; qtot 1.903
  8212   cA   209    PC   C35 8212    -0.338973     12.01000 ; qtot 1.564
  8213   hX   209    PC   H5A 8213     0.172230      1.00800 ; qtot 1.736
  8214   hX   209    PC   H5B 8214     0.172230      1.00800 ; qtot 1.908
  8215   hX   209    PC   H5C 8215     0.172230      1.00800 ; qtot 2.081
  8216   oP   209    PC   O33 8216    -0.875812     16.00000 ; qtot 1.205
  8217   oP   209    PC   O34 8217    -0.875812     16.00000 ; qtot 0.329
  8218   oS   209    PC   O21 8218    -0.552948     16.00000 ; qtot -0.224
  8219   cC   209    PC   C21 8219     0.897613     12.01000 ; qtot 0.674
  8220   oC   209    PC   O22 8220    -0.673755     16.00000 ; qtot 0.000
  8221   hL   210    MY  H14T 8221     0.025511      1.00800 ; qtot 0.026
  8222   cD   210    MY  C114 8222    -0.111712     12.01000 ; qtot -0.086
  8223   hL   210    MY  H14R 8223     0.025511      1.00800 ; qtot -0.061
  8224   hL   210    MY  H14S 8224     0.025511      1.00800 ; qtot -0.035
  8225   cD   210    MY  C113 8225     0.017463     12.01000 ; qtot -0.018
  8226   hL   210    MY  H13R 8226     0.007531      1.00800 ; qtot -0.010
  8227   hL   210    MY  H13S 8227     0.007531      1.00800 ; qtot -0.003
  8228   cD   210    MY  C112 8228    -0.028094     12.01000 ; qtot -0.031
  8229   hL   210    MY  H12R 8229     0.017208      1.00800 ; qtot -0.014
  8230   hL   210    MY  H12S 8230     0.017208      1.00800 ; qtot 0.004
  8231   cD   210    MY  C111 8231    -0.031787     12.01000 ; qtot -0.028
  8232   hL   210    MY  H11R 8232     0.012677      1.00800 ; qtot -0.015
  8233   hL   210    MY  H11S 8233     0.012677      1.00800 ; qtot -0.003
  8234   cD   210    MY  C110 8234    -0.021025     12.01000 ; qtot -0.024
  8235   hL   210    MY  H10R 8235     0.010037      1.00800 ; qtot -0.014
  8236   hL   210    MY  H10S 8236     0.010037      1.00800 ; qtot -0.004
  8237   cD   210    MY   C19 8237    -0.014653     12.01000 ; qtot -0.018
  8238   hL   210    MY   H9R 8238     0.010172      1.00800 ; qtot -0.008
  8239   hL   210    MY   H9S 8239     0.010172      1.00800 ; qtot 0.002
  8240   cD   210    MY   C18 8240    -0.026451     12.01000 ; qtot -0.024
  8241   hL   210    MY   H8R 8241     0.011241      1.00800 ; qtot -0.013
  8242   hL   210    MY   H8S 8242     0.011241      1.00800 ; qtot -0.002
  8243   cD   210    MY   C17 8243    -0.004386     12.01000 ; qtot -0.006
  8244   hL   210    MY   H7R 8244     0.006833      1.00800 ; qtot 0.000
  8245   hL   210    MY   H7S 8245     0.006833      1.00800 ; qtot 0.007
  8246   cD   210    MY   C16 8246    -0.027812     12.01000 ; qtot -0.021
  8247   hL   210    MY   H6R 8247     0.011511      1.00800 ; qtot -0.009
  8248   hL   210    MY   H6S 8248     0.011511      1.00800 ; qtot 0.002
  8249   cD   210    MY   C15 8249    -0.016521     12.01000 ; qtot -0.014
  8250   hL   210    MY   H5R 8250     0.010573      1.00800 ; qtot -0.003
  8251   hL   210    MY   H5S 8251     0.010573      1.00800 ; qtot 0.007
  8252   cD   210    MY   C14 8252    -0.026954     12.01000 ; qtot -0.020
  8253   hL   210    MY   H4R 8253     0.020431      1.00800 ; qtot 0.001
  8254   hL   210    MY   H4S 8254     0.020431      1.00800 ; qtot 0.021
  8255   cD   210    MY   C13 8255    -0.002435     12.01000 ; qtot 0.019
  8256   hL   210    MY   H3R 8256     0.018859      1.00800 ; qtot 0.037
  8257   hL   210    MY   H3S 8257     0.018859      1.00800 ; qtot 0.056
  8258   cD   210    MY   C12 8258    -0.164200     12.01000 ; qtot -0.108
  8259   hL   210    MY   H2R 8259     0.053944      1.00800 ; qtot -0.054
  8260   hL   210    MY   H2S 8260     0.053944      1.00800 ; qtot -0.000
  8261   hL   211    MY  H14T 8261     0.025511      1.00800 ; qtot 0.026
  8262   cD   211    MY  C114 8262    -0.111712     12.01000 ; qtot -0.086
  8263   hL   211    MY  H14R 8263     0.025511      1.00800 ; qtot -0.061
  8264   hL   211    MY  H14S 8264     0.025511      1.00800 ; qtot -0.035
  8265   cD   211    MY  C113 8265     0.017463     12.01000 ; qtot -0.018
  8266   hL   211    MY  H13R 8266     0.007531      1.00800 ; qtot -0.010
  8267   hL   211    MY  H13S 8267     0.007531      1.00800 ; qtot -0.003
  8268   cD   211    MY  C112 8268    -0.028094     12.01000 ; qtot -0.031
  8269   hL   211    MY  H12R 8269     0.017208      1.00800 ; qtot -0.014
  8270   hL   211    MY  H12S 8270     0.017208      1.00800 ; qtot 0.004
  8271   cD   211    MY  C111 8271    -0.031787     12.01000 ; qtot -0.028
  8272   hL   211    MY  H11R 8272     0.012677      1.00800 ; qtot -0.015
  8273   hL   211    MY  H11S 8273     0.012677      1.00800 ; qtot -0.003
  8274   cD   211    MY  C110 8274    -0.021025     12.01000 ; qtot -0.024
  8275   hL   211    MY  H10R 8275     0.010037      1.00800 ; qtot -0.014
  8276   hL   211    MY  H10S 8276     0.010037      1.00800 ; qtot -0.004
  8277   cD   211    MY   C19 8277    -0.014653     12.01000 ; qtot -0.018
  8278   hL   211    MY   H9R 8278     0.010172      1.00800 ; qtot -0.008
  8279   hL   211    MY   H9S 8279     0.010172      1.00800 ; qtot 0.002
  8280   cD   211    MY   C18 8280    -0.026451     12.01000 ; qtot -0.024
  8281   hL   211    MY   H8R 8281     0.011241      1.00800 ; qtot -0.013
  8282   hL   211    MY   H8S 8282     0.011241      1.00800 ; qtot -0.002
  8283   cD   211    MY   C17 8283    -0.004386     12.01000 ; qtot -0.006
  8284   hL   211    MY   H7R 8284     0.006833      1.00800 ; qtot 0.000
  8285   hL   211    MY   H7S 8285     0.006833      1.00800 ; qtot 0.007
  8286   cD   211    MY   C16 8286    -0.027812     12.01000 ; qtot -0.021
  8287   hL   211    MY   H6R 8287     0.011511      1.00800 ; qtot -0.009
  8288   hL   211    MY   H6S 8288     0.011511      1.00800 ; qtot 0.002
  8289   cD   211    MY   C15 8289    -0.016521     12.01000 ; qtot -0.014
  8290   hL   211    MY   H5R 8290     0.010573      1.00800 ; qtot -0.003
  8291   hL   211    MY   H5S 8291     0.010573      1.00800 ; qtot 0.007
  8292   cD   211    MY   C14 8292    -0.026954     12.01000 ; qtot -0.020
  8293   hL   211    MY   H4R 8293     0.020431      1.00800 ; qtot 0.001
  8294   hL   211    MY   H4S 8294     0.020431      1.00800 ; qtot 0.021
  8295   cD   211    MY   C13 8295    -0.002435     12.01000 ; qtot 0.019
  8296   hL   211    MY   H3R 8296     0.018859      1.00800 ; qtot 0.037
  8297   hL   211    MY   H3S 8297     0.018859      1.00800 ; qtot 0.056
  8298   cD   211    MY   C12 8298    -0.164200     12.01000 ; qtot -0.108
  8299   hL   211    MY   H2R 8299     0.053944      1.00800 ; qtot -0.054
  8300   hL   211    MY   H2S 8300     0.053944      1.00800 ; qtot -0.000
  8301   cC   212    PC   C11 8301     0.910403     12.01000 ; qtot 0.910
  8302   oC   212    PC   O12 8302    -0.671566     16.00000 ; qtot 0.239
  8303   oS   212    PC   O11 8303    -0.575489     16.00000 ; qtot -0.337
  8304   cA   212    PC    C1 8304     0.196939     12.01000 ; qtot -0.140
  8305   hE   212    PC    HR 8305     0.070469      1.00800 ; qtot -0.069
  8306   hE   212    PC    HS 8306     0.070469      1.00800 ; qtot 0.001
  8307   cA   212    PC    C2 8307     0.281242     12.01000 ; qtot 0.282
  8308   hE   212    PC    HX 8308     0.063253      1.00800 ; qtot 0.346
  8309   cA   212    PC    C3 8309     0.017459     12.01000 ; qtot 0.363
  8310   hE   212    PC    HA 8310     0.095591      1.00800 ; qtot 0.459
  8311   hE   212    PC    HB 8311     0.095591      1.00800 ; qtot 0.554
  8312   oT   212    PC   O31 8312    -0.509480     16.00000 ; qtot 0.045
  8313   pA   212    PC   P31 8313     1.339721     30.97000 ; qtot 1.385
  8314   oT   212    PC   O32 8314    -0.508176     16.00000 ; qtot 0.876
  8315   cA   212    PC   C31 8315     0.166801     12.01000 ; qtot 1.043
  8316   hE   212    PC   H1A 8316     0.078534      1.00800 ; qtot 1.122
  8317   hE   212    PC   H1B 8317     0.078534      1.00800 ; qtot 1.200
  8318   cA   212    PC   C32 8318    -0.170824     12.01000 ; qtot 1.029
  8319   hX   212    PC   H2A 8319     0.136415      1.00800 ; qtot 1.166
  8320   hX   212    PC   H2B 8320     0.136415      1.00800 ; qtot 1.302
  8321   nA   212    PC   N31 8321     0.245262     14.01000 ; qtot 1.548
  8322   cA   212    PC   C33 8322    -0.338973     12.01000 ; qtot 1.209
  8323   hX   212    PC   H3A 8323     0.172230      1.00800 ; qtot 1.381
  8324   hX   212    PC   H3B 8324     0.172230      1.00800 ; qtot 1.553
  8325   hX   212    PC   H3C 8325     0.172230      1.00800 ; qtot 1.725
  8326   cA   212    PC   C34 8326    -0.338973     12.01000 ; qtot 1.386
  8327   hX   212    PC   H4A 8327     0.172230      1.00800 ; qtot 1.559
  8328   hX   212    PC   H4B 8328     0.172230      1.00800 ; qtot 1.731
  8329   hX   212    PC   H4C 8329     0.172230      1.00800 ; qtot 1.903
  8330   cA   212    PC   C35 8330    -0.338973     12.01000 ; qtot 1.564
  8331   hX   212    PC   H5A 8331     0.172230      1.00800 ; qtot 1.736
  8332   hX   212    PC   H5B 8332     0.172230      1.00800 ; qtot 1.908
  8333   hX   212    PC   H5C 8333     0.172230      1.00800 ; qtot 2.081
  8334   oP   212    PC   O33 8334    -0.875812     16.00000 ; qtot 1.205
  8335   oP   212    PC   O34 8335    -0.875812     16.00000 ; qtot 0.329
  8336   oS   212    PC   O21 8336    -0.552948     16.00000 ; qtot -0.224
  8337   cC   212    PC   C21 8337     0.897613     12.01000 ; qtot 0.674
  8338   oC   212    PC   O22 8338    -0.673755     16.00000 ; qtot 0.000
  8339   hL   213    MY  H14T 8339     0.025511      1.00800 ; qtot 0.026
  8340   cD   213    MY  C114 8340    -0.111712     12.01000 ; qtot -0.086
  8341   hL   213    MY  H14R 8341     0.025511      1.00800 ; qtot -0.061
  8342   hL   213    MY  H14S 8342     0.025511      1.00800 ; qtot -0.035
  8343   cD   213    MY  C113 8343     0.017463     12.01000 ; qtot -0.018
  8344   hL   213    MY  H13R 8344     0.007531      1.00800 ; qtot -0.010
  8345   hL   213    MY  H13S 8345     0.007531      1.00800 ; qtot -0.003
  8346   cD   213    MY  C112 8346    -0.028094     12.01000 ; qtot -0.031
  8347   hL   213    MY  H12R 8347     0.017208      1.00800 ; qtot -0.014
  8348   hL   213    MY  H12S 8348     0.017208      1.00800 ; qtot 0.004
  8349   cD   213    MY  C111 8349    -0.031787     12.01000 ; qtot -0.028
  8350   hL   213    MY  H11R 8350     0.012677      1.00800 ; qtot -0.015
  8351   hL   213    MY  H11S 8351     0.012677      1.00800 ; qtot -0.003
  8352   cD   213    MY  C110 8352    -0.021025     12.01000 ; qtot -0.024
  8353   hL   213    MY  H10R 8353     0.010037      1.00800 ; qtot -0.014
  8354   hL   213    MY  H10S 8354     0.010037      1.00800 ; qtot -0.004
  8355   cD   213    MY   C19 8355    -0.014653     12.01000 ; qtot -0.018
  8356   hL   213    MY   H9R 8356     0.010172      1.00800 ; qtot -0.008
  8357   hL   213    MY   H9S 8357     0.010172      1.00800 ; qtot 0.002
  8358   cD   213    MY   C18 8358    -0.026451     12.01000 ; qtot -0.024
  8359   hL   213    MY   H8R 8359     0.011241      1.00800 ; qtot -0.013
  8360   hL   213    MY   H8S 8360     0.011241      1.00800 ; qtot -0.002
  8361   cD   213    MY   C17 8361    -0.004386     12.01000 ; qtot -0.006
  8362   hL   213    MY   H7R 8362     0.006833      1.00800 ; qtot 0.000
  8363   hL   213    MY   H7S 8363     0.006833      1.00800 ; qtot 0.007
  8364   cD   213    MY   C16 8364    -0.027812     12.01000 ; qtot -0.021
  8365   hL   213    MY   H6R 8365     0.011511      1.00800 ; qtot -0.009
  8366   hL   213    MY   H6S 8366     0.011511      1.00800 ; qtot 0.002
  8367   cD   213    MY   C15 8367    -0.016521     12.01000 ; qtot -0.014
  8368   hL   213    MY   H5R 8368     0.010573      1.00800 ; qtot -0.003
  8369   hL   213    MY   H5S 8369     0.010573      1.00800 ; qtot 0.007
  8370   cD   213    MY   C14 8370    -0.026954     12.01000 ; qtot -0.020
  8371   hL   213    MY   H4R 8371     0.020431      1.00800 ; qtot 0.001
  8372   hL   213    MY   H4S 8372     0.020431      1.00800 ; qtot 0.021
  8373   cD   213    MY   C13 8373    -0.002435     12.01000 ; qtot 0.019
  8374   hL   213    MY   H3R 8374     0.018859      1.00800 ; qtot 0.037
  8375   hL   213    MY   H3S 8375     0.018859      1.00800 ; qtot 0.056
  8376   cD   213    MY   C12 8376    -0.164200     12.01000 ; qtot -0.108
  8377   hL   213    MY   H2R 8377     0.053944      1.00800 ; qtot -0.054
  8378   hL   213    MY   H2S 8378     0.053944      1.00800 ; qtot -0.000
  8379   hL   214    MY  H14T 8379     0.025511      1.00800 ; qtot 0.026
  8380   cD   214    MY  C114 8380    -0.111712     12.01000 ; qtot -0.086
  8381   hL   214    MY  H14R 8381     0.025511      1.00800 ; qtot -0.061
  8382   hL   214    MY  H14S 8382     0.025511      1.00800 ; qtot -0.035
  8383   cD   214    MY  C113 8383     0.017463     12.01000 ; qtot -0.018
  8384   hL   214    MY  H13R 8384     0.007531      1.00800 ; qtot -0.010
  8385   hL   214    MY  H13S 8385     0.007531      1.00800 ; qtot -0.003
  8386   cD   214    MY  C112 8386    -0.028094     12.01000 ; qtot -0.031
  8387   hL   214    MY  H12R 8387     0.017208      1.00800 ; qtot -0.014
  8388   hL   214    MY  H12S 8388     0.017208      1.00800 ; qtot 0.004
  8389   cD   214    MY  C111 8389    -0.031787     12.01000 ; qtot -0.028
  8390   hL   214    MY  H11R 8390     0.012677      1.00800 ; qtot -0.015
  8391   hL   214    MY  H11S 8391     0.012677      1.00800 ; qtot -0.003
  8392   cD   214    MY  C110 8392    -0.021025     12.01000 ; qtot -0.024
  8393   hL   214    MY  H10R 8393     0.010037      1.00800 ; qtot -0.014
  8394   hL   214    MY  H10S 8394     0.010037      1.00800 ; qtot -0.004
  8395   cD   214    MY   C19 8395    -0.014653     12.01000 ; qtot -0.018
  8396   hL   214    MY   H9R 8396     0.010172      1.00800 ; qtot -0.008
  8397   hL   214    MY   H9S 8397     0.010172      1.00800 ; qtot 0.002
  8398   cD   214    MY   C18 8398    -0.026451     12.01000 ; qtot -0.024
  8399   hL   214    MY   H8R 8399     0.011241      1.00800 ; qtot -0.013
  8400   hL   214    MY   H8S 8400     0.011241      1.00800 ; qtot -0.002
  8401   cD   214    MY   C17 8401    -0.004386     12.01000 ; qtot -0.006
  8402   hL   214    MY   H7R 8402     0.006833      1.00800 ; qtot 0.000
  8403   hL   214    MY   H7S 8403     0.006833      1.00800 ; qtot 0.007
  8404   cD   214    MY   C16 8404    -0.027812     12.01000 ; qtot -0.021
  8405   hL   214    MY   H6R 8405     0.011511      1.00800 ; qtot -0.009
  8406   hL   214    MY   H6S 8406     0.011511      1.00800 ; qtot 0.002
  8407   cD   214    MY   C15 8407    -0.016521     12.01000 ; qtot -0.014
  8408   hL   214    MY   H5R 8408     0.010573      1.00800 ; qtot -0.003
  8409   hL   214    MY   H5S 8409     0.010573      1.00800 ; qtot 0.007
  8410   cD   214    MY   C14 8410    -0.026954     12.01000 ; qtot -0.020
  8411   hL   214    MY   H4R 8411     0.020431      1.00800 ; qtot 0.001
  8412   hL   214    MY   H4S 8412     0.020431      1.00800 ; qtot 0.021
  8413   cD   214    MY   C13 8413    -0.002435     12.01000 ; qtot 0.019
  8414   hL   214    MY   H3R 8414     0.018859      1.00800 ; qtot 0.037
  8415   hL   214    MY   H3S 8415     0.018859      1.00800 ; qtot 0.056
  8416   cD   214    MY   C12 8416    -0.164200     12.01000 ; qtot -0.108
  8417   hL   214    MY   H2R 8417     0.053944      1.00800 ; qtot -0.054
  8418   hL   214    MY   H2S 8418     0.053944      1.00800 ; qtot -0.000
  8419   cC   215    PC   C11 8419     0.910403     12.01000 ; qtot 0.910
  8420   oC   215    PC   O12 8420    -0.671566     16.00000 ; qtot 0.239
  8421   oS   215    PC   O11 8421    -0.575489     16.00000 ; qtot -0.337
  8422   cA   215    PC    C1 8422     0.196939     12.01000 ; qtot -0.140
  8423   hE   215    PC    HR 8423     0.070469      1.00800 ; qtot -0.069
  8424   hE   215    PC    HS 8424     0.070469      1.00800 ; qtot 0.001
  8425   cA   215    PC    C2 8425     0.281242     12.01000 ; qtot 0.282
  8426   hE   215    PC    HX 8426     0.063253      1.00800 ; qtot 0.346
  8427   cA   215    PC    C3 8427     0.017459     12.01000 ; qtot 0.363
  8428   hE   215    PC    HA 8428     0.095591      1.00800 ; qtot 0.459
  8429   hE   215    PC    HB 8429     0.095591      1.00800 ; qtot 0.554
  8430   oT   215    PC   O31 8430    -0.509480     16.00000 ; qtot 0.045
  8431   pA   215    PC   P31 8431     1.339721     30.97000 ; qtot 1.385
  8432   oT   215    PC   O32 8432    -0.508176     16.00000 ; qtot 0.876
  8433   cA   215    PC   C31 8433     0.166801     12.01000 ; qtot 1.043
  8434   hE   215    PC   H1A 8434     0.078534      1.00800 ; qtot 1.122
  8435   hE   215    PC   H1B 8435     0.078534      1.00800 ; qtot 1.200
  8436   cA   215    PC   C32 8436    -0.170824     12.01000 ; qtot 1.029
  8437   hX   215    PC   H2A 8437     0.136415      1.00800 ; qtot 1.166
  8438   hX   215    PC   H2B 8438     0.136415      1.00800 ; qtot 1.302
  8439   nA   215    PC   N31 8439     0.245262     14.01000 ; qtot 1.548
  8440   cA   215    PC   C33 8440    -0.338973     12.01000 ; qtot 1.209
  8441   hX   215    PC   H3A 8441     0.172230      1.00800 ; qtot 1.381
  8442   hX   215    PC   H3B 8442     0.172230      1.00800 ; qtot 1.553
  8443   hX   215    PC   H3C 8443     0.172230      1.00800 ; qtot 1.725
  8444   cA   215    PC   C34 8444    -0.338973     12.01000 ; qtot 1.386
  8445   hX   215    PC   H4A 8445     0.172230      1.00800 ; qtot 1.559
  8446   hX   215    PC   H4B 8446     0.172230      1.00800 ; qtot 1.731
  8447   hX   215    PC   H4C 8447     0.172230      1.00800 ; qtot 1.903
  8448   cA   215    PC   C35 8448    -0.338973     12.01000 ; qtot 1.564
  8449   hX   215    PC   H5A 8449     0.172230      1.00800 ; qtot 1.736
  8450   hX   215    PC   H5B 8450     0.172230      1.00800 ; qtot 1.908
  8451   hX   215    PC   H5C 8451     0.172230      1.00800 ; qtot 2.081
  8452   oP   215    PC   O33 8452    -0.875812     16.00000 ; qtot 1.205
  8453   oP   215    PC   O34 8453    -0.875812     16.00000 ; qtot 0.329
  8454   oS   215    PC   O21 8454    -0.552948     16.00000 ; qtot -0.224
  8455   cC   215    PC   C21 8455     0.897613     12.01000 ; qtot 0.674
  8456   oC   215    PC   O22 8456    -0.673755     16.00000 ; qtot 0.000
  8457   hL   216    MY  H14T 8457     0.025511      1.00800 ; qtot 0.026
  8458   cD   216    MY  C114 8458    -0.111712     12.01000 ; qtot -0.086
  8459   hL   216    MY  H14R 8459     0.025511      1.00800 ; qtot -0.061
  8460   hL   216    MY  H14S 8460     0.025511      1.00800 ; qtot -0.035
  8461   cD   216    MY  C113 8461     0.017463     12.01000 ; qtot -0.018
  8462   hL   216    MY  H13R 8462     0.007531      1.00800 ; qtot -0.010
  8463   hL   216    MY  H13S 8463     0.007531      1.00800 ; qtot -0.003
  8464   cD   216    MY  C112 8464    -0.028094     12.01000 ; qtot -0.031
  8465   hL   216    MY  H12R 8465     0.017208      1.00800 ; qtot -0.014
  8466   hL   216    MY  H12S 8466     0.017208      1.00800 ; qtot 0.004
  8467   cD   216    MY  C111 8467    -0.031787     12.01000 ; qtot -0.028
  8468   hL   216    MY  H11R 8468     0.012677      1.00800 ; qtot -0.015
  8469   hL   216    MY  H11S 8469     0.012677      1.00800 ; qtot -0.003
  8470   cD   216    MY  C110 8470    -0.021025     12.01000 ; qtot -0.024
  8471   hL   216    MY  H10R 8471     0.010037      1.00800 ; qtot -0.014
  8472   hL   216    MY  H10S 8472     0.010037      1.00800 ; qtot -0.004
  8473   cD   216    MY   C19 8473    -0.014653     12.01000 ; qtot -0.018
  8474   hL   216    MY   H9R 8474     0.010172      1.00800 ; qtot -0.008
  8475   hL   216    MY   H9S 8475     0.010172      1.00800 ; qtot 0.002
  8476   cD   216    MY   C18 8476    -0.026451     12.01000 ; qtot -0.024
  8477   hL   216    MY   H8R 8477     0.011241      1.00800 ; qtot -0.013
  8478   hL   216    MY   H8S 8478     0.011241      1.00800 ; qtot -0.002
  8479   cD   216    MY   C17 8479    -0.004386     12.01000 ; qtot -0.006
  8480   hL   216    MY   H7R 8480     0.006833      1.00800 ; qtot 0.000
  8481   hL   216    MY   H7S 8481     0.006833      1.00800 ; qtot 0.007
  8482   cD   216    MY   C16 8482    -0.027812     12.01000 ; qtot -0.021
  8483   hL   216    MY   H6R 8483     0.011511      1.00800 ; qtot -0.009
  8484   hL   216    MY   H6S 8484     0.011511      1.00800 ; qtot 0.002
  8485   cD   216    MY   C15 8485    -0.016521     12.01000 ; qtot -0.014
  8486   hL   216    MY   H5R 8486     0.010573      1.00800 ; qtot -0.003
  8487   hL   216    MY   H5S 8487     0.010573      1.00800 ; qtot 0.007
  8488   cD   216    MY   C14 8488    -0.026954     12.01000 ; qtot -0.020
  8489   hL   216    MY   H4R 8489     0.020431      1.00800 ; qtot 0.001
  8490   hL   216    MY   H4S 8490     0.020431      1.00800 ; qtot 0.021
  8491   cD   216    MY   C13 8491    -0.002435     12.01000 ; qtot 0.019
  8492   hL   216    MY   H3R 8492     0.018859      1.00800 ; qtot 0.037
  8493   hL   216    MY   H3S 8493     0.018859      1.00800 ; qtot 0.056
  8494   cD   216    MY   C12 8494    -0.164200     12.01000 ; qtot -0.108
  8495   hL   216    MY   H2R 8495     0.053944      1.00800 ; qtot -0.054
  8496   hL   216    MY   H2S 8496     0.053944      1.00800 ; qtot -0.000
  8497   hL   217    MY  H14T 8497     0.025511      1.00800 ; qtot 0.026
  8498   cD   217    MY  C114 8498    -0.111712     12.01000 ; qtot -0.086
  8499   hL   217    MY  H14R 8499     0.025511      1.00800 ; qtot -0.061
  8500   hL   217    MY  H14S 8500     0.025511      1.00800 ; qtot -0.035
  8501   cD   217    MY  C113 8501     0.017463     12.01000 ; qtot -0.018
  8502   hL   217    MY  H13R 8502     0.007531      1.00800 ; qtot -0.010
  8503   hL   217    MY  H13S 8503     0.007531      1.00800 ; qtot -0.003
  8504   cD   217    MY  C112 8504    -0.028094     12.01000 ; qtot -0.031
  8505   hL   217    MY  H12R 8505     0.017208      1.00800 ; qtot -0.014
  8506   hL   217    MY  H12S 8506     0.017208      1.00800 ; qtot 0.004
  8507   cD   217    MY  C111 8507    -0.031787     12.01000 ; qtot -0.028
  8508   hL   217    MY  H11R 8508     0.012677      1.00800 ; qtot -0.015
  8509   hL   217    MY  H11S 8509     0.012677      1.00800 ; qtot -0.003
  8510   cD   217    MY  C110 8510    -0.021025     12.01000 ; qtot -0.024
  8511   hL   217    MY  H10R 8511     0.010037      1.00800 ; qtot -0.014
  8512   hL   217    MY  H10S 8512     0.010037      1.00800 ; qtot -0.004
  8513   cD   217    MY   C19 8513    -0.014653     12.01000 ; qtot -0.018
  8514   hL   217    MY   H9R 8514     0.010172      1.00800 ; qtot -0.008
  8515   hL   217    MY   H9S 8515     0.010172      1.00800 ; qtot 0.002
  8516   cD   217    MY   C18 8516    -0.026451     12.01000 ; qtot -0.024
  8517   hL   217    MY   H8R 8517     0.011241      1.00800 ; qtot -0.013
  8518   hL   217    MY   H8S 8518     0.011241      1.00800 ; qtot -0.002
  8519   cD   217    MY   C17 8519    -0.004386     12.01000 ; qtot -0.006
  8520   hL   217    MY   H7R 8520     0.006833      1.00800 ; qtot 0.000
  8521   hL   217    MY   H7S 8521     0.006833      1.00800 ; qtot 0.007
  8522   cD   217    MY   C16 8522    -0.027812     12.01000 ; qtot -0.021
  8523   hL   217    MY   H6R 8523     0.011511      1.00800 ; qtot -0.009
  8524   hL   217    MY   H6S 8524     0.011511      1.00800 ; qtot 0.002
  8525   cD   217    MY   C15 8525    -0.016521     12.01000 ; qtot -0.014
  8526   hL   217    MY   H5R 8526     0.010573      1.00800 ; qtot -0.003
  8527   hL   217    MY   H5S 8527     0.010573      1.00800 ; qtot 0.007
  8528   cD   217    MY   C14 8528    -0.026954     12.01000 ; qtot -0.020
  8529   hL   217    MY   H4R 8529     0.020431      1.00800 ; qtot 0.001
  8530   hL   217    MY   H4S 8530     0.020431      1.00800 ; qtot 0.021
  8531   cD   217    MY   C13 8531    -0.002435     12.01000 ; qtot 0.019
  8532   hL   217    MY   H3R 8532     0.018859      1.00800 ; qtot 0.037
  8533   hL   217    MY   H3S 8533     0.018859      1.00800 ; qtot 0.056
  8534   cD   217    MY   C12 8534    -0.164200     12.01000 ; qtot -0.108
  8535   hL   217    MY   H2R 8535     0.053944      1.00800 ; qtot -0.054
  8536   hL   217    MY   H2S 8536     0.053944      1.00800 ; qtot -0.000
  8537   cC   218    PC   C11 8537     0.910403     12.01000 ; qtot 0.910
  8538   oC   218    PC   O12 8538    -0.671566     16.00000 ; qtot 0.239
  8539   oS   218    PC   O11 8539    -0.575489     16.00000 ; qtot -0.337
  8540   cA   218    PC    C1 8540     0.196939     12.01000 ; qtot -0.140
  8541   hE   218    PC    HR 8541     0.070469      1.00800 ; qtot -0.069
  8542   hE   218    PC    HS 8542     0.070469      1.00800 ; qtot 0.001
  8543   cA   218    PC    C2 8543     0.281242     12.01000 ; qtot 0.282
  8544   hE   218    PC    HX 8544     0.063253      1.00800 ; qtot 0.346
  8545   cA   218    PC    C3 8545     0.017459     12.01000 ; qtot 0.363
  8546   hE   218    PC    HA 8546     0.095591      1.00800 ; qtot 0.459
  8547   hE   218    PC    HB 8547     0.095591      1.00800 ; qtot 0.554
  8548   oT   218    PC   O31 8548    -0.509480     16.00000 ; qtot 0.045
  8549   pA   218    PC   P31 8549     1.339721     30.97000 ; qtot 1.385
  8550   oT   218    PC   O32 8550    -0.508176     16.00000 ; qtot 0.876
  8551   cA   218    PC   C31 8551     0.166801     12.01000 ; qtot 1.043
  8552   hE   218    PC   H1A 8552     0.078534      1.00800 ; qtot 1.122
  8553   hE   218    PC   H1B 8553     0.078534      1.00800 ; qtot 1.200
  8554   cA   218    PC   C32 8554    -0.170824     12.01000 ; qtot 1.029
  8555   hX   218    PC   H2A 8555     0.136415      1.00800 ; qtot 1.166
  8556   hX   218    PC   H2B 8556     0.136415      1.00800 ; qtot 1.302
  8557   nA   218    PC   N31 8557     0.245262     14.01000 ; qtot 1.548
  8558   cA   218    PC   C33 8558    -0.338973     12.01000 ; qtot 1.209
  8559   hX   218    PC   H3A 8559     0.172230      1.00800 ; qtot 1.381
  8560   hX   218    PC   H3B 8560     0.172230      1.00800 ; qtot 1.553
  8561   hX   218    PC   H3C 8561     0.172230      1.00800 ; qtot 1.725
  8562   cA   218    PC   C34 8562    -0.338973     12.01000 ; qtot 1.386
  8563   hX   218    PC   H4A 8563     0.172230      1.00800 ; qtot 1.559
  8564   hX   218    PC   H4B 8564     0.172230      1.00800 ; qtot 1.731
  8565   hX   218    PC   H4C 8565     0.172230      1.00800 ; qtot 1.903
  8566   cA   218    PC   C35 8566    -0.338973     12.01000 ; qtot 1.564
  8567   hX   218    PC   H5A 8567     0.172230      1.00800 ; qtot 1.736
  8568   hX   218    PC   H5B 8568     0.172230      1.00800 ; qtot 1.908
  8569   hX   218    PC   H5C 8569     0.172230      1.00800 ; qtot 2.081
  8570   oP   218    PC   O33 8570    -0.875812     16.00000 ; qtot 1.205
  8571   oP   218    PC   O34 8571    -0.875812     16.00000 ; qtot 0.329
  8572   oS   218    PC   O21 8572    -0.552948     16.00000 ; qtot -0.224
  8573   cC   218    PC   C21 8573     0.897613     12.01000 ; qtot 0.674
  8574   oC   218    PC   O22 8574    -0.673755     16.00000 ; qtot 0.000
  8575   hL   219    MY  H14T 8575     0.025511      1.00800 ; qtot 0.026
  8576   cD   219    MY  C114 8576    -0.111712     12.01000 ; qtot -0.086
  8577   hL   219    MY  H14R 8577     0.025511      1.00800 ; qtot -0.061
  8578   hL   219    MY  H14S 8578     0.025511      1.00800 ; qtot -0.035
  8579   cD   219    MY  C113 8579     0.017463     12.01000 ; qtot -0.018
  8580   hL   219    MY  H13R 8580     0.007531      1.00800 ; qtot -0.010
  8581   hL   219    MY  H13S 8581     0.007531      1.00800 ; qtot -0.003
  8582   cD   219    MY  C112 8582    -0.028094     12.01000 ; qtot -0.031
  8583   hL   219    MY  H12R 8583     0.017208      1.00800 ; qtot -0.014
  8584   hL   219    MY  H12S 8584     0.017208      1.00800 ; qtot 0.004
  8585   cD   219    MY  C111 8585    -0.031787     12.01000 ; qtot -0.028
  8586   hL   219    MY  H11R 8586     0.012677      1.00800 ; qtot -0.015
  8587   hL   219    MY  H11S 8587     0.012677      1.00800 ; qtot -0.003
  8588   cD   219    MY  C110 8588    -0.021025     12.01000 ; qtot -0.024
  8589   hL   219    MY  H10R 8589     0.010037      1.00800 ; qtot -0.014
  8590   hL   219    MY  H10S 8590     0.010037      1.00800 ; qtot -0.004
  8591   cD   219    MY   C19 8591    -0.014653     12.01000 ; qtot -0.018
  8592   hL   219    MY   H9R 8592     0.010172      1.00800 ; qtot -0.008
  8593   hL   219    MY   H9S 8593     0.010172      1.00800 ; qtot 0.002
  8594   cD   219    MY   C18 8594    -0.026451     12.01000 ; qtot -0.024
  8595   hL   219    MY   H8R 8595     0.011241      1.00800 ; qtot -0.013
  8596   hL   219    MY   H8S 8596     0.011241      1.00800 ; qtot -0.002
  8597   cD   219    MY   C17 8597    -0.004386     12.01000 ; qtot -0.006
  8598   hL   219    MY   H7R 8598     0.006833      1.00800 ; qtot 0.000
  8599   hL   219    MY   H7S 8599     0.006833      1.00800 ; qtot 0.007
  8600   cD   219    MY   C16 8600    -0.027812     12.01000 ; qtot -0.021
  8601   hL   219    MY   H6R 8601     0.011511      1.00800 ; qtot -0.009
  8602   hL   219    MY   H6S 8602     0.011511      1.00800 ; qtot 0.002
  8603   cD   219    MY   C15 8603    -0.016521     12.01000 ; qtot -0.014
  8604   hL   219    MY   H5R 8604     0.010573      1.00800 ; qtot -0.003
  8605   hL   219    MY   H5S 8605     0.010573      1.00800 ; qtot 0.007
  8606   cD   219    MY   C14 8606    -0.026954     12.01000 ; qtot -0.020
  8607   hL   219    MY   H4R 8607     0.020431      1.00800 ; qtot 0.001
  8608   hL   219    MY   H4S 8608     0.020431      1.00800 ; qtot 0.021
  8609   cD   219    MY   C13 8609    -0.002435     12.01000 ; qtot 0.019
  8610   hL   219    MY   H3R 8610     0.018859      1.00800 ; qtot 0.037
  8611   hL   219    MY   H3S 8611     0.018859      1.00800 ; qtot 0.056
  8612   cD   219    MY   C12 8612    -0.164200     12.01000 ; qtot -0.108
  8613   hL   219    MY   H2R 8613     0.053944      1.00800 ; qtot -0.054
  8614   hL   219    MY   H2S 8614     0.053944      1.00800 ; qtot -0.000
  8615   hL   220    MY  H14T 8615     0.025511      1.00800 ; qtot 0.026
  8616   cD   220    MY  C114 8616    -0.111712     12.01000 ; qtot -0.086
  8617   hL   220    MY  H14R 8617     0.025511      1.00800 ; qtot -0.061
  8618   hL   220    MY  H14S 8618     0.025511      1.00800 ; qtot -0.035
  8619   cD   220    MY  C113 8619     0.017463     12.01000 ; qtot -0.018
  8620   hL   220    MY  H13R 8620     0.007531      1.00800 ; qtot -0.010
  8621   hL   220    MY  H13S 8621     0.007531      1.00800 ; qtot -0.003
  8622   cD   220    MY  C112 8622    -0.028094     12.01000 ; qtot -0.031
  8623   hL   220    MY  H12R 8623     0.017208      1.00800 ; qtot -0.014
  8624   hL   220    MY  H12S 8624     0.017208      1.00800 ; qtot 0.004
  8625   cD   220    MY  C111 8625    -0.031787     12.01000 ; qtot -0.028
  8626   hL   220    MY  H11R 8626     0.012677      1.00800 ; qtot -0.015
  8627   hL   220    MY  H11S 8627     0.012677      1.00800 ; qtot -0.003
  8628   cD   220    MY  C110 8628    -0.021025     12.01000 ; qtot -0.024
  8629   hL   220    MY  H10R 8629     0.010037      1.00800 ; qtot -0.014
  8630   hL   220    MY  H10S 8630     0.010037      1.00800 ; qtot -0.004
  8631   cD   220    MY   C19 8631    -0.014653     12.01000 ; qtot -0.018
  8632   hL   220    MY   H9R 8632     0.010172      1.00800 ; qtot -0.008
  8633   hL   220    MY   H9S 8633     0.010172      1.00800 ; qtot 0.002
  8634   cD   220    MY   C18 8634    -0.026451     12.01000 ; qtot -0.024
  8635   hL   220    MY   H8R 8635     0.011241      1.00800 ; qtot -0.013
  8636   hL   220    MY   H8S 8636     0.011241      1.00800 ; qtot -0.002
  8637   cD   220    MY   C17 8637    -0.004386     12.01000 ; qtot -0.006
  8638   hL   220    MY   H7R 8638     0.006833      1.00800 ; qtot 0.000
  8639   hL   220    MY   H7S 8639     0.006833      1.00800 ; qtot 0.007
  8640   cD   220    MY   C16 8640    -0.027812     12.01000 ; qtot -0.021
  8641   hL   220    MY   H6R 8641     0.011511      1.00800 ; qtot -0.009
  8642   hL   220    MY   H6S 8642     0.011511      1.00800 ; qtot 0.002
  8643   cD   220    MY   C15 8643    -0.016521     12.01000 ; qtot -0.014
  8644   hL   220    MY   H5R 8644     0.010573      1.00800 ; qtot -0.003
  8645   hL   220    MY   H5S 8645     0.010573      1.00800 ; qtot 0.007
  8646   cD   220    MY   C14 8646    -0.026954     12.01000 ; qtot -0.020
  8647   hL   220    MY   H4R 8647     0.020431      1.00800 ; qtot 0.001
  8648   hL   220    MY   H4S 8648     0.020431      1.00800 ; qtot 0.021
  8649   cD   220    MY   C13 8649    -0.002435     12.01000 ; qtot 0.019
  8650   hL   220    MY   H3R 8650     0.018859      1.00800 ; qtot 0.037
  8651   hL   220    MY   H3S 8651     0.018859      1.00800 ; qtot 0.056
  8652   cD   220    MY   C12 8652    -0.164200     12.01000 ; qtot -0.108
  8653   hL   220    MY   H2R 8653     0.053944      1.00800 ; qtot -0.054
  8654   hL   220    MY   H2S 8654     0.053944      1.00800 ; qtot -0.000
  8655   cC   221    PC   C11 8655     0.910403     12.01000 ; qtot 0.910
  8656   oC   221    PC   O12 8656    -0.671566     16.00000 ; qtot 0.239
  8657   oS   221    PC   O11 8657    -0.575489     16.00000 ; qtot -0.337
  8658   cA   221    PC    C1 8658     0.196939     12.01000 ; qtot -0.140
  8659   hE   221    PC    HR 8659     0.070469      1.00800 ; qtot -0.069
  8660   hE   221    PC    HS 8660     0.070469      1.00800 ; qtot 0.001
  8661   cA   221    PC    C2 8661     0.281242     12.01000 ; qtot 0.282
  8662   hE   221    PC    HX 8662     0.063253      1.00800 ; qtot 0.346
  8663   cA   221    PC    C3 8663     0.017459     12.01000 ; qtot 0.363
  8664   hE   221    PC    HA 8664     0.095591      1.00800 ; qtot 0.459
  8665   hE   221    PC    HB 8665     0.095591      1.00800 ; qtot 0.554
  8666   oT   221    PC   O31 8666    -0.509480     16.00000 ; qtot 0.045
  8667   pA   221    PC   P31 8667     1.339721     30.97000 ; qtot 1.385
  8668   oT   221    PC   O32 8668    -0.508176     16.00000 ; qtot 0.876
  8669   cA   221    PC   C31 8669     0.166801     12.01000 ; qtot 1.043
  8670   hE   221    PC   H1A 8670     0.078534      1.00800 ; qtot 1.122
  8671   hE   221    PC   H1B 8671     0.078534      1.00800 ; qtot 1.200
  8672   cA   221    PC   C32 8672    -0.170824     12.01000 ; qtot 1.029
  8673   hX   221    PC   H2A 8673     0.136415      1.00800 ; qtot 1.166
  8674   hX   221    PC   H2B 8674     0.136415      1.00800 ; qtot 1.302
  8675   nA   221    PC   N31 8675     0.245262     14.01000 ; qtot 1.548
  8676   cA   221    PC   C33 8676    -0.338973     12.01000 ; qtot 1.209
  8677   hX   221    PC   H3A 8677     0.172230      1.00800 ; qtot 1.381
  8678   hX   221    PC   H3B 8678     0.172230      1.00800 ; qtot 1.553
  8679   hX   221    PC   H3C 8679     0.172230      1.00800 ; qtot 1.725
  8680   cA   221    PC   C34 8680    -0.338973     12.01000 ; qtot 1.386
  8681   hX   221    PC   H4A 8681     0.172230      1.00800 ; qtot 1.559
  8682   hX   221    PC   H4B 8682     0.172230      1.00800 ; qtot 1.731
  8683   hX   221    PC   H4C 8683     0.172230      1.00800 ; qtot 1.903
  8684   cA   221    PC   C35 8684    -0.338973     12.01000 ; qtot 1.564
  8685   hX   221    PC   H5A 8685     0.172230      1.00800 ; qtot 1.736
  8686   hX   221    PC   H5B 8686     0.172230      1.00800 ; qtot 1.908
  8687   hX   221    PC   H5C 8687     0.172230      1.00800 ; qtot 2.081
  8688   oP   221    PC   O33 8688    -0.875812     16.00000 ; qtot 1.205
  8689   oP   221    PC   O34 8689    -0.875812     16.00000 ; qtot 0.329
  8690   oS   221    PC   O21 8690    -0.552948     16.00000 ; qtot -0.224
  8691   cC   221    PC   C21 8691     0.897613     12.01000 ; qtot 0.674
  8692   oC   221    PC   O22 8692    -0.673755     16.00000 ; qtot 0.000
  8693   hL   222    MY  H14T 8693     0.025511      1.00800 ; qtot 0.026
  8694   cD   222    MY  C114 8694    -0.111712     12.01000 ; qtot -0.086
  8695   hL   222    MY  H14R 8695     0.025511      1.00800 ; qtot -0.061
  8696   hL   222    MY  H14S 8696     0.025511      1.00800 ; qtot -0.035
  8697   cD   222    MY  C113 8697     0.017463     12.01000 ; qtot -0.018
  8698   hL   222    MY  H13R 8698     0.007531      1.00800 ; qtot -0.010
  8699   hL   222    MY  H13S 8699     0.007531      1.00800 ; qtot -0.003
  8700   cD   222    MY  C112 8700    -0.028094     12.01000 ; qtot -0.031
  8701   hL   222    MY  H12R 8701     0.017208      1.00800 ; qtot -0.014
  8702   hL   222    MY  H12S 8702     0.017208      1.00800 ; qtot 0.004
  8703   cD   222    MY  C111 8703    -0.031787     12.01000 ; qtot -0.028
  8704   hL   222    MY  H11R 8704     0.012677      1.00800 ; qtot -0.015
  8705   hL   222    MY  H11S 8705     0.012677      1.00800 ; qtot -0.003
  8706   cD   222    MY  C110 8706    -0.021025     12.01000 ; qtot -0.024
  8707   hL   222    MY  H10R 8707     0.010037      1.00800 ; qtot -0.014
  8708   hL   222    MY  H10S 8708     0.010037      1.00800 ; qtot -0.004
  8709   cD   222    MY   C19 8709    -0.014653     12.01000 ; qtot -0.018
  8710   hL   222    MY   H9R 8710     0.010172      1.00800 ; qtot -0.008
  8711   hL   222    MY   H9S 8711     0.010172      1.00800 ; qtot 0.002
  8712   cD   222    MY   C18 8712    -0.026451     12.01000 ; qtot -0.024
  8713   hL   222    MY   H8R 8713     0.011241      1.00800 ; qtot -0.013
  8714   hL   222    MY   H8S 8714     0.011241      1.00800 ; qtot -0.002
  8715   cD   222    MY   C17 8715    -0.004386     12.01000 ; qtot -0.006
  8716   hL   222    MY   H7R 8716     0.006833      1.00800 ; qtot 0.000
  8717   hL   222    MY   H7S 8717     0.006833      1.00800 ; qtot 0.007
  8718   cD   222    MY   C16 8718    -0.027812     12.01000 ; qtot -0.021
  8719   hL   222    MY   H6R 8719     0.011511      1.00800 ; qtot -0.009
  8720   hL   222    MY   H6S 8720     0.011511      1.00800 ; qtot 0.002
  8721   cD   222    MY   C15 8721    -0.016521     12.01000 ; qtot -0.014
  8722   hL   222    MY   H5R 8722     0.010573      1.00800 ; qtot -0.003
  8723   hL   222    MY   H5S 8723     0.010573      1.00800 ; qtot 0.007
  8724   cD   222    MY   C14 8724    -0.026954     12.01000 ; qtot -0.020
  8725   hL   222    MY   H4R 8725     0.020431      1.00800 ; qtot 0.001
  8726   hL   222    MY   H4S 8726     0.020431      1.00800 ; qtot 0.021
  8727   cD   222    MY   C13 8727    -0.002435     12.01000 ; qtot 0.019
  8728   hL   222    MY   H3R 8728     0.018859      1.00800 ; qtot 0.037
  8729   hL   222    MY   H3S 8729     0.018859      1.00800 ; qtot 0.056
  8730   cD   222    MY   C12 8730    -0.164200     12.01000 ; qtot -0.108
  8731   hL   222    MY   H2R 8731     0.053944      1.00800 ; qtot -0.054
  8732   hL   222    MY   H2S 8732     0.053944      1.00800 ; qtot -0.000
  8733   hL   223    MY  H14T 8733     0.025511      1.00800 ; qtot 0.026
  8734   cD   223    MY  C114 8734    -0.111712     12.01000 ; qtot -0.086
  8735   hL   223    MY  H14R 8735     0.025511      1.00800 ; qtot -0.061
  8736   hL   223    MY  H14S 8736     0.025511      1.00800 ; qtot -0.035
  8737   cD   223    MY  C113 8737     0.017463     12.01000 ; qtot -0.018
  8738   hL   223    MY  H13R 8738     0.007531      1.00800 ; qtot -0.010
  8739   hL   223    MY  H13S 8739     0.007531      1.00800 ; qtot -0.003
  8740   cD   223    MY  C112 8740    -0.028094     12.01000 ; qtot -0.031
  8741   hL   223    MY  H12R 8741     0.017208      1.00800 ; qtot -0.014
  8742   hL   223    MY  H12S 8742     0.017208      1.00800 ; qtot 0.004
  8743   cD   223    MY  C111 8743    -0.031787     12.01000 ; qtot -0.028
  8744   hL   223    MY  H11R 8744     0.012677      1.00800 ; qtot -0.015
  8745   hL   223    MY  H11S 8745     0.012677      1.00800 ; qtot -0.003
  8746   cD   223    MY  C110 8746    -0.021025     12.01000 ; qtot -0.024
  8747   hL   223    MY  H10R 8747     0.010037      1.00800 ; qtot -0.014
  8748   hL   223    MY  H10S 8748     0.010037      1.00800 ; qtot -0.004
  8749   cD   223    MY   C19 8749    -0.014653     12.01000 ; qtot -0.018
  8750   hL   223    MY   H9R 8750     0.010172      1.00800 ; qtot -0.008
  8751   hL   223    MY   H9S 8751     0.010172      1.00800 ; qtot 0.002
  8752   cD   223    MY   C18 8752    -0.026451     12.01000 ; qtot -0.024
  8753   hL   223    MY   H8R 8753     0.011241      1.00800 ; qtot -0.013
  8754   hL   223    MY   H8S 8754     0.011241      1.00800 ; qtot -0.002
  8755   cD   223    MY   C17 8755    -0.004386     12.01000 ; qtot -0.006
  8756   hL   223    MY   H7R 8756     0.006833      1.00800 ; qtot 0.000
  8757   hL   223    MY   H7S 8757     0.006833      1.00800 ; qtot 0.007
  8758   cD   223    MY   C16 8758    -0.027812     12.01000 ; qtot -0.021
  8759   hL   223    MY   H6R 8759     0.011511      1.00800 ; qtot -0.009
  8760   hL   223    MY   H6S 8760     0.011511      1.00800 ; qtot 0.002
  8761   cD   223    MY   C15 8761    -0.016521     12.01000 ; qtot -0.014
  8762   hL   223    MY   H5R 8762     0.010573      1.00800 ; qtot -0.003
  8763   hL   223    MY   H5S 8763     0.010573      1.00800 ; qtot 0.007
  8764   cD   223    MY   C14 8764    -0.026954     12.01000 ; qtot -0.020
  8765   hL   223    MY   H4R 8765     0.020431      1.00800 ; qtot 0.001
  8766   hL   223    MY   H4S 8766     0.020431      1.00800 ; qtot 0.021
  8767   cD   223    MY   C13 8767    -0.002435     12.01000 ; qtot 0.019
  8768   hL   223    MY   H3R 8768     0.018859      1.00800 ; qtot 0.037
  8769   hL   223    MY   H3S 8769     0.018859      1.00800 ; qtot 0.056
  8770   cD   223    MY   C12 8770    -0.164200     12.01000 ; qtot -0.108
  8771   hL   223    MY   H2R 8771     0.053944      1.00800 ; qtot -0.054
  8772   hL   223    MY   H2S 8772     0.053944      1.00800 ; qtot -0.000
  8773   cC   224    PC   C11 8773     0.910403     12.01000 ; qtot 0.910
  8774   oC   224    PC   O12 8774    -0.671566     16.00000 ; qtot 0.239
  8775   oS   224    PC   O11 8775    -0.575489     16.00000 ; qtot -0.337
  8776   cA   224    PC    C1 8776     0.196939     12.01000 ; qtot -0.140
  8777   hE   224    PC    HR 8777     0.070469      1.00800 ; qtot -0.069
  8778   hE   224    PC    HS 8778     0.070469      1.00800 ; qtot 0.001
  8779   cA   224    PC    C2 8779     0.281242     12.01000 ; qtot 0.282
  8780   hE   224    PC    HX 8780     0.063253      1.00800 ; qtot 0.346
  8781   cA   224    PC    C3 8781     0.017459     12.01000 ; qtot 0.363
  8782   hE   224    PC    HA 8782     0.095591      1.00800 ; qtot 0.459
  8783   hE   224    PC    HB 8783     0.095591      1.00800 ; qtot 0.554
  8784   oT   224    PC   O31 8784    -0.509480     16.00000 ; qtot 0.045
  8785   pA   224    PC   P31 8785     1.339721     30.97000 ; qtot 1.385
  8786   oT   224    PC   O32 8786    -0.508176     16.00000 ; qtot 0.876
  8787   cA   224    PC   C31 8787     0.166801     12.01000 ; qtot 1.043
  8788   hE   224    PC   H1A 8788     0.078534      1.00800 ; qtot 1.122
  8789   hE   224    PC   H1B 8789     0.078534      1.00800 ; qtot 1.200
  8790   cA   224    PC   C32 8790    -0.170824     12.01000 ; qtot 1.029
  8791   hX   224    PC   H2A 8791     0.136415      1.00800 ; qtot 1.166
  8792   hX   224    PC   H2B 8792     0.136415      1.00800 ; qtot 1.302
  8793   nA   224    PC   N31 8793     0.245262     14.01000 ; qtot 1.548
  8794   cA   224    PC   C33 8794    -0.338973     12.01000 ; qtot 1.209
  8795   hX   224    PC   H3A 8795     0.172230      1.00800 ; qtot 1.381
  8796   hX   224    PC   H3B 8796     0.172230      1.00800 ; qtot 1.553
  8797   hX   224    PC   H3C 8797     0.172230      1.00800 ; qtot 1.725
  8798   cA   224    PC   C34 8798    -0.338973     12.01000 ; qtot 1.386
  8799   hX   224    PC   H4A 8799     0.172230      1.00800 ; qtot 1.559
  8800   hX   224    PC   H4B 8800     0.172230      1.00800 ; qtot 1.731
  8801   hX   224    PC   H4C 8801     0.172230      1.00800 ; qtot 1.903
  8802   cA   224    PC   C35 8802    -0.338973     12.01000 ; qtot 1.564
  8803   hX   224    PC   H5A 8803     0.172230      1.00800 ; qtot 1.736
  8804   hX   224    PC   H5B 8804     0.172230      1.00800 ; qtot 1.908
  8805   hX   224    PC   H5C 8805     0.172230      1.00800 ; qtot 2.081
  8806   oP   224    PC   O33 8806    -0.875812     16.00000 ; qtot 1.205
  8807   oP   224    PC   O34 8807    -0.875812     16.00000 ; qtot 0.329
  8808   oS   224    PC   O21 8808    -0.552948     16.00000 ; qtot -0.224
  8809   cC   224    PC   C21 8809     0.897613     12.01000 ; qtot 0.674
  8810   oC   224    PC   O22 8810    -0.673755     16.00000 ; qtot 0.000
  8811   hL   225    MY  H14T 8811     0.025511      1.00800 ; qtot 0.026
  8812   cD   225    MY  C114 8812    -0.111712     12.01000 ; qtot -0.086
  8813   hL   225    MY  H14R 8813     0.025511      1.00800 ; qtot -0.061
  8814   hL   225    MY  H14S 8814     0.025511      1.00800 ; qtot -0.035
  8815   cD   225    MY  C113 8815     0.017463     12.01000 ; qtot -0.018
  8816   hL   225    MY  H13R 8816     0.007531      1.00800 ; qtot -0.010
  8817   hL   225    MY  H13S 8817     0.007531      1.00800 ; qtot -0.003
  8818   cD   225    MY  C112 8818    -0.028094     12.01000 ; qtot -0.031
  8819   hL   225    MY  H12R 8819     0.017208      1.00800 ; qtot -0.014
  8820   hL   225    MY  H12S 8820     0.017208      1.00800 ; qtot 0.004
  8821   cD   225    MY  C111 8821    -0.031787     12.01000 ; qtot -0.028
  8822   hL   225    MY  H11R 8822     0.012677      1.00800 ; qtot -0.015
  8823   hL   225    MY  H11S 8823     0.012677      1.00800 ; qtot -0.003
  8824   cD   225    MY  C110 8824    -0.021025     12.01000 ; qtot -0.024
  8825   hL   225    MY  H10R 8825     0.010037      1.00800 ; qtot -0.014
  8826   hL   225    MY  H10S 8826     0.010037      1.00800 ; qtot -0.004
  8827   cD   225    MY   C19 8827    -0.014653     12.01000 ; qtot -0.018
  8828   hL   225    MY   H9R 8828     0.010172      1.00800 ; qtot -0.008
  8829   hL   225    MY   H9S 8829     0.010172      1.00800 ; qtot 0.002
  8830   cD   225    MY   C18 8830    -0.026451     12.01000 ; qtot -0.024
  8831   hL   225    MY   H8R 8831     0.011241      1.00800 ; qtot -0.013
  8832   hL   225    MY   H8S 8832     0.011241      1.00800 ; qtot -0.002
  8833   cD   225    MY   C17 8833    -0.004386     12.01000 ; qtot -0.006
  8834   hL   225    MY   H7R 8834     0.006833      1.00800 ; qtot 0.000
  8835   hL   225    MY   H7S 8835     0.006833      1.00800 ; qtot 0.007
  8836   cD   225    MY   C16 8836    -0.027812     12.01000 ; qtot -0.021
  8837   hL   225    MY   H6R 8837     0.011511      1.00800 ; qtot -0.009
  8838   hL   225    MY   H6S 8838     0.011511      1.00800 ; qtot 0.002
  8839   cD   225    MY   C15 8839    -0.016521     12.01000 ; qtot -0.014
  8840   hL   225    MY   H5R 8840     0.010573      1.00800 ; qtot -0.003
  8841   hL   225    MY   H5S 8841     0.010573      1.00800 ; qtot 0.007
  8842   cD   225    MY   C14 8842    -0.026954     12.01000 ; qtot -0.020
  8843   hL   225    MY   H4R 8843     0.020431      1.00800 ; qtot 0.001
  8844   hL   225    MY   H4S 8844     0.020431      1.00800 ; qtot 0.021
  8845   cD   225    MY   C13 8845    -0.002435     12.01000 ; qtot 0.019
  8846   hL   225    MY   H3R 8846     0.018859      1.00800 ; qtot 0.037
  8847   hL   225    MY   H3S 8847     0.018859      1.00800 ; qtot 0.056
  8848   cD   225    MY   C12 8848    -0.164200     12.01000 ; qtot -0.108
  8849   hL   225    MY   H2R 8849     0.053944      1.00800 ; qtot -0.054
  8850   hL   225    MY   H2S 8850     0.053944      1.00800 ; qtot -0.000
  8851   hL   226    MY  H14T 8851     0.025511      1.00800 ; qtot 0.026
  8852   cD   226    MY  C114 8852    -0.111712     12.01000 ; qtot -0.086
  8853   hL   226    MY  H14R 8853     0.025511      1.00800 ; qtot -0.061
  8854   hL   226    MY  H14S 8854     0.025511      1.00800 ; qtot -0.035
  8855   cD   226    MY  C113 8855     0.017463     12.01000 ; qtot -0.018
  8856   hL   226    MY  H13R 8856     0.007531      1.00800 ; qtot -0.010
  8857   hL   226    MY  H13S 8857     0.007531      1.00800 ; qtot -0.003
  8858   cD   226    MY  C112 8858    -0.028094     12.01000 ; qtot -0.031
  8859   hL   226    MY  H12R 8859     0.017208      1.00800 ; qtot -0.014
  8860   hL   226    MY  H12S 8860     0.017208      1.00800 ; qtot 0.004
  8861   cD   226    MY  C111 8861    -0.031787     12.01000 ; qtot -0.028
  8862   hL   226    MY  H11R 8862     0.012677      1.00800 ; qtot -0.015
  8863   hL   226    MY  H11S 8863     0.012677      1.00800 ; qtot -0.003
  8864   cD   226    MY  C110 8864    -0.021025     12.01000 ; qtot -0.024
  8865   hL   226    MY  H10R 8865     0.010037      1.00800 ; qtot -0.014
  8866   hL   226    MY  H10S 8866     0.010037      1.00800 ; qtot -0.004
  8867   cD   226    MY   C19 8867    -0.014653     12.01000 ; qtot -0.018
  8868   hL   226    MY   H9R 8868     0.010172      1.00800 ; qtot -0.008
  8869   hL   226    MY   H9S 8869     0.010172      1.00800 ; qtot 0.002
  8870   cD   226    MY   C18 8870    -0.026451     12.01000 ; qtot -0.024
  8871   hL   226    MY   H8R 8871     0.011241      1.00800 ; qtot -0.013
  8872   hL   226    MY   H8S 8872     0.011241      1.00800 ; qtot -0.002
  8873   cD   226    MY   C17 8873    -0.004386     12.01000 ; qtot -0.006
  8874   hL   226    MY   H7R 8874     0.006833      1.00800 ; qtot 0.000
  8875   hL   226    MY   H7S 8875     0.006833      1.00800 ; qtot 0.007
  8876   cD   226    MY   C16 8876    -0.027812     12.01000 ; qtot -0.021
  8877   hL   226    MY   H6R 8877     0.011511      1.00800 ; qtot -0.009
  8878   hL   226    MY   H6S 8878     0.011511      1.00800 ; qtot 0.002
  8879   cD   226    MY   C15 8879    -0.016521     12.01000 ; qtot -0.014
  8880   hL   226    MY   H5R 8880     0.010573      1.00800 ; qtot -0.003
  8881   hL   226    MY   H5S 8881     0.010573      1.00800 ; qtot 0.007
  8882   cD   226    MY   C14 8882    -0.026954     12.01000 ; qtot -0.020
  8883   hL   226    MY   H4R 8883     0.020431      1.00800 ; qtot 0.001
  8884   hL   226    MY   H4S 8884     0.020431      1.00800 ; qtot 0.021
  8885   cD   226    MY   C13 8885    -0.002435     12.01000 ; qtot 0.019
  8886   hL   226    MY   H3R 8886     0.018859      1.00800 ; qtot 0.037
  8887   hL   226    MY   H3S 8887     0.018859      1.00800 ; qtot 0.056
  8888   cD   226    MY   C12 8888    -0.164200     12.01000 ; qtot -0.108
  8889   hL   226    MY   H2R 8889     0.053944      1.00800 ; qtot -0.054
  8890   hL   226    MY   H2S 8890     0.053944      1.00800 ; qtot -0.000
  8891   cC   227    PC   C11 8891     0.910403     12.01000 ; qtot 0.910
  8892   oC   227    PC   O12 8892    -0.671566     16.00000 ; qtot 0.239
  8893   oS   227    PC   O11 8893    -0.575489     16.00000 ; qtot -0.337
  8894   cA   227    PC    C1 8894     0.196939     12.01000 ; qtot -0.140
  8895   hE   227    PC    HR 8895     0.070469      1.00800 ; qtot -0.069
  8896   hE   227    PC    HS 8896     0.070469      1.00800 ; qtot 0.001
  8897   cA   227    PC    C2 8897     0.281242     12.01000 ; qtot 0.282
  8898   hE   227    PC    HX 8898     0.063253      1.00800 ; qtot 0.346
  8899   cA   227    PC    C3 8899     0.017459     12.01000 ; qtot 0.363
  8900   hE   227    PC    HA 8900     0.095591      1.00800 ; qtot 0.459
  8901   hE   227    PC    HB 8901     0.095591      1.00800 ; qtot 0.554
  8902   oT   227    PC   O31 8902    -0.509480     16.00000 ; qtot 0.045
  8903   pA   227    PC   P31 8903     1.339721     30.97000 ; qtot 1.385
  8904   oT   227    PC   O32 8904    -0.508176     16.00000 ; qtot 0.876
  8905   cA   227    PC   C31 8905     0.166801     12.01000 ; qtot 1.043
  8906   hE   227    PC   H1A 8906     0.078534      1.00800 ; qtot 1.122
  8907   hE   227    PC   H1B 8907     0.078534      1.00800 ; qtot 1.200
  8908   cA   227    PC   C32 8908    -0.170824     12.01000 ; qtot 1.029
  8909   hX   227    PC   H2A 8909     0.136415      1.00800 ; qtot 1.166
  8910   hX   227    PC   H2B 8910     0.136415      1.00800 ; qtot 1.302
  8911   nA   227    PC   N31 8911     0.245262     14.01000 ; qtot 1.548
  8912   cA   227    PC   C33 8912    -0.338973     12.01000 ; qtot 1.209
  8913   hX   227    PC   H3A 8913     0.172230      1.00800 ; qtot 1.381
  8914   hX   227    PC   H3B 8914     0.172230      1.00800 ; qtot 1.553
  8915   hX   227    PC   H3C 8915     0.172230      1.00800 ; qtot 1.725
  8916   cA   227    PC   C34 8916    -0.338973     12.01000 ; qtot 1.386
  8917   hX   227    PC   H4A 8917     0.172230      1.00800 ; qtot 1.559
  8918   hX   227    PC   H4B 8918     0.172230      1.00800 ; qtot 1.731
  8919   hX   227    PC   H4C 8919     0.172230      1.00800 ; qtot 1.903
  8920   cA   227    PC   C35 8920    -0.338973     12.01000 ; qtot 1.564
  8921   hX   227    PC   H5A 8921     0.172230      1.00800 ; qtot 1.736
  8922   hX   227    PC   H5B 8922     0.172230      1.00800 ; qtot 1.908
  8923   hX   227    PC   H5C 8923     0.172230      1.00800 ; qtot 2.081
  8924   oP   227    PC   O33 8924    -0.875812     16.00000 ; qtot 1.205
  8925   oP   227    PC   O34 8925    -0.875812     16.00000 ; qtot 0.329
  8926   oS   227    PC   O21 8926    -0.552948     16.00000 ; qtot -0.224
  8927   cC   227    PC   C21 8927     0.897613     12.01000 ; qtot 0.674
  8928   oC   227    PC   O22 8928    -0.673755     16.00000 ; qtot 0.000
  8929   hL   228    MY  H14T 8929     0.025511      1.00800 ; qtot 0.026
  8930   cD   228    MY  C114 8930    -0.111712     12.01000 ; qtot -0.086
  8931   hL   228    MY  H14R 8931     0.025511      1.00800 ; qtot -0.061
  8932   hL   228    MY  H14S 8932     0.025511      1.00800 ; qtot -0.035
  8933   cD   228    MY  C113 8933     0.017463     12.01000 ; qtot -0.018
  8934   hL   228    MY  H13R 8934     0.007531      1.00800 ; qtot -0.010
  8935   hL   228    MY  H13S 8935     0.007531      1.00800 ; qtot -0.003
  8936   cD   228    MY  C112 8936    -0.028094     12.01000 ; qtot -0.031
  8937   hL   228    MY  H12R 8937     0.017208      1.00800 ; qtot -0.014
  8938   hL   228    MY  H12S 8938     0.017208      1.00800 ; qtot 0.004
  8939   cD   228    MY  C111 8939    -0.031787     12.01000 ; qtot -0.028
  8940   hL   228    MY  H11R 8940     0.012677      1.00800 ; qtot -0.015
  8941   hL   228    MY  H11S 8941     0.012677      1.00800 ; qtot -0.003
  8942   cD   228    MY  C110 8942    -0.021025     12.01000 ; qtot -0.024
  8943   hL   228    MY  H10R 8943     0.010037      1.00800 ; qtot -0.014
  8944   hL   228    MY  H10S 8944     0.010037      1.00800 ; qtot -0.004
  8945   cD   228    MY   C19 8945    -0.014653     12.01000 ; qtot -0.018
  8946   hL   228    MY   H9R 8946     0.010172      1.00800 ; qtot -0.008
  8947   hL   228    MY   H9S 8947     0.010172      1.00800 ; qtot 0.002
  8948   cD   228    MY   C18 8948    -0.026451     12.01000 ; qtot -0.024
  8949   hL   228    MY   H8R 8949     0.011241      1.00800 ; qtot -0.013
  8950   hL   228    MY   H8S 8950     0.011241      1.00800 ; qtot -0.002
  8951   cD   228    MY   C17 8951    -0.004386     12.01000 ; qtot -0.006
  8952   hL   228    MY   H7R 8952     0.006833      1.00800 ; qtot 0.000
  8953   hL   228    MY   H7S 8953     0.006833      1.00800 ; qtot 0.007
  8954   cD   228    MY   C16 8954    -0.027812     12.01000 ; qtot -0.021
  8955   hL   228    MY   H6R 8955     0.011511      1.00800 ; qtot -0.009
  8956   hL   228    MY   H6S 8956     0.011511      1.00800 ; qtot 0.002
  8957   cD   228    MY   C15 8957    -0.016521     12.01000 ; qtot -0.014
  8958   hL   228    MY   H5R 8958     0.010573      1.00800 ; qtot -0.003
  8959   hL   228    MY   H5S 8959     0.010573      1.00800 ; qtot 0.007
  8960   cD   228    MY   C14 8960    -0.026954     12.01000 ; qtot -0.020
  8961   hL   228    MY   H4R 8961     0.020431      1.00800 ; qtot 0.001
  8962   hL   228    MY   H4S 8962     0.020431      1.00800 ; qtot 0.021
  8963   cD   228    MY   C13 8963    -0.002435     12.01000 ; qtot 0.019
  8964   hL   228    MY   H3R 8964     0.018859      1.00800 ; qtot 0.037
  8965   hL   228    MY   H3S 8965     0.018859      1.00800 ; qtot 0.056
  8966   cD   228    MY   C12 8966    -0.164200     12.01000 ; qtot -0.108
  8967   hL   228    MY   H2R 8967     0.053944      1.00800 ; qtot -0.054
  8968   hL   228    MY   H2S 8968     0.053944      1.00800 ; qtot -0.000
  8969   hL   229    MY  H14T 8969     0.025511      1.00800 ; qtot 0.026
  8970   cD   229    MY  C114 8970    -0.111712     12.01000 ; qtot -0.086
  8971   hL   229    MY  H14R 8971     0.025511      1.00800 ; qtot -0.061
  8972   hL   229    MY  H14S 8972     0.025511      1.00800 ; qtot -0.035
  8973   cD   229    MY  C113 8973     0.017463     12.01000 ; qtot -0.018
  8974   hL   229    MY  H13R 8974     0.007531      1.00800 ; qtot -0.010
  8975   hL   229    MY  H13S 8975     0.007531      1.00800 ; qtot -0.003
  8976   cD   229    MY  C112 8976    -0.028094     12.01000 ; qtot -0.031
  8977   hL   229    MY  H12R 8977     0.017208      1.00800 ; qtot -0.014
  8978   hL   229    MY  H12S 8978     0.017208      1.00800 ; qtot 0.004
  8979   cD   229    MY  C111 8979    -0.031787     12.01000 ; qtot -0.028
  8980   hL   229    MY  H11R 8980     0.012677      1.00800 ; qtot -0.015
  8981   hL   229    MY  H11S 8981     0.012677      1.00800 ; qtot -0.003
  8982   cD   229    MY  C110 8982    -0.021025     12.01000 ; qtot -0.024
  8983   hL   229    MY  H10R 8983     0.010037      1.00800 ; qtot -0.014
  8984   hL   229    MY  H10S 8984     0.010037      1.00800 ; qtot -0.004
  8985   cD   229    MY   C19 8985    -0.014653     12.01000 ; qtot -0.018
  8986   hL   229    MY   H9R 8986     0.010172      1.00800 ; qtot -0.008
  8987   hL   229    MY   H9S 8987     0.010172      1.00800 ; qtot 0.002
  8988   cD   229    MY   C18 8988    -0.026451     12.01000 ; qtot -0.024
  8989   hL   229    MY   H8R 8989     0.011241      1.00800 ; qtot -0.013
  8990   hL   229    MY   H8S 8990     0.011241      1.00800 ; qtot -0.002
  8991   cD   229    MY   C17 8991    -0.004386     12.01000 ; qtot -0.006
  8992   hL   229    MY   H7R 8992     0.006833      1.00800 ; qtot 0.000
  8993   hL   229    MY   H7S 8993     0.006833      1.00800 ; qtot 0.007
  8994   cD   229    MY   C16 8994    -0.027812     12.01000 ; qtot -0.021
  8995   hL   229    MY   H6R 8995     0.011511      1.00800 ; qtot -0.009
  8996   hL   229    MY   H6S 8996     0.011511      1.00800 ; qtot 0.002
  8997   cD   229    MY   C15 8997    -0.016521     12.01000 ; qtot -0.014
  8998   hL   229    MY   H5R 8998     0.010573      1.00800 ; qtot -0.003
  8999   hL   229    MY   H5S 8999     0.010573      1.00800 ; qtot 0.007
  9000   cD   229    MY   C14 9000    -0.026954     12.01000 ; qtot -0.020
  9001   hL   229    MY   H4R 9001     0.020431      1.00800 ; qtot 0.001
  9002   hL   229    MY   H4S 9002     0.020431      1.00800 ; qtot 0.021
  9003   cD   229    MY   C13 9003    -0.002435     12.01000 ; qtot 0.019
  9004   hL   229    MY   H3R 9004     0.018859      1.00800 ; qtot 0.037
  9005   hL   229    MY   H3S 9005     0.018859      1.00800 ; qtot 0.056
  9006   cD   229    MY   C12 9006    -0.164200     12.01000 ; qtot -0.108
  9007   hL   229    MY   H2R 9007     0.053944      1.00800 ; qtot -0.054
  9008   hL   229    MY   H2S 9008     0.053944      1.00800 ; qtot -0.000
  9009   cC   230    PC   C11 9009     0.910403     12.01000 ; qtot 0.910
  9010   oC   230    PC   O12 9010    -0.671566     16.00000 ; qtot 0.239
  9011   oS   230    PC   O11 9011    -0.575489     16.00000 ; qtot -0.337
  9012   cA   230    PC    C1 9012     0.196939     12.01000 ; qtot -0.140
  9013   hE   230    PC    HR 9013     0.070469      1.00800 ; qtot -0.069
  9014   hE   230    PC    HS 9014     0.070469      1.00800 ; qtot 0.001
  9015   cA   230    PC    C2 9015     0.281242     12.01000 ; qtot 0.282
  9016   hE   230    PC    HX 9016     0.063253      1.00800 ; qtot 0.346
  9017   cA   230    PC    C3 9017     0.017459     12.01000 ; qtot 0.363
  9018   hE   230    PC    HA 9018     0.095591      1.00800 ; qtot 0.459
  9019   hE   230    PC    HB 9019     0.095591      1.00800 ; qtot 0.554
  9020   oT   230    PC   O31 9020    -0.509480     16.00000 ; qtot 0.045
  9021   pA   230    PC   P31 9021     1.339721     30.97000 ; qtot 1.385
  9022   oT   230    PC   O32 9022    -0.508176     16.00000 ; qtot 0.876
  9023   cA   230    PC   C31 9023     0.166801     12.01000 ; qtot 1.043
  9024   hE   230    PC   H1A 9024     0.078534      1.00800 ; qtot 1.122
  9025   hE   230    PC   H1B 9025     0.078534      1.00800 ; qtot 1.200
  9026   cA   230    PC   C32 9026    -0.170824     12.01000 ; qtot 1.029
  9027   hX   230    PC   H2A 9027     0.136415      1.00800 ; qtot 1.166
  9028   hX   230    PC   H2B 9028     0.136415      1.00800 ; qtot 1.302
  9029   nA   230    PC   N31 9029     0.245262     14.01000 ; qtot 1.548
  9030   cA   230    PC   C33 9030    -0.338973     12.01000 ; qtot 1.209
  9031   hX   230    PC   H3A 9031     0.172230      1.00800 ; qtot 1.381
  9032   hX   230    PC   H3B 9032     0.172230      1.00800 ; qtot 1.553
  9033   hX   230    PC   H3C 9033     0.172230      1.00800 ; qtot 1.725
  9034   cA   230    PC   C34 9034    -0.338973     12.01000 ; qtot 1.386
  9035   hX   230    PC   H4A 9035     0.172230      1.00800 ; qtot 1.559
  9036   hX   230    PC   H4B 9036     0.172230      1.00800 ; qtot 1.731
  9037   hX   230    PC   H4C 9037     0.172230      1.00800 ; qtot 1.903
  9038   cA   230    PC   C35 9038    -0.338973     12.01000 ; qtot 1.564
  9039   hX   230    PC   H5A 9039     0.172230      1.00800 ; qtot 1.736
  9040   hX   230    PC   H5B 9040     0.172230      1.00800 ; qtot 1.908
  9041   hX   230    PC   H5C 9041     0.172230      1.00800 ; qtot 2.081
  9042   oP   230    PC   O33 9042    -0.875812     16.00000 ; qtot 1.205
  9043   oP   230    PC   O34 9043    -0.875812     16.00000 ; qtot 0.329
  9044   oS   230    PC   O21 9044    -0.552948     16.00000 ; qtot -0.224
  9045   cC   230    PC   C21 9045     0.897613     12.01000 ; qtot 0.674
  9046   oC   230    PC   O22 9046    -0.673755     16.00000 ; qtot 0.000
  9047   hL   231    MY  H14T 9047     0.025511      1.00800 ; qtot 0.026
  9048   cD   231    MY  C114 9048    -0.111712     12.01000 ; qtot -0.086
  9049   hL   231    MY  H14R 9049     0.025511      1.00800 ; qtot -0.061
  9050   hL   231    MY  H14S 9050     0.025511      1.00800 ; qtot -0.035
  9051   cD   231    MY  C113 9051     0.017463     12.01000 ; qtot -0.018
  9052   hL   231    MY  H13R 9052     0.007531      1.00800 ; qtot -0.010
  9053   hL   231    MY  H13S 9053     0.007531      1.00800 ; qtot -0.003
  9054   cD   231    MY  C112 9054    -0.028094     12.01000 ; qtot -0.031
  9055   hL   231    MY  H12R 9055     0.017208      1.00800 ; qtot -0.014
  9056   hL   231    MY  H12S 9056     0.017208      1.00800 ; qtot 0.004
  9057   cD   231    MY  C111 9057    -0.031787     12.01000 ; qtot -0.028
  9058   hL   231    MY  H11R 9058     0.012677      1.00800 ; qtot -0.015
  9059   hL   231    MY  H11S 9059     0.012677      1.00800 ; qtot -0.003
  9060   cD   231    MY  C110 9060    -0.021025     12.01000 ; qtot -0.024
  9061   hL   231    MY  H10R 9061     0.010037      1.00800 ; qtot -0.014
  9062   hL   231    MY  H10S 9062     0.010037      1.00800 ; qtot -0.004
  9063   cD   231    MY   C19 9063    -0.014653     12.01000 ; qtot -0.018
  9064   hL   231    MY   H9R 9064     0.010172      1.00800 ; qtot -0.008
  9065   hL   231    MY   H9S 9065     0.010172      1.00800 ; qtot 0.002
  9066   cD   231    MY   C18 9066    -0.026451     12.01000 ; qtot -0.024
  9067   hL   231    MY   H8R 9067     0.011241      1.00800 ; qtot -0.013
  9068   hL   231    MY   H8S 9068     0.011241      1.00800 ; qtot -0.002
  9069   cD   231    MY   C17 9069    -0.004386     12.01000 ; qtot -0.006
  9070   hL   231    MY   H7R 9070     0.006833      1.00800 ; qtot 0.000
  9071   hL   231    MY   H7S 9071     0.006833      1.00800 ; qtot 0.007
  9072   cD   231    MY   C16 9072    -0.027812     12.01000 ; qtot -0.021
  9073   hL   231    MY   H6R 9073     0.011511      1.00800 ; qtot -0.009
  9074   hL   231    MY   H6S 9074     0.011511      1.00800 ; qtot 0.002
  9075   cD   231    MY   C15 9075    -0.016521     12.01000 ; qtot -0.014
  9076   hL   231    MY   H5R 9076     0.010573      1.00800 ; qtot -0.003
  9077   hL   231    MY   H5S 9077     0.010573      1.00800 ; qtot 0.007
  9078   cD   231    MY   C14 9078    -0.026954     12.01000 ; qtot -0.020
  9079   hL   231    MY   H4R 9079     0.020431      1.00800 ; qtot 0.001
  9080   hL   231    MY   H4S 9080     0.020431      1.00800 ; qtot 0.021
  9081   cD   231    MY   C13 9081    -0.002435     12.01000 ; qtot 0.019
  9082   hL   231    MY   H3R 9082     0.018859      1.00800 ; qtot 0.037
  9083   hL   231    MY   H3S 9083     0.018859      1.00800 ; qtot 0.056
  9084   cD   231    MY   C12 9084    -0.164200     12.01000 ; qtot -0.108
  9085   hL   231    MY   H2R 9085     0.053944      1.00800 ; qtot -0.054
  9086   hL   231    MY   H2S 9086     0.053944      1.00800 ; qtot -0.000
  9087   hL   232    MY  H14T 9087     0.025511      1.00800 ; qtot 0.026
  9088   cD   232    MY  C114 9088    -0.111712     12.01000 ; qtot -0.086
  9089   hL   232    MY  H14R 9089     0.025511      1.00800 ; qtot -0.061
  9090   hL   232    MY  H14S 9090     0.025511      1.00800 ; qtot -0.035
  9091   cD   232    MY  C113 9091     0.017463     12.01000 ; qtot -0.018
  9092   hL   232    MY  H13R 9092     0.007531      1.00800 ; qtot -0.010
  9093   hL   232    MY  H13S 9093     0.007531      1.00800 ; qtot -0.003
  9094   cD   232    MY  C112 9094    -0.028094     12.01000 ; qtot -0.031
  9095   hL   232    MY  H12R 9095     0.017208      1.00800 ; qtot -0.014
  9096   hL   232    MY  H12S 9096     0.017208      1.00800 ; qtot 0.004
  9097   cD   232    MY  C111 9097    -0.031787     12.01000 ; qtot -0.028
  9098   hL   232    MY  H11R 9098     0.012677      1.00800 ; qtot -0.015
  9099   hL   232    MY  H11S 9099     0.012677      1.00800 ; qtot -0.003
  9100   cD   232    MY  C110 9100    -0.021025     12.01000 ; qtot -0.024
  9101   hL   232    MY  H10R 9101     0.010037      1.00800 ; qtot -0.014
  9102   hL   232    MY  H10S 9102     0.010037      1.00800 ; qtot -0.004
  9103   cD   232    MY   C19 9103    -0.014653     12.01000 ; qtot -0.018
  9104   hL   232    MY   H9R 9104     0.010172      1.00800 ; qtot -0.008
  9105   hL   232    MY   H9S 9105     0.010172      1.00800 ; qtot 0.002
  9106   cD   232    MY   C18 9106    -0.026451     12.01000 ; qtot -0.024
  9107   hL   232    MY   H8R 9107     0.011241      1.00800 ; qtot -0.013
  9108   hL   232    MY   H8S 9108     0.011241      1.00800 ; qtot -0.002
  9109   cD   232    MY   C17 9109    -0.004386     12.01000 ; qtot -0.006
  9110   hL   232    MY   H7R 9110     0.006833      1.00800 ; qtot 0.000
  9111   hL   232    MY   H7S 9111     0.006833      1.00800 ; qtot 0.007
  9112   cD   232    MY   C16 9112    -0.027812     12.01000 ; qtot -0.021
  9113   hL   232    MY   H6R 9113     0.011511      1.00800 ; qtot -0.009
  9114   hL   232    MY   H6S 9114     0.011511      1.00800 ; qtot 0.002
  9115   cD   232    MY   C15 9115    -0.016521     12.01000 ; qtot -0.014
  9116   hL   232    MY   H5R 9116     0.010573      1.00800 ; qtot -0.003
  9117   hL   232    MY   H5S 9117     0.010573      1.00800 ; qtot 0.007
  9118   cD   232    MY   C14 9118    -0.026954     12.01000 ; qtot -0.020
  9119   hL   232    MY   H4R 9119     0.020431      1.00800 ; qtot 0.001
  9120   hL   232    MY   H4S 9120     0.020431      1.00800 ; qtot 0.021
  9121   cD   232    MY   C13 9121    -0.002435     12.01000 ; qtot 0.019
  9122   hL   232    MY   H3R 9122     0.018859      1.00800 ; qtot 0.037
  9123   hL   232    MY   H3S 9123     0.018859      1.00800 ; qtot 0.056
  9124   cD   232    MY   C12 9124    -0.164200     12.01000 ; qtot -0.108
  9125   hL   232    MY   H2R 9125     0.053944      1.00800 ; qtot -0.054
  9126   hL   232    MY   H2S 9126     0.053944      1.00800 ; qtot -0.000
  9127   cC   233    PC   C11 9127     0.910403     12.01000 ; qtot 0.910
  9128   oC   233    PC   O12 9128    -0.671566     16.00000 ; qtot 0.239
  9129   oS   233    PC   O11 9129    -0.575489     16.00000 ; qtot -0.337
  9130   cA   233    PC    C1 9130     0.196939     12.01000 ; qtot -0.140
  9131   hE   233    PC    HR 9131     0.070469      1.00800 ; qtot -0.069
  9132   hE   233    PC    HS 9132     0.070469      1.00800 ; qtot 0.001
  9133   cA   233    PC    C2 9133     0.281242     12.01000 ; qtot 0.282
  9134   hE   233    PC    HX 9134     0.063253      1.00800 ; qtot 0.346
  9135   cA   233    PC    C3 9135     0.017459     12.01000 ; qtot 0.363
  9136   hE   233    PC    HA 9136     0.095591      1.00800 ; qtot 0.459
  9137   hE   233    PC    HB 9137     0.095591      1.00800 ; qtot 0.554
  9138   oT   233    PC   O31 9138    -0.509480     16.00000 ; qtot 0.045
  9139   pA   233    PC   P31 9139     1.339721     30.97000 ; qtot 1.385
  9140   oT   233    PC   O32 9140    -0.508176     16.00000 ; qtot 0.876
  9141   cA   233    PC   C31 9141     0.166801     12.01000 ; qtot 1.043
  9142   hE   233    PC   H1A 9142     0.078534      1.00800 ; qtot 1.122
  9143   hE   233    PC   H1B 9143     0.078534      1.00800 ; qtot 1.200
  9144   cA   233    PC   C32 9144    -0.170824     12.01000 ; qtot 1.029
  9145   hX   233    PC   H2A 9145     0.136415      1.00800 ; qtot 1.166
  9146   hX   233    PC   H2B 9146     0.136415      1.00800 ; qtot 1.302
  9147   nA   233    PC   N31 9147     0.245262     14.01000 ; qtot 1.548
  9148   cA   233    PC   C33 9148    -0.338973     12.01000 ; qtot 1.209
  9149   hX   233    PC   H3A 9149     0.172230      1.00800 ; qtot 1.381
  9150   hX   233    PC   H3B 9150     0.172230      1.00800 ; qtot 1.553
  9151   hX   233    PC   H3C 9151     0.172230      1.00800 ; qtot 1.725
  9152   cA   233    PC   C34 9152    -0.338973     12.01000 ; qtot 1.386
  9153   hX   233    PC   H4A 9153     0.172230      1.00800 ; qtot 1.559
  9154   hX   233    PC   H4B 9154     0.172230      1.00800 ; qtot 1.731
  9155   hX   233    PC   H4C 9155     0.172230      1.00800 ; qtot 1.903
  9156   cA   233    PC   C35 9156    -0.338973     12.01000 ; qtot 1.564
  9157   hX   233    PC   H5A 9157     0.172230      1.00800 ; qtot 1.736
  9158   hX   233    PC   H5B 9158     0.172230      1.00800 ; qtot 1.908
  9159   hX   233    PC   H5C 9159     0.172230      1.00800 ; qtot 2.081
  9160   oP   233    PC   O33 9160    -0.875812     16.00000 ; qtot 1.205
  9161   oP   233    PC   O34 9161    -0.875812     16.00000 ; qtot 0.329
  9162   oS   233    PC   O21 9162    -0.552948     16.00000 ; qtot -0.224
  9163   cC   233    PC   C21 9163     0.897613     12.01000 ; qtot 0.674
  9164   oC   233    PC   O22 9164    -0.673755     16.00000 ; qtot 0.000
  9165   hL   234    MY  H14T 9165     0.025511      1.00800 ; qtot 0.026
  9166   cD   234    MY  C114 9166    -0.111712     12.01000 ; qtot -0.086
  9167   hL   234    MY  H14R 9167     0.025511      1.00800 ; qtot -0.061
  9168   hL   234    MY  H14S 9168     0.025511      1.00800 ; qtot -0.035
  9169   cD   234    MY  C113 9169     0.017463     12.01000 ; qtot -0.018
  9170   hL   234    MY  H13R 9170     0.007531      1.00800 ; qtot -0.010
  9171   hL   234    MY  H13S 9171     0.007531      1.00800 ; qtot -0.003
  9172   cD   234    MY  C112 9172    -0.028094     12.01000 ; qtot -0.031
  9173   hL   234    MY  H12R 9173     0.017208      1.00800 ; qtot -0.014
  9174   hL   234    MY  H12S 9174     0.017208      1.00800 ; qtot 0.004
  9175   cD   234    MY  C111 9175    -0.031787     12.01000 ; qtot -0.028
  9176   hL   234    MY  H11R 9176     0.012677      1.00800 ; qtot -0.015
  9177   hL   234    MY  H11S 9177     0.012677      1.00800 ; qtot -0.003
  9178   cD   234    MY  C110 9178    -0.021025     12.01000 ; qtot -0.024
  9179   hL   234    MY  H10R 9179     0.010037      1.00800 ; qtot -0.014
  9180   hL   234    MY  H10S 9180     0.010037      1.00800 ; qtot -0.004
  9181   cD   234    MY   C19 9181    -0.014653     12.01000 ; qtot -0.018
  9182   hL   234    MY   H9R 9182     0.010172      1.00800 ; qtot -0.008
  9183   hL   234    MY   H9S 9183     0.010172      1.00800 ; qtot 0.002
  9184   cD   234    MY   C18 9184    -0.026451     12.01000 ; qtot -0.024
  9185   hL   234    MY   H8R 9185     0.011241      1.00800 ; qtot -0.013
  9186   hL   234    MY   H8S 9186     0.011241      1.00800 ; qtot -0.002
  9187   cD   234    MY   C17 9187    -0.004386     12.01000 ; qtot -0.006
  9188   hL   234    MY   H7R 9188     0.006833      1.00800 ; qtot 0.000
  9189   hL   234    MY   H7S 9189     0.006833      1.00800 ; qtot 0.007
  9190   cD   234    MY   C16 9190    -0.027812     12.01000 ; qtot -0.021
  9191   hL   234    MY   H6R 9191     0.011511      1.00800 ; qtot -0.009
  9192   hL   234    MY   H6S 9192     0.011511      1.00800 ; qtot 0.002
  9193   cD   234    MY   C15 9193    -0.016521     12.01000 ; qtot -0.014
  9194   hL   234    MY   H5R 9194     0.010573      1.00800 ; qtot -0.003
  9195   hL   234    MY   H5S 9195     0.010573      1.00800 ; qtot 0.007
  9196   cD   234    MY   C14 9196    -0.026954     12.01000 ; qtot -0.020
  9197   hL   234    MY   H4R 9197     0.020431      1.00800 ; qtot 0.001
  9198   hL   234    MY   H4S 9198     0.020431      1.00800 ; qtot 0.021
  9199   cD   234    MY   C13 9199    -0.002435     12.01000 ; qtot 0.019
  9200   hL   234    MY   H3R 9200     0.018859      1.00800 ; qtot 0.037
  9201   hL   234    MY   H3S 9201     0.018859      1.00800 ; qtot 0.056
  9202   cD   234    MY   C12 9202    -0.164200     12.01000 ; qtot -0.108
  9203   hL   234    MY   H2R 9203     0.053944      1.00800 ; qtot -0.054
  9204   hL   234    MY   H2S 9204     0.053944      1.00800 ; qtot -0.000
  9205   hL   235    MY  H14T 9205     0.025511      1.00800 ; qtot 0.026
  9206   cD   235    MY  C114 9206    -0.111712     12.01000 ; qtot -0.086
  9207   hL   235    MY  H14R 9207     0.025511      1.00800 ; qtot -0.061
  9208   hL   235    MY  H14S 9208     0.025511      1.00800 ; qtot -0.035
  9209   cD   235    MY  C113 9209     0.017463     12.01000 ; qtot -0.018
  9210   hL   235    MY  H13R 9210     0.007531      1.00800 ; qtot -0.010
  9211   hL   235    MY  H13S 9211     0.007531      1.00800 ; qtot -0.003
  9212   cD   235    MY  C112 9212    -0.028094     12.01000 ; qtot -0.031
  9213   hL   235    MY  H12R 9213     0.017208      1.00800 ; qtot -0.014
  9214   hL   235    MY  H12S 9214     0.017208      1.00800 ; qtot 0.004
  9215   cD   235    MY  C111 9215    -0.031787     12.01000 ; qtot -0.028
  9216   hL   235    MY  H11R 9216     0.012677      1.00800 ; qtot -0.015
  9217   hL   235    MY  H11S 9217     0.012677      1.00800 ; qtot -0.003
  9218   cD   235    MY  C110 9218    -0.021025     12.01000 ; qtot -0.024
  9219   hL   235    MY  H10R 9219     0.010037      1.00800 ; qtot -0.014
  9220   hL   235    MY  H10S 9220     0.010037      1.00800 ; qtot -0.004
  9221   cD   235    MY   C19 9221    -0.014653     12.01000 ; qtot -0.018
  9222   hL   235    MY   H9R 9222     0.010172      1.00800 ; qtot -0.008
  9223   hL   235    MY   H9S 9223     0.010172      1.00800 ; qtot 0.002
  9224   cD   235    MY   C18 9224    -0.026451     12.01000 ; qtot -0.024
  9225   hL   235    MY   H8R 9225     0.011241      1.00800 ; qtot -0.013
  9226   hL   235    MY   H8S 9226     0.011241      1.00800 ; qtot -0.002
  9227   cD   235    MY   C17 9227    -0.004386     12.01000 ; qtot -0.006
  9228   hL   235    MY   H7R 9228     0.006833      1.00800 ; qtot 0.000
  9229   hL   235    MY   H7S 9229     0.006833      1.00800 ; qtot 0.007
  9230   cD   235    MY   C16 9230    -0.027812     12.01000 ; qtot -0.021
  9231   hL   235    MY   H6R 9231     0.011511      1.00800 ; qtot -0.009
  9232   hL   235    MY   H6S 9232     0.011511      1.00800 ; qtot 0.002
  9233   cD   235    MY   C15 9233    -0.016521     12.01000 ; qtot -0.014
  9234   hL   235    MY   H5R 9234     0.010573      1.00800 ; qtot -0.003
  9235   hL   235    MY   H5S 9235     0.010573      1.00800 ; qtot 0.007
  9236   cD   235    MY   C14 9236    -0.026954     12.01000 ; qtot -0.020
  9237   hL   235    MY   H4R 9237     0.020431      1.00800 ; qtot 0.001
  9238   hL   235    MY   H4S 9238     0.020431      1.00800 ; qtot 0.021
  9239   cD   235    MY   C13 9239    -0.002435     12.01000 ; qtot 0.019
  9240   hL   235    MY   H3R 9240     0.018859      1.00800 ; qtot 0.037
  9241   hL   235    MY   H3S 9241     0.018859      1.00800 ; qtot 0.056
  9242   cD   235    MY   C12 9242    -0.164200     12.01000 ; qtot -0.108
  9243   hL   235    MY   H2R 9243     0.053944      1.00800 ; qtot -0.054
  9244   hL   235    MY   H2S 9244     0.053944      1.00800 ; qtot -0.000
  9245   cC   236    PC   C11 9245     0.910403     12.01000 ; qtot 0.910
  9246   oC   236    PC   O12 9246    -0.671566     16.00000 ; qtot 0.239
  9247   oS   236    PC   O11 9247    -0.575489     16.00000 ; qtot -0.337
  9248   cA   236    PC    C1 9248     0.196939     12.01000 ; qtot -0.140
  9249   hE   236    PC    HR 9249     0.070469      1.00800 ; qtot -0.069
  9250   hE   236    PC    HS 9250     0.070469      1.00800 ; qtot 0.001
  9251   cA   236    PC    C2 9251     0.281242     12.01000 ; qtot 0.282
  9252   hE   236    PC    HX 9252     0.063253      1.00800 ; qtot 0.346
  9253   cA   236    PC    C3 9253     0.017459     12.01000 ; qtot 0.363
  9254   hE   236    PC    HA 9254     0.095591      1.00800 ; qtot 0.459
  9255   hE   236    PC    HB 9255     0.095591      1.00800 ; qtot 0.554
  9256   oT   236    PC   O31 9256    -0.509480     16.00000 ; qtot 0.045
  9257   pA   236    PC   P31 9257     1.339721     30.97000 ; qtot 1.385
  9258   oT   236    PC   O32 9258    -0.508176     16.00000 ; qtot 0.876
  9259   cA   236    PC   C31 9259     0.166801     12.01000 ; qtot 1.043
  9260   hE   236    PC   H1A 9260     0.078534      1.00800 ; qtot 1.122
  9261   hE   236    PC   H1B 9261     0.078534      1.00800 ; qtot 1.200
  9262   cA   236    PC   C32 9262    -0.170824     12.01000 ; qtot 1.029
  9263   hX   236    PC   H2A 9263     0.136415      1.00800 ; qtot 1.166
  9264   hX   236    PC   H2B 9264     0.136415      1.00800 ; qtot 1.302
  9265   nA   236    PC   N31 9265     0.245262     14.01000 ; qtot 1.548
  9266   cA   236    PC   C33 9266    -0.338973     12.01000 ; qtot 1.209
  9267   hX   236    PC   H3A 9267     0.172230      1.00800 ; qtot 1.381
  9268   hX   236    PC   H3B 9268     0.172230      1.00800 ; qtot 1.553
  9269   hX   236    PC   H3C 9269     0.172230      1.00800 ; qtot 1.725
  9270   cA   236    PC   C34 9270    -0.338973     12.01000 ; qtot 1.386
  9271   hX   236    PC   H4A 9271     0.172230      1.00800 ; qtot 1.559
  9272   hX   236    PC   H4B 9272     0.172230      1.00800 ; qtot 1.731
  9273   hX   236    PC   H4C 9273     0.172230      1.00800 ; qtot 1.903
  9274   cA   236    PC   C35 9274    -0.338973     12.01000 ; qtot 1.564
  9275   hX   236    PC   H5A 9275     0.172230      1.00800 ; qtot 1.736
  9276   hX   236    PC   H5B 9276     0.172230      1.00800 ; qtot 1.908
  9277   hX   236    PC   H5C 9277     0.172230      1.00800 ; qtot 2.081
  9278   oP   236    PC   O33 9278    -0.875812     16.00000 ; qtot 1.205
  9279   oP   236    PC   O34 9279    -0.875812     16.00000 ; qtot 0.329
  9280   oS   236    PC   O21 9280    -0.552948     16.00000 ; qtot -0.224
  9281   cC   236    PC   C21 9281     0.897613     12.01000 ; qtot 0.674
  9282   oC   236    PC   O22 9282    -0.673755     16.00000 ; qtot 0.000
  9283   hL   237    MY  H14T 9283     0.025511      1.00800 ; qtot 0.026
  9284   cD   237    MY  C114 9284    -0.111712     12.01000 ; qtot -0.086
  9285   hL   237    MY  H14R 9285     0.025511      1.00800 ; qtot -0.061
  9286   hL   237    MY  H14S 9286     0.025511      1.00800 ; qtot -0.035
  9287   cD   237    MY  C113 9287     0.017463     12.01000 ; qtot -0.018
  9288   hL   237    MY  H13R 9288     0.007531      1.00800 ; qtot -0.010
  9289   hL   237    MY  H13S 9289     0.007531      1.00800 ; qtot -0.003
  9290   cD   237    MY  C112 9290    -0.028094     12.01000 ; qtot -0.031
  9291   hL   237    MY  H12R 9291     0.017208      1.00800 ; qtot -0.014
  9292   hL   237    MY  H12S 9292     0.017208      1.00800 ; qtot 0.004
  9293   cD   237    MY  C111 9293    -0.031787     12.01000 ; qtot -0.028
  9294   hL   237    MY  H11R 9294     0.012677      1.00800 ; qtot -0.015
  9295   hL   237    MY  H11S 9295     0.012677      1.00800 ; qtot -0.003
  9296   cD   237    MY  C110 9296    -0.021025     12.01000 ; qtot -0.024
  9297   hL   237    MY  H10R 9297     0.010037      1.00800 ; qtot -0.014
  9298   hL   237    MY  H10S 9298     0.010037      1.00800 ; qtot -0.004
  9299   cD   237    MY   C19 9299    -0.014653     12.01000 ; qtot -0.018
  9300   hL   237    MY   H9R 9300     0.010172      1.00800 ; qtot -0.008
  9301   hL   237    MY   H9S 9301     0.010172      1.00800 ; qtot 0.002
  9302   cD   237    MY   C18 9302    -0.026451     12.01000 ; qtot -0.024
  9303   hL   237    MY   H8R 9303     0.011241      1.00800 ; qtot -0.013
  9304   hL   237    MY   H8S 9304     0.011241      1.00800 ; qtot -0.002
  9305   cD   237    MY   C17 9305    -0.004386     12.01000 ; qtot -0.006
  9306   hL   237    MY   H7R 9306     0.006833      1.00800 ; qtot 0.000
  9307   hL   237    MY   H7S 9307     0.006833      1.00800 ; qtot 0.007
  9308   cD   237    MY   C16 9308    -0.027812     12.01000 ; qtot -0.021
  9309   hL   237    MY   H6R 9309     0.011511      1.00800 ; qtot -0.009
  9310   hL   237    MY   H6S 9310     0.011511      1.00800 ; qtot 0.002
  9311   cD   237    MY   C15 9311    -0.016521     12.01000 ; qtot -0.014
  9312   hL   237    MY   H5R 9312     0.010573      1.00800 ; qtot -0.003
  9313   hL   237    MY   H5S 9313     0.010573      1.00800 ; qtot 0.007
  9314   cD   237    MY   C14 9314    -0.026954     12.01000 ; qtot -0.020
  9315   hL   237    MY   H4R 9315     0.020431      1.00800 ; qtot 0.001
  9316   hL   237    MY   H4S 9316     0.020431      1.00800 ; qtot 0.021
  9317   cD   237    MY   C13 9317    -0.002435     12.01000 ; qtot 0.019
  9318   hL   237    MY   H3R 9318     0.018859      1.00800 ; qtot 0.037
  9319   hL   237    MY   H3S 9319     0.018859      1.00800 ; qtot 0.056
  9320   cD   237    MY   C12 9320    -0.164200     12.01000 ; qtot -0.108
  9321   hL   237    MY   H2R 9321     0.053944      1.00800 ; qtot -0.054
  9322   hL   237    MY   H2S 9322     0.053944      1.00800 ; qtot -0.000
  9323   hL   238    MY  H14T 9323     0.025511      1.00800 ; qtot 0.026
  9324   cD   238    MY  C114 9324    -0.111712     12.01000 ; qtot -0.086
  9325   hL   238    MY  H14R 9325     0.025511      1.00800 ; qtot -0.061
  9326   hL   238    MY  H14S 9326     0.025511      1.00800 ; qtot -0.035
  9327   cD   238    MY  C113 9327     0.017463     12.01000 ; qtot -0.018
  9328   hL   238    MY  H13R 9328     0.007531      1.00800 ; qtot -0.010
  9329   hL   238    MY  H13S 9329     0.007531      1.00800 ; qtot -0.003
  9330   cD   238    MY  C112 9330    -0.028094     12.01000 ; qtot -0.031
  9331   hL   238    MY  H12R 9331     0.017208      1.00800 ; qtot -0.014
  9332   hL   238    MY  H12S 9332     0.017208      1.00800 ; qtot 0.004
  9333   cD   238    MY  C111 9333    -0.031787     12.01000 ; qtot -0.028
  9334   hL   238    MY  H11R 9334     0.012677      1.00800 ; qtot -0.015
  9335   hL   238    MY  H11S 9335     0.012677      1.00800 ; qtot -0.003
  9336   cD   238    MY  C110 9336    -0.021025     12.01000 ; qtot -0.024
  9337   hL   238    MY  H10R 9337     0.010037      1.00800 ; qtot -0.014
  9338   hL   238    MY  H10S 9338     0.010037      1.00800 ; qtot -0.004
  9339   cD   238    MY   C19 9339    -0.014653     12.01000 ; qtot -0.018
  9340   hL   238    MY   H9R 9340     0.010172      1.00800 ; qtot -0.008
  9341   hL   238    MY   H9S 9341     0.010172      1.00800 ; qtot 0.002
  9342   cD   238    MY   C18 9342    -0.026451     12.01000 ; qtot -0.024
  9343   hL   238    MY   H8R 9343     0.011241      1.00800 ; qtot -0.013
  9344   hL   238    MY   H8S 9344     0.011241      1.00800 ; qtot -0.002
  9345   cD   238    MY   C17 9345    -0.004386     12.01000 ; qtot -0.006
  9346   hL   238    MY   H7R 9346     0.006833      1.00800 ; qtot 0.000
  9347   hL   238    MY   H7S 9347     0.006833      1.00800 ; qtot 0.007
  9348   cD   238    MY   C16 9348    -0.027812     12.01000 ; qtot -0.021
  9349   hL   238    MY   H6R 9349     0.011511      1.00800 ; qtot -0.009
  9350   hL   238    MY   H6S 9350     0.011511      1.00800 ; qtot 0.002
  9351   cD   238    MY   C15 9351    -0.016521     12.01000 ; qtot -0.014
  9352   hL   238    MY   H5R 9352     0.010573      1.00800 ; qtot -0.003
  9353   hL   238    MY   H5S 9353     0.010573      1.00800 ; qtot 0.007
  9354   cD   238    MY   C14 9354    -0.026954     12.01000 ; qtot -0.020
  9355   hL   238    MY   H4R 9355     0.020431      1.00800 ; qtot 0.001
  9356   hL   238    MY   H4S 9356     0.020431      1.00800 ; qtot 0.021
  9357   cD   238    MY   C13 9357    -0.002435     12.01000 ; qtot 0.019
  9358   hL   238    MY   H3R 9358     0.018859      1.00800 ; qtot 0.037
  9359   hL   238    MY   H3S 9359     0.018859      1.00800 ; qtot 0.056
  9360   cD   238    MY   C12 9360    -0.164200     12.01000 ; qtot -0.108
  9361   hL   238    MY   H2R 9361     0.053944      1.00800 ; qtot -0.054
  9362   hL   238    MY   H2S 9362     0.053944      1.00800 ; qtot -0.000
  9363   cC   239    PC   C11 9363     0.910403     12.01000 ; qtot 0.910
  9364   oC   239    PC   O12 9364    -0.671566     16.00000 ; qtot 0.239
  9365   oS   239    PC   O11 9365    -0.575489     16.00000 ; qtot -0.337
  9366   cA   239    PC    C1 9366     0.196939     12.01000 ; qtot -0.140
  9367   hE   239    PC    HR 9367     0.070469      1.00800 ; qtot -0.069
  9368   hE   239    PC    HS 9368     0.070469      1.00800 ; qtot 0.001
  9369   cA   239    PC    C2 9369     0.281242     12.01000 ; qtot 0.282
  9370   hE   239    PC    HX 9370     0.063253      1.00800 ; qtot 0.346
  9371   cA   239    PC    C3 9371     0.017459     12.01000 ; qtot 0.363
  9372   hE   239    PC    HA 9372     0.095591      1.00800 ; qtot 0.459
  9373   hE   239    PC    HB 9373     0.095591      1.00800 ; qtot 0.554
  9374   oT   239    PC   O31 9374    -0.509480     16.00000 ; qtot 0.045
  9375   pA   239    PC   P31 9375     1.339721     30.97000 ; qtot 1.385
  9376   oT   239    PC   O32 9376    -0.508176     16.00000 ; qtot 0.876
  9377   cA   239    PC   C31 9377     0.166801     12.01000 ; qtot 1.043
  9378   hE   239    PC   H1A 9378     0.078534      1.00800 ; qtot 1.122
  9379   hE   239    PC   H1B 9379     0.078534      1.00800 ; qtot 1.200
  9380   cA   239    PC   C32 9380    -0.170824     12.01000 ; qtot 1.029
  9381   hX   239    PC   H2A 9381     0.136415      1.00800 ; qtot 1.166
  9382   hX   239    PC   H2B 9382     0.136415      1.00800 ; qtot 1.302
  9383   nA   239    PC   N31 9383     0.245262     14.01000 ; qtot 1.548
  9384   cA   239    PC   C33 9384    -0.338973     12.01000 ; qtot 1.209
  9385   hX   239    PC   H3A 9385     0.172230      1.00800 ; qtot 1.381
  9386   hX   239    PC   H3B 9386     0.172230      1.00800 ; qtot 1.553
  9387   hX   239    PC   H3C 9387     0.172230      1.00800 ; qtot 1.725
  9388   cA   239    PC   C34 9388    -0.338973     12.01000 ; qtot 1.386
  9389   hX   239    PC   H4A 9389     0.172230      1.00800 ; qtot 1.559
  9390   hX   239    PC   H4B 9390     0.172230      1.00800 ; qtot 1.731
  9391   hX   239    PC   H4C 9391     0.172230      1.00800 ; qtot 1.903
  9392   cA   239    PC   C35 9392    -0.338973     12.01000 ; qtot 1.564
  9393   hX   239    PC   H5A 9393     0.172230      1.00800 ; qtot 1.736
  9394   hX   239    PC   H5B 9394     0.172230      1.00800 ; qtot 1.908
  9395   hX   239    PC   H5C 9395     0.172230      1.00800 ; qtot 2.081
  9396   oP   239    PC   O33 9396    -0.875812     16.00000 ; qtot 1.205
  9397   oP   239    PC   O34 9397    -0.875812     16.00000 ; qtot 0.329
  9398   oS   239    PC   O21 9398    -0.552948     16.00000 ; qtot -0.224
  9399   cC   239    PC   C21 9399     0.897613     12.01000 ; qtot 0.674
  9400   oC   239    PC   O22 9400    -0.673755     16.00000 ; qtot 0.000
  9401   hL   240    MY  H14T 9401     0.025511      1.00800 ; qtot 0.026
  9402   cD   240    MY  C114 9402    -0.111712     12.01000 ; qtot -0.086
  9403   hL   240    MY  H14R 9403     0.025511      1.00800 ; qtot -0.061
  9404   hL   240    MY  H14S 9404     0.025511      1.00800 ; qtot -0.035
  9405   cD   240    MY  C113 9405     0.017463     12.01000 ; qtot -0.018
  9406   hL   240    MY  H13R 9406     0.007531      1.00800 ; qtot -0.010
  9407   hL   240    MY  H13S 9407     0.007531      1.00800 ; qtot -0.003
  9408   cD   240    MY  C112 9408    -0.028094     12.01000 ; qtot -0.031
  9409   hL   240    MY  H12R 9409     0.017208      1.00800 ; qtot -0.014
  9410   hL   240    MY  H12S 9410     0.017208      1.00800 ; qtot 0.004
  9411   cD   240    MY  C111 9411    -0.031787     12.01000 ; qtot -0.028
  9412   hL   240    MY  H11R 9412     0.012677      1.00800 ; qtot -0.015
  9413   hL   240    MY  H11S 9413     0.012677      1.00800 ; qtot -0.003
  9414   cD   240    MY  C110 9414    -0.021025     12.01000 ; qtot -0.024
  9415   hL   240    MY  H10R 9415     0.010037      1.00800 ; qtot -0.014
  9416   hL   240    MY  H10S 9416     0.010037      1.00800 ; qtot -0.004
  9417   cD   240    MY   C19 9417    -0.014653     12.01000 ; qtot -0.018
  9418   hL   240    MY   H9R 9418     0.010172      1.00800 ; qtot -0.008
  9419   hL   240    MY   H9S 9419     0.010172      1.00800 ; qtot 0.002
  9420   cD   240    MY   C18 9420    -0.026451     12.01000 ; qtot -0.024
  9421   hL   240    MY   H8R 9421     0.011241      1.00800 ; qtot -0.013
  9422   hL   240    MY   H8S 9422     0.011241      1.00800 ; qtot -0.002
  9423   cD   240    MY   C17 9423    -0.004386     12.01000 ; qtot -0.006
  9424   hL   240    MY   H7R 9424     0.006833      1.00800 ; qtot 0.000
  9425   hL   240    MY   H7S 9425     0.006833      1.00800 ; qtot 0.007
  9426   cD   240    MY   C16 9426    -0.027812     12.01000 ; qtot -0.021
  9427   hL   240    MY   H6R 9427     0.011511      1.00800 ; qtot -0.009
  9428   hL   240    MY   H6S 9428     0.011511      1.00800 ; qtot 0.002
  9429   cD   240    MY   C15 9429    -0.016521     12.01000 ; qtot -0.014
  9430   hL   240    MY   H5R 9430     0.010573      1.00800 ; qtot -0.003
  9431   hL   240    MY   H5S 9431     0.010573      1.00800 ; qtot 0.007
  9432   cD   240    MY   C14 9432    -0.026954     12.01000 ; qtot -0.020
  9433   hL   240    MY   H4R 9433     0.020431      1.00800 ; qtot 0.001
  9434   hL   240    MY   H4S 9434     0.020431      1.00800 ; qtot 0.021
  9435   cD   240    MY   C13 9435    -0.002435     12.01000 ; qtot 0.019
  9436   hL   240    MY   H3R 9436     0.018859      1.00800 ; qtot 0.037
  9437   hL   240    MY   H3S 9437     0.018859      1.00800 ; qtot 0.056
  9438   cD   240    MY   C12 9438    -0.164200     12.01000 ; qtot -0.108
  9439   hL   240    MY   H2R 9439     0.053944      1.00800 ; qtot -0.054
  9440   hL   240    MY   H2S 9440     0.053944      1.00800 ; qtot -0.000
  9441   hL   241    MY  H14T 9441     0.025511      1.00800 ; qtot 0.026
  9442   cD   241    MY  C114 9442    -0.111712     12.01000 ; qtot -0.086
  9443   hL   241    MY  H14R 9443     0.025511      1.00800 ; qtot -0.061
  9444   hL   241    MY  H14S 9444     0.025511      1.00800 ; qtot -0.035
  9445   cD   241    MY  C113 9445     0.017463     12.01000 ; qtot -0.018
  9446   hL   241    MY  H13R 9446     0.007531      1.00800 ; qtot -0.010
  9447   hL   241    MY  H13S 9447     0.007531      1.00800 ; qtot -0.003
  9448   cD   241    MY  C112 9448    -0.028094     12.01000 ; qtot -0.031
  9449   hL   241    MY  H12R 9449     0.017208      1.00800 ; qtot -0.014
  9450   hL   241    MY  H12S 9450     0.017208      1.00800 ; qtot 0.004
  9451   cD   241    MY  C111 9451    -0.031787     12.01000 ; qtot -0.028
  9452   hL   241    MY  H11R 9452     0.012677      1.00800 ; qtot -0.015
  9453   hL   241    MY  H11S 9453     0.012677      1.00800 ; qtot -0.003
  9454   cD   241    MY  C110 9454    -0.021025     12.01000 ; qtot -0.024
  9455   hL   241    MY  H10R 9455     0.010037      1.00800 ; qtot -0.014
  9456   hL   241    MY  H10S 9456     0.010037      1.00800 ; qtot -0.004
  9457   cD   241    MY   C19 9457    -0.014653     12.01000 ; qtot -0.018
  9458   hL   241    MY   H9R 9458     0.010172      1.00800 ; qtot -0.008
  9459   hL   241    MY   H9S 9459     0.010172      1.00800 ; qtot 0.002
  9460   cD   241    MY   C18 9460    -0.026451     12.01000 ; qtot -0.024
  9461   hL   241    MY   H8R 9461     0.011241      1.00800 ; qtot -0.013
  9462   hL   241    MY   H8S 9462     0.011241      1.00800 ; qtot -0.002
  9463   cD   241    MY   C17 9463    -0.004386     12.01000 ; qtot -0.006
  9464   hL   241    MY   H7R 9464     0.006833      1.00800 ; qtot 0.000
  9465   hL   241    MY   H7S 9465     0.006833      1.00800 ; qtot 0.007
  9466   cD   241    MY   C16 9466    -0.027812     12.01000 ; qtot -0.021
  9467   hL   241    MY   H6R 9467     0.011511      1.00800 ; qtot -0.009
  9468   hL   241    MY   H6S 9468     0.011511      1.00800 ; qtot 0.002
  9469   cD   241    MY   C15 9469    -0.016521     12.01000 ; qtot -0.014
  9470   hL   241    MY   H5R 9470     0.010573      1.00800 ; qtot -0.003
  9471   hL   241    MY   H5S 9471     0.010573      1.00800 ; qtot 0.007
  9472   cD   241    MY   C14 9472    -0.026954     12.01000 ; qtot -0.020
  9473   hL   241    MY   H4R 9473     0.020431      1.00800 ; qtot 0.001
  9474   hL   241    MY   H4S 9474     0.020431      1.00800 ; qtot 0.021
  9475   cD   241    MY   C13 9475    -0.002435     12.01000 ; qtot 0.019
  9476   hL   241    MY   H3R 9476     0.018859      1.00800 ; qtot 0.037
  9477   hL   241    MY   H3S 9477     0.018859      1.00800 ; qtot 0.056
  9478   cD   241    MY   C12 9478    -0.164200     12.01000 ; qtot -0.108
  9479   hL   241    MY   H2R 9479     0.053944      1.00800 ; qtot -0.054
  9480   hL   241    MY   H2S 9480     0.053944      1.00800 ; qtot -0.000
  9481   cC   242    PC   C11 9481     0.910403     12.01000 ; qtot 0.910
  9482   oC   242    PC   O12 9482    -0.671566     16.00000 ; qtot 0.239
  9483   oS   242    PC   O11 9483    -0.575489     16.00000 ; qtot -0.337
  9484   cA   242    PC    C1 9484     0.196939     12.01000 ; qtot -0.140
  9485   hE   242    PC    HR 9485     0.070469      1.00800 ; qtot -0.069
  9486   hE   242    PC    HS 9486     0.070469      1.00800 ; qtot 0.001
  9487   cA   242    PC    C2 9487     0.281242     12.01000 ; qtot 0.282
  9488   hE   242    PC    HX 9488     0.063253      1.00800 ; qtot 0.346
  9489   cA   242    PC    C3 9489     0.017459     12.01000 ; qtot 0.363
  9490   hE   242    PC    HA 9490     0.095591      1.00800 ; qtot 0.459
  9491   hE   242    PC    HB 9491     0.095591      1.00800 ; qtot 0.554
  9492   oT   242    PC   O31 9492    -0.509480     16.00000 ; qtot 0.045
  9493   pA   242    PC   P31 9493     1.339721     30.97000 ; qtot 1.385
  9494   oT   242    PC   O32 9494    -0.508176     16.00000 ; qtot 0.876
  9495   cA   242    PC   C31 9495     0.166801     12.01000 ; qtot 1.043
  9496   hE   242    PC   H1A 9496     0.078534      1.00800 ; qtot 1.122
  9497   hE   242    PC   H1B 9497     0.078534      1.00800 ; qtot 1.200
  9498   cA   242    PC   C32 9498    -0.170824     12.01000 ; qtot 1.029
  9499   hX   242    PC   H2A 9499     0.136415      1.00800 ; qtot 1.166
  9500   hX   242    PC   H2B 9500     0.136415      1.00800 ; qtot 1.302
  9501   nA   242    PC   N31 9501     0.245262     14.01000 ; qtot 1.548
  9502   cA   242    PC   C33 9502    -0.338973     12.01000 ; qtot 1.209
  9503   hX   242    PC   H3A 9503     0.172230      1.00800 ; qtot 1.381
  9504   hX   242    PC   H3B 9504     0.172230      1.00800 ; qtot 1.553
  9505   hX   242    PC   H3C 9505     0.172230      1.00800 ; qtot 1.725
  9506   cA   242    PC   C34 9506    -0.338973     12.01000 ; qtot 1.386
  9507   hX   242    PC   H4A 9507     0.172230      1.00800 ; qtot 1.559
  9508   hX   242    PC   H4B 9508     0.172230      1.00800 ; qtot 1.731
  9509   hX   242    PC   H4C 9509     0.172230      1.00800 ; qtot 1.903
  9510   cA   242    PC   C35 9510    -0.338973     12.01000 ; qtot 1.564
  9511   hX   242    PC   H5A 9511     0.172230      1.00800 ; qtot 1.736
  9512   hX   242    PC   H5B 9512     0.172230      1.00800 ; qtot 1.908
  9513   hX   242    PC   H5C 9513     0.172230      1.00800 ; qtot 2.081
  9514   oP   242    PC   O33 9514    -0.875812     16.00000 ; qtot 1.205
  9515   oP   242    PC   O34 9515    -0.875812     16.00000 ; qtot 0.329
  9516   oS   242    PC   O21 9516    -0.552948     16.00000 ; qtot -0.224
  9517   cC   242    PC   C21 9517     0.897613     12.01000 ; qtot 0.674
  9518   oC   242    PC   O22 9518    -0.673755     16.00000 ; qtot 0.000
  9519   hL   243    MY  H14T 9519     0.025511      1.00800 ; qtot 0.026
  9520   cD   243    MY  C114 9520    -0.111712     12.01000 ; qtot -0.086
  9521   hL   243    MY  H14R 9521     0.025511      1.00800 ; qtot -0.061
  9522   hL   243    MY  H14S 9522     0.025511      1.00800 ; qtot -0.035
  9523   cD   243    MY  C113 9523     0.017463     12.01000 ; qtot -0.018
  9524   hL   243    MY  H13R 9524     0.007531      1.00800 ; qtot -0.010
  9525   hL   243    MY  H13S 9525     0.007531      1.00800 ; qtot -0.003
  9526   cD   243    MY  C112 9526    -0.028094     12.01000 ; qtot -0.031
  9527   hL   243    MY  H12R 9527     0.017208      1.00800 ; qtot -0.014
  9528   hL   243    MY  H12S 9528     0.017208      1.00800 ; qtot 0.004
  9529   cD   243    MY  C111 9529    -0.031787     12.01000 ; qtot -0.028
  9530   hL   243    MY  H11R 9530     0.012677      1.00800 ; qtot -0.015
  9531   hL   243    MY  H11S 9531     0.012677      1.00800 ; qtot -0.003
  9532   cD   243    MY  C110 9532    -0.021025     12.01000 ; qtot -0.024
  9533   hL   243    MY  H10R 9533     0.010037      1.00800 ; qtot -0.014
  9534   hL   243    MY  H10S 9534     0.010037      1.00800 ; qtot -0.004
  9535   cD   243    MY   C19 9535    -0.014653     12.01000 ; qtot -0.018
  9536   hL   243    MY   H9R 9536     0.010172      1.00800 ; qtot -0.008
  9537   hL   243    MY   H9S 9537     0.010172      1.00800 ; qtot 0.002
  9538   cD   243    MY   C18 9538    -0.026451     12.01000 ; qtot -0.024
  9539   hL   243    MY   H8R 9539     0.011241      1.00800 ; qtot -0.013
  9540   hL   243    MY   H8S 9540     0.011241      1.00800 ; qtot -0.002
  9541   cD   243    MY   C17 9541    -0.004386     12.01000 ; qtot -0.006
  9542   hL   243    MY   H7R 9542     0.006833      1.00800 ; qtot 0.000
  9543   hL   243    MY   H7S 9543     0.006833      1.00800 ; qtot 0.007
  9544   cD   243    MY   C16 9544    -0.027812     12.01000 ; qtot -0.021
  9545   hL   243    MY   H6R 9545     0.011511      1.00800 ; qtot -0.009
  9546   hL   243    MY   H6S 9546     0.011511      1.00800 ; qtot 0.002
  9547   cD   243    MY   C15 9547    -0.016521     12.01000 ; qtot -0.014
  9548   hL   243    MY   H5R 9548     0.010573      1.00800 ; qtot -0.003
  9549   hL   243    MY   H5S 9549     0.010573      1.00800 ; qtot 0.007
  9550   cD   243    MY   C14 9550    -0.026954     12.01000 ; qtot -0.020
  9551   hL   243    MY   H4R 9551     0.020431      1.00800 ; qtot 0.001
  9552   hL   243    MY   H4S 9552     0.020431      1.00800 ; qtot 0.021
  9553   cD   243    MY   C13 9553    -0.002435     12.01000 ; qtot 0.019
  9554   hL   243    MY   H3R 9554     0.018859      1.00800 ; qtot 0.037
  9555   hL   243    MY   H3S 9555     0.018859      1.00800 ; qtot 0.056
  9556   cD   243    MY   C12 9556    -0.164200     12.01000 ; qtot -0.108
  9557   hL   243    MY   H2R 9557     0.053944      1.00800 ; qtot -0.054
  9558   hL   243    MY   H2S 9558     0.053944      1.00800 ; qtot -0.000
  9559   hL   244    MY  H14T 9559     0.025511      1.00800 ; qtot 0.026
  9560   cD   244    MY  C114 9560    -0.111712     12.01000 ; qtot -0.086
  9561   hL   244    MY  H14R 9561     0.025511      1.00800 ; qtot -0.061
  9562   hL   244    MY  H14S 9562     0.025511      1.00800 ; qtot -0.035
  9563   cD   244    MY  C113 9563     0.017463     12.01000 ; qtot -0.018
  9564   hL   244    MY  H13R 9564     0.007531      1.00800 ; qtot -0.010
  9565   hL   244    MY  H13S 9565     0.007531      1.00800 ; qtot -0.003
  9566   cD   244    MY  C112 9566    -0.028094     12.01000 ; qtot -0.031
  9567   hL   244    MY  H12R 9567     0.017208      1.00800 ; qtot -0.014
  9568   hL   244    MY  H12S 9568     0.017208      1.00800 ; qtot 0.004
  9569   cD   244    MY  C111 9569    -0.031787     12.01000 ; qtot -0.028
  9570   hL   244    MY  H11R 9570     0.012677      1.00800 ; qtot -0.015
  9571   hL   244    MY  H11S 9571     0.012677      1.00800 ; qtot -0.003
  9572   cD   244    MY  C110 9572    -0.021025     12.01000 ; qtot -0.024
  9573   hL   244    MY  H10R 9573     0.010037      1.00800 ; qtot -0.014
  9574   hL   244    MY  H10S 9574     0.010037      1.00800 ; qtot -0.004
  9575   cD   244    MY   C19 9575    -0.014653     12.01000 ; qtot -0.018
  9576   hL   244    MY   H9R 9576     0.010172      1.00800 ; qtot -0.008
  9577   hL   244    MY   H9S 9577     0.010172      1.00800 ; qtot 0.002
  9578   cD   244    MY   C18 9578    -0.026451     12.01000 ; qtot -0.024
  9579   hL   244    MY   H8R 9579     0.011241      1.00800 ; qtot -0.013
  9580   hL   244    MY   H8S 9580     0.011241      1.00800 ; qtot -0.002
  9581   cD   244    MY   C17 9581    -0.004386     12.01000 ; qtot -0.006
  9582   hL   244    MY   H7R 9582     0.006833      1.00800 ; qtot 0.000
  9583   hL   244    MY   H7S 9583     0.006833      1.00800 ; qtot 0.007
  9584   cD   244    MY   C16 9584    -0.027812     12.01000 ; qtot -0.021
  9585   hL   244    MY   H6R 9585     0.011511      1.00800 ; qtot -0.009
  9586   hL   244    MY   H6S 9586     0.011511      1.00800 ; qtot 0.002
  9587   cD   244    MY   C15 9587    -0.016521     12.01000 ; qtot -0.014
  9588   hL   244    MY   H5R 9588     0.010573      1.00800 ; qtot -0.003
  9589   hL   244    MY   H5S 9589     0.010573      1.00800 ; qtot 0.007
  9590   cD   244    MY   C14 9590    -0.026954     12.01000 ; qtot -0.020
  9591   hL   244    MY   H4R 9591     0.020431      1.00800 ; qtot 0.001
  9592   hL   244    MY   H4S 9592     0.020431      1.00800 ; qtot 0.021
  9593   cD   244    MY   C13 9593    -0.002435     12.01000 ; qtot 0.019
  9594   hL   244    MY   H3R 9594     0.018859      1.00800 ; qtot 0.037
  9595   hL   244    MY   H3S 9595     0.018859      1.00800 ; qtot 0.056
  9596   cD   244    MY   C12 9596    -0.164200     12.01000 ; qtot -0.108
  9597   hL   244    MY   H2R 9597     0.053944      1.00800 ; qtot -0.054
  9598   hL   244    MY   H2S 9598     0.053944      1.00800 ; qtot -0.000
  9599   cC   245    PC   C11 9599     0.910403     12.01000 ; qtot 0.910
  9600   oC   245    PC   O12 9600    -0.671566     16.00000 ; qtot 0.239
  9601   oS   245    PC   O11 9601    -0.575489     16.00000 ; qtot -0.337
  9602   cA   245    PC    C1 9602     0.196939     12.01000 ; qtot -0.140
  9603   hE   245    PC    HR 9603     0.070469      1.00800 ; qtot -0.069
  9604   hE   245    PC    HS 9604     0.070469      1.00800 ; qtot 0.001
  9605   cA   245    PC    C2 9605     0.281242     12.01000 ; qtot 0.282
  9606   hE   245    PC    HX 9606     0.063253      1.00800 ; qtot 0.346
  9607   cA   245    PC    C3 9607     0.017459     12.01000 ; qtot 0.363
  9608   hE   245    PC    HA 9608     0.095591      1.00800 ; qtot 0.459
  9609   hE   245    PC    HB 9609     0.095591      1.00800 ; qtot 0.554
  9610   oT   245    PC   O31 9610    -0.509480     16.00000 ; qtot 0.045
  9611   pA   245    PC   P31 9611     1.339721     30.97000 ; qtot 1.385
  9612   oT   245    PC   O32 9612    -0.508176     16.00000 ; qtot 0.876
  9613   cA   245    PC   C31 9613     0.166801     12.01000 ; qtot 1.043
  9614   hE   245    PC   H1A 9614     0.078534      1.00800 ; qtot 1.122
  9615   hE   245    PC   H1B 9615     0.078534      1.00800 ; qtot 1.200
  9616   cA   245    PC   C32 9616    -0.170824     12.01000 ; qtot 1.029
  9617   hX   245    PC   H2A 9617     0.136415      1.00800 ; qtot 1.166
  9618   hX   245    PC   H2B 9618     0.136415      1.00800 ; qtot 1.302
  9619   nA   245    PC   N31 9619     0.245262     14.01000 ; qtot 1.548
  9620   cA   245    PC   C33 9620    -0.338973     12.01000 ; qtot 1.209
  9621   hX   245    PC   H3A 9621     0.172230      1.00800 ; qtot 1.381
  9622   hX   245    PC   H3B 9622     0.172230      1.00800 ; qtot 1.553
  9623   hX   245    PC   H3C 9623     0.172230      1.00800 ; qtot 1.725
  9624   cA   245    PC   C34 9624    -0.338973     12.01000 ; qtot 1.386
  9625   hX   245    PC   H4A 9625     0.172230      1.00800 ; qtot 1.559
  9626   hX   245    PC   H4B 9626     0.172230      1.00800 ; qtot 1.731
  9627   hX   245    PC   H4C 9627     0.172230      1.00800 ; qtot 1.903
  9628   cA   245    PC   C35 9628    -0.338973     12.01000 ; qtot 1.564
  9629   hX   245    PC   H5A 9629     0.172230      1.00800 ; qtot 1.736
  9630   hX   245    PC   H5B 9630     0.172230      1.00800 ; qtot 1.908
  9631   hX   245    PC   H5C 9631     0.172230      1.00800 ; qtot 2.081
  9632   oP   245    PC   O33 9632    -0.875812     16.00000 ; qtot 1.205
  9633   oP   245    PC   O34 9633    -0.875812     16.00000 ; qtot 0.329
  9634   oS   245    PC   O21 9634    -0.552948     16.00000 ; qtot -0.224
  9635   cC   245    PC   C21 9635     0.897613     12.01000 ; qtot 0.674
  9636   oC   245    PC   O22 9636    -0.673755     16.00000 ; qtot 0.000
  9637   hL   246    MY  H14T 9637     0.025511      1.00800 ; qtot 0.026
  9638   cD   246    MY  C114 9638    -0.111712     12.01000 ; qtot -0.086
  9639   hL   246    MY  H14R 9639     0.025511      1.00800 ; qtot -0.061
  9640   hL   246    MY  H14S 9640     0.025511      1.00800 ; qtot -0.035
  9641   cD   246    MY  C113 9641     0.017463     12.01000 ; qtot -0.018
  9642   hL   246    MY  H13R 9642     0.007531      1.00800 ; qtot -0.010
  9643   hL   246    MY  H13S 9643     0.007531      1.00800 ; qtot -0.003
  9644   cD   246    MY  C112 9644    -0.028094     12.01000 ; qtot -0.031
  9645   hL   246    MY  H12R 9645     0.017208      1.00800 ; qtot -0.014
  9646   hL   246    MY  H12S 9646     0.017208      1.00800 ; qtot 0.004
  9647   cD   246    MY  C111 9647    -0.031787     12.01000 ; qtot -0.028
  9648   hL   246    MY  H11R 9648     0.012677      1.00800 ; qtot -0.015
  9649   hL   246    MY  H11S 9649     0.012677      1.00800 ; qtot -0.003
  9650   cD   246    MY  C110 9650    -0.021025     12.01000 ; qtot -0.024
  9651   hL   246    MY  H10R 9651     0.010037      1.00800 ; qtot -0.014
  9652   hL   246    MY  H10S 9652     0.010037      1.00800 ; qtot -0.004
  9653   cD   246    MY   C19 9653    -0.014653     12.01000 ; qtot -0.018
  9654   hL   246    MY   H9R 9654     0.010172      1.00800 ; qtot -0.008
  9655   hL   246    MY   H9S 9655     0.010172      1.00800 ; qtot 0.002
  9656   cD   246    MY   C18 9656    -0.026451     12.01000 ; qtot -0.024
  9657   hL   246    MY   H8R 9657     0.011241      1.00800 ; qtot -0.013
  9658   hL   246    MY   H8S 9658     0.011241      1.00800 ; qtot -0.002
  9659   cD   246    MY   C17 9659    -0.004386     12.01000 ; qtot -0.006
  9660   hL   246    MY   H7R 9660     0.006833      1.00800 ; qtot 0.000
  9661   hL   246    MY   H7S 9661     0.006833      1.00800 ; qtot 0.007
  9662   cD   246    MY   C16 9662    -0.027812     12.01000 ; qtot -0.021
  9663   hL   246    MY   H6R 9663     0.011511      1.00800 ; qtot -0.009
  9664   hL   246    MY   H6S 9664     0.011511      1.00800 ; qtot 0.002
  9665   cD   246    MY   C15 9665    -0.016521     12.01000 ; qtot -0.014
  9666   hL   246    MY   H5R 9666     0.010573      1.00800 ; qtot -0.003
  9667   hL   246    MY   H5S 9667     0.010573      1.00800 ; qtot 0.007
  9668   cD   246    MY   C14 9668    -0.026954     12.01000 ; qtot -0.020
  9669   hL   246    MY   H4R 9669     0.020431      1.00800 ; qtot 0.001
  9670   hL   246    MY   H4S 9670     0.020431      1.00800 ; qtot 0.021
  9671   cD   246    MY   C13 9671    -0.002435     12.01000 ; qtot 0.019
  9672   hL   246    MY   H3R 9672     0.018859      1.00800 ; qtot 0.037
  9673   hL   246    MY   H3S 9673     0.018859      1.00800 ; qtot 0.056
  9674   cD   246    MY   C12 9674    -0.164200     12.01000 ; qtot -0.108
  9675   hL   246    MY   H2R 9675     0.053944      1.00800 ; qtot -0.054
  9676   hL   246    MY   H2S 9676     0.053944      1.00800 ; qtot -0.000
  9677   hL   247    MY  H14T 9677     0.025511      1.00800 ; qtot 0.026
  9678   cD   247    MY  C114 9678    -0.111712     12.01000 ; qtot -0.086
  9679   hL   247    MY  H14R 9679     0.025511      1.00800 ; qtot -0.061
  9680   hL   247    MY  H14S 9680     0.025511      1.00800 ; qtot -0.035
  9681   cD   247    MY  C113 9681     0.017463     12.01000 ; qtot -0.018
  9682   hL   247    MY  H13R 9682     0.007531      1.00800 ; qtot -0.010
  9683   hL   247    MY  H13S 9683     0.007531      1.00800 ; qtot -0.003
  9684   cD   247    MY  C112 9684    -0.028094     12.01000 ; qtot -0.031
  9685   hL   247    MY  H12R 9685     0.017208      1.00800 ; qtot -0.014
  9686   hL   247    MY  H12S 9686     0.017208      1.00800 ; qtot 0.004
  9687   cD   247    MY  C111 9687    -0.031787     12.01000 ; qtot -0.028
  9688   hL   247    MY  H11R 9688     0.012677      1.00800 ; qtot -0.015
  9689   hL   247    MY  H11S 9689     0.012677      1.00800 ; qtot -0.003
  9690   cD   247    MY  C110 9690    -0.021025     12.01000 ; qtot -0.024
  9691   hL   247    MY  H10R 9691     0.010037      1.00800 ; qtot -0.014
  9692   hL   247    MY  H10S 9692     0.010037      1.00800 ; qtot -0.004
  9693   cD   247    MY   C19 9693    -0.014653     12.01000 ; qtot -0.018
  9694   hL   247    MY   H9R 9694     0.010172      1.00800 ; qtot -0.008
  9695   hL   247    MY   H9S 9695     0.010172      1.00800 ; qtot 0.002
  9696   cD   247    MY   C18 9696    -0.026451     12.01000 ; qtot -0.024
  9697   hL   247    MY   H8R 9697     0.011241      1.00800 ; qtot -0.013
  9698   hL   247    MY   H8S 9698     0.011241      1.00800 ; qtot -0.002
  9699   cD   247    MY   C17 9699    -0.004386     12.01000 ; qtot -0.006
  9700   hL   247    MY   H7R 9700     0.006833      1.00800 ; qtot 0.000
  9701   hL   247    MY   H7S 9701     0.006833      1.00800 ; qtot 0.007
  9702   cD   247    MY   C16 9702    -0.027812     12.01000 ; qtot -0.021
  9703   hL   247    MY   H6R 9703     0.011511      1.00800 ; qtot -0.009
  9704   hL   247    MY   H6S 9704     0.011511      1.00800 ; qtot 0.002
  9705   cD   247    MY   C15 9705    -0.016521     12.01000 ; qtot -0.014
  9706   hL   247    MY   H5R 9706     0.010573      1.00800 ; qtot -0.003
  9707   hL   247    MY   H5S 9707     0.010573      1.00800 ; qtot 0.007
  9708   cD   247    MY   C14 9708    -0.026954     12.01000 ; qtot -0.020
  9709   hL   247    MY   H4R 9709     0.020431      1.00800 ; qtot 0.001
  9710   hL   247    MY   H4S 9710     0.020431      1.00800 ; qtot 0.021
  9711   cD   247    MY   C13 9711    -0.002435     12.01000 ; qtot 0.019
  9712   hL   247    MY   H3R 9712     0.018859      1.00800 ; qtot 0.037
  9713   hL   247    MY   H3S 9713     0.018859      1.00800 ; qtot 0.056
  9714   cD   247    MY   C12 9714    -0.164200     12.01000 ; qtot -0.108
  9715   hL   247    MY   H2R 9715     0.053944      1.00800 ; qtot -0.054
  9716   hL   247    MY   H2S 9716     0.053944      1.00800 ; qtot -0.000
  9717   cC   248    PC   C11 9717     0.910403     12.01000 ; qtot 0.910
  9718   oC   248    PC   O12 9718    -0.671566     16.00000 ; qtot 0.239
  9719   oS   248    PC   O11 9719    -0.575489     16.00000 ; qtot -0.337
  9720   cA   248    PC    C1 9720     0.196939     12.01000 ; qtot -0.140
  9721   hE   248    PC    HR 9721     0.070469      1.00800 ; qtot -0.069
  9722   hE   248    PC    HS 9722     0.070469      1.00800 ; qtot 0.001
  9723   cA   248    PC    C2 9723     0.281242     12.01000 ; qtot 0.282
  9724   hE   248    PC    HX 9724     0.063253      1.00800 ; qtot 0.346
  9725   cA   248    PC    C3 9725     0.017459     12.01000 ; qtot 0.363
  9726   hE   248    PC    HA 9726     0.095591      1.00800 ; qtot 0.459
  9727   hE   248    PC    HB 9727     0.095591      1.00800 ; qtot 0.554
  9728   oT   248    PC   O31 9728    -0.509480     16.00000 ; qtot 0.045
  9729   pA   248    PC   P31 9729     1.339721     30.97000 ; qtot 1.385
  9730   oT   248    PC   O32 9730    -0.508176     16.00000 ; qtot 0.876
  9731   cA   248    PC   C31 9731     0.166801     12.01000 ; qtot 1.043
  9732   hE   248    PC   H1A 9732     0.078534      1.00800 ; qtot 1.122
  9733   hE   248    PC   H1B 9733     0.078534      1.00800 ; qtot 1.200
  9734   cA   248    PC   C32 9734    -0.170824     12.01000 ; qtot 1.029
  9735   hX   248    PC   H2A 9735     0.136415      1.00800 ; qtot 1.166
  9736   hX   248    PC   H2B 9736     0.136415      1.00800 ; qtot 1.302
  9737   nA   248    PC   N31 9737     0.245262     14.01000 ; qtot 1.548
  9738   cA   248    PC   C33 9738    -0.338973     12.01000 ; qtot 1.209
  9739   hX   248    PC   H3A 9739     0.172230      1.00800 ; qtot 1.381
  9740   hX   248    PC   H3B 9740     0.172230      1.00800 ; qtot 1.553
  9741   hX   248    PC   H3C 9741     0.172230      1.00800 ; qtot 1.725
  9742   cA   248    PC   C34 9742    -0.338973     12.01000 ; qtot 1.386
  9743   hX   248    PC   H4A 9743     0.172230      1.00800 ; qtot 1.559
  9744   hX   248    PC   H4B 9744     0.172230      1.00800 ; qtot 1.731
  9745   hX   248    PC   H4C 9745     0.172230      1.00800 ; qtot 1.903
  9746   cA   248    PC   C35 9746    -0.338973     12.01000 ; qtot 1.564
  9747   hX   248    PC   H5A 9747     0.172230      1.00800 ; qtot 1.736
  9748   hX   248    PC   H5B 9748     0.172230      1.00800 ; qtot 1.908
  9749   hX   248    PC   H5C 9749     0.172230      1.00800 ; qtot 2.081
  9750   oP   248    PC   O33 9750    -0.875812     16.00000 ; qtot 1.205
  9751   oP   248    PC   O34 9751    -0.875812     16.00000 ; qtot 0.329
  9752   oS   248    PC   O21 9752    -0.552948     16.00000 ; qtot -0.224
  9753   cC   248    PC   C21 9753     0.897613     12.01000 ; qtot 0.674
  9754   oC   248    PC   O22 9754    -0.673755     16.00000 ; qtot 0.000
  9755   hL   249    MY  H14T 9755     0.025511      1.00800 ; qtot 0.026
  9756   cD   249    MY  C114 9756    -0.111712     12.01000 ; qtot -0.086
  9757   hL   249    MY  H14R 9757     0.025511      1.00800 ; qtot -0.061
  9758   hL   249    MY  H14S 9758     0.025511      1.00800 ; qtot -0.035
  9759   cD   249    MY  C113 9759     0.017463     12.01000 ; qtot -0.018
  9760   hL   249    MY  H13R 9760     0.007531      1.00800 ; qtot -0.010
  9761   hL   249    MY  H13S 9761     0.007531      1.00800 ; qtot -0.003
  9762   cD   249    MY  C112 9762    -0.028094     12.01000 ; qtot -0.031
  9763   hL   249    MY  H12R 9763     0.017208      1.00800 ; qtot -0.014
  9764   hL   249    MY  H12S 9764     0.017208      1.00800 ; qtot 0.004
  9765   cD   249    MY  C111 9765    -0.031787     12.01000 ; qtot -0.028
  9766   hL   249    MY  H11R 9766     0.012677      1.00800 ; qtot -0.015
  9767   hL   249    MY  H11S 9767     0.012677      1.00800 ; qtot -0.003
  9768   cD   249    MY  C110 9768    -0.021025     12.01000 ; qtot -0.024
  9769   hL   249    MY  H10R 9769     0.010037      1.00800 ; qtot -0.014
  9770   hL   249    MY  H10S 9770     0.010037      1.00800 ; qtot -0.004
  9771   cD   249    MY   C19 9771    -0.014653     12.01000 ; qtot -0.018
  9772   hL   249    MY   H9R 9772     0.010172      1.00800 ; qtot -0.008
  9773   hL   249    MY   H9S 9773     0.010172      1.00800 ; qtot 0.002
  9774   cD   249    MY   C18 9774    -0.026451     12.01000 ; qtot -0.024
  9775   hL   249    MY   H8R 9775     0.011241      1.00800 ; qtot -0.013
  9776   hL   249    MY   H8S 9776     0.011241      1.00800 ; qtot -0.002
  9777   cD   249    MY   C17 9777    -0.004386     12.01000 ; qtot -0.006
  9778   hL   249    MY   H7R 9778     0.006833      1.00800 ; qtot 0.000
  9779   hL   249    MY   H7S 9779     0.006833      1.00800 ; qtot 0.007
  9780   cD   249    MY   C16 9780    -0.027812     12.01000 ; qtot -0.021
  9781   hL   249    MY   H6R 9781     0.011511      1.00800 ; qtot -0.009
  9782   hL   249    MY   H6S 9782     0.011511      1.00800 ; qtot 0.002
  9783   cD   249    MY   C15 9783    -0.016521     12.01000 ; qtot -0.014
  9784   hL   249    MY   H5R 9784     0.010573      1.00800 ; qtot -0.003
  9785   hL   249    MY   H5S 9785     0.010573      1.00800 ; qtot 0.007
  9786   cD   249    MY   C14 9786    -0.026954     12.01000 ; qtot -0.020
  9787   hL   249    MY   H4R 9787     0.020431      1.00800 ; qtot 0.001
  9788   hL   249    MY   H4S 9788     0.020431      1.00800 ; qtot 0.021
  9789   cD   249    MY   C13 9789    -0.002435     12.01000 ; qtot 0.019
  9790   hL   249    MY   H3R 9790     0.018859      1.00800 ; qtot 0.037
  9791   hL   249    MY   H3S 9791     0.018859      1.00800 ; qtot 0.056
  9792   cD   249    MY   C12 9792    -0.164200     12.01000 ; qtot -0.108
  9793   hL   249    MY   H2R 9793     0.053944      1.00800 ; qtot -0.054
  9794   hL   249    MY   H2S 9794     0.053944      1.00800 ; qtot -0.000
  9795   hL   250    MY  H14T 9795     0.025511      1.00800 ; qtot 0.026
  9796   cD   250    MY  C114 9796    -0.111712     12.01000 ; qtot -0.086
  9797   hL   250    MY  H14R 9797     0.025511      1.00800 ; qtot -0.061
  9798   hL   250    MY  H14S 9798     0.025511      1.00800 ; qtot -0.035
  9799   cD   250    MY  C113 9799     0.017463     12.01000 ; qtot -0.018
  9800   hL   250    MY  H13R 9800     0.007531      1.00800 ; qtot -0.010
  9801   hL   250    MY  H13S 9801     0.007531      1.00800 ; qtot -0.003
  9802   cD   250    MY  C112 9802    -0.028094     12.01000 ; qtot -0.031
  9803   hL   250    MY  H12R 9803     0.017208      1.00800 ; qtot -0.014
  9804   hL   250    MY  H12S 9804     0.017208      1.00800 ; qtot 0.004
  9805   cD   250    MY  C111 9805    -0.031787     12.01000 ; qtot -0.028
  9806   hL   250    MY  H11R 9806     0.012677      1.00800 ; qtot -0.015
  9807   hL   250    MY  H11S 9807     0.012677      1.00800 ; qtot -0.003
  9808   cD   250    MY  C110 9808    -0.021025     12.01000 ; qtot -0.024
  9809   hL   250    MY  H10R 9809     0.010037      1.00800 ; qtot -0.014
  9810   hL   250    MY  H10S 9810     0.010037      1.00800 ; qtot -0.004
  9811   cD   250    MY   C19 9811    -0.014653     12.01000 ; qtot -0.018
  9812   hL   250    MY   H9R 9812     0.010172      1.00800 ; qtot -0.008
  9813   hL   250    MY   H9S 9813     0.010172      1.00800 ; qtot 0.002
  9814   cD   250    MY   C18 9814    -0.026451     12.01000 ; qtot -0.024
  9815   hL   250    MY   H8R 9815     0.011241      1.00800 ; qtot -0.013
  9816   hL   250    MY   H8S 9816     0.011241      1.00800 ; qtot -0.002
  9817   cD   250    MY   C17 9817    -0.004386     12.01000 ; qtot -0.006
  9818   hL   250    MY   H7R 9818     0.006833      1.00800 ; qtot 0.000
  9819   hL   250    MY   H7S 9819     0.006833      1.00800 ; qtot 0.007
  9820   cD   250    MY   C16 9820    -0.027812     12.01000 ; qtot -0.021
  9821   hL   250    MY   H6R 9821     0.011511      1.00800 ; qtot -0.009
  9822   hL   250    MY   H6S 9822     0.011511      1.00800 ; qtot 0.002
  9823   cD   250    MY   C15 9823    -0.016521     12.01000 ; qtot -0.014
  9824   hL   250    MY   H5R 9824     0.010573      1.00800 ; qtot -0.003
  9825   hL   250    MY   H5S 9825     0.010573      1.00800 ; qtot 0.007
  9826   cD   250    MY   C14 9826    -0.026954     12.01000 ; qtot -0.020
  9827   hL   250    MY   H4R 9827     0.020431      1.00800 ; qtot 0.001
  9828   hL   250    MY   H4S 9828     0.020431      1.00800 ; qtot 0.021
  9829   cD   250    MY   C13 9829    -0.002435     12.01000 ; qtot 0.019
  9830   hL   250    MY   H3R 9830     0.018859      1.00800 ; qtot 0.037
  9831   hL   250    MY   H3S 9831     0.018859      1.00800 ; qtot 0.056
  9832   cD   250    MY   C12 9832    -0.164200     12.01000 ; qtot -0.108
  9833   hL   250    MY   H2R 9833     0.053944      1.00800 ; qtot -0.054
  9834   hL   250    MY   H2S 9834     0.053944      1.00800 ; qtot -0.000
  9835   cC   251    PC   C11 9835     0.910403     12.01000 ; qtot 0.910
  9836   oC   251    PC   O12 9836    -0.671566     16.00000 ; qtot 0.239
  9837   oS   251    PC   O11 9837    -0.575489     16.00000 ; qtot -0.337
  9838   cA   251    PC    C1 9838     0.196939     12.01000 ; qtot -0.140
  9839   hE   251    PC    HR 9839     0.070469      1.00800 ; qtot -0.069
  9840   hE   251    PC    HS 9840     0.070469      1.00800 ; qtot 0.001
  9841   cA   251    PC    C2 9841     0.281242     12.01000 ; qtot 0.282
  9842   hE   251    PC    HX 9842     0.063253      1.00800 ; qtot 0.346
  9843   cA   251    PC    C3 9843     0.017459     12.01000 ; qtot 0.363
  9844   hE   251    PC    HA 9844     0.095591      1.00800 ; qtot 0.459
  9845   hE   251    PC    HB 9845     0.095591      1.00800 ; qtot 0.554
  9846   oT   251    PC   O31 9846    -0.509480     16.00000 ; qtot 0.045
  9847   pA   251    PC   P31 9847     1.339721     30.97000 ; qtot 1.385
  9848   oT   251    PC   O32 9848    -0.508176     16.00000 ; qtot 0.876
  9849   cA   251    PC   C31 9849     0.166801     12.01000 ; qtot 1.043
  9850   hE   251    PC   H1A 9850     0.078534      1.00800 ; qtot 1.122
  9851   hE   251    PC   H1B 9851     0.078534      1.00800 ; qtot 1.200
  9852   cA   251    PC   C32 9852    -0.170824     12.01000 ; qtot 1.029
  9853   hX   251    PC   H2A 9853     0.136415      1.00800 ; qtot 1.166
  9854   hX   251    PC   H2B 9854     0.136415      1.00800 ; qtot 1.302
  9855   nA   251    PC   N31 9855     0.245262     14.01000 ; qtot 1.548
  9856   cA   251    PC   C33 9856    -0.338973     12.01000 ; qtot 1.209
  9857   hX   251    PC   H3A 9857     0.172230      1.00800 ; qtot 1.381
  9858   hX   251    PC   H3B 9858     0.172230      1.00800 ; qtot 1.553
  9859   hX   251    PC   H3C 9859     0.172230      1.00800 ; qtot 1.725
  9860   cA   251    PC   C34 9860    -0.338973     12.01000 ; qtot 1.386
  9861   hX   251    PC   H4A 9861     0.172230      1.00800 ; qtot 1.559
  9862   hX   251    PC   H4B 9862     0.172230      1.00800 ; qtot 1.731
  9863   hX   251    PC   H4C 9863     0.172230      1.00800 ; qtot 1.903
  9864   cA   251    PC   C35 9864    -0.338973     12.01000 ; qtot 1.564
  9865   hX   251    PC   H5A 9865     0.172230      1.00800 ; qtot 1.736
  9866   hX   251    PC   H5B 9866     0.172230      1.00800 ; qtot 1.908
  9867   hX   251    PC   H5C 9867     0.172230      1.00800 ; qtot 2.081
  9868   oP   251    PC   O33 9868    -0.875812     16.00000 ; qtot 1.205
  9869   oP   251    PC   O34 9869    -0.875812     16.00000 ; qtot 0.329
  9870   oS   251    PC   O21 9870    -0.552948     16.00000 ; qtot -0.224
  9871   cC   251    PC   C21 9871     0.897613     12.01000 ; qtot 0.674
  9872   oC   251    PC   O22 9872    -0.673755     16.00000 ; qtot 0.000
  9873   hL   252    MY  H14T 9873     0.025511      1.00800 ; qtot 0.026
  9874   cD   252    MY  C114 9874    -0.111712     12.01000 ; qtot -0.086
  9875   hL   252    MY  H14R 9875     0.025511      1.00800 ; qtot -0.061
  9876   hL   252    MY  H14S 9876     0.025511      1.00800 ; qtot -0.035
  9877   cD   252    MY  C113 9877     0.017463     12.01000 ; qtot -0.018
  9878   hL   252    MY  H13R 9878     0.007531      1.00800 ; qtot -0.010
  9879   hL   252    MY  H13S 9879     0.007531      1.00800 ; qtot -0.003
  9880   cD   252    MY  C112 9880    -0.028094     12.01000 ; qtot -0.031
  9881   hL   252    MY  H12R 9881     0.017208      1.00800 ; qtot -0.014
  9882   hL   252    MY  H12S 9882     0.017208      1.00800 ; qtot 0.004
  9883   cD   252    MY  C111 9883    -0.031787     12.01000 ; qtot -0.028
  9884   hL   252    MY  H11R 9884     0.012677      1.00800 ; qtot -0.015
  9885   hL   252    MY  H11S 9885     0.012677      1.00800 ; qtot -0.003
  9886   cD   252    MY  C110 9886    -0.021025     12.01000 ; qtot -0.024
  9887   hL   252    MY  H10R 9887     0.010037      1.00800 ; qtot -0.014
  9888   hL   252    MY  H10S 9888     0.010037      1.00800 ; qtot -0.004
  9889   cD   252    MY   C19 9889    -0.014653     12.01000 ; qtot -0.018
  9890   hL   252    MY   H9R 9890     0.010172      1.00800 ; qtot -0.008
  9891   hL   252    MY   H9S 9891     0.010172      1.00800 ; qtot 0.002
  9892   cD   252    MY   C18 9892    -0.026451     12.01000 ; qtot -0.024
  9893   hL   252    MY   H8R 9893     0.011241      1.00800 ; qtot -0.013
  9894   hL   252    MY   H8S 9894     0.011241      1.00800 ; qtot -0.002
  9895   cD   252    MY   C17 9895    -0.004386     12.01000 ; qtot -0.006
  9896   hL   252    MY   H7R 9896     0.006833      1.00800 ; qtot 0.000
  9897   hL   252    MY   H7S 9897     0.006833      1.00800 ; qtot 0.007
  9898   cD   252    MY   C16 9898    -0.027812     12.01000 ; qtot -0.021
  9899   hL   252    MY   H6R 9899     0.011511      1.00800 ; qtot -0.009
  9900   hL   252    MY   H6S 9900     0.011511      1.00800 ; qtot 0.002
  9901   cD   252    MY   C15 9901    -0.016521     12.01000 ; qtot -0.014
  9902   hL   252    MY   H5R 9902     0.010573      1.00800 ; qtot -0.003
  9903   hL   252    MY   H5S 9903     0.010573      1.00800 ; qtot 0.007
  9904   cD   252    MY   C14 9904    -0.026954     12.01000 ; qtot -0.020
  9905   hL   252    MY   H4R 9905     0.020431      1.00800 ; qtot 0.001
  9906   hL   252    MY   H4S 9906     0.020431      1.00800 ; qtot 0.021
  9907   cD   252    MY   C13 9907    -0.002435     12.01000 ; qtot 0.019
  9908   hL   252    MY   H3R 9908     0.018859      1.00800 ; qtot 0.037
  9909   hL   252    MY   H3S 9909     0.018859      1.00800 ; qtot 0.056
  9910   cD   252    MY   C12 9910    -0.164200     12.01000 ; qtot -0.108
  9911   hL   252    MY   H2R 9911     0.053944      1.00800 ; qtot -0.054
  9912   hL   252    MY   H2S 9912     0.053944      1.00800 ; qtot -0.000
  9913   hL   253    MY  H14T 9913     0.025511      1.00800 ; qtot 0.026
  9914   cD   253    MY  C114 9914    -0.111712     12.01000 ; qtot -0.086
  9915   hL   253    MY  H14R 9915     0.025511      1.00800 ; qtot -0.061
  9916   hL   253    MY  H14S 9916     0.025511      1.00800 ; qtot -0.035
  9917   cD   253    MY  C113 9917     0.017463     12.01000 ; qtot -0.018
  9918   hL   253    MY  H13R 9918     0.007531      1.00800 ; qtot -0.010
  9919   hL   253    MY  H13S 9919     0.007531      1.00800 ; qtot -0.003
  9920   cD   253    MY  C112 9920    -0.028094     12.01000 ; qtot -0.031
  9921   hL   253    MY  H12R 9921     0.017208      1.00800 ; qtot -0.014
  9922   hL   253    MY  H12S 9922     0.017208      1.00800 ; qtot 0.004
  9923   cD   253    MY  C111 9923    -0.031787     12.01000 ; qtot -0.028
  9924   hL   253    MY  H11R 9924     0.012677      1.00800 ; qtot -0.015
  9925   hL   253    MY  H11S 9925     0.012677      1.00800 ; qtot -0.003
  9926   cD   253    MY  C110 9926    -0.021025     12.01000 ; qtot -0.024
  9927   hL   253    MY  H10R 9927     0.010037      1.00800 ; qtot -0.014
  9928   hL   253    MY  H10S 9928     0.010037      1.00800 ; qtot -0.004
  9929   cD   253    MY   C19 9929    -0.014653     12.01000 ; qtot -0.018
  9930   hL   253    MY   H9R 9930     0.010172      1.00800 ; qtot -0.008
  9931   hL   253    MY   H9S 9931     0.010172      1.00800 ; qtot 0.002
  9932   cD   253    MY   C18 9932    -0.026451     12.01000 ; qtot -0.024
  9933   hL   253    MY   H8R 9933     0.011241      1.00800 ; qtot -0.013
  9934   hL   253    MY   H8S 9934     0.011241      1.00800 ; qtot -0.002
  9935   cD   253    MY   C17 9935    -0.004386     12.01000 ; qtot -0.006
  9936   hL   253    MY   H7R 9936     0.006833      1.00800 ; qtot 0.000
  9937   hL   253    MY   H7S 9937     0.006833      1.00800 ; qtot 0.007
  9938   cD   253    MY   C16 9938    -0.027812     12.01000 ; qtot -0.021
  9939   hL   253    MY   H6R 9939     0.011511      1.00800 ; qtot -0.009
  9940   hL   253    MY   H6S 9940     0.011511      1.00800 ; qtot 0.002
  9941   cD   253    MY   C15 9941    -0.016521     12.01000 ; qtot -0.014
  9942   hL   253    MY   H5R 9942     0.010573      1.00800 ; qtot -0.003
  9943   hL   253    MY   H5S 9943     0.010573      1.00800 ; qtot 0.007
  9944   cD   253    MY   C14 9944    -0.026954     12.01000 ; qtot -0.020
  9945   hL   253    MY   H4R 9945     0.020431      1.00800 ; qtot 0.001
  9946   hL   253    MY   H4S 9946     0.020431      1.00800 ; qtot 0.021
  9947   cD   253    MY   C13 9947    -0.002435     12.01000 ; qtot 0.019
  9948   hL   253    MY   H3R 9948     0.018859      1.00800 ; qtot 0.037
  9949   hL   253    MY   H3S 9949     0.018859      1.00800 ; qtot 0.056
  9950   cD   253    MY   C12 9950    -0.164200     12.01000 ; qtot -0.108
  9951   hL   253    MY   H2R 9951     0.053944      1.00800 ; qtot -0.054
  9952   hL   253    MY   H2S 9952     0.053944      1.00800 ; qtot -0.000
  9953   cC   254    PC   C11 9953     0.910403     12.01000 ; qtot 0.910
  9954   oC   254    PC   O12 9954    -0.671566     16.00000 ; qtot 0.239
  9955   oS   254    PC   O11 9955    -0.575489     16.00000 ; qtot -0.337
  9956   cA   254    PC    C1 9956     0.196939     12.01000 ; qtot -0.140
  9957   hE   254    PC    HR 9957     0.070469      1.00800 ; qtot -0.069
  9958   hE   254    PC    HS 9958     0.070469      1.00800 ; qtot 0.001
  9959   cA   254    PC    C2 9959     0.281242     12.01000 ; qtot 0.282
  9960   hE   254    PC    HX 9960     0.063253      1.00800 ; qtot 0.346
  9961   cA   254    PC    C3 9961     0.017459     12.01000 ; qtot 0.363
  9962   hE   254    PC    HA 9962     0.095591      1.00800 ; qtot 0.459
  9963   hE   254    PC    HB 9963     0.095591      1.00800 ; qtot 0.554
  9964   oT   254    PC   O31 9964    -0.509480     16.00000 ; qtot 0.045
  9965   pA   254    PC   P31 9965     1.339721     30.97000 ; qtot 1.385
  9966   oT   254    PC   O32 9966    -0.508176     16.00000 ; qtot 0.876
  9967   cA   254    PC   C31 9967     0.166801     12.01000 ; qtot 1.043
  9968   hE   254    PC   H1A 9968     0.078534      1.00800 ; qtot 1.122
  9969   hE   254    PC   H1B 9969     0.078534      1.00800 ; qtot 1.200
  9970   cA   254    PC   C32 9970    -0.170824     12.01000 ; qtot 1.029
  9971   hX   254    PC   H2A 9971     0.136415      1.00800 ; qtot 1.166
  9972   hX   254    PC   H2B 9972     0.136415      1.00800 ; qtot 1.302
  9973   nA   254    PC   N31 9973     0.245262     14.01000 ; qtot 1.548
  9974   cA   254    PC   C33 9974    -0.338973     12.01000 ; qtot 1.209
  9975   hX   254    PC   H3A 9975     0.172230      1.00800 ; qtot 1.381
  9976   hX   254    PC   H3B 9976     0.172230      1.00800 ; qtot 1.553
  9977   hX   254    PC   H3C 9977     0.172230      1.00800 ; qtot 1.725
  9978   cA   254    PC   C34 9978    -0.338973     12.01000 ; qtot 1.386
  9979   hX   254    PC   H4A 9979     0.172230      1.00800 ; qtot 1.559
  9980   hX   254    PC   H4B 9980     0.172230      1.00800 ; qtot 1.731
  9981   hX   254    PC   H4C 9981     0.172230      1.00800 ; qtot 1.903
  9982   cA   254    PC   C35 9982    -0.338973     12.01000 ; qtot 1.564
  9983   hX   254    PC   H5A 9983     0.172230      1.00800 ; qtot 1.736
  9984   hX   254    PC   H5B 9984     0.172230      1.00800 ; qtot 1.908
  9985   hX   254    PC   H5C 9985     0.172230      1.00800 ; qtot 2.081
  9986   oP   254    PC   O33 9986    -0.875812     16.00000 ; qtot 1.205
  9987   oP   254    PC   O34 9987    -0.875812     16.00000 ; qtot 0.329
  9988   oS   254    PC   O21 9988    -0.552948     16.00000 ; qtot -0.224
  9989   cC   254    PC   C21 9989     0.897613     12.01000 ; qtot 0.674
  9990   oC   254    PC   O22 9990    -0.673755     16.00000 ; qtot 0.000
  9991   hL   255    MY  H14T 9991     0.025511      1.00800 ; qtot 0.026
  9992   cD   255    MY  C114 9992    -0.111712     12.01000 ; qtot -0.086
  9993   hL   255    MY  H14R 9993     0.025511      1.00800 ; qtot -0.061
  9994   hL   255    MY  H14S 9994     0.025511      1.00800 ; qtot -0.035
  9995   cD   255    MY  C113 9995     0.017463     12.01000 ; qtot -0.018
  9996   hL   255    MY  H13R 9996     0.007531      1.00800 ; qtot -0.010
  9997   hL   255    MY  H13S 9997     0.007531      1.00800 ; qtot -0.003
  9998   cD   255    MY  C112 9998    -0.028094     12.01000 ; qtot -0.031
  9999   hL   255    MY  H12R 9999     0.017208      1.00800 ; qtot -0.014
 10000   hL   255    MY  H12S 10000     0.017208      1.00800 ; qtot 0.004
 10001   cD   255    MY  C111 10001    -0.031787     12.01000 ; qtot -0.028
 10002   hL   255    MY  H11R 10002     0.012677      1.00800 ; qtot -0.015
 10003   hL   255    MY  H11S 10003     0.012677      1.00800 ; qtot -0.003
 10004   cD   255    MY  C110 10004    -0.021025     12.01000 ; qtot -0.024
 10005   hL   255    MY  H10R 10005     0.010037      1.00800 ; qtot -0.014
 10006   hL   255    MY  H10S 10006     0.010037      1.00800 ; qtot -0.004
 10007   cD   255    MY   C19 10007    -0.014653     12.01000 ; qtot -0.018
 10008   hL   255    MY   H9R 10008     0.010172      1.00800 ; qtot -0.008
 10009   hL   255    MY   H9S 10009     0.010172      1.00800 ; qtot 0.002
 10010   cD   255    MY   C18 10010    -0.026451     12.01000 ; qtot -0.024
 10011   hL   255    MY   H8R 10011     0.011241      1.00800 ; qtot -0.013
 10012   hL   255    MY   H8S 10012     0.011241      1.00800 ; qtot -0.002
 10013   cD   255    MY   C17 10013    -0.004386     12.01000 ; qtot -0.006
 10014   hL   255    MY   H7R 10014     0.006833      1.00800 ; qtot 0.000
 10015   hL   255    MY   H7S 10015     0.006833      1.00800 ; qtot 0.007
 10016   cD   255    MY   C16 10016    -0.027812     12.01000 ; qtot -0.021
 10017   hL   255    MY   H6R 10017     0.011511      1.00800 ; qtot -0.009
 10018   hL   255    MY   H6S 10018     0.011511      1.00800 ; qtot 0.002
 10019   cD   255    MY   C15 10019    -0.016521     12.01000 ; qtot -0.014
 10020   hL   255    MY   H5R 10020     0.010573      1.00800 ; qtot -0.003
 10021   hL   255    MY   H5S 10021     0.010573      1.00800 ; qtot 0.007
 10022   cD   255    MY   C14 10022    -0.026954     12.01000 ; qtot -0.020
 10023   hL   255    MY   H4R 10023     0.020431      1.00800 ; qtot 0.001
 10024   hL   255    MY   H4S 10024     0.020431      1.00800 ; qtot 0.021
 10025   cD   255    MY   C13 10025    -0.002435     12.01000 ; qtot 0.019
 10026   hL   255    MY   H3R 10026     0.018859      1.00800 ; qtot 0.037
 10027   hL   255    MY   H3S 10027     0.018859      1.00800 ; qtot 0.056
 10028   cD   255    MY   C12 10028    -0.164200     12.01000 ; qtot -0.108
 10029   hL   255    MY   H2R 10029     0.053944      1.00800 ; qtot -0.054
 10030   hL   255    MY   H2S 10030     0.053944      1.00800 ; qtot -0.000
 10031   hL   256    MY  H14T 10031     0.025511      1.00800 ; qtot 0.026
 10032   cD   256    MY  C114 10032    -0.111712     12.01000 ; qtot -0.086
 10033   hL   256    MY  H14R 10033     0.025511      1.00800 ; qtot -0.061
 10034   hL   256    MY  H14S 10034     0.025511      1.00800 ; qtot -0.035
 10035   cD   256    MY  C113 10035     0.017463     12.01000 ; qtot -0.018
 10036   hL   256    MY  H13R 10036     0.007531      1.00800 ; qtot -0.010
 10037   hL   256    MY  H13S 10037     0.007531      1.00800 ; qtot -0.003
 10038   cD   256    MY  C112 10038    -0.028094     12.01000 ; qtot -0.031
 10039   hL   256    MY  H12R 10039     0.017208      1.00800 ; qtot -0.014
 10040   hL   256    MY  H12S 10040     0.017208      1.00800 ; qtot 0.004
 10041   cD   256    MY  C111 10041    -0.031787     12.01000 ; qtot -0.028
 10042   hL   256    MY  H11R 10042     0.012677      1.00800 ; qtot -0.015
 10043   hL   256    MY  H11S 10043     0.012677      1.00800 ; qtot -0.003
 10044   cD   256    MY  C110 10044    -0.021025     12.01000 ; qtot -0.024
 10045   hL   256    MY  H10R 10045     0.010037      1.00800 ; qtot -0.014
 10046   hL   256    MY  H10S 10046     0.010037      1.00800 ; qtot -0.004
 10047   cD   256    MY   C19 10047    -0.014653     12.01000 ; qtot -0.018
 10048   hL   256    MY   H9R 10048     0.010172      1.00800 ; qtot -0.008
 10049   hL   256    MY   H9S 10049     0.010172      1.00800 ; qtot 0.002
 10050   cD   256    MY   C18 10050    -0.026451     12.01000 ; qtot -0.024
 10051   hL   256    MY   H8R 10051     0.011241      1.00800 ; qtot -0.013
 10052   hL   256    MY   H8S 10052     0.011241      1.00800 ; qtot -0.002
 10053   cD   256    MY   C17 10053    -0.004386     12.01000 ; qtot -0.006
 10054   hL   256    MY   H7R 10054     0.006833      1.00800 ; qtot 0.000
 10055   hL   256    MY   H7S 10055     0.006833      1.00800 ; qtot 0.007
 10056   cD   256    MY   C16 10056    -0.027812     12.01000 ; qtot -0.021
 10057   hL   256    MY   H6R 10057     0.011511      1.00800 ; qtot -0.009
 10058   hL   256    MY   H6S 10058     0.011511      1.00800 ; qtot 0.002
 10059   cD   256    MY   C15 10059    -0.016521     12.01000 ; qtot -0.014
 10060   hL   256    MY   H5R 10060     0.010573      1.00800 ; qtot -0.003
 10061   hL   256    MY   H5S 10061     0.010573      1.00800 ; qtot 0.007
 10062   cD   256    MY   C14 10062    -0.026954     12.01000 ; qtot -0.020
 10063   hL   256    MY   H4R 10063     0.020431      1.00800 ; qtot 0.001
 10064   hL   256    MY   H4S 10064     0.020431      1.00800 ; qtot 0.021
 10065   cD   256    MY   C13 10065    -0.002435     12.01000 ; qtot 0.019
 10066   hL   256    MY   H3R 10066     0.018859      1.00800 ; qtot 0.037
 10067   hL   256    MY   H3S 10067     0.018859      1.00800 ; qtot 0.056
 10068   cD   256    MY   C12 10068    -0.164200     12.01000 ; qtot -0.108
 10069   hL   256    MY   H2R 10069     0.053944      1.00800 ; qtot -0.054
 10070   hL   256    MY   H2S 10070     0.053944      1.00800 ; qtot -0.000
 10071   cC   257    PC   C11 10071     0.910403     12.01000 ; qtot 0.910
 10072   oC   257    PC   O12 10072    -0.671566     16.00000 ; qtot 0.239
 10073   oS   257    PC   O11 10073    -0.575489     16.00000 ; qtot -0.337
 10074   cA   257    PC    C1 10074     0.196939     12.01000 ; qtot -0.140
 10075   hE   257    PC    HR 10075     0.070469      1.00800 ; qtot -0.069
 10076   hE   257    PC    HS 10076     0.070469      1.00800 ; qtot 0.001
 10077   cA   257    PC    C2 10077     0.281242     12.01000 ; qtot 0.282
 10078   hE   257    PC    HX 10078     0.063253      1.00800 ; qtot 0.346
 10079   cA   257    PC    C3 10079     0.017459     12.01000 ; qtot 0.363
 10080   hE   257    PC    HA 10080     0.095591      1.00800 ; qtot 0.459
 10081   hE   257    PC    HB 10081     0.095591      1.00800 ; qtot 0.554
 10082   oT   257    PC   O31 10082    -0.509480     16.00000 ; qtot 0.045
 10083   pA   257    PC   P31 10083     1.339721     30.97000 ; qtot 1.385
 10084   oT   257    PC   O32 10084    -0.508176     16.00000 ; qtot 0.876
 10085   cA   257    PC   C31 10085     0.166801     12.01000 ; qtot 1.043
 10086   hE   257    PC   H1A 10086     0.078534      1.00800 ; qtot 1.122
 10087   hE   257    PC   H1B 10087     0.078534      1.00800 ; qtot 1.200
 10088   cA   257    PC   C32 10088    -0.170824     12.01000 ; qtot 1.029
 10089   hX   257    PC   H2A 10089     0.136415      1.00800 ; qtot 1.166
 10090   hX   257    PC   H2B 10090     0.136415      1.00800 ; qtot 1.302
 10091   nA   257    PC   N31 10091     0.245262     14.01000 ; qtot 1.548
 10092   cA   257    PC   C33 10092    -0.338973     12.01000 ; qtot 1.209
 10093   hX   257    PC   H3A 10093     0.172230      1.00800 ; qtot 1.381
 10094   hX   257    PC   H3B 10094     0.172230      1.00800 ; qtot 1.553
 10095   hX   257    PC   H3C 10095     0.172230      1.00800 ; qtot 1.725
 10096   cA   257    PC   C34 10096    -0.338973     12.01000 ; qtot 1.386
 10097   hX   257    PC   H4A 10097     0.172230      1.00800 ; qtot 1.559
 10098   hX   257    PC   H4B 10098     0.172230      1.00800 ; qtot 1.731
 10099   hX   257    PC   H4C 10099     0.172230      1.00800 ; qtot 1.903
 10100   cA   257    PC   C35 10100    -0.338973     12.01000 ; qtot 1.564
 10101   hX   257    PC   H5A 10101     0.172230      1.00800 ; qtot 1.736
 10102   hX   257    PC   H5B 10102     0.172230      1.00800 ; qtot 1.908
 10103   hX   257    PC   H5C 10103     0.172230      1.00800 ; qtot 2.081
 10104   oP   257    PC   O33 10104    -0.875812     16.00000 ; qtot 1.205
 10105   oP   257    PC   O34 10105    -0.875812     16.00000 ; qtot 0.329
 10106   oS   257    PC   O21 10106    -0.552948     16.00000 ; qtot -0.224
 10107   cC   257    PC   C21 10107     0.897613     12.01000 ; qtot 0.674
 10108   oC   257    PC   O22 10108    -0.673755     16.00000 ; qtot 0.000
 10109   hL   258    MY  H14T 10109     0.025511      1.00800 ; qtot 0.026
 10110   cD   258    MY  C114 10110    -0.111712     12.01000 ; qtot -0.086
 10111   hL   258    MY  H14R 10111     0.025511      1.00800 ; qtot -0.061
 10112   hL   258    MY  H14S 10112     0.025511      1.00800 ; qtot -0.035
 10113   cD   258    MY  C113 10113     0.017463     12.01000 ; qtot -0.018
 10114   hL   258    MY  H13R 10114     0.007531      1.00800 ; qtot -0.010
 10115   hL   258    MY  H13S 10115     0.007531      1.00800 ; qtot -0.003
 10116   cD   258    MY  C112 10116    -0.028094     12.01000 ; qtot -0.031
 10117   hL   258    MY  H12R 10117     0.017208      1.00800 ; qtot -0.014
 10118   hL   258    MY  H12S 10118     0.017208      1.00800 ; qtot 0.004
 10119   cD   258    MY  C111 10119    -0.031787     12.01000 ; qtot -0.028
 10120   hL   258    MY  H11R 10120     0.012677      1.00800 ; qtot -0.015
 10121   hL   258    MY  H11S 10121     0.012677      1.00800 ; qtot -0.003
 10122   cD   258    MY  C110 10122    -0.021025     12.01000 ; qtot -0.024
 10123   hL   258    MY  H10R 10123     0.010037      1.00800 ; qtot -0.014
 10124   hL   258    MY  H10S 10124     0.010037      1.00800 ; qtot -0.004
 10125   cD   258    MY   C19 10125    -0.014653     12.01000 ; qtot -0.018
 10126   hL   258    MY   H9R 10126     0.010172      1.00800 ; qtot -0.008
 10127   hL   258    MY   H9S 10127     0.010172      1.00800 ; qtot 0.002
 10128   cD   258    MY   C18 10128    -0.026451     12.01000 ; qtot -0.024
 10129   hL   258    MY   H8R 10129     0.011241      1.00800 ; qtot -0.013
 10130   hL   258    MY   H8S 10130     0.011241      1.00800 ; qtot -0.002
 10131   cD   258    MY   C17 10131    -0.004386     12.01000 ; qtot -0.006
 10132   hL   258    MY   H7R 10132     0.006833      1.00800 ; qtot 0.000
 10133   hL   258    MY   H7S 10133     0.006833      1.00800 ; qtot 0.007
 10134   cD   258    MY   C16 10134    -0.027812     12.01000 ; qtot -0.021
 10135   hL   258    MY   H6R 10135     0.011511      1.00800 ; qtot -0.009
 10136   hL   258    MY   H6S 10136     0.011511      1.00800 ; qtot 0.002
 10137   cD   258    MY   C15 10137    -0.016521     12.01000 ; qtot -0.014
 10138   hL   258    MY   H5R 10138     0.010573      1.00800 ; qtot -0.003
 10139   hL   258    MY   H5S 10139     0.010573      1.00800 ; qtot 0.007
 10140   cD   258    MY   C14 10140    -0.026954     12.01000 ; qtot -0.020
 10141   hL   258    MY   H4R 10141     0.020431      1.00800 ; qtot 0.001
 10142   hL   258    MY   H4S 10142     0.020431      1.00800 ; qtot 0.021
 10143   cD   258    MY   C13 10143    -0.002435     12.01000 ; qtot 0.019
 10144   hL   258    MY   H3R 10144     0.018859      1.00800 ; qtot 0.037
 10145   hL   258    MY   H3S 10145     0.018859      1.00800 ; qtot 0.056
 10146   cD   258    MY   C12 10146    -0.164200     12.01000 ; qtot -0.108
 10147   hL   258    MY   H2R 10147     0.053944      1.00800 ; qtot -0.054
 10148   hL   258    MY   H2S 10148     0.053944      1.00800 ; qtot -0.000
 10149   hL   259    MY  H14T 10149     0.025511      1.00800 ; qtot 0.026
 10150   cD   259    MY  C114 10150    -0.111712     12.01000 ; qtot -0.086
 10151   hL   259    MY  H14R 10151     0.025511      1.00800 ; qtot -0.061
 10152   hL   259    MY  H14S 10152     0.025511      1.00800 ; qtot -0.035
 10153   cD   259    MY  C113 10153     0.017463     12.01000 ; qtot -0.018
 10154   hL   259    MY  H13R 10154     0.007531      1.00800 ; qtot -0.010
 10155   hL   259    MY  H13S 10155     0.007531      1.00800 ; qtot -0.003
 10156   cD   259    MY  C112 10156    -0.028094     12.01000 ; qtot -0.031
 10157   hL   259    MY  H12R 10157     0.017208      1.00800 ; qtot -0.014
 10158   hL   259    MY  H12S 10158     0.017208      1.00800 ; qtot 0.004
 10159   cD   259    MY  C111 10159    -0.031787     12.01000 ; qtot -0.028
 10160   hL   259    MY  H11R 10160     0.012677      1.00800 ; qtot -0.015
 10161   hL   259    MY  H11S 10161     0.012677      1.00800 ; qtot -0.003
 10162   cD   259    MY  C110 10162    -0.021025     12.01000 ; qtot -0.024
 10163   hL   259    MY  H10R 10163     0.010037      1.00800 ; qtot -0.014
 10164   hL   259    MY  H10S 10164     0.010037      1.00800 ; qtot -0.004
 10165   cD   259    MY   C19 10165    -0.014653     12.01000 ; qtot -0.018
 10166   hL   259    MY   H9R 10166     0.010172      1.00800 ; qtot -0.008
 10167   hL   259    MY   H9S 10167     0.010172      1.00800 ; qtot 0.002
 10168   cD   259    MY   C18 10168    -0.026451     12.01000 ; qtot -0.024
 10169   hL   259    MY   H8R 10169     0.011241      1.00800 ; qtot -0.013
 10170   hL   259    MY   H8S 10170     0.011241      1.00800 ; qtot -0.002
 10171   cD   259    MY   C17 10171    -0.004386     12.01000 ; qtot -0.006
 10172   hL   259    MY   H7R 10172     0.006833      1.00800 ; qtot 0.000
 10173   hL   259    MY   H7S 10173     0.006833      1.00800 ; qtot 0.007
 10174   cD   259    MY   C16 10174    -0.027812     12.01000 ; qtot -0.021
 10175   hL   259    MY   H6R 10175     0.011511      1.00800 ; qtot -0.009
 10176   hL   259    MY   H6S 10176     0.011511      1.00800 ; qtot 0.002
 10177   cD   259    MY   C15 10177    -0.016521     12.01000 ; qtot -0.014
 10178   hL   259    MY   H5R 10178     0.010573      1.00800 ; qtot -0.003
 10179   hL   259    MY   H5S 10179     0.010573      1.00800 ; qtot 0.007
 10180   cD   259    MY   C14 10180    -0.026954     12.01000 ; qtot -0.020
 10181   hL   259    MY   H4R 10181     0.020431      1.00800 ; qtot 0.001
 10182   hL   259    MY   H4S 10182     0.020431      1.00800 ; qtot 0.021
 10183   cD   259    MY   C13 10183    -0.002435     12.01000 ; qtot 0.019
 10184   hL   259    MY   H3R 10184     0.018859      1.00800 ; qtot 0.037
 10185   hL   259    MY   H3S 10185     0.018859      1.00800 ; qtot 0.056
 10186   cD   259    MY   C12 10186    -0.164200     12.01000 ; qtot -0.108
 10187   hL   259    MY   H2R 10187     0.053944      1.00800 ; qtot -0.054
 10188   hL   259    MY   H2S 10188     0.053944      1.00800 ; qtot -0.000
 10189   cC   260    PC   C11 10189     0.910403     12.01000 ; qtot 0.910
 10190   oC   260    PC   O12 10190    -0.671566     16.00000 ; qtot 0.239
 10191   oS   260    PC   O11 10191    -0.575489     16.00000 ; qtot -0.337
 10192   cA   260    PC    C1 10192     0.196939     12.01000 ; qtot -0.140
 10193   hE   260    PC    HR 10193     0.070469      1.00800 ; qtot -0.069
 10194   hE   260    PC    HS 10194     0.070469      1.00800 ; qtot 0.001
 10195   cA   260    PC    C2 10195     0.281242     12.01000 ; qtot 0.282
 10196   hE   260    PC    HX 10196     0.063253      1.00800 ; qtot 0.346
 10197   cA   260    PC    C3 10197     0.017459     12.01000 ; qtot 0.363
 10198   hE   260    PC    HA 10198     0.095591      1.00800 ; qtot 0.459
 10199   hE   260    PC    HB 10199     0.095591      1.00800 ; qtot 0.554
 10200   oT   260    PC   O31 10200    -0.509480     16.00000 ; qtot 0.045
 10201   pA   260    PC   P31 10201     1.339721     30.97000 ; qtot 1.385
 10202   oT   260    PC   O32 10202    -0.508176     16.00000 ; qtot 0.876
 10203   cA   260    PC   C31 10203     0.166801     12.01000 ; qtot 1.043
 10204   hE   260    PC   H1A 10204     0.078534      1.00800 ; qtot 1.122
 10205   hE   260    PC   H1B 10205     0.078534      1.00800 ; qtot 1.200
 10206   cA   260    PC   C32 10206    -0.170824     12.01000 ; qtot 1.029
 10207   hX   260    PC   H2A 10207     0.136415      1.00800 ; qtot 1.166
 10208   hX   260    PC   H2B 10208     0.136415      1.00800 ; qtot 1.302
 10209   nA   260    PC   N31 10209     0.245262     14.01000 ; qtot 1.548
 10210   cA   260    PC   C33 10210    -0.338973     12.01000 ; qtot 1.209
 10211   hX   260    PC   H3A 10211     0.172230      1.00800 ; qtot 1.381
 10212   hX   260    PC   H3B 10212     0.172230      1.00800 ; qtot 1.553
 10213   hX   260    PC   H3C 10213     0.172230      1.00800 ; qtot 1.725
 10214   cA   260    PC   C34 10214    -0.338973     12.01000 ; qtot 1.386
 10215   hX   260    PC   H4A 10215     0.172230      1.00800 ; qtot 1.559
 10216   hX   260    PC   H4B 10216     0.172230      1.00800 ; qtot 1.731
 10217   hX   260    PC   H4C 10217     0.172230      1.00800 ; qtot 1.903
 10218   cA   260    PC   C35 10218    -0.338973     12.01000 ; qtot 1.564
 10219   hX   260    PC   H5A 10219     0.172230      1.00800 ; qtot 1.736
 10220   hX   260    PC   H5B 10220     0.172230      1.00800 ; qtot 1.908
 10221   hX   260    PC   H5C 10221     0.172230      1.00800 ; qtot 2.081
 10222   oP   260    PC   O33 10222    -0.875812     16.00000 ; qtot 1.205
 10223   oP   260    PC   O34 10223    -0.875812     16.00000 ; qtot 0.329
 10224   oS   260    PC   O21 10224    -0.552948     16.00000 ; qtot -0.224
 10225   cC   260    PC   C21 10225     0.897613     12.01000 ; qtot 0.674
 10226   oC   260    PC   O22 10226    -0.673755     16.00000 ; qtot 0.000
 10227   hL   261    MY  H14T 10227     0.025511      1.00800 ; qtot 0.026
 10228   cD   261    MY  C114 10228    -0.111712     12.01000 ; qtot -0.086
 10229   hL   261    MY  H14R 10229     0.025511      1.00800 ; qtot -0.061
 10230   hL   261    MY  H14S 10230     0.025511      1.00800 ; qtot -0.035
 10231   cD   261    MY  C113 10231     0.017463     12.01000 ; qtot -0.018
 10232   hL   261    MY  H13R 10232     0.007531      1.00800 ; qtot -0.010
 10233   hL   261    MY  H13S 10233     0.007531      1.00800 ; qtot -0.003
 10234   cD   261    MY  C112 10234    -0.028094     12.01000 ; qtot -0.031
 10235   hL   261    MY  H12R 10235     0.017208      1.00800 ; qtot -0.014
 10236   hL   261    MY  H12S 10236     0.017208      1.00800 ; qtot 0.004
 10237   cD   261    MY  C111 10237    -0.031787     12.01000 ; qtot -0.028
 10238   hL   261    MY  H11R 10238     0.012677      1.00800 ; qtot -0.015
 10239   hL   261    MY  H11S 10239     0.012677      1.00800 ; qtot -0.003
 10240   cD   261    MY  C110 10240    -0.021025     12.01000 ; qtot -0.024
 10241   hL   261    MY  H10R 10241     0.010037      1.00800 ; qtot -0.014
 10242   hL   261    MY  H10S 10242     0.010037      1.00800 ; qtot -0.004
 10243   cD   261    MY   C19 10243    -0.014653     12.01000 ; qtot -0.018
 10244   hL   261    MY   H9R 10244     0.010172      1.00800 ; qtot -0.008
 10245   hL   261    MY   H9S 10245     0.010172      1.00800 ; qtot 0.002
 10246   cD   261    MY   C18 10246    -0.026451     12.01000 ; qtot -0.024
 10247   hL   261    MY   H8R 10247     0.011241      1.00800 ; qtot -0.013
 10248   hL   261    MY   H8S 10248     0.011241      1.00800 ; qtot -0.002
 10249   cD   261    MY   C17 10249    -0.004386     12.01000 ; qtot -0.006
 10250   hL   261    MY   H7R 10250     0.006833      1.00800 ; qtot 0.000
 10251   hL   261    MY   H7S 10251     0.006833      1.00800 ; qtot 0.007
 10252   cD   261    MY   C16 10252    -0.027812     12.01000 ; qtot -0.021
 10253   hL   261    MY   H6R 10253     0.011511      1.00800 ; qtot -0.009
 10254   hL   261    MY   H6S 10254     0.011511      1.00800 ; qtot 0.002
 10255   cD   261    MY   C15 10255    -0.016521     12.01000 ; qtot -0.014
 10256   hL   261    MY   H5R 10256     0.010573      1.00800 ; qtot -0.003
 10257   hL   261    MY   H5S 10257     0.010573      1.00800 ; qtot 0.007
 10258   cD   261    MY   C14 10258    -0.026954     12.01000 ; qtot -0.020
 10259   hL   261    MY   H4R 10259     0.020431      1.00800 ; qtot 0.001
 10260   hL   261    MY   H4S 10260     0.020431      1.00800 ; qtot 0.021
 10261   cD   261    MY   C13 10261    -0.002435     12.01000 ; qtot 0.019
 10262   hL   261    MY   H3R 10262     0.018859      1.00800 ; qtot 0.037
 10263   hL   261    MY   H3S 10263     0.018859      1.00800 ; qtot 0.056
 10264   cD   261    MY   C12 10264    -0.164200     12.01000 ; qtot -0.108
 10265   hL   261    MY   H2R 10265     0.053944      1.00800 ; qtot -0.054
 10266   hL   261    MY   H2S 10266     0.053944      1.00800 ; qtot -0.000
 10267   hL   262    MY  H14T 10267     0.025511      1.00800 ; qtot 0.026
 10268   cD   262    MY  C114 10268    -0.111712     12.01000 ; qtot -0.086
 10269   hL   262    MY  H14R 10269     0.025511      1.00800 ; qtot -0.061
 10270   hL   262    MY  H14S 10270     0.025511      1.00800 ; qtot -0.035
 10271   cD   262    MY  C113 10271     0.017463     12.01000 ; qtot -0.018
 10272   hL   262    MY  H13R 10272     0.007531      1.00800 ; qtot -0.010
 10273   hL   262    MY  H13S 10273     0.007531      1.00800 ; qtot -0.003
 10274   cD   262    MY  C112 10274    -0.028094     12.01000 ; qtot -0.031
 10275   hL   262    MY  H12R 10275     0.017208      1.00800 ; qtot -0.014
 10276   hL   262    MY  H12S 10276     0.017208      1.00800 ; qtot 0.004
 10277   cD   262    MY  C111 10277    -0.031787     12.01000 ; qtot -0.028
 10278   hL   262    MY  H11R 10278     0.012677      1.00800 ; qtot -0.015
 10279   hL   262    MY  H11S 10279     0.012677      1.00800 ; qtot -0.003
 10280   cD   262    MY  C110 10280    -0.021025     12.01000 ; qtot -0.024
 10281   hL   262    MY  H10R 10281     0.010037      1.00800 ; qtot -0.014
 10282   hL   262    MY  H10S 10282     0.010037      1.00800 ; qtot -0.004
 10283   cD   262    MY   C19 10283    -0.014653     12.01000 ; qtot -0.018
 10284   hL   262    MY   H9R 10284     0.010172      1.00800 ; qtot -0.008
 10285   hL   262    MY   H9S 10285     0.010172      1.00800 ; qtot 0.002
 10286   cD   262    MY   C18 10286    -0.026451     12.01000 ; qtot -0.024
 10287   hL   262    MY   H8R 10287     0.011241      1.00800 ; qtot -0.013
 10288   hL   262    MY   H8S 10288     0.011241      1.00800 ; qtot -0.002
 10289   cD   262    MY   C17 10289    -0.004386     12.01000 ; qtot -0.006
 10290   hL   262    MY   H7R 10290     0.006833      1.00800 ; qtot 0.000
 10291   hL   262    MY   H7S 10291     0.006833      1.00800 ; qtot 0.007
 10292   cD   262    MY   C16 10292    -0.027812     12.01000 ; qtot -0.021
 10293   hL   262    MY   H6R 10293     0.011511      1.00800 ; qtot -0.009
 10294   hL   262    MY   H6S 10294     0.011511      1.00800 ; qtot 0.002
 10295   cD   262    MY   C15 10295    -0.016521     12.01000 ; qtot -0.014
 10296   hL   262    MY   H5R 10296     0.010573      1.00800 ; qtot -0.003
 10297   hL   262    MY   H5S 10297     0.010573      1.00800 ; qtot 0.007
 10298   cD   262    MY   C14 10298    -0.026954     12.01000 ; qtot -0.020
 10299   hL   262    MY   H4R 10299     0.020431      1.00800 ; qtot 0.001
 10300   hL   262    MY   H4S 10300     0.020431      1.00800 ; qtot 0.021
 10301   cD   262    MY   C13 10301    -0.002435     12.01000 ; qtot 0.019
 10302   hL   262    MY   H3R 10302     0.018859      1.00800 ; qtot 0.037
 10303   hL   262    MY   H3S 10303     0.018859      1.00800 ; qtot 0.056
 10304   cD   262    MY   C12 10304    -0.164200     12.01000 ; qtot -0.108
 10305   hL   262    MY   H2R 10305     0.053944      1.00800 ; qtot -0.054
 10306   hL   262    MY   H2S 10306     0.053944      1.00800 ; qtot -0.000
 10307   cC   263    PC   C11 10307     0.910403     12.01000 ; qtot 0.910
 10308   oC   263    PC   O12 10308    -0.671566     16.00000 ; qtot 0.239
 10309   oS   263    PC   O11 10309    -0.575489     16.00000 ; qtot -0.337
 10310   cA   263    PC    C1 10310     0.196939     12.01000 ; qtot -0.140
 10311   hE   263    PC    HR 10311     0.070469      1.00800 ; qtot -0.069
 10312   hE   263    PC    HS 10312     0.070469      1.00800 ; qtot 0.001
 10313   cA   263    PC    C2 10313     0.281242     12.01000 ; qtot 0.282
 10314   hE   263    PC    HX 10314     0.063253      1.00800 ; qtot 0.346
 10315   cA   263    PC    C3 10315     0.017459     12.01000 ; qtot 0.363
 10316   hE   263    PC    HA 10316     0.095591      1.00800 ; qtot 0.459
 10317   hE   263    PC    HB 10317     0.095591      1.00800 ; qtot 0.554
 10318   oT   263    PC   O31 10318    -0.509480     16.00000 ; qtot 0.045
 10319   pA   263    PC   P31 10319     1.339721     30.97000 ; qtot 1.385
 10320   oT   263    PC   O32 10320    -0.508176     16.00000 ; qtot 0.876
 10321   cA   263    PC   C31 10321     0.166801     12.01000 ; qtot 1.043
 10322   hE   263    PC   H1A 10322     0.078534      1.00800 ; qtot 1.122
 10323   hE   263    PC   H1B 10323     0.078534      1.00800 ; qtot 1.200
 10324   cA   263    PC   C32 10324    -0.170824     12.01000 ; qtot 1.029
 10325   hX   263    PC   H2A 10325     0.136415      1.00800 ; qtot 1.166
 10326   hX   263    PC   H2B 10326     0.136415      1.00800 ; qtot 1.302
 10327   nA   263    PC   N31 10327     0.245262     14.01000 ; qtot 1.548
 10328   cA   263    PC   C33 10328    -0.338973     12.01000 ; qtot 1.209
 10329   hX   263    PC   H3A 10329     0.172230      1.00800 ; qtot 1.381
 10330   hX   263    PC   H3B 10330     0.172230      1.00800 ; qtot 1.553
 10331   hX   263    PC   H3C 10331     0.172230      1.00800 ; qtot 1.725
 10332   cA   263    PC   C34 10332    -0.338973     12.01000 ; qtot 1.386
 10333   hX   263    PC   H4A 10333     0.172230      1.00800 ; qtot 1.559
 10334   hX   263    PC   H4B 10334     0.172230      1.00800 ; qtot 1.731
 10335   hX   263    PC   H4C 10335     0.172230      1.00800 ; qtot 1.903
 10336   cA   263    PC   C35 10336    -0.338973     12.01000 ; qtot 1.564
 10337   hX   263    PC   H5A 10337     0.172230      1.00800 ; qtot 1.736
 10338   hX   263    PC   H5B 10338     0.172230      1.00800 ; qtot 1.908
 10339   hX   263    PC   H5C 10339     0.172230      1.00800 ; qtot 2.081
 10340   oP   263    PC   O33 10340    -0.875812     16.00000 ; qtot 1.205
 10341   oP   263    PC   O34 10341    -0.875812     16.00000 ; qtot 0.329
 10342   oS   263    PC   O21 10342    -0.552948     16.00000 ; qtot -0.224
 10343   cC   263    PC   C21 10343     0.897613     12.01000 ; qtot 0.674
 10344   oC   263    PC   O22 10344    -0.673755     16.00000 ; qtot 0.000
 10345   hL   264    MY  H14T 10345     0.025511      1.00800 ; qtot 0.026
 10346   cD   264    MY  C114 10346    -0.111712     12.01000 ; qtot -0.086
 10347   hL   264    MY  H14R 10347     0.025511      1.00800 ; qtot -0.061
 10348   hL   264    MY  H14S 10348     0.025511      1.00800 ; qtot -0.035
 10349   cD   264    MY  C113 10349     0.017463     12.01000 ; qtot -0.018
 10350   hL   264    MY  H13R 10350     0.007531      1.00800 ; qtot -0.010
 10351   hL   264    MY  H13S 10351     0.007531      1.00800 ; qtot -0.003
 10352   cD   264    MY  C112 10352    -0.028094     12.01000 ; qtot -0.031
 10353   hL   264    MY  H12R 10353     0.017208      1.00800 ; qtot -0.014
 10354   hL   264    MY  H12S 10354     0.017208      1.00800 ; qtot 0.004
 10355   cD   264    MY  C111 10355    -0.031787     12.01000 ; qtot -0.028
 10356   hL   264    MY  H11R 10356     0.012677      1.00800 ; qtot -0.015
 10357   hL   264    MY  H11S 10357     0.012677      1.00800 ; qtot -0.003
 10358   cD   264    MY  C110 10358    -0.021025     12.01000 ; qtot -0.024
 10359   hL   264    MY  H10R 10359     0.010037      1.00800 ; qtot -0.014
 10360   hL   264    MY  H10S 10360     0.010037      1.00800 ; qtot -0.004
 10361   cD   264    MY   C19 10361    -0.014653     12.01000 ; qtot -0.018
 10362   hL   264    MY   H9R 10362     0.010172      1.00800 ; qtot -0.008
 10363   hL   264    MY   H9S 10363     0.010172      1.00800 ; qtot 0.002
 10364   cD   264    MY   C18 10364    -0.026451     12.01000 ; qtot -0.024
 10365   hL   264    MY   H8R 10365     0.011241      1.00800 ; qtot -0.013
 10366   hL   264    MY   H8S 10366     0.011241      1.00800 ; qtot -0.002
 10367   cD   264    MY   C17 10367    -0.004386     12.01000 ; qtot -0.006
 10368   hL   264    MY   H7R 10368     0.006833      1.00800 ; qtot 0.000
 10369   hL   264    MY   H7S 10369     0.006833      1.00800 ; qtot 0.007
 10370   cD   264    MY   C16 10370    -0.027812     12.01000 ; qtot -0.021
 10371   hL   264    MY   H6R 10371     0.011511      1.00800 ; qtot -0.009
 10372   hL   264    MY   H6S 10372     0.011511      1.00800 ; qtot 0.002
 10373   cD   264    MY   C15 10373    -0.016521     12.01000 ; qtot -0.014
 10374   hL   264    MY   H5R 10374     0.010573      1.00800 ; qtot -0.003
 10375   hL   264    MY   H5S 10375     0.010573      1.00800 ; qtot 0.007
 10376   cD   264    MY   C14 10376    -0.026954     12.01000 ; qtot -0.020
 10377   hL   264    MY   H4R 10377     0.020431      1.00800 ; qtot 0.001
 10378   hL   264    MY   H4S 10378     0.020431      1.00800 ; qtot 0.021
 10379   cD   264    MY   C13 10379    -0.002435     12.01000 ; qtot 0.019
 10380   hL   264    MY   H3R 10380     0.018859      1.00800 ; qtot 0.037
 10381   hL   264    MY   H3S 10381     0.018859      1.00800 ; qtot 0.056
 10382   cD   264    MY   C12 10382    -0.164200     12.01000 ; qtot -0.108
 10383   hL   264    MY   H2R 10383     0.053944      1.00800 ; qtot -0.054
 10384   hL   264    MY   H2S 10384     0.053944      1.00800 ; qtot -0.000
 10385   hL   265    MY  H14T 10385     0.025511      1.00800 ; qtot 0.026
 10386   cD   265    MY  C114 10386    -0.111712     12.01000 ; qtot -0.086
 10387   hL   265    MY  H14R 10387     0.025511      1.00800 ; qtot -0.061
 10388   hL   265    MY  H14S 10388     0.025511      1.00800 ; qtot -0.035
 10389   cD   265    MY  C113 10389     0.017463     12.01000 ; qtot -0.018
 10390   hL   265    MY  H13R 10390     0.007531      1.00800 ; qtot -0.010
 10391   hL   265    MY  H13S 10391     0.007531      1.00800 ; qtot -0.003
 10392   cD   265    MY  C112 10392    -0.028094     12.01000 ; qtot -0.031
 10393   hL   265    MY  H12R 10393     0.017208      1.00800 ; qtot -0.014
 10394   hL   265    MY  H12S 10394     0.017208      1.00800 ; qtot 0.004
 10395   cD   265    MY  C111 10395    -0.031787     12.01000 ; qtot -0.028
 10396   hL   265    MY  H11R 10396     0.012677      1.00800 ; qtot -0.015
 10397   hL   265    MY  H11S 10397     0.012677      1.00800 ; qtot -0.003
 10398   cD   265    MY  C110 10398    -0.021025     12.01000 ; qtot -0.024
 10399   hL   265    MY  H10R 10399     0.010037      1.00800 ; qtot -0.014
 10400   hL   265    MY  H10S 10400     0.010037      1.00800 ; qtot -0.004
 10401   cD   265    MY   C19 10401    -0.014653     12.01000 ; qtot -0.018
 10402   hL   265    MY   H9R 10402     0.010172      1.00800 ; qtot -0.008
 10403   hL   265    MY   H9S 10403     0.010172      1.00800 ; qtot 0.002
 10404   cD   265    MY   C18 10404    -0.026451     12.01000 ; qtot -0.024
 10405   hL   265    MY   H8R 10405     0.011241      1.00800 ; qtot -0.013
 10406   hL   265    MY   H8S 10406     0.011241      1.00800 ; qtot -0.002
 10407   cD   265    MY   C17 10407    -0.004386     12.01000 ; qtot -0.006
 10408   hL   265    MY   H7R 10408     0.006833      1.00800 ; qtot 0.000
 10409   hL   265    MY   H7S 10409     0.006833      1.00800 ; qtot 0.007
 10410   cD   265    MY   C16 10410    -0.027812     12.01000 ; qtot -0.021
 10411   hL   265    MY   H6R 10411     0.011511      1.00800 ; qtot -0.009
 10412   hL   265    MY   H6S 10412     0.011511      1.00800 ; qtot 0.002
 10413   cD   265    MY   C15 10413    -0.016521     12.01000 ; qtot -0.014
 10414   hL   265    MY   H5R 10414     0.010573      1.00800 ; qtot -0.003
 10415   hL   265    MY   H5S 10415     0.010573      1.00800 ; qtot 0.007
 10416   cD   265    MY   C14 10416    -0.026954     12.01000 ; qtot -0.020
 10417   hL   265    MY   H4R 10417     0.020431      1.00800 ; qtot 0.001
 10418   hL   265    MY   H4S 10418     0.020431      1.00800 ; qtot 0.021
 10419   cD   265    MY   C13 10419    -0.002435     12.01000 ; qtot 0.019
 10420   hL   265    MY   H3R 10420     0.018859      1.00800 ; qtot 0.037
 10421   hL   265    MY   H3S 10421     0.018859      1.00800 ; qtot 0.056
 10422   cD   265    MY   C12 10422    -0.164200     12.01000 ; qtot -0.108
 10423   hL   265    MY   H2R 10423     0.053944      1.00800 ; qtot -0.054
 10424   hL   265    MY   H2S 10424     0.053944      1.00800 ; qtot -0.000
 10425   cC   266    PC   C11 10425     0.910403     12.01000 ; qtot 0.910
 10426   oC   266    PC   O12 10426    -0.671566     16.00000 ; qtot 0.239
 10427   oS   266    PC   O11 10427    -0.575489     16.00000 ; qtot -0.337
 10428   cA   266    PC    C1 10428     0.196939     12.01000 ; qtot -0.140
 10429   hE   266    PC    HR 10429     0.070469      1.00800 ; qtot -0.069
 10430   hE   266    PC    HS 10430     0.070469      1.00800 ; qtot 0.001
 10431   cA   266    PC    C2 10431     0.281242     12.01000 ; qtot 0.282
 10432   hE   266    PC    HX 10432     0.063253      1.00800 ; qtot 0.346
 10433   cA   266    PC    C3 10433     0.017459     12.01000 ; qtot 0.363
 10434   hE   266    PC    HA 10434     0.095591      1.00800 ; qtot 0.459
 10435   hE   266    PC    HB 10435     0.095591      1.00800 ; qtot 0.554
 10436   oT   266    PC   O31 10436    -0.509480     16.00000 ; qtot 0.045
 10437   pA   266    PC   P31 10437     1.339721     30.97000 ; qtot 1.385
 10438   oT   266    PC   O32 10438    -0.508176     16.00000 ; qtot 0.876
 10439   cA   266    PC   C31 10439     0.166801     12.01000 ; qtot 1.043
 10440   hE   266    PC   H1A 10440     0.078534      1.00800 ; qtot 1.122
 10441   hE   266    PC   H1B 10441     0.078534      1.00800 ; qtot 1.200
 10442   cA   266    PC   C32 10442    -0.170824     12.01000 ; qtot 1.029
 10443   hX   266    PC   H2A 10443     0.136415      1.00800 ; qtot 1.166
 10444   hX   266    PC   H2B 10444     0.136415      1.00800 ; qtot 1.302
 10445   nA   266    PC   N31 10445     0.245262     14.01000 ; qtot 1.548
 10446   cA   266    PC   C33 10446    -0.338973     12.01000 ; qtot 1.209
 10447   hX   266    PC   H3A 10447     0.172230      1.00800 ; qtot 1.381
 10448   hX   266    PC   H3B 10448     0.172230      1.00800 ; qtot 1.553
 10449   hX   266    PC   H3C 10449     0.172230      1.00800 ; qtot 1.725
 10450   cA   266    PC   C34 10450    -0.338973     12.01000 ; qtot 1.386
 10451   hX   266    PC   H4A 10451     0.172230      1.00800 ; qtot 1.559
 10452   hX   266    PC   H4B 10452     0.172230      1.00800 ; qtot 1.731
 10453   hX   266    PC   H4C 10453     0.172230      1.00800 ; qtot 1.903
 10454   cA   266    PC   C35 10454    -0.338973     12.01000 ; qtot 1.564
 10455   hX   266    PC   H5A 10455     0.172230      1.00800 ; qtot 1.736
 10456   hX   266    PC   H5B 10456     0.172230      1.00800 ; qtot 1.908
 10457   hX   266    PC   H5C 10457     0.172230      1.00800 ; qtot 2.081
 10458   oP   266    PC   O33 10458    -0.875812     16.00000 ; qtot 1.205
 10459   oP   266    PC   O34 10459    -0.875812     16.00000 ; qtot 0.329
 10460   oS   266    PC   O21 10460    -0.552948     16.00000 ; qtot -0.224
 10461   cC   266    PC   C21 10461     0.897613     12.01000 ; qtot 0.674
 10462   oC   266    PC   O22 10462    -0.673755     16.00000 ; qtot 0.000
 10463   hL   267    MY  H14T 10463     0.025511      1.00800 ; qtot 0.026
 10464   cD   267    MY  C114 10464    -0.111712     12.01000 ; qtot -0.086
 10465   hL   267    MY  H14R 10465     0.025511      1.00800 ; qtot -0.061
 10466   hL   267    MY  H14S 10466     0.025511      1.00800 ; qtot -0.035
 10467   cD   267    MY  C113 10467     0.017463     12.01000 ; qtot -0.018
 10468   hL   267    MY  H13R 10468     0.007531      1.00800 ; qtot -0.010
 10469   hL   267    MY  H13S 10469     0.007531      1.00800 ; qtot -0.003
 10470   cD   267    MY  C112 10470    -0.028094     12.01000 ; qtot -0.031
 10471   hL   267    MY  H12R 10471     0.017208      1.00800 ; qtot -0.014
 10472   hL   267    MY  H12S 10472     0.017208      1.00800 ; qtot 0.004
 10473   cD   267    MY  C111 10473    -0.031787     12.01000 ; qtot -0.028
 10474   hL   267    MY  H11R 10474     0.012677      1.00800 ; qtot -0.015
 10475   hL   267    MY  H11S 10475     0.012677      1.00800 ; qtot -0.003
 10476   cD   267    MY  C110 10476    -0.021025     12.01000 ; qtot -0.024
 10477   hL   267    MY  H10R 10477     0.010037      1.00800 ; qtot -0.014
 10478   hL   267    MY  H10S 10478     0.010037      1.00800 ; qtot -0.004
 10479   cD   267    MY   C19 10479    -0.014653     12.01000 ; qtot -0.018
 10480   hL   267    MY   H9R 10480     0.010172      1.00800 ; qtot -0.008
 10481   hL   267    MY   H9S 10481     0.010172      1.00800 ; qtot 0.002
 10482   cD   267    MY   C18 10482    -0.026451     12.01000 ; qtot -0.024
 10483   hL   267    MY   H8R 10483     0.011241      1.00800 ; qtot -0.013
 10484   hL   267    MY   H8S 10484     0.011241      1.00800 ; qtot -0.002
 10485   cD   267    MY   C17 10485    -0.004386     12.01000 ; qtot -0.006
 10486   hL   267    MY   H7R 10486     0.006833      1.00800 ; qtot 0.000
 10487   hL   267    MY   H7S 10487     0.006833      1.00800 ; qtot 0.007
 10488   cD   267    MY   C16 10488    -0.027812     12.01000 ; qtot -0.021
 10489   hL   267    MY   H6R 10489     0.011511      1.00800 ; qtot -0.009
 10490   hL   267    MY   H6S 10490     0.011511      1.00800 ; qtot 0.002
 10491   cD   267    MY   C15 10491    -0.016521     12.01000 ; qtot -0.014
 10492   hL   267    MY   H5R 10492     0.010573      1.00800 ; qtot -0.003
 10493   hL   267    MY   H5S 10493     0.010573      1.00800 ; qtot 0.007
 10494   cD   267    MY   C14 10494    -0.026954     12.01000 ; qtot -0.020
 10495   hL   267    MY   H4R 10495     0.020431      1.00800 ; qtot 0.001
 10496   hL   267    MY   H4S 10496     0.020431      1.00800 ; qtot 0.021
 10497   cD   267    MY   C13 10497    -0.002435     12.01000 ; qtot 0.019
 10498   hL   267    MY   H3R 10498     0.018859      1.00800 ; qtot 0.037
 10499   hL   267    MY   H3S 10499     0.018859      1.00800 ; qtot 0.056
 10500   cD   267    MY   C12 10500    -0.164200     12.01000 ; qtot -0.108
 10501   hL   267    MY   H2R 10501     0.053944      1.00800 ; qtot -0.054
 10502   hL   267    MY   H2S 10502     0.053944      1.00800 ; qtot -0.000
 10503   hL   268    MY  H14T 10503     0.025511      1.00800 ; qtot 0.026
 10504   cD   268    MY  C114 10504    -0.111712     12.01000 ; qtot -0.086
 10505   hL   268    MY  H14R 10505     0.025511      1.00800 ; qtot -0.061
 10506   hL   268    MY  H14S 10506     0.025511      1.00800 ; qtot -0.035
 10507   cD   268    MY  C113 10507     0.017463     12.01000 ; qtot -0.018
 10508   hL   268    MY  H13R 10508     0.007531      1.00800 ; qtot -0.010
 10509   hL   268    MY  H13S 10509     0.007531      1.00800 ; qtot -0.003
 10510   cD   268    MY  C112 10510    -0.028094     12.01000 ; qtot -0.031
 10511   hL   268    MY  H12R 10511     0.017208      1.00800 ; qtot -0.014
 10512   hL   268    MY  H12S 10512     0.017208      1.00800 ; qtot 0.004
 10513   cD   268    MY  C111 10513    -0.031787     12.01000 ; qtot -0.028
 10514   hL   268    MY  H11R 10514     0.012677      1.00800 ; qtot -0.015
 10515   hL   268    MY  H11S 10515     0.012677      1.00800 ; qtot -0.003
 10516   cD   268    MY  C110 10516    -0.021025     12.01000 ; qtot -0.024
 10517   hL   268    MY  H10R 10517     0.010037      1.00800 ; qtot -0.014
 10518   hL   268    MY  H10S 10518     0.010037      1.00800 ; qtot -0.004
 10519   cD   268    MY   C19 10519    -0.014653     12.01000 ; qtot -0.018
 10520   hL   268    MY   H9R 10520     0.010172      1.00800 ; qtot -0.008
 10521   hL   268    MY   H9S 10521     0.010172      1.00800 ; qtot 0.002
 10522   cD   268    MY   C18 10522    -0.026451     12.01000 ; qtot -0.024
 10523   hL   268    MY   H8R 10523     0.011241      1.00800 ; qtot -0.013
 10524   hL   268    MY   H8S 10524     0.011241      1.00800 ; qtot -0.002
 10525   cD   268    MY   C17 10525    -0.004386     12.01000 ; qtot -0.006
 10526   hL   268    MY   H7R 10526     0.006833      1.00800 ; qtot 0.000
 10527   hL   268    MY   H7S 10527     0.006833      1.00800 ; qtot 0.007
 10528   cD   268    MY   C16 10528    -0.027812     12.01000 ; qtot -0.021
 10529   hL   268    MY   H6R 10529     0.011511      1.00800 ; qtot -0.009
 10530   hL   268    MY   H6S 10530     0.011511      1.00800 ; qtot 0.002
 10531   cD   268    MY   C15 10531    -0.016521     12.01000 ; qtot -0.014
 10532   hL   268    MY   H5R 10532     0.010573      1.00800 ; qtot -0.003
 10533   hL   268    MY   H5S 10533     0.010573      1.00800 ; qtot 0.007
 10534   cD   268    MY   C14 10534    -0.026954     12.01000 ; qtot -0.020
 10535   hL   268    MY   H4R 10535     0.020431      1.00800 ; qtot 0.001
 10536   hL   268    MY   H4S 10536     0.020431      1.00800 ; qtot 0.021
 10537   cD   268    MY   C13 10537    -0.002435     12.01000 ; qtot 0.019
 10538   hL   268    MY   H3R 10538     0.018859      1.00800 ; qtot 0.037
 10539   hL   268    MY   H3S 10539     0.018859      1.00800 ; qtot 0.056
 10540   cD   268    MY   C12 10540    -0.164200     12.01000 ; qtot -0.108
 10541   hL   268    MY   H2R 10541     0.053944      1.00800 ; qtot -0.054
 10542   hL   268    MY   H2S 10542     0.053944      1.00800 ; qtot -0.000
 10543   cC   269    PC   C11 10543     0.910403     12.01000 ; qtot 0.910
 10544   oC   269    PC   O12 10544    -0.671566     16.00000 ; qtot 0.239
 10545   oS   269    PC   O11 10545    -0.575489     16.00000 ; qtot -0.337
 10546   cA   269    PC    C1 10546     0.196939     12.01000 ; qtot -0.140
 10547   hE   269    PC    HR 10547     0.070469      1.00800 ; qtot -0.069
 10548   hE   269    PC    HS 10548     0.070469      1.00800 ; qtot 0.001
 10549   cA   269    PC    C2 10549     0.281242     12.01000 ; qtot 0.282
 10550   hE   269    PC    HX 10550     0.063253      1.00800 ; qtot 0.346
 10551   cA   269    PC    C3 10551     0.017459     12.01000 ; qtot 0.363
 10552   hE   269    PC    HA 10552     0.095591      1.00800 ; qtot 0.459
 10553   hE   269    PC    HB 10553     0.095591      1.00800 ; qtot 0.554
 10554   oT   269    PC   O31 10554    -0.509480     16.00000 ; qtot 0.045
 10555   pA   269    PC   P31 10555     1.339721     30.97000 ; qtot 1.385
 10556   oT   269    PC   O32 10556    -0.508176     16.00000 ; qtot 0.876
 10557   cA   269    PC   C31 10557     0.166801     12.01000 ; qtot 1.043
 10558   hE   269    PC   H1A 10558     0.078534      1.00800 ; qtot 1.122
 10559   hE   269    PC   H1B 10559     0.078534      1.00800 ; qtot 1.200
 10560   cA   269    PC   C32 10560    -0.170824     12.01000 ; qtot 1.029
 10561   hX   269    PC   H2A 10561     0.136415      1.00800 ; qtot 1.166
 10562   hX   269    PC   H2B 10562     0.136415      1.00800 ; qtot 1.302
 10563   nA   269    PC   N31 10563     0.245262     14.01000 ; qtot 1.548
 10564   cA   269    PC   C33 10564    -0.338973     12.01000 ; qtot 1.209
 10565   hX   269    PC   H3A 10565     0.172230      1.00800 ; qtot 1.381
 10566   hX   269    PC   H3B 10566     0.172230      1.00800 ; qtot 1.553
 10567   hX   269    PC   H3C 10567     0.172230      1.00800 ; qtot 1.725
 10568   cA   269    PC   C34 10568    -0.338973     12.01000 ; qtot 1.386
 10569   hX   269    PC   H4A 10569     0.172230      1.00800 ; qtot 1.559
 10570   hX   269    PC   H4B 10570     0.172230      1.00800 ; qtot 1.731
 10571   hX   269    PC   H4C 10571     0.172230      1.00800 ; qtot 1.903
 10572   cA   269    PC   C35 10572    -0.338973     12.01000 ; qtot 1.564
 10573   hX   269    PC   H5A 10573     0.172230      1.00800 ; qtot 1.736
 10574   hX   269    PC   H5B 10574     0.172230      1.00800 ; qtot 1.908
 10575   hX   269    PC   H5C 10575     0.172230      1.00800 ; qtot 2.081
 10576   oP   269    PC   O33 10576    -0.875812     16.00000 ; qtot 1.205
 10577   oP   269    PC   O34 10577    -0.875812     16.00000 ; qtot 0.329
 10578   oS   269    PC   O21 10578    -0.552948     16.00000 ; qtot -0.224
 10579   cC   269    PC   C21 10579     0.897613     12.01000 ; qtot 0.674
 10580   oC   269    PC   O22 10580    -0.673755     16.00000 ; qtot 0.000
 10581   hL   270    MY  H14T 10581     0.025511      1.00800 ; qtot 0.026
 10582   cD   270    MY  C114 10582    -0.111712     12.01000 ; qtot -0.086
 10583   hL   270    MY  H14R 10583     0.025511      1.00800 ; qtot -0.061
 10584   hL   270    MY  H14S 10584     0.025511      1.00800 ; qtot -0.035
 10585   cD   270    MY  C113 10585     0.017463     12.01000 ; qtot -0.018
 10586   hL   270    MY  H13R 10586     0.007531      1.00800 ; qtot -0.010
 10587   hL   270    MY  H13S 10587     0.007531      1.00800 ; qtot -0.003
 10588   cD   270    MY  C112 10588    -0.028094     12.01000 ; qtot -0.031
 10589   hL   270    MY  H12R 10589     0.017208      1.00800 ; qtot -0.014
 10590   hL   270    MY  H12S 10590     0.017208      1.00800 ; qtot 0.004
 10591   cD   270    MY  C111 10591    -0.031787     12.01000 ; qtot -0.028
 10592   hL   270    MY  H11R 10592     0.012677      1.00800 ; qtot -0.015
 10593   hL   270    MY  H11S 10593     0.012677      1.00800 ; qtot -0.003
 10594   cD   270    MY  C110 10594    -0.021025     12.01000 ; qtot -0.024
 10595   hL   270    MY  H10R 10595     0.010037      1.00800 ; qtot -0.014
 10596   hL   270    MY  H10S 10596     0.010037      1.00800 ; qtot -0.004
 10597   cD   270    MY   C19 10597    -0.014653     12.01000 ; qtot -0.018
 10598   hL   270    MY   H9R 10598     0.010172      1.00800 ; qtot -0.008
 10599   hL   270    MY   H9S 10599     0.010172      1.00800 ; qtot 0.002
 10600   cD   270    MY   C18 10600    -0.026451     12.01000 ; qtot -0.024
 10601   hL   270    MY   H8R 10601     0.011241      1.00800 ; qtot -0.013
 10602   hL   270    MY   H8S 10602     0.011241      1.00800 ; qtot -0.002
 10603   cD   270    MY   C17 10603    -0.004386     12.01000 ; qtot -0.006
 10604   hL   270    MY   H7R 10604     0.006833      1.00800 ; qtot 0.000
 10605   hL   270    MY   H7S 10605     0.006833      1.00800 ; qtot 0.007
 10606   cD   270    MY   C16 10606    -0.027812     12.01000 ; qtot -0.021
 10607   hL   270    MY   H6R 10607     0.011511      1.00800 ; qtot -0.009
 10608   hL   270    MY   H6S 10608     0.011511      1.00800 ; qtot 0.002
 10609   cD   270    MY   C15 10609    -0.016521     12.01000 ; qtot -0.014
 10610   hL   270    MY   H5R 10610     0.010573      1.00800 ; qtot -0.003
 10611   hL   270    MY   H5S 10611     0.010573      1.00800 ; qtot 0.007
 10612   cD   270    MY   C14 10612    -0.026954     12.01000 ; qtot -0.020
 10613   hL   270    MY   H4R 10613     0.020431      1.00800 ; qtot 0.001
 10614   hL   270    MY   H4S 10614     0.020431      1.00800 ; qtot 0.021
 10615   cD   270    MY   C13 10615    -0.002435     12.01000 ; qtot 0.019
 10616   hL   270    MY   H3R 10616     0.018859      1.00800 ; qtot 0.037
 10617   hL   270    MY   H3S 10617     0.018859      1.00800 ; qtot 0.056
 10618   cD   270    MY   C12 10618    -0.164200     12.01000 ; qtot -0.108
 10619   hL   270    MY   H2R 10619     0.053944      1.00800 ; qtot -0.054
 10620   hL   270    MY   H2S 10620     0.053944      1.00800 ; qtot -0.000
 10621   hL   271    MY  H14T 10621     0.025511      1.00800 ; qtot 0.026
 10622   cD   271    MY  C114 10622    -0.111712     12.01000 ; qtot -0.086
 10623   hL   271    MY  H14R 10623     0.025511      1.00800 ; qtot -0.061
 10624   hL   271    MY  H14S 10624     0.025511      1.00800 ; qtot -0.035
 10625   cD   271    MY  C113 10625     0.017463     12.01000 ; qtot -0.018
 10626   hL   271    MY  H13R 10626     0.007531      1.00800 ; qtot -0.010
 10627   hL   271    MY  H13S 10627     0.007531      1.00800 ; qtot -0.003
 10628   cD   271    MY  C112 10628    -0.028094     12.01000 ; qtot -0.031
 10629   hL   271    MY  H12R 10629     0.017208      1.00800 ; qtot -0.014
 10630   hL   271    MY  H12S 10630     0.017208      1.00800 ; qtot 0.004
 10631   cD   271    MY  C111 10631    -0.031787     12.01000 ; qtot -0.028
 10632   hL   271    MY  H11R 10632     0.012677      1.00800 ; qtot -0.015
 10633   hL   271    MY  H11S 10633     0.012677      1.00800 ; qtot -0.003
 10634   cD   271    MY  C110 10634    -0.021025     12.01000 ; qtot -0.024
 10635   hL   271    MY  H10R 10635     0.010037      1.00800 ; qtot -0.014
 10636   hL   271    MY  H10S 10636     0.010037      1.00800 ; qtot -0.004
 10637   cD   271    MY   C19 10637    -0.014653     12.01000 ; qtot -0.018
 10638   hL   271    MY   H9R 10638     0.010172      1.00800 ; qtot -0.008
 10639   hL   271    MY   H9S 10639     0.010172      1.00800 ; qtot 0.002
 10640   cD   271    MY   C18 10640    -0.026451     12.01000 ; qtot -0.024
 10641   hL   271    MY   H8R 10641     0.011241      1.00800 ; qtot -0.013
 10642   hL   271    MY   H8S 10642     0.011241      1.00800 ; qtot -0.002
 10643   cD   271    MY   C17 10643    -0.004386     12.01000 ; qtot -0.006
 10644   hL   271    MY   H7R 10644     0.006833      1.00800 ; qtot 0.000
 10645   hL   271    MY   H7S 10645     0.006833      1.00800 ; qtot 0.007
 10646   cD   271    MY   C16 10646    -0.027812     12.01000 ; qtot -0.021
 10647   hL   271    MY   H6R 10647     0.011511      1.00800 ; qtot -0.009
 10648   hL   271    MY   H6S 10648     0.011511      1.00800 ; qtot 0.002
 10649   cD   271    MY   C15 10649    -0.016521     12.01000 ; qtot -0.014
 10650   hL   271    MY   H5R 10650     0.010573      1.00800 ; qtot -0.003
 10651   hL   271    MY   H5S 10651     0.010573      1.00800 ; qtot 0.007
 10652   cD   271    MY   C14 10652    -0.026954     12.01000 ; qtot -0.020
 10653   hL   271    MY   H4R 10653     0.020431      1.00800 ; qtot 0.001
 10654   hL   271    MY   H4S 10654     0.020431      1.00800 ; qtot 0.021
 10655   cD   271    MY   C13 10655    -0.002435     12.01000 ; qtot 0.019
 10656   hL   271    MY   H3R 10656     0.018859      1.00800 ; qtot 0.037
 10657   hL   271    MY   H3S 10657     0.018859      1.00800 ; qtot 0.056
 10658   cD   271    MY   C12 10658    -0.164200     12.01000 ; qtot -0.108
 10659   hL   271    MY   H2R 10659     0.053944      1.00800 ; qtot -0.054
 10660   hL   271    MY   H2S 10660     0.053944      1.00800 ; qtot -0.000
 10661   cC   272    PC   C11 10661     0.910403     12.01000 ; qtot 0.910
 10662   oC   272    PC   O12 10662    -0.671566     16.00000 ; qtot 0.239
 10663   oS   272    PC   O11 10663    -0.575489     16.00000 ; qtot -0.337
 10664   cA   272    PC    C1 10664     0.196939     12.01000 ; qtot -0.140
 10665   hE   272    PC    HR 10665     0.070469      1.00800 ; qtot -0.069
 10666   hE   272    PC    HS 10666     0.070469      1.00800 ; qtot 0.001
 10667   cA   272    PC    C2 10667     0.281242     12.01000 ; qtot 0.282
 10668   hE   272    PC    HX 10668     0.063253      1.00800 ; qtot 0.346
 10669   cA   272    PC    C3 10669     0.017459     12.01000 ; qtot 0.363
 10670   hE   272    PC    HA 10670     0.095591      1.00800 ; qtot 0.459
 10671   hE   272    PC    HB 10671     0.095591      1.00800 ; qtot 0.554
 10672   oT   272    PC   O31 10672    -0.509480     16.00000 ; qtot 0.045
 10673   pA   272    PC   P31 10673     1.339721     30.97000 ; qtot 1.385
 10674   oT   272    PC   O32 10674    -0.508176     16.00000 ; qtot 0.876
 10675   cA   272    PC   C31 10675     0.166801     12.01000 ; qtot 1.043
 10676   hE   272    PC   H1A 10676     0.078534      1.00800 ; qtot 1.122
 10677   hE   272    PC   H1B 10677     0.078534      1.00800 ; qtot 1.200
 10678   cA   272    PC   C32 10678    -0.170824     12.01000 ; qtot 1.029
 10679   hX   272    PC   H2A 10679     0.136415      1.00800 ; qtot 1.166
 10680   hX   272    PC   H2B 10680     0.136415      1.00800 ; qtot 1.302
 10681   nA   272    PC   N31 10681     0.245262     14.01000 ; qtot 1.548
 10682   cA   272    PC   C33 10682    -0.338973     12.01000 ; qtot 1.209
 10683   hX   272    PC   H3A 10683     0.172230      1.00800 ; qtot 1.381
 10684   hX   272    PC   H3B 10684     0.172230      1.00800 ; qtot 1.553
 10685   hX   272    PC   H3C 10685     0.172230      1.00800 ; qtot 1.725
 10686   cA   272    PC   C34 10686    -0.338973     12.01000 ; qtot 1.386
 10687   hX   272    PC   H4A 10687     0.172230      1.00800 ; qtot 1.559
 10688   hX   272    PC   H4B 10688     0.172230      1.00800 ; qtot 1.731
 10689   hX   272    PC   H4C 10689     0.172230      1.00800 ; qtot 1.903
 10690   cA   272    PC   C35 10690    -0.338973     12.01000 ; qtot 1.564
 10691   hX   272    PC   H5A 10691     0.172230      1.00800 ; qtot 1.736
 10692   hX   272    PC   H5B 10692     0.172230      1.00800 ; qtot 1.908
 10693   hX   272    PC   H5C 10693     0.172230      1.00800 ; qtot 2.081
 10694   oP   272    PC   O33 10694    -0.875812     16.00000 ; qtot 1.205
 10695   oP   272    PC   O34 10695    -0.875812     16.00000 ; qtot 0.329
 10696   oS   272    PC   O21 10696    -0.552948     16.00000 ; qtot -0.224
 10697   cC   272    PC   C21 10697     0.897613     12.01000 ; qtot 0.674
 10698   oC   272    PC   O22 10698    -0.673755     16.00000 ; qtot 0.000
 10699   hL   273    MY  H14T 10699     0.025511      1.00800 ; qtot 0.026
 10700   cD   273    MY  C114 10700    -0.111712     12.01000 ; qtot -0.086
 10701   hL   273    MY  H14R 10701     0.025511      1.00800 ; qtot -0.061
 10702   hL   273    MY  H14S 10702     0.025511      1.00800 ; qtot -0.035
 10703   cD   273    MY  C113 10703     0.017463     12.01000 ; qtot -0.018
 10704   hL   273    MY  H13R 10704     0.007531      1.00800 ; qtot -0.010
 10705   hL   273    MY  H13S 10705     0.007531      1.00800 ; qtot -0.003
 10706   cD   273    MY  C112 10706    -0.028094     12.01000 ; qtot -0.031
 10707   hL   273    MY  H12R 10707     0.017208      1.00800 ; qtot -0.014
 10708   hL   273    MY  H12S 10708     0.017208      1.00800 ; qtot 0.004
 10709   cD   273    MY  C111 10709    -0.031787     12.01000 ; qtot -0.028
 10710   hL   273    MY  H11R 10710     0.012677      1.00800 ; qtot -0.015
 10711   hL   273    MY  H11S 10711     0.012677      1.00800 ; qtot -0.003
 10712   cD   273    MY  C110 10712    -0.021025     12.01000 ; qtot -0.024
 10713   hL   273    MY  H10R 10713     0.010037      1.00800 ; qtot -0.014
 10714   hL   273    MY  H10S 10714     0.010037      1.00800 ; qtot -0.004
 10715   cD   273    MY   C19 10715    -0.014653     12.01000 ; qtot -0.018
 10716   hL   273    MY   H9R 10716     0.010172      1.00800 ; qtot -0.008
 10717   hL   273    MY   H9S 10717     0.010172      1.00800 ; qtot 0.002
 10718   cD   273    MY   C18 10718    -0.026451     12.01000 ; qtot -0.024
 10719   hL   273    MY   H8R 10719     0.011241      1.00800 ; qtot -0.013
 10720   hL   273    MY   H8S 10720     0.011241      1.00800 ; qtot -0.002
 10721   cD   273    MY   C17 10721    -0.004386     12.01000 ; qtot -0.006
 10722   hL   273    MY   H7R 10722     0.006833      1.00800 ; qtot 0.000
 10723   hL   273    MY   H7S 10723     0.006833      1.00800 ; qtot 0.007
 10724   cD   273    MY   C16 10724    -0.027812     12.01000 ; qtot -0.021
 10725   hL   273    MY   H6R 10725     0.011511      1.00800 ; qtot -0.009
 10726   hL   273    MY   H6S 10726     0.011511      1.00800 ; qtot 0.002
 10727   cD   273    MY   C15 10727    -0.016521     12.01000 ; qtot -0.014
 10728   hL   273    MY   H5R 10728     0.010573      1.00800 ; qtot -0.003
 10729   hL   273    MY   H5S 10729     0.010573      1.00800 ; qtot 0.007
 10730   cD   273    MY   C14 10730    -0.026954     12.01000 ; qtot -0.020
 10731   hL   273    MY   H4R 10731     0.020431      1.00800 ; qtot 0.001
 10732   hL   273    MY   H4S 10732     0.020431      1.00800 ; qtot 0.021
 10733   cD   273    MY   C13 10733    -0.002435     12.01000 ; qtot 0.019
 10734   hL   273    MY   H3R 10734     0.018859      1.00800 ; qtot 0.037
 10735   hL   273    MY   H3S 10735     0.018859      1.00800 ; qtot 0.056
 10736   cD   273    MY   C12 10736    -0.164200     12.01000 ; qtot -0.108
 10737   hL   273    MY   H2R 10737     0.053944      1.00800 ; qtot -0.054
 10738   hL   273    MY   H2S 10738     0.053944      1.00800 ; qtot -0.000
 10739   hL   274    MY  H14T 10739     0.025511      1.00800 ; qtot 0.026
 10740   cD   274    MY  C114 10740    -0.111712     12.01000 ; qtot -0.086
 10741   hL   274    MY  H14R 10741     0.025511      1.00800 ; qtot -0.061
 10742   hL   274    MY  H14S 10742     0.025511      1.00800 ; qtot -0.035
 10743   cD   274    MY  C113 10743     0.017463     12.01000 ; qtot -0.018
 10744   hL   274    MY  H13R 10744     0.007531      1.00800 ; qtot -0.010
 10745   hL   274    MY  H13S 10745     0.007531      1.00800 ; qtot -0.003
 10746   cD   274    MY  C112 10746    -0.028094     12.01000 ; qtot -0.031
 10747   hL   274    MY  H12R 10747     0.017208      1.00800 ; qtot -0.014
 10748   hL   274    MY  H12S 10748     0.017208      1.00800 ; qtot 0.004
 10749   cD   274    MY  C111 10749    -0.031787     12.01000 ; qtot -0.028
 10750   hL   274    MY  H11R 10750     0.012677      1.00800 ; qtot -0.015
 10751   hL   274    MY  H11S 10751     0.012677      1.00800 ; qtot -0.003
 10752   cD   274    MY  C110 10752    -0.021025     12.01000 ; qtot -0.024
 10753   hL   274    MY  H10R 10753     0.010037      1.00800 ; qtot -0.014
 10754   hL   274    MY  H10S 10754     0.010037      1.00800 ; qtot -0.004
 10755   cD   274    MY   C19 10755    -0.014653     12.01000 ; qtot -0.018
 10756   hL   274    MY   H9R 10756     0.010172      1.00800 ; qtot -0.008
 10757   hL   274    MY   H9S 10757     0.010172      1.00800 ; qtot 0.002
 10758   cD   274    MY   C18 10758    -0.026451     12.01000 ; qtot -0.024
 10759   hL   274    MY   H8R 10759     0.011241      1.00800 ; qtot -0.013
 10760   hL   274    MY   H8S 10760     0.011241      1.00800 ; qtot -0.002
 10761   cD   274    MY   C17 10761    -0.004386     12.01000 ; qtot -0.006
 10762   hL   274    MY   H7R 10762     0.006833      1.00800 ; qtot 0.000
 10763   hL   274    MY   H7S 10763     0.006833      1.00800 ; qtot 0.007
 10764   cD   274    MY   C16 10764    -0.027812     12.01000 ; qtot -0.021
 10765   hL   274    MY   H6R 10765     0.011511      1.00800 ; qtot -0.009
 10766   hL   274    MY   H6S 10766     0.011511      1.00800 ; qtot 0.002
 10767   cD   274    MY   C15 10767    -0.016521     12.01000 ; qtot -0.014
 10768   hL   274    MY   H5R 10768     0.010573      1.00800 ; qtot -0.003
 10769   hL   274    MY   H5S 10769     0.010573      1.00800 ; qtot 0.007
 10770   cD   274    MY   C14 10770    -0.026954     12.01000 ; qtot -0.020
 10771   hL   274    MY   H4R 10771     0.020431      1.00800 ; qtot 0.001
 10772   hL   274    MY   H4S 10772     0.020431      1.00800 ; qtot 0.021
 10773   cD   274    MY   C13 10773    -0.002435     12.01000 ; qtot 0.019
 10774   hL   274    MY   H3R 10774     0.018859      1.00800 ; qtot 0.037
 10775   hL   274    MY   H3S 10775     0.018859      1.00800 ; qtot 0.056
 10776   cD   274    MY   C12 10776    -0.164200     12.01000 ; qtot -0.108
 10777   hL   274    MY   H2R 10777     0.053944      1.00800 ; qtot -0.054
 10778   hL   274    MY   H2S 10778     0.053944      1.00800 ; qtot -0.000
 10779   cC   275    PC   C11 10779     0.910403     12.01000 ; qtot 0.910
 10780   oC   275    PC   O12 10780    -0.671566     16.00000 ; qtot 0.239
 10781   oS   275    PC   O11 10781    -0.575489     16.00000 ; qtot -0.337
 10782   cA   275    PC    C1 10782     0.196939     12.01000 ; qtot -0.140
 10783   hE   275    PC    HR 10783     0.070469      1.00800 ; qtot -0.069
 10784   hE   275    PC    HS 10784     0.070469      1.00800 ; qtot 0.001
 10785   cA   275    PC    C2 10785     0.281242     12.01000 ; qtot 0.282
 10786   hE   275    PC    HX 10786     0.063253      1.00800 ; qtot 0.346
 10787   cA   275    PC    C3 10787     0.017459     12.01000 ; qtot 0.363
 10788   hE   275    PC    HA 10788     0.095591      1.00800 ; qtot 0.459
 10789   hE   275    PC    HB 10789     0.095591      1.00800 ; qtot 0.554
 10790   oT   275    PC   O31 10790    -0.509480     16.00000 ; qtot 0.045
 10791   pA   275    PC   P31 10791     1.339721     30.97000 ; qtot 1.385
 10792   oT   275    PC   O32 10792    -0.508176     16.00000 ; qtot 0.876
 10793   cA   275    PC   C31 10793     0.166801     12.01000 ; qtot 1.043
 10794   hE   275    PC   H1A 10794     0.078534      1.00800 ; qtot 1.122
 10795   hE   275    PC   H1B 10795     0.078534      1.00800 ; qtot 1.200
 10796   cA   275    PC   C32 10796    -0.170824     12.01000 ; qtot 1.029
 10797   hX   275    PC   H2A 10797     0.136415      1.00800 ; qtot 1.166
 10798   hX   275    PC   H2B 10798     0.136415      1.00800 ; qtot 1.302
 10799   nA   275    PC   N31 10799     0.245262     14.01000 ; qtot 1.548
 10800   cA   275    PC   C33 10800    -0.338973     12.01000 ; qtot 1.209
 10801   hX   275    PC   H3A 10801     0.172230      1.00800 ; qtot 1.381
 10802   hX   275    PC   H3B 10802     0.172230      1.00800 ; qtot 1.553
 10803   hX   275    PC   H3C 10803     0.172230      1.00800 ; qtot 1.725
 10804   cA   275    PC   C34 10804    -0.338973     12.01000 ; qtot 1.386
 10805   hX   275    PC   H4A 10805     0.172230      1.00800 ; qtot 1.559
 10806   hX   275    PC   H4B 10806     0.172230      1.00800 ; qtot 1.731
 10807   hX   275    PC   H4C 10807     0.172230      1.00800 ; qtot 1.903
 10808   cA   275    PC   C35 10808    -0.338973     12.01000 ; qtot 1.564
 10809   hX   275    PC   H5A 10809     0.172230      1.00800 ; qtot 1.736
 10810   hX   275    PC   H5B 10810     0.172230      1.00800 ; qtot 1.908
 10811   hX   275    PC   H5C 10811     0.172230      1.00800 ; qtot 2.081
 10812   oP   275    PC   O33 10812    -0.875812     16.00000 ; qtot 1.205
 10813   oP   275    PC   O34 10813    -0.875812     16.00000 ; qtot 0.329
 10814   oS   275    PC   O21 10814    -0.552948     16.00000 ; qtot -0.224
 10815   cC   275    PC   C21 10815     0.897613     12.01000 ; qtot 0.674
 10816   oC   275    PC   O22 10816    -0.673755     16.00000 ; qtot 0.000
 10817   hL   276    MY  H14T 10817     0.025511      1.00800 ; qtot 0.026
 10818   cD   276    MY  C114 10818    -0.111712     12.01000 ; qtot -0.086
 10819   hL   276    MY  H14R 10819     0.025511      1.00800 ; qtot -0.061
 10820   hL   276    MY  H14S 10820     0.025511      1.00800 ; qtot -0.035
 10821   cD   276    MY  C113 10821     0.017463     12.01000 ; qtot -0.018
 10822   hL   276    MY  H13R 10822     0.007531      1.00800 ; qtot -0.010
 10823   hL   276    MY  H13S 10823     0.007531      1.00800 ; qtot -0.003
 10824   cD   276    MY  C112 10824    -0.028094     12.01000 ; qtot -0.031
 10825   hL   276    MY  H12R 10825     0.017208      1.00800 ; qtot -0.014
 10826   hL   276    MY  H12S 10826     0.017208      1.00800 ; qtot 0.004
 10827   cD   276    MY  C111 10827    -0.031787     12.01000 ; qtot -0.028
 10828   hL   276    MY  H11R 10828     0.012677      1.00800 ; qtot -0.015
 10829   hL   276    MY  H11S 10829     0.012677      1.00800 ; qtot -0.003
 10830   cD   276    MY  C110 10830    -0.021025     12.01000 ; qtot -0.024
 10831   hL   276    MY  H10R 10831     0.010037      1.00800 ; qtot -0.014
 10832   hL   276    MY  H10S 10832     0.010037      1.00800 ; qtot -0.004
 10833   cD   276    MY   C19 10833    -0.014653     12.01000 ; qtot -0.018
 10834   hL   276    MY   H9R 10834     0.010172      1.00800 ; qtot -0.008
 10835   hL   276    MY   H9S 10835     0.010172      1.00800 ; qtot 0.002
 10836   cD   276    MY   C18 10836    -0.026451     12.01000 ; qtot -0.024
 10837   hL   276    MY   H8R 10837     0.011241      1.00800 ; qtot -0.013
 10838   hL   276    MY   H8S 10838     0.011241      1.00800 ; qtot -0.002
 10839   cD   276    MY   C17 10839    -0.004386     12.01000 ; qtot -0.006
 10840   hL   276    MY   H7R 10840     0.006833      1.00800 ; qtot 0.000
 10841   hL   276    MY   H7S 10841     0.006833      1.00800 ; qtot 0.007
 10842   cD   276    MY   C16 10842    -0.027812     12.01000 ; qtot -0.021
 10843   hL   276    MY   H6R 10843     0.011511      1.00800 ; qtot -0.009
 10844   hL   276    MY   H6S 10844     0.011511      1.00800 ; qtot 0.002
 10845   cD   276    MY   C15 10845    -0.016521     12.01000 ; qtot -0.014
 10846   hL   276    MY   H5R 10846     0.010573      1.00800 ; qtot -0.003
 10847   hL   276    MY   H5S 10847     0.010573      1.00800 ; qtot 0.007
 10848   cD   276    MY   C14 10848    -0.026954     12.01000 ; qtot -0.020
 10849   hL   276    MY   H4R 10849     0.020431      1.00800 ; qtot 0.001
 10850   hL   276    MY   H4S 10850     0.020431      1.00800 ; qtot 0.021
 10851   cD   276    MY   C13 10851    -0.002435     12.01000 ; qtot 0.019
 10852   hL   276    MY   H3R 10852     0.018859      1.00800 ; qtot 0.037
 10853   hL   276    MY   H3S 10853     0.018859      1.00800 ; qtot 0.056
 10854   cD   276    MY   C12 10854    -0.164200     12.01000 ; qtot -0.108
 10855   hL   276    MY   H2R 10855     0.053944      1.00800 ; qtot -0.054
 10856   hL   276    MY   H2S 10856     0.053944      1.00800 ; qtot -0.000
 10857   hL   277    MY  H14T 10857     0.025511      1.00800 ; qtot 0.026
 10858   cD   277    MY  C114 10858    -0.111712     12.01000 ; qtot -0.086
 10859   hL   277    MY  H14R 10859     0.025511      1.00800 ; qtot -0.061
 10860   hL   277    MY  H14S 10860     0.025511      1.00800 ; qtot -0.035
 10861   cD   277    MY  C113 10861     0.017463     12.01000 ; qtot -0.018
 10862   hL   277    MY  H13R 10862     0.007531      1.00800 ; qtot -0.010
 10863   hL   277    MY  H13S 10863     0.007531      1.00800 ; qtot -0.003
 10864   cD   277    MY  C112 10864    -0.028094     12.01000 ; qtot -0.031
 10865   hL   277    MY  H12R 10865     0.017208      1.00800 ; qtot -0.014
 10866   hL   277    MY  H12S 10866     0.017208      1.00800 ; qtot 0.004
 10867   cD   277    MY  C111 10867    -0.031787     12.01000 ; qtot -0.028
 10868   hL   277    MY  H11R 10868     0.012677      1.00800 ; qtot -0.015
 10869   hL   277    MY  H11S 10869     0.012677      1.00800 ; qtot -0.003
 10870   cD   277    MY  C110 10870    -0.021025     12.01000 ; qtot -0.024
 10871   hL   277    MY  H10R 10871     0.010037      1.00800 ; qtot -0.014
 10872   hL   277    MY  H10S 10872     0.010037      1.00800 ; qtot -0.004
 10873   cD   277    MY   C19 10873    -0.014653     12.01000 ; qtot -0.018
 10874   hL   277    MY   H9R 10874     0.010172      1.00800 ; qtot -0.008
 10875   hL   277    MY   H9S 10875     0.010172      1.00800 ; qtot 0.002
 10876   cD   277    MY   C18 10876    -0.026451     12.01000 ; qtot -0.024
 10877   hL   277    MY   H8R 10877     0.011241      1.00800 ; qtot -0.013
 10878   hL   277    MY   H8S 10878     0.011241      1.00800 ; qtot -0.002
 10879   cD   277    MY   C17 10879    -0.004386     12.01000 ; qtot -0.006
 10880   hL   277    MY   H7R 10880     0.006833      1.00800 ; qtot 0.000
 10881   hL   277    MY   H7S 10881     0.006833      1.00800 ; qtot 0.007
 10882   cD   277    MY   C16 10882    -0.027812     12.01000 ; qtot -0.021
 10883   hL   277    MY   H6R 10883     0.011511      1.00800 ; qtot -0.009
 10884   hL   277    MY   H6S 10884     0.011511      1.00800 ; qtot 0.002
 10885   cD   277    MY   C15 10885    -0.016521     12.01000 ; qtot -0.014
 10886   hL   277    MY   H5R 10886     0.010573      1.00800 ; qtot -0.003
 10887   hL   277    MY   H5S 10887     0.010573      1.00800 ; qtot 0.007
 10888   cD   277    MY   C14 10888    -0.026954     12.01000 ; qtot -0.020
 10889   hL   277    MY   H4R 10889     0.020431      1.00800 ; qtot 0.001
 10890   hL   277    MY   H4S 10890     0.020431      1.00800 ; qtot 0.021
 10891   cD   277    MY   C13 10891    -0.002435     12.01000 ; qtot 0.019
 10892   hL   277    MY   H3R 10892     0.018859      1.00800 ; qtot 0.037
 10893   hL   277    MY   H3S 10893     0.018859      1.00800 ; qtot 0.056
 10894   cD   277    MY   C12 10894    -0.164200     12.01000 ; qtot -0.108
 10895   hL   277    MY   H2R 10895     0.053944      1.00800 ; qtot -0.054
 10896   hL   277    MY   H2S 10896     0.053944      1.00800 ; qtot -0.000
 10897   cC   278    PC   C11 10897     0.910403     12.01000 ; qtot 0.910
 10898   oC   278    PC   O12 10898    -0.671566     16.00000 ; qtot 0.239
 10899   oS   278    PC   O11 10899    -0.575489     16.00000 ; qtot -0.337
 10900   cA   278    PC    C1 10900     0.196939     12.01000 ; qtot -0.140
 10901   hE   278    PC    HR 10901     0.070469      1.00800 ; qtot -0.069
 10902   hE   278    PC    HS 10902     0.070469      1.00800 ; qtot 0.001
 10903   cA   278    PC    C2 10903     0.281242     12.01000 ; qtot 0.282
 10904   hE   278    PC    HX 10904     0.063253      1.00800 ; qtot 0.346
 10905   cA   278    PC    C3 10905     0.017459     12.01000 ; qtot 0.363
 10906   hE   278    PC    HA 10906     0.095591      1.00800 ; qtot 0.459
 10907   hE   278    PC    HB 10907     0.095591      1.00800 ; qtot 0.554
 10908   oT   278    PC   O31 10908    -0.509480     16.00000 ; qtot 0.045
 10909   pA   278    PC   P31 10909     1.339721     30.97000 ; qtot 1.385
 10910   oT   278    PC   O32 10910    -0.508176     16.00000 ; qtot 0.876
 10911   cA   278    PC   C31 10911     0.166801     12.01000 ; qtot 1.043
 10912   hE   278    PC   H1A 10912     0.078534      1.00800 ; qtot 1.122
 10913   hE   278    PC   H1B 10913     0.078534      1.00800 ; qtot 1.200
 10914   cA   278    PC   C32 10914    -0.170824     12.01000 ; qtot 1.029
 10915   hX   278    PC   H2A 10915     0.136415      1.00800 ; qtot 1.166
 10916   hX   278    PC   H2B 10916     0.136415      1.00800 ; qtot 1.302
 10917   nA   278    PC   N31 10917     0.245262     14.01000 ; qtot 1.548
 10918   cA   278    PC   C33 10918    -0.338973     12.01000 ; qtot 1.209
 10919   hX   278    PC   H3A 10919     0.172230      1.00800 ; qtot 1.381
 10920   hX   278    PC   H3B 10920     0.172230      1.00800 ; qtot 1.553
 10921   hX   278    PC   H3C 10921     0.172230      1.00800 ; qtot 1.725
 10922   cA   278    PC   C34 10922    -0.338973     12.01000 ; qtot 1.386
 10923   hX   278    PC   H4A 10923     0.172230      1.00800 ; qtot 1.559
 10924   hX   278    PC   H4B 10924     0.172230      1.00800 ; qtot 1.731
 10925   hX   278    PC   H4C 10925     0.172230      1.00800 ; qtot 1.903
 10926   cA   278    PC   C35 10926    -0.338973     12.01000 ; qtot 1.564
 10927   hX   278    PC   H5A 10927     0.172230      1.00800 ; qtot 1.736
 10928   hX   278    PC   H5B 10928     0.172230      1.00800 ; qtot 1.908
 10929   hX   278    PC   H5C 10929     0.172230      1.00800 ; qtot 2.081
 10930   oP   278    PC   O33 10930    -0.875812     16.00000 ; qtot 1.205
 10931   oP   278    PC   O34 10931    -0.875812     16.00000 ; qtot 0.329
 10932   oS   278    PC   O21 10932    -0.552948     16.00000 ; qtot -0.224
 10933   cC   278    PC   C21 10933     0.897613     12.01000 ; qtot 0.674
 10934   oC   278    PC   O22 10934    -0.673755     16.00000 ; qtot 0.000
 10935   hL   279    MY  H14T 10935     0.025511      1.00800 ; qtot 0.026
 10936   cD   279    MY  C114 10936    -0.111712     12.01000 ; qtot -0.086
 10937   hL   279    MY  H14R 10937     0.025511      1.00800 ; qtot -0.061
 10938   hL   279    MY  H14S 10938     0.025511      1.00800 ; qtot -0.035
 10939   cD   279    MY  C113 10939     0.017463     12.01000 ; qtot -0.018
 10940   hL   279    MY  H13R 10940     0.007531      1.00800 ; qtot -0.010
 10941   hL   279    MY  H13S 10941     0.007531      1.00800 ; qtot -0.003
 10942   cD   279    MY  C112 10942    -0.028094     12.01000 ; qtot -0.031
 10943   hL   279    MY  H12R 10943     0.017208      1.00800 ; qtot -0.014
 10944   hL   279    MY  H12S 10944     0.017208      1.00800 ; qtot 0.004
 10945   cD   279    MY  C111 10945    -0.031787     12.01000 ; qtot -0.028
 10946   hL   279    MY  H11R 10946     0.012677      1.00800 ; qtot -0.015
 10947   hL   279    MY  H11S 10947     0.012677      1.00800 ; qtot -0.003
 10948   cD   279    MY  C110 10948    -0.021025     12.01000 ; qtot -0.024
 10949   hL   279    MY  H10R 10949     0.010037      1.00800 ; qtot -0.014
 10950   hL   279    MY  H10S 10950     0.010037      1.00800 ; qtot -0.004
 10951   cD   279    MY   C19 10951    -0.014653     12.01000 ; qtot -0.018
 10952   hL   279    MY   H9R 10952     0.010172      1.00800 ; qtot -0.008
 10953   hL   279    MY   H9S 10953     0.010172      1.00800 ; qtot 0.002
 10954   cD   279    MY   C18 10954    -0.026451     12.01000 ; qtot -0.024
 10955   hL   279    MY   H8R 10955     0.011241      1.00800 ; qtot -0.013
 10956   hL   279    MY   H8S 10956     0.011241      1.00800 ; qtot -0.002
 10957   cD   279    MY   C17 10957    -0.004386     12.01000 ; qtot -0.006
 10958   hL   279    MY   H7R 10958     0.006833      1.00800 ; qtot 0.000
 10959   hL   279    MY   H7S 10959     0.006833      1.00800 ; qtot 0.007
 10960   cD   279    MY   C16 10960    -0.027812     12.01000 ; qtot -0.021
 10961   hL   279    MY   H6R 10961     0.011511      1.00800 ; qtot -0.009
 10962   hL   279    MY   H6S 10962     0.011511      1.00800 ; qtot 0.002
 10963   cD   279    MY   C15 10963    -0.016521     12.01000 ; qtot -0.014
 10964   hL   279    MY   H5R 10964     0.010573      1.00800 ; qtot -0.003
 10965   hL   279    MY   H5S 10965     0.010573      1.00800 ; qtot 0.007
 10966   cD   279    MY   C14 10966    -0.026954     12.01000 ; qtot -0.020
 10967   hL   279    MY   H4R 10967     0.020431      1.00800 ; qtot 0.001
 10968   hL   279    MY   H4S 10968     0.020431      1.00800 ; qtot 0.021
 10969   cD   279    MY   C13 10969    -0.002435     12.01000 ; qtot 0.019
 10970   hL   279    MY   H3R 10970     0.018859      1.00800 ; qtot 0.037
 10971   hL   279    MY   H3S 10971     0.018859      1.00800 ; qtot 0.056
 10972   cD   279    MY   C12 10972    -0.164200     12.01000 ; qtot -0.108
 10973   hL   279    MY   H2R 10973     0.053944      1.00800 ; qtot -0.054
 10974   hL   279    MY   H2S 10974     0.053944      1.00800 ; qtot -0.000
 10975   hL   280    MY  H14T 10975     0.025511      1.00800 ; qtot 0.026
 10976   cD   280    MY  C114 10976    -0.111712     12.01000 ; qtot -0.086
 10977   hL   280    MY  H14R 10977     0.025511      1.00800 ; qtot -0.061
 10978   hL   280    MY  H14S 10978     0.025511      1.00800 ; qtot -0.035
 10979   cD   280    MY  C113 10979     0.017463     12.01000 ; qtot -0.018
 10980   hL   280    MY  H13R 10980     0.007531      1.00800 ; qtot -0.010
 10981   hL   280    MY  H13S 10981     0.007531      1.00800 ; qtot -0.003
 10982   cD   280    MY  C112 10982    -0.028094     12.01000 ; qtot -0.031
 10983   hL   280    MY  H12R 10983     0.017208      1.00800 ; qtot -0.014
 10984   hL   280    MY  H12S 10984     0.017208      1.00800 ; qtot 0.004
 10985   cD   280    MY  C111 10985    -0.031787     12.01000 ; qtot -0.028
 10986   hL   280    MY  H11R 10986     0.012677      1.00800 ; qtot -0.015
 10987   hL   280    MY  H11S 10987     0.012677      1.00800 ; qtot -0.003
 10988   cD   280    MY  C110 10988    -0.021025     12.01000 ; qtot -0.024
 10989   hL   280    MY  H10R 10989     0.010037      1.00800 ; qtot -0.014
 10990   hL   280    MY  H10S 10990     0.010037      1.00800 ; qtot -0.004
 10991   cD   280    MY   C19 10991    -0.014653     12.01000 ; qtot -0.018
 10992   hL   280    MY   H9R 10992     0.010172      1.00800 ; qtot -0.008
 10993   hL   280    MY   H9S 10993     0.010172      1.00800 ; qtot 0.002
 10994   cD   280    MY   C18 10994    -0.026451     12.01000 ; qtot -0.024
 10995   hL   280    MY   H8R 10995     0.011241      1.00800 ; qtot -0.013
 10996   hL   280    MY   H8S 10996     0.011241      1.00800 ; qtot -0.002
 10997   cD   280    MY   C17 10997    -0.004386     12.01000 ; qtot -0.006
 10998   hL   280    MY   H7R 10998     0.006833      1.00800 ; qtot 0.000
 10999   hL   280    MY   H7S 10999     0.006833      1.00800 ; qtot 0.007
 11000   cD   280    MY   C16 11000    -0.027812     12.01000 ; qtot -0.021
 11001   hL   280    MY   H6R 11001     0.011511      1.00800 ; qtot -0.009
 11002   hL   280    MY   H6S 11002     0.011511      1.00800 ; qtot 0.002
 11003   cD   280    MY   C15 11003    -0.016521     12.01000 ; qtot -0.014
 11004   hL   280    MY   H5R 11004     0.010573      1.00800 ; qtot -0.003
 11005   hL   280    MY   H5S 11005     0.010573      1.00800 ; qtot 0.007
 11006   cD   280    MY   C14 11006    -0.026954     12.01000 ; qtot -0.020
 11007   hL   280    MY   H4R 11007     0.020431      1.00800 ; qtot 0.001
 11008   hL   280    MY   H4S 11008     0.020431      1.00800 ; qtot 0.021
 11009   cD   280    MY   C13 11009    -0.002435     12.01000 ; qtot 0.019
 11010   hL   280    MY   H3R 11010     0.018859      1.00800 ; qtot 0.037
 11011   hL   280    MY   H3S 11011     0.018859      1.00800 ; qtot 0.056
 11012   cD   280    MY   C12 11012    -0.164200     12.01000 ; qtot -0.108
 11013   hL   280    MY   H2R 11013     0.053944      1.00800 ; qtot -0.054
 11014   hL   280    MY   H2S 11014     0.053944      1.00800 ; qtot -0.000
 11015   cC   281    PC   C11 11015     0.910403     12.01000 ; qtot 0.910
 11016   oC   281    PC   O12 11016    -0.671566     16.00000 ; qtot 0.239
 11017   oS   281    PC   O11 11017    -0.575489     16.00000 ; qtot -0.337
 11018   cA   281    PC    C1 11018     0.196939     12.01000 ; qtot -0.140
 11019   hE   281    PC    HR 11019     0.070469      1.00800 ; qtot -0.069
 11020   hE   281    PC    HS 11020     0.070469      1.00800 ; qtot 0.001
 11021   cA   281    PC    C2 11021     0.281242     12.01000 ; qtot 0.282
 11022   hE   281    PC    HX 11022     0.063253      1.00800 ; qtot 0.346
 11023   cA   281    PC    C3 11023     0.017459     12.01000 ; qtot 0.363
 11024   hE   281    PC    HA 11024     0.095591      1.00800 ; qtot 0.459
 11025   hE   281    PC    HB 11025     0.095591      1.00800 ; qtot 0.554
 11026   oT   281    PC   O31 11026    -0.509480     16.00000 ; qtot 0.045
 11027   pA   281    PC   P31 11027     1.339721     30.97000 ; qtot 1.385
 11028   oT   281    PC   O32 11028    -0.508176     16.00000 ; qtot 0.876
 11029   cA   281    PC   C31 11029     0.166801     12.01000 ; qtot 1.043
 11030   hE   281    PC   H1A 11030     0.078534      1.00800 ; qtot 1.122
 11031   hE   281    PC   H1B 11031     0.078534      1.00800 ; qtot 1.200
 11032   cA   281    PC   C32 11032    -0.170824     12.01000 ; qtot 1.029
 11033   hX   281    PC   H2A 11033     0.136415      1.00800 ; qtot 1.166
 11034   hX   281    PC   H2B 11034     0.136415      1.00800 ; qtot 1.302
 11035   nA   281    PC   N31 11035     0.245262     14.01000 ; qtot 1.548
 11036   cA   281    PC   C33 11036    -0.338973     12.01000 ; qtot 1.209
 11037   hX   281    PC   H3A 11037     0.172230      1.00800 ; qtot 1.381
 11038   hX   281    PC   H3B 11038     0.172230      1.00800 ; qtot 1.553
 11039   hX   281    PC   H3C 11039     0.172230      1.00800 ; qtot 1.725
 11040   cA   281    PC   C34 11040    -0.338973     12.01000 ; qtot 1.386
 11041   hX   281    PC   H4A 11041     0.172230      1.00800 ; qtot 1.559
 11042   hX   281    PC   H4B 11042     0.172230      1.00800 ; qtot 1.731
 11043   hX   281    PC   H4C 11043     0.172230      1.00800 ; qtot 1.903
 11044   cA   281    PC   C35 11044    -0.338973     12.01000 ; qtot 1.564
 11045   hX   281    PC   H5A 11045     0.172230      1.00800 ; qtot 1.736
 11046   hX   281    PC   H5B 11046     0.172230      1.00800 ; qtot 1.908
 11047   hX   281    PC   H5C 11047     0.172230      1.00800 ; qtot 2.081
 11048   oP   281    PC   O33 11048    -0.875812     16.00000 ; qtot 1.205
 11049   oP   281    PC   O34 11049    -0.875812     16.00000 ; qtot 0.329
 11050   oS   281    PC   O21 11050    -0.552948     16.00000 ; qtot -0.224
 11051   cC   281    PC   C21 11051     0.897613     12.01000 ; qtot 0.674
 11052   oC   281    PC   O22 11052    -0.673755     16.00000 ; qtot 0.000
 11053   hL   282    MY  H14T 11053     0.025511      1.00800 ; qtot 0.026
 11054   cD   282    MY  C114 11054    -0.111712     12.01000 ; qtot -0.086
 11055   hL   282    MY  H14R 11055     0.025511      1.00800 ; qtot -0.061
 11056   hL   282    MY  H14S 11056     0.025511      1.00800 ; qtot -0.035
 11057   cD   282    MY  C113 11057     0.017463     12.01000 ; qtot -0.018
 11058   hL   282    MY  H13R 11058     0.007531      1.00800 ; qtot -0.010
 11059   hL   282    MY  H13S 11059     0.007531      1.00800 ; qtot -0.003
 11060   cD   282    MY  C112 11060    -0.028094     12.01000 ; qtot -0.031
 11061   hL   282    MY  H12R 11061     0.017208      1.00800 ; qtot -0.014
 11062   hL   282    MY  H12S 11062     0.017208      1.00800 ; qtot 0.004
 11063   cD   282    MY  C111 11063    -0.031787     12.01000 ; qtot -0.028
 11064   hL   282    MY  H11R 11064     0.012677      1.00800 ; qtot -0.015
 11065   hL   282    MY  H11S 11065     0.012677      1.00800 ; qtot -0.003
 11066   cD   282    MY  C110 11066    -0.021025     12.01000 ; qtot -0.024
 11067   hL   282    MY  H10R 11067     0.010037      1.00800 ; qtot -0.014
 11068   hL   282    MY  H10S 11068     0.010037      1.00800 ; qtot -0.004
 11069   cD   282    MY   C19 11069    -0.014653     12.01000 ; qtot -0.018
 11070   hL   282    MY   H9R 11070     0.010172      1.00800 ; qtot -0.008
 11071   hL   282    MY   H9S 11071     0.010172      1.00800 ; qtot 0.002
 11072   cD   282    MY   C18 11072    -0.026451     12.01000 ; qtot -0.024
 11073   hL   282    MY   H8R 11073     0.011241      1.00800 ; qtot -0.013
 11074   hL   282    MY   H8S 11074     0.011241      1.00800 ; qtot -0.002
 11075   cD   282    MY   C17 11075    -0.004386     12.01000 ; qtot -0.006
 11076   hL   282    MY   H7R 11076     0.006833      1.00800 ; qtot 0.000
 11077   hL   282    MY   H7S 11077     0.006833      1.00800 ; qtot 0.007
 11078   cD   282    MY   C16 11078    -0.027812     12.01000 ; qtot -0.021
 11079   hL   282    MY   H6R 11079     0.011511      1.00800 ; qtot -0.009
 11080   hL   282    MY   H6S 11080     0.011511      1.00800 ; qtot 0.002
 11081   cD   282    MY   C15 11081    -0.016521     12.01000 ; qtot -0.014
 11082   hL   282    MY   H5R 11082     0.010573      1.00800 ; qtot -0.003
 11083   hL   282    MY   H5S 11083     0.010573      1.00800 ; qtot 0.007
 11084   cD   282    MY   C14 11084    -0.026954     12.01000 ; qtot -0.020
 11085   hL   282    MY   H4R 11085     0.020431      1.00800 ; qtot 0.001
 11086   hL   282    MY   H4S 11086     0.020431      1.00800 ; qtot 0.021
 11087   cD   282    MY   C13 11087    -0.002435     12.01000 ; qtot 0.019
 11088   hL   282    MY   H3R 11088     0.018859      1.00800 ; qtot 0.037
 11089   hL   282    MY   H3S 11089     0.018859      1.00800 ; qtot 0.056
 11090   cD   282    MY   C12 11090    -0.164200     12.01000 ; qtot -0.108
 11091   hL   282    MY   H2R 11091     0.053944      1.00800 ; qtot -0.054
 11092   hL   282    MY   H2S 11092     0.053944      1.00800 ; qtot -0.000
 11093   hL   283    MY  H14T 11093     0.025511      1.00800 ; qtot 0.026
 11094   cD   283    MY  C114 11094    -0.111712     12.01000 ; qtot -0.086
 11095   hL   283    MY  H14R 11095     0.025511      1.00800 ; qtot -0.061
 11096   hL   283    MY  H14S 11096     0.025511      1.00800 ; qtot -0.035
 11097   cD   283    MY  C113 11097     0.017463     12.01000 ; qtot -0.018
 11098   hL   283    MY  H13R 11098     0.007531      1.00800 ; qtot -0.010
 11099   hL   283    MY  H13S 11099     0.007531      1.00800 ; qtot -0.003
 11100   cD   283    MY  C112 11100    -0.028094     12.01000 ; qtot -0.031
 11101   hL   283    MY  H12R 11101     0.017208      1.00800 ; qtot -0.014
 11102   hL   283    MY  H12S 11102     0.017208      1.00800 ; qtot 0.004
 11103   cD   283    MY  C111 11103    -0.031787     12.01000 ; qtot -0.028
 11104   hL   283    MY  H11R 11104     0.012677      1.00800 ; qtot -0.015
 11105   hL   283    MY  H11S 11105     0.012677      1.00800 ; qtot -0.003
 11106   cD   283    MY  C110 11106    -0.021025     12.01000 ; qtot -0.024
 11107   hL   283    MY  H10R 11107     0.010037      1.00800 ; qtot -0.014
 11108   hL   283    MY  H10S 11108     0.010037      1.00800 ; qtot -0.004
 11109   cD   283    MY   C19 11109    -0.014653     12.01000 ; qtot -0.018
 11110   hL   283    MY   H9R 11110     0.010172      1.00800 ; qtot -0.008
 11111   hL   283    MY   H9S 11111     0.010172      1.00800 ; qtot 0.002
 11112   cD   283    MY   C18 11112    -0.026451     12.01000 ; qtot -0.024
 11113   hL   283    MY   H8R 11113     0.011241      1.00800 ; qtot -0.013
 11114   hL   283    MY   H8S 11114     0.011241      1.00800 ; qtot -0.002
 11115   cD   283    MY   C17 11115    -0.004386     12.01000 ; qtot -0.006
 11116   hL   283    MY   H7R 11116     0.006833      1.00800 ; qtot 0.000
 11117   hL   283    MY   H7S 11117     0.006833      1.00800 ; qtot 0.007
 11118   cD   283    MY   C16 11118    -0.027812     12.01000 ; qtot -0.021
 11119   hL   283    MY   H6R 11119     0.011511      1.00800 ; qtot -0.009
 11120   hL   283    MY   H6S 11120     0.011511      1.00800 ; qtot 0.002
 11121   cD   283    MY   C15 11121    -0.016521     12.01000 ; qtot -0.014
 11122   hL   283    MY   H5R 11122     0.010573      1.00800 ; qtot -0.003
 11123   hL   283    MY   H5S 11123     0.010573      1.00800 ; qtot 0.007
 11124   cD   283    MY   C14 11124    -0.026954     12.01000 ; qtot -0.020
 11125   hL   283    MY   H4R 11125     0.020431      1.00800 ; qtot 0.001
 11126   hL   283    MY   H4S 11126     0.020431      1.00800 ; qtot 0.021
 11127   cD   283    MY   C13 11127    -0.002435     12.01000 ; qtot 0.019
 11128   hL   283    MY   H3R 11128     0.018859      1.00800 ; qtot 0.037
 11129   hL   283    MY   H3S 11129     0.018859      1.00800 ; qtot 0.056
 11130   cD   283    MY   C12 11130    -0.164200     12.01000 ; qtot -0.108
 11131   hL   283    MY   H2R 11131     0.053944      1.00800 ; qtot -0.054
 11132   hL   283    MY   H2S 11132     0.053944      1.00800 ; qtot -0.000
 11133   cC   284    PC   C11 11133     0.910403     12.01000 ; qtot 0.910
 11134   oC   284    PC   O12 11134    -0.671566     16.00000 ; qtot 0.239
 11135   oS   284    PC   O11 11135    -0.575489     16.00000 ; qtot -0.337
 11136   cA   284    PC    C1 11136     0.196939     12.01000 ; qtot -0.140
 11137   hE   284    PC    HR 11137     0.070469      1.00800 ; qtot -0.069
 11138   hE   284    PC    HS 11138     0.070469      1.00800 ; qtot 0.001
 11139   cA   284    PC    C2 11139     0.281242     12.01000 ; qtot 0.282
 11140   hE   284    PC    HX 11140     0.063253      1.00800 ; qtot 0.346
 11141   cA   284    PC    C3 11141     0.017459     12.01000 ; qtot 0.363
 11142   hE   284    PC    HA 11142     0.095591      1.00800 ; qtot 0.459
 11143   hE   284    PC    HB 11143     0.095591      1.00800 ; qtot 0.554
 11144   oT   284    PC   O31 11144    -0.509480     16.00000 ; qtot 0.045
 11145   pA   284    PC   P31 11145     1.339721     30.97000 ; qtot 1.385
 11146   oT   284    PC   O32 11146    -0.508176     16.00000 ; qtot 0.876
 11147   cA   284    PC   C31 11147     0.166801     12.01000 ; qtot 1.043
 11148   hE   284    PC   H1A 11148     0.078534      1.00800 ; qtot 1.122
 11149   hE   284    PC   H1B 11149     0.078534      1.00800 ; qtot 1.200
 11150   cA   284    PC   C32 11150    -0.170824     12.01000 ; qtot 1.029
 11151   hX   284    PC   H2A 11151     0.136415      1.00800 ; qtot 1.166
 11152   hX   284    PC   H2B 11152     0.136415      1.00800 ; qtot 1.302
 11153   nA   284    PC   N31 11153     0.245262     14.01000 ; qtot 1.548
 11154   cA   284    PC   C33 11154    -0.338973     12.01000 ; qtot 1.209
 11155   hX   284    PC   H3A 11155     0.172230      1.00800 ; qtot 1.381
 11156   hX   284    PC   H3B 11156     0.172230      1.00800 ; qtot 1.553
 11157   hX   284    PC   H3C 11157     0.172230      1.00800 ; qtot 1.725
 11158   cA   284    PC   C34 11158    -0.338973     12.01000 ; qtot 1.386
 11159   hX   284    PC   H4A 11159     0.172230      1.00800 ; qtot 1.559
 11160   hX   284    PC   H4B 11160     0.172230      1.00800 ; qtot 1.731
 11161   hX   284    PC   H4C 11161     0.172230      1.00800 ; qtot 1.903
 11162   cA   284    PC   C35 11162    -0.338973     12.01000 ; qtot 1.564
 11163   hX   284    PC   H5A 11163     0.172230      1.00800 ; qtot 1.736
 11164   hX   284    PC   H5B 11164     0.172230      1.00800 ; qtot 1.908
 11165   hX   284    PC   H5C 11165     0.172230      1.00800 ; qtot 2.081
 11166   oP   284    PC   O33 11166    -0.875812     16.00000 ; qtot 1.205
 11167   oP   284    PC   O34 11167    -0.875812     16.00000 ; qtot 0.329
 11168   oS   284    PC   O21 11168    -0.552948     16.00000 ; qtot -0.224
 11169   cC   284    PC   C21 11169     0.897613     12.01000 ; qtot 0.674
 11170   oC   284    PC   O22 11170    -0.673755     16.00000 ; qtot 0.000
 11171   hL   285    MY  H14T 11171     0.025511      1.00800 ; qtot 0.026
 11172   cD   285    MY  C114 11172    -0.111712     12.01000 ; qtot -0.086
 11173   hL   285    MY  H14R 11173     0.025511      1.00800 ; qtot -0.061
 11174   hL   285    MY  H14S 11174     0.025511      1.00800 ; qtot -0.035
 11175   cD   285    MY  C113 11175     0.017463     12.01000 ; qtot -0.018
 11176   hL   285    MY  H13R 11176     0.007531      1.00800 ; qtot -0.010
 11177   hL   285    MY  H13S 11177     0.007531      1.00800 ; qtot -0.003
 11178   cD   285    MY  C112 11178    -0.028094     12.01000 ; qtot -0.031
 11179   hL   285    MY  H12R 11179     0.017208      1.00800 ; qtot -0.014
 11180   hL   285    MY  H12S 11180     0.017208      1.00800 ; qtot 0.004
 11181   cD   285    MY  C111 11181    -0.031787     12.01000 ; qtot -0.028
 11182   hL   285    MY  H11R 11182     0.012677      1.00800 ; qtot -0.015
 11183   hL   285    MY  H11S 11183     0.012677      1.00800 ; qtot -0.003
 11184   cD   285    MY  C110 11184    -0.021025     12.01000 ; qtot -0.024
 11185   hL   285    MY  H10R 11185     0.010037      1.00800 ; qtot -0.014
 11186   hL   285    MY  H10S 11186     0.010037      1.00800 ; qtot -0.004
 11187   cD   285    MY   C19 11187    -0.014653     12.01000 ; qtot -0.018
 11188   hL   285    MY   H9R 11188     0.010172      1.00800 ; qtot -0.008
 11189   hL   285    MY   H9S 11189     0.010172      1.00800 ; qtot 0.002
 11190   cD   285    MY   C18 11190    -0.026451     12.01000 ; qtot -0.024
 11191   hL   285    MY   H8R 11191     0.011241      1.00800 ; qtot -0.013
 11192   hL   285    MY   H8S 11192     0.011241      1.00800 ; qtot -0.002
 11193   cD   285    MY   C17 11193    -0.004386     12.01000 ; qtot -0.006
 11194   hL   285    MY   H7R 11194     0.006833      1.00800 ; qtot 0.000
 11195   hL   285    MY   H7S 11195     0.006833      1.00800 ; qtot 0.007
 11196   cD   285    MY   C16 11196    -0.027812     12.01000 ; qtot -0.021
 11197   hL   285    MY   H6R 11197     0.011511      1.00800 ; qtot -0.009
 11198   hL   285    MY   H6S 11198     0.011511      1.00800 ; qtot 0.002
 11199   cD   285    MY   C15 11199    -0.016521     12.01000 ; qtot -0.014
 11200   hL   285    MY   H5R 11200     0.010573      1.00800 ; qtot -0.003
 11201   hL   285    MY   H5S 11201     0.010573      1.00800 ; qtot 0.007
 11202   cD   285    MY   C14 11202    -0.026954     12.01000 ; qtot -0.020
 11203   hL   285    MY   H4R 11203     0.020431      1.00800 ; qtot 0.001
 11204   hL   285    MY   H4S 11204     0.020431      1.00800 ; qtot 0.021
 11205   cD   285    MY   C13 11205    -0.002435     12.01000 ; qtot 0.019
 11206   hL   285    MY   H3R 11206     0.018859      1.00800 ; qtot 0.037
 11207   hL   285    MY   H3S 11207     0.018859      1.00800 ; qtot 0.056
 11208   cD   285    MY   C12 11208    -0.164200     12.01000 ; qtot -0.108
 11209   hL   285    MY   H2R 11209     0.053944      1.00800 ; qtot -0.054
 11210   hL   285    MY   H2S 11210     0.053944      1.00800 ; qtot -0.000
 11211   hL   286    MY  H14T 11211     0.025511      1.00800 ; qtot 0.026
 11212   cD   286    MY  C114 11212    -0.111712     12.01000 ; qtot -0.086
 11213   hL   286    MY  H14R 11213     0.025511      1.00800 ; qtot -0.061
 11214   hL   286    MY  H14S 11214     0.025511      1.00800 ; qtot -0.035
 11215   cD   286    MY  C113 11215     0.017463     12.01000 ; qtot -0.018
 11216   hL   286    MY  H13R 11216     0.007531      1.00800 ; qtot -0.010
 11217   hL   286    MY  H13S 11217     0.007531      1.00800 ; qtot -0.003
 11218   cD   286    MY  C112 11218    -0.028094     12.01000 ; qtot -0.031
 11219   hL   286    MY  H12R 11219     0.017208      1.00800 ; qtot -0.014
 11220   hL   286    MY  H12S 11220     0.017208      1.00800 ; qtot 0.004
 11221   cD   286    MY  C111 11221    -0.031787     12.01000 ; qtot -0.028
 11222   hL   286    MY  H11R 11222     0.012677      1.00800 ; qtot -0.015
 11223   hL   286    MY  H11S 11223     0.012677      1.00800 ; qtot -0.003
 11224   cD   286    MY  C110 11224    -0.021025     12.01000 ; qtot -0.024
 11225   hL   286    MY  H10R 11225     0.010037      1.00800 ; qtot -0.014
 11226   hL   286    MY  H10S 11226     0.010037      1.00800 ; qtot -0.004
 11227   cD   286    MY   C19 11227    -0.014653     12.01000 ; qtot -0.018
 11228   hL   286    MY   H9R 11228     0.010172      1.00800 ; qtot -0.008
 11229   hL   286    MY   H9S 11229     0.010172      1.00800 ; qtot 0.002
 11230   cD   286    MY   C18 11230    -0.026451     12.01000 ; qtot -0.024
 11231   hL   286    MY   H8R 11231     0.011241      1.00800 ; qtot -0.013
 11232   hL   286    MY   H8S 11232     0.011241      1.00800 ; qtot -0.002
 11233   cD   286    MY   C17 11233    -0.004386     12.01000 ; qtot -0.006
 11234   hL   286    MY   H7R 11234     0.006833      1.00800 ; qtot 0.000
 11235   hL   286    MY   H7S 11235     0.006833      1.00800 ; qtot 0.007
 11236   cD   286    MY   C16 11236    -0.027812     12.01000 ; qtot -0.021
 11237   hL   286    MY   H6R 11237     0.011511      1.00800 ; qtot -0.009
 11238   hL   286    MY   H6S 11238     0.011511      1.00800 ; qtot 0.002
 11239   cD   286    MY   C15 11239    -0.016521     12.01000 ; qtot -0.014
 11240   hL   286    MY   H5R 11240     0.010573      1.00800 ; qtot -0.003
 11241   hL   286    MY   H5S 11241     0.010573      1.00800 ; qtot 0.007
 11242   cD   286    MY   C14 11242    -0.026954     12.01000 ; qtot -0.020
 11243   hL   286    MY   H4R 11243     0.020431      1.00800 ; qtot 0.001
 11244   hL   286    MY   H4S 11244     0.020431      1.00800 ; qtot 0.021
 11245   cD   286    MY   C13 11245    -0.002435     12.01000 ; qtot 0.019
 11246   hL   286    MY   H3R 11246     0.018859      1.00800 ; qtot 0.037
 11247   hL   286    MY   H3S 11247     0.018859      1.00800 ; qtot 0.056
 11248   cD   286    MY   C12 11248    -0.164200     12.01000 ; qtot -0.108
 11249   hL   286    MY   H2R 11249     0.053944      1.00800 ; qtot -0.054
 11250   hL   286    MY   H2S 11250     0.053944      1.00800 ; qtot -0.000
 11251   cC   287    PC   C11 11251     0.910403     12.01000 ; qtot 0.910
 11252   oC   287    PC   O12 11252    -0.671566     16.00000 ; qtot 0.239
 11253   oS   287    PC   O11 11253    -0.575489     16.00000 ; qtot -0.337
 11254   cA   287    PC    C1 11254     0.196939     12.01000 ; qtot -0.140
 11255   hE   287    PC    HR 11255     0.070469      1.00800 ; qtot -0.069
 11256   hE   287    PC    HS 11256     0.070469      1.00800 ; qtot 0.001
 11257   cA   287    PC    C2 11257     0.281242     12.01000 ; qtot 0.282
 11258   hE   287    PC    HX 11258     0.063253      1.00800 ; qtot 0.346
 11259   cA   287    PC    C3 11259     0.017459     12.01000 ; qtot 0.363
 11260   hE   287    PC    HA 11260     0.095591      1.00800 ; qtot 0.459
 11261   hE   287    PC    HB 11261     0.095591      1.00800 ; qtot 0.554
 11262   oT   287    PC   O31 11262    -0.509480     16.00000 ; qtot 0.045
 11263   pA   287    PC   P31 11263     1.339721     30.97000 ; qtot 1.385
 11264   oT   287    PC   O32 11264    -0.508176     16.00000 ; qtot 0.876
 11265   cA   287    PC   C31 11265     0.166801     12.01000 ; qtot 1.043
 11266   hE   287    PC   H1A 11266     0.078534      1.00800 ; qtot 1.122
 11267   hE   287    PC   H1B 11267     0.078534      1.00800 ; qtot 1.200
 11268   cA   287    PC   C32 11268    -0.170824     12.01000 ; qtot 1.029
 11269   hX   287    PC   H2A 11269     0.136415      1.00800 ; qtot 1.166
 11270   hX   287    PC   H2B 11270     0.136415      1.00800 ; qtot 1.302
 11271   nA   287    PC   N31 11271     0.245262     14.01000 ; qtot 1.548
 11272   cA   287    PC   C33 11272    -0.338973     12.01000 ; qtot 1.209
 11273   hX   287    PC   H3A 11273     0.172230      1.00800 ; qtot 1.381
 11274   hX   287    PC   H3B 11274     0.172230      1.00800 ; qtot 1.553
 11275   hX   287    PC   H3C 11275     0.172230      1.00800 ; qtot 1.725
 11276   cA   287    PC   C34 11276    -0.338973     12.01000 ; qtot 1.386
 11277   hX   287    PC   H4A 11277     0.172230      1.00800 ; qtot 1.559
 11278   hX   287    PC   H4B 11278     0.172230      1.00800 ; qtot 1.731
 11279   hX   287    PC   H4C 11279     0.172230      1.00800 ; qtot 1.903
 11280   cA   287    PC   C35 11280    -0.338973     12.01000 ; qtot 1.564
 11281   hX   287    PC   H5A 11281     0.172230      1.00800 ; qtot 1.736
 11282   hX   287    PC   H5B 11282     0.172230      1.00800 ; qtot 1.908
 11283   hX   287    PC   H5C 11283     0.172230      1.00800 ; qtot 2.081
 11284   oP   287    PC   O33 11284    -0.875812     16.00000 ; qtot 1.205
 11285   oP   287    PC   O34 11285    -0.875812     16.00000 ; qtot 0.329
 11286   oS   287    PC   O21 11286    -0.552948     16.00000 ; qtot -0.224
 11287   cC   287    PC   C21 11287     0.897613     12.01000 ; qtot 0.674
 11288   oC   287    PC   O22 11288    -0.673755     16.00000 ; qtot 0.000
 11289   hL   288    MY  H14T 11289     0.025511      1.00800 ; qtot 0.026
 11290   cD   288    MY  C114 11290    -0.111712     12.01000 ; qtot -0.086
 11291   hL   288    MY  H14R 11291     0.025511      1.00800 ; qtot -0.061
 11292   hL   288    MY  H14S 11292     0.025511      1.00800 ; qtot -0.035
 11293   cD   288    MY  C113 11293     0.017463     12.01000 ; qtot -0.018
 11294   hL   288    MY  H13R 11294     0.007531      1.00800 ; qtot -0.010
 11295   hL   288    MY  H13S 11295     0.007531      1.00800 ; qtot -0.003
 11296   cD   288    MY  C112 11296    -0.028094     12.01000 ; qtot -0.031
 11297   hL   288    MY  H12R 11297     0.017208      1.00800 ; qtot -0.014
 11298   hL   288    MY  H12S 11298     0.017208      1.00800 ; qtot 0.004
 11299   cD   288    MY  C111 11299    -0.031787     12.01000 ; qtot -0.028
 11300   hL   288    MY  H11R 11300     0.012677      1.00800 ; qtot -0.015
 11301   hL   288    MY  H11S 11301     0.012677      1.00800 ; qtot -0.003
 11302   cD   288    MY  C110 11302    -0.021025     12.01000 ; qtot -0.024
 11303   hL   288    MY  H10R 11303     0.010037      1.00800 ; qtot -0.014
 11304   hL   288    MY  H10S 11304     0.010037      1.00800 ; qtot -0.004
 11305   cD   288    MY   C19 11305    -0.014653     12.01000 ; qtot -0.018
 11306   hL   288    MY   H9R 11306     0.010172      1.00800 ; qtot -0.008
 11307   hL   288    MY   H9S 11307     0.010172      1.00800 ; qtot 0.002
 11308   cD   288    MY   C18 11308    -0.026451     12.01000 ; qtot -0.024
 11309   hL   288    MY   H8R 11309     0.011241      1.00800 ; qtot -0.013
 11310   hL   288    MY   H8S 11310     0.011241      1.00800 ; qtot -0.002
 11311   cD   288    MY   C17 11311    -0.004386     12.01000 ; qtot -0.006
 11312   hL   288    MY   H7R 11312     0.006833      1.00800 ; qtot 0.000
 11313   hL   288    MY   H7S 11313     0.006833      1.00800 ; qtot 0.007
 11314   cD   288    MY   C16 11314    -0.027812     12.01000 ; qtot -0.021
 11315   hL   288    MY   H6R 11315     0.011511      1.00800 ; qtot -0.009
 11316   hL   288    MY   H6S 11316     0.011511      1.00800 ; qtot 0.002
 11317   cD   288    MY   C15 11317    -0.016521     12.01000 ; qtot -0.014
 11318   hL   288    MY   H5R 11318     0.010573      1.00800 ; qtot -0.003
 11319   hL   288    MY   H5S 11319     0.010573      1.00800 ; qtot 0.007
 11320   cD   288    MY   C14 11320    -0.026954     12.01000 ; qtot -0.020
 11321   hL   288    MY   H4R 11321     0.020431      1.00800 ; qtot 0.001
 11322   hL   288    MY   H4S 11322     0.020431      1.00800 ; qtot 0.021
 11323   cD   288    MY   C13 11323    -0.002435     12.01000 ; qtot 0.019
 11324   hL   288    MY   H3R 11324     0.018859      1.00800 ; qtot 0.037
 11325   hL   288    MY   H3S 11325     0.018859      1.00800 ; qtot 0.056
 11326   cD   288    MY   C12 11326    -0.164200     12.01000 ; qtot -0.108
 11327   hL   288    MY   H2R 11327     0.053944      1.00800 ; qtot -0.054
 11328   hL   288    MY   H2S 11328     0.053944      1.00800 ; qtot -0.000
 11329   hL   289    MY  H14T 11329     0.025511      1.00800 ; qtot 0.026
 11330   cD   289    MY  C114 11330    -0.111712     12.01000 ; qtot -0.086
 11331   hL   289    MY  H14R 11331     0.025511      1.00800 ; qtot -0.061
 11332   hL   289    MY  H14S 11332     0.025511      1.00800 ; qtot -0.035
 11333   cD   289    MY  C113 11333     0.017463     12.01000 ; qtot -0.018
 11334   hL   289    MY  H13R 11334     0.007531      1.00800 ; qtot -0.010
 11335   hL   289    MY  H13S 11335     0.007531      1.00800 ; qtot -0.003
 11336   cD   289    MY  C112 11336    -0.028094     12.01000 ; qtot -0.031
 11337   hL   289    MY  H12R 11337     0.017208      1.00800 ; qtot -0.014
 11338   hL   289    MY  H12S 11338     0.017208      1.00800 ; qtot 0.004
 11339   cD   289    MY  C111 11339    -0.031787     12.01000 ; qtot -0.028
 11340   hL   289    MY  H11R 11340     0.012677      1.00800 ; qtot -0.015
 11341   hL   289    MY  H11S 11341     0.012677      1.00800 ; qtot -0.003
 11342   cD   289    MY  C110 11342    -0.021025     12.01000 ; qtot -0.024
 11343   hL   289    MY  H10R 11343     0.010037      1.00800 ; qtot -0.014
 11344   hL   289    MY  H10S 11344     0.010037      1.00800 ; qtot -0.004
 11345   cD   289    MY   C19 11345    -0.014653     12.01000 ; qtot -0.018
 11346   hL   289    MY   H9R 11346     0.010172      1.00800 ; qtot -0.008
 11347   hL   289    MY   H9S 11347     0.010172      1.00800 ; qtot 0.002
 11348   cD   289    MY   C18 11348    -0.026451     12.01000 ; qtot -0.024
 11349   hL   289    MY   H8R 11349     0.011241      1.00800 ; qtot -0.013
 11350   hL   289    MY   H8S 11350     0.011241      1.00800 ; qtot -0.002
 11351   cD   289    MY   C17 11351    -0.004386     12.01000 ; qtot -0.006
 11352   hL   289    MY   H7R 11352     0.006833      1.00800 ; qtot 0.000
 11353   hL   289    MY   H7S 11353     0.006833      1.00800 ; qtot 0.007
 11354   cD   289    MY   C16 11354    -0.027812     12.01000 ; qtot -0.021
 11355   hL   289    MY   H6R 11355     0.011511      1.00800 ; qtot -0.009
 11356   hL   289    MY   H6S 11356     0.011511      1.00800 ; qtot 0.002
 11357   cD   289    MY   C15 11357    -0.016521     12.01000 ; qtot -0.014
 11358   hL   289    MY   H5R 11358     0.010573      1.00800 ; qtot -0.003
 11359   hL   289    MY   H5S 11359     0.010573      1.00800 ; qtot 0.007
 11360   cD   289    MY   C14 11360    -0.026954     12.01000 ; qtot -0.020
 11361   hL   289    MY   H4R 11361     0.020431      1.00800 ; qtot 0.001
 11362   hL   289    MY   H4S 11362     0.020431      1.00800 ; qtot 0.021
 11363   cD   289    MY   C13 11363    -0.002435     12.01000 ; qtot 0.019
 11364   hL   289    MY   H3R 11364     0.018859      1.00800 ; qtot 0.037
 11365   hL   289    MY   H3S 11365     0.018859      1.00800 ; qtot 0.056
 11366   cD   289    MY   C12 11366    -0.164200     12.01000 ; qtot -0.108
 11367   hL   289    MY   H2R 11367     0.053944      1.00800 ; qtot -0.054
 11368   hL   289    MY   H2S 11368     0.053944      1.00800 ; qtot -0.000
 11369   cC   290    PC   C11 11369     0.910403     12.01000 ; qtot 0.910
 11370   oC   290    PC   O12 11370    -0.671566     16.00000 ; qtot 0.239
 11371   oS   290    PC   O11 11371    -0.575489     16.00000 ; qtot -0.337
 11372   cA   290    PC    C1 11372     0.196939     12.01000 ; qtot -0.140
 11373   hE   290    PC    HR 11373     0.070469      1.00800 ; qtot -0.069
 11374   hE   290    PC    HS 11374     0.070469      1.00800 ; qtot 0.001
 11375   cA   290    PC    C2 11375     0.281242     12.01000 ; qtot 0.282
 11376   hE   290    PC    HX 11376     0.063253      1.00800 ; qtot 0.346
 11377   cA   290    PC    C3 11377     0.017459     12.01000 ; qtot 0.363
 11378   hE   290    PC    HA 11378     0.095591      1.00800 ; qtot 0.459
 11379   hE   290    PC    HB 11379     0.095591      1.00800 ; qtot 0.554
 11380   oT   290    PC   O31 11380    -0.509480     16.00000 ; qtot 0.045
 11381   pA   290    PC   P31 11381     1.339721     30.97000 ; qtot 1.385
 11382   oT   290    PC   O32 11382    -0.508176     16.00000 ; qtot 0.876
 11383   cA   290    PC   C31 11383     0.166801     12.01000 ; qtot 1.043
 11384   hE   290    PC   H1A 11384     0.078534      1.00800 ; qtot 1.122
 11385   hE   290    PC   H1B 11385     0.078534      1.00800 ; qtot 1.200
 11386   cA   290    PC   C32 11386    -0.170824     12.01000 ; qtot 1.029
 11387   hX   290    PC   H2A 11387     0.136415      1.00800 ; qtot 1.166
 11388   hX   290    PC   H2B 11388     0.136415      1.00800 ; qtot 1.302
 11389   nA   290    PC   N31 11389     0.245262     14.01000 ; qtot 1.548
 11390   cA   290    PC   C33 11390    -0.338973     12.01000 ; qtot 1.209
 11391   hX   290    PC   H3A 11391     0.172230      1.00800 ; qtot 1.381
 11392   hX   290    PC   H3B 11392     0.172230      1.00800 ; qtot 1.553
 11393   hX   290    PC   H3C 11393     0.172230      1.00800 ; qtot 1.725
 11394   cA   290    PC   C34 11394    -0.338973     12.01000 ; qtot 1.386
 11395   hX   290    PC   H4A 11395     0.172230      1.00800 ; qtot 1.559
 11396   hX   290    PC   H4B 11396     0.172230      1.00800 ; qtot 1.731
 11397   hX   290    PC   H4C 11397     0.172230      1.00800 ; qtot 1.903
 11398   cA   290    PC   C35 11398    -0.338973     12.01000 ; qtot 1.564
 11399   hX   290    PC   H5A 11399     0.172230      1.00800 ; qtot 1.736
 11400   hX   290    PC   H5B 11400     0.172230      1.00800 ; qtot 1.908
 11401   hX   290    PC   H5C 11401     0.172230      1.00800 ; qtot 2.081
 11402   oP   290    PC   O33 11402    -0.875812     16.00000 ; qtot 1.205
 11403   oP   290    PC   O34 11403    -0.875812     16.00000 ; qtot 0.329
 11404   oS   290    PC   O21 11404    -0.552948     16.00000 ; qtot -0.224
 11405   cC   290    PC   C21 11405     0.897613     12.01000 ; qtot 0.674
 11406   oC   290    PC   O22 11406    -0.673755     16.00000 ; qtot 0.000
 11407   hL   291    MY  H14T 11407     0.025511      1.00800 ; qtot 0.026
 11408   cD   291    MY  C114 11408    -0.111712     12.01000 ; qtot -0.086
 11409   hL   291    MY  H14R 11409     0.025511      1.00800 ; qtot -0.061
 11410   hL   291    MY  H14S 11410     0.025511      1.00800 ; qtot -0.035
 11411   cD   291    MY  C113 11411     0.017463     12.01000 ; qtot -0.018
 11412   hL   291    MY  H13R 11412     0.007531      1.00800 ; qtot -0.010
 11413   hL   291    MY  H13S 11413     0.007531      1.00800 ; qtot -0.003
 11414   cD   291    MY  C112 11414    -0.028094     12.01000 ; qtot -0.031
 11415   hL   291    MY  H12R 11415     0.017208      1.00800 ; qtot -0.014
 11416   hL   291    MY  H12S 11416     0.017208      1.00800 ; qtot 0.004
 11417   cD   291    MY  C111 11417    -0.031787     12.01000 ; qtot -0.028
 11418   hL   291    MY  H11R 11418     0.012677      1.00800 ; qtot -0.015
 11419   hL   291    MY  H11S 11419     0.012677      1.00800 ; qtot -0.003
 11420   cD   291    MY  C110 11420    -0.021025     12.01000 ; qtot -0.024
 11421   hL   291    MY  H10R 11421     0.010037      1.00800 ; qtot -0.014
 11422   hL   291    MY  H10S 11422     0.010037      1.00800 ; qtot -0.004
 11423   cD   291    MY   C19 11423    -0.014653     12.01000 ; qtot -0.018
 11424   hL   291    MY   H9R 11424     0.010172      1.00800 ; qtot -0.008
 11425   hL   291    MY   H9S 11425     0.010172      1.00800 ; qtot 0.002
 11426   cD   291    MY   C18 11426    -0.026451     12.01000 ; qtot -0.024
 11427   hL   291    MY   H8R 11427     0.011241      1.00800 ; qtot -0.013
 11428   hL   291    MY   H8S 11428     0.011241      1.00800 ; qtot -0.002
 11429   cD   291    MY   C17 11429    -0.004386     12.01000 ; qtot -0.006
 11430   hL   291    MY   H7R 11430     0.006833      1.00800 ; qtot 0.000
 11431   hL   291    MY   H7S 11431     0.006833      1.00800 ; qtot 0.007
 11432   cD   291    MY   C16 11432    -0.027812     12.01000 ; qtot -0.021
 11433   hL   291    MY   H6R 11433     0.011511      1.00800 ; qtot -0.009
 11434   hL   291    MY   H6S 11434     0.011511      1.00800 ; qtot 0.002
 11435   cD   291    MY   C15 11435    -0.016521     12.01000 ; qtot -0.014
 11436   hL   291    MY   H5R 11436     0.010573      1.00800 ; qtot -0.003
 11437   hL   291    MY   H5S 11437     0.010573      1.00800 ; qtot 0.007
 11438   cD   291    MY   C14 11438    -0.026954     12.01000 ; qtot -0.020
 11439   hL   291    MY   H4R 11439     0.020431      1.00800 ; qtot 0.001
 11440   hL   291    MY   H4S 11440     0.020431      1.00800 ; qtot 0.021
 11441   cD   291    MY   C13 11441    -0.002435     12.01000 ; qtot 0.019
 11442   hL   291    MY   H3R 11442     0.018859      1.00800 ; qtot 0.037
 11443   hL   291    MY   H3S 11443     0.018859      1.00800 ; qtot 0.056
 11444   cD   291    MY   C12 11444    -0.164200     12.01000 ; qtot -0.108
 11445   hL   291    MY   H2R 11445     0.053944      1.00800 ; qtot -0.054
 11446   hL   291    MY   H2S 11446     0.053944      1.00800 ; qtot -0.000
 11447   hL   292    MY  H14T 11447     0.025511      1.00800 ; qtot 0.026
 11448   cD   292    MY  C114 11448    -0.111712     12.01000 ; qtot -0.086
 11449   hL   292    MY  H14R 11449     0.025511      1.00800 ; qtot -0.061
 11450   hL   292    MY  H14S 11450     0.025511      1.00800 ; qtot -0.035
 11451   cD   292    MY  C113 11451     0.017463     12.01000 ; qtot -0.018
 11452   hL   292    MY  H13R 11452     0.007531      1.00800 ; qtot -0.010
 11453   hL   292    MY  H13S 11453     0.007531      1.00800 ; qtot -0.003
 11454   cD   292    MY  C112 11454    -0.028094     12.01000 ; qtot -0.031
 11455   hL   292    MY  H12R 11455     0.017208      1.00800 ; qtot -0.014
 11456   hL   292    MY  H12S 11456     0.017208      1.00800 ; qtot 0.004
 11457   cD   292    MY  C111 11457    -0.031787     12.01000 ; qtot -0.028
 11458   hL   292    MY  H11R 11458     0.012677      1.00800 ; qtot -0.015
 11459   hL   292    MY  H11S 11459     0.012677      1.00800 ; qtot -0.003
 11460   cD   292    MY  C110 11460    -0.021025     12.01000 ; qtot -0.024
 11461   hL   292    MY  H10R 11461     0.010037      1.00800 ; qtot -0.014
 11462   hL   292    MY  H10S 11462     0.010037      1.00800 ; qtot -0.004
 11463   cD   292    MY   C19 11463    -0.014653     12.01000 ; qtot -0.018
 11464   hL   292    MY   H9R 11464     0.010172      1.00800 ; qtot -0.008
 11465   hL   292    MY   H9S 11465     0.010172      1.00800 ; qtot 0.002
 11466   cD   292    MY   C18 11466    -0.026451     12.01000 ; qtot -0.024
 11467   hL   292    MY   H8R 11467     0.011241      1.00800 ; qtot -0.013
 11468   hL   292    MY   H8S 11468     0.011241      1.00800 ; qtot -0.002
 11469   cD   292    MY   C17 11469    -0.004386     12.01000 ; qtot -0.006
 11470   hL   292    MY   H7R 11470     0.006833      1.00800 ; qtot 0.000
 11471   hL   292    MY   H7S 11471     0.006833      1.00800 ; qtot 0.007
 11472   cD   292    MY   C16 11472    -0.027812     12.01000 ; qtot -0.021
 11473   hL   292    MY   H6R 11473     0.011511      1.00800 ; qtot -0.009
 11474   hL   292    MY   H6S 11474     0.011511      1.00800 ; qtot 0.002
 11475   cD   292    MY   C15 11475    -0.016521     12.01000 ; qtot -0.014
 11476   hL   292    MY   H5R 11476     0.010573      1.00800 ; qtot -0.003
 11477   hL   292    MY   H5S 11477     0.010573      1.00800 ; qtot 0.007
 11478   cD   292    MY   C14 11478    -0.026954     12.01000 ; qtot -0.020
 11479   hL   292    MY   H4R 11479     0.020431      1.00800 ; qtot 0.001
 11480   hL   292    MY   H4S 11480     0.020431      1.00800 ; qtot 0.021
 11481   cD   292    MY   C13 11481    -0.002435     12.01000 ; qtot 0.019
 11482   hL   292    MY   H3R 11482     0.018859      1.00800 ; qtot 0.037
 11483   hL   292    MY   H3S 11483     0.018859      1.00800 ; qtot 0.056
 11484   cD   292    MY   C12 11484    -0.164200     12.01000 ; qtot -0.108
 11485   hL   292    MY   H2R 11485     0.053944      1.00800 ; qtot -0.054
 11486   hL   292    MY   H2S 11486     0.053944      1.00800 ; qtot -0.000
 11487   cC   293    PC   C11 11487     0.910403     12.01000 ; qtot 0.910
 11488   oC   293    PC   O12 11488    -0.671566     16.00000 ; qtot 0.239
 11489   oS   293    PC   O11 11489    -0.575489     16.00000 ; qtot -0.337
 11490   cA   293    PC    C1 11490     0.196939     12.01000 ; qtot -0.140
 11491   hE   293    PC    HR 11491     0.070469      1.00800 ; qtot -0.069
 11492   hE   293    PC    HS 11492     0.070469      1.00800 ; qtot 0.001
 11493   cA   293    PC    C2 11493     0.281242     12.01000 ; qtot 0.282
 11494   hE   293    PC    HX 11494     0.063253      1.00800 ; qtot 0.346
 11495   cA   293    PC    C3 11495     0.017459     12.01000 ; qtot 0.363
 11496   hE   293    PC    HA 11496     0.095591      1.00800 ; qtot 0.459
 11497   hE   293    PC    HB 11497     0.095591      1.00800 ; qtot 0.554
 11498   oT   293    PC   O31 11498    -0.509480     16.00000 ; qtot 0.045
 11499   pA   293    PC   P31 11499     1.339721     30.97000 ; qtot 1.385
 11500   oT   293    PC   O32 11500    -0.508176     16.00000 ; qtot 0.876
 11501   cA   293    PC   C31 11501     0.166801     12.01000 ; qtot 1.043
 11502   hE   293    PC   H1A 11502     0.078534      1.00800 ; qtot 1.122
 11503   hE   293    PC   H1B 11503     0.078534      1.00800 ; qtot 1.200
 11504   cA   293    PC   C32 11504    -0.170824     12.01000 ; qtot 1.029
 11505   hX   293    PC   H2A 11505     0.136415      1.00800 ; qtot 1.166
 11506   hX   293    PC   H2B 11506     0.136415      1.00800 ; qtot 1.302
 11507   nA   293    PC   N31 11507     0.245262     14.01000 ; qtot 1.548
 11508   cA   293    PC   C33 11508    -0.338973     12.01000 ; qtot 1.209
 11509   hX   293    PC   H3A 11509     0.172230      1.00800 ; qtot 1.381
 11510   hX   293    PC   H3B 11510     0.172230      1.00800 ; qtot 1.553
 11511   hX   293    PC   H3C 11511     0.172230      1.00800 ; qtot 1.725
 11512   cA   293    PC   C34 11512    -0.338973     12.01000 ; qtot 1.386
 11513   hX   293    PC   H4A 11513     0.172230      1.00800 ; qtot 1.559
 11514   hX   293    PC   H4B 11514     0.172230      1.00800 ; qtot 1.731
 11515   hX   293    PC   H4C 11515     0.172230      1.00800 ; qtot 1.903
 11516   cA   293    PC   C35 11516    -0.338973     12.01000 ; qtot 1.564
 11517   hX   293    PC   H5A 11517     0.172230      1.00800 ; qtot 1.736
 11518   hX   293    PC   H5B 11518     0.172230      1.00800 ; qtot 1.908
 11519   hX   293    PC   H5C 11519     0.172230      1.00800 ; qtot 2.081
 11520   oP   293    PC   O33 11520    -0.875812     16.00000 ; qtot 1.205
 11521   oP   293    PC   O34 11521    -0.875812     16.00000 ; qtot 0.329
 11522   oS   293    PC   O21 11522    -0.552948     16.00000 ; qtot -0.224
 11523   cC   293    PC   C21 11523     0.897613     12.01000 ; qtot 0.674
 11524   oC   293    PC   O22 11524    -0.673755     16.00000 ; qtot 0.000
 11525   hL   294    MY  H14T 11525     0.025511      1.00800 ; qtot 0.026
 11526   cD   294    MY  C114 11526    -0.111712     12.01000 ; qtot -0.086
 11527   hL   294    MY  H14R 11527     0.025511      1.00800 ; qtot -0.061
 11528   hL   294    MY  H14S 11528     0.025511      1.00800 ; qtot -0.035
 11529   cD   294    MY  C113 11529     0.017463     12.01000 ; qtot -0.018
 11530   hL   294    MY  H13R 11530     0.007531      1.00800 ; qtot -0.010
 11531   hL   294    MY  H13S 11531     0.007531      1.00800 ; qtot -0.003
 11532   cD   294    MY  C112 11532    -0.028094     12.01000 ; qtot -0.031
 11533   hL   294    MY  H12R 11533     0.017208      1.00800 ; qtot -0.014
 11534   hL   294    MY  H12S 11534     0.017208      1.00800 ; qtot 0.004
 11535   cD   294    MY  C111 11535    -0.031787     12.01000 ; qtot -0.028
 11536   hL   294    MY  H11R 11536     0.012677      1.00800 ; qtot -0.015
 11537   hL   294    MY  H11S 11537     0.012677      1.00800 ; qtot -0.003
 11538   cD   294    MY  C110 11538    -0.021025     12.01000 ; qtot -0.024
 11539   hL   294    MY  H10R 11539     0.010037      1.00800 ; qtot -0.014
 11540   hL   294    MY  H10S 11540     0.010037      1.00800 ; qtot -0.004
 11541   cD   294    MY   C19 11541    -0.014653     12.01000 ; qtot -0.018
 11542   hL   294    MY   H9R 11542     0.010172      1.00800 ; qtot -0.008
 11543   hL   294    MY   H9S 11543     0.010172      1.00800 ; qtot 0.002
 11544   cD   294    MY   C18 11544    -0.026451     12.01000 ; qtot -0.024
 11545   hL   294    MY   H8R 11545     0.011241      1.00800 ; qtot -0.013
 11546   hL   294    MY   H8S 11546     0.011241      1.00800 ; qtot -0.002
 11547   cD   294    MY   C17 11547    -0.004386     12.01000 ; qtot -0.006
 11548   hL   294    MY   H7R 11548     0.006833      1.00800 ; qtot 0.000
 11549   hL   294    MY   H7S 11549     0.006833      1.00800 ; qtot 0.007
 11550   cD   294    MY   C16 11550    -0.027812     12.01000 ; qtot -0.021
 11551   hL   294    MY   H6R 11551     0.011511      1.00800 ; qtot -0.009
 11552   hL   294    MY   H6S 11552     0.011511      1.00800 ; qtot 0.002
 11553   cD   294    MY   C15 11553    -0.016521     12.01000 ; qtot -0.014
 11554   hL   294    MY   H5R 11554     0.010573      1.00800 ; qtot -0.003
 11555   hL   294    MY   H5S 11555     0.010573      1.00800 ; qtot 0.007
 11556   cD   294    MY   C14 11556    -0.026954     12.01000 ; qtot -0.020
 11557   hL   294    MY   H4R 11557     0.020431      1.00800 ; qtot 0.001
 11558   hL   294    MY   H4S 11558     0.020431      1.00800 ; qtot 0.021
 11559   cD   294    MY   C13 11559    -0.002435     12.01000 ; qtot 0.019
 11560   hL   294    MY   H3R 11560     0.018859      1.00800 ; qtot 0.037
 11561   hL   294    MY   H3S 11561     0.018859      1.00800 ; qtot 0.056
 11562   cD   294    MY   C12 11562    -0.164200     12.01000 ; qtot -0.108
 11563   hL   294    MY   H2R 11563     0.053944      1.00800 ; qtot -0.054
 11564   hL   294    MY   H2S 11564     0.053944      1.00800 ; qtot -0.000
 11565   hL   295    MY  H14T 11565     0.025511      1.00800 ; qtot 0.026
 11566   cD   295    MY  C114 11566    -0.111712     12.01000 ; qtot -0.086
 11567   hL   295    MY  H14R 11567     0.025511      1.00800 ; qtot -0.061
 11568   hL   295    MY  H14S 11568     0.025511      1.00800 ; qtot -0.035
 11569   cD   295    MY  C113 11569     0.017463     12.01000 ; qtot -0.018
 11570   hL   295    MY  H13R 11570     0.007531      1.00800 ; qtot -0.010
 11571   hL   295    MY  H13S 11571     0.007531      1.00800 ; qtot -0.003
 11572   cD   295    MY  C112 11572    -0.028094     12.01000 ; qtot -0.031
 11573   hL   295    MY  H12R 11573     0.017208      1.00800 ; qtot -0.014
 11574   hL   295    MY  H12S 11574     0.017208      1.00800 ; qtot 0.004
 11575   cD   295    MY  C111 11575    -0.031787     12.01000 ; qtot -0.028
 11576   hL   295    MY  H11R 11576     0.012677      1.00800 ; qtot -0.015
 11577   hL   295    MY  H11S 11577     0.012677      1.00800 ; qtot -0.003
 11578   cD   295    MY  C110 11578    -0.021025     12.01000 ; qtot -0.024
 11579   hL   295    MY  H10R 11579     0.010037      1.00800 ; qtot -0.014
 11580   hL   295    MY  H10S 11580     0.010037      1.00800 ; qtot -0.004
 11581   cD   295    MY   C19 11581    -0.014653     12.01000 ; qtot -0.018
 11582   hL   295    MY   H9R 11582     0.010172      1.00800 ; qtot -0.008
 11583   hL   295    MY   H9S 11583     0.010172      1.00800 ; qtot 0.002
 11584   cD   295    MY   C18 11584    -0.026451     12.01000 ; qtot -0.024
 11585   hL   295    MY   H8R 11585     0.011241      1.00800 ; qtot -0.013
 11586   hL   295    MY   H8S 11586     0.011241      1.00800 ; qtot -0.002
 11587   cD   295    MY   C17 11587    -0.004386     12.01000 ; qtot -0.006
 11588   hL   295    MY   H7R 11588     0.006833      1.00800 ; qtot 0.000
 11589   hL   295    MY   H7S 11589     0.006833      1.00800 ; qtot 0.007
 11590   cD   295    MY   C16 11590    -0.027812     12.01000 ; qtot -0.021
 11591   hL   295    MY   H6R 11591     0.011511      1.00800 ; qtot -0.009
 11592   hL   295    MY   H6S 11592     0.011511      1.00800 ; qtot 0.002
 11593   cD   295    MY   C15 11593    -0.016521     12.01000 ; qtot -0.014
 11594   hL   295    MY   H5R 11594     0.010573      1.00800 ; qtot -0.003
 11595   hL   295    MY   H5S 11595     0.010573      1.00800 ; qtot 0.007
 11596   cD   295    MY   C14 11596    -0.026954     12.01000 ; qtot -0.020
 11597   hL   295    MY   H4R 11597     0.020431      1.00800 ; qtot 0.001
 11598   hL   295    MY   H4S 11598     0.020431      1.00800 ; qtot 0.021
 11599   cD   295    MY   C13 11599    -0.002435     12.01000 ; qtot 0.019
 11600   hL   295    MY   H3R 11600     0.018859      1.00800 ; qtot 0.037
 11601   hL   295    MY   H3S 11601     0.018859      1.00800 ; qtot 0.056
 11602   cD   295    MY   C12 11602    -0.164200     12.01000 ; qtot -0.108
 11603   hL   295    MY   H2R 11603     0.053944      1.00800 ; qtot -0.054
 11604   hL   295    MY   H2S 11604     0.053944      1.00800 ; qtot -0.000
 11605   cC   296    PC   C11 11605     0.910403     12.01000 ; qtot 0.910
 11606   oC   296    PC   O12 11606    -0.671566     16.00000 ; qtot 0.239
 11607   oS   296    PC   O11 11607    -0.575489     16.00000 ; qtot -0.337
 11608   cA   296    PC    C1 11608     0.196939     12.01000 ; qtot -0.140
 11609   hE   296    PC    HR 11609     0.070469      1.00800 ; qtot -0.069
 11610   hE   296    PC    HS 11610     0.070469      1.00800 ; qtot 0.001
 11611   cA   296    PC    C2 11611     0.281242     12.01000 ; qtot 0.282
 11612   hE   296    PC    HX 11612     0.063253      1.00800 ; qtot 0.346
 11613   cA   296    PC    C3 11613     0.017459     12.01000 ; qtot 0.363
 11614   hE   296    PC    HA 11614     0.095591      1.00800 ; qtot 0.459
 11615   hE   296    PC    HB 11615     0.095591      1.00800 ; qtot 0.554
 11616   oT   296    PC   O31 11616    -0.509480     16.00000 ; qtot 0.045
 11617   pA   296    PC   P31 11617     1.339721     30.97000 ; qtot 1.385
 11618   oT   296    PC   O32 11618    -0.508176     16.00000 ; qtot 0.876
 11619   cA   296    PC   C31 11619     0.166801     12.01000 ; qtot 1.043
 11620   hE   296    PC   H1A 11620     0.078534      1.00800 ; qtot 1.122
 11621   hE   296    PC   H1B 11621     0.078534      1.00800 ; qtot 1.200
 11622   cA   296    PC   C32 11622    -0.170824     12.01000 ; qtot 1.029
 11623   hX   296    PC   H2A 11623     0.136415      1.00800 ; qtot 1.166
 11624   hX   296    PC   H2B 11624     0.136415      1.00800 ; qtot 1.302
 11625   nA   296    PC   N31 11625     0.245262     14.01000 ; qtot 1.548
 11626   cA   296    PC   C33 11626    -0.338973     12.01000 ; qtot 1.209
 11627   hX   296    PC   H3A 11627     0.172230      1.00800 ; qtot 1.381
 11628   hX   296    PC   H3B 11628     0.172230      1.00800 ; qtot 1.553
 11629   hX   296    PC   H3C 11629     0.172230      1.00800 ; qtot 1.725
 11630   cA   296    PC   C34 11630    -0.338973     12.01000 ; qtot 1.386
 11631   hX   296    PC   H4A 11631     0.172230      1.00800 ; qtot 1.559
 11632   hX   296    PC   H4B 11632     0.172230      1.00800 ; qtot 1.731
 11633   hX   296    PC   H4C 11633     0.172230      1.00800 ; qtot 1.903
 11634   cA   296    PC   C35 11634    -0.338973     12.01000 ; qtot 1.564
 11635   hX   296    PC   H5A 11635     0.172230      1.00800 ; qtot 1.736
 11636   hX   296    PC   H5B 11636     0.172230      1.00800 ; qtot 1.908
 11637   hX   296    PC   H5C 11637     0.172230      1.00800 ; qtot 2.081
 11638   oP   296    PC   O33 11638    -0.875812     16.00000 ; qtot 1.205
 11639   oP   296    PC   O34 11639    -0.875812     16.00000 ; qtot 0.329
 11640   oS   296    PC   O21 11640    -0.552948     16.00000 ; qtot -0.224
 11641   cC   296    PC   C21 11641     0.897613     12.01000 ; qtot 0.674
 11642   oC   296    PC   O22 11642    -0.673755     16.00000 ; qtot 0.000
 11643   hL   297    MY  H14T 11643     0.025511      1.00800 ; qtot 0.026
 11644   cD   297    MY  C114 11644    -0.111712     12.01000 ; qtot -0.086
 11645   hL   297    MY  H14R 11645     0.025511      1.00800 ; qtot -0.061
 11646   hL   297    MY  H14S 11646     0.025511      1.00800 ; qtot -0.035
 11647   cD   297    MY  C113 11647     0.017463     12.01000 ; qtot -0.018
 11648   hL   297    MY  H13R 11648     0.007531      1.00800 ; qtot -0.010
 11649   hL   297    MY  H13S 11649     0.007531      1.00800 ; qtot -0.003
 11650   cD   297    MY  C112 11650    -0.028094     12.01000 ; qtot -0.031
 11651   hL   297    MY  H12R 11651     0.017208      1.00800 ; qtot -0.014
 11652   hL   297    MY  H12S 11652     0.017208      1.00800 ; qtot 0.004
 11653   cD   297    MY  C111 11653    -0.031787     12.01000 ; qtot -0.028
 11654   hL   297    MY  H11R 11654     0.012677      1.00800 ; qtot -0.015
 11655   hL   297    MY  H11S 11655     0.012677      1.00800 ; qtot -0.003
 11656   cD   297    MY  C110 11656    -0.021025     12.01000 ; qtot -0.024
 11657   hL   297    MY  H10R 11657     0.010037      1.00800 ; qtot -0.014
 11658   hL   297    MY  H10S 11658     0.010037      1.00800 ; qtot -0.004
 11659   cD   297    MY   C19 11659    -0.014653     12.01000 ; qtot -0.018
 11660   hL   297    MY   H9R 11660     0.010172      1.00800 ; qtot -0.008
 11661   hL   297    MY   H9S 11661     0.010172      1.00800 ; qtot 0.002
 11662   cD   297    MY   C18 11662    -0.026451     12.01000 ; qtot -0.024
 11663   hL   297    MY   H8R 11663     0.011241      1.00800 ; qtot -0.013
 11664   hL   297    MY   H8S 11664     0.011241      1.00800 ; qtot -0.002
 11665   cD   297    MY   C17 11665    -0.004386     12.01000 ; qtot -0.006
 11666   hL   297    MY   H7R 11666     0.006833      1.00800 ; qtot 0.000
 11667   hL   297    MY   H7S 11667     0.006833      1.00800 ; qtot 0.007
 11668   cD   297    MY   C16 11668    -0.027812     12.01000 ; qtot -0.021
 11669   hL   297    MY   H6R 11669     0.011511      1.00800 ; qtot -0.009
 11670   hL   297    MY   H6S 11670     0.011511      1.00800 ; qtot 0.002
 11671   cD   297    MY   C15 11671    -0.016521     12.01000 ; qtot -0.014
 11672   hL   297    MY   H5R 11672     0.010573      1.00800 ; qtot -0.003
 11673   hL   297    MY   H5S 11673     0.010573      1.00800 ; qtot 0.007
 11674   cD   297    MY   C14 11674    -0.026954     12.01000 ; qtot -0.020
 11675   hL   297    MY   H4R 11675     0.020431      1.00800 ; qtot 0.001
 11676   hL   297    MY   H4S 11676     0.020431      1.00800 ; qtot 0.021
 11677   cD   297    MY   C13 11677    -0.002435     12.01000 ; qtot 0.019
 11678   hL   297    MY   H3R 11678     0.018859      1.00800 ; qtot 0.037
 11679   hL   297    MY   H3S 11679     0.018859      1.00800 ; qtot 0.056
 11680   cD   297    MY   C12 11680    -0.164200     12.01000 ; qtot -0.108
 11681   hL   297    MY   H2R 11681     0.053944      1.00800 ; qtot -0.054
 11682   hL   297    MY   H2S 11682     0.053944      1.00800 ; qtot -0.000
 11683   hL   298    MY  H14T 11683     0.025511      1.00800 ; qtot 0.026
 11684   cD   298    MY  C114 11684    -0.111712     12.01000 ; qtot -0.086
 11685   hL   298    MY  H14R 11685     0.025511      1.00800 ; qtot -0.061
 11686   hL   298    MY  H14S 11686     0.025511      1.00800 ; qtot -0.035
 11687   cD   298    MY  C113 11687     0.017463     12.01000 ; qtot -0.018
 11688   hL   298    MY  H13R 11688     0.007531      1.00800 ; qtot -0.010
 11689   hL   298    MY  H13S 11689     0.007531      1.00800 ; qtot -0.003
 11690   cD   298    MY  C112 11690    -0.028094     12.01000 ; qtot -0.031
 11691   hL   298    MY  H12R 11691     0.017208      1.00800 ; qtot -0.014
 11692   hL   298    MY  H12S 11692     0.017208      1.00800 ; qtot 0.004
 11693   cD   298    MY  C111 11693    -0.031787     12.01000 ; qtot -0.028
 11694   hL   298    MY  H11R 11694     0.012677      1.00800 ; qtot -0.015
 11695   hL   298    MY  H11S 11695     0.012677      1.00800 ; qtot -0.003
 11696   cD   298    MY  C110 11696    -0.021025     12.01000 ; qtot -0.024
 11697   hL   298    MY  H10R 11697     0.010037      1.00800 ; qtot -0.014
 11698   hL   298    MY  H10S 11698     0.010037      1.00800 ; qtot -0.004
 11699   cD   298    MY   C19 11699    -0.014653     12.01000 ; qtot -0.018
 11700   hL   298    MY   H9R 11700     0.010172      1.00800 ; qtot -0.008
 11701   hL   298    MY   H9S 11701     0.010172      1.00800 ; qtot 0.002
 11702   cD   298    MY   C18 11702    -0.026451     12.01000 ; qtot -0.024
 11703   hL   298    MY   H8R 11703     0.011241      1.00800 ; qtot -0.013
 11704   hL   298    MY   H8S 11704     0.011241      1.00800 ; qtot -0.002
 11705   cD   298    MY   C17 11705    -0.004386     12.01000 ; qtot -0.006
 11706   hL   298    MY   H7R 11706     0.006833      1.00800 ; qtot 0.000
 11707   hL   298    MY   H7S 11707     0.006833      1.00800 ; qtot 0.007
 11708   cD   298    MY   C16 11708    -0.027812     12.01000 ; qtot -0.021
 11709   hL   298    MY   H6R 11709     0.011511      1.00800 ; qtot -0.009
 11710   hL   298    MY   H6S 11710     0.011511      1.00800 ; qtot 0.002
 11711   cD   298    MY   C15 11711    -0.016521     12.01000 ; qtot -0.014
 11712   hL   298    MY   H5R 11712     0.010573      1.00800 ; qtot -0.003
 11713   hL   298    MY   H5S 11713     0.010573      1.00800 ; qtot 0.007
 11714   cD   298    MY   C14 11714    -0.026954     12.01000 ; qtot -0.020
 11715   hL   298    MY   H4R 11715     0.020431      1.00800 ; qtot 0.001
 11716   hL   298    MY   H4S 11716     0.020431      1.00800 ; qtot 0.021
 11717   cD   298    MY   C13 11717    -0.002435     12.01000 ; qtot 0.019
 11718   hL   298    MY   H3R 11718     0.018859      1.00800 ; qtot 0.037
 11719   hL   298    MY   H3S 11719     0.018859      1.00800 ; qtot 0.056
 11720   cD   298    MY   C12 11720    -0.164200     12.01000 ; qtot -0.108
 11721   hL   298    MY   H2R 11721     0.053944      1.00800 ; qtot -0.054
 11722   hL   298    MY   H2S 11722     0.053944      1.00800 ; qtot -0.000
 11723   cC   299    PC   C11 11723     0.910403     12.01000 ; qtot 0.910
 11724   oC   299    PC   O12 11724    -0.671566     16.00000 ; qtot 0.239
 11725   oS   299    PC   O11 11725    -0.575489     16.00000 ; qtot -0.337
 11726   cA   299    PC    C1 11726     0.196939     12.01000 ; qtot -0.140
 11727   hE   299    PC    HR 11727     0.070469      1.00800 ; qtot -0.069
 11728   hE   299    PC    HS 11728     0.070469      1.00800 ; qtot 0.001
 11729   cA   299    PC    C2 11729     0.281242     12.01000 ; qtot 0.282
 11730   hE   299    PC    HX 11730     0.063253      1.00800 ; qtot 0.346
 11731   cA   299    PC    C3 11731     0.017459     12.01000 ; qtot 0.363
 11732   hE   299    PC    HA 11732     0.095591      1.00800 ; qtot 0.459
 11733   hE   299    PC    HB 11733     0.095591      1.00800 ; qtot 0.554
 11734   oT   299    PC   O31 11734    -0.509480     16.00000 ; qtot 0.045
 11735   pA   299    PC   P31 11735     1.339721     30.97000 ; qtot 1.385
 11736   oT   299    PC   O32 11736    -0.508176     16.00000 ; qtot 0.876
 11737   cA   299    PC   C31 11737     0.166801     12.01000 ; qtot 1.043
 11738   hE   299    PC   H1A 11738     0.078534      1.00800 ; qtot 1.122
 11739   hE   299    PC   H1B 11739     0.078534      1.00800 ; qtot 1.200
 11740   cA   299    PC   C32 11740    -0.170824     12.01000 ; qtot 1.029
 11741   hX   299    PC   H2A 11741     0.136415      1.00800 ; qtot 1.166
 11742   hX   299    PC   H2B 11742     0.136415      1.00800 ; qtot 1.302
 11743   nA   299    PC   N31 11743     0.245262     14.01000 ; qtot 1.548
 11744   cA   299    PC   C33 11744    -0.338973     12.01000 ; qtot 1.209
 11745   hX   299    PC   H3A 11745     0.172230      1.00800 ; qtot 1.381
 11746   hX   299    PC   H3B 11746     0.172230      1.00800 ; qtot 1.553
 11747   hX   299    PC   H3C 11747     0.172230      1.00800 ; qtot 1.725
 11748   cA   299    PC   C34 11748    -0.338973     12.01000 ; qtot 1.386
 11749   hX   299    PC   H4A 11749     0.172230      1.00800 ; qtot 1.559
 11750   hX   299    PC   H4B 11750     0.172230      1.00800 ; qtot 1.731
 11751   hX   299    PC   H4C 11751     0.172230      1.00800 ; qtot 1.903
 11752   cA   299    PC   C35 11752    -0.338973     12.01000 ; qtot 1.564
 11753   hX   299    PC   H5A 11753     0.172230      1.00800 ; qtot 1.736
 11754   hX   299    PC   H5B 11754     0.172230      1.00800 ; qtot 1.908
 11755   hX   299    PC   H5C 11755     0.172230      1.00800 ; qtot 2.081
 11756   oP   299    PC   O33 11756    -0.875812     16.00000 ; qtot 1.205
 11757   oP   299    PC   O34 11757    -0.875812     16.00000 ; qtot 0.329
 11758   oS   299    PC   O21 11758    -0.552948     16.00000 ; qtot -0.224
 11759   cC   299    PC   C21 11759     0.897613     12.01000 ; qtot 0.674
 11760   oC   299    PC   O22 11760    -0.673755     16.00000 ; qtot 0.000
 11761   hL   300    MY  H14T 11761     0.025511      1.00800 ; qtot 0.026
 11762   cD   300    MY  C114 11762    -0.111712     12.01000 ; qtot -0.086
 11763   hL   300    MY  H14R 11763     0.025511      1.00800 ; qtot -0.061
 11764   hL   300    MY  H14S 11764     0.025511      1.00800 ; qtot -0.035
 11765   cD   300    MY  C113 11765     0.017463     12.01000 ; qtot -0.018
 11766   hL   300    MY  H13R 11766     0.007531      1.00800 ; qtot -0.010
 11767   hL   300    MY  H13S 11767     0.007531      1.00800 ; qtot -0.003
 11768   cD   300    MY  C112 11768    -0.028094     12.01000 ; qtot -0.031
 11769   hL   300    MY  H12R 11769     0.017208      1.00800 ; qtot -0.014
 11770   hL   300    MY  H12S 11770     0.017208      1.00800 ; qtot 0.004
 11771   cD   300    MY  C111 11771    -0.031787     12.01000 ; qtot -0.028
 11772   hL   300    MY  H11R 11772     0.012677      1.00800 ; qtot -0.015
 11773   hL   300    MY  H11S 11773     0.012677      1.00800 ; qtot -0.003
 11774   cD   300    MY  C110 11774    -0.021025     12.01000 ; qtot -0.024
 11775   hL   300    MY  H10R 11775     0.010037      1.00800 ; qtot -0.014
 11776   hL   300    MY  H10S 11776     0.010037      1.00800 ; qtot -0.004
 11777   cD   300    MY   C19 11777    -0.014653     12.01000 ; qtot -0.018
 11778   hL   300    MY   H9R 11778     0.010172      1.00800 ; qtot -0.008
 11779   hL   300    MY   H9S 11779     0.010172      1.00800 ; qtot 0.002
 11780   cD   300    MY   C18 11780    -0.026451     12.01000 ; qtot -0.024
 11781   hL   300    MY   H8R 11781     0.011241      1.00800 ; qtot -0.013
 11782   hL   300    MY   H8S 11782     0.011241      1.00800 ; qtot -0.002
 11783   cD   300    MY   C17 11783    -0.004386     12.01000 ; qtot -0.006
 11784   hL   300    MY   H7R 11784     0.006833      1.00800 ; qtot 0.000
 11785   hL   300    MY   H7S 11785     0.006833      1.00800 ; qtot 0.007
 11786   cD   300    MY   C16 11786    -0.027812     12.01000 ; qtot -0.021
 11787   hL   300    MY   H6R 11787     0.011511      1.00800 ; qtot -0.009
 11788   hL   300    MY   H6S 11788     0.011511      1.00800 ; qtot 0.002
 11789   cD   300    MY   C15 11789    -0.016521     12.01000 ; qtot -0.014
 11790   hL   300    MY   H5R 11790     0.010573      1.00800 ; qtot -0.003
 11791   hL   300    MY   H5S 11791     0.010573      1.00800 ; qtot 0.007
 11792   cD   300    MY   C14 11792    -0.026954     12.01000 ; qtot -0.020
 11793   hL   300    MY   H4R 11793     0.020431      1.00800 ; qtot 0.001
 11794   hL   300    MY   H4S 11794     0.020431      1.00800 ; qtot 0.021
 11795   cD   300    MY   C13 11795    -0.002435     12.01000 ; qtot 0.019
 11796   hL   300    MY   H3R 11796     0.018859      1.00800 ; qtot 0.037
 11797   hL   300    MY   H3S 11797     0.018859      1.00800 ; qtot 0.056
 11798   cD   300    MY   C12 11798    -0.164200     12.01000 ; qtot -0.108
 11799   hL   300    MY   H2R 11799     0.053944      1.00800 ; qtot -0.054
 11800   hL   300    MY   H2S 11800     0.053944      1.00800 ; qtot -0.000
 11801   hL   301    MY  H14T 11801     0.025511      1.00800 ; qtot 0.026
 11802   cD   301    MY  C114 11802    -0.111712     12.01000 ; qtot -0.086
 11803   hL   301    MY  H14R 11803     0.025511      1.00800 ; qtot -0.061
 11804   hL   301    MY  H14S 11804     0.025511      1.00800 ; qtot -0.035
 11805   cD   301    MY  C113 11805     0.017463     12.01000 ; qtot -0.018
 11806   hL   301    MY  H13R 11806     0.007531      1.00800 ; qtot -0.010
 11807   hL   301    MY  H13S 11807     0.007531      1.00800 ; qtot -0.003
 11808   cD   301    MY  C112 11808    -0.028094     12.01000 ; qtot -0.031
 11809   hL   301    MY  H12R 11809     0.017208      1.00800 ; qtot -0.014
 11810   hL   301    MY  H12S 11810     0.017208      1.00800 ; qtot 0.004
 11811   cD   301    MY  C111 11811    -0.031787     12.01000 ; qtot -0.028
 11812   hL   301    MY  H11R 11812     0.012677      1.00800 ; qtot -0.015
 11813   hL   301    MY  H11S 11813     0.012677      1.00800 ; qtot -0.003
 11814   cD   301    MY  C110 11814    -0.021025     12.01000 ; qtot -0.024
 11815   hL   301    MY  H10R 11815     0.010037      1.00800 ; qtot -0.014
 11816   hL   301    MY  H10S 11816     0.010037      1.00800 ; qtot -0.004
 11817   cD   301    MY   C19 11817    -0.014653     12.01000 ; qtot -0.018
 11818   hL   301    MY   H9R 11818     0.010172      1.00800 ; qtot -0.008
 11819   hL   301    MY   H9S 11819     0.010172      1.00800 ; qtot 0.002
 11820   cD   301    MY   C18 11820    -0.026451     12.01000 ; qtot -0.024
 11821   hL   301    MY   H8R 11821     0.011241      1.00800 ; qtot -0.013
 11822   hL   301    MY   H8S 11822     0.011241      1.00800 ; qtot -0.002
 11823   cD   301    MY   C17 11823    -0.004386     12.01000 ; qtot -0.006
 11824   hL   301    MY   H7R 11824     0.006833      1.00800 ; qtot 0.000
 11825   hL   301    MY   H7S 11825     0.006833      1.00800 ; qtot 0.007
 11826   cD   301    MY   C16 11826    -0.027812     12.01000 ; qtot -0.021
 11827   hL   301    MY   H6R 11827     0.011511      1.00800 ; qtot -0.009
 11828   hL   301    MY   H6S 11828     0.011511      1.00800 ; qtot 0.002
 11829   cD   301    MY   C15 11829    -0.016521     12.01000 ; qtot -0.014
 11830   hL   301    MY   H5R 11830     0.010573      1.00800 ; qtot -0.003
 11831   hL   301    MY   H5S 11831     0.010573      1.00800 ; qtot 0.007
 11832   cD   301    MY   C14 11832    -0.026954     12.01000 ; qtot -0.020
 11833   hL   301    MY   H4R 11833     0.020431      1.00800 ; qtot 0.001
 11834   hL   301    MY   H4S 11834     0.020431      1.00800 ; qtot 0.021
 11835   cD   301    MY   C13 11835    -0.002435     12.01000 ; qtot 0.019
 11836   hL   301    MY   H3R 11836     0.018859      1.00800 ; qtot 0.037
 11837   hL   301    MY   H3S 11837     0.018859      1.00800 ; qtot 0.056
 11838   cD   301    MY   C12 11838    -0.164200     12.01000 ; qtot -0.108
 11839   hL   301    MY   H2R 11839     0.053944      1.00800 ; qtot -0.054
 11840   hL   301    MY   H2S 11840     0.053944      1.00800 ; qtot -0.000
 11841   cC   302    PC   C11 11841     0.910403     12.01000 ; qtot 0.910
 11842   oC   302    PC   O12 11842    -0.671566     16.00000 ; qtot 0.239
 11843   oS   302    PC   O11 11843    -0.575489     16.00000 ; qtot -0.337
 11844   cA   302    PC    C1 11844     0.196939     12.01000 ; qtot -0.140
 11845   hE   302    PC    HR 11845     0.070469      1.00800 ; qtot -0.069
 11846   hE   302    PC    HS 11846     0.070469      1.00800 ; qtot 0.001
 11847   cA   302    PC    C2 11847     0.281242     12.01000 ; qtot 0.282
 11848   hE   302    PC    HX 11848     0.063253      1.00800 ; qtot 0.346
 11849   cA   302    PC    C3 11849     0.017459     12.01000 ; qtot 0.363
 11850   hE   302    PC    HA 11850     0.095591      1.00800 ; qtot 0.459
 11851   hE   302    PC    HB 11851     0.095591      1.00800 ; qtot 0.554
 11852   oT   302    PC   O31 11852    -0.509480     16.00000 ; qtot 0.045
 11853   pA   302    PC   P31 11853     1.339721     30.97000 ; qtot 1.385
 11854   oT   302    PC   O32 11854    -0.508176     16.00000 ; qtot 0.876
 11855   cA   302    PC   C31 11855     0.166801     12.01000 ; qtot 1.043
 11856   hE   302    PC   H1A 11856     0.078534      1.00800 ; qtot 1.122
 11857   hE   302    PC   H1B 11857     0.078534      1.00800 ; qtot 1.200
 11858   cA   302    PC   C32 11858    -0.170824     12.01000 ; qtot 1.029
 11859   hX   302    PC   H2A 11859     0.136415      1.00800 ; qtot 1.166
 11860   hX   302    PC   H2B 11860     0.136415      1.00800 ; qtot 1.302
 11861   nA   302    PC   N31 11861     0.245262     14.01000 ; qtot 1.548
 11862   cA   302    PC   C33 11862    -0.338973     12.01000 ; qtot 1.209
 11863   hX   302    PC   H3A 11863     0.172230      1.00800 ; qtot 1.381
 11864   hX   302    PC   H3B 11864     0.172230      1.00800 ; qtot 1.553
 11865   hX   302    PC   H3C 11865     0.172230      1.00800 ; qtot 1.725
 11866   cA   302    PC   C34 11866    -0.338973     12.01000 ; qtot 1.386
 11867   hX   302    PC   H4A 11867     0.172230      1.00800 ; qtot 1.559
 11868   hX   302    PC   H4B 11868     0.172230      1.00800 ; qtot 1.731
 11869   hX   302    PC   H4C 11869     0.172230      1.00800 ; qtot 1.903
 11870   cA   302    PC   C35 11870    -0.338973     12.01000 ; qtot 1.564
 11871   hX   302    PC   H5A 11871     0.172230      1.00800 ; qtot 1.736
 11872   hX   302    PC   H5B 11872     0.172230      1.00800 ; qtot 1.908
 11873   hX   302    PC   H5C 11873     0.172230      1.00800 ; qtot 2.081
 11874   oP   302    PC   O33 11874    -0.875812     16.00000 ; qtot 1.205
 11875   oP   302    PC   O34 11875    -0.875812     16.00000 ; qtot 0.329
 11876   oS   302    PC   O21 11876    -0.552948     16.00000 ; qtot -0.224
 11877   cC   302    PC   C21 11877     0.897613     12.01000 ; qtot 0.674
 11878   oC   302    PC   O22 11878    -0.673755     16.00000 ; qtot 0.000
 11879   hL   303    MY  H14T 11879     0.025511      1.00800 ; qtot 0.026
 11880   cD   303    MY  C114 11880    -0.111712     12.01000 ; qtot -0.086
 11881   hL   303    MY  H14R 11881     0.025511      1.00800 ; qtot -0.061
 11882   hL   303    MY  H14S 11882     0.025511      1.00800 ; qtot -0.035
 11883   cD   303    MY  C113 11883     0.017463     12.01000 ; qtot -0.018
 11884   hL   303    MY  H13R 11884     0.007531      1.00800 ; qtot -0.010
 11885   hL   303    MY  H13S 11885     0.007531      1.00800 ; qtot -0.003
 11886   cD   303    MY  C112 11886    -0.028094     12.01000 ; qtot -0.031
 11887   hL   303    MY  H12R 11887     0.017208      1.00800 ; qtot -0.014
 11888   hL   303    MY  H12S 11888     0.017208      1.00800 ; qtot 0.004
 11889   cD   303    MY  C111 11889    -0.031787     12.01000 ; qtot -0.028
 11890   hL   303    MY  H11R 11890     0.012677      1.00800 ; qtot -0.015
 11891   hL   303    MY  H11S 11891     0.012677      1.00800 ; qtot -0.003
 11892   cD   303    MY  C110 11892    -0.021025     12.01000 ; qtot -0.024
 11893   hL   303    MY  H10R 11893     0.010037      1.00800 ; qtot -0.014
 11894   hL   303    MY  H10S 11894     0.010037      1.00800 ; qtot -0.004
 11895   cD   303    MY   C19 11895    -0.014653     12.01000 ; qtot -0.018
 11896   hL   303    MY   H9R 11896     0.010172      1.00800 ; qtot -0.008
 11897   hL   303    MY   H9S 11897     0.010172      1.00800 ; qtot 0.002
 11898   cD   303    MY   C18 11898    -0.026451     12.01000 ; qtot -0.024
 11899   hL   303    MY   H8R 11899     0.011241      1.00800 ; qtot -0.013
 11900   hL   303    MY   H8S 11900     0.011241      1.00800 ; qtot -0.002
 11901   cD   303    MY   C17 11901    -0.004386     12.01000 ; qtot -0.006
 11902   hL   303    MY   H7R 11902     0.006833      1.00800 ; qtot 0.000
 11903   hL   303    MY   H7S 11903     0.006833      1.00800 ; qtot 0.007
 11904   cD   303    MY   C16 11904    -0.027812     12.01000 ; qtot -0.021
 11905   hL   303    MY   H6R 11905     0.011511      1.00800 ; qtot -0.009
 11906   hL   303    MY   H6S 11906     0.011511      1.00800 ; qtot 0.002
 11907   cD   303    MY   C15 11907    -0.016521     12.01000 ; qtot -0.014
 11908   hL   303    MY   H5R 11908     0.010573      1.00800 ; qtot -0.003
 11909   hL   303    MY   H5S 11909     0.010573      1.00800 ; qtot 0.007
 11910   cD   303    MY   C14 11910    -0.026954     12.01000 ; qtot -0.020
 11911   hL   303    MY   H4R 11911     0.020431      1.00800 ; qtot 0.001
 11912   hL   303    MY   H4S 11912     0.020431      1.00800 ; qtot 0.021
 11913   cD   303    MY   C13 11913    -0.002435     12.01000 ; qtot 0.019
 11914   hL   303    MY   H3R 11914     0.018859      1.00800 ; qtot 0.037
 11915   hL   303    MY   H3S 11915     0.018859      1.00800 ; qtot 0.056
 11916   cD   303    MY   C12 11916    -0.164200     12.01000 ; qtot -0.108
 11917   hL   303    MY   H2R 11917     0.053944      1.00800 ; qtot -0.054
 11918   hL   303    MY   H2S 11918     0.053944      1.00800 ; qtot -0.000
 11919   hL   304    MY  H14T 11919     0.025511      1.00800 ; qtot 0.026
 11920   cD   304    MY  C114 11920    -0.111712     12.01000 ; qtot -0.086
 11921   hL   304    MY  H14R 11921     0.025511      1.00800 ; qtot -0.061
 11922   hL   304    MY  H14S 11922     0.025511      1.00800 ; qtot -0.035
 11923   cD   304    MY  C113 11923     0.017463     12.01000 ; qtot -0.018
 11924   hL   304    MY  H13R 11924     0.007531      1.00800 ; qtot -0.010
 11925   hL   304    MY  H13S 11925     0.007531      1.00800 ; qtot -0.003
 11926   cD   304    MY  C112 11926    -0.028094     12.01000 ; qtot -0.031
 11927   hL   304    MY  H12R 11927     0.017208      1.00800 ; qtot -0.014
 11928   hL   304    MY  H12S 11928     0.017208      1.00800 ; qtot 0.004
 11929   cD   304    MY  C111 11929    -0.031787     12.01000 ; qtot -0.028
 11930   hL   304    MY  H11R 11930     0.012677      1.00800 ; qtot -0.015
 11931   hL   304    MY  H11S 11931     0.012677      1.00800 ; qtot -0.003
 11932   cD   304    MY  C110 11932    -0.021025     12.01000 ; qtot -0.024
 11933   hL   304    MY  H10R 11933     0.010037      1.00800 ; qtot -0.014
 11934   hL   304    MY  H10S 11934     0.010037      1.00800 ; qtot -0.004
 11935   cD   304    MY   C19 11935    -0.014653     12.01000 ; qtot -0.018
 11936   hL   304    MY   H9R 11936     0.010172      1.00800 ; qtot -0.008
 11937   hL   304    MY   H9S 11937     0.010172      1.00800 ; qtot 0.002
 11938   cD   304    MY   C18 11938    -0.026451     12.01000 ; qtot -0.024
 11939   hL   304    MY   H8R 11939     0.011241      1.00800 ; qtot -0.013
 11940   hL   304    MY   H8S 11940     0.011241      1.00800 ; qtot -0.002
 11941   cD   304    MY   C17 11941    -0.004386     12.01000 ; qtot -0.006
 11942   hL   304    MY   H7R 11942     0.006833      1.00800 ; qtot 0.000
 11943   hL   304    MY   H7S 11943     0.006833      1.00800 ; qtot 0.007
 11944   cD   304    MY   C16 11944    -0.027812     12.01000 ; qtot -0.021
 11945   hL   304    MY   H6R 11945     0.011511      1.00800 ; qtot -0.009
 11946   hL   304    MY   H6S 11946     0.011511      1.00800 ; qtot 0.002
 11947   cD   304    MY   C15 11947    -0.016521     12.01000 ; qtot -0.014
 11948   hL   304    MY   H5R 11948     0.010573      1.00800 ; qtot -0.003
 11949   hL   304    MY   H5S 11949     0.010573      1.00800 ; qtot 0.007
 11950   cD   304    MY   C14 11950    -0.026954     12.01000 ; qtot -0.020
 11951   hL   304    MY   H4R 11951     0.020431      1.00800 ; qtot 0.001
 11952   hL   304    MY   H4S 11952     0.020431      1.00800 ; qtot 0.021
 11953   cD   304    MY   C13 11953    -0.002435     12.01000 ; qtot 0.019
 11954   hL   304    MY   H3R 11954     0.018859      1.00800 ; qtot 0.037
 11955   hL   304    MY   H3S 11955     0.018859      1.00800 ; qtot 0.056
 11956   cD   304    MY   C12 11956    -0.164200     12.01000 ; qtot -0.108
 11957   hL   304    MY   H2R 11957     0.053944      1.00800 ; qtot -0.054
 11958   hL   304    MY   H2S 11958     0.053944      1.00800 ; qtot -0.000
 11959   cC   305    PC   C11 11959     0.910403     12.01000 ; qtot 0.910
 11960   oC   305    PC   O12 11960    -0.671566     16.00000 ; qtot 0.239
 11961   oS   305    PC   O11 11961    -0.575489     16.00000 ; qtot -0.337
 11962   cA   305    PC    C1 11962     0.196939     12.01000 ; qtot -0.140
 11963   hE   305    PC    HR 11963     0.070469      1.00800 ; qtot -0.069
 11964   hE   305    PC    HS 11964     0.070469      1.00800 ; qtot 0.001
 11965   cA   305    PC    C2 11965     0.281242     12.01000 ; qtot 0.282
 11966   hE   305    PC    HX 11966     0.063253      1.00800 ; qtot 0.346
 11967   cA   305    PC    C3 11967     0.017459     12.01000 ; qtot 0.363
 11968   hE   305    PC    HA 11968     0.095591      1.00800 ; qtot 0.459
 11969   hE   305    PC    HB 11969     0.095591      1.00800 ; qtot 0.554
 11970   oT   305    PC   O31 11970    -0.509480     16.00000 ; qtot 0.045
 11971   pA   305    PC   P31 11971     1.339721     30.97000 ; qtot 1.385
 11972   oT   305    PC   O32 11972    -0.508176     16.00000 ; qtot 0.876
 11973   cA   305    PC   C31 11973     0.166801     12.01000 ; qtot 1.043
 11974   hE   305    PC   H1A 11974     0.078534      1.00800 ; qtot 1.122
 11975   hE   305    PC   H1B 11975     0.078534      1.00800 ; qtot 1.200
 11976   cA   305    PC   C32 11976    -0.170824     12.01000 ; qtot 1.029
 11977   hX   305    PC   H2A 11977     0.136415      1.00800 ; qtot 1.166
 11978   hX   305    PC   H2B 11978     0.136415      1.00800 ; qtot 1.302
 11979   nA   305    PC   N31 11979     0.245262     14.01000 ; qtot 1.548
 11980   cA   305    PC   C33 11980    -0.338973     12.01000 ; qtot 1.209
 11981   hX   305    PC   H3A 11981     0.172230      1.00800 ; qtot 1.381
 11982   hX   305    PC   H3B 11982     0.172230      1.00800 ; qtot 1.553
 11983   hX   305    PC   H3C 11983     0.172230      1.00800 ; qtot 1.725
 11984   cA   305    PC   C34 11984    -0.338973     12.01000 ; qtot 1.386
 11985   hX   305    PC   H4A 11985     0.172230      1.00800 ; qtot 1.559
 11986   hX   305    PC   H4B 11986     0.172230      1.00800 ; qtot 1.731
 11987   hX   305    PC   H4C 11987     0.172230      1.00800 ; qtot 1.903
 11988   cA   305    PC   C35 11988    -0.338973     12.01000 ; qtot 1.564
 11989   hX   305    PC   H5A 11989     0.172230      1.00800 ; qtot 1.736
 11990   hX   305    PC   H5B 11990     0.172230      1.00800 ; qtot 1.908
 11991   hX   305    PC   H5C 11991     0.172230      1.00800 ; qtot 2.081
 11992   oP   305    PC   O33 11992    -0.875812     16.00000 ; qtot 1.205
 11993   oP   305    PC   O34 11993    -0.875812     16.00000 ; qtot 0.329
 11994   oS   305    PC   O21 11994    -0.552948     16.00000 ; qtot -0.224
 11995   cC   305    PC   C21 11995     0.897613     12.01000 ; qtot 0.674
 11996   oC   305    PC   O22 11996    -0.673755     16.00000 ; qtot 0.000
 11997   hL   306    MY  H14T 11997     0.025511      1.00800 ; qtot 0.026
 11998   cD   306    MY  C114 11998    -0.111712     12.01000 ; qtot -0.086
 11999   hL   306    MY  H14R 11999     0.025511      1.00800 ; qtot -0.061
 12000   hL   306    MY  H14S 12000     0.025511      1.00800 ; qtot -0.035
 12001   cD   306    MY  C113 12001     0.017463     12.01000 ; qtot -0.018
 12002   hL   306    MY  H13R 12002     0.007531      1.00800 ; qtot -0.010
 12003   hL   306    MY  H13S 12003     0.007531      1.00800 ; qtot -0.003
 12004   cD   306    MY  C112 12004    -0.028094     12.01000 ; qtot -0.031
 12005   hL   306    MY  H12R 12005     0.017208      1.00800 ; qtot -0.014
 12006   hL   306    MY  H12S 12006     0.017208      1.00800 ; qtot 0.004
 12007   cD   306    MY  C111 12007    -0.031787     12.01000 ; qtot -0.028
 12008   hL   306    MY  H11R 12008     0.012677      1.00800 ; qtot -0.015
 12009   hL   306    MY  H11S 12009     0.012677      1.00800 ; qtot -0.003
 12010   cD   306    MY  C110 12010    -0.021025     12.01000 ; qtot -0.024
 12011   hL   306    MY  H10R 12011     0.010037      1.00800 ; qtot -0.014
 12012   hL   306    MY  H10S 12012     0.010037      1.00800 ; qtot -0.004
 12013   cD   306    MY   C19 12013    -0.014653     12.01000 ; qtot -0.018
 12014   hL   306    MY   H9R 12014     0.010172      1.00800 ; qtot -0.008
 12015   hL   306    MY   H9S 12015     0.010172      1.00800 ; qtot 0.002
 12016   cD   306    MY   C18 12016    -0.026451     12.01000 ; qtot -0.024
 12017   hL   306    MY   H8R 12017     0.011241      1.00800 ; qtot -0.013
 12018   hL   306    MY   H8S 12018     0.011241      1.00800 ; qtot -0.002
 12019   cD   306    MY   C17 12019    -0.004386     12.01000 ; qtot -0.006
 12020   hL   306    MY   H7R 12020     0.006833      1.00800 ; qtot 0.000
 12021   hL   306    MY   H7S 12021     0.006833      1.00800 ; qtot 0.007
 12022   cD   306    MY   C16 12022    -0.027812     12.01000 ; qtot -0.021
 12023   hL   306    MY   H6R 12023     0.011511      1.00800 ; qtot -0.009
 12024   hL   306    MY   H6S 12024     0.011511      1.00800 ; qtot 0.002
 12025   cD   306    MY   C15 12025    -0.016521     12.01000 ; qtot -0.014
 12026   hL   306    MY   H5R 12026     0.010573      1.00800 ; qtot -0.003
 12027   hL   306    MY   H5S 12027     0.010573      1.00800 ; qtot 0.007
 12028   cD   306    MY   C14 12028    -0.026954     12.01000 ; qtot -0.020
 12029   hL   306    MY   H4R 12029     0.020431      1.00800 ; qtot 0.001
 12030   hL   306    MY   H4S 12030     0.020431      1.00800 ; qtot 0.021
 12031   cD   306    MY   C13 12031    -0.002435     12.01000 ; qtot 0.019
 12032   hL   306    MY   H3R 12032     0.018859      1.00800 ; qtot 0.037
 12033   hL   306    MY   H3S 12033     0.018859      1.00800 ; qtot 0.056
 12034   cD   306    MY   C12 12034    -0.164200     12.01000 ; qtot -0.108
 12035   hL   306    MY   H2R 12035     0.053944      1.00800 ; qtot -0.054
 12036   hL   306    MY   H2S 12036     0.053944      1.00800 ; qtot -0.000
 12037   hL   307    MY  H14T 12037     0.025511      1.00800 ; qtot 0.026
 12038   cD   307    MY  C114 12038    -0.111712     12.01000 ; qtot -0.086
 12039   hL   307    MY  H14R 12039     0.025511      1.00800 ; qtot -0.061
 12040   hL   307    MY  H14S 12040     0.025511      1.00800 ; qtot -0.035
 12041   cD   307    MY  C113 12041     0.017463     12.01000 ; qtot -0.018
 12042   hL   307    MY  H13R 12042     0.007531      1.00800 ; qtot -0.010
 12043   hL   307    MY  H13S 12043     0.007531      1.00800 ; qtot -0.003
 12044   cD   307    MY  C112 12044    -0.028094     12.01000 ; qtot -0.031
 12045   hL   307    MY  H12R 12045     0.017208      1.00800 ; qtot -0.014
 12046   hL   307    MY  H12S 12046     0.017208      1.00800 ; qtot 0.004
 12047   cD   307    MY  C111 12047    -0.031787     12.01000 ; qtot -0.028
 12048   hL   307    MY  H11R 12048     0.012677      1.00800 ; qtot -0.015
 12049   hL   307    MY  H11S 12049     0.012677      1.00800 ; qtot -0.003
 12050   cD   307    MY  C110 12050    -0.021025     12.01000 ; qtot -0.024
 12051   hL   307    MY  H10R 12051     0.010037      1.00800 ; qtot -0.014
 12052   hL   307    MY  H10S 12052     0.010037      1.00800 ; qtot -0.004
 12053   cD   307    MY   C19 12053    -0.014653     12.01000 ; qtot -0.018
 12054   hL   307    MY   H9R 12054     0.010172      1.00800 ; qtot -0.008
 12055   hL   307    MY   H9S 12055     0.010172      1.00800 ; qtot 0.002
 12056   cD   307    MY   C18 12056    -0.026451     12.01000 ; qtot -0.024
 12057   hL   307    MY   H8R 12057     0.011241      1.00800 ; qtot -0.013
 12058   hL   307    MY   H8S 12058     0.011241      1.00800 ; qtot -0.002
 12059   cD   307    MY   C17 12059    -0.004386     12.01000 ; qtot -0.006
 12060   hL   307    MY   H7R 12060     0.006833      1.00800 ; qtot 0.000
 12061   hL   307    MY   H7S 12061     0.006833      1.00800 ; qtot 0.007
 12062   cD   307    MY   C16 12062    -0.027812     12.01000 ; qtot -0.021
 12063   hL   307    MY   H6R 12063     0.011511      1.00800 ; qtot -0.009
 12064   hL   307    MY   H6S 12064     0.011511      1.00800 ; qtot 0.002
 12065   cD   307    MY   C15 12065    -0.016521     12.01000 ; qtot -0.014
 12066   hL   307    MY   H5R 12066     0.010573      1.00800 ; qtot -0.003
 12067   hL   307    MY   H5S 12067     0.010573      1.00800 ; qtot 0.007
 12068   cD   307    MY   C14 12068    -0.026954     12.01000 ; qtot -0.020
 12069   hL   307    MY   H4R 12069     0.020431      1.00800 ; qtot 0.001
 12070   hL   307    MY   H4S 12070     0.020431      1.00800 ; qtot 0.021
 12071   cD   307    MY   C13 12071    -0.002435     12.01000 ; qtot 0.019
 12072   hL   307    MY   H3R 12072     0.018859      1.00800 ; qtot 0.037
 12073   hL   307    MY   H3S 12073     0.018859      1.00800 ; qtot 0.056
 12074   cD   307    MY   C12 12074    -0.164200     12.01000 ; qtot -0.108
 12075   hL   307    MY   H2R 12075     0.053944      1.00800 ; qtot -0.054
 12076   hL   307    MY   H2S 12076     0.053944      1.00800 ; qtot -0.000
 12077   cC   308    PC   C11 12077     0.910403     12.01000 ; qtot 0.910
 12078   oC   308    PC   O12 12078    -0.671566     16.00000 ; qtot 0.239
 12079   oS   308    PC   O11 12079    -0.575489     16.00000 ; qtot -0.337
 12080   cA   308    PC    C1 12080     0.196939     12.01000 ; qtot -0.140
 12081   hE   308    PC    HR 12081     0.070469      1.00800 ; qtot -0.069
 12082   hE   308    PC    HS 12082     0.070469      1.00800 ; qtot 0.001
 12083   cA   308    PC    C2 12083     0.281242     12.01000 ; qtot 0.282
 12084   hE   308    PC    HX 12084     0.063253      1.00800 ; qtot 0.346
 12085   cA   308    PC    C3 12085     0.017459     12.01000 ; qtot 0.363
 12086   hE   308    PC    HA 12086     0.095591      1.00800 ; qtot 0.459
 12087   hE   308    PC    HB 12087     0.095591      1.00800 ; qtot 0.554
 12088   oT   308    PC   O31 12088    -0.509480     16.00000 ; qtot 0.045
 12089   pA   308    PC   P31 12089     1.339721     30.97000 ; qtot 1.385
 12090   oT   308    PC   O32 12090    -0.508176     16.00000 ; qtot 0.876
 12091   cA   308    PC   C31 12091     0.166801     12.01000 ; qtot 1.043
 12092   hE   308    PC   H1A 12092     0.078534      1.00800 ; qtot 1.122
 12093   hE   308    PC   H1B 12093     0.078534      1.00800 ; qtot 1.200
 12094   cA   308    PC   C32 12094    -0.170824     12.01000 ; qtot 1.029
 12095   hX   308    PC   H2A 12095     0.136415      1.00800 ; qtot 1.166
 12096   hX   308    PC   H2B 12096     0.136415      1.00800 ; qtot 1.302
 12097   nA   308    PC   N31 12097     0.245262     14.01000 ; qtot 1.548
 12098   cA   308    PC   C33 12098    -0.338973     12.01000 ; qtot 1.209
 12099   hX   308    PC   H3A 12099     0.172230      1.00800 ; qtot 1.381
 12100   hX   308    PC   H3B 12100     0.172230      1.00800 ; qtot 1.553
 12101   hX   308    PC   H3C 12101     0.172230      1.00800 ; qtot 1.725
 12102   cA   308    PC   C34 12102    -0.338973     12.01000 ; qtot 1.386
 12103   hX   308    PC   H4A 12103     0.172230      1.00800 ; qtot 1.559
 12104   hX   308    PC   H4B 12104     0.172230      1.00800 ; qtot 1.731
 12105   hX   308    PC   H4C 12105     0.172230      1.00800 ; qtot 1.903
 12106   cA   308    PC   C35 12106    -0.338973     12.01000 ; qtot 1.564
 12107   hX   308    PC   H5A 12107     0.172230      1.00800 ; qtot 1.736
 12108   hX   308    PC   H5B 12108     0.172230      1.00800 ; qtot 1.908
 12109   hX   308    PC   H5C 12109     0.172230      1.00800 ; qtot 2.081
 12110   oP   308    PC   O33 12110    -0.875812     16.00000 ; qtot 1.205
 12111   oP   308    PC   O34 12111    -0.875812     16.00000 ; qtot 0.329
 12112   oS   308    PC   O21 12112    -0.552948     16.00000 ; qtot -0.224
 12113   cC   308    PC   C21 12113     0.897613     12.01000 ; qtot 0.674
 12114   oC   308    PC   O22 12114    -0.673755     16.00000 ; qtot 0.000
 12115   hL   309    MY  H14T 12115     0.025511      1.00800 ; qtot 0.026
 12116   cD   309    MY  C114 12116    -0.111712     12.01000 ; qtot -0.086
 12117   hL   309    MY  H14R 12117     0.025511      1.00800 ; qtot -0.061
 12118   hL   309    MY  H14S 12118     0.025511      1.00800 ; qtot -0.035
 12119   cD   309    MY  C113 12119     0.017463     12.01000 ; qtot -0.018
 12120   hL   309    MY  H13R 12120     0.007531      1.00800 ; qtot -0.010
 12121   hL   309    MY  H13S 12121     0.007531      1.00800 ; qtot -0.003
 12122   cD   309    MY  C112 12122    -0.028094     12.01000 ; qtot -0.031
 12123   hL   309    MY  H12R 12123     0.017208      1.00800 ; qtot -0.014
 12124   hL   309    MY  H12S 12124     0.017208      1.00800 ; qtot 0.004
 12125   cD   309    MY  C111 12125    -0.031787     12.01000 ; qtot -0.028
 12126   hL   309    MY  H11R 12126     0.012677      1.00800 ; qtot -0.015
 12127   hL   309    MY  H11S 12127     0.012677      1.00800 ; qtot -0.003
 12128   cD   309    MY  C110 12128    -0.021025     12.01000 ; qtot -0.024
 12129   hL   309    MY  H10R 12129     0.010037      1.00800 ; qtot -0.014
 12130   hL   309    MY  H10S 12130     0.010037      1.00800 ; qtot -0.004
 12131   cD   309    MY   C19 12131    -0.014653     12.01000 ; qtot -0.018
 12132   hL   309    MY   H9R 12132     0.010172      1.00800 ; qtot -0.008
 12133   hL   309    MY   H9S 12133     0.010172      1.00800 ; qtot 0.002
 12134   cD   309    MY   C18 12134    -0.026451     12.01000 ; qtot -0.024
 12135   hL   309    MY   H8R 12135     0.011241      1.00800 ; qtot -0.013
 12136   hL   309    MY   H8S 12136     0.011241      1.00800 ; qtot -0.002
 12137   cD   309    MY   C17 12137    -0.004386     12.01000 ; qtot -0.006
 12138   hL   309    MY   H7R 12138     0.006833      1.00800 ; qtot 0.000
 12139   hL   309    MY   H7S 12139     0.006833      1.00800 ; qtot 0.007
 12140   cD   309    MY   C16 12140    -0.027812     12.01000 ; qtot -0.021
 12141   hL   309    MY   H6R 12141     0.011511      1.00800 ; qtot -0.009
 12142   hL   309    MY   H6S 12142     0.011511      1.00800 ; qtot 0.002
 12143   cD   309    MY   C15 12143    -0.016521     12.01000 ; qtot -0.014
 12144   hL   309    MY   H5R 12144     0.010573      1.00800 ; qtot -0.003
 12145   hL   309    MY   H5S 12145     0.010573      1.00800 ; qtot 0.007
 12146   cD   309    MY   C14 12146    -0.026954     12.01000 ; qtot -0.020
 12147   hL   309    MY   H4R 12147     0.020431      1.00800 ; qtot 0.001
 12148   hL   309    MY   H4S 12148     0.020431      1.00800 ; qtot 0.021
 12149   cD   309    MY   C13 12149    -0.002435     12.01000 ; qtot 0.019
 12150   hL   309    MY   H3R 12150     0.018859      1.00800 ; qtot 0.037
 12151   hL   309    MY   H3S 12151     0.018859      1.00800 ; qtot 0.056
 12152   cD   309    MY   C12 12152    -0.164200     12.01000 ; qtot -0.108
 12153   hL   309    MY   H2R 12153     0.053944      1.00800 ; qtot -0.054
 12154   hL   309    MY   H2S 12154     0.053944      1.00800 ; qtot -0.000
 12155   hL   310    MY  H14T 12155     0.025511      1.00800 ; qtot 0.026
 12156   cD   310    MY  C114 12156    -0.111712     12.01000 ; qtot -0.086
 12157   hL   310    MY  H14R 12157     0.025511      1.00800 ; qtot -0.061
 12158   hL   310    MY  H14S 12158     0.025511      1.00800 ; qtot -0.035
 12159   cD   310    MY  C113 12159     0.017463     12.01000 ; qtot -0.018
 12160   hL   310    MY  H13R 12160     0.007531      1.00800 ; qtot -0.010
 12161   hL   310    MY  H13S 12161     0.007531      1.00800 ; qtot -0.003
 12162   cD   310    MY  C112 12162    -0.028094     12.01000 ; qtot -0.031
 12163   hL   310    MY  H12R 12163     0.017208      1.00800 ; qtot -0.014
 12164   hL   310    MY  H12S 12164     0.017208      1.00800 ; qtot 0.004
 12165   cD   310    MY  C111 12165    -0.031787     12.01000 ; qtot -0.028
 12166   hL   310    MY  H11R 12166     0.012677      1.00800 ; qtot -0.015
 12167   hL   310    MY  H11S 12167     0.012677      1.00800 ; qtot -0.003
 12168   cD   310    MY  C110 12168    -0.021025     12.01000 ; qtot -0.024
 12169   hL   310    MY  H10R 12169     0.010037      1.00800 ; qtot -0.014
 12170   hL   310    MY  H10S 12170     0.010037      1.00800 ; qtot -0.004
 12171   cD   310    MY   C19 12171    -0.014653     12.01000 ; qtot -0.018
 12172   hL   310    MY   H9R 12172     0.010172      1.00800 ; qtot -0.008
 12173   hL   310    MY   H9S 12173     0.010172      1.00800 ; qtot 0.002
 12174   cD   310    MY   C18 12174    -0.026451     12.01000 ; qtot -0.024
 12175   hL   310    MY   H8R 12175     0.011241      1.00800 ; qtot -0.013
 12176   hL   310    MY   H8S 12176     0.011241      1.00800 ; qtot -0.002
 12177   cD   310    MY   C17 12177    -0.004386     12.01000 ; qtot -0.006
 12178   hL   310    MY   H7R 12178     0.006833      1.00800 ; qtot 0.000
 12179   hL   310    MY   H7S 12179     0.006833      1.00800 ; qtot 0.007
 12180   cD   310    MY   C16 12180    -0.027812     12.01000 ; qtot -0.021
 12181   hL   310    MY   H6R 12181     0.011511      1.00800 ; qtot -0.009
 12182   hL   310    MY   H6S 12182     0.011511      1.00800 ; qtot 0.002
 12183   cD   310    MY   C15 12183    -0.016521     12.01000 ; qtot -0.014
 12184   hL   310    MY   H5R 12184     0.010573      1.00800 ; qtot -0.003
 12185   hL   310    MY   H5S 12185     0.010573      1.00800 ; qtot 0.007
 12186   cD   310    MY   C14 12186    -0.026954     12.01000 ; qtot -0.020
 12187   hL   310    MY   H4R 12187     0.020431      1.00800 ; qtot 0.001
 12188   hL   310    MY   H4S 12188     0.020431      1.00800 ; qtot 0.021
 12189   cD   310    MY   C13 12189    -0.002435     12.01000 ; qtot 0.019
 12190   hL   310    MY   H3R 12190     0.018859      1.00800 ; qtot 0.037
 12191   hL   310    MY   H3S 12191     0.018859      1.00800 ; qtot 0.056
 12192   cD   310    MY   C12 12192    -0.164200     12.01000 ; qtot -0.108
 12193   hL   310    MY   H2R 12193     0.053944      1.00800 ; qtot -0.054
 12194   hL   310    MY   H2S 12194     0.053944      1.00800 ; qtot -0.000
 12195   cC   311    PC   C11 12195     0.910403     12.01000 ; qtot 0.910
 12196   oC   311    PC   O12 12196    -0.671566     16.00000 ; qtot 0.239
 12197   oS   311    PC   O11 12197    -0.575489     16.00000 ; qtot -0.337
 12198   cA   311    PC    C1 12198     0.196939     12.01000 ; qtot -0.140
 12199   hE   311    PC    HR 12199     0.070469      1.00800 ; qtot -0.069
 12200   hE   311    PC    HS 12200     0.070469      1.00800 ; qtot 0.001
 12201   cA   311    PC    C2 12201     0.281242     12.01000 ; qtot 0.282
 12202   hE   311    PC    HX 12202     0.063253      1.00800 ; qtot 0.346
 12203   cA   311    PC    C3 12203     0.017459     12.01000 ; qtot 0.363
 12204   hE   311    PC    HA 12204     0.095591      1.00800 ; qtot 0.459
 12205   hE   311    PC    HB 12205     0.095591      1.00800 ; qtot 0.554
 12206   oT   311    PC   O31 12206    -0.509480     16.00000 ; qtot 0.045
 12207   pA   311    PC   P31 12207     1.339721     30.97000 ; qtot 1.385
 12208   oT   311    PC   O32 12208    -0.508176     16.00000 ; qtot 0.876
 12209   cA   311    PC   C31 12209     0.166801     12.01000 ; qtot 1.043
 12210   hE   311    PC   H1A 12210     0.078534      1.00800 ; qtot 1.122
 12211   hE   311    PC   H1B 12211     0.078534      1.00800 ; qtot 1.200
 12212   cA   311    PC   C32 12212    -0.170824     12.01000 ; qtot 1.029
 12213   hX   311    PC   H2A 12213     0.136415      1.00800 ; qtot 1.166
 12214   hX   311    PC   H2B 12214     0.136415      1.00800 ; qtot 1.302
 12215   nA   311    PC   N31 12215     0.245262     14.01000 ; qtot 1.548
 12216   cA   311    PC   C33 12216    -0.338973     12.01000 ; qtot 1.209
 12217   hX   311    PC   H3A 12217     0.172230      1.00800 ; qtot 1.381
 12218   hX   311    PC   H3B 12218     0.172230      1.00800 ; qtot 1.553
 12219   hX   311    PC   H3C 12219     0.172230      1.00800 ; qtot 1.725
 12220   cA   311    PC   C34 12220    -0.338973     12.01000 ; qtot 1.386
 12221   hX   311    PC   H4A 12221     0.172230      1.00800 ; qtot 1.559
 12222   hX   311    PC   H4B 12222     0.172230      1.00800 ; qtot 1.731
 12223   hX   311    PC   H4C 12223     0.172230      1.00800 ; qtot 1.903
 12224   cA   311    PC   C35 12224    -0.338973     12.01000 ; qtot 1.564
 12225   hX   311    PC   H5A 12225     0.172230      1.00800 ; qtot 1.736
 12226   hX   311    PC   H5B 12226     0.172230      1.00800 ; qtot 1.908
 12227   hX   311    PC   H5C 12227     0.172230      1.00800 ; qtot 2.081
 12228   oP   311    PC   O33 12228    -0.875812     16.00000 ; qtot 1.205
 12229   oP   311    PC   O34 12229    -0.875812     16.00000 ; qtot 0.329
 12230   oS   311    PC   O21 12230    -0.552948     16.00000 ; qtot -0.224
 12231   cC   311    PC   C21 12231     0.897613     12.01000 ; qtot 0.674
 12232   oC   311    PC   O22 12232    -0.673755     16.00000 ; qtot 0.000
 12233   hL   312    MY  H14T 12233     0.025511      1.00800 ; qtot 0.026
 12234   cD   312    MY  C114 12234    -0.111712     12.01000 ; qtot -0.086
 12235   hL   312    MY  H14R 12235     0.025511      1.00800 ; qtot -0.061
 12236   hL   312    MY  H14S 12236     0.025511      1.00800 ; qtot -0.035
 12237   cD   312    MY  C113 12237     0.017463     12.01000 ; qtot -0.018
 12238   hL   312    MY  H13R 12238     0.007531      1.00800 ; qtot -0.010
 12239   hL   312    MY  H13S 12239     0.007531      1.00800 ; qtot -0.003
 12240   cD   312    MY  C112 12240    -0.028094     12.01000 ; qtot -0.031
 12241   hL   312    MY  H12R 12241     0.017208      1.00800 ; qtot -0.014
 12242   hL   312    MY  H12S 12242     0.017208      1.00800 ; qtot 0.004
 12243   cD   312    MY  C111 12243    -0.031787     12.01000 ; qtot -0.028
 12244   hL   312    MY  H11R 12244     0.012677      1.00800 ; qtot -0.015
 12245   hL   312    MY  H11S 12245     0.012677      1.00800 ; qtot -0.003
 12246   cD   312    MY  C110 12246    -0.021025     12.01000 ; qtot -0.024
 12247   hL   312    MY  H10R 12247     0.010037      1.00800 ; qtot -0.014
 12248   hL   312    MY  H10S 12248     0.010037      1.00800 ; qtot -0.004
 12249   cD   312    MY   C19 12249    -0.014653     12.01000 ; qtot -0.018
 12250   hL   312    MY   H9R 12250     0.010172      1.00800 ; qtot -0.008
 12251   hL   312    MY   H9S 12251     0.010172      1.00800 ; qtot 0.002
 12252   cD   312    MY   C18 12252    -0.026451     12.01000 ; qtot -0.024
 12253   hL   312    MY   H8R 12253     0.011241      1.00800 ; qtot -0.013
 12254   hL   312    MY   H8S 12254     0.011241      1.00800 ; qtot -0.002
 12255   cD   312    MY   C17 12255    -0.004386     12.01000 ; qtot -0.006
 12256   hL   312    MY   H7R 12256     0.006833      1.00800 ; qtot 0.000
 12257   hL   312    MY   H7S 12257     0.006833      1.00800 ; qtot 0.007
 12258   cD   312    MY   C16 12258    -0.027812     12.01000 ; qtot -0.021
 12259   hL   312    MY   H6R 12259     0.011511      1.00800 ; qtot -0.009
 12260   hL   312    MY   H6S 12260     0.011511      1.00800 ; qtot 0.002
 12261   cD   312    MY   C15 12261    -0.016521     12.01000 ; qtot -0.014
 12262   hL   312    MY   H5R 12262     0.010573      1.00800 ; qtot -0.003
 12263   hL   312    MY   H5S 12263     0.010573      1.00800 ; qtot 0.007
 12264   cD   312    MY   C14 12264    -0.026954     12.01000 ; qtot -0.020
 12265   hL   312    MY   H4R 12265     0.020431      1.00800 ; qtot 0.001
 12266   hL   312    MY   H4S 12266     0.020431      1.00800 ; qtot 0.021
 12267   cD   312    MY   C13 12267    -0.002435     12.01000 ; qtot 0.019
 12268   hL   312    MY   H3R 12268     0.018859      1.00800 ; qtot 0.037
 12269   hL   312    MY   H3S 12269     0.018859      1.00800 ; qtot 0.056
 12270   cD   312    MY   C12 12270    -0.164200     12.01000 ; qtot -0.108
 12271   hL   312    MY   H2R 12271     0.053944      1.00800 ; qtot -0.054
 12272   hL   312    MY   H2S 12272     0.053944      1.00800 ; qtot -0.000
 12273   hL   313    MY  H14T 12273     0.025511      1.00800 ; qtot 0.026
 12274   cD   313    MY  C114 12274    -0.111712     12.01000 ; qtot -0.086
 12275   hL   313    MY  H14R 12275     0.025511      1.00800 ; qtot -0.061
 12276   hL   313    MY  H14S 12276     0.025511      1.00800 ; qtot -0.035
 12277   cD   313    MY  C113 12277     0.017463     12.01000 ; qtot -0.018
 12278   hL   313    MY  H13R 12278     0.007531      1.00800 ; qtot -0.010
 12279   hL   313    MY  H13S 12279     0.007531      1.00800 ; qtot -0.003
 12280   cD   313    MY  C112 12280    -0.028094     12.01000 ; qtot -0.031
 12281   hL   313    MY  H12R 12281     0.017208      1.00800 ; qtot -0.014
 12282   hL   313    MY  H12S 12282     0.017208      1.00800 ; qtot 0.004
 12283   cD   313    MY  C111 12283    -0.031787     12.01000 ; qtot -0.028
 12284   hL   313    MY  H11R 12284     0.012677      1.00800 ; qtot -0.015
 12285   hL   313    MY  H11S 12285     0.012677      1.00800 ; qtot -0.003
 12286   cD   313    MY  C110 12286    -0.021025     12.01000 ; qtot -0.024
 12287   hL   313    MY  H10R 12287     0.010037      1.00800 ; qtot -0.014
 12288   hL   313    MY  H10S 12288     0.010037      1.00800 ; qtot -0.004
 12289   cD   313    MY   C19 12289    -0.014653     12.01000 ; qtot -0.018
 12290   hL   313    MY   H9R 12290     0.010172      1.00800 ; qtot -0.008
 12291   hL   313    MY   H9S 12291     0.010172      1.00800 ; qtot 0.002
 12292   cD   313    MY   C18 12292    -0.026451     12.01000 ; qtot -0.024
 12293   hL   313    MY   H8R 12293     0.011241      1.00800 ; qtot -0.013
 12294   hL   313    MY   H8S 12294     0.011241      1.00800 ; qtot -0.002
 12295   cD   313    MY   C17 12295    -0.004386     12.01000 ; qtot -0.006
 12296   hL   313    MY   H7R 12296     0.006833      1.00800 ; qtot 0.000
 12297   hL   313    MY   H7S 12297     0.006833      1.00800 ; qtot 0.007
 12298   cD   313    MY   C16 12298    -0.027812     12.01000 ; qtot -0.021
 12299   hL   313    MY   H6R 12299     0.011511      1.00800 ; qtot -0.009
 12300   hL   313    MY   H6S 12300     0.011511      1.00800 ; qtot 0.002
 12301   cD   313    MY   C15 12301    -0.016521     12.01000 ; qtot -0.014
 12302   hL   313    MY   H5R 12302     0.010573      1.00800 ; qtot -0.003
 12303   hL   313    MY   H5S 12303     0.010573      1.00800 ; qtot 0.007
 12304   cD   313    MY   C14 12304    -0.026954     12.01000 ; qtot -0.020
 12305   hL   313    MY   H4R 12305     0.020431      1.00800 ; qtot 0.001
 12306   hL   313    MY   H4S 12306     0.020431      1.00800 ; qtot 0.021
 12307   cD   313    MY   C13 12307    -0.002435     12.01000 ; qtot 0.019
 12308   hL   313    MY   H3R 12308     0.018859      1.00800 ; qtot 0.037
 12309   hL   313    MY   H3S 12309     0.018859      1.00800 ; qtot 0.056
 12310   cD   313    MY   C12 12310    -0.164200     12.01000 ; qtot -0.108
 12311   hL   313    MY   H2R 12311     0.053944      1.00800 ; qtot -0.054
 12312   hL   313    MY   H2S 12312     0.053944      1.00800 ; qtot -0.000
 12313   cC   314    PC   C11 12313     0.910403     12.01000 ; qtot 0.910
 12314   oC   314    PC   O12 12314    -0.671566     16.00000 ; qtot 0.239
 12315   oS   314    PC   O11 12315    -0.575489     16.00000 ; qtot -0.337
 12316   cA   314    PC    C1 12316     0.196939     12.01000 ; qtot -0.140
 12317   hE   314    PC    HR 12317     0.070469      1.00800 ; qtot -0.069
 12318   hE   314    PC    HS 12318     0.070469      1.00800 ; qtot 0.001
 12319   cA   314    PC    C2 12319     0.281242     12.01000 ; qtot 0.282
 12320   hE   314    PC    HX 12320     0.063253      1.00800 ; qtot 0.346
 12321   cA   314    PC    C3 12321     0.017459     12.01000 ; qtot 0.363
 12322   hE   314    PC    HA 12322     0.095591      1.00800 ; qtot 0.459
 12323   hE   314    PC    HB 12323     0.095591      1.00800 ; qtot 0.554
 12324   oT   314    PC   O31 12324    -0.509480     16.00000 ; qtot 0.045
 12325   pA   314    PC   P31 12325     1.339721     30.97000 ; qtot 1.385
 12326   oT   314    PC   O32 12326    -0.508176     16.00000 ; qtot 0.876
 12327   cA   314    PC   C31 12327     0.166801     12.01000 ; qtot 1.043
 12328   hE   314    PC   H1A 12328     0.078534      1.00800 ; qtot 1.122
 12329   hE   314    PC   H1B 12329     0.078534      1.00800 ; qtot 1.200
 12330   cA   314    PC   C32 12330    -0.170824     12.01000 ; qtot 1.029
 12331   hX   314    PC   H2A 12331     0.136415      1.00800 ; qtot 1.166
 12332   hX   314    PC   H2B 12332     0.136415      1.00800 ; qtot 1.302
 12333   nA   314    PC   N31 12333     0.245262     14.01000 ; qtot 1.548
 12334   cA   314    PC   C33 12334    -0.338973     12.01000 ; qtot 1.209
 12335   hX   314    PC   H3A 12335     0.172230      1.00800 ; qtot 1.381
 12336   hX   314    PC   H3B 12336     0.172230      1.00800 ; qtot 1.553
 12337   hX   314    PC   H3C 12337     0.172230      1.00800 ; qtot 1.725
 12338   cA   314    PC   C34 12338    -0.338973     12.01000 ; qtot 1.386
 12339   hX   314    PC   H4A 12339     0.172230      1.00800 ; qtot 1.559
 12340   hX   314    PC   H4B 12340     0.172230      1.00800 ; qtot 1.731
 12341   hX   314    PC   H4C 12341     0.172230      1.00800 ; qtot 1.903
 12342   cA   314    PC   C35 12342    -0.338973     12.01000 ; qtot 1.564
 12343   hX   314    PC   H5A 12343     0.172230      1.00800 ; qtot 1.736
 12344   hX   314    PC   H5B 12344     0.172230      1.00800 ; qtot 1.908
 12345   hX   314    PC   H5C 12345     0.172230      1.00800 ; qtot 2.081
 12346   oP   314    PC   O33 12346    -0.875812     16.00000 ; qtot 1.205
 12347   oP   314    PC   O34 12347    -0.875812     16.00000 ; qtot 0.329
 12348   oS   314    PC   O21 12348    -0.552948     16.00000 ; qtot -0.224
 12349   cC   314    PC   C21 12349     0.897613     12.01000 ; qtot 0.674
 12350   oC   314    PC   O22 12350    -0.673755     16.00000 ; qtot 0.000
 12351   hL   315    MY  H14T 12351     0.025511      1.00800 ; qtot 0.026
 12352   cD   315    MY  C114 12352    -0.111712     12.01000 ; qtot -0.086
 12353   hL   315    MY  H14R 12353     0.025511      1.00800 ; qtot -0.061
 12354   hL   315    MY  H14S 12354     0.025511      1.00800 ; qtot -0.035
 12355   cD   315    MY  C113 12355     0.017463     12.01000 ; qtot -0.018
 12356   hL   315    MY  H13R 12356     0.007531      1.00800 ; qtot -0.010
 12357   hL   315    MY  H13S 12357     0.007531      1.00800 ; qtot -0.003
 12358   cD   315    MY  C112 12358    -0.028094     12.01000 ; qtot -0.031
 12359   hL   315    MY  H12R 12359     0.017208      1.00800 ; qtot -0.014
 12360   hL   315    MY  H12S 12360     0.017208      1.00800 ; qtot 0.004
 12361   cD   315    MY  C111 12361    -0.031787     12.01000 ; qtot -0.028
 12362   hL   315    MY  H11R 12362     0.012677      1.00800 ; qtot -0.015
 12363   hL   315    MY  H11S 12363     0.012677      1.00800 ; qtot -0.003
 12364   cD   315    MY  C110 12364    -0.021025     12.01000 ; qtot -0.024
 12365   hL   315    MY  H10R 12365     0.010037      1.00800 ; qtot -0.014
 12366   hL   315    MY  H10S 12366     0.010037      1.00800 ; qtot -0.004
 12367   cD   315    MY   C19 12367    -0.014653     12.01000 ; qtot -0.018
 12368   hL   315    MY   H9R 12368     0.010172      1.00800 ; qtot -0.008
 12369   hL   315    MY   H9S 12369     0.010172      1.00800 ; qtot 0.002
 12370   cD   315    MY   C18 12370    -0.026451     12.01000 ; qtot -0.024
 12371   hL   315    MY   H8R 12371     0.011241      1.00800 ; qtot -0.013
 12372   hL   315    MY   H8S 12372     0.011241      1.00800 ; qtot -0.002
 12373   cD   315    MY   C17 12373    -0.004386     12.01000 ; qtot -0.006
 12374   hL   315    MY   H7R 12374     0.006833      1.00800 ; qtot 0.000
 12375   hL   315    MY   H7S 12375     0.006833      1.00800 ; qtot 0.007
 12376   cD   315    MY   C16 12376    -0.027812     12.01000 ; qtot -0.021
 12377   hL   315    MY   H6R 12377     0.011511      1.00800 ; qtot -0.009
 12378   hL   315    MY   H6S 12378     0.011511      1.00800 ; qtot 0.002
 12379   cD   315    MY   C15 12379    -0.016521     12.01000 ; qtot -0.014
 12380   hL   315    MY   H5R 12380     0.010573      1.00800 ; qtot -0.003
 12381   hL   315    MY   H5S 12381     0.010573      1.00800 ; qtot 0.007
 12382   cD   315    MY   C14 12382    -0.026954     12.01000 ; qtot -0.020
 12383   hL   315    MY   H4R 12383     0.020431      1.00800 ; qtot 0.001
 12384   hL   315    MY   H4S 12384     0.020431      1.00800 ; qtot 0.021
 12385   cD   315    MY   C13 12385    -0.002435     12.01000 ; qtot 0.019
 12386   hL   315    MY   H3R 12386     0.018859      1.00800 ; qtot 0.037
 12387   hL   315    MY   H3S 12387     0.018859      1.00800 ; qtot 0.056
 12388   cD   315    MY   C12 12388    -0.164200     12.01000 ; qtot -0.108
 12389   hL   315    MY   H2R 12389     0.053944      1.00800 ; qtot -0.054
 12390   hL   315    MY   H2S 12390     0.053944      1.00800 ; qtot -0.000
 12391   hL   316    MY  H14T 12391     0.025511      1.00800 ; qtot 0.026
 12392   cD   316    MY  C114 12392    -0.111712     12.01000 ; qtot -0.086
 12393   hL   316    MY  H14R 12393     0.025511      1.00800 ; qtot -0.061
 12394   hL   316    MY  H14S 12394     0.025511      1.00800 ; qtot -0.035
 12395   cD   316    MY  C113 12395     0.017463     12.01000 ; qtot -0.018
 12396   hL   316    MY  H13R 12396     0.007531      1.00800 ; qtot -0.010
 12397   hL   316    MY  H13S 12397     0.007531      1.00800 ; qtot -0.003
 12398   cD   316    MY  C112 12398    -0.028094     12.01000 ; qtot -0.031
 12399   hL   316    MY  H12R 12399     0.017208      1.00800 ; qtot -0.014
 12400   hL   316    MY  H12S 12400     0.017208      1.00800 ; qtot 0.004
 12401   cD   316    MY  C111 12401    -0.031787     12.01000 ; qtot -0.028
 12402   hL   316    MY  H11R 12402     0.012677      1.00800 ; qtot -0.015
 12403   hL   316    MY  H11S 12403     0.012677      1.00800 ; qtot -0.003
 12404   cD   316    MY  C110 12404    -0.021025     12.01000 ; qtot -0.024
 12405   hL   316    MY  H10R 12405     0.010037      1.00800 ; qtot -0.014
 12406   hL   316    MY  H10S 12406     0.010037      1.00800 ; qtot -0.004
 12407   cD   316    MY   C19 12407    -0.014653     12.01000 ; qtot -0.018
 12408   hL   316    MY   H9R 12408     0.010172      1.00800 ; qtot -0.008
 12409   hL   316    MY   H9S 12409     0.010172      1.00800 ; qtot 0.002
 12410   cD   316    MY   C18 12410    -0.026451     12.01000 ; qtot -0.024
 12411   hL   316    MY   H8R 12411     0.011241      1.00800 ; qtot -0.013
 12412   hL   316    MY   H8S 12412     0.011241      1.00800 ; qtot -0.002
 12413   cD   316    MY   C17 12413    -0.004386     12.01000 ; qtot -0.006
 12414   hL   316    MY   H7R 12414     0.006833      1.00800 ; qtot 0.000
 12415   hL   316    MY   H7S 12415     0.006833      1.00800 ; qtot 0.007
 12416   cD   316    MY   C16 12416    -0.027812     12.01000 ; qtot -0.021
 12417   hL   316    MY   H6R 12417     0.011511      1.00800 ; qtot -0.009
 12418   hL   316    MY   H6S 12418     0.011511      1.00800 ; qtot 0.002
 12419   cD   316    MY   C15 12419    -0.016521     12.01000 ; qtot -0.014
 12420   hL   316    MY   H5R 12420     0.010573      1.00800 ; qtot -0.003
 12421   hL   316    MY   H5S 12421     0.010573      1.00800 ; qtot 0.007
 12422   cD   316    MY   C14 12422    -0.026954     12.01000 ; qtot -0.020
 12423   hL   316    MY   H4R 12423     0.020431      1.00800 ; qtot 0.001
 12424   hL   316    MY   H4S 12424     0.020431      1.00800 ; qtot 0.021
 12425   cD   316    MY   C13 12425    -0.002435     12.01000 ; qtot 0.019
 12426   hL   316    MY   H3R 12426     0.018859      1.00800 ; qtot 0.037
 12427   hL   316    MY   H3S 12427     0.018859      1.00800 ; qtot 0.056
 12428   cD   316    MY   C12 12428    -0.164200     12.01000 ; qtot -0.108
 12429   hL   316    MY   H2R 12429     0.053944      1.00800 ; qtot -0.054
 12430   hL   316    MY   H2S 12430     0.053944      1.00800 ; qtot -0.000
 12431   cC   317    PC   C11 12431     0.910403     12.01000 ; qtot 0.910
 12432   oC   317    PC   O12 12432    -0.671566     16.00000 ; qtot 0.239
 12433   oS   317    PC   O11 12433    -0.575489     16.00000 ; qtot -0.337
 12434   cA   317    PC    C1 12434     0.196939     12.01000 ; qtot -0.140
 12435   hE   317    PC    HR 12435     0.070469      1.00800 ; qtot -0.069
 12436   hE   317    PC    HS 12436     0.070469      1.00800 ; qtot 0.001
 12437   cA   317    PC    C2 12437     0.281242     12.01000 ; qtot 0.282
 12438   hE   317    PC    HX 12438     0.063253      1.00800 ; qtot 0.346
 12439   cA   317    PC    C3 12439     0.017459     12.01000 ; qtot 0.363
 12440   hE   317    PC    HA 12440     0.095591      1.00800 ; qtot 0.459
 12441   hE   317    PC    HB 12441     0.095591      1.00800 ; qtot 0.554
 12442   oT   317    PC   O31 12442    -0.509480     16.00000 ; qtot 0.045
 12443   pA   317    PC   P31 12443     1.339721     30.97000 ; qtot 1.385
 12444   oT   317    PC   O32 12444    -0.508176     16.00000 ; qtot 0.876
 12445   cA   317    PC   C31 12445     0.166801     12.01000 ; qtot 1.043
 12446   hE   317    PC   H1A 12446     0.078534      1.00800 ; qtot 1.122
 12447   hE   317    PC   H1B 12447     0.078534      1.00800 ; qtot 1.200
 12448   cA   317    PC   C32 12448    -0.170824     12.01000 ; qtot 1.029
 12449   hX   317    PC   H2A 12449     0.136415      1.00800 ; qtot 1.166
 12450   hX   317    PC   H2B 12450     0.136415      1.00800 ; qtot 1.302
 12451   nA   317    PC   N31 12451     0.245262     14.01000 ; qtot 1.548
 12452   cA   317    PC   C33 12452    -0.338973     12.01000 ; qtot 1.209
 12453   hX   317    PC   H3A 12453     0.172230      1.00800 ; qtot 1.381
 12454   hX   317    PC   H3B 12454     0.172230      1.00800 ; qtot 1.553
 12455   hX   317    PC   H3C 12455     0.172230      1.00800 ; qtot 1.725
 12456   cA   317    PC   C34 12456    -0.338973     12.01000 ; qtot 1.386
 12457   hX   317    PC   H4A 12457     0.172230      1.00800 ; qtot 1.559
 12458   hX   317    PC   H4B 12458     0.172230      1.00800 ; qtot 1.731
 12459   hX   317    PC   H4C 12459     0.172230      1.00800 ; qtot 1.903
 12460   cA   317    PC   C35 12460    -0.338973     12.01000 ; qtot 1.564
 12461   hX   317    PC   H5A 12461     0.172230      1.00800 ; qtot 1.736
 12462   hX   317    PC   H5B 12462     0.172230      1.00800 ; qtot 1.908
 12463   hX   317    PC   H5C 12463     0.172230      1.00800 ; qtot 2.081
 12464   oP   317    PC   O33 12464    -0.875812     16.00000 ; qtot 1.205
 12465   oP   317    PC   O34 12465    -0.875812     16.00000 ; qtot 0.329
 12466   oS   317    PC   O21 12466    -0.552948     16.00000 ; qtot -0.224
 12467   cC   317    PC   C21 12467     0.897613     12.01000 ; qtot 0.674
 12468   oC   317    PC   O22 12468    -0.673755     16.00000 ; qtot 0.000
 12469   hL   318    MY  H14T 12469     0.025511      1.00800 ; qtot 0.026
 12470   cD   318    MY  C114 12470    -0.111712     12.01000 ; qtot -0.086
 12471   hL   318    MY  H14R 12471     0.025511      1.00800 ; qtot -0.061
 12472   hL   318    MY  H14S 12472     0.025511      1.00800 ; qtot -0.035
 12473   cD   318    MY  C113 12473     0.017463     12.01000 ; qtot -0.018
 12474   hL   318    MY  H13R 12474     0.007531      1.00800 ; qtot -0.010
 12475   hL   318    MY  H13S 12475     0.007531      1.00800 ; qtot -0.003
 12476   cD   318    MY  C112 12476    -0.028094     12.01000 ; qtot -0.031
 12477   hL   318    MY  H12R 12477     0.017208      1.00800 ; qtot -0.014
 12478   hL   318    MY  H12S 12478     0.017208      1.00800 ; qtot 0.004
 12479   cD   318    MY  C111 12479    -0.031787     12.01000 ; qtot -0.028
 12480   hL   318    MY  H11R 12480     0.012677      1.00800 ; qtot -0.015
 12481   hL   318    MY  H11S 12481     0.012677      1.00800 ; qtot -0.003
 12482   cD   318    MY  C110 12482    -0.021025     12.01000 ; qtot -0.024
 12483   hL   318    MY  H10R 12483     0.010037      1.00800 ; qtot -0.014
 12484   hL   318    MY  H10S 12484     0.010037      1.00800 ; qtot -0.004
 12485   cD   318    MY   C19 12485    -0.014653     12.01000 ; qtot -0.018
 12486   hL   318    MY   H9R 12486     0.010172      1.00800 ; qtot -0.008
 12487   hL   318    MY   H9S 12487     0.010172      1.00800 ; qtot 0.002
 12488   cD   318    MY   C18 12488    -0.026451     12.01000 ; qtot -0.024
 12489   hL   318    MY   H8R 12489     0.011241      1.00800 ; qtot -0.013
 12490   hL   318    MY   H8S 12490     0.011241      1.00800 ; qtot -0.002
 12491   cD   318    MY   C17 12491    -0.004386     12.01000 ; qtot -0.006
 12492   hL   318    MY   H7R 12492     0.006833      1.00800 ; qtot 0.000
 12493   hL   318    MY   H7S 12493     0.006833      1.00800 ; qtot 0.007
 12494   cD   318    MY   C16 12494    -0.027812     12.01000 ; qtot -0.021
 12495   hL   318    MY   H6R 12495     0.011511      1.00800 ; qtot -0.009
 12496   hL   318    MY   H6S 12496     0.011511      1.00800 ; qtot 0.002
 12497   cD   318    MY   C15 12497    -0.016521     12.01000 ; qtot -0.014
 12498   hL   318    MY   H5R 12498     0.010573      1.00800 ; qtot -0.003
 12499   hL   318    MY   H5S 12499     0.010573      1.00800 ; qtot 0.007
 12500   cD   318    MY   C14 12500    -0.026954     12.01000 ; qtot -0.020
 12501   hL   318    MY   H4R 12501     0.020431      1.00800 ; qtot 0.001
 12502   hL   318    MY   H4S 12502     0.020431      1.00800 ; qtot 0.021
 12503   cD   318    MY   C13 12503    -0.002435     12.01000 ; qtot 0.019
 12504   hL   318    MY   H3R 12504     0.018859      1.00800 ; qtot 0.037
 12505   hL   318    MY   H3S 12505     0.018859      1.00800 ; qtot 0.056
 12506   cD   318    MY   C12 12506    -0.164200     12.01000 ; qtot -0.108
 12507   hL   318    MY   H2R 12507     0.053944      1.00800 ; qtot -0.054
 12508   hL   318    MY   H2S 12508     0.053944      1.00800 ; qtot -0.000
 12509   hL   319    MY  H14T 12509     0.025511      1.00800 ; qtot 0.026
 12510   cD   319    MY  C114 12510    -0.111712     12.01000 ; qtot -0.086
 12511   hL   319    MY  H14R 12511     0.025511      1.00800 ; qtot -0.061
 12512   hL   319    MY  H14S 12512     0.025511      1.00800 ; qtot -0.035
 12513   cD   319    MY  C113 12513     0.017463     12.01000 ; qtot -0.018
 12514   hL   319    MY  H13R 12514     0.007531      1.00800 ; qtot -0.010
 12515   hL   319    MY  H13S 12515     0.007531      1.00800 ; qtot -0.003
 12516   cD   319    MY  C112 12516    -0.028094     12.01000 ; qtot -0.031
 12517   hL   319    MY  H12R 12517     0.017208      1.00800 ; qtot -0.014
 12518   hL   319    MY  H12S 12518     0.017208      1.00800 ; qtot 0.004
 12519   cD   319    MY  C111 12519    -0.031787     12.01000 ; qtot -0.028
 12520   hL   319    MY  H11R 12520     0.012677      1.00800 ; qtot -0.015
 12521   hL   319    MY  H11S 12521     0.012677      1.00800 ; qtot -0.003
 12522   cD   319    MY  C110 12522    -0.021025     12.01000 ; qtot -0.024
 12523   hL   319    MY  H10R 12523     0.010037      1.00800 ; qtot -0.014
 12524   hL   319    MY  H10S 12524     0.010037      1.00800 ; qtot -0.004
 12525   cD   319    MY   C19 12525    -0.014653     12.01000 ; qtot -0.018
 12526   hL   319    MY   H9R 12526     0.010172      1.00800 ; qtot -0.008
 12527   hL   319    MY   H9S 12527     0.010172      1.00800 ; qtot 0.002
 12528   cD   319    MY   C18 12528    -0.026451     12.01000 ; qtot -0.024
 12529   hL   319    MY   H8R 12529     0.011241      1.00800 ; qtot -0.013
 12530   hL   319    MY   H8S 12530     0.011241      1.00800 ; qtot -0.002
 12531   cD   319    MY   C17 12531    -0.004386     12.01000 ; qtot -0.006
 12532   hL   319    MY   H7R 12532     0.006833      1.00800 ; qtot 0.000
 12533   hL   319    MY   H7S 12533     0.006833      1.00800 ; qtot 0.007
 12534   cD   319    MY   C16 12534    -0.027812     12.01000 ; qtot -0.021
 12535   hL   319    MY   H6R 12535     0.011511      1.00800 ; qtot -0.009
 12536   hL   319    MY   H6S 12536     0.011511      1.00800 ; qtot 0.002
 12537   cD   319    MY   C15 12537    -0.016521     12.01000 ; qtot -0.014
 12538   hL   319    MY   H5R 12538     0.010573      1.00800 ; qtot -0.003
 12539   hL   319    MY   H5S 12539     0.010573      1.00800 ; qtot 0.007
 12540   cD   319    MY   C14 12540    -0.026954     12.01000 ; qtot -0.020
 12541   hL   319    MY   H4R 12541     0.020431      1.00800 ; qtot 0.001
 12542   hL   319    MY   H4S 12542     0.020431      1.00800 ; qtot 0.021
 12543   cD   319    MY   C13 12543    -0.002435     12.01000 ; qtot 0.019
 12544   hL   319    MY   H3R 12544     0.018859      1.00800 ; qtot 0.037
 12545   hL   319    MY   H3S 12545     0.018859      1.00800 ; qtot 0.056
 12546   cD   319    MY   C12 12546    -0.164200     12.01000 ; qtot -0.108
 12547   hL   319    MY   H2R 12547     0.053944      1.00800 ; qtot -0.054
 12548   hL   319    MY   H2S 12548     0.053944      1.00800 ; qtot -0.000
 12549   cC   320    PC   C11 12549     0.910403     12.01000 ; qtot 0.910
 12550   oC   320    PC   O12 12550    -0.671566     16.00000 ; qtot 0.239
 12551   oS   320    PC   O11 12551    -0.575489     16.00000 ; qtot -0.337
 12552   cA   320    PC    C1 12552     0.196939     12.01000 ; qtot -0.140
 12553   hE   320    PC    HR 12553     0.070469      1.00800 ; qtot -0.069
 12554   hE   320    PC    HS 12554     0.070469      1.00800 ; qtot 0.001
 12555   cA   320    PC    C2 12555     0.281242     12.01000 ; qtot 0.282
 12556   hE   320    PC    HX 12556     0.063253      1.00800 ; qtot 0.346
 12557   cA   320    PC    C3 12557     0.017459     12.01000 ; qtot 0.363
 12558   hE   320    PC    HA 12558     0.095591      1.00800 ; qtot 0.459
 12559   hE   320    PC    HB 12559     0.095591      1.00800 ; qtot 0.554
 12560   oT   320    PC   O31 12560    -0.509480     16.00000 ; qtot 0.045
 12561   pA   320    PC   P31 12561     1.339721     30.97000 ; qtot 1.385
 12562   oT   320    PC   O32 12562    -0.508176     16.00000 ; qtot 0.876
 12563   cA   320    PC   C31 12563     0.166801     12.01000 ; qtot 1.043
 12564   hE   320    PC   H1A 12564     0.078534      1.00800 ; qtot 1.122
 12565   hE   320    PC   H1B 12565     0.078534      1.00800 ; qtot 1.200
 12566   cA   320    PC   C32 12566    -0.170824     12.01000 ; qtot 1.029
 12567   hX   320    PC   H2A 12567     0.136415      1.00800 ; qtot 1.166
 12568   hX   320    PC   H2B 12568     0.136415      1.00800 ; qtot 1.302
 12569   nA   320    PC   N31 12569     0.245262     14.01000 ; qtot 1.548
 12570   cA   320    PC   C33 12570    -0.338973     12.01000 ; qtot 1.209
 12571   hX   320    PC   H3A 12571     0.172230      1.00800 ; qtot 1.381
 12572   hX   320    PC   H3B 12572     0.172230      1.00800 ; qtot 1.553
 12573   hX   320    PC   H3C 12573     0.172230      1.00800 ; qtot 1.725
 12574   cA   320    PC   C34 12574    -0.338973     12.01000 ; qtot 1.386
 12575   hX   320    PC   H4A 12575     0.172230      1.00800 ; qtot 1.559
 12576   hX   320    PC   H4B 12576     0.172230      1.00800 ; qtot 1.731
 12577   hX   320    PC   H4C 12577     0.172230      1.00800 ; qtot 1.903
 12578   cA   320    PC   C35 12578    -0.338973     12.01000 ; qtot 1.564
 12579   hX   320    PC   H5A 12579     0.172230      1.00800 ; qtot 1.736
 12580   hX   320    PC   H5B 12580     0.172230      1.00800 ; qtot 1.908
 12581   hX   320    PC   H5C 12581     0.172230      1.00800 ; qtot 2.081
 12582   oP   320    PC   O33 12582    -0.875812     16.00000 ; qtot 1.205
 12583   oP   320    PC   O34 12583    -0.875812     16.00000 ; qtot 0.329
 12584   oS   320    PC   O21 12584    -0.552948     16.00000 ; qtot -0.224
 12585   cC   320    PC   C21 12585     0.897613     12.01000 ; qtot 0.674
 12586   oC   320    PC   O22 12586    -0.673755     16.00000 ; qtot 0.000
 12587   hL   321    MY  H14T 12587     0.025511      1.00800 ; qtot 0.026
 12588   cD   321    MY  C114 12588    -0.111712     12.01000 ; qtot -0.086
 12589   hL   321    MY  H14R 12589     0.025511      1.00800 ; qtot -0.061
 12590   hL   321    MY  H14S 12590     0.025511      1.00800 ; qtot -0.035
 12591   cD   321    MY  C113 12591     0.017463     12.01000 ; qtot -0.018
 12592   hL   321    MY  H13R 12592     0.007531      1.00800 ; qtot -0.010
 12593   hL   321    MY  H13S 12593     0.007531      1.00800 ; qtot -0.003
 12594   cD   321    MY  C112 12594    -0.028094     12.01000 ; qtot -0.031
 12595   hL   321    MY  H12R 12595     0.017208      1.00800 ; qtot -0.014
 12596   hL   321    MY  H12S 12596     0.017208      1.00800 ; qtot 0.004
 12597   cD   321    MY  C111 12597    -0.031787     12.01000 ; qtot -0.028
 12598   hL   321    MY  H11R 12598     0.012677      1.00800 ; qtot -0.015
 12599   hL   321    MY  H11S 12599     0.012677      1.00800 ; qtot -0.003
 12600   cD   321    MY  C110 12600    -0.021025     12.01000 ; qtot -0.024
 12601   hL   321    MY  H10R 12601     0.010037      1.00800 ; qtot -0.014
 12602   hL   321    MY  H10S 12602     0.010037      1.00800 ; qtot -0.004
 12603   cD   321    MY   C19 12603    -0.014653     12.01000 ; qtot -0.018
 12604   hL   321    MY   H9R 12604     0.010172      1.00800 ; qtot -0.008
 12605   hL   321    MY   H9S 12605     0.010172      1.00800 ; qtot 0.002
 12606   cD   321    MY   C18 12606    -0.026451     12.01000 ; qtot -0.024
 12607   hL   321    MY   H8R 12607     0.011241      1.00800 ; qtot -0.013
 12608   hL   321    MY   H8S 12608     0.011241      1.00800 ; qtot -0.002
 12609   cD   321    MY   C17 12609    -0.004386     12.01000 ; qtot -0.006
 12610   hL   321    MY   H7R 12610     0.006833      1.00800 ; qtot 0.000
 12611   hL   321    MY   H7S 12611     0.006833      1.00800 ; qtot 0.007
 12612   cD   321    MY   C16 12612    -0.027812     12.01000 ; qtot -0.021
 12613   hL   321    MY   H6R 12613     0.011511      1.00800 ; qtot -0.009
 12614   hL   321    MY   H6S 12614     0.011511      1.00800 ; qtot 0.002
 12615   cD   321    MY   C15 12615    -0.016521     12.01000 ; qtot -0.014
 12616   hL   321    MY   H5R 12616     0.010573      1.00800 ; qtot -0.003
 12617   hL   321    MY   H5S 12617     0.010573      1.00800 ; qtot 0.007
 12618   cD   321    MY   C14 12618    -0.026954     12.01000 ; qtot -0.020
 12619   hL   321    MY   H4R 12619     0.020431      1.00800 ; qtot 0.001
 12620   hL   321    MY   H4S 12620     0.020431      1.00800 ; qtot 0.021
 12621   cD   321    MY   C13 12621    -0.002435     12.01000 ; qtot 0.019
 12622   hL   321    MY   H3R 12622     0.018859      1.00800 ; qtot 0.037
 12623   hL   321    MY   H3S 12623     0.018859      1.00800 ; qtot 0.056
 12624   cD   321    MY   C12 12624    -0.164200     12.01000 ; qtot -0.108
 12625   hL   321    MY   H2R 12625     0.053944      1.00800 ; qtot -0.054
 12626   hL   321    MY   H2S 12626     0.053944      1.00800 ; qtot -0.000
 12627   hL   322    MY  H14T 12627     0.025511      1.00800 ; qtot 0.026
 12628   cD   322    MY  C114 12628    -0.111712     12.01000 ; qtot -0.086
 12629   hL   322    MY  H14R 12629     0.025511      1.00800 ; qtot -0.061
 12630   hL   322    MY  H14S 12630     0.025511      1.00800 ; qtot -0.035
 12631   cD   322    MY  C113 12631     0.017463     12.01000 ; qtot -0.018
 12632   hL   322    MY  H13R 12632     0.007531      1.00800 ; qtot -0.010
 12633   hL   322    MY  H13S 12633     0.007531      1.00800 ; qtot -0.003
 12634   cD   322    MY  C112 12634    -0.028094     12.01000 ; qtot -0.031
 12635   hL   322    MY  H12R 12635     0.017208      1.00800 ; qtot -0.014
 12636   hL   322    MY  H12S 12636     0.017208      1.00800 ; qtot 0.004
 12637   cD   322    MY  C111 12637    -0.031787     12.01000 ; qtot -0.028
 12638   hL   322    MY  H11R 12638     0.012677      1.00800 ; qtot -0.015
 12639   hL   322    MY  H11S 12639     0.012677      1.00800 ; qtot -0.003
 12640   cD   322    MY  C110 12640    -0.021025     12.01000 ; qtot -0.024
 12641   hL   322    MY  H10R 12641     0.010037      1.00800 ; qtot -0.014
 12642   hL   322    MY  H10S 12642     0.010037      1.00800 ; qtot -0.004
 12643   cD   322    MY   C19 12643    -0.014653     12.01000 ; qtot -0.018
 12644   hL   322    MY   H9R 12644     0.010172      1.00800 ; qtot -0.008
 12645   hL   322    MY   H9S 12645     0.010172      1.00800 ; qtot 0.002
 12646   cD   322    MY   C18 12646    -0.026451     12.01000 ; qtot -0.024
 12647   hL   322    MY   H8R 12647     0.011241      1.00800 ; qtot -0.013
 12648   hL   322    MY   H8S 12648     0.011241      1.00800 ; qtot -0.002
 12649   cD   322    MY   C17 12649    -0.004386     12.01000 ; qtot -0.006
 12650   hL   322    MY   H7R 12650     0.006833      1.00800 ; qtot 0.000
 12651   hL   322    MY   H7S 12651     0.006833      1.00800 ; qtot 0.007
 12652   cD   322    MY   C16 12652    -0.027812     12.01000 ; qtot -0.021
 12653   hL   322    MY   H6R 12653     0.011511      1.00800 ; qtot -0.009
 12654   hL   322    MY   H6S 12654     0.011511      1.00800 ; qtot 0.002
 12655   cD   322    MY   C15 12655    -0.016521     12.01000 ; qtot -0.014
 12656   hL   322    MY   H5R 12656     0.010573      1.00800 ; qtot -0.003
 12657   hL   322    MY   H5S 12657     0.010573      1.00800 ; qtot 0.007
 12658   cD   322    MY   C14 12658    -0.026954     12.01000 ; qtot -0.020
 12659   hL   322    MY   H4R 12659     0.020431      1.00800 ; qtot 0.001
 12660   hL   322    MY   H4S 12660     0.020431      1.00800 ; qtot 0.021
 12661   cD   322    MY   C13 12661    -0.002435     12.01000 ; qtot 0.019
 12662   hL   322    MY   H3R 12662     0.018859      1.00800 ; qtot 0.037
 12663   hL   322    MY   H3S 12663     0.018859      1.00800 ; qtot 0.056
 12664   cD   322    MY   C12 12664    -0.164200     12.01000 ; qtot -0.108
 12665   hL   322    MY   H2R 12665     0.053944      1.00800 ; qtot -0.054
 12666   hL   322    MY   H2S 12666     0.053944      1.00800 ; qtot -0.000
 12667   cC   323    PC   C11 12667     0.910403     12.01000 ; qtot 0.910
 12668   oC   323    PC   O12 12668    -0.671566     16.00000 ; qtot 0.239
 12669   oS   323    PC   O11 12669    -0.575489     16.00000 ; qtot -0.337
 12670   cA   323    PC    C1 12670     0.196939     12.01000 ; qtot -0.140
 12671   hE   323    PC    HR 12671     0.070469      1.00800 ; qtot -0.069
 12672   hE   323    PC    HS 12672     0.070469      1.00800 ; qtot 0.001
 12673   cA   323    PC    C2 12673     0.281242     12.01000 ; qtot 0.282
 12674   hE   323    PC    HX 12674     0.063253      1.00800 ; qtot 0.346
 12675   cA   323    PC    C3 12675     0.017459     12.01000 ; qtot 0.363
 12676   hE   323    PC    HA 12676     0.095591      1.00800 ; qtot 0.459
 12677   hE   323    PC    HB 12677     0.095591      1.00800 ; qtot 0.554
 12678   oT   323    PC   O31 12678    -0.509480     16.00000 ; qtot 0.045
 12679   pA   323    PC   P31 12679     1.339721     30.97000 ; qtot 1.385
 12680   oT   323    PC   O32 12680    -0.508176     16.00000 ; qtot 0.876
 12681   cA   323    PC   C31 12681     0.166801     12.01000 ; qtot 1.043
 12682   hE   323    PC   H1A 12682     0.078534      1.00800 ; qtot 1.122
 12683   hE   323    PC   H1B 12683     0.078534      1.00800 ; qtot 1.200
 12684   cA   323    PC   C32 12684    -0.170824     12.01000 ; qtot 1.029
 12685   hX   323    PC   H2A 12685     0.136415      1.00800 ; qtot 1.166
 12686   hX   323    PC   H2B 12686     0.136415      1.00800 ; qtot 1.302
 12687   nA   323    PC   N31 12687     0.245262     14.01000 ; qtot 1.548
 12688   cA   323    PC   C33 12688    -0.338973     12.01000 ; qtot 1.209
 12689   hX   323    PC   H3A 12689     0.172230      1.00800 ; qtot 1.381
 12690   hX   323    PC   H3B 12690     0.172230      1.00800 ; qtot 1.553
 12691   hX   323    PC   H3C 12691     0.172230      1.00800 ; qtot 1.725
 12692   cA   323    PC   C34 12692    -0.338973     12.01000 ; qtot 1.386
 12693   hX   323    PC   H4A 12693     0.172230      1.00800 ; qtot 1.559
 12694   hX   323    PC   H4B 12694     0.172230      1.00800 ; qtot 1.731
 12695   hX   323    PC   H4C 12695     0.172230      1.00800 ; qtot 1.903
 12696   cA   323    PC   C35 12696    -0.338973     12.01000 ; qtot 1.564
 12697   hX   323    PC   H5A 12697     0.172230      1.00800 ; qtot 1.736
 12698   hX   323    PC   H5B 12698     0.172230      1.00800 ; qtot 1.908
 12699   hX   323    PC   H5C 12699     0.172230      1.00800 ; qtot 2.081
 12700   oP   323    PC   O33 12700    -0.875812     16.00000 ; qtot 1.205
 12701   oP   323    PC   O34 12701    -0.875812     16.00000 ; qtot 0.329
 12702   oS   323    PC   O21 12702    -0.552948     16.00000 ; qtot -0.224
 12703   cC   323    PC   C21 12703     0.897613     12.01000 ; qtot 0.674
 12704   oC   323    PC   O22 12704    -0.673755     16.00000 ; qtot 0.000
 12705   hL   324    MY  H14T 12705     0.025511      1.00800 ; qtot 0.026
 12706   cD   324    MY  C114 12706    -0.111712     12.01000 ; qtot -0.086
 12707   hL   324    MY  H14R 12707     0.025511      1.00800 ; qtot -0.061
 12708   hL   324    MY  H14S 12708     0.025511      1.00800 ; qtot -0.035
 12709   cD   324    MY  C113 12709     0.017463     12.01000 ; qtot -0.018
 12710   hL   324    MY  H13R 12710     0.007531      1.00800 ; qtot -0.010
 12711   hL   324    MY  H13S 12711     0.007531      1.00800 ; qtot -0.003
 12712   cD   324    MY  C112 12712    -0.028094     12.01000 ; qtot -0.031
 12713   hL   324    MY  H12R 12713     0.017208      1.00800 ; qtot -0.014
 12714   hL   324    MY  H12S 12714     0.017208      1.00800 ; qtot 0.004
 12715   cD   324    MY  C111 12715    -0.031787     12.01000 ; qtot -0.028
 12716   hL   324    MY  H11R 12716     0.012677      1.00800 ; qtot -0.015
 12717   hL   324    MY  H11S 12717     0.012677      1.00800 ; qtot -0.003
 12718   cD   324    MY  C110 12718    -0.021025     12.01000 ; qtot -0.024
 12719   hL   324    MY  H10R 12719     0.010037      1.00800 ; qtot -0.014
 12720   hL   324    MY  H10S 12720     0.010037      1.00800 ; qtot -0.004
 12721   cD   324    MY   C19 12721    -0.014653     12.01000 ; qtot -0.018
 12722   hL   324    MY   H9R 12722     0.010172      1.00800 ; qtot -0.008
 12723   hL   324    MY   H9S 12723     0.010172      1.00800 ; qtot 0.002
 12724   cD   324    MY   C18 12724    -0.026451     12.01000 ; qtot -0.024
 12725   hL   324    MY   H8R 12725     0.011241      1.00800 ; qtot -0.013
 12726   hL   324    MY   H8S 12726     0.011241      1.00800 ; qtot -0.002
 12727   cD   324    MY   C17 12727    -0.004386     12.01000 ; qtot -0.006
 12728   hL   324    MY   H7R 12728     0.006833      1.00800 ; qtot 0.000
 12729   hL   324    MY   H7S 12729     0.006833      1.00800 ; qtot 0.007
 12730   cD   324    MY   C16 12730    -0.027812     12.01000 ; qtot -0.021
 12731   hL   324    MY   H6R 12731     0.011511      1.00800 ; qtot -0.009
 12732   hL   324    MY   H6S 12732     0.011511      1.00800 ; qtot 0.002
 12733   cD   324    MY   C15 12733    -0.016521     12.01000 ; qtot -0.014
 12734   hL   324    MY   H5R 12734     0.010573      1.00800 ; qtot -0.003
 12735   hL   324    MY   H5S 12735     0.010573      1.00800 ; qtot 0.007
 12736   cD   324    MY   C14 12736    -0.026954     12.01000 ; qtot -0.020
 12737   hL   324    MY   H4R 12737     0.020431      1.00800 ; qtot 0.001
 12738   hL   324    MY   H4S 12738     0.020431      1.00800 ; qtot 0.021
 12739   cD   324    MY   C13 12739    -0.002435     12.01000 ; qtot 0.019
 12740   hL   324    MY   H3R 12740     0.018859      1.00800 ; qtot 0.037
 12741   hL   324    MY   H3S 12741     0.018859      1.00800 ; qtot 0.056
 12742   cD   324    MY   C12 12742    -0.164200     12.01000 ; qtot -0.108
 12743   hL   324    MY   H2R 12743     0.053944      1.00800 ; qtot -0.054
 12744   hL   324    MY   H2S 12744     0.053944      1.00800 ; qtot -0.000
 12745   hL   325    MY  H14T 12745     0.025511      1.00800 ; qtot 0.026
 12746   cD   325    MY  C114 12746    -0.111712     12.01000 ; qtot -0.086
 12747   hL   325    MY  H14R 12747     0.025511      1.00800 ; qtot -0.061
 12748   hL   325    MY  H14S 12748     0.025511      1.00800 ; qtot -0.035
 12749   cD   325    MY  C113 12749     0.017463     12.01000 ; qtot -0.018
 12750   hL   325    MY  H13R 12750     0.007531      1.00800 ; qtot -0.010
 12751   hL   325    MY  H13S 12751     0.007531      1.00800 ; qtot -0.003
 12752   cD   325    MY  C112 12752    -0.028094     12.01000 ; qtot -0.031
 12753   hL   325    MY  H12R 12753     0.017208      1.00800 ; qtot -0.014
 12754   hL   325    MY  H12S 12754     0.017208      1.00800 ; qtot 0.004
 12755   cD   325    MY  C111 12755    -0.031787     12.01000 ; qtot -0.028
 12756   hL   325    MY  H11R 12756     0.012677      1.00800 ; qtot -0.015
 12757   hL   325    MY  H11S 12757     0.012677      1.00800 ; qtot -0.003
 12758   cD   325    MY  C110 12758    -0.021025     12.01000 ; qtot -0.024
 12759   hL   325    MY  H10R 12759     0.010037      1.00800 ; qtot -0.014
 12760   hL   325    MY  H10S 12760     0.010037      1.00800 ; qtot -0.004
 12761   cD   325    MY   C19 12761    -0.014653     12.01000 ; qtot -0.018
 12762   hL   325    MY   H9R 12762     0.010172      1.00800 ; qtot -0.008
 12763   hL   325    MY   H9S 12763     0.010172      1.00800 ; qtot 0.002
 12764   cD   325    MY   C18 12764    -0.026451     12.01000 ; qtot -0.024
 12765   hL   325    MY   H8R 12765     0.011241      1.00800 ; qtot -0.013
 12766   hL   325    MY   H8S 12766     0.011241      1.00800 ; qtot -0.002
 12767   cD   325    MY   C17 12767    -0.004386     12.01000 ; qtot -0.006
 12768   hL   325    MY   H7R 12768     0.006833      1.00800 ; qtot 0.000
 12769   hL   325    MY   H7S 12769     0.006833      1.00800 ; qtot 0.007
 12770   cD   325    MY   C16 12770    -0.027812     12.01000 ; qtot -0.021
 12771   hL   325    MY   H6R 12771     0.011511      1.00800 ; qtot -0.009
 12772   hL   325    MY   H6S 12772     0.011511      1.00800 ; qtot 0.002
 12773   cD   325    MY   C15 12773    -0.016521     12.01000 ; qtot -0.014
 12774   hL   325    MY   H5R 12774     0.010573      1.00800 ; qtot -0.003
 12775   hL   325    MY   H5S 12775     0.010573      1.00800 ; qtot 0.007
 12776   cD   325    MY   C14 12776    -0.026954     12.01000 ; qtot -0.020
 12777   hL   325    MY   H4R 12777     0.020431      1.00800 ; qtot 0.001
 12778   hL   325    MY   H4S 12778     0.020431      1.00800 ; qtot 0.021
 12779   cD   325    MY   C13 12779    -0.002435     12.01000 ; qtot 0.019
 12780   hL   325    MY   H3R 12780     0.018859      1.00800 ; qtot 0.037
 12781   hL   325    MY   H3S 12781     0.018859      1.00800 ; qtot 0.056
 12782   cD   325    MY   C12 12782    -0.164200     12.01000 ; qtot -0.108
 12783   hL   325    MY   H2R 12783     0.053944      1.00800 ; qtot -0.054
 12784   hL   325    MY   H2S 12784     0.053944      1.00800 ; qtot -0.000
 12785   cC   326    PC   C11 12785     0.910403     12.01000 ; qtot 0.910
 12786   oC   326    PC   O12 12786    -0.671566     16.00000 ; qtot 0.239
 12787   oS   326    PC   O11 12787    -0.575489     16.00000 ; qtot -0.337
 12788   cA   326    PC    C1 12788     0.196939     12.01000 ; qtot -0.140
 12789   hE   326    PC    HR 12789     0.070469      1.00800 ; qtot -0.069
 12790   hE   326    PC    HS 12790     0.070469      1.00800 ; qtot 0.001
 12791   cA   326    PC    C2 12791     0.281242     12.01000 ; qtot 0.282
 12792   hE   326    PC    HX 12792     0.063253      1.00800 ; qtot 0.346
 12793   cA   326    PC    C3 12793     0.017459     12.01000 ; qtot 0.363
 12794   hE   326    PC    HA 12794     0.095591      1.00800 ; qtot 0.459
 12795   hE   326    PC    HB 12795     0.095591      1.00800 ; qtot 0.554
 12796   oT   326    PC   O31 12796    -0.509480     16.00000 ; qtot 0.045
 12797   pA   326    PC   P31 12797     1.339721     30.97000 ; qtot 1.385
 12798   oT   326    PC   O32 12798    -0.508176     16.00000 ; qtot 0.876
 12799   cA   326    PC   C31 12799     0.166801     12.01000 ; qtot 1.043
 12800   hE   326    PC   H1A 12800     0.078534      1.00800 ; qtot 1.122
 12801   hE   326    PC   H1B 12801     0.078534      1.00800 ; qtot 1.200
 12802   cA   326    PC   C32 12802    -0.170824     12.01000 ; qtot 1.029
 12803   hX   326    PC   H2A 12803     0.136415      1.00800 ; qtot 1.166
 12804   hX   326    PC   H2B 12804     0.136415      1.00800 ; qtot 1.302
 12805   nA   326    PC   N31 12805     0.245262     14.01000 ; qtot 1.548
 12806   cA   326    PC   C33 12806    -0.338973     12.01000 ; qtot 1.209
 12807   hX   326    PC   H3A 12807     0.172230      1.00800 ; qtot 1.381
 12808   hX   326    PC   H3B 12808     0.172230      1.00800 ; qtot 1.553
 12809   hX   326    PC   H3C 12809     0.172230      1.00800 ; qtot 1.725
 12810   cA   326    PC   C34 12810    -0.338973     12.01000 ; qtot 1.386
 12811   hX   326    PC   H4A 12811     0.172230      1.00800 ; qtot 1.559
 12812   hX   326    PC   H4B 12812     0.172230      1.00800 ; qtot 1.731
 12813   hX   326    PC   H4C 12813     0.172230      1.00800 ; qtot 1.903
 12814   cA   326    PC   C35 12814    -0.338973     12.01000 ; qtot 1.564
 12815   hX   326    PC   H5A 12815     0.172230      1.00800 ; qtot 1.736
 12816   hX   326    PC   H5B 12816     0.172230      1.00800 ; qtot 1.908
 12817   hX   326    PC   H5C 12817     0.172230      1.00800 ; qtot 2.081
 12818   oP   326    PC   O33 12818    -0.875812     16.00000 ; qtot 1.205
 12819   oP   326    PC   O34 12819    -0.875812     16.00000 ; qtot 0.329
 12820   oS   326    PC   O21 12820    -0.552948     16.00000 ; qtot -0.224
 12821   cC   326    PC   C21 12821     0.897613     12.01000 ; qtot 0.674
 12822   oC   326    PC   O22 12822    -0.673755     16.00000 ; qtot 0.000
 12823   hL   327    MY  H14T 12823     0.025511      1.00800 ; qtot 0.026
 12824   cD   327    MY  C114 12824    -0.111712     12.01000 ; qtot -0.086
 12825   hL   327    MY  H14R 12825     0.025511      1.00800 ; qtot -0.061
 12826   hL   327    MY  H14S 12826     0.025511      1.00800 ; qtot -0.035
 12827   cD   327    MY  C113 12827     0.017463     12.01000 ; qtot -0.018
 12828   hL   327    MY  H13R 12828     0.007531      1.00800 ; qtot -0.010
 12829   hL   327    MY  H13S 12829     0.007531      1.00800 ; qtot -0.003
 12830   cD   327    MY  C112 12830    -0.028094     12.01000 ; qtot -0.031
 12831   hL   327    MY  H12R 12831     0.017208      1.00800 ; qtot -0.014
 12832   hL   327    MY  H12S 12832     0.017208      1.00800 ; qtot 0.004
 12833   cD   327    MY  C111 12833    -0.031787     12.01000 ; qtot -0.028
 12834   hL   327    MY  H11R 12834     0.012677      1.00800 ; qtot -0.015
 12835   hL   327    MY  H11S 12835     0.012677      1.00800 ; qtot -0.003
 12836   cD   327    MY  C110 12836    -0.021025     12.01000 ; qtot -0.024
 12837   hL   327    MY  H10R 12837     0.010037      1.00800 ; qtot -0.014
 12838   hL   327    MY  H10S 12838     0.010037      1.00800 ; qtot -0.004
 12839   cD   327    MY   C19 12839    -0.014653     12.01000 ; qtot -0.018
 12840   hL   327    MY   H9R 12840     0.010172      1.00800 ; qtot -0.008
 12841   hL   327    MY   H9S 12841     0.010172      1.00800 ; qtot 0.002
 12842   cD   327    MY   C18 12842    -0.026451     12.01000 ; qtot -0.024
 12843   hL   327    MY   H8R 12843     0.011241      1.00800 ; qtot -0.013
 12844   hL   327    MY   H8S 12844     0.011241      1.00800 ; qtot -0.002
 12845   cD   327    MY   C17 12845    -0.004386     12.01000 ; qtot -0.006
 12846   hL   327    MY   H7R 12846     0.006833      1.00800 ; qtot 0.000
 12847   hL   327    MY   H7S 12847     0.006833      1.00800 ; qtot 0.007
 12848   cD   327    MY   C16 12848    -0.027812     12.01000 ; qtot -0.021
 12849   hL   327    MY   H6R 12849     0.011511      1.00800 ; qtot -0.009
 12850   hL   327    MY   H6S 12850     0.011511      1.00800 ; qtot 0.002
 12851   cD   327    MY   C15 12851    -0.016521     12.01000 ; qtot -0.014
 12852   hL   327    MY   H5R 12852     0.010573      1.00800 ; qtot -0.003
 12853   hL   327    MY   H5S 12853     0.010573      1.00800 ; qtot 0.007
 12854   cD   327    MY   C14 12854    -0.026954     12.01000 ; qtot -0.020
 12855   hL   327    MY   H4R 12855     0.020431      1.00800 ; qtot 0.001
 12856   hL   327    MY   H4S 12856     0.020431      1.00800 ; qtot 0.021
 12857   cD   327    MY   C13 12857    -0.002435     12.01000 ; qtot 0.019
 12858   hL   327    MY   H3R 12858     0.018859      1.00800 ; qtot 0.037
 12859   hL   327    MY   H3S 12859     0.018859      1.00800 ; qtot 0.056
 12860   cD   327    MY   C12 12860    -0.164200     12.01000 ; qtot -0.108
 12861   hL   327    MY   H2R 12861     0.053944      1.00800 ; qtot -0.054
 12862   hL   327    MY   H2S 12862     0.053944      1.00800 ; qtot -0.000
 12863   hL   328    MY  H14T 12863     0.025511      1.00800 ; qtot 0.026
 12864   cD   328    MY  C114 12864    -0.111712     12.01000 ; qtot -0.086
 12865   hL   328    MY  H14R 12865     0.025511      1.00800 ; qtot -0.061
 12866   hL   328    MY  H14S 12866     0.025511      1.00800 ; qtot -0.035
 12867   cD   328    MY  C113 12867     0.017463     12.01000 ; qtot -0.018
 12868   hL   328    MY  H13R 12868     0.007531      1.00800 ; qtot -0.010
 12869   hL   328    MY  H13S 12869     0.007531      1.00800 ; qtot -0.003
 12870   cD   328    MY  C112 12870    -0.028094     12.01000 ; qtot -0.031
 12871   hL   328    MY  H12R 12871     0.017208      1.00800 ; qtot -0.014
 12872   hL   328    MY  H12S 12872     0.017208      1.00800 ; qtot 0.004
 12873   cD   328    MY  C111 12873    -0.031787     12.01000 ; qtot -0.028
 12874   hL   328    MY  H11R 12874     0.012677      1.00800 ; qtot -0.015
 12875   hL   328    MY  H11S 12875     0.012677      1.00800 ; qtot -0.003
 12876   cD   328    MY  C110 12876    -0.021025     12.01000 ; qtot -0.024
 12877   hL   328    MY  H10R 12877     0.010037      1.00800 ; qtot -0.014
 12878   hL   328    MY  H10S 12878     0.010037      1.00800 ; qtot -0.004
 12879   cD   328    MY   C19 12879    -0.014653     12.01000 ; qtot -0.018
 12880   hL   328    MY   H9R 12880     0.010172      1.00800 ; qtot -0.008
 12881   hL   328    MY   H9S 12881     0.010172      1.00800 ; qtot 0.002
 12882   cD   328    MY   C18 12882    -0.026451     12.01000 ; qtot -0.024
 12883   hL   328    MY   H8R 12883     0.011241      1.00800 ; qtot -0.013
 12884   hL   328    MY   H8S 12884     0.011241      1.00800 ; qtot -0.002
 12885   cD   328    MY   C17 12885    -0.004386     12.01000 ; qtot -0.006
 12886   hL   328    MY   H7R 12886     0.006833      1.00800 ; qtot 0.000
 12887   hL   328    MY   H7S 12887     0.006833      1.00800 ; qtot 0.007
 12888   cD   328    MY   C16 12888    -0.027812     12.01000 ; qtot -0.021
 12889   hL   328    MY   H6R 12889     0.011511      1.00800 ; qtot -0.009
 12890   hL   328    MY   H6S 12890     0.011511      1.00800 ; qtot 0.002
 12891   cD   328    MY   C15 12891    -0.016521     12.01000 ; qtot -0.014
 12892   hL   328    MY   H5R 12892     0.010573      1.00800 ; qtot -0.003
 12893   hL   328    MY   H5S 12893     0.010573      1.00800 ; qtot 0.007
 12894   cD   328    MY   C14 12894    -0.026954     12.01000 ; qtot -0.020
 12895   hL   328    MY   H4R 12895     0.020431      1.00800 ; qtot 0.001
 12896   hL   328    MY   H4S 12896     0.020431      1.00800 ; qtot 0.021
 12897   cD   328    MY   C13 12897    -0.002435     12.01000 ; qtot 0.019
 12898   hL   328    MY   H3R 12898     0.018859      1.00800 ; qtot 0.037
 12899   hL   328    MY   H3S 12899     0.018859      1.00800 ; qtot 0.056
 12900   cD   328    MY   C12 12900    -0.164200     12.01000 ; qtot -0.108
 12901   hL   328    MY   H2R 12901     0.053944      1.00800 ; qtot -0.054
 12902   hL   328    MY   H2S 12902     0.053944      1.00800 ; qtot -0.000
 12903   cC   329    PC   C11 12903     0.910403     12.01000 ; qtot 0.910
 12904   oC   329    PC   O12 12904    -0.671566     16.00000 ; qtot 0.239
 12905   oS   329    PC   O11 12905    -0.575489     16.00000 ; qtot -0.337
 12906   cA   329    PC    C1 12906     0.196939     12.01000 ; qtot -0.140
 12907   hE   329    PC    HR 12907     0.070469      1.00800 ; qtot -0.069
 12908   hE   329    PC    HS 12908     0.070469      1.00800 ; qtot 0.001
 12909   cA   329    PC    C2 12909     0.281242     12.01000 ; qtot 0.282
 12910   hE   329    PC    HX 12910     0.063253      1.00800 ; qtot 0.346
 12911   cA   329    PC    C3 12911     0.017459     12.01000 ; qtot 0.363
 12912   hE   329    PC    HA 12912     0.095591      1.00800 ; qtot 0.459
 12913   hE   329    PC    HB 12913     0.095591      1.00800 ; qtot 0.554
 12914   oT   329    PC   O31 12914    -0.509480     16.00000 ; qtot 0.045
 12915   pA   329    PC   P31 12915     1.339721     30.97000 ; qtot 1.385
 12916   oT   329    PC   O32 12916    -0.508176     16.00000 ; qtot 0.876
 12917   cA   329    PC   C31 12917     0.166801     12.01000 ; qtot 1.043
 12918   hE   329    PC   H1A 12918     0.078534      1.00800 ; qtot 1.122
 12919   hE   329    PC   H1B 12919     0.078534      1.00800 ; qtot 1.200
 12920   cA   329    PC   C32 12920    -0.170824     12.01000 ; qtot 1.029
 12921   hX   329    PC   H2A 12921     0.136415      1.00800 ; qtot 1.166
 12922   hX   329    PC   H2B 12922     0.136415      1.00800 ; qtot 1.302
 12923   nA   329    PC   N31 12923     0.245262     14.01000 ; qtot 1.548
 12924   cA   329    PC   C33 12924    -0.338973     12.01000 ; qtot 1.209
 12925   hX   329    PC   H3A 12925     0.172230      1.00800 ; qtot 1.381
 12926   hX   329    PC   H3B 12926     0.172230      1.00800 ; qtot 1.553
 12927   hX   329    PC   H3C 12927     0.172230      1.00800 ; qtot 1.725
 12928   cA   329    PC   C34 12928    -0.338973     12.01000 ; qtot 1.386
 12929   hX   329    PC   H4A 12929     0.172230      1.00800 ; qtot 1.559
 12930   hX   329    PC   H4B 12930     0.172230      1.00800 ; qtot 1.731
 12931   hX   329    PC   H4C 12931     0.172230      1.00800 ; qtot 1.903
 12932   cA   329    PC   C35 12932    -0.338973     12.01000 ; qtot 1.564
 12933   hX   329    PC   H5A 12933     0.172230      1.00800 ; qtot 1.736
 12934   hX   329    PC   H5B 12934     0.172230      1.00800 ; qtot 1.908
 12935   hX   329    PC   H5C 12935     0.172230      1.00800 ; qtot 2.081
 12936   oP   329    PC   O33 12936    -0.875812     16.00000 ; qtot 1.205
 12937   oP   329    PC   O34 12937    -0.875812     16.00000 ; qtot 0.329
 12938   oS   329    PC   O21 12938    -0.552948     16.00000 ; qtot -0.224
 12939   cC   329    PC   C21 12939     0.897613     12.01000 ; qtot 0.674
 12940   oC   329    PC   O22 12940    -0.673755     16.00000 ; qtot 0.000
 12941   hL   330    MY  H14T 12941     0.025511      1.00800 ; qtot 0.026
 12942   cD   330    MY  C114 12942    -0.111712     12.01000 ; qtot -0.086
 12943   hL   330    MY  H14R 12943     0.025511      1.00800 ; qtot -0.061
 12944   hL   330    MY  H14S 12944     0.025511      1.00800 ; qtot -0.035
 12945   cD   330    MY  C113 12945     0.017463     12.01000 ; qtot -0.018
 12946   hL   330    MY  H13R 12946     0.007531      1.00800 ; qtot -0.010
 12947   hL   330    MY  H13S 12947     0.007531      1.00800 ; qtot -0.003
 12948   cD   330    MY  C112 12948    -0.028094     12.01000 ; qtot -0.031
 12949   hL   330    MY  H12R 12949     0.017208      1.00800 ; qtot -0.014
 12950   hL   330    MY  H12S 12950     0.017208      1.00800 ; qtot 0.004
 12951   cD   330    MY  C111 12951    -0.031787     12.01000 ; qtot -0.028
 12952   hL   330    MY  H11R 12952     0.012677      1.00800 ; qtot -0.015
 12953   hL   330    MY  H11S 12953     0.012677      1.00800 ; qtot -0.003
 12954   cD   330    MY  C110 12954    -0.021025     12.01000 ; qtot -0.024
 12955   hL   330    MY  H10R 12955     0.010037      1.00800 ; qtot -0.014
 12956   hL   330    MY  H10S 12956     0.010037      1.00800 ; qtot -0.004
 12957   cD   330    MY   C19 12957    -0.014653     12.01000 ; qtot -0.018
 12958   hL   330    MY   H9R 12958     0.010172      1.00800 ; qtot -0.008
 12959   hL   330    MY   H9S 12959     0.010172      1.00800 ; qtot 0.002
 12960   cD   330    MY   C18 12960    -0.026451     12.01000 ; qtot -0.024
 12961   hL   330    MY   H8R 12961     0.011241      1.00800 ; qtot -0.013
 12962   hL   330    MY   H8S 12962     0.011241      1.00800 ; qtot -0.002
 12963   cD   330    MY   C17 12963    -0.004386     12.01000 ; qtot -0.006
 12964   hL   330    MY   H7R 12964     0.006833      1.00800 ; qtot 0.000
 12965   hL   330    MY   H7S 12965     0.006833      1.00800 ; qtot 0.007
 12966   cD   330    MY   C16 12966    -0.027812     12.01000 ; qtot -0.021
 12967   hL   330    MY   H6R 12967     0.011511      1.00800 ; qtot -0.009
 12968   hL   330    MY   H6S 12968     0.011511      1.00800 ; qtot 0.002
 12969   cD   330    MY   C15 12969    -0.016521     12.01000 ; qtot -0.014
 12970   hL   330    MY   H5R 12970     0.010573      1.00800 ; qtot -0.003
 12971   hL   330    MY   H5S 12971     0.010573      1.00800 ; qtot 0.007
 12972   cD   330    MY   C14 12972    -0.026954     12.01000 ; qtot -0.020
 12973   hL   330    MY   H4R 12973     0.020431      1.00800 ; qtot 0.001
 12974   hL   330    MY   H4S 12974     0.020431      1.00800 ; qtot 0.021
 12975   cD   330    MY   C13 12975    -0.002435     12.01000 ; qtot 0.019
 12976   hL   330    MY   H3R 12976     0.018859      1.00800 ; qtot 0.037
 12977   hL   330    MY   H3S 12977     0.018859      1.00800 ; qtot 0.056
 12978   cD   330    MY   C12 12978    -0.164200     12.01000 ; qtot -0.108
 12979   hL   330    MY   H2R 12979     0.053944      1.00800 ; qtot -0.054
 12980   hL   330    MY   H2S 12980     0.053944      1.00800 ; qtot -0.000
 12981   hL   331    MY  H14T 12981     0.025511      1.00800 ; qtot 0.026
 12982   cD   331    MY  C114 12982    -0.111712     12.01000 ; qtot -0.086
 12983   hL   331    MY  H14R 12983     0.025511      1.00800 ; qtot -0.061
 12984   hL   331    MY  H14S 12984     0.025511      1.00800 ; qtot -0.035
 12985   cD   331    MY  C113 12985     0.017463     12.01000 ; qtot -0.018
 12986   hL   331    MY  H13R 12986     0.007531      1.00800 ; qtot -0.010
 12987   hL   331    MY  H13S 12987     0.007531      1.00800 ; qtot -0.003
 12988   cD   331    MY  C112 12988    -0.028094     12.01000 ; qtot -0.031
 12989   hL   331    MY  H12R 12989     0.017208      1.00800 ; qtot -0.014
 12990   hL   331    MY  H12S 12990     0.017208      1.00800 ; qtot 0.004
 12991   cD   331    MY  C111 12991    -0.031787     12.01000 ; qtot -0.028
 12992   hL   331    MY  H11R 12992     0.012677      1.00800 ; qtot -0.015
 12993   hL   331    MY  H11S 12993     0.012677      1.00800 ; qtot -0.003
 12994   cD   331    MY  C110 12994    -0.021025     12.01000 ; qtot -0.024
 12995   hL   331    MY  H10R 12995     0.010037      1.00800 ; qtot -0.014
 12996   hL   331    MY  H10S 12996     0.010037      1.00800 ; qtot -0.004
 12997   cD   331    MY   C19 12997    -0.014653     12.01000 ; qtot -0.018
 12998   hL   331    MY   H9R 12998     0.010172      1.00800 ; qtot -0.008
 12999   hL   331    MY   H9S 12999     0.010172      1.00800 ; qtot 0.002
 13000   cD   331    MY   C18 13000    -0.026451     12.01000 ; qtot -0.024
 13001   hL   331    MY   H8R 13001     0.011241      1.00800 ; qtot -0.013
 13002   hL   331    MY   H8S 13002     0.011241      1.00800 ; qtot -0.002
 13003   cD   331    MY   C17 13003    -0.004386     12.01000 ; qtot -0.006
 13004   hL   331    MY   H7R 13004     0.006833      1.00800 ; qtot 0.000
 13005   hL   331    MY   H7S 13005     0.006833      1.00800 ; qtot 0.007
 13006   cD   331    MY   C16 13006    -0.027812     12.01000 ; qtot -0.021
 13007   hL   331    MY   H6R 13007     0.011511      1.00800 ; qtot -0.009
 13008   hL   331    MY   H6S 13008     0.011511      1.00800 ; qtot 0.002
 13009   cD   331    MY   C15 13009    -0.016521     12.01000 ; qtot -0.014
 13010   hL   331    MY   H5R 13010     0.010573      1.00800 ; qtot -0.003
 13011   hL   331    MY   H5S 13011     0.010573      1.00800 ; qtot 0.007
 13012   cD   331    MY   C14 13012    -0.026954     12.01000 ; qtot -0.020
 13013   hL   331    MY   H4R 13013     0.020431      1.00800 ; qtot 0.001
 13014   hL   331    MY   H4S 13014     0.020431      1.00800 ; qtot 0.021
 13015   cD   331    MY   C13 13015    -0.002435     12.01000 ; qtot 0.019
 13016   hL   331    MY   H3R 13016     0.018859      1.00800 ; qtot 0.037
 13017   hL   331    MY   H3S 13017     0.018859      1.00800 ; qtot 0.056
 13018   cD   331    MY   C12 13018    -0.164200     12.01000 ; qtot -0.108
 13019   hL   331    MY   H2R 13019     0.053944      1.00800 ; qtot -0.054
 13020   hL   331    MY   H2S 13020     0.053944      1.00800 ; qtot -0.000
 13021   cC   332    PC   C11 13021     0.910403     12.01000 ; qtot 0.910
 13022   oC   332    PC   O12 13022    -0.671566     16.00000 ; qtot 0.239
 13023   oS   332    PC   O11 13023    -0.575489     16.00000 ; qtot -0.337
 13024   cA   332    PC    C1 13024     0.196939     12.01000 ; qtot -0.140
 13025   hE   332    PC    HR 13025     0.070469      1.00800 ; qtot -0.069
 13026   hE   332    PC    HS 13026     0.070469      1.00800 ; qtot 0.001
 13027   cA   332    PC    C2 13027     0.281242     12.01000 ; qtot 0.282
 13028   hE   332    PC    HX 13028     0.063253      1.00800 ; qtot 0.346
 13029   cA   332    PC    C3 13029     0.017459     12.01000 ; qtot 0.363
 13030   hE   332    PC    HA 13030     0.095591      1.00800 ; qtot 0.459
 13031   hE   332    PC    HB 13031     0.095591      1.00800 ; qtot 0.554
 13032   oT   332    PC   O31 13032    -0.509480     16.00000 ; qtot 0.045
 13033   pA   332    PC   P31 13033     1.339721     30.97000 ; qtot 1.385
 13034   oT   332    PC   O32 13034    -0.508176     16.00000 ; qtot 0.876
 13035   cA   332    PC   C31 13035     0.166801     12.01000 ; qtot 1.043
 13036   hE   332    PC   H1A 13036     0.078534      1.00800 ; qtot 1.122
 13037   hE   332    PC   H1B 13037     0.078534      1.00800 ; qtot 1.200
 13038   cA   332    PC   C32 13038    -0.170824     12.01000 ; qtot 1.029
 13039   hX   332    PC   H2A 13039     0.136415      1.00800 ; qtot 1.166
 13040   hX   332    PC   H2B 13040     0.136415      1.00800 ; qtot 1.302
 13041   nA   332    PC   N31 13041     0.245262     14.01000 ; qtot 1.548
 13042   cA   332    PC   C33 13042    -0.338973     12.01000 ; qtot 1.209
 13043   hX   332    PC   H3A 13043     0.172230      1.00800 ; qtot 1.381
 13044   hX   332    PC   H3B 13044     0.172230      1.00800 ; qtot 1.553
 13045   hX   332    PC   H3C 13045     0.172230      1.00800 ; qtot 1.725
 13046   cA   332    PC   C34 13046    -0.338973     12.01000 ; qtot 1.386
 13047   hX   332    PC   H4A 13047     0.172230      1.00800 ; qtot 1.559
 13048   hX   332    PC   H4B 13048     0.172230      1.00800 ; qtot 1.731
 13049   hX   332    PC   H4C 13049     0.172230      1.00800 ; qtot 1.903
 13050   cA   332    PC   C35 13050    -0.338973     12.01000 ; qtot 1.564
 13051   hX   332    PC   H5A 13051     0.172230      1.00800 ; qtot 1.736
 13052   hX   332    PC   H5B 13052     0.172230      1.00800 ; qtot 1.908
 13053   hX   332    PC   H5C 13053     0.172230      1.00800 ; qtot 2.081
 13054   oP   332    PC   O33 13054    -0.875812     16.00000 ; qtot 1.205
 13055   oP   332    PC   O34 13055    -0.875812     16.00000 ; qtot 0.329
 13056   oS   332    PC   O21 13056    -0.552948     16.00000 ; qtot -0.224
 13057   cC   332    PC   C21 13057     0.897613     12.01000 ; qtot 0.674
 13058   oC   332    PC   O22 13058    -0.673755     16.00000 ; qtot 0.000
 13059   hL   333    MY  H14T 13059     0.025511      1.00800 ; qtot 0.026
 13060   cD   333    MY  C114 13060    -0.111712     12.01000 ; qtot -0.086
 13061   hL   333    MY  H14R 13061     0.025511      1.00800 ; qtot -0.061
 13062   hL   333    MY  H14S 13062     0.025511      1.00800 ; qtot -0.035
 13063   cD   333    MY  C113 13063     0.017463     12.01000 ; qtot -0.018
 13064   hL   333    MY  H13R 13064     0.007531      1.00800 ; qtot -0.010
 13065   hL   333    MY  H13S 13065     0.007531      1.00800 ; qtot -0.003
 13066   cD   333    MY  C112 13066    -0.028094     12.01000 ; qtot -0.031
 13067   hL   333    MY  H12R 13067     0.017208      1.00800 ; qtot -0.014
 13068   hL   333    MY  H12S 13068     0.017208      1.00800 ; qtot 0.004
 13069   cD   333    MY  C111 13069    -0.031787     12.01000 ; qtot -0.028
 13070   hL   333    MY  H11R 13070     0.012677      1.00800 ; qtot -0.015
 13071   hL   333    MY  H11S 13071     0.012677      1.00800 ; qtot -0.003
 13072   cD   333    MY  C110 13072    -0.021025     12.01000 ; qtot -0.024
 13073   hL   333    MY  H10R 13073     0.010037      1.00800 ; qtot -0.014
 13074   hL   333    MY  H10S 13074     0.010037      1.00800 ; qtot -0.004
 13075   cD   333    MY   C19 13075    -0.014653     12.01000 ; qtot -0.018
 13076   hL   333    MY   H9R 13076     0.010172      1.00800 ; qtot -0.008
 13077   hL   333    MY   H9S 13077     0.010172      1.00800 ; qtot 0.002
 13078   cD   333    MY   C18 13078    -0.026451     12.01000 ; qtot -0.024
 13079   hL   333    MY   H8R 13079     0.011241      1.00800 ; qtot -0.013
 13080   hL   333    MY   H8S 13080     0.011241      1.00800 ; qtot -0.002
 13081   cD   333    MY   C17 13081    -0.004386     12.01000 ; qtot -0.006
 13082   hL   333    MY   H7R 13082     0.006833      1.00800 ; qtot 0.000
 13083   hL   333    MY   H7S 13083     0.006833      1.00800 ; qtot 0.007
 13084   cD   333    MY   C16 13084    -0.027812     12.01000 ; qtot -0.021
 13085   hL   333    MY   H6R 13085     0.011511      1.00800 ; qtot -0.009
 13086   hL   333    MY   H6S 13086     0.011511      1.00800 ; qtot 0.002
 13087   cD   333    MY   C15 13087    -0.016521     12.01000 ; qtot -0.014
 13088   hL   333    MY   H5R 13088     0.010573      1.00800 ; qtot -0.003
 13089   hL   333    MY   H5S 13089     0.010573      1.00800 ; qtot 0.007
 13090   cD   333    MY   C14 13090    -0.026954     12.01000 ; qtot -0.020
 13091   hL   333    MY   H4R 13091     0.020431      1.00800 ; qtot 0.001
 13092   hL   333    MY   H4S 13092     0.020431      1.00800 ; qtot 0.021
 13093   cD   333    MY   C13 13093    -0.002435     12.01000 ; qtot 0.019
 13094   hL   333    MY   H3R 13094     0.018859      1.00800 ; qtot 0.037
 13095   hL   333    MY   H3S 13095     0.018859      1.00800 ; qtot 0.056
 13096   cD   333    MY   C12 13096    -0.164200     12.01000 ; qtot -0.108
 13097   hL   333    MY   H2R 13097     0.053944      1.00800 ; qtot -0.054
 13098   hL   333    MY   H2S 13098     0.053944      1.00800 ; qtot -0.000
 13099   hL   334    MY  H14T 13099     0.025511      1.00800 ; qtot 0.026
 13100   cD   334    MY  C114 13100    -0.111712     12.01000 ; qtot -0.086
 13101   hL   334    MY  H14R 13101     0.025511      1.00800 ; qtot -0.061
 13102   hL   334    MY  H14S 13102     0.025511      1.00800 ; qtot -0.035
 13103   cD   334    MY  C113 13103     0.017463     12.01000 ; qtot -0.018
 13104   hL   334    MY  H13R 13104     0.007531      1.00800 ; qtot -0.010
 13105   hL   334    MY  H13S 13105     0.007531      1.00800 ; qtot -0.003
 13106   cD   334    MY  C112 13106    -0.028094     12.01000 ; qtot -0.031
 13107   hL   334    MY  H12R 13107     0.017208      1.00800 ; qtot -0.014
 13108   hL   334    MY  H12S 13108     0.017208      1.00800 ; qtot 0.004
 13109   cD   334    MY  C111 13109    -0.031787     12.01000 ; qtot -0.028
 13110   hL   334    MY  H11R 13110     0.012677      1.00800 ; qtot -0.015
 13111   hL   334    MY  H11S 13111     0.012677      1.00800 ; qtot -0.003
 13112   cD   334    MY  C110 13112    -0.021025     12.01000 ; qtot -0.024
 13113   hL   334    MY  H10R 13113     0.010037      1.00800 ; qtot -0.014
 13114   hL   334    MY  H10S 13114     0.010037      1.00800 ; qtot -0.004
 13115   cD   334    MY   C19 13115    -0.014653     12.01000 ; qtot -0.018
 13116   hL   334    MY   H9R 13116     0.010172      1.00800 ; qtot -0.008
 13117   hL   334    MY   H9S 13117     0.010172      1.00800 ; qtot 0.002
 13118   cD   334    MY   C18 13118    -0.026451     12.01000 ; qtot -0.024
 13119   hL   334    MY   H8R 13119     0.011241      1.00800 ; qtot -0.013
 13120   hL   334    MY   H8S 13120     0.011241      1.00800 ; qtot -0.002
 13121   cD   334    MY   C17 13121    -0.004386     12.01000 ; qtot -0.006
 13122   hL   334    MY   H7R 13122     0.006833      1.00800 ; qtot 0.000
 13123   hL   334    MY   H7S 13123     0.006833      1.00800 ; qtot 0.007
 13124   cD   334    MY   C16 13124    -0.027812     12.01000 ; qtot -0.021
 13125   hL   334    MY   H6R 13125     0.011511      1.00800 ; qtot -0.009
 13126   hL   334    MY   H6S 13126     0.011511      1.00800 ; qtot 0.002
 13127   cD   334    MY   C15 13127    -0.016521     12.01000 ; qtot -0.014
 13128   hL   334    MY   H5R 13128     0.010573      1.00800 ; qtot -0.003
 13129   hL   334    MY   H5S 13129     0.010573      1.00800 ; qtot 0.007
 13130   cD   334    MY   C14 13130    -0.026954     12.01000 ; qtot -0.020
 13131   hL   334    MY   H4R 13131     0.020431      1.00800 ; qtot 0.001
 13132   hL   334    MY   H4S 13132     0.020431      1.00800 ; qtot 0.021
 13133   cD   334    MY   C13 13133    -0.002435     12.01000 ; qtot 0.019
 13134   hL   334    MY   H3R 13134     0.018859      1.00800 ; qtot 0.037
 13135   hL   334    MY   H3S 13135     0.018859      1.00800 ; qtot 0.056
 13136   cD   334    MY   C12 13136    -0.164200     12.01000 ; qtot -0.108
 13137   hL   334    MY   H2R 13137     0.053944      1.00800 ; qtot -0.054
 13138   hL   334    MY   H2S 13138     0.053944      1.00800 ; qtot -0.000
 13139   cC   335    PC   C11 13139     0.910403     12.01000 ; qtot 0.910
 13140   oC   335    PC   O12 13140    -0.671566     16.00000 ; qtot 0.239
 13141   oS   335    PC   O11 13141    -0.575489     16.00000 ; qtot -0.337
 13142   cA   335    PC    C1 13142     0.196939     12.01000 ; qtot -0.140
 13143   hE   335    PC    HR 13143     0.070469      1.00800 ; qtot -0.069
 13144   hE   335    PC    HS 13144     0.070469      1.00800 ; qtot 0.001
 13145   cA   335    PC    C2 13145     0.281242     12.01000 ; qtot 0.282
 13146   hE   335    PC    HX 13146     0.063253      1.00800 ; qtot 0.346
 13147   cA   335    PC    C3 13147     0.017459     12.01000 ; qtot 0.363
 13148   hE   335    PC    HA 13148     0.095591      1.00800 ; qtot 0.459
 13149   hE   335    PC    HB 13149     0.095591      1.00800 ; qtot 0.554
 13150   oT   335    PC   O31 13150    -0.509480     16.00000 ; qtot 0.045
 13151   pA   335    PC   P31 13151     1.339721     30.97000 ; qtot 1.385
 13152   oT   335    PC   O32 13152    -0.508176     16.00000 ; qtot 0.876
 13153   cA   335    PC   C31 13153     0.166801     12.01000 ; qtot 1.043
 13154   hE   335    PC   H1A 13154     0.078534      1.00800 ; qtot 1.122
 13155   hE   335    PC   H1B 13155     0.078534      1.00800 ; qtot 1.200
 13156   cA   335    PC   C32 13156    -0.170824     12.01000 ; qtot 1.029
 13157   hX   335    PC   H2A 13157     0.136415      1.00800 ; qtot 1.166
 13158   hX   335    PC   H2B 13158     0.136415      1.00800 ; qtot 1.302
 13159   nA   335    PC   N31 13159     0.245262     14.01000 ; qtot 1.548
 13160   cA   335    PC   C33 13160    -0.338973     12.01000 ; qtot 1.209
 13161   hX   335    PC   H3A 13161     0.172230      1.00800 ; qtot 1.381
 13162   hX   335    PC   H3B 13162     0.172230      1.00800 ; qtot 1.553
 13163   hX   335    PC   H3C 13163     0.172230      1.00800 ; qtot 1.725
 13164   cA   335    PC   C34 13164    -0.338973     12.01000 ; qtot 1.386
 13165   hX   335    PC   H4A 13165     0.172230      1.00800 ; qtot 1.559
 13166   hX   335    PC   H4B 13166     0.172230      1.00800 ; qtot 1.731
 13167   hX   335    PC   H4C 13167     0.172230      1.00800 ; qtot 1.903
 13168   cA   335    PC   C35 13168    -0.338973     12.01000 ; qtot 1.564
 13169   hX   335    PC   H5A 13169     0.172230      1.00800 ; qtot 1.736
 13170   hX   335    PC   H5B 13170     0.172230      1.00800 ; qtot 1.908
 13171   hX   335    PC   H5C 13171     0.172230      1.00800 ; qtot 2.081
 13172   oP   335    PC   O33 13172    -0.875812     16.00000 ; qtot 1.205
 13173   oP   335    PC   O34 13173    -0.875812     16.00000 ; qtot 0.329
 13174   oS   335    PC   O21 13174    -0.552948     16.00000 ; qtot -0.224
 13175   cC   335    PC   C21 13175     0.897613     12.01000 ; qtot 0.674
 13176   oC   335    PC   O22 13176    -0.673755     16.00000 ; qtot 0.000
 13177   hL   336    MY  H14T 13177     0.025511      1.00800 ; qtot 0.026
 13178   cD   336    MY  C114 13178    -0.111712     12.01000 ; qtot -0.086
 13179   hL   336    MY  H14R 13179     0.025511      1.00800 ; qtot -0.061
 13180   hL   336    MY  H14S 13180     0.025511      1.00800 ; qtot -0.035
 13181   cD   336    MY  C113 13181     0.017463     12.01000 ; qtot -0.018
 13182   hL   336    MY  H13R 13182     0.007531      1.00800 ; qtot -0.010
 13183   hL   336    MY  H13S 13183     0.007531      1.00800 ; qtot -0.003
 13184   cD   336    MY  C112 13184    -0.028094     12.01000 ; qtot -0.031
 13185   hL   336    MY  H12R 13185     0.017208      1.00800 ; qtot -0.014
 13186   hL   336    MY  H12S 13186     0.017208      1.00800 ; qtot 0.004
 13187   cD   336    MY  C111 13187    -0.031787     12.01000 ; qtot -0.028
 13188   hL   336    MY  H11R 13188     0.012677      1.00800 ; qtot -0.015
 13189   hL   336    MY  H11S 13189     0.012677      1.00800 ; qtot -0.003
 13190   cD   336    MY  C110 13190    -0.021025     12.01000 ; qtot -0.024
 13191   hL   336    MY  H10R 13191     0.010037      1.00800 ; qtot -0.014
 13192   hL   336    MY  H10S 13192     0.010037      1.00800 ; qtot -0.004
 13193   cD   336    MY   C19 13193    -0.014653     12.01000 ; qtot -0.018
 13194   hL   336    MY   H9R 13194     0.010172      1.00800 ; qtot -0.008
 13195   hL   336    MY   H9S 13195     0.010172      1.00800 ; qtot 0.002
 13196   cD   336    MY   C18 13196    -0.026451     12.01000 ; qtot -0.024
 13197   hL   336    MY   H8R 13197     0.011241      1.00800 ; qtot -0.013
 13198   hL   336    MY   H8S 13198     0.011241      1.00800 ; qtot -0.002
 13199   cD   336    MY   C17 13199    -0.004386     12.01000 ; qtot -0.006
 13200   hL   336    MY   H7R 13200     0.006833      1.00800 ; qtot 0.000
 13201   hL   336    MY   H7S 13201     0.006833      1.00800 ; qtot 0.007
 13202   cD   336    MY   C16 13202    -0.027812     12.01000 ; qtot -0.021
 13203   hL   336    MY   H6R 13203     0.011511      1.00800 ; qtot -0.009
 13204   hL   336    MY   H6S 13204     0.011511      1.00800 ; qtot 0.002
 13205   cD   336    MY   C15 13205    -0.016521     12.01000 ; qtot -0.014
 13206   hL   336    MY   H5R 13206     0.010573      1.00800 ; qtot -0.003
 13207   hL   336    MY   H5S 13207     0.010573      1.00800 ; qtot 0.007
 13208   cD   336    MY   C14 13208    -0.026954     12.01000 ; qtot -0.020
 13209   hL   336    MY   H4R 13209     0.020431      1.00800 ; qtot 0.001
 13210   hL   336    MY   H4S 13210     0.020431      1.00800 ; qtot 0.021
 13211   cD   336    MY   C13 13211    -0.002435     12.01000 ; qtot 0.019
 13212   hL   336    MY   H3R 13212     0.018859      1.00800 ; qtot 0.037
 13213   hL   336    MY   H3S 13213     0.018859      1.00800 ; qtot 0.056
 13214   cD   336    MY   C12 13214    -0.164200     12.01000 ; qtot -0.108
 13215   hL   336    MY   H2R 13215     0.053944      1.00800 ; qtot -0.054
 13216   hL   336    MY   H2S 13216     0.053944      1.00800 ; qtot -0.000
 13217   hL   337    MY  H14T 13217     0.025511      1.00800 ; qtot 0.026
 13218   cD   337    MY  C114 13218    -0.111712     12.01000 ; qtot -0.086
 13219   hL   337    MY  H14R 13219     0.025511      1.00800 ; qtot -0.061
 13220   hL   337    MY  H14S 13220     0.025511      1.00800 ; qtot -0.035
 13221   cD   337    MY  C113 13221     0.017463     12.01000 ; qtot -0.018
 13222   hL   337    MY  H13R 13222     0.007531      1.00800 ; qtot -0.010
 13223   hL   337    MY  H13S 13223     0.007531      1.00800 ; qtot -0.003
 13224   cD   337    MY  C112 13224    -0.028094     12.01000 ; qtot -0.031
 13225   hL   337    MY  H12R 13225     0.017208      1.00800 ; qtot -0.014
 13226   hL   337    MY  H12S 13226     0.017208      1.00800 ; qtot 0.004
 13227   cD   337    MY  C111 13227    -0.031787     12.01000 ; qtot -0.028
 13228   hL   337    MY  H11R 13228     0.012677      1.00800 ; qtot -0.015
 13229   hL   337    MY  H11S 13229     0.012677      1.00800 ; qtot -0.003
 13230   cD   337    MY  C110 13230    -0.021025     12.01000 ; qtot -0.024
 13231   hL   337    MY  H10R 13231     0.010037      1.00800 ; qtot -0.014
 13232   hL   337    MY  H10S 13232     0.010037      1.00800 ; qtot -0.004
 13233   cD   337    MY   C19 13233    -0.014653     12.01000 ; qtot -0.018
 13234   hL   337    MY   H9R 13234     0.010172      1.00800 ; qtot -0.008
 13235   hL   337    MY   H9S 13235     0.010172      1.00800 ; qtot 0.002
 13236   cD   337    MY   C18 13236    -0.026451     12.01000 ; qtot -0.024
 13237   hL   337    MY   H8R 13237     0.011241      1.00800 ; qtot -0.013
 13238   hL   337    MY   H8S 13238     0.011241      1.00800 ; qtot -0.002
 13239   cD   337    MY   C17 13239    -0.004386     12.01000 ; qtot -0.006
 13240   hL   337    MY   H7R 13240     0.006833      1.00800 ; qtot 0.000
 13241   hL   337    MY   H7S 13241     0.006833      1.00800 ; qtot 0.007
 13242   cD   337    MY   C16 13242    -0.027812     12.01000 ; qtot -0.021
 13243   hL   337    MY   H6R 13243     0.011511      1.00800 ; qtot -0.009
 13244   hL   337    MY   H6S 13244     0.011511      1.00800 ; qtot 0.002
 13245   cD   337    MY   C15 13245    -0.016521     12.01000 ; qtot -0.014
 13246   hL   337    MY   H5R 13246     0.010573      1.00800 ; qtot -0.003
 13247   hL   337    MY   H5S 13247     0.010573      1.00800 ; qtot 0.007
 13248   cD   337    MY   C14 13248    -0.026954     12.01000 ; qtot -0.020
 13249   hL   337    MY   H4R 13249     0.020431      1.00800 ; qtot 0.001
 13250   hL   337    MY   H4S 13250     0.020431      1.00800 ; qtot 0.021
 13251   cD   337    MY   C13 13251    -0.002435     12.01000 ; qtot 0.019
 13252   hL   337    MY   H3R 13252     0.018859      1.00800 ; qtot 0.037
 13253   hL   337    MY   H3S 13253     0.018859      1.00800 ; qtot 0.056
 13254   cD   337    MY   C12 13254    -0.164200     12.01000 ; qtot -0.108
 13255   hL   337    MY   H2R 13255     0.053944      1.00800 ; qtot -0.054
 13256   hL   337    MY   H2S 13256     0.053944      1.00800 ; qtot -0.000
 13257   cC   338    PC   C11 13257     0.910403     12.01000 ; qtot 0.910
 13258   oC   338    PC   O12 13258    -0.671566     16.00000 ; qtot 0.239
 13259   oS   338    PC   O11 13259    -0.575489     16.00000 ; qtot -0.337
 13260   cA   338    PC    C1 13260     0.196939     12.01000 ; qtot -0.140
 13261   hE   338    PC    HR 13261     0.070469      1.00800 ; qtot -0.069
 13262   hE   338    PC    HS 13262     0.070469      1.00800 ; qtot 0.001
 13263   cA   338    PC    C2 13263     0.281242     12.01000 ; qtot 0.282
 13264   hE   338    PC    HX 13264     0.063253      1.00800 ; qtot 0.346
 13265   cA   338    PC    C3 13265     0.017459     12.01000 ; qtot 0.363
 13266   hE   338    PC    HA 13266     0.095591      1.00800 ; qtot 0.459
 13267   hE   338    PC    HB 13267     0.095591      1.00800 ; qtot 0.554
 13268   oT   338    PC   O31 13268    -0.509480     16.00000 ; qtot 0.045
 13269   pA   338    PC   P31 13269     1.339721     30.97000 ; qtot 1.385
 13270   oT   338    PC   O32 13270    -0.508176     16.00000 ; qtot 0.876
 13271   cA   338    PC   C31 13271     0.166801     12.01000 ; qtot 1.043
 13272   hE   338    PC   H1A 13272     0.078534      1.00800 ; qtot 1.122
 13273   hE   338    PC   H1B 13273     0.078534      1.00800 ; qtot 1.200
 13274   cA   338    PC   C32 13274    -0.170824     12.01000 ; qtot 1.029
 13275   hX   338    PC   H2A 13275     0.136415      1.00800 ; qtot 1.166
 13276   hX   338    PC   H2B 13276     0.136415      1.00800 ; qtot 1.302
 13277   nA   338    PC   N31 13277     0.245262     14.01000 ; qtot 1.548
 13278   cA   338    PC   C33 13278    -0.338973     12.01000 ; qtot 1.209
 13279   hX   338    PC   H3A 13279     0.172230      1.00800 ; qtot 1.381
 13280   hX   338    PC   H3B 13280     0.172230      1.00800 ; qtot 1.553
 13281   hX   338    PC   H3C 13281     0.172230      1.00800 ; qtot 1.725
 13282   cA   338    PC   C34 13282    -0.338973     12.01000 ; qtot 1.386
 13283   hX   338    PC   H4A 13283     0.172230      1.00800 ; qtot 1.559
 13284   hX   338    PC   H4B 13284     0.172230      1.00800 ; qtot 1.731
 13285   hX   338    PC   H4C 13285     0.172230      1.00800 ; qtot 1.903
 13286   cA   338    PC   C35 13286    -0.338973     12.01000 ; qtot 1.564
 13287   hX   338    PC   H5A 13287     0.172230      1.00800 ; qtot 1.736
 13288   hX   338    PC   H5B 13288     0.172230      1.00800 ; qtot 1.908
 13289   hX   338    PC   H5C 13289     0.172230      1.00800 ; qtot 2.081
 13290   oP   338    PC   O33 13290    -0.875812     16.00000 ; qtot 1.205
 13291   oP   338    PC   O34 13291    -0.875812     16.00000 ; qtot 0.329
 13292   oS   338    PC   O21 13292    -0.552948     16.00000 ; qtot -0.224
 13293   cC   338    PC   C21 13293     0.897613     12.01000 ; qtot 0.674
 13294   oC   338    PC   O22 13294    -0.673755     16.00000 ; qtot 0.000
 13295   hL   339    MY  H14T 13295     0.025511      1.00800 ; qtot 0.026
 13296   cD   339    MY  C114 13296    -0.111712     12.01000 ; qtot -0.086
 13297   hL   339    MY  H14R 13297     0.025511      1.00800 ; qtot -0.061
 13298   hL   339    MY  H14S 13298     0.025511      1.00800 ; qtot -0.035
 13299   cD   339    MY  C113 13299     0.017463     12.01000 ; qtot -0.018
 13300   hL   339    MY  H13R 13300     0.007531      1.00800 ; qtot -0.010
 13301   hL   339    MY  H13S 13301     0.007531      1.00800 ; qtot -0.003
 13302   cD   339    MY  C112 13302    -0.028094     12.01000 ; qtot -0.031
 13303   hL   339    MY  H12R 13303     0.017208      1.00800 ; qtot -0.014
 13304   hL   339    MY  H12S 13304     0.017208      1.00800 ; qtot 0.004
 13305   cD   339    MY  C111 13305    -0.031787     12.01000 ; qtot -0.028
 13306   hL   339    MY  H11R 13306     0.012677      1.00800 ; qtot -0.015
 13307   hL   339    MY  H11S 13307     0.012677      1.00800 ; qtot -0.003
 13308   cD   339    MY  C110 13308    -0.021025     12.01000 ; qtot -0.024
 13309   hL   339    MY  H10R 13309     0.010037      1.00800 ; qtot -0.014
 13310   hL   339    MY  H10S 13310     0.010037      1.00800 ; qtot -0.004
 13311   cD   339    MY   C19 13311    -0.014653     12.01000 ; qtot -0.018
 13312   hL   339    MY   H9R 13312     0.010172      1.00800 ; qtot -0.008
 13313   hL   339    MY   H9S 13313     0.010172      1.00800 ; qtot 0.002
 13314   cD   339    MY   C18 13314    -0.026451     12.01000 ; qtot -0.024
 13315   hL   339    MY   H8R 13315     0.011241      1.00800 ; qtot -0.013
 13316   hL   339    MY   H8S 13316     0.011241      1.00800 ; qtot -0.002
 13317   cD   339    MY   C17 13317    -0.004386     12.01000 ; qtot -0.006
 13318   hL   339    MY   H7R 13318     0.006833      1.00800 ; qtot 0.000
 13319   hL   339    MY   H7S 13319     0.006833      1.00800 ; qtot 0.007
 13320   cD   339    MY   C16 13320    -0.027812     12.01000 ; qtot -0.021
 13321   hL   339    MY   H6R 13321     0.011511      1.00800 ; qtot -0.009
 13322   hL   339    MY   H6S 13322     0.011511      1.00800 ; qtot 0.002
 13323   cD   339    MY   C15 13323    -0.016521     12.01000 ; qtot -0.014
 13324   hL   339    MY   H5R 13324     0.010573      1.00800 ; qtot -0.003
 13325   hL   339    MY   H5S 13325     0.010573      1.00800 ; qtot 0.007
 13326   cD   339    MY   C14 13326    -0.026954     12.01000 ; qtot -0.020
 13327   hL   339    MY   H4R 13327     0.020431      1.00800 ; qtot 0.001
 13328   hL   339    MY   H4S 13328     0.020431      1.00800 ; qtot 0.021
 13329   cD   339    MY   C13 13329    -0.002435     12.01000 ; qtot 0.019
 13330   hL   339    MY   H3R 13330     0.018859      1.00800 ; qtot 0.037
 13331   hL   339    MY   H3S 13331     0.018859      1.00800 ; qtot 0.056
 13332   cD   339    MY   C12 13332    -0.164200     12.01000 ; qtot -0.108
 13333   hL   339    MY   H2R 13333     0.053944      1.00800 ; qtot -0.054
 13334   hL   339    MY   H2S 13334     0.053944      1.00800 ; qtot -0.000
 13335   hL   340    MY  H14T 13335     0.025511      1.00800 ; qtot 0.026
 13336   cD   340    MY  C114 13336    -0.111712     12.01000 ; qtot -0.086
 13337   hL   340    MY  H14R 13337     0.025511      1.00800 ; qtot -0.061
 13338   hL   340    MY  H14S 13338     0.025511      1.00800 ; qtot -0.035
 13339   cD   340    MY  C113 13339     0.017463     12.01000 ; qtot -0.018
 13340   hL   340    MY  H13R 13340     0.007531      1.00800 ; qtot -0.010
 13341   hL   340    MY  H13S 13341     0.007531      1.00800 ; qtot -0.003
 13342   cD   340    MY  C112 13342    -0.028094     12.01000 ; qtot -0.031
 13343   hL   340    MY  H12R 13343     0.017208      1.00800 ; qtot -0.014
 13344   hL   340    MY  H12S 13344     0.017208      1.00800 ; qtot 0.004
 13345   cD   340    MY  C111 13345    -0.031787     12.01000 ; qtot -0.028
 13346   hL   340    MY  H11R 13346     0.012677      1.00800 ; qtot -0.015
 13347   hL   340    MY  H11S 13347     0.012677      1.00800 ; qtot -0.003
 13348   cD   340    MY  C110 13348    -0.021025     12.01000 ; qtot -0.024
 13349   hL   340    MY  H10R 13349     0.010037      1.00800 ; qtot -0.014
 13350   hL   340    MY  H10S 13350     0.010037      1.00800 ; qtot -0.004
 13351   cD   340    MY   C19 13351    -0.014653     12.01000 ; qtot -0.018
 13352   hL   340    MY   H9R 13352     0.010172      1.00800 ; qtot -0.008
 13353   hL   340    MY   H9S 13353     0.010172      1.00800 ; qtot 0.002
 13354   cD   340    MY   C18 13354    -0.026451     12.01000 ; qtot -0.024
 13355   hL   340    MY   H8R 13355     0.011241      1.00800 ; qtot -0.013
 13356   hL   340    MY   H8S 13356     0.011241      1.00800 ; qtot -0.002
 13357   cD   340    MY   C17 13357    -0.004386     12.01000 ; qtot -0.006
 13358   hL   340    MY   H7R 13358     0.006833      1.00800 ; qtot 0.000
 13359   hL   340    MY   H7S 13359     0.006833      1.00800 ; qtot 0.007
 13360   cD   340    MY   C16 13360    -0.027812     12.01000 ; qtot -0.021
 13361   hL   340    MY   H6R 13361     0.011511      1.00800 ; qtot -0.009
 13362   hL   340    MY   H6S 13362     0.011511      1.00800 ; qtot 0.002
 13363   cD   340    MY   C15 13363    -0.016521     12.01000 ; qtot -0.014
 13364   hL   340    MY   H5R 13364     0.010573      1.00800 ; qtot -0.003
 13365   hL   340    MY   H5S 13365     0.010573      1.00800 ; qtot 0.007
 13366   cD   340    MY   C14 13366    -0.026954     12.01000 ; qtot -0.020
 13367   hL   340    MY   H4R 13367     0.020431      1.00800 ; qtot 0.001
 13368   hL   340    MY   H4S 13368     0.020431      1.00800 ; qtot 0.021
 13369   cD   340    MY   C13 13369    -0.002435     12.01000 ; qtot 0.019
 13370   hL   340    MY   H3R 13370     0.018859      1.00800 ; qtot 0.037
 13371   hL   340    MY   H3S 13371     0.018859      1.00800 ; qtot 0.056
 13372   cD   340    MY   C12 13372    -0.164200     12.01000 ; qtot -0.108
 13373   hL   340    MY   H2R 13373     0.053944      1.00800 ; qtot -0.054
 13374   hL   340    MY   H2S 13374     0.053944      1.00800 ; qtot -0.000
 13375   cC   341    PC   C11 13375     0.910403     12.01000 ; qtot 0.910
 13376   oC   341    PC   O12 13376    -0.671566     16.00000 ; qtot 0.239
 13377   oS   341    PC   O11 13377    -0.575489     16.00000 ; qtot -0.337
 13378   cA   341    PC    C1 13378     0.196939     12.01000 ; qtot -0.140
 13379   hE   341    PC    HR 13379     0.070469      1.00800 ; qtot -0.069
 13380   hE   341    PC    HS 13380     0.070469      1.00800 ; qtot 0.001
 13381   cA   341    PC    C2 13381     0.281242     12.01000 ; qtot 0.282
 13382   hE   341    PC    HX 13382     0.063253      1.00800 ; qtot 0.346
 13383   cA   341    PC    C3 13383     0.017459     12.01000 ; qtot 0.363
 13384   hE   341    PC    HA 13384     0.095591      1.00800 ; qtot 0.459
 13385   hE   341    PC    HB 13385     0.095591      1.00800 ; qtot 0.554
 13386   oT   341    PC   O31 13386    -0.509480     16.00000 ; qtot 0.045
 13387   pA   341    PC   P31 13387     1.339721     30.97000 ; qtot 1.385
 13388   oT   341    PC   O32 13388    -0.508176     16.00000 ; qtot 0.876
 13389   cA   341    PC   C31 13389     0.166801     12.01000 ; qtot 1.043
 13390   hE   341    PC   H1A 13390     0.078534      1.00800 ; qtot 1.122
 13391   hE   341    PC   H1B 13391     0.078534      1.00800 ; qtot 1.200
 13392   cA   341    PC   C32 13392    -0.170824     12.01000 ; qtot 1.029
 13393   hX   341    PC   H2A 13393     0.136415      1.00800 ; qtot 1.166
 13394   hX   341    PC   H2B 13394     0.136415      1.00800 ; qtot 1.302
 13395   nA   341    PC   N31 13395     0.245262     14.01000 ; qtot 1.548
 13396   cA   341    PC   C33 13396    -0.338973     12.01000 ; qtot 1.209
 13397   hX   341    PC   H3A 13397     0.172230      1.00800 ; qtot 1.381
 13398   hX   341    PC   H3B 13398     0.172230      1.00800 ; qtot 1.553
 13399   hX   341    PC   H3C 13399     0.172230      1.00800 ; qtot 1.725
 13400   cA   341    PC   C34 13400    -0.338973     12.01000 ; qtot 1.386
 13401   hX   341    PC   H4A 13401     0.172230      1.00800 ; qtot 1.559
 13402   hX   341    PC   H4B 13402     0.172230      1.00800 ; qtot 1.731
 13403   hX   341    PC   H4C 13403     0.172230      1.00800 ; qtot 1.903
 13404   cA   341    PC   C35 13404    -0.338973     12.01000 ; qtot 1.564
 13405   hX   341    PC   H5A 13405     0.172230      1.00800 ; qtot 1.736
 13406   hX   341    PC   H5B 13406     0.172230      1.00800 ; qtot 1.908
 13407   hX   341    PC   H5C 13407     0.172230      1.00800 ; qtot 2.081
 13408   oP   341    PC   O33 13408    -0.875812     16.00000 ; qtot 1.205
 13409   oP   341    PC   O34 13409    -0.875812     16.00000 ; qtot 0.329
 13410   oS   341    PC   O21 13410    -0.552948     16.00000 ; qtot -0.224
 13411   cC   341    PC   C21 13411     0.897613     12.01000 ; qtot 0.674
 13412   oC   341    PC   O22 13412    -0.673755     16.00000 ; qtot 0.000
 13413   hL   342    MY  H14T 13413     0.025511      1.00800 ; qtot 0.026
 13414   cD   342    MY  C114 13414    -0.111712     12.01000 ; qtot -0.086
 13415   hL   342    MY  H14R 13415     0.025511      1.00800 ; qtot -0.061
 13416   hL   342    MY  H14S 13416     0.025511      1.00800 ; qtot -0.035
 13417   cD   342    MY  C113 13417     0.017463     12.01000 ; qtot -0.018
 13418   hL   342    MY  H13R 13418     0.007531      1.00800 ; qtot -0.010
 13419   hL   342    MY  H13S 13419     0.007531      1.00800 ; qtot -0.003
 13420   cD   342    MY  C112 13420    -0.028094     12.01000 ; qtot -0.031
 13421   hL   342    MY  H12R 13421     0.017208      1.00800 ; qtot -0.014
 13422   hL   342    MY  H12S 13422     0.017208      1.00800 ; qtot 0.004
 13423   cD   342    MY  C111 13423    -0.031787     12.01000 ; qtot -0.028
 13424   hL   342    MY  H11R 13424     0.012677      1.00800 ; qtot -0.015
 13425   hL   342    MY  H11S 13425     0.012677      1.00800 ; qtot -0.003
 13426   cD   342    MY  C110 13426    -0.021025     12.01000 ; qtot -0.024
 13427   hL   342    MY  H10R 13427     0.010037      1.00800 ; qtot -0.014
 13428   hL   342    MY  H10S 13428     0.010037      1.00800 ; qtot -0.004
 13429   cD   342    MY   C19 13429    -0.014653     12.01000 ; qtot -0.018
 13430   hL   342    MY   H9R 13430     0.010172      1.00800 ; qtot -0.008
 13431   hL   342    MY   H9S 13431     0.010172      1.00800 ; qtot 0.002
 13432   cD   342    MY   C18 13432    -0.026451     12.01000 ; qtot -0.024
 13433   hL   342    MY   H8R 13433     0.011241      1.00800 ; qtot -0.013
 13434   hL   342    MY   H8S 13434     0.011241      1.00800 ; qtot -0.002
 13435   cD   342    MY   C17 13435    -0.004386     12.01000 ; qtot -0.006
 13436   hL   342    MY   H7R 13436     0.006833      1.00800 ; qtot 0.000
 13437   hL   342    MY   H7S 13437     0.006833      1.00800 ; qtot 0.007
 13438   cD   342    MY   C16 13438    -0.027812     12.01000 ; qtot -0.021
 13439   hL   342    MY   H6R 13439     0.011511      1.00800 ; qtot -0.009
 13440   hL   342    MY   H6S 13440     0.011511      1.00800 ; qtot 0.002
 13441   cD   342    MY   C15 13441    -0.016521     12.01000 ; qtot -0.014
 13442   hL   342    MY   H5R 13442     0.010573      1.00800 ; qtot -0.003
 13443   hL   342    MY   H5S 13443     0.010573      1.00800 ; qtot 0.007
 13444   cD   342    MY   C14 13444    -0.026954     12.01000 ; qtot -0.020
 13445   hL   342    MY   H4R 13445     0.020431      1.00800 ; qtot 0.001
 13446   hL   342    MY   H4S 13446     0.020431      1.00800 ; qtot 0.021
 13447   cD   342    MY   C13 13447    -0.002435     12.01000 ; qtot 0.019
 13448   hL   342    MY   H3R 13448     0.018859      1.00800 ; qtot 0.037
 13449   hL   342    MY   H3S 13449     0.018859      1.00800 ; qtot 0.056
 13450   cD   342    MY   C12 13450    -0.164200     12.01000 ; qtot -0.108
 13451   hL   342    MY   H2R 13451     0.053944      1.00800 ; qtot -0.054
 13452   hL   342    MY   H2S 13452     0.053944      1.00800 ; qtot -0.000
 13453   hL   343    MY  H14T 13453     0.025511      1.00800 ; qtot 0.026
 13454   cD   343    MY  C114 13454    -0.111712     12.01000 ; qtot -0.086
 13455   hL   343    MY  H14R 13455     0.025511      1.00800 ; qtot -0.061
 13456   hL   343    MY  H14S 13456     0.025511      1.00800 ; qtot -0.035
 13457   cD   343    MY  C113 13457     0.017463     12.01000 ; qtot -0.018
 13458   hL   343    MY  H13R 13458     0.007531      1.00800 ; qtot -0.010
 13459   hL   343    MY  H13S 13459     0.007531      1.00800 ; qtot -0.003
 13460   cD   343    MY  C112 13460    -0.028094     12.01000 ; qtot -0.031
 13461   hL   343    MY  H12R 13461     0.017208      1.00800 ; qtot -0.014
 13462   hL   343    MY  H12S 13462     0.017208      1.00800 ; qtot 0.004
 13463   cD   343    MY  C111 13463    -0.031787     12.01000 ; qtot -0.028
 13464   hL   343    MY  H11R 13464     0.012677      1.00800 ; qtot -0.015
 13465   hL   343    MY  H11S 13465     0.012677      1.00800 ; qtot -0.003
 13466   cD   343    MY  C110 13466    -0.021025     12.01000 ; qtot -0.024
 13467   hL   343    MY  H10R 13467     0.010037      1.00800 ; qtot -0.014
 13468   hL   343    MY  H10S 13468     0.010037      1.00800 ; qtot -0.004
 13469   cD   343    MY   C19 13469    -0.014653     12.01000 ; qtot -0.018
 13470   hL   343    MY   H9R 13470     0.010172      1.00800 ; qtot -0.008
 13471   hL   343    MY   H9S 13471     0.010172      1.00800 ; qtot 0.002
 13472   cD   343    MY   C18 13472    -0.026451     12.01000 ; qtot -0.024
 13473   hL   343    MY   H8R 13473     0.011241      1.00800 ; qtot -0.013
 13474   hL   343    MY   H8S 13474     0.011241      1.00800 ; qtot -0.002
 13475   cD   343    MY   C17 13475    -0.004386     12.01000 ; qtot -0.006
 13476   hL   343    MY   H7R 13476     0.006833      1.00800 ; qtot 0.000
 13477   hL   343    MY   H7S 13477     0.006833      1.00800 ; qtot 0.007
 13478   cD   343    MY   C16 13478    -0.027812     12.01000 ; qtot -0.021
 13479   hL   343    MY   H6R 13479     0.011511      1.00800 ; qtot -0.009
 13480   hL   343    MY   H6S 13480     0.011511      1.00800 ; qtot 0.002
 13481   cD   343    MY   C15 13481    -0.016521     12.01000 ; qtot -0.014
 13482   hL   343    MY   H5R 13482     0.010573      1.00800 ; qtot -0.003
 13483   hL   343    MY   H5S 13483     0.010573      1.00800 ; qtot 0.007
 13484   cD   343    MY   C14 13484    -0.026954     12.01000 ; qtot -0.020
 13485   hL   343    MY   H4R 13485     0.020431      1.00800 ; qtot 0.001
 13486   hL   343    MY   H4S 13486     0.020431      1.00800 ; qtot 0.021
 13487   cD   343    MY   C13 13487    -0.002435     12.01000 ; qtot 0.019
 13488   hL   343    MY   H3R 13488     0.018859      1.00800 ; qtot 0.037
 13489   hL   343    MY   H3S 13489     0.018859      1.00800 ; qtot 0.056
 13490   cD   343    MY   C12 13490    -0.164200     12.01000 ; qtot -0.108
 13491   hL   343    MY   H2R 13491     0.053944      1.00800 ; qtot -0.054
 13492   hL   343    MY   H2S 13492     0.053944      1.00800 ; qtot -0.000
 13493   cC   344    PC   C11 13493     0.910403     12.01000 ; qtot 0.910
 13494   oC   344    PC   O12 13494    -0.671566     16.00000 ; qtot 0.239
 13495   oS   344    PC   O11 13495    -0.575489     16.00000 ; qtot -0.337
 13496   cA   344    PC    C1 13496     0.196939     12.01000 ; qtot -0.140
 13497   hE   344    PC    HR 13497     0.070469      1.00800 ; qtot -0.069
 13498   hE   344    PC    HS 13498     0.070469      1.00800 ; qtot 0.001
 13499   cA   344    PC    C2 13499     0.281242     12.01000 ; qtot 0.282
 13500   hE   344    PC    HX 13500     0.063253      1.00800 ; qtot 0.346
 13501   cA   344    PC    C3 13501     0.017459     12.01000 ; qtot 0.363
 13502   hE   344    PC    HA 13502     0.095591      1.00800 ; qtot 0.459
 13503   hE   344    PC    HB 13503     0.095591      1.00800 ; qtot 0.554
 13504   oT   344    PC   O31 13504    -0.509480     16.00000 ; qtot 0.045
 13505   pA   344    PC   P31 13505     1.339721     30.97000 ; qtot 1.385
 13506   oT   344    PC   O32 13506    -0.508176     16.00000 ; qtot 0.876
 13507   cA   344    PC   C31 13507     0.166801     12.01000 ; qtot 1.043
 13508   hE   344    PC   H1A 13508     0.078534      1.00800 ; qtot 1.122
 13509   hE   344    PC   H1B 13509     0.078534      1.00800 ; qtot 1.200
 13510   cA   344    PC   C32 13510    -0.170824     12.01000 ; qtot 1.029
 13511   hX   344    PC   H2A 13511     0.136415      1.00800 ; qtot 1.166
 13512   hX   344    PC   H2B 13512     0.136415      1.00800 ; qtot 1.302
 13513   nA   344    PC   N31 13513     0.245262     14.01000 ; qtot 1.548
 13514   cA   344    PC   C33 13514    -0.338973     12.01000 ; qtot 1.209
 13515   hX   344    PC   H3A 13515     0.172230      1.00800 ; qtot 1.381
 13516   hX   344    PC   H3B 13516     0.172230      1.00800 ; qtot 1.553
 13517   hX   344    PC   H3C 13517     0.172230      1.00800 ; qtot 1.725
 13518   cA   344    PC   C34 13518    -0.338973     12.01000 ; qtot 1.386
 13519   hX   344    PC   H4A 13519     0.172230      1.00800 ; qtot 1.559
 13520   hX   344    PC   H4B 13520     0.172230      1.00800 ; qtot 1.731
 13521   hX   344    PC   H4C 13521     0.172230      1.00800 ; qtot 1.903
 13522   cA   344    PC   C35 13522    -0.338973     12.01000 ; qtot 1.564
 13523   hX   344    PC   H5A 13523     0.172230      1.00800 ; qtot 1.736
 13524   hX   344    PC   H5B 13524     0.172230      1.00800 ; qtot 1.908
 13525   hX   344    PC   H5C 13525     0.172230      1.00800 ; qtot 2.081
 13526   oP   344    PC   O33 13526    -0.875812     16.00000 ; qtot 1.205
 13527   oP   344    PC   O34 13527    -0.875812     16.00000 ; qtot 0.329
 13528   oS   344    PC   O21 13528    -0.552948     16.00000 ; qtot -0.224
 13529   cC   344    PC   C21 13529     0.897613     12.01000 ; qtot 0.674
 13530   oC   344    PC   O22 13530    -0.673755     16.00000 ; qtot 0.000
 13531   hL   345    MY  H14T 13531     0.025511      1.00800 ; qtot 0.026
 13532   cD   345    MY  C114 13532    -0.111712     12.01000 ; qtot -0.086
 13533   hL   345    MY  H14R 13533     0.025511      1.00800 ; qtot -0.061
 13534   hL   345    MY  H14S 13534     0.025511      1.00800 ; qtot -0.035
 13535   cD   345    MY  C113 13535     0.017463     12.01000 ; qtot -0.018
 13536   hL   345    MY  H13R 13536     0.007531      1.00800 ; qtot -0.010
 13537   hL   345    MY  H13S 13537     0.007531      1.00800 ; qtot -0.003
 13538   cD   345    MY  C112 13538    -0.028094     12.01000 ; qtot -0.031
 13539   hL   345    MY  H12R 13539     0.017208      1.00800 ; qtot -0.014
 13540   hL   345    MY  H12S 13540     0.017208      1.00800 ; qtot 0.004
 13541   cD   345    MY  C111 13541    -0.031787     12.01000 ; qtot -0.028
 13542   hL   345    MY  H11R 13542     0.012677      1.00800 ; qtot -0.015
 13543   hL   345    MY  H11S 13543     0.012677      1.00800 ; qtot -0.003
 13544   cD   345    MY  C110 13544    -0.021025     12.01000 ; qtot -0.024
 13545   hL   345    MY  H10R 13545     0.010037      1.00800 ; qtot -0.014
 13546   hL   345    MY  H10S 13546     0.010037      1.00800 ; qtot -0.004
 13547   cD   345    MY   C19 13547    -0.014653     12.01000 ; qtot -0.018
 13548   hL   345    MY   H9R 13548     0.010172      1.00800 ; qtot -0.008
 13549   hL   345    MY   H9S 13549     0.010172      1.00800 ; qtot 0.002
 13550   cD   345    MY   C18 13550    -0.026451     12.01000 ; qtot -0.024
 13551   hL   345    MY   H8R 13551     0.011241      1.00800 ; qtot -0.013
 13552   hL   345    MY   H8S 13552     0.011241      1.00800 ; qtot -0.002
 13553   cD   345    MY   C17 13553    -0.004386     12.01000 ; qtot -0.006
 13554   hL   345    MY   H7R 13554     0.006833      1.00800 ; qtot 0.000
 13555   hL   345    MY   H7S 13555     0.006833      1.00800 ; qtot 0.007
 13556   cD   345    MY   C16 13556    -0.027812     12.01000 ; qtot -0.021
 13557   hL   345    MY   H6R 13557     0.011511      1.00800 ; qtot -0.009
 13558   hL   345    MY   H6S 13558     0.011511      1.00800 ; qtot 0.002
 13559   cD   345    MY   C15 13559    -0.016521     12.01000 ; qtot -0.014
 13560   hL   345    MY   H5R 13560     0.010573      1.00800 ; qtot -0.003
 13561   hL   345    MY   H5S 13561     0.010573      1.00800 ; qtot 0.007
 13562   cD   345    MY   C14 13562    -0.026954     12.01000 ; qtot -0.020
 13563   hL   345    MY   H4R 13563     0.020431      1.00800 ; qtot 0.001
 13564   hL   345    MY   H4S 13564     0.020431      1.00800 ; qtot 0.021
 13565   cD   345    MY   C13 13565    -0.002435     12.01000 ; qtot 0.019
 13566   hL   345    MY   H3R 13566     0.018859      1.00800 ; qtot 0.037
 13567   hL   345    MY   H3S 13567     0.018859      1.00800 ; qtot 0.056
 13568   cD   345    MY   C12 13568    -0.164200     12.01000 ; qtot -0.108
 13569   hL   345    MY   H2R 13569     0.053944      1.00800 ; qtot -0.054
 13570   hL   345    MY   H2S 13570     0.053944      1.00800 ; qtot -0.000
 13571   hL   346    MY  H14T 13571     0.025511      1.00800 ; qtot 0.026
 13572   cD   346    MY  C114 13572    -0.111712     12.01000 ; qtot -0.086
 13573   hL   346    MY  H14R 13573     0.025511      1.00800 ; qtot -0.061
 13574   hL   346    MY  H14S 13574     0.025511      1.00800 ; qtot -0.035
 13575   cD   346    MY  C113 13575     0.017463     12.01000 ; qtot -0.018
 13576   hL   346    MY  H13R 13576     0.007531      1.00800 ; qtot -0.010
 13577   hL   346    MY  H13S 13577     0.007531      1.00800 ; qtot -0.003
 13578   cD   346    MY  C112 13578    -0.028094     12.01000 ; qtot -0.031
 13579   hL   346    MY  H12R 13579     0.017208      1.00800 ; qtot -0.014
 13580   hL   346    MY  H12S 13580     0.017208      1.00800 ; qtot 0.004
 13581   cD   346    MY  C111 13581    -0.031787     12.01000 ; qtot -0.028
 13582   hL   346    MY  H11R 13582     0.012677      1.00800 ; qtot -0.015
 13583   hL   346    MY  H11S 13583     0.012677      1.00800 ; qtot -0.003
 13584   cD   346    MY  C110 13584    -0.021025     12.01000 ; qtot -0.024
 13585   hL   346    MY  H10R 13585     0.010037      1.00800 ; qtot -0.014
 13586   hL   346    MY  H10S 13586     0.010037      1.00800 ; qtot -0.004
 13587   cD   346    MY   C19 13587    -0.014653     12.01000 ; qtot -0.018
 13588   hL   346    MY   H9R 13588     0.010172      1.00800 ; qtot -0.008
 13589   hL   346    MY   H9S 13589     0.010172      1.00800 ; qtot 0.002
 13590   cD   346    MY   C18 13590    -0.026451     12.01000 ; qtot -0.024
 13591   hL   346    MY   H8R 13591     0.011241      1.00800 ; qtot -0.013
 13592   hL   346    MY   H8S 13592     0.011241      1.00800 ; qtot -0.002
 13593   cD   346    MY   C17 13593    -0.004386     12.01000 ; qtot -0.006
 13594   hL   346    MY   H7R 13594     0.006833      1.00800 ; qtot 0.000
 13595   hL   346    MY   H7S 13595     0.006833      1.00800 ; qtot 0.007
 13596   cD   346    MY   C16 13596    -0.027812     12.01000 ; qtot -0.021
 13597   hL   346    MY   H6R 13597     0.011511      1.00800 ; qtot -0.009
 13598   hL   346    MY   H6S 13598     0.011511      1.00800 ; qtot 0.002
 13599   cD   346    MY   C15 13599    -0.016521     12.01000 ; qtot -0.014
 13600   hL   346    MY   H5R 13600     0.010573      1.00800 ; qtot -0.003
 13601   hL   346    MY   H5S 13601     0.010573      1.00800 ; qtot 0.007
 13602   cD   346    MY   C14 13602    -0.026954     12.01000 ; qtot -0.020
 13603   hL   346    MY   H4R 13603     0.020431      1.00800 ; qtot 0.001
 13604   hL   346    MY   H4S 13604     0.020431      1.00800 ; qtot 0.021
 13605   cD   346    MY   C13 13605    -0.002435     12.01000 ; qtot 0.019
 13606   hL   346    MY   H3R 13606     0.018859      1.00800 ; qtot 0.037
 13607   hL   346    MY   H3S 13607     0.018859      1.00800 ; qtot 0.056
 13608   cD   346    MY   C12 13608    -0.164200     12.01000 ; qtot -0.108
 13609   hL   346    MY   H2R 13609     0.053944      1.00800 ; qtot -0.054
 13610   hL   346    MY   H2S 13610     0.053944      1.00800 ; qtot -0.000
 13611   cC   347    PC   C11 13611     0.910403     12.01000 ; qtot 0.910
 13612   oC   347    PC   O12 13612    -0.671566     16.00000 ; qtot 0.239
 13613   oS   347    PC   O11 13613    -0.575489     16.00000 ; qtot -0.337
 13614   cA   347    PC    C1 13614     0.196939     12.01000 ; qtot -0.140
 13615   hE   347    PC    HR 13615     0.070469      1.00800 ; qtot -0.069
 13616   hE   347    PC    HS 13616     0.070469      1.00800 ; qtot 0.001
 13617   cA   347    PC    C2 13617     0.281242     12.01000 ; qtot 0.282
 13618   hE   347    PC    HX 13618     0.063253      1.00800 ; qtot 0.346
 13619   cA   347    PC    C3 13619     0.017459     12.01000 ; qtot 0.363
 13620   hE   347    PC    HA 13620     0.095591      1.00800 ; qtot 0.459
 13621   hE   347    PC    HB 13621     0.095591      1.00800 ; qtot 0.554
 13622   oT   347    PC   O31 13622    -0.509480     16.00000 ; qtot 0.045
 13623   pA   347    PC   P31 13623     1.339721     30.97000 ; qtot 1.385
 13624   oT   347    PC   O32 13624    -0.508176     16.00000 ; qtot 0.876
 13625   cA   347    PC   C31 13625     0.166801     12.01000 ; qtot 1.043
 13626   hE   347    PC   H1A 13626     0.078534      1.00800 ; qtot 1.122
 13627   hE   347    PC   H1B 13627     0.078534      1.00800 ; qtot 1.200
 13628   cA   347    PC   C32 13628    -0.170824     12.01000 ; qtot 1.029
 13629   hX   347    PC   H2A 13629     0.136415      1.00800 ; qtot 1.166
 13630   hX   347    PC   H2B 13630     0.136415      1.00800 ; qtot 1.302
 13631   nA   347    PC   N31 13631     0.245262     14.01000 ; qtot 1.548
 13632   cA   347    PC   C33 13632    -0.338973     12.01000 ; qtot 1.209
 13633   hX   347    PC   H3A 13633     0.172230      1.00800 ; qtot 1.381
 13634   hX   347    PC   H3B 13634     0.172230      1.00800 ; qtot 1.553
 13635   hX   347    PC   H3C 13635     0.172230      1.00800 ; qtot 1.725
 13636   cA   347    PC   C34 13636    -0.338973     12.01000 ; qtot 1.386
 13637   hX   347    PC   H4A 13637     0.172230      1.00800 ; qtot 1.559
 13638   hX   347    PC   H4B 13638     0.172230      1.00800 ; qtot 1.731
 13639   hX   347    PC   H4C 13639     0.172230      1.00800 ; qtot 1.903
 13640   cA   347    PC   C35 13640    -0.338973     12.01000 ; qtot 1.564
 13641   hX   347    PC   H5A 13641     0.172230      1.00800 ; qtot 1.736
 13642   hX   347    PC   H5B 13642     0.172230      1.00800 ; qtot 1.908
 13643   hX   347    PC   H5C 13643     0.172230      1.00800 ; qtot 2.081
 13644   oP   347    PC   O33 13644    -0.875812     16.00000 ; qtot 1.205
 13645   oP   347    PC   O34 13645    -0.875812     16.00000 ; qtot 0.329
 13646   oS   347    PC   O21 13646    -0.552948     16.00000 ; qtot -0.224
 13647   cC   347    PC   C21 13647     0.897613     12.01000 ; qtot 0.674
 13648   oC   347    PC   O22 13648    -0.673755     16.00000 ; qtot 0.000
 13649   hL   348    MY  H14T 13649     0.025511      1.00800 ; qtot 0.026
 13650   cD   348    MY  C114 13650    -0.111712     12.01000 ; qtot -0.086
 13651   hL   348    MY  H14R 13651     0.025511      1.00800 ; qtot -0.061
 13652   hL   348    MY  H14S 13652     0.025511      1.00800 ; qtot -0.035
 13653   cD   348    MY  C113 13653     0.017463     12.01000 ; qtot -0.018
 13654   hL   348    MY  H13R 13654     0.007531      1.00800 ; qtot -0.010
 13655   hL   348    MY  H13S 13655     0.007531      1.00800 ; qtot -0.003
 13656   cD   348    MY  C112 13656    -0.028094     12.01000 ; qtot -0.031
 13657   hL   348    MY  H12R 13657     0.017208      1.00800 ; qtot -0.014
 13658   hL   348    MY  H12S 13658     0.017208      1.00800 ; qtot 0.004
 13659   cD   348    MY  C111 13659    -0.031787     12.01000 ; qtot -0.028
 13660   hL   348    MY  H11R 13660     0.012677      1.00800 ; qtot -0.015
 13661   hL   348    MY  H11S 13661     0.012677      1.00800 ; qtot -0.003
 13662   cD   348    MY  C110 13662    -0.021025     12.01000 ; qtot -0.024
 13663   hL   348    MY  H10R 13663     0.010037      1.00800 ; qtot -0.014
 13664   hL   348    MY  H10S 13664     0.010037      1.00800 ; qtot -0.004
 13665   cD   348    MY   C19 13665    -0.014653     12.01000 ; qtot -0.018
 13666   hL   348    MY   H9R 13666     0.010172      1.00800 ; qtot -0.008
 13667   hL   348    MY   H9S 13667     0.010172      1.00800 ; qtot 0.002
 13668   cD   348    MY   C18 13668    -0.026451     12.01000 ; qtot -0.024
 13669   hL   348    MY   H8R 13669     0.011241      1.00800 ; qtot -0.013
 13670   hL   348    MY   H8S 13670     0.011241      1.00800 ; qtot -0.002
 13671   cD   348    MY   C17 13671    -0.004386     12.01000 ; qtot -0.006
 13672   hL   348    MY   H7R 13672     0.006833      1.00800 ; qtot 0.000
 13673   hL   348    MY   H7S 13673     0.006833      1.00800 ; qtot 0.007
 13674   cD   348    MY   C16 13674    -0.027812     12.01000 ; qtot -0.021
 13675   hL   348    MY   H6R 13675     0.011511      1.00800 ; qtot -0.009
 13676   hL   348    MY   H6S 13676     0.011511      1.00800 ; qtot 0.002
 13677   cD   348    MY   C15 13677    -0.016521     12.01000 ; qtot -0.014
 13678   hL   348    MY   H5R 13678     0.010573      1.00800 ; qtot -0.003
 13679   hL   348    MY   H5S 13679     0.010573      1.00800 ; qtot 0.007
 13680   cD   348    MY   C14 13680    -0.026954     12.01000 ; qtot -0.020
 13681   hL   348    MY   H4R 13681     0.020431      1.00800 ; qtot 0.001
 13682   hL   348    MY   H4S 13682     0.020431      1.00800 ; qtot 0.021
 13683   cD   348    MY   C13 13683    -0.002435     12.01000 ; qtot 0.019
 13684   hL   348    MY   H3R 13684     0.018859      1.00800 ; qtot 0.037
 13685   hL   348    MY   H3S 13685     0.018859      1.00800 ; qtot 0.056
 13686   cD   348    MY   C12 13686    -0.164200     12.01000 ; qtot -0.108
 13687   hL   348    MY   H2R 13687     0.053944      1.00800 ; qtot -0.054
 13688   hL   348    MY   H2S 13688     0.053944      1.00800 ; qtot -0.000
 13689   hL   349    MY  H14T 13689     0.025511      1.00800 ; qtot 0.026
 13690   cD   349    MY  C114 13690    -0.111712     12.01000 ; qtot -0.086
 13691   hL   349    MY  H14R 13691     0.025511      1.00800 ; qtot -0.061
 13692   hL   349    MY  H14S 13692     0.025511      1.00800 ; qtot -0.035
 13693   cD   349    MY  C113 13693     0.017463     12.01000 ; qtot -0.018
 13694   hL   349    MY  H13R 13694     0.007531      1.00800 ; qtot -0.010
 13695   hL   349    MY  H13S 13695     0.007531      1.00800 ; qtot -0.003
 13696   cD   349    MY  C112 13696    -0.028094     12.01000 ; qtot -0.031
 13697   hL   349    MY  H12R 13697     0.017208      1.00800 ; qtot -0.014
 13698   hL   349    MY  H12S 13698     0.017208      1.00800 ; qtot 0.004
 13699   cD   349    MY  C111 13699    -0.031787     12.01000 ; qtot -0.028
 13700   hL   349    MY  H11R 13700     0.012677      1.00800 ; qtot -0.015
 13701   hL   349    MY  H11S 13701     0.012677      1.00800 ; qtot -0.003
 13702   cD   349    MY  C110 13702    -0.021025     12.01000 ; qtot -0.024
 13703   hL   349    MY  H10R 13703     0.010037      1.00800 ; qtot -0.014
 13704   hL   349    MY  H10S 13704     0.010037      1.00800 ; qtot -0.004
 13705   cD   349    MY   C19 13705    -0.014653     12.01000 ; qtot -0.018
 13706   hL   349    MY   H9R 13706     0.010172      1.00800 ; qtot -0.008
 13707   hL   349    MY   H9S 13707     0.010172      1.00800 ; qtot 0.002
 13708   cD   349    MY   C18 13708    -0.026451     12.01000 ; qtot -0.024
 13709   hL   349    MY   H8R 13709     0.011241      1.00800 ; qtot -0.013
 13710   hL   349    MY   H8S 13710     0.011241      1.00800 ; qtot -0.002
 13711   cD   349    MY   C17 13711    -0.004386     12.01000 ; qtot -0.006
 13712   hL   349    MY   H7R 13712     0.006833      1.00800 ; qtot 0.000
 13713   hL   349    MY   H7S 13713     0.006833      1.00800 ; qtot 0.007
 13714   cD   349    MY   C16 13714    -0.027812     12.01000 ; qtot -0.021
 13715   hL   349    MY   H6R 13715     0.011511      1.00800 ; qtot -0.009
 13716   hL   349    MY   H6S 13716     0.011511      1.00800 ; qtot 0.002
 13717   cD   349    MY   C15 13717    -0.016521     12.01000 ; qtot -0.014
 13718   hL   349    MY   H5R 13718     0.010573      1.00800 ; qtot -0.003
 13719   hL   349    MY   H5S 13719     0.010573      1.00800 ; qtot 0.007
 13720   cD   349    MY   C14 13720    -0.026954     12.01000 ; qtot -0.020
 13721   hL   349    MY   H4R 13721     0.020431      1.00800 ; qtot 0.001
 13722   hL   349    MY   H4S 13722     0.020431      1.00800 ; qtot 0.021
 13723   cD   349    MY   C13 13723    -0.002435     12.01000 ; qtot 0.019
 13724   hL   349    MY   H3R 13724     0.018859      1.00800 ; qtot 0.037
 13725   hL   349    MY   H3S 13725     0.018859      1.00800 ; qtot 0.056
 13726   cD   349    MY   C12 13726    -0.164200     12.01000 ; qtot -0.108
 13727   hL   349    MY   H2R 13727     0.053944      1.00800 ; qtot -0.054
 13728   hL   349    MY   H2S 13728     0.053944      1.00800 ; qtot -0.000
 13729   cC   350    PC   C11 13729     0.910403     12.01000 ; qtot 0.910
 13730   oC   350    PC   O12 13730    -0.671566     16.00000 ; qtot 0.239
 13731   oS   350    PC   O11 13731    -0.575489     16.00000 ; qtot -0.337
 13732   cA   350    PC    C1 13732     0.196939     12.01000 ; qtot -0.140
 13733   hE   350    PC    HR 13733     0.070469      1.00800 ; qtot -0.069
 13734   hE   350    PC    HS 13734     0.070469      1.00800 ; qtot 0.001
 13735   cA   350    PC    C2 13735     0.281242     12.01000 ; qtot 0.282
 13736   hE   350    PC    HX 13736     0.063253      1.00800 ; qtot 0.346
 13737   cA   350    PC    C3 13737     0.017459     12.01000 ; qtot 0.363
 13738   hE   350    PC    HA 13738     0.095591      1.00800 ; qtot 0.459
 13739   hE   350    PC    HB 13739     0.095591      1.00800 ; qtot 0.554
 13740   oT   350    PC   O31 13740    -0.509480     16.00000 ; qtot 0.045
 13741   pA   350    PC   P31 13741     1.339721     30.97000 ; qtot 1.385
 13742   oT   350    PC   O32 13742    -0.508176     16.00000 ; qtot 0.876
 13743   cA   350    PC   C31 13743     0.166801     12.01000 ; qtot 1.043
 13744   hE   350    PC   H1A 13744     0.078534      1.00800 ; qtot 1.122
 13745   hE   350    PC   H1B 13745     0.078534      1.00800 ; qtot 1.200
 13746   cA   350    PC   C32 13746    -0.170824     12.01000 ; qtot 1.029
 13747   hX   350    PC   H2A 13747     0.136415      1.00800 ; qtot 1.166
 13748   hX   350    PC   H2B 13748     0.136415      1.00800 ; qtot 1.302
 13749   nA   350    PC   N31 13749     0.245262     14.01000 ; qtot 1.548
 13750   cA   350    PC   C33 13750    -0.338973     12.01000 ; qtot 1.209
 13751   hX   350    PC   H3A 13751     0.172230      1.00800 ; qtot 1.381
 13752   hX   350    PC   H3B 13752     0.172230      1.00800 ; qtot 1.553
 13753   hX   350    PC   H3C 13753     0.172230      1.00800 ; qtot 1.725
 13754   cA   350    PC   C34 13754    -0.338973     12.01000 ; qtot 1.386
 13755   hX   350    PC   H4A 13755     0.172230      1.00800 ; qtot 1.559
 13756   hX   350    PC   H4B 13756     0.172230      1.00800 ; qtot 1.731
 13757   hX   350    PC   H4C 13757     0.172230      1.00800 ; qtot 1.903
 13758   cA   350    PC   C35 13758    -0.338973     12.01000 ; qtot 1.564
 13759   hX   350    PC   H5A 13759     0.172230      1.00800 ; qtot 1.736
 13760   hX   350    PC   H5B 13760     0.172230      1.00800 ; qtot 1.908
 13761   hX   350    PC   H5C 13761     0.172230      1.00800 ; qtot 2.081
 13762   oP   350    PC   O33 13762    -0.875812     16.00000 ; qtot 1.205
 13763   oP   350    PC   O34 13763    -0.875812     16.00000 ; qtot 0.329
 13764   oS   350    PC   O21 13764    -0.552948     16.00000 ; qtot -0.224
 13765   cC   350    PC   C21 13765     0.897613     12.01000 ; qtot 0.674
 13766   oC   350    PC   O22 13766    -0.673755     16.00000 ; qtot 0.000
 13767   hL   351    MY  H14T 13767     0.025511      1.00800 ; qtot 0.026
 13768   cD   351    MY  C114 13768    -0.111712     12.01000 ; qtot -0.086
 13769   hL   351    MY  H14R 13769     0.025511      1.00800 ; qtot -0.061
 13770   hL   351    MY  H14S 13770     0.025511      1.00800 ; qtot -0.035
 13771   cD   351    MY  C113 13771     0.017463     12.01000 ; qtot -0.018
 13772   hL   351    MY  H13R 13772     0.007531      1.00800 ; qtot -0.010
 13773   hL   351    MY  H13S 13773     0.007531      1.00800 ; qtot -0.003
 13774   cD   351    MY  C112 13774    -0.028094     12.01000 ; qtot -0.031
 13775   hL   351    MY  H12R 13775     0.017208      1.00800 ; qtot -0.014
 13776   hL   351    MY  H12S 13776     0.017208      1.00800 ; qtot 0.004
 13777   cD   351    MY  C111 13777    -0.031787     12.01000 ; qtot -0.028
 13778   hL   351    MY  H11R 13778     0.012677      1.00800 ; qtot -0.015
 13779   hL   351    MY  H11S 13779     0.012677      1.00800 ; qtot -0.003
 13780   cD   351    MY  C110 13780    -0.021025     12.01000 ; qtot -0.024
 13781   hL   351    MY  H10R 13781     0.010037      1.00800 ; qtot -0.014
 13782   hL   351    MY  H10S 13782     0.010037      1.00800 ; qtot -0.004
 13783   cD   351    MY   C19 13783    -0.014653     12.01000 ; qtot -0.018
 13784   hL   351    MY   H9R 13784     0.010172      1.00800 ; qtot -0.008
 13785   hL   351    MY   H9S 13785     0.010172      1.00800 ; qtot 0.002
 13786   cD   351    MY   C18 13786    -0.026451     12.01000 ; qtot -0.024
 13787   hL   351    MY   H8R 13787     0.011241      1.00800 ; qtot -0.013
 13788   hL   351    MY   H8S 13788     0.011241      1.00800 ; qtot -0.002
 13789   cD   351    MY   C17 13789    -0.004386     12.01000 ; qtot -0.006
 13790   hL   351    MY   H7R 13790     0.006833      1.00800 ; qtot 0.000
 13791   hL   351    MY   H7S 13791     0.006833      1.00800 ; qtot 0.007
 13792   cD   351    MY   C16 13792    -0.027812     12.01000 ; qtot -0.021
 13793   hL   351    MY   H6R 13793     0.011511      1.00800 ; qtot -0.009
 13794   hL   351    MY   H6S 13794     0.011511      1.00800 ; qtot 0.002
 13795   cD   351    MY   C15 13795    -0.016521     12.01000 ; qtot -0.014
 13796   hL   351    MY   H5R 13796     0.010573      1.00800 ; qtot -0.003
 13797   hL   351    MY   H5S 13797     0.010573      1.00800 ; qtot 0.007
 13798   cD   351    MY   C14 13798    -0.026954     12.01000 ; qtot -0.020
 13799   hL   351    MY   H4R 13799     0.020431      1.00800 ; qtot 0.001
 13800   hL   351    MY   H4S 13800     0.020431      1.00800 ; qtot 0.021
 13801   cD   351    MY   C13 13801    -0.002435     12.01000 ; qtot 0.019
 13802   hL   351    MY   H3R 13802     0.018859      1.00800 ; qtot 0.037
 13803   hL   351    MY   H3S 13803     0.018859      1.00800 ; qtot 0.056
 13804   cD   351    MY   C12 13804    -0.164200     12.01000 ; qtot -0.108
 13805   hL   351    MY   H2R 13805     0.053944      1.00800 ; qtot -0.054
 13806   hL   351    MY   H2S 13806     0.053944      1.00800 ; qtot -0.000
 13807   hL   352    MY  H14T 13807     0.025511      1.00800 ; qtot 0.026
 13808   cD   352    MY  C114 13808    -0.111712     12.01000 ; qtot -0.086
 13809   hL   352    MY  H14R 13809     0.025511      1.00800 ; qtot -0.061
 13810   hL   352    MY  H14S 13810     0.025511      1.00800 ; qtot -0.035
 13811   cD   352    MY  C113 13811     0.017463     12.01000 ; qtot -0.018
 13812   hL   352    MY  H13R 13812     0.007531      1.00800 ; qtot -0.010
 13813   hL   352    MY  H13S 13813     0.007531      1.00800 ; qtot -0.003
 13814   cD   352    MY  C112 13814    -0.028094     12.01000 ; qtot -0.031
 13815   hL   352    MY  H12R 13815     0.017208      1.00800 ; qtot -0.014
 13816   hL   352    MY  H12S 13816     0.017208      1.00800 ; qtot 0.004
 13817   cD   352    MY  C111 13817    -0.031787     12.01000 ; qtot -0.028
 13818   hL   352    MY  H11R 13818     0.012677      1.00800 ; qtot -0.015
 13819   hL   352    MY  H11S 13819     0.012677      1.00800 ; qtot -0.003
 13820   cD   352    MY  C110 13820    -0.021025     12.01000 ; qtot -0.024
 13821   hL   352    MY  H10R 13821     0.010037      1.00800 ; qtot -0.014
 13822   hL   352    MY  H10S 13822     0.010037      1.00800 ; qtot -0.004
 13823   cD   352    MY   C19 13823    -0.014653     12.01000 ; qtot -0.018
 13824   hL   352    MY   H9R 13824     0.010172      1.00800 ; qtot -0.008
 13825   hL   352    MY   H9S 13825     0.010172      1.00800 ; qtot 0.002
 13826   cD   352    MY   C18 13826    -0.026451     12.01000 ; qtot -0.024
 13827   hL   352    MY   H8R 13827     0.011241      1.00800 ; qtot -0.013
 13828   hL   352    MY   H8S 13828     0.011241      1.00800 ; qtot -0.002
 13829   cD   352    MY   C17 13829    -0.004386     12.01000 ; qtot -0.006
 13830   hL   352    MY   H7R 13830     0.006833      1.00800 ; qtot 0.000
 13831   hL   352    MY   H7S 13831     0.006833      1.00800 ; qtot 0.007
 13832   cD   352    MY   C16 13832    -0.027812     12.01000 ; qtot -0.021
 13833   hL   352    MY   H6R 13833     0.011511      1.00800 ; qtot -0.009
 13834   hL   352    MY   H6S 13834     0.011511      1.00800 ; qtot 0.002
 13835   cD   352    MY   C15 13835    -0.016521     12.01000 ; qtot -0.014
 13836   hL   352    MY   H5R 13836     0.010573      1.00800 ; qtot -0.003
 13837   hL   352    MY   H5S 13837     0.010573      1.00800 ; qtot 0.007
 13838   cD   352    MY   C14 13838    -0.026954     12.01000 ; qtot -0.020
 13839   hL   352    MY   H4R 13839     0.020431      1.00800 ; qtot 0.001
 13840   hL   352    MY   H4S 13840     0.020431      1.00800 ; qtot 0.021
 13841   cD   352    MY   C13 13841    -0.002435     12.01000 ; qtot 0.019
 13842   hL   352    MY   H3R 13842     0.018859      1.00800 ; qtot 0.037
 13843   hL   352    MY   H3S 13843     0.018859      1.00800 ; qtot 0.056
 13844   cD   352    MY   C12 13844    -0.164200     12.01000 ; qtot -0.108
 13845   hL   352    MY   H2R 13845     0.053944      1.00800 ; qtot -0.054
 13846   hL   352    MY   H2S 13846     0.053944      1.00800 ; qtot -0.000
 13847   cC   353    PC   C11 13847     0.910403     12.01000 ; qtot 0.910
 13848   oC   353    PC   O12 13848    -0.671566     16.00000 ; qtot 0.239
 13849   oS   353    PC   O11 13849    -0.575489     16.00000 ; qtot -0.337
 13850   cA   353    PC    C1 13850     0.196939     12.01000 ; qtot -0.140
 13851   hE   353    PC    HR 13851     0.070469      1.00800 ; qtot -0.069
 13852   hE   353    PC    HS 13852     0.070469      1.00800 ; qtot 0.001
 13853   cA   353    PC    C2 13853     0.281242     12.01000 ; qtot 0.282
 13854   hE   353    PC    HX 13854     0.063253      1.00800 ; qtot 0.346
 13855   cA   353    PC    C3 13855     0.017459     12.01000 ; qtot 0.363
 13856   hE   353    PC    HA 13856     0.095591      1.00800 ; qtot 0.459
 13857   hE   353    PC    HB 13857     0.095591      1.00800 ; qtot 0.554
 13858   oT   353    PC   O31 13858    -0.509480     16.00000 ; qtot 0.045
 13859   pA   353    PC   P31 13859     1.339721     30.97000 ; qtot 1.385
 13860   oT   353    PC   O32 13860    -0.508176     16.00000 ; qtot 0.876
 13861   cA   353    PC   C31 13861     0.166801     12.01000 ; qtot 1.043
 13862   hE   353    PC   H1A 13862     0.078534      1.00800 ; qtot 1.122
 13863   hE   353    PC   H1B 13863     0.078534      1.00800 ; qtot 1.200
 13864   cA   353    PC   C32 13864    -0.170824     12.01000 ; qtot 1.029
 13865   hX   353    PC   H2A 13865     0.136415      1.00800 ; qtot 1.166
 13866   hX   353    PC   H2B 13866     0.136415      1.00800 ; qtot 1.302
 13867   nA   353    PC   N31 13867     0.245262     14.01000 ; qtot 1.548
 13868   cA   353    PC   C33 13868    -0.338973     12.01000 ; qtot 1.209
 13869   hX   353    PC   H3A 13869     0.172230      1.00800 ; qtot 1.381
 13870   hX   353    PC   H3B 13870     0.172230      1.00800 ; qtot 1.553
 13871   hX   353    PC   H3C 13871     0.172230      1.00800 ; qtot 1.725
 13872   cA   353    PC   C34 13872    -0.338973     12.01000 ; qtot 1.386
 13873   hX   353    PC   H4A 13873     0.172230      1.00800 ; qtot 1.559
 13874   hX   353    PC   H4B 13874     0.172230      1.00800 ; qtot 1.731
 13875   hX   353    PC   H4C 13875     0.172230      1.00800 ; qtot 1.903
 13876   cA   353    PC   C35 13876    -0.338973     12.01000 ; qtot 1.564
 13877   hX   353    PC   H5A 13877     0.172230      1.00800 ; qtot 1.736
 13878   hX   353    PC   H5B 13878     0.172230      1.00800 ; qtot 1.908
 13879   hX   353    PC   H5C 13879     0.172230      1.00800 ; qtot 2.081
 13880   oP   353    PC   O33 13880    -0.875812     16.00000 ; qtot 1.205
 13881   oP   353    PC   O34 13881    -0.875812     16.00000 ; qtot 0.329
 13882   oS   353    PC   O21 13882    -0.552948     16.00000 ; qtot -0.224
 13883   cC   353    PC   C21 13883     0.897613     12.01000 ; qtot 0.674
 13884   oC   353    PC   O22 13884    -0.673755     16.00000 ; qtot 0.000
 13885   hL   354    MY  H14T 13885     0.025511      1.00800 ; qtot 0.026
 13886   cD   354    MY  C114 13886    -0.111712     12.01000 ; qtot -0.086
 13887   hL   354    MY  H14R 13887     0.025511      1.00800 ; qtot -0.061
 13888   hL   354    MY  H14S 13888     0.025511      1.00800 ; qtot -0.035
 13889   cD   354    MY  C113 13889     0.017463     12.01000 ; qtot -0.018
 13890   hL   354    MY  H13R 13890     0.007531      1.00800 ; qtot -0.010
 13891   hL   354    MY  H13S 13891     0.007531      1.00800 ; qtot -0.003
 13892   cD   354    MY  C112 13892    -0.028094     12.01000 ; qtot -0.031
 13893   hL   354    MY  H12R 13893     0.017208      1.00800 ; qtot -0.014
 13894   hL   354    MY  H12S 13894     0.017208      1.00800 ; qtot 0.004
 13895   cD   354    MY  C111 13895    -0.031787     12.01000 ; qtot -0.028
 13896   hL   354    MY  H11R 13896     0.012677      1.00800 ; qtot -0.015
 13897   hL   354    MY  H11S 13897     0.012677      1.00800 ; qtot -0.003
 13898   cD   354    MY  C110 13898    -0.021025     12.01000 ; qtot -0.024
 13899   hL   354    MY  H10R 13899     0.010037      1.00800 ; qtot -0.014
 13900   hL   354    MY  H10S 13900     0.010037      1.00800 ; qtot -0.004
 13901   cD   354    MY   C19 13901    -0.014653     12.01000 ; qtot -0.018
 13902   hL   354    MY   H9R 13902     0.010172      1.00800 ; qtot -0.008
 13903   hL   354    MY   H9S 13903     0.010172      1.00800 ; qtot 0.002
 13904   cD   354    MY   C18 13904    -0.026451     12.01000 ; qtot -0.024
 13905   hL   354    MY   H8R 13905     0.011241      1.00800 ; qtot -0.013
 13906   hL   354    MY   H8S 13906     0.011241      1.00800 ; qtot -0.002
 13907   cD   354    MY   C17 13907    -0.004386     12.01000 ; qtot -0.006
 13908   hL   354    MY   H7R 13908     0.006833      1.00800 ; qtot 0.000
 13909   hL   354    MY   H7S 13909     0.006833      1.00800 ; qtot 0.007
 13910   cD   354    MY   C16 13910    -0.027812     12.01000 ; qtot -0.021
 13911   hL   354    MY   H6R 13911     0.011511      1.00800 ; qtot -0.009
 13912   hL   354    MY   H6S 13912     0.011511      1.00800 ; qtot 0.002
 13913   cD   354    MY   C15 13913    -0.016521     12.01000 ; qtot -0.014
 13914   hL   354    MY   H5R 13914     0.010573      1.00800 ; qtot -0.003
 13915   hL   354    MY   H5S 13915     0.010573      1.00800 ; qtot 0.007
 13916   cD   354    MY   C14 13916    -0.026954     12.01000 ; qtot -0.020
 13917   hL   354    MY   H4R 13917     0.020431      1.00800 ; qtot 0.001
 13918   hL   354    MY   H4S 13918     0.020431      1.00800 ; qtot 0.021
 13919   cD   354    MY   C13 13919    -0.002435     12.01000 ; qtot 0.019
 13920   hL   354    MY   H3R 13920     0.018859      1.00800 ; qtot 0.037
 13921   hL   354    MY   H3S 13921     0.018859      1.00800 ; qtot 0.056
 13922   cD   354    MY   C12 13922    -0.164200     12.01000 ; qtot -0.108
 13923   hL   354    MY   H2R 13923     0.053944      1.00800 ; qtot -0.054
 13924   hL   354    MY   H2S 13924     0.053944      1.00800 ; qtot -0.000
 13925   hL   355    MY  H14T 13925     0.025511      1.00800 ; qtot 0.026
 13926   cD   355    MY  C114 13926    -0.111712     12.01000 ; qtot -0.086
 13927   hL   355    MY  H14R 13927     0.025511      1.00800 ; qtot -0.061
 13928   hL   355    MY  H14S 13928     0.025511      1.00800 ; qtot -0.035
 13929   cD   355    MY  C113 13929     0.017463     12.01000 ; qtot -0.018
 13930   hL   355    MY  H13R 13930     0.007531      1.00800 ; qtot -0.010
 13931   hL   355    MY  H13S 13931     0.007531      1.00800 ; qtot -0.003
 13932   cD   355    MY  C112 13932    -0.028094     12.01000 ; qtot -0.031
 13933   hL   355    MY  H12R 13933     0.017208      1.00800 ; qtot -0.014
 13934   hL   355    MY  H12S 13934     0.017208      1.00800 ; qtot 0.004
 13935   cD   355    MY  C111 13935    -0.031787     12.01000 ; qtot -0.028
 13936   hL   355    MY  H11R 13936     0.012677      1.00800 ; qtot -0.015
 13937   hL   355    MY  H11S 13937     0.012677      1.00800 ; qtot -0.003
 13938   cD   355    MY  C110 13938    -0.021025     12.01000 ; qtot -0.024
 13939   hL   355    MY  H10R 13939     0.010037      1.00800 ; qtot -0.014
 13940   hL   355    MY  H10S 13940     0.010037      1.00800 ; qtot -0.004
 13941   cD   355    MY   C19 13941    -0.014653     12.01000 ; qtot -0.018
 13942   hL   355    MY   H9R 13942     0.010172      1.00800 ; qtot -0.008
 13943   hL   355    MY   H9S 13943     0.010172      1.00800 ; qtot 0.002
 13944   cD   355    MY   C18 13944    -0.026451     12.01000 ; qtot -0.024
 13945   hL   355    MY   H8R 13945     0.011241      1.00800 ; qtot -0.013
 13946   hL   355    MY   H8S 13946     0.011241      1.00800 ; qtot -0.002
 13947   cD   355    MY   C17 13947    -0.004386     12.01000 ; qtot -0.006
 13948   hL   355    MY   H7R 13948     0.006833      1.00800 ; qtot 0.000
 13949   hL   355    MY   H7S 13949     0.006833      1.00800 ; qtot 0.007
 13950   cD   355    MY   C16 13950    -0.027812     12.01000 ; qtot -0.021
 13951   hL   355    MY   H6R 13951     0.011511      1.00800 ; qtot -0.009
 13952   hL   355    MY   H6S 13952     0.011511      1.00800 ; qtot 0.002
 13953   cD   355    MY   C15 13953    -0.016521     12.01000 ; qtot -0.014
 13954   hL   355    MY   H5R 13954     0.010573      1.00800 ; qtot -0.003
 13955   hL   355    MY   H5S 13955     0.010573      1.00800 ; qtot 0.007
 13956   cD   355    MY   C14 13956    -0.026954     12.01000 ; qtot -0.020
 13957   hL   355    MY   H4R 13957     0.020431      1.00800 ; qtot 0.001
 13958   hL   355    MY   H4S 13958     0.020431      1.00800 ; qtot 0.021
 13959   cD   355    MY   C13 13959    -0.002435     12.01000 ; qtot 0.019
 13960   hL   355    MY   H3R 13960     0.018859      1.00800 ; qtot 0.037
 13961   hL   355    MY   H3S 13961     0.018859      1.00800 ; qtot 0.056
 13962   cD   355    MY   C12 13962    -0.164200     12.01000 ; qtot -0.108
 13963   hL   355    MY   H2R 13963     0.053944      1.00800 ; qtot -0.054
 13964   hL   355    MY   H2S 13964     0.053944      1.00800 ; qtot -0.000
 13965   cC   356    PC   C11 13965     0.910403     12.01000 ; qtot 0.910
 13966   oC   356    PC   O12 13966    -0.671566     16.00000 ; qtot 0.239
 13967   oS   356    PC   O11 13967    -0.575489     16.00000 ; qtot -0.337
 13968   cA   356    PC    C1 13968     0.196939     12.01000 ; qtot -0.140
 13969   hE   356    PC    HR 13969     0.070469      1.00800 ; qtot -0.069
 13970   hE   356    PC    HS 13970     0.070469      1.00800 ; qtot 0.001
 13971   cA   356    PC    C2 13971     0.281242     12.01000 ; qtot 0.282
 13972   hE   356    PC    HX 13972     0.063253      1.00800 ; qtot 0.346
 13973   cA   356    PC    C3 13973     0.017459     12.01000 ; qtot 0.363
 13974   hE   356    PC    HA 13974     0.095591      1.00800 ; qtot 0.459
 13975   hE   356    PC    HB 13975     0.095591      1.00800 ; qtot 0.554
 13976   oT   356    PC   O31 13976    -0.509480     16.00000 ; qtot 0.045
 13977   pA   356    PC   P31 13977     1.339721     30.97000 ; qtot 1.385
 13978   oT   356    PC   O32 13978    -0.508176     16.00000 ; qtot 0.876
 13979   cA   356    PC   C31 13979     0.166801     12.01000 ; qtot 1.043
 13980   hE   356    PC   H1A 13980     0.078534      1.00800 ; qtot 1.122
 13981   hE   356    PC   H1B 13981     0.078534      1.00800 ; qtot 1.200
 13982   cA   356    PC   C32 13982    -0.170824     12.01000 ; qtot 1.029
 13983   hX   356    PC   H2A 13983     0.136415      1.00800 ; qtot 1.166
 13984   hX   356    PC   H2B 13984     0.136415      1.00800 ; qtot 1.302
 13985   nA   356    PC   N31 13985     0.245262     14.01000 ; qtot 1.548
 13986   cA   356    PC   C33 13986    -0.338973     12.01000 ; qtot 1.209
 13987   hX   356    PC   H3A 13987     0.172230      1.00800 ; qtot 1.381
 13988   hX   356    PC   H3B 13988     0.172230      1.00800 ; qtot 1.553
 13989   hX   356    PC   H3C 13989     0.172230      1.00800 ; qtot 1.725
 13990   cA   356    PC   C34 13990    -0.338973     12.01000 ; qtot 1.386
 13991   hX   356    PC   H4A 13991     0.172230      1.00800 ; qtot 1.559
 13992   hX   356    PC   H4B 13992     0.172230      1.00800 ; qtot 1.731
 13993   hX   356    PC   H4C 13993     0.172230      1.00800 ; qtot 1.903
 13994   cA   356    PC   C35 13994    -0.338973     12.01000 ; qtot 1.564
 13995   hX   356    PC   H5A 13995     0.172230      1.00800 ; qtot 1.736
 13996   hX   356    PC   H5B 13996     0.172230      1.00800 ; qtot 1.908
 13997   hX   356    PC   H5C 13997     0.172230      1.00800 ; qtot 2.081
 13998   oP   356    PC   O33 13998    -0.875812     16.00000 ; qtot 1.205
 13999   oP   356    PC   O34 13999    -0.875812     16.00000 ; qtot 0.329
 14000   oS   356    PC   O21 14000    -0.552948     16.00000 ; qtot -0.224
 14001   cC   356    PC   C21 14001     0.897613     12.01000 ; qtot 0.674
 14002   oC   356    PC   O22 14002    -0.673755     16.00000 ; qtot 0.000
 14003   hL   357    MY  H14T 14003     0.025511      1.00800 ; qtot 0.026
 14004   cD   357    MY  C114 14004    -0.111712     12.01000 ; qtot -0.086
 14005   hL   357    MY  H14R 14005     0.025511      1.00800 ; qtot -0.061
 14006   hL   357    MY  H14S 14006     0.025511      1.00800 ; qtot -0.035
 14007   cD   357    MY  C113 14007     0.017463     12.01000 ; qtot -0.018
 14008   hL   357    MY  H13R 14008     0.007531      1.00800 ; qtot -0.010
 14009   hL   357    MY  H13S 14009     0.007531      1.00800 ; qtot -0.003
 14010   cD   357    MY  C112 14010    -0.028094     12.01000 ; qtot -0.031
 14011   hL   357    MY  H12R 14011     0.017208      1.00800 ; qtot -0.014
 14012   hL   357    MY  H12S 14012     0.017208      1.00800 ; qtot 0.004
 14013   cD   357    MY  C111 14013    -0.031787     12.01000 ; qtot -0.028
 14014   hL   357    MY  H11R 14014     0.012677      1.00800 ; qtot -0.015
 14015   hL   357    MY  H11S 14015     0.012677      1.00800 ; qtot -0.003
 14016   cD   357    MY  C110 14016    -0.021025     12.01000 ; qtot -0.024
 14017   hL   357    MY  H10R 14017     0.010037      1.00800 ; qtot -0.014
 14018   hL   357    MY  H10S 14018     0.010037      1.00800 ; qtot -0.004
 14019   cD   357    MY   C19 14019    -0.014653     12.01000 ; qtot -0.018
 14020   hL   357    MY   H9R 14020     0.010172      1.00800 ; qtot -0.008
 14021   hL   357    MY   H9S 14021     0.010172      1.00800 ; qtot 0.002
 14022   cD   357    MY   C18 14022    -0.026451     12.01000 ; qtot -0.024
 14023   hL   357    MY   H8R 14023     0.011241      1.00800 ; qtot -0.013
 14024   hL   357    MY   H8S 14024     0.011241      1.00800 ; qtot -0.002
 14025   cD   357    MY   C17 14025    -0.004386     12.01000 ; qtot -0.006
 14026   hL   357    MY   H7R 14026     0.006833      1.00800 ; qtot 0.000
 14027   hL   357    MY   H7S 14027     0.006833      1.00800 ; qtot 0.007
 14028   cD   357    MY   C16 14028    -0.027812     12.01000 ; qtot -0.021
 14029   hL   357    MY   H6R 14029     0.011511      1.00800 ; qtot -0.009
 14030   hL   357    MY   H6S 14030     0.011511      1.00800 ; qtot 0.002
 14031   cD   357    MY   C15 14031    -0.016521     12.01000 ; qtot -0.014
 14032   hL   357    MY   H5R 14032     0.010573      1.00800 ; qtot -0.003
 14033   hL   357    MY   H5S 14033     0.010573      1.00800 ; qtot 0.007
 14034   cD   357    MY   C14 14034    -0.026954     12.01000 ; qtot -0.020
 14035   hL   357    MY   H4R 14035     0.020431      1.00800 ; qtot 0.001
 14036   hL   357    MY   H4S 14036     0.020431      1.00800 ; qtot 0.021
 14037   cD   357    MY   C13 14037    -0.002435     12.01000 ; qtot 0.019
 14038   hL   357    MY   H3R 14038     0.018859      1.00800 ; qtot 0.037
 14039   hL   357    MY   H3S 14039     0.018859      1.00800 ; qtot 0.056
 14040   cD   357    MY   C12 14040    -0.164200     12.01000 ; qtot -0.108
 14041   hL   357    MY   H2R 14041     0.053944      1.00800 ; qtot -0.054
 14042   hL   357    MY   H2S 14042     0.053944      1.00800 ; qtot -0.000
 14043   hL   358    MY  H14T 14043     0.025511      1.00800 ; qtot 0.026
 14044   cD   358    MY  C114 14044    -0.111712     12.01000 ; qtot -0.086
 14045   hL   358    MY  H14R 14045     0.025511      1.00800 ; qtot -0.061
 14046   hL   358    MY  H14S 14046     0.025511      1.00800 ; qtot -0.035
 14047   cD   358    MY  C113 14047     0.017463     12.01000 ; qtot -0.018
 14048   hL   358    MY  H13R 14048     0.007531      1.00800 ; qtot -0.010
 14049   hL   358    MY  H13S 14049     0.007531      1.00800 ; qtot -0.003
 14050   cD   358    MY  C112 14050    -0.028094     12.01000 ; qtot -0.031
 14051   hL   358    MY  H12R 14051     0.017208      1.00800 ; qtot -0.014
 14052   hL   358    MY  H12S 14052     0.017208      1.00800 ; qtot 0.004
 14053   cD   358    MY  C111 14053    -0.031787     12.01000 ; qtot -0.028
 14054   hL   358    MY  H11R 14054     0.012677      1.00800 ; qtot -0.015
 14055   hL   358    MY  H11S 14055     0.012677      1.00800 ; qtot -0.003
 14056   cD   358    MY  C110 14056    -0.021025     12.01000 ; qtot -0.024
 14057   hL   358    MY  H10R 14057     0.010037      1.00800 ; qtot -0.014
 14058   hL   358    MY  H10S 14058     0.010037      1.00800 ; qtot -0.004
 14059   cD   358    MY   C19 14059    -0.014653     12.01000 ; qtot -0.018
 14060   hL   358    MY   H9R 14060     0.010172      1.00800 ; qtot -0.008
 14061   hL   358    MY   H9S 14061     0.010172      1.00800 ; qtot 0.002
 14062   cD   358    MY   C18 14062    -0.026451     12.01000 ; qtot -0.024
 14063   hL   358    MY   H8R 14063     0.011241      1.00800 ; qtot -0.013
 14064   hL   358    MY   H8S 14064     0.011241      1.00800 ; qtot -0.002
 14065   cD   358    MY   C17 14065    -0.004386     12.01000 ; qtot -0.006
 14066   hL   358    MY   H7R 14066     0.006833      1.00800 ; qtot 0.000
 14067   hL   358    MY   H7S 14067     0.006833      1.00800 ; qtot 0.007
 14068   cD   358    MY   C16 14068    -0.027812     12.01000 ; qtot -0.021
 14069   hL   358    MY   H6R 14069     0.011511      1.00800 ; qtot -0.009
 14070   hL   358    MY   H6S 14070     0.011511      1.00800 ; qtot 0.002
 14071   cD   358    MY   C15 14071    -0.016521     12.01000 ; qtot -0.014
 14072   hL   358    MY   H5R 14072     0.010573      1.00800 ; qtot -0.003
 14073   hL   358    MY   H5S 14073     0.010573      1.00800 ; qtot 0.007
 14074   cD   358    MY   C14 14074    -0.026954     12.01000 ; qtot -0.020
 14075   hL   358    MY   H4R 14075     0.020431      1.00800 ; qtot 0.001
 14076   hL   358    MY   H4S 14076     0.020431      1.00800 ; qtot 0.021
 14077   cD   358    MY   C13 14077    -0.002435     12.01000 ; qtot 0.019
 14078   hL   358    MY   H3R 14078     0.018859      1.00800 ; qtot 0.037
 14079   hL   358    MY   H3S 14079     0.018859      1.00800 ; qtot 0.056
 14080   cD   358    MY   C12 14080    -0.164200     12.01000 ; qtot -0.108
 14081   hL   358    MY   H2R 14081     0.053944      1.00800 ; qtot -0.054
 14082   hL   358    MY   H2S 14082     0.053944      1.00800 ; qtot -0.000
 14083   cC   359    PC   C11 14083     0.910403     12.01000 ; qtot 0.910
 14084   oC   359    PC   O12 14084    -0.671566     16.00000 ; qtot 0.239
 14085   oS   359    PC   O11 14085    -0.575489     16.00000 ; qtot -0.337
 14086   cA   359    PC    C1 14086     0.196939     12.01000 ; qtot -0.140
 14087   hE   359    PC    HR 14087     0.070469      1.00800 ; qtot -0.069
 14088   hE   359    PC    HS 14088     0.070469      1.00800 ; qtot 0.001
 14089   cA   359    PC    C2 14089     0.281242     12.01000 ; qtot 0.282
 14090   hE   359    PC    HX 14090     0.063253      1.00800 ; qtot 0.346
 14091   cA   359    PC    C3 14091     0.017459     12.01000 ; qtot 0.363
 14092   hE   359    PC    HA 14092     0.095591      1.00800 ; qtot 0.459
 14093   hE   359    PC    HB 14093     0.095591      1.00800 ; qtot 0.554
 14094   oT   359    PC   O31 14094    -0.509480     16.00000 ; qtot 0.045
 14095   pA   359    PC   P31 14095     1.339721     30.97000 ; qtot 1.385
 14096   oT   359    PC   O32 14096    -0.508176     16.00000 ; qtot 0.876
 14097   cA   359    PC   C31 14097     0.166801     12.01000 ; qtot 1.043
 14098   hE   359    PC   H1A 14098     0.078534      1.00800 ; qtot 1.122
 14099   hE   359    PC   H1B 14099     0.078534      1.00800 ; qtot 1.200
 14100   cA   359    PC   C32 14100    -0.170824     12.01000 ; qtot 1.029
 14101   hX   359    PC   H2A 14101     0.136415      1.00800 ; qtot 1.166
 14102   hX   359    PC   H2B 14102     0.136415      1.00800 ; qtot 1.302
 14103   nA   359    PC   N31 14103     0.245262     14.01000 ; qtot 1.548
 14104   cA   359    PC   C33 14104    -0.338973     12.01000 ; qtot 1.209
 14105   hX   359    PC   H3A 14105     0.172230      1.00800 ; qtot 1.381
 14106   hX   359    PC   H3B 14106     0.172230      1.00800 ; qtot 1.553
 14107   hX   359    PC   H3C 14107     0.172230      1.00800 ; qtot 1.725
 14108   cA   359    PC   C34 14108    -0.338973     12.01000 ; qtot 1.386
 14109   hX   359    PC   H4A 14109     0.172230      1.00800 ; qtot 1.559
 14110   hX   359    PC   H4B 14110     0.172230      1.00800 ; qtot 1.731
 14111   hX   359    PC   H4C 14111     0.172230      1.00800 ; qtot 1.903
 14112   cA   359    PC   C35 14112    -0.338973     12.01000 ; qtot 1.564
 14113   hX   359    PC   H5A 14113     0.172230      1.00800 ; qtot 1.736
 14114   hX   359    PC   H5B 14114     0.172230      1.00800 ; qtot 1.908
 14115   hX   359    PC   H5C 14115     0.172230      1.00800 ; qtot 2.081
 14116   oP   359    PC   O33 14116    -0.875812     16.00000 ; qtot 1.205
 14117   oP   359    PC   O34 14117    -0.875812     16.00000 ; qtot 0.329
 14118   oS   359    PC   O21 14118    -0.552948     16.00000 ; qtot -0.224
 14119   cC   359    PC   C21 14119     0.897613     12.01000 ; qtot 0.674
 14120   oC   359    PC   O22 14120    -0.673755     16.00000 ; qtot 0.000
 14121   hL   360    MY  H14T 14121     0.025511      1.00800 ; qtot 0.026
 14122   cD   360    MY  C114 14122    -0.111712     12.01000 ; qtot -0.086
 14123   hL   360    MY  H14R 14123     0.025511      1.00800 ; qtot -0.061
 14124   hL   360    MY  H14S 14124     0.025511      1.00800 ; qtot -0.035
 14125   cD   360    MY  C113 14125     0.017463     12.01000 ; qtot -0.018
 14126   hL   360    MY  H13R 14126     0.007531      1.00800 ; qtot -0.010
 14127   hL   360    MY  H13S 14127     0.007531      1.00800 ; qtot -0.003
 14128   cD   360    MY  C112 14128    -0.028094     12.01000 ; qtot -0.031
 14129   hL   360    MY  H12R 14129     0.017208      1.00800 ; qtot -0.014
 14130   hL   360    MY  H12S 14130     0.017208      1.00800 ; qtot 0.004
 14131   cD   360    MY  C111 14131    -0.031787     12.01000 ; qtot -0.028
 14132   hL   360    MY  H11R 14132     0.012677      1.00800 ; qtot -0.015
 14133   hL   360    MY  H11S 14133     0.012677      1.00800 ; qtot -0.003
 14134   cD   360    MY  C110 14134    -0.021025     12.01000 ; qtot -0.024
 14135   hL   360    MY  H10R 14135     0.010037      1.00800 ; qtot -0.014
 14136   hL   360    MY  H10S 14136     0.010037      1.00800 ; qtot -0.004
 14137   cD   360    MY   C19 14137    -0.014653     12.01000 ; qtot -0.018
 14138   hL   360    MY   H9R 14138     0.010172      1.00800 ; qtot -0.008
 14139   hL   360    MY   H9S 14139     0.010172      1.00800 ; qtot 0.002
 14140   cD   360    MY   C18 14140    -0.026451     12.01000 ; qtot -0.024
 14141   hL   360    MY   H8R 14141     0.011241      1.00800 ; qtot -0.013
 14142   hL   360    MY   H8S 14142     0.011241      1.00800 ; qtot -0.002
 14143   cD   360    MY   C17 14143    -0.004386     12.01000 ; qtot -0.006
 14144   hL   360    MY   H7R 14144     0.006833      1.00800 ; qtot 0.000
 14145   hL   360    MY   H7S 14145     0.006833      1.00800 ; qtot 0.007
 14146   cD   360    MY   C16 14146    -0.027812     12.01000 ; qtot -0.021
 14147   hL   360    MY   H6R 14147     0.011511      1.00800 ; qtot -0.009
 14148   hL   360    MY   H6S 14148     0.011511      1.00800 ; qtot 0.002
 14149   cD   360    MY   C15 14149    -0.016521     12.01000 ; qtot -0.014
 14150   hL   360    MY   H5R 14150     0.010573      1.00800 ; qtot -0.003
 14151   hL   360    MY   H5S 14151     0.010573      1.00800 ; qtot 0.007
 14152   cD   360    MY   C14 14152    -0.026954     12.01000 ; qtot -0.020
 14153   hL   360    MY   H4R 14153     0.020431      1.00800 ; qtot 0.001
 14154   hL   360    MY   H4S 14154     0.020431      1.00800 ; qtot 0.021
 14155   cD   360    MY   C13 14155    -0.002435     12.01000 ; qtot 0.019
 14156   hL   360    MY   H3R 14156     0.018859      1.00800 ; qtot 0.037
 14157   hL   360    MY   H3S 14157     0.018859      1.00800 ; qtot 0.056
 14158   cD   360    MY   C12 14158    -0.164200     12.01000 ; qtot -0.108
 14159   hL   360    MY   H2R 14159     0.053944      1.00800 ; qtot -0.054
 14160   hL   360    MY   H2S 14160     0.053944      1.00800 ; qtot -0.000
 14161   hL   361    MY  H14T 14161     0.025511      1.00800 ; qtot 0.026
 14162   cD   361    MY  C114 14162    -0.111712     12.01000 ; qtot -0.086
 14163   hL   361    MY  H14R 14163     0.025511      1.00800 ; qtot -0.061
 14164   hL   361    MY  H14S 14164     0.025511      1.00800 ; qtot -0.035
 14165   cD   361    MY  C113 14165     0.017463     12.01000 ; qtot -0.018
 14166   hL   361    MY  H13R 14166     0.007531      1.00800 ; qtot -0.010
 14167   hL   361    MY  H13S 14167     0.007531      1.00800 ; qtot -0.003
 14168   cD   361    MY  C112 14168    -0.028094     12.01000 ; qtot -0.031
 14169   hL   361    MY  H12R 14169     0.017208      1.00800 ; qtot -0.014
 14170   hL   361    MY  H12S 14170     0.017208      1.00800 ; qtot 0.004
 14171   cD   361    MY  C111 14171    -0.031787     12.01000 ; qtot -0.028
 14172   hL   361    MY  H11R 14172     0.012677      1.00800 ; qtot -0.015
 14173   hL   361    MY  H11S 14173     0.012677      1.00800 ; qtot -0.003
 14174   cD   361    MY  C110 14174    -0.021025     12.01000 ; qtot -0.024
 14175   hL   361    MY  H10R 14175     0.010037      1.00800 ; qtot -0.014
 14176   hL   361    MY  H10S 14176     0.010037      1.00800 ; qtot -0.004
 14177   cD   361    MY   C19 14177    -0.014653     12.01000 ; qtot -0.018
 14178   hL   361    MY   H9R 14178     0.010172      1.00800 ; qtot -0.008
 14179   hL   361    MY   H9S 14179     0.010172      1.00800 ; qtot 0.002
 14180   cD   361    MY   C18 14180    -0.026451     12.01000 ; qtot -0.024
 14181   hL   361    MY   H8R 14181     0.011241      1.00800 ; qtot -0.013
 14182   hL   361    MY   H8S 14182     0.011241      1.00800 ; qtot -0.002
 14183   cD   361    MY   C17 14183    -0.004386     12.01000 ; qtot -0.006
 14184   hL   361    MY   H7R 14184     0.006833      1.00800 ; qtot 0.000
 14185   hL   361    MY   H7S 14185     0.006833      1.00800 ; qtot 0.007
 14186   cD   361    MY   C16 14186    -0.027812     12.01000 ; qtot -0.021
 14187   hL   361    MY   H6R 14187     0.011511      1.00800 ; qtot -0.009
 14188   hL   361    MY   H6S 14188     0.011511      1.00800 ; qtot 0.002
 14189   cD   361    MY   C15 14189    -0.016521     12.01000 ; qtot -0.014
 14190   hL   361    MY   H5R 14190     0.010573      1.00800 ; qtot -0.003
 14191   hL   361    MY   H5S 14191     0.010573      1.00800 ; qtot 0.007
 14192   cD   361    MY   C14 14192    -0.026954     12.01000 ; qtot -0.020
 14193   hL   361    MY   H4R 14193     0.020431      1.00800 ; qtot 0.001
 14194   hL   361    MY   H4S 14194     0.020431      1.00800 ; qtot 0.021
 14195   cD   361    MY   C13 14195    -0.002435     12.01000 ; qtot 0.019
 14196   hL   361    MY   H3R 14196     0.018859      1.00800 ; qtot 0.037
 14197   hL   361    MY   H3S 14197     0.018859      1.00800 ; qtot 0.056
 14198   cD   361    MY   C12 14198    -0.164200     12.01000 ; qtot -0.108
 14199   hL   361    MY   H2R 14199     0.053944      1.00800 ; qtot -0.054
 14200   hL   361    MY   H2S 14200     0.053944      1.00800 ; qtot -0.000
 14201   cC   362    PC   C11 14201     0.910403     12.01000 ; qtot 0.910
 14202   oC   362    PC   O12 14202    -0.671566     16.00000 ; qtot 0.239
 14203   oS   362    PC   O11 14203    -0.575489     16.00000 ; qtot -0.337
 14204   cA   362    PC    C1 14204     0.196939     12.01000 ; qtot -0.140
 14205   hE   362    PC    HR 14205     0.070469      1.00800 ; qtot -0.069
 14206   hE   362    PC    HS 14206     0.070469      1.00800 ; qtot 0.001
 14207   cA   362    PC    C2 14207     0.281242     12.01000 ; qtot 0.282
 14208   hE   362    PC    HX 14208     0.063253      1.00800 ; qtot 0.346
 14209   cA   362    PC    C3 14209     0.017459     12.01000 ; qtot 0.363
 14210   hE   362    PC    HA 14210     0.095591      1.00800 ; qtot 0.459
 14211   hE   362    PC    HB 14211     0.095591      1.00800 ; qtot 0.554
 14212   oT   362    PC   O31 14212    -0.509480     16.00000 ; qtot 0.045
 14213   pA   362    PC   P31 14213     1.339721     30.97000 ; qtot 1.385
 14214   oT   362    PC   O32 14214    -0.508176     16.00000 ; qtot 0.876
 14215   cA   362    PC   C31 14215     0.166801     12.01000 ; qtot 1.043
 14216   hE   362    PC   H1A 14216     0.078534      1.00800 ; qtot 1.122
 14217   hE   362    PC   H1B 14217     0.078534      1.00800 ; qtot 1.200
 14218   cA   362    PC   C32 14218    -0.170824     12.01000 ; qtot 1.029
 14219   hX   362    PC   H2A 14219     0.136415      1.00800 ; qtot 1.166
 14220   hX   362    PC   H2B 14220     0.136415      1.00800 ; qtot 1.302
 14221   nA   362    PC   N31 14221     0.245262     14.01000 ; qtot 1.548
 14222   cA   362    PC   C33 14222    -0.338973     12.01000 ; qtot 1.209
 14223   hX   362    PC   H3A 14223     0.172230      1.00800 ; qtot 1.381
 14224   hX   362    PC   H3B 14224     0.172230      1.00800 ; qtot 1.553
 14225   hX   362    PC   H3C 14225     0.172230      1.00800 ; qtot 1.725
 14226   cA   362    PC   C34 14226    -0.338973     12.01000 ; qtot 1.386
 14227   hX   362    PC   H4A 14227     0.172230      1.00800 ; qtot 1.559
 14228   hX   362    PC   H4B 14228     0.172230      1.00800 ; qtot 1.731
 14229   hX   362    PC   H4C 14229     0.172230      1.00800 ; qtot 1.903
 14230   cA   362    PC   C35 14230    -0.338973     12.01000 ; qtot 1.564
 14231   hX   362    PC   H5A 14231     0.172230      1.00800 ; qtot 1.736
 14232   hX   362    PC   H5B 14232     0.172230      1.00800 ; qtot 1.908
 14233   hX   362    PC   H5C 14233     0.172230      1.00800 ; qtot 2.081
 14234   oP   362    PC   O33 14234    -0.875812     16.00000 ; qtot 1.205
 14235   oP   362    PC   O34 14235    -0.875812     16.00000 ; qtot 0.329
 14236   oS   362    PC   O21 14236    -0.552948     16.00000 ; qtot -0.224
 14237   cC   362    PC   C21 14237     0.897613     12.01000 ; qtot 0.674
 14238   oC   362    PC   O22 14238    -0.673755     16.00000 ; qtot 0.000
 14239   hL   363    MY  H14T 14239     0.025511      1.00800 ; qtot 0.026
 14240   cD   363    MY  C114 14240    -0.111712     12.01000 ; qtot -0.086
 14241   hL   363    MY  H14R 14241     0.025511      1.00800 ; qtot -0.061
 14242   hL   363    MY  H14S 14242     0.025511      1.00800 ; qtot -0.035
 14243   cD   363    MY  C113 14243     0.017463     12.01000 ; qtot -0.018
 14244   hL   363    MY  H13R 14244     0.007531      1.00800 ; qtot -0.010
 14245   hL   363    MY  H13S 14245     0.007531      1.00800 ; qtot -0.003
 14246   cD   363    MY  C112 14246    -0.028094     12.01000 ; qtot -0.031
 14247   hL   363    MY  H12R 14247     0.017208      1.00800 ; qtot -0.014
 14248   hL   363    MY  H12S 14248     0.017208      1.00800 ; qtot 0.004
 14249   cD   363    MY  C111 14249    -0.031787     12.01000 ; qtot -0.028
 14250   hL   363    MY  H11R 14250     0.012677      1.00800 ; qtot -0.015
 14251   hL   363    MY  H11S 14251     0.012677      1.00800 ; qtot -0.003
 14252   cD   363    MY  C110 14252    -0.021025     12.01000 ; qtot -0.024
 14253   hL   363    MY  H10R 14253     0.010037      1.00800 ; qtot -0.014
 14254   hL   363    MY  H10S 14254     0.010037      1.00800 ; qtot -0.004
 14255   cD   363    MY   C19 14255    -0.014653     12.01000 ; qtot -0.018
 14256   hL   363    MY   H9R 14256     0.010172      1.00800 ; qtot -0.008
 14257   hL   363    MY   H9S 14257     0.010172      1.00800 ; qtot 0.002
 14258   cD   363    MY   C18 14258    -0.026451     12.01000 ; qtot -0.024
 14259   hL   363    MY   H8R 14259     0.011241      1.00800 ; qtot -0.013
 14260   hL   363    MY   H8S 14260     0.011241      1.00800 ; qtot -0.002
 14261   cD   363    MY   C17 14261    -0.004386     12.01000 ; qtot -0.006
 14262   hL   363    MY   H7R 14262     0.006833      1.00800 ; qtot 0.000
 14263   hL   363    MY   H7S 14263     0.006833      1.00800 ; qtot 0.007
 14264   cD   363    MY   C16 14264    -0.027812     12.01000 ; qtot -0.021
 14265   hL   363    MY   H6R 14265     0.011511      1.00800 ; qtot -0.009
 14266   hL   363    MY   H6S 14266     0.011511      1.00800 ; qtot 0.002
 14267   cD   363    MY   C15 14267    -0.016521     12.01000 ; qtot -0.014
 14268   hL   363    MY   H5R 14268     0.010573      1.00800 ; qtot -0.003
 14269   hL   363    MY   H5S 14269     0.010573      1.00800 ; qtot 0.007
 14270   cD   363    MY   C14 14270    -0.026954     12.01000 ; qtot -0.020
 14271   hL   363    MY   H4R 14271     0.020431      1.00800 ; qtot 0.001
 14272   hL   363    MY   H4S 14272     0.020431      1.00800 ; qtot 0.021
 14273   cD   363    MY   C13 14273    -0.002435     12.01000 ; qtot 0.019
 14274   hL   363    MY   H3R 14274     0.018859      1.00800 ; qtot 0.037
 14275   hL   363    MY   H3S 14275     0.018859      1.00800 ; qtot 0.056
 14276   cD   363    MY   C12 14276    -0.164200     12.01000 ; qtot -0.108
 14277   hL   363    MY   H2R 14277     0.053944      1.00800 ; qtot -0.054
 14278   hL   363    MY   H2S 14278     0.053944      1.00800 ; qtot -0.000
 14279   hL   364    MY  H14T 14279     0.025511      1.00800 ; qtot 0.026
 14280   cD   364    MY  C114 14280    -0.111712     12.01000 ; qtot -0.086
 14281   hL   364    MY  H14R 14281     0.025511      1.00800 ; qtot -0.061
 14282   hL   364    MY  H14S 14282     0.025511      1.00800 ; qtot -0.035
 14283   cD   364    MY  C113 14283     0.017463     12.01000 ; qtot -0.018
 14284   hL   364    MY  H13R 14284     0.007531      1.00800 ; qtot -0.010
 14285   hL   364    MY  H13S 14285     0.007531      1.00800 ; qtot -0.003
 14286   cD   364    MY  C112 14286    -0.028094     12.01000 ; qtot -0.031
 14287   hL   364    MY  H12R 14287     0.017208      1.00800 ; qtot -0.014
 14288   hL   364    MY  H12S 14288     0.017208      1.00800 ; qtot 0.004
 14289   cD   364    MY  C111 14289    -0.031787     12.01000 ; qtot -0.028
 14290   hL   364    MY  H11R 14290     0.012677      1.00800 ; qtot -0.015
 14291   hL   364    MY  H11S 14291     0.012677      1.00800 ; qtot -0.003
 14292   cD   364    MY  C110 14292    -0.021025     12.01000 ; qtot -0.024
 14293   hL   364    MY  H10R 14293     0.010037      1.00800 ; qtot -0.014
 14294   hL   364    MY  H10S 14294     0.010037      1.00800 ; qtot -0.004
 14295   cD   364    MY   C19 14295    -0.014653     12.01000 ; qtot -0.018
 14296   hL   364    MY   H9R 14296     0.010172      1.00800 ; qtot -0.008
 14297   hL   364    MY   H9S 14297     0.010172      1.00800 ; qtot 0.002
 14298   cD   364    MY   C18 14298    -0.026451     12.01000 ; qtot -0.024
 14299   hL   364    MY   H8R 14299     0.011241      1.00800 ; qtot -0.013
 14300   hL   364    MY   H8S 14300     0.011241      1.00800 ; qtot -0.002
 14301   cD   364    MY   C17 14301    -0.004386     12.01000 ; qtot -0.006
 14302   hL   364    MY   H7R 14302     0.006833      1.00800 ; qtot 0.000
 14303   hL   364    MY   H7S 14303     0.006833      1.00800 ; qtot 0.007
 14304   cD   364    MY   C16 14304    -0.027812     12.01000 ; qtot -0.021
 14305   hL   364    MY   H6R 14305     0.011511      1.00800 ; qtot -0.009
 14306   hL   364    MY   H6S 14306     0.011511      1.00800 ; qtot 0.002
 14307   cD   364    MY   C15 14307    -0.016521     12.01000 ; qtot -0.014
 14308   hL   364    MY   H5R 14308     0.010573      1.00800 ; qtot -0.003
 14309   hL   364    MY   H5S 14309     0.010573      1.00800 ; qtot 0.007
 14310   cD   364    MY   C14 14310    -0.026954     12.01000 ; qtot -0.020
 14311   hL   364    MY   H4R 14311     0.020431      1.00800 ; qtot 0.001
 14312   hL   364    MY   H4S 14312     0.020431      1.00800 ; qtot 0.021
 14313   cD   364    MY   C13 14313    -0.002435     12.01000 ; qtot 0.019
 14314   hL   364    MY   H3R 14314     0.018859      1.00800 ; qtot 0.037
 14315   hL   364    MY   H3S 14315     0.018859      1.00800 ; qtot 0.056
 14316   cD   364    MY   C12 14316    -0.164200     12.01000 ; qtot -0.108
 14317   hL   364    MY   H2R 14317     0.053944      1.00800 ; qtot -0.054
 14318   hL   364    MY   H2S 14318     0.053944      1.00800 ; qtot -0.000
 14319   cC   365    PC   C11 14319     0.910403     12.01000 ; qtot 0.910
 14320   oC   365    PC   O12 14320    -0.671566     16.00000 ; qtot 0.239
 14321   oS   365    PC   O11 14321    -0.575489     16.00000 ; qtot -0.337
 14322   cA   365    PC    C1 14322     0.196939     12.01000 ; qtot -0.140
 14323   hE   365    PC    HR 14323     0.070469      1.00800 ; qtot -0.069
 14324   hE   365    PC    HS 14324     0.070469      1.00800 ; qtot 0.001
 14325   cA   365    PC    C2 14325     0.281242     12.01000 ; qtot 0.282
 14326   hE   365    PC    HX 14326     0.063253      1.00800 ; qtot 0.346
 14327   cA   365    PC    C3 14327     0.017459     12.01000 ; qtot 0.363
 14328   hE   365    PC    HA 14328     0.095591      1.00800 ; qtot 0.459
 14329   hE   365    PC    HB 14329     0.095591      1.00800 ; qtot 0.554
 14330   oT   365    PC   O31 14330    -0.509480     16.00000 ; qtot 0.045
 14331   pA   365    PC   P31 14331     1.339721     30.97000 ; qtot 1.385
 14332   oT   365    PC   O32 14332    -0.508176     16.00000 ; qtot 0.876
 14333   cA   365    PC   C31 14333     0.166801     12.01000 ; qtot 1.043
 14334   hE   365    PC   H1A 14334     0.078534      1.00800 ; qtot 1.122
 14335   hE   365    PC   H1B 14335     0.078534      1.00800 ; qtot 1.200
 14336   cA   365    PC   C32 14336    -0.170824     12.01000 ; qtot 1.029
 14337   hX   365    PC   H2A 14337     0.136415      1.00800 ; qtot 1.166
 14338   hX   365    PC   H2B 14338     0.136415      1.00800 ; qtot 1.302
 14339   nA   365    PC   N31 14339     0.245262     14.01000 ; qtot 1.548
 14340   cA   365    PC   C33 14340    -0.338973     12.01000 ; qtot 1.209
 14341   hX   365    PC   H3A 14341     0.172230      1.00800 ; qtot 1.381
 14342   hX   365    PC   H3B 14342     0.172230      1.00800 ; qtot 1.553
 14343   hX   365    PC   H3C 14343     0.172230      1.00800 ; qtot 1.725
 14344   cA   365    PC   C34 14344    -0.338973     12.01000 ; qtot 1.386
 14345   hX   365    PC   H4A 14345     0.172230      1.00800 ; qtot 1.559
 14346   hX   365    PC   H4B 14346     0.172230      1.00800 ; qtot 1.731
 14347   hX   365    PC   H4C 14347     0.172230      1.00800 ; qtot 1.903
 14348   cA   365    PC   C35 14348    -0.338973     12.01000 ; qtot 1.564
 14349   hX   365    PC   H5A 14349     0.172230      1.00800 ; qtot 1.736
 14350   hX   365    PC   H5B 14350     0.172230      1.00800 ; qtot 1.908
 14351   hX   365    PC   H5C 14351     0.172230      1.00800 ; qtot 2.081
 14352   oP   365    PC   O33 14352    -0.875812     16.00000 ; qtot 1.205
 14353   oP   365    PC   O34 14353    -0.875812     16.00000 ; qtot 0.329
 14354   oS   365    PC   O21 14354    -0.552948     16.00000 ; qtot -0.224
 14355   cC   365    PC   C21 14355     0.897613     12.01000 ; qtot 0.674
 14356   oC   365    PC   O22 14356    -0.673755     16.00000 ; qtot 0.000
 14357   hL   366    MY  H14T 14357     0.025511      1.00800 ; qtot 0.026
 14358   cD   366    MY  C114 14358    -0.111712     12.01000 ; qtot -0.086
 14359   hL   366    MY  H14R 14359     0.025511      1.00800 ; qtot -0.061
 14360   hL   366    MY  H14S 14360     0.025511      1.00800 ; qtot -0.035
 14361   cD   366    MY  C113 14361     0.017463     12.01000 ; qtot -0.018
 14362   hL   366    MY  H13R 14362     0.007531      1.00800 ; qtot -0.010
 14363   hL   366    MY  H13S 14363     0.007531      1.00800 ; qtot -0.003
 14364   cD   366    MY  C112 14364    -0.028094     12.01000 ; qtot -0.031
 14365   hL   366    MY  H12R 14365     0.017208      1.00800 ; qtot -0.014
 14366   hL   366    MY  H12S 14366     0.017208      1.00800 ; qtot 0.004
 14367   cD   366    MY  C111 14367    -0.031787     12.01000 ; qtot -0.028
 14368   hL   366    MY  H11R 14368     0.012677      1.00800 ; qtot -0.015
 14369   hL   366    MY  H11S 14369     0.012677      1.00800 ; qtot -0.003
 14370   cD   366    MY  C110 14370    -0.021025     12.01000 ; qtot -0.024
 14371   hL   366    MY  H10R 14371     0.010037      1.00800 ; qtot -0.014
 14372   hL   366    MY  H10S 14372     0.010037      1.00800 ; qtot -0.004
 14373   cD   366    MY   C19 14373    -0.014653     12.01000 ; qtot -0.018
 14374   hL   366    MY   H9R 14374     0.010172      1.00800 ; qtot -0.008
 14375   hL   366    MY   H9S 14375     0.010172      1.00800 ; qtot 0.002
 14376   cD   366    MY   C18 14376    -0.026451     12.01000 ; qtot -0.024
 14377   hL   366    MY   H8R 14377     0.011241      1.00800 ; qtot -0.013
 14378   hL   366    MY   H8S 14378     0.011241      1.00800 ; qtot -0.002
 14379   cD   366    MY   C17 14379    -0.004386     12.01000 ; qtot -0.006
 14380   hL   366    MY   H7R 14380     0.006833      1.00800 ; qtot 0.000
 14381   hL   366    MY   H7S 14381     0.006833      1.00800 ; qtot 0.007
 14382   cD   366    MY   C16 14382    -0.027812     12.01000 ; qtot -0.021
 14383   hL   366    MY   H6R 14383     0.011511      1.00800 ; qtot -0.009
 14384   hL   366    MY   H6S 14384     0.011511      1.00800 ; qtot 0.002
 14385   cD   366    MY   C15 14385    -0.016521     12.01000 ; qtot -0.014
 14386   hL   366    MY   H5R 14386     0.010573      1.00800 ; qtot -0.003
 14387   hL   366    MY   H5S 14387     0.010573      1.00800 ; qtot 0.007
 14388   cD   366    MY   C14 14388    -0.026954     12.01000 ; qtot -0.020
 14389   hL   366    MY   H4R 14389     0.020431      1.00800 ; qtot 0.001
 14390   hL   366    MY   H4S 14390     0.020431      1.00800 ; qtot 0.021
 14391   cD   366    MY   C13 14391    -0.002435     12.01000 ; qtot 0.019
 14392   hL   366    MY   H3R 14392     0.018859      1.00800 ; qtot 0.037
 14393   hL   366    MY   H3S 14393     0.018859      1.00800 ; qtot 0.056
 14394   cD   366    MY   C12 14394    -0.164200     12.01000 ; qtot -0.108
 14395   hL   366    MY   H2R 14395     0.053944      1.00800 ; qtot -0.054
 14396   hL   366    MY   H2S 14396     0.053944      1.00800 ; qtot -0.000
 14397   hL   367    MY  H14T 14397     0.025511      1.00800 ; qtot 0.026
 14398   cD   367    MY  C114 14398    -0.111712     12.01000 ; qtot -0.086
 14399   hL   367    MY  H14R 14399     0.025511      1.00800 ; qtot -0.061
 14400   hL   367    MY  H14S 14400     0.025511      1.00800 ; qtot -0.035
 14401   cD   367    MY  C113 14401     0.017463     12.01000 ; qtot -0.018
 14402   hL   367    MY  H13R 14402     0.007531      1.00800 ; qtot -0.010
 14403   hL   367    MY  H13S 14403     0.007531      1.00800 ; qtot -0.003
 14404   cD   367    MY  C112 14404    -0.028094     12.01000 ; qtot -0.031
 14405   hL   367    MY  H12R 14405     0.017208      1.00800 ; qtot -0.014
 14406   hL   367    MY  H12S 14406     0.017208      1.00800 ; qtot 0.004
 14407   cD   367    MY  C111 14407    -0.031787     12.01000 ; qtot -0.028
 14408   hL   367    MY  H11R 14408     0.012677      1.00800 ; qtot -0.015
 14409   hL   367    MY  H11S 14409     0.012677      1.00800 ; qtot -0.003
 14410   cD   367    MY  C110 14410    -0.021025     12.01000 ; qtot -0.024
 14411   hL   367    MY  H10R 14411     0.010037      1.00800 ; qtot -0.014
 14412   hL   367    MY  H10S 14412     0.010037      1.00800 ; qtot -0.004
 14413   cD   367    MY   C19 14413    -0.014653     12.01000 ; qtot -0.018
 14414   hL   367    MY   H9R 14414     0.010172      1.00800 ; qtot -0.008
 14415   hL   367    MY   H9S 14415     0.010172      1.00800 ; qtot 0.002
 14416   cD   367    MY   C18 14416    -0.026451     12.01000 ; qtot -0.024
 14417   hL   367    MY   H8R 14417     0.011241      1.00800 ; qtot -0.013
 14418   hL   367    MY   H8S 14418     0.011241      1.00800 ; qtot -0.002
 14419   cD   367    MY   C17 14419    -0.004386     12.01000 ; qtot -0.006
 14420   hL   367    MY   H7R 14420     0.006833      1.00800 ; qtot 0.000
 14421   hL   367    MY   H7S 14421     0.006833      1.00800 ; qtot 0.007
 14422   cD   367    MY   C16 14422    -0.027812     12.01000 ; qtot -0.021
 14423   hL   367    MY   H6R 14423     0.011511      1.00800 ; qtot -0.009
 14424   hL   367    MY   H6S 14424     0.011511      1.00800 ; qtot 0.002
 14425   cD   367    MY   C15 14425    -0.016521     12.01000 ; qtot -0.014
 14426   hL   367    MY   H5R 14426     0.010573      1.00800 ; qtot -0.003
 14427   hL   367    MY   H5S 14427     0.010573      1.00800 ; qtot 0.007
 14428   cD   367    MY   C14 14428    -0.026954     12.01000 ; qtot -0.020
 14429   hL   367    MY   H4R 14429     0.020431      1.00800 ; qtot 0.001
 14430   hL   367    MY   H4S 14430     0.020431      1.00800 ; qtot 0.021
 14431   cD   367    MY   C13 14431    -0.002435     12.01000 ; qtot 0.019
 14432   hL   367    MY   H3R 14432     0.018859      1.00800 ; qtot 0.037
 14433   hL   367    MY   H3S 14433     0.018859      1.00800 ; qtot 0.056
 14434   cD   367    MY   C12 14434    -0.164200     12.01000 ; qtot -0.108
 14435   hL   367    MY   H2R 14435     0.053944      1.00800 ; qtot -0.054
 14436   hL   367    MY   H2S 14436     0.053944      1.00800 ; qtot -0.000
 14437   cC   368    PC   C11 14437     0.910403     12.01000 ; qtot 0.910
 14438   oC   368    PC   O12 14438    -0.671566     16.00000 ; qtot 0.239
 14439   oS   368    PC   O11 14439    -0.575489     16.00000 ; qtot -0.337
 14440   cA   368    PC    C1 14440     0.196939     12.01000 ; qtot -0.140
 14441   hE   368    PC    HR 14441     0.070469      1.00800 ; qtot -0.069
 14442   hE   368    PC    HS 14442     0.070469      1.00800 ; qtot 0.001
 14443   cA   368    PC    C2 14443     0.281242     12.01000 ; qtot 0.282
 14444   hE   368    PC    HX 14444     0.063253      1.00800 ; qtot 0.346
 14445   cA   368    PC    C3 14445     0.017459     12.01000 ; qtot 0.363
 14446   hE   368    PC    HA 14446     0.095591      1.00800 ; qtot 0.459
 14447   hE   368    PC    HB 14447     0.095591      1.00800 ; qtot 0.554
 14448   oT   368    PC   O31 14448    -0.509480     16.00000 ; qtot 0.045
 14449   pA   368    PC   P31 14449     1.339721     30.97000 ; qtot 1.385
 14450   oT   368    PC   O32 14450    -0.508176     16.00000 ; qtot 0.876
 14451   cA   368    PC   C31 14451     0.166801     12.01000 ; qtot 1.043
 14452   hE   368    PC   H1A 14452     0.078534      1.00800 ; qtot 1.122
 14453   hE   368    PC   H1B 14453     0.078534      1.00800 ; qtot 1.200
 14454   cA   368    PC   C32 14454    -0.170824     12.01000 ; qtot 1.029
 14455   hX   368    PC   H2A 14455     0.136415      1.00800 ; qtot 1.166
 14456   hX   368    PC   H2B 14456     0.136415      1.00800 ; qtot 1.302
 14457   nA   368    PC   N31 14457     0.245262     14.01000 ; qtot 1.548
 14458   cA   368    PC   C33 14458    -0.338973     12.01000 ; qtot 1.209
 14459   hX   368    PC   H3A 14459     0.172230      1.00800 ; qtot 1.381
 14460   hX   368    PC   H3B 14460     0.172230      1.00800 ; qtot 1.553
 14461   hX   368    PC   H3C 14461     0.172230      1.00800 ; qtot 1.725
 14462   cA   368    PC   C34 14462    -0.338973     12.01000 ; qtot 1.386
 14463   hX   368    PC   H4A 14463     0.172230      1.00800 ; qtot 1.559
 14464   hX   368    PC   H4B 14464     0.172230      1.00800 ; qtot 1.731
 14465   hX   368    PC   H4C 14465     0.172230      1.00800 ; qtot 1.903
 14466   cA   368    PC   C35 14466    -0.338973     12.01000 ; qtot 1.564
 14467   hX   368    PC   H5A 14467     0.172230      1.00800 ; qtot 1.736
 14468   hX   368    PC   H5B 14468     0.172230      1.00800 ; qtot 1.908
 14469   hX   368    PC   H5C 14469     0.172230      1.00800 ; qtot 2.081
 14470   oP   368    PC   O33 14470    -0.875812     16.00000 ; qtot 1.205
 14471   oP   368    PC   O34 14471    -0.875812     16.00000 ; qtot 0.329
 14472   oS   368    PC   O21 14472    -0.552948     16.00000 ; qtot -0.224
 14473   cC   368    PC   C21 14473     0.897613     12.01000 ; qtot 0.674
 14474   oC   368    PC   O22 14474    -0.673755     16.00000 ; qtot 0.000
 14475   hL   369    MY  H14T 14475     0.025511      1.00800 ; qtot 0.026
 14476   cD   369    MY  C114 14476    -0.111712     12.01000 ; qtot -0.086
 14477   hL   369    MY  H14R 14477     0.025511      1.00800 ; qtot -0.061
 14478   hL   369    MY  H14S 14478     0.025511      1.00800 ; qtot -0.035
 14479   cD   369    MY  C113 14479     0.017463     12.01000 ; qtot -0.018
 14480   hL   369    MY  H13R 14480     0.007531      1.00800 ; qtot -0.010
 14481   hL   369    MY  H13S 14481     0.007531      1.00800 ; qtot -0.003
 14482   cD   369    MY  C112 14482    -0.028094     12.01000 ; qtot -0.031
 14483   hL   369    MY  H12R 14483     0.017208      1.00800 ; qtot -0.014
 14484   hL   369    MY  H12S 14484     0.017208      1.00800 ; qtot 0.004
 14485   cD   369    MY  C111 14485    -0.031787     12.01000 ; qtot -0.028
 14486   hL   369    MY  H11R 14486     0.012677      1.00800 ; qtot -0.015
 14487   hL   369    MY  H11S 14487     0.012677      1.00800 ; qtot -0.003
 14488   cD   369    MY  C110 14488    -0.021025     12.01000 ; qtot -0.024
 14489   hL   369    MY  H10R 14489     0.010037      1.00800 ; qtot -0.014
 14490   hL   369    MY  H10S 14490     0.010037      1.00800 ; qtot -0.004
 14491   cD   369    MY   C19 14491    -0.014653     12.01000 ; qtot -0.018
 14492   hL   369    MY   H9R 14492     0.010172      1.00800 ; qtot -0.008
 14493   hL   369    MY   H9S 14493     0.010172      1.00800 ; qtot 0.002
 14494   cD   369    MY   C18 14494    -0.026451     12.01000 ; qtot -0.024
 14495   hL   369    MY   H8R 14495     0.011241      1.00800 ; qtot -0.013
 14496   hL   369    MY   H8S 14496     0.011241      1.00800 ; qtot -0.002
 14497   cD   369    MY   C17 14497    -0.004386     12.01000 ; qtot -0.006
 14498   hL   369    MY   H7R 14498     0.006833      1.00800 ; qtot 0.000
 14499   hL   369    MY   H7S 14499     0.006833      1.00800 ; qtot 0.007
 14500   cD   369    MY   C16 14500    -0.027812     12.01000 ; qtot -0.021
 14501   hL   369    MY   H6R 14501     0.011511      1.00800 ; qtot -0.009
 14502   hL   369    MY   H6S 14502     0.011511      1.00800 ; qtot 0.002
 14503   cD   369    MY   C15 14503    -0.016521     12.01000 ; qtot -0.014
 14504   hL   369    MY   H5R 14504     0.010573      1.00800 ; qtot -0.003
 14505   hL   369    MY   H5S 14505     0.010573      1.00800 ; qtot 0.007
 14506   cD   369    MY   C14 14506    -0.026954     12.01000 ; qtot -0.020
 14507   hL   369    MY   H4R 14507     0.020431      1.00800 ; qtot 0.001
 14508   hL   369    MY   H4S 14508     0.020431      1.00800 ; qtot 0.021
 14509   cD   369    MY   C13 14509    -0.002435     12.01000 ; qtot 0.019
 14510   hL   369    MY   H3R 14510     0.018859      1.00800 ; qtot 0.037
 14511   hL   369    MY   H3S 14511     0.018859      1.00800 ; qtot 0.056
 14512   cD   369    MY   C12 14512    -0.164200     12.01000 ; qtot -0.108
 14513   hL   369    MY   H2R 14513     0.053944      1.00800 ; qtot -0.054
 14514   hL   369    MY   H2S 14514     0.053944      1.00800 ; qtot -0.000
 14515   hL   370    MY  H14T 14515     0.025511      1.00800 ; qtot 0.026
 14516   cD   370    MY  C114 14516    -0.111712     12.01000 ; qtot -0.086
 14517   hL   370    MY  H14R 14517     0.025511      1.00800 ; qtot -0.061
 14518   hL   370    MY  H14S 14518     0.025511      1.00800 ; qtot -0.035
 14519   cD   370    MY  C113 14519     0.017463     12.01000 ; qtot -0.018
 14520   hL   370    MY  H13R 14520     0.007531      1.00800 ; qtot -0.010
 14521   hL   370    MY  H13S 14521     0.007531      1.00800 ; qtot -0.003
 14522   cD   370    MY  C112 14522    -0.028094     12.01000 ; qtot -0.031
 14523   hL   370    MY  H12R 14523     0.017208      1.00800 ; qtot -0.014
 14524   hL   370    MY  H12S 14524     0.017208      1.00800 ; qtot 0.004
 14525   cD   370    MY  C111 14525    -0.031787     12.01000 ; qtot -0.028
 14526   hL   370    MY  H11R 14526     0.012677      1.00800 ; qtot -0.015
 14527   hL   370    MY  H11S 14527     0.012677      1.00800 ; qtot -0.003
 14528   cD   370    MY  C110 14528    -0.021025     12.01000 ; qtot -0.024
 14529   hL   370    MY  H10R 14529     0.010037      1.00800 ; qtot -0.014
 14530   hL   370    MY  H10S 14530     0.010037      1.00800 ; qtot -0.004
 14531   cD   370    MY   C19 14531    -0.014653     12.01000 ; qtot -0.018
 14532   hL   370    MY   H9R 14532     0.010172      1.00800 ; qtot -0.008
 14533   hL   370    MY   H9S 14533     0.010172      1.00800 ; qtot 0.002
 14534   cD   370    MY   C18 14534    -0.026451     12.01000 ; qtot -0.024
 14535   hL   370    MY   H8R 14535     0.011241      1.00800 ; qtot -0.013
 14536   hL   370    MY   H8S 14536     0.011241      1.00800 ; qtot -0.002
 14537   cD   370    MY   C17 14537    -0.004386     12.01000 ; qtot -0.006
 14538   hL   370    MY   H7R 14538     0.006833      1.00800 ; qtot 0.000
 14539   hL   370    MY   H7S 14539     0.006833      1.00800 ; qtot 0.007
 14540   cD   370    MY   C16 14540    -0.027812     12.01000 ; qtot -0.021
 14541   hL   370    MY   H6R 14541     0.011511      1.00800 ; qtot -0.009
 14542   hL   370    MY   H6S 14542     0.011511      1.00800 ; qtot 0.002
 14543   cD   370    MY   C15 14543    -0.016521     12.01000 ; qtot -0.014
 14544   hL   370    MY   H5R 14544     0.010573      1.00800 ; qtot -0.003
 14545   hL   370    MY   H5S 14545     0.010573      1.00800 ; qtot 0.007
 14546   cD   370    MY   C14 14546    -0.026954     12.01000 ; qtot -0.020
 14547   hL   370    MY   H4R 14547     0.020431      1.00800 ; qtot 0.001
 14548   hL   370    MY   H4S 14548     0.020431      1.00800 ; qtot 0.021
 14549   cD   370    MY   C13 14549    -0.002435     12.01000 ; qtot 0.019
 14550   hL   370    MY   H3R 14550     0.018859      1.00800 ; qtot 0.037
 14551   hL   370    MY   H3S 14551     0.018859      1.00800 ; qtot 0.056
 14552   cD   370    MY   C12 14552    -0.164200     12.01000 ; qtot -0.108
 14553   hL   370    MY   H2R 14553     0.053944      1.00800 ; qtot -0.054
 14554   hL   370    MY   H2S 14554     0.053944      1.00800 ; qtot -0.000
 14555   cC   371    PC   C11 14555     0.910403     12.01000 ; qtot 0.910
 14556   oC   371    PC   O12 14556    -0.671566     16.00000 ; qtot 0.239
 14557   oS   371    PC   O11 14557    -0.575489     16.00000 ; qtot -0.337
 14558   cA   371    PC    C1 14558     0.196939     12.01000 ; qtot -0.140
 14559   hE   371    PC    HR 14559     0.070469      1.00800 ; qtot -0.069
 14560   hE   371    PC    HS 14560     0.070469      1.00800 ; qtot 0.001
 14561   cA   371    PC    C2 14561     0.281242     12.01000 ; qtot 0.282
 14562   hE   371    PC    HX 14562     0.063253      1.00800 ; qtot 0.346
 14563   cA   371    PC    C3 14563     0.017459     12.01000 ; qtot 0.363
 14564   hE   371    PC    HA 14564     0.095591      1.00800 ; qtot 0.459
 14565   hE   371    PC    HB 14565     0.095591      1.00800 ; qtot 0.554
 14566   oT   371    PC   O31 14566    -0.509480     16.00000 ; qtot 0.045
 14567   pA   371    PC   P31 14567     1.339721     30.97000 ; qtot 1.385
 14568   oT   371    PC   O32 14568    -0.508176     16.00000 ; qtot 0.876
 14569   cA   371    PC   C31 14569     0.166801     12.01000 ; qtot 1.043
 14570   hE   371    PC   H1A 14570     0.078534      1.00800 ; qtot 1.122
 14571   hE   371    PC   H1B 14571     0.078534      1.00800 ; qtot 1.200
 14572   cA   371    PC   C32 14572    -0.170824     12.01000 ; qtot 1.029
 14573   hX   371    PC   H2A 14573     0.136415      1.00800 ; qtot 1.166
 14574   hX   371    PC   H2B 14574     0.136415      1.00800 ; qtot 1.302
 14575   nA   371    PC   N31 14575     0.245262     14.01000 ; qtot 1.548
 14576   cA   371    PC   C33 14576    -0.338973     12.01000 ; qtot 1.209
 14577   hX   371    PC   H3A 14577     0.172230      1.00800 ; qtot 1.381
 14578   hX   371    PC   H3B 14578     0.172230      1.00800 ; qtot 1.553
 14579   hX   371    PC   H3C 14579     0.172230      1.00800 ; qtot 1.725
 14580   cA   371    PC   C34 14580    -0.338973     12.01000 ; qtot 1.386
 14581   hX   371    PC   H4A 14581     0.172230      1.00800 ; qtot 1.559
 14582   hX   371    PC   H4B 14582     0.172230      1.00800 ; qtot 1.731
 14583   hX   371    PC   H4C 14583     0.172230      1.00800 ; qtot 1.903
 14584   cA   371    PC   C35 14584    -0.338973     12.01000 ; qtot 1.564
 14585   hX   371    PC   H5A 14585     0.172230      1.00800 ; qtot 1.736
 14586   hX   371    PC   H5B 14586     0.172230      1.00800 ; qtot 1.908
 14587   hX   371    PC   H5C 14587     0.172230      1.00800 ; qtot 2.081
 14588   oP   371    PC   O33 14588    -0.875812     16.00000 ; qtot 1.205
 14589   oP   371    PC   O34 14589    -0.875812     16.00000 ; qtot 0.329
 14590   oS   371    PC   O21 14590    -0.552948     16.00000 ; qtot -0.224
 14591   cC   371    PC   C21 14591     0.897613     12.01000 ; qtot 0.674
 14592   oC   371    PC   O22 14592    -0.673755     16.00000 ; qtot 0.000
 14593   hL   372    MY  H14T 14593     0.025511      1.00800 ; qtot 0.026
 14594   cD   372    MY  C114 14594    -0.111712     12.01000 ; qtot -0.086
 14595   hL   372    MY  H14R 14595     0.025511      1.00800 ; qtot -0.061
 14596   hL   372    MY  H14S 14596     0.025511      1.00800 ; qtot -0.035
 14597   cD   372    MY  C113 14597     0.017463     12.01000 ; qtot -0.018
 14598   hL   372    MY  H13R 14598     0.007531      1.00800 ; qtot -0.010
 14599   hL   372    MY  H13S 14599     0.007531      1.00800 ; qtot -0.003
 14600   cD   372    MY  C112 14600    -0.028094     12.01000 ; qtot -0.031
 14601   hL   372    MY  H12R 14601     0.017208      1.00800 ; qtot -0.014
 14602   hL   372    MY  H12S 14602     0.017208      1.00800 ; qtot 0.004
 14603   cD   372    MY  C111 14603    -0.031787     12.01000 ; qtot -0.028
 14604   hL   372    MY  H11R 14604     0.012677      1.00800 ; qtot -0.015
 14605   hL   372    MY  H11S 14605     0.012677      1.00800 ; qtot -0.003
 14606   cD   372    MY  C110 14606    -0.021025     12.01000 ; qtot -0.024
 14607   hL   372    MY  H10R 14607     0.010037      1.00800 ; qtot -0.014
 14608   hL   372    MY  H10S 14608     0.010037      1.00800 ; qtot -0.004
 14609   cD   372    MY   C19 14609    -0.014653     12.01000 ; qtot -0.018
 14610   hL   372    MY   H9R 14610     0.010172      1.00800 ; qtot -0.008
 14611   hL   372    MY   H9S 14611     0.010172      1.00800 ; qtot 0.002
 14612   cD   372    MY   C18 14612    -0.026451     12.01000 ; qtot -0.024
 14613   hL   372    MY   H8R 14613     0.011241      1.00800 ; qtot -0.013
 14614   hL   372    MY   H8S 14614     0.011241      1.00800 ; qtot -0.002
 14615   cD   372    MY   C17 14615    -0.004386     12.01000 ; qtot -0.006
 14616   hL   372    MY   H7R 14616     0.006833      1.00800 ; qtot 0.000
 14617   hL   372    MY   H7S 14617     0.006833      1.00800 ; qtot 0.007
 14618   cD   372    MY   C16 14618    -0.027812     12.01000 ; qtot -0.021
 14619   hL   372    MY   H6R 14619     0.011511      1.00800 ; qtot -0.009
 14620   hL   372    MY   H6S 14620     0.011511      1.00800 ; qtot 0.002
 14621   cD   372    MY   C15 14621    -0.016521     12.01000 ; qtot -0.014
 14622   hL   372    MY   H5R 14622     0.010573      1.00800 ; qtot -0.003
 14623   hL   372    MY   H5S 14623     0.010573      1.00800 ; qtot 0.007
 14624   cD   372    MY   C14 14624    -0.026954     12.01000 ; qtot -0.020
 14625   hL   372    MY   H4R 14625     0.020431      1.00800 ; qtot 0.001
 14626   hL   372    MY   H4S 14626     0.020431      1.00800 ; qtot 0.021
 14627   cD   372    MY   C13 14627    -0.002435     12.01000 ; qtot 0.019
 14628   hL   372    MY   H3R 14628     0.018859      1.00800 ; qtot 0.037
 14629   hL   372    MY   H3S 14629     0.018859      1.00800 ; qtot 0.056
 14630   cD   372    MY   C12 14630    -0.164200     12.01000 ; qtot -0.108
 14631   hL   372    MY   H2R 14631     0.053944      1.00800 ; qtot -0.054
 14632   hL   372    MY   H2S 14632     0.053944      1.00800 ; qtot -0.000
 14633   hL   373    MY  H14T 14633     0.025511      1.00800 ; qtot 0.026
 14634   cD   373    MY  C114 14634    -0.111712     12.01000 ; qtot -0.086
 14635   hL   373    MY  H14R 14635     0.025511      1.00800 ; qtot -0.061
 14636   hL   373    MY  H14S 14636     0.025511      1.00800 ; qtot -0.035
 14637   cD   373    MY  C113 14637     0.017463     12.01000 ; qtot -0.018
 14638   hL   373    MY  H13R 14638     0.007531      1.00800 ; qtot -0.010
 14639   hL   373    MY  H13S 14639     0.007531      1.00800 ; qtot -0.003
 14640   cD   373    MY  C112 14640    -0.028094     12.01000 ; qtot -0.031
 14641   hL   373    MY  H12R 14641     0.017208      1.00800 ; qtot -0.014
 14642   hL   373    MY  H12S 14642     0.017208      1.00800 ; qtot 0.004
 14643   cD   373    MY  C111 14643    -0.031787     12.01000 ; qtot -0.028
 14644   hL   373    MY  H11R 14644     0.012677      1.00800 ; qtot -0.015
 14645   hL   373    MY  H11S 14645     0.012677      1.00800 ; qtot -0.003
 14646   cD   373    MY  C110 14646    -0.021025     12.01000 ; qtot -0.024
 14647   hL   373    MY  H10R 14647     0.010037      1.00800 ; qtot -0.014
 14648   hL   373    MY  H10S 14648     0.010037      1.00800 ; qtot -0.004
 14649   cD   373    MY   C19 14649    -0.014653     12.01000 ; qtot -0.018
 14650   hL   373    MY   H9R 14650     0.010172      1.00800 ; qtot -0.008
 14651   hL   373    MY   H9S 14651     0.010172      1.00800 ; qtot 0.002
 14652   cD   373    MY   C18 14652    -0.026451     12.01000 ; qtot -0.024
 14653   hL   373    MY   H8R 14653     0.011241      1.00800 ; qtot -0.013
 14654   hL   373    MY   H8S 14654     0.011241      1.00800 ; qtot -0.002
 14655   cD   373    MY   C17 14655    -0.004386     12.01000 ; qtot -0.006
 14656   hL   373    MY   H7R 14656     0.006833      1.00800 ; qtot 0.000
 14657   hL   373    MY   H7S 14657     0.006833      1.00800 ; qtot 0.007
 14658   cD   373    MY   C16 14658    -0.027812     12.01000 ; qtot -0.021
 14659   hL   373    MY   H6R 14659     0.011511      1.00800 ; qtot -0.009
 14660   hL   373    MY   H6S 14660     0.011511      1.00800 ; qtot 0.002
 14661   cD   373    MY   C15 14661    -0.016521     12.01000 ; qtot -0.014
 14662   hL   373    MY   H5R 14662     0.010573      1.00800 ; qtot -0.003
 14663   hL   373    MY   H5S 14663     0.010573      1.00800 ; qtot 0.007
 14664   cD   373    MY   C14 14664    -0.026954     12.01000 ; qtot -0.020
 14665   hL   373    MY   H4R 14665     0.020431      1.00800 ; qtot 0.001
 14666   hL   373    MY   H4S 14666     0.020431      1.00800 ; qtot 0.021
 14667   cD   373    MY   C13 14667    -0.002435     12.01000 ; qtot 0.019
 14668   hL   373    MY   H3R 14668     0.018859      1.00800 ; qtot 0.037
 14669   hL   373    MY   H3S 14669     0.018859      1.00800 ; qtot 0.056
 14670   cD   373    MY   C12 14670    -0.164200     12.01000 ; qtot -0.108
 14671   hL   373    MY   H2R 14671     0.053944      1.00800 ; qtot -0.054
 14672   hL   373    MY   H2S 14672     0.053944      1.00800 ; qtot -0.000
 14673   cC   374    PC   C11 14673     0.910403     12.01000 ; qtot 0.910
 14674   oC   374    PC   O12 14674    -0.671566     16.00000 ; qtot 0.239
 14675   oS   374    PC   O11 14675    -0.575489     16.00000 ; qtot -0.337
 14676   cA   374    PC    C1 14676     0.196939     12.01000 ; qtot -0.140
 14677   hE   374    PC    HR 14677     0.070469      1.00800 ; qtot -0.069
 14678   hE   374    PC    HS 14678     0.070469      1.00800 ; qtot 0.001
 14679   cA   374    PC    C2 14679     0.281242     12.01000 ; qtot 0.282
 14680   hE   374    PC    HX 14680     0.063253      1.00800 ; qtot 0.346
 14681   cA   374    PC    C3 14681     0.017459     12.01000 ; qtot 0.363
 14682   hE   374    PC    HA 14682     0.095591      1.00800 ; qtot 0.459
 14683   hE   374    PC    HB 14683     0.095591      1.00800 ; qtot 0.554
 14684   oT   374    PC   O31 14684    -0.509480     16.00000 ; qtot 0.045
 14685   pA   374    PC   P31 14685     1.339721     30.97000 ; qtot 1.385
 14686   oT   374    PC   O32 14686    -0.508176     16.00000 ; qtot 0.876
 14687   cA   374    PC   C31 14687     0.166801     12.01000 ; qtot 1.043
 14688   hE   374    PC   H1A 14688     0.078534      1.00800 ; qtot 1.122
 14689   hE   374    PC   H1B 14689     0.078534      1.00800 ; qtot 1.200
 14690   cA   374    PC   C32 14690    -0.170824     12.01000 ; qtot 1.029
 14691   hX   374    PC   H2A 14691     0.136415      1.00800 ; qtot 1.166
 14692   hX   374    PC   H2B 14692     0.136415      1.00800 ; qtot 1.302
 14693   nA   374    PC   N31 14693     0.245262     14.01000 ; qtot 1.548
 14694   cA   374    PC   C33 14694    -0.338973     12.01000 ; qtot 1.209
 14695   hX   374    PC   H3A 14695     0.172230      1.00800 ; qtot 1.381
 14696   hX   374    PC   H3B 14696     0.172230      1.00800 ; qtot 1.553
 14697   hX   374    PC   H3C 14697     0.172230      1.00800 ; qtot 1.725
 14698   cA   374    PC   C34 14698    -0.338973     12.01000 ; qtot 1.386
 14699   hX   374    PC   H4A 14699     0.172230      1.00800 ; qtot 1.559
 14700   hX   374    PC   H4B 14700     0.172230      1.00800 ; qtot 1.731
 14701   hX   374    PC   H4C 14701     0.172230      1.00800 ; qtot 1.903
 14702   cA   374    PC   C35 14702    -0.338973     12.01000 ; qtot 1.564
 14703   hX   374    PC   H5A 14703     0.172230      1.00800 ; qtot 1.736
 14704   hX   374    PC   H5B 14704     0.172230      1.00800 ; qtot 1.908
 14705   hX   374    PC   H5C 14705     0.172230      1.00800 ; qtot 2.081
 14706   oP   374    PC   O33 14706    -0.875812     16.00000 ; qtot 1.205
 14707   oP   374    PC   O34 14707    -0.875812     16.00000 ; qtot 0.329
 14708   oS   374    PC   O21 14708    -0.552948     16.00000 ; qtot -0.224
 14709   cC   374    PC   C21 14709     0.897613     12.01000 ; qtot 0.674
 14710   oC   374    PC   O22 14710    -0.673755     16.00000 ; qtot 0.000
 14711   hL   375    MY  H14T 14711     0.025511      1.00800 ; qtot 0.026
 14712   cD   375    MY  C114 14712    -0.111712     12.01000 ; qtot -0.086
 14713   hL   375    MY  H14R 14713     0.025511      1.00800 ; qtot -0.061
 14714   hL   375    MY  H14S 14714     0.025511      1.00800 ; qtot -0.035
 14715   cD   375    MY  C113 14715     0.017463     12.01000 ; qtot -0.018
 14716   hL   375    MY  H13R 14716     0.007531      1.00800 ; qtot -0.010
 14717   hL   375    MY  H13S 14717     0.007531      1.00800 ; qtot -0.003
 14718   cD   375    MY  C112 14718    -0.028094     12.01000 ; qtot -0.031
 14719   hL   375    MY  H12R 14719     0.017208      1.00800 ; qtot -0.014
 14720   hL   375    MY  H12S 14720     0.017208      1.00800 ; qtot 0.004
 14721   cD   375    MY  C111 14721    -0.031787     12.01000 ; qtot -0.028
 14722   hL   375    MY  H11R 14722     0.012677      1.00800 ; qtot -0.015
 14723   hL   375    MY  H11S 14723     0.012677      1.00800 ; qtot -0.003
 14724   cD   375    MY  C110 14724    -0.021025     12.01000 ; qtot -0.024
 14725   hL   375    MY  H10R 14725     0.010037      1.00800 ; qtot -0.014
 14726   hL   375    MY  H10S 14726     0.010037      1.00800 ; qtot -0.004
 14727   cD   375    MY   C19 14727    -0.014653     12.01000 ; qtot -0.018
 14728   hL   375    MY   H9R 14728     0.010172      1.00800 ; qtot -0.008
 14729   hL   375    MY   H9S 14729     0.010172      1.00800 ; qtot 0.002
 14730   cD   375    MY   C18 14730    -0.026451     12.01000 ; qtot -0.024
 14731   hL   375    MY   H8R 14731     0.011241      1.00800 ; qtot -0.013
 14732   hL   375    MY   H8S 14732     0.011241      1.00800 ; qtot -0.002
 14733   cD   375    MY   C17 14733    -0.004386     12.01000 ; qtot -0.006
 14734   hL   375    MY   H7R 14734     0.006833      1.00800 ; qtot 0.000
 14735   hL   375    MY   H7S 14735     0.006833      1.00800 ; qtot 0.007
 14736   cD   375    MY   C16 14736    -0.027812     12.01000 ; qtot -0.021
 14737   hL   375    MY   H6R 14737     0.011511      1.00800 ; qtot -0.009
 14738   hL   375    MY   H6S 14738     0.011511      1.00800 ; qtot 0.002
 14739   cD   375    MY   C15 14739    -0.016521     12.01000 ; qtot -0.014
 14740   hL   375    MY   H5R 14740     0.010573      1.00800 ; qtot -0.003
 14741   hL   375    MY   H5S 14741     0.010573      1.00800 ; qtot 0.007
 14742   cD   375    MY   C14 14742    -0.026954     12.01000 ; qtot -0.020
 14743   hL   375    MY   H4R 14743     0.020431      1.00800 ; qtot 0.001
 14744   hL   375    MY   H4S 14744     0.020431      1.00800 ; qtot 0.021
 14745   cD   375    MY   C13 14745    -0.002435     12.01000 ; qtot 0.019
 14746   hL   375    MY   H3R 14746     0.018859      1.00800 ; qtot 0.037
 14747   hL   375    MY   H3S 14747     0.018859      1.00800 ; qtot 0.056
 14748   cD   375    MY   C12 14748    -0.164200     12.01000 ; qtot -0.108
 14749   hL   375    MY   H2R 14749     0.053944      1.00800 ; qtot -0.054
 14750   hL   375    MY   H2S 14750     0.053944      1.00800 ; qtot -0.000
 14751   hL   376    MY  H14T 14751     0.025511      1.00800 ; qtot 0.026
 14752   cD   376    MY  C114 14752    -0.111712     12.01000 ; qtot -0.086
 14753   hL   376    MY  H14R 14753     0.025511      1.00800 ; qtot -0.061
 14754   hL   376    MY  H14S 14754     0.025511      1.00800 ; qtot -0.035
 14755   cD   376    MY  C113 14755     0.017463     12.01000 ; qtot -0.018
 14756   hL   376    MY  H13R 14756     0.007531      1.00800 ; qtot -0.010
 14757   hL   376    MY  H13S 14757     0.007531      1.00800 ; qtot -0.003
 14758   cD   376    MY  C112 14758    -0.028094     12.01000 ; qtot -0.031
 14759   hL   376    MY  H12R 14759     0.017208      1.00800 ; qtot -0.014
 14760   hL   376    MY  H12S 14760     0.017208      1.00800 ; qtot 0.004
 14761   cD   376    MY  C111 14761    -0.031787     12.01000 ; qtot -0.028
 14762   hL   376    MY  H11R 14762     0.012677      1.00800 ; qtot -0.015
 14763   hL   376    MY  H11S 14763     0.012677      1.00800 ; qtot -0.003
 14764   cD   376    MY  C110 14764    -0.021025     12.01000 ; qtot -0.024
 14765   hL   376    MY  H10R 14765     0.010037      1.00800 ; qtot -0.014
 14766   hL   376    MY  H10S 14766     0.010037      1.00800 ; qtot -0.004
 14767   cD   376    MY   C19 14767    -0.014653     12.01000 ; qtot -0.018
 14768   hL   376    MY   H9R 14768     0.010172      1.00800 ; qtot -0.008
 14769   hL   376    MY   H9S 14769     0.010172      1.00800 ; qtot 0.002
 14770   cD   376    MY   C18 14770    -0.026451     12.01000 ; qtot -0.024
 14771   hL   376    MY   H8R 14771     0.011241      1.00800 ; qtot -0.013
 14772   hL   376    MY   H8S 14772     0.011241      1.00800 ; qtot -0.002
 14773   cD   376    MY   C17 14773    -0.004386     12.01000 ; qtot -0.006
 14774   hL   376    MY   H7R 14774     0.006833      1.00800 ; qtot 0.000
 14775   hL   376    MY   H7S 14775     0.006833      1.00800 ; qtot 0.007
 14776   cD   376    MY   C16 14776    -0.027812     12.01000 ; qtot -0.021
 14777   hL   376    MY   H6R 14777     0.011511      1.00800 ; qtot -0.009
 14778   hL   376    MY   H6S 14778     0.011511      1.00800 ; qtot 0.002
 14779   cD   376    MY   C15 14779    -0.016521     12.01000 ; qtot -0.014
 14780   hL   376    MY   H5R 14780     0.010573      1.00800 ; qtot -0.003
 14781   hL   376    MY   H5S 14781     0.010573      1.00800 ; qtot 0.007
 14782   cD   376    MY   C14 14782    -0.026954     12.01000 ; qtot -0.020
 14783   hL   376    MY   H4R 14783     0.020431      1.00800 ; qtot 0.001
 14784   hL   376    MY   H4S 14784     0.020431      1.00800 ; qtot 0.021
 14785   cD   376    MY   C13 14785    -0.002435     12.01000 ; qtot 0.019
 14786   hL   376    MY   H3R 14786     0.018859      1.00800 ; qtot 0.037
 14787   hL   376    MY   H3S 14787     0.018859      1.00800 ; qtot 0.056
 14788   cD   376    MY   C12 14788    -0.164200     12.01000 ; qtot -0.108
 14789   hL   376    MY   H2R 14789     0.053944      1.00800 ; qtot -0.054
 14790   hL   376    MY   H2S 14790     0.053944      1.00800 ; qtot -0.000
 14791   cC   377    PC   C11 14791     0.910403     12.01000 ; qtot 0.910
 14792   oC   377    PC   O12 14792    -0.671566     16.00000 ; qtot 0.239
 14793   oS   377    PC   O11 14793    -0.575489     16.00000 ; qtot -0.337
 14794   cA   377    PC    C1 14794     0.196939     12.01000 ; qtot -0.140
 14795   hE   377    PC    HR 14795     0.070469      1.00800 ; qtot -0.069
 14796   hE   377    PC    HS 14796     0.070469      1.00800 ; qtot 0.001
 14797   cA   377    PC    C2 14797     0.281242     12.01000 ; qtot 0.282
 14798   hE   377    PC    HX 14798     0.063253      1.00800 ; qtot 0.346
 14799   cA   377    PC    C3 14799     0.017459     12.01000 ; qtot 0.363
 14800   hE   377    PC    HA 14800     0.095591      1.00800 ; qtot 0.459
 14801   hE   377    PC    HB 14801     0.095591      1.00800 ; qtot 0.554
 14802   oT   377    PC   O31 14802    -0.509480     16.00000 ; qtot 0.045
 14803   pA   377    PC   P31 14803     1.339721     30.97000 ; qtot 1.385
 14804   oT   377    PC   O32 14804    -0.508176     16.00000 ; qtot 0.876
 14805   cA   377    PC   C31 14805     0.166801     12.01000 ; qtot 1.043
 14806   hE   377    PC   H1A 14806     0.078534      1.00800 ; qtot 1.122
 14807   hE   377    PC   H1B 14807     0.078534      1.00800 ; qtot 1.200
 14808   cA   377    PC   C32 14808    -0.170824     12.01000 ; qtot 1.029
 14809   hX   377    PC   H2A 14809     0.136415      1.00800 ; qtot 1.166
 14810   hX   377    PC   H2B 14810     0.136415      1.00800 ; qtot 1.302
 14811   nA   377    PC   N31 14811     0.245262     14.01000 ; qtot 1.548
 14812   cA   377    PC   C33 14812    -0.338973     12.01000 ; qtot 1.209
 14813   hX   377    PC   H3A 14813     0.172230      1.00800 ; qtot 1.381
 14814   hX   377    PC   H3B 14814     0.172230      1.00800 ; qtot 1.553
 14815   hX   377    PC   H3C 14815     0.172230      1.00800 ; qtot 1.725
 14816   cA   377    PC   C34 14816    -0.338973     12.01000 ; qtot 1.386
 14817   hX   377    PC   H4A 14817     0.172230      1.00800 ; qtot 1.559
 14818   hX   377    PC   H4B 14818     0.172230      1.00800 ; qtot 1.731
 14819   hX   377    PC   H4C 14819     0.172230      1.00800 ; qtot 1.903
 14820   cA   377    PC   C35 14820    -0.338973     12.01000 ; qtot 1.564
 14821   hX   377    PC   H5A 14821     0.172230      1.00800 ; qtot 1.736
 14822   hX   377    PC   H5B 14822     0.172230      1.00800 ; qtot 1.908
 14823   hX   377    PC   H5C 14823     0.172230      1.00800 ; qtot 2.081
 14824   oP   377    PC   O33 14824    -0.875812     16.00000 ; qtot 1.205
 14825   oP   377    PC   O34 14825    -0.875812     16.00000 ; qtot 0.329
 14826   oS   377    PC   O21 14826    -0.552948     16.00000 ; qtot -0.224
 14827   cC   377    PC   C21 14827     0.897613     12.01000 ; qtot 0.674
 14828   oC   377    PC   O22 14828    -0.673755     16.00000 ; qtot 0.000
 14829   hL   378    MY  H14T 14829     0.025511      1.00800 ; qtot 0.026
 14830   cD   378    MY  C114 14830    -0.111712     12.01000 ; qtot -0.086
 14831   hL   378    MY  H14R 14831     0.025511      1.00800 ; qtot -0.061
 14832   hL   378    MY  H14S 14832     0.025511      1.00800 ; qtot -0.035
 14833   cD   378    MY  C113 14833     0.017463     12.01000 ; qtot -0.018
 14834   hL   378    MY  H13R 14834     0.007531      1.00800 ; qtot -0.010
 14835   hL   378    MY  H13S 14835     0.007531      1.00800 ; qtot -0.003
 14836   cD   378    MY  C112 14836    -0.028094     12.01000 ; qtot -0.031
 14837   hL   378    MY  H12R 14837     0.017208      1.00800 ; qtot -0.014
 14838   hL   378    MY  H12S 14838     0.017208      1.00800 ; qtot 0.004
 14839   cD   378    MY  C111 14839    -0.031787     12.01000 ; qtot -0.028
 14840   hL   378    MY  H11R 14840     0.012677      1.00800 ; qtot -0.015
 14841   hL   378    MY  H11S 14841     0.012677      1.00800 ; qtot -0.003
 14842   cD   378    MY  C110 14842    -0.021025     12.01000 ; qtot -0.024
 14843   hL   378    MY  H10R 14843     0.010037      1.00800 ; qtot -0.014
 14844   hL   378    MY  H10S 14844     0.010037      1.00800 ; qtot -0.004
 14845   cD   378    MY   C19 14845    -0.014653     12.01000 ; qtot -0.018
 14846   hL   378    MY   H9R 14846     0.010172      1.00800 ; qtot -0.008
 14847   hL   378    MY   H9S 14847     0.010172      1.00800 ; qtot 0.002
 14848   cD   378    MY   C18 14848    -0.026451     12.01000 ; qtot -0.024
 14849   hL   378    MY   H8R 14849     0.011241      1.00800 ; qtot -0.013
 14850   hL   378    MY   H8S 14850     0.011241      1.00800 ; qtot -0.002
 14851   cD   378    MY   C17 14851    -0.004386     12.01000 ; qtot -0.006
 14852   hL   378    MY   H7R 14852     0.006833      1.00800 ; qtot 0.000
 14853   hL   378    MY   H7S 14853     0.006833      1.00800 ; qtot 0.007
 14854   cD   378    MY   C16 14854    -0.027812     12.01000 ; qtot -0.021
 14855   hL   378    MY   H6R 14855     0.011511      1.00800 ; qtot -0.009
 14856   hL   378    MY   H6S 14856     0.011511      1.00800 ; qtot 0.002
 14857   cD   378    MY   C15 14857    -0.016521     12.01000 ; qtot -0.014
 14858   hL   378    MY   H5R 14858     0.010573      1.00800 ; qtot -0.003
 14859   hL   378    MY   H5S 14859     0.010573      1.00800 ; qtot 0.007
 14860   cD   378    MY   C14 14860    -0.026954     12.01000 ; qtot -0.020
 14861   hL   378    MY   H4R 14861     0.020431      1.00800 ; qtot 0.001
 14862   hL   378    MY   H4S 14862     0.020431      1.00800 ; qtot 0.021
 14863   cD   378    MY   C13 14863    -0.002435     12.01000 ; qtot 0.019
 14864   hL   378    MY   H3R 14864     0.018859      1.00800 ; qtot 0.037
 14865   hL   378    MY   H3S 14865     0.018859      1.00800 ; qtot 0.056
 14866   cD   378    MY   C12 14866    -0.164200     12.01000 ; qtot -0.108
 14867   hL   378    MY   H2R 14867     0.053944      1.00800 ; qtot -0.054
 14868   hL   378    MY   H2S 14868     0.053944      1.00800 ; qtot -0.000
 14869   hL   379    MY  H14T 14869     0.025511      1.00800 ; qtot 0.026
 14870   cD   379    MY  C114 14870    -0.111712     12.01000 ; qtot -0.086
 14871   hL   379    MY  H14R 14871     0.025511      1.00800 ; qtot -0.061
 14872   hL   379    MY  H14S 14872     0.025511      1.00800 ; qtot -0.035
 14873   cD   379    MY  C113 14873     0.017463     12.01000 ; qtot -0.018
 14874   hL   379    MY  H13R 14874     0.007531      1.00800 ; qtot -0.010
 14875   hL   379    MY  H13S 14875     0.007531      1.00800 ; qtot -0.003
 14876   cD   379    MY  C112 14876    -0.028094     12.01000 ; qtot -0.031
 14877   hL   379    MY  H12R 14877     0.017208      1.00800 ; qtot -0.014
 14878   hL   379    MY  H12S 14878     0.017208      1.00800 ; qtot 0.004
 14879   cD   379    MY  C111 14879    -0.031787     12.01000 ; qtot -0.028
 14880   hL   379    MY  H11R 14880     0.012677      1.00800 ; qtot -0.015
 14881   hL   379    MY  H11S 14881     0.012677      1.00800 ; qtot -0.003
 14882   cD   379    MY  C110 14882    -0.021025     12.01000 ; qtot -0.024
 14883   hL   379    MY  H10R 14883     0.010037      1.00800 ; qtot -0.014
 14884   hL   379    MY  H10S 14884     0.010037      1.00800 ; qtot -0.004
 14885   cD   379    MY   C19 14885    -0.014653     12.01000 ; qtot -0.018
 14886   hL   379    MY   H9R 14886     0.010172      1.00800 ; qtot -0.008
 14887   hL   379    MY   H9S 14887     0.010172      1.00800 ; qtot 0.002
 14888   cD   379    MY   C18 14888    -0.026451     12.01000 ; qtot -0.024
 14889   hL   379    MY   H8R 14889     0.011241      1.00800 ; qtot -0.013
 14890   hL   379    MY   H8S 14890     0.011241      1.00800 ; qtot -0.002
 14891   cD   379    MY   C17 14891    -0.004386     12.01000 ; qtot -0.006
 14892   hL   379    MY   H7R 14892     0.006833      1.00800 ; qtot 0.000
 14893   hL   379    MY   H7S 14893     0.006833      1.00800 ; qtot 0.007
 14894   cD   379    MY   C16 14894    -0.027812     12.01000 ; qtot -0.021
 14895   hL   379    MY   H6R 14895     0.011511      1.00800 ; qtot -0.009
 14896   hL   379    MY   H6S 14896     0.011511      1.00800 ; qtot 0.002
 14897   cD   379    MY   C15 14897    -0.016521     12.01000 ; qtot -0.014
 14898   hL   379    MY   H5R 14898     0.010573      1.00800 ; qtot -0.003
 14899   hL   379    MY   H5S 14899     0.010573      1.00800 ; qtot 0.007
 14900   cD   379    MY   C14 14900    -0.026954     12.01000 ; qtot -0.020
 14901   hL   379    MY   H4R 14901     0.020431      1.00800 ; qtot 0.001
 14902   hL   379    MY   H4S 14902     0.020431      1.00800 ; qtot 0.021
 14903   cD   379    MY   C13 14903    -0.002435     12.01000 ; qtot 0.019
 14904   hL   379    MY   H3R 14904     0.018859      1.00800 ; qtot 0.037
 14905   hL   379    MY   H3S 14905     0.018859      1.00800 ; qtot 0.056
 14906   cD   379    MY   C12 14906    -0.164200     12.01000 ; qtot -0.108
 14907   hL   379    MY   H2R 14907     0.053944      1.00800 ; qtot -0.054
 14908   hL   379    MY   H2S 14908     0.053944      1.00800 ; qtot -0.000
 14909   cC   380    PC   C11 14909     0.910403     12.01000 ; qtot 0.910
 14910   oC   380    PC   O12 14910    -0.671566     16.00000 ; qtot 0.239
 14911   oS   380    PC   O11 14911    -0.575489     16.00000 ; qtot -0.337
 14912   cA   380    PC    C1 14912     0.196939     12.01000 ; qtot -0.140
 14913   hE   380    PC    HR 14913     0.070469      1.00800 ; qtot -0.069
 14914   hE   380    PC    HS 14914     0.070469      1.00800 ; qtot 0.001
 14915   cA   380    PC    C2 14915     0.281242     12.01000 ; qtot 0.282
 14916   hE   380    PC    HX 14916     0.063253      1.00800 ; qtot 0.346
 14917   cA   380    PC    C3 14917     0.017459     12.01000 ; qtot 0.363
 14918   hE   380    PC    HA 14918     0.095591      1.00800 ; qtot 0.459
 14919   hE   380    PC    HB 14919     0.095591      1.00800 ; qtot 0.554
 14920   oT   380    PC   O31 14920    -0.509480     16.00000 ; qtot 0.045
 14921   pA   380    PC   P31 14921     1.339721     30.97000 ; qtot 1.385
 14922   oT   380    PC   O32 14922    -0.508176     16.00000 ; qtot 0.876
 14923   cA   380    PC   C31 14923     0.166801     12.01000 ; qtot 1.043
 14924   hE   380    PC   H1A 14924     0.078534      1.00800 ; qtot 1.122
 14925   hE   380    PC   H1B 14925     0.078534      1.00800 ; qtot 1.200
 14926   cA   380    PC   C32 14926    -0.170824     12.01000 ; qtot 1.029
 14927   hX   380    PC   H2A 14927     0.136415      1.00800 ; qtot 1.166
 14928   hX   380    PC   H2B 14928     0.136415      1.00800 ; qtot 1.302
 14929   nA   380    PC   N31 14929     0.245262     14.01000 ; qtot 1.548
 14930   cA   380    PC   C33 14930    -0.338973     12.01000 ; qtot 1.209
 14931   hX   380    PC   H3A 14931     0.172230      1.00800 ; qtot 1.381
 14932   hX   380    PC   H3B 14932     0.172230      1.00800 ; qtot 1.553
 14933   hX   380    PC   H3C 14933     0.172230      1.00800 ; qtot 1.725
 14934   cA   380    PC   C34 14934    -0.338973     12.01000 ; qtot 1.386
 14935   hX   380    PC   H4A 14935     0.172230      1.00800 ; qtot 1.559
 14936   hX   380    PC   H4B 14936     0.172230      1.00800 ; qtot 1.731
 14937   hX   380    PC   H4C 14937     0.172230      1.00800 ; qtot 1.903
 14938   cA   380    PC   C35 14938    -0.338973     12.01000 ; qtot 1.564
 14939   hX   380    PC   H5A 14939     0.172230      1.00800 ; qtot 1.736
 14940   hX   380    PC   H5B 14940     0.172230      1.00800 ; qtot 1.908
 14941   hX   380    PC   H5C 14941     0.172230      1.00800 ; qtot 2.081
 14942   oP   380    PC   O33 14942    -0.875812     16.00000 ; qtot 1.205
 14943   oP   380    PC   O34 14943    -0.875812     16.00000 ; qtot 0.329
 14944   oS   380    PC   O21 14944    -0.552948     16.00000 ; qtot -0.224
 14945   cC   380    PC   C21 14945     0.897613     12.01000 ; qtot 0.674
 14946   oC   380    PC   O22 14946    -0.673755     16.00000 ; qtot 0.000
 14947   hL   381    MY  H14T 14947     0.025511      1.00800 ; qtot 0.026
 14948   cD   381    MY  C114 14948    -0.111712     12.01000 ; qtot -0.086
 14949   hL   381    MY  H14R 14949     0.025511      1.00800 ; qtot -0.061
 14950   hL   381    MY  H14S 14950     0.025511      1.00800 ; qtot -0.035
 14951   cD   381    MY  C113 14951     0.017463     12.01000 ; qtot -0.018
 14952   hL   381    MY  H13R 14952     0.007531      1.00800 ; qtot -0.010
 14953   hL   381    MY  H13S 14953     0.007531      1.00800 ; qtot -0.003
 14954   cD   381    MY  C112 14954    -0.028094     12.01000 ; qtot -0.031
 14955   hL   381    MY  H12R 14955     0.017208      1.00800 ; qtot -0.014
 14956   hL   381    MY  H12S 14956     0.017208      1.00800 ; qtot 0.004
 14957   cD   381    MY  C111 14957    -0.031787     12.01000 ; qtot -0.028
 14958   hL   381    MY  H11R 14958     0.012677      1.00800 ; qtot -0.015
 14959   hL   381    MY  H11S 14959     0.012677      1.00800 ; qtot -0.003
 14960   cD   381    MY  C110 14960    -0.021025     12.01000 ; qtot -0.024
 14961   hL   381    MY  H10R 14961     0.010037      1.00800 ; qtot -0.014
 14962   hL   381    MY  H10S 14962     0.010037      1.00800 ; qtot -0.004
 14963   cD   381    MY   C19 14963    -0.014653     12.01000 ; qtot -0.018
 14964   hL   381    MY   H9R 14964     0.010172      1.00800 ; qtot -0.008
 14965   hL   381    MY   H9S 14965     0.010172      1.00800 ; qtot 0.002
 14966   cD   381    MY   C18 14966    -0.026451     12.01000 ; qtot -0.024
 14967   hL   381    MY   H8R 14967     0.011241      1.00800 ; qtot -0.013
 14968   hL   381    MY   H8S 14968     0.011241      1.00800 ; qtot -0.002
 14969   cD   381    MY   C17 14969    -0.004386     12.01000 ; qtot -0.006
 14970   hL   381    MY   H7R 14970     0.006833      1.00800 ; qtot 0.000
 14971   hL   381    MY   H7S 14971     0.006833      1.00800 ; qtot 0.007
 14972   cD   381    MY   C16 14972    -0.027812     12.01000 ; qtot -0.021
 14973   hL   381    MY   H6R 14973     0.011511      1.00800 ; qtot -0.009
 14974   hL   381    MY   H6S 14974     0.011511      1.00800 ; qtot 0.002
 14975   cD   381    MY   C15 14975    -0.016521     12.01000 ; qtot -0.014
 14976   hL   381    MY   H5R 14976     0.010573      1.00800 ; qtot -0.003
 14977   hL   381    MY   H5S 14977     0.010573      1.00800 ; qtot 0.007
 14978   cD   381    MY   C14 14978    -0.026954     12.01000 ; qtot -0.020
 14979   hL   381    MY   H4R 14979     0.020431      1.00800 ; qtot 0.001
 14980   hL   381    MY   H4S 14980     0.020431      1.00800 ; qtot 0.021
 14981   cD   381    MY   C13 14981    -0.002435     12.01000 ; qtot 0.019
 14982   hL   381    MY   H3R 14982     0.018859      1.00800 ; qtot 0.037
 14983   hL   381    MY   H3S 14983     0.018859      1.00800 ; qtot 0.056
 14984   cD   381    MY   C12 14984    -0.164200     12.01000 ; qtot -0.108
 14985   hL   381    MY   H2R 14985     0.053944      1.00800 ; qtot -0.054
 14986   hL   381    MY   H2S 14986     0.053944      1.00800 ; qtot -0.000
 14987   hL   382    MY  H14T 14987     0.025511      1.00800 ; qtot 0.026
 14988   cD   382    MY  C114 14988    -0.111712     12.01000 ; qtot -0.086
 14989   hL   382    MY  H14R 14989     0.025511      1.00800 ; qtot -0.061
 14990   hL   382    MY  H14S 14990     0.025511      1.00800 ; qtot -0.035
 14991   cD   382    MY  C113 14991     0.017463     12.01000 ; qtot -0.018
 14992   hL   382    MY  H13R 14992     0.007531      1.00800 ; qtot -0.010
 14993   hL   382    MY  H13S 14993     0.007531      1.00800 ; qtot -0.003
 14994   cD   382    MY  C112 14994    -0.028094     12.01000 ; qtot -0.031
 14995   hL   382    MY  H12R 14995     0.017208      1.00800 ; qtot -0.014
 14996   hL   382    MY  H12S 14996     0.017208      1.00800 ; qtot 0.004
 14997   cD   382    MY  C111 14997    -0.031787     12.01000 ; qtot -0.028
 14998   hL   382    MY  H11R 14998     0.012677      1.00800 ; qtot -0.015
 14999   hL   382    MY  H11S 14999     0.012677      1.00800 ; qtot -0.003
 15000   cD   382    MY  C110 15000    -0.021025     12.01000 ; qtot -0.024
 15001   hL   382    MY  H10R 15001     0.010037      1.00800 ; qtot -0.014
 15002   hL   382    MY  H10S 15002     0.010037      1.00800 ; qtot -0.004
 15003   cD   382    MY   C19 15003    -0.014653     12.01000 ; qtot -0.018
 15004   hL   382    MY   H9R 15004     0.010172      1.00800 ; qtot -0.008
 15005   hL   382    MY   H9S 15005     0.010172      1.00800 ; qtot 0.002
 15006   cD   382    MY   C18 15006    -0.026451     12.01000 ; qtot -0.024
 15007   hL   382    MY   H8R 15007     0.011241      1.00800 ; qtot -0.013
 15008   hL   382    MY   H8S 15008     0.011241      1.00800 ; qtot -0.002
 15009   cD   382    MY   C17 15009    -0.004386     12.01000 ; qtot -0.006
 15010   hL   382    MY   H7R 15010     0.006833      1.00800 ; qtot 0.000
 15011   hL   382    MY   H7S 15011     0.006833      1.00800 ; qtot 0.007
 15012   cD   382    MY   C16 15012    -0.027812     12.01000 ; qtot -0.021
 15013   hL   382    MY   H6R 15013     0.011511      1.00800 ; qtot -0.009
 15014   hL   382    MY   H6S 15014     0.011511      1.00800 ; qtot 0.002
 15015   cD   382    MY   C15 15015    -0.016521     12.01000 ; qtot -0.014
 15016   hL   382    MY   H5R 15016     0.010573      1.00800 ; qtot -0.003
 15017   hL   382    MY   H5S 15017     0.010573      1.00800 ; qtot 0.007
 15018   cD   382    MY   C14 15018    -0.026954     12.01000 ; qtot -0.020
 15019   hL   382    MY   H4R 15019     0.020431      1.00800 ; qtot 0.001
 15020   hL   382    MY   H4S 15020     0.020431      1.00800 ; qtot 0.021
 15021   cD   382    MY   C13 15021    -0.002435     12.01000 ; qtot 0.019
 15022   hL   382    MY   H3R 15022     0.018859      1.00800 ; qtot 0.037
 15023   hL   382    MY   H3S 15023     0.018859      1.00800 ; qtot 0.056
 15024   cD   382    MY   C12 15024    -0.164200     12.01000 ; qtot -0.108
 15025   hL   382    MY   H2R 15025     0.053944      1.00800 ; qtot -0.054
 15026   hL   382    MY   H2S 15026     0.053944      1.00800 ; qtot -0.000
 15027   cC   383    PC   C11 15027     0.910403     12.01000 ; qtot 0.910
 15028   oC   383    PC   O12 15028    -0.671566     16.00000 ; qtot 0.239
 15029   oS   383    PC   O11 15029    -0.575489     16.00000 ; qtot -0.337
 15030   cA   383    PC    C1 15030     0.196939     12.01000 ; qtot -0.140
 15031   hE   383    PC    HR 15031     0.070469      1.00800 ; qtot -0.069
 15032   hE   383    PC    HS 15032     0.070469      1.00800 ; qtot 0.001
 15033   cA   383    PC    C2 15033     0.281242     12.01000 ; qtot 0.282
 15034   hE   383    PC    HX 15034     0.063253      1.00800 ; qtot 0.346
 15035   cA   383    PC    C3 15035     0.017459     12.01000 ; qtot 0.363
 15036   hE   383    PC    HA 15036     0.095591      1.00800 ; qtot 0.459
 15037   hE   383    PC    HB 15037     0.095591      1.00800 ; qtot 0.554
 15038   oT   383    PC   O31 15038    -0.509480     16.00000 ; qtot 0.045
 15039   pA   383    PC   P31 15039     1.339721     30.97000 ; qtot 1.385
 15040   oT   383    PC   O32 15040    -0.508176     16.00000 ; qtot 0.876
 15041   cA   383    PC   C31 15041     0.166801     12.01000 ; qtot 1.043
 15042   hE   383    PC   H1A 15042     0.078534      1.00800 ; qtot 1.122
 15043   hE   383    PC   H1B 15043     0.078534      1.00800 ; qtot 1.200
 15044   cA   383    PC   C32 15044    -0.170824     12.01000 ; qtot 1.029
 15045   hX   383    PC   H2A 15045     0.136415      1.00800 ; qtot 1.166
 15046   hX   383    PC   H2B 15046     0.136415      1.00800 ; qtot 1.302
 15047   nA   383    PC   N31 15047     0.245262     14.01000 ; qtot 1.548
 15048   cA   383    PC   C33 15048    -0.338973     12.01000 ; qtot 1.209
 15049   hX   383    PC   H3A 15049     0.172230      1.00800 ; qtot 1.381
 15050   hX   383    PC   H3B 15050     0.172230      1.00800 ; qtot 1.553
 15051   hX   383    PC   H3C 15051     0.172230      1.00800 ; qtot 1.725
 15052   cA   383    PC   C34 15052    -0.338973     12.01000 ; qtot 1.386
 15053   hX   383    PC   H4A 15053     0.172230      1.00800 ; qtot 1.559
 15054   hX   383    PC   H4B 15054     0.172230      1.00800 ; qtot 1.731
 15055   hX   383    PC   H4C 15055     0.172230      1.00800 ; qtot 1.903
 15056   cA   383    PC   C35 15056    -0.338973     12.01000 ; qtot 1.564
 15057   hX   383    PC   H5A 15057     0.172230      1.00800 ; qtot 1.736
 15058   hX   383    PC   H5B 15058     0.172230      1.00800 ; qtot 1.908
 15059   hX   383    PC   H5C 15059     0.172230      1.00800 ; qtot 2.081
 15060   oP   383    PC   O33 15060    -0.875812     16.00000 ; qtot 1.205
 15061   oP   383    PC   O34 15061    -0.875812     16.00000 ; qtot 0.329
 15062   oS   383    PC   O21 15062    -0.552948     16.00000 ; qtot -0.224
 15063   cC   383    PC   C21 15063     0.897613     12.01000 ; qtot 0.674
 15064   oC   383    PC   O22 15064    -0.673755     16.00000 ; qtot 0.000
 15065   hL   384    MY  H14T 15065     0.025511      1.00800 ; qtot 0.026
 15066   cD   384    MY  C114 15066    -0.111712     12.01000 ; qtot -0.086
 15067   hL   384    MY  H14R 15067     0.025511      1.00800 ; qtot -0.061
 15068   hL   384    MY  H14S 15068     0.025511      1.00800 ; qtot -0.035
 15069   cD   384    MY  C113 15069     0.017463     12.01000 ; qtot -0.018
 15070   hL   384    MY  H13R 15070     0.007531      1.00800 ; qtot -0.010
 15071   hL   384    MY  H13S 15071     0.007531      1.00800 ; qtot -0.003
 15072   cD   384    MY  C112 15072    -0.028094     12.01000 ; qtot -0.031
 15073   hL   384    MY  H12R 15073     0.017208      1.00800 ; qtot -0.014
 15074   hL   384    MY  H12S 15074     0.017208      1.00800 ; qtot 0.004
 15075   cD   384    MY  C111 15075    -0.031787     12.01000 ; qtot -0.028
 15076   hL   384    MY  H11R 15076     0.012677      1.00800 ; qtot -0.015
 15077   hL   384    MY  H11S 15077     0.012677      1.00800 ; qtot -0.003
 15078   cD   384    MY  C110 15078    -0.021025     12.01000 ; qtot -0.024
 15079   hL   384    MY  H10R 15079     0.010037      1.00800 ; qtot -0.014
 15080   hL   384    MY  H10S 15080     0.010037      1.00800 ; qtot -0.004
 15081   cD   384    MY   C19 15081    -0.014653     12.01000 ; qtot -0.018
 15082   hL   384    MY   H9R 15082     0.010172      1.00800 ; qtot -0.008
 15083   hL   384    MY   H9S 15083     0.010172      1.00800 ; qtot 0.002
 15084   cD   384    MY   C18 15084    -0.026451     12.01000 ; qtot -0.024
 15085   hL   384    MY   H8R 15085     0.011241      1.00800 ; qtot -0.013
 15086   hL   384    MY   H8S 15086     0.011241      1.00800 ; qtot -0.002
 15087   cD   384    MY   C17 15087    -0.004386     12.01000 ; qtot -0.006
 15088   hL   384    MY   H7R 15088     0.006833      1.00800 ; qtot 0.000
 15089   hL   384    MY   H7S 15089     0.006833      1.00800 ; qtot 0.007
 15090   cD   384    MY   C16 15090    -0.027812     12.01000 ; qtot -0.021
 15091   hL   384    MY   H6R 15091     0.011511      1.00800 ; qtot -0.009
 15092   hL   384    MY   H6S 15092     0.011511      1.00800 ; qtot 0.002
 15093   cD   384    MY   C15 15093    -0.016521     12.01000 ; qtot -0.014
 15094   hL   384    MY   H5R 15094     0.010573      1.00800 ; qtot -0.003
 15095   hL   384    MY   H5S 15095     0.010573      1.00800 ; qtot 0.007
 15096   cD   384    MY   C14 15096    -0.026954     12.01000 ; qtot -0.020
 15097   hL   384    MY   H4R 15097     0.020431      1.00800 ; qtot 0.001
 15098   hL   384    MY   H4S 15098     0.020431      1.00800 ; qtot 0.021
 15099   cD   384    MY   C13 15099    -0.002435     12.01000 ; qtot 0.019
 15100   hL   384    MY   H3R 15100     0.018859      1.00800 ; qtot 0.037
 15101   hL   384    MY   H3S 15101     0.018859      1.00800 ; qtot 0.056
 15102   cD   384    MY   C12 15102    -0.164200     12.01000 ; qtot -0.108
 15103   hL   384    MY   H2R 15103     0.053944      1.00800 ; qtot -0.054
 15104   hL   384    MY   H2S 15104     0.053944      1.00800 ; qtot -0.000

[ bonds ]
;   ai     aj funct   r             k
     1      2   1    1.0920e-01    2.8225e+05 ;   H14T - C114  
     2      3   1    1.0920e-01    2.8225e+05 ;   C114 - H14R  
     2      4   1    1.0920e-01    2.8225e+05 ;   C114 - H14S  
     2      5   1    1.5350e-01    2.5363e+05 ;   C114 - C113  
     5      6   1    1.0920e-01    2.8225e+05 ;   C113 - H13R  
     5      7   1    1.0920e-01    2.8225e+05 ;   C113 - H13S  
     5      8   1    1.5350e-01    2.5363e+05 ;   C113 - C112  
     8      9   1    1.0920e-01    2.8225e+05 ;   C112 - H12R  
     8     10   1    1.0920e-01    2.8225e+05 ;   C112 - H12S  
     8     11   1    1.5350e-01    2.5363e+05 ;   C112 - C111  
    11     12   1    1.0920e-01    2.8225e+05 ;   C111 - H11R  
    11     13   1    1.0920e-01    2.8225e+05 ;   C111 - H11S  
    11     14   1    1.5350e-01    2.5363e+05 ;   C111 - C110  
    14     15   1    1.0920e-01    2.8225e+05 ;   C110 - H10R  
    14     16   1    1.0920e-01    2.8225e+05 ;   C110 - H10S  
    14     17   1    1.5350e-01    2.5363e+05 ;   C110 - C19   
    17     18   1    1.0920e-01    2.8225e+05 ;    C19 - H9R   
    17     19   1    1.0920e-01    2.8225e+05 ;    C19 - H9S   
    17     20   1    1.5350e-01    2.5363e+05 ;    C19 - C18   
    20     21   1    1.0920e-01    2.8225e+05 ;    C18 - H8R   
    20     22   1    1.0920e-01    2.8225e+05 ;    C18 - H8S   
    20     23   1    1.5350e-01    2.5363e+05 ;    C18 - C17   
    23     24   1    1.0920e-01    2.8225e+05 ;    C17 - H7R   
    23     25   1    1.0920e-01    2.8225e+05 ;    C17 - H7S   
    23     26   1    1.5350e-01    2.5363e+05 ;    C17 - C16   
    26     27   1    1.0920e-01    2.8225e+05 ;    C16 - H6R   
    26     28   1    1.0920e-01    2.8225e+05 ;    C16 - H6S   
    26     29   1    1.5350e-01    2.5363e+05 ;    C16 - C15   
    29     30   1    1.0920e-01    2.8225e+05 ;    C15 - H5R   
    29     31   1    1.0920e-01    2.8225e+05 ;    C15 - H5S   
    29     32   1    1.5350e-01    2.5363e+05 ;    C15 - C14   
    32     33   1    1.0920e-01    2.8225e+05 ;    C14 - H4R   
    32     34   1    1.0920e-01    2.8225e+05 ;    C14 - H4S   
    32     35   1    1.5350e-01    2.5363e+05 ;    C14 - C13   
    35     36   1    1.0920e-01    2.8225e+05 ;    C13 - H3R   
    35     37   1    1.0920e-01    2.8225e+05 ;    C13 - H3S   
    35     38   1    1.5350e-01    2.5363e+05 ;    C13 - C12   
    38     39   1    1.0920e-01    2.8225e+05 ;    C12 - H2R   
    38     40   1    1.0920e-01    2.8225e+05 ;    C12 - H2S   
    38     41   1    1.5080e-01    2.7472e+05 ;    C12 - C11   
    41     42   1    1.2140e-01    5.4225e+05 ;    C11 - O12   
    41     43   1    1.3430e-01    3.4418e+05 ;    C11 - O11   
    43     44   1    1.4390e-01    2.5230e+05 ;    O11 - C1    
    44     45   1    1.0930e-01    2.8108e+05 ;     C1 - HR    
    44     46   1    1.0930e-01    2.8108e+05 ;     C1 - HS    
    44     47   1    1.5350e-01    2.5363e+05 ;     C1 - C2    
    47     48   1    1.0930e-01    2.8108e+05 ;     C2 - HX    
    47     49   1    1.5350e-01    2.5363e+05 ;     C2 - C3    
    47     76   1    1.4390e-01    2.5230e+05 ;     C2 - O21   
    49     50   1    1.0930e-01    2.8108e+05 ;     C3 - HA    
    49     51   1    1.0930e-01    2.8108e+05 ;     C3 - HB    
    49     52   1    1.4390e-01    2.5230e+05 ;     C3 - O31   
    52     53   1    1.6100e-01    1.9246e+05 ;    O31 - P31   
    53     54   1    1.6100e-01    1.9246e+05 ;    P31 - O32   
    53     74   1    1.4800e-01    4.3932e+05 ;    P31 - O33   
    53     75   1    1.4800e-01    4.3932e+05 ;    P31 - O34   
    54     55   1    1.4390e-01    2.5230e+05 ;    O32 - C31   
    55     56   1    1.0930e-01    2.8108e+05 ;    C31 - H1A   
    55     57   1    1.0930e-01    2.8108e+05 ;    C31 - H1B   
    55     58   1    1.5350e-01    2.5363e+05 ;    C31 - C32   
    58     59   1    1.0910e-01    2.8342e+05 ;    C32 - H2A   
    58     60   1    1.0910e-01    2.8342e+05 ;    C32 - H2B   
    58     61   1    1.4990e-01    2.4568e+05 ;    C32 - N31   
    61     62   1    1.4990e-01    2.4568e+05 ;    N31 - C33   
    61     66   1    1.4990e-01    2.4568e+05 ;    N31 - C34   
    61     70   1    1.4990e-01    2.4568e+05 ;    N31 - C35   
    62     63   1    1.0910e-01    2.8342e+05 ;    C33 - H3A   
    62     64   1    1.0910e-01    2.8342e+05 ;    C33 - H3B   
    62     65   1    1.0910e-01    2.8342e+05 ;    C33 - H3C   
    66     67   1    1.0910e-01    2.8342e+05 ;    C34 - H4A   
    66     68   1    1.0910e-01    2.8342e+05 ;    C34 - H4B   
    66     69   1    1.0910e-01    2.8342e+05 ;    C34 - H4C   
    70     71   1    1.0910e-01    2.8342e+05 ;    C35 - H5A   
    70     72   1    1.0910e-01    2.8342e+05 ;    C35 - H5B   
    70     73   1    1.0910e-01    2.8342e+05 ;    C35 - H5C   
    76     77   1    1.3430e-01    3.4418e+05 ;    O21 - C21   
    77     78   1    1.2140e-01    5.4225e+05 ;    C21 - O22   
    77    116   1    1.5080e-01    2.7472e+05 ;    C21 - C12   
    79     80   1    1.0920e-01    2.8225e+05 ;   H14T - C114  
    80     81   1    1.0920e-01    2.8225e+05 ;   C114 - H14R  
    80     82   1    1.0920e-01    2.8225e+05 ;   C114 - H14S  
    80     83   1    1.5350e-01    2.5363e+05 ;   C114 - C113  
    83     84   1    1.0920e-01    2.8225e+05 ;   C113 - H13R  
    83     85   1    1.0920e-01    2.8225e+05 ;   C113 - H13S  
    83     86   1    1.5350e-01    2.5363e+05 ;   C113 - C112  
    86     87   1    1.0920e-01    2.8225e+05 ;   C112 - H12R  
    86     88   1    1.0920e-01    2.8225e+05 ;   C112 - H12S  
    86     89   1    1.5350e-01    2.5363e+05 ;   C112 - C111  
    89     90   1    1.0920e-01    2.8225e+05 ;   C111 - H11R  
    89     91   1    1.0920e-01    2.8225e+05 ;   C111 - H11S  
    89     92   1    1.5350e-01    2.5363e+05 ;   C111 - C110  
    92     93   1    1.0920e-01    2.8225e+05 ;   C110 - H10R  
    92     94   1    1.0920e-01    2.8225e+05 ;   C110 - H10S  
    92     95   1    1.5350e-01    2.5363e+05 ;   C110 - C19   
    95     96   1    1.0920e-01    2.8225e+05 ;    C19 - H9R   
    95     97   1    1.0920e-01    2.8225e+05 ;    C19 - H9S   
    95     98   1    1.5350e-01    2.5363e+05 ;    C19 - C18   
    98     99   1    1.0920e-01    2.8225e+05 ;    C18 - H8R   
    98    100   1    1.0920e-01    2.8225e+05 ;    C18 - H8S   
    98    101   1    1.5350e-01    2.5363e+05 ;    C18 - C17   
   101    102   1    1.0920e-01    2.8225e+05 ;    C17 - H7R   
   101    103   1    1.0920e-01    2.8225e+05 ;    C17 - H7S   
   101    104   1    1.5350e-01    2.5363e+05 ;    C17 - C16   
   104    105   1    1.0920e-01    2.8225e+05 ;    C16 - H6R   
   104    106   1    1.0920e-01    2.8225e+05 ;    C16 - H6S   
   104    107   1    1.5350e-01    2.5363e+05 ;    C16 - C15   
   107    108   1    1.0920e-01    2.8225e+05 ;    C15 - H5R   
   107    109   1    1.0920e-01    2.8225e+05 ;    C15 - H5S   
   107    110   1    1.5350e-01    2.5363e+05 ;    C15 - C14   
   110    111   1    1.0920e-01    2.8225e+05 ;    C14 - H4R   
   110    112   1    1.0920e-01    2.8225e+05 ;    C14 - H4S   
   110    113   1    1.5350e-01    2.5363e+05 ;    C14 - C13   
   113    114   1    1.0920e-01    2.8225e+05 ;    C13 - H3R   
   113    115   1    1.0920e-01    2.8225e+05 ;    C13 - H3S   
   113    116   1    1.5350e-01    2.5363e+05 ;    C13 - C12   
   116    117   1    1.0920e-01    2.8225e+05 ;    C12 - H2R   
   116    118   1    1.0920e-01    2.8225e+05 ;    C12 - H2S   
   119    120   1    1.0920e-01    2.8225e+05 ;   H14T - C114  
   120    121   1    1.0920e-01    2.8225e+05 ;   C114 - H14R  
   120    122   1    1.0920e-01    2.8225e+05 ;   C114 - H14S  
   120    123   1    1.5350e-01    2.5363e+05 ;   C114 - C113  
   123    124   1    1.0920e-01    2.8225e+05 ;   C113 - H13R  
   123    125   1    1.0920e-01    2.8225e+05 ;   C113 - H13S  
   123    126   1    1.5350e-01    2.5363e+05 ;   C113 - C112  
   126    127   1    1.0920e-01    2.8225e+05 ;   C112 - H12R  
   126    128   1    1.0920e-01    2.8225e+05 ;   C112 - H12S  
   126    129   1    1.5350e-01    2.5363e+05 ;   C112 - C111  
   129    130   1    1.0920e-01    2.8225e+05 ;   C111 - H11R  
   129    131   1    1.0920e-01    2.8225e+05 ;   C111 - H11S  
   129    132   1    1.5350e-01    2.5363e+05 ;   C111 - C110  
   132    133   1    1.0920e-01    2.8225e+05 ;   C110 - H10R  
   132    134   1    1.0920e-01    2.8225e+05 ;   C110 - H10S  
   132    135   1    1.5350e-01    2.5363e+05 ;   C110 - C19   
   135    136   1    1.0920e-01    2.8225e+05 ;    C19 - H9R   
   135    137   1    1.0920e-01    2.8225e+05 ;    C19 - H9S   
   135    138   1    1.5350e-01    2.5363e+05 ;    C19 - C18   
   138    139   1    1.0920e-01    2.8225e+05 ;    C18 - H8R   
   138    140   1    1.0920e-01    2.8225e+05 ;    C18 - H8S   
   138    141   1    1.5350e-01    2.5363e+05 ;    C18 - C17   
   141    142   1    1.0920e-01    2.8225e+05 ;    C17 - H7R   
   141    143   1    1.0920e-01    2.8225e+05 ;    C17 - H7S   
   141    144   1    1.5350e-01    2.5363e+05 ;    C17 - C16   
   144    145   1    1.0920e-01    2.8225e+05 ;    C16 - H6R   
   144    146   1    1.0920e-01    2.8225e+05 ;    C16 - H6S   
   144    147   1    1.5350e-01    2.5363e+05 ;    C16 - C15   
   147    148   1    1.0920e-01    2.8225e+05 ;    C15 - H5R   
   147    149   1    1.0920e-01    2.8225e+05 ;    C15 - H5S   
   147    150   1    1.5350e-01    2.5363e+05 ;    C15 - C14   
   150    151   1    1.0920e-01    2.8225e+05 ;    C14 - H4R   
   150    152   1    1.0920e-01    2.8225e+05 ;    C14 - H4S   
   150    153   1    1.5350e-01    2.5363e+05 ;    C14 - C13   
   153    154   1    1.0920e-01    2.8225e+05 ;    C13 - H3R   
   153    155   1    1.0920e-01    2.8225e+05 ;    C13 - H3S   
   153    156   1    1.5350e-01    2.5363e+05 ;    C13 - C12   
   156    157   1    1.0920e-01    2.8225e+05 ;    C12 - H2R   
   156    158   1    1.0920e-01    2.8225e+05 ;    C12 - H2S   
   156    159   1    1.5080e-01    2.7472e+05 ;    C12 - C11   
   159    160   1    1.2140e-01    5.4225e+05 ;    C11 - O12   
   159    161   1    1.3430e-01    3.4418e+05 ;    C11 - O11   
   161    162   1    1.4390e-01    2.5230e+05 ;    O11 - C1    
   162    163   1    1.0930e-01    2.8108e+05 ;     C1 - HR    
   162    164   1    1.0930e-01    2.8108e+05 ;     C1 - HS    
   162    165   1    1.5350e-01    2.5363e+05 ;     C1 - C2    
   165    166   1    1.0930e-01    2.8108e+05 ;     C2 - HX    
   165    167   1    1.5350e-01    2.5363e+05 ;     C2 - C3    
   165    194   1    1.4390e-01    2.5230e+05 ;     C2 - O21   
   167    168   1    1.0930e-01    2.8108e+05 ;     C3 - HA    
   167    169   1    1.0930e-01    2.8108e+05 ;     C3 - HB    
   167    170   1    1.4390e-01    2.5230e+05 ;     C3 - O31   
   170    171   1    1.6100e-01    1.9246e+05 ;    O31 - P31   
   171    172   1    1.6100e-01    1.9246e+05 ;    P31 - O32   
   171    192   1    1.4800e-01    4.3932e+05 ;    P31 - O33   
   171    193   1    1.4800e-01    4.3932e+05 ;    P31 - O34   
   172    173   1    1.4390e-01    2.5230e+05 ;    O32 - C31   
   173    174   1    1.0930e-01    2.8108e+05 ;    C31 - H1A   
   173    175   1    1.0930e-01    2.8108e+05 ;    C31 - H1B   
   173    176   1    1.5350e-01    2.5363e+05 ;    C31 - C32   
   176    177   1    1.0910e-01    2.8342e+05 ;    C32 - H2A   
   176    178   1    1.0910e-01    2.8342e+05 ;    C32 - H2B   
   176    179   1    1.4990e-01    2.4568e+05 ;    C32 - N31   
   179    180   1    1.4990e-01    2.4568e+05 ;    N31 - C33   
   179    184   1    1.4990e-01    2.4568e+05 ;    N31 - C34   
   179    188   1    1.4990e-01    2.4568e+05 ;    N31 - C35   
   180    181   1    1.0910e-01    2.8342e+05 ;    C33 - H3A   
   180    182   1    1.0910e-01    2.8342e+05 ;    C33 - H3B   
   180    183   1    1.0910e-01    2.8342e+05 ;    C33 - H3C   
   184    185   1    1.0910e-01    2.8342e+05 ;    C34 - H4A   
   184    186   1    1.0910e-01    2.8342e+05 ;    C34 - H4B   
   184    187   1    1.0910e-01    2.8342e+05 ;    C34 - H4C   
   188    189   1    1.0910e-01    2.8342e+05 ;    C35 - H5A   
   188    190   1    1.0910e-01    2.8342e+05 ;    C35 - H5B   
   188    191   1    1.0910e-01    2.8342e+05 ;    C35 - H5C   
   194    195   1    1.3430e-01    3.4418e+05 ;    O21 - C21   
   195    196   1    1.2140e-01    5.4225e+05 ;    C21 - O22   
   195    234   1    1.5080e-01    2.7472e+05 ;    C21 - C12   
   197    198   1    1.0920e-01    2.8225e+05 ;   H14T - C114  
   198    199   1    1.0920e-01    2.8225e+05 ;   C114 - H14R  
   198    200   1    1.0920e-01    2.8225e+05 ;   C114 - H14S  
   198    201   1    1.5350e-01    2.5363e+05 ;   C114 - C113  
   201    202   1    1.0920e-01    2.8225e+05 ;   C113 - H13R  
   201    203   1    1.0920e-01    2.8225e+05 ;   C113 - H13S  
   201    204   1    1.5350e-01    2.5363e+05 ;   C113 - C112  
   204    205   1    1.0920e-01    2.8225e+05 ;   C112 - H12R  
   204    206   1    1.0920e-01    2.8225e+05 ;   C112 - H12S  
   204    207   1    1.5350e-01    2.5363e+05 ;   C112 - C111  
   207    208   1    1.0920e-01    2.8225e+05 ;   C111 - H11R  
   207    209   1    1.0920e-01    2.8225e+05 ;   C111 - H11S  
   207    210   1    1.5350e-01    2.5363e+05 ;   C111 - C110  
   210    211   1    1.0920e-01    2.8225e+05 ;   C110 - H10R  
   210    212   1    1.0920e-01    2.8225e+05 ;   C110 - H10S  
   210    213   1    1.5350e-01    2.5363e+05 ;   C110 - C19   
   213    214   1    1.0920e-01    2.8225e+05 ;    C19 - H9R   
   213    215   1    1.0920e-01    2.8225e+05 ;    C19 - H9S   
   213    216   1    1.5350e-01    2.5363e+05 ;    C19 - C18   
   216    217   1    1.0920e-01    2.8225e+05 ;    C18 - H8R   
   216    218   1    1.0920e-01    2.8225e+05 ;    C18 - H8S   
   216    219   1    1.5350e-01    2.5363e+05 ;    C18 - C17   
   219    220   1    1.0920e-01    2.8225e+05 ;    C17 - H7R   
   219    221   1    1.0920e-01    2.8225e+05 ;    C17 - H7S   
   219    222   1    1.5350e-01    2.5363e+05 ;    C17 - C16   
   222    223   1    1.0920e-01    2.8225e+05 ;    C16 - H6R   
   222    224   1    1.0920e-01    2.8225e+05 ;    C16 - H6S   
   222    225   1    1.5350e-01    2.5363e+05 ;    C16 - C15   
   225    226   1    1.0920e-01    2.8225e+05 ;    C15 - H5R   
   225    227   1    1.0920e-01    2.8225e+05 ;    C15 - H5S   
   225    228   1    1.5350e-01    2.5363e+05 ;    C15 - C14   
   228    229   1    1.0920e-01    2.8225e+05 ;    C14 - H4R   
   228    230   1    1.0920e-01    2.8225e+05 ;    C14 - H4S   
   228    231   1    1.5350e-01    2.5363e+05 ;    C14 - C13   
   231    232   1    1.0920e-01    2.8225e+05 ;    C13 - H3R   
   231    233   1    1.0920e-01    2.8225e+05 ;    C13 - H3S   
   231    234   1    1.5350e-01    2.5363e+05 ;    C13 - C12   
   234    235   1    1.0920e-01    2.8225e+05 ;    C12 - H2R   
   234    236   1    1.0920e-01    2.8225e+05 ;    C12 - H2S   
   237    238   1    1.0920e-01    2.8225e+05 ;   H14T - C114  
   238    239   1    1.0920e-01    2.8225e+05 ;   C114 - H14R  
   238    240   1    1.0920e-01    2.8225e+05 ;   C114 - H14S  
   238    241   1    1.5350e-01    2.5363e+05 ;   C114 - C113  
   241    242   1    1.0920e-01    2.8225e+05 ;   C113 - H13R  
   241    243   1    1.0920e-01    2.8225e+05 ;   C113 - H13S  
   241    244   1    1.5350e-01    2.5363e+05 ;   C113 - C112  
   244    245   1    1.0920e-01    2.8225e+05 ;   C112 - H12R  
   244    246   1    1.0920e-01    2.8225e+05 ;   C112 - H12S  
   244    247   1    1.5350e-01    2.5363e+05 ;   C112 - C111  
   247    248   1    1.0920e-01    2.8225e+05 ;   C111 - H11R  
   247    249   1    1.0920e-01    2.8225e+05 ;   C111 - H11S  
   247    250   1    1.5350e-01    2.5363e+05 ;   C111 - C110  
   250    251   1    1.0920e-01    2.8225e+05 ;   C110 - H10R  
   250    252   1    1.0920e-01    2.8225e+05 ;   C110 - H10S  
   250    253   1    1.5350e-01    2.5363e+05 ;   C110 - C19   
   253    254   1    1.0920e-01    2.8225e+05 ;    C19 - H9R   
   253    255   1    1.0920e-01    2.8225e+05 ;    C19 - H9S   
   253    256   1    1.5350e-01    2.5363e+05 ;    C19 - C18   
   256    257   1    1.0920e-01    2.8225e+05 ;    C18 - H8R   
   256    258   1    1.0920e-01    2.8225e+05 ;    C18 - H8S   
   256    259   1    1.5350e-01    2.5363e+05 ;    C18 - C17   
   259    260   1    1.0920e-01    2.8225e+05 ;    C17 - H7R   
   259    261   1    1.0920e-01    2.8225e+05 ;    C17 - H7S   
   259    262   1    1.5350e-01    2.5363e+05 ;    C17 - C16   
   262    263   1    1.0920e-01    2.8225e+05 ;    C16 - H6R   
   262    264   1    1.0920e-01    2.8225e+05 ;    C16 - H6S   
   262    265   1    1.5350e-01    2.5363e+05 ;    C16 - C15   
   265    266   1    1.0920e-01    2.8225e+05 ;    C15 - H5R   
   265    267   1    1.0920e-01    2.8225e+05 ;    C15 - H5S   
   265    268   1    1.5350e-01    2.5363e+05 ;    C15 - C14   
   268    269   1    1.0920e-01    2.8225e+05 ;    C14 - H4R   
   268    270   1    1.0920e-01    2.8225e+05 ;    C14 - H4S   
   268    271   1    1.5350e-01    2.5363e+05 ;    C14 - C13   
   271    272   1    1.0920e-01    2.8225e+05 ;    C13 - H3R   
   271    273   1    1.0920e-01    2.8225e+05 ;    C13 - H3S   
   271    274   1    1.5350e-01    2.5363e+05 ;    C13 - C12   
   274    275   1    1.0920e-01    2.8225e+05 ;    C12 - H2R   
   274    276   1    1.0920e-01    2.8225e+05 ;    C12 - H2S   
   274    277   1    1.5080e-01    2.7472e+05 ;    C12 - C11   
   277    278   1    1.2140e-01    5.4225e+05 ;    C11 - O12   
   277    279   1    1.3430e-01    3.4418e+05 ;    C11 - O11   
   279    280   1    1.4390e-01    2.5230e+05 ;    O11 - C1    
   280    281   1    1.0930e-01    2.8108e+05 ;     C1 - HR    
   280    282   1    1.0930e-01    2.8108e+05 ;     C1 - HS    
   280    283   1    1.5350e-01    2.5363e+05 ;     C1 - C2    
   283    284   1    1.0930e-01    2.8108e+05 ;     C2 - HX    
   283    285   1    1.5350e-01    2.5363e+05 ;     C2 - C3    
   283    312   1    1.4390e-01    2.5230e+05 ;     C2 - O21   
   285    286   1    1.0930e-01    2.8108e+05 ;     C3 - HA    
   285    287   1    1.0930e-01    2.8108e+05 ;     C3 - HB    
   285    288   1    1.4390e-01    2.5230e+05 ;     C3 - O31   
   288    289   1    1.6100e-01    1.9246e+05 ;    O31 - P31   
   289    290   1    1.6100e-01    1.9246e+05 ;    P31 - O32   
   289    310   1    1.4800e-01    4.3932e+05 ;    P31 - O33   
   289    311   1    1.4800e-01    4.3932e+05 ;    P31 - O34   
   290    291   1    1.4390e-01    2.5230e+05 ;    O32 - C31   
   291    292   1    1.0930e-01    2.8108e+05 ;    C31 - H1A   
   291    293   1    1.0930e-01    2.8108e+05 ;    C31 - H1B   
   291    294   1    1.5350e-01    2.5363e+05 ;    C31 - C32   
   294    295   1    1.0910e-01    2.8342e+05 ;    C32 - H2A   
   294    296   1    1.0910e-01    2.8342e+05 ;    C32 - H2B   
   294    297   1    1.4990e-01    2.4568e+05 ;    C32 - N31   
   297    298   1    1.4990e-01    2.4568e+05 ;    N31 - C33   
   297    302   1    1.4990e-01    2.4568e+05 ;    N31 - C34   
   297    306   1    1.4990e-01    2.4568e+05 ;    N31 - C35   
   298    299   1    1.0910e-01    2.8342e+05 ;    C33 - H3A   
   298    300   1    1.0910e-01    2.8342e+05 ;    C33 - H3B   
   298    301   1    1.0910e-01    2.8342e+05 ;    C33 - H3C   
   302    303   1    1.0910e-01    2.8342e+05 ;    C34 - H4A   
   302    304   1    1.0910e-01    2.8342e+05 ;    C34 - H4B   
   302    305   1    1.0910e-01    2.8342e+05 ;    C34 - H4C   
   306    307   1    1.0910e-01    2.8342e+05 ;    C35 - H5A   
   306    308   1    1.0910e-01    2.8342e+05 ;    C35 - H5B   
   306    309   1    1.0910e-01    2.8342e+05 ;    C35 - H5C   
   312    313   1    1.3430e-01    3.4418e+05 ;    O21 - C21   
   313    314   1    1.2140e-01    5.4225e+05 ;    C21 - O22   
   313    352   1    1.5080e-01    2.7472e+05 ;    C21 - C12   
   315    316   1    1.0920e-01    2.8225e+05 ;   H14T - C114  
   316    317   1    1.0920e-01    2.8225e+05 ;   C114 - H14R  
   316    318   1    1.0920e-01    2.8225e+05 ;   C114 - H14S  
   316    319   1    1.5350e-01    2.5363e+05 ;   C114 - C113  
   319    320   1    1.0920e-01    2.8225e+05 ;   C113 - H13R  
   319    321   1    1.0920e-01    2.8225e+05 ;   C113 - H13S  
   319    322   1    1.5350e-01    2.5363e+05 ;   C113 - C112  
   322    323   1    1.0920e-01    2.8225e+05 ;   C112 - H12R  
   322    324   1    1.0920e-01    2.8225e+05 ;   C112 - H12S  
   322    325   1    1.5350e-01    2.5363e+05 ;   C112 - C111  
   325    326   1    1.0920e-01    2.8225e+05 ;   C111 - H11R  
   325    327   1    1.0920e-01    2.8225e+05 ;   C111 - H11S  
   325    328   1    1.5350e-01    2.5363e+05 ;   C111 - C110  
   328    329   1    1.0920e-01    2.8225e+05 ;   C110 - H10R  
   328    330   1    1.0920e-01    2.8225e+05 ;   C110 - H10S  
   328    331   1    1.5350e-01    2.5363e+05 ;   C110 - C19   
   331    332   1    1.0920e-01    2.8225e+05 ;    C19 - H9R   
   331    333   1    1.0920e-01    2.8225e+05 ;    C19 - H9S   
   331    334   1    1.5350e-01    2.5363e+05 ;    C19 - C18   
   334    335   1    1.0920e-01    2.8225e+05 ;    C18 - H8R   
   334    336   1    1.0920e-01    2.8225e+05 ;    C18 - H8S   
   334    337   1    1.5350e-01    2.5363e+05 ;    C18 - C17   
   337    338   1    1.0920e-01    2.8225e+05 ;    C17 - H7R   
   337    339   1    1.0920e-01    2.8225e+05 ;    C17 - H7S   
   337    340   1    1.5350e-01    2.5363e+05 ;    C17 - C16   
   340    341   1    1.0920e-01    2.8225e+05 ;    C16 - H6R   
   340    342   1    1.0920e-01    2.8225e+05 ;    C16 - H6S   
   340    343   1    1.5350e-01    2.5363e+05 ;    C16 - C15   
   343    344   1    1.0920e-01    2.8225e+05 ;    C15 - H5R   
   343    345   1    1.0920e-01    2.8225e+05 ;    C15 - H5S   
   343    346   1    1.5350e-01    2.5363e+05 ;    C15 - C14   
   346    347   1    1.0920e-01    2.8225e+05 ;    C14 - H4R   
   346    348   1    1.0920e-01    2.8225e+05 ;    C14 - H4S   
   346    349   1    1.5350e-01    2.5363e+05 ;    C14 - C13   
   349    350   1    1.0920e-01    2.8225e+05 ;    C13 - H3R   
   349    351   1    1.0920e-01    2.8225e+05 ;    C13 - H3S   
   349    352   1    1.5350e-01    2.5363e+05 ;    C13 - C12   
   352    353   1    1.0920e-01    2.8225e+05 ;    C12 - H2R   
   352    354   1    1.0920e-01    2.8225e+05 ;    C12 - H2S   
   355    356   1    1.0920e-01    2.8225e+05 ;   H14T - C114  
   356    357   1    1.0920e-01    2.8225e+05 ;   C114 - H14R  
   356    358   1    1.0920e-01    2.8225e+05 ;   C114 - H14S  
   356    359   1    1.5350e-01    2.5363e+05 ;   C114 - C113  
   359    360   1    1.0920e-01    2.8225e+05 ;   C113 - H13R  
   359    361   1    1.0920e-01    2.8225e+05 ;   C113 - H13S  
   359    362   1    1.5350e-01    2.5363e+05 ;   C113 - C112  
   362    363   1    1.0920e-01    2.8225e+05 ;   C112 - H12R  
   362    364   1    1.0920e-01    2.8225e+05 ;   C112 - H12S  
   362    365   1    1.5350e-01    2.5363e+05 ;   C112 - C111  
   365    366   1    1.0920e-01    2.8225e+05 ;   C111 - H11R  
   365    367   1    1.0920e-01    2.8225e+05 ;   C111 - H11S  
   365    368   1    1.5350e-01    2.5363e+05 ;   C111 - C110  
   368    369   1    1.0920e-01    2.8225e+05 ;   C110 - H10R  
   368    370   1    1.0920e-01    2.8225e+05 ;   C110 - H10S  
   368    371   1    1.5350e-01    2.5363e+05 ;   C110 - C19   
   371    372   1    1.0920e-01    2.8225e+05 ;    C19 - H9R   
   371    373   1    1.0920e-01    2.8225e+05 ;    C19 - H9S   
   371    374   1    1.5350e-01    2.5363e+05 ;    C19 - C18   
   374    375   1    1.0920e-01    2.8225e+05 ;    C18 - H8R   
   374    376   1    1.0920e-01    2.8225e+05 ;    C18 - H8S   
   374    377   1    1.5350e-01    2.5363e+05 ;    C18 - C17   
   377    378   1    1.0920e-01    2.8225e+05 ;    C17 - H7R   
   377    379   1    1.0920e-01    2.8225e+05 ;    C17 - H7S   
   377    380   1    1.5350e-01    2.5363e+05 ;    C17 - C16   
   380    381   1    1.0920e-01    2.8225e+05 ;    C16 - H6R   
   380    382   1    1.0920e-01    2.8225e+05 ;    C16 - H6S   
   380    383   1    1.5350e-01    2.5363e+05 ;    C16 - C15   
   383    384   1    1.0920e-01    2.8225e+05 ;    C15 - H5R   
   383    385   1    1.0920e-01    2.8225e+05 ;    C15 - H5S   
   383    386   1    1.5350e-01    2.5363e+05 ;    C15 - C14   
   386    387   1    1.0920e-01    2.8225e+05 ;    C14 - H4R   
   386    388   1    1.0920e-01    2.8225e+05 ;    C14 - H4S   
   386    389   1    1.5350e-01    2.5363e+05 ;    C14 - C13   
   389    390   1    1.0920e-01    2.8225e+05 ;    C13 - H3R   
   389    391   1    1.0920e-01    2.8225e+05 ;    C13 - H3S   
   389    392   1    1.5350e-01    2.5363e+05 ;    C13 - C12   
   392    393   1    1.0920e-01    2.8225e+05 ;    C12 - H2R   
   392    394   1    1.0920e-01    2.8225e+05 ;    C12 - H2S   
   392    395   1    1.5080e-01    2.7472e+05 ;    C12 - C11   
   395    396   1    1.2140e-01    5.4225e+05 ;    C11 - O12   
   395    397   1    1.3430e-01    3.4418e+05 ;    C11 - O11   
   397    398   1    1.4390e-01    2.5230e+05 ;    O11 - C1    
   398    399   1    1.0930e-01    2.8108e+05 ;     C1 - HR    
   398    400   1    1.0930e-01    2.8108e+05 ;     C1 - HS    
   398    401   1    1.5350e-01    2.5363e+05 ;     C1 - C2    
   401    402   1    1.0930e-01    2.8108e+05 ;     C2 - HX    
   401    403   1    1.5350e-01    2.5363e+05 ;     C2 - C3    
   401    430   1    1.4390e-01    2.5230e+05 ;     C2 - O21   
   403    404   1    1.0930e-01    2.8108e+05 ;     C3 - HA    
   403    405   1    1.0930e-01    2.8108e+05 ;     C3 - HB    
   403    406   1    1.4390e-01    2.5230e+05 ;     C3 - O31   
   406    407   1    1.6100e-01    1.9246e+05 ;    O31 - P31   
   407    408   1    1.6100e-01    1.9246e+05 ;    P31 - O32   
   407    428   1    1.4800e-01    4.3932e+05 ;    P31 - O33   
   407    429   1    1.4800e-01    4.3932e+05 ;    P31 - O34   
   408    409   1    1.4390e-01    2.5230e+05 ;    O32 - C31   
   409    410   1    1.0930e-01    2.8108e+05 ;    C31 - H1A   
   409    411   1    1.0930e-01    2.8108e+05 ;    C31 - H1B   
   409    412   1    1.5350e-01    2.5363e+05 ;    C31 - C32   
   412    413   1    1.0910e-01    2.8342e+05 ;    C32 - H2A   
   412    414   1    1.0910e-01    2.8342e+05 ;    C32 - H2B   
   412    415   1    1.4990e-01    2.4568e+05 ;    C32 - N31   
   415    416   1    1.4990e-01    2.4568e+05 ;    N31 - C33   
   415    420   1    1.4990e-01    2.4568e+05 ;    N31 - C34   
   415    424   1    1.4990e-01    2.4568e+05 ;    N31 - C35   
   416    417   1    1.0910e-01    2.8342e+05 ;    C33 - H3A   
   416    418   1    1.0910e-01    2.8342e+05 ;    C33 - H3B   
   416    419   1    1.0910e-01    2.8342e+05 ;    C33 - H3C   
   420    421   1    1.0910e-01    2.8342e+05 ;    C34 - H4A   
   420    422   1    1.0910e-01    2.8342e+05 ;    C34 - H4B   
   420    423   1    1.0910e-01    2.8342e+05 ;    C34 - H4C   
   424    425   1    1.0910e-01    2.8342e+05 ;    C35 - H5A   
   424    426   1    1.0910e-01    2.8342e+05 ;    C35 - H5B   
   424    427   1    1.0910e-01    2.8342e+05 ;    C35 - H5C   
   430    431   1    1.3430e-01    3.4418e+05 ;    O21 - C21   
   431    432   1    1.2140e-01    5.4225e+05 ;    C21 - O22   
   431    470   1    1.5080e-01    2.7472e+05 ;    C21 - C12   
   433    434   1    1.0920e-01    2.8225e+05 ;   H14T - C114  
   434    435   1    1.0920e-01    2.8225e+05 ;   C114 - H14R  
   434    436   1    1.0920e-01    2.8225e+05 ;   C114 - H14S  
   434    437   1    1.5350e-01    2.5363e+05 ;   C114 - C113  
   437    438   1    1.0920e-01    2.8225e+05 ;   C113 - H13R  
   437    439   1    1.0920e-01    2.8225e+05 ;   C113 - H13S  
   437    440   1    1.5350e-01    2.5363e+05 ;   C113 - C112  
   440    441   1    1.0920e-01    2.8225e+05 ;   C112 - H12R  
   440    442   1    1.0920e-01    2.8225e+05 ;   C112 - H12S  
   440    443   1    1.5350e-01    2.5363e+05 ;   C112 - C111  
   443    444   1    1.0920e-01    2.8225e+05 ;   C111 - H11R  
   443    445   1    1.0920e-01    2.8225e+05 ;   C111 - H11S  
   443    446   1    1.5350e-01    2.5363e+05 ;   C111 - C110  
   446    447   1    1.0920e-01    2.8225e+05 ;   C110 - H10R  
   446    448   1    1.0920e-01    2.8225e+05 ;   C110 - H10S  
   446    449   1    1.5350e-01    2.5363e+05 ;   C110 - C19   
   449    450   1    1.0920e-01    2.8225e+05 ;    C19 - H9R   
   449    451   1    1.0920e-01    2.8225e+05 ;    C19 - H9S   
   449    452   1    1.5350e-01    2.5363e+05 ;    C19 - C18   
   452    453   1    1.0920e-01    2.8225e+05 ;    C18 - H8R   
   452    454   1    1.0920e-01    2.8225e+05 ;    C18 - H8S   
   452    455   1    1.5350e-01    2.5363e+05 ;    C18 - C17   
   455    456   1    1.0920e-01    2.8225e+05 ;    C17 - H7R   
   455    457   1    1.0920e-01    2.8225e+05 ;    C17 - H7S   
   455    458   1    1.5350e-01    2.5363e+05 ;    C17 - C16   
   458    459   1    1.0920e-01    2.8225e+05 ;    C16 - H6R   
   458    460   1    1.0920e-01    2.8225e+05 ;    C16 - H6S   
   458    461   1    1.5350e-01    2.5363e+05 ;    C16 - C15   
   461    462   1    1.0920e-01    2.8225e+05 ;    C15 - H5R   
   461    463   1    1.0920e-01    2.8225e+05 ;    C15 - H5S   
   461    464   1    1.5350e-01    2.5363e+05 ;    C15 - C14   
   464    465   1    1.0920e-01    2.8225e+05 ;    C14 - H4R   
   464    466   1    1.0920e-01    2.8225e+05 ;    C14 - H4S   
   464    467   1    1.5350e-01    2.5363e+05 ;    C14 - C13   
   467    468   1    1.0920e-01    2.8225e+05 ;    C13 - H3R   
   467    469   1    1.0920e-01    2.8225e+05 ;    C13 - H3S   
   467    470   1    1.5350e-01    2.5363e+05 ;    C13 - C12   
   470    471   1    1.0920e-01    2.8225e+05 ;    C12 - H2R   
   470    472   1    1.0920e-01    2.8225e+05 ;    C12 - H2S   
   473    474   1    1.0920e-01    2.8225e+05 ;   H14T - C114  
   474    475   1    1.0920e-01    2.8225e+05 ;   C114 - H14R  
   474    476   1    1.0920e-01    2.8225e+05 ;   C114 - H14S  
   474    477   1    1.5350e-01    2.5363e+05 ;   C114 - C113  
   477    478   1    1.0920e-01    2.8225e+05 ;   C113 - H13R  
   477    479   1    1.0920e-01    2.8225e+05 ;   C113 - H13S  
   477    480   1    1.5350e-01    2.5363e+05 ;   C113 - C112  
   480    481   1    1.0920e-01    2.8225e+05 ;   C112 - H12R  
   480    482   1    1.0920e-01    2.8225e+05 ;   C112 - H12S  
   480    483   1    1.5350e-01    2.5363e+05 ;   C112 - C111  
   483    484   1    1.0920e-01    2.8225e+05 ;   C111 - H11R  
   483    485   1    1.0920e-01    2.8225e+05 ;   C111 - H11S  
   483    486   1    1.5350e-01    2.5363e+05 ;   C111 - C110  
   486    487   1    1.0920e-01    2.8225e+05 ;   C110 - H10R  
   486    488   1    1.0920e-01    2.8225e+05 ;   C110 - H10S  
   486    489   1    1.5350e-01    2.5363e+05 ;   C110 - C19   
   489    490   1    1.0920e-01    2.8225e+05 ;    C19 - H9R   
   489    491   1    1.0920e-01    2.8225e+05 ;    C19 - H9S   
   489    492   1    1.5350e-01    2.5363e+05 ;    C19 - C18   
   492    493   1    1.0920e-01    2.8225e+05 ;    C18 - H8R   
   492    494   1    1.0920e-01    2.8225e+05 ;    C18 - H8S   
   492    495   1    1.5350e-01    2.5363e+05 ;    C18 - C17   
   495    496   1    1.0920e-01    2.8225e+05 ;    C17 - H7R   
   495    497   1    1.0920e-01    2.8225e+05 ;    C17 - H7S   
   495    498   1    1.5350e-01    2.5363e+05 ;    C17 - C16   
   498    499   1    1.0920e-01    2.8225e+05 ;    C16 - H6R   
   498    500   1    1.0920e-01    2.8225e+05 ;    C16 - H6S   
   498    501   1    1.5350e-01    2.5363e+05 ;    C16 - C15   
   501    502   1    1.0920e-01    2.8225e+05 ;    C15 - H5R   
   501    503   1    1.0920e-01    2.8225e+05 ;    C15 - H5S   
   501    504   1    1.5350e-01    2.5363e+05 ;    C15 - C14   
   504    505   1    1.0920e-01    2.8225e+05 ;    C14 - H4R   
   504    506   1    1.0920e-01    2.8225e+05 ;    C14 - H4S   
   504    507   1    1.5350e-01    2.5363e+05 ;    C14 - C13   
   507    508   1    1.0920e-01    2.8225e+05 ;    C13 - H3R   
   507    509   1    1.0920e-01    2.8225e+05 ;    C13 - H3S   
   507    510   1    1.5350e-01    2.5363e+05 ;    C13 - C12   
   510    511   1    1.0920e-01    2.8225e+05 ;    C12 - H2R   
   510    512   1    1.0920e-01    2.8225e+05 ;    C12 - H2S   
   510    513   1    1.5080e-01    2.7472e+05 ;    C12 - C11   
   513    514   1    1.2140e-01    5.4225e+05 ;    C11 - O12   
   513    515   1    1.3430e-01    3.4418e+05 ;    C11 - O11   
   515    516   1    1.4390e-01    2.5230e+05 ;    O11 - C1    
   516    517   1    1.0930e-01    2.8108e+05 ;     C1 - HR    
   516    518   1    1.0930e-01    2.8108e+05 ;     C1 - HS    
   516    519   1    1.5350e-01    2.5363e+05 ;     C1 - C2    
   519    520   1    1.0930e-01    2.8108e+05 ;     C2 - HX    
   519    521   1    1.5350e-01    2.5363e+05 ;     C2 - C3    
   519    548   1    1.4390e-01    2.5230e+05 ;     C2 - O21   
   521    522   1    1.0930e-01    2.8108e+05 ;     C3 - HA    
   521    523   1    1.0930e-01    2.8108e+05 ;     C3 - HB    
   521    524   1    1.4390e-01    2.5230e+05 ;     C3 - O31   
   524    525   1    1.6100e-01    1.9246e+05 ;    O31 - P31   
   525    526   1    1.6100e-01    1.9246e+05 ;    P31 - O32   
   525    546   1    1.4800e-01    4.3932e+05 ;    P31 - O33   
   525    547   1    1.4800e-01    4.3932e+05 ;    P31 - O34   
   526    527   1    1.4390e-01    2.5230e+05 ;    O32 - C31   
   527    528   1    1.0930e-01    2.8108e+05 ;    C31 - H1A   
   527    529   1    1.0930e-01    2.8108e+05 ;    C31 - H1B   
   527    530   1    1.5350e-01    2.5363e+05 ;    C31 - C32   
   530    531   1    1.0910e-01    2.8342e+05 ;    C32 - H2A   
   530    532   1    1.0910e-01    2.8342e+05 ;    C32 - H2B   
   530    533   1    1.4990e-01    2.4568e+05 ;    C32 - N31   
   533    534   1    1.4990e-01    2.4568e+05 ;    N31 - C33   
   533    538   1    1.4990e-01    2.4568e+05 ;    N31 - C34   
   533    542   1    1.4990e-01    2.4568e+05 ;    N31 - C35   
   534    535   1    1.0910e-01    2.8342e+05 ;    C33 - H3A   
   534    536   1    1.0910e-01    2.8342e+05 ;    C33 - H3B   
   534    537   1    1.0910e-01    2.8342e+05 ;    C33 - H3C   
   538    539   1    1.0910e-01    2.8342e+05 ;    C34 - H4A   
   538    540   1    1.0910e-01    2.8342e+05 ;    C34 - H4B   
   538    541   1    1.0910e-01    2.8342e+05 ;    C34 - H4C   
   542    543   1    1.0910e-01    2.8342e+05 ;    C35 - H5A   
   542    544   1    1.0910e-01    2.8342e+05 ;    C35 - H5B   
   542    545   1    1.0910e-01    2.8342e+05 ;    C35 - H5C   
   548    549   1    1.3430e-01    3.4418e+05 ;    O21 - C21   
   549    550   1    1.2140e-01    5.4225e+05 ;    C21 - O22   
   549    588   1    1.5080e-01    2.7472e+05 ;    C21 - C12   
   551    552   1    1.0920e-01    2.8225e+05 ;   H14T - C114  
   552    553   1    1.0920e-01    2.8225e+05 ;   C114 - H14R  
   552    554   1    1.0920e-01    2.8225e+05 ;   C114 - H14S  
   552    555   1    1.5350e-01    2.5363e+05 ;   C114 - C113  
   555    556   1    1.0920e-01    2.8225e+05 ;   C113 - H13R  
   555    557   1    1.0920e-01    2.8225e+05 ;   C113 - H13S  
   555    558   1    1.5350e-01    2.5363e+05 ;   C113 - C112  
   558    559   1    1.0920e-01    2.8225e+05 ;   C112 - H12R  
   558    560   1    1.0920e-01    2.8225e+05 ;   C112 - H12S  
   558    561   1    1.5350e-01    2.5363e+05 ;   C112 - C111  
   561    562   1    1.0920e-01    2.8225e+05 ;   C111 - H11R  
   561    563   1    1.0920e-01    2.8225e+05 ;   C111 - H11S  
   561    564   1    1.5350e-01    2.5363e+05 ;   C111 - C110  
   564    565   1    1.0920e-01    2.8225e+05 ;   C110 - H10R  
   564    566   1    1.0920e-01    2.8225e+05 ;   C110 - H10S  
   564    567   1    1.5350e-01    2.5363e+05 ;   C110 - C19   
   567    568   1    1.0920e-01    2.8225e+05 ;    C19 - H9R   
   567    569   1    1.0920e-01    2.8225e+05 ;    C19 - H9S   
   567    570   1    1.5350e-01    2.5363e+05 ;    C19 - C18   
   570    571   1    1.0920e-01    2.8225e+05 ;    C18 - H8R   
   570    572   1    1.0920e-01    2.8225e+05 ;    C18 - H8S   
   570    573   1    1.5350e-01    2.5363e+05 ;    C18 - C17   
   573    574   1    1.0920e-01    2.8225e+05 ;    C17 - H7R   
   573    575   1    1.0920e-01    2.8225e+05 ;    C17 - H7S   
   573    576   1    1.5350e-01    2.5363e+05 ;    C17 - C16   
   576    577   1    1.0920e-01    2.8225e+05 ;    C16 - H6R   
   576    578   1    1.0920e-01    2.8225e+05 ;    C16 - H6S   
   576    579   1    1.5350e-01    2.5363e+05 ;    C16 - C15   
   579    580   1    1.0920e-01    2.8225e+05 ;    C15 - H5R   
   579    581   1    1.0920e-01    2.8225e+05 ;    C15 - H5S   
   579    582   1    1.5350e-01    2.5363e+05 ;    C15 - C14   
   582    583   1    1.0920e-01    2.8225e+05 ;    C14 - H4R   
   582    584   1    1.0920e-01    2.8225e+05 ;    C14 - H4S   
   582    585   1    1.5350e-01    2.5363e+05 ;    C14 - C13   
   585    586   1    1.0920e-01    2.8225e+05 ;    C13 - H3R   
   585    587   1    1.0920e-01    2.8225e+05 ;    C13 - H3S   
   585    588   1    1.5350e-01    2.5363e+05 ;    C13 - C12   
   588    589   1    1.0920e-01    2.8225e+05 ;    C12 - H2R   
   588    590   1    1.0920e-01    2.8225e+05 ;    C12 - H2S   
   591    592   1    1.0920e-01    2.8225e+05 ;   H14T - C114  
   592    593   1    1.0920e-01    2.8225e+05 ;   C114 - H14R  
   592    594   1    1.0920e-01    2.8225e+05 ;   C114 - H14S  
   592    595   1    1.5350e-01    2.5363e+05 ;   C114 - C113  
   595    596   1    1.0920e-01    2.8225e+05 ;   C113 - H13R  
   595    597   1    1.0920e-01    2.8225e+05 ;   C113 - H13S  
   595    598   1    1.5350e-01    2.5363e+05 ;   C113 - C112  
   598    599   1    1.0920e-01    2.8225e+05 ;   C112 - H12R  
   598    600   1    1.0920e-01    2.8225e+05 ;   C112 - H12S  
   598    601   1    1.5350e-01    2.5363e+05 ;   C112 - C111  
   601    602   1    1.0920e-01    2.8225e+05 ;   C111 - H11R  
   601    603   1    1.0920e-01    2.8225e+05 ;   C111 - H11S  
   601    604   1    1.5350e-01    2.5363e+05 ;   C111 - C110  
   604    605   1    1.0920e-01    2.8225e+05 ;   C110 - H10R  
   604    606   1    1.0920e-01    2.8225e+05 ;   C110 - H10S  
   604    607   1    1.5350e-01    2.5363e+05 ;   C110 - C19   
   607    608   1    1.0920e-01    2.8225e+05 ;    C19 - H9R   
   607    609   1    1.0920e-01    2.8225e+05 ;    C19 - H9S   
   607    610   1    1.5350e-01    2.5363e+05 ;    C19 - C18   
   610    611   1    1.0920e-01    2.8225e+05 ;    C18 - H8R   
   610    612   1    1.0920e-01    2.8225e+05 ;    C18 - H8S   
   610    613   1    1.5350e-01    2.5363e+05 ;    C18 - C17   
   613    614   1    1.0920e-01    2.8225e+05 ;    C17 - H7R   
   613    615   1    1.0920e-01    2.8225e+05 ;    C17 - H7S   
   613    616   1    1.5350e-01    2.5363e+05 ;    C17 - C16   
   616    617   1    1.0920e-01    2.8225e+05 ;    C16 - H6R   
   616    618   1    1.0920e-01    2.8225e+05 ;    C16 - H6S   
   616    619   1    1.5350e-01    2.5363e+05 ;    C16 - C15   
   619    620   1    1.0920e-01    2.8225e+05 ;    C15 - H5R   
   619    621   1    1.0920e-01    2.8225e+05 ;    C15 - H5S   
   619    622   1    1.5350e-01    2.5363e+05 ;    C15 - C14   
   622    623   1    1.0920e-01    2.8225e+05 ;    C14 - H4R   
   622    624   1    1.0920e-01    2.8225e+05 ;    C14 - H4S   
   622    625   1    1.5350e-01    2.5363e+05 ;    C14 - C13   
   625    626   1    1.0920e-01    2.8225e+05 ;    C13 - H3R   
   625    627   1    1.0920e-01    2.8225e+05 ;    C13 - H3S   
   625    628   1    1.5350e-01    2.5363e+05 ;    C13 - C12   
   628    629   1    1.0920e-01    2.8225e+05 ;    C12 - H2R   
   628    630   1    1.0920e-01    2.8225e+05 ;    C12 - H2S   
   628    631   1    1.5080e-01    2.7472e+05 ;    C12 - C11   
   631    632   1    1.2140e-01    5.4225e+05 ;    C11 - O12   
   631    633   1    1.3430e-01    3.4418e+05 ;    C11 - O11   
   633    634   1    1.4390e-01    2.5230e+05 ;    O11 - C1    
   634    635   1    1.0930e-01    2.8108e+05 ;     C1 - HR    
   634    636   1    1.0930e-01    2.8108e+05 ;     C1 - HS    
   634    637   1    1.5350e-01    2.5363e+05 ;     C1 - C2    
   637    638   1    1.0930e-01    2.8108e+05 ;     C2 - HX    
   637    639   1    1.5350e-01    2.5363e+05 ;     C2 - C3    
   637    666   1    1.4390e-01    2.5230e+05 ;     C2 - O21   
   639    640   1    1.0930e-01    2.8108e+05 ;     C3 - HA    
   639    641   1    1.0930e-01    2.8108e+05 ;     C3 - HB    
   639    642   1    1.4390e-01    2.5230e+05 ;     C3 - O31   
   642    643   1    1.6100e-01    1.9246e+05 ;    O31 - P31   
   643    644   1    1.6100e-01    1.9246e+05 ;    P31 - O32   
   643    664   1    1.4800e-01    4.3932e+05 ;    P31 - O33   
   643    665   1    1.4800e-01    4.3932e+05 ;    P31 - O34   
   644    645   1    1.4390e-01    2.5230e+05 ;    O32 - C31   
   645    646   1    1.0930e-01    2.8108e+05 ;    C31 - H1A   
   645    647   1    1.0930e-01    2.8108e+05 ;    C31 - H1B   
   645    648   1    1.5350e-01    2.5363e+05 ;    C31 - C32   
   648    649   1    1.0910e-01    2.8342e+05 ;    C32 - H2A   
   648    650   1    1.0910e-01    2.8342e+05 ;    C32 - H2B   
   648    651   1    1.4990e-01    2.4568e+05 ;    C32 - N31   
   651    652   1    1.4990e-01    2.4568e+05 ;    N31 - C33   
   651    656   1    1.4990e-01    2.4568e+05 ;    N31 - C34   
   651    660   1    1.4990e-01    2.4568e+05 ;    N31 - C35   
   652    653   1    1.0910e-01    2.8342e+05 ;    C33 - H3A   
   652    654   1    1.0910e-01    2.8342e+05 ;    C33 - H3B   
   652    655   1    1.0910e-01    2.8342e+05 ;    C33 - H3C   
   656    657   1    1.0910e-01    2.8342e+05 ;    C34 - H4A   
   656    658   1    1.0910e-01    2.8342e+05 ;    C34 - H4B   
   656    659   1    1.0910e-01    2.8342e+05 ;    C34 - H4C   
   660    661   1    1.0910e-01    2.8342e+05 ;    C35 - H5A   
   660    662   1    1.0910e-01    2.8342e+05 ;    C35 - H5B   
   660    663   1    1.0910e-01    2.8342e+05 ;    C35 - H5C   
   666    667   1    1.3430e-01    3.4418e+05 ;    O21 - C21   
   667    668   1    1.2140e-01    5.4225e+05 ;    C21 - O22   
   667    706   1    1.5080e-01    2.7472e+05 ;    C21 - C12   
   669    670   1    1.0920e-01    2.8225e+05 ;   H14T - C114  
   670    671   1    1.0920e-01    2.8225e+05 ;   C114 - H14R  
   670    672   1    1.0920e-01    2.8225e+05 ;   C114 - H14S  
   670    673   1    1.5350e-01    2.5363e+05 ;   C114 - C113  
   673    674   1    1.0920e-01    2.8225e+05 ;   C113 - H13R  
   673    675   1    1.0920e-01    2.8225e+05 ;   C113 - H13S  
   673    676   1    1.5350e-01    2.5363e+05 ;   C113 - C112  
   676    677   1    1.0920e-01    2.8225e+05 ;   C112 - H12R  
   676    678   1    1.0920e-01    2.8225e+05 ;   C112 - H12S  
   676    679   1    1.5350e-01    2.5363e+05 ;   C112 - C111  
   679    680   1    1.0920e-01    2.8225e+05 ;   C111 - H11R  
   679    681   1    1.0920e-01    2.8225e+05 ;   C111 - H11S  
   679    682   1    1.5350e-01    2.5363e+05 ;   C111 - C110  
   682    683   1    1.0920e-01    2.8225e+05 ;   C110 - H10R  
   682    684   1    1.0920e-01    2.8225e+05 ;   C110 - H10S  
   682    685   1    1.5350e-01    2.5363e+05 ;   C110 - C19   
   685    686   1    1.0920e-01    2.8225e+05 ;    C19 - H9R   
   685    687   1    1.0920e-01    2.8225e+05 ;    C19 - H9S   
   685    688   1    1.5350e-01    2.5363e+05 ;    C19 - C18   
   688    689   1    1.0920e-01    2.8225e+05 ;    C18 - H8R   
   688    690   1    1.0920e-01    2.8225e+05 ;    C18 - H8S   
   688    691   1    1.5350e-01    2.5363e+05 ;    C18 - C17   
   691    692   1    1.0920e-01    2.8225e+05 ;    C17 - H7R   
   691    693   1    1.0920e-01    2.8225e+05 ;    C17 - H7S   
   691    694   1    1.5350e-01    2.5363e+05 ;    C17 - C16   
   694    695   1    1.0920e-01    2.8225e+05 ;    C16 - H6R   
   694    696   1    1.0920e-01    2.8225e+05 ;    C16 - H6S   
   694    697   1    1.5350e-01    2.5363e+05 ;    C16 - C15   
   697    698   1    1.0920e-01    2.8225e+05 ;    C15 - H5R   
   697    699   1    1.0920e-01    2.8225e+05 ;    C15 - H5S   
   697    700   1    1.5350e-01    2.5363e+05 ;    C15 - C14   
   700    701   1    1.0920e-01    2.8225e+05 ;    C14 - H4R   
   700    702   1    1.0920e-01    2.8225e+05 ;    C14 - H4S   
   700    703   1    1.5350e-01    2.5363e+05 ;    C14 - C13   
   703    704   1    1.0920e-01    2.8225e+05 ;    C13 - H3R   
   703    705   1    1.0920e-01    2.8225e+05 ;    C13 - H3S   
   703    706   1    1.5350e-01    2.5363e+05 ;    C13 - C12   
   706    707   1    1.0920e-01    2.8225e+05 ;    C12 - H2R   
   706    708   1    1.0920e-01    2.8225e+05 ;    C12 - H2S   
   709    710   1    1.0920e-01    2.8225e+05 ;   H14T - C114  
   710    711   1    1.0920e-01    2.8225e+05 ;   C114 - H14R  
   710    712   1    1.0920e-01    2.8225e+05 ;   C114 - H14S  
   710    713   1    1.5350e-01    2.5363e+05 ;   C114 - C113  
   713    714   1    1.0920e-01    2.8225e+05 ;   C113 - H13R  
   713    715   1    1.0920e-01    2.8225e+05 ;   C113 - H13S  
   713    716   1    1.5350e-01    2.5363e+05 ;   C113 - C112  
   716    717   1    1.0920e-01    2.8225e+05 ;   C112 - H12R  
   716    718   1    1.0920e-01    2.8225e+05 ;   C112 - H12S  
   716    719   1    1.5350e-01    2.5363e+05 ;   C112 - C111  
   719    720   1    1.0920e-01    2.8225e+05 ;   C111 - H11R  
   719    721   1    1.0920e-01    2.8225e+05 ;   C111 - H11S  
   719    722   1    1.5350e-01    2.5363e+05 ;   C111 - C110  
   722    723   1    1.0920e-01    2.8225e+05 ;   C110 - H10R  
   722    724   1    1.0920e-01    2.8225e+05 ;   C110 - H10S  
   722    725   1    1.5350e-01    2.5363e+05 ;   C110 - C19   
   725    726   1    1.0920e-01    2.8225e+05 ;    C19 - H9R   
   725    727   1    1.0920e-01    2.8225e+05 ;    C19 - H9S   
   725    728   1    1.5350e-01    2.5363e+05 ;    C19 - C18   
   728    729   1    1.0920e-01    2.8225e+05 ;    C18 - H8R   
   728    730   1    1.0920e-01    2.8225e+05 ;    C18 - H8S   
   728    731   1    1.5350e-01    2.5363e+05 ;    C18 - C17   
   731    732   1    1.0920e-01    2.8225e+05 ;    C17 - H7R   
   731    733   1    1.0920e-01    2.8225e+05 ;    C17 - H7S   
   731    734   1    1.5350e-01    2.5363e+05 ;    C17 - C16   
   734    735   1    1.0920e-01    2.8225e+05 ;    C16 - H6R   
   734    736   1    1.0920e-01    2.8225e+05 ;    C16 - H6S   
   734    737   1    1.5350e-01    2.5363e+05 ;    C16 - C15   
   737    738   1    1.0920e-01    2.8225e+05 ;    C15 - H5R   
   737    739   1    1.0920e-01    2.8225e+05 ;    C15 - H5S   
   737    740   1    1.5350e-01    2.5363e+05 ;    C15 - C14   
   740    741   1    1.0920e-01    2.8225e+05 ;    C14 - H4R   
   740    742   1    1.0920e-01    2.8225e+05 ;    C14 - H4S   
   740    743   1    1.5350e-01    2.5363e+05 ;    C14 - C13   
   743    744   1    1.0920e-01    2.8225e+05 ;    C13 - H3R   
   743    745   1    1.0920e-01    2.8225e+05 ;    C13 - H3S   
   743    746   1    1.5350e-01    2.5363e+05 ;    C13 - C12   
   746    747   1    1.0920e-01    2.8225e+05 ;    C12 - H2R   
   746    748   1    1.0920e-01    2.8225e+05 ;    C12 - H2S   
   746    749   1    1.5080e-01    2.7472e+05 ;    C12 - C11   
   749    750   1    1.2140e-01    5.4225e+05 ;    C11 - O12   
   749    751   1    1.3430e-01    3.4418e+05 ;    C11 - O11   
   751    752   1    1.4390e-01    2.5230e+05 ;    O11 - C1    
   752    753   1    1.0930e-01    2.8108e+05 ;     C1 - HR    
   752    754   1    1.0930e-01    2.8108e+05 ;     C1 - HS    
   752    755   1    1.5350e-01    2.5363e+05 ;     C1 - C2    
   755    756   1    1.0930e-01    2.8108e+05 ;     C2 - HX    
   755    757   1    1.5350e-01    2.5363e+05 ;     C2 - C3    
   755    784   1    1.4390e-01    2.5230e+05 ;     C2 - O21   
   757    758   1    1.0930e-01    2.8108e+05 ;     C3 - HA    
   757    759   1    1.0930e-01    2.8108e+05 ;     C3 - HB    
   757    760   1    1.4390e-01    2.5230e+05 ;     C3 - O31   
   760    761   1    1.6100e-01    1.9246e+05 ;    O31 - P31   
   761    762   1    1.6100e-01    1.9246e+05 ;    P31 - O32   
   761    782   1    1.4800e-01    4.3932e+05 ;    P31 - O33   
   761    783   1    1.4800e-01    4.3932e+05 ;    P31 - O34   
   762    763   1    1.4390e-01    2.5230e+05 ;    O32 - C31   
   763    764   1    1.0930e-01    2.8108e+05 ;    C31 - H1A   
   763    765   1    1.0930e-01    2.8108e+05 ;    C31 - H1B   
   763    766   1    1.5350e-01    2.5363e+05 ;    C31 - C32   
   766    767   1    1.0910e-01    2.8342e+05 ;    C32 - H2A   
   766    768   1    1.0910e-01    2.8342e+05 ;    C32 - H2B   
   766    769   1    1.4990e-01    2.4568e+05 ;    C32 - N31   
   769    770   1    1.4990e-01    2.4568e+05 ;    N31 - C33   
   769    774   1    1.4990e-01    2.4568e+05 ;    N31 - C34   
   769    778   1    1.4990e-01    2.4568e+05 ;    N31 - C35   
   770    771   1    1.0910e-01    2.8342e+05 ;    C33 - H3A   
   770    772   1    1.0910e-01    2.8342e+05 ;    C33 - H3B   
   770    773   1    1.0910e-01    2.8342e+05 ;    C33 - H3C   
   774    775   1    1.0910e-01    2.8342e+05 ;    C34 - H4A   
   774    776   1    1.0910e-01    2.8342e+05 ;    C34 - H4B   
   774    777   1    1.0910e-01    2.8342e+05 ;    C34 - H4C   
   778    779   1    1.0910e-01    2.8342e+05 ;    C35 - H5A   
   778    780   1    1.0910e-01    2.8342e+05 ;    C35 - H5B   
   778    781   1    1.0910e-01    2.8342e+05 ;    C35 - H5C   
   784    785   1    1.3430e-01    3.4418e+05 ;    O21 - C21   
   785    786   1    1.2140e-01    5.4225e+05 ;    C21 - O22   
   785    824   1    1.5080e-01    2.7472e+05 ;    C21 - C12   
   787    788   1    1.0920e-01    2.8225e+05 ;   H14T - C114  
   788    789   1    1.0920e-01    2.8225e+05 ;   C114 - H14R  
   788    790   1    1.0920e-01    2.8225e+05 ;   C114 - H14S  
   788    791   1    1.5350e-01    2.5363e+05 ;   C114 - C113  
   791    792   1    1.0920e-01    2.8225e+05 ;   C113 - H13R  
   791    793   1    1.0920e-01    2.8225e+05 ;   C113 - H13S  
   791    794   1    1.5350e-01    2.5363e+05 ;   C113 - C112  
   794    795   1    1.0920e-01    2.8225e+05 ;   C112 - H12R  
   794    796   1    1.0920e-01    2.8225e+05 ;   C112 - H12S  
   794    797   1    1.5350e-01    2.5363e+05 ;   C112 - C111  
   797    798   1    1.0920e-01    2.8225e+05 ;   C111 - H11R  
   797    799   1    1.0920e-01    2.8225e+05 ;   C111 - H11S  
   797    800   1    1.5350e-01    2.5363e+05 ;   C111 - C110  
   800    801   1    1.0920e-01    2.8225e+05 ;   C110 - H10R  
   800    802   1    1.0920e-01    2.8225e+05 ;   C110 - H10S  
   800    803   1    1.5350e-01    2.5363e+05 ;   C110 - C19   
   803    804   1    1.0920e-01    2.8225e+05 ;    C19 - H9R   
   803    805   1    1.0920e-01    2.8225e+05 ;    C19 - H9S   
   803    806   1    1.5350e-01    2.5363e+05 ;    C19 - C18   
   806    807   1    1.0920e-01    2.8225e+05 ;    C18 - H8R   
   806    808   1    1.0920e-01    2.8225e+05 ;    C18 - H8S   
   806    809   1    1.5350e-01    2.5363e+05 ;    C18 - C17   
   809    810   1    1.0920e-01    2.8225e+05 ;    C17 - H7R   
   809    811   1    1.0920e-01    2.8225e+05 ;    C17 - H7S   
   809    812   1    1.5350e-01    2.5363e+05 ;    C17 - C16   
   812    813   1    1.0920e-01    2.8225e+05 ;    C16 - H6R   
   812    814   1    1.0920e-01    2.8225e+05 ;    C16 - H6S   
   812    815   1    1.5350e-01    2.5363e+05 ;    C16 - C15   
   815    816   1    1.0920e-01    2.8225e+05 ;    C15 - H5R   
   815    817   1    1.0920e-01    2.8225e+05 ;    C15 - H5S   
   815    818   1    1.5350e-01    2.5363e+05 ;    C15 - C14   
   818    819   1    1.0920e-01    2.8225e+05 ;    C14 - H4R   
   818    820   1    1.0920e-01    2.8225e+05 ;    C14 - H4S   
   818    821   1    1.5350e-01    2.5363e+05 ;    C14 - C13   
   821    822   1    1.0920e-01    2.8225e+05 ;    C13 - H3R   
   821    823   1    1.0920e-01    2.8225e+05 ;    C13 - H3S   
   821    824   1    1.5350e-01    2.5363e+05 ;    C13 - C12   
   824    825   1    1.0920e-01    2.8225e+05 ;    C12 - H2R   
   824    826   1    1.0920e-01    2.8225e+05 ;    C12 - H2S   
   827    828   1    1.0920e-01    2.8225e+05 ;   H14T - C114  
   828    829   1    1.0920e-01    2.8225e+05 ;   C114 - H14R  
   828    830   1    1.0920e-01    2.8225e+05 ;   C114 - H14S  
   828    831   1    1.5350e-01    2.5363e+05 ;   C114 - C113  
   831    832   1    1.0920e-01    2.8225e+05 ;   C113 - H13R  
   831    833   1    1.0920e-01    2.8225e+05 ;   C113 - H13S  
   831    834   1    1.5350e-01    2.5363e+05 ;   C113 - C112  
   834    835   1    1.0920e-01    2.8225e+05 ;   C112 - H12R  
   834    836   1    1.0920e-01    2.8225e+05 ;   C112 - H12S  
   834    837   1    1.5350e-01    2.5363e+05 ;   C112 - C111  
   837    838   1    1.0920e-01    2.8225e+05 ;   C111 - H11R  
   837    839   1    1.0920e-01    2.8225e+05 ;   C111 - H11S  
   837    840   1    1.5350e-01    2.5363e+05 ;   C111 - C110  
   840    841   1    1.0920e-01    2.8225e+05 ;   C110 - H10R  
   840    842   1    1.0920e-01    2.8225e+05 ;   C110 - H10S  
   840    843   1    1.5350e-01    2.5363e+05 ;   C110 - C19   
   843    844   1    1.0920e-01    2.8225e+05 ;    C19 - H9R   
   843    845   1    1.0920e-01    2.8225e+05 ;    C19 - H9S   
   843    846   1    1.5350e-01    2.5363e+05 ;    C19 - C18   
   846    847   1    1.0920e-01    2.8225e+05 ;    C18 - H8R   
   846    848   1    1.0920e-01    2.8225e+05 ;    C18 - H8S   
   846    849   1    1.5350e-01    2.5363e+05 ;    C18 - C17   
   849    850   1    1.0920e-01    2.8225e+05 ;    C17 - H7R   
   849    851   1    1.0920e-01    2.8225e+05 ;    C17 - H7S   
   849    852   1    1.5350e-01    2.5363e+05 ;    C17 - C16   
   852    853   1    1.0920e-01    2.8225e+05 ;    C16 - H6R   
   852    854   1    1.0920e-01    2.8225e+05 ;    C16 - H6S   
   852    855   1    1.5350e-01    2.5363e+05 ;    C16 - C15   
   855    856   1    1.0920e-01    2.8225e+05 ;    C15 - H5R   
   855    857   1    1.0920e-01    2.8225e+05 ;    C15 - H5S   
   855    858   1    1.5350e-01    2.5363e+05 ;    C15 - C14   
   858    859   1    1.0920e-01    2.8225e+05 ;    C14 - H4R   
   858    860   1    1.0920e-01    2.8225e+05 ;    C14 - H4S   
   858    861   1    1.5350e-01    2.5363e+05 ;    C14 - C13   
   861    862   1    1.0920e-01    2.8225e+05 ;    C13 - H3R   
   861    863   1    1.0920e-01    2.8225e+05 ;    C13 - H3S   
   861    864   1    1.5350e-01    2.5363e+05 ;    C13 - C12   
   864    865   1    1.0920e-01    2.8225e+05 ;    C12 - H2R   
   864    866   1    1.0920e-01    2.8225e+05 ;    C12 - H2S   
   864    867   1    1.5080e-01    2.7472e+05 ;    C12 - C11   
   867    868   1    1.2140e-01    5.4225e+05 ;    C11 - O12   
   867    869   1    1.3430e-01    3.4418e+05 ;    C11 - O11   
   869    870   1    1.4390e-01    2.5230e+05 ;    O11 - C1    
   870    871   1    1.0930e-01    2.8108e+05 ;     C1 - HR    
   870    872   1    1.0930e-01    2.8108e+05 ;     C1 - HS    
   870    873   1    1.5350e-01    2.5363e+05 ;     C1 - C2    
   873    874   1    1.0930e-01    2.8108e+05 ;     C2 - HX    
   873    875   1    1.5350e-01    2.5363e+05 ;     C2 - C3    
   873    902   1    1.4390e-01    2.5230e+05 ;     C2 - O21   
   875    876   1    1.0930e-01    2.8108e+05 ;     C3 - HA    
   875    877   1    1.0930e-01    2.8108e+05 ;     C3 - HB    
   875    878   1    1.4390e-01    2.5230e+05 ;     C3 - O31   
   878    879   1    1.6100e-01    1.9246e+05 ;    O31 - P31   
   879    880   1    1.6100e-01    1.9246e+05 ;    P31 - O32   
   879    900   1    1.4800e-01    4.3932e+05 ;    P31 - O33   
   879    901   1    1.4800e-01    4.3932e+05 ;    P31 - O34   
   880    881   1    1.4390e-01    2.5230e+05 ;    O32 - C31   
   881    882   1    1.0930e-01    2.8108e+05 ;    C31 - H1A   
   881    883   1    1.0930e-01    2.8108e+05 ;    C31 - H1B   
   881    884   1    1.5350e-01    2.5363e+05 ;    C31 - C32   
   884    885   1    1.0910e-01    2.8342e+05 ;    C32 - H2A   
   884    886   1    1.0910e-01    2.8342e+05 ;    C32 - H2B   
   884    887   1    1.4990e-01    2.4568e+05 ;    C32 - N31   
   887    888   1    1.4990e-01    2.4568e+05 ;    N31 - C33   
   887    892   1    1.4990e-01    2.4568e+05 ;    N31 - C34   
   887    896   1    1.4990e-01    2.4568e+05 ;    N31 - C35   
   888    889   1    1.0910e-01    2.8342e+05 ;    C33 - H3A   
   888    890   1    1.0910e-01    2.8342e+05 ;    C33 - H3B   
   888    891   1    1.0910e-01    2.8342e+05 ;    C33 - H3C   
   892    893   1    1.0910e-01    2.8342e+05 ;    C34 - H4A   
   892    894   1    1.0910e-01    2.8342e+05 ;    C34 - H4B   
   892    895   1    1.0910e-01    2.8342e+05 ;    C34 - H4C   
   896    897   1    1.0910e-01    2.8342e+05 ;    C35 - H5A   
   896    898   1    1.0910e-01    2.8342e+05 ;    C35 - H5B   
   896    899   1    1.0910e-01    2.8342e+05 ;    C35 - H5C   
   902    903   1    1.3430e-01    3.4418e+05 ;    O21 - C21   
   903    904   1    1.2140e-01    5.4225e+05 ;    C21 - O22   
   903    942   1    1.5080e-01    2.7472e+05 ;    C21 - C12   
   905    906   1    1.0920e-01    2.8225e+05 ;   H14T - C114  
   906    907   1    1.0920e-01    2.8225e+05 ;   C114 - H14R  
   906    908   1    1.0920e-01    2.8225e+05 ;   C114 - H14S  
   906    909   1    1.5350e-01    2.5363e+05 ;   C114 - C113  
   909    910   1    1.0920e-01    2.8225e+05 ;   C113 - H13R  
   909    911   1    1.0920e-01    2.8225e+05 ;   C113 - H13S  
   909    912   1    1.5350e-01    2.5363e+05 ;   C113 - C112  
   912    913   1    1.0920e-01    2.8225e+05 ;   C112 - H12R  
   912    914   1    1.0920e-01    2.8225e+05 ;   C112 - H12S  
   912    915   1    1.5350e-01    2.5363e+05 ;   C112 - C111  
   915    916   1    1.0920e-01    2.8225e+05 ;   C111 - H11R  
   915    917   1    1.0920e-01    2.8225e+05 ;   C111 - H11S  
   915    918   1    1.5350e-01    2.5363e+05 ;   C111 - C110  
   918    919   1    1.0920e-01    2.8225e+05 ;   C110 - H10R  
   918    920   1    1.0920e-01    2.8225e+05 ;   C110 - H10S  
   918    921   1    1.5350e-01    2.5363e+05 ;   C110 - C19   
   921    922   1    1.0920e-01    2.8225e+05 ;    C19 - H9R   
   921    923   1    1.0920e-01    2.8225e+05 ;    C19 - H9S   
   921    924   1    1.5350e-01    2.5363e+05 ;    C19 - C18   
   924    925   1    1.0920e-01    2.8225e+05 ;    C18 - H8R   
   924    926   1    1.0920e-01    2.8225e+05 ;    C18 - H8S   
   924    927   1    1.5350e-01    2.5363e+05 ;    C18 - C17   
   927    928   1    1.0920e-01    2.8225e+05 ;    C17 - H7R   
   927    929   1    1.0920e-01    2.8225e+05 ;    C17 - H7S   
   927    930   1    1.5350e-01    2.5363e+05 ;    C17 - C16   
   930    931   1    1.0920e-01    2.8225e+05 ;    C16 - H6R   
   930    932   1    1.0920e-01    2.8225e+05 ;    C16 - H6S   
   930    933   1    1.5350e-01    2.5363e+05 ;    C16 - C15   
   933    934   1    1.0920e-01    2.8225e+05 ;    C15 - H5R   
   933    935   1    1.0920e-01    2.8225e+05 ;    C15 - H5S   
   933    936   1    1.5350e-01    2.5363e+05 ;    C15 - C14   
   936    937   1    1.0920e-01    2.8225e+05 ;    C14 - H4R   
   936    938   1    1.0920e-01    2.8225e+05 ;    C14 - H4S   
   936    939   1    1.5350e-01    2.5363e+05 ;    C14 - C13   
   939    940   1    1.0920e-01    2.8225e+05 ;    C13 - H3R   
   939    941   1    1.0920e-01    2.8225e+05 ;    C13 - H3S   
   939    942   1    1.5350e-01    2.5363e+05 ;    C13 - C12   
   942    943   1    1.0920e-01    2.8225e+05 ;    C12 - H2R   
   942    944   1    1.0920e-01    2.8225e+05 ;    C12 - H2S   
   945    946   1    1.0920e-01    2.8225e+05 ;   H14T - C114  
   946    947   1    1.0920e-01    2.8225e+05 ;   C114 - H14R  
   946    948   1    1.0920e-01    2.8225e+05 ;   C114 - H14S  
   946    949   1    1.5350e-01    2.5363e+05 ;   C114 - C113  
   949    950   1    1.0920e-01    2.8225e+05 ;   C113 - H13R  
   949    951   1    1.0920e-01    2.8225e+05 ;   C113 - H13S  
   949    952   1    1.5350e-01    2.5363e+05 ;   C113 - C112  
   952    953   1    1.0920e-01    2.8225e+05 ;   C112 - H12R  
   952    954   1    1.0920e-01    2.8225e+05 ;   C112 - H12S  
   952    955   1    1.5350e-01    2.5363e+05 ;   C112 - C111  
   955    956   1    1.0920e-01    2.8225e+05 ;   C111 - H11R  
   955    957   1    1.0920e-01    2.8225e+05 ;   C111 - H11S  
   955    958   1    1.5350e-01    2.5363e+05 ;   C111 - C110  
   958    959   1    1.0920e-01    2.8225e+05 ;   C110 - H10R  
   958    960   1    1.0920e-01    2.8225e+05 ;   C110 - H10S  
   958    961   1    1.5350e-01    2.5363e+05 ;   C110 - C19   
   961    962   1    1.0920e-01    2.8225e+05 ;    C19 - H9R   
   961    963   1    1.0920e-01    2.8225e+05 ;    C19 - H9S   
   961    964   1    1.5350e-01    2.5363e+05 ;    C19 - C18   
   964    965   1    1.0920e-01    2.8225e+05 ;    C18 - H8R   
   964    966   1    1.0920e-01    2.8225e+05 ;    C18 - H8S   
   964    967   1    1.5350e-01    2.5363e+05 ;    C18 - C17   
   967    968   1    1.0920e-01    2.8225e+05 ;    C17 - H7R   
   967    969   1    1.0920e-01    2.8225e+05 ;    C17 - H7S   
   967    970   1    1.5350e-01    2.5363e+05 ;    C17 - C16   
   970    971   1    1.0920e-01    2.8225e+05 ;    C16 - H6R   
   970    972   1    1.0920e-01    2.8225e+05 ;    C16 - H6S   
   970    973   1    1.5350e-01    2.5363e+05 ;    C16 - C15   
   973    974   1    1.0920e-01    2.8225e+05 ;    C15 - H5R   
   973    975   1    1.0920e-01    2.8225e+05 ;    C15 - H5S   
   973    976   1    1.5350e-01    2.5363e+05 ;    C15 - C14   
   976    977   1    1.0920e-01    2.8225e+05 ;    C14 - H4R   
   976    978   1    1.0920e-01    2.8225e+05 ;    C14 - H4S   
   976    979   1    1.5350e-01    2.5363e+05 ;    C14 - C13   
   979    980   1    1.0920e-01    2.8225e+05 ;    C13 - H3R   
   979    981   1    1.0920e-01    2.8225e+05 ;    C13 - H3S   
   979    982   1    1.5350e-01    2.5363e+05 ;    C13 - C12   
   982    983   1    1.0920e-01    2.8225e+05 ;    C12 - H2R   
   982    984   1    1.0920e-01    2.8225e+05 ;    C12 - H2S   
   982    985   1    1.5080e-01    2.7472e+05 ;    C12 - C11   
   985    986   1    1.2140e-01    5.4225e+05 ;    C11 - O12   
   985    987   1    1.3430e-01    3.4418e+05 ;    C11 - O11   
   987    988   1    1.4390e-01    2.5230e+05 ;    O11 - C1    
   988    989   1    1.0930e-01    2.8108e+05 ;     C1 - HR    
   988    990   1    1.0930e-01    2.8108e+05 ;     C1 - HS    
   988    991   1    1.5350e-01    2.5363e+05 ;     C1 - C2    
   991    992   1    1.0930e-01    2.8108e+05 ;     C2 - HX    
   991    993   1    1.5350e-01    2.5363e+05 ;     C2 - C3    
   991   1020   1    1.4390e-01    2.5230e+05 ;     C2 - O21   
   993    994   1    1.0930e-01    2.8108e+05 ;     C3 - HA    
   993    995   1    1.0930e-01    2.8108e+05 ;     C3 - HB    
   993    996   1    1.4390e-01    2.5230e+05 ;     C3 - O31   
   996    997   1    1.6100e-01    1.9246e+05 ;    O31 - P31   
   997    998   1    1.6100e-01    1.9246e+05 ;    P31 - O32   
   997   1018   1    1.4800e-01    4.3932e+05 ;    P31 - O33   
   997   1019   1    1.4800e-01    4.3932e+05 ;    P31 - O34   
   998    999   1    1.4390e-01    2.5230e+05 ;    O32 - C31   
   999   1000   1    1.0930e-01    2.8108e+05 ;    C31 - H1A   
   999   1001   1    1.0930e-01    2.8108e+05 ;    C31 - H1B   
   999   1002   1    1.5350e-01    2.5363e+05 ;    C31 - C32   
  1002   1003   1    1.0910e-01    2.8342e+05 ;    C32 - H2A   
  1002   1004   1    1.0910e-01    2.8342e+05 ;    C32 - H2B   
  1002   1005   1    1.4990e-01    2.4568e+05 ;    C32 - N31   
  1005   1006   1    1.4990e-01    2.4568e+05 ;    N31 - C33   
  1005   1010   1    1.4990e-01    2.4568e+05 ;    N31 - C34   
  1005   1014   1    1.4990e-01    2.4568e+05 ;    N31 - C35   
  1006   1007   1    1.0910e-01    2.8342e+05 ;    C33 - H3A   
  1006   1008   1    1.0910e-01    2.8342e+05 ;    C33 - H3B   
  1006   1009   1    1.0910e-01    2.8342e+05 ;    C33 - H3C   
  1010   1011   1    1.0910e-01    2.8342e+05 ;    C34 - H4A   
  1010   1012   1    1.0910e-01    2.8342e+05 ;    C34 - H4B   
  1010   1013   1    1.0910e-01    2.8342e+05 ;    C34 - H4C   
  1014   1015   1    1.0910e-01    2.8342e+05 ;    C35 - H5A   
  1014   1016   1    1.0910e-01    2.8342e+05 ;    C35 - H5B   
  1014   1017   1    1.0910e-01    2.8342e+05 ;    C35 - H5C   
  1020   1021   1    1.3430e-01    3.4418e+05 ;    O21 - C21   
  1021   1022   1    1.2140e-01    5.4225e+05 ;    C21 - O22   
  1021   1060   1    1.5080e-01    2.7472e+05 ;    C21 - C12   
  1023   1024   1    1.0920e-01    2.8225e+05 ;   H14T - C114  
  1024   1025   1    1.0920e-01    2.8225e+05 ;   C114 - H14R  
  1024   1026   1    1.0920e-01    2.8225e+05 ;   C114 - H14S  
  1024   1027   1    1.5350e-01    2.5363e+05 ;   C114 - C113  
  1027   1028   1    1.0920e-01    2.8225e+05 ;   C113 - H13R  
  1027   1029   1    1.0920e-01    2.8225e+05 ;   C113 - H13S  
  1027   1030   1    1.5350e-01    2.5363e+05 ;   C113 - C112  
  1030   1031   1    1.0920e-01    2.8225e+05 ;   C112 - H12R  
  1030   1032   1    1.0920e-01    2.8225e+05 ;   C112 - H12S  
  1030   1033   1    1.5350e-01    2.5363e+05 ;   C112 - C111  
  1033   1034   1    1.0920e-01    2.8225e+05 ;   C111 - H11R  
  1033   1035   1    1.0920e-01    2.8225e+05 ;   C111 - H11S  
  1033   1036   1    1.5350e-01    2.5363e+05 ;   C111 - C110  
  1036   1037   1    1.0920e-01    2.8225e+05 ;   C110 - H10R  
  1036   1038   1    1.0920e-01    2.8225e+05 ;   C110 - H10S  
  1036   1039   1    1.5350e-01    2.5363e+05 ;   C110 - C19   
  1039   1040   1    1.0920e-01    2.8225e+05 ;    C19 - H9R   
  1039   1041   1    1.0920e-01    2.8225e+05 ;    C19 - H9S   
  1039   1042   1    1.5350e-01    2.5363e+05 ;    C19 - C18   
  1042   1043   1    1.0920e-01    2.8225e+05 ;    C18 - H8R   
  1042   1044   1    1.0920e-01    2.8225e+05 ;    C18 - H8S   
  1042   1045   1    1.5350e-01    2.5363e+05 ;    C18 - C17   
  1045   1046   1    1.0920e-01    2.8225e+05 ;    C17 - H7R   
  1045   1047   1    1.0920e-01    2.8225e+05 ;    C17 - H7S   
  1045   1048   1    1.5350e-01    2.5363e+05 ;    C17 - C16   
  1048   1049   1    1.0920e-01    2.8225e+05 ;    C16 - H6R   
  1048   1050   1    1.0920e-01    2.8225e+05 ;    C16 - H6S   
  1048   1051   1    1.5350e-01    2.5363e+05 ;    C16 - C15   
  1051   1052   1    1.0920e-01    2.8225e+05 ;    C15 - H5R   
  1051   1053   1    1.0920e-01    2.8225e+05 ;    C15 - H5S   
  1051   1054   1    1.5350e-01    2.5363e+05 ;    C15 - C14   
  1054   1055   1    1.0920e-01    2.8225e+05 ;    C14 - H4R   
  1054   1056   1    1.0920e-01    2.8225e+05 ;    C14 - H4S   
  1054   1057   1    1.5350e-01    2.5363e+05 ;    C14 - C13   
  1057   1058   1    1.0920e-01    2.8225e+05 ;    C13 - H3R   
  1057   1059   1    1.0920e-01    2.8225e+05 ;    C13 - H3S   
  1057   1060   1    1.5350e-01    2.5363e+05 ;    C13 - C12   
  1060   1061   1    1.0920e-01    2.8225e+05 ;    C12 - H2R   
  1060   1062   1    1.0920e-01    2.8225e+05 ;    C12 - H2S   
  1063   1064   1    1.0920e-01    2.8225e+05 ;   H14T - C114  
  1064   1065   1    1.0920e-01    2.8225e+05 ;   C114 - H14R  
  1064   1066   1    1.0920e-01    2.8225e+05 ;   C114 - H14S  
  1064   1067   1    1.5350e-01    2.5363e+05 ;   C114 - C113  
  1067   1068   1    1.0920e-01    2.8225e+05 ;   C113 - H13R  
  1067   1069   1    1.0920e-01    2.8225e+05 ;   C113 - H13S  
  1067   1070   1    1.5350e-01    2.5363e+05 ;   C113 - C112  
  1070   1071   1    1.0920e-01    2.8225e+05 ;   C112 - H12R  
  1070   1072   1    1.0920e-01    2.8225e+05 ;   C112 - H12S  
  1070   1073   1    1.5350e-01    2.5363e+05 ;   C112 - C111  
  1073   1074   1    1.0920e-01    2.8225e+05 ;   C111 - H11R  
  1073   1075   1    1.0920e-01    2.8225e+05 ;   C111 - H11S  
  1073   1076   1    1.5350e-01    2.5363e+05 ;   C111 - C110  
  1076   1077   1    1.0920e-01    2.8225e+05 ;   C110 - H10R  
  1076   1078   1    1.0920e-01    2.8225e+05 ;   C110 - H10S  
  1076   1079   1    1.5350e-01    2.5363e+05 ;   C110 - C19   
  1079   1080   1    1.0920e-01    2.8225e+05 ;    C19 - H9R   
  1079   1081   1    1.0920e-01    2.8225e+05 ;    C19 - H9S   
  1079   1082   1    1.5350e-01    2.5363e+05 ;    C19 - C18   
  1082   1083   1    1.0920e-01    2.8225e+05 ;    C18 - H8R   
  1082   1084   1    1.0920e-01    2.8225e+05 ;    C18 - H8S   
  1082   1085   1    1.5350e-01    2.5363e+05 ;    C18 - C17   
  1085   1086   1    1.0920e-01    2.8225e+05 ;    C17 - H7R   
  1085   1087   1    1.0920e-01    2.8225e+05 ;    C17 - H7S   
  1085   1088   1    1.5350e-01    2.5363e+05 ;    C17 - C16   
  1088   1089   1    1.0920e-01    2.8225e+05 ;    C16 - H6R   
  1088   1090   1    1.0920e-01    2.8225e+05 ;    C16 - H6S   
  1088   1091   1    1.5350e-01    2.5363e+05 ;    C16 - C15   
  1091   1092   1    1.0920e-01    2.8225e+05 ;    C15 - H5R   
  1091   1093   1    1.0920e-01    2.8225e+05 ;    C15 - H5S   
  1091   1094   1    1.5350e-01    2.5363e+05 ;    C15 - C14   
  1094   1095   1    1.0920e-01    2.8225e+05 ;    C14 - H4R   
  1094   1096   1    1.0920e-01    2.8225e+05 ;    C14 - H4S   
  1094   1097   1    1.5350e-01    2.5363e+05 ;    C14 - C13   
  1097   1098   1    1.0920e-01    2.8225e+05 ;    C13 - H3R   
  1097   1099   1    1.0920e-01    2.8225e+05 ;    C13 - H3S   
  1097   1100   1    1.5350e-01    2.5363e+05 ;    C13 - C12   
  1100   1101   1    1.0920e-01    2.8225e+05 ;    C12 - H2R   
  1100   1102   1    1.0920e-01    2.8225e+05 ;    C12 - H2S   
  1100   1103   1    1.5080e-01    2.7472e+05 ;    C12 - C11   
  1103   1104   1    1.2140e-01    5.4225e+05 ;    C11 - O12   
  1103   1105   1    1.3430e-01    3.4418e+05 ;    C11 - O11   
  1105   1106   1    1.4390e-01    2.5230e+05 ;    O11 - C1    
  1106   1107   1    1.0930e-01    2.8108e+05 ;     C1 - HR    
  1106   1108   1    1.0930e-01    2.8108e+05 ;     C1 - HS    
  1106   1109   1    1.5350e-01    2.5363e+05 ;     C1 - C2    
  1109   1110   1    1.0930e-01    2.8108e+05 ;     C2 - HX    
  1109   1111   1    1.5350e-01    2.5363e+05 ;     C2 - C3    
  1109   1138   1    1.4390e-01    2.5230e+05 ;     C2 - O21   
  1111   1112   1    1.0930e-01    2.8108e+05 ;     C3 - HA    
  1111   1113   1    1.0930e-01    2.8108e+05 ;     C3 - HB    
  1111   1114   1    1.4390e-01    2.5230e+05 ;     C3 - O31   
  1114   1115   1    1.6100e-01    1.9246e+05 ;    O31 - P31   
  1115   1116   1    1.6100e-01    1.9246e+05 ;    P31 - O32   
  1115   1136   1    1.4800e-01    4.3932e+05 ;    P31 - O33   
  1115   1137   1    1.4800e-01    4.3932e+05 ;    P31 - O34   
  1116   1117   1    1.4390e-01    2.5230e+05 ;    O32 - C31   
  1117   1118   1    1.0930e-01    2.8108e+05 ;    C31 - H1A   
  1117   1119   1    1.0930e-01    2.8108e+05 ;    C31 - H1B   
  1117   1120   1    1.5350e-01    2.5363e+05 ;    C31 - C32   
  1120   1121   1    1.0910e-01    2.8342e+05 ;    C32 - H2A   
  1120   1122   1    1.0910e-01    2.8342e+05 ;    C32 - H2B   
  1120   1123   1    1.4990e-01    2.4568e+05 ;    C32 - N31   
  1123   1124   1    1.4990e-01    2.4568e+05 ;    N31 - C33   
  1123   1128   1    1.4990e-01    2.4568e+05 ;    N31 - C34   
  1123   1132   1    1.4990e-01    2.4568e+05 ;    N31 - C35   
  1124   1125   1    1.0910e-01    2.8342e+05 ;    C33 - H3A   
  1124   1126   1    1.0910e-01    2.8342e+05 ;    C33 - H3B   
  1124   1127   1    1.0910e-01    2.8342e+05 ;    C33 - H3C   
  1128   1129   1    1.0910e-01    2.8342e+05 ;    C34 - H4A   
  1128   1130   1    1.0910e-01    2.8342e+05 ;    C34 - H4B   
  1128   1131   1    1.0910e-01    2.8342e+05 ;    C34 - H4C   
  1132   1133   1    1.0910e-01    2.8342e+05 ;    C35 - H5A   
  1132   1134   1    1.0910e-01    2.8342e+05 ;    C35 - H5B   
  1132   1135   1    1.0910e-01    2.8342e+05 ;    C35 - H5C   
  1138   1139   1    1.3430e-01    3.4418e+05 ;    O21 - C21   
  1139   1140   1    1.2140e-01    5.4225e+05 ;    C21 - O22   
  1139   1178   1    1.5080e-01    2.7472e+05 ;    C21 - C12   
  1141   1142   1    1.0920e-01    2.8225e+05 ;   H14T - C114  
  1142   1143   1    1.0920e-01    2.8225e+05 ;   C114 - H14R  
  1142   1144   1    1.0920e-01    2.8225e+05 ;   C114 - H14S  
  1142   1145   1    1.5350e-01    2.5363e+05 ;   C114 - C113  
  1145   1146   1    1.0920e-01    2.8225e+05 ;   C113 - H13R  
  1145   1147   1    1.0920e-01    2.8225e+05 ;   C113 - H13S  
  1145   1148   1    1.5350e-01    2.5363e+05 ;   C113 - C112  
  1148   1149   1    1.0920e-01    2.8225e+05 ;   C112 - H12R  
  1148   1150   1    1.0920e-01    2.8225e+05 ;   C112 - H12S  
  1148   1151   1    1.5350e-01    2.5363e+05 ;   C112 - C111  
  1151   1152   1    1.0920e-01    2.8225e+05 ;   C111 - H11R  
  1151   1153   1    1.0920e-01    2.8225e+05 ;   C111 - H11S  
  1151   1154   1    1.5350e-01    2.5363e+05 ;   C111 - C110  
  1154   1155   1    1.0920e-01    2.8225e+05 ;   C110 - H10R  
  1154   1156   1    1.0920e-01    2.8225e+05 ;   C110 - H10S  
  1154   1157   1    1.5350e-01    2.5363e+05 ;   C110 - C19   
  1157   1158   1    1.0920e-01    2.8225e+05 ;    C19 - H9R   
  1157   1159   1    1.0920e-01    2.8225e+05 ;    C19 - H9S   
  1157   1160   1    1.5350e-01    2.5363e+05 ;    C19 - C18   
  1160   1161   1    1.0920e-01    2.8225e+05 ;    C18 - H8R   
  1160   1162   1    1.0920e-01    2.8225e+05 ;    C18 - H8S   
  1160   1163   1    1.5350e-01    2.5363e+05 ;    C18 - C17   
  1163   1164   1    1.0920e-01    2.8225e+05 ;    C17 - H7R   
  1163   1165   1    1.0920e-01    2.8225e+05 ;    C17 - H7S   
  1163   1166   1    1.5350e-01    2.5363e+05 ;    C17 - C16   
  1166   1167   1    1.0920e-01    2.8225e+05 ;    C16 - H6R   
  1166   1168   1    1.0920e-01    2.8225e+05 ;    C16 - H6S   
  1166   1169   1    1.5350e-01    2.5363e+05 ;    C16 - C15   
  1169   1170   1    1.0920e-01    2.8225e+05 ;    C15 - H5R   
  1169   1171   1    1.0920e-01    2.8225e+05 ;    C15 - H5S   
  1169   1172   1    1.5350e-01    2.5363e+05 ;    C15 - C14   
  1172   1173   1    1.0920e-01    2.8225e+05 ;    C14 - H4R   
  1172   1174   1    1.0920e-01    2.8225e+05 ;    C14 - H4S   
  1172   1175   1    1.5350e-01    2.5363e+05 ;    C14 - C13   
  1175   1176   1    1.0920e-01    2.8225e+05 ;    C13 - H3R   
  1175   1177   1    1.0920e-01    2.8225e+05 ;    C13 - H3S   
  1175   1178   1    1.5350e-01    2.5363e+05 ;    C13 - C12   
  1178   1179   1    1.0920e-01    2.8225e+05 ;    C12 - H2R   
  1178   1180   1    1.0920e-01    2.8225e+05 ;    C12 - H2S   
  1181   1182   1    1.0920e-01    2.8225e+05 ;   H14T - C114  
  1182   1183   1    1.0920e-01    2.8225e+05 ;   C114 - H14R  
  1182   1184   1    1.0920e-01    2.8225e+05 ;   C114 - H14S  
  1182   1185   1    1.5350e-01    2.5363e+05 ;   C114 - C113  
  1185   1186   1    1.0920e-01    2.8225e+05 ;   C113 - H13R  
  1185   1187   1    1.0920e-01    2.8225e+05 ;   C113 - H13S  
  1185   1188   1    1.5350e-01    2.5363e+05 ;   C113 - C112  
  1188   1189   1    1.0920e-01    2.8225e+05 ;   C112 - H12R  
  1188   1190   1    1.0920e-01    2.8225e+05 ;   C112 - H12S  
  1188   1191   1    1.5350e-01    2.5363e+05 ;   C112 - C111  
  1191   1192   1    1.0920e-01    2.8225e+05 ;   C111 - H11R  
  1191   1193   1    1.0920e-01    2.8225e+05 ;   C111 - H11S  
  1191   1194   1    1.5350e-01    2.5363e+05 ;   C111 - C110  
  1194   1195   1    1.0920e-01    2.8225e+05 ;   C110 - H10R  
  1194   1196   1    1.0920e-01    2.8225e+05 ;   C110 - H10S  
  1194   1197   1    1.5350e-01    2.5363e+05 ;   C110 - C19   
  1197   1198   1    1.0920e-01    2.8225e+05 ;    C19 - H9R   
  1197   1199   1    1.0920e-01    2.8225e+05 ;    C19 - H9S   
  1197   1200   1    1.5350e-01    2.5363e+05 ;    C19 - C18   
  1200   1201   1    1.0920e-01    2.8225e+05 ;    C18 - H8R   
  1200   1202   1    1.0920e-01    2.8225e+05 ;    C18 - H8S   
  1200   1203   1    1.5350e-01    2.5363e+05 ;    C18 - C17   
  1203   1204   1    1.0920e-01    2.8225e+05 ;    C17 - H7R   
  1203   1205   1    1.0920e-01    2.8225e+05 ;    C17 - H7S   
  1203   1206   1    1.5350e-01    2.5363e+05 ;    C17 - C16   
  1206   1207   1    1.0920e-01    2.8225e+05 ;    C16 - H6R   
  1206   1208   1    1.0920e-01    2.8225e+05 ;    C16 - H6S   
  1206   1209   1    1.5350e-01    2.5363e+05 ;    C16 - C15   
  1209   1210   1    1.0920e-01    2.8225e+05 ;    C15 - H5R   
  1209   1211   1    1.0920e-01    2.8225e+05 ;    C15 - H5S   
  1209   1212   1    1.5350e-01    2.5363e+05 ;    C15 - C14   
  1212   1213   1    1.0920e-01    2.8225e+05 ;    C14 - H4R   
  1212   1214   1    1.0920e-01    2.8225e+05 ;    C14 - H4S   
  1212   1215   1    1.5350e-01    2.5363e+05 ;    C14 - C13   
  1215   1216   1    1.0920e-01    2.8225e+05 ;    C13 - H3R   
  1215   1217   1    1.0920e-01    2.8225e+05 ;    C13 - H3S   
  1215   1218   1    1.5350e-01    2.5363e+05 ;    C13 - C12   
  1218   1219   1    1.0920e-01    2.8225e+05 ;    C12 - H2R   
  1218   1220   1    1.0920e-01    2.8225e+05 ;    C12 - H2S   
  1218   1221   1    1.5080e-01    2.7472e+05 ;    C12 - C11   
  1221   1222   1    1.2140e-01    5.4225e+05 ;    C11 - O12   
  1221   1223   1    1.3430e-01    3.4418e+05 ;    C11 - O11   
  1223   1224   1    1.4390e-01    2.5230e+05 ;    O11 - C1    
  1224   1225   1    1.0930e-01    2.8108e+05 ;     C1 - HR    
  1224   1226   1    1.0930e-01    2.8108e+05 ;     C1 - HS    
  1224   1227   1    1.5350e-01    2.5363e+05 ;     C1 - C2    
  1227   1228   1    1.0930e-01    2.8108e+05 ;     C2 - HX    
  1227   1229   1    1.5350e-01    2.5363e+05 ;     C2 - C3    
  1227   1256   1    1.4390e-01    2.5230e+05 ;     C2 - O21   
  1229   1230   1    1.0930e-01    2.8108e+05 ;     C3 - HA    
  1229   1231   1    1.0930e-01    2.8108e+05 ;     C3 - HB    
  1229   1232   1    1.4390e-01    2.5230e+05 ;     C3 - O31   
  1232   1233   1    1.6100e-01    1.9246e+05 ;    O31 - P31   
  1233   1234   1    1.6100e-01    1.9246e+05 ;    P31 - O32   
  1233   1254   1    1.4800e-01    4.3932e+05 ;    P31 - O33   
  1233   1255   1    1.4800e-01    4.3932e+05 ;    P31 - O34   
  1234   1235   1    1.4390e-01    2.5230e+05 ;    O32 - C31   
  1235   1236   1    1.0930e-01    2.8108e+05 ;    C31 - H1A   
  1235   1237   1    1.0930e-01    2.8108e+05 ;    C31 - H1B   
  1235   1238   1    1.5350e-01    2.5363e+05 ;    C31 - C32   
  1238   1239   1    1.0910e-01    2.8342e+05 ;    C32 - H2A   
  1238   1240   1    1.0910e-01    2.8342e+05 ;    C32 - H2B   
  1238   1241   1    1.4990e-01    2.4568e+05 ;    C32 - N31   
  1241   1242   1    1.4990e-01    2.4568e+05 ;    N31 - C33   
  1241   1246   1    1.4990e-01    2.4568e+05 ;    N31 - C34   
  1241   1250   1    1.4990e-01    2.4568e+05 ;    N31 - C35   
  1242   1243   1    1.0910e-01    2.8342e+05 ;    C33 - H3A   
  1242   1244   1    1.0910e-01    2.8342e+05 ;    C33 - H3B   
  1242   1245   1    1.0910e-01    2.8342e+05 ;    C33 - H3C   
  1246   1247   1    1.0910e-01    2.8342e+05 ;    C34 - H4A   
  1246   1248   1    1.0910e-01    2.8342e+05 ;    C34 - H4B   
  1246   1249   1    1.0910e-01    2.8342e+05 ;    C34 - H4C   
  1250   1251   1    1.0910e-01    2.8342e+05 ;    C35 - H5A   
  1250   1252   1    1.0910e-01    2.8342e+05 ;    C35 - H5B   
  1250   1253   1    1.0910e-01    2.8342e+05 ;    C35 - H5C   
  1256   1257   1    1.3430e-01    3.4418e+05 ;    O21 - C21   
  1257   1258   1    1.2140e-01    5.4225e+05 ;    C21 - O22   
  1257   1296   1    1.5080e-01    2.7472e+05 ;    C21 - C12   
  1259   1260   1    1.0920e-01    2.8225e+05 ;   H14T - C114  
  1260   1261   1    1.0920e-01    2.8225e+05 ;   C114 - H14R  
  1260   1262   1    1.0920e-01    2.8225e+05 ;   C114 - H14S  
  1260   1263   1    1.5350e-01    2.5363e+05 ;   C114 - C113  
  1263   1264   1    1.0920e-01    2.8225e+05 ;   C113 - H13R  
  1263   1265   1    1.0920e-01    2.8225e+05 ;   C113 - H13S  
  1263   1266   1    1.5350e-01    2.5363e+05 ;   C113 - C112  
  1266   1267   1    1.0920e-01    2.8225e+05 ;   C112 - H12R  
  1266   1268   1    1.0920e-01    2.8225e+05 ;   C112 - H12S  
  1266   1269   1    1.5350e-01    2.5363e+05 ;   C112 - C111  
  1269   1270   1    1.0920e-01    2.8225e+05 ;   C111 - H11R  
  1269   1271   1    1.0920e-01    2.8225e+05 ;   C111 - H11S  
  1269   1272   1    1.5350e-01    2.5363e+05 ;   C111 - C110  
  1272   1273   1    1.0920e-01    2.8225e+05 ;   C110 - H10R  
  1272   1274   1    1.0920e-01    2.8225e+05 ;   C110 - H10S  
  1272   1275   1    1.5350e-01    2.5363e+05 ;   C110 - C19   
  1275   1276   1    1.0920e-01    2.8225e+05 ;    C19 - H9R   
  1275   1277   1    1.0920e-01    2.8225e+05 ;    C19 - H9S   
  1275   1278   1    1.5350e-01    2.5363e+05 ;    C19 - C18   
  1278   1279   1    1.0920e-01    2.8225e+05 ;    C18 - H8R   
  1278   1280   1    1.0920e-01    2.8225e+05 ;    C18 - H8S   
  1278   1281   1    1.5350e-01    2.5363e+05 ;    C18 - C17   
  1281   1282   1    1.0920e-01    2.8225e+05 ;    C17 - H7R   
  1281   1283   1    1.0920e-01    2.8225e+05 ;    C17 - H7S   
  1281   1284   1    1.5350e-01    2.5363e+05 ;    C17 - C16   
  1284   1285   1    1.0920e-01    2.8225e+05 ;    C16 - H6R   
  1284   1286   1    1.0920e-01    2.8225e+05 ;    C16 - H6S   
  1284   1287   1    1.5350e-01    2.5363e+05 ;    C16 - C15   
  1287   1288   1    1.0920e-01    2.8225e+05 ;    C15 - H5R   
  1287   1289   1    1.0920e-01    2.8225e+05 ;    C15 - H5S   
  1287   1290   1    1.5350e-01    2.5363e+05 ;    C15 - C14   
  1290   1291   1    1.0920e-01    2.8225e+05 ;    C14 - H4R   
  1290   1292   1    1.0920e-01    2.8225e+05 ;    C14 - H4S   
  1290   1293   1    1.5350e-01    2.5363e+05 ;    C14 - C13   
  1293   1294   1    1.0920e-01    2.8225e+05 ;    C13 - H3R   
  1293   1295   1    1.0920e-01    2.8225e+05 ;    C13 - H3S   
  1293   1296   1    1.5350e-01    2.5363e+05 ;    C13 - C12   
  1296   1297   1    1.0920e-01    2.8225e+05 ;    C12 - H2R   
  1296   1298   1    1.0920e-01    2.8225e+05 ;    C12 - H2S   
  1299   1300   1    1.0920e-01    2.8225e+05 ;   H14T - C114  
  1300   1301   1    1.0920e-01    2.8225e+05 ;   C114 - H14R  
  1300   1302   1    1.0920e-01    2.8225e+05 ;   C114 - H14S  
  1300   1303   1    1.5350e-01    2.5363e+05 ;   C114 - C113  
  1303   1304   1    1.0920e-01    2.8225e+05 ;   C113 - H13R  
  1303   1305   1    1.0920e-01    2.8225e+05 ;   C113 - H13S  
  1303   1306   1    1.5350e-01    2.5363e+05 ;   C113 - C112  
  1306   1307   1    1.0920e-01    2.8225e+05 ;   C112 - H12R  
  1306   1308   1    1.0920e-01    2.8225e+05 ;   C112 - H12S  
  1306   1309   1    1.5350e-01    2.5363e+05 ;   C112 - C111  
  1309   1310   1    1.0920e-01    2.8225e+05 ;   C111 - H11R  
  1309   1311   1    1.0920e-01    2.8225e+05 ;   C111 - H11S  
  1309   1312   1    1.5350e-01    2.5363e+05 ;   C111 - C110  
  1312   1313   1    1.0920e-01    2.8225e+05 ;   C110 - H10R  
  1312   1314   1    1.0920e-01    2.8225e+05 ;   C110 - H10S  
  1312   1315   1    1.5350e-01    2.5363e+05 ;   C110 - C19   
  1315   1316   1    1.0920e-01    2.8225e+05 ;    C19 - H9R   
  1315   1317   1    1.0920e-01    2.8225e+05 ;    C19 - H9S   
  1315   1318   1    1.5350e-01    2.5363e+05 ;    C19 - C18   
  1318   1319   1    1.0920e-01    2.8225e+05 ;    C18 - H8R   
  1318   1320   1    1.0920e-01    2.8225e+05 ;    C18 - H8S   
  1318   1321   1    1.5350e-01    2.5363e+05 ;    C18 - C17   
  1321   1322   1    1.0920e-01    2.8225e+05 ;    C17 - H7R   
  1321   1323   1    1.0920e-01    2.8225e+05 ;    C17 - H7S   
  1321   1324   1    1.5350e-01    2.5363e+05 ;    C17 - C16   
  1324   1325   1    1.0920e-01    2.8225e+05 ;    C16 - H6R   
  1324   1326   1    1.0920e-01    2.8225e+05 ;    C16 - H6S   
  1324   1327   1    1.5350e-01    2.5363e+05 ;    C16 - C15   
  1327   1328   1    1.0920e-01    2.8225e+05 ;    C15 - H5R   
  1327   1329   1    1.0920e-01    2.8225e+05 ;    C15 - H5S   
  1327   1330   1    1.5350e-01    2.5363e+05 ;    C15 - C14   
  1330   1331   1    1.0920e-01    2.8225e+05 ;    C14 - H4R   
  1330   1332   1    1.0920e-01    2.8225e+05 ;    C14 - H4S   
  1330   1333   1    1.5350e-01    2.5363e+05 ;    C14 - C13   
  1333   1334   1    1.0920e-01    2.8225e+05 ;    C13 - H3R   
  1333   1335   1    1.0920e-01    2.8225e+05 ;    C13 - H3S   
  1333   1336   1    1.5350e-01    2.5363e+05 ;    C13 - C12   
  1336   1337   1    1.0920e-01    2.8225e+05 ;    C12 - H2R   
  1336   1338   1    1.0920e-01    2.8225e+05 ;    C12 - H2S   
  1336   1339   1    1.5080e-01    2.7472e+05 ;    C12 - C11   
  1339   1340   1    1.2140e-01    5.4225e+05 ;    C11 - O12   
  1339   1341   1    1.3430e-01    3.4418e+05 ;    C11 - O11   
  1341   1342   1    1.4390e-01    2.5230e+05 ;    O11 - C1    
  1342   1343   1    1.0930e-01    2.8108e+05 ;     C1 - HR    
  1342   1344   1    1.0930e-01    2.8108e+05 ;     C1 - HS    
  1342   1345   1    1.5350e-01    2.5363e+05 ;     C1 - C2    
  1345   1346   1    1.0930e-01    2.8108e+05 ;     C2 - HX    
  1345   1347   1    1.5350e-01    2.5363e+05 ;     C2 - C3    
  1345   1374   1    1.4390e-01    2.5230e+05 ;     C2 - O21   
  1347   1348   1    1.0930e-01    2.8108e+05 ;     C3 - HA    
  1347   1349   1    1.0930e-01    2.8108e+05 ;     C3 - HB    
  1347   1350   1    1.4390e-01    2.5230e+05 ;     C3 - O31   
  1350   1351   1    1.6100e-01    1.9246e+05 ;    O31 - P31   
  1351   1352   1    1.6100e-01    1.9246e+05 ;    P31 - O32   
  1351   1372   1    1.4800e-01    4.3932e+05 ;    P31 - O33   
  1351   1373   1    1.4800e-01    4.3932e+05 ;    P31 - O34   
  1352   1353   1    1.4390e-01    2.5230e+05 ;    O32 - C31   
  1353   1354   1    1.0930e-01    2.8108e+05 ;    C31 - H1A   
  1353   1355   1    1.0930e-01    2.8108e+05 ;    C31 - H1B   
  1353   1356   1    1.5350e-01    2.5363e+05 ;    C31 - C32   
  1356   1357   1    1.0910e-01    2.8342e+05 ;    C32 - H2A   
  1356   1358   1    1.0910e-01    2.8342e+05 ;    C32 - H2B   
  1356   1359   1    1.4990e-01    2.4568e+05 ;    C32 - N31   
  1359   1360   1    1.4990e-01    2.4568e+05 ;    N31 - C33   
  1359   1364   1    1.4990e-01    2.4568e+05 ;    N31 - C34   
  1359   1368   1    1.4990e-01    2.4568e+05 ;    N31 - C35   
  1360   1361   1    1.0910e-01    2.8342e+05 ;    C33 - H3A   
  1360   1362   1    1.0910e-01    2.8342e+05 ;    C33 - H3B   
  1360   1363   1    1.0910e-01    2.8342e+05 ;    C33 - H3C   
  1364   1365   1    1.0910e-01    2.8342e+05 ;    C34 - H4A   
  1364   1366   1    1.0910e-01    2.8342e+05 ;    C34 - H4B   
  1364   1367   1    1.0910e-01    2.8342e+05 ;    C34 - H4C   
  1368   1369   1    1.0910e-01    2.8342e+05 ;    C35 - H5A   
  1368   1370   1    1.0910e-01    2.8342e+05 ;    C35 - H5B   
  1368   1371   1    1.0910e-01    2.8342e+05 ;    C35 - H5C   
  1374   1375   1    1.3430e-01    3.4418e+05 ;    O21 - C21   
  1375   1376   1    1.2140e-01    5.4225e+05 ;    C21 - O22   
  1375   1414   1    1.5080e-01    2.7472e+05 ;    C21 - C12   
  1377   1378   1    1.0920e-01    2.8225e+05 ;   H14T - C114  
  1378   1379   1    1.0920e-01    2.8225e+05 ;   C114 - H14R  
  1378   1380   1    1.0920e-01    2.8225e+05 ;   C114 - H14S  
  1378   1381   1    1.5350e-01    2.5363e+05 ;   C114 - C113  
  1381   1382   1    1.0920e-01    2.8225e+05 ;   C113 - H13R  
  1381   1383   1    1.0920e-01    2.8225e+05 ;   C113 - H13S  
  1381   1384   1    1.5350e-01    2.5363e+05 ;   C113 - C112  
  1384   1385   1    1.0920e-01    2.8225e+05 ;   C112 - H12R  
  1384   1386   1    1.0920e-01    2.8225e+05 ;   C112 - H12S  
  1384   1387   1    1.5350e-01    2.5363e+05 ;   C112 - C111  
  1387   1388   1    1.0920e-01    2.8225e+05 ;   C111 - H11R  
  1387   1389   1    1.0920e-01    2.8225e+05 ;   C111 - H11S  
  1387   1390   1    1.5350e-01    2.5363e+05 ;   C111 - C110  
  1390   1391   1    1.0920e-01    2.8225e+05 ;   C110 - H10R  
  1390   1392   1    1.0920e-01    2.8225e+05 ;   C110 - H10S  
  1390   1393   1    1.5350e-01    2.5363e+05 ;   C110 - C19   
  1393   1394   1    1.0920e-01    2.8225e+05 ;    C19 - H9R   
  1393   1395   1    1.0920e-01    2.8225e+05 ;    C19 - H9S   
  1393   1396   1    1.5350e-01    2.5363e+05 ;    C19 - C18   
  1396   1397   1    1.0920e-01    2.8225e+05 ;    C18 - H8R   
  1396   1398   1    1.0920e-01    2.8225e+05 ;    C18 - H8S   
  1396   1399   1    1.5350e-01    2.5363e+05 ;    C18 - C17   
  1399   1400   1    1.0920e-01    2.8225e+05 ;    C17 - H7R   
  1399   1401   1    1.0920e-01    2.8225e+05 ;    C17 - H7S   
  1399   1402   1    1.5350e-01    2.5363e+05 ;    C17 - C16   
  1402   1403   1    1.0920e-01    2.8225e+05 ;    C16 - H6R   
  1402   1404   1    1.0920e-01    2.8225e+05 ;    C16 - H6S   
  1402   1405   1    1.5350e-01    2.5363e+05 ;    C16 - C15   
  1405   1406   1    1.0920e-01    2.8225e+05 ;    C15 - H5R   
  1405   1407   1    1.0920e-01    2.8225e+05 ;    C15 - H5S   
  1405   1408   1    1.5350e-01    2.5363e+05 ;    C15 - C14   
  1408   1409   1    1.0920e-01    2.8225e+05 ;    C14 - H4R   
  1408   1410   1    1.0920e-01    2.8225e+05 ;    C14 - H4S   
  1408   1411   1    1.5350e-01    2.5363e+05 ;    C14 - C13   
  1411   1412   1    1.0920e-01    2.8225e+05 ;    C13 - H3R   
  1411   1413   1    1.0920e-01    2.8225e+05 ;    C13 - H3S   
  1411   1414   1    1.5350e-01    2.5363e+05 ;    C13 - C12   
  1414   1415   1    1.0920e-01    2.8225e+05 ;    C12 - H2R   
  1414   1416   1    1.0920e-01    2.8225e+05 ;    C12 - H2S   
  1417   1418   1    1.0920e-01    2.8225e+05 ;   H14T - C114  
  1418   1419   1    1.0920e-01    2.8225e+05 ;   C114 - H14R  
  1418   1420   1    1.0920e-01    2.8225e+05 ;   C114 - H14S  
  1418   1421   1    1.5350e-01    2.5363e+05 ;   C114 - C113  
  1421   1422   1    1.0920e-01    2.8225e+05 ;   C113 - H13R  
  1421   1423   1    1.0920e-01    2.8225e+05 ;   C113 - H13S  
  1421   1424   1    1.5350e-01    2.5363e+05 ;   C113 - C112  
  1424   1425   1    1.0920e-01    2.8225e+05 ;   C112 - H12R  
  1424   1426   1    1.0920e-01    2.8225e+05 ;   C112 - H12S  
  1424   1427   1    1.5350e-01    2.5363e+05 ;   C112 - C111  
  1427   1428   1    1.0920e-01    2.8225e+05 ;   C111 - H11R  
  1427   1429   1    1.0920e-01    2.8225e+05 ;   C111 - H11S  
  1427   1430   1    1.5350e-01    2.5363e+05 ;   C111 - C110  
  1430   1431   1    1.0920e-01    2.8225e+05 ;   C110 - H10R  
  1430   1432   1    1.0920e-01    2.8225e+05 ;   C110 - H10S  
  1430   1433   1    1.5350e-01    2.5363e+05 ;   C110 - C19   
  1433   1434   1    1.0920e-01    2.8225e+05 ;    C19 - H9R   
  1433   1435   1    1.0920e-01    2.8225e+05 ;    C19 - H9S   
  1433   1436   1    1.5350e-01    2.5363e+05 ;    C19 - C18   
  1436   1437   1    1.0920e-01    2.8225e+05 ;    C18 - H8R   
  1436   1438   1    1.0920e-01    2.8225e+05 ;    C18 - H8S   
  1436   1439   1    1.5350e-01    2.5363e+05 ;    C18 - C17   
  1439   1440   1    1.0920e-01    2.8225e+05 ;    C17 - H7R   
  1439   1441   1    1.0920e-01    2.8225e+05 ;    C17 - H7S   
  1439   1442   1    1.5350e-01    2.5363e+05 ;    C17 - C16   
  1442   1443   1    1.0920e-01    2.8225e+05 ;    C16 - H6R   
  1442   1444   1    1.0920e-01    2.8225e+05 ;    C16 - H6S   
  1442   1445   1    1.5350e-01    2.5363e+05 ;    C16 - C15   
  1445   1446   1    1.0920e-01    2.8225e+05 ;    C15 - H5R   
  1445   1447   1    1.0920e-01    2.8225e+05 ;    C15 - H5S   
  1445   1448   1    1.5350e-01    2.5363e+05 ;    C15 - C14   
  1448   1449   1    1.0920e-01    2.8225e+05 ;    C14 - H4R   
  1448   1450   1    1.0920e-01    2.8225e+05 ;    C14 - H4S   
  1448   1451   1    1.5350e-01    2.5363e+05 ;    C14 - C13   
  1451   1452   1    1.0920e-01    2.8225e+05 ;    C13 - H3R   
  1451   1453   1    1.0920e-01    2.8225e+05 ;    C13 - H3S   
  1451   1454   1    1.5350e-01    2.5363e+05 ;    C13 - C12   
  1454   1455   1    1.0920e-01    2.8225e+05 ;    C12 - H2R   
  1454   1456   1    1.0920e-01    2.8225e+05 ;    C12 - H2S   
  1454   1457   1    1.5080e-01    2.7472e+05 ;    C12 - C11   
  1457   1458   1    1.2140e-01    5.4225e+05 ;    C11 - O12   
  1457   1459   1    1.3430e-01    3.4418e+05 ;    C11 - O11   
  1459   1460   1    1.4390e-01    2.5230e+05 ;    O11 - C1    
  1460   1461   1    1.0930e-01    2.8108e+05 ;     C1 - HR    
  1460   1462   1    1.0930e-01    2.8108e+05 ;     C1 - HS    
  1460   1463   1    1.5350e-01    2.5363e+05 ;     C1 - C2    
  1463   1464   1    1.0930e-01    2.8108e+05 ;     C2 - HX    
  1463   1465   1    1.5350e-01    2.5363e+05 ;     C2 - C3    
  1463   1492   1    1.4390e-01    2.5230e+05 ;     C2 - O21   
  1465   1466   1    1.0930e-01    2.8108e+05 ;     C3 - HA    
  1465   1467   1    1.0930e-01    2.8108e+05 ;     C3 - HB    
  1465   1468   1    1.4390e-01    2.5230e+05 ;     C3 - O31   
  1468   1469   1    1.6100e-01    1.9246e+05 ;    O31 - P31   
  1469   1470   1    1.6100e-01    1.9246e+05 ;    P31 - O32   
  1469   1490   1    1.4800e-01    4.3932e+05 ;    P31 - O33   
  1469   1491   1    1.4800e-01    4.3932e+05 ;    P31 - O34   
  1470   1471   1    1.4390e-01    2.5230e+05 ;    O32 - C31   
  1471   1472   1    1.0930e-01    2.8108e+05 ;    C31 - H1A   
  1471   1473   1    1.0930e-01    2.8108e+05 ;    C31 - H1B   
  1471   1474   1    1.5350e-01    2.5363e+05 ;    C31 - C32   
  1474   1475   1    1.0910e-01    2.8342e+05 ;    C32 - H2A   
  1474   1476   1    1.0910e-01    2.8342e+05 ;    C32 - H2B   
  1474   1477   1    1.4990e-01    2.4568e+05 ;    C32 - N31   
  1477   1478   1    1.4990e-01    2.4568e+05 ;    N31 - C33   
  1477   1482   1    1.4990e-01    2.4568e+05 ;    N31 - C34   
  1477   1486   1    1.4990e-01    2.4568e+05 ;    N31 - C35   
  1478   1479   1    1.0910e-01    2.8342e+05 ;    C33 - H3A   
  1478   1480   1    1.0910e-01    2.8342e+05 ;    C33 - H3B   
  1478   1481   1    1.0910e-01    2.8342e+05 ;    C33 - H3C   
  1482   1483   1    1.0910e-01    2.8342e+05 ;    C34 - H4A   
  1482   1484   1    1.0910e-01    2.8342e+05 ;    C34 - H4B   
  1482   1485   1    1.0910e-01    2.8342e+05 ;    C34 - H4C   
  1486   1487   1    1.0910e-01    2.8342e+05 ;    C35 - H5A   
  1486   1488   1    1.0910e-01    2.8342e+05 ;    C35 - H5B   
  1486   1489   1    1.0910e-01    2.8342e+05 ;    C35 - H5C   
  1492   1493   1    1.3430e-01    3.4418e+05 ;    O21 - C21   
  1493   1494   1    1.2140e-01    5.4225e+05 ;    C21 - O22   
  1493   1532   1    1.5080e-01    2.7472e+05 ;    C21 - C12   
  1495   1496   1    1.0920e-01    2.8225e+05 ;   H14T - C114  
  1496   1497   1    1.0920e-01    2.8225e+05 ;   C114 - H14R  
  1496   1498   1    1.0920e-01    2.8225e+05 ;   C114 - H14S  
  1496   1499   1    1.5350e-01    2.5363e+05 ;   C114 - C113  
  1499   1500   1    1.0920e-01    2.8225e+05 ;   C113 - H13R  
  1499   1501   1    1.0920e-01    2.8225e+05 ;   C113 - H13S  
  1499   1502   1    1.5350e-01    2.5363e+05 ;   C113 - C112  
  1502   1503   1    1.0920e-01    2.8225e+05 ;   C112 - H12R  
  1502   1504   1    1.0920e-01    2.8225e+05 ;   C112 - H12S  
  1502   1505   1    1.5350e-01    2.5363e+05 ;   C112 - C111  
  1505   1506   1    1.0920e-01    2.8225e+05 ;   C111 - H11R  
  1505   1507   1    1.0920e-01    2.8225e+05 ;   C111 - H11S  
  1505   1508   1    1.5350e-01    2.5363e+05 ;   C111 - C110  
  1508   1509   1    1.0920e-01    2.8225e+05 ;   C110 - H10R  
  1508   1510   1    1.0920e-01    2.8225e+05 ;   C110 - H10S  
  1508   1511   1    1.5350e-01    2.5363e+05 ;   C110 - C19   
  1511   1512   1    1.0920e-01    2.8225e+05 ;    C19 - H9R   
  1511   1513   1    1.0920e-01    2.8225e+05 ;    C19 - H9S   
  1511   1514   1    1.5350e-01    2.5363e+05 ;    C19 - C18   
  1514   1515   1    1.0920e-01    2.8225e+05 ;    C18 - H8R   
  1514   1516   1    1.0920e-01    2.8225e+05 ;    C18 - H8S   
  1514   1517   1    1.5350e-01    2.5363e+05 ;    C18 - C17   
  1517   1518   1    1.0920e-01    2.8225e+05 ;    C17 - H7R   
  1517   1519   1    1.0920e-01    2.8225e+05 ;    C17 - H7S   
  1517   1520   1    1.5350e-01    2.5363e+05 ;    C17 - C16   
  1520   1521   1    1.0920e-01    2.8225e+05 ;    C16 - H6R   
  1520   1522   1    1.0920e-01    2.8225e+05 ;    C16 - H6S   
  1520   1523   1    1.5350e-01    2.5363e+05 ;    C16 - C15   
  1523   1524   1    1.0920e-01    2.8225e+05 ;    C15 - H5R   
  1523   1525   1    1.0920e-01    2.8225e+05 ;    C15 - H5S   
  1523   1526   1    1.5350e-01    2.5363e+05 ;    C15 - C14   
  1526   1527   1    1.0920e-01    2.8225e+05 ;    C14 - H4R   
  1526   1528   1    1.0920e-01    2.8225e+05 ;    C14 - H4S   
  1526   1529   1    1.5350e-01    2.5363e+05 ;    C14 - C13   
  1529   1530   1    1.0920e-01    2.8225e+05 ;    C13 - H3R   
  1529   1531   1    1.0920e-01    2.8225e+05 ;    C13 - H3S   
  1529   1532   1    1.5350e-01    2.5363e+05 ;    C13 - C12   
  1532   1533   1    1.0920e-01    2.8225e+05 ;    C12 - H2R   
  1532   1534   1    1.0920e-01    2.8225e+05 ;    C12 - H2S   
  1535   1536   1    1.0920e-01    2.8225e+05 ;   H14T - C114  
  1536   1537   1    1.0920e-01    2.8225e+05 ;   C114 - H14R  
  1536   1538   1    1.0920e-01    2.8225e+05 ;   C114 - H14S  
  1536   1539   1    1.5350e-01    2.5363e+05 ;   C114 - C113  
  1539   1540   1    1.0920e-01    2.8225e+05 ;   C113 - H13R  
  1539   1541   1    1.0920e-01    2.8225e+05 ;   C113 - H13S  
  1539   1542   1    1.5350e-01    2.5363e+05 ;   C113 - C112  
  1542   1543   1    1.0920e-01    2.8225e+05 ;   C112 - H12R  
  1542   1544   1    1.0920e-01    2.8225e+05 ;   C112 - H12S  
  1542   1545   1    1.5350e-01    2.5363e+05 ;   C112 - C111  
  1545   1546   1    1.0920e-01    2.8225e+05 ;   C111 - H11R  
  1545   1547   1    1.0920e-01    2.8225e+05 ;   C111 - H11S  
  1545   1548   1    1.5350e-01    2.5363e+05 ;   C111 - C110  
  1548   1549   1    1.0920e-01    2.8225e+05 ;   C110 - H10R  
  1548   1550   1    1.0920e-01    2.8225e+05 ;   C110 - H10S  
  1548   1551   1    1.5350e-01    2.5363e+05 ;   C110 - C19   
  1551   1552   1    1.0920e-01    2.8225e+05 ;    C19 - H9R   
  1551   1553   1    1.0920e-01    2.8225e+05 ;    C19 - H9S   
  1551   1554   1    1.5350e-01    2.5363e+05 ;    C19 - C18   
  1554   1555   1    1.0920e-01    2.8225e+05 ;    C18 - H8R   
  1554   1556   1    1.0920e-01    2.8225e+05 ;    C18 - H8S   
  1554   1557   1    1.5350e-01    2.5363e+05 ;    C18 - C17   
  1557   1558   1    1.0920e-01    2.8225e+05 ;    C17 - H7R   
  1557   1559   1    1.0920e-01    2.8225e+05 ;    C17 - H7S   
  1557   1560   1    1.5350e-01    2.5363e+05 ;    C17 - C16   
  1560   1561   1    1.0920e-01    2.8225e+05 ;    C16 - H6R   
  1560   1562   1    1.0920e-01    2.8225e+05 ;    C16 - H6S   
  1560   1563   1    1.5350e-01    2.5363e+05 ;    C16 - C15   
  1563   1564   1    1.0920e-01    2.8225e+05 ;    C15 - H5R   
  1563   1565   1    1.0920e-01    2.8225e+05 ;    C15 - H5S   
  1563   1566   1    1.5350e-01    2.5363e+05 ;    C15 - C14   
  1566   1567   1    1.0920e-01    2.8225e+05 ;    C14 - H4R   
  1566   1568   1    1.0920e-01    2.8225e+05 ;    C14 - H4S   
  1566   1569   1    1.5350e-01    2.5363e+05 ;    C14 - C13   
  1569   1570   1    1.0920e-01    2.8225e+05 ;    C13 - H3R   
  1569   1571   1    1.0920e-01    2.8225e+05 ;    C13 - H3S   
  1569   1572   1    1.5350e-01    2.5363e+05 ;    C13 - C12   
  1572   1573   1    1.0920e-01    2.8225e+05 ;    C12 - H2R   
  1572   1574   1    1.0920e-01    2.8225e+05 ;    C12 - H2S   
  1572   1575   1    1.5080e-01    2.7472e+05 ;    C12 - C11   
  1575   1576   1    1.2140e-01    5.4225e+05 ;    C11 - O12   
  1575   1577   1    1.3430e-01    3.4418e+05 ;    C11 - O11   
  1577   1578   1    1.4390e-01    2.5230e+05 ;    O11 - C1    
  1578   1579   1    1.0930e-01    2.8108e+05 ;     C1 - HR    
  1578   1580   1    1.0930e-01    2.8108e+05 ;     C1 - HS    
  1578   1581   1    1.5350e-01    2.5363e+05 ;     C1 - C2    
  1581   1582   1    1.0930e-01    2.8108e+05 ;     C2 - HX    
  1581   1583   1    1.5350e-01    2.5363e+05 ;     C2 - C3    
  1581   1610   1    1.4390e-01    2.5230e+05 ;     C2 - O21   
  1583   1584   1    1.0930e-01    2.8108e+05 ;     C3 - HA    
  1583   1585   1    1.0930e-01    2.8108e+05 ;     C3 - HB    
  1583   1586   1    1.4390e-01    2.5230e+05 ;     C3 - O31   
  1586   1587   1    1.6100e-01    1.9246e+05 ;    O31 - P31   
  1587   1588   1    1.6100e-01    1.9246e+05 ;    P31 - O32   
  1587   1608   1    1.4800e-01    4.3932e+05 ;    P31 - O33   
  1587   1609   1    1.4800e-01    4.3932e+05 ;    P31 - O34   
  1588   1589   1    1.4390e-01    2.5230e+05 ;    O32 - C31   
  1589   1590   1    1.0930e-01    2.8108e+05 ;    C31 - H1A   
  1589   1591   1    1.0930e-01    2.8108e+05 ;    C31 - H1B   
  1589   1592   1    1.5350e-01    2.5363e+05 ;    C31 - C32   
  1592   1593   1    1.0910e-01    2.8342e+05 ;    C32 - H2A   
  1592   1594   1    1.0910e-01    2.8342e+05 ;    C32 - H2B   
  1592   1595   1    1.4990e-01    2.4568e+05 ;    C32 - N31   
  1595   1596   1    1.4990e-01    2.4568e+05 ;    N31 - C33   
  1595   1600   1    1.4990e-01    2.4568e+05 ;    N31 - C34   
  1595   1604   1    1.4990e-01    2.4568e+05 ;    N31 - C35   
  1596   1597   1    1.0910e-01    2.8342e+05 ;    C33 - H3A   
  1596   1598   1    1.0910e-01    2.8342e+05 ;    C33 - H3B   
  1596   1599   1    1.0910e-01    2.8342e+05 ;    C33 - H3C   
  1600   1601   1    1.0910e-01    2.8342e+05 ;    C34 - H4A   
  1600   1602   1    1.0910e-01    2.8342e+05 ;    C34 - H4B   
  1600   1603   1    1.0910e-01    2.8342e+05 ;    C34 - H4C   
  1604   1605   1    1.0910e-01    2.8342e+05 ;    C35 - H5A   
  1604   1606   1    1.0910e-01    2.8342e+05 ;    C35 - H5B   
  1604   1607   1    1.0910e-01    2.8342e+05 ;    C35 - H5C   
  1610   1611   1    1.3430e-01    3.4418e+05 ;    O21 - C21   
  1611   1612   1    1.2140e-01    5.4225e+05 ;    C21 - O22   
  1611   1650   1    1.5080e-01    2.7472e+05 ;    C21 - C12   
  1613   1614   1    1.0920e-01    2.8225e+05 ;   H14T - C114  
  1614   1615   1    1.0920e-01    2.8225e+05 ;   C114 - H14R  
  1614   1616   1    1.0920e-01    2.8225e+05 ;   C114 - H14S  
  1614   1617   1    1.5350e-01    2.5363e+05 ;   C114 - C113  
  1617   1618   1    1.0920e-01    2.8225e+05 ;   C113 - H13R  
  1617   1619   1    1.0920e-01    2.8225e+05 ;   C113 - H13S  
  1617   1620   1    1.5350e-01    2.5363e+05 ;   C113 - C112  
  1620   1621   1    1.0920e-01    2.8225e+05 ;   C112 - H12R  
  1620   1622   1    1.0920e-01    2.8225e+05 ;   C112 - H12S  
  1620   1623   1    1.5350e-01    2.5363e+05 ;   C112 - C111  
  1623   1624   1    1.0920e-01    2.8225e+05 ;   C111 - H11R  
  1623   1625   1    1.0920e-01    2.8225e+05 ;   C111 - H11S  
  1623   1626   1    1.5350e-01    2.5363e+05 ;   C111 - C110  
  1626   1627   1    1.0920e-01    2.8225e+05 ;   C110 - H10R  
  1626   1628   1    1.0920e-01    2.8225e+05 ;   C110 - H10S  
  1626   1629   1    1.5350e-01    2.5363e+05 ;   C110 - C19   
  1629   1630   1    1.0920e-01    2.8225e+05 ;    C19 - H9R   
  1629   1631   1    1.0920e-01    2.8225e+05 ;    C19 - H9S   
  1629   1632   1    1.5350e-01    2.5363e+05 ;    C19 - C18   
  1632   1633   1    1.0920e-01    2.8225e+05 ;    C18 - H8R   
  1632   1634   1    1.0920e-01    2.8225e+05 ;    C18 - H8S   
  1632   1635   1    1.5350e-01    2.5363e+05 ;    C18 - C17   
  1635   1636   1    1.0920e-01    2.8225e+05 ;    C17 - H7R   
  1635   1637   1    1.0920e-01    2.8225e+05 ;    C17 - H7S   
  1635   1638   1    1.5350e-01    2.5363e+05 ;    C17 - C16   
  1638   1639   1    1.0920e-01    2.8225e+05 ;    C16 - H6R   
  1638   1640   1    1.0920e-01    2.8225e+05 ;    C16 - H6S   
  1638   1641   1    1.5350e-01    2.5363e+05 ;    C16 - C15   
  1641   1642   1    1.0920e-01    2.8225e+05 ;    C15 - H5R   
  1641   1643   1    1.0920e-01    2.8225e+05 ;    C15 - H5S   
  1641   1644   1    1.5350e-01    2.5363e+05 ;    C15 - C14   
  1644   1645   1    1.0920e-01    2.8225e+05 ;    C14 - H4R   
  1644   1646   1    1.0920e-01    2.8225e+05 ;    C14 - H4S   
  1644   1647   1    1.5350e-01    2.5363e+05 ;    C14 - C13   
  1647   1648   1    1.0920e-01    2.8225e+05 ;    C13 - H3R   
  1647   1649   1    1.0920e-01    2.8225e+05 ;    C13 - H3S   
  1647   1650   1    1.5350e-01    2.5363e+05 ;    C13 - C12   
  1650   1651   1    1.0920e-01    2.8225e+05 ;    C12 - H2R   
  1650   1652   1    1.0920e-01    2.8225e+05 ;    C12 - H2S   
  1653   1654   1    1.0920e-01    2.8225e+05 ;   H14T - C114  
  1654   1655   1    1.0920e-01    2.8225e+05 ;   C114 - H14R  
  1654   1656   1    1.0920e-01    2.8225e+05 ;   C114 - H14S  
  1654   1657   1    1.5350e-01    2.5363e+05 ;   C114 - C113  
  1657   1658   1    1.0920e-01    2.8225e+05 ;   C113 - H13R  
  1657   1659   1    1.0920e-01    2.8225e+05 ;   C113 - H13S  
  1657   1660   1    1.5350e-01    2.5363e+05 ;   C113 - C112  
  1660   1661   1    1.0920e-01    2.8225e+05 ;   C112 - H12R  
  1660   1662   1    1.0920e-01    2.8225e+05 ;   C112 - H12S  
  1660   1663   1    1.5350e-01    2.5363e+05 ;   C112 - C111  
  1663   1664   1    1.0920e-01    2.8225e+05 ;   C111 - H11R  
  1663   1665   1    1.0920e-01    2.8225e+05 ;   C111 - H11S  
  1663   1666   1    1.5350e-01    2.5363e+05 ;   C111 - C110  
  1666   1667   1    1.0920e-01    2.8225e+05 ;   C110 - H10R  
  1666   1668   1    1.0920e-01    2.8225e+05 ;   C110 - H10S  
  1666   1669   1    1.5350e-01    2.5363e+05 ;   C110 - C19   
  1669   1670   1    1.0920e-01    2.8225e+05 ;    C19 - H9R   
  1669   1671   1    1.0920e-01    2.8225e+05 ;    C19 - H9S   
  1669   1672   1    1.5350e-01    2.5363e+05 ;    C19 - C18   
  1672   1673   1    1.0920e-01    2.8225e+05 ;    C18 - H8R   
  1672   1674   1    1.0920e-01    2.8225e+05 ;    C18 - H8S   
  1672   1675   1    1.5350e-01    2.5363e+05 ;    C18 - C17   
  1675   1676   1    1.0920e-01    2.8225e+05 ;    C17 - H7R   
  1675   1677   1    1.0920e-01    2.8225e+05 ;    C17 - H7S   
  1675   1678   1    1.5350e-01    2.5363e+05 ;    C17 - C16   
  1678   1679   1    1.0920e-01    2.8225e+05 ;    C16 - H6R   
  1678   1680   1    1.0920e-01    2.8225e+05 ;    C16 - H6S   
  1678   1681   1    1.5350e-01    2.5363e+05 ;    C16 - C15   
  1681   1682   1    1.0920e-01    2.8225e+05 ;    C15 - H5R   
  1681   1683   1    1.0920e-01    2.8225e+05 ;    C15 - H5S   
  1681   1684   1    1.5350e-01    2.5363e+05 ;    C15 - C14   
  1684   1685   1    1.0920e-01    2.8225e+05 ;    C14 - H4R   
  1684   1686   1    1.0920e-01    2.8225e+05 ;    C14 - H4S   
  1684   1687   1    1.5350e-01    2.5363e+05 ;    C14 - C13   
  1687   1688   1    1.0920e-01    2.8225e+05 ;    C13 - H3R   
  1687   1689   1    1.0920e-01    2.8225e+05 ;    C13 - H3S   
  1687   1690   1    1.5350e-01    2.5363e+05 ;    C13 - C12   
  1690   1691   1    1.0920e-01    2.8225e+05 ;    C12 - H2R   
  1690   1692   1    1.0920e-01    2.8225e+05 ;    C12 - H2S   
  1690   1693   1    1.5080e-01    2.7472e+05 ;    C12 - C11   
  1693   1694   1    1.2140e-01    5.4225e+05 ;    C11 - O12   
  1693   1695   1    1.3430e-01    3.4418e+05 ;    C11 - O11   
  1695   1696   1    1.4390e-01    2.5230e+05 ;    O11 - C1    
  1696   1697   1    1.0930e-01    2.8108e+05 ;     C1 - HR    
  1696   1698   1    1.0930e-01    2.8108e+05 ;     C1 - HS    
  1696   1699   1    1.5350e-01    2.5363e+05 ;     C1 - C2    
  1699   1700   1    1.0930e-01    2.8108e+05 ;     C2 - HX    
  1699   1701   1    1.5350e-01    2.5363e+05 ;     C2 - C3    
  1699   1728   1    1.4390e-01    2.5230e+05 ;     C2 - O21   
  1701   1702   1    1.0930e-01    2.8108e+05 ;     C3 - HA    
  1701   1703   1    1.0930e-01    2.8108e+05 ;     C3 - HB    
  1701   1704   1    1.4390e-01    2.5230e+05 ;     C3 - O31   
  1704   1705   1    1.6100e-01    1.9246e+05 ;    O31 - P31   
  1705   1706   1    1.6100e-01    1.9246e+05 ;    P31 - O32   
  1705   1726   1    1.4800e-01    4.3932e+05 ;    P31 - O33   
  1705   1727   1    1.4800e-01    4.3932e+05 ;    P31 - O34   
  1706   1707   1    1.4390e-01    2.5230e+05 ;    O32 - C31   
  1707   1708   1    1.0930e-01    2.8108e+05 ;    C31 - H1A   
  1707   1709   1    1.0930e-01    2.8108e+05 ;    C31 - H1B   
  1707   1710   1    1.5350e-01    2.5363e+05 ;    C31 - C32   
  1710   1711   1    1.0910e-01    2.8342e+05 ;    C32 - H2A   
  1710   1712   1    1.0910e-01    2.8342e+05 ;    C32 - H2B   
  1710   1713   1    1.4990e-01    2.4568e+05 ;    C32 - N31   
  1713   1714   1    1.4990e-01    2.4568e+05 ;    N31 - C33   
  1713   1718   1    1.4990e-01    2.4568e+05 ;    N31 - C34   
  1713   1722   1    1.4990e-01    2.4568e+05 ;    N31 - C35   
  1714   1715   1    1.0910e-01    2.8342e+05 ;    C33 - H3A   
  1714   1716   1    1.0910e-01    2.8342e+05 ;    C33 - H3B   
  1714   1717   1    1.0910e-01    2.8342e+05 ;    C33 - H3C   
  1718   1719   1    1.0910e-01    2.8342e+05 ;    C34 - H4A   
  1718   1720   1    1.0910e-01    2.8342e+05 ;    C34 - H4B   
  1718   1721   1    1.0910e-01    2.8342e+05 ;    C34 - H4C   
  1722   1723   1    1.0910e-01    2.8342e+05 ;    C35 - H5A   
  1722   1724   1    1.0910e-01    2.8342e+05 ;    C35 - H5B   
  1722   1725   1    1.0910e-01    2.8342e+05 ;    C35 - H5C   
  1728   1729   1    1.3430e-01    3.4418e+05 ;    O21 - C21   
  1729   1730   1    1.2140e-01    5.4225e+05 ;    C21 - O22   
  1729   1768   1    1.5080e-01    2.7472e+05 ;    C21 - C12   
  1731   1732   1    1.0920e-01    2.8225e+05 ;   H14T - C114  
  1732   1733   1    1.0920e-01    2.8225e+05 ;   C114 - H14R  
  1732   1734   1    1.0920e-01    2.8225e+05 ;   C114 - H14S  
  1732   1735   1    1.5350e-01    2.5363e+05 ;   C114 - C113  
  1735   1736   1    1.0920e-01    2.8225e+05 ;   C113 - H13R  
  1735   1737   1    1.0920e-01    2.8225e+05 ;   C113 - H13S  
  1735   1738   1    1.5350e-01    2.5363e+05 ;   C113 - C112  
  1738   1739   1    1.0920e-01    2.8225e+05 ;   C112 - H12R  
  1738   1740   1    1.0920e-01    2.8225e+05 ;   C112 - H12S  
  1738   1741   1    1.5350e-01    2.5363e+05 ;   C112 - C111  
  1741   1742   1    1.0920e-01    2.8225e+05 ;   C111 - H11R  
  1741   1743   1    1.0920e-01    2.8225e+05 ;   C111 - H11S  
  1741   1744   1    1.5350e-01    2.5363e+05 ;   C111 - C110  
  1744   1745   1    1.0920e-01    2.8225e+05 ;   C110 - H10R  
  1744   1746   1    1.0920e-01    2.8225e+05 ;   C110 - H10S  
  1744   1747   1    1.5350e-01    2.5363e+05 ;   C110 - C19   
  1747   1748   1    1.0920e-01    2.8225e+05 ;    C19 - H9R   
  1747   1749   1    1.0920e-01    2.8225e+05 ;    C19 - H9S   
  1747   1750   1    1.5350e-01    2.5363e+05 ;    C19 - C18   
  1750   1751   1    1.0920e-01    2.8225e+05 ;    C18 - H8R   
  1750   1752   1    1.0920e-01    2.8225e+05 ;    C18 - H8S   
  1750   1753   1    1.5350e-01    2.5363e+05 ;    C18 - C17   
  1753   1754   1    1.0920e-01    2.8225e+05 ;    C17 - H7R   
  1753   1755   1    1.0920e-01    2.8225e+05 ;    C17 - H7S   
  1753   1756   1    1.5350e-01    2.5363e+05 ;    C17 - C16   
  1756   1757   1    1.0920e-01    2.8225e+05 ;    C16 - H6R   
  1756   1758   1    1.0920e-01    2.8225e+05 ;    C16 - H6S   
  1756   1759   1    1.5350e-01    2.5363e+05 ;    C16 - C15   
  1759   1760   1    1.0920e-01    2.8225e+05 ;    C15 - H5R   
  1759   1761   1    1.0920e-01    2.8225e+05 ;    C15 - H5S   
  1759   1762   1    1.5350e-01    2.5363e+05 ;    C15 - C14   
  1762   1763   1    1.0920e-01    2.8225e+05 ;    C14 - H4R   
  1762   1764   1    1.0920e-01    2.8225e+05 ;    C14 - H4S   
  1762   1765   1    1.5350e-01    2.5363e+05 ;    C14 - C13   
  1765   1766   1    1.0920e-01    2.8225e+05 ;    C13 - H3R   
  1765   1767   1    1.0920e-01    2.8225e+05 ;    C13 - H3S   
  1765   1768   1    1.5350e-01    2.5363e+05 ;    C13 - C12   
  1768   1769   1    1.0920e-01    2.8225e+05 ;    C12 - H2R   
  1768   1770   1    1.0920e-01    2.8225e+05 ;    C12 - H2S   
  1771   1772   1    1.0920e-01    2.8225e+05 ;   H14T - C114  
  1772   1773   1    1.0920e-01    2.8225e+05 ;   C114 - H14R  
  1772   1774   1    1.0920e-01    2.8225e+05 ;   C114 - H14S  
  1772   1775   1    1.5350e-01    2.5363e+05 ;   C114 - C113  
  1775   1776   1    1.0920e-01    2.8225e+05 ;   C113 - H13R  
  1775   1777   1    1.0920e-01    2.8225e+05 ;   C113 - H13S  
  1775   1778   1    1.5350e-01    2.5363e+05 ;   C113 - C112  
  1778   1779   1    1.0920e-01    2.8225e+05 ;   C112 - H12R  
  1778   1780   1    1.0920e-01    2.8225e+05 ;   C112 - H12S  
  1778   1781   1    1.5350e-01    2.5363e+05 ;   C112 - C111  
  1781   1782   1    1.0920e-01    2.8225e+05 ;   C111 - H11R  
  1781   1783   1    1.0920e-01    2.8225e+05 ;   C111 - H11S  
  1781   1784   1    1.5350e-01    2.5363e+05 ;   C111 - C110  
  1784   1785   1    1.0920e-01    2.8225e+05 ;   C110 - H10R  
  1784   1786   1    1.0920e-01    2.8225e+05 ;   C110 - H10S  
  1784   1787   1    1.5350e-01    2.5363e+05 ;   C110 - C19   
  1787   1788   1    1.0920e-01    2.8225e+05 ;    C19 - H9R   
  1787   1789   1    1.0920e-01    2.8225e+05 ;    C19 - H9S   
  1787   1790   1    1.5350e-01    2.5363e+05 ;    C19 - C18   
  1790   1791   1    1.0920e-01    2.8225e+05 ;    C18 - H8R   
  1790   1792   1    1.0920e-01    2.8225e+05 ;    C18 - H8S   
  1790   1793   1    1.5350e-01    2.5363e+05 ;    C18 - C17   
  1793   1794   1    1.0920e-01    2.8225e+05 ;    C17 - H7R   
  1793   1795   1    1.0920e-01    2.8225e+05 ;    C17 - H7S   
  1793   1796   1    1.5350e-01    2.5363e+05 ;    C17 - C16   
  1796   1797   1    1.0920e-01    2.8225e+05 ;    C16 - H6R   
  1796   1798   1    1.0920e-01    2.8225e+05 ;    C16 - H6S   
  1796   1799   1    1.5350e-01    2.5363e+05 ;    C16 - C15   
  1799   1800   1    1.0920e-01    2.8225e+05 ;    C15 - H5R   
  1799   1801   1    1.0920e-01    2.8225e+05 ;    C15 - H5S   
  1799   1802   1    1.5350e-01    2.5363e+05 ;    C15 - C14   
  1802   1803   1    1.0920e-01    2.8225e+05 ;    C14 - H4R   
  1802   1804   1    1.0920e-01    2.8225e+05 ;    C14 - H4S   
  1802   1805   1    1.5350e-01    2.5363e+05 ;    C14 - C13   
  1805   1806   1    1.0920e-01    2.8225e+05 ;    C13 - H3R   
  1805   1807   1    1.0920e-01    2.8225e+05 ;    C13 - H3S   
  1805   1808   1    1.5350e-01    2.5363e+05 ;    C13 - C12   
  1808   1809   1    1.0920e-01    2.8225e+05 ;    C12 - H2R   
  1808   1810   1    1.0920e-01    2.8225e+05 ;    C12 - H2S   
  1808   1811   1    1.5080e-01    2.7472e+05 ;    C12 - C11   
  1811   1812   1    1.2140e-01    5.4225e+05 ;    C11 - O12   
  1811   1813   1    1.3430e-01    3.4418e+05 ;    C11 - O11   
  1813   1814   1    1.4390e-01    2.5230e+05 ;    O11 - C1    
  1814   1815   1    1.0930e-01    2.8108e+05 ;     C1 - HR    
  1814   1816   1    1.0930e-01    2.8108e+05 ;     C1 - HS    
  1814   1817   1    1.5350e-01    2.5363e+05 ;     C1 - C2    
  1817   1818   1    1.0930e-01    2.8108e+05 ;     C2 - HX    
  1817   1819   1    1.5350e-01    2.5363e+05 ;     C2 - C3    
  1817   1846   1    1.4390e-01    2.5230e+05 ;     C2 - O21   
  1819   1820   1    1.0930e-01    2.8108e+05 ;     C3 - HA    
  1819   1821   1    1.0930e-01    2.8108e+05 ;     C3 - HB    
  1819   1822   1    1.4390e-01    2.5230e+05 ;     C3 - O31   
  1822   1823   1    1.6100e-01    1.9246e+05 ;    O31 - P31   
  1823   1824   1    1.6100e-01    1.9246e+05 ;    P31 - O32   
  1823   1844   1    1.4800e-01    4.3932e+05 ;    P31 - O33   
  1823   1845   1    1.4800e-01    4.3932e+05 ;    P31 - O34   
  1824   1825   1    1.4390e-01    2.5230e+05 ;    O32 - C31   
  1825   1826   1    1.0930e-01    2.8108e+05 ;    C31 - H1A   
  1825   1827   1    1.0930e-01    2.8108e+05 ;    C31 - H1B   
  1825   1828   1    1.5350e-01    2.5363e+05 ;    C31 - C32   
  1828   1829   1    1.0910e-01    2.8342e+05 ;    C32 - H2A   
  1828   1830   1    1.0910e-01    2.8342e+05 ;    C32 - H2B   
  1828   1831   1    1.4990e-01    2.4568e+05 ;    C32 - N31   
  1831   1832   1    1.4990e-01    2.4568e+05 ;    N31 - C33   
  1831   1836   1    1.4990e-01    2.4568e+05 ;    N31 - C34   
  1831   1840   1    1.4990e-01    2.4568e+05 ;    N31 - C35   
  1832   1833   1    1.0910e-01    2.8342e+05 ;    C33 - H3A   
  1832   1834   1    1.0910e-01    2.8342e+05 ;    C33 - H3B   
  1832   1835   1    1.0910e-01    2.8342e+05 ;    C33 - H3C   
  1836   1837   1    1.0910e-01    2.8342e+05 ;    C34 - H4A   
  1836   1838   1    1.0910e-01    2.8342e+05 ;    C34 - H4B   
  1836   1839   1    1.0910e-01    2.8342e+05 ;    C34 - H4C   
  1840   1841   1    1.0910e-01    2.8342e+05 ;    C35 - H5A   
  1840   1842   1    1.0910e-01    2.8342e+05 ;    C35 - H5B   
  1840   1843   1    1.0910e-01    2.8342e+05 ;    C35 - H5C   
  1846   1847   1    1.3430e-01    3.4418e+05 ;    O21 - C21   
  1847   1848   1    1.2140e-01    5.4225e+05 ;    C21 - O22   
  1847   1886   1    1.5080e-01    2.7472e+05 ;    C21 - C12   
  1849   1850   1    1.0920e-01    2.8225e+05 ;   H14T - C114  
  1850   1851   1    1.0920e-01    2.8225e+05 ;   C114 - H14R  
  1850   1852   1    1.0920e-01    2.8225e+05 ;   C114 - H14S  
  1850   1853   1    1.5350e-01    2.5363e+05 ;   C114 - C113  
  1853   1854   1    1.0920e-01    2.8225e+05 ;   C113 - H13R  
  1853   1855   1    1.0920e-01    2.8225e+05 ;   C113 - H13S  
  1853   1856   1    1.5350e-01    2.5363e+05 ;   C113 - C112  
  1856   1857   1    1.0920e-01    2.8225e+05 ;   C112 - H12R  
  1856   1858   1    1.0920e-01    2.8225e+05 ;   C112 - H12S  
  1856   1859   1    1.5350e-01    2.5363e+05 ;   C112 - C111  
  1859   1860   1    1.0920e-01    2.8225e+05 ;   C111 - H11R  
  1859   1861   1    1.0920e-01    2.8225e+05 ;   C111 - H11S  
  1859   1862   1    1.5350e-01    2.5363e+05 ;   C111 - C110  
  1862   1863   1    1.0920e-01    2.8225e+05 ;   C110 - H10R  
  1862   1864   1    1.0920e-01    2.8225e+05 ;   C110 - H10S  
  1862   1865   1    1.5350e-01    2.5363e+05 ;   C110 - C19   
  1865   1866   1    1.0920e-01    2.8225e+05 ;    C19 - H9R   
  1865   1867   1    1.0920e-01    2.8225e+05 ;    C19 - H9S   
  1865   1868   1    1.5350e-01    2.5363e+05 ;    C19 - C18   
  1868   1869   1    1.0920e-01    2.8225e+05 ;    C18 - H8R   
  1868   1870   1    1.0920e-01    2.8225e+05 ;    C18 - H8S   
  1868   1871   1    1.5350e-01    2.5363e+05 ;    C18 - C17   
  1871   1872   1    1.0920e-01    2.8225e+05 ;    C17 - H7R   
  1871   1873   1    1.0920e-01    2.8225e+05 ;    C17 - H7S   
  1871   1874   1    1.5350e-01    2.5363e+05 ;    C17 - C16   
  1874   1875   1    1.0920e-01    2.8225e+05 ;    C16 - H6R   
  1874   1876   1    1.0920e-01    2.8225e+05 ;    C16 - H6S   
  1874   1877   1    1.5350e-01    2.5363e+05 ;    C16 - C15   
  1877   1878   1    1.0920e-01    2.8225e+05 ;    C15 - H5R   
  1877   1879   1    1.0920e-01    2.8225e+05 ;    C15 - H5S   
  1877   1880   1    1.5350e-01    2.5363e+05 ;    C15 - C14   
  1880   1881   1    1.0920e-01    2.8225e+05 ;    C14 - H4R   
  1880   1882   1    1.0920e-01    2.8225e+05 ;    C14 - H4S   
  1880   1883   1    1.5350e-01    2.5363e+05 ;    C14 - C13   
  1883   1884   1    1.0920e-01    2.8225e+05 ;    C13 - H3R   
  1883   1885   1    1.0920e-01    2.8225e+05 ;    C13 - H3S   
  1883   1886   1    1.5350e-01    2.5363e+05 ;    C13 - C12   
  1886   1887   1    1.0920e-01    2.8225e+05 ;    C12 - H2R   
  1886   1888   1    1.0920e-01    2.8225e+05 ;    C12 - H2S   
  1889   1890   1    1.0920e-01    2.8225e+05 ;   H14T - C114  
  1890   1891   1    1.0920e-01    2.8225e+05 ;   C114 - H14R  
  1890   1892   1    1.0920e-01    2.8225e+05 ;   C114 - H14S  
  1890   1893   1    1.5350e-01    2.5363e+05 ;   C114 - C113  
  1893   1894   1    1.0920e-01    2.8225e+05 ;   C113 - H13R  
  1893   1895   1    1.0920e-01    2.8225e+05 ;   C113 - H13S  
  1893   1896   1    1.5350e-01    2.5363e+05 ;   C113 - C112  
  1896   1897   1    1.0920e-01    2.8225e+05 ;   C112 - H12R  
  1896   1898   1    1.0920e-01    2.8225e+05 ;   C112 - H12S  
  1896   1899   1    1.5350e-01    2.5363e+05 ;   C112 - C111  
  1899   1900   1    1.0920e-01    2.8225e+05 ;   C111 - H11R  
  1899   1901   1    1.0920e-01    2.8225e+05 ;   C111 - H11S  
  1899   1902   1    1.5350e-01    2.5363e+05 ;   C111 - C110  
  1902   1903   1    1.0920e-01    2.8225e+05 ;   C110 - H10R  
  1902   1904   1    1.0920e-01    2.8225e+05 ;   C110 - H10S  
  1902   1905   1    1.5350e-01    2.5363e+05 ;   C110 - C19   
  1905   1906   1    1.0920e-01    2.8225e+05 ;    C19 - H9R   
  1905   1907   1    1.0920e-01    2.8225e+05 ;    C19 - H9S   
  1905   1908   1    1.5350e-01    2.5363e+05 ;    C19 - C18   
  1908   1909   1    1.0920e-01    2.8225e+05 ;    C18 - H8R   
  1908   1910   1    1.0920e-01    2.8225e+05 ;    C18 - H8S   
  1908   1911   1    1.5350e-01    2.5363e+05 ;    C18 - C17   
  1911   1912   1    1.0920e-01    2.8225e+05 ;    C17 - H7R   
  1911   1913   1    1.0920e-01    2.8225e+05 ;    C17 - H7S   
  1911   1914   1    1.5350e-01    2.5363e+05 ;    C17 - C16   
  1914   1915   1    1.0920e-01    2.8225e+05 ;    C16 - H6R   
  1914   1916   1    1.0920e-01    2.8225e+05 ;    C16 - H6S   
  1914   1917   1    1.5350e-01    2.5363e+05 ;    C16 - C15   
  1917   1918   1    1.0920e-01    2.8225e+05 ;    C15 - H5R   
  1917   1919   1    1.0920e-01    2.8225e+05 ;    C15 - H5S   
  1917   1920   1    1.5350e-01    2.5363e+05 ;    C15 - C14   
  1920   1921   1    1.0920e-01    2.8225e+05 ;    C14 - H4R   
  1920   1922   1    1.0920e-01    2.8225e+05 ;    C14 - H4S   
  1920   1923   1    1.5350e-01    2.5363e+05 ;    C14 - C13   
  1923   1924   1    1.0920e-01    2.8225e+05 ;    C13 - H3R   
  1923   1925   1    1.0920e-01    2.8225e+05 ;    C13 - H3S   
  1923   1926   1    1.5350e-01    2.5363e+05 ;    C13 - C12   
  1926   1927   1    1.0920e-01    2.8225e+05 ;    C12 - H2R   
  1926   1928   1    1.0920e-01    2.8225e+05 ;    C12 - H2S   
  1926   1929   1    1.5080e-01    2.7472e+05 ;    C12 - C11   
  1929   1930   1    1.2140e-01    5.4225e+05 ;    C11 - O12   
  1929   1931   1    1.3430e-01    3.4418e+05 ;    C11 - O11   
  1931   1932   1    1.4390e-01    2.5230e+05 ;    O11 - C1    
  1932   1933   1    1.0930e-01    2.8108e+05 ;     C1 - HR    
  1932   1934   1    1.0930e-01    2.8108e+05 ;     C1 - HS    
  1932   1935   1    1.5350e-01    2.5363e+05 ;     C1 - C2    
  1935   1936   1    1.0930e-01    2.8108e+05 ;     C2 - HX    
  1935   1937   1    1.5350e-01    2.5363e+05 ;     C2 - C3    
  1935   1964   1    1.4390e-01    2.5230e+05 ;     C2 - O21   
  1937   1938   1    1.0930e-01    2.8108e+05 ;     C3 - HA    
  1937   1939   1    1.0930e-01    2.8108e+05 ;     C3 - HB    
  1937   1940   1    1.4390e-01    2.5230e+05 ;     C3 - O31   
  1940   1941   1    1.6100e-01    1.9246e+05 ;    O31 - P31   
  1941   1942   1    1.6100e-01    1.9246e+05 ;    P31 - O32   
  1941   1962   1    1.4800e-01    4.3932e+05 ;    P31 - O33   
  1941   1963   1    1.4800e-01    4.3932e+05 ;    P31 - O34   
  1942   1943   1    1.4390e-01    2.5230e+05 ;    O32 - C31   
  1943   1944   1    1.0930e-01    2.8108e+05 ;    C31 - H1A   
  1943   1945   1    1.0930e-01    2.8108e+05 ;    C31 - H1B   
  1943   1946   1    1.5350e-01    2.5363e+05 ;    C31 - C32   
  1946   1947   1    1.0910e-01    2.8342e+05 ;    C32 - H2A   
  1946   1948   1    1.0910e-01    2.8342e+05 ;    C32 - H2B   
  1946   1949   1    1.4990e-01    2.4568e+05 ;    C32 - N31   
  1949   1950   1    1.4990e-01    2.4568e+05 ;    N31 - C33   
  1949   1954   1    1.4990e-01    2.4568e+05 ;    N31 - C34   
  1949   1958   1    1.4990e-01    2.4568e+05 ;    N31 - C35   
  1950   1951   1    1.0910e-01    2.8342e+05 ;    C33 - H3A   
  1950   1952   1    1.0910e-01    2.8342e+05 ;    C33 - H3B   
  1950   1953   1    1.0910e-01    2.8342e+05 ;    C33 - H3C   
  1954   1955   1    1.0910e-01    2.8342e+05 ;    C34 - H4A   
  1954   1956   1    1.0910e-01    2.8342e+05 ;    C34 - H4B   
  1954   1957   1    1.0910e-01    2.8342e+05 ;    C34 - H4C   
  1958   1959   1    1.0910e-01    2.8342e+05 ;    C35 - H5A   
  1958   1960   1    1.0910e-01    2.8342e+05 ;    C35 - H5B   
  1958   1961   1    1.0910e-01    2.8342e+05 ;    C35 - H5C   
  1964   1965   1    1.3430e-01    3.4418e+05 ;    O21 - C21   
  1965   1966   1    1.2140e-01    5.4225e+05 ;    C21 - O22   
  1965   2004   1    1.5080e-01    2.7472e+05 ;    C21 - C12   
  1967   1968   1    1.0920e-01    2.8225e+05 ;   H14T - C114  
  1968   1969   1    1.0920e-01    2.8225e+05 ;   C114 - H14R  
  1968   1970   1    1.0920e-01    2.8225e+05 ;   C114 - H14S  
  1968   1971   1    1.5350e-01    2.5363e+05 ;   C114 - C113  
  1971   1972   1    1.0920e-01    2.8225e+05 ;   C113 - H13R  
  1971   1973   1    1.0920e-01    2.8225e+05 ;   C113 - H13S  
  1971   1974   1    1.5350e-01    2.5363e+05 ;   C113 - C112  
  1974   1975   1    1.0920e-01    2.8225e+05 ;   C112 - H12R  
  1974   1976   1    1.0920e-01    2.8225e+05 ;   C112 - H12S  
  1974   1977   1    1.5350e-01    2.5363e+05 ;   C112 - C111  
  1977   1978   1    1.0920e-01    2.8225e+05 ;   C111 - H11R  
  1977   1979   1    1.0920e-01    2.8225e+05 ;   C111 - H11S  
  1977   1980   1    1.5350e-01    2.5363e+05 ;   C111 - C110  
  1980   1981   1    1.0920e-01    2.8225e+05 ;   C110 - H10R  
  1980   1982   1    1.0920e-01    2.8225e+05 ;   C110 - H10S  
  1980   1983   1    1.5350e-01    2.5363e+05 ;   C110 - C19   
  1983   1984   1    1.0920e-01    2.8225e+05 ;    C19 - H9R   
  1983   1985   1    1.0920e-01    2.8225e+05 ;    C19 - H9S   
  1983   1986   1    1.5350e-01    2.5363e+05 ;    C19 - C18   
  1986   1987   1    1.0920e-01    2.8225e+05 ;    C18 - H8R   
  1986   1988   1    1.0920e-01    2.8225e+05 ;    C18 - H8S   
  1986   1989   1    1.5350e-01    2.5363e+05 ;    C18 - C17   
  1989   1990   1    1.0920e-01    2.8225e+05 ;    C17 - H7R   
  1989   1991   1    1.0920e-01    2.8225e+05 ;    C17 - H7S   
  1989   1992   1    1.5350e-01    2.5363e+05 ;    C17 - C16   
  1992   1993   1    1.0920e-01    2.8225e+05 ;    C16 - H6R   
  1992   1994   1    1.0920e-01    2.8225e+05 ;    C16 - H6S   
  1992   1995   1    1.5350e-01    2.5363e+05 ;    C16 - C15   
  1995   1996   1    1.0920e-01    2.8225e+05 ;    C15 - H5R   
  1995   1997   1    1.0920e-01    2.8225e+05 ;    C15 - H5S   
  1995   1998   1    1.5350e-01    2.5363e+05 ;    C15 - C14   
  1998   1999   1    1.0920e-01    2.8225e+05 ;    C14 - H4R   
  1998   2000   1    1.0920e-01    2.8225e+05 ;    C14 - H4S   
  1998   2001   1    1.5350e-01    2.5363e+05 ;    C14 - C13   
  2001   2002   1    1.0920e-01    2.8225e+05 ;    C13 - H3R   
  2001   2003   1    1.0920e-01    2.8225e+05 ;    C13 - H3S   
  2001   2004   1    1.5350e-01    2.5363e+05 ;    C13 - C12   
  2004   2005   1    1.0920e-01    2.8225e+05 ;    C12 - H2R   
  2004   2006   1    1.0920e-01    2.8225e+05 ;    C12 - H2S   
  2007   2008   1    1.0920e-01    2.8225e+05 ;   H14T - C114  
  2008   2009   1    1.0920e-01    2.8225e+05 ;   C114 - H14R  
  2008   2010   1    1.0920e-01    2.8225e+05 ;   C114 - H14S  
  2008   2011   1    1.5350e-01    2.5363e+05 ;   C114 - C113  
  2011   2012   1    1.0920e-01    2.8225e+05 ;   C113 - H13R  
  2011   2013   1    1.0920e-01    2.8225e+05 ;   C113 - H13S  
  2011   2014   1    1.5350e-01    2.5363e+05 ;   C113 - C112  
  2014   2015   1    1.0920e-01    2.8225e+05 ;   C112 - H12R  
  2014   2016   1    1.0920e-01    2.8225e+05 ;   C112 - H12S  
  2014   2017   1    1.5350e-01    2.5363e+05 ;   C112 - C111  
  2017   2018   1    1.0920e-01    2.8225e+05 ;   C111 - H11R  
  2017   2019   1    1.0920e-01    2.8225e+05 ;   C111 - H11S  
  2017   2020   1    1.5350e-01    2.5363e+05 ;   C111 - C110  
  2020   2021   1    1.0920e-01    2.8225e+05 ;   C110 - H10R  
  2020   2022   1    1.0920e-01    2.8225e+05 ;   C110 - H10S  
  2020   2023   1    1.5350e-01    2.5363e+05 ;   C110 - C19   
  2023   2024   1    1.0920e-01    2.8225e+05 ;    C19 - H9R   
  2023   2025   1    1.0920e-01    2.8225e+05 ;    C19 - H9S   
  2023   2026   1    1.5350e-01    2.5363e+05 ;    C19 - C18   
  2026   2027   1    1.0920e-01    2.8225e+05 ;    C18 - H8R   
  2026   2028   1    1.0920e-01    2.8225e+05 ;    C18 - H8S   
  2026   2029   1    1.5350e-01    2.5363e+05 ;    C18 - C17   
  2029   2030   1    1.0920e-01    2.8225e+05 ;    C17 - H7R   
  2029   2031   1    1.0920e-01    2.8225e+05 ;    C17 - H7S   
  2029   2032   1    1.5350e-01    2.5363e+05 ;    C17 - C16   
  2032   2033   1    1.0920e-01    2.8225e+05 ;    C16 - H6R   
  2032   2034   1    1.0920e-01    2.8225e+05 ;    C16 - H6S   
  2032   2035   1    1.5350e-01    2.5363e+05 ;    C16 - C15   
  2035   2036   1    1.0920e-01    2.8225e+05 ;    C15 - H5R   
  2035   2037   1    1.0920e-01    2.8225e+05 ;    C15 - H5S   
  2035   2038   1    1.5350e-01    2.5363e+05 ;    C15 - C14   
  2038   2039   1    1.0920e-01    2.8225e+05 ;    C14 - H4R   
  2038   2040   1    1.0920e-01    2.8225e+05 ;    C14 - H4S   
  2038   2041   1    1.5350e-01    2.5363e+05 ;    C14 - C13   
  2041   2042   1    1.0920e-01    2.8225e+05 ;    C13 - H3R   
  2041   2043   1    1.0920e-01    2.8225e+05 ;    C13 - H3S   
  2041   2044   1    1.5350e-01    2.5363e+05 ;    C13 - C12   
  2044   2045   1    1.0920e-01    2.8225e+05 ;    C12 - H2R   
  2044   2046   1    1.0920e-01    2.8225e+05 ;    C12 - H2S   
  2044   2047   1    1.5080e-01    2.7472e+05 ;    C12 - C11   
  2047   2048   1    1.2140e-01    5.4225e+05 ;    C11 - O12   
  2047   2049   1    1.3430e-01    3.4418e+05 ;    C11 - O11   
  2049   2050   1    1.4390e-01    2.5230e+05 ;    O11 - C1    
  2050   2051   1    1.0930e-01    2.8108e+05 ;     C1 - HR    
  2050   2052   1    1.0930e-01    2.8108e+05 ;     C1 - HS    
  2050   2053   1    1.5350e-01    2.5363e+05 ;     C1 - C2    
  2053   2054   1    1.0930e-01    2.8108e+05 ;     C2 - HX    
  2053   2055   1    1.5350e-01    2.5363e+05 ;     C2 - C3    
  2053   2082   1    1.4390e-01    2.5230e+05 ;     C2 - O21   
  2055   2056   1    1.0930e-01    2.8108e+05 ;     C3 - HA    
  2055   2057   1    1.0930e-01    2.8108e+05 ;     C3 - HB    
  2055   2058   1    1.4390e-01    2.5230e+05 ;     C3 - O31   
  2058   2059   1    1.6100e-01    1.9246e+05 ;    O31 - P31   
  2059   2060   1    1.6100e-01    1.9246e+05 ;    P31 - O32   
  2059   2080   1    1.4800e-01    4.3932e+05 ;    P31 - O33   
  2059   2081   1    1.4800e-01    4.3932e+05 ;    P31 - O34   
  2060   2061   1    1.4390e-01    2.5230e+05 ;    O32 - C31   
  2061   2062   1    1.0930e-01    2.8108e+05 ;    C31 - H1A   
  2061   2063   1    1.0930e-01    2.8108e+05 ;    C31 - H1B   
  2061   2064   1    1.5350e-01    2.5363e+05 ;    C31 - C32   
  2064   2065   1    1.0910e-01    2.8342e+05 ;    C32 - H2A   
  2064   2066   1    1.0910e-01    2.8342e+05 ;    C32 - H2B   
  2064   2067   1    1.4990e-01    2.4568e+05 ;    C32 - N31   
  2067   2068   1    1.4990e-01    2.4568e+05 ;    N31 - C33   
  2067   2072   1    1.4990e-01    2.4568e+05 ;    N31 - C34   
  2067   2076   1    1.4990e-01    2.4568e+05 ;    N31 - C35   
  2068   2069   1    1.0910e-01    2.8342e+05 ;    C33 - H3A   
  2068   2070   1    1.0910e-01    2.8342e+05 ;    C33 - H3B   
  2068   2071   1    1.0910e-01    2.8342e+05 ;    C33 - H3C   
  2072   2073   1    1.0910e-01    2.8342e+05 ;    C34 - H4A   
  2072   2074   1    1.0910e-01    2.8342e+05 ;    C34 - H4B   
  2072   2075   1    1.0910e-01    2.8342e+05 ;    C34 - H4C   
  2076   2077   1    1.0910e-01    2.8342e+05 ;    C35 - H5A   
  2076   2078   1    1.0910e-01    2.8342e+05 ;    C35 - H5B   
  2076   2079   1    1.0910e-01    2.8342e+05 ;    C35 - H5C   
  2082   2083   1    1.3430e-01    3.4418e+05 ;    O21 - C21   
  2083   2084   1    1.2140e-01    5.4225e+05 ;    C21 - O22   
  2083   2122   1    1.5080e-01    2.7472e+05 ;    C21 - C12   
  2085   2086   1    1.0920e-01    2.8225e+05 ;   H14T - C114  
  2086   2087   1    1.0920e-01    2.8225e+05 ;   C114 - H14R  
  2086   2088   1    1.0920e-01    2.8225e+05 ;   C114 - H14S  
  2086   2089   1    1.5350e-01    2.5363e+05 ;   C114 - C113  
  2089   2090   1    1.0920e-01    2.8225e+05 ;   C113 - H13R  
  2089   2091   1    1.0920e-01    2.8225e+05 ;   C113 - H13S  
  2089   2092   1    1.5350e-01    2.5363e+05 ;   C113 - C112  
  2092   2093   1    1.0920e-01    2.8225e+05 ;   C112 - H12R  
  2092   2094   1    1.0920e-01    2.8225e+05 ;   C112 - H12S  
  2092   2095   1    1.5350e-01    2.5363e+05 ;   C112 - C111  
  2095   2096   1    1.0920e-01    2.8225e+05 ;   C111 - H11R  
  2095   2097   1    1.0920e-01    2.8225e+05 ;   C111 - H11S  
  2095   2098   1    1.5350e-01    2.5363e+05 ;   C111 - C110  
  2098   2099   1    1.0920e-01    2.8225e+05 ;   C110 - H10R  
  2098   2100   1    1.0920e-01    2.8225e+05 ;   C110 - H10S  
  2098   2101   1    1.5350e-01    2.5363e+05 ;   C110 - C19   
  2101   2102   1    1.0920e-01    2.8225e+05 ;    C19 - H9R   
  2101   2103   1    1.0920e-01    2.8225e+05 ;    C19 - H9S   
  2101   2104   1    1.5350e-01    2.5363e+05 ;    C19 - C18   
  2104   2105   1    1.0920e-01    2.8225e+05 ;    C18 - H8R   
  2104   2106   1    1.0920e-01    2.8225e+05 ;    C18 - H8S   
  2104   2107   1    1.5350e-01    2.5363e+05 ;    C18 - C17   
  2107   2108   1    1.0920e-01    2.8225e+05 ;    C17 - H7R   
  2107   2109   1    1.0920e-01    2.8225e+05 ;    C17 - H7S   
  2107   2110   1    1.5350e-01    2.5363e+05 ;    C17 - C16   
  2110   2111   1    1.0920e-01    2.8225e+05 ;    C16 - H6R   
  2110   2112   1    1.0920e-01    2.8225e+05 ;    C16 - H6S   
  2110   2113   1    1.5350e-01    2.5363e+05 ;    C16 - C15   
  2113   2114   1    1.0920e-01    2.8225e+05 ;    C15 - H5R   
  2113   2115   1    1.0920e-01    2.8225e+05 ;    C15 - H5S   
  2113   2116   1    1.5350e-01    2.5363e+05 ;    C15 - C14   
  2116   2117   1    1.0920e-01    2.8225e+05 ;    C14 - H4R   
  2116   2118   1    1.0920e-01    2.8225e+05 ;    C14 - H4S   
  2116   2119   1    1.5350e-01    2.5363e+05 ;    C14 - C13   
  2119   2120   1    1.0920e-01    2.8225e+05 ;    C13 - H3R   
  2119   2121   1    1.0920e-01    2.8225e+05 ;    C13 - H3S   
  2119   2122   1    1.5350e-01    2.5363e+05 ;    C13 - C12   
  2122   2123   1    1.0920e-01    2.8225e+05 ;    C12 - H2R   
  2122   2124   1    1.0920e-01    2.8225e+05 ;    C12 - H2S   
  2125   2126   1    1.0920e-01    2.8225e+05 ;   H14T - C114  
  2126   2127   1    1.0920e-01    2.8225e+05 ;   C114 - H14R  
  2126   2128   1    1.0920e-01    2.8225e+05 ;   C114 - H14S  
  2126   2129   1    1.5350e-01    2.5363e+05 ;   C114 - C113  
  2129   2130   1    1.0920e-01    2.8225e+05 ;   C113 - H13R  
  2129   2131   1    1.0920e-01    2.8225e+05 ;   C113 - H13S  
  2129   2132   1    1.5350e-01    2.5363e+05 ;   C113 - C112  
  2132   2133   1    1.0920e-01    2.8225e+05 ;   C112 - H12R  
  2132   2134   1    1.0920e-01    2.8225e+05 ;   C112 - H12S  
  2132   2135   1    1.5350e-01    2.5363e+05 ;   C112 - C111  
  2135   2136   1    1.0920e-01    2.8225e+05 ;   C111 - H11R  
  2135   2137   1    1.0920e-01    2.8225e+05 ;   C111 - H11S  
  2135   2138   1    1.5350e-01    2.5363e+05 ;   C111 - C110  
  2138   2139   1    1.0920e-01    2.8225e+05 ;   C110 - H10R  
  2138   2140   1    1.0920e-01    2.8225e+05 ;   C110 - H10S  
  2138   2141   1    1.5350e-01    2.5363e+05 ;   C110 - C19   
  2141   2142   1    1.0920e-01    2.8225e+05 ;    C19 - H9R   
  2141   2143   1    1.0920e-01    2.8225e+05 ;    C19 - H9S   
  2141   2144   1    1.5350e-01    2.5363e+05 ;    C19 - C18   
  2144   2145   1    1.0920e-01    2.8225e+05 ;    C18 - H8R   
  2144   2146   1    1.0920e-01    2.8225e+05 ;    C18 - H8S   
  2144   2147   1    1.5350e-01    2.5363e+05 ;    C18 - C17   
  2147   2148   1    1.0920e-01    2.8225e+05 ;    C17 - H7R   
  2147   2149   1    1.0920e-01    2.8225e+05 ;    C17 - H7S   
  2147   2150   1    1.5350e-01    2.5363e+05 ;    C17 - C16   
  2150   2151   1    1.0920e-01    2.8225e+05 ;    C16 - H6R   
  2150   2152   1    1.0920e-01    2.8225e+05 ;    C16 - H6S   
  2150   2153   1    1.5350e-01    2.5363e+05 ;    C16 - C15   
  2153   2154   1    1.0920e-01    2.8225e+05 ;    C15 - H5R   
  2153   2155   1    1.0920e-01    2.8225e+05 ;    C15 - H5S   
  2153   2156   1    1.5350e-01    2.5363e+05 ;    C15 - C14   
  2156   2157   1    1.0920e-01    2.8225e+05 ;    C14 - H4R   
  2156   2158   1    1.0920e-01    2.8225e+05 ;    C14 - H4S   
  2156   2159   1    1.5350e-01    2.5363e+05 ;    C14 - C13   
  2159   2160   1    1.0920e-01    2.8225e+05 ;    C13 - H3R   
  2159   2161   1    1.0920e-01    2.8225e+05 ;    C13 - H3S   
  2159   2162   1    1.5350e-01    2.5363e+05 ;    C13 - C12   
  2162   2163   1    1.0920e-01    2.8225e+05 ;    C12 - H2R   
  2162   2164   1    1.0920e-01    2.8225e+05 ;    C12 - H2S   
  2162   2165   1    1.5080e-01    2.7472e+05 ;    C12 - C11   
  2165   2166   1    1.2140e-01    5.4225e+05 ;    C11 - O12   
  2165   2167   1    1.3430e-01    3.4418e+05 ;    C11 - O11   
  2167   2168   1    1.4390e-01    2.5230e+05 ;    O11 - C1    
  2168   2169   1    1.0930e-01    2.8108e+05 ;     C1 - HR    
  2168   2170   1    1.0930e-01    2.8108e+05 ;     C1 - HS    
  2168   2171   1    1.5350e-01    2.5363e+05 ;     C1 - C2    
  2171   2172   1    1.0930e-01    2.8108e+05 ;     C2 - HX    
  2171   2173   1    1.5350e-01    2.5363e+05 ;     C2 - C3    
  2171   2200   1    1.4390e-01    2.5230e+05 ;     C2 - O21   
  2173   2174   1    1.0930e-01    2.8108e+05 ;     C3 - HA    
  2173   2175   1    1.0930e-01    2.8108e+05 ;     C3 - HB    
  2173   2176   1    1.4390e-01    2.5230e+05 ;     C3 - O31   
  2176   2177   1    1.6100e-01    1.9246e+05 ;    O31 - P31   
  2177   2178   1    1.6100e-01    1.9246e+05 ;    P31 - O32   
  2177   2198   1    1.4800e-01    4.3932e+05 ;    P31 - O33   
  2177   2199   1    1.4800e-01    4.3932e+05 ;    P31 - O34   
  2178   2179   1    1.4390e-01    2.5230e+05 ;    O32 - C31   
  2179   2180   1    1.0930e-01    2.8108e+05 ;    C31 - H1A   
  2179   2181   1    1.0930e-01    2.8108e+05 ;    C31 - H1B   
  2179   2182   1    1.5350e-01    2.5363e+05 ;    C31 - C32   
  2182   2183   1    1.0910e-01    2.8342e+05 ;    C32 - H2A   
  2182   2184   1    1.0910e-01    2.8342e+05 ;    C32 - H2B   
  2182   2185   1    1.4990e-01    2.4568e+05 ;    C32 - N31   
  2185   2186   1    1.4990e-01    2.4568e+05 ;    N31 - C33   
  2185   2190   1    1.4990e-01    2.4568e+05 ;    N31 - C34   
  2185   2194   1    1.4990e-01    2.4568e+05 ;    N31 - C35   
  2186   2187   1    1.0910e-01    2.8342e+05 ;    C33 - H3A   
  2186   2188   1    1.0910e-01    2.8342e+05 ;    C33 - H3B   
  2186   2189   1    1.0910e-01    2.8342e+05 ;    C33 - H3C   
  2190   2191   1    1.0910e-01    2.8342e+05 ;    C34 - H4A   
  2190   2192   1    1.0910e-01    2.8342e+05 ;    C34 - H4B   
  2190   2193   1    1.0910e-01    2.8342e+05 ;    C34 - H4C   
  2194   2195   1    1.0910e-01    2.8342e+05 ;    C35 - H5A   
  2194   2196   1    1.0910e-01    2.8342e+05 ;    C35 - H5B   
  2194   2197   1    1.0910e-01    2.8342e+05 ;    C35 - H5C   
  2200   2201   1    1.3430e-01    3.4418e+05 ;    O21 - C21   
  2201   2202   1    1.2140e-01    5.4225e+05 ;    C21 - O22   
  2201   2240   1    1.5080e-01    2.7472e+05 ;    C21 - C12   
  2203   2204   1    1.0920e-01    2.8225e+05 ;   H14T - C114  
  2204   2205   1    1.0920e-01    2.8225e+05 ;   C114 - H14R  
  2204   2206   1    1.0920e-01    2.8225e+05 ;   C114 - H14S  
  2204   2207   1    1.5350e-01    2.5363e+05 ;   C114 - C113  
  2207   2208   1    1.0920e-01    2.8225e+05 ;   C113 - H13R  
  2207   2209   1    1.0920e-01    2.8225e+05 ;   C113 - H13S  
  2207   2210   1    1.5350e-01    2.5363e+05 ;   C113 - C112  
  2210   2211   1    1.0920e-01    2.8225e+05 ;   C112 - H12R  
  2210   2212   1    1.0920e-01    2.8225e+05 ;   C112 - H12S  
  2210   2213   1    1.5350e-01    2.5363e+05 ;   C112 - C111  
  2213   2214   1    1.0920e-01    2.8225e+05 ;   C111 - H11R  
  2213   2215   1    1.0920e-01    2.8225e+05 ;   C111 - H11S  
  2213   2216   1    1.5350e-01    2.5363e+05 ;   C111 - C110  
  2216   2217   1    1.0920e-01    2.8225e+05 ;   C110 - H10R  
  2216   2218   1    1.0920e-01    2.8225e+05 ;   C110 - H10S  
  2216   2219   1    1.5350e-01    2.5363e+05 ;   C110 - C19   
  2219   2220   1    1.0920e-01    2.8225e+05 ;    C19 - H9R   
  2219   2221   1    1.0920e-01    2.8225e+05 ;    C19 - H9S   
  2219   2222   1    1.5350e-01    2.5363e+05 ;    C19 - C18   
  2222   2223   1    1.0920e-01    2.8225e+05 ;    C18 - H8R   
  2222   2224   1    1.0920e-01    2.8225e+05 ;    C18 - H8S   
  2222   2225   1    1.5350e-01    2.5363e+05 ;    C18 - C17   
  2225   2226   1    1.0920e-01    2.8225e+05 ;    C17 - H7R   
  2225   2227   1    1.0920e-01    2.8225e+05 ;    C17 - H7S   
  2225   2228   1    1.5350e-01    2.5363e+05 ;    C17 - C16   
  2228   2229   1    1.0920e-01    2.8225e+05 ;    C16 - H6R   
  2228   2230   1    1.0920e-01    2.8225e+05 ;    C16 - H6S   
  2228   2231   1    1.5350e-01    2.5363e+05 ;    C16 - C15   
  2231   2232   1    1.0920e-01    2.8225e+05 ;    C15 - H5R   
  2231   2233   1    1.0920e-01    2.8225e+05 ;    C15 - H5S   
  2231   2234   1    1.5350e-01    2.5363e+05 ;    C15 - C14   
  2234   2235   1    1.0920e-01    2.8225e+05 ;    C14 - H4R   
  2234   2236   1    1.0920e-01    2.8225e+05 ;    C14 - H4S   
  2234   2237   1    1.5350e-01    2.5363e+05 ;    C14 - C13   
  2237   2238   1    1.0920e-01    2.8225e+05 ;    C13 - H3R   
  2237   2239   1    1.0920e-01    2.8225e+05 ;    C13 - H3S   
  2237   2240   1    1.5350e-01    2.5363e+05 ;    C13 - C12   
  2240   2241   1    1.0920e-01    2.8225e+05 ;    C12 - H2R   
  2240   2242   1    1.0920e-01    2.8225e+05 ;    C12 - H2S   
  2243   2244   1    1.0920e-01    2.8225e+05 ;   H14T - C114  
  2244   2245   1    1.0920e-01    2.8225e+05 ;   C114 - H14R  
  2244   2246   1    1.0920e-01    2.8225e+05 ;   C114 - H14S  
  2244   2247   1    1.5350e-01    2.5363e+05 ;   C114 - C113  
  2247   2248   1    1.0920e-01    2.8225e+05 ;   C113 - H13R  
  2247   2249   1    1.0920e-01    2.8225e+05 ;   C113 - H13S  
  2247   2250   1    1.5350e-01    2.5363e+05 ;   C113 - C112  
  2250   2251   1    1.0920e-01    2.8225e+05 ;   C112 - H12R  
  2250   2252   1    1.0920e-01    2.8225e+05 ;   C112 - H12S  
  2250   2253   1    1.5350e-01    2.5363e+05 ;   C112 - C111  
  2253   2254   1    1.0920e-01    2.8225e+05 ;   C111 - H11R  
  2253   2255   1    1.0920e-01    2.8225e+05 ;   C111 - H11S  
  2253   2256   1    1.5350e-01    2.5363e+05 ;   C111 - C110  
  2256   2257   1    1.0920e-01    2.8225e+05 ;   C110 - H10R  
  2256   2258   1    1.0920e-01    2.8225e+05 ;   C110 - H10S  
  2256   2259   1    1.5350e-01    2.5363e+05 ;   C110 - C19   
  2259   2260   1    1.0920e-01    2.8225e+05 ;    C19 - H9R   
  2259   2261   1    1.0920e-01    2.8225e+05 ;    C19 - H9S   
  2259   2262   1    1.5350e-01    2.5363e+05 ;    C19 - C18   
  2262   2263   1    1.0920e-01    2.8225e+05 ;    C18 - H8R   
  2262   2264   1    1.0920e-01    2.8225e+05 ;    C18 - H8S   
  2262   2265   1    1.5350e-01    2.5363e+05 ;    C18 - C17   
  2265   2266   1    1.0920e-01    2.8225e+05 ;    C17 - H7R   
  2265   2267   1    1.0920e-01    2.8225e+05 ;    C17 - H7S   
  2265   2268   1    1.5350e-01    2.5363e+05 ;    C17 - C16   
  2268   2269   1    1.0920e-01    2.8225e+05 ;    C16 - H6R   
  2268   2270   1    1.0920e-01    2.8225e+05 ;    C16 - H6S   
  2268   2271   1    1.5350e-01    2.5363e+05 ;    C16 - C15   
  2271   2272   1    1.0920e-01    2.8225e+05 ;    C15 - H5R   
  2271   2273   1    1.0920e-01    2.8225e+05 ;    C15 - H5S   
  2271   2274   1    1.5350e-01    2.5363e+05 ;    C15 - C14   
  2274   2275   1    1.0920e-01    2.8225e+05 ;    C14 - H4R   
  2274   2276   1    1.0920e-01    2.8225e+05 ;    C14 - H4S   
  2274   2277   1    1.5350e-01    2.5363e+05 ;    C14 - C13   
  2277   2278   1    1.0920e-01    2.8225e+05 ;    C13 - H3R   
  2277   2279   1    1.0920e-01    2.8225e+05 ;    C13 - H3S   
  2277   2280   1    1.5350e-01    2.5363e+05 ;    C13 - C12   
  2280   2281   1    1.0920e-01    2.8225e+05 ;    C12 - H2R   
  2280   2282   1    1.0920e-01    2.8225e+05 ;    C12 - H2S   
  2280   2283   1    1.5080e-01    2.7472e+05 ;    C12 - C11   
  2283   2284   1    1.2140e-01    5.4225e+05 ;    C11 - O12   
  2283   2285   1    1.3430e-01    3.4418e+05 ;    C11 - O11   
  2285   2286   1    1.4390e-01    2.5230e+05 ;    O11 - C1    
  2286   2287   1    1.0930e-01    2.8108e+05 ;     C1 - HR    
  2286   2288   1    1.0930e-01    2.8108e+05 ;     C1 - HS    
  2286   2289   1    1.5350e-01    2.5363e+05 ;     C1 - C2    
  2289   2290   1    1.0930e-01    2.8108e+05 ;     C2 - HX    
  2289   2291   1    1.5350e-01    2.5363e+05 ;     C2 - C3    
  2289   2318   1    1.4390e-01    2.5230e+05 ;     C2 - O21   
  2291   2292   1    1.0930e-01    2.8108e+05 ;     C3 - HA    
  2291   2293   1    1.0930e-01    2.8108e+05 ;     C3 - HB    
  2291   2294   1    1.4390e-01    2.5230e+05 ;     C3 - O31   
  2294   2295   1    1.6100e-01    1.9246e+05 ;    O31 - P31   
  2295   2296   1    1.6100e-01    1.9246e+05 ;    P31 - O32   
  2295   2316   1    1.4800e-01    4.3932e+05 ;    P31 - O33   
  2295   2317   1    1.4800e-01    4.3932e+05 ;    P31 - O34   
  2296   2297   1    1.4390e-01    2.5230e+05 ;    O32 - C31   
  2297   2298   1    1.0930e-01    2.8108e+05 ;    C31 - H1A   
  2297   2299   1    1.0930e-01    2.8108e+05 ;    C31 - H1B   
  2297   2300   1    1.5350e-01    2.5363e+05 ;    C31 - C32   
  2300   2301   1    1.0910e-01    2.8342e+05 ;    C32 - H2A   
  2300   2302   1    1.0910e-01    2.8342e+05 ;    C32 - H2B   
  2300   2303   1    1.4990e-01    2.4568e+05 ;    C32 - N31   
  2303   2304   1    1.4990e-01    2.4568e+05 ;    N31 - C33   
  2303   2308   1    1.4990e-01    2.4568e+05 ;    N31 - C34   
  2303   2312   1    1.4990e-01    2.4568e+05 ;    N31 - C35   
  2304   2305   1    1.0910e-01    2.8342e+05 ;    C33 - H3A   
  2304   2306   1    1.0910e-01    2.8342e+05 ;    C33 - H3B   
  2304   2307   1    1.0910e-01    2.8342e+05 ;    C33 - H3C   
  2308   2309   1    1.0910e-01    2.8342e+05 ;    C34 - H4A   
  2308   2310   1    1.0910e-01    2.8342e+05 ;    C34 - H4B   
  2308   2311   1    1.0910e-01    2.8342e+05 ;    C34 - H4C   
  2312   2313   1    1.0910e-01    2.8342e+05 ;    C35 - H5A   
  2312   2314   1    1.0910e-01    2.8342e+05 ;    C35 - H5B   
  2312   2315   1    1.0910e-01    2.8342e+05 ;    C35 - H5C   
  2318   2319   1    1.3430e-01    3.4418e+05 ;    O21 - C21   
  2319   2320   1    1.2140e-01    5.4225e+05 ;    C21 - O22   
  2319   2358   1    1.5080e-01    2.7472e+05 ;    C21 - C12   
  2321   2322   1    1.0920e-01    2.8225e+05 ;   H14T - C114  
  2322   2323   1    1.0920e-01    2.8225e+05 ;   C114 - H14R  
  2322   2324   1    1.0920e-01    2.8225e+05 ;   C114 - H14S  
  2322   2325   1    1.5350e-01    2.5363e+05 ;   C114 - C113  
  2325   2326   1    1.0920e-01    2.8225e+05 ;   C113 - H13R  
  2325   2327   1    1.0920e-01    2.8225e+05 ;   C113 - H13S  
  2325   2328   1    1.5350e-01    2.5363e+05 ;   C113 - C112  
  2328   2329   1    1.0920e-01    2.8225e+05 ;   C112 - H12R  
  2328   2330   1    1.0920e-01    2.8225e+05 ;   C112 - H12S  
  2328   2331   1    1.5350e-01    2.5363e+05 ;   C112 - C111  
  2331   2332   1    1.0920e-01    2.8225e+05 ;   C111 - H11R  
  2331   2333   1    1.0920e-01    2.8225e+05 ;   C111 - H11S  
  2331   2334   1    1.5350e-01    2.5363e+05 ;   C111 - C110  
  2334   2335   1    1.0920e-01    2.8225e+05 ;   C110 - H10R  
  2334   2336   1    1.0920e-01    2.8225e+05 ;   C110 - H10S  
  2334   2337   1    1.5350e-01    2.5363e+05 ;   C110 - C19   
  2337   2338   1    1.0920e-01    2.8225e+05 ;    C19 - H9R   
  2337   2339   1    1.0920e-01    2.8225e+05 ;    C19 - H9S   
  2337   2340   1    1.5350e-01    2.5363e+05 ;    C19 - C18   
  2340   2341   1    1.0920e-01    2.8225e+05 ;    C18 - H8R   
  2340   2342   1    1.0920e-01    2.8225e+05 ;    C18 - H8S   
  2340   2343   1    1.5350e-01    2.5363e+05 ;    C18 - C17   
  2343   2344   1    1.0920e-01    2.8225e+05 ;    C17 - H7R   
  2343   2345   1    1.0920e-01    2.8225e+05 ;    C17 - H7S   
  2343   2346   1    1.5350e-01    2.5363e+05 ;    C17 - C16   
  2346   2347   1    1.0920e-01    2.8225e+05 ;    C16 - H6R   
  2346   2348   1    1.0920e-01    2.8225e+05 ;    C16 - H6S   
  2346   2349   1    1.5350e-01    2.5363e+05 ;    C16 - C15   
  2349   2350   1    1.0920e-01    2.8225e+05 ;    C15 - H5R   
  2349   2351   1    1.0920e-01    2.8225e+05 ;    C15 - H5S   
  2349   2352   1    1.5350e-01    2.5363e+05 ;    C15 - C14   
  2352   2353   1    1.0920e-01    2.8225e+05 ;    C14 - H4R   
  2352   2354   1    1.0920e-01    2.8225e+05 ;    C14 - H4S   
  2352   2355   1    1.5350e-01    2.5363e+05 ;    C14 - C13   
  2355   2356   1    1.0920e-01    2.8225e+05 ;    C13 - H3R   
  2355   2357   1    1.0920e-01    2.8225e+05 ;    C13 - H3S   
  2355   2358   1    1.5350e-01    2.5363e+05 ;    C13 - C12   
  2358   2359   1    1.0920e-01    2.8225e+05 ;    C12 - H2R   
  2358   2360   1    1.0920e-01    2.8225e+05 ;    C12 - H2S   
  2361   2362   1    1.0920e-01    2.8225e+05 ;   H14T - C114  
  2362   2363   1    1.0920e-01    2.8225e+05 ;   C114 - H14R  
  2362   2364   1    1.0920e-01    2.8225e+05 ;   C114 - H14S  
  2362   2365   1    1.5350e-01    2.5363e+05 ;   C114 - C113  
  2365   2366   1    1.0920e-01    2.8225e+05 ;   C113 - H13R  
  2365   2367   1    1.0920e-01    2.8225e+05 ;   C113 - H13S  
  2365   2368   1    1.5350e-01    2.5363e+05 ;   C113 - C112  
  2368   2369   1    1.0920e-01    2.8225e+05 ;   C112 - H12R  
  2368   2370   1    1.0920e-01    2.8225e+05 ;   C112 - H12S  
  2368   2371   1    1.5350e-01    2.5363e+05 ;   C112 - C111  
  2371   2372   1    1.0920e-01    2.8225e+05 ;   C111 - H11R  
  2371   2373   1    1.0920e-01    2.8225e+05 ;   C111 - H11S  
  2371   2374   1    1.5350e-01    2.5363e+05 ;   C111 - C110  
  2374   2375   1    1.0920e-01    2.8225e+05 ;   C110 - H10R  
  2374   2376   1    1.0920e-01    2.8225e+05 ;   C110 - H10S  
  2374   2377   1    1.5350e-01    2.5363e+05 ;   C110 - C19   
  2377   2378   1    1.0920e-01    2.8225e+05 ;    C19 - H9R   
  2377   2379   1    1.0920e-01    2.8225e+05 ;    C19 - H9S   
  2377   2380   1    1.5350e-01    2.5363e+05 ;    C19 - C18   
  2380   2381   1    1.0920e-01    2.8225e+05 ;    C18 - H8R   
  2380   2382   1    1.0920e-01    2.8225e+05 ;    C18 - H8S   
  2380   2383   1    1.5350e-01    2.5363e+05 ;    C18 - C17   
  2383   2384   1    1.0920e-01    2.8225e+05 ;    C17 - H7R   
  2383   2385   1    1.0920e-01    2.8225e+05 ;    C17 - H7S   
  2383   2386   1    1.5350e-01    2.5363e+05 ;    C17 - C16   
  2386   2387   1    1.0920e-01    2.8225e+05 ;    C16 - H6R   
  2386   2388   1    1.0920e-01    2.8225e+05 ;    C16 - H6S   
  2386   2389   1    1.5350e-01    2.5363e+05 ;    C16 - C15   
  2389   2390   1    1.0920e-01    2.8225e+05 ;    C15 - H5R   
  2389   2391   1    1.0920e-01    2.8225e+05 ;    C15 - H5S   
  2389   2392   1    1.5350e-01    2.5363e+05 ;    C15 - C14   
  2392   2393   1    1.0920e-01    2.8225e+05 ;    C14 - H4R   
  2392   2394   1    1.0920e-01    2.8225e+05 ;    C14 - H4S   
  2392   2395   1    1.5350e-01    2.5363e+05 ;    C14 - C13   
  2395   2396   1    1.0920e-01    2.8225e+05 ;    C13 - H3R   
  2395   2397   1    1.0920e-01    2.8225e+05 ;    C13 - H3S   
  2395   2398   1    1.5350e-01    2.5363e+05 ;    C13 - C12   
  2398   2399   1    1.0920e-01    2.8225e+05 ;    C12 - H2R   
  2398   2400   1    1.0920e-01    2.8225e+05 ;    C12 - H2S   
  2398   2401   1    1.5080e-01    2.7472e+05 ;    C12 - C11   
  2401   2402   1    1.2140e-01    5.4225e+05 ;    C11 - O12   
  2401   2403   1    1.3430e-01    3.4418e+05 ;    C11 - O11   
  2403   2404   1    1.4390e-01    2.5230e+05 ;    O11 - C1    
  2404   2405   1    1.0930e-01    2.8108e+05 ;     C1 - HR    
  2404   2406   1    1.0930e-01    2.8108e+05 ;     C1 - HS    
  2404   2407   1    1.5350e-01    2.5363e+05 ;     C1 - C2    
  2407   2408   1    1.0930e-01    2.8108e+05 ;     C2 - HX    
  2407   2409   1    1.5350e-01    2.5363e+05 ;     C2 - C3    
  2407   2436   1    1.4390e-01    2.5230e+05 ;     C2 - O21   
  2409   2410   1    1.0930e-01    2.8108e+05 ;     C3 - HA    
  2409   2411   1    1.0930e-01    2.8108e+05 ;     C3 - HB    
  2409   2412   1    1.4390e-01    2.5230e+05 ;     C3 - O31   
  2412   2413   1    1.6100e-01    1.9246e+05 ;    O31 - P31   
  2413   2414   1    1.6100e-01    1.9246e+05 ;    P31 - O32   
  2413   2434   1    1.4800e-01    4.3932e+05 ;    P31 - O33   
  2413   2435   1    1.4800e-01    4.3932e+05 ;    P31 - O34   
  2414   2415   1    1.4390e-01    2.5230e+05 ;    O32 - C31   
  2415   2416   1    1.0930e-01    2.8108e+05 ;    C31 - H1A   
  2415   2417   1    1.0930e-01    2.8108e+05 ;    C31 - H1B   
  2415   2418   1    1.5350e-01    2.5363e+05 ;    C31 - C32   
  2418   2419   1    1.0910e-01    2.8342e+05 ;    C32 - H2A   
  2418   2420   1    1.0910e-01    2.8342e+05 ;    C32 - H2B   
  2418   2421   1    1.4990e-01    2.4568e+05 ;    C32 - N31   
  2421   2422   1    1.4990e-01    2.4568e+05 ;    N31 - C33   
  2421   2426   1    1.4990e-01    2.4568e+05 ;    N31 - C34   
  2421   2430   1    1.4990e-01    2.4568e+05 ;    N31 - C35   
  2422   2423   1    1.0910e-01    2.8342e+05 ;    C33 - H3A   
  2422   2424   1    1.0910e-01    2.8342e+05 ;    C33 - H3B   
  2422   2425   1    1.0910e-01    2.8342e+05 ;    C33 - H3C   
  2426   2427   1    1.0910e-01    2.8342e+05 ;    C34 - H4A   
  2426   2428   1    1.0910e-01    2.8342e+05 ;    C34 - H4B   
  2426   2429   1    1.0910e-01    2.8342e+05 ;    C34 - H4C   
  2430   2431   1    1.0910e-01    2.8342e+05 ;    C35 - H5A   
  2430   2432   1    1.0910e-01    2.8342e+05 ;    C35 - H5B   
  2430   2433   1    1.0910e-01    2.8342e+05 ;    C35 - H5C   
  2436   2437   1    1.3430e-01    3.4418e+05 ;    O21 - C21   
  2437   2438   1    1.2140e-01    5.4225e+05 ;    C21 - O22   
  2437   2476   1    1.5080e-01    2.7472e+05 ;    C21 - C12   
  2439   2440   1    1.0920e-01    2.8225e+05 ;   H14T - C114  
  2440   2441   1    1.0920e-01    2.8225e+05 ;   C114 - H14R  
  2440   2442   1    1.0920e-01    2.8225e+05 ;   C114 - H14S  
  2440   2443   1    1.5350e-01    2.5363e+05 ;   C114 - C113  
  2443   2444   1    1.0920e-01    2.8225e+05 ;   C113 - H13R  
  2443   2445   1    1.0920e-01    2.8225e+05 ;   C113 - H13S  
  2443   2446   1    1.5350e-01    2.5363e+05 ;   C113 - C112  
  2446   2447   1    1.0920e-01    2.8225e+05 ;   C112 - H12R  
  2446   2448   1    1.0920e-01    2.8225e+05 ;   C112 - H12S  
  2446   2449   1    1.5350e-01    2.5363e+05 ;   C112 - C111  
  2449   2450   1    1.0920e-01    2.8225e+05 ;   C111 - H11R  
  2449   2451   1    1.0920e-01    2.8225e+05 ;   C111 - H11S  
  2449   2452   1    1.5350e-01    2.5363e+05 ;   C111 - C110  
  2452   2453   1    1.0920e-01    2.8225e+05 ;   C110 - H10R  
  2452   2454   1    1.0920e-01    2.8225e+05 ;   C110 - H10S  
  2452   2455   1    1.5350e-01    2.5363e+05 ;   C110 - C19   
  2455   2456   1    1.0920e-01    2.8225e+05 ;    C19 - H9R   
  2455   2457   1    1.0920e-01    2.8225e+05 ;    C19 - H9S   
  2455   2458   1    1.5350e-01    2.5363e+05 ;    C19 - C18   
  2458   2459   1    1.0920e-01    2.8225e+05 ;    C18 - H8R   
  2458   2460   1    1.0920e-01    2.8225e+05 ;    C18 - H8S   
  2458   2461   1    1.5350e-01    2.5363e+05 ;    C18 - C17   
  2461   2462   1    1.0920e-01    2.8225e+05 ;    C17 - H7R   
  2461   2463   1    1.0920e-01    2.8225e+05 ;    C17 - H7S   
  2461   2464   1    1.5350e-01    2.5363e+05 ;    C17 - C16   
  2464   2465   1    1.0920e-01    2.8225e+05 ;    C16 - H6R   
  2464   2466   1    1.0920e-01    2.8225e+05 ;    C16 - H6S   
  2464   2467   1    1.5350e-01    2.5363e+05 ;    C16 - C15   
  2467   2468   1    1.0920e-01    2.8225e+05 ;    C15 - H5R   
  2467   2469   1    1.0920e-01    2.8225e+05 ;    C15 - H5S   
  2467   2470   1    1.5350e-01    2.5363e+05 ;    C15 - C14   
  2470   2471   1    1.0920e-01    2.8225e+05 ;    C14 - H4R   
  2470   2472   1    1.0920e-01    2.8225e+05 ;    C14 - H4S   
  2470   2473   1    1.5350e-01    2.5363e+05 ;    C14 - C13   
  2473   2474   1    1.0920e-01    2.8225e+05 ;    C13 - H3R   
  2473   2475   1    1.0920e-01    2.8225e+05 ;    C13 - H3S   
  2473   2476   1    1.5350e-01    2.5363e+05 ;    C13 - C12   
  2476   2477   1    1.0920e-01    2.8225e+05 ;    C12 - H2R   
  2476   2478   1    1.0920e-01    2.8225e+05 ;    C12 - H2S   
  2479   2480   1    1.0920e-01    2.8225e+05 ;   H14T - C114  
  2480   2481   1    1.0920e-01    2.8225e+05 ;   C114 - H14R  
  2480   2482   1    1.0920e-01    2.8225e+05 ;   C114 - H14S  
  2480   2483   1    1.5350e-01    2.5363e+05 ;   C114 - C113  
  2483   2484   1    1.0920e-01    2.8225e+05 ;   C113 - H13R  
  2483   2485   1    1.0920e-01    2.8225e+05 ;   C113 - H13S  
  2483   2486   1    1.5350e-01    2.5363e+05 ;   C113 - C112  
  2486   2487   1    1.0920e-01    2.8225e+05 ;   C112 - H12R  
  2486   2488   1    1.0920e-01    2.8225e+05 ;   C112 - H12S  
  2486   2489   1    1.5350e-01    2.5363e+05 ;   C112 - C111  
  2489   2490   1    1.0920e-01    2.8225e+05 ;   C111 - H11R  
  2489   2491   1    1.0920e-01    2.8225e+05 ;   C111 - H11S  
  2489   2492   1    1.5350e-01    2.5363e+05 ;   C111 - C110  
  2492   2493   1    1.0920e-01    2.8225e+05 ;   C110 - H10R  
  2492   2494   1    1.0920e-01    2.8225e+05 ;   C110 - H10S  
  2492   2495   1    1.5350e-01    2.5363e+05 ;   C110 - C19   
  2495   2496   1    1.0920e-01    2.8225e+05 ;    C19 - H9R   
  2495   2497   1    1.0920e-01    2.8225e+05 ;    C19 - H9S   
  2495   2498   1    1.5350e-01    2.5363e+05 ;    C19 - C18   
  2498   2499   1    1.0920e-01    2.8225e+05 ;    C18 - H8R   
  2498   2500   1    1.0920e-01    2.8225e+05 ;    C18 - H8S   
  2498   2501   1    1.5350e-01    2.5363e+05 ;    C18 - C17   
  2501   2502   1    1.0920e-01    2.8225e+05 ;    C17 - H7R   
  2501   2503   1    1.0920e-01    2.8225e+05 ;    C17 - H7S   
  2501   2504   1    1.5350e-01    2.5363e+05 ;    C17 - C16   
  2504   2505   1    1.0920e-01    2.8225e+05 ;    C16 - H6R   
  2504   2506   1    1.0920e-01    2.8225e+05 ;    C16 - H6S   
  2504   2507   1    1.5350e-01    2.5363e+05 ;    C16 - C15   
  2507   2508   1    1.0920e-01    2.8225e+05 ;    C15 - H5R   
  2507   2509   1    1.0920e-01    2.8225e+05 ;    C15 - H5S   
  2507   2510   1    1.5350e-01    2.5363e+05 ;    C15 - C14   
  2510   2511   1    1.0920e-01    2.8225e+05 ;    C14 - H4R   
  2510   2512   1    1.0920e-01    2.8225e+05 ;    C14 - H4S   
  2510   2513   1    1.5350e-01    2.5363e+05 ;    C14 - C13   
  2513   2514   1    1.0920e-01    2.8225e+05 ;    C13 - H3R   
  2513   2515   1    1.0920e-01    2.8225e+05 ;    C13 - H3S   
  2513   2516   1    1.5350e-01    2.5363e+05 ;    C13 - C12   
  2516   2517   1    1.0920e-01    2.8225e+05 ;    C12 - H2R   
  2516   2518   1    1.0920e-01    2.8225e+05 ;    C12 - H2S   
  2516   2519   1    1.5080e-01    2.7472e+05 ;    C12 - C11   
  2519   2520   1    1.2140e-01    5.4225e+05 ;    C11 - O12   
  2519   2521   1    1.3430e-01    3.4418e+05 ;    C11 - O11   
  2521   2522   1    1.4390e-01    2.5230e+05 ;    O11 - C1    
  2522   2523   1    1.0930e-01    2.8108e+05 ;     C1 - HR    
  2522   2524   1    1.0930e-01    2.8108e+05 ;     C1 - HS    
  2522   2525   1    1.5350e-01    2.5363e+05 ;     C1 - C2    
  2525   2526   1    1.0930e-01    2.8108e+05 ;     C2 - HX    
  2525   2527   1    1.5350e-01    2.5363e+05 ;     C2 - C3    
  2525   2554   1    1.4390e-01    2.5230e+05 ;     C2 - O21   
  2527   2528   1    1.0930e-01    2.8108e+05 ;     C3 - HA    
  2527   2529   1    1.0930e-01    2.8108e+05 ;     C3 - HB    
  2527   2530   1    1.4390e-01    2.5230e+05 ;     C3 - O31   
  2530   2531   1    1.6100e-01    1.9246e+05 ;    O31 - P31   
  2531   2532   1    1.6100e-01    1.9246e+05 ;    P31 - O32   
  2531   2552   1    1.4800e-01    4.3932e+05 ;    P31 - O33   
  2531   2553   1    1.4800e-01    4.3932e+05 ;    P31 - O34   
  2532   2533   1    1.4390e-01    2.5230e+05 ;    O32 - C31   
  2533   2534   1    1.0930e-01    2.8108e+05 ;    C31 - H1A   
  2533   2535   1    1.0930e-01    2.8108e+05 ;    C31 - H1B   
  2533   2536   1    1.5350e-01    2.5363e+05 ;    C31 - C32   
  2536   2537   1    1.0910e-01    2.8342e+05 ;    C32 - H2A   
  2536   2538   1    1.0910e-01    2.8342e+05 ;    C32 - H2B   
  2536   2539   1    1.4990e-01    2.4568e+05 ;    C32 - N31   
  2539   2540   1    1.4990e-01    2.4568e+05 ;    N31 - C33   
  2539   2544   1    1.4990e-01    2.4568e+05 ;    N31 - C34   
  2539   2548   1    1.4990e-01    2.4568e+05 ;    N31 - C35   
  2540   2541   1    1.0910e-01    2.8342e+05 ;    C33 - H3A   
  2540   2542   1    1.0910e-01    2.8342e+05 ;    C33 - H3B   
  2540   2543   1    1.0910e-01    2.8342e+05 ;    C33 - H3C   
  2544   2545   1    1.0910e-01    2.8342e+05 ;    C34 - H4A   
  2544   2546   1    1.0910e-01    2.8342e+05 ;    C34 - H4B   
  2544   2547   1    1.0910e-01    2.8342e+05 ;    C34 - H4C   
  2548   2549   1    1.0910e-01    2.8342e+05 ;    C35 - H5A   
  2548   2550   1    1.0910e-01    2.8342e+05 ;    C35 - H5B   
  2548   2551   1    1.0910e-01    2.8342e+05 ;    C35 - H5C   
  2554   2555   1    1.3430e-01    3.4418e+05 ;    O21 - C21   
  2555   2556   1    1.2140e-01    5.4225e+05 ;    C21 - O22   
  2555   2594   1    1.5080e-01    2.7472e+05 ;    C21 - C12   
  2557   2558   1    1.0920e-01    2.8225e+05 ;   H14T - C114  
  2558   2559   1    1.0920e-01    2.8225e+05 ;   C114 - H14R  
  2558   2560   1    1.0920e-01    2.8225e+05 ;   C114 - H14S  
  2558   2561   1    1.5350e-01    2.5363e+05 ;   C114 - C113  
  2561   2562   1    1.0920e-01    2.8225e+05 ;   C113 - H13R  
  2561   2563   1    1.0920e-01    2.8225e+05 ;   C113 - H13S  
  2561   2564   1    1.5350e-01    2.5363e+05 ;   C113 - C112  
  2564   2565   1    1.0920e-01    2.8225e+05 ;   C112 - H12R  
  2564   2566   1    1.0920e-01    2.8225e+05 ;   C112 - H12S  
  2564   2567   1    1.5350e-01    2.5363e+05 ;   C112 - C111  
  2567   2568   1    1.0920e-01    2.8225e+05 ;   C111 - H11R  
  2567   2569   1    1.0920e-01    2.8225e+05 ;   C111 - H11S  
  2567   2570   1    1.5350e-01    2.5363e+05 ;   C111 - C110  
  2570   2571   1    1.0920e-01    2.8225e+05 ;   C110 - H10R  
  2570   2572   1    1.0920e-01    2.8225e+05 ;   C110 - H10S  
  2570   2573   1    1.5350e-01    2.5363e+05 ;   C110 - C19   
  2573   2574   1    1.0920e-01    2.8225e+05 ;    C19 - H9R   
  2573   2575   1    1.0920e-01    2.8225e+05 ;    C19 - H9S   
  2573   2576   1    1.5350e-01    2.5363e+05 ;    C19 - C18   
  2576   2577   1    1.0920e-01    2.8225e+05 ;    C18 - H8R   
  2576   2578   1    1.0920e-01    2.8225e+05 ;    C18 - H8S   
  2576   2579   1    1.5350e-01    2.5363e+05 ;    C18 - C17   
  2579   2580   1    1.0920e-01    2.8225e+05 ;    C17 - H7R   
  2579   2581   1    1.0920e-01    2.8225e+05 ;    C17 - H7S   
  2579   2582   1    1.5350e-01    2.5363e+05 ;    C17 - C16   
  2582   2583   1    1.0920e-01    2.8225e+05 ;    C16 - H6R   
  2582   2584   1    1.0920e-01    2.8225e+05 ;    C16 - H6S   
  2582   2585   1    1.5350e-01    2.5363e+05 ;    C16 - C15   
  2585   2586   1    1.0920e-01    2.8225e+05 ;    C15 - H5R   
  2585   2587   1    1.0920e-01    2.8225e+05 ;    C15 - H5S   
  2585   2588   1    1.5350e-01    2.5363e+05 ;    C15 - C14   
  2588   2589   1    1.0920e-01    2.8225e+05 ;    C14 - H4R   
  2588   2590   1    1.0920e-01    2.8225e+05 ;    C14 - H4S   
  2588   2591   1    1.5350e-01    2.5363e+05 ;    C14 - C13   
  2591   2592   1    1.0920e-01    2.8225e+05 ;    C13 - H3R   
  2591   2593   1    1.0920e-01    2.8225e+05 ;    C13 - H3S   
  2591   2594   1    1.5350e-01    2.5363e+05 ;    C13 - C12   
  2594   2595   1    1.0920e-01    2.8225e+05 ;    C12 - H2R   
  2594   2596   1    1.0920e-01    2.8225e+05 ;    C12 - H2S   
  2597   2598   1    1.0920e-01    2.8225e+05 ;   H14T - C114  
  2598   2599   1    1.0920e-01    2.8225e+05 ;   C114 - H14R  
  2598   2600   1    1.0920e-01    2.8225e+05 ;   C114 - H14S  
  2598   2601   1    1.5350e-01    2.5363e+05 ;   C114 - C113  
  2601   2602   1    1.0920e-01    2.8225e+05 ;   C113 - H13R  
  2601   2603   1    1.0920e-01    2.8225e+05 ;   C113 - H13S  
  2601   2604   1    1.5350e-01    2.5363e+05 ;   C113 - C112  
  2604   2605   1    1.0920e-01    2.8225e+05 ;   C112 - H12R  
  2604   2606   1    1.0920e-01    2.8225e+05 ;   C112 - H12S  
  2604   2607   1    1.5350e-01    2.5363e+05 ;   C112 - C111  
  2607   2608   1    1.0920e-01    2.8225e+05 ;   C111 - H11R  
  2607   2609   1    1.0920e-01    2.8225e+05 ;   C111 - H11S  
  2607   2610   1    1.5350e-01    2.5363e+05 ;   C111 - C110  
  2610   2611   1    1.0920e-01    2.8225e+05 ;   C110 - H10R  
  2610   2612   1    1.0920e-01    2.8225e+05 ;   C110 - H10S  
  2610   2613   1    1.5350e-01    2.5363e+05 ;   C110 - C19   
  2613   2614   1    1.0920e-01    2.8225e+05 ;    C19 - H9R   
  2613   2615   1    1.0920e-01    2.8225e+05 ;    C19 - H9S   
  2613   2616   1    1.5350e-01    2.5363e+05 ;    C19 - C18   
  2616   2617   1    1.0920e-01    2.8225e+05 ;    C18 - H8R   
  2616   2618   1    1.0920e-01    2.8225e+05 ;    C18 - H8S   
  2616   2619   1    1.5350e-01    2.5363e+05 ;    C18 - C17   
  2619   2620   1    1.0920e-01    2.8225e+05 ;    C17 - H7R   
  2619   2621   1    1.0920e-01    2.8225e+05 ;    C17 - H7S   
  2619   2622   1    1.5350e-01    2.5363e+05 ;    C17 - C16   
  2622   2623   1    1.0920e-01    2.8225e+05 ;    C16 - H6R   
  2622   2624   1    1.0920e-01    2.8225e+05 ;    C16 - H6S   
  2622   2625   1    1.5350e-01    2.5363e+05 ;    C16 - C15   
  2625   2626   1    1.0920e-01    2.8225e+05 ;    C15 - H5R   
  2625   2627   1    1.0920e-01    2.8225e+05 ;    C15 - H5S   
  2625   2628   1    1.5350e-01    2.5363e+05 ;    C15 - C14   
  2628   2629   1    1.0920e-01    2.8225e+05 ;    C14 - H4R   
  2628   2630   1    1.0920e-01    2.8225e+05 ;    C14 - H4S   
  2628   2631   1    1.5350e-01    2.5363e+05 ;    C14 - C13   
  2631   2632   1    1.0920e-01    2.8225e+05 ;    C13 - H3R   
  2631   2633   1    1.0920e-01    2.8225e+05 ;    C13 - H3S   
  2631   2634   1    1.5350e-01    2.5363e+05 ;    C13 - C12   
  2634   2635   1    1.0920e-01    2.8225e+05 ;    C12 - H2R   
  2634   2636   1    1.0920e-01    2.8225e+05 ;    C12 - H2S   
  2634   2637   1    1.5080e-01    2.7472e+05 ;    C12 - C11   
  2637   2638   1    1.2140e-01    5.4225e+05 ;    C11 - O12   
  2637   2639   1    1.3430e-01    3.4418e+05 ;    C11 - O11   
  2639   2640   1    1.4390e-01    2.5230e+05 ;    O11 - C1    
  2640   2641   1    1.0930e-01    2.8108e+05 ;     C1 - HR    
  2640   2642   1    1.0930e-01    2.8108e+05 ;     C1 - HS    
  2640   2643   1    1.5350e-01    2.5363e+05 ;     C1 - C2    
  2643   2644   1    1.0930e-01    2.8108e+05 ;     C2 - HX    
  2643   2645   1    1.5350e-01    2.5363e+05 ;     C2 - C3    
  2643   2672   1    1.4390e-01    2.5230e+05 ;     C2 - O21   
  2645   2646   1    1.0930e-01    2.8108e+05 ;     C3 - HA    
  2645   2647   1    1.0930e-01    2.8108e+05 ;     C3 - HB    
  2645   2648   1    1.4390e-01    2.5230e+05 ;     C3 - O31   
  2648   2649   1    1.6100e-01    1.9246e+05 ;    O31 - P31   
  2649   2650   1    1.6100e-01    1.9246e+05 ;    P31 - O32   
  2649   2670   1    1.4800e-01    4.3932e+05 ;    P31 - O33   
  2649   2671   1    1.4800e-01    4.3932e+05 ;    P31 - O34   
  2650   2651   1    1.4390e-01    2.5230e+05 ;    O32 - C31   
  2651   2652   1    1.0930e-01    2.8108e+05 ;    C31 - H1A   
  2651   2653   1    1.0930e-01    2.8108e+05 ;    C31 - H1B   
  2651   2654   1    1.5350e-01    2.5363e+05 ;    C31 - C32   
  2654   2655   1    1.0910e-01    2.8342e+05 ;    C32 - H2A   
  2654   2656   1    1.0910e-01    2.8342e+05 ;    C32 - H2B   
  2654   2657   1    1.4990e-01    2.4568e+05 ;    C32 - N31   
  2657   2658   1    1.4990e-01    2.4568e+05 ;    N31 - C33   
  2657   2662   1    1.4990e-01    2.4568e+05 ;    N31 - C34   
  2657   2666   1    1.4990e-01    2.4568e+05 ;    N31 - C35   
  2658   2659   1    1.0910e-01    2.8342e+05 ;    C33 - H3A   
  2658   2660   1    1.0910e-01    2.8342e+05 ;    C33 - H3B   
  2658   2661   1    1.0910e-01    2.8342e+05 ;    C33 - H3C   
  2662   2663   1    1.0910e-01    2.8342e+05 ;    C34 - H4A   
  2662   2664   1    1.0910e-01    2.8342e+05 ;    C34 - H4B   
  2662   2665   1    1.0910e-01    2.8342e+05 ;    C34 - H4C   
  2666   2667   1    1.0910e-01    2.8342e+05 ;    C35 - H5A   
  2666   2668   1    1.0910e-01    2.8342e+05 ;    C35 - H5B   
  2666   2669   1    1.0910e-01    2.8342e+05 ;    C35 - H5C   
  2672   2673   1    1.3430e-01    3.4418e+05 ;    O21 - C21   
  2673   2674   1    1.2140e-01    5.4225e+05 ;    C21 - O22   
  2673   2712   1    1.5080e-01    2.7472e+05 ;    C21 - C12   
  2675   2676   1    1.0920e-01    2.8225e+05 ;   H14T - C114  
  2676   2677   1    1.0920e-01    2.8225e+05 ;   C114 - H14R  
  2676   2678   1    1.0920e-01    2.8225e+05 ;   C114 - H14S  
  2676   2679   1    1.5350e-01    2.5363e+05 ;   C114 - C113  
  2679   2680   1    1.0920e-01    2.8225e+05 ;   C113 - H13R  
  2679   2681   1    1.0920e-01    2.8225e+05 ;   C113 - H13S  
  2679   2682   1    1.5350e-01    2.5363e+05 ;   C113 - C112  
  2682   2683   1    1.0920e-01    2.8225e+05 ;   C112 - H12R  
  2682   2684   1    1.0920e-01    2.8225e+05 ;   C112 - H12S  
  2682   2685   1    1.5350e-01    2.5363e+05 ;   C112 - C111  
  2685   2686   1    1.0920e-01    2.8225e+05 ;   C111 - H11R  
  2685   2687   1    1.0920e-01    2.8225e+05 ;   C111 - H11S  
  2685   2688   1    1.5350e-01    2.5363e+05 ;   C111 - C110  
  2688   2689   1    1.0920e-01    2.8225e+05 ;   C110 - H10R  
  2688   2690   1    1.0920e-01    2.8225e+05 ;   C110 - H10S  
  2688   2691   1    1.5350e-01    2.5363e+05 ;   C110 - C19   
  2691   2692   1    1.0920e-01    2.8225e+05 ;    C19 - H9R   
  2691   2693   1    1.0920e-01    2.8225e+05 ;    C19 - H9S   
  2691   2694   1    1.5350e-01    2.5363e+05 ;    C19 - C18   
  2694   2695   1    1.0920e-01    2.8225e+05 ;    C18 - H8R   
  2694   2696   1    1.0920e-01    2.8225e+05 ;    C18 - H8S   
  2694   2697   1    1.5350e-01    2.5363e+05 ;    C18 - C17   
  2697   2698   1    1.0920e-01    2.8225e+05 ;    C17 - H7R   
  2697   2699   1    1.0920e-01    2.8225e+05 ;    C17 - H7S   
  2697   2700   1    1.5350e-01    2.5363e+05 ;    C17 - C16   
  2700   2701   1    1.0920e-01    2.8225e+05 ;    C16 - H6R   
  2700   2702   1    1.0920e-01    2.8225e+05 ;    C16 - H6S   
  2700   2703   1    1.5350e-01    2.5363e+05 ;    C16 - C15   
  2703   2704   1    1.0920e-01    2.8225e+05 ;    C15 - H5R   
  2703   2705   1    1.0920e-01    2.8225e+05 ;    C15 - H5S   
  2703   2706   1    1.5350e-01    2.5363e+05 ;    C15 - C14   
  2706   2707   1    1.0920e-01    2.8225e+05 ;    C14 - H4R   
  2706   2708   1    1.0920e-01    2.8225e+05 ;    C14 - H4S   
  2706   2709   1    1.5350e-01    2.5363e+05 ;    C14 - C13   
  2709   2710   1    1.0920e-01    2.8225e+05 ;    C13 - H3R   
  2709   2711   1    1.0920e-01    2.8225e+05 ;    C13 - H3S   
  2709   2712   1    1.5350e-01    2.5363e+05 ;    C13 - C12   
  2712   2713   1    1.0920e-01    2.8225e+05 ;    C12 - H2R   
  2712   2714   1    1.0920e-01    2.8225e+05 ;    C12 - H2S   
  2715   2716   1    1.0920e-01    2.8225e+05 ;   H14T - C114  
  2716   2717   1    1.0920e-01    2.8225e+05 ;   C114 - H14R  
  2716   2718   1    1.0920e-01    2.8225e+05 ;   C114 - H14S  
  2716   2719   1    1.5350e-01    2.5363e+05 ;   C114 - C113  
  2719   2720   1    1.0920e-01    2.8225e+05 ;   C113 - H13R  
  2719   2721   1    1.0920e-01    2.8225e+05 ;   C113 - H13S  
  2719   2722   1    1.5350e-01    2.5363e+05 ;   C113 - C112  
  2722   2723   1    1.0920e-01    2.8225e+05 ;   C112 - H12R  
  2722   2724   1    1.0920e-01    2.8225e+05 ;   C112 - H12S  
  2722   2725   1    1.5350e-01    2.5363e+05 ;   C112 - C111  
  2725   2726   1    1.0920e-01    2.8225e+05 ;   C111 - H11R  
  2725   2727   1    1.0920e-01    2.8225e+05 ;   C111 - H11S  
  2725   2728   1    1.5350e-01    2.5363e+05 ;   C111 - C110  
  2728   2729   1    1.0920e-01    2.8225e+05 ;   C110 - H10R  
  2728   2730   1    1.0920e-01    2.8225e+05 ;   C110 - H10S  
  2728   2731   1    1.5350e-01    2.5363e+05 ;   C110 - C19   
  2731   2732   1    1.0920e-01    2.8225e+05 ;    C19 - H9R   
  2731   2733   1    1.0920e-01    2.8225e+05 ;    C19 - H9S   
  2731   2734   1    1.5350e-01    2.5363e+05 ;    C19 - C18   
  2734   2735   1    1.0920e-01    2.8225e+05 ;    C18 - H8R   
  2734   2736   1    1.0920e-01    2.8225e+05 ;    C18 - H8S   
  2734   2737   1    1.5350e-01    2.5363e+05 ;    C18 - C17   
  2737   2738   1    1.0920e-01    2.8225e+05 ;    C17 - H7R   
  2737   2739   1    1.0920e-01    2.8225e+05 ;    C17 - H7S   
  2737   2740   1    1.5350e-01    2.5363e+05 ;    C17 - C16   
  2740   2741   1    1.0920e-01    2.8225e+05 ;    C16 - H6R   
  2740   2742   1    1.0920e-01    2.8225e+05 ;    C16 - H6S   
  2740   2743   1    1.5350e-01    2.5363e+05 ;    C16 - C15   
  2743   2744   1    1.0920e-01    2.8225e+05 ;    C15 - H5R   
  2743   2745   1    1.0920e-01    2.8225e+05 ;    C15 - H5S   
  2743   2746   1    1.5350e-01    2.5363e+05 ;    C15 - C14   
  2746   2747   1    1.0920e-01    2.8225e+05 ;    C14 - H4R   
  2746   2748   1    1.0920e-01    2.8225e+05 ;    C14 - H4S   
  2746   2749   1    1.5350e-01    2.5363e+05 ;    C14 - C13   
  2749   2750   1    1.0920e-01    2.8225e+05 ;    C13 - H3R   
  2749   2751   1    1.0920e-01    2.8225e+05 ;    C13 - H3S   
  2749   2752   1    1.5350e-01    2.5363e+05 ;    C13 - C12   
  2752   2753   1    1.0920e-01    2.8225e+05 ;    C12 - H2R   
  2752   2754   1    1.0920e-01    2.8225e+05 ;    C12 - H2S   
  2752   2755   1    1.5080e-01    2.7472e+05 ;    C12 - C11   
  2755   2756   1    1.2140e-01    5.4225e+05 ;    C11 - O12   
  2755   2757   1    1.3430e-01    3.4418e+05 ;    C11 - O11   
  2757   2758   1    1.4390e-01    2.5230e+05 ;    O11 - C1    
  2758   2759   1    1.0930e-01    2.8108e+05 ;     C1 - HR    
  2758   2760   1    1.0930e-01    2.8108e+05 ;     C1 - HS    
  2758   2761   1    1.5350e-01    2.5363e+05 ;     C1 - C2    
  2761   2762   1    1.0930e-01    2.8108e+05 ;     C2 - HX    
  2761   2763   1    1.5350e-01    2.5363e+05 ;     C2 - C3    
  2761   2790   1    1.4390e-01    2.5230e+05 ;     C2 - O21   
  2763   2764   1    1.0930e-01    2.8108e+05 ;     C3 - HA    
  2763   2765   1    1.0930e-01    2.8108e+05 ;     C3 - HB    
  2763   2766   1    1.4390e-01    2.5230e+05 ;     C3 - O31   
  2766   2767   1    1.6100e-01    1.9246e+05 ;    O31 - P31   
  2767   2768   1    1.6100e-01    1.9246e+05 ;    P31 - O32   
  2767   2788   1    1.4800e-01    4.3932e+05 ;    P31 - O33   
  2767   2789   1    1.4800e-01    4.3932e+05 ;    P31 - O34   
  2768   2769   1    1.4390e-01    2.5230e+05 ;    O32 - C31   
  2769   2770   1    1.0930e-01    2.8108e+05 ;    C31 - H1A   
  2769   2771   1    1.0930e-01    2.8108e+05 ;    C31 - H1B   
  2769   2772   1    1.5350e-01    2.5363e+05 ;    C31 - C32   
  2772   2773   1    1.0910e-01    2.8342e+05 ;    C32 - H2A   
  2772   2774   1    1.0910e-01    2.8342e+05 ;    C32 - H2B   
  2772   2775   1    1.4990e-01    2.4568e+05 ;    C32 - N31   
  2775   2776   1    1.4990e-01    2.4568e+05 ;    N31 - C33   
  2775   2780   1    1.4990e-01    2.4568e+05 ;    N31 - C34   
  2775   2784   1    1.4990e-01    2.4568e+05 ;    N31 - C35   
  2776   2777   1    1.0910e-01    2.8342e+05 ;    C33 - H3A   
  2776   2778   1    1.0910e-01    2.8342e+05 ;    C33 - H3B   
  2776   2779   1    1.0910e-01    2.8342e+05 ;    C33 - H3C   
  2780   2781   1    1.0910e-01    2.8342e+05 ;    C34 - H4A   
  2780   2782   1    1.0910e-01    2.8342e+05 ;    C34 - H4B   
  2780   2783   1    1.0910e-01    2.8342e+05 ;    C34 - H4C   
  2784   2785   1    1.0910e-01    2.8342e+05 ;    C35 - H5A   
  2784   2786   1    1.0910e-01    2.8342e+05 ;    C35 - H5B   
  2784   2787   1    1.0910e-01    2.8342e+05 ;    C35 - H5C   
  2790   2791   1    1.3430e-01    3.4418e+05 ;    O21 - C21   
  2791   2792   1    1.2140e-01    5.4225e+05 ;    C21 - O22   
  2791   2830   1    1.5080e-01    2.7472e+05 ;    C21 - C12   
  2793   2794   1    1.0920e-01    2.8225e+05 ;   H14T - C114  
  2794   2795   1    1.0920e-01    2.8225e+05 ;   C114 - H14R  
  2794   2796   1    1.0920e-01    2.8225e+05 ;   C114 - H14S  
  2794   2797   1    1.5350e-01    2.5363e+05 ;   C114 - C113  
  2797   2798   1    1.0920e-01    2.8225e+05 ;   C113 - H13R  
  2797   2799   1    1.0920e-01    2.8225e+05 ;   C113 - H13S  
  2797   2800   1    1.5350e-01    2.5363e+05 ;   C113 - C112  
  2800   2801   1    1.0920e-01    2.8225e+05 ;   C112 - H12R  
  2800   2802   1    1.0920e-01    2.8225e+05 ;   C112 - H12S  
  2800   2803   1    1.5350e-01    2.5363e+05 ;   C112 - C111  
  2803   2804   1    1.0920e-01    2.8225e+05 ;   C111 - H11R  
  2803   2805   1    1.0920e-01    2.8225e+05 ;   C111 - H11S  
  2803   2806   1    1.5350e-01    2.5363e+05 ;   C111 - C110  
  2806   2807   1    1.0920e-01    2.8225e+05 ;   C110 - H10R  
  2806   2808   1    1.0920e-01    2.8225e+05 ;   C110 - H10S  
  2806   2809   1    1.5350e-01    2.5363e+05 ;   C110 - C19   
  2809   2810   1    1.0920e-01    2.8225e+05 ;    C19 - H9R   
  2809   2811   1    1.0920e-01    2.8225e+05 ;    C19 - H9S   
  2809   2812   1    1.5350e-01    2.5363e+05 ;    C19 - C18   
  2812   2813   1    1.0920e-01    2.8225e+05 ;    C18 - H8R   
  2812   2814   1    1.0920e-01    2.8225e+05 ;    C18 - H8S   
  2812   2815   1    1.5350e-01    2.5363e+05 ;    C18 - C17   
  2815   2816   1    1.0920e-01    2.8225e+05 ;    C17 - H7R   
  2815   2817   1    1.0920e-01    2.8225e+05 ;    C17 - H7S   
  2815   2818   1    1.5350e-01    2.5363e+05 ;    C17 - C16   
  2818   2819   1    1.0920e-01    2.8225e+05 ;    C16 - H6R   
  2818   2820   1    1.0920e-01    2.8225e+05 ;    C16 - H6S   
  2818   2821   1    1.5350e-01    2.5363e+05 ;    C16 - C15   
  2821   2822   1    1.0920e-01    2.8225e+05 ;    C15 - H5R   
  2821   2823   1    1.0920e-01    2.8225e+05 ;    C15 - H5S   
  2821   2824   1    1.5350e-01    2.5363e+05 ;    C15 - C14   
  2824   2825   1    1.0920e-01    2.8225e+05 ;    C14 - H4R   
  2824   2826   1    1.0920e-01    2.8225e+05 ;    C14 - H4S   
  2824   2827   1    1.5350e-01    2.5363e+05 ;    C14 - C13   
  2827   2828   1    1.0920e-01    2.8225e+05 ;    C13 - H3R   
  2827   2829   1    1.0920e-01    2.8225e+05 ;    C13 - H3S   
  2827   2830   1    1.5350e-01    2.5363e+05 ;    C13 - C12   
  2830   2831   1    1.0920e-01    2.8225e+05 ;    C12 - H2R   
  2830   2832   1    1.0920e-01    2.8225e+05 ;    C12 - H2S   
  2833   2834   1    1.0920e-01    2.8225e+05 ;   H14T - C114  
  2834   2835   1    1.0920e-01    2.8225e+05 ;   C114 - H14R  
  2834   2836   1    1.0920e-01    2.8225e+05 ;   C114 - H14S  
  2834   2837   1    1.5350e-01    2.5363e+05 ;   C114 - C113  
  2837   2838   1    1.0920e-01    2.8225e+05 ;   C113 - H13R  
  2837   2839   1    1.0920e-01    2.8225e+05 ;   C113 - H13S  
  2837   2840   1    1.5350e-01    2.5363e+05 ;   C113 - C112  
  2840   2841   1    1.0920e-01    2.8225e+05 ;   C112 - H12R  
  2840   2842   1    1.0920e-01    2.8225e+05 ;   C112 - H12S  
  2840   2843   1    1.5350e-01    2.5363e+05 ;   C112 - C111  
  2843   2844   1    1.0920e-01    2.8225e+05 ;   C111 - H11R  
  2843   2845   1    1.0920e-01    2.8225e+05 ;   C111 - H11S  
  2843   2846   1    1.5350e-01    2.5363e+05 ;   C111 - C110  
  2846   2847   1    1.0920e-01    2.8225e+05 ;   C110 - H10R  
  2846   2848   1    1.0920e-01    2.8225e+05 ;   C110 - H10S  
  2846   2849   1    1.5350e-01    2.5363e+05 ;   C110 - C19   
  2849   2850   1    1.0920e-01    2.8225e+05 ;    C19 - H9R   
  2849   2851   1    1.0920e-01    2.8225e+05 ;    C19 - H9S   
  2849   2852   1    1.5350e-01    2.5363e+05 ;    C19 - C18   
  2852   2853   1    1.0920e-01    2.8225e+05 ;    C18 - H8R   
  2852   2854   1    1.0920e-01    2.8225e+05 ;    C18 - H8S   
  2852   2855   1    1.5350e-01    2.5363e+05 ;    C18 - C17   
  2855   2856   1    1.0920e-01    2.8225e+05 ;    C17 - H7R   
  2855   2857   1    1.0920e-01    2.8225e+05 ;    C17 - H7S   
  2855   2858   1    1.5350e-01    2.5363e+05 ;    C17 - C16   
  2858   2859   1    1.0920e-01    2.8225e+05 ;    C16 - H6R   
  2858   2860   1    1.0920e-01    2.8225e+05 ;    C16 - H6S   
  2858   2861   1    1.5350e-01    2.5363e+05 ;    C16 - C15   
  2861   2862   1    1.0920e-01    2.8225e+05 ;    C15 - H5R   
  2861   2863   1    1.0920e-01    2.8225e+05 ;    C15 - H5S   
  2861   2864   1    1.5350e-01    2.5363e+05 ;    C15 - C14   
  2864   2865   1    1.0920e-01    2.8225e+05 ;    C14 - H4R   
  2864   2866   1    1.0920e-01    2.8225e+05 ;    C14 - H4S   
  2864   2867   1    1.5350e-01    2.5363e+05 ;    C14 - C13   
  2867   2868   1    1.0920e-01    2.8225e+05 ;    C13 - H3R   
  2867   2869   1    1.0920e-01    2.8225e+05 ;    C13 - H3S   
  2867   2870   1    1.5350e-01    2.5363e+05 ;    C13 - C12   
  2870   2871   1    1.0920e-01    2.8225e+05 ;    C12 - H2R   
  2870   2872   1    1.0920e-01    2.8225e+05 ;    C12 - H2S   
  2870   2873   1    1.5080e-01    2.7472e+05 ;    C12 - C11   
  2873   2874   1    1.2140e-01    5.4225e+05 ;    C11 - O12   
  2873   2875   1    1.3430e-01    3.4418e+05 ;    C11 - O11   
  2875   2876   1    1.4390e-01    2.5230e+05 ;    O11 - C1    
  2876   2877   1    1.0930e-01    2.8108e+05 ;     C1 - HR    
  2876   2878   1    1.0930e-01    2.8108e+05 ;     C1 - HS    
  2876   2879   1    1.5350e-01    2.5363e+05 ;     C1 - C2    
  2879   2880   1    1.0930e-01    2.8108e+05 ;     C2 - HX    
  2879   2881   1    1.5350e-01    2.5363e+05 ;     C2 - C3    
  2879   2908   1    1.4390e-01    2.5230e+05 ;     C2 - O21   
  2881   2882   1    1.0930e-01    2.8108e+05 ;     C3 - HA    
  2881   2883   1    1.0930e-01    2.8108e+05 ;     C3 - HB    
  2881   2884   1    1.4390e-01    2.5230e+05 ;     C3 - O31   
  2884   2885   1    1.6100e-01    1.9246e+05 ;    O31 - P31   
  2885   2886   1    1.6100e-01    1.9246e+05 ;    P31 - O32   
  2885   2906   1    1.4800e-01    4.3932e+05 ;    P31 - O33   
  2885   2907   1    1.4800e-01    4.3932e+05 ;    P31 - O34   
  2886   2887   1    1.4390e-01    2.5230e+05 ;    O32 - C31   
  2887   2888   1    1.0930e-01    2.8108e+05 ;    C31 - H1A   
  2887   2889   1    1.0930e-01    2.8108e+05 ;    C31 - H1B   
  2887   2890   1    1.5350e-01    2.5363e+05 ;    C31 - C32   
  2890   2891   1    1.0910e-01    2.8342e+05 ;    C32 - H2A   
  2890   2892   1    1.0910e-01    2.8342e+05 ;    C32 - H2B   
  2890   2893   1    1.4990e-01    2.4568e+05 ;    C32 - N31   
  2893   2894   1    1.4990e-01    2.4568e+05 ;    N31 - C33   
  2893   2898   1    1.4990e-01    2.4568e+05 ;    N31 - C34   
  2893   2902   1    1.4990e-01    2.4568e+05 ;    N31 - C35   
  2894   2895   1    1.0910e-01    2.8342e+05 ;    C33 - H3A   
  2894   2896   1    1.0910e-01    2.8342e+05 ;    C33 - H3B   
  2894   2897   1    1.0910e-01    2.8342e+05 ;    C33 - H3C   
  2898   2899   1    1.0910e-01    2.8342e+05 ;    C34 - H4A   
  2898   2900   1    1.0910e-01    2.8342e+05 ;    C34 - H4B   
  2898   2901   1    1.0910e-01    2.8342e+05 ;    C34 - H4C   
  2902   2903   1    1.0910e-01    2.8342e+05 ;    C35 - H5A   
  2902   2904   1    1.0910e-01    2.8342e+05 ;    C35 - H5B   
  2902   2905   1    1.0910e-01    2.8342e+05 ;    C35 - H5C   
  2908   2909   1    1.3430e-01    3.4418e+05 ;    O21 - C21   
  2909   2910   1    1.2140e-01    5.4225e+05 ;    C21 - O22   
  2909   2948   1    1.5080e-01    2.7472e+05 ;    C21 - C12   
  2911   2912   1    1.0920e-01    2.8225e+05 ;   H14T - C114  
  2912   2913   1    1.0920e-01    2.8225e+05 ;   C114 - H14R  
  2912   2914   1    1.0920e-01    2.8225e+05 ;   C114 - H14S  
  2912   2915   1    1.5350e-01    2.5363e+05 ;   C114 - C113  
  2915   2916   1    1.0920e-01    2.8225e+05 ;   C113 - H13R  
  2915   2917   1    1.0920e-01    2.8225e+05 ;   C113 - H13S  
  2915   2918   1    1.5350e-01    2.5363e+05 ;   C113 - C112  
  2918   2919   1    1.0920e-01    2.8225e+05 ;   C112 - H12R  
  2918   2920   1    1.0920e-01    2.8225e+05 ;   C112 - H12S  
  2918   2921   1    1.5350e-01    2.5363e+05 ;   C112 - C111  
  2921   2922   1    1.0920e-01    2.8225e+05 ;   C111 - H11R  
  2921   2923   1    1.0920e-01    2.8225e+05 ;   C111 - H11S  
  2921   2924   1    1.5350e-01    2.5363e+05 ;   C111 - C110  
  2924   2925   1    1.0920e-01    2.8225e+05 ;   C110 - H10R  
  2924   2926   1    1.0920e-01    2.8225e+05 ;   C110 - H10S  
  2924   2927   1    1.5350e-01    2.5363e+05 ;   C110 - C19   
  2927   2928   1    1.0920e-01    2.8225e+05 ;    C19 - H9R   
  2927   2929   1    1.0920e-01    2.8225e+05 ;    C19 - H9S   
  2927   2930   1    1.5350e-01    2.5363e+05 ;    C19 - C18   
  2930   2931   1    1.0920e-01    2.8225e+05 ;    C18 - H8R   
  2930   2932   1    1.0920e-01    2.8225e+05 ;    C18 - H8S   
  2930   2933   1    1.5350e-01    2.5363e+05 ;    C18 - C17   
  2933   2934   1    1.0920e-01    2.8225e+05 ;    C17 - H7R   
  2933   2935   1    1.0920e-01    2.8225e+05 ;    C17 - H7S   
  2933   2936   1    1.5350e-01    2.5363e+05 ;    C17 - C16   
  2936   2937   1    1.0920e-01    2.8225e+05 ;    C16 - H6R   
  2936   2938   1    1.0920e-01    2.8225e+05 ;    C16 - H6S   
  2936   2939   1    1.5350e-01    2.5363e+05 ;    C16 - C15   
  2939   2940   1    1.0920e-01    2.8225e+05 ;    C15 - H5R   
  2939   2941   1    1.0920e-01    2.8225e+05 ;    C15 - H5S   
  2939   2942   1    1.5350e-01    2.5363e+05 ;    C15 - C14   
  2942   2943   1    1.0920e-01    2.8225e+05 ;    C14 - H4R   
  2942   2944   1    1.0920e-01    2.8225e+05 ;    C14 - H4S   
  2942   2945   1    1.5350e-01    2.5363e+05 ;    C14 - C13   
  2945   2946   1    1.0920e-01    2.8225e+05 ;    C13 - H3R   
  2945   2947   1    1.0920e-01    2.8225e+05 ;    C13 - H3S   
  2945   2948   1    1.5350e-01    2.5363e+05 ;    C13 - C12   
  2948   2949   1    1.0920e-01    2.8225e+05 ;    C12 - H2R   
  2948   2950   1    1.0920e-01    2.8225e+05 ;    C12 - H2S   
  2951   2952   1    1.0920e-01    2.8225e+05 ;   H14T - C114  
  2952   2953   1    1.0920e-01    2.8225e+05 ;   C114 - H14R  
  2952   2954   1    1.0920e-01    2.8225e+05 ;   C114 - H14S  
  2952   2955   1    1.5350e-01    2.5363e+05 ;   C114 - C113  
  2955   2956   1    1.0920e-01    2.8225e+05 ;   C113 - H13R  
  2955   2957   1    1.0920e-01    2.8225e+05 ;   C113 - H13S  
  2955   2958   1    1.5350e-01    2.5363e+05 ;   C113 - C112  
  2958   2959   1    1.0920e-01    2.8225e+05 ;   C112 - H12R  
  2958   2960   1    1.0920e-01    2.8225e+05 ;   C112 - H12S  
  2958   2961   1    1.5350e-01    2.5363e+05 ;   C112 - C111  
  2961   2962   1    1.0920e-01    2.8225e+05 ;   C111 - H11R  
  2961   2963   1    1.0920e-01    2.8225e+05 ;   C111 - H11S  
  2961   2964   1    1.5350e-01    2.5363e+05 ;   C111 - C110  
  2964   2965   1    1.0920e-01    2.8225e+05 ;   C110 - H10R  
  2964   2966   1    1.0920e-01    2.8225e+05 ;   C110 - H10S  
  2964   2967   1    1.5350e-01    2.5363e+05 ;   C110 - C19   
  2967   2968   1    1.0920e-01    2.8225e+05 ;    C19 - H9R   
  2967   2969   1    1.0920e-01    2.8225e+05 ;    C19 - H9S   
  2967   2970   1    1.5350e-01    2.5363e+05 ;    C19 - C18   
  2970   2971   1    1.0920e-01    2.8225e+05 ;    C18 - H8R   
  2970   2972   1    1.0920e-01    2.8225e+05 ;    C18 - H8S   
  2970   2973   1    1.5350e-01    2.5363e+05 ;    C18 - C17   
  2973   2974   1    1.0920e-01    2.8225e+05 ;    C17 - H7R   
  2973   2975   1    1.0920e-01    2.8225e+05 ;    C17 - H7S   
  2973   2976   1    1.5350e-01    2.5363e+05 ;    C17 - C16   
  2976   2977   1    1.0920e-01    2.8225e+05 ;    C16 - H6R   
  2976   2978   1    1.0920e-01    2.8225e+05 ;    C16 - H6S   
  2976   2979   1    1.5350e-01    2.5363e+05 ;    C16 - C15   
  2979   2980   1    1.0920e-01    2.8225e+05 ;    C15 - H5R   
  2979   2981   1    1.0920e-01    2.8225e+05 ;    C15 - H5S   
  2979   2982   1    1.5350e-01    2.5363e+05 ;    C15 - C14   
  2982   2983   1    1.0920e-01    2.8225e+05 ;    C14 - H4R   
  2982   2984   1    1.0920e-01    2.8225e+05 ;    C14 - H4S   
  2982   2985   1    1.5350e-01    2.5363e+05 ;    C14 - C13   
  2985   2986   1    1.0920e-01    2.8225e+05 ;    C13 - H3R   
  2985   2987   1    1.0920e-01    2.8225e+05 ;    C13 - H3S   
  2985   2988   1    1.5350e-01    2.5363e+05 ;    C13 - C12   
  2988   2989   1    1.0920e-01    2.8225e+05 ;    C12 - H2R   
  2988   2990   1    1.0920e-01    2.8225e+05 ;    C12 - H2S   
  2988   2991   1    1.5080e-01    2.7472e+05 ;    C12 - C11   
  2991   2992   1    1.2140e-01    5.4225e+05 ;    C11 - O12   
  2991   2993   1    1.3430e-01    3.4418e+05 ;    C11 - O11   
  2993   2994   1    1.4390e-01    2.5230e+05 ;    O11 - C1    
  2994   2995   1    1.0930e-01    2.8108e+05 ;     C1 - HR    
  2994   2996   1    1.0930e-01    2.8108e+05 ;     C1 - HS    
  2994   2997   1    1.5350e-01    2.5363e+05 ;     C1 - C2    
  2997   2998   1    1.0930e-01    2.8108e+05 ;     C2 - HX    
  2997   2999   1    1.5350e-01    2.5363e+05 ;     C2 - C3    
  2997   3026   1    1.4390e-01    2.5230e+05 ;     C2 - O21   
  2999   3000   1    1.0930e-01    2.8108e+05 ;     C3 - HA    
  2999   3001   1    1.0930e-01    2.8108e+05 ;     C3 - HB    
  2999   3002   1    1.4390e-01    2.5230e+05 ;     C3 - O31   
  3002   3003   1    1.6100e-01    1.9246e+05 ;    O31 - P31   
  3003   3004   1    1.6100e-01    1.9246e+05 ;    P31 - O32   
  3003   3024   1    1.4800e-01    4.3932e+05 ;    P31 - O33   
  3003   3025   1    1.4800e-01    4.3932e+05 ;    P31 - O34   
  3004   3005   1    1.4390e-01    2.5230e+05 ;    O32 - C31   
  3005   3006   1    1.0930e-01    2.8108e+05 ;    C31 - H1A   
  3005   3007   1    1.0930e-01    2.8108e+05 ;    C31 - H1B   
  3005   3008   1    1.5350e-01    2.5363e+05 ;    C31 - C32   
  3008   3009   1    1.0910e-01    2.8342e+05 ;    C32 - H2A   
  3008   3010   1    1.0910e-01    2.8342e+05 ;    C32 - H2B   
  3008   3011   1    1.4990e-01    2.4568e+05 ;    C32 - N31   
  3011   3012   1    1.4990e-01    2.4568e+05 ;    N31 - C33   
  3011   3016   1    1.4990e-01    2.4568e+05 ;    N31 - C34   
  3011   3020   1    1.4990e-01    2.4568e+05 ;    N31 - C35   
  3012   3013   1    1.0910e-01    2.8342e+05 ;    C33 - H3A   
  3012   3014   1    1.0910e-01    2.8342e+05 ;    C33 - H3B   
  3012   3015   1    1.0910e-01    2.8342e+05 ;    C33 - H3C   
  3016   3017   1    1.0910e-01    2.8342e+05 ;    C34 - H4A   
  3016   3018   1    1.0910e-01    2.8342e+05 ;    C34 - H4B   
  3016   3019   1    1.0910e-01    2.8342e+05 ;    C34 - H4C   
  3020   3021   1    1.0910e-01    2.8342e+05 ;    C35 - H5A   
  3020   3022   1    1.0910e-01    2.8342e+05 ;    C35 - H5B   
  3020   3023   1    1.0910e-01    2.8342e+05 ;    C35 - H5C   
  3026   3027   1    1.3430e-01    3.4418e+05 ;    O21 - C21   
  3027   3028   1    1.2140e-01    5.4225e+05 ;    C21 - O22   
  3027   3066   1    1.5080e-01    2.7472e+05 ;    C21 - C12   
  3029   3030   1    1.0920e-01    2.8225e+05 ;   H14T - C114  
  3030   3031   1    1.0920e-01    2.8225e+05 ;   C114 - H14R  
  3030   3032   1    1.0920e-01    2.8225e+05 ;   C114 - H14S  
  3030   3033   1    1.5350e-01    2.5363e+05 ;   C114 - C113  
  3033   3034   1    1.0920e-01    2.8225e+05 ;   C113 - H13R  
  3033   3035   1    1.0920e-01    2.8225e+05 ;   C113 - H13S  
  3033   3036   1    1.5350e-01    2.5363e+05 ;   C113 - C112  
  3036   3037   1    1.0920e-01    2.8225e+05 ;   C112 - H12R  
  3036   3038   1    1.0920e-01    2.8225e+05 ;   C112 - H12S  
  3036   3039   1    1.5350e-01    2.5363e+05 ;   C112 - C111  
  3039   3040   1    1.0920e-01    2.8225e+05 ;   C111 - H11R  
  3039   3041   1    1.0920e-01    2.8225e+05 ;   C111 - H11S  
  3039   3042   1    1.5350e-01    2.5363e+05 ;   C111 - C110  
  3042   3043   1    1.0920e-01    2.8225e+05 ;   C110 - H10R  
  3042   3044   1    1.0920e-01    2.8225e+05 ;   C110 - H10S  
  3042   3045   1    1.5350e-01    2.5363e+05 ;   C110 - C19   
  3045   3046   1    1.0920e-01    2.8225e+05 ;    C19 - H9R   
  3045   3047   1    1.0920e-01    2.8225e+05 ;    C19 - H9S   
  3045   3048   1    1.5350e-01    2.5363e+05 ;    C19 - C18   
  3048   3049   1    1.0920e-01    2.8225e+05 ;    C18 - H8R   
  3048   3050   1    1.0920e-01    2.8225e+05 ;    C18 - H8S   
  3048   3051   1    1.5350e-01    2.5363e+05 ;    C18 - C17   
  3051   3052   1    1.0920e-01    2.8225e+05 ;    C17 - H7R   
  3051   3053   1    1.0920e-01    2.8225e+05 ;    C17 - H7S   
  3051   3054   1    1.5350e-01    2.5363e+05 ;    C17 - C16   
  3054   3055   1    1.0920e-01    2.8225e+05 ;    C16 - H6R   
  3054   3056   1    1.0920e-01    2.8225e+05 ;    C16 - H6S   
  3054   3057   1    1.5350e-01    2.5363e+05 ;    C16 - C15   
  3057   3058   1    1.0920e-01    2.8225e+05 ;    C15 - H5R   
  3057   3059   1    1.0920e-01    2.8225e+05 ;    C15 - H5S   
  3057   3060   1    1.5350e-01    2.5363e+05 ;    C15 - C14   
  3060   3061   1    1.0920e-01    2.8225e+05 ;    C14 - H4R   
  3060   3062   1    1.0920e-01    2.8225e+05 ;    C14 - H4S   
  3060   3063   1    1.5350e-01    2.5363e+05 ;    C14 - C13   
  3063   3064   1    1.0920e-01    2.8225e+05 ;    C13 - H3R   
  3063   3065   1    1.0920e-01    2.8225e+05 ;    C13 - H3S   
  3063   3066   1    1.5350e-01    2.5363e+05 ;    C13 - C12   
  3066   3067   1    1.0920e-01    2.8225e+05 ;    C12 - H2R   
  3066   3068   1    1.0920e-01    2.8225e+05 ;    C12 - H2S   
  3069   3070   1    1.0920e-01    2.8225e+05 ;   H14T - C114  
  3070   3071   1    1.0920e-01    2.8225e+05 ;   C114 - H14R  
  3070   3072   1    1.0920e-01    2.8225e+05 ;   C114 - H14S  
  3070   3073   1    1.5350e-01    2.5363e+05 ;   C114 - C113  
  3073   3074   1    1.0920e-01    2.8225e+05 ;   C113 - H13R  
  3073   3075   1    1.0920e-01    2.8225e+05 ;   C113 - H13S  
  3073   3076   1    1.5350e-01    2.5363e+05 ;   C113 - C112  
  3076   3077   1    1.0920e-01    2.8225e+05 ;   C112 - H12R  
  3076   3078   1    1.0920e-01    2.8225e+05 ;   C112 - H12S  
  3076   3079   1    1.5350e-01    2.5363e+05 ;   C112 - C111  
  3079   3080   1    1.0920e-01    2.8225e+05 ;   C111 - H11R  
  3079   3081   1    1.0920e-01    2.8225e+05 ;   C111 - H11S  
  3079   3082   1    1.5350e-01    2.5363e+05 ;   C111 - C110  
  3082   3083   1    1.0920e-01    2.8225e+05 ;   C110 - H10R  
  3082   3084   1    1.0920e-01    2.8225e+05 ;   C110 - H10S  
  3082   3085   1    1.5350e-01    2.5363e+05 ;   C110 - C19   
  3085   3086   1    1.0920e-01    2.8225e+05 ;    C19 - H9R   
  3085   3087   1    1.0920e-01    2.8225e+05 ;    C19 - H9S   
  3085   3088   1    1.5350e-01    2.5363e+05 ;    C19 - C18   
  3088   3089   1    1.0920e-01    2.8225e+05 ;    C18 - H8R   
  3088   3090   1    1.0920e-01    2.8225e+05 ;    C18 - H8S   
  3088   3091   1    1.5350e-01    2.5363e+05 ;    C18 - C17   
  3091   3092   1    1.0920e-01    2.8225e+05 ;    C17 - H7R   
  3091   3093   1    1.0920e-01    2.8225e+05 ;    C17 - H7S   
  3091   3094   1    1.5350e-01    2.5363e+05 ;    C17 - C16   
  3094   3095   1    1.0920e-01    2.8225e+05 ;    C16 - H6R   
  3094   3096   1    1.0920e-01    2.8225e+05 ;    C16 - H6S   
  3094   3097   1    1.5350e-01    2.5363e+05 ;    C16 - C15   
  3097   3098   1    1.0920e-01    2.8225e+05 ;    C15 - H5R   
  3097   3099   1    1.0920e-01    2.8225e+05 ;    C15 - H5S   
  3097   3100   1    1.5350e-01    2.5363e+05 ;    C15 - C14   
  3100   3101   1    1.0920e-01    2.8225e+05 ;    C14 - H4R   
  3100   3102   1    1.0920e-01    2.8225e+05 ;    C14 - H4S   
  3100   3103   1    1.5350e-01    2.5363e+05 ;    C14 - C13   
  3103   3104   1    1.0920e-01    2.8225e+05 ;    C13 - H3R   
  3103   3105   1    1.0920e-01    2.8225e+05 ;    C13 - H3S   
  3103   3106   1    1.5350e-01    2.5363e+05 ;    C13 - C12   
  3106   3107   1    1.0920e-01    2.8225e+05 ;    C12 - H2R   
  3106   3108   1    1.0920e-01    2.8225e+05 ;    C12 - H2S   
  3106   3109   1    1.5080e-01    2.7472e+05 ;    C12 - C11   
  3109   3110   1    1.2140e-01    5.4225e+05 ;    C11 - O12   
  3109   3111   1    1.3430e-01    3.4418e+05 ;    C11 - O11   
  3111   3112   1    1.4390e-01    2.5230e+05 ;    O11 - C1    
  3112   3113   1    1.0930e-01    2.8108e+05 ;     C1 - HR    
  3112   3114   1    1.0930e-01    2.8108e+05 ;     C1 - HS    
  3112   3115   1    1.5350e-01    2.5363e+05 ;     C1 - C2    
  3115   3116   1    1.0930e-01    2.8108e+05 ;     C2 - HX    
  3115   3117   1    1.5350e-01    2.5363e+05 ;     C2 - C3    
  3115   3144   1    1.4390e-01    2.5230e+05 ;     C2 - O21   
  3117   3118   1    1.0930e-01    2.8108e+05 ;     C3 - HA    
  3117   3119   1    1.0930e-01    2.8108e+05 ;     C3 - HB    
  3117   3120   1    1.4390e-01    2.5230e+05 ;     C3 - O31   
  3120   3121   1    1.6100e-01    1.9246e+05 ;    O31 - P31   
  3121   3122   1    1.6100e-01    1.9246e+05 ;    P31 - O32   
  3121   3142   1    1.4800e-01    4.3932e+05 ;    P31 - O33   
  3121   3143   1    1.4800e-01    4.3932e+05 ;    P31 - O34   
  3122   3123   1    1.4390e-01    2.5230e+05 ;    O32 - C31   
  3123   3124   1    1.0930e-01    2.8108e+05 ;    C31 - H1A   
  3123   3125   1    1.0930e-01    2.8108e+05 ;    C31 - H1B   
  3123   3126   1    1.5350e-01    2.5363e+05 ;    C31 - C32   
  3126   3127   1    1.0910e-01    2.8342e+05 ;    C32 - H2A   
  3126   3128   1    1.0910e-01    2.8342e+05 ;    C32 - H2B   
  3126   3129   1    1.4990e-01    2.4568e+05 ;    C32 - N31   
  3129   3130   1    1.4990e-01    2.4568e+05 ;    N31 - C33   
  3129   3134   1    1.4990e-01    2.4568e+05 ;    N31 - C34   
  3129   3138   1    1.4990e-01    2.4568e+05 ;    N31 - C35   
  3130   3131   1    1.0910e-01    2.8342e+05 ;    C33 - H3A   
  3130   3132   1    1.0910e-01    2.8342e+05 ;    C33 - H3B   
  3130   3133   1    1.0910e-01    2.8342e+05 ;    C33 - H3C   
  3134   3135   1    1.0910e-01    2.8342e+05 ;    C34 - H4A   
  3134   3136   1    1.0910e-01    2.8342e+05 ;    C34 - H4B   
  3134   3137   1    1.0910e-01    2.8342e+05 ;    C34 - H4C   
  3138   3139   1    1.0910e-01    2.8342e+05 ;    C35 - H5A   
  3138   3140   1    1.0910e-01    2.8342e+05 ;    C35 - H5B   
  3138   3141   1    1.0910e-01    2.8342e+05 ;    C35 - H5C   
  3144   3145   1    1.3430e-01    3.4418e+05 ;    O21 - C21   
  3145   3146   1    1.2140e-01    5.4225e+05 ;    C21 - O22   
  3145   3184   1    1.5080e-01    2.7472e+05 ;    C21 - C12   
  3147   3148   1    1.0920e-01    2.8225e+05 ;   H14T - C114  
  3148   3149   1    1.0920e-01    2.8225e+05 ;   C114 - H14R  
  3148   3150   1    1.0920e-01    2.8225e+05 ;   C114 - H14S  
  3148   3151   1    1.5350e-01    2.5363e+05 ;   C114 - C113  
  3151   3152   1    1.0920e-01    2.8225e+05 ;   C113 - H13R  
  3151   3153   1    1.0920e-01    2.8225e+05 ;   C113 - H13S  
  3151   3154   1    1.5350e-01    2.5363e+05 ;   C113 - C112  
  3154   3155   1    1.0920e-01    2.8225e+05 ;   C112 - H12R  
  3154   3156   1    1.0920e-01    2.8225e+05 ;   C112 - H12S  
  3154   3157   1    1.5350e-01    2.5363e+05 ;   C112 - C111  
  3157   3158   1    1.0920e-01    2.8225e+05 ;   C111 - H11R  
  3157   3159   1    1.0920e-01    2.8225e+05 ;   C111 - H11S  
  3157   3160   1    1.5350e-01    2.5363e+05 ;   C111 - C110  
  3160   3161   1    1.0920e-01    2.8225e+05 ;   C110 - H10R  
  3160   3162   1    1.0920e-01    2.8225e+05 ;   C110 - H10S  
  3160   3163   1    1.5350e-01    2.5363e+05 ;   C110 - C19   
  3163   3164   1    1.0920e-01    2.8225e+05 ;    C19 - H9R   
  3163   3165   1    1.0920e-01    2.8225e+05 ;    C19 - H9S   
  3163   3166   1    1.5350e-01    2.5363e+05 ;    C19 - C18   
  3166   3167   1    1.0920e-01    2.8225e+05 ;    C18 - H8R   
  3166   3168   1    1.0920e-01    2.8225e+05 ;    C18 - H8S   
  3166   3169   1    1.5350e-01    2.5363e+05 ;    C18 - C17   
  3169   3170   1    1.0920e-01    2.8225e+05 ;    C17 - H7R   
  3169   3171   1    1.0920e-01    2.8225e+05 ;    C17 - H7S   
  3169   3172   1    1.5350e-01    2.5363e+05 ;    C17 - C16   
  3172   3173   1    1.0920e-01    2.8225e+05 ;    C16 - H6R   
  3172   3174   1    1.0920e-01    2.8225e+05 ;    C16 - H6S   
  3172   3175   1    1.5350e-01    2.5363e+05 ;    C16 - C15   
  3175   3176   1    1.0920e-01    2.8225e+05 ;    C15 - H5R   
  3175   3177   1    1.0920e-01    2.8225e+05 ;    C15 - H5S   
  3175   3178   1    1.5350e-01    2.5363e+05 ;    C15 - C14   
  3178   3179   1    1.0920e-01    2.8225e+05 ;    C14 - H4R   
  3178   3180   1    1.0920e-01    2.8225e+05 ;    C14 - H4S   
  3178   3181   1    1.5350e-01    2.5363e+05 ;    C14 - C13   
  3181   3182   1    1.0920e-01    2.8225e+05 ;    C13 - H3R   
  3181   3183   1    1.0920e-01    2.8225e+05 ;    C13 - H3S   
  3181   3184   1    1.5350e-01    2.5363e+05 ;    C13 - C12   
  3184   3185   1    1.0920e-01    2.8225e+05 ;    C12 - H2R   
  3184   3186   1    1.0920e-01    2.8225e+05 ;    C12 - H2S   
  3187   3188   1    1.0920e-01    2.8225e+05 ;   H14T - C114  
  3188   3189   1    1.0920e-01    2.8225e+05 ;   C114 - H14R  
  3188   3190   1    1.0920e-01    2.8225e+05 ;   C114 - H14S  
  3188   3191   1    1.5350e-01    2.5363e+05 ;   C114 - C113  
  3191   3192   1    1.0920e-01    2.8225e+05 ;   C113 - H13R  
  3191   3193   1    1.0920e-01    2.8225e+05 ;   C113 - H13S  
  3191   3194   1    1.5350e-01    2.5363e+05 ;   C113 - C112  
  3194   3195   1    1.0920e-01    2.8225e+05 ;   C112 - H12R  
  3194   3196   1    1.0920e-01    2.8225e+05 ;   C112 - H12S  
  3194   3197   1    1.5350e-01    2.5363e+05 ;   C112 - C111  
  3197   3198   1    1.0920e-01    2.8225e+05 ;   C111 - H11R  
  3197   3199   1    1.0920e-01    2.8225e+05 ;   C111 - H11S  
  3197   3200   1    1.5350e-01    2.5363e+05 ;   C111 - C110  
  3200   3201   1    1.0920e-01    2.8225e+05 ;   C110 - H10R  
  3200   3202   1    1.0920e-01    2.8225e+05 ;   C110 - H10S  
  3200   3203   1    1.5350e-01    2.5363e+05 ;   C110 - C19   
  3203   3204   1    1.0920e-01    2.8225e+05 ;    C19 - H9R   
  3203   3205   1    1.0920e-01    2.8225e+05 ;    C19 - H9S   
  3203   3206   1    1.5350e-01    2.5363e+05 ;    C19 - C18   
  3206   3207   1    1.0920e-01    2.8225e+05 ;    C18 - H8R   
  3206   3208   1    1.0920e-01    2.8225e+05 ;    C18 - H8S   
  3206   3209   1    1.5350e-01    2.5363e+05 ;    C18 - C17   
  3209   3210   1    1.0920e-01    2.8225e+05 ;    C17 - H7R   
  3209   3211   1    1.0920e-01    2.8225e+05 ;    C17 - H7S   
  3209   3212   1    1.5350e-01    2.5363e+05 ;    C17 - C16   
  3212   3213   1    1.0920e-01    2.8225e+05 ;    C16 - H6R   
  3212   3214   1    1.0920e-01    2.8225e+05 ;    C16 - H6S   
  3212   3215   1    1.5350e-01    2.5363e+05 ;    C16 - C15   
  3215   3216   1    1.0920e-01    2.8225e+05 ;    C15 - H5R   
  3215   3217   1    1.0920e-01    2.8225e+05 ;    C15 - H5S   
  3215   3218   1    1.5350e-01    2.5363e+05 ;    C15 - C14   
  3218   3219   1    1.0920e-01    2.8225e+05 ;    C14 - H4R   
  3218   3220   1    1.0920e-01    2.8225e+05 ;    C14 - H4S   
  3218   3221   1    1.5350e-01    2.5363e+05 ;    C14 - C13   
  3221   3222   1    1.0920e-01    2.8225e+05 ;    C13 - H3R   
  3221   3223   1    1.0920e-01    2.8225e+05 ;    C13 - H3S   
  3221   3224   1    1.5350e-01    2.5363e+05 ;    C13 - C12   
  3224   3225   1    1.0920e-01    2.8225e+05 ;    C12 - H2R   
  3224   3226   1    1.0920e-01    2.8225e+05 ;    C12 - H2S   
  3224   3227   1    1.5080e-01    2.7472e+05 ;    C12 - C11   
  3227   3228   1    1.2140e-01    5.4225e+05 ;    C11 - O12   
  3227   3229   1    1.3430e-01    3.4418e+05 ;    C11 - O11   
  3229   3230   1    1.4390e-01    2.5230e+05 ;    O11 - C1    
  3230   3231   1    1.0930e-01    2.8108e+05 ;     C1 - HR    
  3230   3232   1    1.0930e-01    2.8108e+05 ;     C1 - HS    
  3230   3233   1    1.5350e-01    2.5363e+05 ;     C1 - C2    
  3233   3234   1    1.0930e-01    2.8108e+05 ;     C2 - HX    
  3233   3235   1    1.5350e-01    2.5363e+05 ;     C2 - C3    
  3233   3262   1    1.4390e-01    2.5230e+05 ;     C2 - O21   
  3235   3236   1    1.0930e-01    2.8108e+05 ;     C3 - HA    
  3235   3237   1    1.0930e-01    2.8108e+05 ;     C3 - HB    
  3235   3238   1    1.4390e-01    2.5230e+05 ;     C3 - O31   
  3238   3239   1    1.6100e-01    1.9246e+05 ;    O31 - P31   
  3239   3240   1    1.6100e-01    1.9246e+05 ;    P31 - O32   
  3239   3260   1    1.4800e-01    4.3932e+05 ;    P31 - O33   
  3239   3261   1    1.4800e-01    4.3932e+05 ;    P31 - O34   
  3240   3241   1    1.4390e-01    2.5230e+05 ;    O32 - C31   
  3241   3242   1    1.0930e-01    2.8108e+05 ;    C31 - H1A   
  3241   3243   1    1.0930e-01    2.8108e+05 ;    C31 - H1B   
  3241   3244   1    1.5350e-01    2.5363e+05 ;    C31 - C32   
  3244   3245   1    1.0910e-01    2.8342e+05 ;    C32 - H2A   
  3244   3246   1    1.0910e-01    2.8342e+05 ;    C32 - H2B   
  3244   3247   1    1.4990e-01    2.4568e+05 ;    C32 - N31   
  3247   3248   1    1.4990e-01    2.4568e+05 ;    N31 - C33   
  3247   3252   1    1.4990e-01    2.4568e+05 ;    N31 - C34   
  3247   3256   1    1.4990e-01    2.4568e+05 ;    N31 - C35   
  3248   3249   1    1.0910e-01    2.8342e+05 ;    C33 - H3A   
  3248   3250   1    1.0910e-01    2.8342e+05 ;    C33 - H3B   
  3248   3251   1    1.0910e-01    2.8342e+05 ;    C33 - H3C   
  3252   3253   1    1.0910e-01    2.8342e+05 ;    C34 - H4A   
  3252   3254   1    1.0910e-01    2.8342e+05 ;    C34 - H4B   
  3252   3255   1    1.0910e-01    2.8342e+05 ;    C34 - H4C   
  3256   3257   1    1.0910e-01    2.8342e+05 ;    C35 - H5A   
  3256   3258   1    1.0910e-01    2.8342e+05 ;    C35 - H5B   
  3256   3259   1    1.0910e-01    2.8342e+05 ;    C35 - H5C   
  3262   3263   1    1.3430e-01    3.4418e+05 ;    O21 - C21   
  3263   3264   1    1.2140e-01    5.4225e+05 ;    C21 - O22   
  3263   3302   1    1.5080e-01    2.7472e+05 ;    C21 - C12   
  3265   3266   1    1.0920e-01    2.8225e+05 ;   H14T - C114  
  3266   3267   1    1.0920e-01    2.8225e+05 ;   C114 - H14R  
  3266   3268   1    1.0920e-01    2.8225e+05 ;   C114 - H14S  
  3266   3269   1    1.5350e-01    2.5363e+05 ;   C114 - C113  
  3269   3270   1    1.0920e-01    2.8225e+05 ;   C113 - H13R  
  3269   3271   1    1.0920e-01    2.8225e+05 ;   C113 - H13S  
  3269   3272   1    1.5350e-01    2.5363e+05 ;   C113 - C112  
  3272   3273   1    1.0920e-01    2.8225e+05 ;   C112 - H12R  
  3272   3274   1    1.0920e-01    2.8225e+05 ;   C112 - H12S  
  3272   3275   1    1.5350e-01    2.5363e+05 ;   C112 - C111  
  3275   3276   1    1.0920e-01    2.8225e+05 ;   C111 - H11R  
  3275   3277   1    1.0920e-01    2.8225e+05 ;   C111 - H11S  
  3275   3278   1    1.5350e-01    2.5363e+05 ;   C111 - C110  
  3278   3279   1    1.0920e-01    2.8225e+05 ;   C110 - H10R  
  3278   3280   1    1.0920e-01    2.8225e+05 ;   C110 - H10S  
  3278   3281   1    1.5350e-01    2.5363e+05 ;   C110 - C19   
  3281   3282   1    1.0920e-01    2.8225e+05 ;    C19 - H9R   
  3281   3283   1    1.0920e-01    2.8225e+05 ;    C19 - H9S   
  3281   3284   1    1.5350e-01    2.5363e+05 ;    C19 - C18   
  3284   3285   1    1.0920e-01    2.8225e+05 ;    C18 - H8R   
  3284   3286   1    1.0920e-01    2.8225e+05 ;    C18 - H8S   
  3284   3287   1    1.5350e-01    2.5363e+05 ;    C18 - C17   
  3287   3288   1    1.0920e-01    2.8225e+05 ;    C17 - H7R   
  3287   3289   1    1.0920e-01    2.8225e+05 ;    C17 - H7S   
  3287   3290   1    1.5350e-01    2.5363e+05 ;    C17 - C16   
  3290   3291   1    1.0920e-01    2.8225e+05 ;    C16 - H6R   
  3290   3292   1    1.0920e-01    2.8225e+05 ;    C16 - H6S   
  3290   3293   1    1.5350e-01    2.5363e+05 ;    C16 - C15   
  3293   3294   1    1.0920e-01    2.8225e+05 ;    C15 - H5R   
  3293   3295   1    1.0920e-01    2.8225e+05 ;    C15 - H5S   
  3293   3296   1    1.5350e-01    2.5363e+05 ;    C15 - C14   
  3296   3297   1    1.0920e-01    2.8225e+05 ;    C14 - H4R   
  3296   3298   1    1.0920e-01    2.8225e+05 ;    C14 - H4S   
  3296   3299   1    1.5350e-01    2.5363e+05 ;    C14 - C13   
  3299   3300   1    1.0920e-01    2.8225e+05 ;    C13 - H3R   
  3299   3301   1    1.0920e-01    2.8225e+05 ;    C13 - H3S   
  3299   3302   1    1.5350e-01    2.5363e+05 ;    C13 - C12   
  3302   3303   1    1.0920e-01    2.8225e+05 ;    C12 - H2R   
  3302   3304   1    1.0920e-01    2.8225e+05 ;    C12 - H2S   
  3305   3306   1    1.0920e-01    2.8225e+05 ;   H14T - C114  
  3306   3307   1    1.0920e-01    2.8225e+05 ;   C114 - H14R  
  3306   3308   1    1.0920e-01    2.8225e+05 ;   C114 - H14S  
  3306   3309   1    1.5350e-01    2.5363e+05 ;   C114 - C113  
  3309   3310   1    1.0920e-01    2.8225e+05 ;   C113 - H13R  
  3309   3311   1    1.0920e-01    2.8225e+05 ;   C113 - H13S  
  3309   3312   1    1.5350e-01    2.5363e+05 ;   C113 - C112  
  3312   3313   1    1.0920e-01    2.8225e+05 ;   C112 - H12R  
  3312   3314   1    1.0920e-01    2.8225e+05 ;   C112 - H12S  
  3312   3315   1    1.5350e-01    2.5363e+05 ;   C112 - C111  
  3315   3316   1    1.0920e-01    2.8225e+05 ;   C111 - H11R  
  3315   3317   1    1.0920e-01    2.8225e+05 ;   C111 - H11S  
  3315   3318   1    1.5350e-01    2.5363e+05 ;   C111 - C110  
  3318   3319   1    1.0920e-01    2.8225e+05 ;   C110 - H10R  
  3318   3320   1    1.0920e-01    2.8225e+05 ;   C110 - H10S  
  3318   3321   1    1.5350e-01    2.5363e+05 ;   C110 - C19   
  3321   3322   1    1.0920e-01    2.8225e+05 ;    C19 - H9R   
  3321   3323   1    1.0920e-01    2.8225e+05 ;    C19 - H9S   
  3321   3324   1    1.5350e-01    2.5363e+05 ;    C19 - C18   
  3324   3325   1    1.0920e-01    2.8225e+05 ;    C18 - H8R   
  3324   3326   1    1.0920e-01    2.8225e+05 ;    C18 - H8S   
  3324   3327   1    1.5350e-01    2.5363e+05 ;    C18 - C17   
  3327   3328   1    1.0920e-01    2.8225e+05 ;    C17 - H7R   
  3327   3329   1    1.0920e-01    2.8225e+05 ;    C17 - H7S   
  3327   3330   1    1.5350e-01    2.5363e+05 ;    C17 - C16   
  3330   3331   1    1.0920e-01    2.8225e+05 ;    C16 - H6R   
  3330   3332   1    1.0920e-01    2.8225e+05 ;    C16 - H6S   
  3330   3333   1    1.5350e-01    2.5363e+05 ;    C16 - C15   
  3333   3334   1    1.0920e-01    2.8225e+05 ;    C15 - H5R   
  3333   3335   1    1.0920e-01    2.8225e+05 ;    C15 - H5S   
  3333   3336   1    1.5350e-01    2.5363e+05 ;    C15 - C14   
  3336   3337   1    1.0920e-01    2.8225e+05 ;    C14 - H4R   
  3336   3338   1    1.0920e-01    2.8225e+05 ;    C14 - H4S   
  3336   3339   1    1.5350e-01    2.5363e+05 ;    C14 - C13   
  3339   3340   1    1.0920e-01    2.8225e+05 ;    C13 - H3R   
  3339   3341   1    1.0920e-01    2.8225e+05 ;    C13 - H3S   
  3339   3342   1    1.5350e-01    2.5363e+05 ;    C13 - C12   
  3342   3343   1    1.0920e-01    2.8225e+05 ;    C12 - H2R   
  3342   3344   1    1.0920e-01    2.8225e+05 ;    C12 - H2S   
  3342   3345   1    1.5080e-01    2.7472e+05 ;    C12 - C11   
  3345   3346   1    1.2140e-01    5.4225e+05 ;    C11 - O12   
  3345   3347   1    1.3430e-01    3.4418e+05 ;    C11 - O11   
  3347   3348   1    1.4390e-01    2.5230e+05 ;    O11 - C1    
  3348   3349   1    1.0930e-01    2.8108e+05 ;     C1 - HR    
  3348   3350   1    1.0930e-01    2.8108e+05 ;     C1 - HS    
  3348   3351   1    1.5350e-01    2.5363e+05 ;     C1 - C2    
  3351   3352   1    1.0930e-01    2.8108e+05 ;     C2 - HX    
  3351   3353   1    1.5350e-01    2.5363e+05 ;     C2 - C3    
  3351   3380   1    1.4390e-01    2.5230e+05 ;     C2 - O21   
  3353   3354   1    1.0930e-01    2.8108e+05 ;     C3 - HA    
  3353   3355   1    1.0930e-01    2.8108e+05 ;     C3 - HB    
  3353   3356   1    1.4390e-01    2.5230e+05 ;     C3 - O31   
  3356   3357   1    1.6100e-01    1.9246e+05 ;    O31 - P31   
  3357   3358   1    1.6100e-01    1.9246e+05 ;    P31 - O32   
  3357   3378   1    1.4800e-01    4.3932e+05 ;    P31 - O33   
  3357   3379   1    1.4800e-01    4.3932e+05 ;    P31 - O34   
  3358   3359   1    1.4390e-01    2.5230e+05 ;    O32 - C31   
  3359   3360   1    1.0930e-01    2.8108e+05 ;    C31 - H1A   
  3359   3361   1    1.0930e-01    2.8108e+05 ;    C31 - H1B   
  3359   3362   1    1.5350e-01    2.5363e+05 ;    C31 - C32   
  3362   3363   1    1.0910e-01    2.8342e+05 ;    C32 - H2A   
  3362   3364   1    1.0910e-01    2.8342e+05 ;    C32 - H2B   
  3362   3365   1    1.4990e-01    2.4568e+05 ;    C32 - N31   
  3365   3366   1    1.4990e-01    2.4568e+05 ;    N31 - C33   
  3365   3370   1    1.4990e-01    2.4568e+05 ;    N31 - C34   
  3365   3374   1    1.4990e-01    2.4568e+05 ;    N31 - C35   
  3366   3367   1    1.0910e-01    2.8342e+05 ;    C33 - H3A   
  3366   3368   1    1.0910e-01    2.8342e+05 ;    C33 - H3B   
  3366   3369   1    1.0910e-01    2.8342e+05 ;    C33 - H3C   
  3370   3371   1    1.0910e-01    2.8342e+05 ;    C34 - H4A   
  3370   3372   1    1.0910e-01    2.8342e+05 ;    C34 - H4B   
  3370   3373   1    1.0910e-01    2.8342e+05 ;    C34 - H4C   
  3374   3375   1    1.0910e-01    2.8342e+05 ;    C35 - H5A   
  3374   3376   1    1.0910e-01    2.8342e+05 ;    C35 - H5B   
  3374   3377   1    1.0910e-01    2.8342e+05 ;    C35 - H5C   
  3380   3381   1    1.3430e-01    3.4418e+05 ;    O21 - C21   
  3381   3382   1    1.2140e-01    5.4225e+05 ;    C21 - O22   
  3381   3420   1    1.5080e-01    2.7472e+05 ;    C21 - C12   
  3383   3384   1    1.0920e-01    2.8225e+05 ;   H14T - C114  
  3384   3385   1    1.0920e-01    2.8225e+05 ;   C114 - H14R  
  3384   3386   1    1.0920e-01    2.8225e+05 ;   C114 - H14S  
  3384   3387   1    1.5350e-01    2.5363e+05 ;   C114 - C113  
  3387   3388   1    1.0920e-01    2.8225e+05 ;   C113 - H13R  
  3387   3389   1    1.0920e-01    2.8225e+05 ;   C113 - H13S  
  3387   3390   1    1.5350e-01    2.5363e+05 ;   C113 - C112  
  3390   3391   1    1.0920e-01    2.8225e+05 ;   C112 - H12R  
  3390   3392   1    1.0920e-01    2.8225e+05 ;   C112 - H12S  
  3390   3393   1    1.5350e-01    2.5363e+05 ;   C112 - C111  
  3393   3394   1    1.0920e-01    2.8225e+05 ;   C111 - H11R  
  3393   3395   1    1.0920e-01    2.8225e+05 ;   C111 - H11S  
  3393   3396   1    1.5350e-01    2.5363e+05 ;   C111 - C110  
  3396   3397   1    1.0920e-01    2.8225e+05 ;   C110 - H10R  
  3396   3398   1    1.0920e-01    2.8225e+05 ;   C110 - H10S  
  3396   3399   1    1.5350e-01    2.5363e+05 ;   C110 - C19   
  3399   3400   1    1.0920e-01    2.8225e+05 ;    C19 - H9R   
  3399   3401   1    1.0920e-01    2.8225e+05 ;    C19 - H9S   
  3399   3402   1    1.5350e-01    2.5363e+05 ;    C19 - C18   
  3402   3403   1    1.0920e-01    2.8225e+05 ;    C18 - H8R   
  3402   3404   1    1.0920e-01    2.8225e+05 ;    C18 - H8S   
  3402   3405   1    1.5350e-01    2.5363e+05 ;    C18 - C17   
  3405   3406   1    1.0920e-01    2.8225e+05 ;    C17 - H7R   
  3405   3407   1    1.0920e-01    2.8225e+05 ;    C17 - H7S   
  3405   3408   1    1.5350e-01    2.5363e+05 ;    C17 - C16   
  3408   3409   1    1.0920e-01    2.8225e+05 ;    C16 - H6R   
  3408   3410   1    1.0920e-01    2.8225e+05 ;    C16 - H6S   
  3408   3411   1    1.5350e-01    2.5363e+05 ;    C16 - C15   
  3411   3412   1    1.0920e-01    2.8225e+05 ;    C15 - H5R   
  3411   3413   1    1.0920e-01    2.8225e+05 ;    C15 - H5S   
  3411   3414   1    1.5350e-01    2.5363e+05 ;    C15 - C14   
  3414   3415   1    1.0920e-01    2.8225e+05 ;    C14 - H4R   
  3414   3416   1    1.0920e-01    2.8225e+05 ;    C14 - H4S   
  3414   3417   1    1.5350e-01    2.5363e+05 ;    C14 - C13   
  3417   3418   1    1.0920e-01    2.8225e+05 ;    C13 - H3R   
  3417   3419   1    1.0920e-01    2.8225e+05 ;    C13 - H3S   
  3417   3420   1    1.5350e-01    2.5363e+05 ;    C13 - C12   
  3420   3421   1    1.0920e-01    2.8225e+05 ;    C12 - H2R   
  3420   3422   1    1.0920e-01    2.8225e+05 ;    C12 - H2S   
  3423   3424   1    1.0920e-01    2.8225e+05 ;   H14T - C114  
  3424   3425   1    1.0920e-01    2.8225e+05 ;   C114 - H14R  
  3424   3426   1    1.0920e-01    2.8225e+05 ;   C114 - H14S  
  3424   3427   1    1.5350e-01    2.5363e+05 ;   C114 - C113  
  3427   3428   1    1.0920e-01    2.8225e+05 ;   C113 - H13R  
  3427   3429   1    1.0920e-01    2.8225e+05 ;   C113 - H13S  
  3427   3430   1    1.5350e-01    2.5363e+05 ;   C113 - C112  
  3430   3431   1    1.0920e-01    2.8225e+05 ;   C112 - H12R  
  3430   3432   1    1.0920e-01    2.8225e+05 ;   C112 - H12S  
  3430   3433   1    1.5350e-01    2.5363e+05 ;   C112 - C111  
  3433   3434   1    1.0920e-01    2.8225e+05 ;   C111 - H11R  
  3433   3435   1    1.0920e-01    2.8225e+05 ;   C111 - H11S  
  3433   3436   1    1.5350e-01    2.5363e+05 ;   C111 - C110  
  3436   3437   1    1.0920e-01    2.8225e+05 ;   C110 - H10R  
  3436   3438   1    1.0920e-01    2.8225e+05 ;   C110 - H10S  
  3436   3439   1    1.5350e-01    2.5363e+05 ;   C110 - C19   
  3439   3440   1    1.0920e-01    2.8225e+05 ;    C19 - H9R   
  3439   3441   1    1.0920e-01    2.8225e+05 ;    C19 - H9S   
  3439   3442   1    1.5350e-01    2.5363e+05 ;    C19 - C18   
  3442   3443   1    1.0920e-01    2.8225e+05 ;    C18 - H8R   
  3442   3444   1    1.0920e-01    2.8225e+05 ;    C18 - H8S   
  3442   3445   1    1.5350e-01    2.5363e+05 ;    C18 - C17   
  3445   3446   1    1.0920e-01    2.8225e+05 ;    C17 - H7R   
  3445   3447   1    1.0920e-01    2.8225e+05 ;    C17 - H7S   
  3445   3448   1    1.5350e-01    2.5363e+05 ;    C17 - C16   
  3448   3449   1    1.0920e-01    2.8225e+05 ;    C16 - H6R   
  3448   3450   1    1.0920e-01    2.8225e+05 ;    C16 - H6S   
  3448   3451   1    1.5350e-01    2.5363e+05 ;    C16 - C15   
  3451   3452   1    1.0920e-01    2.8225e+05 ;    C15 - H5R   
  3451   3453   1    1.0920e-01    2.8225e+05 ;    C15 - H5S   
  3451   3454   1    1.5350e-01    2.5363e+05 ;    C15 - C14   
  3454   3455   1    1.0920e-01    2.8225e+05 ;    C14 - H4R   
  3454   3456   1    1.0920e-01    2.8225e+05 ;    C14 - H4S   
  3454   3457   1    1.5350e-01    2.5363e+05 ;    C14 - C13   
  3457   3458   1    1.0920e-01    2.8225e+05 ;    C13 - H3R   
  3457   3459   1    1.0920e-01    2.8225e+05 ;    C13 - H3S   
  3457   3460   1    1.5350e-01    2.5363e+05 ;    C13 - C12   
  3460   3461   1    1.0920e-01    2.8225e+05 ;    C12 - H2R   
  3460   3462   1    1.0920e-01    2.8225e+05 ;    C12 - H2S   
  3460   3463   1    1.5080e-01    2.7472e+05 ;    C12 - C11   
  3463   3464   1    1.2140e-01    5.4225e+05 ;    C11 - O12   
  3463   3465   1    1.3430e-01    3.4418e+05 ;    C11 - O11   
  3465   3466   1    1.4390e-01    2.5230e+05 ;    O11 - C1    
  3466   3467   1    1.0930e-01    2.8108e+05 ;     C1 - HR    
  3466   3468   1    1.0930e-01    2.8108e+05 ;     C1 - HS    
  3466   3469   1    1.5350e-01    2.5363e+05 ;     C1 - C2    
  3469   3470   1    1.0930e-01    2.8108e+05 ;     C2 - HX    
  3469   3471   1    1.5350e-01    2.5363e+05 ;     C2 - C3    
  3469   3498   1    1.4390e-01    2.5230e+05 ;     C2 - O21   
  3471   3472   1    1.0930e-01    2.8108e+05 ;     C3 - HA    
  3471   3473   1    1.0930e-01    2.8108e+05 ;     C3 - HB    
  3471   3474   1    1.4390e-01    2.5230e+05 ;     C3 - O31   
  3474   3475   1    1.6100e-01    1.9246e+05 ;    O31 - P31   
  3475   3476   1    1.6100e-01    1.9246e+05 ;    P31 - O32   
  3475   3496   1    1.4800e-01    4.3932e+05 ;    P31 - O33   
  3475   3497   1    1.4800e-01    4.3932e+05 ;    P31 - O34   
  3476   3477   1    1.4390e-01    2.5230e+05 ;    O32 - C31   
  3477   3478   1    1.0930e-01    2.8108e+05 ;    C31 - H1A   
  3477   3479   1    1.0930e-01    2.8108e+05 ;    C31 - H1B   
  3477   3480   1    1.5350e-01    2.5363e+05 ;    C31 - C32   
  3480   3481   1    1.0910e-01    2.8342e+05 ;    C32 - H2A   
  3480   3482   1    1.0910e-01    2.8342e+05 ;    C32 - H2B   
  3480   3483   1    1.4990e-01    2.4568e+05 ;    C32 - N31   
  3483   3484   1    1.4990e-01    2.4568e+05 ;    N31 - C33   
  3483   3488   1    1.4990e-01    2.4568e+05 ;    N31 - C34   
  3483   3492   1    1.4990e-01    2.4568e+05 ;    N31 - C35   
  3484   3485   1    1.0910e-01    2.8342e+05 ;    C33 - H3A   
  3484   3486   1    1.0910e-01    2.8342e+05 ;    C33 - H3B   
  3484   3487   1    1.0910e-01    2.8342e+05 ;    C33 - H3C   
  3488   3489   1    1.0910e-01    2.8342e+05 ;    C34 - H4A   
  3488   3490   1    1.0910e-01    2.8342e+05 ;    C34 - H4B   
  3488   3491   1    1.0910e-01    2.8342e+05 ;    C34 - H4C   
  3492   3493   1    1.0910e-01    2.8342e+05 ;    C35 - H5A   
  3492   3494   1    1.0910e-01    2.8342e+05 ;    C35 - H5B   
  3492   3495   1    1.0910e-01    2.8342e+05 ;    C35 - H5C   
  3498   3499   1    1.3430e-01    3.4418e+05 ;    O21 - C21   
  3499   3500   1    1.2140e-01    5.4225e+05 ;    C21 - O22   
  3499   3538   1    1.5080e-01    2.7472e+05 ;    C21 - C12   
  3501   3502   1    1.0920e-01    2.8225e+05 ;   H14T - C114  
  3502   3503   1    1.0920e-01    2.8225e+05 ;   C114 - H14R  
  3502   3504   1    1.0920e-01    2.8225e+05 ;   C114 - H14S  
  3502   3505   1    1.5350e-01    2.5363e+05 ;   C114 - C113  
  3505   3506   1    1.0920e-01    2.8225e+05 ;   C113 - H13R  
  3505   3507   1    1.0920e-01    2.8225e+05 ;   C113 - H13S  
  3505   3508   1    1.5350e-01    2.5363e+05 ;   C113 - C112  
  3508   3509   1    1.0920e-01    2.8225e+05 ;   C112 - H12R  
  3508   3510   1    1.0920e-01    2.8225e+05 ;   C112 - H12S  
  3508   3511   1    1.5350e-01    2.5363e+05 ;   C112 - C111  
  3511   3512   1    1.0920e-01    2.8225e+05 ;   C111 - H11R  
  3511   3513   1    1.0920e-01    2.8225e+05 ;   C111 - H11S  
  3511   3514   1    1.5350e-01    2.5363e+05 ;   C111 - C110  
  3514   3515   1    1.0920e-01    2.8225e+05 ;   C110 - H10R  
  3514   3516   1    1.0920e-01    2.8225e+05 ;   C110 - H10S  
  3514   3517   1    1.5350e-01    2.5363e+05 ;   C110 - C19   
  3517   3518   1    1.0920e-01    2.8225e+05 ;    C19 - H9R   
  3517   3519   1    1.0920e-01    2.8225e+05 ;    C19 - H9S   
  3517   3520   1    1.5350e-01    2.5363e+05 ;    C19 - C18   
  3520   3521   1    1.0920e-01    2.8225e+05 ;    C18 - H8R   
  3520   3522   1    1.0920e-01    2.8225e+05 ;    C18 - H8S   
  3520   3523   1    1.5350e-01    2.5363e+05 ;    C18 - C17   
  3523   3524   1    1.0920e-01    2.8225e+05 ;    C17 - H7R   
  3523   3525   1    1.0920e-01    2.8225e+05 ;    C17 - H7S   
  3523   3526   1    1.5350e-01    2.5363e+05 ;    C17 - C16   
  3526   3527   1    1.0920e-01    2.8225e+05 ;    C16 - H6R   
  3526   3528   1    1.0920e-01    2.8225e+05 ;    C16 - H6S   
  3526   3529   1    1.5350e-01    2.5363e+05 ;    C16 - C15   
  3529   3530   1    1.0920e-01    2.8225e+05 ;    C15 - H5R   
  3529   3531   1    1.0920e-01    2.8225e+05 ;    C15 - H5S   
  3529   3532   1    1.5350e-01    2.5363e+05 ;    C15 - C14   
  3532   3533   1    1.0920e-01    2.8225e+05 ;    C14 - H4R   
  3532   3534   1    1.0920e-01    2.8225e+05 ;    C14 - H4S   
  3532   3535   1    1.5350e-01    2.5363e+05 ;    C14 - C13   
  3535   3536   1    1.0920e-01    2.8225e+05 ;    C13 - H3R   
  3535   3537   1    1.0920e-01    2.8225e+05 ;    C13 - H3S   
  3535   3538   1    1.5350e-01    2.5363e+05 ;    C13 - C12   
  3538   3539   1    1.0920e-01    2.8225e+05 ;    C12 - H2R   
  3538   3540   1    1.0920e-01    2.8225e+05 ;    C12 - H2S   
  3541   3542   1    1.0920e-01    2.8225e+05 ;   H14T - C114  
  3542   3543   1    1.0920e-01    2.8225e+05 ;   C114 - H14R  
  3542   3544   1    1.0920e-01    2.8225e+05 ;   C114 - H14S  
  3542   3545   1    1.5350e-01    2.5363e+05 ;   C114 - C113  
  3545   3546   1    1.0920e-01    2.8225e+05 ;   C113 - H13R  
  3545   3547   1    1.0920e-01    2.8225e+05 ;   C113 - H13S  
  3545   3548   1    1.5350e-01    2.5363e+05 ;   C113 - C112  
  3548   3549   1    1.0920e-01    2.8225e+05 ;   C112 - H12R  
  3548   3550   1    1.0920e-01    2.8225e+05 ;   C112 - H12S  
  3548   3551   1    1.5350e-01    2.5363e+05 ;   C112 - C111  
  3551   3552   1    1.0920e-01    2.8225e+05 ;   C111 - H11R  
  3551   3553   1    1.0920e-01    2.8225e+05 ;   C111 - H11S  
  3551   3554   1    1.5350e-01    2.5363e+05 ;   C111 - C110  
  3554   3555   1    1.0920e-01    2.8225e+05 ;   C110 - H10R  
  3554   3556   1    1.0920e-01    2.8225e+05 ;   C110 - H10S  
  3554   3557   1    1.5350e-01    2.5363e+05 ;   C110 - C19   
  3557   3558   1    1.0920e-01    2.8225e+05 ;    C19 - H9R   
  3557   3559   1    1.0920e-01    2.8225e+05 ;    C19 - H9S   
  3557   3560   1    1.5350e-01    2.5363e+05 ;    C19 - C18   
  3560   3561   1    1.0920e-01    2.8225e+05 ;    C18 - H8R   
  3560   3562   1    1.0920e-01    2.8225e+05 ;    C18 - H8S   
  3560   3563   1    1.5350e-01    2.5363e+05 ;    C18 - C17   
  3563   3564   1    1.0920e-01    2.8225e+05 ;    C17 - H7R   
  3563   3565   1    1.0920e-01    2.8225e+05 ;    C17 - H7S   
  3563   3566   1    1.5350e-01    2.5363e+05 ;    C17 - C16   
  3566   3567   1    1.0920e-01    2.8225e+05 ;    C16 - H6R   
  3566   3568   1    1.0920e-01    2.8225e+05 ;    C16 - H6S   
  3566   3569   1    1.5350e-01    2.5363e+05 ;    C16 - C15   
  3569   3570   1    1.0920e-01    2.8225e+05 ;    C15 - H5R   
  3569   3571   1    1.0920e-01    2.8225e+05 ;    C15 - H5S   
  3569   3572   1    1.5350e-01    2.5363e+05 ;    C15 - C14   
  3572   3573   1    1.0920e-01    2.8225e+05 ;    C14 - H4R   
  3572   3574   1    1.0920e-01    2.8225e+05 ;    C14 - H4S   
  3572   3575   1    1.5350e-01    2.5363e+05 ;    C14 - C13   
  3575   3576   1    1.0920e-01    2.8225e+05 ;    C13 - H3R   
  3575   3577   1    1.0920e-01    2.8225e+05 ;    C13 - H3S   
  3575   3578   1    1.5350e-01    2.5363e+05 ;    C13 - C12   
  3578   3579   1    1.0920e-01    2.8225e+05 ;    C12 - H2R   
  3578   3580   1    1.0920e-01    2.8225e+05 ;    C12 - H2S   
  3578   3581   1    1.5080e-01    2.7472e+05 ;    C12 - C11   
  3581   3582   1    1.2140e-01    5.4225e+05 ;    C11 - O12   
  3581   3583   1    1.3430e-01    3.4418e+05 ;    C11 - O11   
  3583   3584   1    1.4390e-01    2.5230e+05 ;    O11 - C1    
  3584   3585   1    1.0930e-01    2.8108e+05 ;     C1 - HR    
  3584   3586   1    1.0930e-01    2.8108e+05 ;     C1 - HS    
  3584   3587   1    1.5350e-01    2.5363e+05 ;     C1 - C2    
  3587   3588   1    1.0930e-01    2.8108e+05 ;     C2 - HX    
  3587   3589   1    1.5350e-01    2.5363e+05 ;     C2 - C3    
  3587   3616   1    1.4390e-01    2.5230e+05 ;     C2 - O21   
  3589   3590   1    1.0930e-01    2.8108e+05 ;     C3 - HA    
  3589   3591   1    1.0930e-01    2.8108e+05 ;     C3 - HB    
  3589   3592   1    1.4390e-01    2.5230e+05 ;     C3 - O31   
  3592   3593   1    1.6100e-01    1.9246e+05 ;    O31 - P31   
  3593   3594   1    1.6100e-01    1.9246e+05 ;    P31 - O32   
  3593   3614   1    1.4800e-01    4.3932e+05 ;    P31 - O33   
  3593   3615   1    1.4800e-01    4.3932e+05 ;    P31 - O34   
  3594   3595   1    1.4390e-01    2.5230e+05 ;    O32 - C31   
  3595   3596   1    1.0930e-01    2.8108e+05 ;    C31 - H1A   
  3595   3597   1    1.0930e-01    2.8108e+05 ;    C31 - H1B   
  3595   3598   1    1.5350e-01    2.5363e+05 ;    C31 - C32   
  3598   3599   1    1.0910e-01    2.8342e+05 ;    C32 - H2A   
  3598   3600   1    1.0910e-01    2.8342e+05 ;    C32 - H2B   
  3598   3601   1    1.4990e-01    2.4568e+05 ;    C32 - N31   
  3601   3602   1    1.4990e-01    2.4568e+05 ;    N31 - C33   
  3601   3606   1    1.4990e-01    2.4568e+05 ;    N31 - C34   
  3601   3610   1    1.4990e-01    2.4568e+05 ;    N31 - C35   
  3602   3603   1    1.0910e-01    2.8342e+05 ;    C33 - H3A   
  3602   3604   1    1.0910e-01    2.8342e+05 ;    C33 - H3B   
  3602   3605   1    1.0910e-01    2.8342e+05 ;    C33 - H3C   
  3606   3607   1    1.0910e-01    2.8342e+05 ;    C34 - H4A   
  3606   3608   1    1.0910e-01    2.8342e+05 ;    C34 - H4B   
  3606   3609   1    1.0910e-01    2.8342e+05 ;    C34 - H4C   
  3610   3611   1    1.0910e-01    2.8342e+05 ;    C35 - H5A   
  3610   3612   1    1.0910e-01    2.8342e+05 ;    C35 - H5B   
  3610   3613   1    1.0910e-01    2.8342e+05 ;    C35 - H5C   
  3616   3617   1    1.3430e-01    3.4418e+05 ;    O21 - C21   
  3617   3618   1    1.2140e-01    5.4225e+05 ;    C21 - O22   
  3617   3656   1    1.5080e-01    2.7472e+05 ;    C21 - C12   
  3619   3620   1    1.0920e-01    2.8225e+05 ;   H14T - C114  
  3620   3621   1    1.0920e-01    2.8225e+05 ;   C114 - H14R  
  3620   3622   1    1.0920e-01    2.8225e+05 ;   C114 - H14S  
  3620   3623   1    1.5350e-01    2.5363e+05 ;   C114 - C113  
  3623   3624   1    1.0920e-01    2.8225e+05 ;   C113 - H13R  
  3623   3625   1    1.0920e-01    2.8225e+05 ;   C113 - H13S  
  3623   3626   1    1.5350e-01    2.5363e+05 ;   C113 - C112  
  3626   3627   1    1.0920e-01    2.8225e+05 ;   C112 - H12R  
  3626   3628   1    1.0920e-01    2.8225e+05 ;   C112 - H12S  
  3626   3629   1    1.5350e-01    2.5363e+05 ;   C112 - C111  
  3629   3630   1    1.0920e-01    2.8225e+05 ;   C111 - H11R  
  3629   3631   1    1.0920e-01    2.8225e+05 ;   C111 - H11S  
  3629   3632   1    1.5350e-01    2.5363e+05 ;   C111 - C110  
  3632   3633   1    1.0920e-01    2.8225e+05 ;   C110 - H10R  
  3632   3634   1    1.0920e-01    2.8225e+05 ;   C110 - H10S  
  3632   3635   1    1.5350e-01    2.5363e+05 ;   C110 - C19   
  3635   3636   1    1.0920e-01    2.8225e+05 ;    C19 - H9R   
  3635   3637   1    1.0920e-01    2.8225e+05 ;    C19 - H9S   
  3635   3638   1    1.5350e-01    2.5363e+05 ;    C19 - C18   
  3638   3639   1    1.0920e-01    2.8225e+05 ;    C18 - H8R   
  3638   3640   1    1.0920e-01    2.8225e+05 ;    C18 - H8S   
  3638   3641   1    1.5350e-01    2.5363e+05 ;    C18 - C17   
  3641   3642   1    1.0920e-01    2.8225e+05 ;    C17 - H7R   
  3641   3643   1    1.0920e-01    2.8225e+05 ;    C17 - H7S   
  3641   3644   1    1.5350e-01    2.5363e+05 ;    C17 - C16   
  3644   3645   1    1.0920e-01    2.8225e+05 ;    C16 - H6R   
  3644   3646   1    1.0920e-01    2.8225e+05 ;    C16 - H6S   
  3644   3647   1    1.5350e-01    2.5363e+05 ;    C16 - C15   
  3647   3648   1    1.0920e-01    2.8225e+05 ;    C15 - H5R   
  3647   3649   1    1.0920e-01    2.8225e+05 ;    C15 - H5S   
  3647   3650   1    1.5350e-01    2.5363e+05 ;    C15 - C14   
  3650   3651   1    1.0920e-01    2.8225e+05 ;    C14 - H4R   
  3650   3652   1    1.0920e-01    2.8225e+05 ;    C14 - H4S   
  3650   3653   1    1.5350e-01    2.5363e+05 ;    C14 - C13   
  3653   3654   1    1.0920e-01    2.8225e+05 ;    C13 - H3R   
  3653   3655   1    1.0920e-01    2.8225e+05 ;    C13 - H3S   
  3653   3656   1    1.5350e-01    2.5363e+05 ;    C13 - C12   
  3656   3657   1    1.0920e-01    2.8225e+05 ;    C12 - H2R   
  3656   3658   1    1.0920e-01    2.8225e+05 ;    C12 - H2S   
  3659   3660   1    1.0920e-01    2.8225e+05 ;   H14T - C114  
  3660   3661   1    1.0920e-01    2.8225e+05 ;   C114 - H14R  
  3660   3662   1    1.0920e-01    2.8225e+05 ;   C114 - H14S  
  3660   3663   1    1.5350e-01    2.5363e+05 ;   C114 - C113  
  3663   3664   1    1.0920e-01    2.8225e+05 ;   C113 - H13R  
  3663   3665   1    1.0920e-01    2.8225e+05 ;   C113 - H13S  
  3663   3666   1    1.5350e-01    2.5363e+05 ;   C113 - C112  
  3666   3667   1    1.0920e-01    2.8225e+05 ;   C112 - H12R  
  3666   3668   1    1.0920e-01    2.8225e+05 ;   C112 - H12S  
  3666   3669   1    1.5350e-01    2.5363e+05 ;   C112 - C111  
  3669   3670   1    1.0920e-01    2.8225e+05 ;   C111 - H11R  
  3669   3671   1    1.0920e-01    2.8225e+05 ;   C111 - H11S  
  3669   3672   1    1.5350e-01    2.5363e+05 ;   C111 - C110  
  3672   3673   1    1.0920e-01    2.8225e+05 ;   C110 - H10R  
  3672   3674   1    1.0920e-01    2.8225e+05 ;   C110 - H10S  
  3672   3675   1    1.5350e-01    2.5363e+05 ;   C110 - C19   
  3675   3676   1    1.0920e-01    2.8225e+05 ;    C19 - H9R   
  3675   3677   1    1.0920e-01    2.8225e+05 ;    C19 - H9S   
  3675   3678   1    1.5350e-01    2.5363e+05 ;    C19 - C18   
  3678   3679   1    1.0920e-01    2.8225e+05 ;    C18 - H8R   
  3678   3680   1    1.0920e-01    2.8225e+05 ;    C18 - H8S   
  3678   3681   1    1.5350e-01    2.5363e+05 ;    C18 - C17   
  3681   3682   1    1.0920e-01    2.8225e+05 ;    C17 - H7R   
  3681   3683   1    1.0920e-01    2.8225e+05 ;    C17 - H7S   
  3681   3684   1    1.5350e-01    2.5363e+05 ;    C17 - C16   
  3684   3685   1    1.0920e-01    2.8225e+05 ;    C16 - H6R   
  3684   3686   1    1.0920e-01    2.8225e+05 ;    C16 - H6S   
  3684   3687   1    1.5350e-01    2.5363e+05 ;    C16 - C15   
  3687   3688   1    1.0920e-01    2.8225e+05 ;    C15 - H5R   
  3687   3689   1    1.0920e-01    2.8225e+05 ;    C15 - H5S   
  3687   3690   1    1.5350e-01    2.5363e+05 ;    C15 - C14   
  3690   3691   1    1.0920e-01    2.8225e+05 ;    C14 - H4R   
  3690   3692   1    1.0920e-01    2.8225e+05 ;    C14 - H4S   
  3690   3693   1    1.5350e-01    2.5363e+05 ;    C14 - C13   
  3693   3694   1    1.0920e-01    2.8225e+05 ;    C13 - H3R   
  3693   3695   1    1.0920e-01    2.8225e+05 ;    C13 - H3S   
  3693   3696   1    1.5350e-01    2.5363e+05 ;    C13 - C12   
  3696   3697   1    1.0920e-01    2.8225e+05 ;    C12 - H2R   
  3696   3698   1    1.0920e-01    2.8225e+05 ;    C12 - H2S   
  3696   3699   1    1.5080e-01    2.7472e+05 ;    C12 - C11   
  3699   3700   1    1.2140e-01    5.4225e+05 ;    C11 - O12   
  3699   3701   1    1.3430e-01    3.4418e+05 ;    C11 - O11   
  3701   3702   1    1.4390e-01    2.5230e+05 ;    O11 - C1    
  3702   3703   1    1.0930e-01    2.8108e+05 ;     C1 - HR    
  3702   3704   1    1.0930e-01    2.8108e+05 ;     C1 - HS    
  3702   3705   1    1.5350e-01    2.5363e+05 ;     C1 - C2    
  3705   3706   1    1.0930e-01    2.8108e+05 ;     C2 - HX    
  3705   3707   1    1.5350e-01    2.5363e+05 ;     C2 - C3    
  3705   3734   1    1.4390e-01    2.5230e+05 ;     C2 - O21   
  3707   3708   1    1.0930e-01    2.8108e+05 ;     C3 - HA    
  3707   3709   1    1.0930e-01    2.8108e+05 ;     C3 - HB    
  3707   3710   1    1.4390e-01    2.5230e+05 ;     C3 - O31   
  3710   3711   1    1.6100e-01    1.9246e+05 ;    O31 - P31   
  3711   3712   1    1.6100e-01    1.9246e+05 ;    P31 - O32   
  3711   3732   1    1.4800e-01    4.3932e+05 ;    P31 - O33   
  3711   3733   1    1.4800e-01    4.3932e+05 ;    P31 - O34   
  3712   3713   1    1.4390e-01    2.5230e+05 ;    O32 - C31   
  3713   3714   1    1.0930e-01    2.8108e+05 ;    C31 - H1A   
  3713   3715   1    1.0930e-01    2.8108e+05 ;    C31 - H1B   
  3713   3716   1    1.5350e-01    2.5363e+05 ;    C31 - C32   
  3716   3717   1    1.0910e-01    2.8342e+05 ;    C32 - H2A   
  3716   3718   1    1.0910e-01    2.8342e+05 ;    C32 - H2B   
  3716   3719   1    1.4990e-01    2.4568e+05 ;    C32 - N31   
  3719   3720   1    1.4990e-01    2.4568e+05 ;    N31 - C33   
  3719   3724   1    1.4990e-01    2.4568e+05 ;    N31 - C34   
  3719   3728   1    1.4990e-01    2.4568e+05 ;    N31 - C35   
  3720   3721   1    1.0910e-01    2.8342e+05 ;    C33 - H3A   
  3720   3722   1    1.0910e-01    2.8342e+05 ;    C33 - H3B   
  3720   3723   1    1.0910e-01    2.8342e+05 ;    C33 - H3C   
  3724   3725   1    1.0910e-01    2.8342e+05 ;    C34 - H4A   
  3724   3726   1    1.0910e-01    2.8342e+05 ;    C34 - H4B   
  3724   3727   1    1.0910e-01    2.8342e+05 ;    C34 - H4C   
  3728   3729   1    1.0910e-01    2.8342e+05 ;    C35 - H5A   
  3728   3730   1    1.0910e-01    2.8342e+05 ;    C35 - H5B   
  3728   3731   1    1.0910e-01    2.8342e+05 ;    C35 - H5C   
  3734   3735   1    1.3430e-01    3.4418e+05 ;    O21 - C21   
  3735   3736   1    1.2140e-01    5.4225e+05 ;    C21 - O22   
  3735   3774   1    1.5080e-01    2.7472e+05 ;    C21 - C12   
  3737   3738   1    1.0920e-01    2.8225e+05 ;   H14T - C114  
  3738   3739   1    1.0920e-01    2.8225e+05 ;   C114 - H14R  
  3738   3740   1    1.0920e-01    2.8225e+05 ;   C114 - H14S  
  3738   3741   1    1.5350e-01    2.5363e+05 ;   C114 - C113  
  3741   3742   1    1.0920e-01    2.8225e+05 ;   C113 - H13R  
  3741   3743   1    1.0920e-01    2.8225e+05 ;   C113 - H13S  
  3741   3744   1    1.5350e-01    2.5363e+05 ;   C113 - C112  
  3744   3745   1    1.0920e-01    2.8225e+05 ;   C112 - H12R  
  3744   3746   1    1.0920e-01    2.8225e+05 ;   C112 - H12S  
  3744   3747   1    1.5350e-01    2.5363e+05 ;   C112 - C111  
  3747   3748   1    1.0920e-01    2.8225e+05 ;   C111 - H11R  
  3747   3749   1    1.0920e-01    2.8225e+05 ;   C111 - H11S  
  3747   3750   1    1.5350e-01    2.5363e+05 ;   C111 - C110  
  3750   3751   1    1.0920e-01    2.8225e+05 ;   C110 - H10R  
  3750   3752   1    1.0920e-01    2.8225e+05 ;   C110 - H10S  
  3750   3753   1    1.5350e-01    2.5363e+05 ;   C110 - C19   
  3753   3754   1    1.0920e-01    2.8225e+05 ;    C19 - H9R   
  3753   3755   1    1.0920e-01    2.8225e+05 ;    C19 - H9S   
  3753   3756   1    1.5350e-01    2.5363e+05 ;    C19 - C18   
  3756   3757   1    1.0920e-01    2.8225e+05 ;    C18 - H8R   
  3756   3758   1    1.0920e-01    2.8225e+05 ;    C18 - H8S   
  3756   3759   1    1.5350e-01    2.5363e+05 ;    C18 - C17   
  3759   3760   1    1.0920e-01    2.8225e+05 ;    C17 - H7R   
  3759   3761   1    1.0920e-01    2.8225e+05 ;    C17 - H7S   
  3759   3762   1    1.5350e-01    2.5363e+05 ;    C17 - C16   
  3762   3763   1    1.0920e-01    2.8225e+05 ;    C16 - H6R   
  3762   3764   1    1.0920e-01    2.8225e+05 ;    C16 - H6S   
  3762   3765   1    1.5350e-01    2.5363e+05 ;    C16 - C15   
  3765   3766   1    1.0920e-01    2.8225e+05 ;    C15 - H5R   
  3765   3767   1    1.0920e-01    2.8225e+05 ;    C15 - H5S   
  3765   3768   1    1.5350e-01    2.5363e+05 ;    C15 - C14   
  3768   3769   1    1.0920e-01    2.8225e+05 ;    C14 - H4R   
  3768   3770   1    1.0920e-01    2.8225e+05 ;    C14 - H4S   
  3768   3771   1    1.5350e-01    2.5363e+05 ;    C14 - C13   
  3771   3772   1    1.0920e-01    2.8225e+05 ;    C13 - H3R   
  3771   3773   1    1.0920e-01    2.8225e+05 ;    C13 - H3S   
  3771   3774   1    1.5350e-01    2.5363e+05 ;    C13 - C12   
  3774   3775   1    1.0920e-01    2.8225e+05 ;    C12 - H2R   
  3774   3776   1    1.0920e-01    2.8225e+05 ;    C12 - H2S   
  3777   3778   1    1.0920e-01    2.8225e+05 ;   H14T - C114  
  3778   3779   1    1.0920e-01    2.8225e+05 ;   C114 - H14R  
  3778   3780   1    1.0920e-01    2.8225e+05 ;   C114 - H14S  
  3778   3781   1    1.5350e-01    2.5363e+05 ;   C114 - C113  
  3781   3782   1    1.0920e-01    2.8225e+05 ;   C113 - H13R  
  3781   3783   1    1.0920e-01    2.8225e+05 ;   C113 - H13S  
  3781   3784   1    1.5350e-01    2.5363e+05 ;   C113 - C112  
  3784   3785   1    1.0920e-01    2.8225e+05 ;   C112 - H12R  
  3784   3786   1    1.0920e-01    2.8225e+05 ;   C112 - H12S  
  3784   3787   1    1.5350e-01    2.5363e+05 ;   C112 - C111  
  3787   3788   1    1.0920e-01    2.8225e+05 ;   C111 - H11R  
  3787   3789   1    1.0920e-01    2.8225e+05 ;   C111 - H11S  
  3787   3790   1    1.5350e-01    2.5363e+05 ;   C111 - C110  
  3790   3791   1    1.0920e-01    2.8225e+05 ;   C110 - H10R  
  3790   3792   1    1.0920e-01    2.8225e+05 ;   C110 - H10S  
  3790   3793   1    1.5350e-01    2.5363e+05 ;   C110 - C19   
  3793   3794   1    1.0920e-01    2.8225e+05 ;    C19 - H9R   
  3793   3795   1    1.0920e-01    2.8225e+05 ;    C19 - H9S   
  3793   3796   1    1.5350e-01    2.5363e+05 ;    C19 - C18   
  3796   3797   1    1.0920e-01    2.8225e+05 ;    C18 - H8R   
  3796   3798   1    1.0920e-01    2.8225e+05 ;    C18 - H8S   
  3796   3799   1    1.5350e-01    2.5363e+05 ;    C18 - C17   
  3799   3800   1    1.0920e-01    2.8225e+05 ;    C17 - H7R   
  3799   3801   1    1.0920e-01    2.8225e+05 ;    C17 - H7S   
  3799   3802   1    1.5350e-01    2.5363e+05 ;    C17 - C16   
  3802   3803   1    1.0920e-01    2.8225e+05 ;    C16 - H6R   
  3802   3804   1    1.0920e-01    2.8225e+05 ;    C16 - H6S   
  3802   3805   1    1.5350e-01    2.5363e+05 ;    C16 - C15   
  3805   3806   1    1.0920e-01    2.8225e+05 ;    C15 - H5R   
  3805   3807   1    1.0920e-01    2.8225e+05 ;    C15 - H5S   
  3805   3808   1    1.5350e-01    2.5363e+05 ;    C15 - C14   
  3808   3809   1    1.0920e-01    2.8225e+05 ;    C14 - H4R   
  3808   3810   1    1.0920e-01    2.8225e+05 ;    C14 - H4S   
  3808   3811   1    1.5350e-01    2.5363e+05 ;    C14 - C13   
  3811   3812   1    1.0920e-01    2.8225e+05 ;    C13 - H3R   
  3811   3813   1    1.0920e-01    2.8225e+05 ;    C13 - H3S   
  3811   3814   1    1.5350e-01    2.5363e+05 ;    C13 - C12   
  3814   3815   1    1.0920e-01    2.8225e+05 ;    C12 - H2R   
  3814   3816   1    1.0920e-01    2.8225e+05 ;    C12 - H2S   
  3814   3817   1    1.5080e-01    2.7472e+05 ;    C12 - C11   
  3817   3818   1    1.2140e-01    5.4225e+05 ;    C11 - O12   
  3817   3819   1    1.3430e-01    3.4418e+05 ;    C11 - O11   
  3819   3820   1    1.4390e-01    2.5230e+05 ;    O11 - C1    
  3820   3821   1    1.0930e-01    2.8108e+05 ;     C1 - HR    
  3820   3822   1    1.0930e-01    2.8108e+05 ;     C1 - HS    
  3820   3823   1    1.5350e-01    2.5363e+05 ;     C1 - C2    
  3823   3824   1    1.0930e-01    2.8108e+05 ;     C2 - HX    
  3823   3825   1    1.5350e-01    2.5363e+05 ;     C2 - C3    
  3823   3852   1    1.4390e-01    2.5230e+05 ;     C2 - O21   
  3825   3826   1    1.0930e-01    2.8108e+05 ;     C3 - HA    
  3825   3827   1    1.0930e-01    2.8108e+05 ;     C3 - HB    
  3825   3828   1    1.4390e-01    2.5230e+05 ;     C3 - O31   
  3828   3829   1    1.6100e-01    1.9246e+05 ;    O31 - P31   
  3829   3830   1    1.6100e-01    1.9246e+05 ;    P31 - O32   
  3829   3850   1    1.4800e-01    4.3932e+05 ;    P31 - O33   
  3829   3851   1    1.4800e-01    4.3932e+05 ;    P31 - O34   
  3830   3831   1    1.4390e-01    2.5230e+05 ;    O32 - C31   
  3831   3832   1    1.0930e-01    2.8108e+05 ;    C31 - H1A   
  3831   3833   1    1.0930e-01    2.8108e+05 ;    C31 - H1B   
  3831   3834   1    1.5350e-01    2.5363e+05 ;    C31 - C32   
  3834   3835   1    1.0910e-01    2.8342e+05 ;    C32 - H2A   
  3834   3836   1    1.0910e-01    2.8342e+05 ;    C32 - H2B   
  3834   3837   1    1.4990e-01    2.4568e+05 ;    C32 - N31   
  3837   3838   1    1.4990e-01    2.4568e+05 ;    N31 - C33   
  3837   3842   1    1.4990e-01    2.4568e+05 ;    N31 - C34   
  3837   3846   1    1.4990e-01    2.4568e+05 ;    N31 - C35   
  3838   3839   1    1.0910e-01    2.8342e+05 ;    C33 - H3A   
  3838   3840   1    1.0910e-01    2.8342e+05 ;    C33 - H3B   
  3838   3841   1    1.0910e-01    2.8342e+05 ;    C33 - H3C   
  3842   3843   1    1.0910e-01    2.8342e+05 ;    C34 - H4A   
  3842   3844   1    1.0910e-01    2.8342e+05 ;    C34 - H4B   
  3842   3845   1    1.0910e-01    2.8342e+05 ;    C34 - H4C   
  3846   3847   1    1.0910e-01    2.8342e+05 ;    C35 - H5A   
  3846   3848   1    1.0910e-01    2.8342e+05 ;    C35 - H5B   
  3846   3849   1    1.0910e-01    2.8342e+05 ;    C35 - H5C   
  3852   3853   1    1.3430e-01    3.4418e+05 ;    O21 - C21   
  3853   3854   1    1.2140e-01    5.4225e+05 ;    C21 - O22   
  3853   3892   1    1.5080e-01    2.7472e+05 ;    C21 - C12   
  3855   3856   1    1.0920e-01    2.8225e+05 ;   H14T - C114  
  3856   3857   1    1.0920e-01    2.8225e+05 ;   C114 - H14R  
  3856   3858   1    1.0920e-01    2.8225e+05 ;   C114 - H14S  
  3856   3859   1    1.5350e-01    2.5363e+05 ;   C114 - C113  
  3859   3860   1    1.0920e-01    2.8225e+05 ;   C113 - H13R  
  3859   3861   1    1.0920e-01    2.8225e+05 ;   C113 - H13S  
  3859   3862   1    1.5350e-01    2.5363e+05 ;   C113 - C112  
  3862   3863   1    1.0920e-01    2.8225e+05 ;   C112 - H12R  
  3862   3864   1    1.0920e-01    2.8225e+05 ;   C112 - H12S  
  3862   3865   1    1.5350e-01    2.5363e+05 ;   C112 - C111  
  3865   3866   1    1.0920e-01    2.8225e+05 ;   C111 - H11R  
  3865   3867   1    1.0920e-01    2.8225e+05 ;   C111 - H11S  
  3865   3868   1    1.5350e-01    2.5363e+05 ;   C111 - C110  
  3868   3869   1    1.0920e-01    2.8225e+05 ;   C110 - H10R  
  3868   3870   1    1.0920e-01    2.8225e+05 ;   C110 - H10S  
  3868   3871   1    1.5350e-01    2.5363e+05 ;   C110 - C19   
  3871   3872   1    1.0920e-01    2.8225e+05 ;    C19 - H9R   
  3871   3873   1    1.0920e-01    2.8225e+05 ;    C19 - H9S   
  3871   3874   1    1.5350e-01    2.5363e+05 ;    C19 - C18   
  3874   3875   1    1.0920e-01    2.8225e+05 ;    C18 - H8R   
  3874   3876   1    1.0920e-01    2.8225e+05 ;    C18 - H8S   
  3874   3877   1    1.5350e-01    2.5363e+05 ;    C18 - C17   
  3877   3878   1    1.0920e-01    2.8225e+05 ;    C17 - H7R   
  3877   3879   1    1.0920e-01    2.8225e+05 ;    C17 - H7S   
  3877   3880   1    1.5350e-01    2.5363e+05 ;    C17 - C16   
  3880   3881   1    1.0920e-01    2.8225e+05 ;    C16 - H6R   
  3880   3882   1    1.0920e-01    2.8225e+05 ;    C16 - H6S   
  3880   3883   1    1.5350e-01    2.5363e+05 ;    C16 - C15   
  3883   3884   1    1.0920e-01    2.8225e+05 ;    C15 - H5R   
  3883   3885   1    1.0920e-01    2.8225e+05 ;    C15 - H5S   
  3883   3886   1    1.5350e-01    2.5363e+05 ;    C15 - C14   
  3886   3887   1    1.0920e-01    2.8225e+05 ;    C14 - H4R   
  3886   3888   1    1.0920e-01    2.8225e+05 ;    C14 - H4S   
  3886   3889   1    1.5350e-01    2.5363e+05 ;    C14 - C13   
  3889   3890   1    1.0920e-01    2.8225e+05 ;    C13 - H3R   
  3889   3891   1    1.0920e-01    2.8225e+05 ;    C13 - H3S   
  3889   3892   1    1.5350e-01    2.5363e+05 ;    C13 - C12   
  3892   3893   1    1.0920e-01    2.8225e+05 ;    C12 - H2R   
  3892   3894   1    1.0920e-01    2.8225e+05 ;    C12 - H2S   
  3895   3896   1    1.0920e-01    2.8225e+05 ;   H14T - C114  
  3896   3897   1    1.0920e-01    2.8225e+05 ;   C114 - H14R  
  3896   3898   1    1.0920e-01    2.8225e+05 ;   C114 - H14S  
  3896   3899   1    1.5350e-01    2.5363e+05 ;   C114 - C113  
  3899   3900   1    1.0920e-01    2.8225e+05 ;   C113 - H13R  
  3899   3901   1    1.0920e-01    2.8225e+05 ;   C113 - H13S  
  3899   3902   1    1.5350e-01    2.5363e+05 ;   C113 - C112  
  3902   3903   1    1.0920e-01    2.8225e+05 ;   C112 - H12R  
  3902   3904   1    1.0920e-01    2.8225e+05 ;   C112 - H12S  
  3902   3905   1    1.5350e-01    2.5363e+05 ;   C112 - C111  
  3905   3906   1    1.0920e-01    2.8225e+05 ;   C111 - H11R  
  3905   3907   1    1.0920e-01    2.8225e+05 ;   C111 - H11S  
  3905   3908   1    1.5350e-01    2.5363e+05 ;   C111 - C110  
  3908   3909   1    1.0920e-01    2.8225e+05 ;   C110 - H10R  
  3908   3910   1    1.0920e-01    2.8225e+05 ;   C110 - H10S  
  3908   3911   1    1.5350e-01    2.5363e+05 ;   C110 - C19   
  3911   3912   1    1.0920e-01    2.8225e+05 ;    C19 - H9R   
  3911   3913   1    1.0920e-01    2.8225e+05 ;    C19 - H9S   
  3911   3914   1    1.5350e-01    2.5363e+05 ;    C19 - C18   
  3914   3915   1    1.0920e-01    2.8225e+05 ;    C18 - H8R   
  3914   3916   1    1.0920e-01    2.8225e+05 ;    C18 - H8S   
  3914   3917   1    1.5350e-01    2.5363e+05 ;    C18 - C17   
  3917   3918   1    1.0920e-01    2.8225e+05 ;    C17 - H7R   
  3917   3919   1    1.0920e-01    2.8225e+05 ;    C17 - H7S   
  3917   3920   1    1.5350e-01    2.5363e+05 ;    C17 - C16   
  3920   3921   1    1.0920e-01    2.8225e+05 ;    C16 - H6R   
  3920   3922   1    1.0920e-01    2.8225e+05 ;    C16 - H6S   
  3920   3923   1    1.5350e-01    2.5363e+05 ;    C16 - C15   
  3923   3924   1    1.0920e-01    2.8225e+05 ;    C15 - H5R   
  3923   3925   1    1.0920e-01    2.8225e+05 ;    C15 - H5S   
  3923   3926   1    1.5350e-01    2.5363e+05 ;    C15 - C14   
  3926   3927   1    1.0920e-01    2.8225e+05 ;    C14 - H4R   
  3926   3928   1    1.0920e-01    2.8225e+05 ;    C14 - H4S   
  3926   3929   1    1.5350e-01    2.5363e+05 ;    C14 - C13   
  3929   3930   1    1.0920e-01    2.8225e+05 ;    C13 - H3R   
  3929   3931   1    1.0920e-01    2.8225e+05 ;    C13 - H3S   
  3929   3932   1    1.5350e-01    2.5363e+05 ;    C13 - C12   
  3932   3933   1    1.0920e-01    2.8225e+05 ;    C12 - H2R   
  3932   3934   1    1.0920e-01    2.8225e+05 ;    C12 - H2S   
  3932   3935   1    1.5080e-01    2.7472e+05 ;    C12 - C11   
  3935   3936   1    1.2140e-01    5.4225e+05 ;    C11 - O12   
  3935   3937   1    1.3430e-01    3.4418e+05 ;    C11 - O11   
  3937   3938   1    1.4390e-01    2.5230e+05 ;    O11 - C1    
  3938   3939   1    1.0930e-01    2.8108e+05 ;     C1 - HR    
  3938   3940   1    1.0930e-01    2.8108e+05 ;     C1 - HS    
  3938   3941   1    1.5350e-01    2.5363e+05 ;     C1 - C2    
  3941   3942   1    1.0930e-01    2.8108e+05 ;     C2 - HX    
  3941   3943   1    1.5350e-01    2.5363e+05 ;     C2 - C3    
  3941   3970   1    1.4390e-01    2.5230e+05 ;     C2 - O21   
  3943   3944   1    1.0930e-01    2.8108e+05 ;     C3 - HA    
  3943   3945   1    1.0930e-01    2.8108e+05 ;     C3 - HB    
  3943   3946   1    1.4390e-01    2.5230e+05 ;     C3 - O31   
  3946   3947   1    1.6100e-01    1.9246e+05 ;    O31 - P31   
  3947   3948   1    1.6100e-01    1.9246e+05 ;    P31 - O32   
  3947   3968   1    1.4800e-01    4.3932e+05 ;    P31 - O33   
  3947   3969   1    1.4800e-01    4.3932e+05 ;    P31 - O34   
  3948   3949   1    1.4390e-01    2.5230e+05 ;    O32 - C31   
  3949   3950   1    1.0930e-01    2.8108e+05 ;    C31 - H1A   
  3949   3951   1    1.0930e-01    2.8108e+05 ;    C31 - H1B   
  3949   3952   1    1.5350e-01    2.5363e+05 ;    C31 - C32   
  3952   3953   1    1.0910e-01    2.8342e+05 ;    C32 - H2A   
  3952   3954   1    1.0910e-01    2.8342e+05 ;    C32 - H2B   
  3952   3955   1    1.4990e-01    2.4568e+05 ;    C32 - N31   
  3955   3956   1    1.4990e-01    2.4568e+05 ;    N31 - C33   
  3955   3960   1    1.4990e-01    2.4568e+05 ;    N31 - C34   
  3955   3964   1    1.4990e-01    2.4568e+05 ;    N31 - C35   
  3956   3957   1    1.0910e-01    2.8342e+05 ;    C33 - H3A   
  3956   3958   1    1.0910e-01    2.8342e+05 ;    C33 - H3B   
  3956   3959   1    1.0910e-01    2.8342e+05 ;    C33 - H3C   
  3960   3961   1    1.0910e-01    2.8342e+05 ;    C34 - H4A   
  3960   3962   1    1.0910e-01    2.8342e+05 ;    C34 - H4B   
  3960   3963   1    1.0910e-01    2.8342e+05 ;    C34 - H4C   
  3964   3965   1    1.0910e-01    2.8342e+05 ;    C35 - H5A   
  3964   3966   1    1.0910e-01    2.8342e+05 ;    C35 - H5B   
  3964   3967   1    1.0910e-01    2.8342e+05 ;    C35 - H5C   
  3970   3971   1    1.3430e-01    3.4418e+05 ;    O21 - C21   
  3971   3972   1    1.2140e-01    5.4225e+05 ;    C21 - O22   
  3971   4010   1    1.5080e-01    2.7472e+05 ;    C21 - C12   
  3973   3974   1    1.0920e-01    2.8225e+05 ;   H14T - C114  
  3974   3975   1    1.0920e-01    2.8225e+05 ;   C114 - H14R  
  3974   3976   1    1.0920e-01    2.8225e+05 ;   C114 - H14S  
  3974   3977   1    1.5350e-01    2.5363e+05 ;   C114 - C113  
  3977   3978   1    1.0920e-01    2.8225e+05 ;   C113 - H13R  
  3977   3979   1    1.0920e-01    2.8225e+05 ;   C113 - H13S  
  3977   3980   1    1.5350e-01    2.5363e+05 ;   C113 - C112  
  3980   3981   1    1.0920e-01    2.8225e+05 ;   C112 - H12R  
  3980   3982   1    1.0920e-01    2.8225e+05 ;   C112 - H12S  
  3980   3983   1    1.5350e-01    2.5363e+05 ;   C112 - C111  
  3983   3984   1    1.0920e-01    2.8225e+05 ;   C111 - H11R  
  3983   3985   1    1.0920e-01    2.8225e+05 ;   C111 - H11S  
  3983   3986   1    1.5350e-01    2.5363e+05 ;   C111 - C110  
  3986   3987   1    1.0920e-01    2.8225e+05 ;   C110 - H10R  
  3986   3988   1    1.0920e-01    2.8225e+05 ;   C110 - H10S  
  3986   3989   1    1.5350e-01    2.5363e+05 ;   C110 - C19   
  3989   3990   1    1.0920e-01    2.8225e+05 ;    C19 - H9R   
  3989   3991   1    1.0920e-01    2.8225e+05 ;    C19 - H9S   
  3989   3992   1    1.5350e-01    2.5363e+05 ;    C19 - C18   
  3992   3993   1    1.0920e-01    2.8225e+05 ;    C18 - H8R   
  3992   3994   1    1.0920e-01    2.8225e+05 ;    C18 - H8S   
  3992   3995   1    1.5350e-01    2.5363e+05 ;    C18 - C17   
  3995   3996   1    1.0920e-01    2.8225e+05 ;    C17 - H7R   
  3995   3997   1    1.0920e-01    2.8225e+05 ;    C17 - H7S   
  3995   3998   1    1.5350e-01    2.5363e+05 ;    C17 - C16   
  3998   3999   1    1.0920e-01    2.8225e+05 ;    C16 - H6R   
  3998   4000   1    1.0920e-01    2.8225e+05 ;    C16 - H6S   
  3998   4001   1    1.5350e-01    2.5363e+05 ;    C16 - C15   
  4001   4002   1    1.0920e-01    2.8225e+05 ;    C15 - H5R   
  4001   4003   1    1.0920e-01    2.8225e+05 ;    C15 - H5S   
  4001   4004   1    1.5350e-01    2.5363e+05 ;    C15 - C14   
  4004   4005   1    1.0920e-01    2.8225e+05 ;    C14 - H4R   
  4004   4006   1    1.0920e-01    2.8225e+05 ;    C14 - H4S   
  4004   4007   1    1.5350e-01    2.5363e+05 ;    C14 - C13   
  4007   4008   1    1.0920e-01    2.8225e+05 ;    C13 - H3R   
  4007   4009   1    1.0920e-01    2.8225e+05 ;    C13 - H3S   
  4007   4010   1    1.5350e-01    2.5363e+05 ;    C13 - C12   
  4010   4011   1    1.0920e-01    2.8225e+05 ;    C12 - H2R   
  4010   4012   1    1.0920e-01    2.8225e+05 ;    C12 - H2S   
  4013   4014   1    1.0920e-01    2.8225e+05 ;   H14T - C114  
  4014   4015   1    1.0920e-01    2.8225e+05 ;   C114 - H14R  
  4014   4016   1    1.0920e-01    2.8225e+05 ;   C114 - H14S  
  4014   4017   1    1.5350e-01    2.5363e+05 ;   C114 - C113  
  4017   4018   1    1.0920e-01    2.8225e+05 ;   C113 - H13R  
  4017   4019   1    1.0920e-01    2.8225e+05 ;   C113 - H13S  
  4017   4020   1    1.5350e-01    2.5363e+05 ;   C113 - C112  
  4020   4021   1    1.0920e-01    2.8225e+05 ;   C112 - H12R  
  4020   4022   1    1.0920e-01    2.8225e+05 ;   C112 - H12S  
  4020   4023   1    1.5350e-01    2.5363e+05 ;   C112 - C111  
  4023   4024   1    1.0920e-01    2.8225e+05 ;   C111 - H11R  
  4023   4025   1    1.0920e-01    2.8225e+05 ;   C111 - H11S  
  4023   4026   1    1.5350e-01    2.5363e+05 ;   C111 - C110  
  4026   4027   1    1.0920e-01    2.8225e+05 ;   C110 - H10R  
  4026   4028   1    1.0920e-01    2.8225e+05 ;   C110 - H10S  
  4026   4029   1    1.5350e-01    2.5363e+05 ;   C110 - C19   
  4029   4030   1    1.0920e-01    2.8225e+05 ;    C19 - H9R   
  4029   4031   1    1.0920e-01    2.8225e+05 ;    C19 - H9S   
  4029   4032   1    1.5350e-01    2.5363e+05 ;    C19 - C18   
  4032   4033   1    1.0920e-01    2.8225e+05 ;    C18 - H8R   
  4032   4034   1    1.0920e-01    2.8225e+05 ;    C18 - H8S   
  4032   4035   1    1.5350e-01    2.5363e+05 ;    C18 - C17   
  4035   4036   1    1.0920e-01    2.8225e+05 ;    C17 - H7R   
  4035   4037   1    1.0920e-01    2.8225e+05 ;    C17 - H7S   
  4035   4038   1    1.5350e-01    2.5363e+05 ;    C17 - C16   
  4038   4039   1    1.0920e-01    2.8225e+05 ;    C16 - H6R   
  4038   4040   1    1.0920e-01    2.8225e+05 ;    C16 - H6S   
  4038   4041   1    1.5350e-01    2.5363e+05 ;    C16 - C15   
  4041   4042   1    1.0920e-01    2.8225e+05 ;    C15 - H5R   
  4041   4043   1    1.0920e-01    2.8225e+05 ;    C15 - H5S   
  4041   4044   1    1.5350e-01    2.5363e+05 ;    C15 - C14   
  4044   4045   1    1.0920e-01    2.8225e+05 ;    C14 - H4R   
  4044   4046   1    1.0920e-01    2.8225e+05 ;    C14 - H4S   
  4044   4047   1    1.5350e-01    2.5363e+05 ;    C14 - C13   
  4047   4048   1    1.0920e-01    2.8225e+05 ;    C13 - H3R   
  4047   4049   1    1.0920e-01    2.8225e+05 ;    C13 - H3S   
  4047   4050   1    1.5350e-01    2.5363e+05 ;    C13 - C12   
  4050   4051   1    1.0920e-01    2.8225e+05 ;    C12 - H2R   
  4050   4052   1    1.0920e-01    2.8225e+05 ;    C12 - H2S   
  4050   4053   1    1.5080e-01    2.7472e+05 ;    C12 - C11   
  4053   4054   1    1.2140e-01    5.4225e+05 ;    C11 - O12   
  4053   4055   1    1.3430e-01    3.4418e+05 ;    C11 - O11   
  4055   4056   1    1.4390e-01    2.5230e+05 ;    O11 - C1    
  4056   4057   1    1.0930e-01    2.8108e+05 ;     C1 - HR    
  4056   4058   1    1.0930e-01    2.8108e+05 ;     C1 - HS    
  4056   4059   1    1.5350e-01    2.5363e+05 ;     C1 - C2    
  4059   4060   1    1.0930e-01    2.8108e+05 ;     C2 - HX    
  4059   4061   1    1.5350e-01    2.5363e+05 ;     C2 - C3    
  4059   4088   1    1.4390e-01    2.5230e+05 ;     C2 - O21   
  4061   4062   1    1.0930e-01    2.8108e+05 ;     C3 - HA    
  4061   4063   1    1.0930e-01    2.8108e+05 ;     C3 - HB    
  4061   4064   1    1.4390e-01    2.5230e+05 ;     C3 - O31   
  4064   4065   1    1.6100e-01    1.9246e+05 ;    O31 - P31   
  4065   4066   1    1.6100e-01    1.9246e+05 ;    P31 - O32   
  4065   4086   1    1.4800e-01    4.3932e+05 ;    P31 - O33   
  4065   4087   1    1.4800e-01    4.3932e+05 ;    P31 - O34   
  4066   4067   1    1.4390e-01    2.5230e+05 ;    O32 - C31   
  4067   4068   1    1.0930e-01    2.8108e+05 ;    C31 - H1A   
  4067   4069   1    1.0930e-01    2.8108e+05 ;    C31 - H1B   
  4067   4070   1    1.5350e-01    2.5363e+05 ;    C31 - C32   
  4070   4071   1    1.0910e-01    2.8342e+05 ;    C32 - H2A   
  4070   4072   1    1.0910e-01    2.8342e+05 ;    C32 - H2B   
  4070   4073   1    1.4990e-01    2.4568e+05 ;    C32 - N31   
  4073   4074   1    1.4990e-01    2.4568e+05 ;    N31 - C33   
  4073   4078   1    1.4990e-01    2.4568e+05 ;    N31 - C34   
  4073   4082   1    1.4990e-01    2.4568e+05 ;    N31 - C35   
  4074   4075   1    1.0910e-01    2.8342e+05 ;    C33 - H3A   
  4074   4076   1    1.0910e-01    2.8342e+05 ;    C33 - H3B   
  4074   4077   1    1.0910e-01    2.8342e+05 ;    C33 - H3C   
  4078   4079   1    1.0910e-01    2.8342e+05 ;    C34 - H4A   
  4078   4080   1    1.0910e-01    2.8342e+05 ;    C34 - H4B   
  4078   4081   1    1.0910e-01    2.8342e+05 ;    C34 - H4C   
  4082   4083   1    1.0910e-01    2.8342e+05 ;    C35 - H5A   
  4082   4084   1    1.0910e-01    2.8342e+05 ;    C35 - H5B   
  4082   4085   1    1.0910e-01    2.8342e+05 ;    C35 - H5C   
  4088   4089   1    1.3430e-01    3.4418e+05 ;    O21 - C21   
  4089   4090   1    1.2140e-01    5.4225e+05 ;    C21 - O22   
  4089   4128   1    1.5080e-01    2.7472e+05 ;    C21 - C12   
  4091   4092   1    1.0920e-01    2.8225e+05 ;   H14T - C114  
  4092   4093   1    1.0920e-01    2.8225e+05 ;   C114 - H14R  
  4092   4094   1    1.0920e-01    2.8225e+05 ;   C114 - H14S  
  4092   4095   1    1.5350e-01    2.5363e+05 ;   C114 - C113  
  4095   4096   1    1.0920e-01    2.8225e+05 ;   C113 - H13R  
  4095   4097   1    1.0920e-01    2.8225e+05 ;   C113 - H13S  
  4095   4098   1    1.5350e-01    2.5363e+05 ;   C113 - C112  
  4098   4099   1    1.0920e-01    2.8225e+05 ;   C112 - H12R  
  4098   4100   1    1.0920e-01    2.8225e+05 ;   C112 - H12S  
  4098   4101   1    1.5350e-01    2.5363e+05 ;   C112 - C111  
  4101   4102   1    1.0920e-01    2.8225e+05 ;   C111 - H11R  
  4101   4103   1    1.0920e-01    2.8225e+05 ;   C111 - H11S  
  4101   4104   1    1.5350e-01    2.5363e+05 ;   C111 - C110  
  4104   4105   1    1.0920e-01    2.8225e+05 ;   C110 - H10R  
  4104   4106   1    1.0920e-01    2.8225e+05 ;   C110 - H10S  
  4104   4107   1    1.5350e-01    2.5363e+05 ;   C110 - C19   
  4107   4108   1    1.0920e-01    2.8225e+05 ;    C19 - H9R   
  4107   4109   1    1.0920e-01    2.8225e+05 ;    C19 - H9S   
  4107   4110   1    1.5350e-01    2.5363e+05 ;    C19 - C18   
  4110   4111   1    1.0920e-01    2.8225e+05 ;    C18 - H8R   
  4110   4112   1    1.0920e-01    2.8225e+05 ;    C18 - H8S   
  4110   4113   1    1.5350e-01    2.5363e+05 ;    C18 - C17   
  4113   4114   1    1.0920e-01    2.8225e+05 ;    C17 - H7R   
  4113   4115   1    1.0920e-01    2.8225e+05 ;    C17 - H7S   
  4113   4116   1    1.5350e-01    2.5363e+05 ;    C17 - C16   
  4116   4117   1    1.0920e-01    2.8225e+05 ;    C16 - H6R   
  4116   4118   1    1.0920e-01    2.8225e+05 ;    C16 - H6S   
  4116   4119   1    1.5350e-01    2.5363e+05 ;    C16 - C15   
  4119   4120   1    1.0920e-01    2.8225e+05 ;    C15 - H5R   
  4119   4121   1    1.0920e-01    2.8225e+05 ;    C15 - H5S   
  4119   4122   1    1.5350e-01    2.5363e+05 ;    C15 - C14   
  4122   4123   1    1.0920e-01    2.8225e+05 ;    C14 - H4R   
  4122   4124   1    1.0920e-01    2.8225e+05 ;    C14 - H4S   
  4122   4125   1    1.5350e-01    2.5363e+05 ;    C14 - C13   
  4125   4126   1    1.0920e-01    2.8225e+05 ;    C13 - H3R   
  4125   4127   1    1.0920e-01    2.8225e+05 ;    C13 - H3S   
  4125   4128   1    1.5350e-01    2.5363e+05 ;    C13 - C12   
  4128   4129   1    1.0920e-01    2.8225e+05 ;    C12 - H2R   
  4128   4130   1    1.0920e-01    2.8225e+05 ;    C12 - H2S   
  4131   4132   1    1.0920e-01    2.8225e+05 ;   H14T - C114  
  4132   4133   1    1.0920e-01    2.8225e+05 ;   C114 - H14R  
  4132   4134   1    1.0920e-01    2.8225e+05 ;   C114 - H14S  
  4132   4135   1    1.5350e-01    2.5363e+05 ;   C114 - C113  
  4135   4136   1    1.0920e-01    2.8225e+05 ;   C113 - H13R  
  4135   4137   1    1.0920e-01    2.8225e+05 ;   C113 - H13S  
  4135   4138   1    1.5350e-01    2.5363e+05 ;   C113 - C112  
  4138   4139   1    1.0920e-01    2.8225e+05 ;   C112 - H12R  
  4138   4140   1    1.0920e-01    2.8225e+05 ;   C112 - H12S  
  4138   4141   1    1.5350e-01    2.5363e+05 ;   C112 - C111  
  4141   4142   1    1.0920e-01    2.8225e+05 ;   C111 - H11R  
  4141   4143   1    1.0920e-01    2.8225e+05 ;   C111 - H11S  
  4141   4144   1    1.5350e-01    2.5363e+05 ;   C111 - C110  
  4144   4145   1    1.0920e-01    2.8225e+05 ;   C110 - H10R  
  4144   4146   1    1.0920e-01    2.8225e+05 ;   C110 - H10S  
  4144   4147   1    1.5350e-01    2.5363e+05 ;   C110 - C19   
  4147   4148   1    1.0920e-01    2.8225e+05 ;    C19 - H9R   
  4147   4149   1    1.0920e-01    2.8225e+05 ;    C19 - H9S   
  4147   4150   1    1.5350e-01    2.5363e+05 ;    C19 - C18   
  4150   4151   1    1.0920e-01    2.8225e+05 ;    C18 - H8R   
  4150   4152   1    1.0920e-01    2.8225e+05 ;    C18 - H8S   
  4150   4153   1    1.5350e-01    2.5363e+05 ;    C18 - C17   
  4153   4154   1    1.0920e-01    2.8225e+05 ;    C17 - H7R   
  4153   4155   1    1.0920e-01    2.8225e+05 ;    C17 - H7S   
  4153   4156   1    1.5350e-01    2.5363e+05 ;    C17 - C16   
  4156   4157   1    1.0920e-01    2.8225e+05 ;    C16 - H6R   
  4156   4158   1    1.0920e-01    2.8225e+05 ;    C16 - H6S   
  4156   4159   1    1.5350e-01    2.5363e+05 ;    C16 - C15   
  4159   4160   1    1.0920e-01    2.8225e+05 ;    C15 - H5R   
  4159   4161   1    1.0920e-01    2.8225e+05 ;    C15 - H5S   
  4159   4162   1    1.5350e-01    2.5363e+05 ;    C15 - C14   
  4162   4163   1    1.0920e-01    2.8225e+05 ;    C14 - H4R   
  4162   4164   1    1.0920e-01    2.8225e+05 ;    C14 - H4S   
  4162   4165   1    1.5350e-01    2.5363e+05 ;    C14 - C13   
  4165   4166   1    1.0920e-01    2.8225e+05 ;    C13 - H3R   
  4165   4167   1    1.0920e-01    2.8225e+05 ;    C13 - H3S   
  4165   4168   1    1.5350e-01    2.5363e+05 ;    C13 - C12   
  4168   4169   1    1.0920e-01    2.8225e+05 ;    C12 - H2R   
  4168   4170   1    1.0920e-01    2.8225e+05 ;    C12 - H2S   
  4168   4171   1    1.5080e-01    2.7472e+05 ;    C12 - C11   
  4171   4172   1    1.2140e-01    5.4225e+05 ;    C11 - O12   
  4171   4173   1    1.3430e-01    3.4418e+05 ;    C11 - O11   
  4173   4174   1    1.4390e-01    2.5230e+05 ;    O11 - C1    
  4174   4175   1    1.0930e-01    2.8108e+05 ;     C1 - HR    
  4174   4176   1    1.0930e-01    2.8108e+05 ;     C1 - HS    
  4174   4177   1    1.5350e-01    2.5363e+05 ;     C1 - C2    
  4177   4178   1    1.0930e-01    2.8108e+05 ;     C2 - HX    
  4177   4179   1    1.5350e-01    2.5363e+05 ;     C2 - C3    
  4177   4206   1    1.4390e-01    2.5230e+05 ;     C2 - O21   
  4179   4180   1    1.0930e-01    2.8108e+05 ;     C3 - HA    
  4179   4181   1    1.0930e-01    2.8108e+05 ;     C3 - HB    
  4179   4182   1    1.4390e-01    2.5230e+05 ;     C3 - O31   
  4182   4183   1    1.6100e-01    1.9246e+05 ;    O31 - P31   
  4183   4184   1    1.6100e-01    1.9246e+05 ;    P31 - O32   
  4183   4204   1    1.4800e-01    4.3932e+05 ;    P31 - O33   
  4183   4205   1    1.4800e-01    4.3932e+05 ;    P31 - O34   
  4184   4185   1    1.4390e-01    2.5230e+05 ;    O32 - C31   
  4185   4186   1    1.0930e-01    2.8108e+05 ;    C31 - H1A   
  4185   4187   1    1.0930e-01    2.8108e+05 ;    C31 - H1B   
  4185   4188   1    1.5350e-01    2.5363e+05 ;    C31 - C32   
  4188   4189   1    1.0910e-01    2.8342e+05 ;    C32 - H2A   
  4188   4190   1    1.0910e-01    2.8342e+05 ;    C32 - H2B   
  4188   4191   1    1.4990e-01    2.4568e+05 ;    C32 - N31   
  4191   4192   1    1.4990e-01    2.4568e+05 ;    N31 - C33   
  4191   4196   1    1.4990e-01    2.4568e+05 ;    N31 - C34   
  4191   4200   1    1.4990e-01    2.4568e+05 ;    N31 - C35   
  4192   4193   1    1.0910e-01    2.8342e+05 ;    C33 - H3A   
  4192   4194   1    1.0910e-01    2.8342e+05 ;    C33 - H3B   
  4192   4195   1    1.0910e-01    2.8342e+05 ;    C33 - H3C   
  4196   4197   1    1.0910e-01    2.8342e+05 ;    C34 - H4A   
  4196   4198   1    1.0910e-01    2.8342e+05 ;    C34 - H4B   
  4196   4199   1    1.0910e-01    2.8342e+05 ;    C34 - H4C   
  4200   4201   1    1.0910e-01    2.8342e+05 ;    C35 - H5A   
  4200   4202   1    1.0910e-01    2.8342e+05 ;    C35 - H5B   
  4200   4203   1    1.0910e-01    2.8342e+05 ;    C35 - H5C   
  4206   4207   1    1.3430e-01    3.4418e+05 ;    O21 - C21   
  4207   4208   1    1.2140e-01    5.4225e+05 ;    C21 - O22   
  4207   4246   1    1.5080e-01    2.7472e+05 ;    C21 - C12   
  4209   4210   1    1.0920e-01    2.8225e+05 ;   H14T - C114  
  4210   4211   1    1.0920e-01    2.8225e+05 ;   C114 - H14R  
  4210   4212   1    1.0920e-01    2.8225e+05 ;   C114 - H14S  
  4210   4213   1    1.5350e-01    2.5363e+05 ;   C114 - C113  
  4213   4214   1    1.0920e-01    2.8225e+05 ;   C113 - H13R  
  4213   4215   1    1.0920e-01    2.8225e+05 ;   C113 - H13S  
  4213   4216   1    1.5350e-01    2.5363e+05 ;   C113 - C112  
  4216   4217   1    1.0920e-01    2.8225e+05 ;   C112 - H12R  
  4216   4218   1    1.0920e-01    2.8225e+05 ;   C112 - H12S  
  4216   4219   1    1.5350e-01    2.5363e+05 ;   C112 - C111  
  4219   4220   1    1.0920e-01    2.8225e+05 ;   C111 - H11R  
  4219   4221   1    1.0920e-01    2.8225e+05 ;   C111 - H11S  
  4219   4222   1    1.5350e-01    2.5363e+05 ;   C111 - C110  
  4222   4223   1    1.0920e-01    2.8225e+05 ;   C110 - H10R  
  4222   4224   1    1.0920e-01    2.8225e+05 ;   C110 - H10S  
  4222   4225   1    1.5350e-01    2.5363e+05 ;   C110 - C19   
  4225   4226   1    1.0920e-01    2.8225e+05 ;    C19 - H9R   
  4225   4227   1    1.0920e-01    2.8225e+05 ;    C19 - H9S   
  4225   4228   1    1.5350e-01    2.5363e+05 ;    C19 - C18   
  4228   4229   1    1.0920e-01    2.8225e+05 ;    C18 - H8R   
  4228   4230   1    1.0920e-01    2.8225e+05 ;    C18 - H8S   
  4228   4231   1    1.5350e-01    2.5363e+05 ;    C18 - C17   
  4231   4232   1    1.0920e-01    2.8225e+05 ;    C17 - H7R   
  4231   4233   1    1.0920e-01    2.8225e+05 ;    C17 - H7S   
  4231   4234   1    1.5350e-01    2.5363e+05 ;    C17 - C16   
  4234   4235   1    1.0920e-01    2.8225e+05 ;    C16 - H6R   
  4234   4236   1    1.0920e-01    2.8225e+05 ;    C16 - H6S   
  4234   4237   1    1.5350e-01    2.5363e+05 ;    C16 - C15   
  4237   4238   1    1.0920e-01    2.8225e+05 ;    C15 - H5R   
  4237   4239   1    1.0920e-01    2.8225e+05 ;    C15 - H5S   
  4237   4240   1    1.5350e-01    2.5363e+05 ;    C15 - C14   
  4240   4241   1    1.0920e-01    2.8225e+05 ;    C14 - H4R   
  4240   4242   1    1.0920e-01    2.8225e+05 ;    C14 - H4S   
  4240   4243   1    1.5350e-01    2.5363e+05 ;    C14 - C13   
  4243   4244   1    1.0920e-01    2.8225e+05 ;    C13 - H3R   
  4243   4245   1    1.0920e-01    2.8225e+05 ;    C13 - H3S   
  4243   4246   1    1.5350e-01    2.5363e+05 ;    C13 - C12   
  4246   4247   1    1.0920e-01    2.8225e+05 ;    C12 - H2R   
  4246   4248   1    1.0920e-01    2.8225e+05 ;    C12 - H2S   
  4249   4250   1    1.0920e-01    2.8225e+05 ;   H14T - C114  
  4250   4251   1    1.0920e-01    2.8225e+05 ;   C114 - H14R  
  4250   4252   1    1.0920e-01    2.8225e+05 ;   C114 - H14S  
  4250   4253   1    1.5350e-01    2.5363e+05 ;   C114 - C113  
  4253   4254   1    1.0920e-01    2.8225e+05 ;   C113 - H13R  
  4253   4255   1    1.0920e-01    2.8225e+05 ;   C113 - H13S  
  4253   4256   1    1.5350e-01    2.5363e+05 ;   C113 - C112  
  4256   4257   1    1.0920e-01    2.8225e+05 ;   C112 - H12R  
  4256   4258   1    1.0920e-01    2.8225e+05 ;   C112 - H12S  
  4256   4259   1    1.5350e-01    2.5363e+05 ;   C112 - C111  
  4259   4260   1    1.0920e-01    2.8225e+05 ;   C111 - H11R  
  4259   4261   1    1.0920e-01    2.8225e+05 ;   C111 - H11S  
  4259   4262   1    1.5350e-01    2.5363e+05 ;   C111 - C110  
  4262   4263   1    1.0920e-01    2.8225e+05 ;   C110 - H10R  
  4262   4264   1    1.0920e-01    2.8225e+05 ;   C110 - H10S  
  4262   4265   1    1.5350e-01    2.5363e+05 ;   C110 - C19   
  4265   4266   1    1.0920e-01    2.8225e+05 ;    C19 - H9R   
  4265   4267   1    1.0920e-01    2.8225e+05 ;    C19 - H9S   
  4265   4268   1    1.5350e-01    2.5363e+05 ;    C19 - C18   
  4268   4269   1    1.0920e-01    2.8225e+05 ;    C18 - H8R   
  4268   4270   1    1.0920e-01    2.8225e+05 ;    C18 - H8S   
  4268   4271   1    1.5350e-01    2.5363e+05 ;    C18 - C17   
  4271   4272   1    1.0920e-01    2.8225e+05 ;    C17 - H7R   
  4271   4273   1    1.0920e-01    2.8225e+05 ;    C17 - H7S   
  4271   4274   1    1.5350e-01    2.5363e+05 ;    C17 - C16   
  4274   4275   1    1.0920e-01    2.8225e+05 ;    C16 - H6R   
  4274   4276   1    1.0920e-01    2.8225e+05 ;    C16 - H6S   
  4274   4277   1    1.5350e-01    2.5363e+05 ;    C16 - C15   
  4277   4278   1    1.0920e-01    2.8225e+05 ;    C15 - H5R   
  4277   4279   1    1.0920e-01    2.8225e+05 ;    C15 - H5S   
  4277   4280   1    1.5350e-01    2.5363e+05 ;    C15 - C14   
  4280   4281   1    1.0920e-01    2.8225e+05 ;    C14 - H4R   
  4280   4282   1    1.0920e-01    2.8225e+05 ;    C14 - H4S   
  4280   4283   1    1.5350e-01    2.5363e+05 ;    C14 - C13   
  4283   4284   1    1.0920e-01    2.8225e+05 ;    C13 - H3R   
  4283   4285   1    1.0920e-01    2.8225e+05 ;    C13 - H3S   
  4283   4286   1    1.5350e-01    2.5363e+05 ;    C13 - C12   
  4286   4287   1    1.0920e-01    2.8225e+05 ;    C12 - H2R   
  4286   4288   1    1.0920e-01    2.8225e+05 ;    C12 - H2S   
  4286   4289   1    1.5080e-01    2.7472e+05 ;    C12 - C11   
  4289   4290   1    1.2140e-01    5.4225e+05 ;    C11 - O12   
  4289   4291   1    1.3430e-01    3.4418e+05 ;    C11 - O11   
  4291   4292   1    1.4390e-01    2.5230e+05 ;    O11 - C1    
  4292   4293   1    1.0930e-01    2.8108e+05 ;     C1 - HR    
  4292   4294   1    1.0930e-01    2.8108e+05 ;     C1 - HS    
  4292   4295   1    1.5350e-01    2.5363e+05 ;     C1 - C2    
  4295   4296   1    1.0930e-01    2.8108e+05 ;     C2 - HX    
  4295   4297   1    1.5350e-01    2.5363e+05 ;     C2 - C3    
  4295   4324   1    1.4390e-01    2.5230e+05 ;     C2 - O21   
  4297   4298   1    1.0930e-01    2.8108e+05 ;     C3 - HA    
  4297   4299   1    1.0930e-01    2.8108e+05 ;     C3 - HB    
  4297   4300   1    1.4390e-01    2.5230e+05 ;     C3 - O31   
  4300   4301   1    1.6100e-01    1.9246e+05 ;    O31 - P31   
  4301   4302   1    1.6100e-01    1.9246e+05 ;    P31 - O32   
  4301   4322   1    1.4800e-01    4.3932e+05 ;    P31 - O33   
  4301   4323   1    1.4800e-01    4.3932e+05 ;    P31 - O34   
  4302   4303   1    1.4390e-01    2.5230e+05 ;    O32 - C31   
  4303   4304   1    1.0930e-01    2.8108e+05 ;    C31 - H1A   
  4303   4305   1    1.0930e-01    2.8108e+05 ;    C31 - H1B   
  4303   4306   1    1.5350e-01    2.5363e+05 ;    C31 - C32   
  4306   4307   1    1.0910e-01    2.8342e+05 ;    C32 - H2A   
  4306   4308   1    1.0910e-01    2.8342e+05 ;    C32 - H2B   
  4306   4309   1    1.4990e-01    2.4568e+05 ;    C32 - N31   
  4309   4310   1    1.4990e-01    2.4568e+05 ;    N31 - C33   
  4309   4314   1    1.4990e-01    2.4568e+05 ;    N31 - C34   
  4309   4318   1    1.4990e-01    2.4568e+05 ;    N31 - C35   
  4310   4311   1    1.0910e-01    2.8342e+05 ;    C33 - H3A   
  4310   4312   1    1.0910e-01    2.8342e+05 ;    C33 - H3B   
  4310   4313   1    1.0910e-01    2.8342e+05 ;    C33 - H3C   
  4314   4315   1    1.0910e-01    2.8342e+05 ;    C34 - H4A   
  4314   4316   1    1.0910e-01    2.8342e+05 ;    C34 - H4B   
  4314   4317   1    1.0910e-01    2.8342e+05 ;    C34 - H4C   
  4318   4319   1    1.0910e-01    2.8342e+05 ;    C35 - H5A   
  4318   4320   1    1.0910e-01    2.8342e+05 ;    C35 - H5B   
  4318   4321   1    1.0910e-01    2.8342e+05 ;    C35 - H5C   
  4324   4325   1    1.3430e-01    3.4418e+05 ;    O21 - C21   
  4325   4326   1    1.2140e-01    5.4225e+05 ;    C21 - O22   
  4325   4364   1    1.5080e-01    2.7472e+05 ;    C21 - C12   
  4327   4328   1    1.0920e-01    2.8225e+05 ;   H14T - C114  
  4328   4329   1    1.0920e-01    2.8225e+05 ;   C114 - H14R  
  4328   4330   1    1.0920e-01    2.8225e+05 ;   C114 - H14S  
  4328   4331   1    1.5350e-01    2.5363e+05 ;   C114 - C113  
  4331   4332   1    1.0920e-01    2.8225e+05 ;   C113 - H13R  
  4331   4333   1    1.0920e-01    2.8225e+05 ;   C113 - H13S  
  4331   4334   1    1.5350e-01    2.5363e+05 ;   C113 - C112  
  4334   4335   1    1.0920e-01    2.8225e+05 ;   C112 - H12R  
  4334   4336   1    1.0920e-01    2.8225e+05 ;   C112 - H12S  
  4334   4337   1    1.5350e-01    2.5363e+05 ;   C112 - C111  
  4337   4338   1    1.0920e-01    2.8225e+05 ;   C111 - H11R  
  4337   4339   1    1.0920e-01    2.8225e+05 ;   C111 - H11S  
  4337   4340   1    1.5350e-01    2.5363e+05 ;   C111 - C110  
  4340   4341   1    1.0920e-01    2.8225e+05 ;   C110 - H10R  
  4340   4342   1    1.0920e-01    2.8225e+05 ;   C110 - H10S  
  4340   4343   1    1.5350e-01    2.5363e+05 ;   C110 - C19   
  4343   4344   1    1.0920e-01    2.8225e+05 ;    C19 - H9R   
  4343   4345   1    1.0920e-01    2.8225e+05 ;    C19 - H9S   
  4343   4346   1    1.5350e-01    2.5363e+05 ;    C19 - C18   
  4346   4347   1    1.0920e-01    2.8225e+05 ;    C18 - H8R   
  4346   4348   1    1.0920e-01    2.8225e+05 ;    C18 - H8S   
  4346   4349   1    1.5350e-01    2.5363e+05 ;    C18 - C17   
  4349   4350   1    1.0920e-01    2.8225e+05 ;    C17 - H7R   
  4349   4351   1    1.0920e-01    2.8225e+05 ;    C17 - H7S   
  4349   4352   1    1.5350e-01    2.5363e+05 ;    C17 - C16   
  4352   4353   1    1.0920e-01    2.8225e+05 ;    C16 - H6R   
  4352   4354   1    1.0920e-01    2.8225e+05 ;    C16 - H6S   
  4352   4355   1    1.5350e-01    2.5363e+05 ;    C16 - C15   
  4355   4356   1    1.0920e-01    2.8225e+05 ;    C15 - H5R   
  4355   4357   1    1.0920e-01    2.8225e+05 ;    C15 - H5S   
  4355   4358   1    1.5350e-01    2.5363e+05 ;    C15 - C14   
  4358   4359   1    1.0920e-01    2.8225e+05 ;    C14 - H4R   
  4358   4360   1    1.0920e-01    2.8225e+05 ;    C14 - H4S   
  4358   4361   1    1.5350e-01    2.5363e+05 ;    C14 - C13   
  4361   4362   1    1.0920e-01    2.8225e+05 ;    C13 - H3R   
  4361   4363   1    1.0920e-01    2.8225e+05 ;    C13 - H3S   
  4361   4364   1    1.5350e-01    2.5363e+05 ;    C13 - C12   
  4364   4365   1    1.0920e-01    2.8225e+05 ;    C12 - H2R   
  4364   4366   1    1.0920e-01    2.8225e+05 ;    C12 - H2S   
  4367   4368   1    1.0920e-01    2.8225e+05 ;   H14T - C114  
  4368   4369   1    1.0920e-01    2.8225e+05 ;   C114 - H14R  
  4368   4370   1    1.0920e-01    2.8225e+05 ;   C114 - H14S  
  4368   4371   1    1.5350e-01    2.5363e+05 ;   C114 - C113  
  4371   4372   1    1.0920e-01    2.8225e+05 ;   C113 - H13R  
  4371   4373   1    1.0920e-01    2.8225e+05 ;   C113 - H13S  
  4371   4374   1    1.5350e-01    2.5363e+05 ;   C113 - C112  
  4374   4375   1    1.0920e-01    2.8225e+05 ;   C112 - H12R  
  4374   4376   1    1.0920e-01    2.8225e+05 ;   C112 - H12S  
  4374   4377   1    1.5350e-01    2.5363e+05 ;   C112 - C111  
  4377   4378   1    1.0920e-01    2.8225e+05 ;   C111 - H11R  
  4377   4379   1    1.0920e-01    2.8225e+05 ;   C111 - H11S  
  4377   4380   1    1.5350e-01    2.5363e+05 ;   C111 - C110  
  4380   4381   1    1.0920e-01    2.8225e+05 ;   C110 - H10R  
  4380   4382   1    1.0920e-01    2.8225e+05 ;   C110 - H10S  
  4380   4383   1    1.5350e-01    2.5363e+05 ;   C110 - C19   
  4383   4384   1    1.0920e-01    2.8225e+05 ;    C19 - H9R   
  4383   4385   1    1.0920e-01    2.8225e+05 ;    C19 - H9S   
  4383   4386   1    1.5350e-01    2.5363e+05 ;    C19 - C18   
  4386   4387   1    1.0920e-01    2.8225e+05 ;    C18 - H8R   
  4386   4388   1    1.0920e-01    2.8225e+05 ;    C18 - H8S   
  4386   4389   1    1.5350e-01    2.5363e+05 ;    C18 - C17   
  4389   4390   1    1.0920e-01    2.8225e+05 ;    C17 - H7R   
  4389   4391   1    1.0920e-01    2.8225e+05 ;    C17 - H7S   
  4389   4392   1    1.5350e-01    2.5363e+05 ;    C17 - C16   
  4392   4393   1    1.0920e-01    2.8225e+05 ;    C16 - H6R   
  4392   4394   1    1.0920e-01    2.8225e+05 ;    C16 - H6S   
  4392   4395   1    1.5350e-01    2.5363e+05 ;    C16 - C15   
  4395   4396   1    1.0920e-01    2.8225e+05 ;    C15 - H5R   
  4395   4397   1    1.0920e-01    2.8225e+05 ;    C15 - H5S   
  4395   4398   1    1.5350e-01    2.5363e+05 ;    C15 - C14   
  4398   4399   1    1.0920e-01    2.8225e+05 ;    C14 - H4R   
  4398   4400   1    1.0920e-01    2.8225e+05 ;    C14 - H4S   
  4398   4401   1    1.5350e-01    2.5363e+05 ;    C14 - C13   
  4401   4402   1    1.0920e-01    2.8225e+05 ;    C13 - H3R   
  4401   4403   1    1.0920e-01    2.8225e+05 ;    C13 - H3S   
  4401   4404   1    1.5350e-01    2.5363e+05 ;    C13 - C12   
  4404   4405   1    1.0920e-01    2.8225e+05 ;    C12 - H2R   
  4404   4406   1    1.0920e-01    2.8225e+05 ;    C12 - H2S   
  4404   4407   1    1.5080e-01    2.7472e+05 ;    C12 - C11   
  4407   4408   1    1.2140e-01    5.4225e+05 ;    C11 - O12   
  4407   4409   1    1.3430e-01    3.4418e+05 ;    C11 - O11   
  4409   4410   1    1.4390e-01    2.5230e+05 ;    O11 - C1    
  4410   4411   1    1.0930e-01    2.8108e+05 ;     C1 - HR    
  4410   4412   1    1.0930e-01    2.8108e+05 ;     C1 - HS    
  4410   4413   1    1.5350e-01    2.5363e+05 ;     C1 - C2    
  4413   4414   1    1.0930e-01    2.8108e+05 ;     C2 - HX    
  4413   4415   1    1.5350e-01    2.5363e+05 ;     C2 - C3    
  4413   4442   1    1.4390e-01    2.5230e+05 ;     C2 - O21   
  4415   4416   1    1.0930e-01    2.8108e+05 ;     C3 - HA    
  4415   4417   1    1.0930e-01    2.8108e+05 ;     C3 - HB    
  4415   4418   1    1.4390e-01    2.5230e+05 ;     C3 - O31   
  4418   4419   1    1.6100e-01    1.9246e+05 ;    O31 - P31   
  4419   4420   1    1.6100e-01    1.9246e+05 ;    P31 - O32   
  4419   4440   1    1.4800e-01    4.3932e+05 ;    P31 - O33   
  4419   4441   1    1.4800e-01    4.3932e+05 ;    P31 - O34   
  4420   4421   1    1.4390e-01    2.5230e+05 ;    O32 - C31   
  4421   4422   1    1.0930e-01    2.8108e+05 ;    C31 - H1A   
  4421   4423   1    1.0930e-01    2.8108e+05 ;    C31 - H1B   
  4421   4424   1    1.5350e-01    2.5363e+05 ;    C31 - C32   
  4424   4425   1    1.0910e-01    2.8342e+05 ;    C32 - H2A   
  4424   4426   1    1.0910e-01    2.8342e+05 ;    C32 - H2B   
  4424   4427   1    1.4990e-01    2.4568e+05 ;    C32 - N31   
  4427   4428   1    1.4990e-01    2.4568e+05 ;    N31 - C33   
  4427   4432   1    1.4990e-01    2.4568e+05 ;    N31 - C34   
  4427   4436   1    1.4990e-01    2.4568e+05 ;    N31 - C35   
  4428   4429   1    1.0910e-01    2.8342e+05 ;    C33 - H3A   
  4428   4430   1    1.0910e-01    2.8342e+05 ;    C33 - H3B   
  4428   4431   1    1.0910e-01    2.8342e+05 ;    C33 - H3C   
  4432   4433   1    1.0910e-01    2.8342e+05 ;    C34 - H4A   
  4432   4434   1    1.0910e-01    2.8342e+05 ;    C34 - H4B   
  4432   4435   1    1.0910e-01    2.8342e+05 ;    C34 - H4C   
  4436   4437   1    1.0910e-01    2.8342e+05 ;    C35 - H5A   
  4436   4438   1    1.0910e-01    2.8342e+05 ;    C35 - H5B   
  4436   4439   1    1.0910e-01    2.8342e+05 ;    C35 - H5C   
  4442   4443   1    1.3430e-01    3.4418e+05 ;    O21 - C21   
  4443   4444   1    1.2140e-01    5.4225e+05 ;    C21 - O22   
  4443   4482   1    1.5080e-01    2.7472e+05 ;    C21 - C12   
  4445   4446   1    1.0920e-01    2.8225e+05 ;   H14T - C114  
  4446   4447   1    1.0920e-01    2.8225e+05 ;   C114 - H14R  
  4446   4448   1    1.0920e-01    2.8225e+05 ;   C114 - H14S  
  4446   4449   1    1.5350e-01    2.5363e+05 ;   C114 - C113  
  4449   4450   1    1.0920e-01    2.8225e+05 ;   C113 - H13R  
  4449   4451   1    1.0920e-01    2.8225e+05 ;   C113 - H13S  
  4449   4452   1    1.5350e-01    2.5363e+05 ;   C113 - C112  
  4452   4453   1    1.0920e-01    2.8225e+05 ;   C112 - H12R  
  4452   4454   1    1.0920e-01    2.8225e+05 ;   C112 - H12S  
  4452   4455   1    1.5350e-01    2.5363e+05 ;   C112 - C111  
  4455   4456   1    1.0920e-01    2.8225e+05 ;   C111 - H11R  
  4455   4457   1    1.0920e-01    2.8225e+05 ;   C111 - H11S  
  4455   4458   1    1.5350e-01    2.5363e+05 ;   C111 - C110  
  4458   4459   1    1.0920e-01    2.8225e+05 ;   C110 - H10R  
  4458   4460   1    1.0920e-01    2.8225e+05 ;   C110 - H10S  
  4458   4461   1    1.5350e-01    2.5363e+05 ;   C110 - C19   
  4461   4462   1    1.0920e-01    2.8225e+05 ;    C19 - H9R   
  4461   4463   1    1.0920e-01    2.8225e+05 ;    C19 - H9S   
  4461   4464   1    1.5350e-01    2.5363e+05 ;    C19 - C18   
  4464   4465   1    1.0920e-01    2.8225e+05 ;    C18 - H8R   
  4464   4466   1    1.0920e-01    2.8225e+05 ;    C18 - H8S   
  4464   4467   1    1.5350e-01    2.5363e+05 ;    C18 - C17   
  4467   4468   1    1.0920e-01    2.8225e+05 ;    C17 - H7R   
  4467   4469   1    1.0920e-01    2.8225e+05 ;    C17 - H7S   
  4467   4470   1    1.5350e-01    2.5363e+05 ;    C17 - C16   
  4470   4471   1    1.0920e-01    2.8225e+05 ;    C16 - H6R   
  4470   4472   1    1.0920e-01    2.8225e+05 ;    C16 - H6S   
  4470   4473   1    1.5350e-01    2.5363e+05 ;    C16 - C15   
  4473   4474   1    1.0920e-01    2.8225e+05 ;    C15 - H5R   
  4473   4475   1    1.0920e-01    2.8225e+05 ;    C15 - H5S   
  4473   4476   1    1.5350e-01    2.5363e+05 ;    C15 - C14   
  4476   4477   1    1.0920e-01    2.8225e+05 ;    C14 - H4R   
  4476   4478   1    1.0920e-01    2.8225e+05 ;    C14 - H4S   
  4476   4479   1    1.5350e-01    2.5363e+05 ;    C14 - C13   
  4479   4480   1    1.0920e-01    2.8225e+05 ;    C13 - H3R   
  4479   4481   1    1.0920e-01    2.8225e+05 ;    C13 - H3S   
  4479   4482   1    1.5350e-01    2.5363e+05 ;    C13 - C12   
  4482   4483   1    1.0920e-01    2.8225e+05 ;    C12 - H2R   
  4482   4484   1    1.0920e-01    2.8225e+05 ;    C12 - H2S   
  4485   4486   1    1.0920e-01    2.8225e+05 ;   H14T - C114  
  4486   4487   1    1.0920e-01    2.8225e+05 ;   C114 - H14R  
  4486   4488   1    1.0920e-01    2.8225e+05 ;   C114 - H14S  
  4486   4489   1    1.5350e-01    2.5363e+05 ;   C114 - C113  
  4489   4490   1    1.0920e-01    2.8225e+05 ;   C113 - H13R  
  4489   4491   1    1.0920e-01    2.8225e+05 ;   C113 - H13S  
  4489   4492   1    1.5350e-01    2.5363e+05 ;   C113 - C112  
  4492   4493   1    1.0920e-01    2.8225e+05 ;   C112 - H12R  
  4492   4494   1    1.0920e-01    2.8225e+05 ;   C112 - H12S  
  4492   4495   1    1.5350e-01    2.5363e+05 ;   C112 - C111  
  4495   4496   1    1.0920e-01    2.8225e+05 ;   C111 - H11R  
  4495   4497   1    1.0920e-01    2.8225e+05 ;   C111 - H11S  
  4495   4498   1    1.5350e-01    2.5363e+05 ;   C111 - C110  
  4498   4499   1    1.0920e-01    2.8225e+05 ;   C110 - H10R  
  4498   4500   1    1.0920e-01    2.8225e+05 ;   C110 - H10S  
  4498   4501   1    1.5350e-01    2.5363e+05 ;   C110 - C19   
  4501   4502   1    1.0920e-01    2.8225e+05 ;    C19 - H9R   
  4501   4503   1    1.0920e-01    2.8225e+05 ;    C19 - H9S   
  4501   4504   1    1.5350e-01    2.5363e+05 ;    C19 - C18   
  4504   4505   1    1.0920e-01    2.8225e+05 ;    C18 - H8R   
  4504   4506   1    1.0920e-01    2.8225e+05 ;    C18 - H8S   
  4504   4507   1    1.5350e-01    2.5363e+05 ;    C18 - C17   
  4507   4508   1    1.0920e-01    2.8225e+05 ;    C17 - H7R   
  4507   4509   1    1.0920e-01    2.8225e+05 ;    C17 - H7S   
  4507   4510   1    1.5350e-01    2.5363e+05 ;    C17 - C16   
  4510   4511   1    1.0920e-01    2.8225e+05 ;    C16 - H6R   
  4510   4512   1    1.0920e-01    2.8225e+05 ;    C16 - H6S   
  4510   4513   1    1.5350e-01    2.5363e+05 ;    C16 - C15   
  4513   4514   1    1.0920e-01    2.8225e+05 ;    C15 - H5R   
  4513   4515   1    1.0920e-01    2.8225e+05 ;    C15 - H5S   
  4513   4516   1    1.5350e-01    2.5363e+05 ;    C15 - C14   
  4516   4517   1    1.0920e-01    2.8225e+05 ;    C14 - H4R   
  4516   4518   1    1.0920e-01    2.8225e+05 ;    C14 - H4S   
  4516   4519   1    1.5350e-01    2.5363e+05 ;    C14 - C13   
  4519   4520   1    1.0920e-01    2.8225e+05 ;    C13 - H3R   
  4519   4521   1    1.0920e-01    2.8225e+05 ;    C13 - H3S   
  4519   4522   1    1.5350e-01    2.5363e+05 ;    C13 - C12   
  4522   4523   1    1.0920e-01    2.8225e+05 ;    C12 - H2R   
  4522   4524   1    1.0920e-01    2.8225e+05 ;    C12 - H2S   
  4522   4525   1    1.5080e-01    2.7472e+05 ;    C12 - C11   
  4525   4526   1    1.2140e-01    5.4225e+05 ;    C11 - O12   
  4525   4527   1    1.3430e-01    3.4418e+05 ;    C11 - O11   
  4527   4528   1    1.4390e-01    2.5230e+05 ;    O11 - C1    
  4528   4529   1    1.0930e-01    2.8108e+05 ;     C1 - HR    
  4528   4530   1    1.0930e-01    2.8108e+05 ;     C1 - HS    
  4528   4531   1    1.5350e-01    2.5363e+05 ;     C1 - C2    
  4531   4532   1    1.0930e-01    2.8108e+05 ;     C2 - HX    
  4531   4533   1    1.5350e-01    2.5363e+05 ;     C2 - C3    
  4531   4560   1    1.4390e-01    2.5230e+05 ;     C2 - O21   
  4533   4534   1    1.0930e-01    2.8108e+05 ;     C3 - HA    
  4533   4535   1    1.0930e-01    2.8108e+05 ;     C3 - HB    
  4533   4536   1    1.4390e-01    2.5230e+05 ;     C3 - O31   
  4536   4537   1    1.6100e-01    1.9246e+05 ;    O31 - P31   
  4537   4538   1    1.6100e-01    1.9246e+05 ;    P31 - O32   
  4537   4558   1    1.4800e-01    4.3932e+05 ;    P31 - O33   
  4537   4559   1    1.4800e-01    4.3932e+05 ;    P31 - O34   
  4538   4539   1    1.4390e-01    2.5230e+05 ;    O32 - C31   
  4539   4540   1    1.0930e-01    2.8108e+05 ;    C31 - H1A   
  4539   4541   1    1.0930e-01    2.8108e+05 ;    C31 - H1B   
  4539   4542   1    1.5350e-01    2.5363e+05 ;    C31 - C32   
  4542   4543   1    1.0910e-01    2.8342e+05 ;    C32 - H2A   
  4542   4544   1    1.0910e-01    2.8342e+05 ;    C32 - H2B   
  4542   4545   1    1.4990e-01    2.4568e+05 ;    C32 - N31   
  4545   4546   1    1.4990e-01    2.4568e+05 ;    N31 - C33   
  4545   4550   1    1.4990e-01    2.4568e+05 ;    N31 - C34   
  4545   4554   1    1.4990e-01    2.4568e+05 ;    N31 - C35   
  4546   4547   1    1.0910e-01    2.8342e+05 ;    C33 - H3A   
  4546   4548   1    1.0910e-01    2.8342e+05 ;    C33 - H3B   
  4546   4549   1    1.0910e-01    2.8342e+05 ;    C33 - H3C   
  4550   4551   1    1.0910e-01    2.8342e+05 ;    C34 - H4A   
  4550   4552   1    1.0910e-01    2.8342e+05 ;    C34 - H4B   
  4550   4553   1    1.0910e-01    2.8342e+05 ;    C34 - H4C   
  4554   4555   1    1.0910e-01    2.8342e+05 ;    C35 - H5A   
  4554   4556   1    1.0910e-01    2.8342e+05 ;    C35 - H5B   
  4554   4557   1    1.0910e-01    2.8342e+05 ;    C35 - H5C   
  4560   4561   1    1.3430e-01    3.4418e+05 ;    O21 - C21   
  4561   4562   1    1.2140e-01    5.4225e+05 ;    C21 - O22   
  4561   4600   1    1.5080e-01    2.7472e+05 ;    C21 - C12   
  4563   4564   1    1.0920e-01    2.8225e+05 ;   H14T - C114  
  4564   4565   1    1.0920e-01    2.8225e+05 ;   C114 - H14R  
  4564   4566   1    1.0920e-01    2.8225e+05 ;   C114 - H14S  
  4564   4567   1    1.5350e-01    2.5363e+05 ;   C114 - C113  
  4567   4568   1    1.0920e-01    2.8225e+05 ;   C113 - H13R  
  4567   4569   1    1.0920e-01    2.8225e+05 ;   C113 - H13S  
  4567   4570   1    1.5350e-01    2.5363e+05 ;   C113 - C112  
  4570   4571   1    1.0920e-01    2.8225e+05 ;   C112 - H12R  
  4570   4572   1    1.0920e-01    2.8225e+05 ;   C112 - H12S  
  4570   4573   1    1.5350e-01    2.5363e+05 ;   C112 - C111  
  4573   4574   1    1.0920e-01    2.8225e+05 ;   C111 - H11R  
  4573   4575   1    1.0920e-01    2.8225e+05 ;   C111 - H11S  
  4573   4576   1    1.5350e-01    2.5363e+05 ;   C111 - C110  
  4576   4577   1    1.0920e-01    2.8225e+05 ;   C110 - H10R  
  4576   4578   1    1.0920e-01    2.8225e+05 ;   C110 - H10S  
  4576   4579   1    1.5350e-01    2.5363e+05 ;   C110 - C19   
  4579   4580   1    1.0920e-01    2.8225e+05 ;    C19 - H9R   
  4579   4581   1    1.0920e-01    2.8225e+05 ;    C19 - H9S   
  4579   4582   1    1.5350e-01    2.5363e+05 ;    C19 - C18   
  4582   4583   1    1.0920e-01    2.8225e+05 ;    C18 - H8R   
  4582   4584   1    1.0920e-01    2.8225e+05 ;    C18 - H8S   
  4582   4585   1    1.5350e-01    2.5363e+05 ;    C18 - C17   
  4585   4586   1    1.0920e-01    2.8225e+05 ;    C17 - H7R   
  4585   4587   1    1.0920e-01    2.8225e+05 ;    C17 - H7S   
  4585   4588   1    1.5350e-01    2.5363e+05 ;    C17 - C16   
  4588   4589   1    1.0920e-01    2.8225e+05 ;    C16 - H6R   
  4588   4590   1    1.0920e-01    2.8225e+05 ;    C16 - H6S   
  4588   4591   1    1.5350e-01    2.5363e+05 ;    C16 - C15   
  4591   4592   1    1.0920e-01    2.8225e+05 ;    C15 - H5R   
  4591   4593   1    1.0920e-01    2.8225e+05 ;    C15 - H5S   
  4591   4594   1    1.5350e-01    2.5363e+05 ;    C15 - C14   
  4594   4595   1    1.0920e-01    2.8225e+05 ;    C14 - H4R   
  4594   4596   1    1.0920e-01    2.8225e+05 ;    C14 - H4S   
  4594   4597   1    1.5350e-01    2.5363e+05 ;    C14 - C13   
  4597   4598   1    1.0920e-01    2.8225e+05 ;    C13 - H3R   
  4597   4599   1    1.0920e-01    2.8225e+05 ;    C13 - H3S   
  4597   4600   1    1.5350e-01    2.5363e+05 ;    C13 - C12   
  4600   4601   1    1.0920e-01    2.8225e+05 ;    C12 - H2R   
  4600   4602   1    1.0920e-01    2.8225e+05 ;    C12 - H2S   
  4603   4604   1    1.0920e-01    2.8225e+05 ;   H14T - C114  
  4604   4605   1    1.0920e-01    2.8225e+05 ;   C114 - H14R  
  4604   4606   1    1.0920e-01    2.8225e+05 ;   C114 - H14S  
  4604   4607   1    1.5350e-01    2.5363e+05 ;   C114 - C113  
  4607   4608   1    1.0920e-01    2.8225e+05 ;   C113 - H13R  
  4607   4609   1    1.0920e-01    2.8225e+05 ;   C113 - H13S  
  4607   4610   1    1.5350e-01    2.5363e+05 ;   C113 - C112  
  4610   4611   1    1.0920e-01    2.8225e+05 ;   C112 - H12R  
  4610   4612   1    1.0920e-01    2.8225e+05 ;   C112 - H12S  
  4610   4613   1    1.5350e-01    2.5363e+05 ;   C112 - C111  
  4613   4614   1    1.0920e-01    2.8225e+05 ;   C111 - H11R  
  4613   4615   1    1.0920e-01    2.8225e+05 ;   C111 - H11S  
  4613   4616   1    1.5350e-01    2.5363e+05 ;   C111 - C110  
  4616   4617   1    1.0920e-01    2.8225e+05 ;   C110 - H10R  
  4616   4618   1    1.0920e-01    2.8225e+05 ;   C110 - H10S  
  4616   4619   1    1.5350e-01    2.5363e+05 ;   C110 - C19   
  4619   4620   1    1.0920e-01    2.8225e+05 ;    C19 - H9R   
  4619   4621   1    1.0920e-01    2.8225e+05 ;    C19 - H9S   
  4619   4622   1    1.5350e-01    2.5363e+05 ;    C19 - C18   
  4622   4623   1    1.0920e-01    2.8225e+05 ;    C18 - H8R   
  4622   4624   1    1.0920e-01    2.8225e+05 ;    C18 - H8S   
  4622   4625   1    1.5350e-01    2.5363e+05 ;    C18 - C17   
  4625   4626   1    1.0920e-01    2.8225e+05 ;    C17 - H7R   
  4625   4627   1    1.0920e-01    2.8225e+05 ;    C17 - H7S   
  4625   4628   1    1.5350e-01    2.5363e+05 ;    C17 - C16   
  4628   4629   1    1.0920e-01    2.8225e+05 ;    C16 - H6R   
  4628   4630   1    1.0920e-01    2.8225e+05 ;    C16 - H6S   
  4628   4631   1    1.5350e-01    2.5363e+05 ;    C16 - C15   
  4631   4632   1    1.0920e-01    2.8225e+05 ;    C15 - H5R   
  4631   4633   1    1.0920e-01    2.8225e+05 ;    C15 - H5S   
  4631   4634   1    1.5350e-01    2.5363e+05 ;    C15 - C14   
  4634   4635   1    1.0920e-01    2.8225e+05 ;    C14 - H4R   
  4634   4636   1    1.0920e-01    2.8225e+05 ;    C14 - H4S   
  4634   4637   1    1.5350e-01    2.5363e+05 ;    C14 - C13   
  4637   4638   1    1.0920e-01    2.8225e+05 ;    C13 - H3R   
  4637   4639   1    1.0920e-01    2.8225e+05 ;    C13 - H3S   
  4637   4640   1    1.5350e-01    2.5363e+05 ;    C13 - C12   
  4640   4641   1    1.0920e-01    2.8225e+05 ;    C12 - H2R   
  4640   4642   1    1.0920e-01    2.8225e+05 ;    C12 - H2S   
  4640   4643   1    1.5080e-01    2.7472e+05 ;    C12 - C11   
  4643   4644   1    1.2140e-01    5.4225e+05 ;    C11 - O12   
  4643   4645   1    1.3430e-01    3.4418e+05 ;    C11 - O11   
  4645   4646   1    1.4390e-01    2.5230e+05 ;    O11 - C1    
  4646   4647   1    1.0930e-01    2.8108e+05 ;     C1 - HR    
  4646   4648   1    1.0930e-01    2.8108e+05 ;     C1 - HS    
  4646   4649   1    1.5350e-01    2.5363e+05 ;     C1 - C2    
  4649   4650   1    1.0930e-01    2.8108e+05 ;     C2 - HX    
  4649   4651   1    1.5350e-01    2.5363e+05 ;     C2 - C3    
  4649   4678   1    1.4390e-01    2.5230e+05 ;     C2 - O21   
  4651   4652   1    1.0930e-01    2.8108e+05 ;     C3 - HA    
  4651   4653   1    1.0930e-01    2.8108e+05 ;     C3 - HB    
  4651   4654   1    1.4390e-01    2.5230e+05 ;     C3 - O31   
  4654   4655   1    1.6100e-01    1.9246e+05 ;    O31 - P31   
  4655   4656   1    1.6100e-01    1.9246e+05 ;    P31 - O32   
  4655   4676   1    1.4800e-01    4.3932e+05 ;    P31 - O33   
  4655   4677   1    1.4800e-01    4.3932e+05 ;    P31 - O34   
  4656   4657   1    1.4390e-01    2.5230e+05 ;    O32 - C31   
  4657   4658   1    1.0930e-01    2.8108e+05 ;    C31 - H1A   
  4657   4659   1    1.0930e-01    2.8108e+05 ;    C31 - H1B   
  4657   4660   1    1.5350e-01    2.5363e+05 ;    C31 - C32   
  4660   4661   1    1.0910e-01    2.8342e+05 ;    C32 - H2A   
  4660   4662   1    1.0910e-01    2.8342e+05 ;    C32 - H2B   
  4660   4663   1    1.4990e-01    2.4568e+05 ;    C32 - N31   
  4663   4664   1    1.4990e-01    2.4568e+05 ;    N31 - C33   
  4663   4668   1    1.4990e-01    2.4568e+05 ;    N31 - C34   
  4663   4672   1    1.4990e-01    2.4568e+05 ;    N31 - C35   
  4664   4665   1    1.0910e-01    2.8342e+05 ;    C33 - H3A   
  4664   4666   1    1.0910e-01    2.8342e+05 ;    C33 - H3B   
  4664   4667   1    1.0910e-01    2.8342e+05 ;    C33 - H3C   
  4668   4669   1    1.0910e-01    2.8342e+05 ;    C34 - H4A   
  4668   4670   1    1.0910e-01    2.8342e+05 ;    C34 - H4B   
  4668   4671   1    1.0910e-01    2.8342e+05 ;    C34 - H4C   
  4672   4673   1    1.0910e-01    2.8342e+05 ;    C35 - H5A   
  4672   4674   1    1.0910e-01    2.8342e+05 ;    C35 - H5B   
  4672   4675   1    1.0910e-01    2.8342e+05 ;    C35 - H5C   
  4678   4679   1    1.3430e-01    3.4418e+05 ;    O21 - C21   
  4679   4680   1    1.2140e-01    5.4225e+05 ;    C21 - O22   
  4679   4718   1    1.5080e-01    2.7472e+05 ;    C21 - C12   
  4681   4682   1    1.0920e-01    2.8225e+05 ;   H14T - C114  
  4682   4683   1    1.0920e-01    2.8225e+05 ;   C114 - H14R  
  4682   4684   1    1.0920e-01    2.8225e+05 ;   C114 - H14S  
  4682   4685   1    1.5350e-01    2.5363e+05 ;   C114 - C113  
  4685   4686   1    1.0920e-01    2.8225e+05 ;   C113 - H13R  
  4685   4687   1    1.0920e-01    2.8225e+05 ;   C113 - H13S  
  4685   4688   1    1.5350e-01    2.5363e+05 ;   C113 - C112  
  4688   4689   1    1.0920e-01    2.8225e+05 ;   C112 - H12R  
  4688   4690   1    1.0920e-01    2.8225e+05 ;   C112 - H12S  
  4688   4691   1    1.5350e-01    2.5363e+05 ;   C112 - C111  
  4691   4692   1    1.0920e-01    2.8225e+05 ;   C111 - H11R  
  4691   4693   1    1.0920e-01    2.8225e+05 ;   C111 - H11S  
  4691   4694   1    1.5350e-01    2.5363e+05 ;   C111 - C110  
  4694   4695   1    1.0920e-01    2.8225e+05 ;   C110 - H10R  
  4694   4696   1    1.0920e-01    2.8225e+05 ;   C110 - H10S  
  4694   4697   1    1.5350e-01    2.5363e+05 ;   C110 - C19   
  4697   4698   1    1.0920e-01    2.8225e+05 ;    C19 - H9R   
  4697   4699   1    1.0920e-01    2.8225e+05 ;    C19 - H9S   
  4697   4700   1    1.5350e-01    2.5363e+05 ;    C19 - C18   
  4700   4701   1    1.0920e-01    2.8225e+05 ;    C18 - H8R   
  4700   4702   1    1.0920e-01    2.8225e+05 ;    C18 - H8S   
  4700   4703   1    1.5350e-01    2.5363e+05 ;    C18 - C17   
  4703   4704   1    1.0920e-01    2.8225e+05 ;    C17 - H7R   
  4703   4705   1    1.0920e-01    2.8225e+05 ;    C17 - H7S   
  4703   4706   1    1.5350e-01    2.5363e+05 ;    C17 - C16   
  4706   4707   1    1.0920e-01    2.8225e+05 ;    C16 - H6R   
  4706   4708   1    1.0920e-01    2.8225e+05 ;    C16 - H6S   
  4706   4709   1    1.5350e-01    2.5363e+05 ;    C16 - C15   
  4709   4710   1    1.0920e-01    2.8225e+05 ;    C15 - H5R   
  4709   4711   1    1.0920e-01    2.8225e+05 ;    C15 - H5S   
  4709   4712   1    1.5350e-01    2.5363e+05 ;    C15 - C14   
  4712   4713   1    1.0920e-01    2.8225e+05 ;    C14 - H4R   
  4712   4714   1    1.0920e-01    2.8225e+05 ;    C14 - H4S   
  4712   4715   1    1.5350e-01    2.5363e+05 ;    C14 - C13   
  4715   4716   1    1.0920e-01    2.8225e+05 ;    C13 - H3R   
  4715   4717   1    1.0920e-01    2.8225e+05 ;    C13 - H3S   
  4715   4718   1    1.5350e-01    2.5363e+05 ;    C13 - C12   
  4718   4719   1    1.0920e-01    2.8225e+05 ;    C12 - H2R   
  4718   4720   1    1.0920e-01    2.8225e+05 ;    C12 - H2S   
  4721   4722   1    1.0920e-01    2.8225e+05 ;   H14T - C114  
  4722   4723   1    1.0920e-01    2.8225e+05 ;   C114 - H14R  
  4722   4724   1    1.0920e-01    2.8225e+05 ;   C114 - H14S  
  4722   4725   1    1.5350e-01    2.5363e+05 ;   C114 - C113  
  4725   4726   1    1.0920e-01    2.8225e+05 ;   C113 - H13R  
  4725   4727   1    1.0920e-01    2.8225e+05 ;   C113 - H13S  
  4725   4728   1    1.5350e-01    2.5363e+05 ;   C113 - C112  
  4728   4729   1    1.0920e-01    2.8225e+05 ;   C112 - H12R  
  4728   4730   1    1.0920e-01    2.8225e+05 ;   C112 - H12S  
  4728   4731   1    1.5350e-01    2.5363e+05 ;   C112 - C111  
  4731   4732   1    1.0920e-01    2.8225e+05 ;   C111 - H11R  
  4731   4733   1    1.0920e-01    2.8225e+05 ;   C111 - H11S  
  4731   4734   1    1.5350e-01    2.5363e+05 ;   C111 - C110  
  4734   4735   1    1.0920e-01    2.8225e+05 ;   C110 - H10R  
  4734   4736   1    1.0920e-01    2.8225e+05 ;   C110 - H10S  
  4734   4737   1    1.5350e-01    2.5363e+05 ;   C110 - C19   
  4737   4738   1    1.0920e-01    2.8225e+05 ;    C19 - H9R   
  4737   4739   1    1.0920e-01    2.8225e+05 ;    C19 - H9S   
  4737   4740   1    1.5350e-01    2.5363e+05 ;    C19 - C18   
  4740   4741   1    1.0920e-01    2.8225e+05 ;    C18 - H8R   
  4740   4742   1    1.0920e-01    2.8225e+05 ;    C18 - H8S   
  4740   4743   1    1.5350e-01    2.5363e+05 ;    C18 - C17   
  4743   4744   1    1.0920e-01    2.8225e+05 ;    C17 - H7R   
  4743   4745   1    1.0920e-01    2.8225e+05 ;    C17 - H7S   
  4743   4746   1    1.5350e-01    2.5363e+05 ;    C17 - C16   
  4746   4747   1    1.0920e-01    2.8225e+05 ;    C16 - H6R   
  4746   4748   1    1.0920e-01    2.8225e+05 ;    C16 - H6S   
  4746   4749   1    1.5350e-01    2.5363e+05 ;    C16 - C15   
  4749   4750   1    1.0920e-01    2.8225e+05 ;    C15 - H5R   
  4749   4751   1    1.0920e-01    2.8225e+05 ;    C15 - H5S   
  4749   4752   1    1.5350e-01    2.5363e+05 ;    C15 - C14   
  4752   4753   1    1.0920e-01    2.8225e+05 ;    C14 - H4R   
  4752   4754   1    1.0920e-01    2.8225e+05 ;    C14 - H4S   
  4752   4755   1    1.5350e-01    2.5363e+05 ;    C14 - C13   
  4755   4756   1    1.0920e-01    2.8225e+05 ;    C13 - H3R   
  4755   4757   1    1.0920e-01    2.8225e+05 ;    C13 - H3S   
  4755   4758   1    1.5350e-01    2.5363e+05 ;    C13 - C12   
  4758   4759   1    1.0920e-01    2.8225e+05 ;    C12 - H2R   
  4758   4760   1    1.0920e-01    2.8225e+05 ;    C12 - H2S   
  4758   4761   1    1.5080e-01    2.7472e+05 ;    C12 - C11   
  4761   4762   1    1.2140e-01    5.4225e+05 ;    C11 - O12   
  4761   4763   1    1.3430e-01    3.4418e+05 ;    C11 - O11   
  4763   4764   1    1.4390e-01    2.5230e+05 ;    O11 - C1    
  4764   4765   1    1.0930e-01    2.8108e+05 ;     C1 - HR    
  4764   4766   1    1.0930e-01    2.8108e+05 ;     C1 - HS    
  4764   4767   1    1.5350e-01    2.5363e+05 ;     C1 - C2    
  4767   4768   1    1.0930e-01    2.8108e+05 ;     C2 - HX    
  4767   4769   1    1.5350e-01    2.5363e+05 ;     C2 - C3    
  4767   4796   1    1.4390e-01    2.5230e+05 ;     C2 - O21   
  4769   4770   1    1.0930e-01    2.8108e+05 ;     C3 - HA    
  4769   4771   1    1.0930e-01    2.8108e+05 ;     C3 - HB    
  4769   4772   1    1.4390e-01    2.5230e+05 ;     C3 - O31   
  4772   4773   1    1.6100e-01    1.9246e+05 ;    O31 - P31   
  4773   4774   1    1.6100e-01    1.9246e+05 ;    P31 - O32   
  4773   4794   1    1.4800e-01    4.3932e+05 ;    P31 - O33   
  4773   4795   1    1.4800e-01    4.3932e+05 ;    P31 - O34   
  4774   4775   1    1.4390e-01    2.5230e+05 ;    O32 - C31   
  4775   4776   1    1.0930e-01    2.8108e+05 ;    C31 - H1A   
  4775   4777   1    1.0930e-01    2.8108e+05 ;    C31 - H1B   
  4775   4778   1    1.5350e-01    2.5363e+05 ;    C31 - C32   
  4778   4779   1    1.0910e-01    2.8342e+05 ;    C32 - H2A   
  4778   4780   1    1.0910e-01    2.8342e+05 ;    C32 - H2B   
  4778   4781   1    1.4990e-01    2.4568e+05 ;    C32 - N31   
  4781   4782   1    1.4990e-01    2.4568e+05 ;    N31 - C33   
  4781   4786   1    1.4990e-01    2.4568e+05 ;    N31 - C34   
  4781   4790   1    1.4990e-01    2.4568e+05 ;    N31 - C35   
  4782   4783   1    1.0910e-01    2.8342e+05 ;    C33 - H3A   
  4782   4784   1    1.0910e-01    2.8342e+05 ;    C33 - H3B   
  4782   4785   1    1.0910e-01    2.8342e+05 ;    C33 - H3C   
  4786   4787   1    1.0910e-01    2.8342e+05 ;    C34 - H4A   
  4786   4788   1    1.0910e-01    2.8342e+05 ;    C34 - H4B   
  4786   4789   1    1.0910e-01    2.8342e+05 ;    C34 - H4C   
  4790   4791   1    1.0910e-01    2.8342e+05 ;    C35 - H5A   
  4790   4792   1    1.0910e-01    2.8342e+05 ;    C35 - H5B   
  4790   4793   1    1.0910e-01    2.8342e+05 ;    C35 - H5C   
  4796   4797   1    1.3430e-01    3.4418e+05 ;    O21 - C21   
  4797   4798   1    1.2140e-01    5.4225e+05 ;    C21 - O22   
  4797   4836   1    1.5080e-01    2.7472e+05 ;    C21 - C12   
  4799   4800   1    1.0920e-01    2.8225e+05 ;   H14T - C114  
  4800   4801   1    1.0920e-01    2.8225e+05 ;   C114 - H14R  
  4800   4802   1    1.0920e-01    2.8225e+05 ;   C114 - H14S  
  4800   4803   1    1.5350e-01    2.5363e+05 ;   C114 - C113  
  4803   4804   1    1.0920e-01    2.8225e+05 ;   C113 - H13R  
  4803   4805   1    1.0920e-01    2.8225e+05 ;   C113 - H13S  
  4803   4806   1    1.5350e-01    2.5363e+05 ;   C113 - C112  
  4806   4807   1    1.0920e-01    2.8225e+05 ;   C112 - H12R  
  4806   4808   1    1.0920e-01    2.8225e+05 ;   C112 - H12S  
  4806   4809   1    1.5350e-01    2.5363e+05 ;   C112 - C111  
  4809   4810   1    1.0920e-01    2.8225e+05 ;   C111 - H11R  
  4809   4811   1    1.0920e-01    2.8225e+05 ;   C111 - H11S  
  4809   4812   1    1.5350e-01    2.5363e+05 ;   C111 - C110  
  4812   4813   1    1.0920e-01    2.8225e+05 ;   C110 - H10R  
  4812   4814   1    1.0920e-01    2.8225e+05 ;   C110 - H10S  
  4812   4815   1    1.5350e-01    2.5363e+05 ;   C110 - C19   
  4815   4816   1    1.0920e-01    2.8225e+05 ;    C19 - H9R   
  4815   4817   1    1.0920e-01    2.8225e+05 ;    C19 - H9S   
  4815   4818   1    1.5350e-01    2.5363e+05 ;    C19 - C18   
  4818   4819   1    1.0920e-01    2.8225e+05 ;    C18 - H8R   
  4818   4820   1    1.0920e-01    2.8225e+05 ;    C18 - H8S   
  4818   4821   1    1.5350e-01    2.5363e+05 ;    C18 - C17   
  4821   4822   1    1.0920e-01    2.8225e+05 ;    C17 - H7R   
  4821   4823   1    1.0920e-01    2.8225e+05 ;    C17 - H7S   
  4821   4824   1    1.5350e-01    2.5363e+05 ;    C17 - C16   
  4824   4825   1    1.0920e-01    2.8225e+05 ;    C16 - H6R   
  4824   4826   1    1.0920e-01    2.8225e+05 ;    C16 - H6S   
  4824   4827   1    1.5350e-01    2.5363e+05 ;    C16 - C15   
  4827   4828   1    1.0920e-01    2.8225e+05 ;    C15 - H5R   
  4827   4829   1    1.0920e-01    2.8225e+05 ;    C15 - H5S   
  4827   4830   1    1.5350e-01    2.5363e+05 ;    C15 - C14   
  4830   4831   1    1.0920e-01    2.8225e+05 ;    C14 - H4R   
  4830   4832   1    1.0920e-01    2.8225e+05 ;    C14 - H4S   
  4830   4833   1    1.5350e-01    2.5363e+05 ;    C14 - C13   
  4833   4834   1    1.0920e-01    2.8225e+05 ;    C13 - H3R   
  4833   4835   1    1.0920e-01    2.8225e+05 ;    C13 - H3S   
  4833   4836   1    1.5350e-01    2.5363e+05 ;    C13 - C12   
  4836   4837   1    1.0920e-01    2.8225e+05 ;    C12 - H2R   
  4836   4838   1    1.0920e-01    2.8225e+05 ;    C12 - H2S   
  4839   4840   1    1.0920e-01    2.8225e+05 ;   H14T - C114  
  4840   4841   1    1.0920e-01    2.8225e+05 ;   C114 - H14R  
  4840   4842   1    1.0920e-01    2.8225e+05 ;   C114 - H14S  
  4840   4843   1    1.5350e-01    2.5363e+05 ;   C114 - C113  
  4843   4844   1    1.0920e-01    2.8225e+05 ;   C113 - H13R  
  4843   4845   1    1.0920e-01    2.8225e+05 ;   C113 - H13S  
  4843   4846   1    1.5350e-01    2.5363e+05 ;   C113 - C112  
  4846   4847   1    1.0920e-01    2.8225e+05 ;   C112 - H12R  
  4846   4848   1    1.0920e-01    2.8225e+05 ;   C112 - H12S  
  4846   4849   1    1.5350e-01    2.5363e+05 ;   C112 - C111  
  4849   4850   1    1.0920e-01    2.8225e+05 ;   C111 - H11R  
  4849   4851   1    1.0920e-01    2.8225e+05 ;   C111 - H11S  
  4849   4852   1    1.5350e-01    2.5363e+05 ;   C111 - C110  
  4852   4853   1    1.0920e-01    2.8225e+05 ;   C110 - H10R  
  4852   4854   1    1.0920e-01    2.8225e+05 ;   C110 - H10S  
  4852   4855   1    1.5350e-01    2.5363e+05 ;   C110 - C19   
  4855   4856   1    1.0920e-01    2.8225e+05 ;    C19 - H9R   
  4855   4857   1    1.0920e-01    2.8225e+05 ;    C19 - H9S   
  4855   4858   1    1.5350e-01    2.5363e+05 ;    C19 - C18   
  4858   4859   1    1.0920e-01    2.8225e+05 ;    C18 - H8R   
  4858   4860   1    1.0920e-01    2.8225e+05 ;    C18 - H8S   
  4858   4861   1    1.5350e-01    2.5363e+05 ;    C18 - C17   
  4861   4862   1    1.0920e-01    2.8225e+05 ;    C17 - H7R   
  4861   4863   1    1.0920e-01    2.8225e+05 ;    C17 - H7S   
  4861   4864   1    1.5350e-01    2.5363e+05 ;    C17 - C16   
  4864   4865   1    1.0920e-01    2.8225e+05 ;    C16 - H6R   
  4864   4866   1    1.0920e-01    2.8225e+05 ;    C16 - H6S   
  4864   4867   1    1.5350e-01    2.5363e+05 ;    C16 - C15   
  4867   4868   1    1.0920e-01    2.8225e+05 ;    C15 - H5R   
  4867   4869   1    1.0920e-01    2.8225e+05 ;    C15 - H5S   
  4867   4870   1    1.5350e-01    2.5363e+05 ;    C15 - C14   
  4870   4871   1    1.0920e-01    2.8225e+05 ;    C14 - H4R   
  4870   4872   1    1.0920e-01    2.8225e+05 ;    C14 - H4S   
  4870   4873   1    1.5350e-01    2.5363e+05 ;    C14 - C13   
  4873   4874   1    1.0920e-01    2.8225e+05 ;    C13 - H3R   
  4873   4875   1    1.0920e-01    2.8225e+05 ;    C13 - H3S   
  4873   4876   1    1.5350e-01    2.5363e+05 ;    C13 - C12   
  4876   4877   1    1.0920e-01    2.8225e+05 ;    C12 - H2R   
  4876   4878   1    1.0920e-01    2.8225e+05 ;    C12 - H2S   
  4876   4879   1    1.5080e-01    2.7472e+05 ;    C12 - C11   
  4879   4880   1    1.2140e-01    5.4225e+05 ;    C11 - O12   
  4879   4881   1    1.3430e-01    3.4418e+05 ;    C11 - O11   
  4881   4882   1    1.4390e-01    2.5230e+05 ;    O11 - C1    
  4882   4883   1    1.0930e-01    2.8108e+05 ;     C1 - HR    
  4882   4884   1    1.0930e-01    2.8108e+05 ;     C1 - HS    
  4882   4885   1    1.5350e-01    2.5363e+05 ;     C1 - C2    
  4885   4886   1    1.0930e-01    2.8108e+05 ;     C2 - HX    
  4885   4887   1    1.5350e-01    2.5363e+05 ;     C2 - C3    
  4885   4914   1    1.4390e-01    2.5230e+05 ;     C2 - O21   
  4887   4888   1    1.0930e-01    2.8108e+05 ;     C3 - HA    
  4887   4889   1    1.0930e-01    2.8108e+05 ;     C3 - HB    
  4887   4890   1    1.4390e-01    2.5230e+05 ;     C3 - O31   
  4890   4891   1    1.6100e-01    1.9246e+05 ;    O31 - P31   
  4891   4892   1    1.6100e-01    1.9246e+05 ;    P31 - O32   
  4891   4912   1    1.4800e-01    4.3932e+05 ;    P31 - O33   
  4891   4913   1    1.4800e-01    4.3932e+05 ;    P31 - O34   
  4892   4893   1    1.4390e-01    2.5230e+05 ;    O32 - C31   
  4893   4894   1    1.0930e-01    2.8108e+05 ;    C31 - H1A   
  4893   4895   1    1.0930e-01    2.8108e+05 ;    C31 - H1B   
  4893   4896   1    1.5350e-01    2.5363e+05 ;    C31 - C32   
  4896   4897   1    1.0910e-01    2.8342e+05 ;    C32 - H2A   
  4896   4898   1    1.0910e-01    2.8342e+05 ;    C32 - H2B   
  4896   4899   1    1.4990e-01    2.4568e+05 ;    C32 - N31   
  4899   4900   1    1.4990e-01    2.4568e+05 ;    N31 - C33   
  4899   4904   1    1.4990e-01    2.4568e+05 ;    N31 - C34   
  4899   4908   1    1.4990e-01    2.4568e+05 ;    N31 - C35   
  4900   4901   1    1.0910e-01    2.8342e+05 ;    C33 - H3A   
  4900   4902   1    1.0910e-01    2.8342e+05 ;    C33 - H3B   
  4900   4903   1    1.0910e-01    2.8342e+05 ;    C33 - H3C   
  4904   4905   1    1.0910e-01    2.8342e+05 ;    C34 - H4A   
  4904   4906   1    1.0910e-01    2.8342e+05 ;    C34 - H4B   
  4904   4907   1    1.0910e-01    2.8342e+05 ;    C34 - H4C   
  4908   4909   1    1.0910e-01    2.8342e+05 ;    C35 - H5A   
  4908   4910   1    1.0910e-01    2.8342e+05 ;    C35 - H5B   
  4908   4911   1    1.0910e-01    2.8342e+05 ;    C35 - H5C   
  4914   4915   1    1.3430e-01    3.4418e+05 ;    O21 - C21   
  4915   4916   1    1.2140e-01    5.4225e+05 ;    C21 - O22   
  4915   4954   1    1.5080e-01    2.7472e+05 ;    C21 - C12   
  4917   4918   1    1.0920e-01    2.8225e+05 ;   H14T - C114  
  4918   4919   1    1.0920e-01    2.8225e+05 ;   C114 - H14R  
  4918   4920   1    1.0920e-01    2.8225e+05 ;   C114 - H14S  
  4918   4921   1    1.5350e-01    2.5363e+05 ;   C114 - C113  
  4921   4922   1    1.0920e-01    2.8225e+05 ;   C113 - H13R  
  4921   4923   1    1.0920e-01    2.8225e+05 ;   C113 - H13S  
  4921   4924   1    1.5350e-01    2.5363e+05 ;   C113 - C112  
  4924   4925   1    1.0920e-01    2.8225e+05 ;   C112 - H12R  
  4924   4926   1    1.0920e-01    2.8225e+05 ;   C112 - H12S  
  4924   4927   1    1.5350e-01    2.5363e+05 ;   C112 - C111  
  4927   4928   1    1.0920e-01    2.8225e+05 ;   C111 - H11R  
  4927   4929   1    1.0920e-01    2.8225e+05 ;   C111 - H11S  
  4927   4930   1    1.5350e-01    2.5363e+05 ;   C111 - C110  
  4930   4931   1    1.0920e-01    2.8225e+05 ;   C110 - H10R  
  4930   4932   1    1.0920e-01    2.8225e+05 ;   C110 - H10S  
  4930   4933   1    1.5350e-01    2.5363e+05 ;   C110 - C19   
  4933   4934   1    1.0920e-01    2.8225e+05 ;    C19 - H9R   
  4933   4935   1    1.0920e-01    2.8225e+05 ;    C19 - H9S   
  4933   4936   1    1.5350e-01    2.5363e+05 ;    C19 - C18   
  4936   4937   1    1.0920e-01    2.8225e+05 ;    C18 - H8R   
  4936   4938   1    1.0920e-01    2.8225e+05 ;    C18 - H8S   
  4936   4939   1    1.5350e-01    2.5363e+05 ;    C18 - C17   
  4939   4940   1    1.0920e-01    2.8225e+05 ;    C17 - H7R   
  4939   4941   1    1.0920e-01    2.8225e+05 ;    C17 - H7S   
  4939   4942   1    1.5350e-01    2.5363e+05 ;    C17 - C16   
  4942   4943   1    1.0920e-01    2.8225e+05 ;    C16 - H6R   
  4942   4944   1    1.0920e-01    2.8225e+05 ;    C16 - H6S   
  4942   4945   1    1.5350e-01    2.5363e+05 ;    C16 - C15   
  4945   4946   1    1.0920e-01    2.8225e+05 ;    C15 - H5R   
  4945   4947   1    1.0920e-01    2.8225e+05 ;    C15 - H5S   
  4945   4948   1    1.5350e-01    2.5363e+05 ;    C15 - C14   
  4948   4949   1    1.0920e-01    2.8225e+05 ;    C14 - H4R   
  4948   4950   1    1.0920e-01    2.8225e+05 ;    C14 - H4S   
  4948   4951   1    1.5350e-01    2.5363e+05 ;    C14 - C13   
  4951   4952   1    1.0920e-01    2.8225e+05 ;    C13 - H3R   
  4951   4953   1    1.0920e-01    2.8225e+05 ;    C13 - H3S   
  4951   4954   1    1.5350e-01    2.5363e+05 ;    C13 - C12   
  4954   4955   1    1.0920e-01    2.8225e+05 ;    C12 - H2R   
  4954   4956   1    1.0920e-01    2.8225e+05 ;    C12 - H2S   
  4957   4958   1    1.0920e-01    2.8225e+05 ;   H14T - C114  
  4958   4959   1    1.0920e-01    2.8225e+05 ;   C114 - H14R  
  4958   4960   1    1.0920e-01    2.8225e+05 ;   C114 - H14S  
  4958   4961   1    1.5350e-01    2.5363e+05 ;   C114 - C113  
  4961   4962   1    1.0920e-01    2.8225e+05 ;   C113 - H13R  
  4961   4963   1    1.0920e-01    2.8225e+05 ;   C113 - H13S  
  4961   4964   1    1.5350e-01    2.5363e+05 ;   C113 - C112  
  4964   4965   1    1.0920e-01    2.8225e+05 ;   C112 - H12R  
  4964   4966   1    1.0920e-01    2.8225e+05 ;   C112 - H12S  
  4964   4967   1    1.5350e-01    2.5363e+05 ;   C112 - C111  
  4967   4968   1    1.0920e-01    2.8225e+05 ;   C111 - H11R  
  4967   4969   1    1.0920e-01    2.8225e+05 ;   C111 - H11S  
  4967   4970   1    1.5350e-01    2.5363e+05 ;   C111 - C110  
  4970   4971   1    1.0920e-01    2.8225e+05 ;   C110 - H10R  
  4970   4972   1    1.0920e-01    2.8225e+05 ;   C110 - H10S  
  4970   4973   1    1.5350e-01    2.5363e+05 ;   C110 - C19   
  4973   4974   1    1.0920e-01    2.8225e+05 ;    C19 - H9R   
  4973   4975   1    1.0920e-01    2.8225e+05 ;    C19 - H9S   
  4973   4976   1    1.5350e-01    2.5363e+05 ;    C19 - C18   
  4976   4977   1    1.0920e-01    2.8225e+05 ;    C18 - H8R   
  4976   4978   1    1.0920e-01    2.8225e+05 ;    C18 - H8S   
  4976   4979   1    1.5350e-01    2.5363e+05 ;    C18 - C17   
  4979   4980   1    1.0920e-01    2.8225e+05 ;    C17 - H7R   
  4979   4981   1    1.0920e-01    2.8225e+05 ;    C17 - H7S   
  4979   4982   1    1.5350e-01    2.5363e+05 ;    C17 - C16   
  4982   4983   1    1.0920e-01    2.8225e+05 ;    C16 - H6R   
  4982   4984   1    1.0920e-01    2.8225e+05 ;    C16 - H6S   
  4982   4985   1    1.5350e-01    2.5363e+05 ;    C16 - C15   
  4985   4986   1    1.0920e-01    2.8225e+05 ;    C15 - H5R   
  4985   4987   1    1.0920e-01    2.8225e+05 ;    C15 - H5S   
  4985   4988   1    1.5350e-01    2.5363e+05 ;    C15 - C14   
  4988   4989   1    1.0920e-01    2.8225e+05 ;    C14 - H4R   
  4988   4990   1    1.0920e-01    2.8225e+05 ;    C14 - H4S   
  4988   4991   1    1.5350e-01    2.5363e+05 ;    C14 - C13   
  4991   4992   1    1.0920e-01    2.8225e+05 ;    C13 - H3R   
  4991   4993   1    1.0920e-01    2.8225e+05 ;    C13 - H3S   
  4991   4994   1    1.5350e-01    2.5363e+05 ;    C13 - C12   
  4994   4995   1    1.0920e-01    2.8225e+05 ;    C12 - H2R   
  4994   4996   1    1.0920e-01    2.8225e+05 ;    C12 - H2S   
  4994   4997   1    1.5080e-01    2.7472e+05 ;    C12 - C11   
  4997   4998   1    1.2140e-01    5.4225e+05 ;    C11 - O12   
  4997   4999   1    1.3430e-01    3.4418e+05 ;    C11 - O11   
  4999   5000   1    1.4390e-01    2.5230e+05 ;    O11 - C1    
  5000   5001   1    1.0930e-01    2.8108e+05 ;     C1 - HR    
  5000   5002   1    1.0930e-01    2.8108e+05 ;     C1 - HS    
  5000   5003   1    1.5350e-01    2.5363e+05 ;     C1 - C2    
  5003   5004   1    1.0930e-01    2.8108e+05 ;     C2 - HX    
  5003   5005   1    1.5350e-01    2.5363e+05 ;     C2 - C3    
  5003   5032   1    1.4390e-01    2.5230e+05 ;     C2 - O21   
  5005   5006   1    1.0930e-01    2.8108e+05 ;     C3 - HA    
  5005   5007   1    1.0930e-01    2.8108e+05 ;     C3 - HB    
  5005   5008   1    1.4390e-01    2.5230e+05 ;     C3 - O31   
  5008   5009   1    1.6100e-01    1.9246e+05 ;    O31 - P31   
  5009   5010   1    1.6100e-01    1.9246e+05 ;    P31 - O32   
  5009   5030   1    1.4800e-01    4.3932e+05 ;    P31 - O33   
  5009   5031   1    1.4800e-01    4.3932e+05 ;    P31 - O34   
  5010   5011   1    1.4390e-01    2.5230e+05 ;    O32 - C31   
  5011   5012   1    1.0930e-01    2.8108e+05 ;    C31 - H1A   
  5011   5013   1    1.0930e-01    2.8108e+05 ;    C31 - H1B   
  5011   5014   1    1.5350e-01    2.5363e+05 ;    C31 - C32   
  5014   5015   1    1.0910e-01    2.8342e+05 ;    C32 - H2A   
  5014   5016   1    1.0910e-01    2.8342e+05 ;    C32 - H2B   
  5014   5017   1    1.4990e-01    2.4568e+05 ;    C32 - N31   
  5017   5018   1    1.4990e-01    2.4568e+05 ;    N31 - C33   
  5017   5022   1    1.4990e-01    2.4568e+05 ;    N31 - C34   
  5017   5026   1    1.4990e-01    2.4568e+05 ;    N31 - C35   
  5018   5019   1    1.0910e-01    2.8342e+05 ;    C33 - H3A   
  5018   5020   1    1.0910e-01    2.8342e+05 ;    C33 - H3B   
  5018   5021   1    1.0910e-01    2.8342e+05 ;    C33 - H3C   
  5022   5023   1    1.0910e-01    2.8342e+05 ;    C34 - H4A   
  5022   5024   1    1.0910e-01    2.8342e+05 ;    C34 - H4B   
  5022   5025   1    1.0910e-01    2.8342e+05 ;    C34 - H4C   
  5026   5027   1    1.0910e-01    2.8342e+05 ;    C35 - H5A   
  5026   5028   1    1.0910e-01    2.8342e+05 ;    C35 - H5B   
  5026   5029   1    1.0910e-01    2.8342e+05 ;    C35 - H5C   
  5032   5033   1    1.3430e-01    3.4418e+05 ;    O21 - C21   
  5033   5034   1    1.2140e-01    5.4225e+05 ;    C21 - O22   
  5033   5072   1    1.5080e-01    2.7472e+05 ;    C21 - C12   
  5035   5036   1    1.0920e-01    2.8225e+05 ;   H14T - C114  
  5036   5037   1    1.0920e-01    2.8225e+05 ;   C114 - H14R  
  5036   5038   1    1.0920e-01    2.8225e+05 ;   C114 - H14S  
  5036   5039   1    1.5350e-01    2.5363e+05 ;   C114 - C113  
  5039   5040   1    1.0920e-01    2.8225e+05 ;   C113 - H13R  
  5039   5041   1    1.0920e-01    2.8225e+05 ;   C113 - H13S  
  5039   5042   1    1.5350e-01    2.5363e+05 ;   C113 - C112  
  5042   5043   1    1.0920e-01    2.8225e+05 ;   C112 - H12R  
  5042   5044   1    1.0920e-01    2.8225e+05 ;   C112 - H12S  
  5042   5045   1    1.5350e-01    2.5363e+05 ;   C112 - C111  
  5045   5046   1    1.0920e-01    2.8225e+05 ;   C111 - H11R  
  5045   5047   1    1.0920e-01    2.8225e+05 ;   C111 - H11S  
  5045   5048   1    1.5350e-01    2.5363e+05 ;   C111 - C110  
  5048   5049   1    1.0920e-01    2.8225e+05 ;   C110 - H10R  
  5048   5050   1    1.0920e-01    2.8225e+05 ;   C110 - H10S  
  5048   5051   1    1.5350e-01    2.5363e+05 ;   C110 - C19   
  5051   5052   1    1.0920e-01    2.8225e+05 ;    C19 - H9R   
  5051   5053   1    1.0920e-01    2.8225e+05 ;    C19 - H9S   
  5051   5054   1    1.5350e-01    2.5363e+05 ;    C19 - C18   
  5054   5055   1    1.0920e-01    2.8225e+05 ;    C18 - H8R   
  5054   5056   1    1.0920e-01    2.8225e+05 ;    C18 - H8S   
  5054   5057   1    1.5350e-01    2.5363e+05 ;    C18 - C17   
  5057   5058   1    1.0920e-01    2.8225e+05 ;    C17 - H7R   
  5057   5059   1    1.0920e-01    2.8225e+05 ;    C17 - H7S   
  5057   5060   1    1.5350e-01    2.5363e+05 ;    C17 - C16   
  5060   5061   1    1.0920e-01    2.8225e+05 ;    C16 - H6R   
  5060   5062   1    1.0920e-01    2.8225e+05 ;    C16 - H6S   
  5060   5063   1    1.5350e-01    2.5363e+05 ;    C16 - C15   
  5063   5064   1    1.0920e-01    2.8225e+05 ;    C15 - H5R   
  5063   5065   1    1.0920e-01    2.8225e+05 ;    C15 - H5S   
  5063   5066   1    1.5350e-01    2.5363e+05 ;    C15 - C14   
  5066   5067   1    1.0920e-01    2.8225e+05 ;    C14 - H4R   
  5066   5068   1    1.0920e-01    2.8225e+05 ;    C14 - H4S   
  5066   5069   1    1.5350e-01    2.5363e+05 ;    C14 - C13   
  5069   5070   1    1.0920e-01    2.8225e+05 ;    C13 - H3R   
  5069   5071   1    1.0920e-01    2.8225e+05 ;    C13 - H3S   
  5069   5072   1    1.5350e-01    2.5363e+05 ;    C13 - C12   
  5072   5073   1    1.0920e-01    2.8225e+05 ;    C12 - H2R   
  5072   5074   1    1.0920e-01    2.8225e+05 ;    C12 - H2S   
  5075   5076   1    1.0920e-01    2.8225e+05 ;   H14T - C114  
  5076   5077   1    1.0920e-01    2.8225e+05 ;   C114 - H14R  
  5076   5078   1    1.0920e-01    2.8225e+05 ;   C114 - H14S  
  5076   5079   1    1.5350e-01    2.5363e+05 ;   C114 - C113  
  5079   5080   1    1.0920e-01    2.8225e+05 ;   C113 - H13R  
  5079   5081   1    1.0920e-01    2.8225e+05 ;   C113 - H13S  
  5079   5082   1    1.5350e-01    2.5363e+05 ;   C113 - C112  
  5082   5083   1    1.0920e-01    2.8225e+05 ;   C112 - H12R  
  5082   5084   1    1.0920e-01    2.8225e+05 ;   C112 - H12S  
  5082   5085   1    1.5350e-01    2.5363e+05 ;   C112 - C111  
  5085   5086   1    1.0920e-01    2.8225e+05 ;   C111 - H11R  
  5085   5087   1    1.0920e-01    2.8225e+05 ;   C111 - H11S  
  5085   5088   1    1.5350e-01    2.5363e+05 ;   C111 - C110  
  5088   5089   1    1.0920e-01    2.8225e+05 ;   C110 - H10R  
  5088   5090   1    1.0920e-01    2.8225e+05 ;   C110 - H10S  
  5088   5091   1    1.5350e-01    2.5363e+05 ;   C110 - C19   
  5091   5092   1    1.0920e-01    2.8225e+05 ;    C19 - H9R   
  5091   5093   1    1.0920e-01    2.8225e+05 ;    C19 - H9S   
  5091   5094   1    1.5350e-01    2.5363e+05 ;    C19 - C18   
  5094   5095   1    1.0920e-01    2.8225e+05 ;    C18 - H8R   
  5094   5096   1    1.0920e-01    2.8225e+05 ;    C18 - H8S   
  5094   5097   1    1.5350e-01    2.5363e+05 ;    C18 - C17   
  5097   5098   1    1.0920e-01    2.8225e+05 ;    C17 - H7R   
  5097   5099   1    1.0920e-01    2.8225e+05 ;    C17 - H7S   
  5097   5100   1    1.5350e-01    2.5363e+05 ;    C17 - C16   
  5100   5101   1    1.0920e-01    2.8225e+05 ;    C16 - H6R   
  5100   5102   1    1.0920e-01    2.8225e+05 ;    C16 - H6S   
  5100   5103   1    1.5350e-01    2.5363e+05 ;    C16 - C15   
  5103   5104   1    1.0920e-01    2.8225e+05 ;    C15 - H5R   
  5103   5105   1    1.0920e-01    2.8225e+05 ;    C15 - H5S   
  5103   5106   1    1.5350e-01    2.5363e+05 ;    C15 - C14   
  5106   5107   1    1.0920e-01    2.8225e+05 ;    C14 - H4R   
  5106   5108   1    1.0920e-01    2.8225e+05 ;    C14 - H4S   
  5106   5109   1    1.5350e-01    2.5363e+05 ;    C14 - C13   
  5109   5110   1    1.0920e-01    2.8225e+05 ;    C13 - H3R   
  5109   5111   1    1.0920e-01    2.8225e+05 ;    C13 - H3S   
  5109   5112   1    1.5350e-01    2.5363e+05 ;    C13 - C12   
  5112   5113   1    1.0920e-01    2.8225e+05 ;    C12 - H2R   
  5112   5114   1    1.0920e-01    2.8225e+05 ;    C12 - H2S   
  5112   5115   1    1.5080e-01    2.7472e+05 ;    C12 - C11   
  5115   5116   1    1.2140e-01    5.4225e+05 ;    C11 - O12   
  5115   5117   1    1.3430e-01    3.4418e+05 ;    C11 - O11   
  5117   5118   1    1.4390e-01    2.5230e+05 ;    O11 - C1    
  5118   5119   1    1.0930e-01    2.8108e+05 ;     C1 - HR    
  5118   5120   1    1.0930e-01    2.8108e+05 ;     C1 - HS    
  5118   5121   1    1.5350e-01    2.5363e+05 ;     C1 - C2    
  5121   5122   1    1.0930e-01    2.8108e+05 ;     C2 - HX    
  5121   5123   1    1.5350e-01    2.5363e+05 ;     C2 - C3    
  5121   5150   1    1.4390e-01    2.5230e+05 ;     C2 - O21   
  5123   5124   1    1.0930e-01    2.8108e+05 ;     C3 - HA    
  5123   5125   1    1.0930e-01    2.8108e+05 ;     C3 - HB    
  5123   5126   1    1.4390e-01    2.5230e+05 ;     C3 - O31   
  5126   5127   1    1.6100e-01    1.9246e+05 ;    O31 - P31   
  5127   5128   1    1.6100e-01    1.9246e+05 ;    P31 - O32   
  5127   5148   1    1.4800e-01    4.3932e+05 ;    P31 - O33   
  5127   5149   1    1.4800e-01    4.3932e+05 ;    P31 - O34   
  5128   5129   1    1.4390e-01    2.5230e+05 ;    O32 - C31   
  5129   5130   1    1.0930e-01    2.8108e+05 ;    C31 - H1A   
  5129   5131   1    1.0930e-01    2.8108e+05 ;    C31 - H1B   
  5129   5132   1    1.5350e-01    2.5363e+05 ;    C31 - C32   
  5132   5133   1    1.0910e-01    2.8342e+05 ;    C32 - H2A   
  5132   5134   1    1.0910e-01    2.8342e+05 ;    C32 - H2B   
  5132   5135   1    1.4990e-01    2.4568e+05 ;    C32 - N31   
  5135   5136   1    1.4990e-01    2.4568e+05 ;    N31 - C33   
  5135   5140   1    1.4990e-01    2.4568e+05 ;    N31 - C34   
  5135   5144   1    1.4990e-01    2.4568e+05 ;    N31 - C35   
  5136   5137   1    1.0910e-01    2.8342e+05 ;    C33 - H3A   
  5136   5138   1    1.0910e-01    2.8342e+05 ;    C33 - H3B   
  5136   5139   1    1.0910e-01    2.8342e+05 ;    C33 - H3C   
  5140   5141   1    1.0910e-01    2.8342e+05 ;    C34 - H4A   
  5140   5142   1    1.0910e-01    2.8342e+05 ;    C34 - H4B   
  5140   5143   1    1.0910e-01    2.8342e+05 ;    C34 - H4C   
  5144   5145   1    1.0910e-01    2.8342e+05 ;    C35 - H5A   
  5144   5146   1    1.0910e-01    2.8342e+05 ;    C35 - H5B   
  5144   5147   1    1.0910e-01    2.8342e+05 ;    C35 - H5C   
  5150   5151   1    1.3430e-01    3.4418e+05 ;    O21 - C21   
  5151   5152   1    1.2140e-01    5.4225e+05 ;    C21 - O22   
  5151   5190   1    1.5080e-01    2.7472e+05 ;    C21 - C12   
  5153   5154   1    1.0920e-01    2.8225e+05 ;   H14T - C114  
  5154   5155   1    1.0920e-01    2.8225e+05 ;   C114 - H14R  
  5154   5156   1    1.0920e-01    2.8225e+05 ;   C114 - H14S  
  5154   5157   1    1.5350e-01    2.5363e+05 ;   C114 - C113  
  5157   5158   1    1.0920e-01    2.8225e+05 ;   C113 - H13R  
  5157   5159   1    1.0920e-01    2.8225e+05 ;   C113 - H13S  
  5157   5160   1    1.5350e-01    2.5363e+05 ;   C113 - C112  
  5160   5161   1    1.0920e-01    2.8225e+05 ;   C112 - H12R  
  5160   5162   1    1.0920e-01    2.8225e+05 ;   C112 - H12S  
  5160   5163   1    1.5350e-01    2.5363e+05 ;   C112 - C111  
  5163   5164   1    1.0920e-01    2.8225e+05 ;   C111 - H11R  
  5163   5165   1    1.0920e-01    2.8225e+05 ;   C111 - H11S  
  5163   5166   1    1.5350e-01    2.5363e+05 ;   C111 - C110  
  5166   5167   1    1.0920e-01    2.8225e+05 ;   C110 - H10R  
  5166   5168   1    1.0920e-01    2.8225e+05 ;   C110 - H10S  
  5166   5169   1    1.5350e-01    2.5363e+05 ;   C110 - C19   
  5169   5170   1    1.0920e-01    2.8225e+05 ;    C19 - H9R   
  5169   5171   1    1.0920e-01    2.8225e+05 ;    C19 - H9S   
  5169   5172   1    1.5350e-01    2.5363e+05 ;    C19 - C18   
  5172   5173   1    1.0920e-01    2.8225e+05 ;    C18 - H8R   
  5172   5174   1    1.0920e-01    2.8225e+05 ;    C18 - H8S   
  5172   5175   1    1.5350e-01    2.5363e+05 ;    C18 - C17   
  5175   5176   1    1.0920e-01    2.8225e+05 ;    C17 - H7R   
  5175   5177   1    1.0920e-01    2.8225e+05 ;    C17 - H7S   
  5175   5178   1    1.5350e-01    2.5363e+05 ;    C17 - C16   
  5178   5179   1    1.0920e-01    2.8225e+05 ;    C16 - H6R   
  5178   5180   1    1.0920e-01    2.8225e+05 ;    C16 - H6S   
  5178   5181   1    1.5350e-01    2.5363e+05 ;    C16 - C15   
  5181   5182   1    1.0920e-01    2.8225e+05 ;    C15 - H5R   
  5181   5183   1    1.0920e-01    2.8225e+05 ;    C15 - H5S   
  5181   5184   1    1.5350e-01    2.5363e+05 ;    C15 - C14   
  5184   5185   1    1.0920e-01    2.8225e+05 ;    C14 - H4R   
  5184   5186   1    1.0920e-01    2.8225e+05 ;    C14 - H4S   
  5184   5187   1    1.5350e-01    2.5363e+05 ;    C14 - C13   
  5187   5188   1    1.0920e-01    2.8225e+05 ;    C13 - H3R   
  5187   5189   1    1.0920e-01    2.8225e+05 ;    C13 - H3S   
  5187   5190   1    1.5350e-01    2.5363e+05 ;    C13 - C12   
  5190   5191   1    1.0920e-01    2.8225e+05 ;    C12 - H2R   
  5190   5192   1    1.0920e-01    2.8225e+05 ;    C12 - H2S   
  5193   5194   1    1.0920e-01    2.8225e+05 ;   H14T - C114  
  5194   5195   1    1.0920e-01    2.8225e+05 ;   C114 - H14R  
  5194   5196   1    1.0920e-01    2.8225e+05 ;   C114 - H14S  
  5194   5197   1    1.5350e-01    2.5363e+05 ;   C114 - C113  
  5197   5198   1    1.0920e-01    2.8225e+05 ;   C113 - H13R  
  5197   5199   1    1.0920e-01    2.8225e+05 ;   C113 - H13S  
  5197   5200   1    1.5350e-01    2.5363e+05 ;   C113 - C112  
  5200   5201   1    1.0920e-01    2.8225e+05 ;   C112 - H12R  
  5200   5202   1    1.0920e-01    2.8225e+05 ;   C112 - H12S  
  5200   5203   1    1.5350e-01    2.5363e+05 ;   C112 - C111  
  5203   5204   1    1.0920e-01    2.8225e+05 ;   C111 - H11R  
  5203   5205   1    1.0920e-01    2.8225e+05 ;   C111 - H11S  
  5203   5206   1    1.5350e-01    2.5363e+05 ;   C111 - C110  
  5206   5207   1    1.0920e-01    2.8225e+05 ;   C110 - H10R  
  5206   5208   1    1.0920e-01    2.8225e+05 ;   C110 - H10S  
  5206   5209   1    1.5350e-01    2.5363e+05 ;   C110 - C19   
  5209   5210   1    1.0920e-01    2.8225e+05 ;    C19 - H9R   
  5209   5211   1    1.0920e-01    2.8225e+05 ;    C19 - H9S   
  5209   5212   1    1.5350e-01    2.5363e+05 ;    C19 - C18   
  5212   5213   1    1.0920e-01    2.8225e+05 ;    C18 - H8R   
  5212   5214   1    1.0920e-01    2.8225e+05 ;    C18 - H8S   
  5212   5215   1    1.5350e-01    2.5363e+05 ;    C18 - C17   
  5215   5216   1    1.0920e-01    2.8225e+05 ;    C17 - H7R   
  5215   5217   1    1.0920e-01    2.8225e+05 ;    C17 - H7S   
  5215   5218   1    1.5350e-01    2.5363e+05 ;    C17 - C16   
  5218   5219   1    1.0920e-01    2.8225e+05 ;    C16 - H6R   
  5218   5220   1    1.0920e-01    2.8225e+05 ;    C16 - H6S   
  5218   5221   1    1.5350e-01    2.5363e+05 ;    C16 - C15   
  5221   5222   1    1.0920e-01    2.8225e+05 ;    C15 - H5R   
  5221   5223   1    1.0920e-01    2.8225e+05 ;    C15 - H5S   
  5221   5224   1    1.5350e-01    2.5363e+05 ;    C15 - C14   
  5224   5225   1    1.0920e-01    2.8225e+05 ;    C14 - H4R   
  5224   5226   1    1.0920e-01    2.8225e+05 ;    C14 - H4S   
  5224   5227   1    1.5350e-01    2.5363e+05 ;    C14 - C13   
  5227   5228   1    1.0920e-01    2.8225e+05 ;    C13 - H3R   
  5227   5229   1    1.0920e-01    2.8225e+05 ;    C13 - H3S   
  5227   5230   1    1.5350e-01    2.5363e+05 ;    C13 - C12   
  5230   5231   1    1.0920e-01    2.8225e+05 ;    C12 - H2R   
  5230   5232   1    1.0920e-01    2.8225e+05 ;    C12 - H2S   
  5230   5233   1    1.5080e-01    2.7472e+05 ;    C12 - C11   
  5233   5234   1    1.2140e-01    5.4225e+05 ;    C11 - O12   
  5233   5235   1    1.3430e-01    3.4418e+05 ;    C11 - O11   
  5235   5236   1    1.4390e-01    2.5230e+05 ;    O11 - C1    
  5236   5237   1    1.0930e-01    2.8108e+05 ;     C1 - HR    
  5236   5238   1    1.0930e-01    2.8108e+05 ;     C1 - HS    
  5236   5239   1    1.5350e-01    2.5363e+05 ;     C1 - C2    
  5239   5240   1    1.0930e-01    2.8108e+05 ;     C2 - HX    
  5239   5241   1    1.5350e-01    2.5363e+05 ;     C2 - C3    
  5239   5268   1    1.4390e-01    2.5230e+05 ;     C2 - O21   
  5241   5242   1    1.0930e-01    2.8108e+05 ;     C3 - HA    
  5241   5243   1    1.0930e-01    2.8108e+05 ;     C3 - HB    
  5241   5244   1    1.4390e-01    2.5230e+05 ;     C3 - O31   
  5244   5245   1    1.6100e-01    1.9246e+05 ;    O31 - P31   
  5245   5246   1    1.6100e-01    1.9246e+05 ;    P31 - O32   
  5245   5266   1    1.4800e-01    4.3932e+05 ;    P31 - O33   
  5245   5267   1    1.4800e-01    4.3932e+05 ;    P31 - O34   
  5246   5247   1    1.4390e-01    2.5230e+05 ;    O32 - C31   
  5247   5248   1    1.0930e-01    2.8108e+05 ;    C31 - H1A   
  5247   5249   1    1.0930e-01    2.8108e+05 ;    C31 - H1B   
  5247   5250   1    1.5350e-01    2.5363e+05 ;    C31 - C32   
  5250   5251   1    1.0910e-01    2.8342e+05 ;    C32 - H2A   
  5250   5252   1    1.0910e-01    2.8342e+05 ;    C32 - H2B   
  5250   5253   1    1.4990e-01    2.4568e+05 ;    C32 - N31   
  5253   5254   1    1.4990e-01    2.4568e+05 ;    N31 - C33   
  5253   5258   1    1.4990e-01    2.4568e+05 ;    N31 - C34   
  5253   5262   1    1.4990e-01    2.4568e+05 ;    N31 - C35   
  5254   5255   1    1.0910e-01    2.8342e+05 ;    C33 - H3A   
  5254   5256   1    1.0910e-01    2.8342e+05 ;    C33 - H3B   
  5254   5257   1    1.0910e-01    2.8342e+05 ;    C33 - H3C   
  5258   5259   1    1.0910e-01    2.8342e+05 ;    C34 - H4A   
  5258   5260   1    1.0910e-01    2.8342e+05 ;    C34 - H4B   
  5258   5261   1    1.0910e-01    2.8342e+05 ;    C34 - H4C   
  5262   5263   1    1.0910e-01    2.8342e+05 ;    C35 - H5A   
  5262   5264   1    1.0910e-01    2.8342e+05 ;    C35 - H5B   
  5262   5265   1    1.0910e-01    2.8342e+05 ;    C35 - H5C   
  5268   5269   1    1.3430e-01    3.4418e+05 ;    O21 - C21   
  5269   5270   1    1.2140e-01    5.4225e+05 ;    C21 - O22   
  5269   5308   1    1.5080e-01    2.7472e+05 ;    C21 - C12   
  5271   5272   1    1.0920e-01    2.8225e+05 ;   H14T - C114  
  5272   5273   1    1.0920e-01    2.8225e+05 ;   C114 - H14R  
  5272   5274   1    1.0920e-01    2.8225e+05 ;   C114 - H14S  
  5272   5275   1    1.5350e-01    2.5363e+05 ;   C114 - C113  
  5275   5276   1    1.0920e-01    2.8225e+05 ;   C113 - H13R  
  5275   5277   1    1.0920e-01    2.8225e+05 ;   C113 - H13S  
  5275   5278   1    1.5350e-01    2.5363e+05 ;   C113 - C112  
  5278   5279   1    1.0920e-01    2.8225e+05 ;   C112 - H12R  
  5278   5280   1    1.0920e-01    2.8225e+05 ;   C112 - H12S  
  5278   5281   1    1.5350e-01    2.5363e+05 ;   C112 - C111  
  5281   5282   1    1.0920e-01    2.8225e+05 ;   C111 - H11R  
  5281   5283   1    1.0920e-01    2.8225e+05 ;   C111 - H11S  
  5281   5284   1    1.5350e-01    2.5363e+05 ;   C111 - C110  
  5284   5285   1    1.0920e-01    2.8225e+05 ;   C110 - H10R  
  5284   5286   1    1.0920e-01    2.8225e+05 ;   C110 - H10S  
  5284   5287   1    1.5350e-01    2.5363e+05 ;   C110 - C19   
  5287   5288   1    1.0920e-01    2.8225e+05 ;    C19 - H9R   
  5287   5289   1    1.0920e-01    2.8225e+05 ;    C19 - H9S   
  5287   5290   1    1.5350e-01    2.5363e+05 ;    C19 - C18   
  5290   5291   1    1.0920e-01    2.8225e+05 ;    C18 - H8R   
  5290   5292   1    1.0920e-01    2.8225e+05 ;    C18 - H8S   
  5290   5293   1    1.5350e-01    2.5363e+05 ;    C18 - C17   
  5293   5294   1    1.0920e-01    2.8225e+05 ;    C17 - H7R   
  5293   5295   1    1.0920e-01    2.8225e+05 ;    C17 - H7S   
  5293   5296   1    1.5350e-01    2.5363e+05 ;    C17 - C16   
  5296   5297   1    1.0920e-01    2.8225e+05 ;    C16 - H6R   
  5296   5298   1    1.0920e-01    2.8225e+05 ;    C16 - H6S   
  5296   5299   1    1.5350e-01    2.5363e+05 ;    C16 - C15   
  5299   5300   1    1.0920e-01    2.8225e+05 ;    C15 - H5R   
  5299   5301   1    1.0920e-01    2.8225e+05 ;    C15 - H5S   
  5299   5302   1    1.5350e-01    2.5363e+05 ;    C15 - C14   
  5302   5303   1    1.0920e-01    2.8225e+05 ;    C14 - H4R   
  5302   5304   1    1.0920e-01    2.8225e+05 ;    C14 - H4S   
  5302   5305   1    1.5350e-01    2.5363e+05 ;    C14 - C13   
  5305   5306   1    1.0920e-01    2.8225e+05 ;    C13 - H3R   
  5305   5307   1    1.0920e-01    2.8225e+05 ;    C13 - H3S   
  5305   5308   1    1.5350e-01    2.5363e+05 ;    C13 - C12   
  5308   5309   1    1.0920e-01    2.8225e+05 ;    C12 - H2R   
  5308   5310   1    1.0920e-01    2.8225e+05 ;    C12 - H2S   
  5311   5312   1    1.0920e-01    2.8225e+05 ;   H14T - C114  
  5312   5313   1    1.0920e-01    2.8225e+05 ;   C114 - H14R  
  5312   5314   1    1.0920e-01    2.8225e+05 ;   C114 - H14S  
  5312   5315   1    1.5350e-01    2.5363e+05 ;   C114 - C113  
  5315   5316   1    1.0920e-01    2.8225e+05 ;   C113 - H13R  
  5315   5317   1    1.0920e-01    2.8225e+05 ;   C113 - H13S  
  5315   5318   1    1.5350e-01    2.5363e+05 ;   C113 - C112  
  5318   5319   1    1.0920e-01    2.8225e+05 ;   C112 - H12R  
  5318   5320   1    1.0920e-01    2.8225e+05 ;   C112 - H12S  
  5318   5321   1    1.5350e-01    2.5363e+05 ;   C112 - C111  
  5321   5322   1    1.0920e-01    2.8225e+05 ;   C111 - H11R  
  5321   5323   1    1.0920e-01    2.8225e+05 ;   C111 - H11S  
  5321   5324   1    1.5350e-01    2.5363e+05 ;   C111 - C110  
  5324   5325   1    1.0920e-01    2.8225e+05 ;   C110 - H10R  
  5324   5326   1    1.0920e-01    2.8225e+05 ;   C110 - H10S  
  5324   5327   1    1.5350e-01    2.5363e+05 ;   C110 - C19   
  5327   5328   1    1.0920e-01    2.8225e+05 ;    C19 - H9R   
  5327   5329   1    1.0920e-01    2.8225e+05 ;    C19 - H9S   
  5327   5330   1    1.5350e-01    2.5363e+05 ;    C19 - C18   
  5330   5331   1    1.0920e-01    2.8225e+05 ;    C18 - H8R   
  5330   5332   1    1.0920e-01    2.8225e+05 ;    C18 - H8S   
  5330   5333   1    1.5350e-01    2.5363e+05 ;    C18 - C17   
  5333   5334   1    1.0920e-01    2.8225e+05 ;    C17 - H7R   
  5333   5335   1    1.0920e-01    2.8225e+05 ;    C17 - H7S   
  5333   5336   1    1.5350e-01    2.5363e+05 ;    C17 - C16   
  5336   5337   1    1.0920e-01    2.8225e+05 ;    C16 - H6R   
  5336   5338   1    1.0920e-01    2.8225e+05 ;    C16 - H6S   
  5336   5339   1    1.5350e-01    2.5363e+05 ;    C16 - C15   
  5339   5340   1    1.0920e-01    2.8225e+05 ;    C15 - H5R   
  5339   5341   1    1.0920e-01    2.8225e+05 ;    C15 - H5S   
  5339   5342   1    1.5350e-01    2.5363e+05 ;    C15 - C14   
  5342   5343   1    1.0920e-01    2.8225e+05 ;    C14 - H4R   
  5342   5344   1    1.0920e-01    2.8225e+05 ;    C14 - H4S   
  5342   5345   1    1.5350e-01    2.5363e+05 ;    C14 - C13   
  5345   5346   1    1.0920e-01    2.8225e+05 ;    C13 - H3R   
  5345   5347   1    1.0920e-01    2.8225e+05 ;    C13 - H3S   
  5345   5348   1    1.5350e-01    2.5363e+05 ;    C13 - C12   
  5348   5349   1    1.0920e-01    2.8225e+05 ;    C12 - H2R   
  5348   5350   1    1.0920e-01    2.8225e+05 ;    C12 - H2S   
  5348   5351   1    1.5080e-01    2.7472e+05 ;    C12 - C11   
  5351   5352   1    1.2140e-01    5.4225e+05 ;    C11 - O12   
  5351   5353   1    1.3430e-01    3.4418e+05 ;    C11 - O11   
  5353   5354   1    1.4390e-01    2.5230e+05 ;    O11 - C1    
  5354   5355   1    1.0930e-01    2.8108e+05 ;     C1 - HR    
  5354   5356   1    1.0930e-01    2.8108e+05 ;     C1 - HS    
  5354   5357   1    1.5350e-01    2.5363e+05 ;     C1 - C2    
  5357   5358   1    1.0930e-01    2.8108e+05 ;     C2 - HX    
  5357   5359   1    1.5350e-01    2.5363e+05 ;     C2 - C3    
  5357   5386   1    1.4390e-01    2.5230e+05 ;     C2 - O21   
  5359   5360   1    1.0930e-01    2.8108e+05 ;     C3 - HA    
  5359   5361   1    1.0930e-01    2.8108e+05 ;     C3 - HB    
  5359   5362   1    1.4390e-01    2.5230e+05 ;     C3 - O31   
  5362   5363   1    1.6100e-01    1.9246e+05 ;    O31 - P31   
  5363   5364   1    1.6100e-01    1.9246e+05 ;    P31 - O32   
  5363   5384   1    1.4800e-01    4.3932e+05 ;    P31 - O33   
  5363   5385   1    1.4800e-01    4.3932e+05 ;    P31 - O34   
  5364   5365   1    1.4390e-01    2.5230e+05 ;    O32 - C31   
  5365   5366   1    1.0930e-01    2.8108e+05 ;    C31 - H1A   
  5365   5367   1    1.0930e-01    2.8108e+05 ;    C31 - H1B   
  5365   5368   1    1.5350e-01    2.5363e+05 ;    C31 - C32   
  5368   5369   1    1.0910e-01    2.8342e+05 ;    C32 - H2A   
  5368   5370   1    1.0910e-01    2.8342e+05 ;    C32 - H2B   
  5368   5371   1    1.4990e-01    2.4568e+05 ;    C32 - N31   
  5371   5372   1    1.4990e-01    2.4568e+05 ;    N31 - C33   
  5371   5376   1    1.4990e-01    2.4568e+05 ;    N31 - C34   
  5371   5380   1    1.4990e-01    2.4568e+05 ;    N31 - C35   
  5372   5373   1    1.0910e-01    2.8342e+05 ;    C33 - H3A   
  5372   5374   1    1.0910e-01    2.8342e+05 ;    C33 - H3B   
  5372   5375   1    1.0910e-01    2.8342e+05 ;    C33 - H3C   
  5376   5377   1    1.0910e-01    2.8342e+05 ;    C34 - H4A   
  5376   5378   1    1.0910e-01    2.8342e+05 ;    C34 - H4B   
  5376   5379   1    1.0910e-01    2.8342e+05 ;    C34 - H4C   
  5380   5381   1    1.0910e-01    2.8342e+05 ;    C35 - H5A   
  5380   5382   1    1.0910e-01    2.8342e+05 ;    C35 - H5B   
  5380   5383   1    1.0910e-01    2.8342e+05 ;    C35 - H5C   
  5386   5387   1    1.3430e-01    3.4418e+05 ;    O21 - C21   
  5387   5388   1    1.2140e-01    5.4225e+05 ;    C21 - O22   
  5387   5426   1    1.5080e-01    2.7472e+05 ;    C21 - C12   
  5389   5390   1    1.0920e-01    2.8225e+05 ;   H14T - C114  
  5390   5391   1    1.0920e-01    2.8225e+05 ;   C114 - H14R  
  5390   5392   1    1.0920e-01    2.8225e+05 ;   C114 - H14S  
  5390   5393   1    1.5350e-01    2.5363e+05 ;   C114 - C113  
  5393   5394   1    1.0920e-01    2.8225e+05 ;   C113 - H13R  
  5393   5395   1    1.0920e-01    2.8225e+05 ;   C113 - H13S  
  5393   5396   1    1.5350e-01    2.5363e+05 ;   C113 - C112  
  5396   5397   1    1.0920e-01    2.8225e+05 ;   C112 - H12R  
  5396   5398   1    1.0920e-01    2.8225e+05 ;   C112 - H12S  
  5396   5399   1    1.5350e-01    2.5363e+05 ;   C112 - C111  
  5399   5400   1    1.0920e-01    2.8225e+05 ;   C111 - H11R  
  5399   5401   1    1.0920e-01    2.8225e+05 ;   C111 - H11S  
  5399   5402   1    1.5350e-01    2.5363e+05 ;   C111 - C110  
  5402   5403   1    1.0920e-01    2.8225e+05 ;   C110 - H10R  
  5402   5404   1    1.0920e-01    2.8225e+05 ;   C110 - H10S  
  5402   5405   1    1.5350e-01    2.5363e+05 ;   C110 - C19   
  5405   5406   1    1.0920e-01    2.8225e+05 ;    C19 - H9R   
  5405   5407   1    1.0920e-01    2.8225e+05 ;    C19 - H9S   
  5405   5408   1    1.5350e-01    2.5363e+05 ;    C19 - C18   
  5408   5409   1    1.0920e-01    2.8225e+05 ;    C18 - H8R   
  5408   5410   1    1.0920e-01    2.8225e+05 ;    C18 - H8S   
  5408   5411   1    1.5350e-01    2.5363e+05 ;    C18 - C17   
  5411   5412   1    1.0920e-01    2.8225e+05 ;    C17 - H7R   
  5411   5413   1    1.0920e-01    2.8225e+05 ;    C17 - H7S   
  5411   5414   1    1.5350e-01    2.5363e+05 ;    C17 - C16   
  5414   5415   1    1.0920e-01    2.8225e+05 ;    C16 - H6R   
  5414   5416   1    1.0920e-01    2.8225e+05 ;    C16 - H6S   
  5414   5417   1    1.5350e-01    2.5363e+05 ;    C16 - C15   
  5417   5418   1    1.0920e-01    2.8225e+05 ;    C15 - H5R   
  5417   5419   1    1.0920e-01    2.8225e+05 ;    C15 - H5S   
  5417   5420   1    1.5350e-01    2.5363e+05 ;    C15 - C14   
  5420   5421   1    1.0920e-01    2.8225e+05 ;    C14 - H4R   
  5420   5422   1    1.0920e-01    2.8225e+05 ;    C14 - H4S   
  5420   5423   1    1.5350e-01    2.5363e+05 ;    C14 - C13   
  5423   5424   1    1.0920e-01    2.8225e+05 ;    C13 - H3R   
  5423   5425   1    1.0920e-01    2.8225e+05 ;    C13 - H3S   
  5423   5426   1    1.5350e-01    2.5363e+05 ;    C13 - C12   
  5426   5427   1    1.0920e-01    2.8225e+05 ;    C12 - H2R   
  5426   5428   1    1.0920e-01    2.8225e+05 ;    C12 - H2S   
  5429   5430   1    1.0920e-01    2.8225e+05 ;   H14T - C114  
  5430   5431   1    1.0920e-01    2.8225e+05 ;   C114 - H14R  
  5430   5432   1    1.0920e-01    2.8225e+05 ;   C114 - H14S  
  5430   5433   1    1.5350e-01    2.5363e+05 ;   C114 - C113  
  5433   5434   1    1.0920e-01    2.8225e+05 ;   C113 - H13R  
  5433   5435   1    1.0920e-01    2.8225e+05 ;   C113 - H13S  
  5433   5436   1    1.5350e-01    2.5363e+05 ;   C113 - C112  
  5436   5437   1    1.0920e-01    2.8225e+05 ;   C112 - H12R  
  5436   5438   1    1.0920e-01    2.8225e+05 ;   C112 - H12S  
  5436   5439   1    1.5350e-01    2.5363e+05 ;   C112 - C111  
  5439   5440   1    1.0920e-01    2.8225e+05 ;   C111 - H11R  
  5439   5441   1    1.0920e-01    2.8225e+05 ;   C111 - H11S  
  5439   5442   1    1.5350e-01    2.5363e+05 ;   C111 - C110  
  5442   5443   1    1.0920e-01    2.8225e+05 ;   C110 - H10R  
  5442   5444   1    1.0920e-01    2.8225e+05 ;   C110 - H10S  
  5442   5445   1    1.5350e-01    2.5363e+05 ;   C110 - C19   
  5445   5446   1    1.0920e-01    2.8225e+05 ;    C19 - H9R   
  5445   5447   1    1.0920e-01    2.8225e+05 ;    C19 - H9S   
  5445   5448   1    1.5350e-01    2.5363e+05 ;    C19 - C18   
  5448   5449   1    1.0920e-01    2.8225e+05 ;    C18 - H8R   
  5448   5450   1    1.0920e-01    2.8225e+05 ;    C18 - H8S   
  5448   5451   1    1.5350e-01    2.5363e+05 ;    C18 - C17   
  5451   5452   1    1.0920e-01    2.8225e+05 ;    C17 - H7R   
  5451   5453   1    1.0920e-01    2.8225e+05 ;    C17 - H7S   
  5451   5454   1    1.5350e-01    2.5363e+05 ;    C17 - C16   
  5454   5455   1    1.0920e-01    2.8225e+05 ;    C16 - H6R   
  5454   5456   1    1.0920e-01    2.8225e+05 ;    C16 - H6S   
  5454   5457   1    1.5350e-01    2.5363e+05 ;    C16 - C15   
  5457   5458   1    1.0920e-01    2.8225e+05 ;    C15 - H5R   
  5457   5459   1    1.0920e-01    2.8225e+05 ;    C15 - H5S   
  5457   5460   1    1.5350e-01    2.5363e+05 ;    C15 - C14   
  5460   5461   1    1.0920e-01    2.8225e+05 ;    C14 - H4R   
  5460   5462   1    1.0920e-01    2.8225e+05 ;    C14 - H4S   
  5460   5463   1    1.5350e-01    2.5363e+05 ;    C14 - C13   
  5463   5464   1    1.0920e-01    2.8225e+05 ;    C13 - H3R   
  5463   5465   1    1.0920e-01    2.8225e+05 ;    C13 - H3S   
  5463   5466   1    1.5350e-01    2.5363e+05 ;    C13 - C12   
  5466   5467   1    1.0920e-01    2.8225e+05 ;    C12 - H2R   
  5466   5468   1    1.0920e-01    2.8225e+05 ;    C12 - H2S   
  5466   5469   1    1.5080e-01    2.7472e+05 ;    C12 - C11   
  5469   5470   1    1.2140e-01    5.4225e+05 ;    C11 - O12   
  5469   5471   1    1.3430e-01    3.4418e+05 ;    C11 - O11   
  5471   5472   1    1.4390e-01    2.5230e+05 ;    O11 - C1    
  5472   5473   1    1.0930e-01    2.8108e+05 ;     C1 - HR    
  5472   5474   1    1.0930e-01    2.8108e+05 ;     C1 - HS    
  5472   5475   1    1.5350e-01    2.5363e+05 ;     C1 - C2    
  5475   5476   1    1.0930e-01    2.8108e+05 ;     C2 - HX    
  5475   5477   1    1.5350e-01    2.5363e+05 ;     C2 - C3    
  5475   5504   1    1.4390e-01    2.5230e+05 ;     C2 - O21   
  5477   5478   1    1.0930e-01    2.8108e+05 ;     C3 - HA    
  5477   5479   1    1.0930e-01    2.8108e+05 ;     C3 - HB    
  5477   5480   1    1.4390e-01    2.5230e+05 ;     C3 - O31   
  5480   5481   1    1.6100e-01    1.9246e+05 ;    O31 - P31   
  5481   5482   1    1.6100e-01    1.9246e+05 ;    P31 - O32   
  5481   5502   1    1.4800e-01    4.3932e+05 ;    P31 - O33   
  5481   5503   1    1.4800e-01    4.3932e+05 ;    P31 - O34   
  5482   5483   1    1.4390e-01    2.5230e+05 ;    O32 - C31   
  5483   5484   1    1.0930e-01    2.8108e+05 ;    C31 - H1A   
  5483   5485   1    1.0930e-01    2.8108e+05 ;    C31 - H1B   
  5483   5486   1    1.5350e-01    2.5363e+05 ;    C31 - C32   
  5486   5487   1    1.0910e-01    2.8342e+05 ;    C32 - H2A   
  5486   5488   1    1.0910e-01    2.8342e+05 ;    C32 - H2B   
  5486   5489   1    1.4990e-01    2.4568e+05 ;    C32 - N31   
  5489   5490   1    1.4990e-01    2.4568e+05 ;    N31 - C33   
  5489   5494   1    1.4990e-01    2.4568e+05 ;    N31 - C34   
  5489   5498   1    1.4990e-01    2.4568e+05 ;    N31 - C35   
  5490   5491   1    1.0910e-01    2.8342e+05 ;    C33 - H3A   
  5490   5492   1    1.0910e-01    2.8342e+05 ;    C33 - H3B   
  5490   5493   1    1.0910e-01    2.8342e+05 ;    C33 - H3C   
  5494   5495   1    1.0910e-01    2.8342e+05 ;    C34 - H4A   
  5494   5496   1    1.0910e-01    2.8342e+05 ;    C34 - H4B   
  5494   5497   1    1.0910e-01    2.8342e+05 ;    C34 - H4C   
  5498   5499   1    1.0910e-01    2.8342e+05 ;    C35 - H5A   
  5498   5500   1    1.0910e-01    2.8342e+05 ;    C35 - H5B   
  5498   5501   1    1.0910e-01    2.8342e+05 ;    C35 - H5C   
  5504   5505   1    1.3430e-01    3.4418e+05 ;    O21 - C21   
  5505   5506   1    1.2140e-01    5.4225e+05 ;    C21 - O22   
  5505   5544   1    1.5080e-01    2.7472e+05 ;    C21 - C12   
  5507   5508   1    1.0920e-01    2.8225e+05 ;   H14T - C114  
  5508   5509   1    1.0920e-01    2.8225e+05 ;   C114 - H14R  
  5508   5510   1    1.0920e-01    2.8225e+05 ;   C114 - H14S  
  5508   5511   1    1.5350e-01    2.5363e+05 ;   C114 - C113  
  5511   5512   1    1.0920e-01    2.8225e+05 ;   C113 - H13R  
  5511   5513   1    1.0920e-01    2.8225e+05 ;   C113 - H13S  
  5511   5514   1    1.5350e-01    2.5363e+05 ;   C113 - C112  
  5514   5515   1    1.0920e-01    2.8225e+05 ;   C112 - H12R  
  5514   5516   1    1.0920e-01    2.8225e+05 ;   C112 - H12S  
  5514   5517   1    1.5350e-01    2.5363e+05 ;   C112 - C111  
  5517   5518   1    1.0920e-01    2.8225e+05 ;   C111 - H11R  
  5517   5519   1    1.0920e-01    2.8225e+05 ;   C111 - H11S  
  5517   5520   1    1.5350e-01    2.5363e+05 ;   C111 - C110  
  5520   5521   1    1.0920e-01    2.8225e+05 ;   C110 - H10R  
  5520   5522   1    1.0920e-01    2.8225e+05 ;   C110 - H10S  
  5520   5523   1    1.5350e-01    2.5363e+05 ;   C110 - C19   
  5523   5524   1    1.0920e-01    2.8225e+05 ;    C19 - H9R   
  5523   5525   1    1.0920e-01    2.8225e+05 ;    C19 - H9S   
  5523   5526   1    1.5350e-01    2.5363e+05 ;    C19 - C18   
  5526   5527   1    1.0920e-01    2.8225e+05 ;    C18 - H8R   
  5526   5528   1    1.0920e-01    2.8225e+05 ;    C18 - H8S   
  5526   5529   1    1.5350e-01    2.5363e+05 ;    C18 - C17   
  5529   5530   1    1.0920e-01    2.8225e+05 ;    C17 - H7R   
  5529   5531   1    1.0920e-01    2.8225e+05 ;    C17 - H7S   
  5529   5532   1    1.5350e-01    2.5363e+05 ;    C17 - C16   
  5532   5533   1    1.0920e-01    2.8225e+05 ;    C16 - H6R   
  5532   5534   1    1.0920e-01    2.8225e+05 ;    C16 - H6S   
  5532   5535   1    1.5350e-01    2.5363e+05 ;    C16 - C15   
  5535   5536   1    1.0920e-01    2.8225e+05 ;    C15 - H5R   
  5535   5537   1    1.0920e-01    2.8225e+05 ;    C15 - H5S   
  5535   5538   1    1.5350e-01    2.5363e+05 ;    C15 - C14   
  5538   5539   1    1.0920e-01    2.8225e+05 ;    C14 - H4R   
  5538   5540   1    1.0920e-01    2.8225e+05 ;    C14 - H4S   
  5538   5541   1    1.5350e-01    2.5363e+05 ;    C14 - C13   
  5541   5542   1    1.0920e-01    2.8225e+05 ;    C13 - H3R   
  5541   5543   1    1.0920e-01    2.8225e+05 ;    C13 - H3S   
  5541   5544   1    1.5350e-01    2.5363e+05 ;    C13 - C12   
  5544   5545   1    1.0920e-01    2.8225e+05 ;    C12 - H2R   
  5544   5546   1    1.0920e-01    2.8225e+05 ;    C12 - H2S   
  5547   5548   1    1.0920e-01    2.8225e+05 ;   H14T - C114  
  5548   5549   1    1.0920e-01    2.8225e+05 ;   C114 - H14R  
  5548   5550   1    1.0920e-01    2.8225e+05 ;   C114 - H14S  
  5548   5551   1    1.5350e-01    2.5363e+05 ;   C114 - C113  
  5551   5552   1    1.0920e-01    2.8225e+05 ;   C113 - H13R  
  5551   5553   1    1.0920e-01    2.8225e+05 ;   C113 - H13S  
  5551   5554   1    1.5350e-01    2.5363e+05 ;   C113 - C112  
  5554   5555   1    1.0920e-01    2.8225e+05 ;   C112 - H12R  
  5554   5556   1    1.0920e-01    2.8225e+05 ;   C112 - H12S  
  5554   5557   1    1.5350e-01    2.5363e+05 ;   C112 - C111  
  5557   5558   1    1.0920e-01    2.8225e+05 ;   C111 - H11R  
  5557   5559   1    1.0920e-01    2.8225e+05 ;   C111 - H11S  
  5557   5560   1    1.5350e-01    2.5363e+05 ;   C111 - C110  
  5560   5561   1    1.0920e-01    2.8225e+05 ;   C110 - H10R  
  5560   5562   1    1.0920e-01    2.8225e+05 ;   C110 - H10S  
  5560   5563   1    1.5350e-01    2.5363e+05 ;   C110 - C19   
  5563   5564   1    1.0920e-01    2.8225e+05 ;    C19 - H9R   
  5563   5565   1    1.0920e-01    2.8225e+05 ;    C19 - H9S   
  5563   5566   1    1.5350e-01    2.5363e+05 ;    C19 - C18   
  5566   5567   1    1.0920e-01    2.8225e+05 ;    C18 - H8R   
  5566   5568   1    1.0920e-01    2.8225e+05 ;    C18 - H8S   
  5566   5569   1    1.5350e-01    2.5363e+05 ;    C18 - C17   
  5569   5570   1    1.0920e-01    2.8225e+05 ;    C17 - H7R   
  5569   5571   1    1.0920e-01    2.8225e+05 ;    C17 - H7S   
  5569   5572   1    1.5350e-01    2.5363e+05 ;    C17 - C16   
  5572   5573   1    1.0920e-01    2.8225e+05 ;    C16 - H6R   
  5572   5574   1    1.0920e-01    2.8225e+05 ;    C16 - H6S   
  5572   5575   1    1.5350e-01    2.5363e+05 ;    C16 - C15   
  5575   5576   1    1.0920e-01    2.8225e+05 ;    C15 - H5R   
  5575   5577   1    1.0920e-01    2.8225e+05 ;    C15 - H5S   
  5575   5578   1    1.5350e-01    2.5363e+05 ;    C15 - C14   
  5578   5579   1    1.0920e-01    2.8225e+05 ;    C14 - H4R   
  5578   5580   1    1.0920e-01    2.8225e+05 ;    C14 - H4S   
  5578   5581   1    1.5350e-01    2.5363e+05 ;    C14 - C13   
  5581   5582   1    1.0920e-01    2.8225e+05 ;    C13 - H3R   
  5581   5583   1    1.0920e-01    2.8225e+05 ;    C13 - H3S   
  5581   5584   1    1.5350e-01    2.5363e+05 ;    C13 - C12   
  5584   5585   1    1.0920e-01    2.8225e+05 ;    C12 - H2R   
  5584   5586   1    1.0920e-01    2.8225e+05 ;    C12 - H2S   
  5584   5587   1    1.5080e-01    2.7472e+05 ;    C12 - C11   
  5587   5588   1    1.2140e-01    5.4225e+05 ;    C11 - O12   
  5587   5589   1    1.3430e-01    3.4418e+05 ;    C11 - O11   
  5589   5590   1    1.4390e-01    2.5230e+05 ;    O11 - C1    
  5590   5591   1    1.0930e-01    2.8108e+05 ;     C1 - HR    
  5590   5592   1    1.0930e-01    2.8108e+05 ;     C1 - HS    
  5590   5593   1    1.5350e-01    2.5363e+05 ;     C1 - C2    
  5593   5594   1    1.0930e-01    2.8108e+05 ;     C2 - HX    
  5593   5595   1    1.5350e-01    2.5363e+05 ;     C2 - C3    
  5593   5622   1    1.4390e-01    2.5230e+05 ;     C2 - O21   
  5595   5596   1    1.0930e-01    2.8108e+05 ;     C3 - HA    
  5595   5597   1    1.0930e-01    2.8108e+05 ;     C3 - HB    
  5595   5598   1    1.4390e-01    2.5230e+05 ;     C3 - O31   
  5598   5599   1    1.6100e-01    1.9246e+05 ;    O31 - P31   
  5599   5600   1    1.6100e-01    1.9246e+05 ;    P31 - O32   
  5599   5620   1    1.4800e-01    4.3932e+05 ;    P31 - O33   
  5599   5621   1    1.4800e-01    4.3932e+05 ;    P31 - O34   
  5600   5601   1    1.4390e-01    2.5230e+05 ;    O32 - C31   
  5601   5602   1    1.0930e-01    2.8108e+05 ;    C31 - H1A   
  5601   5603   1    1.0930e-01    2.8108e+05 ;    C31 - H1B   
  5601   5604   1    1.5350e-01    2.5363e+05 ;    C31 - C32   
  5604   5605   1    1.0910e-01    2.8342e+05 ;    C32 - H2A   
  5604   5606   1    1.0910e-01    2.8342e+05 ;    C32 - H2B   
  5604   5607   1    1.4990e-01    2.4568e+05 ;    C32 - N31   
  5607   5608   1    1.4990e-01    2.4568e+05 ;    N31 - C33   
  5607   5612   1    1.4990e-01    2.4568e+05 ;    N31 - C34   
  5607   5616   1    1.4990e-01    2.4568e+05 ;    N31 - C35   
  5608   5609   1    1.0910e-01    2.8342e+05 ;    C33 - H3A   
  5608   5610   1    1.0910e-01    2.8342e+05 ;    C33 - H3B   
  5608   5611   1    1.0910e-01    2.8342e+05 ;    C33 - H3C   
  5612   5613   1    1.0910e-01    2.8342e+05 ;    C34 - H4A   
  5612   5614   1    1.0910e-01    2.8342e+05 ;    C34 - H4B   
  5612   5615   1    1.0910e-01    2.8342e+05 ;    C34 - H4C   
  5616   5617   1    1.0910e-01    2.8342e+05 ;    C35 - H5A   
  5616   5618   1    1.0910e-01    2.8342e+05 ;    C35 - H5B   
  5616   5619   1    1.0910e-01    2.8342e+05 ;    C35 - H5C   
  5622   5623   1    1.3430e-01    3.4418e+05 ;    O21 - C21   
  5623   5624   1    1.2140e-01    5.4225e+05 ;    C21 - O22   
  5623   5662   1    1.5080e-01    2.7472e+05 ;    C21 - C12   
  5625   5626   1    1.0920e-01    2.8225e+05 ;   H14T - C114  
  5626   5627   1    1.0920e-01    2.8225e+05 ;   C114 - H14R  
  5626   5628   1    1.0920e-01    2.8225e+05 ;   C114 - H14S  
  5626   5629   1    1.5350e-01    2.5363e+05 ;   C114 - C113  
  5629   5630   1    1.0920e-01    2.8225e+05 ;   C113 - H13R  
  5629   5631   1    1.0920e-01    2.8225e+05 ;   C113 - H13S  
  5629   5632   1    1.5350e-01    2.5363e+05 ;   C113 - C112  
  5632   5633   1    1.0920e-01    2.8225e+05 ;   C112 - H12R  
  5632   5634   1    1.0920e-01    2.8225e+05 ;   C112 - H12S  
  5632   5635   1    1.5350e-01    2.5363e+05 ;   C112 - C111  
  5635   5636   1    1.0920e-01    2.8225e+05 ;   C111 - H11R  
  5635   5637   1    1.0920e-01    2.8225e+05 ;   C111 - H11S  
  5635   5638   1    1.5350e-01    2.5363e+05 ;   C111 - C110  
  5638   5639   1    1.0920e-01    2.8225e+05 ;   C110 - H10R  
  5638   5640   1    1.0920e-01    2.8225e+05 ;   C110 - H10S  
  5638   5641   1    1.5350e-01    2.5363e+05 ;   C110 - C19   
  5641   5642   1    1.0920e-01    2.8225e+05 ;    C19 - H9R   
  5641   5643   1    1.0920e-01    2.8225e+05 ;    C19 - H9S   
  5641   5644   1    1.5350e-01    2.5363e+05 ;    C19 - C18   
  5644   5645   1    1.0920e-01    2.8225e+05 ;    C18 - H8R   
  5644   5646   1    1.0920e-01    2.8225e+05 ;    C18 - H8S   
  5644   5647   1    1.5350e-01    2.5363e+05 ;    C18 - C17   
  5647   5648   1    1.0920e-01    2.8225e+05 ;    C17 - H7R   
  5647   5649   1    1.0920e-01    2.8225e+05 ;    C17 - H7S   
  5647   5650   1    1.5350e-01    2.5363e+05 ;    C17 - C16   
  5650   5651   1    1.0920e-01    2.8225e+05 ;    C16 - H6R   
  5650   5652   1    1.0920e-01    2.8225e+05 ;    C16 - H6S   
  5650   5653   1    1.5350e-01    2.5363e+05 ;    C16 - C15   
  5653   5654   1    1.0920e-01    2.8225e+05 ;    C15 - H5R   
  5653   5655   1    1.0920e-01    2.8225e+05 ;    C15 - H5S   
  5653   5656   1    1.5350e-01    2.5363e+05 ;    C15 - C14   
  5656   5657   1    1.0920e-01    2.8225e+05 ;    C14 - H4R   
  5656   5658   1    1.0920e-01    2.8225e+05 ;    C14 - H4S   
  5656   5659   1    1.5350e-01    2.5363e+05 ;    C14 - C13   
  5659   5660   1    1.0920e-01    2.8225e+05 ;    C13 - H3R   
  5659   5661   1    1.0920e-01    2.8225e+05 ;    C13 - H3S   
  5659   5662   1    1.5350e-01    2.5363e+05 ;    C13 - C12   
  5662   5663   1    1.0920e-01    2.8225e+05 ;    C12 - H2R   
  5662   5664   1    1.0920e-01    2.8225e+05 ;    C12 - H2S   
  5665   5666   1    1.0920e-01    2.8225e+05 ;   H14T - C114  
  5666   5667   1    1.0920e-01    2.8225e+05 ;   C114 - H14R  
  5666   5668   1    1.0920e-01    2.8225e+05 ;   C114 - H14S  
  5666   5669   1    1.5350e-01    2.5363e+05 ;   C114 - C113  
  5669   5670   1    1.0920e-01    2.8225e+05 ;   C113 - H13R  
  5669   5671   1    1.0920e-01    2.8225e+05 ;   C113 - H13S  
  5669   5672   1    1.5350e-01    2.5363e+05 ;   C113 - C112  
  5672   5673   1    1.0920e-01    2.8225e+05 ;   C112 - H12R  
  5672   5674   1    1.0920e-01    2.8225e+05 ;   C112 - H12S  
  5672   5675   1    1.5350e-01    2.5363e+05 ;   C112 - C111  
  5675   5676   1    1.0920e-01    2.8225e+05 ;   C111 - H11R  
  5675   5677   1    1.0920e-01    2.8225e+05 ;   C111 - H11S  
  5675   5678   1    1.5350e-01    2.5363e+05 ;   C111 - C110  
  5678   5679   1    1.0920e-01    2.8225e+05 ;   C110 - H10R  
  5678   5680   1    1.0920e-01    2.8225e+05 ;   C110 - H10S  
  5678   5681   1    1.5350e-01    2.5363e+05 ;   C110 - C19   
  5681   5682   1    1.0920e-01    2.8225e+05 ;    C19 - H9R   
  5681   5683   1    1.0920e-01    2.8225e+05 ;    C19 - H9S   
  5681   5684   1    1.5350e-01    2.5363e+05 ;    C19 - C18   
  5684   5685   1    1.0920e-01    2.8225e+05 ;    C18 - H8R   
  5684   5686   1    1.0920e-01    2.8225e+05 ;    C18 - H8S   
  5684   5687   1    1.5350e-01    2.5363e+05 ;    C18 - C17   
  5687   5688   1    1.0920e-01    2.8225e+05 ;    C17 - H7R   
  5687   5689   1    1.0920e-01    2.8225e+05 ;    C17 - H7S   
  5687   5690   1    1.5350e-01    2.5363e+05 ;    C17 - C16   
  5690   5691   1    1.0920e-01    2.8225e+05 ;    C16 - H6R   
  5690   5692   1    1.0920e-01    2.8225e+05 ;    C16 - H6S   
  5690   5693   1    1.5350e-01    2.5363e+05 ;    C16 - C15   
  5693   5694   1    1.0920e-01    2.8225e+05 ;    C15 - H5R   
  5693   5695   1    1.0920e-01    2.8225e+05 ;    C15 - H5S   
  5693   5696   1    1.5350e-01    2.5363e+05 ;    C15 - C14   
  5696   5697   1    1.0920e-01    2.8225e+05 ;    C14 - H4R   
  5696   5698   1    1.0920e-01    2.8225e+05 ;    C14 - H4S   
  5696   5699   1    1.5350e-01    2.5363e+05 ;    C14 - C13   
  5699   5700   1    1.0920e-01    2.8225e+05 ;    C13 - H3R   
  5699   5701   1    1.0920e-01    2.8225e+05 ;    C13 - H3S   
  5699   5702   1    1.5350e-01    2.5363e+05 ;    C13 - C12   
  5702   5703   1    1.0920e-01    2.8225e+05 ;    C12 - H2R   
  5702   5704   1    1.0920e-01    2.8225e+05 ;    C12 - H2S   
  5702   5705   1    1.5080e-01    2.7472e+05 ;    C12 - C11   
  5705   5706   1    1.2140e-01    5.4225e+05 ;    C11 - O12   
  5705   5707   1    1.3430e-01    3.4418e+05 ;    C11 - O11   
  5707   5708   1    1.4390e-01    2.5230e+05 ;    O11 - C1    
  5708   5709   1    1.0930e-01    2.8108e+05 ;     C1 - HR    
  5708   5710   1    1.0930e-01    2.8108e+05 ;     C1 - HS    
  5708   5711   1    1.5350e-01    2.5363e+05 ;     C1 - C2    
  5711   5712   1    1.0930e-01    2.8108e+05 ;     C2 - HX    
  5711   5713   1    1.5350e-01    2.5363e+05 ;     C2 - C3    
  5711   5740   1    1.4390e-01    2.5230e+05 ;     C2 - O21   
  5713   5714   1    1.0930e-01    2.8108e+05 ;     C3 - HA    
  5713   5715   1    1.0930e-01    2.8108e+05 ;     C3 - HB    
  5713   5716   1    1.4390e-01    2.5230e+05 ;     C3 - O31   
  5716   5717   1    1.6100e-01    1.9246e+05 ;    O31 - P31   
  5717   5718   1    1.6100e-01    1.9246e+05 ;    P31 - O32   
  5717   5738   1    1.4800e-01    4.3932e+05 ;    P31 - O33   
  5717   5739   1    1.4800e-01    4.3932e+05 ;    P31 - O34   
  5718   5719   1    1.4390e-01    2.5230e+05 ;    O32 - C31   
  5719   5720   1    1.0930e-01    2.8108e+05 ;    C31 - H1A   
  5719   5721   1    1.0930e-01    2.8108e+05 ;    C31 - H1B   
  5719   5722   1    1.5350e-01    2.5363e+05 ;    C31 - C32   
  5722   5723   1    1.0910e-01    2.8342e+05 ;    C32 - H2A   
  5722   5724   1    1.0910e-01    2.8342e+05 ;    C32 - H2B   
  5722   5725   1    1.4990e-01    2.4568e+05 ;    C32 - N31   
  5725   5726   1    1.4990e-01    2.4568e+05 ;    N31 - C33   
  5725   5730   1    1.4990e-01    2.4568e+05 ;    N31 - C34   
  5725   5734   1    1.4990e-01    2.4568e+05 ;    N31 - C35   
  5726   5727   1    1.0910e-01    2.8342e+05 ;    C33 - H3A   
  5726   5728   1    1.0910e-01    2.8342e+05 ;    C33 - H3B   
  5726   5729   1    1.0910e-01    2.8342e+05 ;    C33 - H3C   
  5730   5731   1    1.0910e-01    2.8342e+05 ;    C34 - H4A   
  5730   5732   1    1.0910e-01    2.8342e+05 ;    C34 - H4B   
  5730   5733   1    1.0910e-01    2.8342e+05 ;    C34 - H4C   
  5734   5735   1    1.0910e-01    2.8342e+05 ;    C35 - H5A   
  5734   5736   1    1.0910e-01    2.8342e+05 ;    C35 - H5B   
  5734   5737   1    1.0910e-01    2.8342e+05 ;    C35 - H5C   
  5740   5741   1    1.3430e-01    3.4418e+05 ;    O21 - C21   
  5741   5742   1    1.2140e-01    5.4225e+05 ;    C21 - O22   
  5741   5780   1    1.5080e-01    2.7472e+05 ;    C21 - C12   
  5743   5744   1    1.0920e-01    2.8225e+05 ;   H14T - C114  
  5744   5745   1    1.0920e-01    2.8225e+05 ;   C114 - H14R  
  5744   5746   1    1.0920e-01    2.8225e+05 ;   C114 - H14S  
  5744   5747   1    1.5350e-01    2.5363e+05 ;   C114 - C113  
  5747   5748   1    1.0920e-01    2.8225e+05 ;   C113 - H13R  
  5747   5749   1    1.0920e-01    2.8225e+05 ;   C113 - H13S  
  5747   5750   1    1.5350e-01    2.5363e+05 ;   C113 - C112  
  5750   5751   1    1.0920e-01    2.8225e+05 ;   C112 - H12R  
  5750   5752   1    1.0920e-01    2.8225e+05 ;   C112 - H12S  
  5750   5753   1    1.5350e-01    2.5363e+05 ;   C112 - C111  
  5753   5754   1    1.0920e-01    2.8225e+05 ;   C111 - H11R  
  5753   5755   1    1.0920e-01    2.8225e+05 ;   C111 - H11S  
  5753   5756   1    1.5350e-01    2.5363e+05 ;   C111 - C110  
  5756   5757   1    1.0920e-01    2.8225e+05 ;   C110 - H10R  
  5756   5758   1    1.0920e-01    2.8225e+05 ;   C110 - H10S  
  5756   5759   1    1.5350e-01    2.5363e+05 ;   C110 - C19   
  5759   5760   1    1.0920e-01    2.8225e+05 ;    C19 - H9R   
  5759   5761   1    1.0920e-01    2.8225e+05 ;    C19 - H9S   
  5759   5762   1    1.5350e-01    2.5363e+05 ;    C19 - C18   
  5762   5763   1    1.0920e-01    2.8225e+05 ;    C18 - H8R   
  5762   5764   1    1.0920e-01    2.8225e+05 ;    C18 - H8S   
  5762   5765   1    1.5350e-01    2.5363e+05 ;    C18 - C17   
  5765   5766   1    1.0920e-01    2.8225e+05 ;    C17 - H7R   
  5765   5767   1    1.0920e-01    2.8225e+05 ;    C17 - H7S   
  5765   5768   1    1.5350e-01    2.5363e+05 ;    C17 - C16   
  5768   5769   1    1.0920e-01    2.8225e+05 ;    C16 - H6R   
  5768   5770   1    1.0920e-01    2.8225e+05 ;    C16 - H6S   
  5768   5771   1    1.5350e-01    2.5363e+05 ;    C16 - C15   
  5771   5772   1    1.0920e-01    2.8225e+05 ;    C15 - H5R   
  5771   5773   1    1.0920e-01    2.8225e+05 ;    C15 - H5S   
  5771   5774   1    1.5350e-01    2.5363e+05 ;    C15 - C14   
  5774   5775   1    1.0920e-01    2.8225e+05 ;    C14 - H4R   
  5774   5776   1    1.0920e-01    2.8225e+05 ;    C14 - H4S   
  5774   5777   1    1.5350e-01    2.5363e+05 ;    C14 - C13   
  5777   5778   1    1.0920e-01    2.8225e+05 ;    C13 - H3R   
  5777   5779   1    1.0920e-01    2.8225e+05 ;    C13 - H3S   
  5777   5780   1    1.5350e-01    2.5363e+05 ;    C13 - C12   
  5780   5781   1    1.0920e-01    2.8225e+05 ;    C12 - H2R   
  5780   5782   1    1.0920e-01    2.8225e+05 ;    C12 - H2S   
  5783   5784   1    1.0920e-01    2.8225e+05 ;   H14T - C114  
  5784   5785   1    1.0920e-01    2.8225e+05 ;   C114 - H14R  
  5784   5786   1    1.0920e-01    2.8225e+05 ;   C114 - H14S  
  5784   5787   1    1.5350e-01    2.5363e+05 ;   C114 - C113  
  5787   5788   1    1.0920e-01    2.8225e+05 ;   C113 - H13R  
  5787   5789   1    1.0920e-01    2.8225e+05 ;   C113 - H13S  
  5787   5790   1    1.5350e-01    2.5363e+05 ;   C113 - C112  
  5790   5791   1    1.0920e-01    2.8225e+05 ;   C112 - H12R  
  5790   5792   1    1.0920e-01    2.8225e+05 ;   C112 - H12S  
  5790   5793   1    1.5350e-01    2.5363e+05 ;   C112 - C111  
  5793   5794   1    1.0920e-01    2.8225e+05 ;   C111 - H11R  
  5793   5795   1    1.0920e-01    2.8225e+05 ;   C111 - H11S  
  5793   5796   1    1.5350e-01    2.5363e+05 ;   C111 - C110  
  5796   5797   1    1.0920e-01    2.8225e+05 ;   C110 - H10R  
  5796   5798   1    1.0920e-01    2.8225e+05 ;   C110 - H10S  
  5796   5799   1    1.5350e-01    2.5363e+05 ;   C110 - C19   
  5799   5800   1    1.0920e-01    2.8225e+05 ;    C19 - H9R   
  5799   5801   1    1.0920e-01    2.8225e+05 ;    C19 - H9S   
  5799   5802   1    1.5350e-01    2.5363e+05 ;    C19 - C18   
  5802   5803   1    1.0920e-01    2.8225e+05 ;    C18 - H8R   
  5802   5804   1    1.0920e-01    2.8225e+05 ;    C18 - H8S   
  5802   5805   1    1.5350e-01    2.5363e+05 ;    C18 - C17   
  5805   5806   1    1.0920e-01    2.8225e+05 ;    C17 - H7R   
  5805   5807   1    1.0920e-01    2.8225e+05 ;    C17 - H7S   
  5805   5808   1    1.5350e-01    2.5363e+05 ;    C17 - C16   
  5808   5809   1    1.0920e-01    2.8225e+05 ;    C16 - H6R   
  5808   5810   1    1.0920e-01    2.8225e+05 ;    C16 - H6S   
  5808   5811   1    1.5350e-01    2.5363e+05 ;    C16 - C15   
  5811   5812   1    1.0920e-01    2.8225e+05 ;    C15 - H5R   
  5811   5813   1    1.0920e-01    2.8225e+05 ;    C15 - H5S   
  5811   5814   1    1.5350e-01    2.5363e+05 ;    C15 - C14   
  5814   5815   1    1.0920e-01    2.8225e+05 ;    C14 - H4R   
  5814   5816   1    1.0920e-01    2.8225e+05 ;    C14 - H4S   
  5814   5817   1    1.5350e-01    2.5363e+05 ;    C14 - C13   
  5817   5818   1    1.0920e-01    2.8225e+05 ;    C13 - H3R   
  5817   5819   1    1.0920e-01    2.8225e+05 ;    C13 - H3S   
  5817   5820   1    1.5350e-01    2.5363e+05 ;    C13 - C12   
  5820   5821   1    1.0920e-01    2.8225e+05 ;    C12 - H2R   
  5820   5822   1    1.0920e-01    2.8225e+05 ;    C12 - H2S   
  5820   5823   1    1.5080e-01    2.7472e+05 ;    C12 - C11   
  5823   5824   1    1.2140e-01    5.4225e+05 ;    C11 - O12   
  5823   5825   1    1.3430e-01    3.4418e+05 ;    C11 - O11   
  5825   5826   1    1.4390e-01    2.5230e+05 ;    O11 - C1    
  5826   5827   1    1.0930e-01    2.8108e+05 ;     C1 - HR    
  5826   5828   1    1.0930e-01    2.8108e+05 ;     C1 - HS    
  5826   5829   1    1.5350e-01    2.5363e+05 ;     C1 - C2    
  5829   5830   1    1.0930e-01    2.8108e+05 ;     C2 - HX    
  5829   5831   1    1.5350e-01    2.5363e+05 ;     C2 - C3    
  5829   5858   1    1.4390e-01    2.5230e+05 ;     C2 - O21   
  5831   5832   1    1.0930e-01    2.8108e+05 ;     C3 - HA    
  5831   5833   1    1.0930e-01    2.8108e+05 ;     C3 - HB    
  5831   5834   1    1.4390e-01    2.5230e+05 ;     C3 - O31   
  5834   5835   1    1.6100e-01    1.9246e+05 ;    O31 - P31   
  5835   5836   1    1.6100e-01    1.9246e+05 ;    P31 - O32   
  5835   5856   1    1.4800e-01    4.3932e+05 ;    P31 - O33   
  5835   5857   1    1.4800e-01    4.3932e+05 ;    P31 - O34   
  5836   5837   1    1.4390e-01    2.5230e+05 ;    O32 - C31   
  5837   5838   1    1.0930e-01    2.8108e+05 ;    C31 - H1A   
  5837   5839   1    1.0930e-01    2.8108e+05 ;    C31 - H1B   
  5837   5840   1    1.5350e-01    2.5363e+05 ;    C31 - C32   
  5840   5841   1    1.0910e-01    2.8342e+05 ;    C32 - H2A   
  5840   5842   1    1.0910e-01    2.8342e+05 ;    C32 - H2B   
  5840   5843   1    1.4990e-01    2.4568e+05 ;    C32 - N31   
  5843   5844   1    1.4990e-01    2.4568e+05 ;    N31 - C33   
  5843   5848   1    1.4990e-01    2.4568e+05 ;    N31 - C34   
  5843   5852   1    1.4990e-01    2.4568e+05 ;    N31 - C35   
  5844   5845   1    1.0910e-01    2.8342e+05 ;    C33 - H3A   
  5844   5846   1    1.0910e-01    2.8342e+05 ;    C33 - H3B   
  5844   5847   1    1.0910e-01    2.8342e+05 ;    C33 - H3C   
  5848   5849   1    1.0910e-01    2.8342e+05 ;    C34 - H4A   
  5848   5850   1    1.0910e-01    2.8342e+05 ;    C34 - H4B   
  5848   5851   1    1.0910e-01    2.8342e+05 ;    C34 - H4C   
  5852   5853   1    1.0910e-01    2.8342e+05 ;    C35 - H5A   
  5852   5854   1    1.0910e-01    2.8342e+05 ;    C35 - H5B   
  5852   5855   1    1.0910e-01    2.8342e+05 ;    C35 - H5C   
  5858   5859   1    1.3430e-01    3.4418e+05 ;    O21 - C21   
  5859   5860   1    1.2140e-01    5.4225e+05 ;    C21 - O22   
  5859   5898   1    1.5080e-01    2.7472e+05 ;    C21 - C12   
  5861   5862   1    1.0920e-01    2.8225e+05 ;   H14T - C114  
  5862   5863   1    1.0920e-01    2.8225e+05 ;   C114 - H14R  
  5862   5864   1    1.0920e-01    2.8225e+05 ;   C114 - H14S  
  5862   5865   1    1.5350e-01    2.5363e+05 ;   C114 - C113  
  5865   5866   1    1.0920e-01    2.8225e+05 ;   C113 - H13R  
  5865   5867   1    1.0920e-01    2.8225e+05 ;   C113 - H13S  
  5865   5868   1    1.5350e-01    2.5363e+05 ;   C113 - C112  
  5868   5869   1    1.0920e-01    2.8225e+05 ;   C112 - H12R  
  5868   5870   1    1.0920e-01    2.8225e+05 ;   C112 - H12S  
  5868   5871   1    1.5350e-01    2.5363e+05 ;   C112 - C111  
  5871   5872   1    1.0920e-01    2.8225e+05 ;   C111 - H11R  
  5871   5873   1    1.0920e-01    2.8225e+05 ;   C111 - H11S  
  5871   5874   1    1.5350e-01    2.5363e+05 ;   C111 - C110  
  5874   5875   1    1.0920e-01    2.8225e+05 ;   C110 - H10R  
  5874   5876   1    1.0920e-01    2.8225e+05 ;   C110 - H10S  
  5874   5877   1    1.5350e-01    2.5363e+05 ;   C110 - C19   
  5877   5878   1    1.0920e-01    2.8225e+05 ;    C19 - H9R   
  5877   5879   1    1.0920e-01    2.8225e+05 ;    C19 - H9S   
  5877   5880   1    1.5350e-01    2.5363e+05 ;    C19 - C18   
  5880   5881   1    1.0920e-01    2.8225e+05 ;    C18 - H8R   
  5880   5882   1    1.0920e-01    2.8225e+05 ;    C18 - H8S   
  5880   5883   1    1.5350e-01    2.5363e+05 ;    C18 - C17   
  5883   5884   1    1.0920e-01    2.8225e+05 ;    C17 - H7R   
  5883   5885   1    1.0920e-01    2.8225e+05 ;    C17 - H7S   
  5883   5886   1    1.5350e-01    2.5363e+05 ;    C17 - C16   
  5886   5887   1    1.0920e-01    2.8225e+05 ;    C16 - H6R   
  5886   5888   1    1.0920e-01    2.8225e+05 ;    C16 - H6S   
  5886   5889   1    1.5350e-01    2.5363e+05 ;    C16 - C15   
  5889   5890   1    1.0920e-01    2.8225e+05 ;    C15 - H5R   
  5889   5891   1    1.0920e-01    2.8225e+05 ;    C15 - H5S   
  5889   5892   1    1.5350e-01    2.5363e+05 ;    C15 - C14   
  5892   5893   1    1.0920e-01    2.8225e+05 ;    C14 - H4R   
  5892   5894   1    1.0920e-01    2.8225e+05 ;    C14 - H4S   
  5892   5895   1    1.5350e-01    2.5363e+05 ;    C14 - C13   
  5895   5896   1    1.0920e-01    2.8225e+05 ;    C13 - H3R   
  5895   5897   1    1.0920e-01    2.8225e+05 ;    C13 - H3S   
  5895   5898   1    1.5350e-01    2.5363e+05 ;    C13 - C12   
  5898   5899   1    1.0920e-01    2.8225e+05 ;    C12 - H2R   
  5898   5900   1    1.0920e-01    2.8225e+05 ;    C12 - H2S   
  5901   5902   1    1.0920e-01    2.8225e+05 ;   H14T - C114  
  5902   5903   1    1.0920e-01    2.8225e+05 ;   C114 - H14R  
  5902   5904   1    1.0920e-01    2.8225e+05 ;   C114 - H14S  
  5902   5905   1    1.5350e-01    2.5363e+05 ;   C114 - C113  
  5905   5906   1    1.0920e-01    2.8225e+05 ;   C113 - H13R  
  5905   5907   1    1.0920e-01    2.8225e+05 ;   C113 - H13S  
  5905   5908   1    1.5350e-01    2.5363e+05 ;   C113 - C112  
  5908   5909   1    1.0920e-01    2.8225e+05 ;   C112 - H12R  
  5908   5910   1    1.0920e-01    2.8225e+05 ;   C112 - H12S  
  5908   5911   1    1.5350e-01    2.5363e+05 ;   C112 - C111  
  5911   5912   1    1.0920e-01    2.8225e+05 ;   C111 - H11R  
  5911   5913   1    1.0920e-01    2.8225e+05 ;   C111 - H11S  
  5911   5914   1    1.5350e-01    2.5363e+05 ;   C111 - C110  
  5914   5915   1    1.0920e-01    2.8225e+05 ;   C110 - H10R  
  5914   5916   1    1.0920e-01    2.8225e+05 ;   C110 - H10S  
  5914   5917   1    1.5350e-01    2.5363e+05 ;   C110 - C19   
  5917   5918   1    1.0920e-01    2.8225e+05 ;    C19 - H9R   
  5917   5919   1    1.0920e-01    2.8225e+05 ;    C19 - H9S   
  5917   5920   1    1.5350e-01    2.5363e+05 ;    C19 - C18   
  5920   5921   1    1.0920e-01    2.8225e+05 ;    C18 - H8R   
  5920   5922   1    1.0920e-01    2.8225e+05 ;    C18 - H8S   
  5920   5923   1    1.5350e-01    2.5363e+05 ;    C18 - C17   
  5923   5924   1    1.0920e-01    2.8225e+05 ;    C17 - H7R   
  5923   5925   1    1.0920e-01    2.8225e+05 ;    C17 - H7S   
  5923   5926   1    1.5350e-01    2.5363e+05 ;    C17 - C16   
  5926   5927   1    1.0920e-01    2.8225e+05 ;    C16 - H6R   
  5926   5928   1    1.0920e-01    2.8225e+05 ;    C16 - H6S   
  5926   5929   1    1.5350e-01    2.5363e+05 ;    C16 - C15   
  5929   5930   1    1.0920e-01    2.8225e+05 ;    C15 - H5R   
  5929   5931   1    1.0920e-01    2.8225e+05 ;    C15 - H5S   
  5929   5932   1    1.5350e-01    2.5363e+05 ;    C15 - C14   
  5932   5933   1    1.0920e-01    2.8225e+05 ;    C14 - H4R   
  5932   5934   1    1.0920e-01    2.8225e+05 ;    C14 - H4S   
  5932   5935   1    1.5350e-01    2.5363e+05 ;    C14 - C13   
  5935   5936   1    1.0920e-01    2.8225e+05 ;    C13 - H3R   
  5935   5937   1    1.0920e-01    2.8225e+05 ;    C13 - H3S   
  5935   5938   1    1.5350e-01    2.5363e+05 ;    C13 - C12   
  5938   5939   1    1.0920e-01    2.8225e+05 ;    C12 - H2R   
  5938   5940   1    1.0920e-01    2.8225e+05 ;    C12 - H2S   
  5938   5941   1    1.5080e-01    2.7472e+05 ;    C12 - C11   
  5941   5942   1    1.2140e-01    5.4225e+05 ;    C11 - O12   
  5941   5943   1    1.3430e-01    3.4418e+05 ;    C11 - O11   
  5943   5944   1    1.4390e-01    2.5230e+05 ;    O11 - C1    
  5944   5945   1    1.0930e-01    2.8108e+05 ;     C1 - HR    
  5944   5946   1    1.0930e-01    2.8108e+05 ;     C1 - HS    
  5944   5947   1    1.5350e-01    2.5363e+05 ;     C1 - C2    
  5947   5948   1    1.0930e-01    2.8108e+05 ;     C2 - HX    
  5947   5949   1    1.5350e-01    2.5363e+05 ;     C2 - C3    
  5947   5976   1    1.4390e-01    2.5230e+05 ;     C2 - O21   
  5949   5950   1    1.0930e-01    2.8108e+05 ;     C3 - HA    
  5949   5951   1    1.0930e-01    2.8108e+05 ;     C3 - HB    
  5949   5952   1    1.4390e-01    2.5230e+05 ;     C3 - O31   
  5952   5953   1    1.6100e-01    1.9246e+05 ;    O31 - P31   
  5953   5954   1    1.6100e-01    1.9246e+05 ;    P31 - O32   
  5953   5974   1    1.4800e-01    4.3932e+05 ;    P31 - O33   
  5953   5975   1    1.4800e-01    4.3932e+05 ;    P31 - O34   
  5954   5955   1    1.4390e-01    2.5230e+05 ;    O32 - C31   
  5955   5956   1    1.0930e-01    2.8108e+05 ;    C31 - H1A   
  5955   5957   1    1.0930e-01    2.8108e+05 ;    C31 - H1B   
  5955   5958   1    1.5350e-01    2.5363e+05 ;    C31 - C32   
  5958   5959   1    1.0910e-01    2.8342e+05 ;    C32 - H2A   
  5958   5960   1    1.0910e-01    2.8342e+05 ;    C32 - H2B   
  5958   5961   1    1.4990e-01    2.4568e+05 ;    C32 - N31   
  5961   5962   1    1.4990e-01    2.4568e+05 ;    N31 - C33   
  5961   5966   1    1.4990e-01    2.4568e+05 ;    N31 - C34   
  5961   5970   1    1.4990e-01    2.4568e+05 ;    N31 - C35   
  5962   5963   1    1.0910e-01    2.8342e+05 ;    C33 - H3A   
  5962   5964   1    1.0910e-01    2.8342e+05 ;    C33 - H3B   
  5962   5965   1    1.0910e-01    2.8342e+05 ;    C33 - H3C   
  5966   5967   1    1.0910e-01    2.8342e+05 ;    C34 - H4A   
  5966   5968   1    1.0910e-01    2.8342e+05 ;    C34 - H4B   
  5966   5969   1    1.0910e-01    2.8342e+05 ;    C34 - H4C   
  5970   5971   1    1.0910e-01    2.8342e+05 ;    C35 - H5A   
  5970   5972   1    1.0910e-01    2.8342e+05 ;    C35 - H5B   
  5970   5973   1    1.0910e-01    2.8342e+05 ;    C35 - H5C   
  5976   5977   1    1.3430e-01    3.4418e+05 ;    O21 - C21   
  5977   5978   1    1.2140e-01    5.4225e+05 ;    C21 - O22   
  5977   6016   1    1.5080e-01    2.7472e+05 ;    C21 - C12   
  5979   5980   1    1.0920e-01    2.8225e+05 ;   H14T - C114  
  5980   5981   1    1.0920e-01    2.8225e+05 ;   C114 - H14R  
  5980   5982   1    1.0920e-01    2.8225e+05 ;   C114 - H14S  
  5980   5983   1    1.5350e-01    2.5363e+05 ;   C114 - C113  
  5983   5984   1    1.0920e-01    2.8225e+05 ;   C113 - H13R  
  5983   5985   1    1.0920e-01    2.8225e+05 ;   C113 - H13S  
  5983   5986   1    1.5350e-01    2.5363e+05 ;   C113 - C112  
  5986   5987   1    1.0920e-01    2.8225e+05 ;   C112 - H12R  
  5986   5988   1    1.0920e-01    2.8225e+05 ;   C112 - H12S  
  5986   5989   1    1.5350e-01    2.5363e+05 ;   C112 - C111  
  5989   5990   1    1.0920e-01    2.8225e+05 ;   C111 - H11R  
  5989   5991   1    1.0920e-01    2.8225e+05 ;   C111 - H11S  
  5989   5992   1    1.5350e-01    2.5363e+05 ;   C111 - C110  
  5992   5993   1    1.0920e-01    2.8225e+05 ;   C110 - H10R  
  5992   5994   1    1.0920e-01    2.8225e+05 ;   C110 - H10S  
  5992   5995   1    1.5350e-01    2.5363e+05 ;   C110 - C19   
  5995   5996   1    1.0920e-01    2.8225e+05 ;    C19 - H9R   
  5995   5997   1    1.0920e-01    2.8225e+05 ;    C19 - H9S   
  5995   5998   1    1.5350e-01    2.5363e+05 ;    C19 - C18   
  5998   5999   1    1.0920e-01    2.8225e+05 ;    C18 - H8R   
  5998   6000   1    1.0920e-01    2.8225e+05 ;    C18 - H8S   
  5998   6001   1    1.5350e-01    2.5363e+05 ;    C18 - C17   
  6001   6002   1    1.0920e-01    2.8225e+05 ;    C17 - H7R   
  6001   6003   1    1.0920e-01    2.8225e+05 ;    C17 - H7S   
  6001   6004   1    1.5350e-01    2.5363e+05 ;    C17 - C16   
  6004   6005   1    1.0920e-01    2.8225e+05 ;    C16 - H6R   
  6004   6006   1    1.0920e-01    2.8225e+05 ;    C16 - H6S   
  6004   6007   1    1.5350e-01    2.5363e+05 ;    C16 - C15   
  6007   6008   1    1.0920e-01    2.8225e+05 ;    C15 - H5R   
  6007   6009   1    1.0920e-01    2.8225e+05 ;    C15 - H5S   
  6007   6010   1    1.5350e-01    2.5363e+05 ;    C15 - C14   
  6010   6011   1    1.0920e-01    2.8225e+05 ;    C14 - H4R   
  6010   6012   1    1.0920e-01    2.8225e+05 ;    C14 - H4S   
  6010   6013   1    1.5350e-01    2.5363e+05 ;    C14 - C13   
  6013   6014   1    1.0920e-01    2.8225e+05 ;    C13 - H3R   
  6013   6015   1    1.0920e-01    2.8225e+05 ;    C13 - H3S   
  6013   6016   1    1.5350e-01    2.5363e+05 ;    C13 - C12   
  6016   6017   1    1.0920e-01    2.8225e+05 ;    C12 - H2R   
  6016   6018   1    1.0920e-01    2.8225e+05 ;    C12 - H2S   
  6019   6020   1    1.0920e-01    2.8225e+05 ;   H14T - C114  
  6020   6021   1    1.0920e-01    2.8225e+05 ;   C114 - H14R  
  6020   6022   1    1.0920e-01    2.8225e+05 ;   C114 - H14S  
  6020   6023   1    1.5350e-01    2.5363e+05 ;   C114 - C113  
  6023   6024   1    1.0920e-01    2.8225e+05 ;   C113 - H13R  
  6023   6025   1    1.0920e-01    2.8225e+05 ;   C113 - H13S  
  6023   6026   1    1.5350e-01    2.5363e+05 ;   C113 - C112  
  6026   6027   1    1.0920e-01    2.8225e+05 ;   C112 - H12R  
  6026   6028   1    1.0920e-01    2.8225e+05 ;   C112 - H12S  
  6026   6029   1    1.5350e-01    2.5363e+05 ;   C112 - C111  
  6029   6030   1    1.0920e-01    2.8225e+05 ;   C111 - H11R  
  6029   6031   1    1.0920e-01    2.8225e+05 ;   C111 - H11S  
  6029   6032   1    1.5350e-01    2.5363e+05 ;   C111 - C110  
  6032   6033   1    1.0920e-01    2.8225e+05 ;   C110 - H10R  
  6032   6034   1    1.0920e-01    2.8225e+05 ;   C110 - H10S  
  6032   6035   1    1.5350e-01    2.5363e+05 ;   C110 - C19   
  6035   6036   1    1.0920e-01    2.8225e+05 ;    C19 - H9R   
  6035   6037   1    1.0920e-01    2.8225e+05 ;    C19 - H9S   
  6035   6038   1    1.5350e-01    2.5363e+05 ;    C19 - C18   
  6038   6039   1    1.0920e-01    2.8225e+05 ;    C18 - H8R   
  6038   6040   1    1.0920e-01    2.8225e+05 ;    C18 - H8S   
  6038   6041   1    1.5350e-01    2.5363e+05 ;    C18 - C17   
  6041   6042   1    1.0920e-01    2.8225e+05 ;    C17 - H7R   
  6041   6043   1    1.0920e-01    2.8225e+05 ;    C17 - H7S   
  6041   6044   1    1.5350e-01    2.5363e+05 ;    C17 - C16   
  6044   6045   1    1.0920e-01    2.8225e+05 ;    C16 - H6R   
  6044   6046   1    1.0920e-01    2.8225e+05 ;    C16 - H6S   
  6044   6047   1    1.5350e-01    2.5363e+05 ;    C16 - C15   
  6047   6048   1    1.0920e-01    2.8225e+05 ;    C15 - H5R   
  6047   6049   1    1.0920e-01    2.8225e+05 ;    C15 - H5S   
  6047   6050   1    1.5350e-01    2.5363e+05 ;    C15 - C14   
  6050   6051   1    1.0920e-01    2.8225e+05 ;    C14 - H4R   
  6050   6052   1    1.0920e-01    2.8225e+05 ;    C14 - H4S   
  6050   6053   1    1.5350e-01    2.5363e+05 ;    C14 - C13   
  6053   6054   1    1.0920e-01    2.8225e+05 ;    C13 - H3R   
  6053   6055   1    1.0920e-01    2.8225e+05 ;    C13 - H3S   
  6053   6056   1    1.5350e-01    2.5363e+05 ;    C13 - C12   
  6056   6057   1    1.0920e-01    2.8225e+05 ;    C12 - H2R   
  6056   6058   1    1.0920e-01    2.8225e+05 ;    C12 - H2S   
  6056   6059   1    1.5080e-01    2.7472e+05 ;    C12 - C11   
  6059   6060   1    1.2140e-01    5.4225e+05 ;    C11 - O12   
  6059   6061   1    1.3430e-01    3.4418e+05 ;    C11 - O11   
  6061   6062   1    1.4390e-01    2.5230e+05 ;    O11 - C1    
  6062   6063   1    1.0930e-01    2.8108e+05 ;     C1 - HR    
  6062   6064   1    1.0930e-01    2.8108e+05 ;     C1 - HS    
  6062   6065   1    1.5350e-01    2.5363e+05 ;     C1 - C2    
  6065   6066   1    1.0930e-01    2.8108e+05 ;     C2 - HX    
  6065   6067   1    1.5350e-01    2.5363e+05 ;     C2 - C3    
  6065   6094   1    1.4390e-01    2.5230e+05 ;     C2 - O21   
  6067   6068   1    1.0930e-01    2.8108e+05 ;     C3 - HA    
  6067   6069   1    1.0930e-01    2.8108e+05 ;     C3 - HB    
  6067   6070   1    1.4390e-01    2.5230e+05 ;     C3 - O31   
  6070   6071   1    1.6100e-01    1.9246e+05 ;    O31 - P31   
  6071   6072   1    1.6100e-01    1.9246e+05 ;    P31 - O32   
  6071   6092   1    1.4800e-01    4.3932e+05 ;    P31 - O33   
  6071   6093   1    1.4800e-01    4.3932e+05 ;    P31 - O34   
  6072   6073   1    1.4390e-01    2.5230e+05 ;    O32 - C31   
  6073   6074   1    1.0930e-01    2.8108e+05 ;    C31 - H1A   
  6073   6075   1    1.0930e-01    2.8108e+05 ;    C31 - H1B   
  6073   6076   1    1.5350e-01    2.5363e+05 ;    C31 - C32   
  6076   6077   1    1.0910e-01    2.8342e+05 ;    C32 - H2A   
  6076   6078   1    1.0910e-01    2.8342e+05 ;    C32 - H2B   
  6076   6079   1    1.4990e-01    2.4568e+05 ;    C32 - N31   
  6079   6080   1    1.4990e-01    2.4568e+05 ;    N31 - C33   
  6079   6084   1    1.4990e-01    2.4568e+05 ;    N31 - C34   
  6079   6088   1    1.4990e-01    2.4568e+05 ;    N31 - C35   
  6080   6081   1    1.0910e-01    2.8342e+05 ;    C33 - H3A   
  6080   6082   1    1.0910e-01    2.8342e+05 ;    C33 - H3B   
  6080   6083   1    1.0910e-01    2.8342e+05 ;    C33 - H3C   
  6084   6085   1    1.0910e-01    2.8342e+05 ;    C34 - H4A   
  6084   6086   1    1.0910e-01    2.8342e+05 ;    C34 - H4B   
  6084   6087   1    1.0910e-01    2.8342e+05 ;    C34 - H4C   
  6088   6089   1    1.0910e-01    2.8342e+05 ;    C35 - H5A   
  6088   6090   1    1.0910e-01    2.8342e+05 ;    C35 - H5B   
  6088   6091   1    1.0910e-01    2.8342e+05 ;    C35 - H5C   
  6094   6095   1    1.3430e-01    3.4418e+05 ;    O21 - C21   
  6095   6096   1    1.2140e-01    5.4225e+05 ;    C21 - O22   
  6095   6134   1    1.5080e-01    2.7472e+05 ;    C21 - C12   
  6097   6098   1    1.0920e-01    2.8225e+05 ;   H14T - C114  
  6098   6099   1    1.0920e-01    2.8225e+05 ;   C114 - H14R  
  6098   6100   1    1.0920e-01    2.8225e+05 ;   C114 - H14S  
  6098   6101   1    1.5350e-01    2.5363e+05 ;   C114 - C113  
  6101   6102   1    1.0920e-01    2.8225e+05 ;   C113 - H13R  
  6101   6103   1    1.0920e-01    2.8225e+05 ;   C113 - H13S  
  6101   6104   1    1.5350e-01    2.5363e+05 ;   C113 - C112  
  6104   6105   1    1.0920e-01    2.8225e+05 ;   C112 - H12R  
  6104   6106   1    1.0920e-01    2.8225e+05 ;   C112 - H12S  
  6104   6107   1    1.5350e-01    2.5363e+05 ;   C112 - C111  
  6107   6108   1    1.0920e-01    2.8225e+05 ;   C111 - H11R  
  6107   6109   1    1.0920e-01    2.8225e+05 ;   C111 - H11S  
  6107   6110   1    1.5350e-01    2.5363e+05 ;   C111 - C110  
  6110   6111   1    1.0920e-01    2.8225e+05 ;   C110 - H10R  
  6110   6112   1    1.0920e-01    2.8225e+05 ;   C110 - H10S  
  6110   6113   1    1.5350e-01    2.5363e+05 ;   C110 - C19   
  6113   6114   1    1.0920e-01    2.8225e+05 ;    C19 - H9R   
  6113   6115   1    1.0920e-01    2.8225e+05 ;    C19 - H9S   
  6113   6116   1    1.5350e-01    2.5363e+05 ;    C19 - C18   
  6116   6117   1    1.0920e-01    2.8225e+05 ;    C18 - H8R   
  6116   6118   1    1.0920e-01    2.8225e+05 ;    C18 - H8S   
  6116   6119   1    1.5350e-01    2.5363e+05 ;    C18 - C17   
  6119   6120   1    1.0920e-01    2.8225e+05 ;    C17 - H7R   
  6119   6121   1    1.0920e-01    2.8225e+05 ;    C17 - H7S   
  6119   6122   1    1.5350e-01    2.5363e+05 ;    C17 - C16   
  6122   6123   1    1.0920e-01    2.8225e+05 ;    C16 - H6R   
  6122   6124   1    1.0920e-01    2.8225e+05 ;    C16 - H6S   
  6122   6125   1    1.5350e-01    2.5363e+05 ;    C16 - C15   
  6125   6126   1    1.0920e-01    2.8225e+05 ;    C15 - H5R   
  6125   6127   1    1.0920e-01    2.8225e+05 ;    C15 - H5S   
  6125   6128   1    1.5350e-01    2.5363e+05 ;    C15 - C14   
  6128   6129   1    1.0920e-01    2.8225e+05 ;    C14 - H4R   
  6128   6130   1    1.0920e-01    2.8225e+05 ;    C14 - H4S   
  6128   6131   1    1.5350e-01    2.5363e+05 ;    C14 - C13   
  6131   6132   1    1.0920e-01    2.8225e+05 ;    C13 - H3R   
  6131   6133   1    1.0920e-01    2.8225e+05 ;    C13 - H3S   
  6131   6134   1    1.5350e-01    2.5363e+05 ;    C13 - C12   
  6134   6135   1    1.0920e-01    2.8225e+05 ;    C12 - H2R   
  6134   6136   1    1.0920e-01    2.8225e+05 ;    C12 - H2S   
  6137   6138   1    1.0920e-01    2.8225e+05 ;   H14T - C114  
  6138   6139   1    1.0920e-01    2.8225e+05 ;   C114 - H14R  
  6138   6140   1    1.0920e-01    2.8225e+05 ;   C114 - H14S  
  6138   6141   1    1.5350e-01    2.5363e+05 ;   C114 - C113  
  6141   6142   1    1.0920e-01    2.8225e+05 ;   C113 - H13R  
  6141   6143   1    1.0920e-01    2.8225e+05 ;   C113 - H13S  
  6141   6144   1    1.5350e-01    2.5363e+05 ;   C113 - C112  
  6144   6145   1    1.0920e-01    2.8225e+05 ;   C112 - H12R  
  6144   6146   1    1.0920e-01    2.8225e+05 ;   C112 - H12S  
  6144   6147   1    1.5350e-01    2.5363e+05 ;   C112 - C111  
  6147   6148   1    1.0920e-01    2.8225e+05 ;   C111 - H11R  
  6147   6149   1    1.0920e-01    2.8225e+05 ;   C111 - H11S  
  6147   6150   1    1.5350e-01    2.5363e+05 ;   C111 - C110  
  6150   6151   1    1.0920e-01    2.8225e+05 ;   C110 - H10R  
  6150   6152   1    1.0920e-01    2.8225e+05 ;   C110 - H10S  
  6150   6153   1    1.5350e-01    2.5363e+05 ;   C110 - C19   
  6153   6154   1    1.0920e-01    2.8225e+05 ;    C19 - H9R   
  6153   6155   1    1.0920e-01    2.8225e+05 ;    C19 - H9S   
  6153   6156   1    1.5350e-01    2.5363e+05 ;    C19 - C18   
  6156   6157   1    1.0920e-01    2.8225e+05 ;    C18 - H8R   
  6156   6158   1    1.0920e-01    2.8225e+05 ;    C18 - H8S   
  6156   6159   1    1.5350e-01    2.5363e+05 ;    C18 - C17   
  6159   6160   1    1.0920e-01    2.8225e+05 ;    C17 - H7R   
  6159   6161   1    1.0920e-01    2.8225e+05 ;    C17 - H7S   
  6159   6162   1    1.5350e-01    2.5363e+05 ;    C17 - C16   
  6162   6163   1    1.0920e-01    2.8225e+05 ;    C16 - H6R   
  6162   6164   1    1.0920e-01    2.8225e+05 ;    C16 - H6S   
  6162   6165   1    1.5350e-01    2.5363e+05 ;    C16 - C15   
  6165   6166   1    1.0920e-01    2.8225e+05 ;    C15 - H5R   
  6165   6167   1    1.0920e-01    2.8225e+05 ;    C15 - H5S   
  6165   6168   1    1.5350e-01    2.5363e+05 ;    C15 - C14   
  6168   6169   1    1.0920e-01    2.8225e+05 ;    C14 - H4R   
  6168   6170   1    1.0920e-01    2.8225e+05 ;    C14 - H4S   
  6168   6171   1    1.5350e-01    2.5363e+05 ;    C14 - C13   
  6171   6172   1    1.0920e-01    2.8225e+05 ;    C13 - H3R   
  6171   6173   1    1.0920e-01    2.8225e+05 ;    C13 - H3S   
  6171   6174   1    1.5350e-01    2.5363e+05 ;    C13 - C12   
  6174   6175   1    1.0920e-01    2.8225e+05 ;    C12 - H2R   
  6174   6176   1    1.0920e-01    2.8225e+05 ;    C12 - H2S   
  6174   6177   1    1.5080e-01    2.7472e+05 ;    C12 - C11   
  6177   6178   1    1.2140e-01    5.4225e+05 ;    C11 - O12   
  6177   6179   1    1.3430e-01    3.4418e+05 ;    C11 - O11   
  6179   6180   1    1.4390e-01    2.5230e+05 ;    O11 - C1    
  6180   6181   1    1.0930e-01    2.8108e+05 ;     C1 - HR    
  6180   6182   1    1.0930e-01    2.8108e+05 ;     C1 - HS    
  6180   6183   1    1.5350e-01    2.5363e+05 ;     C1 - C2    
  6183   6184   1    1.0930e-01    2.8108e+05 ;     C2 - HX    
  6183   6185   1    1.5350e-01    2.5363e+05 ;     C2 - C3    
  6183   6212   1    1.4390e-01    2.5230e+05 ;     C2 - O21   
  6185   6186   1    1.0930e-01    2.8108e+05 ;     C3 - HA    
  6185   6187   1    1.0930e-01    2.8108e+05 ;     C3 - HB    
  6185   6188   1    1.4390e-01    2.5230e+05 ;     C3 - O31   
  6188   6189   1    1.6100e-01    1.9246e+05 ;    O31 - P31   
  6189   6190   1    1.6100e-01    1.9246e+05 ;    P31 - O32   
  6189   6210   1    1.4800e-01    4.3932e+05 ;    P31 - O33   
  6189   6211   1    1.4800e-01    4.3932e+05 ;    P31 - O34   
  6190   6191   1    1.4390e-01    2.5230e+05 ;    O32 - C31   
  6191   6192   1    1.0930e-01    2.8108e+05 ;    C31 - H1A   
  6191   6193   1    1.0930e-01    2.8108e+05 ;    C31 - H1B   
  6191   6194   1    1.5350e-01    2.5363e+05 ;    C31 - C32   
  6194   6195   1    1.0910e-01    2.8342e+05 ;    C32 - H2A   
  6194   6196   1    1.0910e-01    2.8342e+05 ;    C32 - H2B   
  6194   6197   1    1.4990e-01    2.4568e+05 ;    C32 - N31   
  6197   6198   1    1.4990e-01    2.4568e+05 ;    N31 - C33   
  6197   6202   1    1.4990e-01    2.4568e+05 ;    N31 - C34   
  6197   6206   1    1.4990e-01    2.4568e+05 ;    N31 - C35   
  6198   6199   1    1.0910e-01    2.8342e+05 ;    C33 - H3A   
  6198   6200   1    1.0910e-01    2.8342e+05 ;    C33 - H3B   
  6198   6201   1    1.0910e-01    2.8342e+05 ;    C33 - H3C   
  6202   6203   1    1.0910e-01    2.8342e+05 ;    C34 - H4A   
  6202   6204   1    1.0910e-01    2.8342e+05 ;    C34 - H4B   
  6202   6205   1    1.0910e-01    2.8342e+05 ;    C34 - H4C   
  6206   6207   1    1.0910e-01    2.8342e+05 ;    C35 - H5A   
  6206   6208   1    1.0910e-01    2.8342e+05 ;    C35 - H5B   
  6206   6209   1    1.0910e-01    2.8342e+05 ;    C35 - H5C   
  6212   6213   1    1.3430e-01    3.4418e+05 ;    O21 - C21   
  6213   6214   1    1.2140e-01    5.4225e+05 ;    C21 - O22   
  6213   6252   1    1.5080e-01    2.7472e+05 ;    C21 - C12   
  6215   6216   1    1.0920e-01    2.8225e+05 ;   H14T - C114  
  6216   6217   1    1.0920e-01    2.8225e+05 ;   C114 - H14R  
  6216   6218   1    1.0920e-01    2.8225e+05 ;   C114 - H14S  
  6216   6219   1    1.5350e-01    2.5363e+05 ;   C114 - C113  
  6219   6220   1    1.0920e-01    2.8225e+05 ;   C113 - H13R  
  6219   6221   1    1.0920e-01    2.8225e+05 ;   C113 - H13S  
  6219   6222   1    1.5350e-01    2.5363e+05 ;   C113 - C112  
  6222   6223   1    1.0920e-01    2.8225e+05 ;   C112 - H12R  
  6222   6224   1    1.0920e-01    2.8225e+05 ;   C112 - H12S  
  6222   6225   1    1.5350e-01    2.5363e+05 ;   C112 - C111  
  6225   6226   1    1.0920e-01    2.8225e+05 ;   C111 - H11R  
  6225   6227   1    1.0920e-01    2.8225e+05 ;   C111 - H11S  
  6225   6228   1    1.5350e-01    2.5363e+05 ;   C111 - C110  
  6228   6229   1    1.0920e-01    2.8225e+05 ;   C110 - H10R  
  6228   6230   1    1.0920e-01    2.8225e+05 ;   C110 - H10S  
  6228   6231   1    1.5350e-01    2.5363e+05 ;   C110 - C19   
  6231   6232   1    1.0920e-01    2.8225e+05 ;    C19 - H9R   
  6231   6233   1    1.0920e-01    2.8225e+05 ;    C19 - H9S   
  6231   6234   1    1.5350e-01    2.5363e+05 ;    C19 - C18   
  6234   6235   1    1.0920e-01    2.8225e+05 ;    C18 - H8R   
  6234   6236   1    1.0920e-01    2.8225e+05 ;    C18 - H8S   
  6234   6237   1    1.5350e-01    2.5363e+05 ;    C18 - C17   
  6237   6238   1    1.0920e-01    2.8225e+05 ;    C17 - H7R   
  6237   6239   1    1.0920e-01    2.8225e+05 ;    C17 - H7S   
  6237   6240   1    1.5350e-01    2.5363e+05 ;    C17 - C16   
  6240   6241   1    1.0920e-01    2.8225e+05 ;    C16 - H6R   
  6240   6242   1    1.0920e-01    2.8225e+05 ;    C16 - H6S   
  6240   6243   1    1.5350e-01    2.5363e+05 ;    C16 - C15   
  6243   6244   1    1.0920e-01    2.8225e+05 ;    C15 - H5R   
  6243   6245   1    1.0920e-01    2.8225e+05 ;    C15 - H5S   
  6243   6246   1    1.5350e-01    2.5363e+05 ;    C15 - C14   
  6246   6247   1    1.0920e-01    2.8225e+05 ;    C14 - H4R   
  6246   6248   1    1.0920e-01    2.8225e+05 ;    C14 - H4S   
  6246   6249   1    1.5350e-01    2.5363e+05 ;    C14 - C13   
  6249   6250   1    1.0920e-01    2.8225e+05 ;    C13 - H3R   
  6249   6251   1    1.0920e-01    2.8225e+05 ;    C13 - H3S   
  6249   6252   1    1.5350e-01    2.5363e+05 ;    C13 - C12   
  6252   6253   1    1.0920e-01    2.8225e+05 ;    C12 - H2R   
  6252   6254   1    1.0920e-01    2.8225e+05 ;    C12 - H2S   
  6255   6256   1    1.0920e-01    2.8225e+05 ;   H14T - C114  
  6256   6257   1    1.0920e-01    2.8225e+05 ;   C114 - H14R  
  6256   6258   1    1.0920e-01    2.8225e+05 ;   C114 - H14S  
  6256   6259   1    1.5350e-01    2.5363e+05 ;   C114 - C113  
  6259   6260   1    1.0920e-01    2.8225e+05 ;   C113 - H13R  
  6259   6261   1    1.0920e-01    2.8225e+05 ;   C113 - H13S  
  6259   6262   1    1.5350e-01    2.5363e+05 ;   C113 - C112  
  6262   6263   1    1.0920e-01    2.8225e+05 ;   C112 - H12R  
  6262   6264   1    1.0920e-01    2.8225e+05 ;   C112 - H12S  
  6262   6265   1    1.5350e-01    2.5363e+05 ;   C112 - C111  
  6265   6266   1    1.0920e-01    2.8225e+05 ;   C111 - H11R  
  6265   6267   1    1.0920e-01    2.8225e+05 ;   C111 - H11S  
  6265   6268   1    1.5350e-01    2.5363e+05 ;   C111 - C110  
  6268   6269   1    1.0920e-01    2.8225e+05 ;   C110 - H10R  
  6268   6270   1    1.0920e-01    2.8225e+05 ;   C110 - H10S  
  6268   6271   1    1.5350e-01    2.5363e+05 ;   C110 - C19   
  6271   6272   1    1.0920e-01    2.8225e+05 ;    C19 - H9R   
  6271   6273   1    1.0920e-01    2.8225e+05 ;    C19 - H9S   
  6271   6274   1    1.5350e-01    2.5363e+05 ;    C19 - C18   
  6274   6275   1    1.0920e-01    2.8225e+05 ;    C18 - H8R   
  6274   6276   1    1.0920e-01    2.8225e+05 ;    C18 - H8S   
  6274   6277   1    1.5350e-01    2.5363e+05 ;    C18 - C17   
  6277   6278   1    1.0920e-01    2.8225e+05 ;    C17 - H7R   
  6277   6279   1    1.0920e-01    2.8225e+05 ;    C17 - H7S   
  6277   6280   1    1.5350e-01    2.5363e+05 ;    C17 - C16   
  6280   6281   1    1.0920e-01    2.8225e+05 ;    C16 - H6R   
  6280   6282   1    1.0920e-01    2.8225e+05 ;    C16 - H6S   
  6280   6283   1    1.5350e-01    2.5363e+05 ;    C16 - C15   
  6283   6284   1    1.0920e-01    2.8225e+05 ;    C15 - H5R   
  6283   6285   1    1.0920e-01    2.8225e+05 ;    C15 - H5S   
  6283   6286   1    1.5350e-01    2.5363e+05 ;    C15 - C14   
  6286   6287   1    1.0920e-01    2.8225e+05 ;    C14 - H4R   
  6286   6288   1    1.0920e-01    2.8225e+05 ;    C14 - H4S   
  6286   6289   1    1.5350e-01    2.5363e+05 ;    C14 - C13   
  6289   6290   1    1.0920e-01    2.8225e+05 ;    C13 - H3R   
  6289   6291   1    1.0920e-01    2.8225e+05 ;    C13 - H3S   
  6289   6292   1    1.5350e-01    2.5363e+05 ;    C13 - C12   
  6292   6293   1    1.0920e-01    2.8225e+05 ;    C12 - H2R   
  6292   6294   1    1.0920e-01    2.8225e+05 ;    C12 - H2S   
  6292   6295   1    1.5080e-01    2.7472e+05 ;    C12 - C11   
  6295   6296   1    1.2140e-01    5.4225e+05 ;    C11 - O12   
  6295   6297   1    1.3430e-01    3.4418e+05 ;    C11 - O11   
  6297   6298   1    1.4390e-01    2.5230e+05 ;    O11 - C1    
  6298   6299   1    1.0930e-01    2.8108e+05 ;     C1 - HR    
  6298   6300   1    1.0930e-01    2.8108e+05 ;     C1 - HS    
  6298   6301   1    1.5350e-01    2.5363e+05 ;     C1 - C2    
  6301   6302   1    1.0930e-01    2.8108e+05 ;     C2 - HX    
  6301   6303   1    1.5350e-01    2.5363e+05 ;     C2 - C3    
  6301   6330   1    1.4390e-01    2.5230e+05 ;     C2 - O21   
  6303   6304   1    1.0930e-01    2.8108e+05 ;     C3 - HA    
  6303   6305   1    1.0930e-01    2.8108e+05 ;     C3 - HB    
  6303   6306   1    1.4390e-01    2.5230e+05 ;     C3 - O31   
  6306   6307   1    1.6100e-01    1.9246e+05 ;    O31 - P31   
  6307   6308   1    1.6100e-01    1.9246e+05 ;    P31 - O32   
  6307   6328   1    1.4800e-01    4.3932e+05 ;    P31 - O33   
  6307   6329   1    1.4800e-01    4.3932e+05 ;    P31 - O34   
  6308   6309   1    1.4390e-01    2.5230e+05 ;    O32 - C31   
  6309   6310   1    1.0930e-01    2.8108e+05 ;    C31 - H1A   
  6309   6311   1    1.0930e-01    2.8108e+05 ;    C31 - H1B   
  6309   6312   1    1.5350e-01    2.5363e+05 ;    C31 - C32   
  6312   6313   1    1.0910e-01    2.8342e+05 ;    C32 - H2A   
  6312   6314   1    1.0910e-01    2.8342e+05 ;    C32 - H2B   
  6312   6315   1    1.4990e-01    2.4568e+05 ;    C32 - N31   
  6315   6316   1    1.4990e-01    2.4568e+05 ;    N31 - C33   
  6315   6320   1    1.4990e-01    2.4568e+05 ;    N31 - C34   
  6315   6324   1    1.4990e-01    2.4568e+05 ;    N31 - C35   
  6316   6317   1    1.0910e-01    2.8342e+05 ;    C33 - H3A   
  6316   6318   1    1.0910e-01    2.8342e+05 ;    C33 - H3B   
  6316   6319   1    1.0910e-01    2.8342e+05 ;    C33 - H3C   
  6320   6321   1    1.0910e-01    2.8342e+05 ;    C34 - H4A   
  6320   6322   1    1.0910e-01    2.8342e+05 ;    C34 - H4B   
  6320   6323   1    1.0910e-01    2.8342e+05 ;    C34 - H4C   
  6324   6325   1    1.0910e-01    2.8342e+05 ;    C35 - H5A   
  6324   6326   1    1.0910e-01    2.8342e+05 ;    C35 - H5B   
  6324   6327   1    1.0910e-01    2.8342e+05 ;    C35 - H5C   
  6330   6331   1    1.3430e-01    3.4418e+05 ;    O21 - C21   
  6331   6332   1    1.2140e-01    5.4225e+05 ;    C21 - O22   
  6331   6370   1    1.5080e-01    2.7472e+05 ;    C21 - C12   
  6333   6334   1    1.0920e-01    2.8225e+05 ;   H14T - C114  
  6334   6335   1    1.0920e-01    2.8225e+05 ;   C114 - H14R  
  6334   6336   1    1.0920e-01    2.8225e+05 ;   C114 - H14S  
  6334   6337   1    1.5350e-01    2.5363e+05 ;   C114 - C113  
  6337   6338   1    1.0920e-01    2.8225e+05 ;   C113 - H13R  
  6337   6339   1    1.0920e-01    2.8225e+05 ;   C113 - H13S  
  6337   6340   1    1.5350e-01    2.5363e+05 ;   C113 - C112  
  6340   6341   1    1.0920e-01    2.8225e+05 ;   C112 - H12R  
  6340   6342   1    1.0920e-01    2.8225e+05 ;   C112 - H12S  
  6340   6343   1    1.5350e-01    2.5363e+05 ;   C112 - C111  
  6343   6344   1    1.0920e-01    2.8225e+05 ;   C111 - H11R  
  6343   6345   1    1.0920e-01    2.8225e+05 ;   C111 - H11S  
  6343   6346   1    1.5350e-01    2.5363e+05 ;   C111 - C110  
  6346   6347   1    1.0920e-01    2.8225e+05 ;   C110 - H10R  
  6346   6348   1    1.0920e-01    2.8225e+05 ;   C110 - H10S  
  6346   6349   1    1.5350e-01    2.5363e+05 ;   C110 - C19   
  6349   6350   1    1.0920e-01    2.8225e+05 ;    C19 - H9R   
  6349   6351   1    1.0920e-01    2.8225e+05 ;    C19 - H9S   
  6349   6352   1    1.5350e-01    2.5363e+05 ;    C19 - C18   
  6352   6353   1    1.0920e-01    2.8225e+05 ;    C18 - H8R   
  6352   6354   1    1.0920e-01    2.8225e+05 ;    C18 - H8S   
  6352   6355   1    1.5350e-01    2.5363e+05 ;    C18 - C17   
  6355   6356   1    1.0920e-01    2.8225e+05 ;    C17 - H7R   
  6355   6357   1    1.0920e-01    2.8225e+05 ;    C17 - H7S   
  6355   6358   1    1.5350e-01    2.5363e+05 ;    C17 - C16   
  6358   6359   1    1.0920e-01    2.8225e+05 ;    C16 - H6R   
  6358   6360   1    1.0920e-01    2.8225e+05 ;    C16 - H6S   
  6358   6361   1    1.5350e-01    2.5363e+05 ;    C16 - C15   
  6361   6362   1    1.0920e-01    2.8225e+05 ;    C15 - H5R   
  6361   6363   1    1.0920e-01    2.8225e+05 ;    C15 - H5S   
  6361   6364   1    1.5350e-01    2.5363e+05 ;    C15 - C14   
  6364   6365   1    1.0920e-01    2.8225e+05 ;    C14 - H4R   
  6364   6366   1    1.0920e-01    2.8225e+05 ;    C14 - H4S   
  6364   6367   1    1.5350e-01    2.5363e+05 ;    C14 - C13   
  6367   6368   1    1.0920e-01    2.8225e+05 ;    C13 - H3R   
  6367   6369   1    1.0920e-01    2.8225e+05 ;    C13 - H3S   
  6367   6370   1    1.5350e-01    2.5363e+05 ;    C13 - C12   
  6370   6371   1    1.0920e-01    2.8225e+05 ;    C12 - H2R   
  6370   6372   1    1.0920e-01    2.8225e+05 ;    C12 - H2S   
  6373   6374   1    1.0920e-01    2.8225e+05 ;   H14T - C114  
  6374   6375   1    1.0920e-01    2.8225e+05 ;   C114 - H14R  
  6374   6376   1    1.0920e-01    2.8225e+05 ;   C114 - H14S  
  6374   6377   1    1.5350e-01    2.5363e+05 ;   C114 - C113  
  6377   6378   1    1.0920e-01    2.8225e+05 ;   C113 - H13R  
  6377   6379   1    1.0920e-01    2.8225e+05 ;   C113 - H13S  
  6377   6380   1    1.5350e-01    2.5363e+05 ;   C113 - C112  
  6380   6381   1    1.0920e-01    2.8225e+05 ;   C112 - H12R  
  6380   6382   1    1.0920e-01    2.8225e+05 ;   C112 - H12S  
  6380   6383   1    1.5350e-01    2.5363e+05 ;   C112 - C111  
  6383   6384   1    1.0920e-01    2.8225e+05 ;   C111 - H11R  
  6383   6385   1    1.0920e-01    2.8225e+05 ;   C111 - H11S  
  6383   6386   1    1.5350e-01    2.5363e+05 ;   C111 - C110  
  6386   6387   1    1.0920e-01    2.8225e+05 ;   C110 - H10R  
  6386   6388   1    1.0920e-01    2.8225e+05 ;   C110 - H10S  
  6386   6389   1    1.5350e-01    2.5363e+05 ;   C110 - C19   
  6389   6390   1    1.0920e-01    2.8225e+05 ;    C19 - H9R   
  6389   6391   1    1.0920e-01    2.8225e+05 ;    C19 - H9S   
  6389   6392   1    1.5350e-01    2.5363e+05 ;    C19 - C18   
  6392   6393   1    1.0920e-01    2.8225e+05 ;    C18 - H8R   
  6392   6394   1    1.0920e-01    2.8225e+05 ;    C18 - H8S   
  6392   6395   1    1.5350e-01    2.5363e+05 ;    C18 - C17   
  6395   6396   1    1.0920e-01    2.8225e+05 ;    C17 - H7R   
  6395   6397   1    1.0920e-01    2.8225e+05 ;    C17 - H7S   
  6395   6398   1    1.5350e-01    2.5363e+05 ;    C17 - C16   
  6398   6399   1    1.0920e-01    2.8225e+05 ;    C16 - H6R   
  6398   6400   1    1.0920e-01    2.8225e+05 ;    C16 - H6S   
  6398   6401   1    1.5350e-01    2.5363e+05 ;    C16 - C15   
  6401   6402   1    1.0920e-01    2.8225e+05 ;    C15 - H5R   
  6401   6403   1    1.0920e-01    2.8225e+05 ;    C15 - H5S   
  6401   6404   1    1.5350e-01    2.5363e+05 ;    C15 - C14   
  6404   6405   1    1.0920e-01    2.8225e+05 ;    C14 - H4R   
  6404   6406   1    1.0920e-01    2.8225e+05 ;    C14 - H4S   
  6404   6407   1    1.5350e-01    2.5363e+05 ;    C14 - C13   
  6407   6408   1    1.0920e-01    2.8225e+05 ;    C13 - H3R   
  6407   6409   1    1.0920e-01    2.8225e+05 ;    C13 - H3S   
  6407   6410   1    1.5350e-01    2.5363e+05 ;    C13 - C12   
  6410   6411   1    1.0920e-01    2.8225e+05 ;    C12 - H2R   
  6410   6412   1    1.0920e-01    2.8225e+05 ;    C12 - H2S   
  6410   6413   1    1.5080e-01    2.7472e+05 ;    C12 - C11   
  6413   6414   1    1.2140e-01    5.4225e+05 ;    C11 - O12   
  6413   6415   1    1.3430e-01    3.4418e+05 ;    C11 - O11   
  6415   6416   1    1.4390e-01    2.5230e+05 ;    O11 - C1    
  6416   6417   1    1.0930e-01    2.8108e+05 ;     C1 - HR    
  6416   6418   1    1.0930e-01    2.8108e+05 ;     C1 - HS    
  6416   6419   1    1.5350e-01    2.5363e+05 ;     C1 - C2    
  6419   6420   1    1.0930e-01    2.8108e+05 ;     C2 - HX    
  6419   6421   1    1.5350e-01    2.5363e+05 ;     C2 - C3    
  6419   6448   1    1.4390e-01    2.5230e+05 ;     C2 - O21   
  6421   6422   1    1.0930e-01    2.8108e+05 ;     C3 - HA    
  6421   6423   1    1.0930e-01    2.8108e+05 ;     C3 - HB    
  6421   6424   1    1.4390e-01    2.5230e+05 ;     C3 - O31   
  6424   6425   1    1.6100e-01    1.9246e+05 ;    O31 - P31   
  6425   6426   1    1.6100e-01    1.9246e+05 ;    P31 - O32   
  6425   6446   1    1.4800e-01    4.3932e+05 ;    P31 - O33   
  6425   6447   1    1.4800e-01    4.3932e+05 ;    P31 - O34   
  6426   6427   1    1.4390e-01    2.5230e+05 ;    O32 - C31   
  6427   6428   1    1.0930e-01    2.8108e+05 ;    C31 - H1A   
  6427   6429   1    1.0930e-01    2.8108e+05 ;    C31 - H1B   
  6427   6430   1    1.5350e-01    2.5363e+05 ;    C31 - C32   
  6430   6431   1    1.0910e-01    2.8342e+05 ;    C32 - H2A   
  6430   6432   1    1.0910e-01    2.8342e+05 ;    C32 - H2B   
  6430   6433   1    1.4990e-01    2.4568e+05 ;    C32 - N31   
  6433   6434   1    1.4990e-01    2.4568e+05 ;    N31 - C33   
  6433   6438   1    1.4990e-01    2.4568e+05 ;    N31 - C34   
  6433   6442   1    1.4990e-01    2.4568e+05 ;    N31 - C35   
  6434   6435   1    1.0910e-01    2.8342e+05 ;    C33 - H3A   
  6434   6436   1    1.0910e-01    2.8342e+05 ;    C33 - H3B   
  6434   6437   1    1.0910e-01    2.8342e+05 ;    C33 - H3C   
  6438   6439   1    1.0910e-01    2.8342e+05 ;    C34 - H4A   
  6438   6440   1    1.0910e-01    2.8342e+05 ;    C34 - H4B   
  6438   6441   1    1.0910e-01    2.8342e+05 ;    C34 - H4C   
  6442   6443   1    1.0910e-01    2.8342e+05 ;    C35 - H5A   
  6442   6444   1    1.0910e-01    2.8342e+05 ;    C35 - H5B   
  6442   6445   1    1.0910e-01    2.8342e+05 ;    C35 - H5C   
  6448   6449   1    1.3430e-01    3.4418e+05 ;    O21 - C21   
  6449   6450   1    1.2140e-01    5.4225e+05 ;    C21 - O22   
  6449   6488   1    1.5080e-01    2.7472e+05 ;    C21 - C12   
  6451   6452   1    1.0920e-01    2.8225e+05 ;   H14T - C114  
  6452   6453   1    1.0920e-01    2.8225e+05 ;   C114 - H14R  
  6452   6454   1    1.0920e-01    2.8225e+05 ;   C114 - H14S  
  6452   6455   1    1.5350e-01    2.5363e+05 ;   C114 - C113  
  6455   6456   1    1.0920e-01    2.8225e+05 ;   C113 - H13R  
  6455   6457   1    1.0920e-01    2.8225e+05 ;   C113 - H13S  
  6455   6458   1    1.5350e-01    2.5363e+05 ;   C113 - C112  
  6458   6459   1    1.0920e-01    2.8225e+05 ;   C112 - H12R  
  6458   6460   1    1.0920e-01    2.8225e+05 ;   C112 - H12S  
  6458   6461   1    1.5350e-01    2.5363e+05 ;   C112 - C111  
  6461   6462   1    1.0920e-01    2.8225e+05 ;   C111 - H11R  
  6461   6463   1    1.0920e-01    2.8225e+05 ;   C111 - H11S  
  6461   6464   1    1.5350e-01    2.5363e+05 ;   C111 - C110  
  6464   6465   1    1.0920e-01    2.8225e+05 ;   C110 - H10R  
  6464   6466   1    1.0920e-01    2.8225e+05 ;   C110 - H10S  
  6464   6467   1    1.5350e-01    2.5363e+05 ;   C110 - C19   
  6467   6468   1    1.0920e-01    2.8225e+05 ;    C19 - H9R   
  6467   6469   1    1.0920e-01    2.8225e+05 ;    C19 - H9S   
  6467   6470   1    1.5350e-01    2.5363e+05 ;    C19 - C18   
  6470   6471   1    1.0920e-01    2.8225e+05 ;    C18 - H8R   
  6470   6472   1    1.0920e-01    2.8225e+05 ;    C18 - H8S   
  6470   6473   1    1.5350e-01    2.5363e+05 ;    C18 - C17   
  6473   6474   1    1.0920e-01    2.8225e+05 ;    C17 - H7R   
  6473   6475   1    1.0920e-01    2.8225e+05 ;    C17 - H7S   
  6473   6476   1    1.5350e-01    2.5363e+05 ;    C17 - C16   
  6476   6477   1    1.0920e-01    2.8225e+05 ;    C16 - H6R   
  6476   6478   1    1.0920e-01    2.8225e+05 ;    C16 - H6S   
  6476   6479   1    1.5350e-01    2.5363e+05 ;    C16 - C15   
  6479   6480   1    1.0920e-01    2.8225e+05 ;    C15 - H5R   
  6479   6481   1    1.0920e-01    2.8225e+05 ;    C15 - H5S   
  6479   6482   1    1.5350e-01    2.5363e+05 ;    C15 - C14   
  6482   6483   1    1.0920e-01    2.8225e+05 ;    C14 - H4R   
  6482   6484   1    1.0920e-01    2.8225e+05 ;    C14 - H4S   
  6482   6485   1    1.5350e-01    2.5363e+05 ;    C14 - C13   
  6485   6486   1    1.0920e-01    2.8225e+05 ;    C13 - H3R   
  6485   6487   1    1.0920e-01    2.8225e+05 ;    C13 - H3S   
  6485   6488   1    1.5350e-01    2.5363e+05 ;    C13 - C12   
  6488   6489   1    1.0920e-01    2.8225e+05 ;    C12 - H2R   
  6488   6490   1    1.0920e-01    2.8225e+05 ;    C12 - H2S   
  6491   6492   1    1.0920e-01    2.8225e+05 ;   H14T - C114  
  6492   6493   1    1.0920e-01    2.8225e+05 ;   C114 - H14R  
  6492   6494   1    1.0920e-01    2.8225e+05 ;   C114 - H14S  
  6492   6495   1    1.5350e-01    2.5363e+05 ;   C114 - C113  
  6495   6496   1    1.0920e-01    2.8225e+05 ;   C113 - H13R  
  6495   6497   1    1.0920e-01    2.8225e+05 ;   C113 - H13S  
  6495   6498   1    1.5350e-01    2.5363e+05 ;   C113 - C112  
  6498   6499   1    1.0920e-01    2.8225e+05 ;   C112 - H12R  
  6498   6500   1    1.0920e-01    2.8225e+05 ;   C112 - H12S  
  6498   6501   1    1.5350e-01    2.5363e+05 ;   C112 - C111  
  6501   6502   1    1.0920e-01    2.8225e+05 ;   C111 - H11R  
  6501   6503   1    1.0920e-01    2.8225e+05 ;   C111 - H11S  
  6501   6504   1    1.5350e-01    2.5363e+05 ;   C111 - C110  
  6504   6505   1    1.0920e-01    2.8225e+05 ;   C110 - H10R  
  6504   6506   1    1.0920e-01    2.8225e+05 ;   C110 - H10S  
  6504   6507   1    1.5350e-01    2.5363e+05 ;   C110 - C19   
  6507   6508   1    1.0920e-01    2.8225e+05 ;    C19 - H9R   
  6507   6509   1    1.0920e-01    2.8225e+05 ;    C19 - H9S   
  6507   6510   1    1.5350e-01    2.5363e+05 ;    C19 - C18   
  6510   6511   1    1.0920e-01    2.8225e+05 ;    C18 - H8R   
  6510   6512   1    1.0920e-01    2.8225e+05 ;    C18 - H8S   
  6510   6513   1    1.5350e-01    2.5363e+05 ;    C18 - C17   
  6513   6514   1    1.0920e-01    2.8225e+05 ;    C17 - H7R   
  6513   6515   1    1.0920e-01    2.8225e+05 ;    C17 - H7S   
  6513   6516   1    1.5350e-01    2.5363e+05 ;    C17 - C16   
  6516   6517   1    1.0920e-01    2.8225e+05 ;    C16 - H6R   
  6516   6518   1    1.0920e-01    2.8225e+05 ;    C16 - H6S   
  6516   6519   1    1.5350e-01    2.5363e+05 ;    C16 - C15   
  6519   6520   1    1.0920e-01    2.8225e+05 ;    C15 - H5R   
  6519   6521   1    1.0920e-01    2.8225e+05 ;    C15 - H5S   
  6519   6522   1    1.5350e-01    2.5363e+05 ;    C15 - C14   
  6522   6523   1    1.0920e-01    2.8225e+05 ;    C14 - H4R   
  6522   6524   1    1.0920e-01    2.8225e+05 ;    C14 - H4S   
  6522   6525   1    1.5350e-01    2.5363e+05 ;    C14 - C13   
  6525   6526   1    1.0920e-01    2.8225e+05 ;    C13 - H3R   
  6525   6527   1    1.0920e-01    2.8225e+05 ;    C13 - H3S   
  6525   6528   1    1.5350e-01    2.5363e+05 ;    C13 - C12   
  6528   6529   1    1.0920e-01    2.8225e+05 ;    C12 - H2R   
  6528   6530   1    1.0920e-01    2.8225e+05 ;    C12 - H2S   
  6528   6531   1    1.5080e-01    2.7472e+05 ;    C12 - C11   
  6531   6532   1    1.2140e-01    5.4225e+05 ;    C11 - O12   
  6531   6533   1    1.3430e-01    3.4418e+05 ;    C11 - O11   
  6533   6534   1    1.4390e-01    2.5230e+05 ;    O11 - C1    
  6534   6535   1    1.0930e-01    2.8108e+05 ;     C1 - HR    
  6534   6536   1    1.0930e-01    2.8108e+05 ;     C1 - HS    
  6534   6537   1    1.5350e-01    2.5363e+05 ;     C1 - C2    
  6537   6538   1    1.0930e-01    2.8108e+05 ;     C2 - HX    
  6537   6539   1    1.5350e-01    2.5363e+05 ;     C2 - C3    
  6537   6566   1    1.4390e-01    2.5230e+05 ;     C2 - O21   
  6539   6540   1    1.0930e-01    2.8108e+05 ;     C3 - HA    
  6539   6541   1    1.0930e-01    2.8108e+05 ;     C3 - HB    
  6539   6542   1    1.4390e-01    2.5230e+05 ;     C3 - O31   
  6542   6543   1    1.6100e-01    1.9246e+05 ;    O31 - P31   
  6543   6544   1    1.6100e-01    1.9246e+05 ;    P31 - O32   
  6543   6564   1    1.4800e-01    4.3932e+05 ;    P31 - O33   
  6543   6565   1    1.4800e-01    4.3932e+05 ;    P31 - O34   
  6544   6545   1    1.4390e-01    2.5230e+05 ;    O32 - C31   
  6545   6546   1    1.0930e-01    2.8108e+05 ;    C31 - H1A   
  6545   6547   1    1.0930e-01    2.8108e+05 ;    C31 - H1B   
  6545   6548   1    1.5350e-01    2.5363e+05 ;    C31 - C32   
  6548   6549   1    1.0910e-01    2.8342e+05 ;    C32 - H2A   
  6548   6550   1    1.0910e-01    2.8342e+05 ;    C32 - H2B   
  6548   6551   1    1.4990e-01    2.4568e+05 ;    C32 - N31   
  6551   6552   1    1.4990e-01    2.4568e+05 ;    N31 - C33   
  6551   6556   1    1.4990e-01    2.4568e+05 ;    N31 - C34   
  6551   6560   1    1.4990e-01    2.4568e+05 ;    N31 - C35   
  6552   6553   1    1.0910e-01    2.8342e+05 ;    C33 - H3A   
  6552   6554   1    1.0910e-01    2.8342e+05 ;    C33 - H3B   
  6552   6555   1    1.0910e-01    2.8342e+05 ;    C33 - H3C   
  6556   6557   1    1.0910e-01    2.8342e+05 ;    C34 - H4A   
  6556   6558   1    1.0910e-01    2.8342e+05 ;    C34 - H4B   
  6556   6559   1    1.0910e-01    2.8342e+05 ;    C34 - H4C   
  6560   6561   1    1.0910e-01    2.8342e+05 ;    C35 - H5A   
  6560   6562   1    1.0910e-01    2.8342e+05 ;    C35 - H5B   
  6560   6563   1    1.0910e-01    2.8342e+05 ;    C35 - H5C   
  6566   6567   1    1.3430e-01    3.4418e+05 ;    O21 - C21   
  6567   6568   1    1.2140e-01    5.4225e+05 ;    C21 - O22   
  6567   6606   1    1.5080e-01    2.7472e+05 ;    C21 - C12   
  6569   6570   1    1.0920e-01    2.8225e+05 ;   H14T - C114  
  6570   6571   1    1.0920e-01    2.8225e+05 ;   C114 - H14R  
  6570   6572   1    1.0920e-01    2.8225e+05 ;   C114 - H14S  
  6570   6573   1    1.5350e-01    2.5363e+05 ;   C114 - C113  
  6573   6574   1    1.0920e-01    2.8225e+05 ;   C113 - H13R  
  6573   6575   1    1.0920e-01    2.8225e+05 ;   C113 - H13S  
  6573   6576   1    1.5350e-01    2.5363e+05 ;   C113 - C112  
  6576   6577   1    1.0920e-01    2.8225e+05 ;   C112 - H12R  
  6576   6578   1    1.0920e-01    2.8225e+05 ;   C112 - H12S  
  6576   6579   1    1.5350e-01    2.5363e+05 ;   C112 - C111  
  6579   6580   1    1.0920e-01    2.8225e+05 ;   C111 - H11R  
  6579   6581   1    1.0920e-01    2.8225e+05 ;   C111 - H11S  
  6579   6582   1    1.5350e-01    2.5363e+05 ;   C111 - C110  
  6582   6583   1    1.0920e-01    2.8225e+05 ;   C110 - H10R  
  6582   6584   1    1.0920e-01    2.8225e+05 ;   C110 - H10S  
  6582   6585   1    1.5350e-01    2.5363e+05 ;   C110 - C19   
  6585   6586   1    1.0920e-01    2.8225e+05 ;    C19 - H9R   
  6585   6587   1    1.0920e-01    2.8225e+05 ;    C19 - H9S   
  6585   6588   1    1.5350e-01    2.5363e+05 ;    C19 - C18   
  6588   6589   1    1.0920e-01    2.8225e+05 ;    C18 - H8R   
  6588   6590   1    1.0920e-01    2.8225e+05 ;    C18 - H8S   
  6588   6591   1    1.5350e-01    2.5363e+05 ;    C18 - C17   
  6591   6592   1    1.0920e-01    2.8225e+05 ;    C17 - H7R   
  6591   6593   1    1.0920e-01    2.8225e+05 ;    C17 - H7S   
  6591   6594   1    1.5350e-01    2.5363e+05 ;    C17 - C16   
  6594   6595   1    1.0920e-01    2.8225e+05 ;    C16 - H6R   
  6594   6596   1    1.0920e-01    2.8225e+05 ;    C16 - H6S   
  6594   6597   1    1.5350e-01    2.5363e+05 ;    C16 - C15   
  6597   6598   1    1.0920e-01    2.8225e+05 ;    C15 - H5R   
  6597   6599   1    1.0920e-01    2.8225e+05 ;    C15 - H5S   
  6597   6600   1    1.5350e-01    2.5363e+05 ;    C15 - C14   
  6600   6601   1    1.0920e-01    2.8225e+05 ;    C14 - H4R   
  6600   6602   1    1.0920e-01    2.8225e+05 ;    C14 - H4S   
  6600   6603   1    1.5350e-01    2.5363e+05 ;    C14 - C13   
  6603   6604   1    1.0920e-01    2.8225e+05 ;    C13 - H3R   
  6603   6605   1    1.0920e-01    2.8225e+05 ;    C13 - H3S   
  6603   6606   1    1.5350e-01    2.5363e+05 ;    C13 - C12   
  6606   6607   1    1.0920e-01    2.8225e+05 ;    C12 - H2R   
  6606   6608   1    1.0920e-01    2.8225e+05 ;    C12 - H2S   
  6609   6610   1    1.0920e-01    2.8225e+05 ;   H14T - C114  
  6610   6611   1    1.0920e-01    2.8225e+05 ;   C114 - H14R  
  6610   6612   1    1.0920e-01    2.8225e+05 ;   C114 - H14S  
  6610   6613   1    1.5350e-01    2.5363e+05 ;   C114 - C113  
  6613   6614   1    1.0920e-01    2.8225e+05 ;   C113 - H13R  
  6613   6615   1    1.0920e-01    2.8225e+05 ;   C113 - H13S  
  6613   6616   1    1.5350e-01    2.5363e+05 ;   C113 - C112  
  6616   6617   1    1.0920e-01    2.8225e+05 ;   C112 - H12R  
  6616   6618   1    1.0920e-01    2.8225e+05 ;   C112 - H12S  
  6616   6619   1    1.5350e-01    2.5363e+05 ;   C112 - C111  
  6619   6620   1    1.0920e-01    2.8225e+05 ;   C111 - H11R  
  6619   6621   1    1.0920e-01    2.8225e+05 ;   C111 - H11S  
  6619   6622   1    1.5350e-01    2.5363e+05 ;   C111 - C110  
  6622   6623   1    1.0920e-01    2.8225e+05 ;   C110 - H10R  
  6622   6624   1    1.0920e-01    2.8225e+05 ;   C110 - H10S  
  6622   6625   1    1.5350e-01    2.5363e+05 ;   C110 - C19   
  6625   6626   1    1.0920e-01    2.8225e+05 ;    C19 - H9R   
  6625   6627   1    1.0920e-01    2.8225e+05 ;    C19 - H9S   
  6625   6628   1    1.5350e-01    2.5363e+05 ;    C19 - C18   
  6628   6629   1    1.0920e-01    2.8225e+05 ;    C18 - H8R   
  6628   6630   1    1.0920e-01    2.8225e+05 ;    C18 - H8S   
  6628   6631   1    1.5350e-01    2.5363e+05 ;    C18 - C17   
  6631   6632   1    1.0920e-01    2.8225e+05 ;    C17 - H7R   
  6631   6633   1    1.0920e-01    2.8225e+05 ;    C17 - H7S   
  6631   6634   1    1.5350e-01    2.5363e+05 ;    C17 - C16   
  6634   6635   1    1.0920e-01    2.8225e+05 ;    C16 - H6R   
  6634   6636   1    1.0920e-01    2.8225e+05 ;    C16 - H6S   
  6634   6637   1    1.5350e-01    2.5363e+05 ;    C16 - C15   
  6637   6638   1    1.0920e-01    2.8225e+05 ;    C15 - H5R   
  6637   6639   1    1.0920e-01    2.8225e+05 ;    C15 - H5S   
  6637   6640   1    1.5350e-01    2.5363e+05 ;    C15 - C14   
  6640   6641   1    1.0920e-01    2.8225e+05 ;    C14 - H4R   
  6640   6642   1    1.0920e-01    2.8225e+05 ;    C14 - H4S   
  6640   6643   1    1.5350e-01    2.5363e+05 ;    C14 - C13   
  6643   6644   1    1.0920e-01    2.8225e+05 ;    C13 - H3R   
  6643   6645   1    1.0920e-01    2.8225e+05 ;    C13 - H3S   
  6643   6646   1    1.5350e-01    2.5363e+05 ;    C13 - C12   
  6646   6647   1    1.0920e-01    2.8225e+05 ;    C12 - H2R   
  6646   6648   1    1.0920e-01    2.8225e+05 ;    C12 - H2S   
  6646   6649   1    1.5080e-01    2.7472e+05 ;    C12 - C11   
  6649   6650   1    1.2140e-01    5.4225e+05 ;    C11 - O12   
  6649   6651   1    1.3430e-01    3.4418e+05 ;    C11 - O11   
  6651   6652   1    1.4390e-01    2.5230e+05 ;    O11 - C1    
  6652   6653   1    1.0930e-01    2.8108e+05 ;     C1 - HR    
  6652   6654   1    1.0930e-01    2.8108e+05 ;     C1 - HS    
  6652   6655   1    1.5350e-01    2.5363e+05 ;     C1 - C2    
  6655   6656   1    1.0930e-01    2.8108e+05 ;     C2 - HX    
  6655   6657   1    1.5350e-01    2.5363e+05 ;     C2 - C3    
  6655   6684   1    1.4390e-01    2.5230e+05 ;     C2 - O21   
  6657   6658   1    1.0930e-01    2.8108e+05 ;     C3 - HA    
  6657   6659   1    1.0930e-01    2.8108e+05 ;     C3 - HB    
  6657   6660   1    1.4390e-01    2.5230e+05 ;     C3 - O31   
  6660   6661   1    1.6100e-01    1.9246e+05 ;    O31 - P31   
  6661   6662   1    1.6100e-01    1.9246e+05 ;    P31 - O32   
  6661   6682   1    1.4800e-01    4.3932e+05 ;    P31 - O33   
  6661   6683   1    1.4800e-01    4.3932e+05 ;    P31 - O34   
  6662   6663   1    1.4390e-01    2.5230e+05 ;    O32 - C31   
  6663   6664   1    1.0930e-01    2.8108e+05 ;    C31 - H1A   
  6663   6665   1    1.0930e-01    2.8108e+05 ;    C31 - H1B   
  6663   6666   1    1.5350e-01    2.5363e+05 ;    C31 - C32   
  6666   6667   1    1.0910e-01    2.8342e+05 ;    C32 - H2A   
  6666   6668   1    1.0910e-01    2.8342e+05 ;    C32 - H2B   
  6666   6669   1    1.4990e-01    2.4568e+05 ;    C32 - N31   
  6669   6670   1    1.4990e-01    2.4568e+05 ;    N31 - C33   
  6669   6674   1    1.4990e-01    2.4568e+05 ;    N31 - C34   
  6669   6678   1    1.4990e-01    2.4568e+05 ;    N31 - C35   
  6670   6671   1    1.0910e-01    2.8342e+05 ;    C33 - H3A   
  6670   6672   1    1.0910e-01    2.8342e+05 ;    C33 - H3B   
  6670   6673   1    1.0910e-01    2.8342e+05 ;    C33 - H3C   
  6674   6675   1    1.0910e-01    2.8342e+05 ;    C34 - H4A   
  6674   6676   1    1.0910e-01    2.8342e+05 ;    C34 - H4B   
  6674   6677   1    1.0910e-01    2.8342e+05 ;    C34 - H4C   
  6678   6679   1    1.0910e-01    2.8342e+05 ;    C35 - H5A   
  6678   6680   1    1.0910e-01    2.8342e+05 ;    C35 - H5B   
  6678   6681   1    1.0910e-01    2.8342e+05 ;    C35 - H5C   
  6684   6685   1    1.3430e-01    3.4418e+05 ;    O21 - C21   
  6685   6686   1    1.2140e-01    5.4225e+05 ;    C21 - O22   
  6685   6724   1    1.5080e-01    2.7472e+05 ;    C21 - C12   
  6687   6688   1    1.0920e-01    2.8225e+05 ;   H14T - C114  
  6688   6689   1    1.0920e-01    2.8225e+05 ;   C114 - H14R  
  6688   6690   1    1.0920e-01    2.8225e+05 ;   C114 - H14S  
  6688   6691   1    1.5350e-01    2.5363e+05 ;   C114 - C113  
  6691   6692   1    1.0920e-01    2.8225e+05 ;   C113 - H13R  
  6691   6693   1    1.0920e-01    2.8225e+05 ;   C113 - H13S  
  6691   6694   1    1.5350e-01    2.5363e+05 ;   C113 - C112  
  6694   6695   1    1.0920e-01    2.8225e+05 ;   C112 - H12R  
  6694   6696   1    1.0920e-01    2.8225e+05 ;   C112 - H12S  
  6694   6697   1    1.5350e-01    2.5363e+05 ;   C112 - C111  
  6697   6698   1    1.0920e-01    2.8225e+05 ;   C111 - H11R  
  6697   6699   1    1.0920e-01    2.8225e+05 ;   C111 - H11S  
  6697   6700   1    1.5350e-01    2.5363e+05 ;   C111 - C110  
  6700   6701   1    1.0920e-01    2.8225e+05 ;   C110 - H10R  
  6700   6702   1    1.0920e-01    2.8225e+05 ;   C110 - H10S  
  6700   6703   1    1.5350e-01    2.5363e+05 ;   C110 - C19   
  6703   6704   1    1.0920e-01    2.8225e+05 ;    C19 - H9R   
  6703   6705   1    1.0920e-01    2.8225e+05 ;    C19 - H9S   
  6703   6706   1    1.5350e-01    2.5363e+05 ;    C19 - C18   
  6706   6707   1    1.0920e-01    2.8225e+05 ;    C18 - H8R   
  6706   6708   1    1.0920e-01    2.8225e+05 ;    C18 - H8S   
  6706   6709   1    1.5350e-01    2.5363e+05 ;    C18 - C17   
  6709   6710   1    1.0920e-01    2.8225e+05 ;    C17 - H7R   
  6709   6711   1    1.0920e-01    2.8225e+05 ;    C17 - H7S   
  6709   6712   1    1.5350e-01    2.5363e+05 ;    C17 - C16   
  6712   6713   1    1.0920e-01    2.8225e+05 ;    C16 - H6R   
  6712   6714   1    1.0920e-01    2.8225e+05 ;    C16 - H6S   
  6712   6715   1    1.5350e-01    2.5363e+05 ;    C16 - C15   
  6715   6716   1    1.0920e-01    2.8225e+05 ;    C15 - H5R   
  6715   6717   1    1.0920e-01    2.8225e+05 ;    C15 - H5S   
  6715   6718   1    1.5350e-01    2.5363e+05 ;    C15 - C14   
  6718   6719   1    1.0920e-01    2.8225e+05 ;    C14 - H4R   
  6718   6720   1    1.0920e-01    2.8225e+05 ;    C14 - H4S   
  6718   6721   1    1.5350e-01    2.5363e+05 ;    C14 - C13   
  6721   6722   1    1.0920e-01    2.8225e+05 ;    C13 - H3R   
  6721   6723   1    1.0920e-01    2.8225e+05 ;    C13 - H3S   
  6721   6724   1    1.5350e-01    2.5363e+05 ;    C13 - C12   
  6724   6725   1    1.0920e-01    2.8225e+05 ;    C12 - H2R   
  6724   6726   1    1.0920e-01    2.8225e+05 ;    C12 - H2S   
  6727   6728   1    1.0920e-01    2.8225e+05 ;   H14T - C114  
  6728   6729   1    1.0920e-01    2.8225e+05 ;   C114 - H14R  
  6728   6730   1    1.0920e-01    2.8225e+05 ;   C114 - H14S  
  6728   6731   1    1.5350e-01    2.5363e+05 ;   C114 - C113  
  6731   6732   1    1.0920e-01    2.8225e+05 ;   C113 - H13R  
  6731   6733   1    1.0920e-01    2.8225e+05 ;   C113 - H13S  
  6731   6734   1    1.5350e-01    2.5363e+05 ;   C113 - C112  
  6734   6735   1    1.0920e-01    2.8225e+05 ;   C112 - H12R  
  6734   6736   1    1.0920e-01    2.8225e+05 ;   C112 - H12S  
  6734   6737   1    1.5350e-01    2.5363e+05 ;   C112 - C111  
  6737   6738   1    1.0920e-01    2.8225e+05 ;   C111 - H11R  
  6737   6739   1    1.0920e-01    2.8225e+05 ;   C111 - H11S  
  6737   6740   1    1.5350e-01    2.5363e+05 ;   C111 - C110  
  6740   6741   1    1.0920e-01    2.8225e+05 ;   C110 - H10R  
  6740   6742   1    1.0920e-01    2.8225e+05 ;   C110 - H10S  
  6740   6743   1    1.5350e-01    2.5363e+05 ;   C110 - C19   
  6743   6744   1    1.0920e-01    2.8225e+05 ;    C19 - H9R   
  6743   6745   1    1.0920e-01    2.8225e+05 ;    C19 - H9S   
  6743   6746   1    1.5350e-01    2.5363e+05 ;    C19 - C18   
  6746   6747   1    1.0920e-01    2.8225e+05 ;    C18 - H8R   
  6746   6748   1    1.0920e-01    2.8225e+05 ;    C18 - H8S   
  6746   6749   1    1.5350e-01    2.5363e+05 ;    C18 - C17   
  6749   6750   1    1.0920e-01    2.8225e+05 ;    C17 - H7R   
  6749   6751   1    1.0920e-01    2.8225e+05 ;    C17 - H7S   
  6749   6752   1    1.5350e-01    2.5363e+05 ;    C17 - C16   
  6752   6753   1    1.0920e-01    2.8225e+05 ;    C16 - H6R   
  6752   6754   1    1.0920e-01    2.8225e+05 ;    C16 - H6S   
  6752   6755   1    1.5350e-01    2.5363e+05 ;    C16 - C15   
  6755   6756   1    1.0920e-01    2.8225e+05 ;    C15 - H5R   
  6755   6757   1    1.0920e-01    2.8225e+05 ;    C15 - H5S   
  6755   6758   1    1.5350e-01    2.5363e+05 ;    C15 - C14   
  6758   6759   1    1.0920e-01    2.8225e+05 ;    C14 - H4R   
  6758   6760   1    1.0920e-01    2.8225e+05 ;    C14 - H4S   
  6758   6761   1    1.5350e-01    2.5363e+05 ;    C14 - C13   
  6761   6762   1    1.0920e-01    2.8225e+05 ;    C13 - H3R   
  6761   6763   1    1.0920e-01    2.8225e+05 ;    C13 - H3S   
  6761   6764   1    1.5350e-01    2.5363e+05 ;    C13 - C12   
  6764   6765   1    1.0920e-01    2.8225e+05 ;    C12 - H2R   
  6764   6766   1    1.0920e-01    2.8225e+05 ;    C12 - H2S   
  6764   6767   1    1.5080e-01    2.7472e+05 ;    C12 - C11   
  6767   6768   1    1.2140e-01    5.4225e+05 ;    C11 - O12   
  6767   6769   1    1.3430e-01    3.4418e+05 ;    C11 - O11   
  6769   6770   1    1.4390e-01    2.5230e+05 ;    O11 - C1    
  6770   6771   1    1.0930e-01    2.8108e+05 ;     C1 - HR    
  6770   6772   1    1.0930e-01    2.8108e+05 ;     C1 - HS    
  6770   6773   1    1.5350e-01    2.5363e+05 ;     C1 - C2    
  6773   6774   1    1.0930e-01    2.8108e+05 ;     C2 - HX    
  6773   6775   1    1.5350e-01    2.5363e+05 ;     C2 - C3    
  6773   6802   1    1.4390e-01    2.5230e+05 ;     C2 - O21   
  6775   6776   1    1.0930e-01    2.8108e+05 ;     C3 - HA    
  6775   6777   1    1.0930e-01    2.8108e+05 ;     C3 - HB    
  6775   6778   1    1.4390e-01    2.5230e+05 ;     C3 - O31   
  6778   6779   1    1.6100e-01    1.9246e+05 ;    O31 - P31   
  6779   6780   1    1.6100e-01    1.9246e+05 ;    P31 - O32   
  6779   6800   1    1.4800e-01    4.3932e+05 ;    P31 - O33   
  6779   6801   1    1.4800e-01    4.3932e+05 ;    P31 - O34   
  6780   6781   1    1.4390e-01    2.5230e+05 ;    O32 - C31   
  6781   6782   1    1.0930e-01    2.8108e+05 ;    C31 - H1A   
  6781   6783   1    1.0930e-01    2.8108e+05 ;    C31 - H1B   
  6781   6784   1    1.5350e-01    2.5363e+05 ;    C31 - C32   
  6784   6785   1    1.0910e-01    2.8342e+05 ;    C32 - H2A   
  6784   6786   1    1.0910e-01    2.8342e+05 ;    C32 - H2B   
  6784   6787   1    1.4990e-01    2.4568e+05 ;    C32 - N31   
  6787   6788   1    1.4990e-01    2.4568e+05 ;    N31 - C33   
  6787   6792   1    1.4990e-01    2.4568e+05 ;    N31 - C34   
  6787   6796   1    1.4990e-01    2.4568e+05 ;    N31 - C35   
  6788   6789   1    1.0910e-01    2.8342e+05 ;    C33 - H3A   
  6788   6790   1    1.0910e-01    2.8342e+05 ;    C33 - H3B   
  6788   6791   1    1.0910e-01    2.8342e+05 ;    C33 - H3C   
  6792   6793   1    1.0910e-01    2.8342e+05 ;    C34 - H4A   
  6792   6794   1    1.0910e-01    2.8342e+05 ;    C34 - H4B   
  6792   6795   1    1.0910e-01    2.8342e+05 ;    C34 - H4C   
  6796   6797   1    1.0910e-01    2.8342e+05 ;    C35 - H5A   
  6796   6798   1    1.0910e-01    2.8342e+05 ;    C35 - H5B   
  6796   6799   1    1.0910e-01    2.8342e+05 ;    C35 - H5C   
  6802   6803   1    1.3430e-01    3.4418e+05 ;    O21 - C21   
  6803   6804   1    1.2140e-01    5.4225e+05 ;    C21 - O22   
  6803   6842   1    1.5080e-01    2.7472e+05 ;    C21 - C12   
  6805   6806   1    1.0920e-01    2.8225e+05 ;   H14T - C114  
  6806   6807   1    1.0920e-01    2.8225e+05 ;   C114 - H14R  
  6806   6808   1    1.0920e-01    2.8225e+05 ;   C114 - H14S  
  6806   6809   1    1.5350e-01    2.5363e+05 ;   C114 - C113  
  6809   6810   1    1.0920e-01    2.8225e+05 ;   C113 - H13R  
  6809   6811   1    1.0920e-01    2.8225e+05 ;   C113 - H13S  
  6809   6812   1    1.5350e-01    2.5363e+05 ;   C113 - C112  
  6812   6813   1    1.0920e-01    2.8225e+05 ;   C112 - H12R  
  6812   6814   1    1.0920e-01    2.8225e+05 ;   C112 - H12S  
  6812   6815   1    1.5350e-01    2.5363e+05 ;   C112 - C111  
  6815   6816   1    1.0920e-01    2.8225e+05 ;   C111 - H11R  
  6815   6817   1    1.0920e-01    2.8225e+05 ;   C111 - H11S  
  6815   6818   1    1.5350e-01    2.5363e+05 ;   C111 - C110  
  6818   6819   1    1.0920e-01    2.8225e+05 ;   C110 - H10R  
  6818   6820   1    1.0920e-01    2.8225e+05 ;   C110 - H10S  
  6818   6821   1    1.5350e-01    2.5363e+05 ;   C110 - C19   
  6821   6822   1    1.0920e-01    2.8225e+05 ;    C19 - H9R   
  6821   6823   1    1.0920e-01    2.8225e+05 ;    C19 - H9S   
  6821   6824   1    1.5350e-01    2.5363e+05 ;    C19 - C18   
  6824   6825   1    1.0920e-01    2.8225e+05 ;    C18 - H8R   
  6824   6826   1    1.0920e-01    2.8225e+05 ;    C18 - H8S   
  6824   6827   1    1.5350e-01    2.5363e+05 ;    C18 - C17   
  6827   6828   1    1.0920e-01    2.8225e+05 ;    C17 - H7R   
  6827   6829   1    1.0920e-01    2.8225e+05 ;    C17 - H7S   
  6827   6830   1    1.5350e-01    2.5363e+05 ;    C17 - C16   
  6830   6831   1    1.0920e-01    2.8225e+05 ;    C16 - H6R   
  6830   6832   1    1.0920e-01    2.8225e+05 ;    C16 - H6S   
  6830   6833   1    1.5350e-01    2.5363e+05 ;    C16 - C15   
  6833   6834   1    1.0920e-01    2.8225e+05 ;    C15 - H5R   
  6833   6835   1    1.0920e-01    2.8225e+05 ;    C15 - H5S   
  6833   6836   1    1.5350e-01    2.5363e+05 ;    C15 - C14   
  6836   6837   1    1.0920e-01    2.8225e+05 ;    C14 - H4R   
  6836   6838   1    1.0920e-01    2.8225e+05 ;    C14 - H4S   
  6836   6839   1    1.5350e-01    2.5363e+05 ;    C14 - C13   
  6839   6840   1    1.0920e-01    2.8225e+05 ;    C13 - H3R   
  6839   6841   1    1.0920e-01    2.8225e+05 ;    C13 - H3S   
  6839   6842   1    1.5350e-01    2.5363e+05 ;    C13 - C12   
  6842   6843   1    1.0920e-01    2.8225e+05 ;    C12 - H2R   
  6842   6844   1    1.0920e-01    2.8225e+05 ;    C12 - H2S   
  6845   6846   1    1.0920e-01    2.8225e+05 ;   H14T - C114  
  6846   6847   1    1.0920e-01    2.8225e+05 ;   C114 - H14R  
  6846   6848   1    1.0920e-01    2.8225e+05 ;   C114 - H14S  
  6846   6849   1    1.5350e-01    2.5363e+05 ;   C114 - C113  
  6849   6850   1    1.0920e-01    2.8225e+05 ;   C113 - H13R  
  6849   6851   1    1.0920e-01    2.8225e+05 ;   C113 - H13S  
  6849   6852   1    1.5350e-01    2.5363e+05 ;   C113 - C112  
  6852   6853   1    1.0920e-01    2.8225e+05 ;   C112 - H12R  
  6852   6854   1    1.0920e-01    2.8225e+05 ;   C112 - H12S  
  6852   6855   1    1.5350e-01    2.5363e+05 ;   C112 - C111  
  6855   6856   1    1.0920e-01    2.8225e+05 ;   C111 - H11R  
  6855   6857   1    1.0920e-01    2.8225e+05 ;   C111 - H11S  
  6855   6858   1    1.5350e-01    2.5363e+05 ;   C111 - C110  
  6858   6859   1    1.0920e-01    2.8225e+05 ;   C110 - H10R  
  6858   6860   1    1.0920e-01    2.8225e+05 ;   C110 - H10S  
  6858   6861   1    1.5350e-01    2.5363e+05 ;   C110 - C19   
  6861   6862   1    1.0920e-01    2.8225e+05 ;    C19 - H9R   
  6861   6863   1    1.0920e-01    2.8225e+05 ;    C19 - H9S   
  6861   6864   1    1.5350e-01    2.5363e+05 ;    C19 - C18   
  6864   6865   1    1.0920e-01    2.8225e+05 ;    C18 - H8R   
  6864   6866   1    1.0920e-01    2.8225e+05 ;    C18 - H8S   
  6864   6867   1    1.5350e-01    2.5363e+05 ;    C18 - C17   
  6867   6868   1    1.0920e-01    2.8225e+05 ;    C17 - H7R   
  6867   6869   1    1.0920e-01    2.8225e+05 ;    C17 - H7S   
  6867   6870   1    1.5350e-01    2.5363e+05 ;    C17 - C16   
  6870   6871   1    1.0920e-01    2.8225e+05 ;    C16 - H6R   
  6870   6872   1    1.0920e-01    2.8225e+05 ;    C16 - H6S   
  6870   6873   1    1.5350e-01    2.5363e+05 ;    C16 - C15   
  6873   6874   1    1.0920e-01    2.8225e+05 ;    C15 - H5R   
  6873   6875   1    1.0920e-01    2.8225e+05 ;    C15 - H5S   
  6873   6876   1    1.5350e-01    2.5363e+05 ;    C15 - C14   
  6876   6877   1    1.0920e-01    2.8225e+05 ;    C14 - H4R   
  6876   6878   1    1.0920e-01    2.8225e+05 ;    C14 - H4S   
  6876   6879   1    1.5350e-01    2.5363e+05 ;    C14 - C13   
  6879   6880   1    1.0920e-01    2.8225e+05 ;    C13 - H3R   
  6879   6881   1    1.0920e-01    2.8225e+05 ;    C13 - H3S   
  6879   6882   1    1.5350e-01    2.5363e+05 ;    C13 - C12   
  6882   6883   1    1.0920e-01    2.8225e+05 ;    C12 - H2R   
  6882   6884   1    1.0920e-01    2.8225e+05 ;    C12 - H2S   
  6882   6885   1    1.5080e-01    2.7472e+05 ;    C12 - C11   
  6885   6886   1    1.2140e-01    5.4225e+05 ;    C11 - O12   
  6885   6887   1    1.3430e-01    3.4418e+05 ;    C11 - O11   
  6887   6888   1    1.4390e-01    2.5230e+05 ;    O11 - C1    
  6888   6889   1    1.0930e-01    2.8108e+05 ;     C1 - HR    
  6888   6890   1    1.0930e-01    2.8108e+05 ;     C1 - HS    
  6888   6891   1    1.5350e-01    2.5363e+05 ;     C1 - C2    
  6891   6892   1    1.0930e-01    2.8108e+05 ;     C2 - HX    
  6891   6893   1    1.5350e-01    2.5363e+05 ;     C2 - C3    
  6891   6920   1    1.4390e-01    2.5230e+05 ;     C2 - O21   
  6893   6894   1    1.0930e-01    2.8108e+05 ;     C3 - HA    
  6893   6895   1    1.0930e-01    2.8108e+05 ;     C3 - HB    
  6893   6896   1    1.4390e-01    2.5230e+05 ;     C3 - O31   
  6896   6897   1    1.6100e-01    1.9246e+05 ;    O31 - P31   
  6897   6898   1    1.6100e-01    1.9246e+05 ;    P31 - O32   
  6897   6918   1    1.4800e-01    4.3932e+05 ;    P31 - O33   
  6897   6919   1    1.4800e-01    4.3932e+05 ;    P31 - O34   
  6898   6899   1    1.4390e-01    2.5230e+05 ;    O32 - C31   
  6899   6900   1    1.0930e-01    2.8108e+05 ;    C31 - H1A   
  6899   6901   1    1.0930e-01    2.8108e+05 ;    C31 - H1B   
  6899   6902   1    1.5350e-01    2.5363e+05 ;    C31 - C32   
  6902   6903   1    1.0910e-01    2.8342e+05 ;    C32 - H2A   
  6902   6904   1    1.0910e-01    2.8342e+05 ;    C32 - H2B   
  6902   6905   1    1.4990e-01    2.4568e+05 ;    C32 - N31   
  6905   6906   1    1.4990e-01    2.4568e+05 ;    N31 - C33   
  6905   6910   1    1.4990e-01    2.4568e+05 ;    N31 - C34   
  6905   6914   1    1.4990e-01    2.4568e+05 ;    N31 - C35   
  6906   6907   1    1.0910e-01    2.8342e+05 ;    C33 - H3A   
  6906   6908   1    1.0910e-01    2.8342e+05 ;    C33 - H3B   
  6906   6909   1    1.0910e-01    2.8342e+05 ;    C33 - H3C   
  6910   6911   1    1.0910e-01    2.8342e+05 ;    C34 - H4A   
  6910   6912   1    1.0910e-01    2.8342e+05 ;    C34 - H4B   
  6910   6913   1    1.0910e-01    2.8342e+05 ;    C34 - H4C   
  6914   6915   1    1.0910e-01    2.8342e+05 ;    C35 - H5A   
  6914   6916   1    1.0910e-01    2.8342e+05 ;    C35 - H5B   
  6914   6917   1    1.0910e-01    2.8342e+05 ;    C35 - H5C   
  6920   6921   1    1.3430e-01    3.4418e+05 ;    O21 - C21   
  6921   6922   1    1.2140e-01    5.4225e+05 ;    C21 - O22   
  6921   6960   1    1.5080e-01    2.7472e+05 ;    C21 - C12   
  6923   6924   1    1.0920e-01    2.8225e+05 ;   H14T - C114  
  6924   6925   1    1.0920e-01    2.8225e+05 ;   C114 - H14R  
  6924   6926   1    1.0920e-01    2.8225e+05 ;   C114 - H14S  
  6924   6927   1    1.5350e-01    2.5363e+05 ;   C114 - C113  
  6927   6928   1    1.0920e-01    2.8225e+05 ;   C113 - H13R  
  6927   6929   1    1.0920e-01    2.8225e+05 ;   C113 - H13S  
  6927   6930   1    1.5350e-01    2.5363e+05 ;   C113 - C112  
  6930   6931   1    1.0920e-01    2.8225e+05 ;   C112 - H12R  
  6930   6932   1    1.0920e-01    2.8225e+05 ;   C112 - H12S  
  6930   6933   1    1.5350e-01    2.5363e+05 ;   C112 - C111  
  6933   6934   1    1.0920e-01    2.8225e+05 ;   C111 - H11R  
  6933   6935   1    1.0920e-01    2.8225e+05 ;   C111 - H11S  
  6933   6936   1    1.5350e-01    2.5363e+05 ;   C111 - C110  
  6936   6937   1    1.0920e-01    2.8225e+05 ;   C110 - H10R  
  6936   6938   1    1.0920e-01    2.8225e+05 ;   C110 - H10S  
  6936   6939   1    1.5350e-01    2.5363e+05 ;   C110 - C19   
  6939   6940   1    1.0920e-01    2.8225e+05 ;    C19 - H9R   
  6939   6941   1    1.0920e-01    2.8225e+05 ;    C19 - H9S   
  6939   6942   1    1.5350e-01    2.5363e+05 ;    C19 - C18   
  6942   6943   1    1.0920e-01    2.8225e+05 ;    C18 - H8R   
  6942   6944   1    1.0920e-01    2.8225e+05 ;    C18 - H8S   
  6942   6945   1    1.5350e-01    2.5363e+05 ;    C18 - C17   
  6945   6946   1    1.0920e-01    2.8225e+05 ;    C17 - H7R   
  6945   6947   1    1.0920e-01    2.8225e+05 ;    C17 - H7S   
  6945   6948   1    1.5350e-01    2.5363e+05 ;    C17 - C16   
  6948   6949   1    1.0920e-01    2.8225e+05 ;    C16 - H6R   
  6948   6950   1    1.0920e-01    2.8225e+05 ;    C16 - H6S   
  6948   6951   1    1.5350e-01    2.5363e+05 ;    C16 - C15   
  6951   6952   1    1.0920e-01    2.8225e+05 ;    C15 - H5R   
  6951   6953   1    1.0920e-01    2.8225e+05 ;    C15 - H5S   
  6951   6954   1    1.5350e-01    2.5363e+05 ;    C15 - C14   
  6954   6955   1    1.0920e-01    2.8225e+05 ;    C14 - H4R   
  6954   6956   1    1.0920e-01    2.8225e+05 ;    C14 - H4S   
  6954   6957   1    1.5350e-01    2.5363e+05 ;    C14 - C13   
  6957   6958   1    1.0920e-01    2.8225e+05 ;    C13 - H3R   
  6957   6959   1    1.0920e-01    2.8225e+05 ;    C13 - H3S   
  6957   6960   1    1.5350e-01    2.5363e+05 ;    C13 - C12   
  6960   6961   1    1.0920e-01    2.8225e+05 ;    C12 - H2R   
  6960   6962   1    1.0920e-01    2.8225e+05 ;    C12 - H2S   
  6963   6964   1    1.0920e-01    2.8225e+05 ;   H14T - C114  
  6964   6965   1    1.0920e-01    2.8225e+05 ;   C114 - H14R  
  6964   6966   1    1.0920e-01    2.8225e+05 ;   C114 - H14S  
  6964   6967   1    1.5350e-01    2.5363e+05 ;   C114 - C113  
  6967   6968   1    1.0920e-01    2.8225e+05 ;   C113 - H13R  
  6967   6969   1    1.0920e-01    2.8225e+05 ;   C113 - H13S  
  6967   6970   1    1.5350e-01    2.5363e+05 ;   C113 - C112  
  6970   6971   1    1.0920e-01    2.8225e+05 ;   C112 - H12R  
  6970   6972   1    1.0920e-01    2.8225e+05 ;   C112 - H12S  
  6970   6973   1    1.5350e-01    2.5363e+05 ;   C112 - C111  
  6973   6974   1    1.0920e-01    2.8225e+05 ;   C111 - H11R  
  6973   6975   1    1.0920e-01    2.8225e+05 ;   C111 - H11S  
  6973   6976   1    1.5350e-01    2.5363e+05 ;   C111 - C110  
  6976   6977   1    1.0920e-01    2.8225e+05 ;   C110 - H10R  
  6976   6978   1    1.0920e-01    2.8225e+05 ;   C110 - H10S  
  6976   6979   1    1.5350e-01    2.5363e+05 ;   C110 - C19   
  6979   6980   1    1.0920e-01    2.8225e+05 ;    C19 - H9R   
  6979   6981   1    1.0920e-01    2.8225e+05 ;    C19 - H9S   
  6979   6982   1    1.5350e-01    2.5363e+05 ;    C19 - C18   
  6982   6983   1    1.0920e-01    2.8225e+05 ;    C18 - H8R   
  6982   6984   1    1.0920e-01    2.8225e+05 ;    C18 - H8S   
  6982   6985   1    1.5350e-01    2.5363e+05 ;    C18 - C17   
  6985   6986   1    1.0920e-01    2.8225e+05 ;    C17 - H7R   
  6985   6987   1    1.0920e-01    2.8225e+05 ;    C17 - H7S   
  6985   6988   1    1.5350e-01    2.5363e+05 ;    C17 - C16   
  6988   6989   1    1.0920e-01    2.8225e+05 ;    C16 - H6R   
  6988   6990   1    1.0920e-01    2.8225e+05 ;    C16 - H6S   
  6988   6991   1    1.5350e-01    2.5363e+05 ;    C16 - C15   
  6991   6992   1    1.0920e-01    2.8225e+05 ;    C15 - H5R   
  6991   6993   1    1.0920e-01    2.8225e+05 ;    C15 - H5S   
  6991   6994   1    1.5350e-01    2.5363e+05 ;    C15 - C14   
  6994   6995   1    1.0920e-01    2.8225e+05 ;    C14 - H4R   
  6994   6996   1    1.0920e-01    2.8225e+05 ;    C14 - H4S   
  6994   6997   1    1.5350e-01    2.5363e+05 ;    C14 - C13   
  6997   6998   1    1.0920e-01    2.8225e+05 ;    C13 - H3R   
  6997   6999   1    1.0920e-01    2.8225e+05 ;    C13 - H3S   
  6997   7000   1    1.5350e-01    2.5363e+05 ;    C13 - C12   
  7000   7001   1    1.0920e-01    2.8225e+05 ;    C12 - H2R   
  7000   7002   1    1.0920e-01    2.8225e+05 ;    C12 - H2S   
  7000   7003   1    1.5080e-01    2.7472e+05 ;    C12 - C11   
  7003   7004   1    1.2140e-01    5.4225e+05 ;    C11 - O12   
  7003   7005   1    1.3430e-01    3.4418e+05 ;    C11 - O11   
  7005   7006   1    1.4390e-01    2.5230e+05 ;    O11 - C1    
  7006   7007   1    1.0930e-01    2.8108e+05 ;     C1 - HR    
  7006   7008   1    1.0930e-01    2.8108e+05 ;     C1 - HS    
  7006   7009   1    1.5350e-01    2.5363e+05 ;     C1 - C2    
  7009   7010   1    1.0930e-01    2.8108e+05 ;     C2 - HX    
  7009   7011   1    1.5350e-01    2.5363e+05 ;     C2 - C3    
  7009   7038   1    1.4390e-01    2.5230e+05 ;     C2 - O21   
  7011   7012   1    1.0930e-01    2.8108e+05 ;     C3 - HA    
  7011   7013   1    1.0930e-01    2.8108e+05 ;     C3 - HB    
  7011   7014   1    1.4390e-01    2.5230e+05 ;     C3 - O31   
  7014   7015   1    1.6100e-01    1.9246e+05 ;    O31 - P31   
  7015   7016   1    1.6100e-01    1.9246e+05 ;    P31 - O32   
  7015   7036   1    1.4800e-01    4.3932e+05 ;    P31 - O33   
  7015   7037   1    1.4800e-01    4.3932e+05 ;    P31 - O34   
  7016   7017   1    1.4390e-01    2.5230e+05 ;    O32 - C31   
  7017   7018   1    1.0930e-01    2.8108e+05 ;    C31 - H1A   
  7017   7019   1    1.0930e-01    2.8108e+05 ;    C31 - H1B   
  7017   7020   1    1.5350e-01    2.5363e+05 ;    C31 - C32   
  7020   7021   1    1.0910e-01    2.8342e+05 ;    C32 - H2A   
  7020   7022   1    1.0910e-01    2.8342e+05 ;    C32 - H2B   
  7020   7023   1    1.4990e-01    2.4568e+05 ;    C32 - N31   
  7023   7024   1    1.4990e-01    2.4568e+05 ;    N31 - C33   
  7023   7028   1    1.4990e-01    2.4568e+05 ;    N31 - C34   
  7023   7032   1    1.4990e-01    2.4568e+05 ;    N31 - C35   
  7024   7025   1    1.0910e-01    2.8342e+05 ;    C33 - H3A   
  7024   7026   1    1.0910e-01    2.8342e+05 ;    C33 - H3B   
  7024   7027   1    1.0910e-01    2.8342e+05 ;    C33 - H3C   
  7028   7029   1    1.0910e-01    2.8342e+05 ;    C34 - H4A   
  7028   7030   1    1.0910e-01    2.8342e+05 ;    C34 - H4B   
  7028   7031   1    1.0910e-01    2.8342e+05 ;    C34 - H4C   
  7032   7033   1    1.0910e-01    2.8342e+05 ;    C35 - H5A   
  7032   7034   1    1.0910e-01    2.8342e+05 ;    C35 - H5B   
  7032   7035   1    1.0910e-01    2.8342e+05 ;    C35 - H5C   
  7038   7039   1    1.3430e-01    3.4418e+05 ;    O21 - C21   
  7039   7040   1    1.2140e-01    5.4225e+05 ;    C21 - O22   
  7039   7078   1    1.5080e-01    2.7472e+05 ;    C21 - C12   
  7041   7042   1    1.0920e-01    2.8225e+05 ;   H14T - C114  
  7042   7043   1    1.0920e-01    2.8225e+05 ;   C114 - H14R  
  7042   7044   1    1.0920e-01    2.8225e+05 ;   C114 - H14S  
  7042   7045   1    1.5350e-01    2.5363e+05 ;   C114 - C113  
  7045   7046   1    1.0920e-01    2.8225e+05 ;   C113 - H13R  
  7045   7047   1    1.0920e-01    2.8225e+05 ;   C113 - H13S  
  7045   7048   1    1.5350e-01    2.5363e+05 ;   C113 - C112  
  7048   7049   1    1.0920e-01    2.8225e+05 ;   C112 - H12R  
  7048   7050   1    1.0920e-01    2.8225e+05 ;   C112 - H12S  
  7048   7051   1    1.5350e-01    2.5363e+05 ;   C112 - C111  
  7051   7052   1    1.0920e-01    2.8225e+05 ;   C111 - H11R  
  7051   7053   1    1.0920e-01    2.8225e+05 ;   C111 - H11S  
  7051   7054   1    1.5350e-01    2.5363e+05 ;   C111 - C110  
  7054   7055   1    1.0920e-01    2.8225e+05 ;   C110 - H10R  
  7054   7056   1    1.0920e-01    2.8225e+05 ;   C110 - H10S  
  7054   7057   1    1.5350e-01    2.5363e+05 ;   C110 - C19   
  7057   7058   1    1.0920e-01    2.8225e+05 ;    C19 - H9R   
  7057   7059   1    1.0920e-01    2.8225e+05 ;    C19 - H9S   
  7057   7060   1    1.5350e-01    2.5363e+05 ;    C19 - C18   
  7060   7061   1    1.0920e-01    2.8225e+05 ;    C18 - H8R   
  7060   7062   1    1.0920e-01    2.8225e+05 ;    C18 - H8S   
  7060   7063   1    1.5350e-01    2.5363e+05 ;    C18 - C17   
  7063   7064   1    1.0920e-01    2.8225e+05 ;    C17 - H7R   
  7063   7065   1    1.0920e-01    2.8225e+05 ;    C17 - H7S   
  7063   7066   1    1.5350e-01    2.5363e+05 ;    C17 - C16   
  7066   7067   1    1.0920e-01    2.8225e+05 ;    C16 - H6R   
  7066   7068   1    1.0920e-01    2.8225e+05 ;    C16 - H6S   
  7066   7069   1    1.5350e-01    2.5363e+05 ;    C16 - C15   
  7069   7070   1    1.0920e-01    2.8225e+05 ;    C15 - H5R   
  7069   7071   1    1.0920e-01    2.8225e+05 ;    C15 - H5S   
  7069   7072   1    1.5350e-01    2.5363e+05 ;    C15 - C14   
  7072   7073   1    1.0920e-01    2.8225e+05 ;    C14 - H4R   
  7072   7074   1    1.0920e-01    2.8225e+05 ;    C14 - H4S   
  7072   7075   1    1.5350e-01    2.5363e+05 ;    C14 - C13   
  7075   7076   1    1.0920e-01    2.8225e+05 ;    C13 - H3R   
  7075   7077   1    1.0920e-01    2.8225e+05 ;    C13 - H3S   
  7075   7078   1    1.5350e-01    2.5363e+05 ;    C13 - C12   
  7078   7079   1    1.0920e-01    2.8225e+05 ;    C12 - H2R   
  7078   7080   1    1.0920e-01    2.8225e+05 ;    C12 - H2S   
  7081   7082   1    1.0920e-01    2.8225e+05 ;   H14T - C114  
  7082   7083   1    1.0920e-01    2.8225e+05 ;   C114 - H14R  
  7082   7084   1    1.0920e-01    2.8225e+05 ;   C114 - H14S  
  7082   7085   1    1.5350e-01    2.5363e+05 ;   C114 - C113  
  7085   7086   1    1.0920e-01    2.8225e+05 ;   C113 - H13R  
  7085   7087   1    1.0920e-01    2.8225e+05 ;   C113 - H13S  
  7085   7088   1    1.5350e-01    2.5363e+05 ;   C113 - C112  
  7088   7089   1    1.0920e-01    2.8225e+05 ;   C112 - H12R  
  7088   7090   1    1.0920e-01    2.8225e+05 ;   C112 - H12S  
  7088   7091   1    1.5350e-01    2.5363e+05 ;   C112 - C111  
  7091   7092   1    1.0920e-01    2.8225e+05 ;   C111 - H11R  
  7091   7093   1    1.0920e-01    2.8225e+05 ;   C111 - H11S  
  7091   7094   1    1.5350e-01    2.5363e+05 ;   C111 - C110  
  7094   7095   1    1.0920e-01    2.8225e+05 ;   C110 - H10R  
  7094   7096   1    1.0920e-01    2.8225e+05 ;   C110 - H10S  
  7094   7097   1    1.5350e-01    2.5363e+05 ;   C110 - C19   
  7097   7098   1    1.0920e-01    2.8225e+05 ;    C19 - H9R   
  7097   7099   1    1.0920e-01    2.8225e+05 ;    C19 - H9S   
  7097   7100   1    1.5350e-01    2.5363e+05 ;    C19 - C18   
  7100   7101   1    1.0920e-01    2.8225e+05 ;    C18 - H8R   
  7100   7102   1    1.0920e-01    2.8225e+05 ;    C18 - H8S   
  7100   7103   1    1.5350e-01    2.5363e+05 ;    C18 - C17   
  7103   7104   1    1.0920e-01    2.8225e+05 ;    C17 - H7R   
  7103   7105   1    1.0920e-01    2.8225e+05 ;    C17 - H7S   
  7103   7106   1    1.5350e-01    2.5363e+05 ;    C17 - C16   
  7106   7107   1    1.0920e-01    2.8225e+05 ;    C16 - H6R   
  7106   7108   1    1.0920e-01    2.8225e+05 ;    C16 - H6S   
  7106   7109   1    1.5350e-01    2.5363e+05 ;    C16 - C15   
  7109   7110   1    1.0920e-01    2.8225e+05 ;    C15 - H5R   
  7109   7111   1    1.0920e-01    2.8225e+05 ;    C15 - H5S   
  7109   7112   1    1.5350e-01    2.5363e+05 ;    C15 - C14   
  7112   7113   1    1.0920e-01    2.8225e+05 ;    C14 - H4R   
  7112   7114   1    1.0920e-01    2.8225e+05 ;    C14 - H4S   
  7112   7115   1    1.5350e-01    2.5363e+05 ;    C14 - C13   
  7115   7116   1    1.0920e-01    2.8225e+05 ;    C13 - H3R   
  7115   7117   1    1.0920e-01    2.8225e+05 ;    C13 - H3S   
  7115   7118   1    1.5350e-01    2.5363e+05 ;    C13 - C12   
  7118   7119   1    1.0920e-01    2.8225e+05 ;    C12 - H2R   
  7118   7120   1    1.0920e-01    2.8225e+05 ;    C12 - H2S   
  7118   7121   1    1.5080e-01    2.7472e+05 ;    C12 - C11   
  7121   7122   1    1.2140e-01    5.4225e+05 ;    C11 - O12   
  7121   7123   1    1.3430e-01    3.4418e+05 ;    C11 - O11   
  7123   7124   1    1.4390e-01    2.5230e+05 ;    O11 - C1    
  7124   7125   1    1.0930e-01    2.8108e+05 ;     C1 - HR    
  7124   7126   1    1.0930e-01    2.8108e+05 ;     C1 - HS    
  7124   7127   1    1.5350e-01    2.5363e+05 ;     C1 - C2    
  7127   7128   1    1.0930e-01    2.8108e+05 ;     C2 - HX    
  7127   7129   1    1.5350e-01    2.5363e+05 ;     C2 - C3    
  7127   7156   1    1.4390e-01    2.5230e+05 ;     C2 - O21   
  7129   7130   1    1.0930e-01    2.8108e+05 ;     C3 - HA    
  7129   7131   1    1.0930e-01    2.8108e+05 ;     C3 - HB    
  7129   7132   1    1.4390e-01    2.5230e+05 ;     C3 - O31   
  7132   7133   1    1.6100e-01    1.9246e+05 ;    O31 - P31   
  7133   7134   1    1.6100e-01    1.9246e+05 ;    P31 - O32   
  7133   7154   1    1.4800e-01    4.3932e+05 ;    P31 - O33   
  7133   7155   1    1.4800e-01    4.3932e+05 ;    P31 - O34   
  7134   7135   1    1.4390e-01    2.5230e+05 ;    O32 - C31   
  7135   7136   1    1.0930e-01    2.8108e+05 ;    C31 - H1A   
  7135   7137   1    1.0930e-01    2.8108e+05 ;    C31 - H1B   
  7135   7138   1    1.5350e-01    2.5363e+05 ;    C31 - C32   
  7138   7139   1    1.0910e-01    2.8342e+05 ;    C32 - H2A   
  7138   7140   1    1.0910e-01    2.8342e+05 ;    C32 - H2B   
  7138   7141   1    1.4990e-01    2.4568e+05 ;    C32 - N31   
  7141   7142   1    1.4990e-01    2.4568e+05 ;    N31 - C33   
  7141   7146   1    1.4990e-01    2.4568e+05 ;    N31 - C34   
  7141   7150   1    1.4990e-01    2.4568e+05 ;    N31 - C35   
  7142   7143   1    1.0910e-01    2.8342e+05 ;    C33 - H3A   
  7142   7144   1    1.0910e-01    2.8342e+05 ;    C33 - H3B   
  7142   7145   1    1.0910e-01    2.8342e+05 ;    C33 - H3C   
  7146   7147   1    1.0910e-01    2.8342e+05 ;    C34 - H4A   
  7146   7148   1    1.0910e-01    2.8342e+05 ;    C34 - H4B   
  7146   7149   1    1.0910e-01    2.8342e+05 ;    C34 - H4C   
  7150   7151   1    1.0910e-01    2.8342e+05 ;    C35 - H5A   
  7150   7152   1    1.0910e-01    2.8342e+05 ;    C35 - H5B   
  7150   7153   1    1.0910e-01    2.8342e+05 ;    C35 - H5C   
  7156   7157   1    1.3430e-01    3.4418e+05 ;    O21 - C21   
  7157   7158   1    1.2140e-01    5.4225e+05 ;    C21 - O22   
  7157   7196   1    1.5080e-01    2.7472e+05 ;    C21 - C12   
  7159   7160   1    1.0920e-01    2.8225e+05 ;   H14T - C114  
  7160   7161   1    1.0920e-01    2.8225e+05 ;   C114 - H14R  
  7160   7162   1    1.0920e-01    2.8225e+05 ;   C114 - H14S  
  7160   7163   1    1.5350e-01    2.5363e+05 ;   C114 - C113  
  7163   7164   1    1.0920e-01    2.8225e+05 ;   C113 - H13R  
  7163   7165   1    1.0920e-01    2.8225e+05 ;   C113 - H13S  
  7163   7166   1    1.5350e-01    2.5363e+05 ;   C113 - C112  
  7166   7167   1    1.0920e-01    2.8225e+05 ;   C112 - H12R  
  7166   7168   1    1.0920e-01    2.8225e+05 ;   C112 - H12S  
  7166   7169   1    1.5350e-01    2.5363e+05 ;   C112 - C111  
  7169   7170   1    1.0920e-01    2.8225e+05 ;   C111 - H11R  
  7169   7171   1    1.0920e-01    2.8225e+05 ;   C111 - H11S  
  7169   7172   1    1.5350e-01    2.5363e+05 ;   C111 - C110  
  7172   7173   1    1.0920e-01    2.8225e+05 ;   C110 - H10R  
  7172   7174   1    1.0920e-01    2.8225e+05 ;   C110 - H10S  
  7172   7175   1    1.5350e-01    2.5363e+05 ;   C110 - C19   
  7175   7176   1    1.0920e-01    2.8225e+05 ;    C19 - H9R   
  7175   7177   1    1.0920e-01    2.8225e+05 ;    C19 - H9S   
  7175   7178   1    1.5350e-01    2.5363e+05 ;    C19 - C18   
  7178   7179   1    1.0920e-01    2.8225e+05 ;    C18 - H8R   
  7178   7180   1    1.0920e-01    2.8225e+05 ;    C18 - H8S   
  7178   7181   1    1.5350e-01    2.5363e+05 ;    C18 - C17   
  7181   7182   1    1.0920e-01    2.8225e+05 ;    C17 - H7R   
  7181   7183   1    1.0920e-01    2.8225e+05 ;    C17 - H7S   
  7181   7184   1    1.5350e-01    2.5363e+05 ;    C17 - C16   
  7184   7185   1    1.0920e-01    2.8225e+05 ;    C16 - H6R   
  7184   7186   1    1.0920e-01    2.8225e+05 ;    C16 - H6S   
  7184   7187   1    1.5350e-01    2.5363e+05 ;    C16 - C15   
  7187   7188   1    1.0920e-01    2.8225e+05 ;    C15 - H5R   
  7187   7189   1    1.0920e-01    2.8225e+05 ;    C15 - H5S   
  7187   7190   1    1.5350e-01    2.5363e+05 ;    C15 - C14   
  7190   7191   1    1.0920e-01    2.8225e+05 ;    C14 - H4R   
  7190   7192   1    1.0920e-01    2.8225e+05 ;    C14 - H4S   
  7190   7193   1    1.5350e-01    2.5363e+05 ;    C14 - C13   
  7193   7194   1    1.0920e-01    2.8225e+05 ;    C13 - H3R   
  7193   7195   1    1.0920e-01    2.8225e+05 ;    C13 - H3S   
  7193   7196   1    1.5350e-01    2.5363e+05 ;    C13 - C12   
  7196   7197   1    1.0920e-01    2.8225e+05 ;    C12 - H2R   
  7196   7198   1    1.0920e-01    2.8225e+05 ;    C12 - H2S   
  7199   7200   1    1.0920e-01    2.8225e+05 ;   H14T - C114  
  7200   7201   1    1.0920e-01    2.8225e+05 ;   C114 - H14R  
  7200   7202   1    1.0920e-01    2.8225e+05 ;   C114 - H14S  
  7200   7203   1    1.5350e-01    2.5363e+05 ;   C114 - C113  
  7203   7204   1    1.0920e-01    2.8225e+05 ;   C113 - H13R  
  7203   7205   1    1.0920e-01    2.8225e+05 ;   C113 - H13S  
  7203   7206   1    1.5350e-01    2.5363e+05 ;   C113 - C112  
  7206   7207   1    1.0920e-01    2.8225e+05 ;   C112 - H12R  
  7206   7208   1    1.0920e-01    2.8225e+05 ;   C112 - H12S  
  7206   7209   1    1.5350e-01    2.5363e+05 ;   C112 - C111  
  7209   7210   1    1.0920e-01    2.8225e+05 ;   C111 - H11R  
  7209   7211   1    1.0920e-01    2.8225e+05 ;   C111 - H11S  
  7209   7212   1    1.5350e-01    2.5363e+05 ;   C111 - C110  
  7212   7213   1    1.0920e-01    2.8225e+05 ;   C110 - H10R  
  7212   7214   1    1.0920e-01    2.8225e+05 ;   C110 - H10S  
  7212   7215   1    1.5350e-01    2.5363e+05 ;   C110 - C19   
  7215   7216   1    1.0920e-01    2.8225e+05 ;    C19 - H9R   
  7215   7217   1    1.0920e-01    2.8225e+05 ;    C19 - H9S   
  7215   7218   1    1.5350e-01    2.5363e+05 ;    C19 - C18   
  7218   7219   1    1.0920e-01    2.8225e+05 ;    C18 - H8R   
  7218   7220   1    1.0920e-01    2.8225e+05 ;    C18 - H8S   
  7218   7221   1    1.5350e-01    2.5363e+05 ;    C18 - C17   
  7221   7222   1    1.0920e-01    2.8225e+05 ;    C17 - H7R   
  7221   7223   1    1.0920e-01    2.8225e+05 ;    C17 - H7S   
  7221   7224   1    1.5350e-01    2.5363e+05 ;    C17 - C16   
  7224   7225   1    1.0920e-01    2.8225e+05 ;    C16 - H6R   
  7224   7226   1    1.0920e-01    2.8225e+05 ;    C16 - H6S   
  7224   7227   1    1.5350e-01    2.5363e+05 ;    C16 - C15   
  7227   7228   1    1.0920e-01    2.8225e+05 ;    C15 - H5R   
  7227   7229   1    1.0920e-01    2.8225e+05 ;    C15 - H5S   
  7227   7230   1    1.5350e-01    2.5363e+05 ;    C15 - C14   
  7230   7231   1    1.0920e-01    2.8225e+05 ;    C14 - H4R   
  7230   7232   1    1.0920e-01    2.8225e+05 ;    C14 - H4S   
  7230   7233   1    1.5350e-01    2.5363e+05 ;    C14 - C13   
  7233   7234   1    1.0920e-01    2.8225e+05 ;    C13 - H3R   
  7233   7235   1    1.0920e-01    2.8225e+05 ;    C13 - H3S   
  7233   7236   1    1.5350e-01    2.5363e+05 ;    C13 - C12   
  7236   7237   1    1.0920e-01    2.8225e+05 ;    C12 - H2R   
  7236   7238   1    1.0920e-01    2.8225e+05 ;    C12 - H2S   
  7236   7239   1    1.5080e-01    2.7472e+05 ;    C12 - C11   
  7239   7240   1    1.2140e-01    5.4225e+05 ;    C11 - O12   
  7239   7241   1    1.3430e-01    3.4418e+05 ;    C11 - O11   
  7241   7242   1    1.4390e-01    2.5230e+05 ;    O11 - C1    
  7242   7243   1    1.0930e-01    2.8108e+05 ;     C1 - HR    
  7242   7244   1    1.0930e-01    2.8108e+05 ;     C1 - HS    
  7242   7245   1    1.5350e-01    2.5363e+05 ;     C1 - C2    
  7245   7246   1    1.0930e-01    2.8108e+05 ;     C2 - HX    
  7245   7247   1    1.5350e-01    2.5363e+05 ;     C2 - C3    
  7245   7274   1    1.4390e-01    2.5230e+05 ;     C2 - O21   
  7247   7248   1    1.0930e-01    2.8108e+05 ;     C3 - HA    
  7247   7249   1    1.0930e-01    2.8108e+05 ;     C3 - HB    
  7247   7250   1    1.4390e-01    2.5230e+05 ;     C3 - O31   
  7250   7251   1    1.6100e-01    1.9246e+05 ;    O31 - P31   
  7251   7252   1    1.6100e-01    1.9246e+05 ;    P31 - O32   
  7251   7272   1    1.4800e-01    4.3932e+05 ;    P31 - O33   
  7251   7273   1    1.4800e-01    4.3932e+05 ;    P31 - O34   
  7252   7253   1    1.4390e-01    2.5230e+05 ;    O32 - C31   
  7253   7254   1    1.0930e-01    2.8108e+05 ;    C31 - H1A   
  7253   7255   1    1.0930e-01    2.8108e+05 ;    C31 - H1B   
  7253   7256   1    1.5350e-01    2.5363e+05 ;    C31 - C32   
  7256   7257   1    1.0910e-01    2.8342e+05 ;    C32 - H2A   
  7256   7258   1    1.0910e-01    2.8342e+05 ;    C32 - H2B   
  7256   7259   1    1.4990e-01    2.4568e+05 ;    C32 - N31   
  7259   7260   1    1.4990e-01    2.4568e+05 ;    N31 - C33   
  7259   7264   1    1.4990e-01    2.4568e+05 ;    N31 - C34   
  7259   7268   1    1.4990e-01    2.4568e+05 ;    N31 - C35   
  7260   7261   1    1.0910e-01    2.8342e+05 ;    C33 - H3A   
  7260   7262   1    1.0910e-01    2.8342e+05 ;    C33 - H3B   
  7260   7263   1    1.0910e-01    2.8342e+05 ;    C33 - H3C   
  7264   7265   1    1.0910e-01    2.8342e+05 ;    C34 - H4A   
  7264   7266   1    1.0910e-01    2.8342e+05 ;    C34 - H4B   
  7264   7267   1    1.0910e-01    2.8342e+05 ;    C34 - H4C   
  7268   7269   1    1.0910e-01    2.8342e+05 ;    C35 - H5A   
  7268   7270   1    1.0910e-01    2.8342e+05 ;    C35 - H5B   
  7268   7271   1    1.0910e-01    2.8342e+05 ;    C35 - H5C   
  7274   7275   1    1.3430e-01    3.4418e+05 ;    O21 - C21   
  7275   7276   1    1.2140e-01    5.4225e+05 ;    C21 - O22   
  7275   7314   1    1.5080e-01    2.7472e+05 ;    C21 - C12   
  7277   7278   1    1.0920e-01    2.8225e+05 ;   H14T - C114  
  7278   7279   1    1.0920e-01    2.8225e+05 ;   C114 - H14R  
  7278   7280   1    1.0920e-01    2.8225e+05 ;   C114 - H14S  
  7278   7281   1    1.5350e-01    2.5363e+05 ;   C114 - C113  
  7281   7282   1    1.0920e-01    2.8225e+05 ;   C113 - H13R  
  7281   7283   1    1.0920e-01    2.8225e+05 ;   C113 - H13S  
  7281   7284   1    1.5350e-01    2.5363e+05 ;   C113 - C112  
  7284   7285   1    1.0920e-01    2.8225e+05 ;   C112 - H12R  
  7284   7286   1    1.0920e-01    2.8225e+05 ;   C112 - H12S  
  7284   7287   1    1.5350e-01    2.5363e+05 ;   C112 - C111  
  7287   7288   1    1.0920e-01    2.8225e+05 ;   C111 - H11R  
  7287   7289   1    1.0920e-01    2.8225e+05 ;   C111 - H11S  
  7287   7290   1    1.5350e-01    2.5363e+05 ;   C111 - C110  
  7290   7291   1    1.0920e-01    2.8225e+05 ;   C110 - H10R  
  7290   7292   1    1.0920e-01    2.8225e+05 ;   C110 - H10S  
  7290   7293   1    1.5350e-01    2.5363e+05 ;   C110 - C19   
  7293   7294   1    1.0920e-01    2.8225e+05 ;    C19 - H9R   
  7293   7295   1    1.0920e-01    2.8225e+05 ;    C19 - H9S   
  7293   7296   1    1.5350e-01    2.5363e+05 ;    C19 - C18   
  7296   7297   1    1.0920e-01    2.8225e+05 ;    C18 - H8R   
  7296   7298   1    1.0920e-01    2.8225e+05 ;    C18 - H8S   
  7296   7299   1    1.5350e-01    2.5363e+05 ;    C18 - C17   
  7299   7300   1    1.0920e-01    2.8225e+05 ;    C17 - H7R   
  7299   7301   1    1.0920e-01    2.8225e+05 ;    C17 - H7S   
  7299   7302   1    1.5350e-01    2.5363e+05 ;    C17 - C16   
  7302   7303   1    1.0920e-01    2.8225e+05 ;    C16 - H6R   
  7302   7304   1    1.0920e-01    2.8225e+05 ;    C16 - H6S   
  7302   7305   1    1.5350e-01    2.5363e+05 ;    C16 - C15   
  7305   7306   1    1.0920e-01    2.8225e+05 ;    C15 - H5R   
  7305   7307   1    1.0920e-01    2.8225e+05 ;    C15 - H5S   
  7305   7308   1    1.5350e-01    2.5363e+05 ;    C15 - C14   
  7308   7309   1    1.0920e-01    2.8225e+05 ;    C14 - H4R   
  7308   7310   1    1.0920e-01    2.8225e+05 ;    C14 - H4S   
  7308   7311   1    1.5350e-01    2.5363e+05 ;    C14 - C13   
  7311   7312   1    1.0920e-01    2.8225e+05 ;    C13 - H3R   
  7311   7313   1    1.0920e-01    2.8225e+05 ;    C13 - H3S   
  7311   7314   1    1.5350e-01    2.5363e+05 ;    C13 - C12   
  7314   7315   1    1.0920e-01    2.8225e+05 ;    C12 - H2R   
  7314   7316   1    1.0920e-01    2.8225e+05 ;    C12 - H2S   
  7317   7318   1    1.0920e-01    2.8225e+05 ;   H14T - C114  
  7318   7319   1    1.0920e-01    2.8225e+05 ;   C114 - H14R  
  7318   7320   1    1.0920e-01    2.8225e+05 ;   C114 - H14S  
  7318   7321   1    1.5350e-01    2.5363e+05 ;   C114 - C113  
  7321   7322   1    1.0920e-01    2.8225e+05 ;   C113 - H13R  
  7321   7323   1    1.0920e-01    2.8225e+05 ;   C113 - H13S  
  7321   7324   1    1.5350e-01    2.5363e+05 ;   C113 - C112  
  7324   7325   1    1.0920e-01    2.8225e+05 ;   C112 - H12R  
  7324   7326   1    1.0920e-01    2.8225e+05 ;   C112 - H12S  
  7324   7327   1    1.5350e-01    2.5363e+05 ;   C112 - C111  
  7327   7328   1    1.0920e-01    2.8225e+05 ;   C111 - H11R  
  7327   7329   1    1.0920e-01    2.8225e+05 ;   C111 - H11S  
  7327   7330   1    1.5350e-01    2.5363e+05 ;   C111 - C110  
  7330   7331   1    1.0920e-01    2.8225e+05 ;   C110 - H10R  
  7330   7332   1    1.0920e-01    2.8225e+05 ;   C110 - H10S  
  7330   7333   1    1.5350e-01    2.5363e+05 ;   C110 - C19   
  7333   7334   1    1.0920e-01    2.8225e+05 ;    C19 - H9R   
  7333   7335   1    1.0920e-01    2.8225e+05 ;    C19 - H9S   
  7333   7336   1    1.5350e-01    2.5363e+05 ;    C19 - C18   
  7336   7337   1    1.0920e-01    2.8225e+05 ;    C18 - H8R   
  7336   7338   1    1.0920e-01    2.8225e+05 ;    C18 - H8S   
  7336   7339   1    1.5350e-01    2.5363e+05 ;    C18 - C17   
  7339   7340   1    1.0920e-01    2.8225e+05 ;    C17 - H7R   
  7339   7341   1    1.0920e-01    2.8225e+05 ;    C17 - H7S   
  7339   7342   1    1.5350e-01    2.5363e+05 ;    C17 - C16   
  7342   7343   1    1.0920e-01    2.8225e+05 ;    C16 - H6R   
  7342   7344   1    1.0920e-01    2.8225e+05 ;    C16 - H6S   
  7342   7345   1    1.5350e-01    2.5363e+05 ;    C16 - C15   
  7345   7346   1    1.0920e-01    2.8225e+05 ;    C15 - H5R   
  7345   7347   1    1.0920e-01    2.8225e+05 ;    C15 - H5S   
  7345   7348   1    1.5350e-01    2.5363e+05 ;    C15 - C14   
  7348   7349   1    1.0920e-01    2.8225e+05 ;    C14 - H4R   
  7348   7350   1    1.0920e-01    2.8225e+05 ;    C14 - H4S   
  7348   7351   1    1.5350e-01    2.5363e+05 ;    C14 - C13   
  7351   7352   1    1.0920e-01    2.8225e+05 ;    C13 - H3R   
  7351   7353   1    1.0920e-01    2.8225e+05 ;    C13 - H3S   
  7351   7354   1    1.5350e-01    2.5363e+05 ;    C13 - C12   
  7354   7355   1    1.0920e-01    2.8225e+05 ;    C12 - H2R   
  7354   7356   1    1.0920e-01    2.8225e+05 ;    C12 - H2S   
  7354   7357   1    1.5080e-01    2.7472e+05 ;    C12 - C11   
  7357   7358   1    1.2140e-01    5.4225e+05 ;    C11 - O12   
  7357   7359   1    1.3430e-01    3.4418e+05 ;    C11 - O11   
  7359   7360   1    1.4390e-01    2.5230e+05 ;    O11 - C1    
  7360   7361   1    1.0930e-01    2.8108e+05 ;     C1 - HR    
  7360   7362   1    1.0930e-01    2.8108e+05 ;     C1 - HS    
  7360   7363   1    1.5350e-01    2.5363e+05 ;     C1 - C2    
  7363   7364   1    1.0930e-01    2.8108e+05 ;     C2 - HX    
  7363   7365   1    1.5350e-01    2.5363e+05 ;     C2 - C3    
  7363   7392   1    1.4390e-01    2.5230e+05 ;     C2 - O21   
  7365   7366   1    1.0930e-01    2.8108e+05 ;     C3 - HA    
  7365   7367   1    1.0930e-01    2.8108e+05 ;     C3 - HB    
  7365   7368   1    1.4390e-01    2.5230e+05 ;     C3 - O31   
  7368   7369   1    1.6100e-01    1.9246e+05 ;    O31 - P31   
  7369   7370   1    1.6100e-01    1.9246e+05 ;    P31 - O32   
  7369   7390   1    1.4800e-01    4.3932e+05 ;    P31 - O33   
  7369   7391   1    1.4800e-01    4.3932e+05 ;    P31 - O34   
  7370   7371   1    1.4390e-01    2.5230e+05 ;    O32 - C31   
  7371   7372   1    1.0930e-01    2.8108e+05 ;    C31 - H1A   
  7371   7373   1    1.0930e-01    2.8108e+05 ;    C31 - H1B   
  7371   7374   1    1.5350e-01    2.5363e+05 ;    C31 - C32   
  7374   7375   1    1.0910e-01    2.8342e+05 ;    C32 - H2A   
  7374   7376   1    1.0910e-01    2.8342e+05 ;    C32 - H2B   
  7374   7377   1    1.4990e-01    2.4568e+05 ;    C32 - N31   
  7377   7378   1    1.4990e-01    2.4568e+05 ;    N31 - C33   
  7377   7382   1    1.4990e-01    2.4568e+05 ;    N31 - C34   
  7377   7386   1    1.4990e-01    2.4568e+05 ;    N31 - C35   
  7378   7379   1    1.0910e-01    2.8342e+05 ;    C33 - H3A   
  7378   7380   1    1.0910e-01    2.8342e+05 ;    C33 - H3B   
  7378   7381   1    1.0910e-01    2.8342e+05 ;    C33 - H3C   
  7382   7383   1    1.0910e-01    2.8342e+05 ;    C34 - H4A   
  7382   7384   1    1.0910e-01    2.8342e+05 ;    C34 - H4B   
  7382   7385   1    1.0910e-01    2.8342e+05 ;    C34 - H4C   
  7386   7387   1    1.0910e-01    2.8342e+05 ;    C35 - H5A   
  7386   7388   1    1.0910e-01    2.8342e+05 ;    C35 - H5B   
  7386   7389   1    1.0910e-01    2.8342e+05 ;    C35 - H5C   
  7392   7393   1    1.3430e-01    3.4418e+05 ;    O21 - C21   
  7393   7394   1    1.2140e-01    5.4225e+05 ;    C21 - O22   
  7393   7432   1    1.5080e-01    2.7472e+05 ;    C21 - C12   
  7395   7396   1    1.0920e-01    2.8225e+05 ;   H14T - C114  
  7396   7397   1    1.0920e-01    2.8225e+05 ;   C114 - H14R  
  7396   7398   1    1.0920e-01    2.8225e+05 ;   C114 - H14S  
  7396   7399   1    1.5350e-01    2.5363e+05 ;   C114 - C113  
  7399   7400   1    1.0920e-01    2.8225e+05 ;   C113 - H13R  
  7399   7401   1    1.0920e-01    2.8225e+05 ;   C113 - H13S  
  7399   7402   1    1.5350e-01    2.5363e+05 ;   C113 - C112  
  7402   7403   1    1.0920e-01    2.8225e+05 ;   C112 - H12R  
  7402   7404   1    1.0920e-01    2.8225e+05 ;   C112 - H12S  
  7402   7405   1    1.5350e-01    2.5363e+05 ;   C112 - C111  
  7405   7406   1    1.0920e-01    2.8225e+05 ;   C111 - H11R  
  7405   7407   1    1.0920e-01    2.8225e+05 ;   C111 - H11S  
  7405   7408   1    1.5350e-01    2.5363e+05 ;   C111 - C110  
  7408   7409   1    1.0920e-01    2.8225e+05 ;   C110 - H10R  
  7408   7410   1    1.0920e-01    2.8225e+05 ;   C110 - H10S  
  7408   7411   1    1.5350e-01    2.5363e+05 ;   C110 - C19   
  7411   7412   1    1.0920e-01    2.8225e+05 ;    C19 - H9R   
  7411   7413   1    1.0920e-01    2.8225e+05 ;    C19 - H9S   
  7411   7414   1    1.5350e-01    2.5363e+05 ;    C19 - C18   
  7414   7415   1    1.0920e-01    2.8225e+05 ;    C18 - H8R   
  7414   7416   1    1.0920e-01    2.8225e+05 ;    C18 - H8S   
  7414   7417   1    1.5350e-01    2.5363e+05 ;    C18 - C17   
  7417   7418   1    1.0920e-01    2.8225e+05 ;    C17 - H7R   
  7417   7419   1    1.0920e-01    2.8225e+05 ;    C17 - H7S   
  7417   7420   1    1.5350e-01    2.5363e+05 ;    C17 - C16   
  7420   7421   1    1.0920e-01    2.8225e+05 ;    C16 - H6R   
  7420   7422   1    1.0920e-01    2.8225e+05 ;    C16 - H6S   
  7420   7423   1    1.5350e-01    2.5363e+05 ;    C16 - C15   
  7423   7424   1    1.0920e-01    2.8225e+05 ;    C15 - H5R   
  7423   7425   1    1.0920e-01    2.8225e+05 ;    C15 - H5S   
  7423   7426   1    1.5350e-01    2.5363e+05 ;    C15 - C14   
  7426   7427   1    1.0920e-01    2.8225e+05 ;    C14 - H4R   
  7426   7428   1    1.0920e-01    2.8225e+05 ;    C14 - H4S   
  7426   7429   1    1.5350e-01    2.5363e+05 ;    C14 - C13   
  7429   7430   1    1.0920e-01    2.8225e+05 ;    C13 - H3R   
  7429   7431   1    1.0920e-01    2.8225e+05 ;    C13 - H3S   
  7429   7432   1    1.5350e-01    2.5363e+05 ;    C13 - C12   
  7432   7433   1    1.0920e-01    2.8225e+05 ;    C12 - H2R   
  7432   7434   1    1.0920e-01    2.8225e+05 ;    C12 - H2S   
  7435   7436   1    1.0920e-01    2.8225e+05 ;   H14T - C114  
  7436   7437   1    1.0920e-01    2.8225e+05 ;   C114 - H14R  
  7436   7438   1    1.0920e-01    2.8225e+05 ;   C114 - H14S  
  7436   7439   1    1.5350e-01    2.5363e+05 ;   C114 - C113  
  7439   7440   1    1.0920e-01    2.8225e+05 ;   C113 - H13R  
  7439   7441   1    1.0920e-01    2.8225e+05 ;   C113 - H13S  
  7439   7442   1    1.5350e-01    2.5363e+05 ;   C113 - C112  
  7442   7443   1    1.0920e-01    2.8225e+05 ;   C112 - H12R  
  7442   7444   1    1.0920e-01    2.8225e+05 ;   C112 - H12S  
  7442   7445   1    1.5350e-01    2.5363e+05 ;   C112 - C111  
  7445   7446   1    1.0920e-01    2.8225e+05 ;   C111 - H11R  
  7445   7447   1    1.0920e-01    2.8225e+05 ;   C111 - H11S  
  7445   7448   1    1.5350e-01    2.5363e+05 ;   C111 - C110  
  7448   7449   1    1.0920e-01    2.8225e+05 ;   C110 - H10R  
  7448   7450   1    1.0920e-01    2.8225e+05 ;   C110 - H10S  
  7448   7451   1    1.5350e-01    2.5363e+05 ;   C110 - C19   
  7451   7452   1    1.0920e-01    2.8225e+05 ;    C19 - H9R   
  7451   7453   1    1.0920e-01    2.8225e+05 ;    C19 - H9S   
  7451   7454   1    1.5350e-01    2.5363e+05 ;    C19 - C18   
  7454   7455   1    1.0920e-01    2.8225e+05 ;    C18 - H8R   
  7454   7456   1    1.0920e-01    2.8225e+05 ;    C18 - H8S   
  7454   7457   1    1.5350e-01    2.5363e+05 ;    C18 - C17   
  7457   7458   1    1.0920e-01    2.8225e+05 ;    C17 - H7R   
  7457   7459   1    1.0920e-01    2.8225e+05 ;    C17 - H7S   
  7457   7460   1    1.5350e-01    2.5363e+05 ;    C17 - C16   
  7460   7461   1    1.0920e-01    2.8225e+05 ;    C16 - H6R   
  7460   7462   1    1.0920e-01    2.8225e+05 ;    C16 - H6S   
  7460   7463   1    1.5350e-01    2.5363e+05 ;    C16 - C15   
  7463   7464   1    1.0920e-01    2.8225e+05 ;    C15 - H5R   
  7463   7465   1    1.0920e-01    2.8225e+05 ;    C15 - H5S   
  7463   7466   1    1.5350e-01    2.5363e+05 ;    C15 - C14   
  7466   7467   1    1.0920e-01    2.8225e+05 ;    C14 - H4R   
  7466   7468   1    1.0920e-01    2.8225e+05 ;    C14 - H4S   
  7466   7469   1    1.5350e-01    2.5363e+05 ;    C14 - C13   
  7469   7470   1    1.0920e-01    2.8225e+05 ;    C13 - H3R   
  7469   7471   1    1.0920e-01    2.8225e+05 ;    C13 - H3S   
  7469   7472   1    1.5350e-01    2.5363e+05 ;    C13 - C12   
  7472   7473   1    1.0920e-01    2.8225e+05 ;    C12 - H2R   
  7472   7474   1    1.0920e-01    2.8225e+05 ;    C12 - H2S   
  7472   7475   1    1.5080e-01    2.7472e+05 ;    C12 - C11   
  7475   7476   1    1.2140e-01    5.4225e+05 ;    C11 - O12   
  7475   7477   1    1.3430e-01    3.4418e+05 ;    C11 - O11   
  7477   7478   1    1.4390e-01    2.5230e+05 ;    O11 - C1    
  7478   7479   1    1.0930e-01    2.8108e+05 ;     C1 - HR    
  7478   7480   1    1.0930e-01    2.8108e+05 ;     C1 - HS    
  7478   7481   1    1.5350e-01    2.5363e+05 ;     C1 - C2    
  7481   7482   1    1.0930e-01    2.8108e+05 ;     C2 - HX    
  7481   7483   1    1.5350e-01    2.5363e+05 ;     C2 - C3    
  7481   7510   1    1.4390e-01    2.5230e+05 ;     C2 - O21   
  7483   7484   1    1.0930e-01    2.8108e+05 ;     C3 - HA    
  7483   7485   1    1.0930e-01    2.8108e+05 ;     C3 - HB    
  7483   7486   1    1.4390e-01    2.5230e+05 ;     C3 - O31   
  7486   7487   1    1.6100e-01    1.9246e+05 ;    O31 - P31   
  7487   7488   1    1.6100e-01    1.9246e+05 ;    P31 - O32   
  7487   7508   1    1.4800e-01    4.3932e+05 ;    P31 - O33   
  7487   7509   1    1.4800e-01    4.3932e+05 ;    P31 - O34   
  7488   7489   1    1.4390e-01    2.5230e+05 ;    O32 - C31   
  7489   7490   1    1.0930e-01    2.8108e+05 ;    C31 - H1A   
  7489   7491   1    1.0930e-01    2.8108e+05 ;    C31 - H1B   
  7489   7492   1    1.5350e-01    2.5363e+05 ;    C31 - C32   
  7492   7493   1    1.0910e-01    2.8342e+05 ;    C32 - H2A   
  7492   7494   1    1.0910e-01    2.8342e+05 ;    C32 - H2B   
  7492   7495   1    1.4990e-01    2.4568e+05 ;    C32 - N31   
  7495   7496   1    1.4990e-01    2.4568e+05 ;    N31 - C33   
  7495   7500   1    1.4990e-01    2.4568e+05 ;    N31 - C34   
  7495   7504   1    1.4990e-01    2.4568e+05 ;    N31 - C35   
  7496   7497   1    1.0910e-01    2.8342e+05 ;    C33 - H3A   
  7496   7498   1    1.0910e-01    2.8342e+05 ;    C33 - H3B   
  7496   7499   1    1.0910e-01    2.8342e+05 ;    C33 - H3C   
  7500   7501   1    1.0910e-01    2.8342e+05 ;    C34 - H4A   
  7500   7502   1    1.0910e-01    2.8342e+05 ;    C34 - H4B   
  7500   7503   1    1.0910e-01    2.8342e+05 ;    C34 - H4C   
  7504   7505   1    1.0910e-01    2.8342e+05 ;    C35 - H5A   
  7504   7506   1    1.0910e-01    2.8342e+05 ;    C35 - H5B   
  7504   7507   1    1.0910e-01    2.8342e+05 ;    C35 - H5C   
  7510   7511   1    1.3430e-01    3.4418e+05 ;    O21 - C21   
  7511   7512   1    1.2140e-01    5.4225e+05 ;    C21 - O22   
  7511   7550   1    1.5080e-01    2.7472e+05 ;    C21 - C12   
  7513   7514   1    1.0920e-01    2.8225e+05 ;   H14T - C114  
  7514   7515   1    1.0920e-01    2.8225e+05 ;   C114 - H14R  
  7514   7516   1    1.0920e-01    2.8225e+05 ;   C114 - H14S  
  7514   7517   1    1.5350e-01    2.5363e+05 ;   C114 - C113  
  7517   7518   1    1.0920e-01    2.8225e+05 ;   C113 - H13R  
  7517   7519   1    1.0920e-01    2.8225e+05 ;   C113 - H13S  
  7517   7520   1    1.5350e-01    2.5363e+05 ;   C113 - C112  
  7520   7521   1    1.0920e-01    2.8225e+05 ;   C112 - H12R  
  7520   7522   1    1.0920e-01    2.8225e+05 ;   C112 - H12S  
  7520   7523   1    1.5350e-01    2.5363e+05 ;   C112 - C111  
  7523   7524   1    1.0920e-01    2.8225e+05 ;   C111 - H11R  
  7523   7525   1    1.0920e-01    2.8225e+05 ;   C111 - H11S  
  7523   7526   1    1.5350e-01    2.5363e+05 ;   C111 - C110  
  7526   7527   1    1.0920e-01    2.8225e+05 ;   C110 - H10R  
  7526   7528   1    1.0920e-01    2.8225e+05 ;   C110 - H10S  
  7526   7529   1    1.5350e-01    2.5363e+05 ;   C110 - C19   
  7529   7530   1    1.0920e-01    2.8225e+05 ;    C19 - H9R   
  7529   7531   1    1.0920e-01    2.8225e+05 ;    C19 - H9S   
  7529   7532   1    1.5350e-01    2.5363e+05 ;    C19 - C18   
  7532   7533   1    1.0920e-01    2.8225e+05 ;    C18 - H8R   
  7532   7534   1    1.0920e-01    2.8225e+05 ;    C18 - H8S   
  7532   7535   1    1.5350e-01    2.5363e+05 ;    C18 - C17   
  7535   7536   1    1.0920e-01    2.8225e+05 ;    C17 - H7R   
  7535   7537   1    1.0920e-01    2.8225e+05 ;    C17 - H7S   
  7535   7538   1    1.5350e-01    2.5363e+05 ;    C17 - C16   
  7538   7539   1    1.0920e-01    2.8225e+05 ;    C16 - H6R   
  7538   7540   1    1.0920e-01    2.8225e+05 ;    C16 - H6S   
  7538   7541   1    1.5350e-01    2.5363e+05 ;    C16 - C15   
  7541   7542   1    1.0920e-01    2.8225e+05 ;    C15 - H5R   
  7541   7543   1    1.0920e-01    2.8225e+05 ;    C15 - H5S   
  7541   7544   1    1.5350e-01    2.5363e+05 ;    C15 - C14   
  7544   7545   1    1.0920e-01    2.8225e+05 ;    C14 - H4R   
  7544   7546   1    1.0920e-01    2.8225e+05 ;    C14 - H4S   
  7544   7547   1    1.5350e-01    2.5363e+05 ;    C14 - C13   
  7547   7548   1    1.0920e-01    2.8225e+05 ;    C13 - H3R   
  7547   7549   1    1.0920e-01    2.8225e+05 ;    C13 - H3S   
  7547   7550   1    1.5350e-01    2.5363e+05 ;    C13 - C12   
  7550   7551   1    1.0920e-01    2.8225e+05 ;    C12 - H2R   
  7550   7552   1    1.0920e-01    2.8225e+05 ;    C12 - H2S   
  7553   7554   1    1.0920e-01    2.8225e+05 ;   H14T - C114  
  7554   7555   1    1.0920e-01    2.8225e+05 ;   C114 - H14R  
  7554   7556   1    1.0920e-01    2.8225e+05 ;   C114 - H14S  
  7554   7557   1    1.5350e-01    2.5363e+05 ;   C114 - C113  
  7557   7558   1    1.0920e-01    2.8225e+05 ;   C113 - H13R  
  7557   7559   1    1.0920e-01    2.8225e+05 ;   C113 - H13S  
  7557   7560   1    1.5350e-01    2.5363e+05 ;   C113 - C112  
  7560   7561   1    1.0920e-01    2.8225e+05 ;   C112 - H12R  
  7560   7562   1    1.0920e-01    2.8225e+05 ;   C112 - H12S  
  7560   7563   1    1.5350e-01    2.5363e+05 ;   C112 - C111  
  7563   7564   1    1.0920e-01    2.8225e+05 ;   C111 - H11R  
  7563   7565   1    1.0920e-01    2.8225e+05 ;   C111 - H11S  
  7563   7566   1    1.5350e-01    2.5363e+05 ;   C111 - C110  
  7566   7567   1    1.0920e-01    2.8225e+05 ;   C110 - H10R  
  7566   7568   1    1.0920e-01    2.8225e+05 ;   C110 - H10S  
  7566   7569   1    1.5350e-01    2.5363e+05 ;   C110 - C19   
  7569   7570   1    1.0920e-01    2.8225e+05 ;    C19 - H9R   
  7569   7571   1    1.0920e-01    2.8225e+05 ;    C19 - H9S   
  7569   7572   1    1.5350e-01    2.5363e+05 ;    C19 - C18   
  7572   7573   1    1.0920e-01    2.8225e+05 ;    C18 - H8R   
  7572   7574   1    1.0920e-01    2.8225e+05 ;    C18 - H8S   
  7572   7575   1    1.5350e-01    2.5363e+05 ;    C18 - C17   
  7575   7576   1    1.0920e-01    2.8225e+05 ;    C17 - H7R   
  7575   7577   1    1.0920e-01    2.8225e+05 ;    C17 - H7S   
  7575   7578   1    1.5350e-01    2.5363e+05 ;    C17 - C16   
  7578   7579   1    1.0920e-01    2.8225e+05 ;    C16 - H6R   
  7578   7580   1    1.0920e-01    2.8225e+05 ;    C16 - H6S   
  7578   7581   1    1.5350e-01    2.5363e+05 ;    C16 - C15   
  7581   7582   1    1.0920e-01    2.8225e+05 ;    C15 - H5R   
  7581   7583   1    1.0920e-01    2.8225e+05 ;    C15 - H5S   
  7581   7584   1    1.5350e-01    2.5363e+05 ;    C15 - C14   
  7584   7585   1    1.0920e-01    2.8225e+05 ;    C14 - H4R   
  7584   7586   1    1.0920e-01    2.8225e+05 ;    C14 - H4S   
  7584   7587   1    1.5350e-01    2.5363e+05 ;    C14 - C13   
  7587   7588   1    1.0920e-01    2.8225e+05 ;    C13 - H3R   
  7587   7589   1    1.0920e-01    2.8225e+05 ;    C13 - H3S   
  7587   7590   1    1.5350e-01    2.5363e+05 ;    C13 - C12   
  7590   7591   1    1.0920e-01    2.8225e+05 ;    C12 - H2R   
  7590   7592   1    1.0920e-01    2.8225e+05 ;    C12 - H2S   
  7590   7593   1    1.5080e-01    2.7472e+05 ;    C12 - C11   
  7593   7594   1    1.2140e-01    5.4225e+05 ;    C11 - O12   
  7593   7595   1    1.3430e-01    3.4418e+05 ;    C11 - O11   
  7595   7596   1    1.4390e-01    2.5230e+05 ;    O11 - C1    
  7596   7597   1    1.0930e-01    2.8108e+05 ;     C1 - HR    
  7596   7598   1    1.0930e-01    2.8108e+05 ;     C1 - HS    
  7596   7599   1    1.5350e-01    2.5363e+05 ;     C1 - C2    
  7599   7600   1    1.0930e-01    2.8108e+05 ;     C2 - HX    
  7599   7601   1    1.5350e-01    2.5363e+05 ;     C2 - C3    
  7599   7628   1    1.4390e-01    2.5230e+05 ;     C2 - O21   
  7601   7602   1    1.0930e-01    2.8108e+05 ;     C3 - HA    
  7601   7603   1    1.0930e-01    2.8108e+05 ;     C3 - HB    
  7601   7604   1    1.4390e-01    2.5230e+05 ;     C3 - O31   
  7604   7605   1    1.6100e-01    1.9246e+05 ;    O31 - P31   
  7605   7606   1    1.6100e-01    1.9246e+05 ;    P31 - O32   
  7605   7626   1    1.4800e-01    4.3932e+05 ;    P31 - O33   
  7605   7627   1    1.4800e-01    4.3932e+05 ;    P31 - O34   
  7606   7607   1    1.4390e-01    2.5230e+05 ;    O32 - C31   
  7607   7608   1    1.0930e-01    2.8108e+05 ;    C31 - H1A   
  7607   7609   1    1.0930e-01    2.8108e+05 ;    C31 - H1B   
  7607   7610   1    1.5350e-01    2.5363e+05 ;    C31 - C32   
  7610   7611   1    1.0910e-01    2.8342e+05 ;    C32 - H2A   
  7610   7612   1    1.0910e-01    2.8342e+05 ;    C32 - H2B   
  7610   7613   1    1.4990e-01    2.4568e+05 ;    C32 - N31   
  7613   7614   1    1.4990e-01    2.4568e+05 ;    N31 - C33   
  7613   7618   1    1.4990e-01    2.4568e+05 ;    N31 - C34   
  7613   7622   1    1.4990e-01    2.4568e+05 ;    N31 - C35   
  7614   7615   1    1.0910e-01    2.8342e+05 ;    C33 - H3A   
  7614   7616   1    1.0910e-01    2.8342e+05 ;    C33 - H3B   
  7614   7617   1    1.0910e-01    2.8342e+05 ;    C33 - H3C   
  7618   7619   1    1.0910e-01    2.8342e+05 ;    C34 - H4A   
  7618   7620   1    1.0910e-01    2.8342e+05 ;    C34 - H4B   
  7618   7621   1    1.0910e-01    2.8342e+05 ;    C34 - H4C   
  7622   7623   1    1.0910e-01    2.8342e+05 ;    C35 - H5A   
  7622   7624   1    1.0910e-01    2.8342e+05 ;    C35 - H5B   
  7622   7625   1    1.0910e-01    2.8342e+05 ;    C35 - H5C   
  7628   7629   1    1.3430e-01    3.4418e+05 ;    O21 - C21   
  7629   7630   1    1.2140e-01    5.4225e+05 ;    C21 - O22   
  7629   7668   1    1.5080e-01    2.7472e+05 ;    C21 - C12   
  7631   7632   1    1.0920e-01    2.8225e+05 ;   H14T - C114  
  7632   7633   1    1.0920e-01    2.8225e+05 ;   C114 - H14R  
  7632   7634   1    1.0920e-01    2.8225e+05 ;   C114 - H14S  
  7632   7635   1    1.5350e-01    2.5363e+05 ;   C114 - C113  
  7635   7636   1    1.0920e-01    2.8225e+05 ;   C113 - H13R  
  7635   7637   1    1.0920e-01    2.8225e+05 ;   C113 - H13S  
  7635   7638   1    1.5350e-01    2.5363e+05 ;   C113 - C112  
  7638   7639   1    1.0920e-01    2.8225e+05 ;   C112 - H12R  
  7638   7640   1    1.0920e-01    2.8225e+05 ;   C112 - H12S  
  7638   7641   1    1.5350e-01    2.5363e+05 ;   C112 - C111  
  7641   7642   1    1.0920e-01    2.8225e+05 ;   C111 - H11R  
  7641   7643   1    1.0920e-01    2.8225e+05 ;   C111 - H11S  
  7641   7644   1    1.5350e-01    2.5363e+05 ;   C111 - C110  
  7644   7645   1    1.0920e-01    2.8225e+05 ;   C110 - H10R  
  7644   7646   1    1.0920e-01    2.8225e+05 ;   C110 - H10S  
  7644   7647   1    1.5350e-01    2.5363e+05 ;   C110 - C19   
  7647   7648   1    1.0920e-01    2.8225e+05 ;    C19 - H9R   
  7647   7649   1    1.0920e-01    2.8225e+05 ;    C19 - H9S   
  7647   7650   1    1.5350e-01    2.5363e+05 ;    C19 - C18   
  7650   7651   1    1.0920e-01    2.8225e+05 ;    C18 - H8R   
  7650   7652   1    1.0920e-01    2.8225e+05 ;    C18 - H8S   
  7650   7653   1    1.5350e-01    2.5363e+05 ;    C18 - C17   
  7653   7654   1    1.0920e-01    2.8225e+05 ;    C17 - H7R   
  7653   7655   1    1.0920e-01    2.8225e+05 ;    C17 - H7S   
  7653   7656   1    1.5350e-01    2.5363e+05 ;    C17 - C16   
  7656   7657   1    1.0920e-01    2.8225e+05 ;    C16 - H6R   
  7656   7658   1    1.0920e-01    2.8225e+05 ;    C16 - H6S   
  7656   7659   1    1.5350e-01    2.5363e+05 ;    C16 - C15   
  7659   7660   1    1.0920e-01    2.8225e+05 ;    C15 - H5R   
  7659   7661   1    1.0920e-01    2.8225e+05 ;    C15 - H5S   
  7659   7662   1    1.5350e-01    2.5363e+05 ;    C15 - C14   
  7662   7663   1    1.0920e-01    2.8225e+05 ;    C14 - H4R   
  7662   7664   1    1.0920e-01    2.8225e+05 ;    C14 - H4S   
  7662   7665   1    1.5350e-01    2.5363e+05 ;    C14 - C13   
  7665   7666   1    1.0920e-01    2.8225e+05 ;    C13 - H3R   
  7665   7667   1    1.0920e-01    2.8225e+05 ;    C13 - H3S   
  7665   7668   1    1.5350e-01    2.5363e+05 ;    C13 - C12   
  7668   7669   1    1.0920e-01    2.8225e+05 ;    C12 - H2R   
  7668   7670   1    1.0920e-01    2.8225e+05 ;    C12 - H2S   
  7671   7672   1    1.0920e-01    2.8225e+05 ;   H14T - C114  
  7672   7673   1    1.0920e-01    2.8225e+05 ;   C114 - H14R  
  7672   7674   1    1.0920e-01    2.8225e+05 ;   C114 - H14S  
  7672   7675   1    1.5350e-01    2.5363e+05 ;   C114 - C113  
  7675   7676   1    1.0920e-01    2.8225e+05 ;   C113 - H13R  
  7675   7677   1    1.0920e-01    2.8225e+05 ;   C113 - H13S  
  7675   7678   1    1.5350e-01    2.5363e+05 ;   C113 - C112  
  7678   7679   1    1.0920e-01    2.8225e+05 ;   C112 - H12R  
  7678   7680   1    1.0920e-01    2.8225e+05 ;   C112 - H12S  
  7678   7681   1    1.5350e-01    2.5363e+05 ;   C112 - C111  
  7681   7682   1    1.0920e-01    2.8225e+05 ;   C111 - H11R  
  7681   7683   1    1.0920e-01    2.8225e+05 ;   C111 - H11S  
  7681   7684   1    1.5350e-01    2.5363e+05 ;   C111 - C110  
  7684   7685   1    1.0920e-01    2.8225e+05 ;   C110 - H10R  
  7684   7686   1    1.0920e-01    2.8225e+05 ;   C110 - H10S  
  7684   7687   1    1.5350e-01    2.5363e+05 ;   C110 - C19   
  7687   7688   1    1.0920e-01    2.8225e+05 ;    C19 - H9R   
  7687   7689   1    1.0920e-01    2.8225e+05 ;    C19 - H9S   
  7687   7690   1    1.5350e-01    2.5363e+05 ;    C19 - C18   
  7690   7691   1    1.0920e-01    2.8225e+05 ;    C18 - H8R   
  7690   7692   1    1.0920e-01    2.8225e+05 ;    C18 - H8S   
  7690   7693   1    1.5350e-01    2.5363e+05 ;    C18 - C17   
  7693   7694   1    1.0920e-01    2.8225e+05 ;    C17 - H7R   
  7693   7695   1    1.0920e-01    2.8225e+05 ;    C17 - H7S   
  7693   7696   1    1.5350e-01    2.5363e+05 ;    C17 - C16   
  7696   7697   1    1.0920e-01    2.8225e+05 ;    C16 - H6R   
  7696   7698   1    1.0920e-01    2.8225e+05 ;    C16 - H6S   
  7696   7699   1    1.5350e-01    2.5363e+05 ;    C16 - C15   
  7699   7700   1    1.0920e-01    2.8225e+05 ;    C15 - H5R   
  7699   7701   1    1.0920e-01    2.8225e+05 ;    C15 - H5S   
  7699   7702   1    1.5350e-01    2.5363e+05 ;    C15 - C14   
  7702   7703   1    1.0920e-01    2.8225e+05 ;    C14 - H4R   
  7702   7704   1    1.0920e-01    2.8225e+05 ;    C14 - H4S   
  7702   7705   1    1.5350e-01    2.5363e+05 ;    C14 - C13   
  7705   7706   1    1.0920e-01    2.8225e+05 ;    C13 - H3R   
  7705   7707   1    1.0920e-01    2.8225e+05 ;    C13 - H3S   
  7705   7708   1    1.5350e-01    2.5363e+05 ;    C13 - C12   
  7708   7709   1    1.0920e-01    2.8225e+05 ;    C12 - H2R   
  7708   7710   1    1.0920e-01    2.8225e+05 ;    C12 - H2S   
  7708   7711   1    1.5080e-01    2.7472e+05 ;    C12 - C11   
  7711   7712   1    1.2140e-01    5.4225e+05 ;    C11 - O12   
  7711   7713   1    1.3430e-01    3.4418e+05 ;    C11 - O11   
  7713   7714   1    1.4390e-01    2.5230e+05 ;    O11 - C1    
  7714   7715   1    1.0930e-01    2.8108e+05 ;     C1 - HR    
  7714   7716   1    1.0930e-01    2.8108e+05 ;     C1 - HS    
  7714   7717   1    1.5350e-01    2.5363e+05 ;     C1 - C2    
  7717   7718   1    1.0930e-01    2.8108e+05 ;     C2 - HX    
  7717   7719   1    1.5350e-01    2.5363e+05 ;     C2 - C3    
  7717   7746   1    1.4390e-01    2.5230e+05 ;     C2 - O21   
  7719   7720   1    1.0930e-01    2.8108e+05 ;     C3 - HA    
  7719   7721   1    1.0930e-01    2.8108e+05 ;     C3 - HB    
  7719   7722   1    1.4390e-01    2.5230e+05 ;     C3 - O31   
  7722   7723   1    1.6100e-01    1.9246e+05 ;    O31 - P31   
  7723   7724   1    1.6100e-01    1.9246e+05 ;    P31 - O32   
  7723   7744   1    1.4800e-01    4.3932e+05 ;    P31 - O33   
  7723   7745   1    1.4800e-01    4.3932e+05 ;    P31 - O34   
  7724   7725   1    1.4390e-01    2.5230e+05 ;    O32 - C31   
  7725   7726   1    1.0930e-01    2.8108e+05 ;    C31 - H1A   
  7725   7727   1    1.0930e-01    2.8108e+05 ;    C31 - H1B   
  7725   7728   1    1.5350e-01    2.5363e+05 ;    C31 - C32   
  7728   7729   1    1.0910e-01    2.8342e+05 ;    C32 - H2A   
  7728   7730   1    1.0910e-01    2.8342e+05 ;    C32 - H2B   
  7728   7731   1    1.4990e-01    2.4568e+05 ;    C32 - N31   
  7731   7732   1    1.4990e-01    2.4568e+05 ;    N31 - C33   
  7731   7736   1    1.4990e-01    2.4568e+05 ;    N31 - C34   
  7731   7740   1    1.4990e-01    2.4568e+05 ;    N31 - C35   
  7732   7733   1    1.0910e-01    2.8342e+05 ;    C33 - H3A   
  7732   7734   1    1.0910e-01    2.8342e+05 ;    C33 - H3B   
  7732   7735   1    1.0910e-01    2.8342e+05 ;    C33 - H3C   
  7736   7737   1    1.0910e-01    2.8342e+05 ;    C34 - H4A   
  7736   7738   1    1.0910e-01    2.8342e+05 ;    C34 - H4B   
  7736   7739   1    1.0910e-01    2.8342e+05 ;    C34 - H4C   
  7740   7741   1    1.0910e-01    2.8342e+05 ;    C35 - H5A   
  7740   7742   1    1.0910e-01    2.8342e+05 ;    C35 - H5B   
  7740   7743   1    1.0910e-01    2.8342e+05 ;    C35 - H5C   
  7746   7747   1    1.3430e-01    3.4418e+05 ;    O21 - C21   
  7747   7748   1    1.2140e-01    5.4225e+05 ;    C21 - O22   
  7747   7786   1    1.5080e-01    2.7472e+05 ;    C21 - C12   
  7749   7750   1    1.0920e-01    2.8225e+05 ;   H14T - C114  
  7750   7751   1    1.0920e-01    2.8225e+05 ;   C114 - H14R  
  7750   7752   1    1.0920e-01    2.8225e+05 ;   C114 - H14S  
  7750   7753   1    1.5350e-01    2.5363e+05 ;   C114 - C113  
  7753   7754   1    1.0920e-01    2.8225e+05 ;   C113 - H13R  
  7753   7755   1    1.0920e-01    2.8225e+05 ;   C113 - H13S  
  7753   7756   1    1.5350e-01    2.5363e+05 ;   C113 - C112  
  7756   7757   1    1.0920e-01    2.8225e+05 ;   C112 - H12R  
  7756   7758   1    1.0920e-01    2.8225e+05 ;   C112 - H12S  
  7756   7759   1    1.5350e-01    2.5363e+05 ;   C112 - C111  
  7759   7760   1    1.0920e-01    2.8225e+05 ;   C111 - H11R  
  7759   7761   1    1.0920e-01    2.8225e+05 ;   C111 - H11S  
  7759   7762   1    1.5350e-01    2.5363e+05 ;   C111 - C110  
  7762   7763   1    1.0920e-01    2.8225e+05 ;   C110 - H10R  
  7762   7764   1    1.0920e-01    2.8225e+05 ;   C110 - H10S  
  7762   7765   1    1.5350e-01    2.5363e+05 ;   C110 - C19   
  7765   7766   1    1.0920e-01    2.8225e+05 ;    C19 - H9R   
  7765   7767   1    1.0920e-01    2.8225e+05 ;    C19 - H9S   
  7765   7768   1    1.5350e-01    2.5363e+05 ;    C19 - C18   
  7768   7769   1    1.0920e-01    2.8225e+05 ;    C18 - H8R   
  7768   7770   1    1.0920e-01    2.8225e+05 ;    C18 - H8S   
  7768   7771   1    1.5350e-01    2.5363e+05 ;    C18 - C17   
  7771   7772   1    1.0920e-01    2.8225e+05 ;    C17 - H7R   
  7771   7773   1    1.0920e-01    2.8225e+05 ;    C17 - H7S   
  7771   7774   1    1.5350e-01    2.5363e+05 ;    C17 - C16   
  7774   7775   1    1.0920e-01    2.8225e+05 ;    C16 - H6R   
  7774   7776   1    1.0920e-01    2.8225e+05 ;    C16 - H6S   
  7774   7777   1    1.5350e-01    2.5363e+05 ;    C16 - C15   
  7777   7778   1    1.0920e-01    2.8225e+05 ;    C15 - H5R   
  7777   7779   1    1.0920e-01    2.8225e+05 ;    C15 - H5S   
  7777   7780   1    1.5350e-01    2.5363e+05 ;    C15 - C14   
  7780   7781   1    1.0920e-01    2.8225e+05 ;    C14 - H4R   
  7780   7782   1    1.0920e-01    2.8225e+05 ;    C14 - H4S   
  7780   7783   1    1.5350e-01    2.5363e+05 ;    C14 - C13   
  7783   7784   1    1.0920e-01    2.8225e+05 ;    C13 - H3R   
  7783   7785   1    1.0920e-01    2.8225e+05 ;    C13 - H3S   
  7783   7786   1    1.5350e-01    2.5363e+05 ;    C13 - C12   
  7786   7787   1    1.0920e-01    2.8225e+05 ;    C12 - H2R   
  7786   7788   1    1.0920e-01    2.8225e+05 ;    C12 - H2S   
  7789   7790   1    1.0920e-01    2.8225e+05 ;   H14T - C114  
  7790   7791   1    1.0920e-01    2.8225e+05 ;   C114 - H14R  
  7790   7792   1    1.0920e-01    2.8225e+05 ;   C114 - H14S  
  7790   7793   1    1.5350e-01    2.5363e+05 ;   C114 - C113  
  7793   7794   1    1.0920e-01    2.8225e+05 ;   C113 - H13R  
  7793   7795   1    1.0920e-01    2.8225e+05 ;   C113 - H13S  
  7793   7796   1    1.5350e-01    2.5363e+05 ;   C113 - C112  
  7796   7797   1    1.0920e-01    2.8225e+05 ;   C112 - H12R  
  7796   7798   1    1.0920e-01    2.8225e+05 ;   C112 - H12S  
  7796   7799   1    1.5350e-01    2.5363e+05 ;   C112 - C111  
  7799   7800   1    1.0920e-01    2.8225e+05 ;   C111 - H11R  
  7799   7801   1    1.0920e-01    2.8225e+05 ;   C111 - H11S  
  7799   7802   1    1.5350e-01    2.5363e+05 ;   C111 - C110  
  7802   7803   1    1.0920e-01    2.8225e+05 ;   C110 - H10R  
  7802   7804   1    1.0920e-01    2.8225e+05 ;   C110 - H10S  
  7802   7805   1    1.5350e-01    2.5363e+05 ;   C110 - C19   
  7805   7806   1    1.0920e-01    2.8225e+05 ;    C19 - H9R   
  7805   7807   1    1.0920e-01    2.8225e+05 ;    C19 - H9S   
  7805   7808   1    1.5350e-01    2.5363e+05 ;    C19 - C18   
  7808   7809   1    1.0920e-01    2.8225e+05 ;    C18 - H8R   
  7808   7810   1    1.0920e-01    2.8225e+05 ;    C18 - H8S   
  7808   7811   1    1.5350e-01    2.5363e+05 ;    C18 - C17   
  7811   7812   1    1.0920e-01    2.8225e+05 ;    C17 - H7R   
  7811   7813   1    1.0920e-01    2.8225e+05 ;    C17 - H7S   
  7811   7814   1    1.5350e-01    2.5363e+05 ;    C17 - C16   
  7814   7815   1    1.0920e-01    2.8225e+05 ;    C16 - H6R   
  7814   7816   1    1.0920e-01    2.8225e+05 ;    C16 - H6S   
  7814   7817   1    1.5350e-01    2.5363e+05 ;    C16 - C15   
  7817   7818   1    1.0920e-01    2.8225e+05 ;    C15 - H5R   
  7817   7819   1    1.0920e-01    2.8225e+05 ;    C15 - H5S   
  7817   7820   1    1.5350e-01    2.5363e+05 ;    C15 - C14   
  7820   7821   1    1.0920e-01    2.8225e+05 ;    C14 - H4R   
  7820   7822   1    1.0920e-01    2.8225e+05 ;    C14 - H4S   
  7820   7823   1    1.5350e-01    2.5363e+05 ;    C14 - C13   
  7823   7824   1    1.0920e-01    2.8225e+05 ;    C13 - H3R   
  7823   7825   1    1.0920e-01    2.8225e+05 ;    C13 - H3S   
  7823   7826   1    1.5350e-01    2.5363e+05 ;    C13 - C12   
  7826   7827   1    1.0920e-01    2.8225e+05 ;    C12 - H2R   
  7826   7828   1    1.0920e-01    2.8225e+05 ;    C12 - H2S   
  7826   7829   1    1.5080e-01    2.7472e+05 ;    C12 - C11   
  7829   7830   1    1.2140e-01    5.4225e+05 ;    C11 - O12   
  7829   7831   1    1.3430e-01    3.4418e+05 ;    C11 - O11   
  7831   7832   1    1.4390e-01    2.5230e+05 ;    O11 - C1    
  7832   7833   1    1.0930e-01    2.8108e+05 ;     C1 - HR    
  7832   7834   1    1.0930e-01    2.8108e+05 ;     C1 - HS    
  7832   7835   1    1.5350e-01    2.5363e+05 ;     C1 - C2    
  7835   7836   1    1.0930e-01    2.8108e+05 ;     C2 - HX    
  7835   7837   1    1.5350e-01    2.5363e+05 ;     C2 - C3    
  7835   7864   1    1.4390e-01    2.5230e+05 ;     C2 - O21   
  7837   7838   1    1.0930e-01    2.8108e+05 ;     C3 - HA    
  7837   7839   1    1.0930e-01    2.8108e+05 ;     C3 - HB    
  7837   7840   1    1.4390e-01    2.5230e+05 ;     C3 - O31   
  7840   7841   1    1.6100e-01    1.9246e+05 ;    O31 - P31   
  7841   7842   1    1.6100e-01    1.9246e+05 ;    P31 - O32   
  7841   7862   1    1.4800e-01    4.3932e+05 ;    P31 - O33   
  7841   7863   1    1.4800e-01    4.3932e+05 ;    P31 - O34   
  7842   7843   1    1.4390e-01    2.5230e+05 ;    O32 - C31   
  7843   7844   1    1.0930e-01    2.8108e+05 ;    C31 - H1A   
  7843   7845   1    1.0930e-01    2.8108e+05 ;    C31 - H1B   
  7843   7846   1    1.5350e-01    2.5363e+05 ;    C31 - C32   
  7846   7847   1    1.0910e-01    2.8342e+05 ;    C32 - H2A   
  7846   7848   1    1.0910e-01    2.8342e+05 ;    C32 - H2B   
  7846   7849   1    1.4990e-01    2.4568e+05 ;    C32 - N31   
  7849   7850   1    1.4990e-01    2.4568e+05 ;    N31 - C33   
  7849   7854   1    1.4990e-01    2.4568e+05 ;    N31 - C34   
  7849   7858   1    1.4990e-01    2.4568e+05 ;    N31 - C35   
  7850   7851   1    1.0910e-01    2.8342e+05 ;    C33 - H3A   
  7850   7852   1    1.0910e-01    2.8342e+05 ;    C33 - H3B   
  7850   7853   1    1.0910e-01    2.8342e+05 ;    C33 - H3C   
  7854   7855   1    1.0910e-01    2.8342e+05 ;    C34 - H4A   
  7854   7856   1    1.0910e-01    2.8342e+05 ;    C34 - H4B   
  7854   7857   1    1.0910e-01    2.8342e+05 ;    C34 - H4C   
  7858   7859   1    1.0910e-01    2.8342e+05 ;    C35 - H5A   
  7858   7860   1    1.0910e-01    2.8342e+05 ;    C35 - H5B   
  7858   7861   1    1.0910e-01    2.8342e+05 ;    C35 - H5C   
  7864   7865   1    1.3430e-01    3.4418e+05 ;    O21 - C21   
  7865   7866   1    1.2140e-01    5.4225e+05 ;    C21 - O22   
  7865   7904   1    1.5080e-01    2.7472e+05 ;    C21 - C12   
  7867   7868   1    1.0920e-01    2.8225e+05 ;   H14T - C114  
  7868   7869   1    1.0920e-01    2.8225e+05 ;   C114 - H14R  
  7868   7870   1    1.0920e-01    2.8225e+05 ;   C114 - H14S  
  7868   7871   1    1.5350e-01    2.5363e+05 ;   C114 - C113  
  7871   7872   1    1.0920e-01    2.8225e+05 ;   C113 - H13R  
  7871   7873   1    1.0920e-01    2.8225e+05 ;   C113 - H13S  
  7871   7874   1    1.5350e-01    2.5363e+05 ;   C113 - C112  
  7874   7875   1    1.0920e-01    2.8225e+05 ;   C112 - H12R  
  7874   7876   1    1.0920e-01    2.8225e+05 ;   C112 - H12S  
  7874   7877   1    1.5350e-01    2.5363e+05 ;   C112 - C111  
  7877   7878   1    1.0920e-01    2.8225e+05 ;   C111 - H11R  
  7877   7879   1    1.0920e-01    2.8225e+05 ;   C111 - H11S  
  7877   7880   1    1.5350e-01    2.5363e+05 ;   C111 - C110  
  7880   7881   1    1.0920e-01    2.8225e+05 ;   C110 - H10R  
  7880   7882   1    1.0920e-01    2.8225e+05 ;   C110 - H10S  
  7880   7883   1    1.5350e-01    2.5363e+05 ;   C110 - C19   
  7883   7884   1    1.0920e-01    2.8225e+05 ;    C19 - H9R   
  7883   7885   1    1.0920e-01    2.8225e+05 ;    C19 - H9S   
  7883   7886   1    1.5350e-01    2.5363e+05 ;    C19 - C18   
  7886   7887   1    1.0920e-01    2.8225e+05 ;    C18 - H8R   
  7886   7888   1    1.0920e-01    2.8225e+05 ;    C18 - H8S   
  7886   7889   1    1.5350e-01    2.5363e+05 ;    C18 - C17   
  7889   7890   1    1.0920e-01    2.8225e+05 ;    C17 - H7R   
  7889   7891   1    1.0920e-01    2.8225e+05 ;    C17 - H7S   
  7889   7892   1    1.5350e-01    2.5363e+05 ;    C17 - C16   
  7892   7893   1    1.0920e-01    2.8225e+05 ;    C16 - H6R   
  7892   7894   1    1.0920e-01    2.8225e+05 ;    C16 - H6S   
  7892   7895   1    1.5350e-01    2.5363e+05 ;    C16 - C15   
  7895   7896   1    1.0920e-01    2.8225e+05 ;    C15 - H5R   
  7895   7897   1    1.0920e-01    2.8225e+05 ;    C15 - H5S   
  7895   7898   1    1.5350e-01    2.5363e+05 ;    C15 - C14   
  7898   7899   1    1.0920e-01    2.8225e+05 ;    C14 - H4R   
  7898   7900   1    1.0920e-01    2.8225e+05 ;    C14 - H4S   
  7898   7901   1    1.5350e-01    2.5363e+05 ;    C14 - C13   
  7901   7902   1    1.0920e-01    2.8225e+05 ;    C13 - H3R   
  7901   7903   1    1.0920e-01    2.8225e+05 ;    C13 - H3S   
  7901   7904   1    1.5350e-01    2.5363e+05 ;    C13 - C12   
  7904   7905   1    1.0920e-01    2.8225e+05 ;    C12 - H2R   
  7904   7906   1    1.0920e-01    2.8225e+05 ;    C12 - H2S   
  7907   7908   1    1.0920e-01    2.8225e+05 ;   H14T - C114  
  7908   7909   1    1.0920e-01    2.8225e+05 ;   C114 - H14R  
  7908   7910   1    1.0920e-01    2.8225e+05 ;   C114 - H14S  
  7908   7911   1    1.5350e-01    2.5363e+05 ;   C114 - C113  
  7911   7912   1    1.0920e-01    2.8225e+05 ;   C113 - H13R  
  7911   7913   1    1.0920e-01    2.8225e+05 ;   C113 - H13S  
  7911   7914   1    1.5350e-01    2.5363e+05 ;   C113 - C112  
  7914   7915   1    1.0920e-01    2.8225e+05 ;   C112 - H12R  
  7914   7916   1    1.0920e-01    2.8225e+05 ;   C112 - H12S  
  7914   7917   1    1.5350e-01    2.5363e+05 ;   C112 - C111  
  7917   7918   1    1.0920e-01    2.8225e+05 ;   C111 - H11R  
  7917   7919   1    1.0920e-01    2.8225e+05 ;   C111 - H11S  
  7917   7920   1    1.5350e-01    2.5363e+05 ;   C111 - C110  
  7920   7921   1    1.0920e-01    2.8225e+05 ;   C110 - H10R  
  7920   7922   1    1.0920e-01    2.8225e+05 ;   C110 - H10S  
  7920   7923   1    1.5350e-01    2.5363e+05 ;   C110 - C19   
  7923   7924   1    1.0920e-01    2.8225e+05 ;    C19 - H9R   
  7923   7925   1    1.0920e-01    2.8225e+05 ;    C19 - H9S   
  7923   7926   1    1.5350e-01    2.5363e+05 ;    C19 - C18   
  7926   7927   1    1.0920e-01    2.8225e+05 ;    C18 - H8R   
  7926   7928   1    1.0920e-01    2.8225e+05 ;    C18 - H8S   
  7926   7929   1    1.5350e-01    2.5363e+05 ;    C18 - C17   
  7929   7930   1    1.0920e-01    2.8225e+05 ;    C17 - H7R   
  7929   7931   1    1.0920e-01    2.8225e+05 ;    C17 - H7S   
  7929   7932   1    1.5350e-01    2.5363e+05 ;    C17 - C16   
  7932   7933   1    1.0920e-01    2.8225e+05 ;    C16 - H6R   
  7932   7934   1    1.0920e-01    2.8225e+05 ;    C16 - H6S   
  7932   7935   1    1.5350e-01    2.5363e+05 ;    C16 - C15   
  7935   7936   1    1.0920e-01    2.8225e+05 ;    C15 - H5R   
  7935   7937   1    1.0920e-01    2.8225e+05 ;    C15 - H5S   
  7935   7938   1    1.5350e-01    2.5363e+05 ;    C15 - C14   
  7938   7939   1    1.0920e-01    2.8225e+05 ;    C14 - H4R   
  7938   7940   1    1.0920e-01    2.8225e+05 ;    C14 - H4S   
  7938   7941   1    1.5350e-01    2.5363e+05 ;    C14 - C13   
  7941   7942   1    1.0920e-01    2.8225e+05 ;    C13 - H3R   
  7941   7943   1    1.0920e-01    2.8225e+05 ;    C13 - H3S   
  7941   7944   1    1.5350e-01    2.5363e+05 ;    C13 - C12   
  7944   7945   1    1.0920e-01    2.8225e+05 ;    C12 - H2R   
  7944   7946   1    1.0920e-01    2.8225e+05 ;    C12 - H2S   
  7944   7947   1    1.5080e-01    2.7472e+05 ;    C12 - C11   
  7947   7948   1    1.2140e-01    5.4225e+05 ;    C11 - O12   
  7947   7949   1    1.3430e-01    3.4418e+05 ;    C11 - O11   
  7949   7950   1    1.4390e-01    2.5230e+05 ;    O11 - C1    
  7950   7951   1    1.0930e-01    2.8108e+05 ;     C1 - HR    
  7950   7952   1    1.0930e-01    2.8108e+05 ;     C1 - HS    
  7950   7953   1    1.5350e-01    2.5363e+05 ;     C1 - C2    
  7953   7954   1    1.0930e-01    2.8108e+05 ;     C2 - HX    
  7953   7955   1    1.5350e-01    2.5363e+05 ;     C2 - C3    
  7953   7982   1    1.4390e-01    2.5230e+05 ;     C2 - O21   
  7955   7956   1    1.0930e-01    2.8108e+05 ;     C3 - HA    
  7955   7957   1    1.0930e-01    2.8108e+05 ;     C3 - HB    
  7955   7958   1    1.4390e-01    2.5230e+05 ;     C3 - O31   
  7958   7959   1    1.6100e-01    1.9246e+05 ;    O31 - P31   
  7959   7960   1    1.6100e-01    1.9246e+05 ;    P31 - O32   
  7959   7980   1    1.4800e-01    4.3932e+05 ;    P31 - O33   
  7959   7981   1    1.4800e-01    4.3932e+05 ;    P31 - O34   
  7960   7961   1    1.4390e-01    2.5230e+05 ;    O32 - C31   
  7961   7962   1    1.0930e-01    2.8108e+05 ;    C31 - H1A   
  7961   7963   1    1.0930e-01    2.8108e+05 ;    C31 - H1B   
  7961   7964   1    1.5350e-01    2.5363e+05 ;    C31 - C32   
  7964   7965   1    1.0910e-01    2.8342e+05 ;    C32 - H2A   
  7964   7966   1    1.0910e-01    2.8342e+05 ;    C32 - H2B   
  7964   7967   1    1.4990e-01    2.4568e+05 ;    C32 - N31   
  7967   7968   1    1.4990e-01    2.4568e+05 ;    N31 - C33   
  7967   7972   1    1.4990e-01    2.4568e+05 ;    N31 - C34   
  7967   7976   1    1.4990e-01    2.4568e+05 ;    N31 - C35   
  7968   7969   1    1.0910e-01    2.8342e+05 ;    C33 - H3A   
  7968   7970   1    1.0910e-01    2.8342e+05 ;    C33 - H3B   
  7968   7971   1    1.0910e-01    2.8342e+05 ;    C33 - H3C   
  7972   7973   1    1.0910e-01    2.8342e+05 ;    C34 - H4A   
  7972   7974   1    1.0910e-01    2.8342e+05 ;    C34 - H4B   
  7972   7975   1    1.0910e-01    2.8342e+05 ;    C34 - H4C   
  7976   7977   1    1.0910e-01    2.8342e+05 ;    C35 - H5A   
  7976   7978   1    1.0910e-01    2.8342e+05 ;    C35 - H5B   
  7976   7979   1    1.0910e-01    2.8342e+05 ;    C35 - H5C   
  7982   7983   1    1.3430e-01    3.4418e+05 ;    O21 - C21   
  7983   7984   1    1.2140e-01    5.4225e+05 ;    C21 - O22   
  7983   8022   1    1.5080e-01    2.7472e+05 ;    C21 - C12   
  7985   7986   1    1.0920e-01    2.8225e+05 ;   H14T - C114  
  7986   7987   1    1.0920e-01    2.8225e+05 ;   C114 - H14R  
  7986   7988   1    1.0920e-01    2.8225e+05 ;   C114 - H14S  
  7986   7989   1    1.5350e-01    2.5363e+05 ;   C114 - C113  
  7989   7990   1    1.0920e-01    2.8225e+05 ;   C113 - H13R  
  7989   7991   1    1.0920e-01    2.8225e+05 ;   C113 - H13S  
  7989   7992   1    1.5350e-01    2.5363e+05 ;   C113 - C112  
  7992   7993   1    1.0920e-01    2.8225e+05 ;   C112 - H12R  
  7992   7994   1    1.0920e-01    2.8225e+05 ;   C112 - H12S  
  7992   7995   1    1.5350e-01    2.5363e+05 ;   C112 - C111  
  7995   7996   1    1.0920e-01    2.8225e+05 ;   C111 - H11R  
  7995   7997   1    1.0920e-01    2.8225e+05 ;   C111 - H11S  
  7995   7998   1    1.5350e-01    2.5363e+05 ;   C111 - C110  
  7998   7999   1    1.0920e-01    2.8225e+05 ;   C110 - H10R  
  7998   8000   1    1.0920e-01    2.8225e+05 ;   C110 - H10S  
  7998   8001   1    1.5350e-01    2.5363e+05 ;   C110 - C19   
  8001   8002   1    1.0920e-01    2.8225e+05 ;    C19 - H9R   
  8001   8003   1    1.0920e-01    2.8225e+05 ;    C19 - H9S   
  8001   8004   1    1.5350e-01    2.5363e+05 ;    C19 - C18   
  8004   8005   1    1.0920e-01    2.8225e+05 ;    C18 - H8R   
  8004   8006   1    1.0920e-01    2.8225e+05 ;    C18 - H8S   
  8004   8007   1    1.5350e-01    2.5363e+05 ;    C18 - C17   
  8007   8008   1    1.0920e-01    2.8225e+05 ;    C17 - H7R   
  8007   8009   1    1.0920e-01    2.8225e+05 ;    C17 - H7S   
  8007   8010   1    1.5350e-01    2.5363e+05 ;    C17 - C16   
  8010   8011   1    1.0920e-01    2.8225e+05 ;    C16 - H6R   
  8010   8012   1    1.0920e-01    2.8225e+05 ;    C16 - H6S   
  8010   8013   1    1.5350e-01    2.5363e+05 ;    C16 - C15   
  8013   8014   1    1.0920e-01    2.8225e+05 ;    C15 - H5R   
  8013   8015   1    1.0920e-01    2.8225e+05 ;    C15 - H5S   
  8013   8016   1    1.5350e-01    2.5363e+05 ;    C15 - C14   
  8016   8017   1    1.0920e-01    2.8225e+05 ;    C14 - H4R   
  8016   8018   1    1.0920e-01    2.8225e+05 ;    C14 - H4S   
  8016   8019   1    1.5350e-01    2.5363e+05 ;    C14 - C13   
  8019   8020   1    1.0920e-01    2.8225e+05 ;    C13 - H3R   
  8019   8021   1    1.0920e-01    2.8225e+05 ;    C13 - H3S   
  8019   8022   1    1.5350e-01    2.5363e+05 ;    C13 - C12   
  8022   8023   1    1.0920e-01    2.8225e+05 ;    C12 - H2R   
  8022   8024   1    1.0920e-01    2.8225e+05 ;    C12 - H2S   
  8025   8026   1    1.0920e-01    2.8225e+05 ;   H14T - C114  
  8026   8027   1    1.0920e-01    2.8225e+05 ;   C114 - H14R  
  8026   8028   1    1.0920e-01    2.8225e+05 ;   C114 - H14S  
  8026   8029   1    1.5350e-01    2.5363e+05 ;   C114 - C113  
  8029   8030   1    1.0920e-01    2.8225e+05 ;   C113 - H13R  
  8029   8031   1    1.0920e-01    2.8225e+05 ;   C113 - H13S  
  8029   8032   1    1.5350e-01    2.5363e+05 ;   C113 - C112  
  8032   8033   1    1.0920e-01    2.8225e+05 ;   C112 - H12R  
  8032   8034   1    1.0920e-01    2.8225e+05 ;   C112 - H12S  
  8032   8035   1    1.5350e-01    2.5363e+05 ;   C112 - C111  
  8035   8036   1    1.0920e-01    2.8225e+05 ;   C111 - H11R  
  8035   8037   1    1.0920e-01    2.8225e+05 ;   C111 - H11S  
  8035   8038   1    1.5350e-01    2.5363e+05 ;   C111 - C110  
  8038   8039   1    1.0920e-01    2.8225e+05 ;   C110 - H10R  
  8038   8040   1    1.0920e-01    2.8225e+05 ;   C110 - H10S  
  8038   8041   1    1.5350e-01    2.5363e+05 ;   C110 - C19   
  8041   8042   1    1.0920e-01    2.8225e+05 ;    C19 - H9R   
  8041   8043   1    1.0920e-01    2.8225e+05 ;    C19 - H9S   
  8041   8044   1    1.5350e-01    2.5363e+05 ;    C19 - C18   
  8044   8045   1    1.0920e-01    2.8225e+05 ;    C18 - H8R   
  8044   8046   1    1.0920e-01    2.8225e+05 ;    C18 - H8S   
  8044   8047   1    1.5350e-01    2.5363e+05 ;    C18 - C17   
  8047   8048   1    1.0920e-01    2.8225e+05 ;    C17 - H7R   
  8047   8049   1    1.0920e-01    2.8225e+05 ;    C17 - H7S   
  8047   8050   1    1.5350e-01    2.5363e+05 ;    C17 - C16   
  8050   8051   1    1.0920e-01    2.8225e+05 ;    C16 - H6R   
  8050   8052   1    1.0920e-01    2.8225e+05 ;    C16 - H6S   
  8050   8053   1    1.5350e-01    2.5363e+05 ;    C16 - C15   
  8053   8054   1    1.0920e-01    2.8225e+05 ;    C15 - H5R   
  8053   8055   1    1.0920e-01    2.8225e+05 ;    C15 - H5S   
  8053   8056   1    1.5350e-01    2.5363e+05 ;    C15 - C14   
  8056   8057   1    1.0920e-01    2.8225e+05 ;    C14 - H4R   
  8056   8058   1    1.0920e-01    2.8225e+05 ;    C14 - H4S   
  8056   8059   1    1.5350e-01    2.5363e+05 ;    C14 - C13   
  8059   8060   1    1.0920e-01    2.8225e+05 ;    C13 - H3R   
  8059   8061   1    1.0920e-01    2.8225e+05 ;    C13 - H3S   
  8059   8062   1    1.5350e-01    2.5363e+05 ;    C13 - C12   
  8062   8063   1    1.0920e-01    2.8225e+05 ;    C12 - H2R   
  8062   8064   1    1.0920e-01    2.8225e+05 ;    C12 - H2S   
  8062   8065   1    1.5080e-01    2.7472e+05 ;    C12 - C11   
  8065   8066   1    1.2140e-01    5.4225e+05 ;    C11 - O12   
  8065   8067   1    1.3430e-01    3.4418e+05 ;    C11 - O11   
  8067   8068   1    1.4390e-01    2.5230e+05 ;    O11 - C1    
  8068   8069   1    1.0930e-01    2.8108e+05 ;     C1 - HR    
  8068   8070   1    1.0930e-01    2.8108e+05 ;     C1 - HS    
  8068   8071   1    1.5350e-01    2.5363e+05 ;     C1 - C2    
  8071   8072   1    1.0930e-01    2.8108e+05 ;     C2 - HX    
  8071   8073   1    1.5350e-01    2.5363e+05 ;     C2 - C3    
  8071   8100   1    1.4390e-01    2.5230e+05 ;     C2 - O21   
  8073   8074   1    1.0930e-01    2.8108e+05 ;     C3 - HA    
  8073   8075   1    1.0930e-01    2.8108e+05 ;     C3 - HB    
  8073   8076   1    1.4390e-01    2.5230e+05 ;     C3 - O31   
  8076   8077   1    1.6100e-01    1.9246e+05 ;    O31 - P31   
  8077   8078   1    1.6100e-01    1.9246e+05 ;    P31 - O32   
  8077   8098   1    1.4800e-01    4.3932e+05 ;    P31 - O33   
  8077   8099   1    1.4800e-01    4.3932e+05 ;    P31 - O34   
  8078   8079   1    1.4390e-01    2.5230e+05 ;    O32 - C31   
  8079   8080   1    1.0930e-01    2.8108e+05 ;    C31 - H1A   
  8079   8081   1    1.0930e-01    2.8108e+05 ;    C31 - H1B   
  8079   8082   1    1.5350e-01    2.5363e+05 ;    C31 - C32   
  8082   8083   1    1.0910e-01    2.8342e+05 ;    C32 - H2A   
  8082   8084   1    1.0910e-01    2.8342e+05 ;    C32 - H2B   
  8082   8085   1    1.4990e-01    2.4568e+05 ;    C32 - N31   
  8085   8086   1    1.4990e-01    2.4568e+05 ;    N31 - C33   
  8085   8090   1    1.4990e-01    2.4568e+05 ;    N31 - C34   
  8085   8094   1    1.4990e-01    2.4568e+05 ;    N31 - C35   
  8086   8087   1    1.0910e-01    2.8342e+05 ;    C33 - H3A   
  8086   8088   1    1.0910e-01    2.8342e+05 ;    C33 - H3B   
  8086   8089   1    1.0910e-01    2.8342e+05 ;    C33 - H3C   
  8090   8091   1    1.0910e-01    2.8342e+05 ;    C34 - H4A   
  8090   8092   1    1.0910e-01    2.8342e+05 ;    C34 - H4B   
  8090   8093   1    1.0910e-01    2.8342e+05 ;    C34 - H4C   
  8094   8095   1    1.0910e-01    2.8342e+05 ;    C35 - H5A   
  8094   8096   1    1.0910e-01    2.8342e+05 ;    C35 - H5B   
  8094   8097   1    1.0910e-01    2.8342e+05 ;    C35 - H5C   
  8100   8101   1    1.3430e-01    3.4418e+05 ;    O21 - C21   
  8101   8102   1    1.2140e-01    5.4225e+05 ;    C21 - O22   
  8101   8140   1    1.5080e-01    2.7472e+05 ;    C21 - C12   
  8103   8104   1    1.0920e-01    2.8225e+05 ;   H14T - C114  
  8104   8105   1    1.0920e-01    2.8225e+05 ;   C114 - H14R  
  8104   8106   1    1.0920e-01    2.8225e+05 ;   C114 - H14S  
  8104   8107   1    1.5350e-01    2.5363e+05 ;   C114 - C113  
  8107   8108   1    1.0920e-01    2.8225e+05 ;   C113 - H13R  
  8107   8109   1    1.0920e-01    2.8225e+05 ;   C113 - H13S  
  8107   8110   1    1.5350e-01    2.5363e+05 ;   C113 - C112  
  8110   8111   1    1.0920e-01    2.8225e+05 ;   C112 - H12R  
  8110   8112   1    1.0920e-01    2.8225e+05 ;   C112 - H12S  
  8110   8113   1    1.5350e-01    2.5363e+05 ;   C112 - C111  
  8113   8114   1    1.0920e-01    2.8225e+05 ;   C111 - H11R  
  8113   8115   1    1.0920e-01    2.8225e+05 ;   C111 - H11S  
  8113   8116   1    1.5350e-01    2.5363e+05 ;   C111 - C110  
  8116   8117   1    1.0920e-01    2.8225e+05 ;   C110 - H10R  
  8116   8118   1    1.0920e-01    2.8225e+05 ;   C110 - H10S  
  8116   8119   1    1.5350e-01    2.5363e+05 ;   C110 - C19   
  8119   8120   1    1.0920e-01    2.8225e+05 ;    C19 - H9R   
  8119   8121   1    1.0920e-01    2.8225e+05 ;    C19 - H9S   
  8119   8122   1    1.5350e-01    2.5363e+05 ;    C19 - C18   
  8122   8123   1    1.0920e-01    2.8225e+05 ;    C18 - H8R   
  8122   8124   1    1.0920e-01    2.8225e+05 ;    C18 - H8S   
  8122   8125   1    1.5350e-01    2.5363e+05 ;    C18 - C17   
  8125   8126   1    1.0920e-01    2.8225e+05 ;    C17 - H7R   
  8125   8127   1    1.0920e-01    2.8225e+05 ;    C17 - H7S   
  8125   8128   1    1.5350e-01    2.5363e+05 ;    C17 - C16   
  8128   8129   1    1.0920e-01    2.8225e+05 ;    C16 - H6R   
  8128   8130   1    1.0920e-01    2.8225e+05 ;    C16 - H6S   
  8128   8131   1    1.5350e-01    2.5363e+05 ;    C16 - C15   
  8131   8132   1    1.0920e-01    2.8225e+05 ;    C15 - H5R   
  8131   8133   1    1.0920e-01    2.8225e+05 ;    C15 - H5S   
  8131   8134   1    1.5350e-01    2.5363e+05 ;    C15 - C14   
  8134   8135   1    1.0920e-01    2.8225e+05 ;    C14 - H4R   
  8134   8136   1    1.0920e-01    2.8225e+05 ;    C14 - H4S   
  8134   8137   1    1.5350e-01    2.5363e+05 ;    C14 - C13   
  8137   8138   1    1.0920e-01    2.8225e+05 ;    C13 - H3R   
  8137   8139   1    1.0920e-01    2.8225e+05 ;    C13 - H3S   
  8137   8140   1    1.5350e-01    2.5363e+05 ;    C13 - C12   
  8140   8141   1    1.0920e-01    2.8225e+05 ;    C12 - H2R   
  8140   8142   1    1.0920e-01    2.8225e+05 ;    C12 - H2S   
  8143   8144   1    1.0920e-01    2.8225e+05 ;   H14T - C114  
  8144   8145   1    1.0920e-01    2.8225e+05 ;   C114 - H14R  
  8144   8146   1    1.0920e-01    2.8225e+05 ;   C114 - H14S  
  8144   8147   1    1.5350e-01    2.5363e+05 ;   C114 - C113  
  8147   8148   1    1.0920e-01    2.8225e+05 ;   C113 - H13R  
  8147   8149   1    1.0920e-01    2.8225e+05 ;   C113 - H13S  
  8147   8150   1    1.5350e-01    2.5363e+05 ;   C113 - C112  
  8150   8151   1    1.0920e-01    2.8225e+05 ;   C112 - H12R  
  8150   8152   1    1.0920e-01    2.8225e+05 ;   C112 - H12S  
  8150   8153   1    1.5350e-01    2.5363e+05 ;   C112 - C111  
  8153   8154   1    1.0920e-01    2.8225e+05 ;   C111 - H11R  
  8153   8155   1    1.0920e-01    2.8225e+05 ;   C111 - H11S  
  8153   8156   1    1.5350e-01    2.5363e+05 ;   C111 - C110  
  8156   8157   1    1.0920e-01    2.8225e+05 ;   C110 - H10R  
  8156   8158   1    1.0920e-01    2.8225e+05 ;   C110 - H10S  
  8156   8159   1    1.5350e-01    2.5363e+05 ;   C110 - C19   
  8159   8160   1    1.0920e-01    2.8225e+05 ;    C19 - H9R   
  8159   8161   1    1.0920e-01    2.8225e+05 ;    C19 - H9S   
  8159   8162   1    1.5350e-01    2.5363e+05 ;    C19 - C18   
  8162   8163   1    1.0920e-01    2.8225e+05 ;    C18 - H8R   
  8162   8164   1    1.0920e-01    2.8225e+05 ;    C18 - H8S   
  8162   8165   1    1.5350e-01    2.5363e+05 ;    C18 - C17   
  8165   8166   1    1.0920e-01    2.8225e+05 ;    C17 - H7R   
  8165   8167   1    1.0920e-01    2.8225e+05 ;    C17 - H7S   
  8165   8168   1    1.5350e-01    2.5363e+05 ;    C17 - C16   
  8168   8169   1    1.0920e-01    2.8225e+05 ;    C16 - H6R   
  8168   8170   1    1.0920e-01    2.8225e+05 ;    C16 - H6S   
  8168   8171   1    1.5350e-01    2.5363e+05 ;    C16 - C15   
  8171   8172   1    1.0920e-01    2.8225e+05 ;    C15 - H5R   
  8171   8173   1    1.0920e-01    2.8225e+05 ;    C15 - H5S   
  8171   8174   1    1.5350e-01    2.5363e+05 ;    C15 - C14   
  8174   8175   1    1.0920e-01    2.8225e+05 ;    C14 - H4R   
  8174   8176   1    1.0920e-01    2.8225e+05 ;    C14 - H4S   
  8174   8177   1    1.5350e-01    2.5363e+05 ;    C14 - C13   
  8177   8178   1    1.0920e-01    2.8225e+05 ;    C13 - H3R   
  8177   8179   1    1.0920e-01    2.8225e+05 ;    C13 - H3S   
  8177   8180   1    1.5350e-01    2.5363e+05 ;    C13 - C12   
  8180   8181   1    1.0920e-01    2.8225e+05 ;    C12 - H2R   
  8180   8182   1    1.0920e-01    2.8225e+05 ;    C12 - H2S   
  8180   8183   1    1.5080e-01    2.7472e+05 ;    C12 - C11   
  8183   8184   1    1.2140e-01    5.4225e+05 ;    C11 - O12   
  8183   8185   1    1.3430e-01    3.4418e+05 ;    C11 - O11   
  8185   8186   1    1.4390e-01    2.5230e+05 ;    O11 - C1    
  8186   8187   1    1.0930e-01    2.8108e+05 ;     C1 - HR    
  8186   8188   1    1.0930e-01    2.8108e+05 ;     C1 - HS    
  8186   8189   1    1.5350e-01    2.5363e+05 ;     C1 - C2    
  8189   8190   1    1.0930e-01    2.8108e+05 ;     C2 - HX    
  8189   8191   1    1.5350e-01    2.5363e+05 ;     C2 - C3    
  8189   8218   1    1.4390e-01    2.5230e+05 ;     C2 - O21   
  8191   8192   1    1.0930e-01    2.8108e+05 ;     C3 - HA    
  8191   8193   1    1.0930e-01    2.8108e+05 ;     C3 - HB    
  8191   8194   1    1.4390e-01    2.5230e+05 ;     C3 - O31   
  8194   8195   1    1.6100e-01    1.9246e+05 ;    O31 - P31   
  8195   8196   1    1.6100e-01    1.9246e+05 ;    P31 - O32   
  8195   8216   1    1.4800e-01    4.3932e+05 ;    P31 - O33   
  8195   8217   1    1.4800e-01    4.3932e+05 ;    P31 - O34   
  8196   8197   1    1.4390e-01    2.5230e+05 ;    O32 - C31   
  8197   8198   1    1.0930e-01    2.8108e+05 ;    C31 - H1A   
  8197   8199   1    1.0930e-01    2.8108e+05 ;    C31 - H1B   
  8197   8200   1    1.5350e-01    2.5363e+05 ;    C31 - C32   
  8200   8201   1    1.0910e-01    2.8342e+05 ;    C32 - H2A   
  8200   8202   1    1.0910e-01    2.8342e+05 ;    C32 - H2B   
  8200   8203   1    1.4990e-01    2.4568e+05 ;    C32 - N31   
  8203   8204   1    1.4990e-01    2.4568e+05 ;    N31 - C33   
  8203   8208   1    1.4990e-01    2.4568e+05 ;    N31 - C34   
  8203   8212   1    1.4990e-01    2.4568e+05 ;    N31 - C35   
  8204   8205   1    1.0910e-01    2.8342e+05 ;    C33 - H3A   
  8204   8206   1    1.0910e-01    2.8342e+05 ;    C33 - H3B   
  8204   8207   1    1.0910e-01    2.8342e+05 ;    C33 - H3C   
  8208   8209   1    1.0910e-01    2.8342e+05 ;    C34 - H4A   
  8208   8210   1    1.0910e-01    2.8342e+05 ;    C34 - H4B   
  8208   8211   1    1.0910e-01    2.8342e+05 ;    C34 - H4C   
  8212   8213   1    1.0910e-01    2.8342e+05 ;    C35 - H5A   
  8212   8214   1    1.0910e-01    2.8342e+05 ;    C35 - H5B   
  8212   8215   1    1.0910e-01    2.8342e+05 ;    C35 - H5C   
  8218   8219   1    1.3430e-01    3.4418e+05 ;    O21 - C21   
  8219   8220   1    1.2140e-01    5.4225e+05 ;    C21 - O22   
  8219   8258   1    1.5080e-01    2.7472e+05 ;    C21 - C12   
  8221   8222   1    1.0920e-01    2.8225e+05 ;   H14T - C114  
  8222   8223   1    1.0920e-01    2.8225e+05 ;   C114 - H14R  
  8222   8224   1    1.0920e-01    2.8225e+05 ;   C114 - H14S  
  8222   8225   1    1.5350e-01    2.5363e+05 ;   C114 - C113  
  8225   8226   1    1.0920e-01    2.8225e+05 ;   C113 - H13R  
  8225   8227   1    1.0920e-01    2.8225e+05 ;   C113 - H13S  
  8225   8228   1    1.5350e-01    2.5363e+05 ;   C113 - C112  
  8228   8229   1    1.0920e-01    2.8225e+05 ;   C112 - H12R  
  8228   8230   1    1.0920e-01    2.8225e+05 ;   C112 - H12S  
  8228   8231   1    1.5350e-01    2.5363e+05 ;   C112 - C111  
  8231   8232   1    1.0920e-01    2.8225e+05 ;   C111 - H11R  
  8231   8233   1    1.0920e-01    2.8225e+05 ;   C111 - H11S  
  8231   8234   1    1.5350e-01    2.5363e+05 ;   C111 - C110  
  8234   8235   1    1.0920e-01    2.8225e+05 ;   C110 - H10R  
  8234   8236   1    1.0920e-01    2.8225e+05 ;   C110 - H10S  
  8234   8237   1    1.5350e-01    2.5363e+05 ;   C110 - C19   
  8237   8238   1    1.0920e-01    2.8225e+05 ;    C19 - H9R   
  8237   8239   1    1.0920e-01    2.8225e+05 ;    C19 - H9S   
  8237   8240   1    1.5350e-01    2.5363e+05 ;    C19 - C18   
  8240   8241   1    1.0920e-01    2.8225e+05 ;    C18 - H8R   
  8240   8242   1    1.0920e-01    2.8225e+05 ;    C18 - H8S   
  8240   8243   1    1.5350e-01    2.5363e+05 ;    C18 - C17   
  8243   8244   1    1.0920e-01    2.8225e+05 ;    C17 - H7R   
  8243   8245   1    1.0920e-01    2.8225e+05 ;    C17 - H7S   
  8243   8246   1    1.5350e-01    2.5363e+05 ;    C17 - C16   
  8246   8247   1    1.0920e-01    2.8225e+05 ;    C16 - H6R   
  8246   8248   1    1.0920e-01    2.8225e+05 ;    C16 - H6S   
  8246   8249   1    1.5350e-01    2.5363e+05 ;    C16 - C15   
  8249   8250   1    1.0920e-01    2.8225e+05 ;    C15 - H5R   
  8249   8251   1    1.0920e-01    2.8225e+05 ;    C15 - H5S   
  8249   8252   1    1.5350e-01    2.5363e+05 ;    C15 - C14   
  8252   8253   1    1.0920e-01    2.8225e+05 ;    C14 - H4R   
  8252   8254   1    1.0920e-01    2.8225e+05 ;    C14 - H4S   
  8252   8255   1    1.5350e-01    2.5363e+05 ;    C14 - C13   
  8255   8256   1    1.0920e-01    2.8225e+05 ;    C13 - H3R   
  8255   8257   1    1.0920e-01    2.8225e+05 ;    C13 - H3S   
  8255   8258   1    1.5350e-01    2.5363e+05 ;    C13 - C12   
  8258   8259   1    1.0920e-01    2.8225e+05 ;    C12 - H2R   
  8258   8260   1    1.0920e-01    2.8225e+05 ;    C12 - H2S   
  8261   8262   1    1.0920e-01    2.8225e+05 ;   H14T - C114  
  8262   8263   1    1.0920e-01    2.8225e+05 ;   C114 - H14R  
  8262   8264   1    1.0920e-01    2.8225e+05 ;   C114 - H14S  
  8262   8265   1    1.5350e-01    2.5363e+05 ;   C114 - C113  
  8265   8266   1    1.0920e-01    2.8225e+05 ;   C113 - H13R  
  8265   8267   1    1.0920e-01    2.8225e+05 ;   C113 - H13S  
  8265   8268   1    1.5350e-01    2.5363e+05 ;   C113 - C112  
  8268   8269   1    1.0920e-01    2.8225e+05 ;   C112 - H12R  
  8268   8270   1    1.0920e-01    2.8225e+05 ;   C112 - H12S  
  8268   8271   1    1.5350e-01    2.5363e+05 ;   C112 - C111  
  8271   8272   1    1.0920e-01    2.8225e+05 ;   C111 - H11R  
  8271   8273   1    1.0920e-01    2.8225e+05 ;   C111 - H11S  
  8271   8274   1    1.5350e-01    2.5363e+05 ;   C111 - C110  
  8274   8275   1    1.0920e-01    2.8225e+05 ;   C110 - H10R  
  8274   8276   1    1.0920e-01    2.8225e+05 ;   C110 - H10S  
  8274   8277   1    1.5350e-01    2.5363e+05 ;   C110 - C19   
  8277   8278   1    1.0920e-01    2.8225e+05 ;    C19 - H9R   
  8277   8279   1    1.0920e-01    2.8225e+05 ;    C19 - H9S   
  8277   8280   1    1.5350e-01    2.5363e+05 ;    C19 - C18   
  8280   8281   1    1.0920e-01    2.8225e+05 ;    C18 - H8R   
  8280   8282   1    1.0920e-01    2.8225e+05 ;    C18 - H8S   
  8280   8283   1    1.5350e-01    2.5363e+05 ;    C18 - C17   
  8283   8284   1    1.0920e-01    2.8225e+05 ;    C17 - H7R   
  8283   8285   1    1.0920e-01    2.8225e+05 ;    C17 - H7S   
  8283   8286   1    1.5350e-01    2.5363e+05 ;    C17 - C16   
  8286   8287   1    1.0920e-01    2.8225e+05 ;    C16 - H6R   
  8286   8288   1    1.0920e-01    2.8225e+05 ;    C16 - H6S   
  8286   8289   1    1.5350e-01    2.5363e+05 ;    C16 - C15   
  8289   8290   1    1.0920e-01    2.8225e+05 ;    C15 - H5R   
  8289   8291   1    1.0920e-01    2.8225e+05 ;    C15 - H5S   
  8289   8292   1    1.5350e-01    2.5363e+05 ;    C15 - C14   
  8292   8293   1    1.0920e-01    2.8225e+05 ;    C14 - H4R   
  8292   8294   1    1.0920e-01    2.8225e+05 ;    C14 - H4S   
  8292   8295   1    1.5350e-01    2.5363e+05 ;    C14 - C13   
  8295   8296   1    1.0920e-01    2.8225e+05 ;    C13 - H3R   
  8295   8297   1    1.0920e-01    2.8225e+05 ;    C13 - H3S   
  8295   8298   1    1.5350e-01    2.5363e+05 ;    C13 - C12   
  8298   8299   1    1.0920e-01    2.8225e+05 ;    C12 - H2R   
  8298   8300   1    1.0920e-01    2.8225e+05 ;    C12 - H2S   
  8298   8301   1    1.5080e-01    2.7472e+05 ;    C12 - C11   
  8301   8302   1    1.2140e-01    5.4225e+05 ;    C11 - O12   
  8301   8303   1    1.3430e-01    3.4418e+05 ;    C11 - O11   
  8303   8304   1    1.4390e-01    2.5230e+05 ;    O11 - C1    
  8304   8305   1    1.0930e-01    2.8108e+05 ;     C1 - HR    
  8304   8306   1    1.0930e-01    2.8108e+05 ;     C1 - HS    
  8304   8307   1    1.5350e-01    2.5363e+05 ;     C1 - C2    
  8307   8308   1    1.0930e-01    2.8108e+05 ;     C2 - HX    
  8307   8309   1    1.5350e-01    2.5363e+05 ;     C2 - C3    
  8307   8336   1    1.4390e-01    2.5230e+05 ;     C2 - O21   
  8309   8310   1    1.0930e-01    2.8108e+05 ;     C3 - HA    
  8309   8311   1    1.0930e-01    2.8108e+05 ;     C3 - HB    
  8309   8312   1    1.4390e-01    2.5230e+05 ;     C3 - O31   
  8312   8313   1    1.6100e-01    1.9246e+05 ;    O31 - P31   
  8313   8314   1    1.6100e-01    1.9246e+05 ;    P31 - O32   
  8313   8334   1    1.4800e-01    4.3932e+05 ;    P31 - O33   
  8313   8335   1    1.4800e-01    4.3932e+05 ;    P31 - O34   
  8314   8315   1    1.4390e-01    2.5230e+05 ;    O32 - C31   
  8315   8316   1    1.0930e-01    2.8108e+05 ;    C31 - H1A   
  8315   8317   1    1.0930e-01    2.8108e+05 ;    C31 - H1B   
  8315   8318   1    1.5350e-01    2.5363e+05 ;    C31 - C32   
  8318   8319   1    1.0910e-01    2.8342e+05 ;    C32 - H2A   
  8318   8320   1    1.0910e-01    2.8342e+05 ;    C32 - H2B   
  8318   8321   1    1.4990e-01    2.4568e+05 ;    C32 - N31   
  8321   8322   1    1.4990e-01    2.4568e+05 ;    N31 - C33   
  8321   8326   1    1.4990e-01    2.4568e+05 ;    N31 - C34   
  8321   8330   1    1.4990e-01    2.4568e+05 ;    N31 - C35   
  8322   8323   1    1.0910e-01    2.8342e+05 ;    C33 - H3A   
  8322   8324   1    1.0910e-01    2.8342e+05 ;    C33 - H3B   
  8322   8325   1    1.0910e-01    2.8342e+05 ;    C33 - H3C   
  8326   8327   1    1.0910e-01    2.8342e+05 ;    C34 - H4A   
  8326   8328   1    1.0910e-01    2.8342e+05 ;    C34 - H4B   
  8326   8329   1    1.0910e-01    2.8342e+05 ;    C34 - H4C   
  8330   8331   1    1.0910e-01    2.8342e+05 ;    C35 - H5A   
  8330   8332   1    1.0910e-01    2.8342e+05 ;    C35 - H5B   
  8330   8333   1    1.0910e-01    2.8342e+05 ;    C35 - H5C   
  8336   8337   1    1.3430e-01    3.4418e+05 ;    O21 - C21   
  8337   8338   1    1.2140e-01    5.4225e+05 ;    C21 - O22   
  8337   8376   1    1.5080e-01    2.7472e+05 ;    C21 - C12   
  8339   8340   1    1.0920e-01    2.8225e+05 ;   H14T - C114  
  8340   8341   1    1.0920e-01    2.8225e+05 ;   C114 - H14R  
  8340   8342   1    1.0920e-01    2.8225e+05 ;   C114 - H14S  
  8340   8343   1    1.5350e-01    2.5363e+05 ;   C114 - C113  
  8343   8344   1    1.0920e-01    2.8225e+05 ;   C113 - H13R  
  8343   8345   1    1.0920e-01    2.8225e+05 ;   C113 - H13S  
  8343   8346   1    1.5350e-01    2.5363e+05 ;   C113 - C112  
  8346   8347   1    1.0920e-01    2.8225e+05 ;   C112 - H12R  
  8346   8348   1    1.0920e-01    2.8225e+05 ;   C112 - H12S  
  8346   8349   1    1.5350e-01    2.5363e+05 ;   C112 - C111  
  8349   8350   1    1.0920e-01    2.8225e+05 ;   C111 - H11R  
  8349   8351   1    1.0920e-01    2.8225e+05 ;   C111 - H11S  
  8349   8352   1    1.5350e-01    2.5363e+05 ;   C111 - C110  
  8352   8353   1    1.0920e-01    2.8225e+05 ;   C110 - H10R  
  8352   8354   1    1.0920e-01    2.8225e+05 ;   C110 - H10S  
  8352   8355   1    1.5350e-01    2.5363e+05 ;   C110 - C19   
  8355   8356   1    1.0920e-01    2.8225e+05 ;    C19 - H9R   
  8355   8357   1    1.0920e-01    2.8225e+05 ;    C19 - H9S   
  8355   8358   1    1.5350e-01    2.5363e+05 ;    C19 - C18   
  8358   8359   1    1.0920e-01    2.8225e+05 ;    C18 - H8R   
  8358   8360   1    1.0920e-01    2.8225e+05 ;    C18 - H8S   
  8358   8361   1    1.5350e-01    2.5363e+05 ;    C18 - C17   
  8361   8362   1    1.0920e-01    2.8225e+05 ;    C17 - H7R   
  8361   8363   1    1.0920e-01    2.8225e+05 ;    C17 - H7S   
  8361   8364   1    1.5350e-01    2.5363e+05 ;    C17 - C16   
  8364   8365   1    1.0920e-01    2.8225e+05 ;    C16 - H6R   
  8364   8366   1    1.0920e-01    2.8225e+05 ;    C16 - H6S   
  8364   8367   1    1.5350e-01    2.5363e+05 ;    C16 - C15   
  8367   8368   1    1.0920e-01    2.8225e+05 ;    C15 - H5R   
  8367   8369   1    1.0920e-01    2.8225e+05 ;    C15 - H5S   
  8367   8370   1    1.5350e-01    2.5363e+05 ;    C15 - C14   
  8370   8371   1    1.0920e-01    2.8225e+05 ;    C14 - H4R   
  8370   8372   1    1.0920e-01    2.8225e+05 ;    C14 - H4S   
  8370   8373   1    1.5350e-01    2.5363e+05 ;    C14 - C13   
  8373   8374   1    1.0920e-01    2.8225e+05 ;    C13 - H3R   
  8373   8375   1    1.0920e-01    2.8225e+05 ;    C13 - H3S   
  8373   8376   1    1.5350e-01    2.5363e+05 ;    C13 - C12   
  8376   8377   1    1.0920e-01    2.8225e+05 ;    C12 - H2R   
  8376   8378   1    1.0920e-01    2.8225e+05 ;    C12 - H2S   
  8379   8380   1    1.0920e-01    2.8225e+05 ;   H14T - C114  
  8380   8381   1    1.0920e-01    2.8225e+05 ;   C114 - H14R  
  8380   8382   1    1.0920e-01    2.8225e+05 ;   C114 - H14S  
  8380   8383   1    1.5350e-01    2.5363e+05 ;   C114 - C113  
  8383   8384   1    1.0920e-01    2.8225e+05 ;   C113 - H13R  
  8383   8385   1    1.0920e-01    2.8225e+05 ;   C113 - H13S  
  8383   8386   1    1.5350e-01    2.5363e+05 ;   C113 - C112  
  8386   8387   1    1.0920e-01    2.8225e+05 ;   C112 - H12R  
  8386   8388   1    1.0920e-01    2.8225e+05 ;   C112 - H12S  
  8386   8389   1    1.5350e-01    2.5363e+05 ;   C112 - C111  
  8389   8390   1    1.0920e-01    2.8225e+05 ;   C111 - H11R  
  8389   8391   1    1.0920e-01    2.8225e+05 ;   C111 - H11S  
  8389   8392   1    1.5350e-01    2.5363e+05 ;   C111 - C110  
  8392   8393   1    1.0920e-01    2.8225e+05 ;   C110 - H10R  
  8392   8394   1    1.0920e-01    2.8225e+05 ;   C110 - H10S  
  8392   8395   1    1.5350e-01    2.5363e+05 ;   C110 - C19   
  8395   8396   1    1.0920e-01    2.8225e+05 ;    C19 - H9R   
  8395   8397   1    1.0920e-01    2.8225e+05 ;    C19 - H9S   
  8395   8398   1    1.5350e-01    2.5363e+05 ;    C19 - C18   
  8398   8399   1    1.0920e-01    2.8225e+05 ;    C18 - H8R   
  8398   8400   1    1.0920e-01    2.8225e+05 ;    C18 - H8S   
  8398   8401   1    1.5350e-01    2.5363e+05 ;    C18 - C17   
  8401   8402   1    1.0920e-01    2.8225e+05 ;    C17 - H7R   
  8401   8403   1    1.0920e-01    2.8225e+05 ;    C17 - H7S   
  8401   8404   1    1.5350e-01    2.5363e+05 ;    C17 - C16   
  8404   8405   1    1.0920e-01    2.8225e+05 ;    C16 - H6R   
  8404   8406   1    1.0920e-01    2.8225e+05 ;    C16 - H6S   
  8404   8407   1    1.5350e-01    2.5363e+05 ;    C16 - C15   
  8407   8408   1    1.0920e-01    2.8225e+05 ;    C15 - H5R   
  8407   8409   1    1.0920e-01    2.8225e+05 ;    C15 - H5S   
  8407   8410   1    1.5350e-01    2.5363e+05 ;    C15 - C14   
  8410   8411   1    1.0920e-01    2.8225e+05 ;    C14 - H4R   
  8410   8412   1    1.0920e-01    2.8225e+05 ;    C14 - H4S   
  8410   8413   1    1.5350e-01    2.5363e+05 ;    C14 - C13   
  8413   8414   1    1.0920e-01    2.8225e+05 ;    C13 - H3R   
  8413   8415   1    1.0920e-01    2.8225e+05 ;    C13 - H3S   
  8413   8416   1    1.5350e-01    2.5363e+05 ;    C13 - C12   
  8416   8417   1    1.0920e-01    2.8225e+05 ;    C12 - H2R   
  8416   8418   1    1.0920e-01    2.8225e+05 ;    C12 - H2S   
  8416   8419   1    1.5080e-01    2.7472e+05 ;    C12 - C11   
  8419   8420   1    1.2140e-01    5.4225e+05 ;    C11 - O12   
  8419   8421   1    1.3430e-01    3.4418e+05 ;    C11 - O11   
  8421   8422   1    1.4390e-01    2.5230e+05 ;    O11 - C1    
  8422   8423   1    1.0930e-01    2.8108e+05 ;     C1 - HR    
  8422   8424   1    1.0930e-01    2.8108e+05 ;     C1 - HS    
  8422   8425   1    1.5350e-01    2.5363e+05 ;     C1 - C2    
  8425   8426   1    1.0930e-01    2.8108e+05 ;     C2 - HX    
  8425   8427   1    1.5350e-01    2.5363e+05 ;     C2 - C3    
  8425   8454   1    1.4390e-01    2.5230e+05 ;     C2 - O21   
  8427   8428   1    1.0930e-01    2.8108e+05 ;     C3 - HA    
  8427   8429   1    1.0930e-01    2.8108e+05 ;     C3 - HB    
  8427   8430   1    1.4390e-01    2.5230e+05 ;     C3 - O31   
  8430   8431   1    1.6100e-01    1.9246e+05 ;    O31 - P31   
  8431   8432   1    1.6100e-01    1.9246e+05 ;    P31 - O32   
  8431   8452   1    1.4800e-01    4.3932e+05 ;    P31 - O33   
  8431   8453   1    1.4800e-01    4.3932e+05 ;    P31 - O34   
  8432   8433   1    1.4390e-01    2.5230e+05 ;    O32 - C31   
  8433   8434   1    1.0930e-01    2.8108e+05 ;    C31 - H1A   
  8433   8435   1    1.0930e-01    2.8108e+05 ;    C31 - H1B   
  8433   8436   1    1.5350e-01    2.5363e+05 ;    C31 - C32   
  8436   8437   1    1.0910e-01    2.8342e+05 ;    C32 - H2A   
  8436   8438   1    1.0910e-01    2.8342e+05 ;    C32 - H2B   
  8436   8439   1    1.4990e-01    2.4568e+05 ;    C32 - N31   
  8439   8440   1    1.4990e-01    2.4568e+05 ;    N31 - C33   
  8439   8444   1    1.4990e-01    2.4568e+05 ;    N31 - C34   
  8439   8448   1    1.4990e-01    2.4568e+05 ;    N31 - C35   
  8440   8441   1    1.0910e-01    2.8342e+05 ;    C33 - H3A   
  8440   8442   1    1.0910e-01    2.8342e+05 ;    C33 - H3B   
  8440   8443   1    1.0910e-01    2.8342e+05 ;    C33 - H3C   
  8444   8445   1    1.0910e-01    2.8342e+05 ;    C34 - H4A   
  8444   8446   1    1.0910e-01    2.8342e+05 ;    C34 - H4B   
  8444   8447   1    1.0910e-01    2.8342e+05 ;    C34 - H4C   
  8448   8449   1    1.0910e-01    2.8342e+05 ;    C35 - H5A   
  8448   8450   1    1.0910e-01    2.8342e+05 ;    C35 - H5B   
  8448   8451   1    1.0910e-01    2.8342e+05 ;    C35 - H5C   
  8454   8455   1    1.3430e-01    3.4418e+05 ;    O21 - C21   
  8455   8456   1    1.2140e-01    5.4225e+05 ;    C21 - O22   
  8455   8494   1    1.5080e-01    2.7472e+05 ;    C21 - C12   
  8457   8458   1    1.0920e-01    2.8225e+05 ;   H14T - C114  
  8458   8459   1    1.0920e-01    2.8225e+05 ;   C114 - H14R  
  8458   8460   1    1.0920e-01    2.8225e+05 ;   C114 - H14S  
  8458   8461   1    1.5350e-01    2.5363e+05 ;   C114 - C113  
  8461   8462   1    1.0920e-01    2.8225e+05 ;   C113 - H13R  
  8461   8463   1    1.0920e-01    2.8225e+05 ;   C113 - H13S  
  8461   8464   1    1.5350e-01    2.5363e+05 ;   C113 - C112  
  8464   8465   1    1.0920e-01    2.8225e+05 ;   C112 - H12R  
  8464   8466   1    1.0920e-01    2.8225e+05 ;   C112 - H12S  
  8464   8467   1    1.5350e-01    2.5363e+05 ;   C112 - C111  
  8467   8468   1    1.0920e-01    2.8225e+05 ;   C111 - H11R  
  8467   8469   1    1.0920e-01    2.8225e+05 ;   C111 - H11S  
  8467   8470   1    1.5350e-01    2.5363e+05 ;   C111 - C110  
  8470   8471   1    1.0920e-01    2.8225e+05 ;   C110 - H10R  
  8470   8472   1    1.0920e-01    2.8225e+05 ;   C110 - H10S  
  8470   8473   1    1.5350e-01    2.5363e+05 ;   C110 - C19   
  8473   8474   1    1.0920e-01    2.8225e+05 ;    C19 - H9R   
  8473   8475   1    1.0920e-01    2.8225e+05 ;    C19 - H9S   
  8473   8476   1    1.5350e-01    2.5363e+05 ;    C19 - C18   
  8476   8477   1    1.0920e-01    2.8225e+05 ;    C18 - H8R   
  8476   8478   1    1.0920e-01    2.8225e+05 ;    C18 - H8S   
  8476   8479   1    1.5350e-01    2.5363e+05 ;    C18 - C17   
  8479   8480   1    1.0920e-01    2.8225e+05 ;    C17 - H7R   
  8479   8481   1    1.0920e-01    2.8225e+05 ;    C17 - H7S   
  8479   8482   1    1.5350e-01    2.5363e+05 ;    C17 - C16   
  8482   8483   1    1.0920e-01    2.8225e+05 ;    C16 - H6R   
  8482   8484   1    1.0920e-01    2.8225e+05 ;    C16 - H6S   
  8482   8485   1    1.5350e-01    2.5363e+05 ;    C16 - C15   
  8485   8486   1    1.0920e-01    2.8225e+05 ;    C15 - H5R   
  8485   8487   1    1.0920e-01    2.8225e+05 ;    C15 - H5S   
  8485   8488   1    1.5350e-01    2.5363e+05 ;    C15 - C14   
  8488   8489   1    1.0920e-01    2.8225e+05 ;    C14 - H4R   
  8488   8490   1    1.0920e-01    2.8225e+05 ;    C14 - H4S   
  8488   8491   1    1.5350e-01    2.5363e+05 ;    C14 - C13   
  8491   8492   1    1.0920e-01    2.8225e+05 ;    C13 - H3R   
  8491   8493   1    1.0920e-01    2.8225e+05 ;    C13 - H3S   
  8491   8494   1    1.5350e-01    2.5363e+05 ;    C13 - C12   
  8494   8495   1    1.0920e-01    2.8225e+05 ;    C12 - H2R   
  8494   8496   1    1.0920e-01    2.8225e+05 ;    C12 - H2S   
  8497   8498   1    1.0920e-01    2.8225e+05 ;   H14T - C114  
  8498   8499   1    1.0920e-01    2.8225e+05 ;   C114 - H14R  
  8498   8500   1    1.0920e-01    2.8225e+05 ;   C114 - H14S  
  8498   8501   1    1.5350e-01    2.5363e+05 ;   C114 - C113  
  8501   8502   1    1.0920e-01    2.8225e+05 ;   C113 - H13R  
  8501   8503   1    1.0920e-01    2.8225e+05 ;   C113 - H13S  
  8501   8504   1    1.5350e-01    2.5363e+05 ;   C113 - C112  
  8504   8505   1    1.0920e-01    2.8225e+05 ;   C112 - H12R  
  8504   8506   1    1.0920e-01    2.8225e+05 ;   C112 - H12S  
  8504   8507   1    1.5350e-01    2.5363e+05 ;   C112 - C111  
  8507   8508   1    1.0920e-01    2.8225e+05 ;   C111 - H11R  
  8507   8509   1    1.0920e-01    2.8225e+05 ;   C111 - H11S  
  8507   8510   1    1.5350e-01    2.5363e+05 ;   C111 - C110  
  8510   8511   1    1.0920e-01    2.8225e+05 ;   C110 - H10R  
  8510   8512   1    1.0920e-01    2.8225e+05 ;   C110 - H10S  
  8510   8513   1    1.5350e-01    2.5363e+05 ;   C110 - C19   
  8513   8514   1    1.0920e-01    2.8225e+05 ;    C19 - H9R   
  8513   8515   1    1.0920e-01    2.8225e+05 ;    C19 - H9S   
  8513   8516   1    1.5350e-01    2.5363e+05 ;    C19 - C18   
  8516   8517   1    1.0920e-01    2.8225e+05 ;    C18 - H8R   
  8516   8518   1    1.0920e-01    2.8225e+05 ;    C18 - H8S   
  8516   8519   1    1.5350e-01    2.5363e+05 ;    C18 - C17   
  8519   8520   1    1.0920e-01    2.8225e+05 ;    C17 - H7R   
  8519   8521   1    1.0920e-01    2.8225e+05 ;    C17 - H7S   
  8519   8522   1    1.5350e-01    2.5363e+05 ;    C17 - C16   
  8522   8523   1    1.0920e-01    2.8225e+05 ;    C16 - H6R   
  8522   8524   1    1.0920e-01    2.8225e+05 ;    C16 - H6S   
  8522   8525   1    1.5350e-01    2.5363e+05 ;    C16 - C15   
  8525   8526   1    1.0920e-01    2.8225e+05 ;    C15 - H5R   
  8525   8527   1    1.0920e-01    2.8225e+05 ;    C15 - H5S   
  8525   8528   1    1.5350e-01    2.5363e+05 ;    C15 - C14   
  8528   8529   1    1.0920e-01    2.8225e+05 ;    C14 - H4R   
  8528   8530   1    1.0920e-01    2.8225e+05 ;    C14 - H4S   
  8528   8531   1    1.5350e-01    2.5363e+05 ;    C14 - C13   
  8531   8532   1    1.0920e-01    2.8225e+05 ;    C13 - H3R   
  8531   8533   1    1.0920e-01    2.8225e+05 ;    C13 - H3S   
  8531   8534   1    1.5350e-01    2.5363e+05 ;    C13 - C12   
  8534   8535   1    1.0920e-01    2.8225e+05 ;    C12 - H2R   
  8534   8536   1    1.0920e-01    2.8225e+05 ;    C12 - H2S   
  8534   8537   1    1.5080e-01    2.7472e+05 ;    C12 - C11   
  8537   8538   1    1.2140e-01    5.4225e+05 ;    C11 - O12   
  8537   8539   1    1.3430e-01    3.4418e+05 ;    C11 - O11   
  8539   8540   1    1.4390e-01    2.5230e+05 ;    O11 - C1    
  8540   8541   1    1.0930e-01    2.8108e+05 ;     C1 - HR    
  8540   8542   1    1.0930e-01    2.8108e+05 ;     C1 - HS    
  8540   8543   1    1.5350e-01    2.5363e+05 ;     C1 - C2    
  8543   8544   1    1.0930e-01    2.8108e+05 ;     C2 - HX    
  8543   8545   1    1.5350e-01    2.5363e+05 ;     C2 - C3    
  8543   8572   1    1.4390e-01    2.5230e+05 ;     C2 - O21   
  8545   8546   1    1.0930e-01    2.8108e+05 ;     C3 - HA    
  8545   8547   1    1.0930e-01    2.8108e+05 ;     C3 - HB    
  8545   8548   1    1.4390e-01    2.5230e+05 ;     C3 - O31   
  8548   8549   1    1.6100e-01    1.9246e+05 ;    O31 - P31   
  8549   8550   1    1.6100e-01    1.9246e+05 ;    P31 - O32   
  8549   8570   1    1.4800e-01    4.3932e+05 ;    P31 - O33   
  8549   8571   1    1.4800e-01    4.3932e+05 ;    P31 - O34   
  8550   8551   1    1.4390e-01    2.5230e+05 ;    O32 - C31   
  8551   8552   1    1.0930e-01    2.8108e+05 ;    C31 - H1A   
  8551   8553   1    1.0930e-01    2.8108e+05 ;    C31 - H1B   
  8551   8554   1    1.5350e-01    2.5363e+05 ;    C31 - C32   
  8554   8555   1    1.0910e-01    2.8342e+05 ;    C32 - H2A   
  8554   8556   1    1.0910e-01    2.8342e+05 ;    C32 - H2B   
  8554   8557   1    1.4990e-01    2.4568e+05 ;    C32 - N31   
  8557   8558   1    1.4990e-01    2.4568e+05 ;    N31 - C33   
  8557   8562   1    1.4990e-01    2.4568e+05 ;    N31 - C34   
  8557   8566   1    1.4990e-01    2.4568e+05 ;    N31 - C35   
  8558   8559   1    1.0910e-01    2.8342e+05 ;    C33 - H3A   
  8558   8560   1    1.0910e-01    2.8342e+05 ;    C33 - H3B   
  8558   8561   1    1.0910e-01    2.8342e+05 ;    C33 - H3C   
  8562   8563   1    1.0910e-01    2.8342e+05 ;    C34 - H4A   
  8562   8564   1    1.0910e-01    2.8342e+05 ;    C34 - H4B   
  8562   8565   1    1.0910e-01    2.8342e+05 ;    C34 - H4C   
  8566   8567   1    1.0910e-01    2.8342e+05 ;    C35 - H5A   
  8566   8568   1    1.0910e-01    2.8342e+05 ;    C35 - H5B   
  8566   8569   1    1.0910e-01    2.8342e+05 ;    C35 - H5C   
  8572   8573   1    1.3430e-01    3.4418e+05 ;    O21 - C21   
  8573   8574   1    1.2140e-01    5.4225e+05 ;    C21 - O22   
  8573   8612   1    1.5080e-01    2.7472e+05 ;    C21 - C12   
  8575   8576   1    1.0920e-01    2.8225e+05 ;   H14T - C114  
  8576   8577   1    1.0920e-01    2.8225e+05 ;   C114 - H14R  
  8576   8578   1    1.0920e-01    2.8225e+05 ;   C114 - H14S  
  8576   8579   1    1.5350e-01    2.5363e+05 ;   C114 - C113  
  8579   8580   1    1.0920e-01    2.8225e+05 ;   C113 - H13R  
  8579   8581   1    1.0920e-01    2.8225e+05 ;   C113 - H13S  
  8579   8582   1    1.5350e-01    2.5363e+05 ;   C113 - C112  
  8582   8583   1    1.0920e-01    2.8225e+05 ;   C112 - H12R  
  8582   8584   1    1.0920e-01    2.8225e+05 ;   C112 - H12S  
  8582   8585   1    1.5350e-01    2.5363e+05 ;   C112 - C111  
  8585   8586   1    1.0920e-01    2.8225e+05 ;   C111 - H11R  
  8585   8587   1    1.0920e-01    2.8225e+05 ;   C111 - H11S  
  8585   8588   1    1.5350e-01    2.5363e+05 ;   C111 - C110  
  8588   8589   1    1.0920e-01    2.8225e+05 ;   C110 - H10R  
  8588   8590   1    1.0920e-01    2.8225e+05 ;   C110 - H10S  
  8588   8591   1    1.5350e-01    2.5363e+05 ;   C110 - C19   
  8591   8592   1    1.0920e-01    2.8225e+05 ;    C19 - H9R   
  8591   8593   1    1.0920e-01    2.8225e+05 ;    C19 - H9S   
  8591   8594   1    1.5350e-01    2.5363e+05 ;    C19 - C18   
  8594   8595   1    1.0920e-01    2.8225e+05 ;    C18 - H8R   
  8594   8596   1    1.0920e-01    2.8225e+05 ;    C18 - H8S   
  8594   8597   1    1.5350e-01    2.5363e+05 ;    C18 - C17   
  8597   8598   1    1.0920e-01    2.8225e+05 ;    C17 - H7R   
  8597   8599   1    1.0920e-01    2.8225e+05 ;    C17 - H7S   
  8597   8600   1    1.5350e-01    2.5363e+05 ;    C17 - C16   
  8600   8601   1    1.0920e-01    2.8225e+05 ;    C16 - H6R   
  8600   8602   1    1.0920e-01    2.8225e+05 ;    C16 - H6S   
  8600   8603   1    1.5350e-01    2.5363e+05 ;    C16 - C15   
  8603   8604   1    1.0920e-01    2.8225e+05 ;    C15 - H5R   
  8603   8605   1    1.0920e-01    2.8225e+05 ;    C15 - H5S   
  8603   8606   1    1.5350e-01    2.5363e+05 ;    C15 - C14   
  8606   8607   1    1.0920e-01    2.8225e+05 ;    C14 - H4R   
  8606   8608   1    1.0920e-01    2.8225e+05 ;    C14 - H4S   
  8606   8609   1    1.5350e-01    2.5363e+05 ;    C14 - C13   
  8609   8610   1    1.0920e-01    2.8225e+05 ;    C13 - H3R   
  8609   8611   1    1.0920e-01    2.8225e+05 ;    C13 - H3S   
  8609   8612   1    1.5350e-01    2.5363e+05 ;    C13 - C12   
  8612   8613   1    1.0920e-01    2.8225e+05 ;    C12 - H2R   
  8612   8614   1    1.0920e-01    2.8225e+05 ;    C12 - H2S   
  8615   8616   1    1.0920e-01    2.8225e+05 ;   H14T - C114  
  8616   8617   1    1.0920e-01    2.8225e+05 ;   C114 - H14R  
  8616   8618   1    1.0920e-01    2.8225e+05 ;   C114 - H14S  
  8616   8619   1    1.5350e-01    2.5363e+05 ;   C114 - C113  
  8619   8620   1    1.0920e-01    2.8225e+05 ;   C113 - H13R  
  8619   8621   1    1.0920e-01    2.8225e+05 ;   C113 - H13S  
  8619   8622   1    1.5350e-01    2.5363e+05 ;   C113 - C112  
  8622   8623   1    1.0920e-01    2.8225e+05 ;   C112 - H12R  
  8622   8624   1    1.0920e-01    2.8225e+05 ;   C112 - H12S  
  8622   8625   1    1.5350e-01    2.5363e+05 ;   C112 - C111  
  8625   8626   1    1.0920e-01    2.8225e+05 ;   C111 - H11R  
  8625   8627   1    1.0920e-01    2.8225e+05 ;   C111 - H11S  
  8625   8628   1    1.5350e-01    2.5363e+05 ;   C111 - C110  
  8628   8629   1    1.0920e-01    2.8225e+05 ;   C110 - H10R  
  8628   8630   1    1.0920e-01    2.8225e+05 ;   C110 - H10S  
  8628   8631   1    1.5350e-01    2.5363e+05 ;   C110 - C19   
  8631   8632   1    1.0920e-01    2.8225e+05 ;    C19 - H9R   
  8631   8633   1    1.0920e-01    2.8225e+05 ;    C19 - H9S   
  8631   8634   1    1.5350e-01    2.5363e+05 ;    C19 - C18   
  8634   8635   1    1.0920e-01    2.8225e+05 ;    C18 - H8R   
  8634   8636   1    1.0920e-01    2.8225e+05 ;    C18 - H8S   
  8634   8637   1    1.5350e-01    2.5363e+05 ;    C18 - C17   
  8637   8638   1    1.0920e-01    2.8225e+05 ;    C17 - H7R   
  8637   8639   1    1.0920e-01    2.8225e+05 ;    C17 - H7S   
  8637   8640   1    1.5350e-01    2.5363e+05 ;    C17 - C16   
  8640   8641   1    1.0920e-01    2.8225e+05 ;    C16 - H6R   
  8640   8642   1    1.0920e-01    2.8225e+05 ;    C16 - H6S   
  8640   8643   1    1.5350e-01    2.5363e+05 ;    C16 - C15   
  8643   8644   1    1.0920e-01    2.8225e+05 ;    C15 - H5R   
  8643   8645   1    1.0920e-01    2.8225e+05 ;    C15 - H5S   
  8643   8646   1    1.5350e-01    2.5363e+05 ;    C15 - C14   
  8646   8647   1    1.0920e-01    2.8225e+05 ;    C14 - H4R   
  8646   8648   1    1.0920e-01    2.8225e+05 ;    C14 - H4S   
  8646   8649   1    1.5350e-01    2.5363e+05 ;    C14 - C13   
  8649   8650   1    1.0920e-01    2.8225e+05 ;    C13 - H3R   
  8649   8651   1    1.0920e-01    2.8225e+05 ;    C13 - H3S   
  8649   8652   1    1.5350e-01    2.5363e+05 ;    C13 - C12   
  8652   8653   1    1.0920e-01    2.8225e+05 ;    C12 - H2R   
  8652   8654   1    1.0920e-01    2.8225e+05 ;    C12 - H2S   
  8652   8655   1    1.5080e-01    2.7472e+05 ;    C12 - C11   
  8655   8656   1    1.2140e-01    5.4225e+05 ;    C11 - O12   
  8655   8657   1    1.3430e-01    3.4418e+05 ;    C11 - O11   
  8657   8658   1    1.4390e-01    2.5230e+05 ;    O11 - C1    
  8658   8659   1    1.0930e-01    2.8108e+05 ;     C1 - HR    
  8658   8660   1    1.0930e-01    2.8108e+05 ;     C1 - HS    
  8658   8661   1    1.5350e-01    2.5363e+05 ;     C1 - C2    
  8661   8662   1    1.0930e-01    2.8108e+05 ;     C2 - HX    
  8661   8663   1    1.5350e-01    2.5363e+05 ;     C2 - C3    
  8661   8690   1    1.4390e-01    2.5230e+05 ;     C2 - O21   
  8663   8664   1    1.0930e-01    2.8108e+05 ;     C3 - HA    
  8663   8665   1    1.0930e-01    2.8108e+05 ;     C3 - HB    
  8663   8666   1    1.4390e-01    2.5230e+05 ;     C3 - O31   
  8666   8667   1    1.6100e-01    1.9246e+05 ;    O31 - P31   
  8667   8668   1    1.6100e-01    1.9246e+05 ;    P31 - O32   
  8667   8688   1    1.4800e-01    4.3932e+05 ;    P31 - O33   
  8667   8689   1    1.4800e-01    4.3932e+05 ;    P31 - O34   
  8668   8669   1    1.4390e-01    2.5230e+05 ;    O32 - C31   
  8669   8670   1    1.0930e-01    2.8108e+05 ;    C31 - H1A   
  8669   8671   1    1.0930e-01    2.8108e+05 ;    C31 - H1B   
  8669   8672   1    1.5350e-01    2.5363e+05 ;    C31 - C32   
  8672   8673   1    1.0910e-01    2.8342e+05 ;    C32 - H2A   
  8672   8674   1    1.0910e-01    2.8342e+05 ;    C32 - H2B   
  8672   8675   1    1.4990e-01    2.4568e+05 ;    C32 - N31   
  8675   8676   1    1.4990e-01    2.4568e+05 ;    N31 - C33   
  8675   8680   1    1.4990e-01    2.4568e+05 ;    N31 - C34   
  8675   8684   1    1.4990e-01    2.4568e+05 ;    N31 - C35   
  8676   8677   1    1.0910e-01    2.8342e+05 ;    C33 - H3A   
  8676   8678   1    1.0910e-01    2.8342e+05 ;    C33 - H3B   
  8676   8679   1    1.0910e-01    2.8342e+05 ;    C33 - H3C   
  8680   8681   1    1.0910e-01    2.8342e+05 ;    C34 - H4A   
  8680   8682   1    1.0910e-01    2.8342e+05 ;    C34 - H4B   
  8680   8683   1    1.0910e-01    2.8342e+05 ;    C34 - H4C   
  8684   8685   1    1.0910e-01    2.8342e+05 ;    C35 - H5A   
  8684   8686   1    1.0910e-01    2.8342e+05 ;    C35 - H5B   
  8684   8687   1    1.0910e-01    2.8342e+05 ;    C35 - H5C   
  8690   8691   1    1.3430e-01    3.4418e+05 ;    O21 - C21   
  8691   8692   1    1.2140e-01    5.4225e+05 ;    C21 - O22   
  8691   8730   1    1.5080e-01    2.7472e+05 ;    C21 - C12   
  8693   8694   1    1.0920e-01    2.8225e+05 ;   H14T - C114  
  8694   8695   1    1.0920e-01    2.8225e+05 ;   C114 - H14R  
  8694   8696   1    1.0920e-01    2.8225e+05 ;   C114 - H14S  
  8694   8697   1    1.5350e-01    2.5363e+05 ;   C114 - C113  
  8697   8698   1    1.0920e-01    2.8225e+05 ;   C113 - H13R  
  8697   8699   1    1.0920e-01    2.8225e+05 ;   C113 - H13S  
  8697   8700   1    1.5350e-01    2.5363e+05 ;   C113 - C112  
  8700   8701   1    1.0920e-01    2.8225e+05 ;   C112 - H12R  
  8700   8702   1    1.0920e-01    2.8225e+05 ;   C112 - H12S  
  8700   8703   1    1.5350e-01    2.5363e+05 ;   C112 - C111  
  8703   8704   1    1.0920e-01    2.8225e+05 ;   C111 - H11R  
  8703   8705   1    1.0920e-01    2.8225e+05 ;   C111 - H11S  
  8703   8706   1    1.5350e-01    2.5363e+05 ;   C111 - C110  
  8706   8707   1    1.0920e-01    2.8225e+05 ;   C110 - H10R  
  8706   8708   1    1.0920e-01    2.8225e+05 ;   C110 - H10S  
  8706   8709   1    1.5350e-01    2.5363e+05 ;   C110 - C19   
  8709   8710   1    1.0920e-01    2.8225e+05 ;    C19 - H9R   
  8709   8711   1    1.0920e-01    2.8225e+05 ;    C19 - H9S   
  8709   8712   1    1.5350e-01    2.5363e+05 ;    C19 - C18   
  8712   8713   1    1.0920e-01    2.8225e+05 ;    C18 - H8R   
  8712   8714   1    1.0920e-01    2.8225e+05 ;    C18 - H8S   
  8712   8715   1    1.5350e-01    2.5363e+05 ;    C18 - C17   
  8715   8716   1    1.0920e-01    2.8225e+05 ;    C17 - H7R   
  8715   8717   1    1.0920e-01    2.8225e+05 ;    C17 - H7S   
  8715   8718   1    1.5350e-01    2.5363e+05 ;    C17 - C16   
  8718   8719   1    1.0920e-01    2.8225e+05 ;    C16 - H6R   
  8718   8720   1    1.0920e-01    2.8225e+05 ;    C16 - H6S   
  8718   8721   1    1.5350e-01    2.5363e+05 ;    C16 - C15   
  8721   8722   1    1.0920e-01    2.8225e+05 ;    C15 - H5R   
  8721   8723   1    1.0920e-01    2.8225e+05 ;    C15 - H5S   
  8721   8724   1    1.5350e-01    2.5363e+05 ;    C15 - C14   
  8724   8725   1    1.0920e-01    2.8225e+05 ;    C14 - H4R   
  8724   8726   1    1.0920e-01    2.8225e+05 ;    C14 - H4S   
  8724   8727   1    1.5350e-01    2.5363e+05 ;    C14 - C13   
  8727   8728   1    1.0920e-01    2.8225e+05 ;    C13 - H3R   
  8727   8729   1    1.0920e-01    2.8225e+05 ;    C13 - H3S   
  8727   8730   1    1.5350e-01    2.5363e+05 ;    C13 - C12   
  8730   8731   1    1.0920e-01    2.8225e+05 ;    C12 - H2R   
  8730   8732   1    1.0920e-01    2.8225e+05 ;    C12 - H2S   
  8733   8734   1    1.0920e-01    2.8225e+05 ;   H14T - C114  
  8734   8735   1    1.0920e-01    2.8225e+05 ;   C114 - H14R  
  8734   8736   1    1.0920e-01    2.8225e+05 ;   C114 - H14S  
  8734   8737   1    1.5350e-01    2.5363e+05 ;   C114 - C113  
  8737   8738   1    1.0920e-01    2.8225e+05 ;   C113 - H13R  
  8737   8739   1    1.0920e-01    2.8225e+05 ;   C113 - H13S  
  8737   8740   1    1.5350e-01    2.5363e+05 ;   C113 - C112  
  8740   8741   1    1.0920e-01    2.8225e+05 ;   C112 - H12R  
  8740   8742   1    1.0920e-01    2.8225e+05 ;   C112 - H12S  
  8740   8743   1    1.5350e-01    2.5363e+05 ;   C112 - C111  
  8743   8744   1    1.0920e-01    2.8225e+05 ;   C111 - H11R  
  8743   8745   1    1.0920e-01    2.8225e+05 ;   C111 - H11S  
  8743   8746   1    1.5350e-01    2.5363e+05 ;   C111 - C110  
  8746   8747   1    1.0920e-01    2.8225e+05 ;   C110 - H10R  
  8746   8748   1    1.0920e-01    2.8225e+05 ;   C110 - H10S  
  8746   8749   1    1.5350e-01    2.5363e+05 ;   C110 - C19   
  8749   8750   1    1.0920e-01    2.8225e+05 ;    C19 - H9R   
  8749   8751   1    1.0920e-01    2.8225e+05 ;    C19 - H9S   
  8749   8752   1    1.5350e-01    2.5363e+05 ;    C19 - C18   
  8752   8753   1    1.0920e-01    2.8225e+05 ;    C18 - H8R   
  8752   8754   1    1.0920e-01    2.8225e+05 ;    C18 - H8S   
  8752   8755   1    1.5350e-01    2.5363e+05 ;    C18 - C17   
  8755   8756   1    1.0920e-01    2.8225e+05 ;    C17 - H7R   
  8755   8757   1    1.0920e-01    2.8225e+05 ;    C17 - H7S   
  8755   8758   1    1.5350e-01    2.5363e+05 ;    C17 - C16   
  8758   8759   1    1.0920e-01    2.8225e+05 ;    C16 - H6R   
  8758   8760   1    1.0920e-01    2.8225e+05 ;    C16 - H6S   
  8758   8761   1    1.5350e-01    2.5363e+05 ;    C16 - C15   
  8761   8762   1    1.0920e-01    2.8225e+05 ;    C15 - H5R   
  8761   8763   1    1.0920e-01    2.8225e+05 ;    C15 - H5S   
  8761   8764   1    1.5350e-01    2.5363e+05 ;    C15 - C14   
  8764   8765   1    1.0920e-01    2.8225e+05 ;    C14 - H4R   
  8764   8766   1    1.0920e-01    2.8225e+05 ;    C14 - H4S   
  8764   8767   1    1.5350e-01    2.5363e+05 ;    C14 - C13   
  8767   8768   1    1.0920e-01    2.8225e+05 ;    C13 - H3R   
  8767   8769   1    1.0920e-01    2.8225e+05 ;    C13 - H3S   
  8767   8770   1    1.5350e-01    2.5363e+05 ;    C13 - C12   
  8770   8771   1    1.0920e-01    2.8225e+05 ;    C12 - H2R   
  8770   8772   1    1.0920e-01    2.8225e+05 ;    C12 - H2S   
  8770   8773   1    1.5080e-01    2.7472e+05 ;    C12 - C11   
  8773   8774   1    1.2140e-01    5.4225e+05 ;    C11 - O12   
  8773   8775   1    1.3430e-01    3.4418e+05 ;    C11 - O11   
  8775   8776   1    1.4390e-01    2.5230e+05 ;    O11 - C1    
  8776   8777   1    1.0930e-01    2.8108e+05 ;     C1 - HR    
  8776   8778   1    1.0930e-01    2.8108e+05 ;     C1 - HS    
  8776   8779   1    1.5350e-01    2.5363e+05 ;     C1 - C2    
  8779   8780   1    1.0930e-01    2.8108e+05 ;     C2 - HX    
  8779   8781   1    1.5350e-01    2.5363e+05 ;     C2 - C3    
  8779   8808   1    1.4390e-01    2.5230e+05 ;     C2 - O21   
  8781   8782   1    1.0930e-01    2.8108e+05 ;     C3 - HA    
  8781   8783   1    1.0930e-01    2.8108e+05 ;     C3 - HB    
  8781   8784   1    1.4390e-01    2.5230e+05 ;     C3 - O31   
  8784   8785   1    1.6100e-01    1.9246e+05 ;    O31 - P31   
  8785   8786   1    1.6100e-01    1.9246e+05 ;    P31 - O32   
  8785   8806   1    1.4800e-01    4.3932e+05 ;    P31 - O33   
  8785   8807   1    1.4800e-01    4.3932e+05 ;    P31 - O34   
  8786   8787   1    1.4390e-01    2.5230e+05 ;    O32 - C31   
  8787   8788   1    1.0930e-01    2.8108e+05 ;    C31 - H1A   
  8787   8789   1    1.0930e-01    2.8108e+05 ;    C31 - H1B   
  8787   8790   1    1.5350e-01    2.5363e+05 ;    C31 - C32   
  8790   8791   1    1.0910e-01    2.8342e+05 ;    C32 - H2A   
  8790   8792   1    1.0910e-01    2.8342e+05 ;    C32 - H2B   
  8790   8793   1    1.4990e-01    2.4568e+05 ;    C32 - N31   
  8793   8794   1    1.4990e-01    2.4568e+05 ;    N31 - C33   
  8793   8798   1    1.4990e-01    2.4568e+05 ;    N31 - C34   
  8793   8802   1    1.4990e-01    2.4568e+05 ;    N31 - C35   
  8794   8795   1    1.0910e-01    2.8342e+05 ;    C33 - H3A   
  8794   8796   1    1.0910e-01    2.8342e+05 ;    C33 - H3B   
  8794   8797   1    1.0910e-01    2.8342e+05 ;    C33 - H3C   
  8798   8799   1    1.0910e-01    2.8342e+05 ;    C34 - H4A   
  8798   8800   1    1.0910e-01    2.8342e+05 ;    C34 - H4B   
  8798   8801   1    1.0910e-01    2.8342e+05 ;    C34 - H4C   
  8802   8803   1    1.0910e-01    2.8342e+05 ;    C35 - H5A   
  8802   8804   1    1.0910e-01    2.8342e+05 ;    C35 - H5B   
  8802   8805   1    1.0910e-01    2.8342e+05 ;    C35 - H5C   
  8808   8809   1    1.3430e-01    3.4418e+05 ;    O21 - C21   
  8809   8810   1    1.2140e-01    5.4225e+05 ;    C21 - O22   
  8809   8848   1    1.5080e-01    2.7472e+05 ;    C21 - C12   
  8811   8812   1    1.0920e-01    2.8225e+05 ;   H14T - C114  
  8812   8813   1    1.0920e-01    2.8225e+05 ;   C114 - H14R  
  8812   8814   1    1.0920e-01    2.8225e+05 ;   C114 - H14S  
  8812   8815   1    1.5350e-01    2.5363e+05 ;   C114 - C113  
  8815   8816   1    1.0920e-01    2.8225e+05 ;   C113 - H13R  
  8815   8817   1    1.0920e-01    2.8225e+05 ;   C113 - H13S  
  8815   8818   1    1.5350e-01    2.5363e+05 ;   C113 - C112  
  8818   8819   1    1.0920e-01    2.8225e+05 ;   C112 - H12R  
  8818   8820   1    1.0920e-01    2.8225e+05 ;   C112 - H12S  
  8818   8821   1    1.5350e-01    2.5363e+05 ;   C112 - C111  
  8821   8822   1    1.0920e-01    2.8225e+05 ;   C111 - H11R  
  8821   8823   1    1.0920e-01    2.8225e+05 ;   C111 - H11S  
  8821   8824   1    1.5350e-01    2.5363e+05 ;   C111 - C110  
  8824   8825   1    1.0920e-01    2.8225e+05 ;   C110 - H10R  
  8824   8826   1    1.0920e-01    2.8225e+05 ;   C110 - H10S  
  8824   8827   1    1.5350e-01    2.5363e+05 ;   C110 - C19   
  8827   8828   1    1.0920e-01    2.8225e+05 ;    C19 - H9R   
  8827   8829   1    1.0920e-01    2.8225e+05 ;    C19 - H9S   
  8827   8830   1    1.5350e-01    2.5363e+05 ;    C19 - C18   
  8830   8831   1    1.0920e-01    2.8225e+05 ;    C18 - H8R   
  8830   8832   1    1.0920e-01    2.8225e+05 ;    C18 - H8S   
  8830   8833   1    1.5350e-01    2.5363e+05 ;    C18 - C17   
  8833   8834   1    1.0920e-01    2.8225e+05 ;    C17 - H7R   
  8833   8835   1    1.0920e-01    2.8225e+05 ;    C17 - H7S   
  8833   8836   1    1.5350e-01    2.5363e+05 ;    C17 - C16   
  8836   8837   1    1.0920e-01    2.8225e+05 ;    C16 - H6R   
  8836   8838   1    1.0920e-01    2.8225e+05 ;    C16 - H6S   
  8836   8839   1    1.5350e-01    2.5363e+05 ;    C16 - C15   
  8839   8840   1    1.0920e-01    2.8225e+05 ;    C15 - H5R   
  8839   8841   1    1.0920e-01    2.8225e+05 ;    C15 - H5S   
  8839   8842   1    1.5350e-01    2.5363e+05 ;    C15 - C14   
  8842   8843   1    1.0920e-01    2.8225e+05 ;    C14 - H4R   
  8842   8844   1    1.0920e-01    2.8225e+05 ;    C14 - H4S   
  8842   8845   1    1.5350e-01    2.5363e+05 ;    C14 - C13   
  8845   8846   1    1.0920e-01    2.8225e+05 ;    C13 - H3R   
  8845   8847   1    1.0920e-01    2.8225e+05 ;    C13 - H3S   
  8845   8848   1    1.5350e-01    2.5363e+05 ;    C13 - C12   
  8848   8849   1    1.0920e-01    2.8225e+05 ;    C12 - H2R   
  8848   8850   1    1.0920e-01    2.8225e+05 ;    C12 - H2S   
  8851   8852   1    1.0920e-01    2.8225e+05 ;   H14T - C114  
  8852   8853   1    1.0920e-01    2.8225e+05 ;   C114 - H14R  
  8852   8854   1    1.0920e-01    2.8225e+05 ;   C114 - H14S  
  8852   8855   1    1.5350e-01    2.5363e+05 ;   C114 - C113  
  8855   8856   1    1.0920e-01    2.8225e+05 ;   C113 - H13R  
  8855   8857   1    1.0920e-01    2.8225e+05 ;   C113 - H13S  
  8855   8858   1    1.5350e-01    2.5363e+05 ;   C113 - C112  
  8858   8859   1    1.0920e-01    2.8225e+05 ;   C112 - H12R  
  8858   8860   1    1.0920e-01    2.8225e+05 ;   C112 - H12S  
  8858   8861   1    1.5350e-01    2.5363e+05 ;   C112 - C111  
  8861   8862   1    1.0920e-01    2.8225e+05 ;   C111 - H11R  
  8861   8863   1    1.0920e-01    2.8225e+05 ;   C111 - H11S  
  8861   8864   1    1.5350e-01    2.5363e+05 ;   C111 - C110  
  8864   8865   1    1.0920e-01    2.8225e+05 ;   C110 - H10R  
  8864   8866   1    1.0920e-01    2.8225e+05 ;   C110 - H10S  
  8864   8867   1    1.5350e-01    2.5363e+05 ;   C110 - C19   
  8867   8868   1    1.0920e-01    2.8225e+05 ;    C19 - H9R   
  8867   8869   1    1.0920e-01    2.8225e+05 ;    C19 - H9S   
  8867   8870   1    1.5350e-01    2.5363e+05 ;    C19 - C18   
  8870   8871   1    1.0920e-01    2.8225e+05 ;    C18 - H8R   
  8870   8872   1    1.0920e-01    2.8225e+05 ;    C18 - H8S   
  8870   8873   1    1.5350e-01    2.5363e+05 ;    C18 - C17   
  8873   8874   1    1.0920e-01    2.8225e+05 ;    C17 - H7R   
  8873   8875   1    1.0920e-01    2.8225e+05 ;    C17 - H7S   
  8873   8876   1    1.5350e-01    2.5363e+05 ;    C17 - C16   
  8876   8877   1    1.0920e-01    2.8225e+05 ;    C16 - H6R   
  8876   8878   1    1.0920e-01    2.8225e+05 ;    C16 - H6S   
  8876   8879   1    1.5350e-01    2.5363e+05 ;    C16 - C15   
  8879   8880   1    1.0920e-01    2.8225e+05 ;    C15 - H5R   
  8879   8881   1    1.0920e-01    2.8225e+05 ;    C15 - H5S   
  8879   8882   1    1.5350e-01    2.5363e+05 ;    C15 - C14   
  8882   8883   1    1.0920e-01    2.8225e+05 ;    C14 - H4R   
  8882   8884   1    1.0920e-01    2.8225e+05 ;    C14 - H4S   
  8882   8885   1    1.5350e-01    2.5363e+05 ;    C14 - C13   
  8885   8886   1    1.0920e-01    2.8225e+05 ;    C13 - H3R   
  8885   8887   1    1.0920e-01    2.8225e+05 ;    C13 - H3S   
  8885   8888   1    1.5350e-01    2.5363e+05 ;    C13 - C12   
  8888   8889   1    1.0920e-01    2.8225e+05 ;    C12 - H2R   
  8888   8890   1    1.0920e-01    2.8225e+05 ;    C12 - H2S   
  8888   8891   1    1.5080e-01    2.7472e+05 ;    C12 - C11   
  8891   8892   1    1.2140e-01    5.4225e+05 ;    C11 - O12   
  8891   8893   1    1.3430e-01    3.4418e+05 ;    C11 - O11   
  8893   8894   1    1.4390e-01    2.5230e+05 ;    O11 - C1    
  8894   8895   1    1.0930e-01    2.8108e+05 ;     C1 - HR    
  8894   8896   1    1.0930e-01    2.8108e+05 ;     C1 - HS    
  8894   8897   1    1.5350e-01    2.5363e+05 ;     C1 - C2    
  8897   8898   1    1.0930e-01    2.8108e+05 ;     C2 - HX    
  8897   8899   1    1.5350e-01    2.5363e+05 ;     C2 - C3    
  8897   8926   1    1.4390e-01    2.5230e+05 ;     C2 - O21   
  8899   8900   1    1.0930e-01    2.8108e+05 ;     C3 - HA    
  8899   8901   1    1.0930e-01    2.8108e+05 ;     C3 - HB    
  8899   8902   1    1.4390e-01    2.5230e+05 ;     C3 - O31   
  8902   8903   1    1.6100e-01    1.9246e+05 ;    O31 - P31   
  8903   8904   1    1.6100e-01    1.9246e+05 ;    P31 - O32   
  8903   8924   1    1.4800e-01    4.3932e+05 ;    P31 - O33   
  8903   8925   1    1.4800e-01    4.3932e+05 ;    P31 - O34   
  8904   8905   1    1.4390e-01    2.5230e+05 ;    O32 - C31   
  8905   8906   1    1.0930e-01    2.8108e+05 ;    C31 - H1A   
  8905   8907   1    1.0930e-01    2.8108e+05 ;    C31 - H1B   
  8905   8908   1    1.5350e-01    2.5363e+05 ;    C31 - C32   
  8908   8909   1    1.0910e-01    2.8342e+05 ;    C32 - H2A   
  8908   8910   1    1.0910e-01    2.8342e+05 ;    C32 - H2B   
  8908   8911   1    1.4990e-01    2.4568e+05 ;    C32 - N31   
  8911   8912   1    1.4990e-01    2.4568e+05 ;    N31 - C33   
  8911   8916   1    1.4990e-01    2.4568e+05 ;    N31 - C34   
  8911   8920   1    1.4990e-01    2.4568e+05 ;    N31 - C35   
  8912   8913   1    1.0910e-01    2.8342e+05 ;    C33 - H3A   
  8912   8914   1    1.0910e-01    2.8342e+05 ;    C33 - H3B   
  8912   8915   1    1.0910e-01    2.8342e+05 ;    C33 - H3C   
  8916   8917   1    1.0910e-01    2.8342e+05 ;    C34 - H4A   
  8916   8918   1    1.0910e-01    2.8342e+05 ;    C34 - H4B   
  8916   8919   1    1.0910e-01    2.8342e+05 ;    C34 - H4C   
  8920   8921   1    1.0910e-01    2.8342e+05 ;    C35 - H5A   
  8920   8922   1    1.0910e-01    2.8342e+05 ;    C35 - H5B   
  8920   8923   1    1.0910e-01    2.8342e+05 ;    C35 - H5C   
  8926   8927   1    1.3430e-01    3.4418e+05 ;    O21 - C21   
  8927   8928   1    1.2140e-01    5.4225e+05 ;    C21 - O22   
  8927   8966   1    1.5080e-01    2.7472e+05 ;    C21 - C12   
  8929   8930   1    1.0920e-01    2.8225e+05 ;   H14T - C114  
  8930   8931   1    1.0920e-01    2.8225e+05 ;   C114 - H14R  
  8930   8932   1    1.0920e-01    2.8225e+05 ;   C114 - H14S  
  8930   8933   1    1.5350e-01    2.5363e+05 ;   C114 - C113  
  8933   8934   1    1.0920e-01    2.8225e+05 ;   C113 - H13R  
  8933   8935   1    1.0920e-01    2.8225e+05 ;   C113 - H13S  
  8933   8936   1    1.5350e-01    2.5363e+05 ;   C113 - C112  
  8936   8937   1    1.0920e-01    2.8225e+05 ;   C112 - H12R  
  8936   8938   1    1.0920e-01    2.8225e+05 ;   C112 - H12S  
  8936   8939   1    1.5350e-01    2.5363e+05 ;   C112 - C111  
  8939   8940   1    1.0920e-01    2.8225e+05 ;   C111 - H11R  
  8939   8941   1    1.0920e-01    2.8225e+05 ;   C111 - H11S  
  8939   8942   1    1.5350e-01    2.5363e+05 ;   C111 - C110  
  8942   8943   1    1.0920e-01    2.8225e+05 ;   C110 - H10R  
  8942   8944   1    1.0920e-01    2.8225e+05 ;   C110 - H10S  
  8942   8945   1    1.5350e-01    2.5363e+05 ;   C110 - C19   
  8945   8946   1    1.0920e-01    2.8225e+05 ;    C19 - H9R   
  8945   8947   1    1.0920e-01    2.8225e+05 ;    C19 - H9S   
  8945   8948   1    1.5350e-01    2.5363e+05 ;    C19 - C18   
  8948   8949   1    1.0920e-01    2.8225e+05 ;    C18 - H8R   
  8948   8950   1    1.0920e-01    2.8225e+05 ;    C18 - H8S   
  8948   8951   1    1.5350e-01    2.5363e+05 ;    C18 - C17   
  8951   8952   1    1.0920e-01    2.8225e+05 ;    C17 - H7R   
  8951   8953   1    1.0920e-01    2.8225e+05 ;    C17 - H7S   
  8951   8954   1    1.5350e-01    2.5363e+05 ;    C17 - C16   
  8954   8955   1    1.0920e-01    2.8225e+05 ;    C16 - H6R   
  8954   8956   1    1.0920e-01    2.8225e+05 ;    C16 - H6S   
  8954   8957   1    1.5350e-01    2.5363e+05 ;    C16 - C15   
  8957   8958   1    1.0920e-01    2.8225e+05 ;    C15 - H5R   
  8957   8959   1    1.0920e-01    2.8225e+05 ;    C15 - H5S   
  8957   8960   1    1.5350e-01    2.5363e+05 ;    C15 - C14   
  8960   8961   1    1.0920e-01    2.8225e+05 ;    C14 - H4R   
  8960   8962   1    1.0920e-01    2.8225e+05 ;    C14 - H4S   
  8960   8963   1    1.5350e-01    2.5363e+05 ;    C14 - C13   
  8963   8964   1    1.0920e-01    2.8225e+05 ;    C13 - H3R   
  8963   8965   1    1.0920e-01    2.8225e+05 ;    C13 - H3S   
  8963   8966   1    1.5350e-01    2.5363e+05 ;    C13 - C12   
  8966   8967   1    1.0920e-01    2.8225e+05 ;    C12 - H2R   
  8966   8968   1    1.0920e-01    2.8225e+05 ;    C12 - H2S   
  8969   8970   1    1.0920e-01    2.8225e+05 ;   H14T - C114  
  8970   8971   1    1.0920e-01    2.8225e+05 ;   C114 - H14R  
  8970   8972   1    1.0920e-01    2.8225e+05 ;   C114 - H14S  
  8970   8973   1    1.5350e-01    2.5363e+05 ;   C114 - C113  
  8973   8974   1    1.0920e-01    2.8225e+05 ;   C113 - H13R  
  8973   8975   1    1.0920e-01    2.8225e+05 ;   C113 - H13S  
  8973   8976   1    1.5350e-01    2.5363e+05 ;   C113 - C112  
  8976   8977   1    1.0920e-01    2.8225e+05 ;   C112 - H12R  
  8976   8978   1    1.0920e-01    2.8225e+05 ;   C112 - H12S  
  8976   8979   1    1.5350e-01    2.5363e+05 ;   C112 - C111  
  8979   8980   1    1.0920e-01    2.8225e+05 ;   C111 - H11R  
  8979   8981   1    1.0920e-01    2.8225e+05 ;   C111 - H11S  
  8979   8982   1    1.5350e-01    2.5363e+05 ;   C111 - C110  
  8982   8983   1    1.0920e-01    2.8225e+05 ;   C110 - H10R  
  8982   8984   1    1.0920e-01    2.8225e+05 ;   C110 - H10S  
  8982   8985   1    1.5350e-01    2.5363e+05 ;   C110 - C19   
  8985   8986   1    1.0920e-01    2.8225e+05 ;    C19 - H9R   
  8985   8987   1    1.0920e-01    2.8225e+05 ;    C19 - H9S   
  8985   8988   1    1.5350e-01    2.5363e+05 ;    C19 - C18   
  8988   8989   1    1.0920e-01    2.8225e+05 ;    C18 - H8R   
  8988   8990   1    1.0920e-01    2.8225e+05 ;    C18 - H8S   
  8988   8991   1    1.5350e-01    2.5363e+05 ;    C18 - C17   
  8991   8992   1    1.0920e-01    2.8225e+05 ;    C17 - H7R   
  8991   8993   1    1.0920e-01    2.8225e+05 ;    C17 - H7S   
  8991   8994   1    1.5350e-01    2.5363e+05 ;    C17 - C16   
  8994   8995   1    1.0920e-01    2.8225e+05 ;    C16 - H6R   
  8994   8996   1    1.0920e-01    2.8225e+05 ;    C16 - H6S   
  8994   8997   1    1.5350e-01    2.5363e+05 ;    C16 - C15   
  8997   8998   1    1.0920e-01    2.8225e+05 ;    C15 - H5R   
  8997   8999   1    1.0920e-01    2.8225e+05 ;    C15 - H5S   
  8997   9000   1    1.5350e-01    2.5363e+05 ;    C15 - C14   
  9000   9001   1    1.0920e-01    2.8225e+05 ;    C14 - H4R   
  9000   9002   1    1.0920e-01    2.8225e+05 ;    C14 - H4S   
  9000   9003   1    1.5350e-01    2.5363e+05 ;    C14 - C13   
  9003   9004   1    1.0920e-01    2.8225e+05 ;    C13 - H3R   
  9003   9005   1    1.0920e-01    2.8225e+05 ;    C13 - H3S   
  9003   9006   1    1.5350e-01    2.5363e+05 ;    C13 - C12   
  9006   9007   1    1.0920e-01    2.8225e+05 ;    C12 - H2R   
  9006   9008   1    1.0920e-01    2.8225e+05 ;    C12 - H2S   
  9006   9009   1    1.5080e-01    2.7472e+05 ;    C12 - C11   
  9009   9010   1    1.2140e-01    5.4225e+05 ;    C11 - O12   
  9009   9011   1    1.3430e-01    3.4418e+05 ;    C11 - O11   
  9011   9012   1    1.4390e-01    2.5230e+05 ;    O11 - C1    
  9012   9013   1    1.0930e-01    2.8108e+05 ;     C1 - HR    
  9012   9014   1    1.0930e-01    2.8108e+05 ;     C1 - HS    
  9012   9015   1    1.5350e-01    2.5363e+05 ;     C1 - C2    
  9015   9016   1    1.0930e-01    2.8108e+05 ;     C2 - HX    
  9015   9017   1    1.5350e-01    2.5363e+05 ;     C2 - C3    
  9015   9044   1    1.4390e-01    2.5230e+05 ;     C2 - O21   
  9017   9018   1    1.0930e-01    2.8108e+05 ;     C3 - HA    
  9017   9019   1    1.0930e-01    2.8108e+05 ;     C3 - HB    
  9017   9020   1    1.4390e-01    2.5230e+05 ;     C3 - O31   
  9020   9021   1    1.6100e-01    1.9246e+05 ;    O31 - P31   
  9021   9022   1    1.6100e-01    1.9246e+05 ;    P31 - O32   
  9021   9042   1    1.4800e-01    4.3932e+05 ;    P31 - O33   
  9021   9043   1    1.4800e-01    4.3932e+05 ;    P31 - O34   
  9022   9023   1    1.4390e-01    2.5230e+05 ;    O32 - C31   
  9023   9024   1    1.0930e-01    2.8108e+05 ;    C31 - H1A   
  9023   9025   1    1.0930e-01    2.8108e+05 ;    C31 - H1B   
  9023   9026   1    1.5350e-01    2.5363e+05 ;    C31 - C32   
  9026   9027   1    1.0910e-01    2.8342e+05 ;    C32 - H2A   
  9026   9028   1    1.0910e-01    2.8342e+05 ;    C32 - H2B   
  9026   9029   1    1.4990e-01    2.4568e+05 ;    C32 - N31   
  9029   9030   1    1.4990e-01    2.4568e+05 ;    N31 - C33   
  9029   9034   1    1.4990e-01    2.4568e+05 ;    N31 - C34   
  9029   9038   1    1.4990e-01    2.4568e+05 ;    N31 - C35   
  9030   9031   1    1.0910e-01    2.8342e+05 ;    C33 - H3A   
  9030   9032   1    1.0910e-01    2.8342e+05 ;    C33 - H3B   
  9030   9033   1    1.0910e-01    2.8342e+05 ;    C33 - H3C   
  9034   9035   1    1.0910e-01    2.8342e+05 ;    C34 - H4A   
  9034   9036   1    1.0910e-01    2.8342e+05 ;    C34 - H4B   
  9034   9037   1    1.0910e-01    2.8342e+05 ;    C34 - H4C   
  9038   9039   1    1.0910e-01    2.8342e+05 ;    C35 - H5A   
  9038   9040   1    1.0910e-01    2.8342e+05 ;    C35 - H5B   
  9038   9041   1    1.0910e-01    2.8342e+05 ;    C35 - H5C   
  9044   9045   1    1.3430e-01    3.4418e+05 ;    O21 - C21   
  9045   9046   1    1.2140e-01    5.4225e+05 ;    C21 - O22   
  9045   9084   1    1.5080e-01    2.7472e+05 ;    C21 - C12   
  9047   9048   1    1.0920e-01    2.8225e+05 ;   H14T - C114  
  9048   9049   1    1.0920e-01    2.8225e+05 ;   C114 - H14R  
  9048   9050   1    1.0920e-01    2.8225e+05 ;   C114 - H14S  
  9048   9051   1    1.5350e-01    2.5363e+05 ;   C114 - C113  
  9051   9052   1    1.0920e-01    2.8225e+05 ;   C113 - H13R  
  9051   9053   1    1.0920e-01    2.8225e+05 ;   C113 - H13S  
  9051   9054   1    1.5350e-01    2.5363e+05 ;   C113 - C112  
  9054   9055   1    1.0920e-01    2.8225e+05 ;   C112 - H12R  
  9054   9056   1    1.0920e-01    2.8225e+05 ;   C112 - H12S  
  9054   9057   1    1.5350e-01    2.5363e+05 ;   C112 - C111  
  9057   9058   1    1.0920e-01    2.8225e+05 ;   C111 - H11R  
  9057   9059   1    1.0920e-01    2.8225e+05 ;   C111 - H11S  
  9057   9060   1    1.5350e-01    2.5363e+05 ;   C111 - C110  
  9060   9061   1    1.0920e-01    2.8225e+05 ;   C110 - H10R  
  9060   9062   1    1.0920e-01    2.8225e+05 ;   C110 - H10S  
  9060   9063   1    1.5350e-01    2.5363e+05 ;   C110 - C19   
  9063   9064   1    1.0920e-01    2.8225e+05 ;    C19 - H9R   
  9063   9065   1    1.0920e-01    2.8225e+05 ;    C19 - H9S   
  9063   9066   1    1.5350e-01    2.5363e+05 ;    C19 - C18   
  9066   9067   1    1.0920e-01    2.8225e+05 ;    C18 - H8R   
  9066   9068   1    1.0920e-01    2.8225e+05 ;    C18 - H8S   
  9066   9069   1    1.5350e-01    2.5363e+05 ;    C18 - C17   
  9069   9070   1    1.0920e-01    2.8225e+05 ;    C17 - H7R   
  9069   9071   1    1.0920e-01    2.8225e+05 ;    C17 - H7S   
  9069   9072   1    1.5350e-01    2.5363e+05 ;    C17 - C16   
  9072   9073   1    1.0920e-01    2.8225e+05 ;    C16 - H6R   
  9072   9074   1    1.0920e-01    2.8225e+05 ;    C16 - H6S   
  9072   9075   1    1.5350e-01    2.5363e+05 ;    C16 - C15   
  9075   9076   1    1.0920e-01    2.8225e+05 ;    C15 - H5R   
  9075   9077   1    1.0920e-01    2.8225e+05 ;    C15 - H5S   
  9075   9078   1    1.5350e-01    2.5363e+05 ;    C15 - C14   
  9078   9079   1    1.0920e-01    2.8225e+05 ;    C14 - H4R   
  9078   9080   1    1.0920e-01    2.8225e+05 ;    C14 - H4S   
  9078   9081   1    1.5350e-01    2.5363e+05 ;    C14 - C13   
  9081   9082   1    1.0920e-01    2.8225e+05 ;    C13 - H3R   
  9081   9083   1    1.0920e-01    2.8225e+05 ;    C13 - H3S   
  9081   9084   1    1.5350e-01    2.5363e+05 ;    C13 - C12   
  9084   9085   1    1.0920e-01    2.8225e+05 ;    C12 - H2R   
  9084   9086   1    1.0920e-01    2.8225e+05 ;    C12 - H2S   
  9087   9088   1    1.0920e-01    2.8225e+05 ;   H14T - C114  
  9088   9089   1    1.0920e-01    2.8225e+05 ;   C114 - H14R  
  9088   9090   1    1.0920e-01    2.8225e+05 ;   C114 - H14S  
  9088   9091   1    1.5350e-01    2.5363e+05 ;   C114 - C113  
  9091   9092   1    1.0920e-01    2.8225e+05 ;   C113 - H13R  
  9091   9093   1    1.0920e-01    2.8225e+05 ;   C113 - H13S  
  9091   9094   1    1.5350e-01    2.5363e+05 ;   C113 - C112  
  9094   9095   1    1.0920e-01    2.8225e+05 ;   C112 - H12R  
  9094   9096   1    1.0920e-01    2.8225e+05 ;   C112 - H12S  
  9094   9097   1    1.5350e-01    2.5363e+05 ;   C112 - C111  
  9097   9098   1    1.0920e-01    2.8225e+05 ;   C111 - H11R  
  9097   9099   1    1.0920e-01    2.8225e+05 ;   C111 - H11S  
  9097   9100   1    1.5350e-01    2.5363e+05 ;   C111 - C110  
  9100   9101   1    1.0920e-01    2.8225e+05 ;   C110 - H10R  
  9100   9102   1    1.0920e-01    2.8225e+05 ;   C110 - H10S  
  9100   9103   1    1.5350e-01    2.5363e+05 ;   C110 - C19   
  9103   9104   1    1.0920e-01    2.8225e+05 ;    C19 - H9R   
  9103   9105   1    1.0920e-01    2.8225e+05 ;    C19 - H9S   
  9103   9106   1    1.5350e-01    2.5363e+05 ;    C19 - C18   
  9106   9107   1    1.0920e-01    2.8225e+05 ;    C18 - H8R   
  9106   9108   1    1.0920e-01    2.8225e+05 ;    C18 - H8S   
  9106   9109   1    1.5350e-01    2.5363e+05 ;    C18 - C17   
  9109   9110   1    1.0920e-01    2.8225e+05 ;    C17 - H7R   
  9109   9111   1    1.0920e-01    2.8225e+05 ;    C17 - H7S   
  9109   9112   1    1.5350e-01    2.5363e+05 ;    C17 - C16   
  9112   9113   1    1.0920e-01    2.8225e+05 ;    C16 - H6R   
  9112   9114   1    1.0920e-01    2.8225e+05 ;    C16 - H6S   
  9112   9115   1    1.5350e-01    2.5363e+05 ;    C16 - C15   
  9115   9116   1    1.0920e-01    2.8225e+05 ;    C15 - H5R   
  9115   9117   1    1.0920e-01    2.8225e+05 ;    C15 - H5S   
  9115   9118   1    1.5350e-01    2.5363e+05 ;    C15 - C14   
  9118   9119   1    1.0920e-01    2.8225e+05 ;    C14 - H4R   
  9118   9120   1    1.0920e-01    2.8225e+05 ;    C14 - H4S   
  9118   9121   1    1.5350e-01    2.5363e+05 ;    C14 - C13   
  9121   9122   1    1.0920e-01    2.8225e+05 ;    C13 - H3R   
  9121   9123   1    1.0920e-01    2.8225e+05 ;    C13 - H3S   
  9121   9124   1    1.5350e-01    2.5363e+05 ;    C13 - C12   
  9124   9125   1    1.0920e-01    2.8225e+05 ;    C12 - H2R   
  9124   9126   1    1.0920e-01    2.8225e+05 ;    C12 - H2S   
  9124   9127   1    1.5080e-01    2.7472e+05 ;    C12 - C11   
  9127   9128   1    1.2140e-01    5.4225e+05 ;    C11 - O12   
  9127   9129   1    1.3430e-01    3.4418e+05 ;    C11 - O11   
  9129   9130   1    1.4390e-01    2.5230e+05 ;    O11 - C1    
  9130   9131   1    1.0930e-01    2.8108e+05 ;     C1 - HR    
  9130   9132   1    1.0930e-01    2.8108e+05 ;     C1 - HS    
  9130   9133   1    1.5350e-01    2.5363e+05 ;     C1 - C2    
  9133   9134   1    1.0930e-01    2.8108e+05 ;     C2 - HX    
  9133   9135   1    1.5350e-01    2.5363e+05 ;     C2 - C3    
  9133   9162   1    1.4390e-01    2.5230e+05 ;     C2 - O21   
  9135   9136   1    1.0930e-01    2.8108e+05 ;     C3 - HA    
  9135   9137   1    1.0930e-01    2.8108e+05 ;     C3 - HB    
  9135   9138   1    1.4390e-01    2.5230e+05 ;     C3 - O31   
  9138   9139   1    1.6100e-01    1.9246e+05 ;    O31 - P31   
  9139   9140   1    1.6100e-01    1.9246e+05 ;    P31 - O32   
  9139   9160   1    1.4800e-01    4.3932e+05 ;    P31 - O33   
  9139   9161   1    1.4800e-01    4.3932e+05 ;    P31 - O34   
  9140   9141   1    1.4390e-01    2.5230e+05 ;    O32 - C31   
  9141   9142   1    1.0930e-01    2.8108e+05 ;    C31 - H1A   
  9141   9143   1    1.0930e-01    2.8108e+05 ;    C31 - H1B   
  9141   9144   1    1.5350e-01    2.5363e+05 ;    C31 - C32   
  9144   9145   1    1.0910e-01    2.8342e+05 ;    C32 - H2A   
  9144   9146   1    1.0910e-01    2.8342e+05 ;    C32 - H2B   
  9144   9147   1    1.4990e-01    2.4568e+05 ;    C32 - N31   
  9147   9148   1    1.4990e-01    2.4568e+05 ;    N31 - C33   
  9147   9152   1    1.4990e-01    2.4568e+05 ;    N31 - C34   
  9147   9156   1    1.4990e-01    2.4568e+05 ;    N31 - C35   
  9148   9149   1    1.0910e-01    2.8342e+05 ;    C33 - H3A   
  9148   9150   1    1.0910e-01    2.8342e+05 ;    C33 - H3B   
  9148   9151   1    1.0910e-01    2.8342e+05 ;    C33 - H3C   
  9152   9153   1    1.0910e-01    2.8342e+05 ;    C34 - H4A   
  9152   9154   1    1.0910e-01    2.8342e+05 ;    C34 - H4B   
  9152   9155   1    1.0910e-01    2.8342e+05 ;    C34 - H4C   
  9156   9157   1    1.0910e-01    2.8342e+05 ;    C35 - H5A   
  9156   9158   1    1.0910e-01    2.8342e+05 ;    C35 - H5B   
  9156   9159   1    1.0910e-01    2.8342e+05 ;    C35 - H5C   
  9162   9163   1    1.3430e-01    3.4418e+05 ;    O21 - C21   
  9163   9164   1    1.2140e-01    5.4225e+05 ;    C21 - O22   
  9163   9202   1    1.5080e-01    2.7472e+05 ;    C21 - C12   
  9165   9166   1    1.0920e-01    2.8225e+05 ;   H14T - C114  
  9166   9167   1    1.0920e-01    2.8225e+05 ;   C114 - H14R  
  9166   9168   1    1.0920e-01    2.8225e+05 ;   C114 - H14S  
  9166   9169   1    1.5350e-01    2.5363e+05 ;   C114 - C113  
  9169   9170   1    1.0920e-01    2.8225e+05 ;   C113 - H13R  
  9169   9171   1    1.0920e-01    2.8225e+05 ;   C113 - H13S  
  9169   9172   1    1.5350e-01    2.5363e+05 ;   C113 - C112  
  9172   9173   1    1.0920e-01    2.8225e+05 ;   C112 - H12R  
  9172   9174   1    1.0920e-01    2.8225e+05 ;   C112 - H12S  
  9172   9175   1    1.5350e-01    2.5363e+05 ;   C112 - C111  
  9175   9176   1    1.0920e-01    2.8225e+05 ;   C111 - H11R  
  9175   9177   1    1.0920e-01    2.8225e+05 ;   C111 - H11S  
  9175   9178   1    1.5350e-01    2.5363e+05 ;   C111 - C110  
  9178   9179   1    1.0920e-01    2.8225e+05 ;   C110 - H10R  
  9178   9180   1    1.0920e-01    2.8225e+05 ;   C110 - H10S  
  9178   9181   1    1.5350e-01    2.5363e+05 ;   C110 - C19   
  9181   9182   1    1.0920e-01    2.8225e+05 ;    C19 - H9R   
  9181   9183   1    1.0920e-01    2.8225e+05 ;    C19 - H9S   
  9181   9184   1    1.5350e-01    2.5363e+05 ;    C19 - C18   
  9184   9185   1    1.0920e-01    2.8225e+05 ;    C18 - H8R   
  9184   9186   1    1.0920e-01    2.8225e+05 ;    C18 - H8S   
  9184   9187   1    1.5350e-01    2.5363e+05 ;    C18 - C17   
  9187   9188   1    1.0920e-01    2.8225e+05 ;    C17 - H7R   
  9187   9189   1    1.0920e-01    2.8225e+05 ;    C17 - H7S   
  9187   9190   1    1.5350e-01    2.5363e+05 ;    C17 - C16   
  9190   9191   1    1.0920e-01    2.8225e+05 ;    C16 - H6R   
  9190   9192   1    1.0920e-01    2.8225e+05 ;    C16 - H6S   
  9190   9193   1    1.5350e-01    2.5363e+05 ;    C16 - C15   
  9193   9194   1    1.0920e-01    2.8225e+05 ;    C15 - H5R   
  9193   9195   1    1.0920e-01    2.8225e+05 ;    C15 - H5S   
  9193   9196   1    1.5350e-01    2.5363e+05 ;    C15 - C14   
  9196   9197   1    1.0920e-01    2.8225e+05 ;    C14 - H4R   
  9196   9198   1    1.0920e-01    2.8225e+05 ;    C14 - H4S   
  9196   9199   1    1.5350e-01    2.5363e+05 ;    C14 - C13   
  9199   9200   1    1.0920e-01    2.8225e+05 ;    C13 - H3R   
  9199   9201   1    1.0920e-01    2.8225e+05 ;    C13 - H3S   
  9199   9202   1    1.5350e-01    2.5363e+05 ;    C13 - C12   
  9202   9203   1    1.0920e-01    2.8225e+05 ;    C12 - H2R   
  9202   9204   1    1.0920e-01    2.8225e+05 ;    C12 - H2S   
  9205   9206   1    1.0920e-01    2.8225e+05 ;   H14T - C114  
  9206   9207   1    1.0920e-01    2.8225e+05 ;   C114 - H14R  
  9206   9208   1    1.0920e-01    2.8225e+05 ;   C114 - H14S  
  9206   9209   1    1.5350e-01    2.5363e+05 ;   C114 - C113  
  9209   9210   1    1.0920e-01    2.8225e+05 ;   C113 - H13R  
  9209   9211   1    1.0920e-01    2.8225e+05 ;   C113 - H13S  
  9209   9212   1    1.5350e-01    2.5363e+05 ;   C113 - C112  
  9212   9213   1    1.0920e-01    2.8225e+05 ;   C112 - H12R  
  9212   9214   1    1.0920e-01    2.8225e+05 ;   C112 - H12S  
  9212   9215   1    1.5350e-01    2.5363e+05 ;   C112 - C111  
  9215   9216   1    1.0920e-01    2.8225e+05 ;   C111 - H11R  
  9215   9217   1    1.0920e-01    2.8225e+05 ;   C111 - H11S  
  9215   9218   1    1.5350e-01    2.5363e+05 ;   C111 - C110  
  9218   9219   1    1.0920e-01    2.8225e+05 ;   C110 - H10R  
  9218   9220   1    1.0920e-01    2.8225e+05 ;   C110 - H10S  
  9218   9221   1    1.5350e-01    2.5363e+05 ;   C110 - C19   
  9221   9222   1    1.0920e-01    2.8225e+05 ;    C19 - H9R   
  9221   9223   1    1.0920e-01    2.8225e+05 ;    C19 - H9S   
  9221   9224   1    1.5350e-01    2.5363e+05 ;    C19 - C18   
  9224   9225   1    1.0920e-01    2.8225e+05 ;    C18 - H8R   
  9224   9226   1    1.0920e-01    2.8225e+05 ;    C18 - H8S   
  9224   9227   1    1.5350e-01    2.5363e+05 ;    C18 - C17   
  9227   9228   1    1.0920e-01    2.8225e+05 ;    C17 - H7R   
  9227   9229   1    1.0920e-01    2.8225e+05 ;    C17 - H7S   
  9227   9230   1    1.5350e-01    2.5363e+05 ;    C17 - C16   
  9230   9231   1    1.0920e-01    2.8225e+05 ;    C16 - H6R   
  9230   9232   1    1.0920e-01    2.8225e+05 ;    C16 - H6S   
  9230   9233   1    1.5350e-01    2.5363e+05 ;    C16 - C15   
  9233   9234   1    1.0920e-01    2.8225e+05 ;    C15 - H5R   
  9233   9235   1    1.0920e-01    2.8225e+05 ;    C15 - H5S   
  9233   9236   1    1.5350e-01    2.5363e+05 ;    C15 - C14   
  9236   9237   1    1.0920e-01    2.8225e+05 ;    C14 - H4R   
  9236   9238   1    1.0920e-01    2.8225e+05 ;    C14 - H4S   
  9236   9239   1    1.5350e-01    2.5363e+05 ;    C14 - C13   
  9239   9240   1    1.0920e-01    2.8225e+05 ;    C13 - H3R   
  9239   9241   1    1.0920e-01    2.8225e+05 ;    C13 - H3S   
  9239   9242   1    1.5350e-01    2.5363e+05 ;    C13 - C12   
  9242   9243   1    1.0920e-01    2.8225e+05 ;    C12 - H2R   
  9242   9244   1    1.0920e-01    2.8225e+05 ;    C12 - H2S   
  9242   9245   1    1.5080e-01    2.7472e+05 ;    C12 - C11   
  9245   9246   1    1.2140e-01    5.4225e+05 ;    C11 - O12   
  9245   9247   1    1.3430e-01    3.4418e+05 ;    C11 - O11   
  9247   9248   1    1.4390e-01    2.5230e+05 ;    O11 - C1    
  9248   9249   1    1.0930e-01    2.8108e+05 ;     C1 - HR    
  9248   9250   1    1.0930e-01    2.8108e+05 ;     C1 - HS    
  9248   9251   1    1.5350e-01    2.5363e+05 ;     C1 - C2    
  9251   9252   1    1.0930e-01    2.8108e+05 ;     C2 - HX    
  9251   9253   1    1.5350e-01    2.5363e+05 ;     C2 - C3    
  9251   9280   1    1.4390e-01    2.5230e+05 ;     C2 - O21   
  9253   9254   1    1.0930e-01    2.8108e+05 ;     C3 - HA    
  9253   9255   1    1.0930e-01    2.8108e+05 ;     C3 - HB    
  9253   9256   1    1.4390e-01    2.5230e+05 ;     C3 - O31   
  9256   9257   1    1.6100e-01    1.9246e+05 ;    O31 - P31   
  9257   9258   1    1.6100e-01    1.9246e+05 ;    P31 - O32   
  9257   9278   1    1.4800e-01    4.3932e+05 ;    P31 - O33   
  9257   9279   1    1.4800e-01    4.3932e+05 ;    P31 - O34   
  9258   9259   1    1.4390e-01    2.5230e+05 ;    O32 - C31   
  9259   9260   1    1.0930e-01    2.8108e+05 ;    C31 - H1A   
  9259   9261   1    1.0930e-01    2.8108e+05 ;    C31 - H1B   
  9259   9262   1    1.5350e-01    2.5363e+05 ;    C31 - C32   
  9262   9263   1    1.0910e-01    2.8342e+05 ;    C32 - H2A   
  9262   9264   1    1.0910e-01    2.8342e+05 ;    C32 - H2B   
  9262   9265   1    1.4990e-01    2.4568e+05 ;    C32 - N31   
  9265   9266   1    1.4990e-01    2.4568e+05 ;    N31 - C33   
  9265   9270   1    1.4990e-01    2.4568e+05 ;    N31 - C34   
  9265   9274   1    1.4990e-01    2.4568e+05 ;    N31 - C35   
  9266   9267   1    1.0910e-01    2.8342e+05 ;    C33 - H3A   
  9266   9268   1    1.0910e-01    2.8342e+05 ;    C33 - H3B   
  9266   9269   1    1.0910e-01    2.8342e+05 ;    C33 - H3C   
  9270   9271   1    1.0910e-01    2.8342e+05 ;    C34 - H4A   
  9270   9272   1    1.0910e-01    2.8342e+05 ;    C34 - H4B   
  9270   9273   1    1.0910e-01    2.8342e+05 ;    C34 - H4C   
  9274   9275   1    1.0910e-01    2.8342e+05 ;    C35 - H5A   
  9274   9276   1    1.0910e-01    2.8342e+05 ;    C35 - H5B   
  9274   9277   1    1.0910e-01    2.8342e+05 ;    C35 - H5C   
  9280   9281   1    1.3430e-01    3.4418e+05 ;    O21 - C21   
  9281   9282   1    1.2140e-01    5.4225e+05 ;    C21 - O22   
  9281   9320   1    1.5080e-01    2.7472e+05 ;    C21 - C12   
  9283   9284   1    1.0920e-01    2.8225e+05 ;   H14T - C114  
  9284   9285   1    1.0920e-01    2.8225e+05 ;   C114 - H14R  
  9284   9286   1    1.0920e-01    2.8225e+05 ;   C114 - H14S  
  9284   9287   1    1.5350e-01    2.5363e+05 ;   C114 - C113  
  9287   9288   1    1.0920e-01    2.8225e+05 ;   C113 - H13R  
  9287   9289   1    1.0920e-01    2.8225e+05 ;   C113 - H13S  
  9287   9290   1    1.5350e-01    2.5363e+05 ;   C113 - C112  
  9290   9291   1    1.0920e-01    2.8225e+05 ;   C112 - H12R  
  9290   9292   1    1.0920e-01    2.8225e+05 ;   C112 - H12S  
  9290   9293   1    1.5350e-01    2.5363e+05 ;   C112 - C111  
  9293   9294   1    1.0920e-01    2.8225e+05 ;   C111 - H11R  
  9293   9295   1    1.0920e-01    2.8225e+05 ;   C111 - H11S  
  9293   9296   1    1.5350e-01    2.5363e+05 ;   C111 - C110  
  9296   9297   1    1.0920e-01    2.8225e+05 ;   C110 - H10R  
  9296   9298   1    1.0920e-01    2.8225e+05 ;   C110 - H10S  
  9296   9299   1    1.5350e-01    2.5363e+05 ;   C110 - C19   
  9299   9300   1    1.0920e-01    2.8225e+05 ;    C19 - H9R   
  9299   9301   1    1.0920e-01    2.8225e+05 ;    C19 - H9S   
  9299   9302   1    1.5350e-01    2.5363e+05 ;    C19 - C18   
  9302   9303   1    1.0920e-01    2.8225e+05 ;    C18 - H8R   
  9302   9304   1    1.0920e-01    2.8225e+05 ;    C18 - H8S   
  9302   9305   1    1.5350e-01    2.5363e+05 ;    C18 - C17   
  9305   9306   1    1.0920e-01    2.8225e+05 ;    C17 - H7R   
  9305   9307   1    1.0920e-01    2.8225e+05 ;    C17 - H7S   
  9305   9308   1    1.5350e-01    2.5363e+05 ;    C17 - C16   
  9308   9309   1    1.0920e-01    2.8225e+05 ;    C16 - H6R   
  9308   9310   1    1.0920e-01    2.8225e+05 ;    C16 - H6S   
  9308   9311   1    1.5350e-01    2.5363e+05 ;    C16 - C15   
  9311   9312   1    1.0920e-01    2.8225e+05 ;    C15 - H5R   
  9311   9313   1    1.0920e-01    2.8225e+05 ;    C15 - H5S   
  9311   9314   1    1.5350e-01    2.5363e+05 ;    C15 - C14   
  9314   9315   1    1.0920e-01    2.8225e+05 ;    C14 - H4R   
  9314   9316   1    1.0920e-01    2.8225e+05 ;    C14 - H4S   
  9314   9317   1    1.5350e-01    2.5363e+05 ;    C14 - C13   
  9317   9318   1    1.0920e-01    2.8225e+05 ;    C13 - H3R   
  9317   9319   1    1.0920e-01    2.8225e+05 ;    C13 - H3S   
  9317   9320   1    1.5350e-01    2.5363e+05 ;    C13 - C12   
  9320   9321   1    1.0920e-01    2.8225e+05 ;    C12 - H2R   
  9320   9322   1    1.0920e-01    2.8225e+05 ;    C12 - H2S   
  9323   9324   1    1.0920e-01    2.8225e+05 ;   H14T - C114  
  9324   9325   1    1.0920e-01    2.8225e+05 ;   C114 - H14R  
  9324   9326   1    1.0920e-01    2.8225e+05 ;   C114 - H14S  
  9324   9327   1    1.5350e-01    2.5363e+05 ;   C114 - C113  
  9327   9328   1    1.0920e-01    2.8225e+05 ;   C113 - H13R  
  9327   9329   1    1.0920e-01    2.8225e+05 ;   C113 - H13S  
  9327   9330   1    1.5350e-01    2.5363e+05 ;   C113 - C112  
  9330   9331   1    1.0920e-01    2.8225e+05 ;   C112 - H12R  
  9330   9332   1    1.0920e-01    2.8225e+05 ;   C112 - H12S  
  9330   9333   1    1.5350e-01    2.5363e+05 ;   C112 - C111  
  9333   9334   1    1.0920e-01    2.8225e+05 ;   C111 - H11R  
  9333   9335   1    1.0920e-01    2.8225e+05 ;   C111 - H11S  
  9333   9336   1    1.5350e-01    2.5363e+05 ;   C111 - C110  
  9336   9337   1    1.0920e-01    2.8225e+05 ;   C110 - H10R  
  9336   9338   1    1.0920e-01    2.8225e+05 ;   C110 - H10S  
  9336   9339   1    1.5350e-01    2.5363e+05 ;   C110 - C19   
  9339   9340   1    1.0920e-01    2.8225e+05 ;    C19 - H9R   
  9339   9341   1    1.0920e-01    2.8225e+05 ;    C19 - H9S   
  9339   9342   1    1.5350e-01    2.5363e+05 ;    C19 - C18   
  9342   9343   1    1.0920e-01    2.8225e+05 ;    C18 - H8R   
  9342   9344   1    1.0920e-01    2.8225e+05 ;    C18 - H8S   
  9342   9345   1    1.5350e-01    2.5363e+05 ;    C18 - C17   
  9345   9346   1    1.0920e-01    2.8225e+05 ;    C17 - H7R   
  9345   9347   1    1.0920e-01    2.8225e+05 ;    C17 - H7S   
  9345   9348   1    1.5350e-01    2.5363e+05 ;    C17 - C16   
  9348   9349   1    1.0920e-01    2.8225e+05 ;    C16 - H6R   
  9348   9350   1    1.0920e-01    2.8225e+05 ;    C16 - H6S   
  9348   9351   1    1.5350e-01    2.5363e+05 ;    C16 - C15   
  9351   9352   1    1.0920e-01    2.8225e+05 ;    C15 - H5R   
  9351   9353   1    1.0920e-01    2.8225e+05 ;    C15 - H5S   
  9351   9354   1    1.5350e-01    2.5363e+05 ;    C15 - C14   
  9354   9355   1    1.0920e-01    2.8225e+05 ;    C14 - H4R   
  9354   9356   1    1.0920e-01    2.8225e+05 ;    C14 - H4S   
  9354   9357   1    1.5350e-01    2.5363e+05 ;    C14 - C13   
  9357   9358   1    1.0920e-01    2.8225e+05 ;    C13 - H3R   
  9357   9359   1    1.0920e-01    2.8225e+05 ;    C13 - H3S   
  9357   9360   1    1.5350e-01    2.5363e+05 ;    C13 - C12   
  9360   9361   1    1.0920e-01    2.8225e+05 ;    C12 - H2R   
  9360   9362   1    1.0920e-01    2.8225e+05 ;    C12 - H2S   
  9360   9363   1    1.5080e-01    2.7472e+05 ;    C12 - C11   
  9363   9364   1    1.2140e-01    5.4225e+05 ;    C11 - O12   
  9363   9365   1    1.3430e-01    3.4418e+05 ;    C11 - O11   
  9365   9366   1    1.4390e-01    2.5230e+05 ;    O11 - C1    
  9366   9367   1    1.0930e-01    2.8108e+05 ;     C1 - HR    
  9366   9368   1    1.0930e-01    2.8108e+05 ;     C1 - HS    
  9366   9369   1    1.5350e-01    2.5363e+05 ;     C1 - C2    
  9369   9370   1    1.0930e-01    2.8108e+05 ;     C2 - HX    
  9369   9371   1    1.5350e-01    2.5363e+05 ;     C2 - C3    
  9369   9398   1    1.4390e-01    2.5230e+05 ;     C2 - O21   
  9371   9372   1    1.0930e-01    2.8108e+05 ;     C3 - HA    
  9371   9373   1    1.0930e-01    2.8108e+05 ;     C3 - HB    
  9371   9374   1    1.4390e-01    2.5230e+05 ;     C3 - O31   
  9374   9375   1    1.6100e-01    1.9246e+05 ;    O31 - P31   
  9375   9376   1    1.6100e-01    1.9246e+05 ;    P31 - O32   
  9375   9396   1    1.4800e-01    4.3932e+05 ;    P31 - O33   
  9375   9397   1    1.4800e-01    4.3932e+05 ;    P31 - O34   
  9376   9377   1    1.4390e-01    2.5230e+05 ;    O32 - C31   
  9377   9378   1    1.0930e-01    2.8108e+05 ;    C31 - H1A   
  9377   9379   1    1.0930e-01    2.8108e+05 ;    C31 - H1B   
  9377   9380   1    1.5350e-01    2.5363e+05 ;    C31 - C32   
  9380   9381   1    1.0910e-01    2.8342e+05 ;    C32 - H2A   
  9380   9382   1    1.0910e-01    2.8342e+05 ;    C32 - H2B   
  9380   9383   1    1.4990e-01    2.4568e+05 ;    C32 - N31   
  9383   9384   1    1.4990e-01    2.4568e+05 ;    N31 - C33   
  9383   9388   1    1.4990e-01    2.4568e+05 ;    N31 - C34   
  9383   9392   1    1.4990e-01    2.4568e+05 ;    N31 - C35   
  9384   9385   1    1.0910e-01    2.8342e+05 ;    C33 - H3A   
  9384   9386   1    1.0910e-01    2.8342e+05 ;    C33 - H3B   
  9384   9387   1    1.0910e-01    2.8342e+05 ;    C33 - H3C   
  9388   9389   1    1.0910e-01    2.8342e+05 ;    C34 - H4A   
  9388   9390   1    1.0910e-01    2.8342e+05 ;    C34 - H4B   
  9388   9391   1    1.0910e-01    2.8342e+05 ;    C34 - H4C   
  9392   9393   1    1.0910e-01    2.8342e+05 ;    C35 - H5A   
  9392   9394   1    1.0910e-01    2.8342e+05 ;    C35 - H5B   
  9392   9395   1    1.0910e-01    2.8342e+05 ;    C35 - H5C   
  9398   9399   1    1.3430e-01    3.4418e+05 ;    O21 - C21   
  9399   9400   1    1.2140e-01    5.4225e+05 ;    C21 - O22   
  9399   9438   1    1.5080e-01    2.7472e+05 ;    C21 - C12   
  9401   9402   1    1.0920e-01    2.8225e+05 ;   H14T - C114  
  9402   9403   1    1.0920e-01    2.8225e+05 ;   C114 - H14R  
  9402   9404   1    1.0920e-01    2.8225e+05 ;   C114 - H14S  
  9402   9405   1    1.5350e-01    2.5363e+05 ;   C114 - C113  
  9405   9406   1    1.0920e-01    2.8225e+05 ;   C113 - H13R  
  9405   9407   1    1.0920e-01    2.8225e+05 ;   C113 - H13S  
  9405   9408   1    1.5350e-01    2.5363e+05 ;   C113 - C112  
  9408   9409   1    1.0920e-01    2.8225e+05 ;   C112 - H12R  
  9408   9410   1    1.0920e-01    2.8225e+05 ;   C112 - H12S  
  9408   9411   1    1.5350e-01    2.5363e+05 ;   C112 - C111  
  9411   9412   1    1.0920e-01    2.8225e+05 ;   C111 - H11R  
  9411   9413   1    1.0920e-01    2.8225e+05 ;   C111 - H11S  
  9411   9414   1    1.5350e-01    2.5363e+05 ;   C111 - C110  
  9414   9415   1    1.0920e-01    2.8225e+05 ;   C110 - H10R  
  9414   9416   1    1.0920e-01    2.8225e+05 ;   C110 - H10S  
  9414   9417   1    1.5350e-01    2.5363e+05 ;   C110 - C19   
  9417   9418   1    1.0920e-01    2.8225e+05 ;    C19 - H9R   
  9417   9419   1    1.0920e-01    2.8225e+05 ;    C19 - H9S   
  9417   9420   1    1.5350e-01    2.5363e+05 ;    C19 - C18   
  9420   9421   1    1.0920e-01    2.8225e+05 ;    C18 - H8R   
  9420   9422   1    1.0920e-01    2.8225e+05 ;    C18 - H8S   
  9420   9423   1    1.5350e-01    2.5363e+05 ;    C18 - C17   
  9423   9424   1    1.0920e-01    2.8225e+05 ;    C17 - H7R   
  9423   9425   1    1.0920e-01    2.8225e+05 ;    C17 - H7S   
  9423   9426   1    1.5350e-01    2.5363e+05 ;    C17 - C16   
  9426   9427   1    1.0920e-01    2.8225e+05 ;    C16 - H6R   
  9426   9428   1    1.0920e-01    2.8225e+05 ;    C16 - H6S   
  9426   9429   1    1.5350e-01    2.5363e+05 ;    C16 - C15   
  9429   9430   1    1.0920e-01    2.8225e+05 ;    C15 - H5R   
  9429   9431   1    1.0920e-01    2.8225e+05 ;    C15 - H5S   
  9429   9432   1    1.5350e-01    2.5363e+05 ;    C15 - C14   
  9432   9433   1    1.0920e-01    2.8225e+05 ;    C14 - H4R   
  9432   9434   1    1.0920e-01    2.8225e+05 ;    C14 - H4S   
  9432   9435   1    1.5350e-01    2.5363e+05 ;    C14 - C13   
  9435   9436   1    1.0920e-01    2.8225e+05 ;    C13 - H3R   
  9435   9437   1    1.0920e-01    2.8225e+05 ;    C13 - H3S   
  9435   9438   1    1.5350e-01    2.5363e+05 ;    C13 - C12   
  9438   9439   1    1.0920e-01    2.8225e+05 ;    C12 - H2R   
  9438   9440   1    1.0920e-01    2.8225e+05 ;    C12 - H2S   
  9441   9442   1    1.0920e-01    2.8225e+05 ;   H14T - C114  
  9442   9443   1    1.0920e-01    2.8225e+05 ;   C114 - H14R  
  9442   9444   1    1.0920e-01    2.8225e+05 ;   C114 - H14S  
  9442   9445   1    1.5350e-01    2.5363e+05 ;   C114 - C113  
  9445   9446   1    1.0920e-01    2.8225e+05 ;   C113 - H13R  
  9445   9447   1    1.0920e-01    2.8225e+05 ;   C113 - H13S  
  9445   9448   1    1.5350e-01    2.5363e+05 ;   C113 - C112  
  9448   9449   1    1.0920e-01    2.8225e+05 ;   C112 - H12R  
  9448   9450   1    1.0920e-01    2.8225e+05 ;   C112 - H12S  
  9448   9451   1    1.5350e-01    2.5363e+05 ;   C112 - C111  
  9451   9452   1    1.0920e-01    2.8225e+05 ;   C111 - H11R  
  9451   9453   1    1.0920e-01    2.8225e+05 ;   C111 - H11S  
  9451   9454   1    1.5350e-01    2.5363e+05 ;   C111 - C110  
  9454   9455   1    1.0920e-01    2.8225e+05 ;   C110 - H10R  
  9454   9456   1    1.0920e-01    2.8225e+05 ;   C110 - H10S  
  9454   9457   1    1.5350e-01    2.5363e+05 ;   C110 - C19   
  9457   9458   1    1.0920e-01    2.8225e+05 ;    C19 - H9R   
  9457   9459   1    1.0920e-01    2.8225e+05 ;    C19 - H9S   
  9457   9460   1    1.5350e-01    2.5363e+05 ;    C19 - C18   
  9460   9461   1    1.0920e-01    2.8225e+05 ;    C18 - H8R   
  9460   9462   1    1.0920e-01    2.8225e+05 ;    C18 - H8S   
  9460   9463   1    1.5350e-01    2.5363e+05 ;    C18 - C17   
  9463   9464   1    1.0920e-01    2.8225e+05 ;    C17 - H7R   
  9463   9465   1    1.0920e-01    2.8225e+05 ;    C17 - H7S   
  9463   9466   1    1.5350e-01    2.5363e+05 ;    C17 - C16   
  9466   9467   1    1.0920e-01    2.8225e+05 ;    C16 - H6R   
  9466   9468   1    1.0920e-01    2.8225e+05 ;    C16 - H6S   
  9466   9469   1    1.5350e-01    2.5363e+05 ;    C16 - C15   
  9469   9470   1    1.0920e-01    2.8225e+05 ;    C15 - H5R   
  9469   9471   1    1.0920e-01    2.8225e+05 ;    C15 - H5S   
  9469   9472   1    1.5350e-01    2.5363e+05 ;    C15 - C14   
  9472   9473   1    1.0920e-01    2.8225e+05 ;    C14 - H4R   
  9472   9474   1    1.0920e-01    2.8225e+05 ;    C14 - H4S   
  9472   9475   1    1.5350e-01    2.5363e+05 ;    C14 - C13   
  9475   9476   1    1.0920e-01    2.8225e+05 ;    C13 - H3R   
  9475   9477   1    1.0920e-01    2.8225e+05 ;    C13 - H3S   
  9475   9478   1    1.5350e-01    2.5363e+05 ;    C13 - C12   
  9478   9479   1    1.0920e-01    2.8225e+05 ;    C12 - H2R   
  9478   9480   1    1.0920e-01    2.8225e+05 ;    C12 - H2S   
  9478   9481   1    1.5080e-01    2.7472e+05 ;    C12 - C11   
  9481   9482   1    1.2140e-01    5.4225e+05 ;    C11 - O12   
  9481   9483   1    1.3430e-01    3.4418e+05 ;    C11 - O11   
  9483   9484   1    1.4390e-01    2.5230e+05 ;    O11 - C1    
  9484   9485   1    1.0930e-01    2.8108e+05 ;     C1 - HR    
  9484   9486   1    1.0930e-01    2.8108e+05 ;     C1 - HS    
  9484   9487   1    1.5350e-01    2.5363e+05 ;     C1 - C2    
  9487   9488   1    1.0930e-01    2.8108e+05 ;     C2 - HX    
  9487   9489   1    1.5350e-01    2.5363e+05 ;     C2 - C3    
  9487   9516   1    1.4390e-01    2.5230e+05 ;     C2 - O21   
  9489   9490   1    1.0930e-01    2.8108e+05 ;     C3 - HA    
  9489   9491   1    1.0930e-01    2.8108e+05 ;     C3 - HB    
  9489   9492   1    1.4390e-01    2.5230e+05 ;     C3 - O31   
  9492   9493   1    1.6100e-01    1.9246e+05 ;    O31 - P31   
  9493   9494   1    1.6100e-01    1.9246e+05 ;    P31 - O32   
  9493   9514   1    1.4800e-01    4.3932e+05 ;    P31 - O33   
  9493   9515   1    1.4800e-01    4.3932e+05 ;    P31 - O34   
  9494   9495   1    1.4390e-01    2.5230e+05 ;    O32 - C31   
  9495   9496   1    1.0930e-01    2.8108e+05 ;    C31 - H1A   
  9495   9497   1    1.0930e-01    2.8108e+05 ;    C31 - H1B   
  9495   9498   1    1.5350e-01    2.5363e+05 ;    C31 - C32   
  9498   9499   1    1.0910e-01    2.8342e+05 ;    C32 - H2A   
  9498   9500   1    1.0910e-01    2.8342e+05 ;    C32 - H2B   
  9498   9501   1    1.4990e-01    2.4568e+05 ;    C32 - N31   
  9501   9502   1    1.4990e-01    2.4568e+05 ;    N31 - C33   
  9501   9506   1    1.4990e-01    2.4568e+05 ;    N31 - C34   
  9501   9510   1    1.4990e-01    2.4568e+05 ;    N31 - C35   
  9502   9503   1    1.0910e-01    2.8342e+05 ;    C33 - H3A   
  9502   9504   1    1.0910e-01    2.8342e+05 ;    C33 - H3B   
  9502   9505   1    1.0910e-01    2.8342e+05 ;    C33 - H3C   
  9506   9507   1    1.0910e-01    2.8342e+05 ;    C34 - H4A   
  9506   9508   1    1.0910e-01    2.8342e+05 ;    C34 - H4B   
  9506   9509   1    1.0910e-01    2.8342e+05 ;    C34 - H4C   
  9510   9511   1    1.0910e-01    2.8342e+05 ;    C35 - H5A   
  9510   9512   1    1.0910e-01    2.8342e+05 ;    C35 - H5B   
  9510   9513   1    1.0910e-01    2.8342e+05 ;    C35 - H5C   
  9516   9517   1    1.3430e-01    3.4418e+05 ;    O21 - C21   
  9517   9518   1    1.2140e-01    5.4225e+05 ;    C21 - O22   
  9517   9556   1    1.5080e-01    2.7472e+05 ;    C21 - C12   
  9519   9520   1    1.0920e-01    2.8225e+05 ;   H14T - C114  
  9520   9521   1    1.0920e-01    2.8225e+05 ;   C114 - H14R  
  9520   9522   1    1.0920e-01    2.8225e+05 ;   C114 - H14S  
  9520   9523   1    1.5350e-01    2.5363e+05 ;   C114 - C113  
  9523   9524   1    1.0920e-01    2.8225e+05 ;   C113 - H13R  
  9523   9525   1    1.0920e-01    2.8225e+05 ;   C113 - H13S  
  9523   9526   1    1.5350e-01    2.5363e+05 ;   C113 - C112  
  9526   9527   1    1.0920e-01    2.8225e+05 ;   C112 - H12R  
  9526   9528   1    1.0920e-01    2.8225e+05 ;   C112 - H12S  
  9526   9529   1    1.5350e-01    2.5363e+05 ;   C112 - C111  
  9529   9530   1    1.0920e-01    2.8225e+05 ;   C111 - H11R  
  9529   9531   1    1.0920e-01    2.8225e+05 ;   C111 - H11S  
  9529   9532   1    1.5350e-01    2.5363e+05 ;   C111 - C110  
  9532   9533   1    1.0920e-01    2.8225e+05 ;   C110 - H10R  
  9532   9534   1    1.0920e-01    2.8225e+05 ;   C110 - H10S  
  9532   9535   1    1.5350e-01    2.5363e+05 ;   C110 - C19   
  9535   9536   1    1.0920e-01    2.8225e+05 ;    C19 - H9R   
  9535   9537   1    1.0920e-01    2.8225e+05 ;    C19 - H9S   
  9535   9538   1    1.5350e-01    2.5363e+05 ;    C19 - C18   
  9538   9539   1    1.0920e-01    2.8225e+05 ;    C18 - H8R   
  9538   9540   1    1.0920e-01    2.8225e+05 ;    C18 - H8S   
  9538   9541   1    1.5350e-01    2.5363e+05 ;    C18 - C17   
  9541   9542   1    1.0920e-01    2.8225e+05 ;    C17 - H7R   
  9541   9543   1    1.0920e-01    2.8225e+05 ;    C17 - H7S   
  9541   9544   1    1.5350e-01    2.5363e+05 ;    C17 - C16   
  9544   9545   1    1.0920e-01    2.8225e+05 ;    C16 - H6R   
  9544   9546   1    1.0920e-01    2.8225e+05 ;    C16 - H6S   
  9544   9547   1    1.5350e-01    2.5363e+05 ;    C16 - C15   
  9547   9548   1    1.0920e-01    2.8225e+05 ;    C15 - H5R   
  9547   9549   1    1.0920e-01    2.8225e+05 ;    C15 - H5S   
  9547   9550   1    1.5350e-01    2.5363e+05 ;    C15 - C14   
  9550   9551   1    1.0920e-01    2.8225e+05 ;    C14 - H4R   
  9550   9552   1    1.0920e-01    2.8225e+05 ;    C14 - H4S   
  9550   9553   1    1.5350e-01    2.5363e+05 ;    C14 - C13   
  9553   9554   1    1.0920e-01    2.8225e+05 ;    C13 - H3R   
  9553   9555   1    1.0920e-01    2.8225e+05 ;    C13 - H3S   
  9553   9556   1    1.5350e-01    2.5363e+05 ;    C13 - C12   
  9556   9557   1    1.0920e-01    2.8225e+05 ;    C12 - H2R   
  9556   9558   1    1.0920e-01    2.8225e+05 ;    C12 - H2S   
  9559   9560   1    1.0920e-01    2.8225e+05 ;   H14T - C114  
  9560   9561   1    1.0920e-01    2.8225e+05 ;   C114 - H14R  
  9560   9562   1    1.0920e-01    2.8225e+05 ;   C114 - H14S  
  9560   9563   1    1.5350e-01    2.5363e+05 ;   C114 - C113  
  9563   9564   1    1.0920e-01    2.8225e+05 ;   C113 - H13R  
  9563   9565   1    1.0920e-01    2.8225e+05 ;   C113 - H13S  
  9563   9566   1    1.5350e-01    2.5363e+05 ;   C113 - C112  
  9566   9567   1    1.0920e-01    2.8225e+05 ;   C112 - H12R  
  9566   9568   1    1.0920e-01    2.8225e+05 ;   C112 - H12S  
  9566   9569   1    1.5350e-01    2.5363e+05 ;   C112 - C111  
  9569   9570   1    1.0920e-01    2.8225e+05 ;   C111 - H11R  
  9569   9571   1    1.0920e-01    2.8225e+05 ;   C111 - H11S  
  9569   9572   1    1.5350e-01    2.5363e+05 ;   C111 - C110  
  9572   9573   1    1.0920e-01    2.8225e+05 ;   C110 - H10R  
  9572   9574   1    1.0920e-01    2.8225e+05 ;   C110 - H10S  
  9572   9575   1    1.5350e-01    2.5363e+05 ;   C110 - C19   
  9575   9576   1    1.0920e-01    2.8225e+05 ;    C19 - H9R   
  9575   9577   1    1.0920e-01    2.8225e+05 ;    C19 - H9S   
  9575   9578   1    1.5350e-01    2.5363e+05 ;    C19 - C18   
  9578   9579   1    1.0920e-01    2.8225e+05 ;    C18 - H8R   
  9578   9580   1    1.0920e-01    2.8225e+05 ;    C18 - H8S   
  9578   9581   1    1.5350e-01    2.5363e+05 ;    C18 - C17   
  9581   9582   1    1.0920e-01    2.8225e+05 ;    C17 - H7R   
  9581   9583   1    1.0920e-01    2.8225e+05 ;    C17 - H7S   
  9581   9584   1    1.5350e-01    2.5363e+05 ;    C17 - C16   
  9584   9585   1    1.0920e-01    2.8225e+05 ;    C16 - H6R   
  9584   9586   1    1.0920e-01    2.8225e+05 ;    C16 - H6S   
  9584   9587   1    1.5350e-01    2.5363e+05 ;    C16 - C15   
  9587   9588   1    1.0920e-01    2.8225e+05 ;    C15 - H5R   
  9587   9589   1    1.0920e-01    2.8225e+05 ;    C15 - H5S   
  9587   9590   1    1.5350e-01    2.5363e+05 ;    C15 - C14   
  9590   9591   1    1.0920e-01    2.8225e+05 ;    C14 - H4R   
  9590   9592   1    1.0920e-01    2.8225e+05 ;    C14 - H4S   
  9590   9593   1    1.5350e-01    2.5363e+05 ;    C14 - C13   
  9593   9594   1    1.0920e-01    2.8225e+05 ;    C13 - H3R   
  9593   9595   1    1.0920e-01    2.8225e+05 ;    C13 - H3S   
  9593   9596   1    1.5350e-01    2.5363e+05 ;    C13 - C12   
  9596   9597   1    1.0920e-01    2.8225e+05 ;    C12 - H2R   
  9596   9598   1    1.0920e-01    2.8225e+05 ;    C12 - H2S   
  9596   9599   1    1.5080e-01    2.7472e+05 ;    C12 - C11   
  9599   9600   1    1.2140e-01    5.4225e+05 ;    C11 - O12   
  9599   9601   1    1.3430e-01    3.4418e+05 ;    C11 - O11   
  9601   9602   1    1.4390e-01    2.5230e+05 ;    O11 - C1    
  9602   9603   1    1.0930e-01    2.8108e+05 ;     C1 - HR    
  9602   9604   1    1.0930e-01    2.8108e+05 ;     C1 - HS    
  9602   9605   1    1.5350e-01    2.5363e+05 ;     C1 - C2    
  9605   9606   1    1.0930e-01    2.8108e+05 ;     C2 - HX    
  9605   9607   1    1.5350e-01    2.5363e+05 ;     C2 - C3    
  9605   9634   1    1.4390e-01    2.5230e+05 ;     C2 - O21   
  9607   9608   1    1.0930e-01    2.8108e+05 ;     C3 - HA    
  9607   9609   1    1.0930e-01    2.8108e+05 ;     C3 - HB    
  9607   9610   1    1.4390e-01    2.5230e+05 ;     C3 - O31   
  9610   9611   1    1.6100e-01    1.9246e+05 ;    O31 - P31   
  9611   9612   1    1.6100e-01    1.9246e+05 ;    P31 - O32   
  9611   9632   1    1.4800e-01    4.3932e+05 ;    P31 - O33   
  9611   9633   1    1.4800e-01    4.3932e+05 ;    P31 - O34   
  9612   9613   1    1.4390e-01    2.5230e+05 ;    O32 - C31   
  9613   9614   1    1.0930e-01    2.8108e+05 ;    C31 - H1A   
  9613   9615   1    1.0930e-01    2.8108e+05 ;    C31 - H1B   
  9613   9616   1    1.5350e-01    2.5363e+05 ;    C31 - C32   
  9616   9617   1    1.0910e-01    2.8342e+05 ;    C32 - H2A   
  9616   9618   1    1.0910e-01    2.8342e+05 ;    C32 - H2B   
  9616   9619   1    1.4990e-01    2.4568e+05 ;    C32 - N31   
  9619   9620   1    1.4990e-01    2.4568e+05 ;    N31 - C33   
  9619   9624   1    1.4990e-01    2.4568e+05 ;    N31 - C34   
  9619   9628   1    1.4990e-01    2.4568e+05 ;    N31 - C35   
  9620   9621   1    1.0910e-01    2.8342e+05 ;    C33 - H3A   
  9620   9622   1    1.0910e-01    2.8342e+05 ;    C33 - H3B   
  9620   9623   1    1.0910e-01    2.8342e+05 ;    C33 - H3C   
  9624   9625   1    1.0910e-01    2.8342e+05 ;    C34 - H4A   
  9624   9626   1    1.0910e-01    2.8342e+05 ;    C34 - H4B   
  9624   9627   1    1.0910e-01    2.8342e+05 ;    C34 - H4C   
  9628   9629   1    1.0910e-01    2.8342e+05 ;    C35 - H5A   
  9628   9630   1    1.0910e-01    2.8342e+05 ;    C35 - H5B   
  9628   9631   1    1.0910e-01    2.8342e+05 ;    C35 - H5C   
  9634   9635   1    1.3430e-01    3.4418e+05 ;    O21 - C21   
  9635   9636   1    1.2140e-01    5.4225e+05 ;    C21 - O22   
  9635   9674   1    1.5080e-01    2.7472e+05 ;    C21 - C12   
  9637   9638   1    1.0920e-01    2.8225e+05 ;   H14T - C114  
  9638   9639   1    1.0920e-01    2.8225e+05 ;   C114 - H14R  
  9638   9640   1    1.0920e-01    2.8225e+05 ;   C114 - H14S  
  9638   9641   1    1.5350e-01    2.5363e+05 ;   C114 - C113  
  9641   9642   1    1.0920e-01    2.8225e+05 ;   C113 - H13R  
  9641   9643   1    1.0920e-01    2.8225e+05 ;   C113 - H13S  
  9641   9644   1    1.5350e-01    2.5363e+05 ;   C113 - C112  
  9644   9645   1    1.0920e-01    2.8225e+05 ;   C112 - H12R  
  9644   9646   1    1.0920e-01    2.8225e+05 ;   C112 - H12S  
  9644   9647   1    1.5350e-01    2.5363e+05 ;   C112 - C111  
  9647   9648   1    1.0920e-01    2.8225e+05 ;   C111 - H11R  
  9647   9649   1    1.0920e-01    2.8225e+05 ;   C111 - H11S  
  9647   9650   1    1.5350e-01    2.5363e+05 ;   C111 - C110  
  9650   9651   1    1.0920e-01    2.8225e+05 ;   C110 - H10R  
  9650   9652   1    1.0920e-01    2.8225e+05 ;   C110 - H10S  
  9650   9653   1    1.5350e-01    2.5363e+05 ;   C110 - C19   
  9653   9654   1    1.0920e-01    2.8225e+05 ;    C19 - H9R   
  9653   9655   1    1.0920e-01    2.8225e+05 ;    C19 - H9S   
  9653   9656   1    1.5350e-01    2.5363e+05 ;    C19 - C18   
  9656   9657   1    1.0920e-01    2.8225e+05 ;    C18 - H8R   
  9656   9658   1    1.0920e-01    2.8225e+05 ;    C18 - H8S   
  9656   9659   1    1.5350e-01    2.5363e+05 ;    C18 - C17   
  9659   9660   1    1.0920e-01    2.8225e+05 ;    C17 - H7R   
  9659   9661   1    1.0920e-01    2.8225e+05 ;    C17 - H7S   
  9659   9662   1    1.5350e-01    2.5363e+05 ;    C17 - C16   
  9662   9663   1    1.0920e-01    2.8225e+05 ;    C16 - H6R   
  9662   9664   1    1.0920e-01    2.8225e+05 ;    C16 - H6S   
  9662   9665   1    1.5350e-01    2.5363e+05 ;    C16 - C15   
  9665   9666   1    1.0920e-01    2.8225e+05 ;    C15 - H5R   
  9665   9667   1    1.0920e-01    2.8225e+05 ;    C15 - H5S   
  9665   9668   1    1.5350e-01    2.5363e+05 ;    C15 - C14   
  9668   9669   1    1.0920e-01    2.8225e+05 ;    C14 - H4R   
  9668   9670   1    1.0920e-01    2.8225e+05 ;    C14 - H4S   
  9668   9671   1    1.5350e-01    2.5363e+05 ;    C14 - C13   
  9671   9672   1    1.0920e-01    2.8225e+05 ;    C13 - H3R   
  9671   9673   1    1.0920e-01    2.8225e+05 ;    C13 - H3S   
  9671   9674   1    1.5350e-01    2.5363e+05 ;    C13 - C12   
  9674   9675   1    1.0920e-01    2.8225e+05 ;    C12 - H2R   
  9674   9676   1    1.0920e-01    2.8225e+05 ;    C12 - H2S   
  9677   9678   1    1.0920e-01    2.8225e+05 ;   H14T - C114  
  9678   9679   1    1.0920e-01    2.8225e+05 ;   C114 - H14R  
  9678   9680   1    1.0920e-01    2.8225e+05 ;   C114 - H14S  
  9678   9681   1    1.5350e-01    2.5363e+05 ;   C114 - C113  
  9681   9682   1    1.0920e-01    2.8225e+05 ;   C113 - H13R  
  9681   9683   1    1.0920e-01    2.8225e+05 ;   C113 - H13S  
  9681   9684   1    1.5350e-01    2.5363e+05 ;   C113 - C112  
  9684   9685   1    1.0920e-01    2.8225e+05 ;   C112 - H12R  
  9684   9686   1    1.0920e-01    2.8225e+05 ;   C112 - H12S  
  9684   9687   1    1.5350e-01    2.5363e+05 ;   C112 - C111  
  9687   9688   1    1.0920e-01    2.8225e+05 ;   C111 - H11R  
  9687   9689   1    1.0920e-01    2.8225e+05 ;   C111 - H11S  
  9687   9690   1    1.5350e-01    2.5363e+05 ;   C111 - C110  
  9690   9691   1    1.0920e-01    2.8225e+05 ;   C110 - H10R  
  9690   9692   1    1.0920e-01    2.8225e+05 ;   C110 - H10S  
  9690   9693   1    1.5350e-01    2.5363e+05 ;   C110 - C19   
  9693   9694   1    1.0920e-01    2.8225e+05 ;    C19 - H9R   
  9693   9695   1    1.0920e-01    2.8225e+05 ;    C19 - H9S   
  9693   9696   1    1.5350e-01    2.5363e+05 ;    C19 - C18   
  9696   9697   1    1.0920e-01    2.8225e+05 ;    C18 - H8R   
  9696   9698   1    1.0920e-01    2.8225e+05 ;    C18 - H8S   
  9696   9699   1    1.5350e-01    2.5363e+05 ;    C18 - C17   
  9699   9700   1    1.0920e-01    2.8225e+05 ;    C17 - H7R   
  9699   9701   1    1.0920e-01    2.8225e+05 ;    C17 - H7S   
  9699   9702   1    1.5350e-01    2.5363e+05 ;    C17 - C16   
  9702   9703   1    1.0920e-01    2.8225e+05 ;    C16 - H6R   
  9702   9704   1    1.0920e-01    2.8225e+05 ;    C16 - H6S   
  9702   9705   1    1.5350e-01    2.5363e+05 ;    C16 - C15   
  9705   9706   1    1.0920e-01    2.8225e+05 ;    C15 - H5R   
  9705   9707   1    1.0920e-01    2.8225e+05 ;    C15 - H5S   
  9705   9708   1    1.5350e-01    2.5363e+05 ;    C15 - C14   
  9708   9709   1    1.0920e-01    2.8225e+05 ;    C14 - H4R   
  9708   9710   1    1.0920e-01    2.8225e+05 ;    C14 - H4S   
  9708   9711   1    1.5350e-01    2.5363e+05 ;    C14 - C13   
  9711   9712   1    1.0920e-01    2.8225e+05 ;    C13 - H3R   
  9711   9713   1    1.0920e-01    2.8225e+05 ;    C13 - H3S   
  9711   9714   1    1.5350e-01    2.5363e+05 ;    C13 - C12   
  9714   9715   1    1.0920e-01    2.8225e+05 ;    C12 - H2R   
  9714   9716   1    1.0920e-01    2.8225e+05 ;    C12 - H2S   
  9714   9717   1    1.5080e-01    2.7472e+05 ;    C12 - C11   
  9717   9718   1    1.2140e-01    5.4225e+05 ;    C11 - O12   
  9717   9719   1    1.3430e-01    3.4418e+05 ;    C11 - O11   
  9719   9720   1    1.4390e-01    2.5230e+05 ;    O11 - C1    
  9720   9721   1    1.0930e-01    2.8108e+05 ;     C1 - HR    
  9720   9722   1    1.0930e-01    2.8108e+05 ;     C1 - HS    
  9720   9723   1    1.5350e-01    2.5363e+05 ;     C1 - C2    
  9723   9724   1    1.0930e-01    2.8108e+05 ;     C2 - HX    
  9723   9725   1    1.5350e-01    2.5363e+05 ;     C2 - C3    
  9723   9752   1    1.4390e-01    2.5230e+05 ;     C2 - O21   
  9725   9726   1    1.0930e-01    2.8108e+05 ;     C3 - HA    
  9725   9727   1    1.0930e-01    2.8108e+05 ;     C3 - HB    
  9725   9728   1    1.4390e-01    2.5230e+05 ;     C3 - O31   
  9728   9729   1    1.6100e-01    1.9246e+05 ;    O31 - P31   
  9729   9730   1    1.6100e-01    1.9246e+05 ;    P31 - O32   
  9729   9750   1    1.4800e-01    4.3932e+05 ;    P31 - O33   
  9729   9751   1    1.4800e-01    4.3932e+05 ;    P31 - O34   
  9730   9731   1    1.4390e-01    2.5230e+05 ;    O32 - C31   
  9731   9732   1    1.0930e-01    2.8108e+05 ;    C31 - H1A   
  9731   9733   1    1.0930e-01    2.8108e+05 ;    C31 - H1B   
  9731   9734   1    1.5350e-01    2.5363e+05 ;    C31 - C32   
  9734   9735   1    1.0910e-01    2.8342e+05 ;    C32 - H2A   
  9734   9736   1    1.0910e-01    2.8342e+05 ;    C32 - H2B   
  9734   9737   1    1.4990e-01    2.4568e+05 ;    C32 - N31   
  9737   9738   1    1.4990e-01    2.4568e+05 ;    N31 - C33   
  9737   9742   1    1.4990e-01    2.4568e+05 ;    N31 - C34   
  9737   9746   1    1.4990e-01    2.4568e+05 ;    N31 - C35   
  9738   9739   1    1.0910e-01    2.8342e+05 ;    C33 - H3A   
  9738   9740   1    1.0910e-01    2.8342e+05 ;    C33 - H3B   
  9738   9741   1    1.0910e-01    2.8342e+05 ;    C33 - H3C   
  9742   9743   1    1.0910e-01    2.8342e+05 ;    C34 - H4A   
  9742   9744   1    1.0910e-01    2.8342e+05 ;    C34 - H4B   
  9742   9745   1    1.0910e-01    2.8342e+05 ;    C34 - H4C   
  9746   9747   1    1.0910e-01    2.8342e+05 ;    C35 - H5A   
  9746   9748   1    1.0910e-01    2.8342e+05 ;    C35 - H5B   
  9746   9749   1    1.0910e-01    2.8342e+05 ;    C35 - H5C   
  9752   9753   1    1.3430e-01    3.4418e+05 ;    O21 - C21   
  9753   9754   1    1.2140e-01    5.4225e+05 ;    C21 - O22   
  9753   9792   1    1.5080e-01    2.7472e+05 ;    C21 - C12   
  9755   9756   1    1.0920e-01    2.8225e+05 ;   H14T - C114  
  9756   9757   1    1.0920e-01    2.8225e+05 ;   C114 - H14R  
  9756   9758   1    1.0920e-01    2.8225e+05 ;   C114 - H14S  
  9756   9759   1    1.5350e-01    2.5363e+05 ;   C114 - C113  
  9759   9760   1    1.0920e-01    2.8225e+05 ;   C113 - H13R  
  9759   9761   1    1.0920e-01    2.8225e+05 ;   C113 - H13S  
  9759   9762   1    1.5350e-01    2.5363e+05 ;   C113 - C112  
  9762   9763   1    1.0920e-01    2.8225e+05 ;   C112 - H12R  
  9762   9764   1    1.0920e-01    2.8225e+05 ;   C112 - H12S  
  9762   9765   1    1.5350e-01    2.5363e+05 ;   C112 - C111  
  9765   9766   1    1.0920e-01    2.8225e+05 ;   C111 - H11R  
  9765   9767   1    1.0920e-01    2.8225e+05 ;   C111 - H11S  
  9765   9768   1    1.5350e-01    2.5363e+05 ;   C111 - C110  
  9768   9769   1    1.0920e-01    2.8225e+05 ;   C110 - H10R  
  9768   9770   1    1.0920e-01    2.8225e+05 ;   C110 - H10S  
  9768   9771   1    1.5350e-01    2.5363e+05 ;   C110 - C19   
  9771   9772   1    1.0920e-01    2.8225e+05 ;    C19 - H9R   
  9771   9773   1    1.0920e-01    2.8225e+05 ;    C19 - H9S   
  9771   9774   1    1.5350e-01    2.5363e+05 ;    C19 - C18   
  9774   9775   1    1.0920e-01    2.8225e+05 ;    C18 - H8R   
  9774   9776   1    1.0920e-01    2.8225e+05 ;    C18 - H8S   
  9774   9777   1    1.5350e-01    2.5363e+05 ;    C18 - C17   
  9777   9778   1    1.0920e-01    2.8225e+05 ;    C17 - H7R   
  9777   9779   1    1.0920e-01    2.8225e+05 ;    C17 - H7S   
  9777   9780   1    1.5350e-01    2.5363e+05 ;    C17 - C16   
  9780   9781   1    1.0920e-01    2.8225e+05 ;    C16 - H6R   
  9780   9782   1    1.0920e-01    2.8225e+05 ;    C16 - H6S   
  9780   9783   1    1.5350e-01    2.5363e+05 ;    C16 - C15   
  9783   9784   1    1.0920e-01    2.8225e+05 ;    C15 - H5R   
  9783   9785   1    1.0920e-01    2.8225e+05 ;    C15 - H5S   
  9783   9786   1    1.5350e-01    2.5363e+05 ;    C15 - C14   
  9786   9787   1    1.0920e-01    2.8225e+05 ;    C14 - H4R   
  9786   9788   1    1.0920e-01    2.8225e+05 ;    C14 - H4S   
  9786   9789   1    1.5350e-01    2.5363e+05 ;    C14 - C13   
  9789   9790   1    1.0920e-01    2.8225e+05 ;    C13 - H3R   
  9789   9791   1    1.0920e-01    2.8225e+05 ;    C13 - H3S   
  9789   9792   1    1.5350e-01    2.5363e+05 ;    C13 - C12   
  9792   9793   1    1.0920e-01    2.8225e+05 ;    C12 - H2R   
  9792   9794   1    1.0920e-01    2.8225e+05 ;    C12 - H2S   
  9795   9796   1    1.0920e-01    2.8225e+05 ;   H14T - C114  
  9796   9797   1    1.0920e-01    2.8225e+05 ;   C114 - H14R  
  9796   9798   1    1.0920e-01    2.8225e+05 ;   C114 - H14S  
  9796   9799   1    1.5350e-01    2.5363e+05 ;   C114 - C113  
  9799   9800   1    1.0920e-01    2.8225e+05 ;   C113 - H13R  
  9799   9801   1    1.0920e-01    2.8225e+05 ;   C113 - H13S  
  9799   9802   1    1.5350e-01    2.5363e+05 ;   C113 - C112  
  9802   9803   1    1.0920e-01    2.8225e+05 ;   C112 - H12R  
  9802   9804   1    1.0920e-01    2.8225e+05 ;   C112 - H12S  
  9802   9805   1    1.5350e-01    2.5363e+05 ;   C112 - C111  
  9805   9806   1    1.0920e-01    2.8225e+05 ;   C111 - H11R  
  9805   9807   1    1.0920e-01    2.8225e+05 ;   C111 - H11S  
  9805   9808   1    1.5350e-01    2.5363e+05 ;   C111 - C110  
  9808   9809   1    1.0920e-01    2.8225e+05 ;   C110 - H10R  
  9808   9810   1    1.0920e-01    2.8225e+05 ;   C110 - H10S  
  9808   9811   1    1.5350e-01    2.5363e+05 ;   C110 - C19   
  9811   9812   1    1.0920e-01    2.8225e+05 ;    C19 - H9R   
  9811   9813   1    1.0920e-01    2.8225e+05 ;    C19 - H9S   
  9811   9814   1    1.5350e-01    2.5363e+05 ;    C19 - C18   
  9814   9815   1    1.0920e-01    2.8225e+05 ;    C18 - H8R   
  9814   9816   1    1.0920e-01    2.8225e+05 ;    C18 - H8S   
  9814   9817   1    1.5350e-01    2.5363e+05 ;    C18 - C17   
  9817   9818   1    1.0920e-01    2.8225e+05 ;    C17 - H7R   
  9817   9819   1    1.0920e-01    2.8225e+05 ;    C17 - H7S   
  9817   9820   1    1.5350e-01    2.5363e+05 ;    C17 - C16   
  9820   9821   1    1.0920e-01    2.8225e+05 ;    C16 - H6R   
  9820   9822   1    1.0920e-01    2.8225e+05 ;    C16 - H6S   
  9820   9823   1    1.5350e-01    2.5363e+05 ;    C16 - C15   
  9823   9824   1    1.0920e-01    2.8225e+05 ;    C15 - H5R   
  9823   9825   1    1.0920e-01    2.8225e+05 ;    C15 - H5S   
  9823   9826   1    1.5350e-01    2.5363e+05 ;    C15 - C14   
  9826   9827   1    1.0920e-01    2.8225e+05 ;    C14 - H4R   
  9826   9828   1    1.0920e-01    2.8225e+05 ;    C14 - H4S   
  9826   9829   1    1.5350e-01    2.5363e+05 ;    C14 - C13   
  9829   9830   1    1.0920e-01    2.8225e+05 ;    C13 - H3R   
  9829   9831   1    1.0920e-01    2.8225e+05 ;    C13 - H3S   
  9829   9832   1    1.5350e-01    2.5363e+05 ;    C13 - C12   
  9832   9833   1    1.0920e-01    2.8225e+05 ;    C12 - H2R   
  9832   9834   1    1.0920e-01    2.8225e+05 ;    C12 - H2S   
  9832   9835   1    1.5080e-01    2.7472e+05 ;    C12 - C11   
  9835   9836   1    1.2140e-01    5.4225e+05 ;    C11 - O12   
  9835   9837   1    1.3430e-01    3.4418e+05 ;    C11 - O11   
  9837   9838   1    1.4390e-01    2.5230e+05 ;    O11 - C1    
  9838   9839   1    1.0930e-01    2.8108e+05 ;     C1 - HR    
  9838   9840   1    1.0930e-01    2.8108e+05 ;     C1 - HS    
  9838   9841   1    1.5350e-01    2.5363e+05 ;     C1 - C2    
  9841   9842   1    1.0930e-01    2.8108e+05 ;     C2 - HX    
  9841   9843   1    1.5350e-01    2.5363e+05 ;     C2 - C3    
  9841   9870   1    1.4390e-01    2.5230e+05 ;     C2 - O21   
  9843   9844   1    1.0930e-01    2.8108e+05 ;     C3 - HA    
  9843   9845   1    1.0930e-01    2.8108e+05 ;     C3 - HB    
  9843   9846   1    1.4390e-01    2.5230e+05 ;     C3 - O31   
  9846   9847   1    1.6100e-01    1.9246e+05 ;    O31 - P31   
  9847   9848   1    1.6100e-01    1.9246e+05 ;    P31 - O32   
  9847   9868   1    1.4800e-01    4.3932e+05 ;    P31 - O33   
  9847   9869   1    1.4800e-01    4.3932e+05 ;    P31 - O34   
  9848   9849   1    1.4390e-01    2.5230e+05 ;    O32 - C31   
  9849   9850   1    1.0930e-01    2.8108e+05 ;    C31 - H1A   
  9849   9851   1    1.0930e-01    2.8108e+05 ;    C31 - H1B   
  9849   9852   1    1.5350e-01    2.5363e+05 ;    C31 - C32   
  9852   9853   1    1.0910e-01    2.8342e+05 ;    C32 - H2A   
  9852   9854   1    1.0910e-01    2.8342e+05 ;    C32 - H2B   
  9852   9855   1    1.4990e-01    2.4568e+05 ;    C32 - N31   
  9855   9856   1    1.4990e-01    2.4568e+05 ;    N31 - C33   
  9855   9860   1    1.4990e-01    2.4568e+05 ;    N31 - C34   
  9855   9864   1    1.4990e-01    2.4568e+05 ;    N31 - C35   
  9856   9857   1    1.0910e-01    2.8342e+05 ;    C33 - H3A   
  9856   9858   1    1.0910e-01    2.8342e+05 ;    C33 - H3B   
  9856   9859   1    1.0910e-01    2.8342e+05 ;    C33 - H3C   
  9860   9861   1    1.0910e-01    2.8342e+05 ;    C34 - H4A   
  9860   9862   1    1.0910e-01    2.8342e+05 ;    C34 - H4B   
  9860   9863   1    1.0910e-01    2.8342e+05 ;    C34 - H4C   
  9864   9865   1    1.0910e-01    2.8342e+05 ;    C35 - H5A   
  9864   9866   1    1.0910e-01    2.8342e+05 ;    C35 - H5B   
  9864   9867   1    1.0910e-01    2.8342e+05 ;    C35 - H5C   
  9870   9871   1    1.3430e-01    3.4418e+05 ;    O21 - C21   
  9871   9872   1    1.2140e-01    5.4225e+05 ;    C21 - O22   
  9871   9910   1    1.5080e-01    2.7472e+05 ;    C21 - C12   
  9873   9874   1    1.0920e-01    2.8225e+05 ;   H14T - C114  
  9874   9875   1    1.0920e-01    2.8225e+05 ;   C114 - H14R  
  9874   9876   1    1.0920e-01    2.8225e+05 ;   C114 - H14S  
  9874   9877   1    1.5350e-01    2.5363e+05 ;   C114 - C113  
  9877   9878   1    1.0920e-01    2.8225e+05 ;   C113 - H13R  
  9877   9879   1    1.0920e-01    2.8225e+05 ;   C113 - H13S  
  9877   9880   1    1.5350e-01    2.5363e+05 ;   C113 - C112  
  9880   9881   1    1.0920e-01    2.8225e+05 ;   C112 - H12R  
  9880   9882   1    1.0920e-01    2.8225e+05 ;   C112 - H12S  
  9880   9883   1    1.5350e-01    2.5363e+05 ;   C112 - C111  
  9883   9884   1    1.0920e-01    2.8225e+05 ;   C111 - H11R  
  9883   9885   1    1.0920e-01    2.8225e+05 ;   C111 - H11S  
  9883   9886   1    1.5350e-01    2.5363e+05 ;   C111 - C110  
  9886   9887   1    1.0920e-01    2.8225e+05 ;   C110 - H10R  
  9886   9888   1    1.0920e-01    2.8225e+05 ;   C110 - H10S  
  9886   9889   1    1.5350e-01    2.5363e+05 ;   C110 - C19   
  9889   9890   1    1.0920e-01    2.8225e+05 ;    C19 - H9R   
  9889   9891   1    1.0920e-01    2.8225e+05 ;    C19 - H9S   
  9889   9892   1    1.5350e-01    2.5363e+05 ;    C19 - C18   
  9892   9893   1    1.0920e-01    2.8225e+05 ;    C18 - H8R   
  9892   9894   1    1.0920e-01    2.8225e+05 ;    C18 - H8S   
  9892   9895   1    1.5350e-01    2.5363e+05 ;    C18 - C17   
  9895   9896   1    1.0920e-01    2.8225e+05 ;    C17 - H7R   
  9895   9897   1    1.0920e-01    2.8225e+05 ;    C17 - H7S   
  9895   9898   1    1.5350e-01    2.5363e+05 ;    C17 - C16   
  9898   9899   1    1.0920e-01    2.8225e+05 ;    C16 - H6R   
  9898   9900   1    1.0920e-01    2.8225e+05 ;    C16 - H6S   
  9898   9901   1    1.5350e-01    2.5363e+05 ;    C16 - C15   
  9901   9902   1    1.0920e-01    2.8225e+05 ;    C15 - H5R   
  9901   9903   1    1.0920e-01    2.8225e+05 ;    C15 - H5S   
  9901   9904   1    1.5350e-01    2.5363e+05 ;    C15 - C14   
  9904   9905   1    1.0920e-01    2.8225e+05 ;    C14 - H4R   
  9904   9906   1    1.0920e-01    2.8225e+05 ;    C14 - H4S   
  9904   9907   1    1.5350e-01    2.5363e+05 ;    C14 - C13   
  9907   9908   1    1.0920e-01    2.8225e+05 ;    C13 - H3R   
  9907   9909   1    1.0920e-01    2.8225e+05 ;    C13 - H3S   
  9907   9910   1    1.5350e-01    2.5363e+05 ;    C13 - C12   
  9910   9911   1    1.0920e-01    2.8225e+05 ;    C12 - H2R   
  9910   9912   1    1.0920e-01    2.8225e+05 ;    C12 - H2S   
  9913   9914   1    1.0920e-01    2.8225e+05 ;   H14T - C114  
  9914   9915   1    1.0920e-01    2.8225e+05 ;   C114 - H14R  
  9914   9916   1    1.0920e-01    2.8225e+05 ;   C114 - H14S  
  9914   9917   1    1.5350e-01    2.5363e+05 ;   C114 - C113  
  9917   9918   1    1.0920e-01    2.8225e+05 ;   C113 - H13R  
  9917   9919   1    1.0920e-01    2.8225e+05 ;   C113 - H13S  
  9917   9920   1    1.5350e-01    2.5363e+05 ;   C113 - C112  
  9920   9921   1    1.0920e-01    2.8225e+05 ;   C112 - H12R  
  9920   9922   1    1.0920e-01    2.8225e+05 ;   C112 - H12S  
  9920   9923   1    1.5350e-01    2.5363e+05 ;   C112 - C111  
  9923   9924   1    1.0920e-01    2.8225e+05 ;   C111 - H11R  
  9923   9925   1    1.0920e-01    2.8225e+05 ;   C111 - H11S  
  9923   9926   1    1.5350e-01    2.5363e+05 ;   C111 - C110  
  9926   9927   1    1.0920e-01    2.8225e+05 ;   C110 - H10R  
  9926   9928   1    1.0920e-01    2.8225e+05 ;   C110 - H10S  
  9926   9929   1    1.5350e-01    2.5363e+05 ;   C110 - C19   
  9929   9930   1    1.0920e-01    2.8225e+05 ;    C19 - H9R   
  9929   9931   1    1.0920e-01    2.8225e+05 ;    C19 - H9S   
  9929   9932   1    1.5350e-01    2.5363e+05 ;    C19 - C18   
  9932   9933   1    1.0920e-01    2.8225e+05 ;    C18 - H8R   
  9932   9934   1    1.0920e-01    2.8225e+05 ;    C18 - H8S   
  9932   9935   1    1.5350e-01    2.5363e+05 ;    C18 - C17   
  9935   9936   1    1.0920e-01    2.8225e+05 ;    C17 - H7R   
  9935   9937   1    1.0920e-01    2.8225e+05 ;    C17 - H7S   
  9935   9938   1    1.5350e-01    2.5363e+05 ;    C17 - C16   
  9938   9939   1    1.0920e-01    2.8225e+05 ;    C16 - H6R   
  9938   9940   1    1.0920e-01    2.8225e+05 ;    C16 - H6S   
  9938   9941   1    1.5350e-01    2.5363e+05 ;    C16 - C15   
  9941   9942   1    1.0920e-01    2.8225e+05 ;    C15 - H5R   
  9941   9943   1    1.0920e-01    2.8225e+05 ;    C15 - H5S   
  9941   9944   1    1.5350e-01    2.5363e+05 ;    C15 - C14   
  9944   9945   1    1.0920e-01    2.8225e+05 ;    C14 - H4R   
  9944   9946   1    1.0920e-01    2.8225e+05 ;    C14 - H4S   
  9944   9947   1    1.5350e-01    2.5363e+05 ;    C14 - C13   
  9947   9948   1    1.0920e-01    2.8225e+05 ;    C13 - H3R   
  9947   9949   1    1.0920e-01    2.8225e+05 ;    C13 - H3S   
  9947   9950   1    1.5350e-01    2.5363e+05 ;    C13 - C12   
  9950   9951   1    1.0920e-01    2.8225e+05 ;    C12 - H2R   
  9950   9952   1    1.0920e-01    2.8225e+05 ;    C12 - H2S   
  9950   9953   1    1.5080e-01    2.7472e+05 ;    C12 - C11   
  9953   9954   1    1.2140e-01    5.4225e+05 ;    C11 - O12   
  9953   9955   1    1.3430e-01    3.4418e+05 ;    C11 - O11   
  9955   9956   1    1.4390e-01    2.5230e+05 ;    O11 - C1    
  9956   9957   1    1.0930e-01    2.8108e+05 ;     C1 - HR    
  9956   9958   1    1.0930e-01    2.8108e+05 ;     C1 - HS    
  9956   9959   1    1.5350e-01    2.5363e+05 ;     C1 - C2    
  9959   9960   1    1.0930e-01    2.8108e+05 ;     C2 - HX    
  9959   9961   1    1.5350e-01    2.5363e+05 ;     C2 - C3    
  9959   9988   1    1.4390e-01    2.5230e+05 ;     C2 - O21   
  9961   9962   1    1.0930e-01    2.8108e+05 ;     C3 - HA    
  9961   9963   1    1.0930e-01    2.8108e+05 ;     C3 - HB    
  9961   9964   1    1.4390e-01    2.5230e+05 ;     C3 - O31   
  9964   9965   1    1.6100e-01    1.9246e+05 ;    O31 - P31   
  9965   9966   1    1.6100e-01    1.9246e+05 ;    P31 - O32   
  9965   9986   1    1.4800e-01    4.3932e+05 ;    P31 - O33   
  9965   9987   1    1.4800e-01    4.3932e+05 ;    P31 - O34   
  9966   9967   1    1.4390e-01    2.5230e+05 ;    O32 - C31   
  9967   9968   1    1.0930e-01    2.8108e+05 ;    C31 - H1A   
  9967   9969   1    1.0930e-01    2.8108e+05 ;    C31 - H1B   
  9967   9970   1    1.5350e-01    2.5363e+05 ;    C31 - C32   
  9970   9971   1    1.0910e-01    2.8342e+05 ;    C32 - H2A   
  9970   9972   1    1.0910e-01    2.8342e+05 ;    C32 - H2B   
  9970   9973   1    1.4990e-01    2.4568e+05 ;    C32 - N31   
  9973   9974   1    1.4990e-01    2.4568e+05 ;    N31 - C33   
  9973   9978   1    1.4990e-01    2.4568e+05 ;    N31 - C34   
  9973   9982   1    1.4990e-01    2.4568e+05 ;    N31 - C35   
  9974   9975   1    1.0910e-01    2.8342e+05 ;    C33 - H3A   
  9974   9976   1    1.0910e-01    2.8342e+05 ;    C33 - H3B   
  9974   9977   1    1.0910e-01    2.8342e+05 ;    C33 - H3C   
  9978   9979   1    1.0910e-01    2.8342e+05 ;    C34 - H4A   
  9978   9980   1    1.0910e-01    2.8342e+05 ;    C34 - H4B   
  9978   9981   1    1.0910e-01    2.8342e+05 ;    C34 - H4C   
  9982   9983   1    1.0910e-01    2.8342e+05 ;    C35 - H5A   
  9982   9984   1    1.0910e-01    2.8342e+05 ;    C35 - H5B   
  9982   9985   1    1.0910e-01    2.8342e+05 ;    C35 - H5C   
  9988   9989   1    1.3430e-01    3.4418e+05 ;    O21 - C21   
  9989   9990   1    1.2140e-01    5.4225e+05 ;    C21 - O22   
  9989  10028   1    1.5080e-01    2.7472e+05 ;    C21 - C12   
  9991   9992   1    1.0920e-01    2.8225e+05 ;   H14T - C114  
  9992   9993   1    1.0920e-01    2.8225e+05 ;   C114 - H14R  
  9992   9994   1    1.0920e-01    2.8225e+05 ;   C114 - H14S  
  9992   9995   1    1.5350e-01    2.5363e+05 ;   C114 - C113  
  9995   9996   1    1.0920e-01    2.8225e+05 ;   C113 - H13R  
  9995   9997   1    1.0920e-01    2.8225e+05 ;   C113 - H13S  
  9995   9998   1    1.5350e-01    2.5363e+05 ;   C113 - C112  
  9998   9999   1    1.0920e-01    2.8225e+05 ;   C112 - H12R  
  9998  10000   1    1.0920e-01    2.8225e+05 ;   C112 - H12S  
  9998  10001   1    1.5350e-01    2.5363e+05 ;   C112 - C111  
 10001  10002   1    1.0920e-01    2.8225e+05 ;   C111 - H11R  
 10001  10003   1    1.0920e-01    2.8225e+05 ;   C111 - H11S  
 10001  10004   1    1.5350e-01    2.5363e+05 ;   C111 - C110  
 10004  10005   1    1.0920e-01    2.8225e+05 ;   C110 - H10R  
 10004  10006   1    1.0920e-01    2.8225e+05 ;   C110 - H10S  
 10004  10007   1    1.5350e-01    2.5363e+05 ;   C110 - C19   
 10007  10008   1    1.0920e-01    2.8225e+05 ;    C19 - H9R   
 10007  10009   1    1.0920e-01    2.8225e+05 ;    C19 - H9S   
 10007  10010   1    1.5350e-01    2.5363e+05 ;    C19 - C18   
 10010  10011   1    1.0920e-01    2.8225e+05 ;    C18 - H8R   
 10010  10012   1    1.0920e-01    2.8225e+05 ;    C18 - H8S   
 10010  10013   1    1.5350e-01    2.5363e+05 ;    C18 - C17   
 10013  10014   1    1.0920e-01    2.8225e+05 ;    C17 - H7R   
 10013  10015   1    1.0920e-01    2.8225e+05 ;    C17 - H7S   
 10013  10016   1    1.5350e-01    2.5363e+05 ;    C17 - C16   
 10016  10017   1    1.0920e-01    2.8225e+05 ;    C16 - H6R   
 10016  10018   1    1.0920e-01    2.8225e+05 ;    C16 - H6S   
 10016  10019   1    1.5350e-01    2.5363e+05 ;    C16 - C15   
 10019  10020   1    1.0920e-01    2.8225e+05 ;    C15 - H5R   
 10019  10021   1    1.0920e-01    2.8225e+05 ;    C15 - H5S   
 10019  10022   1    1.5350e-01    2.5363e+05 ;    C15 - C14   
 10022  10023   1    1.0920e-01    2.8225e+05 ;    C14 - H4R   
 10022  10024   1    1.0920e-01    2.8225e+05 ;    C14 - H4S   
 10022  10025   1    1.5350e-01    2.5363e+05 ;    C14 - C13   
 10025  10026   1    1.0920e-01    2.8225e+05 ;    C13 - H3R   
 10025  10027   1    1.0920e-01    2.8225e+05 ;    C13 - H3S   
 10025  10028   1    1.5350e-01    2.5363e+05 ;    C13 - C12   
 10028  10029   1    1.0920e-01    2.8225e+05 ;    C12 - H2R   
 10028  10030   1    1.0920e-01    2.8225e+05 ;    C12 - H2S   
 10031  10032   1    1.0920e-01    2.8225e+05 ;   H14T - C114  
 10032  10033   1    1.0920e-01    2.8225e+05 ;   C114 - H14R  
 10032  10034   1    1.0920e-01    2.8225e+05 ;   C114 - H14S  
 10032  10035   1    1.5350e-01    2.5363e+05 ;   C114 - C113  
 10035  10036   1    1.0920e-01    2.8225e+05 ;   C113 - H13R  
 10035  10037   1    1.0920e-01    2.8225e+05 ;   C113 - H13S  
 10035  10038   1    1.5350e-01    2.5363e+05 ;   C113 - C112  
 10038  10039   1    1.0920e-01    2.8225e+05 ;   C112 - H12R  
 10038  10040   1    1.0920e-01    2.8225e+05 ;   C112 - H12S  
 10038  10041   1    1.5350e-01    2.5363e+05 ;   C112 - C111  
 10041  10042   1    1.0920e-01    2.8225e+05 ;   C111 - H11R  
 10041  10043   1    1.0920e-01    2.8225e+05 ;   C111 - H11S  
 10041  10044   1    1.5350e-01    2.5363e+05 ;   C111 - C110  
 10044  10045   1    1.0920e-01    2.8225e+05 ;   C110 - H10R  
 10044  10046   1    1.0920e-01    2.8225e+05 ;   C110 - H10S  
 10044  10047   1    1.5350e-01    2.5363e+05 ;   C110 - C19   
 10047  10048   1    1.0920e-01    2.8225e+05 ;    C19 - H9R   
 10047  10049   1    1.0920e-01    2.8225e+05 ;    C19 - H9S   
 10047  10050   1    1.5350e-01    2.5363e+05 ;    C19 - C18   
 10050  10051   1    1.0920e-01    2.8225e+05 ;    C18 - H8R   
 10050  10052   1    1.0920e-01    2.8225e+05 ;    C18 - H8S   
 10050  10053   1    1.5350e-01    2.5363e+05 ;    C18 - C17   
 10053  10054   1    1.0920e-01    2.8225e+05 ;    C17 - H7R   
 10053  10055   1    1.0920e-01    2.8225e+05 ;    C17 - H7S   
 10053  10056   1    1.5350e-01    2.5363e+05 ;    C17 - C16   
 10056  10057   1    1.0920e-01    2.8225e+05 ;    C16 - H6R   
 10056  10058   1    1.0920e-01    2.8225e+05 ;    C16 - H6S   
 10056  10059   1    1.5350e-01    2.5363e+05 ;    C16 - C15   
 10059  10060   1    1.0920e-01    2.8225e+05 ;    C15 - H5R   
 10059  10061   1    1.0920e-01    2.8225e+05 ;    C15 - H5S   
 10059  10062   1    1.5350e-01    2.5363e+05 ;    C15 - C14   
 10062  10063   1    1.0920e-01    2.8225e+05 ;    C14 - H4R   
 10062  10064   1    1.0920e-01    2.8225e+05 ;    C14 - H4S   
 10062  10065   1    1.5350e-01    2.5363e+05 ;    C14 - C13   
 10065  10066   1    1.0920e-01    2.8225e+05 ;    C13 - H3R   
 10065  10067   1    1.0920e-01    2.8225e+05 ;    C13 - H3S   
 10065  10068   1    1.5350e-01    2.5363e+05 ;    C13 - C12   
 10068  10069   1    1.0920e-01    2.8225e+05 ;    C12 - H2R   
 10068  10070   1    1.0920e-01    2.8225e+05 ;    C12 - H2S   
 10068  10071   1    1.5080e-01    2.7472e+05 ;    C12 - C11   
 10071  10072   1    1.2140e-01    5.4225e+05 ;    C11 - O12   
 10071  10073   1    1.3430e-01    3.4418e+05 ;    C11 - O11   
 10073  10074   1    1.4390e-01    2.5230e+05 ;    O11 - C1    
 10074  10075   1    1.0930e-01    2.8108e+05 ;     C1 - HR    
 10074  10076   1    1.0930e-01    2.8108e+05 ;     C1 - HS    
 10074  10077   1    1.5350e-01    2.5363e+05 ;     C1 - C2    
 10077  10078   1    1.0930e-01    2.8108e+05 ;     C2 - HX    
 10077  10079   1    1.5350e-01    2.5363e+05 ;     C2 - C3    
 10077  10106   1    1.4390e-01    2.5230e+05 ;     C2 - O21   
 10079  10080   1    1.0930e-01    2.8108e+05 ;     C3 - HA    
 10079  10081   1    1.0930e-01    2.8108e+05 ;     C3 - HB    
 10079  10082   1    1.4390e-01    2.5230e+05 ;     C3 - O31   
 10082  10083   1    1.6100e-01    1.9246e+05 ;    O31 - P31   
 10083  10084   1    1.6100e-01    1.9246e+05 ;    P31 - O32   
 10083  10104   1    1.4800e-01    4.3932e+05 ;    P31 - O33   
 10083  10105   1    1.4800e-01    4.3932e+05 ;    P31 - O34   
 10084  10085   1    1.4390e-01    2.5230e+05 ;    O32 - C31   
 10085  10086   1    1.0930e-01    2.8108e+05 ;    C31 - H1A   
 10085  10087   1    1.0930e-01    2.8108e+05 ;    C31 - H1B   
 10085  10088   1    1.5350e-01    2.5363e+05 ;    C31 - C32   
 10088  10089   1    1.0910e-01    2.8342e+05 ;    C32 - H2A   
 10088  10090   1    1.0910e-01    2.8342e+05 ;    C32 - H2B   
 10088  10091   1    1.4990e-01    2.4568e+05 ;    C32 - N31   
 10091  10092   1    1.4990e-01    2.4568e+05 ;    N31 - C33   
 10091  10096   1    1.4990e-01    2.4568e+05 ;    N31 - C34   
 10091  10100   1    1.4990e-01    2.4568e+05 ;    N31 - C35   
 10092  10093   1    1.0910e-01    2.8342e+05 ;    C33 - H3A   
 10092  10094   1    1.0910e-01    2.8342e+05 ;    C33 - H3B   
 10092  10095   1    1.0910e-01    2.8342e+05 ;    C33 - H3C   
 10096  10097   1    1.0910e-01    2.8342e+05 ;    C34 - H4A   
 10096  10098   1    1.0910e-01    2.8342e+05 ;    C34 - H4B   
 10096  10099   1    1.0910e-01    2.8342e+05 ;    C34 - H4C   
 10100  10101   1    1.0910e-01    2.8342e+05 ;    C35 - H5A   
 10100  10102   1    1.0910e-01    2.8342e+05 ;    C35 - H5B   
 10100  10103   1    1.0910e-01    2.8342e+05 ;    C35 - H5C   
 10106  10107   1    1.3430e-01    3.4418e+05 ;    O21 - C21   
 10107  10108   1    1.2140e-01    5.4225e+05 ;    C21 - O22   
 10107  10146   1    1.5080e-01    2.7472e+05 ;    C21 - C12   
 10109  10110   1    1.0920e-01    2.8225e+05 ;   H14T - C114  
 10110  10111   1    1.0920e-01    2.8225e+05 ;   C114 - H14R  
 10110  10112   1    1.0920e-01    2.8225e+05 ;   C114 - H14S  
 10110  10113   1    1.5350e-01    2.5363e+05 ;   C114 - C113  
 10113  10114   1    1.0920e-01    2.8225e+05 ;   C113 - H13R  
 10113  10115   1    1.0920e-01    2.8225e+05 ;   C113 - H13S  
 10113  10116   1    1.5350e-01    2.5363e+05 ;   C113 - C112  
 10116  10117   1    1.0920e-01    2.8225e+05 ;   C112 - H12R  
 10116  10118   1    1.0920e-01    2.8225e+05 ;   C112 - H12S  
 10116  10119   1    1.5350e-01    2.5363e+05 ;   C112 - C111  
 10119  10120   1    1.0920e-01    2.8225e+05 ;   C111 - H11R  
 10119  10121   1    1.0920e-01    2.8225e+05 ;   C111 - H11S  
 10119  10122   1    1.5350e-01    2.5363e+05 ;   C111 - C110  
 10122  10123   1    1.0920e-01    2.8225e+05 ;   C110 - H10R  
 10122  10124   1    1.0920e-01    2.8225e+05 ;   C110 - H10S  
 10122  10125   1    1.5350e-01    2.5363e+05 ;   C110 - C19   
 10125  10126   1    1.0920e-01    2.8225e+05 ;    C19 - H9R   
 10125  10127   1    1.0920e-01    2.8225e+05 ;    C19 - H9S   
 10125  10128   1    1.5350e-01    2.5363e+05 ;    C19 - C18   
 10128  10129   1    1.0920e-01    2.8225e+05 ;    C18 - H8R   
 10128  10130   1    1.0920e-01    2.8225e+05 ;    C18 - H8S   
 10128  10131   1    1.5350e-01    2.5363e+05 ;    C18 - C17   
 10131  10132   1    1.0920e-01    2.8225e+05 ;    C17 - H7R   
 10131  10133   1    1.0920e-01    2.8225e+05 ;    C17 - H7S   
 10131  10134   1    1.5350e-01    2.5363e+05 ;    C17 - C16   
 10134  10135   1    1.0920e-01    2.8225e+05 ;    C16 - H6R   
 10134  10136   1    1.0920e-01    2.8225e+05 ;    C16 - H6S   
 10134  10137   1    1.5350e-01    2.5363e+05 ;    C16 - C15   
 10137  10138   1    1.0920e-01    2.8225e+05 ;    C15 - H5R   
 10137  10139   1    1.0920e-01    2.8225e+05 ;    C15 - H5S   
 10137  10140   1    1.5350e-01    2.5363e+05 ;    C15 - C14   
 10140  10141   1    1.0920e-01    2.8225e+05 ;    C14 - H4R   
 10140  10142   1    1.0920e-01    2.8225e+05 ;    C14 - H4S   
 10140  10143   1    1.5350e-01    2.5363e+05 ;    C14 - C13   
 10143  10144   1    1.0920e-01    2.8225e+05 ;    C13 - H3R   
 10143  10145   1    1.0920e-01    2.8225e+05 ;    C13 - H3S   
 10143  10146   1    1.5350e-01    2.5363e+05 ;    C13 - C12   
 10146  10147   1    1.0920e-01    2.8225e+05 ;    C12 - H2R   
 10146  10148   1    1.0920e-01    2.8225e+05 ;    C12 - H2S   
 10149  10150   1    1.0920e-01    2.8225e+05 ;   H14T - C114  
 10150  10151   1    1.0920e-01    2.8225e+05 ;   C114 - H14R  
 10150  10152   1    1.0920e-01    2.8225e+05 ;   C114 - H14S  
 10150  10153   1    1.5350e-01    2.5363e+05 ;   C114 - C113  
 10153  10154   1    1.0920e-01    2.8225e+05 ;   C113 - H13R  
 10153  10155   1    1.0920e-01    2.8225e+05 ;   C113 - H13S  
 10153  10156   1    1.5350e-01    2.5363e+05 ;   C113 - C112  
 10156  10157   1    1.0920e-01    2.8225e+05 ;   C112 - H12R  
 10156  10158   1    1.0920e-01    2.8225e+05 ;   C112 - H12S  
 10156  10159   1    1.5350e-01    2.5363e+05 ;   C112 - C111  
 10159  10160   1    1.0920e-01    2.8225e+05 ;   C111 - H11R  
 10159  10161   1    1.0920e-01    2.8225e+05 ;   C111 - H11S  
 10159  10162   1    1.5350e-01    2.5363e+05 ;   C111 - C110  
 10162  10163   1    1.0920e-01    2.8225e+05 ;   C110 - H10R  
 10162  10164   1    1.0920e-01    2.8225e+05 ;   C110 - H10S  
 10162  10165   1    1.5350e-01    2.5363e+05 ;   C110 - C19   
 10165  10166   1    1.0920e-01    2.8225e+05 ;    C19 - H9R   
 10165  10167   1    1.0920e-01    2.8225e+05 ;    C19 - H9S   
 10165  10168   1    1.5350e-01    2.5363e+05 ;    C19 - C18   
 10168  10169   1    1.0920e-01    2.8225e+05 ;    C18 - H8R   
 10168  10170   1    1.0920e-01    2.8225e+05 ;    C18 - H8S   
 10168  10171   1    1.5350e-01    2.5363e+05 ;    C18 - C17   
 10171  10172   1    1.0920e-01    2.8225e+05 ;    C17 - H7R   
 10171  10173   1    1.0920e-01    2.8225e+05 ;    C17 - H7S   
 10171  10174   1    1.5350e-01    2.5363e+05 ;    C17 - C16   
 10174  10175   1    1.0920e-01    2.8225e+05 ;    C16 - H6R   
 10174  10176   1    1.0920e-01    2.8225e+05 ;    C16 - H6S   
 10174  10177   1    1.5350e-01    2.5363e+05 ;    C16 - C15   
 10177  10178   1    1.0920e-01    2.8225e+05 ;    C15 - H5R   
 10177  10179   1    1.0920e-01    2.8225e+05 ;    C15 - H5S   
 10177  10180   1    1.5350e-01    2.5363e+05 ;    C15 - C14   
 10180  10181   1    1.0920e-01    2.8225e+05 ;    C14 - H4R   
 10180  10182   1    1.0920e-01    2.8225e+05 ;    C14 - H4S   
 10180  10183   1    1.5350e-01    2.5363e+05 ;    C14 - C13   
 10183  10184   1    1.0920e-01    2.8225e+05 ;    C13 - H3R   
 10183  10185   1    1.0920e-01    2.8225e+05 ;    C13 - H3S   
 10183  10186   1    1.5350e-01    2.5363e+05 ;    C13 - C12   
 10186  10187   1    1.0920e-01    2.8225e+05 ;    C12 - H2R   
 10186  10188   1    1.0920e-01    2.8225e+05 ;    C12 - H2S   
 10186  10189   1    1.5080e-01    2.7472e+05 ;    C12 - C11   
 10189  10190   1    1.2140e-01    5.4225e+05 ;    C11 - O12   
 10189  10191   1    1.3430e-01    3.4418e+05 ;    C11 - O11   
 10191  10192   1    1.4390e-01    2.5230e+05 ;    O11 - C1    
 10192  10193   1    1.0930e-01    2.8108e+05 ;     C1 - HR    
 10192  10194   1    1.0930e-01    2.8108e+05 ;     C1 - HS    
 10192  10195   1    1.5350e-01    2.5363e+05 ;     C1 - C2    
 10195  10196   1    1.0930e-01    2.8108e+05 ;     C2 - HX    
 10195  10197   1    1.5350e-01    2.5363e+05 ;     C2 - C3    
 10195  10224   1    1.4390e-01    2.5230e+05 ;     C2 - O21   
 10197  10198   1    1.0930e-01    2.8108e+05 ;     C3 - HA    
 10197  10199   1    1.0930e-01    2.8108e+05 ;     C3 - HB    
 10197  10200   1    1.4390e-01    2.5230e+05 ;     C3 - O31   
 10200  10201   1    1.6100e-01    1.9246e+05 ;    O31 - P31   
 10201  10202   1    1.6100e-01    1.9246e+05 ;    P31 - O32   
 10201  10222   1    1.4800e-01    4.3932e+05 ;    P31 - O33   
 10201  10223   1    1.4800e-01    4.3932e+05 ;    P31 - O34   
 10202  10203   1    1.4390e-01    2.5230e+05 ;    O32 - C31   
 10203  10204   1    1.0930e-01    2.8108e+05 ;    C31 - H1A   
 10203  10205   1    1.0930e-01    2.8108e+05 ;    C31 - H1B   
 10203  10206   1    1.5350e-01    2.5363e+05 ;    C31 - C32   
 10206  10207   1    1.0910e-01    2.8342e+05 ;    C32 - H2A   
 10206  10208   1    1.0910e-01    2.8342e+05 ;    C32 - H2B   
 10206  10209   1    1.4990e-01    2.4568e+05 ;    C32 - N31   
 10209  10210   1    1.4990e-01    2.4568e+05 ;    N31 - C33   
 10209  10214   1    1.4990e-01    2.4568e+05 ;    N31 - C34   
 10209  10218   1    1.4990e-01    2.4568e+05 ;    N31 - C35   
 10210  10211   1    1.0910e-01    2.8342e+05 ;    C33 - H3A   
 10210  10212   1    1.0910e-01    2.8342e+05 ;    C33 - H3B   
 10210  10213   1    1.0910e-01    2.8342e+05 ;    C33 - H3C   
 10214  10215   1    1.0910e-01    2.8342e+05 ;    C34 - H4A   
 10214  10216   1    1.0910e-01    2.8342e+05 ;    C34 - H4B   
 10214  10217   1    1.0910e-01    2.8342e+05 ;    C34 - H4C   
 10218  10219   1    1.0910e-01    2.8342e+05 ;    C35 - H5A   
 10218  10220   1    1.0910e-01    2.8342e+05 ;    C35 - H5B   
 10218  10221   1    1.0910e-01    2.8342e+05 ;    C35 - H5C   
 10224  10225   1    1.3430e-01    3.4418e+05 ;    O21 - C21   
 10225  10226   1    1.2140e-01    5.4225e+05 ;    C21 - O22   
 10225  10264   1    1.5080e-01    2.7472e+05 ;    C21 - C12   
 10227  10228   1    1.0920e-01    2.8225e+05 ;   H14T - C114  
 10228  10229   1    1.0920e-01    2.8225e+05 ;   C114 - H14R  
 10228  10230   1    1.0920e-01    2.8225e+05 ;   C114 - H14S  
 10228  10231   1    1.5350e-01    2.5363e+05 ;   C114 - C113  
 10231  10232   1    1.0920e-01    2.8225e+05 ;   C113 - H13R  
 10231  10233   1    1.0920e-01    2.8225e+05 ;   C113 - H13S  
 10231  10234   1    1.5350e-01    2.5363e+05 ;   C113 - C112  
 10234  10235   1    1.0920e-01    2.8225e+05 ;   C112 - H12R  
 10234  10236   1    1.0920e-01    2.8225e+05 ;   C112 - H12S  
 10234  10237   1    1.5350e-01    2.5363e+05 ;   C112 - C111  
 10237  10238   1    1.0920e-01    2.8225e+05 ;   C111 - H11R  
 10237  10239   1    1.0920e-01    2.8225e+05 ;   C111 - H11S  
 10237  10240   1    1.5350e-01    2.5363e+05 ;   C111 - C110  
 10240  10241   1    1.0920e-01    2.8225e+05 ;   C110 - H10R  
 10240  10242   1    1.0920e-01    2.8225e+05 ;   C110 - H10S  
 10240  10243   1    1.5350e-01    2.5363e+05 ;   C110 - C19   
 10243  10244   1    1.0920e-01    2.8225e+05 ;    C19 - H9R   
 10243  10245   1    1.0920e-01    2.8225e+05 ;    C19 - H9S   
 10243  10246   1    1.5350e-01    2.5363e+05 ;    C19 - C18   
 10246  10247   1    1.0920e-01    2.8225e+05 ;    C18 - H8R   
 10246  10248   1    1.0920e-01    2.8225e+05 ;    C18 - H8S   
 10246  10249   1    1.5350e-01    2.5363e+05 ;    C18 - C17   
 10249  10250   1    1.0920e-01    2.8225e+05 ;    C17 - H7R   
 10249  10251   1    1.0920e-01    2.8225e+05 ;    C17 - H7S   
 10249  10252   1    1.5350e-01    2.5363e+05 ;    C17 - C16   
 10252  10253   1    1.0920e-01    2.8225e+05 ;    C16 - H6R   
 10252  10254   1    1.0920e-01    2.8225e+05 ;    C16 - H6S   
 10252  10255   1    1.5350e-01    2.5363e+05 ;    C16 - C15   
 10255  10256   1    1.0920e-01    2.8225e+05 ;    C15 - H5R   
 10255  10257   1    1.0920e-01    2.8225e+05 ;    C15 - H5S   
 10255  10258   1    1.5350e-01    2.5363e+05 ;    C15 - C14   
 10258  10259   1    1.0920e-01    2.8225e+05 ;    C14 - H4R   
 10258  10260   1    1.0920e-01    2.8225e+05 ;    C14 - H4S   
 10258  10261   1    1.5350e-01    2.5363e+05 ;    C14 - C13   
 10261  10262   1    1.0920e-01    2.8225e+05 ;    C13 - H3R   
 10261  10263   1    1.0920e-01    2.8225e+05 ;    C13 - H3S   
 10261  10264   1    1.5350e-01    2.5363e+05 ;    C13 - C12   
 10264  10265   1    1.0920e-01    2.8225e+05 ;    C12 - H2R   
 10264  10266   1    1.0920e-01    2.8225e+05 ;    C12 - H2S   
 10267  10268   1    1.0920e-01    2.8225e+05 ;   H14T - C114  
 10268  10269   1    1.0920e-01    2.8225e+05 ;   C114 - H14R  
 10268  10270   1    1.0920e-01    2.8225e+05 ;   C114 - H14S  
 10268  10271   1    1.5350e-01    2.5363e+05 ;   C114 - C113  
 10271  10272   1    1.0920e-01    2.8225e+05 ;   C113 - H13R  
 10271  10273   1    1.0920e-01    2.8225e+05 ;   C113 - H13S  
 10271  10274   1    1.5350e-01    2.5363e+05 ;   C113 - C112  
 10274  10275   1    1.0920e-01    2.8225e+05 ;   C112 - H12R  
 10274  10276   1    1.0920e-01    2.8225e+05 ;   C112 - H12S  
 10274  10277   1    1.5350e-01    2.5363e+05 ;   C112 - C111  
 10277  10278   1    1.0920e-01    2.8225e+05 ;   C111 - H11R  
 10277  10279   1    1.0920e-01    2.8225e+05 ;   C111 - H11S  
 10277  10280   1    1.5350e-01    2.5363e+05 ;   C111 - C110  
 10280  10281   1    1.0920e-01    2.8225e+05 ;   C110 - H10R  
 10280  10282   1    1.0920e-01    2.8225e+05 ;   C110 - H10S  
 10280  10283   1    1.5350e-01    2.5363e+05 ;   C110 - C19   
 10283  10284   1    1.0920e-01    2.8225e+05 ;    C19 - H9R   
 10283  10285   1    1.0920e-01    2.8225e+05 ;    C19 - H9S   
 10283  10286   1    1.5350e-01    2.5363e+05 ;    C19 - C18   
 10286  10287   1    1.0920e-01    2.8225e+05 ;    C18 - H8R   
 10286  10288   1    1.0920e-01    2.8225e+05 ;    C18 - H8S   
 10286  10289   1    1.5350e-01    2.5363e+05 ;    C18 - C17   
 10289  10290   1    1.0920e-01    2.8225e+05 ;    C17 - H7R   
 10289  10291   1    1.0920e-01    2.8225e+05 ;    C17 - H7S   
 10289  10292   1    1.5350e-01    2.5363e+05 ;    C17 - C16   
 10292  10293   1    1.0920e-01    2.8225e+05 ;    C16 - H6R   
 10292  10294   1    1.0920e-01    2.8225e+05 ;    C16 - H6S   
 10292  10295   1    1.5350e-01    2.5363e+05 ;    C16 - C15   
 10295  10296   1    1.0920e-01    2.8225e+05 ;    C15 - H5R   
 10295  10297   1    1.0920e-01    2.8225e+05 ;    C15 - H5S   
 10295  10298   1    1.5350e-01    2.5363e+05 ;    C15 - C14   
 10298  10299   1    1.0920e-01    2.8225e+05 ;    C14 - H4R   
 10298  10300   1    1.0920e-01    2.8225e+05 ;    C14 - H4S   
 10298  10301   1    1.5350e-01    2.5363e+05 ;    C14 - C13   
 10301  10302   1    1.0920e-01    2.8225e+05 ;    C13 - H3R   
 10301  10303   1    1.0920e-01    2.8225e+05 ;    C13 - H3S   
 10301  10304   1    1.5350e-01    2.5363e+05 ;    C13 - C12   
 10304  10305   1    1.0920e-01    2.8225e+05 ;    C12 - H2R   
 10304  10306   1    1.0920e-01    2.8225e+05 ;    C12 - H2S   
 10304  10307   1    1.5080e-01    2.7472e+05 ;    C12 - C11   
 10307  10308   1    1.2140e-01    5.4225e+05 ;    C11 - O12   
 10307  10309   1    1.3430e-01    3.4418e+05 ;    C11 - O11   
 10309  10310   1    1.4390e-01    2.5230e+05 ;    O11 - C1    
 10310  10311   1    1.0930e-01    2.8108e+05 ;     C1 - HR    
 10310  10312   1    1.0930e-01    2.8108e+05 ;     C1 - HS    
 10310  10313   1    1.5350e-01    2.5363e+05 ;     C1 - C2    
 10313  10314   1    1.0930e-01    2.8108e+05 ;     C2 - HX    
 10313  10315   1    1.5350e-01    2.5363e+05 ;     C2 - C3    
 10313  10342   1    1.4390e-01    2.5230e+05 ;     C2 - O21   
 10315  10316   1    1.0930e-01    2.8108e+05 ;     C3 - HA    
 10315  10317   1    1.0930e-01    2.8108e+05 ;     C3 - HB    
 10315  10318   1    1.4390e-01    2.5230e+05 ;     C3 - O31   
 10318  10319   1    1.6100e-01    1.9246e+05 ;    O31 - P31   
 10319  10320   1    1.6100e-01    1.9246e+05 ;    P31 - O32   
 10319  10340   1    1.4800e-01    4.3932e+05 ;    P31 - O33   
 10319  10341   1    1.4800e-01    4.3932e+05 ;    P31 - O34   
 10320  10321   1    1.4390e-01    2.5230e+05 ;    O32 - C31   
 10321  10322   1    1.0930e-01    2.8108e+05 ;    C31 - H1A   
 10321  10323   1    1.0930e-01    2.8108e+05 ;    C31 - H1B   
 10321  10324   1    1.5350e-01    2.5363e+05 ;    C31 - C32   
 10324  10325   1    1.0910e-01    2.8342e+05 ;    C32 - H2A   
 10324  10326   1    1.0910e-01    2.8342e+05 ;    C32 - H2B   
 10324  10327   1    1.4990e-01    2.4568e+05 ;    C32 - N31   
 10327  10328   1    1.4990e-01    2.4568e+05 ;    N31 - C33   
 10327  10332   1    1.4990e-01    2.4568e+05 ;    N31 - C34   
 10327  10336   1    1.4990e-01    2.4568e+05 ;    N31 - C35   
 10328  10329   1    1.0910e-01    2.8342e+05 ;    C33 - H3A   
 10328  10330   1    1.0910e-01    2.8342e+05 ;    C33 - H3B   
 10328  10331   1    1.0910e-01    2.8342e+05 ;    C33 - H3C   
 10332  10333   1    1.0910e-01    2.8342e+05 ;    C34 - H4A   
 10332  10334   1    1.0910e-01    2.8342e+05 ;    C34 - H4B   
 10332  10335   1    1.0910e-01    2.8342e+05 ;    C34 - H4C   
 10336  10337   1    1.0910e-01    2.8342e+05 ;    C35 - H5A   
 10336  10338   1    1.0910e-01    2.8342e+05 ;    C35 - H5B   
 10336  10339   1    1.0910e-01    2.8342e+05 ;    C35 - H5C   
 10342  10343   1    1.3430e-01    3.4418e+05 ;    O21 - C21   
 10343  10344   1    1.2140e-01    5.4225e+05 ;    C21 - O22   
 10343  10382   1    1.5080e-01    2.7472e+05 ;    C21 - C12   
 10345  10346   1    1.0920e-01    2.8225e+05 ;   H14T - C114  
 10346  10347   1    1.0920e-01    2.8225e+05 ;   C114 - H14R  
 10346  10348   1    1.0920e-01    2.8225e+05 ;   C114 - H14S  
 10346  10349   1    1.5350e-01    2.5363e+05 ;   C114 - C113  
 10349  10350   1    1.0920e-01    2.8225e+05 ;   C113 - H13R  
 10349  10351   1    1.0920e-01    2.8225e+05 ;   C113 - H13S  
 10349  10352   1    1.5350e-01    2.5363e+05 ;   C113 - C112  
 10352  10353   1    1.0920e-01    2.8225e+05 ;   C112 - H12R  
 10352  10354   1    1.0920e-01    2.8225e+05 ;   C112 - H12S  
 10352  10355   1    1.5350e-01    2.5363e+05 ;   C112 - C111  
 10355  10356   1    1.0920e-01    2.8225e+05 ;   C111 - H11R  
 10355  10357   1    1.0920e-01    2.8225e+05 ;   C111 - H11S  
 10355  10358   1    1.5350e-01    2.5363e+05 ;   C111 - C110  
 10358  10359   1    1.0920e-01    2.8225e+05 ;   C110 - H10R  
 10358  10360   1    1.0920e-01    2.8225e+05 ;   C110 - H10S  
 10358  10361   1    1.5350e-01    2.5363e+05 ;   C110 - C19   
 10361  10362   1    1.0920e-01    2.8225e+05 ;    C19 - H9R   
 10361  10363   1    1.0920e-01    2.8225e+05 ;    C19 - H9S   
 10361  10364   1    1.5350e-01    2.5363e+05 ;    C19 - C18   
 10364  10365   1    1.0920e-01    2.8225e+05 ;    C18 - H8R   
 10364  10366   1    1.0920e-01    2.8225e+05 ;    C18 - H8S   
 10364  10367   1    1.5350e-01    2.5363e+05 ;    C18 - C17   
 10367  10368   1    1.0920e-01    2.8225e+05 ;    C17 - H7R   
 10367  10369   1    1.0920e-01    2.8225e+05 ;    C17 - H7S   
 10367  10370   1    1.5350e-01    2.5363e+05 ;    C17 - C16   
 10370  10371   1    1.0920e-01    2.8225e+05 ;    C16 - H6R   
 10370  10372   1    1.0920e-01    2.8225e+05 ;    C16 - H6S   
 10370  10373   1    1.5350e-01    2.5363e+05 ;    C16 - C15   
 10373  10374   1    1.0920e-01    2.8225e+05 ;    C15 - H5R   
 10373  10375   1    1.0920e-01    2.8225e+05 ;    C15 - H5S   
 10373  10376   1    1.5350e-01    2.5363e+05 ;    C15 - C14   
 10376  10377   1    1.0920e-01    2.8225e+05 ;    C14 - H4R   
 10376  10378   1    1.0920e-01    2.8225e+05 ;    C14 - H4S   
 10376  10379   1    1.5350e-01    2.5363e+05 ;    C14 - C13   
 10379  10380   1    1.0920e-01    2.8225e+05 ;    C13 - H3R   
 10379  10381   1    1.0920e-01    2.8225e+05 ;    C13 - H3S   
 10379  10382   1    1.5350e-01    2.5363e+05 ;    C13 - C12   
 10382  10383   1    1.0920e-01    2.8225e+05 ;    C12 - H2R   
 10382  10384   1    1.0920e-01    2.8225e+05 ;    C12 - H2S   
 10385  10386   1    1.0920e-01    2.8225e+05 ;   H14T - C114  
 10386  10387   1    1.0920e-01    2.8225e+05 ;   C114 - H14R  
 10386  10388   1    1.0920e-01    2.8225e+05 ;   C114 - H14S  
 10386  10389   1    1.5350e-01    2.5363e+05 ;   C114 - C113  
 10389  10390   1    1.0920e-01    2.8225e+05 ;   C113 - H13R  
 10389  10391   1    1.0920e-01    2.8225e+05 ;   C113 - H13S  
 10389  10392   1    1.5350e-01    2.5363e+05 ;   C113 - C112  
 10392  10393   1    1.0920e-01    2.8225e+05 ;   C112 - H12R  
 10392  10394   1    1.0920e-01    2.8225e+05 ;   C112 - H12S  
 10392  10395   1    1.5350e-01    2.5363e+05 ;   C112 - C111  
 10395  10396   1    1.0920e-01    2.8225e+05 ;   C111 - H11R  
 10395  10397   1    1.0920e-01    2.8225e+05 ;   C111 - H11S  
 10395  10398   1    1.5350e-01    2.5363e+05 ;   C111 - C110  
 10398  10399   1    1.0920e-01    2.8225e+05 ;   C110 - H10R  
 10398  10400   1    1.0920e-01    2.8225e+05 ;   C110 - H10S  
 10398  10401   1    1.5350e-01    2.5363e+05 ;   C110 - C19   
 10401  10402   1    1.0920e-01    2.8225e+05 ;    C19 - H9R   
 10401  10403   1    1.0920e-01    2.8225e+05 ;    C19 - H9S   
 10401  10404   1    1.5350e-01    2.5363e+05 ;    C19 - C18   
 10404  10405   1    1.0920e-01    2.8225e+05 ;    C18 - H8R   
 10404  10406   1    1.0920e-01    2.8225e+05 ;    C18 - H8S   
 10404  10407   1    1.5350e-01    2.5363e+05 ;    C18 - C17   
 10407  10408   1    1.0920e-01    2.8225e+05 ;    C17 - H7R   
 10407  10409   1    1.0920e-01    2.8225e+05 ;    C17 - H7S   
 10407  10410   1    1.5350e-01    2.5363e+05 ;    C17 - C16   
 10410  10411   1    1.0920e-01    2.8225e+05 ;    C16 - H6R   
 10410  10412   1    1.0920e-01    2.8225e+05 ;    C16 - H6S   
 10410  10413   1    1.5350e-01    2.5363e+05 ;    C16 - C15   
 10413  10414   1    1.0920e-01    2.8225e+05 ;    C15 - H5R   
 10413  10415   1    1.0920e-01    2.8225e+05 ;    C15 - H5S   
 10413  10416   1    1.5350e-01    2.5363e+05 ;    C15 - C14   
 10416  10417   1    1.0920e-01    2.8225e+05 ;    C14 - H4R   
 10416  10418   1    1.0920e-01    2.8225e+05 ;    C14 - H4S   
 10416  10419   1    1.5350e-01    2.5363e+05 ;    C14 - C13   
 10419  10420   1    1.0920e-01    2.8225e+05 ;    C13 - H3R   
 10419  10421   1    1.0920e-01    2.8225e+05 ;    C13 - H3S   
 10419  10422   1    1.5350e-01    2.5363e+05 ;    C13 - C12   
 10422  10423   1    1.0920e-01    2.8225e+05 ;    C12 - H2R   
 10422  10424   1    1.0920e-01    2.8225e+05 ;    C12 - H2S   
 10422  10425   1    1.5080e-01    2.7472e+05 ;    C12 - C11   
 10425  10426   1    1.2140e-01    5.4225e+05 ;    C11 - O12   
 10425  10427   1    1.3430e-01    3.4418e+05 ;    C11 - O11   
 10427  10428   1    1.4390e-01    2.5230e+05 ;    O11 - C1    
 10428  10429   1    1.0930e-01    2.8108e+05 ;     C1 - HR    
 10428  10430   1    1.0930e-01    2.8108e+05 ;     C1 - HS    
 10428  10431   1    1.5350e-01    2.5363e+05 ;     C1 - C2    
 10431  10432   1    1.0930e-01    2.8108e+05 ;     C2 - HX    
 10431  10433   1    1.5350e-01    2.5363e+05 ;     C2 - C3    
 10431  10460   1    1.4390e-01    2.5230e+05 ;     C2 - O21   
 10433  10434   1    1.0930e-01    2.8108e+05 ;     C3 - HA    
 10433  10435   1    1.0930e-01    2.8108e+05 ;     C3 - HB    
 10433  10436   1    1.4390e-01    2.5230e+05 ;     C3 - O31   
 10436  10437   1    1.6100e-01    1.9246e+05 ;    O31 - P31   
 10437  10438   1    1.6100e-01    1.9246e+05 ;    P31 - O32   
 10437  10458   1    1.4800e-01    4.3932e+05 ;    P31 - O33   
 10437  10459   1    1.4800e-01    4.3932e+05 ;    P31 - O34   
 10438  10439   1    1.4390e-01    2.5230e+05 ;    O32 - C31   
 10439  10440   1    1.0930e-01    2.8108e+05 ;    C31 - H1A   
 10439  10441   1    1.0930e-01    2.8108e+05 ;    C31 - H1B   
 10439  10442   1    1.5350e-01    2.5363e+05 ;    C31 - C32   
 10442  10443   1    1.0910e-01    2.8342e+05 ;    C32 - H2A   
 10442  10444   1    1.0910e-01    2.8342e+05 ;    C32 - H2B   
 10442  10445   1    1.4990e-01    2.4568e+05 ;    C32 - N31   
 10445  10446   1    1.4990e-01    2.4568e+05 ;    N31 - C33   
 10445  10450   1    1.4990e-01    2.4568e+05 ;    N31 - C34   
 10445  10454   1    1.4990e-01    2.4568e+05 ;    N31 - C35   
 10446  10447   1    1.0910e-01    2.8342e+05 ;    C33 - H3A   
 10446  10448   1    1.0910e-01    2.8342e+05 ;    C33 - H3B   
 10446  10449   1    1.0910e-01    2.8342e+05 ;    C33 - H3C   
 10450  10451   1    1.0910e-01    2.8342e+05 ;    C34 - H4A   
 10450  10452   1    1.0910e-01    2.8342e+05 ;    C34 - H4B   
 10450  10453   1    1.0910e-01    2.8342e+05 ;    C34 - H4C   
 10454  10455   1    1.0910e-01    2.8342e+05 ;    C35 - H5A   
 10454  10456   1    1.0910e-01    2.8342e+05 ;    C35 - H5B   
 10454  10457   1    1.0910e-01    2.8342e+05 ;    C35 - H5C   
 10460  10461   1    1.3430e-01    3.4418e+05 ;    O21 - C21   
 10461  10462   1    1.2140e-01    5.4225e+05 ;    C21 - O22   
 10461  10500   1    1.5080e-01    2.7472e+05 ;    C21 - C12   
 10463  10464   1    1.0920e-01    2.8225e+05 ;   H14T - C114  
 10464  10465   1    1.0920e-01    2.8225e+05 ;   C114 - H14R  
 10464  10466   1    1.0920e-01    2.8225e+05 ;   C114 - H14S  
 10464  10467   1    1.5350e-01    2.5363e+05 ;   C114 - C113  
 10467  10468   1    1.0920e-01    2.8225e+05 ;   C113 - H13R  
 10467  10469   1    1.0920e-01    2.8225e+05 ;   C113 - H13S  
 10467  10470   1    1.5350e-01    2.5363e+05 ;   C113 - C112  
 10470  10471   1    1.0920e-01    2.8225e+05 ;   C112 - H12R  
 10470  10472   1    1.0920e-01    2.8225e+05 ;   C112 - H12S  
 10470  10473   1    1.5350e-01    2.5363e+05 ;   C112 - C111  
 10473  10474   1    1.0920e-01    2.8225e+05 ;   C111 - H11R  
 10473  10475   1    1.0920e-01    2.8225e+05 ;   C111 - H11S  
 10473  10476   1    1.5350e-01    2.5363e+05 ;   C111 - C110  
 10476  10477   1    1.0920e-01    2.8225e+05 ;   C110 - H10R  
 10476  10478   1    1.0920e-01    2.8225e+05 ;   C110 - H10S  
 10476  10479   1    1.5350e-01    2.5363e+05 ;   C110 - C19   
 10479  10480   1    1.0920e-01    2.8225e+05 ;    C19 - H9R   
 10479  10481   1    1.0920e-01    2.8225e+05 ;    C19 - H9S   
 10479  10482   1    1.5350e-01    2.5363e+05 ;    C19 - C18   
 10482  10483   1    1.0920e-01    2.8225e+05 ;    C18 - H8R   
 10482  10484   1    1.0920e-01    2.8225e+05 ;    C18 - H8S   
 10482  10485   1    1.5350e-01    2.5363e+05 ;    C18 - C17   
 10485  10486   1    1.0920e-01    2.8225e+05 ;    C17 - H7R   
 10485  10487   1    1.0920e-01    2.8225e+05 ;    C17 - H7S   
 10485  10488   1    1.5350e-01    2.5363e+05 ;    C17 - C16   
 10488  10489   1    1.0920e-01    2.8225e+05 ;    C16 - H6R   
 10488  10490   1    1.0920e-01    2.8225e+05 ;    C16 - H6S   
 10488  10491   1    1.5350e-01    2.5363e+05 ;    C16 - C15   
 10491  10492   1    1.0920e-01    2.8225e+05 ;    C15 - H5R   
 10491  10493   1    1.0920e-01    2.8225e+05 ;    C15 - H5S   
 10491  10494   1    1.5350e-01    2.5363e+05 ;    C15 - C14   
 10494  10495   1    1.0920e-01    2.8225e+05 ;    C14 - H4R   
 10494  10496   1    1.0920e-01    2.8225e+05 ;    C14 - H4S   
 10494  10497   1    1.5350e-01    2.5363e+05 ;    C14 - C13   
 10497  10498   1    1.0920e-01    2.8225e+05 ;    C13 - H3R   
 10497  10499   1    1.0920e-01    2.8225e+05 ;    C13 - H3S   
 10497  10500   1    1.5350e-01    2.5363e+05 ;    C13 - C12   
 10500  10501   1    1.0920e-01    2.8225e+05 ;    C12 - H2R   
 10500  10502   1    1.0920e-01    2.8225e+05 ;    C12 - H2S   
 10503  10504   1    1.0920e-01    2.8225e+05 ;   H14T - C114  
 10504  10505   1    1.0920e-01    2.8225e+05 ;   C114 - H14R  
 10504  10506   1    1.0920e-01    2.8225e+05 ;   C114 - H14S  
 10504  10507   1    1.5350e-01    2.5363e+05 ;   C114 - C113  
 10507  10508   1    1.0920e-01    2.8225e+05 ;   C113 - H13R  
 10507  10509   1    1.0920e-01    2.8225e+05 ;   C113 - H13S  
 10507  10510   1    1.5350e-01    2.5363e+05 ;   C113 - C112  
 10510  10511   1    1.0920e-01    2.8225e+05 ;   C112 - H12R  
 10510  10512   1    1.0920e-01    2.8225e+05 ;   C112 - H12S  
 10510  10513   1    1.5350e-01    2.5363e+05 ;   C112 - C111  
 10513  10514   1    1.0920e-01    2.8225e+05 ;   C111 - H11R  
 10513  10515   1    1.0920e-01    2.8225e+05 ;   C111 - H11S  
 10513  10516   1    1.5350e-01    2.5363e+05 ;   C111 - C110  
 10516  10517   1    1.0920e-01    2.8225e+05 ;   C110 - H10R  
 10516  10518   1    1.0920e-01    2.8225e+05 ;   C110 - H10S  
 10516  10519   1    1.5350e-01    2.5363e+05 ;   C110 - C19   
 10519  10520   1    1.0920e-01    2.8225e+05 ;    C19 - H9R   
 10519  10521   1    1.0920e-01    2.8225e+05 ;    C19 - H9S   
 10519  10522   1    1.5350e-01    2.5363e+05 ;    C19 - C18   
 10522  10523   1    1.0920e-01    2.8225e+05 ;    C18 - H8R   
 10522  10524   1    1.0920e-01    2.8225e+05 ;    C18 - H8S   
 10522  10525   1    1.5350e-01    2.5363e+05 ;    C18 - C17   
 10525  10526   1    1.0920e-01    2.8225e+05 ;    C17 - H7R   
 10525  10527   1    1.0920e-01    2.8225e+05 ;    C17 - H7S   
 10525  10528   1    1.5350e-01    2.5363e+05 ;    C17 - C16   
 10528  10529   1    1.0920e-01    2.8225e+05 ;    C16 - H6R   
 10528  10530   1    1.0920e-01    2.8225e+05 ;    C16 - H6S   
 10528  10531   1    1.5350e-01    2.5363e+05 ;    C16 - C15   
 10531  10532   1    1.0920e-01    2.8225e+05 ;    C15 - H5R   
 10531  10533   1    1.0920e-01    2.8225e+05 ;    C15 - H5S   
 10531  10534   1    1.5350e-01    2.5363e+05 ;    C15 - C14   
 10534  10535   1    1.0920e-01    2.8225e+05 ;    C14 - H4R   
 10534  10536   1    1.0920e-01    2.8225e+05 ;    C14 - H4S   
 10534  10537   1    1.5350e-01    2.5363e+05 ;    C14 - C13   
 10537  10538   1    1.0920e-01    2.8225e+05 ;    C13 - H3R   
 10537  10539   1    1.0920e-01    2.8225e+05 ;    C13 - H3S   
 10537  10540   1    1.5350e-01    2.5363e+05 ;    C13 - C12   
 10540  10541   1    1.0920e-01    2.8225e+05 ;    C12 - H2R   
 10540  10542   1    1.0920e-01    2.8225e+05 ;    C12 - H2S   
 10540  10543   1    1.5080e-01    2.7472e+05 ;    C12 - C11   
 10543  10544   1    1.2140e-01    5.4225e+05 ;    C11 - O12   
 10543  10545   1    1.3430e-01    3.4418e+05 ;    C11 - O11   
 10545  10546   1    1.4390e-01    2.5230e+05 ;    O11 - C1    
 10546  10547   1    1.0930e-01    2.8108e+05 ;     C1 - HR    
 10546  10548   1    1.0930e-01    2.8108e+05 ;     C1 - HS    
 10546  10549   1    1.5350e-01    2.5363e+05 ;     C1 - C2    
 10549  10550   1    1.0930e-01    2.8108e+05 ;     C2 - HX    
 10549  10551   1    1.5350e-01    2.5363e+05 ;     C2 - C3    
 10549  10578   1    1.4390e-01    2.5230e+05 ;     C2 - O21   
 10551  10552   1    1.0930e-01    2.8108e+05 ;     C3 - HA    
 10551  10553   1    1.0930e-01    2.8108e+05 ;     C3 - HB    
 10551  10554   1    1.4390e-01    2.5230e+05 ;     C3 - O31   
 10554  10555   1    1.6100e-01    1.9246e+05 ;    O31 - P31   
 10555  10556   1    1.6100e-01    1.9246e+05 ;    P31 - O32   
 10555  10576   1    1.4800e-01    4.3932e+05 ;    P31 - O33   
 10555  10577   1    1.4800e-01    4.3932e+05 ;    P31 - O34   
 10556  10557   1    1.4390e-01    2.5230e+05 ;    O32 - C31   
 10557  10558   1    1.0930e-01    2.8108e+05 ;    C31 - H1A   
 10557  10559   1    1.0930e-01    2.8108e+05 ;    C31 - H1B   
 10557  10560   1    1.5350e-01    2.5363e+05 ;    C31 - C32   
 10560  10561   1    1.0910e-01    2.8342e+05 ;    C32 - H2A   
 10560  10562   1    1.0910e-01    2.8342e+05 ;    C32 - H2B   
 10560  10563   1    1.4990e-01    2.4568e+05 ;    C32 - N31   
 10563  10564   1    1.4990e-01    2.4568e+05 ;    N31 - C33   
 10563  10568   1    1.4990e-01    2.4568e+05 ;    N31 - C34   
 10563  10572   1    1.4990e-01    2.4568e+05 ;    N31 - C35   
 10564  10565   1    1.0910e-01    2.8342e+05 ;    C33 - H3A   
 10564  10566   1    1.0910e-01    2.8342e+05 ;    C33 - H3B   
 10564  10567   1    1.0910e-01    2.8342e+05 ;    C33 - H3C   
 10568  10569   1    1.0910e-01    2.8342e+05 ;    C34 - H4A   
 10568  10570   1    1.0910e-01    2.8342e+05 ;    C34 - H4B   
 10568  10571   1    1.0910e-01    2.8342e+05 ;    C34 - H4C   
 10572  10573   1    1.0910e-01    2.8342e+05 ;    C35 - H5A   
 10572  10574   1    1.0910e-01    2.8342e+05 ;    C35 - H5B   
 10572  10575   1    1.0910e-01    2.8342e+05 ;    C35 - H5C   
 10578  10579   1    1.3430e-01    3.4418e+05 ;    O21 - C21   
 10579  10580   1    1.2140e-01    5.4225e+05 ;    C21 - O22   
 10579  10618   1    1.5080e-01    2.7472e+05 ;    C21 - C12   
 10581  10582   1    1.0920e-01    2.8225e+05 ;   H14T - C114  
 10582  10583   1    1.0920e-01    2.8225e+05 ;   C114 - H14R  
 10582  10584   1    1.0920e-01    2.8225e+05 ;   C114 - H14S  
 10582  10585   1    1.5350e-01    2.5363e+05 ;   C114 - C113  
 10585  10586   1    1.0920e-01    2.8225e+05 ;   C113 - H13R  
 10585  10587   1    1.0920e-01    2.8225e+05 ;   C113 - H13S  
 10585  10588   1    1.5350e-01    2.5363e+05 ;   C113 - C112  
 10588  10589   1    1.0920e-01    2.8225e+05 ;   C112 - H12R  
 10588  10590   1    1.0920e-01    2.8225e+05 ;   C112 - H12S  
 10588  10591   1    1.5350e-01    2.5363e+05 ;   C112 - C111  
 10591  10592   1    1.0920e-01    2.8225e+05 ;   C111 - H11R  
 10591  10593   1    1.0920e-01    2.8225e+05 ;   C111 - H11S  
 10591  10594   1    1.5350e-01    2.5363e+05 ;   C111 - C110  
 10594  10595   1    1.0920e-01    2.8225e+05 ;   C110 - H10R  
 10594  10596   1    1.0920e-01    2.8225e+05 ;   C110 - H10S  
 10594  10597   1    1.5350e-01    2.5363e+05 ;   C110 - C19   
 10597  10598   1    1.0920e-01    2.8225e+05 ;    C19 - H9R   
 10597  10599   1    1.0920e-01    2.8225e+05 ;    C19 - H9S   
 10597  10600   1    1.5350e-01    2.5363e+05 ;    C19 - C18   
 10600  10601   1    1.0920e-01    2.8225e+05 ;    C18 - H8R   
 10600  10602   1    1.0920e-01    2.8225e+05 ;    C18 - H8S   
 10600  10603   1    1.5350e-01    2.5363e+05 ;    C18 - C17   
 10603  10604   1    1.0920e-01    2.8225e+05 ;    C17 - H7R   
 10603  10605   1    1.0920e-01    2.8225e+05 ;    C17 - H7S   
 10603  10606   1    1.5350e-01    2.5363e+05 ;    C17 - C16   
 10606  10607   1    1.0920e-01    2.8225e+05 ;    C16 - H6R   
 10606  10608   1    1.0920e-01    2.8225e+05 ;    C16 - H6S   
 10606  10609   1    1.5350e-01    2.5363e+05 ;    C16 - C15   
 10609  10610   1    1.0920e-01    2.8225e+05 ;    C15 - H5R   
 10609  10611   1    1.0920e-01    2.8225e+05 ;    C15 - H5S   
 10609  10612   1    1.5350e-01    2.5363e+05 ;    C15 - C14   
 10612  10613   1    1.0920e-01    2.8225e+05 ;    C14 - H4R   
 10612  10614   1    1.0920e-01    2.8225e+05 ;    C14 - H4S   
 10612  10615   1    1.5350e-01    2.5363e+05 ;    C14 - C13   
 10615  10616   1    1.0920e-01    2.8225e+05 ;    C13 - H3R   
 10615  10617   1    1.0920e-01    2.8225e+05 ;    C13 - H3S   
 10615  10618   1    1.5350e-01    2.5363e+05 ;    C13 - C12   
 10618  10619   1    1.0920e-01    2.8225e+05 ;    C12 - H2R   
 10618  10620   1    1.0920e-01    2.8225e+05 ;    C12 - H2S   
 10621  10622   1    1.0920e-01    2.8225e+05 ;   H14T - C114  
 10622  10623   1    1.0920e-01    2.8225e+05 ;   C114 - H14R  
 10622  10624   1    1.0920e-01    2.8225e+05 ;   C114 - H14S  
 10622  10625   1    1.5350e-01    2.5363e+05 ;   C114 - C113  
 10625  10626   1    1.0920e-01    2.8225e+05 ;   C113 - H13R  
 10625  10627   1    1.0920e-01    2.8225e+05 ;   C113 - H13S  
 10625  10628   1    1.5350e-01    2.5363e+05 ;   C113 - C112  
 10628  10629   1    1.0920e-01    2.8225e+05 ;   C112 - H12R  
 10628  10630   1    1.0920e-01    2.8225e+05 ;   C112 - H12S  
 10628  10631   1    1.5350e-01    2.5363e+05 ;   C112 - C111  
 10631  10632   1    1.0920e-01    2.8225e+05 ;   C111 - H11R  
 10631  10633   1    1.0920e-01    2.8225e+05 ;   C111 - H11S  
 10631  10634   1    1.5350e-01    2.5363e+05 ;   C111 - C110  
 10634  10635   1    1.0920e-01    2.8225e+05 ;   C110 - H10R  
 10634  10636   1    1.0920e-01    2.8225e+05 ;   C110 - H10S  
 10634  10637   1    1.5350e-01    2.5363e+05 ;   C110 - C19   
 10637  10638   1    1.0920e-01    2.8225e+05 ;    C19 - H9R   
 10637  10639   1    1.0920e-01    2.8225e+05 ;    C19 - H9S   
 10637  10640   1    1.5350e-01    2.5363e+05 ;    C19 - C18   
 10640  10641   1    1.0920e-01    2.8225e+05 ;    C18 - H8R   
 10640  10642   1    1.0920e-01    2.8225e+05 ;    C18 - H8S   
 10640  10643   1    1.5350e-01    2.5363e+05 ;    C18 - C17   
 10643  10644   1    1.0920e-01    2.8225e+05 ;    C17 - H7R   
 10643  10645   1    1.0920e-01    2.8225e+05 ;    C17 - H7S   
 10643  10646   1    1.5350e-01    2.5363e+05 ;    C17 - C16   
 10646  10647   1    1.0920e-01    2.8225e+05 ;    C16 - H6R   
 10646  10648   1    1.0920e-01    2.8225e+05 ;    C16 - H6S   
 10646  10649   1    1.5350e-01    2.5363e+05 ;    C16 - C15   
 10649  10650   1    1.0920e-01    2.8225e+05 ;    C15 - H5R   
 10649  10651   1    1.0920e-01    2.8225e+05 ;    C15 - H5S   
 10649  10652   1    1.5350e-01    2.5363e+05 ;    C15 - C14   
 10652  10653   1    1.0920e-01    2.8225e+05 ;    C14 - H4R   
 10652  10654   1    1.0920e-01    2.8225e+05 ;    C14 - H4S   
 10652  10655   1    1.5350e-01    2.5363e+05 ;    C14 - C13   
 10655  10656   1    1.0920e-01    2.8225e+05 ;    C13 - H3R   
 10655  10657   1    1.0920e-01    2.8225e+05 ;    C13 - H3S   
 10655  10658   1    1.5350e-01    2.5363e+05 ;    C13 - C12   
 10658  10659   1    1.0920e-01    2.8225e+05 ;    C12 - H2R   
 10658  10660   1    1.0920e-01    2.8225e+05 ;    C12 - H2S   
 10658  10661   1    1.5080e-01    2.7472e+05 ;    C12 - C11   
 10661  10662   1    1.2140e-01    5.4225e+05 ;    C11 - O12   
 10661  10663   1    1.3430e-01    3.4418e+05 ;    C11 - O11   
 10663  10664   1    1.4390e-01    2.5230e+05 ;    O11 - C1    
 10664  10665   1    1.0930e-01    2.8108e+05 ;     C1 - HR    
 10664  10666   1    1.0930e-01    2.8108e+05 ;     C1 - HS    
 10664  10667   1    1.5350e-01    2.5363e+05 ;     C1 - C2    
 10667  10668   1    1.0930e-01    2.8108e+05 ;     C2 - HX    
 10667  10669   1    1.5350e-01    2.5363e+05 ;     C2 - C3    
 10667  10696   1    1.4390e-01    2.5230e+05 ;     C2 - O21   
 10669  10670   1    1.0930e-01    2.8108e+05 ;     C3 - HA    
 10669  10671   1    1.0930e-01    2.8108e+05 ;     C3 - HB    
 10669  10672   1    1.4390e-01    2.5230e+05 ;     C3 - O31   
 10672  10673   1    1.6100e-01    1.9246e+05 ;    O31 - P31   
 10673  10674   1    1.6100e-01    1.9246e+05 ;    P31 - O32   
 10673  10694   1    1.4800e-01    4.3932e+05 ;    P31 - O33   
 10673  10695   1    1.4800e-01    4.3932e+05 ;    P31 - O34   
 10674  10675   1    1.4390e-01    2.5230e+05 ;    O32 - C31   
 10675  10676   1    1.0930e-01    2.8108e+05 ;    C31 - H1A   
 10675  10677   1    1.0930e-01    2.8108e+05 ;    C31 - H1B   
 10675  10678   1    1.5350e-01    2.5363e+05 ;    C31 - C32   
 10678  10679   1    1.0910e-01    2.8342e+05 ;    C32 - H2A   
 10678  10680   1    1.0910e-01    2.8342e+05 ;    C32 - H2B   
 10678  10681   1    1.4990e-01    2.4568e+05 ;    C32 - N31   
 10681  10682   1    1.4990e-01    2.4568e+05 ;    N31 - C33   
 10681  10686   1    1.4990e-01    2.4568e+05 ;    N31 - C34   
 10681  10690   1    1.4990e-01    2.4568e+05 ;    N31 - C35   
 10682  10683   1    1.0910e-01    2.8342e+05 ;    C33 - H3A   
 10682  10684   1    1.0910e-01    2.8342e+05 ;    C33 - H3B   
 10682  10685   1    1.0910e-01    2.8342e+05 ;    C33 - H3C   
 10686  10687   1    1.0910e-01    2.8342e+05 ;    C34 - H4A   
 10686  10688   1    1.0910e-01    2.8342e+05 ;    C34 - H4B   
 10686  10689   1    1.0910e-01    2.8342e+05 ;    C34 - H4C   
 10690  10691   1    1.0910e-01    2.8342e+05 ;    C35 - H5A   
 10690  10692   1    1.0910e-01    2.8342e+05 ;    C35 - H5B   
 10690  10693   1    1.0910e-01    2.8342e+05 ;    C35 - H5C   
 10696  10697   1    1.3430e-01    3.4418e+05 ;    O21 - C21   
 10697  10698   1    1.2140e-01    5.4225e+05 ;    C21 - O22   
 10697  10736   1    1.5080e-01    2.7472e+05 ;    C21 - C12   
 10699  10700   1    1.0920e-01    2.8225e+05 ;   H14T - C114  
 10700  10701   1    1.0920e-01    2.8225e+05 ;   C114 - H14R  
 10700  10702   1    1.0920e-01    2.8225e+05 ;   C114 - H14S  
 10700  10703   1    1.5350e-01    2.5363e+05 ;   C114 - C113  
 10703  10704   1    1.0920e-01    2.8225e+05 ;   C113 - H13R  
 10703  10705   1    1.0920e-01    2.8225e+05 ;   C113 - H13S  
 10703  10706   1    1.5350e-01    2.5363e+05 ;   C113 - C112  
 10706  10707   1    1.0920e-01    2.8225e+05 ;   C112 - H12R  
 10706  10708   1    1.0920e-01    2.8225e+05 ;   C112 - H12S  
 10706  10709   1    1.5350e-01    2.5363e+05 ;   C112 - C111  
 10709  10710   1    1.0920e-01    2.8225e+05 ;   C111 - H11R  
 10709  10711   1    1.0920e-01    2.8225e+05 ;   C111 - H11S  
 10709  10712   1    1.5350e-01    2.5363e+05 ;   C111 - C110  
 10712  10713   1    1.0920e-01    2.8225e+05 ;   C110 - H10R  
 10712  10714   1    1.0920e-01    2.8225e+05 ;   C110 - H10S  
 10712  10715   1    1.5350e-01    2.5363e+05 ;   C110 - C19   
 10715  10716   1    1.0920e-01    2.8225e+05 ;    C19 - H9R   
 10715  10717   1    1.0920e-01    2.8225e+05 ;    C19 - H9S   
 10715  10718   1    1.5350e-01    2.5363e+05 ;    C19 - C18   
 10718  10719   1    1.0920e-01    2.8225e+05 ;    C18 - H8R   
 10718  10720   1    1.0920e-01    2.8225e+05 ;    C18 - H8S   
 10718  10721   1    1.5350e-01    2.5363e+05 ;    C18 - C17   
 10721  10722   1    1.0920e-01    2.8225e+05 ;    C17 - H7R   
 10721  10723   1    1.0920e-01    2.8225e+05 ;    C17 - H7S   
 10721  10724   1    1.5350e-01    2.5363e+05 ;    C17 - C16   
 10724  10725   1    1.0920e-01    2.8225e+05 ;    C16 - H6R   
 10724  10726   1    1.0920e-01    2.8225e+05 ;    C16 - H6S   
 10724  10727   1    1.5350e-01    2.5363e+05 ;    C16 - C15   
 10727  10728   1    1.0920e-01    2.8225e+05 ;    C15 - H5R   
 10727  10729   1    1.0920e-01    2.8225e+05 ;    C15 - H5S   
 10727  10730   1    1.5350e-01    2.5363e+05 ;    C15 - C14   
 10730  10731   1    1.0920e-01    2.8225e+05 ;    C14 - H4R   
 10730  10732   1    1.0920e-01    2.8225e+05 ;    C14 - H4S   
 10730  10733   1    1.5350e-01    2.5363e+05 ;    C14 - C13   
 10733  10734   1    1.0920e-01    2.8225e+05 ;    C13 - H3R   
 10733  10735   1    1.0920e-01    2.8225e+05 ;    C13 - H3S   
 10733  10736   1    1.5350e-01    2.5363e+05 ;    C13 - C12   
 10736  10737   1    1.0920e-01    2.8225e+05 ;    C12 - H2R   
 10736  10738   1    1.0920e-01    2.8225e+05 ;    C12 - H2S   
 10739  10740   1    1.0920e-01    2.8225e+05 ;   H14T - C114  
 10740  10741   1    1.0920e-01    2.8225e+05 ;   C114 - H14R  
 10740  10742   1    1.0920e-01    2.8225e+05 ;   C114 - H14S  
 10740  10743   1    1.5350e-01    2.5363e+05 ;   C114 - C113  
 10743  10744   1    1.0920e-01    2.8225e+05 ;   C113 - H13R  
 10743  10745   1    1.0920e-01    2.8225e+05 ;   C113 - H13S  
 10743  10746   1    1.5350e-01    2.5363e+05 ;   C113 - C112  
 10746  10747   1    1.0920e-01    2.8225e+05 ;   C112 - H12R  
 10746  10748   1    1.0920e-01    2.8225e+05 ;   C112 - H12S  
 10746  10749   1    1.5350e-01    2.5363e+05 ;   C112 - C111  
 10749  10750   1    1.0920e-01    2.8225e+05 ;   C111 - H11R  
 10749  10751   1    1.0920e-01    2.8225e+05 ;   C111 - H11S  
 10749  10752   1    1.5350e-01    2.5363e+05 ;   C111 - C110  
 10752  10753   1    1.0920e-01    2.8225e+05 ;   C110 - H10R  
 10752  10754   1    1.0920e-01    2.8225e+05 ;   C110 - H10S  
 10752  10755   1    1.5350e-01    2.5363e+05 ;   C110 - C19   
 10755  10756   1    1.0920e-01    2.8225e+05 ;    C19 - H9R   
 10755  10757   1    1.0920e-01    2.8225e+05 ;    C19 - H9S   
 10755  10758   1    1.5350e-01    2.5363e+05 ;    C19 - C18   
 10758  10759   1    1.0920e-01    2.8225e+05 ;    C18 - H8R   
 10758  10760   1    1.0920e-01    2.8225e+05 ;    C18 - H8S   
 10758  10761   1    1.5350e-01    2.5363e+05 ;    C18 - C17   
 10761  10762   1    1.0920e-01    2.8225e+05 ;    C17 - H7R   
 10761  10763   1    1.0920e-01    2.8225e+05 ;    C17 - H7S   
 10761  10764   1    1.5350e-01    2.5363e+05 ;    C17 - C16   
 10764  10765   1    1.0920e-01    2.8225e+05 ;    C16 - H6R   
 10764  10766   1    1.0920e-01    2.8225e+05 ;    C16 - H6S   
 10764  10767   1    1.5350e-01    2.5363e+05 ;    C16 - C15   
 10767  10768   1    1.0920e-01    2.8225e+05 ;    C15 - H5R   
 10767  10769   1    1.0920e-01    2.8225e+05 ;    C15 - H5S   
 10767  10770   1    1.5350e-01    2.5363e+05 ;    C15 - C14   
 10770  10771   1    1.0920e-01    2.8225e+05 ;    C14 - H4R   
 10770  10772   1    1.0920e-01    2.8225e+05 ;    C14 - H4S   
 10770  10773   1    1.5350e-01    2.5363e+05 ;    C14 - C13   
 10773  10774   1    1.0920e-01    2.8225e+05 ;    C13 - H3R   
 10773  10775   1    1.0920e-01    2.8225e+05 ;    C13 - H3S   
 10773  10776   1    1.5350e-01    2.5363e+05 ;    C13 - C12   
 10776  10777   1    1.0920e-01    2.8225e+05 ;    C12 - H2R   
 10776  10778   1    1.0920e-01    2.8225e+05 ;    C12 - H2S   
 10776  10779   1    1.5080e-01    2.7472e+05 ;    C12 - C11   
 10779  10780   1    1.2140e-01    5.4225e+05 ;    C11 - O12   
 10779  10781   1    1.3430e-01    3.4418e+05 ;    C11 - O11   
 10781  10782   1    1.4390e-01    2.5230e+05 ;    O11 - C1    
 10782  10783   1    1.0930e-01    2.8108e+05 ;     C1 - HR    
 10782  10784   1    1.0930e-01    2.8108e+05 ;     C1 - HS    
 10782  10785   1    1.5350e-01    2.5363e+05 ;     C1 - C2    
 10785  10786   1    1.0930e-01    2.8108e+05 ;     C2 - HX    
 10785  10787   1    1.5350e-01    2.5363e+05 ;     C2 - C3    
 10785  10814   1    1.4390e-01    2.5230e+05 ;     C2 - O21   
 10787  10788   1    1.0930e-01    2.8108e+05 ;     C3 - HA    
 10787  10789   1    1.0930e-01    2.8108e+05 ;     C3 - HB    
 10787  10790   1    1.4390e-01    2.5230e+05 ;     C3 - O31   
 10790  10791   1    1.6100e-01    1.9246e+05 ;    O31 - P31   
 10791  10792   1    1.6100e-01    1.9246e+05 ;    P31 - O32   
 10791  10812   1    1.4800e-01    4.3932e+05 ;    P31 - O33   
 10791  10813   1    1.4800e-01    4.3932e+05 ;    P31 - O34   
 10792  10793   1    1.4390e-01    2.5230e+05 ;    O32 - C31   
 10793  10794   1    1.0930e-01    2.8108e+05 ;    C31 - H1A   
 10793  10795   1    1.0930e-01    2.8108e+05 ;    C31 - H1B   
 10793  10796   1    1.5350e-01    2.5363e+05 ;    C31 - C32   
 10796  10797   1    1.0910e-01    2.8342e+05 ;    C32 - H2A   
 10796  10798   1    1.0910e-01    2.8342e+05 ;    C32 - H2B   
 10796  10799   1    1.4990e-01    2.4568e+05 ;    C32 - N31   
 10799  10800   1    1.4990e-01    2.4568e+05 ;    N31 - C33   
 10799  10804   1    1.4990e-01    2.4568e+05 ;    N31 - C34   
 10799  10808   1    1.4990e-01    2.4568e+05 ;    N31 - C35   
 10800  10801   1    1.0910e-01    2.8342e+05 ;    C33 - H3A   
 10800  10802   1    1.0910e-01    2.8342e+05 ;    C33 - H3B   
 10800  10803   1    1.0910e-01    2.8342e+05 ;    C33 - H3C   
 10804  10805   1    1.0910e-01    2.8342e+05 ;    C34 - H4A   
 10804  10806   1    1.0910e-01    2.8342e+05 ;    C34 - H4B   
 10804  10807   1    1.0910e-01    2.8342e+05 ;    C34 - H4C   
 10808  10809   1    1.0910e-01    2.8342e+05 ;    C35 - H5A   
 10808  10810   1    1.0910e-01    2.8342e+05 ;    C35 - H5B   
 10808  10811   1    1.0910e-01    2.8342e+05 ;    C35 - H5C   
 10814  10815   1    1.3430e-01    3.4418e+05 ;    O21 - C21   
 10815  10816   1    1.2140e-01    5.4225e+05 ;    C21 - O22   
 10815  10854   1    1.5080e-01    2.7472e+05 ;    C21 - C12   
 10817  10818   1    1.0920e-01    2.8225e+05 ;   H14T - C114  
 10818  10819   1    1.0920e-01    2.8225e+05 ;   C114 - H14R  
 10818  10820   1    1.0920e-01    2.8225e+05 ;   C114 - H14S  
 10818  10821   1    1.5350e-01    2.5363e+05 ;   C114 - C113  
 10821  10822   1    1.0920e-01    2.8225e+05 ;   C113 - H13R  
 10821  10823   1    1.0920e-01    2.8225e+05 ;   C113 - H13S  
 10821  10824   1    1.5350e-01    2.5363e+05 ;   C113 - C112  
 10824  10825   1    1.0920e-01    2.8225e+05 ;   C112 - H12R  
 10824  10826   1    1.0920e-01    2.8225e+05 ;   C112 - H12S  
 10824  10827   1    1.5350e-01    2.5363e+05 ;   C112 - C111  
 10827  10828   1    1.0920e-01    2.8225e+05 ;   C111 - H11R  
 10827  10829   1    1.0920e-01    2.8225e+05 ;   C111 - H11S  
 10827  10830   1    1.5350e-01    2.5363e+05 ;   C111 - C110  
 10830  10831   1    1.0920e-01    2.8225e+05 ;   C110 - H10R  
 10830  10832   1    1.0920e-01    2.8225e+05 ;   C110 - H10S  
 10830  10833   1    1.5350e-01    2.5363e+05 ;   C110 - C19   
 10833  10834   1    1.0920e-01    2.8225e+05 ;    C19 - H9R   
 10833  10835   1    1.0920e-01    2.8225e+05 ;    C19 - H9S   
 10833  10836   1    1.5350e-01    2.5363e+05 ;    C19 - C18   
 10836  10837   1    1.0920e-01    2.8225e+05 ;    C18 - H8R   
 10836  10838   1    1.0920e-01    2.8225e+05 ;    C18 - H8S   
 10836  10839   1    1.5350e-01    2.5363e+05 ;    C18 - C17   
 10839  10840   1    1.0920e-01    2.8225e+05 ;    C17 - H7R   
 10839  10841   1    1.0920e-01    2.8225e+05 ;    C17 - H7S   
 10839  10842   1    1.5350e-01    2.5363e+05 ;    C17 - C16   
 10842  10843   1    1.0920e-01    2.8225e+05 ;    C16 - H6R   
 10842  10844   1    1.0920e-01    2.8225e+05 ;    C16 - H6S   
 10842  10845   1    1.5350e-01    2.5363e+05 ;    C16 - C15   
 10845  10846   1    1.0920e-01    2.8225e+05 ;    C15 - H5R   
 10845  10847   1    1.0920e-01    2.8225e+05 ;    C15 - H5S   
 10845  10848   1    1.5350e-01    2.5363e+05 ;    C15 - C14   
 10848  10849   1    1.0920e-01    2.8225e+05 ;    C14 - H4R   
 10848  10850   1    1.0920e-01    2.8225e+05 ;    C14 - H4S   
 10848  10851   1    1.5350e-01    2.5363e+05 ;    C14 - C13   
 10851  10852   1    1.0920e-01    2.8225e+05 ;    C13 - H3R   
 10851  10853   1    1.0920e-01    2.8225e+05 ;    C13 - H3S   
 10851  10854   1    1.5350e-01    2.5363e+05 ;    C13 - C12   
 10854  10855   1    1.0920e-01    2.8225e+05 ;    C12 - H2R   
 10854  10856   1    1.0920e-01    2.8225e+05 ;    C12 - H2S   
 10857  10858   1    1.0920e-01    2.8225e+05 ;   H14T - C114  
 10858  10859   1    1.0920e-01    2.8225e+05 ;   C114 - H14R  
 10858  10860   1    1.0920e-01    2.8225e+05 ;   C114 - H14S  
 10858  10861   1    1.5350e-01    2.5363e+05 ;   C114 - C113  
 10861  10862   1    1.0920e-01    2.8225e+05 ;   C113 - H13R  
 10861  10863   1    1.0920e-01    2.8225e+05 ;   C113 - H13S  
 10861  10864   1    1.5350e-01    2.5363e+05 ;   C113 - C112  
 10864  10865   1    1.0920e-01    2.8225e+05 ;   C112 - H12R  
 10864  10866   1    1.0920e-01    2.8225e+05 ;   C112 - H12S  
 10864  10867   1    1.5350e-01    2.5363e+05 ;   C112 - C111  
 10867  10868   1    1.0920e-01    2.8225e+05 ;   C111 - H11R  
 10867  10869   1    1.0920e-01    2.8225e+05 ;   C111 - H11S  
 10867  10870   1    1.5350e-01    2.5363e+05 ;   C111 - C110  
 10870  10871   1    1.0920e-01    2.8225e+05 ;   C110 - H10R  
 10870  10872   1    1.0920e-01    2.8225e+05 ;   C110 - H10S  
 10870  10873   1    1.5350e-01    2.5363e+05 ;   C110 - C19   
 10873  10874   1    1.0920e-01    2.8225e+05 ;    C19 - H9R   
 10873  10875   1    1.0920e-01    2.8225e+05 ;    C19 - H9S   
 10873  10876   1    1.5350e-01    2.5363e+05 ;    C19 - C18   
 10876  10877   1    1.0920e-01    2.8225e+05 ;    C18 - H8R   
 10876  10878   1    1.0920e-01    2.8225e+05 ;    C18 - H8S   
 10876  10879   1    1.5350e-01    2.5363e+05 ;    C18 - C17   
 10879  10880   1    1.0920e-01    2.8225e+05 ;    C17 - H7R   
 10879  10881   1    1.0920e-01    2.8225e+05 ;    C17 - H7S   
 10879  10882   1    1.5350e-01    2.5363e+05 ;    C17 - C16   
 10882  10883   1    1.0920e-01    2.8225e+05 ;    C16 - H6R   
 10882  10884   1    1.0920e-01    2.8225e+05 ;    C16 - H6S   
 10882  10885   1    1.5350e-01    2.5363e+05 ;    C16 - C15   
 10885  10886   1    1.0920e-01    2.8225e+05 ;    C15 - H5R   
 10885  10887   1    1.0920e-01    2.8225e+05 ;    C15 - H5S   
 10885  10888   1    1.5350e-01    2.5363e+05 ;    C15 - C14   
 10888  10889   1    1.0920e-01    2.8225e+05 ;    C14 - H4R   
 10888  10890   1    1.0920e-01    2.8225e+05 ;    C14 - H4S   
 10888  10891   1    1.5350e-01    2.5363e+05 ;    C14 - C13   
 10891  10892   1    1.0920e-01    2.8225e+05 ;    C13 - H3R   
 10891  10893   1    1.0920e-01    2.8225e+05 ;    C13 - H3S   
 10891  10894   1    1.5350e-01    2.5363e+05 ;    C13 - C12   
 10894  10895   1    1.0920e-01    2.8225e+05 ;    C12 - H2R   
 10894  10896   1    1.0920e-01    2.8225e+05 ;    C12 - H2S   
 10894  10897   1    1.5080e-01    2.7472e+05 ;    C12 - C11   
 10897  10898   1    1.2140e-01    5.4225e+05 ;    C11 - O12   
 10897  10899   1    1.3430e-01    3.4418e+05 ;    C11 - O11   
 10899  10900   1    1.4390e-01    2.5230e+05 ;    O11 - C1    
 10900  10901   1    1.0930e-01    2.8108e+05 ;     C1 - HR    
 10900  10902   1    1.0930e-01    2.8108e+05 ;     C1 - HS    
 10900  10903   1    1.5350e-01    2.5363e+05 ;     C1 - C2    
 10903  10904   1    1.0930e-01    2.8108e+05 ;     C2 - HX    
 10903  10905   1    1.5350e-01    2.5363e+05 ;     C2 - C3    
 10903  10932   1    1.4390e-01    2.5230e+05 ;     C2 - O21   
 10905  10906   1    1.0930e-01    2.8108e+05 ;     C3 - HA    
 10905  10907   1    1.0930e-01    2.8108e+05 ;     C3 - HB    
 10905  10908   1    1.4390e-01    2.5230e+05 ;     C3 - O31   
 10908  10909   1    1.6100e-01    1.9246e+05 ;    O31 - P31   
 10909  10910   1    1.6100e-01    1.9246e+05 ;    P31 - O32   
 10909  10930   1    1.4800e-01    4.3932e+05 ;    P31 - O33   
 10909  10931   1    1.4800e-01    4.3932e+05 ;    P31 - O34   
 10910  10911   1    1.4390e-01    2.5230e+05 ;    O32 - C31   
 10911  10912   1    1.0930e-01    2.8108e+05 ;    C31 - H1A   
 10911  10913   1    1.0930e-01    2.8108e+05 ;    C31 - H1B   
 10911  10914   1    1.5350e-01    2.5363e+05 ;    C31 - C32   
 10914  10915   1    1.0910e-01    2.8342e+05 ;    C32 - H2A   
 10914  10916   1    1.0910e-01    2.8342e+05 ;    C32 - H2B   
 10914  10917   1    1.4990e-01    2.4568e+05 ;    C32 - N31   
 10917  10918   1    1.4990e-01    2.4568e+05 ;    N31 - C33   
 10917  10922   1    1.4990e-01    2.4568e+05 ;    N31 - C34   
 10917  10926   1    1.4990e-01    2.4568e+05 ;    N31 - C35   
 10918  10919   1    1.0910e-01    2.8342e+05 ;    C33 - H3A   
 10918  10920   1    1.0910e-01    2.8342e+05 ;    C33 - H3B   
 10918  10921   1    1.0910e-01    2.8342e+05 ;    C33 - H3C   
 10922  10923   1    1.0910e-01    2.8342e+05 ;    C34 - H4A   
 10922  10924   1    1.0910e-01    2.8342e+05 ;    C34 - H4B   
 10922  10925   1    1.0910e-01    2.8342e+05 ;    C34 - H4C   
 10926  10927   1    1.0910e-01    2.8342e+05 ;    C35 - H5A   
 10926  10928   1    1.0910e-01    2.8342e+05 ;    C35 - H5B   
 10926  10929   1    1.0910e-01    2.8342e+05 ;    C35 - H5C   
 10932  10933   1    1.3430e-01    3.4418e+05 ;    O21 - C21   
 10933  10934   1    1.2140e-01    5.4225e+05 ;    C21 - O22   
 10933  10972   1    1.5080e-01    2.7472e+05 ;    C21 - C12   
 10935  10936   1    1.0920e-01    2.8225e+05 ;   H14T - C114  
 10936  10937   1    1.0920e-01    2.8225e+05 ;   C114 - H14R  
 10936  10938   1    1.0920e-01    2.8225e+05 ;   C114 - H14S  
 10936  10939   1    1.5350e-01    2.5363e+05 ;   C114 - C113  
 10939  10940   1    1.0920e-01    2.8225e+05 ;   C113 - H13R  
 10939  10941   1    1.0920e-01    2.8225e+05 ;   C113 - H13S  
 10939  10942   1    1.5350e-01    2.5363e+05 ;   C113 - C112  
 10942  10943   1    1.0920e-01    2.8225e+05 ;   C112 - H12R  
 10942  10944   1    1.0920e-01    2.8225e+05 ;   C112 - H12S  
 10942  10945   1    1.5350e-01    2.5363e+05 ;   C112 - C111  
 10945  10946   1    1.0920e-01    2.8225e+05 ;   C111 - H11R  
 10945  10947   1    1.0920e-01    2.8225e+05 ;   C111 - H11S  
 10945  10948   1    1.5350e-01    2.5363e+05 ;   C111 - C110  
 10948  10949   1    1.0920e-01    2.8225e+05 ;   C110 - H10R  
 10948  10950   1    1.0920e-01    2.8225e+05 ;   C110 - H10S  
 10948  10951   1    1.5350e-01    2.5363e+05 ;   C110 - C19   
 10951  10952   1    1.0920e-01    2.8225e+05 ;    C19 - H9R   
 10951  10953   1    1.0920e-01    2.8225e+05 ;    C19 - H9S   
 10951  10954   1    1.5350e-01    2.5363e+05 ;    C19 - C18   
 10954  10955   1    1.0920e-01    2.8225e+05 ;    C18 - H8R   
 10954  10956   1    1.0920e-01    2.8225e+05 ;    C18 - H8S   
 10954  10957   1    1.5350e-01    2.5363e+05 ;    C18 - C17   
 10957  10958   1    1.0920e-01    2.8225e+05 ;    C17 - H7R   
 10957  10959   1    1.0920e-01    2.8225e+05 ;    C17 - H7S   
 10957  10960   1    1.5350e-01    2.5363e+05 ;    C17 - C16   
 10960  10961   1    1.0920e-01    2.8225e+05 ;    C16 - H6R   
 10960  10962   1    1.0920e-01    2.8225e+05 ;    C16 - H6S   
 10960  10963   1    1.5350e-01    2.5363e+05 ;    C16 - C15   
 10963  10964   1    1.0920e-01    2.8225e+05 ;    C15 - H5R   
 10963  10965   1    1.0920e-01    2.8225e+05 ;    C15 - H5S   
 10963  10966   1    1.5350e-01    2.5363e+05 ;    C15 - C14   
 10966  10967   1    1.0920e-01    2.8225e+05 ;    C14 - H4R   
 10966  10968   1    1.0920e-01    2.8225e+05 ;    C14 - H4S   
 10966  10969   1    1.5350e-01    2.5363e+05 ;    C14 - C13   
 10969  10970   1    1.0920e-01    2.8225e+05 ;    C13 - H3R   
 10969  10971   1    1.0920e-01    2.8225e+05 ;    C13 - H3S   
 10969  10972   1    1.5350e-01    2.5363e+05 ;    C13 - C12   
 10972  10973   1    1.0920e-01    2.8225e+05 ;    C12 - H2R   
 10972  10974   1    1.0920e-01    2.8225e+05 ;    C12 - H2S   
 10975  10976   1    1.0920e-01    2.8225e+05 ;   H14T - C114  
 10976  10977   1    1.0920e-01    2.8225e+05 ;   C114 - H14R  
 10976  10978   1    1.0920e-01    2.8225e+05 ;   C114 - H14S  
 10976  10979   1    1.5350e-01    2.5363e+05 ;   C114 - C113  
 10979  10980   1    1.0920e-01    2.8225e+05 ;   C113 - H13R  
 10979  10981   1    1.0920e-01    2.8225e+05 ;   C113 - H13S  
 10979  10982   1    1.5350e-01    2.5363e+05 ;   C113 - C112  
 10982  10983   1    1.0920e-01    2.8225e+05 ;   C112 - H12R  
 10982  10984   1    1.0920e-01    2.8225e+05 ;   C112 - H12S  
 10982  10985   1    1.5350e-01    2.5363e+05 ;   C112 - C111  
 10985  10986   1    1.0920e-01    2.8225e+05 ;   C111 - H11R  
 10985  10987   1    1.0920e-01    2.8225e+05 ;   C111 - H11S  
 10985  10988   1    1.5350e-01    2.5363e+05 ;   C111 - C110  
 10988  10989   1    1.0920e-01    2.8225e+05 ;   C110 - H10R  
 10988  10990   1    1.0920e-01    2.8225e+05 ;   C110 - H10S  
 10988  10991   1    1.5350e-01    2.5363e+05 ;   C110 - C19   
 10991  10992   1    1.0920e-01    2.8225e+05 ;    C19 - H9R   
 10991  10993   1    1.0920e-01    2.8225e+05 ;    C19 - H9S   
 10991  10994   1    1.5350e-01    2.5363e+05 ;    C19 - C18   
 10994  10995   1    1.0920e-01    2.8225e+05 ;    C18 - H8R   
 10994  10996   1    1.0920e-01    2.8225e+05 ;    C18 - H8S   
 10994  10997   1    1.5350e-01    2.5363e+05 ;    C18 - C17   
 10997  10998   1    1.0920e-01    2.8225e+05 ;    C17 - H7R   
 10997  10999   1    1.0920e-01    2.8225e+05 ;    C17 - H7S   
 10997  11000   1    1.5350e-01    2.5363e+05 ;    C17 - C16   
 11000  11001   1    1.0920e-01    2.8225e+05 ;    C16 - H6R   
 11000  11002   1    1.0920e-01    2.8225e+05 ;    C16 - H6S   
 11000  11003   1    1.5350e-01    2.5363e+05 ;    C16 - C15   
 11003  11004   1    1.0920e-01    2.8225e+05 ;    C15 - H5R   
 11003  11005   1    1.0920e-01    2.8225e+05 ;    C15 - H5S   
 11003  11006   1    1.5350e-01    2.5363e+05 ;    C15 - C14   
 11006  11007   1    1.0920e-01    2.8225e+05 ;    C14 - H4R   
 11006  11008   1    1.0920e-01    2.8225e+05 ;    C14 - H4S   
 11006  11009   1    1.5350e-01    2.5363e+05 ;    C14 - C13   
 11009  11010   1    1.0920e-01    2.8225e+05 ;    C13 - H3R   
 11009  11011   1    1.0920e-01    2.8225e+05 ;    C13 - H3S   
 11009  11012   1    1.5350e-01    2.5363e+05 ;    C13 - C12   
 11012  11013   1    1.0920e-01    2.8225e+05 ;    C12 - H2R   
 11012  11014   1    1.0920e-01    2.8225e+05 ;    C12 - H2S   
 11012  11015   1    1.5080e-01    2.7472e+05 ;    C12 - C11   
 11015  11016   1    1.2140e-01    5.4225e+05 ;    C11 - O12   
 11015  11017   1    1.3430e-01    3.4418e+05 ;    C11 - O11   
 11017  11018   1    1.4390e-01    2.5230e+05 ;    O11 - C1    
 11018  11019   1    1.0930e-01    2.8108e+05 ;     C1 - HR    
 11018  11020   1    1.0930e-01    2.8108e+05 ;     C1 - HS    
 11018  11021   1    1.5350e-01    2.5363e+05 ;     C1 - C2    
 11021  11022   1    1.0930e-01    2.8108e+05 ;     C2 - HX    
 11021  11023   1    1.5350e-01    2.5363e+05 ;     C2 - C3    
 11021  11050   1    1.4390e-01    2.5230e+05 ;     C2 - O21   
 11023  11024   1    1.0930e-01    2.8108e+05 ;     C3 - HA    
 11023  11025   1    1.0930e-01    2.8108e+05 ;     C3 - HB    
 11023  11026   1    1.4390e-01    2.5230e+05 ;     C3 - O31   
 11026  11027   1    1.6100e-01    1.9246e+05 ;    O31 - P31   
 11027  11028   1    1.6100e-01    1.9246e+05 ;    P31 - O32   
 11027  11048   1    1.4800e-01    4.3932e+05 ;    P31 - O33   
 11027  11049   1    1.4800e-01    4.3932e+05 ;    P31 - O34   
 11028  11029   1    1.4390e-01    2.5230e+05 ;    O32 - C31   
 11029  11030   1    1.0930e-01    2.8108e+05 ;    C31 - H1A   
 11029  11031   1    1.0930e-01    2.8108e+05 ;    C31 - H1B   
 11029  11032   1    1.5350e-01    2.5363e+05 ;    C31 - C32   
 11032  11033   1    1.0910e-01    2.8342e+05 ;    C32 - H2A   
 11032  11034   1    1.0910e-01    2.8342e+05 ;    C32 - H2B   
 11032  11035   1    1.4990e-01    2.4568e+05 ;    C32 - N31   
 11035  11036   1    1.4990e-01    2.4568e+05 ;    N31 - C33   
 11035  11040   1    1.4990e-01    2.4568e+05 ;    N31 - C34   
 11035  11044   1    1.4990e-01    2.4568e+05 ;    N31 - C35   
 11036  11037   1    1.0910e-01    2.8342e+05 ;    C33 - H3A   
 11036  11038   1    1.0910e-01    2.8342e+05 ;    C33 - H3B   
 11036  11039   1    1.0910e-01    2.8342e+05 ;    C33 - H3C   
 11040  11041   1    1.0910e-01    2.8342e+05 ;    C34 - H4A   
 11040  11042   1    1.0910e-01    2.8342e+05 ;    C34 - H4B   
 11040  11043   1    1.0910e-01    2.8342e+05 ;    C34 - H4C   
 11044  11045   1    1.0910e-01    2.8342e+05 ;    C35 - H5A   
 11044  11046   1    1.0910e-01    2.8342e+05 ;    C35 - H5B   
 11044  11047   1    1.0910e-01    2.8342e+05 ;    C35 - H5C   
 11050  11051   1    1.3430e-01    3.4418e+05 ;    O21 - C21   
 11051  11052   1    1.2140e-01    5.4225e+05 ;    C21 - O22   
 11051  11090   1    1.5080e-01    2.7472e+05 ;    C21 - C12   
 11053  11054   1    1.0920e-01    2.8225e+05 ;   H14T - C114  
 11054  11055   1    1.0920e-01    2.8225e+05 ;   C114 - H14R  
 11054  11056   1    1.0920e-01    2.8225e+05 ;   C114 - H14S  
 11054  11057   1    1.5350e-01    2.5363e+05 ;   C114 - C113  
 11057  11058   1    1.0920e-01    2.8225e+05 ;   C113 - H13R  
 11057  11059   1    1.0920e-01    2.8225e+05 ;   C113 - H13S  
 11057  11060   1    1.5350e-01    2.5363e+05 ;   C113 - C112  
 11060  11061   1    1.0920e-01    2.8225e+05 ;   C112 - H12R  
 11060  11062   1    1.0920e-01    2.8225e+05 ;   C112 - H12S  
 11060  11063   1    1.5350e-01    2.5363e+05 ;   C112 - C111  
 11063  11064   1    1.0920e-01    2.8225e+05 ;   C111 - H11R  
 11063  11065   1    1.0920e-01    2.8225e+05 ;   C111 - H11S  
 11063  11066   1    1.5350e-01    2.5363e+05 ;   C111 - C110  
 11066  11067   1    1.0920e-01    2.8225e+05 ;   C110 - H10R  
 11066  11068   1    1.0920e-01    2.8225e+05 ;   C110 - H10S  
 11066  11069   1    1.5350e-01    2.5363e+05 ;   C110 - C19   
 11069  11070   1    1.0920e-01    2.8225e+05 ;    C19 - H9R   
 11069  11071   1    1.0920e-01    2.8225e+05 ;    C19 - H9S   
 11069  11072   1    1.5350e-01    2.5363e+05 ;    C19 - C18   
 11072  11073   1    1.0920e-01    2.8225e+05 ;    C18 - H8R   
 11072  11074   1    1.0920e-01    2.8225e+05 ;    C18 - H8S   
 11072  11075   1    1.5350e-01    2.5363e+05 ;    C18 - C17   
 11075  11076   1    1.0920e-01    2.8225e+05 ;    C17 - H7R   
 11075  11077   1    1.0920e-01    2.8225e+05 ;    C17 - H7S   
 11075  11078   1    1.5350e-01    2.5363e+05 ;    C17 - C16   
 11078  11079   1    1.0920e-01    2.8225e+05 ;    C16 - H6R   
 11078  11080   1    1.0920e-01    2.8225e+05 ;    C16 - H6S   
 11078  11081   1    1.5350e-01    2.5363e+05 ;    C16 - C15   
 11081  11082   1    1.0920e-01    2.8225e+05 ;    C15 - H5R   
 11081  11083   1    1.0920e-01    2.8225e+05 ;    C15 - H5S   
 11081  11084   1    1.5350e-01    2.5363e+05 ;    C15 - C14   
 11084  11085   1    1.0920e-01    2.8225e+05 ;    C14 - H4R   
 11084  11086   1    1.0920e-01    2.8225e+05 ;    C14 - H4S   
 11084  11087   1    1.5350e-01    2.5363e+05 ;    C14 - C13   
 11087  11088   1    1.0920e-01    2.8225e+05 ;    C13 - H3R   
 11087  11089   1    1.0920e-01    2.8225e+05 ;    C13 - H3S   
 11087  11090   1    1.5350e-01    2.5363e+05 ;    C13 - C12   
 11090  11091   1    1.0920e-01    2.8225e+05 ;    C12 - H2R   
 11090  11092   1    1.0920e-01    2.8225e+05 ;    C12 - H2S   
 11093  11094   1    1.0920e-01    2.8225e+05 ;   H14T - C114  
 11094  11095   1    1.0920e-01    2.8225e+05 ;   C114 - H14R  
 11094  11096   1    1.0920e-01    2.8225e+05 ;   C114 - H14S  
 11094  11097   1    1.5350e-01    2.5363e+05 ;   C114 - C113  
 11097  11098   1    1.0920e-01    2.8225e+05 ;   C113 - H13R  
 11097  11099   1    1.0920e-01    2.8225e+05 ;   C113 - H13S  
 11097  11100   1    1.5350e-01    2.5363e+05 ;   C113 - C112  
 11100  11101   1    1.0920e-01    2.8225e+05 ;   C112 - H12R  
 11100  11102   1    1.0920e-01    2.8225e+05 ;   C112 - H12S  
 11100  11103   1    1.5350e-01    2.5363e+05 ;   C112 - C111  
 11103  11104   1    1.0920e-01    2.8225e+05 ;   C111 - H11R  
 11103  11105   1    1.0920e-01    2.8225e+05 ;   C111 - H11S  
 11103  11106   1    1.5350e-01    2.5363e+05 ;   C111 - C110  
 11106  11107   1    1.0920e-01    2.8225e+05 ;   C110 - H10R  
 11106  11108   1    1.0920e-01    2.8225e+05 ;   C110 - H10S  
 11106  11109   1    1.5350e-01    2.5363e+05 ;   C110 - C19   
 11109  11110   1    1.0920e-01    2.8225e+05 ;    C19 - H9R   
 11109  11111   1    1.0920e-01    2.8225e+05 ;    C19 - H9S   
 11109  11112   1    1.5350e-01    2.5363e+05 ;    C19 - C18   
 11112  11113   1    1.0920e-01    2.8225e+05 ;    C18 - H8R   
 11112  11114   1    1.0920e-01    2.8225e+05 ;    C18 - H8S   
 11112  11115   1    1.5350e-01    2.5363e+05 ;    C18 - C17   
 11115  11116   1    1.0920e-01    2.8225e+05 ;    C17 - H7R   
 11115  11117   1    1.0920e-01    2.8225e+05 ;    C17 - H7S   
 11115  11118   1    1.5350e-01    2.5363e+05 ;    C17 - C16   
 11118  11119   1    1.0920e-01    2.8225e+05 ;    C16 - H6R   
 11118  11120   1    1.0920e-01    2.8225e+05 ;    C16 - H6S   
 11118  11121   1    1.5350e-01    2.5363e+05 ;    C16 - C15   
 11121  11122   1    1.0920e-01    2.8225e+05 ;    C15 - H5R   
 11121  11123   1    1.0920e-01    2.8225e+05 ;    C15 - H5S   
 11121  11124   1    1.5350e-01    2.5363e+05 ;    C15 - C14   
 11124  11125   1    1.0920e-01    2.8225e+05 ;    C14 - H4R   
 11124  11126   1    1.0920e-01    2.8225e+05 ;    C14 - H4S   
 11124  11127   1    1.5350e-01    2.5363e+05 ;    C14 - C13   
 11127  11128   1    1.0920e-01    2.8225e+05 ;    C13 - H3R   
 11127  11129   1    1.0920e-01    2.8225e+05 ;    C13 - H3S   
 11127  11130   1    1.5350e-01    2.5363e+05 ;    C13 - C12   
 11130  11131   1    1.0920e-01    2.8225e+05 ;    C12 - H2R   
 11130  11132   1    1.0920e-01    2.8225e+05 ;    C12 - H2S   
 11130  11133   1    1.5080e-01    2.7472e+05 ;    C12 - C11   
 11133  11134   1    1.2140e-01    5.4225e+05 ;    C11 - O12   
 11133  11135   1    1.3430e-01    3.4418e+05 ;    C11 - O11   
 11135  11136   1    1.4390e-01    2.5230e+05 ;    O11 - C1    
 11136  11137   1    1.0930e-01    2.8108e+05 ;     C1 - HR    
 11136  11138   1    1.0930e-01    2.8108e+05 ;     C1 - HS    
 11136  11139   1    1.5350e-01    2.5363e+05 ;     C1 - C2    
 11139  11140   1    1.0930e-01    2.8108e+05 ;     C2 - HX    
 11139  11141   1    1.5350e-01    2.5363e+05 ;     C2 - C3    
 11139  11168   1    1.4390e-01    2.5230e+05 ;     C2 - O21   
 11141  11142   1    1.0930e-01    2.8108e+05 ;     C3 - HA    
 11141  11143   1    1.0930e-01    2.8108e+05 ;     C3 - HB    
 11141  11144   1    1.4390e-01    2.5230e+05 ;     C3 - O31   
 11144  11145   1    1.6100e-01    1.9246e+05 ;    O31 - P31   
 11145  11146   1    1.6100e-01    1.9246e+05 ;    P31 - O32   
 11145  11166   1    1.4800e-01    4.3932e+05 ;    P31 - O33   
 11145  11167   1    1.4800e-01    4.3932e+05 ;    P31 - O34   
 11146  11147   1    1.4390e-01    2.5230e+05 ;    O32 - C31   
 11147  11148   1    1.0930e-01    2.8108e+05 ;    C31 - H1A   
 11147  11149   1    1.0930e-01    2.8108e+05 ;    C31 - H1B   
 11147  11150   1    1.5350e-01    2.5363e+05 ;    C31 - C32   
 11150  11151   1    1.0910e-01    2.8342e+05 ;    C32 - H2A   
 11150  11152   1    1.0910e-01    2.8342e+05 ;    C32 - H2B   
 11150  11153   1    1.4990e-01    2.4568e+05 ;    C32 - N31   
 11153  11154   1    1.4990e-01    2.4568e+05 ;    N31 - C33   
 11153  11158   1    1.4990e-01    2.4568e+05 ;    N31 - C34   
 11153  11162   1    1.4990e-01    2.4568e+05 ;    N31 - C35   
 11154  11155   1    1.0910e-01    2.8342e+05 ;    C33 - H3A   
 11154  11156   1    1.0910e-01    2.8342e+05 ;    C33 - H3B   
 11154  11157   1    1.0910e-01    2.8342e+05 ;    C33 - H3C   
 11158  11159   1    1.0910e-01    2.8342e+05 ;    C34 - H4A   
 11158  11160   1    1.0910e-01    2.8342e+05 ;    C34 - H4B   
 11158  11161   1    1.0910e-01    2.8342e+05 ;    C34 - H4C   
 11162  11163   1    1.0910e-01    2.8342e+05 ;    C35 - H5A   
 11162  11164   1    1.0910e-01    2.8342e+05 ;    C35 - H5B   
 11162  11165   1    1.0910e-01    2.8342e+05 ;    C35 - H5C   
 11168  11169   1    1.3430e-01    3.4418e+05 ;    O21 - C21   
 11169  11170   1    1.2140e-01    5.4225e+05 ;    C21 - O22   
 11169  11208   1    1.5080e-01    2.7472e+05 ;    C21 - C12   
 11171  11172   1    1.0920e-01    2.8225e+05 ;   H14T - C114  
 11172  11173   1    1.0920e-01    2.8225e+05 ;   C114 - H14R  
 11172  11174   1    1.0920e-01    2.8225e+05 ;   C114 - H14S  
 11172  11175   1    1.5350e-01    2.5363e+05 ;   C114 - C113  
 11175  11176   1    1.0920e-01    2.8225e+05 ;   C113 - H13R  
 11175  11177   1    1.0920e-01    2.8225e+05 ;   C113 - H13S  
 11175  11178   1    1.5350e-01    2.5363e+05 ;   C113 - C112  
 11178  11179   1    1.0920e-01    2.8225e+05 ;   C112 - H12R  
 11178  11180   1    1.0920e-01    2.8225e+05 ;   C112 - H12S  
 11178  11181   1    1.5350e-01    2.5363e+05 ;   C112 - C111  
 11181  11182   1    1.0920e-01    2.8225e+05 ;   C111 - H11R  
 11181  11183   1    1.0920e-01    2.8225e+05 ;   C111 - H11S  
 11181  11184   1    1.5350e-01    2.5363e+05 ;   C111 - C110  
 11184  11185   1    1.0920e-01    2.8225e+05 ;   C110 - H10R  
 11184  11186   1    1.0920e-01    2.8225e+05 ;   C110 - H10S  
 11184  11187   1    1.5350e-01    2.5363e+05 ;   C110 - C19   
 11187  11188   1    1.0920e-01    2.8225e+05 ;    C19 - H9R   
 11187  11189   1    1.0920e-01    2.8225e+05 ;    C19 - H9S   
 11187  11190   1    1.5350e-01    2.5363e+05 ;    C19 - C18   
 11190  11191   1    1.0920e-01    2.8225e+05 ;    C18 - H8R   
 11190  11192   1    1.0920e-01    2.8225e+05 ;    C18 - H8S   
 11190  11193   1    1.5350e-01    2.5363e+05 ;    C18 - C17   
 11193  11194   1    1.0920e-01    2.8225e+05 ;    C17 - H7R   
 11193  11195   1    1.0920e-01    2.8225e+05 ;    C17 - H7S   
 11193  11196   1    1.5350e-01    2.5363e+05 ;    C17 - C16   
 11196  11197   1    1.0920e-01    2.8225e+05 ;    C16 - H6R   
 11196  11198   1    1.0920e-01    2.8225e+05 ;    C16 - H6S   
 11196  11199   1    1.5350e-01    2.5363e+05 ;    C16 - C15   
 11199  11200   1    1.0920e-01    2.8225e+05 ;    C15 - H5R   
 11199  11201   1    1.0920e-01    2.8225e+05 ;    C15 - H5S   
 11199  11202   1    1.5350e-01    2.5363e+05 ;    C15 - C14   
 11202  11203   1    1.0920e-01    2.8225e+05 ;    C14 - H4R   
 11202  11204   1    1.0920e-01    2.8225e+05 ;    C14 - H4S   
 11202  11205   1    1.5350e-01    2.5363e+05 ;    C14 - C13   
 11205  11206   1    1.0920e-01    2.8225e+05 ;    C13 - H3R   
 11205  11207   1    1.0920e-01    2.8225e+05 ;    C13 - H3S   
 11205  11208   1    1.5350e-01    2.5363e+05 ;    C13 - C12   
 11208  11209   1    1.0920e-01    2.8225e+05 ;    C12 - H2R   
 11208  11210   1    1.0920e-01    2.8225e+05 ;    C12 - H2S   
 11211  11212   1    1.0920e-01    2.8225e+05 ;   H14T - C114  
 11212  11213   1    1.0920e-01    2.8225e+05 ;   C114 - H14R  
 11212  11214   1    1.0920e-01    2.8225e+05 ;   C114 - H14S  
 11212  11215   1    1.5350e-01    2.5363e+05 ;   C114 - C113  
 11215  11216   1    1.0920e-01    2.8225e+05 ;   C113 - H13R  
 11215  11217   1    1.0920e-01    2.8225e+05 ;   C113 - H13S  
 11215  11218   1    1.5350e-01    2.5363e+05 ;   C113 - C112  
 11218  11219   1    1.0920e-01    2.8225e+05 ;   C112 - H12R  
 11218  11220   1    1.0920e-01    2.8225e+05 ;   C112 - H12S  
 11218  11221   1    1.5350e-01    2.5363e+05 ;   C112 - C111  
 11221  11222   1    1.0920e-01    2.8225e+05 ;   C111 - H11R  
 11221  11223   1    1.0920e-01    2.8225e+05 ;   C111 - H11S  
 11221  11224   1    1.5350e-01    2.5363e+05 ;   C111 - C110  
 11224  11225   1    1.0920e-01    2.8225e+05 ;   C110 - H10R  
 11224  11226   1    1.0920e-01    2.8225e+05 ;   C110 - H10S  
 11224  11227   1    1.5350e-01    2.5363e+05 ;   C110 - C19   
 11227  11228   1    1.0920e-01    2.8225e+05 ;    C19 - H9R   
 11227  11229   1    1.0920e-01    2.8225e+05 ;    C19 - H9S   
 11227  11230   1    1.5350e-01    2.5363e+05 ;    C19 - C18   
 11230  11231   1    1.0920e-01    2.8225e+05 ;    C18 - H8R   
 11230  11232   1    1.0920e-01    2.8225e+05 ;    C18 - H8S   
 11230  11233   1    1.5350e-01    2.5363e+05 ;    C18 - C17   
 11233  11234   1    1.0920e-01    2.8225e+05 ;    C17 - H7R   
 11233  11235   1    1.0920e-01    2.8225e+05 ;    C17 - H7S   
 11233  11236   1    1.5350e-01    2.5363e+05 ;    C17 - C16   
 11236  11237   1    1.0920e-01    2.8225e+05 ;    C16 - H6R   
 11236  11238   1    1.0920e-01    2.8225e+05 ;    C16 - H6S   
 11236  11239   1    1.5350e-01    2.5363e+05 ;    C16 - C15   
 11239  11240   1    1.0920e-01    2.8225e+05 ;    C15 - H5R   
 11239  11241   1    1.0920e-01    2.8225e+05 ;    C15 - H5S   
 11239  11242   1    1.5350e-01    2.5363e+05 ;    C15 - C14   
 11242  11243   1    1.0920e-01    2.8225e+05 ;    C14 - H4R   
 11242  11244   1    1.0920e-01    2.8225e+05 ;    C14 - H4S   
 11242  11245   1    1.5350e-01    2.5363e+05 ;    C14 - C13   
 11245  11246   1    1.0920e-01    2.8225e+05 ;    C13 - H3R   
 11245  11247   1    1.0920e-01    2.8225e+05 ;    C13 - H3S   
 11245  11248   1    1.5350e-01    2.5363e+05 ;    C13 - C12   
 11248  11249   1    1.0920e-01    2.8225e+05 ;    C12 - H2R   
 11248  11250   1    1.0920e-01    2.8225e+05 ;    C12 - H2S   
 11248  11251   1    1.5080e-01    2.7472e+05 ;    C12 - C11   
 11251  11252   1    1.2140e-01    5.4225e+05 ;    C11 - O12   
 11251  11253   1    1.3430e-01    3.4418e+05 ;    C11 - O11   
 11253  11254   1    1.4390e-01    2.5230e+05 ;    O11 - C1    
 11254  11255   1    1.0930e-01    2.8108e+05 ;     C1 - HR    
 11254  11256   1    1.0930e-01    2.8108e+05 ;     C1 - HS    
 11254  11257   1    1.5350e-01    2.5363e+05 ;     C1 - C2    
 11257  11258   1    1.0930e-01    2.8108e+05 ;     C2 - HX    
 11257  11259   1    1.5350e-01    2.5363e+05 ;     C2 - C3    
 11257  11286   1    1.4390e-01    2.5230e+05 ;     C2 - O21   
 11259  11260   1    1.0930e-01    2.8108e+05 ;     C3 - HA    
 11259  11261   1    1.0930e-01    2.8108e+05 ;     C3 - HB    
 11259  11262   1    1.4390e-01    2.5230e+05 ;     C3 - O31   
 11262  11263   1    1.6100e-01    1.9246e+05 ;    O31 - P31   
 11263  11264   1    1.6100e-01    1.9246e+05 ;    P31 - O32   
 11263  11284   1    1.4800e-01    4.3932e+05 ;    P31 - O33   
 11263  11285   1    1.4800e-01    4.3932e+05 ;    P31 - O34   
 11264  11265   1    1.4390e-01    2.5230e+05 ;    O32 - C31   
 11265  11266   1    1.0930e-01    2.8108e+05 ;    C31 - H1A   
 11265  11267   1    1.0930e-01    2.8108e+05 ;    C31 - H1B   
 11265  11268   1    1.5350e-01    2.5363e+05 ;    C31 - C32   
 11268  11269   1    1.0910e-01    2.8342e+05 ;    C32 - H2A   
 11268  11270   1    1.0910e-01    2.8342e+05 ;    C32 - H2B   
 11268  11271   1    1.4990e-01    2.4568e+05 ;    C32 - N31   
 11271  11272   1    1.4990e-01    2.4568e+05 ;    N31 - C33   
 11271  11276   1    1.4990e-01    2.4568e+05 ;    N31 - C34   
 11271  11280   1    1.4990e-01    2.4568e+05 ;    N31 - C35   
 11272  11273   1    1.0910e-01    2.8342e+05 ;    C33 - H3A   
 11272  11274   1    1.0910e-01    2.8342e+05 ;    C33 - H3B   
 11272  11275   1    1.0910e-01    2.8342e+05 ;    C33 - H3C   
 11276  11277   1    1.0910e-01    2.8342e+05 ;    C34 - H4A   
 11276  11278   1    1.0910e-01    2.8342e+05 ;    C34 - H4B   
 11276  11279   1    1.0910e-01    2.8342e+05 ;    C34 - H4C   
 11280  11281   1    1.0910e-01    2.8342e+05 ;    C35 - H5A   
 11280  11282   1    1.0910e-01    2.8342e+05 ;    C35 - H5B   
 11280  11283   1    1.0910e-01    2.8342e+05 ;    C35 - H5C   
 11286  11287   1    1.3430e-01    3.4418e+05 ;    O21 - C21   
 11287  11288   1    1.2140e-01    5.4225e+05 ;    C21 - O22   
 11287  11326   1    1.5080e-01    2.7472e+05 ;    C21 - C12   
 11289  11290   1    1.0920e-01    2.8225e+05 ;   H14T - C114  
 11290  11291   1    1.0920e-01    2.8225e+05 ;   C114 - H14R  
 11290  11292   1    1.0920e-01    2.8225e+05 ;   C114 - H14S  
 11290  11293   1    1.5350e-01    2.5363e+05 ;   C114 - C113  
 11293  11294   1    1.0920e-01    2.8225e+05 ;   C113 - H13R  
 11293  11295   1    1.0920e-01    2.8225e+05 ;   C113 - H13S  
 11293  11296   1    1.5350e-01    2.5363e+05 ;   C113 - C112  
 11296  11297   1    1.0920e-01    2.8225e+05 ;   C112 - H12R  
 11296  11298   1    1.0920e-01    2.8225e+05 ;   C112 - H12S  
 11296  11299   1    1.5350e-01    2.5363e+05 ;   C112 - C111  
 11299  11300   1    1.0920e-01    2.8225e+05 ;   C111 - H11R  
 11299  11301   1    1.0920e-01    2.8225e+05 ;   C111 - H11S  
 11299  11302   1    1.5350e-01    2.5363e+05 ;   C111 - C110  
 11302  11303   1    1.0920e-01    2.8225e+05 ;   C110 - H10R  
 11302  11304   1    1.0920e-01    2.8225e+05 ;   C110 - H10S  
 11302  11305   1    1.5350e-01    2.5363e+05 ;   C110 - C19   
 11305  11306   1    1.0920e-01    2.8225e+05 ;    C19 - H9R   
 11305  11307   1    1.0920e-01    2.8225e+05 ;    C19 - H9S   
 11305  11308   1    1.5350e-01    2.5363e+05 ;    C19 - C18   
 11308  11309   1    1.0920e-01    2.8225e+05 ;    C18 - H8R   
 11308  11310   1    1.0920e-01    2.8225e+05 ;    C18 - H8S   
 11308  11311   1    1.5350e-01    2.5363e+05 ;    C18 - C17   
 11311  11312   1    1.0920e-01    2.8225e+05 ;    C17 - H7R   
 11311  11313   1    1.0920e-01    2.8225e+05 ;    C17 - H7S   
 11311  11314   1    1.5350e-01    2.5363e+05 ;    C17 - C16   
 11314  11315   1    1.0920e-01    2.8225e+05 ;    C16 - H6R   
 11314  11316   1    1.0920e-01    2.8225e+05 ;    C16 - H6S   
 11314  11317   1    1.5350e-01    2.5363e+05 ;    C16 - C15   
 11317  11318   1    1.0920e-01    2.8225e+05 ;    C15 - H5R   
 11317  11319   1    1.0920e-01    2.8225e+05 ;    C15 - H5S   
 11317  11320   1    1.5350e-01    2.5363e+05 ;    C15 - C14   
 11320  11321   1    1.0920e-01    2.8225e+05 ;    C14 - H4R   
 11320  11322   1    1.0920e-01    2.8225e+05 ;    C14 - H4S   
 11320  11323   1    1.5350e-01    2.5363e+05 ;    C14 - C13   
 11323  11324   1    1.0920e-01    2.8225e+05 ;    C13 - H3R   
 11323  11325   1    1.0920e-01    2.8225e+05 ;    C13 - H3S   
 11323  11326   1    1.5350e-01    2.5363e+05 ;    C13 - C12   
 11326  11327   1    1.0920e-01    2.8225e+05 ;    C12 - H2R   
 11326  11328   1    1.0920e-01    2.8225e+05 ;    C12 - H2S   
 11329  11330   1    1.0920e-01    2.8225e+05 ;   H14T - C114  
 11330  11331   1    1.0920e-01    2.8225e+05 ;   C114 - H14R  
 11330  11332   1    1.0920e-01    2.8225e+05 ;   C114 - H14S  
 11330  11333   1    1.5350e-01    2.5363e+05 ;   C114 - C113  
 11333  11334   1    1.0920e-01    2.8225e+05 ;   C113 - H13R  
 11333  11335   1    1.0920e-01    2.8225e+05 ;   C113 - H13S  
 11333  11336   1    1.5350e-01    2.5363e+05 ;   C113 - C112  
 11336  11337   1    1.0920e-01    2.8225e+05 ;   C112 - H12R  
 11336  11338   1    1.0920e-01    2.8225e+05 ;   C112 - H12S  
 11336  11339   1    1.5350e-01    2.5363e+05 ;   C112 - C111  
 11339  11340   1    1.0920e-01    2.8225e+05 ;   C111 - H11R  
 11339  11341   1    1.0920e-01    2.8225e+05 ;   C111 - H11S  
 11339  11342   1    1.5350e-01    2.5363e+05 ;   C111 - C110  
 11342  11343   1    1.0920e-01    2.8225e+05 ;   C110 - H10R  
 11342  11344   1    1.0920e-01    2.8225e+05 ;   C110 - H10S  
 11342  11345   1    1.5350e-01    2.5363e+05 ;   C110 - C19   
 11345  11346   1    1.0920e-01    2.8225e+05 ;    C19 - H9R   
 11345  11347   1    1.0920e-01    2.8225e+05 ;    C19 - H9S   
 11345  11348   1    1.5350e-01    2.5363e+05 ;    C19 - C18   
 11348  11349   1    1.0920e-01    2.8225e+05 ;    C18 - H8R   
 11348  11350   1    1.0920e-01    2.8225e+05 ;    C18 - H8S   
 11348  11351   1    1.5350e-01    2.5363e+05 ;    C18 - C17   
 11351  11352   1    1.0920e-01    2.8225e+05 ;    C17 - H7R   
 11351  11353   1    1.0920e-01    2.8225e+05 ;    C17 - H7S   
 11351  11354   1    1.5350e-01    2.5363e+05 ;    C17 - C16   
 11354  11355   1    1.0920e-01    2.8225e+05 ;    C16 - H6R   
 11354  11356   1    1.0920e-01    2.8225e+05 ;    C16 - H6S   
 11354  11357   1    1.5350e-01    2.5363e+05 ;    C16 - C15   
 11357  11358   1    1.0920e-01    2.8225e+05 ;    C15 - H5R   
 11357  11359   1    1.0920e-01    2.8225e+05 ;    C15 - H5S   
 11357  11360   1    1.5350e-01    2.5363e+05 ;    C15 - C14   
 11360  11361   1    1.0920e-01    2.8225e+05 ;    C14 - H4R   
 11360  11362   1    1.0920e-01    2.8225e+05 ;    C14 - H4S   
 11360  11363   1    1.5350e-01    2.5363e+05 ;    C14 - C13   
 11363  11364   1    1.0920e-01    2.8225e+05 ;    C13 - H3R   
 11363  11365   1    1.0920e-01    2.8225e+05 ;    C13 - H3S   
 11363  11366   1    1.5350e-01    2.5363e+05 ;    C13 - C12   
 11366  11367   1    1.0920e-01    2.8225e+05 ;    C12 - H2R   
 11366  11368   1    1.0920e-01    2.8225e+05 ;    C12 - H2S   
 11366  11369   1    1.5080e-01    2.7472e+05 ;    C12 - C11   
 11369  11370   1    1.2140e-01    5.4225e+05 ;    C11 - O12   
 11369  11371   1    1.3430e-01    3.4418e+05 ;    C11 - O11   
 11371  11372   1    1.4390e-01    2.5230e+05 ;    O11 - C1    
 11372  11373   1    1.0930e-01    2.8108e+05 ;     C1 - HR    
 11372  11374   1    1.0930e-01    2.8108e+05 ;     C1 - HS    
 11372  11375   1    1.5350e-01    2.5363e+05 ;     C1 - C2    
 11375  11376   1    1.0930e-01    2.8108e+05 ;     C2 - HX    
 11375  11377   1    1.5350e-01    2.5363e+05 ;     C2 - C3    
 11375  11404   1    1.4390e-01    2.5230e+05 ;     C2 - O21   
 11377  11378   1    1.0930e-01    2.8108e+05 ;     C3 - HA    
 11377  11379   1    1.0930e-01    2.8108e+05 ;     C3 - HB    
 11377  11380   1    1.4390e-01    2.5230e+05 ;     C3 - O31   
 11380  11381   1    1.6100e-01    1.9246e+05 ;    O31 - P31   
 11381  11382   1    1.6100e-01    1.9246e+05 ;    P31 - O32   
 11381  11402   1    1.4800e-01    4.3932e+05 ;    P31 - O33   
 11381  11403   1    1.4800e-01    4.3932e+05 ;    P31 - O34   
 11382  11383   1    1.4390e-01    2.5230e+05 ;    O32 - C31   
 11383  11384   1    1.0930e-01    2.8108e+05 ;    C31 - H1A   
 11383  11385   1    1.0930e-01    2.8108e+05 ;    C31 - H1B   
 11383  11386   1    1.5350e-01    2.5363e+05 ;    C31 - C32   
 11386  11387   1    1.0910e-01    2.8342e+05 ;    C32 - H2A   
 11386  11388   1    1.0910e-01    2.8342e+05 ;    C32 - H2B   
 11386  11389   1    1.4990e-01    2.4568e+05 ;    C32 - N31   
 11389  11390   1    1.4990e-01    2.4568e+05 ;    N31 - C33   
 11389  11394   1    1.4990e-01    2.4568e+05 ;    N31 - C34   
 11389  11398   1    1.4990e-01    2.4568e+05 ;    N31 - C35   
 11390  11391   1    1.0910e-01    2.8342e+05 ;    C33 - H3A   
 11390  11392   1    1.0910e-01    2.8342e+05 ;    C33 - H3B   
 11390  11393   1    1.0910e-01    2.8342e+05 ;    C33 - H3C   
 11394  11395   1    1.0910e-01    2.8342e+05 ;    C34 - H4A   
 11394  11396   1    1.0910e-01    2.8342e+05 ;    C34 - H4B   
 11394  11397   1    1.0910e-01    2.8342e+05 ;    C34 - H4C   
 11398  11399   1    1.0910e-01    2.8342e+05 ;    C35 - H5A   
 11398  11400   1    1.0910e-01    2.8342e+05 ;    C35 - H5B   
 11398  11401   1    1.0910e-01    2.8342e+05 ;    C35 - H5C   
 11404  11405   1    1.3430e-01    3.4418e+05 ;    O21 - C21   
 11405  11406   1    1.2140e-01    5.4225e+05 ;    C21 - O22   
 11405  11444   1    1.5080e-01    2.7472e+05 ;    C21 - C12   
 11407  11408   1    1.0920e-01    2.8225e+05 ;   H14T - C114  
 11408  11409   1    1.0920e-01    2.8225e+05 ;   C114 - H14R  
 11408  11410   1    1.0920e-01    2.8225e+05 ;   C114 - H14S  
 11408  11411   1    1.5350e-01    2.5363e+05 ;   C114 - C113  
 11411  11412   1    1.0920e-01    2.8225e+05 ;   C113 - H13R  
 11411  11413   1    1.0920e-01    2.8225e+05 ;   C113 - H13S  
 11411  11414   1    1.5350e-01    2.5363e+05 ;   C113 - C112  
 11414  11415   1    1.0920e-01    2.8225e+05 ;   C112 - H12R  
 11414  11416   1    1.0920e-01    2.8225e+05 ;   C112 - H12S  
 11414  11417   1    1.5350e-01    2.5363e+05 ;   C112 - C111  
 11417  11418   1    1.0920e-01    2.8225e+05 ;   C111 - H11R  
 11417  11419   1    1.0920e-01    2.8225e+05 ;   C111 - H11S  
 11417  11420   1    1.5350e-01    2.5363e+05 ;   C111 - C110  
 11420  11421   1    1.0920e-01    2.8225e+05 ;   C110 - H10R  
 11420  11422   1    1.0920e-01    2.8225e+05 ;   C110 - H10S  
 11420  11423   1    1.5350e-01    2.5363e+05 ;   C110 - C19   
 11423  11424   1    1.0920e-01    2.8225e+05 ;    C19 - H9R   
 11423  11425   1    1.0920e-01    2.8225e+05 ;    C19 - H9S   
 11423  11426   1    1.5350e-01    2.5363e+05 ;    C19 - C18   
 11426  11427   1    1.0920e-01    2.8225e+05 ;    C18 - H8R   
 11426  11428   1    1.0920e-01    2.8225e+05 ;    C18 - H8S   
 11426  11429   1    1.5350e-01    2.5363e+05 ;    C18 - C17   
 11429  11430   1    1.0920e-01    2.8225e+05 ;    C17 - H7R   
 11429  11431   1    1.0920e-01    2.8225e+05 ;    C17 - H7S   
 11429  11432   1    1.5350e-01    2.5363e+05 ;    C17 - C16   
 11432  11433   1    1.0920e-01    2.8225e+05 ;    C16 - H6R   
 11432  11434   1    1.0920e-01    2.8225e+05 ;    C16 - H6S   
 11432  11435   1    1.5350e-01    2.5363e+05 ;    C16 - C15   
 11435  11436   1    1.0920e-01    2.8225e+05 ;    C15 - H5R   
 11435  11437   1    1.0920e-01    2.8225e+05 ;    C15 - H5S   
 11435  11438   1    1.5350e-01    2.5363e+05 ;    C15 - C14   
 11438  11439   1    1.0920e-01    2.8225e+05 ;    C14 - H4R   
 11438  11440   1    1.0920e-01    2.8225e+05 ;    C14 - H4S   
 11438  11441   1    1.5350e-01    2.5363e+05 ;    C14 - C13   
 11441  11442   1    1.0920e-01    2.8225e+05 ;    C13 - H3R   
 11441  11443   1    1.0920e-01    2.8225e+05 ;    C13 - H3S   
 11441  11444   1    1.5350e-01    2.5363e+05 ;    C13 - C12   
 11444  11445   1    1.0920e-01    2.8225e+05 ;    C12 - H2R   
 11444  11446   1    1.0920e-01    2.8225e+05 ;    C12 - H2S   
 11447  11448   1    1.0920e-01    2.8225e+05 ;   H14T - C114  
 11448  11449   1    1.0920e-01    2.8225e+05 ;   C114 - H14R  
 11448  11450   1    1.0920e-01    2.8225e+05 ;   C114 - H14S  
 11448  11451   1    1.5350e-01    2.5363e+05 ;   C114 - C113  
 11451  11452   1    1.0920e-01    2.8225e+05 ;   C113 - H13R  
 11451  11453   1    1.0920e-01    2.8225e+05 ;   C113 - H13S  
 11451  11454   1    1.5350e-01    2.5363e+05 ;   C113 - C112  
 11454  11455   1    1.0920e-01    2.8225e+05 ;   C112 - H12R  
 11454  11456   1    1.0920e-01    2.8225e+05 ;   C112 - H12S  
 11454  11457   1    1.5350e-01    2.5363e+05 ;   C112 - C111  
 11457  11458   1    1.0920e-01    2.8225e+05 ;   C111 - H11R  
 11457  11459   1    1.0920e-01    2.8225e+05 ;   C111 - H11S  
 11457  11460   1    1.5350e-01    2.5363e+05 ;   C111 - C110  
 11460  11461   1    1.0920e-01    2.8225e+05 ;   C110 - H10R  
 11460  11462   1    1.0920e-01    2.8225e+05 ;   C110 - H10S  
 11460  11463   1    1.5350e-01    2.5363e+05 ;   C110 - C19   
 11463  11464   1    1.0920e-01    2.8225e+05 ;    C19 - H9R   
 11463  11465   1    1.0920e-01    2.8225e+05 ;    C19 - H9S   
 11463  11466   1    1.5350e-01    2.5363e+05 ;    C19 - C18   
 11466  11467   1    1.0920e-01    2.8225e+05 ;    C18 - H8R   
 11466  11468   1    1.0920e-01    2.8225e+05 ;    C18 - H8S   
 11466  11469   1    1.5350e-01    2.5363e+05 ;    C18 - C17   
 11469  11470   1    1.0920e-01    2.8225e+05 ;    C17 - H7R   
 11469  11471   1    1.0920e-01    2.8225e+05 ;    C17 - H7S   
 11469  11472   1    1.5350e-01    2.5363e+05 ;    C17 - C16   
 11472  11473   1    1.0920e-01    2.8225e+05 ;    C16 - H6R   
 11472  11474   1    1.0920e-01    2.8225e+05 ;    C16 - H6S   
 11472  11475   1    1.5350e-01    2.5363e+05 ;    C16 - C15   
 11475  11476   1    1.0920e-01    2.8225e+05 ;    C15 - H5R   
 11475  11477   1    1.0920e-01    2.8225e+05 ;    C15 - H5S   
 11475  11478   1    1.5350e-01    2.5363e+05 ;    C15 - C14   
 11478  11479   1    1.0920e-01    2.8225e+05 ;    C14 - H4R   
 11478  11480   1    1.0920e-01    2.8225e+05 ;    C14 - H4S   
 11478  11481   1    1.5350e-01    2.5363e+05 ;    C14 - C13   
 11481  11482   1    1.0920e-01    2.8225e+05 ;    C13 - H3R   
 11481  11483   1    1.0920e-01    2.8225e+05 ;    C13 - H3S   
 11481  11484   1    1.5350e-01    2.5363e+05 ;    C13 - C12   
 11484  11485   1    1.0920e-01    2.8225e+05 ;    C12 - H2R   
 11484  11486   1    1.0920e-01    2.8225e+05 ;    C12 - H2S   
 11484  11487   1    1.5080e-01    2.7472e+05 ;    C12 - C11   
 11487  11488   1    1.2140e-01    5.4225e+05 ;    C11 - O12   
 11487  11489   1    1.3430e-01    3.4418e+05 ;    C11 - O11   
 11489  11490   1    1.4390e-01    2.5230e+05 ;    O11 - C1    
 11490  11491   1    1.0930e-01    2.8108e+05 ;     C1 - HR    
 11490  11492   1    1.0930e-01    2.8108e+05 ;     C1 - HS    
 11490  11493   1    1.5350e-01    2.5363e+05 ;     C1 - C2    
 11493  11494   1    1.0930e-01    2.8108e+05 ;     C2 - HX    
 11493  11495   1    1.5350e-01    2.5363e+05 ;     C2 - C3    
 11493  11522   1    1.4390e-01    2.5230e+05 ;     C2 - O21   
 11495  11496   1    1.0930e-01    2.8108e+05 ;     C3 - HA    
 11495  11497   1    1.0930e-01    2.8108e+05 ;     C3 - HB    
 11495  11498   1    1.4390e-01    2.5230e+05 ;     C3 - O31   
 11498  11499   1    1.6100e-01    1.9246e+05 ;    O31 - P31   
 11499  11500   1    1.6100e-01    1.9246e+05 ;    P31 - O32   
 11499  11520   1    1.4800e-01    4.3932e+05 ;    P31 - O33   
 11499  11521   1    1.4800e-01    4.3932e+05 ;    P31 - O34   
 11500  11501   1    1.4390e-01    2.5230e+05 ;    O32 - C31   
 11501  11502   1    1.0930e-01    2.8108e+05 ;    C31 - H1A   
 11501  11503   1    1.0930e-01    2.8108e+05 ;    C31 - H1B   
 11501  11504   1    1.5350e-01    2.5363e+05 ;    C31 - C32   
 11504  11505   1    1.0910e-01    2.8342e+05 ;    C32 - H2A   
 11504  11506   1    1.0910e-01    2.8342e+05 ;    C32 - H2B   
 11504  11507   1    1.4990e-01    2.4568e+05 ;    C32 - N31   
 11507  11508   1    1.4990e-01    2.4568e+05 ;    N31 - C33   
 11507  11512   1    1.4990e-01    2.4568e+05 ;    N31 - C34   
 11507  11516   1    1.4990e-01    2.4568e+05 ;    N31 - C35   
 11508  11509   1    1.0910e-01    2.8342e+05 ;    C33 - H3A   
 11508  11510   1    1.0910e-01    2.8342e+05 ;    C33 - H3B   
 11508  11511   1    1.0910e-01    2.8342e+05 ;    C33 - H3C   
 11512  11513   1    1.0910e-01    2.8342e+05 ;    C34 - H4A   
 11512  11514   1    1.0910e-01    2.8342e+05 ;    C34 - H4B   
 11512  11515   1    1.0910e-01    2.8342e+05 ;    C34 - H4C   
 11516  11517   1    1.0910e-01    2.8342e+05 ;    C35 - H5A   
 11516  11518   1    1.0910e-01    2.8342e+05 ;    C35 - H5B   
 11516  11519   1    1.0910e-01    2.8342e+05 ;    C35 - H5C   
 11522  11523   1    1.3430e-01    3.4418e+05 ;    O21 - C21   
 11523  11524   1    1.2140e-01    5.4225e+05 ;    C21 - O22   
 11523  11562   1    1.5080e-01    2.7472e+05 ;    C21 - C12   
 11525  11526   1    1.0920e-01    2.8225e+05 ;   H14T - C114  
 11526  11527   1    1.0920e-01    2.8225e+05 ;   C114 - H14R  
 11526  11528   1    1.0920e-01    2.8225e+05 ;   C114 - H14S  
 11526  11529   1    1.5350e-01    2.5363e+05 ;   C114 - C113  
 11529  11530   1    1.0920e-01    2.8225e+05 ;   C113 - H13R  
 11529  11531   1    1.0920e-01    2.8225e+05 ;   C113 - H13S  
 11529  11532   1    1.5350e-01    2.5363e+05 ;   C113 - C112  
 11532  11533   1    1.0920e-01    2.8225e+05 ;   C112 - H12R  
 11532  11534   1    1.0920e-01    2.8225e+05 ;   C112 - H12S  
 11532  11535   1    1.5350e-01    2.5363e+05 ;   C112 - C111  
 11535  11536   1    1.0920e-01    2.8225e+05 ;   C111 - H11R  
 11535  11537   1    1.0920e-01    2.8225e+05 ;   C111 - H11S  
 11535  11538   1    1.5350e-01    2.5363e+05 ;   C111 - C110  
 11538  11539   1    1.0920e-01    2.8225e+05 ;   C110 - H10R  
 11538  11540   1    1.0920e-01    2.8225e+05 ;   C110 - H10S  
 11538  11541   1    1.5350e-01    2.5363e+05 ;   C110 - C19   
 11541  11542   1    1.0920e-01    2.8225e+05 ;    C19 - H9R   
 11541  11543   1    1.0920e-01    2.8225e+05 ;    C19 - H9S   
 11541  11544   1    1.5350e-01    2.5363e+05 ;    C19 - C18   
 11544  11545   1    1.0920e-01    2.8225e+05 ;    C18 - H8R   
 11544  11546   1    1.0920e-01    2.8225e+05 ;    C18 - H8S   
 11544  11547   1    1.5350e-01    2.5363e+05 ;    C18 - C17   
 11547  11548   1    1.0920e-01    2.8225e+05 ;    C17 - H7R   
 11547  11549   1    1.0920e-01    2.8225e+05 ;    C17 - H7S   
 11547  11550   1    1.5350e-01    2.5363e+05 ;    C17 - C16   
 11550  11551   1    1.0920e-01    2.8225e+05 ;    C16 - H6R   
 11550  11552   1    1.0920e-01    2.8225e+05 ;    C16 - H6S   
 11550  11553   1    1.5350e-01    2.5363e+05 ;    C16 - C15   
 11553  11554   1    1.0920e-01    2.8225e+05 ;    C15 - H5R   
 11553  11555   1    1.0920e-01    2.8225e+05 ;    C15 - H5S   
 11553  11556   1    1.5350e-01    2.5363e+05 ;    C15 - C14   
 11556  11557   1    1.0920e-01    2.8225e+05 ;    C14 - H4R   
 11556  11558   1    1.0920e-01    2.8225e+05 ;    C14 - H4S   
 11556  11559   1    1.5350e-01    2.5363e+05 ;    C14 - C13   
 11559  11560   1    1.0920e-01    2.8225e+05 ;    C13 - H3R   
 11559  11561   1    1.0920e-01    2.8225e+05 ;    C13 - H3S   
 11559  11562   1    1.5350e-01    2.5363e+05 ;    C13 - C12   
 11562  11563   1    1.0920e-01    2.8225e+05 ;    C12 - H2R   
 11562  11564   1    1.0920e-01    2.8225e+05 ;    C12 - H2S   
 11565  11566   1    1.0920e-01    2.8225e+05 ;   H14T - C114  
 11566  11567   1    1.0920e-01    2.8225e+05 ;   C114 - H14R  
 11566  11568   1    1.0920e-01    2.8225e+05 ;   C114 - H14S  
 11566  11569   1    1.5350e-01    2.5363e+05 ;   C114 - C113  
 11569  11570   1    1.0920e-01    2.8225e+05 ;   C113 - H13R  
 11569  11571   1    1.0920e-01    2.8225e+05 ;   C113 - H13S  
 11569  11572   1    1.5350e-01    2.5363e+05 ;   C113 - C112  
 11572  11573   1    1.0920e-01    2.8225e+05 ;   C112 - H12R  
 11572  11574   1    1.0920e-01    2.8225e+05 ;   C112 - H12S  
 11572  11575   1    1.5350e-01    2.5363e+05 ;   C112 - C111  
 11575  11576   1    1.0920e-01    2.8225e+05 ;   C111 - H11R  
 11575  11577   1    1.0920e-01    2.8225e+05 ;   C111 - H11S  
 11575  11578   1    1.5350e-01    2.5363e+05 ;   C111 - C110  
 11578  11579   1    1.0920e-01    2.8225e+05 ;   C110 - H10R  
 11578  11580   1    1.0920e-01    2.8225e+05 ;   C110 - H10S  
 11578  11581   1    1.5350e-01    2.5363e+05 ;   C110 - C19   
 11581  11582   1    1.0920e-01    2.8225e+05 ;    C19 - H9R   
 11581  11583   1    1.0920e-01    2.8225e+05 ;    C19 - H9S   
 11581  11584   1    1.5350e-01    2.5363e+05 ;    C19 - C18   
 11584  11585   1    1.0920e-01    2.8225e+05 ;    C18 - H8R   
 11584  11586   1    1.0920e-01    2.8225e+05 ;    C18 - H8S   
 11584  11587   1    1.5350e-01    2.5363e+05 ;    C18 - C17   
 11587  11588   1    1.0920e-01    2.8225e+05 ;    C17 - H7R   
 11587  11589   1    1.0920e-01    2.8225e+05 ;    C17 - H7S   
 11587  11590   1    1.5350e-01    2.5363e+05 ;    C17 - C16   
 11590  11591   1    1.0920e-01    2.8225e+05 ;    C16 - H6R   
 11590  11592   1    1.0920e-01    2.8225e+05 ;    C16 - H6S   
 11590  11593   1    1.5350e-01    2.5363e+05 ;    C16 - C15   
 11593  11594   1    1.0920e-01    2.8225e+05 ;    C15 - H5R   
 11593  11595   1    1.0920e-01    2.8225e+05 ;    C15 - H5S   
 11593  11596   1    1.5350e-01    2.5363e+05 ;    C15 - C14   
 11596  11597   1    1.0920e-01    2.8225e+05 ;    C14 - H4R   
 11596  11598   1    1.0920e-01    2.8225e+05 ;    C14 - H4S   
 11596  11599   1    1.5350e-01    2.5363e+05 ;    C14 - C13   
 11599  11600   1    1.0920e-01    2.8225e+05 ;    C13 - H3R   
 11599  11601   1    1.0920e-01    2.8225e+05 ;    C13 - H3S   
 11599  11602   1    1.5350e-01    2.5363e+05 ;    C13 - C12   
 11602  11603   1    1.0920e-01    2.8225e+05 ;    C12 - H2R   
 11602  11604   1    1.0920e-01    2.8225e+05 ;    C12 - H2S   
 11602  11605   1    1.5080e-01    2.7472e+05 ;    C12 - C11   
 11605  11606   1    1.2140e-01    5.4225e+05 ;    C11 - O12   
 11605  11607   1    1.3430e-01    3.4418e+05 ;    C11 - O11   
 11607  11608   1    1.4390e-01    2.5230e+05 ;    O11 - C1    
 11608  11609   1    1.0930e-01    2.8108e+05 ;     C1 - HR    
 11608  11610   1    1.0930e-01    2.8108e+05 ;     C1 - HS    
 11608  11611   1    1.5350e-01    2.5363e+05 ;     C1 - C2    
 11611  11612   1    1.0930e-01    2.8108e+05 ;     C2 - HX    
 11611  11613   1    1.5350e-01    2.5363e+05 ;     C2 - C3    
 11611  11640   1    1.4390e-01    2.5230e+05 ;     C2 - O21   
 11613  11614   1    1.0930e-01    2.8108e+05 ;     C3 - HA    
 11613  11615   1    1.0930e-01    2.8108e+05 ;     C3 - HB    
 11613  11616   1    1.4390e-01    2.5230e+05 ;     C3 - O31   
 11616  11617   1    1.6100e-01    1.9246e+05 ;    O31 - P31   
 11617  11618   1    1.6100e-01    1.9246e+05 ;    P31 - O32   
 11617  11638   1    1.4800e-01    4.3932e+05 ;    P31 - O33   
 11617  11639   1    1.4800e-01    4.3932e+05 ;    P31 - O34   
 11618  11619   1    1.4390e-01    2.5230e+05 ;    O32 - C31   
 11619  11620   1    1.0930e-01    2.8108e+05 ;    C31 - H1A   
 11619  11621   1    1.0930e-01    2.8108e+05 ;    C31 - H1B   
 11619  11622   1    1.5350e-01    2.5363e+05 ;    C31 - C32   
 11622  11623   1    1.0910e-01    2.8342e+05 ;    C32 - H2A   
 11622  11624   1    1.0910e-01    2.8342e+05 ;    C32 - H2B   
 11622  11625   1    1.4990e-01    2.4568e+05 ;    C32 - N31   
 11625  11626   1    1.4990e-01    2.4568e+05 ;    N31 - C33   
 11625  11630   1    1.4990e-01    2.4568e+05 ;    N31 - C34   
 11625  11634   1    1.4990e-01    2.4568e+05 ;    N31 - C35   
 11626  11627   1    1.0910e-01    2.8342e+05 ;    C33 - H3A   
 11626  11628   1    1.0910e-01    2.8342e+05 ;    C33 - H3B   
 11626  11629   1    1.0910e-01    2.8342e+05 ;    C33 - H3C   
 11630  11631   1    1.0910e-01    2.8342e+05 ;    C34 - H4A   
 11630  11632   1    1.0910e-01    2.8342e+05 ;    C34 - H4B   
 11630  11633   1    1.0910e-01    2.8342e+05 ;    C34 - H4C   
 11634  11635   1    1.0910e-01    2.8342e+05 ;    C35 - H5A   
 11634  11636   1    1.0910e-01    2.8342e+05 ;    C35 - H5B   
 11634  11637   1    1.0910e-01    2.8342e+05 ;    C35 - H5C   
 11640  11641   1    1.3430e-01    3.4418e+05 ;    O21 - C21   
 11641  11642   1    1.2140e-01    5.4225e+05 ;    C21 - O22   
 11641  11680   1    1.5080e-01    2.7472e+05 ;    C21 - C12   
 11643  11644   1    1.0920e-01    2.8225e+05 ;   H14T - C114  
 11644  11645   1    1.0920e-01    2.8225e+05 ;   C114 - H14R  
 11644  11646   1    1.0920e-01    2.8225e+05 ;   C114 - H14S  
 11644  11647   1    1.5350e-01    2.5363e+05 ;   C114 - C113  
 11647  11648   1    1.0920e-01    2.8225e+05 ;   C113 - H13R  
 11647  11649   1    1.0920e-01    2.8225e+05 ;   C113 - H13S  
 11647  11650   1    1.5350e-01    2.5363e+05 ;   C113 - C112  
 11650  11651   1    1.0920e-01    2.8225e+05 ;   C112 - H12R  
 11650  11652   1    1.0920e-01    2.8225e+05 ;   C112 - H12S  
 11650  11653   1    1.5350e-01    2.5363e+05 ;   C112 - C111  
 11653  11654   1    1.0920e-01    2.8225e+05 ;   C111 - H11R  
 11653  11655   1    1.0920e-01    2.8225e+05 ;   C111 - H11S  
 11653  11656   1    1.5350e-01    2.5363e+05 ;   C111 - C110  
 11656  11657   1    1.0920e-01    2.8225e+05 ;   C110 - H10R  
 11656  11658   1    1.0920e-01    2.8225e+05 ;   C110 - H10S  
 11656  11659   1    1.5350e-01    2.5363e+05 ;   C110 - C19   
 11659  11660   1    1.0920e-01    2.8225e+05 ;    C19 - H9R   
 11659  11661   1    1.0920e-01    2.8225e+05 ;    C19 - H9S   
 11659  11662   1    1.5350e-01    2.5363e+05 ;    C19 - C18   
 11662  11663   1    1.0920e-01    2.8225e+05 ;    C18 - H8R   
 11662  11664   1    1.0920e-01    2.8225e+05 ;    C18 - H8S   
 11662  11665   1    1.5350e-01    2.5363e+05 ;    C18 - C17   
 11665  11666   1    1.0920e-01    2.8225e+05 ;    C17 - H7R   
 11665  11667   1    1.0920e-01    2.8225e+05 ;    C17 - H7S   
 11665  11668   1    1.5350e-01    2.5363e+05 ;    C17 - C16   
 11668  11669   1    1.0920e-01    2.8225e+05 ;    C16 - H6R   
 11668  11670   1    1.0920e-01    2.8225e+05 ;    C16 - H6S   
 11668  11671   1    1.5350e-01    2.5363e+05 ;    C16 - C15   
 11671  11672   1    1.0920e-01    2.8225e+05 ;    C15 - H5R   
 11671  11673   1    1.0920e-01    2.8225e+05 ;    C15 - H5S   
 11671  11674   1    1.5350e-01    2.5363e+05 ;    C15 - C14   
 11674  11675   1    1.0920e-01    2.8225e+05 ;    C14 - H4R   
 11674  11676   1    1.0920e-01    2.8225e+05 ;    C14 - H4S   
 11674  11677   1    1.5350e-01    2.5363e+05 ;    C14 - C13   
 11677  11678   1    1.0920e-01    2.8225e+05 ;    C13 - H3R   
 11677  11679   1    1.0920e-01    2.8225e+05 ;    C13 - H3S   
 11677  11680   1    1.5350e-01    2.5363e+05 ;    C13 - C12   
 11680  11681   1    1.0920e-01    2.8225e+05 ;    C12 - H2R   
 11680  11682   1    1.0920e-01    2.8225e+05 ;    C12 - H2S   
 11683  11684   1    1.0920e-01    2.8225e+05 ;   H14T - C114  
 11684  11685   1    1.0920e-01    2.8225e+05 ;   C114 - H14R  
 11684  11686   1    1.0920e-01    2.8225e+05 ;   C114 - H14S  
 11684  11687   1    1.5350e-01    2.5363e+05 ;   C114 - C113  
 11687  11688   1    1.0920e-01    2.8225e+05 ;   C113 - H13R  
 11687  11689   1    1.0920e-01    2.8225e+05 ;   C113 - H13S  
 11687  11690   1    1.5350e-01    2.5363e+05 ;   C113 - C112  
 11690  11691   1    1.0920e-01    2.8225e+05 ;   C112 - H12R  
 11690  11692   1    1.0920e-01    2.8225e+05 ;   C112 - H12S  
 11690  11693   1    1.5350e-01    2.5363e+05 ;   C112 - C111  
 11693  11694   1    1.0920e-01    2.8225e+05 ;   C111 - H11R  
 11693  11695   1    1.0920e-01    2.8225e+05 ;   C111 - H11S  
 11693  11696   1    1.5350e-01    2.5363e+05 ;   C111 - C110  
 11696  11697   1    1.0920e-01    2.8225e+05 ;   C110 - H10R  
 11696  11698   1    1.0920e-01    2.8225e+05 ;   C110 - H10S  
 11696  11699   1    1.5350e-01    2.5363e+05 ;   C110 - C19   
 11699  11700   1    1.0920e-01    2.8225e+05 ;    C19 - H9R   
 11699  11701   1    1.0920e-01    2.8225e+05 ;    C19 - H9S   
 11699  11702   1    1.5350e-01    2.5363e+05 ;    C19 - C18   
 11702  11703   1    1.0920e-01    2.8225e+05 ;    C18 - H8R   
 11702  11704   1    1.0920e-01    2.8225e+05 ;    C18 - H8S   
 11702  11705   1    1.5350e-01    2.5363e+05 ;    C18 - C17   
 11705  11706   1    1.0920e-01    2.8225e+05 ;    C17 - H7R   
 11705  11707   1    1.0920e-01    2.8225e+05 ;    C17 - H7S   
 11705  11708   1    1.5350e-01    2.5363e+05 ;    C17 - C16   
 11708  11709   1    1.0920e-01    2.8225e+05 ;    C16 - H6R   
 11708  11710   1    1.0920e-01    2.8225e+05 ;    C16 - H6S   
 11708  11711   1    1.5350e-01    2.5363e+05 ;    C16 - C15   
 11711  11712   1    1.0920e-01    2.8225e+05 ;    C15 - H5R   
 11711  11713   1    1.0920e-01    2.8225e+05 ;    C15 - H5S   
 11711  11714   1    1.5350e-01    2.5363e+05 ;    C15 - C14   
 11714  11715   1    1.0920e-01    2.8225e+05 ;    C14 - H4R   
 11714  11716   1    1.0920e-01    2.8225e+05 ;    C14 - H4S   
 11714  11717   1    1.5350e-01    2.5363e+05 ;    C14 - C13   
 11717  11718   1    1.0920e-01    2.8225e+05 ;    C13 - H3R   
 11717  11719   1    1.0920e-01    2.8225e+05 ;    C13 - H3S   
 11717  11720   1    1.5350e-01    2.5363e+05 ;    C13 - C12   
 11720  11721   1    1.0920e-01    2.8225e+05 ;    C12 - H2R   
 11720  11722   1    1.0920e-01    2.8225e+05 ;    C12 - H2S   
 11720  11723   1    1.5080e-01    2.7472e+05 ;    C12 - C11   
 11723  11724   1    1.2140e-01    5.4225e+05 ;    C11 - O12   
 11723  11725   1    1.3430e-01    3.4418e+05 ;    C11 - O11   
 11725  11726   1    1.4390e-01    2.5230e+05 ;    O11 - C1    
 11726  11727   1    1.0930e-01    2.8108e+05 ;     C1 - HR    
 11726  11728   1    1.0930e-01    2.8108e+05 ;     C1 - HS    
 11726  11729   1    1.5350e-01    2.5363e+05 ;     C1 - C2    
 11729  11730   1    1.0930e-01    2.8108e+05 ;     C2 - HX    
 11729  11731   1    1.5350e-01    2.5363e+05 ;     C2 - C3    
 11729  11758   1    1.4390e-01    2.5230e+05 ;     C2 - O21   
 11731  11732   1    1.0930e-01    2.8108e+05 ;     C3 - HA    
 11731  11733   1    1.0930e-01    2.8108e+05 ;     C3 - HB    
 11731  11734   1    1.4390e-01    2.5230e+05 ;     C3 - O31   
 11734  11735   1    1.6100e-01    1.9246e+05 ;    O31 - P31   
 11735  11736   1    1.6100e-01    1.9246e+05 ;    P31 - O32   
 11735  11756   1    1.4800e-01    4.3932e+05 ;    P31 - O33   
 11735  11757   1    1.4800e-01    4.3932e+05 ;    P31 - O34   
 11736  11737   1    1.4390e-01    2.5230e+05 ;    O32 - C31   
 11737  11738   1    1.0930e-01    2.8108e+05 ;    C31 - H1A   
 11737  11739   1    1.0930e-01    2.8108e+05 ;    C31 - H1B   
 11737  11740   1    1.5350e-01    2.5363e+05 ;    C31 - C32   
 11740  11741   1    1.0910e-01    2.8342e+05 ;    C32 - H2A   
 11740  11742   1    1.0910e-01    2.8342e+05 ;    C32 - H2B   
 11740  11743   1    1.4990e-01    2.4568e+05 ;    C32 - N31   
 11743  11744   1    1.4990e-01    2.4568e+05 ;    N31 - C33   
 11743  11748   1    1.4990e-01    2.4568e+05 ;    N31 - C34   
 11743  11752   1    1.4990e-01    2.4568e+05 ;    N31 - C35   
 11744  11745   1    1.0910e-01    2.8342e+05 ;    C33 - H3A   
 11744  11746   1    1.0910e-01    2.8342e+05 ;    C33 - H3B   
 11744  11747   1    1.0910e-01    2.8342e+05 ;    C33 - H3C   
 11748  11749   1    1.0910e-01    2.8342e+05 ;    C34 - H4A   
 11748  11750   1    1.0910e-01    2.8342e+05 ;    C34 - H4B   
 11748  11751   1    1.0910e-01    2.8342e+05 ;    C34 - H4C   
 11752  11753   1    1.0910e-01    2.8342e+05 ;    C35 - H5A   
 11752  11754   1    1.0910e-01    2.8342e+05 ;    C35 - H5B   
 11752  11755   1    1.0910e-01    2.8342e+05 ;    C35 - H5C   
 11758  11759   1    1.3430e-01    3.4418e+05 ;    O21 - C21   
 11759  11760   1    1.2140e-01    5.4225e+05 ;    C21 - O22   
 11759  11798   1    1.5080e-01    2.7472e+05 ;    C21 - C12   
 11761  11762   1    1.0920e-01    2.8225e+05 ;   H14T - C114  
 11762  11763   1    1.0920e-01    2.8225e+05 ;   C114 - H14R  
 11762  11764   1    1.0920e-01    2.8225e+05 ;   C114 - H14S  
 11762  11765   1    1.5350e-01    2.5363e+05 ;   C114 - C113  
 11765  11766   1    1.0920e-01    2.8225e+05 ;   C113 - H13R  
 11765  11767   1    1.0920e-01    2.8225e+05 ;   C113 - H13S  
 11765  11768   1    1.5350e-01    2.5363e+05 ;   C113 - C112  
 11768  11769   1    1.0920e-01    2.8225e+05 ;   C112 - H12R  
 11768  11770   1    1.0920e-01    2.8225e+05 ;   C112 - H12S  
 11768  11771   1    1.5350e-01    2.5363e+05 ;   C112 - C111  
 11771  11772   1    1.0920e-01    2.8225e+05 ;   C111 - H11R  
 11771  11773   1    1.0920e-01    2.8225e+05 ;   C111 - H11S  
 11771  11774   1    1.5350e-01    2.5363e+05 ;   C111 - C110  
 11774  11775   1    1.0920e-01    2.8225e+05 ;   C110 - H10R  
 11774  11776   1    1.0920e-01    2.8225e+05 ;   C110 - H10S  
 11774  11777   1    1.5350e-01    2.5363e+05 ;   C110 - C19   
 11777  11778   1    1.0920e-01    2.8225e+05 ;    C19 - H9R   
 11777  11779   1    1.0920e-01    2.8225e+05 ;    C19 - H9S   
 11777  11780   1    1.5350e-01    2.5363e+05 ;    C19 - C18   
 11780  11781   1    1.0920e-01    2.8225e+05 ;    C18 - H8R   
 11780  11782   1    1.0920e-01    2.8225e+05 ;    C18 - H8S   
 11780  11783   1    1.5350e-01    2.5363e+05 ;    C18 - C17   
 11783  11784   1    1.0920e-01    2.8225e+05 ;    C17 - H7R   
 11783  11785   1    1.0920e-01    2.8225e+05 ;    C17 - H7S   
 11783  11786   1    1.5350e-01    2.5363e+05 ;    C17 - C16   
 11786  11787   1    1.0920e-01    2.8225e+05 ;    C16 - H6R   
 11786  11788   1    1.0920e-01    2.8225e+05 ;    C16 - H6S   
 11786  11789   1    1.5350e-01    2.5363e+05 ;    C16 - C15   
 11789  11790   1    1.0920e-01    2.8225e+05 ;    C15 - H5R   
 11789  11791   1    1.0920e-01    2.8225e+05 ;    C15 - H5S   
 11789  11792   1    1.5350e-01    2.5363e+05 ;    C15 - C14   
 11792  11793   1    1.0920e-01    2.8225e+05 ;    C14 - H4R   
 11792  11794   1    1.0920e-01    2.8225e+05 ;    C14 - H4S   
 11792  11795   1    1.5350e-01    2.5363e+05 ;    C14 - C13   
 11795  11796   1    1.0920e-01    2.8225e+05 ;    C13 - H3R   
 11795  11797   1    1.0920e-01    2.8225e+05 ;    C13 - H3S   
 11795  11798   1    1.5350e-01    2.5363e+05 ;    C13 - C12   
 11798  11799   1    1.0920e-01    2.8225e+05 ;    C12 - H2R   
 11798  11800   1    1.0920e-01    2.8225e+05 ;    C12 - H2S   
 11801  11802   1    1.0920e-01    2.8225e+05 ;   H14T - C114  
 11802  11803   1    1.0920e-01    2.8225e+05 ;   C114 - H14R  
 11802  11804   1    1.0920e-01    2.8225e+05 ;   C114 - H14S  
 11802  11805   1    1.5350e-01    2.5363e+05 ;   C114 - C113  
 11805  11806   1    1.0920e-01    2.8225e+05 ;   C113 - H13R  
 11805  11807   1    1.0920e-01    2.8225e+05 ;   C113 - H13S  
 11805  11808   1    1.5350e-01    2.5363e+05 ;   C113 - C112  
 11808  11809   1    1.0920e-01    2.8225e+05 ;   C112 - H12R  
 11808  11810   1    1.0920e-01    2.8225e+05 ;   C112 - H12S  
 11808  11811   1    1.5350e-01    2.5363e+05 ;   C112 - C111  
 11811  11812   1    1.0920e-01    2.8225e+05 ;   C111 - H11R  
 11811  11813   1    1.0920e-01    2.8225e+05 ;   C111 - H11S  
 11811  11814   1    1.5350e-01    2.5363e+05 ;   C111 - C110  
 11814  11815   1    1.0920e-01    2.8225e+05 ;   C110 - H10R  
 11814  11816   1    1.0920e-01    2.8225e+05 ;   C110 - H10S  
 11814  11817   1    1.5350e-01    2.5363e+05 ;   C110 - C19   
 11817  11818   1    1.0920e-01    2.8225e+05 ;    C19 - H9R   
 11817  11819   1    1.0920e-01    2.8225e+05 ;    C19 - H9S   
 11817  11820   1    1.5350e-01    2.5363e+05 ;    C19 - C18   
 11820  11821   1    1.0920e-01    2.8225e+05 ;    C18 - H8R   
 11820  11822   1    1.0920e-01    2.8225e+05 ;    C18 - H8S   
 11820  11823   1    1.5350e-01    2.5363e+05 ;    C18 - C17   
 11823  11824   1    1.0920e-01    2.8225e+05 ;    C17 - H7R   
 11823  11825   1    1.0920e-01    2.8225e+05 ;    C17 - H7S   
 11823  11826   1    1.5350e-01    2.5363e+05 ;    C17 - C16   
 11826  11827   1    1.0920e-01    2.8225e+05 ;    C16 - H6R   
 11826  11828   1    1.0920e-01    2.8225e+05 ;    C16 - H6S   
 11826  11829   1    1.5350e-01    2.5363e+05 ;    C16 - C15   
 11829  11830   1    1.0920e-01    2.8225e+05 ;    C15 - H5R   
 11829  11831   1    1.0920e-01    2.8225e+05 ;    C15 - H5S   
 11829  11832   1    1.5350e-01    2.5363e+05 ;    C15 - C14   
 11832  11833   1    1.0920e-01    2.8225e+05 ;    C14 - H4R   
 11832  11834   1    1.0920e-01    2.8225e+05 ;    C14 - H4S   
 11832  11835   1    1.5350e-01    2.5363e+05 ;    C14 - C13   
 11835  11836   1    1.0920e-01    2.8225e+05 ;    C13 - H3R   
 11835  11837   1    1.0920e-01    2.8225e+05 ;    C13 - H3S   
 11835  11838   1    1.5350e-01    2.5363e+05 ;    C13 - C12   
 11838  11839   1    1.0920e-01    2.8225e+05 ;    C12 - H2R   
 11838  11840   1    1.0920e-01    2.8225e+05 ;    C12 - H2S   
 11838  11841   1    1.5080e-01    2.7472e+05 ;    C12 - C11   
 11841  11842   1    1.2140e-01    5.4225e+05 ;    C11 - O12   
 11841  11843   1    1.3430e-01    3.4418e+05 ;    C11 - O11   
 11843  11844   1    1.4390e-01    2.5230e+05 ;    O11 - C1    
 11844  11845   1    1.0930e-01    2.8108e+05 ;     C1 - HR    
 11844  11846   1    1.0930e-01    2.8108e+05 ;     C1 - HS    
 11844  11847   1    1.5350e-01    2.5363e+05 ;     C1 - C2    
 11847  11848   1    1.0930e-01    2.8108e+05 ;     C2 - HX    
 11847  11849   1    1.5350e-01    2.5363e+05 ;     C2 - C3    
 11847  11876   1    1.4390e-01    2.5230e+05 ;     C2 - O21   
 11849  11850   1    1.0930e-01    2.8108e+05 ;     C3 - HA    
 11849  11851   1    1.0930e-01    2.8108e+05 ;     C3 - HB    
 11849  11852   1    1.4390e-01    2.5230e+05 ;     C3 - O31   
 11852  11853   1    1.6100e-01    1.9246e+05 ;    O31 - P31   
 11853  11854   1    1.6100e-01    1.9246e+05 ;    P31 - O32   
 11853  11874   1    1.4800e-01    4.3932e+05 ;    P31 - O33   
 11853  11875   1    1.4800e-01    4.3932e+05 ;    P31 - O34   
 11854  11855   1    1.4390e-01    2.5230e+05 ;    O32 - C31   
 11855  11856   1    1.0930e-01    2.8108e+05 ;    C31 - H1A   
 11855  11857   1    1.0930e-01    2.8108e+05 ;    C31 - H1B   
 11855  11858   1    1.5350e-01    2.5363e+05 ;    C31 - C32   
 11858  11859   1    1.0910e-01    2.8342e+05 ;    C32 - H2A   
 11858  11860   1    1.0910e-01    2.8342e+05 ;    C32 - H2B   
 11858  11861   1    1.4990e-01    2.4568e+05 ;    C32 - N31   
 11861  11862   1    1.4990e-01    2.4568e+05 ;    N31 - C33   
 11861  11866   1    1.4990e-01    2.4568e+05 ;    N31 - C34   
 11861  11870   1    1.4990e-01    2.4568e+05 ;    N31 - C35   
 11862  11863   1    1.0910e-01    2.8342e+05 ;    C33 - H3A   
 11862  11864   1    1.0910e-01    2.8342e+05 ;    C33 - H3B   
 11862  11865   1    1.0910e-01    2.8342e+05 ;    C33 - H3C   
 11866  11867   1    1.0910e-01    2.8342e+05 ;    C34 - H4A   
 11866  11868   1    1.0910e-01    2.8342e+05 ;    C34 - H4B   
 11866  11869   1    1.0910e-01    2.8342e+05 ;    C34 - H4C   
 11870  11871   1    1.0910e-01    2.8342e+05 ;    C35 - H5A   
 11870  11872   1    1.0910e-01    2.8342e+05 ;    C35 - H5B   
 11870  11873   1    1.0910e-01    2.8342e+05 ;    C35 - H5C   
 11876  11877   1    1.3430e-01    3.4418e+05 ;    O21 - C21   
 11877  11878   1    1.2140e-01    5.4225e+05 ;    C21 - O22   
 11877  11916   1    1.5080e-01    2.7472e+05 ;    C21 - C12   
 11879  11880   1    1.0920e-01    2.8225e+05 ;   H14T - C114  
 11880  11881   1    1.0920e-01    2.8225e+05 ;   C114 - H14R  
 11880  11882   1    1.0920e-01    2.8225e+05 ;   C114 - H14S  
 11880  11883   1    1.5350e-01    2.5363e+05 ;   C114 - C113  
 11883  11884   1    1.0920e-01    2.8225e+05 ;   C113 - H13R  
 11883  11885   1    1.0920e-01    2.8225e+05 ;   C113 - H13S  
 11883  11886   1    1.5350e-01    2.5363e+05 ;   C113 - C112  
 11886  11887   1    1.0920e-01    2.8225e+05 ;   C112 - H12R  
 11886  11888   1    1.0920e-01    2.8225e+05 ;   C112 - H12S  
 11886  11889   1    1.5350e-01    2.5363e+05 ;   C112 - C111  
 11889  11890   1    1.0920e-01    2.8225e+05 ;   C111 - H11R  
 11889  11891   1    1.0920e-01    2.8225e+05 ;   C111 - H11S  
 11889  11892   1    1.5350e-01    2.5363e+05 ;   C111 - C110  
 11892  11893   1    1.0920e-01    2.8225e+05 ;   C110 - H10R  
 11892  11894   1    1.0920e-01    2.8225e+05 ;   C110 - H10S  
 11892  11895   1    1.5350e-01    2.5363e+05 ;   C110 - C19   
 11895  11896   1    1.0920e-01    2.8225e+05 ;    C19 - H9R   
 11895  11897   1    1.0920e-01    2.8225e+05 ;    C19 - H9S   
 11895  11898   1    1.5350e-01    2.5363e+05 ;    C19 - C18   
 11898  11899   1    1.0920e-01    2.8225e+05 ;    C18 - H8R   
 11898  11900   1    1.0920e-01    2.8225e+05 ;    C18 - H8S   
 11898  11901   1    1.5350e-01    2.5363e+05 ;    C18 - C17   
 11901  11902   1    1.0920e-01    2.8225e+05 ;    C17 - H7R   
 11901  11903   1    1.0920e-01    2.8225e+05 ;    C17 - H7S   
 11901  11904   1    1.5350e-01    2.5363e+05 ;    C17 - C16   
 11904  11905   1    1.0920e-01    2.8225e+05 ;    C16 - H6R   
 11904  11906   1    1.0920e-01    2.8225e+05 ;    C16 - H6S   
 11904  11907   1    1.5350e-01    2.5363e+05 ;    C16 - C15   
 11907  11908   1    1.0920e-01    2.8225e+05 ;    C15 - H5R   
 11907  11909   1    1.0920e-01    2.8225e+05 ;    C15 - H5S   
 11907  11910   1    1.5350e-01    2.5363e+05 ;    C15 - C14   
 11910  11911   1    1.0920e-01    2.8225e+05 ;    C14 - H4R   
 11910  11912   1    1.0920e-01    2.8225e+05 ;    C14 - H4S   
 11910  11913   1    1.5350e-01    2.5363e+05 ;    C14 - C13   
 11913  11914   1    1.0920e-01    2.8225e+05 ;    C13 - H3R   
 11913  11915   1    1.0920e-01    2.8225e+05 ;    C13 - H3S   
 11913  11916   1    1.5350e-01    2.5363e+05 ;    C13 - C12   
 11916  11917   1    1.0920e-01    2.8225e+05 ;    C12 - H2R   
 11916  11918   1    1.0920e-01    2.8225e+05 ;    C12 - H2S   
 11919  11920   1    1.0920e-01    2.8225e+05 ;   H14T - C114  
 11920  11921   1    1.0920e-01    2.8225e+05 ;   C114 - H14R  
 11920  11922   1    1.0920e-01    2.8225e+05 ;   C114 - H14S  
 11920  11923   1    1.5350e-01    2.5363e+05 ;   C114 - C113  
 11923  11924   1    1.0920e-01    2.8225e+05 ;   C113 - H13R  
 11923  11925   1    1.0920e-01    2.8225e+05 ;   C113 - H13S  
 11923  11926   1    1.5350e-01    2.5363e+05 ;   C113 - C112  
 11926  11927   1    1.0920e-01    2.8225e+05 ;   C112 - H12R  
 11926  11928   1    1.0920e-01    2.8225e+05 ;   C112 - H12S  
 11926  11929   1    1.5350e-01    2.5363e+05 ;   C112 - C111  
 11929  11930   1    1.0920e-01    2.8225e+05 ;   C111 - H11R  
 11929  11931   1    1.0920e-01    2.8225e+05 ;   C111 - H11S  
 11929  11932   1    1.5350e-01    2.5363e+05 ;   C111 - C110  
 11932  11933   1    1.0920e-01    2.8225e+05 ;   C110 - H10R  
 11932  11934   1    1.0920e-01    2.8225e+05 ;   C110 - H10S  
 11932  11935   1    1.5350e-01    2.5363e+05 ;   C110 - C19   
 11935  11936   1    1.0920e-01    2.8225e+05 ;    C19 - H9R   
 11935  11937   1    1.0920e-01    2.8225e+05 ;    C19 - H9S   
 11935  11938   1    1.5350e-01    2.5363e+05 ;    C19 - C18   
 11938  11939   1    1.0920e-01    2.8225e+05 ;    C18 - H8R   
 11938  11940   1    1.0920e-01    2.8225e+05 ;    C18 - H8S   
 11938  11941   1    1.5350e-01    2.5363e+05 ;    C18 - C17   
 11941  11942   1    1.0920e-01    2.8225e+05 ;    C17 - H7R   
 11941  11943   1    1.0920e-01    2.8225e+05 ;    C17 - H7S   
 11941  11944   1    1.5350e-01    2.5363e+05 ;    C17 - C16   
 11944  11945   1    1.0920e-01    2.8225e+05 ;    C16 - H6R   
 11944  11946   1    1.0920e-01    2.8225e+05 ;    C16 - H6S   
 11944  11947   1    1.5350e-01    2.5363e+05 ;    C16 - C15   
 11947  11948   1    1.0920e-01    2.8225e+05 ;    C15 - H5R   
 11947  11949   1    1.0920e-01    2.8225e+05 ;    C15 - H5S   
 11947  11950   1    1.5350e-01    2.5363e+05 ;    C15 - C14   
 11950  11951   1    1.0920e-01    2.8225e+05 ;    C14 - H4R   
 11950  11952   1    1.0920e-01    2.8225e+05 ;    C14 - H4S   
 11950  11953   1    1.5350e-01    2.5363e+05 ;    C14 - C13   
 11953  11954   1    1.0920e-01    2.8225e+05 ;    C13 - H3R   
 11953  11955   1    1.0920e-01    2.8225e+05 ;    C13 - H3S   
 11953  11956   1    1.5350e-01    2.5363e+05 ;    C13 - C12   
 11956  11957   1    1.0920e-01    2.8225e+05 ;    C12 - H2R   
 11956  11958   1    1.0920e-01    2.8225e+05 ;    C12 - H2S   
 11956  11959   1    1.5080e-01    2.7472e+05 ;    C12 - C11   
 11959  11960   1    1.2140e-01    5.4225e+05 ;    C11 - O12   
 11959  11961   1    1.3430e-01    3.4418e+05 ;    C11 - O11   
 11961  11962   1    1.4390e-01    2.5230e+05 ;    O11 - C1    
 11962  11963   1    1.0930e-01    2.8108e+05 ;     C1 - HR    
 11962  11964   1    1.0930e-01    2.8108e+05 ;     C1 - HS    
 11962  11965   1    1.5350e-01    2.5363e+05 ;     C1 - C2    
 11965  11966   1    1.0930e-01    2.8108e+05 ;     C2 - HX    
 11965  11967   1    1.5350e-01    2.5363e+05 ;     C2 - C3    
 11965  11994   1    1.4390e-01    2.5230e+05 ;     C2 - O21   
 11967  11968   1    1.0930e-01    2.8108e+05 ;     C3 - HA    
 11967  11969   1    1.0930e-01    2.8108e+05 ;     C3 - HB    
 11967  11970   1    1.4390e-01    2.5230e+05 ;     C3 - O31   
 11970  11971   1    1.6100e-01    1.9246e+05 ;    O31 - P31   
 11971  11972   1    1.6100e-01    1.9246e+05 ;    P31 - O32   
 11971  11992   1    1.4800e-01    4.3932e+05 ;    P31 - O33   
 11971  11993   1    1.4800e-01    4.3932e+05 ;    P31 - O34   
 11972  11973   1    1.4390e-01    2.5230e+05 ;    O32 - C31   
 11973  11974   1    1.0930e-01    2.8108e+05 ;    C31 - H1A   
 11973  11975   1    1.0930e-01    2.8108e+05 ;    C31 - H1B   
 11973  11976   1    1.5350e-01    2.5363e+05 ;    C31 - C32   
 11976  11977   1    1.0910e-01    2.8342e+05 ;    C32 - H2A   
 11976  11978   1    1.0910e-01    2.8342e+05 ;    C32 - H2B   
 11976  11979   1    1.4990e-01    2.4568e+05 ;    C32 - N31   
 11979  11980   1    1.4990e-01    2.4568e+05 ;    N31 - C33   
 11979  11984   1    1.4990e-01    2.4568e+05 ;    N31 - C34   
 11979  11988   1    1.4990e-01    2.4568e+05 ;    N31 - C35   
 11980  11981   1    1.0910e-01    2.8342e+05 ;    C33 - H3A   
 11980  11982   1    1.0910e-01    2.8342e+05 ;    C33 - H3B   
 11980  11983   1    1.0910e-01    2.8342e+05 ;    C33 - H3C   
 11984  11985   1    1.0910e-01    2.8342e+05 ;    C34 - H4A   
 11984  11986   1    1.0910e-01    2.8342e+05 ;    C34 - H4B   
 11984  11987   1    1.0910e-01    2.8342e+05 ;    C34 - H4C   
 11988  11989   1    1.0910e-01    2.8342e+05 ;    C35 - H5A   
 11988  11990   1    1.0910e-01    2.8342e+05 ;    C35 - H5B   
 11988  11991   1    1.0910e-01    2.8342e+05 ;    C35 - H5C   
 11994  11995   1    1.3430e-01    3.4418e+05 ;    O21 - C21   
 11995  11996   1    1.2140e-01    5.4225e+05 ;    C21 - O22   
 11995  12034   1    1.5080e-01    2.7472e+05 ;    C21 - C12   
 11997  11998   1    1.0920e-01    2.8225e+05 ;   H14T - C114  
 11998  11999   1    1.0920e-01    2.8225e+05 ;   C114 - H14R  
 11998  12000   1    1.0920e-01    2.8225e+05 ;   C114 - H14S  
 11998  12001   1    1.5350e-01    2.5363e+05 ;   C114 - C113  
 12001  12002   1    1.0920e-01    2.8225e+05 ;   C113 - H13R  
 12001  12003   1    1.0920e-01    2.8225e+05 ;   C113 - H13S  
 12001  12004   1    1.5350e-01    2.5363e+05 ;   C113 - C112  
 12004  12005   1    1.0920e-01    2.8225e+05 ;   C112 - H12R  
 12004  12006   1    1.0920e-01    2.8225e+05 ;   C112 - H12S  
 12004  12007   1    1.5350e-01    2.5363e+05 ;   C112 - C111  
 12007  12008   1    1.0920e-01    2.8225e+05 ;   C111 - H11R  
 12007  12009   1    1.0920e-01    2.8225e+05 ;   C111 - H11S  
 12007  12010   1    1.5350e-01    2.5363e+05 ;   C111 - C110  
 12010  12011   1    1.0920e-01    2.8225e+05 ;   C110 - H10R  
 12010  12012   1    1.0920e-01    2.8225e+05 ;   C110 - H10S  
 12010  12013   1    1.5350e-01    2.5363e+05 ;   C110 - C19   
 12013  12014   1    1.0920e-01    2.8225e+05 ;    C19 - H9R   
 12013  12015   1    1.0920e-01    2.8225e+05 ;    C19 - H9S   
 12013  12016   1    1.5350e-01    2.5363e+05 ;    C19 - C18   
 12016  12017   1    1.0920e-01    2.8225e+05 ;    C18 - H8R   
 12016  12018   1    1.0920e-01    2.8225e+05 ;    C18 - H8S   
 12016  12019   1    1.5350e-01    2.5363e+05 ;    C18 - C17   
 12019  12020   1    1.0920e-01    2.8225e+05 ;    C17 - H7R   
 12019  12021   1    1.0920e-01    2.8225e+05 ;    C17 - H7S   
 12019  12022   1    1.5350e-01    2.5363e+05 ;    C17 - C16   
 12022  12023   1    1.0920e-01    2.8225e+05 ;    C16 - H6R   
 12022  12024   1    1.0920e-01    2.8225e+05 ;    C16 - H6S   
 12022  12025   1    1.5350e-01    2.5363e+05 ;    C16 - C15   
 12025  12026   1    1.0920e-01    2.8225e+05 ;    C15 - H5R   
 12025  12027   1    1.0920e-01    2.8225e+05 ;    C15 - H5S   
 12025  12028   1    1.5350e-01    2.5363e+05 ;    C15 - C14   
 12028  12029   1    1.0920e-01    2.8225e+05 ;    C14 - H4R   
 12028  12030   1    1.0920e-01    2.8225e+05 ;    C14 - H4S   
 12028  12031   1    1.5350e-01    2.5363e+05 ;    C14 - C13   
 12031  12032   1    1.0920e-01    2.8225e+05 ;    C13 - H3R   
 12031  12033   1    1.0920e-01    2.8225e+05 ;    C13 - H3S   
 12031  12034   1    1.5350e-01    2.5363e+05 ;    C13 - C12   
 12034  12035   1    1.0920e-01    2.8225e+05 ;    C12 - H2R   
 12034  12036   1    1.0920e-01    2.8225e+05 ;    C12 - H2S   
 12037  12038   1    1.0920e-01    2.8225e+05 ;   H14T - C114  
 12038  12039   1    1.0920e-01    2.8225e+05 ;   C114 - H14R  
 12038  12040   1    1.0920e-01    2.8225e+05 ;   C114 - H14S  
 12038  12041   1    1.5350e-01    2.5363e+05 ;   C114 - C113  
 12041  12042   1    1.0920e-01    2.8225e+05 ;   C113 - H13R  
 12041  12043   1    1.0920e-01    2.8225e+05 ;   C113 - H13S  
 12041  12044   1    1.5350e-01    2.5363e+05 ;   C113 - C112  
 12044  12045   1    1.0920e-01    2.8225e+05 ;   C112 - H12R  
 12044  12046   1    1.0920e-01    2.8225e+05 ;   C112 - H12S  
 12044  12047   1    1.5350e-01    2.5363e+05 ;   C112 - C111  
 12047  12048   1    1.0920e-01    2.8225e+05 ;   C111 - H11R  
 12047  12049   1    1.0920e-01    2.8225e+05 ;   C111 - H11S  
 12047  12050   1    1.5350e-01    2.5363e+05 ;   C111 - C110  
 12050  12051   1    1.0920e-01    2.8225e+05 ;   C110 - H10R  
 12050  12052   1    1.0920e-01    2.8225e+05 ;   C110 - H10S  
 12050  12053   1    1.5350e-01    2.5363e+05 ;   C110 - C19   
 12053  12054   1    1.0920e-01    2.8225e+05 ;    C19 - H9R   
 12053  12055   1    1.0920e-01    2.8225e+05 ;    C19 - H9S   
 12053  12056   1    1.5350e-01    2.5363e+05 ;    C19 - C18   
 12056  12057   1    1.0920e-01    2.8225e+05 ;    C18 - H8R   
 12056  12058   1    1.0920e-01    2.8225e+05 ;    C18 - H8S   
 12056  12059   1    1.5350e-01    2.5363e+05 ;    C18 - C17   
 12059  12060   1    1.0920e-01    2.8225e+05 ;    C17 - H7R   
 12059  12061   1    1.0920e-01    2.8225e+05 ;    C17 - H7S   
 12059  12062   1    1.5350e-01    2.5363e+05 ;    C17 - C16   
 12062  12063   1    1.0920e-01    2.8225e+05 ;    C16 - H6R   
 12062  12064   1    1.0920e-01    2.8225e+05 ;    C16 - H6S   
 12062  12065   1    1.5350e-01    2.5363e+05 ;    C16 - C15   
 12065  12066   1    1.0920e-01    2.8225e+05 ;    C15 - H5R   
 12065  12067   1    1.0920e-01    2.8225e+05 ;    C15 - H5S   
 12065  12068   1    1.5350e-01    2.5363e+05 ;    C15 - C14   
 12068  12069   1    1.0920e-01    2.8225e+05 ;    C14 - H4R   
 12068  12070   1    1.0920e-01    2.8225e+05 ;    C14 - H4S   
 12068  12071   1    1.5350e-01    2.5363e+05 ;    C14 - C13   
 12071  12072   1    1.0920e-01    2.8225e+05 ;    C13 - H3R   
 12071  12073   1    1.0920e-01    2.8225e+05 ;    C13 - H3S   
 12071  12074   1    1.5350e-01    2.5363e+05 ;    C13 - C12   
 12074  12075   1    1.0920e-01    2.8225e+05 ;    C12 - H2R   
 12074  12076   1    1.0920e-01    2.8225e+05 ;    C12 - H2S   
 12074  12077   1    1.5080e-01    2.7472e+05 ;    C12 - C11   
 12077  12078   1    1.2140e-01    5.4225e+05 ;    C11 - O12   
 12077  12079   1    1.3430e-01    3.4418e+05 ;    C11 - O11   
 12079  12080   1    1.4390e-01    2.5230e+05 ;    O11 - C1    
 12080  12081   1    1.0930e-01    2.8108e+05 ;     C1 - HR    
 12080  12082   1    1.0930e-01    2.8108e+05 ;     C1 - HS    
 12080  12083   1    1.5350e-01    2.5363e+05 ;     C1 - C2    
 12083  12084   1    1.0930e-01    2.8108e+05 ;     C2 - HX    
 12083  12085   1    1.5350e-01    2.5363e+05 ;     C2 - C3    
 12083  12112   1    1.4390e-01    2.5230e+05 ;     C2 - O21   
 12085  12086   1    1.0930e-01    2.8108e+05 ;     C3 - HA    
 12085  12087   1    1.0930e-01    2.8108e+05 ;     C3 - HB    
 12085  12088   1    1.4390e-01    2.5230e+05 ;     C3 - O31   
 12088  12089   1    1.6100e-01    1.9246e+05 ;    O31 - P31   
 12089  12090   1    1.6100e-01    1.9246e+05 ;    P31 - O32   
 12089  12110   1    1.4800e-01    4.3932e+05 ;    P31 - O33   
 12089  12111   1    1.4800e-01    4.3932e+05 ;    P31 - O34   
 12090  12091   1    1.4390e-01    2.5230e+05 ;    O32 - C31   
 12091  12092   1    1.0930e-01    2.8108e+05 ;    C31 - H1A   
 12091  12093   1    1.0930e-01    2.8108e+05 ;    C31 - H1B   
 12091  12094   1    1.5350e-01    2.5363e+05 ;    C31 - C32   
 12094  12095   1    1.0910e-01    2.8342e+05 ;    C32 - H2A   
 12094  12096   1    1.0910e-01    2.8342e+05 ;    C32 - H2B   
 12094  12097   1    1.4990e-01    2.4568e+05 ;    C32 - N31   
 12097  12098   1    1.4990e-01    2.4568e+05 ;    N31 - C33   
 12097  12102   1    1.4990e-01    2.4568e+05 ;    N31 - C34   
 12097  12106   1    1.4990e-01    2.4568e+05 ;    N31 - C35   
 12098  12099   1    1.0910e-01    2.8342e+05 ;    C33 - H3A   
 12098  12100   1    1.0910e-01    2.8342e+05 ;    C33 - H3B   
 12098  12101   1    1.0910e-01    2.8342e+05 ;    C33 - H3C   
 12102  12103   1    1.0910e-01    2.8342e+05 ;    C34 - H4A   
 12102  12104   1    1.0910e-01    2.8342e+05 ;    C34 - H4B   
 12102  12105   1    1.0910e-01    2.8342e+05 ;    C34 - H4C   
 12106  12107   1    1.0910e-01    2.8342e+05 ;    C35 - H5A   
 12106  12108   1    1.0910e-01    2.8342e+05 ;    C35 - H5B   
 12106  12109   1    1.0910e-01    2.8342e+05 ;    C35 - H5C   
 12112  12113   1    1.3430e-01    3.4418e+05 ;    O21 - C21   
 12113  12114   1    1.2140e-01    5.4225e+05 ;    C21 - O22   
 12113  12152   1    1.5080e-01    2.7472e+05 ;    C21 - C12   
 12115  12116   1    1.0920e-01    2.8225e+05 ;   H14T - C114  
 12116  12117   1    1.0920e-01    2.8225e+05 ;   C114 - H14R  
 12116  12118   1    1.0920e-01    2.8225e+05 ;   C114 - H14S  
 12116  12119   1    1.5350e-01    2.5363e+05 ;   C114 - C113  
 12119  12120   1    1.0920e-01    2.8225e+05 ;   C113 - H13R  
 12119  12121   1    1.0920e-01    2.8225e+05 ;   C113 - H13S  
 12119  12122   1    1.5350e-01    2.5363e+05 ;   C113 - C112  
 12122  12123   1    1.0920e-01    2.8225e+05 ;   C112 - H12R  
 12122  12124   1    1.0920e-01    2.8225e+05 ;   C112 - H12S  
 12122  12125   1    1.5350e-01    2.5363e+05 ;   C112 - C111  
 12125  12126   1    1.0920e-01    2.8225e+05 ;   C111 - H11R  
 12125  12127   1    1.0920e-01    2.8225e+05 ;   C111 - H11S  
 12125  12128   1    1.5350e-01    2.5363e+05 ;   C111 - C110  
 12128  12129   1    1.0920e-01    2.8225e+05 ;   C110 - H10R  
 12128  12130   1    1.0920e-01    2.8225e+05 ;   C110 - H10S  
 12128  12131   1    1.5350e-01    2.5363e+05 ;   C110 - C19   
 12131  12132   1    1.0920e-01    2.8225e+05 ;    C19 - H9R   
 12131  12133   1    1.0920e-01    2.8225e+05 ;    C19 - H9S   
 12131  12134   1    1.5350e-01    2.5363e+05 ;    C19 - C18   
 12134  12135   1    1.0920e-01    2.8225e+05 ;    C18 - H8R   
 12134  12136   1    1.0920e-01    2.8225e+05 ;    C18 - H8S   
 12134  12137   1    1.5350e-01    2.5363e+05 ;    C18 - C17   
 12137  12138   1    1.0920e-01    2.8225e+05 ;    C17 - H7R   
 12137  12139   1    1.0920e-01    2.8225e+05 ;    C17 - H7S   
 12137  12140   1    1.5350e-01    2.5363e+05 ;    C17 - C16   
 12140  12141   1    1.0920e-01    2.8225e+05 ;    C16 - H6R   
 12140  12142   1    1.0920e-01    2.8225e+05 ;    C16 - H6S   
 12140  12143   1    1.5350e-01    2.5363e+05 ;    C16 - C15   
 12143  12144   1    1.0920e-01    2.8225e+05 ;    C15 - H5R   
 12143  12145   1    1.0920e-01    2.8225e+05 ;    C15 - H5S   
 12143  12146   1    1.5350e-01    2.5363e+05 ;    C15 - C14   
 12146  12147   1    1.0920e-01    2.8225e+05 ;    C14 - H4R   
 12146  12148   1    1.0920e-01    2.8225e+05 ;    C14 - H4S   
 12146  12149   1    1.5350e-01    2.5363e+05 ;    C14 - C13   
 12149  12150   1    1.0920e-01    2.8225e+05 ;    C13 - H3R   
 12149  12151   1    1.0920e-01    2.8225e+05 ;    C13 - H3S   
 12149  12152   1    1.5350e-01    2.5363e+05 ;    C13 - C12   
 12152  12153   1    1.0920e-01    2.8225e+05 ;    C12 - H2R   
 12152  12154   1    1.0920e-01    2.8225e+05 ;    C12 - H2S   
 12155  12156   1    1.0920e-01    2.8225e+05 ;   H14T - C114  
 12156  12157   1    1.0920e-01    2.8225e+05 ;   C114 - H14R  
 12156  12158   1    1.0920e-01    2.8225e+05 ;   C114 - H14S  
 12156  12159   1    1.5350e-01    2.5363e+05 ;   C114 - C113  
 12159  12160   1    1.0920e-01    2.8225e+05 ;   C113 - H13R  
 12159  12161   1    1.0920e-01    2.8225e+05 ;   C113 - H13S  
 12159  12162   1    1.5350e-01    2.5363e+05 ;   C113 - C112  
 12162  12163   1    1.0920e-01    2.8225e+05 ;   C112 - H12R  
 12162  12164   1    1.0920e-01    2.8225e+05 ;   C112 - H12S  
 12162  12165   1    1.5350e-01    2.5363e+05 ;   C112 - C111  
 12165  12166   1    1.0920e-01    2.8225e+05 ;   C111 - H11R  
 12165  12167   1    1.0920e-01    2.8225e+05 ;   C111 - H11S  
 12165  12168   1    1.5350e-01    2.5363e+05 ;   C111 - C110  
 12168  12169   1    1.0920e-01    2.8225e+05 ;   C110 - H10R  
 12168  12170   1    1.0920e-01    2.8225e+05 ;   C110 - H10S  
 12168  12171   1    1.5350e-01    2.5363e+05 ;   C110 - C19   
 12171  12172   1    1.0920e-01    2.8225e+05 ;    C19 - H9R   
 12171  12173   1    1.0920e-01    2.8225e+05 ;    C19 - H9S   
 12171  12174   1    1.5350e-01    2.5363e+05 ;    C19 - C18   
 12174  12175   1    1.0920e-01    2.8225e+05 ;    C18 - H8R   
 12174  12176   1    1.0920e-01    2.8225e+05 ;    C18 - H8S   
 12174  12177   1    1.5350e-01    2.5363e+05 ;    C18 - C17   
 12177  12178   1    1.0920e-01    2.8225e+05 ;    C17 - H7R   
 12177  12179   1    1.0920e-01    2.8225e+05 ;    C17 - H7S   
 12177  12180   1    1.5350e-01    2.5363e+05 ;    C17 - C16   
 12180  12181   1    1.0920e-01    2.8225e+05 ;    C16 - H6R   
 12180  12182   1    1.0920e-01    2.8225e+05 ;    C16 - H6S   
 12180  12183   1    1.5350e-01    2.5363e+05 ;    C16 - C15   
 12183  12184   1    1.0920e-01    2.8225e+05 ;    C15 - H5R   
 12183  12185   1    1.0920e-01    2.8225e+05 ;    C15 - H5S   
 12183  12186   1    1.5350e-01    2.5363e+05 ;    C15 - C14   
 12186  12187   1    1.0920e-01    2.8225e+05 ;    C14 - H4R   
 12186  12188   1    1.0920e-01    2.8225e+05 ;    C14 - H4S   
 12186  12189   1    1.5350e-01    2.5363e+05 ;    C14 - C13   
 12189  12190   1    1.0920e-01    2.8225e+05 ;    C13 - H3R   
 12189  12191   1    1.0920e-01    2.8225e+05 ;    C13 - H3S   
 12189  12192   1    1.5350e-01    2.5363e+05 ;    C13 - C12   
 12192  12193   1    1.0920e-01    2.8225e+05 ;    C12 - H2R   
 12192  12194   1    1.0920e-01    2.8225e+05 ;    C12 - H2S   
 12192  12195   1    1.5080e-01    2.7472e+05 ;    C12 - C11   
 12195  12196   1    1.2140e-01    5.4225e+05 ;    C11 - O12   
 12195  12197   1    1.3430e-01    3.4418e+05 ;    C11 - O11   
 12197  12198   1    1.4390e-01    2.5230e+05 ;    O11 - C1    
 12198  12199   1    1.0930e-01    2.8108e+05 ;     C1 - HR    
 12198  12200   1    1.0930e-01    2.8108e+05 ;     C1 - HS    
 12198  12201   1    1.5350e-01    2.5363e+05 ;     C1 - C2    
 12201  12202   1    1.0930e-01    2.8108e+05 ;     C2 - HX    
 12201  12203   1    1.5350e-01    2.5363e+05 ;     C2 - C3    
 12201  12230   1    1.4390e-01    2.5230e+05 ;     C2 - O21   
 12203  12204   1    1.0930e-01    2.8108e+05 ;     C3 - HA    
 12203  12205   1    1.0930e-01    2.8108e+05 ;     C3 - HB    
 12203  12206   1    1.4390e-01    2.5230e+05 ;     C3 - O31   
 12206  12207   1    1.6100e-01    1.9246e+05 ;    O31 - P31   
 12207  12208   1    1.6100e-01    1.9246e+05 ;    P31 - O32   
 12207  12228   1    1.4800e-01    4.3932e+05 ;    P31 - O33   
 12207  12229   1    1.4800e-01    4.3932e+05 ;    P31 - O34   
 12208  12209   1    1.4390e-01    2.5230e+05 ;    O32 - C31   
 12209  12210   1    1.0930e-01    2.8108e+05 ;    C31 - H1A   
 12209  12211   1    1.0930e-01    2.8108e+05 ;    C31 - H1B   
 12209  12212   1    1.5350e-01    2.5363e+05 ;    C31 - C32   
 12212  12213   1    1.0910e-01    2.8342e+05 ;    C32 - H2A   
 12212  12214   1    1.0910e-01    2.8342e+05 ;    C32 - H2B   
 12212  12215   1    1.4990e-01    2.4568e+05 ;    C32 - N31   
 12215  12216   1    1.4990e-01    2.4568e+05 ;    N31 - C33   
 12215  12220   1    1.4990e-01    2.4568e+05 ;    N31 - C34   
 12215  12224   1    1.4990e-01    2.4568e+05 ;    N31 - C35   
 12216  12217   1    1.0910e-01    2.8342e+05 ;    C33 - H3A   
 12216  12218   1    1.0910e-01    2.8342e+05 ;    C33 - H3B   
 12216  12219   1    1.0910e-01    2.8342e+05 ;    C33 - H3C   
 12220  12221   1    1.0910e-01    2.8342e+05 ;    C34 - H4A   
 12220  12222   1    1.0910e-01    2.8342e+05 ;    C34 - H4B   
 12220  12223   1    1.0910e-01    2.8342e+05 ;    C34 - H4C   
 12224  12225   1    1.0910e-01    2.8342e+05 ;    C35 - H5A   
 12224  12226   1    1.0910e-01    2.8342e+05 ;    C35 - H5B   
 12224  12227   1    1.0910e-01    2.8342e+05 ;    C35 - H5C   
 12230  12231   1    1.3430e-01    3.4418e+05 ;    O21 - C21   
 12231  12232   1    1.2140e-01    5.4225e+05 ;    C21 - O22   
 12231  12270   1    1.5080e-01    2.7472e+05 ;    C21 - C12   
 12233  12234   1    1.0920e-01    2.8225e+05 ;   H14T - C114  
 12234  12235   1    1.0920e-01    2.8225e+05 ;   C114 - H14R  
 12234  12236   1    1.0920e-01    2.8225e+05 ;   C114 - H14S  
 12234  12237   1    1.5350e-01    2.5363e+05 ;   C114 - C113  
 12237  12238   1    1.0920e-01    2.8225e+05 ;   C113 - H13R  
 12237  12239   1    1.0920e-01    2.8225e+05 ;   C113 - H13S  
 12237  12240   1    1.5350e-01    2.5363e+05 ;   C113 - C112  
 12240  12241   1    1.0920e-01    2.8225e+05 ;   C112 - H12R  
 12240  12242   1    1.0920e-01    2.8225e+05 ;   C112 - H12S  
 12240  12243   1    1.5350e-01    2.5363e+05 ;   C112 - C111  
 12243  12244   1    1.0920e-01    2.8225e+05 ;   C111 - H11R  
 12243  12245   1    1.0920e-01    2.8225e+05 ;   C111 - H11S  
 12243  12246   1    1.5350e-01    2.5363e+05 ;   C111 - C110  
 12246  12247   1    1.0920e-01    2.8225e+05 ;   C110 - H10R  
 12246  12248   1    1.0920e-01    2.8225e+05 ;   C110 - H10S  
 12246  12249   1    1.5350e-01    2.5363e+05 ;   C110 - C19   
 12249  12250   1    1.0920e-01    2.8225e+05 ;    C19 - H9R   
 12249  12251   1    1.0920e-01    2.8225e+05 ;    C19 - H9S   
 12249  12252   1    1.5350e-01    2.5363e+05 ;    C19 - C18   
 12252  12253   1    1.0920e-01    2.8225e+05 ;    C18 - H8R   
 12252  12254   1    1.0920e-01    2.8225e+05 ;    C18 - H8S   
 12252  12255   1    1.5350e-01    2.5363e+05 ;    C18 - C17   
 12255  12256   1    1.0920e-01    2.8225e+05 ;    C17 - H7R   
 12255  12257   1    1.0920e-01    2.8225e+05 ;    C17 - H7S   
 12255  12258   1    1.5350e-01    2.5363e+05 ;    C17 - C16   
 12258  12259   1    1.0920e-01    2.8225e+05 ;    C16 - H6R   
 12258  12260   1    1.0920e-01    2.8225e+05 ;    C16 - H6S   
 12258  12261   1    1.5350e-01    2.5363e+05 ;    C16 - C15   
 12261  12262   1    1.0920e-01    2.8225e+05 ;    C15 - H5R   
 12261  12263   1    1.0920e-01    2.8225e+05 ;    C15 - H5S   
 12261  12264   1    1.5350e-01    2.5363e+05 ;    C15 - C14   
 12264  12265   1    1.0920e-01    2.8225e+05 ;    C14 - H4R   
 12264  12266   1    1.0920e-01    2.8225e+05 ;    C14 - H4S   
 12264  12267   1    1.5350e-01    2.5363e+05 ;    C14 - C13   
 12267  12268   1    1.0920e-01    2.8225e+05 ;    C13 - H3R   
 12267  12269   1    1.0920e-01    2.8225e+05 ;    C13 - H3S   
 12267  12270   1    1.5350e-01    2.5363e+05 ;    C13 - C12   
 12270  12271   1    1.0920e-01    2.8225e+05 ;    C12 - H2R   
 12270  12272   1    1.0920e-01    2.8225e+05 ;    C12 - H2S   
 12273  12274   1    1.0920e-01    2.8225e+05 ;   H14T - C114  
 12274  12275   1    1.0920e-01    2.8225e+05 ;   C114 - H14R  
 12274  12276   1    1.0920e-01    2.8225e+05 ;   C114 - H14S  
 12274  12277   1    1.5350e-01    2.5363e+05 ;   C114 - C113  
 12277  12278   1    1.0920e-01    2.8225e+05 ;   C113 - H13R  
 12277  12279   1    1.0920e-01    2.8225e+05 ;   C113 - H13S  
 12277  12280   1    1.5350e-01    2.5363e+05 ;   C113 - C112  
 12280  12281   1    1.0920e-01    2.8225e+05 ;   C112 - H12R  
 12280  12282   1    1.0920e-01    2.8225e+05 ;   C112 - H12S  
 12280  12283   1    1.5350e-01    2.5363e+05 ;   C112 - C111  
 12283  12284   1    1.0920e-01    2.8225e+05 ;   C111 - H11R  
 12283  12285   1    1.0920e-01    2.8225e+05 ;   C111 - H11S  
 12283  12286   1    1.5350e-01    2.5363e+05 ;   C111 - C110  
 12286  12287   1    1.0920e-01    2.8225e+05 ;   C110 - H10R  
 12286  12288   1    1.0920e-01    2.8225e+05 ;   C110 - H10S  
 12286  12289   1    1.5350e-01    2.5363e+05 ;   C110 - C19   
 12289  12290   1    1.0920e-01    2.8225e+05 ;    C19 - H9R   
 12289  12291   1    1.0920e-01    2.8225e+05 ;    C19 - H9S   
 12289  12292   1    1.5350e-01    2.5363e+05 ;    C19 - C18   
 12292  12293   1    1.0920e-01    2.8225e+05 ;    C18 - H8R   
 12292  12294   1    1.0920e-01    2.8225e+05 ;    C18 - H8S   
 12292  12295   1    1.5350e-01    2.5363e+05 ;    C18 - C17   
 12295  12296   1    1.0920e-01    2.8225e+05 ;    C17 - H7R   
 12295  12297   1    1.0920e-01    2.8225e+05 ;    C17 - H7S   
 12295  12298   1    1.5350e-01    2.5363e+05 ;    C17 - C16   
 12298  12299   1    1.0920e-01    2.8225e+05 ;    C16 - H6R   
 12298  12300   1    1.0920e-01    2.8225e+05 ;    C16 - H6S   
 12298  12301   1    1.5350e-01    2.5363e+05 ;    C16 - C15   
 12301  12302   1    1.0920e-01    2.8225e+05 ;    C15 - H5R   
 12301  12303   1    1.0920e-01    2.8225e+05 ;    C15 - H5S   
 12301  12304   1    1.5350e-01    2.5363e+05 ;    C15 - C14   
 12304  12305   1    1.0920e-01    2.8225e+05 ;    C14 - H4R   
 12304  12306   1    1.0920e-01    2.8225e+05 ;    C14 - H4S   
 12304  12307   1    1.5350e-01    2.5363e+05 ;    C14 - C13   
 12307  12308   1    1.0920e-01    2.8225e+05 ;    C13 - H3R   
 12307  12309   1    1.0920e-01    2.8225e+05 ;    C13 - H3S   
 12307  12310   1    1.5350e-01    2.5363e+05 ;    C13 - C12   
 12310  12311   1    1.0920e-01    2.8225e+05 ;    C12 - H2R   
 12310  12312   1    1.0920e-01    2.8225e+05 ;    C12 - H2S   
 12310  12313   1    1.5080e-01    2.7472e+05 ;    C12 - C11   
 12313  12314   1    1.2140e-01    5.4225e+05 ;    C11 - O12   
 12313  12315   1    1.3430e-01    3.4418e+05 ;    C11 - O11   
 12315  12316   1    1.4390e-01    2.5230e+05 ;    O11 - C1    
 12316  12317   1    1.0930e-01    2.8108e+05 ;     C1 - HR    
 12316  12318   1    1.0930e-01    2.8108e+05 ;     C1 - HS    
 12316  12319   1    1.5350e-01    2.5363e+05 ;     C1 - C2    
 12319  12320   1    1.0930e-01    2.8108e+05 ;     C2 - HX    
 12319  12321   1    1.5350e-01    2.5363e+05 ;     C2 - C3    
 12319  12348   1    1.4390e-01    2.5230e+05 ;     C2 - O21   
 12321  12322   1    1.0930e-01    2.8108e+05 ;     C3 - HA    
 12321  12323   1    1.0930e-01    2.8108e+05 ;     C3 - HB    
 12321  12324   1    1.4390e-01    2.5230e+05 ;     C3 - O31   
 12324  12325   1    1.6100e-01    1.9246e+05 ;    O31 - P31   
 12325  12326   1    1.6100e-01    1.9246e+05 ;    P31 - O32   
 12325  12346   1    1.4800e-01    4.3932e+05 ;    P31 - O33   
 12325  12347   1    1.4800e-01    4.3932e+05 ;    P31 - O34   
 12326  12327   1    1.4390e-01    2.5230e+05 ;    O32 - C31   
 12327  12328   1    1.0930e-01    2.8108e+05 ;    C31 - H1A   
 12327  12329   1    1.0930e-01    2.8108e+05 ;    C31 - H1B   
 12327  12330   1    1.5350e-01    2.5363e+05 ;    C31 - C32   
 12330  12331   1    1.0910e-01    2.8342e+05 ;    C32 - H2A   
 12330  12332   1    1.0910e-01    2.8342e+05 ;    C32 - H2B   
 12330  12333   1    1.4990e-01    2.4568e+05 ;    C32 - N31   
 12333  12334   1    1.4990e-01    2.4568e+05 ;    N31 - C33   
 12333  12338   1    1.4990e-01    2.4568e+05 ;    N31 - C34   
 12333  12342   1    1.4990e-01    2.4568e+05 ;    N31 - C35   
 12334  12335   1    1.0910e-01    2.8342e+05 ;    C33 - H3A   
 12334  12336   1    1.0910e-01    2.8342e+05 ;    C33 - H3B   
 12334  12337   1    1.0910e-01    2.8342e+05 ;    C33 - H3C   
 12338  12339   1    1.0910e-01    2.8342e+05 ;    C34 - H4A   
 12338  12340   1    1.0910e-01    2.8342e+05 ;    C34 - H4B   
 12338  12341   1    1.0910e-01    2.8342e+05 ;    C34 - H4C   
 12342  12343   1    1.0910e-01    2.8342e+05 ;    C35 - H5A   
 12342  12344   1    1.0910e-01    2.8342e+05 ;    C35 - H5B   
 12342  12345   1    1.0910e-01    2.8342e+05 ;    C35 - H5C   
 12348  12349   1    1.3430e-01    3.4418e+05 ;    O21 - C21   
 12349  12350   1    1.2140e-01    5.4225e+05 ;    C21 - O22   
 12349  12388   1    1.5080e-01    2.7472e+05 ;    C21 - C12   
 12351  12352   1    1.0920e-01    2.8225e+05 ;   H14T - C114  
 12352  12353   1    1.0920e-01    2.8225e+05 ;   C114 - H14R  
 12352  12354   1    1.0920e-01    2.8225e+05 ;   C114 - H14S  
 12352  12355   1    1.5350e-01    2.5363e+05 ;   C114 - C113  
 12355  12356   1    1.0920e-01    2.8225e+05 ;   C113 - H13R  
 12355  12357   1    1.0920e-01    2.8225e+05 ;   C113 - H13S  
 12355  12358   1    1.5350e-01    2.5363e+05 ;   C113 - C112  
 12358  12359   1    1.0920e-01    2.8225e+05 ;   C112 - H12R  
 12358  12360   1    1.0920e-01    2.8225e+05 ;   C112 - H12S  
 12358  12361   1    1.5350e-01    2.5363e+05 ;   C112 - C111  
 12361  12362   1    1.0920e-01    2.8225e+05 ;   C111 - H11R  
 12361  12363   1    1.0920e-01    2.8225e+05 ;   C111 - H11S  
 12361  12364   1    1.5350e-01    2.5363e+05 ;   C111 - C110  
 12364  12365   1    1.0920e-01    2.8225e+05 ;   C110 - H10R  
 12364  12366   1    1.0920e-01    2.8225e+05 ;   C110 - H10S  
 12364  12367   1    1.5350e-01    2.5363e+05 ;   C110 - C19   
 12367  12368   1    1.0920e-01    2.8225e+05 ;    C19 - H9R   
 12367  12369   1    1.0920e-01    2.8225e+05 ;    C19 - H9S   
 12367  12370   1    1.5350e-01    2.5363e+05 ;    C19 - C18   
 12370  12371   1    1.0920e-01    2.8225e+05 ;    C18 - H8R   
 12370  12372   1    1.0920e-01    2.8225e+05 ;    C18 - H8S   
 12370  12373   1    1.5350e-01    2.5363e+05 ;    C18 - C17   
 12373  12374   1    1.0920e-01    2.8225e+05 ;    C17 - H7R   
 12373  12375   1    1.0920e-01    2.8225e+05 ;    C17 - H7S   
 12373  12376   1    1.5350e-01    2.5363e+05 ;    C17 - C16   
 12376  12377   1    1.0920e-01    2.8225e+05 ;    C16 - H6R   
 12376  12378   1    1.0920e-01    2.8225e+05 ;    C16 - H6S   
 12376  12379   1    1.5350e-01    2.5363e+05 ;    C16 - C15   
 12379  12380   1    1.0920e-01    2.8225e+05 ;    C15 - H5R   
 12379  12381   1    1.0920e-01    2.8225e+05 ;    C15 - H5S   
 12379  12382   1    1.5350e-01    2.5363e+05 ;    C15 - C14   
 12382  12383   1    1.0920e-01    2.8225e+05 ;    C14 - H4R   
 12382  12384   1    1.0920e-01    2.8225e+05 ;    C14 - H4S   
 12382  12385   1    1.5350e-01    2.5363e+05 ;    C14 - C13   
 12385  12386   1    1.0920e-01    2.8225e+05 ;    C13 - H3R   
 12385  12387   1    1.0920e-01    2.8225e+05 ;    C13 - H3S   
 12385  12388   1    1.5350e-01    2.5363e+05 ;    C13 - C12   
 12388  12389   1    1.0920e-01    2.8225e+05 ;    C12 - H2R   
 12388  12390   1    1.0920e-01    2.8225e+05 ;    C12 - H2S   
 12391  12392   1    1.0920e-01    2.8225e+05 ;   H14T - C114  
 12392  12393   1    1.0920e-01    2.8225e+05 ;   C114 - H14R  
 12392  12394   1    1.0920e-01    2.8225e+05 ;   C114 - H14S  
 12392  12395   1    1.5350e-01    2.5363e+05 ;   C114 - C113  
 12395  12396   1    1.0920e-01    2.8225e+05 ;   C113 - H13R  
 12395  12397   1    1.0920e-01    2.8225e+05 ;   C113 - H13S  
 12395  12398   1    1.5350e-01    2.5363e+05 ;   C113 - C112  
 12398  12399   1    1.0920e-01    2.8225e+05 ;   C112 - H12R  
 12398  12400   1    1.0920e-01    2.8225e+05 ;   C112 - H12S  
 12398  12401   1    1.5350e-01    2.5363e+05 ;   C112 - C111  
 12401  12402   1    1.0920e-01    2.8225e+05 ;   C111 - H11R  
 12401  12403   1    1.0920e-01    2.8225e+05 ;   C111 - H11S  
 12401  12404   1    1.5350e-01    2.5363e+05 ;   C111 - C110  
 12404  12405   1    1.0920e-01    2.8225e+05 ;   C110 - H10R  
 12404  12406   1    1.0920e-01    2.8225e+05 ;   C110 - H10S  
 12404  12407   1    1.5350e-01    2.5363e+05 ;   C110 - C19   
 12407  12408   1    1.0920e-01    2.8225e+05 ;    C19 - H9R   
 12407  12409   1    1.0920e-01    2.8225e+05 ;    C19 - H9S   
 12407  12410   1    1.5350e-01    2.5363e+05 ;    C19 - C18   
 12410  12411   1    1.0920e-01    2.8225e+05 ;    C18 - H8R   
 12410  12412   1    1.0920e-01    2.8225e+05 ;    C18 - H8S   
 12410  12413   1    1.5350e-01    2.5363e+05 ;    C18 - C17   
 12413  12414   1    1.0920e-01    2.8225e+05 ;    C17 - H7R   
 12413  12415   1    1.0920e-01    2.8225e+05 ;    C17 - H7S   
 12413  12416   1    1.5350e-01    2.5363e+05 ;    C17 - C16   
 12416  12417   1    1.0920e-01    2.8225e+05 ;    C16 - H6R   
 12416  12418   1    1.0920e-01    2.8225e+05 ;    C16 - H6S   
 12416  12419   1    1.5350e-01    2.5363e+05 ;    C16 - C15   
 12419  12420   1    1.0920e-01    2.8225e+05 ;    C15 - H5R   
 12419  12421   1    1.0920e-01    2.8225e+05 ;    C15 - H5S   
 12419  12422   1    1.5350e-01    2.5363e+05 ;    C15 - C14   
 12422  12423   1    1.0920e-01    2.8225e+05 ;    C14 - H4R   
 12422  12424   1    1.0920e-01    2.8225e+05 ;    C14 - H4S   
 12422  12425   1    1.5350e-01    2.5363e+05 ;    C14 - C13   
 12425  12426   1    1.0920e-01    2.8225e+05 ;    C13 - H3R   
 12425  12427   1    1.0920e-01    2.8225e+05 ;    C13 - H3S   
 12425  12428   1    1.5350e-01    2.5363e+05 ;    C13 - C12   
 12428  12429   1    1.0920e-01    2.8225e+05 ;    C12 - H2R   
 12428  12430   1    1.0920e-01    2.8225e+05 ;    C12 - H2S   
 12428  12431   1    1.5080e-01    2.7472e+05 ;    C12 - C11   
 12431  12432   1    1.2140e-01    5.4225e+05 ;    C11 - O12   
 12431  12433   1    1.3430e-01    3.4418e+05 ;    C11 - O11   
 12433  12434   1    1.4390e-01    2.5230e+05 ;    O11 - C1    
 12434  12435   1    1.0930e-01    2.8108e+05 ;     C1 - HR    
 12434  12436   1    1.0930e-01    2.8108e+05 ;     C1 - HS    
 12434  12437   1    1.5350e-01    2.5363e+05 ;     C1 - C2    
 12437  12438   1    1.0930e-01    2.8108e+05 ;     C2 - HX    
 12437  12439   1    1.5350e-01    2.5363e+05 ;     C2 - C3    
 12437  12466   1    1.4390e-01    2.5230e+05 ;     C2 - O21   
 12439  12440   1    1.0930e-01    2.8108e+05 ;     C3 - HA    
 12439  12441   1    1.0930e-01    2.8108e+05 ;     C3 - HB    
 12439  12442   1    1.4390e-01    2.5230e+05 ;     C3 - O31   
 12442  12443   1    1.6100e-01    1.9246e+05 ;    O31 - P31   
 12443  12444   1    1.6100e-01    1.9246e+05 ;    P31 - O32   
 12443  12464   1    1.4800e-01    4.3932e+05 ;    P31 - O33   
 12443  12465   1    1.4800e-01    4.3932e+05 ;    P31 - O34   
 12444  12445   1    1.4390e-01    2.5230e+05 ;    O32 - C31   
 12445  12446   1    1.0930e-01    2.8108e+05 ;    C31 - H1A   
 12445  12447   1    1.0930e-01    2.8108e+05 ;    C31 - H1B   
 12445  12448   1    1.5350e-01    2.5363e+05 ;    C31 - C32   
 12448  12449   1    1.0910e-01    2.8342e+05 ;    C32 - H2A   
 12448  12450   1    1.0910e-01    2.8342e+05 ;    C32 - H2B   
 12448  12451   1    1.4990e-01    2.4568e+05 ;    C32 - N31   
 12451  12452   1    1.4990e-01    2.4568e+05 ;    N31 - C33   
 12451  12456   1    1.4990e-01    2.4568e+05 ;    N31 - C34   
 12451  12460   1    1.4990e-01    2.4568e+05 ;    N31 - C35   
 12452  12453   1    1.0910e-01    2.8342e+05 ;    C33 - H3A   
 12452  12454   1    1.0910e-01    2.8342e+05 ;    C33 - H3B   
 12452  12455   1    1.0910e-01    2.8342e+05 ;    C33 - H3C   
 12456  12457   1    1.0910e-01    2.8342e+05 ;    C34 - H4A   
 12456  12458   1    1.0910e-01    2.8342e+05 ;    C34 - H4B   
 12456  12459   1    1.0910e-01    2.8342e+05 ;    C34 - H4C   
 12460  12461   1    1.0910e-01    2.8342e+05 ;    C35 - H5A   
 12460  12462   1    1.0910e-01    2.8342e+05 ;    C35 - H5B   
 12460  12463   1    1.0910e-01    2.8342e+05 ;    C35 - H5C   
 12466  12467   1    1.3430e-01    3.4418e+05 ;    O21 - C21   
 12467  12468   1    1.2140e-01    5.4225e+05 ;    C21 - O22   
 12467  12506   1    1.5080e-01    2.7472e+05 ;    C21 - C12   
 12469  12470   1    1.0920e-01    2.8225e+05 ;   H14T - C114  
 12470  12471   1    1.0920e-01    2.8225e+05 ;   C114 - H14R  
 12470  12472   1    1.0920e-01    2.8225e+05 ;   C114 - H14S  
 12470  12473   1    1.5350e-01    2.5363e+05 ;   C114 - C113  
 12473  12474   1    1.0920e-01    2.8225e+05 ;   C113 - H13R  
 12473  12475   1    1.0920e-01    2.8225e+05 ;   C113 - H13S  
 12473  12476   1    1.5350e-01    2.5363e+05 ;   C113 - C112  
 12476  12477   1    1.0920e-01    2.8225e+05 ;   C112 - H12R  
 12476  12478   1    1.0920e-01    2.8225e+05 ;   C112 - H12S  
 12476  12479   1    1.5350e-01    2.5363e+05 ;   C112 - C111  
 12479  12480   1    1.0920e-01    2.8225e+05 ;   C111 - H11R  
 12479  12481   1    1.0920e-01    2.8225e+05 ;   C111 - H11S  
 12479  12482   1    1.5350e-01    2.5363e+05 ;   C111 - C110  
 12482  12483   1    1.0920e-01    2.8225e+05 ;   C110 - H10R  
 12482  12484   1    1.0920e-01    2.8225e+05 ;   C110 - H10S  
 12482  12485   1    1.5350e-01    2.5363e+05 ;   C110 - C19   
 12485  12486   1    1.0920e-01    2.8225e+05 ;    C19 - H9R   
 12485  12487   1    1.0920e-01    2.8225e+05 ;    C19 - H9S   
 12485  12488   1    1.5350e-01    2.5363e+05 ;    C19 - C18   
 12488  12489   1    1.0920e-01    2.8225e+05 ;    C18 - H8R   
 12488  12490   1    1.0920e-01    2.8225e+05 ;    C18 - H8S   
 12488  12491   1    1.5350e-01    2.5363e+05 ;    C18 - C17   
 12491  12492   1    1.0920e-01    2.8225e+05 ;    C17 - H7R   
 12491  12493   1    1.0920e-01    2.8225e+05 ;    C17 - H7S   
 12491  12494   1    1.5350e-01    2.5363e+05 ;    C17 - C16   
 12494  12495   1    1.0920e-01    2.8225e+05 ;    C16 - H6R   
 12494  12496   1    1.0920e-01    2.8225e+05 ;    C16 - H6S   
 12494  12497   1    1.5350e-01    2.5363e+05 ;    C16 - C15   
 12497  12498   1    1.0920e-01    2.8225e+05 ;    C15 - H5R   
 12497  12499   1    1.0920e-01    2.8225e+05 ;    C15 - H5S   
 12497  12500   1    1.5350e-01    2.5363e+05 ;    C15 - C14   
 12500  12501   1    1.0920e-01    2.8225e+05 ;    C14 - H4R   
 12500  12502   1    1.0920e-01    2.8225e+05 ;    C14 - H4S   
 12500  12503   1    1.5350e-01    2.5363e+05 ;    C14 - C13   
 12503  12504   1    1.0920e-01    2.8225e+05 ;    C13 - H3R   
 12503  12505   1    1.0920e-01    2.8225e+05 ;    C13 - H3S   
 12503  12506   1    1.5350e-01    2.5363e+05 ;    C13 - C12   
 12506  12507   1    1.0920e-01    2.8225e+05 ;    C12 - H2R   
 12506  12508   1    1.0920e-01    2.8225e+05 ;    C12 - H2S   
 12509  12510   1    1.0920e-01    2.8225e+05 ;   H14T - C114  
 12510  12511   1    1.0920e-01    2.8225e+05 ;   C114 - H14R  
 12510  12512   1    1.0920e-01    2.8225e+05 ;   C114 - H14S  
 12510  12513   1    1.5350e-01    2.5363e+05 ;   C114 - C113  
 12513  12514   1    1.0920e-01    2.8225e+05 ;   C113 - H13R  
 12513  12515   1    1.0920e-01    2.8225e+05 ;   C113 - H13S  
 12513  12516   1    1.5350e-01    2.5363e+05 ;   C113 - C112  
 12516  12517   1    1.0920e-01    2.8225e+05 ;   C112 - H12R  
 12516  12518   1    1.0920e-01    2.8225e+05 ;   C112 - H12S  
 12516  12519   1    1.5350e-01    2.5363e+05 ;   C112 - C111  
 12519  12520   1    1.0920e-01    2.8225e+05 ;   C111 - H11R  
 12519  12521   1    1.0920e-01    2.8225e+05 ;   C111 - H11S  
 12519  12522   1    1.5350e-01    2.5363e+05 ;   C111 - C110  
 12522  12523   1    1.0920e-01    2.8225e+05 ;   C110 - H10R  
 12522  12524   1    1.0920e-01    2.8225e+05 ;   C110 - H10S  
 12522  12525   1    1.5350e-01    2.5363e+05 ;   C110 - C19   
 12525  12526   1    1.0920e-01    2.8225e+05 ;    C19 - H9R   
 12525  12527   1    1.0920e-01    2.8225e+05 ;    C19 - H9S   
 12525  12528   1    1.5350e-01    2.5363e+05 ;    C19 - C18   
 12528  12529   1    1.0920e-01    2.8225e+05 ;    C18 - H8R   
 12528  12530   1    1.0920e-01    2.8225e+05 ;    C18 - H8S   
 12528  12531   1    1.5350e-01    2.5363e+05 ;    C18 - C17   
 12531  12532   1    1.0920e-01    2.8225e+05 ;    C17 - H7R   
 12531  12533   1    1.0920e-01    2.8225e+05 ;    C17 - H7S   
 12531  12534   1    1.5350e-01    2.5363e+05 ;    C17 - C16   
 12534  12535   1    1.0920e-01    2.8225e+05 ;    C16 - H6R   
 12534  12536   1    1.0920e-01    2.8225e+05 ;    C16 - H6S   
 12534  12537   1    1.5350e-01    2.5363e+05 ;    C16 - C15   
 12537  12538   1    1.0920e-01    2.8225e+05 ;    C15 - H5R   
 12537  12539   1    1.0920e-01    2.8225e+05 ;    C15 - H5S   
 12537  12540   1    1.5350e-01    2.5363e+05 ;    C15 - C14   
 12540  12541   1    1.0920e-01    2.8225e+05 ;    C14 - H4R   
 12540  12542   1    1.0920e-01    2.8225e+05 ;    C14 - H4S   
 12540  12543   1    1.5350e-01    2.5363e+05 ;    C14 - C13   
 12543  12544   1    1.0920e-01    2.8225e+05 ;    C13 - H3R   
 12543  12545   1    1.0920e-01    2.8225e+05 ;    C13 - H3S   
 12543  12546   1    1.5350e-01    2.5363e+05 ;    C13 - C12   
 12546  12547   1    1.0920e-01    2.8225e+05 ;    C12 - H2R   
 12546  12548   1    1.0920e-01    2.8225e+05 ;    C12 - H2S   
 12546  12549   1    1.5080e-01    2.7472e+05 ;    C12 - C11   
 12549  12550   1    1.2140e-01    5.4225e+05 ;    C11 - O12   
 12549  12551   1    1.3430e-01    3.4418e+05 ;    C11 - O11   
 12551  12552   1    1.4390e-01    2.5230e+05 ;    O11 - C1    
 12552  12553   1    1.0930e-01    2.8108e+05 ;     C1 - HR    
 12552  12554   1    1.0930e-01    2.8108e+05 ;     C1 - HS    
 12552  12555   1    1.5350e-01    2.5363e+05 ;     C1 - C2    
 12555  12556   1    1.0930e-01    2.8108e+05 ;     C2 - HX    
 12555  12557   1    1.5350e-01    2.5363e+05 ;     C2 - C3    
 12555  12584   1    1.4390e-01    2.5230e+05 ;     C2 - O21   
 12557  12558   1    1.0930e-01    2.8108e+05 ;     C3 - HA    
 12557  12559   1    1.0930e-01    2.8108e+05 ;     C3 - HB    
 12557  12560   1    1.4390e-01    2.5230e+05 ;     C3 - O31   
 12560  12561   1    1.6100e-01    1.9246e+05 ;    O31 - P31   
 12561  12562   1    1.6100e-01    1.9246e+05 ;    P31 - O32   
 12561  12582   1    1.4800e-01    4.3932e+05 ;    P31 - O33   
 12561  12583   1    1.4800e-01    4.3932e+05 ;    P31 - O34   
 12562  12563   1    1.4390e-01    2.5230e+05 ;    O32 - C31   
 12563  12564   1    1.0930e-01    2.8108e+05 ;    C31 - H1A   
 12563  12565   1    1.0930e-01    2.8108e+05 ;    C31 - H1B   
 12563  12566   1    1.5350e-01    2.5363e+05 ;    C31 - C32   
 12566  12567   1    1.0910e-01    2.8342e+05 ;    C32 - H2A   
 12566  12568   1    1.0910e-01    2.8342e+05 ;    C32 - H2B   
 12566  12569   1    1.4990e-01    2.4568e+05 ;    C32 - N31   
 12569  12570   1    1.4990e-01    2.4568e+05 ;    N31 - C33   
 12569  12574   1    1.4990e-01    2.4568e+05 ;    N31 - C34   
 12569  12578   1    1.4990e-01    2.4568e+05 ;    N31 - C35   
 12570  12571   1    1.0910e-01    2.8342e+05 ;    C33 - H3A   
 12570  12572   1    1.0910e-01    2.8342e+05 ;    C33 - H3B   
 12570  12573   1    1.0910e-01    2.8342e+05 ;    C33 - H3C   
 12574  12575   1    1.0910e-01    2.8342e+05 ;    C34 - H4A   
 12574  12576   1    1.0910e-01    2.8342e+05 ;    C34 - H4B   
 12574  12577   1    1.0910e-01    2.8342e+05 ;    C34 - H4C   
 12578  12579   1    1.0910e-01    2.8342e+05 ;    C35 - H5A   
 12578  12580   1    1.0910e-01    2.8342e+05 ;    C35 - H5B   
 12578  12581   1    1.0910e-01    2.8342e+05 ;    C35 - H5C   
 12584  12585   1    1.3430e-01    3.4418e+05 ;    O21 - C21   
 12585  12586   1    1.2140e-01    5.4225e+05 ;    C21 - O22   
 12585  12624   1    1.5080e-01    2.7472e+05 ;    C21 - C12   
 12587  12588   1    1.0920e-01    2.8225e+05 ;   H14T - C114  
 12588  12589   1    1.0920e-01    2.8225e+05 ;   C114 - H14R  
 12588  12590   1    1.0920e-01    2.8225e+05 ;   C114 - H14S  
 12588  12591   1    1.5350e-01    2.5363e+05 ;   C114 - C113  
 12591  12592   1    1.0920e-01    2.8225e+05 ;   C113 - H13R  
 12591  12593   1    1.0920e-01    2.8225e+05 ;   C113 - H13S  
 12591  12594   1    1.5350e-01    2.5363e+05 ;   C113 - C112  
 12594  12595   1    1.0920e-01    2.8225e+05 ;   C112 - H12R  
 12594  12596   1    1.0920e-01    2.8225e+05 ;   C112 - H12S  
 12594  12597   1    1.5350e-01    2.5363e+05 ;   C112 - C111  
 12597  12598   1    1.0920e-01    2.8225e+05 ;   C111 - H11R  
 12597  12599   1    1.0920e-01    2.8225e+05 ;   C111 - H11S  
 12597  12600   1    1.5350e-01    2.5363e+05 ;   C111 - C110  
 12600  12601   1    1.0920e-01    2.8225e+05 ;   C110 - H10R  
 12600  12602   1    1.0920e-01    2.8225e+05 ;   C110 - H10S  
 12600  12603   1    1.5350e-01    2.5363e+05 ;   C110 - C19   
 12603  12604   1    1.0920e-01    2.8225e+05 ;    C19 - H9R   
 12603  12605   1    1.0920e-01    2.8225e+05 ;    C19 - H9S   
 12603  12606   1    1.5350e-01    2.5363e+05 ;    C19 - C18   
 12606  12607   1    1.0920e-01    2.8225e+05 ;    C18 - H8R   
 12606  12608   1    1.0920e-01    2.8225e+05 ;    C18 - H8S   
 12606  12609   1    1.5350e-01    2.5363e+05 ;    C18 - C17   
 12609  12610   1    1.0920e-01    2.8225e+05 ;    C17 - H7R   
 12609  12611   1    1.0920e-01    2.8225e+05 ;    C17 - H7S   
 12609  12612   1    1.5350e-01    2.5363e+05 ;    C17 - C16   
 12612  12613   1    1.0920e-01    2.8225e+05 ;    C16 - H6R   
 12612  12614   1    1.0920e-01    2.8225e+05 ;    C16 - H6S   
 12612  12615   1    1.5350e-01    2.5363e+05 ;    C16 - C15   
 12615  12616   1    1.0920e-01    2.8225e+05 ;    C15 - H5R   
 12615  12617   1    1.0920e-01    2.8225e+05 ;    C15 - H5S   
 12615  12618   1    1.5350e-01    2.5363e+05 ;    C15 - C14   
 12618  12619   1    1.0920e-01    2.8225e+05 ;    C14 - H4R   
 12618  12620   1    1.0920e-01    2.8225e+05 ;    C14 - H4S   
 12618  12621   1    1.5350e-01    2.5363e+05 ;    C14 - C13   
 12621  12622   1    1.0920e-01    2.8225e+05 ;    C13 - H3R   
 12621  12623   1    1.0920e-01    2.8225e+05 ;    C13 - H3S   
 12621  12624   1    1.5350e-01    2.5363e+05 ;    C13 - C12   
 12624  12625   1    1.0920e-01    2.8225e+05 ;    C12 - H2R   
 12624  12626   1    1.0920e-01    2.8225e+05 ;    C12 - H2S   
 12627  12628   1    1.0920e-01    2.8225e+05 ;   H14T - C114  
 12628  12629   1    1.0920e-01    2.8225e+05 ;   C114 - H14R  
 12628  12630   1    1.0920e-01    2.8225e+05 ;   C114 - H14S  
 12628  12631   1    1.5350e-01    2.5363e+05 ;   C114 - C113  
 12631  12632   1    1.0920e-01    2.8225e+05 ;   C113 - H13R  
 12631  12633   1    1.0920e-01    2.8225e+05 ;   C113 - H13S  
 12631  12634   1    1.5350e-01    2.5363e+05 ;   C113 - C112  
 12634  12635   1    1.0920e-01    2.8225e+05 ;   C112 - H12R  
 12634  12636   1    1.0920e-01    2.8225e+05 ;   C112 - H12S  
 12634  12637   1    1.5350e-01    2.5363e+05 ;   C112 - C111  
 12637  12638   1    1.0920e-01    2.8225e+05 ;   C111 - H11R  
 12637  12639   1    1.0920e-01    2.8225e+05 ;   C111 - H11S  
 12637  12640   1    1.5350e-01    2.5363e+05 ;   C111 - C110  
 12640  12641   1    1.0920e-01    2.8225e+05 ;   C110 - H10R  
 12640  12642   1    1.0920e-01    2.8225e+05 ;   C110 - H10S  
 12640  12643   1    1.5350e-01    2.5363e+05 ;   C110 - C19   
 12643  12644   1    1.0920e-01    2.8225e+05 ;    C19 - H9R   
 12643  12645   1    1.0920e-01    2.8225e+05 ;    C19 - H9S   
 12643  12646   1    1.5350e-01    2.5363e+05 ;    C19 - C18   
 12646  12647   1    1.0920e-01    2.8225e+05 ;    C18 - H8R   
 12646  12648   1    1.0920e-01    2.8225e+05 ;    C18 - H8S   
 12646  12649   1    1.5350e-01    2.5363e+05 ;    C18 - C17   
 12649  12650   1    1.0920e-01    2.8225e+05 ;    C17 - H7R   
 12649  12651   1    1.0920e-01    2.8225e+05 ;    C17 - H7S   
 12649  12652   1    1.5350e-01    2.5363e+05 ;    C17 - C16   
 12652  12653   1    1.0920e-01    2.8225e+05 ;    C16 - H6R   
 12652  12654   1    1.0920e-01    2.8225e+05 ;    C16 - H6S   
 12652  12655   1    1.5350e-01    2.5363e+05 ;    C16 - C15   
 12655  12656   1    1.0920e-01    2.8225e+05 ;    C15 - H5R   
 12655  12657   1    1.0920e-01    2.8225e+05 ;    C15 - H5S   
 12655  12658   1    1.5350e-01    2.5363e+05 ;    C15 - C14   
 12658  12659   1    1.0920e-01    2.8225e+05 ;    C14 - H4R   
 12658  12660   1    1.0920e-01    2.8225e+05 ;    C14 - H4S   
 12658  12661   1    1.5350e-01    2.5363e+05 ;    C14 - C13   
 12661  12662   1    1.0920e-01    2.8225e+05 ;    C13 - H3R   
 12661  12663   1    1.0920e-01    2.8225e+05 ;    C13 - H3S   
 12661  12664   1    1.5350e-01    2.5363e+05 ;    C13 - C12   
 12664  12665   1    1.0920e-01    2.8225e+05 ;    C12 - H2R   
 12664  12666   1    1.0920e-01    2.8225e+05 ;    C12 - H2S   
 12664  12667   1    1.5080e-01    2.7472e+05 ;    C12 - C11   
 12667  12668   1    1.2140e-01    5.4225e+05 ;    C11 - O12   
 12667  12669   1    1.3430e-01    3.4418e+05 ;    C11 - O11   
 12669  12670   1    1.4390e-01    2.5230e+05 ;    O11 - C1    
 12670  12671   1    1.0930e-01    2.8108e+05 ;     C1 - HR    
 12670  12672   1    1.0930e-01    2.8108e+05 ;     C1 - HS    
 12670  12673   1    1.5350e-01    2.5363e+05 ;     C1 - C2    
 12673  12674   1    1.0930e-01    2.8108e+05 ;     C2 - HX    
 12673  12675   1    1.5350e-01    2.5363e+05 ;     C2 - C3    
 12673  12702   1    1.4390e-01    2.5230e+05 ;     C2 - O21   
 12675  12676   1    1.0930e-01    2.8108e+05 ;     C3 - HA    
 12675  12677   1    1.0930e-01    2.8108e+05 ;     C3 - HB    
 12675  12678   1    1.4390e-01    2.5230e+05 ;     C3 - O31   
 12678  12679   1    1.6100e-01    1.9246e+05 ;    O31 - P31   
 12679  12680   1    1.6100e-01    1.9246e+05 ;    P31 - O32   
 12679  12700   1    1.4800e-01    4.3932e+05 ;    P31 - O33   
 12679  12701   1    1.4800e-01    4.3932e+05 ;    P31 - O34   
 12680  12681   1    1.4390e-01    2.5230e+05 ;    O32 - C31   
 12681  12682   1    1.0930e-01    2.8108e+05 ;    C31 - H1A   
 12681  12683   1    1.0930e-01    2.8108e+05 ;    C31 - H1B   
 12681  12684   1    1.5350e-01    2.5363e+05 ;    C31 - C32   
 12684  12685   1    1.0910e-01    2.8342e+05 ;    C32 - H2A   
 12684  12686   1    1.0910e-01    2.8342e+05 ;    C32 - H2B   
 12684  12687   1    1.4990e-01    2.4568e+05 ;    C32 - N31   
 12687  12688   1    1.4990e-01    2.4568e+05 ;    N31 - C33   
 12687  12692   1    1.4990e-01    2.4568e+05 ;    N31 - C34   
 12687  12696   1    1.4990e-01    2.4568e+05 ;    N31 - C35   
 12688  12689   1    1.0910e-01    2.8342e+05 ;    C33 - H3A   
 12688  12690   1    1.0910e-01    2.8342e+05 ;    C33 - H3B   
 12688  12691   1    1.0910e-01    2.8342e+05 ;    C33 - H3C   
 12692  12693   1    1.0910e-01    2.8342e+05 ;    C34 - H4A   
 12692  12694   1    1.0910e-01    2.8342e+05 ;    C34 - H4B   
 12692  12695   1    1.0910e-01    2.8342e+05 ;    C34 - H4C   
 12696  12697   1    1.0910e-01    2.8342e+05 ;    C35 - H5A   
 12696  12698   1    1.0910e-01    2.8342e+05 ;    C35 - H5B   
 12696  12699   1    1.0910e-01    2.8342e+05 ;    C35 - H5C   
 12702  12703   1    1.3430e-01    3.4418e+05 ;    O21 - C21   
 12703  12704   1    1.2140e-01    5.4225e+05 ;    C21 - O22   
 12703  12742   1    1.5080e-01    2.7472e+05 ;    C21 - C12   
 12705  12706   1    1.0920e-01    2.8225e+05 ;   H14T - C114  
 12706  12707   1    1.0920e-01    2.8225e+05 ;   C114 - H14R  
 12706  12708   1    1.0920e-01    2.8225e+05 ;   C114 - H14S  
 12706  12709   1    1.5350e-01    2.5363e+05 ;   C114 - C113  
 12709  12710   1    1.0920e-01    2.8225e+05 ;   C113 - H13R  
 12709  12711   1    1.0920e-01    2.8225e+05 ;   C113 - H13S  
 12709  12712   1    1.5350e-01    2.5363e+05 ;   C113 - C112  
 12712  12713   1    1.0920e-01    2.8225e+05 ;   C112 - H12R  
 12712  12714   1    1.0920e-01    2.8225e+05 ;   C112 - H12S  
 12712  12715   1    1.5350e-01    2.5363e+05 ;   C112 - C111  
 12715  12716   1    1.0920e-01    2.8225e+05 ;   C111 - H11R  
 12715  12717   1    1.0920e-01    2.8225e+05 ;   C111 - H11S  
 12715  12718   1    1.5350e-01    2.5363e+05 ;   C111 - C110  
 12718  12719   1    1.0920e-01    2.8225e+05 ;   C110 - H10R  
 12718  12720   1    1.0920e-01    2.8225e+05 ;   C110 - H10S  
 12718  12721   1    1.5350e-01    2.5363e+05 ;   C110 - C19   
 12721  12722   1    1.0920e-01    2.8225e+05 ;    C19 - H9R   
 12721  12723   1    1.0920e-01    2.8225e+05 ;    C19 - H9S   
 12721  12724   1    1.5350e-01    2.5363e+05 ;    C19 - C18   
 12724  12725   1    1.0920e-01    2.8225e+05 ;    C18 - H8R   
 12724  12726   1    1.0920e-01    2.8225e+05 ;    C18 - H8S   
 12724  12727   1    1.5350e-01    2.5363e+05 ;    C18 - C17   
 12727  12728   1    1.0920e-01    2.8225e+05 ;    C17 - H7R   
 12727  12729   1    1.0920e-01    2.8225e+05 ;    C17 - H7S   
 12727  12730   1    1.5350e-01    2.5363e+05 ;    C17 - C16   
 12730  12731   1    1.0920e-01    2.8225e+05 ;    C16 - H6R   
 12730  12732   1    1.0920e-01    2.8225e+05 ;    C16 - H6S   
 12730  12733   1    1.5350e-01    2.5363e+05 ;    C16 - C15   
 12733  12734   1    1.0920e-01    2.8225e+05 ;    C15 - H5R   
 12733  12735   1    1.0920e-01    2.8225e+05 ;    C15 - H5S   
 12733  12736   1    1.5350e-01    2.5363e+05 ;    C15 - C14   
 12736  12737   1    1.0920e-01    2.8225e+05 ;    C14 - H4R   
 12736  12738   1    1.0920e-01    2.8225e+05 ;    C14 - H4S   
 12736  12739   1    1.5350e-01    2.5363e+05 ;    C14 - C13   
 12739  12740   1    1.0920e-01    2.8225e+05 ;    C13 - H3R   
 12739  12741   1    1.0920e-01    2.8225e+05 ;    C13 - H3S   
 12739  12742   1    1.5350e-01    2.5363e+05 ;    C13 - C12   
 12742  12743   1    1.0920e-01    2.8225e+05 ;    C12 - H2R   
 12742  12744   1    1.0920e-01    2.8225e+05 ;    C12 - H2S   
 12745  12746   1    1.0920e-01    2.8225e+05 ;   H14T - C114  
 12746  12747   1    1.0920e-01    2.8225e+05 ;   C114 - H14R  
 12746  12748   1    1.0920e-01    2.8225e+05 ;   C114 - H14S  
 12746  12749   1    1.5350e-01    2.5363e+05 ;   C114 - C113  
 12749  12750   1    1.0920e-01    2.8225e+05 ;   C113 - H13R  
 12749  12751   1    1.0920e-01    2.8225e+05 ;   C113 - H13S  
 12749  12752   1    1.5350e-01    2.5363e+05 ;   C113 - C112  
 12752  12753   1    1.0920e-01    2.8225e+05 ;   C112 - H12R  
 12752  12754   1    1.0920e-01    2.8225e+05 ;   C112 - H12S  
 12752  12755   1    1.5350e-01    2.5363e+05 ;   C112 - C111  
 12755  12756   1    1.0920e-01    2.8225e+05 ;   C111 - H11R  
 12755  12757   1    1.0920e-01    2.8225e+05 ;   C111 - H11S  
 12755  12758   1    1.5350e-01    2.5363e+05 ;   C111 - C110  
 12758  12759   1    1.0920e-01    2.8225e+05 ;   C110 - H10R  
 12758  12760   1    1.0920e-01    2.8225e+05 ;   C110 - H10S  
 12758  12761   1    1.5350e-01    2.5363e+05 ;   C110 - C19   
 12761  12762   1    1.0920e-01    2.8225e+05 ;    C19 - H9R   
 12761  12763   1    1.0920e-01    2.8225e+05 ;    C19 - H9S   
 12761  12764   1    1.5350e-01    2.5363e+05 ;    C19 - C18   
 12764  12765   1    1.0920e-01    2.8225e+05 ;    C18 - H8R   
 12764  12766   1    1.0920e-01    2.8225e+05 ;    C18 - H8S   
 12764  12767   1    1.5350e-01    2.5363e+05 ;    C18 - C17   
 12767  12768   1    1.0920e-01    2.8225e+05 ;    C17 - H7R   
 12767  12769   1    1.0920e-01    2.8225e+05 ;    C17 - H7S   
 12767  12770   1    1.5350e-01    2.5363e+05 ;    C17 - C16   
 12770  12771   1    1.0920e-01    2.8225e+05 ;    C16 - H6R   
 12770  12772   1    1.0920e-01    2.8225e+05 ;    C16 - H6S   
 12770  12773   1    1.5350e-01    2.5363e+05 ;    C16 - C15   
 12773  12774   1    1.0920e-01    2.8225e+05 ;    C15 - H5R   
 12773  12775   1    1.0920e-01    2.8225e+05 ;    C15 - H5S   
 12773  12776   1    1.5350e-01    2.5363e+05 ;    C15 - C14   
 12776  12777   1    1.0920e-01    2.8225e+05 ;    C14 - H4R   
 12776  12778   1    1.0920e-01    2.8225e+05 ;    C14 - H4S   
 12776  12779   1    1.5350e-01    2.5363e+05 ;    C14 - C13   
 12779  12780   1    1.0920e-01    2.8225e+05 ;    C13 - H3R   
 12779  12781   1    1.0920e-01    2.8225e+05 ;    C13 - H3S   
 12779  12782   1    1.5350e-01    2.5363e+05 ;    C13 - C12   
 12782  12783   1    1.0920e-01    2.8225e+05 ;    C12 - H2R   
 12782  12784   1    1.0920e-01    2.8225e+05 ;    C12 - H2S   
 12782  12785   1    1.5080e-01    2.7472e+05 ;    C12 - C11   
 12785  12786   1    1.2140e-01    5.4225e+05 ;    C11 - O12   
 12785  12787   1    1.3430e-01    3.4418e+05 ;    C11 - O11   
 12787  12788   1    1.4390e-01    2.5230e+05 ;    O11 - C1    
 12788  12789   1    1.0930e-01    2.8108e+05 ;     C1 - HR    
 12788  12790   1    1.0930e-01    2.8108e+05 ;     C1 - HS    
 12788  12791   1    1.5350e-01    2.5363e+05 ;     C1 - C2    
 12791  12792   1    1.0930e-01    2.8108e+05 ;     C2 - HX    
 12791  12793   1    1.5350e-01    2.5363e+05 ;     C2 - C3    
 12791  12820   1    1.4390e-01    2.5230e+05 ;     C2 - O21   
 12793  12794   1    1.0930e-01    2.8108e+05 ;     C3 - HA    
 12793  12795   1    1.0930e-01    2.8108e+05 ;     C3 - HB    
 12793  12796   1    1.4390e-01    2.5230e+05 ;     C3 - O31   
 12796  12797   1    1.6100e-01    1.9246e+05 ;    O31 - P31   
 12797  12798   1    1.6100e-01    1.9246e+05 ;    P31 - O32   
 12797  12818   1    1.4800e-01    4.3932e+05 ;    P31 - O33   
 12797  12819   1    1.4800e-01    4.3932e+05 ;    P31 - O34   
 12798  12799   1    1.4390e-01    2.5230e+05 ;    O32 - C31   
 12799  12800   1    1.0930e-01    2.8108e+05 ;    C31 - H1A   
 12799  12801   1    1.0930e-01    2.8108e+05 ;    C31 - H1B   
 12799  12802   1    1.5350e-01    2.5363e+05 ;    C31 - C32   
 12802  12803   1    1.0910e-01    2.8342e+05 ;    C32 - H2A   
 12802  12804   1    1.0910e-01    2.8342e+05 ;    C32 - H2B   
 12802  12805   1    1.4990e-01    2.4568e+05 ;    C32 - N31   
 12805  12806   1    1.4990e-01    2.4568e+05 ;    N31 - C33   
 12805  12810   1    1.4990e-01    2.4568e+05 ;    N31 - C34   
 12805  12814   1    1.4990e-01    2.4568e+05 ;    N31 - C35   
 12806  12807   1    1.0910e-01    2.8342e+05 ;    C33 - H3A   
 12806  12808   1    1.0910e-01    2.8342e+05 ;    C33 - H3B   
 12806  12809   1    1.0910e-01    2.8342e+05 ;    C33 - H3C   
 12810  12811   1    1.0910e-01    2.8342e+05 ;    C34 - H4A   
 12810  12812   1    1.0910e-01    2.8342e+05 ;    C34 - H4B   
 12810  12813   1    1.0910e-01    2.8342e+05 ;    C34 - H4C   
 12814  12815   1    1.0910e-01    2.8342e+05 ;    C35 - H5A   
 12814  12816   1    1.0910e-01    2.8342e+05 ;    C35 - H5B   
 12814  12817   1    1.0910e-01    2.8342e+05 ;    C35 - H5C   
 12820  12821   1    1.3430e-01    3.4418e+05 ;    O21 - C21   
 12821  12822   1    1.2140e-01    5.4225e+05 ;    C21 - O22   
 12821  12860   1    1.5080e-01    2.7472e+05 ;    C21 - C12   
 12823  12824   1    1.0920e-01    2.8225e+05 ;   H14T - C114  
 12824  12825   1    1.0920e-01    2.8225e+05 ;   C114 - H14R  
 12824  12826   1    1.0920e-01    2.8225e+05 ;   C114 - H14S  
 12824  12827   1    1.5350e-01    2.5363e+05 ;   C114 - C113  
 12827  12828   1    1.0920e-01    2.8225e+05 ;   C113 - H13R  
 12827  12829   1    1.0920e-01    2.8225e+05 ;   C113 - H13S  
 12827  12830   1    1.5350e-01    2.5363e+05 ;   C113 - C112  
 12830  12831   1    1.0920e-01    2.8225e+05 ;   C112 - H12R  
 12830  12832   1    1.0920e-01    2.8225e+05 ;   C112 - H12S  
 12830  12833   1    1.5350e-01    2.5363e+05 ;   C112 - C111  
 12833  12834   1    1.0920e-01    2.8225e+05 ;   C111 - H11R  
 12833  12835   1    1.0920e-01    2.8225e+05 ;   C111 - H11S  
 12833  12836   1    1.5350e-01    2.5363e+05 ;   C111 - C110  
 12836  12837   1    1.0920e-01    2.8225e+05 ;   C110 - H10R  
 12836  12838   1    1.0920e-01    2.8225e+05 ;   C110 - H10S  
 12836  12839   1    1.5350e-01    2.5363e+05 ;   C110 - C19   
 12839  12840   1    1.0920e-01    2.8225e+05 ;    C19 - H9R   
 12839  12841   1    1.0920e-01    2.8225e+05 ;    C19 - H9S   
 12839  12842   1    1.5350e-01    2.5363e+05 ;    C19 - C18   
 12842  12843   1    1.0920e-01    2.8225e+05 ;    C18 - H8R   
 12842  12844   1    1.0920e-01    2.8225e+05 ;    C18 - H8S   
 12842  12845   1    1.5350e-01    2.5363e+05 ;    C18 - C17   
 12845  12846   1    1.0920e-01    2.8225e+05 ;    C17 - H7R   
 12845  12847   1    1.0920e-01    2.8225e+05 ;    C17 - H7S   
 12845  12848   1    1.5350e-01    2.5363e+05 ;    C17 - C16   
 12848  12849   1    1.0920e-01    2.8225e+05 ;    C16 - H6R   
 12848  12850   1    1.0920e-01    2.8225e+05 ;    C16 - H6S   
 12848  12851   1    1.5350e-01    2.5363e+05 ;    C16 - C15   
 12851  12852   1    1.0920e-01    2.8225e+05 ;    C15 - H5R   
 12851  12853   1    1.0920e-01    2.8225e+05 ;    C15 - H5S   
 12851  12854   1    1.5350e-01    2.5363e+05 ;    C15 - C14   
 12854  12855   1    1.0920e-01    2.8225e+05 ;    C14 - H4R   
 12854  12856   1    1.0920e-01    2.8225e+05 ;    C14 - H4S   
 12854  12857   1    1.5350e-01    2.5363e+05 ;    C14 - C13   
 12857  12858   1    1.0920e-01    2.8225e+05 ;    C13 - H3R   
 12857  12859   1    1.0920e-01    2.8225e+05 ;    C13 - H3S   
 12857  12860   1    1.5350e-01    2.5363e+05 ;    C13 - C12   
 12860  12861   1    1.0920e-01    2.8225e+05 ;    C12 - H2R   
 12860  12862   1    1.0920e-01    2.8225e+05 ;    C12 - H2S   
 12863  12864   1    1.0920e-01    2.8225e+05 ;   H14T - C114  
 12864  12865   1    1.0920e-01    2.8225e+05 ;   C114 - H14R  
 12864  12866   1    1.0920e-01    2.8225e+05 ;   C114 - H14S  
 12864  12867   1    1.5350e-01    2.5363e+05 ;   C114 - C113  
 12867  12868   1    1.0920e-01    2.8225e+05 ;   C113 - H13R  
 12867  12869   1    1.0920e-01    2.8225e+05 ;   C113 - H13S  
 12867  12870   1    1.5350e-01    2.5363e+05 ;   C113 - C112  
 12870  12871   1    1.0920e-01    2.8225e+05 ;   C112 - H12R  
 12870  12872   1    1.0920e-01    2.8225e+05 ;   C112 - H12S  
 12870  12873   1    1.5350e-01    2.5363e+05 ;   C112 - C111  
 12873  12874   1    1.0920e-01    2.8225e+05 ;   C111 - H11R  
 12873  12875   1    1.0920e-01    2.8225e+05 ;   C111 - H11S  
 12873  12876   1    1.5350e-01    2.5363e+05 ;   C111 - C110  
 12876  12877   1    1.0920e-01    2.8225e+05 ;   C110 - H10R  
 12876  12878   1    1.0920e-01    2.8225e+05 ;   C110 - H10S  
 12876  12879   1    1.5350e-01    2.5363e+05 ;   C110 - C19   
 12879  12880   1    1.0920e-01    2.8225e+05 ;    C19 - H9R   
 12879  12881   1    1.0920e-01    2.8225e+05 ;    C19 - H9S   
 12879  12882   1    1.5350e-01    2.5363e+05 ;    C19 - C18   
 12882  12883   1    1.0920e-01    2.8225e+05 ;    C18 - H8R   
 12882  12884   1    1.0920e-01    2.8225e+05 ;    C18 - H8S   
 12882  12885   1    1.5350e-01    2.5363e+05 ;    C18 - C17   
 12885  12886   1    1.0920e-01    2.8225e+05 ;    C17 - H7R   
 12885  12887   1    1.0920e-01    2.8225e+05 ;    C17 - H7S   
 12885  12888   1    1.5350e-01    2.5363e+05 ;    C17 - C16   
 12888  12889   1    1.0920e-01    2.8225e+05 ;    C16 - H6R   
 12888  12890   1    1.0920e-01    2.8225e+05 ;    C16 - H6S   
 12888  12891   1    1.5350e-01    2.5363e+05 ;    C16 - C15   
 12891  12892   1    1.0920e-01    2.8225e+05 ;    C15 - H5R   
 12891  12893   1    1.0920e-01    2.8225e+05 ;    C15 - H5S   
 12891  12894   1    1.5350e-01    2.5363e+05 ;    C15 - C14   
 12894  12895   1    1.0920e-01    2.8225e+05 ;    C14 - H4R   
 12894  12896   1    1.0920e-01    2.8225e+05 ;    C14 - H4S   
 12894  12897   1    1.5350e-01    2.5363e+05 ;    C14 - C13   
 12897  12898   1    1.0920e-01    2.8225e+05 ;    C13 - H3R   
 12897  12899   1    1.0920e-01    2.8225e+05 ;    C13 - H3S   
 12897  12900   1    1.5350e-01    2.5363e+05 ;    C13 - C12   
 12900  12901   1    1.0920e-01    2.8225e+05 ;    C12 - H2R   
 12900  12902   1    1.0920e-01    2.8225e+05 ;    C12 - H2S   
 12900  12903   1    1.5080e-01    2.7472e+05 ;    C12 - C11   
 12903  12904   1    1.2140e-01    5.4225e+05 ;    C11 - O12   
 12903  12905   1    1.3430e-01    3.4418e+05 ;    C11 - O11   
 12905  12906   1    1.4390e-01    2.5230e+05 ;    O11 - C1    
 12906  12907   1    1.0930e-01    2.8108e+05 ;     C1 - HR    
 12906  12908   1    1.0930e-01    2.8108e+05 ;     C1 - HS    
 12906  12909   1    1.5350e-01    2.5363e+05 ;     C1 - C2    
 12909  12910   1    1.0930e-01    2.8108e+05 ;     C2 - HX    
 12909  12911   1    1.5350e-01    2.5363e+05 ;     C2 - C3    
 12909  12938   1    1.4390e-01    2.5230e+05 ;     C2 - O21   
 12911  12912   1    1.0930e-01    2.8108e+05 ;     C3 - HA    
 12911  12913   1    1.0930e-01    2.8108e+05 ;     C3 - HB    
 12911  12914   1    1.4390e-01    2.5230e+05 ;     C3 - O31   
 12914  12915   1    1.6100e-01    1.9246e+05 ;    O31 - P31   
 12915  12916   1    1.6100e-01    1.9246e+05 ;    P31 - O32   
 12915  12936   1    1.4800e-01    4.3932e+05 ;    P31 - O33   
 12915  12937   1    1.4800e-01    4.3932e+05 ;    P31 - O34   
 12916  12917   1    1.4390e-01    2.5230e+05 ;    O32 - C31   
 12917  12918   1    1.0930e-01    2.8108e+05 ;    C31 - H1A   
 12917  12919   1    1.0930e-01    2.8108e+05 ;    C31 - H1B   
 12917  12920   1    1.5350e-01    2.5363e+05 ;    C31 - C32   
 12920  12921   1    1.0910e-01    2.8342e+05 ;    C32 - H2A   
 12920  12922   1    1.0910e-01    2.8342e+05 ;    C32 - H2B   
 12920  12923   1    1.4990e-01    2.4568e+05 ;    C32 - N31   
 12923  12924   1    1.4990e-01    2.4568e+05 ;    N31 - C33   
 12923  12928   1    1.4990e-01    2.4568e+05 ;    N31 - C34   
 12923  12932   1    1.4990e-01    2.4568e+05 ;    N31 - C35   
 12924  12925   1    1.0910e-01    2.8342e+05 ;    C33 - H3A   
 12924  12926   1    1.0910e-01    2.8342e+05 ;    C33 - H3B   
 12924  12927   1    1.0910e-01    2.8342e+05 ;    C33 - H3C   
 12928  12929   1    1.0910e-01    2.8342e+05 ;    C34 - H4A   
 12928  12930   1    1.0910e-01    2.8342e+05 ;    C34 - H4B   
 12928  12931   1    1.0910e-01    2.8342e+05 ;    C34 - H4C   
 12932  12933   1    1.0910e-01    2.8342e+05 ;    C35 - H5A   
 12932  12934   1    1.0910e-01    2.8342e+05 ;    C35 - H5B   
 12932  12935   1    1.0910e-01    2.8342e+05 ;    C35 - H5C   
 12938  12939   1    1.3430e-01    3.4418e+05 ;    O21 - C21   
 12939  12940   1    1.2140e-01    5.4225e+05 ;    C21 - O22   
 12939  12978   1    1.5080e-01    2.7472e+05 ;    C21 - C12   
 12941  12942   1    1.0920e-01    2.8225e+05 ;   H14T - C114  
 12942  12943   1    1.0920e-01    2.8225e+05 ;   C114 - H14R  
 12942  12944   1    1.0920e-01    2.8225e+05 ;   C114 - H14S  
 12942  12945   1    1.5350e-01    2.5363e+05 ;   C114 - C113  
 12945  12946   1    1.0920e-01    2.8225e+05 ;   C113 - H13R  
 12945  12947   1    1.0920e-01    2.8225e+05 ;   C113 - H13S  
 12945  12948   1    1.5350e-01    2.5363e+05 ;   C113 - C112  
 12948  12949   1    1.0920e-01    2.8225e+05 ;   C112 - H12R  
 12948  12950   1    1.0920e-01    2.8225e+05 ;   C112 - H12S  
 12948  12951   1    1.5350e-01    2.5363e+05 ;   C112 - C111  
 12951  12952   1    1.0920e-01    2.8225e+05 ;   C111 - H11R  
 12951  12953   1    1.0920e-01    2.8225e+05 ;   C111 - H11S  
 12951  12954   1    1.5350e-01    2.5363e+05 ;   C111 - C110  
 12954  12955   1    1.0920e-01    2.8225e+05 ;   C110 - H10R  
 12954  12956   1    1.0920e-01    2.8225e+05 ;   C110 - H10S  
 12954  12957   1    1.5350e-01    2.5363e+05 ;   C110 - C19   
 12957  12958   1    1.0920e-01    2.8225e+05 ;    C19 - H9R   
 12957  12959   1    1.0920e-01    2.8225e+05 ;    C19 - H9S   
 12957  12960   1    1.5350e-01    2.5363e+05 ;    C19 - C18   
 12960  12961   1    1.0920e-01    2.8225e+05 ;    C18 - H8R   
 12960  12962   1    1.0920e-01    2.8225e+05 ;    C18 - H8S   
 12960  12963   1    1.5350e-01    2.5363e+05 ;    C18 - C17   
 12963  12964   1    1.0920e-01    2.8225e+05 ;    C17 - H7R   
 12963  12965   1    1.0920e-01    2.8225e+05 ;    C17 - H7S   
 12963  12966   1    1.5350e-01    2.5363e+05 ;    C17 - C16   
 12966  12967   1    1.0920e-01    2.8225e+05 ;    C16 - H6R   
 12966  12968   1    1.0920e-01    2.8225e+05 ;    C16 - H6S   
 12966  12969   1    1.5350e-01    2.5363e+05 ;    C16 - C15   
 12969  12970   1    1.0920e-01    2.8225e+05 ;    C15 - H5R   
 12969  12971   1    1.0920e-01    2.8225e+05 ;    C15 - H5S   
 12969  12972   1    1.5350e-01    2.5363e+05 ;    C15 - C14   
 12972  12973   1    1.0920e-01    2.8225e+05 ;    C14 - H4R   
 12972  12974   1    1.0920e-01    2.8225e+05 ;    C14 - H4S   
 12972  12975   1    1.5350e-01    2.5363e+05 ;    C14 - C13   
 12975  12976   1    1.0920e-01    2.8225e+05 ;    C13 - H3R   
 12975  12977   1    1.0920e-01    2.8225e+05 ;    C13 - H3S   
 12975  12978   1    1.5350e-01    2.5363e+05 ;    C13 - C12   
 12978  12979   1    1.0920e-01    2.8225e+05 ;    C12 - H2R   
 12978  12980   1    1.0920e-01    2.8225e+05 ;    C12 - H2S   
 12981  12982   1    1.0920e-01    2.8225e+05 ;   H14T - C114  
 12982  12983   1    1.0920e-01    2.8225e+05 ;   C114 - H14R  
 12982  12984   1    1.0920e-01    2.8225e+05 ;   C114 - H14S  
 12982  12985   1    1.5350e-01    2.5363e+05 ;   C114 - C113  
 12985  12986   1    1.0920e-01    2.8225e+05 ;   C113 - H13R  
 12985  12987   1    1.0920e-01    2.8225e+05 ;   C113 - H13S  
 12985  12988   1    1.5350e-01    2.5363e+05 ;   C113 - C112  
 12988  12989   1    1.0920e-01    2.8225e+05 ;   C112 - H12R  
 12988  12990   1    1.0920e-01    2.8225e+05 ;   C112 - H12S  
 12988  12991   1    1.5350e-01    2.5363e+05 ;   C112 - C111  
 12991  12992   1    1.0920e-01    2.8225e+05 ;   C111 - H11R  
 12991  12993   1    1.0920e-01    2.8225e+05 ;   C111 - H11S  
 12991  12994   1    1.5350e-01    2.5363e+05 ;   C111 - C110  
 12994  12995   1    1.0920e-01    2.8225e+05 ;   C110 - H10R  
 12994  12996   1    1.0920e-01    2.8225e+05 ;   C110 - H10S  
 12994  12997   1    1.5350e-01    2.5363e+05 ;   C110 - C19   
 12997  12998   1    1.0920e-01    2.8225e+05 ;    C19 - H9R   
 12997  12999   1    1.0920e-01    2.8225e+05 ;    C19 - H9S   
 12997  13000   1    1.5350e-01    2.5363e+05 ;    C19 - C18   
 13000  13001   1    1.0920e-01    2.8225e+05 ;    C18 - H8R   
 13000  13002   1    1.0920e-01    2.8225e+05 ;    C18 - H8S   
 13000  13003   1    1.5350e-01    2.5363e+05 ;    C18 - C17   
 13003  13004   1    1.0920e-01    2.8225e+05 ;    C17 - H7R   
 13003  13005   1    1.0920e-01    2.8225e+05 ;    C17 - H7S   
 13003  13006   1    1.5350e-01    2.5363e+05 ;    C17 - C16   
 13006  13007   1    1.0920e-01    2.8225e+05 ;    C16 - H6R   
 13006  13008   1    1.0920e-01    2.8225e+05 ;    C16 - H6S   
 13006  13009   1    1.5350e-01    2.5363e+05 ;    C16 - C15   
 13009  13010   1    1.0920e-01    2.8225e+05 ;    C15 - H5R   
 13009  13011   1    1.0920e-01    2.8225e+05 ;    C15 - H5S   
 13009  13012   1    1.5350e-01    2.5363e+05 ;    C15 - C14   
 13012  13013   1    1.0920e-01    2.8225e+05 ;    C14 - H4R   
 13012  13014   1    1.0920e-01    2.8225e+05 ;    C14 - H4S   
 13012  13015   1    1.5350e-01    2.5363e+05 ;    C14 - C13   
 13015  13016   1    1.0920e-01    2.8225e+05 ;    C13 - H3R   
 13015  13017   1    1.0920e-01    2.8225e+05 ;    C13 - H3S   
 13015  13018   1    1.5350e-01    2.5363e+05 ;    C13 - C12   
 13018  13019   1    1.0920e-01    2.8225e+05 ;    C12 - H2R   
 13018  13020   1    1.0920e-01    2.8225e+05 ;    C12 - H2S   
 13018  13021   1    1.5080e-01    2.7472e+05 ;    C12 - C11   
 13021  13022   1    1.2140e-01    5.4225e+05 ;    C11 - O12   
 13021  13023   1    1.3430e-01    3.4418e+05 ;    C11 - O11   
 13023  13024   1    1.4390e-01    2.5230e+05 ;    O11 - C1    
 13024  13025   1    1.0930e-01    2.8108e+05 ;     C1 - HR    
 13024  13026   1    1.0930e-01    2.8108e+05 ;     C1 - HS    
 13024  13027   1    1.5350e-01    2.5363e+05 ;     C1 - C2    
 13027  13028   1    1.0930e-01    2.8108e+05 ;     C2 - HX    
 13027  13029   1    1.5350e-01    2.5363e+05 ;     C2 - C3    
 13027  13056   1    1.4390e-01    2.5230e+05 ;     C2 - O21   
 13029  13030   1    1.0930e-01    2.8108e+05 ;     C3 - HA    
 13029  13031   1    1.0930e-01    2.8108e+05 ;     C3 - HB    
 13029  13032   1    1.4390e-01    2.5230e+05 ;     C3 - O31   
 13032  13033   1    1.6100e-01    1.9246e+05 ;    O31 - P31   
 13033  13034   1    1.6100e-01    1.9246e+05 ;    P31 - O32   
 13033  13054   1    1.4800e-01    4.3932e+05 ;    P31 - O33   
 13033  13055   1    1.4800e-01    4.3932e+05 ;    P31 - O34   
 13034  13035   1    1.4390e-01    2.5230e+05 ;    O32 - C31   
 13035  13036   1    1.0930e-01    2.8108e+05 ;    C31 - H1A   
 13035  13037   1    1.0930e-01    2.8108e+05 ;    C31 - H1B   
 13035  13038   1    1.5350e-01    2.5363e+05 ;    C31 - C32   
 13038  13039   1    1.0910e-01    2.8342e+05 ;    C32 - H2A   
 13038  13040   1    1.0910e-01    2.8342e+05 ;    C32 - H2B   
 13038  13041   1    1.4990e-01    2.4568e+05 ;    C32 - N31   
 13041  13042   1    1.4990e-01    2.4568e+05 ;    N31 - C33   
 13041  13046   1    1.4990e-01    2.4568e+05 ;    N31 - C34   
 13041  13050   1    1.4990e-01    2.4568e+05 ;    N31 - C35   
 13042  13043   1    1.0910e-01    2.8342e+05 ;    C33 - H3A   
 13042  13044   1    1.0910e-01    2.8342e+05 ;    C33 - H3B   
 13042  13045   1    1.0910e-01    2.8342e+05 ;    C33 - H3C   
 13046  13047   1    1.0910e-01    2.8342e+05 ;    C34 - H4A   
 13046  13048   1    1.0910e-01    2.8342e+05 ;    C34 - H4B   
 13046  13049   1    1.0910e-01    2.8342e+05 ;    C34 - H4C   
 13050  13051   1    1.0910e-01    2.8342e+05 ;    C35 - H5A   
 13050  13052   1    1.0910e-01    2.8342e+05 ;    C35 - H5B   
 13050  13053   1    1.0910e-01    2.8342e+05 ;    C35 - H5C   
 13056  13057   1    1.3430e-01    3.4418e+05 ;    O21 - C21   
 13057  13058   1    1.2140e-01    5.4225e+05 ;    C21 - O22   
 13057  13096   1    1.5080e-01    2.7472e+05 ;    C21 - C12   
 13059  13060   1    1.0920e-01    2.8225e+05 ;   H14T - C114  
 13060  13061   1    1.0920e-01    2.8225e+05 ;   C114 - H14R  
 13060  13062   1    1.0920e-01    2.8225e+05 ;   C114 - H14S  
 13060  13063   1    1.5350e-01    2.5363e+05 ;   C114 - C113  
 13063  13064   1    1.0920e-01    2.8225e+05 ;   C113 - H13R  
 13063  13065   1    1.0920e-01    2.8225e+05 ;   C113 - H13S  
 13063  13066   1    1.5350e-01    2.5363e+05 ;   C113 - C112  
 13066  13067   1    1.0920e-01    2.8225e+05 ;   C112 - H12R  
 13066  13068   1    1.0920e-01    2.8225e+05 ;   C112 - H12S  
 13066  13069   1    1.5350e-01    2.5363e+05 ;   C112 - C111  
 13069  13070   1    1.0920e-01    2.8225e+05 ;   C111 - H11R  
 13069  13071   1    1.0920e-01    2.8225e+05 ;   C111 - H11S  
 13069  13072   1    1.5350e-01    2.5363e+05 ;   C111 - C110  
 13072  13073   1    1.0920e-01    2.8225e+05 ;   C110 - H10R  
 13072  13074   1    1.0920e-01    2.8225e+05 ;   C110 - H10S  
 13072  13075   1    1.5350e-01    2.5363e+05 ;   C110 - C19   
 13075  13076   1    1.0920e-01    2.8225e+05 ;    C19 - H9R   
 13075  13077   1    1.0920e-01    2.8225e+05 ;    C19 - H9S   
 13075  13078   1    1.5350e-01    2.5363e+05 ;    C19 - C18   
 13078  13079   1    1.0920e-01    2.8225e+05 ;    C18 - H8R   
 13078  13080   1    1.0920e-01    2.8225e+05 ;    C18 - H8S   
 13078  13081   1    1.5350e-01    2.5363e+05 ;    C18 - C17   
 13081  13082   1    1.0920e-01    2.8225e+05 ;    C17 - H7R   
 13081  13083   1    1.0920e-01    2.8225e+05 ;    C17 - H7S   
 13081  13084   1    1.5350e-01    2.5363e+05 ;    C17 - C16   
 13084  13085   1    1.0920e-01    2.8225e+05 ;    C16 - H6R   
 13084  13086   1    1.0920e-01    2.8225e+05 ;    C16 - H6S   
 13084  13087   1    1.5350e-01    2.5363e+05 ;    C16 - C15   
 13087  13088   1    1.0920e-01    2.8225e+05 ;    C15 - H5R   
 13087  13089   1    1.0920e-01    2.8225e+05 ;    C15 - H5S   
 13087  13090   1    1.5350e-01    2.5363e+05 ;    C15 - C14   
 13090  13091   1    1.0920e-01    2.8225e+05 ;    C14 - H4R   
 13090  13092   1    1.0920e-01    2.8225e+05 ;    C14 - H4S   
 13090  13093   1    1.5350e-01    2.5363e+05 ;    C14 - C13   
 13093  13094   1    1.0920e-01    2.8225e+05 ;    C13 - H3R   
 13093  13095   1    1.0920e-01    2.8225e+05 ;    C13 - H3S   
 13093  13096   1    1.5350e-01    2.5363e+05 ;    C13 - C12   
 13096  13097   1    1.0920e-01    2.8225e+05 ;    C12 - H2R   
 13096  13098   1    1.0920e-01    2.8225e+05 ;    C12 - H2S   
 13099  13100   1    1.0920e-01    2.8225e+05 ;   H14T - C114  
 13100  13101   1    1.0920e-01    2.8225e+05 ;   C114 - H14R  
 13100  13102   1    1.0920e-01    2.8225e+05 ;   C114 - H14S  
 13100  13103   1    1.5350e-01    2.5363e+05 ;   C114 - C113  
 13103  13104   1    1.0920e-01    2.8225e+05 ;   C113 - H13R  
 13103  13105   1    1.0920e-01    2.8225e+05 ;   C113 - H13S  
 13103  13106   1    1.5350e-01    2.5363e+05 ;   C113 - C112  
 13106  13107   1    1.0920e-01    2.8225e+05 ;   C112 - H12R  
 13106  13108   1    1.0920e-01    2.8225e+05 ;   C112 - H12S  
 13106  13109   1    1.5350e-01    2.5363e+05 ;   C112 - C111  
 13109  13110   1    1.0920e-01    2.8225e+05 ;   C111 - H11R  
 13109  13111   1    1.0920e-01    2.8225e+05 ;   C111 - H11S  
 13109  13112   1    1.5350e-01    2.5363e+05 ;   C111 - C110  
 13112  13113   1    1.0920e-01    2.8225e+05 ;   C110 - H10R  
 13112  13114   1    1.0920e-01    2.8225e+05 ;   C110 - H10S  
 13112  13115   1    1.5350e-01    2.5363e+05 ;   C110 - C19   
 13115  13116   1    1.0920e-01    2.8225e+05 ;    C19 - H9R   
 13115  13117   1    1.0920e-01    2.8225e+05 ;    C19 - H9S   
 13115  13118   1    1.5350e-01    2.5363e+05 ;    C19 - C18   
 13118  13119   1    1.0920e-01    2.8225e+05 ;    C18 - H8R   
 13118  13120   1    1.0920e-01    2.8225e+05 ;    C18 - H8S   
 13118  13121   1    1.5350e-01    2.5363e+05 ;    C18 - C17   
 13121  13122   1    1.0920e-01    2.8225e+05 ;    C17 - H7R   
 13121  13123   1    1.0920e-01    2.8225e+05 ;    C17 - H7S   
 13121  13124   1    1.5350e-01    2.5363e+05 ;    C17 - C16   
 13124  13125   1    1.0920e-01    2.8225e+05 ;    C16 - H6R   
 13124  13126   1    1.0920e-01    2.8225e+05 ;    C16 - H6S   
 13124  13127   1    1.5350e-01    2.5363e+05 ;    C16 - C15   
 13127  13128   1    1.0920e-01    2.8225e+05 ;    C15 - H5R   
 13127  13129   1    1.0920e-01    2.8225e+05 ;    C15 - H5S   
 13127  13130   1    1.5350e-01    2.5363e+05 ;    C15 - C14   
 13130  13131   1    1.0920e-01    2.8225e+05 ;    C14 - H4R   
 13130  13132   1    1.0920e-01    2.8225e+05 ;    C14 - H4S   
 13130  13133   1    1.5350e-01    2.5363e+05 ;    C14 - C13   
 13133  13134   1    1.0920e-01    2.8225e+05 ;    C13 - H3R   
 13133  13135   1    1.0920e-01    2.8225e+05 ;    C13 - H3S   
 13133  13136   1    1.5350e-01    2.5363e+05 ;    C13 - C12   
 13136  13137   1    1.0920e-01    2.8225e+05 ;    C12 - H2R   
 13136  13138   1    1.0920e-01    2.8225e+05 ;    C12 - H2S   
 13136  13139   1    1.5080e-01    2.7472e+05 ;    C12 - C11   
 13139  13140   1    1.2140e-01    5.4225e+05 ;    C11 - O12   
 13139  13141   1    1.3430e-01    3.4418e+05 ;    C11 - O11   
 13141  13142   1    1.4390e-01    2.5230e+05 ;    O11 - C1    
 13142  13143   1    1.0930e-01    2.8108e+05 ;     C1 - HR    
 13142  13144   1    1.0930e-01    2.8108e+05 ;     C1 - HS    
 13142  13145   1    1.5350e-01    2.5363e+05 ;     C1 - C2    
 13145  13146   1    1.0930e-01    2.8108e+05 ;     C2 - HX    
 13145  13147   1    1.5350e-01    2.5363e+05 ;     C2 - C3    
 13145  13174   1    1.4390e-01    2.5230e+05 ;     C2 - O21   
 13147  13148   1    1.0930e-01    2.8108e+05 ;     C3 - HA    
 13147  13149   1    1.0930e-01    2.8108e+05 ;     C3 - HB    
 13147  13150   1    1.4390e-01    2.5230e+05 ;     C3 - O31   
 13150  13151   1    1.6100e-01    1.9246e+05 ;    O31 - P31   
 13151  13152   1    1.6100e-01    1.9246e+05 ;    P31 - O32   
 13151  13172   1    1.4800e-01    4.3932e+05 ;    P31 - O33   
 13151  13173   1    1.4800e-01    4.3932e+05 ;    P31 - O34   
 13152  13153   1    1.4390e-01    2.5230e+05 ;    O32 - C31   
 13153  13154   1    1.0930e-01    2.8108e+05 ;    C31 - H1A   
 13153  13155   1    1.0930e-01    2.8108e+05 ;    C31 - H1B   
 13153  13156   1    1.5350e-01    2.5363e+05 ;    C31 - C32   
 13156  13157   1    1.0910e-01    2.8342e+05 ;    C32 - H2A   
 13156  13158   1    1.0910e-01    2.8342e+05 ;    C32 - H2B   
 13156  13159   1    1.4990e-01    2.4568e+05 ;    C32 - N31   
 13159  13160   1    1.4990e-01    2.4568e+05 ;    N31 - C33   
 13159  13164   1    1.4990e-01    2.4568e+05 ;    N31 - C34   
 13159  13168   1    1.4990e-01    2.4568e+05 ;    N31 - C35   
 13160  13161   1    1.0910e-01    2.8342e+05 ;    C33 - H3A   
 13160  13162   1    1.0910e-01    2.8342e+05 ;    C33 - H3B   
 13160  13163   1    1.0910e-01    2.8342e+05 ;    C33 - H3C   
 13164  13165   1    1.0910e-01    2.8342e+05 ;    C34 - H4A   
 13164  13166   1    1.0910e-01    2.8342e+05 ;    C34 - H4B   
 13164  13167   1    1.0910e-01    2.8342e+05 ;    C34 - H4C   
 13168  13169   1    1.0910e-01    2.8342e+05 ;    C35 - H5A   
 13168  13170   1    1.0910e-01    2.8342e+05 ;    C35 - H5B   
 13168  13171   1    1.0910e-01    2.8342e+05 ;    C35 - H5C   
 13174  13175   1    1.3430e-01    3.4418e+05 ;    O21 - C21   
 13175  13176   1    1.2140e-01    5.4225e+05 ;    C21 - O22   
 13175  13214   1    1.5080e-01    2.7472e+05 ;    C21 - C12   
 13177  13178   1    1.0920e-01    2.8225e+05 ;   H14T - C114  
 13178  13179   1    1.0920e-01    2.8225e+05 ;   C114 - H14R  
 13178  13180   1    1.0920e-01    2.8225e+05 ;   C114 - H14S  
 13178  13181   1    1.5350e-01    2.5363e+05 ;   C114 - C113  
 13181  13182   1    1.0920e-01    2.8225e+05 ;   C113 - H13R  
 13181  13183   1    1.0920e-01    2.8225e+05 ;   C113 - H13S  
 13181  13184   1    1.5350e-01    2.5363e+05 ;   C113 - C112  
 13184  13185   1    1.0920e-01    2.8225e+05 ;   C112 - H12R  
 13184  13186   1    1.0920e-01    2.8225e+05 ;   C112 - H12S  
 13184  13187   1    1.5350e-01    2.5363e+05 ;   C112 - C111  
 13187  13188   1    1.0920e-01    2.8225e+05 ;   C111 - H11R  
 13187  13189   1    1.0920e-01    2.8225e+05 ;   C111 - H11S  
 13187  13190   1    1.5350e-01    2.5363e+05 ;   C111 - C110  
 13190  13191   1    1.0920e-01    2.8225e+05 ;   C110 - H10R  
 13190  13192   1    1.0920e-01    2.8225e+05 ;   C110 - H10S  
 13190  13193   1    1.5350e-01    2.5363e+05 ;   C110 - C19   
 13193  13194   1    1.0920e-01    2.8225e+05 ;    C19 - H9R   
 13193  13195   1    1.0920e-01    2.8225e+05 ;    C19 - H9S   
 13193  13196   1    1.5350e-01    2.5363e+05 ;    C19 - C18   
 13196  13197   1    1.0920e-01    2.8225e+05 ;    C18 - H8R   
 13196  13198   1    1.0920e-01    2.8225e+05 ;    C18 - H8S   
 13196  13199   1    1.5350e-01    2.5363e+05 ;    C18 - C17   
 13199  13200   1    1.0920e-01    2.8225e+05 ;    C17 - H7R   
 13199  13201   1    1.0920e-01    2.8225e+05 ;    C17 - H7S   
 13199  13202   1    1.5350e-01    2.5363e+05 ;    C17 - C16   
 13202  13203   1    1.0920e-01    2.8225e+05 ;    C16 - H6R   
 13202  13204   1    1.0920e-01    2.8225e+05 ;    C16 - H6S   
 13202  13205   1    1.5350e-01    2.5363e+05 ;    C16 - C15   
 13205  13206   1    1.0920e-01    2.8225e+05 ;    C15 - H5R   
 13205  13207   1    1.0920e-01    2.8225e+05 ;    C15 - H5S   
 13205  13208   1    1.5350e-01    2.5363e+05 ;    C15 - C14   
 13208  13209   1    1.0920e-01    2.8225e+05 ;    C14 - H4R   
 13208  13210   1    1.0920e-01    2.8225e+05 ;    C14 - H4S   
 13208  13211   1    1.5350e-01    2.5363e+05 ;    C14 - C13   
 13211  13212   1    1.0920e-01    2.8225e+05 ;    C13 - H3R   
 13211  13213   1    1.0920e-01    2.8225e+05 ;    C13 - H3S   
 13211  13214   1    1.5350e-01    2.5363e+05 ;    C13 - C12   
 13214  13215   1    1.0920e-01    2.8225e+05 ;    C12 - H2R   
 13214  13216   1    1.0920e-01    2.8225e+05 ;    C12 - H2S   
 13217  13218   1    1.0920e-01    2.8225e+05 ;   H14T - C114  
 13218  13219   1    1.0920e-01    2.8225e+05 ;   C114 - H14R  
 13218  13220   1    1.0920e-01    2.8225e+05 ;   C114 - H14S  
 13218  13221   1    1.5350e-01    2.5363e+05 ;   C114 - C113  
 13221  13222   1    1.0920e-01    2.8225e+05 ;   C113 - H13R  
 13221  13223   1    1.0920e-01    2.8225e+05 ;   C113 - H13S  
 13221  13224   1    1.5350e-01    2.5363e+05 ;   C113 - C112  
 13224  13225   1    1.0920e-01    2.8225e+05 ;   C112 - H12R  
 13224  13226   1    1.0920e-01    2.8225e+05 ;   C112 - H12S  
 13224  13227   1    1.5350e-01    2.5363e+05 ;   C112 - C111  
 13227  13228   1    1.0920e-01    2.8225e+05 ;   C111 - H11R  
 13227  13229   1    1.0920e-01    2.8225e+05 ;   C111 - H11S  
 13227  13230   1    1.5350e-01    2.5363e+05 ;   C111 - C110  
 13230  13231   1    1.0920e-01    2.8225e+05 ;   C110 - H10R  
 13230  13232   1    1.0920e-01    2.8225e+05 ;   C110 - H10S  
 13230  13233   1    1.5350e-01    2.5363e+05 ;   C110 - C19   
 13233  13234   1    1.0920e-01    2.8225e+05 ;    C19 - H9R   
 13233  13235   1    1.0920e-01    2.8225e+05 ;    C19 - H9S   
 13233  13236   1    1.5350e-01    2.5363e+05 ;    C19 - C18   
 13236  13237   1    1.0920e-01    2.8225e+05 ;    C18 - H8R   
 13236  13238   1    1.0920e-01    2.8225e+05 ;    C18 - H8S   
 13236  13239   1    1.5350e-01    2.5363e+05 ;    C18 - C17   
 13239  13240   1    1.0920e-01    2.8225e+05 ;    C17 - H7R   
 13239  13241   1    1.0920e-01    2.8225e+05 ;    C17 - H7S   
 13239  13242   1    1.5350e-01    2.5363e+05 ;    C17 - C16   
 13242  13243   1    1.0920e-01    2.8225e+05 ;    C16 - H6R   
 13242  13244   1    1.0920e-01    2.8225e+05 ;    C16 - H6S   
 13242  13245   1    1.5350e-01    2.5363e+05 ;    C16 - C15   
 13245  13246   1    1.0920e-01    2.8225e+05 ;    C15 - H5R   
 13245  13247   1    1.0920e-01    2.8225e+05 ;    C15 - H5S   
 13245  13248   1    1.5350e-01    2.5363e+05 ;    C15 - C14   
 13248  13249   1    1.0920e-01    2.8225e+05 ;    C14 - H4R   
 13248  13250   1    1.0920e-01    2.8225e+05 ;    C14 - H4S   
 13248  13251   1    1.5350e-01    2.5363e+05 ;    C14 - C13   
 13251  13252   1    1.0920e-01    2.8225e+05 ;    C13 - H3R   
 13251  13253   1    1.0920e-01    2.8225e+05 ;    C13 - H3S   
 13251  13254   1    1.5350e-01    2.5363e+05 ;    C13 - C12   
 13254  13255   1    1.0920e-01    2.8225e+05 ;    C12 - H2R   
 13254  13256   1    1.0920e-01    2.8225e+05 ;    C12 - H2S   
 13254  13257   1    1.5080e-01    2.7472e+05 ;    C12 - C11   
 13257  13258   1    1.2140e-01    5.4225e+05 ;    C11 - O12   
 13257  13259   1    1.3430e-01    3.4418e+05 ;    C11 - O11   
 13259  13260   1    1.4390e-01    2.5230e+05 ;    O11 - C1    
 13260  13261   1    1.0930e-01    2.8108e+05 ;     C1 - HR    
 13260  13262   1    1.0930e-01    2.8108e+05 ;     C1 - HS    
 13260  13263   1    1.5350e-01    2.5363e+05 ;     C1 - C2    
 13263  13264   1    1.0930e-01    2.8108e+05 ;     C2 - HX    
 13263  13265   1    1.5350e-01    2.5363e+05 ;     C2 - C3    
 13263  13292   1    1.4390e-01    2.5230e+05 ;     C2 - O21   
 13265  13266   1    1.0930e-01    2.8108e+05 ;     C3 - HA    
 13265  13267   1    1.0930e-01    2.8108e+05 ;     C3 - HB    
 13265  13268   1    1.4390e-01    2.5230e+05 ;     C3 - O31   
 13268  13269   1    1.6100e-01    1.9246e+05 ;    O31 - P31   
 13269  13270   1    1.6100e-01    1.9246e+05 ;    P31 - O32   
 13269  13290   1    1.4800e-01    4.3932e+05 ;    P31 - O33   
 13269  13291   1    1.4800e-01    4.3932e+05 ;    P31 - O34   
 13270  13271   1    1.4390e-01    2.5230e+05 ;    O32 - C31   
 13271  13272   1    1.0930e-01    2.8108e+05 ;    C31 - H1A   
 13271  13273   1    1.0930e-01    2.8108e+05 ;    C31 - H1B   
 13271  13274   1    1.5350e-01    2.5363e+05 ;    C31 - C32   
 13274  13275   1    1.0910e-01    2.8342e+05 ;    C32 - H2A   
 13274  13276   1    1.0910e-01    2.8342e+05 ;    C32 - H2B   
 13274  13277   1    1.4990e-01    2.4568e+05 ;    C32 - N31   
 13277  13278   1    1.4990e-01    2.4568e+05 ;    N31 - C33   
 13277  13282   1    1.4990e-01    2.4568e+05 ;    N31 - C34   
 13277  13286   1    1.4990e-01    2.4568e+05 ;    N31 - C35   
 13278  13279   1    1.0910e-01    2.8342e+05 ;    C33 - H3A   
 13278  13280   1    1.0910e-01    2.8342e+05 ;    C33 - H3B   
 13278  13281   1    1.0910e-01    2.8342e+05 ;    C33 - H3C   
 13282  13283   1    1.0910e-01    2.8342e+05 ;    C34 - H4A   
 13282  13284   1    1.0910e-01    2.8342e+05 ;    C34 - H4B   
 13282  13285   1    1.0910e-01    2.8342e+05 ;    C34 - H4C   
 13286  13287   1    1.0910e-01    2.8342e+05 ;    C35 - H5A   
 13286  13288   1    1.0910e-01    2.8342e+05 ;    C35 - H5B   
 13286  13289   1    1.0910e-01    2.8342e+05 ;    C35 - H5C   
 13292  13293   1    1.3430e-01    3.4418e+05 ;    O21 - C21   
 13293  13294   1    1.2140e-01    5.4225e+05 ;    C21 - O22   
 13293  13332   1    1.5080e-01    2.7472e+05 ;    C21 - C12   
 13295  13296   1    1.0920e-01    2.8225e+05 ;   H14T - C114  
 13296  13297   1    1.0920e-01    2.8225e+05 ;   C114 - H14R  
 13296  13298   1    1.0920e-01    2.8225e+05 ;   C114 - H14S  
 13296  13299   1    1.5350e-01    2.5363e+05 ;   C114 - C113  
 13299  13300   1    1.0920e-01    2.8225e+05 ;   C113 - H13R  
 13299  13301   1    1.0920e-01    2.8225e+05 ;   C113 - H13S  
 13299  13302   1    1.5350e-01    2.5363e+05 ;   C113 - C112  
 13302  13303   1    1.0920e-01    2.8225e+05 ;   C112 - H12R  
 13302  13304   1    1.0920e-01    2.8225e+05 ;   C112 - H12S  
 13302  13305   1    1.5350e-01    2.5363e+05 ;   C112 - C111  
 13305  13306   1    1.0920e-01    2.8225e+05 ;   C111 - H11R  
 13305  13307   1    1.0920e-01    2.8225e+05 ;   C111 - H11S  
 13305  13308   1    1.5350e-01    2.5363e+05 ;   C111 - C110  
 13308  13309   1    1.0920e-01    2.8225e+05 ;   C110 - H10R  
 13308  13310   1    1.0920e-01    2.8225e+05 ;   C110 - H10S  
 13308  13311   1    1.5350e-01    2.5363e+05 ;   C110 - C19   
 13311  13312   1    1.0920e-01    2.8225e+05 ;    C19 - H9R   
 13311  13313   1    1.0920e-01    2.8225e+05 ;    C19 - H9S   
 13311  13314   1    1.5350e-01    2.5363e+05 ;    C19 - C18   
 13314  13315   1    1.0920e-01    2.8225e+05 ;    C18 - H8R   
 13314  13316   1    1.0920e-01    2.8225e+05 ;    C18 - H8S   
 13314  13317   1    1.5350e-01    2.5363e+05 ;    C18 - C17   
 13317  13318   1    1.0920e-01    2.8225e+05 ;    C17 - H7R   
 13317  13319   1    1.0920e-01    2.8225e+05 ;    C17 - H7S   
 13317  13320   1    1.5350e-01    2.5363e+05 ;    C17 - C16   
 13320  13321   1    1.0920e-01    2.8225e+05 ;    C16 - H6R   
 13320  13322   1    1.0920e-01    2.8225e+05 ;    C16 - H6S   
 13320  13323   1    1.5350e-01    2.5363e+05 ;    C16 - C15   
 13323  13324   1    1.0920e-01    2.8225e+05 ;    C15 - H5R   
 13323  13325   1    1.0920e-01    2.8225e+05 ;    C15 - H5S   
 13323  13326   1    1.5350e-01    2.5363e+05 ;    C15 - C14   
 13326  13327   1    1.0920e-01    2.8225e+05 ;    C14 - H4R   
 13326  13328   1    1.0920e-01    2.8225e+05 ;    C14 - H4S   
 13326  13329   1    1.5350e-01    2.5363e+05 ;    C14 - C13   
 13329  13330   1    1.0920e-01    2.8225e+05 ;    C13 - H3R   
 13329  13331   1    1.0920e-01    2.8225e+05 ;    C13 - H3S   
 13329  13332   1    1.5350e-01    2.5363e+05 ;    C13 - C12   
 13332  13333   1    1.0920e-01    2.8225e+05 ;    C12 - H2R   
 13332  13334   1    1.0920e-01    2.8225e+05 ;    C12 - H2S   
 13335  13336   1    1.0920e-01    2.8225e+05 ;   H14T - C114  
 13336  13337   1    1.0920e-01    2.8225e+05 ;   C114 - H14R  
 13336  13338   1    1.0920e-01    2.8225e+05 ;   C114 - H14S  
 13336  13339   1    1.5350e-01    2.5363e+05 ;   C114 - C113  
 13339  13340   1    1.0920e-01    2.8225e+05 ;   C113 - H13R  
 13339  13341   1    1.0920e-01    2.8225e+05 ;   C113 - H13S  
 13339  13342   1    1.5350e-01    2.5363e+05 ;   C113 - C112  
 13342  13343   1    1.0920e-01    2.8225e+05 ;   C112 - H12R  
 13342  13344   1    1.0920e-01    2.8225e+05 ;   C112 - H12S  
 13342  13345   1    1.5350e-01    2.5363e+05 ;   C112 - C111  
 13345  13346   1    1.0920e-01    2.8225e+05 ;   C111 - H11R  
 13345  13347   1    1.0920e-01    2.8225e+05 ;   C111 - H11S  
 13345  13348   1    1.5350e-01    2.5363e+05 ;   C111 - C110  
 13348  13349   1    1.0920e-01    2.8225e+05 ;   C110 - H10R  
 13348  13350   1    1.0920e-01    2.8225e+05 ;   C110 - H10S  
 13348  13351   1    1.5350e-01    2.5363e+05 ;   C110 - C19   
 13351  13352   1    1.0920e-01    2.8225e+05 ;    C19 - H9R   
 13351  13353   1    1.0920e-01    2.8225e+05 ;    C19 - H9S   
 13351  13354   1    1.5350e-01    2.5363e+05 ;    C19 - C18   
 13354  13355   1    1.0920e-01    2.8225e+05 ;    C18 - H8R   
 13354  13356   1    1.0920e-01    2.8225e+05 ;    C18 - H8S   
 13354  13357   1    1.5350e-01    2.5363e+05 ;    C18 - C17   
 13357  13358   1    1.0920e-01    2.8225e+05 ;    C17 - H7R   
 13357  13359   1    1.0920e-01    2.8225e+05 ;    C17 - H7S   
 13357  13360   1    1.5350e-01    2.5363e+05 ;    C17 - C16   
 13360  13361   1    1.0920e-01    2.8225e+05 ;    C16 - H6R   
 13360  13362   1    1.0920e-01    2.8225e+05 ;    C16 - H6S   
 13360  13363   1    1.5350e-01    2.5363e+05 ;    C16 - C15   
 13363  13364   1    1.0920e-01    2.8225e+05 ;    C15 - H5R   
 13363  13365   1    1.0920e-01    2.8225e+05 ;    C15 - H5S   
 13363  13366   1    1.5350e-01    2.5363e+05 ;    C15 - C14   
 13366  13367   1    1.0920e-01    2.8225e+05 ;    C14 - H4R   
 13366  13368   1    1.0920e-01    2.8225e+05 ;    C14 - H4S   
 13366  13369   1    1.5350e-01    2.5363e+05 ;    C14 - C13   
 13369  13370   1    1.0920e-01    2.8225e+05 ;    C13 - H3R   
 13369  13371   1    1.0920e-01    2.8225e+05 ;    C13 - H3S   
 13369  13372   1    1.5350e-01    2.5363e+05 ;    C13 - C12   
 13372  13373   1    1.0920e-01    2.8225e+05 ;    C12 - H2R   
 13372  13374   1    1.0920e-01    2.8225e+05 ;    C12 - H2S   
 13372  13375   1    1.5080e-01    2.7472e+05 ;    C12 - C11   
 13375  13376   1    1.2140e-01    5.4225e+05 ;    C11 - O12   
 13375  13377   1    1.3430e-01    3.4418e+05 ;    C11 - O11   
 13377  13378   1    1.4390e-01    2.5230e+05 ;    O11 - C1    
 13378  13379   1    1.0930e-01    2.8108e+05 ;     C1 - HR    
 13378  13380   1    1.0930e-01    2.8108e+05 ;     C1 - HS    
 13378  13381   1    1.5350e-01    2.5363e+05 ;     C1 - C2    
 13381  13382   1    1.0930e-01    2.8108e+05 ;     C2 - HX    
 13381  13383   1    1.5350e-01    2.5363e+05 ;     C2 - C3    
 13381  13410   1    1.4390e-01    2.5230e+05 ;     C2 - O21   
 13383  13384   1    1.0930e-01    2.8108e+05 ;     C3 - HA    
 13383  13385   1    1.0930e-01    2.8108e+05 ;     C3 - HB    
 13383  13386   1    1.4390e-01    2.5230e+05 ;     C3 - O31   
 13386  13387   1    1.6100e-01    1.9246e+05 ;    O31 - P31   
 13387  13388   1    1.6100e-01    1.9246e+05 ;    P31 - O32   
 13387  13408   1    1.4800e-01    4.3932e+05 ;    P31 - O33   
 13387  13409   1    1.4800e-01    4.3932e+05 ;    P31 - O34   
 13388  13389   1    1.4390e-01    2.5230e+05 ;    O32 - C31   
 13389  13390   1    1.0930e-01    2.8108e+05 ;    C31 - H1A   
 13389  13391   1    1.0930e-01    2.8108e+05 ;    C31 - H1B   
 13389  13392   1    1.5350e-01    2.5363e+05 ;    C31 - C32   
 13392  13393   1    1.0910e-01    2.8342e+05 ;    C32 - H2A   
 13392  13394   1    1.0910e-01    2.8342e+05 ;    C32 - H2B   
 13392  13395   1    1.4990e-01    2.4568e+05 ;    C32 - N31   
 13395  13396   1    1.4990e-01    2.4568e+05 ;    N31 - C33   
 13395  13400   1    1.4990e-01    2.4568e+05 ;    N31 - C34   
 13395  13404   1    1.4990e-01    2.4568e+05 ;    N31 - C35   
 13396  13397   1    1.0910e-01    2.8342e+05 ;    C33 - H3A   
 13396  13398   1    1.0910e-01    2.8342e+05 ;    C33 - H3B   
 13396  13399   1    1.0910e-01    2.8342e+05 ;    C33 - H3C   
 13400  13401   1    1.0910e-01    2.8342e+05 ;    C34 - H4A   
 13400  13402   1    1.0910e-01    2.8342e+05 ;    C34 - H4B   
 13400  13403   1    1.0910e-01    2.8342e+05 ;    C34 - H4C   
 13404  13405   1    1.0910e-01    2.8342e+05 ;    C35 - H5A   
 13404  13406   1    1.0910e-01    2.8342e+05 ;    C35 - H5B   
 13404  13407   1    1.0910e-01    2.8342e+05 ;    C35 - H5C   
 13410  13411   1    1.3430e-01    3.4418e+05 ;    O21 - C21   
 13411  13412   1    1.2140e-01    5.4225e+05 ;    C21 - O22   
 13411  13450   1    1.5080e-01    2.7472e+05 ;    C21 - C12   
 13413  13414   1    1.0920e-01    2.8225e+05 ;   H14T - C114  
 13414  13415   1    1.0920e-01    2.8225e+05 ;   C114 - H14R  
 13414  13416   1    1.0920e-01    2.8225e+05 ;   C114 - H14S  
 13414  13417   1    1.5350e-01    2.5363e+05 ;   C114 - C113  
 13417  13418   1    1.0920e-01    2.8225e+05 ;   C113 - H13R  
 13417  13419   1    1.0920e-01    2.8225e+05 ;   C113 - H13S  
 13417  13420   1    1.5350e-01    2.5363e+05 ;   C113 - C112  
 13420  13421   1    1.0920e-01    2.8225e+05 ;   C112 - H12R  
 13420  13422   1    1.0920e-01    2.8225e+05 ;   C112 - H12S  
 13420  13423   1    1.5350e-01    2.5363e+05 ;   C112 - C111  
 13423  13424   1    1.0920e-01    2.8225e+05 ;   C111 - H11R  
 13423  13425   1    1.0920e-01    2.8225e+05 ;   C111 - H11S  
 13423  13426   1    1.5350e-01    2.5363e+05 ;   C111 - C110  
 13426  13427   1    1.0920e-01    2.8225e+05 ;   C110 - H10R  
 13426  13428   1    1.0920e-01    2.8225e+05 ;   C110 - H10S  
 13426  13429   1    1.5350e-01    2.5363e+05 ;   C110 - C19   
 13429  13430   1    1.0920e-01    2.8225e+05 ;    C19 - H9R   
 13429  13431   1    1.0920e-01    2.8225e+05 ;    C19 - H9S   
 13429  13432   1    1.5350e-01    2.5363e+05 ;    C19 - C18   
 13432  13433   1    1.0920e-01    2.8225e+05 ;    C18 - H8R   
 13432  13434   1    1.0920e-01    2.8225e+05 ;    C18 - H8S   
 13432  13435   1    1.5350e-01    2.5363e+05 ;    C18 - C17   
 13435  13436   1    1.0920e-01    2.8225e+05 ;    C17 - H7R   
 13435  13437   1    1.0920e-01    2.8225e+05 ;    C17 - H7S   
 13435  13438   1    1.5350e-01    2.5363e+05 ;    C17 - C16   
 13438  13439   1    1.0920e-01    2.8225e+05 ;    C16 - H6R   
 13438  13440   1    1.0920e-01    2.8225e+05 ;    C16 - H6S   
 13438  13441   1    1.5350e-01    2.5363e+05 ;    C16 - C15   
 13441  13442   1    1.0920e-01    2.8225e+05 ;    C15 - H5R   
 13441  13443   1    1.0920e-01    2.8225e+05 ;    C15 - H5S   
 13441  13444   1    1.5350e-01    2.5363e+05 ;    C15 - C14   
 13444  13445   1    1.0920e-01    2.8225e+05 ;    C14 - H4R   
 13444  13446   1    1.0920e-01    2.8225e+05 ;    C14 - H4S   
 13444  13447   1    1.5350e-01    2.5363e+05 ;    C14 - C13   
 13447  13448   1    1.0920e-01    2.8225e+05 ;    C13 - H3R   
 13447  13449   1    1.0920e-01    2.8225e+05 ;    C13 - H3S   
 13447  13450   1    1.5350e-01    2.5363e+05 ;    C13 - C12   
 13450  13451   1    1.0920e-01    2.8225e+05 ;    C12 - H2R   
 13450  13452   1    1.0920e-01    2.8225e+05 ;    C12 - H2S   
 13453  13454   1    1.0920e-01    2.8225e+05 ;   H14T - C114  
 13454  13455   1    1.0920e-01    2.8225e+05 ;   C114 - H14R  
 13454  13456   1    1.0920e-01    2.8225e+05 ;   C114 - H14S  
 13454  13457   1    1.5350e-01    2.5363e+05 ;   C114 - C113  
 13457  13458   1    1.0920e-01    2.8225e+05 ;   C113 - H13R  
 13457  13459   1    1.0920e-01    2.8225e+05 ;   C113 - H13S  
 13457  13460   1    1.5350e-01    2.5363e+05 ;   C113 - C112  
 13460  13461   1    1.0920e-01    2.8225e+05 ;   C112 - H12R  
 13460  13462   1    1.0920e-01    2.8225e+05 ;   C112 - H12S  
 13460  13463   1    1.5350e-01    2.5363e+05 ;   C112 - C111  
 13463  13464   1    1.0920e-01    2.8225e+05 ;   C111 - H11R  
 13463  13465   1    1.0920e-01    2.8225e+05 ;   C111 - H11S  
 13463  13466   1    1.5350e-01    2.5363e+05 ;   C111 - C110  
 13466  13467   1    1.0920e-01    2.8225e+05 ;   C110 - H10R  
 13466  13468   1    1.0920e-01    2.8225e+05 ;   C110 - H10S  
 13466  13469   1    1.5350e-01    2.5363e+05 ;   C110 - C19   
 13469  13470   1    1.0920e-01    2.8225e+05 ;    C19 - H9R   
 13469  13471   1    1.0920e-01    2.8225e+05 ;    C19 - H9S   
 13469  13472   1    1.5350e-01    2.5363e+05 ;    C19 - C18   
 13472  13473   1    1.0920e-01    2.8225e+05 ;    C18 - H8R   
 13472  13474   1    1.0920e-01    2.8225e+05 ;    C18 - H8S   
 13472  13475   1    1.5350e-01    2.5363e+05 ;    C18 - C17   
 13475  13476   1    1.0920e-01    2.8225e+05 ;    C17 - H7R   
 13475  13477   1    1.0920e-01    2.8225e+05 ;    C17 - H7S   
 13475  13478   1    1.5350e-01    2.5363e+05 ;    C17 - C16   
 13478  13479   1    1.0920e-01    2.8225e+05 ;    C16 - H6R   
 13478  13480   1    1.0920e-01    2.8225e+05 ;    C16 - H6S   
 13478  13481   1    1.5350e-01    2.5363e+05 ;    C16 - C15   
 13481  13482   1    1.0920e-01    2.8225e+05 ;    C15 - H5R   
 13481  13483   1    1.0920e-01    2.8225e+05 ;    C15 - H5S   
 13481  13484   1    1.5350e-01    2.5363e+05 ;    C15 - C14   
 13484  13485   1    1.0920e-01    2.8225e+05 ;    C14 - H4R   
 13484  13486   1    1.0920e-01    2.8225e+05 ;    C14 - H4S   
 13484  13487   1    1.5350e-01    2.5363e+05 ;    C14 - C13   
 13487  13488   1    1.0920e-01    2.8225e+05 ;    C13 - H3R   
 13487  13489   1    1.0920e-01    2.8225e+05 ;    C13 - H3S   
 13487  13490   1    1.5350e-01    2.5363e+05 ;    C13 - C12   
 13490  13491   1    1.0920e-01    2.8225e+05 ;    C12 - H2R   
 13490  13492   1    1.0920e-01    2.8225e+05 ;    C12 - H2S   
 13490  13493   1    1.5080e-01    2.7472e+05 ;    C12 - C11   
 13493  13494   1    1.2140e-01    5.4225e+05 ;    C11 - O12   
 13493  13495   1    1.3430e-01    3.4418e+05 ;    C11 - O11   
 13495  13496   1    1.4390e-01    2.5230e+05 ;    O11 - C1    
 13496  13497   1    1.0930e-01    2.8108e+05 ;     C1 - HR    
 13496  13498   1    1.0930e-01    2.8108e+05 ;     C1 - HS    
 13496  13499   1    1.5350e-01    2.5363e+05 ;     C1 - C2    
 13499  13500   1    1.0930e-01    2.8108e+05 ;     C2 - HX    
 13499  13501   1    1.5350e-01    2.5363e+05 ;     C2 - C3    
 13499  13528   1    1.4390e-01    2.5230e+05 ;     C2 - O21   
 13501  13502   1    1.0930e-01    2.8108e+05 ;     C3 - HA    
 13501  13503   1    1.0930e-01    2.8108e+05 ;     C3 - HB    
 13501  13504   1    1.4390e-01    2.5230e+05 ;     C3 - O31   
 13504  13505   1    1.6100e-01    1.9246e+05 ;    O31 - P31   
 13505  13506   1    1.6100e-01    1.9246e+05 ;    P31 - O32   
 13505  13526   1    1.4800e-01    4.3932e+05 ;    P31 - O33   
 13505  13527   1    1.4800e-01    4.3932e+05 ;    P31 - O34   
 13506  13507   1    1.4390e-01    2.5230e+05 ;    O32 - C31   
 13507  13508   1    1.0930e-01    2.8108e+05 ;    C31 - H1A   
 13507  13509   1    1.0930e-01    2.8108e+05 ;    C31 - H1B   
 13507  13510   1    1.5350e-01    2.5363e+05 ;    C31 - C32   
 13510  13511   1    1.0910e-01    2.8342e+05 ;    C32 - H2A   
 13510  13512   1    1.0910e-01    2.8342e+05 ;    C32 - H2B   
 13510  13513   1    1.4990e-01    2.4568e+05 ;    C32 - N31   
 13513  13514   1    1.4990e-01    2.4568e+05 ;    N31 - C33   
 13513  13518   1    1.4990e-01    2.4568e+05 ;    N31 - C34   
 13513  13522   1    1.4990e-01    2.4568e+05 ;    N31 - C35   
 13514  13515   1    1.0910e-01    2.8342e+05 ;    C33 - H3A   
 13514  13516   1    1.0910e-01    2.8342e+05 ;    C33 - H3B   
 13514  13517   1    1.0910e-01    2.8342e+05 ;    C33 - H3C   
 13518  13519   1    1.0910e-01    2.8342e+05 ;    C34 - H4A   
 13518  13520   1    1.0910e-01    2.8342e+05 ;    C34 - H4B   
 13518  13521   1    1.0910e-01    2.8342e+05 ;    C34 - H4C   
 13522  13523   1    1.0910e-01    2.8342e+05 ;    C35 - H5A   
 13522  13524   1    1.0910e-01    2.8342e+05 ;    C35 - H5B   
 13522  13525   1    1.0910e-01    2.8342e+05 ;    C35 - H5C   
 13528  13529   1    1.3430e-01    3.4418e+05 ;    O21 - C21   
 13529  13530   1    1.2140e-01    5.4225e+05 ;    C21 - O22   
 13529  13568   1    1.5080e-01    2.7472e+05 ;    C21 - C12   
 13531  13532   1    1.0920e-01    2.8225e+05 ;   H14T - C114  
 13532  13533   1    1.0920e-01    2.8225e+05 ;   C114 - H14R  
 13532  13534   1    1.0920e-01    2.8225e+05 ;   C114 - H14S  
 13532  13535   1    1.5350e-01    2.5363e+05 ;   C114 - C113  
 13535  13536   1    1.0920e-01    2.8225e+05 ;   C113 - H13R  
 13535  13537   1    1.0920e-01    2.8225e+05 ;   C113 - H13S  
 13535  13538   1    1.5350e-01    2.5363e+05 ;   C113 - C112  
 13538  13539   1    1.0920e-01    2.8225e+05 ;   C112 - H12R  
 13538  13540   1    1.0920e-01    2.8225e+05 ;   C112 - H12S  
 13538  13541   1    1.5350e-01    2.5363e+05 ;   C112 - C111  
 13541  13542   1    1.0920e-01    2.8225e+05 ;   C111 - H11R  
 13541  13543   1    1.0920e-01    2.8225e+05 ;   C111 - H11S  
 13541  13544   1    1.5350e-01    2.5363e+05 ;   C111 - C110  
 13544  13545   1    1.0920e-01    2.8225e+05 ;   C110 - H10R  
 13544  13546   1    1.0920e-01    2.8225e+05 ;   C110 - H10S  
 13544  13547   1    1.5350e-01    2.5363e+05 ;   C110 - C19   
 13547  13548   1    1.0920e-01    2.8225e+05 ;    C19 - H9R   
 13547  13549   1    1.0920e-01    2.8225e+05 ;    C19 - H9S   
 13547  13550   1    1.5350e-01    2.5363e+05 ;    C19 - C18   
 13550  13551   1    1.0920e-01    2.8225e+05 ;    C18 - H8R   
 13550  13552   1    1.0920e-01    2.8225e+05 ;    C18 - H8S   
 13550  13553   1    1.5350e-01    2.5363e+05 ;    C18 - C17   
 13553  13554   1    1.0920e-01    2.8225e+05 ;    C17 - H7R   
 13553  13555   1    1.0920e-01    2.8225e+05 ;    C17 - H7S   
 13553  13556   1    1.5350e-01    2.5363e+05 ;    C17 - C16   
 13556  13557   1    1.0920e-01    2.8225e+05 ;    C16 - H6R   
 13556  13558   1    1.0920e-01    2.8225e+05 ;    C16 - H6S   
 13556  13559   1    1.5350e-01    2.5363e+05 ;    C16 - C15   
 13559  13560   1    1.0920e-01    2.8225e+05 ;    C15 - H5R   
 13559  13561   1    1.0920e-01    2.8225e+05 ;    C15 - H5S   
 13559  13562   1    1.5350e-01    2.5363e+05 ;    C15 - C14   
 13562  13563   1    1.0920e-01    2.8225e+05 ;    C14 - H4R   
 13562  13564   1    1.0920e-01    2.8225e+05 ;    C14 - H4S   
 13562  13565   1    1.5350e-01    2.5363e+05 ;    C14 - C13   
 13565  13566   1    1.0920e-01    2.8225e+05 ;    C13 - H3R   
 13565  13567   1    1.0920e-01    2.8225e+05 ;    C13 - H3S   
 13565  13568   1    1.5350e-01    2.5363e+05 ;    C13 - C12   
 13568  13569   1    1.0920e-01    2.8225e+05 ;    C12 - H2R   
 13568  13570   1    1.0920e-01    2.8225e+05 ;    C12 - H2S   
 13571  13572   1    1.0920e-01    2.8225e+05 ;   H14T - C114  
 13572  13573   1    1.0920e-01    2.8225e+05 ;   C114 - H14R  
 13572  13574   1    1.0920e-01    2.8225e+05 ;   C114 - H14S  
 13572  13575   1    1.5350e-01    2.5363e+05 ;   C114 - C113  
 13575  13576   1    1.0920e-01    2.8225e+05 ;   C113 - H13R  
 13575  13577   1    1.0920e-01    2.8225e+05 ;   C113 - H13S  
 13575  13578   1    1.5350e-01    2.5363e+05 ;   C113 - C112  
 13578  13579   1    1.0920e-01    2.8225e+05 ;   C112 - H12R  
 13578  13580   1    1.0920e-01    2.8225e+05 ;   C112 - H12S  
 13578  13581   1    1.5350e-01    2.5363e+05 ;   C112 - C111  
 13581  13582   1    1.0920e-01    2.8225e+05 ;   C111 - H11R  
 13581  13583   1    1.0920e-01    2.8225e+05 ;   C111 - H11S  
 13581  13584   1    1.5350e-01    2.5363e+05 ;   C111 - C110  
 13584  13585   1    1.0920e-01    2.8225e+05 ;   C110 - H10R  
 13584  13586   1    1.0920e-01    2.8225e+05 ;   C110 - H10S  
 13584  13587   1    1.5350e-01    2.5363e+05 ;   C110 - C19   
 13587  13588   1    1.0920e-01    2.8225e+05 ;    C19 - H9R   
 13587  13589   1    1.0920e-01    2.8225e+05 ;    C19 - H9S   
 13587  13590   1    1.5350e-01    2.5363e+05 ;    C19 - C18   
 13590  13591   1    1.0920e-01    2.8225e+05 ;    C18 - H8R   
 13590  13592   1    1.0920e-01    2.8225e+05 ;    C18 - H8S   
 13590  13593   1    1.5350e-01    2.5363e+05 ;    C18 - C17   
 13593  13594   1    1.0920e-01    2.8225e+05 ;    C17 - H7R   
 13593  13595   1    1.0920e-01    2.8225e+05 ;    C17 - H7S   
 13593  13596   1    1.5350e-01    2.5363e+05 ;    C17 - C16   
 13596  13597   1    1.0920e-01    2.8225e+05 ;    C16 - H6R   
 13596  13598   1    1.0920e-01    2.8225e+05 ;    C16 - H6S   
 13596  13599   1    1.5350e-01    2.5363e+05 ;    C16 - C15   
 13599  13600   1    1.0920e-01    2.8225e+05 ;    C15 - H5R   
 13599  13601   1    1.0920e-01    2.8225e+05 ;    C15 - H5S   
 13599  13602   1    1.5350e-01    2.5363e+05 ;    C15 - C14   
 13602  13603   1    1.0920e-01    2.8225e+05 ;    C14 - H4R   
 13602  13604   1    1.0920e-01    2.8225e+05 ;    C14 - H4S   
 13602  13605   1    1.5350e-01    2.5363e+05 ;    C14 - C13   
 13605  13606   1    1.0920e-01    2.8225e+05 ;    C13 - H3R   
 13605  13607   1    1.0920e-01    2.8225e+05 ;    C13 - H3S   
 13605  13608   1    1.5350e-01    2.5363e+05 ;    C13 - C12   
 13608  13609   1    1.0920e-01    2.8225e+05 ;    C12 - H2R   
 13608  13610   1    1.0920e-01    2.8225e+05 ;    C12 - H2S   
 13608  13611   1    1.5080e-01    2.7472e+05 ;    C12 - C11   
 13611  13612   1    1.2140e-01    5.4225e+05 ;    C11 - O12   
 13611  13613   1    1.3430e-01    3.4418e+05 ;    C11 - O11   
 13613  13614   1    1.4390e-01    2.5230e+05 ;    O11 - C1    
 13614  13615   1    1.0930e-01    2.8108e+05 ;     C1 - HR    
 13614  13616   1    1.0930e-01    2.8108e+05 ;     C1 - HS    
 13614  13617   1    1.5350e-01    2.5363e+05 ;     C1 - C2    
 13617  13618   1    1.0930e-01    2.8108e+05 ;     C2 - HX    
 13617  13619   1    1.5350e-01    2.5363e+05 ;     C2 - C3    
 13617  13646   1    1.4390e-01    2.5230e+05 ;     C2 - O21   
 13619  13620   1    1.0930e-01    2.8108e+05 ;     C3 - HA    
 13619  13621   1    1.0930e-01    2.8108e+05 ;     C3 - HB    
 13619  13622   1    1.4390e-01    2.5230e+05 ;     C3 - O31   
 13622  13623   1    1.6100e-01    1.9246e+05 ;    O31 - P31   
 13623  13624   1    1.6100e-01    1.9246e+05 ;    P31 - O32   
 13623  13644   1    1.4800e-01    4.3932e+05 ;    P31 - O33   
 13623  13645   1    1.4800e-01    4.3932e+05 ;    P31 - O34   
 13624  13625   1    1.4390e-01    2.5230e+05 ;    O32 - C31   
 13625  13626   1    1.0930e-01    2.8108e+05 ;    C31 - H1A   
 13625  13627   1    1.0930e-01    2.8108e+05 ;    C31 - H1B   
 13625  13628   1    1.5350e-01    2.5363e+05 ;    C31 - C32   
 13628  13629   1    1.0910e-01    2.8342e+05 ;    C32 - H2A   
 13628  13630   1    1.0910e-01    2.8342e+05 ;    C32 - H2B   
 13628  13631   1    1.4990e-01    2.4568e+05 ;    C32 - N31   
 13631  13632   1    1.4990e-01    2.4568e+05 ;    N31 - C33   
 13631  13636   1    1.4990e-01    2.4568e+05 ;    N31 - C34   
 13631  13640   1    1.4990e-01    2.4568e+05 ;    N31 - C35   
 13632  13633   1    1.0910e-01    2.8342e+05 ;    C33 - H3A   
 13632  13634   1    1.0910e-01    2.8342e+05 ;    C33 - H3B   
 13632  13635   1    1.0910e-01    2.8342e+05 ;    C33 - H3C   
 13636  13637   1    1.0910e-01    2.8342e+05 ;    C34 - H4A   
 13636  13638   1    1.0910e-01    2.8342e+05 ;    C34 - H4B   
 13636  13639   1    1.0910e-01    2.8342e+05 ;    C34 - H4C   
 13640  13641   1    1.0910e-01    2.8342e+05 ;    C35 - H5A   
 13640  13642   1    1.0910e-01    2.8342e+05 ;    C35 - H5B   
 13640  13643   1    1.0910e-01    2.8342e+05 ;    C35 - H5C   
 13646  13647   1    1.3430e-01    3.4418e+05 ;    O21 - C21   
 13647  13648   1    1.2140e-01    5.4225e+05 ;    C21 - O22   
 13647  13686   1    1.5080e-01    2.7472e+05 ;    C21 - C12   
 13649  13650   1    1.0920e-01    2.8225e+05 ;   H14T - C114  
 13650  13651   1    1.0920e-01    2.8225e+05 ;   C114 - H14R  
 13650  13652   1    1.0920e-01    2.8225e+05 ;   C114 - H14S  
 13650  13653   1    1.5350e-01    2.5363e+05 ;   C114 - C113  
 13653  13654   1    1.0920e-01    2.8225e+05 ;   C113 - H13R  
 13653  13655   1    1.0920e-01    2.8225e+05 ;   C113 - H13S  
 13653  13656   1    1.5350e-01    2.5363e+05 ;   C113 - C112  
 13656  13657   1    1.0920e-01    2.8225e+05 ;   C112 - H12R  
 13656  13658   1    1.0920e-01    2.8225e+05 ;   C112 - H12S  
 13656  13659   1    1.5350e-01    2.5363e+05 ;   C112 - C111  
 13659  13660   1    1.0920e-01    2.8225e+05 ;   C111 - H11R  
 13659  13661   1    1.0920e-01    2.8225e+05 ;   C111 - H11S  
 13659  13662   1    1.5350e-01    2.5363e+05 ;   C111 - C110  
 13662  13663   1    1.0920e-01    2.8225e+05 ;   C110 - H10R  
 13662  13664   1    1.0920e-01    2.8225e+05 ;   C110 - H10S  
 13662  13665   1    1.5350e-01    2.5363e+05 ;   C110 - C19   
 13665  13666   1    1.0920e-01    2.8225e+05 ;    C19 - H9R   
 13665  13667   1    1.0920e-01    2.8225e+05 ;    C19 - H9S   
 13665  13668   1    1.5350e-01    2.5363e+05 ;    C19 - C18   
 13668  13669   1    1.0920e-01    2.8225e+05 ;    C18 - H8R   
 13668  13670   1    1.0920e-01    2.8225e+05 ;    C18 - H8S   
 13668  13671   1    1.5350e-01    2.5363e+05 ;    C18 - C17   
 13671  13672   1    1.0920e-01    2.8225e+05 ;    C17 - H7R   
 13671  13673   1    1.0920e-01    2.8225e+05 ;    C17 - H7S   
 13671  13674   1    1.5350e-01    2.5363e+05 ;    C17 - C16   
 13674  13675   1    1.0920e-01    2.8225e+05 ;    C16 - H6R   
 13674  13676   1    1.0920e-01    2.8225e+05 ;    C16 - H6S   
 13674  13677   1    1.5350e-01    2.5363e+05 ;    C16 - C15   
 13677  13678   1    1.0920e-01    2.8225e+05 ;    C15 - H5R   
 13677  13679   1    1.0920e-01    2.8225e+05 ;    C15 - H5S   
 13677  13680   1    1.5350e-01    2.5363e+05 ;    C15 - C14   
 13680  13681   1    1.0920e-01    2.8225e+05 ;    C14 - H4R   
 13680  13682   1    1.0920e-01    2.8225e+05 ;    C14 - H4S   
 13680  13683   1    1.5350e-01    2.5363e+05 ;    C14 - C13   
 13683  13684   1    1.0920e-01    2.8225e+05 ;    C13 - H3R   
 13683  13685   1    1.0920e-01    2.8225e+05 ;    C13 - H3S   
 13683  13686   1    1.5350e-01    2.5363e+05 ;    C13 - C12   
 13686  13687   1    1.0920e-01    2.8225e+05 ;    C12 - H2R   
 13686  13688   1    1.0920e-01    2.8225e+05 ;    C12 - H2S   
 13689  13690   1    1.0920e-01    2.8225e+05 ;   H14T - C114  
 13690  13691   1    1.0920e-01    2.8225e+05 ;   C114 - H14R  
 13690  13692   1    1.0920e-01    2.8225e+05 ;   C114 - H14S  
 13690  13693   1    1.5350e-01    2.5363e+05 ;   C114 - C113  
 13693  13694   1    1.0920e-01    2.8225e+05 ;   C113 - H13R  
 13693  13695   1    1.0920e-01    2.8225e+05 ;   C113 - H13S  
 13693  13696   1    1.5350e-01    2.5363e+05 ;   C113 - C112  
 13696  13697   1    1.0920e-01    2.8225e+05 ;   C112 - H12R  
 13696  13698   1    1.0920e-01    2.8225e+05 ;   C112 - H12S  
 13696  13699   1    1.5350e-01    2.5363e+05 ;   C112 - C111  
 13699  13700   1    1.0920e-01    2.8225e+05 ;   C111 - H11R  
 13699  13701   1    1.0920e-01    2.8225e+05 ;   C111 - H11S  
 13699  13702   1    1.5350e-01    2.5363e+05 ;   C111 - C110  
 13702  13703   1    1.0920e-01    2.8225e+05 ;   C110 - H10R  
 13702  13704   1    1.0920e-01    2.8225e+05 ;   C110 - H10S  
 13702  13705   1    1.5350e-01    2.5363e+05 ;   C110 - C19   
 13705  13706   1    1.0920e-01    2.8225e+05 ;    C19 - H9R   
 13705  13707   1    1.0920e-01    2.8225e+05 ;    C19 - H9S   
 13705  13708   1    1.5350e-01    2.5363e+05 ;    C19 - C18   
 13708  13709   1    1.0920e-01    2.8225e+05 ;    C18 - H8R   
 13708  13710   1    1.0920e-01    2.8225e+05 ;    C18 - H8S   
 13708  13711   1    1.5350e-01    2.5363e+05 ;    C18 - C17   
 13711  13712   1    1.0920e-01    2.8225e+05 ;    C17 - H7R   
 13711  13713   1    1.0920e-01    2.8225e+05 ;    C17 - H7S   
 13711  13714   1    1.5350e-01    2.5363e+05 ;    C17 - C16   
 13714  13715   1    1.0920e-01    2.8225e+05 ;    C16 - H6R   
 13714  13716   1    1.0920e-01    2.8225e+05 ;    C16 - H6S   
 13714  13717   1    1.5350e-01    2.5363e+05 ;    C16 - C15   
 13717  13718   1    1.0920e-01    2.8225e+05 ;    C15 - H5R   
 13717  13719   1    1.0920e-01    2.8225e+05 ;    C15 - H5S   
 13717  13720   1    1.5350e-01    2.5363e+05 ;    C15 - C14   
 13720  13721   1    1.0920e-01    2.8225e+05 ;    C14 - H4R   
 13720  13722   1    1.0920e-01    2.8225e+05 ;    C14 - H4S   
 13720  13723   1    1.5350e-01    2.5363e+05 ;    C14 - C13   
 13723  13724   1    1.0920e-01    2.8225e+05 ;    C13 - H3R   
 13723  13725   1    1.0920e-01    2.8225e+05 ;    C13 - H3S   
 13723  13726   1    1.5350e-01    2.5363e+05 ;    C13 - C12   
 13726  13727   1    1.0920e-01    2.8225e+05 ;    C12 - H2R   
 13726  13728   1    1.0920e-01    2.8225e+05 ;    C12 - H2S   
 13726  13729   1    1.5080e-01    2.7472e+05 ;    C12 - C11   
 13729  13730   1    1.2140e-01    5.4225e+05 ;    C11 - O12   
 13729  13731   1    1.3430e-01    3.4418e+05 ;    C11 - O11   
 13731  13732   1    1.4390e-01    2.5230e+05 ;    O11 - C1    
 13732  13733   1    1.0930e-01    2.8108e+05 ;     C1 - HR    
 13732  13734   1    1.0930e-01    2.8108e+05 ;     C1 - HS    
 13732  13735   1    1.5350e-01    2.5363e+05 ;     C1 - C2    
 13735  13736   1    1.0930e-01    2.8108e+05 ;     C2 - HX    
 13735  13737   1    1.5350e-01    2.5363e+05 ;     C2 - C3    
 13735  13764   1    1.4390e-01    2.5230e+05 ;     C2 - O21   
 13737  13738   1    1.0930e-01    2.8108e+05 ;     C3 - HA    
 13737  13739   1    1.0930e-01    2.8108e+05 ;     C3 - HB    
 13737  13740   1    1.4390e-01    2.5230e+05 ;     C3 - O31   
 13740  13741   1    1.6100e-01    1.9246e+05 ;    O31 - P31   
 13741  13742   1    1.6100e-01    1.9246e+05 ;    P31 - O32   
 13741  13762   1    1.4800e-01    4.3932e+05 ;    P31 - O33   
 13741  13763   1    1.4800e-01    4.3932e+05 ;    P31 - O34   
 13742  13743   1    1.4390e-01    2.5230e+05 ;    O32 - C31   
 13743  13744   1    1.0930e-01    2.8108e+05 ;    C31 - H1A   
 13743  13745   1    1.0930e-01    2.8108e+05 ;    C31 - H1B   
 13743  13746   1    1.5350e-01    2.5363e+05 ;    C31 - C32   
 13746  13747   1    1.0910e-01    2.8342e+05 ;    C32 - H2A   
 13746  13748   1    1.0910e-01    2.8342e+05 ;    C32 - H2B   
 13746  13749   1    1.4990e-01    2.4568e+05 ;    C32 - N31   
 13749  13750   1    1.4990e-01    2.4568e+05 ;    N31 - C33   
 13749  13754   1    1.4990e-01    2.4568e+05 ;    N31 - C34   
 13749  13758   1    1.4990e-01    2.4568e+05 ;    N31 - C35   
 13750  13751   1    1.0910e-01    2.8342e+05 ;    C33 - H3A   
 13750  13752   1    1.0910e-01    2.8342e+05 ;    C33 - H3B   
 13750  13753   1    1.0910e-01    2.8342e+05 ;    C33 - H3C   
 13754  13755   1    1.0910e-01    2.8342e+05 ;    C34 - H4A   
 13754  13756   1    1.0910e-01    2.8342e+05 ;    C34 - H4B   
 13754  13757   1    1.0910e-01    2.8342e+05 ;    C34 - H4C   
 13758  13759   1    1.0910e-01    2.8342e+05 ;    C35 - H5A   
 13758  13760   1    1.0910e-01    2.8342e+05 ;    C35 - H5B   
 13758  13761   1    1.0910e-01    2.8342e+05 ;    C35 - H5C   
 13764  13765   1    1.3430e-01    3.4418e+05 ;    O21 - C21   
 13765  13766   1    1.2140e-01    5.4225e+05 ;    C21 - O22   
 13765  13804   1    1.5080e-01    2.7472e+05 ;    C21 - C12   
 13767  13768   1    1.0920e-01    2.8225e+05 ;   H14T - C114  
 13768  13769   1    1.0920e-01    2.8225e+05 ;   C114 - H14R  
 13768  13770   1    1.0920e-01    2.8225e+05 ;   C114 - H14S  
 13768  13771   1    1.5350e-01    2.5363e+05 ;   C114 - C113  
 13771  13772   1    1.0920e-01    2.8225e+05 ;   C113 - H13R  
 13771  13773   1    1.0920e-01    2.8225e+05 ;   C113 - H13S  
 13771  13774   1    1.5350e-01    2.5363e+05 ;   C113 - C112  
 13774  13775   1    1.0920e-01    2.8225e+05 ;   C112 - H12R  
 13774  13776   1    1.0920e-01    2.8225e+05 ;   C112 - H12S  
 13774  13777   1    1.5350e-01    2.5363e+05 ;   C112 - C111  
 13777  13778   1    1.0920e-01    2.8225e+05 ;   C111 - H11R  
 13777  13779   1    1.0920e-01    2.8225e+05 ;   C111 - H11S  
 13777  13780   1    1.5350e-01    2.5363e+05 ;   C111 - C110  
 13780  13781   1    1.0920e-01    2.8225e+05 ;   C110 - H10R  
 13780  13782   1    1.0920e-01    2.8225e+05 ;   C110 - H10S  
 13780  13783   1    1.5350e-01    2.5363e+05 ;   C110 - C19   
 13783  13784   1    1.0920e-01    2.8225e+05 ;    C19 - H9R   
 13783  13785   1    1.0920e-01    2.8225e+05 ;    C19 - H9S   
 13783  13786   1    1.5350e-01    2.5363e+05 ;    C19 - C18   
 13786  13787   1    1.0920e-01    2.8225e+05 ;    C18 - H8R   
 13786  13788   1    1.0920e-01    2.8225e+05 ;    C18 - H8S   
 13786  13789   1    1.5350e-01    2.5363e+05 ;    C18 - C17   
 13789  13790   1    1.0920e-01    2.8225e+05 ;    C17 - H7R   
 13789  13791   1    1.0920e-01    2.8225e+05 ;    C17 - H7S   
 13789  13792   1    1.5350e-01    2.5363e+05 ;    C17 - C16   
 13792  13793   1    1.0920e-01    2.8225e+05 ;    C16 - H6R   
 13792  13794   1    1.0920e-01    2.8225e+05 ;    C16 - H6S   
 13792  13795   1    1.5350e-01    2.5363e+05 ;    C16 - C15   
 13795  13796   1    1.0920e-01    2.8225e+05 ;    C15 - H5R   
 13795  13797   1    1.0920e-01    2.8225e+05 ;    C15 - H5S   
 13795  13798   1    1.5350e-01    2.5363e+05 ;    C15 - C14   
 13798  13799   1    1.0920e-01    2.8225e+05 ;    C14 - H4R   
 13798  13800   1    1.0920e-01    2.8225e+05 ;    C14 - H4S   
 13798  13801   1    1.5350e-01    2.5363e+05 ;    C14 - C13   
 13801  13802   1    1.0920e-01    2.8225e+05 ;    C13 - H3R   
 13801  13803   1    1.0920e-01    2.8225e+05 ;    C13 - H3S   
 13801  13804   1    1.5350e-01    2.5363e+05 ;    C13 - C12   
 13804  13805   1    1.0920e-01    2.8225e+05 ;    C12 - H2R   
 13804  13806   1    1.0920e-01    2.8225e+05 ;    C12 - H2S   
 13807  13808   1    1.0920e-01    2.8225e+05 ;   H14T - C114  
 13808  13809   1    1.0920e-01    2.8225e+05 ;   C114 - H14R  
 13808  13810   1    1.0920e-01    2.8225e+05 ;   C114 - H14S  
 13808  13811   1    1.5350e-01    2.5363e+05 ;   C114 - C113  
 13811  13812   1    1.0920e-01    2.8225e+05 ;   C113 - H13R  
 13811  13813   1    1.0920e-01    2.8225e+05 ;   C113 - H13S  
 13811  13814   1    1.5350e-01    2.5363e+05 ;   C113 - C112  
 13814  13815   1    1.0920e-01    2.8225e+05 ;   C112 - H12R  
 13814  13816   1    1.0920e-01    2.8225e+05 ;   C112 - H12S  
 13814  13817   1    1.5350e-01    2.5363e+05 ;   C112 - C111  
 13817  13818   1    1.0920e-01    2.8225e+05 ;   C111 - H11R  
 13817  13819   1    1.0920e-01    2.8225e+05 ;   C111 - H11S  
 13817  13820   1    1.5350e-01    2.5363e+05 ;   C111 - C110  
 13820  13821   1    1.0920e-01    2.8225e+05 ;   C110 - H10R  
 13820  13822   1    1.0920e-01    2.8225e+05 ;   C110 - H10S  
 13820  13823   1    1.5350e-01    2.5363e+05 ;   C110 - C19   
 13823  13824   1    1.0920e-01    2.8225e+05 ;    C19 - H9R   
 13823  13825   1    1.0920e-01    2.8225e+05 ;    C19 - H9S   
 13823  13826   1    1.5350e-01    2.5363e+05 ;    C19 - C18   
 13826  13827   1    1.0920e-01    2.8225e+05 ;    C18 - H8R   
 13826  13828   1    1.0920e-01    2.8225e+05 ;    C18 - H8S   
 13826  13829   1    1.5350e-01    2.5363e+05 ;    C18 - C17   
 13829  13830   1    1.0920e-01    2.8225e+05 ;    C17 - H7R   
 13829  13831   1    1.0920e-01    2.8225e+05 ;    C17 - H7S   
 13829  13832   1    1.5350e-01    2.5363e+05 ;    C17 - C16   
 13832  13833   1    1.0920e-01    2.8225e+05 ;    C16 - H6R   
 13832  13834   1    1.0920e-01    2.8225e+05 ;    C16 - H6S   
 13832  13835   1    1.5350e-01    2.5363e+05 ;    C16 - C15   
 13835  13836   1    1.0920e-01    2.8225e+05 ;    C15 - H5R   
 13835  13837   1    1.0920e-01    2.8225e+05 ;    C15 - H5S   
 13835  13838   1    1.5350e-01    2.5363e+05 ;    C15 - C14   
 13838  13839   1    1.0920e-01    2.8225e+05 ;    C14 - H4R   
 13838  13840   1    1.0920e-01    2.8225e+05 ;    C14 - H4S   
 13838  13841   1    1.5350e-01    2.5363e+05 ;    C14 - C13   
 13841  13842   1    1.0920e-01    2.8225e+05 ;    C13 - H3R   
 13841  13843   1    1.0920e-01    2.8225e+05 ;    C13 - H3S   
 13841  13844   1    1.5350e-01    2.5363e+05 ;    C13 - C12   
 13844  13845   1    1.0920e-01    2.8225e+05 ;    C12 - H2R   
 13844  13846   1    1.0920e-01    2.8225e+05 ;    C12 - H2S   
 13844  13847   1    1.5080e-01    2.7472e+05 ;    C12 - C11   
 13847  13848   1    1.2140e-01    5.4225e+05 ;    C11 - O12   
 13847  13849   1    1.3430e-01    3.4418e+05 ;    C11 - O11   
 13849  13850   1    1.4390e-01    2.5230e+05 ;    O11 - C1    
 13850  13851   1    1.0930e-01    2.8108e+05 ;     C1 - HR    
 13850  13852   1    1.0930e-01    2.8108e+05 ;     C1 - HS    
 13850  13853   1    1.5350e-01    2.5363e+05 ;     C1 - C2    
 13853  13854   1    1.0930e-01    2.8108e+05 ;     C2 - HX    
 13853  13855   1    1.5350e-01    2.5363e+05 ;     C2 - C3    
 13853  13882   1    1.4390e-01    2.5230e+05 ;     C2 - O21   
 13855  13856   1    1.0930e-01    2.8108e+05 ;     C3 - HA    
 13855  13857   1    1.0930e-01    2.8108e+05 ;     C3 - HB    
 13855  13858   1    1.4390e-01    2.5230e+05 ;     C3 - O31   
 13858  13859   1    1.6100e-01    1.9246e+05 ;    O31 - P31   
 13859  13860   1    1.6100e-01    1.9246e+05 ;    P31 - O32   
 13859  13880   1    1.4800e-01    4.3932e+05 ;    P31 - O33   
 13859  13881   1    1.4800e-01    4.3932e+05 ;    P31 - O34   
 13860  13861   1    1.4390e-01    2.5230e+05 ;    O32 - C31   
 13861  13862   1    1.0930e-01    2.8108e+05 ;    C31 - H1A   
 13861  13863   1    1.0930e-01    2.8108e+05 ;    C31 - H1B   
 13861  13864   1    1.5350e-01    2.5363e+05 ;    C31 - C32   
 13864  13865   1    1.0910e-01    2.8342e+05 ;    C32 - H2A   
 13864  13866   1    1.0910e-01    2.8342e+05 ;    C32 - H2B   
 13864  13867   1    1.4990e-01    2.4568e+05 ;    C32 - N31   
 13867  13868   1    1.4990e-01    2.4568e+05 ;    N31 - C33   
 13867  13872   1    1.4990e-01    2.4568e+05 ;    N31 - C34   
 13867  13876   1    1.4990e-01    2.4568e+05 ;    N31 - C35   
 13868  13869   1    1.0910e-01    2.8342e+05 ;    C33 - H3A   
 13868  13870   1    1.0910e-01    2.8342e+05 ;    C33 - H3B   
 13868  13871   1    1.0910e-01    2.8342e+05 ;    C33 - H3C   
 13872  13873   1    1.0910e-01    2.8342e+05 ;    C34 - H4A   
 13872  13874   1    1.0910e-01    2.8342e+05 ;    C34 - H4B   
 13872  13875   1    1.0910e-01    2.8342e+05 ;    C34 - H4C   
 13876  13877   1    1.0910e-01    2.8342e+05 ;    C35 - H5A   
 13876  13878   1    1.0910e-01    2.8342e+05 ;    C35 - H5B   
 13876  13879   1    1.0910e-01    2.8342e+05 ;    C35 - H5C   
 13882  13883   1    1.3430e-01    3.4418e+05 ;    O21 - C21   
 13883  13884   1    1.2140e-01    5.4225e+05 ;    C21 - O22   
 13883  13922   1    1.5080e-01    2.7472e+05 ;    C21 - C12   
 13885  13886   1    1.0920e-01    2.8225e+05 ;   H14T - C114  
 13886  13887   1    1.0920e-01    2.8225e+05 ;   C114 - H14R  
 13886  13888   1    1.0920e-01    2.8225e+05 ;   C114 - H14S  
 13886  13889   1    1.5350e-01    2.5363e+05 ;   C114 - C113  
 13889  13890   1    1.0920e-01    2.8225e+05 ;   C113 - H13R  
 13889  13891   1    1.0920e-01    2.8225e+05 ;   C113 - H13S  
 13889  13892   1    1.5350e-01    2.5363e+05 ;   C113 - C112  
 13892  13893   1    1.0920e-01    2.8225e+05 ;   C112 - H12R  
 13892  13894   1    1.0920e-01    2.8225e+05 ;   C112 - H12S  
 13892  13895   1    1.5350e-01    2.5363e+05 ;   C112 - C111  
 13895  13896   1    1.0920e-01    2.8225e+05 ;   C111 - H11R  
 13895  13897   1    1.0920e-01    2.8225e+05 ;   C111 - H11S  
 13895  13898   1    1.5350e-01    2.5363e+05 ;   C111 - C110  
 13898  13899   1    1.0920e-01    2.8225e+05 ;   C110 - H10R  
 13898  13900   1    1.0920e-01    2.8225e+05 ;   C110 - H10S  
 13898  13901   1    1.5350e-01    2.5363e+05 ;   C110 - C19   
 13901  13902   1    1.0920e-01    2.8225e+05 ;    C19 - H9R   
 13901  13903   1    1.0920e-01    2.8225e+05 ;    C19 - H9S   
 13901  13904   1    1.5350e-01    2.5363e+05 ;    C19 - C18   
 13904  13905   1    1.0920e-01    2.8225e+05 ;    C18 - H8R   
 13904  13906   1    1.0920e-01    2.8225e+05 ;    C18 - H8S   
 13904  13907   1    1.5350e-01    2.5363e+05 ;    C18 - C17   
 13907  13908   1    1.0920e-01    2.8225e+05 ;    C17 - H7R   
 13907  13909   1    1.0920e-01    2.8225e+05 ;    C17 - H7S   
 13907  13910   1    1.5350e-01    2.5363e+05 ;    C17 - C16   
 13910  13911   1    1.0920e-01    2.8225e+05 ;    C16 - H6R   
 13910  13912   1    1.0920e-01    2.8225e+05 ;    C16 - H6S   
 13910  13913   1    1.5350e-01    2.5363e+05 ;    C16 - C15   
 13913  13914   1    1.0920e-01    2.8225e+05 ;    C15 - H5R   
 13913  13915   1    1.0920e-01    2.8225e+05 ;    C15 - H5S   
 13913  13916   1    1.5350e-01    2.5363e+05 ;    C15 - C14   
 13916  13917   1    1.0920e-01    2.8225e+05 ;    C14 - H4R   
 13916  13918   1    1.0920e-01    2.8225e+05 ;    C14 - H4S   
 13916  13919   1    1.5350e-01    2.5363e+05 ;    C14 - C13   
 13919  13920   1    1.0920e-01    2.8225e+05 ;    C13 - H3R   
 13919  13921   1    1.0920e-01    2.8225e+05 ;    C13 - H3S   
 13919  13922   1    1.5350e-01    2.5363e+05 ;    C13 - C12   
 13922  13923   1    1.0920e-01    2.8225e+05 ;    C12 - H2R   
 13922  13924   1    1.0920e-01    2.8225e+05 ;    C12 - H2S   
 13925  13926   1    1.0920e-01    2.8225e+05 ;   H14T - C114  
 13926  13927   1    1.0920e-01    2.8225e+05 ;   C114 - H14R  
 13926  13928   1    1.0920e-01    2.8225e+05 ;   C114 - H14S  
 13926  13929   1    1.5350e-01    2.5363e+05 ;   C114 - C113  
 13929  13930   1    1.0920e-01    2.8225e+05 ;   C113 - H13R  
 13929  13931   1    1.0920e-01    2.8225e+05 ;   C113 - H13S  
 13929  13932   1    1.5350e-01    2.5363e+05 ;   C113 - C112  
 13932  13933   1    1.0920e-01    2.8225e+05 ;   C112 - H12R  
 13932  13934   1    1.0920e-01    2.8225e+05 ;   C112 - H12S  
 13932  13935   1    1.5350e-01    2.5363e+05 ;   C112 - C111  
 13935  13936   1    1.0920e-01    2.8225e+05 ;   C111 - H11R  
 13935  13937   1    1.0920e-01    2.8225e+05 ;   C111 - H11S  
 13935  13938   1    1.5350e-01    2.5363e+05 ;   C111 - C110  
 13938  13939   1    1.0920e-01    2.8225e+05 ;   C110 - H10R  
 13938  13940   1    1.0920e-01    2.8225e+05 ;   C110 - H10S  
 13938  13941   1    1.5350e-01    2.5363e+05 ;   C110 - C19   
 13941  13942   1    1.0920e-01    2.8225e+05 ;    C19 - H9R   
 13941  13943   1    1.0920e-01    2.8225e+05 ;    C19 - H9S   
 13941  13944   1    1.5350e-01    2.5363e+05 ;    C19 - C18   
 13944  13945   1    1.0920e-01    2.8225e+05 ;    C18 - H8R   
 13944  13946   1    1.0920e-01    2.8225e+05 ;    C18 - H8S   
 13944  13947   1    1.5350e-01    2.5363e+05 ;    C18 - C17   
 13947  13948   1    1.0920e-01    2.8225e+05 ;    C17 - H7R   
 13947  13949   1    1.0920e-01    2.8225e+05 ;    C17 - H7S   
 13947  13950   1    1.5350e-01    2.5363e+05 ;    C17 - C16   
 13950  13951   1    1.0920e-01    2.8225e+05 ;    C16 - H6R   
 13950  13952   1    1.0920e-01    2.8225e+05 ;    C16 - H6S   
 13950  13953   1    1.5350e-01    2.5363e+05 ;    C16 - C15   
 13953  13954   1    1.0920e-01    2.8225e+05 ;    C15 - H5R   
 13953  13955   1    1.0920e-01    2.8225e+05 ;    C15 - H5S   
 13953  13956   1    1.5350e-01    2.5363e+05 ;    C15 - C14   
 13956  13957   1    1.0920e-01    2.8225e+05 ;    C14 - H4R   
 13956  13958   1    1.0920e-01    2.8225e+05 ;    C14 - H4S   
 13956  13959   1    1.5350e-01    2.5363e+05 ;    C14 - C13   
 13959  13960   1    1.0920e-01    2.8225e+05 ;    C13 - H3R   
 13959  13961   1    1.0920e-01    2.8225e+05 ;    C13 - H3S   
 13959  13962   1    1.5350e-01    2.5363e+05 ;    C13 - C12   
 13962  13963   1    1.0920e-01    2.8225e+05 ;    C12 - H2R   
 13962  13964   1    1.0920e-01    2.8225e+05 ;    C12 - H2S   
 13962  13965   1    1.5080e-01    2.7472e+05 ;    C12 - C11   
 13965  13966   1    1.2140e-01    5.4225e+05 ;    C11 - O12   
 13965  13967   1    1.3430e-01    3.4418e+05 ;    C11 - O11   
 13967  13968   1    1.4390e-01    2.5230e+05 ;    O11 - C1    
 13968  13969   1    1.0930e-01    2.8108e+05 ;     C1 - HR    
 13968  13970   1    1.0930e-01    2.8108e+05 ;     C1 - HS    
 13968  13971   1    1.5350e-01    2.5363e+05 ;     C1 - C2    
 13971  13972   1    1.0930e-01    2.8108e+05 ;     C2 - HX    
 13971  13973   1    1.5350e-01    2.5363e+05 ;     C2 - C3    
 13971  14000   1    1.4390e-01    2.5230e+05 ;     C2 - O21   
 13973  13974   1    1.0930e-01    2.8108e+05 ;     C3 - HA    
 13973  13975   1    1.0930e-01    2.8108e+05 ;     C3 - HB    
 13973  13976   1    1.4390e-01    2.5230e+05 ;     C3 - O31   
 13976  13977   1    1.6100e-01    1.9246e+05 ;    O31 - P31   
 13977  13978   1    1.6100e-01    1.9246e+05 ;    P31 - O32   
 13977  13998   1    1.4800e-01    4.3932e+05 ;    P31 - O33   
 13977  13999   1    1.4800e-01    4.3932e+05 ;    P31 - O34   
 13978  13979   1    1.4390e-01    2.5230e+05 ;    O32 - C31   
 13979  13980   1    1.0930e-01    2.8108e+05 ;    C31 - H1A   
 13979  13981   1    1.0930e-01    2.8108e+05 ;    C31 - H1B   
 13979  13982   1    1.5350e-01    2.5363e+05 ;    C31 - C32   
 13982  13983   1    1.0910e-01    2.8342e+05 ;    C32 - H2A   
 13982  13984   1    1.0910e-01    2.8342e+05 ;    C32 - H2B   
 13982  13985   1    1.4990e-01    2.4568e+05 ;    C32 - N31   
 13985  13986   1    1.4990e-01    2.4568e+05 ;    N31 - C33   
 13985  13990   1    1.4990e-01    2.4568e+05 ;    N31 - C34   
 13985  13994   1    1.4990e-01    2.4568e+05 ;    N31 - C35   
 13986  13987   1    1.0910e-01    2.8342e+05 ;    C33 - H3A   
 13986  13988   1    1.0910e-01    2.8342e+05 ;    C33 - H3B   
 13986  13989   1    1.0910e-01    2.8342e+05 ;    C33 - H3C   
 13990  13991   1    1.0910e-01    2.8342e+05 ;    C34 - H4A   
 13990  13992   1    1.0910e-01    2.8342e+05 ;    C34 - H4B   
 13990  13993   1    1.0910e-01    2.8342e+05 ;    C34 - H4C   
 13994  13995   1    1.0910e-01    2.8342e+05 ;    C35 - H5A   
 13994  13996   1    1.0910e-01    2.8342e+05 ;    C35 - H5B   
 13994  13997   1    1.0910e-01    2.8342e+05 ;    C35 - H5C   
 14000  14001   1    1.3430e-01    3.4418e+05 ;    O21 - C21   
 14001  14002   1    1.2140e-01    5.4225e+05 ;    C21 - O22   
 14001  14040   1    1.5080e-01    2.7472e+05 ;    C21 - C12   
 14003  14004   1    1.0920e-01    2.8225e+05 ;   H14T - C114  
 14004  14005   1    1.0920e-01    2.8225e+05 ;   C114 - H14R  
 14004  14006   1    1.0920e-01    2.8225e+05 ;   C114 - H14S  
 14004  14007   1    1.5350e-01    2.5363e+05 ;   C114 - C113  
 14007  14008   1    1.0920e-01    2.8225e+05 ;   C113 - H13R  
 14007  14009   1    1.0920e-01    2.8225e+05 ;   C113 - H13S  
 14007  14010   1    1.5350e-01    2.5363e+05 ;   C113 - C112  
 14010  14011   1    1.0920e-01    2.8225e+05 ;   C112 - H12R  
 14010  14012   1    1.0920e-01    2.8225e+05 ;   C112 - H12S  
 14010  14013   1    1.5350e-01    2.5363e+05 ;   C112 - C111  
 14013  14014   1    1.0920e-01    2.8225e+05 ;   C111 - H11R  
 14013  14015   1    1.0920e-01    2.8225e+05 ;   C111 - H11S  
 14013  14016   1    1.5350e-01    2.5363e+05 ;   C111 - C110  
 14016  14017   1    1.0920e-01    2.8225e+05 ;   C110 - H10R  
 14016  14018   1    1.0920e-01    2.8225e+05 ;   C110 - H10S  
 14016  14019   1    1.5350e-01    2.5363e+05 ;   C110 - C19   
 14019  14020   1    1.0920e-01    2.8225e+05 ;    C19 - H9R   
 14019  14021   1    1.0920e-01    2.8225e+05 ;    C19 - H9S   
 14019  14022   1    1.5350e-01    2.5363e+05 ;    C19 - C18   
 14022  14023   1    1.0920e-01    2.8225e+05 ;    C18 - H8R   
 14022  14024   1    1.0920e-01    2.8225e+05 ;    C18 - H8S   
 14022  14025   1    1.5350e-01    2.5363e+05 ;    C18 - C17   
 14025  14026   1    1.0920e-01    2.8225e+05 ;    C17 - H7R   
 14025  14027   1    1.0920e-01    2.8225e+05 ;    C17 - H7S   
 14025  14028   1    1.5350e-01    2.5363e+05 ;    C17 - C16   
 14028  14029   1    1.0920e-01    2.8225e+05 ;    C16 - H6R   
 14028  14030   1    1.0920e-01    2.8225e+05 ;    C16 - H6S   
 14028  14031   1    1.5350e-01    2.5363e+05 ;    C16 - C15   
 14031  14032   1    1.0920e-01    2.8225e+05 ;    C15 - H5R   
 14031  14033   1    1.0920e-01    2.8225e+05 ;    C15 - H5S   
 14031  14034   1    1.5350e-01    2.5363e+05 ;    C15 - C14   
 14034  14035   1    1.0920e-01    2.8225e+05 ;    C14 - H4R   
 14034  14036   1    1.0920e-01    2.8225e+05 ;    C14 - H4S   
 14034  14037   1    1.5350e-01    2.5363e+05 ;    C14 - C13   
 14037  14038   1    1.0920e-01    2.8225e+05 ;    C13 - H3R   
 14037  14039   1    1.0920e-01    2.8225e+05 ;    C13 - H3S   
 14037  14040   1    1.5350e-01    2.5363e+05 ;    C13 - C12   
 14040  14041   1    1.0920e-01    2.8225e+05 ;    C12 - H2R   
 14040  14042   1    1.0920e-01    2.8225e+05 ;    C12 - H2S   
 14043  14044   1    1.0920e-01    2.8225e+05 ;   H14T - C114  
 14044  14045   1    1.0920e-01    2.8225e+05 ;   C114 - H14R  
 14044  14046   1    1.0920e-01    2.8225e+05 ;   C114 - H14S  
 14044  14047   1    1.5350e-01    2.5363e+05 ;   C114 - C113  
 14047  14048   1    1.0920e-01    2.8225e+05 ;   C113 - H13R  
 14047  14049   1    1.0920e-01    2.8225e+05 ;   C113 - H13S  
 14047  14050   1    1.5350e-01    2.5363e+05 ;   C113 - C112  
 14050  14051   1    1.0920e-01    2.8225e+05 ;   C112 - H12R  
 14050  14052   1    1.0920e-01    2.8225e+05 ;   C112 - H12S  
 14050  14053   1    1.5350e-01    2.5363e+05 ;   C112 - C111  
 14053  14054   1    1.0920e-01    2.8225e+05 ;   C111 - H11R  
 14053  14055   1    1.0920e-01    2.8225e+05 ;   C111 - H11S  
 14053  14056   1    1.5350e-01    2.5363e+05 ;   C111 - C110  
 14056  14057   1    1.0920e-01    2.8225e+05 ;   C110 - H10R  
 14056  14058   1    1.0920e-01    2.8225e+05 ;   C110 - H10S  
 14056  14059   1    1.5350e-01    2.5363e+05 ;   C110 - C19   
 14059  14060   1    1.0920e-01    2.8225e+05 ;    C19 - H9R   
 14059  14061   1    1.0920e-01    2.8225e+05 ;    C19 - H9S   
 14059  14062   1    1.5350e-01    2.5363e+05 ;    C19 - C18   
 14062  14063   1    1.0920e-01    2.8225e+05 ;    C18 - H8R   
 14062  14064   1    1.0920e-01    2.8225e+05 ;    C18 - H8S   
 14062  14065   1    1.5350e-01    2.5363e+05 ;    C18 - C17   
 14065  14066   1    1.0920e-01    2.8225e+05 ;    C17 - H7R   
 14065  14067   1    1.0920e-01    2.8225e+05 ;    C17 - H7S   
 14065  14068   1    1.5350e-01    2.5363e+05 ;    C17 - C16   
 14068  14069   1    1.0920e-01    2.8225e+05 ;    C16 - H6R   
 14068  14070   1    1.0920e-01    2.8225e+05 ;    C16 - H6S   
 14068  14071   1    1.5350e-01    2.5363e+05 ;    C16 - C15   
 14071  14072   1    1.0920e-01    2.8225e+05 ;    C15 - H5R   
 14071  14073   1    1.0920e-01    2.8225e+05 ;    C15 - H5S   
 14071  14074   1    1.5350e-01    2.5363e+05 ;    C15 - C14   
 14074  14075   1    1.0920e-01    2.8225e+05 ;    C14 - H4R   
 14074  14076   1    1.0920e-01    2.8225e+05 ;    C14 - H4S   
 14074  14077   1    1.5350e-01    2.5363e+05 ;    C14 - C13   
 14077  14078   1    1.0920e-01    2.8225e+05 ;    C13 - H3R   
 14077  14079   1    1.0920e-01    2.8225e+05 ;    C13 - H3S   
 14077  14080   1    1.5350e-01    2.5363e+05 ;    C13 - C12   
 14080  14081   1    1.0920e-01    2.8225e+05 ;    C12 - H2R   
 14080  14082   1    1.0920e-01    2.8225e+05 ;    C12 - H2S   
 14080  14083   1    1.5080e-01    2.7472e+05 ;    C12 - C11   
 14083  14084   1    1.2140e-01    5.4225e+05 ;    C11 - O12   
 14083  14085   1    1.3430e-01    3.4418e+05 ;    C11 - O11   
 14085  14086   1    1.4390e-01    2.5230e+05 ;    O11 - C1    
 14086  14087   1    1.0930e-01    2.8108e+05 ;     C1 - HR    
 14086  14088   1    1.0930e-01    2.8108e+05 ;     C1 - HS    
 14086  14089   1    1.5350e-01    2.5363e+05 ;     C1 - C2    
 14089  14090   1    1.0930e-01    2.8108e+05 ;     C2 - HX    
 14089  14091   1    1.5350e-01    2.5363e+05 ;     C2 - C3    
 14089  14118   1    1.4390e-01    2.5230e+05 ;     C2 - O21   
 14091  14092   1    1.0930e-01    2.8108e+05 ;     C3 - HA    
 14091  14093   1    1.0930e-01    2.8108e+05 ;     C3 - HB    
 14091  14094   1    1.4390e-01    2.5230e+05 ;     C3 - O31   
 14094  14095   1    1.6100e-01    1.9246e+05 ;    O31 - P31   
 14095  14096   1    1.6100e-01    1.9246e+05 ;    P31 - O32   
 14095  14116   1    1.4800e-01    4.3932e+05 ;    P31 - O33   
 14095  14117   1    1.4800e-01    4.3932e+05 ;    P31 - O34   
 14096  14097   1    1.4390e-01    2.5230e+05 ;    O32 - C31   
 14097  14098   1    1.0930e-01    2.8108e+05 ;    C31 - H1A   
 14097  14099   1    1.0930e-01    2.8108e+05 ;    C31 - H1B   
 14097  14100   1    1.5350e-01    2.5363e+05 ;    C31 - C32   
 14100  14101   1    1.0910e-01    2.8342e+05 ;    C32 - H2A   
 14100  14102   1    1.0910e-01    2.8342e+05 ;    C32 - H2B   
 14100  14103   1    1.4990e-01    2.4568e+05 ;    C32 - N31   
 14103  14104   1    1.4990e-01    2.4568e+05 ;    N31 - C33   
 14103  14108   1    1.4990e-01    2.4568e+05 ;    N31 - C34   
 14103  14112   1    1.4990e-01    2.4568e+05 ;    N31 - C35   
 14104  14105   1    1.0910e-01    2.8342e+05 ;    C33 - H3A   
 14104  14106   1    1.0910e-01    2.8342e+05 ;    C33 - H3B   
 14104  14107   1    1.0910e-01    2.8342e+05 ;    C33 - H3C   
 14108  14109   1    1.0910e-01    2.8342e+05 ;    C34 - H4A   
 14108  14110   1    1.0910e-01    2.8342e+05 ;    C34 - H4B   
 14108  14111   1    1.0910e-01    2.8342e+05 ;    C34 - H4C   
 14112  14113   1    1.0910e-01    2.8342e+05 ;    C35 - H5A   
 14112  14114   1    1.0910e-01    2.8342e+05 ;    C35 - H5B   
 14112  14115   1    1.0910e-01    2.8342e+05 ;    C35 - H5C   
 14118  14119   1    1.3430e-01    3.4418e+05 ;    O21 - C21   
 14119  14120   1    1.2140e-01    5.4225e+05 ;    C21 - O22   
 14119  14158   1    1.5080e-01    2.7472e+05 ;    C21 - C12   
 14121  14122   1    1.0920e-01    2.8225e+05 ;   H14T - C114  
 14122  14123   1    1.0920e-01    2.8225e+05 ;   C114 - H14R  
 14122  14124   1    1.0920e-01    2.8225e+05 ;   C114 - H14S  
 14122  14125   1    1.5350e-01    2.5363e+05 ;   C114 - C113  
 14125  14126   1    1.0920e-01    2.8225e+05 ;   C113 - H13R  
 14125  14127   1    1.0920e-01    2.8225e+05 ;   C113 - H13S  
 14125  14128   1    1.5350e-01    2.5363e+05 ;   C113 - C112  
 14128  14129   1    1.0920e-01    2.8225e+05 ;   C112 - H12R  
 14128  14130   1    1.0920e-01    2.8225e+05 ;   C112 - H12S  
 14128  14131   1    1.5350e-01    2.5363e+05 ;   C112 - C111  
 14131  14132   1    1.0920e-01    2.8225e+05 ;   C111 - H11R  
 14131  14133   1    1.0920e-01    2.8225e+05 ;   C111 - H11S  
 14131  14134   1    1.5350e-01    2.5363e+05 ;   C111 - C110  
 14134  14135   1    1.0920e-01    2.8225e+05 ;   C110 - H10R  
 14134  14136   1    1.0920e-01    2.8225e+05 ;   C110 - H10S  
 14134  14137   1    1.5350e-01    2.5363e+05 ;   C110 - C19   
 14137  14138   1    1.0920e-01    2.8225e+05 ;    C19 - H9R   
 14137  14139   1    1.0920e-01    2.8225e+05 ;    C19 - H9S   
 14137  14140   1    1.5350e-01    2.5363e+05 ;    C19 - C18   
 14140  14141   1    1.0920e-01    2.8225e+05 ;    C18 - H8R   
 14140  14142   1    1.0920e-01    2.8225e+05 ;    C18 - H8S   
 14140  14143   1    1.5350e-01    2.5363e+05 ;    C18 - C17   
 14143  14144   1    1.0920e-01    2.8225e+05 ;    C17 - H7R   
 14143  14145   1    1.0920e-01    2.8225e+05 ;    C17 - H7S   
 14143  14146   1    1.5350e-01    2.5363e+05 ;    C17 - C16   
 14146  14147   1    1.0920e-01    2.8225e+05 ;    C16 - H6R   
 14146  14148   1    1.0920e-01    2.8225e+05 ;    C16 - H6S   
 14146  14149   1    1.5350e-01    2.5363e+05 ;    C16 - C15   
 14149  14150   1    1.0920e-01    2.8225e+05 ;    C15 - H5R   
 14149  14151   1    1.0920e-01    2.8225e+05 ;    C15 - H5S   
 14149  14152   1    1.5350e-01    2.5363e+05 ;    C15 - C14   
 14152  14153   1    1.0920e-01    2.8225e+05 ;    C14 - H4R   
 14152  14154   1    1.0920e-01    2.8225e+05 ;    C14 - H4S   
 14152  14155   1    1.5350e-01    2.5363e+05 ;    C14 - C13   
 14155  14156   1    1.0920e-01    2.8225e+05 ;    C13 - H3R   
 14155  14157   1    1.0920e-01    2.8225e+05 ;    C13 - H3S   
 14155  14158   1    1.5350e-01    2.5363e+05 ;    C13 - C12   
 14158  14159   1    1.0920e-01    2.8225e+05 ;    C12 - H2R   
 14158  14160   1    1.0920e-01    2.8225e+05 ;    C12 - H2S   
 14161  14162   1    1.0920e-01    2.8225e+05 ;   H14T - C114  
 14162  14163   1    1.0920e-01    2.8225e+05 ;   C114 - H14R  
 14162  14164   1    1.0920e-01    2.8225e+05 ;   C114 - H14S  
 14162  14165   1    1.5350e-01    2.5363e+05 ;   C114 - C113  
 14165  14166   1    1.0920e-01    2.8225e+05 ;   C113 - H13R  
 14165  14167   1    1.0920e-01    2.8225e+05 ;   C113 - H13S  
 14165  14168   1    1.5350e-01    2.5363e+05 ;   C113 - C112  
 14168  14169   1    1.0920e-01    2.8225e+05 ;   C112 - H12R  
 14168  14170   1    1.0920e-01    2.8225e+05 ;   C112 - H12S  
 14168  14171   1    1.5350e-01    2.5363e+05 ;   C112 - C111  
 14171  14172   1    1.0920e-01    2.8225e+05 ;   C111 - H11R  
 14171  14173   1    1.0920e-01    2.8225e+05 ;   C111 - H11S  
 14171  14174   1    1.5350e-01    2.5363e+05 ;   C111 - C110  
 14174  14175   1    1.0920e-01    2.8225e+05 ;   C110 - H10R  
 14174  14176   1    1.0920e-01    2.8225e+05 ;   C110 - H10S  
 14174  14177   1    1.5350e-01    2.5363e+05 ;   C110 - C19   
 14177  14178   1    1.0920e-01    2.8225e+05 ;    C19 - H9R   
 14177  14179   1    1.0920e-01    2.8225e+05 ;    C19 - H9S   
 14177  14180   1    1.5350e-01    2.5363e+05 ;    C19 - C18   
 14180  14181   1    1.0920e-01    2.8225e+05 ;    C18 - H8R   
 14180  14182   1    1.0920e-01    2.8225e+05 ;    C18 - H8S   
 14180  14183   1    1.5350e-01    2.5363e+05 ;    C18 - C17   
 14183  14184   1    1.0920e-01    2.8225e+05 ;    C17 - H7R   
 14183  14185   1    1.0920e-01    2.8225e+05 ;    C17 - H7S   
 14183  14186   1    1.5350e-01    2.5363e+05 ;    C17 - C16   
 14186  14187   1    1.0920e-01    2.8225e+05 ;    C16 - H6R   
 14186  14188   1    1.0920e-01    2.8225e+05 ;    C16 - H6S   
 14186  14189   1    1.5350e-01    2.5363e+05 ;    C16 - C15   
 14189  14190   1    1.0920e-01    2.8225e+05 ;    C15 - H5R   
 14189  14191   1    1.0920e-01    2.8225e+05 ;    C15 - H5S   
 14189  14192   1    1.5350e-01    2.5363e+05 ;    C15 - C14   
 14192  14193   1    1.0920e-01    2.8225e+05 ;    C14 - H4R   
 14192  14194   1    1.0920e-01    2.8225e+05 ;    C14 - H4S   
 14192  14195   1    1.5350e-01    2.5363e+05 ;    C14 - C13   
 14195  14196   1    1.0920e-01    2.8225e+05 ;    C13 - H3R   
 14195  14197   1    1.0920e-01    2.8225e+05 ;    C13 - H3S   
 14195  14198   1    1.5350e-01    2.5363e+05 ;    C13 - C12   
 14198  14199   1    1.0920e-01    2.8225e+05 ;    C12 - H2R   
 14198  14200   1    1.0920e-01    2.8225e+05 ;    C12 - H2S   
 14198  14201   1    1.5080e-01    2.7472e+05 ;    C12 - C11   
 14201  14202   1    1.2140e-01    5.4225e+05 ;    C11 - O12   
 14201  14203   1    1.3430e-01    3.4418e+05 ;    C11 - O11   
 14203  14204   1    1.4390e-01    2.5230e+05 ;    O11 - C1    
 14204  14205   1    1.0930e-01    2.8108e+05 ;     C1 - HR    
 14204  14206   1    1.0930e-01    2.8108e+05 ;     C1 - HS    
 14204  14207   1    1.5350e-01    2.5363e+05 ;     C1 - C2    
 14207  14208   1    1.0930e-01    2.8108e+05 ;     C2 - HX    
 14207  14209   1    1.5350e-01    2.5363e+05 ;     C2 - C3    
 14207  14236   1    1.4390e-01    2.5230e+05 ;     C2 - O21   
 14209  14210   1    1.0930e-01    2.8108e+05 ;     C3 - HA    
 14209  14211   1    1.0930e-01    2.8108e+05 ;     C3 - HB    
 14209  14212   1    1.4390e-01    2.5230e+05 ;     C3 - O31   
 14212  14213   1    1.6100e-01    1.9246e+05 ;    O31 - P31   
 14213  14214   1    1.6100e-01    1.9246e+05 ;    P31 - O32   
 14213  14234   1    1.4800e-01    4.3932e+05 ;    P31 - O33   
 14213  14235   1    1.4800e-01    4.3932e+05 ;    P31 - O34   
 14214  14215   1    1.4390e-01    2.5230e+05 ;    O32 - C31   
 14215  14216   1    1.0930e-01    2.8108e+05 ;    C31 - H1A   
 14215  14217   1    1.0930e-01    2.8108e+05 ;    C31 - H1B   
 14215  14218   1    1.5350e-01    2.5363e+05 ;    C31 - C32   
 14218  14219   1    1.0910e-01    2.8342e+05 ;    C32 - H2A   
 14218  14220   1    1.0910e-01    2.8342e+05 ;    C32 - H2B   
 14218  14221   1    1.4990e-01    2.4568e+05 ;    C32 - N31   
 14221  14222   1    1.4990e-01    2.4568e+05 ;    N31 - C33   
 14221  14226   1    1.4990e-01    2.4568e+05 ;    N31 - C34   
 14221  14230   1    1.4990e-01    2.4568e+05 ;    N31 - C35   
 14222  14223   1    1.0910e-01    2.8342e+05 ;    C33 - H3A   
 14222  14224   1    1.0910e-01    2.8342e+05 ;    C33 - H3B   
 14222  14225   1    1.0910e-01    2.8342e+05 ;    C33 - H3C   
 14226  14227   1    1.0910e-01    2.8342e+05 ;    C34 - H4A   
 14226  14228   1    1.0910e-01    2.8342e+05 ;    C34 - H4B   
 14226  14229   1    1.0910e-01    2.8342e+05 ;    C34 - H4C   
 14230  14231   1    1.0910e-01    2.8342e+05 ;    C35 - H5A   
 14230  14232   1    1.0910e-01    2.8342e+05 ;    C35 - H5B   
 14230  14233   1    1.0910e-01    2.8342e+05 ;    C35 - H5C   
 14236  14237   1    1.3430e-01    3.4418e+05 ;    O21 - C21   
 14237  14238   1    1.2140e-01    5.4225e+05 ;    C21 - O22   
 14237  14276   1    1.5080e-01    2.7472e+05 ;    C21 - C12   
 14239  14240   1    1.0920e-01    2.8225e+05 ;   H14T - C114  
 14240  14241   1    1.0920e-01    2.8225e+05 ;   C114 - H14R  
 14240  14242   1    1.0920e-01    2.8225e+05 ;   C114 - H14S  
 14240  14243   1    1.5350e-01    2.5363e+05 ;   C114 - C113  
 14243  14244   1    1.0920e-01    2.8225e+05 ;   C113 - H13R  
 14243  14245   1    1.0920e-01    2.8225e+05 ;   C113 - H13S  
 14243  14246   1    1.5350e-01    2.5363e+05 ;   C113 - C112  
 14246  14247   1    1.0920e-01    2.8225e+05 ;   C112 - H12R  
 14246  14248   1    1.0920e-01    2.8225e+05 ;   C112 - H12S  
 14246  14249   1    1.5350e-01    2.5363e+05 ;   C112 - C111  
 14249  14250   1    1.0920e-01    2.8225e+05 ;   C111 - H11R  
 14249  14251   1    1.0920e-01    2.8225e+05 ;   C111 - H11S  
 14249  14252   1    1.5350e-01    2.5363e+05 ;   C111 - C110  
 14252  14253   1    1.0920e-01    2.8225e+05 ;   C110 - H10R  
 14252  14254   1    1.0920e-01    2.8225e+05 ;   C110 - H10S  
 14252  14255   1    1.5350e-01    2.5363e+05 ;   C110 - C19   
 14255  14256   1    1.0920e-01    2.8225e+05 ;    C19 - H9R   
 14255  14257   1    1.0920e-01    2.8225e+05 ;    C19 - H9S   
 14255  14258   1    1.5350e-01    2.5363e+05 ;    C19 - C18   
 14258  14259   1    1.0920e-01    2.8225e+05 ;    C18 - H8R   
 14258  14260   1    1.0920e-01    2.8225e+05 ;    C18 - H8S   
 14258  14261   1    1.5350e-01    2.5363e+05 ;    C18 - C17   
 14261  14262   1    1.0920e-01    2.8225e+05 ;    C17 - H7R   
 14261  14263   1    1.0920e-01    2.8225e+05 ;    C17 - H7S   
 14261  14264   1    1.5350e-01    2.5363e+05 ;    C17 - C16   
 14264  14265   1    1.0920e-01    2.8225e+05 ;    C16 - H6R   
 14264  14266   1    1.0920e-01    2.8225e+05 ;    C16 - H6S   
 14264  14267   1    1.5350e-01    2.5363e+05 ;    C16 - C15   
 14267  14268   1    1.0920e-01    2.8225e+05 ;    C15 - H5R   
 14267  14269   1    1.0920e-01    2.8225e+05 ;    C15 - H5S   
 14267  14270   1    1.5350e-01    2.5363e+05 ;    C15 - C14   
 14270  14271   1    1.0920e-01    2.8225e+05 ;    C14 - H4R   
 14270  14272   1    1.0920e-01    2.8225e+05 ;    C14 - H4S   
 14270  14273   1    1.5350e-01    2.5363e+05 ;    C14 - C13   
 14273  14274   1    1.0920e-01    2.8225e+05 ;    C13 - H3R   
 14273  14275   1    1.0920e-01    2.8225e+05 ;    C13 - H3S   
 14273  14276   1    1.5350e-01    2.5363e+05 ;    C13 - C12   
 14276  14277   1    1.0920e-01    2.8225e+05 ;    C12 - H2R   
 14276  14278   1    1.0920e-01    2.8225e+05 ;    C12 - H2S   
 14279  14280   1    1.0920e-01    2.8225e+05 ;   H14T - C114  
 14280  14281   1    1.0920e-01    2.8225e+05 ;   C114 - H14R  
 14280  14282   1    1.0920e-01    2.8225e+05 ;   C114 - H14S  
 14280  14283   1    1.5350e-01    2.5363e+05 ;   C114 - C113  
 14283  14284   1    1.0920e-01    2.8225e+05 ;   C113 - H13R  
 14283  14285   1    1.0920e-01    2.8225e+05 ;   C113 - H13S  
 14283  14286   1    1.5350e-01    2.5363e+05 ;   C113 - C112  
 14286  14287   1    1.0920e-01    2.8225e+05 ;   C112 - H12R  
 14286  14288   1    1.0920e-01    2.8225e+05 ;   C112 - H12S  
 14286  14289   1    1.5350e-01    2.5363e+05 ;   C112 - C111  
 14289  14290   1    1.0920e-01    2.8225e+05 ;   C111 - H11R  
 14289  14291   1    1.0920e-01    2.8225e+05 ;   C111 - H11S  
 14289  14292   1    1.5350e-01    2.5363e+05 ;   C111 - C110  
 14292  14293   1    1.0920e-01    2.8225e+05 ;   C110 - H10R  
 14292  14294   1    1.0920e-01    2.8225e+05 ;   C110 - H10S  
 14292  14295   1    1.5350e-01    2.5363e+05 ;   C110 - C19   
 14295  14296   1    1.0920e-01    2.8225e+05 ;    C19 - H9R   
 14295  14297   1    1.0920e-01    2.8225e+05 ;    C19 - H9S   
 14295  14298   1    1.5350e-01    2.5363e+05 ;    C19 - C18   
 14298  14299   1    1.0920e-01    2.8225e+05 ;    C18 - H8R   
 14298  14300   1    1.0920e-01    2.8225e+05 ;    C18 - H8S   
 14298  14301   1    1.5350e-01    2.5363e+05 ;    C18 - C17   
 14301  14302   1    1.0920e-01    2.8225e+05 ;    C17 - H7R   
 14301  14303   1    1.0920e-01    2.8225e+05 ;    C17 - H7S   
 14301  14304   1    1.5350e-01    2.5363e+05 ;    C17 - C16   
 14304  14305   1    1.0920e-01    2.8225e+05 ;    C16 - H6R   
 14304  14306   1    1.0920e-01    2.8225e+05 ;    C16 - H6S   
 14304  14307   1    1.5350e-01    2.5363e+05 ;    C16 - C15   
 14307  14308   1    1.0920e-01    2.8225e+05 ;    C15 - H5R   
 14307  14309   1    1.0920e-01    2.8225e+05 ;    C15 - H5S   
 14307  14310   1    1.5350e-01    2.5363e+05 ;    C15 - C14   
 14310  14311   1    1.0920e-01    2.8225e+05 ;    C14 - H4R   
 14310  14312   1    1.0920e-01    2.8225e+05 ;    C14 - H4S   
 14310  14313   1    1.5350e-01    2.5363e+05 ;    C14 - C13   
 14313  14314   1    1.0920e-01    2.8225e+05 ;    C13 - H3R   
 14313  14315   1    1.0920e-01    2.8225e+05 ;    C13 - H3S   
 14313  14316   1    1.5350e-01    2.5363e+05 ;    C13 - C12   
 14316  14317   1    1.0920e-01    2.8225e+05 ;    C12 - H2R   
 14316  14318   1    1.0920e-01    2.8225e+05 ;    C12 - H2S   
 14316  14319   1    1.5080e-01    2.7472e+05 ;    C12 - C11   
 14319  14320   1    1.2140e-01    5.4225e+05 ;    C11 - O12   
 14319  14321   1    1.3430e-01    3.4418e+05 ;    C11 - O11   
 14321  14322   1    1.4390e-01    2.5230e+05 ;    O11 - C1    
 14322  14323   1    1.0930e-01    2.8108e+05 ;     C1 - HR    
 14322  14324   1    1.0930e-01    2.8108e+05 ;     C1 - HS    
 14322  14325   1    1.5350e-01    2.5363e+05 ;     C1 - C2    
 14325  14326   1    1.0930e-01    2.8108e+05 ;     C2 - HX    
 14325  14327   1    1.5350e-01    2.5363e+05 ;     C2 - C3    
 14325  14354   1    1.4390e-01    2.5230e+05 ;     C2 - O21   
 14327  14328   1    1.0930e-01    2.8108e+05 ;     C3 - HA    
 14327  14329   1    1.0930e-01    2.8108e+05 ;     C3 - HB    
 14327  14330   1    1.4390e-01    2.5230e+05 ;     C3 - O31   
 14330  14331   1    1.6100e-01    1.9246e+05 ;    O31 - P31   
 14331  14332   1    1.6100e-01    1.9246e+05 ;    P31 - O32   
 14331  14352   1    1.4800e-01    4.3932e+05 ;    P31 - O33   
 14331  14353   1    1.4800e-01    4.3932e+05 ;    P31 - O34   
 14332  14333   1    1.4390e-01    2.5230e+05 ;    O32 - C31   
 14333  14334   1    1.0930e-01    2.8108e+05 ;    C31 - H1A   
 14333  14335   1    1.0930e-01    2.8108e+05 ;    C31 - H1B   
 14333  14336   1    1.5350e-01    2.5363e+05 ;    C31 - C32   
 14336  14337   1    1.0910e-01    2.8342e+05 ;    C32 - H2A   
 14336  14338   1    1.0910e-01    2.8342e+05 ;    C32 - H2B   
 14336  14339   1    1.4990e-01    2.4568e+05 ;    C32 - N31   
 14339  14340   1    1.4990e-01    2.4568e+05 ;    N31 - C33   
 14339  14344   1    1.4990e-01    2.4568e+05 ;    N31 - C34   
 14339  14348   1    1.4990e-01    2.4568e+05 ;    N31 - C35   
 14340  14341   1    1.0910e-01    2.8342e+05 ;    C33 - H3A   
 14340  14342   1    1.0910e-01    2.8342e+05 ;    C33 - H3B   
 14340  14343   1    1.0910e-01    2.8342e+05 ;    C33 - H3C   
 14344  14345   1    1.0910e-01    2.8342e+05 ;    C34 - H4A   
 14344  14346   1    1.0910e-01    2.8342e+05 ;    C34 - H4B   
 14344  14347   1    1.0910e-01    2.8342e+05 ;    C34 - H4C   
 14348  14349   1    1.0910e-01    2.8342e+05 ;    C35 - H5A   
 14348  14350   1    1.0910e-01    2.8342e+05 ;    C35 - H5B   
 14348  14351   1    1.0910e-01    2.8342e+05 ;    C35 - H5C   
 14354  14355   1    1.3430e-01    3.4418e+05 ;    O21 - C21   
 14355  14356   1    1.2140e-01    5.4225e+05 ;    C21 - O22   
 14355  14394   1    1.5080e-01    2.7472e+05 ;    C21 - C12   
 14357  14358   1    1.0920e-01    2.8225e+05 ;   H14T - C114  
 14358  14359   1    1.0920e-01    2.8225e+05 ;   C114 - H14R  
 14358  14360   1    1.0920e-01    2.8225e+05 ;   C114 - H14S  
 14358  14361   1    1.5350e-01    2.5363e+05 ;   C114 - C113  
 14361  14362   1    1.0920e-01    2.8225e+05 ;   C113 - H13R  
 14361  14363   1    1.0920e-01    2.8225e+05 ;   C113 - H13S  
 14361  14364   1    1.5350e-01    2.5363e+05 ;   C113 - C112  
 14364  14365   1    1.0920e-01    2.8225e+05 ;   C112 - H12R  
 14364  14366   1    1.0920e-01    2.8225e+05 ;   C112 - H12S  
 14364  14367   1    1.5350e-01    2.5363e+05 ;   C112 - C111  
 14367  14368   1    1.0920e-01    2.8225e+05 ;   C111 - H11R  
 14367  14369   1    1.0920e-01    2.8225e+05 ;   C111 - H11S  
 14367  14370   1    1.5350e-01    2.5363e+05 ;   C111 - C110  
 14370  14371   1    1.0920e-01    2.8225e+05 ;   C110 - H10R  
 14370  14372   1    1.0920e-01    2.8225e+05 ;   C110 - H10S  
 14370  14373   1    1.5350e-01    2.5363e+05 ;   C110 - C19   
 14373  14374   1    1.0920e-01    2.8225e+05 ;    C19 - H9R   
 14373  14375   1    1.0920e-01    2.8225e+05 ;    C19 - H9S   
 14373  14376   1    1.5350e-01    2.5363e+05 ;    C19 - C18   
 14376  14377   1    1.0920e-01    2.8225e+05 ;    C18 - H8R   
 14376  14378   1    1.0920e-01    2.8225e+05 ;    C18 - H8S   
 14376  14379   1    1.5350e-01    2.5363e+05 ;    C18 - C17   
 14379  14380   1    1.0920e-01    2.8225e+05 ;    C17 - H7R   
 14379  14381   1    1.0920e-01    2.8225e+05 ;    C17 - H7S   
 14379  14382   1    1.5350e-01    2.5363e+05 ;    C17 - C16   
 14382  14383   1    1.0920e-01    2.8225e+05 ;    C16 - H6R   
 14382  14384   1    1.0920e-01    2.8225e+05 ;    C16 - H6S   
 14382  14385   1    1.5350e-01    2.5363e+05 ;    C16 - C15   
 14385  14386   1    1.0920e-01    2.8225e+05 ;    C15 - H5R   
 14385  14387   1    1.0920e-01    2.8225e+05 ;    C15 - H5S   
 14385  14388   1    1.5350e-01    2.5363e+05 ;    C15 - C14   
 14388  14389   1    1.0920e-01    2.8225e+05 ;    C14 - H4R   
 14388  14390   1    1.0920e-01    2.8225e+05 ;    C14 - H4S   
 14388  14391   1    1.5350e-01    2.5363e+05 ;    C14 - C13   
 14391  14392   1    1.0920e-01    2.8225e+05 ;    C13 - H3R   
 14391  14393   1    1.0920e-01    2.8225e+05 ;    C13 - H3S   
 14391  14394   1    1.5350e-01    2.5363e+05 ;    C13 - C12   
 14394  14395   1    1.0920e-01    2.8225e+05 ;    C12 - H2R   
 14394  14396   1    1.0920e-01    2.8225e+05 ;    C12 - H2S   
 14397  14398   1    1.0920e-01    2.8225e+05 ;   H14T - C114  
 14398  14399   1    1.0920e-01    2.8225e+05 ;   C114 - H14R  
 14398  14400   1    1.0920e-01    2.8225e+05 ;   C114 - H14S  
 14398  14401   1    1.5350e-01    2.5363e+05 ;   C114 - C113  
 14401  14402   1    1.0920e-01    2.8225e+05 ;   C113 - H13R  
 14401  14403   1    1.0920e-01    2.8225e+05 ;   C113 - H13S  
 14401  14404   1    1.5350e-01    2.5363e+05 ;   C113 - C112  
 14404  14405   1    1.0920e-01    2.8225e+05 ;   C112 - H12R  
 14404  14406   1    1.0920e-01    2.8225e+05 ;   C112 - H12S  
 14404  14407   1    1.5350e-01    2.5363e+05 ;   C112 - C111  
 14407  14408   1    1.0920e-01    2.8225e+05 ;   C111 - H11R  
 14407  14409   1    1.0920e-01    2.8225e+05 ;   C111 - H11S  
 14407  14410   1    1.5350e-01    2.5363e+05 ;   C111 - C110  
 14410  14411   1    1.0920e-01    2.8225e+05 ;   C110 - H10R  
 14410  14412   1    1.0920e-01    2.8225e+05 ;   C110 - H10S  
 14410  14413   1    1.5350e-01    2.5363e+05 ;   C110 - C19   
 14413  14414   1    1.0920e-01    2.8225e+05 ;    C19 - H9R   
 14413  14415   1    1.0920e-01    2.8225e+05 ;    C19 - H9S   
 14413  14416   1    1.5350e-01    2.5363e+05 ;    C19 - C18   
 14416  14417   1    1.0920e-01    2.8225e+05 ;    C18 - H8R   
 14416  14418   1    1.0920e-01    2.8225e+05 ;    C18 - H8S   
 14416  14419   1    1.5350e-01    2.5363e+05 ;    C18 - C17   
 14419  14420   1    1.0920e-01    2.8225e+05 ;    C17 - H7R   
 14419  14421   1    1.0920e-01    2.8225e+05 ;    C17 - H7S   
 14419  14422   1    1.5350e-01    2.5363e+05 ;    C17 - C16   
 14422  14423   1    1.0920e-01    2.8225e+05 ;    C16 - H6R   
 14422  14424   1    1.0920e-01    2.8225e+05 ;    C16 - H6S   
 14422  14425   1    1.5350e-01    2.5363e+05 ;    C16 - C15   
 14425  14426   1    1.0920e-01    2.8225e+05 ;    C15 - H5R   
 14425  14427   1    1.0920e-01    2.8225e+05 ;    C15 - H5S   
 14425  14428   1    1.5350e-01    2.5363e+05 ;    C15 - C14   
 14428  14429   1    1.0920e-01    2.8225e+05 ;    C14 - H4R   
 14428  14430   1    1.0920e-01    2.8225e+05 ;    C14 - H4S   
 14428  14431   1    1.5350e-01    2.5363e+05 ;    C14 - C13   
 14431  14432   1    1.0920e-01    2.8225e+05 ;    C13 - H3R   
 14431  14433   1    1.0920e-01    2.8225e+05 ;    C13 - H3S   
 14431  14434   1    1.5350e-01    2.5363e+05 ;    C13 - C12   
 14434  14435   1    1.0920e-01    2.8225e+05 ;    C12 - H2R   
 14434  14436   1    1.0920e-01    2.8225e+05 ;    C12 - H2S   
 14434  14437   1    1.5080e-01    2.7472e+05 ;    C12 - C11   
 14437  14438   1    1.2140e-01    5.4225e+05 ;    C11 - O12   
 14437  14439   1    1.3430e-01    3.4418e+05 ;    C11 - O11   
 14439  14440   1    1.4390e-01    2.5230e+05 ;    O11 - C1    
 14440  14441   1    1.0930e-01    2.8108e+05 ;     C1 - HR    
 14440  14442   1    1.0930e-01    2.8108e+05 ;     C1 - HS    
 14440  14443   1    1.5350e-01    2.5363e+05 ;     C1 - C2    
 14443  14444   1    1.0930e-01    2.8108e+05 ;     C2 - HX    
 14443  14445   1    1.5350e-01    2.5363e+05 ;     C2 - C3    
 14443  14472   1    1.4390e-01    2.5230e+05 ;     C2 - O21   
 14445  14446   1    1.0930e-01    2.8108e+05 ;     C3 - HA    
 14445  14447   1    1.0930e-01    2.8108e+05 ;     C3 - HB    
 14445  14448   1    1.4390e-01    2.5230e+05 ;     C3 - O31   
 14448  14449   1    1.6100e-01    1.9246e+05 ;    O31 - P31   
 14449  14450   1    1.6100e-01    1.9246e+05 ;    P31 - O32   
 14449  14470   1    1.4800e-01    4.3932e+05 ;    P31 - O33   
 14449  14471   1    1.4800e-01    4.3932e+05 ;    P31 - O34   
 14450  14451   1    1.4390e-01    2.5230e+05 ;    O32 - C31   
 14451  14452   1    1.0930e-01    2.8108e+05 ;    C31 - H1A   
 14451  14453   1    1.0930e-01    2.8108e+05 ;    C31 - H1B   
 14451  14454   1    1.5350e-01    2.5363e+05 ;    C31 - C32   
 14454  14455   1    1.0910e-01    2.8342e+05 ;    C32 - H2A   
 14454  14456   1    1.0910e-01    2.8342e+05 ;    C32 - H2B   
 14454  14457   1    1.4990e-01    2.4568e+05 ;    C32 - N31   
 14457  14458   1    1.4990e-01    2.4568e+05 ;    N31 - C33   
 14457  14462   1    1.4990e-01    2.4568e+05 ;    N31 - C34   
 14457  14466   1    1.4990e-01    2.4568e+05 ;    N31 - C35   
 14458  14459   1    1.0910e-01    2.8342e+05 ;    C33 - H3A   
 14458  14460   1    1.0910e-01    2.8342e+05 ;    C33 - H3B   
 14458  14461   1    1.0910e-01    2.8342e+05 ;    C33 - H3C   
 14462  14463   1    1.0910e-01    2.8342e+05 ;    C34 - H4A   
 14462  14464   1    1.0910e-01    2.8342e+05 ;    C34 - H4B   
 14462  14465   1    1.0910e-01    2.8342e+05 ;    C34 - H4C   
 14466  14467   1    1.0910e-01    2.8342e+05 ;    C35 - H5A   
 14466  14468   1    1.0910e-01    2.8342e+05 ;    C35 - H5B   
 14466  14469   1    1.0910e-01    2.8342e+05 ;    C35 - H5C   
 14472  14473   1    1.3430e-01    3.4418e+05 ;    O21 - C21   
 14473  14474   1    1.2140e-01    5.4225e+05 ;    C21 - O22   
 14473  14512   1    1.5080e-01    2.7472e+05 ;    C21 - C12   
 14475  14476   1    1.0920e-01    2.8225e+05 ;   H14T - C114  
 14476  14477   1    1.0920e-01    2.8225e+05 ;   C114 - H14R  
 14476  14478   1    1.0920e-01    2.8225e+05 ;   C114 - H14S  
 14476  14479   1    1.5350e-01    2.5363e+05 ;   C114 - C113  
 14479  14480   1    1.0920e-01    2.8225e+05 ;   C113 - H13R  
 14479  14481   1    1.0920e-01    2.8225e+05 ;   C113 - H13S  
 14479  14482   1    1.5350e-01    2.5363e+05 ;   C113 - C112  
 14482  14483   1    1.0920e-01    2.8225e+05 ;   C112 - H12R  
 14482  14484   1    1.0920e-01    2.8225e+05 ;   C112 - H12S  
 14482  14485   1    1.5350e-01    2.5363e+05 ;   C112 - C111  
 14485  14486   1    1.0920e-01    2.8225e+05 ;   C111 - H11R  
 14485  14487   1    1.0920e-01    2.8225e+05 ;   C111 - H11S  
 14485  14488   1    1.5350e-01    2.5363e+05 ;   C111 - C110  
 14488  14489   1    1.0920e-01    2.8225e+05 ;   C110 - H10R  
 14488  14490   1    1.0920e-01    2.8225e+05 ;   C110 - H10S  
 14488  14491   1    1.5350e-01    2.5363e+05 ;   C110 - C19   
 14491  14492   1    1.0920e-01    2.8225e+05 ;    C19 - H9R   
 14491  14493   1    1.0920e-01    2.8225e+05 ;    C19 - H9S   
 14491  14494   1    1.5350e-01    2.5363e+05 ;    C19 - C18   
 14494  14495   1    1.0920e-01    2.8225e+05 ;    C18 - H8R   
 14494  14496   1    1.0920e-01    2.8225e+05 ;    C18 - H8S   
 14494  14497   1    1.5350e-01    2.5363e+05 ;    C18 - C17   
 14497  14498   1    1.0920e-01    2.8225e+05 ;    C17 - H7R   
 14497  14499   1    1.0920e-01    2.8225e+05 ;    C17 - H7S   
 14497  14500   1    1.5350e-01    2.5363e+05 ;    C17 - C16   
 14500  14501   1    1.0920e-01    2.8225e+05 ;    C16 - H6R   
 14500  14502   1    1.0920e-01    2.8225e+05 ;    C16 - H6S   
 14500  14503   1    1.5350e-01    2.5363e+05 ;    C16 - C15   
 14503  14504   1    1.0920e-01    2.8225e+05 ;    C15 - H5R   
 14503  14505   1    1.0920e-01    2.8225e+05 ;    C15 - H5S   
 14503  14506   1    1.5350e-01    2.5363e+05 ;    C15 - C14   
 14506  14507   1    1.0920e-01    2.8225e+05 ;    C14 - H4R   
 14506  14508   1    1.0920e-01    2.8225e+05 ;    C14 - H4S   
 14506  14509   1    1.5350e-01    2.5363e+05 ;    C14 - C13   
 14509  14510   1    1.0920e-01    2.8225e+05 ;    C13 - H3R   
 14509  14511   1    1.0920e-01    2.8225e+05 ;    C13 - H3S   
 14509  14512   1    1.5350e-01    2.5363e+05 ;    C13 - C12   
 14512  14513   1    1.0920e-01    2.8225e+05 ;    C12 - H2R   
 14512  14514   1    1.0920e-01    2.8225e+05 ;    C12 - H2S   
 14515  14516   1    1.0920e-01    2.8225e+05 ;   H14T - C114  
 14516  14517   1    1.0920e-01    2.8225e+05 ;   C114 - H14R  
 14516  14518   1    1.0920e-01    2.8225e+05 ;   C114 - H14S  
 14516  14519   1    1.5350e-01    2.5363e+05 ;   C114 - C113  
 14519  14520   1    1.0920e-01    2.8225e+05 ;   C113 - H13R  
 14519  14521   1    1.0920e-01    2.8225e+05 ;   C113 - H13S  
 14519  14522   1    1.5350e-01    2.5363e+05 ;   C113 - C112  
 14522  14523   1    1.0920e-01    2.8225e+05 ;   C112 - H12R  
 14522  14524   1    1.0920e-01    2.8225e+05 ;   C112 - H12S  
 14522  14525   1    1.5350e-01    2.5363e+05 ;   C112 - C111  
 14525  14526   1    1.0920e-01    2.8225e+05 ;   C111 - H11R  
 14525  14527   1    1.0920e-01    2.8225e+05 ;   C111 - H11S  
 14525  14528   1    1.5350e-01    2.5363e+05 ;   C111 - C110  
 14528  14529   1    1.0920e-01    2.8225e+05 ;   C110 - H10R  
 14528  14530   1    1.0920e-01    2.8225e+05 ;   C110 - H10S  
 14528  14531   1    1.5350e-01    2.5363e+05 ;   C110 - C19   
 14531  14532   1    1.0920e-01    2.8225e+05 ;    C19 - H9R   
 14531  14533   1    1.0920e-01    2.8225e+05 ;    C19 - H9S   
 14531  14534   1    1.5350e-01    2.5363e+05 ;    C19 - C18   
 14534  14535   1    1.0920e-01    2.8225e+05 ;    C18 - H8R   
 14534  14536   1    1.0920e-01    2.8225e+05 ;    C18 - H8S   
 14534  14537   1    1.5350e-01    2.5363e+05 ;    C18 - C17   
 14537  14538   1    1.0920e-01    2.8225e+05 ;    C17 - H7R   
 14537  14539   1    1.0920e-01    2.8225e+05 ;    C17 - H7S   
 14537  14540   1    1.5350e-01    2.5363e+05 ;    C17 - C16   
 14540  14541   1    1.0920e-01    2.8225e+05 ;    C16 - H6R   
 14540  14542   1    1.0920e-01    2.8225e+05 ;    C16 - H6S   
 14540  14543   1    1.5350e-01    2.5363e+05 ;    C16 - C15   
 14543  14544   1    1.0920e-01    2.8225e+05 ;    C15 - H5R   
 14543  14545   1    1.0920e-01    2.8225e+05 ;    C15 - H5S   
 14543  14546   1    1.5350e-01    2.5363e+05 ;    C15 - C14   
 14546  14547   1    1.0920e-01    2.8225e+05 ;    C14 - H4R   
 14546  14548   1    1.0920e-01    2.8225e+05 ;    C14 - H4S   
 14546  14549   1    1.5350e-01    2.5363e+05 ;    C14 - C13   
 14549  14550   1    1.0920e-01    2.8225e+05 ;    C13 - H3R   
 14549  14551   1    1.0920e-01    2.8225e+05 ;    C13 - H3S   
 14549  14552   1    1.5350e-01    2.5363e+05 ;    C13 - C12   
 14552  14553   1    1.0920e-01    2.8225e+05 ;    C12 - H2R   
 14552  14554   1    1.0920e-01    2.8225e+05 ;    C12 - H2S   
 14552  14555   1    1.5080e-01    2.7472e+05 ;    C12 - C11   
 14555  14556   1    1.2140e-01    5.4225e+05 ;    C11 - O12   
 14555  14557   1    1.3430e-01    3.4418e+05 ;    C11 - O11   
 14557  14558   1    1.4390e-01    2.5230e+05 ;    O11 - C1    
 14558  14559   1    1.0930e-01    2.8108e+05 ;     C1 - HR    
 14558  14560   1    1.0930e-01    2.8108e+05 ;     C1 - HS    
 14558  14561   1    1.5350e-01    2.5363e+05 ;     C1 - C2    
 14561  14562   1    1.0930e-01    2.8108e+05 ;     C2 - HX    
 14561  14563   1    1.5350e-01    2.5363e+05 ;     C2 - C3    
 14561  14590   1    1.4390e-01    2.5230e+05 ;     C2 - O21   
 14563  14564   1    1.0930e-01    2.8108e+05 ;     C3 - HA    
 14563  14565   1    1.0930e-01    2.8108e+05 ;     C3 - HB    
 14563  14566   1    1.4390e-01    2.5230e+05 ;     C3 - O31   
 14566  14567   1    1.6100e-01    1.9246e+05 ;    O31 - P31   
 14567  14568   1    1.6100e-01    1.9246e+05 ;    P31 - O32   
 14567  14588   1    1.4800e-01    4.3932e+05 ;    P31 - O33   
 14567  14589   1    1.4800e-01    4.3932e+05 ;    P31 - O34   
 14568  14569   1    1.4390e-01    2.5230e+05 ;    O32 - C31   
 14569  14570   1    1.0930e-01    2.8108e+05 ;    C31 - H1A   
 14569  14571   1    1.0930e-01    2.8108e+05 ;    C31 - H1B   
 14569  14572   1    1.5350e-01    2.5363e+05 ;    C31 - C32   
 14572  14573   1    1.0910e-01    2.8342e+05 ;    C32 - H2A   
 14572  14574   1    1.0910e-01    2.8342e+05 ;    C32 - H2B   
 14572  14575   1    1.4990e-01    2.4568e+05 ;    C32 - N31   
 14575  14576   1    1.4990e-01    2.4568e+05 ;    N31 - C33   
 14575  14580   1    1.4990e-01    2.4568e+05 ;    N31 - C34   
 14575  14584   1    1.4990e-01    2.4568e+05 ;    N31 - C35   
 14576  14577   1    1.0910e-01    2.8342e+05 ;    C33 - H3A   
 14576  14578   1    1.0910e-01    2.8342e+05 ;    C33 - H3B   
 14576  14579   1    1.0910e-01    2.8342e+05 ;    C33 - H3C   
 14580  14581   1    1.0910e-01    2.8342e+05 ;    C34 - H4A   
 14580  14582   1    1.0910e-01    2.8342e+05 ;    C34 - H4B   
 14580  14583   1    1.0910e-01    2.8342e+05 ;    C34 - H4C   
 14584  14585   1    1.0910e-01    2.8342e+05 ;    C35 - H5A   
 14584  14586   1    1.0910e-01    2.8342e+05 ;    C35 - H5B   
 14584  14587   1    1.0910e-01    2.8342e+05 ;    C35 - H5C   
 14590  14591   1    1.3430e-01    3.4418e+05 ;    O21 - C21   
 14591  14592   1    1.2140e-01    5.4225e+05 ;    C21 - O22   
 14591  14630   1    1.5080e-01    2.7472e+05 ;    C21 - C12   
 14593  14594   1    1.0920e-01    2.8225e+05 ;   H14T - C114  
 14594  14595   1    1.0920e-01    2.8225e+05 ;   C114 - H14R  
 14594  14596   1    1.0920e-01    2.8225e+05 ;   C114 - H14S  
 14594  14597   1    1.5350e-01    2.5363e+05 ;   C114 - C113  
 14597  14598   1    1.0920e-01    2.8225e+05 ;   C113 - H13R  
 14597  14599   1    1.0920e-01    2.8225e+05 ;   C113 - H13S  
 14597  14600   1    1.5350e-01    2.5363e+05 ;   C113 - C112  
 14600  14601   1    1.0920e-01    2.8225e+05 ;   C112 - H12R  
 14600  14602   1    1.0920e-01    2.8225e+05 ;   C112 - H12S  
 14600  14603   1    1.5350e-01    2.5363e+05 ;   C112 - C111  
 14603  14604   1    1.0920e-01    2.8225e+05 ;   C111 - H11R  
 14603  14605   1    1.0920e-01    2.8225e+05 ;   C111 - H11S  
 14603  14606   1    1.5350e-01    2.5363e+05 ;   C111 - C110  
 14606  14607   1    1.0920e-01    2.8225e+05 ;   C110 - H10R  
 14606  14608   1    1.0920e-01    2.8225e+05 ;   C110 - H10S  
 14606  14609   1    1.5350e-01    2.5363e+05 ;   C110 - C19   
 14609  14610   1    1.0920e-01    2.8225e+05 ;    C19 - H9R   
 14609  14611   1    1.0920e-01    2.8225e+05 ;    C19 - H9S   
 14609  14612   1    1.5350e-01    2.5363e+05 ;    C19 - C18   
 14612  14613   1    1.0920e-01    2.8225e+05 ;    C18 - H8R   
 14612  14614   1    1.0920e-01    2.8225e+05 ;    C18 - H8S   
 14612  14615   1    1.5350e-01    2.5363e+05 ;    C18 - C17   
 14615  14616   1    1.0920e-01    2.8225e+05 ;    C17 - H7R   
 14615  14617   1    1.0920e-01    2.8225e+05 ;    C17 - H7S   
 14615  14618   1    1.5350e-01    2.5363e+05 ;    C17 - C16   
 14618  14619   1    1.0920e-01    2.8225e+05 ;    C16 - H6R   
 14618  14620   1    1.0920e-01    2.8225e+05 ;    C16 - H6S   
 14618  14621   1    1.5350e-01    2.5363e+05 ;    C16 - C15   
 14621  14622   1    1.0920e-01    2.8225e+05 ;    C15 - H5R   
 14621  14623   1    1.0920e-01    2.8225e+05 ;    C15 - H5S   
 14621  14624   1    1.5350e-01    2.5363e+05 ;    C15 - C14   
 14624  14625   1    1.0920e-01    2.8225e+05 ;    C14 - H4R   
 14624  14626   1    1.0920e-01    2.8225e+05 ;    C14 - H4S   
 14624  14627   1    1.5350e-01    2.5363e+05 ;    C14 - C13   
 14627  14628   1    1.0920e-01    2.8225e+05 ;    C13 - H3R   
 14627  14629   1    1.0920e-01    2.8225e+05 ;    C13 - H3S   
 14627  14630   1    1.5350e-01    2.5363e+05 ;    C13 - C12   
 14630  14631   1    1.0920e-01    2.8225e+05 ;    C12 - H2R   
 14630  14632   1    1.0920e-01    2.8225e+05 ;    C12 - H2S   
 14633  14634   1    1.0920e-01    2.8225e+05 ;   H14T - C114  
 14634  14635   1    1.0920e-01    2.8225e+05 ;   C114 - H14R  
 14634  14636   1    1.0920e-01    2.8225e+05 ;   C114 - H14S  
 14634  14637   1    1.5350e-01    2.5363e+05 ;   C114 - C113  
 14637  14638   1    1.0920e-01    2.8225e+05 ;   C113 - H13R  
 14637  14639   1    1.0920e-01    2.8225e+05 ;   C113 - H13S  
 14637  14640   1    1.5350e-01    2.5363e+05 ;   C113 - C112  
 14640  14641   1    1.0920e-01    2.8225e+05 ;   C112 - H12R  
 14640  14642   1    1.0920e-01    2.8225e+05 ;   C112 - H12S  
 14640  14643   1    1.5350e-01    2.5363e+05 ;   C112 - C111  
 14643  14644   1    1.0920e-01    2.8225e+05 ;   C111 - H11R  
 14643  14645   1    1.0920e-01    2.8225e+05 ;   C111 - H11S  
 14643  14646   1    1.5350e-01    2.5363e+05 ;   C111 - C110  
 14646  14647   1    1.0920e-01    2.8225e+05 ;   C110 - H10R  
 14646  14648   1    1.0920e-01    2.8225e+05 ;   C110 - H10S  
 14646  14649   1    1.5350e-01    2.5363e+05 ;   C110 - C19   
 14649  14650   1    1.0920e-01    2.8225e+05 ;    C19 - H9R   
 14649  14651   1    1.0920e-01    2.8225e+05 ;    C19 - H9S   
 14649  14652   1    1.5350e-01    2.5363e+05 ;    C19 - C18   
 14652  14653   1    1.0920e-01    2.8225e+05 ;    C18 - H8R   
 14652  14654   1    1.0920e-01    2.8225e+05 ;    C18 - H8S   
 14652  14655   1    1.5350e-01    2.5363e+05 ;    C18 - C17   
 14655  14656   1    1.0920e-01    2.8225e+05 ;    C17 - H7R   
 14655  14657   1    1.0920e-01    2.8225e+05 ;    C17 - H7S   
 14655  14658   1    1.5350e-01    2.5363e+05 ;    C17 - C16   
 14658  14659   1    1.0920e-01    2.8225e+05 ;    C16 - H6R   
 14658  14660   1    1.0920e-01    2.8225e+05 ;    C16 - H6S   
 14658  14661   1    1.5350e-01    2.5363e+05 ;    C16 - C15   
 14661  14662   1    1.0920e-01    2.8225e+05 ;    C15 - H5R   
 14661  14663   1    1.0920e-01    2.8225e+05 ;    C15 - H5S   
 14661  14664   1    1.5350e-01    2.5363e+05 ;    C15 - C14   
 14664  14665   1    1.0920e-01    2.8225e+05 ;    C14 - H4R   
 14664  14666   1    1.0920e-01    2.8225e+05 ;    C14 - H4S   
 14664  14667   1    1.5350e-01    2.5363e+05 ;    C14 - C13   
 14667  14668   1    1.0920e-01    2.8225e+05 ;    C13 - H3R   
 14667  14669   1    1.0920e-01    2.8225e+05 ;    C13 - H3S   
 14667  14670   1    1.5350e-01    2.5363e+05 ;    C13 - C12   
 14670  14671   1    1.0920e-01    2.8225e+05 ;    C12 - H2R   
 14670  14672   1    1.0920e-01    2.8225e+05 ;    C12 - H2S   
 14670  14673   1    1.5080e-01    2.7472e+05 ;    C12 - C11   
 14673  14674   1    1.2140e-01    5.4225e+05 ;    C11 - O12   
 14673  14675   1    1.3430e-01    3.4418e+05 ;    C11 - O11   
 14675  14676   1    1.4390e-01    2.5230e+05 ;    O11 - C1    
 14676  14677   1    1.0930e-01    2.8108e+05 ;     C1 - HR    
 14676  14678   1    1.0930e-01    2.8108e+05 ;     C1 - HS    
 14676  14679   1    1.5350e-01    2.5363e+05 ;     C1 - C2    
 14679  14680   1    1.0930e-01    2.8108e+05 ;     C2 - HX    
 14679  14681   1    1.5350e-01    2.5363e+05 ;     C2 - C3    
 14679  14708   1    1.4390e-01    2.5230e+05 ;     C2 - O21   
 14681  14682   1    1.0930e-01    2.8108e+05 ;     C3 - HA    
 14681  14683   1    1.0930e-01    2.8108e+05 ;     C3 - HB    
 14681  14684   1    1.4390e-01    2.5230e+05 ;     C3 - O31   
 14684  14685   1    1.6100e-01    1.9246e+05 ;    O31 - P31   
 14685  14686   1    1.6100e-01    1.9246e+05 ;    P31 - O32   
 14685  14706   1    1.4800e-01    4.3932e+05 ;    P31 - O33   
 14685  14707   1    1.4800e-01    4.3932e+05 ;    P31 - O34   
 14686  14687   1    1.4390e-01    2.5230e+05 ;    O32 - C31   
 14687  14688   1    1.0930e-01    2.8108e+05 ;    C31 - H1A   
 14687  14689   1    1.0930e-01    2.8108e+05 ;    C31 - H1B   
 14687  14690   1    1.5350e-01    2.5363e+05 ;    C31 - C32   
 14690  14691   1    1.0910e-01    2.8342e+05 ;    C32 - H2A   
 14690  14692   1    1.0910e-01    2.8342e+05 ;    C32 - H2B   
 14690  14693   1    1.4990e-01    2.4568e+05 ;    C32 - N31   
 14693  14694   1    1.4990e-01    2.4568e+05 ;    N31 - C33   
 14693  14698   1    1.4990e-01    2.4568e+05 ;    N31 - C34   
 14693  14702   1    1.4990e-01    2.4568e+05 ;    N31 - C35   
 14694  14695   1    1.0910e-01    2.8342e+05 ;    C33 - H3A   
 14694  14696   1    1.0910e-01    2.8342e+05 ;    C33 - H3B   
 14694  14697   1    1.0910e-01    2.8342e+05 ;    C33 - H3C   
 14698  14699   1    1.0910e-01    2.8342e+05 ;    C34 - H4A   
 14698  14700   1    1.0910e-01    2.8342e+05 ;    C34 - H4B   
 14698  14701   1    1.0910e-01    2.8342e+05 ;    C34 - H4C   
 14702  14703   1    1.0910e-01    2.8342e+05 ;    C35 - H5A   
 14702  14704   1    1.0910e-01    2.8342e+05 ;    C35 - H5B   
 14702  14705   1    1.0910e-01    2.8342e+05 ;    C35 - H5C   
 14708  14709   1    1.3430e-01    3.4418e+05 ;    O21 - C21   
 14709  14710   1    1.2140e-01    5.4225e+05 ;    C21 - O22   
 14709  14748   1    1.5080e-01    2.7472e+05 ;    C21 - C12   
 14711  14712   1    1.0920e-01    2.8225e+05 ;   H14T - C114  
 14712  14713   1    1.0920e-01    2.8225e+05 ;   C114 - H14R  
 14712  14714   1    1.0920e-01    2.8225e+05 ;   C114 - H14S  
 14712  14715   1    1.5350e-01    2.5363e+05 ;   C114 - C113  
 14715  14716   1    1.0920e-01    2.8225e+05 ;   C113 - H13R  
 14715  14717   1    1.0920e-01    2.8225e+05 ;   C113 - H13S  
 14715  14718   1    1.5350e-01    2.5363e+05 ;   C113 - C112  
 14718  14719   1    1.0920e-01    2.8225e+05 ;   C112 - H12R  
 14718  14720   1    1.0920e-01    2.8225e+05 ;   C112 - H12S  
 14718  14721   1    1.5350e-01    2.5363e+05 ;   C112 - C111  
 14721  14722   1    1.0920e-01    2.8225e+05 ;   C111 - H11R  
 14721  14723   1    1.0920e-01    2.8225e+05 ;   C111 - H11S  
 14721  14724   1    1.5350e-01    2.5363e+05 ;   C111 - C110  
 14724  14725   1    1.0920e-01    2.8225e+05 ;   C110 - H10R  
 14724  14726   1    1.0920e-01    2.8225e+05 ;   C110 - H10S  
 14724  14727   1    1.5350e-01    2.5363e+05 ;   C110 - C19   
 14727  14728   1    1.0920e-01    2.8225e+05 ;    C19 - H9R   
 14727  14729   1    1.0920e-01    2.8225e+05 ;    C19 - H9S   
 14727  14730   1    1.5350e-01    2.5363e+05 ;    C19 - C18   
 14730  14731   1    1.0920e-01    2.8225e+05 ;    C18 - H8R   
 14730  14732   1    1.0920e-01    2.8225e+05 ;    C18 - H8S   
 14730  14733   1    1.5350e-01    2.5363e+05 ;    C18 - C17   
 14733  14734   1    1.0920e-01    2.8225e+05 ;    C17 - H7R   
 14733  14735   1    1.0920e-01    2.8225e+05 ;    C17 - H7S   
 14733  14736   1    1.5350e-01    2.5363e+05 ;    C17 - C16   
 14736  14737   1    1.0920e-01    2.8225e+05 ;    C16 - H6R   
 14736  14738   1    1.0920e-01    2.8225e+05 ;    C16 - H6S   
 14736  14739   1    1.5350e-01    2.5363e+05 ;    C16 - C15   
 14739  14740   1    1.0920e-01    2.8225e+05 ;    C15 - H5R   
 14739  14741   1    1.0920e-01    2.8225e+05 ;    C15 - H5S   
 14739  14742   1    1.5350e-01    2.5363e+05 ;    C15 - C14   
 14742  14743   1    1.0920e-01    2.8225e+05 ;    C14 - H4R   
 14742  14744   1    1.0920e-01    2.8225e+05 ;    C14 - H4S   
 14742  14745   1    1.5350e-01    2.5363e+05 ;    C14 - C13   
 14745  14746   1    1.0920e-01    2.8225e+05 ;    C13 - H3R   
 14745  14747   1    1.0920e-01    2.8225e+05 ;    C13 - H3S   
 14745  14748   1    1.5350e-01    2.5363e+05 ;    C13 - C12   
 14748  14749   1    1.0920e-01    2.8225e+05 ;    C12 - H2R   
 14748  14750   1    1.0920e-01    2.8225e+05 ;    C12 - H2S   
 14751  14752   1    1.0920e-01    2.8225e+05 ;   H14T - C114  
 14752  14753   1    1.0920e-01    2.8225e+05 ;   C114 - H14R  
 14752  14754   1    1.0920e-01    2.8225e+05 ;   C114 - H14S  
 14752  14755   1    1.5350e-01    2.5363e+05 ;   C114 - C113  
 14755  14756   1    1.0920e-01    2.8225e+05 ;   C113 - H13R  
 14755  14757   1    1.0920e-01    2.8225e+05 ;   C113 - H13S  
 14755  14758   1    1.5350e-01    2.5363e+05 ;   C113 - C112  
 14758  14759   1    1.0920e-01    2.8225e+05 ;   C112 - H12R  
 14758  14760   1    1.0920e-01    2.8225e+05 ;   C112 - H12S  
 14758  14761   1    1.5350e-01    2.5363e+05 ;   C112 - C111  
 14761  14762   1    1.0920e-01    2.8225e+05 ;   C111 - H11R  
 14761  14763   1    1.0920e-01    2.8225e+05 ;   C111 - H11S  
 14761  14764   1    1.5350e-01    2.5363e+05 ;   C111 - C110  
 14764  14765   1    1.0920e-01    2.8225e+05 ;   C110 - H10R  
 14764  14766   1    1.0920e-01    2.8225e+05 ;   C110 - H10S  
 14764  14767   1    1.5350e-01    2.5363e+05 ;   C110 - C19   
 14767  14768   1    1.0920e-01    2.8225e+05 ;    C19 - H9R   
 14767  14769   1    1.0920e-01    2.8225e+05 ;    C19 - H9S   
 14767  14770   1    1.5350e-01    2.5363e+05 ;    C19 - C18   
 14770  14771   1    1.0920e-01    2.8225e+05 ;    C18 - H8R   
 14770  14772   1    1.0920e-01    2.8225e+05 ;    C18 - H8S   
 14770  14773   1    1.5350e-01    2.5363e+05 ;    C18 - C17   
 14773  14774   1    1.0920e-01    2.8225e+05 ;    C17 - H7R   
 14773  14775   1    1.0920e-01    2.8225e+05 ;    C17 - H7S   
 14773  14776   1    1.5350e-01    2.5363e+05 ;    C17 - C16   
 14776  14777   1    1.0920e-01    2.8225e+05 ;    C16 - H6R   
 14776  14778   1    1.0920e-01    2.8225e+05 ;    C16 - H6S   
 14776  14779   1    1.5350e-01    2.5363e+05 ;    C16 - C15   
 14779  14780   1    1.0920e-01    2.8225e+05 ;    C15 - H5R   
 14779  14781   1    1.0920e-01    2.8225e+05 ;    C15 - H5S   
 14779  14782   1    1.5350e-01    2.5363e+05 ;    C15 - C14   
 14782  14783   1    1.0920e-01    2.8225e+05 ;    C14 - H4R   
 14782  14784   1    1.0920e-01    2.8225e+05 ;    C14 - H4S   
 14782  14785   1    1.5350e-01    2.5363e+05 ;    C14 - C13   
 14785  14786   1    1.0920e-01    2.8225e+05 ;    C13 - H3R   
 14785  14787   1    1.0920e-01    2.8225e+05 ;    C13 - H3S   
 14785  14788   1    1.5350e-01    2.5363e+05 ;    C13 - C12   
 14788  14789   1    1.0920e-01    2.8225e+05 ;    C12 - H2R   
 14788  14790   1    1.0920e-01    2.8225e+05 ;    C12 - H2S   
 14788  14791   1    1.5080e-01    2.7472e+05 ;    C12 - C11   
 14791  14792   1    1.2140e-01    5.4225e+05 ;    C11 - O12   
 14791  14793   1    1.3430e-01    3.4418e+05 ;    C11 - O11   
 14793  14794   1    1.4390e-01    2.5230e+05 ;    O11 - C1    
 14794  14795   1    1.0930e-01    2.8108e+05 ;     C1 - HR    
 14794  14796   1    1.0930e-01    2.8108e+05 ;     C1 - HS    
 14794  14797   1    1.5350e-01    2.5363e+05 ;     C1 - C2    
 14797  14798   1    1.0930e-01    2.8108e+05 ;     C2 - HX    
 14797  14799   1    1.5350e-01    2.5363e+05 ;     C2 - C3    
 14797  14826   1    1.4390e-01    2.5230e+05 ;     C2 - O21   
 14799  14800   1    1.0930e-01    2.8108e+05 ;     C3 - HA    
 14799  14801   1    1.0930e-01    2.8108e+05 ;     C3 - HB    
 14799  14802   1    1.4390e-01    2.5230e+05 ;     C3 - O31   
 14802  14803   1    1.6100e-01    1.9246e+05 ;    O31 - P31   
 14803  14804   1    1.6100e-01    1.9246e+05 ;    P31 - O32   
 14803  14824   1    1.4800e-01    4.3932e+05 ;    P31 - O33   
 14803  14825   1    1.4800e-01    4.3932e+05 ;    P31 - O34   
 14804  14805   1    1.4390e-01    2.5230e+05 ;    O32 - C31   
 14805  14806   1    1.0930e-01    2.8108e+05 ;    C31 - H1A   
 14805  14807   1    1.0930e-01    2.8108e+05 ;    C31 - H1B   
 14805  14808   1    1.5350e-01    2.5363e+05 ;    C31 - C32   
 14808  14809   1    1.0910e-01    2.8342e+05 ;    C32 - H2A   
 14808  14810   1    1.0910e-01    2.8342e+05 ;    C32 - H2B   
 14808  14811   1    1.4990e-01    2.4568e+05 ;    C32 - N31   
 14811  14812   1    1.4990e-01    2.4568e+05 ;    N31 - C33   
 14811  14816   1    1.4990e-01    2.4568e+05 ;    N31 - C34   
 14811  14820   1    1.4990e-01    2.4568e+05 ;    N31 - C35   
 14812  14813   1    1.0910e-01    2.8342e+05 ;    C33 - H3A   
 14812  14814   1    1.0910e-01    2.8342e+05 ;    C33 - H3B   
 14812  14815   1    1.0910e-01    2.8342e+05 ;    C33 - H3C   
 14816  14817   1    1.0910e-01    2.8342e+05 ;    C34 - H4A   
 14816  14818   1    1.0910e-01    2.8342e+05 ;    C34 - H4B   
 14816  14819   1    1.0910e-01    2.8342e+05 ;    C34 - H4C   
 14820  14821   1    1.0910e-01    2.8342e+05 ;    C35 - H5A   
 14820  14822   1    1.0910e-01    2.8342e+05 ;    C35 - H5B   
 14820  14823   1    1.0910e-01    2.8342e+05 ;    C35 - H5C   
 14826  14827   1    1.3430e-01    3.4418e+05 ;    O21 - C21   
 14827  14828   1    1.2140e-01    5.4225e+05 ;    C21 - O22   
 14827  14866   1    1.5080e-01    2.7472e+05 ;    C21 - C12   
 14829  14830   1    1.0920e-01    2.8225e+05 ;   H14T - C114  
 14830  14831   1    1.0920e-01    2.8225e+05 ;   C114 - H14R  
 14830  14832   1    1.0920e-01    2.8225e+05 ;   C114 - H14S  
 14830  14833   1    1.5350e-01    2.5363e+05 ;   C114 - C113  
 14833  14834   1    1.0920e-01    2.8225e+05 ;   C113 - H13R  
 14833  14835   1    1.0920e-01    2.8225e+05 ;   C113 - H13S  
 14833  14836   1    1.5350e-01    2.5363e+05 ;   C113 - C112  
 14836  14837   1    1.0920e-01    2.8225e+05 ;   C112 - H12R  
 14836  14838   1    1.0920e-01    2.8225e+05 ;   C112 - H12S  
 14836  14839   1    1.5350e-01    2.5363e+05 ;   C112 - C111  
 14839  14840   1    1.0920e-01    2.8225e+05 ;   C111 - H11R  
 14839  14841   1    1.0920e-01    2.8225e+05 ;   C111 - H11S  
 14839  14842   1    1.5350e-01    2.5363e+05 ;   C111 - C110  
 14842  14843   1    1.0920e-01    2.8225e+05 ;   C110 - H10R  
 14842  14844   1    1.0920e-01    2.8225e+05 ;   C110 - H10S  
 14842  14845   1    1.5350e-01    2.5363e+05 ;   C110 - C19   
 14845  14846   1    1.0920e-01    2.8225e+05 ;    C19 - H9R   
 14845  14847   1    1.0920e-01    2.8225e+05 ;    C19 - H9S   
 14845  14848   1    1.5350e-01    2.5363e+05 ;    C19 - C18   
 14848  14849   1    1.0920e-01    2.8225e+05 ;    C18 - H8R   
 14848  14850   1    1.0920e-01    2.8225e+05 ;    C18 - H8S   
 14848  14851   1    1.5350e-01    2.5363e+05 ;    C18 - C17   
 14851  14852   1    1.0920e-01    2.8225e+05 ;    C17 - H7R   
 14851  14853   1    1.0920e-01    2.8225e+05 ;    C17 - H7S   
 14851  14854   1    1.5350e-01    2.5363e+05 ;    C17 - C16   
 14854  14855   1    1.0920e-01    2.8225e+05 ;    C16 - H6R   
 14854  14856   1    1.0920e-01    2.8225e+05 ;    C16 - H6S   
 14854  14857   1    1.5350e-01    2.5363e+05 ;    C16 - C15   
 14857  14858   1    1.0920e-01    2.8225e+05 ;    C15 - H5R   
 14857  14859   1    1.0920e-01    2.8225e+05 ;    C15 - H5S   
 14857  14860   1    1.5350e-01    2.5363e+05 ;    C15 - C14   
 14860  14861   1    1.0920e-01    2.8225e+05 ;    C14 - H4R   
 14860  14862   1    1.0920e-01    2.8225e+05 ;    C14 - H4S   
 14860  14863   1    1.5350e-01    2.5363e+05 ;    C14 - C13   
 14863  14864   1    1.0920e-01    2.8225e+05 ;    C13 - H3R   
 14863  14865   1    1.0920e-01    2.8225e+05 ;    C13 - H3S   
 14863  14866   1    1.5350e-01    2.5363e+05 ;    C13 - C12   
 14866  14867   1    1.0920e-01    2.8225e+05 ;    C12 - H2R   
 14866  14868   1    1.0920e-01    2.8225e+05 ;    C12 - H2S   
 14869  14870   1    1.0920e-01    2.8225e+05 ;   H14T - C114  
 14870  14871   1    1.0920e-01    2.8225e+05 ;   C114 - H14R  
 14870  14872   1    1.0920e-01    2.8225e+05 ;   C114 - H14S  
 14870  14873   1    1.5350e-01    2.5363e+05 ;   C114 - C113  
 14873  14874   1    1.0920e-01    2.8225e+05 ;   C113 - H13R  
 14873  14875   1    1.0920e-01    2.8225e+05 ;   C113 - H13S  
 14873  14876   1    1.5350e-01    2.5363e+05 ;   C113 - C112  
 14876  14877   1    1.0920e-01    2.8225e+05 ;   C112 - H12R  
 14876  14878   1    1.0920e-01    2.8225e+05 ;   C112 - H12S  
 14876  14879   1    1.5350e-01    2.5363e+05 ;   C112 - C111  
 14879  14880   1    1.0920e-01    2.8225e+05 ;   C111 - H11R  
 14879  14881   1    1.0920e-01    2.8225e+05 ;   C111 - H11S  
 14879  14882   1    1.5350e-01    2.5363e+05 ;   C111 - C110  
 14882  14883   1    1.0920e-01    2.8225e+05 ;   C110 - H10R  
 14882  14884   1    1.0920e-01    2.8225e+05 ;   C110 - H10S  
 14882  14885   1    1.5350e-01    2.5363e+05 ;   C110 - C19   
 14885  14886   1    1.0920e-01    2.8225e+05 ;    C19 - H9R   
 14885  14887   1    1.0920e-01    2.8225e+05 ;    C19 - H9S   
 14885  14888   1    1.5350e-01    2.5363e+05 ;    C19 - C18   
 14888  14889   1    1.0920e-01    2.8225e+05 ;    C18 - H8R   
 14888  14890   1    1.0920e-01    2.8225e+05 ;    C18 - H8S   
 14888  14891   1    1.5350e-01    2.5363e+05 ;    C18 - C17   
 14891  14892   1    1.0920e-01    2.8225e+05 ;    C17 - H7R   
 14891  14893   1    1.0920e-01    2.8225e+05 ;    C17 - H7S   
 14891  14894   1    1.5350e-01    2.5363e+05 ;    C17 - C16   
 14894  14895   1    1.0920e-01    2.8225e+05 ;    C16 - H6R   
 14894  14896   1    1.0920e-01    2.8225e+05 ;    C16 - H6S   
 14894  14897   1    1.5350e-01    2.5363e+05 ;    C16 - C15   
 14897  14898   1    1.0920e-01    2.8225e+05 ;    C15 - H5R   
 14897  14899   1    1.0920e-01    2.8225e+05 ;    C15 - H5S   
 14897  14900   1    1.5350e-01    2.5363e+05 ;    C15 - C14   
 14900  14901   1    1.0920e-01    2.8225e+05 ;    C14 - H4R   
 14900  14902   1    1.0920e-01    2.8225e+05 ;    C14 - H4S   
 14900  14903   1    1.5350e-01    2.5363e+05 ;    C14 - C13   
 14903  14904   1    1.0920e-01    2.8225e+05 ;    C13 - H3R   
 14903  14905   1    1.0920e-01    2.8225e+05 ;    C13 - H3S   
 14903  14906   1    1.5350e-01    2.5363e+05 ;    C13 - C12   
 14906  14907   1    1.0920e-01    2.8225e+05 ;    C12 - H2R   
 14906  14908   1    1.0920e-01    2.8225e+05 ;    C12 - H2S   
 14906  14909   1    1.5080e-01    2.7472e+05 ;    C12 - C11   
 14909  14910   1    1.2140e-01    5.4225e+05 ;    C11 - O12   
 14909  14911   1    1.3430e-01    3.4418e+05 ;    C11 - O11   
 14911  14912   1    1.4390e-01    2.5230e+05 ;    O11 - C1    
 14912  14913   1    1.0930e-01    2.8108e+05 ;     C1 - HR    
 14912  14914   1    1.0930e-01    2.8108e+05 ;     C1 - HS    
 14912  14915   1    1.5350e-01    2.5363e+05 ;     C1 - C2    
 14915  14916   1    1.0930e-01    2.8108e+05 ;     C2 - HX    
 14915  14917   1    1.5350e-01    2.5363e+05 ;     C2 - C3    
 14915  14944   1    1.4390e-01    2.5230e+05 ;     C2 - O21   
 14917  14918   1    1.0930e-01    2.8108e+05 ;     C3 - HA    
 14917  14919   1    1.0930e-01    2.8108e+05 ;     C3 - HB    
 14917  14920   1    1.4390e-01    2.5230e+05 ;     C3 - O31   
 14920  14921   1    1.6100e-01    1.9246e+05 ;    O31 - P31   
 14921  14922   1    1.6100e-01    1.9246e+05 ;    P31 - O32   
 14921  14942   1    1.4800e-01    4.3932e+05 ;    P31 - O33   
 14921  14943   1    1.4800e-01    4.3932e+05 ;    P31 - O34   
 14922  14923   1    1.4390e-01    2.5230e+05 ;    O32 - C31   
 14923  14924   1    1.0930e-01    2.8108e+05 ;    C31 - H1A   
 14923  14925   1    1.0930e-01    2.8108e+05 ;    C31 - H1B   
 14923  14926   1    1.5350e-01    2.5363e+05 ;    C31 - C32   
 14926  14927   1    1.0910e-01    2.8342e+05 ;    C32 - H2A   
 14926  14928   1    1.0910e-01    2.8342e+05 ;    C32 - H2B   
 14926  14929   1    1.4990e-01    2.4568e+05 ;    C32 - N31   
 14929  14930   1    1.4990e-01    2.4568e+05 ;    N31 - C33   
 14929  14934   1    1.4990e-01    2.4568e+05 ;    N31 - C34   
 14929  14938   1    1.4990e-01    2.4568e+05 ;    N31 - C35   
 14930  14931   1    1.0910e-01    2.8342e+05 ;    C33 - H3A   
 14930  14932   1    1.0910e-01    2.8342e+05 ;    C33 - H3B   
 14930  14933   1    1.0910e-01    2.8342e+05 ;    C33 - H3C   
 14934  14935   1    1.0910e-01    2.8342e+05 ;    C34 - H4A   
 14934  14936   1    1.0910e-01    2.8342e+05 ;    C34 - H4B   
 14934  14937   1    1.0910e-01    2.8342e+05 ;    C34 - H4C   
 14938  14939   1    1.0910e-01    2.8342e+05 ;    C35 - H5A   
 14938  14940   1    1.0910e-01    2.8342e+05 ;    C35 - H5B   
 14938  14941   1    1.0910e-01    2.8342e+05 ;    C35 - H5C   
 14944  14945   1    1.3430e-01    3.4418e+05 ;    O21 - C21   
 14945  14946   1    1.2140e-01    5.4225e+05 ;    C21 - O22   
 14945  14984   1    1.5080e-01    2.7472e+05 ;    C21 - C12   
 14947  14948   1    1.0920e-01    2.8225e+05 ;   H14T - C114  
 14948  14949   1    1.0920e-01    2.8225e+05 ;   C114 - H14R  
 14948  14950   1    1.0920e-01    2.8225e+05 ;   C114 - H14S  
 14948  14951   1    1.5350e-01    2.5363e+05 ;   C114 - C113  
 14951  14952   1    1.0920e-01    2.8225e+05 ;   C113 - H13R  
 14951  14953   1    1.0920e-01    2.8225e+05 ;   C113 - H13S  
 14951  14954   1    1.5350e-01    2.5363e+05 ;   C113 - C112  
 14954  14955   1    1.0920e-01    2.8225e+05 ;   C112 - H12R  
 14954  14956   1    1.0920e-01    2.8225e+05 ;   C112 - H12S  
 14954  14957   1    1.5350e-01    2.5363e+05 ;   C112 - C111  
 14957  14958   1    1.0920e-01    2.8225e+05 ;   C111 - H11R  
 14957  14959   1    1.0920e-01    2.8225e+05 ;   C111 - H11S  
 14957  14960   1    1.5350e-01    2.5363e+05 ;   C111 - C110  
 14960  14961   1    1.0920e-01    2.8225e+05 ;   C110 - H10R  
 14960  14962   1    1.0920e-01    2.8225e+05 ;   C110 - H10S  
 14960  14963   1    1.5350e-01    2.5363e+05 ;   C110 - C19   
 14963  14964   1    1.0920e-01    2.8225e+05 ;    C19 - H9R   
 14963  14965   1    1.0920e-01    2.8225e+05 ;    C19 - H9S   
 14963  14966   1    1.5350e-01    2.5363e+05 ;    C19 - C18   
 14966  14967   1    1.0920e-01    2.8225e+05 ;    C18 - H8R   
 14966  14968   1    1.0920e-01    2.8225e+05 ;    C18 - H8S   
 14966  14969   1    1.5350e-01    2.5363e+05 ;    C18 - C17   
 14969  14970   1    1.0920e-01    2.8225e+05 ;    C17 - H7R   
 14969  14971   1    1.0920e-01    2.8225e+05 ;    C17 - H7S   
 14969  14972   1    1.5350e-01    2.5363e+05 ;    C17 - C16   
 14972  14973   1    1.0920e-01    2.8225e+05 ;    C16 - H6R   
 14972  14974   1    1.0920e-01    2.8225e+05 ;    C16 - H6S   
 14972  14975   1    1.5350e-01    2.5363e+05 ;    C16 - C15   
 14975  14976   1    1.0920e-01    2.8225e+05 ;    C15 - H5R   
 14975  14977   1    1.0920e-01    2.8225e+05 ;    C15 - H5S   
 14975  14978   1    1.5350e-01    2.5363e+05 ;    C15 - C14   
 14978  14979   1    1.0920e-01    2.8225e+05 ;    C14 - H4R   
 14978  14980   1    1.0920e-01    2.8225e+05 ;    C14 - H4S   
 14978  14981   1    1.5350e-01    2.5363e+05 ;    C14 - C13   
 14981  14982   1    1.0920e-01    2.8225e+05 ;    C13 - H3R   
 14981  14983   1    1.0920e-01    2.8225e+05 ;    C13 - H3S   
 14981  14984   1    1.5350e-01    2.5363e+05 ;    C13 - C12   
 14984  14985   1    1.0920e-01    2.8225e+05 ;    C12 - H2R   
 14984  14986   1    1.0920e-01    2.8225e+05 ;    C12 - H2S   
 14987  14988   1    1.0920e-01    2.8225e+05 ;   H14T - C114  
 14988  14989   1    1.0920e-01    2.8225e+05 ;   C114 - H14R  
 14988  14990   1    1.0920e-01    2.8225e+05 ;   C114 - H14S  
 14988  14991   1    1.5350e-01    2.5363e+05 ;   C114 - C113  
 14991  14992   1    1.0920e-01    2.8225e+05 ;   C113 - H13R  
 14991  14993   1    1.0920e-01    2.8225e+05 ;   C113 - H13S  
 14991  14994   1    1.5350e-01    2.5363e+05 ;   C113 - C112  
 14994  14995   1    1.0920e-01    2.8225e+05 ;   C112 - H12R  
 14994  14996   1    1.0920e-01    2.8225e+05 ;   C112 - H12S  
 14994  14997   1    1.5350e-01    2.5363e+05 ;   C112 - C111  
 14997  14998   1    1.0920e-01    2.8225e+05 ;   C111 - H11R  
 14997  14999   1    1.0920e-01    2.8225e+05 ;   C111 - H11S  
 14997  15000   1    1.5350e-01    2.5363e+05 ;   C111 - C110  
 15000  15001   1    1.0920e-01    2.8225e+05 ;   C110 - H10R  
 15000  15002   1    1.0920e-01    2.8225e+05 ;   C110 - H10S  
 15000  15003   1    1.5350e-01    2.5363e+05 ;   C110 - C19   
 15003  15004   1    1.0920e-01    2.8225e+05 ;    C19 - H9R   
 15003  15005   1    1.0920e-01    2.8225e+05 ;    C19 - H9S   
 15003  15006   1    1.5350e-01    2.5363e+05 ;    C19 - C18   
 15006  15007   1    1.0920e-01    2.8225e+05 ;    C18 - H8R   
 15006  15008   1    1.0920e-01    2.8225e+05 ;    C18 - H8S   
 15006  15009   1    1.5350e-01    2.5363e+05 ;    C18 - C17   
 15009  15010   1    1.0920e-01    2.8225e+05 ;    C17 - H7R   
 15009  15011   1    1.0920e-01    2.8225e+05 ;    C17 - H7S   
 15009  15012   1    1.5350e-01    2.5363e+05 ;    C17 - C16   
 15012  15013   1    1.0920e-01    2.8225e+05 ;    C16 - H6R   
 15012  15014   1    1.0920e-01    2.8225e+05 ;    C16 - H6S   
 15012  15015   1    1.5350e-01    2.5363e+05 ;    C16 - C15   
 15015  15016   1    1.0920e-01    2.8225e+05 ;    C15 - H5R   
 15015  15017   1    1.0920e-01    2.8225e+05 ;    C15 - H5S   
 15015  15018   1    1.5350e-01    2.5363e+05 ;    C15 - C14   
 15018  15019   1    1.0920e-01    2.8225e+05 ;    C14 - H4R   
 15018  15020   1    1.0920e-01    2.8225e+05 ;    C14 - H4S   
 15018  15021   1    1.5350e-01    2.5363e+05 ;    C14 - C13   
 15021  15022   1    1.0920e-01    2.8225e+05 ;    C13 - H3R   
 15021  15023   1    1.0920e-01    2.8225e+05 ;    C13 - H3S   
 15021  15024   1    1.5350e-01    2.5363e+05 ;    C13 - C12   
 15024  15025   1    1.0920e-01    2.8225e+05 ;    C12 - H2R   
 15024  15026   1    1.0920e-01    2.8225e+05 ;    C12 - H2S   
 15024  15027   1    1.5080e-01    2.7472e+05 ;    C12 - C11   
 15027  15028   1    1.2140e-01    5.4225e+05 ;    C11 - O12   
 15027  15029   1    1.3430e-01    3.4418e+05 ;    C11 - O11   
 15029  15030   1    1.4390e-01    2.5230e+05 ;    O11 - C1    
 15030  15031   1    1.0930e-01    2.8108e+05 ;     C1 - HR    
 15030  15032   1    1.0930e-01    2.8108e+05 ;     C1 - HS    
 15030  15033   1    1.5350e-01    2.5363e+05 ;     C1 - C2    
 15033  15034   1    1.0930e-01    2.8108e+05 ;     C2 - HX    
 15033  15035   1    1.5350e-01    2.5363e+05 ;     C2 - C3    
 15033  15062   1    1.4390e-01    2.5230e+05 ;     C2 - O21   
 15035  15036   1    1.0930e-01    2.8108e+05 ;     C3 - HA    
 15035  15037   1    1.0930e-01    2.8108e+05 ;     C3 - HB    
 15035  15038   1    1.4390e-01    2.5230e+05 ;     C3 - O31   
 15038  15039   1    1.6100e-01    1.9246e+05 ;    O31 - P31   
 15039  15040   1    1.6100e-01    1.9246e+05 ;    P31 - O32   
 15039  15060   1    1.4800e-01    4.3932e+05 ;    P31 - O33   
 15039  15061   1    1.4800e-01    4.3932e+05 ;    P31 - O34   
 15040  15041   1    1.4390e-01    2.5230e+05 ;    O32 - C31   
 15041  15042   1    1.0930e-01    2.8108e+05 ;    C31 - H1A   
 15041  15043   1    1.0930e-01    2.8108e+05 ;    C31 - H1B   
 15041  15044   1    1.5350e-01    2.5363e+05 ;    C31 - C32   
 15044  15045   1    1.0910e-01    2.8342e+05 ;    C32 - H2A   
 15044  15046   1    1.0910e-01    2.8342e+05 ;    C32 - H2B   
 15044  15047   1    1.4990e-01    2.4568e+05 ;    C32 - N31   
 15047  15048   1    1.4990e-01    2.4568e+05 ;    N31 - C33   
 15047  15052   1    1.4990e-01    2.4568e+05 ;    N31 - C34   
 15047  15056   1    1.4990e-01    2.4568e+05 ;    N31 - C35   
 15048  15049   1    1.0910e-01    2.8342e+05 ;    C33 - H3A   
 15048  15050   1    1.0910e-01    2.8342e+05 ;    C33 - H3B   
 15048  15051   1    1.0910e-01    2.8342e+05 ;    C33 - H3C   
 15052  15053   1    1.0910e-01    2.8342e+05 ;    C34 - H4A   
 15052  15054   1    1.0910e-01    2.8342e+05 ;    C34 - H4B   
 15052  15055   1    1.0910e-01    2.8342e+05 ;    C34 - H4C   
 15056  15057   1    1.0910e-01    2.8342e+05 ;    C35 - H5A   
 15056  15058   1    1.0910e-01    2.8342e+05 ;    C35 - H5B   
 15056  15059   1    1.0910e-01    2.8342e+05 ;    C35 - H5C   
 15062  15063   1    1.3430e-01    3.4418e+05 ;    O21 - C21   
 15063  15064   1    1.2140e-01    5.4225e+05 ;    C21 - O22   
 15063  15102   1    1.5080e-01    2.7472e+05 ;    C21 - C12   
 15065  15066   1    1.0920e-01    2.8225e+05 ;   H14T - C114  
 15066  15067   1    1.0920e-01    2.8225e+05 ;   C114 - H14R  
 15066  15068   1    1.0920e-01    2.8225e+05 ;   C114 - H14S  
 15066  15069   1    1.5350e-01    2.5363e+05 ;   C114 - C113  
 15069  15070   1    1.0920e-01    2.8225e+05 ;   C113 - H13R  
 15069  15071   1    1.0920e-01    2.8225e+05 ;   C113 - H13S  
 15069  15072   1    1.5350e-01    2.5363e+05 ;   C113 - C112  
 15072  15073   1    1.0920e-01    2.8225e+05 ;   C112 - H12R  
 15072  15074   1    1.0920e-01    2.8225e+05 ;   C112 - H12S  
 15072  15075   1    1.5350e-01    2.5363e+05 ;   C112 - C111  
 15075  15076   1    1.0920e-01    2.8225e+05 ;   C111 - H11R  
 15075  15077   1    1.0920e-01    2.8225e+05 ;   C111 - H11S  
 15075  15078   1    1.5350e-01    2.5363e+05 ;   C111 - C110  
 15078  15079   1    1.0920e-01    2.8225e+05 ;   C110 - H10R  
 15078  15080   1    1.0920e-01    2.8225e+05 ;   C110 - H10S  
 15078  15081   1    1.5350e-01    2.5363e+05 ;   C110 - C19   
 15081  15082   1    1.0920e-01    2.8225e+05 ;    C19 - H9R   
 15081  15083   1    1.0920e-01    2.8225e+05 ;    C19 - H9S   
 15081  15084   1    1.5350e-01    2.5363e+05 ;    C19 - C18   
 15084  15085   1    1.0920e-01    2.8225e+05 ;    C18 - H8R   
 15084  15086   1    1.0920e-01    2.8225e+05 ;    C18 - H8S   
 15084  15087   1    1.5350e-01    2.5363e+05 ;    C18 - C17   
 15087  15088   1    1.0920e-01    2.8225e+05 ;    C17 - H7R   
 15087  15089   1    1.0920e-01    2.8225e+05 ;    C17 - H7S   
 15087  15090   1    1.5350e-01    2.5363e+05 ;    C17 - C16   
 15090  15091   1    1.0920e-01    2.8225e+05 ;    C16 - H6R   
 15090  15092   1    1.0920e-01    2.8225e+05 ;    C16 - H6S   
 15090  15093   1    1.5350e-01    2.5363e+05 ;    C16 - C15   
 15093  15094   1    1.0920e-01    2.8225e+05 ;    C15 - H5R   
 15093  15095   1    1.0920e-01    2.8225e+05 ;    C15 - H5S   
 15093  15096   1    1.5350e-01    2.5363e+05 ;    C15 - C14   
 15096  15097   1    1.0920e-01    2.8225e+05 ;    C14 - H4R   
 15096  15098   1    1.0920e-01    2.8225e+05 ;    C14 - H4S   
 15096  15099   1    1.5350e-01    2.5363e+05 ;    C14 - C13   
 15099  15100   1    1.0920e-01    2.8225e+05 ;    C13 - H3R   
 15099  15101   1    1.0920e-01    2.8225e+05 ;    C13 - H3S   
 15099  15102   1    1.5350e-01    2.5363e+05 ;    C13 - C12   
 15102  15103   1    1.0920e-01    2.8225e+05 ;    C12 - H2R   
 15102  15104   1    1.0920e-01    2.8225e+05 ;    C12 - H2S   

[ pairs_nb ]
;       ai         aj  funct         qi         qj           sigma         epsilon
        40         42      1   0.053944  -0.559638     2.78067e-01     9.58675e-02
        40         43      1   0.053944  -0.479574     2.80072e-01     8.62554e-02
        39         42      1   0.053944  -0.559638     2.78067e-01     9.58675e-02
        39         43      1   0.053944  -0.479574     2.80072e-01     8.62554e-02
        37         40      1   0.018859   0.044953     2.60142e-01     2.09200e-02
        37         39      1   0.018859   0.044953     2.60142e-01     2.09200e-02
        37         41      1   0.018859   0.758669     3.00055e-01     6.13495e-02
        36         40      1   0.018859   0.044953     2.60142e-01     2.09200e-02
        36         39      1   0.018859   0.044953     2.60142e-01     2.09200e-02
        36         41      1   0.018859   0.758669     3.00055e-01     6.13495e-02
        34         38      1   0.020431  -0.136833     3.00055e-01     6.91943e-02
        34         37      1   0.020431   0.015716     2.60142e-01     2.09200e-02
        34         36      1   0.020431   0.015716     2.60142e-01     2.09200e-02
        33         38      1   0.020431  -0.136833     3.00055e-01     6.91943e-02
        33         37      1   0.020431   0.015716     2.60142e-01     2.09200e-02
        33         36      1   0.020431   0.015716     2.60142e-01     2.09200e-02
        32         40      1  -0.026954   0.044953     3.00055e-01     6.91943e-02
        32         39      1  -0.026954   0.044953     3.00055e-01     6.91943e-02
        31         35      1   0.010573  -0.002029     3.00055e-01     6.91943e-02
        31         34      1   0.010573   0.017026     2.60142e-01     2.09200e-02
        31         33      1   0.010573   0.017026     2.60142e-01     2.09200e-02
        30         35      1   0.010573  -0.002029     3.00055e-01     6.91943e-02
        30         34      1   0.010573   0.017026     2.60142e-01     2.09200e-02
        30         33      1   0.010573   0.017026     2.60142e-01     2.09200e-02
        29         37      1  -0.016521   0.015716     3.00055e-01     6.91943e-02
        29         36      1  -0.016521   0.015716     3.00055e-01     6.91943e-02
        28         32      1   0.011511  -0.022462     3.00055e-01     6.91943e-02
        28         30      1   0.011511   0.008811     2.60142e-01     2.09200e-02
        28         31      1   0.011511   0.008811     2.60142e-01     2.09200e-02
        27         32      1   0.011511  -0.022462     3.00055e-01     6.91943e-02
        27         30      1   0.011511   0.008811     2.60142e-01     2.09200e-02
        27         31      1   0.011511   0.008811     2.60142e-01     2.09200e-02
        26         34      1  -0.027812   0.017026     3.00055e-01     6.91943e-02
        26         33      1  -0.027812   0.017026     3.00055e-01     6.91943e-02
        25         29      1   0.006833  -0.013767     3.00055e-01     6.91943e-02
        25         27      1   0.006833   0.009592     2.60142e-01     2.09200e-02
        25         28      1   0.006833   0.009592     2.60142e-01     2.09200e-02
        24         29      1   0.006833  -0.013767     3.00055e-01     6.91943e-02
        24         27      1   0.006833   0.009592     2.60142e-01     2.09200e-02
        24         28      1   0.006833   0.009592     2.60142e-01     2.09200e-02
        23         30      1  -0.004386   0.008811     3.00055e-01     6.91943e-02
        23         31      1  -0.004386   0.008811     3.00055e-01     6.91943e-02
        22         26      1   0.011241  -0.023177     3.00055e-01     6.91943e-02
        22         24      1   0.011241   0.005694     2.60142e-01     2.09200e-02
        22         25      1   0.011241   0.005694     2.60142e-01     2.09200e-02
        21         26      1   0.011241  -0.023177     3.00055e-01     6.91943e-02
        21         24      1   0.011241   0.005694     2.60142e-01     2.09200e-02
        21         25      1   0.011241   0.005694     2.60142e-01     2.09200e-02
        20         27      1  -0.026451   0.009592     3.00055e-01     6.91943e-02
        20         28      1  -0.026451   0.009592     3.00055e-01     6.91943e-02
        19         23      1   0.010172  -0.003655     3.00055e-01     6.91943e-02
        19         22      1   0.010172   0.009367     2.60142e-01     2.09200e-02
        19         21      1   0.010172   0.009367     2.60142e-01     2.09200e-02
        18         23      1   0.010172  -0.003655     3.00055e-01     6.91943e-02
        18         22      1   0.010172   0.009367     2.60142e-01     2.09200e-02
        18         21      1   0.010172   0.009367     2.60142e-01     2.09200e-02
        17         24      1  -0.014653   0.005694     3.00055e-01     6.91943e-02
        17         25      1  -0.014653   0.005694     3.00055e-01     6.91943e-02
        16         20      1   0.010037  -0.022042     3.00055e-01     6.91943e-02
        16         18      1   0.010037   0.008477     2.60142e-01     2.09200e-02
        16         19      1   0.010037   0.008477     2.60142e-01     2.09200e-02
        15         20      1   0.010037  -0.022042     3.00055e-01     6.91943e-02
        15         18      1   0.010037   0.008477     2.60142e-01     2.09200e-02
        15         19      1   0.010037   0.008477     2.60142e-01     2.09200e-02
        14         22      1  -0.021025   0.009367     3.00055e-01     6.91943e-02
        14         21      1  -0.021025   0.009367     3.00055e-01     6.91943e-02
        13         17      1   0.012677  -0.012211     3.00055e-01     6.91943e-02
        13         16      1   0.012677   0.008364     2.60142e-01     2.09200e-02
        13         15      1   0.012677   0.008364     2.60142e-01     2.09200e-02
        12         17      1   0.012677  -0.012211     3.00055e-01     6.91943e-02
        12         16      1   0.012677   0.008364     2.60142e-01     2.09200e-02
        12         15      1   0.012677   0.008364     2.60142e-01     2.09200e-02
        11         18      1  -0.031787   0.008477     3.00055e-01     6.91943e-02
        11         19      1  -0.031787   0.008477     3.00055e-01     6.91943e-02
        10         14      1   0.017208  -0.017521     3.00055e-01     6.91943e-02
        10         12      1   0.017208   0.010564     2.60142e-01     2.09200e-02
        10         13      1   0.017208   0.010564     2.60142e-01     2.09200e-02
         9         14      1   0.017208  -0.017521     3.00055e-01     6.91943e-02
         9         12      1   0.017208   0.010564     2.60142e-01     2.09200e-02
         9         13      1   0.017208   0.010564     2.60142e-01     2.09200e-02
         8         16      1  -0.028094   0.008364     3.00055e-01     6.91943e-02
         8         15      1  -0.028094   0.008364     3.00055e-01     6.91943e-02
         7         11      1   0.007531  -0.026489     3.00055e-01     6.91943e-02
         7         10      1   0.007531   0.014340     2.60142e-01     2.09200e-02
         7          9      1   0.007531   0.014340     2.60142e-01     2.09200e-02
         6         11      1   0.007531  -0.026489     3.00055e-01     6.91943e-02
         6         10      1   0.007531   0.014340     2.60142e-01     2.09200e-02
         6          9      1   0.007531   0.014340     2.60142e-01     2.09200e-02
         5         12      1   0.017463   0.010564     3.00055e-01     6.91943e-02
         5         13      1   0.017463   0.010564     3.00055e-01     6.91943e-02
         4          8      1   0.025511  -0.023412     3.00055e-01     6.91943e-02
         4          6      1   0.025511   0.006276     2.60142e-01     2.09200e-02
         4          7      1   0.025511   0.006276     2.60142e-01     2.09200e-02
         3          8      1   0.025511  -0.023412     3.00055e-01     6.91943e-02
         3          6      1   0.025511   0.006276     2.60142e-01     2.09200e-02
         3          7      1   0.025511   0.006276     2.60142e-01     2.09200e-02
         2         10      1  -0.111712   0.014340     3.00055e-01     6.91943e-02
         2          9      1  -0.111712   0.014340     3.00055e-01     6.91943e-02
         1          8      1   0.025511  -0.023412     3.00055e-01     6.91943e-02
         1          6      1   0.025511   0.006276     2.60142e-01     2.09200e-02
         1          7      1   0.025511   0.006276     2.60142e-01     2.09200e-02
        78        118      1  -0.673755   0.044953     2.78067e-01     9.58675e-02
        78        117      1  -0.673755   0.044953     2.78067e-01     9.58675e-02
        77        115      1   0.897613   0.015716     3.00055e-01     6.13495e-02
        77        114      1   0.897613   0.015716     3.00055e-01     6.13495e-02
        76        118      1  -0.552948   0.044953     2.80072e-01     8.62554e-02
        76        117      1  -0.552948   0.044953     2.80072e-01     8.62554e-02
        69         70      1   0.172230  -0.282478     2.67982e-01     8.67002e-02
        68         70      1   0.172230  -0.282478     2.67982e-01     8.67002e-02
        67         70      1   0.172230  -0.282478     2.67982e-01     8.67002e-02
        66         71      1  -0.338973   0.143525     2.67982e-01     8.67002e-02
        66         72      1  -0.338973   0.143525     2.67982e-01     8.67002e-02
        66         73      1  -0.338973   0.143525     2.67982e-01     8.67002e-02
        65         66      1   0.172230  -0.282478     2.67982e-01     8.67002e-02
        65         70      1   0.172230  -0.282478     2.67982e-01     8.67002e-02
        64         66      1   0.172230  -0.282478     2.67982e-01     8.67002e-02
        64         70      1   0.172230  -0.282478     2.67982e-01     8.67002e-02
        63         66      1   0.172230  -0.282478     2.67982e-01     8.67002e-02
        63         70      1   0.172230  -0.282478     2.67982e-01     8.67002e-02
        62         67      1  -0.338973   0.143525     2.67982e-01     8.67002e-02
        62         68      1  -0.338973   0.143525     2.67982e-01     8.67002e-02
        62         69      1  -0.338973   0.143525     2.67982e-01     8.67002e-02
        62         71      1  -0.338973   0.143525     2.67982e-01     8.67002e-02
        62         72      1  -0.338973   0.143525     2.67982e-01     8.67002e-02
        62         73      1  -0.338973   0.143525     2.67982e-01     8.67002e-02
        60         62      1   0.136415  -0.282478     2.67982e-01     8.67002e-02
        60         66      1   0.136415  -0.282478     2.67982e-01     8.67002e-02
        60         70      1   0.136415  -0.282478     2.67982e-01     8.67002e-02
        59         62      1   0.136415  -0.282478     2.67982e-01     8.67002e-02
        59         66      1   0.136415  -0.282478     2.67982e-01     8.67002e-02
        59         70      1   0.136415  -0.282478     2.67982e-01     8.67002e-02
        58         63      1  -0.170824   0.143525     2.67982e-01     8.67002e-02
        58         64      1  -0.170824   0.143525     2.67982e-01     8.67002e-02
        58         65      1  -0.170824   0.143525     2.67982e-01     8.67002e-02
        58         67      1  -0.170824   0.143525     2.67982e-01     8.67002e-02
        58         68      1  -0.170824   0.143525     2.67982e-01     8.67002e-02
        58         69      1  -0.170824   0.143525     2.67982e-01     8.67002e-02
        58         71      1  -0.170824   0.143525     2.67982e-01     8.67002e-02
        58         72      1  -0.170824   0.143525     2.67982e-01     8.67002e-02
        58         73      1  -0.170824   0.143525     2.67982e-01     8.67002e-02
        57         59      1   0.078534   0.113679     2.21567e-01     3.28444e-02
        57         60      1   0.078534   0.113679     2.21567e-01     3.28444e-02
        57         61      1   0.078534   0.204385     2.86068e-01     1.08078e-01
        56         59      1   0.078534   0.113679     2.21567e-01     3.28444e-02
        56         60      1   0.078534   0.113679     2.21567e-01     3.28444e-02
        56         61      1   0.078534   0.204385     2.86068e-01     1.08078e-01
        54         59      1  -0.508176   0.113679     2.47999e-01     1.08078e-01
        54         60      1  -0.508176   0.113679     2.47999e-01     1.08078e-01
        53         56      1   1.339721   0.065445     3.10656e-01     1.17227e-01
        53         57      1   1.339721   0.065445     3.10656e-01     1.17227e-01
        51         76      1   0.095591  -0.460790     2.73568e-01     1.08078e-01
        51         53      1   0.095591   1.116434     3.10656e-01     1.17227e-01
        50         76      1   0.095591  -0.460790     2.73568e-01     1.08078e-01
        50         53      1   0.095591   1.116434     3.10656e-01     1.17227e-01
        48         50      1   0.063253   0.079659     2.47135e-01     3.28444e-02
        48         51      1   0.063253   0.079659     2.47135e-01     3.28444e-02
        48         52      1   0.063253  -0.424567     2.73568e-01     1.08078e-01
        48         77      1   0.063253   0.748011     2.93551e-01     7.68707e-02
        46         48      1   0.070469   0.052711     2.47135e-01     3.28444e-02
        46         49      1   0.070469   0.014549     2.93551e-01     8.67002e-02
        46         76      1   0.070469  -0.460790     2.73568e-01     1.08078e-01
        45         48      1   0.070469   0.052711     2.47135e-01     3.28444e-02
        45         49      1   0.070469   0.014549     2.93551e-01     8.67002e-02
        45         76      1   0.070469  -0.460790     2.73568e-01     1.08078e-01
        44         50      1   0.196939   0.079659     2.93551e-01     8.67002e-02
        44         51      1   0.196939   0.079659     2.93551e-01     8.67002e-02
        43         48      1  -0.575489   0.052711     2.73568e-01     1.08078e-01
        41         45      1   0.910403   0.058724     2.93551e-01     7.68707e-02
        41         46      1   0.910403   0.058724     2.93551e-01     7.68707e-02
       115        118      1   0.018859   0.044953     2.60142e-01     2.09200e-02
       115        117      1   0.018859   0.044953     2.60142e-01     2.09200e-02
       114        118      1   0.018859   0.044953     2.60142e-01     2.09200e-02
       114        117      1   0.018859   0.044953     2.60142e-01     2.09200e-02
       112        116      1   0.020431  -0.136833     3.00055e-01     6.91943e-02
       112        115      1   0.020431   0.015716     2.60142e-01     2.09200e-02
       112        114      1   0.020431   0.015716     2.60142e-01     2.09200e-02
       111        116      1   0.020431  -0.136833     3.00055e-01     6.91943e-02
       111        115      1   0.020431   0.015716     2.60142e-01     2.09200e-02
       111        114      1   0.020431   0.015716     2.60142e-01     2.09200e-02
       110        118      1  -0.026954   0.044953     3.00055e-01     6.91943e-02
       110        117      1  -0.026954   0.044953     3.00055e-01     6.91943e-02
       109        113      1   0.010573  -0.002029     3.00055e-01     6.91943e-02
       109        112      1   0.010573   0.017026     2.60142e-01     2.09200e-02
       109        111      1   0.010573   0.017026     2.60142e-01     2.09200e-02
       108        113      1   0.010573  -0.002029     3.00055e-01     6.91943e-02
       108        112      1   0.010573   0.017026     2.60142e-01     2.09200e-02
       108        111      1   0.010573   0.017026     2.60142e-01     2.09200e-02
       107        115      1  -0.016521   0.015716     3.00055e-01     6.91943e-02
       107        114      1  -0.016521   0.015716     3.00055e-01     6.91943e-02
       106        110      1   0.011511  -0.022462     3.00055e-01     6.91943e-02
       106        108      1   0.011511   0.008811     2.60142e-01     2.09200e-02
       106        109      1   0.011511   0.008811     2.60142e-01     2.09200e-02
       105        110      1   0.011511  -0.022462     3.00055e-01     6.91943e-02
       105        108      1   0.011511   0.008811     2.60142e-01     2.09200e-02
       105        109      1   0.011511   0.008811     2.60142e-01     2.09200e-02
       104        112      1  -0.027812   0.017026     3.00055e-01     6.91943e-02
       104        111      1  -0.027812   0.017026     3.00055e-01     6.91943e-02
       103        107      1   0.006833  -0.013767     3.00055e-01     6.91943e-02
       103        105      1   0.006833   0.009592     2.60142e-01     2.09200e-02
       103        106      1   0.006833   0.009592     2.60142e-01     2.09200e-02
       102        107      1   0.006833  -0.013767     3.00055e-01     6.91943e-02
       102        105      1   0.006833   0.009592     2.60142e-01     2.09200e-02
       102        106      1   0.006833   0.009592     2.60142e-01     2.09200e-02
       101        108      1  -0.004386   0.008811     3.00055e-01     6.91943e-02
       101        109      1  -0.004386   0.008811     3.00055e-01     6.91943e-02
       100        104      1   0.011241  -0.023177     3.00055e-01     6.91943e-02
       100        102      1   0.011241   0.005694     2.60142e-01     2.09200e-02
       100        103      1   0.011241   0.005694     2.60142e-01     2.09200e-02
        99        104      1   0.011241  -0.023177     3.00055e-01     6.91943e-02
        99        102      1   0.011241   0.005694     2.60142e-01     2.09200e-02
        99        103      1   0.011241   0.005694     2.60142e-01     2.09200e-02
        98        105      1  -0.026451   0.009592     3.00055e-01     6.91943e-02
        98        106      1  -0.026451   0.009592     3.00055e-01     6.91943e-02
        97        101      1   0.010172  -0.003655     3.00055e-01     6.91943e-02
        97        100      1   0.010172   0.009367     2.60142e-01     2.09200e-02
        97         99      1   0.010172   0.009367     2.60142e-01     2.09200e-02
        96        101      1   0.010172  -0.003655     3.00055e-01     6.91943e-02
        96        100      1   0.010172   0.009367     2.60142e-01     2.09200e-02
        96         99      1   0.010172   0.009367     2.60142e-01     2.09200e-02
        95        102      1  -0.014653   0.005694     3.00055e-01     6.91943e-02
        95        103      1  -0.014653   0.005694     3.00055e-01     6.91943e-02
        94         98      1   0.010037  -0.022042     3.00055e-01     6.91943e-02
        94         96      1   0.010037   0.008477     2.60142e-01     2.09200e-02
        94         97      1   0.010037   0.008477     2.60142e-01     2.09200e-02
        93         98      1   0.010037  -0.022042     3.00055e-01     6.91943e-02
        93         96      1   0.010037   0.008477     2.60142e-01     2.09200e-02
        93         97      1   0.010037   0.008477     2.60142e-01     2.09200e-02
        92        100      1  -0.021025   0.009367     3.00055e-01     6.91943e-02
        92         99      1  -0.021025   0.009367     3.00055e-01     6.91943e-02
        91         95      1   0.012677  -0.012211     3.00055e-01     6.91943e-02
        91         94      1   0.012677   0.008364     2.60142e-01     2.09200e-02
        91         93      1   0.012677   0.008364     2.60142e-01     2.09200e-02
        90         95      1   0.012677  -0.012211     3.00055e-01     6.91943e-02
        90         94      1   0.012677   0.008364     2.60142e-01     2.09200e-02
        90         93      1   0.012677   0.008364     2.60142e-01     2.09200e-02
        89         96      1  -0.031787   0.008477     3.00055e-01     6.91943e-02
        89         97      1  -0.031787   0.008477     3.00055e-01     6.91943e-02
        88         92      1   0.017208  -0.017521     3.00055e-01     6.91943e-02
        88         90      1   0.017208   0.010564     2.60142e-01     2.09200e-02
        88         91      1   0.017208   0.010564     2.60142e-01     2.09200e-02
        87         92      1   0.017208  -0.017521     3.00055e-01     6.91943e-02
        87         90      1   0.017208   0.010564     2.60142e-01     2.09200e-02
        87         91      1   0.017208   0.010564     2.60142e-01     2.09200e-02
        86         94      1  -0.028094   0.008364     3.00055e-01     6.91943e-02
        86         93      1  -0.028094   0.008364     3.00055e-01     6.91943e-02
        85         89      1   0.007531  -0.026489     3.00055e-01     6.91943e-02
        85         88      1   0.007531   0.014340     2.60142e-01     2.09200e-02
        85         87      1   0.007531   0.014340     2.60142e-01     2.09200e-02
        84         89      1   0.007531  -0.026489     3.00055e-01     6.91943e-02
        84         88      1   0.007531   0.014340     2.60142e-01     2.09200e-02
        84         87      1   0.007531   0.014340     2.60142e-01     2.09200e-02
        83         90      1   0.017463   0.010564     3.00055e-01     6.91943e-02
        83         91      1   0.017463   0.010564     3.00055e-01     6.91943e-02
        82         86      1   0.025511  -0.023412     3.00055e-01     6.91943e-02
        82         84      1   0.025511   0.006276     2.60142e-01     2.09200e-02
        82         85      1   0.025511   0.006276     2.60142e-01     2.09200e-02
        81         86      1   0.025511  -0.023412     3.00055e-01     6.91943e-02
        81         84      1   0.025511   0.006276     2.60142e-01     2.09200e-02
        81         85      1   0.025511   0.006276     2.60142e-01     2.09200e-02
        80         88      1  -0.111712   0.014340     3.00055e-01     6.91943e-02
        80         87      1  -0.111712   0.014340     3.00055e-01     6.91943e-02
        79         86      1   0.025511  -0.023412     3.00055e-01     6.91943e-02
        79         84      1   0.025511   0.006276     2.60142e-01     2.09200e-02
        79         85      1   0.025511   0.006276     2.60142e-01     2.09200e-02
       158        160      1   0.053944  -0.559638     2.78067e-01     9.58675e-02
       158        161      1   0.053944  -0.479574     2.80072e-01     8.62554e-02
       157        160      1   0.053944  -0.559638     2.78067e-01     9.58675e-02
       157        161      1   0.053944  -0.479574     2.80072e-01     8.62554e-02
       155        158      1   0.018859   0.044953     2.60142e-01     2.09200e-02
       155        157      1   0.018859   0.044953     2.60142e-01     2.09200e-02
       155        159      1   0.018859   0.758669     3.00055e-01     6.13495e-02
       154        158      1   0.018859   0.044953     2.60142e-01     2.09200e-02
       154        157      1   0.018859   0.044953     2.60142e-01     2.09200e-02
       154        159      1   0.018859   0.758669     3.00055e-01     6.13495e-02
       152        156      1   0.020431  -0.136833     3.00055e-01     6.91943e-02
       152        155      1   0.020431   0.015716     2.60142e-01     2.09200e-02
       152        154      1   0.020431   0.015716     2.60142e-01     2.09200e-02
       151        156      1   0.020431  -0.136833     3.00055e-01     6.91943e-02
       151        155      1   0.020431   0.015716     2.60142e-01     2.09200e-02
       151        154      1   0.020431   0.015716     2.60142e-01     2.09200e-02
       150        158      1  -0.026954   0.044953     3.00055e-01     6.91943e-02
       150        157      1  -0.026954   0.044953     3.00055e-01     6.91943e-02
       149        153      1   0.010573  -0.002029     3.00055e-01     6.91943e-02
       149        152      1   0.010573   0.017026     2.60142e-01     2.09200e-02
       149        151      1   0.010573   0.017026     2.60142e-01     2.09200e-02
       148        153      1   0.010573  -0.002029     3.00055e-01     6.91943e-02
       148        152      1   0.010573   0.017026     2.60142e-01     2.09200e-02
       148        151      1   0.010573   0.017026     2.60142e-01     2.09200e-02
       147        155      1  -0.016521   0.015716     3.00055e-01     6.91943e-02
       147        154      1  -0.016521   0.015716     3.00055e-01     6.91943e-02
       146        150      1   0.011511  -0.022462     3.00055e-01     6.91943e-02
       146        148      1   0.011511   0.008811     2.60142e-01     2.09200e-02
       146        149      1   0.011511   0.008811     2.60142e-01     2.09200e-02
       145        150      1   0.011511  -0.022462     3.00055e-01     6.91943e-02
       145        148      1   0.011511   0.008811     2.60142e-01     2.09200e-02
       145        149      1   0.011511   0.008811     2.60142e-01     2.09200e-02
       144        152      1  -0.027812   0.017026     3.00055e-01     6.91943e-02
       144        151      1  -0.027812   0.017026     3.00055e-01     6.91943e-02
       143        147      1   0.006833  -0.013767     3.00055e-01     6.91943e-02
       143        145      1   0.006833   0.009592     2.60142e-01     2.09200e-02
       143        146      1   0.006833   0.009592     2.60142e-01     2.09200e-02
       142        147      1   0.006833  -0.013767     3.00055e-01     6.91943e-02
       142        145      1   0.006833   0.009592     2.60142e-01     2.09200e-02
       142        146      1   0.006833   0.009592     2.60142e-01     2.09200e-02
       141        148      1  -0.004386   0.008811     3.00055e-01     6.91943e-02
       141        149      1  -0.004386   0.008811     3.00055e-01     6.91943e-02
       140        144      1   0.011241  -0.023177     3.00055e-01     6.91943e-02
       140        142      1   0.011241   0.005694     2.60142e-01     2.09200e-02
       140        143      1   0.011241   0.005694     2.60142e-01     2.09200e-02
       139        144      1   0.011241  -0.023177     3.00055e-01     6.91943e-02
       139        142      1   0.011241   0.005694     2.60142e-01     2.09200e-02
       139        143      1   0.011241   0.005694     2.60142e-01     2.09200e-02
       138        145      1  -0.026451   0.009592     3.00055e-01     6.91943e-02
       138        146      1  -0.026451   0.009592     3.00055e-01     6.91943e-02
       137        141      1   0.010172  -0.003655     3.00055e-01     6.91943e-02
       137        140      1   0.010172   0.009367     2.60142e-01     2.09200e-02
       137        139      1   0.010172   0.009367     2.60142e-01     2.09200e-02
       136        141      1   0.010172  -0.003655     3.00055e-01     6.91943e-02
       136        140      1   0.010172   0.009367     2.60142e-01     2.09200e-02
       136        139      1   0.010172   0.009367     2.60142e-01     2.09200e-02
       135        142      1  -0.014653   0.005694     3.00055e-01     6.91943e-02
       135        143      1  -0.014653   0.005694     3.00055e-01     6.91943e-02
       134        138      1   0.010037  -0.022042     3.00055e-01     6.91943e-02
       134        136      1   0.010037   0.008477     2.60142e-01     2.09200e-02
       134        137      1   0.010037   0.008477     2.60142e-01     2.09200e-02
       133        138      1   0.010037  -0.022042     3.00055e-01     6.91943e-02
       133        136      1   0.010037   0.008477     2.60142e-01     2.09200e-02
       133        137      1   0.010037   0.008477     2.60142e-01     2.09200e-02
       132        140      1  -0.021025   0.009367     3.00055e-01     6.91943e-02
       132        139      1  -0.021025   0.009367     3.00055e-01     6.91943e-02
       131        135      1   0.012677  -0.012211     3.00055e-01     6.91943e-02
       131        134      1   0.012677   0.008364     2.60142e-01     2.09200e-02
       131        133      1   0.012677   0.008364     2.60142e-01     2.09200e-02
       130        135      1   0.012677  -0.012211     3.00055e-01     6.91943e-02
       130        134      1   0.012677   0.008364     2.60142e-01     2.09200e-02
       130        133      1   0.012677   0.008364     2.60142e-01     2.09200e-02
       129        136      1  -0.031787   0.008477     3.00055e-01     6.91943e-02
       129        137      1  -0.031787   0.008477     3.00055e-01     6.91943e-02
       128        132      1   0.017208  -0.017521     3.00055e-01     6.91943e-02
       128        130      1   0.017208   0.010564     2.60142e-01     2.09200e-02
       128        131      1   0.017208   0.010564     2.60142e-01     2.09200e-02
       127        132      1   0.017208  -0.017521     3.00055e-01     6.91943e-02
       127        130      1   0.017208   0.010564     2.60142e-01     2.09200e-02
       127        131      1   0.017208   0.010564     2.60142e-01     2.09200e-02
       126        134      1  -0.028094   0.008364     3.00055e-01     6.91943e-02
       126        133      1  -0.028094   0.008364     3.00055e-01     6.91943e-02
       125        129      1   0.007531  -0.026489     3.00055e-01     6.91943e-02
       125        128      1   0.007531   0.014340     2.60142e-01     2.09200e-02
       125        127      1   0.007531   0.014340     2.60142e-01     2.09200e-02
       124        129      1   0.007531  -0.026489     3.00055e-01     6.91943e-02
       124        128      1   0.007531   0.014340     2.60142e-01     2.09200e-02
       124        127      1   0.007531   0.014340     2.60142e-01     2.09200e-02
       123        130      1   0.017463   0.010564     3.00055e-01     6.91943e-02
       123        131      1   0.017463   0.010564     3.00055e-01     6.91943e-02
       122        126      1   0.025511  -0.023412     3.00055e-01     6.91943e-02
       122        124      1   0.025511   0.006276     2.60142e-01     2.09200e-02
       122        125      1   0.025511   0.006276     2.60142e-01     2.09200e-02
       121        126      1   0.025511  -0.023412     3.00055e-01     6.91943e-02
       121        124      1   0.025511   0.006276     2.60142e-01     2.09200e-02
       121        125      1   0.025511   0.006276     2.60142e-01     2.09200e-02
       120        128      1  -0.111712   0.014340     3.00055e-01     6.91943e-02
       120        127      1  -0.111712   0.014340     3.00055e-01     6.91943e-02
       119        126      1   0.025511  -0.023412     3.00055e-01     6.91943e-02
       119        124      1   0.025511   0.006276     2.60142e-01     2.09200e-02
       119        125      1   0.025511   0.006276     2.60142e-01     2.09200e-02
       196        236      1  -0.673755   0.044953     2.78067e-01     9.58675e-02
       196        235      1  -0.673755   0.044953     2.78067e-01     9.58675e-02
       195        233      1   0.897613   0.015716     3.00055e-01     6.13495e-02
       195        232      1   0.897613   0.015716     3.00055e-01     6.13495e-02
       194        236      1  -0.552948   0.044953     2.80072e-01     8.62554e-02
       194        235      1  -0.552948   0.044953     2.80072e-01     8.62554e-02
       187        188      1   0.172230  -0.282478     2.67982e-01     8.67002e-02
       186        188      1   0.172230  -0.282478     2.67982e-01     8.67002e-02
       185        188      1   0.172230  -0.282478     2.67982e-01     8.67002e-02
       184        189      1  -0.338973   0.143525     2.67982e-01     8.67002e-02
       184        190      1  -0.338973   0.143525     2.67982e-01     8.67002e-02
       184        191      1  -0.338973   0.143525     2.67982e-01     8.67002e-02
       183        184      1   0.172230  -0.282478     2.67982e-01     8.67002e-02
       183        188      1   0.172230  -0.282478     2.67982e-01     8.67002e-02
       182        184      1   0.172230  -0.282478     2.67982e-01     8.67002e-02
       182        188      1   0.172230  -0.282478     2.67982e-01     8.67002e-02
       181        184      1   0.172230  -0.282478     2.67982e-01     8.67002e-02
       181        188      1   0.172230  -0.282478     2.67982e-01     8.67002e-02
       180        185      1  -0.338973   0.143525     2.67982e-01     8.67002e-02
       180        186      1  -0.338973   0.143525     2.67982e-01     8.67002e-02
       180        187      1  -0.338973   0.143525     2.67982e-01     8.67002e-02
       180        189      1  -0.338973   0.143525     2.67982e-01     8.67002e-02
       180        190      1  -0.338973   0.143525     2.67982e-01     8.67002e-02
       180        191      1  -0.338973   0.143525     2.67982e-01     8.67002e-02
       178        180      1   0.136415  -0.282478     2.67982e-01     8.67002e-02
       178        184      1   0.136415  -0.282478     2.67982e-01     8.67002e-02
       178        188      1   0.136415  -0.282478     2.67982e-01     8.67002e-02
       177        180      1   0.136415  -0.282478     2.67982e-01     8.67002e-02
       177        184      1   0.136415  -0.282478     2.67982e-01     8.67002e-02
       177        188      1   0.136415  -0.282478     2.67982e-01     8.67002e-02
       176        181      1  -0.170824   0.143525     2.67982e-01     8.67002e-02
       176        182      1  -0.170824   0.143525     2.67982e-01     8.67002e-02
       176        183      1  -0.170824   0.143525     2.67982e-01     8.67002e-02
       176        185      1  -0.170824   0.143525     2.67982e-01     8.67002e-02
       176        186      1  -0.170824   0.143525     2.67982e-01     8.67002e-02
       176        187      1  -0.170824   0.143525     2.67982e-01     8.67002e-02
       176        189      1  -0.170824   0.143525     2.67982e-01     8.67002e-02
       176        190      1  -0.170824   0.143525     2.67982e-01     8.67002e-02
       176        191      1  -0.170824   0.143525     2.67982e-01     8.67002e-02
       175        177      1   0.078534   0.113679     2.21567e-01     3.28444e-02
       175        178      1   0.078534   0.113679     2.21567e-01     3.28444e-02
       175        179      1   0.078534   0.204385     2.86068e-01     1.08078e-01
       174        177      1   0.078534   0.113679     2.21567e-01     3.28444e-02
       174        178      1   0.078534   0.113679     2.21567e-01     3.28444e-02
       174        179      1   0.078534   0.204385     2.86068e-01     1.08078e-01
       172        177      1  -0.508176   0.113679     2.47999e-01     1.08078e-01
       172        178      1  -0.508176   0.113679     2.47999e-01     1.08078e-01
       171        174      1   1.339721   0.065445     3.10656e-01     1.17227e-01
       171        175      1   1.339721   0.065445     3.10656e-01     1.17227e-01
       169        194      1   0.095591  -0.460790     2.73568e-01     1.08078e-01
       169        171      1   0.095591   1.116434     3.10656e-01     1.17227e-01
       168        194      1   0.095591  -0.460790     2.73568e-01     1.08078e-01
       168        171      1   0.095591   1.116434     3.10656e-01     1.17227e-01
       166        168      1   0.063253   0.079659     2.47135e-01     3.28444e-02
       166        169      1   0.063253   0.079659     2.47135e-01     3.28444e-02
       166        170      1   0.063253  -0.424567     2.73568e-01     1.08078e-01
       166        195      1   0.063253   0.748011     2.93551e-01     7.68707e-02
       164        166      1   0.070469   0.052711     2.47135e-01     3.28444e-02
       164        167      1   0.070469   0.014549     2.93551e-01     8.67002e-02
       164        194      1   0.070469  -0.460790     2.73568e-01     1.08078e-01
       163        166      1   0.070469   0.052711     2.47135e-01     3.28444e-02
       163        167      1   0.070469   0.014549     2.93551e-01     8.67002e-02
       163        194      1   0.070469  -0.460790     2.73568e-01     1.08078e-01
       162        168      1   0.196939   0.079659     2.93551e-01     8.67002e-02
       162        169      1   0.196939   0.079659     2.93551e-01     8.67002e-02
       161        166      1  -0.575489   0.052711     2.73568e-01     1.08078e-01
       159        163      1   0.910403   0.058724     2.93551e-01     7.68707e-02
       159        164      1   0.910403   0.058724     2.93551e-01     7.68707e-02
       233        236      1   0.018859   0.044953     2.60142e-01     2.09200e-02
       233        235      1   0.018859   0.044953     2.60142e-01     2.09200e-02
       232        236      1   0.018859   0.044953     2.60142e-01     2.09200e-02
       232        235      1   0.018859   0.044953     2.60142e-01     2.09200e-02
       230        234      1   0.020431  -0.136833     3.00055e-01     6.91943e-02
       230        233      1   0.020431   0.015716     2.60142e-01     2.09200e-02
       230        232      1   0.020431   0.015716     2.60142e-01     2.09200e-02
       229        234      1   0.020431  -0.136833     3.00055e-01     6.91943e-02
       229        233      1   0.020431   0.015716     2.60142e-01     2.09200e-02
       229        232      1   0.020431   0.015716     2.60142e-01     2.09200e-02
       228        236      1  -0.026954   0.044953     3.00055e-01     6.91943e-02
       228        235      1  -0.026954   0.044953     3.00055e-01     6.91943e-02
       227        231      1   0.010573  -0.002029     3.00055e-01     6.91943e-02
       227        230      1   0.010573   0.017026     2.60142e-01     2.09200e-02
       227        229      1   0.010573   0.017026     2.60142e-01     2.09200e-02
       226        231      1   0.010573  -0.002029     3.00055e-01     6.91943e-02
       226        230      1   0.010573   0.017026     2.60142e-01     2.09200e-02
       226        229      1   0.010573   0.017026     2.60142e-01     2.09200e-02
       225        233      1  -0.016521   0.015716     3.00055e-01     6.91943e-02
       225        232      1  -0.016521   0.015716     3.00055e-01     6.91943e-02
       224        228      1   0.011511  -0.022462     3.00055e-01     6.91943e-02
       224        226      1   0.011511   0.008811     2.60142e-01     2.09200e-02
       224        227      1   0.011511   0.008811     2.60142e-01     2.09200e-02
       223        228      1   0.011511  -0.022462     3.00055e-01     6.91943e-02
       223        226      1   0.011511   0.008811     2.60142e-01     2.09200e-02
       223        227      1   0.011511   0.008811     2.60142e-01     2.09200e-02
       222        230      1  -0.027812   0.017026     3.00055e-01     6.91943e-02
       222        229      1  -0.027812   0.017026     3.00055e-01     6.91943e-02
       221        225      1   0.006833  -0.013767     3.00055e-01     6.91943e-02
       221        223      1   0.006833   0.009592     2.60142e-01     2.09200e-02
       221        224      1   0.006833   0.009592     2.60142e-01     2.09200e-02
       220        225      1   0.006833  -0.013767     3.00055e-01     6.91943e-02
       220        223      1   0.006833   0.009592     2.60142e-01     2.09200e-02
       220        224      1   0.006833   0.009592     2.60142e-01     2.09200e-02
       219        226      1  -0.004386   0.008811     3.00055e-01     6.91943e-02
       219        227      1  -0.004386   0.008811     3.00055e-01     6.91943e-02
       218        222      1   0.011241  -0.023177     3.00055e-01     6.91943e-02
       218        220      1   0.011241   0.005694     2.60142e-01     2.09200e-02
       218        221      1   0.011241   0.005694     2.60142e-01     2.09200e-02
       217        222      1   0.011241  -0.023177     3.00055e-01     6.91943e-02
       217        220      1   0.011241   0.005694     2.60142e-01     2.09200e-02
       217        221      1   0.011241   0.005694     2.60142e-01     2.09200e-02
       216        223      1  -0.026451   0.009592     3.00055e-01     6.91943e-02
       216        224      1  -0.026451   0.009592     3.00055e-01     6.91943e-02
       215        219      1   0.010172  -0.003655     3.00055e-01     6.91943e-02
       215        218      1   0.010172   0.009367     2.60142e-01     2.09200e-02
       215        217      1   0.010172   0.009367     2.60142e-01     2.09200e-02
       214        219      1   0.010172  -0.003655     3.00055e-01     6.91943e-02
       214        218      1   0.010172   0.009367     2.60142e-01     2.09200e-02
       214        217      1   0.010172   0.009367     2.60142e-01     2.09200e-02
       213        220      1  -0.014653   0.005694     3.00055e-01     6.91943e-02
       213        221      1  -0.014653   0.005694     3.00055e-01     6.91943e-02
       212        216      1   0.010037  -0.022042     3.00055e-01     6.91943e-02
       212        214      1   0.010037   0.008477     2.60142e-01     2.09200e-02
       212        215      1   0.010037   0.008477     2.60142e-01     2.09200e-02
       211        216      1   0.010037  -0.022042     3.00055e-01     6.91943e-02
       211        214      1   0.010037   0.008477     2.60142e-01     2.09200e-02
       211        215      1   0.010037   0.008477     2.60142e-01     2.09200e-02
       210        218      1  -0.021025   0.009367     3.00055e-01     6.91943e-02
       210        217      1  -0.021025   0.009367     3.00055e-01     6.91943e-02
       209        213      1   0.012677  -0.012211     3.00055e-01     6.91943e-02
       209        212      1   0.012677   0.008364     2.60142e-01     2.09200e-02
       209        211      1   0.012677   0.008364     2.60142e-01     2.09200e-02
       208        213      1   0.012677  -0.012211     3.00055e-01     6.91943e-02
       208        212      1   0.012677   0.008364     2.60142e-01     2.09200e-02
       208        211      1   0.012677   0.008364     2.60142e-01     2.09200e-02
       207        214      1  -0.031787   0.008477     3.00055e-01     6.91943e-02
       207        215      1  -0.031787   0.008477     3.00055e-01     6.91943e-02
       206        210      1   0.017208  -0.017521     3.00055e-01     6.91943e-02
       206        208      1   0.017208   0.010564     2.60142e-01     2.09200e-02
       206        209      1   0.017208   0.010564     2.60142e-01     2.09200e-02
       205        210      1   0.017208  -0.017521     3.00055e-01     6.91943e-02
       205        208      1   0.017208   0.010564     2.60142e-01     2.09200e-02
       205        209      1   0.017208   0.010564     2.60142e-01     2.09200e-02
       204        212      1  -0.028094   0.008364     3.00055e-01     6.91943e-02
       204        211      1  -0.028094   0.008364     3.00055e-01     6.91943e-02
       203        207      1   0.007531  -0.026489     3.00055e-01     6.91943e-02
       203        206      1   0.007531   0.014340     2.60142e-01     2.09200e-02
       203        205      1   0.007531   0.014340     2.60142e-01     2.09200e-02
       202        207      1   0.007531  -0.026489     3.00055e-01     6.91943e-02
       202        206      1   0.007531   0.014340     2.60142e-01     2.09200e-02
       202        205      1   0.007531   0.014340     2.60142e-01     2.09200e-02
       201        208      1   0.017463   0.010564     3.00055e-01     6.91943e-02
       201        209      1   0.017463   0.010564     3.00055e-01     6.91943e-02
       200        204      1   0.025511  -0.023412     3.00055e-01     6.91943e-02
       200        202      1   0.025511   0.006276     2.60142e-01     2.09200e-02
       200        203      1   0.025511   0.006276     2.60142e-01     2.09200e-02
       199        204      1   0.025511  -0.023412     3.00055e-01     6.91943e-02
       199        202      1   0.025511   0.006276     2.60142e-01     2.09200e-02
       199        203      1   0.025511   0.006276     2.60142e-01     2.09200e-02
       198        206      1  -0.111712   0.014340     3.00055e-01     6.91943e-02
       198        205      1  -0.111712   0.014340     3.00055e-01     6.91943e-02
       197        204      1   0.025511  -0.023412     3.00055e-01     6.91943e-02
       197        202      1   0.025511   0.006276     2.60142e-01     2.09200e-02
       197        203      1   0.025511   0.006276     2.60142e-01     2.09200e-02
       276        278      1   0.053944  -0.559638     2.78067e-01     9.58675e-02
       276        279      1   0.053944  -0.479574     2.80072e-01     8.62554e-02
       275        278      1   0.053944  -0.559638     2.78067e-01     9.58675e-02
       275        279      1   0.053944  -0.479574     2.80072e-01     8.62554e-02
       273        276      1   0.018859   0.044953     2.60142e-01     2.09200e-02
       273        275      1   0.018859   0.044953     2.60142e-01     2.09200e-02
       273        277      1   0.018859   0.758669     3.00055e-01     6.13495e-02
       272        276      1   0.018859   0.044953     2.60142e-01     2.09200e-02
       272        275      1   0.018859   0.044953     2.60142e-01     2.09200e-02
       272        277      1   0.018859   0.758669     3.00055e-01     6.13495e-02
       270        274      1   0.020431  -0.136833     3.00055e-01     6.91943e-02
       270        273      1   0.020431   0.015716     2.60142e-01     2.09200e-02
       270        272      1   0.020431   0.015716     2.60142e-01     2.09200e-02
       269        274      1   0.020431  -0.136833     3.00055e-01     6.91943e-02
       269        273      1   0.020431   0.015716     2.60142e-01     2.09200e-02
       269        272      1   0.020431   0.015716     2.60142e-01     2.09200e-02
       268        276      1  -0.026954   0.044953     3.00055e-01     6.91943e-02
       268        275      1  -0.026954   0.044953     3.00055e-01     6.91943e-02
       267        271      1   0.010573  -0.002029     3.00055e-01     6.91943e-02
       267        270      1   0.010573   0.017026     2.60142e-01     2.09200e-02
       267        269      1   0.010573   0.017026     2.60142e-01     2.09200e-02
       266        271      1   0.010573  -0.002029     3.00055e-01     6.91943e-02
       266        270      1   0.010573   0.017026     2.60142e-01     2.09200e-02
       266        269      1   0.010573   0.017026     2.60142e-01     2.09200e-02
       265        273      1  -0.016521   0.015716     3.00055e-01     6.91943e-02
       265        272      1  -0.016521   0.015716     3.00055e-01     6.91943e-02
       264        268      1   0.011511  -0.022462     3.00055e-01     6.91943e-02
       264        266      1   0.011511   0.008811     2.60142e-01     2.09200e-02
       264        267      1   0.011511   0.008811     2.60142e-01     2.09200e-02
       263        268      1   0.011511  -0.022462     3.00055e-01     6.91943e-02
       263        266      1   0.011511   0.008811     2.60142e-01     2.09200e-02
       263        267      1   0.011511   0.008811     2.60142e-01     2.09200e-02
       262        270      1  -0.027812   0.017026     3.00055e-01     6.91943e-02
       262        269      1  -0.027812   0.017026     3.00055e-01     6.91943e-02
       261        265      1   0.006833  -0.013767     3.00055e-01     6.91943e-02
       261        263      1   0.006833   0.009592     2.60142e-01     2.09200e-02
       261        264      1   0.006833   0.009592     2.60142e-01     2.09200e-02
       260        265      1   0.006833  -0.013767     3.00055e-01     6.91943e-02
       260        263      1   0.006833   0.009592     2.60142e-01     2.09200e-02
       260        264      1   0.006833   0.009592     2.60142e-01     2.09200e-02
       259        266      1  -0.004386   0.008811     3.00055e-01     6.91943e-02
       259        267      1  -0.004386   0.008811     3.00055e-01     6.91943e-02
       258        262      1   0.011241  -0.023177     3.00055e-01     6.91943e-02
       258        260      1   0.011241   0.005694     2.60142e-01     2.09200e-02
       258        261      1   0.011241   0.005694     2.60142e-01     2.09200e-02
       257        262      1   0.011241  -0.023177     3.00055e-01     6.91943e-02
       257        260      1   0.011241   0.005694     2.60142e-01     2.09200e-02
       257        261      1   0.011241   0.005694     2.60142e-01     2.09200e-02
       256        263      1  -0.026451   0.009592     3.00055e-01     6.91943e-02
       256        264      1  -0.026451   0.009592     3.00055e-01     6.91943e-02
       255        259      1   0.010172  -0.003655     3.00055e-01     6.91943e-02
       255        258      1   0.010172   0.009367     2.60142e-01     2.09200e-02
       255        257      1   0.010172   0.009367     2.60142e-01     2.09200e-02
       254        259      1   0.010172  -0.003655     3.00055e-01     6.91943e-02
       254        258      1   0.010172   0.009367     2.60142e-01     2.09200e-02
       254        257      1   0.010172   0.009367     2.60142e-01     2.09200e-02
       253        260      1  -0.014653   0.005694     3.00055e-01     6.91943e-02
       253        261      1  -0.014653   0.005694     3.00055e-01     6.91943e-02
       252        256      1   0.010037  -0.022042     3.00055e-01     6.91943e-02
       252        254      1   0.010037   0.008477     2.60142e-01     2.09200e-02
       252        255      1   0.010037   0.008477     2.60142e-01     2.09200e-02
       251        256      1   0.010037  -0.022042     3.00055e-01     6.91943e-02
       251        254      1   0.010037   0.008477     2.60142e-01     2.09200e-02
       251        255      1   0.010037   0.008477     2.60142e-01     2.09200e-02
       250        258      1  -0.021025   0.009367     3.00055e-01     6.91943e-02
       250        257      1  -0.021025   0.009367     3.00055e-01     6.91943e-02
       249        253      1   0.012677  -0.012211     3.00055e-01     6.91943e-02
       249        252      1   0.012677   0.008364     2.60142e-01     2.09200e-02
       249        251      1   0.012677   0.008364     2.60142e-01     2.09200e-02
       248        253      1   0.012677  -0.012211     3.00055e-01     6.91943e-02
       248        252      1   0.012677   0.008364     2.60142e-01     2.09200e-02
       248        251      1   0.012677   0.008364     2.60142e-01     2.09200e-02
       247        254      1  -0.031787   0.008477     3.00055e-01     6.91943e-02
       247        255      1  -0.031787   0.008477     3.00055e-01     6.91943e-02
       246        250      1   0.017208  -0.017521     3.00055e-01     6.91943e-02
       246        248      1   0.017208   0.010564     2.60142e-01     2.09200e-02
       246        249      1   0.017208   0.010564     2.60142e-01     2.09200e-02
       245        250      1   0.017208  -0.017521     3.00055e-01     6.91943e-02
       245        248      1   0.017208   0.010564     2.60142e-01     2.09200e-02
       245        249      1   0.017208   0.010564     2.60142e-01     2.09200e-02
       244        252      1  -0.028094   0.008364     3.00055e-01     6.91943e-02
       244        251      1  -0.028094   0.008364     3.00055e-01     6.91943e-02
       243        247      1   0.007531  -0.026489     3.00055e-01     6.91943e-02
       243        246      1   0.007531   0.014340     2.60142e-01     2.09200e-02
       243        245      1   0.007531   0.014340     2.60142e-01     2.09200e-02
       242        247      1   0.007531  -0.026489     3.00055e-01     6.91943e-02
       242        246      1   0.007531   0.014340     2.60142e-01     2.09200e-02
       242        245      1   0.007531   0.014340     2.60142e-01     2.09200e-02
       241        248      1   0.017463   0.010564     3.00055e-01     6.91943e-02
       241        249      1   0.017463   0.010564     3.00055e-01     6.91943e-02
       240        244      1   0.025511  -0.023412     3.00055e-01     6.91943e-02
       240        242      1   0.025511   0.006276     2.60142e-01     2.09200e-02
       240        243      1   0.025511   0.006276     2.60142e-01     2.09200e-02
       239        244      1   0.025511  -0.023412     3.00055e-01     6.91943e-02
       239        242      1   0.025511   0.006276     2.60142e-01     2.09200e-02
       239        243      1   0.025511   0.006276     2.60142e-01     2.09200e-02
       238        246      1  -0.111712   0.014340     3.00055e-01     6.91943e-02
       238        245      1  -0.111712   0.014340     3.00055e-01     6.91943e-02
       237        244      1   0.025511  -0.023412     3.00055e-01     6.91943e-02
       237        242      1   0.025511   0.006276     2.60142e-01     2.09200e-02
       237        243      1   0.025511   0.006276     2.60142e-01     2.09200e-02
       314        354      1  -0.673755   0.044953     2.78067e-01     9.58675e-02
       314        353      1  -0.673755   0.044953     2.78067e-01     9.58675e-02
       313        351      1   0.897613   0.015716     3.00055e-01     6.13495e-02
       313        350      1   0.897613   0.015716     3.00055e-01     6.13495e-02
       312        354      1  -0.552948   0.044953     2.80072e-01     8.62554e-02
       312        353      1  -0.552948   0.044953     2.80072e-01     8.62554e-02
       305        306      1   0.172230  -0.282478     2.67982e-01     8.67002e-02
       304        306      1   0.172230  -0.282478     2.67982e-01     8.67002e-02
       303        306      1   0.172230  -0.282478     2.67982e-01     8.67002e-02
       302        307      1  -0.338973   0.143525     2.67982e-01     8.67002e-02
       302        308      1  -0.338973   0.143525     2.67982e-01     8.67002e-02
       302        309      1  -0.338973   0.143525     2.67982e-01     8.67002e-02
       301        302      1   0.172230  -0.282478     2.67982e-01     8.67002e-02
       301        306      1   0.172230  -0.282478     2.67982e-01     8.67002e-02
       300        302      1   0.172230  -0.282478     2.67982e-01     8.67002e-02
       300        306      1   0.172230  -0.282478     2.67982e-01     8.67002e-02
       299        302      1   0.172230  -0.282478     2.67982e-01     8.67002e-02
       299        306      1   0.172230  -0.282478     2.67982e-01     8.67002e-02
       298        303      1  -0.338973   0.143525     2.67982e-01     8.67002e-02
       298        304      1  -0.338973   0.143525     2.67982e-01     8.67002e-02
       298        305      1  -0.338973   0.143525     2.67982e-01     8.67002e-02
       298        307      1  -0.338973   0.143525     2.67982e-01     8.67002e-02
       298        308      1  -0.338973   0.143525     2.67982e-01     8.67002e-02
       298        309      1  -0.338973   0.143525     2.67982e-01     8.67002e-02
       296        298      1   0.136415  -0.282478     2.67982e-01     8.67002e-02
       296        302      1   0.136415  -0.282478     2.67982e-01     8.67002e-02
       296        306      1   0.136415  -0.282478     2.67982e-01     8.67002e-02
       295        298      1   0.136415  -0.282478     2.67982e-01     8.67002e-02
       295        302      1   0.136415  -0.282478     2.67982e-01     8.67002e-02
       295        306      1   0.136415  -0.282478     2.67982e-01     8.67002e-02
       294        299      1  -0.170824   0.143525     2.67982e-01     8.67002e-02
       294        300      1  -0.170824   0.143525     2.67982e-01     8.67002e-02
       294        301      1  -0.170824   0.143525     2.67982e-01     8.67002e-02
       294        303      1  -0.170824   0.143525     2.67982e-01     8.67002e-02
       294        304      1  -0.170824   0.143525     2.67982e-01     8.67002e-02
       294        305      1  -0.170824   0.143525     2.67982e-01     8.67002e-02
       294        307      1  -0.170824   0.143525     2.67982e-01     8.67002e-02
       294        308      1  -0.170824   0.143525     2.67982e-01     8.67002e-02
       294        309      1  -0.170824   0.143525     2.67982e-01     8.67002e-02
       293        295      1   0.078534   0.113679     2.21567e-01     3.28444e-02
       293        296      1   0.078534   0.113679     2.21567e-01     3.28444e-02
       293        297      1   0.078534   0.204385     2.86068e-01     1.08078e-01
       292        295      1   0.078534   0.113679     2.21567e-01     3.28444e-02
       292        296      1   0.078534   0.113679     2.21567e-01     3.28444e-02
       292        297      1   0.078534   0.204385     2.86068e-01     1.08078e-01
       290        295      1  -0.508176   0.113679     2.47999e-01     1.08078e-01
       290        296      1  -0.508176   0.113679     2.47999e-01     1.08078e-01
       289        292      1   1.339721   0.065445     3.10656e-01     1.17227e-01
       289        293      1   1.339721   0.065445     3.10656e-01     1.17227e-01
       287        312      1   0.095591  -0.460790     2.73568e-01     1.08078e-01
       287        289      1   0.095591   1.116434     3.10656e-01     1.17227e-01
       286        312      1   0.095591  -0.460790     2.73568e-01     1.08078e-01
       286        289      1   0.095591   1.116434     3.10656e-01     1.17227e-01
       284        286      1   0.063253   0.079659     2.47135e-01     3.28444e-02
       284        287      1   0.063253   0.079659     2.47135e-01     3.28444e-02
       284        288      1   0.063253  -0.424567     2.73568e-01     1.08078e-01
       284        313      1   0.063253   0.748011     2.93551e-01     7.68707e-02
       282        284      1   0.070469   0.052711     2.47135e-01     3.28444e-02
       282        285      1   0.070469   0.014549     2.93551e-01     8.67002e-02
       282        312      1   0.070469  -0.460790     2.73568e-01     1.08078e-01
       281        284      1   0.070469   0.052711     2.47135e-01     3.28444e-02
       281        285      1   0.070469   0.014549     2.93551e-01     8.67002e-02
       281        312      1   0.070469  -0.460790     2.73568e-01     1.08078e-01
       280        286      1   0.196939   0.079659     2.93551e-01     8.67002e-02
       280        287      1   0.196939   0.079659     2.93551e-01     8.67002e-02
       279        284      1  -0.575489   0.052711     2.73568e-01     1.08078e-01
       277        281      1   0.910403   0.058724     2.93551e-01     7.68707e-02
       277        282      1   0.910403   0.058724     2.93551e-01     7.68707e-02
       351        354      1   0.018859   0.044953     2.60142e-01     2.09200e-02
       351        353      1   0.018859   0.044953     2.60142e-01     2.09200e-02
       350        354      1   0.018859   0.044953     2.60142e-01     2.09200e-02
       350        353      1   0.018859   0.044953     2.60142e-01     2.09200e-02
       348        352      1   0.020431  -0.136833     3.00055e-01     6.91943e-02
       348        351      1   0.020431   0.015716     2.60142e-01     2.09200e-02
       348        350      1   0.020431   0.015716     2.60142e-01     2.09200e-02
       347        352      1   0.020431  -0.136833     3.00055e-01     6.91943e-02
       347        351      1   0.020431   0.015716     2.60142e-01     2.09200e-02
       347        350      1   0.020431   0.015716     2.60142e-01     2.09200e-02
       346        354      1  -0.026954   0.044953     3.00055e-01     6.91943e-02
       346        353      1  -0.026954   0.044953     3.00055e-01     6.91943e-02
       345        349      1   0.010573  -0.002029     3.00055e-01     6.91943e-02
       345        348      1   0.010573   0.017026     2.60142e-01     2.09200e-02
       345        347      1   0.010573   0.017026     2.60142e-01     2.09200e-02
       344        349      1   0.010573  -0.002029     3.00055e-01     6.91943e-02
       344        348      1   0.010573   0.017026     2.60142e-01     2.09200e-02
       344        347      1   0.010573   0.017026     2.60142e-01     2.09200e-02
       343        351      1  -0.016521   0.015716     3.00055e-01     6.91943e-02
       343        350      1  -0.016521   0.015716     3.00055e-01     6.91943e-02
       342        346      1   0.011511  -0.022462     3.00055e-01     6.91943e-02
       342        344      1   0.011511   0.008811     2.60142e-01     2.09200e-02
       342        345      1   0.011511   0.008811     2.60142e-01     2.09200e-02
       341        346      1   0.011511  -0.022462     3.00055e-01     6.91943e-02
       341        344      1   0.011511   0.008811     2.60142e-01     2.09200e-02
       341        345      1   0.011511   0.008811     2.60142e-01     2.09200e-02
       340        348      1  -0.027812   0.017026     3.00055e-01     6.91943e-02
       340        347      1  -0.027812   0.017026     3.00055e-01     6.91943e-02
       339        343      1   0.006833  -0.013767     3.00055e-01     6.91943e-02
       339        341      1   0.006833   0.009592     2.60142e-01     2.09200e-02
       339        342      1   0.006833   0.009592     2.60142e-01     2.09200e-02
       338        343      1   0.006833  -0.013767     3.00055e-01     6.91943e-02
       338        341      1   0.006833   0.009592     2.60142e-01     2.09200e-02
       338        342      1   0.006833   0.009592     2.60142e-01     2.09200e-02
       337        344      1  -0.004386   0.008811     3.00055e-01     6.91943e-02
       337        345      1  -0.004386   0.008811     3.00055e-01     6.91943e-02
       336        340      1   0.011241  -0.023177     3.00055e-01     6.91943e-02
       336        338      1   0.011241   0.005694     2.60142e-01     2.09200e-02
       336        339      1   0.011241   0.005694     2.60142e-01     2.09200e-02
       335        340      1   0.011241  -0.023177     3.00055e-01     6.91943e-02
       335        338      1   0.011241   0.005694     2.60142e-01     2.09200e-02
       335        339      1   0.011241   0.005694     2.60142e-01     2.09200e-02
       334        341      1  -0.026451   0.009592     3.00055e-01     6.91943e-02
       334        342      1  -0.026451   0.009592     3.00055e-01     6.91943e-02
       333        337      1   0.010172  -0.003655     3.00055e-01     6.91943e-02
       333        336      1   0.010172   0.009367     2.60142e-01     2.09200e-02
       333        335      1   0.010172   0.009367     2.60142e-01     2.09200e-02
       332        337      1   0.010172  -0.003655     3.00055e-01     6.91943e-02
       332        336      1   0.010172   0.009367     2.60142e-01     2.09200e-02
       332        335      1   0.010172   0.009367     2.60142e-01     2.09200e-02
       331        338      1  -0.014653   0.005694     3.00055e-01     6.91943e-02
       331        339      1  -0.014653   0.005694     3.00055e-01     6.91943e-02
       330        334      1   0.010037  -0.022042     3.00055e-01     6.91943e-02
       330        332      1   0.010037   0.008477     2.60142e-01     2.09200e-02
       330        333      1   0.010037   0.008477     2.60142e-01     2.09200e-02
       329        334      1   0.010037  -0.022042     3.00055e-01     6.91943e-02
       329        332      1   0.010037   0.008477     2.60142e-01     2.09200e-02
       329        333      1   0.010037   0.008477     2.60142e-01     2.09200e-02
       328        336      1  -0.021025   0.009367     3.00055e-01     6.91943e-02
       328        335      1  -0.021025   0.009367     3.00055e-01     6.91943e-02
       327        331      1   0.012677  -0.012211     3.00055e-01     6.91943e-02
       327        330      1   0.012677   0.008364     2.60142e-01     2.09200e-02
       327        329      1   0.012677   0.008364     2.60142e-01     2.09200e-02
       326        331      1   0.012677  -0.012211     3.00055e-01     6.91943e-02
       326        330      1   0.012677   0.008364     2.60142e-01     2.09200e-02
       326        329      1   0.012677   0.008364     2.60142e-01     2.09200e-02
       325        332      1  -0.031787   0.008477     3.00055e-01     6.91943e-02
       325        333      1  -0.031787   0.008477     3.00055e-01     6.91943e-02
       324        328      1   0.017208  -0.017521     3.00055e-01     6.91943e-02
       324        326      1   0.017208   0.010564     2.60142e-01     2.09200e-02
       324        327      1   0.017208   0.010564     2.60142e-01     2.09200e-02
       323        328      1   0.017208  -0.017521     3.00055e-01     6.91943e-02
       323        326      1   0.017208   0.010564     2.60142e-01     2.09200e-02
       323        327      1   0.017208   0.010564     2.60142e-01     2.09200e-02
       322        330      1  -0.028094   0.008364     3.00055e-01     6.91943e-02
       322        329      1  -0.028094   0.008364     3.00055e-01     6.91943e-02
       321        325      1   0.007531  -0.026489     3.00055e-01     6.91943e-02
       321        324      1   0.007531   0.014340     2.60142e-01     2.09200e-02
       321        323      1   0.007531   0.014340     2.60142e-01     2.09200e-02
       320        325      1   0.007531  -0.026489     3.00055e-01     6.91943e-02
       320        324      1   0.007531   0.014340     2.60142e-01     2.09200e-02
       320        323      1   0.007531   0.014340     2.60142e-01     2.09200e-02
       319        326      1   0.017463   0.010564     3.00055e-01     6.91943e-02
       319        327      1   0.017463   0.010564     3.00055e-01     6.91943e-02
       318        322      1   0.025511  -0.023412     3.00055e-01     6.91943e-02
       318        320      1   0.025511   0.006276     2.60142e-01     2.09200e-02
       318        321      1   0.025511   0.006276     2.60142e-01     2.09200e-02
       317        322      1   0.025511  -0.023412     3.00055e-01     6.91943e-02
       317        320      1   0.025511   0.006276     2.60142e-01     2.09200e-02
       317        321      1   0.025511   0.006276     2.60142e-01     2.09200e-02
       316        324      1  -0.111712   0.014340     3.00055e-01     6.91943e-02
       316        323      1  -0.111712   0.014340     3.00055e-01     6.91943e-02
       315        322      1   0.025511  -0.023412     3.00055e-01     6.91943e-02
       315        320      1   0.025511   0.006276     2.60142e-01     2.09200e-02
       315        321      1   0.025511   0.006276     2.60142e-01     2.09200e-02
       394        396      1   0.053944  -0.559638     2.78067e-01     9.58675e-02
       394        397      1   0.053944  -0.479574     2.80072e-01     8.62554e-02
       393        396      1   0.053944  -0.559638     2.78067e-01     9.58675e-02
       393        397      1   0.053944  -0.479574     2.80072e-01     8.62554e-02
       391        394      1   0.018859   0.044953     2.60142e-01     2.09200e-02
       391        393      1   0.018859   0.044953     2.60142e-01     2.09200e-02
       391        395      1   0.018859   0.758669     3.00055e-01     6.13495e-02
       390        394      1   0.018859   0.044953     2.60142e-01     2.09200e-02
       390        393      1   0.018859   0.044953     2.60142e-01     2.09200e-02
       390        395      1   0.018859   0.758669     3.00055e-01     6.13495e-02
       388        392      1   0.020431  -0.136833     3.00055e-01     6.91943e-02
       388        391      1   0.020431   0.015716     2.60142e-01     2.09200e-02
       388        390      1   0.020431   0.015716     2.60142e-01     2.09200e-02
       387        392      1   0.020431  -0.136833     3.00055e-01     6.91943e-02
       387        391      1   0.020431   0.015716     2.60142e-01     2.09200e-02
       387        390      1   0.020431   0.015716     2.60142e-01     2.09200e-02
       386        394      1  -0.026954   0.044953     3.00055e-01     6.91943e-02
       386        393      1  -0.026954   0.044953     3.00055e-01     6.91943e-02
       385        389      1   0.010573  -0.002029     3.00055e-01     6.91943e-02
       385        388      1   0.010573   0.017026     2.60142e-01     2.09200e-02
       385        387      1   0.010573   0.017026     2.60142e-01     2.09200e-02
       384        389      1   0.010573  -0.002029     3.00055e-01     6.91943e-02
       384        388      1   0.010573   0.017026     2.60142e-01     2.09200e-02
       384        387      1   0.010573   0.017026     2.60142e-01     2.09200e-02
       383        391      1  -0.016521   0.015716     3.00055e-01     6.91943e-02
       383        390      1  -0.016521   0.015716     3.00055e-01     6.91943e-02
       382        386      1   0.011511  -0.022462     3.00055e-01     6.91943e-02
       382        384      1   0.011511   0.008811     2.60142e-01     2.09200e-02
       382        385      1   0.011511   0.008811     2.60142e-01     2.09200e-02
       381        386      1   0.011511  -0.022462     3.00055e-01     6.91943e-02
       381        384      1   0.011511   0.008811     2.60142e-01     2.09200e-02
       381        385      1   0.011511   0.008811     2.60142e-01     2.09200e-02
       380        388      1  -0.027812   0.017026     3.00055e-01     6.91943e-02
       380        387      1  -0.027812   0.017026     3.00055e-01     6.91943e-02
       379        383      1   0.006833  -0.013767     3.00055e-01     6.91943e-02
       379        381      1   0.006833   0.009592     2.60142e-01     2.09200e-02
       379        382      1   0.006833   0.009592     2.60142e-01     2.09200e-02
       378        383      1   0.006833  -0.013767     3.00055e-01     6.91943e-02
       378        381      1   0.006833   0.009592     2.60142e-01     2.09200e-02
       378        382      1   0.006833   0.009592     2.60142e-01     2.09200e-02
       377        384      1  -0.004386   0.008811     3.00055e-01     6.91943e-02
       377        385      1  -0.004386   0.008811     3.00055e-01     6.91943e-02
       376        380      1   0.011241  -0.023177     3.00055e-01     6.91943e-02
       376        378      1   0.011241   0.005694     2.60142e-01     2.09200e-02
       376        379      1   0.011241   0.005694     2.60142e-01     2.09200e-02
       375        380      1   0.011241  -0.023177     3.00055e-01     6.91943e-02
       375        378      1   0.011241   0.005694     2.60142e-01     2.09200e-02
       375        379      1   0.011241   0.005694     2.60142e-01     2.09200e-02
       374        381      1  -0.026451   0.009592     3.00055e-01     6.91943e-02
       374        382      1  -0.026451   0.009592     3.00055e-01     6.91943e-02
       373        377      1   0.010172  -0.003655     3.00055e-01     6.91943e-02
       373        376      1   0.010172   0.009367     2.60142e-01     2.09200e-02
       373        375      1   0.010172   0.009367     2.60142e-01     2.09200e-02
       372        377      1   0.010172  -0.003655     3.00055e-01     6.91943e-02
       372        376      1   0.010172   0.009367     2.60142e-01     2.09200e-02
       372        375      1   0.010172   0.009367     2.60142e-01     2.09200e-02
       371        378      1  -0.014653   0.005694     3.00055e-01     6.91943e-02
       371        379      1  -0.014653   0.005694     3.00055e-01     6.91943e-02
       370        374      1   0.010037  -0.022042     3.00055e-01     6.91943e-02
       370        372      1   0.010037   0.008477     2.60142e-01     2.09200e-02
       370        373      1   0.010037   0.008477     2.60142e-01     2.09200e-02
       369        374      1   0.010037  -0.022042     3.00055e-01     6.91943e-02
       369        372      1   0.010037   0.008477     2.60142e-01     2.09200e-02
       369        373      1   0.010037   0.008477     2.60142e-01     2.09200e-02
       368        376      1  -0.021025   0.009367     3.00055e-01     6.91943e-02
       368        375      1  -0.021025   0.009367     3.00055e-01     6.91943e-02
       367        371      1   0.012677  -0.012211     3.00055e-01     6.91943e-02
       367        370      1   0.012677   0.008364     2.60142e-01     2.09200e-02
       367        369      1   0.012677   0.008364     2.60142e-01     2.09200e-02
       366        371      1   0.012677  -0.012211     3.00055e-01     6.91943e-02
       366        370      1   0.012677   0.008364     2.60142e-01     2.09200e-02
       366        369      1   0.012677   0.008364     2.60142e-01     2.09200e-02
       365        372      1  -0.031787   0.008477     3.00055e-01     6.91943e-02
       365        373      1  -0.031787   0.008477     3.00055e-01     6.91943e-02
       364        368      1   0.017208  -0.017521     3.00055e-01     6.91943e-02
       364        366      1   0.017208   0.010564     2.60142e-01     2.09200e-02
       364        367      1   0.017208   0.010564     2.60142e-01     2.09200e-02
       363        368      1   0.017208  -0.017521     3.00055e-01     6.91943e-02
       363        366      1   0.017208   0.010564     2.60142e-01     2.09200e-02
       363        367      1   0.017208   0.010564     2.60142e-01     2.09200e-02
       362        370      1  -0.028094   0.008364     3.00055e-01     6.91943e-02
       362        369      1  -0.028094   0.008364     3.00055e-01     6.91943e-02
       361        365      1   0.007531  -0.026489     3.00055e-01     6.91943e-02
       361        364      1   0.007531   0.014340     2.60142e-01     2.09200e-02
       361        363      1   0.007531   0.014340     2.60142e-01     2.09200e-02
       360        365      1   0.007531  -0.026489     3.00055e-01     6.91943e-02
       360        364      1   0.007531   0.014340     2.60142e-01     2.09200e-02
       360        363      1   0.007531   0.014340     2.60142e-01     2.09200e-02
       359        366      1   0.017463   0.010564     3.00055e-01     6.91943e-02
       359        367      1   0.017463   0.010564     3.00055e-01     6.91943e-02
       358        362      1   0.025511  -0.023412     3.00055e-01     6.91943e-02
       358        360      1   0.025511   0.006276     2.60142e-01     2.09200e-02
       358        361      1   0.025511   0.006276     2.60142e-01     2.09200e-02
       357        362      1   0.025511  -0.023412     3.00055e-01     6.91943e-02
       357        360      1   0.025511   0.006276     2.60142e-01     2.09200e-02
       357        361      1   0.025511   0.006276     2.60142e-01     2.09200e-02
       356        364      1  -0.111712   0.014340     3.00055e-01     6.91943e-02
       356        363      1  -0.111712   0.014340     3.00055e-01     6.91943e-02
       355        362      1   0.025511  -0.023412     3.00055e-01     6.91943e-02
       355        360      1   0.025511   0.006276     2.60142e-01     2.09200e-02
       355        361      1   0.025511   0.006276     2.60142e-01     2.09200e-02
       432        472      1  -0.673755   0.044953     2.78067e-01     9.58675e-02
       432        471      1  -0.673755   0.044953     2.78067e-01     9.58675e-02
       431        469      1   0.897613   0.015716     3.00055e-01     6.13495e-02
       431        468      1   0.897613   0.015716     3.00055e-01     6.13495e-02
       430        472      1  -0.552948   0.044953     2.80072e-01     8.62554e-02
       430        471      1  -0.552948   0.044953     2.80072e-01     8.62554e-02
       423        424      1   0.172230  -0.282478     2.67982e-01     8.67002e-02
       422        424      1   0.172230  -0.282478     2.67982e-01     8.67002e-02
       421        424      1   0.172230  -0.282478     2.67982e-01     8.67002e-02
       420        425      1  -0.338973   0.143525     2.67982e-01     8.67002e-02
       420        426      1  -0.338973   0.143525     2.67982e-01     8.67002e-02
       420        427      1  -0.338973   0.143525     2.67982e-01     8.67002e-02
       419        420      1   0.172230  -0.282478     2.67982e-01     8.67002e-02
       419        424      1   0.172230  -0.282478     2.67982e-01     8.67002e-02
       418        420      1   0.172230  -0.282478     2.67982e-01     8.67002e-02
       418        424      1   0.172230  -0.282478     2.67982e-01     8.67002e-02
       417        420      1   0.172230  -0.282478     2.67982e-01     8.67002e-02
       417        424      1   0.172230  -0.282478     2.67982e-01     8.67002e-02
       416        421      1  -0.338973   0.143525     2.67982e-01     8.67002e-02
       416        422      1  -0.338973   0.143525     2.67982e-01     8.67002e-02
       416        423      1  -0.338973   0.143525     2.67982e-01     8.67002e-02
       416        425      1  -0.338973   0.143525     2.67982e-01     8.67002e-02
       416        426      1  -0.338973   0.143525     2.67982e-01     8.67002e-02
       416        427      1  -0.338973   0.143525     2.67982e-01     8.67002e-02
       414        416      1   0.136415  -0.282478     2.67982e-01     8.67002e-02
       414        420      1   0.136415  -0.282478     2.67982e-01     8.67002e-02
       414        424      1   0.136415  -0.282478     2.67982e-01     8.67002e-02
       413        416      1   0.136415  -0.282478     2.67982e-01     8.67002e-02
       413        420      1   0.136415  -0.282478     2.67982e-01     8.67002e-02
       413        424      1   0.136415  -0.282478     2.67982e-01     8.67002e-02
       412        417      1  -0.170824   0.143525     2.67982e-01     8.67002e-02
       412        418      1  -0.170824   0.143525     2.67982e-01     8.67002e-02
       412        419      1  -0.170824   0.143525     2.67982e-01     8.67002e-02
       412        421      1  -0.170824   0.143525     2.67982e-01     8.67002e-02
       412        422      1  -0.170824   0.143525     2.67982e-01     8.67002e-02
       412        423      1  -0.170824   0.143525     2.67982e-01     8.67002e-02
       412        425      1  -0.170824   0.143525     2.67982e-01     8.67002e-02
       412        426      1  -0.170824   0.143525     2.67982e-01     8.67002e-02
       412        427      1  -0.170824   0.143525     2.67982e-01     8.67002e-02
       411        413      1   0.078534   0.113679     2.21567e-01     3.28444e-02
       411        414      1   0.078534   0.113679     2.21567e-01     3.28444e-02
       411        415      1   0.078534   0.204385     2.86068e-01     1.08078e-01
       410        413      1   0.078534   0.113679     2.21567e-01     3.28444e-02
       410        414      1   0.078534   0.113679     2.21567e-01     3.28444e-02
       410        415      1   0.078534   0.204385     2.86068e-01     1.08078e-01
       408        413      1  -0.508176   0.113679     2.47999e-01     1.08078e-01
       408        414      1  -0.508176   0.113679     2.47999e-01     1.08078e-01
       407        410      1   1.339721   0.065445     3.10656e-01     1.17227e-01
       407        411      1   1.339721   0.065445     3.10656e-01     1.17227e-01
       405        430      1   0.095591  -0.460790     2.73568e-01     1.08078e-01
       405        407      1   0.095591   1.116434     3.10656e-01     1.17227e-01
       404        430      1   0.095591  -0.460790     2.73568e-01     1.08078e-01
       404        407      1   0.095591   1.116434     3.10656e-01     1.17227e-01
       402        404      1   0.063253   0.079659     2.47135e-01     3.28444e-02
       402        405      1   0.063253   0.079659     2.47135e-01     3.28444e-02
       402        406      1   0.063253  -0.424567     2.73568e-01     1.08078e-01
       402        431      1   0.063253   0.748011     2.93551e-01     7.68707e-02
       400        402      1   0.070469   0.052711     2.47135e-01     3.28444e-02
       400        403      1   0.070469   0.014549     2.93551e-01     8.67002e-02
       400        430      1   0.070469  -0.460790     2.73568e-01     1.08078e-01
       399        402      1   0.070469   0.052711     2.47135e-01     3.28444e-02
       399        403      1   0.070469   0.014549     2.93551e-01     8.67002e-02
       399        430      1   0.070469  -0.460790     2.73568e-01     1.08078e-01
       398        404      1   0.196939   0.079659     2.93551e-01     8.67002e-02
       398        405      1   0.196939   0.079659     2.93551e-01     8.67002e-02
       397        402      1  -0.575489   0.052711     2.73568e-01     1.08078e-01
       395        399      1   0.910403   0.058724     2.93551e-01     7.68707e-02
       395        400      1   0.910403   0.058724     2.93551e-01     7.68707e-02
       469        472      1   0.018859   0.044953     2.60142e-01     2.09200e-02
       469        471      1   0.018859   0.044953     2.60142e-01     2.09200e-02
       468        472      1   0.018859   0.044953     2.60142e-01     2.09200e-02
       468        471      1   0.018859   0.044953     2.60142e-01     2.09200e-02
       466        470      1   0.020431  -0.136833     3.00055e-01     6.91943e-02
       466        469      1   0.020431   0.015716     2.60142e-01     2.09200e-02
       466        468      1   0.020431   0.015716     2.60142e-01     2.09200e-02
       465        470      1   0.020431  -0.136833     3.00055e-01     6.91943e-02
       465        469      1   0.020431   0.015716     2.60142e-01     2.09200e-02
       465        468      1   0.020431   0.015716     2.60142e-01     2.09200e-02
       464        472      1  -0.026954   0.044953     3.00055e-01     6.91943e-02
       464        471      1  -0.026954   0.044953     3.00055e-01     6.91943e-02
       463        467      1   0.010573  -0.002029     3.00055e-01     6.91943e-02
       463        466      1   0.010573   0.017026     2.60142e-01     2.09200e-02
       463        465      1   0.010573   0.017026     2.60142e-01     2.09200e-02
       462        467      1   0.010573  -0.002029     3.00055e-01     6.91943e-02
       462        466      1   0.010573   0.017026     2.60142e-01     2.09200e-02
       462        465      1   0.010573   0.017026     2.60142e-01     2.09200e-02
       461        469      1  -0.016521   0.015716     3.00055e-01     6.91943e-02
       461        468      1  -0.016521   0.015716     3.00055e-01     6.91943e-02
       460        464      1   0.011511  -0.022462     3.00055e-01     6.91943e-02
       460        462      1   0.011511   0.008811     2.60142e-01     2.09200e-02
       460        463      1   0.011511   0.008811     2.60142e-01     2.09200e-02
       459        464      1   0.011511  -0.022462     3.00055e-01     6.91943e-02
       459        462      1   0.011511   0.008811     2.60142e-01     2.09200e-02
       459        463      1   0.011511   0.008811     2.60142e-01     2.09200e-02
       458        466      1  -0.027812   0.017026     3.00055e-01     6.91943e-02
       458        465      1  -0.027812   0.017026     3.00055e-01     6.91943e-02
       457        461      1   0.006833  -0.013767     3.00055e-01     6.91943e-02
       457        459      1   0.006833   0.009592     2.60142e-01     2.09200e-02
       457        460      1   0.006833   0.009592     2.60142e-01     2.09200e-02
       456        461      1   0.006833  -0.013767     3.00055e-01     6.91943e-02
       456        459      1   0.006833   0.009592     2.60142e-01     2.09200e-02
       456        460      1   0.006833   0.009592     2.60142e-01     2.09200e-02
       455        462      1  -0.004386   0.008811     3.00055e-01     6.91943e-02
       455        463      1  -0.004386   0.008811     3.00055e-01     6.91943e-02
       454        458      1   0.011241  -0.023177     3.00055e-01     6.91943e-02
       454        456      1   0.011241   0.005694     2.60142e-01     2.09200e-02
       454        457      1   0.011241   0.005694     2.60142e-01     2.09200e-02
       453        458      1   0.011241  -0.023177     3.00055e-01     6.91943e-02
       453        456      1   0.011241   0.005694     2.60142e-01     2.09200e-02
       453        457      1   0.011241   0.005694     2.60142e-01     2.09200e-02
       452        459      1  -0.026451   0.009592     3.00055e-01     6.91943e-02
       452        460      1  -0.026451   0.009592     3.00055e-01     6.91943e-02
       451        455      1   0.010172  -0.003655     3.00055e-01     6.91943e-02
       451        454      1   0.010172   0.009367     2.60142e-01     2.09200e-02
       451        453      1   0.010172   0.009367     2.60142e-01     2.09200e-02
       450        455      1   0.010172  -0.003655     3.00055e-01     6.91943e-02
       450        454      1   0.010172   0.009367     2.60142e-01     2.09200e-02
       450        453      1   0.010172   0.009367     2.60142e-01     2.09200e-02
       449        456      1  -0.014653   0.005694     3.00055e-01     6.91943e-02
       449        457      1  -0.014653   0.005694     3.00055e-01     6.91943e-02
       448        452      1   0.010037  -0.022042     3.00055e-01     6.91943e-02
       448        450      1   0.010037   0.008477     2.60142e-01     2.09200e-02
       448        451      1   0.010037   0.008477     2.60142e-01     2.09200e-02
       447        452      1   0.010037  -0.022042     3.00055e-01     6.91943e-02
       447        450      1   0.010037   0.008477     2.60142e-01     2.09200e-02
       447        451      1   0.010037   0.008477     2.60142e-01     2.09200e-02
       446        454      1  -0.021025   0.009367     3.00055e-01     6.91943e-02
       446        453      1  -0.021025   0.009367     3.00055e-01     6.91943e-02
       445        449      1   0.012677  -0.012211     3.00055e-01     6.91943e-02
       445        448      1   0.012677   0.008364     2.60142e-01     2.09200e-02
       445        447      1   0.012677   0.008364     2.60142e-01     2.09200e-02
       444        449      1   0.012677  -0.012211     3.00055e-01     6.91943e-02
       444        448      1   0.012677   0.008364     2.60142e-01     2.09200e-02
       444        447      1   0.012677   0.008364     2.60142e-01     2.09200e-02
       443        450      1  -0.031787   0.008477     3.00055e-01     6.91943e-02
       443        451      1  -0.031787   0.008477     3.00055e-01     6.91943e-02
       442        446      1   0.017208  -0.017521     3.00055e-01     6.91943e-02
       442        444      1   0.017208   0.010564     2.60142e-01     2.09200e-02
       442        445      1   0.017208   0.010564     2.60142e-01     2.09200e-02
       441        446      1   0.017208  -0.017521     3.00055e-01     6.91943e-02
       441        444      1   0.017208   0.010564     2.60142e-01     2.09200e-02
       441        445      1   0.017208   0.010564     2.60142e-01     2.09200e-02
       440        448      1  -0.028094   0.008364     3.00055e-01     6.91943e-02
       440        447      1  -0.028094   0.008364     3.00055e-01     6.91943e-02
       439        443      1   0.007531  -0.026489     3.00055e-01     6.91943e-02
       439        442      1   0.007531   0.014340     2.60142e-01     2.09200e-02
       439        441      1   0.007531   0.014340     2.60142e-01     2.09200e-02
       438        443      1   0.007531  -0.026489     3.00055e-01     6.91943e-02
       438        442      1   0.007531   0.014340     2.60142e-01     2.09200e-02
       438        441      1   0.007531   0.014340     2.60142e-01     2.09200e-02
       437        444      1   0.017463   0.010564     3.00055e-01     6.91943e-02
       437        445      1   0.017463   0.010564     3.00055e-01     6.91943e-02
       436        440      1   0.025511  -0.023412     3.00055e-01     6.91943e-02
       436        438      1   0.025511   0.006276     2.60142e-01     2.09200e-02
       436        439      1   0.025511   0.006276     2.60142e-01     2.09200e-02
       435        440      1   0.025511  -0.023412     3.00055e-01     6.91943e-02
       435        438      1   0.025511   0.006276     2.60142e-01     2.09200e-02
       435        439      1   0.025511   0.006276     2.60142e-01     2.09200e-02
       434        442      1  -0.111712   0.014340     3.00055e-01     6.91943e-02
       434        441      1  -0.111712   0.014340     3.00055e-01     6.91943e-02
       433        440      1   0.025511  -0.023412     3.00055e-01     6.91943e-02
       433        438      1   0.025511   0.006276     2.60142e-01     2.09200e-02
       433        439      1   0.025511   0.006276     2.60142e-01     2.09200e-02
       512        514      1   0.053944  -0.559638     2.78067e-01     9.58675e-02
       512        515      1   0.053944  -0.479574     2.80072e-01     8.62554e-02
       511        514      1   0.053944  -0.559638     2.78067e-01     9.58675e-02
       511        515      1   0.053944  -0.479574     2.80072e-01     8.62554e-02
       509        512      1   0.018859   0.044953     2.60142e-01     2.09200e-02
       509        511      1   0.018859   0.044953     2.60142e-01     2.09200e-02
       509        513      1   0.018859   0.758669     3.00055e-01     6.13495e-02
       508        512      1   0.018859   0.044953     2.60142e-01     2.09200e-02
       508        511      1   0.018859   0.044953     2.60142e-01     2.09200e-02
       508        513      1   0.018859   0.758669     3.00055e-01     6.13495e-02
       506        510      1   0.020431  -0.136833     3.00055e-01     6.91943e-02
       506        509      1   0.020431   0.015716     2.60142e-01     2.09200e-02
       506        508      1   0.020431   0.015716     2.60142e-01     2.09200e-02
       505        510      1   0.020431  -0.136833     3.00055e-01     6.91943e-02
       505        509      1   0.020431   0.015716     2.60142e-01     2.09200e-02
       505        508      1   0.020431   0.015716     2.60142e-01     2.09200e-02
       504        512      1  -0.026954   0.044953     3.00055e-01     6.91943e-02
       504        511      1  -0.026954   0.044953     3.00055e-01     6.91943e-02
       503        507      1   0.010573  -0.002029     3.00055e-01     6.91943e-02
       503        506      1   0.010573   0.017026     2.60142e-01     2.09200e-02
       503        505      1   0.010573   0.017026     2.60142e-01     2.09200e-02
       502        507      1   0.010573  -0.002029     3.00055e-01     6.91943e-02
       502        506      1   0.010573   0.017026     2.60142e-01     2.09200e-02
       502        505      1   0.010573   0.017026     2.60142e-01     2.09200e-02
       501        509      1  -0.016521   0.015716     3.00055e-01     6.91943e-02
       501        508      1  -0.016521   0.015716     3.00055e-01     6.91943e-02
       500        504      1   0.011511  -0.022462     3.00055e-01     6.91943e-02
       500        502      1   0.011511   0.008811     2.60142e-01     2.09200e-02
       500        503      1   0.011511   0.008811     2.60142e-01     2.09200e-02
       499        504      1   0.011511  -0.022462     3.00055e-01     6.91943e-02
       499        502      1   0.011511   0.008811     2.60142e-01     2.09200e-02
       499        503      1   0.011511   0.008811     2.60142e-01     2.09200e-02
       498        506      1  -0.027812   0.017026     3.00055e-01     6.91943e-02
       498        505      1  -0.027812   0.017026     3.00055e-01     6.91943e-02
       497        501      1   0.006833  -0.013767     3.00055e-01     6.91943e-02
       497        499      1   0.006833   0.009592     2.60142e-01     2.09200e-02
       497        500      1   0.006833   0.009592     2.60142e-01     2.09200e-02
       496        501      1   0.006833  -0.013767     3.00055e-01     6.91943e-02
       496        499      1   0.006833   0.009592     2.60142e-01     2.09200e-02
       496        500      1   0.006833   0.009592     2.60142e-01     2.09200e-02
       495        502      1  -0.004386   0.008811     3.00055e-01     6.91943e-02
       495        503      1  -0.004386   0.008811     3.00055e-01     6.91943e-02
       494        498      1   0.011241  -0.023177     3.00055e-01     6.91943e-02
       494        496      1   0.011241   0.005694     2.60142e-01     2.09200e-02
       494        497      1   0.011241   0.005694     2.60142e-01     2.09200e-02
       493        498      1   0.011241  -0.023177     3.00055e-01     6.91943e-02
       493        496      1   0.011241   0.005694     2.60142e-01     2.09200e-02
       493        497      1   0.011241   0.005694     2.60142e-01     2.09200e-02
       492        499      1  -0.026451   0.009592     3.00055e-01     6.91943e-02
       492        500      1  -0.026451   0.009592     3.00055e-01     6.91943e-02
       491        495      1   0.010172  -0.003655     3.00055e-01     6.91943e-02
       491        494      1   0.010172   0.009367     2.60142e-01     2.09200e-02
       491        493      1   0.010172   0.009367     2.60142e-01     2.09200e-02
       490        495      1   0.010172  -0.003655     3.00055e-01     6.91943e-02
       490        494      1   0.010172   0.009367     2.60142e-01     2.09200e-02
       490        493      1   0.010172   0.009367     2.60142e-01     2.09200e-02
       489        496      1  -0.014653   0.005694     3.00055e-01     6.91943e-02
       489        497      1  -0.014653   0.005694     3.00055e-01     6.91943e-02
       488        492      1   0.010037  -0.022042     3.00055e-01     6.91943e-02
       488        490      1   0.010037   0.008477     2.60142e-01     2.09200e-02
       488        491      1   0.010037   0.008477     2.60142e-01     2.09200e-02
       487        492      1   0.010037  -0.022042     3.00055e-01     6.91943e-02
       487        490      1   0.010037   0.008477     2.60142e-01     2.09200e-02
       487        491      1   0.010037   0.008477     2.60142e-01     2.09200e-02
       486        494      1  -0.021025   0.009367     3.00055e-01     6.91943e-02
       486        493      1  -0.021025   0.009367     3.00055e-01     6.91943e-02
       485        489      1   0.012677  -0.012211     3.00055e-01     6.91943e-02
       485        488      1   0.012677   0.008364     2.60142e-01     2.09200e-02
       485        487      1   0.012677   0.008364     2.60142e-01     2.09200e-02
       484        489      1   0.012677  -0.012211     3.00055e-01     6.91943e-02
       484        488      1   0.012677   0.008364     2.60142e-01     2.09200e-02
       484        487      1   0.012677   0.008364     2.60142e-01     2.09200e-02
       483        490      1  -0.031787   0.008477     3.00055e-01     6.91943e-02
       483        491      1  -0.031787   0.008477     3.00055e-01     6.91943e-02
       482        486      1   0.017208  -0.017521     3.00055e-01     6.91943e-02
       482        484      1   0.017208   0.010564     2.60142e-01     2.09200e-02
       482        485      1   0.017208   0.010564     2.60142e-01     2.09200e-02
       481        486      1   0.017208  -0.017521     3.00055e-01     6.91943e-02
       481        484      1   0.017208   0.010564     2.60142e-01     2.09200e-02
       481        485      1   0.017208   0.010564     2.60142e-01     2.09200e-02
       480        488      1  -0.028094   0.008364     3.00055e-01     6.91943e-02
       480        487      1  -0.028094   0.008364     3.00055e-01     6.91943e-02
       479        483      1   0.007531  -0.026489     3.00055e-01     6.91943e-02
       479        482      1   0.007531   0.014340     2.60142e-01     2.09200e-02
       479        481      1   0.007531   0.014340     2.60142e-01     2.09200e-02
       478        483      1   0.007531  -0.026489     3.00055e-01     6.91943e-02
       478        482      1   0.007531   0.014340     2.60142e-01     2.09200e-02
       478        481      1   0.007531   0.014340     2.60142e-01     2.09200e-02
       477        484      1   0.017463   0.010564     3.00055e-01     6.91943e-02
       477        485      1   0.017463   0.010564     3.00055e-01     6.91943e-02
       476        480      1   0.025511  -0.023412     3.00055e-01     6.91943e-02
       476        478      1   0.025511   0.006276     2.60142e-01     2.09200e-02
       476        479      1   0.025511   0.006276     2.60142e-01     2.09200e-02
       475        480      1   0.025511  -0.023412     3.00055e-01     6.91943e-02
       475        478      1   0.025511   0.006276     2.60142e-01     2.09200e-02
       475        479      1   0.025511   0.006276     2.60142e-01     2.09200e-02
       474        482      1  -0.111712   0.014340     3.00055e-01     6.91943e-02
       474        481      1  -0.111712   0.014340     3.00055e-01     6.91943e-02
       473        480      1   0.025511  -0.023412     3.00055e-01     6.91943e-02
       473        478      1   0.025511   0.006276     2.60142e-01     2.09200e-02
       473        479      1   0.025511   0.006276     2.60142e-01     2.09200e-02
       550        590      1  -0.673755   0.044953     2.78067e-01     9.58675e-02
       550        589      1  -0.673755   0.044953     2.78067e-01     9.58675e-02
       549        587      1   0.897613   0.015716     3.00055e-01     6.13495e-02
       549        586      1   0.897613   0.015716     3.00055e-01     6.13495e-02
       548        590      1  -0.552948   0.044953     2.80072e-01     8.62554e-02
       548        589      1  -0.552948   0.044953     2.80072e-01     8.62554e-02
       541        542      1   0.172230  -0.282478     2.67982e-01     8.67002e-02
       540        542      1   0.172230  -0.282478     2.67982e-01     8.67002e-02
       539        542      1   0.172230  -0.282478     2.67982e-01     8.67002e-02
       538        543      1  -0.338973   0.143525     2.67982e-01     8.67002e-02
       538        544      1  -0.338973   0.143525     2.67982e-01     8.67002e-02
       538        545      1  -0.338973   0.143525     2.67982e-01     8.67002e-02
       537        538      1   0.172230  -0.282478     2.67982e-01     8.67002e-02
       537        542      1   0.172230  -0.282478     2.67982e-01     8.67002e-02
       536        538      1   0.172230  -0.282478     2.67982e-01     8.67002e-02
       536        542      1   0.172230  -0.282478     2.67982e-01     8.67002e-02
       535        538      1   0.172230  -0.282478     2.67982e-01     8.67002e-02
       535        542      1   0.172230  -0.282478     2.67982e-01     8.67002e-02
       534        539      1  -0.338973   0.143525     2.67982e-01     8.67002e-02
       534        540      1  -0.338973   0.143525     2.67982e-01     8.67002e-02
       534        541      1  -0.338973   0.143525     2.67982e-01     8.67002e-02
       534        543      1  -0.338973   0.143525     2.67982e-01     8.67002e-02
       534        544      1  -0.338973   0.143525     2.67982e-01     8.67002e-02
       534        545      1  -0.338973   0.143525     2.67982e-01     8.67002e-02
       532        534      1   0.136415  -0.282478     2.67982e-01     8.67002e-02
       532        538      1   0.136415  -0.282478     2.67982e-01     8.67002e-02
       532        542      1   0.136415  -0.282478     2.67982e-01     8.67002e-02
       531        534      1   0.136415  -0.282478     2.67982e-01     8.67002e-02
       531        538      1   0.136415  -0.282478     2.67982e-01     8.67002e-02
       531        542      1   0.136415  -0.282478     2.67982e-01     8.67002e-02
       530        535      1  -0.170824   0.143525     2.67982e-01     8.67002e-02
       530        536      1  -0.170824   0.143525     2.67982e-01     8.67002e-02
       530        537      1  -0.170824   0.143525     2.67982e-01     8.67002e-02
       530        539      1  -0.170824   0.143525     2.67982e-01     8.67002e-02
       530        540      1  -0.170824   0.143525     2.67982e-01     8.67002e-02
       530        541      1  -0.170824   0.143525     2.67982e-01     8.67002e-02
       530        543      1  -0.170824   0.143525     2.67982e-01     8.67002e-02
       530        544      1  -0.170824   0.143525     2.67982e-01     8.67002e-02
       530        545      1  -0.170824   0.143525     2.67982e-01     8.67002e-02
       529        531      1   0.078534   0.113679     2.21567e-01     3.28444e-02
       529        532      1   0.078534   0.113679     2.21567e-01     3.28444e-02
       529        533      1   0.078534   0.204385     2.86068e-01     1.08078e-01
       528        531      1   0.078534   0.113679     2.21567e-01     3.28444e-02
       528        532      1   0.078534   0.113679     2.21567e-01     3.28444e-02
       528        533      1   0.078534   0.204385     2.86068e-01     1.08078e-01
       526        531      1  -0.508176   0.113679     2.47999e-01     1.08078e-01
       526        532      1  -0.508176   0.113679     2.47999e-01     1.08078e-01
       525        528      1   1.339721   0.065445     3.10656e-01     1.17227e-01
       525        529      1   1.339721   0.065445     3.10656e-01     1.17227e-01
       523        548      1   0.095591  -0.460790     2.73568e-01     1.08078e-01
       523        525      1   0.095591   1.116434     3.10656e-01     1.17227e-01
       522        548      1   0.095591  -0.460790     2.73568e-01     1.08078e-01
       522        525      1   0.095591   1.116434     3.10656e-01     1.17227e-01
       520        522      1   0.063253   0.079659     2.47135e-01     3.28444e-02
       520        523      1   0.063253   0.079659     2.47135e-01     3.28444e-02
       520        524      1   0.063253  -0.424567     2.73568e-01     1.08078e-01
       520        549      1   0.063253   0.748011     2.93551e-01     7.68707e-02
       518        520      1   0.070469   0.052711     2.47135e-01     3.28444e-02
       518        521      1   0.070469   0.014549     2.93551e-01     8.67002e-02
       518        548      1   0.070469  -0.460790     2.73568e-01     1.08078e-01
       517        520      1   0.070469   0.052711     2.47135e-01     3.28444e-02
       517        521      1   0.070469   0.014549     2.93551e-01     8.67002e-02
       517        548      1   0.070469  -0.460790     2.73568e-01     1.08078e-01
       516        522      1   0.196939   0.079659     2.93551e-01     8.67002e-02
       516        523      1   0.196939   0.079659     2.93551e-01     8.67002e-02
       515        520      1  -0.575489   0.052711     2.73568e-01     1.08078e-01
       513        517      1   0.910403   0.058724     2.93551e-01     7.68707e-02
       513        518      1   0.910403   0.058724     2.93551e-01     7.68707e-02
       587        590      1   0.018859   0.044953     2.60142e-01     2.09200e-02
       587        589      1   0.018859   0.044953     2.60142e-01     2.09200e-02
       586        590      1   0.018859   0.044953     2.60142e-01     2.09200e-02
       586        589      1   0.018859   0.044953     2.60142e-01     2.09200e-02
       584        588      1   0.020431  -0.136833     3.00055e-01     6.91943e-02
       584        587      1   0.020431   0.015716     2.60142e-01     2.09200e-02
       584        586      1   0.020431   0.015716     2.60142e-01     2.09200e-02
       583        588      1   0.020431  -0.136833     3.00055e-01     6.91943e-02
       583        587      1   0.020431   0.015716     2.60142e-01     2.09200e-02
       583        586      1   0.020431   0.015716     2.60142e-01     2.09200e-02
       582        590      1  -0.026954   0.044953     3.00055e-01     6.91943e-02
       582        589      1  -0.026954   0.044953     3.00055e-01     6.91943e-02
       581        585      1   0.010573  -0.002029     3.00055e-01     6.91943e-02
       581        584      1   0.010573   0.017026     2.60142e-01     2.09200e-02
       581        583      1   0.010573   0.017026     2.60142e-01     2.09200e-02
       580        585      1   0.010573  -0.002029     3.00055e-01     6.91943e-02
       580        584      1   0.010573   0.017026     2.60142e-01     2.09200e-02
       580        583      1   0.010573   0.017026     2.60142e-01     2.09200e-02
       579        587      1  -0.016521   0.015716     3.00055e-01     6.91943e-02
       579        586      1  -0.016521   0.015716     3.00055e-01     6.91943e-02
       578        582      1   0.011511  -0.022462     3.00055e-01     6.91943e-02
       578        580      1   0.011511   0.008811     2.60142e-01     2.09200e-02
       578        581      1   0.011511   0.008811     2.60142e-01     2.09200e-02
       577        582      1   0.011511  -0.022462     3.00055e-01     6.91943e-02
       577        580      1   0.011511   0.008811     2.60142e-01     2.09200e-02
       577        581      1   0.011511   0.008811     2.60142e-01     2.09200e-02
       576        584      1  -0.027812   0.017026     3.00055e-01     6.91943e-02
       576        583      1  -0.027812   0.017026     3.00055e-01     6.91943e-02
       575        579      1   0.006833  -0.013767     3.00055e-01     6.91943e-02
       575        577      1   0.006833   0.009592     2.60142e-01     2.09200e-02
       575        578      1   0.006833   0.009592     2.60142e-01     2.09200e-02
       574        579      1   0.006833  -0.013767     3.00055e-01     6.91943e-02
       574        577      1   0.006833   0.009592     2.60142e-01     2.09200e-02
       574        578      1   0.006833   0.009592     2.60142e-01     2.09200e-02
       573        580      1  -0.004386   0.008811     3.00055e-01     6.91943e-02
       573        581      1  -0.004386   0.008811     3.00055e-01     6.91943e-02
       572        576      1   0.011241  -0.023177     3.00055e-01     6.91943e-02
       572        574      1   0.011241   0.005694     2.60142e-01     2.09200e-02
       572        575      1   0.011241   0.005694     2.60142e-01     2.09200e-02
       571        576      1   0.011241  -0.023177     3.00055e-01     6.91943e-02
       571        574      1   0.011241   0.005694     2.60142e-01     2.09200e-02
       571        575      1   0.011241   0.005694     2.60142e-01     2.09200e-02
       570        577      1  -0.026451   0.009592     3.00055e-01     6.91943e-02
       570        578      1  -0.026451   0.009592     3.00055e-01     6.91943e-02
       569        573      1   0.010172  -0.003655     3.00055e-01     6.91943e-02
       569        572      1   0.010172   0.009367     2.60142e-01     2.09200e-02
       569        571      1   0.010172   0.009367     2.60142e-01     2.09200e-02
       568        573      1   0.010172  -0.003655     3.00055e-01     6.91943e-02
       568        572      1   0.010172   0.009367     2.60142e-01     2.09200e-02
       568        571      1   0.010172   0.009367     2.60142e-01     2.09200e-02
       567        574      1  -0.014653   0.005694     3.00055e-01     6.91943e-02
       567        575      1  -0.014653   0.005694     3.00055e-01     6.91943e-02
       566        570      1   0.010037  -0.022042     3.00055e-01     6.91943e-02
       566        568      1   0.010037   0.008477     2.60142e-01     2.09200e-02
       566        569      1   0.010037   0.008477     2.60142e-01     2.09200e-02
       565        570      1   0.010037  -0.022042     3.00055e-01     6.91943e-02
       565        568      1   0.010037   0.008477     2.60142e-01     2.09200e-02
       565        569      1   0.010037   0.008477     2.60142e-01     2.09200e-02
       564        572      1  -0.021025   0.009367     3.00055e-01     6.91943e-02
       564        571      1  -0.021025   0.009367     3.00055e-01     6.91943e-02
       563        567      1   0.012677  -0.012211     3.00055e-01     6.91943e-02
       563        566      1   0.012677   0.008364     2.60142e-01     2.09200e-02
       563        565      1   0.012677   0.008364     2.60142e-01     2.09200e-02
       562        567      1   0.012677  -0.012211     3.00055e-01     6.91943e-02
       562        566      1   0.012677   0.008364     2.60142e-01     2.09200e-02
       562        565      1   0.012677   0.008364     2.60142e-01     2.09200e-02
       561        568      1  -0.031787   0.008477     3.00055e-01     6.91943e-02
       561        569      1  -0.031787   0.008477     3.00055e-01     6.91943e-02
       560        564      1   0.017208  -0.017521     3.00055e-01     6.91943e-02
       560        562      1   0.017208   0.010564     2.60142e-01     2.09200e-02
       560        563      1   0.017208   0.010564     2.60142e-01     2.09200e-02
       559        564      1   0.017208  -0.017521     3.00055e-01     6.91943e-02
       559        562      1   0.017208   0.010564     2.60142e-01     2.09200e-02
       559        563      1   0.017208   0.010564     2.60142e-01     2.09200e-02
       558        566      1  -0.028094   0.008364     3.00055e-01     6.91943e-02
       558        565      1  -0.028094   0.008364     3.00055e-01     6.91943e-02
       557        561      1   0.007531  -0.026489     3.00055e-01     6.91943e-02
       557        560      1   0.007531   0.014340     2.60142e-01     2.09200e-02
       557        559      1   0.007531   0.014340     2.60142e-01     2.09200e-02
       556        561      1   0.007531  -0.026489     3.00055e-01     6.91943e-02
       556        560      1   0.007531   0.014340     2.60142e-01     2.09200e-02
       556        559      1   0.007531   0.014340     2.60142e-01     2.09200e-02
       555        562      1   0.017463   0.010564     3.00055e-01     6.91943e-02
       555        563      1   0.017463   0.010564     3.00055e-01     6.91943e-02
       554        558      1   0.025511  -0.023412     3.00055e-01     6.91943e-02
       554        556      1   0.025511   0.006276     2.60142e-01     2.09200e-02
       554        557      1   0.025511   0.006276     2.60142e-01     2.09200e-02
       553        558      1   0.025511  -0.023412     3.00055e-01     6.91943e-02
       553        556      1   0.025511   0.006276     2.60142e-01     2.09200e-02
       553        557      1   0.025511   0.006276     2.60142e-01     2.09200e-02
       552        560      1  -0.111712   0.014340     3.00055e-01     6.91943e-02
       552        559      1  -0.111712   0.014340     3.00055e-01     6.91943e-02
       551        558      1   0.025511  -0.023412     3.00055e-01     6.91943e-02
       551        556      1   0.025511   0.006276     2.60142e-01     2.09200e-02
       551        557      1   0.025511   0.006276     2.60142e-01     2.09200e-02
       630        632      1   0.053944  -0.559638     2.78067e-01     9.58675e-02
       630        633      1   0.053944  -0.479574     2.80072e-01     8.62554e-02
       629        632      1   0.053944  -0.559638     2.78067e-01     9.58675e-02
       629        633      1   0.053944  -0.479574     2.80072e-01     8.62554e-02
       627        630      1   0.018859   0.044953     2.60142e-01     2.09200e-02
       627        629      1   0.018859   0.044953     2.60142e-01     2.09200e-02
       627        631      1   0.018859   0.758669     3.00055e-01     6.13495e-02
       626        630      1   0.018859   0.044953     2.60142e-01     2.09200e-02
       626        629      1   0.018859   0.044953     2.60142e-01     2.09200e-02
       626        631      1   0.018859   0.758669     3.00055e-01     6.13495e-02
       624        628      1   0.020431  -0.136833     3.00055e-01     6.91943e-02
       624        627      1   0.020431   0.015716     2.60142e-01     2.09200e-02
       624        626      1   0.020431   0.015716     2.60142e-01     2.09200e-02
       623        628      1   0.020431  -0.136833     3.00055e-01     6.91943e-02
       623        627      1   0.020431   0.015716     2.60142e-01     2.09200e-02
       623        626      1   0.020431   0.015716     2.60142e-01     2.09200e-02
       622        630      1  -0.026954   0.044953     3.00055e-01     6.91943e-02
       622        629      1  -0.026954   0.044953     3.00055e-01     6.91943e-02
       621        625      1   0.010573  -0.002029     3.00055e-01     6.91943e-02
       621        624      1   0.010573   0.017026     2.60142e-01     2.09200e-02
       621        623      1   0.010573   0.017026     2.60142e-01     2.09200e-02
       620        625      1   0.010573  -0.002029     3.00055e-01     6.91943e-02
       620        624      1   0.010573   0.017026     2.60142e-01     2.09200e-02
       620        623      1   0.010573   0.017026     2.60142e-01     2.09200e-02
       619        627      1  -0.016521   0.015716     3.00055e-01     6.91943e-02
       619        626      1  -0.016521   0.015716     3.00055e-01     6.91943e-02
       618        622      1   0.011511  -0.022462     3.00055e-01     6.91943e-02
       618        620      1   0.011511   0.008811     2.60142e-01     2.09200e-02
       618        621      1   0.011511   0.008811     2.60142e-01     2.09200e-02
       617        622      1   0.011511  -0.022462     3.00055e-01     6.91943e-02
       617        620      1   0.011511   0.008811     2.60142e-01     2.09200e-02
       617        621      1   0.011511   0.008811     2.60142e-01     2.09200e-02
       616        624      1  -0.027812   0.017026     3.00055e-01     6.91943e-02
       616        623      1  -0.027812   0.017026     3.00055e-01     6.91943e-02
       615        619      1   0.006833  -0.013767     3.00055e-01     6.91943e-02
       615        617      1   0.006833   0.009592     2.60142e-01     2.09200e-02
       615        618      1   0.006833   0.009592     2.60142e-01     2.09200e-02
       614        619      1   0.006833  -0.013767     3.00055e-01     6.91943e-02
       614        617      1   0.006833   0.009592     2.60142e-01     2.09200e-02
       614        618      1   0.006833   0.009592     2.60142e-01     2.09200e-02
       613        620      1  -0.004386   0.008811     3.00055e-01     6.91943e-02
       613        621      1  -0.004386   0.008811     3.00055e-01     6.91943e-02
       612        616      1   0.011241  -0.023177     3.00055e-01     6.91943e-02
       612        614      1   0.011241   0.005694     2.60142e-01     2.09200e-02
       612        615      1   0.011241   0.005694     2.60142e-01     2.09200e-02
       611        616      1   0.011241  -0.023177     3.00055e-01     6.91943e-02
       611        614      1   0.011241   0.005694     2.60142e-01     2.09200e-02
       611        615      1   0.011241   0.005694     2.60142e-01     2.09200e-02
       610        617      1  -0.026451   0.009592     3.00055e-01     6.91943e-02
       610        618      1  -0.026451   0.009592     3.00055e-01     6.91943e-02
       609        613      1   0.010172  -0.003655     3.00055e-01     6.91943e-02
       609        612      1   0.010172   0.009367     2.60142e-01     2.09200e-02
       609        611      1   0.010172   0.009367     2.60142e-01     2.09200e-02
       608        613      1   0.010172  -0.003655     3.00055e-01     6.91943e-02
       608        612      1   0.010172   0.009367     2.60142e-01     2.09200e-02
       608        611      1   0.010172   0.009367     2.60142e-01     2.09200e-02
       607        614      1  -0.014653   0.005694     3.00055e-01     6.91943e-02
       607        615      1  -0.014653   0.005694     3.00055e-01     6.91943e-02
       606        610      1   0.010037  -0.022042     3.00055e-01     6.91943e-02
       606        608      1   0.010037   0.008477     2.60142e-01     2.09200e-02
       606        609      1   0.010037   0.008477     2.60142e-01     2.09200e-02
       605        610      1   0.010037  -0.022042     3.00055e-01     6.91943e-02
       605        608      1   0.010037   0.008477     2.60142e-01     2.09200e-02
       605        609      1   0.010037   0.008477     2.60142e-01     2.09200e-02
       604        612      1  -0.021025   0.009367     3.00055e-01     6.91943e-02
       604        611      1  -0.021025   0.009367     3.00055e-01     6.91943e-02
       603        607      1   0.012677  -0.012211     3.00055e-01     6.91943e-02
       603        606      1   0.012677   0.008364     2.60142e-01     2.09200e-02
       603        605      1   0.012677   0.008364     2.60142e-01     2.09200e-02
       602        607      1   0.012677  -0.012211     3.00055e-01     6.91943e-02
       602        606      1   0.012677   0.008364     2.60142e-01     2.09200e-02
       602        605      1   0.012677   0.008364     2.60142e-01     2.09200e-02
       601        608      1  -0.031787   0.008477     3.00055e-01     6.91943e-02
       601        609      1  -0.031787   0.008477     3.00055e-01     6.91943e-02
       600        604      1   0.017208  -0.017521     3.00055e-01     6.91943e-02
       600        602      1   0.017208   0.010564     2.60142e-01     2.09200e-02
       600        603      1   0.017208   0.010564     2.60142e-01     2.09200e-02
       599        604      1   0.017208  -0.017521     3.00055e-01     6.91943e-02
       599        602      1   0.017208   0.010564     2.60142e-01     2.09200e-02
       599        603      1   0.017208   0.010564     2.60142e-01     2.09200e-02
       598        606      1  -0.028094   0.008364     3.00055e-01     6.91943e-02
       598        605      1  -0.028094   0.008364     3.00055e-01     6.91943e-02
       597        601      1   0.007531  -0.026489     3.00055e-01     6.91943e-02
       597        600      1   0.007531   0.014340     2.60142e-01     2.09200e-02
       597        599      1   0.007531   0.014340     2.60142e-01     2.09200e-02
       596        601      1   0.007531  -0.026489     3.00055e-01     6.91943e-02
       596        600      1   0.007531   0.014340     2.60142e-01     2.09200e-02
       596        599      1   0.007531   0.014340     2.60142e-01     2.09200e-02
       595        602      1   0.017463   0.010564     3.00055e-01     6.91943e-02
       595        603      1   0.017463   0.010564     3.00055e-01     6.91943e-02
       594        598      1   0.025511  -0.023412     3.00055e-01     6.91943e-02
       594        596      1   0.025511   0.006276     2.60142e-01     2.09200e-02
       594        597      1   0.025511   0.006276     2.60142e-01     2.09200e-02
       593        598      1   0.025511  -0.023412     3.00055e-01     6.91943e-02
       593        596      1   0.025511   0.006276     2.60142e-01     2.09200e-02
       593        597      1   0.025511   0.006276     2.60142e-01     2.09200e-02
       592        600      1  -0.111712   0.014340     3.00055e-01     6.91943e-02
       592        599      1  -0.111712   0.014340     3.00055e-01     6.91943e-02
       591        598      1   0.025511  -0.023412     3.00055e-01     6.91943e-02
       591        596      1   0.025511   0.006276     2.60142e-01     2.09200e-02
       591        597      1   0.025511   0.006276     2.60142e-01     2.09200e-02
       668        708      1  -0.673755   0.044953     2.78067e-01     9.58675e-02
       668        707      1  -0.673755   0.044953     2.78067e-01     9.58675e-02
       667        705      1   0.897613   0.015716     3.00055e-01     6.13495e-02
       667        704      1   0.897613   0.015716     3.00055e-01     6.13495e-02
       666        708      1  -0.552948   0.044953     2.80072e-01     8.62554e-02
       666        707      1  -0.552948   0.044953     2.80072e-01     8.62554e-02
       659        660      1   0.172230  -0.282478     2.67982e-01     8.67002e-02
       658        660      1   0.172230  -0.282478     2.67982e-01     8.67002e-02
       657        660      1   0.172230  -0.282478     2.67982e-01     8.67002e-02
       656        661      1  -0.338973   0.143525     2.67982e-01     8.67002e-02
       656        662      1  -0.338973   0.143525     2.67982e-01     8.67002e-02
       656        663      1  -0.338973   0.143525     2.67982e-01     8.67002e-02
       655        656      1   0.172230  -0.282478     2.67982e-01     8.67002e-02
       655        660      1   0.172230  -0.282478     2.67982e-01     8.67002e-02
       654        656      1   0.172230  -0.282478     2.67982e-01     8.67002e-02
       654        660      1   0.172230  -0.282478     2.67982e-01     8.67002e-02
       653        656      1   0.172230  -0.282478     2.67982e-01     8.67002e-02
       653        660      1   0.172230  -0.282478     2.67982e-01     8.67002e-02
       652        657      1  -0.338973   0.143525     2.67982e-01     8.67002e-02
       652        658      1  -0.338973   0.143525     2.67982e-01     8.67002e-02
       652        659      1  -0.338973   0.143525     2.67982e-01     8.67002e-02
       652        661      1  -0.338973   0.143525     2.67982e-01     8.67002e-02
       652        662      1  -0.338973   0.143525     2.67982e-01     8.67002e-02
       652        663      1  -0.338973   0.143525     2.67982e-01     8.67002e-02
       650        652      1   0.136415  -0.282478     2.67982e-01     8.67002e-02
       650        656      1   0.136415  -0.282478     2.67982e-01     8.67002e-02
       650        660      1   0.136415  -0.282478     2.67982e-01     8.67002e-02
       649        652      1   0.136415  -0.282478     2.67982e-01     8.67002e-02
       649        656      1   0.136415  -0.282478     2.67982e-01     8.67002e-02
       649        660      1   0.136415  -0.282478     2.67982e-01     8.67002e-02
       648        653      1  -0.170824   0.143525     2.67982e-01     8.67002e-02
       648        654      1  -0.170824   0.143525     2.67982e-01     8.67002e-02
       648        655      1  -0.170824   0.143525     2.67982e-01     8.67002e-02
       648        657      1  -0.170824   0.143525     2.67982e-01     8.67002e-02
       648        658      1  -0.170824   0.143525     2.67982e-01     8.67002e-02
       648        659      1  -0.170824   0.143525     2.67982e-01     8.67002e-02
       648        661      1  -0.170824   0.143525     2.67982e-01     8.67002e-02
       648        662      1  -0.170824   0.143525     2.67982e-01     8.67002e-02
       648        663      1  -0.170824   0.143525     2.67982e-01     8.67002e-02
       647        649      1   0.078534   0.113679     2.21567e-01     3.28444e-02
       647        650      1   0.078534   0.113679     2.21567e-01     3.28444e-02
       647        651      1   0.078534   0.204385     2.86068e-01     1.08078e-01
       646        649      1   0.078534   0.113679     2.21567e-01     3.28444e-02
       646        650      1   0.078534   0.113679     2.21567e-01     3.28444e-02
       646        651      1   0.078534   0.204385     2.86068e-01     1.08078e-01
       644        649      1  -0.508176   0.113679     2.47999e-01     1.08078e-01
       644        650      1  -0.508176   0.113679     2.47999e-01     1.08078e-01
       643        646      1   1.339721   0.065445     3.10656e-01     1.17227e-01
       643        647      1   1.339721   0.065445     3.10656e-01     1.17227e-01
       641        666      1   0.095591  -0.460790     2.73568e-01     1.08078e-01
       641        643      1   0.095591   1.116434     3.10656e-01     1.17227e-01
       640        666      1   0.095591  -0.460790     2.73568e-01     1.08078e-01
       640        643      1   0.095591   1.116434     3.10656e-01     1.17227e-01
       638        640      1   0.063253   0.079659     2.47135e-01     3.28444e-02
       638        641      1   0.063253   0.079659     2.47135e-01     3.28444e-02
       638        642      1   0.063253  -0.424567     2.73568e-01     1.08078e-01
       638        667      1   0.063253   0.748011     2.93551e-01     7.68707e-02
       636        638      1   0.070469   0.052711     2.47135e-01     3.28444e-02
       636        639      1   0.070469   0.014549     2.93551e-01     8.67002e-02
       636        666      1   0.070469  -0.460790     2.73568e-01     1.08078e-01
       635        638      1   0.070469   0.052711     2.47135e-01     3.28444e-02
       635        639      1   0.070469   0.014549     2.93551e-01     8.67002e-02
       635        666      1   0.070469  -0.460790     2.73568e-01     1.08078e-01
       634        640      1   0.196939   0.079659     2.93551e-01     8.67002e-02
       634        641      1   0.196939   0.079659     2.93551e-01     8.67002e-02
       633        638      1  -0.575489   0.052711     2.73568e-01     1.08078e-01
       631        635      1   0.910403   0.058724     2.93551e-01     7.68707e-02
       631        636      1   0.910403   0.058724     2.93551e-01     7.68707e-02
       705        708      1   0.018859   0.044953     2.60142e-01     2.09200e-02
       705        707      1   0.018859   0.044953     2.60142e-01     2.09200e-02
       704        708      1   0.018859   0.044953     2.60142e-01     2.09200e-02
       704        707      1   0.018859   0.044953     2.60142e-01     2.09200e-02
       702        706      1   0.020431  -0.136833     3.00055e-01     6.91943e-02
       702        705      1   0.020431   0.015716     2.60142e-01     2.09200e-02
       702        704      1   0.020431   0.015716     2.60142e-01     2.09200e-02
       701        706      1   0.020431  -0.136833     3.00055e-01     6.91943e-02
       701        705      1   0.020431   0.015716     2.60142e-01     2.09200e-02
       701        704      1   0.020431   0.015716     2.60142e-01     2.09200e-02
       700        708      1  -0.026954   0.044953     3.00055e-01     6.91943e-02
       700        707      1  -0.026954   0.044953     3.00055e-01     6.91943e-02
       699        703      1   0.010573  -0.002029     3.00055e-01     6.91943e-02
       699        702      1   0.010573   0.017026     2.60142e-01     2.09200e-02
       699        701      1   0.010573   0.017026     2.60142e-01     2.09200e-02
       698        703      1   0.010573  -0.002029     3.00055e-01     6.91943e-02
       698        702      1   0.010573   0.017026     2.60142e-01     2.09200e-02
       698        701      1   0.010573   0.017026     2.60142e-01     2.09200e-02
       697        705      1  -0.016521   0.015716     3.00055e-01     6.91943e-02
       697        704      1  -0.016521   0.015716     3.00055e-01     6.91943e-02
       696        700      1   0.011511  -0.022462     3.00055e-01     6.91943e-02
       696        698      1   0.011511   0.008811     2.60142e-01     2.09200e-02
       696        699      1   0.011511   0.008811     2.60142e-01     2.09200e-02
       695        700      1   0.011511  -0.022462     3.00055e-01     6.91943e-02
       695        698      1   0.011511   0.008811     2.60142e-01     2.09200e-02
       695        699      1   0.011511   0.008811     2.60142e-01     2.09200e-02
       694        702      1  -0.027812   0.017026     3.00055e-01     6.91943e-02
       694        701      1  -0.027812   0.017026     3.00055e-01     6.91943e-02
       693        697      1   0.006833  -0.013767     3.00055e-01     6.91943e-02
       693        695      1   0.006833   0.009592     2.60142e-01     2.09200e-02
       693        696      1   0.006833   0.009592     2.60142e-01     2.09200e-02
       692        697      1   0.006833  -0.013767     3.00055e-01     6.91943e-02
       692        695      1   0.006833   0.009592     2.60142e-01     2.09200e-02
       692        696      1   0.006833   0.009592     2.60142e-01     2.09200e-02
       691        698      1  -0.004386   0.008811     3.00055e-01     6.91943e-02
       691        699      1  -0.004386   0.008811     3.00055e-01     6.91943e-02
       690        694      1   0.011241  -0.023177     3.00055e-01     6.91943e-02
       690        692      1   0.011241   0.005694     2.60142e-01     2.09200e-02
       690        693      1   0.011241   0.005694     2.60142e-01     2.09200e-02
       689        694      1   0.011241  -0.023177     3.00055e-01     6.91943e-02
       689        692      1   0.011241   0.005694     2.60142e-01     2.09200e-02
       689        693      1   0.011241   0.005694     2.60142e-01     2.09200e-02
       688        695      1  -0.026451   0.009592     3.00055e-01     6.91943e-02
       688        696      1  -0.026451   0.009592     3.00055e-01     6.91943e-02
       687        691      1   0.010172  -0.003655     3.00055e-01     6.91943e-02
       687        690      1   0.010172   0.009367     2.60142e-01     2.09200e-02
       687        689      1   0.010172   0.009367     2.60142e-01     2.09200e-02
       686        691      1   0.010172  -0.003655     3.00055e-01     6.91943e-02
       686        690      1   0.010172   0.009367     2.60142e-01     2.09200e-02
       686        689      1   0.010172   0.009367     2.60142e-01     2.09200e-02
       685        692      1  -0.014653   0.005694     3.00055e-01     6.91943e-02
       685        693      1  -0.014653   0.005694     3.00055e-01     6.91943e-02
       684        688      1   0.010037  -0.022042     3.00055e-01     6.91943e-02
       684        686      1   0.010037   0.008477     2.60142e-01     2.09200e-02
       684        687      1   0.010037   0.008477     2.60142e-01     2.09200e-02
       683        688      1   0.010037  -0.022042     3.00055e-01     6.91943e-02
       683        686      1   0.010037   0.008477     2.60142e-01     2.09200e-02
       683        687      1   0.010037   0.008477     2.60142e-01     2.09200e-02
       682        690      1  -0.021025   0.009367     3.00055e-01     6.91943e-02
       682        689      1  -0.021025   0.009367     3.00055e-01     6.91943e-02
       681        685      1   0.012677  -0.012211     3.00055e-01     6.91943e-02
       681        684      1   0.012677   0.008364     2.60142e-01     2.09200e-02
       681        683      1   0.012677   0.008364     2.60142e-01     2.09200e-02
       680        685      1   0.012677  -0.012211     3.00055e-01     6.91943e-02
       680        684      1   0.012677   0.008364     2.60142e-01     2.09200e-02
       680        683      1   0.012677   0.008364     2.60142e-01     2.09200e-02
       679        686      1  -0.031787   0.008477     3.00055e-01     6.91943e-02
       679        687      1  -0.031787   0.008477     3.00055e-01     6.91943e-02
       678        682      1   0.017208  -0.017521     3.00055e-01     6.91943e-02
       678        680      1   0.017208   0.010564     2.60142e-01     2.09200e-02
       678        681      1   0.017208   0.010564     2.60142e-01     2.09200e-02
       677        682      1   0.017208  -0.017521     3.00055e-01     6.91943e-02
       677        680      1   0.017208   0.010564     2.60142e-01     2.09200e-02
       677        681      1   0.017208   0.010564     2.60142e-01     2.09200e-02
       676        684      1  -0.028094   0.008364     3.00055e-01     6.91943e-02
       676        683      1  -0.028094   0.008364     3.00055e-01     6.91943e-02
       675        679      1   0.007531  -0.026489     3.00055e-01     6.91943e-02
       675        678      1   0.007531   0.014340     2.60142e-01     2.09200e-02
       675        677      1   0.007531   0.014340     2.60142e-01     2.09200e-02
       674        679      1   0.007531  -0.026489     3.00055e-01     6.91943e-02
       674        678      1   0.007531   0.014340     2.60142e-01     2.09200e-02
       674        677      1   0.007531   0.014340     2.60142e-01     2.09200e-02
       673        680      1   0.017463   0.010564     3.00055e-01     6.91943e-02
       673        681      1   0.017463   0.010564     3.00055e-01     6.91943e-02
       672        676      1   0.025511  -0.023412     3.00055e-01     6.91943e-02
       672        674      1   0.025511   0.006276     2.60142e-01     2.09200e-02
       672        675      1   0.025511   0.006276     2.60142e-01     2.09200e-02
       671        676      1   0.025511  -0.023412     3.00055e-01     6.91943e-02
       671        674      1   0.025511   0.006276     2.60142e-01     2.09200e-02
       671        675      1   0.025511   0.006276     2.60142e-01     2.09200e-02
       670        678      1  -0.111712   0.014340     3.00055e-01     6.91943e-02
       670        677      1  -0.111712   0.014340     3.00055e-01     6.91943e-02
       669        676      1   0.025511  -0.023412     3.00055e-01     6.91943e-02
       669        674      1   0.025511   0.006276     2.60142e-01     2.09200e-02
       669        675      1   0.025511   0.006276     2.60142e-01     2.09200e-02
       748        750      1   0.053944  -0.559638     2.78067e-01     9.58675e-02
       748        751      1   0.053944  -0.479574     2.80072e-01     8.62554e-02
       747        750      1   0.053944  -0.559638     2.78067e-01     9.58675e-02
       747        751      1   0.053944  -0.479574     2.80072e-01     8.62554e-02
       745        748      1   0.018859   0.044953     2.60142e-01     2.09200e-02
       745        747      1   0.018859   0.044953     2.60142e-01     2.09200e-02
       745        749      1   0.018859   0.758669     3.00055e-01     6.13495e-02
       744        748      1   0.018859   0.044953     2.60142e-01     2.09200e-02
       744        747      1   0.018859   0.044953     2.60142e-01     2.09200e-02
       744        749      1   0.018859   0.758669     3.00055e-01     6.13495e-02
       742        746      1   0.020431  -0.136833     3.00055e-01     6.91943e-02
       742        745      1   0.020431   0.015716     2.60142e-01     2.09200e-02
       742        744      1   0.020431   0.015716     2.60142e-01     2.09200e-02
       741        746      1   0.020431  -0.136833     3.00055e-01     6.91943e-02
       741        745      1   0.020431   0.015716     2.60142e-01     2.09200e-02
       741        744      1   0.020431   0.015716     2.60142e-01     2.09200e-02
       740        748      1  -0.026954   0.044953     3.00055e-01     6.91943e-02
       740        747      1  -0.026954   0.044953     3.00055e-01     6.91943e-02
       739        743      1   0.010573  -0.002029     3.00055e-01     6.91943e-02
       739        742      1   0.010573   0.017026     2.60142e-01     2.09200e-02
       739        741      1   0.010573   0.017026     2.60142e-01     2.09200e-02
       738        743      1   0.010573  -0.002029     3.00055e-01     6.91943e-02
       738        742      1   0.010573   0.017026     2.60142e-01     2.09200e-02
       738        741      1   0.010573   0.017026     2.60142e-01     2.09200e-02
       737        745      1  -0.016521   0.015716     3.00055e-01     6.91943e-02
       737        744      1  -0.016521   0.015716     3.00055e-01     6.91943e-02
       736        740      1   0.011511  -0.022462     3.00055e-01     6.91943e-02
       736        738      1   0.011511   0.008811     2.60142e-01     2.09200e-02
       736        739      1   0.011511   0.008811     2.60142e-01     2.09200e-02
       735        740      1   0.011511  -0.022462     3.00055e-01     6.91943e-02
       735        738      1   0.011511   0.008811     2.60142e-01     2.09200e-02
       735        739      1   0.011511   0.008811     2.60142e-01     2.09200e-02
       734        742      1  -0.027812   0.017026     3.00055e-01     6.91943e-02
       734        741      1  -0.027812   0.017026     3.00055e-01     6.91943e-02
       733        737      1   0.006833  -0.013767     3.00055e-01     6.91943e-02
       733        735      1   0.006833   0.009592     2.60142e-01     2.09200e-02
       733        736      1   0.006833   0.009592     2.60142e-01     2.09200e-02
       732        737      1   0.006833  -0.013767     3.00055e-01     6.91943e-02
       732        735      1   0.006833   0.009592     2.60142e-01     2.09200e-02
       732        736      1   0.006833   0.009592     2.60142e-01     2.09200e-02
       731        738      1  -0.004386   0.008811     3.00055e-01     6.91943e-02
       731        739      1  -0.004386   0.008811     3.00055e-01     6.91943e-02
       730        734      1   0.011241  -0.023177     3.00055e-01     6.91943e-02
       730        732      1   0.011241   0.005694     2.60142e-01     2.09200e-02
       730        733      1   0.011241   0.005694     2.60142e-01     2.09200e-02
       729        734      1   0.011241  -0.023177     3.00055e-01     6.91943e-02
       729        732      1   0.011241   0.005694     2.60142e-01     2.09200e-02
       729        733      1   0.011241   0.005694     2.60142e-01     2.09200e-02
       728        735      1  -0.026451   0.009592     3.00055e-01     6.91943e-02
       728        736      1  -0.026451   0.009592     3.00055e-01     6.91943e-02
       727        731      1   0.010172  -0.003655     3.00055e-01     6.91943e-02
       727        730      1   0.010172   0.009367     2.60142e-01     2.09200e-02
       727        729      1   0.010172   0.009367     2.60142e-01     2.09200e-02
       726        731      1   0.010172  -0.003655     3.00055e-01     6.91943e-02
       726        730      1   0.010172   0.009367     2.60142e-01     2.09200e-02
       726        729      1   0.010172   0.009367     2.60142e-01     2.09200e-02
       725        732      1  -0.014653   0.005694     3.00055e-01     6.91943e-02
       725        733      1  -0.014653   0.005694     3.00055e-01     6.91943e-02
       724        728      1   0.010037  -0.022042     3.00055e-01     6.91943e-02
       724        726      1   0.010037   0.008477     2.60142e-01     2.09200e-02
       724        727      1   0.010037   0.008477     2.60142e-01     2.09200e-02
       723        728      1   0.010037  -0.022042     3.00055e-01     6.91943e-02
       723        726      1   0.010037   0.008477     2.60142e-01     2.09200e-02
       723        727      1   0.010037   0.008477     2.60142e-01     2.09200e-02
       722        730      1  -0.021025   0.009367     3.00055e-01     6.91943e-02
       722        729      1  -0.021025   0.009367     3.00055e-01     6.91943e-02
       721        725      1   0.012677  -0.012211     3.00055e-01     6.91943e-02
       721        724      1   0.012677   0.008364     2.60142e-01     2.09200e-02
       721        723      1   0.012677   0.008364     2.60142e-01     2.09200e-02
       720        725      1   0.012677  -0.012211     3.00055e-01     6.91943e-02
       720        724      1   0.012677   0.008364     2.60142e-01     2.09200e-02
       720        723      1   0.012677   0.008364     2.60142e-01     2.09200e-02
       719        726      1  -0.031787   0.008477     3.00055e-01     6.91943e-02
       719        727      1  -0.031787   0.008477     3.00055e-01     6.91943e-02
       718        722      1   0.017208  -0.017521     3.00055e-01     6.91943e-02
       718        720      1   0.017208   0.010564     2.60142e-01     2.09200e-02
       718        721      1   0.017208   0.010564     2.60142e-01     2.09200e-02
       717        722      1   0.017208  -0.017521     3.00055e-01     6.91943e-02
       717        720      1   0.017208   0.010564     2.60142e-01     2.09200e-02
       717        721      1   0.017208   0.010564     2.60142e-01     2.09200e-02
       716        724      1  -0.028094   0.008364     3.00055e-01     6.91943e-02
       716        723      1  -0.028094   0.008364     3.00055e-01     6.91943e-02
       715        719      1   0.007531  -0.026489     3.00055e-01     6.91943e-02
       715        718      1   0.007531   0.014340     2.60142e-01     2.09200e-02
       715        717      1   0.007531   0.014340     2.60142e-01     2.09200e-02
       714        719      1   0.007531  -0.026489     3.00055e-01     6.91943e-02
       714        718      1   0.007531   0.014340     2.60142e-01     2.09200e-02
       714        717      1   0.007531   0.014340     2.60142e-01     2.09200e-02
       713        720      1   0.017463   0.010564     3.00055e-01     6.91943e-02
       713        721      1   0.017463   0.010564     3.00055e-01     6.91943e-02
       712        716      1   0.025511  -0.023412     3.00055e-01     6.91943e-02
       712        714      1   0.025511   0.006276     2.60142e-01     2.09200e-02
       712        715      1   0.025511   0.006276     2.60142e-01     2.09200e-02
       711        716      1   0.025511  -0.023412     3.00055e-01     6.91943e-02
       711        714      1   0.025511   0.006276     2.60142e-01     2.09200e-02
       711        715      1   0.025511   0.006276     2.60142e-01     2.09200e-02
       710        718      1  -0.111712   0.014340     3.00055e-01     6.91943e-02
       710        717      1  -0.111712   0.014340     3.00055e-01     6.91943e-02
       709        716      1   0.025511  -0.023412     3.00055e-01     6.91943e-02
       709        714      1   0.025511   0.006276     2.60142e-01     2.09200e-02
       709        715      1   0.025511   0.006276     2.60142e-01     2.09200e-02
       786        826      1  -0.673755   0.044953     2.78067e-01     9.58675e-02
       786        825      1  -0.673755   0.044953     2.78067e-01     9.58675e-02
       785        823      1   0.897613   0.015716     3.00055e-01     6.13495e-02
       785        822      1   0.897613   0.015716     3.00055e-01     6.13495e-02
       784        826      1  -0.552948   0.044953     2.80072e-01     8.62554e-02
       784        825      1  -0.552948   0.044953     2.80072e-01     8.62554e-02
       777        778      1   0.172230  -0.282478     2.67982e-01     8.67002e-02
       776        778      1   0.172230  -0.282478     2.67982e-01     8.67002e-02
       775        778      1   0.172230  -0.282478     2.67982e-01     8.67002e-02
       774        779      1  -0.338973   0.143525     2.67982e-01     8.67002e-02
       774        780      1  -0.338973   0.143525     2.67982e-01     8.67002e-02
       774        781      1  -0.338973   0.143525     2.67982e-01     8.67002e-02
       773        774      1   0.172230  -0.282478     2.67982e-01     8.67002e-02
       773        778      1   0.172230  -0.282478     2.67982e-01     8.67002e-02
       772        774      1   0.172230  -0.282478     2.67982e-01     8.67002e-02
       772        778      1   0.172230  -0.282478     2.67982e-01     8.67002e-02
       771        774      1   0.172230  -0.282478     2.67982e-01     8.67002e-02
       771        778      1   0.172230  -0.282478     2.67982e-01     8.67002e-02
       770        775      1  -0.338973   0.143525     2.67982e-01     8.67002e-02
       770        776      1  -0.338973   0.143525     2.67982e-01     8.67002e-02
       770        777      1  -0.338973   0.143525     2.67982e-01     8.67002e-02
       770        779      1  -0.338973   0.143525     2.67982e-01     8.67002e-02
       770        780      1  -0.338973   0.143525     2.67982e-01     8.67002e-02
       770        781      1  -0.338973   0.143525     2.67982e-01     8.67002e-02
       768        770      1   0.136415  -0.282478     2.67982e-01     8.67002e-02
       768        774      1   0.136415  -0.282478     2.67982e-01     8.67002e-02
       768        778      1   0.136415  -0.282478     2.67982e-01     8.67002e-02
       767        770      1   0.136415  -0.282478     2.67982e-01     8.67002e-02
       767        774      1   0.136415  -0.282478     2.67982e-01     8.67002e-02
       767        778      1   0.136415  -0.282478     2.67982e-01     8.67002e-02
       766        771      1  -0.170824   0.143525     2.67982e-01     8.67002e-02
       766        772      1  -0.170824   0.143525     2.67982e-01     8.67002e-02
       766        773      1  -0.170824   0.143525     2.67982e-01     8.67002e-02
       766        775      1  -0.170824   0.143525     2.67982e-01     8.67002e-02
       766        776      1  -0.170824   0.143525     2.67982e-01     8.67002e-02
       766        777      1  -0.170824   0.143525     2.67982e-01     8.67002e-02
       766        779      1  -0.170824   0.143525     2.67982e-01     8.67002e-02
       766        780      1  -0.170824   0.143525     2.67982e-01     8.67002e-02
       766        781      1  -0.170824   0.143525     2.67982e-01     8.67002e-02
       765        767      1   0.078534   0.113679     2.21567e-01     3.28444e-02
       765        768      1   0.078534   0.113679     2.21567e-01     3.28444e-02
       765        769      1   0.078534   0.204385     2.86068e-01     1.08078e-01
       764        767      1   0.078534   0.113679     2.21567e-01     3.28444e-02
       764        768      1   0.078534   0.113679     2.21567e-01     3.28444e-02
       764        769      1   0.078534   0.204385     2.86068e-01     1.08078e-01
       762        767      1  -0.508176   0.113679     2.47999e-01     1.08078e-01
       762        768      1  -0.508176   0.113679     2.47999e-01     1.08078e-01
       761        764      1   1.339721   0.065445     3.10656e-01     1.17227e-01
       761        765      1   1.339721   0.065445     3.10656e-01     1.17227e-01
       759        784      1   0.095591  -0.460790     2.73568e-01     1.08078e-01
       759        761      1   0.095591   1.116434     3.10656e-01     1.17227e-01
       758        784      1   0.095591  -0.460790     2.73568e-01     1.08078e-01
       758        761      1   0.095591   1.116434     3.10656e-01     1.17227e-01
       756        758      1   0.063253   0.079659     2.47135e-01     3.28444e-02
       756        759      1   0.063253   0.079659     2.47135e-01     3.28444e-02
       756        760      1   0.063253  -0.424567     2.73568e-01     1.08078e-01
       756        785      1   0.063253   0.748011     2.93551e-01     7.68707e-02
       754        756      1   0.070469   0.052711     2.47135e-01     3.28444e-02
       754        757      1   0.070469   0.014549     2.93551e-01     8.67002e-02
       754        784      1   0.070469  -0.460790     2.73568e-01     1.08078e-01
       753        756      1   0.070469   0.052711     2.47135e-01     3.28444e-02
       753        757      1   0.070469   0.014549     2.93551e-01     8.67002e-02
       753        784      1   0.070469  -0.460790     2.73568e-01     1.08078e-01
       752        758      1   0.196939   0.079659     2.93551e-01     8.67002e-02
       752        759      1   0.196939   0.079659     2.93551e-01     8.67002e-02
       751        756      1  -0.575489   0.052711     2.73568e-01     1.08078e-01
       749        753      1   0.910403   0.058724     2.93551e-01     7.68707e-02
       749        754      1   0.910403   0.058724     2.93551e-01     7.68707e-02
       823        826      1   0.018859   0.044953     2.60142e-01     2.09200e-02
       823        825      1   0.018859   0.044953     2.60142e-01     2.09200e-02
       822        826      1   0.018859   0.044953     2.60142e-01     2.09200e-02
       822        825      1   0.018859   0.044953     2.60142e-01     2.09200e-02
       820        824      1   0.020431  -0.136833     3.00055e-01     6.91943e-02
       820        823      1   0.020431   0.015716     2.60142e-01     2.09200e-02
       820        822      1   0.020431   0.015716     2.60142e-01     2.09200e-02
       819        824      1   0.020431  -0.136833     3.00055e-01     6.91943e-02
       819        823      1   0.020431   0.015716     2.60142e-01     2.09200e-02
       819        822      1   0.020431   0.015716     2.60142e-01     2.09200e-02
       818        826      1  -0.026954   0.044953     3.00055e-01     6.91943e-02
       818        825      1  -0.026954   0.044953     3.00055e-01     6.91943e-02
       817        821      1   0.010573  -0.002029     3.00055e-01     6.91943e-02
       817        820      1   0.010573   0.017026     2.60142e-01     2.09200e-02
       817        819      1   0.010573   0.017026     2.60142e-01     2.09200e-02
       816        821      1   0.010573  -0.002029     3.00055e-01     6.91943e-02
       816        820      1   0.010573   0.017026     2.60142e-01     2.09200e-02
       816        819      1   0.010573   0.017026     2.60142e-01     2.09200e-02
       815        823      1  -0.016521   0.015716     3.00055e-01     6.91943e-02
       815        822      1  -0.016521   0.015716     3.00055e-01     6.91943e-02
       814        818      1   0.011511  -0.022462     3.00055e-01     6.91943e-02
       814        816      1   0.011511   0.008811     2.60142e-01     2.09200e-02
       814        817      1   0.011511   0.008811     2.60142e-01     2.09200e-02
       813        818      1   0.011511  -0.022462     3.00055e-01     6.91943e-02
       813        816      1   0.011511   0.008811     2.60142e-01     2.09200e-02
       813        817      1   0.011511   0.008811     2.60142e-01     2.09200e-02
       812        820      1  -0.027812   0.017026     3.00055e-01     6.91943e-02
       812        819      1  -0.027812   0.017026     3.00055e-01     6.91943e-02
       811        815      1   0.006833  -0.013767     3.00055e-01     6.91943e-02
       811        813      1   0.006833   0.009592     2.60142e-01     2.09200e-02
       811        814      1   0.006833   0.009592     2.60142e-01     2.09200e-02
       810        815      1   0.006833  -0.013767     3.00055e-01     6.91943e-02
       810        813      1   0.006833   0.009592     2.60142e-01     2.09200e-02
       810        814      1   0.006833   0.009592     2.60142e-01     2.09200e-02
       809        816      1  -0.004386   0.008811     3.00055e-01     6.91943e-02
       809        817      1  -0.004386   0.008811     3.00055e-01     6.91943e-02
       808        812      1   0.011241  -0.023177     3.00055e-01     6.91943e-02
       808        810      1   0.011241   0.005694     2.60142e-01     2.09200e-02
       808        811      1   0.011241   0.005694     2.60142e-01     2.09200e-02
       807        812      1   0.011241  -0.023177     3.00055e-01     6.91943e-02
       807        810      1   0.011241   0.005694     2.60142e-01     2.09200e-02
       807        811      1   0.011241   0.005694     2.60142e-01     2.09200e-02
       806        813      1  -0.026451   0.009592     3.00055e-01     6.91943e-02
       806        814      1  -0.026451   0.009592     3.00055e-01     6.91943e-02
       805        809      1   0.010172  -0.003655     3.00055e-01     6.91943e-02
       805        808      1   0.010172   0.009367     2.60142e-01     2.09200e-02
       805        807      1   0.010172   0.009367     2.60142e-01     2.09200e-02
       804        809      1   0.010172  -0.003655     3.00055e-01     6.91943e-02
       804        808      1   0.010172   0.009367     2.60142e-01     2.09200e-02
       804        807      1   0.010172   0.009367     2.60142e-01     2.09200e-02
       803        810      1  -0.014653   0.005694     3.00055e-01     6.91943e-02
       803        811      1  -0.014653   0.005694     3.00055e-01     6.91943e-02
       802        806      1   0.010037  -0.022042     3.00055e-01     6.91943e-02
       802        804      1   0.010037   0.008477     2.60142e-01     2.09200e-02
       802        805      1   0.010037   0.008477     2.60142e-01     2.09200e-02
       801        806      1   0.010037  -0.022042     3.00055e-01     6.91943e-02
       801        804      1   0.010037   0.008477     2.60142e-01     2.09200e-02
       801        805      1   0.010037   0.008477     2.60142e-01     2.09200e-02
       800        808      1  -0.021025   0.009367     3.00055e-01     6.91943e-02
       800        807      1  -0.021025   0.009367     3.00055e-01     6.91943e-02
       799        803      1   0.012677  -0.012211     3.00055e-01     6.91943e-02
       799        802      1   0.012677   0.008364     2.60142e-01     2.09200e-02
       799        801      1   0.012677   0.008364     2.60142e-01     2.09200e-02
       798        803      1   0.012677  -0.012211     3.00055e-01     6.91943e-02
       798        802      1   0.012677   0.008364     2.60142e-01     2.09200e-02
       798        801      1   0.012677   0.008364     2.60142e-01     2.09200e-02
       797        804      1  -0.031787   0.008477     3.00055e-01     6.91943e-02
       797        805      1  -0.031787   0.008477     3.00055e-01     6.91943e-02
       796        800      1   0.017208  -0.017521     3.00055e-01     6.91943e-02
       796        798      1   0.017208   0.010564     2.60142e-01     2.09200e-02
       796        799      1   0.017208   0.010564     2.60142e-01     2.09200e-02
       795        800      1   0.017208  -0.017521     3.00055e-01     6.91943e-02
       795        798      1   0.017208   0.010564     2.60142e-01     2.09200e-02
       795        799      1   0.017208   0.010564     2.60142e-01     2.09200e-02
       794        802      1  -0.028094   0.008364     3.00055e-01     6.91943e-02
       794        801      1  -0.028094   0.008364     3.00055e-01     6.91943e-02
       793        797      1   0.007531  -0.026489     3.00055e-01     6.91943e-02
       793        796      1   0.007531   0.014340     2.60142e-01     2.09200e-02
       793        795      1   0.007531   0.014340     2.60142e-01     2.09200e-02
       792        797      1   0.007531  -0.026489     3.00055e-01     6.91943e-02
       792        796      1   0.007531   0.014340     2.60142e-01     2.09200e-02
       792        795      1   0.007531   0.014340     2.60142e-01     2.09200e-02
       791        798      1   0.017463   0.010564     3.00055e-01     6.91943e-02
       791        799      1   0.017463   0.010564     3.00055e-01     6.91943e-02
       790        794      1   0.025511  -0.023412     3.00055e-01     6.91943e-02
       790        792      1   0.025511   0.006276     2.60142e-01     2.09200e-02
       790        793      1   0.025511   0.006276     2.60142e-01     2.09200e-02
       789        794      1   0.025511  -0.023412     3.00055e-01     6.91943e-02
       789        792      1   0.025511   0.006276     2.60142e-01     2.09200e-02
       789        793      1   0.025511   0.006276     2.60142e-01     2.09200e-02
       788        796      1  -0.111712   0.014340     3.00055e-01     6.91943e-02
       788        795      1  -0.111712   0.014340     3.00055e-01     6.91943e-02
       787        794      1   0.025511  -0.023412     3.00055e-01     6.91943e-02
       787        792      1   0.025511   0.006276     2.60142e-01     2.09200e-02
       787        793      1   0.025511   0.006276     2.60142e-01     2.09200e-02
       866        868      1   0.053944  -0.559638     2.78067e-01     9.58675e-02
       866        869      1   0.053944  -0.479574     2.80072e-01     8.62554e-02
       865        868      1   0.053944  -0.559638     2.78067e-01     9.58675e-02
       865        869      1   0.053944  -0.479574     2.80072e-01     8.62554e-02
       863        866      1   0.018859   0.044953     2.60142e-01     2.09200e-02
       863        865      1   0.018859   0.044953     2.60142e-01     2.09200e-02
       863        867      1   0.018859   0.758669     3.00055e-01     6.13495e-02
       862        866      1   0.018859   0.044953     2.60142e-01     2.09200e-02
       862        865      1   0.018859   0.044953     2.60142e-01     2.09200e-02
       862        867      1   0.018859   0.758669     3.00055e-01     6.13495e-02
       860        864      1   0.020431  -0.136833     3.00055e-01     6.91943e-02
       860        863      1   0.020431   0.015716     2.60142e-01     2.09200e-02
       860        862      1   0.020431   0.015716     2.60142e-01     2.09200e-02
       859        864      1   0.020431  -0.136833     3.00055e-01     6.91943e-02
       859        863      1   0.020431   0.015716     2.60142e-01     2.09200e-02
       859        862      1   0.020431   0.015716     2.60142e-01     2.09200e-02
       858        866      1  -0.026954   0.044953     3.00055e-01     6.91943e-02
       858        865      1  -0.026954   0.044953     3.00055e-01     6.91943e-02
       857        861      1   0.010573  -0.002029     3.00055e-01     6.91943e-02
       857        860      1   0.010573   0.017026     2.60142e-01     2.09200e-02
       857        859      1   0.010573   0.017026     2.60142e-01     2.09200e-02
       856        861      1   0.010573  -0.002029     3.00055e-01     6.91943e-02
       856        860      1   0.010573   0.017026     2.60142e-01     2.09200e-02
       856        859      1   0.010573   0.017026     2.60142e-01     2.09200e-02
       855        863      1  -0.016521   0.015716     3.00055e-01     6.91943e-02
       855        862      1  -0.016521   0.015716     3.00055e-01     6.91943e-02
       854        858      1   0.011511  -0.022462     3.00055e-01     6.91943e-02
       854        856      1   0.011511   0.008811     2.60142e-01     2.09200e-02
       854        857      1   0.011511   0.008811     2.60142e-01     2.09200e-02
       853        858      1   0.011511  -0.022462     3.00055e-01     6.91943e-02
       853        856      1   0.011511   0.008811     2.60142e-01     2.09200e-02
       853        857      1   0.011511   0.008811     2.60142e-01     2.09200e-02
       852        860      1  -0.027812   0.017026     3.00055e-01     6.91943e-02
       852        859      1  -0.027812   0.017026     3.00055e-01     6.91943e-02
       851        855      1   0.006833  -0.013767     3.00055e-01     6.91943e-02
       851        853      1   0.006833   0.009592     2.60142e-01     2.09200e-02
       851        854      1   0.006833   0.009592     2.60142e-01     2.09200e-02
       850        855      1   0.006833  -0.013767     3.00055e-01     6.91943e-02
       850        853      1   0.006833   0.009592     2.60142e-01     2.09200e-02
       850        854      1   0.006833   0.009592     2.60142e-01     2.09200e-02
       849        856      1  -0.004386   0.008811     3.00055e-01     6.91943e-02
       849        857      1  -0.004386   0.008811     3.00055e-01     6.91943e-02
       848        852      1   0.011241  -0.023177     3.00055e-01     6.91943e-02
       848        850      1   0.011241   0.005694     2.60142e-01     2.09200e-02
       848        851      1   0.011241   0.005694     2.60142e-01     2.09200e-02
       847        852      1   0.011241  -0.023177     3.00055e-01     6.91943e-02
       847        850      1   0.011241   0.005694     2.60142e-01     2.09200e-02
       847        851      1   0.011241   0.005694     2.60142e-01     2.09200e-02
       846        853      1  -0.026451   0.009592     3.00055e-01     6.91943e-02
       846        854      1  -0.026451   0.009592     3.00055e-01     6.91943e-02
       845        849      1   0.010172  -0.003655     3.00055e-01     6.91943e-02
       845        848      1   0.010172   0.009367     2.60142e-01     2.09200e-02
       845        847      1   0.010172   0.009367     2.60142e-01     2.09200e-02
       844        849      1   0.010172  -0.003655     3.00055e-01     6.91943e-02
       844        848      1   0.010172   0.009367     2.60142e-01     2.09200e-02
       844        847      1   0.010172   0.009367     2.60142e-01     2.09200e-02
       843        850      1  -0.014653   0.005694     3.00055e-01     6.91943e-02
       843        851      1  -0.014653   0.005694     3.00055e-01     6.91943e-02
       842        846      1   0.010037  -0.022042     3.00055e-01     6.91943e-02
       842        844      1   0.010037   0.008477     2.60142e-01     2.09200e-02
       842        845      1   0.010037   0.008477     2.60142e-01     2.09200e-02
       841        846      1   0.010037  -0.022042     3.00055e-01     6.91943e-02
       841        844      1   0.010037   0.008477     2.60142e-01     2.09200e-02
       841        845      1   0.010037   0.008477     2.60142e-01     2.09200e-02
       840        848      1  -0.021025   0.009367     3.00055e-01     6.91943e-02
       840        847      1  -0.021025   0.009367     3.00055e-01     6.91943e-02
       839        843      1   0.012677  -0.012211     3.00055e-01     6.91943e-02
       839        842      1   0.012677   0.008364     2.60142e-01     2.09200e-02
       839        841      1   0.012677   0.008364     2.60142e-01     2.09200e-02
       838        843      1   0.012677  -0.012211     3.00055e-01     6.91943e-02
       838        842      1   0.012677   0.008364     2.60142e-01     2.09200e-02
       838        841      1   0.012677   0.008364     2.60142e-01     2.09200e-02
       837        844      1  -0.031787   0.008477     3.00055e-01     6.91943e-02
       837        845      1  -0.031787   0.008477     3.00055e-01     6.91943e-02
       836        840      1   0.017208  -0.017521     3.00055e-01     6.91943e-02
       836        838      1   0.017208   0.010564     2.60142e-01     2.09200e-02
       836        839      1   0.017208   0.010564     2.60142e-01     2.09200e-02
       835        840      1   0.017208  -0.017521     3.00055e-01     6.91943e-02
       835        838      1   0.017208   0.010564     2.60142e-01     2.09200e-02
       835        839      1   0.017208   0.010564     2.60142e-01     2.09200e-02
       834        842      1  -0.028094   0.008364     3.00055e-01     6.91943e-02
       834        841      1  -0.028094   0.008364     3.00055e-01     6.91943e-02
       833        837      1   0.007531  -0.026489     3.00055e-01     6.91943e-02
       833        836      1   0.007531   0.014340     2.60142e-01     2.09200e-02
       833        835      1   0.007531   0.014340     2.60142e-01     2.09200e-02
       832        837      1   0.007531  -0.026489     3.00055e-01     6.91943e-02
       832        836      1   0.007531   0.014340     2.60142e-01     2.09200e-02
       832        835      1   0.007531   0.014340     2.60142e-01     2.09200e-02
       831        838      1   0.017463   0.010564     3.00055e-01     6.91943e-02
       831        839      1   0.017463   0.010564     3.00055e-01     6.91943e-02
       830        834      1   0.025511  -0.023412     3.00055e-01     6.91943e-02
       830        832      1   0.025511   0.006276     2.60142e-01     2.09200e-02
       830        833      1   0.025511   0.006276     2.60142e-01     2.09200e-02
       829        834      1   0.025511  -0.023412     3.00055e-01     6.91943e-02
       829        832      1   0.025511   0.006276     2.60142e-01     2.09200e-02
       829        833      1   0.025511   0.006276     2.60142e-01     2.09200e-02
       828        836      1  -0.111712   0.014340     3.00055e-01     6.91943e-02
       828        835      1  -0.111712   0.014340     3.00055e-01     6.91943e-02
       827        834      1   0.025511  -0.023412     3.00055e-01     6.91943e-02
       827        832      1   0.025511   0.006276     2.60142e-01     2.09200e-02
       827        833      1   0.025511   0.006276     2.60142e-01     2.09200e-02
       904        944      1  -0.673755   0.044953     2.78067e-01     9.58675e-02
       904        943      1  -0.673755   0.044953     2.78067e-01     9.58675e-02
       903        941      1   0.897613   0.015716     3.00055e-01     6.13495e-02
       903        940      1   0.897613   0.015716     3.00055e-01     6.13495e-02
       902        944      1  -0.552948   0.044953     2.80072e-01     8.62554e-02
       902        943      1  -0.552948   0.044953     2.80072e-01     8.62554e-02
       895        896      1   0.172230  -0.282478     2.67982e-01     8.67002e-02
       894        896      1   0.172230  -0.282478     2.67982e-01     8.67002e-02
       893        896      1   0.172230  -0.282478     2.67982e-01     8.67002e-02
       892        897      1  -0.338973   0.143525     2.67982e-01     8.67002e-02
       892        898      1  -0.338973   0.143525     2.67982e-01     8.67002e-02
       892        899      1  -0.338973   0.143525     2.67982e-01     8.67002e-02
       891        892      1   0.172230  -0.282478     2.67982e-01     8.67002e-02
       891        896      1   0.172230  -0.282478     2.67982e-01     8.67002e-02
       890        892      1   0.172230  -0.282478     2.67982e-01     8.67002e-02
       890        896      1   0.172230  -0.282478     2.67982e-01     8.67002e-02
       889        892      1   0.172230  -0.282478     2.67982e-01     8.67002e-02
       889        896      1   0.172230  -0.282478     2.67982e-01     8.67002e-02
       888        893      1  -0.338973   0.143525     2.67982e-01     8.67002e-02
       888        894      1  -0.338973   0.143525     2.67982e-01     8.67002e-02
       888        895      1  -0.338973   0.143525     2.67982e-01     8.67002e-02
       888        897      1  -0.338973   0.143525     2.67982e-01     8.67002e-02
       888        898      1  -0.338973   0.143525     2.67982e-01     8.67002e-02
       888        899      1  -0.338973   0.143525     2.67982e-01     8.67002e-02
       886        888      1   0.136415  -0.282478     2.67982e-01     8.67002e-02
       886        892      1   0.136415  -0.282478     2.67982e-01     8.67002e-02
       886        896      1   0.136415  -0.282478     2.67982e-01     8.67002e-02
       885        888      1   0.136415  -0.282478     2.67982e-01     8.67002e-02
       885        892      1   0.136415  -0.282478     2.67982e-01     8.67002e-02
       885        896      1   0.136415  -0.282478     2.67982e-01     8.67002e-02
       884        889      1  -0.170824   0.143525     2.67982e-01     8.67002e-02
       884        890      1  -0.170824   0.143525     2.67982e-01     8.67002e-02
       884        891      1  -0.170824   0.143525     2.67982e-01     8.67002e-02
       884        893      1  -0.170824   0.143525     2.67982e-01     8.67002e-02
       884        894      1  -0.170824   0.143525     2.67982e-01     8.67002e-02
       884        895      1  -0.170824   0.143525     2.67982e-01     8.67002e-02
       884        897      1  -0.170824   0.143525     2.67982e-01     8.67002e-02
       884        898      1  -0.170824   0.143525     2.67982e-01     8.67002e-02
       884        899      1  -0.170824   0.143525     2.67982e-01     8.67002e-02
       883        885      1   0.078534   0.113679     2.21567e-01     3.28444e-02
       883        886      1   0.078534   0.113679     2.21567e-01     3.28444e-02
       883        887      1   0.078534   0.204385     2.86068e-01     1.08078e-01
       882        885      1   0.078534   0.113679     2.21567e-01     3.28444e-02
       882        886      1   0.078534   0.113679     2.21567e-01     3.28444e-02
       882        887      1   0.078534   0.204385     2.86068e-01     1.08078e-01
       880        885      1  -0.508176   0.113679     2.47999e-01     1.08078e-01
       880        886      1  -0.508176   0.113679     2.47999e-01     1.08078e-01
       879        882      1   1.339721   0.065445     3.10656e-01     1.17227e-01
       879        883      1   1.339721   0.065445     3.10656e-01     1.17227e-01
       877        902      1   0.095591  -0.460790     2.73568e-01     1.08078e-01
       877        879      1   0.095591   1.116434     3.10656e-01     1.17227e-01
       876        902      1   0.095591  -0.460790     2.73568e-01     1.08078e-01
       876        879      1   0.095591   1.116434     3.10656e-01     1.17227e-01
       874        876      1   0.063253   0.079659     2.47135e-01     3.28444e-02
       874        877      1   0.063253   0.079659     2.47135e-01     3.28444e-02
       874        878      1   0.063253  -0.424567     2.73568e-01     1.08078e-01
       874        903      1   0.063253   0.748011     2.93551e-01     7.68707e-02
       872        874      1   0.070469   0.052711     2.47135e-01     3.28444e-02
       872        875      1   0.070469   0.014549     2.93551e-01     8.67002e-02
       872        902      1   0.070469  -0.460790     2.73568e-01     1.08078e-01
       871        874      1   0.070469   0.052711     2.47135e-01     3.28444e-02
       871        875      1   0.070469   0.014549     2.93551e-01     8.67002e-02
       871        902      1   0.070469  -0.460790     2.73568e-01     1.08078e-01
       870        876      1   0.196939   0.079659     2.93551e-01     8.67002e-02
       870        877      1   0.196939   0.079659     2.93551e-01     8.67002e-02
       869        874      1  -0.575489   0.052711     2.73568e-01     1.08078e-01
       867        871      1   0.910403   0.058724     2.93551e-01     7.68707e-02
       867        872      1   0.910403   0.058724     2.93551e-01     7.68707e-02
       941        944      1   0.018859   0.044953     2.60142e-01     2.09200e-02
       941        943      1   0.018859   0.044953     2.60142e-01     2.09200e-02
       940        944      1   0.018859   0.044953     2.60142e-01     2.09200e-02
       940        943      1   0.018859   0.044953     2.60142e-01     2.09200e-02
       938        942      1   0.020431  -0.136833     3.00055e-01     6.91943e-02
       938        941      1   0.020431   0.015716     2.60142e-01     2.09200e-02
       938        940      1   0.020431   0.015716     2.60142e-01     2.09200e-02
       937        942      1   0.020431  -0.136833     3.00055e-01     6.91943e-02
       937        941      1   0.020431   0.015716     2.60142e-01     2.09200e-02
       937        940      1   0.020431   0.015716     2.60142e-01     2.09200e-02
       936        944      1  -0.026954   0.044953     3.00055e-01     6.91943e-02
       936        943      1  -0.026954   0.044953     3.00055e-01     6.91943e-02
       935        939      1   0.010573  -0.002029     3.00055e-01     6.91943e-02
       935        938      1   0.010573   0.017026     2.60142e-01     2.09200e-02
       935        937      1   0.010573   0.017026     2.60142e-01     2.09200e-02
       934        939      1   0.010573  -0.002029     3.00055e-01     6.91943e-02
       934        938      1   0.010573   0.017026     2.60142e-01     2.09200e-02
       934        937      1   0.010573   0.017026     2.60142e-01     2.09200e-02
       933        941      1  -0.016521   0.015716     3.00055e-01     6.91943e-02
       933        940      1  -0.016521   0.015716     3.00055e-01     6.91943e-02
       932        936      1   0.011511  -0.022462     3.00055e-01     6.91943e-02
       932        934      1   0.011511   0.008811     2.60142e-01     2.09200e-02
       932        935      1   0.011511   0.008811     2.60142e-01     2.09200e-02
       931        936      1   0.011511  -0.022462     3.00055e-01     6.91943e-02
       931        934      1   0.011511   0.008811     2.60142e-01     2.09200e-02
       931        935      1   0.011511   0.008811     2.60142e-01     2.09200e-02
       930        938      1  -0.027812   0.017026     3.00055e-01     6.91943e-02
       930        937      1  -0.027812   0.017026     3.00055e-01     6.91943e-02
       929        933      1   0.006833  -0.013767     3.00055e-01     6.91943e-02
       929        931      1   0.006833   0.009592     2.60142e-01     2.09200e-02
       929        932      1   0.006833   0.009592     2.60142e-01     2.09200e-02
       928        933      1   0.006833  -0.013767     3.00055e-01     6.91943e-02
       928        931      1   0.006833   0.009592     2.60142e-01     2.09200e-02
       928        932      1   0.006833   0.009592     2.60142e-01     2.09200e-02
       927        934      1  -0.004386   0.008811     3.00055e-01     6.91943e-02
       927        935      1  -0.004386   0.008811     3.00055e-01     6.91943e-02
       926        930      1   0.011241  -0.023177     3.00055e-01     6.91943e-02
       926        928      1   0.011241   0.005694     2.60142e-01     2.09200e-02
       926        929      1   0.011241   0.005694     2.60142e-01     2.09200e-02
       925        930      1   0.011241  -0.023177     3.00055e-01     6.91943e-02
       925        928      1   0.011241   0.005694     2.60142e-01     2.09200e-02
       925        929      1   0.011241   0.005694     2.60142e-01     2.09200e-02
       924        931      1  -0.026451   0.009592     3.00055e-01     6.91943e-02
       924        932      1  -0.026451   0.009592     3.00055e-01     6.91943e-02
       923        927      1   0.010172  -0.003655     3.00055e-01     6.91943e-02
       923        926      1   0.010172   0.009367     2.60142e-01     2.09200e-02
       923        925      1   0.010172   0.009367     2.60142e-01     2.09200e-02
       922        927      1   0.010172  -0.003655     3.00055e-01     6.91943e-02
       922        926      1   0.010172   0.009367     2.60142e-01     2.09200e-02
       922        925      1   0.010172   0.009367     2.60142e-01     2.09200e-02
       921        928      1  -0.014653   0.005694     3.00055e-01     6.91943e-02
       921        929      1  -0.014653   0.005694     3.00055e-01     6.91943e-02
       920        924      1   0.010037  -0.022042     3.00055e-01     6.91943e-02
       920        922      1   0.010037   0.008477     2.60142e-01     2.09200e-02
       920        923      1   0.010037   0.008477     2.60142e-01     2.09200e-02
       919        924      1   0.010037  -0.022042     3.00055e-01     6.91943e-02
       919        922      1   0.010037   0.008477     2.60142e-01     2.09200e-02
       919        923      1   0.010037   0.008477     2.60142e-01     2.09200e-02
       918        926      1  -0.021025   0.009367     3.00055e-01     6.91943e-02
       918        925      1  -0.021025   0.009367     3.00055e-01     6.91943e-02
       917        921      1   0.012677  -0.012211     3.00055e-01     6.91943e-02
       917        920      1   0.012677   0.008364     2.60142e-01     2.09200e-02
       917        919      1   0.012677   0.008364     2.60142e-01     2.09200e-02
       916        921      1   0.012677  -0.012211     3.00055e-01     6.91943e-02
       916        920      1   0.012677   0.008364     2.60142e-01     2.09200e-02
       916        919      1   0.012677   0.008364     2.60142e-01     2.09200e-02
       915        922      1  -0.031787   0.008477     3.00055e-01     6.91943e-02
       915        923      1  -0.031787   0.008477     3.00055e-01     6.91943e-02
       914        918      1   0.017208  -0.017521     3.00055e-01     6.91943e-02
       914        916      1   0.017208   0.010564     2.60142e-01     2.09200e-02
       914        917      1   0.017208   0.010564     2.60142e-01     2.09200e-02
       913        918      1   0.017208  -0.017521     3.00055e-01     6.91943e-02
       913        916      1   0.017208   0.010564     2.60142e-01     2.09200e-02
       913        917      1   0.017208   0.010564     2.60142e-01     2.09200e-02
       912        920      1  -0.028094   0.008364     3.00055e-01     6.91943e-02
       912        919      1  -0.028094   0.008364     3.00055e-01     6.91943e-02
       911        915      1   0.007531  -0.026489     3.00055e-01     6.91943e-02
       911        914      1   0.007531   0.014340     2.60142e-01     2.09200e-02
       911        913      1   0.007531   0.014340     2.60142e-01     2.09200e-02
       910        915      1   0.007531  -0.026489     3.00055e-01     6.91943e-02
       910        914      1   0.007531   0.014340     2.60142e-01     2.09200e-02
       910        913      1   0.007531   0.014340     2.60142e-01     2.09200e-02
       909        916      1   0.017463   0.010564     3.00055e-01     6.91943e-02
       909        917      1   0.017463   0.010564     3.00055e-01     6.91943e-02
       908        912      1   0.025511  -0.023412     3.00055e-01     6.91943e-02
       908        910      1   0.025511   0.006276     2.60142e-01     2.09200e-02
       908        911      1   0.025511   0.006276     2.60142e-01     2.09200e-02
       907        912      1   0.025511  -0.023412     3.00055e-01     6.91943e-02
       907        910      1   0.025511   0.006276     2.60142e-01     2.09200e-02
       907        911      1   0.025511   0.006276     2.60142e-01     2.09200e-02
       906        914      1  -0.111712   0.014340     3.00055e-01     6.91943e-02
       906        913      1  -0.111712   0.014340     3.00055e-01     6.91943e-02
       905        912      1   0.025511  -0.023412     3.00055e-01     6.91943e-02
       905        910      1   0.025511   0.006276     2.60142e-01     2.09200e-02
       905        911      1   0.025511   0.006276     2.60142e-01     2.09200e-02
       984        986      1   0.053944  -0.559638     2.78067e-01     9.58675e-02
       984        987      1   0.053944  -0.479574     2.80072e-01     8.62554e-02
       983        986      1   0.053944  -0.559638     2.78067e-01     9.58675e-02
       983        987      1   0.053944  -0.479574     2.80072e-01     8.62554e-02
       981        984      1   0.018859   0.044953     2.60142e-01     2.09200e-02
       981        983      1   0.018859   0.044953     2.60142e-01     2.09200e-02
       981        985      1   0.018859   0.758669     3.00055e-01     6.13495e-02
       980        984      1   0.018859   0.044953     2.60142e-01     2.09200e-02
       980        983      1   0.018859   0.044953     2.60142e-01     2.09200e-02
       980        985      1   0.018859   0.758669     3.00055e-01     6.13495e-02
       978        982      1   0.020431  -0.136833     3.00055e-01     6.91943e-02
       978        981      1   0.020431   0.015716     2.60142e-01     2.09200e-02
       978        980      1   0.020431   0.015716     2.60142e-01     2.09200e-02
       977        982      1   0.020431  -0.136833     3.00055e-01     6.91943e-02
       977        981      1   0.020431   0.015716     2.60142e-01     2.09200e-02
       977        980      1   0.020431   0.015716     2.60142e-01     2.09200e-02
       976        984      1  -0.026954   0.044953     3.00055e-01     6.91943e-02
       976        983      1  -0.026954   0.044953     3.00055e-01     6.91943e-02
       975        979      1   0.010573  -0.002029     3.00055e-01     6.91943e-02
       975        978      1   0.010573   0.017026     2.60142e-01     2.09200e-02
       975        977      1   0.010573   0.017026     2.60142e-01     2.09200e-02
       974        979      1   0.010573  -0.002029     3.00055e-01     6.91943e-02
       974        978      1   0.010573   0.017026     2.60142e-01     2.09200e-02
       974        977      1   0.010573   0.017026     2.60142e-01     2.09200e-02
       973        981      1  -0.016521   0.015716     3.00055e-01     6.91943e-02
       973        980      1  -0.016521   0.015716     3.00055e-01     6.91943e-02
       972        976      1   0.011511  -0.022462     3.00055e-01     6.91943e-02
       972        974      1   0.011511   0.008811     2.60142e-01     2.09200e-02
       972        975      1   0.011511   0.008811     2.60142e-01     2.09200e-02
       971        976      1   0.011511  -0.022462     3.00055e-01     6.91943e-02
       971        974      1   0.011511   0.008811     2.60142e-01     2.09200e-02
       971        975      1   0.011511   0.008811     2.60142e-01     2.09200e-02
       970        978      1  -0.027812   0.017026     3.00055e-01     6.91943e-02
       970        977      1  -0.027812   0.017026     3.00055e-01     6.91943e-02
       969        973      1   0.006833  -0.013767     3.00055e-01     6.91943e-02
       969        971      1   0.006833   0.009592     2.60142e-01     2.09200e-02
       969        972      1   0.006833   0.009592     2.60142e-01     2.09200e-02
       968        973      1   0.006833  -0.013767     3.00055e-01     6.91943e-02
       968        971      1   0.006833   0.009592     2.60142e-01     2.09200e-02
       968        972      1   0.006833   0.009592     2.60142e-01     2.09200e-02
       967        974      1  -0.004386   0.008811     3.00055e-01     6.91943e-02
       967        975      1  -0.004386   0.008811     3.00055e-01     6.91943e-02
       966        970      1   0.011241  -0.023177     3.00055e-01     6.91943e-02
       966        968      1   0.011241   0.005694     2.60142e-01     2.09200e-02
       966        969      1   0.011241   0.005694     2.60142e-01     2.09200e-02
       965        970      1   0.011241  -0.023177     3.00055e-01     6.91943e-02
       965        968      1   0.011241   0.005694     2.60142e-01     2.09200e-02
       965        969      1   0.011241   0.005694     2.60142e-01     2.09200e-02
       964        971      1  -0.026451   0.009592     3.00055e-01     6.91943e-02
       964        972      1  -0.026451   0.009592     3.00055e-01     6.91943e-02
       963        967      1   0.010172  -0.003655     3.00055e-01     6.91943e-02
       963        966      1   0.010172   0.009367     2.60142e-01     2.09200e-02
       963        965      1   0.010172   0.009367     2.60142e-01     2.09200e-02
       962        967      1   0.010172  -0.003655     3.00055e-01     6.91943e-02
       962        966      1   0.010172   0.009367     2.60142e-01     2.09200e-02
       962        965      1   0.010172   0.009367     2.60142e-01     2.09200e-02
       961        968      1  -0.014653   0.005694     3.00055e-01     6.91943e-02
       961        969      1  -0.014653   0.005694     3.00055e-01     6.91943e-02
       960        964      1   0.010037  -0.022042     3.00055e-01     6.91943e-02
       960        962      1   0.010037   0.008477     2.60142e-01     2.09200e-02
       960        963      1   0.010037   0.008477     2.60142e-01     2.09200e-02
       959        964      1   0.010037  -0.022042     3.00055e-01     6.91943e-02
       959        962      1   0.010037   0.008477     2.60142e-01     2.09200e-02
       959        963      1   0.010037   0.008477     2.60142e-01     2.09200e-02
       958        966      1  -0.021025   0.009367     3.00055e-01     6.91943e-02
       958        965      1  -0.021025   0.009367     3.00055e-01     6.91943e-02
       957        961      1   0.012677  -0.012211     3.00055e-01     6.91943e-02
       957        960      1   0.012677   0.008364     2.60142e-01     2.09200e-02
       957        959      1   0.012677   0.008364     2.60142e-01     2.09200e-02
       956        961      1   0.012677  -0.012211     3.00055e-01     6.91943e-02
       956        960      1   0.012677   0.008364     2.60142e-01     2.09200e-02
       956        959      1   0.012677   0.008364     2.60142e-01     2.09200e-02
       955        962      1  -0.031787   0.008477     3.00055e-01     6.91943e-02
       955        963      1  -0.031787   0.008477     3.00055e-01     6.91943e-02
       954        958      1   0.017208  -0.017521     3.00055e-01     6.91943e-02
       954        956      1   0.017208   0.010564     2.60142e-01     2.09200e-02
       954        957      1   0.017208   0.010564     2.60142e-01     2.09200e-02
       953        958      1   0.017208  -0.017521     3.00055e-01     6.91943e-02
       953        956      1   0.017208   0.010564     2.60142e-01     2.09200e-02
       953        957      1   0.017208   0.010564     2.60142e-01     2.09200e-02
       952        960      1  -0.028094   0.008364     3.00055e-01     6.91943e-02
       952        959      1  -0.028094   0.008364     3.00055e-01     6.91943e-02
       951        955      1   0.007531  -0.026489     3.00055e-01     6.91943e-02
       951        954      1   0.007531   0.014340     2.60142e-01     2.09200e-02
       951        953      1   0.007531   0.014340     2.60142e-01     2.09200e-02
       950        955      1   0.007531  -0.026489     3.00055e-01     6.91943e-02
       950        954      1   0.007531   0.014340     2.60142e-01     2.09200e-02
       950        953      1   0.007531   0.014340     2.60142e-01     2.09200e-02
       949        956      1   0.017463   0.010564     3.00055e-01     6.91943e-02
       949        957      1   0.017463   0.010564     3.00055e-01     6.91943e-02
       948        952      1   0.025511  -0.023412     3.00055e-01     6.91943e-02
       948        950      1   0.025511   0.006276     2.60142e-01     2.09200e-02
       948        951      1   0.025511   0.006276     2.60142e-01     2.09200e-02
       947        952      1   0.025511  -0.023412     3.00055e-01     6.91943e-02
       947        950      1   0.025511   0.006276     2.60142e-01     2.09200e-02
       947        951      1   0.025511   0.006276     2.60142e-01     2.09200e-02
       946        954      1  -0.111712   0.014340     3.00055e-01     6.91943e-02
       946        953      1  -0.111712   0.014340     3.00055e-01     6.91943e-02
       945        952      1   0.025511  -0.023412     3.00055e-01     6.91943e-02
       945        950      1   0.025511   0.006276     2.60142e-01     2.09200e-02
       945        951      1   0.025511   0.006276     2.60142e-01     2.09200e-02
      1022       1062      1  -0.673755   0.044953     2.78067e-01     9.58675e-02
      1022       1061      1  -0.673755   0.044953     2.78067e-01     9.58675e-02
      1021       1059      1   0.897613   0.015716     3.00055e-01     6.13495e-02
      1021       1058      1   0.897613   0.015716     3.00055e-01     6.13495e-02
      1020       1062      1  -0.552948   0.044953     2.80072e-01     8.62554e-02
      1020       1061      1  -0.552948   0.044953     2.80072e-01     8.62554e-02
      1013       1014      1   0.172230  -0.282478     2.67982e-01     8.67002e-02
      1012       1014      1   0.172230  -0.282478     2.67982e-01     8.67002e-02
      1011       1014      1   0.172230  -0.282478     2.67982e-01     8.67002e-02
      1010       1015      1  -0.338973   0.143525     2.67982e-01     8.67002e-02
      1010       1016      1  -0.338973   0.143525     2.67982e-01     8.67002e-02
      1010       1017      1  -0.338973   0.143525     2.67982e-01     8.67002e-02
      1009       1010      1   0.172230  -0.282478     2.67982e-01     8.67002e-02
      1009       1014      1   0.172230  -0.282478     2.67982e-01     8.67002e-02
      1008       1010      1   0.172230  -0.282478     2.67982e-01     8.67002e-02
      1008       1014      1   0.172230  -0.282478     2.67982e-01     8.67002e-02
      1007       1010      1   0.172230  -0.282478     2.67982e-01     8.67002e-02
      1007       1014      1   0.172230  -0.282478     2.67982e-01     8.67002e-02
      1006       1011      1  -0.338973   0.143525     2.67982e-01     8.67002e-02
      1006       1012      1  -0.338973   0.143525     2.67982e-01     8.67002e-02
      1006       1013      1  -0.338973   0.143525     2.67982e-01     8.67002e-02
      1006       1015      1  -0.338973   0.143525     2.67982e-01     8.67002e-02
      1006       1016      1  -0.338973   0.143525     2.67982e-01     8.67002e-02
      1006       1017      1  -0.338973   0.143525     2.67982e-01     8.67002e-02
      1004       1006      1   0.136415  -0.282478     2.67982e-01     8.67002e-02
      1004       1010      1   0.136415  -0.282478     2.67982e-01     8.67002e-02
      1004       1014      1   0.136415  -0.282478     2.67982e-01     8.67002e-02
      1003       1006      1   0.136415  -0.282478     2.67982e-01     8.67002e-02
      1003       1010      1   0.136415  -0.282478     2.67982e-01     8.67002e-02
      1003       1014      1   0.136415  -0.282478     2.67982e-01     8.67002e-02
      1002       1007      1  -0.170824   0.143525     2.67982e-01     8.67002e-02
      1002       1008      1  -0.170824   0.143525     2.67982e-01     8.67002e-02
      1002       1009      1  -0.170824   0.143525     2.67982e-01     8.67002e-02
      1002       1011      1  -0.170824   0.143525     2.67982e-01     8.67002e-02
      1002       1012      1  -0.170824   0.143525     2.67982e-01     8.67002e-02
      1002       1013      1  -0.170824   0.143525     2.67982e-01     8.67002e-02
      1002       1015      1  -0.170824   0.143525     2.67982e-01     8.67002e-02
      1002       1016      1  -0.170824   0.143525     2.67982e-01     8.67002e-02
      1002       1017      1  -0.170824   0.143525     2.67982e-01     8.67002e-02
      1001       1003      1   0.078534   0.113679     2.21567e-01     3.28444e-02
      1001       1004      1   0.078534   0.113679     2.21567e-01     3.28444e-02
      1001       1005      1   0.078534   0.204385     2.86068e-01     1.08078e-01
      1000       1003      1   0.078534   0.113679     2.21567e-01     3.28444e-02
      1000       1004      1   0.078534   0.113679     2.21567e-01     3.28444e-02
      1000       1005      1   0.078534   0.204385     2.86068e-01     1.08078e-01
       998       1003      1  -0.508176   0.113679     2.47999e-01     1.08078e-01
       998       1004      1  -0.508176   0.113679     2.47999e-01     1.08078e-01
       997       1000      1   1.339721   0.065445     3.10656e-01     1.17227e-01
       997       1001      1   1.339721   0.065445     3.10656e-01     1.17227e-01
       995       1020      1   0.095591  -0.460790     2.73568e-01     1.08078e-01
       995        997      1   0.095591   1.116434     3.10656e-01     1.17227e-01
       994       1020      1   0.095591  -0.460790     2.73568e-01     1.08078e-01
       994        997      1   0.095591   1.116434     3.10656e-01     1.17227e-01
       992        994      1   0.063253   0.079659     2.47135e-01     3.28444e-02
       992        995      1   0.063253   0.079659     2.47135e-01     3.28444e-02
       992        996      1   0.063253  -0.424567     2.73568e-01     1.08078e-01
       992       1021      1   0.063253   0.748011     2.93551e-01     7.68707e-02
       990        992      1   0.070469   0.052711     2.47135e-01     3.28444e-02
       990        993      1   0.070469   0.014549     2.93551e-01     8.67002e-02
       990       1020      1   0.070469  -0.460790     2.73568e-01     1.08078e-01
       989        992      1   0.070469   0.052711     2.47135e-01     3.28444e-02
       989        993      1   0.070469   0.014549     2.93551e-01     8.67002e-02
       989       1020      1   0.070469  -0.460790     2.73568e-01     1.08078e-01
       988        994      1   0.196939   0.079659     2.93551e-01     8.67002e-02
       988        995      1   0.196939   0.079659     2.93551e-01     8.67002e-02
       987        992      1  -0.575489   0.052711     2.73568e-01     1.08078e-01
       985        989      1   0.910403   0.058724     2.93551e-01     7.68707e-02
       985        990      1   0.910403   0.058724     2.93551e-01     7.68707e-02
      1059       1062      1   0.018859   0.044953     2.60142e-01     2.09200e-02
      1059       1061      1   0.018859   0.044953     2.60142e-01     2.09200e-02
      1058       1062      1   0.018859   0.044953     2.60142e-01     2.09200e-02
      1058       1061      1   0.018859   0.044953     2.60142e-01     2.09200e-02
      1056       1060      1   0.020431  -0.136833     3.00055e-01     6.91943e-02
      1056       1059      1   0.020431   0.015716     2.60142e-01     2.09200e-02
      1056       1058      1   0.020431   0.015716     2.60142e-01     2.09200e-02
      1055       1060      1   0.020431  -0.136833     3.00055e-01     6.91943e-02
      1055       1059      1   0.020431   0.015716     2.60142e-01     2.09200e-02
      1055       1058      1   0.020431   0.015716     2.60142e-01     2.09200e-02
      1054       1062      1  -0.026954   0.044953     3.00055e-01     6.91943e-02
      1054       1061      1  -0.026954   0.044953     3.00055e-01     6.91943e-02
      1053       1057      1   0.010573  -0.002029     3.00055e-01     6.91943e-02
      1053       1056      1   0.010573   0.017026     2.60142e-01     2.09200e-02
      1053       1055      1   0.010573   0.017026     2.60142e-01     2.09200e-02
      1052       1057      1   0.010573  -0.002029     3.00055e-01     6.91943e-02
      1052       1056      1   0.010573   0.017026     2.60142e-01     2.09200e-02
      1052       1055      1   0.010573   0.017026     2.60142e-01     2.09200e-02
      1051       1059      1  -0.016521   0.015716     3.00055e-01     6.91943e-02
      1051       1058      1  -0.016521   0.015716     3.00055e-01     6.91943e-02
      1050       1054      1   0.011511  -0.022462     3.00055e-01     6.91943e-02
      1050       1052      1   0.011511   0.008811     2.60142e-01     2.09200e-02
      1050       1053      1   0.011511   0.008811     2.60142e-01     2.09200e-02
      1049       1054      1   0.011511  -0.022462     3.00055e-01     6.91943e-02
      1049       1052      1   0.011511   0.008811     2.60142e-01     2.09200e-02
      1049       1053      1   0.011511   0.008811     2.60142e-01     2.09200e-02
      1048       1056      1  -0.027812   0.017026     3.00055e-01     6.91943e-02
      1048       1055      1  -0.027812   0.017026     3.00055e-01     6.91943e-02
      1047       1051      1   0.006833  -0.013767     3.00055e-01     6.91943e-02
      1047       1049      1   0.006833   0.009592     2.60142e-01     2.09200e-02
      1047       1050      1   0.006833   0.009592     2.60142e-01     2.09200e-02
      1046       1051      1   0.006833  -0.013767     3.00055e-01     6.91943e-02
      1046       1049      1   0.006833   0.009592     2.60142e-01     2.09200e-02
      1046       1050      1   0.006833   0.009592     2.60142e-01     2.09200e-02
      1045       1052      1  -0.004386   0.008811     3.00055e-01     6.91943e-02
      1045       1053      1  -0.004386   0.008811     3.00055e-01     6.91943e-02
      1044       1048      1   0.011241  -0.023177     3.00055e-01     6.91943e-02
      1044       1046      1   0.011241   0.005694     2.60142e-01     2.09200e-02
      1044       1047      1   0.011241   0.005694     2.60142e-01     2.09200e-02
      1043       1048      1   0.011241  -0.023177     3.00055e-01     6.91943e-02
      1043       1046      1   0.011241   0.005694     2.60142e-01     2.09200e-02
      1043       1047      1   0.011241   0.005694     2.60142e-01     2.09200e-02
      1042       1049      1  -0.026451   0.009592     3.00055e-01     6.91943e-02
      1042       1050      1  -0.026451   0.009592     3.00055e-01     6.91943e-02
      1041       1045      1   0.010172  -0.003655     3.00055e-01     6.91943e-02
      1041       1044      1   0.010172   0.009367     2.60142e-01     2.09200e-02
      1041       1043      1   0.010172   0.009367     2.60142e-01     2.09200e-02
      1040       1045      1   0.010172  -0.003655     3.00055e-01     6.91943e-02
      1040       1044      1   0.010172   0.009367     2.60142e-01     2.09200e-02
      1040       1043      1   0.010172   0.009367     2.60142e-01     2.09200e-02
      1039       1046      1  -0.014653   0.005694     3.00055e-01     6.91943e-02
      1039       1047      1  -0.014653   0.005694     3.00055e-01     6.91943e-02
      1038       1042      1   0.010037  -0.022042     3.00055e-01     6.91943e-02
      1038       1040      1   0.010037   0.008477     2.60142e-01     2.09200e-02
      1038       1041      1   0.010037   0.008477     2.60142e-01     2.09200e-02
      1037       1042      1   0.010037  -0.022042     3.00055e-01     6.91943e-02
      1037       1040      1   0.010037   0.008477     2.60142e-01     2.09200e-02
      1037       1041      1   0.010037   0.008477     2.60142e-01     2.09200e-02
      1036       1044      1  -0.021025   0.009367     3.00055e-01     6.91943e-02
      1036       1043      1  -0.021025   0.009367     3.00055e-01     6.91943e-02
      1035       1039      1   0.012677  -0.012211     3.00055e-01     6.91943e-02
      1035       1038      1   0.012677   0.008364     2.60142e-01     2.09200e-02
      1035       1037      1   0.012677   0.008364     2.60142e-01     2.09200e-02
      1034       1039      1   0.012677  -0.012211     3.00055e-01     6.91943e-02
      1034       1038      1   0.012677   0.008364     2.60142e-01     2.09200e-02
      1034       1037      1   0.012677   0.008364     2.60142e-01     2.09200e-02
      1033       1040      1  -0.031787   0.008477     3.00055e-01     6.91943e-02
      1033       1041      1  -0.031787   0.008477     3.00055e-01     6.91943e-02
      1032       1036      1   0.017208  -0.017521     3.00055e-01     6.91943e-02
      1032       1034      1   0.017208   0.010564     2.60142e-01     2.09200e-02
      1032       1035      1   0.017208   0.010564     2.60142e-01     2.09200e-02
      1031       1036      1   0.017208  -0.017521     3.00055e-01     6.91943e-02
      1031       1034      1   0.017208   0.010564     2.60142e-01     2.09200e-02
      1031       1035      1   0.017208   0.010564     2.60142e-01     2.09200e-02
      1030       1038      1  -0.028094   0.008364     3.00055e-01     6.91943e-02
      1030       1037      1  -0.028094   0.008364     3.00055e-01     6.91943e-02
      1029       1033      1   0.007531  -0.026489     3.00055e-01     6.91943e-02
      1029       1032      1   0.007531   0.014340     2.60142e-01     2.09200e-02
      1029       1031      1   0.007531   0.014340     2.60142e-01     2.09200e-02
      1028       1033      1   0.007531  -0.026489     3.00055e-01     6.91943e-02
      1028       1032      1   0.007531   0.014340     2.60142e-01     2.09200e-02
      1028       1031      1   0.007531   0.014340     2.60142e-01     2.09200e-02
      1027       1034      1   0.017463   0.010564     3.00055e-01     6.91943e-02
      1027       1035      1   0.017463   0.010564     3.00055e-01     6.91943e-02
      1026       1030      1   0.025511  -0.023412     3.00055e-01     6.91943e-02
      1026       1028      1   0.025511   0.006276     2.60142e-01     2.09200e-02
      1026       1029      1   0.025511   0.006276     2.60142e-01     2.09200e-02
      1025       1030      1   0.025511  -0.023412     3.00055e-01     6.91943e-02
      1025       1028      1   0.025511   0.006276     2.60142e-01     2.09200e-02
      1025       1029      1   0.025511   0.006276     2.60142e-01     2.09200e-02
      1024       1032      1  -0.111712   0.014340     3.00055e-01     6.91943e-02
      1024       1031      1  -0.111712   0.014340     3.00055e-01     6.91943e-02
      1023       1030      1   0.025511  -0.023412     3.00055e-01     6.91943e-02
      1023       1028      1   0.025511   0.006276     2.60142e-01     2.09200e-02
      1023       1029      1   0.025511   0.006276     2.60142e-01     2.09200e-02
      1102       1104      1   0.053944  -0.559638     2.78067e-01     9.58675e-02
      1102       1105      1   0.053944  -0.479574     2.80072e-01     8.62554e-02
      1101       1104      1   0.053944  -0.559638     2.78067e-01     9.58675e-02
      1101       1105      1   0.053944  -0.479574     2.80072e-01     8.62554e-02
      1099       1102      1   0.018859   0.044953     2.60142e-01     2.09200e-02
      1099       1101      1   0.018859   0.044953     2.60142e-01     2.09200e-02
      1099       1103      1   0.018859   0.758669     3.00055e-01     6.13495e-02
      1098       1102      1   0.018859   0.044953     2.60142e-01     2.09200e-02
      1098       1101      1   0.018859   0.044953     2.60142e-01     2.09200e-02
      1098       1103      1   0.018859   0.758669     3.00055e-01     6.13495e-02
      1096       1100      1   0.020431  -0.136833     3.00055e-01     6.91943e-02
      1096       1099      1   0.020431   0.015716     2.60142e-01     2.09200e-02
      1096       1098      1   0.020431   0.015716     2.60142e-01     2.09200e-02
      1095       1100      1   0.020431  -0.136833     3.00055e-01     6.91943e-02
      1095       1099      1   0.020431   0.015716     2.60142e-01     2.09200e-02
      1095       1098      1   0.020431   0.015716     2.60142e-01     2.09200e-02
      1094       1102      1  -0.026954   0.044953     3.00055e-01     6.91943e-02
      1094       1101      1  -0.026954   0.044953     3.00055e-01     6.91943e-02
      1093       1097      1   0.010573  -0.002029     3.00055e-01     6.91943e-02
      1093       1096      1   0.010573   0.017026     2.60142e-01     2.09200e-02
      1093       1095      1   0.010573   0.017026     2.60142e-01     2.09200e-02
      1092       1097      1   0.010573  -0.002029     3.00055e-01     6.91943e-02
      1092       1096      1   0.010573   0.017026     2.60142e-01     2.09200e-02
      1092       1095      1   0.010573   0.017026     2.60142e-01     2.09200e-02
      1091       1099      1  -0.016521   0.015716     3.00055e-01     6.91943e-02
      1091       1098      1  -0.016521   0.015716     3.00055e-01     6.91943e-02
      1090       1094      1   0.011511  -0.022462     3.00055e-01     6.91943e-02
      1090       1092      1   0.011511   0.008811     2.60142e-01     2.09200e-02
      1090       1093      1   0.011511   0.008811     2.60142e-01     2.09200e-02
      1089       1094      1   0.011511  -0.022462     3.00055e-01     6.91943e-02
      1089       1092      1   0.011511   0.008811     2.60142e-01     2.09200e-02
      1089       1093      1   0.011511   0.008811     2.60142e-01     2.09200e-02
      1088       1096      1  -0.027812   0.017026     3.00055e-01     6.91943e-02
      1088       1095      1  -0.027812   0.017026     3.00055e-01     6.91943e-02
      1087       1091      1   0.006833  -0.013767     3.00055e-01     6.91943e-02
      1087       1089      1   0.006833   0.009592     2.60142e-01     2.09200e-02
      1087       1090      1   0.006833   0.009592     2.60142e-01     2.09200e-02
      1086       1091      1   0.006833  -0.013767     3.00055e-01     6.91943e-02
      1086       1089      1   0.006833   0.009592     2.60142e-01     2.09200e-02
      1086       1090      1   0.006833   0.009592     2.60142e-01     2.09200e-02
      1085       1092      1  -0.004386   0.008811     3.00055e-01     6.91943e-02
      1085       1093      1  -0.004386   0.008811     3.00055e-01     6.91943e-02
      1084       1088      1   0.011241  -0.023177     3.00055e-01     6.91943e-02
      1084       1086      1   0.011241   0.005694     2.60142e-01     2.09200e-02
      1084       1087      1   0.011241   0.005694     2.60142e-01     2.09200e-02
      1083       1088      1   0.011241  -0.023177     3.00055e-01     6.91943e-02
      1083       1086      1   0.011241   0.005694     2.60142e-01     2.09200e-02
      1083       1087      1   0.011241   0.005694     2.60142e-01     2.09200e-02
      1082       1089      1  -0.026451   0.009592     3.00055e-01     6.91943e-02
      1082       1090      1  -0.026451   0.009592     3.00055e-01     6.91943e-02
      1081       1085      1   0.010172  -0.003655     3.00055e-01     6.91943e-02
      1081       1084      1   0.010172   0.009367     2.60142e-01     2.09200e-02
      1081       1083      1   0.010172   0.009367     2.60142e-01     2.09200e-02
      1080       1085      1   0.010172  -0.003655     3.00055e-01     6.91943e-02
      1080       1084      1   0.010172   0.009367     2.60142e-01     2.09200e-02
      1080       1083      1   0.010172   0.009367     2.60142e-01     2.09200e-02
      1079       1086      1  -0.014653   0.005694     3.00055e-01     6.91943e-02
      1079       1087      1  -0.014653   0.005694     3.00055e-01     6.91943e-02
      1078       1082      1   0.010037  -0.022042     3.00055e-01     6.91943e-02
      1078       1080      1   0.010037   0.008477     2.60142e-01     2.09200e-02
      1078       1081      1   0.010037   0.008477     2.60142e-01     2.09200e-02
      1077       1082      1   0.010037  -0.022042     3.00055e-01     6.91943e-02
      1077       1080      1   0.010037   0.008477     2.60142e-01     2.09200e-02
      1077       1081      1   0.010037   0.008477     2.60142e-01     2.09200e-02
      1076       1084      1  -0.021025   0.009367     3.00055e-01     6.91943e-02
      1076       1083      1  -0.021025   0.009367     3.00055e-01     6.91943e-02
      1075       1079      1   0.012677  -0.012211     3.00055e-01     6.91943e-02
      1075       1078      1   0.012677   0.008364     2.60142e-01     2.09200e-02
      1075       1077      1   0.012677   0.008364     2.60142e-01     2.09200e-02
      1074       1079      1   0.012677  -0.012211     3.00055e-01     6.91943e-02
      1074       1078      1   0.012677   0.008364     2.60142e-01     2.09200e-02
      1074       1077      1   0.012677   0.008364     2.60142e-01     2.09200e-02
      1073       1080      1  -0.031787   0.008477     3.00055e-01     6.91943e-02
      1073       1081      1  -0.031787   0.008477     3.00055e-01     6.91943e-02
      1072       1076      1   0.017208  -0.017521     3.00055e-01     6.91943e-02
      1072       1074      1   0.017208   0.010564     2.60142e-01     2.09200e-02
      1072       1075      1   0.017208   0.010564     2.60142e-01     2.09200e-02
      1071       1076      1   0.017208  -0.017521     3.00055e-01     6.91943e-02
      1071       1074      1   0.017208   0.010564     2.60142e-01     2.09200e-02
      1071       1075      1   0.017208   0.010564     2.60142e-01     2.09200e-02
      1070       1078      1  -0.028094   0.008364     3.00055e-01     6.91943e-02
      1070       1077      1  -0.028094   0.008364     3.00055e-01     6.91943e-02
      1069       1073      1   0.007531  -0.026489     3.00055e-01     6.91943e-02
      1069       1072      1   0.007531   0.014340     2.60142e-01     2.09200e-02
      1069       1071      1   0.007531   0.014340     2.60142e-01     2.09200e-02
      1068       1073      1   0.007531  -0.026489     3.00055e-01     6.91943e-02
      1068       1072      1   0.007531   0.014340     2.60142e-01     2.09200e-02
      1068       1071      1   0.007531   0.014340     2.60142e-01     2.09200e-02
      1067       1074      1   0.017463   0.010564     3.00055e-01     6.91943e-02
      1067       1075      1   0.017463   0.010564     3.00055e-01     6.91943e-02
      1066       1070      1   0.025511  -0.023412     3.00055e-01     6.91943e-02
      1066       1068      1   0.025511   0.006276     2.60142e-01     2.09200e-02
      1066       1069      1   0.025511   0.006276     2.60142e-01     2.09200e-02
      1065       1070      1   0.025511  -0.023412     3.00055e-01     6.91943e-02
      1065       1068      1   0.025511   0.006276     2.60142e-01     2.09200e-02
      1065       1069      1   0.025511   0.006276     2.60142e-01     2.09200e-02
      1064       1072      1  -0.111712   0.014340     3.00055e-01     6.91943e-02
      1064       1071      1  -0.111712   0.014340     3.00055e-01     6.91943e-02
      1063       1070      1   0.025511  -0.023412     3.00055e-01     6.91943e-02
      1063       1068      1   0.025511   0.006276     2.60142e-01     2.09200e-02
      1063       1069      1   0.025511   0.006276     2.60142e-01     2.09200e-02
      1140       1180      1  -0.673755   0.044953     2.78067e-01     9.58675e-02
      1140       1179      1  -0.673755   0.044953     2.78067e-01     9.58675e-02
      1139       1177      1   0.897613   0.015716     3.00055e-01     6.13495e-02
      1139       1176      1   0.897613   0.015716     3.00055e-01     6.13495e-02
      1138       1180      1  -0.552948   0.044953     2.80072e-01     8.62554e-02
      1138       1179      1  -0.552948   0.044953     2.80072e-01     8.62554e-02
      1131       1132      1   0.172230  -0.282478     2.67982e-01     8.67002e-02
      1130       1132      1   0.172230  -0.282478     2.67982e-01     8.67002e-02
      1129       1132      1   0.172230  -0.282478     2.67982e-01     8.67002e-02
      1128       1133      1  -0.338973   0.143525     2.67982e-01     8.67002e-02
      1128       1134      1  -0.338973   0.143525     2.67982e-01     8.67002e-02
      1128       1135      1  -0.338973   0.143525     2.67982e-01     8.67002e-02
      1127       1128      1   0.172230  -0.282478     2.67982e-01     8.67002e-02
      1127       1132      1   0.172230  -0.282478     2.67982e-01     8.67002e-02
      1126       1128      1   0.172230  -0.282478     2.67982e-01     8.67002e-02
      1126       1132      1   0.172230  -0.282478     2.67982e-01     8.67002e-02
      1125       1128      1   0.172230  -0.282478     2.67982e-01     8.67002e-02
      1125       1132      1   0.172230  -0.282478     2.67982e-01     8.67002e-02
      1124       1129      1  -0.338973   0.143525     2.67982e-01     8.67002e-02
      1124       1130      1  -0.338973   0.143525     2.67982e-01     8.67002e-02
      1124       1131      1  -0.338973   0.143525     2.67982e-01     8.67002e-02
      1124       1133      1  -0.338973   0.143525     2.67982e-01     8.67002e-02
      1124       1134      1  -0.338973   0.143525     2.67982e-01     8.67002e-02
      1124       1135      1  -0.338973   0.143525     2.67982e-01     8.67002e-02
      1122       1124      1   0.136415  -0.282478     2.67982e-01     8.67002e-02
      1122       1128      1   0.136415  -0.282478     2.67982e-01     8.67002e-02
      1122       1132      1   0.136415  -0.282478     2.67982e-01     8.67002e-02
      1121       1124      1   0.136415  -0.282478     2.67982e-01     8.67002e-02
      1121       1128      1   0.136415  -0.282478     2.67982e-01     8.67002e-02
      1121       1132      1   0.136415  -0.282478     2.67982e-01     8.67002e-02
      1120       1125      1  -0.170824   0.143525     2.67982e-01     8.67002e-02
      1120       1126      1  -0.170824   0.143525     2.67982e-01     8.67002e-02
      1120       1127      1  -0.170824   0.143525     2.67982e-01     8.67002e-02
      1120       1129      1  -0.170824   0.143525     2.67982e-01     8.67002e-02
      1120       1130      1  -0.170824   0.143525     2.67982e-01     8.67002e-02
      1120       1131      1  -0.170824   0.143525     2.67982e-01     8.67002e-02
      1120       1133      1  -0.170824   0.143525     2.67982e-01     8.67002e-02
      1120       1134      1  -0.170824   0.143525     2.67982e-01     8.67002e-02
      1120       1135      1  -0.170824   0.143525     2.67982e-01     8.67002e-02
      1119       1121      1   0.078534   0.113679     2.21567e-01     3.28444e-02
      1119       1122      1   0.078534   0.113679     2.21567e-01     3.28444e-02
      1119       1123      1   0.078534   0.204385     2.86068e-01     1.08078e-01
      1118       1121      1   0.078534   0.113679     2.21567e-01     3.28444e-02
      1118       1122      1   0.078534   0.113679     2.21567e-01     3.28444e-02
      1118       1123      1   0.078534   0.204385     2.86068e-01     1.08078e-01
      1116       1121      1  -0.508176   0.113679     2.47999e-01     1.08078e-01
      1116       1122      1  -0.508176   0.113679     2.47999e-01     1.08078e-01
      1115       1118      1   1.339721   0.065445     3.10656e-01     1.17227e-01
      1115       1119      1   1.339721   0.065445     3.10656e-01     1.17227e-01
      1113       1138      1   0.095591  -0.460790     2.73568e-01     1.08078e-01
      1113       1115      1   0.095591   1.116434     3.10656e-01     1.17227e-01
      1112       1138      1   0.095591  -0.460790     2.73568e-01     1.08078e-01
      1112       1115      1   0.095591   1.116434     3.10656e-01     1.17227e-01
      1110       1112      1   0.063253   0.079659     2.47135e-01     3.28444e-02
      1110       1113      1   0.063253   0.079659     2.47135e-01     3.28444e-02
      1110       1114      1   0.063253  -0.424567     2.73568e-01     1.08078e-01
      1110       1139      1   0.063253   0.748011     2.93551e-01     7.68707e-02
      1108       1110      1   0.070469   0.052711     2.47135e-01     3.28444e-02
      1108       1111      1   0.070469   0.014549     2.93551e-01     8.67002e-02
      1108       1138      1   0.070469  -0.460790     2.73568e-01     1.08078e-01
      1107       1110      1   0.070469   0.052711     2.47135e-01     3.28444e-02
      1107       1111      1   0.070469   0.014549     2.93551e-01     8.67002e-02
      1107       1138      1   0.070469  -0.460790     2.73568e-01     1.08078e-01
      1106       1112      1   0.196939   0.079659     2.93551e-01     8.67002e-02
      1106       1113      1   0.196939   0.079659     2.93551e-01     8.67002e-02
      1105       1110      1  -0.575489   0.052711     2.73568e-01     1.08078e-01
      1103       1107      1   0.910403   0.058724     2.93551e-01     7.68707e-02
      1103       1108      1   0.910403   0.058724     2.93551e-01     7.68707e-02
      1177       1180      1   0.018859   0.044953     2.60142e-01     2.09200e-02
      1177       1179      1   0.018859   0.044953     2.60142e-01     2.09200e-02
      1176       1180      1   0.018859   0.044953     2.60142e-01     2.09200e-02
      1176       1179      1   0.018859   0.044953     2.60142e-01     2.09200e-02
      1174       1178      1   0.020431  -0.136833     3.00055e-01     6.91943e-02
      1174       1177      1   0.020431   0.015716     2.60142e-01     2.09200e-02
      1174       1176      1   0.020431   0.015716     2.60142e-01     2.09200e-02
      1173       1178      1   0.020431  -0.136833     3.00055e-01     6.91943e-02
      1173       1177      1   0.020431   0.015716     2.60142e-01     2.09200e-02
      1173       1176      1   0.020431   0.015716     2.60142e-01     2.09200e-02
      1172       1180      1  -0.026954   0.044953     3.00055e-01     6.91943e-02
      1172       1179      1  -0.026954   0.044953     3.00055e-01     6.91943e-02
      1171       1175      1   0.010573  -0.002029     3.00055e-01     6.91943e-02
      1171       1174      1   0.010573   0.017026     2.60142e-01     2.09200e-02
      1171       1173      1   0.010573   0.017026     2.60142e-01     2.09200e-02
      1170       1175      1   0.010573  -0.002029     3.00055e-01     6.91943e-02
      1170       1174      1   0.010573   0.017026     2.60142e-01     2.09200e-02
      1170       1173      1   0.010573   0.017026     2.60142e-01     2.09200e-02
      1169       1177      1  -0.016521   0.015716     3.00055e-01     6.91943e-02
      1169       1176      1  -0.016521   0.015716     3.00055e-01     6.91943e-02
      1168       1172      1   0.011511  -0.022462     3.00055e-01     6.91943e-02
      1168       1170      1   0.011511   0.008811     2.60142e-01     2.09200e-02
      1168       1171      1   0.011511   0.008811     2.60142e-01     2.09200e-02
      1167       1172      1   0.011511  -0.022462     3.00055e-01     6.91943e-02
      1167       1170      1   0.011511   0.008811     2.60142e-01     2.09200e-02
      1167       1171      1   0.011511   0.008811     2.60142e-01     2.09200e-02
      1166       1174      1  -0.027812   0.017026     3.00055e-01     6.91943e-02
      1166       1173      1  -0.027812   0.017026     3.00055e-01     6.91943e-02
      1165       1169      1   0.006833  -0.013767     3.00055e-01     6.91943e-02
      1165       1167      1   0.006833   0.009592     2.60142e-01     2.09200e-02
      1165       1168      1   0.006833   0.009592     2.60142e-01     2.09200e-02
      1164       1169      1   0.006833  -0.013767     3.00055e-01     6.91943e-02
      1164       1167      1   0.006833   0.009592     2.60142e-01     2.09200e-02
      1164       1168      1   0.006833   0.009592     2.60142e-01     2.09200e-02
      1163       1170      1  -0.004386   0.008811     3.00055e-01     6.91943e-02
      1163       1171      1  -0.004386   0.008811     3.00055e-01     6.91943e-02
      1162       1166      1   0.011241  -0.023177     3.00055e-01     6.91943e-02
      1162       1164      1   0.011241   0.005694     2.60142e-01     2.09200e-02
      1162       1165      1   0.011241   0.005694     2.60142e-01     2.09200e-02
      1161       1166      1   0.011241  -0.023177     3.00055e-01     6.91943e-02
      1161       1164      1   0.011241   0.005694     2.60142e-01     2.09200e-02
      1161       1165      1   0.011241   0.005694     2.60142e-01     2.09200e-02
      1160       1167      1  -0.026451   0.009592     3.00055e-01     6.91943e-02
      1160       1168      1  -0.026451   0.009592     3.00055e-01     6.91943e-02
      1159       1163      1   0.010172  -0.003655     3.00055e-01     6.91943e-02
      1159       1162      1   0.010172   0.009367     2.60142e-01     2.09200e-02
      1159       1161      1   0.010172   0.009367     2.60142e-01     2.09200e-02
      1158       1163      1   0.010172  -0.003655     3.00055e-01     6.91943e-02
      1158       1162      1   0.010172   0.009367     2.60142e-01     2.09200e-02
      1158       1161      1   0.010172   0.009367     2.60142e-01     2.09200e-02
      1157       1164      1  -0.014653   0.005694     3.00055e-01     6.91943e-02
      1157       1165      1  -0.014653   0.005694     3.00055e-01     6.91943e-02
      1156       1160      1   0.010037  -0.022042     3.00055e-01     6.91943e-02
      1156       1158      1   0.010037   0.008477     2.60142e-01     2.09200e-02
      1156       1159      1   0.010037   0.008477     2.60142e-01     2.09200e-02
      1155       1160      1   0.010037  -0.022042     3.00055e-01     6.91943e-02
      1155       1158      1   0.010037   0.008477     2.60142e-01     2.09200e-02
      1155       1159      1   0.010037   0.008477     2.60142e-01     2.09200e-02
      1154       1162      1  -0.021025   0.009367     3.00055e-01     6.91943e-02
      1154       1161      1  -0.021025   0.009367     3.00055e-01     6.91943e-02
      1153       1157      1   0.012677  -0.012211     3.00055e-01     6.91943e-02
      1153       1156      1   0.012677   0.008364     2.60142e-01     2.09200e-02
      1153       1155      1   0.012677   0.008364     2.60142e-01     2.09200e-02
      1152       1157      1   0.012677  -0.012211     3.00055e-01     6.91943e-02
      1152       1156      1   0.012677   0.008364     2.60142e-01     2.09200e-02
      1152       1155      1   0.012677   0.008364     2.60142e-01     2.09200e-02
      1151       1158      1  -0.031787   0.008477     3.00055e-01     6.91943e-02
      1151       1159      1  -0.031787   0.008477     3.00055e-01     6.91943e-02
      1150       1154      1   0.017208  -0.017521     3.00055e-01     6.91943e-02
      1150       1152      1   0.017208   0.010564     2.60142e-01     2.09200e-02
      1150       1153      1   0.017208   0.010564     2.60142e-01     2.09200e-02
      1149       1154      1   0.017208  -0.017521     3.00055e-01     6.91943e-02
      1149       1152      1   0.017208   0.010564     2.60142e-01     2.09200e-02
      1149       1153      1   0.017208   0.010564     2.60142e-01     2.09200e-02
      1148       1156      1  -0.028094   0.008364     3.00055e-01     6.91943e-02
      1148       1155      1  -0.028094   0.008364     3.00055e-01     6.91943e-02
      1147       1151      1   0.007531  -0.026489     3.00055e-01     6.91943e-02
      1147       1150      1   0.007531   0.014340     2.60142e-01     2.09200e-02
      1147       1149      1   0.007531   0.014340     2.60142e-01     2.09200e-02
      1146       1151      1   0.007531  -0.026489     3.00055e-01     6.91943e-02
      1146       1150      1   0.007531   0.014340     2.60142e-01     2.09200e-02
      1146       1149      1   0.007531   0.014340     2.60142e-01     2.09200e-02
      1145       1152      1   0.017463   0.010564     3.00055e-01     6.91943e-02
      1145       1153      1   0.017463   0.010564     3.00055e-01     6.91943e-02
      1144       1148      1   0.025511  -0.023412     3.00055e-01     6.91943e-02
      1144       1146      1   0.025511   0.006276     2.60142e-01     2.09200e-02
      1144       1147      1   0.025511   0.006276     2.60142e-01     2.09200e-02
      1143       1148      1   0.025511  -0.023412     3.00055e-01     6.91943e-02
      1143       1146      1   0.025511   0.006276     2.60142e-01     2.09200e-02
      1143       1147      1   0.025511   0.006276     2.60142e-01     2.09200e-02
      1142       1150      1  -0.111712   0.014340     3.00055e-01     6.91943e-02
      1142       1149      1  -0.111712   0.014340     3.00055e-01     6.91943e-02
      1141       1148      1   0.025511  -0.023412     3.00055e-01     6.91943e-02
      1141       1146      1   0.025511   0.006276     2.60142e-01     2.09200e-02
      1141       1147      1   0.025511   0.006276     2.60142e-01     2.09200e-02
      1220       1222      1   0.053944  -0.559638     2.78067e-01     9.58675e-02
      1220       1223      1   0.053944  -0.479574     2.80072e-01     8.62554e-02
      1219       1222      1   0.053944  -0.559638     2.78067e-01     9.58675e-02
      1219       1223      1   0.053944  -0.479574     2.80072e-01     8.62554e-02
      1217       1220      1   0.018859   0.044953     2.60142e-01     2.09200e-02
      1217       1219      1   0.018859   0.044953     2.60142e-01     2.09200e-02
      1217       1221      1   0.018859   0.758669     3.00055e-01     6.13495e-02
      1216       1220      1   0.018859   0.044953     2.60142e-01     2.09200e-02
      1216       1219      1   0.018859   0.044953     2.60142e-01     2.09200e-02
      1216       1221      1   0.018859   0.758669     3.00055e-01     6.13495e-02
      1214       1218      1   0.020431  -0.136833     3.00055e-01     6.91943e-02
      1214       1217      1   0.020431   0.015716     2.60142e-01     2.09200e-02
      1214       1216      1   0.020431   0.015716     2.60142e-01     2.09200e-02
      1213       1218      1   0.020431  -0.136833     3.00055e-01     6.91943e-02
      1213       1217      1   0.020431   0.015716     2.60142e-01     2.09200e-02
      1213       1216      1   0.020431   0.015716     2.60142e-01     2.09200e-02
      1212       1220      1  -0.026954   0.044953     3.00055e-01     6.91943e-02
      1212       1219      1  -0.026954   0.044953     3.00055e-01     6.91943e-02
      1211       1215      1   0.010573  -0.002029     3.00055e-01     6.91943e-02
      1211       1214      1   0.010573   0.017026     2.60142e-01     2.09200e-02
      1211       1213      1   0.010573   0.017026     2.60142e-01     2.09200e-02
      1210       1215      1   0.010573  -0.002029     3.00055e-01     6.91943e-02
      1210       1214      1   0.010573   0.017026     2.60142e-01     2.09200e-02
      1210       1213      1   0.010573   0.017026     2.60142e-01     2.09200e-02
      1209       1217      1  -0.016521   0.015716     3.00055e-01     6.91943e-02
      1209       1216      1  -0.016521   0.015716     3.00055e-01     6.91943e-02
      1208       1212      1   0.011511  -0.022462     3.00055e-01     6.91943e-02
      1208       1210      1   0.011511   0.008811     2.60142e-01     2.09200e-02
      1208       1211      1   0.011511   0.008811     2.60142e-01     2.09200e-02
      1207       1212      1   0.011511  -0.022462     3.00055e-01     6.91943e-02
      1207       1210      1   0.011511   0.008811     2.60142e-01     2.09200e-02
      1207       1211      1   0.011511   0.008811     2.60142e-01     2.09200e-02
      1206       1214      1  -0.027812   0.017026     3.00055e-01     6.91943e-02
      1206       1213      1  -0.027812   0.017026     3.00055e-01     6.91943e-02
      1205       1209      1   0.006833  -0.013767     3.00055e-01     6.91943e-02
      1205       1207      1   0.006833   0.009592     2.60142e-01     2.09200e-02
      1205       1208      1   0.006833   0.009592     2.60142e-01     2.09200e-02
      1204       1209      1   0.006833  -0.013767     3.00055e-01     6.91943e-02
      1204       1207      1   0.006833   0.009592     2.60142e-01     2.09200e-02
      1204       1208      1   0.006833   0.009592     2.60142e-01     2.09200e-02
      1203       1210      1  -0.004386   0.008811     3.00055e-01     6.91943e-02
      1203       1211      1  -0.004386   0.008811     3.00055e-01     6.91943e-02
      1202       1206      1   0.011241  -0.023177     3.00055e-01     6.91943e-02
      1202       1204      1   0.011241   0.005694     2.60142e-01     2.09200e-02
      1202       1205      1   0.011241   0.005694     2.60142e-01     2.09200e-02
      1201       1206      1   0.011241  -0.023177     3.00055e-01     6.91943e-02
      1201       1204      1   0.011241   0.005694     2.60142e-01     2.09200e-02
      1201       1205      1   0.011241   0.005694     2.60142e-01     2.09200e-02
      1200       1207      1  -0.026451   0.009592     3.00055e-01     6.91943e-02
      1200       1208      1  -0.026451   0.009592     3.00055e-01     6.91943e-02
      1199       1203      1   0.010172  -0.003655     3.00055e-01     6.91943e-02
      1199       1202      1   0.010172   0.009367     2.60142e-01     2.09200e-02
      1199       1201      1   0.010172   0.009367     2.60142e-01     2.09200e-02
      1198       1203      1   0.010172  -0.003655     3.00055e-01     6.91943e-02
      1198       1202      1   0.010172   0.009367     2.60142e-01     2.09200e-02
      1198       1201      1   0.010172   0.009367     2.60142e-01     2.09200e-02
      1197       1204      1  -0.014653   0.005694     3.00055e-01     6.91943e-02
      1197       1205      1  -0.014653   0.005694     3.00055e-01     6.91943e-02
      1196       1200      1   0.010037  -0.022042     3.00055e-01     6.91943e-02
      1196       1198      1   0.010037   0.008477     2.60142e-01     2.09200e-02
      1196       1199      1   0.010037   0.008477     2.60142e-01     2.09200e-02
      1195       1200      1   0.010037  -0.022042     3.00055e-01     6.91943e-02
      1195       1198      1   0.010037   0.008477     2.60142e-01     2.09200e-02
      1195       1199      1   0.010037   0.008477     2.60142e-01     2.09200e-02
      1194       1202      1  -0.021025   0.009367     3.00055e-01     6.91943e-02
      1194       1201      1  -0.021025   0.009367     3.00055e-01     6.91943e-02
      1193       1197      1   0.012677  -0.012211     3.00055e-01     6.91943e-02
      1193       1196      1   0.012677   0.008364     2.60142e-01     2.09200e-02
      1193       1195      1   0.012677   0.008364     2.60142e-01     2.09200e-02
      1192       1197      1   0.012677  -0.012211     3.00055e-01     6.91943e-02
      1192       1196      1   0.012677   0.008364     2.60142e-01     2.09200e-02
      1192       1195      1   0.012677   0.008364     2.60142e-01     2.09200e-02
      1191       1198      1  -0.031787   0.008477     3.00055e-01     6.91943e-02
      1191       1199      1  -0.031787   0.008477     3.00055e-01     6.91943e-02
      1190       1194      1   0.017208  -0.017521     3.00055e-01     6.91943e-02
      1190       1192      1   0.017208   0.010564     2.60142e-01     2.09200e-02
      1190       1193      1   0.017208   0.010564     2.60142e-01     2.09200e-02
      1189       1194      1   0.017208  -0.017521     3.00055e-01     6.91943e-02
      1189       1192      1   0.017208   0.010564     2.60142e-01     2.09200e-02
      1189       1193      1   0.017208   0.010564     2.60142e-01     2.09200e-02
      1188       1196      1  -0.028094   0.008364     3.00055e-01     6.91943e-02
      1188       1195      1  -0.028094   0.008364     3.00055e-01     6.91943e-02
      1187       1191      1   0.007531  -0.026489     3.00055e-01     6.91943e-02
      1187       1190      1   0.007531   0.014340     2.60142e-01     2.09200e-02
      1187       1189      1   0.007531   0.014340     2.60142e-01     2.09200e-02
      1186       1191      1   0.007531  -0.026489     3.00055e-01     6.91943e-02
      1186       1190      1   0.007531   0.014340     2.60142e-01     2.09200e-02
      1186       1189      1   0.007531   0.014340     2.60142e-01     2.09200e-02
      1185       1192      1   0.017463   0.010564     3.00055e-01     6.91943e-02
      1185       1193      1   0.017463   0.010564     3.00055e-01     6.91943e-02
      1184       1188      1   0.025511  -0.023412     3.00055e-01     6.91943e-02
      1184       1186      1   0.025511   0.006276     2.60142e-01     2.09200e-02
      1184       1187      1   0.025511   0.006276     2.60142e-01     2.09200e-02
      1183       1188      1   0.025511  -0.023412     3.00055e-01     6.91943e-02
      1183       1186      1   0.025511   0.006276     2.60142e-01     2.09200e-02
      1183       1187      1   0.025511   0.006276     2.60142e-01     2.09200e-02
      1182       1190      1  -0.111712   0.014340     3.00055e-01     6.91943e-02
      1182       1189      1  -0.111712   0.014340     3.00055e-01     6.91943e-02
      1181       1188      1   0.025511  -0.023412     3.00055e-01     6.91943e-02
      1181       1186      1   0.025511   0.006276     2.60142e-01     2.09200e-02
      1181       1187      1   0.025511   0.006276     2.60142e-01     2.09200e-02
      1258       1298      1  -0.673755   0.044953     2.78067e-01     9.58675e-02
      1258       1297      1  -0.673755   0.044953     2.78067e-01     9.58675e-02
      1257       1295      1   0.897613   0.015716     3.00055e-01     6.13495e-02
      1257       1294      1   0.897613   0.015716     3.00055e-01     6.13495e-02
      1256       1298      1  -0.552948   0.044953     2.80072e-01     8.62554e-02
      1256       1297      1  -0.552948   0.044953     2.80072e-01     8.62554e-02
      1249       1250      1   0.172230  -0.282478     2.67982e-01     8.67002e-02
      1248       1250      1   0.172230  -0.282478     2.67982e-01     8.67002e-02
      1247       1250      1   0.172230  -0.282478     2.67982e-01     8.67002e-02
      1246       1251      1  -0.338973   0.143525     2.67982e-01     8.67002e-02
      1246       1252      1  -0.338973   0.143525     2.67982e-01     8.67002e-02
      1246       1253      1  -0.338973   0.143525     2.67982e-01     8.67002e-02
      1245       1246      1   0.172230  -0.282478     2.67982e-01     8.67002e-02
      1245       1250      1   0.172230  -0.282478     2.67982e-01     8.67002e-02
      1244       1246      1   0.172230  -0.282478     2.67982e-01     8.67002e-02
      1244       1250      1   0.172230  -0.282478     2.67982e-01     8.67002e-02
      1243       1246      1   0.172230  -0.282478     2.67982e-01     8.67002e-02
      1243       1250      1   0.172230  -0.282478     2.67982e-01     8.67002e-02
      1242       1247      1  -0.338973   0.143525     2.67982e-01     8.67002e-02
      1242       1248      1  -0.338973   0.143525     2.67982e-01     8.67002e-02
      1242       1249      1  -0.338973   0.143525     2.67982e-01     8.67002e-02
      1242       1251      1  -0.338973   0.143525     2.67982e-01     8.67002e-02
      1242       1252      1  -0.338973   0.143525     2.67982e-01     8.67002e-02
      1242       1253      1  -0.338973   0.143525     2.67982e-01     8.67002e-02
      1240       1242      1   0.136415  -0.282478     2.67982e-01     8.67002e-02
      1240       1246      1   0.136415  -0.282478     2.67982e-01     8.67002e-02
      1240       1250      1   0.136415  -0.282478     2.67982e-01     8.67002e-02
      1239       1242      1   0.136415  -0.282478     2.67982e-01     8.67002e-02
      1239       1246      1   0.136415  -0.282478     2.67982e-01     8.67002e-02
      1239       1250      1   0.136415  -0.282478     2.67982e-01     8.67002e-02
      1238       1243      1  -0.170824   0.143525     2.67982e-01     8.67002e-02
      1238       1244      1  -0.170824   0.143525     2.67982e-01     8.67002e-02
      1238       1245      1  -0.170824   0.143525     2.67982e-01     8.67002e-02
      1238       1247      1  -0.170824   0.143525     2.67982e-01     8.67002e-02
      1238       1248      1  -0.170824   0.143525     2.67982e-01     8.67002e-02
      1238       1249      1  -0.170824   0.143525     2.67982e-01     8.67002e-02
      1238       1251      1  -0.170824   0.143525     2.67982e-01     8.67002e-02
      1238       1252      1  -0.170824   0.143525     2.67982e-01     8.67002e-02
      1238       1253      1  -0.170824   0.143525     2.67982e-01     8.67002e-02
      1237       1239      1   0.078534   0.113679     2.21567e-01     3.28444e-02
      1237       1240      1   0.078534   0.113679     2.21567e-01     3.28444e-02
      1237       1241      1   0.078534   0.204385     2.86068e-01     1.08078e-01
      1236       1239      1   0.078534   0.113679     2.21567e-01     3.28444e-02
      1236       1240      1   0.078534   0.113679     2.21567e-01     3.28444e-02
      1236       1241      1   0.078534   0.204385     2.86068e-01     1.08078e-01
      1234       1239      1  -0.508176   0.113679     2.47999e-01     1.08078e-01
      1234       1240      1  -0.508176   0.113679     2.47999e-01     1.08078e-01
      1233       1236      1   1.339721   0.065445     3.10656e-01     1.17227e-01
      1233       1237      1   1.339721   0.065445     3.10656e-01     1.17227e-01
      1231       1256      1   0.095591  -0.460790     2.73568e-01     1.08078e-01
      1231       1233      1   0.095591   1.116434     3.10656e-01     1.17227e-01
      1230       1256      1   0.095591  -0.460790     2.73568e-01     1.08078e-01
      1230       1233      1   0.095591   1.116434     3.10656e-01     1.17227e-01
      1228       1230      1   0.063253   0.079659     2.47135e-01     3.28444e-02
      1228       1231      1   0.063253   0.079659     2.47135e-01     3.28444e-02
      1228       1232      1   0.063253  -0.424567     2.73568e-01     1.08078e-01
      1228       1257      1   0.063253   0.748011     2.93551e-01     7.68707e-02
      1226       1228      1   0.070469   0.052711     2.47135e-01     3.28444e-02
      1226       1229      1   0.070469   0.014549     2.93551e-01     8.67002e-02
      1226       1256      1   0.070469  -0.460790     2.73568e-01     1.08078e-01
      1225       1228      1   0.070469   0.052711     2.47135e-01     3.28444e-02
      1225       1229      1   0.070469   0.014549     2.93551e-01     8.67002e-02
      1225       1256      1   0.070469  -0.460790     2.73568e-01     1.08078e-01
      1224       1230      1   0.196939   0.079659     2.93551e-01     8.67002e-02
      1224       1231      1   0.196939   0.079659     2.93551e-01     8.67002e-02
      1223       1228      1  -0.575489   0.052711     2.73568e-01     1.08078e-01
      1221       1225      1   0.910403   0.058724     2.93551e-01     7.68707e-02
      1221       1226      1   0.910403   0.058724     2.93551e-01     7.68707e-02
      1295       1298      1   0.018859   0.044953     2.60142e-01     2.09200e-02
      1295       1297      1   0.018859   0.044953     2.60142e-01     2.09200e-02
      1294       1298      1   0.018859   0.044953     2.60142e-01     2.09200e-02
      1294       1297      1   0.018859   0.044953     2.60142e-01     2.09200e-02
      1292       1296      1   0.020431  -0.136833     3.00055e-01     6.91943e-02
      1292       1295      1   0.020431   0.015716     2.60142e-01     2.09200e-02
      1292       1294      1   0.020431   0.015716     2.60142e-01     2.09200e-02
      1291       1296      1   0.020431  -0.136833     3.00055e-01     6.91943e-02
      1291       1295      1   0.020431   0.015716     2.60142e-01     2.09200e-02
      1291       1294      1   0.020431   0.015716     2.60142e-01     2.09200e-02
      1290       1298      1  -0.026954   0.044953     3.00055e-01     6.91943e-02
      1290       1297      1  -0.026954   0.044953     3.00055e-01     6.91943e-02
      1289       1293      1   0.010573  -0.002029     3.00055e-01     6.91943e-02
      1289       1292      1   0.010573   0.017026     2.60142e-01     2.09200e-02
      1289       1291      1   0.010573   0.017026     2.60142e-01     2.09200e-02
      1288       1293      1   0.010573  -0.002029     3.00055e-01     6.91943e-02
      1288       1292      1   0.010573   0.017026     2.60142e-01     2.09200e-02
      1288       1291      1   0.010573   0.017026     2.60142e-01     2.09200e-02
      1287       1295      1  -0.016521   0.015716     3.00055e-01     6.91943e-02
      1287       1294      1  -0.016521   0.015716     3.00055e-01     6.91943e-02
      1286       1290      1   0.011511  -0.022462     3.00055e-01     6.91943e-02
      1286       1288      1   0.011511   0.008811     2.60142e-01     2.09200e-02
      1286       1289      1   0.011511   0.008811     2.60142e-01     2.09200e-02
      1285       1290      1   0.011511  -0.022462     3.00055e-01     6.91943e-02
      1285       1288      1   0.011511   0.008811     2.60142e-01     2.09200e-02
      1285       1289      1   0.011511   0.008811     2.60142e-01     2.09200e-02
      1284       1292      1  -0.027812   0.017026     3.00055e-01     6.91943e-02
      1284       1291      1  -0.027812   0.017026     3.00055e-01     6.91943e-02
      1283       1287      1   0.006833  -0.013767     3.00055e-01     6.91943e-02
      1283       1285      1   0.006833   0.009592     2.60142e-01     2.09200e-02
      1283       1286      1   0.006833   0.009592     2.60142e-01     2.09200e-02
      1282       1287      1   0.006833  -0.013767     3.00055e-01     6.91943e-02
      1282       1285      1   0.006833   0.009592     2.60142e-01     2.09200e-02
      1282       1286      1   0.006833   0.009592     2.60142e-01     2.09200e-02
      1281       1288      1  -0.004386   0.008811     3.00055e-01     6.91943e-02
      1281       1289      1  -0.004386   0.008811     3.00055e-01     6.91943e-02
      1280       1284      1   0.011241  -0.023177     3.00055e-01     6.91943e-02
      1280       1282      1   0.011241   0.005694     2.60142e-01     2.09200e-02
      1280       1283      1   0.011241   0.005694     2.60142e-01     2.09200e-02
      1279       1284      1   0.011241  -0.023177     3.00055e-01     6.91943e-02
      1279       1282      1   0.011241   0.005694     2.60142e-01     2.09200e-02
      1279       1283      1   0.011241   0.005694     2.60142e-01     2.09200e-02
      1278       1285      1  -0.026451   0.009592     3.00055e-01     6.91943e-02
      1278       1286      1  -0.026451   0.009592     3.00055e-01     6.91943e-02
      1277       1281      1   0.010172  -0.003655     3.00055e-01     6.91943e-02
      1277       1280      1   0.010172   0.009367     2.60142e-01     2.09200e-02
      1277       1279      1   0.010172   0.009367     2.60142e-01     2.09200e-02
      1276       1281      1   0.010172  -0.003655     3.00055e-01     6.91943e-02
      1276       1280      1   0.010172   0.009367     2.60142e-01     2.09200e-02
      1276       1279      1   0.010172   0.009367     2.60142e-01     2.09200e-02
      1275       1282      1  -0.014653   0.005694     3.00055e-01     6.91943e-02
      1275       1283      1  -0.014653   0.005694     3.00055e-01     6.91943e-02
      1274       1278      1   0.010037  -0.022042     3.00055e-01     6.91943e-02
      1274       1276      1   0.010037   0.008477     2.60142e-01     2.09200e-02
      1274       1277      1   0.010037   0.008477     2.60142e-01     2.09200e-02
      1273       1278      1   0.010037  -0.022042     3.00055e-01     6.91943e-02
      1273       1276      1   0.010037   0.008477     2.60142e-01     2.09200e-02
      1273       1277      1   0.010037   0.008477     2.60142e-01     2.09200e-02
      1272       1280      1  -0.021025   0.009367     3.00055e-01     6.91943e-02
      1272       1279      1  -0.021025   0.009367     3.00055e-01     6.91943e-02
      1271       1275      1   0.012677  -0.012211     3.00055e-01     6.91943e-02
      1271       1274      1   0.012677   0.008364     2.60142e-01     2.09200e-02
      1271       1273      1   0.012677   0.008364     2.60142e-01     2.09200e-02
      1270       1275      1   0.012677  -0.012211     3.00055e-01     6.91943e-02
      1270       1274      1   0.012677   0.008364     2.60142e-01     2.09200e-02
      1270       1273      1   0.012677   0.008364     2.60142e-01     2.09200e-02
      1269       1276      1  -0.031787   0.008477     3.00055e-01     6.91943e-02
      1269       1277      1  -0.031787   0.008477     3.00055e-01     6.91943e-02
      1268       1272      1   0.017208  -0.017521     3.00055e-01     6.91943e-02
      1268       1270      1   0.017208   0.010564     2.60142e-01     2.09200e-02
      1268       1271      1   0.017208   0.010564     2.60142e-01     2.09200e-02
      1267       1272      1   0.017208  -0.017521     3.00055e-01     6.91943e-02
      1267       1270      1   0.017208   0.010564     2.60142e-01     2.09200e-02
      1267       1271      1   0.017208   0.010564     2.60142e-01     2.09200e-02
      1266       1274      1  -0.028094   0.008364     3.00055e-01     6.91943e-02
      1266       1273      1  -0.028094   0.008364     3.00055e-01     6.91943e-02
      1265       1269      1   0.007531  -0.026489     3.00055e-01     6.91943e-02
      1265       1268      1   0.007531   0.014340     2.60142e-01     2.09200e-02
      1265       1267      1   0.007531   0.014340     2.60142e-01     2.09200e-02
      1264       1269      1   0.007531  -0.026489     3.00055e-01     6.91943e-02
      1264       1268      1   0.007531   0.014340     2.60142e-01     2.09200e-02
      1264       1267      1   0.007531   0.014340     2.60142e-01     2.09200e-02
      1263       1270      1   0.017463   0.010564     3.00055e-01     6.91943e-02
      1263       1271      1   0.017463   0.010564     3.00055e-01     6.91943e-02
      1262       1266      1   0.025511  -0.023412     3.00055e-01     6.91943e-02
      1262       1264      1   0.025511   0.006276     2.60142e-01     2.09200e-02
      1262       1265      1   0.025511   0.006276     2.60142e-01     2.09200e-02
      1261       1266      1   0.025511  -0.023412     3.00055e-01     6.91943e-02
      1261       1264      1   0.025511   0.006276     2.60142e-01     2.09200e-02
      1261       1265      1   0.025511   0.006276     2.60142e-01     2.09200e-02
      1260       1268      1  -0.111712   0.014340     3.00055e-01     6.91943e-02
      1260       1267      1  -0.111712   0.014340     3.00055e-01     6.91943e-02
      1259       1266      1   0.025511  -0.023412     3.00055e-01     6.91943e-02
      1259       1264      1   0.025511   0.006276     2.60142e-01     2.09200e-02
      1259       1265      1   0.025511   0.006276     2.60142e-01     2.09200e-02
      1338       1340      1   0.053944  -0.559638     2.78067e-01     9.58675e-02
      1338       1341      1   0.053944  -0.479574     2.80072e-01     8.62554e-02
      1337       1340      1   0.053944  -0.559638     2.78067e-01     9.58675e-02
      1337       1341      1   0.053944  -0.479574     2.80072e-01     8.62554e-02
      1335       1338      1   0.018859   0.044953     2.60142e-01     2.09200e-02
      1335       1337      1   0.018859   0.044953     2.60142e-01     2.09200e-02
      1335       1339      1   0.018859   0.758669     3.00055e-01     6.13495e-02
      1334       1338      1   0.018859   0.044953     2.60142e-01     2.09200e-02
      1334       1337      1   0.018859   0.044953     2.60142e-01     2.09200e-02
      1334       1339      1   0.018859   0.758669     3.00055e-01     6.13495e-02
      1332       1336      1   0.020431  -0.136833     3.00055e-01     6.91943e-02
      1332       1335      1   0.020431   0.015716     2.60142e-01     2.09200e-02
      1332       1334      1   0.020431   0.015716     2.60142e-01     2.09200e-02
      1331       1336      1   0.020431  -0.136833     3.00055e-01     6.91943e-02
      1331       1335      1   0.020431   0.015716     2.60142e-01     2.09200e-02
      1331       1334      1   0.020431   0.015716     2.60142e-01     2.09200e-02
      1330       1338      1  -0.026954   0.044953     3.00055e-01     6.91943e-02
      1330       1337      1  -0.026954   0.044953     3.00055e-01     6.91943e-02
      1329       1333      1   0.010573  -0.002029     3.00055e-01     6.91943e-02
      1329       1332      1   0.010573   0.017026     2.60142e-01     2.09200e-02
      1329       1331      1   0.010573   0.017026     2.60142e-01     2.09200e-02
      1328       1333      1   0.010573  -0.002029     3.00055e-01     6.91943e-02
      1328       1332      1   0.010573   0.017026     2.60142e-01     2.09200e-02
      1328       1331      1   0.010573   0.017026     2.60142e-01     2.09200e-02
      1327       1335      1  -0.016521   0.015716     3.00055e-01     6.91943e-02
      1327       1334      1  -0.016521   0.015716     3.00055e-01     6.91943e-02
      1326       1330      1   0.011511  -0.022462     3.00055e-01     6.91943e-02
      1326       1328      1   0.011511   0.008811     2.60142e-01     2.09200e-02
      1326       1329      1   0.011511   0.008811     2.60142e-01     2.09200e-02
      1325       1330      1   0.011511  -0.022462     3.00055e-01     6.91943e-02
      1325       1328      1   0.011511   0.008811     2.60142e-01     2.09200e-02
      1325       1329      1   0.011511   0.008811     2.60142e-01     2.09200e-02
      1324       1332      1  -0.027812   0.017026     3.00055e-01     6.91943e-02
      1324       1331      1  -0.027812   0.017026     3.00055e-01     6.91943e-02
      1323       1327      1   0.006833  -0.013767     3.00055e-01     6.91943e-02
      1323       1325      1   0.006833   0.009592     2.60142e-01     2.09200e-02
      1323       1326      1   0.006833   0.009592     2.60142e-01     2.09200e-02
      1322       1327      1   0.006833  -0.013767     3.00055e-01     6.91943e-02
      1322       1325      1   0.006833   0.009592     2.60142e-01     2.09200e-02
      1322       1326      1   0.006833   0.009592     2.60142e-01     2.09200e-02
      1321       1328      1  -0.004386   0.008811     3.00055e-01     6.91943e-02
      1321       1329      1  -0.004386   0.008811     3.00055e-01     6.91943e-02
      1320       1324      1   0.011241  -0.023177     3.00055e-01     6.91943e-02
      1320       1322      1   0.011241   0.005694     2.60142e-01     2.09200e-02
      1320       1323      1   0.011241   0.005694     2.60142e-01     2.09200e-02
      1319       1324      1   0.011241  -0.023177     3.00055e-01     6.91943e-02
      1319       1322      1   0.011241   0.005694     2.60142e-01     2.09200e-02
      1319       1323      1   0.011241   0.005694     2.60142e-01     2.09200e-02
      1318       1325      1  -0.026451   0.009592     3.00055e-01     6.91943e-02
      1318       1326      1  -0.026451   0.009592     3.00055e-01     6.91943e-02
      1317       1321      1   0.010172  -0.003655     3.00055e-01     6.91943e-02
      1317       1320      1   0.010172   0.009367     2.60142e-01     2.09200e-02
      1317       1319      1   0.010172   0.009367     2.60142e-01     2.09200e-02
      1316       1321      1   0.010172  -0.003655     3.00055e-01     6.91943e-02
      1316       1320      1   0.010172   0.009367     2.60142e-01     2.09200e-02
      1316       1319      1   0.010172   0.009367     2.60142e-01     2.09200e-02
      1315       1322      1  -0.014653   0.005694     3.00055e-01     6.91943e-02
      1315       1323      1  -0.014653   0.005694     3.00055e-01     6.91943e-02
      1314       1318      1   0.010037  -0.022042     3.00055e-01     6.91943e-02
      1314       1316      1   0.010037   0.008477     2.60142e-01     2.09200e-02
      1314       1317      1   0.010037   0.008477     2.60142e-01     2.09200e-02
      1313       1318      1   0.010037  -0.022042     3.00055e-01     6.91943e-02
      1313       1316      1   0.010037   0.008477     2.60142e-01     2.09200e-02
      1313       1317      1   0.010037   0.008477     2.60142e-01     2.09200e-02
      1312       1320      1  -0.021025   0.009367     3.00055e-01     6.91943e-02
      1312       1319      1  -0.021025   0.009367     3.00055e-01     6.91943e-02
      1311       1315      1   0.012677  -0.012211     3.00055e-01     6.91943e-02
      1311       1314      1   0.012677   0.008364     2.60142e-01     2.09200e-02
      1311       1313      1   0.012677   0.008364     2.60142e-01     2.09200e-02
      1310       1315      1   0.012677  -0.012211     3.00055e-01     6.91943e-02
      1310       1314      1   0.012677   0.008364     2.60142e-01     2.09200e-02
      1310       1313      1   0.012677   0.008364     2.60142e-01     2.09200e-02
      1309       1316      1  -0.031787   0.008477     3.00055e-01     6.91943e-02
      1309       1317      1  -0.031787   0.008477     3.00055e-01     6.91943e-02
      1308       1312      1   0.017208  -0.017521     3.00055e-01     6.91943e-02
      1308       1310      1   0.017208   0.010564     2.60142e-01     2.09200e-02
      1308       1311      1   0.017208   0.010564     2.60142e-01     2.09200e-02
      1307       1312      1   0.017208  -0.017521     3.00055e-01     6.91943e-02
      1307       1310      1   0.017208   0.010564     2.60142e-01     2.09200e-02
      1307       1311      1   0.017208   0.010564     2.60142e-01     2.09200e-02
      1306       1314      1  -0.028094   0.008364     3.00055e-01     6.91943e-02
      1306       1313      1  -0.028094   0.008364     3.00055e-01     6.91943e-02
      1305       1309      1   0.007531  -0.026489     3.00055e-01     6.91943e-02
      1305       1308      1   0.007531   0.014340     2.60142e-01     2.09200e-02
      1305       1307      1   0.007531   0.014340     2.60142e-01     2.09200e-02
      1304       1309      1   0.007531  -0.026489     3.00055e-01     6.91943e-02
      1304       1308      1   0.007531   0.014340     2.60142e-01     2.09200e-02
      1304       1307      1   0.007531   0.014340     2.60142e-01     2.09200e-02
      1303       1310      1   0.017463   0.010564     3.00055e-01     6.91943e-02
      1303       1311      1   0.017463   0.010564     3.00055e-01     6.91943e-02
      1302       1306      1   0.025511  -0.023412     3.00055e-01     6.91943e-02
      1302       1304      1   0.025511   0.006276     2.60142e-01     2.09200e-02
      1302       1305      1   0.025511   0.006276     2.60142e-01     2.09200e-02
      1301       1306      1   0.025511  -0.023412     3.00055e-01     6.91943e-02
      1301       1304      1   0.025511   0.006276     2.60142e-01     2.09200e-02
      1301       1305      1   0.025511   0.006276     2.60142e-01     2.09200e-02
      1300       1308      1  -0.111712   0.014340     3.00055e-01     6.91943e-02
      1300       1307      1  -0.111712   0.014340     3.00055e-01     6.91943e-02
      1299       1306      1   0.025511  -0.023412     3.00055e-01     6.91943e-02
      1299       1304      1   0.025511   0.006276     2.60142e-01     2.09200e-02
      1299       1305      1   0.025511   0.006276     2.60142e-01     2.09200e-02
      1376       1416      1  -0.673755   0.044953     2.78067e-01     9.58675e-02
      1376       1415      1  -0.673755   0.044953     2.78067e-01     9.58675e-02
      1375       1413      1   0.897613   0.015716     3.00055e-01     6.13495e-02
      1375       1412      1   0.897613   0.015716     3.00055e-01     6.13495e-02
      1374       1416      1  -0.552948   0.044953     2.80072e-01     8.62554e-02
      1374       1415      1  -0.552948   0.044953     2.80072e-01     8.62554e-02
      1367       1368      1   0.172230  -0.282478     2.67982e-01     8.67002e-02
      1366       1368      1   0.172230  -0.282478     2.67982e-01     8.67002e-02
      1365       1368      1   0.172230  -0.282478     2.67982e-01     8.67002e-02
      1364       1369      1  -0.338973   0.143525     2.67982e-01     8.67002e-02
      1364       1370      1  -0.338973   0.143525     2.67982e-01     8.67002e-02
      1364       1371      1  -0.338973   0.143525     2.67982e-01     8.67002e-02
      1363       1364      1   0.172230  -0.282478     2.67982e-01     8.67002e-02
      1363       1368      1   0.172230  -0.282478     2.67982e-01     8.67002e-02
      1362       1364      1   0.172230  -0.282478     2.67982e-01     8.67002e-02
      1362       1368      1   0.172230  -0.282478     2.67982e-01     8.67002e-02
      1361       1364      1   0.172230  -0.282478     2.67982e-01     8.67002e-02
      1361       1368      1   0.172230  -0.282478     2.67982e-01     8.67002e-02
      1360       1365      1  -0.338973   0.143525     2.67982e-01     8.67002e-02
      1360       1366      1  -0.338973   0.143525     2.67982e-01     8.67002e-02
      1360       1367      1  -0.338973   0.143525     2.67982e-01     8.67002e-02
      1360       1369      1  -0.338973   0.143525     2.67982e-01     8.67002e-02
      1360       1370      1  -0.338973   0.143525     2.67982e-01     8.67002e-02
      1360       1371      1  -0.338973   0.143525     2.67982e-01     8.67002e-02
      1358       1360      1   0.136415  -0.282478     2.67982e-01     8.67002e-02
      1358       1364      1   0.136415  -0.282478     2.67982e-01     8.67002e-02
      1358       1368      1   0.136415  -0.282478     2.67982e-01     8.67002e-02
      1357       1360      1   0.136415  -0.282478     2.67982e-01     8.67002e-02
      1357       1364      1   0.136415  -0.282478     2.67982e-01     8.67002e-02
      1357       1368      1   0.136415  -0.282478     2.67982e-01     8.67002e-02
      1356       1361      1  -0.170824   0.143525     2.67982e-01     8.67002e-02
      1356       1362      1  -0.170824   0.143525     2.67982e-01     8.67002e-02
      1356       1363      1  -0.170824   0.143525     2.67982e-01     8.67002e-02
      1356       1365      1  -0.170824   0.143525     2.67982e-01     8.67002e-02
      1356       1366      1  -0.170824   0.143525     2.67982e-01     8.67002e-02
      1356       1367      1  -0.170824   0.143525     2.67982e-01     8.67002e-02
      1356       1369      1  -0.170824   0.143525     2.67982e-01     8.67002e-02
      1356       1370      1  -0.170824   0.143525     2.67982e-01     8.67002e-02
      1356       1371      1  -0.170824   0.143525     2.67982e-01     8.67002e-02
      1355       1357      1   0.078534   0.113679     2.21567e-01     3.28444e-02
      1355       1358      1   0.078534   0.113679     2.21567e-01     3.28444e-02
      1355       1359      1   0.078534   0.204385     2.86068e-01     1.08078e-01
      1354       1357      1   0.078534   0.113679     2.21567e-01     3.28444e-02
      1354       1358      1   0.078534   0.113679     2.21567e-01     3.28444e-02
      1354       1359      1   0.078534   0.204385     2.86068e-01     1.08078e-01
      1352       1357      1  -0.508176   0.113679     2.47999e-01     1.08078e-01
      1352       1358      1  -0.508176   0.113679     2.47999e-01     1.08078e-01
      1351       1354      1   1.339721   0.065445     3.10656e-01     1.17227e-01
      1351       1355      1   1.339721   0.065445     3.10656e-01     1.17227e-01
      1349       1374      1   0.095591  -0.460790     2.73568e-01     1.08078e-01
      1349       1351      1   0.095591   1.116434     3.10656e-01     1.17227e-01
      1348       1374      1   0.095591  -0.460790     2.73568e-01     1.08078e-01
      1348       1351      1   0.095591   1.116434     3.10656e-01     1.17227e-01
      1346       1348      1   0.063253   0.079659     2.47135e-01     3.28444e-02
      1346       1349      1   0.063253   0.079659     2.47135e-01     3.28444e-02
      1346       1350      1   0.063253  -0.424567     2.73568e-01     1.08078e-01
      1346       1375      1   0.063253   0.748011     2.93551e-01     7.68707e-02
      1344       1346      1   0.070469   0.052711     2.47135e-01     3.28444e-02
      1344       1347      1   0.070469   0.014549     2.93551e-01     8.67002e-02
      1344       1374      1   0.070469  -0.460790     2.73568e-01     1.08078e-01
      1343       1346      1   0.070469   0.052711     2.47135e-01     3.28444e-02
      1343       1347      1   0.070469   0.014549     2.93551e-01     8.67002e-02
      1343       1374      1   0.070469  -0.460790     2.73568e-01     1.08078e-01
      1342       1348      1   0.196939   0.079659     2.93551e-01     8.67002e-02
      1342       1349      1   0.196939   0.079659     2.93551e-01     8.67002e-02
      1341       1346      1  -0.575489   0.052711     2.73568e-01     1.08078e-01
      1339       1343      1   0.910403   0.058724     2.93551e-01     7.68707e-02
      1339       1344      1   0.910403   0.058724     2.93551e-01     7.68707e-02
      1413       1416      1   0.018859   0.044953     2.60142e-01     2.09200e-02
      1413       1415      1   0.018859   0.044953     2.60142e-01     2.09200e-02
      1412       1416      1   0.018859   0.044953     2.60142e-01     2.09200e-02
      1412       1415      1   0.018859   0.044953     2.60142e-01     2.09200e-02
      1410       1414      1   0.020431  -0.136833     3.00055e-01     6.91943e-02
      1410       1413      1   0.020431   0.015716     2.60142e-01     2.09200e-02
      1410       1412      1   0.020431   0.015716     2.60142e-01     2.09200e-02
      1409       1414      1   0.020431  -0.136833     3.00055e-01     6.91943e-02
      1409       1413      1   0.020431   0.015716     2.60142e-01     2.09200e-02
      1409       1412      1   0.020431   0.015716     2.60142e-01     2.09200e-02
      1408       1416      1  -0.026954   0.044953     3.00055e-01     6.91943e-02
      1408       1415      1  -0.026954   0.044953     3.00055e-01     6.91943e-02
      1407       1411      1   0.010573  -0.002029     3.00055e-01     6.91943e-02
      1407       1410      1   0.010573   0.017026     2.60142e-01     2.09200e-02
      1407       1409      1   0.010573   0.017026     2.60142e-01     2.09200e-02
      1406       1411      1   0.010573  -0.002029     3.00055e-01     6.91943e-02
      1406       1410      1   0.010573   0.017026     2.60142e-01     2.09200e-02
      1406       1409      1   0.010573   0.017026     2.60142e-01     2.09200e-02
      1405       1413      1  -0.016521   0.015716     3.00055e-01     6.91943e-02
      1405       1412      1  -0.016521   0.015716     3.00055e-01     6.91943e-02
      1404       1408      1   0.011511  -0.022462     3.00055e-01     6.91943e-02
      1404       1406      1   0.011511   0.008811     2.60142e-01     2.09200e-02
      1404       1407      1   0.011511   0.008811     2.60142e-01     2.09200e-02
      1403       1408      1   0.011511  -0.022462     3.00055e-01     6.91943e-02
      1403       1406      1   0.011511   0.008811     2.60142e-01     2.09200e-02
      1403       1407      1   0.011511   0.008811     2.60142e-01     2.09200e-02
      1402       1410      1  -0.027812   0.017026     3.00055e-01     6.91943e-02
      1402       1409      1  -0.027812   0.017026     3.00055e-01     6.91943e-02
      1401       1405      1   0.006833  -0.013767     3.00055e-01     6.91943e-02
      1401       1403      1   0.006833   0.009592     2.60142e-01     2.09200e-02
      1401       1404      1   0.006833   0.009592     2.60142e-01     2.09200e-02
      1400       1405      1   0.006833  -0.013767     3.00055e-01     6.91943e-02
      1400       1403      1   0.006833   0.009592     2.60142e-01     2.09200e-02
      1400       1404      1   0.006833   0.009592     2.60142e-01     2.09200e-02
      1399       1406      1  -0.004386   0.008811     3.00055e-01     6.91943e-02
      1399       1407      1  -0.004386   0.008811     3.00055e-01     6.91943e-02
      1398       1402      1   0.011241  -0.023177     3.00055e-01     6.91943e-02
      1398       1400      1   0.011241   0.005694     2.60142e-01     2.09200e-02
      1398       1401      1   0.011241   0.005694     2.60142e-01     2.09200e-02
      1397       1402      1   0.011241  -0.023177     3.00055e-01     6.91943e-02
      1397       1400      1   0.011241   0.005694     2.60142e-01     2.09200e-02
      1397       1401      1   0.011241   0.005694     2.60142e-01     2.09200e-02
      1396       1403      1  -0.026451   0.009592     3.00055e-01     6.91943e-02
      1396       1404      1  -0.026451   0.009592     3.00055e-01     6.91943e-02
      1395       1399      1   0.010172  -0.003655     3.00055e-01     6.91943e-02
      1395       1398      1   0.010172   0.009367     2.60142e-01     2.09200e-02
      1395       1397      1   0.010172   0.009367     2.60142e-01     2.09200e-02
      1394       1399      1   0.010172  -0.003655     3.00055e-01     6.91943e-02
      1394       1398      1   0.010172   0.009367     2.60142e-01     2.09200e-02
      1394       1397      1   0.010172   0.009367     2.60142e-01     2.09200e-02
      1393       1400      1  -0.014653   0.005694     3.00055e-01     6.91943e-02
      1393       1401      1  -0.014653   0.005694     3.00055e-01     6.91943e-02
      1392       1396      1   0.010037  -0.022042     3.00055e-01     6.91943e-02
      1392       1394      1   0.010037   0.008477     2.60142e-01     2.09200e-02
      1392       1395      1   0.010037   0.008477     2.60142e-01     2.09200e-02
      1391       1396      1   0.010037  -0.022042     3.00055e-01     6.91943e-02
      1391       1394      1   0.010037   0.008477     2.60142e-01     2.09200e-02
      1391       1395      1   0.010037   0.008477     2.60142e-01     2.09200e-02
      1390       1398      1  -0.021025   0.009367     3.00055e-01     6.91943e-02
      1390       1397      1  -0.021025   0.009367     3.00055e-01     6.91943e-02
      1389       1393      1   0.012677  -0.012211     3.00055e-01     6.91943e-02
      1389       1392      1   0.012677   0.008364     2.60142e-01     2.09200e-02
      1389       1391      1   0.012677   0.008364     2.60142e-01     2.09200e-02
      1388       1393      1   0.012677  -0.012211     3.00055e-01     6.91943e-02
      1388       1392      1   0.012677   0.008364     2.60142e-01     2.09200e-02
      1388       1391      1   0.012677   0.008364     2.60142e-01     2.09200e-02
      1387       1394      1  -0.031787   0.008477     3.00055e-01     6.91943e-02
      1387       1395      1  -0.031787   0.008477     3.00055e-01     6.91943e-02
      1386       1390      1   0.017208  -0.017521     3.00055e-01     6.91943e-02
      1386       1388      1   0.017208   0.010564     2.60142e-01     2.09200e-02
      1386       1389      1   0.017208   0.010564     2.60142e-01     2.09200e-02
      1385       1390      1   0.017208  -0.017521     3.00055e-01     6.91943e-02
      1385       1388      1   0.017208   0.010564     2.60142e-01     2.09200e-02
      1385       1389      1   0.017208   0.010564     2.60142e-01     2.09200e-02
      1384       1392      1  -0.028094   0.008364     3.00055e-01     6.91943e-02
      1384       1391      1  -0.028094   0.008364     3.00055e-01     6.91943e-02
      1383       1387      1   0.007531  -0.026489     3.00055e-01     6.91943e-02
      1383       1386      1   0.007531   0.014340     2.60142e-01     2.09200e-02
      1383       1385      1   0.007531   0.014340     2.60142e-01     2.09200e-02
      1382       1387      1   0.007531  -0.026489     3.00055e-01     6.91943e-02
      1382       1386      1   0.007531   0.014340     2.60142e-01     2.09200e-02
      1382       1385      1   0.007531   0.014340     2.60142e-01     2.09200e-02
      1381       1388      1   0.017463   0.010564     3.00055e-01     6.91943e-02
      1381       1389      1   0.017463   0.010564     3.00055e-01     6.91943e-02
      1380       1384      1   0.025511  -0.023412     3.00055e-01     6.91943e-02
      1380       1382      1   0.025511   0.006276     2.60142e-01     2.09200e-02
      1380       1383      1   0.025511   0.006276     2.60142e-01     2.09200e-02
      1379       1384      1   0.025511  -0.023412     3.00055e-01     6.91943e-02
      1379       1382      1   0.025511   0.006276     2.60142e-01     2.09200e-02
      1379       1383      1   0.025511   0.006276     2.60142e-01     2.09200e-02
      1378       1386      1  -0.111712   0.014340     3.00055e-01     6.91943e-02
      1378       1385      1  -0.111712   0.014340     3.00055e-01     6.91943e-02
      1377       1384      1   0.025511  -0.023412     3.00055e-01     6.91943e-02
      1377       1382      1   0.025511   0.006276     2.60142e-01     2.09200e-02
      1377       1383      1   0.025511   0.006276     2.60142e-01     2.09200e-02
      1456       1458      1   0.053944  -0.559638     2.78067e-01     9.58675e-02
      1456       1459      1   0.053944  -0.479574     2.80072e-01     8.62554e-02
      1455       1458      1   0.053944  -0.559638     2.78067e-01     9.58675e-02
      1455       1459      1   0.053944  -0.479574     2.80072e-01     8.62554e-02
      1453       1456      1   0.018859   0.044953     2.60142e-01     2.09200e-02
      1453       1455      1   0.018859   0.044953     2.60142e-01     2.09200e-02
      1453       1457      1   0.018859   0.758669     3.00055e-01     6.13495e-02
      1452       1456      1   0.018859   0.044953     2.60142e-01     2.09200e-02
      1452       1455      1   0.018859   0.044953     2.60142e-01     2.09200e-02
      1452       1457      1   0.018859   0.758669     3.00055e-01     6.13495e-02
      1450       1454      1   0.020431  -0.136833     3.00055e-01     6.91943e-02
      1450       1453      1   0.020431   0.015716     2.60142e-01     2.09200e-02
      1450       1452      1   0.020431   0.015716     2.60142e-01     2.09200e-02
      1449       1454      1   0.020431  -0.136833     3.00055e-01     6.91943e-02
      1449       1453      1   0.020431   0.015716     2.60142e-01     2.09200e-02
      1449       1452      1   0.020431   0.015716     2.60142e-01     2.09200e-02
      1448       1456      1  -0.026954   0.044953     3.00055e-01     6.91943e-02
      1448       1455      1  -0.026954   0.044953     3.00055e-01     6.91943e-02
      1447       1451      1   0.010573  -0.002029     3.00055e-01     6.91943e-02
      1447       1450      1   0.010573   0.017026     2.60142e-01     2.09200e-02
      1447       1449      1   0.010573   0.017026     2.60142e-01     2.09200e-02
      1446       1451      1   0.010573  -0.002029     3.00055e-01     6.91943e-02
      1446       1450      1   0.010573   0.017026     2.60142e-01     2.09200e-02
      1446       1449      1   0.010573   0.017026     2.60142e-01     2.09200e-02
      1445       1453      1  -0.016521   0.015716     3.00055e-01     6.91943e-02
      1445       1452      1  -0.016521   0.015716     3.00055e-01     6.91943e-02
      1444       1448      1   0.011511  -0.022462     3.00055e-01     6.91943e-02
      1444       1446      1   0.011511   0.008811     2.60142e-01     2.09200e-02
      1444       1447      1   0.011511   0.008811     2.60142e-01     2.09200e-02
      1443       1448      1   0.011511  -0.022462     3.00055e-01     6.91943e-02
      1443       1446      1   0.011511   0.008811     2.60142e-01     2.09200e-02
      1443       1447      1   0.011511   0.008811     2.60142e-01     2.09200e-02
      1442       1450      1  -0.027812   0.017026     3.00055e-01     6.91943e-02
      1442       1449      1  -0.027812   0.017026     3.00055e-01     6.91943e-02
      1441       1445      1   0.006833  -0.013767     3.00055e-01     6.91943e-02
      1441       1443      1   0.006833   0.009592     2.60142e-01     2.09200e-02
      1441       1444      1   0.006833   0.009592     2.60142e-01     2.09200e-02
      1440       1445      1   0.006833  -0.013767     3.00055e-01     6.91943e-02
      1440       1443      1   0.006833   0.009592     2.60142e-01     2.09200e-02
      1440       1444      1   0.006833   0.009592     2.60142e-01     2.09200e-02
      1439       1446      1  -0.004386   0.008811     3.00055e-01     6.91943e-02
      1439       1447      1  -0.004386   0.008811     3.00055e-01     6.91943e-02
      1438       1442      1   0.011241  -0.023177     3.00055e-01     6.91943e-02
      1438       1440      1   0.011241   0.005694     2.60142e-01     2.09200e-02
      1438       1441      1   0.011241   0.005694     2.60142e-01     2.09200e-02
      1437       1442      1   0.011241  -0.023177     3.00055e-01     6.91943e-02
      1437       1440      1   0.011241   0.005694     2.60142e-01     2.09200e-02
      1437       1441      1   0.011241   0.005694     2.60142e-01     2.09200e-02
      1436       1443      1  -0.026451   0.009592     3.00055e-01     6.91943e-02
      1436       1444      1  -0.026451   0.009592     3.00055e-01     6.91943e-02
      1435       1439      1   0.010172  -0.003655     3.00055e-01     6.91943e-02
      1435       1438      1   0.010172   0.009367     2.60142e-01     2.09200e-02
      1435       1437      1   0.010172   0.009367     2.60142e-01     2.09200e-02
      1434       1439      1   0.010172  -0.003655     3.00055e-01     6.91943e-02
      1434       1438      1   0.010172   0.009367     2.60142e-01     2.09200e-02
      1434       1437      1   0.010172   0.009367     2.60142e-01     2.09200e-02
      1433       1440      1  -0.014653   0.005694     3.00055e-01     6.91943e-02
      1433       1441      1  -0.014653   0.005694     3.00055e-01     6.91943e-02
      1432       1436      1   0.010037  -0.022042     3.00055e-01     6.91943e-02
      1432       1434      1   0.010037   0.008477     2.60142e-01     2.09200e-02
      1432       1435      1   0.010037   0.008477     2.60142e-01     2.09200e-02
      1431       1436      1   0.010037  -0.022042     3.00055e-01     6.91943e-02
      1431       1434      1   0.010037   0.008477     2.60142e-01     2.09200e-02
      1431       1435      1   0.010037   0.008477     2.60142e-01     2.09200e-02
      1430       1438      1  -0.021025   0.009367     3.00055e-01     6.91943e-02
      1430       1437      1  -0.021025   0.009367     3.00055e-01     6.91943e-02
      1429       1433      1   0.012677  -0.012211     3.00055e-01     6.91943e-02
      1429       1432      1   0.012677   0.008364     2.60142e-01     2.09200e-02
      1429       1431      1   0.012677   0.008364     2.60142e-01     2.09200e-02
      1428       1433      1   0.012677  -0.012211     3.00055e-01     6.91943e-02
      1428       1432      1   0.012677   0.008364     2.60142e-01     2.09200e-02
      1428       1431      1   0.012677   0.008364     2.60142e-01     2.09200e-02
      1427       1434      1  -0.031787   0.008477     3.00055e-01     6.91943e-02
      1427       1435      1  -0.031787   0.008477     3.00055e-01     6.91943e-02
      1426       1430      1   0.017208  -0.017521     3.00055e-01     6.91943e-02
      1426       1428      1   0.017208   0.010564     2.60142e-01     2.09200e-02
      1426       1429      1   0.017208   0.010564     2.60142e-01     2.09200e-02
      1425       1430      1   0.017208  -0.017521     3.00055e-01     6.91943e-02
      1425       1428      1   0.017208   0.010564     2.60142e-01     2.09200e-02
      1425       1429      1   0.017208   0.010564     2.60142e-01     2.09200e-02
      1424       1432      1  -0.028094   0.008364     3.00055e-01     6.91943e-02
      1424       1431      1  -0.028094   0.008364     3.00055e-01     6.91943e-02
      1423       1427      1   0.007531  -0.026489     3.00055e-01     6.91943e-02
      1423       1426      1   0.007531   0.014340     2.60142e-01     2.09200e-02
      1423       1425      1   0.007531   0.014340     2.60142e-01     2.09200e-02
      1422       1427      1   0.007531  -0.026489     3.00055e-01     6.91943e-02
      1422       1426      1   0.007531   0.014340     2.60142e-01     2.09200e-02
      1422       1425      1   0.007531   0.014340     2.60142e-01     2.09200e-02
      1421       1428      1   0.017463   0.010564     3.00055e-01     6.91943e-02
      1421       1429      1   0.017463   0.010564     3.00055e-01     6.91943e-02
      1420       1424      1   0.025511  -0.023412     3.00055e-01     6.91943e-02
      1420       1422      1   0.025511   0.006276     2.60142e-01     2.09200e-02
      1420       1423      1   0.025511   0.006276     2.60142e-01     2.09200e-02
      1419       1424      1   0.025511  -0.023412     3.00055e-01     6.91943e-02
      1419       1422      1   0.025511   0.006276     2.60142e-01     2.09200e-02
      1419       1423      1   0.025511   0.006276     2.60142e-01     2.09200e-02
      1418       1426      1  -0.111712   0.014340     3.00055e-01     6.91943e-02
      1418       1425      1  -0.111712   0.014340     3.00055e-01     6.91943e-02
      1417       1424      1   0.025511  -0.023412     3.00055e-01     6.91943e-02
      1417       1422      1   0.025511   0.006276     2.60142e-01     2.09200e-02
      1417       1423      1   0.025511   0.006276     2.60142e-01     2.09200e-02
      1494       1534      1  -0.673755   0.044953     2.78067e-01     9.58675e-02
      1494       1533      1  -0.673755   0.044953     2.78067e-01     9.58675e-02
      1493       1531      1   0.897613   0.015716     3.00055e-01     6.13495e-02
      1493       1530      1   0.897613   0.015716     3.00055e-01     6.13495e-02
      1492       1534      1  -0.552948   0.044953     2.80072e-01     8.62554e-02
      1492       1533      1  -0.552948   0.044953     2.80072e-01     8.62554e-02
      1485       1486      1   0.172230  -0.282478     2.67982e-01     8.67002e-02
      1484       1486      1   0.172230  -0.282478     2.67982e-01     8.67002e-02
      1483       1486      1   0.172230  -0.282478     2.67982e-01     8.67002e-02
      1482       1487      1  -0.338973   0.143525     2.67982e-01     8.67002e-02
      1482       1488      1  -0.338973   0.143525     2.67982e-01     8.67002e-02
      1482       1489      1  -0.338973   0.143525     2.67982e-01     8.67002e-02
      1481       1482      1   0.172230  -0.282478     2.67982e-01     8.67002e-02
      1481       1486      1   0.172230  -0.282478     2.67982e-01     8.67002e-02
      1480       1482      1   0.172230  -0.282478     2.67982e-01     8.67002e-02
      1480       1486      1   0.172230  -0.282478     2.67982e-01     8.67002e-02
      1479       1482      1   0.172230  -0.282478     2.67982e-01     8.67002e-02
      1479       1486      1   0.172230  -0.282478     2.67982e-01     8.67002e-02
      1478       1483      1  -0.338973   0.143525     2.67982e-01     8.67002e-02
      1478       1484      1  -0.338973   0.143525     2.67982e-01     8.67002e-02
      1478       1485      1  -0.338973   0.143525     2.67982e-01     8.67002e-02
      1478       1487      1  -0.338973   0.143525     2.67982e-01     8.67002e-02
      1478       1488      1  -0.338973   0.143525     2.67982e-01     8.67002e-02
      1478       1489      1  -0.338973   0.143525     2.67982e-01     8.67002e-02
      1476       1478      1   0.136415  -0.282478     2.67982e-01     8.67002e-02
      1476       1482      1   0.136415  -0.282478     2.67982e-01     8.67002e-02
      1476       1486      1   0.136415  -0.282478     2.67982e-01     8.67002e-02
      1475       1478      1   0.136415  -0.282478     2.67982e-01     8.67002e-02
      1475       1482      1   0.136415  -0.282478     2.67982e-01     8.67002e-02
      1475       1486      1   0.136415  -0.282478     2.67982e-01     8.67002e-02
      1474       1479      1  -0.170824   0.143525     2.67982e-01     8.67002e-02
      1474       1480      1  -0.170824   0.143525     2.67982e-01     8.67002e-02
      1474       1481      1  -0.170824   0.143525     2.67982e-01     8.67002e-02
      1474       1483      1  -0.170824   0.143525     2.67982e-01     8.67002e-02
      1474       1484      1  -0.170824   0.143525     2.67982e-01     8.67002e-02
      1474       1485      1  -0.170824   0.143525     2.67982e-01     8.67002e-02
      1474       1487      1  -0.170824   0.143525     2.67982e-01     8.67002e-02
      1474       1488      1  -0.170824   0.143525     2.67982e-01     8.67002e-02
      1474       1489      1  -0.170824   0.143525     2.67982e-01     8.67002e-02
      1473       1475      1   0.078534   0.113679     2.21567e-01     3.28444e-02
      1473       1476      1   0.078534   0.113679     2.21567e-01     3.28444e-02
      1473       1477      1   0.078534   0.204385     2.86068e-01     1.08078e-01
      1472       1475      1   0.078534   0.113679     2.21567e-01     3.28444e-02
      1472       1476      1   0.078534   0.113679     2.21567e-01     3.28444e-02
      1472       1477      1   0.078534   0.204385     2.86068e-01     1.08078e-01
      1470       1475      1  -0.508176   0.113679     2.47999e-01     1.08078e-01
      1470       1476      1  -0.508176   0.113679     2.47999e-01     1.08078e-01
      1469       1472      1   1.339721   0.065445     3.10656e-01     1.17227e-01
      1469       1473      1   1.339721   0.065445     3.10656e-01     1.17227e-01
      1467       1492      1   0.095591  -0.460790     2.73568e-01     1.08078e-01
      1467       1469      1   0.095591   1.116434     3.10656e-01     1.17227e-01
      1466       1492      1   0.095591  -0.460790     2.73568e-01     1.08078e-01
      1466       1469      1   0.095591   1.116434     3.10656e-01     1.17227e-01
      1464       1466      1   0.063253   0.079659     2.47135e-01     3.28444e-02
      1464       1467      1   0.063253   0.079659     2.47135e-01     3.28444e-02
      1464       1468      1   0.063253  -0.424567     2.73568e-01     1.08078e-01
      1464       1493      1   0.063253   0.748011     2.93551e-01     7.68707e-02
      1462       1464      1   0.070469   0.052711     2.47135e-01     3.28444e-02
      1462       1465      1   0.070469   0.014549     2.93551e-01     8.67002e-02
      1462       1492      1   0.070469  -0.460790     2.73568e-01     1.08078e-01
      1461       1464      1   0.070469   0.052711     2.47135e-01     3.28444e-02
      1461       1465      1   0.070469   0.014549     2.93551e-01     8.67002e-02
      1461       1492      1   0.070469  -0.460790     2.73568e-01     1.08078e-01
      1460       1466      1   0.196939   0.079659     2.93551e-01     8.67002e-02
      1460       1467      1   0.196939   0.079659     2.93551e-01     8.67002e-02
      1459       1464      1  -0.575489   0.052711     2.73568e-01     1.08078e-01
      1457       1461      1   0.910403   0.058724     2.93551e-01     7.68707e-02
      1457       1462      1   0.910403   0.058724     2.93551e-01     7.68707e-02
      1531       1534      1   0.018859   0.044953     2.60142e-01     2.09200e-02
      1531       1533      1   0.018859   0.044953     2.60142e-01     2.09200e-02
      1530       1534      1   0.018859   0.044953     2.60142e-01     2.09200e-02
      1530       1533      1   0.018859   0.044953     2.60142e-01     2.09200e-02
      1528       1532      1   0.020431  -0.136833     3.00055e-01     6.91943e-02
      1528       1531      1   0.020431   0.015716     2.60142e-01     2.09200e-02
      1528       1530      1   0.020431   0.015716     2.60142e-01     2.09200e-02
      1527       1532      1   0.020431  -0.136833     3.00055e-01     6.91943e-02
      1527       1531      1   0.020431   0.015716     2.60142e-01     2.09200e-02
      1527       1530      1   0.020431   0.015716     2.60142e-01     2.09200e-02
      1526       1534      1  -0.026954   0.044953     3.00055e-01     6.91943e-02
      1526       1533      1  -0.026954   0.044953     3.00055e-01     6.91943e-02
      1525       1529      1   0.010573  -0.002029     3.00055e-01     6.91943e-02
      1525       1528      1   0.010573   0.017026     2.60142e-01     2.09200e-02
      1525       1527      1   0.010573   0.017026     2.60142e-01     2.09200e-02
      1524       1529      1   0.010573  -0.002029     3.00055e-01     6.91943e-02
      1524       1528      1   0.010573   0.017026     2.60142e-01     2.09200e-02
      1524       1527      1   0.010573   0.017026     2.60142e-01     2.09200e-02
      1523       1531      1  -0.016521   0.015716     3.00055e-01     6.91943e-02
      1523       1530      1  -0.016521   0.015716     3.00055e-01     6.91943e-02
      1522       1526      1   0.011511  -0.022462     3.00055e-01     6.91943e-02
      1522       1524      1   0.011511   0.008811     2.60142e-01     2.09200e-02
      1522       1525      1   0.011511   0.008811     2.60142e-01     2.09200e-02
      1521       1526      1   0.011511  -0.022462     3.00055e-01     6.91943e-02
      1521       1524      1   0.011511   0.008811     2.60142e-01     2.09200e-02
      1521       1525      1   0.011511   0.008811     2.60142e-01     2.09200e-02
      1520       1528      1  -0.027812   0.017026     3.00055e-01     6.91943e-02
      1520       1527      1  -0.027812   0.017026     3.00055e-01     6.91943e-02
      1519       1523      1   0.006833  -0.013767     3.00055e-01     6.91943e-02
      1519       1521      1   0.006833   0.009592     2.60142e-01     2.09200e-02
      1519       1522      1   0.006833   0.009592     2.60142e-01     2.09200e-02
      1518       1523      1   0.006833  -0.013767     3.00055e-01     6.91943e-02
      1518       1521      1   0.006833   0.009592     2.60142e-01     2.09200e-02
      1518       1522      1   0.006833   0.009592     2.60142e-01     2.09200e-02
      1517       1524      1  -0.004386   0.008811     3.00055e-01     6.91943e-02
      1517       1525      1  -0.004386   0.008811     3.00055e-01     6.91943e-02
      1516       1520      1   0.011241  -0.023177     3.00055e-01     6.91943e-02
      1516       1518      1   0.011241   0.005694     2.60142e-01     2.09200e-02
      1516       1519      1   0.011241   0.005694     2.60142e-01     2.09200e-02
      1515       1520      1   0.011241  -0.023177     3.00055e-01     6.91943e-02
      1515       1518      1   0.011241   0.005694     2.60142e-01     2.09200e-02
      1515       1519      1   0.011241   0.005694     2.60142e-01     2.09200e-02
      1514       1521      1  -0.026451   0.009592     3.00055e-01     6.91943e-02
      1514       1522      1  -0.026451   0.009592     3.00055e-01     6.91943e-02
      1513       1517      1   0.010172  -0.003655     3.00055e-01     6.91943e-02
      1513       1516      1   0.010172   0.009367     2.60142e-01     2.09200e-02
      1513       1515      1   0.010172   0.009367     2.60142e-01     2.09200e-02
      1512       1517      1   0.010172  -0.003655     3.00055e-01     6.91943e-02
      1512       1516      1   0.010172   0.009367     2.60142e-01     2.09200e-02
      1512       1515      1   0.010172   0.009367     2.60142e-01     2.09200e-02
      1511       1518      1  -0.014653   0.005694     3.00055e-01     6.91943e-02
      1511       1519      1  -0.014653   0.005694     3.00055e-01     6.91943e-02
      1510       1514      1   0.010037  -0.022042     3.00055e-01     6.91943e-02
      1510       1512      1   0.010037   0.008477     2.60142e-01     2.09200e-02
      1510       1513      1   0.010037   0.008477     2.60142e-01     2.09200e-02
      1509       1514      1   0.010037  -0.022042     3.00055e-01     6.91943e-02
      1509       1512      1   0.010037   0.008477     2.60142e-01     2.09200e-02
      1509       1513      1   0.010037   0.008477     2.60142e-01     2.09200e-02
      1508       1516      1  -0.021025   0.009367     3.00055e-01     6.91943e-02
      1508       1515      1  -0.021025   0.009367     3.00055e-01     6.91943e-02
      1507       1511      1   0.012677  -0.012211     3.00055e-01     6.91943e-02
      1507       1510      1   0.012677   0.008364     2.60142e-01     2.09200e-02
      1507       1509      1   0.012677   0.008364     2.60142e-01     2.09200e-02
      1506       1511      1   0.012677  -0.012211     3.00055e-01     6.91943e-02
      1506       1510      1   0.012677   0.008364     2.60142e-01     2.09200e-02
      1506       1509      1   0.012677   0.008364     2.60142e-01     2.09200e-02
      1505       1512      1  -0.031787   0.008477     3.00055e-01     6.91943e-02
      1505       1513      1  -0.031787   0.008477     3.00055e-01     6.91943e-02
      1504       1508      1   0.017208  -0.017521     3.00055e-01     6.91943e-02
      1504       1506      1   0.017208   0.010564     2.60142e-01     2.09200e-02
      1504       1507      1   0.017208   0.010564     2.60142e-01     2.09200e-02
      1503       1508      1   0.017208  -0.017521     3.00055e-01     6.91943e-02
      1503       1506      1   0.017208   0.010564     2.60142e-01     2.09200e-02
      1503       1507      1   0.017208   0.010564     2.60142e-01     2.09200e-02
      1502       1510      1  -0.028094   0.008364     3.00055e-01     6.91943e-02
      1502       1509      1  -0.028094   0.008364     3.00055e-01     6.91943e-02
      1501       1505      1   0.007531  -0.026489     3.00055e-01     6.91943e-02
      1501       1504      1   0.007531   0.014340     2.60142e-01     2.09200e-02
      1501       1503      1   0.007531   0.014340     2.60142e-01     2.09200e-02
      1500       1505      1   0.007531  -0.026489     3.00055e-01     6.91943e-02
      1500       1504      1   0.007531   0.014340     2.60142e-01     2.09200e-02
      1500       1503      1   0.007531   0.014340     2.60142e-01     2.09200e-02
      1499       1506      1   0.017463   0.010564     3.00055e-01     6.91943e-02
      1499       1507      1   0.017463   0.010564     3.00055e-01     6.91943e-02
      1498       1502      1   0.025511  -0.023412     3.00055e-01     6.91943e-02
      1498       1500      1   0.025511   0.006276     2.60142e-01     2.09200e-02
      1498       1501      1   0.025511   0.006276     2.60142e-01     2.09200e-02
      1497       1502      1   0.025511  -0.023412     3.00055e-01     6.91943e-02
      1497       1500      1   0.025511   0.006276     2.60142e-01     2.09200e-02
      1497       1501      1   0.025511   0.006276     2.60142e-01     2.09200e-02
      1496       1504      1  -0.111712   0.014340     3.00055e-01     6.91943e-02
      1496       1503      1  -0.111712   0.014340     3.00055e-01     6.91943e-02
      1495       1502      1   0.025511  -0.023412     3.00055e-01     6.91943e-02
      1495       1500      1   0.025511   0.006276     2.60142e-01     2.09200e-02
      1495       1501      1   0.025511   0.006276     2.60142e-01     2.09200e-02
      1574       1576      1   0.053944  -0.559638     2.78067e-01     9.58675e-02
      1574       1577      1   0.053944  -0.479574     2.80072e-01     8.62554e-02
      1573       1576      1   0.053944  -0.559638     2.78067e-01     9.58675e-02
      1573       1577      1   0.053944  -0.479574     2.80072e-01     8.62554e-02
      1571       1574      1   0.018859   0.044953     2.60142e-01     2.09200e-02
      1571       1573      1   0.018859   0.044953     2.60142e-01     2.09200e-02
      1571       1575      1   0.018859   0.758669     3.00055e-01     6.13495e-02
      1570       1574      1   0.018859   0.044953     2.60142e-01     2.09200e-02
      1570       1573      1   0.018859   0.044953     2.60142e-01     2.09200e-02
      1570       1575      1   0.018859   0.758669     3.00055e-01     6.13495e-02
      1568       1572      1   0.020431  -0.136833     3.00055e-01     6.91943e-02
      1568       1571      1   0.020431   0.015716     2.60142e-01     2.09200e-02
      1568       1570      1   0.020431   0.015716     2.60142e-01     2.09200e-02
      1567       1572      1   0.020431  -0.136833     3.00055e-01     6.91943e-02
      1567       1571      1   0.020431   0.015716     2.60142e-01     2.09200e-02
      1567       1570      1   0.020431   0.015716     2.60142e-01     2.09200e-02
      1566       1574      1  -0.026954   0.044953     3.00055e-01     6.91943e-02
      1566       1573      1  -0.026954   0.044953     3.00055e-01     6.91943e-02
      1565       1569      1   0.010573  -0.002029     3.00055e-01     6.91943e-02
      1565       1568      1   0.010573   0.017026     2.60142e-01     2.09200e-02
      1565       1567      1   0.010573   0.017026     2.60142e-01     2.09200e-02
      1564       1569      1   0.010573  -0.002029     3.00055e-01     6.91943e-02
      1564       1568      1   0.010573   0.017026     2.60142e-01     2.09200e-02
      1564       1567      1   0.010573   0.017026     2.60142e-01     2.09200e-02
      1563       1571      1  -0.016521   0.015716     3.00055e-01     6.91943e-02
      1563       1570      1  -0.016521   0.015716     3.00055e-01     6.91943e-02
      1562       1566      1   0.011511  -0.022462     3.00055e-01     6.91943e-02
      1562       1564      1   0.011511   0.008811     2.60142e-01     2.09200e-02
      1562       1565      1   0.011511   0.008811     2.60142e-01     2.09200e-02
      1561       1566      1   0.011511  -0.022462     3.00055e-01     6.91943e-02
      1561       1564      1   0.011511   0.008811     2.60142e-01     2.09200e-02
      1561       1565      1   0.011511   0.008811     2.60142e-01     2.09200e-02
      1560       1568      1  -0.027812   0.017026     3.00055e-01     6.91943e-02
      1560       1567      1  -0.027812   0.017026     3.00055e-01     6.91943e-02
      1559       1563      1   0.006833  -0.013767     3.00055e-01     6.91943e-02
      1559       1561      1   0.006833   0.009592     2.60142e-01     2.09200e-02
      1559       1562      1   0.006833   0.009592     2.60142e-01     2.09200e-02
      1558       1563      1   0.006833  -0.013767     3.00055e-01     6.91943e-02
      1558       1561      1   0.006833   0.009592     2.60142e-01     2.09200e-02
      1558       1562      1   0.006833   0.009592     2.60142e-01     2.09200e-02
      1557       1564      1  -0.004386   0.008811     3.00055e-01     6.91943e-02
      1557       1565      1  -0.004386   0.008811     3.00055e-01     6.91943e-02
      1556       1560      1   0.011241  -0.023177     3.00055e-01     6.91943e-02
      1556       1558      1   0.011241   0.005694     2.60142e-01     2.09200e-02
      1556       1559      1   0.011241   0.005694     2.60142e-01     2.09200e-02
      1555       1560      1   0.011241  -0.023177     3.00055e-01     6.91943e-02
      1555       1558      1   0.011241   0.005694     2.60142e-01     2.09200e-02
      1555       1559      1   0.011241   0.005694     2.60142e-01     2.09200e-02
      1554       1561      1  -0.026451   0.009592     3.00055e-01     6.91943e-02
      1554       1562      1  -0.026451   0.009592     3.00055e-01     6.91943e-02
      1553       1557      1   0.010172  -0.003655     3.00055e-01     6.91943e-02
      1553       1556      1   0.010172   0.009367     2.60142e-01     2.09200e-02
      1553       1555      1   0.010172   0.009367     2.60142e-01     2.09200e-02
      1552       1557      1   0.010172  -0.003655     3.00055e-01     6.91943e-02
      1552       1556      1   0.010172   0.009367     2.60142e-01     2.09200e-02
      1552       1555      1   0.010172   0.009367     2.60142e-01     2.09200e-02
      1551       1558      1  -0.014653   0.005694     3.00055e-01     6.91943e-02
      1551       1559      1  -0.014653   0.005694     3.00055e-01     6.91943e-02
      1550       1554      1   0.010037  -0.022042     3.00055e-01     6.91943e-02
      1550       1552      1   0.010037   0.008477     2.60142e-01     2.09200e-02
      1550       1553      1   0.010037   0.008477     2.60142e-01     2.09200e-02
      1549       1554      1   0.010037  -0.022042     3.00055e-01     6.91943e-02
      1549       1552      1   0.010037   0.008477     2.60142e-01     2.09200e-02
      1549       1553      1   0.010037   0.008477     2.60142e-01     2.09200e-02
      1548       1556      1  -0.021025   0.009367     3.00055e-01     6.91943e-02
      1548       1555      1  -0.021025   0.009367     3.00055e-01     6.91943e-02
      1547       1551      1   0.012677  -0.012211     3.00055e-01     6.91943e-02
      1547       1550      1   0.012677   0.008364     2.60142e-01     2.09200e-02
      1547       1549      1   0.012677   0.008364     2.60142e-01     2.09200e-02
      1546       1551      1   0.012677  -0.012211     3.00055e-01     6.91943e-02
      1546       1550      1   0.012677   0.008364     2.60142e-01     2.09200e-02
      1546       1549      1   0.012677   0.008364     2.60142e-01     2.09200e-02
      1545       1552      1  -0.031787   0.008477     3.00055e-01     6.91943e-02
      1545       1553      1  -0.031787   0.008477     3.00055e-01     6.91943e-02
      1544       1548      1   0.017208  -0.017521     3.00055e-01     6.91943e-02
      1544       1546      1   0.017208   0.010564     2.60142e-01     2.09200e-02
      1544       1547      1   0.017208   0.010564     2.60142e-01     2.09200e-02
      1543       1548      1   0.017208  -0.017521     3.00055e-01     6.91943e-02
      1543       1546      1   0.017208   0.010564     2.60142e-01     2.09200e-02
      1543       1547      1   0.017208   0.010564     2.60142e-01     2.09200e-02
      1542       1550      1  -0.028094   0.008364     3.00055e-01     6.91943e-02
      1542       1549      1  -0.028094   0.008364     3.00055e-01     6.91943e-02
      1541       1545      1   0.007531  -0.026489     3.00055e-01     6.91943e-02
      1541       1544      1   0.007531   0.014340     2.60142e-01     2.09200e-02
      1541       1543      1   0.007531   0.014340     2.60142e-01     2.09200e-02
      1540       1545      1   0.007531  -0.026489     3.00055e-01     6.91943e-02
      1540       1544      1   0.007531   0.014340     2.60142e-01     2.09200e-02
      1540       1543      1   0.007531   0.014340     2.60142e-01     2.09200e-02
      1539       1546      1   0.017463   0.010564     3.00055e-01     6.91943e-02
      1539       1547      1   0.017463   0.010564     3.00055e-01     6.91943e-02
      1538       1542      1   0.025511  -0.023412     3.00055e-01     6.91943e-02
      1538       1540      1   0.025511   0.006276     2.60142e-01     2.09200e-02
      1538       1541      1   0.025511   0.006276     2.60142e-01     2.09200e-02
      1537       1542      1   0.025511  -0.023412     3.00055e-01     6.91943e-02
      1537       1540      1   0.025511   0.006276     2.60142e-01     2.09200e-02
      1537       1541      1   0.025511   0.006276     2.60142e-01     2.09200e-02
      1536       1544      1  -0.111712   0.014340     3.00055e-01     6.91943e-02
      1536       1543      1  -0.111712   0.014340     3.00055e-01     6.91943e-02
      1535       1542      1   0.025511  -0.023412     3.00055e-01     6.91943e-02
      1535       1540      1   0.025511   0.006276     2.60142e-01     2.09200e-02
      1535       1541      1   0.025511   0.006276     2.60142e-01     2.09200e-02
      1612       1652      1  -0.673755   0.044953     2.78067e-01     9.58675e-02
      1612       1651      1  -0.673755   0.044953     2.78067e-01     9.58675e-02
      1611       1649      1   0.897613   0.015716     3.00055e-01     6.13495e-02
      1611       1648      1   0.897613   0.015716     3.00055e-01     6.13495e-02
      1610       1652      1  -0.552948   0.044953     2.80072e-01     8.62554e-02
      1610       1651      1  -0.552948   0.044953     2.80072e-01     8.62554e-02
      1603       1604      1   0.172230  -0.282478     2.67982e-01     8.67002e-02
      1602       1604      1   0.172230  -0.282478     2.67982e-01     8.67002e-02
      1601       1604      1   0.172230  -0.282478     2.67982e-01     8.67002e-02
      1600       1605      1  -0.338973   0.143525     2.67982e-01     8.67002e-02
      1600       1606      1  -0.338973   0.143525     2.67982e-01     8.67002e-02
      1600       1607      1  -0.338973   0.143525     2.67982e-01     8.67002e-02
      1599       1600      1   0.172230  -0.282478     2.67982e-01     8.67002e-02
      1599       1604      1   0.172230  -0.282478     2.67982e-01     8.67002e-02
      1598       1600      1   0.172230  -0.282478     2.67982e-01     8.67002e-02
      1598       1604      1   0.172230  -0.282478     2.67982e-01     8.67002e-02
      1597       1600      1   0.172230  -0.282478     2.67982e-01     8.67002e-02
      1597       1604      1   0.172230  -0.282478     2.67982e-01     8.67002e-02
      1596       1601      1  -0.338973   0.143525     2.67982e-01     8.67002e-02
      1596       1602      1  -0.338973   0.143525     2.67982e-01     8.67002e-02
      1596       1603      1  -0.338973   0.143525     2.67982e-01     8.67002e-02
      1596       1605      1  -0.338973   0.143525     2.67982e-01     8.67002e-02
      1596       1606      1  -0.338973   0.143525     2.67982e-01     8.67002e-02
      1596       1607      1  -0.338973   0.143525     2.67982e-01     8.67002e-02
      1594       1596      1   0.136415  -0.282478     2.67982e-01     8.67002e-02
      1594       1600      1   0.136415  -0.282478     2.67982e-01     8.67002e-02
      1594       1604      1   0.136415  -0.282478     2.67982e-01     8.67002e-02
      1593       1596      1   0.136415  -0.282478     2.67982e-01     8.67002e-02
      1593       1600      1   0.136415  -0.282478     2.67982e-01     8.67002e-02
      1593       1604      1   0.136415  -0.282478     2.67982e-01     8.67002e-02
      1592       1597      1  -0.170824   0.143525     2.67982e-01     8.67002e-02
      1592       1598      1  -0.170824   0.143525     2.67982e-01     8.67002e-02
      1592       1599      1  -0.170824   0.143525     2.67982e-01     8.67002e-02
      1592       1601      1  -0.170824   0.143525     2.67982e-01     8.67002e-02
      1592       1602      1  -0.170824   0.143525     2.67982e-01     8.67002e-02
      1592       1603      1  -0.170824   0.143525     2.67982e-01     8.67002e-02
      1592       1605      1  -0.170824   0.143525     2.67982e-01     8.67002e-02
      1592       1606      1  -0.170824   0.143525     2.67982e-01     8.67002e-02
      1592       1607      1  -0.170824   0.143525     2.67982e-01     8.67002e-02
      1591       1593      1   0.078534   0.113679     2.21567e-01     3.28444e-02
      1591       1594      1   0.078534   0.113679     2.21567e-01     3.28444e-02
      1591       1595      1   0.078534   0.204385     2.86068e-01     1.08078e-01
      1590       1593      1   0.078534   0.113679     2.21567e-01     3.28444e-02
      1590       1594      1   0.078534   0.113679     2.21567e-01     3.28444e-02
      1590       1595      1   0.078534   0.204385     2.86068e-01     1.08078e-01
      1588       1593      1  -0.508176   0.113679     2.47999e-01     1.08078e-01
      1588       1594      1  -0.508176   0.113679     2.47999e-01     1.08078e-01
      1587       1590      1   1.339721   0.065445     3.10656e-01     1.17227e-01
      1587       1591      1   1.339721   0.065445     3.10656e-01     1.17227e-01
      1585       1610      1   0.095591  -0.460790     2.73568e-01     1.08078e-01
      1585       1587      1   0.095591   1.116434     3.10656e-01     1.17227e-01
      1584       1610      1   0.095591  -0.460790     2.73568e-01     1.08078e-01
      1584       1587      1   0.095591   1.116434     3.10656e-01     1.17227e-01
      1582       1584      1   0.063253   0.079659     2.47135e-01     3.28444e-02
      1582       1585      1   0.063253   0.079659     2.47135e-01     3.28444e-02
      1582       1586      1   0.063253  -0.424567     2.73568e-01     1.08078e-01
      1582       1611      1   0.063253   0.748011     2.93551e-01     7.68707e-02
      1580       1582      1   0.070469   0.052711     2.47135e-01     3.28444e-02
      1580       1583      1   0.070469   0.014549     2.93551e-01     8.67002e-02
      1580       1610      1   0.070469  -0.460790     2.73568e-01     1.08078e-01
      1579       1582      1   0.070469   0.052711     2.47135e-01     3.28444e-02
      1579       1583      1   0.070469   0.014549     2.93551e-01     8.67002e-02
      1579       1610      1   0.070469  -0.460790     2.73568e-01     1.08078e-01
      1578       1584      1   0.196939   0.079659     2.93551e-01     8.67002e-02
      1578       1585      1   0.196939   0.079659     2.93551e-01     8.67002e-02
      1577       1582      1  -0.575489   0.052711     2.73568e-01     1.08078e-01
      1575       1579      1   0.910403   0.058724     2.93551e-01     7.68707e-02
      1575       1580      1   0.910403   0.058724     2.93551e-01     7.68707e-02
      1649       1652      1   0.018859   0.044953     2.60142e-01     2.09200e-02
      1649       1651      1   0.018859   0.044953     2.60142e-01     2.09200e-02
      1648       1652      1   0.018859   0.044953     2.60142e-01     2.09200e-02
      1648       1651      1   0.018859   0.044953     2.60142e-01     2.09200e-02
      1646       1650      1   0.020431  -0.136833     3.00055e-01     6.91943e-02
      1646       1649      1   0.020431   0.015716     2.60142e-01     2.09200e-02
      1646       1648      1   0.020431   0.015716     2.60142e-01     2.09200e-02
      1645       1650      1   0.020431  -0.136833     3.00055e-01     6.91943e-02
      1645       1649      1   0.020431   0.015716     2.60142e-01     2.09200e-02
      1645       1648      1   0.020431   0.015716     2.60142e-01     2.09200e-02
      1644       1652      1  -0.026954   0.044953     3.00055e-01     6.91943e-02
      1644       1651      1  -0.026954   0.044953     3.00055e-01     6.91943e-02
      1643       1647      1   0.010573  -0.002029     3.00055e-01     6.91943e-02
      1643       1646      1   0.010573   0.017026     2.60142e-01     2.09200e-02
      1643       1645      1   0.010573   0.017026     2.60142e-01     2.09200e-02
      1642       1647      1   0.010573  -0.002029     3.00055e-01     6.91943e-02
      1642       1646      1   0.010573   0.017026     2.60142e-01     2.09200e-02
      1642       1645      1   0.010573   0.017026     2.60142e-01     2.09200e-02
      1641       1649      1  -0.016521   0.015716     3.00055e-01     6.91943e-02
      1641       1648      1  -0.016521   0.015716     3.00055e-01     6.91943e-02
      1640       1644      1   0.011511  -0.022462     3.00055e-01     6.91943e-02
      1640       1642      1   0.011511   0.008811     2.60142e-01     2.09200e-02
      1640       1643      1   0.011511   0.008811     2.60142e-01     2.09200e-02
      1639       1644      1   0.011511  -0.022462     3.00055e-01     6.91943e-02
      1639       1642      1   0.011511   0.008811     2.60142e-01     2.09200e-02
      1639       1643      1   0.011511   0.008811     2.60142e-01     2.09200e-02
      1638       1646      1  -0.027812   0.017026     3.00055e-01     6.91943e-02
      1638       1645      1  -0.027812   0.017026     3.00055e-01     6.91943e-02
      1637       1641      1   0.006833  -0.013767     3.00055e-01     6.91943e-02
      1637       1639      1   0.006833   0.009592     2.60142e-01     2.09200e-02
      1637       1640      1   0.006833   0.009592     2.60142e-01     2.09200e-02
      1636       1641      1   0.006833  -0.013767     3.00055e-01     6.91943e-02
      1636       1639      1   0.006833   0.009592     2.60142e-01     2.09200e-02
      1636       1640      1   0.006833   0.009592     2.60142e-01     2.09200e-02
      1635       1642      1  -0.004386   0.008811     3.00055e-01     6.91943e-02
      1635       1643      1  -0.004386   0.008811     3.00055e-01     6.91943e-02
      1634       1638      1   0.011241  -0.023177     3.00055e-01     6.91943e-02
      1634       1636      1   0.011241   0.005694     2.60142e-01     2.09200e-02
      1634       1637      1   0.011241   0.005694     2.60142e-01     2.09200e-02
      1633       1638      1   0.011241  -0.023177     3.00055e-01     6.91943e-02
      1633       1636      1   0.011241   0.005694     2.60142e-01     2.09200e-02
      1633       1637      1   0.011241   0.005694     2.60142e-01     2.09200e-02
      1632       1639      1  -0.026451   0.009592     3.00055e-01     6.91943e-02
      1632       1640      1  -0.026451   0.009592     3.00055e-01     6.91943e-02
      1631       1635      1   0.010172  -0.003655     3.00055e-01     6.91943e-02
      1631       1634      1   0.010172   0.009367     2.60142e-01     2.09200e-02
      1631       1633      1   0.010172   0.009367     2.60142e-01     2.09200e-02
      1630       1635      1   0.010172  -0.003655     3.00055e-01     6.91943e-02
      1630       1634      1   0.010172   0.009367     2.60142e-01     2.09200e-02
      1630       1633      1   0.010172   0.009367     2.60142e-01     2.09200e-02
      1629       1636      1  -0.014653   0.005694     3.00055e-01     6.91943e-02
      1629       1637      1  -0.014653   0.005694     3.00055e-01     6.91943e-02
      1628       1632      1   0.010037  -0.022042     3.00055e-01     6.91943e-02
      1628       1630      1   0.010037   0.008477     2.60142e-01     2.09200e-02
      1628       1631      1   0.010037   0.008477     2.60142e-01     2.09200e-02
      1627       1632      1   0.010037  -0.022042     3.00055e-01     6.91943e-02
      1627       1630      1   0.010037   0.008477     2.60142e-01     2.09200e-02
      1627       1631      1   0.010037   0.008477     2.60142e-01     2.09200e-02
      1626       1634      1  -0.021025   0.009367     3.00055e-01     6.91943e-02
      1626       1633      1  -0.021025   0.009367     3.00055e-01     6.91943e-02
      1625       1629      1   0.012677  -0.012211     3.00055e-01     6.91943e-02
      1625       1628      1   0.012677   0.008364     2.60142e-01     2.09200e-02
      1625       1627      1   0.012677   0.008364     2.60142e-01     2.09200e-02
      1624       1629      1   0.012677  -0.012211     3.00055e-01     6.91943e-02
      1624       1628      1   0.012677   0.008364     2.60142e-01     2.09200e-02
      1624       1627      1   0.012677   0.008364     2.60142e-01     2.09200e-02
      1623       1630      1  -0.031787   0.008477     3.00055e-01     6.91943e-02
      1623       1631      1  -0.031787   0.008477     3.00055e-01     6.91943e-02
      1622       1626      1   0.017208  -0.017521     3.00055e-01     6.91943e-02
      1622       1624      1   0.017208   0.010564     2.60142e-01     2.09200e-02
      1622       1625      1   0.017208   0.010564     2.60142e-01     2.09200e-02
      1621       1626      1   0.017208  -0.017521     3.00055e-01     6.91943e-02
      1621       1624      1   0.017208   0.010564     2.60142e-01     2.09200e-02
      1621       1625      1   0.017208   0.010564     2.60142e-01     2.09200e-02
      1620       1628      1  -0.028094   0.008364     3.00055e-01     6.91943e-02
      1620       1627      1  -0.028094   0.008364     3.00055e-01     6.91943e-02
      1619       1623      1   0.007531  -0.026489     3.00055e-01     6.91943e-02
      1619       1622      1   0.007531   0.014340     2.60142e-01     2.09200e-02
      1619       1621      1   0.007531   0.014340     2.60142e-01     2.09200e-02
      1618       1623      1   0.007531  -0.026489     3.00055e-01     6.91943e-02
      1618       1622      1   0.007531   0.014340     2.60142e-01     2.09200e-02
      1618       1621      1   0.007531   0.014340     2.60142e-01     2.09200e-02
      1617       1624      1   0.017463   0.010564     3.00055e-01     6.91943e-02
      1617       1625      1   0.017463   0.010564     3.00055e-01     6.91943e-02
      1616       1620      1   0.025511  -0.023412     3.00055e-01     6.91943e-02
      1616       1618      1   0.025511   0.006276     2.60142e-01     2.09200e-02
      1616       1619      1   0.025511   0.006276     2.60142e-01     2.09200e-02
      1615       1620      1   0.025511  -0.023412     3.00055e-01     6.91943e-02
      1615       1618      1   0.025511   0.006276     2.60142e-01     2.09200e-02
      1615       1619      1   0.025511   0.006276     2.60142e-01     2.09200e-02
      1614       1622      1  -0.111712   0.014340     3.00055e-01     6.91943e-02
      1614       1621      1  -0.111712   0.014340     3.00055e-01     6.91943e-02
      1613       1620      1   0.025511  -0.023412     3.00055e-01     6.91943e-02
      1613       1618      1   0.025511   0.006276     2.60142e-01     2.09200e-02
      1613       1619      1   0.025511   0.006276     2.60142e-01     2.09200e-02
      1692       1694      1   0.053944  -0.559638     2.78067e-01     9.58675e-02
      1692       1695      1   0.053944  -0.479574     2.80072e-01     8.62554e-02
      1691       1694      1   0.053944  -0.559638     2.78067e-01     9.58675e-02
      1691       1695      1   0.053944  -0.479574     2.80072e-01     8.62554e-02
      1689       1692      1   0.018859   0.044953     2.60142e-01     2.09200e-02
      1689       1691      1   0.018859   0.044953     2.60142e-01     2.09200e-02
      1689       1693      1   0.018859   0.758669     3.00055e-01     6.13495e-02
      1688       1692      1   0.018859   0.044953     2.60142e-01     2.09200e-02
      1688       1691      1   0.018859   0.044953     2.60142e-01     2.09200e-02
      1688       1693      1   0.018859   0.758669     3.00055e-01     6.13495e-02
      1686       1690      1   0.020431  -0.136833     3.00055e-01     6.91943e-02
      1686       1689      1   0.020431   0.015716     2.60142e-01     2.09200e-02
      1686       1688      1   0.020431   0.015716     2.60142e-01     2.09200e-02
      1685       1690      1   0.020431  -0.136833     3.00055e-01     6.91943e-02
      1685       1689      1   0.020431   0.015716     2.60142e-01     2.09200e-02
      1685       1688      1   0.020431   0.015716     2.60142e-01     2.09200e-02
      1684       1692      1  -0.026954   0.044953     3.00055e-01     6.91943e-02
      1684       1691      1  -0.026954   0.044953     3.00055e-01     6.91943e-02
      1683       1687      1   0.010573  -0.002029     3.00055e-01     6.91943e-02
      1683       1686      1   0.010573   0.017026     2.60142e-01     2.09200e-02
      1683       1685      1   0.010573   0.017026     2.60142e-01     2.09200e-02
      1682       1687      1   0.010573  -0.002029     3.00055e-01     6.91943e-02
      1682       1686      1   0.010573   0.017026     2.60142e-01     2.09200e-02
      1682       1685      1   0.010573   0.017026     2.60142e-01     2.09200e-02
      1681       1689      1  -0.016521   0.015716     3.00055e-01     6.91943e-02
      1681       1688      1  -0.016521   0.015716     3.00055e-01     6.91943e-02
      1680       1684      1   0.011511  -0.022462     3.00055e-01     6.91943e-02
      1680       1682      1   0.011511   0.008811     2.60142e-01     2.09200e-02
      1680       1683      1   0.011511   0.008811     2.60142e-01     2.09200e-02
      1679       1684      1   0.011511  -0.022462     3.00055e-01     6.91943e-02
      1679       1682      1   0.011511   0.008811     2.60142e-01     2.09200e-02
      1679       1683      1   0.011511   0.008811     2.60142e-01     2.09200e-02
      1678       1686      1  -0.027812   0.017026     3.00055e-01     6.91943e-02
      1678       1685      1  -0.027812   0.017026     3.00055e-01     6.91943e-02
      1677       1681      1   0.006833  -0.013767     3.00055e-01     6.91943e-02
      1677       1679      1   0.006833   0.009592     2.60142e-01     2.09200e-02
      1677       1680      1   0.006833   0.009592     2.60142e-01     2.09200e-02
      1676       1681      1   0.006833  -0.013767     3.00055e-01     6.91943e-02
      1676       1679      1   0.006833   0.009592     2.60142e-01     2.09200e-02
      1676       1680      1   0.006833   0.009592     2.60142e-01     2.09200e-02
      1675       1682      1  -0.004386   0.008811     3.00055e-01     6.91943e-02
      1675       1683      1  -0.004386   0.008811     3.00055e-01     6.91943e-02
      1674       1678      1   0.011241  -0.023177     3.00055e-01     6.91943e-02
      1674       1676      1   0.011241   0.005694     2.60142e-01     2.09200e-02
      1674       1677      1   0.011241   0.005694     2.60142e-01     2.09200e-02
      1673       1678      1   0.011241  -0.023177     3.00055e-01     6.91943e-02
      1673       1676      1   0.011241   0.005694     2.60142e-01     2.09200e-02
      1673       1677      1   0.011241   0.005694     2.60142e-01     2.09200e-02
      1672       1679      1  -0.026451   0.009592     3.00055e-01     6.91943e-02
      1672       1680      1  -0.026451   0.009592     3.00055e-01     6.91943e-02
      1671       1675      1   0.010172  -0.003655     3.00055e-01     6.91943e-02
      1671       1674      1   0.010172   0.009367     2.60142e-01     2.09200e-02
      1671       1673      1   0.010172   0.009367     2.60142e-01     2.09200e-02
      1670       1675      1   0.010172  -0.003655     3.00055e-01     6.91943e-02
      1670       1674      1   0.010172   0.009367     2.60142e-01     2.09200e-02
      1670       1673      1   0.010172   0.009367     2.60142e-01     2.09200e-02
      1669       1676      1  -0.014653   0.005694     3.00055e-01     6.91943e-02
      1669       1677      1  -0.014653   0.005694     3.00055e-01     6.91943e-02
      1668       1672      1   0.010037  -0.022042     3.00055e-01     6.91943e-02
      1668       1670      1   0.010037   0.008477     2.60142e-01     2.09200e-02
      1668       1671      1   0.010037   0.008477     2.60142e-01     2.09200e-02
      1667       1672      1   0.010037  -0.022042     3.00055e-01     6.91943e-02
      1667       1670      1   0.010037   0.008477     2.60142e-01     2.09200e-02
      1667       1671      1   0.010037   0.008477     2.60142e-01     2.09200e-02
      1666       1674      1  -0.021025   0.009367     3.00055e-01     6.91943e-02
      1666       1673      1  -0.021025   0.009367     3.00055e-01     6.91943e-02
      1665       1669      1   0.012677  -0.012211     3.00055e-01     6.91943e-02
      1665       1668      1   0.012677   0.008364     2.60142e-01     2.09200e-02
      1665       1667      1   0.012677   0.008364     2.60142e-01     2.09200e-02
      1664       1669      1   0.012677  -0.012211     3.00055e-01     6.91943e-02
      1664       1668      1   0.012677   0.008364     2.60142e-01     2.09200e-02
      1664       1667      1   0.012677   0.008364     2.60142e-01     2.09200e-02
      1663       1670      1  -0.031787   0.008477     3.00055e-01     6.91943e-02
      1663       1671      1  -0.031787   0.008477     3.00055e-01     6.91943e-02
      1662       1666      1   0.017208  -0.017521     3.00055e-01     6.91943e-02
      1662       1664      1   0.017208   0.010564     2.60142e-01     2.09200e-02
      1662       1665      1   0.017208   0.010564     2.60142e-01     2.09200e-02
      1661       1666      1   0.017208  -0.017521     3.00055e-01     6.91943e-02
      1661       1664      1   0.017208   0.010564     2.60142e-01     2.09200e-02
      1661       1665      1   0.017208   0.010564     2.60142e-01     2.09200e-02
      1660       1668      1  -0.028094   0.008364     3.00055e-01     6.91943e-02
      1660       1667      1  -0.028094   0.008364     3.00055e-01     6.91943e-02
      1659       1663      1   0.007531  -0.026489     3.00055e-01     6.91943e-02
      1659       1662      1   0.007531   0.014340     2.60142e-01     2.09200e-02
      1659       1661      1   0.007531   0.014340     2.60142e-01     2.09200e-02
      1658       1663      1   0.007531  -0.026489     3.00055e-01     6.91943e-02
      1658       1662      1   0.007531   0.014340     2.60142e-01     2.09200e-02
      1658       1661      1   0.007531   0.014340     2.60142e-01     2.09200e-02
      1657       1664      1   0.017463   0.010564     3.00055e-01     6.91943e-02
      1657       1665      1   0.017463   0.010564     3.00055e-01     6.91943e-02
      1656       1660      1   0.025511  -0.023412     3.00055e-01     6.91943e-02
      1656       1658      1   0.025511   0.006276     2.60142e-01     2.09200e-02
      1656       1659      1   0.025511   0.006276     2.60142e-01     2.09200e-02
      1655       1660      1   0.025511  -0.023412     3.00055e-01     6.91943e-02
      1655       1658      1   0.025511   0.006276     2.60142e-01     2.09200e-02
      1655       1659      1   0.025511   0.006276     2.60142e-01     2.09200e-02
      1654       1662      1  -0.111712   0.014340     3.00055e-01     6.91943e-02
      1654       1661      1  -0.111712   0.014340     3.00055e-01     6.91943e-02
      1653       1660      1   0.025511  -0.023412     3.00055e-01     6.91943e-02
      1653       1658      1   0.025511   0.006276     2.60142e-01     2.09200e-02
      1653       1659      1   0.025511   0.006276     2.60142e-01     2.09200e-02
      1730       1770      1  -0.673755   0.044953     2.78067e-01     9.58675e-02
      1730       1769      1  -0.673755   0.044953     2.78067e-01     9.58675e-02
      1729       1767      1   0.897613   0.015716     3.00055e-01     6.13495e-02
      1729       1766      1   0.897613   0.015716     3.00055e-01     6.13495e-02
      1728       1770      1  -0.552948   0.044953     2.80072e-01     8.62554e-02
      1728       1769      1  -0.552948   0.044953     2.80072e-01     8.62554e-02
      1721       1722      1   0.172230  -0.282478     2.67982e-01     8.67002e-02
      1720       1722      1   0.172230  -0.282478     2.67982e-01     8.67002e-02
      1719       1722      1   0.172230  -0.282478     2.67982e-01     8.67002e-02
      1718       1723      1  -0.338973   0.143525     2.67982e-01     8.67002e-02
      1718       1724      1  -0.338973   0.143525     2.67982e-01     8.67002e-02
      1718       1725      1  -0.338973   0.143525     2.67982e-01     8.67002e-02
      1717       1718      1   0.172230  -0.282478     2.67982e-01     8.67002e-02
      1717       1722      1   0.172230  -0.282478     2.67982e-01     8.67002e-02
      1716       1718      1   0.172230  -0.282478     2.67982e-01     8.67002e-02
      1716       1722      1   0.172230  -0.282478     2.67982e-01     8.67002e-02
      1715       1718      1   0.172230  -0.282478     2.67982e-01     8.67002e-02
      1715       1722      1   0.172230  -0.282478     2.67982e-01     8.67002e-02
      1714       1719      1  -0.338973   0.143525     2.67982e-01     8.67002e-02
      1714       1720      1  -0.338973   0.143525     2.67982e-01     8.67002e-02
      1714       1721      1  -0.338973   0.143525     2.67982e-01     8.67002e-02
      1714       1723      1  -0.338973   0.143525     2.67982e-01     8.67002e-02
      1714       1724      1  -0.338973   0.143525     2.67982e-01     8.67002e-02
      1714       1725      1  -0.338973   0.143525     2.67982e-01     8.67002e-02
      1712       1714      1   0.136415  -0.282478     2.67982e-01     8.67002e-02
      1712       1718      1   0.136415  -0.282478     2.67982e-01     8.67002e-02
      1712       1722      1   0.136415  -0.282478     2.67982e-01     8.67002e-02
      1711       1714      1   0.136415  -0.282478     2.67982e-01     8.67002e-02
      1711       1718      1   0.136415  -0.282478     2.67982e-01     8.67002e-02
      1711       1722      1   0.136415  -0.282478     2.67982e-01     8.67002e-02
      1710       1715      1  -0.170824   0.143525     2.67982e-01     8.67002e-02
      1710       1716      1  -0.170824   0.143525     2.67982e-01     8.67002e-02
      1710       1717      1  -0.170824   0.143525     2.67982e-01     8.67002e-02
      1710       1719      1  -0.170824   0.143525     2.67982e-01     8.67002e-02
      1710       1720      1  -0.170824   0.143525     2.67982e-01     8.67002e-02
      1710       1721      1  -0.170824   0.143525     2.67982e-01     8.67002e-02
      1710       1723      1  -0.170824   0.143525     2.67982e-01     8.67002e-02
      1710       1724      1  -0.170824   0.143525     2.67982e-01     8.67002e-02
      1710       1725      1  -0.170824   0.143525     2.67982e-01     8.67002e-02
      1709       1711      1   0.078534   0.113679     2.21567e-01     3.28444e-02
      1709       1712      1   0.078534   0.113679     2.21567e-01     3.28444e-02
      1709       1713      1   0.078534   0.204385     2.86068e-01     1.08078e-01
      1708       1711      1   0.078534   0.113679     2.21567e-01     3.28444e-02
      1708       1712      1   0.078534   0.113679     2.21567e-01     3.28444e-02
      1708       1713      1   0.078534   0.204385     2.86068e-01     1.08078e-01
      1706       1711      1  -0.508176   0.113679     2.47999e-01     1.08078e-01
      1706       1712      1  -0.508176   0.113679     2.47999e-01     1.08078e-01
      1705       1708      1   1.339721   0.065445     3.10656e-01     1.17227e-01
      1705       1709      1   1.339721   0.065445     3.10656e-01     1.17227e-01
      1703       1728      1   0.095591  -0.460790     2.73568e-01     1.08078e-01
      1703       1705      1   0.095591   1.116434     3.10656e-01     1.17227e-01
      1702       1728      1   0.095591  -0.460790     2.73568e-01     1.08078e-01
      1702       1705      1   0.095591   1.116434     3.10656e-01     1.17227e-01
      1700       1702      1   0.063253   0.079659     2.47135e-01     3.28444e-02
      1700       1703      1   0.063253   0.079659     2.47135e-01     3.28444e-02
      1700       1704      1   0.063253  -0.424567     2.73568e-01     1.08078e-01
      1700       1729      1   0.063253   0.748011     2.93551e-01     7.68707e-02
      1698       1700      1   0.070469   0.052711     2.47135e-01     3.28444e-02
      1698       1701      1   0.070469   0.014549     2.93551e-01     8.67002e-02
      1698       1728      1   0.070469  -0.460790     2.73568e-01     1.08078e-01
      1697       1700      1   0.070469   0.052711     2.47135e-01     3.28444e-02
      1697       1701      1   0.070469   0.014549     2.93551e-01     8.67002e-02
      1697       1728      1   0.070469  -0.460790     2.73568e-01     1.08078e-01
      1696       1702      1   0.196939   0.079659     2.93551e-01     8.67002e-02
      1696       1703      1   0.196939   0.079659     2.93551e-01     8.67002e-02
      1695       1700      1  -0.575489   0.052711     2.73568e-01     1.08078e-01
      1693       1697      1   0.910403   0.058724     2.93551e-01     7.68707e-02
      1693       1698      1   0.910403   0.058724     2.93551e-01     7.68707e-02
      1767       1770      1   0.018859   0.044953     2.60142e-01     2.09200e-02
      1767       1769      1   0.018859   0.044953     2.60142e-01     2.09200e-02
      1766       1770      1   0.018859   0.044953     2.60142e-01     2.09200e-02
      1766       1769      1   0.018859   0.044953     2.60142e-01     2.09200e-02
      1764       1768      1   0.020431  -0.136833     3.00055e-01     6.91943e-02
      1764       1767      1   0.020431   0.015716     2.60142e-01     2.09200e-02
      1764       1766      1   0.020431   0.015716     2.60142e-01     2.09200e-02
      1763       1768      1   0.020431  -0.136833     3.00055e-01     6.91943e-02
      1763       1767      1   0.020431   0.015716     2.60142e-01     2.09200e-02
      1763       1766      1   0.020431   0.015716     2.60142e-01     2.09200e-02
      1762       1770      1  -0.026954   0.044953     3.00055e-01     6.91943e-02
      1762       1769      1  -0.026954   0.044953     3.00055e-01     6.91943e-02
      1761       1765      1   0.010573  -0.002029     3.00055e-01     6.91943e-02
      1761       1764      1   0.010573   0.017026     2.60142e-01     2.09200e-02
      1761       1763      1   0.010573   0.017026     2.60142e-01     2.09200e-02
      1760       1765      1   0.010573  -0.002029     3.00055e-01     6.91943e-02
      1760       1764      1   0.010573   0.017026     2.60142e-01     2.09200e-02
      1760       1763      1   0.010573   0.017026     2.60142e-01     2.09200e-02
      1759       1767      1  -0.016521   0.015716     3.00055e-01     6.91943e-02
      1759       1766      1  -0.016521   0.015716     3.00055e-01     6.91943e-02
      1758       1762      1   0.011511  -0.022462     3.00055e-01     6.91943e-02
      1758       1760      1   0.011511   0.008811     2.60142e-01     2.09200e-02
      1758       1761      1   0.011511   0.008811     2.60142e-01     2.09200e-02
      1757       1762      1   0.011511  -0.022462     3.00055e-01     6.91943e-02
      1757       1760      1   0.011511   0.008811     2.60142e-01     2.09200e-02
      1757       1761      1   0.011511   0.008811     2.60142e-01     2.09200e-02
      1756       1764      1  -0.027812   0.017026     3.00055e-01     6.91943e-02
      1756       1763      1  -0.027812   0.017026     3.00055e-01     6.91943e-02
      1755       1759      1   0.006833  -0.013767     3.00055e-01     6.91943e-02
      1755       1757      1   0.006833   0.009592     2.60142e-01     2.09200e-02
      1755       1758      1   0.006833   0.009592     2.60142e-01     2.09200e-02
      1754       1759      1   0.006833  -0.013767     3.00055e-01     6.91943e-02
      1754       1757      1   0.006833   0.009592     2.60142e-01     2.09200e-02
      1754       1758      1   0.006833   0.009592     2.60142e-01     2.09200e-02
      1753       1760      1  -0.004386   0.008811     3.00055e-01     6.91943e-02
      1753       1761      1  -0.004386   0.008811     3.00055e-01     6.91943e-02
      1752       1756      1   0.011241  -0.023177     3.00055e-01     6.91943e-02
      1752       1754      1   0.011241   0.005694     2.60142e-01     2.09200e-02
      1752       1755      1   0.011241   0.005694     2.60142e-01     2.09200e-02
      1751       1756      1   0.011241  -0.023177     3.00055e-01     6.91943e-02
      1751       1754      1   0.011241   0.005694     2.60142e-01     2.09200e-02
      1751       1755      1   0.011241   0.005694     2.60142e-01     2.09200e-02
      1750       1757      1  -0.026451   0.009592     3.00055e-01     6.91943e-02
      1750       1758      1  -0.026451   0.009592     3.00055e-01     6.91943e-02
      1749       1753      1   0.010172  -0.003655     3.00055e-01     6.91943e-02
      1749       1752      1   0.010172   0.009367     2.60142e-01     2.09200e-02
      1749       1751      1   0.010172   0.009367     2.60142e-01     2.09200e-02
      1748       1753      1   0.010172  -0.003655     3.00055e-01     6.91943e-02
      1748       1752      1   0.010172   0.009367     2.60142e-01     2.09200e-02
      1748       1751      1   0.010172   0.009367     2.60142e-01     2.09200e-02
      1747       1754      1  -0.014653   0.005694     3.00055e-01     6.91943e-02
      1747       1755      1  -0.014653   0.005694     3.00055e-01     6.91943e-02
      1746       1750      1   0.010037  -0.022042     3.00055e-01     6.91943e-02
      1746       1748      1   0.010037   0.008477     2.60142e-01     2.09200e-02
      1746       1749      1   0.010037   0.008477     2.60142e-01     2.09200e-02
      1745       1750      1   0.010037  -0.022042     3.00055e-01     6.91943e-02
      1745       1748      1   0.010037   0.008477     2.60142e-01     2.09200e-02
      1745       1749      1   0.010037   0.008477     2.60142e-01     2.09200e-02
      1744       1752      1  -0.021025   0.009367     3.00055e-01     6.91943e-02
      1744       1751      1  -0.021025   0.009367     3.00055e-01     6.91943e-02
      1743       1747      1   0.012677  -0.012211     3.00055e-01     6.91943e-02
      1743       1746      1   0.012677   0.008364     2.60142e-01     2.09200e-02
      1743       1745      1   0.012677   0.008364     2.60142e-01     2.09200e-02
      1742       1747      1   0.012677  -0.012211     3.00055e-01     6.91943e-02
      1742       1746      1   0.012677   0.008364     2.60142e-01     2.09200e-02
      1742       1745      1   0.012677   0.008364     2.60142e-01     2.09200e-02
      1741       1748      1  -0.031787   0.008477     3.00055e-01     6.91943e-02
      1741       1749      1  -0.031787   0.008477     3.00055e-01     6.91943e-02
      1740       1744      1   0.017208  -0.017521     3.00055e-01     6.91943e-02
      1740       1742      1   0.017208   0.010564     2.60142e-01     2.09200e-02
      1740       1743      1   0.017208   0.010564     2.60142e-01     2.09200e-02
      1739       1744      1   0.017208  -0.017521     3.00055e-01     6.91943e-02
      1739       1742      1   0.017208   0.010564     2.60142e-01     2.09200e-02
      1739       1743      1   0.017208   0.010564     2.60142e-01     2.09200e-02
      1738       1746      1  -0.028094   0.008364     3.00055e-01     6.91943e-02
      1738       1745      1  -0.028094   0.008364     3.00055e-01     6.91943e-02
      1737       1741      1   0.007531  -0.026489     3.00055e-01     6.91943e-02
      1737       1740      1   0.007531   0.014340     2.60142e-01     2.09200e-02
      1737       1739      1   0.007531   0.014340     2.60142e-01     2.09200e-02
      1736       1741      1   0.007531  -0.026489     3.00055e-01     6.91943e-02
      1736       1740      1   0.007531   0.014340     2.60142e-01     2.09200e-02
      1736       1739      1   0.007531   0.014340     2.60142e-01     2.09200e-02
      1735       1742      1   0.017463   0.010564     3.00055e-01     6.91943e-02
      1735       1743      1   0.017463   0.010564     3.00055e-01     6.91943e-02
      1734       1738      1   0.025511  -0.023412     3.00055e-01     6.91943e-02
      1734       1736      1   0.025511   0.006276     2.60142e-01     2.09200e-02
      1734       1737      1   0.025511   0.006276     2.60142e-01     2.09200e-02
      1733       1738      1   0.025511  -0.023412     3.00055e-01     6.91943e-02
      1733       1736      1   0.025511   0.006276     2.60142e-01     2.09200e-02
      1733       1737      1   0.025511   0.006276     2.60142e-01     2.09200e-02
      1732       1740      1  -0.111712   0.014340     3.00055e-01     6.91943e-02
      1732       1739      1  -0.111712   0.014340     3.00055e-01     6.91943e-02
      1731       1738      1   0.025511  -0.023412     3.00055e-01     6.91943e-02
      1731       1736      1   0.025511   0.006276     2.60142e-01     2.09200e-02
      1731       1737      1   0.025511   0.006276     2.60142e-01     2.09200e-02
      1810       1812      1   0.053944  -0.559638     2.78067e-01     9.58675e-02
      1810       1813      1   0.053944  -0.479574     2.80072e-01     8.62554e-02
      1809       1812      1   0.053944  -0.559638     2.78067e-01     9.58675e-02
      1809       1813      1   0.053944  -0.479574     2.80072e-01     8.62554e-02
      1807       1810      1   0.018859   0.044953     2.60142e-01     2.09200e-02
      1807       1809      1   0.018859   0.044953     2.60142e-01     2.09200e-02
      1807       1811      1   0.018859   0.758669     3.00055e-01     6.13495e-02
      1806       1810      1   0.018859   0.044953     2.60142e-01     2.09200e-02
      1806       1809      1   0.018859   0.044953     2.60142e-01     2.09200e-02
      1806       1811      1   0.018859   0.758669     3.00055e-01     6.13495e-02
      1804       1808      1   0.020431  -0.136833     3.00055e-01     6.91943e-02
      1804       1807      1   0.020431   0.015716     2.60142e-01     2.09200e-02
      1804       1806      1   0.020431   0.015716     2.60142e-01     2.09200e-02
      1803       1808      1   0.020431  -0.136833     3.00055e-01     6.91943e-02
      1803       1807      1   0.020431   0.015716     2.60142e-01     2.09200e-02
      1803       1806      1   0.020431   0.015716     2.60142e-01     2.09200e-02
      1802       1810      1  -0.026954   0.044953     3.00055e-01     6.91943e-02
      1802       1809      1  -0.026954   0.044953     3.00055e-01     6.91943e-02
      1801       1805      1   0.010573  -0.002029     3.00055e-01     6.91943e-02
      1801       1804      1   0.010573   0.017026     2.60142e-01     2.09200e-02
      1801       1803      1   0.010573   0.017026     2.60142e-01     2.09200e-02
      1800       1805      1   0.010573  -0.002029     3.00055e-01     6.91943e-02
      1800       1804      1   0.010573   0.017026     2.60142e-01     2.09200e-02
      1800       1803      1   0.010573   0.017026     2.60142e-01     2.09200e-02
      1799       1807      1  -0.016521   0.015716     3.00055e-01     6.91943e-02
      1799       1806      1  -0.016521   0.015716     3.00055e-01     6.91943e-02
      1798       1802      1   0.011511  -0.022462     3.00055e-01     6.91943e-02
      1798       1800      1   0.011511   0.008811     2.60142e-01     2.09200e-02
      1798       1801      1   0.011511   0.008811     2.60142e-01     2.09200e-02
      1797       1802      1   0.011511  -0.022462     3.00055e-01     6.91943e-02
      1797       1800      1   0.011511   0.008811     2.60142e-01     2.09200e-02
      1797       1801      1   0.011511   0.008811     2.60142e-01     2.09200e-02
      1796       1804      1  -0.027812   0.017026     3.00055e-01     6.91943e-02
      1796       1803      1  -0.027812   0.017026     3.00055e-01     6.91943e-02
      1795       1799      1   0.006833  -0.013767     3.00055e-01     6.91943e-02
      1795       1797      1   0.006833   0.009592     2.60142e-01     2.09200e-02
      1795       1798      1   0.006833   0.009592     2.60142e-01     2.09200e-02
      1794       1799      1   0.006833  -0.013767     3.00055e-01     6.91943e-02
      1794       1797      1   0.006833   0.009592     2.60142e-01     2.09200e-02
      1794       1798      1   0.006833   0.009592     2.60142e-01     2.09200e-02
      1793       1800      1  -0.004386   0.008811     3.00055e-01     6.91943e-02
      1793       1801      1  -0.004386   0.008811     3.00055e-01     6.91943e-02
      1792       1796      1   0.011241  -0.023177     3.00055e-01     6.91943e-02
      1792       1794      1   0.011241   0.005694     2.60142e-01     2.09200e-02
      1792       1795      1   0.011241   0.005694     2.60142e-01     2.09200e-02
      1791       1796      1   0.011241  -0.023177     3.00055e-01     6.91943e-02
      1791       1794      1   0.011241   0.005694     2.60142e-01     2.09200e-02
      1791       1795      1   0.011241   0.005694     2.60142e-01     2.09200e-02
      1790       1797      1  -0.026451   0.009592     3.00055e-01     6.91943e-02
      1790       1798      1  -0.026451   0.009592     3.00055e-01     6.91943e-02
      1789       1793      1   0.010172  -0.003655     3.00055e-01     6.91943e-02
      1789       1792      1   0.010172   0.009367     2.60142e-01     2.09200e-02
      1789       1791      1   0.010172   0.009367     2.60142e-01     2.09200e-02
      1788       1793      1   0.010172  -0.003655     3.00055e-01     6.91943e-02
      1788       1792      1   0.010172   0.009367     2.60142e-01     2.09200e-02
      1788       1791      1   0.010172   0.009367     2.60142e-01     2.09200e-02
      1787       1794      1  -0.014653   0.005694     3.00055e-01     6.91943e-02
      1787       1795      1  -0.014653   0.005694     3.00055e-01     6.91943e-02
      1786       1790      1   0.010037  -0.022042     3.00055e-01     6.91943e-02
      1786       1788      1   0.010037   0.008477     2.60142e-01     2.09200e-02
      1786       1789      1   0.010037   0.008477     2.60142e-01     2.09200e-02
      1785       1790      1   0.010037  -0.022042     3.00055e-01     6.91943e-02
      1785       1788      1   0.010037   0.008477     2.60142e-01     2.09200e-02
      1785       1789      1   0.010037   0.008477     2.60142e-01     2.09200e-02
      1784       1792      1  -0.021025   0.009367     3.00055e-01     6.91943e-02
      1784       1791      1  -0.021025   0.009367     3.00055e-01     6.91943e-02
      1783       1787      1   0.012677  -0.012211     3.00055e-01     6.91943e-02
      1783       1786      1   0.012677   0.008364     2.60142e-01     2.09200e-02
      1783       1785      1   0.012677   0.008364     2.60142e-01     2.09200e-02
      1782       1787      1   0.012677  -0.012211     3.00055e-01     6.91943e-02
      1782       1786      1   0.012677   0.008364     2.60142e-01     2.09200e-02
      1782       1785      1   0.012677   0.008364     2.60142e-01     2.09200e-02
      1781       1788      1  -0.031787   0.008477     3.00055e-01     6.91943e-02
      1781       1789      1  -0.031787   0.008477     3.00055e-01     6.91943e-02
      1780       1784      1   0.017208  -0.017521     3.00055e-01     6.91943e-02
      1780       1782      1   0.017208   0.010564     2.60142e-01     2.09200e-02
      1780       1783      1   0.017208   0.010564     2.60142e-01     2.09200e-02
      1779       1784      1   0.017208  -0.017521     3.00055e-01     6.91943e-02
      1779       1782      1   0.017208   0.010564     2.60142e-01     2.09200e-02
      1779       1783      1   0.017208   0.010564     2.60142e-01     2.09200e-02
      1778       1786      1  -0.028094   0.008364     3.00055e-01     6.91943e-02
      1778       1785      1  -0.028094   0.008364     3.00055e-01     6.91943e-02
      1777       1781      1   0.007531  -0.026489     3.00055e-01     6.91943e-02
      1777       1780      1   0.007531   0.014340     2.60142e-01     2.09200e-02
      1777       1779      1   0.007531   0.014340     2.60142e-01     2.09200e-02
      1776       1781      1   0.007531  -0.026489     3.00055e-01     6.91943e-02
      1776       1780      1   0.007531   0.014340     2.60142e-01     2.09200e-02
      1776       1779      1   0.007531   0.014340     2.60142e-01     2.09200e-02
      1775       1782      1   0.017463   0.010564     3.00055e-01     6.91943e-02
      1775       1783      1   0.017463   0.010564     3.00055e-01     6.91943e-02
      1774       1778      1   0.025511  -0.023412     3.00055e-01     6.91943e-02
      1774       1776      1   0.025511   0.006276     2.60142e-01     2.09200e-02
      1774       1777      1   0.025511   0.006276     2.60142e-01     2.09200e-02
      1773       1778      1   0.025511  -0.023412     3.00055e-01     6.91943e-02
      1773       1776      1   0.025511   0.006276     2.60142e-01     2.09200e-02
      1773       1777      1   0.025511   0.006276     2.60142e-01     2.09200e-02
      1772       1780      1  -0.111712   0.014340     3.00055e-01     6.91943e-02
      1772       1779      1  -0.111712   0.014340     3.00055e-01     6.91943e-02
      1771       1778      1   0.025511  -0.023412     3.00055e-01     6.91943e-02
      1771       1776      1   0.025511   0.006276     2.60142e-01     2.09200e-02
      1771       1777      1   0.025511   0.006276     2.60142e-01     2.09200e-02
      1848       1888      1  -0.673755   0.044953     2.78067e-01     9.58675e-02
      1848       1887      1  -0.673755   0.044953     2.78067e-01     9.58675e-02
      1847       1885      1   0.897613   0.015716     3.00055e-01     6.13495e-02
      1847       1884      1   0.897613   0.015716     3.00055e-01     6.13495e-02
      1846       1888      1  -0.552948   0.044953     2.80072e-01     8.62554e-02
      1846       1887      1  -0.552948   0.044953     2.80072e-01     8.62554e-02
      1839       1840      1   0.172230  -0.282478     2.67982e-01     8.67002e-02
      1838       1840      1   0.172230  -0.282478     2.67982e-01     8.67002e-02
      1837       1840      1   0.172230  -0.282478     2.67982e-01     8.67002e-02
      1836       1841      1  -0.338973   0.143525     2.67982e-01     8.67002e-02
      1836       1842      1  -0.338973   0.143525     2.67982e-01     8.67002e-02
      1836       1843      1  -0.338973   0.143525     2.67982e-01     8.67002e-02
      1835       1836      1   0.172230  -0.282478     2.67982e-01     8.67002e-02
      1835       1840      1   0.172230  -0.282478     2.67982e-01     8.67002e-02
      1834       1836      1   0.172230  -0.282478     2.67982e-01     8.67002e-02
      1834       1840      1   0.172230  -0.282478     2.67982e-01     8.67002e-02
      1833       1836      1   0.172230  -0.282478     2.67982e-01     8.67002e-02
      1833       1840      1   0.172230  -0.282478     2.67982e-01     8.67002e-02
      1832       1837      1  -0.338973   0.143525     2.67982e-01     8.67002e-02
      1832       1838      1  -0.338973   0.143525     2.67982e-01     8.67002e-02
      1832       1839      1  -0.338973   0.143525     2.67982e-01     8.67002e-02
      1832       1841      1  -0.338973   0.143525     2.67982e-01     8.67002e-02
      1832       1842      1  -0.338973   0.143525     2.67982e-01     8.67002e-02
      1832       1843      1  -0.338973   0.143525     2.67982e-01     8.67002e-02
      1830       1832      1   0.136415  -0.282478     2.67982e-01     8.67002e-02
      1830       1836      1   0.136415  -0.282478     2.67982e-01     8.67002e-02
      1830       1840      1   0.136415  -0.282478     2.67982e-01     8.67002e-02
      1829       1832      1   0.136415  -0.282478     2.67982e-01     8.67002e-02
      1829       1836      1   0.136415  -0.282478     2.67982e-01     8.67002e-02
      1829       1840      1   0.136415  -0.282478     2.67982e-01     8.67002e-02
      1828       1833      1  -0.170824   0.143525     2.67982e-01     8.67002e-02
      1828       1834      1  -0.170824   0.143525     2.67982e-01     8.67002e-02
      1828       1835      1  -0.170824   0.143525     2.67982e-01     8.67002e-02
      1828       1837      1  -0.170824   0.143525     2.67982e-01     8.67002e-02
      1828       1838      1  -0.170824   0.143525     2.67982e-01     8.67002e-02
      1828       1839      1  -0.170824   0.143525     2.67982e-01     8.67002e-02
      1828       1841      1  -0.170824   0.143525     2.67982e-01     8.67002e-02
      1828       1842      1  -0.170824   0.143525     2.67982e-01     8.67002e-02
      1828       1843      1  -0.170824   0.143525     2.67982e-01     8.67002e-02
      1827       1829      1   0.078534   0.113679     2.21567e-01     3.28444e-02
      1827       1830      1   0.078534   0.113679     2.21567e-01     3.28444e-02
      1827       1831      1   0.078534   0.204385     2.86068e-01     1.08078e-01
      1826       1829      1   0.078534   0.113679     2.21567e-01     3.28444e-02
      1826       1830      1   0.078534   0.113679     2.21567e-01     3.28444e-02
      1826       1831      1   0.078534   0.204385     2.86068e-01     1.08078e-01
      1824       1829      1  -0.508176   0.113679     2.47999e-01     1.08078e-01
      1824       1830      1  -0.508176   0.113679     2.47999e-01     1.08078e-01
      1823       1826      1   1.339721   0.065445     3.10656e-01     1.17227e-01
      1823       1827      1   1.339721   0.065445     3.10656e-01     1.17227e-01
      1821       1846      1   0.095591  -0.460790     2.73568e-01     1.08078e-01
      1821       1823      1   0.095591   1.116434     3.10656e-01     1.17227e-01
      1820       1846      1   0.095591  -0.460790     2.73568e-01     1.08078e-01
      1820       1823      1   0.095591   1.116434     3.10656e-01     1.17227e-01
      1818       1820      1   0.063253   0.079659     2.47135e-01     3.28444e-02
      1818       1821      1   0.063253   0.079659     2.47135e-01     3.28444e-02
      1818       1822      1   0.063253  -0.424567     2.73568e-01     1.08078e-01
      1818       1847      1   0.063253   0.748011     2.93551e-01     7.68707e-02
      1816       1818      1   0.070469   0.052711     2.47135e-01     3.28444e-02
      1816       1819      1   0.070469   0.014549     2.93551e-01     8.67002e-02
      1816       1846      1   0.070469  -0.460790     2.73568e-01     1.08078e-01
      1815       1818      1   0.070469   0.052711     2.47135e-01     3.28444e-02
      1815       1819      1   0.070469   0.014549     2.93551e-01     8.67002e-02
      1815       1846      1   0.070469  -0.460790     2.73568e-01     1.08078e-01
      1814       1820      1   0.196939   0.079659     2.93551e-01     8.67002e-02
      1814       1821      1   0.196939   0.079659     2.93551e-01     8.67002e-02
      1813       1818      1  -0.575489   0.052711     2.73568e-01     1.08078e-01
      1811       1815      1   0.910403   0.058724     2.93551e-01     7.68707e-02
      1811       1816      1   0.910403   0.058724     2.93551e-01     7.68707e-02
      1885       1888      1   0.018859   0.044953     2.60142e-01     2.09200e-02
      1885       1887      1   0.018859   0.044953     2.60142e-01     2.09200e-02
      1884       1888      1   0.018859   0.044953     2.60142e-01     2.09200e-02
      1884       1887      1   0.018859   0.044953     2.60142e-01     2.09200e-02
      1882       1886      1   0.020431  -0.136833     3.00055e-01     6.91943e-02
      1882       1885      1   0.020431   0.015716     2.60142e-01     2.09200e-02
      1882       1884      1   0.020431   0.015716     2.60142e-01     2.09200e-02
      1881       1886      1   0.020431  -0.136833     3.00055e-01     6.91943e-02
      1881       1885      1   0.020431   0.015716     2.60142e-01     2.09200e-02
      1881       1884      1   0.020431   0.015716     2.60142e-01     2.09200e-02
      1880       1888      1  -0.026954   0.044953     3.00055e-01     6.91943e-02
      1880       1887      1  -0.026954   0.044953     3.00055e-01     6.91943e-02
      1879       1883      1   0.010573  -0.002029     3.00055e-01     6.91943e-02
      1879       1882      1   0.010573   0.017026     2.60142e-01     2.09200e-02
      1879       1881      1   0.010573   0.017026     2.60142e-01     2.09200e-02
      1878       1883      1   0.010573  -0.002029     3.00055e-01     6.91943e-02
      1878       1882      1   0.010573   0.017026     2.60142e-01     2.09200e-02
      1878       1881      1   0.010573   0.017026     2.60142e-01     2.09200e-02
      1877       1885      1  -0.016521   0.015716     3.00055e-01     6.91943e-02
      1877       1884      1  -0.016521   0.015716     3.00055e-01     6.91943e-02
      1876       1880      1   0.011511  -0.022462     3.00055e-01     6.91943e-02
      1876       1878      1   0.011511   0.008811     2.60142e-01     2.09200e-02
      1876       1879      1   0.011511   0.008811     2.60142e-01     2.09200e-02
      1875       1880      1   0.011511  -0.022462     3.00055e-01     6.91943e-02
      1875       1878      1   0.011511   0.008811     2.60142e-01     2.09200e-02
      1875       1879      1   0.011511   0.008811     2.60142e-01     2.09200e-02
      1874       1882      1  -0.027812   0.017026     3.00055e-01     6.91943e-02
      1874       1881      1  -0.027812   0.017026     3.00055e-01     6.91943e-02
      1873       1877      1   0.006833  -0.013767     3.00055e-01     6.91943e-02
      1873       1875      1   0.006833   0.009592     2.60142e-01     2.09200e-02
      1873       1876      1   0.006833   0.009592     2.60142e-01     2.09200e-02
      1872       1877      1   0.006833  -0.013767     3.00055e-01     6.91943e-02
      1872       1875      1   0.006833   0.009592     2.60142e-01     2.09200e-02
      1872       1876      1   0.006833   0.009592     2.60142e-01     2.09200e-02
      1871       1878      1  -0.004386   0.008811     3.00055e-01     6.91943e-02
      1871       1879      1  -0.004386   0.008811     3.00055e-01     6.91943e-02
      1870       1874      1   0.011241  -0.023177     3.00055e-01     6.91943e-02
      1870       1872      1   0.011241   0.005694     2.60142e-01     2.09200e-02
      1870       1873      1   0.011241   0.005694     2.60142e-01     2.09200e-02
      1869       1874      1   0.011241  -0.023177     3.00055e-01     6.91943e-02
      1869       1872      1   0.011241   0.005694     2.60142e-01     2.09200e-02
      1869       1873      1   0.011241   0.005694     2.60142e-01     2.09200e-02
      1868       1875      1  -0.026451   0.009592     3.00055e-01     6.91943e-02
      1868       1876      1  -0.026451   0.009592     3.00055e-01     6.91943e-02
      1867       1871      1   0.010172  -0.003655     3.00055e-01     6.91943e-02
      1867       1870      1   0.010172   0.009367     2.60142e-01     2.09200e-02
      1867       1869      1   0.010172   0.009367     2.60142e-01     2.09200e-02
      1866       1871      1   0.010172  -0.003655     3.00055e-01     6.91943e-02
      1866       1870      1   0.010172   0.009367     2.60142e-01     2.09200e-02
      1866       1869      1   0.010172   0.009367     2.60142e-01     2.09200e-02
      1865       1872      1  -0.014653   0.005694     3.00055e-01     6.91943e-02
      1865       1873      1  -0.014653   0.005694     3.00055e-01     6.91943e-02
      1864       1868      1   0.010037  -0.022042     3.00055e-01     6.91943e-02
      1864       1866      1   0.010037   0.008477     2.60142e-01     2.09200e-02
      1864       1867      1   0.010037   0.008477     2.60142e-01     2.09200e-02
      1863       1868      1   0.010037  -0.022042     3.00055e-01     6.91943e-02
      1863       1866      1   0.010037   0.008477     2.60142e-01     2.09200e-02
      1863       1867      1   0.010037   0.008477     2.60142e-01     2.09200e-02
      1862       1870      1  -0.021025   0.009367     3.00055e-01     6.91943e-02
      1862       1869      1  -0.021025   0.009367     3.00055e-01     6.91943e-02
      1861       1865      1   0.012677  -0.012211     3.00055e-01     6.91943e-02
      1861       1864      1   0.012677   0.008364     2.60142e-01     2.09200e-02
      1861       1863      1   0.012677   0.008364     2.60142e-01     2.09200e-02
      1860       1865      1   0.012677  -0.012211     3.00055e-01     6.91943e-02
      1860       1864      1   0.012677   0.008364     2.60142e-01     2.09200e-02
      1860       1863      1   0.012677   0.008364     2.60142e-01     2.09200e-02
      1859       1866      1  -0.031787   0.008477     3.00055e-01     6.91943e-02
      1859       1867      1  -0.031787   0.008477     3.00055e-01     6.91943e-02
      1858       1862      1   0.017208  -0.017521     3.00055e-01     6.91943e-02
      1858       1860      1   0.017208   0.010564     2.60142e-01     2.09200e-02
      1858       1861      1   0.017208   0.010564     2.60142e-01     2.09200e-02
      1857       1862      1   0.017208  -0.017521     3.00055e-01     6.91943e-02
      1857       1860      1   0.017208   0.010564     2.60142e-01     2.09200e-02
      1857       1861      1   0.017208   0.010564     2.60142e-01     2.09200e-02
      1856       1864      1  -0.028094   0.008364     3.00055e-01     6.91943e-02
      1856       1863      1  -0.028094   0.008364     3.00055e-01     6.91943e-02
      1855       1859      1   0.007531  -0.026489     3.00055e-01     6.91943e-02
      1855       1858      1   0.007531   0.014340     2.60142e-01     2.09200e-02
      1855       1857      1   0.007531   0.014340     2.60142e-01     2.09200e-02
      1854       1859      1   0.007531  -0.026489     3.00055e-01     6.91943e-02
      1854       1858      1   0.007531   0.014340     2.60142e-01     2.09200e-02
      1854       1857      1   0.007531   0.014340     2.60142e-01     2.09200e-02
      1853       1860      1   0.017463   0.010564     3.00055e-01     6.91943e-02
      1853       1861      1   0.017463   0.010564     3.00055e-01     6.91943e-02
      1852       1856      1   0.025511  -0.023412     3.00055e-01     6.91943e-02
      1852       1854      1   0.025511   0.006276     2.60142e-01     2.09200e-02
      1852       1855      1   0.025511   0.006276     2.60142e-01     2.09200e-02
      1851       1856      1   0.025511  -0.023412     3.00055e-01     6.91943e-02
      1851       1854      1   0.025511   0.006276     2.60142e-01     2.09200e-02
      1851       1855      1   0.025511   0.006276     2.60142e-01     2.09200e-02
      1850       1858      1  -0.111712   0.014340     3.00055e-01     6.91943e-02
      1850       1857      1  -0.111712   0.014340     3.00055e-01     6.91943e-02
      1849       1856      1   0.025511  -0.023412     3.00055e-01     6.91943e-02
      1849       1854      1   0.025511   0.006276     2.60142e-01     2.09200e-02
      1849       1855      1   0.025511   0.006276     2.60142e-01     2.09200e-02
      1928       1930      1   0.053944  -0.559638     2.78067e-01     9.58675e-02
      1928       1931      1   0.053944  -0.479574     2.80072e-01     8.62554e-02
      1927       1930      1   0.053944  -0.559638     2.78067e-01     9.58675e-02
      1927       1931      1   0.053944  -0.479574     2.80072e-01     8.62554e-02
      1925       1928      1   0.018859   0.044953     2.60142e-01     2.09200e-02
      1925       1927      1   0.018859   0.044953     2.60142e-01     2.09200e-02
      1925       1929      1   0.018859   0.758669     3.00055e-01     6.13495e-02
      1924       1928      1   0.018859   0.044953     2.60142e-01     2.09200e-02
      1924       1927      1   0.018859   0.044953     2.60142e-01     2.09200e-02
      1924       1929      1   0.018859   0.758669     3.00055e-01     6.13495e-02
      1922       1926      1   0.020431  -0.136833     3.00055e-01     6.91943e-02
      1922       1925      1   0.020431   0.015716     2.60142e-01     2.09200e-02
      1922       1924      1   0.020431   0.015716     2.60142e-01     2.09200e-02
      1921       1926      1   0.020431  -0.136833     3.00055e-01     6.91943e-02
      1921       1925      1   0.020431   0.015716     2.60142e-01     2.09200e-02
      1921       1924      1   0.020431   0.015716     2.60142e-01     2.09200e-02
      1920       1928      1  -0.026954   0.044953     3.00055e-01     6.91943e-02
      1920       1927      1  -0.026954   0.044953     3.00055e-01     6.91943e-02
      1919       1923      1   0.010573  -0.002029     3.00055e-01     6.91943e-02
      1919       1922      1   0.010573   0.017026     2.60142e-01     2.09200e-02
      1919       1921      1   0.010573   0.017026     2.60142e-01     2.09200e-02
      1918       1923      1   0.010573  -0.002029     3.00055e-01     6.91943e-02
      1918       1922      1   0.010573   0.017026     2.60142e-01     2.09200e-02
      1918       1921      1   0.010573   0.017026     2.60142e-01     2.09200e-02
      1917       1925      1  -0.016521   0.015716     3.00055e-01     6.91943e-02
      1917       1924      1  -0.016521   0.015716     3.00055e-01     6.91943e-02
      1916       1920      1   0.011511  -0.022462     3.00055e-01     6.91943e-02
      1916       1918      1   0.011511   0.008811     2.60142e-01     2.09200e-02
      1916       1919      1   0.011511   0.008811     2.60142e-01     2.09200e-02
      1915       1920      1   0.011511  -0.022462     3.00055e-01     6.91943e-02
      1915       1918      1   0.011511   0.008811     2.60142e-01     2.09200e-02
      1915       1919      1   0.011511   0.008811     2.60142e-01     2.09200e-02
      1914       1922      1  -0.027812   0.017026     3.00055e-01     6.91943e-02
      1914       1921      1  -0.027812   0.017026     3.00055e-01     6.91943e-02
      1913       1917      1   0.006833  -0.013767     3.00055e-01     6.91943e-02
      1913       1915      1   0.006833   0.009592     2.60142e-01     2.09200e-02
      1913       1916      1   0.006833   0.009592     2.60142e-01     2.09200e-02
      1912       1917      1   0.006833  -0.013767     3.00055e-01     6.91943e-02
      1912       1915      1   0.006833   0.009592     2.60142e-01     2.09200e-02
      1912       1916      1   0.006833   0.009592     2.60142e-01     2.09200e-02
      1911       1918      1  -0.004386   0.008811     3.00055e-01     6.91943e-02
      1911       1919      1  -0.004386   0.008811     3.00055e-01     6.91943e-02
      1910       1914      1   0.011241  -0.023177     3.00055e-01     6.91943e-02
      1910       1912      1   0.011241   0.005694     2.60142e-01     2.09200e-02
      1910       1913      1   0.011241   0.005694     2.60142e-01     2.09200e-02
      1909       1914      1   0.011241  -0.023177     3.00055e-01     6.91943e-02
      1909       1912      1   0.011241   0.005694     2.60142e-01     2.09200e-02
      1909       1913      1   0.011241   0.005694     2.60142e-01     2.09200e-02
      1908       1915      1  -0.026451   0.009592     3.00055e-01     6.91943e-02
      1908       1916      1  -0.026451   0.009592     3.00055e-01     6.91943e-02
      1907       1911      1   0.010172  -0.003655     3.00055e-01     6.91943e-02
      1907       1910      1   0.010172   0.009367     2.60142e-01     2.09200e-02
      1907       1909      1   0.010172   0.009367     2.60142e-01     2.09200e-02
      1906       1911      1   0.010172  -0.003655     3.00055e-01     6.91943e-02
      1906       1910      1   0.010172   0.009367     2.60142e-01     2.09200e-02
      1906       1909      1   0.010172   0.009367     2.60142e-01     2.09200e-02
      1905       1912      1  -0.014653   0.005694     3.00055e-01     6.91943e-02
      1905       1913      1  -0.014653   0.005694     3.00055e-01     6.91943e-02
      1904       1908      1   0.010037  -0.022042     3.00055e-01     6.91943e-02
      1904       1906      1   0.010037   0.008477     2.60142e-01     2.09200e-02
      1904       1907      1   0.010037   0.008477     2.60142e-01     2.09200e-02
      1903       1908      1   0.010037  -0.022042     3.00055e-01     6.91943e-02
      1903       1906      1   0.010037   0.008477     2.60142e-01     2.09200e-02
      1903       1907      1   0.010037   0.008477     2.60142e-01     2.09200e-02
      1902       1910      1  -0.021025   0.009367     3.00055e-01     6.91943e-02
      1902       1909      1  -0.021025   0.009367     3.00055e-01     6.91943e-02
      1901       1905      1   0.012677  -0.012211     3.00055e-01     6.91943e-02
      1901       1904      1   0.012677   0.008364     2.60142e-01     2.09200e-02
      1901       1903      1   0.012677   0.008364     2.60142e-01     2.09200e-02
      1900       1905      1   0.012677  -0.012211     3.00055e-01     6.91943e-02
      1900       1904      1   0.012677   0.008364     2.60142e-01     2.09200e-02
      1900       1903      1   0.012677   0.008364     2.60142e-01     2.09200e-02
      1899       1906      1  -0.031787   0.008477     3.00055e-01     6.91943e-02
      1899       1907      1  -0.031787   0.008477     3.00055e-01     6.91943e-02
      1898       1902      1   0.017208  -0.017521     3.00055e-01     6.91943e-02
      1898       1900      1   0.017208   0.010564     2.60142e-01     2.09200e-02
      1898       1901      1   0.017208   0.010564     2.60142e-01     2.09200e-02
      1897       1902      1   0.017208  -0.017521     3.00055e-01     6.91943e-02
      1897       1900      1   0.017208   0.010564     2.60142e-01     2.09200e-02
      1897       1901      1   0.017208   0.010564     2.60142e-01     2.09200e-02
      1896       1904      1  -0.028094   0.008364     3.00055e-01     6.91943e-02
      1896       1903      1  -0.028094   0.008364     3.00055e-01     6.91943e-02
      1895       1899      1   0.007531  -0.026489     3.00055e-01     6.91943e-02
      1895       1898      1   0.007531   0.014340     2.60142e-01     2.09200e-02
      1895       1897      1   0.007531   0.014340     2.60142e-01     2.09200e-02
      1894       1899      1   0.007531  -0.026489     3.00055e-01     6.91943e-02
      1894       1898      1   0.007531   0.014340     2.60142e-01     2.09200e-02
      1894       1897      1   0.007531   0.014340     2.60142e-01     2.09200e-02
      1893       1900      1   0.017463   0.010564     3.00055e-01     6.91943e-02
      1893       1901      1   0.017463   0.010564     3.00055e-01     6.91943e-02
      1892       1896      1   0.025511  -0.023412     3.00055e-01     6.91943e-02
      1892       1894      1   0.025511   0.006276     2.60142e-01     2.09200e-02
      1892       1895      1   0.025511   0.006276     2.60142e-01     2.09200e-02
      1891       1896      1   0.025511  -0.023412     3.00055e-01     6.91943e-02
      1891       1894      1   0.025511   0.006276     2.60142e-01     2.09200e-02
      1891       1895      1   0.025511   0.006276     2.60142e-01     2.09200e-02
      1890       1898      1  -0.111712   0.014340     3.00055e-01     6.91943e-02
      1890       1897      1  -0.111712   0.014340     3.00055e-01     6.91943e-02
      1889       1896      1   0.025511  -0.023412     3.00055e-01     6.91943e-02
      1889       1894      1   0.025511   0.006276     2.60142e-01     2.09200e-02
      1889       1895      1   0.025511   0.006276     2.60142e-01     2.09200e-02
      1966       2006      1  -0.673755   0.044953     2.78067e-01     9.58675e-02
      1966       2005      1  -0.673755   0.044953     2.78067e-01     9.58675e-02
      1965       2003      1   0.897613   0.015716     3.00055e-01     6.13495e-02
      1965       2002      1   0.897613   0.015716     3.00055e-01     6.13495e-02
      1964       2006      1  -0.552948   0.044953     2.80072e-01     8.62554e-02
      1964       2005      1  -0.552948   0.044953     2.80072e-01     8.62554e-02
      1957       1958      1   0.172230  -0.282478     2.67982e-01     8.67002e-02
      1956       1958      1   0.172230  -0.282478     2.67982e-01     8.67002e-02
      1955       1958      1   0.172230  -0.282478     2.67982e-01     8.67002e-02
      1954       1959      1  -0.338973   0.143525     2.67982e-01     8.67002e-02
      1954       1960      1  -0.338973   0.143525     2.67982e-01     8.67002e-02
      1954       1961      1  -0.338973   0.143525     2.67982e-01     8.67002e-02
      1953       1954      1   0.172230  -0.282478     2.67982e-01     8.67002e-02
      1953       1958      1   0.172230  -0.282478     2.67982e-01     8.67002e-02
      1952       1954      1   0.172230  -0.282478     2.67982e-01     8.67002e-02
      1952       1958      1   0.172230  -0.282478     2.67982e-01     8.67002e-02
      1951       1954      1   0.172230  -0.282478     2.67982e-01     8.67002e-02
      1951       1958      1   0.172230  -0.282478     2.67982e-01     8.67002e-02
      1950       1955      1  -0.338973   0.143525     2.67982e-01     8.67002e-02
      1950       1956      1  -0.338973   0.143525     2.67982e-01     8.67002e-02
      1950       1957      1  -0.338973   0.143525     2.67982e-01     8.67002e-02
      1950       1959      1  -0.338973   0.143525     2.67982e-01     8.67002e-02
      1950       1960      1  -0.338973   0.143525     2.67982e-01     8.67002e-02
      1950       1961      1  -0.338973   0.143525     2.67982e-01     8.67002e-02
      1948       1950      1   0.136415  -0.282478     2.67982e-01     8.67002e-02
      1948       1954      1   0.136415  -0.282478     2.67982e-01     8.67002e-02
      1948       1958      1   0.136415  -0.282478     2.67982e-01     8.67002e-02
      1947       1950      1   0.136415  -0.282478     2.67982e-01     8.67002e-02
      1947       1954      1   0.136415  -0.282478     2.67982e-01     8.67002e-02
      1947       1958      1   0.136415  -0.282478     2.67982e-01     8.67002e-02
      1946       1951      1  -0.170824   0.143525     2.67982e-01     8.67002e-02
      1946       1952      1  -0.170824   0.143525     2.67982e-01     8.67002e-02
      1946       1953      1  -0.170824   0.143525     2.67982e-01     8.67002e-02
      1946       1955      1  -0.170824   0.143525     2.67982e-01     8.67002e-02
      1946       1956      1  -0.170824   0.143525     2.67982e-01     8.67002e-02
      1946       1957      1  -0.170824   0.143525     2.67982e-01     8.67002e-02
      1946       1959      1  -0.170824   0.143525     2.67982e-01     8.67002e-02
      1946       1960      1  -0.170824   0.143525     2.67982e-01     8.67002e-02
      1946       1961      1  -0.170824   0.143525     2.67982e-01     8.67002e-02
      1945       1947      1   0.078534   0.113679     2.21567e-01     3.28444e-02
      1945       1948      1   0.078534   0.113679     2.21567e-01     3.28444e-02
      1945       1949      1   0.078534   0.204385     2.86068e-01     1.08078e-01
      1944       1947      1   0.078534   0.113679     2.21567e-01     3.28444e-02
      1944       1948      1   0.078534   0.113679     2.21567e-01     3.28444e-02
      1944       1949      1   0.078534   0.204385     2.86068e-01     1.08078e-01
      1942       1947      1  -0.508176   0.113679     2.47999e-01     1.08078e-01
      1942       1948      1  -0.508176   0.113679     2.47999e-01     1.08078e-01
      1941       1944      1   1.339721   0.065445     3.10656e-01     1.17227e-01
      1941       1945      1   1.339721   0.065445     3.10656e-01     1.17227e-01
      1939       1964      1   0.095591  -0.460790     2.73568e-01     1.08078e-01
      1939       1941      1   0.095591   1.116434     3.10656e-01     1.17227e-01
      1938       1964      1   0.095591  -0.460790     2.73568e-01     1.08078e-01
      1938       1941      1   0.095591   1.116434     3.10656e-01     1.17227e-01
      1936       1938      1   0.063253   0.079659     2.47135e-01     3.28444e-02
      1936       1939      1   0.063253   0.079659     2.47135e-01     3.28444e-02
      1936       1940      1   0.063253  -0.424567     2.73568e-01     1.08078e-01
      1936       1965      1   0.063253   0.748011     2.93551e-01     7.68707e-02
      1934       1936      1   0.070469   0.052711     2.47135e-01     3.28444e-02
      1934       1937      1   0.070469   0.014549     2.93551e-01     8.67002e-02
      1934       1964      1   0.070469  -0.460790     2.73568e-01     1.08078e-01
      1933       1936      1   0.070469   0.052711     2.47135e-01     3.28444e-02
      1933       1937      1   0.070469   0.014549     2.93551e-01     8.67002e-02
      1933       1964      1   0.070469  -0.460790     2.73568e-01     1.08078e-01
      1932       1938      1   0.196939   0.079659     2.93551e-01     8.67002e-02
      1932       1939      1   0.196939   0.079659     2.93551e-01     8.67002e-02
      1931       1936      1  -0.575489   0.052711     2.73568e-01     1.08078e-01
      1929       1933      1   0.910403   0.058724     2.93551e-01     7.68707e-02
      1929       1934      1   0.910403   0.058724     2.93551e-01     7.68707e-02
      2003       2006      1   0.018859   0.044953     2.60142e-01     2.09200e-02
      2003       2005      1   0.018859   0.044953     2.60142e-01     2.09200e-02
      2002       2006      1   0.018859   0.044953     2.60142e-01     2.09200e-02
      2002       2005      1   0.018859   0.044953     2.60142e-01     2.09200e-02
      2000       2004      1   0.020431  -0.136833     3.00055e-01     6.91943e-02
      2000       2003      1   0.020431   0.015716     2.60142e-01     2.09200e-02
      2000       2002      1   0.020431   0.015716     2.60142e-01     2.09200e-02
      1999       2004      1   0.020431  -0.136833     3.00055e-01     6.91943e-02
      1999       2003      1   0.020431   0.015716     2.60142e-01     2.09200e-02
      1999       2002      1   0.020431   0.015716     2.60142e-01     2.09200e-02
      1998       2006      1  -0.026954   0.044953     3.00055e-01     6.91943e-02
      1998       2005      1  -0.026954   0.044953     3.00055e-01     6.91943e-02
      1997       2001      1   0.010573  -0.002029     3.00055e-01     6.91943e-02
      1997       2000      1   0.010573   0.017026     2.60142e-01     2.09200e-02
      1997       1999      1   0.010573   0.017026     2.60142e-01     2.09200e-02
      1996       2001      1   0.010573  -0.002029     3.00055e-01     6.91943e-02
      1996       2000      1   0.010573   0.017026     2.60142e-01     2.09200e-02
      1996       1999      1   0.010573   0.017026     2.60142e-01     2.09200e-02
      1995       2003      1  -0.016521   0.015716     3.00055e-01     6.91943e-02
      1995       2002      1  -0.016521   0.015716     3.00055e-01     6.91943e-02
      1994       1998      1   0.011511  -0.022462     3.00055e-01     6.91943e-02
      1994       1996      1   0.011511   0.008811     2.60142e-01     2.09200e-02
      1994       1997      1   0.011511   0.008811     2.60142e-01     2.09200e-02
      1993       1998      1   0.011511  -0.022462     3.00055e-01     6.91943e-02
      1993       1996      1   0.011511   0.008811     2.60142e-01     2.09200e-02
      1993       1997      1   0.011511   0.008811     2.60142e-01     2.09200e-02
      1992       2000      1  -0.027812   0.017026     3.00055e-01     6.91943e-02
      1992       1999      1  -0.027812   0.017026     3.00055e-01     6.91943e-02
      1991       1995      1   0.006833  -0.013767     3.00055e-01     6.91943e-02
      1991       1993      1   0.006833   0.009592     2.60142e-01     2.09200e-02
      1991       1994      1   0.006833   0.009592     2.60142e-01     2.09200e-02
      1990       1995      1   0.006833  -0.013767     3.00055e-01     6.91943e-02
      1990       1993      1   0.006833   0.009592     2.60142e-01     2.09200e-02
      1990       1994      1   0.006833   0.009592     2.60142e-01     2.09200e-02
      1989       1996      1  -0.004386   0.008811     3.00055e-01     6.91943e-02
      1989       1997      1  -0.004386   0.008811     3.00055e-01     6.91943e-02
      1988       1992      1   0.011241  -0.023177     3.00055e-01     6.91943e-02
      1988       1990      1   0.011241   0.005694     2.60142e-01     2.09200e-02
      1988       1991      1   0.011241   0.005694     2.60142e-01     2.09200e-02
      1987       1992      1   0.011241  -0.023177     3.00055e-01     6.91943e-02
      1987       1990      1   0.011241   0.005694     2.60142e-01     2.09200e-02
      1987       1991      1   0.011241   0.005694     2.60142e-01     2.09200e-02
      1986       1993      1  -0.026451   0.009592     3.00055e-01     6.91943e-02
      1986       1994      1  -0.026451   0.009592     3.00055e-01     6.91943e-02
      1985       1989      1   0.010172  -0.003655     3.00055e-01     6.91943e-02
      1985       1988      1   0.010172   0.009367     2.60142e-01     2.09200e-02
      1985       1987      1   0.010172   0.009367     2.60142e-01     2.09200e-02
      1984       1989      1   0.010172  -0.003655     3.00055e-01     6.91943e-02
      1984       1988      1   0.010172   0.009367     2.60142e-01     2.09200e-02
      1984       1987      1   0.010172   0.009367     2.60142e-01     2.09200e-02
      1983       1990      1  -0.014653   0.005694     3.00055e-01     6.91943e-02
      1983       1991      1  -0.014653   0.005694     3.00055e-01     6.91943e-02
      1982       1986      1   0.010037  -0.022042     3.00055e-01     6.91943e-02
      1982       1984      1   0.010037   0.008477     2.60142e-01     2.09200e-02
      1982       1985      1   0.010037   0.008477     2.60142e-01     2.09200e-02
      1981       1986      1   0.010037  -0.022042     3.00055e-01     6.91943e-02
      1981       1984      1   0.010037   0.008477     2.60142e-01     2.09200e-02
      1981       1985      1   0.010037   0.008477     2.60142e-01     2.09200e-02
      1980       1988      1  -0.021025   0.009367     3.00055e-01     6.91943e-02
      1980       1987      1  -0.021025   0.009367     3.00055e-01     6.91943e-02
      1979       1983      1   0.012677  -0.012211     3.00055e-01     6.91943e-02
      1979       1982      1   0.012677   0.008364     2.60142e-01     2.09200e-02
      1979       1981      1   0.012677   0.008364     2.60142e-01     2.09200e-02
      1978       1983      1   0.012677  -0.012211     3.00055e-01     6.91943e-02
      1978       1982      1   0.012677   0.008364     2.60142e-01     2.09200e-02
      1978       1981      1   0.012677   0.008364     2.60142e-01     2.09200e-02
      1977       1984      1  -0.031787   0.008477     3.00055e-01     6.91943e-02
      1977       1985      1  -0.031787   0.008477     3.00055e-01     6.91943e-02
      1976       1980      1   0.017208  -0.017521     3.00055e-01     6.91943e-02
      1976       1978      1   0.017208   0.010564     2.60142e-01     2.09200e-02
      1976       1979      1   0.017208   0.010564     2.60142e-01     2.09200e-02
      1975       1980      1   0.017208  -0.017521     3.00055e-01     6.91943e-02
      1975       1978      1   0.017208   0.010564     2.60142e-01     2.09200e-02
      1975       1979      1   0.017208   0.010564     2.60142e-01     2.09200e-02
      1974       1982      1  -0.028094   0.008364     3.00055e-01     6.91943e-02
      1974       1981      1  -0.028094   0.008364     3.00055e-01     6.91943e-02
      1973       1977      1   0.007531  -0.026489     3.00055e-01     6.91943e-02
      1973       1976      1   0.007531   0.014340     2.60142e-01     2.09200e-02
      1973       1975      1   0.007531   0.014340     2.60142e-01     2.09200e-02
      1972       1977      1   0.007531  -0.026489     3.00055e-01     6.91943e-02
      1972       1976      1   0.007531   0.014340     2.60142e-01     2.09200e-02
      1972       1975      1   0.007531   0.014340     2.60142e-01     2.09200e-02
      1971       1978      1   0.017463   0.010564     3.00055e-01     6.91943e-02
      1971       1979      1   0.017463   0.010564     3.00055e-01     6.91943e-02
      1970       1974      1   0.025511  -0.023412     3.00055e-01     6.91943e-02
      1970       1972      1   0.025511   0.006276     2.60142e-01     2.09200e-02
      1970       1973      1   0.025511   0.006276     2.60142e-01     2.09200e-02
      1969       1974      1   0.025511  -0.023412     3.00055e-01     6.91943e-02
      1969       1972      1   0.025511   0.006276     2.60142e-01     2.09200e-02
      1969       1973      1   0.025511   0.006276     2.60142e-01     2.09200e-02
      1968       1976      1  -0.111712   0.014340     3.00055e-01     6.91943e-02
      1968       1975      1  -0.111712   0.014340     3.00055e-01     6.91943e-02
      1967       1974      1   0.025511  -0.023412     3.00055e-01     6.91943e-02
      1967       1972      1   0.025511   0.006276     2.60142e-01     2.09200e-02
      1967       1973      1   0.025511   0.006276     2.60142e-01     2.09200e-02
      2046       2048      1   0.053944  -0.559638     2.78067e-01     9.58675e-02
      2046       2049      1   0.053944  -0.479574     2.80072e-01     8.62554e-02
      2045       2048      1   0.053944  -0.559638     2.78067e-01     9.58675e-02
      2045       2049      1   0.053944  -0.479574     2.80072e-01     8.62554e-02
      2043       2046      1   0.018859   0.044953     2.60142e-01     2.09200e-02
      2043       2045      1   0.018859   0.044953     2.60142e-01     2.09200e-02
      2043       2047      1   0.018859   0.758669     3.00055e-01     6.13495e-02
      2042       2046      1   0.018859   0.044953     2.60142e-01     2.09200e-02
      2042       2045      1   0.018859   0.044953     2.60142e-01     2.09200e-02
      2042       2047      1   0.018859   0.758669     3.00055e-01     6.13495e-02
      2040       2044      1   0.020431  -0.136833     3.00055e-01     6.91943e-02
      2040       2043      1   0.020431   0.015716     2.60142e-01     2.09200e-02
      2040       2042      1   0.020431   0.015716     2.60142e-01     2.09200e-02
      2039       2044      1   0.020431  -0.136833     3.00055e-01     6.91943e-02
      2039       2043      1   0.020431   0.015716     2.60142e-01     2.09200e-02
      2039       2042      1   0.020431   0.015716     2.60142e-01     2.09200e-02
      2038       2046      1  -0.026954   0.044953     3.00055e-01     6.91943e-02
      2038       2045      1  -0.026954   0.044953     3.00055e-01     6.91943e-02
      2037       2041      1   0.010573  -0.002029     3.00055e-01     6.91943e-02
      2037       2040      1   0.010573   0.017026     2.60142e-01     2.09200e-02
      2037       2039      1   0.010573   0.017026     2.60142e-01     2.09200e-02
      2036       2041      1   0.010573  -0.002029     3.00055e-01     6.91943e-02
      2036       2040      1   0.010573   0.017026     2.60142e-01     2.09200e-02
      2036       2039      1   0.010573   0.017026     2.60142e-01     2.09200e-02
      2035       2043      1  -0.016521   0.015716     3.00055e-01     6.91943e-02
      2035       2042      1  -0.016521   0.015716     3.00055e-01     6.91943e-02
      2034       2038      1   0.011511  -0.022462     3.00055e-01     6.91943e-02
      2034       2036      1   0.011511   0.008811     2.60142e-01     2.09200e-02
      2034       2037      1   0.011511   0.008811     2.60142e-01     2.09200e-02
      2033       2038      1   0.011511  -0.022462     3.00055e-01     6.91943e-02
      2033       2036      1   0.011511   0.008811     2.60142e-01     2.09200e-02
      2033       2037      1   0.011511   0.008811     2.60142e-01     2.09200e-02
      2032       2040      1  -0.027812   0.017026     3.00055e-01     6.91943e-02
      2032       2039      1  -0.027812   0.017026     3.00055e-01     6.91943e-02
      2031       2035      1   0.006833  -0.013767     3.00055e-01     6.91943e-02
      2031       2033      1   0.006833   0.009592     2.60142e-01     2.09200e-02
      2031       2034      1   0.006833   0.009592     2.60142e-01     2.09200e-02
      2030       2035      1   0.006833  -0.013767     3.00055e-01     6.91943e-02
      2030       2033      1   0.006833   0.009592     2.60142e-01     2.09200e-02
      2030       2034      1   0.006833   0.009592     2.60142e-01     2.09200e-02
      2029       2036      1  -0.004386   0.008811     3.00055e-01     6.91943e-02
      2029       2037      1  -0.004386   0.008811     3.00055e-01     6.91943e-02
      2028       2032      1   0.011241  -0.023177     3.00055e-01     6.91943e-02
      2028       2030      1   0.011241   0.005694     2.60142e-01     2.09200e-02
      2028       2031      1   0.011241   0.005694     2.60142e-01     2.09200e-02
      2027       2032      1   0.011241  -0.023177     3.00055e-01     6.91943e-02
      2027       2030      1   0.011241   0.005694     2.60142e-01     2.09200e-02
      2027       2031      1   0.011241   0.005694     2.60142e-01     2.09200e-02
      2026       2033      1  -0.026451   0.009592     3.00055e-01     6.91943e-02
      2026       2034      1  -0.026451   0.009592     3.00055e-01     6.91943e-02
      2025       2029      1   0.010172  -0.003655     3.00055e-01     6.91943e-02
      2025       2028      1   0.010172   0.009367     2.60142e-01     2.09200e-02
      2025       2027      1   0.010172   0.009367     2.60142e-01     2.09200e-02
      2024       2029      1   0.010172  -0.003655     3.00055e-01     6.91943e-02
      2024       2028      1   0.010172   0.009367     2.60142e-01     2.09200e-02
      2024       2027      1   0.010172   0.009367     2.60142e-01     2.09200e-02
      2023       2030      1  -0.014653   0.005694     3.00055e-01     6.91943e-02
      2023       2031      1  -0.014653   0.005694     3.00055e-01     6.91943e-02
      2022       2026      1   0.010037  -0.022042     3.00055e-01     6.91943e-02
      2022       2024      1   0.010037   0.008477     2.60142e-01     2.09200e-02
      2022       2025      1   0.010037   0.008477     2.60142e-01     2.09200e-02
      2021       2026      1   0.010037  -0.022042     3.00055e-01     6.91943e-02
      2021       2024      1   0.010037   0.008477     2.60142e-01     2.09200e-02
      2021       2025      1   0.010037   0.008477     2.60142e-01     2.09200e-02
      2020       2028      1  -0.021025   0.009367     3.00055e-01     6.91943e-02
      2020       2027      1  -0.021025   0.009367     3.00055e-01     6.91943e-02
      2019       2023      1   0.012677  -0.012211     3.00055e-01     6.91943e-02
      2019       2022      1   0.012677   0.008364     2.60142e-01     2.09200e-02
      2019       2021      1   0.012677   0.008364     2.60142e-01     2.09200e-02
      2018       2023      1   0.012677  -0.012211     3.00055e-01     6.91943e-02
      2018       2022      1   0.012677   0.008364     2.60142e-01     2.09200e-02
      2018       2021      1   0.012677   0.008364     2.60142e-01     2.09200e-02
      2017       2024      1  -0.031787   0.008477     3.00055e-01     6.91943e-02
      2017       2025      1  -0.031787   0.008477     3.00055e-01     6.91943e-02
      2016       2020      1   0.017208  -0.017521     3.00055e-01     6.91943e-02
      2016       2018      1   0.017208   0.010564     2.60142e-01     2.09200e-02
      2016       2019      1   0.017208   0.010564     2.60142e-01     2.09200e-02
      2015       2020      1   0.017208  -0.017521     3.00055e-01     6.91943e-02
      2015       2018      1   0.017208   0.010564     2.60142e-01     2.09200e-02
      2015       2019      1   0.017208   0.010564     2.60142e-01     2.09200e-02
      2014       2022      1  -0.028094   0.008364     3.00055e-01     6.91943e-02
      2014       2021      1  -0.028094   0.008364     3.00055e-01     6.91943e-02
      2013       2017      1   0.007531  -0.026489     3.00055e-01     6.91943e-02
      2013       2016      1   0.007531   0.014340     2.60142e-01     2.09200e-02
      2013       2015      1   0.007531   0.014340     2.60142e-01     2.09200e-02
      2012       2017      1   0.007531  -0.026489     3.00055e-01     6.91943e-02
      2012       2016      1   0.007531   0.014340     2.60142e-01     2.09200e-02
      2012       2015      1   0.007531   0.014340     2.60142e-01     2.09200e-02
      2011       2018      1   0.017463   0.010564     3.00055e-01     6.91943e-02
      2011       2019      1   0.017463   0.010564     3.00055e-01     6.91943e-02
      2010       2014      1   0.025511  -0.023412     3.00055e-01     6.91943e-02
      2010       2012      1   0.025511   0.006276     2.60142e-01     2.09200e-02
      2010       2013      1   0.025511   0.006276     2.60142e-01     2.09200e-02
      2009       2014      1   0.025511  -0.023412     3.00055e-01     6.91943e-02
      2009       2012      1   0.025511   0.006276     2.60142e-01     2.09200e-02
      2009       2013      1   0.025511   0.006276     2.60142e-01     2.09200e-02
      2008       2016      1  -0.111712   0.014340     3.00055e-01     6.91943e-02
      2008       2015      1  -0.111712   0.014340     3.00055e-01     6.91943e-02
      2007       2014      1   0.025511  -0.023412     3.00055e-01     6.91943e-02
      2007       2012      1   0.025511   0.006276     2.60142e-01     2.09200e-02
      2007       2013      1   0.025511   0.006276     2.60142e-01     2.09200e-02
      2084       2124      1  -0.673755   0.044953     2.78067e-01     9.58675e-02
      2084       2123      1  -0.673755   0.044953     2.78067e-01     9.58675e-02
      2083       2121      1   0.897613   0.015716     3.00055e-01     6.13495e-02
      2083       2120      1   0.897613   0.015716     3.00055e-01     6.13495e-02
      2082       2124      1  -0.552948   0.044953     2.80072e-01     8.62554e-02
      2082       2123      1  -0.552948   0.044953     2.80072e-01     8.62554e-02
      2075       2076      1   0.172230  -0.282478     2.67982e-01     8.67002e-02
      2074       2076      1   0.172230  -0.282478     2.67982e-01     8.67002e-02
      2073       2076      1   0.172230  -0.282478     2.67982e-01     8.67002e-02
      2072       2077      1  -0.338973   0.143525     2.67982e-01     8.67002e-02
      2072       2078      1  -0.338973   0.143525     2.67982e-01     8.67002e-02
      2072       2079      1  -0.338973   0.143525     2.67982e-01     8.67002e-02
      2071       2072      1   0.172230  -0.282478     2.67982e-01     8.67002e-02
      2071       2076      1   0.172230  -0.282478     2.67982e-01     8.67002e-02
      2070       2072      1   0.172230  -0.282478     2.67982e-01     8.67002e-02
      2070       2076      1   0.172230  -0.282478     2.67982e-01     8.67002e-02
      2069       2072      1   0.172230  -0.282478     2.67982e-01     8.67002e-02
      2069       2076      1   0.172230  -0.282478     2.67982e-01     8.67002e-02
      2068       2073      1  -0.338973   0.143525     2.67982e-01     8.67002e-02
      2068       2074      1  -0.338973   0.143525     2.67982e-01     8.67002e-02
      2068       2075      1  -0.338973   0.143525     2.67982e-01     8.67002e-02
      2068       2077      1  -0.338973   0.143525     2.67982e-01     8.67002e-02
      2068       2078      1  -0.338973   0.143525     2.67982e-01     8.67002e-02
      2068       2079      1  -0.338973   0.143525     2.67982e-01     8.67002e-02
      2066       2068      1   0.136415  -0.282478     2.67982e-01     8.67002e-02
      2066       2072      1   0.136415  -0.282478     2.67982e-01     8.67002e-02
      2066       2076      1   0.136415  -0.282478     2.67982e-01     8.67002e-02
      2065       2068      1   0.136415  -0.282478     2.67982e-01     8.67002e-02
      2065       2072      1   0.136415  -0.282478     2.67982e-01     8.67002e-02
      2065       2076      1   0.136415  -0.282478     2.67982e-01     8.67002e-02
      2064       2069      1  -0.170824   0.143525     2.67982e-01     8.67002e-02
      2064       2070      1  -0.170824   0.143525     2.67982e-01     8.67002e-02
      2064       2071      1  -0.170824   0.143525     2.67982e-01     8.67002e-02
      2064       2073      1  -0.170824   0.143525     2.67982e-01     8.67002e-02
      2064       2074      1  -0.170824   0.143525     2.67982e-01     8.67002e-02
      2064       2075      1  -0.170824   0.143525     2.67982e-01     8.67002e-02
      2064       2077      1  -0.170824   0.143525     2.67982e-01     8.67002e-02
      2064       2078      1  -0.170824   0.143525     2.67982e-01     8.67002e-02
      2064       2079      1  -0.170824   0.143525     2.67982e-01     8.67002e-02
      2063       2065      1   0.078534   0.113679     2.21567e-01     3.28444e-02
      2063       2066      1   0.078534   0.113679     2.21567e-01     3.28444e-02
      2063       2067      1   0.078534   0.204385     2.86068e-01     1.08078e-01
      2062       2065      1   0.078534   0.113679     2.21567e-01     3.28444e-02
      2062       2066      1   0.078534   0.113679     2.21567e-01     3.28444e-02
      2062       2067      1   0.078534   0.204385     2.86068e-01     1.08078e-01
      2060       2065      1  -0.508176   0.113679     2.47999e-01     1.08078e-01
      2060       2066      1  -0.508176   0.113679     2.47999e-01     1.08078e-01
      2059       2062      1   1.339721   0.065445     3.10656e-01     1.17227e-01
      2059       2063      1   1.339721   0.065445     3.10656e-01     1.17227e-01
      2057       2082      1   0.095591  -0.460790     2.73568e-01     1.08078e-01
      2057       2059      1   0.095591   1.116434     3.10656e-01     1.17227e-01
      2056       2082      1   0.095591  -0.460790     2.73568e-01     1.08078e-01
      2056       2059      1   0.095591   1.116434     3.10656e-01     1.17227e-01
      2054       2056      1   0.063253   0.079659     2.47135e-01     3.28444e-02
      2054       2057      1   0.063253   0.079659     2.47135e-01     3.28444e-02
      2054       2058      1   0.063253  -0.424567     2.73568e-01     1.08078e-01
      2054       2083      1   0.063253   0.748011     2.93551e-01     7.68707e-02
      2052       2054      1   0.070469   0.052711     2.47135e-01     3.28444e-02
      2052       2055      1   0.070469   0.014549     2.93551e-01     8.67002e-02
      2052       2082      1   0.070469  -0.460790     2.73568e-01     1.08078e-01
      2051       2054      1   0.070469   0.052711     2.47135e-01     3.28444e-02
      2051       2055      1   0.070469   0.014549     2.93551e-01     8.67002e-02
      2051       2082      1   0.070469  -0.460790     2.73568e-01     1.08078e-01
      2050       2056      1   0.196939   0.079659     2.93551e-01     8.67002e-02
      2050       2057      1   0.196939   0.079659     2.93551e-01     8.67002e-02
      2049       2054      1  -0.575489   0.052711     2.73568e-01     1.08078e-01
      2047       2051      1   0.910403   0.058724     2.93551e-01     7.68707e-02
      2047       2052      1   0.910403   0.058724     2.93551e-01     7.68707e-02
      2121       2124      1   0.018859   0.044953     2.60142e-01     2.09200e-02
      2121       2123      1   0.018859   0.044953     2.60142e-01     2.09200e-02
      2120       2124      1   0.018859   0.044953     2.60142e-01     2.09200e-02
      2120       2123      1   0.018859   0.044953     2.60142e-01     2.09200e-02
      2118       2122      1   0.020431  -0.136833     3.00055e-01     6.91943e-02
      2118       2121      1   0.020431   0.015716     2.60142e-01     2.09200e-02
      2118       2120      1   0.020431   0.015716     2.60142e-01     2.09200e-02
      2117       2122      1   0.020431  -0.136833     3.00055e-01     6.91943e-02
      2117       2121      1   0.020431   0.015716     2.60142e-01     2.09200e-02
      2117       2120      1   0.020431   0.015716     2.60142e-01     2.09200e-02
      2116       2124      1  -0.026954   0.044953     3.00055e-01     6.91943e-02
      2116       2123      1  -0.026954   0.044953     3.00055e-01     6.91943e-02
      2115       2119      1   0.010573  -0.002029     3.00055e-01     6.91943e-02
      2115       2118      1   0.010573   0.017026     2.60142e-01     2.09200e-02
      2115       2117      1   0.010573   0.017026     2.60142e-01     2.09200e-02
      2114       2119      1   0.010573  -0.002029     3.00055e-01     6.91943e-02
      2114       2118      1   0.010573   0.017026     2.60142e-01     2.09200e-02
      2114       2117      1   0.010573   0.017026     2.60142e-01     2.09200e-02
      2113       2121      1  -0.016521   0.015716     3.00055e-01     6.91943e-02
      2113       2120      1  -0.016521   0.015716     3.00055e-01     6.91943e-02
      2112       2116      1   0.011511  -0.022462     3.00055e-01     6.91943e-02
      2112       2114      1   0.011511   0.008811     2.60142e-01     2.09200e-02
      2112       2115      1   0.011511   0.008811     2.60142e-01     2.09200e-02
      2111       2116      1   0.011511  -0.022462     3.00055e-01     6.91943e-02
      2111       2114      1   0.011511   0.008811     2.60142e-01     2.09200e-02
      2111       2115      1   0.011511   0.008811     2.60142e-01     2.09200e-02
      2110       2118      1  -0.027812   0.017026     3.00055e-01     6.91943e-02
      2110       2117      1  -0.027812   0.017026     3.00055e-01     6.91943e-02
      2109       2113      1   0.006833  -0.013767     3.00055e-01     6.91943e-02
      2109       2111      1   0.006833   0.009592     2.60142e-01     2.09200e-02
      2109       2112      1   0.006833   0.009592     2.60142e-01     2.09200e-02
      2108       2113      1   0.006833  -0.013767     3.00055e-01     6.91943e-02
      2108       2111      1   0.006833   0.009592     2.60142e-01     2.09200e-02
      2108       2112      1   0.006833   0.009592     2.60142e-01     2.09200e-02
      2107       2114      1  -0.004386   0.008811     3.00055e-01     6.91943e-02
      2107       2115      1  -0.004386   0.008811     3.00055e-01     6.91943e-02
      2106       2110      1   0.011241  -0.023177     3.00055e-01     6.91943e-02
      2106       2108      1   0.011241   0.005694     2.60142e-01     2.09200e-02
      2106       2109      1   0.011241   0.005694     2.60142e-01     2.09200e-02
      2105       2110      1   0.011241  -0.023177     3.00055e-01     6.91943e-02
      2105       2108      1   0.011241   0.005694     2.60142e-01     2.09200e-02
      2105       2109      1   0.011241   0.005694     2.60142e-01     2.09200e-02
      2104       2111      1  -0.026451   0.009592     3.00055e-01     6.91943e-02
      2104       2112      1  -0.026451   0.009592     3.00055e-01     6.91943e-02
      2103       2107      1   0.010172  -0.003655     3.00055e-01     6.91943e-02
      2103       2106      1   0.010172   0.009367     2.60142e-01     2.09200e-02
      2103       2105      1   0.010172   0.009367     2.60142e-01     2.09200e-02
      2102       2107      1   0.010172  -0.003655     3.00055e-01     6.91943e-02
      2102       2106      1   0.010172   0.009367     2.60142e-01     2.09200e-02
      2102       2105      1   0.010172   0.009367     2.60142e-01     2.09200e-02
      2101       2108      1  -0.014653   0.005694     3.00055e-01     6.91943e-02
      2101       2109      1  -0.014653   0.005694     3.00055e-01     6.91943e-02
      2100       2104      1   0.010037  -0.022042     3.00055e-01     6.91943e-02
      2100       2102      1   0.010037   0.008477     2.60142e-01     2.09200e-02
      2100       2103      1   0.010037   0.008477     2.60142e-01     2.09200e-02
      2099       2104      1   0.010037  -0.022042     3.00055e-01     6.91943e-02
      2099       2102      1   0.010037   0.008477     2.60142e-01     2.09200e-02
      2099       2103      1   0.010037   0.008477     2.60142e-01     2.09200e-02
      2098       2106      1  -0.021025   0.009367     3.00055e-01     6.91943e-02
      2098       2105      1  -0.021025   0.009367     3.00055e-01     6.91943e-02
      2097       2101      1   0.012677  -0.012211     3.00055e-01     6.91943e-02
      2097       2100      1   0.012677   0.008364     2.60142e-01     2.09200e-02
      2097       2099      1   0.012677   0.008364     2.60142e-01     2.09200e-02
      2096       2101      1   0.012677  -0.012211     3.00055e-01     6.91943e-02
      2096       2100      1   0.012677   0.008364     2.60142e-01     2.09200e-02
      2096       2099      1   0.012677   0.008364     2.60142e-01     2.09200e-02
      2095       2102      1  -0.031787   0.008477     3.00055e-01     6.91943e-02
      2095       2103      1  -0.031787   0.008477     3.00055e-01     6.91943e-02
      2094       2098      1   0.017208  -0.017521     3.00055e-01     6.91943e-02
      2094       2096      1   0.017208   0.010564     2.60142e-01     2.09200e-02
      2094       2097      1   0.017208   0.010564     2.60142e-01     2.09200e-02
      2093       2098      1   0.017208  -0.017521     3.00055e-01     6.91943e-02
      2093       2096      1   0.017208   0.010564     2.60142e-01     2.09200e-02
      2093       2097      1   0.017208   0.010564     2.60142e-01     2.09200e-02
      2092       2100      1  -0.028094   0.008364     3.00055e-01     6.91943e-02
      2092       2099      1  -0.028094   0.008364     3.00055e-01     6.91943e-02
      2091       2095      1   0.007531  -0.026489     3.00055e-01     6.91943e-02
      2091       2094      1   0.007531   0.014340     2.60142e-01     2.09200e-02
      2091       2093      1   0.007531   0.014340     2.60142e-01     2.09200e-02
      2090       2095      1   0.007531  -0.026489     3.00055e-01     6.91943e-02
      2090       2094      1   0.007531   0.014340     2.60142e-01     2.09200e-02
      2090       2093      1   0.007531   0.014340     2.60142e-01     2.09200e-02
      2089       2096      1   0.017463   0.010564     3.00055e-01     6.91943e-02
      2089       2097      1   0.017463   0.010564     3.00055e-01     6.91943e-02
      2088       2092      1   0.025511  -0.023412     3.00055e-01     6.91943e-02
      2088       2090      1   0.025511   0.006276     2.60142e-01     2.09200e-02
      2088       2091      1   0.025511   0.006276     2.60142e-01     2.09200e-02
      2087       2092      1   0.025511  -0.023412     3.00055e-01     6.91943e-02
      2087       2090      1   0.025511   0.006276     2.60142e-01     2.09200e-02
      2087       2091      1   0.025511   0.006276     2.60142e-01     2.09200e-02
      2086       2094      1  -0.111712   0.014340     3.00055e-01     6.91943e-02
      2086       2093      1  -0.111712   0.014340     3.00055e-01     6.91943e-02
      2085       2092      1   0.025511  -0.023412     3.00055e-01     6.91943e-02
      2085       2090      1   0.025511   0.006276     2.60142e-01     2.09200e-02
      2085       2091      1   0.025511   0.006276     2.60142e-01     2.09200e-02
      2164       2166      1   0.053944  -0.559638     2.78067e-01     9.58675e-02
      2164       2167      1   0.053944  -0.479574     2.80072e-01     8.62554e-02
      2163       2166      1   0.053944  -0.559638     2.78067e-01     9.58675e-02
      2163       2167      1   0.053944  -0.479574     2.80072e-01     8.62554e-02
      2161       2164      1   0.018859   0.044953     2.60142e-01     2.09200e-02
      2161       2163      1   0.018859   0.044953     2.60142e-01     2.09200e-02
      2161       2165      1   0.018859   0.758669     3.00055e-01     6.13495e-02
      2160       2164      1   0.018859   0.044953     2.60142e-01     2.09200e-02
      2160       2163      1   0.018859   0.044953     2.60142e-01     2.09200e-02
      2160       2165      1   0.018859   0.758669     3.00055e-01     6.13495e-02
      2158       2162      1   0.020431  -0.136833     3.00055e-01     6.91943e-02
      2158       2161      1   0.020431   0.015716     2.60142e-01     2.09200e-02
      2158       2160      1   0.020431   0.015716     2.60142e-01     2.09200e-02
      2157       2162      1   0.020431  -0.136833     3.00055e-01     6.91943e-02
      2157       2161      1   0.020431   0.015716     2.60142e-01     2.09200e-02
      2157       2160      1   0.020431   0.015716     2.60142e-01     2.09200e-02
      2156       2164      1  -0.026954   0.044953     3.00055e-01     6.91943e-02
      2156       2163      1  -0.026954   0.044953     3.00055e-01     6.91943e-02
      2155       2159      1   0.010573  -0.002029     3.00055e-01     6.91943e-02
      2155       2158      1   0.010573   0.017026     2.60142e-01     2.09200e-02
      2155       2157      1   0.010573   0.017026     2.60142e-01     2.09200e-02
      2154       2159      1   0.010573  -0.002029     3.00055e-01     6.91943e-02
      2154       2158      1   0.010573   0.017026     2.60142e-01     2.09200e-02
      2154       2157      1   0.010573   0.017026     2.60142e-01     2.09200e-02
      2153       2161      1  -0.016521   0.015716     3.00055e-01     6.91943e-02
      2153       2160      1  -0.016521   0.015716     3.00055e-01     6.91943e-02
      2152       2156      1   0.011511  -0.022462     3.00055e-01     6.91943e-02
      2152       2154      1   0.011511   0.008811     2.60142e-01     2.09200e-02
      2152       2155      1   0.011511   0.008811     2.60142e-01     2.09200e-02
      2151       2156      1   0.011511  -0.022462     3.00055e-01     6.91943e-02
      2151       2154      1   0.011511   0.008811     2.60142e-01     2.09200e-02
      2151       2155      1   0.011511   0.008811     2.60142e-01     2.09200e-02
      2150       2158      1  -0.027812   0.017026     3.00055e-01     6.91943e-02
      2150       2157      1  -0.027812   0.017026     3.00055e-01     6.91943e-02
      2149       2153      1   0.006833  -0.013767     3.00055e-01     6.91943e-02
      2149       2151      1   0.006833   0.009592     2.60142e-01     2.09200e-02
      2149       2152      1   0.006833   0.009592     2.60142e-01     2.09200e-02
      2148       2153      1   0.006833  -0.013767     3.00055e-01     6.91943e-02
      2148       2151      1   0.006833   0.009592     2.60142e-01     2.09200e-02
      2148       2152      1   0.006833   0.009592     2.60142e-01     2.09200e-02
      2147       2154      1  -0.004386   0.008811     3.00055e-01     6.91943e-02
      2147       2155      1  -0.004386   0.008811     3.00055e-01     6.91943e-02
      2146       2150      1   0.011241  -0.023177     3.00055e-01     6.91943e-02
      2146       2148      1   0.011241   0.005694     2.60142e-01     2.09200e-02
      2146       2149      1   0.011241   0.005694     2.60142e-01     2.09200e-02
      2145       2150      1   0.011241  -0.023177     3.00055e-01     6.91943e-02
      2145       2148      1   0.011241   0.005694     2.60142e-01     2.09200e-02
      2145       2149      1   0.011241   0.005694     2.60142e-01     2.09200e-02
      2144       2151      1  -0.026451   0.009592     3.00055e-01     6.91943e-02
      2144       2152      1  -0.026451   0.009592     3.00055e-01     6.91943e-02
      2143       2147      1   0.010172  -0.003655     3.00055e-01     6.91943e-02
      2143       2146      1   0.010172   0.009367     2.60142e-01     2.09200e-02
      2143       2145      1   0.010172   0.009367     2.60142e-01     2.09200e-02
      2142       2147      1   0.010172  -0.003655     3.00055e-01     6.91943e-02
      2142       2146      1   0.010172   0.009367     2.60142e-01     2.09200e-02
      2142       2145      1   0.010172   0.009367     2.60142e-01     2.09200e-02
      2141       2148      1  -0.014653   0.005694     3.00055e-01     6.91943e-02
      2141       2149      1  -0.014653   0.005694     3.00055e-01     6.91943e-02
      2140       2144      1   0.010037  -0.022042     3.00055e-01     6.91943e-02
      2140       2142      1   0.010037   0.008477     2.60142e-01     2.09200e-02
      2140       2143      1   0.010037   0.008477     2.60142e-01     2.09200e-02
      2139       2144      1   0.010037  -0.022042     3.00055e-01     6.91943e-02
      2139       2142      1   0.010037   0.008477     2.60142e-01     2.09200e-02
      2139       2143      1   0.010037   0.008477     2.60142e-01     2.09200e-02
      2138       2146      1  -0.021025   0.009367     3.00055e-01     6.91943e-02
      2138       2145      1  -0.021025   0.009367     3.00055e-01     6.91943e-02
      2137       2141      1   0.012677  -0.012211     3.00055e-01     6.91943e-02
      2137       2140      1   0.012677   0.008364     2.60142e-01     2.09200e-02
      2137       2139      1   0.012677   0.008364     2.60142e-01     2.09200e-02
      2136       2141      1   0.012677  -0.012211     3.00055e-01     6.91943e-02
      2136       2140      1   0.012677   0.008364     2.60142e-01     2.09200e-02
      2136       2139      1   0.012677   0.008364     2.60142e-01     2.09200e-02
      2135       2142      1  -0.031787   0.008477     3.00055e-01     6.91943e-02
      2135       2143      1  -0.031787   0.008477     3.00055e-01     6.91943e-02
      2134       2138      1   0.017208  -0.017521     3.00055e-01     6.91943e-02
      2134       2136      1   0.017208   0.010564     2.60142e-01     2.09200e-02
      2134       2137      1   0.017208   0.010564     2.60142e-01     2.09200e-02
      2133       2138      1   0.017208  -0.017521     3.00055e-01     6.91943e-02
      2133       2136      1   0.017208   0.010564     2.60142e-01     2.09200e-02
      2133       2137      1   0.017208   0.010564     2.60142e-01     2.09200e-02
      2132       2140      1  -0.028094   0.008364     3.00055e-01     6.91943e-02
      2132       2139      1  -0.028094   0.008364     3.00055e-01     6.91943e-02
      2131       2135      1   0.007531  -0.026489     3.00055e-01     6.91943e-02
      2131       2134      1   0.007531   0.014340     2.60142e-01     2.09200e-02
      2131       2133      1   0.007531   0.014340     2.60142e-01     2.09200e-02
      2130       2135      1   0.007531  -0.026489     3.00055e-01     6.91943e-02
      2130       2134      1   0.007531   0.014340     2.60142e-01     2.09200e-02
      2130       2133      1   0.007531   0.014340     2.60142e-01     2.09200e-02
      2129       2136      1   0.017463   0.010564     3.00055e-01     6.91943e-02
      2129       2137      1   0.017463   0.010564     3.00055e-01     6.91943e-02
      2128       2132      1   0.025511  -0.023412     3.00055e-01     6.91943e-02
      2128       2130      1   0.025511   0.006276     2.60142e-01     2.09200e-02
      2128       2131      1   0.025511   0.006276     2.60142e-01     2.09200e-02
      2127       2132      1   0.025511  -0.023412     3.00055e-01     6.91943e-02
      2127       2130      1   0.025511   0.006276     2.60142e-01     2.09200e-02
      2127       2131      1   0.025511   0.006276     2.60142e-01     2.09200e-02
      2126       2134      1  -0.111712   0.014340     3.00055e-01     6.91943e-02
      2126       2133      1  -0.111712   0.014340     3.00055e-01     6.91943e-02
      2125       2132      1   0.025511  -0.023412     3.00055e-01     6.91943e-02
      2125       2130      1   0.025511   0.006276     2.60142e-01     2.09200e-02
      2125       2131      1   0.025511   0.006276     2.60142e-01     2.09200e-02
      2202       2242      1  -0.673755   0.044953     2.78067e-01     9.58675e-02
      2202       2241      1  -0.673755   0.044953     2.78067e-01     9.58675e-02
      2201       2239      1   0.897613   0.015716     3.00055e-01     6.13495e-02
      2201       2238      1   0.897613   0.015716     3.00055e-01     6.13495e-02
      2200       2242      1  -0.552948   0.044953     2.80072e-01     8.62554e-02
      2200       2241      1  -0.552948   0.044953     2.80072e-01     8.62554e-02
      2193       2194      1   0.172230  -0.282478     2.67982e-01     8.67002e-02
      2192       2194      1   0.172230  -0.282478     2.67982e-01     8.67002e-02
      2191       2194      1   0.172230  -0.282478     2.67982e-01     8.67002e-02
      2190       2195      1  -0.338973   0.143525     2.67982e-01     8.67002e-02
      2190       2196      1  -0.338973   0.143525     2.67982e-01     8.67002e-02
      2190       2197      1  -0.338973   0.143525     2.67982e-01     8.67002e-02
      2189       2190      1   0.172230  -0.282478     2.67982e-01     8.67002e-02
      2189       2194      1   0.172230  -0.282478     2.67982e-01     8.67002e-02
      2188       2190      1   0.172230  -0.282478     2.67982e-01     8.67002e-02
      2188       2194      1   0.172230  -0.282478     2.67982e-01     8.67002e-02
      2187       2190      1   0.172230  -0.282478     2.67982e-01     8.67002e-02
      2187       2194      1   0.172230  -0.282478     2.67982e-01     8.67002e-02
      2186       2191      1  -0.338973   0.143525     2.67982e-01     8.67002e-02
      2186       2192      1  -0.338973   0.143525     2.67982e-01     8.67002e-02
      2186       2193      1  -0.338973   0.143525     2.67982e-01     8.67002e-02
      2186       2195      1  -0.338973   0.143525     2.67982e-01     8.67002e-02
      2186       2196      1  -0.338973   0.143525     2.67982e-01     8.67002e-02
      2186       2197      1  -0.338973   0.143525     2.67982e-01     8.67002e-02
      2184       2186      1   0.136415  -0.282478     2.67982e-01     8.67002e-02
      2184       2190      1   0.136415  -0.282478     2.67982e-01     8.67002e-02
      2184       2194      1   0.136415  -0.282478     2.67982e-01     8.67002e-02
      2183       2186      1   0.136415  -0.282478     2.67982e-01     8.67002e-02
      2183       2190      1   0.136415  -0.282478     2.67982e-01     8.67002e-02
      2183       2194      1   0.136415  -0.282478     2.67982e-01     8.67002e-02
      2182       2187      1  -0.170824   0.143525     2.67982e-01     8.67002e-02
      2182       2188      1  -0.170824   0.143525     2.67982e-01     8.67002e-02
      2182       2189      1  -0.170824   0.143525     2.67982e-01     8.67002e-02
      2182       2191      1  -0.170824   0.143525     2.67982e-01     8.67002e-02
      2182       2192      1  -0.170824   0.143525     2.67982e-01     8.67002e-02
      2182       2193      1  -0.170824   0.143525     2.67982e-01     8.67002e-02
      2182       2195      1  -0.170824   0.143525     2.67982e-01     8.67002e-02
      2182       2196      1  -0.170824   0.143525     2.67982e-01     8.67002e-02
      2182       2197      1  -0.170824   0.143525     2.67982e-01     8.67002e-02
      2181       2183      1   0.078534   0.113679     2.21567e-01     3.28444e-02
      2181       2184      1   0.078534   0.113679     2.21567e-01     3.28444e-02
      2181       2185      1   0.078534   0.204385     2.86068e-01     1.08078e-01
      2180       2183      1   0.078534   0.113679     2.21567e-01     3.28444e-02
      2180       2184      1   0.078534   0.113679     2.21567e-01     3.28444e-02
      2180       2185      1   0.078534   0.204385     2.86068e-01     1.08078e-01
      2178       2183      1  -0.508176   0.113679     2.47999e-01     1.08078e-01
      2178       2184      1  -0.508176   0.113679     2.47999e-01     1.08078e-01
      2177       2180      1   1.339721   0.065445     3.10656e-01     1.17227e-01
      2177       2181      1   1.339721   0.065445     3.10656e-01     1.17227e-01
      2175       2200      1   0.095591  -0.460790     2.73568e-01     1.08078e-01
      2175       2177      1   0.095591   1.116434     3.10656e-01     1.17227e-01
      2174       2200      1   0.095591  -0.460790     2.73568e-01     1.08078e-01
      2174       2177      1   0.095591   1.116434     3.10656e-01     1.17227e-01
      2172       2174      1   0.063253   0.079659     2.47135e-01     3.28444e-02
      2172       2175      1   0.063253   0.079659     2.47135e-01     3.28444e-02
      2172       2176      1   0.063253  -0.424567     2.73568e-01     1.08078e-01
      2172       2201      1   0.063253   0.748011     2.93551e-01     7.68707e-02
      2170       2172      1   0.070469   0.052711     2.47135e-01     3.28444e-02
      2170       2173      1   0.070469   0.014549     2.93551e-01     8.67002e-02
      2170       2200      1   0.070469  -0.460790     2.73568e-01     1.08078e-01
      2169       2172      1   0.070469   0.052711     2.47135e-01     3.28444e-02
      2169       2173      1   0.070469   0.014549     2.93551e-01     8.67002e-02
      2169       2200      1   0.070469  -0.460790     2.73568e-01     1.08078e-01
      2168       2174      1   0.196939   0.079659     2.93551e-01     8.67002e-02
      2168       2175      1   0.196939   0.079659     2.93551e-01     8.67002e-02
      2167       2172      1  -0.575489   0.052711     2.73568e-01     1.08078e-01
      2165       2169      1   0.910403   0.058724     2.93551e-01     7.68707e-02
      2165       2170      1   0.910403   0.058724     2.93551e-01     7.68707e-02
      2239       2242      1   0.018859   0.044953     2.60142e-01     2.09200e-02
      2239       2241      1   0.018859   0.044953     2.60142e-01     2.09200e-02
      2238       2242      1   0.018859   0.044953     2.60142e-01     2.09200e-02
      2238       2241      1   0.018859   0.044953     2.60142e-01     2.09200e-02
      2236       2240      1   0.020431  -0.136833     3.00055e-01     6.91943e-02
      2236       2239      1   0.020431   0.015716     2.60142e-01     2.09200e-02
      2236       2238      1   0.020431   0.015716     2.60142e-01     2.09200e-02
      2235       2240      1   0.020431  -0.136833     3.00055e-01     6.91943e-02
      2235       2239      1   0.020431   0.015716     2.60142e-01     2.09200e-02
      2235       2238      1   0.020431   0.015716     2.60142e-01     2.09200e-02
      2234       2242      1  -0.026954   0.044953     3.00055e-01     6.91943e-02
      2234       2241      1  -0.026954   0.044953     3.00055e-01     6.91943e-02
      2233       2237      1   0.010573  -0.002029     3.00055e-01     6.91943e-02
      2233       2236      1   0.010573   0.017026     2.60142e-01     2.09200e-02
      2233       2235      1   0.010573   0.017026     2.60142e-01     2.09200e-02
      2232       2237      1   0.010573  -0.002029     3.00055e-01     6.91943e-02
      2232       2236      1   0.010573   0.017026     2.60142e-01     2.09200e-02
      2232       2235      1   0.010573   0.017026     2.60142e-01     2.09200e-02
      2231       2239      1  -0.016521   0.015716     3.00055e-01     6.91943e-02
      2231       2238      1  -0.016521   0.015716     3.00055e-01     6.91943e-02
      2230       2234      1   0.011511  -0.022462     3.00055e-01     6.91943e-02
      2230       2232      1   0.011511   0.008811     2.60142e-01     2.09200e-02
      2230       2233      1   0.011511   0.008811     2.60142e-01     2.09200e-02
      2229       2234      1   0.011511  -0.022462     3.00055e-01     6.91943e-02
      2229       2232      1   0.011511   0.008811     2.60142e-01     2.09200e-02
      2229       2233      1   0.011511   0.008811     2.60142e-01     2.09200e-02
      2228       2236      1  -0.027812   0.017026     3.00055e-01     6.91943e-02
      2228       2235      1  -0.027812   0.017026     3.00055e-01     6.91943e-02
      2227       2231      1   0.006833  -0.013767     3.00055e-01     6.91943e-02
      2227       2229      1   0.006833   0.009592     2.60142e-01     2.09200e-02
      2227       2230      1   0.006833   0.009592     2.60142e-01     2.09200e-02
      2226       2231      1   0.006833  -0.013767     3.00055e-01     6.91943e-02
      2226       2229      1   0.006833   0.009592     2.60142e-01     2.09200e-02
      2226       2230      1   0.006833   0.009592     2.60142e-01     2.09200e-02
      2225       2232      1  -0.004386   0.008811     3.00055e-01     6.91943e-02
      2225       2233      1  -0.004386   0.008811     3.00055e-01     6.91943e-02
      2224       2228      1   0.011241  -0.023177     3.00055e-01     6.91943e-02
      2224       2226      1   0.011241   0.005694     2.60142e-01     2.09200e-02
      2224       2227      1   0.011241   0.005694     2.60142e-01     2.09200e-02
      2223       2228      1   0.011241  -0.023177     3.00055e-01     6.91943e-02
      2223       2226      1   0.011241   0.005694     2.60142e-01     2.09200e-02
      2223       2227      1   0.011241   0.005694     2.60142e-01     2.09200e-02
      2222       2229      1  -0.026451   0.009592     3.00055e-01     6.91943e-02
      2222       2230      1  -0.026451   0.009592     3.00055e-01     6.91943e-02
      2221       2225      1   0.010172  -0.003655     3.00055e-01     6.91943e-02
      2221       2224      1   0.010172   0.009367     2.60142e-01     2.09200e-02
      2221       2223      1   0.010172   0.009367     2.60142e-01     2.09200e-02
      2220       2225      1   0.010172  -0.003655     3.00055e-01     6.91943e-02
      2220       2224      1   0.010172   0.009367     2.60142e-01     2.09200e-02
      2220       2223      1   0.010172   0.009367     2.60142e-01     2.09200e-02
      2219       2226      1  -0.014653   0.005694     3.00055e-01     6.91943e-02
      2219       2227      1  -0.014653   0.005694     3.00055e-01     6.91943e-02
      2218       2222      1   0.010037  -0.022042     3.00055e-01     6.91943e-02
      2218       2220      1   0.010037   0.008477     2.60142e-01     2.09200e-02
      2218       2221      1   0.010037   0.008477     2.60142e-01     2.09200e-02
      2217       2222      1   0.010037  -0.022042     3.00055e-01     6.91943e-02
      2217       2220      1   0.010037   0.008477     2.60142e-01     2.09200e-02
      2217       2221      1   0.010037   0.008477     2.60142e-01     2.09200e-02
      2216       2224      1  -0.021025   0.009367     3.00055e-01     6.91943e-02
      2216       2223      1  -0.021025   0.009367     3.00055e-01     6.91943e-02
      2215       2219      1   0.012677  -0.012211     3.00055e-01     6.91943e-02
      2215       2218      1   0.012677   0.008364     2.60142e-01     2.09200e-02
      2215       2217      1   0.012677   0.008364     2.60142e-01     2.09200e-02
      2214       2219      1   0.012677  -0.012211     3.00055e-01     6.91943e-02
      2214       2218      1   0.012677   0.008364     2.60142e-01     2.09200e-02
      2214       2217      1   0.012677   0.008364     2.60142e-01     2.09200e-02
      2213       2220      1  -0.031787   0.008477     3.00055e-01     6.91943e-02
      2213       2221      1  -0.031787   0.008477     3.00055e-01     6.91943e-02
      2212       2216      1   0.017208  -0.017521     3.00055e-01     6.91943e-02
      2212       2214      1   0.017208   0.010564     2.60142e-01     2.09200e-02
      2212       2215      1   0.017208   0.010564     2.60142e-01     2.09200e-02
      2211       2216      1   0.017208  -0.017521     3.00055e-01     6.91943e-02
      2211       2214      1   0.017208   0.010564     2.60142e-01     2.09200e-02
      2211       2215      1   0.017208   0.010564     2.60142e-01     2.09200e-02
      2210       2218      1  -0.028094   0.008364     3.00055e-01     6.91943e-02
      2210       2217      1  -0.028094   0.008364     3.00055e-01     6.91943e-02
      2209       2213      1   0.007531  -0.026489     3.00055e-01     6.91943e-02
      2209       2212      1   0.007531   0.014340     2.60142e-01     2.09200e-02
      2209       2211      1   0.007531   0.014340     2.60142e-01     2.09200e-02
      2208       2213      1   0.007531  -0.026489     3.00055e-01     6.91943e-02
      2208       2212      1   0.007531   0.014340     2.60142e-01     2.09200e-02
      2208       2211      1   0.007531   0.014340     2.60142e-01     2.09200e-02
      2207       2214      1   0.017463   0.010564     3.00055e-01     6.91943e-02
      2207       2215      1   0.017463   0.010564     3.00055e-01     6.91943e-02
      2206       2210      1   0.025511  -0.023412     3.00055e-01     6.91943e-02
      2206       2208      1   0.025511   0.006276     2.60142e-01     2.09200e-02
      2206       2209      1   0.025511   0.006276     2.60142e-01     2.09200e-02
      2205       2210      1   0.025511  -0.023412     3.00055e-01     6.91943e-02
      2205       2208      1   0.025511   0.006276     2.60142e-01     2.09200e-02
      2205       2209      1   0.025511   0.006276     2.60142e-01     2.09200e-02
      2204       2212      1  -0.111712   0.014340     3.00055e-01     6.91943e-02
      2204       2211      1  -0.111712   0.014340     3.00055e-01     6.91943e-02
      2203       2210      1   0.025511  -0.023412     3.00055e-01     6.91943e-02
      2203       2208      1   0.025511   0.006276     2.60142e-01     2.09200e-02
      2203       2209      1   0.025511   0.006276     2.60142e-01     2.09200e-02
      2282       2284      1   0.053944  -0.559638     2.78067e-01     9.58675e-02
      2282       2285      1   0.053944  -0.479574     2.80072e-01     8.62554e-02
      2281       2284      1   0.053944  -0.559638     2.78067e-01     9.58675e-02
      2281       2285      1   0.053944  -0.479574     2.80072e-01     8.62554e-02
      2279       2282      1   0.018859   0.044953     2.60142e-01     2.09200e-02
      2279       2281      1   0.018859   0.044953     2.60142e-01     2.09200e-02
      2279       2283      1   0.018859   0.758669     3.00055e-01     6.13495e-02
      2278       2282      1   0.018859   0.044953     2.60142e-01     2.09200e-02
      2278       2281      1   0.018859   0.044953     2.60142e-01     2.09200e-02
      2278       2283      1   0.018859   0.758669     3.00055e-01     6.13495e-02
      2276       2280      1   0.020431  -0.136833     3.00055e-01     6.91943e-02
      2276       2279      1   0.020431   0.015716     2.60142e-01     2.09200e-02
      2276       2278      1   0.020431   0.015716     2.60142e-01     2.09200e-02
      2275       2280      1   0.020431  -0.136833     3.00055e-01     6.91943e-02
      2275       2279      1   0.020431   0.015716     2.60142e-01     2.09200e-02
      2275       2278      1   0.020431   0.015716     2.60142e-01     2.09200e-02
      2274       2282      1  -0.026954   0.044953     3.00055e-01     6.91943e-02
      2274       2281      1  -0.026954   0.044953     3.00055e-01     6.91943e-02
      2273       2277      1   0.010573  -0.002029     3.00055e-01     6.91943e-02
      2273       2276      1   0.010573   0.017026     2.60142e-01     2.09200e-02
      2273       2275      1   0.010573   0.017026     2.60142e-01     2.09200e-02
      2272       2277      1   0.010573  -0.002029     3.00055e-01     6.91943e-02
      2272       2276      1   0.010573   0.017026     2.60142e-01     2.09200e-02
      2272       2275      1   0.010573   0.017026     2.60142e-01     2.09200e-02
      2271       2279      1  -0.016521   0.015716     3.00055e-01     6.91943e-02
      2271       2278      1  -0.016521   0.015716     3.00055e-01     6.91943e-02
      2270       2274      1   0.011511  -0.022462     3.00055e-01     6.91943e-02
      2270       2272      1   0.011511   0.008811     2.60142e-01     2.09200e-02
      2270       2273      1   0.011511   0.008811     2.60142e-01     2.09200e-02
      2269       2274      1   0.011511  -0.022462     3.00055e-01     6.91943e-02
      2269       2272      1   0.011511   0.008811     2.60142e-01     2.09200e-02
      2269       2273      1   0.011511   0.008811     2.60142e-01     2.09200e-02
      2268       2276      1  -0.027812   0.017026     3.00055e-01     6.91943e-02
      2268       2275      1  -0.027812   0.017026     3.00055e-01     6.91943e-02
      2267       2271      1   0.006833  -0.013767     3.00055e-01     6.91943e-02
      2267       2269      1   0.006833   0.009592     2.60142e-01     2.09200e-02
      2267       2270      1   0.006833   0.009592     2.60142e-01     2.09200e-02
      2266       2271      1   0.006833  -0.013767     3.00055e-01     6.91943e-02
      2266       2269      1   0.006833   0.009592     2.60142e-01     2.09200e-02
      2266       2270      1   0.006833   0.009592     2.60142e-01     2.09200e-02
      2265       2272      1  -0.004386   0.008811     3.00055e-01     6.91943e-02
      2265       2273      1  -0.004386   0.008811     3.00055e-01     6.91943e-02
      2264       2268      1   0.011241  -0.023177     3.00055e-01     6.91943e-02
      2264       2266      1   0.011241   0.005694     2.60142e-01     2.09200e-02
      2264       2267      1   0.011241   0.005694     2.60142e-01     2.09200e-02
      2263       2268      1   0.011241  -0.023177     3.00055e-01     6.91943e-02
      2263       2266      1   0.011241   0.005694     2.60142e-01     2.09200e-02
      2263       2267      1   0.011241   0.005694     2.60142e-01     2.09200e-02
      2262       2269      1  -0.026451   0.009592     3.00055e-01     6.91943e-02
      2262       2270      1  -0.026451   0.009592     3.00055e-01     6.91943e-02
      2261       2265      1   0.010172  -0.003655     3.00055e-01     6.91943e-02
      2261       2264      1   0.010172   0.009367     2.60142e-01     2.09200e-02
      2261       2263      1   0.010172   0.009367     2.60142e-01     2.09200e-02
      2260       2265      1   0.010172  -0.003655     3.00055e-01     6.91943e-02
      2260       2264      1   0.010172   0.009367     2.60142e-01     2.09200e-02
      2260       2263      1   0.010172   0.009367     2.60142e-01     2.09200e-02
      2259       2266      1  -0.014653   0.005694     3.00055e-01     6.91943e-02
      2259       2267      1  -0.014653   0.005694     3.00055e-01     6.91943e-02
      2258       2262      1   0.010037  -0.022042     3.00055e-01     6.91943e-02
      2258       2260      1   0.010037   0.008477     2.60142e-01     2.09200e-02
      2258       2261      1   0.010037   0.008477     2.60142e-01     2.09200e-02
      2257       2262      1   0.010037  -0.022042     3.00055e-01     6.91943e-02
      2257       2260      1   0.010037   0.008477     2.60142e-01     2.09200e-02
      2257       2261      1   0.010037   0.008477     2.60142e-01     2.09200e-02
      2256       2264      1  -0.021025   0.009367     3.00055e-01     6.91943e-02
      2256       2263      1  -0.021025   0.009367     3.00055e-01     6.91943e-02
      2255       2259      1   0.012677  -0.012211     3.00055e-01     6.91943e-02
      2255       2258      1   0.012677   0.008364     2.60142e-01     2.09200e-02
      2255       2257      1   0.012677   0.008364     2.60142e-01     2.09200e-02
      2254       2259      1   0.012677  -0.012211     3.00055e-01     6.91943e-02
      2254       2258      1   0.012677   0.008364     2.60142e-01     2.09200e-02
      2254       2257      1   0.012677   0.008364     2.60142e-01     2.09200e-02
      2253       2260      1  -0.031787   0.008477     3.00055e-01     6.91943e-02
      2253       2261      1  -0.031787   0.008477     3.00055e-01     6.91943e-02
      2252       2256      1   0.017208  -0.017521     3.00055e-01     6.91943e-02
      2252       2254      1   0.017208   0.010564     2.60142e-01     2.09200e-02
      2252       2255      1   0.017208   0.010564     2.60142e-01     2.09200e-02
      2251       2256      1   0.017208  -0.017521     3.00055e-01     6.91943e-02
      2251       2254      1   0.017208   0.010564     2.60142e-01     2.09200e-02
      2251       2255      1   0.017208   0.010564     2.60142e-01     2.09200e-02
      2250       2258      1  -0.028094   0.008364     3.00055e-01     6.91943e-02
      2250       2257      1  -0.028094   0.008364     3.00055e-01     6.91943e-02
      2249       2253      1   0.007531  -0.026489     3.00055e-01     6.91943e-02
      2249       2252      1   0.007531   0.014340     2.60142e-01     2.09200e-02
      2249       2251      1   0.007531   0.014340     2.60142e-01     2.09200e-02
      2248       2253      1   0.007531  -0.026489     3.00055e-01     6.91943e-02
      2248       2252      1   0.007531   0.014340     2.60142e-01     2.09200e-02
      2248       2251      1   0.007531   0.014340     2.60142e-01     2.09200e-02
      2247       2254      1   0.017463   0.010564     3.00055e-01     6.91943e-02
      2247       2255      1   0.017463   0.010564     3.00055e-01     6.91943e-02
      2246       2250      1   0.025511  -0.023412     3.00055e-01     6.91943e-02
      2246       2248      1   0.025511   0.006276     2.60142e-01     2.09200e-02
      2246       2249      1   0.025511   0.006276     2.60142e-01     2.09200e-02
      2245       2250      1   0.025511  -0.023412     3.00055e-01     6.91943e-02
      2245       2248      1   0.025511   0.006276     2.60142e-01     2.09200e-02
      2245       2249      1   0.025511   0.006276     2.60142e-01     2.09200e-02
      2244       2252      1  -0.111712   0.014340     3.00055e-01     6.91943e-02
      2244       2251      1  -0.111712   0.014340     3.00055e-01     6.91943e-02
      2243       2250      1   0.025511  -0.023412     3.00055e-01     6.91943e-02
      2243       2248      1   0.025511   0.006276     2.60142e-01     2.09200e-02
      2243       2249      1   0.025511   0.006276     2.60142e-01     2.09200e-02
      2320       2360      1  -0.673755   0.044953     2.78067e-01     9.58675e-02
      2320       2359      1  -0.673755   0.044953     2.78067e-01     9.58675e-02
      2319       2357      1   0.897613   0.015716     3.00055e-01     6.13495e-02
      2319       2356      1   0.897613   0.015716     3.00055e-01     6.13495e-02
      2318       2360      1  -0.552948   0.044953     2.80072e-01     8.62554e-02
      2318       2359      1  -0.552948   0.044953     2.80072e-01     8.62554e-02
      2311       2312      1   0.172230  -0.282478     2.67982e-01     8.67002e-02
      2310       2312      1   0.172230  -0.282478     2.67982e-01     8.67002e-02
      2309       2312      1   0.172230  -0.282478     2.67982e-01     8.67002e-02
      2308       2313      1  -0.338973   0.143525     2.67982e-01     8.67002e-02
      2308       2314      1  -0.338973   0.143525     2.67982e-01     8.67002e-02
      2308       2315      1  -0.338973   0.143525     2.67982e-01     8.67002e-02
      2307       2308      1   0.172230  -0.282478     2.67982e-01     8.67002e-02
      2307       2312      1   0.172230  -0.282478     2.67982e-01     8.67002e-02
      2306       2308      1   0.172230  -0.282478     2.67982e-01     8.67002e-02
      2306       2312      1   0.172230  -0.282478     2.67982e-01     8.67002e-02
      2305       2308      1   0.172230  -0.282478     2.67982e-01     8.67002e-02
      2305       2312      1   0.172230  -0.282478     2.67982e-01     8.67002e-02
      2304       2309      1  -0.338973   0.143525     2.67982e-01     8.67002e-02
      2304       2310      1  -0.338973   0.143525     2.67982e-01     8.67002e-02
      2304       2311      1  -0.338973   0.143525     2.67982e-01     8.67002e-02
      2304       2313      1  -0.338973   0.143525     2.67982e-01     8.67002e-02
      2304       2314      1  -0.338973   0.143525     2.67982e-01     8.67002e-02
      2304       2315      1  -0.338973   0.143525     2.67982e-01     8.67002e-02
      2302       2304      1   0.136415  -0.282478     2.67982e-01     8.67002e-02
      2302       2308      1   0.136415  -0.282478     2.67982e-01     8.67002e-02
      2302       2312      1   0.136415  -0.282478     2.67982e-01     8.67002e-02
      2301       2304      1   0.136415  -0.282478     2.67982e-01     8.67002e-02
      2301       2308      1   0.136415  -0.282478     2.67982e-01     8.67002e-02
      2301       2312      1   0.136415  -0.282478     2.67982e-01     8.67002e-02
      2300       2305      1  -0.170824   0.143525     2.67982e-01     8.67002e-02
      2300       2306      1  -0.170824   0.143525     2.67982e-01     8.67002e-02
      2300       2307      1  -0.170824   0.143525     2.67982e-01     8.67002e-02
      2300       2309      1  -0.170824   0.143525     2.67982e-01     8.67002e-02
      2300       2310      1  -0.170824   0.143525     2.67982e-01     8.67002e-02
      2300       2311      1  -0.170824   0.143525     2.67982e-01     8.67002e-02
      2300       2313      1  -0.170824   0.143525     2.67982e-01     8.67002e-02
      2300       2314      1  -0.170824   0.143525     2.67982e-01     8.67002e-02
      2300       2315      1  -0.170824   0.143525     2.67982e-01     8.67002e-02
      2299       2301      1   0.078534   0.113679     2.21567e-01     3.28444e-02
      2299       2302      1   0.078534   0.113679     2.21567e-01     3.28444e-02
      2299       2303      1   0.078534   0.204385     2.86068e-01     1.08078e-01
      2298       2301      1   0.078534   0.113679     2.21567e-01     3.28444e-02
      2298       2302      1   0.078534   0.113679     2.21567e-01     3.28444e-02
      2298       2303      1   0.078534   0.204385     2.86068e-01     1.08078e-01
      2296       2301      1  -0.508176   0.113679     2.47999e-01     1.08078e-01
      2296       2302      1  -0.508176   0.113679     2.47999e-01     1.08078e-01
      2295       2298      1   1.339721   0.065445     3.10656e-01     1.17227e-01
      2295       2299      1   1.339721   0.065445     3.10656e-01     1.17227e-01
      2293       2318      1   0.095591  -0.460790     2.73568e-01     1.08078e-01
      2293       2295      1   0.095591   1.116434     3.10656e-01     1.17227e-01
      2292       2318      1   0.095591  -0.460790     2.73568e-01     1.08078e-01
      2292       2295      1   0.095591   1.116434     3.10656e-01     1.17227e-01
      2290       2292      1   0.063253   0.079659     2.47135e-01     3.28444e-02
      2290       2293      1   0.063253   0.079659     2.47135e-01     3.28444e-02
      2290       2294      1   0.063253  -0.424567     2.73568e-01     1.08078e-01
      2290       2319      1   0.063253   0.748011     2.93551e-01     7.68707e-02
      2288       2290      1   0.070469   0.052711     2.47135e-01     3.28444e-02
      2288       2291      1   0.070469   0.014549     2.93551e-01     8.67002e-02
      2288       2318      1   0.070469  -0.460790     2.73568e-01     1.08078e-01
      2287       2290      1   0.070469   0.052711     2.47135e-01     3.28444e-02
      2287       2291      1   0.070469   0.014549     2.93551e-01     8.67002e-02
      2287       2318      1   0.070469  -0.460790     2.73568e-01     1.08078e-01
      2286       2292      1   0.196939   0.079659     2.93551e-01     8.67002e-02
      2286       2293      1   0.196939   0.079659     2.93551e-01     8.67002e-02
      2285       2290      1  -0.575489   0.052711     2.73568e-01     1.08078e-01
      2283       2287      1   0.910403   0.058724     2.93551e-01     7.68707e-02
      2283       2288      1   0.910403   0.058724     2.93551e-01     7.68707e-02
      2357       2360      1   0.018859   0.044953     2.60142e-01     2.09200e-02
      2357       2359      1   0.018859   0.044953     2.60142e-01     2.09200e-02
      2356       2360      1   0.018859   0.044953     2.60142e-01     2.09200e-02
      2356       2359      1   0.018859   0.044953     2.60142e-01     2.09200e-02
      2354       2358      1   0.020431  -0.136833     3.00055e-01     6.91943e-02
      2354       2357      1   0.020431   0.015716     2.60142e-01     2.09200e-02
      2354       2356      1   0.020431   0.015716     2.60142e-01     2.09200e-02
      2353       2358      1   0.020431  -0.136833     3.00055e-01     6.91943e-02
      2353       2357      1   0.020431   0.015716     2.60142e-01     2.09200e-02
      2353       2356      1   0.020431   0.015716     2.60142e-01     2.09200e-02
      2352       2360      1  -0.026954   0.044953     3.00055e-01     6.91943e-02
      2352       2359      1  -0.026954   0.044953     3.00055e-01     6.91943e-02
      2351       2355      1   0.010573  -0.002029     3.00055e-01     6.91943e-02
      2351       2354      1   0.010573   0.017026     2.60142e-01     2.09200e-02
      2351       2353      1   0.010573   0.017026     2.60142e-01     2.09200e-02
      2350       2355      1   0.010573  -0.002029     3.00055e-01     6.91943e-02
      2350       2354      1   0.010573   0.017026     2.60142e-01     2.09200e-02
      2350       2353      1   0.010573   0.017026     2.60142e-01     2.09200e-02
      2349       2357      1  -0.016521   0.015716     3.00055e-01     6.91943e-02
      2349       2356      1  -0.016521   0.015716     3.00055e-01     6.91943e-02
      2348       2352      1   0.011511  -0.022462     3.00055e-01     6.91943e-02
      2348       2350      1   0.011511   0.008811     2.60142e-01     2.09200e-02
      2348       2351      1   0.011511   0.008811     2.60142e-01     2.09200e-02
      2347       2352      1   0.011511  -0.022462     3.00055e-01     6.91943e-02
      2347       2350      1   0.011511   0.008811     2.60142e-01     2.09200e-02
      2347       2351      1   0.011511   0.008811     2.60142e-01     2.09200e-02
      2346       2354      1  -0.027812   0.017026     3.00055e-01     6.91943e-02
      2346       2353      1  -0.027812   0.017026     3.00055e-01     6.91943e-02
      2345       2349      1   0.006833  -0.013767     3.00055e-01     6.91943e-02
      2345       2347      1   0.006833   0.009592     2.60142e-01     2.09200e-02
      2345       2348      1   0.006833   0.009592     2.60142e-01     2.09200e-02
      2344       2349      1   0.006833  -0.013767     3.00055e-01     6.91943e-02
      2344       2347      1   0.006833   0.009592     2.60142e-01     2.09200e-02
      2344       2348      1   0.006833   0.009592     2.60142e-01     2.09200e-02
      2343       2350      1  -0.004386   0.008811     3.00055e-01     6.91943e-02
      2343       2351      1  -0.004386   0.008811     3.00055e-01     6.91943e-02
      2342       2346      1   0.011241  -0.023177     3.00055e-01     6.91943e-02
      2342       2344      1   0.011241   0.005694     2.60142e-01     2.09200e-02
      2342       2345      1   0.011241   0.005694     2.60142e-01     2.09200e-02
      2341       2346      1   0.011241  -0.023177     3.00055e-01     6.91943e-02
      2341       2344      1   0.011241   0.005694     2.60142e-01     2.09200e-02
      2341       2345      1   0.011241   0.005694     2.60142e-01     2.09200e-02
      2340       2347      1  -0.026451   0.009592     3.00055e-01     6.91943e-02
      2340       2348      1  -0.026451   0.009592     3.00055e-01     6.91943e-02
      2339       2343      1   0.010172  -0.003655     3.00055e-01     6.91943e-02
      2339       2342      1   0.010172   0.009367     2.60142e-01     2.09200e-02
      2339       2341      1   0.010172   0.009367     2.60142e-01     2.09200e-02
      2338       2343      1   0.010172  -0.003655     3.00055e-01     6.91943e-02
      2338       2342      1   0.010172   0.009367     2.60142e-01     2.09200e-02
      2338       2341      1   0.010172   0.009367     2.60142e-01     2.09200e-02
      2337       2344      1  -0.014653   0.005694     3.00055e-01     6.91943e-02
      2337       2345      1  -0.014653   0.005694     3.00055e-01     6.91943e-02
      2336       2340      1   0.010037  -0.022042     3.00055e-01     6.91943e-02
      2336       2338      1   0.010037   0.008477     2.60142e-01     2.09200e-02
      2336       2339      1   0.010037   0.008477     2.60142e-01     2.09200e-02
      2335       2340      1   0.010037  -0.022042     3.00055e-01     6.91943e-02
      2335       2338      1   0.010037   0.008477     2.60142e-01     2.09200e-02
      2335       2339      1   0.010037   0.008477     2.60142e-01     2.09200e-02
      2334       2342      1  -0.021025   0.009367     3.00055e-01     6.91943e-02
      2334       2341      1  -0.021025   0.009367     3.00055e-01     6.91943e-02
      2333       2337      1   0.012677  -0.012211     3.00055e-01     6.91943e-02
      2333       2336      1   0.012677   0.008364     2.60142e-01     2.09200e-02
      2333       2335      1   0.012677   0.008364     2.60142e-01     2.09200e-02
      2332       2337      1   0.012677  -0.012211     3.00055e-01     6.91943e-02
      2332       2336      1   0.012677   0.008364     2.60142e-01     2.09200e-02
      2332       2335      1   0.012677   0.008364     2.60142e-01     2.09200e-02
      2331       2338      1  -0.031787   0.008477     3.00055e-01     6.91943e-02
      2331       2339      1  -0.031787   0.008477     3.00055e-01     6.91943e-02
      2330       2334      1   0.017208  -0.017521     3.00055e-01     6.91943e-02
      2330       2332      1   0.017208   0.010564     2.60142e-01     2.09200e-02
      2330       2333      1   0.017208   0.010564     2.60142e-01     2.09200e-02
      2329       2334      1   0.017208  -0.017521     3.00055e-01     6.91943e-02
      2329       2332      1   0.017208   0.010564     2.60142e-01     2.09200e-02
      2329       2333      1   0.017208   0.010564     2.60142e-01     2.09200e-02
      2328       2336      1  -0.028094   0.008364     3.00055e-01     6.91943e-02
      2328       2335      1  -0.028094   0.008364     3.00055e-01     6.91943e-02
      2327       2331      1   0.007531  -0.026489     3.00055e-01     6.91943e-02
      2327       2330      1   0.007531   0.014340     2.60142e-01     2.09200e-02
      2327       2329      1   0.007531   0.014340     2.60142e-01     2.09200e-02
      2326       2331      1   0.007531  -0.026489     3.00055e-01     6.91943e-02
      2326       2330      1   0.007531   0.014340     2.60142e-01     2.09200e-02
      2326       2329      1   0.007531   0.014340     2.60142e-01     2.09200e-02
      2325       2332      1   0.017463   0.010564     3.00055e-01     6.91943e-02
      2325       2333      1   0.017463   0.010564     3.00055e-01     6.91943e-02
      2324       2328      1   0.025511  -0.023412     3.00055e-01     6.91943e-02
      2324       2326      1   0.025511   0.006276     2.60142e-01     2.09200e-02
      2324       2327      1   0.025511   0.006276     2.60142e-01     2.09200e-02
      2323       2328      1   0.025511  -0.023412     3.00055e-01     6.91943e-02
      2323       2326      1   0.025511   0.006276     2.60142e-01     2.09200e-02
      2323       2327      1   0.025511   0.006276     2.60142e-01     2.09200e-02
      2322       2330      1  -0.111712   0.014340     3.00055e-01     6.91943e-02
      2322       2329      1  -0.111712   0.014340     3.00055e-01     6.91943e-02
      2321       2328      1   0.025511  -0.023412     3.00055e-01     6.91943e-02
      2321       2326      1   0.025511   0.006276     2.60142e-01     2.09200e-02
      2321       2327      1   0.025511   0.006276     2.60142e-01     2.09200e-02
      2400       2402      1   0.053944  -0.559638     2.78067e-01     9.58675e-02
      2400       2403      1   0.053944  -0.479574     2.80072e-01     8.62554e-02
      2399       2402      1   0.053944  -0.559638     2.78067e-01     9.58675e-02
      2399       2403      1   0.053944  -0.479574     2.80072e-01     8.62554e-02
      2397       2400      1   0.018859   0.044953     2.60142e-01     2.09200e-02
      2397       2399      1   0.018859   0.044953     2.60142e-01     2.09200e-02
      2397       2401      1   0.018859   0.758669     3.00055e-01     6.13495e-02
      2396       2400      1   0.018859   0.044953     2.60142e-01     2.09200e-02
      2396       2399      1   0.018859   0.044953     2.60142e-01     2.09200e-02
      2396       2401      1   0.018859   0.758669     3.00055e-01     6.13495e-02
      2394       2398      1   0.020431  -0.136833     3.00055e-01     6.91943e-02
      2394       2397      1   0.020431   0.015716     2.60142e-01     2.09200e-02
      2394       2396      1   0.020431   0.015716     2.60142e-01     2.09200e-02
      2393       2398      1   0.020431  -0.136833     3.00055e-01     6.91943e-02
      2393       2397      1   0.020431   0.015716     2.60142e-01     2.09200e-02
      2393       2396      1   0.020431   0.015716     2.60142e-01     2.09200e-02
      2392       2400      1  -0.026954   0.044953     3.00055e-01     6.91943e-02
      2392       2399      1  -0.026954   0.044953     3.00055e-01     6.91943e-02
      2391       2395      1   0.010573  -0.002029     3.00055e-01     6.91943e-02
      2391       2394      1   0.010573   0.017026     2.60142e-01     2.09200e-02
      2391       2393      1   0.010573   0.017026     2.60142e-01     2.09200e-02
      2390       2395      1   0.010573  -0.002029     3.00055e-01     6.91943e-02
      2390       2394      1   0.010573   0.017026     2.60142e-01     2.09200e-02
      2390       2393      1   0.010573   0.017026     2.60142e-01     2.09200e-02
      2389       2397      1  -0.016521   0.015716     3.00055e-01     6.91943e-02
      2389       2396      1  -0.016521   0.015716     3.00055e-01     6.91943e-02
      2388       2392      1   0.011511  -0.022462     3.00055e-01     6.91943e-02
      2388       2390      1   0.011511   0.008811     2.60142e-01     2.09200e-02
      2388       2391      1   0.011511   0.008811     2.60142e-01     2.09200e-02
      2387       2392      1   0.011511  -0.022462     3.00055e-01     6.91943e-02
      2387       2390      1   0.011511   0.008811     2.60142e-01     2.09200e-02
      2387       2391      1   0.011511   0.008811     2.60142e-01     2.09200e-02
      2386       2394      1  -0.027812   0.017026     3.00055e-01     6.91943e-02
      2386       2393      1  -0.027812   0.017026     3.00055e-01     6.91943e-02
      2385       2389      1   0.006833  -0.013767     3.00055e-01     6.91943e-02
      2385       2387      1   0.006833   0.009592     2.60142e-01     2.09200e-02
      2385       2388      1   0.006833   0.009592     2.60142e-01     2.09200e-02
      2384       2389      1   0.006833  -0.013767     3.00055e-01     6.91943e-02
      2384       2387      1   0.006833   0.009592     2.60142e-01     2.09200e-02
      2384       2388      1   0.006833   0.009592     2.60142e-01     2.09200e-02
      2383       2390      1  -0.004386   0.008811     3.00055e-01     6.91943e-02
      2383       2391      1  -0.004386   0.008811     3.00055e-01     6.91943e-02
      2382       2386      1   0.011241  -0.023177     3.00055e-01     6.91943e-02
      2382       2384      1   0.011241   0.005694     2.60142e-01     2.09200e-02
      2382       2385      1   0.011241   0.005694     2.60142e-01     2.09200e-02
      2381       2386      1   0.011241  -0.023177     3.00055e-01     6.91943e-02
      2381       2384      1   0.011241   0.005694     2.60142e-01     2.09200e-02
      2381       2385      1   0.011241   0.005694     2.60142e-01     2.09200e-02
      2380       2387      1  -0.026451   0.009592     3.00055e-01     6.91943e-02
      2380       2388      1  -0.026451   0.009592     3.00055e-01     6.91943e-02
      2379       2383      1   0.010172  -0.003655     3.00055e-01     6.91943e-02
      2379       2382      1   0.010172   0.009367     2.60142e-01     2.09200e-02
      2379       2381      1   0.010172   0.009367     2.60142e-01     2.09200e-02
      2378       2383      1   0.010172  -0.003655     3.00055e-01     6.91943e-02
      2378       2382      1   0.010172   0.009367     2.60142e-01     2.09200e-02
      2378       2381      1   0.010172   0.009367     2.60142e-01     2.09200e-02
      2377       2384      1  -0.014653   0.005694     3.00055e-01     6.91943e-02
      2377       2385      1  -0.014653   0.005694     3.00055e-01     6.91943e-02
      2376       2380      1   0.010037  -0.022042     3.00055e-01     6.91943e-02
      2376       2378      1   0.010037   0.008477     2.60142e-01     2.09200e-02
      2376       2379      1   0.010037   0.008477     2.60142e-01     2.09200e-02
      2375       2380      1   0.010037  -0.022042     3.00055e-01     6.91943e-02
      2375       2378      1   0.010037   0.008477     2.60142e-01     2.09200e-02
      2375       2379      1   0.010037   0.008477     2.60142e-01     2.09200e-02
      2374       2382      1  -0.021025   0.009367     3.00055e-01     6.91943e-02
      2374       2381      1  -0.021025   0.009367     3.00055e-01     6.91943e-02
      2373       2377      1   0.012677  -0.012211     3.00055e-01     6.91943e-02
      2373       2376      1   0.012677   0.008364     2.60142e-01     2.09200e-02
      2373       2375      1   0.012677   0.008364     2.60142e-01     2.09200e-02
      2372       2377      1   0.012677  -0.012211     3.00055e-01     6.91943e-02
      2372       2376      1   0.012677   0.008364     2.60142e-01     2.09200e-02
      2372       2375      1   0.012677   0.008364     2.60142e-01     2.09200e-02
      2371       2378      1  -0.031787   0.008477     3.00055e-01     6.91943e-02
      2371       2379      1  -0.031787   0.008477     3.00055e-01     6.91943e-02
      2370       2374      1   0.017208  -0.017521     3.00055e-01     6.91943e-02
      2370       2372      1   0.017208   0.010564     2.60142e-01     2.09200e-02
      2370       2373      1   0.017208   0.010564     2.60142e-01     2.09200e-02
      2369       2374      1   0.017208  -0.017521     3.00055e-01     6.91943e-02
      2369       2372      1   0.017208   0.010564     2.60142e-01     2.09200e-02
      2369       2373      1   0.017208   0.010564     2.60142e-01     2.09200e-02
      2368       2376      1  -0.028094   0.008364     3.00055e-01     6.91943e-02
      2368       2375      1  -0.028094   0.008364     3.00055e-01     6.91943e-02
      2367       2371      1   0.007531  -0.026489     3.00055e-01     6.91943e-02
      2367       2370      1   0.007531   0.014340     2.60142e-01     2.09200e-02
      2367       2369      1   0.007531   0.014340     2.60142e-01     2.09200e-02
      2366       2371      1   0.007531  -0.026489     3.00055e-01     6.91943e-02
      2366       2370      1   0.007531   0.014340     2.60142e-01     2.09200e-02
      2366       2369      1   0.007531   0.014340     2.60142e-01     2.09200e-02
      2365       2372      1   0.017463   0.010564     3.00055e-01     6.91943e-02
      2365       2373      1   0.017463   0.010564     3.00055e-01     6.91943e-02
      2364       2368      1   0.025511  -0.023412     3.00055e-01     6.91943e-02
      2364       2366      1   0.025511   0.006276     2.60142e-01     2.09200e-02
      2364       2367      1   0.025511   0.006276     2.60142e-01     2.09200e-02
      2363       2368      1   0.025511  -0.023412     3.00055e-01     6.91943e-02
      2363       2366      1   0.025511   0.006276     2.60142e-01     2.09200e-02
      2363       2367      1   0.025511   0.006276     2.60142e-01     2.09200e-02
      2362       2370      1  -0.111712   0.014340     3.00055e-01     6.91943e-02
      2362       2369      1  -0.111712   0.014340     3.00055e-01     6.91943e-02
      2361       2368      1   0.025511  -0.023412     3.00055e-01     6.91943e-02
      2361       2366      1   0.025511   0.006276     2.60142e-01     2.09200e-02
      2361       2367      1   0.025511   0.006276     2.60142e-01     2.09200e-02
      2438       2478      1  -0.673755   0.044953     2.78067e-01     9.58675e-02
      2438       2477      1  -0.673755   0.044953     2.78067e-01     9.58675e-02
      2437       2475      1   0.897613   0.015716     3.00055e-01     6.13495e-02
      2437       2474      1   0.897613   0.015716     3.00055e-01     6.13495e-02
      2436       2478      1  -0.552948   0.044953     2.80072e-01     8.62554e-02
      2436       2477      1  -0.552948   0.044953     2.80072e-01     8.62554e-02
      2429       2430      1   0.172230  -0.282478     2.67982e-01     8.67002e-02
      2428       2430      1   0.172230  -0.282478     2.67982e-01     8.67002e-02
      2427       2430      1   0.172230  -0.282478     2.67982e-01     8.67002e-02
      2426       2431      1  -0.338973   0.143525     2.67982e-01     8.67002e-02
      2426       2432      1  -0.338973   0.143525     2.67982e-01     8.67002e-02
      2426       2433      1  -0.338973   0.143525     2.67982e-01     8.67002e-02
      2425       2426      1   0.172230  -0.282478     2.67982e-01     8.67002e-02
      2425       2430      1   0.172230  -0.282478     2.67982e-01     8.67002e-02
      2424       2426      1   0.172230  -0.282478     2.67982e-01     8.67002e-02
      2424       2430      1   0.172230  -0.282478     2.67982e-01     8.67002e-02
      2423       2426      1   0.172230  -0.282478     2.67982e-01     8.67002e-02
      2423       2430      1   0.172230  -0.282478     2.67982e-01     8.67002e-02
      2422       2427      1  -0.338973   0.143525     2.67982e-01     8.67002e-02
      2422       2428      1  -0.338973   0.143525     2.67982e-01     8.67002e-02
      2422       2429      1  -0.338973   0.143525     2.67982e-01     8.67002e-02
      2422       2431      1  -0.338973   0.143525     2.67982e-01     8.67002e-02
      2422       2432      1  -0.338973   0.143525     2.67982e-01     8.67002e-02
      2422       2433      1  -0.338973   0.143525     2.67982e-01     8.67002e-02
      2420       2422      1   0.136415  -0.282478     2.67982e-01     8.67002e-02
      2420       2426      1   0.136415  -0.282478     2.67982e-01     8.67002e-02
      2420       2430      1   0.136415  -0.282478     2.67982e-01     8.67002e-02
      2419       2422      1   0.136415  -0.282478     2.67982e-01     8.67002e-02
      2419       2426      1   0.136415  -0.282478     2.67982e-01     8.67002e-02
      2419       2430      1   0.136415  -0.282478     2.67982e-01     8.67002e-02
      2418       2423      1  -0.170824   0.143525     2.67982e-01     8.67002e-02
      2418       2424      1  -0.170824   0.143525     2.67982e-01     8.67002e-02
      2418       2425      1  -0.170824   0.143525     2.67982e-01     8.67002e-02
      2418       2427      1  -0.170824   0.143525     2.67982e-01     8.67002e-02
      2418       2428      1  -0.170824   0.143525     2.67982e-01     8.67002e-02
      2418       2429      1  -0.170824   0.143525     2.67982e-01     8.67002e-02
      2418       2431      1  -0.170824   0.143525     2.67982e-01     8.67002e-02
      2418       2432      1  -0.170824   0.143525     2.67982e-01     8.67002e-02
      2418       2433      1  -0.170824   0.143525     2.67982e-01     8.67002e-02
      2417       2419      1   0.078534   0.113679     2.21567e-01     3.28444e-02
      2417       2420      1   0.078534   0.113679     2.21567e-01     3.28444e-02
      2417       2421      1   0.078534   0.204385     2.86068e-01     1.08078e-01
      2416       2419      1   0.078534   0.113679     2.21567e-01     3.28444e-02
      2416       2420      1   0.078534   0.113679     2.21567e-01     3.28444e-02
      2416       2421      1   0.078534   0.204385     2.86068e-01     1.08078e-01
      2414       2419      1  -0.508176   0.113679     2.47999e-01     1.08078e-01
      2414       2420      1  -0.508176   0.113679     2.47999e-01     1.08078e-01
      2413       2416      1   1.339721   0.065445     3.10656e-01     1.17227e-01
      2413       2417      1   1.339721   0.065445     3.10656e-01     1.17227e-01
      2411       2436      1   0.095591  -0.460790     2.73568e-01     1.08078e-01
      2411       2413      1   0.095591   1.116434     3.10656e-01     1.17227e-01
      2410       2436      1   0.095591  -0.460790     2.73568e-01     1.08078e-01
      2410       2413      1   0.095591   1.116434     3.10656e-01     1.17227e-01
      2408       2410      1   0.063253   0.079659     2.47135e-01     3.28444e-02
      2408       2411      1   0.063253   0.079659     2.47135e-01     3.28444e-02
      2408       2412      1   0.063253  -0.424567     2.73568e-01     1.08078e-01
      2408       2437      1   0.063253   0.748011     2.93551e-01     7.68707e-02
      2406       2408      1   0.070469   0.052711     2.47135e-01     3.28444e-02
      2406       2409      1   0.070469   0.014549     2.93551e-01     8.67002e-02
      2406       2436      1   0.070469  -0.460790     2.73568e-01     1.08078e-01
      2405       2408      1   0.070469   0.052711     2.47135e-01     3.28444e-02
      2405       2409      1   0.070469   0.014549     2.93551e-01     8.67002e-02
      2405       2436      1   0.070469  -0.460790     2.73568e-01     1.08078e-01
      2404       2410      1   0.196939   0.079659     2.93551e-01     8.67002e-02
      2404       2411      1   0.196939   0.079659     2.93551e-01     8.67002e-02
      2403       2408      1  -0.575489   0.052711     2.73568e-01     1.08078e-01
      2401       2405      1   0.910403   0.058724     2.93551e-01     7.68707e-02
      2401       2406      1   0.910403   0.058724     2.93551e-01     7.68707e-02
      2475       2478      1   0.018859   0.044953     2.60142e-01     2.09200e-02
      2475       2477      1   0.018859   0.044953     2.60142e-01     2.09200e-02
      2474       2478      1   0.018859   0.044953     2.60142e-01     2.09200e-02
      2474       2477      1   0.018859   0.044953     2.60142e-01     2.09200e-02
      2472       2476      1   0.020431  -0.136833     3.00055e-01     6.91943e-02
      2472       2475      1   0.020431   0.015716     2.60142e-01     2.09200e-02
      2472       2474      1   0.020431   0.015716     2.60142e-01     2.09200e-02
      2471       2476      1   0.020431  -0.136833     3.00055e-01     6.91943e-02
      2471       2475      1   0.020431   0.015716     2.60142e-01     2.09200e-02
      2471       2474      1   0.020431   0.015716     2.60142e-01     2.09200e-02
      2470       2478      1  -0.026954   0.044953     3.00055e-01     6.91943e-02
      2470       2477      1  -0.026954   0.044953     3.00055e-01     6.91943e-02
      2469       2473      1   0.010573  -0.002029     3.00055e-01     6.91943e-02
      2469       2472      1   0.010573   0.017026     2.60142e-01     2.09200e-02
      2469       2471      1   0.010573   0.017026     2.60142e-01     2.09200e-02
      2468       2473      1   0.010573  -0.002029     3.00055e-01     6.91943e-02
      2468       2472      1   0.010573   0.017026     2.60142e-01     2.09200e-02
      2468       2471      1   0.010573   0.017026     2.60142e-01     2.09200e-02
      2467       2475      1  -0.016521   0.015716     3.00055e-01     6.91943e-02
      2467       2474      1  -0.016521   0.015716     3.00055e-01     6.91943e-02
      2466       2470      1   0.011511  -0.022462     3.00055e-01     6.91943e-02
      2466       2468      1   0.011511   0.008811     2.60142e-01     2.09200e-02
      2466       2469      1   0.011511   0.008811     2.60142e-01     2.09200e-02
      2465       2470      1   0.011511  -0.022462     3.00055e-01     6.91943e-02
      2465       2468      1   0.011511   0.008811     2.60142e-01     2.09200e-02
      2465       2469      1   0.011511   0.008811     2.60142e-01     2.09200e-02
      2464       2472      1  -0.027812   0.017026     3.00055e-01     6.91943e-02
      2464       2471      1  -0.027812   0.017026     3.00055e-01     6.91943e-02
      2463       2467      1   0.006833  -0.013767     3.00055e-01     6.91943e-02
      2463       2465      1   0.006833   0.009592     2.60142e-01     2.09200e-02
      2463       2466      1   0.006833   0.009592     2.60142e-01     2.09200e-02
      2462       2467      1   0.006833  -0.013767     3.00055e-01     6.91943e-02
      2462       2465      1   0.006833   0.009592     2.60142e-01     2.09200e-02
      2462       2466      1   0.006833   0.009592     2.60142e-01     2.09200e-02
      2461       2468      1  -0.004386   0.008811     3.00055e-01     6.91943e-02
      2461       2469      1  -0.004386   0.008811     3.00055e-01     6.91943e-02
      2460       2464      1   0.011241  -0.023177     3.00055e-01     6.91943e-02
      2460       2462      1   0.011241   0.005694     2.60142e-01     2.09200e-02
      2460       2463      1   0.011241   0.005694     2.60142e-01     2.09200e-02
      2459       2464      1   0.011241  -0.023177     3.00055e-01     6.91943e-02
      2459       2462      1   0.011241   0.005694     2.60142e-01     2.09200e-02
      2459       2463      1   0.011241   0.005694     2.60142e-01     2.09200e-02
      2458       2465      1  -0.026451   0.009592     3.00055e-01     6.91943e-02
      2458       2466      1  -0.026451   0.009592     3.00055e-01     6.91943e-02
      2457       2461      1   0.010172  -0.003655     3.00055e-01     6.91943e-02
      2457       2460      1   0.010172   0.009367     2.60142e-01     2.09200e-02
      2457       2459      1   0.010172   0.009367     2.60142e-01     2.09200e-02
      2456       2461      1   0.010172  -0.003655     3.00055e-01     6.91943e-02
      2456       2460      1   0.010172   0.009367     2.60142e-01     2.09200e-02
      2456       2459      1   0.010172   0.009367     2.60142e-01     2.09200e-02
      2455       2462      1  -0.014653   0.005694     3.00055e-01     6.91943e-02
      2455       2463      1  -0.014653   0.005694     3.00055e-01     6.91943e-02
      2454       2458      1   0.010037  -0.022042     3.00055e-01     6.91943e-02
      2454       2456      1   0.010037   0.008477     2.60142e-01     2.09200e-02
      2454       2457      1   0.010037   0.008477     2.60142e-01     2.09200e-02
      2453       2458      1   0.010037  -0.022042     3.00055e-01     6.91943e-02
      2453       2456      1   0.010037   0.008477     2.60142e-01     2.09200e-02
      2453       2457      1   0.010037   0.008477     2.60142e-01     2.09200e-02
      2452       2460      1  -0.021025   0.009367     3.00055e-01     6.91943e-02
      2452       2459      1  -0.021025   0.009367     3.00055e-01     6.91943e-02
      2451       2455      1   0.012677  -0.012211     3.00055e-01     6.91943e-02
      2451       2454      1   0.012677   0.008364     2.60142e-01     2.09200e-02
      2451       2453      1   0.012677   0.008364     2.60142e-01     2.09200e-02
      2450       2455      1   0.012677  -0.012211     3.00055e-01     6.91943e-02
      2450       2454      1   0.012677   0.008364     2.60142e-01     2.09200e-02
      2450       2453      1   0.012677   0.008364     2.60142e-01     2.09200e-02
      2449       2456      1  -0.031787   0.008477     3.00055e-01     6.91943e-02
      2449       2457      1  -0.031787   0.008477     3.00055e-01     6.91943e-02
      2448       2452      1   0.017208  -0.017521     3.00055e-01     6.91943e-02
      2448       2450      1   0.017208   0.010564     2.60142e-01     2.09200e-02
      2448       2451      1   0.017208   0.010564     2.60142e-01     2.09200e-02
      2447       2452      1   0.017208  -0.017521     3.00055e-01     6.91943e-02
      2447       2450      1   0.017208   0.010564     2.60142e-01     2.09200e-02
      2447       2451      1   0.017208   0.010564     2.60142e-01     2.09200e-02
      2446       2454      1  -0.028094   0.008364     3.00055e-01     6.91943e-02
      2446       2453      1  -0.028094   0.008364     3.00055e-01     6.91943e-02
      2445       2449      1   0.007531  -0.026489     3.00055e-01     6.91943e-02
      2445       2448      1   0.007531   0.014340     2.60142e-01     2.09200e-02
      2445       2447      1   0.007531   0.014340     2.60142e-01     2.09200e-02
      2444       2449      1   0.007531  -0.026489     3.00055e-01     6.91943e-02
      2444       2448      1   0.007531   0.014340     2.60142e-01     2.09200e-02
      2444       2447      1   0.007531   0.014340     2.60142e-01     2.09200e-02
      2443       2450      1   0.017463   0.010564     3.00055e-01     6.91943e-02
      2443       2451      1   0.017463   0.010564     3.00055e-01     6.91943e-02
      2442       2446      1   0.025511  -0.023412     3.00055e-01     6.91943e-02
      2442       2444      1   0.025511   0.006276     2.60142e-01     2.09200e-02
      2442       2445      1   0.025511   0.006276     2.60142e-01     2.09200e-02
      2441       2446      1   0.025511  -0.023412     3.00055e-01     6.91943e-02
      2441       2444      1   0.025511   0.006276     2.60142e-01     2.09200e-02
      2441       2445      1   0.025511   0.006276     2.60142e-01     2.09200e-02
      2440       2448      1  -0.111712   0.014340     3.00055e-01     6.91943e-02
      2440       2447      1  -0.111712   0.014340     3.00055e-01     6.91943e-02
      2439       2446      1   0.025511  -0.023412     3.00055e-01     6.91943e-02
      2439       2444      1   0.025511   0.006276     2.60142e-01     2.09200e-02
      2439       2445      1   0.025511   0.006276     2.60142e-01     2.09200e-02
      2518       2520      1   0.053944  -0.559638     2.78067e-01     9.58675e-02
      2518       2521      1   0.053944  -0.479574     2.80072e-01     8.62554e-02
      2517       2520      1   0.053944  -0.559638     2.78067e-01     9.58675e-02
      2517       2521      1   0.053944  -0.479574     2.80072e-01     8.62554e-02
      2515       2518      1   0.018859   0.044953     2.60142e-01     2.09200e-02
      2515       2517      1   0.018859   0.044953     2.60142e-01     2.09200e-02
      2515       2519      1   0.018859   0.758669     3.00055e-01     6.13495e-02
      2514       2518      1   0.018859   0.044953     2.60142e-01     2.09200e-02
      2514       2517      1   0.018859   0.044953     2.60142e-01     2.09200e-02
      2514       2519      1   0.018859   0.758669     3.00055e-01     6.13495e-02
      2512       2516      1   0.020431  -0.136833     3.00055e-01     6.91943e-02
      2512       2515      1   0.020431   0.015716     2.60142e-01     2.09200e-02
      2512       2514      1   0.020431   0.015716     2.60142e-01     2.09200e-02
      2511       2516      1   0.020431  -0.136833     3.00055e-01     6.91943e-02
      2511       2515      1   0.020431   0.015716     2.60142e-01     2.09200e-02
      2511       2514      1   0.020431   0.015716     2.60142e-01     2.09200e-02
      2510       2518      1  -0.026954   0.044953     3.00055e-01     6.91943e-02
      2510       2517      1  -0.026954   0.044953     3.00055e-01     6.91943e-02
      2509       2513      1   0.010573  -0.002029     3.00055e-01     6.91943e-02
      2509       2512      1   0.010573   0.017026     2.60142e-01     2.09200e-02
      2509       2511      1   0.010573   0.017026     2.60142e-01     2.09200e-02
      2508       2513      1   0.010573  -0.002029     3.00055e-01     6.91943e-02
      2508       2512      1   0.010573   0.017026     2.60142e-01     2.09200e-02
      2508       2511      1   0.010573   0.017026     2.60142e-01     2.09200e-02
      2507       2515      1  -0.016521   0.015716     3.00055e-01     6.91943e-02
      2507       2514      1  -0.016521   0.015716     3.00055e-01     6.91943e-02
      2506       2510      1   0.011511  -0.022462     3.00055e-01     6.91943e-02
      2506       2508      1   0.011511   0.008811     2.60142e-01     2.09200e-02
      2506       2509      1   0.011511   0.008811     2.60142e-01     2.09200e-02
      2505       2510      1   0.011511  -0.022462     3.00055e-01     6.91943e-02
      2505       2508      1   0.011511   0.008811     2.60142e-01     2.09200e-02
      2505       2509      1   0.011511   0.008811     2.60142e-01     2.09200e-02
      2504       2512      1  -0.027812   0.017026     3.00055e-01     6.91943e-02
      2504       2511      1  -0.027812   0.017026     3.00055e-01     6.91943e-02
      2503       2507      1   0.006833  -0.013767     3.00055e-01     6.91943e-02
      2503       2505      1   0.006833   0.009592     2.60142e-01     2.09200e-02
      2503       2506      1   0.006833   0.009592     2.60142e-01     2.09200e-02
      2502       2507      1   0.006833  -0.013767     3.00055e-01     6.91943e-02
      2502       2505      1   0.006833   0.009592     2.60142e-01     2.09200e-02
      2502       2506      1   0.006833   0.009592     2.60142e-01     2.09200e-02
      2501       2508      1  -0.004386   0.008811     3.00055e-01     6.91943e-02
      2501       2509      1  -0.004386   0.008811     3.00055e-01     6.91943e-02
      2500       2504      1   0.011241  -0.023177     3.00055e-01     6.91943e-02
      2500       2502      1   0.011241   0.005694     2.60142e-01     2.09200e-02
      2500       2503      1   0.011241   0.005694     2.60142e-01     2.09200e-02
      2499       2504      1   0.011241  -0.023177     3.00055e-01     6.91943e-02
      2499       2502      1   0.011241   0.005694     2.60142e-01     2.09200e-02
      2499       2503      1   0.011241   0.005694     2.60142e-01     2.09200e-02
      2498       2505      1  -0.026451   0.009592     3.00055e-01     6.91943e-02
      2498       2506      1  -0.026451   0.009592     3.00055e-01     6.91943e-02
      2497       2501      1   0.010172  -0.003655     3.00055e-01     6.91943e-02
      2497       2500      1   0.010172   0.009367     2.60142e-01     2.09200e-02
      2497       2499      1   0.010172   0.009367     2.60142e-01     2.09200e-02
      2496       2501      1   0.010172  -0.003655     3.00055e-01     6.91943e-02
      2496       2500      1   0.010172   0.009367     2.60142e-01     2.09200e-02
      2496       2499      1   0.010172   0.009367     2.60142e-01     2.09200e-02
      2495       2502      1  -0.014653   0.005694     3.00055e-01     6.91943e-02
      2495       2503      1  -0.014653   0.005694     3.00055e-01     6.91943e-02
      2494       2498      1   0.010037  -0.022042     3.00055e-01     6.91943e-02
      2494       2496      1   0.010037   0.008477     2.60142e-01     2.09200e-02
      2494       2497      1   0.010037   0.008477     2.60142e-01     2.09200e-02
      2493       2498      1   0.010037  -0.022042     3.00055e-01     6.91943e-02
      2493       2496      1   0.010037   0.008477     2.60142e-01     2.09200e-02
      2493       2497      1   0.010037   0.008477     2.60142e-01     2.09200e-02
      2492       2500      1  -0.021025   0.009367     3.00055e-01     6.91943e-02
      2492       2499      1  -0.021025   0.009367     3.00055e-01     6.91943e-02
      2491       2495      1   0.012677  -0.012211     3.00055e-01     6.91943e-02
      2491       2494      1   0.012677   0.008364     2.60142e-01     2.09200e-02
      2491       2493      1   0.012677   0.008364     2.60142e-01     2.09200e-02
      2490       2495      1   0.012677  -0.012211     3.00055e-01     6.91943e-02
      2490       2494      1   0.012677   0.008364     2.60142e-01     2.09200e-02
      2490       2493      1   0.012677   0.008364     2.60142e-01     2.09200e-02
      2489       2496      1  -0.031787   0.008477     3.00055e-01     6.91943e-02
      2489       2497      1  -0.031787   0.008477     3.00055e-01     6.91943e-02
      2488       2492      1   0.017208  -0.017521     3.00055e-01     6.91943e-02
      2488       2490      1   0.017208   0.010564     2.60142e-01     2.09200e-02
      2488       2491      1   0.017208   0.010564     2.60142e-01     2.09200e-02
      2487       2492      1   0.017208  -0.017521     3.00055e-01     6.91943e-02
      2487       2490      1   0.017208   0.010564     2.60142e-01     2.09200e-02
      2487       2491      1   0.017208   0.010564     2.60142e-01     2.09200e-02
      2486       2494      1  -0.028094   0.008364     3.00055e-01     6.91943e-02
      2486       2493      1  -0.028094   0.008364     3.00055e-01     6.91943e-02
      2485       2489      1   0.007531  -0.026489     3.00055e-01     6.91943e-02
      2485       2488      1   0.007531   0.014340     2.60142e-01     2.09200e-02
      2485       2487      1   0.007531   0.014340     2.60142e-01     2.09200e-02
      2484       2489      1   0.007531  -0.026489     3.00055e-01     6.91943e-02
      2484       2488      1   0.007531   0.014340     2.60142e-01     2.09200e-02
      2484       2487      1   0.007531   0.014340     2.60142e-01     2.09200e-02
      2483       2490      1   0.017463   0.010564     3.00055e-01     6.91943e-02
      2483       2491      1   0.017463   0.010564     3.00055e-01     6.91943e-02
      2482       2486      1   0.025511  -0.023412     3.00055e-01     6.91943e-02
      2482       2484      1   0.025511   0.006276     2.60142e-01     2.09200e-02
      2482       2485      1   0.025511   0.006276     2.60142e-01     2.09200e-02
      2481       2486      1   0.025511  -0.023412     3.00055e-01     6.91943e-02
      2481       2484      1   0.025511   0.006276     2.60142e-01     2.09200e-02
      2481       2485      1   0.025511   0.006276     2.60142e-01     2.09200e-02
      2480       2488      1  -0.111712   0.014340     3.00055e-01     6.91943e-02
      2480       2487      1  -0.111712   0.014340     3.00055e-01     6.91943e-02
      2479       2486      1   0.025511  -0.023412     3.00055e-01     6.91943e-02
      2479       2484      1   0.025511   0.006276     2.60142e-01     2.09200e-02
      2479       2485      1   0.025511   0.006276     2.60142e-01     2.09200e-02
      2556       2596      1  -0.673755   0.044953     2.78067e-01     9.58675e-02
      2556       2595      1  -0.673755   0.044953     2.78067e-01     9.58675e-02
      2555       2593      1   0.897613   0.015716     3.00055e-01     6.13495e-02
      2555       2592      1   0.897613   0.015716     3.00055e-01     6.13495e-02
      2554       2596      1  -0.552948   0.044953     2.80072e-01     8.62554e-02
      2554       2595      1  -0.552948   0.044953     2.80072e-01     8.62554e-02
      2547       2548      1   0.172230  -0.282478     2.67982e-01     8.67002e-02
      2546       2548      1   0.172230  -0.282478     2.67982e-01     8.67002e-02
      2545       2548      1   0.172230  -0.282478     2.67982e-01     8.67002e-02
      2544       2549      1  -0.338973   0.143525     2.67982e-01     8.67002e-02
      2544       2550      1  -0.338973   0.143525     2.67982e-01     8.67002e-02
      2544       2551      1  -0.338973   0.143525     2.67982e-01     8.67002e-02
      2543       2544      1   0.172230  -0.282478     2.67982e-01     8.67002e-02
      2543       2548      1   0.172230  -0.282478     2.67982e-01     8.67002e-02
      2542       2544      1   0.172230  -0.282478     2.67982e-01     8.67002e-02
      2542       2548      1   0.172230  -0.282478     2.67982e-01     8.67002e-02
      2541       2544      1   0.172230  -0.282478     2.67982e-01     8.67002e-02
      2541       2548      1   0.172230  -0.282478     2.67982e-01     8.67002e-02
      2540       2545      1  -0.338973   0.143525     2.67982e-01     8.67002e-02
      2540       2546      1  -0.338973   0.143525     2.67982e-01     8.67002e-02
      2540       2547      1  -0.338973   0.143525     2.67982e-01     8.67002e-02
      2540       2549      1  -0.338973   0.143525     2.67982e-01     8.67002e-02
      2540       2550      1  -0.338973   0.143525     2.67982e-01     8.67002e-02
      2540       2551      1  -0.338973   0.143525     2.67982e-01     8.67002e-02
      2538       2540      1   0.136415  -0.282478     2.67982e-01     8.67002e-02
      2538       2544      1   0.136415  -0.282478     2.67982e-01     8.67002e-02
      2538       2548      1   0.136415  -0.282478     2.67982e-01     8.67002e-02
      2537       2540      1   0.136415  -0.282478     2.67982e-01     8.67002e-02
      2537       2544      1   0.136415  -0.282478     2.67982e-01     8.67002e-02
      2537       2548      1   0.136415  -0.282478     2.67982e-01     8.67002e-02
      2536       2541      1  -0.170824   0.143525     2.67982e-01     8.67002e-02
      2536       2542      1  -0.170824   0.143525     2.67982e-01     8.67002e-02
      2536       2543      1  -0.170824   0.143525     2.67982e-01     8.67002e-02
      2536       2545      1  -0.170824   0.143525     2.67982e-01     8.67002e-02
      2536       2546      1  -0.170824   0.143525     2.67982e-01     8.67002e-02
      2536       2547      1  -0.170824   0.143525     2.67982e-01     8.67002e-02
      2536       2549      1  -0.170824   0.143525     2.67982e-01     8.67002e-02
      2536       2550      1  -0.170824   0.143525     2.67982e-01     8.67002e-02
      2536       2551      1  -0.170824   0.143525     2.67982e-01     8.67002e-02
      2535       2537      1   0.078534   0.113679     2.21567e-01     3.28444e-02
      2535       2538      1   0.078534   0.113679     2.21567e-01     3.28444e-02
      2535       2539      1   0.078534   0.204385     2.86068e-01     1.08078e-01
      2534       2537      1   0.078534   0.113679     2.21567e-01     3.28444e-02
      2534       2538      1   0.078534   0.113679     2.21567e-01     3.28444e-02
      2534       2539      1   0.078534   0.204385     2.86068e-01     1.08078e-01
      2532       2537      1  -0.508176   0.113679     2.47999e-01     1.08078e-01
      2532       2538      1  -0.508176   0.113679     2.47999e-01     1.08078e-01
      2531       2534      1   1.339721   0.065445     3.10656e-01     1.17227e-01
      2531       2535      1   1.339721   0.065445     3.10656e-01     1.17227e-01
      2529       2554      1   0.095591  -0.460790     2.73568e-01     1.08078e-01
      2529       2531      1   0.095591   1.116434     3.10656e-01     1.17227e-01
      2528       2554      1   0.095591  -0.460790     2.73568e-01     1.08078e-01
      2528       2531      1   0.095591   1.116434     3.10656e-01     1.17227e-01
      2526       2528      1   0.063253   0.079659     2.47135e-01     3.28444e-02
      2526       2529      1   0.063253   0.079659     2.47135e-01     3.28444e-02
      2526       2530      1   0.063253  -0.424567     2.73568e-01     1.08078e-01
      2526       2555      1   0.063253   0.748011     2.93551e-01     7.68707e-02
      2524       2526      1   0.070469   0.052711     2.47135e-01     3.28444e-02
      2524       2527      1   0.070469   0.014549     2.93551e-01     8.67002e-02
      2524       2554      1   0.070469  -0.460790     2.73568e-01     1.08078e-01
      2523       2526      1   0.070469   0.052711     2.47135e-01     3.28444e-02
      2523       2527      1   0.070469   0.014549     2.93551e-01     8.67002e-02
      2523       2554      1   0.070469  -0.460790     2.73568e-01     1.08078e-01
      2522       2528      1   0.196939   0.079659     2.93551e-01     8.67002e-02
      2522       2529      1   0.196939   0.079659     2.93551e-01     8.67002e-02
      2521       2526      1  -0.575489   0.052711     2.73568e-01     1.08078e-01
      2519       2523      1   0.910403   0.058724     2.93551e-01     7.68707e-02
      2519       2524      1   0.910403   0.058724     2.93551e-01     7.68707e-02
      2593       2596      1   0.018859   0.044953     2.60142e-01     2.09200e-02
      2593       2595      1   0.018859   0.044953     2.60142e-01     2.09200e-02
      2592       2596      1   0.018859   0.044953     2.60142e-01     2.09200e-02
      2592       2595      1   0.018859   0.044953     2.60142e-01     2.09200e-02
      2590       2594      1   0.020431  -0.136833     3.00055e-01     6.91943e-02
      2590       2593      1   0.020431   0.015716     2.60142e-01     2.09200e-02
      2590       2592      1   0.020431   0.015716     2.60142e-01     2.09200e-02
      2589       2594      1   0.020431  -0.136833     3.00055e-01     6.91943e-02
      2589       2593      1   0.020431   0.015716     2.60142e-01     2.09200e-02
      2589       2592      1   0.020431   0.015716     2.60142e-01     2.09200e-02
      2588       2596      1  -0.026954   0.044953     3.00055e-01     6.91943e-02
      2588       2595      1  -0.026954   0.044953     3.00055e-01     6.91943e-02
      2587       2591      1   0.010573  -0.002029     3.00055e-01     6.91943e-02
      2587       2590      1   0.010573   0.017026     2.60142e-01     2.09200e-02
      2587       2589      1   0.010573   0.017026     2.60142e-01     2.09200e-02
      2586       2591      1   0.010573  -0.002029     3.00055e-01     6.91943e-02
      2586       2590      1   0.010573   0.017026     2.60142e-01     2.09200e-02
      2586       2589      1   0.010573   0.017026     2.60142e-01     2.09200e-02
      2585       2593      1  -0.016521   0.015716     3.00055e-01     6.91943e-02
      2585       2592      1  -0.016521   0.015716     3.00055e-01     6.91943e-02
      2584       2588      1   0.011511  -0.022462     3.00055e-01     6.91943e-02
      2584       2586      1   0.011511   0.008811     2.60142e-01     2.09200e-02
      2584       2587      1   0.011511   0.008811     2.60142e-01     2.09200e-02
      2583       2588      1   0.011511  -0.022462     3.00055e-01     6.91943e-02
      2583       2586      1   0.011511   0.008811     2.60142e-01     2.09200e-02
      2583       2587      1   0.011511   0.008811     2.60142e-01     2.09200e-02
      2582       2590      1  -0.027812   0.017026     3.00055e-01     6.91943e-02
      2582       2589      1  -0.027812   0.017026     3.00055e-01     6.91943e-02
      2581       2585      1   0.006833  -0.013767     3.00055e-01     6.91943e-02
      2581       2583      1   0.006833   0.009592     2.60142e-01     2.09200e-02
      2581       2584      1   0.006833   0.009592     2.60142e-01     2.09200e-02
      2580       2585      1   0.006833  -0.013767     3.00055e-01     6.91943e-02
      2580       2583      1   0.006833   0.009592     2.60142e-01     2.09200e-02
      2580       2584      1   0.006833   0.009592     2.60142e-01     2.09200e-02
      2579       2586      1  -0.004386   0.008811     3.00055e-01     6.91943e-02
      2579       2587      1  -0.004386   0.008811     3.00055e-01     6.91943e-02
      2578       2582      1   0.011241  -0.023177     3.00055e-01     6.91943e-02
      2578       2580      1   0.011241   0.005694     2.60142e-01     2.09200e-02
      2578       2581      1   0.011241   0.005694     2.60142e-01     2.09200e-02
      2577       2582      1   0.011241  -0.023177     3.00055e-01     6.91943e-02
      2577       2580      1   0.011241   0.005694     2.60142e-01     2.09200e-02
      2577       2581      1   0.011241   0.005694     2.60142e-01     2.09200e-02
      2576       2583      1  -0.026451   0.009592     3.00055e-01     6.91943e-02
      2576       2584      1  -0.026451   0.009592     3.00055e-01     6.91943e-02
      2575       2579      1   0.010172  -0.003655     3.00055e-01     6.91943e-02
      2575       2578      1   0.010172   0.009367     2.60142e-01     2.09200e-02
      2575       2577      1   0.010172   0.009367     2.60142e-01     2.09200e-02
      2574       2579      1   0.010172  -0.003655     3.00055e-01     6.91943e-02
      2574       2578      1   0.010172   0.009367     2.60142e-01     2.09200e-02
      2574       2577      1   0.010172   0.009367     2.60142e-01     2.09200e-02
      2573       2580      1  -0.014653   0.005694     3.00055e-01     6.91943e-02
      2573       2581      1  -0.014653   0.005694     3.00055e-01     6.91943e-02
      2572       2576      1   0.010037  -0.022042     3.00055e-01     6.91943e-02
      2572       2574      1   0.010037   0.008477     2.60142e-01     2.09200e-02
      2572       2575      1   0.010037   0.008477     2.60142e-01     2.09200e-02
      2571       2576      1   0.010037  -0.022042     3.00055e-01     6.91943e-02
      2571       2574      1   0.010037   0.008477     2.60142e-01     2.09200e-02
      2571       2575      1   0.010037   0.008477     2.60142e-01     2.09200e-02
      2570       2578      1  -0.021025   0.009367     3.00055e-01     6.91943e-02
      2570       2577      1  -0.021025   0.009367     3.00055e-01     6.91943e-02
      2569       2573      1   0.012677  -0.012211     3.00055e-01     6.91943e-02
      2569       2572      1   0.012677   0.008364     2.60142e-01     2.09200e-02
      2569       2571      1   0.012677   0.008364     2.60142e-01     2.09200e-02
      2568       2573      1   0.012677  -0.012211     3.00055e-01     6.91943e-02
      2568       2572      1   0.012677   0.008364     2.60142e-01     2.09200e-02
      2568       2571      1   0.012677   0.008364     2.60142e-01     2.09200e-02
      2567       2574      1  -0.031787   0.008477     3.00055e-01     6.91943e-02
      2567       2575      1  -0.031787   0.008477     3.00055e-01     6.91943e-02
      2566       2570      1   0.017208  -0.017521     3.00055e-01     6.91943e-02
      2566       2568      1   0.017208   0.010564     2.60142e-01     2.09200e-02
      2566       2569      1   0.017208   0.010564     2.60142e-01     2.09200e-02
      2565       2570      1   0.017208  -0.017521     3.00055e-01     6.91943e-02
      2565       2568      1   0.017208   0.010564     2.60142e-01     2.09200e-02
      2565       2569      1   0.017208   0.010564     2.60142e-01     2.09200e-02
      2564       2572      1  -0.028094   0.008364     3.00055e-01     6.91943e-02
      2564       2571      1  -0.028094   0.008364     3.00055e-01     6.91943e-02
      2563       2567      1   0.007531  -0.026489     3.00055e-01     6.91943e-02
      2563       2566      1   0.007531   0.014340     2.60142e-01     2.09200e-02
      2563       2565      1   0.007531   0.014340     2.60142e-01     2.09200e-02
      2562       2567      1   0.007531  -0.026489     3.00055e-01     6.91943e-02
      2562       2566      1   0.007531   0.014340     2.60142e-01     2.09200e-02
      2562       2565      1   0.007531   0.014340     2.60142e-01     2.09200e-02
      2561       2568      1   0.017463   0.010564     3.00055e-01     6.91943e-02
      2561       2569      1   0.017463   0.010564     3.00055e-01     6.91943e-02
      2560       2564      1   0.025511  -0.023412     3.00055e-01     6.91943e-02
      2560       2562      1   0.025511   0.006276     2.60142e-01     2.09200e-02
      2560       2563      1   0.025511   0.006276     2.60142e-01     2.09200e-02
      2559       2564      1   0.025511  -0.023412     3.00055e-01     6.91943e-02
      2559       2562      1   0.025511   0.006276     2.60142e-01     2.09200e-02
      2559       2563      1   0.025511   0.006276     2.60142e-01     2.09200e-02
      2558       2566      1  -0.111712   0.014340     3.00055e-01     6.91943e-02
      2558       2565      1  -0.111712   0.014340     3.00055e-01     6.91943e-02
      2557       2564      1   0.025511  -0.023412     3.00055e-01     6.91943e-02
      2557       2562      1   0.025511   0.006276     2.60142e-01     2.09200e-02
      2557       2563      1   0.025511   0.006276     2.60142e-01     2.09200e-02
      2636       2638      1   0.053944  -0.559638     2.78067e-01     9.58675e-02
      2636       2639      1   0.053944  -0.479574     2.80072e-01     8.62554e-02
      2635       2638      1   0.053944  -0.559638     2.78067e-01     9.58675e-02
      2635       2639      1   0.053944  -0.479574     2.80072e-01     8.62554e-02
      2633       2636      1   0.018859   0.044953     2.60142e-01     2.09200e-02
      2633       2635      1   0.018859   0.044953     2.60142e-01     2.09200e-02
      2633       2637      1   0.018859   0.758669     3.00055e-01     6.13495e-02
      2632       2636      1   0.018859   0.044953     2.60142e-01     2.09200e-02
      2632       2635      1   0.018859   0.044953     2.60142e-01     2.09200e-02
      2632       2637      1   0.018859   0.758669     3.00055e-01     6.13495e-02
      2630       2634      1   0.020431  -0.136833     3.00055e-01     6.91943e-02
      2630       2633      1   0.020431   0.015716     2.60142e-01     2.09200e-02
      2630       2632      1   0.020431   0.015716     2.60142e-01     2.09200e-02
      2629       2634      1   0.020431  -0.136833     3.00055e-01     6.91943e-02
      2629       2633      1   0.020431   0.015716     2.60142e-01     2.09200e-02
      2629       2632      1   0.020431   0.015716     2.60142e-01     2.09200e-02
      2628       2636      1  -0.026954   0.044953     3.00055e-01     6.91943e-02
      2628       2635      1  -0.026954   0.044953     3.00055e-01     6.91943e-02
      2627       2631      1   0.010573  -0.002029     3.00055e-01     6.91943e-02
      2627       2630      1   0.010573   0.017026     2.60142e-01     2.09200e-02
      2627       2629      1   0.010573   0.017026     2.60142e-01     2.09200e-02
      2626       2631      1   0.010573  -0.002029     3.00055e-01     6.91943e-02
      2626       2630      1   0.010573   0.017026     2.60142e-01     2.09200e-02
      2626       2629      1   0.010573   0.017026     2.60142e-01     2.09200e-02
      2625       2633      1  -0.016521   0.015716     3.00055e-01     6.91943e-02
      2625       2632      1  -0.016521   0.015716     3.00055e-01     6.91943e-02
      2624       2628      1   0.011511  -0.022462     3.00055e-01     6.91943e-02
      2624       2626      1   0.011511   0.008811     2.60142e-01     2.09200e-02
      2624       2627      1   0.011511   0.008811     2.60142e-01     2.09200e-02
      2623       2628      1   0.011511  -0.022462     3.00055e-01     6.91943e-02
      2623       2626      1   0.011511   0.008811     2.60142e-01     2.09200e-02
      2623       2627      1   0.011511   0.008811     2.60142e-01     2.09200e-02
      2622       2630      1  -0.027812   0.017026     3.00055e-01     6.91943e-02
      2622       2629      1  -0.027812   0.017026     3.00055e-01     6.91943e-02
      2621       2625      1   0.006833  -0.013767     3.00055e-01     6.91943e-02
      2621       2623      1   0.006833   0.009592     2.60142e-01     2.09200e-02
      2621       2624      1   0.006833   0.009592     2.60142e-01     2.09200e-02
      2620       2625      1   0.006833  -0.013767     3.00055e-01     6.91943e-02
      2620       2623      1   0.006833   0.009592     2.60142e-01     2.09200e-02
      2620       2624      1   0.006833   0.009592     2.60142e-01     2.09200e-02
      2619       2626      1  -0.004386   0.008811     3.00055e-01     6.91943e-02
      2619       2627      1  -0.004386   0.008811     3.00055e-01     6.91943e-02
      2618       2622      1   0.011241  -0.023177     3.00055e-01     6.91943e-02
      2618       2620      1   0.011241   0.005694     2.60142e-01     2.09200e-02
      2618       2621      1   0.011241   0.005694     2.60142e-01     2.09200e-02
      2617       2622      1   0.011241  -0.023177     3.00055e-01     6.91943e-02
      2617       2620      1   0.011241   0.005694     2.60142e-01     2.09200e-02
      2617       2621      1   0.011241   0.005694     2.60142e-01     2.09200e-02
      2616       2623      1  -0.026451   0.009592     3.00055e-01     6.91943e-02
      2616       2624      1  -0.026451   0.009592     3.00055e-01     6.91943e-02
      2615       2619      1   0.010172  -0.003655     3.00055e-01     6.91943e-02
      2615       2618      1   0.010172   0.009367     2.60142e-01     2.09200e-02
      2615       2617      1   0.010172   0.009367     2.60142e-01     2.09200e-02
      2614       2619      1   0.010172  -0.003655     3.00055e-01     6.91943e-02
      2614       2618      1   0.010172   0.009367     2.60142e-01     2.09200e-02
      2614       2617      1   0.010172   0.009367     2.60142e-01     2.09200e-02
      2613       2620      1  -0.014653   0.005694     3.00055e-01     6.91943e-02
      2613       2621      1  -0.014653   0.005694     3.00055e-01     6.91943e-02
      2612       2616      1   0.010037  -0.022042     3.00055e-01     6.91943e-02
      2612       2614      1   0.010037   0.008477     2.60142e-01     2.09200e-02
      2612       2615      1   0.010037   0.008477     2.60142e-01     2.09200e-02
      2611       2616      1   0.010037  -0.022042     3.00055e-01     6.91943e-02
      2611       2614      1   0.010037   0.008477     2.60142e-01     2.09200e-02
      2611       2615      1   0.010037   0.008477     2.60142e-01     2.09200e-02
      2610       2618      1  -0.021025   0.009367     3.00055e-01     6.91943e-02
      2610       2617      1  -0.021025   0.009367     3.00055e-01     6.91943e-02
      2609       2613      1   0.012677  -0.012211     3.00055e-01     6.91943e-02
      2609       2612      1   0.012677   0.008364     2.60142e-01     2.09200e-02
      2609       2611      1   0.012677   0.008364     2.60142e-01     2.09200e-02
      2608       2613      1   0.012677  -0.012211     3.00055e-01     6.91943e-02
      2608       2612      1   0.012677   0.008364     2.60142e-01     2.09200e-02
      2608       2611      1   0.012677   0.008364     2.60142e-01     2.09200e-02
      2607       2614      1  -0.031787   0.008477     3.00055e-01     6.91943e-02
      2607       2615      1  -0.031787   0.008477     3.00055e-01     6.91943e-02
      2606       2610      1   0.017208  -0.017521     3.00055e-01     6.91943e-02
      2606       2608      1   0.017208   0.010564     2.60142e-01     2.09200e-02
      2606       2609      1   0.017208   0.010564     2.60142e-01     2.09200e-02
      2605       2610      1   0.017208  -0.017521     3.00055e-01     6.91943e-02
      2605       2608      1   0.017208   0.010564     2.60142e-01     2.09200e-02
      2605       2609      1   0.017208   0.010564     2.60142e-01     2.09200e-02
      2604       2612      1  -0.028094   0.008364     3.00055e-01     6.91943e-02
      2604       2611      1  -0.028094   0.008364     3.00055e-01     6.91943e-02
      2603       2607      1   0.007531  -0.026489     3.00055e-01     6.91943e-02
      2603       2606      1   0.007531   0.014340     2.60142e-01     2.09200e-02
      2603       2605      1   0.007531   0.014340     2.60142e-01     2.09200e-02
      2602       2607      1   0.007531  -0.026489     3.00055e-01     6.91943e-02
      2602       2606      1   0.007531   0.014340     2.60142e-01     2.09200e-02
      2602       2605      1   0.007531   0.014340     2.60142e-01     2.09200e-02
      2601       2608      1   0.017463   0.010564     3.00055e-01     6.91943e-02
      2601       2609      1   0.017463   0.010564     3.00055e-01     6.91943e-02
      2600       2604      1   0.025511  -0.023412     3.00055e-01     6.91943e-02
      2600       2602      1   0.025511   0.006276     2.60142e-01     2.09200e-02
      2600       2603      1   0.025511   0.006276     2.60142e-01     2.09200e-02
      2599       2604      1   0.025511  -0.023412     3.00055e-01     6.91943e-02
      2599       2602      1   0.025511   0.006276     2.60142e-01     2.09200e-02
      2599       2603      1   0.025511   0.006276     2.60142e-01     2.09200e-02
      2598       2606      1  -0.111712   0.014340     3.00055e-01     6.91943e-02
      2598       2605      1  -0.111712   0.014340     3.00055e-01     6.91943e-02
      2597       2604      1   0.025511  -0.023412     3.00055e-01     6.91943e-02
      2597       2602      1   0.025511   0.006276     2.60142e-01     2.09200e-02
      2597       2603      1   0.025511   0.006276     2.60142e-01     2.09200e-02
      2674       2714      1  -0.673755   0.044953     2.78067e-01     9.58675e-02
      2674       2713      1  -0.673755   0.044953     2.78067e-01     9.58675e-02
      2673       2711      1   0.897613   0.015716     3.00055e-01     6.13495e-02
      2673       2710      1   0.897613   0.015716     3.00055e-01     6.13495e-02
      2672       2714      1  -0.552948   0.044953     2.80072e-01     8.62554e-02
      2672       2713      1  -0.552948   0.044953     2.80072e-01     8.62554e-02
      2665       2666      1   0.172230  -0.282478     2.67982e-01     8.67002e-02
      2664       2666      1   0.172230  -0.282478     2.67982e-01     8.67002e-02
      2663       2666      1   0.172230  -0.282478     2.67982e-01     8.67002e-02
      2662       2667      1  -0.338973   0.143525     2.67982e-01     8.67002e-02
      2662       2668      1  -0.338973   0.143525     2.67982e-01     8.67002e-02
      2662       2669      1  -0.338973   0.143525     2.67982e-01     8.67002e-02
      2661       2662      1   0.172230  -0.282478     2.67982e-01     8.67002e-02
      2661       2666      1   0.172230  -0.282478     2.67982e-01     8.67002e-02
      2660       2662      1   0.172230  -0.282478     2.67982e-01     8.67002e-02
      2660       2666      1   0.172230  -0.282478     2.67982e-01     8.67002e-02
      2659       2662      1   0.172230  -0.282478     2.67982e-01     8.67002e-02
      2659       2666      1   0.172230  -0.282478     2.67982e-01     8.67002e-02
      2658       2663      1  -0.338973   0.143525     2.67982e-01     8.67002e-02
      2658       2664      1  -0.338973   0.143525     2.67982e-01     8.67002e-02
      2658       2665      1  -0.338973   0.143525     2.67982e-01     8.67002e-02
      2658       2667      1  -0.338973   0.143525     2.67982e-01     8.67002e-02
      2658       2668      1  -0.338973   0.143525     2.67982e-01     8.67002e-02
      2658       2669      1  -0.338973   0.143525     2.67982e-01     8.67002e-02
      2656       2658      1   0.136415  -0.282478     2.67982e-01     8.67002e-02
      2656       2662      1   0.136415  -0.282478     2.67982e-01     8.67002e-02
      2656       2666      1   0.136415  -0.282478     2.67982e-01     8.67002e-02
      2655       2658      1   0.136415  -0.282478     2.67982e-01     8.67002e-02
      2655       2662      1   0.136415  -0.282478     2.67982e-01     8.67002e-02
      2655       2666      1   0.136415  -0.282478     2.67982e-01     8.67002e-02
      2654       2659      1  -0.170824   0.143525     2.67982e-01     8.67002e-02
      2654       2660      1  -0.170824   0.143525     2.67982e-01     8.67002e-02
      2654       2661      1  -0.170824   0.143525     2.67982e-01     8.67002e-02
      2654       2663      1  -0.170824   0.143525     2.67982e-01     8.67002e-02
      2654       2664      1  -0.170824   0.143525     2.67982e-01     8.67002e-02
      2654       2665      1  -0.170824   0.143525     2.67982e-01     8.67002e-02
      2654       2667      1  -0.170824   0.143525     2.67982e-01     8.67002e-02
      2654       2668      1  -0.170824   0.143525     2.67982e-01     8.67002e-02
      2654       2669      1  -0.170824   0.143525     2.67982e-01     8.67002e-02
      2653       2655      1   0.078534   0.113679     2.21567e-01     3.28444e-02
      2653       2656      1   0.078534   0.113679     2.21567e-01     3.28444e-02
      2653       2657      1   0.078534   0.204385     2.86068e-01     1.08078e-01
      2652       2655      1   0.078534   0.113679     2.21567e-01     3.28444e-02
      2652       2656      1   0.078534   0.113679     2.21567e-01     3.28444e-02
      2652       2657      1   0.078534   0.204385     2.86068e-01     1.08078e-01
      2650       2655      1  -0.508176   0.113679     2.47999e-01     1.08078e-01
      2650       2656      1  -0.508176   0.113679     2.47999e-01     1.08078e-01
      2649       2652      1   1.339721   0.065445     3.10656e-01     1.17227e-01
      2649       2653      1   1.339721   0.065445     3.10656e-01     1.17227e-01
      2647       2672      1   0.095591  -0.460790     2.73568e-01     1.08078e-01
      2647       2649      1   0.095591   1.116434     3.10656e-01     1.17227e-01
      2646       2672      1   0.095591  -0.460790     2.73568e-01     1.08078e-01
      2646       2649      1   0.095591   1.116434     3.10656e-01     1.17227e-01
      2644       2646      1   0.063253   0.079659     2.47135e-01     3.28444e-02
      2644       2647      1   0.063253   0.079659     2.47135e-01     3.28444e-02
      2644       2648      1   0.063253  -0.424567     2.73568e-01     1.08078e-01
      2644       2673      1   0.063253   0.748011     2.93551e-01     7.68707e-02
      2642       2644      1   0.070469   0.052711     2.47135e-01     3.28444e-02
      2642       2645      1   0.070469   0.014549     2.93551e-01     8.67002e-02
      2642       2672      1   0.070469  -0.460790     2.73568e-01     1.08078e-01
      2641       2644      1   0.070469   0.052711     2.47135e-01     3.28444e-02
      2641       2645      1   0.070469   0.014549     2.93551e-01     8.67002e-02
      2641       2672      1   0.070469  -0.460790     2.73568e-01     1.08078e-01
      2640       2646      1   0.196939   0.079659     2.93551e-01     8.67002e-02
      2640       2647      1   0.196939   0.079659     2.93551e-01     8.67002e-02
      2639       2644      1  -0.575489   0.052711     2.73568e-01     1.08078e-01
      2637       2641      1   0.910403   0.058724     2.93551e-01     7.68707e-02
      2637       2642      1   0.910403   0.058724     2.93551e-01     7.68707e-02
      2711       2714      1   0.018859   0.044953     2.60142e-01     2.09200e-02
      2711       2713      1   0.018859   0.044953     2.60142e-01     2.09200e-02
      2710       2714      1   0.018859   0.044953     2.60142e-01     2.09200e-02
      2710       2713      1   0.018859   0.044953     2.60142e-01     2.09200e-02
      2708       2712      1   0.020431  -0.136833     3.00055e-01     6.91943e-02
      2708       2711      1   0.020431   0.015716     2.60142e-01     2.09200e-02
      2708       2710      1   0.020431   0.015716     2.60142e-01     2.09200e-02
      2707       2712      1   0.020431  -0.136833     3.00055e-01     6.91943e-02
      2707       2711      1   0.020431   0.015716     2.60142e-01     2.09200e-02
      2707       2710      1   0.020431   0.015716     2.60142e-01     2.09200e-02
      2706       2714      1  -0.026954   0.044953     3.00055e-01     6.91943e-02
      2706       2713      1  -0.026954   0.044953     3.00055e-01     6.91943e-02
      2705       2709      1   0.010573  -0.002029     3.00055e-01     6.91943e-02
      2705       2708      1   0.010573   0.017026     2.60142e-01     2.09200e-02
      2705       2707      1   0.010573   0.017026     2.60142e-01     2.09200e-02
      2704       2709      1   0.010573  -0.002029     3.00055e-01     6.91943e-02
      2704       2708      1   0.010573   0.017026     2.60142e-01     2.09200e-02
      2704       2707      1   0.010573   0.017026     2.60142e-01     2.09200e-02
      2703       2711      1  -0.016521   0.015716     3.00055e-01     6.91943e-02
      2703       2710      1  -0.016521   0.015716     3.00055e-01     6.91943e-02
      2702       2706      1   0.011511  -0.022462     3.00055e-01     6.91943e-02
      2702       2704      1   0.011511   0.008811     2.60142e-01     2.09200e-02
      2702       2705      1   0.011511   0.008811     2.60142e-01     2.09200e-02
      2701       2706      1   0.011511  -0.022462     3.00055e-01     6.91943e-02
      2701       2704      1   0.011511   0.008811     2.60142e-01     2.09200e-02
      2701       2705      1   0.011511   0.008811     2.60142e-01     2.09200e-02
      2700       2708      1  -0.027812   0.017026     3.00055e-01     6.91943e-02
      2700       2707      1  -0.027812   0.017026     3.00055e-01     6.91943e-02
      2699       2703      1   0.006833  -0.013767     3.00055e-01     6.91943e-02
      2699       2701      1   0.006833   0.009592     2.60142e-01     2.09200e-02
      2699       2702      1   0.006833   0.009592     2.60142e-01     2.09200e-02
      2698       2703      1   0.006833  -0.013767     3.00055e-01     6.91943e-02
      2698       2701      1   0.006833   0.009592     2.60142e-01     2.09200e-02
      2698       2702      1   0.006833   0.009592     2.60142e-01     2.09200e-02
      2697       2704      1  -0.004386   0.008811     3.00055e-01     6.91943e-02
      2697       2705      1  -0.004386   0.008811     3.00055e-01     6.91943e-02
      2696       2700      1   0.011241  -0.023177     3.00055e-01     6.91943e-02
      2696       2698      1   0.011241   0.005694     2.60142e-01     2.09200e-02
      2696       2699      1   0.011241   0.005694     2.60142e-01     2.09200e-02
      2695       2700      1   0.011241  -0.023177     3.00055e-01     6.91943e-02
      2695       2698      1   0.011241   0.005694     2.60142e-01     2.09200e-02
      2695       2699      1   0.011241   0.005694     2.60142e-01     2.09200e-02
      2694       2701      1  -0.026451   0.009592     3.00055e-01     6.91943e-02
      2694       2702      1  -0.026451   0.009592     3.00055e-01     6.91943e-02
      2693       2697      1   0.010172  -0.003655     3.00055e-01     6.91943e-02
      2693       2696      1   0.010172   0.009367     2.60142e-01     2.09200e-02
      2693       2695      1   0.010172   0.009367     2.60142e-01     2.09200e-02
      2692       2697      1   0.010172  -0.003655     3.00055e-01     6.91943e-02
      2692       2696      1   0.010172   0.009367     2.60142e-01     2.09200e-02
      2692       2695      1   0.010172   0.009367     2.60142e-01     2.09200e-02
      2691       2698      1  -0.014653   0.005694     3.00055e-01     6.91943e-02
      2691       2699      1  -0.014653   0.005694     3.00055e-01     6.91943e-02
      2690       2694      1   0.010037  -0.022042     3.00055e-01     6.91943e-02
      2690       2692      1   0.010037   0.008477     2.60142e-01     2.09200e-02
      2690       2693      1   0.010037   0.008477     2.60142e-01     2.09200e-02
      2689       2694      1   0.010037  -0.022042     3.00055e-01     6.91943e-02
      2689       2692      1   0.010037   0.008477     2.60142e-01     2.09200e-02
      2689       2693      1   0.010037   0.008477     2.60142e-01     2.09200e-02
      2688       2696      1  -0.021025   0.009367     3.00055e-01     6.91943e-02
      2688       2695      1  -0.021025   0.009367     3.00055e-01     6.91943e-02
      2687       2691      1   0.012677  -0.012211     3.00055e-01     6.91943e-02
      2687       2690      1   0.012677   0.008364     2.60142e-01     2.09200e-02
      2687       2689      1   0.012677   0.008364     2.60142e-01     2.09200e-02
      2686       2691      1   0.012677  -0.012211     3.00055e-01     6.91943e-02
      2686       2690      1   0.012677   0.008364     2.60142e-01     2.09200e-02
      2686       2689      1   0.012677   0.008364     2.60142e-01     2.09200e-02
      2685       2692      1  -0.031787   0.008477     3.00055e-01     6.91943e-02
      2685       2693      1  -0.031787   0.008477     3.00055e-01     6.91943e-02
      2684       2688      1   0.017208  -0.017521     3.00055e-01     6.91943e-02
      2684       2686      1   0.017208   0.010564     2.60142e-01     2.09200e-02
      2684       2687      1   0.017208   0.010564     2.60142e-01     2.09200e-02
      2683       2688      1   0.017208  -0.017521     3.00055e-01     6.91943e-02
      2683       2686      1   0.017208   0.010564     2.60142e-01     2.09200e-02
      2683       2687      1   0.017208   0.010564     2.60142e-01     2.09200e-02
      2682       2690      1  -0.028094   0.008364     3.00055e-01     6.91943e-02
      2682       2689      1  -0.028094   0.008364     3.00055e-01     6.91943e-02
      2681       2685      1   0.007531  -0.026489     3.00055e-01     6.91943e-02
      2681       2684      1   0.007531   0.014340     2.60142e-01     2.09200e-02
      2681       2683      1   0.007531   0.014340     2.60142e-01     2.09200e-02
      2680       2685      1   0.007531  -0.026489     3.00055e-01     6.91943e-02
      2680       2684      1   0.007531   0.014340     2.60142e-01     2.09200e-02
      2680       2683      1   0.007531   0.014340     2.60142e-01     2.09200e-02
      2679       2686      1   0.017463   0.010564     3.00055e-01     6.91943e-02
      2679       2687      1   0.017463   0.010564     3.00055e-01     6.91943e-02
      2678       2682      1   0.025511  -0.023412     3.00055e-01     6.91943e-02
      2678       2680      1   0.025511   0.006276     2.60142e-01     2.09200e-02
      2678       2681      1   0.025511   0.006276     2.60142e-01     2.09200e-02
      2677       2682      1   0.025511  -0.023412     3.00055e-01     6.91943e-02
      2677       2680      1   0.025511   0.006276     2.60142e-01     2.09200e-02
      2677       2681      1   0.025511   0.006276     2.60142e-01     2.09200e-02
      2676       2684      1  -0.111712   0.014340     3.00055e-01     6.91943e-02
      2676       2683      1  -0.111712   0.014340     3.00055e-01     6.91943e-02
      2675       2682      1   0.025511  -0.023412     3.00055e-01     6.91943e-02
      2675       2680      1   0.025511   0.006276     2.60142e-01     2.09200e-02
      2675       2681      1   0.025511   0.006276     2.60142e-01     2.09200e-02
      2754       2756      1   0.053944  -0.559638     2.78067e-01     9.58675e-02
      2754       2757      1   0.053944  -0.479574     2.80072e-01     8.62554e-02
      2753       2756      1   0.053944  -0.559638     2.78067e-01     9.58675e-02
      2753       2757      1   0.053944  -0.479574     2.80072e-01     8.62554e-02
      2751       2754      1   0.018859   0.044953     2.60142e-01     2.09200e-02
      2751       2753      1   0.018859   0.044953     2.60142e-01     2.09200e-02
      2751       2755      1   0.018859   0.758669     3.00055e-01     6.13495e-02
      2750       2754      1   0.018859   0.044953     2.60142e-01     2.09200e-02
      2750       2753      1   0.018859   0.044953     2.60142e-01     2.09200e-02
      2750       2755      1   0.018859   0.758669     3.00055e-01     6.13495e-02
      2748       2752      1   0.020431  -0.136833     3.00055e-01     6.91943e-02
      2748       2751      1   0.020431   0.015716     2.60142e-01     2.09200e-02
      2748       2750      1   0.020431   0.015716     2.60142e-01     2.09200e-02
      2747       2752      1   0.020431  -0.136833     3.00055e-01     6.91943e-02
      2747       2751      1   0.020431   0.015716     2.60142e-01     2.09200e-02
      2747       2750      1   0.020431   0.015716     2.60142e-01     2.09200e-02
      2746       2754      1  -0.026954   0.044953     3.00055e-01     6.91943e-02
      2746       2753      1  -0.026954   0.044953     3.00055e-01     6.91943e-02
      2745       2749      1   0.010573  -0.002029     3.00055e-01     6.91943e-02
      2745       2748      1   0.010573   0.017026     2.60142e-01     2.09200e-02
      2745       2747      1   0.010573   0.017026     2.60142e-01     2.09200e-02
      2744       2749      1   0.010573  -0.002029     3.00055e-01     6.91943e-02
      2744       2748      1   0.010573   0.017026     2.60142e-01     2.09200e-02
      2744       2747      1   0.010573   0.017026     2.60142e-01     2.09200e-02
      2743       2751      1  -0.016521   0.015716     3.00055e-01     6.91943e-02
      2743       2750      1  -0.016521   0.015716     3.00055e-01     6.91943e-02
      2742       2746      1   0.011511  -0.022462     3.00055e-01     6.91943e-02
      2742       2744      1   0.011511   0.008811     2.60142e-01     2.09200e-02
      2742       2745      1   0.011511   0.008811     2.60142e-01     2.09200e-02
      2741       2746      1   0.011511  -0.022462     3.00055e-01     6.91943e-02
      2741       2744      1   0.011511   0.008811     2.60142e-01     2.09200e-02
      2741       2745      1   0.011511   0.008811     2.60142e-01     2.09200e-02
      2740       2748      1  -0.027812   0.017026     3.00055e-01     6.91943e-02
      2740       2747      1  -0.027812   0.017026     3.00055e-01     6.91943e-02
      2739       2743      1   0.006833  -0.013767     3.00055e-01     6.91943e-02
      2739       2741      1   0.006833   0.009592     2.60142e-01     2.09200e-02
      2739       2742      1   0.006833   0.009592     2.60142e-01     2.09200e-02
      2738       2743      1   0.006833  -0.013767     3.00055e-01     6.91943e-02
      2738       2741      1   0.006833   0.009592     2.60142e-01     2.09200e-02
      2738       2742      1   0.006833   0.009592     2.60142e-01     2.09200e-02
      2737       2744      1  -0.004386   0.008811     3.00055e-01     6.91943e-02
      2737       2745      1  -0.004386   0.008811     3.00055e-01     6.91943e-02
      2736       2740      1   0.011241  -0.023177     3.00055e-01     6.91943e-02
      2736       2738      1   0.011241   0.005694     2.60142e-01     2.09200e-02
      2736       2739      1   0.011241   0.005694     2.60142e-01     2.09200e-02
      2735       2740      1   0.011241  -0.023177     3.00055e-01     6.91943e-02
      2735       2738      1   0.011241   0.005694     2.60142e-01     2.09200e-02
      2735       2739      1   0.011241   0.005694     2.60142e-01     2.09200e-02
      2734       2741      1  -0.026451   0.009592     3.00055e-01     6.91943e-02
      2734       2742      1  -0.026451   0.009592     3.00055e-01     6.91943e-02
      2733       2737      1   0.010172  -0.003655     3.00055e-01     6.91943e-02
      2733       2736      1   0.010172   0.009367     2.60142e-01     2.09200e-02
      2733       2735      1   0.010172   0.009367     2.60142e-01     2.09200e-02
      2732       2737      1   0.010172  -0.003655     3.00055e-01     6.91943e-02
      2732       2736      1   0.010172   0.009367     2.60142e-01     2.09200e-02
      2732       2735      1   0.010172   0.009367     2.60142e-01     2.09200e-02
      2731       2738      1  -0.014653   0.005694     3.00055e-01     6.91943e-02
      2731       2739      1  -0.014653   0.005694     3.00055e-01     6.91943e-02
      2730       2734      1   0.010037  -0.022042     3.00055e-01     6.91943e-02
      2730       2732      1   0.010037   0.008477     2.60142e-01     2.09200e-02
      2730       2733      1   0.010037   0.008477     2.60142e-01     2.09200e-02
      2729       2734      1   0.010037  -0.022042     3.00055e-01     6.91943e-02
      2729       2732      1   0.010037   0.008477     2.60142e-01     2.09200e-02
      2729       2733      1   0.010037   0.008477     2.60142e-01     2.09200e-02
      2728       2736      1  -0.021025   0.009367     3.00055e-01     6.91943e-02
      2728       2735      1  -0.021025   0.009367     3.00055e-01     6.91943e-02
      2727       2731      1   0.012677  -0.012211     3.00055e-01     6.91943e-02
      2727       2730      1   0.012677   0.008364     2.60142e-01     2.09200e-02
      2727       2729      1   0.012677   0.008364     2.60142e-01     2.09200e-02
      2726       2731      1   0.012677  -0.012211     3.00055e-01     6.91943e-02
      2726       2730      1   0.012677   0.008364     2.60142e-01     2.09200e-02
      2726       2729      1   0.012677   0.008364     2.60142e-01     2.09200e-02
      2725       2732      1  -0.031787   0.008477     3.00055e-01     6.91943e-02
      2725       2733      1  -0.031787   0.008477     3.00055e-01     6.91943e-02
      2724       2728      1   0.017208  -0.017521     3.00055e-01     6.91943e-02
      2724       2726      1   0.017208   0.010564     2.60142e-01     2.09200e-02
      2724       2727      1   0.017208   0.010564     2.60142e-01     2.09200e-02
      2723       2728      1   0.017208  -0.017521     3.00055e-01     6.91943e-02
      2723       2726      1   0.017208   0.010564     2.60142e-01     2.09200e-02
      2723       2727      1   0.017208   0.010564     2.60142e-01     2.09200e-02
      2722       2730      1  -0.028094   0.008364     3.00055e-01     6.91943e-02
      2722       2729      1  -0.028094   0.008364     3.00055e-01     6.91943e-02
      2721       2725      1   0.007531  -0.026489     3.00055e-01     6.91943e-02
      2721       2724      1   0.007531   0.014340     2.60142e-01     2.09200e-02
      2721       2723      1   0.007531   0.014340     2.60142e-01     2.09200e-02
      2720       2725      1   0.007531  -0.026489     3.00055e-01     6.91943e-02
      2720       2724      1   0.007531   0.014340     2.60142e-01     2.09200e-02
      2720       2723      1   0.007531   0.014340     2.60142e-01     2.09200e-02
      2719       2726      1   0.017463   0.010564     3.00055e-01     6.91943e-02
      2719       2727      1   0.017463   0.010564     3.00055e-01     6.91943e-02
      2718       2722      1   0.025511  -0.023412     3.00055e-01     6.91943e-02
      2718       2720      1   0.025511   0.006276     2.60142e-01     2.09200e-02
      2718       2721      1   0.025511   0.006276     2.60142e-01     2.09200e-02
      2717       2722      1   0.025511  -0.023412     3.00055e-01     6.91943e-02
      2717       2720      1   0.025511   0.006276     2.60142e-01     2.09200e-02
      2717       2721      1   0.025511   0.006276     2.60142e-01     2.09200e-02
      2716       2724      1  -0.111712   0.014340     3.00055e-01     6.91943e-02
      2716       2723      1  -0.111712   0.014340     3.00055e-01     6.91943e-02
      2715       2722      1   0.025511  -0.023412     3.00055e-01     6.91943e-02
      2715       2720      1   0.025511   0.006276     2.60142e-01     2.09200e-02
      2715       2721      1   0.025511   0.006276     2.60142e-01     2.09200e-02
      2792       2832      1  -0.673755   0.044953     2.78067e-01     9.58675e-02
      2792       2831      1  -0.673755   0.044953     2.78067e-01     9.58675e-02
      2791       2829      1   0.897613   0.015716     3.00055e-01     6.13495e-02
      2791       2828      1   0.897613   0.015716     3.00055e-01     6.13495e-02
      2790       2832      1  -0.552948   0.044953     2.80072e-01     8.62554e-02
      2790       2831      1  -0.552948   0.044953     2.80072e-01     8.62554e-02
      2783       2784      1   0.172230  -0.282478     2.67982e-01     8.67002e-02
      2782       2784      1   0.172230  -0.282478     2.67982e-01     8.67002e-02
      2781       2784      1   0.172230  -0.282478     2.67982e-01     8.67002e-02
      2780       2785      1  -0.338973   0.143525     2.67982e-01     8.67002e-02
      2780       2786      1  -0.338973   0.143525     2.67982e-01     8.67002e-02
      2780       2787      1  -0.338973   0.143525     2.67982e-01     8.67002e-02
      2779       2780      1   0.172230  -0.282478     2.67982e-01     8.67002e-02
      2779       2784      1   0.172230  -0.282478     2.67982e-01     8.67002e-02
      2778       2780      1   0.172230  -0.282478     2.67982e-01     8.67002e-02
      2778       2784      1   0.172230  -0.282478     2.67982e-01     8.67002e-02
      2777       2780      1   0.172230  -0.282478     2.67982e-01     8.67002e-02
      2777       2784      1   0.172230  -0.282478     2.67982e-01     8.67002e-02
      2776       2781      1  -0.338973   0.143525     2.67982e-01     8.67002e-02
      2776       2782      1  -0.338973   0.143525     2.67982e-01     8.67002e-02
      2776       2783      1  -0.338973   0.143525     2.67982e-01     8.67002e-02
      2776       2785      1  -0.338973   0.143525     2.67982e-01     8.67002e-02
      2776       2786      1  -0.338973   0.143525     2.67982e-01     8.67002e-02
      2776       2787      1  -0.338973   0.143525     2.67982e-01     8.67002e-02
      2774       2776      1   0.136415  -0.282478     2.67982e-01     8.67002e-02
      2774       2780      1   0.136415  -0.282478     2.67982e-01     8.67002e-02
      2774       2784      1   0.136415  -0.282478     2.67982e-01     8.67002e-02
      2773       2776      1   0.136415  -0.282478     2.67982e-01     8.67002e-02
      2773       2780      1   0.136415  -0.282478     2.67982e-01     8.67002e-02
      2773       2784      1   0.136415  -0.282478     2.67982e-01     8.67002e-02
      2772       2777      1  -0.170824   0.143525     2.67982e-01     8.67002e-02
      2772       2778      1  -0.170824   0.143525     2.67982e-01     8.67002e-02
      2772       2779      1  -0.170824   0.143525     2.67982e-01     8.67002e-02
      2772       2781      1  -0.170824   0.143525     2.67982e-01     8.67002e-02
      2772       2782      1  -0.170824   0.143525     2.67982e-01     8.67002e-02
      2772       2783      1  -0.170824   0.143525     2.67982e-01     8.67002e-02
      2772       2785      1  -0.170824   0.143525     2.67982e-01     8.67002e-02
      2772       2786      1  -0.170824   0.143525     2.67982e-01     8.67002e-02
      2772       2787      1  -0.170824   0.143525     2.67982e-01     8.67002e-02
      2771       2773      1   0.078534   0.113679     2.21567e-01     3.28444e-02
      2771       2774      1   0.078534   0.113679     2.21567e-01     3.28444e-02
      2771       2775      1   0.078534   0.204385     2.86068e-01     1.08078e-01
      2770       2773      1   0.078534   0.113679     2.21567e-01     3.28444e-02
      2770       2774      1   0.078534   0.113679     2.21567e-01     3.28444e-02
      2770       2775      1   0.078534   0.204385     2.86068e-01     1.08078e-01
      2768       2773      1  -0.508176   0.113679     2.47999e-01     1.08078e-01
      2768       2774      1  -0.508176   0.113679     2.47999e-01     1.08078e-01
      2767       2770      1   1.339721   0.065445     3.10656e-01     1.17227e-01
      2767       2771      1   1.339721   0.065445     3.10656e-01     1.17227e-01
      2765       2790      1   0.095591  -0.460790     2.73568e-01     1.08078e-01
      2765       2767      1   0.095591   1.116434     3.10656e-01     1.17227e-01
      2764       2790      1   0.095591  -0.460790     2.73568e-01     1.08078e-01
      2764       2767      1   0.095591   1.116434     3.10656e-01     1.17227e-01
      2762       2764      1   0.063253   0.079659     2.47135e-01     3.28444e-02
      2762       2765      1   0.063253   0.079659     2.47135e-01     3.28444e-02
      2762       2766      1   0.063253  -0.424567     2.73568e-01     1.08078e-01
      2762       2791      1   0.063253   0.748011     2.93551e-01     7.68707e-02
      2760       2762      1   0.070469   0.052711     2.47135e-01     3.28444e-02
      2760       2763      1   0.070469   0.014549     2.93551e-01     8.67002e-02
      2760       2790      1   0.070469  -0.460790     2.73568e-01     1.08078e-01
      2759       2762      1   0.070469   0.052711     2.47135e-01     3.28444e-02
      2759       2763      1   0.070469   0.014549     2.93551e-01     8.67002e-02
      2759       2790      1   0.070469  -0.460790     2.73568e-01     1.08078e-01
      2758       2764      1   0.196939   0.079659     2.93551e-01     8.67002e-02
      2758       2765      1   0.196939   0.079659     2.93551e-01     8.67002e-02
      2757       2762      1  -0.575489   0.052711     2.73568e-01     1.08078e-01
      2755       2759      1   0.910403   0.058724     2.93551e-01     7.68707e-02
      2755       2760      1   0.910403   0.058724     2.93551e-01     7.68707e-02
      2829       2832      1   0.018859   0.044953     2.60142e-01     2.09200e-02
      2829       2831      1   0.018859   0.044953     2.60142e-01     2.09200e-02
      2828       2832      1   0.018859   0.044953     2.60142e-01     2.09200e-02
      2828       2831      1   0.018859   0.044953     2.60142e-01     2.09200e-02
      2826       2830      1   0.020431  -0.136833     3.00055e-01     6.91943e-02
      2826       2829      1   0.020431   0.015716     2.60142e-01     2.09200e-02
      2826       2828      1   0.020431   0.015716     2.60142e-01     2.09200e-02
      2825       2830      1   0.020431  -0.136833     3.00055e-01     6.91943e-02
      2825       2829      1   0.020431   0.015716     2.60142e-01     2.09200e-02
      2825       2828      1   0.020431   0.015716     2.60142e-01     2.09200e-02
      2824       2832      1  -0.026954   0.044953     3.00055e-01     6.91943e-02
      2824       2831      1  -0.026954   0.044953     3.00055e-01     6.91943e-02
      2823       2827      1   0.010573  -0.002029     3.00055e-01     6.91943e-02
      2823       2826      1   0.010573   0.017026     2.60142e-01     2.09200e-02
      2823       2825      1   0.010573   0.017026     2.60142e-01     2.09200e-02
      2822       2827      1   0.010573  -0.002029     3.00055e-01     6.91943e-02
      2822       2826      1   0.010573   0.017026     2.60142e-01     2.09200e-02
      2822       2825      1   0.010573   0.017026     2.60142e-01     2.09200e-02
      2821       2829      1  -0.016521   0.015716     3.00055e-01     6.91943e-02
      2821       2828      1  -0.016521   0.015716     3.00055e-01     6.91943e-02
      2820       2824      1   0.011511  -0.022462     3.00055e-01     6.91943e-02
      2820       2822      1   0.011511   0.008811     2.60142e-01     2.09200e-02
      2820       2823      1   0.011511   0.008811     2.60142e-01     2.09200e-02
      2819       2824      1   0.011511  -0.022462     3.00055e-01     6.91943e-02
      2819       2822      1   0.011511   0.008811     2.60142e-01     2.09200e-02
      2819       2823      1   0.011511   0.008811     2.60142e-01     2.09200e-02
      2818       2826      1  -0.027812   0.017026     3.00055e-01     6.91943e-02
      2818       2825      1  -0.027812   0.017026     3.00055e-01     6.91943e-02
      2817       2821      1   0.006833  -0.013767     3.00055e-01     6.91943e-02
      2817       2819      1   0.006833   0.009592     2.60142e-01     2.09200e-02
      2817       2820      1   0.006833   0.009592     2.60142e-01     2.09200e-02
      2816       2821      1   0.006833  -0.013767     3.00055e-01     6.91943e-02
      2816       2819      1   0.006833   0.009592     2.60142e-01     2.09200e-02
      2816       2820      1   0.006833   0.009592     2.60142e-01     2.09200e-02
      2815       2822      1  -0.004386   0.008811     3.00055e-01     6.91943e-02
      2815       2823      1  -0.004386   0.008811     3.00055e-01     6.91943e-02
      2814       2818      1   0.011241  -0.023177     3.00055e-01     6.91943e-02
      2814       2816      1   0.011241   0.005694     2.60142e-01     2.09200e-02
      2814       2817      1   0.011241   0.005694     2.60142e-01     2.09200e-02
      2813       2818      1   0.011241  -0.023177     3.00055e-01     6.91943e-02
      2813       2816      1   0.011241   0.005694     2.60142e-01     2.09200e-02
      2813       2817      1   0.011241   0.005694     2.60142e-01     2.09200e-02
      2812       2819      1  -0.026451   0.009592     3.00055e-01     6.91943e-02
      2812       2820      1  -0.026451   0.009592     3.00055e-01     6.91943e-02
      2811       2815      1   0.010172  -0.003655     3.00055e-01     6.91943e-02
      2811       2814      1   0.010172   0.009367     2.60142e-01     2.09200e-02
      2811       2813      1   0.010172   0.009367     2.60142e-01     2.09200e-02
      2810       2815      1   0.010172  -0.003655     3.00055e-01     6.91943e-02
      2810       2814      1   0.010172   0.009367     2.60142e-01     2.09200e-02
      2810       2813      1   0.010172   0.009367     2.60142e-01     2.09200e-02
      2809       2816      1  -0.014653   0.005694     3.00055e-01     6.91943e-02
      2809       2817      1  -0.014653   0.005694     3.00055e-01     6.91943e-02
      2808       2812      1   0.010037  -0.022042     3.00055e-01     6.91943e-02
      2808       2810      1   0.010037   0.008477     2.60142e-01     2.09200e-02
      2808       2811      1   0.010037   0.008477     2.60142e-01     2.09200e-02
      2807       2812      1   0.010037  -0.022042     3.00055e-01     6.91943e-02
      2807       2810      1   0.010037   0.008477     2.60142e-01     2.09200e-02
      2807       2811      1   0.010037   0.008477     2.60142e-01     2.09200e-02
      2806       2814      1  -0.021025   0.009367     3.00055e-01     6.91943e-02
      2806       2813      1  -0.021025   0.009367     3.00055e-01     6.91943e-02
      2805       2809      1   0.012677  -0.012211     3.00055e-01     6.91943e-02
      2805       2808      1   0.012677   0.008364     2.60142e-01     2.09200e-02
      2805       2807      1   0.012677   0.008364     2.60142e-01     2.09200e-02
      2804       2809      1   0.012677  -0.012211     3.00055e-01     6.91943e-02
      2804       2808      1   0.012677   0.008364     2.60142e-01     2.09200e-02
      2804       2807      1   0.012677   0.008364     2.60142e-01     2.09200e-02
      2803       2810      1  -0.031787   0.008477     3.00055e-01     6.91943e-02
      2803       2811      1  -0.031787   0.008477     3.00055e-01     6.91943e-02
      2802       2806      1   0.017208  -0.017521     3.00055e-01     6.91943e-02
      2802       2804      1   0.017208   0.010564     2.60142e-01     2.09200e-02
      2802       2805      1   0.017208   0.010564     2.60142e-01     2.09200e-02
      2801       2806      1   0.017208  -0.017521     3.00055e-01     6.91943e-02
      2801       2804      1   0.017208   0.010564     2.60142e-01     2.09200e-02
      2801       2805      1   0.017208   0.010564     2.60142e-01     2.09200e-02
      2800       2808      1  -0.028094   0.008364     3.00055e-01     6.91943e-02
      2800       2807      1  -0.028094   0.008364     3.00055e-01     6.91943e-02
      2799       2803      1   0.007531  -0.026489     3.00055e-01     6.91943e-02
      2799       2802      1   0.007531   0.014340     2.60142e-01     2.09200e-02
      2799       2801      1   0.007531   0.014340     2.60142e-01     2.09200e-02
      2798       2803      1   0.007531  -0.026489     3.00055e-01     6.91943e-02
      2798       2802      1   0.007531   0.014340     2.60142e-01     2.09200e-02
      2798       2801      1   0.007531   0.014340     2.60142e-01     2.09200e-02
      2797       2804      1   0.017463   0.010564     3.00055e-01     6.91943e-02
      2797       2805      1   0.017463   0.010564     3.00055e-01     6.91943e-02
      2796       2800      1   0.025511  -0.023412     3.00055e-01     6.91943e-02
      2796       2798      1   0.025511   0.006276     2.60142e-01     2.09200e-02
      2796       2799      1   0.025511   0.006276     2.60142e-01     2.09200e-02
      2795       2800      1   0.025511  -0.023412     3.00055e-01     6.91943e-02
      2795       2798      1   0.025511   0.006276     2.60142e-01     2.09200e-02
      2795       2799      1   0.025511   0.006276     2.60142e-01     2.09200e-02
      2794       2802      1  -0.111712   0.014340     3.00055e-01     6.91943e-02
      2794       2801      1  -0.111712   0.014340     3.00055e-01     6.91943e-02
      2793       2800      1   0.025511  -0.023412     3.00055e-01     6.91943e-02
      2793       2798      1   0.025511   0.006276     2.60142e-01     2.09200e-02
      2793       2799      1   0.025511   0.006276     2.60142e-01     2.09200e-02
      2872       2874      1   0.053944  -0.559638     2.78067e-01     9.58675e-02
      2872       2875      1   0.053944  -0.479574     2.80072e-01     8.62554e-02
      2871       2874      1   0.053944  -0.559638     2.78067e-01     9.58675e-02
      2871       2875      1   0.053944  -0.479574     2.80072e-01     8.62554e-02
      2869       2872      1   0.018859   0.044953     2.60142e-01     2.09200e-02
      2869       2871      1   0.018859   0.044953     2.60142e-01     2.09200e-02
      2869       2873      1   0.018859   0.758669     3.00055e-01     6.13495e-02
      2868       2872      1   0.018859   0.044953     2.60142e-01     2.09200e-02
      2868       2871      1   0.018859   0.044953     2.60142e-01     2.09200e-02
      2868       2873      1   0.018859   0.758669     3.00055e-01     6.13495e-02
      2866       2870      1   0.020431  -0.136833     3.00055e-01     6.91943e-02
      2866       2869      1   0.020431   0.015716     2.60142e-01     2.09200e-02
      2866       2868      1   0.020431   0.015716     2.60142e-01     2.09200e-02
      2865       2870      1   0.020431  -0.136833     3.00055e-01     6.91943e-02
      2865       2869      1   0.020431   0.015716     2.60142e-01     2.09200e-02
      2865       2868      1   0.020431   0.015716     2.60142e-01     2.09200e-02
      2864       2872      1  -0.026954   0.044953     3.00055e-01     6.91943e-02
      2864       2871      1  -0.026954   0.044953     3.00055e-01     6.91943e-02
      2863       2867      1   0.010573  -0.002029     3.00055e-01     6.91943e-02
      2863       2866      1   0.010573   0.017026     2.60142e-01     2.09200e-02
      2863       2865      1   0.010573   0.017026     2.60142e-01     2.09200e-02
      2862       2867      1   0.010573  -0.002029     3.00055e-01     6.91943e-02
      2862       2866      1   0.010573   0.017026     2.60142e-01     2.09200e-02
      2862       2865      1   0.010573   0.017026     2.60142e-01     2.09200e-02
      2861       2869      1  -0.016521   0.015716     3.00055e-01     6.91943e-02
      2861       2868      1  -0.016521   0.015716     3.00055e-01     6.91943e-02
      2860       2864      1   0.011511  -0.022462     3.00055e-01     6.91943e-02
      2860       2862      1   0.011511   0.008811     2.60142e-01     2.09200e-02
      2860       2863      1   0.011511   0.008811     2.60142e-01     2.09200e-02
      2859       2864      1   0.011511  -0.022462     3.00055e-01     6.91943e-02
      2859       2862      1   0.011511   0.008811     2.60142e-01     2.09200e-02
      2859       2863      1   0.011511   0.008811     2.60142e-01     2.09200e-02
      2858       2866      1  -0.027812   0.017026     3.00055e-01     6.91943e-02
      2858       2865      1  -0.027812   0.017026     3.00055e-01     6.91943e-02
      2857       2861      1   0.006833  -0.013767     3.00055e-01     6.91943e-02
      2857       2859      1   0.006833   0.009592     2.60142e-01     2.09200e-02
      2857       2860      1   0.006833   0.009592     2.60142e-01     2.09200e-02
      2856       2861      1   0.006833  -0.013767     3.00055e-01     6.91943e-02
      2856       2859      1   0.006833   0.009592     2.60142e-01     2.09200e-02
      2856       2860      1   0.006833   0.009592     2.60142e-01     2.09200e-02
      2855       2862      1  -0.004386   0.008811     3.00055e-01     6.91943e-02
      2855       2863      1  -0.004386   0.008811     3.00055e-01     6.91943e-02
      2854       2858      1   0.011241  -0.023177     3.00055e-01     6.91943e-02
      2854       2856      1   0.011241   0.005694     2.60142e-01     2.09200e-02
      2854       2857      1   0.011241   0.005694     2.60142e-01     2.09200e-02
      2853       2858      1   0.011241  -0.023177     3.00055e-01     6.91943e-02
      2853       2856      1   0.011241   0.005694     2.60142e-01     2.09200e-02
      2853       2857      1   0.011241   0.005694     2.60142e-01     2.09200e-02
      2852       2859      1  -0.026451   0.009592     3.00055e-01     6.91943e-02
      2852       2860      1  -0.026451   0.009592     3.00055e-01     6.91943e-02
      2851       2855      1   0.010172  -0.003655     3.00055e-01     6.91943e-02
      2851       2854      1   0.010172   0.009367     2.60142e-01     2.09200e-02
      2851       2853      1   0.010172   0.009367     2.60142e-01     2.09200e-02
      2850       2855      1   0.010172  -0.003655     3.00055e-01     6.91943e-02
      2850       2854      1   0.010172   0.009367     2.60142e-01     2.09200e-02
      2850       2853      1   0.010172   0.009367     2.60142e-01     2.09200e-02
      2849       2856      1  -0.014653   0.005694     3.00055e-01     6.91943e-02
      2849       2857      1  -0.014653   0.005694     3.00055e-01     6.91943e-02
      2848       2852      1   0.010037  -0.022042     3.00055e-01     6.91943e-02
      2848       2850      1   0.010037   0.008477     2.60142e-01     2.09200e-02
      2848       2851      1   0.010037   0.008477     2.60142e-01     2.09200e-02
      2847       2852      1   0.010037  -0.022042     3.00055e-01     6.91943e-02
      2847       2850      1   0.010037   0.008477     2.60142e-01     2.09200e-02
      2847       2851      1   0.010037   0.008477     2.60142e-01     2.09200e-02
      2846       2854      1  -0.021025   0.009367     3.00055e-01     6.91943e-02
      2846       2853      1  -0.021025   0.009367     3.00055e-01     6.91943e-02
      2845       2849      1   0.012677  -0.012211     3.00055e-01     6.91943e-02
      2845       2848      1   0.012677   0.008364     2.60142e-01     2.09200e-02
      2845       2847      1   0.012677   0.008364     2.60142e-01     2.09200e-02
      2844       2849      1   0.012677  -0.012211     3.00055e-01     6.91943e-02
      2844       2848      1   0.012677   0.008364     2.60142e-01     2.09200e-02
      2844       2847      1   0.012677   0.008364     2.60142e-01     2.09200e-02
      2843       2850      1  -0.031787   0.008477     3.00055e-01     6.91943e-02
      2843       2851      1  -0.031787   0.008477     3.00055e-01     6.91943e-02
      2842       2846      1   0.017208  -0.017521     3.00055e-01     6.91943e-02
      2842       2844      1   0.017208   0.010564     2.60142e-01     2.09200e-02
      2842       2845      1   0.017208   0.010564     2.60142e-01     2.09200e-02
      2841       2846      1   0.017208  -0.017521     3.00055e-01     6.91943e-02
      2841       2844      1   0.017208   0.010564     2.60142e-01     2.09200e-02
      2841       2845      1   0.017208   0.010564     2.60142e-01     2.09200e-02
      2840       2848      1  -0.028094   0.008364     3.00055e-01     6.91943e-02
      2840       2847      1  -0.028094   0.008364     3.00055e-01     6.91943e-02
      2839       2843      1   0.007531  -0.026489     3.00055e-01     6.91943e-02
      2839       2842      1   0.007531   0.014340     2.60142e-01     2.09200e-02
      2839       2841      1   0.007531   0.014340     2.60142e-01     2.09200e-02
      2838       2843      1   0.007531  -0.026489     3.00055e-01     6.91943e-02
      2838       2842      1   0.007531   0.014340     2.60142e-01     2.09200e-02
      2838       2841      1   0.007531   0.014340     2.60142e-01     2.09200e-02
      2837       2844      1   0.017463   0.010564     3.00055e-01     6.91943e-02
      2837       2845      1   0.017463   0.010564     3.00055e-01     6.91943e-02
      2836       2840      1   0.025511  -0.023412     3.00055e-01     6.91943e-02
      2836       2838      1   0.025511   0.006276     2.60142e-01     2.09200e-02
      2836       2839      1   0.025511   0.006276     2.60142e-01     2.09200e-02
      2835       2840      1   0.025511  -0.023412     3.00055e-01     6.91943e-02
      2835       2838      1   0.025511   0.006276     2.60142e-01     2.09200e-02
      2835       2839      1   0.025511   0.006276     2.60142e-01     2.09200e-02
      2834       2842      1  -0.111712   0.014340     3.00055e-01     6.91943e-02
      2834       2841      1  -0.111712   0.014340     3.00055e-01     6.91943e-02
      2833       2840      1   0.025511  -0.023412     3.00055e-01     6.91943e-02
      2833       2838      1   0.025511   0.006276     2.60142e-01     2.09200e-02
      2833       2839      1   0.025511   0.006276     2.60142e-01     2.09200e-02
      2910       2950      1  -0.673755   0.044953     2.78067e-01     9.58675e-02
      2910       2949      1  -0.673755   0.044953     2.78067e-01     9.58675e-02
      2909       2947      1   0.897613   0.015716     3.00055e-01     6.13495e-02
      2909       2946      1   0.897613   0.015716     3.00055e-01     6.13495e-02
      2908       2950      1  -0.552948   0.044953     2.80072e-01     8.62554e-02
      2908       2949      1  -0.552948   0.044953     2.80072e-01     8.62554e-02
      2901       2902      1   0.172230  -0.282478     2.67982e-01     8.67002e-02
      2900       2902      1   0.172230  -0.282478     2.67982e-01     8.67002e-02
      2899       2902      1   0.172230  -0.282478     2.67982e-01     8.67002e-02
      2898       2903      1  -0.338973   0.143525     2.67982e-01     8.67002e-02
      2898       2904      1  -0.338973   0.143525     2.67982e-01     8.67002e-02
      2898       2905      1  -0.338973   0.143525     2.67982e-01     8.67002e-02
      2897       2898      1   0.172230  -0.282478     2.67982e-01     8.67002e-02
      2897       2902      1   0.172230  -0.282478     2.67982e-01     8.67002e-02
      2896       2898      1   0.172230  -0.282478     2.67982e-01     8.67002e-02
      2896       2902      1   0.172230  -0.282478     2.67982e-01     8.67002e-02
      2895       2898      1   0.172230  -0.282478     2.67982e-01     8.67002e-02
      2895       2902      1   0.172230  -0.282478     2.67982e-01     8.67002e-02
      2894       2899      1  -0.338973   0.143525     2.67982e-01     8.67002e-02
      2894       2900      1  -0.338973   0.143525     2.67982e-01     8.67002e-02
      2894       2901      1  -0.338973   0.143525     2.67982e-01     8.67002e-02
      2894       2903      1  -0.338973   0.143525     2.67982e-01     8.67002e-02
      2894       2904      1  -0.338973   0.143525     2.67982e-01     8.67002e-02
      2894       2905      1  -0.338973   0.143525     2.67982e-01     8.67002e-02
      2892       2894      1   0.136415  -0.282478     2.67982e-01     8.67002e-02
      2892       2898      1   0.136415  -0.282478     2.67982e-01     8.67002e-02
      2892       2902      1   0.136415  -0.282478     2.67982e-01     8.67002e-02
      2891       2894      1   0.136415  -0.282478     2.67982e-01     8.67002e-02
      2891       2898      1   0.136415  -0.282478     2.67982e-01     8.67002e-02
      2891       2902      1   0.136415  -0.282478     2.67982e-01     8.67002e-02
      2890       2895      1  -0.170824   0.143525     2.67982e-01     8.67002e-02
      2890       2896      1  -0.170824   0.143525     2.67982e-01     8.67002e-02
      2890       2897      1  -0.170824   0.143525     2.67982e-01     8.67002e-02
      2890       2899      1  -0.170824   0.143525     2.67982e-01     8.67002e-02
      2890       2900      1  -0.170824   0.143525     2.67982e-01     8.67002e-02
      2890       2901      1  -0.170824   0.143525     2.67982e-01     8.67002e-02
      2890       2903      1  -0.170824   0.143525     2.67982e-01     8.67002e-02
      2890       2904      1  -0.170824   0.143525     2.67982e-01     8.67002e-02
      2890       2905      1  -0.170824   0.143525     2.67982e-01     8.67002e-02
      2889       2891      1   0.078534   0.113679     2.21567e-01     3.28444e-02
      2889       2892      1   0.078534   0.113679     2.21567e-01     3.28444e-02
      2889       2893      1   0.078534   0.204385     2.86068e-01     1.08078e-01
      2888       2891      1   0.078534   0.113679     2.21567e-01     3.28444e-02
      2888       2892      1   0.078534   0.113679     2.21567e-01     3.28444e-02
      2888       2893      1   0.078534   0.204385     2.86068e-01     1.08078e-01
      2886       2891      1  -0.508176   0.113679     2.47999e-01     1.08078e-01
      2886       2892      1  -0.508176   0.113679     2.47999e-01     1.08078e-01
      2885       2888      1   1.339721   0.065445     3.10656e-01     1.17227e-01
      2885       2889      1   1.339721   0.065445     3.10656e-01     1.17227e-01
      2883       2908      1   0.095591  -0.460790     2.73568e-01     1.08078e-01
      2883       2885      1   0.095591   1.116434     3.10656e-01     1.17227e-01
      2882       2908      1   0.095591  -0.460790     2.73568e-01     1.08078e-01
      2882       2885      1   0.095591   1.116434     3.10656e-01     1.17227e-01
      2880       2882      1   0.063253   0.079659     2.47135e-01     3.28444e-02
      2880       2883      1   0.063253   0.079659     2.47135e-01     3.28444e-02
      2880       2884      1   0.063253  -0.424567     2.73568e-01     1.08078e-01
      2880       2909      1   0.063253   0.748011     2.93551e-01     7.68707e-02
      2878       2880      1   0.070469   0.052711     2.47135e-01     3.28444e-02
      2878       2881      1   0.070469   0.014549     2.93551e-01     8.67002e-02
      2878       2908      1   0.070469  -0.460790     2.73568e-01     1.08078e-01
      2877       2880      1   0.070469   0.052711     2.47135e-01     3.28444e-02
      2877       2881      1   0.070469   0.014549     2.93551e-01     8.67002e-02
      2877       2908      1   0.070469  -0.460790     2.73568e-01     1.08078e-01
      2876       2882      1   0.196939   0.079659     2.93551e-01     8.67002e-02
      2876       2883      1   0.196939   0.079659     2.93551e-01     8.67002e-02
      2875       2880      1  -0.575489   0.052711     2.73568e-01     1.08078e-01
      2873       2877      1   0.910403   0.058724     2.93551e-01     7.68707e-02
      2873       2878      1   0.910403   0.058724     2.93551e-01     7.68707e-02
      2947       2950      1   0.018859   0.044953     2.60142e-01     2.09200e-02
      2947       2949      1   0.018859   0.044953     2.60142e-01     2.09200e-02
      2946       2950      1   0.018859   0.044953     2.60142e-01     2.09200e-02
      2946       2949      1   0.018859   0.044953     2.60142e-01     2.09200e-02
      2944       2948      1   0.020431  -0.136833     3.00055e-01     6.91943e-02
      2944       2947      1   0.020431   0.015716     2.60142e-01     2.09200e-02
      2944       2946      1   0.020431   0.015716     2.60142e-01     2.09200e-02
      2943       2948      1   0.020431  -0.136833     3.00055e-01     6.91943e-02
      2943       2947      1   0.020431   0.015716     2.60142e-01     2.09200e-02
      2943       2946      1   0.020431   0.015716     2.60142e-01     2.09200e-02
      2942       2950      1  -0.026954   0.044953     3.00055e-01     6.91943e-02
      2942       2949      1  -0.026954   0.044953     3.00055e-01     6.91943e-02
      2941       2945      1   0.010573  -0.002029     3.00055e-01     6.91943e-02
      2941       2944      1   0.010573   0.017026     2.60142e-01     2.09200e-02
      2941       2943      1   0.010573   0.017026     2.60142e-01     2.09200e-02
      2940       2945      1   0.010573  -0.002029     3.00055e-01     6.91943e-02
      2940       2944      1   0.010573   0.017026     2.60142e-01     2.09200e-02
      2940       2943      1   0.010573   0.017026     2.60142e-01     2.09200e-02
      2939       2947      1  -0.016521   0.015716     3.00055e-01     6.91943e-02
      2939       2946      1  -0.016521   0.015716     3.00055e-01     6.91943e-02
      2938       2942      1   0.011511  -0.022462     3.00055e-01     6.91943e-02
      2938       2940      1   0.011511   0.008811     2.60142e-01     2.09200e-02
      2938       2941      1   0.011511   0.008811     2.60142e-01     2.09200e-02
      2937       2942      1   0.011511  -0.022462     3.00055e-01     6.91943e-02
      2937       2940      1   0.011511   0.008811     2.60142e-01     2.09200e-02
      2937       2941      1   0.011511   0.008811     2.60142e-01     2.09200e-02
      2936       2944      1  -0.027812   0.017026     3.00055e-01     6.91943e-02
      2936       2943      1  -0.027812   0.017026     3.00055e-01     6.91943e-02
      2935       2939      1   0.006833  -0.013767     3.00055e-01     6.91943e-02
      2935       2937      1   0.006833   0.009592     2.60142e-01     2.09200e-02
      2935       2938      1   0.006833   0.009592     2.60142e-01     2.09200e-02
      2934       2939      1   0.006833  -0.013767     3.00055e-01     6.91943e-02
      2934       2937      1   0.006833   0.009592     2.60142e-01     2.09200e-02
      2934       2938      1   0.006833   0.009592     2.60142e-01     2.09200e-02
      2933       2940      1  -0.004386   0.008811     3.00055e-01     6.91943e-02
      2933       2941      1  -0.004386   0.008811     3.00055e-01     6.91943e-02
      2932       2936      1   0.011241  -0.023177     3.00055e-01     6.91943e-02
      2932       2934      1   0.011241   0.005694     2.60142e-01     2.09200e-02
      2932       2935      1   0.011241   0.005694     2.60142e-01     2.09200e-02
      2931       2936      1   0.011241  -0.023177     3.00055e-01     6.91943e-02
      2931       2934      1   0.011241   0.005694     2.60142e-01     2.09200e-02
      2931       2935      1   0.011241   0.005694     2.60142e-01     2.09200e-02
      2930       2937      1  -0.026451   0.009592     3.00055e-01     6.91943e-02
      2930       2938      1  -0.026451   0.009592     3.00055e-01     6.91943e-02
      2929       2933      1   0.010172  -0.003655     3.00055e-01     6.91943e-02
      2929       2932      1   0.010172   0.009367     2.60142e-01     2.09200e-02
      2929       2931      1   0.010172   0.009367     2.60142e-01     2.09200e-02
      2928       2933      1   0.010172  -0.003655     3.00055e-01     6.91943e-02
      2928       2932      1   0.010172   0.009367     2.60142e-01     2.09200e-02
      2928       2931      1   0.010172   0.009367     2.60142e-01     2.09200e-02
      2927       2934      1  -0.014653   0.005694     3.00055e-01     6.91943e-02
      2927       2935      1  -0.014653   0.005694     3.00055e-01     6.91943e-02
      2926       2930      1   0.010037  -0.022042     3.00055e-01     6.91943e-02
      2926       2928      1   0.010037   0.008477     2.60142e-01     2.09200e-02
      2926       2929      1   0.010037   0.008477     2.60142e-01     2.09200e-02
      2925       2930      1   0.010037  -0.022042     3.00055e-01     6.91943e-02
      2925       2928      1   0.010037   0.008477     2.60142e-01     2.09200e-02
      2925       2929      1   0.010037   0.008477     2.60142e-01     2.09200e-02
      2924       2932      1  -0.021025   0.009367     3.00055e-01     6.91943e-02
      2924       2931      1  -0.021025   0.009367     3.00055e-01     6.91943e-02
      2923       2927      1   0.012677  -0.012211     3.00055e-01     6.91943e-02
      2923       2926      1   0.012677   0.008364     2.60142e-01     2.09200e-02
      2923       2925      1   0.012677   0.008364     2.60142e-01     2.09200e-02
      2922       2927      1   0.012677  -0.012211     3.00055e-01     6.91943e-02
      2922       2926      1   0.012677   0.008364     2.60142e-01     2.09200e-02
      2922       2925      1   0.012677   0.008364     2.60142e-01     2.09200e-02
      2921       2928      1  -0.031787   0.008477     3.00055e-01     6.91943e-02
      2921       2929      1  -0.031787   0.008477     3.00055e-01     6.91943e-02
      2920       2924      1   0.017208  -0.017521     3.00055e-01     6.91943e-02
      2920       2922      1   0.017208   0.010564     2.60142e-01     2.09200e-02
      2920       2923      1   0.017208   0.010564     2.60142e-01     2.09200e-02
      2919       2924      1   0.017208  -0.017521     3.00055e-01     6.91943e-02
      2919       2922      1   0.017208   0.010564     2.60142e-01     2.09200e-02
      2919       2923      1   0.017208   0.010564     2.60142e-01     2.09200e-02
      2918       2926      1  -0.028094   0.008364     3.00055e-01     6.91943e-02
      2918       2925      1  -0.028094   0.008364     3.00055e-01     6.91943e-02
      2917       2921      1   0.007531  -0.026489     3.00055e-01     6.91943e-02
      2917       2920      1   0.007531   0.014340     2.60142e-01     2.09200e-02
      2917       2919      1   0.007531   0.014340     2.60142e-01     2.09200e-02
      2916       2921      1   0.007531  -0.026489     3.00055e-01     6.91943e-02
      2916       2920      1   0.007531   0.014340     2.60142e-01     2.09200e-02
      2916       2919      1   0.007531   0.014340     2.60142e-01     2.09200e-02
      2915       2922      1   0.017463   0.010564     3.00055e-01     6.91943e-02
      2915       2923      1   0.017463   0.010564     3.00055e-01     6.91943e-02
      2914       2918      1   0.025511  -0.023412     3.00055e-01     6.91943e-02
      2914       2916      1   0.025511   0.006276     2.60142e-01     2.09200e-02
      2914       2917      1   0.025511   0.006276     2.60142e-01     2.09200e-02
      2913       2918      1   0.025511  -0.023412     3.00055e-01     6.91943e-02
      2913       2916      1   0.025511   0.006276     2.60142e-01     2.09200e-02
      2913       2917      1   0.025511   0.006276     2.60142e-01     2.09200e-02
      2912       2920      1  -0.111712   0.014340     3.00055e-01     6.91943e-02
      2912       2919      1  -0.111712   0.014340     3.00055e-01     6.91943e-02
      2911       2918      1   0.025511  -0.023412     3.00055e-01     6.91943e-02
      2911       2916      1   0.025511   0.006276     2.60142e-01     2.09200e-02
      2911       2917      1   0.025511   0.006276     2.60142e-01     2.09200e-02
      2990       2992      1   0.053944  -0.559638     2.78067e-01     9.58675e-02
      2990       2993      1   0.053944  -0.479574     2.80072e-01     8.62554e-02
      2989       2992      1   0.053944  -0.559638     2.78067e-01     9.58675e-02
      2989       2993      1   0.053944  -0.479574     2.80072e-01     8.62554e-02
      2987       2990      1   0.018859   0.044953     2.60142e-01     2.09200e-02
      2987       2989      1   0.018859   0.044953     2.60142e-01     2.09200e-02
      2987       2991      1   0.018859   0.758669     3.00055e-01     6.13495e-02
      2986       2990      1   0.018859   0.044953     2.60142e-01     2.09200e-02
      2986       2989      1   0.018859   0.044953     2.60142e-01     2.09200e-02
      2986       2991      1   0.018859   0.758669     3.00055e-01     6.13495e-02
      2984       2988      1   0.020431  -0.136833     3.00055e-01     6.91943e-02
      2984       2987      1   0.020431   0.015716     2.60142e-01     2.09200e-02
      2984       2986      1   0.020431   0.015716     2.60142e-01     2.09200e-02
      2983       2988      1   0.020431  -0.136833     3.00055e-01     6.91943e-02
      2983       2987      1   0.020431   0.015716     2.60142e-01     2.09200e-02
      2983       2986      1   0.020431   0.015716     2.60142e-01     2.09200e-02
      2982       2990      1  -0.026954   0.044953     3.00055e-01     6.91943e-02
      2982       2989      1  -0.026954   0.044953     3.00055e-01     6.91943e-02
      2981       2985      1   0.010573  -0.002029     3.00055e-01     6.91943e-02
      2981       2984      1   0.010573   0.017026     2.60142e-01     2.09200e-02
      2981       2983      1   0.010573   0.017026     2.60142e-01     2.09200e-02
      2980       2985      1   0.010573  -0.002029     3.00055e-01     6.91943e-02
      2980       2984      1   0.010573   0.017026     2.60142e-01     2.09200e-02
      2980       2983      1   0.010573   0.017026     2.60142e-01     2.09200e-02
      2979       2987      1  -0.016521   0.015716     3.00055e-01     6.91943e-02
      2979       2986      1  -0.016521   0.015716     3.00055e-01     6.91943e-02
      2978       2982      1   0.011511  -0.022462     3.00055e-01     6.91943e-02
      2978       2980      1   0.011511   0.008811     2.60142e-01     2.09200e-02
      2978       2981      1   0.011511   0.008811     2.60142e-01     2.09200e-02
      2977       2982      1   0.011511  -0.022462     3.00055e-01     6.91943e-02
      2977       2980      1   0.011511   0.008811     2.60142e-01     2.09200e-02
      2977       2981      1   0.011511   0.008811     2.60142e-01     2.09200e-02
      2976       2984      1  -0.027812   0.017026     3.00055e-01     6.91943e-02
      2976       2983      1  -0.027812   0.017026     3.00055e-01     6.91943e-02
      2975       2979      1   0.006833  -0.013767     3.00055e-01     6.91943e-02
      2975       2977      1   0.006833   0.009592     2.60142e-01     2.09200e-02
      2975       2978      1   0.006833   0.009592     2.60142e-01     2.09200e-02
      2974       2979      1   0.006833  -0.013767     3.00055e-01     6.91943e-02
      2974       2977      1   0.006833   0.009592     2.60142e-01     2.09200e-02
      2974       2978      1   0.006833   0.009592     2.60142e-01     2.09200e-02
      2973       2980      1  -0.004386   0.008811     3.00055e-01     6.91943e-02
      2973       2981      1  -0.004386   0.008811     3.00055e-01     6.91943e-02
      2972       2976      1   0.011241  -0.023177     3.00055e-01     6.91943e-02
      2972       2974      1   0.011241   0.005694     2.60142e-01     2.09200e-02
      2972       2975      1   0.011241   0.005694     2.60142e-01     2.09200e-02
      2971       2976      1   0.011241  -0.023177     3.00055e-01     6.91943e-02
      2971       2974      1   0.011241   0.005694     2.60142e-01     2.09200e-02
      2971       2975      1   0.011241   0.005694     2.60142e-01     2.09200e-02
      2970       2977      1  -0.026451   0.009592     3.00055e-01     6.91943e-02
      2970       2978      1  -0.026451   0.009592     3.00055e-01     6.91943e-02
      2969       2973      1   0.010172  -0.003655     3.00055e-01     6.91943e-02
      2969       2972      1   0.010172   0.009367     2.60142e-01     2.09200e-02
      2969       2971      1   0.010172   0.009367     2.60142e-01     2.09200e-02
      2968       2973      1   0.010172  -0.003655     3.00055e-01     6.91943e-02
      2968       2972      1   0.010172   0.009367     2.60142e-01     2.09200e-02
      2968       2971      1   0.010172   0.009367     2.60142e-01     2.09200e-02
      2967       2974      1  -0.014653   0.005694     3.00055e-01     6.91943e-02
      2967       2975      1  -0.014653   0.005694     3.00055e-01     6.91943e-02
      2966       2970      1   0.010037  -0.022042     3.00055e-01     6.91943e-02
      2966       2968      1   0.010037   0.008477     2.60142e-01     2.09200e-02
      2966       2969      1   0.010037   0.008477     2.60142e-01     2.09200e-02
      2965       2970      1   0.010037  -0.022042     3.00055e-01     6.91943e-02
      2965       2968      1   0.010037   0.008477     2.60142e-01     2.09200e-02
      2965       2969      1   0.010037   0.008477     2.60142e-01     2.09200e-02
      2964       2972      1  -0.021025   0.009367     3.00055e-01     6.91943e-02
      2964       2971      1  -0.021025   0.009367     3.00055e-01     6.91943e-02
      2963       2967      1   0.012677  -0.012211     3.00055e-01     6.91943e-02
      2963       2966      1   0.012677   0.008364     2.60142e-01     2.09200e-02
      2963       2965      1   0.012677   0.008364     2.60142e-01     2.09200e-02
      2962       2967      1   0.012677  -0.012211     3.00055e-01     6.91943e-02
      2962       2966      1   0.012677   0.008364     2.60142e-01     2.09200e-02
      2962       2965      1   0.012677   0.008364     2.60142e-01     2.09200e-02
      2961       2968      1  -0.031787   0.008477     3.00055e-01     6.91943e-02
      2961       2969      1  -0.031787   0.008477     3.00055e-01     6.91943e-02
      2960       2964      1   0.017208  -0.017521     3.00055e-01     6.91943e-02
      2960       2962      1   0.017208   0.010564     2.60142e-01     2.09200e-02
      2960       2963      1   0.017208   0.010564     2.60142e-01     2.09200e-02
      2959       2964      1   0.017208  -0.017521     3.00055e-01     6.91943e-02
      2959       2962      1   0.017208   0.010564     2.60142e-01     2.09200e-02
      2959       2963      1   0.017208   0.010564     2.60142e-01     2.09200e-02
      2958       2966      1  -0.028094   0.008364     3.00055e-01     6.91943e-02
      2958       2965      1  -0.028094   0.008364     3.00055e-01     6.91943e-02
      2957       2961      1   0.007531  -0.026489     3.00055e-01     6.91943e-02
      2957       2960      1   0.007531   0.014340     2.60142e-01     2.09200e-02
      2957       2959      1   0.007531   0.014340     2.60142e-01     2.09200e-02
      2956       2961      1   0.007531  -0.026489     3.00055e-01     6.91943e-02
      2956       2960      1   0.007531   0.014340     2.60142e-01     2.09200e-02
      2956       2959      1   0.007531   0.014340     2.60142e-01     2.09200e-02
      2955       2962      1   0.017463   0.010564     3.00055e-01     6.91943e-02
      2955       2963      1   0.017463   0.010564     3.00055e-01     6.91943e-02
      2954       2958      1   0.025511  -0.023412     3.00055e-01     6.91943e-02
      2954       2956      1   0.025511   0.006276     2.60142e-01     2.09200e-02
      2954       2957      1   0.025511   0.006276     2.60142e-01     2.09200e-02
      2953       2958      1   0.025511  -0.023412     3.00055e-01     6.91943e-02
      2953       2956      1   0.025511   0.006276     2.60142e-01     2.09200e-02
      2953       2957      1   0.025511   0.006276     2.60142e-01     2.09200e-02
      2952       2960      1  -0.111712   0.014340     3.00055e-01     6.91943e-02
      2952       2959      1  -0.111712   0.014340     3.00055e-01     6.91943e-02
      2951       2958      1   0.025511  -0.023412     3.00055e-01     6.91943e-02
      2951       2956      1   0.025511   0.006276     2.60142e-01     2.09200e-02
      2951       2957      1   0.025511   0.006276     2.60142e-01     2.09200e-02
      3028       3068      1  -0.673755   0.044953     2.78067e-01     9.58675e-02
      3028       3067      1  -0.673755   0.044953     2.78067e-01     9.58675e-02
      3027       3065      1   0.897613   0.015716     3.00055e-01     6.13495e-02
      3027       3064      1   0.897613   0.015716     3.00055e-01     6.13495e-02
      3026       3068      1  -0.552948   0.044953     2.80072e-01     8.62554e-02
      3026       3067      1  -0.552948   0.044953     2.80072e-01     8.62554e-02
      3019       3020      1   0.172230  -0.282478     2.67982e-01     8.67002e-02
      3018       3020      1   0.172230  -0.282478     2.67982e-01     8.67002e-02
      3017       3020      1   0.172230  -0.282478     2.67982e-01     8.67002e-02
      3016       3021      1  -0.338973   0.143525     2.67982e-01     8.67002e-02
      3016       3022      1  -0.338973   0.143525     2.67982e-01     8.67002e-02
      3016       3023      1  -0.338973   0.143525     2.67982e-01     8.67002e-02
      3015       3016      1   0.172230  -0.282478     2.67982e-01     8.67002e-02
      3015       3020      1   0.172230  -0.282478     2.67982e-01     8.67002e-02
      3014       3016      1   0.172230  -0.282478     2.67982e-01     8.67002e-02
      3014       3020      1   0.172230  -0.282478     2.67982e-01     8.67002e-02
      3013       3016      1   0.172230  -0.282478     2.67982e-01     8.67002e-02
      3013       3020      1   0.172230  -0.282478     2.67982e-01     8.67002e-02
      3012       3017      1  -0.338973   0.143525     2.67982e-01     8.67002e-02
      3012       3018      1  -0.338973   0.143525     2.67982e-01     8.67002e-02
      3012       3019      1  -0.338973   0.143525     2.67982e-01     8.67002e-02
      3012       3021      1  -0.338973   0.143525     2.67982e-01     8.67002e-02
      3012       3022      1  -0.338973   0.143525     2.67982e-01     8.67002e-02
      3012       3023      1  -0.338973   0.143525     2.67982e-01     8.67002e-02
      3010       3012      1   0.136415  -0.282478     2.67982e-01     8.67002e-02
      3010       3016      1   0.136415  -0.282478     2.67982e-01     8.67002e-02
      3010       3020      1   0.136415  -0.282478     2.67982e-01     8.67002e-02
      3009       3012      1   0.136415  -0.282478     2.67982e-01     8.67002e-02
      3009       3016      1   0.136415  -0.282478     2.67982e-01     8.67002e-02
      3009       3020      1   0.136415  -0.282478     2.67982e-01     8.67002e-02
      3008       3013      1  -0.170824   0.143525     2.67982e-01     8.67002e-02
      3008       3014      1  -0.170824   0.143525     2.67982e-01     8.67002e-02
      3008       3015      1  -0.170824   0.143525     2.67982e-01     8.67002e-02
      3008       3017      1  -0.170824   0.143525     2.67982e-01     8.67002e-02
      3008       3018      1  -0.170824   0.143525     2.67982e-01     8.67002e-02
      3008       3019      1  -0.170824   0.143525     2.67982e-01     8.67002e-02
      3008       3021      1  -0.170824   0.143525     2.67982e-01     8.67002e-02
      3008       3022      1  -0.170824   0.143525     2.67982e-01     8.67002e-02
      3008       3023      1  -0.170824   0.143525     2.67982e-01     8.67002e-02
      3007       3009      1   0.078534   0.113679     2.21567e-01     3.28444e-02
      3007       3010      1   0.078534   0.113679     2.21567e-01     3.28444e-02
      3007       3011      1   0.078534   0.204385     2.86068e-01     1.08078e-01
      3006       3009      1   0.078534   0.113679     2.21567e-01     3.28444e-02
      3006       3010      1   0.078534   0.113679     2.21567e-01     3.28444e-02
      3006       3011      1   0.078534   0.204385     2.86068e-01     1.08078e-01
      3004       3009      1  -0.508176   0.113679     2.47999e-01     1.08078e-01
      3004       3010      1  -0.508176   0.113679     2.47999e-01     1.08078e-01
      3003       3006      1   1.339721   0.065445     3.10656e-01     1.17227e-01
      3003       3007      1   1.339721   0.065445     3.10656e-01     1.17227e-01
      3001       3026      1   0.095591  -0.460790     2.73568e-01     1.08078e-01
      3001       3003      1   0.095591   1.116434     3.10656e-01     1.17227e-01
      3000       3026      1   0.095591  -0.460790     2.73568e-01     1.08078e-01
      3000       3003      1   0.095591   1.116434     3.10656e-01     1.17227e-01
      2998       3000      1   0.063253   0.079659     2.47135e-01     3.28444e-02
      2998       3001      1   0.063253   0.079659     2.47135e-01     3.28444e-02
      2998       3002      1   0.063253  -0.424567     2.73568e-01     1.08078e-01
      2998       3027      1   0.063253   0.748011     2.93551e-01     7.68707e-02
      2996       2998      1   0.070469   0.052711     2.47135e-01     3.28444e-02
      2996       2999      1   0.070469   0.014549     2.93551e-01     8.67002e-02
      2996       3026      1   0.070469  -0.460790     2.73568e-01     1.08078e-01
      2995       2998      1   0.070469   0.052711     2.47135e-01     3.28444e-02
      2995       2999      1   0.070469   0.014549     2.93551e-01     8.67002e-02
      2995       3026      1   0.070469  -0.460790     2.73568e-01     1.08078e-01
      2994       3000      1   0.196939   0.079659     2.93551e-01     8.67002e-02
      2994       3001      1   0.196939   0.079659     2.93551e-01     8.67002e-02
      2993       2998      1  -0.575489   0.052711     2.73568e-01     1.08078e-01
      2991       2995      1   0.910403   0.058724     2.93551e-01     7.68707e-02
      2991       2996      1   0.910403   0.058724     2.93551e-01     7.68707e-02
      3065       3068      1   0.018859   0.044953     2.60142e-01     2.09200e-02
      3065       3067      1   0.018859   0.044953     2.60142e-01     2.09200e-02
      3064       3068      1   0.018859   0.044953     2.60142e-01     2.09200e-02
      3064       3067      1   0.018859   0.044953     2.60142e-01     2.09200e-02
      3062       3066      1   0.020431  -0.136833     3.00055e-01     6.91943e-02
      3062       3065      1   0.020431   0.015716     2.60142e-01     2.09200e-02
      3062       3064      1   0.020431   0.015716     2.60142e-01     2.09200e-02
      3061       3066      1   0.020431  -0.136833     3.00055e-01     6.91943e-02
      3061       3065      1   0.020431   0.015716     2.60142e-01     2.09200e-02
      3061       3064      1   0.020431   0.015716     2.60142e-01     2.09200e-02
      3060       3068      1  -0.026954   0.044953     3.00055e-01     6.91943e-02
      3060       3067      1  -0.026954   0.044953     3.00055e-01     6.91943e-02
      3059       3063      1   0.010573  -0.002029     3.00055e-01     6.91943e-02
      3059       3062      1   0.010573   0.017026     2.60142e-01     2.09200e-02
      3059       3061      1   0.010573   0.017026     2.60142e-01     2.09200e-02
      3058       3063      1   0.010573  -0.002029     3.00055e-01     6.91943e-02
      3058       3062      1   0.010573   0.017026     2.60142e-01     2.09200e-02
      3058       3061      1   0.010573   0.017026     2.60142e-01     2.09200e-02
      3057       3065      1  -0.016521   0.015716     3.00055e-01     6.91943e-02
      3057       3064      1  -0.016521   0.015716     3.00055e-01     6.91943e-02
      3056       3060      1   0.011511  -0.022462     3.00055e-01     6.91943e-02
      3056       3058      1   0.011511   0.008811     2.60142e-01     2.09200e-02
      3056       3059      1   0.011511   0.008811     2.60142e-01     2.09200e-02
      3055       3060      1   0.011511  -0.022462     3.00055e-01     6.91943e-02
      3055       3058      1   0.011511   0.008811     2.60142e-01     2.09200e-02
      3055       3059      1   0.011511   0.008811     2.60142e-01     2.09200e-02
      3054       3062      1  -0.027812   0.017026     3.00055e-01     6.91943e-02
      3054       3061      1  -0.027812   0.017026     3.00055e-01     6.91943e-02
      3053       3057      1   0.006833  -0.013767     3.00055e-01     6.91943e-02
      3053       3055      1   0.006833   0.009592     2.60142e-01     2.09200e-02
      3053       3056      1   0.006833   0.009592     2.60142e-01     2.09200e-02
      3052       3057      1   0.006833  -0.013767     3.00055e-01     6.91943e-02
      3052       3055      1   0.006833   0.009592     2.60142e-01     2.09200e-02
      3052       3056      1   0.006833   0.009592     2.60142e-01     2.09200e-02
      3051       3058      1  -0.004386   0.008811     3.00055e-01     6.91943e-02
      3051       3059      1  -0.004386   0.008811     3.00055e-01     6.91943e-02
      3050       3054      1   0.011241  -0.023177     3.00055e-01     6.91943e-02
      3050       3052      1   0.011241   0.005694     2.60142e-01     2.09200e-02
      3050       3053      1   0.011241   0.005694     2.60142e-01     2.09200e-02
      3049       3054      1   0.011241  -0.023177     3.00055e-01     6.91943e-02
      3049       3052      1   0.011241   0.005694     2.60142e-01     2.09200e-02
      3049       3053      1   0.011241   0.005694     2.60142e-01     2.09200e-02
      3048       3055      1  -0.026451   0.009592     3.00055e-01     6.91943e-02
      3048       3056      1  -0.026451   0.009592     3.00055e-01     6.91943e-02
      3047       3051      1   0.010172  -0.003655     3.00055e-01     6.91943e-02
      3047       3050      1   0.010172   0.009367     2.60142e-01     2.09200e-02
      3047       3049      1   0.010172   0.009367     2.60142e-01     2.09200e-02
      3046       3051      1   0.010172  -0.003655     3.00055e-01     6.91943e-02
      3046       3050      1   0.010172   0.009367     2.60142e-01     2.09200e-02
      3046       3049      1   0.010172   0.009367     2.60142e-01     2.09200e-02
      3045       3052      1  -0.014653   0.005694     3.00055e-01     6.91943e-02
      3045       3053      1  -0.014653   0.005694     3.00055e-01     6.91943e-02
      3044       3048      1   0.010037  -0.022042     3.00055e-01     6.91943e-02
      3044       3046      1   0.010037   0.008477     2.60142e-01     2.09200e-02
      3044       3047      1   0.010037   0.008477     2.60142e-01     2.09200e-02
      3043       3048      1   0.010037  -0.022042     3.00055e-01     6.91943e-02
      3043       3046      1   0.010037   0.008477     2.60142e-01     2.09200e-02
      3043       3047      1   0.010037   0.008477     2.60142e-01     2.09200e-02
      3042       3050      1  -0.021025   0.009367     3.00055e-01     6.91943e-02
      3042       3049      1  -0.021025   0.009367     3.00055e-01     6.91943e-02
      3041       3045      1   0.012677  -0.012211     3.00055e-01     6.91943e-02
      3041       3044      1   0.012677   0.008364     2.60142e-01     2.09200e-02
      3041       3043      1   0.012677   0.008364     2.60142e-01     2.09200e-02
      3040       3045      1   0.012677  -0.012211     3.00055e-01     6.91943e-02
      3040       3044      1   0.012677   0.008364     2.60142e-01     2.09200e-02
      3040       3043      1   0.012677   0.008364     2.60142e-01     2.09200e-02
      3039       3046      1  -0.031787   0.008477     3.00055e-01     6.91943e-02
      3039       3047      1  -0.031787   0.008477     3.00055e-01     6.91943e-02
      3038       3042      1   0.017208  -0.017521     3.00055e-01     6.91943e-02
      3038       3040      1   0.017208   0.010564     2.60142e-01     2.09200e-02
      3038       3041      1   0.017208   0.010564     2.60142e-01     2.09200e-02
      3037       3042      1   0.017208  -0.017521     3.00055e-01     6.91943e-02
      3037       3040      1   0.017208   0.010564     2.60142e-01     2.09200e-02
      3037       3041      1   0.017208   0.010564     2.60142e-01     2.09200e-02
      3036       3044      1  -0.028094   0.008364     3.00055e-01     6.91943e-02
      3036       3043      1  -0.028094   0.008364     3.00055e-01     6.91943e-02
      3035       3039      1   0.007531  -0.026489     3.00055e-01     6.91943e-02
      3035       3038      1   0.007531   0.014340     2.60142e-01     2.09200e-02
      3035       3037      1   0.007531   0.014340     2.60142e-01     2.09200e-02
      3034       3039      1   0.007531  -0.026489     3.00055e-01     6.91943e-02
      3034       3038      1   0.007531   0.014340     2.60142e-01     2.09200e-02
      3034       3037      1   0.007531   0.014340     2.60142e-01     2.09200e-02
      3033       3040      1   0.017463   0.010564     3.00055e-01     6.91943e-02
      3033       3041      1   0.017463   0.010564     3.00055e-01     6.91943e-02
      3032       3036      1   0.025511  -0.023412     3.00055e-01     6.91943e-02
      3032       3034      1   0.025511   0.006276     2.60142e-01     2.09200e-02
      3032       3035      1   0.025511   0.006276     2.60142e-01     2.09200e-02
      3031       3036      1   0.025511  -0.023412     3.00055e-01     6.91943e-02
      3031       3034      1   0.025511   0.006276     2.60142e-01     2.09200e-02
      3031       3035      1   0.025511   0.006276     2.60142e-01     2.09200e-02
      3030       3038      1  -0.111712   0.014340     3.00055e-01     6.91943e-02
      3030       3037      1  -0.111712   0.014340     3.00055e-01     6.91943e-02
      3029       3036      1   0.025511  -0.023412     3.00055e-01     6.91943e-02
      3029       3034      1   0.025511   0.006276     2.60142e-01     2.09200e-02
      3029       3035      1   0.025511   0.006276     2.60142e-01     2.09200e-02
      3108       3110      1   0.053944  -0.559638     2.78067e-01     9.58675e-02
      3108       3111      1   0.053944  -0.479574     2.80072e-01     8.62554e-02
      3107       3110      1   0.053944  -0.559638     2.78067e-01     9.58675e-02
      3107       3111      1   0.053944  -0.479574     2.80072e-01     8.62554e-02
      3105       3108      1   0.018859   0.044953     2.60142e-01     2.09200e-02
      3105       3107      1   0.018859   0.044953     2.60142e-01     2.09200e-02
      3105       3109      1   0.018859   0.758669     3.00055e-01     6.13495e-02
      3104       3108      1   0.018859   0.044953     2.60142e-01     2.09200e-02
      3104       3107      1   0.018859   0.044953     2.60142e-01     2.09200e-02
      3104       3109      1   0.018859   0.758669     3.00055e-01     6.13495e-02
      3102       3106      1   0.020431  -0.136833     3.00055e-01     6.91943e-02
      3102       3105      1   0.020431   0.015716     2.60142e-01     2.09200e-02
      3102       3104      1   0.020431   0.015716     2.60142e-01     2.09200e-02
      3101       3106      1   0.020431  -0.136833     3.00055e-01     6.91943e-02
      3101       3105      1   0.020431   0.015716     2.60142e-01     2.09200e-02
      3101       3104      1   0.020431   0.015716     2.60142e-01     2.09200e-02
      3100       3108      1  -0.026954   0.044953     3.00055e-01     6.91943e-02
      3100       3107      1  -0.026954   0.044953     3.00055e-01     6.91943e-02
      3099       3103      1   0.010573  -0.002029     3.00055e-01     6.91943e-02
      3099       3102      1   0.010573   0.017026     2.60142e-01     2.09200e-02
      3099       3101      1   0.010573   0.017026     2.60142e-01     2.09200e-02
      3098       3103      1   0.010573  -0.002029     3.00055e-01     6.91943e-02
      3098       3102      1   0.010573   0.017026     2.60142e-01     2.09200e-02
      3098       3101      1   0.010573   0.017026     2.60142e-01     2.09200e-02
      3097       3105      1  -0.016521   0.015716     3.00055e-01     6.91943e-02
      3097       3104      1  -0.016521   0.015716     3.00055e-01     6.91943e-02
      3096       3100      1   0.011511  -0.022462     3.00055e-01     6.91943e-02
      3096       3098      1   0.011511   0.008811     2.60142e-01     2.09200e-02
      3096       3099      1   0.011511   0.008811     2.60142e-01     2.09200e-02
      3095       3100      1   0.011511  -0.022462     3.00055e-01     6.91943e-02
      3095       3098      1   0.011511   0.008811     2.60142e-01     2.09200e-02
      3095       3099      1   0.011511   0.008811     2.60142e-01     2.09200e-02
      3094       3102      1  -0.027812   0.017026     3.00055e-01     6.91943e-02
      3094       3101      1  -0.027812   0.017026     3.00055e-01     6.91943e-02
      3093       3097      1   0.006833  -0.013767     3.00055e-01     6.91943e-02
      3093       3095      1   0.006833   0.009592     2.60142e-01     2.09200e-02
      3093       3096      1   0.006833   0.009592     2.60142e-01     2.09200e-02
      3092       3097      1   0.006833  -0.013767     3.00055e-01     6.91943e-02
      3092       3095      1   0.006833   0.009592     2.60142e-01     2.09200e-02
      3092       3096      1   0.006833   0.009592     2.60142e-01     2.09200e-02
      3091       3098      1  -0.004386   0.008811     3.00055e-01     6.91943e-02
      3091       3099      1  -0.004386   0.008811     3.00055e-01     6.91943e-02
      3090       3094      1   0.011241  -0.023177     3.00055e-01     6.91943e-02
      3090       3092      1   0.011241   0.005694     2.60142e-01     2.09200e-02
      3090       3093      1   0.011241   0.005694     2.60142e-01     2.09200e-02
      3089       3094      1   0.011241  -0.023177     3.00055e-01     6.91943e-02
      3089       3092      1   0.011241   0.005694     2.60142e-01     2.09200e-02
      3089       3093      1   0.011241   0.005694     2.60142e-01     2.09200e-02
      3088       3095      1  -0.026451   0.009592     3.00055e-01     6.91943e-02
      3088       3096      1  -0.026451   0.009592     3.00055e-01     6.91943e-02
      3087       3091      1   0.010172  -0.003655     3.00055e-01     6.91943e-02
      3087       3090      1   0.010172   0.009367     2.60142e-01     2.09200e-02
      3087       3089      1   0.010172   0.009367     2.60142e-01     2.09200e-02
      3086       3091      1   0.010172  -0.003655     3.00055e-01     6.91943e-02
      3086       3090      1   0.010172   0.009367     2.60142e-01     2.09200e-02
      3086       3089      1   0.010172   0.009367     2.60142e-01     2.09200e-02
      3085       3092      1  -0.014653   0.005694     3.00055e-01     6.91943e-02
      3085       3093      1  -0.014653   0.005694     3.00055e-01     6.91943e-02
      3084       3088      1   0.010037  -0.022042     3.00055e-01     6.91943e-02
      3084       3086      1   0.010037   0.008477     2.60142e-01     2.09200e-02
      3084       3087      1   0.010037   0.008477     2.60142e-01     2.09200e-02
      3083       3088      1   0.010037  -0.022042     3.00055e-01     6.91943e-02
      3083       3086      1   0.010037   0.008477     2.60142e-01     2.09200e-02
      3083       3087      1   0.010037   0.008477     2.60142e-01     2.09200e-02
      3082       3090      1  -0.021025   0.009367     3.00055e-01     6.91943e-02
      3082       3089      1  -0.021025   0.009367     3.00055e-01     6.91943e-02
      3081       3085      1   0.012677  -0.012211     3.00055e-01     6.91943e-02
      3081       3084      1   0.012677   0.008364     2.60142e-01     2.09200e-02
      3081       3083      1   0.012677   0.008364     2.60142e-01     2.09200e-02
      3080       3085      1   0.012677  -0.012211     3.00055e-01     6.91943e-02
      3080       3084      1   0.012677   0.008364     2.60142e-01     2.09200e-02
      3080       3083      1   0.012677   0.008364     2.60142e-01     2.09200e-02
      3079       3086      1  -0.031787   0.008477     3.00055e-01     6.91943e-02
      3079       3087      1  -0.031787   0.008477     3.00055e-01     6.91943e-02
      3078       3082      1   0.017208  -0.017521     3.00055e-01     6.91943e-02
      3078       3080      1   0.017208   0.010564     2.60142e-01     2.09200e-02
      3078       3081      1   0.017208   0.010564     2.60142e-01     2.09200e-02
      3077       3082      1   0.017208  -0.017521     3.00055e-01     6.91943e-02
      3077       3080      1   0.017208   0.010564     2.60142e-01     2.09200e-02
      3077       3081      1   0.017208   0.010564     2.60142e-01     2.09200e-02
      3076       3084      1  -0.028094   0.008364     3.00055e-01     6.91943e-02
      3076       3083      1  -0.028094   0.008364     3.00055e-01     6.91943e-02
      3075       3079      1   0.007531  -0.026489     3.00055e-01     6.91943e-02
      3075       3078      1   0.007531   0.014340     2.60142e-01     2.09200e-02
      3075       3077      1   0.007531   0.014340     2.60142e-01     2.09200e-02
      3074       3079      1   0.007531  -0.026489     3.00055e-01     6.91943e-02
      3074       3078      1   0.007531   0.014340     2.60142e-01     2.09200e-02
      3074       3077      1   0.007531   0.014340     2.60142e-01     2.09200e-02
      3073       3080      1   0.017463   0.010564     3.00055e-01     6.91943e-02
      3073       3081      1   0.017463   0.010564     3.00055e-01     6.91943e-02
      3072       3076      1   0.025511  -0.023412     3.00055e-01     6.91943e-02
      3072       3074      1   0.025511   0.006276     2.60142e-01     2.09200e-02
      3072       3075      1   0.025511   0.006276     2.60142e-01     2.09200e-02
      3071       3076      1   0.025511  -0.023412     3.00055e-01     6.91943e-02
      3071       3074      1   0.025511   0.006276     2.60142e-01     2.09200e-02
      3071       3075      1   0.025511   0.006276     2.60142e-01     2.09200e-02
      3070       3078      1  -0.111712   0.014340     3.00055e-01     6.91943e-02
      3070       3077      1  -0.111712   0.014340     3.00055e-01     6.91943e-02
      3069       3076      1   0.025511  -0.023412     3.00055e-01     6.91943e-02
      3069       3074      1   0.025511   0.006276     2.60142e-01     2.09200e-02
      3069       3075      1   0.025511   0.006276     2.60142e-01     2.09200e-02
      3146       3186      1  -0.673755   0.044953     2.78067e-01     9.58675e-02
      3146       3185      1  -0.673755   0.044953     2.78067e-01     9.58675e-02
      3145       3183      1   0.897613   0.015716     3.00055e-01     6.13495e-02
      3145       3182      1   0.897613   0.015716     3.00055e-01     6.13495e-02
      3144       3186      1  -0.552948   0.044953     2.80072e-01     8.62554e-02
      3144       3185      1  -0.552948   0.044953     2.80072e-01     8.62554e-02
      3137       3138      1   0.172230  -0.282478     2.67982e-01     8.67002e-02
      3136       3138      1   0.172230  -0.282478     2.67982e-01     8.67002e-02
      3135       3138      1   0.172230  -0.282478     2.67982e-01     8.67002e-02
      3134       3139      1  -0.338973   0.143525     2.67982e-01     8.67002e-02
      3134       3140      1  -0.338973   0.143525     2.67982e-01     8.67002e-02
      3134       3141      1  -0.338973   0.143525     2.67982e-01     8.67002e-02
      3133       3134      1   0.172230  -0.282478     2.67982e-01     8.67002e-02
      3133       3138      1   0.172230  -0.282478     2.67982e-01     8.67002e-02
      3132       3134      1   0.172230  -0.282478     2.67982e-01     8.67002e-02
      3132       3138      1   0.172230  -0.282478     2.67982e-01     8.67002e-02
      3131       3134      1   0.172230  -0.282478     2.67982e-01     8.67002e-02
      3131       3138      1   0.172230  -0.282478     2.67982e-01     8.67002e-02
      3130       3135      1  -0.338973   0.143525     2.67982e-01     8.67002e-02
      3130       3136      1  -0.338973   0.143525     2.67982e-01     8.67002e-02
      3130       3137      1  -0.338973   0.143525     2.67982e-01     8.67002e-02
      3130       3139      1  -0.338973   0.143525     2.67982e-01     8.67002e-02
      3130       3140      1  -0.338973   0.143525     2.67982e-01     8.67002e-02
      3130       3141      1  -0.338973   0.143525     2.67982e-01     8.67002e-02
      3128       3130      1   0.136415  -0.282478     2.67982e-01     8.67002e-02
      3128       3134      1   0.136415  -0.282478     2.67982e-01     8.67002e-02
      3128       3138      1   0.136415  -0.282478     2.67982e-01     8.67002e-02
      3127       3130      1   0.136415  -0.282478     2.67982e-01     8.67002e-02
      3127       3134      1   0.136415  -0.282478     2.67982e-01     8.67002e-02
      3127       3138      1   0.136415  -0.282478     2.67982e-01     8.67002e-02
      3126       3131      1  -0.170824   0.143525     2.67982e-01     8.67002e-02
      3126       3132      1  -0.170824   0.143525     2.67982e-01     8.67002e-02
      3126       3133      1  -0.170824   0.143525     2.67982e-01     8.67002e-02
      3126       3135      1  -0.170824   0.143525     2.67982e-01     8.67002e-02
      3126       3136      1  -0.170824   0.143525     2.67982e-01     8.67002e-02
      3126       3137      1  -0.170824   0.143525     2.67982e-01     8.67002e-02
      3126       3139      1  -0.170824   0.143525     2.67982e-01     8.67002e-02
      3126       3140      1  -0.170824   0.143525     2.67982e-01     8.67002e-02
      3126       3141      1  -0.170824   0.143525     2.67982e-01     8.67002e-02
      3125       3127      1   0.078534   0.113679     2.21567e-01     3.28444e-02
      3125       3128      1   0.078534   0.113679     2.21567e-01     3.28444e-02
      3125       3129      1   0.078534   0.204385     2.86068e-01     1.08078e-01
      3124       3127      1   0.078534   0.113679     2.21567e-01     3.28444e-02
      3124       3128      1   0.078534   0.113679     2.21567e-01     3.28444e-02
      3124       3129      1   0.078534   0.204385     2.86068e-01     1.08078e-01
      3122       3127      1  -0.508176   0.113679     2.47999e-01     1.08078e-01
      3122       3128      1  -0.508176   0.113679     2.47999e-01     1.08078e-01
      3121       3124      1   1.339721   0.065445     3.10656e-01     1.17227e-01
      3121       3125      1   1.339721   0.065445     3.10656e-01     1.17227e-01
      3119       3144      1   0.095591  -0.460790     2.73568e-01     1.08078e-01
      3119       3121      1   0.095591   1.116434     3.10656e-01     1.17227e-01
      3118       3144      1   0.095591  -0.460790     2.73568e-01     1.08078e-01
      3118       3121      1   0.095591   1.116434     3.10656e-01     1.17227e-01
      3116       3118      1   0.063253   0.079659     2.47135e-01     3.28444e-02
      3116       3119      1   0.063253   0.079659     2.47135e-01     3.28444e-02
      3116       3120      1   0.063253  -0.424567     2.73568e-01     1.08078e-01
      3116       3145      1   0.063253   0.748011     2.93551e-01     7.68707e-02
      3114       3116      1   0.070469   0.052711     2.47135e-01     3.28444e-02
      3114       3117      1   0.070469   0.014549     2.93551e-01     8.67002e-02
      3114       3144      1   0.070469  -0.460790     2.73568e-01     1.08078e-01
      3113       3116      1   0.070469   0.052711     2.47135e-01     3.28444e-02
      3113       3117      1   0.070469   0.014549     2.93551e-01     8.67002e-02
      3113       3144      1   0.070469  -0.460790     2.73568e-01     1.08078e-01
      3112       3118      1   0.196939   0.079659     2.93551e-01     8.67002e-02
      3112       3119      1   0.196939   0.079659     2.93551e-01     8.67002e-02
      3111       3116      1  -0.575489   0.052711     2.73568e-01     1.08078e-01
      3109       3113      1   0.910403   0.058724     2.93551e-01     7.68707e-02
      3109       3114      1   0.910403   0.058724     2.93551e-01     7.68707e-02
      3183       3186      1   0.018859   0.044953     2.60142e-01     2.09200e-02
      3183       3185      1   0.018859   0.044953     2.60142e-01     2.09200e-02
      3182       3186      1   0.018859   0.044953     2.60142e-01     2.09200e-02
      3182       3185      1   0.018859   0.044953     2.60142e-01     2.09200e-02
      3180       3184      1   0.020431  -0.136833     3.00055e-01     6.91943e-02
      3180       3183      1   0.020431   0.015716     2.60142e-01     2.09200e-02
      3180       3182      1   0.020431   0.015716     2.60142e-01     2.09200e-02
      3179       3184      1   0.020431  -0.136833     3.00055e-01     6.91943e-02
      3179       3183      1   0.020431   0.015716     2.60142e-01     2.09200e-02
      3179       3182      1   0.020431   0.015716     2.60142e-01     2.09200e-02
      3178       3186      1  -0.026954   0.044953     3.00055e-01     6.91943e-02
      3178       3185      1  -0.026954   0.044953     3.00055e-01     6.91943e-02
      3177       3181      1   0.010573  -0.002029     3.00055e-01     6.91943e-02
      3177       3180      1   0.010573   0.017026     2.60142e-01     2.09200e-02
      3177       3179      1   0.010573   0.017026     2.60142e-01     2.09200e-02
      3176       3181      1   0.010573  -0.002029     3.00055e-01     6.91943e-02
      3176       3180      1   0.010573   0.017026     2.60142e-01     2.09200e-02
      3176       3179      1   0.010573   0.017026     2.60142e-01     2.09200e-02
      3175       3183      1  -0.016521   0.015716     3.00055e-01     6.91943e-02
      3175       3182      1  -0.016521   0.015716     3.00055e-01     6.91943e-02
      3174       3178      1   0.011511  -0.022462     3.00055e-01     6.91943e-02
      3174       3176      1   0.011511   0.008811     2.60142e-01     2.09200e-02
      3174       3177      1   0.011511   0.008811     2.60142e-01     2.09200e-02
      3173       3178      1   0.011511  -0.022462     3.00055e-01     6.91943e-02
      3173       3176      1   0.011511   0.008811     2.60142e-01     2.09200e-02
      3173       3177      1   0.011511   0.008811     2.60142e-01     2.09200e-02
      3172       3180      1  -0.027812   0.017026     3.00055e-01     6.91943e-02
      3172       3179      1  -0.027812   0.017026     3.00055e-01     6.91943e-02
      3171       3175      1   0.006833  -0.013767     3.00055e-01     6.91943e-02
      3171       3173      1   0.006833   0.009592     2.60142e-01     2.09200e-02
      3171       3174      1   0.006833   0.009592     2.60142e-01     2.09200e-02
      3170       3175      1   0.006833  -0.013767     3.00055e-01     6.91943e-02
      3170       3173      1   0.006833   0.009592     2.60142e-01     2.09200e-02
      3170       3174      1   0.006833   0.009592     2.60142e-01     2.09200e-02
      3169       3176      1  -0.004386   0.008811     3.00055e-01     6.91943e-02
      3169       3177      1  -0.004386   0.008811     3.00055e-01     6.91943e-02
      3168       3172      1   0.011241  -0.023177     3.00055e-01     6.91943e-02
      3168       3170      1   0.011241   0.005694     2.60142e-01     2.09200e-02
      3168       3171      1   0.011241   0.005694     2.60142e-01     2.09200e-02
      3167       3172      1   0.011241  -0.023177     3.00055e-01     6.91943e-02
      3167       3170      1   0.011241   0.005694     2.60142e-01     2.09200e-02
      3167       3171      1   0.011241   0.005694     2.60142e-01     2.09200e-02
      3166       3173      1  -0.026451   0.009592     3.00055e-01     6.91943e-02
      3166       3174      1  -0.026451   0.009592     3.00055e-01     6.91943e-02
      3165       3169      1   0.010172  -0.003655     3.00055e-01     6.91943e-02
      3165       3168      1   0.010172   0.009367     2.60142e-01     2.09200e-02
      3165       3167      1   0.010172   0.009367     2.60142e-01     2.09200e-02
      3164       3169      1   0.010172  -0.003655     3.00055e-01     6.91943e-02
      3164       3168      1   0.010172   0.009367     2.60142e-01     2.09200e-02
      3164       3167      1   0.010172   0.009367     2.60142e-01     2.09200e-02
      3163       3170      1  -0.014653   0.005694     3.00055e-01     6.91943e-02
      3163       3171      1  -0.014653   0.005694     3.00055e-01     6.91943e-02
      3162       3166      1   0.010037  -0.022042     3.00055e-01     6.91943e-02
      3162       3164      1   0.010037   0.008477     2.60142e-01     2.09200e-02
      3162       3165      1   0.010037   0.008477     2.60142e-01     2.09200e-02
      3161       3166      1   0.010037  -0.022042     3.00055e-01     6.91943e-02
      3161       3164      1   0.010037   0.008477     2.60142e-01     2.09200e-02
      3161       3165      1   0.010037   0.008477     2.60142e-01     2.09200e-02
      3160       3168      1  -0.021025   0.009367     3.00055e-01     6.91943e-02
      3160       3167      1  -0.021025   0.009367     3.00055e-01     6.91943e-02
      3159       3163      1   0.012677  -0.012211     3.00055e-01     6.91943e-02
      3159       3162      1   0.012677   0.008364     2.60142e-01     2.09200e-02
      3159       3161      1   0.012677   0.008364     2.60142e-01     2.09200e-02
      3158       3163      1   0.012677  -0.012211     3.00055e-01     6.91943e-02
      3158       3162      1   0.012677   0.008364     2.60142e-01     2.09200e-02
      3158       3161      1   0.012677   0.008364     2.60142e-01     2.09200e-02
      3157       3164      1  -0.031787   0.008477     3.00055e-01     6.91943e-02
      3157       3165      1  -0.031787   0.008477     3.00055e-01     6.91943e-02
      3156       3160      1   0.017208  -0.017521     3.00055e-01     6.91943e-02
      3156       3158      1   0.017208   0.010564     2.60142e-01     2.09200e-02
      3156       3159      1   0.017208   0.010564     2.60142e-01     2.09200e-02
      3155       3160      1   0.017208  -0.017521     3.00055e-01     6.91943e-02
      3155       3158      1   0.017208   0.010564     2.60142e-01     2.09200e-02
      3155       3159      1   0.017208   0.010564     2.60142e-01     2.09200e-02
      3154       3162      1  -0.028094   0.008364     3.00055e-01     6.91943e-02
      3154       3161      1  -0.028094   0.008364     3.00055e-01     6.91943e-02
      3153       3157      1   0.007531  -0.026489     3.00055e-01     6.91943e-02
      3153       3156      1   0.007531   0.014340     2.60142e-01     2.09200e-02
      3153       3155      1   0.007531   0.014340     2.60142e-01     2.09200e-02
      3152       3157      1   0.007531  -0.026489     3.00055e-01     6.91943e-02
      3152       3156      1   0.007531   0.014340     2.60142e-01     2.09200e-02
      3152       3155      1   0.007531   0.014340     2.60142e-01     2.09200e-02
      3151       3158      1   0.017463   0.010564     3.00055e-01     6.91943e-02
      3151       3159      1   0.017463   0.010564     3.00055e-01     6.91943e-02
      3150       3154      1   0.025511  -0.023412     3.00055e-01     6.91943e-02
      3150       3152      1   0.025511   0.006276     2.60142e-01     2.09200e-02
      3150       3153      1   0.025511   0.006276     2.60142e-01     2.09200e-02
      3149       3154      1   0.025511  -0.023412     3.00055e-01     6.91943e-02
      3149       3152      1   0.025511   0.006276     2.60142e-01     2.09200e-02
      3149       3153      1   0.025511   0.006276     2.60142e-01     2.09200e-02
      3148       3156      1  -0.111712   0.014340     3.00055e-01     6.91943e-02
      3148       3155      1  -0.111712   0.014340     3.00055e-01     6.91943e-02
      3147       3154      1   0.025511  -0.023412     3.00055e-01     6.91943e-02
      3147       3152      1   0.025511   0.006276     2.60142e-01     2.09200e-02
      3147       3153      1   0.025511   0.006276     2.60142e-01     2.09200e-02
      3226       3228      1   0.053944  -0.559638     2.78067e-01     9.58675e-02
      3226       3229      1   0.053944  -0.479574     2.80072e-01     8.62554e-02
      3225       3228      1   0.053944  -0.559638     2.78067e-01     9.58675e-02
      3225       3229      1   0.053944  -0.479574     2.80072e-01     8.62554e-02
      3223       3226      1   0.018859   0.044953     2.60142e-01     2.09200e-02
      3223       3225      1   0.018859   0.044953     2.60142e-01     2.09200e-02
      3223       3227      1   0.018859   0.758669     3.00055e-01     6.13495e-02
      3222       3226      1   0.018859   0.044953     2.60142e-01     2.09200e-02
      3222       3225      1   0.018859   0.044953     2.60142e-01     2.09200e-02
      3222       3227      1   0.018859   0.758669     3.00055e-01     6.13495e-02
      3220       3224      1   0.020431  -0.136833     3.00055e-01     6.91943e-02
      3220       3223      1   0.020431   0.015716     2.60142e-01     2.09200e-02
      3220       3222      1   0.020431   0.015716     2.60142e-01     2.09200e-02
      3219       3224      1   0.020431  -0.136833     3.00055e-01     6.91943e-02
      3219       3223      1   0.020431   0.015716     2.60142e-01     2.09200e-02
      3219       3222      1   0.020431   0.015716     2.60142e-01     2.09200e-02
      3218       3226      1  -0.026954   0.044953     3.00055e-01     6.91943e-02
      3218       3225      1  -0.026954   0.044953     3.00055e-01     6.91943e-02
      3217       3221      1   0.010573  -0.002029     3.00055e-01     6.91943e-02
      3217       3220      1   0.010573   0.017026     2.60142e-01     2.09200e-02
      3217       3219      1   0.010573   0.017026     2.60142e-01     2.09200e-02
      3216       3221      1   0.010573  -0.002029     3.00055e-01     6.91943e-02
      3216       3220      1   0.010573   0.017026     2.60142e-01     2.09200e-02
      3216       3219      1   0.010573   0.017026     2.60142e-01     2.09200e-02
      3215       3223      1  -0.016521   0.015716     3.00055e-01     6.91943e-02
      3215       3222      1  -0.016521   0.015716     3.00055e-01     6.91943e-02
      3214       3218      1   0.011511  -0.022462     3.00055e-01     6.91943e-02
      3214       3216      1   0.011511   0.008811     2.60142e-01     2.09200e-02
      3214       3217      1   0.011511   0.008811     2.60142e-01     2.09200e-02
      3213       3218      1   0.011511  -0.022462     3.00055e-01     6.91943e-02
      3213       3216      1   0.011511   0.008811     2.60142e-01     2.09200e-02
      3213       3217      1   0.011511   0.008811     2.60142e-01     2.09200e-02
      3212       3220      1  -0.027812   0.017026     3.00055e-01     6.91943e-02
      3212       3219      1  -0.027812   0.017026     3.00055e-01     6.91943e-02
      3211       3215      1   0.006833  -0.013767     3.00055e-01     6.91943e-02
      3211       3213      1   0.006833   0.009592     2.60142e-01     2.09200e-02
      3211       3214      1   0.006833   0.009592     2.60142e-01     2.09200e-02
      3210       3215      1   0.006833  -0.013767     3.00055e-01     6.91943e-02
      3210       3213      1   0.006833   0.009592     2.60142e-01     2.09200e-02
      3210       3214      1   0.006833   0.009592     2.60142e-01     2.09200e-02
      3209       3216      1  -0.004386   0.008811     3.00055e-01     6.91943e-02
      3209       3217      1  -0.004386   0.008811     3.00055e-01     6.91943e-02
      3208       3212      1   0.011241  -0.023177     3.00055e-01     6.91943e-02
      3208       3210      1   0.011241   0.005694     2.60142e-01     2.09200e-02
      3208       3211      1   0.011241   0.005694     2.60142e-01     2.09200e-02
      3207       3212      1   0.011241  -0.023177     3.00055e-01     6.91943e-02
      3207       3210      1   0.011241   0.005694     2.60142e-01     2.09200e-02
      3207       3211      1   0.011241   0.005694     2.60142e-01     2.09200e-02
      3206       3213      1  -0.026451   0.009592     3.00055e-01     6.91943e-02
      3206       3214      1  -0.026451   0.009592     3.00055e-01     6.91943e-02
      3205       3209      1   0.010172  -0.003655     3.00055e-01     6.91943e-02
      3205       3208      1   0.010172   0.009367     2.60142e-01     2.09200e-02
      3205       3207      1   0.010172   0.009367     2.60142e-01     2.09200e-02
      3204       3209      1   0.010172  -0.003655     3.00055e-01     6.91943e-02
      3204       3208      1   0.010172   0.009367     2.60142e-01     2.09200e-02
      3204       3207      1   0.010172   0.009367     2.60142e-01     2.09200e-02
      3203       3210      1  -0.014653   0.005694     3.00055e-01     6.91943e-02
      3203       3211      1  -0.014653   0.005694     3.00055e-01     6.91943e-02
      3202       3206      1   0.010037  -0.022042     3.00055e-01     6.91943e-02
      3202       3204      1   0.010037   0.008477     2.60142e-01     2.09200e-02
      3202       3205      1   0.010037   0.008477     2.60142e-01     2.09200e-02
      3201       3206      1   0.010037  -0.022042     3.00055e-01     6.91943e-02
      3201       3204      1   0.010037   0.008477     2.60142e-01     2.09200e-02
      3201       3205      1   0.010037   0.008477     2.60142e-01     2.09200e-02
      3200       3208      1  -0.021025   0.009367     3.00055e-01     6.91943e-02
      3200       3207      1  -0.021025   0.009367     3.00055e-01     6.91943e-02
      3199       3203      1   0.012677  -0.012211     3.00055e-01     6.91943e-02
      3199       3202      1   0.012677   0.008364     2.60142e-01     2.09200e-02
      3199       3201      1   0.012677   0.008364     2.60142e-01     2.09200e-02
      3198       3203      1   0.012677  -0.012211     3.00055e-01     6.91943e-02
      3198       3202      1   0.012677   0.008364     2.60142e-01     2.09200e-02
      3198       3201      1   0.012677   0.008364     2.60142e-01     2.09200e-02
      3197       3204      1  -0.031787   0.008477     3.00055e-01     6.91943e-02
      3197       3205      1  -0.031787   0.008477     3.00055e-01     6.91943e-02
      3196       3200      1   0.017208  -0.017521     3.00055e-01     6.91943e-02
      3196       3198      1   0.017208   0.010564     2.60142e-01     2.09200e-02
      3196       3199      1   0.017208   0.010564     2.60142e-01     2.09200e-02
      3195       3200      1   0.017208  -0.017521     3.00055e-01     6.91943e-02
      3195       3198      1   0.017208   0.010564     2.60142e-01     2.09200e-02
      3195       3199      1   0.017208   0.010564     2.60142e-01     2.09200e-02
      3194       3202      1  -0.028094   0.008364     3.00055e-01     6.91943e-02
      3194       3201      1  -0.028094   0.008364     3.00055e-01     6.91943e-02
      3193       3197      1   0.007531  -0.026489     3.00055e-01     6.91943e-02
      3193       3196      1   0.007531   0.014340     2.60142e-01     2.09200e-02
      3193       3195      1   0.007531   0.014340     2.60142e-01     2.09200e-02
      3192       3197      1   0.007531  -0.026489     3.00055e-01     6.91943e-02
      3192       3196      1   0.007531   0.014340     2.60142e-01     2.09200e-02
      3192       3195      1   0.007531   0.014340     2.60142e-01     2.09200e-02
      3191       3198      1   0.017463   0.010564     3.00055e-01     6.91943e-02
      3191       3199      1   0.017463   0.010564     3.00055e-01     6.91943e-02
      3190       3194      1   0.025511  -0.023412     3.00055e-01     6.91943e-02
      3190       3192      1   0.025511   0.006276     2.60142e-01     2.09200e-02
      3190       3193      1   0.025511   0.006276     2.60142e-01     2.09200e-02
      3189       3194      1   0.025511  -0.023412     3.00055e-01     6.91943e-02
      3189       3192      1   0.025511   0.006276     2.60142e-01     2.09200e-02
      3189       3193      1   0.025511   0.006276     2.60142e-01     2.09200e-02
      3188       3196      1  -0.111712   0.014340     3.00055e-01     6.91943e-02
      3188       3195      1  -0.111712   0.014340     3.00055e-01     6.91943e-02
      3187       3194      1   0.025511  -0.023412     3.00055e-01     6.91943e-02
      3187       3192      1   0.025511   0.006276     2.60142e-01     2.09200e-02
      3187       3193      1   0.025511   0.006276     2.60142e-01     2.09200e-02
      3264       3304      1  -0.673755   0.044953     2.78067e-01     9.58675e-02
      3264       3303      1  -0.673755   0.044953     2.78067e-01     9.58675e-02
      3263       3301      1   0.897613   0.015716     3.00055e-01     6.13495e-02
      3263       3300      1   0.897613   0.015716     3.00055e-01     6.13495e-02
      3262       3304      1  -0.552948   0.044953     2.80072e-01     8.62554e-02
      3262       3303      1  -0.552948   0.044953     2.80072e-01     8.62554e-02
      3255       3256      1   0.172230  -0.282478     2.67982e-01     8.67002e-02
      3254       3256      1   0.172230  -0.282478     2.67982e-01     8.67002e-02
      3253       3256      1   0.172230  -0.282478     2.67982e-01     8.67002e-02
      3252       3257      1  -0.338973   0.143525     2.67982e-01     8.67002e-02
      3252       3258      1  -0.338973   0.143525     2.67982e-01     8.67002e-02
      3252       3259      1  -0.338973   0.143525     2.67982e-01     8.67002e-02
      3251       3252      1   0.172230  -0.282478     2.67982e-01     8.67002e-02
      3251       3256      1   0.172230  -0.282478     2.67982e-01     8.67002e-02
      3250       3252      1   0.172230  -0.282478     2.67982e-01     8.67002e-02
      3250       3256      1   0.172230  -0.282478     2.67982e-01     8.67002e-02
      3249       3252      1   0.172230  -0.282478     2.67982e-01     8.67002e-02
      3249       3256      1   0.172230  -0.282478     2.67982e-01     8.67002e-02
      3248       3253      1  -0.338973   0.143525     2.67982e-01     8.67002e-02
      3248       3254      1  -0.338973   0.143525     2.67982e-01     8.67002e-02
      3248       3255      1  -0.338973   0.143525     2.67982e-01     8.67002e-02
      3248       3257      1  -0.338973   0.143525     2.67982e-01     8.67002e-02
      3248       3258      1  -0.338973   0.143525     2.67982e-01     8.67002e-02
      3248       3259      1  -0.338973   0.143525     2.67982e-01     8.67002e-02
      3246       3248      1   0.136415  -0.282478     2.67982e-01     8.67002e-02
      3246       3252      1   0.136415  -0.282478     2.67982e-01     8.67002e-02
      3246       3256      1   0.136415  -0.282478     2.67982e-01     8.67002e-02
      3245       3248      1   0.136415  -0.282478     2.67982e-01     8.67002e-02
      3245       3252      1   0.136415  -0.282478     2.67982e-01     8.67002e-02
      3245       3256      1   0.136415  -0.282478     2.67982e-01     8.67002e-02
      3244       3249      1  -0.170824   0.143525     2.67982e-01     8.67002e-02
      3244       3250      1  -0.170824   0.143525     2.67982e-01     8.67002e-02
      3244       3251      1  -0.170824   0.143525     2.67982e-01     8.67002e-02
      3244       3253      1  -0.170824   0.143525     2.67982e-01     8.67002e-02
      3244       3254      1  -0.170824   0.143525     2.67982e-01     8.67002e-02
      3244       3255      1  -0.170824   0.143525     2.67982e-01     8.67002e-02
      3244       3257      1  -0.170824   0.143525     2.67982e-01     8.67002e-02
      3244       3258      1  -0.170824   0.143525     2.67982e-01     8.67002e-02
      3244       3259      1  -0.170824   0.143525     2.67982e-01     8.67002e-02
      3243       3245      1   0.078534   0.113679     2.21567e-01     3.28444e-02
      3243       3246      1   0.078534   0.113679     2.21567e-01     3.28444e-02
      3243       3247      1   0.078534   0.204385     2.86068e-01     1.08078e-01
      3242       3245      1   0.078534   0.113679     2.21567e-01     3.28444e-02
      3242       3246      1   0.078534   0.113679     2.21567e-01     3.28444e-02
      3242       3247      1   0.078534   0.204385     2.86068e-01     1.08078e-01
      3240       3245      1  -0.508176   0.113679     2.47999e-01     1.08078e-01
      3240       3246      1  -0.508176   0.113679     2.47999e-01     1.08078e-01
      3239       3242      1   1.339721   0.065445     3.10656e-01     1.17227e-01
      3239       3243      1   1.339721   0.065445     3.10656e-01     1.17227e-01
      3237       3262      1   0.095591  -0.460790     2.73568e-01     1.08078e-01
      3237       3239      1   0.095591   1.116434     3.10656e-01     1.17227e-01
      3236       3262      1   0.095591  -0.460790     2.73568e-01     1.08078e-01
      3236       3239      1   0.095591   1.116434     3.10656e-01     1.17227e-01
      3234       3236      1   0.063253   0.079659     2.47135e-01     3.28444e-02
      3234       3237      1   0.063253   0.079659     2.47135e-01     3.28444e-02
      3234       3238      1   0.063253  -0.424567     2.73568e-01     1.08078e-01
      3234       3263      1   0.063253   0.748011     2.93551e-01     7.68707e-02
      3232       3234      1   0.070469   0.052711     2.47135e-01     3.28444e-02
      3232       3235      1   0.070469   0.014549     2.93551e-01     8.67002e-02
      3232       3262      1   0.070469  -0.460790     2.73568e-01     1.08078e-01
      3231       3234      1   0.070469   0.052711     2.47135e-01     3.28444e-02
      3231       3235      1   0.070469   0.014549     2.93551e-01     8.67002e-02
      3231       3262      1   0.070469  -0.460790     2.73568e-01     1.08078e-01
      3230       3236      1   0.196939   0.079659     2.93551e-01     8.67002e-02
      3230       3237      1   0.196939   0.079659     2.93551e-01     8.67002e-02
      3229       3234      1  -0.575489   0.052711     2.73568e-01     1.08078e-01
      3227       3231      1   0.910403   0.058724     2.93551e-01     7.68707e-02
      3227       3232      1   0.910403   0.058724     2.93551e-01     7.68707e-02
      3301       3304      1   0.018859   0.044953     2.60142e-01     2.09200e-02
      3301       3303      1   0.018859   0.044953     2.60142e-01     2.09200e-02
      3300       3304      1   0.018859   0.044953     2.60142e-01     2.09200e-02
      3300       3303      1   0.018859   0.044953     2.60142e-01     2.09200e-02
      3298       3302      1   0.020431  -0.136833     3.00055e-01     6.91943e-02
      3298       3301      1   0.020431   0.015716     2.60142e-01     2.09200e-02
      3298       3300      1   0.020431   0.015716     2.60142e-01     2.09200e-02
      3297       3302      1   0.020431  -0.136833     3.00055e-01     6.91943e-02
      3297       3301      1   0.020431   0.015716     2.60142e-01     2.09200e-02
      3297       3300      1   0.020431   0.015716     2.60142e-01     2.09200e-02
      3296       3304      1  -0.026954   0.044953     3.00055e-01     6.91943e-02
      3296       3303      1  -0.026954   0.044953     3.00055e-01     6.91943e-02
      3295       3299      1   0.010573  -0.002029     3.00055e-01     6.91943e-02
      3295       3298      1   0.010573   0.017026     2.60142e-01     2.09200e-02
      3295       3297      1   0.010573   0.017026     2.60142e-01     2.09200e-02
      3294       3299      1   0.010573  -0.002029     3.00055e-01     6.91943e-02
      3294       3298      1   0.010573   0.017026     2.60142e-01     2.09200e-02
      3294       3297      1   0.010573   0.017026     2.60142e-01     2.09200e-02
      3293       3301      1  -0.016521   0.015716     3.00055e-01     6.91943e-02
      3293       3300      1  -0.016521   0.015716     3.00055e-01     6.91943e-02
      3292       3296      1   0.011511  -0.022462     3.00055e-01     6.91943e-02
      3292       3294      1   0.011511   0.008811     2.60142e-01     2.09200e-02
      3292       3295      1   0.011511   0.008811     2.60142e-01     2.09200e-02
      3291       3296      1   0.011511  -0.022462     3.00055e-01     6.91943e-02
      3291       3294      1   0.011511   0.008811     2.60142e-01     2.09200e-02
      3291       3295      1   0.011511   0.008811     2.60142e-01     2.09200e-02
      3290       3298      1  -0.027812   0.017026     3.00055e-01     6.91943e-02
      3290       3297      1  -0.027812   0.017026     3.00055e-01     6.91943e-02
      3289       3293      1   0.006833  -0.013767     3.00055e-01     6.91943e-02
      3289       3291      1   0.006833   0.009592     2.60142e-01     2.09200e-02
      3289       3292      1   0.006833   0.009592     2.60142e-01     2.09200e-02
      3288       3293      1   0.006833  -0.013767     3.00055e-01     6.91943e-02
      3288       3291      1   0.006833   0.009592     2.60142e-01     2.09200e-02
      3288       3292      1   0.006833   0.009592     2.60142e-01     2.09200e-02
      3287       3294      1  -0.004386   0.008811     3.00055e-01     6.91943e-02
      3287       3295      1  -0.004386   0.008811     3.00055e-01     6.91943e-02
      3286       3290      1   0.011241  -0.023177     3.00055e-01     6.91943e-02
      3286       3288      1   0.011241   0.005694     2.60142e-01     2.09200e-02
      3286       3289      1   0.011241   0.005694     2.60142e-01     2.09200e-02
      3285       3290      1   0.011241  -0.023177     3.00055e-01     6.91943e-02
      3285       3288      1   0.011241   0.005694     2.60142e-01     2.09200e-02
      3285       3289      1   0.011241   0.005694     2.60142e-01     2.09200e-02
      3284       3291      1  -0.026451   0.009592     3.00055e-01     6.91943e-02
      3284       3292      1  -0.026451   0.009592     3.00055e-01     6.91943e-02
      3283       3287      1   0.010172  -0.003655     3.00055e-01     6.91943e-02
      3283       3286      1   0.010172   0.009367     2.60142e-01     2.09200e-02
      3283       3285      1   0.010172   0.009367     2.60142e-01     2.09200e-02
      3282       3287      1   0.010172  -0.003655     3.00055e-01     6.91943e-02
      3282       3286      1   0.010172   0.009367     2.60142e-01     2.09200e-02
      3282       3285      1   0.010172   0.009367     2.60142e-01     2.09200e-02
      3281       3288      1  -0.014653   0.005694     3.00055e-01     6.91943e-02
      3281       3289      1  -0.014653   0.005694     3.00055e-01     6.91943e-02
      3280       3284      1   0.010037  -0.022042     3.00055e-01     6.91943e-02
      3280       3282      1   0.010037   0.008477     2.60142e-01     2.09200e-02
      3280       3283      1   0.010037   0.008477     2.60142e-01     2.09200e-02
      3279       3284      1   0.010037  -0.022042     3.00055e-01     6.91943e-02
      3279       3282      1   0.010037   0.008477     2.60142e-01     2.09200e-02
      3279       3283      1   0.010037   0.008477     2.60142e-01     2.09200e-02
      3278       3286      1  -0.021025   0.009367     3.00055e-01     6.91943e-02
      3278       3285      1  -0.021025   0.009367     3.00055e-01     6.91943e-02
      3277       3281      1   0.012677  -0.012211     3.00055e-01     6.91943e-02
      3277       3280      1   0.012677   0.008364     2.60142e-01     2.09200e-02
      3277       3279      1   0.012677   0.008364     2.60142e-01     2.09200e-02
      3276       3281      1   0.012677  -0.012211     3.00055e-01     6.91943e-02
      3276       3280      1   0.012677   0.008364     2.60142e-01     2.09200e-02
      3276       3279      1   0.012677   0.008364     2.60142e-01     2.09200e-02
      3275       3282      1  -0.031787   0.008477     3.00055e-01     6.91943e-02
      3275       3283      1  -0.031787   0.008477     3.00055e-01     6.91943e-02
      3274       3278      1   0.017208  -0.017521     3.00055e-01     6.91943e-02
      3274       3276      1   0.017208   0.010564     2.60142e-01     2.09200e-02
      3274       3277      1   0.017208   0.010564     2.60142e-01     2.09200e-02
      3273       3278      1   0.017208  -0.017521     3.00055e-01     6.91943e-02
      3273       3276      1   0.017208   0.010564     2.60142e-01     2.09200e-02
      3273       3277      1   0.017208   0.010564     2.60142e-01     2.09200e-02
      3272       3280      1  -0.028094   0.008364     3.00055e-01     6.91943e-02
      3272       3279      1  -0.028094   0.008364     3.00055e-01     6.91943e-02
      3271       3275      1   0.007531  -0.026489     3.00055e-01     6.91943e-02
      3271       3274      1   0.007531   0.014340     2.60142e-01     2.09200e-02
      3271       3273      1   0.007531   0.014340     2.60142e-01     2.09200e-02
      3270       3275      1   0.007531  -0.026489     3.00055e-01     6.91943e-02
      3270       3274      1   0.007531   0.014340     2.60142e-01     2.09200e-02
      3270       3273      1   0.007531   0.014340     2.60142e-01     2.09200e-02
      3269       3276      1   0.017463   0.010564     3.00055e-01     6.91943e-02
      3269       3277      1   0.017463   0.010564     3.00055e-01     6.91943e-02
      3268       3272      1   0.025511  -0.023412     3.00055e-01     6.91943e-02
      3268       3270      1   0.025511   0.006276     2.60142e-01     2.09200e-02
      3268       3271      1   0.025511   0.006276     2.60142e-01     2.09200e-02
      3267       3272      1   0.025511  -0.023412     3.00055e-01     6.91943e-02
      3267       3270      1   0.025511   0.006276     2.60142e-01     2.09200e-02
      3267       3271      1   0.025511   0.006276     2.60142e-01     2.09200e-02
      3266       3274      1  -0.111712   0.014340     3.00055e-01     6.91943e-02
      3266       3273      1  -0.111712   0.014340     3.00055e-01     6.91943e-02
      3265       3272      1   0.025511  -0.023412     3.00055e-01     6.91943e-02
      3265       3270      1   0.025511   0.006276     2.60142e-01     2.09200e-02
      3265       3271      1   0.025511   0.006276     2.60142e-01     2.09200e-02
      3344       3346      1   0.053944  -0.559638     2.78067e-01     9.58675e-02
      3344       3347      1   0.053944  -0.479574     2.80072e-01     8.62554e-02
      3343       3346      1   0.053944  -0.559638     2.78067e-01     9.58675e-02
      3343       3347      1   0.053944  -0.479574     2.80072e-01     8.62554e-02
      3341       3344      1   0.018859   0.044953     2.60142e-01     2.09200e-02
      3341       3343      1   0.018859   0.044953     2.60142e-01     2.09200e-02
      3341       3345      1   0.018859   0.758669     3.00055e-01     6.13495e-02
      3340       3344      1   0.018859   0.044953     2.60142e-01     2.09200e-02
      3340       3343      1   0.018859   0.044953     2.60142e-01     2.09200e-02
      3340       3345      1   0.018859   0.758669     3.00055e-01     6.13495e-02
      3338       3342      1   0.020431  -0.136833     3.00055e-01     6.91943e-02
      3338       3341      1   0.020431   0.015716     2.60142e-01     2.09200e-02
      3338       3340      1   0.020431   0.015716     2.60142e-01     2.09200e-02
      3337       3342      1   0.020431  -0.136833     3.00055e-01     6.91943e-02
      3337       3341      1   0.020431   0.015716     2.60142e-01     2.09200e-02
      3337       3340      1   0.020431   0.015716     2.60142e-01     2.09200e-02
      3336       3344      1  -0.026954   0.044953     3.00055e-01     6.91943e-02
      3336       3343      1  -0.026954   0.044953     3.00055e-01     6.91943e-02
      3335       3339      1   0.010573  -0.002029     3.00055e-01     6.91943e-02
      3335       3338      1   0.010573   0.017026     2.60142e-01     2.09200e-02
      3335       3337      1   0.010573   0.017026     2.60142e-01     2.09200e-02
      3334       3339      1   0.010573  -0.002029     3.00055e-01     6.91943e-02
      3334       3338      1   0.010573   0.017026     2.60142e-01     2.09200e-02
      3334       3337      1   0.010573   0.017026     2.60142e-01     2.09200e-02
      3333       3341      1  -0.016521   0.015716     3.00055e-01     6.91943e-02
      3333       3340      1  -0.016521   0.015716     3.00055e-01     6.91943e-02
      3332       3336      1   0.011511  -0.022462     3.00055e-01     6.91943e-02
      3332       3334      1   0.011511   0.008811     2.60142e-01     2.09200e-02
      3332       3335      1   0.011511   0.008811     2.60142e-01     2.09200e-02
      3331       3336      1   0.011511  -0.022462     3.00055e-01     6.91943e-02
      3331       3334      1   0.011511   0.008811     2.60142e-01     2.09200e-02
      3331       3335      1   0.011511   0.008811     2.60142e-01     2.09200e-02
      3330       3338      1  -0.027812   0.017026     3.00055e-01     6.91943e-02
      3330       3337      1  -0.027812   0.017026     3.00055e-01     6.91943e-02
      3329       3333      1   0.006833  -0.013767     3.00055e-01     6.91943e-02
      3329       3331      1   0.006833   0.009592     2.60142e-01     2.09200e-02
      3329       3332      1   0.006833   0.009592     2.60142e-01     2.09200e-02
      3328       3333      1   0.006833  -0.013767     3.00055e-01     6.91943e-02
      3328       3331      1   0.006833   0.009592     2.60142e-01     2.09200e-02
      3328       3332      1   0.006833   0.009592     2.60142e-01     2.09200e-02
      3327       3334      1  -0.004386   0.008811     3.00055e-01     6.91943e-02
      3327       3335      1  -0.004386   0.008811     3.00055e-01     6.91943e-02
      3326       3330      1   0.011241  -0.023177     3.00055e-01     6.91943e-02
      3326       3328      1   0.011241   0.005694     2.60142e-01     2.09200e-02
      3326       3329      1   0.011241   0.005694     2.60142e-01     2.09200e-02
      3325       3330      1   0.011241  -0.023177     3.00055e-01     6.91943e-02
      3325       3328      1   0.011241   0.005694     2.60142e-01     2.09200e-02
      3325       3329      1   0.011241   0.005694     2.60142e-01     2.09200e-02
      3324       3331      1  -0.026451   0.009592     3.00055e-01     6.91943e-02
      3324       3332      1  -0.026451   0.009592     3.00055e-01     6.91943e-02
      3323       3327      1   0.010172  -0.003655     3.00055e-01     6.91943e-02
      3323       3326      1   0.010172   0.009367     2.60142e-01     2.09200e-02
      3323       3325      1   0.010172   0.009367     2.60142e-01     2.09200e-02
      3322       3327      1   0.010172  -0.003655     3.00055e-01     6.91943e-02
      3322       3326      1   0.010172   0.009367     2.60142e-01     2.09200e-02
      3322       3325      1   0.010172   0.009367     2.60142e-01     2.09200e-02
      3321       3328      1  -0.014653   0.005694     3.00055e-01     6.91943e-02
      3321       3329      1  -0.014653   0.005694     3.00055e-01     6.91943e-02
      3320       3324      1   0.010037  -0.022042     3.00055e-01     6.91943e-02
      3320       3322      1   0.010037   0.008477     2.60142e-01     2.09200e-02
      3320       3323      1   0.010037   0.008477     2.60142e-01     2.09200e-02
      3319       3324      1   0.010037  -0.022042     3.00055e-01     6.91943e-02
      3319       3322      1   0.010037   0.008477     2.60142e-01     2.09200e-02
      3319       3323      1   0.010037   0.008477     2.60142e-01     2.09200e-02
      3318       3326      1  -0.021025   0.009367     3.00055e-01     6.91943e-02
      3318       3325      1  -0.021025   0.009367     3.00055e-01     6.91943e-02
      3317       3321      1   0.012677  -0.012211     3.00055e-01     6.91943e-02
      3317       3320      1   0.012677   0.008364     2.60142e-01     2.09200e-02
      3317       3319      1   0.012677   0.008364     2.60142e-01     2.09200e-02
      3316       3321      1   0.012677  -0.012211     3.00055e-01     6.91943e-02
      3316       3320      1   0.012677   0.008364     2.60142e-01     2.09200e-02
      3316       3319      1   0.012677   0.008364     2.60142e-01     2.09200e-02
      3315       3322      1  -0.031787   0.008477     3.00055e-01     6.91943e-02
      3315       3323      1  -0.031787   0.008477     3.00055e-01     6.91943e-02
      3314       3318      1   0.017208  -0.017521     3.00055e-01     6.91943e-02
      3314       3316      1   0.017208   0.010564     2.60142e-01     2.09200e-02
      3314       3317      1   0.017208   0.010564     2.60142e-01     2.09200e-02
      3313       3318      1   0.017208  -0.017521     3.00055e-01     6.91943e-02
      3313       3316      1   0.017208   0.010564     2.60142e-01     2.09200e-02
      3313       3317      1   0.017208   0.010564     2.60142e-01     2.09200e-02
      3312       3320      1  -0.028094   0.008364     3.00055e-01     6.91943e-02
      3312       3319      1  -0.028094   0.008364     3.00055e-01     6.91943e-02
      3311       3315      1   0.007531  -0.026489     3.00055e-01     6.91943e-02
      3311       3314      1   0.007531   0.014340     2.60142e-01     2.09200e-02
      3311       3313      1   0.007531   0.014340     2.60142e-01     2.09200e-02
      3310       3315      1   0.007531  -0.026489     3.00055e-01     6.91943e-02
      3310       3314      1   0.007531   0.014340     2.60142e-01     2.09200e-02
      3310       3313      1   0.007531   0.014340     2.60142e-01     2.09200e-02
      3309       3316      1   0.017463   0.010564     3.00055e-01     6.91943e-02
      3309       3317      1   0.017463   0.010564     3.00055e-01     6.91943e-02
      3308       3312      1   0.025511  -0.023412     3.00055e-01     6.91943e-02
      3308       3310      1   0.025511   0.006276     2.60142e-01     2.09200e-02
      3308       3311      1   0.025511   0.006276     2.60142e-01     2.09200e-02
      3307       3312      1   0.025511  -0.023412     3.00055e-01     6.91943e-02
      3307       3310      1   0.025511   0.006276     2.60142e-01     2.09200e-02
      3307       3311      1   0.025511   0.006276     2.60142e-01     2.09200e-02
      3306       3314      1  -0.111712   0.014340     3.00055e-01     6.91943e-02
      3306       3313      1  -0.111712   0.014340     3.00055e-01     6.91943e-02
      3305       3312      1   0.025511  -0.023412     3.00055e-01     6.91943e-02
      3305       3310      1   0.025511   0.006276     2.60142e-01     2.09200e-02
      3305       3311      1   0.025511   0.006276     2.60142e-01     2.09200e-02
      3382       3422      1  -0.673755   0.044953     2.78067e-01     9.58675e-02
      3382       3421      1  -0.673755   0.044953     2.78067e-01     9.58675e-02
      3381       3419      1   0.897613   0.015716     3.00055e-01     6.13495e-02
      3381       3418      1   0.897613   0.015716     3.00055e-01     6.13495e-02
      3380       3422      1  -0.552948   0.044953     2.80072e-01     8.62554e-02
      3380       3421      1  -0.552948   0.044953     2.80072e-01     8.62554e-02
      3373       3374      1   0.172230  -0.282478     2.67982e-01     8.67002e-02
      3372       3374      1   0.172230  -0.282478     2.67982e-01     8.67002e-02
      3371       3374      1   0.172230  -0.282478     2.67982e-01     8.67002e-02
      3370       3375      1  -0.338973   0.143525     2.67982e-01     8.67002e-02
      3370       3376      1  -0.338973   0.143525     2.67982e-01     8.67002e-02
      3370       3377      1  -0.338973   0.143525     2.67982e-01     8.67002e-02
      3369       3370      1   0.172230  -0.282478     2.67982e-01     8.67002e-02
      3369       3374      1   0.172230  -0.282478     2.67982e-01     8.67002e-02
      3368       3370      1   0.172230  -0.282478     2.67982e-01     8.67002e-02
      3368       3374      1   0.172230  -0.282478     2.67982e-01     8.67002e-02
      3367       3370      1   0.172230  -0.282478     2.67982e-01     8.67002e-02
      3367       3374      1   0.172230  -0.282478     2.67982e-01     8.67002e-02
      3366       3371      1  -0.338973   0.143525     2.67982e-01     8.67002e-02
      3366       3372      1  -0.338973   0.143525     2.67982e-01     8.67002e-02
      3366       3373      1  -0.338973   0.143525     2.67982e-01     8.67002e-02
      3366       3375      1  -0.338973   0.143525     2.67982e-01     8.67002e-02
      3366       3376      1  -0.338973   0.143525     2.67982e-01     8.67002e-02
      3366       3377      1  -0.338973   0.143525     2.67982e-01     8.67002e-02
      3364       3366      1   0.136415  -0.282478     2.67982e-01     8.67002e-02
      3364       3370      1   0.136415  -0.282478     2.67982e-01     8.67002e-02
      3364       3374      1   0.136415  -0.282478     2.67982e-01     8.67002e-02
      3363       3366      1   0.136415  -0.282478     2.67982e-01     8.67002e-02
      3363       3370      1   0.136415  -0.282478     2.67982e-01     8.67002e-02
      3363       3374      1   0.136415  -0.282478     2.67982e-01     8.67002e-02
      3362       3367      1  -0.170824   0.143525     2.67982e-01     8.67002e-02
      3362       3368      1  -0.170824   0.143525     2.67982e-01     8.67002e-02
      3362       3369      1  -0.170824   0.143525     2.67982e-01     8.67002e-02
      3362       3371      1  -0.170824   0.143525     2.67982e-01     8.67002e-02
      3362       3372      1  -0.170824   0.143525     2.67982e-01     8.67002e-02
      3362       3373      1  -0.170824   0.143525     2.67982e-01     8.67002e-02
      3362       3375      1  -0.170824   0.143525     2.67982e-01     8.67002e-02
      3362       3376      1  -0.170824   0.143525     2.67982e-01     8.67002e-02
      3362       3377      1  -0.170824   0.143525     2.67982e-01     8.67002e-02
      3361       3363      1   0.078534   0.113679     2.21567e-01     3.28444e-02
      3361       3364      1   0.078534   0.113679     2.21567e-01     3.28444e-02
      3361       3365      1   0.078534   0.204385     2.86068e-01     1.08078e-01
      3360       3363      1   0.078534   0.113679     2.21567e-01     3.28444e-02
      3360       3364      1   0.078534   0.113679     2.21567e-01     3.28444e-02
      3360       3365      1   0.078534   0.204385     2.86068e-01     1.08078e-01
      3358       3363      1  -0.508176   0.113679     2.47999e-01     1.08078e-01
      3358       3364      1  -0.508176   0.113679     2.47999e-01     1.08078e-01
      3357       3360      1   1.339721   0.065445     3.10656e-01     1.17227e-01
      3357       3361      1   1.339721   0.065445     3.10656e-01     1.17227e-01
      3355       3380      1   0.095591  -0.460790     2.73568e-01     1.08078e-01
      3355       3357      1   0.095591   1.116434     3.10656e-01     1.17227e-01
      3354       3380      1   0.095591  -0.460790     2.73568e-01     1.08078e-01
      3354       3357      1   0.095591   1.116434     3.10656e-01     1.17227e-01
      3352       3354      1   0.063253   0.079659     2.47135e-01     3.28444e-02
      3352       3355      1   0.063253   0.079659     2.47135e-01     3.28444e-02
      3352       3356      1   0.063253  -0.424567     2.73568e-01     1.08078e-01
      3352       3381      1   0.063253   0.748011     2.93551e-01     7.68707e-02
      3350       3352      1   0.070469   0.052711     2.47135e-01     3.28444e-02
      3350       3353      1   0.070469   0.014549     2.93551e-01     8.67002e-02
      3350       3380      1   0.070469  -0.460790     2.73568e-01     1.08078e-01
      3349       3352      1   0.070469   0.052711     2.47135e-01     3.28444e-02
      3349       3353      1   0.070469   0.014549     2.93551e-01     8.67002e-02
      3349       3380      1   0.070469  -0.460790     2.73568e-01     1.08078e-01
      3348       3354      1   0.196939   0.079659     2.93551e-01     8.67002e-02
      3348       3355      1   0.196939   0.079659     2.93551e-01     8.67002e-02
      3347       3352      1  -0.575489   0.052711     2.73568e-01     1.08078e-01
      3345       3349      1   0.910403   0.058724     2.93551e-01     7.68707e-02
      3345       3350      1   0.910403   0.058724     2.93551e-01     7.68707e-02
      3419       3422      1   0.018859   0.044953     2.60142e-01     2.09200e-02
      3419       3421      1   0.018859   0.044953     2.60142e-01     2.09200e-02
      3418       3422      1   0.018859   0.044953     2.60142e-01     2.09200e-02
      3418       3421      1   0.018859   0.044953     2.60142e-01     2.09200e-02
      3416       3420      1   0.020431  -0.136833     3.00055e-01     6.91943e-02
      3416       3419      1   0.020431   0.015716     2.60142e-01     2.09200e-02
      3416       3418      1   0.020431   0.015716     2.60142e-01     2.09200e-02
      3415       3420      1   0.020431  -0.136833     3.00055e-01     6.91943e-02
      3415       3419      1   0.020431   0.015716     2.60142e-01     2.09200e-02
      3415       3418      1   0.020431   0.015716     2.60142e-01     2.09200e-02
      3414       3422      1  -0.026954   0.044953     3.00055e-01     6.91943e-02
      3414       3421      1  -0.026954   0.044953     3.00055e-01     6.91943e-02
      3413       3417      1   0.010573  -0.002029     3.00055e-01     6.91943e-02
      3413       3416      1   0.010573   0.017026     2.60142e-01     2.09200e-02
      3413       3415      1   0.010573   0.017026     2.60142e-01     2.09200e-02
      3412       3417      1   0.010573  -0.002029     3.00055e-01     6.91943e-02
      3412       3416      1   0.010573   0.017026     2.60142e-01     2.09200e-02
      3412       3415      1   0.010573   0.017026     2.60142e-01     2.09200e-02
      3411       3419      1  -0.016521   0.015716     3.00055e-01     6.91943e-02
      3411       3418      1  -0.016521   0.015716     3.00055e-01     6.91943e-02
      3410       3414      1   0.011511  -0.022462     3.00055e-01     6.91943e-02
      3410       3412      1   0.011511   0.008811     2.60142e-01     2.09200e-02
      3410       3413      1   0.011511   0.008811     2.60142e-01     2.09200e-02
      3409       3414      1   0.011511  -0.022462     3.00055e-01     6.91943e-02
      3409       3412      1   0.011511   0.008811     2.60142e-01     2.09200e-02
      3409       3413      1   0.011511   0.008811     2.60142e-01     2.09200e-02
      3408       3416      1  -0.027812   0.017026     3.00055e-01     6.91943e-02
      3408       3415      1  -0.027812   0.017026     3.00055e-01     6.91943e-02
      3407       3411      1   0.006833  -0.013767     3.00055e-01     6.91943e-02
      3407       3409      1   0.006833   0.009592     2.60142e-01     2.09200e-02
      3407       3410      1   0.006833   0.009592     2.60142e-01     2.09200e-02
      3406       3411      1   0.006833  -0.013767     3.00055e-01     6.91943e-02
      3406       3409      1   0.006833   0.009592     2.60142e-01     2.09200e-02
      3406       3410      1   0.006833   0.009592     2.60142e-01     2.09200e-02
      3405       3412      1  -0.004386   0.008811     3.00055e-01     6.91943e-02
      3405       3413      1  -0.004386   0.008811     3.00055e-01     6.91943e-02
      3404       3408      1   0.011241  -0.023177     3.00055e-01     6.91943e-02
      3404       3406      1   0.011241   0.005694     2.60142e-01     2.09200e-02
      3404       3407      1   0.011241   0.005694     2.60142e-01     2.09200e-02
      3403       3408      1   0.011241  -0.023177     3.00055e-01     6.91943e-02
      3403       3406      1   0.011241   0.005694     2.60142e-01     2.09200e-02
      3403       3407      1   0.011241   0.005694     2.60142e-01     2.09200e-02
      3402       3409      1  -0.026451   0.009592     3.00055e-01     6.91943e-02
      3402       3410      1  -0.026451   0.009592     3.00055e-01     6.91943e-02
      3401       3405      1   0.010172  -0.003655     3.00055e-01     6.91943e-02
      3401       3404      1   0.010172   0.009367     2.60142e-01     2.09200e-02
      3401       3403      1   0.010172   0.009367     2.60142e-01     2.09200e-02
      3400       3405      1   0.010172  -0.003655     3.00055e-01     6.91943e-02
      3400       3404      1   0.010172   0.009367     2.60142e-01     2.09200e-02
      3400       3403      1   0.010172   0.009367     2.60142e-01     2.09200e-02
      3399       3406      1  -0.014653   0.005694     3.00055e-01     6.91943e-02
      3399       3407      1  -0.014653   0.005694     3.00055e-01     6.91943e-02
      3398       3402      1   0.010037  -0.022042     3.00055e-01     6.91943e-02
      3398       3400      1   0.010037   0.008477     2.60142e-01     2.09200e-02
      3398       3401      1   0.010037   0.008477     2.60142e-01     2.09200e-02
      3397       3402      1   0.010037  -0.022042     3.00055e-01     6.91943e-02
      3397       3400      1   0.010037   0.008477     2.60142e-01     2.09200e-02
      3397       3401      1   0.010037   0.008477     2.60142e-01     2.09200e-02
      3396       3404      1  -0.021025   0.009367     3.00055e-01     6.91943e-02
      3396       3403      1  -0.021025   0.009367     3.00055e-01     6.91943e-02
      3395       3399      1   0.012677  -0.012211     3.00055e-01     6.91943e-02
      3395       3398      1   0.012677   0.008364     2.60142e-01     2.09200e-02
      3395       3397      1   0.012677   0.008364     2.60142e-01     2.09200e-02
      3394       3399      1   0.012677  -0.012211     3.00055e-01     6.91943e-02
      3394       3398      1   0.012677   0.008364     2.60142e-01     2.09200e-02
      3394       3397      1   0.012677   0.008364     2.60142e-01     2.09200e-02
      3393       3400      1  -0.031787   0.008477     3.00055e-01     6.91943e-02
      3393       3401      1  -0.031787   0.008477     3.00055e-01     6.91943e-02
      3392       3396      1   0.017208  -0.017521     3.00055e-01     6.91943e-02
      3392       3394      1   0.017208   0.010564     2.60142e-01     2.09200e-02
      3392       3395      1   0.017208   0.010564     2.60142e-01     2.09200e-02
      3391       3396      1   0.017208  -0.017521     3.00055e-01     6.91943e-02
      3391       3394      1   0.017208   0.010564     2.60142e-01     2.09200e-02
      3391       3395      1   0.017208   0.010564     2.60142e-01     2.09200e-02
      3390       3398      1  -0.028094   0.008364     3.00055e-01     6.91943e-02
      3390       3397      1  -0.028094   0.008364     3.00055e-01     6.91943e-02
      3389       3393      1   0.007531  -0.026489     3.00055e-01     6.91943e-02
      3389       3392      1   0.007531   0.014340     2.60142e-01     2.09200e-02
      3389       3391      1   0.007531   0.014340     2.60142e-01     2.09200e-02
      3388       3393      1   0.007531  -0.026489     3.00055e-01     6.91943e-02
      3388       3392      1   0.007531   0.014340     2.60142e-01     2.09200e-02
      3388       3391      1   0.007531   0.014340     2.60142e-01     2.09200e-02
      3387       3394      1   0.017463   0.010564     3.00055e-01     6.91943e-02
      3387       3395      1   0.017463   0.010564     3.00055e-01     6.91943e-02
      3386       3390      1   0.025511  -0.023412     3.00055e-01     6.91943e-02
      3386       3388      1   0.025511   0.006276     2.60142e-01     2.09200e-02
      3386       3389      1   0.025511   0.006276     2.60142e-01     2.09200e-02
      3385       3390      1   0.025511  -0.023412     3.00055e-01     6.91943e-02
      3385       3388      1   0.025511   0.006276     2.60142e-01     2.09200e-02
      3385       3389      1   0.025511   0.006276     2.60142e-01     2.09200e-02
      3384       3392      1  -0.111712   0.014340     3.00055e-01     6.91943e-02
      3384       3391      1  -0.111712   0.014340     3.00055e-01     6.91943e-02
      3383       3390      1   0.025511  -0.023412     3.00055e-01     6.91943e-02
      3383       3388      1   0.025511   0.006276     2.60142e-01     2.09200e-02
      3383       3389      1   0.025511   0.006276     2.60142e-01     2.09200e-02
      3462       3464      1   0.053944  -0.559638     2.78067e-01     9.58675e-02
      3462       3465      1   0.053944  -0.479574     2.80072e-01     8.62554e-02
      3461       3464      1   0.053944  -0.559638     2.78067e-01     9.58675e-02
      3461       3465      1   0.053944  -0.479574     2.80072e-01     8.62554e-02
      3459       3462      1   0.018859   0.044953     2.60142e-01     2.09200e-02
      3459       3461      1   0.018859   0.044953     2.60142e-01     2.09200e-02
      3459       3463      1   0.018859   0.758669     3.00055e-01     6.13495e-02
      3458       3462      1   0.018859   0.044953     2.60142e-01     2.09200e-02
      3458       3461      1   0.018859   0.044953     2.60142e-01     2.09200e-02
      3458       3463      1   0.018859   0.758669     3.00055e-01     6.13495e-02
      3456       3460      1   0.020431  -0.136833     3.00055e-01     6.91943e-02
      3456       3459      1   0.020431   0.015716     2.60142e-01     2.09200e-02
      3456       3458      1   0.020431   0.015716     2.60142e-01     2.09200e-02
      3455       3460      1   0.020431  -0.136833     3.00055e-01     6.91943e-02
      3455       3459      1   0.020431   0.015716     2.60142e-01     2.09200e-02
      3455       3458      1   0.020431   0.015716     2.60142e-01     2.09200e-02
      3454       3462      1  -0.026954   0.044953     3.00055e-01     6.91943e-02
      3454       3461      1  -0.026954   0.044953     3.00055e-01     6.91943e-02
      3453       3457      1   0.010573  -0.002029     3.00055e-01     6.91943e-02
      3453       3456      1   0.010573   0.017026     2.60142e-01     2.09200e-02
      3453       3455      1   0.010573   0.017026     2.60142e-01     2.09200e-02
      3452       3457      1   0.010573  -0.002029     3.00055e-01     6.91943e-02
      3452       3456      1   0.010573   0.017026     2.60142e-01     2.09200e-02
      3452       3455      1   0.010573   0.017026     2.60142e-01     2.09200e-02
      3451       3459      1  -0.016521   0.015716     3.00055e-01     6.91943e-02
      3451       3458      1  -0.016521   0.015716     3.00055e-01     6.91943e-02
      3450       3454      1   0.011511  -0.022462     3.00055e-01     6.91943e-02
      3450       3452      1   0.011511   0.008811     2.60142e-01     2.09200e-02
      3450       3453      1   0.011511   0.008811     2.60142e-01     2.09200e-02
      3449       3454      1   0.011511  -0.022462     3.00055e-01     6.91943e-02
      3449       3452      1   0.011511   0.008811     2.60142e-01     2.09200e-02
      3449       3453      1   0.011511   0.008811     2.60142e-01     2.09200e-02
      3448       3456      1  -0.027812   0.017026     3.00055e-01     6.91943e-02
      3448       3455      1  -0.027812   0.017026     3.00055e-01     6.91943e-02
      3447       3451      1   0.006833  -0.013767     3.00055e-01     6.91943e-02
      3447       3449      1   0.006833   0.009592     2.60142e-01     2.09200e-02
      3447       3450      1   0.006833   0.009592     2.60142e-01     2.09200e-02
      3446       3451      1   0.006833  -0.013767     3.00055e-01     6.91943e-02
      3446       3449      1   0.006833   0.009592     2.60142e-01     2.09200e-02
      3446       3450      1   0.006833   0.009592     2.60142e-01     2.09200e-02
      3445       3452      1  -0.004386   0.008811     3.00055e-01     6.91943e-02
      3445       3453      1  -0.004386   0.008811     3.00055e-01     6.91943e-02
      3444       3448      1   0.011241  -0.023177     3.00055e-01     6.91943e-02
      3444       3446      1   0.011241   0.005694     2.60142e-01     2.09200e-02
      3444       3447      1   0.011241   0.005694     2.60142e-01     2.09200e-02
      3443       3448      1   0.011241  -0.023177     3.00055e-01     6.91943e-02
      3443       3446      1   0.011241   0.005694     2.60142e-01     2.09200e-02
      3443       3447      1   0.011241   0.005694     2.60142e-01     2.09200e-02
      3442       3449      1  -0.026451   0.009592     3.00055e-01     6.91943e-02
      3442       3450      1  -0.026451   0.009592     3.00055e-01     6.91943e-02
      3441       3445      1   0.010172  -0.003655     3.00055e-01     6.91943e-02
      3441       3444      1   0.010172   0.009367     2.60142e-01     2.09200e-02
      3441       3443      1   0.010172   0.009367     2.60142e-01     2.09200e-02
      3440       3445      1   0.010172  -0.003655     3.00055e-01     6.91943e-02
      3440       3444      1   0.010172   0.009367     2.60142e-01     2.09200e-02
      3440       3443      1   0.010172   0.009367     2.60142e-01     2.09200e-02
      3439       3446      1  -0.014653   0.005694     3.00055e-01     6.91943e-02
      3439       3447      1  -0.014653   0.005694     3.00055e-01     6.91943e-02
      3438       3442      1   0.010037  -0.022042     3.00055e-01     6.91943e-02
      3438       3440      1   0.010037   0.008477     2.60142e-01     2.09200e-02
      3438       3441      1   0.010037   0.008477     2.60142e-01     2.09200e-02
      3437       3442      1   0.010037  -0.022042     3.00055e-01     6.91943e-02
      3437       3440      1   0.010037   0.008477     2.60142e-01     2.09200e-02
      3437       3441      1   0.010037   0.008477     2.60142e-01     2.09200e-02
      3436       3444      1  -0.021025   0.009367     3.00055e-01     6.91943e-02
      3436       3443      1  -0.021025   0.009367     3.00055e-01     6.91943e-02
      3435       3439      1   0.012677  -0.012211     3.00055e-01     6.91943e-02
      3435       3438      1   0.012677   0.008364     2.60142e-01     2.09200e-02
      3435       3437      1   0.012677   0.008364     2.60142e-01     2.09200e-02
      3434       3439      1   0.012677  -0.012211     3.00055e-01     6.91943e-02
      3434       3438      1   0.012677   0.008364     2.60142e-01     2.09200e-02
      3434       3437      1   0.012677   0.008364     2.60142e-01     2.09200e-02
      3433       3440      1  -0.031787   0.008477     3.00055e-01     6.91943e-02
      3433       3441      1  -0.031787   0.008477     3.00055e-01     6.91943e-02
      3432       3436      1   0.017208  -0.017521     3.00055e-01     6.91943e-02
      3432       3434      1   0.017208   0.010564     2.60142e-01     2.09200e-02
      3432       3435      1   0.017208   0.010564     2.60142e-01     2.09200e-02
      3431       3436      1   0.017208  -0.017521     3.00055e-01     6.91943e-02
      3431       3434      1   0.017208   0.010564     2.60142e-01     2.09200e-02
      3431       3435      1   0.017208   0.010564     2.60142e-01     2.09200e-02
      3430       3438      1  -0.028094   0.008364     3.00055e-01     6.91943e-02
      3430       3437      1  -0.028094   0.008364     3.00055e-01     6.91943e-02
      3429       3433      1   0.007531  -0.026489     3.00055e-01     6.91943e-02
      3429       3432      1   0.007531   0.014340     2.60142e-01     2.09200e-02
      3429       3431      1   0.007531   0.014340     2.60142e-01     2.09200e-02
      3428       3433      1   0.007531  -0.026489     3.00055e-01     6.91943e-02
      3428       3432      1   0.007531   0.014340     2.60142e-01     2.09200e-02
      3428       3431      1   0.007531   0.014340     2.60142e-01     2.09200e-02
      3427       3434      1   0.017463   0.010564     3.00055e-01     6.91943e-02
      3427       3435      1   0.017463   0.010564     3.00055e-01     6.91943e-02
      3426       3430      1   0.025511  -0.023412     3.00055e-01     6.91943e-02
      3426       3428      1   0.025511   0.006276     2.60142e-01     2.09200e-02
      3426       3429      1   0.025511   0.006276     2.60142e-01     2.09200e-02
      3425       3430      1   0.025511  -0.023412     3.00055e-01     6.91943e-02
      3425       3428      1   0.025511   0.006276     2.60142e-01     2.09200e-02
      3425       3429      1   0.025511   0.006276     2.60142e-01     2.09200e-02
      3424       3432      1  -0.111712   0.014340     3.00055e-01     6.91943e-02
      3424       3431      1  -0.111712   0.014340     3.00055e-01     6.91943e-02
      3423       3430      1   0.025511  -0.023412     3.00055e-01     6.91943e-02
      3423       3428      1   0.025511   0.006276     2.60142e-01     2.09200e-02
      3423       3429      1   0.025511   0.006276     2.60142e-01     2.09200e-02
      3500       3540      1  -0.673755   0.044953     2.78067e-01     9.58675e-02
      3500       3539      1  -0.673755   0.044953     2.78067e-01     9.58675e-02
      3499       3537      1   0.897613   0.015716     3.00055e-01     6.13495e-02
      3499       3536      1   0.897613   0.015716     3.00055e-01     6.13495e-02
      3498       3540      1  -0.552948   0.044953     2.80072e-01     8.62554e-02
      3498       3539      1  -0.552948   0.044953     2.80072e-01     8.62554e-02
      3491       3492      1   0.172230  -0.282478     2.67982e-01     8.67002e-02
      3490       3492      1   0.172230  -0.282478     2.67982e-01     8.67002e-02
      3489       3492      1   0.172230  -0.282478     2.67982e-01     8.67002e-02
      3488       3493      1  -0.338973   0.143525     2.67982e-01     8.67002e-02
      3488       3494      1  -0.338973   0.143525     2.67982e-01     8.67002e-02
      3488       3495      1  -0.338973   0.143525     2.67982e-01     8.67002e-02
      3487       3488      1   0.172230  -0.282478     2.67982e-01     8.67002e-02
      3487       3492      1   0.172230  -0.282478     2.67982e-01     8.67002e-02
      3486       3488      1   0.172230  -0.282478     2.67982e-01     8.67002e-02
      3486       3492      1   0.172230  -0.282478     2.67982e-01     8.67002e-02
      3485       3488      1   0.172230  -0.282478     2.67982e-01     8.67002e-02
      3485       3492      1   0.172230  -0.282478     2.67982e-01     8.67002e-02
      3484       3489      1  -0.338973   0.143525     2.67982e-01     8.67002e-02
      3484       3490      1  -0.338973   0.143525     2.67982e-01     8.67002e-02
      3484       3491      1  -0.338973   0.143525     2.67982e-01     8.67002e-02
      3484       3493      1  -0.338973   0.143525     2.67982e-01     8.67002e-02
      3484       3494      1  -0.338973   0.143525     2.67982e-01     8.67002e-02
      3484       3495      1  -0.338973   0.143525     2.67982e-01     8.67002e-02
      3482       3484      1   0.136415  -0.282478     2.67982e-01     8.67002e-02
      3482       3488      1   0.136415  -0.282478     2.67982e-01     8.67002e-02
      3482       3492      1   0.136415  -0.282478     2.67982e-01     8.67002e-02
      3481       3484      1   0.136415  -0.282478     2.67982e-01     8.67002e-02
      3481       3488      1   0.136415  -0.282478     2.67982e-01     8.67002e-02
      3481       3492      1   0.136415  -0.282478     2.67982e-01     8.67002e-02
      3480       3485      1  -0.170824   0.143525     2.67982e-01     8.67002e-02
      3480       3486      1  -0.170824   0.143525     2.67982e-01     8.67002e-02
      3480       3487      1  -0.170824   0.143525     2.67982e-01     8.67002e-02
      3480       3489      1  -0.170824   0.143525     2.67982e-01     8.67002e-02
      3480       3490      1  -0.170824   0.143525     2.67982e-01     8.67002e-02
      3480       3491      1  -0.170824   0.143525     2.67982e-01     8.67002e-02
      3480       3493      1  -0.170824   0.143525     2.67982e-01     8.67002e-02
      3480       3494      1  -0.170824   0.143525     2.67982e-01     8.67002e-02
      3480       3495      1  -0.170824   0.143525     2.67982e-01     8.67002e-02
      3479       3481      1   0.078534   0.113679     2.21567e-01     3.28444e-02
      3479       3482      1   0.078534   0.113679     2.21567e-01     3.28444e-02
      3479       3483      1   0.078534   0.204385     2.86068e-01     1.08078e-01
      3478       3481      1   0.078534   0.113679     2.21567e-01     3.28444e-02
      3478       3482      1   0.078534   0.113679     2.21567e-01     3.28444e-02
      3478       3483      1   0.078534   0.204385     2.86068e-01     1.08078e-01
      3476       3481      1  -0.508176   0.113679     2.47999e-01     1.08078e-01
      3476       3482      1  -0.508176   0.113679     2.47999e-01     1.08078e-01
      3475       3478      1   1.339721   0.065445     3.10656e-01     1.17227e-01
      3475       3479      1   1.339721   0.065445     3.10656e-01     1.17227e-01
      3473       3498      1   0.095591  -0.460790     2.73568e-01     1.08078e-01
      3473       3475      1   0.095591   1.116434     3.10656e-01     1.17227e-01
      3472       3498      1   0.095591  -0.460790     2.73568e-01     1.08078e-01
      3472       3475      1   0.095591   1.116434     3.10656e-01     1.17227e-01
      3470       3472      1   0.063253   0.079659     2.47135e-01     3.28444e-02
      3470       3473      1   0.063253   0.079659     2.47135e-01     3.28444e-02
      3470       3474      1   0.063253  -0.424567     2.73568e-01     1.08078e-01
      3470       3499      1   0.063253   0.748011     2.93551e-01     7.68707e-02
      3468       3470      1   0.070469   0.052711     2.47135e-01     3.28444e-02
      3468       3471      1   0.070469   0.014549     2.93551e-01     8.67002e-02
      3468       3498      1   0.070469  -0.460790     2.73568e-01     1.08078e-01
      3467       3470      1   0.070469   0.052711     2.47135e-01     3.28444e-02
      3467       3471      1   0.070469   0.014549     2.93551e-01     8.67002e-02
      3467       3498      1   0.070469  -0.460790     2.73568e-01     1.08078e-01
      3466       3472      1   0.196939   0.079659     2.93551e-01     8.67002e-02
      3466       3473      1   0.196939   0.079659     2.93551e-01     8.67002e-02
      3465       3470      1  -0.575489   0.052711     2.73568e-01     1.08078e-01
      3463       3467      1   0.910403   0.058724     2.93551e-01     7.68707e-02
      3463       3468      1   0.910403   0.058724     2.93551e-01     7.68707e-02
      3537       3540      1   0.018859   0.044953     2.60142e-01     2.09200e-02
      3537       3539      1   0.018859   0.044953     2.60142e-01     2.09200e-02
      3536       3540      1   0.018859   0.044953     2.60142e-01     2.09200e-02
      3536       3539      1   0.018859   0.044953     2.60142e-01     2.09200e-02
      3534       3538      1   0.020431  -0.136833     3.00055e-01     6.91943e-02
      3534       3537      1   0.020431   0.015716     2.60142e-01     2.09200e-02
      3534       3536      1   0.020431   0.015716     2.60142e-01     2.09200e-02
      3533       3538      1   0.020431  -0.136833     3.00055e-01     6.91943e-02
      3533       3537      1   0.020431   0.015716     2.60142e-01     2.09200e-02
      3533       3536      1   0.020431   0.015716     2.60142e-01     2.09200e-02
      3532       3540      1  -0.026954   0.044953     3.00055e-01     6.91943e-02
      3532       3539      1  -0.026954   0.044953     3.00055e-01     6.91943e-02
      3531       3535      1   0.010573  -0.002029     3.00055e-01     6.91943e-02
      3531       3534      1   0.010573   0.017026     2.60142e-01     2.09200e-02
      3531       3533      1   0.010573   0.017026     2.60142e-01     2.09200e-02
      3530       3535      1   0.010573  -0.002029     3.00055e-01     6.91943e-02
      3530       3534      1   0.010573   0.017026     2.60142e-01     2.09200e-02
      3530       3533      1   0.010573   0.017026     2.60142e-01     2.09200e-02
      3529       3537      1  -0.016521   0.015716     3.00055e-01     6.91943e-02
      3529       3536      1  -0.016521   0.015716     3.00055e-01     6.91943e-02
      3528       3532      1   0.011511  -0.022462     3.00055e-01     6.91943e-02
      3528       3530      1   0.011511   0.008811     2.60142e-01     2.09200e-02
      3528       3531      1   0.011511   0.008811     2.60142e-01     2.09200e-02
      3527       3532      1   0.011511  -0.022462     3.00055e-01     6.91943e-02
      3527       3530      1   0.011511   0.008811     2.60142e-01     2.09200e-02
      3527       3531      1   0.011511   0.008811     2.60142e-01     2.09200e-02
      3526       3534      1  -0.027812   0.017026     3.00055e-01     6.91943e-02
      3526       3533      1  -0.027812   0.017026     3.00055e-01     6.91943e-02
      3525       3529      1   0.006833  -0.013767     3.00055e-01     6.91943e-02
      3525       3527      1   0.006833   0.009592     2.60142e-01     2.09200e-02
      3525       3528      1   0.006833   0.009592     2.60142e-01     2.09200e-02
      3524       3529      1   0.006833  -0.013767     3.00055e-01     6.91943e-02
      3524       3527      1   0.006833   0.009592     2.60142e-01     2.09200e-02
      3524       3528      1   0.006833   0.009592     2.60142e-01     2.09200e-02
      3523       3530      1  -0.004386   0.008811     3.00055e-01     6.91943e-02
      3523       3531      1  -0.004386   0.008811     3.00055e-01     6.91943e-02
      3522       3526      1   0.011241  -0.023177     3.00055e-01     6.91943e-02
      3522       3524      1   0.011241   0.005694     2.60142e-01     2.09200e-02
      3522       3525      1   0.011241   0.005694     2.60142e-01     2.09200e-02
      3521       3526      1   0.011241  -0.023177     3.00055e-01     6.91943e-02
      3521       3524      1   0.011241   0.005694     2.60142e-01     2.09200e-02
      3521       3525      1   0.011241   0.005694     2.60142e-01     2.09200e-02
      3520       3527      1  -0.026451   0.009592     3.00055e-01     6.91943e-02
      3520       3528      1  -0.026451   0.009592     3.00055e-01     6.91943e-02
      3519       3523      1   0.010172  -0.003655     3.00055e-01     6.91943e-02
      3519       3522      1   0.010172   0.009367     2.60142e-01     2.09200e-02
      3519       3521      1   0.010172   0.009367     2.60142e-01     2.09200e-02
      3518       3523      1   0.010172  -0.003655     3.00055e-01     6.91943e-02
      3518       3522      1   0.010172   0.009367     2.60142e-01     2.09200e-02
      3518       3521      1   0.010172   0.009367     2.60142e-01     2.09200e-02
      3517       3524      1  -0.014653   0.005694     3.00055e-01     6.91943e-02
      3517       3525      1  -0.014653   0.005694     3.00055e-01     6.91943e-02
      3516       3520      1   0.010037  -0.022042     3.00055e-01     6.91943e-02
      3516       3518      1   0.010037   0.008477     2.60142e-01     2.09200e-02
      3516       3519      1   0.010037   0.008477     2.60142e-01     2.09200e-02
      3515       3520      1   0.010037  -0.022042     3.00055e-01     6.91943e-02
      3515       3518      1   0.010037   0.008477     2.60142e-01     2.09200e-02
      3515       3519      1   0.010037   0.008477     2.60142e-01     2.09200e-02
      3514       3522      1  -0.021025   0.009367     3.00055e-01     6.91943e-02
      3514       3521      1  -0.021025   0.009367     3.00055e-01     6.91943e-02
      3513       3517      1   0.012677  -0.012211     3.00055e-01     6.91943e-02
      3513       3516      1   0.012677   0.008364     2.60142e-01     2.09200e-02
      3513       3515      1   0.012677   0.008364     2.60142e-01     2.09200e-02
      3512       3517      1   0.012677  -0.012211     3.00055e-01     6.91943e-02
      3512       3516      1   0.012677   0.008364     2.60142e-01     2.09200e-02
      3512       3515      1   0.012677   0.008364     2.60142e-01     2.09200e-02
      3511       3518      1  -0.031787   0.008477     3.00055e-01     6.91943e-02
      3511       3519      1  -0.031787   0.008477     3.00055e-01     6.91943e-02
      3510       3514      1   0.017208  -0.017521     3.00055e-01     6.91943e-02
      3510       3512      1   0.017208   0.010564     2.60142e-01     2.09200e-02
      3510       3513      1   0.017208   0.010564     2.60142e-01     2.09200e-02
      3509       3514      1   0.017208  -0.017521     3.00055e-01     6.91943e-02
      3509       3512      1   0.017208   0.010564     2.60142e-01     2.09200e-02
      3509       3513      1   0.017208   0.010564     2.60142e-01     2.09200e-02
      3508       3516      1  -0.028094   0.008364     3.00055e-01     6.91943e-02
      3508       3515      1  -0.028094   0.008364     3.00055e-01     6.91943e-02
      3507       3511      1   0.007531  -0.026489     3.00055e-01     6.91943e-02
      3507       3510      1   0.007531   0.014340     2.60142e-01     2.09200e-02
      3507       3509      1   0.007531   0.014340     2.60142e-01     2.09200e-02
      3506       3511      1   0.007531  -0.026489     3.00055e-01     6.91943e-02
      3506       3510      1   0.007531   0.014340     2.60142e-01     2.09200e-02
      3506       3509      1   0.007531   0.014340     2.60142e-01     2.09200e-02
      3505       3512      1   0.017463   0.010564     3.00055e-01     6.91943e-02
      3505       3513      1   0.017463   0.010564     3.00055e-01     6.91943e-02
      3504       3508      1   0.025511  -0.023412     3.00055e-01     6.91943e-02
      3504       3506      1   0.025511   0.006276     2.60142e-01     2.09200e-02
      3504       3507      1   0.025511   0.006276     2.60142e-01     2.09200e-02
      3503       3508      1   0.025511  -0.023412     3.00055e-01     6.91943e-02
      3503       3506      1   0.025511   0.006276     2.60142e-01     2.09200e-02
      3503       3507      1   0.025511   0.006276     2.60142e-01     2.09200e-02
      3502       3510      1  -0.111712   0.014340     3.00055e-01     6.91943e-02
      3502       3509      1  -0.111712   0.014340     3.00055e-01     6.91943e-02
      3501       3508      1   0.025511  -0.023412     3.00055e-01     6.91943e-02
      3501       3506      1   0.025511   0.006276     2.60142e-01     2.09200e-02
      3501       3507      1   0.025511   0.006276     2.60142e-01     2.09200e-02
      3580       3582      1   0.053944  -0.559638     2.78067e-01     9.58675e-02
      3580       3583      1   0.053944  -0.479574     2.80072e-01     8.62554e-02
      3579       3582      1   0.053944  -0.559638     2.78067e-01     9.58675e-02
      3579       3583      1   0.053944  -0.479574     2.80072e-01     8.62554e-02
      3577       3580      1   0.018859   0.044953     2.60142e-01     2.09200e-02
      3577       3579      1   0.018859   0.044953     2.60142e-01     2.09200e-02
      3577       3581      1   0.018859   0.758669     3.00055e-01     6.13495e-02
      3576       3580      1   0.018859   0.044953     2.60142e-01     2.09200e-02
      3576       3579      1   0.018859   0.044953     2.60142e-01     2.09200e-02
      3576       3581      1   0.018859   0.758669     3.00055e-01     6.13495e-02
      3574       3578      1   0.020431  -0.136833     3.00055e-01     6.91943e-02
      3574       3577      1   0.020431   0.015716     2.60142e-01     2.09200e-02
      3574       3576      1   0.020431   0.015716     2.60142e-01     2.09200e-02
      3573       3578      1   0.020431  -0.136833     3.00055e-01     6.91943e-02
      3573       3577      1   0.020431   0.015716     2.60142e-01     2.09200e-02
      3573       3576      1   0.020431   0.015716     2.60142e-01     2.09200e-02
      3572       3580      1  -0.026954   0.044953     3.00055e-01     6.91943e-02
      3572       3579      1  -0.026954   0.044953     3.00055e-01     6.91943e-02
      3571       3575      1   0.010573  -0.002029     3.00055e-01     6.91943e-02
      3571       3574      1   0.010573   0.017026     2.60142e-01     2.09200e-02
      3571       3573      1   0.010573   0.017026     2.60142e-01     2.09200e-02
      3570       3575      1   0.010573  -0.002029     3.00055e-01     6.91943e-02
      3570       3574      1   0.010573   0.017026     2.60142e-01     2.09200e-02
      3570       3573      1   0.010573   0.017026     2.60142e-01     2.09200e-02
      3569       3577      1  -0.016521   0.015716     3.00055e-01     6.91943e-02
      3569       3576      1  -0.016521   0.015716     3.00055e-01     6.91943e-02
      3568       3572      1   0.011511  -0.022462     3.00055e-01     6.91943e-02
      3568       3570      1   0.011511   0.008811     2.60142e-01     2.09200e-02
      3568       3571      1   0.011511   0.008811     2.60142e-01     2.09200e-02
      3567       3572      1   0.011511  -0.022462     3.00055e-01     6.91943e-02
      3567       3570      1   0.011511   0.008811     2.60142e-01     2.09200e-02
      3567       3571      1   0.011511   0.008811     2.60142e-01     2.09200e-02
      3566       3574      1  -0.027812   0.017026     3.00055e-01     6.91943e-02
      3566       3573      1  -0.027812   0.017026     3.00055e-01     6.91943e-02
      3565       3569      1   0.006833  -0.013767     3.00055e-01     6.91943e-02
      3565       3567      1   0.006833   0.009592     2.60142e-01     2.09200e-02
      3565       3568      1   0.006833   0.009592     2.60142e-01     2.09200e-02
      3564       3569      1   0.006833  -0.013767     3.00055e-01     6.91943e-02
      3564       3567      1   0.006833   0.009592     2.60142e-01     2.09200e-02
      3564       3568      1   0.006833   0.009592     2.60142e-01     2.09200e-02
      3563       3570      1  -0.004386   0.008811     3.00055e-01     6.91943e-02
      3563       3571      1  -0.004386   0.008811     3.00055e-01     6.91943e-02
      3562       3566      1   0.011241  -0.023177     3.00055e-01     6.91943e-02
      3562       3564      1   0.011241   0.005694     2.60142e-01     2.09200e-02
      3562       3565      1   0.011241   0.005694     2.60142e-01     2.09200e-02
      3561       3566      1   0.011241  -0.023177     3.00055e-01     6.91943e-02
      3561       3564      1   0.011241   0.005694     2.60142e-01     2.09200e-02
      3561       3565      1   0.011241   0.005694     2.60142e-01     2.09200e-02
      3560       3567      1  -0.026451   0.009592     3.00055e-01     6.91943e-02
      3560       3568      1  -0.026451   0.009592     3.00055e-01     6.91943e-02
      3559       3563      1   0.010172  -0.003655     3.00055e-01     6.91943e-02
      3559       3562      1   0.010172   0.009367     2.60142e-01     2.09200e-02
      3559       3561      1   0.010172   0.009367     2.60142e-01     2.09200e-02
      3558       3563      1   0.010172  -0.003655     3.00055e-01     6.91943e-02
      3558       3562      1   0.010172   0.009367     2.60142e-01     2.09200e-02
      3558       3561      1   0.010172   0.009367     2.60142e-01     2.09200e-02
      3557       3564      1  -0.014653   0.005694     3.00055e-01     6.91943e-02
      3557       3565      1  -0.014653   0.005694     3.00055e-01     6.91943e-02
      3556       3560      1   0.010037  -0.022042     3.00055e-01     6.91943e-02
      3556       3558      1   0.010037   0.008477     2.60142e-01     2.09200e-02
      3556       3559      1   0.010037   0.008477     2.60142e-01     2.09200e-02
      3555       3560      1   0.010037  -0.022042     3.00055e-01     6.91943e-02
      3555       3558      1   0.010037   0.008477     2.60142e-01     2.09200e-02
      3555       3559      1   0.010037   0.008477     2.60142e-01     2.09200e-02
      3554       3562      1  -0.021025   0.009367     3.00055e-01     6.91943e-02
      3554       3561      1  -0.021025   0.009367     3.00055e-01     6.91943e-02
      3553       3557      1   0.012677  -0.012211     3.00055e-01     6.91943e-02
      3553       3556      1   0.012677   0.008364     2.60142e-01     2.09200e-02
      3553       3555      1   0.012677   0.008364     2.60142e-01     2.09200e-02
      3552       3557      1   0.012677  -0.012211     3.00055e-01     6.91943e-02
      3552       3556      1   0.012677   0.008364     2.60142e-01     2.09200e-02
      3552       3555      1   0.012677   0.008364     2.60142e-01     2.09200e-02
      3551       3558      1  -0.031787   0.008477     3.00055e-01     6.91943e-02
      3551       3559      1  -0.031787   0.008477     3.00055e-01     6.91943e-02
      3550       3554      1   0.017208  -0.017521     3.00055e-01     6.91943e-02
      3550       3552      1   0.017208   0.010564     2.60142e-01     2.09200e-02
      3550       3553      1   0.017208   0.010564     2.60142e-01     2.09200e-02
      3549       3554      1   0.017208  -0.017521     3.00055e-01     6.91943e-02
      3549       3552      1   0.017208   0.010564     2.60142e-01     2.09200e-02
      3549       3553      1   0.017208   0.010564     2.60142e-01     2.09200e-02
      3548       3556      1  -0.028094   0.008364     3.00055e-01     6.91943e-02
      3548       3555      1  -0.028094   0.008364     3.00055e-01     6.91943e-02
      3547       3551      1   0.007531  -0.026489     3.00055e-01     6.91943e-02
      3547       3550      1   0.007531   0.014340     2.60142e-01     2.09200e-02
      3547       3549      1   0.007531   0.014340     2.60142e-01     2.09200e-02
      3546       3551      1   0.007531  -0.026489     3.00055e-01     6.91943e-02
      3546       3550      1   0.007531   0.014340     2.60142e-01     2.09200e-02
      3546       3549      1   0.007531   0.014340     2.60142e-01     2.09200e-02
      3545       3552      1   0.017463   0.010564     3.00055e-01     6.91943e-02
      3545       3553      1   0.017463   0.010564     3.00055e-01     6.91943e-02
      3544       3548      1   0.025511  -0.023412     3.00055e-01     6.91943e-02
      3544       3546      1   0.025511   0.006276     2.60142e-01     2.09200e-02
      3544       3547      1   0.025511   0.006276     2.60142e-01     2.09200e-02
      3543       3548      1   0.025511  -0.023412     3.00055e-01     6.91943e-02
      3543       3546      1   0.025511   0.006276     2.60142e-01     2.09200e-02
      3543       3547      1   0.025511   0.006276     2.60142e-01     2.09200e-02
      3542       3550      1  -0.111712   0.014340     3.00055e-01     6.91943e-02
      3542       3549      1  -0.111712   0.014340     3.00055e-01     6.91943e-02
      3541       3548      1   0.025511  -0.023412     3.00055e-01     6.91943e-02
      3541       3546      1   0.025511   0.006276     2.60142e-01     2.09200e-02
      3541       3547      1   0.025511   0.006276     2.60142e-01     2.09200e-02
      3618       3658      1  -0.673755   0.044953     2.78067e-01     9.58675e-02
      3618       3657      1  -0.673755   0.044953     2.78067e-01     9.58675e-02
      3617       3655      1   0.897613   0.015716     3.00055e-01     6.13495e-02
      3617       3654      1   0.897613   0.015716     3.00055e-01     6.13495e-02
      3616       3658      1  -0.552948   0.044953     2.80072e-01     8.62554e-02
      3616       3657      1  -0.552948   0.044953     2.80072e-01     8.62554e-02
      3609       3610      1   0.172230  -0.282478     2.67982e-01     8.67002e-02
      3608       3610      1   0.172230  -0.282478     2.67982e-01     8.67002e-02
      3607       3610      1   0.172230  -0.282478     2.67982e-01     8.67002e-02
      3606       3611      1  -0.338973   0.143525     2.67982e-01     8.67002e-02
      3606       3612      1  -0.338973   0.143525     2.67982e-01     8.67002e-02
      3606       3613      1  -0.338973   0.143525     2.67982e-01     8.67002e-02
      3605       3606      1   0.172230  -0.282478     2.67982e-01     8.67002e-02
      3605       3610      1   0.172230  -0.282478     2.67982e-01     8.67002e-02
      3604       3606      1   0.172230  -0.282478     2.67982e-01     8.67002e-02
      3604       3610      1   0.172230  -0.282478     2.67982e-01     8.67002e-02
      3603       3606      1   0.172230  -0.282478     2.67982e-01     8.67002e-02
      3603       3610      1   0.172230  -0.282478     2.67982e-01     8.67002e-02
      3602       3607      1  -0.338973   0.143525     2.67982e-01     8.67002e-02
      3602       3608      1  -0.338973   0.143525     2.67982e-01     8.67002e-02
      3602       3609      1  -0.338973   0.143525     2.67982e-01     8.67002e-02
      3602       3611      1  -0.338973   0.143525     2.67982e-01     8.67002e-02
      3602       3612      1  -0.338973   0.143525     2.67982e-01     8.67002e-02
      3602       3613      1  -0.338973   0.143525     2.67982e-01     8.67002e-02
      3600       3602      1   0.136415  -0.282478     2.67982e-01     8.67002e-02
      3600       3606      1   0.136415  -0.282478     2.67982e-01     8.67002e-02
      3600       3610      1   0.136415  -0.282478     2.67982e-01     8.67002e-02
      3599       3602      1   0.136415  -0.282478     2.67982e-01     8.67002e-02
      3599       3606      1   0.136415  -0.282478     2.67982e-01     8.67002e-02
      3599       3610      1   0.136415  -0.282478     2.67982e-01     8.67002e-02
      3598       3603      1  -0.170824   0.143525     2.67982e-01     8.67002e-02
      3598       3604      1  -0.170824   0.143525     2.67982e-01     8.67002e-02
      3598       3605      1  -0.170824   0.143525     2.67982e-01     8.67002e-02
      3598       3607      1  -0.170824   0.143525     2.67982e-01     8.67002e-02
      3598       3608      1  -0.170824   0.143525     2.67982e-01     8.67002e-02
      3598       3609      1  -0.170824   0.143525     2.67982e-01     8.67002e-02
      3598       3611      1  -0.170824   0.143525     2.67982e-01     8.67002e-02
      3598       3612      1  -0.170824   0.143525     2.67982e-01     8.67002e-02
      3598       3613      1  -0.170824   0.143525     2.67982e-01     8.67002e-02
      3597       3599      1   0.078534   0.113679     2.21567e-01     3.28444e-02
      3597       3600      1   0.078534   0.113679     2.21567e-01     3.28444e-02
      3597       3601      1   0.078534   0.204385     2.86068e-01     1.08078e-01
      3596       3599      1   0.078534   0.113679     2.21567e-01     3.28444e-02
      3596       3600      1   0.078534   0.113679     2.21567e-01     3.28444e-02
      3596       3601      1   0.078534   0.204385     2.86068e-01     1.08078e-01
      3594       3599      1  -0.508176   0.113679     2.47999e-01     1.08078e-01
      3594       3600      1  -0.508176   0.113679     2.47999e-01     1.08078e-01
      3593       3596      1   1.339721   0.065445     3.10656e-01     1.17227e-01
      3593       3597      1   1.339721   0.065445     3.10656e-01     1.17227e-01
      3591       3616      1   0.095591  -0.460790     2.73568e-01     1.08078e-01
      3591       3593      1   0.095591   1.116434     3.10656e-01     1.17227e-01
      3590       3616      1   0.095591  -0.460790     2.73568e-01     1.08078e-01
      3590       3593      1   0.095591   1.116434     3.10656e-01     1.17227e-01
      3588       3590      1   0.063253   0.079659     2.47135e-01     3.28444e-02
      3588       3591      1   0.063253   0.079659     2.47135e-01     3.28444e-02
      3588       3592      1   0.063253  -0.424567     2.73568e-01     1.08078e-01
      3588       3617      1   0.063253   0.748011     2.93551e-01     7.68707e-02
      3586       3588      1   0.070469   0.052711     2.47135e-01     3.28444e-02
      3586       3589      1   0.070469   0.014549     2.93551e-01     8.67002e-02
      3586       3616      1   0.070469  -0.460790     2.73568e-01     1.08078e-01
      3585       3588      1   0.070469   0.052711     2.47135e-01     3.28444e-02
      3585       3589      1   0.070469   0.014549     2.93551e-01     8.67002e-02
      3585       3616      1   0.070469  -0.460790     2.73568e-01     1.08078e-01
      3584       3590      1   0.196939   0.079659     2.93551e-01     8.67002e-02
      3584       3591      1   0.196939   0.079659     2.93551e-01     8.67002e-02
      3583       3588      1  -0.575489   0.052711     2.73568e-01     1.08078e-01
      3581       3585      1   0.910403   0.058724     2.93551e-01     7.68707e-02
      3581       3586      1   0.910403   0.058724     2.93551e-01     7.68707e-02
      3655       3658      1   0.018859   0.044953     2.60142e-01     2.09200e-02
      3655       3657      1   0.018859   0.044953     2.60142e-01     2.09200e-02
      3654       3658      1   0.018859   0.044953     2.60142e-01     2.09200e-02
      3654       3657      1   0.018859   0.044953     2.60142e-01     2.09200e-02
      3652       3656      1   0.020431  -0.136833     3.00055e-01     6.91943e-02
      3652       3655      1   0.020431   0.015716     2.60142e-01     2.09200e-02
      3652       3654      1   0.020431   0.015716     2.60142e-01     2.09200e-02
      3651       3656      1   0.020431  -0.136833     3.00055e-01     6.91943e-02
      3651       3655      1   0.020431   0.015716     2.60142e-01     2.09200e-02
      3651       3654      1   0.020431   0.015716     2.60142e-01     2.09200e-02
      3650       3658      1  -0.026954   0.044953     3.00055e-01     6.91943e-02
      3650       3657      1  -0.026954   0.044953     3.00055e-01     6.91943e-02
      3649       3653      1   0.010573  -0.002029     3.00055e-01     6.91943e-02
      3649       3652      1   0.010573   0.017026     2.60142e-01     2.09200e-02
      3649       3651      1   0.010573   0.017026     2.60142e-01     2.09200e-02
      3648       3653      1   0.010573  -0.002029     3.00055e-01     6.91943e-02
      3648       3652      1   0.010573   0.017026     2.60142e-01     2.09200e-02
      3648       3651      1   0.010573   0.017026     2.60142e-01     2.09200e-02
      3647       3655      1  -0.016521   0.015716     3.00055e-01     6.91943e-02
      3647       3654      1  -0.016521   0.015716     3.00055e-01     6.91943e-02
      3646       3650      1   0.011511  -0.022462     3.00055e-01     6.91943e-02
      3646       3648      1   0.011511   0.008811     2.60142e-01     2.09200e-02
      3646       3649      1   0.011511   0.008811     2.60142e-01     2.09200e-02
      3645       3650      1   0.011511  -0.022462     3.00055e-01     6.91943e-02
      3645       3648      1   0.011511   0.008811     2.60142e-01     2.09200e-02
      3645       3649      1   0.011511   0.008811     2.60142e-01     2.09200e-02
      3644       3652      1  -0.027812   0.017026     3.00055e-01     6.91943e-02
      3644       3651      1  -0.027812   0.017026     3.00055e-01     6.91943e-02
      3643       3647      1   0.006833  -0.013767     3.00055e-01     6.91943e-02
      3643       3645      1   0.006833   0.009592     2.60142e-01     2.09200e-02
      3643       3646      1   0.006833   0.009592     2.60142e-01     2.09200e-02
      3642       3647      1   0.006833  -0.013767     3.00055e-01     6.91943e-02
      3642       3645      1   0.006833   0.009592     2.60142e-01     2.09200e-02
      3642       3646      1   0.006833   0.009592     2.60142e-01     2.09200e-02
      3641       3648      1  -0.004386   0.008811     3.00055e-01     6.91943e-02
      3641       3649      1  -0.004386   0.008811     3.00055e-01     6.91943e-02
      3640       3644      1   0.011241  -0.023177     3.00055e-01     6.91943e-02
      3640       3642      1   0.011241   0.005694     2.60142e-01     2.09200e-02
      3640       3643      1   0.011241   0.005694     2.60142e-01     2.09200e-02
      3639       3644      1   0.011241  -0.023177     3.00055e-01     6.91943e-02
      3639       3642      1   0.011241   0.005694     2.60142e-01     2.09200e-02
      3639       3643      1   0.011241   0.005694     2.60142e-01     2.09200e-02
      3638       3645      1  -0.026451   0.009592     3.00055e-01     6.91943e-02
      3638       3646      1  -0.026451   0.009592     3.00055e-01     6.91943e-02
      3637       3641      1   0.010172  -0.003655     3.00055e-01     6.91943e-02
      3637       3640      1   0.010172   0.009367     2.60142e-01     2.09200e-02
      3637       3639      1   0.010172   0.009367     2.60142e-01     2.09200e-02
      3636       3641      1   0.010172  -0.003655     3.00055e-01     6.91943e-02
      3636       3640      1   0.010172   0.009367     2.60142e-01     2.09200e-02
      3636       3639      1   0.010172   0.009367     2.60142e-01     2.09200e-02
      3635       3642      1  -0.014653   0.005694     3.00055e-01     6.91943e-02
      3635       3643      1  -0.014653   0.005694     3.00055e-01     6.91943e-02
      3634       3638      1   0.010037  -0.022042     3.00055e-01     6.91943e-02
      3634       3636      1   0.010037   0.008477     2.60142e-01     2.09200e-02
      3634       3637      1   0.010037   0.008477     2.60142e-01     2.09200e-02
      3633       3638      1   0.010037  -0.022042     3.00055e-01     6.91943e-02
      3633       3636      1   0.010037   0.008477     2.60142e-01     2.09200e-02
      3633       3637      1   0.010037   0.008477     2.60142e-01     2.09200e-02
      3632       3640      1  -0.021025   0.009367     3.00055e-01     6.91943e-02
      3632       3639      1  -0.021025   0.009367     3.00055e-01     6.91943e-02
      3631       3635      1   0.012677  -0.012211     3.00055e-01     6.91943e-02
      3631       3634      1   0.012677   0.008364     2.60142e-01     2.09200e-02
      3631       3633      1   0.012677   0.008364     2.60142e-01     2.09200e-02
      3630       3635      1   0.012677  -0.012211     3.00055e-01     6.91943e-02
      3630       3634      1   0.012677   0.008364     2.60142e-01     2.09200e-02
      3630       3633      1   0.012677   0.008364     2.60142e-01     2.09200e-02
      3629       3636      1  -0.031787   0.008477     3.00055e-01     6.91943e-02
      3629       3637      1  -0.031787   0.008477     3.00055e-01     6.91943e-02
      3628       3632      1   0.017208  -0.017521     3.00055e-01     6.91943e-02
      3628       3630      1   0.017208   0.010564     2.60142e-01     2.09200e-02
      3628       3631      1   0.017208   0.010564     2.60142e-01     2.09200e-02
      3627       3632      1   0.017208  -0.017521     3.00055e-01     6.91943e-02
      3627       3630      1   0.017208   0.010564     2.60142e-01     2.09200e-02
      3627       3631      1   0.017208   0.010564     2.60142e-01     2.09200e-02
      3626       3634      1  -0.028094   0.008364     3.00055e-01     6.91943e-02
      3626       3633      1  -0.028094   0.008364     3.00055e-01     6.91943e-02
      3625       3629      1   0.007531  -0.026489     3.00055e-01     6.91943e-02
      3625       3628      1   0.007531   0.014340     2.60142e-01     2.09200e-02
      3625       3627      1   0.007531   0.014340     2.60142e-01     2.09200e-02
      3624       3629      1   0.007531  -0.026489     3.00055e-01     6.91943e-02
      3624       3628      1   0.007531   0.014340     2.60142e-01     2.09200e-02
      3624       3627      1   0.007531   0.014340     2.60142e-01     2.09200e-02
      3623       3630      1   0.017463   0.010564     3.00055e-01     6.91943e-02
      3623       3631      1   0.017463   0.010564     3.00055e-01     6.91943e-02
      3622       3626      1   0.025511  -0.023412     3.00055e-01     6.91943e-02
      3622       3624      1   0.025511   0.006276     2.60142e-01     2.09200e-02
      3622       3625      1   0.025511   0.006276     2.60142e-01     2.09200e-02
      3621       3626      1   0.025511  -0.023412     3.00055e-01     6.91943e-02
      3621       3624      1   0.025511   0.006276     2.60142e-01     2.09200e-02
      3621       3625      1   0.025511   0.006276     2.60142e-01     2.09200e-02
      3620       3628      1  -0.111712   0.014340     3.00055e-01     6.91943e-02
      3620       3627      1  -0.111712   0.014340     3.00055e-01     6.91943e-02
      3619       3626      1   0.025511  -0.023412     3.00055e-01     6.91943e-02
      3619       3624      1   0.025511   0.006276     2.60142e-01     2.09200e-02
      3619       3625      1   0.025511   0.006276     2.60142e-01     2.09200e-02
      3698       3700      1   0.053944  -0.559638     2.78067e-01     9.58675e-02
      3698       3701      1   0.053944  -0.479574     2.80072e-01     8.62554e-02
      3697       3700      1   0.053944  -0.559638     2.78067e-01     9.58675e-02
      3697       3701      1   0.053944  -0.479574     2.80072e-01     8.62554e-02
      3695       3698      1   0.018859   0.044953     2.60142e-01     2.09200e-02
      3695       3697      1   0.018859   0.044953     2.60142e-01     2.09200e-02
      3695       3699      1   0.018859   0.758669     3.00055e-01     6.13495e-02
      3694       3698      1   0.018859   0.044953     2.60142e-01     2.09200e-02
      3694       3697      1   0.018859   0.044953     2.60142e-01     2.09200e-02
      3694       3699      1   0.018859   0.758669     3.00055e-01     6.13495e-02
      3692       3696      1   0.020431  -0.136833     3.00055e-01     6.91943e-02
      3692       3695      1   0.020431   0.015716     2.60142e-01     2.09200e-02
      3692       3694      1   0.020431   0.015716     2.60142e-01     2.09200e-02
      3691       3696      1   0.020431  -0.136833     3.00055e-01     6.91943e-02
      3691       3695      1   0.020431   0.015716     2.60142e-01     2.09200e-02
      3691       3694      1   0.020431   0.015716     2.60142e-01     2.09200e-02
      3690       3698      1  -0.026954   0.044953     3.00055e-01     6.91943e-02
      3690       3697      1  -0.026954   0.044953     3.00055e-01     6.91943e-02
      3689       3693      1   0.010573  -0.002029     3.00055e-01     6.91943e-02
      3689       3692      1   0.010573   0.017026     2.60142e-01     2.09200e-02
      3689       3691      1   0.010573   0.017026     2.60142e-01     2.09200e-02
      3688       3693      1   0.010573  -0.002029     3.00055e-01     6.91943e-02
      3688       3692      1   0.010573   0.017026     2.60142e-01     2.09200e-02
      3688       3691      1   0.010573   0.017026     2.60142e-01     2.09200e-02
      3687       3695      1  -0.016521   0.015716     3.00055e-01     6.91943e-02
      3687       3694      1  -0.016521   0.015716     3.00055e-01     6.91943e-02
      3686       3690      1   0.011511  -0.022462     3.00055e-01     6.91943e-02
      3686       3688      1   0.011511   0.008811     2.60142e-01     2.09200e-02
      3686       3689      1   0.011511   0.008811     2.60142e-01     2.09200e-02
      3685       3690      1   0.011511  -0.022462     3.00055e-01     6.91943e-02
      3685       3688      1   0.011511   0.008811     2.60142e-01     2.09200e-02
      3685       3689      1   0.011511   0.008811     2.60142e-01     2.09200e-02
      3684       3692      1  -0.027812   0.017026     3.00055e-01     6.91943e-02
      3684       3691      1  -0.027812   0.017026     3.00055e-01     6.91943e-02
      3683       3687      1   0.006833  -0.013767     3.00055e-01     6.91943e-02
      3683       3685      1   0.006833   0.009592     2.60142e-01     2.09200e-02
      3683       3686      1   0.006833   0.009592     2.60142e-01     2.09200e-02
      3682       3687      1   0.006833  -0.013767     3.00055e-01     6.91943e-02
      3682       3685      1   0.006833   0.009592     2.60142e-01     2.09200e-02
      3682       3686      1   0.006833   0.009592     2.60142e-01     2.09200e-02
      3681       3688      1  -0.004386   0.008811     3.00055e-01     6.91943e-02
      3681       3689      1  -0.004386   0.008811     3.00055e-01     6.91943e-02
      3680       3684      1   0.011241  -0.023177     3.00055e-01     6.91943e-02
      3680       3682      1   0.011241   0.005694     2.60142e-01     2.09200e-02
      3680       3683      1   0.011241   0.005694     2.60142e-01     2.09200e-02
      3679       3684      1   0.011241  -0.023177     3.00055e-01     6.91943e-02
      3679       3682      1   0.011241   0.005694     2.60142e-01     2.09200e-02
      3679       3683      1   0.011241   0.005694     2.60142e-01     2.09200e-02
      3678       3685      1  -0.026451   0.009592     3.00055e-01     6.91943e-02
      3678       3686      1  -0.026451   0.009592     3.00055e-01     6.91943e-02
      3677       3681      1   0.010172  -0.003655     3.00055e-01     6.91943e-02
      3677       3680      1   0.010172   0.009367     2.60142e-01     2.09200e-02
      3677       3679      1   0.010172   0.009367     2.60142e-01     2.09200e-02
      3676       3681      1   0.010172  -0.003655     3.00055e-01     6.91943e-02
      3676       3680      1   0.010172   0.009367     2.60142e-01     2.09200e-02
      3676       3679      1   0.010172   0.009367     2.60142e-01     2.09200e-02
      3675       3682      1  -0.014653   0.005694     3.00055e-01     6.91943e-02
      3675       3683      1  -0.014653   0.005694     3.00055e-01     6.91943e-02
      3674       3678      1   0.010037  -0.022042     3.00055e-01     6.91943e-02
      3674       3676      1   0.010037   0.008477     2.60142e-01     2.09200e-02
      3674       3677      1   0.010037   0.008477     2.60142e-01     2.09200e-02
      3673       3678      1   0.010037  -0.022042     3.00055e-01     6.91943e-02
      3673       3676      1   0.010037   0.008477     2.60142e-01     2.09200e-02
      3673       3677      1   0.010037   0.008477     2.60142e-01     2.09200e-02
      3672       3680      1  -0.021025   0.009367     3.00055e-01     6.91943e-02
      3672       3679      1  -0.021025   0.009367     3.00055e-01     6.91943e-02
      3671       3675      1   0.012677  -0.012211     3.00055e-01     6.91943e-02
      3671       3674      1   0.012677   0.008364     2.60142e-01     2.09200e-02
      3671       3673      1   0.012677   0.008364     2.60142e-01     2.09200e-02
      3670       3675      1   0.012677  -0.012211     3.00055e-01     6.91943e-02
      3670       3674      1   0.012677   0.008364     2.60142e-01     2.09200e-02
      3670       3673      1   0.012677   0.008364     2.60142e-01     2.09200e-02
      3669       3676      1  -0.031787   0.008477     3.00055e-01     6.91943e-02
      3669       3677      1  -0.031787   0.008477     3.00055e-01     6.91943e-02
      3668       3672      1   0.017208  -0.017521     3.00055e-01     6.91943e-02
      3668       3670      1   0.017208   0.010564     2.60142e-01     2.09200e-02
      3668       3671      1   0.017208   0.010564     2.60142e-01     2.09200e-02
      3667       3672      1   0.017208  -0.017521     3.00055e-01     6.91943e-02
      3667       3670      1   0.017208   0.010564     2.60142e-01     2.09200e-02
      3667       3671      1   0.017208   0.010564     2.60142e-01     2.09200e-02
      3666       3674      1  -0.028094   0.008364     3.00055e-01     6.91943e-02
      3666       3673      1  -0.028094   0.008364     3.00055e-01     6.91943e-02
      3665       3669      1   0.007531  -0.026489     3.00055e-01     6.91943e-02
      3665       3668      1   0.007531   0.014340     2.60142e-01     2.09200e-02
      3665       3667      1   0.007531   0.014340     2.60142e-01     2.09200e-02
      3664       3669      1   0.007531  -0.026489     3.00055e-01     6.91943e-02
      3664       3668      1   0.007531   0.014340     2.60142e-01     2.09200e-02
      3664       3667      1   0.007531   0.014340     2.60142e-01     2.09200e-02
      3663       3670      1   0.017463   0.010564     3.00055e-01     6.91943e-02
      3663       3671      1   0.017463   0.010564     3.00055e-01     6.91943e-02
      3662       3666      1   0.025511  -0.023412     3.00055e-01     6.91943e-02
      3662       3664      1   0.025511   0.006276     2.60142e-01     2.09200e-02
      3662       3665      1   0.025511   0.006276     2.60142e-01     2.09200e-02
      3661       3666      1   0.025511  -0.023412     3.00055e-01     6.91943e-02
      3661       3664      1   0.025511   0.006276     2.60142e-01     2.09200e-02
      3661       3665      1   0.025511   0.006276     2.60142e-01     2.09200e-02
      3660       3668      1  -0.111712   0.014340     3.00055e-01     6.91943e-02
      3660       3667      1  -0.111712   0.014340     3.00055e-01     6.91943e-02
      3659       3666      1   0.025511  -0.023412     3.00055e-01     6.91943e-02
      3659       3664      1   0.025511   0.006276     2.60142e-01     2.09200e-02
      3659       3665      1   0.025511   0.006276     2.60142e-01     2.09200e-02
      3736       3776      1  -0.673755   0.044953     2.78067e-01     9.58675e-02
      3736       3775      1  -0.673755   0.044953     2.78067e-01     9.58675e-02
      3735       3773      1   0.897613   0.015716     3.00055e-01     6.13495e-02
      3735       3772      1   0.897613   0.015716     3.00055e-01     6.13495e-02
      3734       3776      1  -0.552948   0.044953     2.80072e-01     8.62554e-02
      3734       3775      1  -0.552948   0.044953     2.80072e-01     8.62554e-02
      3727       3728      1   0.172230  -0.282478     2.67982e-01     8.67002e-02
      3726       3728      1   0.172230  -0.282478     2.67982e-01     8.67002e-02
      3725       3728      1   0.172230  -0.282478     2.67982e-01     8.67002e-02
      3724       3729      1  -0.338973   0.143525     2.67982e-01     8.67002e-02
      3724       3730      1  -0.338973   0.143525     2.67982e-01     8.67002e-02
      3724       3731      1  -0.338973   0.143525     2.67982e-01     8.67002e-02
      3723       3724      1   0.172230  -0.282478     2.67982e-01     8.67002e-02
      3723       3728      1   0.172230  -0.282478     2.67982e-01     8.67002e-02
      3722       3724      1   0.172230  -0.282478     2.67982e-01     8.67002e-02
      3722       3728      1   0.172230  -0.282478     2.67982e-01     8.67002e-02
      3721       3724      1   0.172230  -0.282478     2.67982e-01     8.67002e-02
      3721       3728      1   0.172230  -0.282478     2.67982e-01     8.67002e-02
      3720       3725      1  -0.338973   0.143525     2.67982e-01     8.67002e-02
      3720       3726      1  -0.338973   0.143525     2.67982e-01     8.67002e-02
      3720       3727      1  -0.338973   0.143525     2.67982e-01     8.67002e-02
      3720       3729      1  -0.338973   0.143525     2.67982e-01     8.67002e-02
      3720       3730      1  -0.338973   0.143525     2.67982e-01     8.67002e-02
      3720       3731      1  -0.338973   0.143525     2.67982e-01     8.67002e-02
      3718       3720      1   0.136415  -0.282478     2.67982e-01     8.67002e-02
      3718       3724      1   0.136415  -0.282478     2.67982e-01     8.67002e-02
      3718       3728      1   0.136415  -0.282478     2.67982e-01     8.67002e-02
      3717       3720      1   0.136415  -0.282478     2.67982e-01     8.67002e-02
      3717       3724      1   0.136415  -0.282478     2.67982e-01     8.67002e-02
      3717       3728      1   0.136415  -0.282478     2.67982e-01     8.67002e-02
      3716       3721      1  -0.170824   0.143525     2.67982e-01     8.67002e-02
      3716       3722      1  -0.170824   0.143525     2.67982e-01     8.67002e-02
      3716       3723      1  -0.170824   0.143525     2.67982e-01     8.67002e-02
      3716       3725      1  -0.170824   0.143525     2.67982e-01     8.67002e-02
      3716       3726      1  -0.170824   0.143525     2.67982e-01     8.67002e-02
      3716       3727      1  -0.170824   0.143525     2.67982e-01     8.67002e-02
      3716       3729      1  -0.170824   0.143525     2.67982e-01     8.67002e-02
      3716       3730      1  -0.170824   0.143525     2.67982e-01     8.67002e-02
      3716       3731      1  -0.170824   0.143525     2.67982e-01     8.67002e-02
      3715       3717      1   0.078534   0.113679     2.21567e-01     3.28444e-02
      3715       3718      1   0.078534   0.113679     2.21567e-01     3.28444e-02
      3715       3719      1   0.078534   0.204385     2.86068e-01     1.08078e-01
      3714       3717      1   0.078534   0.113679     2.21567e-01     3.28444e-02
      3714       3718      1   0.078534   0.113679     2.21567e-01     3.28444e-02
      3714       3719      1   0.078534   0.204385     2.86068e-01     1.08078e-01
      3712       3717      1  -0.508176   0.113679     2.47999e-01     1.08078e-01
      3712       3718      1  -0.508176   0.113679     2.47999e-01     1.08078e-01
      3711       3714      1   1.339721   0.065445     3.10656e-01     1.17227e-01
      3711       3715      1   1.339721   0.065445     3.10656e-01     1.17227e-01
      3709       3734      1   0.095591  -0.460790     2.73568e-01     1.08078e-01
      3709       3711      1   0.095591   1.116434     3.10656e-01     1.17227e-01
      3708       3734      1   0.095591  -0.460790     2.73568e-01     1.08078e-01
      3708       3711      1   0.095591   1.116434     3.10656e-01     1.17227e-01
      3706       3708      1   0.063253   0.079659     2.47135e-01     3.28444e-02
      3706       3709      1   0.063253   0.079659     2.47135e-01     3.28444e-02
      3706       3710      1   0.063253  -0.424567     2.73568e-01     1.08078e-01
      3706       3735      1   0.063253   0.748011     2.93551e-01     7.68707e-02
      3704       3706      1   0.070469   0.052711     2.47135e-01     3.28444e-02
      3704       3707      1   0.070469   0.014549     2.93551e-01     8.67002e-02
      3704       3734      1   0.070469  -0.460790     2.73568e-01     1.08078e-01
      3703       3706      1   0.070469   0.052711     2.47135e-01     3.28444e-02
      3703       3707      1   0.070469   0.014549     2.93551e-01     8.67002e-02
      3703       3734      1   0.070469  -0.460790     2.73568e-01     1.08078e-01
      3702       3708      1   0.196939   0.079659     2.93551e-01     8.67002e-02
      3702       3709      1   0.196939   0.079659     2.93551e-01     8.67002e-02
      3701       3706      1  -0.575489   0.052711     2.73568e-01     1.08078e-01
      3699       3703      1   0.910403   0.058724     2.93551e-01     7.68707e-02
      3699       3704      1   0.910403   0.058724     2.93551e-01     7.68707e-02
      3773       3776      1   0.018859   0.044953     2.60142e-01     2.09200e-02
      3773       3775      1   0.018859   0.044953     2.60142e-01     2.09200e-02
      3772       3776      1   0.018859   0.044953     2.60142e-01     2.09200e-02
      3772       3775      1   0.018859   0.044953     2.60142e-01     2.09200e-02
      3770       3774      1   0.020431  -0.136833     3.00055e-01     6.91943e-02
      3770       3773      1   0.020431   0.015716     2.60142e-01     2.09200e-02
      3770       3772      1   0.020431   0.015716     2.60142e-01     2.09200e-02
      3769       3774      1   0.020431  -0.136833     3.00055e-01     6.91943e-02
      3769       3773      1   0.020431   0.015716     2.60142e-01     2.09200e-02
      3769       3772      1   0.020431   0.015716     2.60142e-01     2.09200e-02
      3768       3776      1  -0.026954   0.044953     3.00055e-01     6.91943e-02
      3768       3775      1  -0.026954   0.044953     3.00055e-01     6.91943e-02
      3767       3771      1   0.010573  -0.002029     3.00055e-01     6.91943e-02
      3767       3770      1   0.010573   0.017026     2.60142e-01     2.09200e-02
      3767       3769      1   0.010573   0.017026     2.60142e-01     2.09200e-02
      3766       3771      1   0.010573  -0.002029     3.00055e-01     6.91943e-02
      3766       3770      1   0.010573   0.017026     2.60142e-01     2.09200e-02
      3766       3769      1   0.010573   0.017026     2.60142e-01     2.09200e-02
      3765       3773      1  -0.016521   0.015716     3.00055e-01     6.91943e-02
      3765       3772      1  -0.016521   0.015716     3.00055e-01     6.91943e-02
      3764       3768      1   0.011511  -0.022462     3.00055e-01     6.91943e-02
      3764       3766      1   0.011511   0.008811     2.60142e-01     2.09200e-02
      3764       3767      1   0.011511   0.008811     2.60142e-01     2.09200e-02
      3763       3768      1   0.011511  -0.022462     3.00055e-01     6.91943e-02
      3763       3766      1   0.011511   0.008811     2.60142e-01     2.09200e-02
      3763       3767      1   0.011511   0.008811     2.60142e-01     2.09200e-02
      3762       3770      1  -0.027812   0.017026     3.00055e-01     6.91943e-02
      3762       3769      1  -0.027812   0.017026     3.00055e-01     6.91943e-02
      3761       3765      1   0.006833  -0.013767     3.00055e-01     6.91943e-02
      3761       3763      1   0.006833   0.009592     2.60142e-01     2.09200e-02
      3761       3764      1   0.006833   0.009592     2.60142e-01     2.09200e-02
      3760       3765      1   0.006833  -0.013767     3.00055e-01     6.91943e-02
      3760       3763      1   0.006833   0.009592     2.60142e-01     2.09200e-02
      3760       3764      1   0.006833   0.009592     2.60142e-01     2.09200e-02
      3759       3766      1  -0.004386   0.008811     3.00055e-01     6.91943e-02
      3759       3767      1  -0.004386   0.008811     3.00055e-01     6.91943e-02
      3758       3762      1   0.011241  -0.023177     3.00055e-01     6.91943e-02
      3758       3760      1   0.011241   0.005694     2.60142e-01     2.09200e-02
      3758       3761      1   0.011241   0.005694     2.60142e-01     2.09200e-02
      3757       3762      1   0.011241  -0.023177     3.00055e-01     6.91943e-02
      3757       3760      1   0.011241   0.005694     2.60142e-01     2.09200e-02
      3757       3761      1   0.011241   0.005694     2.60142e-01     2.09200e-02
      3756       3763      1  -0.026451   0.009592     3.00055e-01     6.91943e-02
      3756       3764      1  -0.026451   0.009592     3.00055e-01     6.91943e-02
      3755       3759      1   0.010172  -0.003655     3.00055e-01     6.91943e-02
      3755       3758      1   0.010172   0.009367     2.60142e-01     2.09200e-02
      3755       3757      1   0.010172   0.009367     2.60142e-01     2.09200e-02
      3754       3759      1   0.010172  -0.003655     3.00055e-01     6.91943e-02
      3754       3758      1   0.010172   0.009367     2.60142e-01     2.09200e-02
      3754       3757      1   0.010172   0.009367     2.60142e-01     2.09200e-02
      3753       3760      1  -0.014653   0.005694     3.00055e-01     6.91943e-02
      3753       3761      1  -0.014653   0.005694     3.00055e-01     6.91943e-02
      3752       3756      1   0.010037  -0.022042     3.00055e-01     6.91943e-02
      3752       3754      1   0.010037   0.008477     2.60142e-01     2.09200e-02
      3752       3755      1   0.010037   0.008477     2.60142e-01     2.09200e-02
      3751       3756      1   0.010037  -0.022042     3.00055e-01     6.91943e-02
      3751       3754      1   0.010037   0.008477     2.60142e-01     2.09200e-02
      3751       3755      1   0.010037   0.008477     2.60142e-01     2.09200e-02
      3750       3758      1  -0.021025   0.009367     3.00055e-01     6.91943e-02
      3750       3757      1  -0.021025   0.009367     3.00055e-01     6.91943e-02
      3749       3753      1   0.012677  -0.012211     3.00055e-01     6.91943e-02
      3749       3752      1   0.012677   0.008364     2.60142e-01     2.09200e-02
      3749       3751      1   0.012677   0.008364     2.60142e-01     2.09200e-02
      3748       3753      1   0.012677  -0.012211     3.00055e-01     6.91943e-02
      3748       3752      1   0.012677   0.008364     2.60142e-01     2.09200e-02
      3748       3751      1   0.012677   0.008364     2.60142e-01     2.09200e-02
      3747       3754      1  -0.031787   0.008477     3.00055e-01     6.91943e-02
      3747       3755      1  -0.031787   0.008477     3.00055e-01     6.91943e-02
      3746       3750      1   0.017208  -0.017521     3.00055e-01     6.91943e-02
      3746       3748      1   0.017208   0.010564     2.60142e-01     2.09200e-02
      3746       3749      1   0.017208   0.010564     2.60142e-01     2.09200e-02
      3745       3750      1   0.017208  -0.017521     3.00055e-01     6.91943e-02
      3745       3748      1   0.017208   0.010564     2.60142e-01     2.09200e-02
      3745       3749      1   0.017208   0.010564     2.60142e-01     2.09200e-02
      3744       3752      1  -0.028094   0.008364     3.00055e-01     6.91943e-02
      3744       3751      1  -0.028094   0.008364     3.00055e-01     6.91943e-02
      3743       3747      1   0.007531  -0.026489     3.00055e-01     6.91943e-02
      3743       3746      1   0.007531   0.014340     2.60142e-01     2.09200e-02
      3743       3745      1   0.007531   0.014340     2.60142e-01     2.09200e-02
      3742       3747      1   0.007531  -0.026489     3.00055e-01     6.91943e-02
      3742       3746      1   0.007531   0.014340     2.60142e-01     2.09200e-02
      3742       3745      1   0.007531   0.014340     2.60142e-01     2.09200e-02
      3741       3748      1   0.017463   0.010564     3.00055e-01     6.91943e-02
      3741       3749      1   0.017463   0.010564     3.00055e-01     6.91943e-02
      3740       3744      1   0.025511  -0.023412     3.00055e-01     6.91943e-02
      3740       3742      1   0.025511   0.006276     2.60142e-01     2.09200e-02
      3740       3743      1   0.025511   0.006276     2.60142e-01     2.09200e-02
      3739       3744      1   0.025511  -0.023412     3.00055e-01     6.91943e-02
      3739       3742      1   0.025511   0.006276     2.60142e-01     2.09200e-02
      3739       3743      1   0.025511   0.006276     2.60142e-01     2.09200e-02
      3738       3746      1  -0.111712   0.014340     3.00055e-01     6.91943e-02
      3738       3745      1  -0.111712   0.014340     3.00055e-01     6.91943e-02
      3737       3744      1   0.025511  -0.023412     3.00055e-01     6.91943e-02
      3737       3742      1   0.025511   0.006276     2.60142e-01     2.09200e-02
      3737       3743      1   0.025511   0.006276     2.60142e-01     2.09200e-02
      3816       3818      1   0.053944  -0.559638     2.78067e-01     9.58675e-02
      3816       3819      1   0.053944  -0.479574     2.80072e-01     8.62554e-02
      3815       3818      1   0.053944  -0.559638     2.78067e-01     9.58675e-02
      3815       3819      1   0.053944  -0.479574     2.80072e-01     8.62554e-02
      3813       3816      1   0.018859   0.044953     2.60142e-01     2.09200e-02
      3813       3815      1   0.018859   0.044953     2.60142e-01     2.09200e-02
      3813       3817      1   0.018859   0.758669     3.00055e-01     6.13495e-02
      3812       3816      1   0.018859   0.044953     2.60142e-01     2.09200e-02
      3812       3815      1   0.018859   0.044953     2.60142e-01     2.09200e-02
      3812       3817      1   0.018859   0.758669     3.00055e-01     6.13495e-02
      3810       3814      1   0.020431  -0.136833     3.00055e-01     6.91943e-02
      3810       3813      1   0.020431   0.015716     2.60142e-01     2.09200e-02
      3810       3812      1   0.020431   0.015716     2.60142e-01     2.09200e-02
      3809       3814      1   0.020431  -0.136833     3.00055e-01     6.91943e-02
      3809       3813      1   0.020431   0.015716     2.60142e-01     2.09200e-02
      3809       3812      1   0.020431   0.015716     2.60142e-01     2.09200e-02
      3808       3816      1  -0.026954   0.044953     3.00055e-01     6.91943e-02
      3808       3815      1  -0.026954   0.044953     3.00055e-01     6.91943e-02
      3807       3811      1   0.010573  -0.002029     3.00055e-01     6.91943e-02
      3807       3810      1   0.010573   0.017026     2.60142e-01     2.09200e-02
      3807       3809      1   0.010573   0.017026     2.60142e-01     2.09200e-02
      3806       3811      1   0.010573  -0.002029     3.00055e-01     6.91943e-02
      3806       3810      1   0.010573   0.017026     2.60142e-01     2.09200e-02
      3806       3809      1   0.010573   0.017026     2.60142e-01     2.09200e-02
      3805       3813      1  -0.016521   0.015716     3.00055e-01     6.91943e-02
      3805       3812      1  -0.016521   0.015716     3.00055e-01     6.91943e-02
      3804       3808      1   0.011511  -0.022462     3.00055e-01     6.91943e-02
      3804       3806      1   0.011511   0.008811     2.60142e-01     2.09200e-02
      3804       3807      1   0.011511   0.008811     2.60142e-01     2.09200e-02
      3803       3808      1   0.011511  -0.022462     3.00055e-01     6.91943e-02
      3803       3806      1   0.011511   0.008811     2.60142e-01     2.09200e-02
      3803       3807      1   0.011511   0.008811     2.60142e-01     2.09200e-02
      3802       3810      1  -0.027812   0.017026     3.00055e-01     6.91943e-02
      3802       3809      1  -0.027812   0.017026     3.00055e-01     6.91943e-02
      3801       3805      1   0.006833  -0.013767     3.00055e-01     6.91943e-02
      3801       3803      1   0.006833   0.009592     2.60142e-01     2.09200e-02
      3801       3804      1   0.006833   0.009592     2.60142e-01     2.09200e-02
      3800       3805      1   0.006833  -0.013767     3.00055e-01     6.91943e-02
      3800       3803      1   0.006833   0.009592     2.60142e-01     2.09200e-02
      3800       3804      1   0.006833   0.009592     2.60142e-01     2.09200e-02
      3799       3806      1  -0.004386   0.008811     3.00055e-01     6.91943e-02
      3799       3807      1  -0.004386   0.008811     3.00055e-01     6.91943e-02
      3798       3802      1   0.011241  -0.023177     3.00055e-01     6.91943e-02
      3798       3800      1   0.011241   0.005694     2.60142e-01     2.09200e-02
      3798       3801      1   0.011241   0.005694     2.60142e-01     2.09200e-02
      3797       3802      1   0.011241  -0.023177     3.00055e-01     6.91943e-02
      3797       3800      1   0.011241   0.005694     2.60142e-01     2.09200e-02
      3797       3801      1   0.011241   0.005694     2.60142e-01     2.09200e-02
      3796       3803      1  -0.026451   0.009592     3.00055e-01     6.91943e-02
      3796       3804      1  -0.026451   0.009592     3.00055e-01     6.91943e-02
      3795       3799      1   0.010172  -0.003655     3.00055e-01     6.91943e-02
      3795       3798      1   0.010172   0.009367     2.60142e-01     2.09200e-02
      3795       3797      1   0.010172   0.009367     2.60142e-01     2.09200e-02
      3794       3799      1   0.010172  -0.003655     3.00055e-01     6.91943e-02
      3794       3798      1   0.010172   0.009367     2.60142e-01     2.09200e-02
      3794       3797      1   0.010172   0.009367     2.60142e-01     2.09200e-02
      3793       3800      1  -0.014653   0.005694     3.00055e-01     6.91943e-02
      3793       3801      1  -0.014653   0.005694     3.00055e-01     6.91943e-02
      3792       3796      1   0.010037  -0.022042     3.00055e-01     6.91943e-02
      3792       3794      1   0.010037   0.008477     2.60142e-01     2.09200e-02
      3792       3795      1   0.010037   0.008477     2.60142e-01     2.09200e-02
      3791       3796      1   0.010037  -0.022042     3.00055e-01     6.91943e-02
      3791       3794      1   0.010037   0.008477     2.60142e-01     2.09200e-02
      3791       3795      1   0.010037   0.008477     2.60142e-01     2.09200e-02
      3790       3798      1  -0.021025   0.009367     3.00055e-01     6.91943e-02
      3790       3797      1  -0.021025   0.009367     3.00055e-01     6.91943e-02
      3789       3793      1   0.012677  -0.012211     3.00055e-01     6.91943e-02
      3789       3792      1   0.012677   0.008364     2.60142e-01     2.09200e-02
      3789       3791      1   0.012677   0.008364     2.60142e-01     2.09200e-02
      3788       3793      1   0.012677  -0.012211     3.00055e-01     6.91943e-02
      3788       3792      1   0.012677   0.008364     2.60142e-01     2.09200e-02
      3788       3791      1   0.012677   0.008364     2.60142e-01     2.09200e-02
      3787       3794      1  -0.031787   0.008477     3.00055e-01     6.91943e-02
      3787       3795      1  -0.031787   0.008477     3.00055e-01     6.91943e-02
      3786       3790      1   0.017208  -0.017521     3.00055e-01     6.91943e-02
      3786       3788      1   0.017208   0.010564     2.60142e-01     2.09200e-02
      3786       3789      1   0.017208   0.010564     2.60142e-01     2.09200e-02
      3785       3790      1   0.017208  -0.017521     3.00055e-01     6.91943e-02
      3785       3788      1   0.017208   0.010564     2.60142e-01     2.09200e-02
      3785       3789      1   0.017208   0.010564     2.60142e-01     2.09200e-02
      3784       3792      1  -0.028094   0.008364     3.00055e-01     6.91943e-02
      3784       3791      1  -0.028094   0.008364     3.00055e-01     6.91943e-02
      3783       3787      1   0.007531  -0.026489     3.00055e-01     6.91943e-02
      3783       3786      1   0.007531   0.014340     2.60142e-01     2.09200e-02
      3783       3785      1   0.007531   0.014340     2.60142e-01     2.09200e-02
      3782       3787      1   0.007531  -0.026489     3.00055e-01     6.91943e-02
      3782       3786      1   0.007531   0.014340     2.60142e-01     2.09200e-02
      3782       3785      1   0.007531   0.014340     2.60142e-01     2.09200e-02
      3781       3788      1   0.017463   0.010564     3.00055e-01     6.91943e-02
      3781       3789      1   0.017463   0.010564     3.00055e-01     6.91943e-02
      3780       3784      1   0.025511  -0.023412     3.00055e-01     6.91943e-02
      3780       3782      1   0.025511   0.006276     2.60142e-01     2.09200e-02
      3780       3783      1   0.025511   0.006276     2.60142e-01     2.09200e-02
      3779       3784      1   0.025511  -0.023412     3.00055e-01     6.91943e-02
      3779       3782      1   0.025511   0.006276     2.60142e-01     2.09200e-02
      3779       3783      1   0.025511   0.006276     2.60142e-01     2.09200e-02
      3778       3786      1  -0.111712   0.014340     3.00055e-01     6.91943e-02
      3778       3785      1  -0.111712   0.014340     3.00055e-01     6.91943e-02
      3777       3784      1   0.025511  -0.023412     3.00055e-01     6.91943e-02
      3777       3782      1   0.025511   0.006276     2.60142e-01     2.09200e-02
      3777       3783      1   0.025511   0.006276     2.60142e-01     2.09200e-02
      3854       3894      1  -0.673755   0.044953     2.78067e-01     9.58675e-02
      3854       3893      1  -0.673755   0.044953     2.78067e-01     9.58675e-02
      3853       3891      1   0.897613   0.015716     3.00055e-01     6.13495e-02
      3853       3890      1   0.897613   0.015716     3.00055e-01     6.13495e-02
      3852       3894      1  -0.552948   0.044953     2.80072e-01     8.62554e-02
      3852       3893      1  -0.552948   0.044953     2.80072e-01     8.62554e-02
      3845       3846      1   0.172230  -0.282478     2.67982e-01     8.67002e-02
      3844       3846      1   0.172230  -0.282478     2.67982e-01     8.67002e-02
      3843       3846      1   0.172230  -0.282478     2.67982e-01     8.67002e-02
      3842       3847      1  -0.338973   0.143525     2.67982e-01     8.67002e-02
      3842       3848      1  -0.338973   0.143525     2.67982e-01     8.67002e-02
      3842       3849      1  -0.338973   0.143525     2.67982e-01     8.67002e-02
      3841       3842      1   0.172230  -0.282478     2.67982e-01     8.67002e-02
      3841       3846      1   0.172230  -0.282478     2.67982e-01     8.67002e-02
      3840       3842      1   0.172230  -0.282478     2.67982e-01     8.67002e-02
      3840       3846      1   0.172230  -0.282478     2.67982e-01     8.67002e-02
      3839       3842      1   0.172230  -0.282478     2.67982e-01     8.67002e-02
      3839       3846      1   0.172230  -0.282478     2.67982e-01     8.67002e-02
      3838       3843      1  -0.338973   0.143525     2.67982e-01     8.67002e-02
      3838       3844      1  -0.338973   0.143525     2.67982e-01     8.67002e-02
      3838       3845      1  -0.338973   0.143525     2.67982e-01     8.67002e-02
      3838       3847      1  -0.338973   0.143525     2.67982e-01     8.67002e-02
      3838       3848      1  -0.338973   0.143525     2.67982e-01     8.67002e-02
      3838       3849      1  -0.338973   0.143525     2.67982e-01     8.67002e-02
      3836       3838      1   0.136415  -0.282478     2.67982e-01     8.67002e-02
      3836       3842      1   0.136415  -0.282478     2.67982e-01     8.67002e-02
      3836       3846      1   0.136415  -0.282478     2.67982e-01     8.67002e-02
      3835       3838      1   0.136415  -0.282478     2.67982e-01     8.67002e-02
      3835       3842      1   0.136415  -0.282478     2.67982e-01     8.67002e-02
      3835       3846      1   0.136415  -0.282478     2.67982e-01     8.67002e-02
      3834       3839      1  -0.170824   0.143525     2.67982e-01     8.67002e-02
      3834       3840      1  -0.170824   0.143525     2.67982e-01     8.67002e-02
      3834       3841      1  -0.170824   0.143525     2.67982e-01     8.67002e-02
      3834       3843      1  -0.170824   0.143525     2.67982e-01     8.67002e-02
      3834       3844      1  -0.170824   0.143525     2.67982e-01     8.67002e-02
      3834       3845      1  -0.170824   0.143525     2.67982e-01     8.67002e-02
      3834       3847      1  -0.170824   0.143525     2.67982e-01     8.67002e-02
      3834       3848      1  -0.170824   0.143525     2.67982e-01     8.67002e-02
      3834       3849      1  -0.170824   0.143525     2.67982e-01     8.67002e-02
      3833       3835      1   0.078534   0.113679     2.21567e-01     3.28444e-02
      3833       3836      1   0.078534   0.113679     2.21567e-01     3.28444e-02
      3833       3837      1   0.078534   0.204385     2.86068e-01     1.08078e-01
      3832       3835      1   0.078534   0.113679     2.21567e-01     3.28444e-02
      3832       3836      1   0.078534   0.113679     2.21567e-01     3.28444e-02
      3832       3837      1   0.078534   0.204385     2.86068e-01     1.08078e-01
      3830       3835      1  -0.508176   0.113679     2.47999e-01     1.08078e-01
      3830       3836      1  -0.508176   0.113679     2.47999e-01     1.08078e-01
      3829       3832      1   1.339721   0.065445     3.10656e-01     1.17227e-01
      3829       3833      1   1.339721   0.065445     3.10656e-01     1.17227e-01
      3827       3852      1   0.095591  -0.460790     2.73568e-01     1.08078e-01
      3827       3829      1   0.095591   1.116434     3.10656e-01     1.17227e-01
      3826       3852      1   0.095591  -0.460790     2.73568e-01     1.08078e-01
      3826       3829      1   0.095591   1.116434     3.10656e-01     1.17227e-01
      3824       3826      1   0.063253   0.079659     2.47135e-01     3.28444e-02
      3824       3827      1   0.063253   0.079659     2.47135e-01     3.28444e-02
      3824       3828      1   0.063253  -0.424567     2.73568e-01     1.08078e-01
      3824       3853      1   0.063253   0.748011     2.93551e-01     7.68707e-02
      3822       3824      1   0.070469   0.052711     2.47135e-01     3.28444e-02
      3822       3825      1   0.070469   0.014549     2.93551e-01     8.67002e-02
      3822       3852      1   0.070469  -0.460790     2.73568e-01     1.08078e-01
      3821       3824      1   0.070469   0.052711     2.47135e-01     3.28444e-02
      3821       3825      1   0.070469   0.014549     2.93551e-01     8.67002e-02
      3821       3852      1   0.070469  -0.460790     2.73568e-01     1.08078e-01
      3820       3826      1   0.196939   0.079659     2.93551e-01     8.67002e-02
      3820       3827      1   0.196939   0.079659     2.93551e-01     8.67002e-02
      3819       3824      1  -0.575489   0.052711     2.73568e-01     1.08078e-01
      3817       3821      1   0.910403   0.058724     2.93551e-01     7.68707e-02
      3817       3822      1   0.910403   0.058724     2.93551e-01     7.68707e-02
      3891       3894      1   0.018859   0.044953     2.60142e-01     2.09200e-02
      3891       3893      1   0.018859   0.044953     2.60142e-01     2.09200e-02
      3890       3894      1   0.018859   0.044953     2.60142e-01     2.09200e-02
      3890       3893      1   0.018859   0.044953     2.60142e-01     2.09200e-02
      3888       3892      1   0.020431  -0.136833     3.00055e-01     6.91943e-02
      3888       3891      1   0.020431   0.015716     2.60142e-01     2.09200e-02
      3888       3890      1   0.020431   0.015716     2.60142e-01     2.09200e-02
      3887       3892      1   0.020431  -0.136833     3.00055e-01     6.91943e-02
      3887       3891      1   0.020431   0.015716     2.60142e-01     2.09200e-02
      3887       3890      1   0.020431   0.015716     2.60142e-01     2.09200e-02
      3886       3894      1  -0.026954   0.044953     3.00055e-01     6.91943e-02
      3886       3893      1  -0.026954   0.044953     3.00055e-01     6.91943e-02
      3885       3889      1   0.010573  -0.002029     3.00055e-01     6.91943e-02
      3885       3888      1   0.010573   0.017026     2.60142e-01     2.09200e-02
      3885       3887      1   0.010573   0.017026     2.60142e-01     2.09200e-02
      3884       3889      1   0.010573  -0.002029     3.00055e-01     6.91943e-02
      3884       3888      1   0.010573   0.017026     2.60142e-01     2.09200e-02
      3884       3887      1   0.010573   0.017026     2.60142e-01     2.09200e-02
      3883       3891      1  -0.016521   0.015716     3.00055e-01     6.91943e-02
      3883       3890      1  -0.016521   0.015716     3.00055e-01     6.91943e-02
      3882       3886      1   0.011511  -0.022462     3.00055e-01     6.91943e-02
      3882       3884      1   0.011511   0.008811     2.60142e-01     2.09200e-02
      3882       3885      1   0.011511   0.008811     2.60142e-01     2.09200e-02
      3881       3886      1   0.011511  -0.022462     3.00055e-01     6.91943e-02
      3881       3884      1   0.011511   0.008811     2.60142e-01     2.09200e-02
      3881       3885      1   0.011511   0.008811     2.60142e-01     2.09200e-02
      3880       3888      1  -0.027812   0.017026     3.00055e-01     6.91943e-02
      3880       3887      1  -0.027812   0.017026     3.00055e-01     6.91943e-02
      3879       3883      1   0.006833  -0.013767     3.00055e-01     6.91943e-02
      3879       3881      1   0.006833   0.009592     2.60142e-01     2.09200e-02
      3879       3882      1   0.006833   0.009592     2.60142e-01     2.09200e-02
      3878       3883      1   0.006833  -0.013767     3.00055e-01     6.91943e-02
      3878       3881      1   0.006833   0.009592     2.60142e-01     2.09200e-02
      3878       3882      1   0.006833   0.009592     2.60142e-01     2.09200e-02
      3877       3884      1  -0.004386   0.008811     3.00055e-01     6.91943e-02
      3877       3885      1  -0.004386   0.008811     3.00055e-01     6.91943e-02
      3876       3880      1   0.011241  -0.023177     3.00055e-01     6.91943e-02
      3876       3878      1   0.011241   0.005694     2.60142e-01     2.09200e-02
      3876       3879      1   0.011241   0.005694     2.60142e-01     2.09200e-02
      3875       3880      1   0.011241  -0.023177     3.00055e-01     6.91943e-02
      3875       3878      1   0.011241   0.005694     2.60142e-01     2.09200e-02
      3875       3879      1   0.011241   0.005694     2.60142e-01     2.09200e-02
      3874       3881      1  -0.026451   0.009592     3.00055e-01     6.91943e-02
      3874       3882      1  -0.026451   0.009592     3.00055e-01     6.91943e-02
      3873       3877      1   0.010172  -0.003655     3.00055e-01     6.91943e-02
      3873       3876      1   0.010172   0.009367     2.60142e-01     2.09200e-02
      3873       3875      1   0.010172   0.009367     2.60142e-01     2.09200e-02
      3872       3877      1   0.010172  -0.003655     3.00055e-01     6.91943e-02
      3872       3876      1   0.010172   0.009367     2.60142e-01     2.09200e-02
      3872       3875      1   0.010172   0.009367     2.60142e-01     2.09200e-02
      3871       3878      1  -0.014653   0.005694     3.00055e-01     6.91943e-02
      3871       3879      1  -0.014653   0.005694     3.00055e-01     6.91943e-02
      3870       3874      1   0.010037  -0.022042     3.00055e-01     6.91943e-02
      3870       3872      1   0.010037   0.008477     2.60142e-01     2.09200e-02
      3870       3873      1   0.010037   0.008477     2.60142e-01     2.09200e-02
      3869       3874      1   0.010037  -0.022042     3.00055e-01     6.91943e-02
      3869       3872      1   0.010037   0.008477     2.60142e-01     2.09200e-02
      3869       3873      1   0.010037   0.008477     2.60142e-01     2.09200e-02
      3868       3876      1  -0.021025   0.009367     3.00055e-01     6.91943e-02
      3868       3875      1  -0.021025   0.009367     3.00055e-01     6.91943e-02
      3867       3871      1   0.012677  -0.012211     3.00055e-01     6.91943e-02
      3867       3870      1   0.012677   0.008364     2.60142e-01     2.09200e-02
      3867       3869      1   0.012677   0.008364     2.60142e-01     2.09200e-02
      3866       3871      1   0.012677  -0.012211     3.00055e-01     6.91943e-02
      3866       3870      1   0.012677   0.008364     2.60142e-01     2.09200e-02
      3866       3869      1   0.012677   0.008364     2.60142e-01     2.09200e-02
      3865       3872      1  -0.031787   0.008477     3.00055e-01     6.91943e-02
      3865       3873      1  -0.031787   0.008477     3.00055e-01     6.91943e-02
      3864       3868      1   0.017208  -0.017521     3.00055e-01     6.91943e-02
      3864       3866      1   0.017208   0.010564     2.60142e-01     2.09200e-02
      3864       3867      1   0.017208   0.010564     2.60142e-01     2.09200e-02
      3863       3868      1   0.017208  -0.017521     3.00055e-01     6.91943e-02
      3863       3866      1   0.017208   0.010564     2.60142e-01     2.09200e-02
      3863       3867      1   0.017208   0.010564     2.60142e-01     2.09200e-02
      3862       3870      1  -0.028094   0.008364     3.00055e-01     6.91943e-02
      3862       3869      1  -0.028094   0.008364     3.00055e-01     6.91943e-02
      3861       3865      1   0.007531  -0.026489     3.00055e-01     6.91943e-02
      3861       3864      1   0.007531   0.014340     2.60142e-01     2.09200e-02
      3861       3863      1   0.007531   0.014340     2.60142e-01     2.09200e-02
      3860       3865      1   0.007531  -0.026489     3.00055e-01     6.91943e-02
      3860       3864      1   0.007531   0.014340     2.60142e-01     2.09200e-02
      3860       3863      1   0.007531   0.014340     2.60142e-01     2.09200e-02
      3859       3866      1   0.017463   0.010564     3.00055e-01     6.91943e-02
      3859       3867      1   0.017463   0.010564     3.00055e-01     6.91943e-02
      3858       3862      1   0.025511  -0.023412     3.00055e-01     6.91943e-02
      3858       3860      1   0.025511   0.006276     2.60142e-01     2.09200e-02
      3858       3861      1   0.025511   0.006276     2.60142e-01     2.09200e-02
      3857       3862      1   0.025511  -0.023412     3.00055e-01     6.91943e-02
      3857       3860      1   0.025511   0.006276     2.60142e-01     2.09200e-02
      3857       3861      1   0.025511   0.006276     2.60142e-01     2.09200e-02
      3856       3864      1  -0.111712   0.014340     3.00055e-01     6.91943e-02
      3856       3863      1  -0.111712   0.014340     3.00055e-01     6.91943e-02
      3855       3862      1   0.025511  -0.023412     3.00055e-01     6.91943e-02
      3855       3860      1   0.025511   0.006276     2.60142e-01     2.09200e-02
      3855       3861      1   0.025511   0.006276     2.60142e-01     2.09200e-02
      3934       3936      1   0.053944  -0.559638     2.78067e-01     9.58675e-02
      3934       3937      1   0.053944  -0.479574     2.80072e-01     8.62554e-02
      3933       3936      1   0.053944  -0.559638     2.78067e-01     9.58675e-02
      3933       3937      1   0.053944  -0.479574     2.80072e-01     8.62554e-02
      3931       3934      1   0.018859   0.044953     2.60142e-01     2.09200e-02
      3931       3933      1   0.018859   0.044953     2.60142e-01     2.09200e-02
      3931       3935      1   0.018859   0.758669     3.00055e-01     6.13495e-02
      3930       3934      1   0.018859   0.044953     2.60142e-01     2.09200e-02
      3930       3933      1   0.018859   0.044953     2.60142e-01     2.09200e-02
      3930       3935      1   0.018859   0.758669     3.00055e-01     6.13495e-02
      3928       3932      1   0.020431  -0.136833     3.00055e-01     6.91943e-02
      3928       3931      1   0.020431   0.015716     2.60142e-01     2.09200e-02
      3928       3930      1   0.020431   0.015716     2.60142e-01     2.09200e-02
      3927       3932      1   0.020431  -0.136833     3.00055e-01     6.91943e-02
      3927       3931      1   0.020431   0.015716     2.60142e-01     2.09200e-02
      3927       3930      1   0.020431   0.015716     2.60142e-01     2.09200e-02
      3926       3934      1  -0.026954   0.044953     3.00055e-01     6.91943e-02
      3926       3933      1  -0.026954   0.044953     3.00055e-01     6.91943e-02
      3925       3929      1   0.010573  -0.002029     3.00055e-01     6.91943e-02
      3925       3928      1   0.010573   0.017026     2.60142e-01     2.09200e-02
      3925       3927      1   0.010573   0.017026     2.60142e-01     2.09200e-02
      3924       3929      1   0.010573  -0.002029     3.00055e-01     6.91943e-02
      3924       3928      1   0.010573   0.017026     2.60142e-01     2.09200e-02
      3924       3927      1   0.010573   0.017026     2.60142e-01     2.09200e-02
      3923       3931      1  -0.016521   0.015716     3.00055e-01     6.91943e-02
      3923       3930      1  -0.016521   0.015716     3.00055e-01     6.91943e-02
      3922       3926      1   0.011511  -0.022462     3.00055e-01     6.91943e-02
      3922       3924      1   0.011511   0.008811     2.60142e-01     2.09200e-02
      3922       3925      1   0.011511   0.008811     2.60142e-01     2.09200e-02
      3921       3926      1   0.011511  -0.022462     3.00055e-01     6.91943e-02
      3921       3924      1   0.011511   0.008811     2.60142e-01     2.09200e-02
      3921       3925      1   0.011511   0.008811     2.60142e-01     2.09200e-02
      3920       3928      1  -0.027812   0.017026     3.00055e-01     6.91943e-02
      3920       3927      1  -0.027812   0.017026     3.00055e-01     6.91943e-02
      3919       3923      1   0.006833  -0.013767     3.00055e-01     6.91943e-02
      3919       3921      1   0.006833   0.009592     2.60142e-01     2.09200e-02
      3919       3922      1   0.006833   0.009592     2.60142e-01     2.09200e-02
      3918       3923      1   0.006833  -0.013767     3.00055e-01     6.91943e-02
      3918       3921      1   0.006833   0.009592     2.60142e-01     2.09200e-02
      3918       3922      1   0.006833   0.009592     2.60142e-01     2.09200e-02
      3917       3924      1  -0.004386   0.008811     3.00055e-01     6.91943e-02
      3917       3925      1  -0.004386   0.008811     3.00055e-01     6.91943e-02
      3916       3920      1   0.011241  -0.023177     3.00055e-01     6.91943e-02
      3916       3918      1   0.011241   0.005694     2.60142e-01     2.09200e-02
      3916       3919      1   0.011241   0.005694     2.60142e-01     2.09200e-02
      3915       3920      1   0.011241  -0.023177     3.00055e-01     6.91943e-02
      3915       3918      1   0.011241   0.005694     2.60142e-01     2.09200e-02
      3915       3919      1   0.011241   0.005694     2.60142e-01     2.09200e-02
      3914       3921      1  -0.026451   0.009592     3.00055e-01     6.91943e-02
      3914       3922      1  -0.026451   0.009592     3.00055e-01     6.91943e-02
      3913       3917      1   0.010172  -0.003655     3.00055e-01     6.91943e-02
      3913       3916      1   0.010172   0.009367     2.60142e-01     2.09200e-02
      3913       3915      1   0.010172   0.009367     2.60142e-01     2.09200e-02
      3912       3917      1   0.010172  -0.003655     3.00055e-01     6.91943e-02
      3912       3916      1   0.010172   0.009367     2.60142e-01     2.09200e-02
      3912       3915      1   0.010172   0.009367     2.60142e-01     2.09200e-02
      3911       3918      1  -0.014653   0.005694     3.00055e-01     6.91943e-02
      3911       3919      1  -0.014653   0.005694     3.00055e-01     6.91943e-02
      3910       3914      1   0.010037  -0.022042     3.00055e-01     6.91943e-02
      3910       3912      1   0.010037   0.008477     2.60142e-01     2.09200e-02
      3910       3913      1   0.010037   0.008477     2.60142e-01     2.09200e-02
      3909       3914      1   0.010037  -0.022042     3.00055e-01     6.91943e-02
      3909       3912      1   0.010037   0.008477     2.60142e-01     2.09200e-02
      3909       3913      1   0.010037   0.008477     2.60142e-01     2.09200e-02
      3908       3916      1  -0.021025   0.009367     3.00055e-01     6.91943e-02
      3908       3915      1  -0.021025   0.009367     3.00055e-01     6.91943e-02
      3907       3911      1   0.012677  -0.012211     3.00055e-01     6.91943e-02
      3907       3910      1   0.012677   0.008364     2.60142e-01     2.09200e-02
      3907       3909      1   0.012677   0.008364     2.60142e-01     2.09200e-02
      3906       3911      1   0.012677  -0.012211     3.00055e-01     6.91943e-02
      3906       3910      1   0.012677   0.008364     2.60142e-01     2.09200e-02
      3906       3909      1   0.012677   0.008364     2.60142e-01     2.09200e-02
      3905       3912      1  -0.031787   0.008477     3.00055e-01     6.91943e-02
      3905       3913      1  -0.031787   0.008477     3.00055e-01     6.91943e-02
      3904       3908      1   0.017208  -0.017521     3.00055e-01     6.91943e-02
      3904       3906      1   0.017208   0.010564     2.60142e-01     2.09200e-02
      3904       3907      1   0.017208   0.010564     2.60142e-01     2.09200e-02
      3903       3908      1   0.017208  -0.017521     3.00055e-01     6.91943e-02
      3903       3906      1   0.017208   0.010564     2.60142e-01     2.09200e-02
      3903       3907      1   0.017208   0.010564     2.60142e-01     2.09200e-02
      3902       3910      1  -0.028094   0.008364     3.00055e-01     6.91943e-02
      3902       3909      1  -0.028094   0.008364     3.00055e-01     6.91943e-02
      3901       3905      1   0.007531  -0.026489     3.00055e-01     6.91943e-02
      3901       3904      1   0.007531   0.014340     2.60142e-01     2.09200e-02
      3901       3903      1   0.007531   0.014340     2.60142e-01     2.09200e-02
      3900       3905      1   0.007531  -0.026489     3.00055e-01     6.91943e-02
      3900       3904      1   0.007531   0.014340     2.60142e-01     2.09200e-02
      3900       3903      1   0.007531   0.014340     2.60142e-01     2.09200e-02
      3899       3906      1   0.017463   0.010564     3.00055e-01     6.91943e-02
      3899       3907      1   0.017463   0.010564     3.00055e-01     6.91943e-02
      3898       3902      1   0.025511  -0.023412     3.00055e-01     6.91943e-02
      3898       3900      1   0.025511   0.006276     2.60142e-01     2.09200e-02
      3898       3901      1   0.025511   0.006276     2.60142e-01     2.09200e-02
      3897       3902      1   0.025511  -0.023412     3.00055e-01     6.91943e-02
      3897       3900      1   0.025511   0.006276     2.60142e-01     2.09200e-02
      3897       3901      1   0.025511   0.006276     2.60142e-01     2.09200e-02
      3896       3904      1  -0.111712   0.014340     3.00055e-01     6.91943e-02
      3896       3903      1  -0.111712   0.014340     3.00055e-01     6.91943e-02
      3895       3902      1   0.025511  -0.023412     3.00055e-01     6.91943e-02
      3895       3900      1   0.025511   0.006276     2.60142e-01     2.09200e-02
      3895       3901      1   0.025511   0.006276     2.60142e-01     2.09200e-02
      3972       4012      1  -0.673755   0.044953     2.78067e-01     9.58675e-02
      3972       4011      1  -0.673755   0.044953     2.78067e-01     9.58675e-02
      3971       4009      1   0.897613   0.015716     3.00055e-01     6.13495e-02
      3971       4008      1   0.897613   0.015716     3.00055e-01     6.13495e-02
      3970       4012      1  -0.552948   0.044953     2.80072e-01     8.62554e-02
      3970       4011      1  -0.552948   0.044953     2.80072e-01     8.62554e-02
      3963       3964      1   0.172230  -0.282478     2.67982e-01     8.67002e-02
      3962       3964      1   0.172230  -0.282478     2.67982e-01     8.67002e-02
      3961       3964      1   0.172230  -0.282478     2.67982e-01     8.67002e-02
      3960       3965      1  -0.338973   0.143525     2.67982e-01     8.67002e-02
      3960       3966      1  -0.338973   0.143525     2.67982e-01     8.67002e-02
      3960       3967      1  -0.338973   0.143525     2.67982e-01     8.67002e-02
      3959       3960      1   0.172230  -0.282478     2.67982e-01     8.67002e-02
      3959       3964      1   0.172230  -0.282478     2.67982e-01     8.67002e-02
      3958       3960      1   0.172230  -0.282478     2.67982e-01     8.67002e-02
      3958       3964      1   0.172230  -0.282478     2.67982e-01     8.67002e-02
      3957       3960      1   0.172230  -0.282478     2.67982e-01     8.67002e-02
      3957       3964      1   0.172230  -0.282478     2.67982e-01     8.67002e-02
      3956       3961      1  -0.338973   0.143525     2.67982e-01     8.67002e-02
      3956       3962      1  -0.338973   0.143525     2.67982e-01     8.67002e-02
      3956       3963      1  -0.338973   0.143525     2.67982e-01     8.67002e-02
      3956       3965      1  -0.338973   0.143525     2.67982e-01     8.67002e-02
      3956       3966      1  -0.338973   0.143525     2.67982e-01     8.67002e-02
      3956       3967      1  -0.338973   0.143525     2.67982e-01     8.67002e-02
      3954       3956      1   0.136415  -0.282478     2.67982e-01     8.67002e-02
      3954       3960      1   0.136415  -0.282478     2.67982e-01     8.67002e-02
      3954       3964      1   0.136415  -0.282478     2.67982e-01     8.67002e-02
      3953       3956      1   0.136415  -0.282478     2.67982e-01     8.67002e-02
      3953       3960      1   0.136415  -0.282478     2.67982e-01     8.67002e-02
      3953       3964      1   0.136415  -0.282478     2.67982e-01     8.67002e-02
      3952       3957      1  -0.170824   0.143525     2.67982e-01     8.67002e-02
      3952       3958      1  -0.170824   0.143525     2.67982e-01     8.67002e-02
      3952       3959      1  -0.170824   0.143525     2.67982e-01     8.67002e-02
      3952       3961      1  -0.170824   0.143525     2.67982e-01     8.67002e-02
      3952       3962      1  -0.170824   0.143525     2.67982e-01     8.67002e-02
      3952       3963      1  -0.170824   0.143525     2.67982e-01     8.67002e-02
      3952       3965      1  -0.170824   0.143525     2.67982e-01     8.67002e-02
      3952       3966      1  -0.170824   0.143525     2.67982e-01     8.67002e-02
      3952       3967      1  -0.170824   0.143525     2.67982e-01     8.67002e-02
      3951       3953      1   0.078534   0.113679     2.21567e-01     3.28444e-02
      3951       3954      1   0.078534   0.113679     2.21567e-01     3.28444e-02
      3951       3955      1   0.078534   0.204385     2.86068e-01     1.08078e-01
      3950       3953      1   0.078534   0.113679     2.21567e-01     3.28444e-02
      3950       3954      1   0.078534   0.113679     2.21567e-01     3.28444e-02
      3950       3955      1   0.078534   0.204385     2.86068e-01     1.08078e-01
      3948       3953      1  -0.508176   0.113679     2.47999e-01     1.08078e-01
      3948       3954      1  -0.508176   0.113679     2.47999e-01     1.08078e-01
      3947       3950      1   1.339721   0.065445     3.10656e-01     1.17227e-01
      3947       3951      1   1.339721   0.065445     3.10656e-01     1.17227e-01
      3945       3970      1   0.095591  -0.460790     2.73568e-01     1.08078e-01
      3945       3947      1   0.095591   1.116434     3.10656e-01     1.17227e-01
      3944       3970      1   0.095591  -0.460790     2.73568e-01     1.08078e-01
      3944       3947      1   0.095591   1.116434     3.10656e-01     1.17227e-01
      3942       3944      1   0.063253   0.079659     2.47135e-01     3.28444e-02
      3942       3945      1   0.063253   0.079659     2.47135e-01     3.28444e-02
      3942       3946      1   0.063253  -0.424567     2.73568e-01     1.08078e-01
      3942       3971      1   0.063253   0.748011     2.93551e-01     7.68707e-02
      3940       3942      1   0.070469   0.052711     2.47135e-01     3.28444e-02
      3940       3943      1   0.070469   0.014549     2.93551e-01     8.67002e-02
      3940       3970      1   0.070469  -0.460790     2.73568e-01     1.08078e-01
      3939       3942      1   0.070469   0.052711     2.47135e-01     3.28444e-02
      3939       3943      1   0.070469   0.014549     2.93551e-01     8.67002e-02
      3939       3970      1   0.070469  -0.460790     2.73568e-01     1.08078e-01
      3938       3944      1   0.196939   0.079659     2.93551e-01     8.67002e-02
      3938       3945      1   0.196939   0.079659     2.93551e-01     8.67002e-02
      3937       3942      1  -0.575489   0.052711     2.73568e-01     1.08078e-01
      3935       3939      1   0.910403   0.058724     2.93551e-01     7.68707e-02
      3935       3940      1   0.910403   0.058724     2.93551e-01     7.68707e-02
      4009       4012      1   0.018859   0.044953     2.60142e-01     2.09200e-02
      4009       4011      1   0.018859   0.044953     2.60142e-01     2.09200e-02
      4008       4012      1   0.018859   0.044953     2.60142e-01     2.09200e-02
      4008       4011      1   0.018859   0.044953     2.60142e-01     2.09200e-02
      4006       4010      1   0.020431  -0.136833     3.00055e-01     6.91943e-02
      4006       4009      1   0.020431   0.015716     2.60142e-01     2.09200e-02
      4006       4008      1   0.020431   0.015716     2.60142e-01     2.09200e-02
      4005       4010      1   0.020431  -0.136833     3.00055e-01     6.91943e-02
      4005       4009      1   0.020431   0.015716     2.60142e-01     2.09200e-02
      4005       4008      1   0.020431   0.015716     2.60142e-01     2.09200e-02
      4004       4012      1  -0.026954   0.044953     3.00055e-01     6.91943e-02
      4004       4011      1  -0.026954   0.044953     3.00055e-01     6.91943e-02
      4003       4007      1   0.010573  -0.002029     3.00055e-01     6.91943e-02
      4003       4006      1   0.010573   0.017026     2.60142e-01     2.09200e-02
      4003       4005      1   0.010573   0.017026     2.60142e-01     2.09200e-02
      4002       4007      1   0.010573  -0.002029     3.00055e-01     6.91943e-02
      4002       4006      1   0.010573   0.017026     2.60142e-01     2.09200e-02
      4002       4005      1   0.010573   0.017026     2.60142e-01     2.09200e-02
      4001       4009      1  -0.016521   0.015716     3.00055e-01     6.91943e-02
      4001       4008      1  -0.016521   0.015716     3.00055e-01     6.91943e-02
      4000       4004      1   0.011511  -0.022462     3.00055e-01     6.91943e-02
      4000       4002      1   0.011511   0.008811     2.60142e-01     2.09200e-02
      4000       4003      1   0.011511   0.008811     2.60142e-01     2.09200e-02
      3999       4004      1   0.011511  -0.022462     3.00055e-01     6.91943e-02
      3999       4002      1   0.011511   0.008811     2.60142e-01     2.09200e-02
      3999       4003      1   0.011511   0.008811     2.60142e-01     2.09200e-02
      3998       4006      1  -0.027812   0.017026     3.00055e-01     6.91943e-02
      3998       4005      1  -0.027812   0.017026     3.00055e-01     6.91943e-02
      3997       4001      1   0.006833  -0.013767     3.00055e-01     6.91943e-02
      3997       3999      1   0.006833   0.009592     2.60142e-01     2.09200e-02
      3997       4000      1   0.006833   0.009592     2.60142e-01     2.09200e-02
      3996       4001      1   0.006833  -0.013767     3.00055e-01     6.91943e-02
      3996       3999      1   0.006833   0.009592     2.60142e-01     2.09200e-02
      3996       4000      1   0.006833   0.009592     2.60142e-01     2.09200e-02
      3995       4002      1  -0.004386   0.008811     3.00055e-01     6.91943e-02
      3995       4003      1  -0.004386   0.008811     3.00055e-01     6.91943e-02
      3994       3998      1   0.011241  -0.023177     3.00055e-01     6.91943e-02
      3994       3996      1   0.011241   0.005694     2.60142e-01     2.09200e-02
      3994       3997      1   0.011241   0.005694     2.60142e-01     2.09200e-02
      3993       3998      1   0.011241  -0.023177     3.00055e-01     6.91943e-02
      3993       3996      1   0.011241   0.005694     2.60142e-01     2.09200e-02
      3993       3997      1   0.011241   0.005694     2.60142e-01     2.09200e-02
      3992       3999      1  -0.026451   0.009592     3.00055e-01     6.91943e-02
      3992       4000      1  -0.026451   0.009592     3.00055e-01     6.91943e-02
      3991       3995      1   0.010172  -0.003655     3.00055e-01     6.91943e-02
      3991       3994      1   0.010172   0.009367     2.60142e-01     2.09200e-02
      3991       3993      1   0.010172   0.009367     2.60142e-01     2.09200e-02
      3990       3995      1   0.010172  -0.003655     3.00055e-01     6.91943e-02
      3990       3994      1   0.010172   0.009367     2.60142e-01     2.09200e-02
      3990       3993      1   0.010172   0.009367     2.60142e-01     2.09200e-02
      3989       3996      1  -0.014653   0.005694     3.00055e-01     6.91943e-02
      3989       3997      1  -0.014653   0.005694     3.00055e-01     6.91943e-02
      3988       3992      1   0.010037  -0.022042     3.00055e-01     6.91943e-02
      3988       3990      1   0.010037   0.008477     2.60142e-01     2.09200e-02
      3988       3991      1   0.010037   0.008477     2.60142e-01     2.09200e-02
      3987       3992      1   0.010037  -0.022042     3.00055e-01     6.91943e-02
      3987       3990      1   0.010037   0.008477     2.60142e-01     2.09200e-02
      3987       3991      1   0.010037   0.008477     2.60142e-01     2.09200e-02
      3986       3994      1  -0.021025   0.009367     3.00055e-01     6.91943e-02
      3986       3993      1  -0.021025   0.009367     3.00055e-01     6.91943e-02
      3985       3989      1   0.012677  -0.012211     3.00055e-01     6.91943e-02
      3985       3988      1   0.012677   0.008364     2.60142e-01     2.09200e-02
      3985       3987      1   0.012677   0.008364     2.60142e-01     2.09200e-02
      3984       3989      1   0.012677  -0.012211     3.00055e-01     6.91943e-02
      3984       3988      1   0.012677   0.008364     2.60142e-01     2.09200e-02
      3984       3987      1   0.012677   0.008364     2.60142e-01     2.09200e-02
      3983       3990      1  -0.031787   0.008477     3.00055e-01     6.91943e-02
      3983       3991      1  -0.031787   0.008477     3.00055e-01     6.91943e-02
      3982       3986      1   0.017208  -0.017521     3.00055e-01     6.91943e-02
      3982       3984      1   0.017208   0.010564     2.60142e-01     2.09200e-02
      3982       3985      1   0.017208   0.010564     2.60142e-01     2.09200e-02
      3981       3986      1   0.017208  -0.017521     3.00055e-01     6.91943e-02
      3981       3984      1   0.017208   0.010564     2.60142e-01     2.09200e-02
      3981       3985      1   0.017208   0.010564     2.60142e-01     2.09200e-02
      3980       3988      1  -0.028094   0.008364     3.00055e-01     6.91943e-02
      3980       3987      1  -0.028094   0.008364     3.00055e-01     6.91943e-02
      3979       3983      1   0.007531  -0.026489     3.00055e-01     6.91943e-02
      3979       3982      1   0.007531   0.014340     2.60142e-01     2.09200e-02
      3979       3981      1   0.007531   0.014340     2.60142e-01     2.09200e-02
      3978       3983      1   0.007531  -0.026489     3.00055e-01     6.91943e-02
      3978       3982      1   0.007531   0.014340     2.60142e-01     2.09200e-02
      3978       3981      1   0.007531   0.014340     2.60142e-01     2.09200e-02
      3977       3984      1   0.017463   0.010564     3.00055e-01     6.91943e-02
      3977       3985      1   0.017463   0.010564     3.00055e-01     6.91943e-02
      3976       3980      1   0.025511  -0.023412     3.00055e-01     6.91943e-02
      3976       3978      1   0.025511   0.006276     2.60142e-01     2.09200e-02
      3976       3979      1   0.025511   0.006276     2.60142e-01     2.09200e-02
      3975       3980      1   0.025511  -0.023412     3.00055e-01     6.91943e-02
      3975       3978      1   0.025511   0.006276     2.60142e-01     2.09200e-02
      3975       3979      1   0.025511   0.006276     2.60142e-01     2.09200e-02
      3974       3982      1  -0.111712   0.014340     3.00055e-01     6.91943e-02
      3974       3981      1  -0.111712   0.014340     3.00055e-01     6.91943e-02
      3973       3980      1   0.025511  -0.023412     3.00055e-01     6.91943e-02
      3973       3978      1   0.025511   0.006276     2.60142e-01     2.09200e-02
      3973       3979      1   0.025511   0.006276     2.60142e-01     2.09200e-02
      4052       4054      1   0.053944  -0.559638     2.78067e-01     9.58675e-02
      4052       4055      1   0.053944  -0.479574     2.80072e-01     8.62554e-02
      4051       4054      1   0.053944  -0.559638     2.78067e-01     9.58675e-02
      4051       4055      1   0.053944  -0.479574     2.80072e-01     8.62554e-02
      4049       4052      1   0.018859   0.044953     2.60142e-01     2.09200e-02
      4049       4051      1   0.018859   0.044953     2.60142e-01     2.09200e-02
      4049       4053      1   0.018859   0.758669     3.00055e-01     6.13495e-02
      4048       4052      1   0.018859   0.044953     2.60142e-01     2.09200e-02
      4048       4051      1   0.018859   0.044953     2.60142e-01     2.09200e-02
      4048       4053      1   0.018859   0.758669     3.00055e-01     6.13495e-02
      4046       4050      1   0.020431  -0.136833     3.00055e-01     6.91943e-02
      4046       4049      1   0.020431   0.015716     2.60142e-01     2.09200e-02
      4046       4048      1   0.020431   0.015716     2.60142e-01     2.09200e-02
      4045       4050      1   0.020431  -0.136833     3.00055e-01     6.91943e-02
      4045       4049      1   0.020431   0.015716     2.60142e-01     2.09200e-02
      4045       4048      1   0.020431   0.015716     2.60142e-01     2.09200e-02
      4044       4052      1  -0.026954   0.044953     3.00055e-01     6.91943e-02
      4044       4051      1  -0.026954   0.044953     3.00055e-01     6.91943e-02
      4043       4047      1   0.010573  -0.002029     3.00055e-01     6.91943e-02
      4043       4046      1   0.010573   0.017026     2.60142e-01     2.09200e-02
      4043       4045      1   0.010573   0.017026     2.60142e-01     2.09200e-02
      4042       4047      1   0.010573  -0.002029     3.00055e-01     6.91943e-02
      4042       4046      1   0.010573   0.017026     2.60142e-01     2.09200e-02
      4042       4045      1   0.010573   0.017026     2.60142e-01     2.09200e-02
      4041       4049      1  -0.016521   0.015716     3.00055e-01     6.91943e-02
      4041       4048      1  -0.016521   0.015716     3.00055e-01     6.91943e-02
      4040       4044      1   0.011511  -0.022462     3.00055e-01     6.91943e-02
      4040       4042      1   0.011511   0.008811     2.60142e-01     2.09200e-02
      4040       4043      1   0.011511   0.008811     2.60142e-01     2.09200e-02
      4039       4044      1   0.011511  -0.022462     3.00055e-01     6.91943e-02
      4039       4042      1   0.011511   0.008811     2.60142e-01     2.09200e-02
      4039       4043      1   0.011511   0.008811     2.60142e-01     2.09200e-02
      4038       4046      1  -0.027812   0.017026     3.00055e-01     6.91943e-02
      4038       4045      1  -0.027812   0.017026     3.00055e-01     6.91943e-02
      4037       4041      1   0.006833  -0.013767     3.00055e-01     6.91943e-02
      4037       4039      1   0.006833   0.009592     2.60142e-01     2.09200e-02
      4037       4040      1   0.006833   0.009592     2.60142e-01     2.09200e-02
      4036       4041      1   0.006833  -0.013767     3.00055e-01     6.91943e-02
      4036       4039      1   0.006833   0.009592     2.60142e-01     2.09200e-02
      4036       4040      1   0.006833   0.009592     2.60142e-01     2.09200e-02
      4035       4042      1  -0.004386   0.008811     3.00055e-01     6.91943e-02
      4035       4043      1  -0.004386   0.008811     3.00055e-01     6.91943e-02
      4034       4038      1   0.011241  -0.023177     3.00055e-01     6.91943e-02
      4034       4036      1   0.011241   0.005694     2.60142e-01     2.09200e-02
      4034       4037      1   0.011241   0.005694     2.60142e-01     2.09200e-02
      4033       4038      1   0.011241  -0.023177     3.00055e-01     6.91943e-02
      4033       4036      1   0.011241   0.005694     2.60142e-01     2.09200e-02
      4033       4037      1   0.011241   0.005694     2.60142e-01     2.09200e-02
      4032       4039      1  -0.026451   0.009592     3.00055e-01     6.91943e-02
      4032       4040      1  -0.026451   0.009592     3.00055e-01     6.91943e-02
      4031       4035      1   0.010172  -0.003655     3.00055e-01     6.91943e-02
      4031       4034      1   0.010172   0.009367     2.60142e-01     2.09200e-02
      4031       4033      1   0.010172   0.009367     2.60142e-01     2.09200e-02
      4030       4035      1   0.010172  -0.003655     3.00055e-01     6.91943e-02
      4030       4034      1   0.010172   0.009367     2.60142e-01     2.09200e-02
      4030       4033      1   0.010172   0.009367     2.60142e-01     2.09200e-02
      4029       4036      1  -0.014653   0.005694     3.00055e-01     6.91943e-02
      4029       4037      1  -0.014653   0.005694     3.00055e-01     6.91943e-02
      4028       4032      1   0.010037  -0.022042     3.00055e-01     6.91943e-02
      4028       4030      1   0.010037   0.008477     2.60142e-01     2.09200e-02
      4028       4031      1   0.010037   0.008477     2.60142e-01     2.09200e-02
      4027       4032      1   0.010037  -0.022042     3.00055e-01     6.91943e-02
      4027       4030      1   0.010037   0.008477     2.60142e-01     2.09200e-02
      4027       4031      1   0.010037   0.008477     2.60142e-01     2.09200e-02
      4026       4034      1  -0.021025   0.009367     3.00055e-01     6.91943e-02
      4026       4033      1  -0.021025   0.009367     3.00055e-01     6.91943e-02
      4025       4029      1   0.012677  -0.012211     3.00055e-01     6.91943e-02
      4025       4028      1   0.012677   0.008364     2.60142e-01     2.09200e-02
      4025       4027      1   0.012677   0.008364     2.60142e-01     2.09200e-02
      4024       4029      1   0.012677  -0.012211     3.00055e-01     6.91943e-02
      4024       4028      1   0.012677   0.008364     2.60142e-01     2.09200e-02
      4024       4027      1   0.012677   0.008364     2.60142e-01     2.09200e-02
      4023       4030      1  -0.031787   0.008477     3.00055e-01     6.91943e-02
      4023       4031      1  -0.031787   0.008477     3.00055e-01     6.91943e-02
      4022       4026      1   0.017208  -0.017521     3.00055e-01     6.91943e-02
      4022       4024      1   0.017208   0.010564     2.60142e-01     2.09200e-02
      4022       4025      1   0.017208   0.010564     2.60142e-01     2.09200e-02
      4021       4026      1   0.017208  -0.017521     3.00055e-01     6.91943e-02
      4021       4024      1   0.017208   0.010564     2.60142e-01     2.09200e-02
      4021       4025      1   0.017208   0.010564     2.60142e-01     2.09200e-02
      4020       4028      1  -0.028094   0.008364     3.00055e-01     6.91943e-02
      4020       4027      1  -0.028094   0.008364     3.00055e-01     6.91943e-02
      4019       4023      1   0.007531  -0.026489     3.00055e-01     6.91943e-02
      4019       4022      1   0.007531   0.014340     2.60142e-01     2.09200e-02
      4019       4021      1   0.007531   0.014340     2.60142e-01     2.09200e-02
      4018       4023      1   0.007531  -0.026489     3.00055e-01     6.91943e-02
      4018       4022      1   0.007531   0.014340     2.60142e-01     2.09200e-02
      4018       4021      1   0.007531   0.014340     2.60142e-01     2.09200e-02
      4017       4024      1   0.017463   0.010564     3.00055e-01     6.91943e-02
      4017       4025      1   0.017463   0.010564     3.00055e-01     6.91943e-02
      4016       4020      1   0.025511  -0.023412     3.00055e-01     6.91943e-02
      4016       4018      1   0.025511   0.006276     2.60142e-01     2.09200e-02
      4016       4019      1   0.025511   0.006276     2.60142e-01     2.09200e-02
      4015       4020      1   0.025511  -0.023412     3.00055e-01     6.91943e-02
      4015       4018      1   0.025511   0.006276     2.60142e-01     2.09200e-02
      4015       4019      1   0.025511   0.006276     2.60142e-01     2.09200e-02
      4014       4022      1  -0.111712   0.014340     3.00055e-01     6.91943e-02
      4014       4021      1  -0.111712   0.014340     3.00055e-01     6.91943e-02
      4013       4020      1   0.025511  -0.023412     3.00055e-01     6.91943e-02
      4013       4018      1   0.025511   0.006276     2.60142e-01     2.09200e-02
      4013       4019      1   0.025511   0.006276     2.60142e-01     2.09200e-02
      4090       4130      1  -0.673755   0.044953     2.78067e-01     9.58675e-02
      4090       4129      1  -0.673755   0.044953     2.78067e-01     9.58675e-02
      4089       4127      1   0.897613   0.015716     3.00055e-01     6.13495e-02
      4089       4126      1   0.897613   0.015716     3.00055e-01     6.13495e-02
      4088       4130      1  -0.552948   0.044953     2.80072e-01     8.62554e-02
      4088       4129      1  -0.552948   0.044953     2.80072e-01     8.62554e-02
      4081       4082      1   0.172230  -0.282478     2.67982e-01     8.67002e-02
      4080       4082      1   0.172230  -0.282478     2.67982e-01     8.67002e-02
      4079       4082      1   0.172230  -0.282478     2.67982e-01     8.67002e-02
      4078       4083      1  -0.338973   0.143525     2.67982e-01     8.67002e-02
      4078       4084      1  -0.338973   0.143525     2.67982e-01     8.67002e-02
      4078       4085      1  -0.338973   0.143525     2.67982e-01     8.67002e-02
      4077       4078      1   0.172230  -0.282478     2.67982e-01     8.67002e-02
      4077       4082      1   0.172230  -0.282478     2.67982e-01     8.67002e-02
      4076       4078      1   0.172230  -0.282478     2.67982e-01     8.67002e-02
      4076       4082      1   0.172230  -0.282478     2.67982e-01     8.67002e-02
      4075       4078      1   0.172230  -0.282478     2.67982e-01     8.67002e-02
      4075       4082      1   0.172230  -0.282478     2.67982e-01     8.67002e-02
      4074       4079      1  -0.338973   0.143525     2.67982e-01     8.67002e-02
      4074       4080      1  -0.338973   0.143525     2.67982e-01     8.67002e-02
      4074       4081      1  -0.338973   0.143525     2.67982e-01     8.67002e-02
      4074       4083      1  -0.338973   0.143525     2.67982e-01     8.67002e-02
      4074       4084      1  -0.338973   0.143525     2.67982e-01     8.67002e-02
      4074       4085      1  -0.338973   0.143525     2.67982e-01     8.67002e-02
      4072       4074      1   0.136415  -0.282478     2.67982e-01     8.67002e-02
      4072       4078      1   0.136415  -0.282478     2.67982e-01     8.67002e-02
      4072       4082      1   0.136415  -0.282478     2.67982e-01     8.67002e-02
      4071       4074      1   0.136415  -0.282478     2.67982e-01     8.67002e-02
      4071       4078      1   0.136415  -0.282478     2.67982e-01     8.67002e-02
      4071       4082      1   0.136415  -0.282478     2.67982e-01     8.67002e-02
      4070       4075      1  -0.170824   0.143525     2.67982e-01     8.67002e-02
      4070       4076      1  -0.170824   0.143525     2.67982e-01     8.67002e-02
      4070       4077      1  -0.170824   0.143525     2.67982e-01     8.67002e-02
      4070       4079      1  -0.170824   0.143525     2.67982e-01     8.67002e-02
      4070       4080      1  -0.170824   0.143525     2.67982e-01     8.67002e-02
      4070       4081      1  -0.170824   0.143525     2.67982e-01     8.67002e-02
      4070       4083      1  -0.170824   0.143525     2.67982e-01     8.67002e-02
      4070       4084      1  -0.170824   0.143525     2.67982e-01     8.67002e-02
      4070       4085      1  -0.170824   0.143525     2.67982e-01     8.67002e-02
      4069       4071      1   0.078534   0.113679     2.21567e-01     3.28444e-02
      4069       4072      1   0.078534   0.113679     2.21567e-01     3.28444e-02
      4069       4073      1   0.078534   0.204385     2.86068e-01     1.08078e-01
      4068       4071      1   0.078534   0.113679     2.21567e-01     3.28444e-02
      4068       4072      1   0.078534   0.113679     2.21567e-01     3.28444e-02
      4068       4073      1   0.078534   0.204385     2.86068e-01     1.08078e-01
      4066       4071      1  -0.508176   0.113679     2.47999e-01     1.08078e-01
      4066       4072      1  -0.508176   0.113679     2.47999e-01     1.08078e-01
      4065       4068      1   1.339721   0.065445     3.10656e-01     1.17227e-01
      4065       4069      1   1.339721   0.065445     3.10656e-01     1.17227e-01
      4063       4088      1   0.095591  -0.460790     2.73568e-01     1.08078e-01
      4063       4065      1   0.095591   1.116434     3.10656e-01     1.17227e-01
      4062       4088      1   0.095591  -0.460790     2.73568e-01     1.08078e-01
      4062       4065      1   0.095591   1.116434     3.10656e-01     1.17227e-01
      4060       4062      1   0.063253   0.079659     2.47135e-01     3.28444e-02
      4060       4063      1   0.063253   0.079659     2.47135e-01     3.28444e-02
      4060       4064      1   0.063253  -0.424567     2.73568e-01     1.08078e-01
      4060       4089      1   0.063253   0.748011     2.93551e-01     7.68707e-02
      4058       4060      1   0.070469   0.052711     2.47135e-01     3.28444e-02
      4058       4061      1   0.070469   0.014549     2.93551e-01     8.67002e-02
      4058       4088      1   0.070469  -0.460790     2.73568e-01     1.08078e-01
      4057       4060      1   0.070469   0.052711     2.47135e-01     3.28444e-02
      4057       4061      1   0.070469   0.014549     2.93551e-01     8.67002e-02
      4057       4088      1   0.070469  -0.460790     2.73568e-01     1.08078e-01
      4056       4062      1   0.196939   0.079659     2.93551e-01     8.67002e-02
      4056       4063      1   0.196939   0.079659     2.93551e-01     8.67002e-02
      4055       4060      1  -0.575489   0.052711     2.73568e-01     1.08078e-01
      4053       4057      1   0.910403   0.058724     2.93551e-01     7.68707e-02
      4053       4058      1   0.910403   0.058724     2.93551e-01     7.68707e-02
      4127       4130      1   0.018859   0.044953     2.60142e-01     2.09200e-02
      4127       4129      1   0.018859   0.044953     2.60142e-01     2.09200e-02
      4126       4130      1   0.018859   0.044953     2.60142e-01     2.09200e-02
      4126       4129      1   0.018859   0.044953     2.60142e-01     2.09200e-02
      4124       4128      1   0.020431  -0.136833     3.00055e-01     6.91943e-02
      4124       4127      1   0.020431   0.015716     2.60142e-01     2.09200e-02
      4124       4126      1   0.020431   0.015716     2.60142e-01     2.09200e-02
      4123       4128      1   0.020431  -0.136833     3.00055e-01     6.91943e-02
      4123       4127      1   0.020431   0.015716     2.60142e-01     2.09200e-02
      4123       4126      1   0.020431   0.015716     2.60142e-01     2.09200e-02
      4122       4130      1  -0.026954   0.044953     3.00055e-01     6.91943e-02
      4122       4129      1  -0.026954   0.044953     3.00055e-01     6.91943e-02
      4121       4125      1   0.010573  -0.002029     3.00055e-01     6.91943e-02
      4121       4124      1   0.010573   0.017026     2.60142e-01     2.09200e-02
      4121       4123      1   0.010573   0.017026     2.60142e-01     2.09200e-02
      4120       4125      1   0.010573  -0.002029     3.00055e-01     6.91943e-02
      4120       4124      1   0.010573   0.017026     2.60142e-01     2.09200e-02
      4120       4123      1   0.010573   0.017026     2.60142e-01     2.09200e-02
      4119       4127      1  -0.016521   0.015716     3.00055e-01     6.91943e-02
      4119       4126      1  -0.016521   0.015716     3.00055e-01     6.91943e-02
      4118       4122      1   0.011511  -0.022462     3.00055e-01     6.91943e-02
      4118       4120      1   0.011511   0.008811     2.60142e-01     2.09200e-02
      4118       4121      1   0.011511   0.008811     2.60142e-01     2.09200e-02
      4117       4122      1   0.011511  -0.022462     3.00055e-01     6.91943e-02
      4117       4120      1   0.011511   0.008811     2.60142e-01     2.09200e-02
      4117       4121      1   0.011511   0.008811     2.60142e-01     2.09200e-02
      4116       4124      1  -0.027812   0.017026     3.00055e-01     6.91943e-02
      4116       4123      1  -0.027812   0.017026     3.00055e-01     6.91943e-02
      4115       4119      1   0.006833  -0.013767     3.00055e-01     6.91943e-02
      4115       4117      1   0.006833   0.009592     2.60142e-01     2.09200e-02
      4115       4118      1   0.006833   0.009592     2.60142e-01     2.09200e-02
      4114       4119      1   0.006833  -0.013767     3.00055e-01     6.91943e-02
      4114       4117      1   0.006833   0.009592     2.60142e-01     2.09200e-02
      4114       4118      1   0.006833   0.009592     2.60142e-01     2.09200e-02
      4113       4120      1  -0.004386   0.008811     3.00055e-01     6.91943e-02
      4113       4121      1  -0.004386   0.008811     3.00055e-01     6.91943e-02
      4112       4116      1   0.011241  -0.023177     3.00055e-01     6.91943e-02
      4112       4114      1   0.011241   0.005694     2.60142e-01     2.09200e-02
      4112       4115      1   0.011241   0.005694     2.60142e-01     2.09200e-02
      4111       4116      1   0.011241  -0.023177     3.00055e-01     6.91943e-02
      4111       4114      1   0.011241   0.005694     2.60142e-01     2.09200e-02
      4111       4115      1   0.011241   0.005694     2.60142e-01     2.09200e-02
      4110       4117      1  -0.026451   0.009592     3.00055e-01     6.91943e-02
      4110       4118      1  -0.026451   0.009592     3.00055e-01     6.91943e-02
      4109       4113      1   0.010172  -0.003655     3.00055e-01     6.91943e-02
      4109       4112      1   0.010172   0.009367     2.60142e-01     2.09200e-02
      4109       4111      1   0.010172   0.009367     2.60142e-01     2.09200e-02
      4108       4113      1   0.010172  -0.003655     3.00055e-01     6.91943e-02
      4108       4112      1   0.010172   0.009367     2.60142e-01     2.09200e-02
      4108       4111      1   0.010172   0.009367     2.60142e-01     2.09200e-02
      4107       4114      1  -0.014653   0.005694     3.00055e-01     6.91943e-02
      4107       4115      1  -0.014653   0.005694     3.00055e-01     6.91943e-02
      4106       4110      1   0.010037  -0.022042     3.00055e-01     6.91943e-02
      4106       4108      1   0.010037   0.008477     2.60142e-01     2.09200e-02
      4106       4109      1   0.010037   0.008477     2.60142e-01     2.09200e-02
      4105       4110      1   0.010037  -0.022042     3.00055e-01     6.91943e-02
      4105       4108      1   0.010037   0.008477     2.60142e-01     2.09200e-02
      4105       4109      1   0.010037   0.008477     2.60142e-01     2.09200e-02
      4104       4112      1  -0.021025   0.009367     3.00055e-01     6.91943e-02
      4104       4111      1  -0.021025   0.009367     3.00055e-01     6.91943e-02
      4103       4107      1   0.012677  -0.012211     3.00055e-01     6.91943e-02
      4103       4106      1   0.012677   0.008364     2.60142e-01     2.09200e-02
      4103       4105      1   0.012677   0.008364     2.60142e-01     2.09200e-02
      4102       4107      1   0.012677  -0.012211     3.00055e-01     6.91943e-02
      4102       4106      1   0.012677   0.008364     2.60142e-01     2.09200e-02
      4102       4105      1   0.012677   0.008364     2.60142e-01     2.09200e-02
      4101       4108      1  -0.031787   0.008477     3.00055e-01     6.91943e-02
      4101       4109      1  -0.031787   0.008477     3.00055e-01     6.91943e-02
      4100       4104      1   0.017208  -0.017521     3.00055e-01     6.91943e-02
      4100       4102      1   0.017208   0.010564     2.60142e-01     2.09200e-02
      4100       4103      1   0.017208   0.010564     2.60142e-01     2.09200e-02
      4099       4104      1   0.017208  -0.017521     3.00055e-01     6.91943e-02
      4099       4102      1   0.017208   0.010564     2.60142e-01     2.09200e-02
      4099       4103      1   0.017208   0.010564     2.60142e-01     2.09200e-02
      4098       4106      1  -0.028094   0.008364     3.00055e-01     6.91943e-02
      4098       4105      1  -0.028094   0.008364     3.00055e-01     6.91943e-02
      4097       4101      1   0.007531  -0.026489     3.00055e-01     6.91943e-02
      4097       4100      1   0.007531   0.014340     2.60142e-01     2.09200e-02
      4097       4099      1   0.007531   0.014340     2.60142e-01     2.09200e-02
      4096       4101      1   0.007531  -0.026489     3.00055e-01     6.91943e-02
      4096       4100      1   0.007531   0.014340     2.60142e-01     2.09200e-02
      4096       4099      1   0.007531   0.014340     2.60142e-01     2.09200e-02
      4095       4102      1   0.017463   0.010564     3.00055e-01     6.91943e-02
      4095       4103      1   0.017463   0.010564     3.00055e-01     6.91943e-02
      4094       4098      1   0.025511  -0.023412     3.00055e-01     6.91943e-02
      4094       4096      1   0.025511   0.006276     2.60142e-01     2.09200e-02
      4094       4097      1   0.025511   0.006276     2.60142e-01     2.09200e-02
      4093       4098      1   0.025511  -0.023412     3.00055e-01     6.91943e-02
      4093       4096      1   0.025511   0.006276     2.60142e-01     2.09200e-02
      4093       4097      1   0.025511   0.006276     2.60142e-01     2.09200e-02
      4092       4100      1  -0.111712   0.014340     3.00055e-01     6.91943e-02
      4092       4099      1  -0.111712   0.014340     3.00055e-01     6.91943e-02
      4091       4098      1   0.025511  -0.023412     3.00055e-01     6.91943e-02
      4091       4096      1   0.025511   0.006276     2.60142e-01     2.09200e-02
      4091       4097      1   0.025511   0.006276     2.60142e-01     2.09200e-02
      4170       4172      1   0.053944  -0.559638     2.78067e-01     9.58675e-02
      4170       4173      1   0.053944  -0.479574     2.80072e-01     8.62554e-02
      4169       4172      1   0.053944  -0.559638     2.78067e-01     9.58675e-02
      4169       4173      1   0.053944  -0.479574     2.80072e-01     8.62554e-02
      4167       4170      1   0.018859   0.044953     2.60142e-01     2.09200e-02
      4167       4169      1   0.018859   0.044953     2.60142e-01     2.09200e-02
      4167       4171      1   0.018859   0.758669     3.00055e-01     6.13495e-02
      4166       4170      1   0.018859   0.044953     2.60142e-01     2.09200e-02
      4166       4169      1   0.018859   0.044953     2.60142e-01     2.09200e-02
      4166       4171      1   0.018859   0.758669     3.00055e-01     6.13495e-02
      4164       4168      1   0.020431  -0.136833     3.00055e-01     6.91943e-02
      4164       4167      1   0.020431   0.015716     2.60142e-01     2.09200e-02
      4164       4166      1   0.020431   0.015716     2.60142e-01     2.09200e-02
      4163       4168      1   0.020431  -0.136833     3.00055e-01     6.91943e-02
      4163       4167      1   0.020431   0.015716     2.60142e-01     2.09200e-02
      4163       4166      1   0.020431   0.015716     2.60142e-01     2.09200e-02
      4162       4170      1  -0.026954   0.044953     3.00055e-01     6.91943e-02
      4162       4169      1  -0.026954   0.044953     3.00055e-01     6.91943e-02
      4161       4165      1   0.010573  -0.002029     3.00055e-01     6.91943e-02
      4161       4164      1   0.010573   0.017026     2.60142e-01     2.09200e-02
      4161       4163      1   0.010573   0.017026     2.60142e-01     2.09200e-02
      4160       4165      1   0.010573  -0.002029     3.00055e-01     6.91943e-02
      4160       4164      1   0.010573   0.017026     2.60142e-01     2.09200e-02
      4160       4163      1   0.010573   0.017026     2.60142e-01     2.09200e-02
      4159       4167      1  -0.016521   0.015716     3.00055e-01     6.91943e-02
      4159       4166      1  -0.016521   0.015716     3.00055e-01     6.91943e-02
      4158       4162      1   0.011511  -0.022462     3.00055e-01     6.91943e-02
      4158       4160      1   0.011511   0.008811     2.60142e-01     2.09200e-02
      4158       4161      1   0.011511   0.008811     2.60142e-01     2.09200e-02
      4157       4162      1   0.011511  -0.022462     3.00055e-01     6.91943e-02
      4157       4160      1   0.011511   0.008811     2.60142e-01     2.09200e-02
      4157       4161      1   0.011511   0.008811     2.60142e-01     2.09200e-02
      4156       4164      1  -0.027812   0.017026     3.00055e-01     6.91943e-02
      4156       4163      1  -0.027812   0.017026     3.00055e-01     6.91943e-02
      4155       4159      1   0.006833  -0.013767     3.00055e-01     6.91943e-02
      4155       4157      1   0.006833   0.009592     2.60142e-01     2.09200e-02
      4155       4158      1   0.006833   0.009592     2.60142e-01     2.09200e-02
      4154       4159      1   0.006833  -0.013767     3.00055e-01     6.91943e-02
      4154       4157      1   0.006833   0.009592     2.60142e-01     2.09200e-02
      4154       4158      1   0.006833   0.009592     2.60142e-01     2.09200e-02
      4153       4160      1  -0.004386   0.008811     3.00055e-01     6.91943e-02
      4153       4161      1  -0.004386   0.008811     3.00055e-01     6.91943e-02
      4152       4156      1   0.011241  -0.023177     3.00055e-01     6.91943e-02
      4152       4154      1   0.011241   0.005694     2.60142e-01     2.09200e-02
      4152       4155      1   0.011241   0.005694     2.60142e-01     2.09200e-02
      4151       4156      1   0.011241  -0.023177     3.00055e-01     6.91943e-02
      4151       4154      1   0.011241   0.005694     2.60142e-01     2.09200e-02
      4151       4155      1   0.011241   0.005694     2.60142e-01     2.09200e-02
      4150       4157      1  -0.026451   0.009592     3.00055e-01     6.91943e-02
      4150       4158      1  -0.026451   0.009592     3.00055e-01     6.91943e-02
      4149       4153      1   0.010172  -0.003655     3.00055e-01     6.91943e-02
      4149       4152      1   0.010172   0.009367     2.60142e-01     2.09200e-02
      4149       4151      1   0.010172   0.009367     2.60142e-01     2.09200e-02
      4148       4153      1   0.010172  -0.003655     3.00055e-01     6.91943e-02
      4148       4152      1   0.010172   0.009367     2.60142e-01     2.09200e-02
      4148       4151      1   0.010172   0.009367     2.60142e-01     2.09200e-02
      4147       4154      1  -0.014653   0.005694     3.00055e-01     6.91943e-02
      4147       4155      1  -0.014653   0.005694     3.00055e-01     6.91943e-02
      4146       4150      1   0.010037  -0.022042     3.00055e-01     6.91943e-02
      4146       4148      1   0.010037   0.008477     2.60142e-01     2.09200e-02
      4146       4149      1   0.010037   0.008477     2.60142e-01     2.09200e-02
      4145       4150      1   0.010037  -0.022042     3.00055e-01     6.91943e-02
      4145       4148      1   0.010037   0.008477     2.60142e-01     2.09200e-02
      4145       4149      1   0.010037   0.008477     2.60142e-01     2.09200e-02
      4144       4152      1  -0.021025   0.009367     3.00055e-01     6.91943e-02
      4144       4151      1  -0.021025   0.009367     3.00055e-01     6.91943e-02
      4143       4147      1   0.012677  -0.012211     3.00055e-01     6.91943e-02
      4143       4146      1   0.012677   0.008364     2.60142e-01     2.09200e-02
      4143       4145      1   0.012677   0.008364     2.60142e-01     2.09200e-02
      4142       4147      1   0.012677  -0.012211     3.00055e-01     6.91943e-02
      4142       4146      1   0.012677   0.008364     2.60142e-01     2.09200e-02
      4142       4145      1   0.012677   0.008364     2.60142e-01     2.09200e-02
      4141       4148      1  -0.031787   0.008477     3.00055e-01     6.91943e-02
      4141       4149      1  -0.031787   0.008477     3.00055e-01     6.91943e-02
      4140       4144      1   0.017208  -0.017521     3.00055e-01     6.91943e-02
      4140       4142      1   0.017208   0.010564     2.60142e-01     2.09200e-02
      4140       4143      1   0.017208   0.010564     2.60142e-01     2.09200e-02
      4139       4144      1   0.017208  -0.017521     3.00055e-01     6.91943e-02
      4139       4142      1   0.017208   0.010564     2.60142e-01     2.09200e-02
      4139       4143      1   0.017208   0.010564     2.60142e-01     2.09200e-02
      4138       4146      1  -0.028094   0.008364     3.00055e-01     6.91943e-02
      4138       4145      1  -0.028094   0.008364     3.00055e-01     6.91943e-02
      4137       4141      1   0.007531  -0.026489     3.00055e-01     6.91943e-02
      4137       4140      1   0.007531   0.014340     2.60142e-01     2.09200e-02
      4137       4139      1   0.007531   0.014340     2.60142e-01     2.09200e-02
      4136       4141      1   0.007531  -0.026489     3.00055e-01     6.91943e-02
      4136       4140      1   0.007531   0.014340     2.60142e-01     2.09200e-02
      4136       4139      1   0.007531   0.014340     2.60142e-01     2.09200e-02
      4135       4142      1   0.017463   0.010564     3.00055e-01     6.91943e-02
      4135       4143      1   0.017463   0.010564     3.00055e-01     6.91943e-02
      4134       4138      1   0.025511  -0.023412     3.00055e-01     6.91943e-02
      4134       4136      1   0.025511   0.006276     2.60142e-01     2.09200e-02
      4134       4137      1   0.025511   0.006276     2.60142e-01     2.09200e-02
      4133       4138      1   0.025511  -0.023412     3.00055e-01     6.91943e-02
      4133       4136      1   0.025511   0.006276     2.60142e-01     2.09200e-02
      4133       4137      1   0.025511   0.006276     2.60142e-01     2.09200e-02
      4132       4140      1  -0.111712   0.014340     3.00055e-01     6.91943e-02
      4132       4139      1  -0.111712   0.014340     3.00055e-01     6.91943e-02
      4131       4138      1   0.025511  -0.023412     3.00055e-01     6.91943e-02
      4131       4136      1   0.025511   0.006276     2.60142e-01     2.09200e-02
      4131       4137      1   0.025511   0.006276     2.60142e-01     2.09200e-02
      4208       4248      1  -0.673755   0.044953     2.78067e-01     9.58675e-02
      4208       4247      1  -0.673755   0.044953     2.78067e-01     9.58675e-02
      4207       4245      1   0.897613   0.015716     3.00055e-01     6.13495e-02
      4207       4244      1   0.897613   0.015716     3.00055e-01     6.13495e-02
      4206       4248      1  -0.552948   0.044953     2.80072e-01     8.62554e-02
      4206       4247      1  -0.552948   0.044953     2.80072e-01     8.62554e-02
      4199       4200      1   0.172230  -0.282478     2.67982e-01     8.67002e-02
      4198       4200      1   0.172230  -0.282478     2.67982e-01     8.67002e-02
      4197       4200      1   0.172230  -0.282478     2.67982e-01     8.67002e-02
      4196       4201      1  -0.338973   0.143525     2.67982e-01     8.67002e-02
      4196       4202      1  -0.338973   0.143525     2.67982e-01     8.67002e-02
      4196       4203      1  -0.338973   0.143525     2.67982e-01     8.67002e-02
      4195       4196      1   0.172230  -0.282478     2.67982e-01     8.67002e-02
      4195       4200      1   0.172230  -0.282478     2.67982e-01     8.67002e-02
      4194       4196      1   0.172230  -0.282478     2.67982e-01     8.67002e-02
      4194       4200      1   0.172230  -0.282478     2.67982e-01     8.67002e-02
      4193       4196      1   0.172230  -0.282478     2.67982e-01     8.67002e-02
      4193       4200      1   0.172230  -0.282478     2.67982e-01     8.67002e-02
      4192       4197      1  -0.338973   0.143525     2.67982e-01     8.67002e-02
      4192       4198      1  -0.338973   0.143525     2.67982e-01     8.67002e-02
      4192       4199      1  -0.338973   0.143525     2.67982e-01     8.67002e-02
      4192       4201      1  -0.338973   0.143525     2.67982e-01     8.67002e-02
      4192       4202      1  -0.338973   0.143525     2.67982e-01     8.67002e-02
      4192       4203      1  -0.338973   0.143525     2.67982e-01     8.67002e-02
      4190       4192      1   0.136415  -0.282478     2.67982e-01     8.67002e-02
      4190       4196      1   0.136415  -0.282478     2.67982e-01     8.67002e-02
      4190       4200      1   0.136415  -0.282478     2.67982e-01     8.67002e-02
      4189       4192      1   0.136415  -0.282478     2.67982e-01     8.67002e-02
      4189       4196      1   0.136415  -0.282478     2.67982e-01     8.67002e-02
      4189       4200      1   0.136415  -0.282478     2.67982e-01     8.67002e-02
      4188       4193      1  -0.170824   0.143525     2.67982e-01     8.67002e-02
      4188       4194      1  -0.170824   0.143525     2.67982e-01     8.67002e-02
      4188       4195      1  -0.170824   0.143525     2.67982e-01     8.67002e-02
      4188       4197      1  -0.170824   0.143525     2.67982e-01     8.67002e-02
      4188       4198      1  -0.170824   0.143525     2.67982e-01     8.67002e-02
      4188       4199      1  -0.170824   0.143525     2.67982e-01     8.67002e-02
      4188       4201      1  -0.170824   0.143525     2.67982e-01     8.67002e-02
      4188       4202      1  -0.170824   0.143525     2.67982e-01     8.67002e-02
      4188       4203      1  -0.170824   0.143525     2.67982e-01     8.67002e-02
      4187       4189      1   0.078534   0.113679     2.21567e-01     3.28444e-02
      4187       4190      1   0.078534   0.113679     2.21567e-01     3.28444e-02
      4187       4191      1   0.078534   0.204385     2.86068e-01     1.08078e-01
      4186       4189      1   0.078534   0.113679     2.21567e-01     3.28444e-02
      4186       4190      1   0.078534   0.113679     2.21567e-01     3.28444e-02
      4186       4191      1   0.078534   0.204385     2.86068e-01     1.08078e-01
      4184       4189      1  -0.508176   0.113679     2.47999e-01     1.08078e-01
      4184       4190      1  -0.508176   0.113679     2.47999e-01     1.08078e-01
      4183       4186      1   1.339721   0.065445     3.10656e-01     1.17227e-01
      4183       4187      1   1.339721   0.065445     3.10656e-01     1.17227e-01
      4181       4206      1   0.095591  -0.460790     2.73568e-01     1.08078e-01
      4181       4183      1   0.095591   1.116434     3.10656e-01     1.17227e-01
      4180       4206      1   0.095591  -0.460790     2.73568e-01     1.08078e-01
      4180       4183      1   0.095591   1.116434     3.10656e-01     1.17227e-01
      4178       4180      1   0.063253   0.079659     2.47135e-01     3.28444e-02
      4178       4181      1   0.063253   0.079659     2.47135e-01     3.28444e-02
      4178       4182      1   0.063253  -0.424567     2.73568e-01     1.08078e-01
      4178       4207      1   0.063253   0.748011     2.93551e-01     7.68707e-02
      4176       4178      1   0.070469   0.052711     2.47135e-01     3.28444e-02
      4176       4179      1   0.070469   0.014549     2.93551e-01     8.67002e-02
      4176       4206      1   0.070469  -0.460790     2.73568e-01     1.08078e-01
      4175       4178      1   0.070469   0.052711     2.47135e-01     3.28444e-02
      4175       4179      1   0.070469   0.014549     2.93551e-01     8.67002e-02
      4175       4206      1   0.070469  -0.460790     2.73568e-01     1.08078e-01
      4174       4180      1   0.196939   0.079659     2.93551e-01     8.67002e-02
      4174       4181      1   0.196939   0.079659     2.93551e-01     8.67002e-02
      4173       4178      1  -0.575489   0.052711     2.73568e-01     1.08078e-01
      4171       4175      1   0.910403   0.058724     2.93551e-01     7.68707e-02
      4171       4176      1   0.910403   0.058724     2.93551e-01     7.68707e-02
      4245       4248      1   0.018859   0.044953     2.60142e-01     2.09200e-02
      4245       4247      1   0.018859   0.044953     2.60142e-01     2.09200e-02
      4244       4248      1   0.018859   0.044953     2.60142e-01     2.09200e-02
      4244       4247      1   0.018859   0.044953     2.60142e-01     2.09200e-02
      4242       4246      1   0.020431  -0.136833     3.00055e-01     6.91943e-02
      4242       4245      1   0.020431   0.015716     2.60142e-01     2.09200e-02
      4242       4244      1   0.020431   0.015716     2.60142e-01     2.09200e-02
      4241       4246      1   0.020431  -0.136833     3.00055e-01     6.91943e-02
      4241       4245      1   0.020431   0.015716     2.60142e-01     2.09200e-02
      4241       4244      1   0.020431   0.015716     2.60142e-01     2.09200e-02
      4240       4248      1  -0.026954   0.044953     3.00055e-01     6.91943e-02
      4240       4247      1  -0.026954   0.044953     3.00055e-01     6.91943e-02
      4239       4243      1   0.010573  -0.002029     3.00055e-01     6.91943e-02
      4239       4242      1   0.010573   0.017026     2.60142e-01     2.09200e-02
      4239       4241      1   0.010573   0.017026     2.60142e-01     2.09200e-02
      4238       4243      1   0.010573  -0.002029     3.00055e-01     6.91943e-02
      4238       4242      1   0.010573   0.017026     2.60142e-01     2.09200e-02
      4238       4241      1   0.010573   0.017026     2.60142e-01     2.09200e-02
      4237       4245      1  -0.016521   0.015716     3.00055e-01     6.91943e-02
      4237       4244      1  -0.016521   0.015716     3.00055e-01     6.91943e-02
      4236       4240      1   0.011511  -0.022462     3.00055e-01     6.91943e-02
      4236       4238      1   0.011511   0.008811     2.60142e-01     2.09200e-02
      4236       4239      1   0.011511   0.008811     2.60142e-01     2.09200e-02
      4235       4240      1   0.011511  -0.022462     3.00055e-01     6.91943e-02
      4235       4238      1   0.011511   0.008811     2.60142e-01     2.09200e-02
      4235       4239      1   0.011511   0.008811     2.60142e-01     2.09200e-02
      4234       4242      1  -0.027812   0.017026     3.00055e-01     6.91943e-02
      4234       4241      1  -0.027812   0.017026     3.00055e-01     6.91943e-02
      4233       4237      1   0.006833  -0.013767     3.00055e-01     6.91943e-02
      4233       4235      1   0.006833   0.009592     2.60142e-01     2.09200e-02
      4233       4236      1   0.006833   0.009592     2.60142e-01     2.09200e-02
      4232       4237      1   0.006833  -0.013767     3.00055e-01     6.91943e-02
      4232       4235      1   0.006833   0.009592     2.60142e-01     2.09200e-02
      4232       4236      1   0.006833   0.009592     2.60142e-01     2.09200e-02
      4231       4238      1  -0.004386   0.008811     3.00055e-01     6.91943e-02
      4231       4239      1  -0.004386   0.008811     3.00055e-01     6.91943e-02
      4230       4234      1   0.011241  -0.023177     3.00055e-01     6.91943e-02
      4230       4232      1   0.011241   0.005694     2.60142e-01     2.09200e-02
      4230       4233      1   0.011241   0.005694     2.60142e-01     2.09200e-02
      4229       4234      1   0.011241  -0.023177     3.00055e-01     6.91943e-02
      4229       4232      1   0.011241   0.005694     2.60142e-01     2.09200e-02
      4229       4233      1   0.011241   0.005694     2.60142e-01     2.09200e-02
      4228       4235      1  -0.026451   0.009592     3.00055e-01     6.91943e-02
      4228       4236      1  -0.026451   0.009592     3.00055e-01     6.91943e-02
      4227       4231      1   0.010172  -0.003655     3.00055e-01     6.91943e-02
      4227       4230      1   0.010172   0.009367     2.60142e-01     2.09200e-02
      4227       4229      1   0.010172   0.009367     2.60142e-01     2.09200e-02
      4226       4231      1   0.010172  -0.003655     3.00055e-01     6.91943e-02
      4226       4230      1   0.010172   0.009367     2.60142e-01     2.09200e-02
      4226       4229      1   0.010172   0.009367     2.60142e-01     2.09200e-02
      4225       4232      1  -0.014653   0.005694     3.00055e-01     6.91943e-02
      4225       4233      1  -0.014653   0.005694     3.00055e-01     6.91943e-02
      4224       4228      1   0.010037  -0.022042     3.00055e-01     6.91943e-02
      4224       4226      1   0.010037   0.008477     2.60142e-01     2.09200e-02
      4224       4227      1   0.010037   0.008477     2.60142e-01     2.09200e-02
      4223       4228      1   0.010037  -0.022042     3.00055e-01     6.91943e-02
      4223       4226      1   0.010037   0.008477     2.60142e-01     2.09200e-02
      4223       4227      1   0.010037   0.008477     2.60142e-01     2.09200e-02
      4222       4230      1  -0.021025   0.009367     3.00055e-01     6.91943e-02
      4222       4229      1  -0.021025   0.009367     3.00055e-01     6.91943e-02
      4221       4225      1   0.012677  -0.012211     3.00055e-01     6.91943e-02
      4221       4224      1   0.012677   0.008364     2.60142e-01     2.09200e-02
      4221       4223      1   0.012677   0.008364     2.60142e-01     2.09200e-02
      4220       4225      1   0.012677  -0.012211     3.00055e-01     6.91943e-02
      4220       4224      1   0.012677   0.008364     2.60142e-01     2.09200e-02
      4220       4223      1   0.012677   0.008364     2.60142e-01     2.09200e-02
      4219       4226      1  -0.031787   0.008477     3.00055e-01     6.91943e-02
      4219       4227      1  -0.031787   0.008477     3.00055e-01     6.91943e-02
      4218       4222      1   0.017208  -0.017521     3.00055e-01     6.91943e-02
      4218       4220      1   0.017208   0.010564     2.60142e-01     2.09200e-02
      4218       4221      1   0.017208   0.010564     2.60142e-01     2.09200e-02
      4217       4222      1   0.017208  -0.017521     3.00055e-01     6.91943e-02
      4217       4220      1   0.017208   0.010564     2.60142e-01     2.09200e-02
      4217       4221      1   0.017208   0.010564     2.60142e-01     2.09200e-02
      4216       4224      1  -0.028094   0.008364     3.00055e-01     6.91943e-02
      4216       4223      1  -0.028094   0.008364     3.00055e-01     6.91943e-02
      4215       4219      1   0.007531  -0.026489     3.00055e-01     6.91943e-02
      4215       4218      1   0.007531   0.014340     2.60142e-01     2.09200e-02
      4215       4217      1   0.007531   0.014340     2.60142e-01     2.09200e-02
      4214       4219      1   0.007531  -0.026489     3.00055e-01     6.91943e-02
      4214       4218      1   0.007531   0.014340     2.60142e-01     2.09200e-02
      4214       4217      1   0.007531   0.014340     2.60142e-01     2.09200e-02
      4213       4220      1   0.017463   0.010564     3.00055e-01     6.91943e-02
      4213       4221      1   0.017463   0.010564     3.00055e-01     6.91943e-02
      4212       4216      1   0.025511  -0.023412     3.00055e-01     6.91943e-02
      4212       4214      1   0.025511   0.006276     2.60142e-01     2.09200e-02
      4212       4215      1   0.025511   0.006276     2.60142e-01     2.09200e-02
      4211       4216      1   0.025511  -0.023412     3.00055e-01     6.91943e-02
      4211       4214      1   0.025511   0.006276     2.60142e-01     2.09200e-02
      4211       4215      1   0.025511   0.006276     2.60142e-01     2.09200e-02
      4210       4218      1  -0.111712   0.014340     3.00055e-01     6.91943e-02
      4210       4217      1  -0.111712   0.014340     3.00055e-01     6.91943e-02
      4209       4216      1   0.025511  -0.023412     3.00055e-01     6.91943e-02
      4209       4214      1   0.025511   0.006276     2.60142e-01     2.09200e-02
      4209       4215      1   0.025511   0.006276     2.60142e-01     2.09200e-02
      4288       4290      1   0.053944  -0.559638     2.78067e-01     9.58675e-02
      4288       4291      1   0.053944  -0.479574     2.80072e-01     8.62554e-02
      4287       4290      1   0.053944  -0.559638     2.78067e-01     9.58675e-02
      4287       4291      1   0.053944  -0.479574     2.80072e-01     8.62554e-02
      4285       4288      1   0.018859   0.044953     2.60142e-01     2.09200e-02
      4285       4287      1   0.018859   0.044953     2.60142e-01     2.09200e-02
      4285       4289      1   0.018859   0.758669     3.00055e-01     6.13495e-02
      4284       4288      1   0.018859   0.044953     2.60142e-01     2.09200e-02
      4284       4287      1   0.018859   0.044953     2.60142e-01     2.09200e-02
      4284       4289      1   0.018859   0.758669     3.00055e-01     6.13495e-02
      4282       4286      1   0.020431  -0.136833     3.00055e-01     6.91943e-02
      4282       4285      1   0.020431   0.015716     2.60142e-01     2.09200e-02
      4282       4284      1   0.020431   0.015716     2.60142e-01     2.09200e-02
      4281       4286      1   0.020431  -0.136833     3.00055e-01     6.91943e-02
      4281       4285      1   0.020431   0.015716     2.60142e-01     2.09200e-02
      4281       4284      1   0.020431   0.015716     2.60142e-01     2.09200e-02
      4280       4288      1  -0.026954   0.044953     3.00055e-01     6.91943e-02
      4280       4287      1  -0.026954   0.044953     3.00055e-01     6.91943e-02
      4279       4283      1   0.010573  -0.002029     3.00055e-01     6.91943e-02
      4279       4282      1   0.010573   0.017026     2.60142e-01     2.09200e-02
      4279       4281      1   0.010573   0.017026     2.60142e-01     2.09200e-02
      4278       4283      1   0.010573  -0.002029     3.00055e-01     6.91943e-02
      4278       4282      1   0.010573   0.017026     2.60142e-01     2.09200e-02
      4278       4281      1   0.010573   0.017026     2.60142e-01     2.09200e-02
      4277       4285      1  -0.016521   0.015716     3.00055e-01     6.91943e-02
      4277       4284      1  -0.016521   0.015716     3.00055e-01     6.91943e-02
      4276       4280      1   0.011511  -0.022462     3.00055e-01     6.91943e-02
      4276       4278      1   0.011511   0.008811     2.60142e-01     2.09200e-02
      4276       4279      1   0.011511   0.008811     2.60142e-01     2.09200e-02
      4275       4280      1   0.011511  -0.022462     3.00055e-01     6.91943e-02
      4275       4278      1   0.011511   0.008811     2.60142e-01     2.09200e-02
      4275       4279      1   0.011511   0.008811     2.60142e-01     2.09200e-02
      4274       4282      1  -0.027812   0.017026     3.00055e-01     6.91943e-02
      4274       4281      1  -0.027812   0.017026     3.00055e-01     6.91943e-02
      4273       4277      1   0.006833  -0.013767     3.00055e-01     6.91943e-02
      4273       4275      1   0.006833   0.009592     2.60142e-01     2.09200e-02
      4273       4276      1   0.006833   0.009592     2.60142e-01     2.09200e-02
      4272       4277      1   0.006833  -0.013767     3.00055e-01     6.91943e-02
      4272       4275      1   0.006833   0.009592     2.60142e-01     2.09200e-02
      4272       4276      1   0.006833   0.009592     2.60142e-01     2.09200e-02
      4271       4278      1  -0.004386   0.008811     3.00055e-01     6.91943e-02
      4271       4279      1  -0.004386   0.008811     3.00055e-01     6.91943e-02
      4270       4274      1   0.011241  -0.023177     3.00055e-01     6.91943e-02
      4270       4272      1   0.011241   0.005694     2.60142e-01     2.09200e-02
      4270       4273      1   0.011241   0.005694     2.60142e-01     2.09200e-02
      4269       4274      1   0.011241  -0.023177     3.00055e-01     6.91943e-02
      4269       4272      1   0.011241   0.005694     2.60142e-01     2.09200e-02
      4269       4273      1   0.011241   0.005694     2.60142e-01     2.09200e-02
      4268       4275      1  -0.026451   0.009592     3.00055e-01     6.91943e-02
      4268       4276      1  -0.026451   0.009592     3.00055e-01     6.91943e-02
      4267       4271      1   0.010172  -0.003655     3.00055e-01     6.91943e-02
      4267       4270      1   0.010172   0.009367     2.60142e-01     2.09200e-02
      4267       4269      1   0.010172   0.009367     2.60142e-01     2.09200e-02
      4266       4271      1   0.010172  -0.003655     3.00055e-01     6.91943e-02
      4266       4270      1   0.010172   0.009367     2.60142e-01     2.09200e-02
      4266       4269      1   0.010172   0.009367     2.60142e-01     2.09200e-02
      4265       4272      1  -0.014653   0.005694     3.00055e-01     6.91943e-02
      4265       4273      1  -0.014653   0.005694     3.00055e-01     6.91943e-02
      4264       4268      1   0.010037  -0.022042     3.00055e-01     6.91943e-02
      4264       4266      1   0.010037   0.008477     2.60142e-01     2.09200e-02
      4264       4267      1   0.010037   0.008477     2.60142e-01     2.09200e-02
      4263       4268      1   0.010037  -0.022042     3.00055e-01     6.91943e-02
      4263       4266      1   0.010037   0.008477     2.60142e-01     2.09200e-02
      4263       4267      1   0.010037   0.008477     2.60142e-01     2.09200e-02
      4262       4270      1  -0.021025   0.009367     3.00055e-01     6.91943e-02
      4262       4269      1  -0.021025   0.009367     3.00055e-01     6.91943e-02
      4261       4265      1   0.012677  -0.012211     3.00055e-01     6.91943e-02
      4261       4264      1   0.012677   0.008364     2.60142e-01     2.09200e-02
      4261       4263      1   0.012677   0.008364     2.60142e-01     2.09200e-02
      4260       4265      1   0.012677  -0.012211     3.00055e-01     6.91943e-02
      4260       4264      1   0.012677   0.008364     2.60142e-01     2.09200e-02
      4260       4263      1   0.012677   0.008364     2.60142e-01     2.09200e-02
      4259       4266      1  -0.031787   0.008477     3.00055e-01     6.91943e-02
      4259       4267      1  -0.031787   0.008477     3.00055e-01     6.91943e-02
      4258       4262      1   0.017208  -0.017521     3.00055e-01     6.91943e-02
      4258       4260      1   0.017208   0.010564     2.60142e-01     2.09200e-02
      4258       4261      1   0.017208   0.010564     2.60142e-01     2.09200e-02
      4257       4262      1   0.017208  -0.017521     3.00055e-01     6.91943e-02
      4257       4260      1   0.017208   0.010564     2.60142e-01     2.09200e-02
      4257       4261      1   0.017208   0.010564     2.60142e-01     2.09200e-02
      4256       4264      1  -0.028094   0.008364     3.00055e-01     6.91943e-02
      4256       4263      1  -0.028094   0.008364     3.00055e-01     6.91943e-02
      4255       4259      1   0.007531  -0.026489     3.00055e-01     6.91943e-02
      4255       4258      1   0.007531   0.014340     2.60142e-01     2.09200e-02
      4255       4257      1   0.007531   0.014340     2.60142e-01     2.09200e-02
      4254       4259      1   0.007531  -0.026489     3.00055e-01     6.91943e-02
      4254       4258      1   0.007531   0.014340     2.60142e-01     2.09200e-02
      4254       4257      1   0.007531   0.014340     2.60142e-01     2.09200e-02
      4253       4260      1   0.017463   0.010564     3.00055e-01     6.91943e-02
      4253       4261      1   0.017463   0.010564     3.00055e-01     6.91943e-02
      4252       4256      1   0.025511  -0.023412     3.00055e-01     6.91943e-02
      4252       4254      1   0.025511   0.006276     2.60142e-01     2.09200e-02
      4252       4255      1   0.025511   0.006276     2.60142e-01     2.09200e-02
      4251       4256      1   0.025511  -0.023412     3.00055e-01     6.91943e-02
      4251       4254      1   0.025511   0.006276     2.60142e-01     2.09200e-02
      4251       4255      1   0.025511   0.006276     2.60142e-01     2.09200e-02
      4250       4258      1  -0.111712   0.014340     3.00055e-01     6.91943e-02
      4250       4257      1  -0.111712   0.014340     3.00055e-01     6.91943e-02
      4249       4256      1   0.025511  -0.023412     3.00055e-01     6.91943e-02
      4249       4254      1   0.025511   0.006276     2.60142e-01     2.09200e-02
      4249       4255      1   0.025511   0.006276     2.60142e-01     2.09200e-02
      4326       4366      1  -0.673755   0.044953     2.78067e-01     9.58675e-02
      4326       4365      1  -0.673755   0.044953     2.78067e-01     9.58675e-02
      4325       4363      1   0.897613   0.015716     3.00055e-01     6.13495e-02
      4325       4362      1   0.897613   0.015716     3.00055e-01     6.13495e-02
      4324       4366      1  -0.552948   0.044953     2.80072e-01     8.62554e-02
      4324       4365      1  -0.552948   0.044953     2.80072e-01     8.62554e-02
      4317       4318      1   0.172230  -0.282478     2.67982e-01     8.67002e-02
      4316       4318      1   0.172230  -0.282478     2.67982e-01     8.67002e-02
      4315       4318      1   0.172230  -0.282478     2.67982e-01     8.67002e-02
      4314       4319      1  -0.338973   0.143525     2.67982e-01     8.67002e-02
      4314       4320      1  -0.338973   0.143525     2.67982e-01     8.67002e-02
      4314       4321      1  -0.338973   0.143525     2.67982e-01     8.67002e-02
      4313       4314      1   0.172230  -0.282478     2.67982e-01     8.67002e-02
      4313       4318      1   0.172230  -0.282478     2.67982e-01     8.67002e-02
      4312       4314      1   0.172230  -0.282478     2.67982e-01     8.67002e-02
      4312       4318      1   0.172230  -0.282478     2.67982e-01     8.67002e-02
      4311       4314      1   0.172230  -0.282478     2.67982e-01     8.67002e-02
      4311       4318      1   0.172230  -0.282478     2.67982e-01     8.67002e-02
      4310       4315      1  -0.338973   0.143525     2.67982e-01     8.67002e-02
      4310       4316      1  -0.338973   0.143525     2.67982e-01     8.67002e-02
      4310       4317      1  -0.338973   0.143525     2.67982e-01     8.67002e-02
      4310       4319      1  -0.338973   0.143525     2.67982e-01     8.67002e-02
      4310       4320      1  -0.338973   0.143525     2.67982e-01     8.67002e-02
      4310       4321      1  -0.338973   0.143525     2.67982e-01     8.67002e-02
      4308       4310      1   0.136415  -0.282478     2.67982e-01     8.67002e-02
      4308       4314      1   0.136415  -0.282478     2.67982e-01     8.67002e-02
      4308       4318      1   0.136415  -0.282478     2.67982e-01     8.67002e-02
      4307       4310      1   0.136415  -0.282478     2.67982e-01     8.67002e-02
      4307       4314      1   0.136415  -0.282478     2.67982e-01     8.67002e-02
      4307       4318      1   0.136415  -0.282478     2.67982e-01     8.67002e-02
      4306       4311      1  -0.170824   0.143525     2.67982e-01     8.67002e-02
      4306       4312      1  -0.170824   0.143525     2.67982e-01     8.67002e-02
      4306       4313      1  -0.170824   0.143525     2.67982e-01     8.67002e-02
      4306       4315      1  -0.170824   0.143525     2.67982e-01     8.67002e-02
      4306       4316      1  -0.170824   0.143525     2.67982e-01     8.67002e-02
      4306       4317      1  -0.170824   0.143525     2.67982e-01     8.67002e-02
      4306       4319      1  -0.170824   0.143525     2.67982e-01     8.67002e-02
      4306       4320      1  -0.170824   0.143525     2.67982e-01     8.67002e-02
      4306       4321      1  -0.170824   0.143525     2.67982e-01     8.67002e-02
      4305       4307      1   0.078534   0.113679     2.21567e-01     3.28444e-02
      4305       4308      1   0.078534   0.113679     2.21567e-01     3.28444e-02
      4305       4309      1   0.078534   0.204385     2.86068e-01     1.08078e-01
      4304       4307      1   0.078534   0.113679     2.21567e-01     3.28444e-02
      4304       4308      1   0.078534   0.113679     2.21567e-01     3.28444e-02
      4304       4309      1   0.078534   0.204385     2.86068e-01     1.08078e-01
      4302       4307      1  -0.508176   0.113679     2.47999e-01     1.08078e-01
      4302       4308      1  -0.508176   0.113679     2.47999e-01     1.08078e-01
      4301       4304      1   1.339721   0.065445     3.10656e-01     1.17227e-01
      4301       4305      1   1.339721   0.065445     3.10656e-01     1.17227e-01
      4299       4324      1   0.095591  -0.460790     2.73568e-01     1.08078e-01
      4299       4301      1   0.095591   1.116434     3.10656e-01     1.17227e-01
      4298       4324      1   0.095591  -0.460790     2.73568e-01     1.08078e-01
      4298       4301      1   0.095591   1.116434     3.10656e-01     1.17227e-01
      4296       4298      1   0.063253   0.079659     2.47135e-01     3.28444e-02
      4296       4299      1   0.063253   0.079659     2.47135e-01     3.28444e-02
      4296       4300      1   0.063253  -0.424567     2.73568e-01     1.08078e-01
      4296       4325      1   0.063253   0.748011     2.93551e-01     7.68707e-02
      4294       4296      1   0.070469   0.052711     2.47135e-01     3.28444e-02
      4294       4297      1   0.070469   0.014549     2.93551e-01     8.67002e-02
      4294       4324      1   0.070469  -0.460790     2.73568e-01     1.08078e-01
      4293       4296      1   0.070469   0.052711     2.47135e-01     3.28444e-02
      4293       4297      1   0.070469   0.014549     2.93551e-01     8.67002e-02
      4293       4324      1   0.070469  -0.460790     2.73568e-01     1.08078e-01
      4292       4298      1   0.196939   0.079659     2.93551e-01     8.67002e-02
      4292       4299      1   0.196939   0.079659     2.93551e-01     8.67002e-02
      4291       4296      1  -0.575489   0.052711     2.73568e-01     1.08078e-01
      4289       4293      1   0.910403   0.058724     2.93551e-01     7.68707e-02
      4289       4294      1   0.910403   0.058724     2.93551e-01     7.68707e-02
      4363       4366      1   0.018859   0.044953     2.60142e-01     2.09200e-02
      4363       4365      1   0.018859   0.044953     2.60142e-01     2.09200e-02
      4362       4366      1   0.018859   0.044953     2.60142e-01     2.09200e-02
      4362       4365      1   0.018859   0.044953     2.60142e-01     2.09200e-02
      4360       4364      1   0.020431  -0.136833     3.00055e-01     6.91943e-02
      4360       4363      1   0.020431   0.015716     2.60142e-01     2.09200e-02
      4360       4362      1   0.020431   0.015716     2.60142e-01     2.09200e-02
      4359       4364      1   0.020431  -0.136833     3.00055e-01     6.91943e-02
      4359       4363      1   0.020431   0.015716     2.60142e-01     2.09200e-02
      4359       4362      1   0.020431   0.015716     2.60142e-01     2.09200e-02
      4358       4366      1  -0.026954   0.044953     3.00055e-01     6.91943e-02
      4358       4365      1  -0.026954   0.044953     3.00055e-01     6.91943e-02
      4357       4361      1   0.010573  -0.002029     3.00055e-01     6.91943e-02
      4357       4360      1   0.010573   0.017026     2.60142e-01     2.09200e-02
      4357       4359      1   0.010573   0.017026     2.60142e-01     2.09200e-02
      4356       4361      1   0.010573  -0.002029     3.00055e-01     6.91943e-02
      4356       4360      1   0.010573   0.017026     2.60142e-01     2.09200e-02
      4356       4359      1   0.010573   0.017026     2.60142e-01     2.09200e-02
      4355       4363      1  -0.016521   0.015716     3.00055e-01     6.91943e-02
      4355       4362      1  -0.016521   0.015716     3.00055e-01     6.91943e-02
      4354       4358      1   0.011511  -0.022462     3.00055e-01     6.91943e-02
      4354       4356      1   0.011511   0.008811     2.60142e-01     2.09200e-02
      4354       4357      1   0.011511   0.008811     2.60142e-01     2.09200e-02
      4353       4358      1   0.011511  -0.022462     3.00055e-01     6.91943e-02
      4353       4356      1   0.011511   0.008811     2.60142e-01     2.09200e-02
      4353       4357      1   0.011511   0.008811     2.60142e-01     2.09200e-02
      4352       4360      1  -0.027812   0.017026     3.00055e-01     6.91943e-02
      4352       4359      1  -0.027812   0.017026     3.00055e-01     6.91943e-02
      4351       4355      1   0.006833  -0.013767     3.00055e-01     6.91943e-02
      4351       4353      1   0.006833   0.009592     2.60142e-01     2.09200e-02
      4351       4354      1   0.006833   0.009592     2.60142e-01     2.09200e-02
      4350       4355      1   0.006833  -0.013767     3.00055e-01     6.91943e-02
      4350       4353      1   0.006833   0.009592     2.60142e-01     2.09200e-02
      4350       4354      1   0.006833   0.009592     2.60142e-01     2.09200e-02
      4349       4356      1  -0.004386   0.008811     3.00055e-01     6.91943e-02
      4349       4357      1  -0.004386   0.008811     3.00055e-01     6.91943e-02
      4348       4352      1   0.011241  -0.023177     3.00055e-01     6.91943e-02
      4348       4350      1   0.011241   0.005694     2.60142e-01     2.09200e-02
      4348       4351      1   0.011241   0.005694     2.60142e-01     2.09200e-02
      4347       4352      1   0.011241  -0.023177     3.00055e-01     6.91943e-02
      4347       4350      1   0.011241   0.005694     2.60142e-01     2.09200e-02
      4347       4351      1   0.011241   0.005694     2.60142e-01     2.09200e-02
      4346       4353      1  -0.026451   0.009592     3.00055e-01     6.91943e-02
      4346       4354      1  -0.026451   0.009592     3.00055e-01     6.91943e-02
      4345       4349      1   0.010172  -0.003655     3.00055e-01     6.91943e-02
      4345       4348      1   0.010172   0.009367     2.60142e-01     2.09200e-02
      4345       4347      1   0.010172   0.009367     2.60142e-01     2.09200e-02
      4344       4349      1   0.010172  -0.003655     3.00055e-01     6.91943e-02
      4344       4348      1   0.010172   0.009367     2.60142e-01     2.09200e-02
      4344       4347      1   0.010172   0.009367     2.60142e-01     2.09200e-02
      4343       4350      1  -0.014653   0.005694     3.00055e-01     6.91943e-02
      4343       4351      1  -0.014653   0.005694     3.00055e-01     6.91943e-02
      4342       4346      1   0.010037  -0.022042     3.00055e-01     6.91943e-02
      4342       4344      1   0.010037   0.008477     2.60142e-01     2.09200e-02
      4342       4345      1   0.010037   0.008477     2.60142e-01     2.09200e-02
      4341       4346      1   0.010037  -0.022042     3.00055e-01     6.91943e-02
      4341       4344      1   0.010037   0.008477     2.60142e-01     2.09200e-02
      4341       4345      1   0.010037   0.008477     2.60142e-01     2.09200e-02
      4340       4348      1  -0.021025   0.009367     3.00055e-01     6.91943e-02
      4340       4347      1  -0.021025   0.009367     3.00055e-01     6.91943e-02
      4339       4343      1   0.012677  -0.012211     3.00055e-01     6.91943e-02
      4339       4342      1   0.012677   0.008364     2.60142e-01     2.09200e-02
      4339       4341      1   0.012677   0.008364     2.60142e-01     2.09200e-02
      4338       4343      1   0.012677  -0.012211     3.00055e-01     6.91943e-02
      4338       4342      1   0.012677   0.008364     2.60142e-01     2.09200e-02
      4338       4341      1   0.012677   0.008364     2.60142e-01     2.09200e-02
      4337       4344      1  -0.031787   0.008477     3.00055e-01     6.91943e-02
      4337       4345      1  -0.031787   0.008477     3.00055e-01     6.91943e-02
      4336       4340      1   0.017208  -0.017521     3.00055e-01     6.91943e-02
      4336       4338      1   0.017208   0.010564     2.60142e-01     2.09200e-02
      4336       4339      1   0.017208   0.010564     2.60142e-01     2.09200e-02
      4335       4340      1   0.017208  -0.017521     3.00055e-01     6.91943e-02
      4335       4338      1   0.017208   0.010564     2.60142e-01     2.09200e-02
      4335       4339      1   0.017208   0.010564     2.60142e-01     2.09200e-02
      4334       4342      1  -0.028094   0.008364     3.00055e-01     6.91943e-02
      4334       4341      1  -0.028094   0.008364     3.00055e-01     6.91943e-02
      4333       4337      1   0.007531  -0.026489     3.00055e-01     6.91943e-02
      4333       4336      1   0.007531   0.014340     2.60142e-01     2.09200e-02
      4333       4335      1   0.007531   0.014340     2.60142e-01     2.09200e-02
      4332       4337      1   0.007531  -0.026489     3.00055e-01     6.91943e-02
      4332       4336      1   0.007531   0.014340     2.60142e-01     2.09200e-02
      4332       4335      1   0.007531   0.014340     2.60142e-01     2.09200e-02
      4331       4338      1   0.017463   0.010564     3.00055e-01     6.91943e-02
      4331       4339      1   0.017463   0.010564     3.00055e-01     6.91943e-02
      4330       4334      1   0.025511  -0.023412     3.00055e-01     6.91943e-02
      4330       4332      1   0.025511   0.006276     2.60142e-01     2.09200e-02
      4330       4333      1   0.025511   0.006276     2.60142e-01     2.09200e-02
      4329       4334      1   0.025511  -0.023412     3.00055e-01     6.91943e-02
      4329       4332      1   0.025511   0.006276     2.60142e-01     2.09200e-02
      4329       4333      1   0.025511   0.006276     2.60142e-01     2.09200e-02
      4328       4336      1  -0.111712   0.014340     3.00055e-01     6.91943e-02
      4328       4335      1  -0.111712   0.014340     3.00055e-01     6.91943e-02
      4327       4334      1   0.025511  -0.023412     3.00055e-01     6.91943e-02
      4327       4332      1   0.025511   0.006276     2.60142e-01     2.09200e-02
      4327       4333      1   0.025511   0.006276     2.60142e-01     2.09200e-02
      4406       4408      1   0.053944  -0.559638     2.78067e-01     9.58675e-02
      4406       4409      1   0.053944  -0.479574     2.80072e-01     8.62554e-02
      4405       4408      1   0.053944  -0.559638     2.78067e-01     9.58675e-02
      4405       4409      1   0.053944  -0.479574     2.80072e-01     8.62554e-02
      4403       4406      1   0.018859   0.044953     2.60142e-01     2.09200e-02
      4403       4405      1   0.018859   0.044953     2.60142e-01     2.09200e-02
      4403       4407      1   0.018859   0.758669     3.00055e-01     6.13495e-02
      4402       4406      1   0.018859   0.044953     2.60142e-01     2.09200e-02
      4402       4405      1   0.018859   0.044953     2.60142e-01     2.09200e-02
      4402       4407      1   0.018859   0.758669     3.00055e-01     6.13495e-02
      4400       4404      1   0.020431  -0.136833     3.00055e-01     6.91943e-02
      4400       4403      1   0.020431   0.015716     2.60142e-01     2.09200e-02
      4400       4402      1   0.020431   0.015716     2.60142e-01     2.09200e-02
      4399       4404      1   0.020431  -0.136833     3.00055e-01     6.91943e-02
      4399       4403      1   0.020431   0.015716     2.60142e-01     2.09200e-02
      4399       4402      1   0.020431   0.015716     2.60142e-01     2.09200e-02
      4398       4406      1  -0.026954   0.044953     3.00055e-01     6.91943e-02
      4398       4405      1  -0.026954   0.044953     3.00055e-01     6.91943e-02
      4397       4401      1   0.010573  -0.002029     3.00055e-01     6.91943e-02
      4397       4400      1   0.010573   0.017026     2.60142e-01     2.09200e-02
      4397       4399      1   0.010573   0.017026     2.60142e-01     2.09200e-02
      4396       4401      1   0.010573  -0.002029     3.00055e-01     6.91943e-02
      4396       4400      1   0.010573   0.017026     2.60142e-01     2.09200e-02
      4396       4399      1   0.010573   0.017026     2.60142e-01     2.09200e-02
      4395       4403      1  -0.016521   0.015716     3.00055e-01     6.91943e-02
      4395       4402      1  -0.016521   0.015716     3.00055e-01     6.91943e-02
      4394       4398      1   0.011511  -0.022462     3.00055e-01     6.91943e-02
      4394       4396      1   0.011511   0.008811     2.60142e-01     2.09200e-02
      4394       4397      1   0.011511   0.008811     2.60142e-01     2.09200e-02
      4393       4398      1   0.011511  -0.022462     3.00055e-01     6.91943e-02
      4393       4396      1   0.011511   0.008811     2.60142e-01     2.09200e-02
      4393       4397      1   0.011511   0.008811     2.60142e-01     2.09200e-02
      4392       4400      1  -0.027812   0.017026     3.00055e-01     6.91943e-02
      4392       4399      1  -0.027812   0.017026     3.00055e-01     6.91943e-02
      4391       4395      1   0.006833  -0.013767     3.00055e-01     6.91943e-02
      4391       4393      1   0.006833   0.009592     2.60142e-01     2.09200e-02
      4391       4394      1   0.006833   0.009592     2.60142e-01     2.09200e-02
      4390       4395      1   0.006833  -0.013767     3.00055e-01     6.91943e-02
      4390       4393      1   0.006833   0.009592     2.60142e-01     2.09200e-02
      4390       4394      1   0.006833   0.009592     2.60142e-01     2.09200e-02
      4389       4396      1  -0.004386   0.008811     3.00055e-01     6.91943e-02
      4389       4397      1  -0.004386   0.008811     3.00055e-01     6.91943e-02
      4388       4392      1   0.011241  -0.023177     3.00055e-01     6.91943e-02
      4388       4390      1   0.011241   0.005694     2.60142e-01     2.09200e-02
      4388       4391      1   0.011241   0.005694     2.60142e-01     2.09200e-02
      4387       4392      1   0.011241  -0.023177     3.00055e-01     6.91943e-02
      4387       4390      1   0.011241   0.005694     2.60142e-01     2.09200e-02
      4387       4391      1   0.011241   0.005694     2.60142e-01     2.09200e-02
      4386       4393      1  -0.026451   0.009592     3.00055e-01     6.91943e-02
      4386       4394      1  -0.026451   0.009592     3.00055e-01     6.91943e-02
      4385       4389      1   0.010172  -0.003655     3.00055e-01     6.91943e-02
      4385       4388      1   0.010172   0.009367     2.60142e-01     2.09200e-02
      4385       4387      1   0.010172   0.009367     2.60142e-01     2.09200e-02
      4384       4389      1   0.010172  -0.003655     3.00055e-01     6.91943e-02
      4384       4388      1   0.010172   0.009367     2.60142e-01     2.09200e-02
      4384       4387      1   0.010172   0.009367     2.60142e-01     2.09200e-02
      4383       4390      1  -0.014653   0.005694     3.00055e-01     6.91943e-02
      4383       4391      1  -0.014653   0.005694     3.00055e-01     6.91943e-02
      4382       4386      1   0.010037  -0.022042     3.00055e-01     6.91943e-02
      4382       4384      1   0.010037   0.008477     2.60142e-01     2.09200e-02
      4382       4385      1   0.010037   0.008477     2.60142e-01     2.09200e-02
      4381       4386      1   0.010037  -0.022042     3.00055e-01     6.91943e-02
      4381       4384      1   0.010037   0.008477     2.60142e-01     2.09200e-02
      4381       4385      1   0.010037   0.008477     2.60142e-01     2.09200e-02
      4380       4388      1  -0.021025   0.009367     3.00055e-01     6.91943e-02
      4380       4387      1  -0.021025   0.009367     3.00055e-01     6.91943e-02
      4379       4383      1   0.012677  -0.012211     3.00055e-01     6.91943e-02
      4379       4382      1   0.012677   0.008364     2.60142e-01     2.09200e-02
      4379       4381      1   0.012677   0.008364     2.60142e-01     2.09200e-02
      4378       4383      1   0.012677  -0.012211     3.00055e-01     6.91943e-02
      4378       4382      1   0.012677   0.008364     2.60142e-01     2.09200e-02
      4378       4381      1   0.012677   0.008364     2.60142e-01     2.09200e-02
      4377       4384      1  -0.031787   0.008477     3.00055e-01     6.91943e-02
      4377       4385      1  -0.031787   0.008477     3.00055e-01     6.91943e-02
      4376       4380      1   0.017208  -0.017521     3.00055e-01     6.91943e-02
      4376       4378      1   0.017208   0.010564     2.60142e-01     2.09200e-02
      4376       4379      1   0.017208   0.010564     2.60142e-01     2.09200e-02
      4375       4380      1   0.017208  -0.017521     3.00055e-01     6.91943e-02
      4375       4378      1   0.017208   0.010564     2.60142e-01     2.09200e-02
      4375       4379      1   0.017208   0.010564     2.60142e-01     2.09200e-02
      4374       4382      1  -0.028094   0.008364     3.00055e-01     6.91943e-02
      4374       4381      1  -0.028094   0.008364     3.00055e-01     6.91943e-02
      4373       4377      1   0.007531  -0.026489     3.00055e-01     6.91943e-02
      4373       4376      1   0.007531   0.014340     2.60142e-01     2.09200e-02
      4373       4375      1   0.007531   0.014340     2.60142e-01     2.09200e-02
      4372       4377      1   0.007531  -0.026489     3.00055e-01     6.91943e-02
      4372       4376      1   0.007531   0.014340     2.60142e-01     2.09200e-02
      4372       4375      1   0.007531   0.014340     2.60142e-01     2.09200e-02
      4371       4378      1   0.017463   0.010564     3.00055e-01     6.91943e-02
      4371       4379      1   0.017463   0.010564     3.00055e-01     6.91943e-02
      4370       4374      1   0.025511  -0.023412     3.00055e-01     6.91943e-02
      4370       4372      1   0.025511   0.006276     2.60142e-01     2.09200e-02
      4370       4373      1   0.025511   0.006276     2.60142e-01     2.09200e-02
      4369       4374      1   0.025511  -0.023412     3.00055e-01     6.91943e-02
      4369       4372      1   0.025511   0.006276     2.60142e-01     2.09200e-02
      4369       4373      1   0.025511   0.006276     2.60142e-01     2.09200e-02
      4368       4376      1  -0.111712   0.014340     3.00055e-01     6.91943e-02
      4368       4375      1  -0.111712   0.014340     3.00055e-01     6.91943e-02
      4367       4374      1   0.025511  -0.023412     3.00055e-01     6.91943e-02
      4367       4372      1   0.025511   0.006276     2.60142e-01     2.09200e-02
      4367       4373      1   0.025511   0.006276     2.60142e-01     2.09200e-02
      4444       4484      1  -0.673755   0.044953     2.78067e-01     9.58675e-02
      4444       4483      1  -0.673755   0.044953     2.78067e-01     9.58675e-02
      4443       4481      1   0.897613   0.015716     3.00055e-01     6.13495e-02
      4443       4480      1   0.897613   0.015716     3.00055e-01     6.13495e-02
      4442       4484      1  -0.552948   0.044953     2.80072e-01     8.62554e-02
      4442       4483      1  -0.552948   0.044953     2.80072e-01     8.62554e-02
      4435       4436      1   0.172230  -0.282478     2.67982e-01     8.67002e-02
      4434       4436      1   0.172230  -0.282478     2.67982e-01     8.67002e-02
      4433       4436      1   0.172230  -0.282478     2.67982e-01     8.67002e-02
      4432       4437      1  -0.338973   0.143525     2.67982e-01     8.67002e-02
      4432       4438      1  -0.338973   0.143525     2.67982e-01     8.67002e-02
      4432       4439      1  -0.338973   0.143525     2.67982e-01     8.67002e-02
      4431       4432      1   0.172230  -0.282478     2.67982e-01     8.67002e-02
      4431       4436      1   0.172230  -0.282478     2.67982e-01     8.67002e-02
      4430       4432      1   0.172230  -0.282478     2.67982e-01     8.67002e-02
      4430       4436      1   0.172230  -0.282478     2.67982e-01     8.67002e-02
      4429       4432      1   0.172230  -0.282478     2.67982e-01     8.67002e-02
      4429       4436      1   0.172230  -0.282478     2.67982e-01     8.67002e-02
      4428       4433      1  -0.338973   0.143525     2.67982e-01     8.67002e-02
      4428       4434      1  -0.338973   0.143525     2.67982e-01     8.67002e-02
      4428       4435      1  -0.338973   0.143525     2.67982e-01     8.67002e-02
      4428       4437      1  -0.338973   0.143525     2.67982e-01     8.67002e-02
      4428       4438      1  -0.338973   0.143525     2.67982e-01     8.67002e-02
      4428       4439      1  -0.338973   0.143525     2.67982e-01     8.67002e-02
      4426       4428      1   0.136415  -0.282478     2.67982e-01     8.67002e-02
      4426       4432      1   0.136415  -0.282478     2.67982e-01     8.67002e-02
      4426       4436      1   0.136415  -0.282478     2.67982e-01     8.67002e-02
      4425       4428      1   0.136415  -0.282478     2.67982e-01     8.67002e-02
      4425       4432      1   0.136415  -0.282478     2.67982e-01     8.67002e-02
      4425       4436      1   0.136415  -0.282478     2.67982e-01     8.67002e-02
      4424       4429      1  -0.170824   0.143525     2.67982e-01     8.67002e-02
      4424       4430      1  -0.170824   0.143525     2.67982e-01     8.67002e-02
      4424       4431      1  -0.170824   0.143525     2.67982e-01     8.67002e-02
      4424       4433      1  -0.170824   0.143525     2.67982e-01     8.67002e-02
      4424       4434      1  -0.170824   0.143525     2.67982e-01     8.67002e-02
      4424       4435      1  -0.170824   0.143525     2.67982e-01     8.67002e-02
      4424       4437      1  -0.170824   0.143525     2.67982e-01     8.67002e-02
      4424       4438      1  -0.170824   0.143525     2.67982e-01     8.67002e-02
      4424       4439      1  -0.170824   0.143525     2.67982e-01     8.67002e-02
      4423       4425      1   0.078534   0.113679     2.21567e-01     3.28444e-02
      4423       4426      1   0.078534   0.113679     2.21567e-01     3.28444e-02
      4423       4427      1   0.078534   0.204385     2.86068e-01     1.08078e-01
      4422       4425      1   0.078534   0.113679     2.21567e-01     3.28444e-02
      4422       4426      1   0.078534   0.113679     2.21567e-01     3.28444e-02
      4422       4427      1   0.078534   0.204385     2.86068e-01     1.08078e-01
      4420       4425      1  -0.508176   0.113679     2.47999e-01     1.08078e-01
      4420       4426      1  -0.508176   0.113679     2.47999e-01     1.08078e-01
      4419       4422      1   1.339721   0.065445     3.10656e-01     1.17227e-01
      4419       4423      1   1.339721   0.065445     3.10656e-01     1.17227e-01
      4417       4442      1   0.095591  -0.460790     2.73568e-01     1.08078e-01
      4417       4419      1   0.095591   1.116434     3.10656e-01     1.17227e-01
      4416       4442      1   0.095591  -0.460790     2.73568e-01     1.08078e-01
      4416       4419      1   0.095591   1.116434     3.10656e-01     1.17227e-01
      4414       4416      1   0.063253   0.079659     2.47135e-01     3.28444e-02
      4414       4417      1   0.063253   0.079659     2.47135e-01     3.28444e-02
      4414       4418      1   0.063253  -0.424567     2.73568e-01     1.08078e-01
      4414       4443      1   0.063253   0.748011     2.93551e-01     7.68707e-02
      4412       4414      1   0.070469   0.052711     2.47135e-01     3.28444e-02
      4412       4415      1   0.070469   0.014549     2.93551e-01     8.67002e-02
      4412       4442      1   0.070469  -0.460790     2.73568e-01     1.08078e-01
      4411       4414      1   0.070469   0.052711     2.47135e-01     3.28444e-02
      4411       4415      1   0.070469   0.014549     2.93551e-01     8.67002e-02
      4411       4442      1   0.070469  -0.460790     2.73568e-01     1.08078e-01
      4410       4416      1   0.196939   0.079659     2.93551e-01     8.67002e-02
      4410       4417      1   0.196939   0.079659     2.93551e-01     8.67002e-02
      4409       4414      1  -0.575489   0.052711     2.73568e-01     1.08078e-01
      4407       4411      1   0.910403   0.058724     2.93551e-01     7.68707e-02
      4407       4412      1   0.910403   0.058724     2.93551e-01     7.68707e-02
      4481       4484      1   0.018859   0.044953     2.60142e-01     2.09200e-02
      4481       4483      1   0.018859   0.044953     2.60142e-01     2.09200e-02
      4480       4484      1   0.018859   0.044953     2.60142e-01     2.09200e-02
      4480       4483      1   0.018859   0.044953     2.60142e-01     2.09200e-02
      4478       4482      1   0.020431  -0.136833     3.00055e-01     6.91943e-02
      4478       4481      1   0.020431   0.015716     2.60142e-01     2.09200e-02
      4478       4480      1   0.020431   0.015716     2.60142e-01     2.09200e-02
      4477       4482      1   0.020431  -0.136833     3.00055e-01     6.91943e-02
      4477       4481      1   0.020431   0.015716     2.60142e-01     2.09200e-02
      4477       4480      1   0.020431   0.015716     2.60142e-01     2.09200e-02
      4476       4484      1  -0.026954   0.044953     3.00055e-01     6.91943e-02
      4476       4483      1  -0.026954   0.044953     3.00055e-01     6.91943e-02
      4475       4479      1   0.010573  -0.002029     3.00055e-01     6.91943e-02
      4475       4478      1   0.010573   0.017026     2.60142e-01     2.09200e-02
      4475       4477      1   0.010573   0.017026     2.60142e-01     2.09200e-02
      4474       4479      1   0.010573  -0.002029     3.00055e-01     6.91943e-02
      4474       4478      1   0.010573   0.017026     2.60142e-01     2.09200e-02
      4474       4477      1   0.010573   0.017026     2.60142e-01     2.09200e-02
      4473       4481      1  -0.016521   0.015716     3.00055e-01     6.91943e-02
      4473       4480      1  -0.016521   0.015716     3.00055e-01     6.91943e-02
      4472       4476      1   0.011511  -0.022462     3.00055e-01     6.91943e-02
      4472       4474      1   0.011511   0.008811     2.60142e-01     2.09200e-02
      4472       4475      1   0.011511   0.008811     2.60142e-01     2.09200e-02
      4471       4476      1   0.011511  -0.022462     3.00055e-01     6.91943e-02
      4471       4474      1   0.011511   0.008811     2.60142e-01     2.09200e-02
      4471       4475      1   0.011511   0.008811     2.60142e-01     2.09200e-02
      4470       4478      1  -0.027812   0.017026     3.00055e-01     6.91943e-02
      4470       4477      1  -0.027812   0.017026     3.00055e-01     6.91943e-02
      4469       4473      1   0.006833  -0.013767     3.00055e-01     6.91943e-02
      4469       4471      1   0.006833   0.009592     2.60142e-01     2.09200e-02
      4469       4472      1   0.006833   0.009592     2.60142e-01     2.09200e-02
      4468       4473      1   0.006833  -0.013767     3.00055e-01     6.91943e-02
      4468       4471      1   0.006833   0.009592     2.60142e-01     2.09200e-02
      4468       4472      1   0.006833   0.009592     2.60142e-01     2.09200e-02
      4467       4474      1  -0.004386   0.008811     3.00055e-01     6.91943e-02
      4467       4475      1  -0.004386   0.008811     3.00055e-01     6.91943e-02
      4466       4470      1   0.011241  -0.023177     3.00055e-01     6.91943e-02
      4466       4468      1   0.011241   0.005694     2.60142e-01     2.09200e-02
      4466       4469      1   0.011241   0.005694     2.60142e-01     2.09200e-02
      4465       4470      1   0.011241  -0.023177     3.00055e-01     6.91943e-02
      4465       4468      1   0.011241   0.005694     2.60142e-01     2.09200e-02
      4465       4469      1   0.011241   0.005694     2.60142e-01     2.09200e-02
      4464       4471      1  -0.026451   0.009592     3.00055e-01     6.91943e-02
      4464       4472      1  -0.026451   0.009592     3.00055e-01     6.91943e-02
      4463       4467      1   0.010172  -0.003655     3.00055e-01     6.91943e-02
      4463       4466      1   0.010172   0.009367     2.60142e-01     2.09200e-02
      4463       4465      1   0.010172   0.009367     2.60142e-01     2.09200e-02
      4462       4467      1   0.010172  -0.003655     3.00055e-01     6.91943e-02
      4462       4466      1   0.010172   0.009367     2.60142e-01     2.09200e-02
      4462       4465      1   0.010172   0.009367     2.60142e-01     2.09200e-02
      4461       4468      1  -0.014653   0.005694     3.00055e-01     6.91943e-02
      4461       4469      1  -0.014653   0.005694     3.00055e-01     6.91943e-02
      4460       4464      1   0.010037  -0.022042     3.00055e-01     6.91943e-02
      4460       4462      1   0.010037   0.008477     2.60142e-01     2.09200e-02
      4460       4463      1   0.010037   0.008477     2.60142e-01     2.09200e-02
      4459       4464      1   0.010037  -0.022042     3.00055e-01     6.91943e-02
      4459       4462      1   0.010037   0.008477     2.60142e-01     2.09200e-02
      4459       4463      1   0.010037   0.008477     2.60142e-01     2.09200e-02
      4458       4466      1  -0.021025   0.009367     3.00055e-01     6.91943e-02
      4458       4465      1  -0.021025   0.009367     3.00055e-01     6.91943e-02
      4457       4461      1   0.012677  -0.012211     3.00055e-01     6.91943e-02
      4457       4460      1   0.012677   0.008364     2.60142e-01     2.09200e-02
      4457       4459      1   0.012677   0.008364     2.60142e-01     2.09200e-02
      4456       4461      1   0.012677  -0.012211     3.00055e-01     6.91943e-02
      4456       4460      1   0.012677   0.008364     2.60142e-01     2.09200e-02
      4456       4459      1   0.012677   0.008364     2.60142e-01     2.09200e-02
      4455       4462      1  -0.031787   0.008477     3.00055e-01     6.91943e-02
      4455       4463      1  -0.031787   0.008477     3.00055e-01     6.91943e-02
      4454       4458      1   0.017208  -0.017521     3.00055e-01     6.91943e-02
      4454       4456      1   0.017208   0.010564     2.60142e-01     2.09200e-02
      4454       4457      1   0.017208   0.010564     2.60142e-01     2.09200e-02
      4453       4458      1   0.017208  -0.017521     3.00055e-01     6.91943e-02
      4453       4456      1   0.017208   0.010564     2.60142e-01     2.09200e-02
      4453       4457      1   0.017208   0.010564     2.60142e-01     2.09200e-02
      4452       4460      1  -0.028094   0.008364     3.00055e-01     6.91943e-02
      4452       4459      1  -0.028094   0.008364     3.00055e-01     6.91943e-02
      4451       4455      1   0.007531  -0.026489     3.00055e-01     6.91943e-02
      4451       4454      1   0.007531   0.014340     2.60142e-01     2.09200e-02
      4451       4453      1   0.007531   0.014340     2.60142e-01     2.09200e-02
      4450       4455      1   0.007531  -0.026489     3.00055e-01     6.91943e-02
      4450       4454      1   0.007531   0.014340     2.60142e-01     2.09200e-02
      4450       4453      1   0.007531   0.014340     2.60142e-01     2.09200e-02
      4449       4456      1   0.017463   0.010564     3.00055e-01     6.91943e-02
      4449       4457      1   0.017463   0.010564     3.00055e-01     6.91943e-02
      4448       4452      1   0.025511  -0.023412     3.00055e-01     6.91943e-02
      4448       4450      1   0.025511   0.006276     2.60142e-01     2.09200e-02
      4448       4451      1   0.025511   0.006276     2.60142e-01     2.09200e-02
      4447       4452      1   0.025511  -0.023412     3.00055e-01     6.91943e-02
      4447       4450      1   0.025511   0.006276     2.60142e-01     2.09200e-02
      4447       4451      1   0.025511   0.006276     2.60142e-01     2.09200e-02
      4446       4454      1  -0.111712   0.014340     3.00055e-01     6.91943e-02
      4446       4453      1  -0.111712   0.014340     3.00055e-01     6.91943e-02
      4445       4452      1   0.025511  -0.023412     3.00055e-01     6.91943e-02
      4445       4450      1   0.025511   0.006276     2.60142e-01     2.09200e-02
      4445       4451      1   0.025511   0.006276     2.60142e-01     2.09200e-02
      4524       4526      1   0.053944  -0.559638     2.78067e-01     9.58675e-02
      4524       4527      1   0.053944  -0.479574     2.80072e-01     8.62554e-02
      4523       4526      1   0.053944  -0.559638     2.78067e-01     9.58675e-02
      4523       4527      1   0.053944  -0.479574     2.80072e-01     8.62554e-02
      4521       4524      1   0.018859   0.044953     2.60142e-01     2.09200e-02
      4521       4523      1   0.018859   0.044953     2.60142e-01     2.09200e-02
      4521       4525      1   0.018859   0.758669     3.00055e-01     6.13495e-02
      4520       4524      1   0.018859   0.044953     2.60142e-01     2.09200e-02
      4520       4523      1   0.018859   0.044953     2.60142e-01     2.09200e-02
      4520       4525      1   0.018859   0.758669     3.00055e-01     6.13495e-02
      4518       4522      1   0.020431  -0.136833     3.00055e-01     6.91943e-02
      4518       4521      1   0.020431   0.015716     2.60142e-01     2.09200e-02
      4518       4520      1   0.020431   0.015716     2.60142e-01     2.09200e-02
      4517       4522      1   0.020431  -0.136833     3.00055e-01     6.91943e-02
      4517       4521      1   0.020431   0.015716     2.60142e-01     2.09200e-02
      4517       4520      1   0.020431   0.015716     2.60142e-01     2.09200e-02
      4516       4524      1  -0.026954   0.044953     3.00055e-01     6.91943e-02
      4516       4523      1  -0.026954   0.044953     3.00055e-01     6.91943e-02
      4515       4519      1   0.010573  -0.002029     3.00055e-01     6.91943e-02
      4515       4518      1   0.010573   0.017026     2.60142e-01     2.09200e-02
      4515       4517      1   0.010573   0.017026     2.60142e-01     2.09200e-02
      4514       4519      1   0.010573  -0.002029     3.00055e-01     6.91943e-02
      4514       4518      1   0.010573   0.017026     2.60142e-01     2.09200e-02
      4514       4517      1   0.010573   0.017026     2.60142e-01     2.09200e-02
      4513       4521      1  -0.016521   0.015716     3.00055e-01     6.91943e-02
      4513       4520      1  -0.016521   0.015716     3.00055e-01     6.91943e-02
      4512       4516      1   0.011511  -0.022462     3.00055e-01     6.91943e-02
      4512       4514      1   0.011511   0.008811     2.60142e-01     2.09200e-02
      4512       4515      1   0.011511   0.008811     2.60142e-01     2.09200e-02
      4511       4516      1   0.011511  -0.022462     3.00055e-01     6.91943e-02
      4511       4514      1   0.011511   0.008811     2.60142e-01     2.09200e-02
      4511       4515      1   0.011511   0.008811     2.60142e-01     2.09200e-02
      4510       4518      1  -0.027812   0.017026     3.00055e-01     6.91943e-02
      4510       4517      1  -0.027812   0.017026     3.00055e-01     6.91943e-02
      4509       4513      1   0.006833  -0.013767     3.00055e-01     6.91943e-02
      4509       4511      1   0.006833   0.009592     2.60142e-01     2.09200e-02
      4509       4512      1   0.006833   0.009592     2.60142e-01     2.09200e-02
      4508       4513      1   0.006833  -0.013767     3.00055e-01     6.91943e-02
      4508       4511      1   0.006833   0.009592     2.60142e-01     2.09200e-02
      4508       4512      1   0.006833   0.009592     2.60142e-01     2.09200e-02
      4507       4514      1  -0.004386   0.008811     3.00055e-01     6.91943e-02
      4507       4515      1  -0.004386   0.008811     3.00055e-01     6.91943e-02
      4506       4510      1   0.011241  -0.023177     3.00055e-01     6.91943e-02
      4506       4508      1   0.011241   0.005694     2.60142e-01     2.09200e-02
      4506       4509      1   0.011241   0.005694     2.60142e-01     2.09200e-02
      4505       4510      1   0.011241  -0.023177     3.00055e-01     6.91943e-02
      4505       4508      1   0.011241   0.005694     2.60142e-01     2.09200e-02
      4505       4509      1   0.011241   0.005694     2.60142e-01     2.09200e-02
      4504       4511      1  -0.026451   0.009592     3.00055e-01     6.91943e-02
      4504       4512      1  -0.026451   0.009592     3.00055e-01     6.91943e-02
      4503       4507      1   0.010172  -0.003655     3.00055e-01     6.91943e-02
      4503       4506      1   0.010172   0.009367     2.60142e-01     2.09200e-02
      4503       4505      1   0.010172   0.009367     2.60142e-01     2.09200e-02
      4502       4507      1   0.010172  -0.003655     3.00055e-01     6.91943e-02
      4502       4506      1   0.010172   0.009367     2.60142e-01     2.09200e-02
      4502       4505      1   0.010172   0.009367     2.60142e-01     2.09200e-02
      4501       4508      1  -0.014653   0.005694     3.00055e-01     6.91943e-02
      4501       4509      1  -0.014653   0.005694     3.00055e-01     6.91943e-02
      4500       4504      1   0.010037  -0.022042     3.00055e-01     6.91943e-02
      4500       4502      1   0.010037   0.008477     2.60142e-01     2.09200e-02
      4500       4503      1   0.010037   0.008477     2.60142e-01     2.09200e-02
      4499       4504      1   0.010037  -0.022042     3.00055e-01     6.91943e-02
      4499       4502      1   0.010037   0.008477     2.60142e-01     2.09200e-02
      4499       4503      1   0.010037   0.008477     2.60142e-01     2.09200e-02
      4498       4506      1  -0.021025   0.009367     3.00055e-01     6.91943e-02
      4498       4505      1  -0.021025   0.009367     3.00055e-01     6.91943e-02
      4497       4501      1   0.012677  -0.012211     3.00055e-01     6.91943e-02
      4497       4500      1   0.012677   0.008364     2.60142e-01     2.09200e-02
      4497       4499      1   0.012677   0.008364     2.60142e-01     2.09200e-02
      4496       4501      1   0.012677  -0.012211     3.00055e-01     6.91943e-02
      4496       4500      1   0.012677   0.008364     2.60142e-01     2.09200e-02
      4496       4499      1   0.012677   0.008364     2.60142e-01     2.09200e-02
      4495       4502      1  -0.031787   0.008477     3.00055e-01     6.91943e-02
      4495       4503      1  -0.031787   0.008477     3.00055e-01     6.91943e-02
      4494       4498      1   0.017208  -0.017521     3.00055e-01     6.91943e-02
      4494       4496      1   0.017208   0.010564     2.60142e-01     2.09200e-02
      4494       4497      1   0.017208   0.010564     2.60142e-01     2.09200e-02
      4493       4498      1   0.017208  -0.017521     3.00055e-01     6.91943e-02
      4493       4496      1   0.017208   0.010564     2.60142e-01     2.09200e-02
      4493       4497      1   0.017208   0.010564     2.60142e-01     2.09200e-02
      4492       4500      1  -0.028094   0.008364     3.00055e-01     6.91943e-02
      4492       4499      1  -0.028094   0.008364     3.00055e-01     6.91943e-02
      4491       4495      1   0.007531  -0.026489     3.00055e-01     6.91943e-02
      4491       4494      1   0.007531   0.014340     2.60142e-01     2.09200e-02
      4491       4493      1   0.007531   0.014340     2.60142e-01     2.09200e-02
      4490       4495      1   0.007531  -0.026489     3.00055e-01     6.91943e-02
      4490       4494      1   0.007531   0.014340     2.60142e-01     2.09200e-02
      4490       4493      1   0.007531   0.014340     2.60142e-01     2.09200e-02
      4489       4496      1   0.017463   0.010564     3.00055e-01     6.91943e-02
      4489       4497      1   0.017463   0.010564     3.00055e-01     6.91943e-02
      4488       4492      1   0.025511  -0.023412     3.00055e-01     6.91943e-02
      4488       4490      1   0.025511   0.006276     2.60142e-01     2.09200e-02
      4488       4491      1   0.025511   0.006276     2.60142e-01     2.09200e-02
      4487       4492      1   0.025511  -0.023412     3.00055e-01     6.91943e-02
      4487       4490      1   0.025511   0.006276     2.60142e-01     2.09200e-02
      4487       4491      1   0.025511   0.006276     2.60142e-01     2.09200e-02
      4486       4494      1  -0.111712   0.014340     3.00055e-01     6.91943e-02
      4486       4493      1  -0.111712   0.014340     3.00055e-01     6.91943e-02
      4485       4492      1   0.025511  -0.023412     3.00055e-01     6.91943e-02
      4485       4490      1   0.025511   0.006276     2.60142e-01     2.09200e-02
      4485       4491      1   0.025511   0.006276     2.60142e-01     2.09200e-02
      4562       4602      1  -0.673755   0.044953     2.78067e-01     9.58675e-02
      4562       4601      1  -0.673755   0.044953     2.78067e-01     9.58675e-02
      4561       4599      1   0.897613   0.015716     3.00055e-01     6.13495e-02
      4561       4598      1   0.897613   0.015716     3.00055e-01     6.13495e-02
      4560       4602      1  -0.552948   0.044953     2.80072e-01     8.62554e-02
      4560       4601      1  -0.552948   0.044953     2.80072e-01     8.62554e-02
      4553       4554      1   0.172230  -0.282478     2.67982e-01     8.67002e-02
      4552       4554      1   0.172230  -0.282478     2.67982e-01     8.67002e-02
      4551       4554      1   0.172230  -0.282478     2.67982e-01     8.67002e-02
      4550       4555      1  -0.338973   0.143525     2.67982e-01     8.67002e-02
      4550       4556      1  -0.338973   0.143525     2.67982e-01     8.67002e-02
      4550       4557      1  -0.338973   0.143525     2.67982e-01     8.67002e-02
      4549       4550      1   0.172230  -0.282478     2.67982e-01     8.67002e-02
      4549       4554      1   0.172230  -0.282478     2.67982e-01     8.67002e-02
      4548       4550      1   0.172230  -0.282478     2.67982e-01     8.67002e-02
      4548       4554      1   0.172230  -0.282478     2.67982e-01     8.67002e-02
      4547       4550      1   0.172230  -0.282478     2.67982e-01     8.67002e-02
      4547       4554      1   0.172230  -0.282478     2.67982e-01     8.67002e-02
      4546       4551      1  -0.338973   0.143525     2.67982e-01     8.67002e-02
      4546       4552      1  -0.338973   0.143525     2.67982e-01     8.67002e-02
      4546       4553      1  -0.338973   0.143525     2.67982e-01     8.67002e-02
      4546       4555      1  -0.338973   0.143525     2.67982e-01     8.67002e-02
      4546       4556      1  -0.338973   0.143525     2.67982e-01     8.67002e-02
      4546       4557      1  -0.338973   0.143525     2.67982e-01     8.67002e-02
      4544       4546      1   0.136415  -0.282478     2.67982e-01     8.67002e-02
      4544       4550      1   0.136415  -0.282478     2.67982e-01     8.67002e-02
      4544       4554      1   0.136415  -0.282478     2.67982e-01     8.67002e-02
      4543       4546      1   0.136415  -0.282478     2.67982e-01     8.67002e-02
      4543       4550      1   0.136415  -0.282478     2.67982e-01     8.67002e-02
      4543       4554      1   0.136415  -0.282478     2.67982e-01     8.67002e-02
      4542       4547      1  -0.170824   0.143525     2.67982e-01     8.67002e-02
      4542       4548      1  -0.170824   0.143525     2.67982e-01     8.67002e-02
      4542       4549      1  -0.170824   0.143525     2.67982e-01     8.67002e-02
      4542       4551      1  -0.170824   0.143525     2.67982e-01     8.67002e-02
      4542       4552      1  -0.170824   0.143525     2.67982e-01     8.67002e-02
      4542       4553      1  -0.170824   0.143525     2.67982e-01     8.67002e-02
      4542       4555      1  -0.170824   0.143525     2.67982e-01     8.67002e-02
      4542       4556      1  -0.170824   0.143525     2.67982e-01     8.67002e-02
      4542       4557      1  -0.170824   0.143525     2.67982e-01     8.67002e-02
      4541       4543      1   0.078534   0.113679     2.21567e-01     3.28444e-02
      4541       4544      1   0.078534   0.113679     2.21567e-01     3.28444e-02
      4541       4545      1   0.078534   0.204385     2.86068e-01     1.08078e-01
      4540       4543      1   0.078534   0.113679     2.21567e-01     3.28444e-02
      4540       4544      1   0.078534   0.113679     2.21567e-01     3.28444e-02
      4540       4545      1   0.078534   0.204385     2.86068e-01     1.08078e-01
      4538       4543      1  -0.508176   0.113679     2.47999e-01     1.08078e-01
      4538       4544      1  -0.508176   0.113679     2.47999e-01     1.08078e-01
      4537       4540      1   1.339721   0.065445     3.10656e-01     1.17227e-01
      4537       4541      1   1.339721   0.065445     3.10656e-01     1.17227e-01
      4535       4560      1   0.095591  -0.460790     2.73568e-01     1.08078e-01
      4535       4537      1   0.095591   1.116434     3.10656e-01     1.17227e-01
      4534       4560      1   0.095591  -0.460790     2.73568e-01     1.08078e-01
      4534       4537      1   0.095591   1.116434     3.10656e-01     1.17227e-01
      4532       4534      1   0.063253   0.079659     2.47135e-01     3.28444e-02
      4532       4535      1   0.063253   0.079659     2.47135e-01     3.28444e-02
      4532       4536      1   0.063253  -0.424567     2.73568e-01     1.08078e-01
      4532       4561      1   0.063253   0.748011     2.93551e-01     7.68707e-02
      4530       4532      1   0.070469   0.052711     2.47135e-01     3.28444e-02
      4530       4533      1   0.070469   0.014549     2.93551e-01     8.67002e-02
      4530       4560      1   0.070469  -0.460790     2.73568e-01     1.08078e-01
      4529       4532      1   0.070469   0.052711     2.47135e-01     3.28444e-02
      4529       4533      1   0.070469   0.014549     2.93551e-01     8.67002e-02
      4529       4560      1   0.070469  -0.460790     2.73568e-01     1.08078e-01
      4528       4534      1   0.196939   0.079659     2.93551e-01     8.67002e-02
      4528       4535      1   0.196939   0.079659     2.93551e-01     8.67002e-02
      4527       4532      1  -0.575489   0.052711     2.73568e-01     1.08078e-01
      4525       4529      1   0.910403   0.058724     2.93551e-01     7.68707e-02
      4525       4530      1   0.910403   0.058724     2.93551e-01     7.68707e-02
      4599       4602      1   0.018859   0.044953     2.60142e-01     2.09200e-02
      4599       4601      1   0.018859   0.044953     2.60142e-01     2.09200e-02
      4598       4602      1   0.018859   0.044953     2.60142e-01     2.09200e-02
      4598       4601      1   0.018859   0.044953     2.60142e-01     2.09200e-02
      4596       4600      1   0.020431  -0.136833     3.00055e-01     6.91943e-02
      4596       4599      1   0.020431   0.015716     2.60142e-01     2.09200e-02
      4596       4598      1   0.020431   0.015716     2.60142e-01     2.09200e-02
      4595       4600      1   0.020431  -0.136833     3.00055e-01     6.91943e-02
      4595       4599      1   0.020431   0.015716     2.60142e-01     2.09200e-02
      4595       4598      1   0.020431   0.015716     2.60142e-01     2.09200e-02
      4594       4602      1  -0.026954   0.044953     3.00055e-01     6.91943e-02
      4594       4601      1  -0.026954   0.044953     3.00055e-01     6.91943e-02
      4593       4597      1   0.010573  -0.002029     3.00055e-01     6.91943e-02
      4593       4596      1   0.010573   0.017026     2.60142e-01     2.09200e-02
      4593       4595      1   0.010573   0.017026     2.60142e-01     2.09200e-02
      4592       4597      1   0.010573  -0.002029     3.00055e-01     6.91943e-02
      4592       4596      1   0.010573   0.017026     2.60142e-01     2.09200e-02
      4592       4595      1   0.010573   0.017026     2.60142e-01     2.09200e-02
      4591       4599      1  -0.016521   0.015716     3.00055e-01     6.91943e-02
      4591       4598      1  -0.016521   0.015716     3.00055e-01     6.91943e-02
      4590       4594      1   0.011511  -0.022462     3.00055e-01     6.91943e-02
      4590       4592      1   0.011511   0.008811     2.60142e-01     2.09200e-02
      4590       4593      1   0.011511   0.008811     2.60142e-01     2.09200e-02
      4589       4594      1   0.011511  -0.022462     3.00055e-01     6.91943e-02
      4589       4592      1   0.011511   0.008811     2.60142e-01     2.09200e-02
      4589       4593      1   0.011511   0.008811     2.60142e-01     2.09200e-02
      4588       4596      1  -0.027812   0.017026     3.00055e-01     6.91943e-02
      4588       4595      1  -0.027812   0.017026     3.00055e-01     6.91943e-02
      4587       4591      1   0.006833  -0.013767     3.00055e-01     6.91943e-02
      4587       4589      1   0.006833   0.009592     2.60142e-01     2.09200e-02
      4587       4590      1   0.006833   0.009592     2.60142e-01     2.09200e-02
      4586       4591      1   0.006833  -0.013767     3.00055e-01     6.91943e-02
      4586       4589      1   0.006833   0.009592     2.60142e-01     2.09200e-02
      4586       4590      1   0.006833   0.009592     2.60142e-01     2.09200e-02
      4585       4592      1  -0.004386   0.008811     3.00055e-01     6.91943e-02
      4585       4593      1  -0.004386   0.008811     3.00055e-01     6.91943e-02
      4584       4588      1   0.011241  -0.023177     3.00055e-01     6.91943e-02
      4584       4586      1   0.011241   0.005694     2.60142e-01     2.09200e-02
      4584       4587      1   0.011241   0.005694     2.60142e-01     2.09200e-02
      4583       4588      1   0.011241  -0.023177     3.00055e-01     6.91943e-02
      4583       4586      1   0.011241   0.005694     2.60142e-01     2.09200e-02
      4583       4587      1   0.011241   0.005694     2.60142e-01     2.09200e-02
      4582       4589      1  -0.026451   0.009592     3.00055e-01     6.91943e-02
      4582       4590      1  -0.026451   0.009592     3.00055e-01     6.91943e-02
      4581       4585      1   0.010172  -0.003655     3.00055e-01     6.91943e-02
      4581       4584      1   0.010172   0.009367     2.60142e-01     2.09200e-02
      4581       4583      1   0.010172   0.009367     2.60142e-01     2.09200e-02
      4580       4585      1   0.010172  -0.003655     3.00055e-01     6.91943e-02
      4580       4584      1   0.010172   0.009367     2.60142e-01     2.09200e-02
      4580       4583      1   0.010172   0.009367     2.60142e-01     2.09200e-02
      4579       4586      1  -0.014653   0.005694     3.00055e-01     6.91943e-02
      4579       4587      1  -0.014653   0.005694     3.00055e-01     6.91943e-02
      4578       4582      1   0.010037  -0.022042     3.00055e-01     6.91943e-02
      4578       4580      1   0.010037   0.008477     2.60142e-01     2.09200e-02
      4578       4581      1   0.010037   0.008477     2.60142e-01     2.09200e-02
      4577       4582      1   0.010037  -0.022042     3.00055e-01     6.91943e-02
      4577       4580      1   0.010037   0.008477     2.60142e-01     2.09200e-02
      4577       4581      1   0.010037   0.008477     2.60142e-01     2.09200e-02
      4576       4584      1  -0.021025   0.009367     3.00055e-01     6.91943e-02
      4576       4583      1  -0.021025   0.009367     3.00055e-01     6.91943e-02
      4575       4579      1   0.012677  -0.012211     3.00055e-01     6.91943e-02
      4575       4578      1   0.012677   0.008364     2.60142e-01     2.09200e-02
      4575       4577      1   0.012677   0.008364     2.60142e-01     2.09200e-02
      4574       4579      1   0.012677  -0.012211     3.00055e-01     6.91943e-02
      4574       4578      1   0.012677   0.008364     2.60142e-01     2.09200e-02
      4574       4577      1   0.012677   0.008364     2.60142e-01     2.09200e-02
      4573       4580      1  -0.031787   0.008477     3.00055e-01     6.91943e-02
      4573       4581      1  -0.031787   0.008477     3.00055e-01     6.91943e-02
      4572       4576      1   0.017208  -0.017521     3.00055e-01     6.91943e-02
      4572       4574      1   0.017208   0.010564     2.60142e-01     2.09200e-02
      4572       4575      1   0.017208   0.010564     2.60142e-01     2.09200e-02
      4571       4576      1   0.017208  -0.017521     3.00055e-01     6.91943e-02
      4571       4574      1   0.017208   0.010564     2.60142e-01     2.09200e-02
      4571       4575      1   0.017208   0.010564     2.60142e-01     2.09200e-02
      4570       4578      1  -0.028094   0.008364     3.00055e-01     6.91943e-02
      4570       4577      1  -0.028094   0.008364     3.00055e-01     6.91943e-02
      4569       4573      1   0.007531  -0.026489     3.00055e-01     6.91943e-02
      4569       4572      1   0.007531   0.014340     2.60142e-01     2.09200e-02
      4569       4571      1   0.007531   0.014340     2.60142e-01     2.09200e-02
      4568       4573      1   0.007531  -0.026489     3.00055e-01     6.91943e-02
      4568       4572      1   0.007531   0.014340     2.60142e-01     2.09200e-02
      4568       4571      1   0.007531   0.014340     2.60142e-01     2.09200e-02
      4567       4574      1   0.017463   0.010564     3.00055e-01     6.91943e-02
      4567       4575      1   0.017463   0.010564     3.00055e-01     6.91943e-02
      4566       4570      1   0.025511  -0.023412     3.00055e-01     6.91943e-02
      4566       4568      1   0.025511   0.006276     2.60142e-01     2.09200e-02
      4566       4569      1   0.025511   0.006276     2.60142e-01     2.09200e-02
      4565       4570      1   0.025511  -0.023412     3.00055e-01     6.91943e-02
      4565       4568      1   0.025511   0.006276     2.60142e-01     2.09200e-02
      4565       4569      1   0.025511   0.006276     2.60142e-01     2.09200e-02
      4564       4572      1  -0.111712   0.014340     3.00055e-01     6.91943e-02
      4564       4571      1  -0.111712   0.014340     3.00055e-01     6.91943e-02
      4563       4570      1   0.025511  -0.023412     3.00055e-01     6.91943e-02
      4563       4568      1   0.025511   0.006276     2.60142e-01     2.09200e-02
      4563       4569      1   0.025511   0.006276     2.60142e-01     2.09200e-02
      4642       4644      1   0.053944  -0.559638     2.78067e-01     9.58675e-02
      4642       4645      1   0.053944  -0.479574     2.80072e-01     8.62554e-02
      4641       4644      1   0.053944  -0.559638     2.78067e-01     9.58675e-02
      4641       4645      1   0.053944  -0.479574     2.80072e-01     8.62554e-02
      4639       4642      1   0.018859   0.044953     2.60142e-01     2.09200e-02
      4639       4641      1   0.018859   0.044953     2.60142e-01     2.09200e-02
      4639       4643      1   0.018859   0.758669     3.00055e-01     6.13495e-02
      4638       4642      1   0.018859   0.044953     2.60142e-01     2.09200e-02
      4638       4641      1   0.018859   0.044953     2.60142e-01     2.09200e-02
      4638       4643      1   0.018859   0.758669     3.00055e-01     6.13495e-02
      4636       4640      1   0.020431  -0.136833     3.00055e-01     6.91943e-02
      4636       4639      1   0.020431   0.015716     2.60142e-01     2.09200e-02
      4636       4638      1   0.020431   0.015716     2.60142e-01     2.09200e-02
      4635       4640      1   0.020431  -0.136833     3.00055e-01     6.91943e-02
      4635       4639      1   0.020431   0.015716     2.60142e-01     2.09200e-02
      4635       4638      1   0.020431   0.015716     2.60142e-01     2.09200e-02
      4634       4642      1  -0.026954   0.044953     3.00055e-01     6.91943e-02
      4634       4641      1  -0.026954   0.044953     3.00055e-01     6.91943e-02
      4633       4637      1   0.010573  -0.002029     3.00055e-01     6.91943e-02
      4633       4636      1   0.010573   0.017026     2.60142e-01     2.09200e-02
      4633       4635      1   0.010573   0.017026     2.60142e-01     2.09200e-02
      4632       4637      1   0.010573  -0.002029     3.00055e-01     6.91943e-02
      4632       4636      1   0.010573   0.017026     2.60142e-01     2.09200e-02
      4632       4635      1   0.010573   0.017026     2.60142e-01     2.09200e-02
      4631       4639      1  -0.016521   0.015716     3.00055e-01     6.91943e-02
      4631       4638      1  -0.016521   0.015716     3.00055e-01     6.91943e-02
      4630       4634      1   0.011511  -0.022462     3.00055e-01     6.91943e-02
      4630       4632      1   0.011511   0.008811     2.60142e-01     2.09200e-02
      4630       4633      1   0.011511   0.008811     2.60142e-01     2.09200e-02
      4629       4634      1   0.011511  -0.022462     3.00055e-01     6.91943e-02
      4629       4632      1   0.011511   0.008811     2.60142e-01     2.09200e-02
      4629       4633      1   0.011511   0.008811     2.60142e-01     2.09200e-02
      4628       4636      1  -0.027812   0.017026     3.00055e-01     6.91943e-02
      4628       4635      1  -0.027812   0.017026     3.00055e-01     6.91943e-02
      4627       4631      1   0.006833  -0.013767     3.00055e-01     6.91943e-02
      4627       4629      1   0.006833   0.009592     2.60142e-01     2.09200e-02
      4627       4630      1   0.006833   0.009592     2.60142e-01     2.09200e-02
      4626       4631      1   0.006833  -0.013767     3.00055e-01     6.91943e-02
      4626       4629      1   0.006833   0.009592     2.60142e-01     2.09200e-02
      4626       4630      1   0.006833   0.009592     2.60142e-01     2.09200e-02
      4625       4632      1  -0.004386   0.008811     3.00055e-01     6.91943e-02
      4625       4633      1  -0.004386   0.008811     3.00055e-01     6.91943e-02
      4624       4628      1   0.011241  -0.023177     3.00055e-01     6.91943e-02
      4624       4626      1   0.011241   0.005694     2.60142e-01     2.09200e-02
      4624       4627      1   0.011241   0.005694     2.60142e-01     2.09200e-02
      4623       4628      1   0.011241  -0.023177     3.00055e-01     6.91943e-02
      4623       4626      1   0.011241   0.005694     2.60142e-01     2.09200e-02
      4623       4627      1   0.011241   0.005694     2.60142e-01     2.09200e-02
      4622       4629      1  -0.026451   0.009592     3.00055e-01     6.91943e-02
      4622       4630      1  -0.026451   0.009592     3.00055e-01     6.91943e-02
      4621       4625      1   0.010172  -0.003655     3.00055e-01     6.91943e-02
      4621       4624      1   0.010172   0.009367     2.60142e-01     2.09200e-02
      4621       4623      1   0.010172   0.009367     2.60142e-01     2.09200e-02
      4620       4625      1   0.010172  -0.003655     3.00055e-01     6.91943e-02
      4620       4624      1   0.010172   0.009367     2.60142e-01     2.09200e-02
      4620       4623      1   0.010172   0.009367     2.60142e-01     2.09200e-02
      4619       4626      1  -0.014653   0.005694     3.00055e-01     6.91943e-02
      4619       4627      1  -0.014653   0.005694     3.00055e-01     6.91943e-02
      4618       4622      1   0.010037  -0.022042     3.00055e-01     6.91943e-02
      4618       4620      1   0.010037   0.008477     2.60142e-01     2.09200e-02
      4618       4621      1   0.010037   0.008477     2.60142e-01     2.09200e-02
      4617       4622      1   0.010037  -0.022042     3.00055e-01     6.91943e-02
      4617       4620      1   0.010037   0.008477     2.60142e-01     2.09200e-02
      4617       4621      1   0.010037   0.008477     2.60142e-01     2.09200e-02
      4616       4624      1  -0.021025   0.009367     3.00055e-01     6.91943e-02
      4616       4623      1  -0.021025   0.009367     3.00055e-01     6.91943e-02
      4615       4619      1   0.012677  -0.012211     3.00055e-01     6.91943e-02
      4615       4618      1   0.012677   0.008364     2.60142e-01     2.09200e-02
      4615       4617      1   0.012677   0.008364     2.60142e-01     2.09200e-02
      4614       4619      1   0.012677  -0.012211     3.00055e-01     6.91943e-02
      4614       4618      1   0.012677   0.008364     2.60142e-01     2.09200e-02
      4614       4617      1   0.012677   0.008364     2.60142e-01     2.09200e-02
      4613       4620      1  -0.031787   0.008477     3.00055e-01     6.91943e-02
      4613       4621      1  -0.031787   0.008477     3.00055e-01     6.91943e-02
      4612       4616      1   0.017208  -0.017521     3.00055e-01     6.91943e-02
      4612       4614      1   0.017208   0.010564     2.60142e-01     2.09200e-02
      4612       4615      1   0.017208   0.010564     2.60142e-01     2.09200e-02
      4611       4616      1   0.017208  -0.017521     3.00055e-01     6.91943e-02
      4611       4614      1   0.017208   0.010564     2.60142e-01     2.09200e-02
      4611       4615      1   0.017208   0.010564     2.60142e-01     2.09200e-02
      4610       4618      1  -0.028094   0.008364     3.00055e-01     6.91943e-02
      4610       4617      1  -0.028094   0.008364     3.00055e-01     6.91943e-02
      4609       4613      1   0.007531  -0.026489     3.00055e-01     6.91943e-02
      4609       4612      1   0.007531   0.014340     2.60142e-01     2.09200e-02
      4609       4611      1   0.007531   0.014340     2.60142e-01     2.09200e-02
      4608       4613      1   0.007531  -0.026489     3.00055e-01     6.91943e-02
      4608       4612      1   0.007531   0.014340     2.60142e-01     2.09200e-02
      4608       4611      1   0.007531   0.014340     2.60142e-01     2.09200e-02
      4607       4614      1   0.017463   0.010564     3.00055e-01     6.91943e-02
      4607       4615      1   0.017463   0.010564     3.00055e-01     6.91943e-02
      4606       4610      1   0.025511  -0.023412     3.00055e-01     6.91943e-02
      4606       4608      1   0.025511   0.006276     2.60142e-01     2.09200e-02
      4606       4609      1   0.025511   0.006276     2.60142e-01     2.09200e-02
      4605       4610      1   0.025511  -0.023412     3.00055e-01     6.91943e-02
      4605       4608      1   0.025511   0.006276     2.60142e-01     2.09200e-02
      4605       4609      1   0.025511   0.006276     2.60142e-01     2.09200e-02
      4604       4612      1  -0.111712   0.014340     3.00055e-01     6.91943e-02
      4604       4611      1  -0.111712   0.014340     3.00055e-01     6.91943e-02
      4603       4610      1   0.025511  -0.023412     3.00055e-01     6.91943e-02
      4603       4608      1   0.025511   0.006276     2.60142e-01     2.09200e-02
      4603       4609      1   0.025511   0.006276     2.60142e-01     2.09200e-02
      4680       4720      1  -0.673755   0.044953     2.78067e-01     9.58675e-02
      4680       4719      1  -0.673755   0.044953     2.78067e-01     9.58675e-02
      4679       4717      1   0.897613   0.015716     3.00055e-01     6.13495e-02
      4679       4716      1   0.897613   0.015716     3.00055e-01     6.13495e-02
      4678       4720      1  -0.552948   0.044953     2.80072e-01     8.62554e-02
      4678       4719      1  -0.552948   0.044953     2.80072e-01     8.62554e-02
      4671       4672      1   0.172230  -0.282478     2.67982e-01     8.67002e-02
      4670       4672      1   0.172230  -0.282478     2.67982e-01     8.67002e-02
      4669       4672      1   0.172230  -0.282478     2.67982e-01     8.67002e-02
      4668       4673      1  -0.338973   0.143525     2.67982e-01     8.67002e-02
      4668       4674      1  -0.338973   0.143525     2.67982e-01     8.67002e-02
      4668       4675      1  -0.338973   0.143525     2.67982e-01     8.67002e-02
      4667       4668      1   0.172230  -0.282478     2.67982e-01     8.67002e-02
      4667       4672      1   0.172230  -0.282478     2.67982e-01     8.67002e-02
      4666       4668      1   0.172230  -0.282478     2.67982e-01     8.67002e-02
      4666       4672      1   0.172230  -0.282478     2.67982e-01     8.67002e-02
      4665       4668      1   0.172230  -0.282478     2.67982e-01     8.67002e-02
      4665       4672      1   0.172230  -0.282478     2.67982e-01     8.67002e-02
      4664       4669      1  -0.338973   0.143525     2.67982e-01     8.67002e-02
      4664       4670      1  -0.338973   0.143525     2.67982e-01     8.67002e-02
      4664       4671      1  -0.338973   0.143525     2.67982e-01     8.67002e-02
      4664       4673      1  -0.338973   0.143525     2.67982e-01     8.67002e-02
      4664       4674      1  -0.338973   0.143525     2.67982e-01     8.67002e-02
      4664       4675      1  -0.338973   0.143525     2.67982e-01     8.67002e-02
      4662       4664      1   0.136415  -0.282478     2.67982e-01     8.67002e-02
      4662       4668      1   0.136415  -0.282478     2.67982e-01     8.67002e-02
      4662       4672      1   0.136415  -0.282478     2.67982e-01     8.67002e-02
      4661       4664      1   0.136415  -0.282478     2.67982e-01     8.67002e-02
      4661       4668      1   0.136415  -0.282478     2.67982e-01     8.67002e-02
      4661       4672      1   0.136415  -0.282478     2.67982e-01     8.67002e-02
      4660       4665      1  -0.170824   0.143525     2.67982e-01     8.67002e-02
      4660       4666      1  -0.170824   0.143525     2.67982e-01     8.67002e-02
      4660       4667      1  -0.170824   0.143525     2.67982e-01     8.67002e-02
      4660       4669      1  -0.170824   0.143525     2.67982e-01     8.67002e-02
      4660       4670      1  -0.170824   0.143525     2.67982e-01     8.67002e-02
      4660       4671      1  -0.170824   0.143525     2.67982e-01     8.67002e-02
      4660       4673      1  -0.170824   0.143525     2.67982e-01     8.67002e-02
      4660       4674      1  -0.170824   0.143525     2.67982e-01     8.67002e-02
      4660       4675      1  -0.170824   0.143525     2.67982e-01     8.67002e-02
      4659       4661      1   0.078534   0.113679     2.21567e-01     3.28444e-02
      4659       4662      1   0.078534   0.113679     2.21567e-01     3.28444e-02
      4659       4663      1   0.078534   0.204385     2.86068e-01     1.08078e-01
      4658       4661      1   0.078534   0.113679     2.21567e-01     3.28444e-02
      4658       4662      1   0.078534   0.113679     2.21567e-01     3.28444e-02
      4658       4663      1   0.078534   0.204385     2.86068e-01     1.08078e-01
      4656       4661      1  -0.508176   0.113679     2.47999e-01     1.08078e-01
      4656       4662      1  -0.508176   0.113679     2.47999e-01     1.08078e-01
      4655       4658      1   1.339721   0.065445     3.10656e-01     1.17227e-01
      4655       4659      1   1.339721   0.065445     3.10656e-01     1.17227e-01
      4653       4678      1   0.095591  -0.460790     2.73568e-01     1.08078e-01
      4653       4655      1   0.095591   1.116434     3.10656e-01     1.17227e-01
      4652       4678      1   0.095591  -0.460790     2.73568e-01     1.08078e-01
      4652       4655      1   0.095591   1.116434     3.10656e-01     1.17227e-01
      4650       4652      1   0.063253   0.079659     2.47135e-01     3.28444e-02
      4650       4653      1   0.063253   0.079659     2.47135e-01     3.28444e-02
      4650       4654      1   0.063253  -0.424567     2.73568e-01     1.08078e-01
      4650       4679      1   0.063253   0.748011     2.93551e-01     7.68707e-02
      4648       4650      1   0.070469   0.052711     2.47135e-01     3.28444e-02
      4648       4651      1   0.070469   0.014549     2.93551e-01     8.67002e-02
      4648       4678      1   0.070469  -0.460790     2.73568e-01     1.08078e-01
      4647       4650      1   0.070469   0.052711     2.47135e-01     3.28444e-02
      4647       4651      1   0.070469   0.014549     2.93551e-01     8.67002e-02
      4647       4678      1   0.070469  -0.460790     2.73568e-01     1.08078e-01
      4646       4652      1   0.196939   0.079659     2.93551e-01     8.67002e-02
      4646       4653      1   0.196939   0.079659     2.93551e-01     8.67002e-02
      4645       4650      1  -0.575489   0.052711     2.73568e-01     1.08078e-01
      4643       4647      1   0.910403   0.058724     2.93551e-01     7.68707e-02
      4643       4648      1   0.910403   0.058724     2.93551e-01     7.68707e-02
      4717       4720      1   0.018859   0.044953     2.60142e-01     2.09200e-02
      4717       4719      1   0.018859   0.044953     2.60142e-01     2.09200e-02
      4716       4720      1   0.018859   0.044953     2.60142e-01     2.09200e-02
      4716       4719      1   0.018859   0.044953     2.60142e-01     2.09200e-02
      4714       4718      1   0.020431  -0.136833     3.00055e-01     6.91943e-02
      4714       4717      1   0.020431   0.015716     2.60142e-01     2.09200e-02
      4714       4716      1   0.020431   0.015716     2.60142e-01     2.09200e-02
      4713       4718      1   0.020431  -0.136833     3.00055e-01     6.91943e-02
      4713       4717      1   0.020431   0.015716     2.60142e-01     2.09200e-02
      4713       4716      1   0.020431   0.015716     2.60142e-01     2.09200e-02
      4712       4720      1  -0.026954   0.044953     3.00055e-01     6.91943e-02
      4712       4719      1  -0.026954   0.044953     3.00055e-01     6.91943e-02
      4711       4715      1   0.010573  -0.002029     3.00055e-01     6.91943e-02
      4711       4714      1   0.010573   0.017026     2.60142e-01     2.09200e-02
      4711       4713      1   0.010573   0.017026     2.60142e-01     2.09200e-02
      4710       4715      1   0.010573  -0.002029     3.00055e-01     6.91943e-02
      4710       4714      1   0.010573   0.017026     2.60142e-01     2.09200e-02
      4710       4713      1   0.010573   0.017026     2.60142e-01     2.09200e-02
      4709       4717      1  -0.016521   0.015716     3.00055e-01     6.91943e-02
      4709       4716      1  -0.016521   0.015716     3.00055e-01     6.91943e-02
      4708       4712      1   0.011511  -0.022462     3.00055e-01     6.91943e-02
      4708       4710      1   0.011511   0.008811     2.60142e-01     2.09200e-02
      4708       4711      1   0.011511   0.008811     2.60142e-01     2.09200e-02
      4707       4712      1   0.011511  -0.022462     3.00055e-01     6.91943e-02
      4707       4710      1   0.011511   0.008811     2.60142e-01     2.09200e-02
      4707       4711      1   0.011511   0.008811     2.60142e-01     2.09200e-02
      4706       4714      1  -0.027812   0.017026     3.00055e-01     6.91943e-02
      4706       4713      1  -0.027812   0.017026     3.00055e-01     6.91943e-02
      4705       4709      1   0.006833  -0.013767     3.00055e-01     6.91943e-02
      4705       4707      1   0.006833   0.009592     2.60142e-01     2.09200e-02
      4705       4708      1   0.006833   0.009592     2.60142e-01     2.09200e-02
      4704       4709      1   0.006833  -0.013767     3.00055e-01     6.91943e-02
      4704       4707      1   0.006833   0.009592     2.60142e-01     2.09200e-02
      4704       4708      1   0.006833   0.009592     2.60142e-01     2.09200e-02
      4703       4710      1  -0.004386   0.008811     3.00055e-01     6.91943e-02
      4703       4711      1  -0.004386   0.008811     3.00055e-01     6.91943e-02
      4702       4706      1   0.011241  -0.023177     3.00055e-01     6.91943e-02
      4702       4704      1   0.011241   0.005694     2.60142e-01     2.09200e-02
      4702       4705      1   0.011241   0.005694     2.60142e-01     2.09200e-02
      4701       4706      1   0.011241  -0.023177     3.00055e-01     6.91943e-02
      4701       4704      1   0.011241   0.005694     2.60142e-01     2.09200e-02
      4701       4705      1   0.011241   0.005694     2.60142e-01     2.09200e-02
      4700       4707      1  -0.026451   0.009592     3.00055e-01     6.91943e-02
      4700       4708      1  -0.026451   0.009592     3.00055e-01     6.91943e-02
      4699       4703      1   0.010172  -0.003655     3.00055e-01     6.91943e-02
      4699       4702      1   0.010172   0.009367     2.60142e-01     2.09200e-02
      4699       4701      1   0.010172   0.009367     2.60142e-01     2.09200e-02
      4698       4703      1   0.010172  -0.003655     3.00055e-01     6.91943e-02
      4698       4702      1   0.010172   0.009367     2.60142e-01     2.09200e-02
      4698       4701      1   0.010172   0.009367     2.60142e-01     2.09200e-02
      4697       4704      1  -0.014653   0.005694     3.00055e-01     6.91943e-02
      4697       4705      1  -0.014653   0.005694     3.00055e-01     6.91943e-02
      4696       4700      1   0.010037  -0.022042     3.00055e-01     6.91943e-02
      4696       4698      1   0.010037   0.008477     2.60142e-01     2.09200e-02
      4696       4699      1   0.010037   0.008477     2.60142e-01     2.09200e-02
      4695       4700      1   0.010037  -0.022042     3.00055e-01     6.91943e-02
      4695       4698      1   0.010037   0.008477     2.60142e-01     2.09200e-02
      4695       4699      1   0.010037   0.008477     2.60142e-01     2.09200e-02
      4694       4702      1  -0.021025   0.009367     3.00055e-01     6.91943e-02
      4694       4701      1  -0.021025   0.009367     3.00055e-01     6.91943e-02
      4693       4697      1   0.012677  -0.012211     3.00055e-01     6.91943e-02
      4693       4696      1   0.012677   0.008364     2.60142e-01     2.09200e-02
      4693       4695      1   0.012677   0.008364     2.60142e-01     2.09200e-02
      4692       4697      1   0.012677  -0.012211     3.00055e-01     6.91943e-02
      4692       4696      1   0.012677   0.008364     2.60142e-01     2.09200e-02
      4692       4695      1   0.012677   0.008364     2.60142e-01     2.09200e-02
      4691       4698      1  -0.031787   0.008477     3.00055e-01     6.91943e-02
      4691       4699      1  -0.031787   0.008477     3.00055e-01     6.91943e-02
      4690       4694      1   0.017208  -0.017521     3.00055e-01     6.91943e-02
      4690       4692      1   0.017208   0.010564     2.60142e-01     2.09200e-02
      4690       4693      1   0.017208   0.010564     2.60142e-01     2.09200e-02
      4689       4694      1   0.017208  -0.017521     3.00055e-01     6.91943e-02
      4689       4692      1   0.017208   0.010564     2.60142e-01     2.09200e-02
      4689       4693      1   0.017208   0.010564     2.60142e-01     2.09200e-02
      4688       4696      1  -0.028094   0.008364     3.00055e-01     6.91943e-02
      4688       4695      1  -0.028094   0.008364     3.00055e-01     6.91943e-02
      4687       4691      1   0.007531  -0.026489     3.00055e-01     6.91943e-02
      4687       4690      1   0.007531   0.014340     2.60142e-01     2.09200e-02
      4687       4689      1   0.007531   0.014340     2.60142e-01     2.09200e-02
      4686       4691      1   0.007531  -0.026489     3.00055e-01     6.91943e-02
      4686       4690      1   0.007531   0.014340     2.60142e-01     2.09200e-02
      4686       4689      1   0.007531   0.014340     2.60142e-01     2.09200e-02
      4685       4692      1   0.017463   0.010564     3.00055e-01     6.91943e-02
      4685       4693      1   0.017463   0.010564     3.00055e-01     6.91943e-02
      4684       4688      1   0.025511  -0.023412     3.00055e-01     6.91943e-02
      4684       4686      1   0.025511   0.006276     2.60142e-01     2.09200e-02
      4684       4687      1   0.025511   0.006276     2.60142e-01     2.09200e-02
      4683       4688      1   0.025511  -0.023412     3.00055e-01     6.91943e-02
      4683       4686      1   0.025511   0.006276     2.60142e-01     2.09200e-02
      4683       4687      1   0.025511   0.006276     2.60142e-01     2.09200e-02
      4682       4690      1  -0.111712   0.014340     3.00055e-01     6.91943e-02
      4682       4689      1  -0.111712   0.014340     3.00055e-01     6.91943e-02
      4681       4688      1   0.025511  -0.023412     3.00055e-01     6.91943e-02
      4681       4686      1   0.025511   0.006276     2.60142e-01     2.09200e-02
      4681       4687      1   0.025511   0.006276     2.60142e-01     2.09200e-02
      4760       4762      1   0.053944  -0.559638     2.78067e-01     9.58675e-02
      4760       4763      1   0.053944  -0.479574     2.80072e-01     8.62554e-02
      4759       4762      1   0.053944  -0.559638     2.78067e-01     9.58675e-02
      4759       4763      1   0.053944  -0.479574     2.80072e-01     8.62554e-02
      4757       4760      1   0.018859   0.044953     2.60142e-01     2.09200e-02
      4757       4759      1   0.018859   0.044953     2.60142e-01     2.09200e-02
      4757       4761      1   0.018859   0.758669     3.00055e-01     6.13495e-02
      4756       4760      1   0.018859   0.044953     2.60142e-01     2.09200e-02
      4756       4759      1   0.018859   0.044953     2.60142e-01     2.09200e-02
      4756       4761      1   0.018859   0.758669     3.00055e-01     6.13495e-02
      4754       4758      1   0.020431  -0.136833     3.00055e-01     6.91943e-02
      4754       4757      1   0.020431   0.015716     2.60142e-01     2.09200e-02
      4754       4756      1   0.020431   0.015716     2.60142e-01     2.09200e-02
      4753       4758      1   0.020431  -0.136833     3.00055e-01     6.91943e-02
      4753       4757      1   0.020431   0.015716     2.60142e-01     2.09200e-02
      4753       4756      1   0.020431   0.015716     2.60142e-01     2.09200e-02
      4752       4760      1  -0.026954   0.044953     3.00055e-01     6.91943e-02
      4752       4759      1  -0.026954   0.044953     3.00055e-01     6.91943e-02
      4751       4755      1   0.010573  -0.002029     3.00055e-01     6.91943e-02
      4751       4754      1   0.010573   0.017026     2.60142e-01     2.09200e-02
      4751       4753      1   0.010573   0.017026     2.60142e-01     2.09200e-02
      4750       4755      1   0.010573  -0.002029     3.00055e-01     6.91943e-02
      4750       4754      1   0.010573   0.017026     2.60142e-01     2.09200e-02
      4750       4753      1   0.010573   0.017026     2.60142e-01     2.09200e-02
      4749       4757      1  -0.016521   0.015716     3.00055e-01     6.91943e-02
      4749       4756      1  -0.016521   0.015716     3.00055e-01     6.91943e-02
      4748       4752      1   0.011511  -0.022462     3.00055e-01     6.91943e-02
      4748       4750      1   0.011511   0.008811     2.60142e-01     2.09200e-02
      4748       4751      1   0.011511   0.008811     2.60142e-01     2.09200e-02
      4747       4752      1   0.011511  -0.022462     3.00055e-01     6.91943e-02
      4747       4750      1   0.011511   0.008811     2.60142e-01     2.09200e-02
      4747       4751      1   0.011511   0.008811     2.60142e-01     2.09200e-02
      4746       4754      1  -0.027812   0.017026     3.00055e-01     6.91943e-02
      4746       4753      1  -0.027812   0.017026     3.00055e-01     6.91943e-02
      4745       4749      1   0.006833  -0.013767     3.00055e-01     6.91943e-02
      4745       4747      1   0.006833   0.009592     2.60142e-01     2.09200e-02
      4745       4748      1   0.006833   0.009592     2.60142e-01     2.09200e-02
      4744       4749      1   0.006833  -0.013767     3.00055e-01     6.91943e-02
      4744       4747      1   0.006833   0.009592     2.60142e-01     2.09200e-02
      4744       4748      1   0.006833   0.009592     2.60142e-01     2.09200e-02
      4743       4750      1  -0.004386   0.008811     3.00055e-01     6.91943e-02
      4743       4751      1  -0.004386   0.008811     3.00055e-01     6.91943e-02
      4742       4746      1   0.011241  -0.023177     3.00055e-01     6.91943e-02
      4742       4744      1   0.011241   0.005694     2.60142e-01     2.09200e-02
      4742       4745      1   0.011241   0.005694     2.60142e-01     2.09200e-02
      4741       4746      1   0.011241  -0.023177     3.00055e-01     6.91943e-02
      4741       4744      1   0.011241   0.005694     2.60142e-01     2.09200e-02
      4741       4745      1   0.011241   0.005694     2.60142e-01     2.09200e-02
      4740       4747      1  -0.026451   0.009592     3.00055e-01     6.91943e-02
      4740       4748      1  -0.026451   0.009592     3.00055e-01     6.91943e-02
      4739       4743      1   0.010172  -0.003655     3.00055e-01     6.91943e-02
      4739       4742      1   0.010172   0.009367     2.60142e-01     2.09200e-02
      4739       4741      1   0.010172   0.009367     2.60142e-01     2.09200e-02
      4738       4743      1   0.010172  -0.003655     3.00055e-01     6.91943e-02
      4738       4742      1   0.010172   0.009367     2.60142e-01     2.09200e-02
      4738       4741      1   0.010172   0.009367     2.60142e-01     2.09200e-02
      4737       4744      1  -0.014653   0.005694     3.00055e-01     6.91943e-02
      4737       4745      1  -0.014653   0.005694     3.00055e-01     6.91943e-02
      4736       4740      1   0.010037  -0.022042     3.00055e-01     6.91943e-02
      4736       4738      1   0.010037   0.008477     2.60142e-01     2.09200e-02
      4736       4739      1   0.010037   0.008477     2.60142e-01     2.09200e-02
      4735       4740      1   0.010037  -0.022042     3.00055e-01     6.91943e-02
      4735       4738      1   0.010037   0.008477     2.60142e-01     2.09200e-02
      4735       4739      1   0.010037   0.008477     2.60142e-01     2.09200e-02
      4734       4742      1  -0.021025   0.009367     3.00055e-01     6.91943e-02
      4734       4741      1  -0.021025   0.009367     3.00055e-01     6.91943e-02
      4733       4737      1   0.012677  -0.012211     3.00055e-01     6.91943e-02
      4733       4736      1   0.012677   0.008364     2.60142e-01     2.09200e-02
      4733       4735      1   0.012677   0.008364     2.60142e-01     2.09200e-02
      4732       4737      1   0.012677  -0.012211     3.00055e-01     6.91943e-02
      4732       4736      1   0.012677   0.008364     2.60142e-01     2.09200e-02
      4732       4735      1   0.012677   0.008364     2.60142e-01     2.09200e-02
      4731       4738      1  -0.031787   0.008477     3.00055e-01     6.91943e-02
      4731       4739      1  -0.031787   0.008477     3.00055e-01     6.91943e-02
      4730       4734      1   0.017208  -0.017521     3.00055e-01     6.91943e-02
      4730       4732      1   0.017208   0.010564     2.60142e-01     2.09200e-02
      4730       4733      1   0.017208   0.010564     2.60142e-01     2.09200e-02
      4729       4734      1   0.017208  -0.017521     3.00055e-01     6.91943e-02
      4729       4732      1   0.017208   0.010564     2.60142e-01     2.09200e-02
      4729       4733      1   0.017208   0.010564     2.60142e-01     2.09200e-02
      4728       4736      1  -0.028094   0.008364     3.00055e-01     6.91943e-02
      4728       4735      1  -0.028094   0.008364     3.00055e-01     6.91943e-02
      4727       4731      1   0.007531  -0.026489     3.00055e-01     6.91943e-02
      4727       4730      1   0.007531   0.014340     2.60142e-01     2.09200e-02
      4727       4729      1   0.007531   0.014340     2.60142e-01     2.09200e-02
      4726       4731      1   0.007531  -0.026489     3.00055e-01     6.91943e-02
      4726       4730      1   0.007531   0.014340     2.60142e-01     2.09200e-02
      4726       4729      1   0.007531   0.014340     2.60142e-01     2.09200e-02
      4725       4732      1   0.017463   0.010564     3.00055e-01     6.91943e-02
      4725       4733      1   0.017463   0.010564     3.00055e-01     6.91943e-02
      4724       4728      1   0.025511  -0.023412     3.00055e-01     6.91943e-02
      4724       4726      1   0.025511   0.006276     2.60142e-01     2.09200e-02
      4724       4727      1   0.025511   0.006276     2.60142e-01     2.09200e-02
      4723       4728      1   0.025511  -0.023412     3.00055e-01     6.91943e-02
      4723       4726      1   0.025511   0.006276     2.60142e-01     2.09200e-02
      4723       4727      1   0.025511   0.006276     2.60142e-01     2.09200e-02
      4722       4730      1  -0.111712   0.014340     3.00055e-01     6.91943e-02
      4722       4729      1  -0.111712   0.014340     3.00055e-01     6.91943e-02
      4721       4728      1   0.025511  -0.023412     3.00055e-01     6.91943e-02
      4721       4726      1   0.025511   0.006276     2.60142e-01     2.09200e-02
      4721       4727      1   0.025511   0.006276     2.60142e-01     2.09200e-02
      4798       4838      1  -0.673755   0.044953     2.78067e-01     9.58675e-02
      4798       4837      1  -0.673755   0.044953     2.78067e-01     9.58675e-02
      4797       4835      1   0.897613   0.015716     3.00055e-01     6.13495e-02
      4797       4834      1   0.897613   0.015716     3.00055e-01     6.13495e-02
      4796       4838      1  -0.552948   0.044953     2.80072e-01     8.62554e-02
      4796       4837      1  -0.552948   0.044953     2.80072e-01     8.62554e-02
      4789       4790      1   0.172230  -0.282478     2.67982e-01     8.67002e-02
      4788       4790      1   0.172230  -0.282478     2.67982e-01     8.67002e-02
      4787       4790      1   0.172230  -0.282478     2.67982e-01     8.67002e-02
      4786       4791      1  -0.338973   0.143525     2.67982e-01     8.67002e-02
      4786       4792      1  -0.338973   0.143525     2.67982e-01     8.67002e-02
      4786       4793      1  -0.338973   0.143525     2.67982e-01     8.67002e-02
      4785       4786      1   0.172230  -0.282478     2.67982e-01     8.67002e-02
      4785       4790      1   0.172230  -0.282478     2.67982e-01     8.67002e-02
      4784       4786      1   0.172230  -0.282478     2.67982e-01     8.67002e-02
      4784       4790      1   0.172230  -0.282478     2.67982e-01     8.67002e-02
      4783       4786      1   0.172230  -0.282478     2.67982e-01     8.67002e-02
      4783       4790      1   0.172230  -0.282478     2.67982e-01     8.67002e-02
      4782       4787      1  -0.338973   0.143525     2.67982e-01     8.67002e-02
      4782       4788      1  -0.338973   0.143525     2.67982e-01     8.67002e-02
      4782       4789      1  -0.338973   0.143525     2.67982e-01     8.67002e-02
      4782       4791      1  -0.338973   0.143525     2.67982e-01     8.67002e-02
      4782       4792      1  -0.338973   0.143525     2.67982e-01     8.67002e-02
      4782       4793      1  -0.338973   0.143525     2.67982e-01     8.67002e-02
      4780       4782      1   0.136415  -0.282478     2.67982e-01     8.67002e-02
      4780       4786      1   0.136415  -0.282478     2.67982e-01     8.67002e-02
      4780       4790      1   0.136415  -0.282478     2.67982e-01     8.67002e-02
      4779       4782      1   0.136415  -0.282478     2.67982e-01     8.67002e-02
      4779       4786      1   0.136415  -0.282478     2.67982e-01     8.67002e-02
      4779       4790      1   0.136415  -0.282478     2.67982e-01     8.67002e-02
      4778       4783      1  -0.170824   0.143525     2.67982e-01     8.67002e-02
      4778       4784      1  -0.170824   0.143525     2.67982e-01     8.67002e-02
      4778       4785      1  -0.170824   0.143525     2.67982e-01     8.67002e-02
      4778       4787      1  -0.170824   0.143525     2.67982e-01     8.67002e-02
      4778       4788      1  -0.170824   0.143525     2.67982e-01     8.67002e-02
      4778       4789      1  -0.170824   0.143525     2.67982e-01     8.67002e-02
      4778       4791      1  -0.170824   0.143525     2.67982e-01     8.67002e-02
      4778       4792      1  -0.170824   0.143525     2.67982e-01     8.67002e-02
      4778       4793      1  -0.170824   0.143525     2.67982e-01     8.67002e-02
      4777       4779      1   0.078534   0.113679     2.21567e-01     3.28444e-02
      4777       4780      1   0.078534   0.113679     2.21567e-01     3.28444e-02
      4777       4781      1   0.078534   0.204385     2.86068e-01     1.08078e-01
      4776       4779      1   0.078534   0.113679     2.21567e-01     3.28444e-02
      4776       4780      1   0.078534   0.113679     2.21567e-01     3.28444e-02
      4776       4781      1   0.078534   0.204385     2.86068e-01     1.08078e-01
      4774       4779      1  -0.508176   0.113679     2.47999e-01     1.08078e-01
      4774       4780      1  -0.508176   0.113679     2.47999e-01     1.08078e-01
      4773       4776      1   1.339721   0.065445     3.10656e-01     1.17227e-01
      4773       4777      1   1.339721   0.065445     3.10656e-01     1.17227e-01
      4771       4796      1   0.095591  -0.460790     2.73568e-01     1.08078e-01
      4771       4773      1   0.095591   1.116434     3.10656e-01     1.17227e-01
      4770       4796      1   0.095591  -0.460790     2.73568e-01     1.08078e-01
      4770       4773      1   0.095591   1.116434     3.10656e-01     1.17227e-01
      4768       4770      1   0.063253   0.079659     2.47135e-01     3.28444e-02
      4768       4771      1   0.063253   0.079659     2.47135e-01     3.28444e-02
      4768       4772      1   0.063253  -0.424567     2.73568e-01     1.08078e-01
      4768       4797      1   0.063253   0.748011     2.93551e-01     7.68707e-02
      4766       4768      1   0.070469   0.052711     2.47135e-01     3.28444e-02
      4766       4769      1   0.070469   0.014549     2.93551e-01     8.67002e-02
      4766       4796      1   0.070469  -0.460790     2.73568e-01     1.08078e-01
      4765       4768      1   0.070469   0.052711     2.47135e-01     3.28444e-02
      4765       4769      1   0.070469   0.014549     2.93551e-01     8.67002e-02
      4765       4796      1   0.070469  -0.460790     2.73568e-01     1.08078e-01
      4764       4770      1   0.196939   0.079659     2.93551e-01     8.67002e-02
      4764       4771      1   0.196939   0.079659     2.93551e-01     8.67002e-02
      4763       4768      1  -0.575489   0.052711     2.73568e-01     1.08078e-01
      4761       4765      1   0.910403   0.058724     2.93551e-01     7.68707e-02
      4761       4766      1   0.910403   0.058724     2.93551e-01     7.68707e-02
      4835       4838      1   0.018859   0.044953     2.60142e-01     2.09200e-02
      4835       4837      1   0.018859   0.044953     2.60142e-01     2.09200e-02
      4834       4838      1   0.018859   0.044953     2.60142e-01     2.09200e-02
      4834       4837      1   0.018859   0.044953     2.60142e-01     2.09200e-02
      4832       4836      1   0.020431  -0.136833     3.00055e-01     6.91943e-02
      4832       4835      1   0.020431   0.015716     2.60142e-01     2.09200e-02
      4832       4834      1   0.020431   0.015716     2.60142e-01     2.09200e-02
      4831       4836      1   0.020431  -0.136833     3.00055e-01     6.91943e-02
      4831       4835      1   0.020431   0.015716     2.60142e-01     2.09200e-02
      4831       4834      1   0.020431   0.015716     2.60142e-01     2.09200e-02
      4830       4838      1  -0.026954   0.044953     3.00055e-01     6.91943e-02
      4830       4837      1  -0.026954   0.044953     3.00055e-01     6.91943e-02
      4829       4833      1   0.010573  -0.002029     3.00055e-01     6.91943e-02
      4829       4832      1   0.010573   0.017026     2.60142e-01     2.09200e-02
      4829       4831      1   0.010573   0.017026     2.60142e-01     2.09200e-02
      4828       4833      1   0.010573  -0.002029     3.00055e-01     6.91943e-02
      4828       4832      1   0.010573   0.017026     2.60142e-01     2.09200e-02
      4828       4831      1   0.010573   0.017026     2.60142e-01     2.09200e-02
      4827       4835      1  -0.016521   0.015716     3.00055e-01     6.91943e-02
      4827       4834      1  -0.016521   0.015716     3.00055e-01     6.91943e-02
      4826       4830      1   0.011511  -0.022462     3.00055e-01     6.91943e-02
      4826       4828      1   0.011511   0.008811     2.60142e-01     2.09200e-02
      4826       4829      1   0.011511   0.008811     2.60142e-01     2.09200e-02
      4825       4830      1   0.011511  -0.022462     3.00055e-01     6.91943e-02
      4825       4828      1   0.011511   0.008811     2.60142e-01     2.09200e-02
      4825       4829      1   0.011511   0.008811     2.60142e-01     2.09200e-02
      4824       4832      1  -0.027812   0.017026     3.00055e-01     6.91943e-02
      4824       4831      1  -0.027812   0.017026     3.00055e-01     6.91943e-02
      4823       4827      1   0.006833  -0.013767     3.00055e-01     6.91943e-02
      4823       4825      1   0.006833   0.009592     2.60142e-01     2.09200e-02
      4823       4826      1   0.006833   0.009592     2.60142e-01     2.09200e-02
      4822       4827      1   0.006833  -0.013767     3.00055e-01     6.91943e-02
      4822       4825      1   0.006833   0.009592     2.60142e-01     2.09200e-02
      4822       4826      1   0.006833   0.009592     2.60142e-01     2.09200e-02
      4821       4828      1  -0.004386   0.008811     3.00055e-01     6.91943e-02
      4821       4829      1  -0.004386   0.008811     3.00055e-01     6.91943e-02
      4820       4824      1   0.011241  -0.023177     3.00055e-01     6.91943e-02
      4820       4822      1   0.011241   0.005694     2.60142e-01     2.09200e-02
      4820       4823      1   0.011241   0.005694     2.60142e-01     2.09200e-02
      4819       4824      1   0.011241  -0.023177     3.00055e-01     6.91943e-02
      4819       4822      1   0.011241   0.005694     2.60142e-01     2.09200e-02
      4819       4823      1   0.011241   0.005694     2.60142e-01     2.09200e-02
      4818       4825      1  -0.026451   0.009592     3.00055e-01     6.91943e-02
      4818       4826      1  -0.026451   0.009592     3.00055e-01     6.91943e-02
      4817       4821      1   0.010172  -0.003655     3.00055e-01     6.91943e-02
      4817       4820      1   0.010172   0.009367     2.60142e-01     2.09200e-02
      4817       4819      1   0.010172   0.009367     2.60142e-01     2.09200e-02
      4816       4821      1   0.010172  -0.003655     3.00055e-01     6.91943e-02
      4816       4820      1   0.010172   0.009367     2.60142e-01     2.09200e-02
      4816       4819      1   0.010172   0.009367     2.60142e-01     2.09200e-02
      4815       4822      1  -0.014653   0.005694     3.00055e-01     6.91943e-02
      4815       4823      1  -0.014653   0.005694     3.00055e-01     6.91943e-02
      4814       4818      1   0.010037  -0.022042     3.00055e-01     6.91943e-02
      4814       4816      1   0.010037   0.008477     2.60142e-01     2.09200e-02
      4814       4817      1   0.010037   0.008477     2.60142e-01     2.09200e-02
      4813       4818      1   0.010037  -0.022042     3.00055e-01     6.91943e-02
      4813       4816      1   0.010037   0.008477     2.60142e-01     2.09200e-02
      4813       4817      1   0.010037   0.008477     2.60142e-01     2.09200e-02
      4812       4820      1  -0.021025   0.009367     3.00055e-01     6.91943e-02
      4812       4819      1  -0.021025   0.009367     3.00055e-01     6.91943e-02
      4811       4815      1   0.012677  -0.012211     3.00055e-01     6.91943e-02
      4811       4814      1   0.012677   0.008364     2.60142e-01     2.09200e-02
      4811       4813      1   0.012677   0.008364     2.60142e-01     2.09200e-02
      4810       4815      1   0.012677  -0.012211     3.00055e-01     6.91943e-02
      4810       4814      1   0.012677   0.008364     2.60142e-01     2.09200e-02
      4810       4813      1   0.012677   0.008364     2.60142e-01     2.09200e-02
      4809       4816      1  -0.031787   0.008477     3.00055e-01     6.91943e-02
      4809       4817      1  -0.031787   0.008477     3.00055e-01     6.91943e-02
      4808       4812      1   0.017208  -0.017521     3.00055e-01     6.91943e-02
      4808       4810      1   0.017208   0.010564     2.60142e-01     2.09200e-02
      4808       4811      1   0.017208   0.010564     2.60142e-01     2.09200e-02
      4807       4812      1   0.017208  -0.017521     3.00055e-01     6.91943e-02
      4807       4810      1   0.017208   0.010564     2.60142e-01     2.09200e-02
      4807       4811      1   0.017208   0.010564     2.60142e-01     2.09200e-02
      4806       4814      1  -0.028094   0.008364     3.00055e-01     6.91943e-02
      4806       4813      1  -0.028094   0.008364     3.00055e-01     6.91943e-02
      4805       4809      1   0.007531  -0.026489     3.00055e-01     6.91943e-02
      4805       4808      1   0.007531   0.014340     2.60142e-01     2.09200e-02
      4805       4807      1   0.007531   0.014340     2.60142e-01     2.09200e-02
      4804       4809      1   0.007531  -0.026489     3.00055e-01     6.91943e-02
      4804       4808      1   0.007531   0.014340     2.60142e-01     2.09200e-02
      4804       4807      1   0.007531   0.014340     2.60142e-01     2.09200e-02
      4803       4810      1   0.017463   0.010564     3.00055e-01     6.91943e-02
      4803       4811      1   0.017463   0.010564     3.00055e-01     6.91943e-02
      4802       4806      1   0.025511  -0.023412     3.00055e-01     6.91943e-02
      4802       4804      1   0.025511   0.006276     2.60142e-01     2.09200e-02
      4802       4805      1   0.025511   0.006276     2.60142e-01     2.09200e-02
      4801       4806      1   0.025511  -0.023412     3.00055e-01     6.91943e-02
      4801       4804      1   0.025511   0.006276     2.60142e-01     2.09200e-02
      4801       4805      1   0.025511   0.006276     2.60142e-01     2.09200e-02
      4800       4808      1  -0.111712   0.014340     3.00055e-01     6.91943e-02
      4800       4807      1  -0.111712   0.014340     3.00055e-01     6.91943e-02
      4799       4806      1   0.025511  -0.023412     3.00055e-01     6.91943e-02
      4799       4804      1   0.025511   0.006276     2.60142e-01     2.09200e-02
      4799       4805      1   0.025511   0.006276     2.60142e-01     2.09200e-02
      4878       4880      1   0.053944  -0.559638     2.78067e-01     9.58675e-02
      4878       4881      1   0.053944  -0.479574     2.80072e-01     8.62554e-02
      4877       4880      1   0.053944  -0.559638     2.78067e-01     9.58675e-02
      4877       4881      1   0.053944  -0.479574     2.80072e-01     8.62554e-02
      4875       4878      1   0.018859   0.044953     2.60142e-01     2.09200e-02
      4875       4877      1   0.018859   0.044953     2.60142e-01     2.09200e-02
      4875       4879      1   0.018859   0.758669     3.00055e-01     6.13495e-02
      4874       4878      1   0.018859   0.044953     2.60142e-01     2.09200e-02
      4874       4877      1   0.018859   0.044953     2.60142e-01     2.09200e-02
      4874       4879      1   0.018859   0.758669     3.00055e-01     6.13495e-02
      4872       4876      1   0.020431  -0.136833     3.00055e-01     6.91943e-02
      4872       4875      1   0.020431   0.015716     2.60142e-01     2.09200e-02
      4872       4874      1   0.020431   0.015716     2.60142e-01     2.09200e-02
      4871       4876      1   0.020431  -0.136833     3.00055e-01     6.91943e-02
      4871       4875      1   0.020431   0.015716     2.60142e-01     2.09200e-02
      4871       4874      1   0.020431   0.015716     2.60142e-01     2.09200e-02
      4870       4878      1  -0.026954   0.044953     3.00055e-01     6.91943e-02
      4870       4877      1  -0.026954   0.044953     3.00055e-01     6.91943e-02
      4869       4873      1   0.010573  -0.002029     3.00055e-01     6.91943e-02
      4869       4872      1   0.010573   0.017026     2.60142e-01     2.09200e-02
      4869       4871      1   0.010573   0.017026     2.60142e-01     2.09200e-02
      4868       4873      1   0.010573  -0.002029     3.00055e-01     6.91943e-02
      4868       4872      1   0.010573   0.017026     2.60142e-01     2.09200e-02
      4868       4871      1   0.010573   0.017026     2.60142e-01     2.09200e-02
      4867       4875      1  -0.016521   0.015716     3.00055e-01     6.91943e-02
      4867       4874      1  -0.016521   0.015716     3.00055e-01     6.91943e-02
      4866       4870      1   0.011511  -0.022462     3.00055e-01     6.91943e-02
      4866       4868      1   0.011511   0.008811     2.60142e-01     2.09200e-02
      4866       4869      1   0.011511   0.008811     2.60142e-01     2.09200e-02
      4865       4870      1   0.011511  -0.022462     3.00055e-01     6.91943e-02
      4865       4868      1   0.011511   0.008811     2.60142e-01     2.09200e-02
      4865       4869      1   0.011511   0.008811     2.60142e-01     2.09200e-02
      4864       4872      1  -0.027812   0.017026     3.00055e-01     6.91943e-02
      4864       4871      1  -0.027812   0.017026     3.00055e-01     6.91943e-02
      4863       4867      1   0.006833  -0.013767     3.00055e-01     6.91943e-02
      4863       4865      1   0.006833   0.009592     2.60142e-01     2.09200e-02
      4863       4866      1   0.006833   0.009592     2.60142e-01     2.09200e-02
      4862       4867      1   0.006833  -0.013767     3.00055e-01     6.91943e-02
      4862       4865      1   0.006833   0.009592     2.60142e-01     2.09200e-02
      4862       4866      1   0.006833   0.009592     2.60142e-01     2.09200e-02
      4861       4868      1  -0.004386   0.008811     3.00055e-01     6.91943e-02
      4861       4869      1  -0.004386   0.008811     3.00055e-01     6.91943e-02
      4860       4864      1   0.011241  -0.023177     3.00055e-01     6.91943e-02
      4860       4862      1   0.011241   0.005694     2.60142e-01     2.09200e-02
      4860       4863      1   0.011241   0.005694     2.60142e-01     2.09200e-02
      4859       4864      1   0.011241  -0.023177     3.00055e-01     6.91943e-02
      4859       4862      1   0.011241   0.005694     2.60142e-01     2.09200e-02
      4859       4863      1   0.011241   0.005694     2.60142e-01     2.09200e-02
      4858       4865      1  -0.026451   0.009592     3.00055e-01     6.91943e-02
      4858       4866      1  -0.026451   0.009592     3.00055e-01     6.91943e-02
      4857       4861      1   0.010172  -0.003655     3.00055e-01     6.91943e-02
      4857       4860      1   0.010172   0.009367     2.60142e-01     2.09200e-02
      4857       4859      1   0.010172   0.009367     2.60142e-01     2.09200e-02
      4856       4861      1   0.010172  -0.003655     3.00055e-01     6.91943e-02
      4856       4860      1   0.010172   0.009367     2.60142e-01     2.09200e-02
      4856       4859      1   0.010172   0.009367     2.60142e-01     2.09200e-02
      4855       4862      1  -0.014653   0.005694     3.00055e-01     6.91943e-02
      4855       4863      1  -0.014653   0.005694     3.00055e-01     6.91943e-02
      4854       4858      1   0.010037  -0.022042     3.00055e-01     6.91943e-02
      4854       4856      1   0.010037   0.008477     2.60142e-01     2.09200e-02
      4854       4857      1   0.010037   0.008477     2.60142e-01     2.09200e-02
      4853       4858      1   0.010037  -0.022042     3.00055e-01     6.91943e-02
      4853       4856      1   0.010037   0.008477     2.60142e-01     2.09200e-02
      4853       4857      1   0.010037   0.008477     2.60142e-01     2.09200e-02
      4852       4860      1  -0.021025   0.009367     3.00055e-01     6.91943e-02
      4852       4859      1  -0.021025   0.009367     3.00055e-01     6.91943e-02
      4851       4855      1   0.012677  -0.012211     3.00055e-01     6.91943e-02
      4851       4854      1   0.012677   0.008364     2.60142e-01     2.09200e-02
      4851       4853      1   0.012677   0.008364     2.60142e-01     2.09200e-02
      4850       4855      1   0.012677  -0.012211     3.00055e-01     6.91943e-02
      4850       4854      1   0.012677   0.008364     2.60142e-01     2.09200e-02
      4850       4853      1   0.012677   0.008364     2.60142e-01     2.09200e-02
      4849       4856      1  -0.031787   0.008477     3.00055e-01     6.91943e-02
      4849       4857      1  -0.031787   0.008477     3.00055e-01     6.91943e-02
      4848       4852      1   0.017208  -0.017521     3.00055e-01     6.91943e-02
      4848       4850      1   0.017208   0.010564     2.60142e-01     2.09200e-02
      4848       4851      1   0.017208   0.010564     2.60142e-01     2.09200e-02
      4847       4852      1   0.017208  -0.017521     3.00055e-01     6.91943e-02
      4847       4850      1   0.017208   0.010564     2.60142e-01     2.09200e-02
      4847       4851      1   0.017208   0.010564     2.60142e-01     2.09200e-02
      4846       4854      1  -0.028094   0.008364     3.00055e-01     6.91943e-02
      4846       4853      1  -0.028094   0.008364     3.00055e-01     6.91943e-02
      4845       4849      1   0.007531  -0.026489     3.00055e-01     6.91943e-02
      4845       4848      1   0.007531   0.014340     2.60142e-01     2.09200e-02
      4845       4847      1   0.007531   0.014340     2.60142e-01     2.09200e-02
      4844       4849      1   0.007531  -0.026489     3.00055e-01     6.91943e-02
      4844       4848      1   0.007531   0.014340     2.60142e-01     2.09200e-02
      4844       4847      1   0.007531   0.014340     2.60142e-01     2.09200e-02
      4843       4850      1   0.017463   0.010564     3.00055e-01     6.91943e-02
      4843       4851      1   0.017463   0.010564     3.00055e-01     6.91943e-02
      4842       4846      1   0.025511  -0.023412     3.00055e-01     6.91943e-02
      4842       4844      1   0.025511   0.006276     2.60142e-01     2.09200e-02
      4842       4845      1   0.025511   0.006276     2.60142e-01     2.09200e-02
      4841       4846      1   0.025511  -0.023412     3.00055e-01     6.91943e-02
      4841       4844      1   0.025511   0.006276     2.60142e-01     2.09200e-02
      4841       4845      1   0.025511   0.006276     2.60142e-01     2.09200e-02
      4840       4848      1  -0.111712   0.014340     3.00055e-01     6.91943e-02
      4840       4847      1  -0.111712   0.014340     3.00055e-01     6.91943e-02
      4839       4846      1   0.025511  -0.023412     3.00055e-01     6.91943e-02
      4839       4844      1   0.025511   0.006276     2.60142e-01     2.09200e-02
      4839       4845      1   0.025511   0.006276     2.60142e-01     2.09200e-02
      4916       4956      1  -0.673755   0.044953     2.78067e-01     9.58675e-02
      4916       4955      1  -0.673755   0.044953     2.78067e-01     9.58675e-02
      4915       4953      1   0.897613   0.015716     3.00055e-01     6.13495e-02
      4915       4952      1   0.897613   0.015716     3.00055e-01     6.13495e-02
      4914       4956      1  -0.552948   0.044953     2.80072e-01     8.62554e-02
      4914       4955      1  -0.552948   0.044953     2.80072e-01     8.62554e-02
      4907       4908      1   0.172230  -0.282478     2.67982e-01     8.67002e-02
      4906       4908      1   0.172230  -0.282478     2.67982e-01     8.67002e-02
      4905       4908      1   0.172230  -0.282478     2.67982e-01     8.67002e-02
      4904       4909      1  -0.338973   0.143525     2.67982e-01     8.67002e-02
      4904       4910      1  -0.338973   0.143525     2.67982e-01     8.67002e-02
      4904       4911      1  -0.338973   0.143525     2.67982e-01     8.67002e-02
      4903       4904      1   0.172230  -0.282478     2.67982e-01     8.67002e-02
      4903       4908      1   0.172230  -0.282478     2.67982e-01     8.67002e-02
      4902       4904      1   0.172230  -0.282478     2.67982e-01     8.67002e-02
      4902       4908      1   0.172230  -0.282478     2.67982e-01     8.67002e-02
      4901       4904      1   0.172230  -0.282478     2.67982e-01     8.67002e-02
      4901       4908      1   0.172230  -0.282478     2.67982e-01     8.67002e-02
      4900       4905      1  -0.338973   0.143525     2.67982e-01     8.67002e-02
      4900       4906      1  -0.338973   0.143525     2.67982e-01     8.67002e-02
      4900       4907      1  -0.338973   0.143525     2.67982e-01     8.67002e-02
      4900       4909      1  -0.338973   0.143525     2.67982e-01     8.67002e-02
      4900       4910      1  -0.338973   0.143525     2.67982e-01     8.67002e-02
      4900       4911      1  -0.338973   0.143525     2.67982e-01     8.67002e-02
      4898       4900      1   0.136415  -0.282478     2.67982e-01     8.67002e-02
      4898       4904      1   0.136415  -0.282478     2.67982e-01     8.67002e-02
      4898       4908      1   0.136415  -0.282478     2.67982e-01     8.67002e-02
      4897       4900      1   0.136415  -0.282478     2.67982e-01     8.67002e-02
      4897       4904      1   0.136415  -0.282478     2.67982e-01     8.67002e-02
      4897       4908      1   0.136415  -0.282478     2.67982e-01     8.67002e-02
      4896       4901      1  -0.170824   0.143525     2.67982e-01     8.67002e-02
      4896       4902      1  -0.170824   0.143525     2.67982e-01     8.67002e-02
      4896       4903      1  -0.170824   0.143525     2.67982e-01     8.67002e-02
      4896       4905      1  -0.170824   0.143525     2.67982e-01     8.67002e-02
      4896       4906      1  -0.170824   0.143525     2.67982e-01     8.67002e-02
      4896       4907      1  -0.170824   0.143525     2.67982e-01     8.67002e-02
      4896       4909      1  -0.170824   0.143525     2.67982e-01     8.67002e-02
      4896       4910      1  -0.170824   0.143525     2.67982e-01     8.67002e-02
      4896       4911      1  -0.170824   0.143525     2.67982e-01     8.67002e-02
      4895       4897      1   0.078534   0.113679     2.21567e-01     3.28444e-02
      4895       4898      1   0.078534   0.113679     2.21567e-01     3.28444e-02
      4895       4899      1   0.078534   0.204385     2.86068e-01     1.08078e-01
      4894       4897      1   0.078534   0.113679     2.21567e-01     3.28444e-02
      4894       4898      1   0.078534   0.113679     2.21567e-01     3.28444e-02
      4894       4899      1   0.078534   0.204385     2.86068e-01     1.08078e-01
      4892       4897      1  -0.508176   0.113679     2.47999e-01     1.08078e-01
      4892       4898      1  -0.508176   0.113679     2.47999e-01     1.08078e-01
      4891       4894      1   1.339721   0.065445     3.10656e-01     1.17227e-01
      4891       4895      1   1.339721   0.065445     3.10656e-01     1.17227e-01
      4889       4914      1   0.095591  -0.460790     2.73568e-01     1.08078e-01
      4889       4891      1   0.095591   1.116434     3.10656e-01     1.17227e-01
      4888       4914      1   0.095591  -0.460790     2.73568e-01     1.08078e-01
      4888       4891      1   0.095591   1.116434     3.10656e-01     1.17227e-01
      4886       4888      1   0.063253   0.079659     2.47135e-01     3.28444e-02
      4886       4889      1   0.063253   0.079659     2.47135e-01     3.28444e-02
      4886       4890      1   0.063253  -0.424567     2.73568e-01     1.08078e-01
      4886       4915      1   0.063253   0.748011     2.93551e-01     7.68707e-02
      4884       4886      1   0.070469   0.052711     2.47135e-01     3.28444e-02
      4884       4887      1   0.070469   0.014549     2.93551e-01     8.67002e-02
      4884       4914      1   0.070469  -0.460790     2.73568e-01     1.08078e-01
      4883       4886      1   0.070469   0.052711     2.47135e-01     3.28444e-02
      4883       4887      1   0.070469   0.014549     2.93551e-01     8.67002e-02
      4883       4914      1   0.070469  -0.460790     2.73568e-01     1.08078e-01
      4882       4888      1   0.196939   0.079659     2.93551e-01     8.67002e-02
      4882       4889      1   0.196939   0.079659     2.93551e-01     8.67002e-02
      4881       4886      1  -0.575489   0.052711     2.73568e-01     1.08078e-01
      4879       4883      1   0.910403   0.058724     2.93551e-01     7.68707e-02
      4879       4884      1   0.910403   0.058724     2.93551e-01     7.68707e-02
      4953       4956      1   0.018859   0.044953     2.60142e-01     2.09200e-02
      4953       4955      1   0.018859   0.044953     2.60142e-01     2.09200e-02
      4952       4956      1   0.018859   0.044953     2.60142e-01     2.09200e-02
      4952       4955      1   0.018859   0.044953     2.60142e-01     2.09200e-02
      4950       4954      1   0.020431  -0.136833     3.00055e-01     6.91943e-02
      4950       4953      1   0.020431   0.015716     2.60142e-01     2.09200e-02
      4950       4952      1   0.020431   0.015716     2.60142e-01     2.09200e-02
      4949       4954      1   0.020431  -0.136833     3.00055e-01     6.91943e-02
      4949       4953      1   0.020431   0.015716     2.60142e-01     2.09200e-02
      4949       4952      1   0.020431   0.015716     2.60142e-01     2.09200e-02
      4948       4956      1  -0.026954   0.044953     3.00055e-01     6.91943e-02
      4948       4955      1  -0.026954   0.044953     3.00055e-01     6.91943e-02
      4947       4951      1   0.010573  -0.002029     3.00055e-01     6.91943e-02
      4947       4950      1   0.010573   0.017026     2.60142e-01     2.09200e-02
      4947       4949      1   0.010573   0.017026     2.60142e-01     2.09200e-02
      4946       4951      1   0.010573  -0.002029     3.00055e-01     6.91943e-02
      4946       4950      1   0.010573   0.017026     2.60142e-01     2.09200e-02
      4946       4949      1   0.010573   0.017026     2.60142e-01     2.09200e-02
      4945       4953      1  -0.016521   0.015716     3.00055e-01     6.91943e-02
      4945       4952      1  -0.016521   0.015716     3.00055e-01     6.91943e-02
      4944       4948      1   0.011511  -0.022462     3.00055e-01     6.91943e-02
      4944       4946      1   0.011511   0.008811     2.60142e-01     2.09200e-02
      4944       4947      1   0.011511   0.008811     2.60142e-01     2.09200e-02
      4943       4948      1   0.011511  -0.022462     3.00055e-01     6.91943e-02
      4943       4946      1   0.011511   0.008811     2.60142e-01     2.09200e-02
      4943       4947      1   0.011511   0.008811     2.60142e-01     2.09200e-02
      4942       4950      1  -0.027812   0.017026     3.00055e-01     6.91943e-02
      4942       4949      1  -0.027812   0.017026     3.00055e-01     6.91943e-02
      4941       4945      1   0.006833  -0.013767     3.00055e-01     6.91943e-02
      4941       4943      1   0.006833   0.009592     2.60142e-01     2.09200e-02
      4941       4944      1   0.006833   0.009592     2.60142e-01     2.09200e-02
      4940       4945      1   0.006833  -0.013767     3.00055e-01     6.91943e-02
      4940       4943      1   0.006833   0.009592     2.60142e-01     2.09200e-02
      4940       4944      1   0.006833   0.009592     2.60142e-01     2.09200e-02
      4939       4946      1  -0.004386   0.008811     3.00055e-01     6.91943e-02
      4939       4947      1  -0.004386   0.008811     3.00055e-01     6.91943e-02
      4938       4942      1   0.011241  -0.023177     3.00055e-01     6.91943e-02
      4938       4940      1   0.011241   0.005694     2.60142e-01     2.09200e-02
      4938       4941      1   0.011241   0.005694     2.60142e-01     2.09200e-02
      4937       4942      1   0.011241  -0.023177     3.00055e-01     6.91943e-02
      4937       4940      1   0.011241   0.005694     2.60142e-01     2.09200e-02
      4937       4941      1   0.011241   0.005694     2.60142e-01     2.09200e-02
      4936       4943      1  -0.026451   0.009592     3.00055e-01     6.91943e-02
      4936       4944      1  -0.026451   0.009592     3.00055e-01     6.91943e-02
      4935       4939      1   0.010172  -0.003655     3.00055e-01     6.91943e-02
      4935       4938      1   0.010172   0.009367     2.60142e-01     2.09200e-02
      4935       4937      1   0.010172   0.009367     2.60142e-01     2.09200e-02
      4934       4939      1   0.010172  -0.003655     3.00055e-01     6.91943e-02
      4934       4938      1   0.010172   0.009367     2.60142e-01     2.09200e-02
      4934       4937      1   0.010172   0.009367     2.60142e-01     2.09200e-02
      4933       4940      1  -0.014653   0.005694     3.00055e-01     6.91943e-02
      4933       4941      1  -0.014653   0.005694     3.00055e-01     6.91943e-02
      4932       4936      1   0.010037  -0.022042     3.00055e-01     6.91943e-02
      4932       4934      1   0.010037   0.008477     2.60142e-01     2.09200e-02
      4932       4935      1   0.010037   0.008477     2.60142e-01     2.09200e-02
      4931       4936      1   0.010037  -0.022042     3.00055e-01     6.91943e-02
      4931       4934      1   0.010037   0.008477     2.60142e-01     2.09200e-02
      4931       4935      1   0.010037   0.008477     2.60142e-01     2.09200e-02
      4930       4938      1  -0.021025   0.009367     3.00055e-01     6.91943e-02
      4930       4937      1  -0.021025   0.009367     3.00055e-01     6.91943e-02
      4929       4933      1   0.012677  -0.012211     3.00055e-01     6.91943e-02
      4929       4932      1   0.012677   0.008364     2.60142e-01     2.09200e-02
      4929       4931      1   0.012677   0.008364     2.60142e-01     2.09200e-02
      4928       4933      1   0.012677  -0.012211     3.00055e-01     6.91943e-02
      4928       4932      1   0.012677   0.008364     2.60142e-01     2.09200e-02
      4928       4931      1   0.012677   0.008364     2.60142e-01     2.09200e-02
      4927       4934      1  -0.031787   0.008477     3.00055e-01     6.91943e-02
      4927       4935      1  -0.031787   0.008477     3.00055e-01     6.91943e-02
      4926       4930      1   0.017208  -0.017521     3.00055e-01     6.91943e-02
      4926       4928      1   0.017208   0.010564     2.60142e-01     2.09200e-02
      4926       4929      1   0.017208   0.010564     2.60142e-01     2.09200e-02
      4925       4930      1   0.017208  -0.017521     3.00055e-01     6.91943e-02
      4925       4928      1   0.017208   0.010564     2.60142e-01     2.09200e-02
      4925       4929      1   0.017208   0.010564     2.60142e-01     2.09200e-02
      4924       4932      1  -0.028094   0.008364     3.00055e-01     6.91943e-02
      4924       4931      1  -0.028094   0.008364     3.00055e-01     6.91943e-02
      4923       4927      1   0.007531  -0.026489     3.00055e-01     6.91943e-02
      4923       4926      1   0.007531   0.014340     2.60142e-01     2.09200e-02
      4923       4925      1   0.007531   0.014340     2.60142e-01     2.09200e-02
      4922       4927      1   0.007531  -0.026489     3.00055e-01     6.91943e-02
      4922       4926      1   0.007531   0.014340     2.60142e-01     2.09200e-02
      4922       4925      1   0.007531   0.014340     2.60142e-01     2.09200e-02
      4921       4928      1   0.017463   0.010564     3.00055e-01     6.91943e-02
      4921       4929      1   0.017463   0.010564     3.00055e-01     6.91943e-02
      4920       4924      1   0.025511  -0.023412     3.00055e-01     6.91943e-02
      4920       4922      1   0.025511   0.006276     2.60142e-01     2.09200e-02
      4920       4923      1   0.025511   0.006276     2.60142e-01     2.09200e-02
      4919       4924      1   0.025511  -0.023412     3.00055e-01     6.91943e-02
      4919       4922      1   0.025511   0.006276     2.60142e-01     2.09200e-02
      4919       4923      1   0.025511   0.006276     2.60142e-01     2.09200e-02
      4918       4926      1  -0.111712   0.014340     3.00055e-01     6.91943e-02
      4918       4925      1  -0.111712   0.014340     3.00055e-01     6.91943e-02
      4917       4924      1   0.025511  -0.023412     3.00055e-01     6.91943e-02
      4917       4922      1   0.025511   0.006276     2.60142e-01     2.09200e-02
      4917       4923      1   0.025511   0.006276     2.60142e-01     2.09200e-02
      4996       4998      1   0.053944  -0.559638     2.78067e-01     9.58675e-02
      4996       4999      1   0.053944  -0.479574     2.80072e-01     8.62554e-02
      4995       4998      1   0.053944  -0.559638     2.78067e-01     9.58675e-02
      4995       4999      1   0.053944  -0.479574     2.80072e-01     8.62554e-02
      4993       4996      1   0.018859   0.044953     2.60142e-01     2.09200e-02
      4993       4995      1   0.018859   0.044953     2.60142e-01     2.09200e-02
      4993       4997      1   0.018859   0.758669     3.00055e-01     6.13495e-02
      4992       4996      1   0.018859   0.044953     2.60142e-01     2.09200e-02
      4992       4995      1   0.018859   0.044953     2.60142e-01     2.09200e-02
      4992       4997      1   0.018859   0.758669     3.00055e-01     6.13495e-02
      4990       4994      1   0.020431  -0.136833     3.00055e-01     6.91943e-02
      4990       4993      1   0.020431   0.015716     2.60142e-01     2.09200e-02
      4990       4992      1   0.020431   0.015716     2.60142e-01     2.09200e-02
      4989       4994      1   0.020431  -0.136833     3.00055e-01     6.91943e-02
      4989       4993      1   0.020431   0.015716     2.60142e-01     2.09200e-02
      4989       4992      1   0.020431   0.015716     2.60142e-01     2.09200e-02
      4988       4996      1  -0.026954   0.044953     3.00055e-01     6.91943e-02
      4988       4995      1  -0.026954   0.044953     3.00055e-01     6.91943e-02
      4987       4991      1   0.010573  -0.002029     3.00055e-01     6.91943e-02
      4987       4990      1   0.010573   0.017026     2.60142e-01     2.09200e-02
      4987       4989      1   0.010573   0.017026     2.60142e-01     2.09200e-02
      4986       4991      1   0.010573  -0.002029     3.00055e-01     6.91943e-02
      4986       4990      1   0.010573   0.017026     2.60142e-01     2.09200e-02
      4986       4989      1   0.010573   0.017026     2.60142e-01     2.09200e-02
      4985       4993      1  -0.016521   0.015716     3.00055e-01     6.91943e-02
      4985       4992      1  -0.016521   0.015716     3.00055e-01     6.91943e-02
      4984       4988      1   0.011511  -0.022462     3.00055e-01     6.91943e-02
      4984       4986      1   0.011511   0.008811     2.60142e-01     2.09200e-02
      4984       4987      1   0.011511   0.008811     2.60142e-01     2.09200e-02
      4983       4988      1   0.011511  -0.022462     3.00055e-01     6.91943e-02
      4983       4986      1   0.011511   0.008811     2.60142e-01     2.09200e-02
      4983       4987      1   0.011511   0.008811     2.60142e-01     2.09200e-02
      4982       4990      1  -0.027812   0.017026     3.00055e-01     6.91943e-02
      4982       4989      1  -0.027812   0.017026     3.00055e-01     6.91943e-02
      4981       4985      1   0.006833  -0.013767     3.00055e-01     6.91943e-02
      4981       4983      1   0.006833   0.009592     2.60142e-01     2.09200e-02
      4981       4984      1   0.006833   0.009592     2.60142e-01     2.09200e-02
      4980       4985      1   0.006833  -0.013767     3.00055e-01     6.91943e-02
      4980       4983      1   0.006833   0.009592     2.60142e-01     2.09200e-02
      4980       4984      1   0.006833   0.009592     2.60142e-01     2.09200e-02
      4979       4986      1  -0.004386   0.008811     3.00055e-01     6.91943e-02
      4979       4987      1  -0.004386   0.008811     3.00055e-01     6.91943e-02
      4978       4982      1   0.011241  -0.023177     3.00055e-01     6.91943e-02
      4978       4980      1   0.011241   0.005694     2.60142e-01     2.09200e-02
      4978       4981      1   0.011241   0.005694     2.60142e-01     2.09200e-02
      4977       4982      1   0.011241  -0.023177     3.00055e-01     6.91943e-02
      4977       4980      1   0.011241   0.005694     2.60142e-01     2.09200e-02
      4977       4981      1   0.011241   0.005694     2.60142e-01     2.09200e-02
      4976       4983      1  -0.026451   0.009592     3.00055e-01     6.91943e-02
      4976       4984      1  -0.026451   0.009592     3.00055e-01     6.91943e-02
      4975       4979      1   0.010172  -0.003655     3.00055e-01     6.91943e-02
      4975       4978      1   0.010172   0.009367     2.60142e-01     2.09200e-02
      4975       4977      1   0.010172   0.009367     2.60142e-01     2.09200e-02
      4974       4979      1   0.010172  -0.003655     3.00055e-01     6.91943e-02
      4974       4978      1   0.010172   0.009367     2.60142e-01     2.09200e-02
      4974       4977      1   0.010172   0.009367     2.60142e-01     2.09200e-02
      4973       4980      1  -0.014653   0.005694     3.00055e-01     6.91943e-02
      4973       4981      1  -0.014653   0.005694     3.00055e-01     6.91943e-02
      4972       4976      1   0.010037  -0.022042     3.00055e-01     6.91943e-02
      4972       4974      1   0.010037   0.008477     2.60142e-01     2.09200e-02
      4972       4975      1   0.010037   0.008477     2.60142e-01     2.09200e-02
      4971       4976      1   0.010037  -0.022042     3.00055e-01     6.91943e-02
      4971       4974      1   0.010037   0.008477     2.60142e-01     2.09200e-02
      4971       4975      1   0.010037   0.008477     2.60142e-01     2.09200e-02
      4970       4978      1  -0.021025   0.009367     3.00055e-01     6.91943e-02
      4970       4977      1  -0.021025   0.009367     3.00055e-01     6.91943e-02
      4969       4973      1   0.012677  -0.012211     3.00055e-01     6.91943e-02
      4969       4972      1   0.012677   0.008364     2.60142e-01     2.09200e-02
      4969       4971      1   0.012677   0.008364     2.60142e-01     2.09200e-02
      4968       4973      1   0.012677  -0.012211     3.00055e-01     6.91943e-02
      4968       4972      1   0.012677   0.008364     2.60142e-01     2.09200e-02
      4968       4971      1   0.012677   0.008364     2.60142e-01     2.09200e-02
      4967       4974      1  -0.031787   0.008477     3.00055e-01     6.91943e-02
      4967       4975      1  -0.031787   0.008477     3.00055e-01     6.91943e-02
      4966       4970      1   0.017208  -0.017521     3.00055e-01     6.91943e-02
      4966       4968      1   0.017208   0.010564     2.60142e-01     2.09200e-02
      4966       4969      1   0.017208   0.010564     2.60142e-01     2.09200e-02
      4965       4970      1   0.017208  -0.017521     3.00055e-01     6.91943e-02
      4965       4968      1   0.017208   0.010564     2.60142e-01     2.09200e-02
      4965       4969      1   0.017208   0.010564     2.60142e-01     2.09200e-02
      4964       4972      1  -0.028094   0.008364     3.00055e-01     6.91943e-02
      4964       4971      1  -0.028094   0.008364     3.00055e-01     6.91943e-02
      4963       4967      1   0.007531  -0.026489     3.00055e-01     6.91943e-02
      4963       4966      1   0.007531   0.014340     2.60142e-01     2.09200e-02
      4963       4965      1   0.007531   0.014340     2.60142e-01     2.09200e-02
      4962       4967      1   0.007531  -0.026489     3.00055e-01     6.91943e-02
      4962       4966      1   0.007531   0.014340     2.60142e-01     2.09200e-02
      4962       4965      1   0.007531   0.014340     2.60142e-01     2.09200e-02
      4961       4968      1   0.017463   0.010564     3.00055e-01     6.91943e-02
      4961       4969      1   0.017463   0.010564     3.00055e-01     6.91943e-02
      4960       4964      1   0.025511  -0.023412     3.00055e-01     6.91943e-02
      4960       4962      1   0.025511   0.006276     2.60142e-01     2.09200e-02
      4960       4963      1   0.025511   0.006276     2.60142e-01     2.09200e-02
      4959       4964      1   0.025511  -0.023412     3.00055e-01     6.91943e-02
      4959       4962      1   0.025511   0.006276     2.60142e-01     2.09200e-02
      4959       4963      1   0.025511   0.006276     2.60142e-01     2.09200e-02
      4958       4966      1  -0.111712   0.014340     3.00055e-01     6.91943e-02
      4958       4965      1  -0.111712   0.014340     3.00055e-01     6.91943e-02
      4957       4964      1   0.025511  -0.023412     3.00055e-01     6.91943e-02
      4957       4962      1   0.025511   0.006276     2.60142e-01     2.09200e-02
      4957       4963      1   0.025511   0.006276     2.60142e-01     2.09200e-02
      5034       5074      1  -0.673755   0.044953     2.78067e-01     9.58675e-02
      5034       5073      1  -0.673755   0.044953     2.78067e-01     9.58675e-02
      5033       5071      1   0.897613   0.015716     3.00055e-01     6.13495e-02
      5033       5070      1   0.897613   0.015716     3.00055e-01     6.13495e-02
      5032       5074      1  -0.552948   0.044953     2.80072e-01     8.62554e-02
      5032       5073      1  -0.552948   0.044953     2.80072e-01     8.62554e-02
      5025       5026      1   0.172230  -0.282478     2.67982e-01     8.67002e-02
      5024       5026      1   0.172230  -0.282478     2.67982e-01     8.67002e-02
      5023       5026      1   0.172230  -0.282478     2.67982e-01     8.67002e-02
      5022       5027      1  -0.338973   0.143525     2.67982e-01     8.67002e-02
      5022       5028      1  -0.338973   0.143525     2.67982e-01     8.67002e-02
      5022       5029      1  -0.338973   0.143525     2.67982e-01     8.67002e-02
      5021       5022      1   0.172230  -0.282478     2.67982e-01     8.67002e-02
      5021       5026      1   0.172230  -0.282478     2.67982e-01     8.67002e-02
      5020       5022      1   0.172230  -0.282478     2.67982e-01     8.67002e-02
      5020       5026      1   0.172230  -0.282478     2.67982e-01     8.67002e-02
      5019       5022      1   0.172230  -0.282478     2.67982e-01     8.67002e-02
      5019       5026      1   0.172230  -0.282478     2.67982e-01     8.67002e-02
      5018       5023      1  -0.338973   0.143525     2.67982e-01     8.67002e-02
      5018       5024      1  -0.338973   0.143525     2.67982e-01     8.67002e-02
      5018       5025      1  -0.338973   0.143525     2.67982e-01     8.67002e-02
      5018       5027      1  -0.338973   0.143525     2.67982e-01     8.67002e-02
      5018       5028      1  -0.338973   0.143525     2.67982e-01     8.67002e-02
      5018       5029      1  -0.338973   0.143525     2.67982e-01     8.67002e-02
      5016       5018      1   0.136415  -0.282478     2.67982e-01     8.67002e-02
      5016       5022      1   0.136415  -0.282478     2.67982e-01     8.67002e-02
      5016       5026      1   0.136415  -0.282478     2.67982e-01     8.67002e-02
      5015       5018      1   0.136415  -0.282478     2.67982e-01     8.67002e-02
      5015       5022      1   0.136415  -0.282478     2.67982e-01     8.67002e-02
      5015       5026      1   0.136415  -0.282478     2.67982e-01     8.67002e-02
      5014       5019      1  -0.170824   0.143525     2.67982e-01     8.67002e-02
      5014       5020      1  -0.170824   0.143525     2.67982e-01     8.67002e-02
      5014       5021      1  -0.170824   0.143525     2.67982e-01     8.67002e-02
      5014       5023      1  -0.170824   0.143525     2.67982e-01     8.67002e-02
      5014       5024      1  -0.170824   0.143525     2.67982e-01     8.67002e-02
      5014       5025      1  -0.170824   0.143525     2.67982e-01     8.67002e-02
      5014       5027      1  -0.170824   0.143525     2.67982e-01     8.67002e-02
      5014       5028      1  -0.170824   0.143525     2.67982e-01     8.67002e-02
      5014       5029      1  -0.170824   0.143525     2.67982e-01     8.67002e-02
      5013       5015      1   0.078534   0.113679     2.21567e-01     3.28444e-02
      5013       5016      1   0.078534   0.113679     2.21567e-01     3.28444e-02
      5013       5017      1   0.078534   0.204385     2.86068e-01     1.08078e-01
      5012       5015      1   0.078534   0.113679     2.21567e-01     3.28444e-02
      5012       5016      1   0.078534   0.113679     2.21567e-01     3.28444e-02
      5012       5017      1   0.078534   0.204385     2.86068e-01     1.08078e-01
      5010       5015      1  -0.508176   0.113679     2.47999e-01     1.08078e-01
      5010       5016      1  -0.508176   0.113679     2.47999e-01     1.08078e-01
      5009       5012      1   1.339721   0.065445     3.10656e-01     1.17227e-01
      5009       5013      1   1.339721   0.065445     3.10656e-01     1.17227e-01
      5007       5032      1   0.095591  -0.460790     2.73568e-01     1.08078e-01
      5007       5009      1   0.095591   1.116434     3.10656e-01     1.17227e-01
      5006       5032      1   0.095591  -0.460790     2.73568e-01     1.08078e-01
      5006       5009      1   0.095591   1.116434     3.10656e-01     1.17227e-01
      5004       5006      1   0.063253   0.079659     2.47135e-01     3.28444e-02
      5004       5007      1   0.063253   0.079659     2.47135e-01     3.28444e-02
      5004       5008      1   0.063253  -0.424567     2.73568e-01     1.08078e-01
      5004       5033      1   0.063253   0.748011     2.93551e-01     7.68707e-02
      5002       5004      1   0.070469   0.052711     2.47135e-01     3.28444e-02
      5002       5005      1   0.070469   0.014549     2.93551e-01     8.67002e-02
      5002       5032      1   0.070469  -0.460790     2.73568e-01     1.08078e-01
      5001       5004      1   0.070469   0.052711     2.47135e-01     3.28444e-02
      5001       5005      1   0.070469   0.014549     2.93551e-01     8.67002e-02
      5001       5032      1   0.070469  -0.460790     2.73568e-01     1.08078e-01
      5000       5006      1   0.196939   0.079659     2.93551e-01     8.67002e-02
      5000       5007      1   0.196939   0.079659     2.93551e-01     8.67002e-02
      4999       5004      1  -0.575489   0.052711     2.73568e-01     1.08078e-01
      4997       5001      1   0.910403   0.058724     2.93551e-01     7.68707e-02
      4997       5002      1   0.910403   0.058724     2.93551e-01     7.68707e-02
      5071       5074      1   0.018859   0.044953     2.60142e-01     2.09200e-02
      5071       5073      1   0.018859   0.044953     2.60142e-01     2.09200e-02
      5070       5074      1   0.018859   0.044953     2.60142e-01     2.09200e-02
      5070       5073      1   0.018859   0.044953     2.60142e-01     2.09200e-02
      5068       5072      1   0.020431  -0.136833     3.00055e-01     6.91943e-02
      5068       5071      1   0.020431   0.015716     2.60142e-01     2.09200e-02
      5068       5070      1   0.020431   0.015716     2.60142e-01     2.09200e-02
      5067       5072      1   0.020431  -0.136833     3.00055e-01     6.91943e-02
      5067       5071      1   0.020431   0.015716     2.60142e-01     2.09200e-02
      5067       5070      1   0.020431   0.015716     2.60142e-01     2.09200e-02
      5066       5074      1  -0.026954   0.044953     3.00055e-01     6.91943e-02
      5066       5073      1  -0.026954   0.044953     3.00055e-01     6.91943e-02
      5065       5069      1   0.010573  -0.002029     3.00055e-01     6.91943e-02
      5065       5068      1   0.010573   0.017026     2.60142e-01     2.09200e-02
      5065       5067      1   0.010573   0.017026     2.60142e-01     2.09200e-02
      5064       5069      1   0.010573  -0.002029     3.00055e-01     6.91943e-02
      5064       5068      1   0.010573   0.017026     2.60142e-01     2.09200e-02
      5064       5067      1   0.010573   0.017026     2.60142e-01     2.09200e-02
      5063       5071      1  -0.016521   0.015716     3.00055e-01     6.91943e-02
      5063       5070      1  -0.016521   0.015716     3.00055e-01     6.91943e-02
      5062       5066      1   0.011511  -0.022462     3.00055e-01     6.91943e-02
      5062       5064      1   0.011511   0.008811     2.60142e-01     2.09200e-02
      5062       5065      1   0.011511   0.008811     2.60142e-01     2.09200e-02
      5061       5066      1   0.011511  -0.022462     3.00055e-01     6.91943e-02
      5061       5064      1   0.011511   0.008811     2.60142e-01     2.09200e-02
      5061       5065      1   0.011511   0.008811     2.60142e-01     2.09200e-02
      5060       5068      1  -0.027812   0.017026     3.00055e-01     6.91943e-02
      5060       5067      1  -0.027812   0.017026     3.00055e-01     6.91943e-02
      5059       5063      1   0.006833  -0.013767     3.00055e-01     6.91943e-02
      5059       5061      1   0.006833   0.009592     2.60142e-01     2.09200e-02
      5059       5062      1   0.006833   0.009592     2.60142e-01     2.09200e-02
      5058       5063      1   0.006833  -0.013767     3.00055e-01     6.91943e-02
      5058       5061      1   0.006833   0.009592     2.60142e-01     2.09200e-02
      5058       5062      1   0.006833   0.009592     2.60142e-01     2.09200e-02
      5057       5064      1  -0.004386   0.008811     3.00055e-01     6.91943e-02
      5057       5065      1  -0.004386   0.008811     3.00055e-01     6.91943e-02
      5056       5060      1   0.011241  -0.023177     3.00055e-01     6.91943e-02
      5056       5058      1   0.011241   0.005694     2.60142e-01     2.09200e-02
      5056       5059      1   0.011241   0.005694     2.60142e-01     2.09200e-02
      5055       5060      1   0.011241  -0.023177     3.00055e-01     6.91943e-02
      5055       5058      1   0.011241   0.005694     2.60142e-01     2.09200e-02
      5055       5059      1   0.011241   0.005694     2.60142e-01     2.09200e-02
      5054       5061      1  -0.026451   0.009592     3.00055e-01     6.91943e-02
      5054       5062      1  -0.026451   0.009592     3.00055e-01     6.91943e-02
      5053       5057      1   0.010172  -0.003655     3.00055e-01     6.91943e-02
      5053       5056      1   0.010172   0.009367     2.60142e-01     2.09200e-02
      5053       5055      1   0.010172   0.009367     2.60142e-01     2.09200e-02
      5052       5057      1   0.010172  -0.003655     3.00055e-01     6.91943e-02
      5052       5056      1   0.010172   0.009367     2.60142e-01     2.09200e-02
      5052       5055      1   0.010172   0.009367     2.60142e-01     2.09200e-02
      5051       5058      1  -0.014653   0.005694     3.00055e-01     6.91943e-02
      5051       5059      1  -0.014653   0.005694     3.00055e-01     6.91943e-02
      5050       5054      1   0.010037  -0.022042     3.00055e-01     6.91943e-02
      5050       5052      1   0.010037   0.008477     2.60142e-01     2.09200e-02
      5050       5053      1   0.010037   0.008477     2.60142e-01     2.09200e-02
      5049       5054      1   0.010037  -0.022042     3.00055e-01     6.91943e-02
      5049       5052      1   0.010037   0.008477     2.60142e-01     2.09200e-02
      5049       5053      1   0.010037   0.008477     2.60142e-01     2.09200e-02
      5048       5056      1  -0.021025   0.009367     3.00055e-01     6.91943e-02
      5048       5055      1  -0.021025   0.009367     3.00055e-01     6.91943e-02
      5047       5051      1   0.012677  -0.012211     3.00055e-01     6.91943e-02
      5047       5050      1   0.012677   0.008364     2.60142e-01     2.09200e-02
      5047       5049      1   0.012677   0.008364     2.60142e-01     2.09200e-02
      5046       5051      1   0.012677  -0.012211     3.00055e-01     6.91943e-02
      5046       5050      1   0.012677   0.008364     2.60142e-01     2.09200e-02
      5046       5049      1   0.012677   0.008364     2.60142e-01     2.09200e-02
      5045       5052      1  -0.031787   0.008477     3.00055e-01     6.91943e-02
      5045       5053      1  -0.031787   0.008477     3.00055e-01     6.91943e-02
      5044       5048      1   0.017208  -0.017521     3.00055e-01     6.91943e-02
      5044       5046      1   0.017208   0.010564     2.60142e-01     2.09200e-02
      5044       5047      1   0.017208   0.010564     2.60142e-01     2.09200e-02
      5043       5048      1   0.017208  -0.017521     3.00055e-01     6.91943e-02
      5043       5046      1   0.017208   0.010564     2.60142e-01     2.09200e-02
      5043       5047      1   0.017208   0.010564     2.60142e-01     2.09200e-02
      5042       5050      1  -0.028094   0.008364     3.00055e-01     6.91943e-02
      5042       5049      1  -0.028094   0.008364     3.00055e-01     6.91943e-02
      5041       5045      1   0.007531  -0.026489     3.00055e-01     6.91943e-02
      5041       5044      1   0.007531   0.014340     2.60142e-01     2.09200e-02
      5041       5043      1   0.007531   0.014340     2.60142e-01     2.09200e-02
      5040       5045      1   0.007531  -0.026489     3.00055e-01     6.91943e-02
      5040       5044      1   0.007531   0.014340     2.60142e-01     2.09200e-02
      5040       5043      1   0.007531   0.014340     2.60142e-01     2.09200e-02
      5039       5046      1   0.017463   0.010564     3.00055e-01     6.91943e-02
      5039       5047      1   0.017463   0.010564     3.00055e-01     6.91943e-02
      5038       5042      1   0.025511  -0.023412     3.00055e-01     6.91943e-02
      5038       5040      1   0.025511   0.006276     2.60142e-01     2.09200e-02
      5038       5041      1   0.025511   0.006276     2.60142e-01     2.09200e-02
      5037       5042      1   0.025511  -0.023412     3.00055e-01     6.91943e-02
      5037       5040      1   0.025511   0.006276     2.60142e-01     2.09200e-02
      5037       5041      1   0.025511   0.006276     2.60142e-01     2.09200e-02
      5036       5044      1  -0.111712   0.014340     3.00055e-01     6.91943e-02
      5036       5043      1  -0.111712   0.014340     3.00055e-01     6.91943e-02
      5035       5042      1   0.025511  -0.023412     3.00055e-01     6.91943e-02
      5035       5040      1   0.025511   0.006276     2.60142e-01     2.09200e-02
      5035       5041      1   0.025511   0.006276     2.60142e-01     2.09200e-02
      5114       5116      1   0.053944  -0.559638     2.78067e-01     9.58675e-02
      5114       5117      1   0.053944  -0.479574     2.80072e-01     8.62554e-02
      5113       5116      1   0.053944  -0.559638     2.78067e-01     9.58675e-02
      5113       5117      1   0.053944  -0.479574     2.80072e-01     8.62554e-02
      5111       5114      1   0.018859   0.044953     2.60142e-01     2.09200e-02
      5111       5113      1   0.018859   0.044953     2.60142e-01     2.09200e-02
      5111       5115      1   0.018859   0.758669     3.00055e-01     6.13495e-02
      5110       5114      1   0.018859   0.044953     2.60142e-01     2.09200e-02
      5110       5113      1   0.018859   0.044953     2.60142e-01     2.09200e-02
      5110       5115      1   0.018859   0.758669     3.00055e-01     6.13495e-02
      5108       5112      1   0.020431  -0.136833     3.00055e-01     6.91943e-02
      5108       5111      1   0.020431   0.015716     2.60142e-01     2.09200e-02
      5108       5110      1   0.020431   0.015716     2.60142e-01     2.09200e-02
      5107       5112      1   0.020431  -0.136833     3.00055e-01     6.91943e-02
      5107       5111      1   0.020431   0.015716     2.60142e-01     2.09200e-02
      5107       5110      1   0.020431   0.015716     2.60142e-01     2.09200e-02
      5106       5114      1  -0.026954   0.044953     3.00055e-01     6.91943e-02
      5106       5113      1  -0.026954   0.044953     3.00055e-01     6.91943e-02
      5105       5109      1   0.010573  -0.002029     3.00055e-01     6.91943e-02
      5105       5108      1   0.010573   0.017026     2.60142e-01     2.09200e-02
      5105       5107      1   0.010573   0.017026     2.60142e-01     2.09200e-02
      5104       5109      1   0.010573  -0.002029     3.00055e-01     6.91943e-02
      5104       5108      1   0.010573   0.017026     2.60142e-01     2.09200e-02
      5104       5107      1   0.010573   0.017026     2.60142e-01     2.09200e-02
      5103       5111      1  -0.016521   0.015716     3.00055e-01     6.91943e-02
      5103       5110      1  -0.016521   0.015716     3.00055e-01     6.91943e-02
      5102       5106      1   0.011511  -0.022462     3.00055e-01     6.91943e-02
      5102       5104      1   0.011511   0.008811     2.60142e-01     2.09200e-02
      5102       5105      1   0.011511   0.008811     2.60142e-01     2.09200e-02
      5101       5106      1   0.011511  -0.022462     3.00055e-01     6.91943e-02
      5101       5104      1   0.011511   0.008811     2.60142e-01     2.09200e-02
      5101       5105      1   0.011511   0.008811     2.60142e-01     2.09200e-02
      5100       5108      1  -0.027812   0.017026     3.00055e-01     6.91943e-02
      5100       5107      1  -0.027812   0.017026     3.00055e-01     6.91943e-02
      5099       5103      1   0.006833  -0.013767     3.00055e-01     6.91943e-02
      5099       5101      1   0.006833   0.009592     2.60142e-01     2.09200e-02
      5099       5102      1   0.006833   0.009592     2.60142e-01     2.09200e-02
      5098       5103      1   0.006833  -0.013767     3.00055e-01     6.91943e-02
      5098       5101      1   0.006833   0.009592     2.60142e-01     2.09200e-02
      5098       5102      1   0.006833   0.009592     2.60142e-01     2.09200e-02
      5097       5104      1  -0.004386   0.008811     3.00055e-01     6.91943e-02
      5097       5105      1  -0.004386   0.008811     3.00055e-01     6.91943e-02
      5096       5100      1   0.011241  -0.023177     3.00055e-01     6.91943e-02
      5096       5098      1   0.011241   0.005694     2.60142e-01     2.09200e-02
      5096       5099      1   0.011241   0.005694     2.60142e-01     2.09200e-02
      5095       5100      1   0.011241  -0.023177     3.00055e-01     6.91943e-02
      5095       5098      1   0.011241   0.005694     2.60142e-01     2.09200e-02
      5095       5099      1   0.011241   0.005694     2.60142e-01     2.09200e-02
      5094       5101      1  -0.026451   0.009592     3.00055e-01     6.91943e-02
      5094       5102      1  -0.026451   0.009592     3.00055e-01     6.91943e-02
      5093       5097      1   0.010172  -0.003655     3.00055e-01     6.91943e-02
      5093       5096      1   0.010172   0.009367     2.60142e-01     2.09200e-02
      5093       5095      1   0.010172   0.009367     2.60142e-01     2.09200e-02
      5092       5097      1   0.010172  -0.003655     3.00055e-01     6.91943e-02
      5092       5096      1   0.010172   0.009367     2.60142e-01     2.09200e-02
      5092       5095      1   0.010172   0.009367     2.60142e-01     2.09200e-02
      5091       5098      1  -0.014653   0.005694     3.00055e-01     6.91943e-02
      5091       5099      1  -0.014653   0.005694     3.00055e-01     6.91943e-02
      5090       5094      1   0.010037  -0.022042     3.00055e-01     6.91943e-02
      5090       5092      1   0.010037   0.008477     2.60142e-01     2.09200e-02
      5090       5093      1   0.010037   0.008477     2.60142e-01     2.09200e-02
      5089       5094      1   0.010037  -0.022042     3.00055e-01     6.91943e-02
      5089       5092      1   0.010037   0.008477     2.60142e-01     2.09200e-02
      5089       5093      1   0.010037   0.008477     2.60142e-01     2.09200e-02
      5088       5096      1  -0.021025   0.009367     3.00055e-01     6.91943e-02
      5088       5095      1  -0.021025   0.009367     3.00055e-01     6.91943e-02
      5087       5091      1   0.012677  -0.012211     3.00055e-01     6.91943e-02
      5087       5090      1   0.012677   0.008364     2.60142e-01     2.09200e-02
      5087       5089      1   0.012677   0.008364     2.60142e-01     2.09200e-02
      5086       5091      1   0.012677  -0.012211     3.00055e-01     6.91943e-02
      5086       5090      1   0.012677   0.008364     2.60142e-01     2.09200e-02
      5086       5089      1   0.012677   0.008364     2.60142e-01     2.09200e-02
      5085       5092      1  -0.031787   0.008477     3.00055e-01     6.91943e-02
      5085       5093      1  -0.031787   0.008477     3.00055e-01     6.91943e-02
      5084       5088      1   0.017208  -0.017521     3.00055e-01     6.91943e-02
      5084       5086      1   0.017208   0.010564     2.60142e-01     2.09200e-02
      5084       5087      1   0.017208   0.010564     2.60142e-01     2.09200e-02
      5083       5088      1   0.017208  -0.017521     3.00055e-01     6.91943e-02
      5083       5086      1   0.017208   0.010564     2.60142e-01     2.09200e-02
      5083       5087      1   0.017208   0.010564     2.60142e-01     2.09200e-02
      5082       5090      1  -0.028094   0.008364     3.00055e-01     6.91943e-02
      5082       5089      1  -0.028094   0.008364     3.00055e-01     6.91943e-02
      5081       5085      1   0.007531  -0.026489     3.00055e-01     6.91943e-02
      5081       5084      1   0.007531   0.014340     2.60142e-01     2.09200e-02
      5081       5083      1   0.007531   0.014340     2.60142e-01     2.09200e-02
      5080       5085      1   0.007531  -0.026489     3.00055e-01     6.91943e-02
      5080       5084      1   0.007531   0.014340     2.60142e-01     2.09200e-02
      5080       5083      1   0.007531   0.014340     2.60142e-01     2.09200e-02
      5079       5086      1   0.017463   0.010564     3.00055e-01     6.91943e-02
      5079       5087      1   0.017463   0.010564     3.00055e-01     6.91943e-02
      5078       5082      1   0.025511  -0.023412     3.00055e-01     6.91943e-02
      5078       5080      1   0.025511   0.006276     2.60142e-01     2.09200e-02
      5078       5081      1   0.025511   0.006276     2.60142e-01     2.09200e-02
      5077       5082      1   0.025511  -0.023412     3.00055e-01     6.91943e-02
      5077       5080      1   0.025511   0.006276     2.60142e-01     2.09200e-02
      5077       5081      1   0.025511   0.006276     2.60142e-01     2.09200e-02
      5076       5084      1  -0.111712   0.014340     3.00055e-01     6.91943e-02
      5076       5083      1  -0.111712   0.014340     3.00055e-01     6.91943e-02
      5075       5082      1   0.025511  -0.023412     3.00055e-01     6.91943e-02
      5075       5080      1   0.025511   0.006276     2.60142e-01     2.09200e-02
      5075       5081      1   0.025511   0.006276     2.60142e-01     2.09200e-02
      5152       5192      1  -0.673755   0.044953     2.78067e-01     9.58675e-02
      5152       5191      1  -0.673755   0.044953     2.78067e-01     9.58675e-02
      5151       5189      1   0.897613   0.015716     3.00055e-01     6.13495e-02
      5151       5188      1   0.897613   0.015716     3.00055e-01     6.13495e-02
      5150       5192      1  -0.552948   0.044953     2.80072e-01     8.62554e-02
      5150       5191      1  -0.552948   0.044953     2.80072e-01     8.62554e-02
      5143       5144      1   0.172230  -0.282478     2.67982e-01     8.67002e-02
      5142       5144      1   0.172230  -0.282478     2.67982e-01     8.67002e-02
      5141       5144      1   0.172230  -0.282478     2.67982e-01     8.67002e-02
      5140       5145      1  -0.338973   0.143525     2.67982e-01     8.67002e-02
      5140       5146      1  -0.338973   0.143525     2.67982e-01     8.67002e-02
      5140       5147      1  -0.338973   0.143525     2.67982e-01     8.67002e-02
      5139       5140      1   0.172230  -0.282478     2.67982e-01     8.67002e-02
      5139       5144      1   0.172230  -0.282478     2.67982e-01     8.67002e-02
      5138       5140      1   0.172230  -0.282478     2.67982e-01     8.67002e-02
      5138       5144      1   0.172230  -0.282478     2.67982e-01     8.67002e-02
      5137       5140      1   0.172230  -0.282478     2.67982e-01     8.67002e-02
      5137       5144      1   0.172230  -0.282478     2.67982e-01     8.67002e-02
      5136       5141      1  -0.338973   0.143525     2.67982e-01     8.67002e-02
      5136       5142      1  -0.338973   0.143525     2.67982e-01     8.67002e-02
      5136       5143      1  -0.338973   0.143525     2.67982e-01     8.67002e-02
      5136       5145      1  -0.338973   0.143525     2.67982e-01     8.67002e-02
      5136       5146      1  -0.338973   0.143525     2.67982e-01     8.67002e-02
      5136       5147      1  -0.338973   0.143525     2.67982e-01     8.67002e-02
      5134       5136      1   0.136415  -0.282478     2.67982e-01     8.67002e-02
      5134       5140      1   0.136415  -0.282478     2.67982e-01     8.67002e-02
      5134       5144      1   0.136415  -0.282478     2.67982e-01     8.67002e-02
      5133       5136      1   0.136415  -0.282478     2.67982e-01     8.67002e-02
      5133       5140      1   0.136415  -0.282478     2.67982e-01     8.67002e-02
      5133       5144      1   0.136415  -0.282478     2.67982e-01     8.67002e-02
      5132       5137      1  -0.170824   0.143525     2.67982e-01     8.67002e-02
      5132       5138      1  -0.170824   0.143525     2.67982e-01     8.67002e-02
      5132       5139      1  -0.170824   0.143525     2.67982e-01     8.67002e-02
      5132       5141      1  -0.170824   0.143525     2.67982e-01     8.67002e-02
      5132       5142      1  -0.170824   0.143525     2.67982e-01     8.67002e-02
      5132       5143      1  -0.170824   0.143525     2.67982e-01     8.67002e-02
      5132       5145      1  -0.170824   0.143525     2.67982e-01     8.67002e-02
      5132       5146      1  -0.170824   0.143525     2.67982e-01     8.67002e-02
      5132       5147      1  -0.170824   0.143525     2.67982e-01     8.67002e-02
      5131       5133      1   0.078534   0.113679     2.21567e-01     3.28444e-02
      5131       5134      1   0.078534   0.113679     2.21567e-01     3.28444e-02
      5131       5135      1   0.078534   0.204385     2.86068e-01     1.08078e-01
      5130       5133      1   0.078534   0.113679     2.21567e-01     3.28444e-02
      5130       5134      1   0.078534   0.113679     2.21567e-01     3.28444e-02
      5130       5135      1   0.078534   0.204385     2.86068e-01     1.08078e-01
      5128       5133      1  -0.508176   0.113679     2.47999e-01     1.08078e-01
      5128       5134      1  -0.508176   0.113679     2.47999e-01     1.08078e-01
      5127       5130      1   1.339721   0.065445     3.10656e-01     1.17227e-01
      5127       5131      1   1.339721   0.065445     3.10656e-01     1.17227e-01
      5125       5150      1   0.095591  -0.460790     2.73568e-01     1.08078e-01
      5125       5127      1   0.095591   1.116434     3.10656e-01     1.17227e-01
      5124       5150      1   0.095591  -0.460790     2.73568e-01     1.08078e-01
      5124       5127      1   0.095591   1.116434     3.10656e-01     1.17227e-01
      5122       5124      1   0.063253   0.079659     2.47135e-01     3.28444e-02
      5122       5125      1   0.063253   0.079659     2.47135e-01     3.28444e-02
      5122       5126      1   0.063253  -0.424567     2.73568e-01     1.08078e-01
      5122       5151      1   0.063253   0.748011     2.93551e-01     7.68707e-02
      5120       5122      1   0.070469   0.052711     2.47135e-01     3.28444e-02
      5120       5123      1   0.070469   0.014549     2.93551e-01     8.67002e-02
      5120       5150      1   0.070469  -0.460790     2.73568e-01     1.08078e-01
      5119       5122      1   0.070469   0.052711     2.47135e-01     3.28444e-02
      5119       5123      1   0.070469   0.014549     2.93551e-01     8.67002e-02
      5119       5150      1   0.070469  -0.460790     2.73568e-01     1.08078e-01
      5118       5124      1   0.196939   0.079659     2.93551e-01     8.67002e-02
      5118       5125      1   0.196939   0.079659     2.93551e-01     8.67002e-02
      5117       5122      1  -0.575489   0.052711     2.73568e-01     1.08078e-01
      5115       5119      1   0.910403   0.058724     2.93551e-01     7.68707e-02
      5115       5120      1   0.910403   0.058724     2.93551e-01     7.68707e-02
      5189       5192      1   0.018859   0.044953     2.60142e-01     2.09200e-02
      5189       5191      1   0.018859   0.044953     2.60142e-01     2.09200e-02
      5188       5192      1   0.018859   0.044953     2.60142e-01     2.09200e-02
      5188       5191      1   0.018859   0.044953     2.60142e-01     2.09200e-02
      5186       5190      1   0.020431  -0.136833     3.00055e-01     6.91943e-02
      5186       5189      1   0.020431   0.015716     2.60142e-01     2.09200e-02
      5186       5188      1   0.020431   0.015716     2.60142e-01     2.09200e-02
      5185       5190      1   0.020431  -0.136833     3.00055e-01     6.91943e-02
      5185       5189      1   0.020431   0.015716     2.60142e-01     2.09200e-02
      5185       5188      1   0.020431   0.015716     2.60142e-01     2.09200e-02
      5184       5192      1  -0.026954   0.044953     3.00055e-01     6.91943e-02
      5184       5191      1  -0.026954   0.044953     3.00055e-01     6.91943e-02
      5183       5187      1   0.010573  -0.002029     3.00055e-01     6.91943e-02
      5183       5186      1   0.010573   0.017026     2.60142e-01     2.09200e-02
      5183       5185      1   0.010573   0.017026     2.60142e-01     2.09200e-02
      5182       5187      1   0.010573  -0.002029     3.00055e-01     6.91943e-02
      5182       5186      1   0.010573   0.017026     2.60142e-01     2.09200e-02
      5182       5185      1   0.010573   0.017026     2.60142e-01     2.09200e-02
      5181       5189      1  -0.016521   0.015716     3.00055e-01     6.91943e-02
      5181       5188      1  -0.016521   0.015716     3.00055e-01     6.91943e-02
      5180       5184      1   0.011511  -0.022462     3.00055e-01     6.91943e-02
      5180       5182      1   0.011511   0.008811     2.60142e-01     2.09200e-02
      5180       5183      1   0.011511   0.008811     2.60142e-01     2.09200e-02
      5179       5184      1   0.011511  -0.022462     3.00055e-01     6.91943e-02
      5179       5182      1   0.011511   0.008811     2.60142e-01     2.09200e-02
      5179       5183      1   0.011511   0.008811     2.60142e-01     2.09200e-02
      5178       5186      1  -0.027812   0.017026     3.00055e-01     6.91943e-02
      5178       5185      1  -0.027812   0.017026     3.00055e-01     6.91943e-02
      5177       5181      1   0.006833  -0.013767     3.00055e-01     6.91943e-02
      5177       5179      1   0.006833   0.009592     2.60142e-01     2.09200e-02
      5177       5180      1   0.006833   0.009592     2.60142e-01     2.09200e-02
      5176       5181      1   0.006833  -0.013767     3.00055e-01     6.91943e-02
      5176       5179      1   0.006833   0.009592     2.60142e-01     2.09200e-02
      5176       5180      1   0.006833   0.009592     2.60142e-01     2.09200e-02
      5175       5182      1  -0.004386   0.008811     3.00055e-01     6.91943e-02
      5175       5183      1  -0.004386   0.008811     3.00055e-01     6.91943e-02
      5174       5178      1   0.011241  -0.023177     3.00055e-01     6.91943e-02
      5174       5176      1   0.011241   0.005694     2.60142e-01     2.09200e-02
      5174       5177      1   0.011241   0.005694     2.60142e-01     2.09200e-02
      5173       5178      1   0.011241  -0.023177     3.00055e-01     6.91943e-02
      5173       5176      1   0.011241   0.005694     2.60142e-01     2.09200e-02
      5173       5177      1   0.011241   0.005694     2.60142e-01     2.09200e-02
      5172       5179      1  -0.026451   0.009592     3.00055e-01     6.91943e-02
      5172       5180      1  -0.026451   0.009592     3.00055e-01     6.91943e-02
      5171       5175      1   0.010172  -0.003655     3.00055e-01     6.91943e-02
      5171       5174      1   0.010172   0.009367     2.60142e-01     2.09200e-02
      5171       5173      1   0.010172   0.009367     2.60142e-01     2.09200e-02
      5170       5175      1   0.010172  -0.003655     3.00055e-01     6.91943e-02
      5170       5174      1   0.010172   0.009367     2.60142e-01     2.09200e-02
      5170       5173      1   0.010172   0.009367     2.60142e-01     2.09200e-02
      5169       5176      1  -0.014653   0.005694     3.00055e-01     6.91943e-02
      5169       5177      1  -0.014653   0.005694     3.00055e-01     6.91943e-02
      5168       5172      1   0.010037  -0.022042     3.00055e-01     6.91943e-02
      5168       5170      1   0.010037   0.008477     2.60142e-01     2.09200e-02
      5168       5171      1   0.010037   0.008477     2.60142e-01     2.09200e-02
      5167       5172      1   0.010037  -0.022042     3.00055e-01     6.91943e-02
      5167       5170      1   0.010037   0.008477     2.60142e-01     2.09200e-02
      5167       5171      1   0.010037   0.008477     2.60142e-01     2.09200e-02
      5166       5174      1  -0.021025   0.009367     3.00055e-01     6.91943e-02
      5166       5173      1  -0.021025   0.009367     3.00055e-01     6.91943e-02
      5165       5169      1   0.012677  -0.012211     3.00055e-01     6.91943e-02
      5165       5168      1   0.012677   0.008364     2.60142e-01     2.09200e-02
      5165       5167      1   0.012677   0.008364     2.60142e-01     2.09200e-02
      5164       5169      1   0.012677  -0.012211     3.00055e-01     6.91943e-02
      5164       5168      1   0.012677   0.008364     2.60142e-01     2.09200e-02
      5164       5167      1   0.012677   0.008364     2.60142e-01     2.09200e-02
      5163       5170      1  -0.031787   0.008477     3.00055e-01     6.91943e-02
      5163       5171      1  -0.031787   0.008477     3.00055e-01     6.91943e-02
      5162       5166      1   0.017208  -0.017521     3.00055e-01     6.91943e-02
      5162       5164      1   0.017208   0.010564     2.60142e-01     2.09200e-02
      5162       5165      1   0.017208   0.010564     2.60142e-01     2.09200e-02
      5161       5166      1   0.017208  -0.017521     3.00055e-01     6.91943e-02
      5161       5164      1   0.017208   0.010564     2.60142e-01     2.09200e-02
      5161       5165      1   0.017208   0.010564     2.60142e-01     2.09200e-02
      5160       5168      1  -0.028094   0.008364     3.00055e-01     6.91943e-02
      5160       5167      1  -0.028094   0.008364     3.00055e-01     6.91943e-02
      5159       5163      1   0.007531  -0.026489     3.00055e-01     6.91943e-02
      5159       5162      1   0.007531   0.014340     2.60142e-01     2.09200e-02
      5159       5161      1   0.007531   0.014340     2.60142e-01     2.09200e-02
      5158       5163      1   0.007531  -0.026489     3.00055e-01     6.91943e-02
      5158       5162      1   0.007531   0.014340     2.60142e-01     2.09200e-02
      5158       5161      1   0.007531   0.014340     2.60142e-01     2.09200e-02
      5157       5164      1   0.017463   0.010564     3.00055e-01     6.91943e-02
      5157       5165      1   0.017463   0.010564     3.00055e-01     6.91943e-02
      5156       5160      1   0.025511  -0.023412     3.00055e-01     6.91943e-02
      5156       5158      1   0.025511   0.006276     2.60142e-01     2.09200e-02
      5156       5159      1   0.025511   0.006276     2.60142e-01     2.09200e-02
      5155       5160      1   0.025511  -0.023412     3.00055e-01     6.91943e-02
      5155       5158      1   0.025511   0.006276     2.60142e-01     2.09200e-02
      5155       5159      1   0.025511   0.006276     2.60142e-01     2.09200e-02
      5154       5162      1  -0.111712   0.014340     3.00055e-01     6.91943e-02
      5154       5161      1  -0.111712   0.014340     3.00055e-01     6.91943e-02
      5153       5160      1   0.025511  -0.023412     3.00055e-01     6.91943e-02
      5153       5158      1   0.025511   0.006276     2.60142e-01     2.09200e-02
      5153       5159      1   0.025511   0.006276     2.60142e-01     2.09200e-02
      5232       5234      1   0.053944  -0.559638     2.78067e-01     9.58675e-02
      5232       5235      1   0.053944  -0.479574     2.80072e-01     8.62554e-02
      5231       5234      1   0.053944  -0.559638     2.78067e-01     9.58675e-02
      5231       5235      1   0.053944  -0.479574     2.80072e-01     8.62554e-02
      5229       5232      1   0.018859   0.044953     2.60142e-01     2.09200e-02
      5229       5231      1   0.018859   0.044953     2.60142e-01     2.09200e-02
      5229       5233      1   0.018859   0.758669     3.00055e-01     6.13495e-02
      5228       5232      1   0.018859   0.044953     2.60142e-01     2.09200e-02
      5228       5231      1   0.018859   0.044953     2.60142e-01     2.09200e-02
      5228       5233      1   0.018859   0.758669     3.00055e-01     6.13495e-02
      5226       5230      1   0.020431  -0.136833     3.00055e-01     6.91943e-02
      5226       5229      1   0.020431   0.015716     2.60142e-01     2.09200e-02
      5226       5228      1   0.020431   0.015716     2.60142e-01     2.09200e-02
      5225       5230      1   0.020431  -0.136833     3.00055e-01     6.91943e-02
      5225       5229      1   0.020431   0.015716     2.60142e-01     2.09200e-02
      5225       5228      1   0.020431   0.015716     2.60142e-01     2.09200e-02
      5224       5232      1  -0.026954   0.044953     3.00055e-01     6.91943e-02
      5224       5231      1  -0.026954   0.044953     3.00055e-01     6.91943e-02
      5223       5227      1   0.010573  -0.002029     3.00055e-01     6.91943e-02
      5223       5226      1   0.010573   0.017026     2.60142e-01     2.09200e-02
      5223       5225      1   0.010573   0.017026     2.60142e-01     2.09200e-02
      5222       5227      1   0.010573  -0.002029     3.00055e-01     6.91943e-02
      5222       5226      1   0.010573   0.017026     2.60142e-01     2.09200e-02
      5222       5225      1   0.010573   0.017026     2.60142e-01     2.09200e-02
      5221       5229      1  -0.016521   0.015716     3.00055e-01     6.91943e-02
      5221       5228      1  -0.016521   0.015716     3.00055e-01     6.91943e-02
      5220       5224      1   0.011511  -0.022462     3.00055e-01     6.91943e-02
      5220       5222      1   0.011511   0.008811     2.60142e-01     2.09200e-02
      5220       5223      1   0.011511   0.008811     2.60142e-01     2.09200e-02
      5219       5224      1   0.011511  -0.022462     3.00055e-01     6.91943e-02
      5219       5222      1   0.011511   0.008811     2.60142e-01     2.09200e-02
      5219       5223      1   0.011511   0.008811     2.60142e-01     2.09200e-02
      5218       5226      1  -0.027812   0.017026     3.00055e-01     6.91943e-02
      5218       5225      1  -0.027812   0.017026     3.00055e-01     6.91943e-02
      5217       5221      1   0.006833  -0.013767     3.00055e-01     6.91943e-02
      5217       5219      1   0.006833   0.009592     2.60142e-01     2.09200e-02
      5217       5220      1   0.006833   0.009592     2.60142e-01     2.09200e-02
      5216       5221      1   0.006833  -0.013767     3.00055e-01     6.91943e-02
      5216       5219      1   0.006833   0.009592     2.60142e-01     2.09200e-02
      5216       5220      1   0.006833   0.009592     2.60142e-01     2.09200e-02
      5215       5222      1  -0.004386   0.008811     3.00055e-01     6.91943e-02
      5215       5223      1  -0.004386   0.008811     3.00055e-01     6.91943e-02
      5214       5218      1   0.011241  -0.023177     3.00055e-01     6.91943e-02
      5214       5216      1   0.011241   0.005694     2.60142e-01     2.09200e-02
      5214       5217      1   0.011241   0.005694     2.60142e-01     2.09200e-02
      5213       5218      1   0.011241  -0.023177     3.00055e-01     6.91943e-02
      5213       5216      1   0.011241   0.005694     2.60142e-01     2.09200e-02
      5213       5217      1   0.011241   0.005694     2.60142e-01     2.09200e-02
      5212       5219      1  -0.026451   0.009592     3.00055e-01     6.91943e-02
      5212       5220      1  -0.026451   0.009592     3.00055e-01     6.91943e-02
      5211       5215      1   0.010172  -0.003655     3.00055e-01     6.91943e-02
      5211       5214      1   0.010172   0.009367     2.60142e-01     2.09200e-02
      5211       5213      1   0.010172   0.009367     2.60142e-01     2.09200e-02
      5210       5215      1   0.010172  -0.003655     3.00055e-01     6.91943e-02
      5210       5214      1   0.010172   0.009367     2.60142e-01     2.09200e-02
      5210       5213      1   0.010172   0.009367     2.60142e-01     2.09200e-02
      5209       5216      1  -0.014653   0.005694     3.00055e-01     6.91943e-02
      5209       5217      1  -0.014653   0.005694     3.00055e-01     6.91943e-02
      5208       5212      1   0.010037  -0.022042     3.00055e-01     6.91943e-02
      5208       5210      1   0.010037   0.008477     2.60142e-01     2.09200e-02
      5208       5211      1   0.010037   0.008477     2.60142e-01     2.09200e-02
      5207       5212      1   0.010037  -0.022042     3.00055e-01     6.91943e-02
      5207       5210      1   0.010037   0.008477     2.60142e-01     2.09200e-02
      5207       5211      1   0.010037   0.008477     2.60142e-01     2.09200e-02
      5206       5214      1  -0.021025   0.009367     3.00055e-01     6.91943e-02
      5206       5213      1  -0.021025   0.009367     3.00055e-01     6.91943e-02
      5205       5209      1   0.012677  -0.012211     3.00055e-01     6.91943e-02
      5205       5208      1   0.012677   0.008364     2.60142e-01     2.09200e-02
      5205       5207      1   0.012677   0.008364     2.60142e-01     2.09200e-02
      5204       5209      1   0.012677  -0.012211     3.00055e-01     6.91943e-02
      5204       5208      1   0.012677   0.008364     2.60142e-01     2.09200e-02
      5204       5207      1   0.012677   0.008364     2.60142e-01     2.09200e-02
      5203       5210      1  -0.031787   0.008477     3.00055e-01     6.91943e-02
      5203       5211      1  -0.031787   0.008477     3.00055e-01     6.91943e-02
      5202       5206      1   0.017208  -0.017521     3.00055e-01     6.91943e-02
      5202       5204      1   0.017208   0.010564     2.60142e-01     2.09200e-02
      5202       5205      1   0.017208   0.010564     2.60142e-01     2.09200e-02
      5201       5206      1   0.017208  -0.017521     3.00055e-01     6.91943e-02
      5201       5204      1   0.017208   0.010564     2.60142e-01     2.09200e-02
      5201       5205      1   0.017208   0.010564     2.60142e-01     2.09200e-02
      5200       5208      1  -0.028094   0.008364     3.00055e-01     6.91943e-02
      5200       5207      1  -0.028094   0.008364     3.00055e-01     6.91943e-02
      5199       5203      1   0.007531  -0.026489     3.00055e-01     6.91943e-02
      5199       5202      1   0.007531   0.014340     2.60142e-01     2.09200e-02
      5199       5201      1   0.007531   0.014340     2.60142e-01     2.09200e-02
      5198       5203      1   0.007531  -0.026489     3.00055e-01     6.91943e-02
      5198       5202      1   0.007531   0.014340     2.60142e-01     2.09200e-02
      5198       5201      1   0.007531   0.014340     2.60142e-01     2.09200e-02
      5197       5204      1   0.017463   0.010564     3.00055e-01     6.91943e-02
      5197       5205      1   0.017463   0.010564     3.00055e-01     6.91943e-02
      5196       5200      1   0.025511  -0.023412     3.00055e-01     6.91943e-02
      5196       5198      1   0.025511   0.006276     2.60142e-01     2.09200e-02
      5196       5199      1   0.025511   0.006276     2.60142e-01     2.09200e-02
      5195       5200      1   0.025511  -0.023412     3.00055e-01     6.91943e-02
      5195       5198      1   0.025511   0.006276     2.60142e-01     2.09200e-02
      5195       5199      1   0.025511   0.006276     2.60142e-01     2.09200e-02
      5194       5202      1  -0.111712   0.014340     3.00055e-01     6.91943e-02
      5194       5201      1  -0.111712   0.014340     3.00055e-01     6.91943e-02
      5193       5200      1   0.025511  -0.023412     3.00055e-01     6.91943e-02
      5193       5198      1   0.025511   0.006276     2.60142e-01     2.09200e-02
      5193       5199      1   0.025511   0.006276     2.60142e-01     2.09200e-02
      5270       5310      1  -0.673755   0.044953     2.78067e-01     9.58675e-02
      5270       5309      1  -0.673755   0.044953     2.78067e-01     9.58675e-02
      5269       5307      1   0.897613   0.015716     3.00055e-01     6.13495e-02
      5269       5306      1   0.897613   0.015716     3.00055e-01     6.13495e-02
      5268       5310      1  -0.552948   0.044953     2.80072e-01     8.62554e-02
      5268       5309      1  -0.552948   0.044953     2.80072e-01     8.62554e-02
      5261       5262      1   0.172230  -0.282478     2.67982e-01     8.67002e-02
      5260       5262      1   0.172230  -0.282478     2.67982e-01     8.67002e-02
      5259       5262      1   0.172230  -0.282478     2.67982e-01     8.67002e-02
      5258       5263      1  -0.338973   0.143525     2.67982e-01     8.67002e-02
      5258       5264      1  -0.338973   0.143525     2.67982e-01     8.67002e-02
      5258       5265      1  -0.338973   0.143525     2.67982e-01     8.67002e-02
      5257       5258      1   0.172230  -0.282478     2.67982e-01     8.67002e-02
      5257       5262      1   0.172230  -0.282478     2.67982e-01     8.67002e-02
      5256       5258      1   0.172230  -0.282478     2.67982e-01     8.67002e-02
      5256       5262      1   0.172230  -0.282478     2.67982e-01     8.67002e-02
      5255       5258      1   0.172230  -0.282478     2.67982e-01     8.67002e-02
      5255       5262      1   0.172230  -0.282478     2.67982e-01     8.67002e-02
      5254       5259      1  -0.338973   0.143525     2.67982e-01     8.67002e-02
      5254       5260      1  -0.338973   0.143525     2.67982e-01     8.67002e-02
      5254       5261      1  -0.338973   0.143525     2.67982e-01     8.67002e-02
      5254       5263      1  -0.338973   0.143525     2.67982e-01     8.67002e-02
      5254       5264      1  -0.338973   0.143525     2.67982e-01     8.67002e-02
      5254       5265      1  -0.338973   0.143525     2.67982e-01     8.67002e-02
      5252       5254      1   0.136415  -0.282478     2.67982e-01     8.67002e-02
      5252       5258      1   0.136415  -0.282478     2.67982e-01     8.67002e-02
      5252       5262      1   0.136415  -0.282478     2.67982e-01     8.67002e-02
      5251       5254      1   0.136415  -0.282478     2.67982e-01     8.67002e-02
      5251       5258      1   0.136415  -0.282478     2.67982e-01     8.67002e-02
      5251       5262      1   0.136415  -0.282478     2.67982e-01     8.67002e-02
      5250       5255      1  -0.170824   0.143525     2.67982e-01     8.67002e-02
      5250       5256      1  -0.170824   0.143525     2.67982e-01     8.67002e-02
      5250       5257      1  -0.170824   0.143525     2.67982e-01     8.67002e-02
      5250       5259      1  -0.170824   0.143525     2.67982e-01     8.67002e-02
      5250       5260      1  -0.170824   0.143525     2.67982e-01     8.67002e-02
      5250       5261      1  -0.170824   0.143525     2.67982e-01     8.67002e-02
      5250       5263      1  -0.170824   0.143525     2.67982e-01     8.67002e-02
      5250       5264      1  -0.170824   0.143525     2.67982e-01     8.67002e-02
      5250       5265      1  -0.170824   0.143525     2.67982e-01     8.67002e-02
      5249       5251      1   0.078534   0.113679     2.21567e-01     3.28444e-02
      5249       5252      1   0.078534   0.113679     2.21567e-01     3.28444e-02
      5249       5253      1   0.078534   0.204385     2.86068e-01     1.08078e-01
      5248       5251      1   0.078534   0.113679     2.21567e-01     3.28444e-02
      5248       5252      1   0.078534   0.113679     2.21567e-01     3.28444e-02
      5248       5253      1   0.078534   0.204385     2.86068e-01     1.08078e-01
      5246       5251      1  -0.508176   0.113679     2.47999e-01     1.08078e-01
      5246       5252      1  -0.508176   0.113679     2.47999e-01     1.08078e-01
      5245       5248      1   1.339721   0.065445     3.10656e-01     1.17227e-01
      5245       5249      1   1.339721   0.065445     3.10656e-01     1.17227e-01
      5243       5268      1   0.095591  -0.460790     2.73568e-01     1.08078e-01
      5243       5245      1   0.095591   1.116434     3.10656e-01     1.17227e-01
      5242       5268      1   0.095591  -0.460790     2.73568e-01     1.08078e-01
      5242       5245      1   0.095591   1.116434     3.10656e-01     1.17227e-01
      5240       5242      1   0.063253   0.079659     2.47135e-01     3.28444e-02
      5240       5243      1   0.063253   0.079659     2.47135e-01     3.28444e-02
      5240       5244      1   0.063253  -0.424567     2.73568e-01     1.08078e-01
      5240       5269      1   0.063253   0.748011     2.93551e-01     7.68707e-02
      5238       5240      1   0.070469   0.052711     2.47135e-01     3.28444e-02
      5238       5241      1   0.070469   0.014549     2.93551e-01     8.67002e-02
      5238       5268      1   0.070469  -0.460790     2.73568e-01     1.08078e-01
      5237       5240      1   0.070469   0.052711     2.47135e-01     3.28444e-02
      5237       5241      1   0.070469   0.014549     2.93551e-01     8.67002e-02
      5237       5268      1   0.070469  -0.460790     2.73568e-01     1.08078e-01
      5236       5242      1   0.196939   0.079659     2.93551e-01     8.67002e-02
      5236       5243      1   0.196939   0.079659     2.93551e-01     8.67002e-02
      5235       5240      1  -0.575489   0.052711     2.73568e-01     1.08078e-01
      5233       5237      1   0.910403   0.058724     2.93551e-01     7.68707e-02
      5233       5238      1   0.910403   0.058724     2.93551e-01     7.68707e-02
      5307       5310      1   0.018859   0.044953     2.60142e-01     2.09200e-02
      5307       5309      1   0.018859   0.044953     2.60142e-01     2.09200e-02
      5306       5310      1   0.018859   0.044953     2.60142e-01     2.09200e-02
      5306       5309      1   0.018859   0.044953     2.60142e-01     2.09200e-02
      5304       5308      1   0.020431  -0.136833     3.00055e-01     6.91943e-02
      5304       5307      1   0.020431   0.015716     2.60142e-01     2.09200e-02
      5304       5306      1   0.020431   0.015716     2.60142e-01     2.09200e-02
      5303       5308      1   0.020431  -0.136833     3.00055e-01     6.91943e-02
      5303       5307      1   0.020431   0.015716     2.60142e-01     2.09200e-02
      5303       5306      1   0.020431   0.015716     2.60142e-01     2.09200e-02
      5302       5310      1  -0.026954   0.044953     3.00055e-01     6.91943e-02
      5302       5309      1  -0.026954   0.044953     3.00055e-01     6.91943e-02
      5301       5305      1   0.010573  -0.002029     3.00055e-01     6.91943e-02
      5301       5304      1   0.010573   0.017026     2.60142e-01     2.09200e-02
      5301       5303      1   0.010573   0.017026     2.60142e-01     2.09200e-02
      5300       5305      1   0.010573  -0.002029     3.00055e-01     6.91943e-02
      5300       5304      1   0.010573   0.017026     2.60142e-01     2.09200e-02
      5300       5303      1   0.010573   0.017026     2.60142e-01     2.09200e-02
      5299       5307      1  -0.016521   0.015716     3.00055e-01     6.91943e-02
      5299       5306      1  -0.016521   0.015716     3.00055e-01     6.91943e-02
      5298       5302      1   0.011511  -0.022462     3.00055e-01     6.91943e-02
      5298       5300      1   0.011511   0.008811     2.60142e-01     2.09200e-02
      5298       5301      1   0.011511   0.008811     2.60142e-01     2.09200e-02
      5297       5302      1   0.011511  -0.022462     3.00055e-01     6.91943e-02
      5297       5300      1   0.011511   0.008811     2.60142e-01     2.09200e-02
      5297       5301      1   0.011511   0.008811     2.60142e-01     2.09200e-02
      5296       5304      1  -0.027812   0.017026     3.00055e-01     6.91943e-02
      5296       5303      1  -0.027812   0.017026     3.00055e-01     6.91943e-02
      5295       5299      1   0.006833  -0.013767     3.00055e-01     6.91943e-02
      5295       5297      1   0.006833   0.009592     2.60142e-01     2.09200e-02
      5295       5298      1   0.006833   0.009592     2.60142e-01     2.09200e-02
      5294       5299      1   0.006833  -0.013767     3.00055e-01     6.91943e-02
      5294       5297      1   0.006833   0.009592     2.60142e-01     2.09200e-02
      5294       5298      1   0.006833   0.009592     2.60142e-01     2.09200e-02
      5293       5300      1  -0.004386   0.008811     3.00055e-01     6.91943e-02
      5293       5301      1  -0.004386   0.008811     3.00055e-01     6.91943e-02
      5292       5296      1   0.011241  -0.023177     3.00055e-01     6.91943e-02
      5292       5294      1   0.011241   0.005694     2.60142e-01     2.09200e-02
      5292       5295      1   0.011241   0.005694     2.60142e-01     2.09200e-02
      5291       5296      1   0.011241  -0.023177     3.00055e-01     6.91943e-02
      5291       5294      1   0.011241   0.005694     2.60142e-01     2.09200e-02
      5291       5295      1   0.011241   0.005694     2.60142e-01     2.09200e-02
      5290       5297      1  -0.026451   0.009592     3.00055e-01     6.91943e-02
      5290       5298      1  -0.026451   0.009592     3.00055e-01     6.91943e-02
      5289       5293      1   0.010172  -0.003655     3.00055e-01     6.91943e-02
      5289       5292      1   0.010172   0.009367     2.60142e-01     2.09200e-02
      5289       5291      1   0.010172   0.009367     2.60142e-01     2.09200e-02
      5288       5293      1   0.010172  -0.003655     3.00055e-01     6.91943e-02
      5288       5292      1   0.010172   0.009367     2.60142e-01     2.09200e-02
      5288       5291      1   0.010172   0.009367     2.60142e-01     2.09200e-02
      5287       5294      1  -0.014653   0.005694     3.00055e-01     6.91943e-02
      5287       5295      1  -0.014653   0.005694     3.00055e-01     6.91943e-02
      5286       5290      1   0.010037  -0.022042     3.00055e-01     6.91943e-02
      5286       5288      1   0.010037   0.008477     2.60142e-01     2.09200e-02
      5286       5289      1   0.010037   0.008477     2.60142e-01     2.09200e-02
      5285       5290      1   0.010037  -0.022042     3.00055e-01     6.91943e-02
      5285       5288      1   0.010037   0.008477     2.60142e-01     2.09200e-02
      5285       5289      1   0.010037   0.008477     2.60142e-01     2.09200e-02
      5284       5292      1  -0.021025   0.009367     3.00055e-01     6.91943e-02
      5284       5291      1  -0.021025   0.009367     3.00055e-01     6.91943e-02
      5283       5287      1   0.012677  -0.012211     3.00055e-01     6.91943e-02
      5283       5286      1   0.012677   0.008364     2.60142e-01     2.09200e-02
      5283       5285      1   0.012677   0.008364     2.60142e-01     2.09200e-02
      5282       5287      1   0.012677  -0.012211     3.00055e-01     6.91943e-02
      5282       5286      1   0.012677   0.008364     2.60142e-01     2.09200e-02
      5282       5285      1   0.012677   0.008364     2.60142e-01     2.09200e-02
      5281       5288      1  -0.031787   0.008477     3.00055e-01     6.91943e-02
      5281       5289      1  -0.031787   0.008477     3.00055e-01     6.91943e-02
      5280       5284      1   0.017208  -0.017521     3.00055e-01     6.91943e-02
      5280       5282      1   0.017208   0.010564     2.60142e-01     2.09200e-02
      5280       5283      1   0.017208   0.010564     2.60142e-01     2.09200e-02
      5279       5284      1   0.017208  -0.017521     3.00055e-01     6.91943e-02
      5279       5282      1   0.017208   0.010564     2.60142e-01     2.09200e-02
      5279       5283      1   0.017208   0.010564     2.60142e-01     2.09200e-02
      5278       5286      1  -0.028094   0.008364     3.00055e-01     6.91943e-02
      5278       5285      1  -0.028094   0.008364     3.00055e-01     6.91943e-02
      5277       5281      1   0.007531  -0.026489     3.00055e-01     6.91943e-02
      5277       5280      1   0.007531   0.014340     2.60142e-01     2.09200e-02
      5277       5279      1   0.007531   0.014340     2.60142e-01     2.09200e-02
      5276       5281      1   0.007531  -0.026489     3.00055e-01     6.91943e-02
      5276       5280      1   0.007531   0.014340     2.60142e-01     2.09200e-02
      5276       5279      1   0.007531   0.014340     2.60142e-01     2.09200e-02
      5275       5282      1   0.017463   0.010564     3.00055e-01     6.91943e-02
      5275       5283      1   0.017463   0.010564     3.00055e-01     6.91943e-02
      5274       5278      1   0.025511  -0.023412     3.00055e-01     6.91943e-02
      5274       5276      1   0.025511   0.006276     2.60142e-01     2.09200e-02
      5274       5277      1   0.025511   0.006276     2.60142e-01     2.09200e-02
      5273       5278      1   0.025511  -0.023412     3.00055e-01     6.91943e-02
      5273       5276      1   0.025511   0.006276     2.60142e-01     2.09200e-02
      5273       5277      1   0.025511   0.006276     2.60142e-01     2.09200e-02
      5272       5280      1  -0.111712   0.014340     3.00055e-01     6.91943e-02
      5272       5279      1  -0.111712   0.014340     3.00055e-01     6.91943e-02
      5271       5278      1   0.025511  -0.023412     3.00055e-01     6.91943e-02
      5271       5276      1   0.025511   0.006276     2.60142e-01     2.09200e-02
      5271       5277      1   0.025511   0.006276     2.60142e-01     2.09200e-02
      5350       5352      1   0.053944  -0.559638     2.78067e-01     9.58675e-02
      5350       5353      1   0.053944  -0.479574     2.80072e-01     8.62554e-02
      5349       5352      1   0.053944  -0.559638     2.78067e-01     9.58675e-02
      5349       5353      1   0.053944  -0.479574     2.80072e-01     8.62554e-02
      5347       5350      1   0.018859   0.044953     2.60142e-01     2.09200e-02
      5347       5349      1   0.018859   0.044953     2.60142e-01     2.09200e-02
      5347       5351      1   0.018859   0.758669     3.00055e-01     6.13495e-02
      5346       5350      1   0.018859   0.044953     2.60142e-01     2.09200e-02
      5346       5349      1   0.018859   0.044953     2.60142e-01     2.09200e-02
      5346       5351      1   0.018859   0.758669     3.00055e-01     6.13495e-02
      5344       5348      1   0.020431  -0.136833     3.00055e-01     6.91943e-02
      5344       5347      1   0.020431   0.015716     2.60142e-01     2.09200e-02
      5344       5346      1   0.020431   0.015716     2.60142e-01     2.09200e-02
      5343       5348      1   0.020431  -0.136833     3.00055e-01     6.91943e-02
      5343       5347      1   0.020431   0.015716     2.60142e-01     2.09200e-02
      5343       5346      1   0.020431   0.015716     2.60142e-01     2.09200e-02
      5342       5350      1  -0.026954   0.044953     3.00055e-01     6.91943e-02
      5342       5349      1  -0.026954   0.044953     3.00055e-01     6.91943e-02
      5341       5345      1   0.010573  -0.002029     3.00055e-01     6.91943e-02
      5341       5344      1   0.010573   0.017026     2.60142e-01     2.09200e-02
      5341       5343      1   0.010573   0.017026     2.60142e-01     2.09200e-02
      5340       5345      1   0.010573  -0.002029     3.00055e-01     6.91943e-02
      5340       5344      1   0.010573   0.017026     2.60142e-01     2.09200e-02
      5340       5343      1   0.010573   0.017026     2.60142e-01     2.09200e-02
      5339       5347      1  -0.016521   0.015716     3.00055e-01     6.91943e-02
      5339       5346      1  -0.016521   0.015716     3.00055e-01     6.91943e-02
      5338       5342      1   0.011511  -0.022462     3.00055e-01     6.91943e-02
      5338       5340      1   0.011511   0.008811     2.60142e-01     2.09200e-02
      5338       5341      1   0.011511   0.008811     2.60142e-01     2.09200e-02
      5337       5342      1   0.011511  -0.022462     3.00055e-01     6.91943e-02
      5337       5340      1   0.011511   0.008811     2.60142e-01     2.09200e-02
      5337       5341      1   0.011511   0.008811     2.60142e-01     2.09200e-02
      5336       5344      1  -0.027812   0.017026     3.00055e-01     6.91943e-02
      5336       5343      1  -0.027812   0.017026     3.00055e-01     6.91943e-02
      5335       5339      1   0.006833  -0.013767     3.00055e-01     6.91943e-02
      5335       5337      1   0.006833   0.009592     2.60142e-01     2.09200e-02
      5335       5338      1   0.006833   0.009592     2.60142e-01     2.09200e-02
      5334       5339      1   0.006833  -0.013767     3.00055e-01     6.91943e-02
      5334       5337      1   0.006833   0.009592     2.60142e-01     2.09200e-02
      5334       5338      1   0.006833   0.009592     2.60142e-01     2.09200e-02
      5333       5340      1  -0.004386   0.008811     3.00055e-01     6.91943e-02
      5333       5341      1  -0.004386   0.008811     3.00055e-01     6.91943e-02
      5332       5336      1   0.011241  -0.023177     3.00055e-01     6.91943e-02
      5332       5334      1   0.011241   0.005694     2.60142e-01     2.09200e-02
      5332       5335      1   0.011241   0.005694     2.60142e-01     2.09200e-02
      5331       5336      1   0.011241  -0.023177     3.00055e-01     6.91943e-02
      5331       5334      1   0.011241   0.005694     2.60142e-01     2.09200e-02
      5331       5335      1   0.011241   0.005694     2.60142e-01     2.09200e-02
      5330       5337      1  -0.026451   0.009592     3.00055e-01     6.91943e-02
      5330       5338      1  -0.026451   0.009592     3.00055e-01     6.91943e-02
      5329       5333      1   0.010172  -0.003655     3.00055e-01     6.91943e-02
      5329       5332      1   0.010172   0.009367     2.60142e-01     2.09200e-02
      5329       5331      1   0.010172   0.009367     2.60142e-01     2.09200e-02
      5328       5333      1   0.010172  -0.003655     3.00055e-01     6.91943e-02
      5328       5332      1   0.010172   0.009367     2.60142e-01     2.09200e-02
      5328       5331      1   0.010172   0.009367     2.60142e-01     2.09200e-02
      5327       5334      1  -0.014653   0.005694     3.00055e-01     6.91943e-02
      5327       5335      1  -0.014653   0.005694     3.00055e-01     6.91943e-02
      5326       5330      1   0.010037  -0.022042     3.00055e-01     6.91943e-02
      5326       5328      1   0.010037   0.008477     2.60142e-01     2.09200e-02
      5326       5329      1   0.010037   0.008477     2.60142e-01     2.09200e-02
      5325       5330      1   0.010037  -0.022042     3.00055e-01     6.91943e-02
      5325       5328      1   0.010037   0.008477     2.60142e-01     2.09200e-02
      5325       5329      1   0.010037   0.008477     2.60142e-01     2.09200e-02
      5324       5332      1  -0.021025   0.009367     3.00055e-01     6.91943e-02
      5324       5331      1  -0.021025   0.009367     3.00055e-01     6.91943e-02
      5323       5327      1   0.012677  -0.012211     3.00055e-01     6.91943e-02
      5323       5326      1   0.012677   0.008364     2.60142e-01     2.09200e-02
      5323       5325      1   0.012677   0.008364     2.60142e-01     2.09200e-02
      5322       5327      1   0.012677  -0.012211     3.00055e-01     6.91943e-02
      5322       5326      1   0.012677   0.008364     2.60142e-01     2.09200e-02
      5322       5325      1   0.012677   0.008364     2.60142e-01     2.09200e-02
      5321       5328      1  -0.031787   0.008477     3.00055e-01     6.91943e-02
      5321       5329      1  -0.031787   0.008477     3.00055e-01     6.91943e-02
      5320       5324      1   0.017208  -0.017521     3.00055e-01     6.91943e-02
      5320       5322      1   0.017208   0.010564     2.60142e-01     2.09200e-02
      5320       5323      1   0.017208   0.010564     2.60142e-01     2.09200e-02
      5319       5324      1   0.017208  -0.017521     3.00055e-01     6.91943e-02
      5319       5322      1   0.017208   0.010564     2.60142e-01     2.09200e-02
      5319       5323      1   0.017208   0.010564     2.60142e-01     2.09200e-02
      5318       5326      1  -0.028094   0.008364     3.00055e-01     6.91943e-02
      5318       5325      1  -0.028094   0.008364     3.00055e-01     6.91943e-02
      5317       5321      1   0.007531  -0.026489     3.00055e-01     6.91943e-02
      5317       5320      1   0.007531   0.014340     2.60142e-01     2.09200e-02
      5317       5319      1   0.007531   0.014340     2.60142e-01     2.09200e-02
      5316       5321      1   0.007531  -0.026489     3.00055e-01     6.91943e-02
      5316       5320      1   0.007531   0.014340     2.60142e-01     2.09200e-02
      5316       5319      1   0.007531   0.014340     2.60142e-01     2.09200e-02
      5315       5322      1   0.017463   0.010564     3.00055e-01     6.91943e-02
      5315       5323      1   0.017463   0.010564     3.00055e-01     6.91943e-02
      5314       5318      1   0.025511  -0.023412     3.00055e-01     6.91943e-02
      5314       5316      1   0.025511   0.006276     2.60142e-01     2.09200e-02
      5314       5317      1   0.025511   0.006276     2.60142e-01     2.09200e-02
      5313       5318      1   0.025511  -0.023412     3.00055e-01     6.91943e-02
      5313       5316      1   0.025511   0.006276     2.60142e-01     2.09200e-02
      5313       5317      1   0.025511   0.006276     2.60142e-01     2.09200e-02
      5312       5320      1  -0.111712   0.014340     3.00055e-01     6.91943e-02
      5312       5319      1  -0.111712   0.014340     3.00055e-01     6.91943e-02
      5311       5318      1   0.025511  -0.023412     3.00055e-01     6.91943e-02
      5311       5316      1   0.025511   0.006276     2.60142e-01     2.09200e-02
      5311       5317      1   0.025511   0.006276     2.60142e-01     2.09200e-02
      5388       5428      1  -0.673755   0.044953     2.78067e-01     9.58675e-02
      5388       5427      1  -0.673755   0.044953     2.78067e-01     9.58675e-02
      5387       5425      1   0.897613   0.015716     3.00055e-01     6.13495e-02
      5387       5424      1   0.897613   0.015716     3.00055e-01     6.13495e-02
      5386       5428      1  -0.552948   0.044953     2.80072e-01     8.62554e-02
      5386       5427      1  -0.552948   0.044953     2.80072e-01     8.62554e-02
      5379       5380      1   0.172230  -0.282478     2.67982e-01     8.67002e-02
      5378       5380      1   0.172230  -0.282478     2.67982e-01     8.67002e-02
      5377       5380      1   0.172230  -0.282478     2.67982e-01     8.67002e-02
      5376       5381      1  -0.338973   0.143525     2.67982e-01     8.67002e-02
      5376       5382      1  -0.338973   0.143525     2.67982e-01     8.67002e-02
      5376       5383      1  -0.338973   0.143525     2.67982e-01     8.67002e-02
      5375       5376      1   0.172230  -0.282478     2.67982e-01     8.67002e-02
      5375       5380      1   0.172230  -0.282478     2.67982e-01     8.67002e-02
      5374       5376      1   0.172230  -0.282478     2.67982e-01     8.67002e-02
      5374       5380      1   0.172230  -0.282478     2.67982e-01     8.67002e-02
      5373       5376      1   0.172230  -0.282478     2.67982e-01     8.67002e-02
      5373       5380      1   0.172230  -0.282478     2.67982e-01     8.67002e-02
      5372       5377      1  -0.338973   0.143525     2.67982e-01     8.67002e-02
      5372       5378      1  -0.338973   0.143525     2.67982e-01     8.67002e-02
      5372       5379      1  -0.338973   0.143525     2.67982e-01     8.67002e-02
      5372       5381      1  -0.338973   0.143525     2.67982e-01     8.67002e-02
      5372       5382      1  -0.338973   0.143525     2.67982e-01     8.67002e-02
      5372       5383      1  -0.338973   0.143525     2.67982e-01     8.67002e-02
      5370       5372      1   0.136415  -0.282478     2.67982e-01     8.67002e-02
      5370       5376      1   0.136415  -0.282478     2.67982e-01     8.67002e-02
      5370       5380      1   0.136415  -0.282478     2.67982e-01     8.67002e-02
      5369       5372      1   0.136415  -0.282478     2.67982e-01     8.67002e-02
      5369       5376      1   0.136415  -0.282478     2.67982e-01     8.67002e-02
      5369       5380      1   0.136415  -0.282478     2.67982e-01     8.67002e-02
      5368       5373      1  -0.170824   0.143525     2.67982e-01     8.67002e-02
      5368       5374      1  -0.170824   0.143525     2.67982e-01     8.67002e-02
      5368       5375      1  -0.170824   0.143525     2.67982e-01     8.67002e-02
      5368       5377      1  -0.170824   0.143525     2.67982e-01     8.67002e-02
      5368       5378      1  -0.170824   0.143525     2.67982e-01     8.67002e-02
      5368       5379      1  -0.170824   0.143525     2.67982e-01     8.67002e-02
      5368       5381      1  -0.170824   0.143525     2.67982e-01     8.67002e-02
      5368       5382      1  -0.170824   0.143525     2.67982e-01     8.67002e-02
      5368       5383      1  -0.170824   0.143525     2.67982e-01     8.67002e-02
      5367       5369      1   0.078534   0.113679     2.21567e-01     3.28444e-02
      5367       5370      1   0.078534   0.113679     2.21567e-01     3.28444e-02
      5367       5371      1   0.078534   0.204385     2.86068e-01     1.08078e-01
      5366       5369      1   0.078534   0.113679     2.21567e-01     3.28444e-02
      5366       5370      1   0.078534   0.113679     2.21567e-01     3.28444e-02
      5366       5371      1   0.078534   0.204385     2.86068e-01     1.08078e-01
      5364       5369      1  -0.508176   0.113679     2.47999e-01     1.08078e-01
      5364       5370      1  -0.508176   0.113679     2.47999e-01     1.08078e-01
      5363       5366      1   1.339721   0.065445     3.10656e-01     1.17227e-01
      5363       5367      1   1.339721   0.065445     3.10656e-01     1.17227e-01
      5361       5386      1   0.095591  -0.460790     2.73568e-01     1.08078e-01
      5361       5363      1   0.095591   1.116434     3.10656e-01     1.17227e-01
      5360       5386      1   0.095591  -0.460790     2.73568e-01     1.08078e-01
      5360       5363      1   0.095591   1.116434     3.10656e-01     1.17227e-01
      5358       5360      1   0.063253   0.079659     2.47135e-01     3.28444e-02
      5358       5361      1   0.063253   0.079659     2.47135e-01     3.28444e-02
      5358       5362      1   0.063253  -0.424567     2.73568e-01     1.08078e-01
      5358       5387      1   0.063253   0.748011     2.93551e-01     7.68707e-02
      5356       5358      1   0.070469   0.052711     2.47135e-01     3.28444e-02
      5356       5359      1   0.070469   0.014549     2.93551e-01     8.67002e-02
      5356       5386      1   0.070469  -0.460790     2.73568e-01     1.08078e-01
      5355       5358      1   0.070469   0.052711     2.47135e-01     3.28444e-02
      5355       5359      1   0.070469   0.014549     2.93551e-01     8.67002e-02
      5355       5386      1   0.070469  -0.460790     2.73568e-01     1.08078e-01
      5354       5360      1   0.196939   0.079659     2.93551e-01     8.67002e-02
      5354       5361      1   0.196939   0.079659     2.93551e-01     8.67002e-02
      5353       5358      1  -0.575489   0.052711     2.73568e-01     1.08078e-01
      5351       5355      1   0.910403   0.058724     2.93551e-01     7.68707e-02
      5351       5356      1   0.910403   0.058724     2.93551e-01     7.68707e-02
      5425       5428      1   0.018859   0.044953     2.60142e-01     2.09200e-02
      5425       5427      1   0.018859   0.044953     2.60142e-01     2.09200e-02
      5424       5428      1   0.018859   0.044953     2.60142e-01     2.09200e-02
      5424       5427      1   0.018859   0.044953     2.60142e-01     2.09200e-02
      5422       5426      1   0.020431  -0.136833     3.00055e-01     6.91943e-02
      5422       5425      1   0.020431   0.015716     2.60142e-01     2.09200e-02
      5422       5424      1   0.020431   0.015716     2.60142e-01     2.09200e-02
      5421       5426      1   0.020431  -0.136833     3.00055e-01     6.91943e-02
      5421       5425      1   0.020431   0.015716     2.60142e-01     2.09200e-02
      5421       5424      1   0.020431   0.015716     2.60142e-01     2.09200e-02
      5420       5428      1  -0.026954   0.044953     3.00055e-01     6.91943e-02
      5420       5427      1  -0.026954   0.044953     3.00055e-01     6.91943e-02
      5419       5423      1   0.010573  -0.002029     3.00055e-01     6.91943e-02
      5419       5422      1   0.010573   0.017026     2.60142e-01     2.09200e-02
      5419       5421      1   0.010573   0.017026     2.60142e-01     2.09200e-02
      5418       5423      1   0.010573  -0.002029     3.00055e-01     6.91943e-02
      5418       5422      1   0.010573   0.017026     2.60142e-01     2.09200e-02
      5418       5421      1   0.010573   0.017026     2.60142e-01     2.09200e-02
      5417       5425      1  -0.016521   0.015716     3.00055e-01     6.91943e-02
      5417       5424      1  -0.016521   0.015716     3.00055e-01     6.91943e-02
      5416       5420      1   0.011511  -0.022462     3.00055e-01     6.91943e-02
      5416       5418      1   0.011511   0.008811     2.60142e-01     2.09200e-02
      5416       5419      1   0.011511   0.008811     2.60142e-01     2.09200e-02
      5415       5420      1   0.011511  -0.022462     3.00055e-01     6.91943e-02
      5415       5418      1   0.011511   0.008811     2.60142e-01     2.09200e-02
      5415       5419      1   0.011511   0.008811     2.60142e-01     2.09200e-02
      5414       5422      1  -0.027812   0.017026     3.00055e-01     6.91943e-02
      5414       5421      1  -0.027812   0.017026     3.00055e-01     6.91943e-02
      5413       5417      1   0.006833  -0.013767     3.00055e-01     6.91943e-02
      5413       5415      1   0.006833   0.009592     2.60142e-01     2.09200e-02
      5413       5416      1   0.006833   0.009592     2.60142e-01     2.09200e-02
      5412       5417      1   0.006833  -0.013767     3.00055e-01     6.91943e-02
      5412       5415      1   0.006833   0.009592     2.60142e-01     2.09200e-02
      5412       5416      1   0.006833   0.009592     2.60142e-01     2.09200e-02
      5411       5418      1  -0.004386   0.008811     3.00055e-01     6.91943e-02
      5411       5419      1  -0.004386   0.008811     3.00055e-01     6.91943e-02
      5410       5414      1   0.011241  -0.023177     3.00055e-01     6.91943e-02
      5410       5412      1   0.011241   0.005694     2.60142e-01     2.09200e-02
      5410       5413      1   0.011241   0.005694     2.60142e-01     2.09200e-02
      5409       5414      1   0.011241  -0.023177     3.00055e-01     6.91943e-02
      5409       5412      1   0.011241   0.005694     2.60142e-01     2.09200e-02
      5409       5413      1   0.011241   0.005694     2.60142e-01     2.09200e-02
      5408       5415      1  -0.026451   0.009592     3.00055e-01     6.91943e-02
      5408       5416      1  -0.026451   0.009592     3.00055e-01     6.91943e-02
      5407       5411      1   0.010172  -0.003655     3.00055e-01     6.91943e-02
      5407       5410      1   0.010172   0.009367     2.60142e-01     2.09200e-02
      5407       5409      1   0.010172   0.009367     2.60142e-01     2.09200e-02
      5406       5411      1   0.010172  -0.003655     3.00055e-01     6.91943e-02
      5406       5410      1   0.010172   0.009367     2.60142e-01     2.09200e-02
      5406       5409      1   0.010172   0.009367     2.60142e-01     2.09200e-02
      5405       5412      1  -0.014653   0.005694     3.00055e-01     6.91943e-02
      5405       5413      1  -0.014653   0.005694     3.00055e-01     6.91943e-02
      5404       5408      1   0.010037  -0.022042     3.00055e-01     6.91943e-02
      5404       5406      1   0.010037   0.008477     2.60142e-01     2.09200e-02
      5404       5407      1   0.010037   0.008477     2.60142e-01     2.09200e-02
      5403       5408      1   0.010037  -0.022042     3.00055e-01     6.91943e-02
      5403       5406      1   0.010037   0.008477     2.60142e-01     2.09200e-02
      5403       5407      1   0.010037   0.008477     2.60142e-01     2.09200e-02
      5402       5410      1  -0.021025   0.009367     3.00055e-01     6.91943e-02
      5402       5409      1  -0.021025   0.009367     3.00055e-01     6.91943e-02
      5401       5405      1   0.012677  -0.012211     3.00055e-01     6.91943e-02
      5401       5404      1   0.012677   0.008364     2.60142e-01     2.09200e-02
      5401       5403      1   0.012677   0.008364     2.60142e-01     2.09200e-02
      5400       5405      1   0.012677  -0.012211     3.00055e-01     6.91943e-02
      5400       5404      1   0.012677   0.008364     2.60142e-01     2.09200e-02
      5400       5403      1   0.012677   0.008364     2.60142e-01     2.09200e-02
      5399       5406      1  -0.031787   0.008477     3.00055e-01     6.91943e-02
      5399       5407      1  -0.031787   0.008477     3.00055e-01     6.91943e-02
      5398       5402      1   0.017208  -0.017521     3.00055e-01     6.91943e-02
      5398       5400      1   0.017208   0.010564     2.60142e-01     2.09200e-02
      5398       5401      1   0.017208   0.010564     2.60142e-01     2.09200e-02
      5397       5402      1   0.017208  -0.017521     3.00055e-01     6.91943e-02
      5397       5400      1   0.017208   0.010564     2.60142e-01     2.09200e-02
      5397       5401      1   0.017208   0.010564     2.60142e-01     2.09200e-02
      5396       5404      1  -0.028094   0.008364     3.00055e-01     6.91943e-02
      5396       5403      1  -0.028094   0.008364     3.00055e-01     6.91943e-02
      5395       5399      1   0.007531  -0.026489     3.00055e-01     6.91943e-02
      5395       5398      1   0.007531   0.014340     2.60142e-01     2.09200e-02
      5395       5397      1   0.007531   0.014340     2.60142e-01     2.09200e-02
      5394       5399      1   0.007531  -0.026489     3.00055e-01     6.91943e-02
      5394       5398      1   0.007531   0.014340     2.60142e-01     2.09200e-02
      5394       5397      1   0.007531   0.014340     2.60142e-01     2.09200e-02
      5393       5400      1   0.017463   0.010564     3.00055e-01     6.91943e-02
      5393       5401      1   0.017463   0.010564     3.00055e-01     6.91943e-02
      5392       5396      1   0.025511  -0.023412     3.00055e-01     6.91943e-02
      5392       5394      1   0.025511   0.006276     2.60142e-01     2.09200e-02
      5392       5395      1   0.025511   0.006276     2.60142e-01     2.09200e-02
      5391       5396      1   0.025511  -0.023412     3.00055e-01     6.91943e-02
      5391       5394      1   0.025511   0.006276     2.60142e-01     2.09200e-02
      5391       5395      1   0.025511   0.006276     2.60142e-01     2.09200e-02
      5390       5398      1  -0.111712   0.014340     3.00055e-01     6.91943e-02
      5390       5397      1  -0.111712   0.014340     3.00055e-01     6.91943e-02
      5389       5396      1   0.025511  -0.023412     3.00055e-01     6.91943e-02
      5389       5394      1   0.025511   0.006276     2.60142e-01     2.09200e-02
      5389       5395      1   0.025511   0.006276     2.60142e-01     2.09200e-02
      5468       5470      1   0.053944  -0.559638     2.78067e-01     9.58675e-02
      5468       5471      1   0.053944  -0.479574     2.80072e-01     8.62554e-02
      5467       5470      1   0.053944  -0.559638     2.78067e-01     9.58675e-02
      5467       5471      1   0.053944  -0.479574     2.80072e-01     8.62554e-02
      5465       5468      1   0.018859   0.044953     2.60142e-01     2.09200e-02
      5465       5467      1   0.018859   0.044953     2.60142e-01     2.09200e-02
      5465       5469      1   0.018859   0.758669     3.00055e-01     6.13495e-02
      5464       5468      1   0.018859   0.044953     2.60142e-01     2.09200e-02
      5464       5467      1   0.018859   0.044953     2.60142e-01     2.09200e-02
      5464       5469      1   0.018859   0.758669     3.00055e-01     6.13495e-02
      5462       5466      1   0.020431  -0.136833     3.00055e-01     6.91943e-02
      5462       5465      1   0.020431   0.015716     2.60142e-01     2.09200e-02
      5462       5464      1   0.020431   0.015716     2.60142e-01     2.09200e-02
      5461       5466      1   0.020431  -0.136833     3.00055e-01     6.91943e-02
      5461       5465      1   0.020431   0.015716     2.60142e-01     2.09200e-02
      5461       5464      1   0.020431   0.015716     2.60142e-01     2.09200e-02
      5460       5468      1  -0.026954   0.044953     3.00055e-01     6.91943e-02
      5460       5467      1  -0.026954   0.044953     3.00055e-01     6.91943e-02
      5459       5463      1   0.010573  -0.002029     3.00055e-01     6.91943e-02
      5459       5462      1   0.010573   0.017026     2.60142e-01     2.09200e-02
      5459       5461      1   0.010573   0.017026     2.60142e-01     2.09200e-02
      5458       5463      1   0.010573  -0.002029     3.00055e-01     6.91943e-02
      5458       5462      1   0.010573   0.017026     2.60142e-01     2.09200e-02
      5458       5461      1   0.010573   0.017026     2.60142e-01     2.09200e-02
      5457       5465      1  -0.016521   0.015716     3.00055e-01     6.91943e-02
      5457       5464      1  -0.016521   0.015716     3.00055e-01     6.91943e-02
      5456       5460      1   0.011511  -0.022462     3.00055e-01     6.91943e-02
      5456       5458      1   0.011511   0.008811     2.60142e-01     2.09200e-02
      5456       5459      1   0.011511   0.008811     2.60142e-01     2.09200e-02
      5455       5460      1   0.011511  -0.022462     3.00055e-01     6.91943e-02
      5455       5458      1   0.011511   0.008811     2.60142e-01     2.09200e-02
      5455       5459      1   0.011511   0.008811     2.60142e-01     2.09200e-02
      5454       5462      1  -0.027812   0.017026     3.00055e-01     6.91943e-02
      5454       5461      1  -0.027812   0.017026     3.00055e-01     6.91943e-02
      5453       5457      1   0.006833  -0.013767     3.00055e-01     6.91943e-02
      5453       5455      1   0.006833   0.009592     2.60142e-01     2.09200e-02
      5453       5456      1   0.006833   0.009592     2.60142e-01     2.09200e-02
      5452       5457      1   0.006833  -0.013767     3.00055e-01     6.91943e-02
      5452       5455      1   0.006833   0.009592     2.60142e-01     2.09200e-02
      5452       5456      1   0.006833   0.009592     2.60142e-01     2.09200e-02
      5451       5458      1  -0.004386   0.008811     3.00055e-01     6.91943e-02
      5451       5459      1  -0.004386   0.008811     3.00055e-01     6.91943e-02
      5450       5454      1   0.011241  -0.023177     3.00055e-01     6.91943e-02
      5450       5452      1   0.011241   0.005694     2.60142e-01     2.09200e-02
      5450       5453      1   0.011241   0.005694     2.60142e-01     2.09200e-02
      5449       5454      1   0.011241  -0.023177     3.00055e-01     6.91943e-02
      5449       5452      1   0.011241   0.005694     2.60142e-01     2.09200e-02
      5449       5453      1   0.011241   0.005694     2.60142e-01     2.09200e-02
      5448       5455      1  -0.026451   0.009592     3.00055e-01     6.91943e-02
      5448       5456      1  -0.026451   0.009592     3.00055e-01     6.91943e-02
      5447       5451      1   0.010172  -0.003655     3.00055e-01     6.91943e-02
      5447       5450      1   0.010172   0.009367     2.60142e-01     2.09200e-02
      5447       5449      1   0.010172   0.009367     2.60142e-01     2.09200e-02
      5446       5451      1   0.010172  -0.003655     3.00055e-01     6.91943e-02
      5446       5450      1   0.010172   0.009367     2.60142e-01     2.09200e-02
      5446       5449      1   0.010172   0.009367     2.60142e-01     2.09200e-02
      5445       5452      1  -0.014653   0.005694     3.00055e-01     6.91943e-02
      5445       5453      1  -0.014653   0.005694     3.00055e-01     6.91943e-02
      5444       5448      1   0.010037  -0.022042     3.00055e-01     6.91943e-02
      5444       5446      1   0.010037   0.008477     2.60142e-01     2.09200e-02
      5444       5447      1   0.010037   0.008477     2.60142e-01     2.09200e-02
      5443       5448      1   0.010037  -0.022042     3.00055e-01     6.91943e-02
      5443       5446      1   0.010037   0.008477     2.60142e-01     2.09200e-02
      5443       5447      1   0.010037   0.008477     2.60142e-01     2.09200e-02
      5442       5450      1  -0.021025   0.009367     3.00055e-01     6.91943e-02
      5442       5449      1  -0.021025   0.009367     3.00055e-01     6.91943e-02
      5441       5445      1   0.012677  -0.012211     3.00055e-01     6.91943e-02
      5441       5444      1   0.012677   0.008364     2.60142e-01     2.09200e-02
      5441       5443      1   0.012677   0.008364     2.60142e-01     2.09200e-02
      5440       5445      1   0.012677  -0.012211     3.00055e-01     6.91943e-02
      5440       5444      1   0.012677   0.008364     2.60142e-01     2.09200e-02
      5440       5443      1   0.012677   0.008364     2.60142e-01     2.09200e-02
      5439       5446      1  -0.031787   0.008477     3.00055e-01     6.91943e-02
      5439       5447      1  -0.031787   0.008477     3.00055e-01     6.91943e-02
      5438       5442      1   0.017208  -0.017521     3.00055e-01     6.91943e-02
      5438       5440      1   0.017208   0.010564     2.60142e-01     2.09200e-02
      5438       5441      1   0.017208   0.010564     2.60142e-01     2.09200e-02
      5437       5442      1   0.017208  -0.017521     3.00055e-01     6.91943e-02
      5437       5440      1   0.017208   0.010564     2.60142e-01     2.09200e-02
      5437       5441      1   0.017208   0.010564     2.60142e-01     2.09200e-02
      5436       5444      1  -0.028094   0.008364     3.00055e-01     6.91943e-02
      5436       5443      1  -0.028094   0.008364     3.00055e-01     6.91943e-02
      5435       5439      1   0.007531  -0.026489     3.00055e-01     6.91943e-02
      5435       5438      1   0.007531   0.014340     2.60142e-01     2.09200e-02
      5435       5437      1   0.007531   0.014340     2.60142e-01     2.09200e-02
      5434       5439      1   0.007531  -0.026489     3.00055e-01     6.91943e-02
      5434       5438      1   0.007531   0.014340     2.60142e-01     2.09200e-02
      5434       5437      1   0.007531   0.014340     2.60142e-01     2.09200e-02
      5433       5440      1   0.017463   0.010564     3.00055e-01     6.91943e-02
      5433       5441      1   0.017463   0.010564     3.00055e-01     6.91943e-02
      5432       5436      1   0.025511  -0.023412     3.00055e-01     6.91943e-02
      5432       5434      1   0.025511   0.006276     2.60142e-01     2.09200e-02
      5432       5435      1   0.025511   0.006276     2.60142e-01     2.09200e-02
      5431       5436      1   0.025511  -0.023412     3.00055e-01     6.91943e-02
      5431       5434      1   0.025511   0.006276     2.60142e-01     2.09200e-02
      5431       5435      1   0.025511   0.006276     2.60142e-01     2.09200e-02
      5430       5438      1  -0.111712   0.014340     3.00055e-01     6.91943e-02
      5430       5437      1  -0.111712   0.014340     3.00055e-01     6.91943e-02
      5429       5436      1   0.025511  -0.023412     3.00055e-01     6.91943e-02
      5429       5434      1   0.025511   0.006276     2.60142e-01     2.09200e-02
      5429       5435      1   0.025511   0.006276     2.60142e-01     2.09200e-02
      5506       5546      1  -0.673755   0.044953     2.78067e-01     9.58675e-02
      5506       5545      1  -0.673755   0.044953     2.78067e-01     9.58675e-02
      5505       5543      1   0.897613   0.015716     3.00055e-01     6.13495e-02
      5505       5542      1   0.897613   0.015716     3.00055e-01     6.13495e-02
      5504       5546      1  -0.552948   0.044953     2.80072e-01     8.62554e-02
      5504       5545      1  -0.552948   0.044953     2.80072e-01     8.62554e-02
      5497       5498      1   0.172230  -0.282478     2.67982e-01     8.67002e-02
      5496       5498      1   0.172230  -0.282478     2.67982e-01     8.67002e-02
      5495       5498      1   0.172230  -0.282478     2.67982e-01     8.67002e-02
      5494       5499      1  -0.338973   0.143525     2.67982e-01     8.67002e-02
      5494       5500      1  -0.338973   0.143525     2.67982e-01     8.67002e-02
      5494       5501      1  -0.338973   0.143525     2.67982e-01     8.67002e-02
      5493       5494      1   0.172230  -0.282478     2.67982e-01     8.67002e-02
      5493       5498      1   0.172230  -0.282478     2.67982e-01     8.67002e-02
      5492       5494      1   0.172230  -0.282478     2.67982e-01     8.67002e-02
      5492       5498      1   0.172230  -0.282478     2.67982e-01     8.67002e-02
      5491       5494      1   0.172230  -0.282478     2.67982e-01     8.67002e-02
      5491       5498      1   0.172230  -0.282478     2.67982e-01     8.67002e-02
      5490       5495      1  -0.338973   0.143525     2.67982e-01     8.67002e-02
      5490       5496      1  -0.338973   0.143525     2.67982e-01     8.67002e-02
      5490       5497      1  -0.338973   0.143525     2.67982e-01     8.67002e-02
      5490       5499      1  -0.338973   0.143525     2.67982e-01     8.67002e-02
      5490       5500      1  -0.338973   0.143525     2.67982e-01     8.67002e-02
      5490       5501      1  -0.338973   0.143525     2.67982e-01     8.67002e-02
      5488       5490      1   0.136415  -0.282478     2.67982e-01     8.67002e-02
      5488       5494      1   0.136415  -0.282478     2.67982e-01     8.67002e-02
      5488       5498      1   0.136415  -0.282478     2.67982e-01     8.67002e-02
      5487       5490      1   0.136415  -0.282478     2.67982e-01     8.67002e-02
      5487       5494      1   0.136415  -0.282478     2.67982e-01     8.67002e-02
      5487       5498      1   0.136415  -0.282478     2.67982e-01     8.67002e-02
      5486       5491      1  -0.170824   0.143525     2.67982e-01     8.67002e-02
      5486       5492      1  -0.170824   0.143525     2.67982e-01     8.67002e-02
      5486       5493      1  -0.170824   0.143525     2.67982e-01     8.67002e-02
      5486       5495      1  -0.170824   0.143525     2.67982e-01     8.67002e-02
      5486       5496      1  -0.170824   0.143525     2.67982e-01     8.67002e-02
      5486       5497      1  -0.170824   0.143525     2.67982e-01     8.67002e-02
      5486       5499      1  -0.170824   0.143525     2.67982e-01     8.67002e-02
      5486       5500      1  -0.170824   0.143525     2.67982e-01     8.67002e-02
      5486       5501      1  -0.170824   0.143525     2.67982e-01     8.67002e-02
      5485       5487      1   0.078534   0.113679     2.21567e-01     3.28444e-02
      5485       5488      1   0.078534   0.113679     2.21567e-01     3.28444e-02
      5485       5489      1   0.078534   0.204385     2.86068e-01     1.08078e-01
      5484       5487      1   0.078534   0.113679     2.21567e-01     3.28444e-02
      5484       5488      1   0.078534   0.113679     2.21567e-01     3.28444e-02
      5484       5489      1   0.078534   0.204385     2.86068e-01     1.08078e-01
      5482       5487      1  -0.508176   0.113679     2.47999e-01     1.08078e-01
      5482       5488      1  -0.508176   0.113679     2.47999e-01     1.08078e-01
      5481       5484      1   1.339721   0.065445     3.10656e-01     1.17227e-01
      5481       5485      1   1.339721   0.065445     3.10656e-01     1.17227e-01
      5479       5504      1   0.095591  -0.460790     2.73568e-01     1.08078e-01
      5479       5481      1   0.095591   1.116434     3.10656e-01     1.17227e-01
      5478       5504      1   0.095591  -0.460790     2.73568e-01     1.08078e-01
      5478       5481      1   0.095591   1.116434     3.10656e-01     1.17227e-01
      5476       5478      1   0.063253   0.079659     2.47135e-01     3.28444e-02
      5476       5479      1   0.063253   0.079659     2.47135e-01     3.28444e-02
      5476       5480      1   0.063253  -0.424567     2.73568e-01     1.08078e-01
      5476       5505      1   0.063253   0.748011     2.93551e-01     7.68707e-02
      5474       5476      1   0.070469   0.052711     2.47135e-01     3.28444e-02
      5474       5477      1   0.070469   0.014549     2.93551e-01     8.67002e-02
      5474       5504      1   0.070469  -0.460790     2.73568e-01     1.08078e-01
      5473       5476      1   0.070469   0.052711     2.47135e-01     3.28444e-02
      5473       5477      1   0.070469   0.014549     2.93551e-01     8.67002e-02
      5473       5504      1   0.070469  -0.460790     2.73568e-01     1.08078e-01
      5472       5478      1   0.196939   0.079659     2.93551e-01     8.67002e-02
      5472       5479      1   0.196939   0.079659     2.93551e-01     8.67002e-02
      5471       5476      1  -0.575489   0.052711     2.73568e-01     1.08078e-01
      5469       5473      1   0.910403   0.058724     2.93551e-01     7.68707e-02
      5469       5474      1   0.910403   0.058724     2.93551e-01     7.68707e-02
      5543       5546      1   0.018859   0.044953     2.60142e-01     2.09200e-02
      5543       5545      1   0.018859   0.044953     2.60142e-01     2.09200e-02
      5542       5546      1   0.018859   0.044953     2.60142e-01     2.09200e-02
      5542       5545      1   0.018859   0.044953     2.60142e-01     2.09200e-02
      5540       5544      1   0.020431  -0.136833     3.00055e-01     6.91943e-02
      5540       5543      1   0.020431   0.015716     2.60142e-01     2.09200e-02
      5540       5542      1   0.020431   0.015716     2.60142e-01     2.09200e-02
      5539       5544      1   0.020431  -0.136833     3.00055e-01     6.91943e-02
      5539       5543      1   0.020431   0.015716     2.60142e-01     2.09200e-02
      5539       5542      1   0.020431   0.015716     2.60142e-01     2.09200e-02
      5538       5546      1  -0.026954   0.044953     3.00055e-01     6.91943e-02
      5538       5545      1  -0.026954   0.044953     3.00055e-01     6.91943e-02
      5537       5541      1   0.010573  -0.002029     3.00055e-01     6.91943e-02
      5537       5540      1   0.010573   0.017026     2.60142e-01     2.09200e-02
      5537       5539      1   0.010573   0.017026     2.60142e-01     2.09200e-02
      5536       5541      1   0.010573  -0.002029     3.00055e-01     6.91943e-02
      5536       5540      1   0.010573   0.017026     2.60142e-01     2.09200e-02
      5536       5539      1   0.010573   0.017026     2.60142e-01     2.09200e-02
      5535       5543      1  -0.016521   0.015716     3.00055e-01     6.91943e-02
      5535       5542      1  -0.016521   0.015716     3.00055e-01     6.91943e-02
      5534       5538      1   0.011511  -0.022462     3.00055e-01     6.91943e-02
      5534       5536      1   0.011511   0.008811     2.60142e-01     2.09200e-02
      5534       5537      1   0.011511   0.008811     2.60142e-01     2.09200e-02
      5533       5538      1   0.011511  -0.022462     3.00055e-01     6.91943e-02
      5533       5536      1   0.011511   0.008811     2.60142e-01     2.09200e-02
      5533       5537      1   0.011511   0.008811     2.60142e-01     2.09200e-02
      5532       5540      1  -0.027812   0.017026     3.00055e-01     6.91943e-02
      5532       5539      1  -0.027812   0.017026     3.00055e-01     6.91943e-02
      5531       5535      1   0.006833  -0.013767     3.00055e-01     6.91943e-02
      5531       5533      1   0.006833   0.009592     2.60142e-01     2.09200e-02
      5531       5534      1   0.006833   0.009592     2.60142e-01     2.09200e-02
      5530       5535      1   0.006833  -0.013767     3.00055e-01     6.91943e-02
      5530       5533      1   0.006833   0.009592     2.60142e-01     2.09200e-02
      5530       5534      1   0.006833   0.009592     2.60142e-01     2.09200e-02
      5529       5536      1  -0.004386   0.008811     3.00055e-01     6.91943e-02
      5529       5537      1  -0.004386   0.008811     3.00055e-01     6.91943e-02
      5528       5532      1   0.011241  -0.023177     3.00055e-01     6.91943e-02
      5528       5530      1   0.011241   0.005694     2.60142e-01     2.09200e-02
      5528       5531      1   0.011241   0.005694     2.60142e-01     2.09200e-02
      5527       5532      1   0.011241  -0.023177     3.00055e-01     6.91943e-02
      5527       5530      1   0.011241   0.005694     2.60142e-01     2.09200e-02
      5527       5531      1   0.011241   0.005694     2.60142e-01     2.09200e-02
      5526       5533      1  -0.026451   0.009592     3.00055e-01     6.91943e-02
      5526       5534      1  -0.026451   0.009592     3.00055e-01     6.91943e-02
      5525       5529      1   0.010172  -0.003655     3.00055e-01     6.91943e-02
      5525       5528      1   0.010172   0.009367     2.60142e-01     2.09200e-02
      5525       5527      1   0.010172   0.009367     2.60142e-01     2.09200e-02
      5524       5529      1   0.010172  -0.003655     3.00055e-01     6.91943e-02
      5524       5528      1   0.010172   0.009367     2.60142e-01     2.09200e-02
      5524       5527      1   0.010172   0.009367     2.60142e-01     2.09200e-02
      5523       5530      1  -0.014653   0.005694     3.00055e-01     6.91943e-02
      5523       5531      1  -0.014653   0.005694     3.00055e-01     6.91943e-02
      5522       5526      1   0.010037  -0.022042     3.00055e-01     6.91943e-02
      5522       5524      1   0.010037   0.008477     2.60142e-01     2.09200e-02
      5522       5525      1   0.010037   0.008477     2.60142e-01     2.09200e-02
      5521       5526      1   0.010037  -0.022042     3.00055e-01     6.91943e-02
      5521       5524      1   0.010037   0.008477     2.60142e-01     2.09200e-02
      5521       5525      1   0.010037   0.008477     2.60142e-01     2.09200e-02
      5520       5528      1  -0.021025   0.009367     3.00055e-01     6.91943e-02
      5520       5527      1  -0.021025   0.009367     3.00055e-01     6.91943e-02
      5519       5523      1   0.012677  -0.012211     3.00055e-01     6.91943e-02
      5519       5522      1   0.012677   0.008364     2.60142e-01     2.09200e-02
      5519       5521      1   0.012677   0.008364     2.60142e-01     2.09200e-02
      5518       5523      1   0.012677  -0.012211     3.00055e-01     6.91943e-02
      5518       5522      1   0.012677   0.008364     2.60142e-01     2.09200e-02
      5518       5521      1   0.012677   0.008364     2.60142e-01     2.09200e-02
      5517       5524      1  -0.031787   0.008477     3.00055e-01     6.91943e-02
      5517       5525      1  -0.031787   0.008477     3.00055e-01     6.91943e-02
      5516       5520      1   0.017208  -0.017521     3.00055e-01     6.91943e-02
      5516       5518      1   0.017208   0.010564     2.60142e-01     2.09200e-02
      5516       5519      1   0.017208   0.010564     2.60142e-01     2.09200e-02
      5515       5520      1   0.017208  -0.017521     3.00055e-01     6.91943e-02
      5515       5518      1   0.017208   0.010564     2.60142e-01     2.09200e-02
      5515       5519      1   0.017208   0.010564     2.60142e-01     2.09200e-02
      5514       5522      1  -0.028094   0.008364     3.00055e-01     6.91943e-02
      5514       5521      1  -0.028094   0.008364     3.00055e-01     6.91943e-02
      5513       5517      1   0.007531  -0.026489     3.00055e-01     6.91943e-02
      5513       5516      1   0.007531   0.014340     2.60142e-01     2.09200e-02
      5513       5515      1   0.007531   0.014340     2.60142e-01     2.09200e-02
      5512       5517      1   0.007531  -0.026489     3.00055e-01     6.91943e-02
      5512       5516      1   0.007531   0.014340     2.60142e-01     2.09200e-02
      5512       5515      1   0.007531   0.014340     2.60142e-01     2.09200e-02
      5511       5518      1   0.017463   0.010564     3.00055e-01     6.91943e-02
      5511       5519      1   0.017463   0.010564     3.00055e-01     6.91943e-02
      5510       5514      1   0.025511  -0.023412     3.00055e-01     6.91943e-02
      5510       5512      1   0.025511   0.006276     2.60142e-01     2.09200e-02
      5510       5513      1   0.025511   0.006276     2.60142e-01     2.09200e-02
      5509       5514      1   0.025511  -0.023412     3.00055e-01     6.91943e-02
      5509       5512      1   0.025511   0.006276     2.60142e-01     2.09200e-02
      5509       5513      1   0.025511   0.006276     2.60142e-01     2.09200e-02
      5508       5516      1  -0.111712   0.014340     3.00055e-01     6.91943e-02
      5508       5515      1  -0.111712   0.014340     3.00055e-01     6.91943e-02
      5507       5514      1   0.025511  -0.023412     3.00055e-01     6.91943e-02
      5507       5512      1   0.025511   0.006276     2.60142e-01     2.09200e-02
      5507       5513      1   0.025511   0.006276     2.60142e-01     2.09200e-02
      5586       5588      1   0.053944  -0.559638     2.78067e-01     9.58675e-02
      5586       5589      1   0.053944  -0.479574     2.80072e-01     8.62554e-02
      5585       5588      1   0.053944  -0.559638     2.78067e-01     9.58675e-02
      5585       5589      1   0.053944  -0.479574     2.80072e-01     8.62554e-02
      5583       5586      1   0.018859   0.044953     2.60142e-01     2.09200e-02
      5583       5585      1   0.018859   0.044953     2.60142e-01     2.09200e-02
      5583       5587      1   0.018859   0.758669     3.00055e-01     6.13495e-02
      5582       5586      1   0.018859   0.044953     2.60142e-01     2.09200e-02
      5582       5585      1   0.018859   0.044953     2.60142e-01     2.09200e-02
      5582       5587      1   0.018859   0.758669     3.00055e-01     6.13495e-02
      5580       5584      1   0.020431  -0.136833     3.00055e-01     6.91943e-02
      5580       5583      1   0.020431   0.015716     2.60142e-01     2.09200e-02
      5580       5582      1   0.020431   0.015716     2.60142e-01     2.09200e-02
      5579       5584      1   0.020431  -0.136833     3.00055e-01     6.91943e-02
      5579       5583      1   0.020431   0.015716     2.60142e-01     2.09200e-02
      5579       5582      1   0.020431   0.015716     2.60142e-01     2.09200e-02
      5578       5586      1  -0.026954   0.044953     3.00055e-01     6.91943e-02
      5578       5585      1  -0.026954   0.044953     3.00055e-01     6.91943e-02
      5577       5581      1   0.010573  -0.002029     3.00055e-01     6.91943e-02
      5577       5580      1   0.010573   0.017026     2.60142e-01     2.09200e-02
      5577       5579      1   0.010573   0.017026     2.60142e-01     2.09200e-02
      5576       5581      1   0.010573  -0.002029     3.00055e-01     6.91943e-02
      5576       5580      1   0.010573   0.017026     2.60142e-01     2.09200e-02
      5576       5579      1   0.010573   0.017026     2.60142e-01     2.09200e-02
      5575       5583      1  -0.016521   0.015716     3.00055e-01     6.91943e-02
      5575       5582      1  -0.016521   0.015716     3.00055e-01     6.91943e-02
      5574       5578      1   0.011511  -0.022462     3.00055e-01     6.91943e-02
      5574       5576      1   0.011511   0.008811     2.60142e-01     2.09200e-02
      5574       5577      1   0.011511   0.008811     2.60142e-01     2.09200e-02
      5573       5578      1   0.011511  -0.022462     3.00055e-01     6.91943e-02
      5573       5576      1   0.011511   0.008811     2.60142e-01     2.09200e-02
      5573       5577      1   0.011511   0.008811     2.60142e-01     2.09200e-02
      5572       5580      1  -0.027812   0.017026     3.00055e-01     6.91943e-02
      5572       5579      1  -0.027812   0.017026     3.00055e-01     6.91943e-02
      5571       5575      1   0.006833  -0.013767     3.00055e-01     6.91943e-02
      5571       5573      1   0.006833   0.009592     2.60142e-01     2.09200e-02
      5571       5574      1   0.006833   0.009592     2.60142e-01     2.09200e-02
      5570       5575      1   0.006833  -0.013767     3.00055e-01     6.91943e-02
      5570       5573      1   0.006833   0.009592     2.60142e-01     2.09200e-02
      5570       5574      1   0.006833   0.009592     2.60142e-01     2.09200e-02
      5569       5576      1  -0.004386   0.008811     3.00055e-01     6.91943e-02
      5569       5577      1  -0.004386   0.008811     3.00055e-01     6.91943e-02
      5568       5572      1   0.011241  -0.023177     3.00055e-01     6.91943e-02
      5568       5570      1   0.011241   0.005694     2.60142e-01     2.09200e-02
      5568       5571      1   0.011241   0.005694     2.60142e-01     2.09200e-02
      5567       5572      1   0.011241  -0.023177     3.00055e-01     6.91943e-02
      5567       5570      1   0.011241   0.005694     2.60142e-01     2.09200e-02
      5567       5571      1   0.011241   0.005694     2.60142e-01     2.09200e-02
      5566       5573      1  -0.026451   0.009592     3.00055e-01     6.91943e-02
      5566       5574      1  -0.026451   0.009592     3.00055e-01     6.91943e-02
      5565       5569      1   0.010172  -0.003655     3.00055e-01     6.91943e-02
      5565       5568      1   0.010172   0.009367     2.60142e-01     2.09200e-02
      5565       5567      1   0.010172   0.009367     2.60142e-01     2.09200e-02
      5564       5569      1   0.010172  -0.003655     3.00055e-01     6.91943e-02
      5564       5568      1   0.010172   0.009367     2.60142e-01     2.09200e-02
      5564       5567      1   0.010172   0.009367     2.60142e-01     2.09200e-02
      5563       5570      1  -0.014653   0.005694     3.00055e-01     6.91943e-02
      5563       5571      1  -0.014653   0.005694     3.00055e-01     6.91943e-02
      5562       5566      1   0.010037  -0.022042     3.00055e-01     6.91943e-02
      5562       5564      1   0.010037   0.008477     2.60142e-01     2.09200e-02
      5562       5565      1   0.010037   0.008477     2.60142e-01     2.09200e-02
      5561       5566      1   0.010037  -0.022042     3.00055e-01     6.91943e-02
      5561       5564      1   0.010037   0.008477     2.60142e-01     2.09200e-02
      5561       5565      1   0.010037   0.008477     2.60142e-01     2.09200e-02
      5560       5568      1  -0.021025   0.009367     3.00055e-01     6.91943e-02
      5560       5567      1  -0.021025   0.009367     3.00055e-01     6.91943e-02
      5559       5563      1   0.012677  -0.012211     3.00055e-01     6.91943e-02
      5559       5562      1   0.012677   0.008364     2.60142e-01     2.09200e-02
      5559       5561      1   0.012677   0.008364     2.60142e-01     2.09200e-02
      5558       5563      1   0.012677  -0.012211     3.00055e-01     6.91943e-02
      5558       5562      1   0.012677   0.008364     2.60142e-01     2.09200e-02
      5558       5561      1   0.012677   0.008364     2.60142e-01     2.09200e-02
      5557       5564      1  -0.031787   0.008477     3.00055e-01     6.91943e-02
      5557       5565      1  -0.031787   0.008477     3.00055e-01     6.91943e-02
      5556       5560      1   0.017208  -0.017521     3.00055e-01     6.91943e-02
      5556       5558      1   0.017208   0.010564     2.60142e-01     2.09200e-02
      5556       5559      1   0.017208   0.010564     2.60142e-01     2.09200e-02
      5555       5560      1   0.017208  -0.017521     3.00055e-01     6.91943e-02
      5555       5558      1   0.017208   0.010564     2.60142e-01     2.09200e-02
      5555       5559      1   0.017208   0.010564     2.60142e-01     2.09200e-02
      5554       5562      1  -0.028094   0.008364     3.00055e-01     6.91943e-02
      5554       5561      1  -0.028094   0.008364     3.00055e-01     6.91943e-02
      5553       5557      1   0.007531  -0.026489     3.00055e-01     6.91943e-02
      5553       5556      1   0.007531   0.014340     2.60142e-01     2.09200e-02
      5553       5555      1   0.007531   0.014340     2.60142e-01     2.09200e-02
      5552       5557      1   0.007531  -0.026489     3.00055e-01     6.91943e-02
      5552       5556      1   0.007531   0.014340     2.60142e-01     2.09200e-02
      5552       5555      1   0.007531   0.014340     2.60142e-01     2.09200e-02
      5551       5558      1   0.017463   0.010564     3.00055e-01     6.91943e-02
      5551       5559      1   0.017463   0.010564     3.00055e-01     6.91943e-02
      5550       5554      1   0.025511  -0.023412     3.00055e-01     6.91943e-02
      5550       5552      1   0.025511   0.006276     2.60142e-01     2.09200e-02
      5550       5553      1   0.025511   0.006276     2.60142e-01     2.09200e-02
      5549       5554      1   0.025511  -0.023412     3.00055e-01     6.91943e-02
      5549       5552      1   0.025511   0.006276     2.60142e-01     2.09200e-02
      5549       5553      1   0.025511   0.006276     2.60142e-01     2.09200e-02
      5548       5556      1  -0.111712   0.014340     3.00055e-01     6.91943e-02
      5548       5555      1  -0.111712   0.014340     3.00055e-01     6.91943e-02
      5547       5554      1   0.025511  -0.023412     3.00055e-01     6.91943e-02
      5547       5552      1   0.025511   0.006276     2.60142e-01     2.09200e-02
      5547       5553      1   0.025511   0.006276     2.60142e-01     2.09200e-02
      5624       5664      1  -0.673755   0.044953     2.78067e-01     9.58675e-02
      5624       5663      1  -0.673755   0.044953     2.78067e-01     9.58675e-02
      5623       5661      1   0.897613   0.015716     3.00055e-01     6.13495e-02
      5623       5660      1   0.897613   0.015716     3.00055e-01     6.13495e-02
      5622       5664      1  -0.552948   0.044953     2.80072e-01     8.62554e-02
      5622       5663      1  -0.552948   0.044953     2.80072e-01     8.62554e-02
      5615       5616      1   0.172230  -0.282478     2.67982e-01     8.67002e-02
      5614       5616      1   0.172230  -0.282478     2.67982e-01     8.67002e-02
      5613       5616      1   0.172230  -0.282478     2.67982e-01     8.67002e-02
      5612       5617      1  -0.338973   0.143525     2.67982e-01     8.67002e-02
      5612       5618      1  -0.338973   0.143525     2.67982e-01     8.67002e-02
      5612       5619      1  -0.338973   0.143525     2.67982e-01     8.67002e-02
      5611       5612      1   0.172230  -0.282478     2.67982e-01     8.67002e-02
      5611       5616      1   0.172230  -0.282478     2.67982e-01     8.67002e-02
      5610       5612      1   0.172230  -0.282478     2.67982e-01     8.67002e-02
      5610       5616      1   0.172230  -0.282478     2.67982e-01     8.67002e-02
      5609       5612      1   0.172230  -0.282478     2.67982e-01     8.67002e-02
      5609       5616      1   0.172230  -0.282478     2.67982e-01     8.67002e-02
      5608       5613      1  -0.338973   0.143525     2.67982e-01     8.67002e-02
      5608       5614      1  -0.338973   0.143525     2.67982e-01     8.67002e-02
      5608       5615      1  -0.338973   0.143525     2.67982e-01     8.67002e-02
      5608       5617      1  -0.338973   0.143525     2.67982e-01     8.67002e-02
      5608       5618      1  -0.338973   0.143525     2.67982e-01     8.67002e-02
      5608       5619      1  -0.338973   0.143525     2.67982e-01     8.67002e-02
      5606       5608      1   0.136415  -0.282478     2.67982e-01     8.67002e-02
      5606       5612      1   0.136415  -0.282478     2.67982e-01     8.67002e-02
      5606       5616      1   0.136415  -0.282478     2.67982e-01     8.67002e-02
      5605       5608      1   0.136415  -0.282478     2.67982e-01     8.67002e-02
      5605       5612      1   0.136415  -0.282478     2.67982e-01     8.67002e-02
      5605       5616      1   0.136415  -0.282478     2.67982e-01     8.67002e-02
      5604       5609      1  -0.170824   0.143525     2.67982e-01     8.67002e-02
      5604       5610      1  -0.170824   0.143525     2.67982e-01     8.67002e-02
      5604       5611      1  -0.170824   0.143525     2.67982e-01     8.67002e-02
      5604       5613      1  -0.170824   0.143525     2.67982e-01     8.67002e-02
      5604       5614      1  -0.170824   0.143525     2.67982e-01     8.67002e-02
      5604       5615      1  -0.170824   0.143525     2.67982e-01     8.67002e-02
      5604       5617      1  -0.170824   0.143525     2.67982e-01     8.67002e-02
      5604       5618      1  -0.170824   0.143525     2.67982e-01     8.67002e-02
      5604       5619      1  -0.170824   0.143525     2.67982e-01     8.67002e-02
      5603       5605      1   0.078534   0.113679     2.21567e-01     3.28444e-02
      5603       5606      1   0.078534   0.113679     2.21567e-01     3.28444e-02
      5603       5607      1   0.078534   0.204385     2.86068e-01     1.08078e-01
      5602       5605      1   0.078534   0.113679     2.21567e-01     3.28444e-02
      5602       5606      1   0.078534   0.113679     2.21567e-01     3.28444e-02
      5602       5607      1   0.078534   0.204385     2.86068e-01     1.08078e-01
      5600       5605      1  -0.508176   0.113679     2.47999e-01     1.08078e-01
      5600       5606      1  -0.508176   0.113679     2.47999e-01     1.08078e-01
      5599       5602      1   1.339721   0.065445     3.10656e-01     1.17227e-01
      5599       5603      1   1.339721   0.065445     3.10656e-01     1.17227e-01
      5597       5622      1   0.095591  -0.460790     2.73568e-01     1.08078e-01
      5597       5599      1   0.095591   1.116434     3.10656e-01     1.17227e-01
      5596       5622      1   0.095591  -0.460790     2.73568e-01     1.08078e-01
      5596       5599      1   0.095591   1.116434     3.10656e-01     1.17227e-01
      5594       5596      1   0.063253   0.079659     2.47135e-01     3.28444e-02
      5594       5597      1   0.063253   0.079659     2.47135e-01     3.28444e-02
      5594       5598      1   0.063253  -0.424567     2.73568e-01     1.08078e-01
      5594       5623      1   0.063253   0.748011     2.93551e-01     7.68707e-02
      5592       5594      1   0.070469   0.052711     2.47135e-01     3.28444e-02
      5592       5595      1   0.070469   0.014549     2.93551e-01     8.67002e-02
      5592       5622      1   0.070469  -0.460790     2.73568e-01     1.08078e-01
      5591       5594      1   0.070469   0.052711     2.47135e-01     3.28444e-02
      5591       5595      1   0.070469   0.014549     2.93551e-01     8.67002e-02
      5591       5622      1   0.070469  -0.460790     2.73568e-01     1.08078e-01
      5590       5596      1   0.196939   0.079659     2.93551e-01     8.67002e-02
      5590       5597      1   0.196939   0.079659     2.93551e-01     8.67002e-02
      5589       5594      1  -0.575489   0.052711     2.73568e-01     1.08078e-01
      5587       5591      1   0.910403   0.058724     2.93551e-01     7.68707e-02
      5587       5592      1   0.910403   0.058724     2.93551e-01     7.68707e-02
      5661       5664      1   0.018859   0.044953     2.60142e-01     2.09200e-02
      5661       5663      1   0.018859   0.044953     2.60142e-01     2.09200e-02
      5660       5664      1   0.018859   0.044953     2.60142e-01     2.09200e-02
      5660       5663      1   0.018859   0.044953     2.60142e-01     2.09200e-02
      5658       5662      1   0.020431  -0.136833     3.00055e-01     6.91943e-02
      5658       5661      1   0.020431   0.015716     2.60142e-01     2.09200e-02
      5658       5660      1   0.020431   0.015716     2.60142e-01     2.09200e-02
      5657       5662      1   0.020431  -0.136833     3.00055e-01     6.91943e-02
      5657       5661      1   0.020431   0.015716     2.60142e-01     2.09200e-02
      5657       5660      1   0.020431   0.015716     2.60142e-01     2.09200e-02
      5656       5664      1  -0.026954   0.044953     3.00055e-01     6.91943e-02
      5656       5663      1  -0.026954   0.044953     3.00055e-01     6.91943e-02
      5655       5659      1   0.010573  -0.002029     3.00055e-01     6.91943e-02
      5655       5658      1   0.010573   0.017026     2.60142e-01     2.09200e-02
      5655       5657      1   0.010573   0.017026     2.60142e-01     2.09200e-02
      5654       5659      1   0.010573  -0.002029     3.00055e-01     6.91943e-02
      5654       5658      1   0.010573   0.017026     2.60142e-01     2.09200e-02
      5654       5657      1   0.010573   0.017026     2.60142e-01     2.09200e-02
      5653       5661      1  -0.016521   0.015716     3.00055e-01     6.91943e-02
      5653       5660      1  -0.016521   0.015716     3.00055e-01     6.91943e-02
      5652       5656      1   0.011511  -0.022462     3.00055e-01     6.91943e-02
      5652       5654      1   0.011511   0.008811     2.60142e-01     2.09200e-02
      5652       5655      1   0.011511   0.008811     2.60142e-01     2.09200e-02
      5651       5656      1   0.011511  -0.022462     3.00055e-01     6.91943e-02
      5651       5654      1   0.011511   0.008811     2.60142e-01     2.09200e-02
      5651       5655      1   0.011511   0.008811     2.60142e-01     2.09200e-02
      5650       5658      1  -0.027812   0.017026     3.00055e-01     6.91943e-02
      5650       5657      1  -0.027812   0.017026     3.00055e-01     6.91943e-02
      5649       5653      1   0.006833  -0.013767     3.00055e-01     6.91943e-02
      5649       5651      1   0.006833   0.009592     2.60142e-01     2.09200e-02
      5649       5652      1   0.006833   0.009592     2.60142e-01     2.09200e-02
      5648       5653      1   0.006833  -0.013767     3.00055e-01     6.91943e-02
      5648       5651      1   0.006833   0.009592     2.60142e-01     2.09200e-02
      5648       5652      1   0.006833   0.009592     2.60142e-01     2.09200e-02
      5647       5654      1  -0.004386   0.008811     3.00055e-01     6.91943e-02
      5647       5655      1  -0.004386   0.008811     3.00055e-01     6.91943e-02
      5646       5650      1   0.011241  -0.023177     3.00055e-01     6.91943e-02
      5646       5648      1   0.011241   0.005694     2.60142e-01     2.09200e-02
      5646       5649      1   0.011241   0.005694     2.60142e-01     2.09200e-02
      5645       5650      1   0.011241  -0.023177     3.00055e-01     6.91943e-02
      5645       5648      1   0.011241   0.005694     2.60142e-01     2.09200e-02
      5645       5649      1   0.011241   0.005694     2.60142e-01     2.09200e-02
      5644       5651      1  -0.026451   0.009592     3.00055e-01     6.91943e-02
      5644       5652      1  -0.026451   0.009592     3.00055e-01     6.91943e-02
      5643       5647      1   0.010172  -0.003655     3.00055e-01     6.91943e-02
      5643       5646      1   0.010172   0.009367     2.60142e-01     2.09200e-02
      5643       5645      1   0.010172   0.009367     2.60142e-01     2.09200e-02
      5642       5647      1   0.010172  -0.003655     3.00055e-01     6.91943e-02
      5642       5646      1   0.010172   0.009367     2.60142e-01     2.09200e-02
      5642       5645      1   0.010172   0.009367     2.60142e-01     2.09200e-02
      5641       5648      1  -0.014653   0.005694     3.00055e-01     6.91943e-02
      5641       5649      1  -0.014653   0.005694     3.00055e-01     6.91943e-02
      5640       5644      1   0.010037  -0.022042     3.00055e-01     6.91943e-02
      5640       5642      1   0.010037   0.008477     2.60142e-01     2.09200e-02
      5640       5643      1   0.010037   0.008477     2.60142e-01     2.09200e-02
      5639       5644      1   0.010037  -0.022042     3.00055e-01     6.91943e-02
      5639       5642      1   0.010037   0.008477     2.60142e-01     2.09200e-02
      5639       5643      1   0.010037   0.008477     2.60142e-01     2.09200e-02
      5638       5646      1  -0.021025   0.009367     3.00055e-01     6.91943e-02
      5638       5645      1  -0.021025   0.009367     3.00055e-01     6.91943e-02
      5637       5641      1   0.012677  -0.012211     3.00055e-01     6.91943e-02
      5637       5640      1   0.012677   0.008364     2.60142e-01     2.09200e-02
      5637       5639      1   0.012677   0.008364     2.60142e-01     2.09200e-02
      5636       5641      1   0.012677  -0.012211     3.00055e-01     6.91943e-02
      5636       5640      1   0.012677   0.008364     2.60142e-01     2.09200e-02
      5636       5639      1   0.012677   0.008364     2.60142e-01     2.09200e-02
      5635       5642      1  -0.031787   0.008477     3.00055e-01     6.91943e-02
      5635       5643      1  -0.031787   0.008477     3.00055e-01     6.91943e-02
      5634       5638      1   0.017208  -0.017521     3.00055e-01     6.91943e-02
      5634       5636      1   0.017208   0.010564     2.60142e-01     2.09200e-02
      5634       5637      1   0.017208   0.010564     2.60142e-01     2.09200e-02
      5633       5638      1   0.017208  -0.017521     3.00055e-01     6.91943e-02
      5633       5636      1   0.017208   0.010564     2.60142e-01     2.09200e-02
      5633       5637      1   0.017208   0.010564     2.60142e-01     2.09200e-02
      5632       5640      1  -0.028094   0.008364     3.00055e-01     6.91943e-02
      5632       5639      1  -0.028094   0.008364     3.00055e-01     6.91943e-02
      5631       5635      1   0.007531  -0.026489     3.00055e-01     6.91943e-02
      5631       5634      1   0.007531   0.014340     2.60142e-01     2.09200e-02
      5631       5633      1   0.007531   0.014340     2.60142e-01     2.09200e-02
      5630       5635      1   0.007531  -0.026489     3.00055e-01     6.91943e-02
      5630       5634      1   0.007531   0.014340     2.60142e-01     2.09200e-02
      5630       5633      1   0.007531   0.014340     2.60142e-01     2.09200e-02
      5629       5636      1   0.017463   0.010564     3.00055e-01     6.91943e-02
      5629       5637      1   0.017463   0.010564     3.00055e-01     6.91943e-02
      5628       5632      1   0.025511  -0.023412     3.00055e-01     6.91943e-02
      5628       5630      1   0.025511   0.006276     2.60142e-01     2.09200e-02
      5628       5631      1   0.025511   0.006276     2.60142e-01     2.09200e-02
      5627       5632      1   0.025511  -0.023412     3.00055e-01     6.91943e-02
      5627       5630      1   0.025511   0.006276     2.60142e-01     2.09200e-02
      5627       5631      1   0.025511   0.006276     2.60142e-01     2.09200e-02
      5626       5634      1  -0.111712   0.014340     3.00055e-01     6.91943e-02
      5626       5633      1  -0.111712   0.014340     3.00055e-01     6.91943e-02
      5625       5632      1   0.025511  -0.023412     3.00055e-01     6.91943e-02
      5625       5630      1   0.025511   0.006276     2.60142e-01     2.09200e-02
      5625       5631      1   0.025511   0.006276     2.60142e-01     2.09200e-02
      5704       5706      1   0.053944  -0.559638     2.78067e-01     9.58675e-02
      5704       5707      1   0.053944  -0.479574     2.80072e-01     8.62554e-02
      5703       5706      1   0.053944  -0.559638     2.78067e-01     9.58675e-02
      5703       5707      1   0.053944  -0.479574     2.80072e-01     8.62554e-02
      5701       5704      1   0.018859   0.044953     2.60142e-01     2.09200e-02
      5701       5703      1   0.018859   0.044953     2.60142e-01     2.09200e-02
      5701       5705      1   0.018859   0.758669     3.00055e-01     6.13495e-02
      5700       5704      1   0.018859   0.044953     2.60142e-01     2.09200e-02
      5700       5703      1   0.018859   0.044953     2.60142e-01     2.09200e-02
      5700       5705      1   0.018859   0.758669     3.00055e-01     6.13495e-02
      5698       5702      1   0.020431  -0.136833     3.00055e-01     6.91943e-02
      5698       5701      1   0.020431   0.015716     2.60142e-01     2.09200e-02
      5698       5700      1   0.020431   0.015716     2.60142e-01     2.09200e-02
      5697       5702      1   0.020431  -0.136833     3.00055e-01     6.91943e-02
      5697       5701      1   0.020431   0.015716     2.60142e-01     2.09200e-02
      5697       5700      1   0.020431   0.015716     2.60142e-01     2.09200e-02
      5696       5704      1  -0.026954   0.044953     3.00055e-01     6.91943e-02
      5696       5703      1  -0.026954   0.044953     3.00055e-01     6.91943e-02
      5695       5699      1   0.010573  -0.002029     3.00055e-01     6.91943e-02
      5695       5698      1   0.010573   0.017026     2.60142e-01     2.09200e-02
      5695       5697      1   0.010573   0.017026     2.60142e-01     2.09200e-02
      5694       5699      1   0.010573  -0.002029     3.00055e-01     6.91943e-02
      5694       5698      1   0.010573   0.017026     2.60142e-01     2.09200e-02
      5694       5697      1   0.010573   0.017026     2.60142e-01     2.09200e-02
      5693       5701      1  -0.016521   0.015716     3.00055e-01     6.91943e-02
      5693       5700      1  -0.016521   0.015716     3.00055e-01     6.91943e-02
      5692       5696      1   0.011511  -0.022462     3.00055e-01     6.91943e-02
      5692       5694      1   0.011511   0.008811     2.60142e-01     2.09200e-02
      5692       5695      1   0.011511   0.008811     2.60142e-01     2.09200e-02
      5691       5696      1   0.011511  -0.022462     3.00055e-01     6.91943e-02
      5691       5694      1   0.011511   0.008811     2.60142e-01     2.09200e-02
      5691       5695      1   0.011511   0.008811     2.60142e-01     2.09200e-02
      5690       5698      1  -0.027812   0.017026     3.00055e-01     6.91943e-02
      5690       5697      1  -0.027812   0.017026     3.00055e-01     6.91943e-02
      5689       5693      1   0.006833  -0.013767     3.00055e-01     6.91943e-02
      5689       5691      1   0.006833   0.009592     2.60142e-01     2.09200e-02
      5689       5692      1   0.006833   0.009592     2.60142e-01     2.09200e-02
      5688       5693      1   0.006833  -0.013767     3.00055e-01     6.91943e-02
      5688       5691      1   0.006833   0.009592     2.60142e-01     2.09200e-02
      5688       5692      1   0.006833   0.009592     2.60142e-01     2.09200e-02
      5687       5694      1  -0.004386   0.008811     3.00055e-01     6.91943e-02
      5687       5695      1  -0.004386   0.008811     3.00055e-01     6.91943e-02
      5686       5690      1   0.011241  -0.023177     3.00055e-01     6.91943e-02
      5686       5688      1   0.011241   0.005694     2.60142e-01     2.09200e-02
      5686       5689      1   0.011241   0.005694     2.60142e-01     2.09200e-02
      5685       5690      1   0.011241  -0.023177     3.00055e-01     6.91943e-02
      5685       5688      1   0.011241   0.005694     2.60142e-01     2.09200e-02
      5685       5689      1   0.011241   0.005694     2.60142e-01     2.09200e-02
      5684       5691      1  -0.026451   0.009592     3.00055e-01     6.91943e-02
      5684       5692      1  -0.026451   0.009592     3.00055e-01     6.91943e-02
      5683       5687      1   0.010172  -0.003655     3.00055e-01     6.91943e-02
      5683       5686      1   0.010172   0.009367     2.60142e-01     2.09200e-02
      5683       5685      1   0.010172   0.009367     2.60142e-01     2.09200e-02
      5682       5687      1   0.010172  -0.003655     3.00055e-01     6.91943e-02
      5682       5686      1   0.010172   0.009367     2.60142e-01     2.09200e-02
      5682       5685      1   0.010172   0.009367     2.60142e-01     2.09200e-02
      5681       5688      1  -0.014653   0.005694     3.00055e-01     6.91943e-02
      5681       5689      1  -0.014653   0.005694     3.00055e-01     6.91943e-02
      5680       5684      1   0.010037  -0.022042     3.00055e-01     6.91943e-02
      5680       5682      1   0.010037   0.008477     2.60142e-01     2.09200e-02
      5680       5683      1   0.010037   0.008477     2.60142e-01     2.09200e-02
      5679       5684      1   0.010037  -0.022042     3.00055e-01     6.91943e-02
      5679       5682      1   0.010037   0.008477     2.60142e-01     2.09200e-02
      5679       5683      1   0.010037   0.008477     2.60142e-01     2.09200e-02
      5678       5686      1  -0.021025   0.009367     3.00055e-01     6.91943e-02
      5678       5685      1  -0.021025   0.009367     3.00055e-01     6.91943e-02
      5677       5681      1   0.012677  -0.012211     3.00055e-01     6.91943e-02
      5677       5680      1   0.012677   0.008364     2.60142e-01     2.09200e-02
      5677       5679      1   0.012677   0.008364     2.60142e-01     2.09200e-02
      5676       5681      1   0.012677  -0.012211     3.00055e-01     6.91943e-02
      5676       5680      1   0.012677   0.008364     2.60142e-01     2.09200e-02
      5676       5679      1   0.012677   0.008364     2.60142e-01     2.09200e-02
      5675       5682      1  -0.031787   0.008477     3.00055e-01     6.91943e-02
      5675       5683      1  -0.031787   0.008477     3.00055e-01     6.91943e-02
      5674       5678      1   0.017208  -0.017521     3.00055e-01     6.91943e-02
      5674       5676      1   0.017208   0.010564     2.60142e-01     2.09200e-02
      5674       5677      1   0.017208   0.010564     2.60142e-01     2.09200e-02
      5673       5678      1   0.017208  -0.017521     3.00055e-01     6.91943e-02
      5673       5676      1   0.017208   0.010564     2.60142e-01     2.09200e-02
      5673       5677      1   0.017208   0.010564     2.60142e-01     2.09200e-02
      5672       5680      1  -0.028094   0.008364     3.00055e-01     6.91943e-02
      5672       5679      1  -0.028094   0.008364     3.00055e-01     6.91943e-02
      5671       5675      1   0.007531  -0.026489     3.00055e-01     6.91943e-02
      5671       5674      1   0.007531   0.014340     2.60142e-01     2.09200e-02
      5671       5673      1   0.007531   0.014340     2.60142e-01     2.09200e-02
      5670       5675      1   0.007531  -0.026489     3.00055e-01     6.91943e-02
      5670       5674      1   0.007531   0.014340     2.60142e-01     2.09200e-02
      5670       5673      1   0.007531   0.014340     2.60142e-01     2.09200e-02
      5669       5676      1   0.017463   0.010564     3.00055e-01     6.91943e-02
      5669       5677      1   0.017463   0.010564     3.00055e-01     6.91943e-02
      5668       5672      1   0.025511  -0.023412     3.00055e-01     6.91943e-02
      5668       5670      1   0.025511   0.006276     2.60142e-01     2.09200e-02
      5668       5671      1   0.025511   0.006276     2.60142e-01     2.09200e-02
      5667       5672      1   0.025511  -0.023412     3.00055e-01     6.91943e-02
      5667       5670      1   0.025511   0.006276     2.60142e-01     2.09200e-02
      5667       5671      1   0.025511   0.006276     2.60142e-01     2.09200e-02
      5666       5674      1  -0.111712   0.014340     3.00055e-01     6.91943e-02
      5666       5673      1  -0.111712   0.014340     3.00055e-01     6.91943e-02
      5665       5672      1   0.025511  -0.023412     3.00055e-01     6.91943e-02
      5665       5670      1   0.025511   0.006276     2.60142e-01     2.09200e-02
      5665       5671      1   0.025511   0.006276     2.60142e-01     2.09200e-02
      5742       5782      1  -0.673755   0.044953     2.78067e-01     9.58675e-02
      5742       5781      1  -0.673755   0.044953     2.78067e-01     9.58675e-02
      5741       5779      1   0.897613   0.015716     3.00055e-01     6.13495e-02
      5741       5778      1   0.897613   0.015716     3.00055e-01     6.13495e-02
      5740       5782      1  -0.552948   0.044953     2.80072e-01     8.62554e-02
      5740       5781      1  -0.552948   0.044953     2.80072e-01     8.62554e-02
      5733       5734      1   0.172230  -0.282478     2.67982e-01     8.67002e-02
      5732       5734      1   0.172230  -0.282478     2.67982e-01     8.67002e-02
      5731       5734      1   0.172230  -0.282478     2.67982e-01     8.67002e-02
      5730       5735      1  -0.338973   0.143525     2.67982e-01     8.67002e-02
      5730       5736      1  -0.338973   0.143525     2.67982e-01     8.67002e-02
      5730       5737      1  -0.338973   0.143525     2.67982e-01     8.67002e-02
      5729       5730      1   0.172230  -0.282478     2.67982e-01     8.67002e-02
      5729       5734      1   0.172230  -0.282478     2.67982e-01     8.67002e-02
      5728       5730      1   0.172230  -0.282478     2.67982e-01     8.67002e-02
      5728       5734      1   0.172230  -0.282478     2.67982e-01     8.67002e-02
      5727       5730      1   0.172230  -0.282478     2.67982e-01     8.67002e-02
      5727       5734      1   0.172230  -0.282478     2.67982e-01     8.67002e-02
      5726       5731      1  -0.338973   0.143525     2.67982e-01     8.67002e-02
      5726       5732      1  -0.338973   0.143525     2.67982e-01     8.67002e-02
      5726       5733      1  -0.338973   0.143525     2.67982e-01     8.67002e-02
      5726       5735      1  -0.338973   0.143525     2.67982e-01     8.67002e-02
      5726       5736      1  -0.338973   0.143525     2.67982e-01     8.67002e-02
      5726       5737      1  -0.338973   0.143525     2.67982e-01     8.67002e-02
      5724       5726      1   0.136415  -0.282478     2.67982e-01     8.67002e-02
      5724       5730      1   0.136415  -0.282478     2.67982e-01     8.67002e-02
      5724       5734      1   0.136415  -0.282478     2.67982e-01     8.67002e-02
      5723       5726      1   0.136415  -0.282478     2.67982e-01     8.67002e-02
      5723       5730      1   0.136415  -0.282478     2.67982e-01     8.67002e-02
      5723       5734      1   0.136415  -0.282478     2.67982e-01     8.67002e-02
      5722       5727      1  -0.170824   0.143525     2.67982e-01     8.67002e-02
      5722       5728      1  -0.170824   0.143525     2.67982e-01     8.67002e-02
      5722       5729      1  -0.170824   0.143525     2.67982e-01     8.67002e-02
      5722       5731      1  -0.170824   0.143525     2.67982e-01     8.67002e-02
      5722       5732      1  -0.170824   0.143525     2.67982e-01     8.67002e-02
      5722       5733      1  -0.170824   0.143525     2.67982e-01     8.67002e-02
      5722       5735      1  -0.170824   0.143525     2.67982e-01     8.67002e-02
      5722       5736      1  -0.170824   0.143525     2.67982e-01     8.67002e-02
      5722       5737      1  -0.170824   0.143525     2.67982e-01     8.67002e-02
      5721       5723      1   0.078534   0.113679     2.21567e-01     3.28444e-02
      5721       5724      1   0.078534   0.113679     2.21567e-01     3.28444e-02
      5721       5725      1   0.078534   0.204385     2.86068e-01     1.08078e-01
      5720       5723      1   0.078534   0.113679     2.21567e-01     3.28444e-02
      5720       5724      1   0.078534   0.113679     2.21567e-01     3.28444e-02
      5720       5725      1   0.078534   0.204385     2.86068e-01     1.08078e-01
      5718       5723      1  -0.508176   0.113679     2.47999e-01     1.08078e-01
      5718       5724      1  -0.508176   0.113679     2.47999e-01     1.08078e-01
      5717       5720      1   1.339721   0.065445     3.10656e-01     1.17227e-01
      5717       5721      1   1.339721   0.065445     3.10656e-01     1.17227e-01
      5715       5740      1   0.095591  -0.460790     2.73568e-01     1.08078e-01
      5715       5717      1   0.095591   1.116434     3.10656e-01     1.17227e-01
      5714       5740      1   0.095591  -0.460790     2.73568e-01     1.08078e-01
      5714       5717      1   0.095591   1.116434     3.10656e-01     1.17227e-01
      5712       5714      1   0.063253   0.079659     2.47135e-01     3.28444e-02
      5712       5715      1   0.063253   0.079659     2.47135e-01     3.28444e-02
      5712       5716      1   0.063253  -0.424567     2.73568e-01     1.08078e-01
      5712       5741      1   0.063253   0.748011     2.93551e-01     7.68707e-02
      5710       5712      1   0.070469   0.052711     2.47135e-01     3.28444e-02
      5710       5713      1   0.070469   0.014549     2.93551e-01     8.67002e-02
      5710       5740      1   0.070469  -0.460790     2.73568e-01     1.08078e-01
      5709       5712      1   0.070469   0.052711     2.47135e-01     3.28444e-02
      5709       5713      1   0.070469   0.014549     2.93551e-01     8.67002e-02
      5709       5740      1   0.070469  -0.460790     2.73568e-01     1.08078e-01
      5708       5714      1   0.196939   0.079659     2.93551e-01     8.67002e-02
      5708       5715      1   0.196939   0.079659     2.93551e-01     8.67002e-02
      5707       5712      1  -0.575489   0.052711     2.73568e-01     1.08078e-01
      5705       5709      1   0.910403   0.058724     2.93551e-01     7.68707e-02
      5705       5710      1   0.910403   0.058724     2.93551e-01     7.68707e-02
      5779       5782      1   0.018859   0.044953     2.60142e-01     2.09200e-02
      5779       5781      1   0.018859   0.044953     2.60142e-01     2.09200e-02
      5778       5782      1   0.018859   0.044953     2.60142e-01     2.09200e-02
      5778       5781      1   0.018859   0.044953     2.60142e-01     2.09200e-02
      5776       5780      1   0.020431  -0.136833     3.00055e-01     6.91943e-02
      5776       5779      1   0.020431   0.015716     2.60142e-01     2.09200e-02
      5776       5778      1   0.020431   0.015716     2.60142e-01     2.09200e-02
      5775       5780      1   0.020431  -0.136833     3.00055e-01     6.91943e-02
      5775       5779      1   0.020431   0.015716     2.60142e-01     2.09200e-02
      5775       5778      1   0.020431   0.015716     2.60142e-01     2.09200e-02
      5774       5782      1  -0.026954   0.044953     3.00055e-01     6.91943e-02
      5774       5781      1  -0.026954   0.044953     3.00055e-01     6.91943e-02
      5773       5777      1   0.010573  -0.002029     3.00055e-01     6.91943e-02
      5773       5776      1   0.010573   0.017026     2.60142e-01     2.09200e-02
      5773       5775      1   0.010573   0.017026     2.60142e-01     2.09200e-02
      5772       5777      1   0.010573  -0.002029     3.00055e-01     6.91943e-02
      5772       5776      1   0.010573   0.017026     2.60142e-01     2.09200e-02
      5772       5775      1   0.010573   0.017026     2.60142e-01     2.09200e-02
      5771       5779      1  -0.016521   0.015716     3.00055e-01     6.91943e-02
      5771       5778      1  -0.016521   0.015716     3.00055e-01     6.91943e-02
      5770       5774      1   0.011511  -0.022462     3.00055e-01     6.91943e-02
      5770       5772      1   0.011511   0.008811     2.60142e-01     2.09200e-02
      5770       5773      1   0.011511   0.008811     2.60142e-01     2.09200e-02
      5769       5774      1   0.011511  -0.022462     3.00055e-01     6.91943e-02
      5769       5772      1   0.011511   0.008811     2.60142e-01     2.09200e-02
      5769       5773      1   0.011511   0.008811     2.60142e-01     2.09200e-02
      5768       5776      1  -0.027812   0.017026     3.00055e-01     6.91943e-02
      5768       5775      1  -0.027812   0.017026     3.00055e-01     6.91943e-02
      5767       5771      1   0.006833  -0.013767     3.00055e-01     6.91943e-02
      5767       5769      1   0.006833   0.009592     2.60142e-01     2.09200e-02
      5767       5770      1   0.006833   0.009592     2.60142e-01     2.09200e-02
      5766       5771      1   0.006833  -0.013767     3.00055e-01     6.91943e-02
      5766       5769      1   0.006833   0.009592     2.60142e-01     2.09200e-02
      5766       5770      1   0.006833   0.009592     2.60142e-01     2.09200e-02
      5765       5772      1  -0.004386   0.008811     3.00055e-01     6.91943e-02
      5765       5773      1  -0.004386   0.008811     3.00055e-01     6.91943e-02
      5764       5768      1   0.011241  -0.023177     3.00055e-01     6.91943e-02
      5764       5766      1   0.011241   0.005694     2.60142e-01     2.09200e-02
      5764       5767      1   0.011241   0.005694     2.60142e-01     2.09200e-02
      5763       5768      1   0.011241  -0.023177     3.00055e-01     6.91943e-02
      5763       5766      1   0.011241   0.005694     2.60142e-01     2.09200e-02
      5763       5767      1   0.011241   0.005694     2.60142e-01     2.09200e-02
      5762       5769      1  -0.026451   0.009592     3.00055e-01     6.91943e-02
      5762       5770      1  -0.026451   0.009592     3.00055e-01     6.91943e-02
      5761       5765      1   0.010172  -0.003655     3.00055e-01     6.91943e-02
      5761       5764      1   0.010172   0.009367     2.60142e-01     2.09200e-02
      5761       5763      1   0.010172   0.009367     2.60142e-01     2.09200e-02
      5760       5765      1   0.010172  -0.003655     3.00055e-01     6.91943e-02
      5760       5764      1   0.010172   0.009367     2.60142e-01     2.09200e-02
      5760       5763      1   0.010172   0.009367     2.60142e-01     2.09200e-02
      5759       5766      1  -0.014653   0.005694     3.00055e-01     6.91943e-02
      5759       5767      1  -0.014653   0.005694     3.00055e-01     6.91943e-02
      5758       5762      1   0.010037  -0.022042     3.00055e-01     6.91943e-02
      5758       5760      1   0.010037   0.008477     2.60142e-01     2.09200e-02
      5758       5761      1   0.010037   0.008477     2.60142e-01     2.09200e-02
      5757       5762      1   0.010037  -0.022042     3.00055e-01     6.91943e-02
      5757       5760      1   0.010037   0.008477     2.60142e-01     2.09200e-02
      5757       5761      1   0.010037   0.008477     2.60142e-01     2.09200e-02
      5756       5764      1  -0.021025   0.009367     3.00055e-01     6.91943e-02
      5756       5763      1  -0.021025   0.009367     3.00055e-01     6.91943e-02
      5755       5759      1   0.012677  -0.012211     3.00055e-01     6.91943e-02
      5755       5758      1   0.012677   0.008364     2.60142e-01     2.09200e-02
      5755       5757      1   0.012677   0.008364     2.60142e-01     2.09200e-02
      5754       5759      1   0.012677  -0.012211     3.00055e-01     6.91943e-02
      5754       5758      1   0.012677   0.008364     2.60142e-01     2.09200e-02
      5754       5757      1   0.012677   0.008364     2.60142e-01     2.09200e-02
      5753       5760      1  -0.031787   0.008477     3.00055e-01     6.91943e-02
      5753       5761      1  -0.031787   0.008477     3.00055e-01     6.91943e-02
      5752       5756      1   0.017208  -0.017521     3.00055e-01     6.91943e-02
      5752       5754      1   0.017208   0.010564     2.60142e-01     2.09200e-02
      5752       5755      1   0.017208   0.010564     2.60142e-01     2.09200e-02
      5751       5756      1   0.017208  -0.017521     3.00055e-01     6.91943e-02
      5751       5754      1   0.017208   0.010564     2.60142e-01     2.09200e-02
      5751       5755      1   0.017208   0.010564     2.60142e-01     2.09200e-02
      5750       5758      1  -0.028094   0.008364     3.00055e-01     6.91943e-02
      5750       5757      1  -0.028094   0.008364     3.00055e-01     6.91943e-02
      5749       5753      1   0.007531  -0.026489     3.00055e-01     6.91943e-02
      5749       5752      1   0.007531   0.014340     2.60142e-01     2.09200e-02
      5749       5751      1   0.007531   0.014340     2.60142e-01     2.09200e-02
      5748       5753      1   0.007531  -0.026489     3.00055e-01     6.91943e-02
      5748       5752      1   0.007531   0.014340     2.60142e-01     2.09200e-02
      5748       5751      1   0.007531   0.014340     2.60142e-01     2.09200e-02
      5747       5754      1   0.017463   0.010564     3.00055e-01     6.91943e-02
      5747       5755      1   0.017463   0.010564     3.00055e-01     6.91943e-02
      5746       5750      1   0.025511  -0.023412     3.00055e-01     6.91943e-02
      5746       5748      1   0.025511   0.006276     2.60142e-01     2.09200e-02
      5746       5749      1   0.025511   0.006276     2.60142e-01     2.09200e-02
      5745       5750      1   0.025511  -0.023412     3.00055e-01     6.91943e-02
      5745       5748      1   0.025511   0.006276     2.60142e-01     2.09200e-02
      5745       5749      1   0.025511   0.006276     2.60142e-01     2.09200e-02
      5744       5752      1  -0.111712   0.014340     3.00055e-01     6.91943e-02
      5744       5751      1  -0.111712   0.014340     3.00055e-01     6.91943e-02
      5743       5750      1   0.025511  -0.023412     3.00055e-01     6.91943e-02
      5743       5748      1   0.025511   0.006276     2.60142e-01     2.09200e-02
      5743       5749      1   0.025511   0.006276     2.60142e-01     2.09200e-02
      5822       5824      1   0.053944  -0.559638     2.78067e-01     9.58675e-02
      5822       5825      1   0.053944  -0.479574     2.80072e-01     8.62554e-02
      5821       5824      1   0.053944  -0.559638     2.78067e-01     9.58675e-02
      5821       5825      1   0.053944  -0.479574     2.80072e-01     8.62554e-02
      5819       5822      1   0.018859   0.044953     2.60142e-01     2.09200e-02
      5819       5821      1   0.018859   0.044953     2.60142e-01     2.09200e-02
      5819       5823      1   0.018859   0.758669     3.00055e-01     6.13495e-02
      5818       5822      1   0.018859   0.044953     2.60142e-01     2.09200e-02
      5818       5821      1   0.018859   0.044953     2.60142e-01     2.09200e-02
      5818       5823      1   0.018859   0.758669     3.00055e-01     6.13495e-02
      5816       5820      1   0.020431  -0.136833     3.00055e-01     6.91943e-02
      5816       5819      1   0.020431   0.015716     2.60142e-01     2.09200e-02
      5816       5818      1   0.020431   0.015716     2.60142e-01     2.09200e-02
      5815       5820      1   0.020431  -0.136833     3.00055e-01     6.91943e-02
      5815       5819      1   0.020431   0.015716     2.60142e-01     2.09200e-02
      5815       5818      1   0.020431   0.015716     2.60142e-01     2.09200e-02
      5814       5822      1  -0.026954   0.044953     3.00055e-01     6.91943e-02
      5814       5821      1  -0.026954   0.044953     3.00055e-01     6.91943e-02
      5813       5817      1   0.010573  -0.002029     3.00055e-01     6.91943e-02
      5813       5816      1   0.010573   0.017026     2.60142e-01     2.09200e-02
      5813       5815      1   0.010573   0.017026     2.60142e-01     2.09200e-02
      5812       5817      1   0.010573  -0.002029     3.00055e-01     6.91943e-02
      5812       5816      1   0.010573   0.017026     2.60142e-01     2.09200e-02
      5812       5815      1   0.010573   0.017026     2.60142e-01     2.09200e-02
      5811       5819      1  -0.016521   0.015716     3.00055e-01     6.91943e-02
      5811       5818      1  -0.016521   0.015716     3.00055e-01     6.91943e-02
      5810       5814      1   0.011511  -0.022462     3.00055e-01     6.91943e-02
      5810       5812      1   0.011511   0.008811     2.60142e-01     2.09200e-02
      5810       5813      1   0.011511   0.008811     2.60142e-01     2.09200e-02
      5809       5814      1   0.011511  -0.022462     3.00055e-01     6.91943e-02
      5809       5812      1   0.011511   0.008811     2.60142e-01     2.09200e-02
      5809       5813      1   0.011511   0.008811     2.60142e-01     2.09200e-02
      5808       5816      1  -0.027812   0.017026     3.00055e-01     6.91943e-02
      5808       5815      1  -0.027812   0.017026     3.00055e-01     6.91943e-02
      5807       5811      1   0.006833  -0.013767     3.00055e-01     6.91943e-02
      5807       5809      1   0.006833   0.009592     2.60142e-01     2.09200e-02
      5807       5810      1   0.006833   0.009592     2.60142e-01     2.09200e-02
      5806       5811      1   0.006833  -0.013767     3.00055e-01     6.91943e-02
      5806       5809      1   0.006833   0.009592     2.60142e-01     2.09200e-02
      5806       5810      1   0.006833   0.009592     2.60142e-01     2.09200e-02
      5805       5812      1  -0.004386   0.008811     3.00055e-01     6.91943e-02
      5805       5813      1  -0.004386   0.008811     3.00055e-01     6.91943e-02
      5804       5808      1   0.011241  -0.023177     3.00055e-01     6.91943e-02
      5804       5806      1   0.011241   0.005694     2.60142e-01     2.09200e-02
      5804       5807      1   0.011241   0.005694     2.60142e-01     2.09200e-02
      5803       5808      1   0.011241  -0.023177     3.00055e-01     6.91943e-02
      5803       5806      1   0.011241   0.005694     2.60142e-01     2.09200e-02
      5803       5807      1   0.011241   0.005694     2.60142e-01     2.09200e-02
      5802       5809      1  -0.026451   0.009592     3.00055e-01     6.91943e-02
      5802       5810      1  -0.026451   0.009592     3.00055e-01     6.91943e-02
      5801       5805      1   0.010172  -0.003655     3.00055e-01     6.91943e-02
      5801       5804      1   0.010172   0.009367     2.60142e-01     2.09200e-02
      5801       5803      1   0.010172   0.009367     2.60142e-01     2.09200e-02
      5800       5805      1   0.010172  -0.003655     3.00055e-01     6.91943e-02
      5800       5804      1   0.010172   0.009367     2.60142e-01     2.09200e-02
      5800       5803      1   0.010172   0.009367     2.60142e-01     2.09200e-02
      5799       5806      1  -0.014653   0.005694     3.00055e-01     6.91943e-02
      5799       5807      1  -0.014653   0.005694     3.00055e-01     6.91943e-02
      5798       5802      1   0.010037  -0.022042     3.00055e-01     6.91943e-02
      5798       5800      1   0.010037   0.008477     2.60142e-01     2.09200e-02
      5798       5801      1   0.010037   0.008477     2.60142e-01     2.09200e-02
      5797       5802      1   0.010037  -0.022042     3.00055e-01     6.91943e-02
      5797       5800      1   0.010037   0.008477     2.60142e-01     2.09200e-02
      5797       5801      1   0.010037   0.008477     2.60142e-01     2.09200e-02
      5796       5804      1  -0.021025   0.009367     3.00055e-01     6.91943e-02
      5796       5803      1  -0.021025   0.009367     3.00055e-01     6.91943e-02
      5795       5799      1   0.012677  -0.012211     3.00055e-01     6.91943e-02
      5795       5798      1   0.012677   0.008364     2.60142e-01     2.09200e-02
      5795       5797      1   0.012677   0.008364     2.60142e-01     2.09200e-02
      5794       5799      1   0.012677  -0.012211     3.00055e-01     6.91943e-02
      5794       5798      1   0.012677   0.008364     2.60142e-01     2.09200e-02
      5794       5797      1   0.012677   0.008364     2.60142e-01     2.09200e-02
      5793       5800      1  -0.031787   0.008477     3.00055e-01     6.91943e-02
      5793       5801      1  -0.031787   0.008477     3.00055e-01     6.91943e-02
      5792       5796      1   0.017208  -0.017521     3.00055e-01     6.91943e-02
      5792       5794      1   0.017208   0.010564     2.60142e-01     2.09200e-02
      5792       5795      1   0.017208   0.010564     2.60142e-01     2.09200e-02
      5791       5796      1   0.017208  -0.017521     3.00055e-01     6.91943e-02
      5791       5794      1   0.017208   0.010564     2.60142e-01     2.09200e-02
      5791       5795      1   0.017208   0.010564     2.60142e-01     2.09200e-02
      5790       5798      1  -0.028094   0.008364     3.00055e-01     6.91943e-02
      5790       5797      1  -0.028094   0.008364     3.00055e-01     6.91943e-02
      5789       5793      1   0.007531  -0.026489     3.00055e-01     6.91943e-02
      5789       5792      1   0.007531   0.014340     2.60142e-01     2.09200e-02
      5789       5791      1   0.007531   0.014340     2.60142e-01     2.09200e-02
      5788       5793      1   0.007531  -0.026489     3.00055e-01     6.91943e-02
      5788       5792      1   0.007531   0.014340     2.60142e-01     2.09200e-02
      5788       5791      1   0.007531   0.014340     2.60142e-01     2.09200e-02
      5787       5794      1   0.017463   0.010564     3.00055e-01     6.91943e-02
      5787       5795      1   0.017463   0.010564     3.00055e-01     6.91943e-02
      5786       5790      1   0.025511  -0.023412     3.00055e-01     6.91943e-02
      5786       5788      1   0.025511   0.006276     2.60142e-01     2.09200e-02
      5786       5789      1   0.025511   0.006276     2.60142e-01     2.09200e-02
      5785       5790      1   0.025511  -0.023412     3.00055e-01     6.91943e-02
      5785       5788      1   0.025511   0.006276     2.60142e-01     2.09200e-02
      5785       5789      1   0.025511   0.006276     2.60142e-01     2.09200e-02
      5784       5792      1  -0.111712   0.014340     3.00055e-01     6.91943e-02
      5784       5791      1  -0.111712   0.014340     3.00055e-01     6.91943e-02
      5783       5790      1   0.025511  -0.023412     3.00055e-01     6.91943e-02
      5783       5788      1   0.025511   0.006276     2.60142e-01     2.09200e-02
      5783       5789      1   0.025511   0.006276     2.60142e-01     2.09200e-02
      5860       5900      1  -0.673755   0.044953     2.78067e-01     9.58675e-02
      5860       5899      1  -0.673755   0.044953     2.78067e-01     9.58675e-02
      5859       5897      1   0.897613   0.015716     3.00055e-01     6.13495e-02
      5859       5896      1   0.897613   0.015716     3.00055e-01     6.13495e-02
      5858       5900      1  -0.552948   0.044953     2.80072e-01     8.62554e-02
      5858       5899      1  -0.552948   0.044953     2.80072e-01     8.62554e-02
      5851       5852      1   0.172230  -0.282478     2.67982e-01     8.67002e-02
      5850       5852      1   0.172230  -0.282478     2.67982e-01     8.67002e-02
      5849       5852      1   0.172230  -0.282478     2.67982e-01     8.67002e-02
      5848       5853      1  -0.338973   0.143525     2.67982e-01     8.67002e-02
      5848       5854      1  -0.338973   0.143525     2.67982e-01     8.67002e-02
      5848       5855      1  -0.338973   0.143525     2.67982e-01     8.67002e-02
      5847       5848      1   0.172230  -0.282478     2.67982e-01     8.67002e-02
      5847       5852      1   0.172230  -0.282478     2.67982e-01     8.67002e-02
      5846       5848      1   0.172230  -0.282478     2.67982e-01     8.67002e-02
      5846       5852      1   0.172230  -0.282478     2.67982e-01     8.67002e-02
      5845       5848      1   0.172230  -0.282478     2.67982e-01     8.67002e-02
      5845       5852      1   0.172230  -0.282478     2.67982e-01     8.67002e-02
      5844       5849      1  -0.338973   0.143525     2.67982e-01     8.67002e-02
      5844       5850      1  -0.338973   0.143525     2.67982e-01     8.67002e-02
      5844       5851      1  -0.338973   0.143525     2.67982e-01     8.67002e-02
      5844       5853      1  -0.338973   0.143525     2.67982e-01     8.67002e-02
      5844       5854      1  -0.338973   0.143525     2.67982e-01     8.67002e-02
      5844       5855      1  -0.338973   0.143525     2.67982e-01     8.67002e-02
      5842       5844      1   0.136415  -0.282478     2.67982e-01     8.67002e-02
      5842       5848      1   0.136415  -0.282478     2.67982e-01     8.67002e-02
      5842       5852      1   0.136415  -0.282478     2.67982e-01     8.67002e-02
      5841       5844      1   0.136415  -0.282478     2.67982e-01     8.67002e-02
      5841       5848      1   0.136415  -0.282478     2.67982e-01     8.67002e-02
      5841       5852      1   0.136415  -0.282478     2.67982e-01     8.67002e-02
      5840       5845      1  -0.170824   0.143525     2.67982e-01     8.67002e-02
      5840       5846      1  -0.170824   0.143525     2.67982e-01     8.67002e-02
      5840       5847      1  -0.170824   0.143525     2.67982e-01     8.67002e-02
      5840       5849      1  -0.170824   0.143525     2.67982e-01     8.67002e-02
      5840       5850      1  -0.170824   0.143525     2.67982e-01     8.67002e-02
      5840       5851      1  -0.170824   0.143525     2.67982e-01     8.67002e-02
      5840       5853      1  -0.170824   0.143525     2.67982e-01     8.67002e-02
      5840       5854      1  -0.170824   0.143525     2.67982e-01     8.67002e-02
      5840       5855      1  -0.170824   0.143525     2.67982e-01     8.67002e-02
      5839       5841      1   0.078534   0.113679     2.21567e-01     3.28444e-02
      5839       5842      1   0.078534   0.113679     2.21567e-01     3.28444e-02
      5839       5843      1   0.078534   0.204385     2.86068e-01     1.08078e-01
      5838       5841      1   0.078534   0.113679     2.21567e-01     3.28444e-02
      5838       5842      1   0.078534   0.113679     2.21567e-01     3.28444e-02
      5838       5843      1   0.078534   0.204385     2.86068e-01     1.08078e-01
      5836       5841      1  -0.508176   0.113679     2.47999e-01     1.08078e-01
      5836       5842      1  -0.508176   0.113679     2.47999e-01     1.08078e-01
      5835       5838      1   1.339721   0.065445     3.10656e-01     1.17227e-01
      5835       5839      1   1.339721   0.065445     3.10656e-01     1.17227e-01
      5833       5858      1   0.095591  -0.460790     2.73568e-01     1.08078e-01
      5833       5835      1   0.095591   1.116434     3.10656e-01     1.17227e-01
      5832       5858      1   0.095591  -0.460790     2.73568e-01     1.08078e-01
      5832       5835      1   0.095591   1.116434     3.10656e-01     1.17227e-01
      5830       5832      1   0.063253   0.079659     2.47135e-01     3.28444e-02
      5830       5833      1   0.063253   0.079659     2.47135e-01     3.28444e-02
      5830       5834      1   0.063253  -0.424567     2.73568e-01     1.08078e-01
      5830       5859      1   0.063253   0.748011     2.93551e-01     7.68707e-02
      5828       5830      1   0.070469   0.052711     2.47135e-01     3.28444e-02
      5828       5831      1   0.070469   0.014549     2.93551e-01     8.67002e-02
      5828       5858      1   0.070469  -0.460790     2.73568e-01     1.08078e-01
      5827       5830      1   0.070469   0.052711     2.47135e-01     3.28444e-02
      5827       5831      1   0.070469   0.014549     2.93551e-01     8.67002e-02
      5827       5858      1   0.070469  -0.460790     2.73568e-01     1.08078e-01
      5826       5832      1   0.196939   0.079659     2.93551e-01     8.67002e-02
      5826       5833      1   0.196939   0.079659     2.93551e-01     8.67002e-02
      5825       5830      1  -0.575489   0.052711     2.73568e-01     1.08078e-01
      5823       5827      1   0.910403   0.058724     2.93551e-01     7.68707e-02
      5823       5828      1   0.910403   0.058724     2.93551e-01     7.68707e-02
      5897       5900      1   0.018859   0.044953     2.60142e-01     2.09200e-02
      5897       5899      1   0.018859   0.044953     2.60142e-01     2.09200e-02
      5896       5900      1   0.018859   0.044953     2.60142e-01     2.09200e-02
      5896       5899      1   0.018859   0.044953     2.60142e-01     2.09200e-02
      5894       5898      1   0.020431  -0.136833     3.00055e-01     6.91943e-02
      5894       5897      1   0.020431   0.015716     2.60142e-01     2.09200e-02
      5894       5896      1   0.020431   0.015716     2.60142e-01     2.09200e-02
      5893       5898      1   0.020431  -0.136833     3.00055e-01     6.91943e-02
      5893       5897      1   0.020431   0.015716     2.60142e-01     2.09200e-02
      5893       5896      1   0.020431   0.015716     2.60142e-01     2.09200e-02
      5892       5900      1  -0.026954   0.044953     3.00055e-01     6.91943e-02
      5892       5899      1  -0.026954   0.044953     3.00055e-01     6.91943e-02
      5891       5895      1   0.010573  -0.002029     3.00055e-01     6.91943e-02
      5891       5894      1   0.010573   0.017026     2.60142e-01     2.09200e-02
      5891       5893      1   0.010573   0.017026     2.60142e-01     2.09200e-02
      5890       5895      1   0.010573  -0.002029     3.00055e-01     6.91943e-02
      5890       5894      1   0.010573   0.017026     2.60142e-01     2.09200e-02
      5890       5893      1   0.010573   0.017026     2.60142e-01     2.09200e-02
      5889       5897      1  -0.016521   0.015716     3.00055e-01     6.91943e-02
      5889       5896      1  -0.016521   0.015716     3.00055e-01     6.91943e-02
      5888       5892      1   0.011511  -0.022462     3.00055e-01     6.91943e-02
      5888       5890      1   0.011511   0.008811     2.60142e-01     2.09200e-02
      5888       5891      1   0.011511   0.008811     2.60142e-01     2.09200e-02
      5887       5892      1   0.011511  -0.022462     3.00055e-01     6.91943e-02
      5887       5890      1   0.011511   0.008811     2.60142e-01     2.09200e-02
      5887       5891      1   0.011511   0.008811     2.60142e-01     2.09200e-02
      5886       5894      1  -0.027812   0.017026     3.00055e-01     6.91943e-02
      5886       5893      1  -0.027812   0.017026     3.00055e-01     6.91943e-02
      5885       5889      1   0.006833  -0.013767     3.00055e-01     6.91943e-02
      5885       5887      1   0.006833   0.009592     2.60142e-01     2.09200e-02
      5885       5888      1   0.006833   0.009592     2.60142e-01     2.09200e-02
      5884       5889      1   0.006833  -0.013767     3.00055e-01     6.91943e-02
      5884       5887      1   0.006833   0.009592     2.60142e-01     2.09200e-02
      5884       5888      1   0.006833   0.009592     2.60142e-01     2.09200e-02
      5883       5890      1  -0.004386   0.008811     3.00055e-01     6.91943e-02
      5883       5891      1  -0.004386   0.008811     3.00055e-01     6.91943e-02
      5882       5886      1   0.011241  -0.023177     3.00055e-01     6.91943e-02
      5882       5884      1   0.011241   0.005694     2.60142e-01     2.09200e-02
      5882       5885      1   0.011241   0.005694     2.60142e-01     2.09200e-02
      5881       5886      1   0.011241  -0.023177     3.00055e-01     6.91943e-02
      5881       5884      1   0.011241   0.005694     2.60142e-01     2.09200e-02
      5881       5885      1   0.011241   0.005694     2.60142e-01     2.09200e-02
      5880       5887      1  -0.026451   0.009592     3.00055e-01     6.91943e-02
      5880       5888      1  -0.026451   0.009592     3.00055e-01     6.91943e-02
      5879       5883      1   0.010172  -0.003655     3.00055e-01     6.91943e-02
      5879       5882      1   0.010172   0.009367     2.60142e-01     2.09200e-02
      5879       5881      1   0.010172   0.009367     2.60142e-01     2.09200e-02
      5878       5883      1   0.010172  -0.003655     3.00055e-01     6.91943e-02
      5878       5882      1   0.010172   0.009367     2.60142e-01     2.09200e-02
      5878       5881      1   0.010172   0.009367     2.60142e-01     2.09200e-02
      5877       5884      1  -0.014653   0.005694     3.00055e-01     6.91943e-02
      5877       5885      1  -0.014653   0.005694     3.00055e-01     6.91943e-02
      5876       5880      1   0.010037  -0.022042     3.00055e-01     6.91943e-02
      5876       5878      1   0.010037   0.008477     2.60142e-01     2.09200e-02
      5876       5879      1   0.010037   0.008477     2.60142e-01     2.09200e-02
      5875       5880      1   0.010037  -0.022042     3.00055e-01     6.91943e-02
      5875       5878      1   0.010037   0.008477     2.60142e-01     2.09200e-02
      5875       5879      1   0.010037   0.008477     2.60142e-01     2.09200e-02
      5874       5882      1  -0.021025   0.009367     3.00055e-01     6.91943e-02
      5874       5881      1  -0.021025   0.009367     3.00055e-01     6.91943e-02
      5873       5877      1   0.012677  -0.012211     3.00055e-01     6.91943e-02
      5873       5876      1   0.012677   0.008364     2.60142e-01     2.09200e-02
      5873       5875      1   0.012677   0.008364     2.60142e-01     2.09200e-02
      5872       5877      1   0.012677  -0.012211     3.00055e-01     6.91943e-02
      5872       5876      1   0.012677   0.008364     2.60142e-01     2.09200e-02
      5872       5875      1   0.012677   0.008364     2.60142e-01     2.09200e-02
      5871       5878      1  -0.031787   0.008477     3.00055e-01     6.91943e-02
      5871       5879      1  -0.031787   0.008477     3.00055e-01     6.91943e-02
      5870       5874      1   0.017208  -0.017521     3.00055e-01     6.91943e-02
      5870       5872      1   0.017208   0.010564     2.60142e-01     2.09200e-02
      5870       5873      1   0.017208   0.010564     2.60142e-01     2.09200e-02
      5869       5874      1   0.017208  -0.017521     3.00055e-01     6.91943e-02
      5869       5872      1   0.017208   0.010564     2.60142e-01     2.09200e-02
      5869       5873      1   0.017208   0.010564     2.60142e-01     2.09200e-02
      5868       5876      1  -0.028094   0.008364     3.00055e-01     6.91943e-02
      5868       5875      1  -0.028094   0.008364     3.00055e-01     6.91943e-02
      5867       5871      1   0.007531  -0.026489     3.00055e-01     6.91943e-02
      5867       5870      1   0.007531   0.014340     2.60142e-01     2.09200e-02
      5867       5869      1   0.007531   0.014340     2.60142e-01     2.09200e-02
      5866       5871      1   0.007531  -0.026489     3.00055e-01     6.91943e-02
      5866       5870      1   0.007531   0.014340     2.60142e-01     2.09200e-02
      5866       5869      1   0.007531   0.014340     2.60142e-01     2.09200e-02
      5865       5872      1   0.017463   0.010564     3.00055e-01     6.91943e-02
      5865       5873      1   0.017463   0.010564     3.00055e-01     6.91943e-02
      5864       5868      1   0.025511  -0.023412     3.00055e-01     6.91943e-02
      5864       5866      1   0.025511   0.006276     2.60142e-01     2.09200e-02
      5864       5867      1   0.025511   0.006276     2.60142e-01     2.09200e-02
      5863       5868      1   0.025511  -0.023412     3.00055e-01     6.91943e-02
      5863       5866      1   0.025511   0.006276     2.60142e-01     2.09200e-02
      5863       5867      1   0.025511   0.006276     2.60142e-01     2.09200e-02
      5862       5870      1  -0.111712   0.014340     3.00055e-01     6.91943e-02
      5862       5869      1  -0.111712   0.014340     3.00055e-01     6.91943e-02
      5861       5868      1   0.025511  -0.023412     3.00055e-01     6.91943e-02
      5861       5866      1   0.025511   0.006276     2.60142e-01     2.09200e-02
      5861       5867      1   0.025511   0.006276     2.60142e-01     2.09200e-02
      5940       5942      1   0.053944  -0.559638     2.78067e-01     9.58675e-02
      5940       5943      1   0.053944  -0.479574     2.80072e-01     8.62554e-02
      5939       5942      1   0.053944  -0.559638     2.78067e-01     9.58675e-02
      5939       5943      1   0.053944  -0.479574     2.80072e-01     8.62554e-02
      5937       5940      1   0.018859   0.044953     2.60142e-01     2.09200e-02
      5937       5939      1   0.018859   0.044953     2.60142e-01     2.09200e-02
      5937       5941      1   0.018859   0.758669     3.00055e-01     6.13495e-02
      5936       5940      1   0.018859   0.044953     2.60142e-01     2.09200e-02
      5936       5939      1   0.018859   0.044953     2.60142e-01     2.09200e-02
      5936       5941      1   0.018859   0.758669     3.00055e-01     6.13495e-02
      5934       5938      1   0.020431  -0.136833     3.00055e-01     6.91943e-02
      5934       5937      1   0.020431   0.015716     2.60142e-01     2.09200e-02
      5934       5936      1   0.020431   0.015716     2.60142e-01     2.09200e-02
      5933       5938      1   0.020431  -0.136833     3.00055e-01     6.91943e-02
      5933       5937      1   0.020431   0.015716     2.60142e-01     2.09200e-02
      5933       5936      1   0.020431   0.015716     2.60142e-01     2.09200e-02
      5932       5940      1  -0.026954   0.044953     3.00055e-01     6.91943e-02
      5932       5939      1  -0.026954   0.044953     3.00055e-01     6.91943e-02
      5931       5935      1   0.010573  -0.002029     3.00055e-01     6.91943e-02
      5931       5934      1   0.010573   0.017026     2.60142e-01     2.09200e-02
      5931       5933      1   0.010573   0.017026     2.60142e-01     2.09200e-02
      5930       5935      1   0.010573  -0.002029     3.00055e-01     6.91943e-02
      5930       5934      1   0.010573   0.017026     2.60142e-01     2.09200e-02
      5930       5933      1   0.010573   0.017026     2.60142e-01     2.09200e-02
      5929       5937      1  -0.016521   0.015716     3.00055e-01     6.91943e-02
      5929       5936      1  -0.016521   0.015716     3.00055e-01     6.91943e-02
      5928       5932      1   0.011511  -0.022462     3.00055e-01     6.91943e-02
      5928       5930      1   0.011511   0.008811     2.60142e-01     2.09200e-02
      5928       5931      1   0.011511   0.008811     2.60142e-01     2.09200e-02
      5927       5932      1   0.011511  -0.022462     3.00055e-01     6.91943e-02
      5927       5930      1   0.011511   0.008811     2.60142e-01     2.09200e-02
      5927       5931      1   0.011511   0.008811     2.60142e-01     2.09200e-02
      5926       5934      1  -0.027812   0.017026     3.00055e-01     6.91943e-02
      5926       5933      1  -0.027812   0.017026     3.00055e-01     6.91943e-02
      5925       5929      1   0.006833  -0.013767     3.00055e-01     6.91943e-02
      5925       5927      1   0.006833   0.009592     2.60142e-01     2.09200e-02
      5925       5928      1   0.006833   0.009592     2.60142e-01     2.09200e-02
      5924       5929      1   0.006833  -0.013767     3.00055e-01     6.91943e-02
      5924       5927      1   0.006833   0.009592     2.60142e-01     2.09200e-02
      5924       5928      1   0.006833   0.009592     2.60142e-01     2.09200e-02
      5923       5930      1  -0.004386   0.008811     3.00055e-01     6.91943e-02
      5923       5931      1  -0.004386   0.008811     3.00055e-01     6.91943e-02
      5922       5926      1   0.011241  -0.023177     3.00055e-01     6.91943e-02
      5922       5924      1   0.011241   0.005694     2.60142e-01     2.09200e-02
      5922       5925      1   0.011241   0.005694     2.60142e-01     2.09200e-02
      5921       5926      1   0.011241  -0.023177     3.00055e-01     6.91943e-02
      5921       5924      1   0.011241   0.005694     2.60142e-01     2.09200e-02
      5921       5925      1   0.011241   0.005694     2.60142e-01     2.09200e-02
      5920       5927      1  -0.026451   0.009592     3.00055e-01     6.91943e-02
      5920       5928      1  -0.026451   0.009592     3.00055e-01     6.91943e-02
      5919       5923      1   0.010172  -0.003655     3.00055e-01     6.91943e-02
      5919       5922      1   0.010172   0.009367     2.60142e-01     2.09200e-02
      5919       5921      1   0.010172   0.009367     2.60142e-01     2.09200e-02
      5918       5923      1   0.010172  -0.003655     3.00055e-01     6.91943e-02
      5918       5922      1   0.010172   0.009367     2.60142e-01     2.09200e-02
      5918       5921      1   0.010172   0.009367     2.60142e-01     2.09200e-02
      5917       5924      1  -0.014653   0.005694     3.00055e-01     6.91943e-02
      5917       5925      1  -0.014653   0.005694     3.00055e-01     6.91943e-02
      5916       5920      1   0.010037  -0.022042     3.00055e-01     6.91943e-02
      5916       5918      1   0.010037   0.008477     2.60142e-01     2.09200e-02
      5916       5919      1   0.010037   0.008477     2.60142e-01     2.09200e-02
      5915       5920      1   0.010037  -0.022042     3.00055e-01     6.91943e-02
      5915       5918      1   0.010037   0.008477     2.60142e-01     2.09200e-02
      5915       5919      1   0.010037   0.008477     2.60142e-01     2.09200e-02
      5914       5922      1  -0.021025   0.009367     3.00055e-01     6.91943e-02
      5914       5921      1  -0.021025   0.009367     3.00055e-01     6.91943e-02
      5913       5917      1   0.012677  -0.012211     3.00055e-01     6.91943e-02
      5913       5916      1   0.012677   0.008364     2.60142e-01     2.09200e-02
      5913       5915      1   0.012677   0.008364     2.60142e-01     2.09200e-02
      5912       5917      1   0.012677  -0.012211     3.00055e-01     6.91943e-02
      5912       5916      1   0.012677   0.008364     2.60142e-01     2.09200e-02
      5912       5915      1   0.012677   0.008364     2.60142e-01     2.09200e-02
      5911       5918      1  -0.031787   0.008477     3.00055e-01     6.91943e-02
      5911       5919      1  -0.031787   0.008477     3.00055e-01     6.91943e-02
      5910       5914      1   0.017208  -0.017521     3.00055e-01     6.91943e-02
      5910       5912      1   0.017208   0.010564     2.60142e-01     2.09200e-02
      5910       5913      1   0.017208   0.010564     2.60142e-01     2.09200e-02
      5909       5914      1   0.017208  -0.017521     3.00055e-01     6.91943e-02
      5909       5912      1   0.017208   0.010564     2.60142e-01     2.09200e-02
      5909       5913      1   0.017208   0.010564     2.60142e-01     2.09200e-02
      5908       5916      1  -0.028094   0.008364     3.00055e-01     6.91943e-02
      5908       5915      1  -0.028094   0.008364     3.00055e-01     6.91943e-02
      5907       5911      1   0.007531  -0.026489     3.00055e-01     6.91943e-02
      5907       5910      1   0.007531   0.014340     2.60142e-01     2.09200e-02
      5907       5909      1   0.007531   0.014340     2.60142e-01     2.09200e-02
      5906       5911      1   0.007531  -0.026489     3.00055e-01     6.91943e-02
      5906       5910      1   0.007531   0.014340     2.60142e-01     2.09200e-02
      5906       5909      1   0.007531   0.014340     2.60142e-01     2.09200e-02
      5905       5912      1   0.017463   0.010564     3.00055e-01     6.91943e-02
      5905       5913      1   0.017463   0.010564     3.00055e-01     6.91943e-02
      5904       5908      1   0.025511  -0.023412     3.00055e-01     6.91943e-02
      5904       5906      1   0.025511   0.006276     2.60142e-01     2.09200e-02
      5904       5907      1   0.025511   0.006276     2.60142e-01     2.09200e-02
      5903       5908      1   0.025511  -0.023412     3.00055e-01     6.91943e-02
      5903       5906      1   0.025511   0.006276     2.60142e-01     2.09200e-02
      5903       5907      1   0.025511   0.006276     2.60142e-01     2.09200e-02
      5902       5910      1  -0.111712   0.014340     3.00055e-01     6.91943e-02
      5902       5909      1  -0.111712   0.014340     3.00055e-01     6.91943e-02
      5901       5908      1   0.025511  -0.023412     3.00055e-01     6.91943e-02
      5901       5906      1   0.025511   0.006276     2.60142e-01     2.09200e-02
      5901       5907      1   0.025511   0.006276     2.60142e-01     2.09200e-02
      5978       6018      1  -0.673755   0.044953     2.78067e-01     9.58675e-02
      5978       6017      1  -0.673755   0.044953     2.78067e-01     9.58675e-02
      5977       6015      1   0.897613   0.015716     3.00055e-01     6.13495e-02
      5977       6014      1   0.897613   0.015716     3.00055e-01     6.13495e-02
      5976       6018      1  -0.552948   0.044953     2.80072e-01     8.62554e-02
      5976       6017      1  -0.552948   0.044953     2.80072e-01     8.62554e-02
      5969       5970      1   0.172230  -0.282478     2.67982e-01     8.67002e-02
      5968       5970      1   0.172230  -0.282478     2.67982e-01     8.67002e-02
      5967       5970      1   0.172230  -0.282478     2.67982e-01     8.67002e-02
      5966       5971      1  -0.338973   0.143525     2.67982e-01     8.67002e-02
      5966       5972      1  -0.338973   0.143525     2.67982e-01     8.67002e-02
      5966       5973      1  -0.338973   0.143525     2.67982e-01     8.67002e-02
      5965       5966      1   0.172230  -0.282478     2.67982e-01     8.67002e-02
      5965       5970      1   0.172230  -0.282478     2.67982e-01     8.67002e-02
      5964       5966      1   0.172230  -0.282478     2.67982e-01     8.67002e-02
      5964       5970      1   0.172230  -0.282478     2.67982e-01     8.67002e-02
      5963       5966      1   0.172230  -0.282478     2.67982e-01     8.67002e-02
      5963       5970      1   0.172230  -0.282478     2.67982e-01     8.67002e-02
      5962       5967      1  -0.338973   0.143525     2.67982e-01     8.67002e-02
      5962       5968      1  -0.338973   0.143525     2.67982e-01     8.67002e-02
      5962       5969      1  -0.338973   0.143525     2.67982e-01     8.67002e-02
      5962       5971      1  -0.338973   0.143525     2.67982e-01     8.67002e-02
      5962       5972      1  -0.338973   0.143525     2.67982e-01     8.67002e-02
      5962       5973      1  -0.338973   0.143525     2.67982e-01     8.67002e-02
      5960       5962      1   0.136415  -0.282478     2.67982e-01     8.67002e-02
      5960       5966      1   0.136415  -0.282478     2.67982e-01     8.67002e-02
      5960       5970      1   0.136415  -0.282478     2.67982e-01     8.67002e-02
      5959       5962      1   0.136415  -0.282478     2.67982e-01     8.67002e-02
      5959       5966      1   0.136415  -0.282478     2.67982e-01     8.67002e-02
      5959       5970      1   0.136415  -0.282478     2.67982e-01     8.67002e-02
      5958       5963      1  -0.170824   0.143525     2.67982e-01     8.67002e-02
      5958       5964      1  -0.170824   0.143525     2.67982e-01     8.67002e-02
      5958       5965      1  -0.170824   0.143525     2.67982e-01     8.67002e-02
      5958       5967      1  -0.170824   0.143525     2.67982e-01     8.67002e-02
      5958       5968      1  -0.170824   0.143525     2.67982e-01     8.67002e-02
      5958       5969      1  -0.170824   0.143525     2.67982e-01     8.67002e-02
      5958       5971      1  -0.170824   0.143525     2.67982e-01     8.67002e-02
      5958       5972      1  -0.170824   0.143525     2.67982e-01     8.67002e-02
      5958       5973      1  -0.170824   0.143525     2.67982e-01     8.67002e-02
      5957       5959      1   0.078534   0.113679     2.21567e-01     3.28444e-02
      5957       5960      1   0.078534   0.113679     2.21567e-01     3.28444e-02
      5957       5961      1   0.078534   0.204385     2.86068e-01     1.08078e-01
      5956       5959      1   0.078534   0.113679     2.21567e-01     3.28444e-02
      5956       5960      1   0.078534   0.113679     2.21567e-01     3.28444e-02
      5956       5961      1   0.078534   0.204385     2.86068e-01     1.08078e-01
      5954       5959      1  -0.508176   0.113679     2.47999e-01     1.08078e-01
      5954       5960      1  -0.508176   0.113679     2.47999e-01     1.08078e-01
      5953       5956      1   1.339721   0.065445     3.10656e-01     1.17227e-01
      5953       5957      1   1.339721   0.065445     3.10656e-01     1.17227e-01
      5951       5976      1   0.095591  -0.460790     2.73568e-01     1.08078e-01
      5951       5953      1   0.095591   1.116434     3.10656e-01     1.17227e-01
      5950       5976      1   0.095591  -0.460790     2.73568e-01     1.08078e-01
      5950       5953      1   0.095591   1.116434     3.10656e-01     1.17227e-01
      5948       5950      1   0.063253   0.079659     2.47135e-01     3.28444e-02
      5948       5951      1   0.063253   0.079659     2.47135e-01     3.28444e-02
      5948       5952      1   0.063253  -0.424567     2.73568e-01     1.08078e-01
      5948       5977      1   0.063253   0.748011     2.93551e-01     7.68707e-02
      5946       5948      1   0.070469   0.052711     2.47135e-01     3.28444e-02
      5946       5949      1   0.070469   0.014549     2.93551e-01     8.67002e-02
      5946       5976      1   0.070469  -0.460790     2.73568e-01     1.08078e-01
      5945       5948      1   0.070469   0.052711     2.47135e-01     3.28444e-02
      5945       5949      1   0.070469   0.014549     2.93551e-01     8.67002e-02
      5945       5976      1   0.070469  -0.460790     2.73568e-01     1.08078e-01
      5944       5950      1   0.196939   0.079659     2.93551e-01     8.67002e-02
      5944       5951      1   0.196939   0.079659     2.93551e-01     8.67002e-02
      5943       5948      1  -0.575489   0.052711     2.73568e-01     1.08078e-01
      5941       5945      1   0.910403   0.058724     2.93551e-01     7.68707e-02
      5941       5946      1   0.910403   0.058724     2.93551e-01     7.68707e-02
      6015       6018      1   0.018859   0.044953     2.60142e-01     2.09200e-02
      6015       6017      1   0.018859   0.044953     2.60142e-01     2.09200e-02
      6014       6018      1   0.018859   0.044953     2.60142e-01     2.09200e-02
      6014       6017      1   0.018859   0.044953     2.60142e-01     2.09200e-02
      6012       6016      1   0.020431  -0.136833     3.00055e-01     6.91943e-02
      6012       6015      1   0.020431   0.015716     2.60142e-01     2.09200e-02
      6012       6014      1   0.020431   0.015716     2.60142e-01     2.09200e-02
      6011       6016      1   0.020431  -0.136833     3.00055e-01     6.91943e-02
      6011       6015      1   0.020431   0.015716     2.60142e-01     2.09200e-02
      6011       6014      1   0.020431   0.015716     2.60142e-01     2.09200e-02
      6010       6018      1  -0.026954   0.044953     3.00055e-01     6.91943e-02
      6010       6017      1  -0.026954   0.044953     3.00055e-01     6.91943e-02
      6009       6013      1   0.010573  -0.002029     3.00055e-01     6.91943e-02
      6009       6012      1   0.010573   0.017026     2.60142e-01     2.09200e-02
      6009       6011      1   0.010573   0.017026     2.60142e-01     2.09200e-02
      6008       6013      1   0.010573  -0.002029     3.00055e-01     6.91943e-02
      6008       6012      1   0.010573   0.017026     2.60142e-01     2.09200e-02
      6008       6011      1   0.010573   0.017026     2.60142e-01     2.09200e-02
      6007       6015      1  -0.016521   0.015716     3.00055e-01     6.91943e-02
      6007       6014      1  -0.016521   0.015716     3.00055e-01     6.91943e-02
      6006       6010      1   0.011511  -0.022462     3.00055e-01     6.91943e-02
      6006       6008      1   0.011511   0.008811     2.60142e-01     2.09200e-02
      6006       6009      1   0.011511   0.008811     2.60142e-01     2.09200e-02
      6005       6010      1   0.011511  -0.022462     3.00055e-01     6.91943e-02
      6005       6008      1   0.011511   0.008811     2.60142e-01     2.09200e-02
      6005       6009      1   0.011511   0.008811     2.60142e-01     2.09200e-02
      6004       6012      1  -0.027812   0.017026     3.00055e-01     6.91943e-02
      6004       6011      1  -0.027812   0.017026     3.00055e-01     6.91943e-02
      6003       6007      1   0.006833  -0.013767     3.00055e-01     6.91943e-02
      6003       6005      1   0.006833   0.009592     2.60142e-01     2.09200e-02
      6003       6006      1   0.006833   0.009592     2.60142e-01     2.09200e-02
      6002       6007      1   0.006833  -0.013767     3.00055e-01     6.91943e-02
      6002       6005      1   0.006833   0.009592     2.60142e-01     2.09200e-02
      6002       6006      1   0.006833   0.009592     2.60142e-01     2.09200e-02
      6001       6008      1  -0.004386   0.008811     3.00055e-01     6.91943e-02
      6001       6009      1  -0.004386   0.008811     3.00055e-01     6.91943e-02
      6000       6004      1   0.011241  -0.023177     3.00055e-01     6.91943e-02
      6000       6002      1   0.011241   0.005694     2.60142e-01     2.09200e-02
      6000       6003      1   0.011241   0.005694     2.60142e-01     2.09200e-02
      5999       6004      1   0.011241  -0.023177     3.00055e-01     6.91943e-02
      5999       6002      1   0.011241   0.005694     2.60142e-01     2.09200e-02
      5999       6003      1   0.011241   0.005694     2.60142e-01     2.09200e-02
      5998       6005      1  -0.026451   0.009592     3.00055e-01     6.91943e-02
      5998       6006      1  -0.026451   0.009592     3.00055e-01     6.91943e-02
      5997       6001      1   0.010172  -0.003655     3.00055e-01     6.91943e-02
      5997       6000      1   0.010172   0.009367     2.60142e-01     2.09200e-02
      5997       5999      1   0.010172   0.009367     2.60142e-01     2.09200e-02
      5996       6001      1   0.010172  -0.003655     3.00055e-01     6.91943e-02
      5996       6000      1   0.010172   0.009367     2.60142e-01     2.09200e-02
      5996       5999      1   0.010172   0.009367     2.60142e-01     2.09200e-02
      5995       6002      1  -0.014653   0.005694     3.00055e-01     6.91943e-02
      5995       6003      1  -0.014653   0.005694     3.00055e-01     6.91943e-02
      5994       5998      1   0.010037  -0.022042     3.00055e-01     6.91943e-02
      5994       5996      1   0.010037   0.008477     2.60142e-01     2.09200e-02
      5994       5997      1   0.010037   0.008477     2.60142e-01     2.09200e-02
      5993       5998      1   0.010037  -0.022042     3.00055e-01     6.91943e-02
      5993       5996      1   0.010037   0.008477     2.60142e-01     2.09200e-02
      5993       5997      1   0.010037   0.008477     2.60142e-01     2.09200e-02
      5992       6000      1  -0.021025   0.009367     3.00055e-01     6.91943e-02
      5992       5999      1  -0.021025   0.009367     3.00055e-01     6.91943e-02
      5991       5995      1   0.012677  -0.012211     3.00055e-01     6.91943e-02
      5991       5994      1   0.012677   0.008364     2.60142e-01     2.09200e-02
      5991       5993      1   0.012677   0.008364     2.60142e-01     2.09200e-02
      5990       5995      1   0.012677  -0.012211     3.00055e-01     6.91943e-02
      5990       5994      1   0.012677   0.008364     2.60142e-01     2.09200e-02
      5990       5993      1   0.012677   0.008364     2.60142e-01     2.09200e-02
      5989       5996      1  -0.031787   0.008477     3.00055e-01     6.91943e-02
      5989       5997      1  -0.031787   0.008477     3.00055e-01     6.91943e-02
      5988       5992      1   0.017208  -0.017521     3.00055e-01     6.91943e-02
      5988       5990      1   0.017208   0.010564     2.60142e-01     2.09200e-02
      5988       5991      1   0.017208   0.010564     2.60142e-01     2.09200e-02
      5987       5992      1   0.017208  -0.017521     3.00055e-01     6.91943e-02
      5987       5990      1   0.017208   0.010564     2.60142e-01     2.09200e-02
      5987       5991      1   0.017208   0.010564     2.60142e-01     2.09200e-02
      5986       5994      1  -0.028094   0.008364     3.00055e-01     6.91943e-02
      5986       5993      1  -0.028094   0.008364     3.00055e-01     6.91943e-02
      5985       5989      1   0.007531  -0.026489     3.00055e-01     6.91943e-02
      5985       5988      1   0.007531   0.014340     2.60142e-01     2.09200e-02
      5985       5987      1   0.007531   0.014340     2.60142e-01     2.09200e-02
      5984       5989      1   0.007531  -0.026489     3.00055e-01     6.91943e-02
      5984       5988      1   0.007531   0.014340     2.60142e-01     2.09200e-02
      5984       5987      1   0.007531   0.014340     2.60142e-01     2.09200e-02
      5983       5990      1   0.017463   0.010564     3.00055e-01     6.91943e-02
      5983       5991      1   0.017463   0.010564     3.00055e-01     6.91943e-02
      5982       5986      1   0.025511  -0.023412     3.00055e-01     6.91943e-02
      5982       5984      1   0.025511   0.006276     2.60142e-01     2.09200e-02
      5982       5985      1   0.025511   0.006276     2.60142e-01     2.09200e-02
      5981       5986      1   0.025511  -0.023412     3.00055e-01     6.91943e-02
      5981       5984      1   0.025511   0.006276     2.60142e-01     2.09200e-02
      5981       5985      1   0.025511   0.006276     2.60142e-01     2.09200e-02
      5980       5988      1  -0.111712   0.014340     3.00055e-01     6.91943e-02
      5980       5987      1  -0.111712   0.014340     3.00055e-01     6.91943e-02
      5979       5986      1   0.025511  -0.023412     3.00055e-01     6.91943e-02
      5979       5984      1   0.025511   0.006276     2.60142e-01     2.09200e-02
      5979       5985      1   0.025511   0.006276     2.60142e-01     2.09200e-02
      6058       6060      1   0.053944  -0.559638     2.78067e-01     9.58675e-02
      6058       6061      1   0.053944  -0.479574     2.80072e-01     8.62554e-02
      6057       6060      1   0.053944  -0.559638     2.78067e-01     9.58675e-02
      6057       6061      1   0.053944  -0.479574     2.80072e-01     8.62554e-02
      6055       6058      1   0.018859   0.044953     2.60142e-01     2.09200e-02
      6055       6057      1   0.018859   0.044953     2.60142e-01     2.09200e-02
      6055       6059      1   0.018859   0.758669     3.00055e-01     6.13495e-02
      6054       6058      1   0.018859   0.044953     2.60142e-01     2.09200e-02
      6054       6057      1   0.018859   0.044953     2.60142e-01     2.09200e-02
      6054       6059      1   0.018859   0.758669     3.00055e-01     6.13495e-02
      6052       6056      1   0.020431  -0.136833     3.00055e-01     6.91943e-02
      6052       6055      1   0.020431   0.015716     2.60142e-01     2.09200e-02
      6052       6054      1   0.020431   0.015716     2.60142e-01     2.09200e-02
      6051       6056      1   0.020431  -0.136833     3.00055e-01     6.91943e-02
      6051       6055      1   0.020431   0.015716     2.60142e-01     2.09200e-02
      6051       6054      1   0.020431   0.015716     2.60142e-01     2.09200e-02
      6050       6058      1  -0.026954   0.044953     3.00055e-01     6.91943e-02
      6050       6057      1  -0.026954   0.044953     3.00055e-01     6.91943e-02
      6049       6053      1   0.010573  -0.002029     3.00055e-01     6.91943e-02
      6049       6052      1   0.010573   0.017026     2.60142e-01     2.09200e-02
      6049       6051      1   0.010573   0.017026     2.60142e-01     2.09200e-02
      6048       6053      1   0.010573  -0.002029     3.00055e-01     6.91943e-02
      6048       6052      1   0.010573   0.017026     2.60142e-01     2.09200e-02
      6048       6051      1   0.010573   0.017026     2.60142e-01     2.09200e-02
      6047       6055      1  -0.016521   0.015716     3.00055e-01     6.91943e-02
      6047       6054      1  -0.016521   0.015716     3.00055e-01     6.91943e-02
      6046       6050      1   0.011511  -0.022462     3.00055e-01     6.91943e-02
      6046       6048      1   0.011511   0.008811     2.60142e-01     2.09200e-02
      6046       6049      1   0.011511   0.008811     2.60142e-01     2.09200e-02
      6045       6050      1   0.011511  -0.022462     3.00055e-01     6.91943e-02
      6045       6048      1   0.011511   0.008811     2.60142e-01     2.09200e-02
      6045       6049      1   0.011511   0.008811     2.60142e-01     2.09200e-02
      6044       6052      1  -0.027812   0.017026     3.00055e-01     6.91943e-02
      6044       6051      1  -0.027812   0.017026     3.00055e-01     6.91943e-02
      6043       6047      1   0.006833  -0.013767     3.00055e-01     6.91943e-02
      6043       6045      1   0.006833   0.009592     2.60142e-01     2.09200e-02
      6043       6046      1   0.006833   0.009592     2.60142e-01     2.09200e-02
      6042       6047      1   0.006833  -0.013767     3.00055e-01     6.91943e-02
      6042       6045      1   0.006833   0.009592     2.60142e-01     2.09200e-02
      6042       6046      1   0.006833   0.009592     2.60142e-01     2.09200e-02
      6041       6048      1  -0.004386   0.008811     3.00055e-01     6.91943e-02
      6041       6049      1  -0.004386   0.008811     3.00055e-01     6.91943e-02
      6040       6044      1   0.011241  -0.023177     3.00055e-01     6.91943e-02
      6040       6042      1   0.011241   0.005694     2.60142e-01     2.09200e-02
      6040       6043      1   0.011241   0.005694     2.60142e-01     2.09200e-02
      6039       6044      1   0.011241  -0.023177     3.00055e-01     6.91943e-02
      6039       6042      1   0.011241   0.005694     2.60142e-01     2.09200e-02
      6039       6043      1   0.011241   0.005694     2.60142e-01     2.09200e-02
      6038       6045      1  -0.026451   0.009592     3.00055e-01     6.91943e-02
      6038       6046      1  -0.026451   0.009592     3.00055e-01     6.91943e-02
      6037       6041      1   0.010172  -0.003655     3.00055e-01     6.91943e-02
      6037       6040      1   0.010172   0.009367     2.60142e-01     2.09200e-02
      6037       6039      1   0.010172   0.009367     2.60142e-01     2.09200e-02
      6036       6041      1   0.010172  -0.003655     3.00055e-01     6.91943e-02
      6036       6040      1   0.010172   0.009367     2.60142e-01     2.09200e-02
      6036       6039      1   0.010172   0.009367     2.60142e-01     2.09200e-02
      6035       6042      1  -0.014653   0.005694     3.00055e-01     6.91943e-02
      6035       6043      1  -0.014653   0.005694     3.00055e-01     6.91943e-02
      6034       6038      1   0.010037  -0.022042     3.00055e-01     6.91943e-02
      6034       6036      1   0.010037   0.008477     2.60142e-01     2.09200e-02
      6034       6037      1   0.010037   0.008477     2.60142e-01     2.09200e-02
      6033       6038      1   0.010037  -0.022042     3.00055e-01     6.91943e-02
      6033       6036      1   0.010037   0.008477     2.60142e-01     2.09200e-02
      6033       6037      1   0.010037   0.008477     2.60142e-01     2.09200e-02
      6032       6040      1  -0.021025   0.009367     3.00055e-01     6.91943e-02
      6032       6039      1  -0.021025   0.009367     3.00055e-01     6.91943e-02
      6031       6035      1   0.012677  -0.012211     3.00055e-01     6.91943e-02
      6031       6034      1   0.012677   0.008364     2.60142e-01     2.09200e-02
      6031       6033      1   0.012677   0.008364     2.60142e-01     2.09200e-02
      6030       6035      1   0.012677  -0.012211     3.00055e-01     6.91943e-02
      6030       6034      1   0.012677   0.008364     2.60142e-01     2.09200e-02
      6030       6033      1   0.012677   0.008364     2.60142e-01     2.09200e-02
      6029       6036      1  -0.031787   0.008477     3.00055e-01     6.91943e-02
      6029       6037      1  -0.031787   0.008477     3.00055e-01     6.91943e-02
      6028       6032      1   0.017208  -0.017521     3.00055e-01     6.91943e-02
      6028       6030      1   0.017208   0.010564     2.60142e-01     2.09200e-02
      6028       6031      1   0.017208   0.010564     2.60142e-01     2.09200e-02
      6027       6032      1   0.017208  -0.017521     3.00055e-01     6.91943e-02
      6027       6030      1   0.017208   0.010564     2.60142e-01     2.09200e-02
      6027       6031      1   0.017208   0.010564     2.60142e-01     2.09200e-02
      6026       6034      1  -0.028094   0.008364     3.00055e-01     6.91943e-02
      6026       6033      1  -0.028094   0.008364     3.00055e-01     6.91943e-02
      6025       6029      1   0.007531  -0.026489     3.00055e-01     6.91943e-02
      6025       6028      1   0.007531   0.014340     2.60142e-01     2.09200e-02
      6025       6027      1   0.007531   0.014340     2.60142e-01     2.09200e-02
      6024       6029      1   0.007531  -0.026489     3.00055e-01     6.91943e-02
      6024       6028      1   0.007531   0.014340     2.60142e-01     2.09200e-02
      6024       6027      1   0.007531   0.014340     2.60142e-01     2.09200e-02
      6023       6030      1   0.017463   0.010564     3.00055e-01     6.91943e-02
      6023       6031      1   0.017463   0.010564     3.00055e-01     6.91943e-02
      6022       6026      1   0.025511  -0.023412     3.00055e-01     6.91943e-02
      6022       6024      1   0.025511   0.006276     2.60142e-01     2.09200e-02
      6022       6025      1   0.025511   0.006276     2.60142e-01     2.09200e-02
      6021       6026      1   0.025511  -0.023412     3.00055e-01     6.91943e-02
      6021       6024      1   0.025511   0.006276     2.60142e-01     2.09200e-02
      6021       6025      1   0.025511   0.006276     2.60142e-01     2.09200e-02
      6020       6028      1  -0.111712   0.014340     3.00055e-01     6.91943e-02
      6020       6027      1  -0.111712   0.014340     3.00055e-01     6.91943e-02
      6019       6026      1   0.025511  -0.023412     3.00055e-01     6.91943e-02
      6019       6024      1   0.025511   0.006276     2.60142e-01     2.09200e-02
      6019       6025      1   0.025511   0.006276     2.60142e-01     2.09200e-02
      6096       6136      1  -0.673755   0.044953     2.78067e-01     9.58675e-02
      6096       6135      1  -0.673755   0.044953     2.78067e-01     9.58675e-02
      6095       6133      1   0.897613   0.015716     3.00055e-01     6.13495e-02
      6095       6132      1   0.897613   0.015716     3.00055e-01     6.13495e-02
      6094       6136      1  -0.552948   0.044953     2.80072e-01     8.62554e-02
      6094       6135      1  -0.552948   0.044953     2.80072e-01     8.62554e-02
      6087       6088      1   0.172230  -0.282478     2.67982e-01     8.67002e-02
      6086       6088      1   0.172230  -0.282478     2.67982e-01     8.67002e-02
      6085       6088      1   0.172230  -0.282478     2.67982e-01     8.67002e-02
      6084       6089      1  -0.338973   0.143525     2.67982e-01     8.67002e-02
      6084       6090      1  -0.338973   0.143525     2.67982e-01     8.67002e-02
      6084       6091      1  -0.338973   0.143525     2.67982e-01     8.67002e-02
      6083       6084      1   0.172230  -0.282478     2.67982e-01     8.67002e-02
      6083       6088      1   0.172230  -0.282478     2.67982e-01     8.67002e-02
      6082       6084      1   0.172230  -0.282478     2.67982e-01     8.67002e-02
      6082       6088      1   0.172230  -0.282478     2.67982e-01     8.67002e-02
      6081       6084      1   0.172230  -0.282478     2.67982e-01     8.67002e-02
      6081       6088      1   0.172230  -0.282478     2.67982e-01     8.67002e-02
      6080       6085      1  -0.338973   0.143525     2.67982e-01     8.67002e-02
      6080       6086      1  -0.338973   0.143525     2.67982e-01     8.67002e-02
      6080       6087      1  -0.338973   0.143525     2.67982e-01     8.67002e-02
      6080       6089      1  -0.338973   0.143525     2.67982e-01     8.67002e-02
      6080       6090      1  -0.338973   0.143525     2.67982e-01     8.67002e-02
      6080       6091      1  -0.338973   0.143525     2.67982e-01     8.67002e-02
      6078       6080      1   0.136415  -0.282478     2.67982e-01     8.67002e-02
      6078       6084      1   0.136415  -0.282478     2.67982e-01     8.67002e-02
      6078       6088      1   0.136415  -0.282478     2.67982e-01     8.67002e-02
      6077       6080      1   0.136415  -0.282478     2.67982e-01     8.67002e-02
      6077       6084      1   0.136415  -0.282478     2.67982e-01     8.67002e-02
      6077       6088      1   0.136415  -0.282478     2.67982e-01     8.67002e-02
      6076       6081      1  -0.170824   0.143525     2.67982e-01     8.67002e-02
      6076       6082      1  -0.170824   0.143525     2.67982e-01     8.67002e-02
      6076       6083      1  -0.170824   0.143525     2.67982e-01     8.67002e-02
      6076       6085      1  -0.170824   0.143525     2.67982e-01     8.67002e-02
      6076       6086      1  -0.170824   0.143525     2.67982e-01     8.67002e-02
      6076       6087      1  -0.170824   0.143525     2.67982e-01     8.67002e-02
      6076       6089      1  -0.170824   0.143525     2.67982e-01     8.67002e-02
      6076       6090      1  -0.170824   0.143525     2.67982e-01     8.67002e-02
      6076       6091      1  -0.170824   0.143525     2.67982e-01     8.67002e-02
      6075       6077      1   0.078534   0.113679     2.21567e-01     3.28444e-02
      6075       6078      1   0.078534   0.113679     2.21567e-01     3.28444e-02
      6075       6079      1   0.078534   0.204385     2.86068e-01     1.08078e-01
      6074       6077      1   0.078534   0.113679     2.21567e-01     3.28444e-02
      6074       6078      1   0.078534   0.113679     2.21567e-01     3.28444e-02
      6074       6079      1   0.078534   0.204385     2.86068e-01     1.08078e-01
      6072       6077      1  -0.508176   0.113679     2.47999e-01     1.08078e-01
      6072       6078      1  -0.508176   0.113679     2.47999e-01     1.08078e-01
      6071       6074      1   1.339721   0.065445     3.10656e-01     1.17227e-01
      6071       6075      1   1.339721   0.065445     3.10656e-01     1.17227e-01
      6069       6094      1   0.095591  -0.460790     2.73568e-01     1.08078e-01
      6069       6071      1   0.095591   1.116434     3.10656e-01     1.17227e-01
      6068       6094      1   0.095591  -0.460790     2.73568e-01     1.08078e-01
      6068       6071      1   0.095591   1.116434     3.10656e-01     1.17227e-01
      6066       6068      1   0.063253   0.079659     2.47135e-01     3.28444e-02
      6066       6069      1   0.063253   0.079659     2.47135e-01     3.28444e-02
      6066       6070      1   0.063253  -0.424567     2.73568e-01     1.08078e-01
      6066       6095      1   0.063253   0.748011     2.93551e-01     7.68707e-02
      6064       6066      1   0.070469   0.052711     2.47135e-01     3.28444e-02
      6064       6067      1   0.070469   0.014549     2.93551e-01     8.67002e-02
      6064       6094      1   0.070469  -0.460790     2.73568e-01     1.08078e-01
      6063       6066      1   0.070469   0.052711     2.47135e-01     3.28444e-02
      6063       6067      1   0.070469   0.014549     2.93551e-01     8.67002e-02
      6063       6094      1   0.070469  -0.460790     2.73568e-01     1.08078e-01
      6062       6068      1   0.196939   0.079659     2.93551e-01     8.67002e-02
      6062       6069      1   0.196939   0.079659     2.93551e-01     8.67002e-02
      6061       6066      1  -0.575489   0.052711     2.73568e-01     1.08078e-01
      6059       6063      1   0.910403   0.058724     2.93551e-01     7.68707e-02
      6059       6064      1   0.910403   0.058724     2.93551e-01     7.68707e-02
      6133       6136      1   0.018859   0.044953     2.60142e-01     2.09200e-02
      6133       6135      1   0.018859   0.044953     2.60142e-01     2.09200e-02
      6132       6136      1   0.018859   0.044953     2.60142e-01     2.09200e-02
      6132       6135      1   0.018859   0.044953     2.60142e-01     2.09200e-02
      6130       6134      1   0.020431  -0.136833     3.00055e-01     6.91943e-02
      6130       6133      1   0.020431   0.015716     2.60142e-01     2.09200e-02
      6130       6132      1   0.020431   0.015716     2.60142e-01     2.09200e-02
      6129       6134      1   0.020431  -0.136833     3.00055e-01     6.91943e-02
      6129       6133      1   0.020431   0.015716     2.60142e-01     2.09200e-02
      6129       6132      1   0.020431   0.015716     2.60142e-01     2.09200e-02
      6128       6136      1  -0.026954   0.044953     3.00055e-01     6.91943e-02
      6128       6135      1  -0.026954   0.044953     3.00055e-01     6.91943e-02
      6127       6131      1   0.010573  -0.002029     3.00055e-01     6.91943e-02
      6127       6130      1   0.010573   0.017026     2.60142e-01     2.09200e-02
      6127       6129      1   0.010573   0.017026     2.60142e-01     2.09200e-02
      6126       6131      1   0.010573  -0.002029     3.00055e-01     6.91943e-02
      6126       6130      1   0.010573   0.017026     2.60142e-01     2.09200e-02
      6126       6129      1   0.010573   0.017026     2.60142e-01     2.09200e-02
      6125       6133      1  -0.016521   0.015716     3.00055e-01     6.91943e-02
      6125       6132      1  -0.016521   0.015716     3.00055e-01     6.91943e-02
      6124       6128      1   0.011511  -0.022462     3.00055e-01     6.91943e-02
      6124       6126      1   0.011511   0.008811     2.60142e-01     2.09200e-02
      6124       6127      1   0.011511   0.008811     2.60142e-01     2.09200e-02
      6123       6128      1   0.011511  -0.022462     3.00055e-01     6.91943e-02
      6123       6126      1   0.011511   0.008811     2.60142e-01     2.09200e-02
      6123       6127      1   0.011511   0.008811     2.60142e-01     2.09200e-02
      6122       6130      1  -0.027812   0.017026     3.00055e-01     6.91943e-02
      6122       6129      1  -0.027812   0.017026     3.00055e-01     6.91943e-02
      6121       6125      1   0.006833  -0.013767     3.00055e-01     6.91943e-02
      6121       6123      1   0.006833   0.009592     2.60142e-01     2.09200e-02
      6121       6124      1   0.006833   0.009592     2.60142e-01     2.09200e-02
      6120       6125      1   0.006833  -0.013767     3.00055e-01     6.91943e-02
      6120       6123      1   0.006833   0.009592     2.60142e-01     2.09200e-02
      6120       6124      1   0.006833   0.009592     2.60142e-01     2.09200e-02
      6119       6126      1  -0.004386   0.008811     3.00055e-01     6.91943e-02
      6119       6127      1  -0.004386   0.008811     3.00055e-01     6.91943e-02
      6118       6122      1   0.011241  -0.023177     3.00055e-01     6.91943e-02
      6118       6120      1   0.011241   0.005694     2.60142e-01     2.09200e-02
      6118       6121      1   0.011241   0.005694     2.60142e-01     2.09200e-02
      6117       6122      1   0.011241  -0.023177     3.00055e-01     6.91943e-02
      6117       6120      1   0.011241   0.005694     2.60142e-01     2.09200e-02
      6117       6121      1   0.011241   0.005694     2.60142e-01     2.09200e-02
      6116       6123      1  -0.026451   0.009592     3.00055e-01     6.91943e-02
      6116       6124      1  -0.026451   0.009592     3.00055e-01     6.91943e-02
      6115       6119      1   0.010172  -0.003655     3.00055e-01     6.91943e-02
      6115       6118      1   0.010172   0.009367     2.60142e-01     2.09200e-02
      6115       6117      1   0.010172   0.009367     2.60142e-01     2.09200e-02
      6114       6119      1   0.010172  -0.003655     3.00055e-01     6.91943e-02
      6114       6118      1   0.010172   0.009367     2.60142e-01     2.09200e-02
      6114       6117      1   0.010172   0.009367     2.60142e-01     2.09200e-02
      6113       6120      1  -0.014653   0.005694     3.00055e-01     6.91943e-02
      6113       6121      1  -0.014653   0.005694     3.00055e-01     6.91943e-02
      6112       6116      1   0.010037  -0.022042     3.00055e-01     6.91943e-02
      6112       6114      1   0.010037   0.008477     2.60142e-01     2.09200e-02
      6112       6115      1   0.010037   0.008477     2.60142e-01     2.09200e-02
      6111       6116      1   0.010037  -0.022042     3.00055e-01     6.91943e-02
      6111       6114      1   0.010037   0.008477     2.60142e-01     2.09200e-02
      6111       6115      1   0.010037   0.008477     2.60142e-01     2.09200e-02
      6110       6118      1  -0.021025   0.009367     3.00055e-01     6.91943e-02
      6110       6117      1  -0.021025   0.009367     3.00055e-01     6.91943e-02
      6109       6113      1   0.012677  -0.012211     3.00055e-01     6.91943e-02
      6109       6112      1   0.012677   0.008364     2.60142e-01     2.09200e-02
      6109       6111      1   0.012677   0.008364     2.60142e-01     2.09200e-02
      6108       6113      1   0.012677  -0.012211     3.00055e-01     6.91943e-02
      6108       6112      1   0.012677   0.008364     2.60142e-01     2.09200e-02
      6108       6111      1   0.012677   0.008364     2.60142e-01     2.09200e-02
      6107       6114      1  -0.031787   0.008477     3.00055e-01     6.91943e-02
      6107       6115      1  -0.031787   0.008477     3.00055e-01     6.91943e-02
      6106       6110      1   0.017208  -0.017521     3.00055e-01     6.91943e-02
      6106       6108      1   0.017208   0.010564     2.60142e-01     2.09200e-02
      6106       6109      1   0.017208   0.010564     2.60142e-01     2.09200e-02
      6105       6110      1   0.017208  -0.017521     3.00055e-01     6.91943e-02
      6105       6108      1   0.017208   0.010564     2.60142e-01     2.09200e-02
      6105       6109      1   0.017208   0.010564     2.60142e-01     2.09200e-02
      6104       6112      1  -0.028094   0.008364     3.00055e-01     6.91943e-02
      6104       6111      1  -0.028094   0.008364     3.00055e-01     6.91943e-02
      6103       6107      1   0.007531  -0.026489     3.00055e-01     6.91943e-02
      6103       6106      1   0.007531   0.014340     2.60142e-01     2.09200e-02
      6103       6105      1   0.007531   0.014340     2.60142e-01     2.09200e-02
      6102       6107      1   0.007531  -0.026489     3.00055e-01     6.91943e-02
      6102       6106      1   0.007531   0.014340     2.60142e-01     2.09200e-02
      6102       6105      1   0.007531   0.014340     2.60142e-01     2.09200e-02
      6101       6108      1   0.017463   0.010564     3.00055e-01     6.91943e-02
      6101       6109      1   0.017463   0.010564     3.00055e-01     6.91943e-02
      6100       6104      1   0.025511  -0.023412     3.00055e-01     6.91943e-02
      6100       6102      1   0.025511   0.006276     2.60142e-01     2.09200e-02
      6100       6103      1   0.025511   0.006276     2.60142e-01     2.09200e-02
      6099       6104      1   0.025511  -0.023412     3.00055e-01     6.91943e-02
      6099       6102      1   0.025511   0.006276     2.60142e-01     2.09200e-02
      6099       6103      1   0.025511   0.006276     2.60142e-01     2.09200e-02
      6098       6106      1  -0.111712   0.014340     3.00055e-01     6.91943e-02
      6098       6105      1  -0.111712   0.014340     3.00055e-01     6.91943e-02
      6097       6104      1   0.025511  -0.023412     3.00055e-01     6.91943e-02
      6097       6102      1   0.025511   0.006276     2.60142e-01     2.09200e-02
      6097       6103      1   0.025511   0.006276     2.60142e-01     2.09200e-02
      6176       6178      1   0.053944  -0.559638     2.78067e-01     9.58675e-02
      6176       6179      1   0.053944  -0.479574     2.80072e-01     8.62554e-02
      6175       6178      1   0.053944  -0.559638     2.78067e-01     9.58675e-02
      6175       6179      1   0.053944  -0.479574     2.80072e-01     8.62554e-02
      6173       6176      1   0.018859   0.044953     2.60142e-01     2.09200e-02
      6173       6175      1   0.018859   0.044953     2.60142e-01     2.09200e-02
      6173       6177      1   0.018859   0.758669     3.00055e-01     6.13495e-02
      6172       6176      1   0.018859   0.044953     2.60142e-01     2.09200e-02
      6172       6175      1   0.018859   0.044953     2.60142e-01     2.09200e-02
      6172       6177      1   0.018859   0.758669     3.00055e-01     6.13495e-02
      6170       6174      1   0.020431  -0.136833     3.00055e-01     6.91943e-02
      6170       6173      1   0.020431   0.015716     2.60142e-01     2.09200e-02
      6170       6172      1   0.020431   0.015716     2.60142e-01     2.09200e-02
      6169       6174      1   0.020431  -0.136833     3.00055e-01     6.91943e-02
      6169       6173      1   0.020431   0.015716     2.60142e-01     2.09200e-02
      6169       6172      1   0.020431   0.015716     2.60142e-01     2.09200e-02
      6168       6176      1  -0.026954   0.044953     3.00055e-01     6.91943e-02
      6168       6175      1  -0.026954   0.044953     3.00055e-01     6.91943e-02
      6167       6171      1   0.010573  -0.002029     3.00055e-01     6.91943e-02
      6167       6170      1   0.010573   0.017026     2.60142e-01     2.09200e-02
      6167       6169      1   0.010573   0.017026     2.60142e-01     2.09200e-02
      6166       6171      1   0.010573  -0.002029     3.00055e-01     6.91943e-02
      6166       6170      1   0.010573   0.017026     2.60142e-01     2.09200e-02
      6166       6169      1   0.010573   0.017026     2.60142e-01     2.09200e-02
      6165       6173      1  -0.016521   0.015716     3.00055e-01     6.91943e-02
      6165       6172      1  -0.016521   0.015716     3.00055e-01     6.91943e-02
      6164       6168      1   0.011511  -0.022462     3.00055e-01     6.91943e-02
      6164       6166      1   0.011511   0.008811     2.60142e-01     2.09200e-02
      6164       6167      1   0.011511   0.008811     2.60142e-01     2.09200e-02
      6163       6168      1   0.011511  -0.022462     3.00055e-01     6.91943e-02
      6163       6166      1   0.011511   0.008811     2.60142e-01     2.09200e-02
      6163       6167      1   0.011511   0.008811     2.60142e-01     2.09200e-02
      6162       6170      1  -0.027812   0.017026     3.00055e-01     6.91943e-02
      6162       6169      1  -0.027812   0.017026     3.00055e-01     6.91943e-02
      6161       6165      1   0.006833  -0.013767     3.00055e-01     6.91943e-02
      6161       6163      1   0.006833   0.009592     2.60142e-01     2.09200e-02
      6161       6164      1   0.006833   0.009592     2.60142e-01     2.09200e-02
      6160       6165      1   0.006833  -0.013767     3.00055e-01     6.91943e-02
      6160       6163      1   0.006833   0.009592     2.60142e-01     2.09200e-02
      6160       6164      1   0.006833   0.009592     2.60142e-01     2.09200e-02
      6159       6166      1  -0.004386   0.008811     3.00055e-01     6.91943e-02
      6159       6167      1  -0.004386   0.008811     3.00055e-01     6.91943e-02
      6158       6162      1   0.011241  -0.023177     3.00055e-01     6.91943e-02
      6158       6160      1   0.011241   0.005694     2.60142e-01     2.09200e-02
      6158       6161      1   0.011241   0.005694     2.60142e-01     2.09200e-02
      6157       6162      1   0.011241  -0.023177     3.00055e-01     6.91943e-02
      6157       6160      1   0.011241   0.005694     2.60142e-01     2.09200e-02
      6157       6161      1   0.011241   0.005694     2.60142e-01     2.09200e-02
      6156       6163      1  -0.026451   0.009592     3.00055e-01     6.91943e-02
      6156       6164      1  -0.026451   0.009592     3.00055e-01     6.91943e-02
      6155       6159      1   0.010172  -0.003655     3.00055e-01     6.91943e-02
      6155       6158      1   0.010172   0.009367     2.60142e-01     2.09200e-02
      6155       6157      1   0.010172   0.009367     2.60142e-01     2.09200e-02
      6154       6159      1   0.010172  -0.003655     3.00055e-01     6.91943e-02
      6154       6158      1   0.010172   0.009367     2.60142e-01     2.09200e-02
      6154       6157      1   0.010172   0.009367     2.60142e-01     2.09200e-02
      6153       6160      1  -0.014653   0.005694     3.00055e-01     6.91943e-02
      6153       6161      1  -0.014653   0.005694     3.00055e-01     6.91943e-02
      6152       6156      1   0.010037  -0.022042     3.00055e-01     6.91943e-02
      6152       6154      1   0.010037   0.008477     2.60142e-01     2.09200e-02
      6152       6155      1   0.010037   0.008477     2.60142e-01     2.09200e-02
      6151       6156      1   0.010037  -0.022042     3.00055e-01     6.91943e-02
      6151       6154      1   0.010037   0.008477     2.60142e-01     2.09200e-02
      6151       6155      1   0.010037   0.008477     2.60142e-01     2.09200e-02
      6150       6158      1  -0.021025   0.009367     3.00055e-01     6.91943e-02
      6150       6157      1  -0.021025   0.009367     3.00055e-01     6.91943e-02
      6149       6153      1   0.012677  -0.012211     3.00055e-01     6.91943e-02
      6149       6152      1   0.012677   0.008364     2.60142e-01     2.09200e-02
      6149       6151      1   0.012677   0.008364     2.60142e-01     2.09200e-02
      6148       6153      1   0.012677  -0.012211     3.00055e-01     6.91943e-02
      6148       6152      1   0.012677   0.008364     2.60142e-01     2.09200e-02
      6148       6151      1   0.012677   0.008364     2.60142e-01     2.09200e-02
      6147       6154      1  -0.031787   0.008477     3.00055e-01     6.91943e-02
      6147       6155      1  -0.031787   0.008477     3.00055e-01     6.91943e-02
      6146       6150      1   0.017208  -0.017521     3.00055e-01     6.91943e-02
      6146       6148      1   0.017208   0.010564     2.60142e-01     2.09200e-02
      6146       6149      1   0.017208   0.010564     2.60142e-01     2.09200e-02
      6145       6150      1   0.017208  -0.017521     3.00055e-01     6.91943e-02
      6145       6148      1   0.017208   0.010564     2.60142e-01     2.09200e-02
      6145       6149      1   0.017208   0.010564     2.60142e-01     2.09200e-02
      6144       6152      1  -0.028094   0.008364     3.00055e-01     6.91943e-02
      6144       6151      1  -0.028094   0.008364     3.00055e-01     6.91943e-02
      6143       6147      1   0.007531  -0.026489     3.00055e-01     6.91943e-02
      6143       6146      1   0.007531   0.014340     2.60142e-01     2.09200e-02
      6143       6145      1   0.007531   0.014340     2.60142e-01     2.09200e-02
      6142       6147      1   0.007531  -0.026489     3.00055e-01     6.91943e-02
      6142       6146      1   0.007531   0.014340     2.60142e-01     2.09200e-02
      6142       6145      1   0.007531   0.014340     2.60142e-01     2.09200e-02
      6141       6148      1   0.017463   0.010564     3.00055e-01     6.91943e-02
      6141       6149      1   0.017463   0.010564     3.00055e-01     6.91943e-02
      6140       6144      1   0.025511  -0.023412     3.00055e-01     6.91943e-02
      6140       6142      1   0.025511   0.006276     2.60142e-01     2.09200e-02
      6140       6143      1   0.025511   0.006276     2.60142e-01     2.09200e-02
      6139       6144      1   0.025511  -0.023412     3.00055e-01     6.91943e-02
      6139       6142      1   0.025511   0.006276     2.60142e-01     2.09200e-02
      6139       6143      1   0.025511   0.006276     2.60142e-01     2.09200e-02
      6138       6146      1  -0.111712   0.014340     3.00055e-01     6.91943e-02
      6138       6145      1  -0.111712   0.014340     3.00055e-01     6.91943e-02
      6137       6144      1   0.025511  -0.023412     3.00055e-01     6.91943e-02
      6137       6142      1   0.025511   0.006276     2.60142e-01     2.09200e-02
      6137       6143      1   0.025511   0.006276     2.60142e-01     2.09200e-02
      6214       6254      1  -0.673755   0.044953     2.78067e-01     9.58675e-02
      6214       6253      1  -0.673755   0.044953     2.78067e-01     9.58675e-02
      6213       6251      1   0.897613   0.015716     3.00055e-01     6.13495e-02
      6213       6250      1   0.897613   0.015716     3.00055e-01     6.13495e-02
      6212       6254      1  -0.552948   0.044953     2.80072e-01     8.62554e-02
      6212       6253      1  -0.552948   0.044953     2.80072e-01     8.62554e-02
      6205       6206      1   0.172230  -0.282478     2.67982e-01     8.67002e-02
      6204       6206      1   0.172230  -0.282478     2.67982e-01     8.67002e-02
      6203       6206      1   0.172230  -0.282478     2.67982e-01     8.67002e-02
      6202       6207      1  -0.338973   0.143525     2.67982e-01     8.67002e-02
      6202       6208      1  -0.338973   0.143525     2.67982e-01     8.67002e-02
      6202       6209      1  -0.338973   0.143525     2.67982e-01     8.67002e-02
      6201       6202      1   0.172230  -0.282478     2.67982e-01     8.67002e-02
      6201       6206      1   0.172230  -0.282478     2.67982e-01     8.67002e-02
      6200       6202      1   0.172230  -0.282478     2.67982e-01     8.67002e-02
      6200       6206      1   0.172230  -0.282478     2.67982e-01     8.67002e-02
      6199       6202      1   0.172230  -0.282478     2.67982e-01     8.67002e-02
      6199       6206      1   0.172230  -0.282478     2.67982e-01     8.67002e-02
      6198       6203      1  -0.338973   0.143525     2.67982e-01     8.67002e-02
      6198       6204      1  -0.338973   0.143525     2.67982e-01     8.67002e-02
      6198       6205      1  -0.338973   0.143525     2.67982e-01     8.67002e-02
      6198       6207      1  -0.338973   0.143525     2.67982e-01     8.67002e-02
      6198       6208      1  -0.338973   0.143525     2.67982e-01     8.67002e-02
      6198       6209      1  -0.338973   0.143525     2.67982e-01     8.67002e-02
      6196       6198      1   0.136415  -0.282478     2.67982e-01     8.67002e-02
      6196       6202      1   0.136415  -0.282478     2.67982e-01     8.67002e-02
      6196       6206      1   0.136415  -0.282478     2.67982e-01     8.67002e-02
      6195       6198      1   0.136415  -0.282478     2.67982e-01     8.67002e-02
      6195       6202      1   0.136415  -0.282478     2.67982e-01     8.67002e-02
      6195       6206      1   0.136415  -0.282478     2.67982e-01     8.67002e-02
      6194       6199      1  -0.170824   0.143525     2.67982e-01     8.67002e-02
      6194       6200      1  -0.170824   0.143525     2.67982e-01     8.67002e-02
      6194       6201      1  -0.170824   0.143525     2.67982e-01     8.67002e-02
      6194       6203      1  -0.170824   0.143525     2.67982e-01     8.67002e-02
      6194       6204      1  -0.170824   0.143525     2.67982e-01     8.67002e-02
      6194       6205      1  -0.170824   0.143525     2.67982e-01     8.67002e-02
      6194       6207      1  -0.170824   0.143525     2.67982e-01     8.67002e-02
      6194       6208      1  -0.170824   0.143525     2.67982e-01     8.67002e-02
      6194       6209      1  -0.170824   0.143525     2.67982e-01     8.67002e-02
      6193       6195      1   0.078534   0.113679     2.21567e-01     3.28444e-02
      6193       6196      1   0.078534   0.113679     2.21567e-01     3.28444e-02
      6193       6197      1   0.078534   0.204385     2.86068e-01     1.08078e-01
      6192       6195      1   0.078534   0.113679     2.21567e-01     3.28444e-02
      6192       6196      1   0.078534   0.113679     2.21567e-01     3.28444e-02
      6192       6197      1   0.078534   0.204385     2.86068e-01     1.08078e-01
      6190       6195      1  -0.508176   0.113679     2.47999e-01     1.08078e-01
      6190       6196      1  -0.508176   0.113679     2.47999e-01     1.08078e-01
      6189       6192      1   1.339721   0.065445     3.10656e-01     1.17227e-01
      6189       6193      1   1.339721   0.065445     3.10656e-01     1.17227e-01
      6187       6212      1   0.095591  -0.460790     2.73568e-01     1.08078e-01
      6187       6189      1   0.095591   1.116434     3.10656e-01     1.17227e-01
      6186       6212      1   0.095591  -0.460790     2.73568e-01     1.08078e-01
      6186       6189      1   0.095591   1.116434     3.10656e-01     1.17227e-01
      6184       6186      1   0.063253   0.079659     2.47135e-01     3.28444e-02
      6184       6187      1   0.063253   0.079659     2.47135e-01     3.28444e-02
      6184       6188      1   0.063253  -0.424567     2.73568e-01     1.08078e-01
      6184       6213      1   0.063253   0.748011     2.93551e-01     7.68707e-02
      6182       6184      1   0.070469   0.052711     2.47135e-01     3.28444e-02
      6182       6185      1   0.070469   0.014549     2.93551e-01     8.67002e-02
      6182       6212      1   0.070469  -0.460790     2.73568e-01     1.08078e-01
      6181       6184      1   0.070469   0.052711     2.47135e-01     3.28444e-02
      6181       6185      1   0.070469   0.014549     2.93551e-01     8.67002e-02
      6181       6212      1   0.070469  -0.460790     2.73568e-01     1.08078e-01
      6180       6186      1   0.196939   0.079659     2.93551e-01     8.67002e-02
      6180       6187      1   0.196939   0.079659     2.93551e-01     8.67002e-02
      6179       6184      1  -0.575489   0.052711     2.73568e-01     1.08078e-01
      6177       6181      1   0.910403   0.058724     2.93551e-01     7.68707e-02
      6177       6182      1   0.910403   0.058724     2.93551e-01     7.68707e-02
      6251       6254      1   0.018859   0.044953     2.60142e-01     2.09200e-02
      6251       6253      1   0.018859   0.044953     2.60142e-01     2.09200e-02
      6250       6254      1   0.018859   0.044953     2.60142e-01     2.09200e-02
      6250       6253      1   0.018859   0.044953     2.60142e-01     2.09200e-02
      6248       6252      1   0.020431  -0.136833     3.00055e-01     6.91943e-02
      6248       6251      1   0.020431   0.015716     2.60142e-01     2.09200e-02
      6248       6250      1   0.020431   0.015716     2.60142e-01     2.09200e-02
      6247       6252      1   0.020431  -0.136833     3.00055e-01     6.91943e-02
      6247       6251      1   0.020431   0.015716     2.60142e-01     2.09200e-02
      6247       6250      1   0.020431   0.015716     2.60142e-01     2.09200e-02
      6246       6254      1  -0.026954   0.044953     3.00055e-01     6.91943e-02
      6246       6253      1  -0.026954   0.044953     3.00055e-01     6.91943e-02
      6245       6249      1   0.010573  -0.002029     3.00055e-01     6.91943e-02
      6245       6248      1   0.010573   0.017026     2.60142e-01     2.09200e-02
      6245       6247      1   0.010573   0.017026     2.60142e-01     2.09200e-02
      6244       6249      1   0.010573  -0.002029     3.00055e-01     6.91943e-02
      6244       6248      1   0.010573   0.017026     2.60142e-01     2.09200e-02
      6244       6247      1   0.010573   0.017026     2.60142e-01     2.09200e-02
      6243       6251      1  -0.016521   0.015716     3.00055e-01     6.91943e-02
      6243       6250      1  -0.016521   0.015716     3.00055e-01     6.91943e-02
      6242       6246      1   0.011511  -0.022462     3.00055e-01     6.91943e-02
      6242       6244      1   0.011511   0.008811     2.60142e-01     2.09200e-02
      6242       6245      1   0.011511   0.008811     2.60142e-01     2.09200e-02
      6241       6246      1   0.011511  -0.022462     3.00055e-01     6.91943e-02
      6241       6244      1   0.011511   0.008811     2.60142e-01     2.09200e-02
      6241       6245      1   0.011511   0.008811     2.60142e-01     2.09200e-02
      6240       6248      1  -0.027812   0.017026     3.00055e-01     6.91943e-02
      6240       6247      1  -0.027812   0.017026     3.00055e-01     6.91943e-02
      6239       6243      1   0.006833  -0.013767     3.00055e-01     6.91943e-02
      6239       6241      1   0.006833   0.009592     2.60142e-01     2.09200e-02
      6239       6242      1   0.006833   0.009592     2.60142e-01     2.09200e-02
      6238       6243      1   0.006833  -0.013767     3.00055e-01     6.91943e-02
      6238       6241      1   0.006833   0.009592     2.60142e-01     2.09200e-02
      6238       6242      1   0.006833   0.009592     2.60142e-01     2.09200e-02
      6237       6244      1  -0.004386   0.008811     3.00055e-01     6.91943e-02
      6237       6245      1  -0.004386   0.008811     3.00055e-01     6.91943e-02
      6236       6240      1   0.011241  -0.023177     3.00055e-01     6.91943e-02
      6236       6238      1   0.011241   0.005694     2.60142e-01     2.09200e-02
      6236       6239      1   0.011241   0.005694     2.60142e-01     2.09200e-02
      6235       6240      1   0.011241  -0.023177     3.00055e-01     6.91943e-02
      6235       6238      1   0.011241   0.005694     2.60142e-01     2.09200e-02
      6235       6239      1   0.011241   0.005694     2.60142e-01     2.09200e-02
      6234       6241      1  -0.026451   0.009592     3.00055e-01     6.91943e-02
      6234       6242      1  -0.026451   0.009592     3.00055e-01     6.91943e-02
      6233       6237      1   0.010172  -0.003655     3.00055e-01     6.91943e-02
      6233       6236      1   0.010172   0.009367     2.60142e-01     2.09200e-02
      6233       6235      1   0.010172   0.009367     2.60142e-01     2.09200e-02
      6232       6237      1   0.010172  -0.003655     3.00055e-01     6.91943e-02
      6232       6236      1   0.010172   0.009367     2.60142e-01     2.09200e-02
      6232       6235      1   0.010172   0.009367     2.60142e-01     2.09200e-02
      6231       6238      1  -0.014653   0.005694     3.00055e-01     6.91943e-02
      6231       6239      1  -0.014653   0.005694     3.00055e-01     6.91943e-02
      6230       6234      1   0.010037  -0.022042     3.00055e-01     6.91943e-02
      6230       6232      1   0.010037   0.008477     2.60142e-01     2.09200e-02
      6230       6233      1   0.010037   0.008477     2.60142e-01     2.09200e-02
      6229       6234      1   0.010037  -0.022042     3.00055e-01     6.91943e-02
      6229       6232      1   0.010037   0.008477     2.60142e-01     2.09200e-02
      6229       6233      1   0.010037   0.008477     2.60142e-01     2.09200e-02
      6228       6236      1  -0.021025   0.009367     3.00055e-01     6.91943e-02
      6228       6235      1  -0.021025   0.009367     3.00055e-01     6.91943e-02
      6227       6231      1   0.012677  -0.012211     3.00055e-01     6.91943e-02
      6227       6230      1   0.012677   0.008364     2.60142e-01     2.09200e-02
      6227       6229      1   0.012677   0.008364     2.60142e-01     2.09200e-02
      6226       6231      1   0.012677  -0.012211     3.00055e-01     6.91943e-02
      6226       6230      1   0.012677   0.008364     2.60142e-01     2.09200e-02
      6226       6229      1   0.012677   0.008364     2.60142e-01     2.09200e-02
      6225       6232      1  -0.031787   0.008477     3.00055e-01     6.91943e-02
      6225       6233      1  -0.031787   0.008477     3.00055e-01     6.91943e-02
      6224       6228      1   0.017208  -0.017521     3.00055e-01     6.91943e-02
      6224       6226      1   0.017208   0.010564     2.60142e-01     2.09200e-02
      6224       6227      1   0.017208   0.010564     2.60142e-01     2.09200e-02
      6223       6228      1   0.017208  -0.017521     3.00055e-01     6.91943e-02
      6223       6226      1   0.017208   0.010564     2.60142e-01     2.09200e-02
      6223       6227      1   0.017208   0.010564     2.60142e-01     2.09200e-02
      6222       6230      1  -0.028094   0.008364     3.00055e-01     6.91943e-02
      6222       6229      1  -0.028094   0.008364     3.00055e-01     6.91943e-02
      6221       6225      1   0.007531  -0.026489     3.00055e-01     6.91943e-02
      6221       6224      1   0.007531   0.014340     2.60142e-01     2.09200e-02
      6221       6223      1   0.007531   0.014340     2.60142e-01     2.09200e-02
      6220       6225      1   0.007531  -0.026489     3.00055e-01     6.91943e-02
      6220       6224      1   0.007531   0.014340     2.60142e-01     2.09200e-02
      6220       6223      1   0.007531   0.014340     2.60142e-01     2.09200e-02
      6219       6226      1   0.017463   0.010564     3.00055e-01     6.91943e-02
      6219       6227      1   0.017463   0.010564     3.00055e-01     6.91943e-02
      6218       6222      1   0.025511  -0.023412     3.00055e-01     6.91943e-02
      6218       6220      1   0.025511   0.006276     2.60142e-01     2.09200e-02
      6218       6221      1   0.025511   0.006276     2.60142e-01     2.09200e-02
      6217       6222      1   0.025511  -0.023412     3.00055e-01     6.91943e-02
      6217       6220      1   0.025511   0.006276     2.60142e-01     2.09200e-02
      6217       6221      1   0.025511   0.006276     2.60142e-01     2.09200e-02
      6216       6224      1  -0.111712   0.014340     3.00055e-01     6.91943e-02
      6216       6223      1  -0.111712   0.014340     3.00055e-01     6.91943e-02
      6215       6222      1   0.025511  -0.023412     3.00055e-01     6.91943e-02
      6215       6220      1   0.025511   0.006276     2.60142e-01     2.09200e-02
      6215       6221      1   0.025511   0.006276     2.60142e-01     2.09200e-02
      6294       6296      1   0.053944  -0.559638     2.78067e-01     9.58675e-02
      6294       6297      1   0.053944  -0.479574     2.80072e-01     8.62554e-02
      6293       6296      1   0.053944  -0.559638     2.78067e-01     9.58675e-02
      6293       6297      1   0.053944  -0.479574     2.80072e-01     8.62554e-02
      6291       6294      1   0.018859   0.044953     2.60142e-01     2.09200e-02
      6291       6293      1   0.018859   0.044953     2.60142e-01     2.09200e-02
      6291       6295      1   0.018859   0.758669     3.00055e-01     6.13495e-02
      6290       6294      1   0.018859   0.044953     2.60142e-01     2.09200e-02
      6290       6293      1   0.018859   0.044953     2.60142e-01     2.09200e-02
      6290       6295      1   0.018859   0.758669     3.00055e-01     6.13495e-02
      6288       6292      1   0.020431  -0.136833     3.00055e-01     6.91943e-02
      6288       6291      1   0.020431   0.015716     2.60142e-01     2.09200e-02
      6288       6290      1   0.020431   0.015716     2.60142e-01     2.09200e-02
      6287       6292      1   0.020431  -0.136833     3.00055e-01     6.91943e-02
      6287       6291      1   0.020431   0.015716     2.60142e-01     2.09200e-02
      6287       6290      1   0.020431   0.015716     2.60142e-01     2.09200e-02
      6286       6294      1  -0.026954   0.044953     3.00055e-01     6.91943e-02
      6286       6293      1  -0.026954   0.044953     3.00055e-01     6.91943e-02
      6285       6289      1   0.010573  -0.002029     3.00055e-01     6.91943e-02
      6285       6288      1   0.010573   0.017026     2.60142e-01     2.09200e-02
      6285       6287      1   0.010573   0.017026     2.60142e-01     2.09200e-02
      6284       6289      1   0.010573  -0.002029     3.00055e-01     6.91943e-02
      6284       6288      1   0.010573   0.017026     2.60142e-01     2.09200e-02
      6284       6287      1   0.010573   0.017026     2.60142e-01     2.09200e-02
      6283       6291      1  -0.016521   0.015716     3.00055e-01     6.91943e-02
      6283       6290      1  -0.016521   0.015716     3.00055e-01     6.91943e-02
      6282       6286      1   0.011511  -0.022462     3.00055e-01     6.91943e-02
      6282       6284      1   0.011511   0.008811     2.60142e-01     2.09200e-02
      6282       6285      1   0.011511   0.008811     2.60142e-01     2.09200e-02
      6281       6286      1   0.011511  -0.022462     3.00055e-01     6.91943e-02
      6281       6284      1   0.011511   0.008811     2.60142e-01     2.09200e-02
      6281       6285      1   0.011511   0.008811     2.60142e-01     2.09200e-02
      6280       6288      1  -0.027812   0.017026     3.00055e-01     6.91943e-02
      6280       6287      1  -0.027812   0.017026     3.00055e-01     6.91943e-02
      6279       6283      1   0.006833  -0.013767     3.00055e-01     6.91943e-02
      6279       6281      1   0.006833   0.009592     2.60142e-01     2.09200e-02
      6279       6282      1   0.006833   0.009592     2.60142e-01     2.09200e-02
      6278       6283      1   0.006833  -0.013767     3.00055e-01     6.91943e-02
      6278       6281      1   0.006833   0.009592     2.60142e-01     2.09200e-02
      6278       6282      1   0.006833   0.009592     2.60142e-01     2.09200e-02
      6277       6284      1  -0.004386   0.008811     3.00055e-01     6.91943e-02
      6277       6285      1  -0.004386   0.008811     3.00055e-01     6.91943e-02
      6276       6280      1   0.011241  -0.023177     3.00055e-01     6.91943e-02
      6276       6278      1   0.011241   0.005694     2.60142e-01     2.09200e-02
      6276       6279      1   0.011241   0.005694     2.60142e-01     2.09200e-02
      6275       6280      1   0.011241  -0.023177     3.00055e-01     6.91943e-02
      6275       6278      1   0.011241   0.005694     2.60142e-01     2.09200e-02
      6275       6279      1   0.011241   0.005694     2.60142e-01     2.09200e-02
      6274       6281      1  -0.026451   0.009592     3.00055e-01     6.91943e-02
      6274       6282      1  -0.026451   0.009592     3.00055e-01     6.91943e-02
      6273       6277      1   0.010172  -0.003655     3.00055e-01     6.91943e-02
      6273       6276      1   0.010172   0.009367     2.60142e-01     2.09200e-02
      6273       6275      1   0.010172   0.009367     2.60142e-01     2.09200e-02
      6272       6277      1   0.010172  -0.003655     3.00055e-01     6.91943e-02
      6272       6276      1   0.010172   0.009367     2.60142e-01     2.09200e-02
      6272       6275      1   0.010172   0.009367     2.60142e-01     2.09200e-02
      6271       6278      1  -0.014653   0.005694     3.00055e-01     6.91943e-02
      6271       6279      1  -0.014653   0.005694     3.00055e-01     6.91943e-02
      6270       6274      1   0.010037  -0.022042     3.00055e-01     6.91943e-02
      6270       6272      1   0.010037   0.008477     2.60142e-01     2.09200e-02
      6270       6273      1   0.010037   0.008477     2.60142e-01     2.09200e-02
      6269       6274      1   0.010037  -0.022042     3.00055e-01     6.91943e-02
      6269       6272      1   0.010037   0.008477     2.60142e-01     2.09200e-02
      6269       6273      1   0.010037   0.008477     2.60142e-01     2.09200e-02
      6268       6276      1  -0.021025   0.009367     3.00055e-01     6.91943e-02
      6268       6275      1  -0.021025   0.009367     3.00055e-01     6.91943e-02
      6267       6271      1   0.012677  -0.012211     3.00055e-01     6.91943e-02
      6267       6270      1   0.012677   0.008364     2.60142e-01     2.09200e-02
      6267       6269      1   0.012677   0.008364     2.60142e-01     2.09200e-02
      6266       6271      1   0.012677  -0.012211     3.00055e-01     6.91943e-02
      6266       6270      1   0.012677   0.008364     2.60142e-01     2.09200e-02
      6266       6269      1   0.012677   0.008364     2.60142e-01     2.09200e-02
      6265       6272      1  -0.031787   0.008477     3.00055e-01     6.91943e-02
      6265       6273      1  -0.031787   0.008477     3.00055e-01     6.91943e-02
      6264       6268      1   0.017208  -0.017521     3.00055e-01     6.91943e-02
      6264       6266      1   0.017208   0.010564     2.60142e-01     2.09200e-02
      6264       6267      1   0.017208   0.010564     2.60142e-01     2.09200e-02
      6263       6268      1   0.017208  -0.017521     3.00055e-01     6.91943e-02
      6263       6266      1   0.017208   0.010564     2.60142e-01     2.09200e-02
      6263       6267      1   0.017208   0.010564     2.60142e-01     2.09200e-02
      6262       6270      1  -0.028094   0.008364     3.00055e-01     6.91943e-02
      6262       6269      1  -0.028094   0.008364     3.00055e-01     6.91943e-02
      6261       6265      1   0.007531  -0.026489     3.00055e-01     6.91943e-02
      6261       6264      1   0.007531   0.014340     2.60142e-01     2.09200e-02
      6261       6263      1   0.007531   0.014340     2.60142e-01     2.09200e-02
      6260       6265      1   0.007531  -0.026489     3.00055e-01     6.91943e-02
      6260       6264      1   0.007531   0.014340     2.60142e-01     2.09200e-02
      6260       6263      1   0.007531   0.014340     2.60142e-01     2.09200e-02
      6259       6266      1   0.017463   0.010564     3.00055e-01     6.91943e-02
      6259       6267      1   0.017463   0.010564     3.00055e-01     6.91943e-02
      6258       6262      1   0.025511  -0.023412     3.00055e-01     6.91943e-02
      6258       6260      1   0.025511   0.006276     2.60142e-01     2.09200e-02
      6258       6261      1   0.025511   0.006276     2.60142e-01     2.09200e-02
      6257       6262      1   0.025511  -0.023412     3.00055e-01     6.91943e-02
      6257       6260      1   0.025511   0.006276     2.60142e-01     2.09200e-02
      6257       6261      1   0.025511   0.006276     2.60142e-01     2.09200e-02
      6256       6264      1  -0.111712   0.014340     3.00055e-01     6.91943e-02
      6256       6263      1  -0.111712   0.014340     3.00055e-01     6.91943e-02
      6255       6262      1   0.025511  -0.023412     3.00055e-01     6.91943e-02
      6255       6260      1   0.025511   0.006276     2.60142e-01     2.09200e-02
      6255       6261      1   0.025511   0.006276     2.60142e-01     2.09200e-02
      6332       6372      1  -0.673755   0.044953     2.78067e-01     9.58675e-02
      6332       6371      1  -0.673755   0.044953     2.78067e-01     9.58675e-02
      6331       6369      1   0.897613   0.015716     3.00055e-01     6.13495e-02
      6331       6368      1   0.897613   0.015716     3.00055e-01     6.13495e-02
      6330       6372      1  -0.552948   0.044953     2.80072e-01     8.62554e-02
      6330       6371      1  -0.552948   0.044953     2.80072e-01     8.62554e-02
      6323       6324      1   0.172230  -0.282478     2.67982e-01     8.67002e-02
      6322       6324      1   0.172230  -0.282478     2.67982e-01     8.67002e-02
      6321       6324      1   0.172230  -0.282478     2.67982e-01     8.67002e-02
      6320       6325      1  -0.338973   0.143525     2.67982e-01     8.67002e-02
      6320       6326      1  -0.338973   0.143525     2.67982e-01     8.67002e-02
      6320       6327      1  -0.338973   0.143525     2.67982e-01     8.67002e-02
      6319       6320      1   0.172230  -0.282478     2.67982e-01     8.67002e-02
      6319       6324      1   0.172230  -0.282478     2.67982e-01     8.67002e-02
      6318       6320      1   0.172230  -0.282478     2.67982e-01     8.67002e-02
      6318       6324      1   0.172230  -0.282478     2.67982e-01     8.67002e-02
      6317       6320      1   0.172230  -0.282478     2.67982e-01     8.67002e-02
      6317       6324      1   0.172230  -0.282478     2.67982e-01     8.67002e-02
      6316       6321      1  -0.338973   0.143525     2.67982e-01     8.67002e-02
      6316       6322      1  -0.338973   0.143525     2.67982e-01     8.67002e-02
      6316       6323      1  -0.338973   0.143525     2.67982e-01     8.67002e-02
      6316       6325      1  -0.338973   0.143525     2.67982e-01     8.67002e-02
      6316       6326      1  -0.338973   0.143525     2.67982e-01     8.67002e-02
      6316       6327      1  -0.338973   0.143525     2.67982e-01     8.67002e-02
      6314       6316      1   0.136415  -0.282478     2.67982e-01     8.67002e-02
      6314       6320      1   0.136415  -0.282478     2.67982e-01     8.67002e-02
      6314       6324      1   0.136415  -0.282478     2.67982e-01     8.67002e-02
      6313       6316      1   0.136415  -0.282478     2.67982e-01     8.67002e-02
      6313       6320      1   0.136415  -0.282478     2.67982e-01     8.67002e-02
      6313       6324      1   0.136415  -0.282478     2.67982e-01     8.67002e-02
      6312       6317      1  -0.170824   0.143525     2.67982e-01     8.67002e-02
      6312       6318      1  -0.170824   0.143525     2.67982e-01     8.67002e-02
      6312       6319      1  -0.170824   0.143525     2.67982e-01     8.67002e-02
      6312       6321      1  -0.170824   0.143525     2.67982e-01     8.67002e-02
      6312       6322      1  -0.170824   0.143525     2.67982e-01     8.67002e-02
      6312       6323      1  -0.170824   0.143525     2.67982e-01     8.67002e-02
      6312       6325      1  -0.170824   0.143525     2.67982e-01     8.67002e-02
      6312       6326      1  -0.170824   0.143525     2.67982e-01     8.67002e-02
      6312       6327      1  -0.170824   0.143525     2.67982e-01     8.67002e-02
      6311       6313      1   0.078534   0.113679     2.21567e-01     3.28444e-02
      6311       6314      1   0.078534   0.113679     2.21567e-01     3.28444e-02
      6311       6315      1   0.078534   0.204385     2.86068e-01     1.08078e-01
      6310       6313      1   0.078534   0.113679     2.21567e-01     3.28444e-02
      6310       6314      1   0.078534   0.113679     2.21567e-01     3.28444e-02
      6310       6315      1   0.078534   0.204385     2.86068e-01     1.08078e-01
      6308       6313      1  -0.508176   0.113679     2.47999e-01     1.08078e-01
      6308       6314      1  -0.508176   0.113679     2.47999e-01     1.08078e-01
      6307       6310      1   1.339721   0.065445     3.10656e-01     1.17227e-01
      6307       6311      1   1.339721   0.065445     3.10656e-01     1.17227e-01
      6305       6330      1   0.095591  -0.460790     2.73568e-01     1.08078e-01
      6305       6307      1   0.095591   1.116434     3.10656e-01     1.17227e-01
      6304       6330      1   0.095591  -0.460790     2.73568e-01     1.08078e-01
      6304       6307      1   0.095591   1.116434     3.10656e-01     1.17227e-01
      6302       6304      1   0.063253   0.079659     2.47135e-01     3.28444e-02
      6302       6305      1   0.063253   0.079659     2.47135e-01     3.28444e-02
      6302       6306      1   0.063253  -0.424567     2.73568e-01     1.08078e-01
      6302       6331      1   0.063253   0.748011     2.93551e-01     7.68707e-02
      6300       6302      1   0.070469   0.052711     2.47135e-01     3.28444e-02
      6300       6303      1   0.070469   0.014549     2.93551e-01     8.67002e-02
      6300       6330      1   0.070469  -0.460790     2.73568e-01     1.08078e-01
      6299       6302      1   0.070469   0.052711     2.47135e-01     3.28444e-02
      6299       6303      1   0.070469   0.014549     2.93551e-01     8.67002e-02
      6299       6330      1   0.070469  -0.460790     2.73568e-01     1.08078e-01
      6298       6304      1   0.196939   0.079659     2.93551e-01     8.67002e-02
      6298       6305      1   0.196939   0.079659     2.93551e-01     8.67002e-02
      6297       6302      1  -0.575489   0.052711     2.73568e-01     1.08078e-01
      6295       6299      1   0.910403   0.058724     2.93551e-01     7.68707e-02
      6295       6300      1   0.910403   0.058724     2.93551e-01     7.68707e-02
      6369       6372      1   0.018859   0.044953     2.60142e-01     2.09200e-02
      6369       6371      1   0.018859   0.044953     2.60142e-01     2.09200e-02
      6368       6372      1   0.018859   0.044953     2.60142e-01     2.09200e-02
      6368       6371      1   0.018859   0.044953     2.60142e-01     2.09200e-02
      6366       6370      1   0.020431  -0.136833     3.00055e-01     6.91943e-02
      6366       6369      1   0.020431   0.015716     2.60142e-01     2.09200e-02
      6366       6368      1   0.020431   0.015716     2.60142e-01     2.09200e-02
      6365       6370      1   0.020431  -0.136833     3.00055e-01     6.91943e-02
      6365       6369      1   0.020431   0.015716     2.60142e-01     2.09200e-02
      6365       6368      1   0.020431   0.015716     2.60142e-01     2.09200e-02
      6364       6372      1  -0.026954   0.044953     3.00055e-01     6.91943e-02
      6364       6371      1  -0.026954   0.044953     3.00055e-01     6.91943e-02
      6363       6367      1   0.010573  -0.002029     3.00055e-01     6.91943e-02
      6363       6366      1   0.010573   0.017026     2.60142e-01     2.09200e-02
      6363       6365      1   0.010573   0.017026     2.60142e-01     2.09200e-02
      6362       6367      1   0.010573  -0.002029     3.00055e-01     6.91943e-02
      6362       6366      1   0.010573   0.017026     2.60142e-01     2.09200e-02
      6362       6365      1   0.010573   0.017026     2.60142e-01     2.09200e-02
      6361       6369      1  -0.016521   0.015716     3.00055e-01     6.91943e-02
      6361       6368      1  -0.016521   0.015716     3.00055e-01     6.91943e-02
      6360       6364      1   0.011511  -0.022462     3.00055e-01     6.91943e-02
      6360       6362      1   0.011511   0.008811     2.60142e-01     2.09200e-02
      6360       6363      1   0.011511   0.008811     2.60142e-01     2.09200e-02
      6359       6364      1   0.011511  -0.022462     3.00055e-01     6.91943e-02
      6359       6362      1   0.011511   0.008811     2.60142e-01     2.09200e-02
      6359       6363      1   0.011511   0.008811     2.60142e-01     2.09200e-02
      6358       6366      1  -0.027812   0.017026     3.00055e-01     6.91943e-02
      6358       6365      1  -0.027812   0.017026     3.00055e-01     6.91943e-02
      6357       6361      1   0.006833  -0.013767     3.00055e-01     6.91943e-02
      6357       6359      1   0.006833   0.009592     2.60142e-01     2.09200e-02
      6357       6360      1   0.006833   0.009592     2.60142e-01     2.09200e-02
      6356       6361      1   0.006833  -0.013767     3.00055e-01     6.91943e-02
      6356       6359      1   0.006833   0.009592     2.60142e-01     2.09200e-02
      6356       6360      1   0.006833   0.009592     2.60142e-01     2.09200e-02
      6355       6362      1  -0.004386   0.008811     3.00055e-01     6.91943e-02
      6355       6363      1  -0.004386   0.008811     3.00055e-01     6.91943e-02
      6354       6358      1   0.011241  -0.023177     3.00055e-01     6.91943e-02
      6354       6356      1   0.011241   0.005694     2.60142e-01     2.09200e-02
      6354       6357      1   0.011241   0.005694     2.60142e-01     2.09200e-02
      6353       6358      1   0.011241  -0.023177     3.00055e-01     6.91943e-02
      6353       6356      1   0.011241   0.005694     2.60142e-01     2.09200e-02
      6353       6357      1   0.011241   0.005694     2.60142e-01     2.09200e-02
      6352       6359      1  -0.026451   0.009592     3.00055e-01     6.91943e-02
      6352       6360      1  -0.026451   0.009592     3.00055e-01     6.91943e-02
      6351       6355      1   0.010172  -0.003655     3.00055e-01     6.91943e-02
      6351       6354      1   0.010172   0.009367     2.60142e-01     2.09200e-02
      6351       6353      1   0.010172   0.009367     2.60142e-01     2.09200e-02
      6350       6355      1   0.010172  -0.003655     3.00055e-01     6.91943e-02
      6350       6354      1   0.010172   0.009367     2.60142e-01     2.09200e-02
      6350       6353      1   0.010172   0.009367     2.60142e-01     2.09200e-02
      6349       6356      1  -0.014653   0.005694     3.00055e-01     6.91943e-02
      6349       6357      1  -0.014653   0.005694     3.00055e-01     6.91943e-02
      6348       6352      1   0.010037  -0.022042     3.00055e-01     6.91943e-02
      6348       6350      1   0.010037   0.008477     2.60142e-01     2.09200e-02
      6348       6351      1   0.010037   0.008477     2.60142e-01     2.09200e-02
      6347       6352      1   0.010037  -0.022042     3.00055e-01     6.91943e-02
      6347       6350      1   0.010037   0.008477     2.60142e-01     2.09200e-02
      6347       6351      1   0.010037   0.008477     2.60142e-01     2.09200e-02
      6346       6354      1  -0.021025   0.009367     3.00055e-01     6.91943e-02
      6346       6353      1  -0.021025   0.009367     3.00055e-01     6.91943e-02
      6345       6349      1   0.012677  -0.012211     3.00055e-01     6.91943e-02
      6345       6348      1   0.012677   0.008364     2.60142e-01     2.09200e-02
      6345       6347      1   0.012677   0.008364     2.60142e-01     2.09200e-02
      6344       6349      1   0.012677  -0.012211     3.00055e-01     6.91943e-02
      6344       6348      1   0.012677   0.008364     2.60142e-01     2.09200e-02
      6344       6347      1   0.012677   0.008364     2.60142e-01     2.09200e-02
      6343       6350      1  -0.031787   0.008477     3.00055e-01     6.91943e-02
      6343       6351      1  -0.031787   0.008477     3.00055e-01     6.91943e-02
      6342       6346      1   0.017208  -0.017521     3.00055e-01     6.91943e-02
      6342       6344      1   0.017208   0.010564     2.60142e-01     2.09200e-02
      6342       6345      1   0.017208   0.010564     2.60142e-01     2.09200e-02
      6341       6346      1   0.017208  -0.017521     3.00055e-01     6.91943e-02
      6341       6344      1   0.017208   0.010564     2.60142e-01     2.09200e-02
      6341       6345      1   0.017208   0.010564     2.60142e-01     2.09200e-02
      6340       6348      1  -0.028094   0.008364     3.00055e-01     6.91943e-02
      6340       6347      1  -0.028094   0.008364     3.00055e-01     6.91943e-02
      6339       6343      1   0.007531  -0.026489     3.00055e-01     6.91943e-02
      6339       6342      1   0.007531   0.014340     2.60142e-01     2.09200e-02
      6339       6341      1   0.007531   0.014340     2.60142e-01     2.09200e-02
      6338       6343      1   0.007531  -0.026489     3.00055e-01     6.91943e-02
      6338       6342      1   0.007531   0.014340     2.60142e-01     2.09200e-02
      6338       6341      1   0.007531   0.014340     2.60142e-01     2.09200e-02
      6337       6344      1   0.017463   0.010564     3.00055e-01     6.91943e-02
      6337       6345      1   0.017463   0.010564     3.00055e-01     6.91943e-02
      6336       6340      1   0.025511  -0.023412     3.00055e-01     6.91943e-02
      6336       6338      1   0.025511   0.006276     2.60142e-01     2.09200e-02
      6336       6339      1   0.025511   0.006276     2.60142e-01     2.09200e-02
      6335       6340      1   0.025511  -0.023412     3.00055e-01     6.91943e-02
      6335       6338      1   0.025511   0.006276     2.60142e-01     2.09200e-02
      6335       6339      1   0.025511   0.006276     2.60142e-01     2.09200e-02
      6334       6342      1  -0.111712   0.014340     3.00055e-01     6.91943e-02
      6334       6341      1  -0.111712   0.014340     3.00055e-01     6.91943e-02
      6333       6340      1   0.025511  -0.023412     3.00055e-01     6.91943e-02
      6333       6338      1   0.025511   0.006276     2.60142e-01     2.09200e-02
      6333       6339      1   0.025511   0.006276     2.60142e-01     2.09200e-02
      6412       6414      1   0.053944  -0.559638     2.78067e-01     9.58675e-02
      6412       6415      1   0.053944  -0.479574     2.80072e-01     8.62554e-02
      6411       6414      1   0.053944  -0.559638     2.78067e-01     9.58675e-02
      6411       6415      1   0.053944  -0.479574     2.80072e-01     8.62554e-02
      6409       6412      1   0.018859   0.044953     2.60142e-01     2.09200e-02
      6409       6411      1   0.018859   0.044953     2.60142e-01     2.09200e-02
      6409       6413      1   0.018859   0.758669     3.00055e-01     6.13495e-02
      6408       6412      1   0.018859   0.044953     2.60142e-01     2.09200e-02
      6408       6411      1   0.018859   0.044953     2.60142e-01     2.09200e-02
      6408       6413      1   0.018859   0.758669     3.00055e-01     6.13495e-02
      6406       6410      1   0.020431  -0.136833     3.00055e-01     6.91943e-02
      6406       6409      1   0.020431   0.015716     2.60142e-01     2.09200e-02
      6406       6408      1   0.020431   0.015716     2.60142e-01     2.09200e-02
      6405       6410      1   0.020431  -0.136833     3.00055e-01     6.91943e-02
      6405       6409      1   0.020431   0.015716     2.60142e-01     2.09200e-02
      6405       6408      1   0.020431   0.015716     2.60142e-01     2.09200e-02
      6404       6412      1  -0.026954   0.044953     3.00055e-01     6.91943e-02
      6404       6411      1  -0.026954   0.044953     3.00055e-01     6.91943e-02
      6403       6407      1   0.010573  -0.002029     3.00055e-01     6.91943e-02
      6403       6406      1   0.010573   0.017026     2.60142e-01     2.09200e-02
      6403       6405      1   0.010573   0.017026     2.60142e-01     2.09200e-02
      6402       6407      1   0.010573  -0.002029     3.00055e-01     6.91943e-02
      6402       6406      1   0.010573   0.017026     2.60142e-01     2.09200e-02
      6402       6405      1   0.010573   0.017026     2.60142e-01     2.09200e-02
      6401       6409      1  -0.016521   0.015716     3.00055e-01     6.91943e-02
      6401       6408      1  -0.016521   0.015716     3.00055e-01     6.91943e-02
      6400       6404      1   0.011511  -0.022462     3.00055e-01     6.91943e-02
      6400       6402      1   0.011511   0.008811     2.60142e-01     2.09200e-02
      6400       6403      1   0.011511   0.008811     2.60142e-01     2.09200e-02
      6399       6404      1   0.011511  -0.022462     3.00055e-01     6.91943e-02
      6399       6402      1   0.011511   0.008811     2.60142e-01     2.09200e-02
      6399       6403      1   0.011511   0.008811     2.60142e-01     2.09200e-02
      6398       6406      1  -0.027812   0.017026     3.00055e-01     6.91943e-02
      6398       6405      1  -0.027812   0.017026     3.00055e-01     6.91943e-02
      6397       6401      1   0.006833  -0.013767     3.00055e-01     6.91943e-02
      6397       6399      1   0.006833   0.009592     2.60142e-01     2.09200e-02
      6397       6400      1   0.006833   0.009592     2.60142e-01     2.09200e-02
      6396       6401      1   0.006833  -0.013767     3.00055e-01     6.91943e-02
      6396       6399      1   0.006833   0.009592     2.60142e-01     2.09200e-02
      6396       6400      1   0.006833   0.009592     2.60142e-01     2.09200e-02
      6395       6402      1  -0.004386   0.008811     3.00055e-01     6.91943e-02
      6395       6403      1  -0.004386   0.008811     3.00055e-01     6.91943e-02
      6394       6398      1   0.011241  -0.023177     3.00055e-01     6.91943e-02
      6394       6396      1   0.011241   0.005694     2.60142e-01     2.09200e-02
      6394       6397      1   0.011241   0.005694     2.60142e-01     2.09200e-02
      6393       6398      1   0.011241  -0.023177     3.00055e-01     6.91943e-02
      6393       6396      1   0.011241   0.005694     2.60142e-01     2.09200e-02
      6393       6397      1   0.011241   0.005694     2.60142e-01     2.09200e-02
      6392       6399      1  -0.026451   0.009592     3.00055e-01     6.91943e-02
      6392       6400      1  -0.026451   0.009592     3.00055e-01     6.91943e-02
      6391       6395      1   0.010172  -0.003655     3.00055e-01     6.91943e-02
      6391       6394      1   0.010172   0.009367     2.60142e-01     2.09200e-02
      6391       6393      1   0.010172   0.009367     2.60142e-01     2.09200e-02
      6390       6395      1   0.010172  -0.003655     3.00055e-01     6.91943e-02
      6390       6394      1   0.010172   0.009367     2.60142e-01     2.09200e-02
      6390       6393      1   0.010172   0.009367     2.60142e-01     2.09200e-02
      6389       6396      1  -0.014653   0.005694     3.00055e-01     6.91943e-02
      6389       6397      1  -0.014653   0.005694     3.00055e-01     6.91943e-02
      6388       6392      1   0.010037  -0.022042     3.00055e-01     6.91943e-02
      6388       6390      1   0.010037   0.008477     2.60142e-01     2.09200e-02
      6388       6391      1   0.010037   0.008477     2.60142e-01     2.09200e-02
      6387       6392      1   0.010037  -0.022042     3.00055e-01     6.91943e-02
      6387       6390      1   0.010037   0.008477     2.60142e-01     2.09200e-02
      6387       6391      1   0.010037   0.008477     2.60142e-01     2.09200e-02
      6386       6394      1  -0.021025   0.009367     3.00055e-01     6.91943e-02
      6386       6393      1  -0.021025   0.009367     3.00055e-01     6.91943e-02
      6385       6389      1   0.012677  -0.012211     3.00055e-01     6.91943e-02
      6385       6388      1   0.012677   0.008364     2.60142e-01     2.09200e-02
      6385       6387      1   0.012677   0.008364     2.60142e-01     2.09200e-02
      6384       6389      1   0.012677  -0.012211     3.00055e-01     6.91943e-02
      6384       6388      1   0.012677   0.008364     2.60142e-01     2.09200e-02
      6384       6387      1   0.012677   0.008364     2.60142e-01     2.09200e-02
      6383       6390      1  -0.031787   0.008477     3.00055e-01     6.91943e-02
      6383       6391      1  -0.031787   0.008477     3.00055e-01     6.91943e-02
      6382       6386      1   0.017208  -0.017521     3.00055e-01     6.91943e-02
      6382       6384      1   0.017208   0.010564     2.60142e-01     2.09200e-02
      6382       6385      1   0.017208   0.010564     2.60142e-01     2.09200e-02
      6381       6386      1   0.017208  -0.017521     3.00055e-01     6.91943e-02
      6381       6384      1   0.017208   0.010564     2.60142e-01     2.09200e-02
      6381       6385      1   0.017208   0.010564     2.60142e-01     2.09200e-02
      6380       6388      1  -0.028094   0.008364     3.00055e-01     6.91943e-02
      6380       6387      1  -0.028094   0.008364     3.00055e-01     6.91943e-02
      6379       6383      1   0.007531  -0.026489     3.00055e-01     6.91943e-02
      6379       6382      1   0.007531   0.014340     2.60142e-01     2.09200e-02
      6379       6381      1   0.007531   0.014340     2.60142e-01     2.09200e-02
      6378       6383      1   0.007531  -0.026489     3.00055e-01     6.91943e-02
      6378       6382      1   0.007531   0.014340     2.60142e-01     2.09200e-02
      6378       6381      1   0.007531   0.014340     2.60142e-01     2.09200e-02
      6377       6384      1   0.017463   0.010564     3.00055e-01     6.91943e-02
      6377       6385      1   0.017463   0.010564     3.00055e-01     6.91943e-02
      6376       6380      1   0.025511  -0.023412     3.00055e-01     6.91943e-02
      6376       6378      1   0.025511   0.006276     2.60142e-01     2.09200e-02
      6376       6379      1   0.025511   0.006276     2.60142e-01     2.09200e-02
      6375       6380      1   0.025511  -0.023412     3.00055e-01     6.91943e-02
      6375       6378      1   0.025511   0.006276     2.60142e-01     2.09200e-02
      6375       6379      1   0.025511   0.006276     2.60142e-01     2.09200e-02
      6374       6382      1  -0.111712   0.014340     3.00055e-01     6.91943e-02
      6374       6381      1  -0.111712   0.014340     3.00055e-01     6.91943e-02
      6373       6380      1   0.025511  -0.023412     3.00055e-01     6.91943e-02
      6373       6378      1   0.025511   0.006276     2.60142e-01     2.09200e-02
      6373       6379      1   0.025511   0.006276     2.60142e-01     2.09200e-02
      6450       6490      1  -0.673755   0.044953     2.78067e-01     9.58675e-02
      6450       6489      1  -0.673755   0.044953     2.78067e-01     9.58675e-02
      6449       6487      1   0.897613   0.015716     3.00055e-01     6.13495e-02
      6449       6486      1   0.897613   0.015716     3.00055e-01     6.13495e-02
      6448       6490      1  -0.552948   0.044953     2.80072e-01     8.62554e-02
      6448       6489      1  -0.552948   0.044953     2.80072e-01     8.62554e-02
      6441       6442      1   0.172230  -0.282478     2.67982e-01     8.67002e-02
      6440       6442      1   0.172230  -0.282478     2.67982e-01     8.67002e-02
      6439       6442      1   0.172230  -0.282478     2.67982e-01     8.67002e-02
      6438       6443      1  -0.338973   0.143525     2.67982e-01     8.67002e-02
      6438       6444      1  -0.338973   0.143525     2.67982e-01     8.67002e-02
      6438       6445      1  -0.338973   0.143525     2.67982e-01     8.67002e-02
      6437       6438      1   0.172230  -0.282478     2.67982e-01     8.67002e-02
      6437       6442      1   0.172230  -0.282478     2.67982e-01     8.67002e-02
      6436       6438      1   0.172230  -0.282478     2.67982e-01     8.67002e-02
      6436       6442      1   0.172230  -0.282478     2.67982e-01     8.67002e-02
      6435       6438      1   0.172230  -0.282478     2.67982e-01     8.67002e-02
      6435       6442      1   0.172230  -0.282478     2.67982e-01     8.67002e-02
      6434       6439      1  -0.338973   0.143525     2.67982e-01     8.67002e-02
      6434       6440      1  -0.338973   0.143525     2.67982e-01     8.67002e-02
      6434       6441      1  -0.338973   0.143525     2.67982e-01     8.67002e-02
      6434       6443      1  -0.338973   0.143525     2.67982e-01     8.67002e-02
      6434       6444      1  -0.338973   0.143525     2.67982e-01     8.67002e-02
      6434       6445      1  -0.338973   0.143525     2.67982e-01     8.67002e-02
      6432       6434      1   0.136415  -0.282478     2.67982e-01     8.67002e-02
      6432       6438      1   0.136415  -0.282478     2.67982e-01     8.67002e-02
      6432       6442      1   0.136415  -0.282478     2.67982e-01     8.67002e-02
      6431       6434      1   0.136415  -0.282478     2.67982e-01     8.67002e-02
      6431       6438      1   0.136415  -0.282478     2.67982e-01     8.67002e-02
      6431       6442      1   0.136415  -0.282478     2.67982e-01     8.67002e-02
      6430       6435      1  -0.170824   0.143525     2.67982e-01     8.67002e-02
      6430       6436      1  -0.170824   0.143525     2.67982e-01     8.67002e-02
      6430       6437      1  -0.170824   0.143525     2.67982e-01     8.67002e-02
      6430       6439      1  -0.170824   0.143525     2.67982e-01     8.67002e-02
      6430       6440      1  -0.170824   0.143525     2.67982e-01     8.67002e-02
      6430       6441      1  -0.170824   0.143525     2.67982e-01     8.67002e-02
      6430       6443      1  -0.170824   0.143525     2.67982e-01     8.67002e-02
      6430       6444      1  -0.170824   0.143525     2.67982e-01     8.67002e-02
      6430       6445      1  -0.170824   0.143525     2.67982e-01     8.67002e-02
      6429       6431      1   0.078534   0.113679     2.21567e-01     3.28444e-02
      6429       6432      1   0.078534   0.113679     2.21567e-01     3.28444e-02
      6429       6433      1   0.078534   0.204385     2.86068e-01     1.08078e-01
      6428       6431      1   0.078534   0.113679     2.21567e-01     3.28444e-02
      6428       6432      1   0.078534   0.113679     2.21567e-01     3.28444e-02
      6428       6433      1   0.078534   0.204385     2.86068e-01     1.08078e-01
      6426       6431      1  -0.508176   0.113679     2.47999e-01     1.08078e-01
      6426       6432      1  -0.508176   0.113679     2.47999e-01     1.08078e-01
      6425       6428      1   1.339721   0.065445     3.10656e-01     1.17227e-01
      6425       6429      1   1.339721   0.065445     3.10656e-01     1.17227e-01
      6423       6448      1   0.095591  -0.460790     2.73568e-01     1.08078e-01
      6423       6425      1   0.095591   1.116434     3.10656e-01     1.17227e-01
      6422       6448      1   0.095591  -0.460790     2.73568e-01     1.08078e-01
      6422       6425      1   0.095591   1.116434     3.10656e-01     1.17227e-01
      6420       6422      1   0.063253   0.079659     2.47135e-01     3.28444e-02
      6420       6423      1   0.063253   0.079659     2.47135e-01     3.28444e-02
      6420       6424      1   0.063253  -0.424567     2.73568e-01     1.08078e-01
      6420       6449      1   0.063253   0.748011     2.93551e-01     7.68707e-02
      6418       6420      1   0.070469   0.052711     2.47135e-01     3.28444e-02
      6418       6421      1   0.070469   0.014549     2.93551e-01     8.67002e-02
      6418       6448      1   0.070469  -0.460790     2.73568e-01     1.08078e-01
      6417       6420      1   0.070469   0.052711     2.47135e-01     3.28444e-02
      6417       6421      1   0.070469   0.014549     2.93551e-01     8.67002e-02
      6417       6448      1   0.070469  -0.460790     2.73568e-01     1.08078e-01
      6416       6422      1   0.196939   0.079659     2.93551e-01     8.67002e-02
      6416       6423      1   0.196939   0.079659     2.93551e-01     8.67002e-02
      6415       6420      1  -0.575489   0.052711     2.73568e-01     1.08078e-01
      6413       6417      1   0.910403   0.058724     2.93551e-01     7.68707e-02
      6413       6418      1   0.910403   0.058724     2.93551e-01     7.68707e-02
      6487       6490      1   0.018859   0.044953     2.60142e-01     2.09200e-02
      6487       6489      1   0.018859   0.044953     2.60142e-01     2.09200e-02
      6486       6490      1   0.018859   0.044953     2.60142e-01     2.09200e-02
      6486       6489      1   0.018859   0.044953     2.60142e-01     2.09200e-02
      6484       6488      1   0.020431  -0.136833     3.00055e-01     6.91943e-02
      6484       6487      1   0.020431   0.015716     2.60142e-01     2.09200e-02
      6484       6486      1   0.020431   0.015716     2.60142e-01     2.09200e-02
      6483       6488      1   0.020431  -0.136833     3.00055e-01     6.91943e-02
      6483       6487      1   0.020431   0.015716     2.60142e-01     2.09200e-02
      6483       6486      1   0.020431   0.015716     2.60142e-01     2.09200e-02
      6482       6490      1  -0.026954   0.044953     3.00055e-01     6.91943e-02
      6482       6489      1  -0.026954   0.044953     3.00055e-01     6.91943e-02
      6481       6485      1   0.010573  -0.002029     3.00055e-01     6.91943e-02
      6481       6484      1   0.010573   0.017026     2.60142e-01     2.09200e-02
      6481       6483      1   0.010573   0.017026     2.60142e-01     2.09200e-02
      6480       6485      1   0.010573  -0.002029     3.00055e-01     6.91943e-02
      6480       6484      1   0.010573   0.017026     2.60142e-01     2.09200e-02
      6480       6483      1   0.010573   0.017026     2.60142e-01     2.09200e-02
      6479       6487      1  -0.016521   0.015716     3.00055e-01     6.91943e-02
      6479       6486      1  -0.016521   0.015716     3.00055e-01     6.91943e-02
      6478       6482      1   0.011511  -0.022462     3.00055e-01     6.91943e-02
      6478       6480      1   0.011511   0.008811     2.60142e-01     2.09200e-02
      6478       6481      1   0.011511   0.008811     2.60142e-01     2.09200e-02
      6477       6482      1   0.011511  -0.022462     3.00055e-01     6.91943e-02
      6477       6480      1   0.011511   0.008811     2.60142e-01     2.09200e-02
      6477       6481      1   0.011511   0.008811     2.60142e-01     2.09200e-02
      6476       6484      1  -0.027812   0.017026     3.00055e-01     6.91943e-02
      6476       6483      1  -0.027812   0.017026     3.00055e-01     6.91943e-02
      6475       6479      1   0.006833  -0.013767     3.00055e-01     6.91943e-02
      6475       6477      1   0.006833   0.009592     2.60142e-01     2.09200e-02
      6475       6478      1   0.006833   0.009592     2.60142e-01     2.09200e-02
      6474       6479      1   0.006833  -0.013767     3.00055e-01     6.91943e-02
      6474       6477      1   0.006833   0.009592     2.60142e-01     2.09200e-02
      6474       6478      1   0.006833   0.009592     2.60142e-01     2.09200e-02
      6473       6480      1  -0.004386   0.008811     3.00055e-01     6.91943e-02
      6473       6481      1  -0.004386   0.008811     3.00055e-01     6.91943e-02
      6472       6476      1   0.011241  -0.023177     3.00055e-01     6.91943e-02
      6472       6474      1   0.011241   0.005694     2.60142e-01     2.09200e-02
      6472       6475      1   0.011241   0.005694     2.60142e-01     2.09200e-02
      6471       6476      1   0.011241  -0.023177     3.00055e-01     6.91943e-02
      6471       6474      1   0.011241   0.005694     2.60142e-01     2.09200e-02
      6471       6475      1   0.011241   0.005694     2.60142e-01     2.09200e-02
      6470       6477      1  -0.026451   0.009592     3.00055e-01     6.91943e-02
      6470       6478      1  -0.026451   0.009592     3.00055e-01     6.91943e-02
      6469       6473      1   0.010172  -0.003655     3.00055e-01     6.91943e-02
      6469       6472      1   0.010172   0.009367     2.60142e-01     2.09200e-02
      6469       6471      1   0.010172   0.009367     2.60142e-01     2.09200e-02
      6468       6473      1   0.010172  -0.003655     3.00055e-01     6.91943e-02
      6468       6472      1   0.010172   0.009367     2.60142e-01     2.09200e-02
      6468       6471      1   0.010172   0.009367     2.60142e-01     2.09200e-02
      6467       6474      1  -0.014653   0.005694     3.00055e-01     6.91943e-02
      6467       6475      1  -0.014653   0.005694     3.00055e-01     6.91943e-02
      6466       6470      1   0.010037  -0.022042     3.00055e-01     6.91943e-02
      6466       6468      1   0.010037   0.008477     2.60142e-01     2.09200e-02
      6466       6469      1   0.010037   0.008477     2.60142e-01     2.09200e-02
      6465       6470      1   0.010037  -0.022042     3.00055e-01     6.91943e-02
      6465       6468      1   0.010037   0.008477     2.60142e-01     2.09200e-02
      6465       6469      1   0.010037   0.008477     2.60142e-01     2.09200e-02
      6464       6472      1  -0.021025   0.009367     3.00055e-01     6.91943e-02
      6464       6471      1  -0.021025   0.009367     3.00055e-01     6.91943e-02
      6463       6467      1   0.012677  -0.012211     3.00055e-01     6.91943e-02
      6463       6466      1   0.012677   0.008364     2.60142e-01     2.09200e-02
      6463       6465      1   0.012677   0.008364     2.60142e-01     2.09200e-02
      6462       6467      1   0.012677  -0.012211     3.00055e-01     6.91943e-02
      6462       6466      1   0.012677   0.008364     2.60142e-01     2.09200e-02
      6462       6465      1   0.012677   0.008364     2.60142e-01     2.09200e-02
      6461       6468      1  -0.031787   0.008477     3.00055e-01     6.91943e-02
      6461       6469      1  -0.031787   0.008477     3.00055e-01     6.91943e-02
      6460       6464      1   0.017208  -0.017521     3.00055e-01     6.91943e-02
      6460       6462      1   0.017208   0.010564     2.60142e-01     2.09200e-02
      6460       6463      1   0.017208   0.010564     2.60142e-01     2.09200e-02
      6459       6464      1   0.017208  -0.017521     3.00055e-01     6.91943e-02
      6459       6462      1   0.017208   0.010564     2.60142e-01     2.09200e-02
      6459       6463      1   0.017208   0.010564     2.60142e-01     2.09200e-02
      6458       6466      1  -0.028094   0.008364     3.00055e-01     6.91943e-02
      6458       6465      1  -0.028094   0.008364     3.00055e-01     6.91943e-02
      6457       6461      1   0.007531  -0.026489     3.00055e-01     6.91943e-02
      6457       6460      1   0.007531   0.014340     2.60142e-01     2.09200e-02
      6457       6459      1   0.007531   0.014340     2.60142e-01     2.09200e-02
      6456       6461      1   0.007531  -0.026489     3.00055e-01     6.91943e-02
      6456       6460      1   0.007531   0.014340     2.60142e-01     2.09200e-02
      6456       6459      1   0.007531   0.014340     2.60142e-01     2.09200e-02
      6455       6462      1   0.017463   0.010564     3.00055e-01     6.91943e-02
      6455       6463      1   0.017463   0.010564     3.00055e-01     6.91943e-02
      6454       6458      1   0.025511  -0.023412     3.00055e-01     6.91943e-02
      6454       6456      1   0.025511   0.006276     2.60142e-01     2.09200e-02
      6454       6457      1   0.025511   0.006276     2.60142e-01     2.09200e-02
      6453       6458      1   0.025511  -0.023412     3.00055e-01     6.91943e-02
      6453       6456      1   0.025511   0.006276     2.60142e-01     2.09200e-02
      6453       6457      1   0.025511   0.006276     2.60142e-01     2.09200e-02
      6452       6460      1  -0.111712   0.014340     3.00055e-01     6.91943e-02
      6452       6459      1  -0.111712   0.014340     3.00055e-01     6.91943e-02
      6451       6458      1   0.025511  -0.023412     3.00055e-01     6.91943e-02
      6451       6456      1   0.025511   0.006276     2.60142e-01     2.09200e-02
      6451       6457      1   0.025511   0.006276     2.60142e-01     2.09200e-02
      6530       6532      1   0.053944  -0.559638     2.78067e-01     9.58675e-02
      6530       6533      1   0.053944  -0.479574     2.80072e-01     8.62554e-02
      6529       6532      1   0.053944  -0.559638     2.78067e-01     9.58675e-02
      6529       6533      1   0.053944  -0.479574     2.80072e-01     8.62554e-02
      6527       6530      1   0.018859   0.044953     2.60142e-01     2.09200e-02
      6527       6529      1   0.018859   0.044953     2.60142e-01     2.09200e-02
      6527       6531      1   0.018859   0.758669     3.00055e-01     6.13495e-02
      6526       6530      1   0.018859   0.044953     2.60142e-01     2.09200e-02
      6526       6529      1   0.018859   0.044953     2.60142e-01     2.09200e-02
      6526       6531      1   0.018859   0.758669     3.00055e-01     6.13495e-02
      6524       6528      1   0.020431  -0.136833     3.00055e-01     6.91943e-02
      6524       6527      1   0.020431   0.015716     2.60142e-01     2.09200e-02
      6524       6526      1   0.020431   0.015716     2.60142e-01     2.09200e-02
      6523       6528      1   0.020431  -0.136833     3.00055e-01     6.91943e-02
      6523       6527      1   0.020431   0.015716     2.60142e-01     2.09200e-02
      6523       6526      1   0.020431   0.015716     2.60142e-01     2.09200e-02
      6522       6530      1  -0.026954   0.044953     3.00055e-01     6.91943e-02
      6522       6529      1  -0.026954   0.044953     3.00055e-01     6.91943e-02
      6521       6525      1   0.010573  -0.002029     3.00055e-01     6.91943e-02
      6521       6524      1   0.010573   0.017026     2.60142e-01     2.09200e-02
      6521       6523      1   0.010573   0.017026     2.60142e-01     2.09200e-02
      6520       6525      1   0.010573  -0.002029     3.00055e-01     6.91943e-02
      6520       6524      1   0.010573   0.017026     2.60142e-01     2.09200e-02
      6520       6523      1   0.010573   0.017026     2.60142e-01     2.09200e-02
      6519       6527      1  -0.016521   0.015716     3.00055e-01     6.91943e-02
      6519       6526      1  -0.016521   0.015716     3.00055e-01     6.91943e-02
      6518       6522      1   0.011511  -0.022462     3.00055e-01     6.91943e-02
      6518       6520      1   0.011511   0.008811     2.60142e-01     2.09200e-02
      6518       6521      1   0.011511   0.008811     2.60142e-01     2.09200e-02
      6517       6522      1   0.011511  -0.022462     3.00055e-01     6.91943e-02
      6517       6520      1   0.011511   0.008811     2.60142e-01     2.09200e-02
      6517       6521      1   0.011511   0.008811     2.60142e-01     2.09200e-02
      6516       6524      1  -0.027812   0.017026     3.00055e-01     6.91943e-02
      6516       6523      1  -0.027812   0.017026     3.00055e-01     6.91943e-02
      6515       6519      1   0.006833  -0.013767     3.00055e-01     6.91943e-02
      6515       6517      1   0.006833   0.009592     2.60142e-01     2.09200e-02
      6515       6518      1   0.006833   0.009592     2.60142e-01     2.09200e-02
      6514       6519      1   0.006833  -0.013767     3.00055e-01     6.91943e-02
      6514       6517      1   0.006833   0.009592     2.60142e-01     2.09200e-02
      6514       6518      1   0.006833   0.009592     2.60142e-01     2.09200e-02
      6513       6520      1  -0.004386   0.008811     3.00055e-01     6.91943e-02
      6513       6521      1  -0.004386   0.008811     3.00055e-01     6.91943e-02
      6512       6516      1   0.011241  -0.023177     3.00055e-01     6.91943e-02
      6512       6514      1   0.011241   0.005694     2.60142e-01     2.09200e-02
      6512       6515      1   0.011241   0.005694     2.60142e-01     2.09200e-02
      6511       6516      1   0.011241  -0.023177     3.00055e-01     6.91943e-02
      6511       6514      1   0.011241   0.005694     2.60142e-01     2.09200e-02
      6511       6515      1   0.011241   0.005694     2.60142e-01     2.09200e-02
      6510       6517      1  -0.026451   0.009592     3.00055e-01     6.91943e-02
      6510       6518      1  -0.026451   0.009592     3.00055e-01     6.91943e-02
      6509       6513      1   0.010172  -0.003655     3.00055e-01     6.91943e-02
      6509       6512      1   0.010172   0.009367     2.60142e-01     2.09200e-02
      6509       6511      1   0.010172   0.009367     2.60142e-01     2.09200e-02
      6508       6513      1   0.010172  -0.003655     3.00055e-01     6.91943e-02
      6508       6512      1   0.010172   0.009367     2.60142e-01     2.09200e-02
      6508       6511      1   0.010172   0.009367     2.60142e-01     2.09200e-02
      6507       6514      1  -0.014653   0.005694     3.00055e-01     6.91943e-02
      6507       6515      1  -0.014653   0.005694     3.00055e-01     6.91943e-02
      6506       6510      1   0.010037  -0.022042     3.00055e-01     6.91943e-02
      6506       6508      1   0.010037   0.008477     2.60142e-01     2.09200e-02
      6506       6509      1   0.010037   0.008477     2.60142e-01     2.09200e-02
      6505       6510      1   0.010037  -0.022042     3.00055e-01     6.91943e-02
      6505       6508      1   0.010037   0.008477     2.60142e-01     2.09200e-02
      6505       6509      1   0.010037   0.008477     2.60142e-01     2.09200e-02
      6504       6512      1  -0.021025   0.009367     3.00055e-01     6.91943e-02
      6504       6511      1  -0.021025   0.009367     3.00055e-01     6.91943e-02
      6503       6507      1   0.012677  -0.012211     3.00055e-01     6.91943e-02
      6503       6506      1   0.012677   0.008364     2.60142e-01     2.09200e-02
      6503       6505      1   0.012677   0.008364     2.60142e-01     2.09200e-02
      6502       6507      1   0.012677  -0.012211     3.00055e-01     6.91943e-02
      6502       6506      1   0.012677   0.008364     2.60142e-01     2.09200e-02
      6502       6505      1   0.012677   0.008364     2.60142e-01     2.09200e-02
      6501       6508      1  -0.031787   0.008477     3.00055e-01     6.91943e-02
      6501       6509      1  -0.031787   0.008477     3.00055e-01     6.91943e-02
      6500       6504      1   0.017208  -0.017521     3.00055e-01     6.91943e-02
      6500       6502      1   0.017208   0.010564     2.60142e-01     2.09200e-02
      6500       6503      1   0.017208   0.010564     2.60142e-01     2.09200e-02
      6499       6504      1   0.017208  -0.017521     3.00055e-01     6.91943e-02
      6499       6502      1   0.017208   0.010564     2.60142e-01     2.09200e-02
      6499       6503      1   0.017208   0.010564     2.60142e-01     2.09200e-02
      6498       6506      1  -0.028094   0.008364     3.00055e-01     6.91943e-02
      6498       6505      1  -0.028094   0.008364     3.00055e-01     6.91943e-02
      6497       6501      1   0.007531  -0.026489     3.00055e-01     6.91943e-02
      6497       6500      1   0.007531   0.014340     2.60142e-01     2.09200e-02
      6497       6499      1   0.007531   0.014340     2.60142e-01     2.09200e-02
      6496       6501      1   0.007531  -0.026489     3.00055e-01     6.91943e-02
      6496       6500      1   0.007531   0.014340     2.60142e-01     2.09200e-02
      6496       6499      1   0.007531   0.014340     2.60142e-01     2.09200e-02
      6495       6502      1   0.017463   0.010564     3.00055e-01     6.91943e-02
      6495       6503      1   0.017463   0.010564     3.00055e-01     6.91943e-02
      6494       6498      1   0.025511  -0.023412     3.00055e-01     6.91943e-02
      6494       6496      1   0.025511   0.006276     2.60142e-01     2.09200e-02
      6494       6497      1   0.025511   0.006276     2.60142e-01     2.09200e-02
      6493       6498      1   0.025511  -0.023412     3.00055e-01     6.91943e-02
      6493       6496      1   0.025511   0.006276     2.60142e-01     2.09200e-02
      6493       6497      1   0.025511   0.006276     2.60142e-01     2.09200e-02
      6492       6500      1  -0.111712   0.014340     3.00055e-01     6.91943e-02
      6492       6499      1  -0.111712   0.014340     3.00055e-01     6.91943e-02
      6491       6498      1   0.025511  -0.023412     3.00055e-01     6.91943e-02
      6491       6496      1   0.025511   0.006276     2.60142e-01     2.09200e-02
      6491       6497      1   0.025511   0.006276     2.60142e-01     2.09200e-02
      6568       6608      1  -0.673755   0.044953     2.78067e-01     9.58675e-02
      6568       6607      1  -0.673755   0.044953     2.78067e-01     9.58675e-02
      6567       6605      1   0.897613   0.015716     3.00055e-01     6.13495e-02
      6567       6604      1   0.897613   0.015716     3.00055e-01     6.13495e-02
      6566       6608      1  -0.552948   0.044953     2.80072e-01     8.62554e-02
      6566       6607      1  -0.552948   0.044953     2.80072e-01     8.62554e-02
      6559       6560      1   0.172230  -0.282478     2.67982e-01     8.67002e-02
      6558       6560      1   0.172230  -0.282478     2.67982e-01     8.67002e-02
      6557       6560      1   0.172230  -0.282478     2.67982e-01     8.67002e-02
      6556       6561      1  -0.338973   0.143525     2.67982e-01     8.67002e-02
      6556       6562      1  -0.338973   0.143525     2.67982e-01     8.67002e-02
      6556       6563      1  -0.338973   0.143525     2.67982e-01     8.67002e-02
      6555       6556      1   0.172230  -0.282478     2.67982e-01     8.67002e-02
      6555       6560      1   0.172230  -0.282478     2.67982e-01     8.67002e-02
      6554       6556      1   0.172230  -0.282478     2.67982e-01     8.67002e-02
      6554       6560      1   0.172230  -0.282478     2.67982e-01     8.67002e-02
      6553       6556      1   0.172230  -0.282478     2.67982e-01     8.67002e-02
      6553       6560      1   0.172230  -0.282478     2.67982e-01     8.67002e-02
      6552       6557      1  -0.338973   0.143525     2.67982e-01     8.67002e-02
      6552       6558      1  -0.338973   0.143525     2.67982e-01     8.67002e-02
      6552       6559      1  -0.338973   0.143525     2.67982e-01     8.67002e-02
      6552       6561      1  -0.338973   0.143525     2.67982e-01     8.67002e-02
      6552       6562      1  -0.338973   0.143525     2.67982e-01     8.67002e-02
      6552       6563      1  -0.338973   0.143525     2.67982e-01     8.67002e-02
      6550       6552      1   0.136415  -0.282478     2.67982e-01     8.67002e-02
      6550       6556      1   0.136415  -0.282478     2.67982e-01     8.67002e-02
      6550       6560      1   0.136415  -0.282478     2.67982e-01     8.67002e-02
      6549       6552      1   0.136415  -0.282478     2.67982e-01     8.67002e-02
      6549       6556      1   0.136415  -0.282478     2.67982e-01     8.67002e-02
      6549       6560      1   0.136415  -0.282478     2.67982e-01     8.67002e-02
      6548       6553      1  -0.170824   0.143525     2.67982e-01     8.67002e-02
      6548       6554      1  -0.170824   0.143525     2.67982e-01     8.67002e-02
      6548       6555      1  -0.170824   0.143525     2.67982e-01     8.67002e-02
      6548       6557      1  -0.170824   0.143525     2.67982e-01     8.67002e-02
      6548       6558      1  -0.170824   0.143525     2.67982e-01     8.67002e-02
      6548       6559      1  -0.170824   0.143525     2.67982e-01     8.67002e-02
      6548       6561      1  -0.170824   0.143525     2.67982e-01     8.67002e-02
      6548       6562      1  -0.170824   0.143525     2.67982e-01     8.67002e-02
      6548       6563      1  -0.170824   0.143525     2.67982e-01     8.67002e-02
      6547       6549      1   0.078534   0.113679     2.21567e-01     3.28444e-02
      6547       6550      1   0.078534   0.113679     2.21567e-01     3.28444e-02
      6547       6551      1   0.078534   0.204385     2.86068e-01     1.08078e-01
      6546       6549      1   0.078534   0.113679     2.21567e-01     3.28444e-02
      6546       6550      1   0.078534   0.113679     2.21567e-01     3.28444e-02
      6546       6551      1   0.078534   0.204385     2.86068e-01     1.08078e-01
      6544       6549      1  -0.508176   0.113679     2.47999e-01     1.08078e-01
      6544       6550      1  -0.508176   0.113679     2.47999e-01     1.08078e-01
      6543       6546      1   1.339721   0.065445     3.10656e-01     1.17227e-01
      6543       6547      1   1.339721   0.065445     3.10656e-01     1.17227e-01
      6541       6566      1   0.095591  -0.460790     2.73568e-01     1.08078e-01
      6541       6543      1   0.095591   1.116434     3.10656e-01     1.17227e-01
      6540       6566      1   0.095591  -0.460790     2.73568e-01     1.08078e-01
      6540       6543      1   0.095591   1.116434     3.10656e-01     1.17227e-01
      6538       6540      1   0.063253   0.079659     2.47135e-01     3.28444e-02
      6538       6541      1   0.063253   0.079659     2.47135e-01     3.28444e-02
      6538       6542      1   0.063253  -0.424567     2.73568e-01     1.08078e-01
      6538       6567      1   0.063253   0.748011     2.93551e-01     7.68707e-02
      6536       6538      1   0.070469   0.052711     2.47135e-01     3.28444e-02
      6536       6539      1   0.070469   0.014549     2.93551e-01     8.67002e-02
      6536       6566      1   0.070469  -0.460790     2.73568e-01     1.08078e-01
      6535       6538      1   0.070469   0.052711     2.47135e-01     3.28444e-02
      6535       6539      1   0.070469   0.014549     2.93551e-01     8.67002e-02
      6535       6566      1   0.070469  -0.460790     2.73568e-01     1.08078e-01
      6534       6540      1   0.196939   0.079659     2.93551e-01     8.67002e-02
      6534       6541      1   0.196939   0.079659     2.93551e-01     8.67002e-02
      6533       6538      1  -0.575489   0.052711     2.73568e-01     1.08078e-01
      6531       6535      1   0.910403   0.058724     2.93551e-01     7.68707e-02
      6531       6536      1   0.910403   0.058724     2.93551e-01     7.68707e-02
      6605       6608      1   0.018859   0.044953     2.60142e-01     2.09200e-02
      6605       6607      1   0.018859   0.044953     2.60142e-01     2.09200e-02
      6604       6608      1   0.018859   0.044953     2.60142e-01     2.09200e-02
      6604       6607      1   0.018859   0.044953     2.60142e-01     2.09200e-02
      6602       6606      1   0.020431  -0.136833     3.00055e-01     6.91943e-02
      6602       6605      1   0.020431   0.015716     2.60142e-01     2.09200e-02
      6602       6604      1   0.020431   0.015716     2.60142e-01     2.09200e-02
      6601       6606      1   0.020431  -0.136833     3.00055e-01     6.91943e-02
      6601       6605      1   0.020431   0.015716     2.60142e-01     2.09200e-02
      6601       6604      1   0.020431   0.015716     2.60142e-01     2.09200e-02
      6600       6608      1  -0.026954   0.044953     3.00055e-01     6.91943e-02
      6600       6607      1  -0.026954   0.044953     3.00055e-01     6.91943e-02
      6599       6603      1   0.010573  -0.002029     3.00055e-01     6.91943e-02
      6599       6602      1   0.010573   0.017026     2.60142e-01     2.09200e-02
      6599       6601      1   0.010573   0.017026     2.60142e-01     2.09200e-02
      6598       6603      1   0.010573  -0.002029     3.00055e-01     6.91943e-02
      6598       6602      1   0.010573   0.017026     2.60142e-01     2.09200e-02
      6598       6601      1   0.010573   0.017026     2.60142e-01     2.09200e-02
      6597       6605      1  -0.016521   0.015716     3.00055e-01     6.91943e-02
      6597       6604      1  -0.016521   0.015716     3.00055e-01     6.91943e-02
      6596       6600      1   0.011511  -0.022462     3.00055e-01     6.91943e-02
      6596       6598      1   0.011511   0.008811     2.60142e-01     2.09200e-02
      6596       6599      1   0.011511   0.008811     2.60142e-01     2.09200e-02
      6595       6600      1   0.011511  -0.022462     3.00055e-01     6.91943e-02
      6595       6598      1   0.011511   0.008811     2.60142e-01     2.09200e-02
      6595       6599      1   0.011511   0.008811     2.60142e-01     2.09200e-02
      6594       6602      1  -0.027812   0.017026     3.00055e-01     6.91943e-02
      6594       6601      1  -0.027812   0.017026     3.00055e-01     6.91943e-02
      6593       6597      1   0.006833  -0.013767     3.00055e-01     6.91943e-02
      6593       6595      1   0.006833   0.009592     2.60142e-01     2.09200e-02
      6593       6596      1   0.006833   0.009592     2.60142e-01     2.09200e-02
      6592       6597      1   0.006833  -0.013767     3.00055e-01     6.91943e-02
      6592       6595      1   0.006833   0.009592     2.60142e-01     2.09200e-02
      6592       6596      1   0.006833   0.009592     2.60142e-01     2.09200e-02
      6591       6598      1  -0.004386   0.008811     3.00055e-01     6.91943e-02
      6591       6599      1  -0.004386   0.008811     3.00055e-01     6.91943e-02
      6590       6594      1   0.011241  -0.023177     3.00055e-01     6.91943e-02
      6590       6592      1   0.011241   0.005694     2.60142e-01     2.09200e-02
      6590       6593      1   0.011241   0.005694     2.60142e-01     2.09200e-02
      6589       6594      1   0.011241  -0.023177     3.00055e-01     6.91943e-02
      6589       6592      1   0.011241   0.005694     2.60142e-01     2.09200e-02
      6589       6593      1   0.011241   0.005694     2.60142e-01     2.09200e-02
      6588       6595      1  -0.026451   0.009592     3.00055e-01     6.91943e-02
      6588       6596      1  -0.026451   0.009592     3.00055e-01     6.91943e-02
      6587       6591      1   0.010172  -0.003655     3.00055e-01     6.91943e-02
      6587       6590      1   0.010172   0.009367     2.60142e-01     2.09200e-02
      6587       6589      1   0.010172   0.009367     2.60142e-01     2.09200e-02
      6586       6591      1   0.010172  -0.003655     3.00055e-01     6.91943e-02
      6586       6590      1   0.010172   0.009367     2.60142e-01     2.09200e-02
      6586       6589      1   0.010172   0.009367     2.60142e-01     2.09200e-02
      6585       6592      1  -0.014653   0.005694     3.00055e-01     6.91943e-02
      6585       6593      1  -0.014653   0.005694     3.00055e-01     6.91943e-02
      6584       6588      1   0.010037  -0.022042     3.00055e-01     6.91943e-02
      6584       6586      1   0.010037   0.008477     2.60142e-01     2.09200e-02
      6584       6587      1   0.010037   0.008477     2.60142e-01     2.09200e-02
      6583       6588      1   0.010037  -0.022042     3.00055e-01     6.91943e-02
      6583       6586      1   0.010037   0.008477     2.60142e-01     2.09200e-02
      6583       6587      1   0.010037   0.008477     2.60142e-01     2.09200e-02
      6582       6590      1  -0.021025   0.009367     3.00055e-01     6.91943e-02
      6582       6589      1  -0.021025   0.009367     3.00055e-01     6.91943e-02
      6581       6585      1   0.012677  -0.012211     3.00055e-01     6.91943e-02
      6581       6584      1   0.012677   0.008364     2.60142e-01     2.09200e-02
      6581       6583      1   0.012677   0.008364     2.60142e-01     2.09200e-02
      6580       6585      1   0.012677  -0.012211     3.00055e-01     6.91943e-02
      6580       6584      1   0.012677   0.008364     2.60142e-01     2.09200e-02
      6580       6583      1   0.012677   0.008364     2.60142e-01     2.09200e-02
      6579       6586      1  -0.031787   0.008477     3.00055e-01     6.91943e-02
      6579       6587      1  -0.031787   0.008477     3.00055e-01     6.91943e-02
      6578       6582      1   0.017208  -0.017521     3.00055e-01     6.91943e-02
      6578       6580      1   0.017208   0.010564     2.60142e-01     2.09200e-02
      6578       6581      1   0.017208   0.010564     2.60142e-01     2.09200e-02
      6577       6582      1   0.017208  -0.017521     3.00055e-01     6.91943e-02
      6577       6580      1   0.017208   0.010564     2.60142e-01     2.09200e-02
      6577       6581      1   0.017208   0.010564     2.60142e-01     2.09200e-02
      6576       6584      1  -0.028094   0.008364     3.00055e-01     6.91943e-02
      6576       6583      1  -0.028094   0.008364     3.00055e-01     6.91943e-02
      6575       6579      1   0.007531  -0.026489     3.00055e-01     6.91943e-02
      6575       6578      1   0.007531   0.014340     2.60142e-01     2.09200e-02
      6575       6577      1   0.007531   0.014340     2.60142e-01     2.09200e-02
      6574       6579      1   0.007531  -0.026489     3.00055e-01     6.91943e-02
      6574       6578      1   0.007531   0.014340     2.60142e-01     2.09200e-02
      6574       6577      1   0.007531   0.014340     2.60142e-01     2.09200e-02
      6573       6580      1   0.017463   0.010564     3.00055e-01     6.91943e-02
      6573       6581      1   0.017463   0.010564     3.00055e-01     6.91943e-02
      6572       6576      1   0.025511  -0.023412     3.00055e-01     6.91943e-02
      6572       6574      1   0.025511   0.006276     2.60142e-01     2.09200e-02
      6572       6575      1   0.025511   0.006276     2.60142e-01     2.09200e-02
      6571       6576      1   0.025511  -0.023412     3.00055e-01     6.91943e-02
      6571       6574      1   0.025511   0.006276     2.60142e-01     2.09200e-02
      6571       6575      1   0.025511   0.006276     2.60142e-01     2.09200e-02
      6570       6578      1  -0.111712   0.014340     3.00055e-01     6.91943e-02
      6570       6577      1  -0.111712   0.014340     3.00055e-01     6.91943e-02
      6569       6576      1   0.025511  -0.023412     3.00055e-01     6.91943e-02
      6569       6574      1   0.025511   0.006276     2.60142e-01     2.09200e-02
      6569       6575      1   0.025511   0.006276     2.60142e-01     2.09200e-02
      6648       6650      1   0.053944  -0.559638     2.78067e-01     9.58675e-02
      6648       6651      1   0.053944  -0.479574     2.80072e-01     8.62554e-02
      6647       6650      1   0.053944  -0.559638     2.78067e-01     9.58675e-02
      6647       6651      1   0.053944  -0.479574     2.80072e-01     8.62554e-02
      6645       6648      1   0.018859   0.044953     2.60142e-01     2.09200e-02
      6645       6647      1   0.018859   0.044953     2.60142e-01     2.09200e-02
      6645       6649      1   0.018859   0.758669     3.00055e-01     6.13495e-02
      6644       6648      1   0.018859   0.044953     2.60142e-01     2.09200e-02
      6644       6647      1   0.018859   0.044953     2.60142e-01     2.09200e-02
      6644       6649      1   0.018859   0.758669     3.00055e-01     6.13495e-02
      6642       6646      1   0.020431  -0.136833     3.00055e-01     6.91943e-02
      6642       6645      1   0.020431   0.015716     2.60142e-01     2.09200e-02
      6642       6644      1   0.020431   0.015716     2.60142e-01     2.09200e-02
      6641       6646      1   0.020431  -0.136833     3.00055e-01     6.91943e-02
      6641       6645      1   0.020431   0.015716     2.60142e-01     2.09200e-02
      6641       6644      1   0.020431   0.015716     2.60142e-01     2.09200e-02
      6640       6648      1  -0.026954   0.044953     3.00055e-01     6.91943e-02
      6640       6647      1  -0.026954   0.044953     3.00055e-01     6.91943e-02
      6639       6643      1   0.010573  -0.002029     3.00055e-01     6.91943e-02
      6639       6642      1   0.010573   0.017026     2.60142e-01     2.09200e-02
      6639       6641      1   0.010573   0.017026     2.60142e-01     2.09200e-02
      6638       6643      1   0.010573  -0.002029     3.00055e-01     6.91943e-02
      6638       6642      1   0.010573   0.017026     2.60142e-01     2.09200e-02
      6638       6641      1   0.010573   0.017026     2.60142e-01     2.09200e-02
      6637       6645      1  -0.016521   0.015716     3.00055e-01     6.91943e-02
      6637       6644      1  -0.016521   0.015716     3.00055e-01     6.91943e-02
      6636       6640      1   0.011511  -0.022462     3.00055e-01     6.91943e-02
      6636       6638      1   0.011511   0.008811     2.60142e-01     2.09200e-02
      6636       6639      1   0.011511   0.008811     2.60142e-01     2.09200e-02
      6635       6640      1   0.011511  -0.022462     3.00055e-01     6.91943e-02
      6635       6638      1   0.011511   0.008811     2.60142e-01     2.09200e-02
      6635       6639      1   0.011511   0.008811     2.60142e-01     2.09200e-02
      6634       6642      1  -0.027812   0.017026     3.00055e-01     6.91943e-02
      6634       6641      1  -0.027812   0.017026     3.00055e-01     6.91943e-02
      6633       6637      1   0.006833  -0.013767     3.00055e-01     6.91943e-02
      6633       6635      1   0.006833   0.009592     2.60142e-01     2.09200e-02
      6633       6636      1   0.006833   0.009592     2.60142e-01     2.09200e-02
      6632       6637      1   0.006833  -0.013767     3.00055e-01     6.91943e-02
      6632       6635      1   0.006833   0.009592     2.60142e-01     2.09200e-02
      6632       6636      1   0.006833   0.009592     2.60142e-01     2.09200e-02
      6631       6638      1  -0.004386   0.008811     3.00055e-01     6.91943e-02
      6631       6639      1  -0.004386   0.008811     3.00055e-01     6.91943e-02
      6630       6634      1   0.011241  -0.023177     3.00055e-01     6.91943e-02
      6630       6632      1   0.011241   0.005694     2.60142e-01     2.09200e-02
      6630       6633      1   0.011241   0.005694     2.60142e-01     2.09200e-02
      6629       6634      1   0.011241  -0.023177     3.00055e-01     6.91943e-02
      6629       6632      1   0.011241   0.005694     2.60142e-01     2.09200e-02
      6629       6633      1   0.011241   0.005694     2.60142e-01     2.09200e-02
      6628       6635      1  -0.026451   0.009592     3.00055e-01     6.91943e-02
      6628       6636      1  -0.026451   0.009592     3.00055e-01     6.91943e-02
      6627       6631      1   0.010172  -0.003655     3.00055e-01     6.91943e-02
      6627       6630      1   0.010172   0.009367     2.60142e-01     2.09200e-02
      6627       6629      1   0.010172   0.009367     2.60142e-01     2.09200e-02
      6626       6631      1   0.010172  -0.003655     3.00055e-01     6.91943e-02
      6626       6630      1   0.010172   0.009367     2.60142e-01     2.09200e-02
      6626       6629      1   0.010172   0.009367     2.60142e-01     2.09200e-02
      6625       6632      1  -0.014653   0.005694     3.00055e-01     6.91943e-02
      6625       6633      1  -0.014653   0.005694     3.00055e-01     6.91943e-02
      6624       6628      1   0.010037  -0.022042     3.00055e-01     6.91943e-02
      6624       6626      1   0.010037   0.008477     2.60142e-01     2.09200e-02
      6624       6627      1   0.010037   0.008477     2.60142e-01     2.09200e-02
      6623       6628      1   0.010037  -0.022042     3.00055e-01     6.91943e-02
      6623       6626      1   0.010037   0.008477     2.60142e-01     2.09200e-02
      6623       6627      1   0.010037   0.008477     2.60142e-01     2.09200e-02
      6622       6630      1  -0.021025   0.009367     3.00055e-01     6.91943e-02
      6622       6629      1  -0.021025   0.009367     3.00055e-01     6.91943e-02
      6621       6625      1   0.012677  -0.012211     3.00055e-01     6.91943e-02
      6621       6624      1   0.012677   0.008364     2.60142e-01     2.09200e-02
      6621       6623      1   0.012677   0.008364     2.60142e-01     2.09200e-02
      6620       6625      1   0.012677  -0.012211     3.00055e-01     6.91943e-02
      6620       6624      1   0.012677   0.008364     2.60142e-01     2.09200e-02
      6620       6623      1   0.012677   0.008364     2.60142e-01     2.09200e-02
      6619       6626      1  -0.031787   0.008477     3.00055e-01     6.91943e-02
      6619       6627      1  -0.031787   0.008477     3.00055e-01     6.91943e-02
      6618       6622      1   0.017208  -0.017521     3.00055e-01     6.91943e-02
      6618       6620      1   0.017208   0.010564     2.60142e-01     2.09200e-02
      6618       6621      1   0.017208   0.010564     2.60142e-01     2.09200e-02
      6617       6622      1   0.017208  -0.017521     3.00055e-01     6.91943e-02
      6617       6620      1   0.017208   0.010564     2.60142e-01     2.09200e-02
      6617       6621      1   0.017208   0.010564     2.60142e-01     2.09200e-02
      6616       6624      1  -0.028094   0.008364     3.00055e-01     6.91943e-02
      6616       6623      1  -0.028094   0.008364     3.00055e-01     6.91943e-02
      6615       6619      1   0.007531  -0.026489     3.00055e-01     6.91943e-02
      6615       6618      1   0.007531   0.014340     2.60142e-01     2.09200e-02
      6615       6617      1   0.007531   0.014340     2.60142e-01     2.09200e-02
      6614       6619      1   0.007531  -0.026489     3.00055e-01     6.91943e-02
      6614       6618      1   0.007531   0.014340     2.60142e-01     2.09200e-02
      6614       6617      1   0.007531   0.014340     2.60142e-01     2.09200e-02
      6613       6620      1   0.017463   0.010564     3.00055e-01     6.91943e-02
      6613       6621      1   0.017463   0.010564     3.00055e-01     6.91943e-02
      6612       6616      1   0.025511  -0.023412     3.00055e-01     6.91943e-02
      6612       6614      1   0.025511   0.006276     2.60142e-01     2.09200e-02
      6612       6615      1   0.025511   0.006276     2.60142e-01     2.09200e-02
      6611       6616      1   0.025511  -0.023412     3.00055e-01     6.91943e-02
      6611       6614      1   0.025511   0.006276     2.60142e-01     2.09200e-02
      6611       6615      1   0.025511   0.006276     2.60142e-01     2.09200e-02
      6610       6618      1  -0.111712   0.014340     3.00055e-01     6.91943e-02
      6610       6617      1  -0.111712   0.014340     3.00055e-01     6.91943e-02
      6609       6616      1   0.025511  -0.023412     3.00055e-01     6.91943e-02
      6609       6614      1   0.025511   0.006276     2.60142e-01     2.09200e-02
      6609       6615      1   0.025511   0.006276     2.60142e-01     2.09200e-02
      6686       6726      1  -0.673755   0.044953     2.78067e-01     9.58675e-02
      6686       6725      1  -0.673755   0.044953     2.78067e-01     9.58675e-02
      6685       6723      1   0.897613   0.015716     3.00055e-01     6.13495e-02
      6685       6722      1   0.897613   0.015716     3.00055e-01     6.13495e-02
      6684       6726      1  -0.552948   0.044953     2.80072e-01     8.62554e-02
      6684       6725      1  -0.552948   0.044953     2.80072e-01     8.62554e-02
      6677       6678      1   0.172230  -0.282478     2.67982e-01     8.67002e-02
      6676       6678      1   0.172230  -0.282478     2.67982e-01     8.67002e-02
      6675       6678      1   0.172230  -0.282478     2.67982e-01     8.67002e-02
      6674       6679      1  -0.338973   0.143525     2.67982e-01     8.67002e-02
      6674       6680      1  -0.338973   0.143525     2.67982e-01     8.67002e-02
      6674       6681      1  -0.338973   0.143525     2.67982e-01     8.67002e-02
      6673       6674      1   0.172230  -0.282478     2.67982e-01     8.67002e-02
      6673       6678      1   0.172230  -0.282478     2.67982e-01     8.67002e-02
      6672       6674      1   0.172230  -0.282478     2.67982e-01     8.67002e-02
      6672       6678      1   0.172230  -0.282478     2.67982e-01     8.67002e-02
      6671       6674      1   0.172230  -0.282478     2.67982e-01     8.67002e-02
      6671       6678      1   0.172230  -0.282478     2.67982e-01     8.67002e-02
      6670       6675      1  -0.338973   0.143525     2.67982e-01     8.67002e-02
      6670       6676      1  -0.338973   0.143525     2.67982e-01     8.67002e-02
      6670       6677      1  -0.338973   0.143525     2.67982e-01     8.67002e-02
      6670       6679      1  -0.338973   0.143525     2.67982e-01     8.67002e-02
      6670       6680      1  -0.338973   0.143525     2.67982e-01     8.67002e-02
      6670       6681      1  -0.338973   0.143525     2.67982e-01     8.67002e-02
      6668       6670      1   0.136415  -0.282478     2.67982e-01     8.67002e-02
      6668       6674      1   0.136415  -0.282478     2.67982e-01     8.67002e-02
      6668       6678      1   0.136415  -0.282478     2.67982e-01     8.67002e-02
      6667       6670      1   0.136415  -0.282478     2.67982e-01     8.67002e-02
      6667       6674      1   0.136415  -0.282478     2.67982e-01     8.67002e-02
      6667       6678      1   0.136415  -0.282478     2.67982e-01     8.67002e-02
      6666       6671      1  -0.170824   0.143525     2.67982e-01     8.67002e-02
      6666       6672      1  -0.170824   0.143525     2.67982e-01     8.67002e-02
      6666       6673      1  -0.170824   0.143525     2.67982e-01     8.67002e-02
      6666       6675      1  -0.170824   0.143525     2.67982e-01     8.67002e-02
      6666       6676      1  -0.170824   0.143525     2.67982e-01     8.67002e-02
      6666       6677      1  -0.170824   0.143525     2.67982e-01     8.67002e-02
      6666       6679      1  -0.170824   0.143525     2.67982e-01     8.67002e-02
      6666       6680      1  -0.170824   0.143525     2.67982e-01     8.67002e-02
      6666       6681      1  -0.170824   0.143525     2.67982e-01     8.67002e-02
      6665       6667      1   0.078534   0.113679     2.21567e-01     3.28444e-02
      6665       6668      1   0.078534   0.113679     2.21567e-01     3.28444e-02
      6665       6669      1   0.078534   0.204385     2.86068e-01     1.08078e-01
      6664       6667      1   0.078534   0.113679     2.21567e-01     3.28444e-02
      6664       6668      1   0.078534   0.113679     2.21567e-01     3.28444e-02
      6664       6669      1   0.078534   0.204385     2.86068e-01     1.08078e-01
      6662       6667      1  -0.508176   0.113679     2.47999e-01     1.08078e-01
      6662       6668      1  -0.508176   0.113679     2.47999e-01     1.08078e-01
      6661       6664      1   1.339721   0.065445     3.10656e-01     1.17227e-01
      6661       6665      1   1.339721   0.065445     3.10656e-01     1.17227e-01
      6659       6684      1   0.095591  -0.460790     2.73568e-01     1.08078e-01
      6659       6661      1   0.095591   1.116434     3.10656e-01     1.17227e-01
      6658       6684      1   0.095591  -0.460790     2.73568e-01     1.08078e-01
      6658       6661      1   0.095591   1.116434     3.10656e-01     1.17227e-01
      6656       6658      1   0.063253   0.079659     2.47135e-01     3.28444e-02
      6656       6659      1   0.063253   0.079659     2.47135e-01     3.28444e-02
      6656       6660      1   0.063253  -0.424567     2.73568e-01     1.08078e-01
      6656       6685      1   0.063253   0.748011     2.93551e-01     7.68707e-02
      6654       6656      1   0.070469   0.052711     2.47135e-01     3.28444e-02
      6654       6657      1   0.070469   0.014549     2.93551e-01     8.67002e-02
      6654       6684      1   0.070469  -0.460790     2.73568e-01     1.08078e-01
      6653       6656      1   0.070469   0.052711     2.47135e-01     3.28444e-02
      6653       6657      1   0.070469   0.014549     2.93551e-01     8.67002e-02
      6653       6684      1   0.070469  -0.460790     2.73568e-01     1.08078e-01
      6652       6658      1   0.196939   0.079659     2.93551e-01     8.67002e-02
      6652       6659      1   0.196939   0.079659     2.93551e-01     8.67002e-02
      6651       6656      1  -0.575489   0.052711     2.73568e-01     1.08078e-01
      6649       6653      1   0.910403   0.058724     2.93551e-01     7.68707e-02
      6649       6654      1   0.910403   0.058724     2.93551e-01     7.68707e-02
      6723       6726      1   0.018859   0.044953     2.60142e-01     2.09200e-02
      6723       6725      1   0.018859   0.044953     2.60142e-01     2.09200e-02
      6722       6726      1   0.018859   0.044953     2.60142e-01     2.09200e-02
      6722       6725      1   0.018859   0.044953     2.60142e-01     2.09200e-02
      6720       6724      1   0.020431  -0.136833     3.00055e-01     6.91943e-02
      6720       6723      1   0.020431   0.015716     2.60142e-01     2.09200e-02
      6720       6722      1   0.020431   0.015716     2.60142e-01     2.09200e-02
      6719       6724      1   0.020431  -0.136833     3.00055e-01     6.91943e-02
      6719       6723      1   0.020431   0.015716     2.60142e-01     2.09200e-02
      6719       6722      1   0.020431   0.015716     2.60142e-01     2.09200e-02
      6718       6726      1  -0.026954   0.044953     3.00055e-01     6.91943e-02
      6718       6725      1  -0.026954   0.044953     3.00055e-01     6.91943e-02
      6717       6721      1   0.010573  -0.002029     3.00055e-01     6.91943e-02
      6717       6720      1   0.010573   0.017026     2.60142e-01     2.09200e-02
      6717       6719      1   0.010573   0.017026     2.60142e-01     2.09200e-02
      6716       6721      1   0.010573  -0.002029     3.00055e-01     6.91943e-02
      6716       6720      1   0.010573   0.017026     2.60142e-01     2.09200e-02
      6716       6719      1   0.010573   0.017026     2.60142e-01     2.09200e-02
      6715       6723      1  -0.016521   0.015716     3.00055e-01     6.91943e-02
      6715       6722      1  -0.016521   0.015716     3.00055e-01     6.91943e-02
      6714       6718      1   0.011511  -0.022462     3.00055e-01     6.91943e-02
      6714       6716      1   0.011511   0.008811     2.60142e-01     2.09200e-02
      6714       6717      1   0.011511   0.008811     2.60142e-01     2.09200e-02
      6713       6718      1   0.011511  -0.022462     3.00055e-01     6.91943e-02
      6713       6716      1   0.011511   0.008811     2.60142e-01     2.09200e-02
      6713       6717      1   0.011511   0.008811     2.60142e-01     2.09200e-02
      6712       6720      1  -0.027812   0.017026     3.00055e-01     6.91943e-02
      6712       6719      1  -0.027812   0.017026     3.00055e-01     6.91943e-02
      6711       6715      1   0.006833  -0.013767     3.00055e-01     6.91943e-02
      6711       6713      1   0.006833   0.009592     2.60142e-01     2.09200e-02
      6711       6714      1   0.006833   0.009592     2.60142e-01     2.09200e-02
      6710       6715      1   0.006833  -0.013767     3.00055e-01     6.91943e-02
      6710       6713      1   0.006833   0.009592     2.60142e-01     2.09200e-02
      6710       6714      1   0.006833   0.009592     2.60142e-01     2.09200e-02
      6709       6716      1  -0.004386   0.008811     3.00055e-01     6.91943e-02
      6709       6717      1  -0.004386   0.008811     3.00055e-01     6.91943e-02
      6708       6712      1   0.011241  -0.023177     3.00055e-01     6.91943e-02
      6708       6710      1   0.011241   0.005694     2.60142e-01     2.09200e-02
      6708       6711      1   0.011241   0.005694     2.60142e-01     2.09200e-02
      6707       6712      1   0.011241  -0.023177     3.00055e-01     6.91943e-02
      6707       6710      1   0.011241   0.005694     2.60142e-01     2.09200e-02
      6707       6711      1   0.011241   0.005694     2.60142e-01     2.09200e-02
      6706       6713      1  -0.026451   0.009592     3.00055e-01     6.91943e-02
      6706       6714      1  -0.026451   0.009592     3.00055e-01     6.91943e-02
      6705       6709      1   0.010172  -0.003655     3.00055e-01     6.91943e-02
      6705       6708      1   0.010172   0.009367     2.60142e-01     2.09200e-02
      6705       6707      1   0.010172   0.009367     2.60142e-01     2.09200e-02
      6704       6709      1   0.010172  -0.003655     3.00055e-01     6.91943e-02
      6704       6708      1   0.010172   0.009367     2.60142e-01     2.09200e-02
      6704       6707      1   0.010172   0.009367     2.60142e-01     2.09200e-02
      6703       6710      1  -0.014653   0.005694     3.00055e-01     6.91943e-02
      6703       6711      1  -0.014653   0.005694     3.00055e-01     6.91943e-02
      6702       6706      1   0.010037  -0.022042     3.00055e-01     6.91943e-02
      6702       6704      1   0.010037   0.008477     2.60142e-01     2.09200e-02
      6702       6705      1   0.010037   0.008477     2.60142e-01     2.09200e-02
      6701       6706      1   0.010037  -0.022042     3.00055e-01     6.91943e-02
      6701       6704      1   0.010037   0.008477     2.60142e-01     2.09200e-02
      6701       6705      1   0.010037   0.008477     2.60142e-01     2.09200e-02
      6700       6708      1  -0.021025   0.009367     3.00055e-01     6.91943e-02
      6700       6707      1  -0.021025   0.009367     3.00055e-01     6.91943e-02
      6699       6703      1   0.012677  -0.012211     3.00055e-01     6.91943e-02
      6699       6702      1   0.012677   0.008364     2.60142e-01     2.09200e-02
      6699       6701      1   0.012677   0.008364     2.60142e-01     2.09200e-02
      6698       6703      1   0.012677  -0.012211     3.00055e-01     6.91943e-02
      6698       6702      1   0.012677   0.008364     2.60142e-01     2.09200e-02
      6698       6701      1   0.012677   0.008364     2.60142e-01     2.09200e-02
      6697       6704      1  -0.031787   0.008477     3.00055e-01     6.91943e-02
      6697       6705      1  -0.031787   0.008477     3.00055e-01     6.91943e-02
      6696       6700      1   0.017208  -0.017521     3.00055e-01     6.91943e-02
      6696       6698      1   0.017208   0.010564     2.60142e-01     2.09200e-02
      6696       6699      1   0.017208   0.010564     2.60142e-01     2.09200e-02
      6695       6700      1   0.017208  -0.017521     3.00055e-01     6.91943e-02
      6695       6698      1   0.017208   0.010564     2.60142e-01     2.09200e-02
      6695       6699      1   0.017208   0.010564     2.60142e-01     2.09200e-02
      6694       6702      1  -0.028094   0.008364     3.00055e-01     6.91943e-02
      6694       6701      1  -0.028094   0.008364     3.00055e-01     6.91943e-02
      6693       6697      1   0.007531  -0.026489     3.00055e-01     6.91943e-02
      6693       6696      1   0.007531   0.014340     2.60142e-01     2.09200e-02
      6693       6695      1   0.007531   0.014340     2.60142e-01     2.09200e-02
      6692       6697      1   0.007531  -0.026489     3.00055e-01     6.91943e-02
      6692       6696      1   0.007531   0.014340     2.60142e-01     2.09200e-02
      6692       6695      1   0.007531   0.014340     2.60142e-01     2.09200e-02
      6691       6698      1   0.017463   0.010564     3.00055e-01     6.91943e-02
      6691       6699      1   0.017463   0.010564     3.00055e-01     6.91943e-02
      6690       6694      1   0.025511  -0.023412     3.00055e-01     6.91943e-02
      6690       6692      1   0.025511   0.006276     2.60142e-01     2.09200e-02
      6690       6693      1   0.025511   0.006276     2.60142e-01     2.09200e-02
      6689       6694      1   0.025511  -0.023412     3.00055e-01     6.91943e-02
      6689       6692      1   0.025511   0.006276     2.60142e-01     2.09200e-02
      6689       6693      1   0.025511   0.006276     2.60142e-01     2.09200e-02
      6688       6696      1  -0.111712   0.014340     3.00055e-01     6.91943e-02
      6688       6695      1  -0.111712   0.014340     3.00055e-01     6.91943e-02
      6687       6694      1   0.025511  -0.023412     3.00055e-01     6.91943e-02
      6687       6692      1   0.025511   0.006276     2.60142e-01     2.09200e-02
      6687       6693      1   0.025511   0.006276     2.60142e-01     2.09200e-02
      6766       6768      1   0.053944  -0.559638     2.78067e-01     9.58675e-02
      6766       6769      1   0.053944  -0.479574     2.80072e-01     8.62554e-02
      6765       6768      1   0.053944  -0.559638     2.78067e-01     9.58675e-02
      6765       6769      1   0.053944  -0.479574     2.80072e-01     8.62554e-02
      6763       6766      1   0.018859   0.044953     2.60142e-01     2.09200e-02
      6763       6765      1   0.018859   0.044953     2.60142e-01     2.09200e-02
      6763       6767      1   0.018859   0.758669     3.00055e-01     6.13495e-02
      6762       6766      1   0.018859   0.044953     2.60142e-01     2.09200e-02
      6762       6765      1   0.018859   0.044953     2.60142e-01     2.09200e-02
      6762       6767      1   0.018859   0.758669     3.00055e-01     6.13495e-02
      6760       6764      1   0.020431  -0.136833     3.00055e-01     6.91943e-02
      6760       6763      1   0.020431   0.015716     2.60142e-01     2.09200e-02
      6760       6762      1   0.020431   0.015716     2.60142e-01     2.09200e-02
      6759       6764      1   0.020431  -0.136833     3.00055e-01     6.91943e-02
      6759       6763      1   0.020431   0.015716     2.60142e-01     2.09200e-02
      6759       6762      1   0.020431   0.015716     2.60142e-01     2.09200e-02
      6758       6766      1  -0.026954   0.044953     3.00055e-01     6.91943e-02
      6758       6765      1  -0.026954   0.044953     3.00055e-01     6.91943e-02
      6757       6761      1   0.010573  -0.002029     3.00055e-01     6.91943e-02
      6757       6760      1   0.010573   0.017026     2.60142e-01     2.09200e-02
      6757       6759      1   0.010573   0.017026     2.60142e-01     2.09200e-02
      6756       6761      1   0.010573  -0.002029     3.00055e-01     6.91943e-02
      6756       6760      1   0.010573   0.017026     2.60142e-01     2.09200e-02
      6756       6759      1   0.010573   0.017026     2.60142e-01     2.09200e-02
      6755       6763      1  -0.016521   0.015716     3.00055e-01     6.91943e-02
      6755       6762      1  -0.016521   0.015716     3.00055e-01     6.91943e-02
      6754       6758      1   0.011511  -0.022462     3.00055e-01     6.91943e-02
      6754       6756      1   0.011511   0.008811     2.60142e-01     2.09200e-02
      6754       6757      1   0.011511   0.008811     2.60142e-01     2.09200e-02
      6753       6758      1   0.011511  -0.022462     3.00055e-01     6.91943e-02
      6753       6756      1   0.011511   0.008811     2.60142e-01     2.09200e-02
      6753       6757      1   0.011511   0.008811     2.60142e-01     2.09200e-02
      6752       6760      1  -0.027812   0.017026     3.00055e-01     6.91943e-02
      6752       6759      1  -0.027812   0.017026     3.00055e-01     6.91943e-02
      6751       6755      1   0.006833  -0.013767     3.00055e-01     6.91943e-02
      6751       6753      1   0.006833   0.009592     2.60142e-01     2.09200e-02
      6751       6754      1   0.006833   0.009592     2.60142e-01     2.09200e-02
      6750       6755      1   0.006833  -0.013767     3.00055e-01     6.91943e-02
      6750       6753      1   0.006833   0.009592     2.60142e-01     2.09200e-02
      6750       6754      1   0.006833   0.009592     2.60142e-01     2.09200e-02
      6749       6756      1  -0.004386   0.008811     3.00055e-01     6.91943e-02
      6749       6757      1  -0.004386   0.008811     3.00055e-01     6.91943e-02
      6748       6752      1   0.011241  -0.023177     3.00055e-01     6.91943e-02
      6748       6750      1   0.011241   0.005694     2.60142e-01     2.09200e-02
      6748       6751      1   0.011241   0.005694     2.60142e-01     2.09200e-02
      6747       6752      1   0.011241  -0.023177     3.00055e-01     6.91943e-02
      6747       6750      1   0.011241   0.005694     2.60142e-01     2.09200e-02
      6747       6751      1   0.011241   0.005694     2.60142e-01     2.09200e-02
      6746       6753      1  -0.026451   0.009592     3.00055e-01     6.91943e-02
      6746       6754      1  -0.026451   0.009592     3.00055e-01     6.91943e-02
      6745       6749      1   0.010172  -0.003655     3.00055e-01     6.91943e-02
      6745       6748      1   0.010172   0.009367     2.60142e-01     2.09200e-02
      6745       6747      1   0.010172   0.009367     2.60142e-01     2.09200e-02
      6744       6749      1   0.010172  -0.003655     3.00055e-01     6.91943e-02
      6744       6748      1   0.010172   0.009367     2.60142e-01     2.09200e-02
      6744       6747      1   0.010172   0.009367     2.60142e-01     2.09200e-02
      6743       6750      1  -0.014653   0.005694     3.00055e-01     6.91943e-02
      6743       6751      1  -0.014653   0.005694     3.00055e-01     6.91943e-02
      6742       6746      1   0.010037  -0.022042     3.00055e-01     6.91943e-02
      6742       6744      1   0.010037   0.008477     2.60142e-01     2.09200e-02
      6742       6745      1   0.010037   0.008477     2.60142e-01     2.09200e-02
      6741       6746      1   0.010037  -0.022042     3.00055e-01     6.91943e-02
      6741       6744      1   0.010037   0.008477     2.60142e-01     2.09200e-02
      6741       6745      1   0.010037   0.008477     2.60142e-01     2.09200e-02
      6740       6748      1  -0.021025   0.009367     3.00055e-01     6.91943e-02
      6740       6747      1  -0.021025   0.009367     3.00055e-01     6.91943e-02
      6739       6743      1   0.012677  -0.012211     3.00055e-01     6.91943e-02
      6739       6742      1   0.012677   0.008364     2.60142e-01     2.09200e-02
      6739       6741      1   0.012677   0.008364     2.60142e-01     2.09200e-02
      6738       6743      1   0.012677  -0.012211     3.00055e-01     6.91943e-02
      6738       6742      1   0.012677   0.008364     2.60142e-01     2.09200e-02
      6738       6741      1   0.012677   0.008364     2.60142e-01     2.09200e-02
      6737       6744      1  -0.031787   0.008477     3.00055e-01     6.91943e-02
      6737       6745      1  -0.031787   0.008477     3.00055e-01     6.91943e-02
      6736       6740      1   0.017208  -0.017521     3.00055e-01     6.91943e-02
      6736       6738      1   0.017208   0.010564     2.60142e-01     2.09200e-02
      6736       6739      1   0.017208   0.010564     2.60142e-01     2.09200e-02
      6735       6740      1   0.017208  -0.017521     3.00055e-01     6.91943e-02
      6735       6738      1   0.017208   0.010564     2.60142e-01     2.09200e-02
      6735       6739      1   0.017208   0.010564     2.60142e-01     2.09200e-02
      6734       6742      1  -0.028094   0.008364     3.00055e-01     6.91943e-02
      6734       6741      1  -0.028094   0.008364     3.00055e-01     6.91943e-02
      6733       6737      1   0.007531  -0.026489     3.00055e-01     6.91943e-02
      6733       6736      1   0.007531   0.014340     2.60142e-01     2.09200e-02
      6733       6735      1   0.007531   0.014340     2.60142e-01     2.09200e-02
      6732       6737      1   0.007531  -0.026489     3.00055e-01     6.91943e-02
      6732       6736      1   0.007531   0.014340     2.60142e-01     2.09200e-02
      6732       6735      1   0.007531   0.014340     2.60142e-01     2.09200e-02
      6731       6738      1   0.017463   0.010564     3.00055e-01     6.91943e-02
      6731       6739      1   0.017463   0.010564     3.00055e-01     6.91943e-02
      6730       6734      1   0.025511  -0.023412     3.00055e-01     6.91943e-02
      6730       6732      1   0.025511   0.006276     2.60142e-01     2.09200e-02
      6730       6733      1   0.025511   0.006276     2.60142e-01     2.09200e-02
      6729       6734      1   0.025511  -0.023412     3.00055e-01     6.91943e-02
      6729       6732      1   0.025511   0.006276     2.60142e-01     2.09200e-02
      6729       6733      1   0.025511   0.006276     2.60142e-01     2.09200e-02
      6728       6736      1  -0.111712   0.014340     3.00055e-01     6.91943e-02
      6728       6735      1  -0.111712   0.014340     3.00055e-01     6.91943e-02
      6727       6734      1   0.025511  -0.023412     3.00055e-01     6.91943e-02
      6727       6732      1   0.025511   0.006276     2.60142e-01     2.09200e-02
      6727       6733      1   0.025511   0.006276     2.60142e-01     2.09200e-02
      6804       6844      1  -0.673755   0.044953     2.78067e-01     9.58675e-02
      6804       6843      1  -0.673755   0.044953     2.78067e-01     9.58675e-02
      6803       6841      1   0.897613   0.015716     3.00055e-01     6.13495e-02
      6803       6840      1   0.897613   0.015716     3.00055e-01     6.13495e-02
      6802       6844      1  -0.552948   0.044953     2.80072e-01     8.62554e-02
      6802       6843      1  -0.552948   0.044953     2.80072e-01     8.62554e-02
      6795       6796      1   0.172230  -0.282478     2.67982e-01     8.67002e-02
      6794       6796      1   0.172230  -0.282478     2.67982e-01     8.67002e-02
      6793       6796      1   0.172230  -0.282478     2.67982e-01     8.67002e-02
      6792       6797      1  -0.338973   0.143525     2.67982e-01     8.67002e-02
      6792       6798      1  -0.338973   0.143525     2.67982e-01     8.67002e-02
      6792       6799      1  -0.338973   0.143525     2.67982e-01     8.67002e-02
      6791       6792      1   0.172230  -0.282478     2.67982e-01     8.67002e-02
      6791       6796      1   0.172230  -0.282478     2.67982e-01     8.67002e-02
      6790       6792      1   0.172230  -0.282478     2.67982e-01     8.67002e-02
      6790       6796      1   0.172230  -0.282478     2.67982e-01     8.67002e-02
      6789       6792      1   0.172230  -0.282478     2.67982e-01     8.67002e-02
      6789       6796      1   0.172230  -0.282478     2.67982e-01     8.67002e-02
      6788       6793      1  -0.338973   0.143525     2.67982e-01     8.67002e-02
      6788       6794      1  -0.338973   0.143525     2.67982e-01     8.67002e-02
      6788       6795      1  -0.338973   0.143525     2.67982e-01     8.67002e-02
      6788       6797      1  -0.338973   0.143525     2.67982e-01     8.67002e-02
      6788       6798      1  -0.338973   0.143525     2.67982e-01     8.67002e-02
      6788       6799      1  -0.338973   0.143525     2.67982e-01     8.67002e-02
      6786       6788      1   0.136415  -0.282478     2.67982e-01     8.67002e-02
      6786       6792      1   0.136415  -0.282478     2.67982e-01     8.67002e-02
      6786       6796      1   0.136415  -0.282478     2.67982e-01     8.67002e-02
      6785       6788      1   0.136415  -0.282478     2.67982e-01     8.67002e-02
      6785       6792      1   0.136415  -0.282478     2.67982e-01     8.67002e-02
      6785       6796      1   0.136415  -0.282478     2.67982e-01     8.67002e-02
      6784       6789      1  -0.170824   0.143525     2.67982e-01     8.67002e-02
      6784       6790      1  -0.170824   0.143525     2.67982e-01     8.67002e-02
      6784       6791      1  -0.170824   0.143525     2.67982e-01     8.67002e-02
      6784       6793      1  -0.170824   0.143525     2.67982e-01     8.67002e-02
      6784       6794      1  -0.170824   0.143525     2.67982e-01     8.67002e-02
      6784       6795      1  -0.170824   0.143525     2.67982e-01     8.67002e-02
      6784       6797      1  -0.170824   0.143525     2.67982e-01     8.67002e-02
      6784       6798      1  -0.170824   0.143525     2.67982e-01     8.67002e-02
      6784       6799      1  -0.170824   0.143525     2.67982e-01     8.67002e-02
      6783       6785      1   0.078534   0.113679     2.21567e-01     3.28444e-02
      6783       6786      1   0.078534   0.113679     2.21567e-01     3.28444e-02
      6783       6787      1   0.078534   0.204385     2.86068e-01     1.08078e-01
      6782       6785      1   0.078534   0.113679     2.21567e-01     3.28444e-02
      6782       6786      1   0.078534   0.113679     2.21567e-01     3.28444e-02
      6782       6787      1   0.078534   0.204385     2.86068e-01     1.08078e-01
      6780       6785      1  -0.508176   0.113679     2.47999e-01     1.08078e-01
      6780       6786      1  -0.508176   0.113679     2.47999e-01     1.08078e-01
      6779       6782      1   1.339721   0.065445     3.10656e-01     1.17227e-01
      6779       6783      1   1.339721   0.065445     3.10656e-01     1.17227e-01
      6777       6802      1   0.095591  -0.460790     2.73568e-01     1.08078e-01
      6777       6779      1   0.095591   1.116434     3.10656e-01     1.17227e-01
      6776       6802      1   0.095591  -0.460790     2.73568e-01     1.08078e-01
      6776       6779      1   0.095591   1.116434     3.10656e-01     1.17227e-01
      6774       6776      1   0.063253   0.079659     2.47135e-01     3.28444e-02
      6774       6777      1   0.063253   0.079659     2.47135e-01     3.28444e-02
      6774       6778      1   0.063253  -0.424567     2.73568e-01     1.08078e-01
      6774       6803      1   0.063253   0.748011     2.93551e-01     7.68707e-02
      6772       6774      1   0.070469   0.052711     2.47135e-01     3.28444e-02
      6772       6775      1   0.070469   0.014549     2.93551e-01     8.67002e-02
      6772       6802      1   0.070469  -0.460790     2.73568e-01     1.08078e-01
      6771       6774      1   0.070469   0.052711     2.47135e-01     3.28444e-02
      6771       6775      1   0.070469   0.014549     2.93551e-01     8.67002e-02
      6771       6802      1   0.070469  -0.460790     2.73568e-01     1.08078e-01
      6770       6776      1   0.196939   0.079659     2.93551e-01     8.67002e-02
      6770       6777      1   0.196939   0.079659     2.93551e-01     8.67002e-02
      6769       6774      1  -0.575489   0.052711     2.73568e-01     1.08078e-01
      6767       6771      1   0.910403   0.058724     2.93551e-01     7.68707e-02
      6767       6772      1   0.910403   0.058724     2.93551e-01     7.68707e-02
      6841       6844      1   0.018859   0.044953     2.60142e-01     2.09200e-02
      6841       6843      1   0.018859   0.044953     2.60142e-01     2.09200e-02
      6840       6844      1   0.018859   0.044953     2.60142e-01     2.09200e-02
      6840       6843      1   0.018859   0.044953     2.60142e-01     2.09200e-02
      6838       6842      1   0.020431  -0.136833     3.00055e-01     6.91943e-02
      6838       6841      1   0.020431   0.015716     2.60142e-01     2.09200e-02
      6838       6840      1   0.020431   0.015716     2.60142e-01     2.09200e-02
      6837       6842      1   0.020431  -0.136833     3.00055e-01     6.91943e-02
      6837       6841      1   0.020431   0.015716     2.60142e-01     2.09200e-02
      6837       6840      1   0.020431   0.015716     2.60142e-01     2.09200e-02
      6836       6844      1  -0.026954   0.044953     3.00055e-01     6.91943e-02
      6836       6843      1  -0.026954   0.044953     3.00055e-01     6.91943e-02
      6835       6839      1   0.010573  -0.002029     3.00055e-01     6.91943e-02
      6835       6838      1   0.010573   0.017026     2.60142e-01     2.09200e-02
      6835       6837      1   0.010573   0.017026     2.60142e-01     2.09200e-02
      6834       6839      1   0.010573  -0.002029     3.00055e-01     6.91943e-02
      6834       6838      1   0.010573   0.017026     2.60142e-01     2.09200e-02
      6834       6837      1   0.010573   0.017026     2.60142e-01     2.09200e-02
      6833       6841      1  -0.016521   0.015716     3.00055e-01     6.91943e-02
      6833       6840      1  -0.016521   0.015716     3.00055e-01     6.91943e-02
      6832       6836      1   0.011511  -0.022462     3.00055e-01     6.91943e-02
      6832       6834      1   0.011511   0.008811     2.60142e-01     2.09200e-02
      6832       6835      1   0.011511   0.008811     2.60142e-01     2.09200e-02
      6831       6836      1   0.011511  -0.022462     3.00055e-01     6.91943e-02
      6831       6834      1   0.011511   0.008811     2.60142e-01     2.09200e-02
      6831       6835      1   0.011511   0.008811     2.60142e-01     2.09200e-02
      6830       6838      1  -0.027812   0.017026     3.00055e-01     6.91943e-02
      6830       6837      1  -0.027812   0.017026     3.00055e-01     6.91943e-02
      6829       6833      1   0.006833  -0.013767     3.00055e-01     6.91943e-02
      6829       6831      1   0.006833   0.009592     2.60142e-01     2.09200e-02
      6829       6832      1   0.006833   0.009592     2.60142e-01     2.09200e-02
      6828       6833      1   0.006833  -0.013767     3.00055e-01     6.91943e-02
      6828       6831      1   0.006833   0.009592     2.60142e-01     2.09200e-02
      6828       6832      1   0.006833   0.009592     2.60142e-01     2.09200e-02
      6827       6834      1  -0.004386   0.008811     3.00055e-01     6.91943e-02
      6827       6835      1  -0.004386   0.008811     3.00055e-01     6.91943e-02
      6826       6830      1   0.011241  -0.023177     3.00055e-01     6.91943e-02
      6826       6828      1   0.011241   0.005694     2.60142e-01     2.09200e-02
      6826       6829      1   0.011241   0.005694     2.60142e-01     2.09200e-02
      6825       6830      1   0.011241  -0.023177     3.00055e-01     6.91943e-02
      6825       6828      1   0.011241   0.005694     2.60142e-01     2.09200e-02
      6825       6829      1   0.011241   0.005694     2.60142e-01     2.09200e-02
      6824       6831      1  -0.026451   0.009592     3.00055e-01     6.91943e-02
      6824       6832      1  -0.026451   0.009592     3.00055e-01     6.91943e-02
      6823       6827      1   0.010172  -0.003655     3.00055e-01     6.91943e-02
      6823       6826      1   0.010172   0.009367     2.60142e-01     2.09200e-02
      6823       6825      1   0.010172   0.009367     2.60142e-01     2.09200e-02
      6822       6827      1   0.010172  -0.003655     3.00055e-01     6.91943e-02
      6822       6826      1   0.010172   0.009367     2.60142e-01     2.09200e-02
      6822       6825      1   0.010172   0.009367     2.60142e-01     2.09200e-02
      6821       6828      1  -0.014653   0.005694     3.00055e-01     6.91943e-02
      6821       6829      1  -0.014653   0.005694     3.00055e-01     6.91943e-02
      6820       6824      1   0.010037  -0.022042     3.00055e-01     6.91943e-02
      6820       6822      1   0.010037   0.008477     2.60142e-01     2.09200e-02
      6820       6823      1   0.010037   0.008477     2.60142e-01     2.09200e-02
      6819       6824      1   0.010037  -0.022042     3.00055e-01     6.91943e-02
      6819       6822      1   0.010037   0.008477     2.60142e-01     2.09200e-02
      6819       6823      1   0.010037   0.008477     2.60142e-01     2.09200e-02
      6818       6826      1  -0.021025   0.009367     3.00055e-01     6.91943e-02
      6818       6825      1  -0.021025   0.009367     3.00055e-01     6.91943e-02
      6817       6821      1   0.012677  -0.012211     3.00055e-01     6.91943e-02
      6817       6820      1   0.012677   0.008364     2.60142e-01     2.09200e-02
      6817       6819      1   0.012677   0.008364     2.60142e-01     2.09200e-02
      6816       6821      1   0.012677  -0.012211     3.00055e-01     6.91943e-02
      6816       6820      1   0.012677   0.008364     2.60142e-01     2.09200e-02
      6816       6819      1   0.012677   0.008364     2.60142e-01     2.09200e-02
      6815       6822      1  -0.031787   0.008477     3.00055e-01     6.91943e-02
      6815       6823      1  -0.031787   0.008477     3.00055e-01     6.91943e-02
      6814       6818      1   0.017208  -0.017521     3.00055e-01     6.91943e-02
      6814       6816      1   0.017208   0.010564     2.60142e-01     2.09200e-02
      6814       6817      1   0.017208   0.010564     2.60142e-01     2.09200e-02
      6813       6818      1   0.017208  -0.017521     3.00055e-01     6.91943e-02
      6813       6816      1   0.017208   0.010564     2.60142e-01     2.09200e-02
      6813       6817      1   0.017208   0.010564     2.60142e-01     2.09200e-02
      6812       6820      1  -0.028094   0.008364     3.00055e-01     6.91943e-02
      6812       6819      1  -0.028094   0.008364     3.00055e-01     6.91943e-02
      6811       6815      1   0.007531  -0.026489     3.00055e-01     6.91943e-02
      6811       6814      1   0.007531   0.014340     2.60142e-01     2.09200e-02
      6811       6813      1   0.007531   0.014340     2.60142e-01     2.09200e-02
      6810       6815      1   0.007531  -0.026489     3.00055e-01     6.91943e-02
      6810       6814      1   0.007531   0.014340     2.60142e-01     2.09200e-02
      6810       6813      1   0.007531   0.014340     2.60142e-01     2.09200e-02
      6809       6816      1   0.017463   0.010564     3.00055e-01     6.91943e-02
      6809       6817      1   0.017463   0.010564     3.00055e-01     6.91943e-02
      6808       6812      1   0.025511  -0.023412     3.00055e-01     6.91943e-02
      6808       6810      1   0.025511   0.006276     2.60142e-01     2.09200e-02
      6808       6811      1   0.025511   0.006276     2.60142e-01     2.09200e-02
      6807       6812      1   0.025511  -0.023412     3.00055e-01     6.91943e-02
      6807       6810      1   0.025511   0.006276     2.60142e-01     2.09200e-02
      6807       6811      1   0.025511   0.006276     2.60142e-01     2.09200e-02
      6806       6814      1  -0.111712   0.014340     3.00055e-01     6.91943e-02
      6806       6813      1  -0.111712   0.014340     3.00055e-01     6.91943e-02
      6805       6812      1   0.025511  -0.023412     3.00055e-01     6.91943e-02
      6805       6810      1   0.025511   0.006276     2.60142e-01     2.09200e-02
      6805       6811      1   0.025511   0.006276     2.60142e-01     2.09200e-02
      6884       6886      1   0.053944  -0.559638     2.78067e-01     9.58675e-02
      6884       6887      1   0.053944  -0.479574     2.80072e-01     8.62554e-02
      6883       6886      1   0.053944  -0.559638     2.78067e-01     9.58675e-02
      6883       6887      1   0.053944  -0.479574     2.80072e-01     8.62554e-02
      6881       6884      1   0.018859   0.044953     2.60142e-01     2.09200e-02
      6881       6883      1   0.018859   0.044953     2.60142e-01     2.09200e-02
      6881       6885      1   0.018859   0.758669     3.00055e-01     6.13495e-02
      6880       6884      1   0.018859   0.044953     2.60142e-01     2.09200e-02
      6880       6883      1   0.018859   0.044953     2.60142e-01     2.09200e-02
      6880       6885      1   0.018859   0.758669     3.00055e-01     6.13495e-02
      6878       6882      1   0.020431  -0.136833     3.00055e-01     6.91943e-02
      6878       6881      1   0.020431   0.015716     2.60142e-01     2.09200e-02
      6878       6880      1   0.020431   0.015716     2.60142e-01     2.09200e-02
      6877       6882      1   0.020431  -0.136833     3.00055e-01     6.91943e-02
      6877       6881      1   0.020431   0.015716     2.60142e-01     2.09200e-02
      6877       6880      1   0.020431   0.015716     2.60142e-01     2.09200e-02
      6876       6884      1  -0.026954   0.044953     3.00055e-01     6.91943e-02
      6876       6883      1  -0.026954   0.044953     3.00055e-01     6.91943e-02
      6875       6879      1   0.010573  -0.002029     3.00055e-01     6.91943e-02
      6875       6878      1   0.010573   0.017026     2.60142e-01     2.09200e-02
      6875       6877      1   0.010573   0.017026     2.60142e-01     2.09200e-02
      6874       6879      1   0.010573  -0.002029     3.00055e-01     6.91943e-02
      6874       6878      1   0.010573   0.017026     2.60142e-01     2.09200e-02
      6874       6877      1   0.010573   0.017026     2.60142e-01     2.09200e-02
      6873       6881      1  -0.016521   0.015716     3.00055e-01     6.91943e-02
      6873       6880      1  -0.016521   0.015716     3.00055e-01     6.91943e-02
      6872       6876      1   0.011511  -0.022462     3.00055e-01     6.91943e-02
      6872       6874      1   0.011511   0.008811     2.60142e-01     2.09200e-02
      6872       6875      1   0.011511   0.008811     2.60142e-01     2.09200e-02
      6871       6876      1   0.011511  -0.022462     3.00055e-01     6.91943e-02
      6871       6874      1   0.011511   0.008811     2.60142e-01     2.09200e-02
      6871       6875      1   0.011511   0.008811     2.60142e-01     2.09200e-02
      6870       6878      1  -0.027812   0.017026     3.00055e-01     6.91943e-02
      6870       6877      1  -0.027812   0.017026     3.00055e-01     6.91943e-02
      6869       6873      1   0.006833  -0.013767     3.00055e-01     6.91943e-02
      6869       6871      1   0.006833   0.009592     2.60142e-01     2.09200e-02
      6869       6872      1   0.006833   0.009592     2.60142e-01     2.09200e-02
      6868       6873      1   0.006833  -0.013767     3.00055e-01     6.91943e-02
      6868       6871      1   0.006833   0.009592     2.60142e-01     2.09200e-02
      6868       6872      1   0.006833   0.009592     2.60142e-01     2.09200e-02
      6867       6874      1  -0.004386   0.008811     3.00055e-01     6.91943e-02
      6867       6875      1  -0.004386   0.008811     3.00055e-01     6.91943e-02
      6866       6870      1   0.011241  -0.023177     3.00055e-01     6.91943e-02
      6866       6868      1   0.011241   0.005694     2.60142e-01     2.09200e-02
      6866       6869      1   0.011241   0.005694     2.60142e-01     2.09200e-02
      6865       6870      1   0.011241  -0.023177     3.00055e-01     6.91943e-02
      6865       6868      1   0.011241   0.005694     2.60142e-01     2.09200e-02
      6865       6869      1   0.011241   0.005694     2.60142e-01     2.09200e-02
      6864       6871      1  -0.026451   0.009592     3.00055e-01     6.91943e-02
      6864       6872      1  -0.026451   0.009592     3.00055e-01     6.91943e-02
      6863       6867      1   0.010172  -0.003655     3.00055e-01     6.91943e-02
      6863       6866      1   0.010172   0.009367     2.60142e-01     2.09200e-02
      6863       6865      1   0.010172   0.009367     2.60142e-01     2.09200e-02
      6862       6867      1   0.010172  -0.003655     3.00055e-01     6.91943e-02
      6862       6866      1   0.010172   0.009367     2.60142e-01     2.09200e-02
      6862       6865      1   0.010172   0.009367     2.60142e-01     2.09200e-02
      6861       6868      1  -0.014653   0.005694     3.00055e-01     6.91943e-02
      6861       6869      1  -0.014653   0.005694     3.00055e-01     6.91943e-02
      6860       6864      1   0.010037  -0.022042     3.00055e-01     6.91943e-02
      6860       6862      1   0.010037   0.008477     2.60142e-01     2.09200e-02
      6860       6863      1   0.010037   0.008477     2.60142e-01     2.09200e-02
      6859       6864      1   0.010037  -0.022042     3.00055e-01     6.91943e-02
      6859       6862      1   0.010037   0.008477     2.60142e-01     2.09200e-02
      6859       6863      1   0.010037   0.008477     2.60142e-01     2.09200e-02
      6858       6866      1  -0.021025   0.009367     3.00055e-01     6.91943e-02
      6858       6865      1  -0.021025   0.009367     3.00055e-01     6.91943e-02
      6857       6861      1   0.012677  -0.012211     3.00055e-01     6.91943e-02
      6857       6860      1   0.012677   0.008364     2.60142e-01     2.09200e-02
      6857       6859      1   0.012677   0.008364     2.60142e-01     2.09200e-02
      6856       6861      1   0.012677  -0.012211     3.00055e-01     6.91943e-02
      6856       6860      1   0.012677   0.008364     2.60142e-01     2.09200e-02
      6856       6859      1   0.012677   0.008364     2.60142e-01     2.09200e-02
      6855       6862      1  -0.031787   0.008477     3.00055e-01     6.91943e-02
      6855       6863      1  -0.031787   0.008477     3.00055e-01     6.91943e-02
      6854       6858      1   0.017208  -0.017521     3.00055e-01     6.91943e-02
      6854       6856      1   0.017208   0.010564     2.60142e-01     2.09200e-02
      6854       6857      1   0.017208   0.010564     2.60142e-01     2.09200e-02
      6853       6858      1   0.017208  -0.017521     3.00055e-01     6.91943e-02
      6853       6856      1   0.017208   0.010564     2.60142e-01     2.09200e-02
      6853       6857      1   0.017208   0.010564     2.60142e-01     2.09200e-02
      6852       6860      1  -0.028094   0.008364     3.00055e-01     6.91943e-02
      6852       6859      1  -0.028094   0.008364     3.00055e-01     6.91943e-02
      6851       6855      1   0.007531  -0.026489     3.00055e-01     6.91943e-02
      6851       6854      1   0.007531   0.014340     2.60142e-01     2.09200e-02
      6851       6853      1   0.007531   0.014340     2.60142e-01     2.09200e-02
      6850       6855      1   0.007531  -0.026489     3.00055e-01     6.91943e-02
      6850       6854      1   0.007531   0.014340     2.60142e-01     2.09200e-02
      6850       6853      1   0.007531   0.014340     2.60142e-01     2.09200e-02
      6849       6856      1   0.017463   0.010564     3.00055e-01     6.91943e-02
      6849       6857      1   0.017463   0.010564     3.00055e-01     6.91943e-02
      6848       6852      1   0.025511  -0.023412     3.00055e-01     6.91943e-02
      6848       6850      1   0.025511   0.006276     2.60142e-01     2.09200e-02
      6848       6851      1   0.025511   0.006276     2.60142e-01     2.09200e-02
      6847       6852      1   0.025511  -0.023412     3.00055e-01     6.91943e-02
      6847       6850      1   0.025511   0.006276     2.60142e-01     2.09200e-02
      6847       6851      1   0.025511   0.006276     2.60142e-01     2.09200e-02
      6846       6854      1  -0.111712   0.014340     3.00055e-01     6.91943e-02
      6846       6853      1  -0.111712   0.014340     3.00055e-01     6.91943e-02
      6845       6852      1   0.025511  -0.023412     3.00055e-01     6.91943e-02
      6845       6850      1   0.025511   0.006276     2.60142e-01     2.09200e-02
      6845       6851      1   0.025511   0.006276     2.60142e-01     2.09200e-02
      6922       6962      1  -0.673755   0.044953     2.78067e-01     9.58675e-02
      6922       6961      1  -0.673755   0.044953     2.78067e-01     9.58675e-02
      6921       6959      1   0.897613   0.015716     3.00055e-01     6.13495e-02
      6921       6958      1   0.897613   0.015716     3.00055e-01     6.13495e-02
      6920       6962      1  -0.552948   0.044953     2.80072e-01     8.62554e-02
      6920       6961      1  -0.552948   0.044953     2.80072e-01     8.62554e-02
      6913       6914      1   0.172230  -0.282478     2.67982e-01     8.67002e-02
      6912       6914      1   0.172230  -0.282478     2.67982e-01     8.67002e-02
      6911       6914      1   0.172230  -0.282478     2.67982e-01     8.67002e-02
      6910       6915      1  -0.338973   0.143525     2.67982e-01     8.67002e-02
      6910       6916      1  -0.338973   0.143525     2.67982e-01     8.67002e-02
      6910       6917      1  -0.338973   0.143525     2.67982e-01     8.67002e-02
      6909       6910      1   0.172230  -0.282478     2.67982e-01     8.67002e-02
      6909       6914      1   0.172230  -0.282478     2.67982e-01     8.67002e-02
      6908       6910      1   0.172230  -0.282478     2.67982e-01     8.67002e-02
      6908       6914      1   0.172230  -0.282478     2.67982e-01     8.67002e-02
      6907       6910      1   0.172230  -0.282478     2.67982e-01     8.67002e-02
      6907       6914      1   0.172230  -0.282478     2.67982e-01     8.67002e-02
      6906       6911      1  -0.338973   0.143525     2.67982e-01     8.67002e-02
      6906       6912      1  -0.338973   0.143525     2.67982e-01     8.67002e-02
      6906       6913      1  -0.338973   0.143525     2.67982e-01     8.67002e-02
      6906       6915      1  -0.338973   0.143525     2.67982e-01     8.67002e-02
      6906       6916      1  -0.338973   0.143525     2.67982e-01     8.67002e-02
      6906       6917      1  -0.338973   0.143525     2.67982e-01     8.67002e-02
      6904       6906      1   0.136415  -0.282478     2.67982e-01     8.67002e-02
      6904       6910      1   0.136415  -0.282478     2.67982e-01     8.67002e-02
      6904       6914      1   0.136415  -0.282478     2.67982e-01     8.67002e-02
      6903       6906      1   0.136415  -0.282478     2.67982e-01     8.67002e-02
      6903       6910      1   0.136415  -0.282478     2.67982e-01     8.67002e-02
      6903       6914      1   0.136415  -0.282478     2.67982e-01     8.67002e-02
      6902       6907      1  -0.170824   0.143525     2.67982e-01     8.67002e-02
      6902       6908      1  -0.170824   0.143525     2.67982e-01     8.67002e-02
      6902       6909      1  -0.170824   0.143525     2.67982e-01     8.67002e-02
      6902       6911      1  -0.170824   0.143525     2.67982e-01     8.67002e-02
      6902       6912      1  -0.170824   0.143525     2.67982e-01     8.67002e-02
      6902       6913      1  -0.170824   0.143525     2.67982e-01     8.67002e-02
      6902       6915      1  -0.170824   0.143525     2.67982e-01     8.67002e-02
      6902       6916      1  -0.170824   0.143525     2.67982e-01     8.67002e-02
      6902       6917      1  -0.170824   0.143525     2.67982e-01     8.67002e-02
      6901       6903      1   0.078534   0.113679     2.21567e-01     3.28444e-02
      6901       6904      1   0.078534   0.113679     2.21567e-01     3.28444e-02
      6901       6905      1   0.078534   0.204385     2.86068e-01     1.08078e-01
      6900       6903      1   0.078534   0.113679     2.21567e-01     3.28444e-02
      6900       6904      1   0.078534   0.113679     2.21567e-01     3.28444e-02
      6900       6905      1   0.078534   0.204385     2.86068e-01     1.08078e-01
      6898       6903      1  -0.508176   0.113679     2.47999e-01     1.08078e-01
      6898       6904      1  -0.508176   0.113679     2.47999e-01     1.08078e-01
      6897       6900      1   1.339721   0.065445     3.10656e-01     1.17227e-01
      6897       6901      1   1.339721   0.065445     3.10656e-01     1.17227e-01
      6895       6920      1   0.095591  -0.460790     2.73568e-01     1.08078e-01
      6895       6897      1   0.095591   1.116434     3.10656e-01     1.17227e-01
      6894       6920      1   0.095591  -0.460790     2.73568e-01     1.08078e-01
      6894       6897      1   0.095591   1.116434     3.10656e-01     1.17227e-01
      6892       6894      1   0.063253   0.079659     2.47135e-01     3.28444e-02
      6892       6895      1   0.063253   0.079659     2.47135e-01     3.28444e-02
      6892       6896      1   0.063253  -0.424567     2.73568e-01     1.08078e-01
      6892       6921      1   0.063253   0.748011     2.93551e-01     7.68707e-02
      6890       6892      1   0.070469   0.052711     2.47135e-01     3.28444e-02
      6890       6893      1   0.070469   0.014549     2.93551e-01     8.67002e-02
      6890       6920      1   0.070469  -0.460790     2.73568e-01     1.08078e-01
      6889       6892      1   0.070469   0.052711     2.47135e-01     3.28444e-02
      6889       6893      1   0.070469   0.014549     2.93551e-01     8.67002e-02
      6889       6920      1   0.070469  -0.460790     2.73568e-01     1.08078e-01
      6888       6894      1   0.196939   0.079659     2.93551e-01     8.67002e-02
      6888       6895      1   0.196939   0.079659     2.93551e-01     8.67002e-02
      6887       6892      1  -0.575489   0.052711     2.73568e-01     1.08078e-01
      6885       6889      1   0.910403   0.058724     2.93551e-01     7.68707e-02
      6885       6890      1   0.910403   0.058724     2.93551e-01     7.68707e-02
      6959       6962      1   0.018859   0.044953     2.60142e-01     2.09200e-02
      6959       6961      1   0.018859   0.044953     2.60142e-01     2.09200e-02
      6958       6962      1   0.018859   0.044953     2.60142e-01     2.09200e-02
      6958       6961      1   0.018859   0.044953     2.60142e-01     2.09200e-02
      6956       6960      1   0.020431  -0.136833     3.00055e-01     6.91943e-02
      6956       6959      1   0.020431   0.015716     2.60142e-01     2.09200e-02
      6956       6958      1   0.020431   0.015716     2.60142e-01     2.09200e-02
      6955       6960      1   0.020431  -0.136833     3.00055e-01     6.91943e-02
      6955       6959      1   0.020431   0.015716     2.60142e-01     2.09200e-02
      6955       6958      1   0.020431   0.015716     2.60142e-01     2.09200e-02
      6954       6962      1  -0.026954   0.044953     3.00055e-01     6.91943e-02
      6954       6961      1  -0.026954   0.044953     3.00055e-01     6.91943e-02
      6953       6957      1   0.010573  -0.002029     3.00055e-01     6.91943e-02
      6953       6956      1   0.010573   0.017026     2.60142e-01     2.09200e-02
      6953       6955      1   0.010573   0.017026     2.60142e-01     2.09200e-02
      6952       6957      1   0.010573  -0.002029     3.00055e-01     6.91943e-02
      6952       6956      1   0.010573   0.017026     2.60142e-01     2.09200e-02
      6952       6955      1   0.010573   0.017026     2.60142e-01     2.09200e-02
      6951       6959      1  -0.016521   0.015716     3.00055e-01     6.91943e-02
      6951       6958      1  -0.016521   0.015716     3.00055e-01     6.91943e-02
      6950       6954      1   0.011511  -0.022462     3.00055e-01     6.91943e-02
      6950       6952      1   0.011511   0.008811     2.60142e-01     2.09200e-02
      6950       6953      1   0.011511   0.008811     2.60142e-01     2.09200e-02
      6949       6954      1   0.011511  -0.022462     3.00055e-01     6.91943e-02
      6949       6952      1   0.011511   0.008811     2.60142e-01     2.09200e-02
      6949       6953      1   0.011511   0.008811     2.60142e-01     2.09200e-02
      6948       6956      1  -0.027812   0.017026     3.00055e-01     6.91943e-02
      6948       6955      1  -0.027812   0.017026     3.00055e-01     6.91943e-02
      6947       6951      1   0.006833  -0.013767     3.00055e-01     6.91943e-02
      6947       6949      1   0.006833   0.009592     2.60142e-01     2.09200e-02
      6947       6950      1   0.006833   0.009592     2.60142e-01     2.09200e-02
      6946       6951      1   0.006833  -0.013767     3.00055e-01     6.91943e-02
      6946       6949      1   0.006833   0.009592     2.60142e-01     2.09200e-02
      6946       6950      1   0.006833   0.009592     2.60142e-01     2.09200e-02
      6945       6952      1  -0.004386   0.008811     3.00055e-01     6.91943e-02
      6945       6953      1  -0.004386   0.008811     3.00055e-01     6.91943e-02
      6944       6948      1   0.011241  -0.023177     3.00055e-01     6.91943e-02
      6944       6946      1   0.011241   0.005694     2.60142e-01     2.09200e-02
      6944       6947      1   0.011241   0.005694     2.60142e-01     2.09200e-02
      6943       6948      1   0.011241  -0.023177     3.00055e-01     6.91943e-02
      6943       6946      1   0.011241   0.005694     2.60142e-01     2.09200e-02
      6943       6947      1   0.011241   0.005694     2.60142e-01     2.09200e-02
      6942       6949      1  -0.026451   0.009592     3.00055e-01     6.91943e-02
      6942       6950      1  -0.026451   0.009592     3.00055e-01     6.91943e-02
      6941       6945      1   0.010172  -0.003655     3.00055e-01     6.91943e-02
      6941       6944      1   0.010172   0.009367     2.60142e-01     2.09200e-02
      6941       6943      1   0.010172   0.009367     2.60142e-01     2.09200e-02
      6940       6945      1   0.010172  -0.003655     3.00055e-01     6.91943e-02
      6940       6944      1   0.010172   0.009367     2.60142e-01     2.09200e-02
      6940       6943      1   0.010172   0.009367     2.60142e-01     2.09200e-02
      6939       6946      1  -0.014653   0.005694     3.00055e-01     6.91943e-02
      6939       6947      1  -0.014653   0.005694     3.00055e-01     6.91943e-02
      6938       6942      1   0.010037  -0.022042     3.00055e-01     6.91943e-02
      6938       6940      1   0.010037   0.008477     2.60142e-01     2.09200e-02
      6938       6941      1   0.010037   0.008477     2.60142e-01     2.09200e-02
      6937       6942      1   0.010037  -0.022042     3.00055e-01     6.91943e-02
      6937       6940      1   0.010037   0.008477     2.60142e-01     2.09200e-02
      6937       6941      1   0.010037   0.008477     2.60142e-01     2.09200e-02
      6936       6944      1  -0.021025   0.009367     3.00055e-01     6.91943e-02
      6936       6943      1  -0.021025   0.009367     3.00055e-01     6.91943e-02
      6935       6939      1   0.012677  -0.012211     3.00055e-01     6.91943e-02
      6935       6938      1   0.012677   0.008364     2.60142e-01     2.09200e-02
      6935       6937      1   0.012677   0.008364     2.60142e-01     2.09200e-02
      6934       6939      1   0.012677  -0.012211     3.00055e-01     6.91943e-02
      6934       6938      1   0.012677   0.008364     2.60142e-01     2.09200e-02
      6934       6937      1   0.012677   0.008364     2.60142e-01     2.09200e-02
      6933       6940      1  -0.031787   0.008477     3.00055e-01     6.91943e-02
      6933       6941      1  -0.031787   0.008477     3.00055e-01     6.91943e-02
      6932       6936      1   0.017208  -0.017521     3.00055e-01     6.91943e-02
      6932       6934      1   0.017208   0.010564     2.60142e-01     2.09200e-02
      6932       6935      1   0.017208   0.010564     2.60142e-01     2.09200e-02
      6931       6936      1   0.017208  -0.017521     3.00055e-01     6.91943e-02
      6931       6934      1   0.017208   0.010564     2.60142e-01     2.09200e-02
      6931       6935      1   0.017208   0.010564     2.60142e-01     2.09200e-02
      6930       6938      1  -0.028094   0.008364     3.00055e-01     6.91943e-02
      6930       6937      1  -0.028094   0.008364     3.00055e-01     6.91943e-02
      6929       6933      1   0.007531  -0.026489     3.00055e-01     6.91943e-02
      6929       6932      1   0.007531   0.014340     2.60142e-01     2.09200e-02
      6929       6931      1   0.007531   0.014340     2.60142e-01     2.09200e-02
      6928       6933      1   0.007531  -0.026489     3.00055e-01     6.91943e-02
      6928       6932      1   0.007531   0.014340     2.60142e-01     2.09200e-02
      6928       6931      1   0.007531   0.014340     2.60142e-01     2.09200e-02
      6927       6934      1   0.017463   0.010564     3.00055e-01     6.91943e-02
      6927       6935      1   0.017463   0.010564     3.00055e-01     6.91943e-02
      6926       6930      1   0.025511  -0.023412     3.00055e-01     6.91943e-02
      6926       6928      1   0.025511   0.006276     2.60142e-01     2.09200e-02
      6926       6929      1   0.025511   0.006276     2.60142e-01     2.09200e-02
      6925       6930      1   0.025511  -0.023412     3.00055e-01     6.91943e-02
      6925       6928      1   0.025511   0.006276     2.60142e-01     2.09200e-02
      6925       6929      1   0.025511   0.006276     2.60142e-01     2.09200e-02
      6924       6932      1  -0.111712   0.014340     3.00055e-01     6.91943e-02
      6924       6931      1  -0.111712   0.014340     3.00055e-01     6.91943e-02
      6923       6930      1   0.025511  -0.023412     3.00055e-01     6.91943e-02
      6923       6928      1   0.025511   0.006276     2.60142e-01     2.09200e-02
      6923       6929      1   0.025511   0.006276     2.60142e-01     2.09200e-02
      7002       7004      1   0.053944  -0.559638     2.78067e-01     9.58675e-02
      7002       7005      1   0.053944  -0.479574     2.80072e-01     8.62554e-02
      7001       7004      1   0.053944  -0.559638     2.78067e-01     9.58675e-02
      7001       7005      1   0.053944  -0.479574     2.80072e-01     8.62554e-02
      6999       7002      1   0.018859   0.044953     2.60142e-01     2.09200e-02
      6999       7001      1   0.018859   0.044953     2.60142e-01     2.09200e-02
      6999       7003      1   0.018859   0.758669     3.00055e-01     6.13495e-02
      6998       7002      1   0.018859   0.044953     2.60142e-01     2.09200e-02
      6998       7001      1   0.018859   0.044953     2.60142e-01     2.09200e-02
      6998       7003      1   0.018859   0.758669     3.00055e-01     6.13495e-02
      6996       7000      1   0.020431  -0.136833     3.00055e-01     6.91943e-02
      6996       6999      1   0.020431   0.015716     2.60142e-01     2.09200e-02
      6996       6998      1   0.020431   0.015716     2.60142e-01     2.09200e-02
      6995       7000      1   0.020431  -0.136833     3.00055e-01     6.91943e-02
      6995       6999      1   0.020431   0.015716     2.60142e-01     2.09200e-02
      6995       6998      1   0.020431   0.015716     2.60142e-01     2.09200e-02
      6994       7002      1  -0.026954   0.044953     3.00055e-01     6.91943e-02
      6994       7001      1  -0.026954   0.044953     3.00055e-01     6.91943e-02
      6993       6997      1   0.010573  -0.002029     3.00055e-01     6.91943e-02
      6993       6996      1   0.010573   0.017026     2.60142e-01     2.09200e-02
      6993       6995      1   0.010573   0.017026     2.60142e-01     2.09200e-02
      6992       6997      1   0.010573  -0.002029     3.00055e-01     6.91943e-02
      6992       6996      1   0.010573   0.017026     2.60142e-01     2.09200e-02
      6992       6995      1   0.010573   0.017026     2.60142e-01     2.09200e-02
      6991       6999      1  -0.016521   0.015716     3.00055e-01     6.91943e-02
      6991       6998      1  -0.016521   0.015716     3.00055e-01     6.91943e-02
      6990       6994      1   0.011511  -0.022462     3.00055e-01     6.91943e-02
      6990       6992      1   0.011511   0.008811     2.60142e-01     2.09200e-02
      6990       6993      1   0.011511   0.008811     2.60142e-01     2.09200e-02
      6989       6994      1   0.011511  -0.022462     3.00055e-01     6.91943e-02
      6989       6992      1   0.011511   0.008811     2.60142e-01     2.09200e-02
      6989       6993      1   0.011511   0.008811     2.60142e-01     2.09200e-02
      6988       6996      1  -0.027812   0.017026     3.00055e-01     6.91943e-02
      6988       6995      1  -0.027812   0.017026     3.00055e-01     6.91943e-02
      6987       6991      1   0.006833  -0.013767     3.00055e-01     6.91943e-02
      6987       6989      1   0.006833   0.009592     2.60142e-01     2.09200e-02
      6987       6990      1   0.006833   0.009592     2.60142e-01     2.09200e-02
      6986       6991      1   0.006833  -0.013767     3.00055e-01     6.91943e-02
      6986       6989      1   0.006833   0.009592     2.60142e-01     2.09200e-02
      6986       6990      1   0.006833   0.009592     2.60142e-01     2.09200e-02
      6985       6992      1  -0.004386   0.008811     3.00055e-01     6.91943e-02
      6985       6993      1  -0.004386   0.008811     3.00055e-01     6.91943e-02
      6984       6988      1   0.011241  -0.023177     3.00055e-01     6.91943e-02
      6984       6986      1   0.011241   0.005694     2.60142e-01     2.09200e-02
      6984       6987      1   0.011241   0.005694     2.60142e-01     2.09200e-02
      6983       6988      1   0.011241  -0.023177     3.00055e-01     6.91943e-02
      6983       6986      1   0.011241   0.005694     2.60142e-01     2.09200e-02
      6983       6987      1   0.011241   0.005694     2.60142e-01     2.09200e-02
      6982       6989      1  -0.026451   0.009592     3.00055e-01     6.91943e-02
      6982       6990      1  -0.026451   0.009592     3.00055e-01     6.91943e-02
      6981       6985      1   0.010172  -0.003655     3.00055e-01     6.91943e-02
      6981       6984      1   0.010172   0.009367     2.60142e-01     2.09200e-02
      6981       6983      1   0.010172   0.009367     2.60142e-01     2.09200e-02
      6980       6985      1   0.010172  -0.003655     3.00055e-01     6.91943e-02
      6980       6984      1   0.010172   0.009367     2.60142e-01     2.09200e-02
      6980       6983      1   0.010172   0.009367     2.60142e-01     2.09200e-02
      6979       6986      1  -0.014653   0.005694     3.00055e-01     6.91943e-02
      6979       6987      1  -0.014653   0.005694     3.00055e-01     6.91943e-02
      6978       6982      1   0.010037  -0.022042     3.00055e-01     6.91943e-02
      6978       6980      1   0.010037   0.008477     2.60142e-01     2.09200e-02
      6978       6981      1   0.010037   0.008477     2.60142e-01     2.09200e-02
      6977       6982      1   0.010037  -0.022042     3.00055e-01     6.91943e-02
      6977       6980      1   0.010037   0.008477     2.60142e-01     2.09200e-02
      6977       6981      1   0.010037   0.008477     2.60142e-01     2.09200e-02
      6976       6984      1  -0.021025   0.009367     3.00055e-01     6.91943e-02
      6976       6983      1  -0.021025   0.009367     3.00055e-01     6.91943e-02
      6975       6979      1   0.012677  -0.012211     3.00055e-01     6.91943e-02
      6975       6978      1   0.012677   0.008364     2.60142e-01     2.09200e-02
      6975       6977      1   0.012677   0.008364     2.60142e-01     2.09200e-02
      6974       6979      1   0.012677  -0.012211     3.00055e-01     6.91943e-02
      6974       6978      1   0.012677   0.008364     2.60142e-01     2.09200e-02
      6974       6977      1   0.012677   0.008364     2.60142e-01     2.09200e-02
      6973       6980      1  -0.031787   0.008477     3.00055e-01     6.91943e-02
      6973       6981      1  -0.031787   0.008477     3.00055e-01     6.91943e-02
      6972       6976      1   0.017208  -0.017521     3.00055e-01     6.91943e-02
      6972       6974      1   0.017208   0.010564     2.60142e-01     2.09200e-02
      6972       6975      1   0.017208   0.010564     2.60142e-01     2.09200e-02
      6971       6976      1   0.017208  -0.017521     3.00055e-01     6.91943e-02
      6971       6974      1   0.017208   0.010564     2.60142e-01     2.09200e-02
      6971       6975      1   0.017208   0.010564     2.60142e-01     2.09200e-02
      6970       6978      1  -0.028094   0.008364     3.00055e-01     6.91943e-02
      6970       6977      1  -0.028094   0.008364     3.00055e-01     6.91943e-02
      6969       6973      1   0.007531  -0.026489     3.00055e-01     6.91943e-02
      6969       6972      1   0.007531   0.014340     2.60142e-01     2.09200e-02
      6969       6971      1   0.007531   0.014340     2.60142e-01     2.09200e-02
      6968       6973      1   0.007531  -0.026489     3.00055e-01     6.91943e-02
      6968       6972      1   0.007531   0.014340     2.60142e-01     2.09200e-02
      6968       6971      1   0.007531   0.014340     2.60142e-01     2.09200e-02
      6967       6974      1   0.017463   0.010564     3.00055e-01     6.91943e-02
      6967       6975      1   0.017463   0.010564     3.00055e-01     6.91943e-02
      6966       6970      1   0.025511  -0.023412     3.00055e-01     6.91943e-02
      6966       6968      1   0.025511   0.006276     2.60142e-01     2.09200e-02
      6966       6969      1   0.025511   0.006276     2.60142e-01     2.09200e-02
      6965       6970      1   0.025511  -0.023412     3.00055e-01     6.91943e-02
      6965       6968      1   0.025511   0.006276     2.60142e-01     2.09200e-02
      6965       6969      1   0.025511   0.006276     2.60142e-01     2.09200e-02
      6964       6972      1  -0.111712   0.014340     3.00055e-01     6.91943e-02
      6964       6971      1  -0.111712   0.014340     3.00055e-01     6.91943e-02
      6963       6970      1   0.025511  -0.023412     3.00055e-01     6.91943e-02
      6963       6968      1   0.025511   0.006276     2.60142e-01     2.09200e-02
      6963       6969      1   0.025511   0.006276     2.60142e-01     2.09200e-02
      7040       7080      1  -0.673755   0.044953     2.78067e-01     9.58675e-02
      7040       7079      1  -0.673755   0.044953     2.78067e-01     9.58675e-02
      7039       7077      1   0.897613   0.015716     3.00055e-01     6.13495e-02
      7039       7076      1   0.897613   0.015716     3.00055e-01     6.13495e-02
      7038       7080      1  -0.552948   0.044953     2.80072e-01     8.62554e-02
      7038       7079      1  -0.552948   0.044953     2.80072e-01     8.62554e-02
      7031       7032      1   0.172230  -0.282478     2.67982e-01     8.67002e-02
      7030       7032      1   0.172230  -0.282478     2.67982e-01     8.67002e-02
      7029       7032      1   0.172230  -0.282478     2.67982e-01     8.67002e-02
      7028       7033      1  -0.338973   0.143525     2.67982e-01     8.67002e-02
      7028       7034      1  -0.338973   0.143525     2.67982e-01     8.67002e-02
      7028       7035      1  -0.338973   0.143525     2.67982e-01     8.67002e-02
      7027       7028      1   0.172230  -0.282478     2.67982e-01     8.67002e-02
      7027       7032      1   0.172230  -0.282478     2.67982e-01     8.67002e-02
      7026       7028      1   0.172230  -0.282478     2.67982e-01     8.67002e-02
      7026       7032      1   0.172230  -0.282478     2.67982e-01     8.67002e-02
      7025       7028      1   0.172230  -0.282478     2.67982e-01     8.67002e-02
      7025       7032      1   0.172230  -0.282478     2.67982e-01     8.67002e-02
      7024       7029      1  -0.338973   0.143525     2.67982e-01     8.67002e-02
      7024       7030      1  -0.338973   0.143525     2.67982e-01     8.67002e-02
      7024       7031      1  -0.338973   0.143525     2.67982e-01     8.67002e-02
      7024       7033      1  -0.338973   0.143525     2.67982e-01     8.67002e-02
      7024       7034      1  -0.338973   0.143525     2.67982e-01     8.67002e-02
      7024       7035      1  -0.338973   0.143525     2.67982e-01     8.67002e-02
      7022       7024      1   0.136415  -0.282478     2.67982e-01     8.67002e-02
      7022       7028      1   0.136415  -0.282478     2.67982e-01     8.67002e-02
      7022       7032      1   0.136415  -0.282478     2.67982e-01     8.67002e-02
      7021       7024      1   0.136415  -0.282478     2.67982e-01     8.67002e-02
      7021       7028      1   0.136415  -0.282478     2.67982e-01     8.67002e-02
      7021       7032      1   0.136415  -0.282478     2.67982e-01     8.67002e-02
      7020       7025      1  -0.170824   0.143525     2.67982e-01     8.67002e-02
      7020       7026      1  -0.170824   0.143525     2.67982e-01     8.67002e-02
      7020       7027      1  -0.170824   0.143525     2.67982e-01     8.67002e-02
      7020       7029      1  -0.170824   0.143525     2.67982e-01     8.67002e-02
      7020       7030      1  -0.170824   0.143525     2.67982e-01     8.67002e-02
      7020       7031      1  -0.170824   0.143525     2.67982e-01     8.67002e-02
      7020       7033      1  -0.170824   0.143525     2.67982e-01     8.67002e-02
      7020       7034      1  -0.170824   0.143525     2.67982e-01     8.67002e-02
      7020       7035      1  -0.170824   0.143525     2.67982e-01     8.67002e-02
      7019       7021      1   0.078534   0.113679     2.21567e-01     3.28444e-02
      7019       7022      1   0.078534   0.113679     2.21567e-01     3.28444e-02
      7019       7023      1   0.078534   0.204385     2.86068e-01     1.08078e-01
      7018       7021      1   0.078534   0.113679     2.21567e-01     3.28444e-02
      7018       7022      1   0.078534   0.113679     2.21567e-01     3.28444e-02
      7018       7023      1   0.078534   0.204385     2.86068e-01     1.08078e-01
      7016       7021      1  -0.508176   0.113679     2.47999e-01     1.08078e-01
      7016       7022      1  -0.508176   0.113679     2.47999e-01     1.08078e-01
      7015       7018      1   1.339721   0.065445     3.10656e-01     1.17227e-01
      7015       7019      1   1.339721   0.065445     3.10656e-01     1.17227e-01
      7013       7038      1   0.095591  -0.460790     2.73568e-01     1.08078e-01
      7013       7015      1   0.095591   1.116434     3.10656e-01     1.17227e-01
      7012       7038      1   0.095591  -0.460790     2.73568e-01     1.08078e-01
      7012       7015      1   0.095591   1.116434     3.10656e-01     1.17227e-01
      7010       7012      1   0.063253   0.079659     2.47135e-01     3.28444e-02
      7010       7013      1   0.063253   0.079659     2.47135e-01     3.28444e-02
      7010       7014      1   0.063253  -0.424567     2.73568e-01     1.08078e-01
      7010       7039      1   0.063253   0.748011     2.93551e-01     7.68707e-02
      7008       7010      1   0.070469   0.052711     2.47135e-01     3.28444e-02
      7008       7011      1   0.070469   0.014549     2.93551e-01     8.67002e-02
      7008       7038      1   0.070469  -0.460790     2.73568e-01     1.08078e-01
      7007       7010      1   0.070469   0.052711     2.47135e-01     3.28444e-02
      7007       7011      1   0.070469   0.014549     2.93551e-01     8.67002e-02
      7007       7038      1   0.070469  -0.460790     2.73568e-01     1.08078e-01
      7006       7012      1   0.196939   0.079659     2.93551e-01     8.67002e-02
      7006       7013      1   0.196939   0.079659     2.93551e-01     8.67002e-02
      7005       7010      1  -0.575489   0.052711     2.73568e-01     1.08078e-01
      7003       7007      1   0.910403   0.058724     2.93551e-01     7.68707e-02
      7003       7008      1   0.910403   0.058724     2.93551e-01     7.68707e-02
      7077       7080      1   0.018859   0.044953     2.60142e-01     2.09200e-02
      7077       7079      1   0.018859   0.044953     2.60142e-01     2.09200e-02
      7076       7080      1   0.018859   0.044953     2.60142e-01     2.09200e-02
      7076       7079      1   0.018859   0.044953     2.60142e-01     2.09200e-02
      7074       7078      1   0.020431  -0.136833     3.00055e-01     6.91943e-02
      7074       7077      1   0.020431   0.015716     2.60142e-01     2.09200e-02
      7074       7076      1   0.020431   0.015716     2.60142e-01     2.09200e-02
      7073       7078      1   0.020431  -0.136833     3.00055e-01     6.91943e-02
      7073       7077      1   0.020431   0.015716     2.60142e-01     2.09200e-02
      7073       7076      1   0.020431   0.015716     2.60142e-01     2.09200e-02
      7072       7080      1  -0.026954   0.044953     3.00055e-01     6.91943e-02
      7072       7079      1  -0.026954   0.044953     3.00055e-01     6.91943e-02
      7071       7075      1   0.010573  -0.002029     3.00055e-01     6.91943e-02
      7071       7074      1   0.010573   0.017026     2.60142e-01     2.09200e-02
      7071       7073      1   0.010573   0.017026     2.60142e-01     2.09200e-02
      7070       7075      1   0.010573  -0.002029     3.00055e-01     6.91943e-02
      7070       7074      1   0.010573   0.017026     2.60142e-01     2.09200e-02
      7070       7073      1   0.010573   0.017026     2.60142e-01     2.09200e-02
      7069       7077      1  -0.016521   0.015716     3.00055e-01     6.91943e-02
      7069       7076      1  -0.016521   0.015716     3.00055e-01     6.91943e-02
      7068       7072      1   0.011511  -0.022462     3.00055e-01     6.91943e-02
      7068       7070      1   0.011511   0.008811     2.60142e-01     2.09200e-02
      7068       7071      1   0.011511   0.008811     2.60142e-01     2.09200e-02
      7067       7072      1   0.011511  -0.022462     3.00055e-01     6.91943e-02
      7067       7070      1   0.011511   0.008811     2.60142e-01     2.09200e-02
      7067       7071      1   0.011511   0.008811     2.60142e-01     2.09200e-02
      7066       7074      1  -0.027812   0.017026     3.00055e-01     6.91943e-02
      7066       7073      1  -0.027812   0.017026     3.00055e-01     6.91943e-02
      7065       7069      1   0.006833  -0.013767     3.00055e-01     6.91943e-02
      7065       7067      1   0.006833   0.009592     2.60142e-01     2.09200e-02
      7065       7068      1   0.006833   0.009592     2.60142e-01     2.09200e-02
      7064       7069      1   0.006833  -0.013767     3.00055e-01     6.91943e-02
      7064       7067      1   0.006833   0.009592     2.60142e-01     2.09200e-02
      7064       7068      1   0.006833   0.009592     2.60142e-01     2.09200e-02
      7063       7070      1  -0.004386   0.008811     3.00055e-01     6.91943e-02
      7063       7071      1  -0.004386   0.008811     3.00055e-01     6.91943e-02
      7062       7066      1   0.011241  -0.023177     3.00055e-01     6.91943e-02
      7062       7064      1   0.011241   0.005694     2.60142e-01     2.09200e-02
      7062       7065      1   0.011241   0.005694     2.60142e-01     2.09200e-02
      7061       7066      1   0.011241  -0.023177     3.00055e-01     6.91943e-02
      7061       7064      1   0.011241   0.005694     2.60142e-01     2.09200e-02
      7061       7065      1   0.011241   0.005694     2.60142e-01     2.09200e-02
      7060       7067      1  -0.026451   0.009592     3.00055e-01     6.91943e-02
      7060       7068      1  -0.026451   0.009592     3.00055e-01     6.91943e-02
      7059       7063      1   0.010172  -0.003655     3.00055e-01     6.91943e-02
      7059       7062      1   0.010172   0.009367     2.60142e-01     2.09200e-02
      7059       7061      1   0.010172   0.009367     2.60142e-01     2.09200e-02
      7058       7063      1   0.010172  -0.003655     3.00055e-01     6.91943e-02
      7058       7062      1   0.010172   0.009367     2.60142e-01     2.09200e-02
      7058       7061      1   0.010172   0.009367     2.60142e-01     2.09200e-02
      7057       7064      1  -0.014653   0.005694     3.00055e-01     6.91943e-02
      7057       7065      1  -0.014653   0.005694     3.00055e-01     6.91943e-02
      7056       7060      1   0.010037  -0.022042     3.00055e-01     6.91943e-02
      7056       7058      1   0.010037   0.008477     2.60142e-01     2.09200e-02
      7056       7059      1   0.010037   0.008477     2.60142e-01     2.09200e-02
      7055       7060      1   0.010037  -0.022042     3.00055e-01     6.91943e-02
      7055       7058      1   0.010037   0.008477     2.60142e-01     2.09200e-02
      7055       7059      1   0.010037   0.008477     2.60142e-01     2.09200e-02
      7054       7062      1  -0.021025   0.009367     3.00055e-01     6.91943e-02
      7054       7061      1  -0.021025   0.009367     3.00055e-01     6.91943e-02
      7053       7057      1   0.012677  -0.012211     3.00055e-01     6.91943e-02
      7053       7056      1   0.012677   0.008364     2.60142e-01     2.09200e-02
      7053       7055      1   0.012677   0.008364     2.60142e-01     2.09200e-02
      7052       7057      1   0.012677  -0.012211     3.00055e-01     6.91943e-02
      7052       7056      1   0.012677   0.008364     2.60142e-01     2.09200e-02
      7052       7055      1   0.012677   0.008364     2.60142e-01     2.09200e-02
      7051       7058      1  -0.031787   0.008477     3.00055e-01     6.91943e-02
      7051       7059      1  -0.031787   0.008477     3.00055e-01     6.91943e-02
      7050       7054      1   0.017208  -0.017521     3.00055e-01     6.91943e-02
      7050       7052      1   0.017208   0.010564     2.60142e-01     2.09200e-02
      7050       7053      1   0.017208   0.010564     2.60142e-01     2.09200e-02
      7049       7054      1   0.017208  -0.017521     3.00055e-01     6.91943e-02
      7049       7052      1   0.017208   0.010564     2.60142e-01     2.09200e-02
      7049       7053      1   0.017208   0.010564     2.60142e-01     2.09200e-02
      7048       7056      1  -0.028094   0.008364     3.00055e-01     6.91943e-02
      7048       7055      1  -0.028094   0.008364     3.00055e-01     6.91943e-02
      7047       7051      1   0.007531  -0.026489     3.00055e-01     6.91943e-02
      7047       7050      1   0.007531   0.014340     2.60142e-01     2.09200e-02
      7047       7049      1   0.007531   0.014340     2.60142e-01     2.09200e-02
      7046       7051      1   0.007531  -0.026489     3.00055e-01     6.91943e-02
      7046       7050      1   0.007531   0.014340     2.60142e-01     2.09200e-02
      7046       7049      1   0.007531   0.014340     2.60142e-01     2.09200e-02
      7045       7052      1   0.017463   0.010564     3.00055e-01     6.91943e-02
      7045       7053      1   0.017463   0.010564     3.00055e-01     6.91943e-02
      7044       7048      1   0.025511  -0.023412     3.00055e-01     6.91943e-02
      7044       7046      1   0.025511   0.006276     2.60142e-01     2.09200e-02
      7044       7047      1   0.025511   0.006276     2.60142e-01     2.09200e-02
      7043       7048      1   0.025511  -0.023412     3.00055e-01     6.91943e-02
      7043       7046      1   0.025511   0.006276     2.60142e-01     2.09200e-02
      7043       7047      1   0.025511   0.006276     2.60142e-01     2.09200e-02
      7042       7050      1  -0.111712   0.014340     3.00055e-01     6.91943e-02
      7042       7049      1  -0.111712   0.014340     3.00055e-01     6.91943e-02
      7041       7048      1   0.025511  -0.023412     3.00055e-01     6.91943e-02
      7041       7046      1   0.025511   0.006276     2.60142e-01     2.09200e-02
      7041       7047      1   0.025511   0.006276     2.60142e-01     2.09200e-02
      7120       7122      1   0.053944  -0.559638     2.78067e-01     9.58675e-02
      7120       7123      1   0.053944  -0.479574     2.80072e-01     8.62554e-02
      7119       7122      1   0.053944  -0.559638     2.78067e-01     9.58675e-02
      7119       7123      1   0.053944  -0.479574     2.80072e-01     8.62554e-02
      7117       7120      1   0.018859   0.044953     2.60142e-01     2.09200e-02
      7117       7119      1   0.018859   0.044953     2.60142e-01     2.09200e-02
      7117       7121      1   0.018859   0.758669     3.00055e-01     6.13495e-02
      7116       7120      1   0.018859   0.044953     2.60142e-01     2.09200e-02
      7116       7119      1   0.018859   0.044953     2.60142e-01     2.09200e-02
      7116       7121      1   0.018859   0.758669     3.00055e-01     6.13495e-02
      7114       7118      1   0.020431  -0.136833     3.00055e-01     6.91943e-02
      7114       7117      1   0.020431   0.015716     2.60142e-01     2.09200e-02
      7114       7116      1   0.020431   0.015716     2.60142e-01     2.09200e-02
      7113       7118      1   0.020431  -0.136833     3.00055e-01     6.91943e-02
      7113       7117      1   0.020431   0.015716     2.60142e-01     2.09200e-02
      7113       7116      1   0.020431   0.015716     2.60142e-01     2.09200e-02
      7112       7120      1  -0.026954   0.044953     3.00055e-01     6.91943e-02
      7112       7119      1  -0.026954   0.044953     3.00055e-01     6.91943e-02
      7111       7115      1   0.010573  -0.002029     3.00055e-01     6.91943e-02
      7111       7114      1   0.010573   0.017026     2.60142e-01     2.09200e-02
      7111       7113      1   0.010573   0.017026     2.60142e-01     2.09200e-02
      7110       7115      1   0.010573  -0.002029     3.00055e-01     6.91943e-02
      7110       7114      1   0.010573   0.017026     2.60142e-01     2.09200e-02
      7110       7113      1   0.010573   0.017026     2.60142e-01     2.09200e-02
      7109       7117      1  -0.016521   0.015716     3.00055e-01     6.91943e-02
      7109       7116      1  -0.016521   0.015716     3.00055e-01     6.91943e-02
      7108       7112      1   0.011511  -0.022462     3.00055e-01     6.91943e-02
      7108       7110      1   0.011511   0.008811     2.60142e-01     2.09200e-02
      7108       7111      1   0.011511   0.008811     2.60142e-01     2.09200e-02
      7107       7112      1   0.011511  -0.022462     3.00055e-01     6.91943e-02
      7107       7110      1   0.011511   0.008811     2.60142e-01     2.09200e-02
      7107       7111      1   0.011511   0.008811     2.60142e-01     2.09200e-02
      7106       7114      1  -0.027812   0.017026     3.00055e-01     6.91943e-02
      7106       7113      1  -0.027812   0.017026     3.00055e-01     6.91943e-02
      7105       7109      1   0.006833  -0.013767     3.00055e-01     6.91943e-02
      7105       7107      1   0.006833   0.009592     2.60142e-01     2.09200e-02
      7105       7108      1   0.006833   0.009592     2.60142e-01     2.09200e-02
      7104       7109      1   0.006833  -0.013767     3.00055e-01     6.91943e-02
      7104       7107      1   0.006833   0.009592     2.60142e-01     2.09200e-02
      7104       7108      1   0.006833   0.009592     2.60142e-01     2.09200e-02
      7103       7110      1  -0.004386   0.008811     3.00055e-01     6.91943e-02
      7103       7111      1  -0.004386   0.008811     3.00055e-01     6.91943e-02
      7102       7106      1   0.011241  -0.023177     3.00055e-01     6.91943e-02
      7102       7104      1   0.011241   0.005694     2.60142e-01     2.09200e-02
      7102       7105      1   0.011241   0.005694     2.60142e-01     2.09200e-02
      7101       7106      1   0.011241  -0.023177     3.00055e-01     6.91943e-02
      7101       7104      1   0.011241   0.005694     2.60142e-01     2.09200e-02
      7101       7105      1   0.011241   0.005694     2.60142e-01     2.09200e-02
      7100       7107      1  -0.026451   0.009592     3.00055e-01     6.91943e-02
      7100       7108      1  -0.026451   0.009592     3.00055e-01     6.91943e-02
      7099       7103      1   0.010172  -0.003655     3.00055e-01     6.91943e-02
      7099       7102      1   0.010172   0.009367     2.60142e-01     2.09200e-02
      7099       7101      1   0.010172   0.009367     2.60142e-01     2.09200e-02
      7098       7103      1   0.010172  -0.003655     3.00055e-01     6.91943e-02
      7098       7102      1   0.010172   0.009367     2.60142e-01     2.09200e-02
      7098       7101      1   0.010172   0.009367     2.60142e-01     2.09200e-02
      7097       7104      1  -0.014653   0.005694     3.00055e-01     6.91943e-02
      7097       7105      1  -0.014653   0.005694     3.00055e-01     6.91943e-02
      7096       7100      1   0.010037  -0.022042     3.00055e-01     6.91943e-02
      7096       7098      1   0.010037   0.008477     2.60142e-01     2.09200e-02
      7096       7099      1   0.010037   0.008477     2.60142e-01     2.09200e-02
      7095       7100      1   0.010037  -0.022042     3.00055e-01     6.91943e-02
      7095       7098      1   0.010037   0.008477     2.60142e-01     2.09200e-02
      7095       7099      1   0.010037   0.008477     2.60142e-01     2.09200e-02
      7094       7102      1  -0.021025   0.009367     3.00055e-01     6.91943e-02
      7094       7101      1  -0.021025   0.009367     3.00055e-01     6.91943e-02
      7093       7097      1   0.012677  -0.012211     3.00055e-01     6.91943e-02
      7093       7096      1   0.012677   0.008364     2.60142e-01     2.09200e-02
      7093       7095      1   0.012677   0.008364     2.60142e-01     2.09200e-02
      7092       7097      1   0.012677  -0.012211     3.00055e-01     6.91943e-02
      7092       7096      1   0.012677   0.008364     2.60142e-01     2.09200e-02
      7092       7095      1   0.012677   0.008364     2.60142e-01     2.09200e-02
      7091       7098      1  -0.031787   0.008477     3.00055e-01     6.91943e-02
      7091       7099      1  -0.031787   0.008477     3.00055e-01     6.91943e-02
      7090       7094      1   0.017208  -0.017521     3.00055e-01     6.91943e-02
      7090       7092      1   0.017208   0.010564     2.60142e-01     2.09200e-02
      7090       7093      1   0.017208   0.010564     2.60142e-01     2.09200e-02
      7089       7094      1   0.017208  -0.017521     3.00055e-01     6.91943e-02
      7089       7092      1   0.017208   0.010564     2.60142e-01     2.09200e-02
      7089       7093      1   0.017208   0.010564     2.60142e-01     2.09200e-02
      7088       7096      1  -0.028094   0.008364     3.00055e-01     6.91943e-02
      7088       7095      1  -0.028094   0.008364     3.00055e-01     6.91943e-02
      7087       7091      1   0.007531  -0.026489     3.00055e-01     6.91943e-02
      7087       7090      1   0.007531   0.014340     2.60142e-01     2.09200e-02
      7087       7089      1   0.007531   0.014340     2.60142e-01     2.09200e-02
      7086       7091      1   0.007531  -0.026489     3.00055e-01     6.91943e-02
      7086       7090      1   0.007531   0.014340     2.60142e-01     2.09200e-02
      7086       7089      1   0.007531   0.014340     2.60142e-01     2.09200e-02
      7085       7092      1   0.017463   0.010564     3.00055e-01     6.91943e-02
      7085       7093      1   0.017463   0.010564     3.00055e-01     6.91943e-02
      7084       7088      1   0.025511  -0.023412     3.00055e-01     6.91943e-02
      7084       7086      1   0.025511   0.006276     2.60142e-01     2.09200e-02
      7084       7087      1   0.025511   0.006276     2.60142e-01     2.09200e-02
      7083       7088      1   0.025511  -0.023412     3.00055e-01     6.91943e-02
      7083       7086      1   0.025511   0.006276     2.60142e-01     2.09200e-02
      7083       7087      1   0.025511   0.006276     2.60142e-01     2.09200e-02
      7082       7090      1  -0.111712   0.014340     3.00055e-01     6.91943e-02
      7082       7089      1  -0.111712   0.014340     3.00055e-01     6.91943e-02
      7081       7088      1   0.025511  -0.023412     3.00055e-01     6.91943e-02
      7081       7086      1   0.025511   0.006276     2.60142e-01     2.09200e-02
      7081       7087      1   0.025511   0.006276     2.60142e-01     2.09200e-02
      7158       7198      1  -0.673755   0.044953     2.78067e-01     9.58675e-02
      7158       7197      1  -0.673755   0.044953     2.78067e-01     9.58675e-02
      7157       7195      1   0.897613   0.015716     3.00055e-01     6.13495e-02
      7157       7194      1   0.897613   0.015716     3.00055e-01     6.13495e-02
      7156       7198      1  -0.552948   0.044953     2.80072e-01     8.62554e-02
      7156       7197      1  -0.552948   0.044953     2.80072e-01     8.62554e-02
      7149       7150      1   0.172230  -0.282478     2.67982e-01     8.67002e-02
      7148       7150      1   0.172230  -0.282478     2.67982e-01     8.67002e-02
      7147       7150      1   0.172230  -0.282478     2.67982e-01     8.67002e-02
      7146       7151      1  -0.338973   0.143525     2.67982e-01     8.67002e-02
      7146       7152      1  -0.338973   0.143525     2.67982e-01     8.67002e-02
      7146       7153      1  -0.338973   0.143525     2.67982e-01     8.67002e-02
      7145       7146      1   0.172230  -0.282478     2.67982e-01     8.67002e-02
      7145       7150      1   0.172230  -0.282478     2.67982e-01     8.67002e-02
      7144       7146      1   0.172230  -0.282478     2.67982e-01     8.67002e-02
      7144       7150      1   0.172230  -0.282478     2.67982e-01     8.67002e-02
      7143       7146      1   0.172230  -0.282478     2.67982e-01     8.67002e-02
      7143       7150      1   0.172230  -0.282478     2.67982e-01     8.67002e-02
      7142       7147      1  -0.338973   0.143525     2.67982e-01     8.67002e-02
      7142       7148      1  -0.338973   0.143525     2.67982e-01     8.67002e-02
      7142       7149      1  -0.338973   0.143525     2.67982e-01     8.67002e-02
      7142       7151      1  -0.338973   0.143525     2.67982e-01     8.67002e-02
      7142       7152      1  -0.338973   0.143525     2.67982e-01     8.67002e-02
      7142       7153      1  -0.338973   0.143525     2.67982e-01     8.67002e-02
      7140       7142      1   0.136415  -0.282478     2.67982e-01     8.67002e-02
      7140       7146      1   0.136415  -0.282478     2.67982e-01     8.67002e-02
      7140       7150      1   0.136415  -0.282478     2.67982e-01     8.67002e-02
      7139       7142      1   0.136415  -0.282478     2.67982e-01     8.67002e-02
      7139       7146      1   0.136415  -0.282478     2.67982e-01     8.67002e-02
      7139       7150      1   0.136415  -0.282478     2.67982e-01     8.67002e-02
      7138       7143      1  -0.170824   0.143525     2.67982e-01     8.67002e-02
      7138       7144      1  -0.170824   0.143525     2.67982e-01     8.67002e-02
      7138       7145      1  -0.170824   0.143525     2.67982e-01     8.67002e-02
      7138       7147      1  -0.170824   0.143525     2.67982e-01     8.67002e-02
      7138       7148      1  -0.170824   0.143525     2.67982e-01     8.67002e-02
      7138       7149      1  -0.170824   0.143525     2.67982e-01     8.67002e-02
      7138       7151      1  -0.170824   0.143525     2.67982e-01     8.67002e-02
      7138       7152      1  -0.170824   0.143525     2.67982e-01     8.67002e-02
      7138       7153      1  -0.170824   0.143525     2.67982e-01     8.67002e-02
      7137       7139      1   0.078534   0.113679     2.21567e-01     3.28444e-02
      7137       7140      1   0.078534   0.113679     2.21567e-01     3.28444e-02
      7137       7141      1   0.078534   0.204385     2.86068e-01     1.08078e-01
      7136       7139      1   0.078534   0.113679     2.21567e-01     3.28444e-02
      7136       7140      1   0.078534   0.113679     2.21567e-01     3.28444e-02
      7136       7141      1   0.078534   0.204385     2.86068e-01     1.08078e-01
      7134       7139      1  -0.508176   0.113679     2.47999e-01     1.08078e-01
      7134       7140      1  -0.508176   0.113679     2.47999e-01     1.08078e-01
      7133       7136      1   1.339721   0.065445     3.10656e-01     1.17227e-01
      7133       7137      1   1.339721   0.065445     3.10656e-01     1.17227e-01
      7131       7156      1   0.095591  -0.460790     2.73568e-01     1.08078e-01
      7131       7133      1   0.095591   1.116434     3.10656e-01     1.17227e-01
      7130       7156      1   0.095591  -0.460790     2.73568e-01     1.08078e-01
      7130       7133      1   0.095591   1.116434     3.10656e-01     1.17227e-01
      7128       7130      1   0.063253   0.079659     2.47135e-01     3.28444e-02
      7128       7131      1   0.063253   0.079659     2.47135e-01     3.28444e-02
      7128       7132      1   0.063253  -0.424567     2.73568e-01     1.08078e-01
      7128       7157      1   0.063253   0.748011     2.93551e-01     7.68707e-02
      7126       7128      1   0.070469   0.052711     2.47135e-01     3.28444e-02
      7126       7129      1   0.070469   0.014549     2.93551e-01     8.67002e-02
      7126       7156      1   0.070469  -0.460790     2.73568e-01     1.08078e-01
      7125       7128      1   0.070469   0.052711     2.47135e-01     3.28444e-02
      7125       7129      1   0.070469   0.014549     2.93551e-01     8.67002e-02
      7125       7156      1   0.070469  -0.460790     2.73568e-01     1.08078e-01
      7124       7130      1   0.196939   0.079659     2.93551e-01     8.67002e-02
      7124       7131      1   0.196939   0.079659     2.93551e-01     8.67002e-02
      7123       7128      1  -0.575489   0.052711     2.73568e-01     1.08078e-01
      7121       7125      1   0.910403   0.058724     2.93551e-01     7.68707e-02
      7121       7126      1   0.910403   0.058724     2.93551e-01     7.68707e-02
      7195       7198      1   0.018859   0.044953     2.60142e-01     2.09200e-02
      7195       7197      1   0.018859   0.044953     2.60142e-01     2.09200e-02
      7194       7198      1   0.018859   0.044953     2.60142e-01     2.09200e-02
      7194       7197      1   0.018859   0.044953     2.60142e-01     2.09200e-02
      7192       7196      1   0.020431  -0.136833     3.00055e-01     6.91943e-02
      7192       7195      1   0.020431   0.015716     2.60142e-01     2.09200e-02
      7192       7194      1   0.020431   0.015716     2.60142e-01     2.09200e-02
      7191       7196      1   0.020431  -0.136833     3.00055e-01     6.91943e-02
      7191       7195      1   0.020431   0.015716     2.60142e-01     2.09200e-02
      7191       7194      1   0.020431   0.015716     2.60142e-01     2.09200e-02
      7190       7198      1  -0.026954   0.044953     3.00055e-01     6.91943e-02
      7190       7197      1  -0.026954   0.044953     3.00055e-01     6.91943e-02
      7189       7193      1   0.010573  -0.002029     3.00055e-01     6.91943e-02
      7189       7192      1   0.010573   0.017026     2.60142e-01     2.09200e-02
      7189       7191      1   0.010573   0.017026     2.60142e-01     2.09200e-02
      7188       7193      1   0.010573  -0.002029     3.00055e-01     6.91943e-02
      7188       7192      1   0.010573   0.017026     2.60142e-01     2.09200e-02
      7188       7191      1   0.010573   0.017026     2.60142e-01     2.09200e-02
      7187       7195      1  -0.016521   0.015716     3.00055e-01     6.91943e-02
      7187       7194      1  -0.016521   0.015716     3.00055e-01     6.91943e-02
      7186       7190      1   0.011511  -0.022462     3.00055e-01     6.91943e-02
      7186       7188      1   0.011511   0.008811     2.60142e-01     2.09200e-02
      7186       7189      1   0.011511   0.008811     2.60142e-01     2.09200e-02
      7185       7190      1   0.011511  -0.022462     3.00055e-01     6.91943e-02
      7185       7188      1   0.011511   0.008811     2.60142e-01     2.09200e-02
      7185       7189      1   0.011511   0.008811     2.60142e-01     2.09200e-02
      7184       7192      1  -0.027812   0.017026     3.00055e-01     6.91943e-02
      7184       7191      1  -0.027812   0.017026     3.00055e-01     6.91943e-02
      7183       7187      1   0.006833  -0.013767     3.00055e-01     6.91943e-02
      7183       7185      1   0.006833   0.009592     2.60142e-01     2.09200e-02
      7183       7186      1   0.006833   0.009592     2.60142e-01     2.09200e-02
      7182       7187      1   0.006833  -0.013767     3.00055e-01     6.91943e-02
      7182       7185      1   0.006833   0.009592     2.60142e-01     2.09200e-02
      7182       7186      1   0.006833   0.009592     2.60142e-01     2.09200e-02
      7181       7188      1  -0.004386   0.008811     3.00055e-01     6.91943e-02
      7181       7189      1  -0.004386   0.008811     3.00055e-01     6.91943e-02
      7180       7184      1   0.011241  -0.023177     3.00055e-01     6.91943e-02
      7180       7182      1   0.011241   0.005694     2.60142e-01     2.09200e-02
      7180       7183      1   0.011241   0.005694     2.60142e-01     2.09200e-02
      7179       7184      1   0.011241  -0.023177     3.00055e-01     6.91943e-02
      7179       7182      1   0.011241   0.005694     2.60142e-01     2.09200e-02
      7179       7183      1   0.011241   0.005694     2.60142e-01     2.09200e-02
      7178       7185      1  -0.026451   0.009592     3.00055e-01     6.91943e-02
      7178       7186      1  -0.026451   0.009592     3.00055e-01     6.91943e-02
      7177       7181      1   0.010172  -0.003655     3.00055e-01     6.91943e-02
      7177       7180      1   0.010172   0.009367     2.60142e-01     2.09200e-02
      7177       7179      1   0.010172   0.009367     2.60142e-01     2.09200e-02
      7176       7181      1   0.010172  -0.003655     3.00055e-01     6.91943e-02
      7176       7180      1   0.010172   0.009367     2.60142e-01     2.09200e-02
      7176       7179      1   0.010172   0.009367     2.60142e-01     2.09200e-02
      7175       7182      1  -0.014653   0.005694     3.00055e-01     6.91943e-02
      7175       7183      1  -0.014653   0.005694     3.00055e-01     6.91943e-02
      7174       7178      1   0.010037  -0.022042     3.00055e-01     6.91943e-02
      7174       7176      1   0.010037   0.008477     2.60142e-01     2.09200e-02
      7174       7177      1   0.010037   0.008477     2.60142e-01     2.09200e-02
      7173       7178      1   0.010037  -0.022042     3.00055e-01     6.91943e-02
      7173       7176      1   0.010037   0.008477     2.60142e-01     2.09200e-02
      7173       7177      1   0.010037   0.008477     2.60142e-01     2.09200e-02
      7172       7180      1  -0.021025   0.009367     3.00055e-01     6.91943e-02
      7172       7179      1  -0.021025   0.009367     3.00055e-01     6.91943e-02
      7171       7175      1   0.012677  -0.012211     3.00055e-01     6.91943e-02
      7171       7174      1   0.012677   0.008364     2.60142e-01     2.09200e-02
      7171       7173      1   0.012677   0.008364     2.60142e-01     2.09200e-02
      7170       7175      1   0.012677  -0.012211     3.00055e-01     6.91943e-02
      7170       7174      1   0.012677   0.008364     2.60142e-01     2.09200e-02
      7170       7173      1   0.012677   0.008364     2.60142e-01     2.09200e-02
      7169       7176      1  -0.031787   0.008477     3.00055e-01     6.91943e-02
      7169       7177      1  -0.031787   0.008477     3.00055e-01     6.91943e-02
      7168       7172      1   0.017208  -0.017521     3.00055e-01     6.91943e-02
      7168       7170      1   0.017208   0.010564     2.60142e-01     2.09200e-02
      7168       7171      1   0.017208   0.010564     2.60142e-01     2.09200e-02
      7167       7172      1   0.017208  -0.017521     3.00055e-01     6.91943e-02
      7167       7170      1   0.017208   0.010564     2.60142e-01     2.09200e-02
      7167       7171      1   0.017208   0.010564     2.60142e-01     2.09200e-02
      7166       7174      1  -0.028094   0.008364     3.00055e-01     6.91943e-02
      7166       7173      1  -0.028094   0.008364     3.00055e-01     6.91943e-02
      7165       7169      1   0.007531  -0.026489     3.00055e-01     6.91943e-02
      7165       7168      1   0.007531   0.014340     2.60142e-01     2.09200e-02
      7165       7167      1   0.007531   0.014340     2.60142e-01     2.09200e-02
      7164       7169      1   0.007531  -0.026489     3.00055e-01     6.91943e-02
      7164       7168      1   0.007531   0.014340     2.60142e-01     2.09200e-02
      7164       7167      1   0.007531   0.014340     2.60142e-01     2.09200e-02
      7163       7170      1   0.017463   0.010564     3.00055e-01     6.91943e-02
      7163       7171      1   0.017463   0.010564     3.00055e-01     6.91943e-02
      7162       7166      1   0.025511  -0.023412     3.00055e-01     6.91943e-02
      7162       7164      1   0.025511   0.006276     2.60142e-01     2.09200e-02
      7162       7165      1   0.025511   0.006276     2.60142e-01     2.09200e-02
      7161       7166      1   0.025511  -0.023412     3.00055e-01     6.91943e-02
      7161       7164      1   0.025511   0.006276     2.60142e-01     2.09200e-02
      7161       7165      1   0.025511   0.006276     2.60142e-01     2.09200e-02
      7160       7168      1  -0.111712   0.014340     3.00055e-01     6.91943e-02
      7160       7167      1  -0.111712   0.014340     3.00055e-01     6.91943e-02
      7159       7166      1   0.025511  -0.023412     3.00055e-01     6.91943e-02
      7159       7164      1   0.025511   0.006276     2.60142e-01     2.09200e-02
      7159       7165      1   0.025511   0.006276     2.60142e-01     2.09200e-02
      7238       7240      1   0.053944  -0.559638     2.78067e-01     9.58675e-02
      7238       7241      1   0.053944  -0.479574     2.80072e-01     8.62554e-02
      7237       7240      1   0.053944  -0.559638     2.78067e-01     9.58675e-02
      7237       7241      1   0.053944  -0.479574     2.80072e-01     8.62554e-02
      7235       7238      1   0.018859   0.044953     2.60142e-01     2.09200e-02
      7235       7237      1   0.018859   0.044953     2.60142e-01     2.09200e-02
      7235       7239      1   0.018859   0.758669     3.00055e-01     6.13495e-02
      7234       7238      1   0.018859   0.044953     2.60142e-01     2.09200e-02
      7234       7237      1   0.018859   0.044953     2.60142e-01     2.09200e-02
      7234       7239      1   0.018859   0.758669     3.00055e-01     6.13495e-02
      7232       7236      1   0.020431  -0.136833     3.00055e-01     6.91943e-02
      7232       7235      1   0.020431   0.015716     2.60142e-01     2.09200e-02
      7232       7234      1   0.020431   0.015716     2.60142e-01     2.09200e-02
      7231       7236      1   0.020431  -0.136833     3.00055e-01     6.91943e-02
      7231       7235      1   0.020431   0.015716     2.60142e-01     2.09200e-02
      7231       7234      1   0.020431   0.015716     2.60142e-01     2.09200e-02
      7230       7238      1  -0.026954   0.044953     3.00055e-01     6.91943e-02
      7230       7237      1  -0.026954   0.044953     3.00055e-01     6.91943e-02
      7229       7233      1   0.010573  -0.002029     3.00055e-01     6.91943e-02
      7229       7232      1   0.010573   0.017026     2.60142e-01     2.09200e-02
      7229       7231      1   0.010573   0.017026     2.60142e-01     2.09200e-02
      7228       7233      1   0.010573  -0.002029     3.00055e-01     6.91943e-02
      7228       7232      1   0.010573   0.017026     2.60142e-01     2.09200e-02
      7228       7231      1   0.010573   0.017026     2.60142e-01     2.09200e-02
      7227       7235      1  -0.016521   0.015716     3.00055e-01     6.91943e-02
      7227       7234      1  -0.016521   0.015716     3.00055e-01     6.91943e-02
      7226       7230      1   0.011511  -0.022462     3.00055e-01     6.91943e-02
      7226       7228      1   0.011511   0.008811     2.60142e-01     2.09200e-02
      7226       7229      1   0.011511   0.008811     2.60142e-01     2.09200e-02
      7225       7230      1   0.011511  -0.022462     3.00055e-01     6.91943e-02
      7225       7228      1   0.011511   0.008811     2.60142e-01     2.09200e-02
      7225       7229      1   0.011511   0.008811     2.60142e-01     2.09200e-02
      7224       7232      1  -0.027812   0.017026     3.00055e-01     6.91943e-02
      7224       7231      1  -0.027812   0.017026     3.00055e-01     6.91943e-02
      7223       7227      1   0.006833  -0.013767     3.00055e-01     6.91943e-02
      7223       7225      1   0.006833   0.009592     2.60142e-01     2.09200e-02
      7223       7226      1   0.006833   0.009592     2.60142e-01     2.09200e-02
      7222       7227      1   0.006833  -0.013767     3.00055e-01     6.91943e-02
      7222       7225      1   0.006833   0.009592     2.60142e-01     2.09200e-02
      7222       7226      1   0.006833   0.009592     2.60142e-01     2.09200e-02
      7221       7228      1  -0.004386   0.008811     3.00055e-01     6.91943e-02
      7221       7229      1  -0.004386   0.008811     3.00055e-01     6.91943e-02
      7220       7224      1   0.011241  -0.023177     3.00055e-01     6.91943e-02
      7220       7222      1   0.011241   0.005694     2.60142e-01     2.09200e-02
      7220       7223      1   0.011241   0.005694     2.60142e-01     2.09200e-02
      7219       7224      1   0.011241  -0.023177     3.00055e-01     6.91943e-02
      7219       7222      1   0.011241   0.005694     2.60142e-01     2.09200e-02
      7219       7223      1   0.011241   0.005694     2.60142e-01     2.09200e-02
      7218       7225      1  -0.026451   0.009592     3.00055e-01     6.91943e-02
      7218       7226      1  -0.026451   0.009592     3.00055e-01     6.91943e-02
      7217       7221      1   0.010172  -0.003655     3.00055e-01     6.91943e-02
      7217       7220      1   0.010172   0.009367     2.60142e-01     2.09200e-02
      7217       7219      1   0.010172   0.009367     2.60142e-01     2.09200e-02
      7216       7221      1   0.010172  -0.003655     3.00055e-01     6.91943e-02
      7216       7220      1   0.010172   0.009367     2.60142e-01     2.09200e-02
      7216       7219      1   0.010172   0.009367     2.60142e-01     2.09200e-02
      7215       7222      1  -0.014653   0.005694     3.00055e-01     6.91943e-02
      7215       7223      1  -0.014653   0.005694     3.00055e-01     6.91943e-02
      7214       7218      1   0.010037  -0.022042     3.00055e-01     6.91943e-02
      7214       7216      1   0.010037   0.008477     2.60142e-01     2.09200e-02
      7214       7217      1   0.010037   0.008477     2.60142e-01     2.09200e-02
      7213       7218      1   0.010037  -0.022042     3.00055e-01     6.91943e-02
      7213       7216      1   0.010037   0.008477     2.60142e-01     2.09200e-02
      7213       7217      1   0.010037   0.008477     2.60142e-01     2.09200e-02
      7212       7220      1  -0.021025   0.009367     3.00055e-01     6.91943e-02
      7212       7219      1  -0.021025   0.009367     3.00055e-01     6.91943e-02
      7211       7215      1   0.012677  -0.012211     3.00055e-01     6.91943e-02
      7211       7214      1   0.012677   0.008364     2.60142e-01     2.09200e-02
      7211       7213      1   0.012677   0.008364     2.60142e-01     2.09200e-02
      7210       7215      1   0.012677  -0.012211     3.00055e-01     6.91943e-02
      7210       7214      1   0.012677   0.008364     2.60142e-01     2.09200e-02
      7210       7213      1   0.012677   0.008364     2.60142e-01     2.09200e-02
      7209       7216      1  -0.031787   0.008477     3.00055e-01     6.91943e-02
      7209       7217      1  -0.031787   0.008477     3.00055e-01     6.91943e-02
      7208       7212      1   0.017208  -0.017521     3.00055e-01     6.91943e-02
      7208       7210      1   0.017208   0.010564     2.60142e-01     2.09200e-02
      7208       7211      1   0.017208   0.010564     2.60142e-01     2.09200e-02
      7207       7212      1   0.017208  -0.017521     3.00055e-01     6.91943e-02
      7207       7210      1   0.017208   0.010564     2.60142e-01     2.09200e-02
      7207       7211      1   0.017208   0.010564     2.60142e-01     2.09200e-02
      7206       7214      1  -0.028094   0.008364     3.00055e-01     6.91943e-02
      7206       7213      1  -0.028094   0.008364     3.00055e-01     6.91943e-02
      7205       7209      1   0.007531  -0.026489     3.00055e-01     6.91943e-02
      7205       7208      1   0.007531   0.014340     2.60142e-01     2.09200e-02
      7205       7207      1   0.007531   0.014340     2.60142e-01     2.09200e-02
      7204       7209      1   0.007531  -0.026489     3.00055e-01     6.91943e-02
      7204       7208      1   0.007531   0.014340     2.60142e-01     2.09200e-02
      7204       7207      1   0.007531   0.014340     2.60142e-01     2.09200e-02
      7203       7210      1   0.017463   0.010564     3.00055e-01     6.91943e-02
      7203       7211      1   0.017463   0.010564     3.00055e-01     6.91943e-02
      7202       7206      1   0.025511  -0.023412     3.00055e-01     6.91943e-02
      7202       7204      1   0.025511   0.006276     2.60142e-01     2.09200e-02
      7202       7205      1   0.025511   0.006276     2.60142e-01     2.09200e-02
      7201       7206      1   0.025511  -0.023412     3.00055e-01     6.91943e-02
      7201       7204      1   0.025511   0.006276     2.60142e-01     2.09200e-02
      7201       7205      1   0.025511   0.006276     2.60142e-01     2.09200e-02
      7200       7208      1  -0.111712   0.014340     3.00055e-01     6.91943e-02
      7200       7207      1  -0.111712   0.014340     3.00055e-01     6.91943e-02
      7199       7206      1   0.025511  -0.023412     3.00055e-01     6.91943e-02
      7199       7204      1   0.025511   0.006276     2.60142e-01     2.09200e-02
      7199       7205      1   0.025511   0.006276     2.60142e-01     2.09200e-02
      7276       7316      1  -0.673755   0.044953     2.78067e-01     9.58675e-02
      7276       7315      1  -0.673755   0.044953     2.78067e-01     9.58675e-02
      7275       7313      1   0.897613   0.015716     3.00055e-01     6.13495e-02
      7275       7312      1   0.897613   0.015716     3.00055e-01     6.13495e-02
      7274       7316      1  -0.552948   0.044953     2.80072e-01     8.62554e-02
      7274       7315      1  -0.552948   0.044953     2.80072e-01     8.62554e-02
      7267       7268      1   0.172230  -0.282478     2.67982e-01     8.67002e-02
      7266       7268      1   0.172230  -0.282478     2.67982e-01     8.67002e-02
      7265       7268      1   0.172230  -0.282478     2.67982e-01     8.67002e-02
      7264       7269      1  -0.338973   0.143525     2.67982e-01     8.67002e-02
      7264       7270      1  -0.338973   0.143525     2.67982e-01     8.67002e-02
      7264       7271      1  -0.338973   0.143525     2.67982e-01     8.67002e-02
      7263       7264      1   0.172230  -0.282478     2.67982e-01     8.67002e-02
      7263       7268      1   0.172230  -0.282478     2.67982e-01     8.67002e-02
      7262       7264      1   0.172230  -0.282478     2.67982e-01     8.67002e-02
      7262       7268      1   0.172230  -0.282478     2.67982e-01     8.67002e-02
      7261       7264      1   0.172230  -0.282478     2.67982e-01     8.67002e-02
      7261       7268      1   0.172230  -0.282478     2.67982e-01     8.67002e-02
      7260       7265      1  -0.338973   0.143525     2.67982e-01     8.67002e-02
      7260       7266      1  -0.338973   0.143525     2.67982e-01     8.67002e-02
      7260       7267      1  -0.338973   0.143525     2.67982e-01     8.67002e-02
      7260       7269      1  -0.338973   0.143525     2.67982e-01     8.67002e-02
      7260       7270      1  -0.338973   0.143525     2.67982e-01     8.67002e-02
      7260       7271      1  -0.338973   0.143525     2.67982e-01     8.67002e-02
      7258       7260      1   0.136415  -0.282478     2.67982e-01     8.67002e-02
      7258       7264      1   0.136415  -0.282478     2.67982e-01     8.67002e-02
      7258       7268      1   0.136415  -0.282478     2.67982e-01     8.67002e-02
      7257       7260      1   0.136415  -0.282478     2.67982e-01     8.67002e-02
      7257       7264      1   0.136415  -0.282478     2.67982e-01     8.67002e-02
      7257       7268      1   0.136415  -0.282478     2.67982e-01     8.67002e-02
      7256       7261      1  -0.170824   0.143525     2.67982e-01     8.67002e-02
      7256       7262      1  -0.170824   0.143525     2.67982e-01     8.67002e-02
      7256       7263      1  -0.170824   0.143525     2.67982e-01     8.67002e-02
      7256       7265      1  -0.170824   0.143525     2.67982e-01     8.67002e-02
      7256       7266      1  -0.170824   0.143525     2.67982e-01     8.67002e-02
      7256       7267      1  -0.170824   0.143525     2.67982e-01     8.67002e-02
      7256       7269      1  -0.170824   0.143525     2.67982e-01     8.67002e-02
      7256       7270      1  -0.170824   0.143525     2.67982e-01     8.67002e-02
      7256       7271      1  -0.170824   0.143525     2.67982e-01     8.67002e-02
      7255       7257      1   0.078534   0.113679     2.21567e-01     3.28444e-02
      7255       7258      1   0.078534   0.113679     2.21567e-01     3.28444e-02
      7255       7259      1   0.078534   0.204385     2.86068e-01     1.08078e-01
      7254       7257      1   0.078534   0.113679     2.21567e-01     3.28444e-02
      7254       7258      1   0.078534   0.113679     2.21567e-01     3.28444e-02
      7254       7259      1   0.078534   0.204385     2.86068e-01     1.08078e-01
      7252       7257      1  -0.508176   0.113679     2.47999e-01     1.08078e-01
      7252       7258      1  -0.508176   0.113679     2.47999e-01     1.08078e-01
      7251       7254      1   1.339721   0.065445     3.10656e-01     1.17227e-01
      7251       7255      1   1.339721   0.065445     3.10656e-01     1.17227e-01
      7249       7274      1   0.095591  -0.460790     2.73568e-01     1.08078e-01
      7249       7251      1   0.095591   1.116434     3.10656e-01     1.17227e-01
      7248       7274      1   0.095591  -0.460790     2.73568e-01     1.08078e-01
      7248       7251      1   0.095591   1.116434     3.10656e-01     1.17227e-01
      7246       7248      1   0.063253   0.079659     2.47135e-01     3.28444e-02
      7246       7249      1   0.063253   0.079659     2.47135e-01     3.28444e-02
      7246       7250      1   0.063253  -0.424567     2.73568e-01     1.08078e-01
      7246       7275      1   0.063253   0.748011     2.93551e-01     7.68707e-02
      7244       7246      1   0.070469   0.052711     2.47135e-01     3.28444e-02
      7244       7247      1   0.070469   0.014549     2.93551e-01     8.67002e-02
      7244       7274      1   0.070469  -0.460790     2.73568e-01     1.08078e-01
      7243       7246      1   0.070469   0.052711     2.47135e-01     3.28444e-02
      7243       7247      1   0.070469   0.014549     2.93551e-01     8.67002e-02
      7243       7274      1   0.070469  -0.460790     2.73568e-01     1.08078e-01
      7242       7248      1   0.196939   0.079659     2.93551e-01     8.67002e-02
      7242       7249      1   0.196939   0.079659     2.93551e-01     8.67002e-02
      7241       7246      1  -0.575489   0.052711     2.73568e-01     1.08078e-01
      7239       7243      1   0.910403   0.058724     2.93551e-01     7.68707e-02
      7239       7244      1   0.910403   0.058724     2.93551e-01     7.68707e-02
      7313       7316      1   0.018859   0.044953     2.60142e-01     2.09200e-02
      7313       7315      1   0.018859   0.044953     2.60142e-01     2.09200e-02
      7312       7316      1   0.018859   0.044953     2.60142e-01     2.09200e-02
      7312       7315      1   0.018859   0.044953     2.60142e-01     2.09200e-02
      7310       7314      1   0.020431  -0.136833     3.00055e-01     6.91943e-02
      7310       7313      1   0.020431   0.015716     2.60142e-01     2.09200e-02
      7310       7312      1   0.020431   0.015716     2.60142e-01     2.09200e-02
      7309       7314      1   0.020431  -0.136833     3.00055e-01     6.91943e-02
      7309       7313      1   0.020431   0.015716     2.60142e-01     2.09200e-02
      7309       7312      1   0.020431   0.015716     2.60142e-01     2.09200e-02
      7308       7316      1  -0.026954   0.044953     3.00055e-01     6.91943e-02
      7308       7315      1  -0.026954   0.044953     3.00055e-01     6.91943e-02
      7307       7311      1   0.010573  -0.002029     3.00055e-01     6.91943e-02
      7307       7310      1   0.010573   0.017026     2.60142e-01     2.09200e-02
      7307       7309      1   0.010573   0.017026     2.60142e-01     2.09200e-02
      7306       7311      1   0.010573  -0.002029     3.00055e-01     6.91943e-02
      7306       7310      1   0.010573   0.017026     2.60142e-01     2.09200e-02
      7306       7309      1   0.010573   0.017026     2.60142e-01     2.09200e-02
      7305       7313      1  -0.016521   0.015716     3.00055e-01     6.91943e-02
      7305       7312      1  -0.016521   0.015716     3.00055e-01     6.91943e-02
      7304       7308      1   0.011511  -0.022462     3.00055e-01     6.91943e-02
      7304       7306      1   0.011511   0.008811     2.60142e-01     2.09200e-02
      7304       7307      1   0.011511   0.008811     2.60142e-01     2.09200e-02
      7303       7308      1   0.011511  -0.022462     3.00055e-01     6.91943e-02
      7303       7306      1   0.011511   0.008811     2.60142e-01     2.09200e-02
      7303       7307      1   0.011511   0.008811     2.60142e-01     2.09200e-02
      7302       7310      1  -0.027812   0.017026     3.00055e-01     6.91943e-02
      7302       7309      1  -0.027812   0.017026     3.00055e-01     6.91943e-02
      7301       7305      1   0.006833  -0.013767     3.00055e-01     6.91943e-02
      7301       7303      1   0.006833   0.009592     2.60142e-01     2.09200e-02
      7301       7304      1   0.006833   0.009592     2.60142e-01     2.09200e-02
      7300       7305      1   0.006833  -0.013767     3.00055e-01     6.91943e-02
      7300       7303      1   0.006833   0.009592     2.60142e-01     2.09200e-02
      7300       7304      1   0.006833   0.009592     2.60142e-01     2.09200e-02
      7299       7306      1  -0.004386   0.008811     3.00055e-01     6.91943e-02
      7299       7307      1  -0.004386   0.008811     3.00055e-01     6.91943e-02
      7298       7302      1   0.011241  -0.023177     3.00055e-01     6.91943e-02
      7298       7300      1   0.011241   0.005694     2.60142e-01     2.09200e-02
      7298       7301      1   0.011241   0.005694     2.60142e-01     2.09200e-02
      7297       7302      1   0.011241  -0.023177     3.00055e-01     6.91943e-02
      7297       7300      1   0.011241   0.005694     2.60142e-01     2.09200e-02
      7297       7301      1   0.011241   0.005694     2.60142e-01     2.09200e-02
      7296       7303      1  -0.026451   0.009592     3.00055e-01     6.91943e-02
      7296       7304      1  -0.026451   0.009592     3.00055e-01     6.91943e-02
      7295       7299      1   0.010172  -0.003655     3.00055e-01     6.91943e-02
      7295       7298      1   0.010172   0.009367     2.60142e-01     2.09200e-02
      7295       7297      1   0.010172   0.009367     2.60142e-01     2.09200e-02
      7294       7299      1   0.010172  -0.003655     3.00055e-01     6.91943e-02
      7294       7298      1   0.010172   0.009367     2.60142e-01     2.09200e-02
      7294       7297      1   0.010172   0.009367     2.60142e-01     2.09200e-02
      7293       7300      1  -0.014653   0.005694     3.00055e-01     6.91943e-02
      7293       7301      1  -0.014653   0.005694     3.00055e-01     6.91943e-02
      7292       7296      1   0.010037  -0.022042     3.00055e-01     6.91943e-02
      7292       7294      1   0.010037   0.008477     2.60142e-01     2.09200e-02
      7292       7295      1   0.010037   0.008477     2.60142e-01     2.09200e-02
      7291       7296      1   0.010037  -0.022042     3.00055e-01     6.91943e-02
      7291       7294      1   0.010037   0.008477     2.60142e-01     2.09200e-02
      7291       7295      1   0.010037   0.008477     2.60142e-01     2.09200e-02
      7290       7298      1  -0.021025   0.009367     3.00055e-01     6.91943e-02
      7290       7297      1  -0.021025   0.009367     3.00055e-01     6.91943e-02
      7289       7293      1   0.012677  -0.012211     3.00055e-01     6.91943e-02
      7289       7292      1   0.012677   0.008364     2.60142e-01     2.09200e-02
      7289       7291      1   0.012677   0.008364     2.60142e-01     2.09200e-02
      7288       7293      1   0.012677  -0.012211     3.00055e-01     6.91943e-02
      7288       7292      1   0.012677   0.008364     2.60142e-01     2.09200e-02
      7288       7291      1   0.012677   0.008364     2.60142e-01     2.09200e-02
      7287       7294      1  -0.031787   0.008477     3.00055e-01     6.91943e-02
      7287       7295      1  -0.031787   0.008477     3.00055e-01     6.91943e-02
      7286       7290      1   0.017208  -0.017521     3.00055e-01     6.91943e-02
      7286       7288      1   0.017208   0.010564     2.60142e-01     2.09200e-02
      7286       7289      1   0.017208   0.010564     2.60142e-01     2.09200e-02
      7285       7290      1   0.017208  -0.017521     3.00055e-01     6.91943e-02
      7285       7288      1   0.017208   0.010564     2.60142e-01     2.09200e-02
      7285       7289      1   0.017208   0.010564     2.60142e-01     2.09200e-02
      7284       7292      1  -0.028094   0.008364     3.00055e-01     6.91943e-02
      7284       7291      1  -0.028094   0.008364     3.00055e-01     6.91943e-02
      7283       7287      1   0.007531  -0.026489     3.00055e-01     6.91943e-02
      7283       7286      1   0.007531   0.014340     2.60142e-01     2.09200e-02
      7283       7285      1   0.007531   0.014340     2.60142e-01     2.09200e-02
      7282       7287      1   0.007531  -0.026489     3.00055e-01     6.91943e-02
      7282       7286      1   0.007531   0.014340     2.60142e-01     2.09200e-02
      7282       7285      1   0.007531   0.014340     2.60142e-01     2.09200e-02
      7281       7288      1   0.017463   0.010564     3.00055e-01     6.91943e-02
      7281       7289      1   0.017463   0.010564     3.00055e-01     6.91943e-02
      7280       7284      1   0.025511  -0.023412     3.00055e-01     6.91943e-02
      7280       7282      1   0.025511   0.006276     2.60142e-01     2.09200e-02
      7280       7283      1   0.025511   0.006276     2.60142e-01     2.09200e-02
      7279       7284      1   0.025511  -0.023412     3.00055e-01     6.91943e-02
      7279       7282      1   0.025511   0.006276     2.60142e-01     2.09200e-02
      7279       7283      1   0.025511   0.006276     2.60142e-01     2.09200e-02
      7278       7286      1  -0.111712   0.014340     3.00055e-01     6.91943e-02
      7278       7285      1  -0.111712   0.014340     3.00055e-01     6.91943e-02
      7277       7284      1   0.025511  -0.023412     3.00055e-01     6.91943e-02
      7277       7282      1   0.025511   0.006276     2.60142e-01     2.09200e-02
      7277       7283      1   0.025511   0.006276     2.60142e-01     2.09200e-02
      7356       7358      1   0.053944  -0.559638     2.78067e-01     9.58675e-02
      7356       7359      1   0.053944  -0.479574     2.80072e-01     8.62554e-02
      7355       7358      1   0.053944  -0.559638     2.78067e-01     9.58675e-02
      7355       7359      1   0.053944  -0.479574     2.80072e-01     8.62554e-02
      7353       7356      1   0.018859   0.044953     2.60142e-01     2.09200e-02
      7353       7355      1   0.018859   0.044953     2.60142e-01     2.09200e-02
      7353       7357      1   0.018859   0.758669     3.00055e-01     6.13495e-02
      7352       7356      1   0.018859   0.044953     2.60142e-01     2.09200e-02
      7352       7355      1   0.018859   0.044953     2.60142e-01     2.09200e-02
      7352       7357      1   0.018859   0.758669     3.00055e-01     6.13495e-02
      7350       7354      1   0.020431  -0.136833     3.00055e-01     6.91943e-02
      7350       7353      1   0.020431   0.015716     2.60142e-01     2.09200e-02
      7350       7352      1   0.020431   0.015716     2.60142e-01     2.09200e-02
      7349       7354      1   0.020431  -0.136833     3.00055e-01     6.91943e-02
      7349       7353      1   0.020431   0.015716     2.60142e-01     2.09200e-02
      7349       7352      1   0.020431   0.015716     2.60142e-01     2.09200e-02
      7348       7356      1  -0.026954   0.044953     3.00055e-01     6.91943e-02
      7348       7355      1  -0.026954   0.044953     3.00055e-01     6.91943e-02
      7347       7351      1   0.010573  -0.002029     3.00055e-01     6.91943e-02
      7347       7350      1   0.010573   0.017026     2.60142e-01     2.09200e-02
      7347       7349      1   0.010573   0.017026     2.60142e-01     2.09200e-02
      7346       7351      1   0.010573  -0.002029     3.00055e-01     6.91943e-02
      7346       7350      1   0.010573   0.017026     2.60142e-01     2.09200e-02
      7346       7349      1   0.010573   0.017026     2.60142e-01     2.09200e-02
      7345       7353      1  -0.016521   0.015716     3.00055e-01     6.91943e-02
      7345       7352      1  -0.016521   0.015716     3.00055e-01     6.91943e-02
      7344       7348      1   0.011511  -0.022462     3.00055e-01     6.91943e-02
      7344       7346      1   0.011511   0.008811     2.60142e-01     2.09200e-02
      7344       7347      1   0.011511   0.008811     2.60142e-01     2.09200e-02
      7343       7348      1   0.011511  -0.022462     3.00055e-01     6.91943e-02
      7343       7346      1   0.011511   0.008811     2.60142e-01     2.09200e-02
      7343       7347      1   0.011511   0.008811     2.60142e-01     2.09200e-02
      7342       7350      1  -0.027812   0.017026     3.00055e-01     6.91943e-02
      7342       7349      1  -0.027812   0.017026     3.00055e-01     6.91943e-02
      7341       7345      1   0.006833  -0.013767     3.00055e-01     6.91943e-02
      7341       7343      1   0.006833   0.009592     2.60142e-01     2.09200e-02
      7341       7344      1   0.006833   0.009592     2.60142e-01     2.09200e-02
      7340       7345      1   0.006833  -0.013767     3.00055e-01     6.91943e-02
      7340       7343      1   0.006833   0.009592     2.60142e-01     2.09200e-02
      7340       7344      1   0.006833   0.009592     2.60142e-01     2.09200e-02
      7339       7346      1  -0.004386   0.008811     3.00055e-01     6.91943e-02
      7339       7347      1  -0.004386   0.008811     3.00055e-01     6.91943e-02
      7338       7342      1   0.011241  -0.023177     3.00055e-01     6.91943e-02
      7338       7340      1   0.011241   0.005694     2.60142e-01     2.09200e-02
      7338       7341      1   0.011241   0.005694     2.60142e-01     2.09200e-02
      7337       7342      1   0.011241  -0.023177     3.00055e-01     6.91943e-02
      7337       7340      1   0.011241   0.005694     2.60142e-01     2.09200e-02
      7337       7341      1   0.011241   0.005694     2.60142e-01     2.09200e-02
      7336       7343      1  -0.026451   0.009592     3.00055e-01     6.91943e-02
      7336       7344      1  -0.026451   0.009592     3.00055e-01     6.91943e-02
      7335       7339      1   0.010172  -0.003655     3.00055e-01     6.91943e-02
      7335       7338      1   0.010172   0.009367     2.60142e-01     2.09200e-02
      7335       7337      1   0.010172   0.009367     2.60142e-01     2.09200e-02
      7334       7339      1   0.010172  -0.003655     3.00055e-01     6.91943e-02
      7334       7338      1   0.010172   0.009367     2.60142e-01     2.09200e-02
      7334       7337      1   0.010172   0.009367     2.60142e-01     2.09200e-02
      7333       7340      1  -0.014653   0.005694     3.00055e-01     6.91943e-02
      7333       7341      1  -0.014653   0.005694     3.00055e-01     6.91943e-02
      7332       7336      1   0.010037  -0.022042     3.00055e-01     6.91943e-02
      7332       7334      1   0.010037   0.008477     2.60142e-01     2.09200e-02
      7332       7335      1   0.010037   0.008477     2.60142e-01     2.09200e-02
      7331       7336      1   0.010037  -0.022042     3.00055e-01     6.91943e-02
      7331       7334      1   0.010037   0.008477     2.60142e-01     2.09200e-02
      7331       7335      1   0.010037   0.008477     2.60142e-01     2.09200e-02
      7330       7338      1  -0.021025   0.009367     3.00055e-01     6.91943e-02
      7330       7337      1  -0.021025   0.009367     3.00055e-01     6.91943e-02
      7329       7333      1   0.012677  -0.012211     3.00055e-01     6.91943e-02
      7329       7332      1   0.012677   0.008364     2.60142e-01     2.09200e-02
      7329       7331      1   0.012677   0.008364     2.60142e-01     2.09200e-02
      7328       7333      1   0.012677  -0.012211     3.00055e-01     6.91943e-02
      7328       7332      1   0.012677   0.008364     2.60142e-01     2.09200e-02
      7328       7331      1   0.012677   0.008364     2.60142e-01     2.09200e-02
      7327       7334      1  -0.031787   0.008477     3.00055e-01     6.91943e-02
      7327       7335      1  -0.031787   0.008477     3.00055e-01     6.91943e-02
      7326       7330      1   0.017208  -0.017521     3.00055e-01     6.91943e-02
      7326       7328      1   0.017208   0.010564     2.60142e-01     2.09200e-02
      7326       7329      1   0.017208   0.010564     2.60142e-01     2.09200e-02
      7325       7330      1   0.017208  -0.017521     3.00055e-01     6.91943e-02
      7325       7328      1   0.017208   0.010564     2.60142e-01     2.09200e-02
      7325       7329      1   0.017208   0.010564     2.60142e-01     2.09200e-02
      7324       7332      1  -0.028094   0.008364     3.00055e-01     6.91943e-02
      7324       7331      1  -0.028094   0.008364     3.00055e-01     6.91943e-02
      7323       7327      1   0.007531  -0.026489     3.00055e-01     6.91943e-02
      7323       7326      1   0.007531   0.014340     2.60142e-01     2.09200e-02
      7323       7325      1   0.007531   0.014340     2.60142e-01     2.09200e-02
      7322       7327      1   0.007531  -0.026489     3.00055e-01     6.91943e-02
      7322       7326      1   0.007531   0.014340     2.60142e-01     2.09200e-02
      7322       7325      1   0.007531   0.014340     2.60142e-01     2.09200e-02
      7321       7328      1   0.017463   0.010564     3.00055e-01     6.91943e-02
      7321       7329      1   0.017463   0.010564     3.00055e-01     6.91943e-02
      7320       7324      1   0.025511  -0.023412     3.00055e-01     6.91943e-02
      7320       7322      1   0.025511   0.006276     2.60142e-01     2.09200e-02
      7320       7323      1   0.025511   0.006276     2.60142e-01     2.09200e-02
      7319       7324      1   0.025511  -0.023412     3.00055e-01     6.91943e-02
      7319       7322      1   0.025511   0.006276     2.60142e-01     2.09200e-02
      7319       7323      1   0.025511   0.006276     2.60142e-01     2.09200e-02
      7318       7326      1  -0.111712   0.014340     3.00055e-01     6.91943e-02
      7318       7325      1  -0.111712   0.014340     3.00055e-01     6.91943e-02
      7317       7324      1   0.025511  -0.023412     3.00055e-01     6.91943e-02
      7317       7322      1   0.025511   0.006276     2.60142e-01     2.09200e-02
      7317       7323      1   0.025511   0.006276     2.60142e-01     2.09200e-02
      7394       7434      1  -0.673755   0.044953     2.78067e-01     9.58675e-02
      7394       7433      1  -0.673755   0.044953     2.78067e-01     9.58675e-02
      7393       7431      1   0.897613   0.015716     3.00055e-01     6.13495e-02
      7393       7430      1   0.897613   0.015716     3.00055e-01     6.13495e-02
      7392       7434      1  -0.552948   0.044953     2.80072e-01     8.62554e-02
      7392       7433      1  -0.552948   0.044953     2.80072e-01     8.62554e-02
      7385       7386      1   0.172230  -0.282478     2.67982e-01     8.67002e-02
      7384       7386      1   0.172230  -0.282478     2.67982e-01     8.67002e-02
      7383       7386      1   0.172230  -0.282478     2.67982e-01     8.67002e-02
      7382       7387      1  -0.338973   0.143525     2.67982e-01     8.67002e-02
      7382       7388      1  -0.338973   0.143525     2.67982e-01     8.67002e-02
      7382       7389      1  -0.338973   0.143525     2.67982e-01     8.67002e-02
      7381       7382      1   0.172230  -0.282478     2.67982e-01     8.67002e-02
      7381       7386      1   0.172230  -0.282478     2.67982e-01     8.67002e-02
      7380       7382      1   0.172230  -0.282478     2.67982e-01     8.67002e-02
      7380       7386      1   0.172230  -0.282478     2.67982e-01     8.67002e-02
      7379       7382      1   0.172230  -0.282478     2.67982e-01     8.67002e-02
      7379       7386      1   0.172230  -0.282478     2.67982e-01     8.67002e-02
      7378       7383      1  -0.338973   0.143525     2.67982e-01     8.67002e-02
      7378       7384      1  -0.338973   0.143525     2.67982e-01     8.67002e-02
      7378       7385      1  -0.338973   0.143525     2.67982e-01     8.67002e-02
      7378       7387      1  -0.338973   0.143525     2.67982e-01     8.67002e-02
      7378       7388      1  -0.338973   0.143525     2.67982e-01     8.67002e-02
      7378       7389      1  -0.338973   0.143525     2.67982e-01     8.67002e-02
      7376       7378      1   0.136415  -0.282478     2.67982e-01     8.67002e-02
      7376       7382      1   0.136415  -0.282478     2.67982e-01     8.67002e-02
      7376       7386      1   0.136415  -0.282478     2.67982e-01     8.67002e-02
      7375       7378      1   0.136415  -0.282478     2.67982e-01     8.67002e-02
      7375       7382      1   0.136415  -0.282478     2.67982e-01     8.67002e-02
      7375       7386      1   0.136415  -0.282478     2.67982e-01     8.67002e-02
      7374       7379      1  -0.170824   0.143525     2.67982e-01     8.67002e-02
      7374       7380      1  -0.170824   0.143525     2.67982e-01     8.67002e-02
      7374       7381      1  -0.170824   0.143525     2.67982e-01     8.67002e-02
      7374       7383      1  -0.170824   0.143525     2.67982e-01     8.67002e-02
      7374       7384      1  -0.170824   0.143525     2.67982e-01     8.67002e-02
      7374       7385      1  -0.170824   0.143525     2.67982e-01     8.67002e-02
      7374       7387      1  -0.170824   0.143525     2.67982e-01     8.67002e-02
      7374       7388      1  -0.170824   0.143525     2.67982e-01     8.67002e-02
      7374       7389      1  -0.170824   0.143525     2.67982e-01     8.67002e-02
      7373       7375      1   0.078534   0.113679     2.21567e-01     3.28444e-02
      7373       7376      1   0.078534   0.113679     2.21567e-01     3.28444e-02
      7373       7377      1   0.078534   0.204385     2.86068e-01     1.08078e-01
      7372       7375      1   0.078534   0.113679     2.21567e-01     3.28444e-02
      7372       7376      1   0.078534   0.113679     2.21567e-01     3.28444e-02
      7372       7377      1   0.078534   0.204385     2.86068e-01     1.08078e-01
      7370       7375      1  -0.508176   0.113679     2.47999e-01     1.08078e-01
      7370       7376      1  -0.508176   0.113679     2.47999e-01     1.08078e-01
      7369       7372      1   1.339721   0.065445     3.10656e-01     1.17227e-01
      7369       7373      1   1.339721   0.065445     3.10656e-01     1.17227e-01
      7367       7392      1   0.095591  -0.460790     2.73568e-01     1.08078e-01
      7367       7369      1   0.095591   1.116434     3.10656e-01     1.17227e-01
      7366       7392      1   0.095591  -0.460790     2.73568e-01     1.08078e-01
      7366       7369      1   0.095591   1.116434     3.10656e-01     1.17227e-01
      7364       7366      1   0.063253   0.079659     2.47135e-01     3.28444e-02
      7364       7367      1   0.063253   0.079659     2.47135e-01     3.28444e-02
      7364       7368      1   0.063253  -0.424567     2.73568e-01     1.08078e-01
      7364       7393      1   0.063253   0.748011     2.93551e-01     7.68707e-02
      7362       7364      1   0.070469   0.052711     2.47135e-01     3.28444e-02
      7362       7365      1   0.070469   0.014549     2.93551e-01     8.67002e-02
      7362       7392      1   0.070469  -0.460790     2.73568e-01     1.08078e-01
      7361       7364      1   0.070469   0.052711     2.47135e-01     3.28444e-02
      7361       7365      1   0.070469   0.014549     2.93551e-01     8.67002e-02
      7361       7392      1   0.070469  -0.460790     2.73568e-01     1.08078e-01
      7360       7366      1   0.196939   0.079659     2.93551e-01     8.67002e-02
      7360       7367      1   0.196939   0.079659     2.93551e-01     8.67002e-02
      7359       7364      1  -0.575489   0.052711     2.73568e-01     1.08078e-01
      7357       7361      1   0.910403   0.058724     2.93551e-01     7.68707e-02
      7357       7362      1   0.910403   0.058724     2.93551e-01     7.68707e-02
      7431       7434      1   0.018859   0.044953     2.60142e-01     2.09200e-02
      7431       7433      1   0.018859   0.044953     2.60142e-01     2.09200e-02
      7430       7434      1   0.018859   0.044953     2.60142e-01     2.09200e-02
      7430       7433      1   0.018859   0.044953     2.60142e-01     2.09200e-02
      7428       7432      1   0.020431  -0.136833     3.00055e-01     6.91943e-02
      7428       7431      1   0.020431   0.015716     2.60142e-01     2.09200e-02
      7428       7430      1   0.020431   0.015716     2.60142e-01     2.09200e-02
      7427       7432      1   0.020431  -0.136833     3.00055e-01     6.91943e-02
      7427       7431      1   0.020431   0.015716     2.60142e-01     2.09200e-02
      7427       7430      1   0.020431   0.015716     2.60142e-01     2.09200e-02
      7426       7434      1  -0.026954   0.044953     3.00055e-01     6.91943e-02
      7426       7433      1  -0.026954   0.044953     3.00055e-01     6.91943e-02
      7425       7429      1   0.010573  -0.002029     3.00055e-01     6.91943e-02
      7425       7428      1   0.010573   0.017026     2.60142e-01     2.09200e-02
      7425       7427      1   0.010573   0.017026     2.60142e-01     2.09200e-02
      7424       7429      1   0.010573  -0.002029     3.00055e-01     6.91943e-02
      7424       7428      1   0.010573   0.017026     2.60142e-01     2.09200e-02
      7424       7427      1   0.010573   0.017026     2.60142e-01     2.09200e-02
      7423       7431      1  -0.016521   0.015716     3.00055e-01     6.91943e-02
      7423       7430      1  -0.016521   0.015716     3.00055e-01     6.91943e-02
      7422       7426      1   0.011511  -0.022462     3.00055e-01     6.91943e-02
      7422       7424      1   0.011511   0.008811     2.60142e-01     2.09200e-02
      7422       7425      1   0.011511   0.008811     2.60142e-01     2.09200e-02
      7421       7426      1   0.011511  -0.022462     3.00055e-01     6.91943e-02
      7421       7424      1   0.011511   0.008811     2.60142e-01     2.09200e-02
      7421       7425      1   0.011511   0.008811     2.60142e-01     2.09200e-02
      7420       7428      1  -0.027812   0.017026     3.00055e-01     6.91943e-02
      7420       7427      1  -0.027812   0.017026     3.00055e-01     6.91943e-02
      7419       7423      1   0.006833  -0.013767     3.00055e-01     6.91943e-02
      7419       7421      1   0.006833   0.009592     2.60142e-01     2.09200e-02
      7419       7422      1   0.006833   0.009592     2.60142e-01     2.09200e-02
      7418       7423      1   0.006833  -0.013767     3.00055e-01     6.91943e-02
      7418       7421      1   0.006833   0.009592     2.60142e-01     2.09200e-02
      7418       7422      1   0.006833   0.009592     2.60142e-01     2.09200e-02
      7417       7424      1  -0.004386   0.008811     3.00055e-01     6.91943e-02
      7417       7425      1  -0.004386   0.008811     3.00055e-01     6.91943e-02
      7416       7420      1   0.011241  -0.023177     3.00055e-01     6.91943e-02
      7416       7418      1   0.011241   0.005694     2.60142e-01     2.09200e-02
      7416       7419      1   0.011241   0.005694     2.60142e-01     2.09200e-02
      7415       7420      1   0.011241  -0.023177     3.00055e-01     6.91943e-02
      7415       7418      1   0.011241   0.005694     2.60142e-01     2.09200e-02
      7415       7419      1   0.011241   0.005694     2.60142e-01     2.09200e-02
      7414       7421      1  -0.026451   0.009592     3.00055e-01     6.91943e-02
      7414       7422      1  -0.026451   0.009592     3.00055e-01     6.91943e-02
      7413       7417      1   0.010172  -0.003655     3.00055e-01     6.91943e-02
      7413       7416      1   0.010172   0.009367     2.60142e-01     2.09200e-02
      7413       7415      1   0.010172   0.009367     2.60142e-01     2.09200e-02
      7412       7417      1   0.010172  -0.003655     3.00055e-01     6.91943e-02
      7412       7416      1   0.010172   0.009367     2.60142e-01     2.09200e-02
      7412       7415      1   0.010172   0.009367     2.60142e-01     2.09200e-02
      7411       7418      1  -0.014653   0.005694     3.00055e-01     6.91943e-02
      7411       7419      1  -0.014653   0.005694     3.00055e-01     6.91943e-02
      7410       7414      1   0.010037  -0.022042     3.00055e-01     6.91943e-02
      7410       7412      1   0.010037   0.008477     2.60142e-01     2.09200e-02
      7410       7413      1   0.010037   0.008477     2.60142e-01     2.09200e-02
      7409       7414      1   0.010037  -0.022042     3.00055e-01     6.91943e-02
      7409       7412      1   0.010037   0.008477     2.60142e-01     2.09200e-02
      7409       7413      1   0.010037   0.008477     2.60142e-01     2.09200e-02
      7408       7416      1  -0.021025   0.009367     3.00055e-01     6.91943e-02
      7408       7415      1  -0.021025   0.009367     3.00055e-01     6.91943e-02
      7407       7411      1   0.012677  -0.012211     3.00055e-01     6.91943e-02
      7407       7410      1   0.012677   0.008364     2.60142e-01     2.09200e-02
      7407       7409      1   0.012677   0.008364     2.60142e-01     2.09200e-02
      7406       7411      1   0.012677  -0.012211     3.00055e-01     6.91943e-02
      7406       7410      1   0.012677   0.008364     2.60142e-01     2.09200e-02
      7406       7409      1   0.012677   0.008364     2.60142e-01     2.09200e-02
      7405       7412      1  -0.031787   0.008477     3.00055e-01     6.91943e-02
      7405       7413      1  -0.031787   0.008477     3.00055e-01     6.91943e-02
      7404       7408      1   0.017208  -0.017521     3.00055e-01     6.91943e-02
      7404       7406      1   0.017208   0.010564     2.60142e-01     2.09200e-02
      7404       7407      1   0.017208   0.010564     2.60142e-01     2.09200e-02
      7403       7408      1   0.017208  -0.017521     3.00055e-01     6.91943e-02
      7403       7406      1   0.017208   0.010564     2.60142e-01     2.09200e-02
      7403       7407      1   0.017208   0.010564     2.60142e-01     2.09200e-02
      7402       7410      1  -0.028094   0.008364     3.00055e-01     6.91943e-02
      7402       7409      1  -0.028094   0.008364     3.00055e-01     6.91943e-02
      7401       7405      1   0.007531  -0.026489     3.00055e-01     6.91943e-02
      7401       7404      1   0.007531   0.014340     2.60142e-01     2.09200e-02
      7401       7403      1   0.007531   0.014340     2.60142e-01     2.09200e-02
      7400       7405      1   0.007531  -0.026489     3.00055e-01     6.91943e-02
      7400       7404      1   0.007531   0.014340     2.60142e-01     2.09200e-02
      7400       7403      1   0.007531   0.014340     2.60142e-01     2.09200e-02
      7399       7406      1   0.017463   0.010564     3.00055e-01     6.91943e-02
      7399       7407      1   0.017463   0.010564     3.00055e-01     6.91943e-02
      7398       7402      1   0.025511  -0.023412     3.00055e-01     6.91943e-02
      7398       7400      1   0.025511   0.006276     2.60142e-01     2.09200e-02
      7398       7401      1   0.025511   0.006276     2.60142e-01     2.09200e-02
      7397       7402      1   0.025511  -0.023412     3.00055e-01     6.91943e-02
      7397       7400      1   0.025511   0.006276     2.60142e-01     2.09200e-02
      7397       7401      1   0.025511   0.006276     2.60142e-01     2.09200e-02
      7396       7404      1  -0.111712   0.014340     3.00055e-01     6.91943e-02
      7396       7403      1  -0.111712   0.014340     3.00055e-01     6.91943e-02
      7395       7402      1   0.025511  -0.023412     3.00055e-01     6.91943e-02
      7395       7400      1   0.025511   0.006276     2.60142e-01     2.09200e-02
      7395       7401      1   0.025511   0.006276     2.60142e-01     2.09200e-02
      7474       7476      1   0.053944  -0.559638     2.78067e-01     9.58675e-02
      7474       7477      1   0.053944  -0.479574     2.80072e-01     8.62554e-02
      7473       7476      1   0.053944  -0.559638     2.78067e-01     9.58675e-02
      7473       7477      1   0.053944  -0.479574     2.80072e-01     8.62554e-02
      7471       7474      1   0.018859   0.044953     2.60142e-01     2.09200e-02
      7471       7473      1   0.018859   0.044953     2.60142e-01     2.09200e-02
      7471       7475      1   0.018859   0.758669     3.00055e-01     6.13495e-02
      7470       7474      1   0.018859   0.044953     2.60142e-01     2.09200e-02
      7470       7473      1   0.018859   0.044953     2.60142e-01     2.09200e-02
      7470       7475      1   0.018859   0.758669     3.00055e-01     6.13495e-02
      7468       7472      1   0.020431  -0.136833     3.00055e-01     6.91943e-02
      7468       7471      1   0.020431   0.015716     2.60142e-01     2.09200e-02
      7468       7470      1   0.020431   0.015716     2.60142e-01     2.09200e-02
      7467       7472      1   0.020431  -0.136833     3.00055e-01     6.91943e-02
      7467       7471      1   0.020431   0.015716     2.60142e-01     2.09200e-02
      7467       7470      1   0.020431   0.015716     2.60142e-01     2.09200e-02
      7466       7474      1  -0.026954   0.044953     3.00055e-01     6.91943e-02
      7466       7473      1  -0.026954   0.044953     3.00055e-01     6.91943e-02
      7465       7469      1   0.010573  -0.002029     3.00055e-01     6.91943e-02
      7465       7468      1   0.010573   0.017026     2.60142e-01     2.09200e-02
      7465       7467      1   0.010573   0.017026     2.60142e-01     2.09200e-02
      7464       7469      1   0.010573  -0.002029     3.00055e-01     6.91943e-02
      7464       7468      1   0.010573   0.017026     2.60142e-01     2.09200e-02
      7464       7467      1   0.010573   0.017026     2.60142e-01     2.09200e-02
      7463       7471      1  -0.016521   0.015716     3.00055e-01     6.91943e-02
      7463       7470      1  -0.016521   0.015716     3.00055e-01     6.91943e-02
      7462       7466      1   0.011511  -0.022462     3.00055e-01     6.91943e-02
      7462       7464      1   0.011511   0.008811     2.60142e-01     2.09200e-02
      7462       7465      1   0.011511   0.008811     2.60142e-01     2.09200e-02
      7461       7466      1   0.011511  -0.022462     3.00055e-01     6.91943e-02
      7461       7464      1   0.011511   0.008811     2.60142e-01     2.09200e-02
      7461       7465      1   0.011511   0.008811     2.60142e-01     2.09200e-02
      7460       7468      1  -0.027812   0.017026     3.00055e-01     6.91943e-02
      7460       7467      1  -0.027812   0.017026     3.00055e-01     6.91943e-02
      7459       7463      1   0.006833  -0.013767     3.00055e-01     6.91943e-02
      7459       7461      1   0.006833   0.009592     2.60142e-01     2.09200e-02
      7459       7462      1   0.006833   0.009592     2.60142e-01     2.09200e-02
      7458       7463      1   0.006833  -0.013767     3.00055e-01     6.91943e-02
      7458       7461      1   0.006833   0.009592     2.60142e-01     2.09200e-02
      7458       7462      1   0.006833   0.009592     2.60142e-01     2.09200e-02
      7457       7464      1  -0.004386   0.008811     3.00055e-01     6.91943e-02
      7457       7465      1  -0.004386   0.008811     3.00055e-01     6.91943e-02
      7456       7460      1   0.011241  -0.023177     3.00055e-01     6.91943e-02
      7456       7458      1   0.011241   0.005694     2.60142e-01     2.09200e-02
      7456       7459      1   0.011241   0.005694     2.60142e-01     2.09200e-02
      7455       7460      1   0.011241  -0.023177     3.00055e-01     6.91943e-02
      7455       7458      1   0.011241   0.005694     2.60142e-01     2.09200e-02
      7455       7459      1   0.011241   0.005694     2.60142e-01     2.09200e-02
      7454       7461      1  -0.026451   0.009592     3.00055e-01     6.91943e-02
      7454       7462      1  -0.026451   0.009592     3.00055e-01     6.91943e-02
      7453       7457      1   0.010172  -0.003655     3.00055e-01     6.91943e-02
      7453       7456      1   0.010172   0.009367     2.60142e-01     2.09200e-02
      7453       7455      1   0.010172   0.009367     2.60142e-01     2.09200e-02
      7452       7457      1   0.010172  -0.003655     3.00055e-01     6.91943e-02
      7452       7456      1   0.010172   0.009367     2.60142e-01     2.09200e-02
      7452       7455      1   0.010172   0.009367     2.60142e-01     2.09200e-02
      7451       7458      1  -0.014653   0.005694     3.00055e-01     6.91943e-02
      7451       7459      1  -0.014653   0.005694     3.00055e-01     6.91943e-02
      7450       7454      1   0.010037  -0.022042     3.00055e-01     6.91943e-02
      7450       7452      1   0.010037   0.008477     2.60142e-01     2.09200e-02
      7450       7453      1   0.010037   0.008477     2.60142e-01     2.09200e-02
      7449       7454      1   0.010037  -0.022042     3.00055e-01     6.91943e-02
      7449       7452      1   0.010037   0.008477     2.60142e-01     2.09200e-02
      7449       7453      1   0.010037   0.008477     2.60142e-01     2.09200e-02
      7448       7456      1  -0.021025   0.009367     3.00055e-01     6.91943e-02
      7448       7455      1  -0.021025   0.009367     3.00055e-01     6.91943e-02
      7447       7451      1   0.012677  -0.012211     3.00055e-01     6.91943e-02
      7447       7450      1   0.012677   0.008364     2.60142e-01     2.09200e-02
      7447       7449      1   0.012677   0.008364     2.60142e-01     2.09200e-02
      7446       7451      1   0.012677  -0.012211     3.00055e-01     6.91943e-02
      7446       7450      1   0.012677   0.008364     2.60142e-01     2.09200e-02
      7446       7449      1   0.012677   0.008364     2.60142e-01     2.09200e-02
      7445       7452      1  -0.031787   0.008477     3.00055e-01     6.91943e-02
      7445       7453      1  -0.031787   0.008477     3.00055e-01     6.91943e-02
      7444       7448      1   0.017208  -0.017521     3.00055e-01     6.91943e-02
      7444       7446      1   0.017208   0.010564     2.60142e-01     2.09200e-02
      7444       7447      1   0.017208   0.010564     2.60142e-01     2.09200e-02
      7443       7448      1   0.017208  -0.017521     3.00055e-01     6.91943e-02
      7443       7446      1   0.017208   0.010564     2.60142e-01     2.09200e-02
      7443       7447      1   0.017208   0.010564     2.60142e-01     2.09200e-02
      7442       7450      1  -0.028094   0.008364     3.00055e-01     6.91943e-02
      7442       7449      1  -0.028094   0.008364     3.00055e-01     6.91943e-02
      7441       7445      1   0.007531  -0.026489     3.00055e-01     6.91943e-02
      7441       7444      1   0.007531   0.014340     2.60142e-01     2.09200e-02
      7441       7443      1   0.007531   0.014340     2.60142e-01     2.09200e-02
      7440       7445      1   0.007531  -0.026489     3.00055e-01     6.91943e-02
      7440       7444      1   0.007531   0.014340     2.60142e-01     2.09200e-02
      7440       7443      1   0.007531   0.014340     2.60142e-01     2.09200e-02
      7439       7446      1   0.017463   0.010564     3.00055e-01     6.91943e-02
      7439       7447      1   0.017463   0.010564     3.00055e-01     6.91943e-02
      7438       7442      1   0.025511  -0.023412     3.00055e-01     6.91943e-02
      7438       7440      1   0.025511   0.006276     2.60142e-01     2.09200e-02
      7438       7441      1   0.025511   0.006276     2.60142e-01     2.09200e-02
      7437       7442      1   0.025511  -0.023412     3.00055e-01     6.91943e-02
      7437       7440      1   0.025511   0.006276     2.60142e-01     2.09200e-02
      7437       7441      1   0.025511   0.006276     2.60142e-01     2.09200e-02
      7436       7444      1  -0.111712   0.014340     3.00055e-01     6.91943e-02
      7436       7443      1  -0.111712   0.014340     3.00055e-01     6.91943e-02
      7435       7442      1   0.025511  -0.023412     3.00055e-01     6.91943e-02
      7435       7440      1   0.025511   0.006276     2.60142e-01     2.09200e-02
      7435       7441      1   0.025511   0.006276     2.60142e-01     2.09200e-02
      7512       7552      1  -0.673755   0.044953     2.78067e-01     9.58675e-02
      7512       7551      1  -0.673755   0.044953     2.78067e-01     9.58675e-02
      7511       7549      1   0.897613   0.015716     3.00055e-01     6.13495e-02
      7511       7548      1   0.897613   0.015716     3.00055e-01     6.13495e-02
      7510       7552      1  -0.552948   0.044953     2.80072e-01     8.62554e-02
      7510       7551      1  -0.552948   0.044953     2.80072e-01     8.62554e-02
      7503       7504      1   0.172230  -0.282478     2.67982e-01     8.67002e-02
      7502       7504      1   0.172230  -0.282478     2.67982e-01     8.67002e-02
      7501       7504      1   0.172230  -0.282478     2.67982e-01     8.67002e-02
      7500       7505      1  -0.338973   0.143525     2.67982e-01     8.67002e-02
      7500       7506      1  -0.338973   0.143525     2.67982e-01     8.67002e-02
      7500       7507      1  -0.338973   0.143525     2.67982e-01     8.67002e-02
      7499       7500      1   0.172230  -0.282478     2.67982e-01     8.67002e-02
      7499       7504      1   0.172230  -0.282478     2.67982e-01     8.67002e-02
      7498       7500      1   0.172230  -0.282478     2.67982e-01     8.67002e-02
      7498       7504      1   0.172230  -0.282478     2.67982e-01     8.67002e-02
      7497       7500      1   0.172230  -0.282478     2.67982e-01     8.67002e-02
      7497       7504      1   0.172230  -0.282478     2.67982e-01     8.67002e-02
      7496       7501      1  -0.338973   0.143525     2.67982e-01     8.67002e-02
      7496       7502      1  -0.338973   0.143525     2.67982e-01     8.67002e-02
      7496       7503      1  -0.338973   0.143525     2.67982e-01     8.67002e-02
      7496       7505      1  -0.338973   0.143525     2.67982e-01     8.67002e-02
      7496       7506      1  -0.338973   0.143525     2.67982e-01     8.67002e-02
      7496       7507      1  -0.338973   0.143525     2.67982e-01     8.67002e-02
      7494       7496      1   0.136415  -0.282478     2.67982e-01     8.67002e-02
      7494       7500      1   0.136415  -0.282478     2.67982e-01     8.67002e-02
      7494       7504      1   0.136415  -0.282478     2.67982e-01     8.67002e-02
      7493       7496      1   0.136415  -0.282478     2.67982e-01     8.67002e-02
      7493       7500      1   0.136415  -0.282478     2.67982e-01     8.67002e-02
      7493       7504      1   0.136415  -0.282478     2.67982e-01     8.67002e-02
      7492       7497      1  -0.170824   0.143525     2.67982e-01     8.67002e-02
      7492       7498      1  -0.170824   0.143525     2.67982e-01     8.67002e-02
      7492       7499      1  -0.170824   0.143525     2.67982e-01     8.67002e-02
      7492       7501      1  -0.170824   0.143525     2.67982e-01     8.67002e-02
      7492       7502      1  -0.170824   0.143525     2.67982e-01     8.67002e-02
      7492       7503      1  -0.170824   0.143525     2.67982e-01     8.67002e-02
      7492       7505      1  -0.170824   0.143525     2.67982e-01     8.67002e-02
      7492       7506      1  -0.170824   0.143525     2.67982e-01     8.67002e-02
      7492       7507      1  -0.170824   0.143525     2.67982e-01     8.67002e-02
      7491       7493      1   0.078534   0.113679     2.21567e-01     3.28444e-02
      7491       7494      1   0.078534   0.113679     2.21567e-01     3.28444e-02
      7491       7495      1   0.078534   0.204385     2.86068e-01     1.08078e-01
      7490       7493      1   0.078534   0.113679     2.21567e-01     3.28444e-02
      7490       7494      1   0.078534   0.113679     2.21567e-01     3.28444e-02
      7490       7495      1   0.078534   0.204385     2.86068e-01     1.08078e-01
      7488       7493      1  -0.508176   0.113679     2.47999e-01     1.08078e-01
      7488       7494      1  -0.508176   0.113679     2.47999e-01     1.08078e-01
      7487       7490      1   1.339721   0.065445     3.10656e-01     1.17227e-01
      7487       7491      1   1.339721   0.065445     3.10656e-01     1.17227e-01
      7485       7510      1   0.095591  -0.460790     2.73568e-01     1.08078e-01
      7485       7487      1   0.095591   1.116434     3.10656e-01     1.17227e-01
      7484       7510      1   0.095591  -0.460790     2.73568e-01     1.08078e-01
      7484       7487      1   0.095591   1.116434     3.10656e-01     1.17227e-01
      7482       7484      1   0.063253   0.079659     2.47135e-01     3.28444e-02
      7482       7485      1   0.063253   0.079659     2.47135e-01     3.28444e-02
      7482       7486      1   0.063253  -0.424567     2.73568e-01     1.08078e-01
      7482       7511      1   0.063253   0.748011     2.93551e-01     7.68707e-02
      7480       7482      1   0.070469   0.052711     2.47135e-01     3.28444e-02
      7480       7483      1   0.070469   0.014549     2.93551e-01     8.67002e-02
      7480       7510      1   0.070469  -0.460790     2.73568e-01     1.08078e-01
      7479       7482      1   0.070469   0.052711     2.47135e-01     3.28444e-02
      7479       7483      1   0.070469   0.014549     2.93551e-01     8.67002e-02
      7479       7510      1   0.070469  -0.460790     2.73568e-01     1.08078e-01
      7478       7484      1   0.196939   0.079659     2.93551e-01     8.67002e-02
      7478       7485      1   0.196939   0.079659     2.93551e-01     8.67002e-02
      7477       7482      1  -0.575489   0.052711     2.73568e-01     1.08078e-01
      7475       7479      1   0.910403   0.058724     2.93551e-01     7.68707e-02
      7475       7480      1   0.910403   0.058724     2.93551e-01     7.68707e-02
      7549       7552      1   0.018859   0.044953     2.60142e-01     2.09200e-02
      7549       7551      1   0.018859   0.044953     2.60142e-01     2.09200e-02
      7548       7552      1   0.018859   0.044953     2.60142e-01     2.09200e-02
      7548       7551      1   0.018859   0.044953     2.60142e-01     2.09200e-02
      7546       7550      1   0.020431  -0.136833     3.00055e-01     6.91943e-02
      7546       7549      1   0.020431   0.015716     2.60142e-01     2.09200e-02
      7546       7548      1   0.020431   0.015716     2.60142e-01     2.09200e-02
      7545       7550      1   0.020431  -0.136833     3.00055e-01     6.91943e-02
      7545       7549      1   0.020431   0.015716     2.60142e-01     2.09200e-02
      7545       7548      1   0.020431   0.015716     2.60142e-01     2.09200e-02
      7544       7552      1  -0.026954   0.044953     3.00055e-01     6.91943e-02
      7544       7551      1  -0.026954   0.044953     3.00055e-01     6.91943e-02
      7543       7547      1   0.010573  -0.002029     3.00055e-01     6.91943e-02
      7543       7546      1   0.010573   0.017026     2.60142e-01     2.09200e-02
      7543       7545      1   0.010573   0.017026     2.60142e-01     2.09200e-02
      7542       7547      1   0.010573  -0.002029     3.00055e-01     6.91943e-02
      7542       7546      1   0.010573   0.017026     2.60142e-01     2.09200e-02
      7542       7545      1   0.010573   0.017026     2.60142e-01     2.09200e-02
      7541       7549      1  -0.016521   0.015716     3.00055e-01     6.91943e-02
      7541       7548      1  -0.016521   0.015716     3.00055e-01     6.91943e-02
      7540       7544      1   0.011511  -0.022462     3.00055e-01     6.91943e-02
      7540       7542      1   0.011511   0.008811     2.60142e-01     2.09200e-02
      7540       7543      1   0.011511   0.008811     2.60142e-01     2.09200e-02
      7539       7544      1   0.011511  -0.022462     3.00055e-01     6.91943e-02
      7539       7542      1   0.011511   0.008811     2.60142e-01     2.09200e-02
      7539       7543      1   0.011511   0.008811     2.60142e-01     2.09200e-02
      7538       7546      1  -0.027812   0.017026     3.00055e-01     6.91943e-02
      7538       7545      1  -0.027812   0.017026     3.00055e-01     6.91943e-02
      7537       7541      1   0.006833  -0.013767     3.00055e-01     6.91943e-02
      7537       7539      1   0.006833   0.009592     2.60142e-01     2.09200e-02
      7537       7540      1   0.006833   0.009592     2.60142e-01     2.09200e-02
      7536       7541      1   0.006833  -0.013767     3.00055e-01     6.91943e-02
      7536       7539      1   0.006833   0.009592     2.60142e-01     2.09200e-02
      7536       7540      1   0.006833   0.009592     2.60142e-01     2.09200e-02
      7535       7542      1  -0.004386   0.008811     3.00055e-01     6.91943e-02
      7535       7543      1  -0.004386   0.008811     3.00055e-01     6.91943e-02
      7534       7538      1   0.011241  -0.023177     3.00055e-01     6.91943e-02
      7534       7536      1   0.011241   0.005694     2.60142e-01     2.09200e-02
      7534       7537      1   0.011241   0.005694     2.60142e-01     2.09200e-02
      7533       7538      1   0.011241  -0.023177     3.00055e-01     6.91943e-02
      7533       7536      1   0.011241   0.005694     2.60142e-01     2.09200e-02
      7533       7537      1   0.011241   0.005694     2.60142e-01     2.09200e-02
      7532       7539      1  -0.026451   0.009592     3.00055e-01     6.91943e-02
      7532       7540      1  -0.026451   0.009592     3.00055e-01     6.91943e-02
      7531       7535      1   0.010172  -0.003655     3.00055e-01     6.91943e-02
      7531       7534      1   0.010172   0.009367     2.60142e-01     2.09200e-02
      7531       7533      1   0.010172   0.009367     2.60142e-01     2.09200e-02
      7530       7535      1   0.010172  -0.003655     3.00055e-01     6.91943e-02
      7530       7534      1   0.010172   0.009367     2.60142e-01     2.09200e-02
      7530       7533      1   0.010172   0.009367     2.60142e-01     2.09200e-02
      7529       7536      1  -0.014653   0.005694     3.00055e-01     6.91943e-02
      7529       7537      1  -0.014653   0.005694     3.00055e-01     6.91943e-02
      7528       7532      1   0.010037  -0.022042     3.00055e-01     6.91943e-02
      7528       7530      1   0.010037   0.008477     2.60142e-01     2.09200e-02
      7528       7531      1   0.010037   0.008477     2.60142e-01     2.09200e-02
      7527       7532      1   0.010037  -0.022042     3.00055e-01     6.91943e-02
      7527       7530      1   0.010037   0.008477     2.60142e-01     2.09200e-02
      7527       7531      1   0.010037   0.008477     2.60142e-01     2.09200e-02
      7526       7534      1  -0.021025   0.009367     3.00055e-01     6.91943e-02
      7526       7533      1  -0.021025   0.009367     3.00055e-01     6.91943e-02
      7525       7529      1   0.012677  -0.012211     3.00055e-01     6.91943e-02
      7525       7528      1   0.012677   0.008364     2.60142e-01     2.09200e-02
      7525       7527      1   0.012677   0.008364     2.60142e-01     2.09200e-02
      7524       7529      1   0.012677  -0.012211     3.00055e-01     6.91943e-02
      7524       7528      1   0.012677   0.008364     2.60142e-01     2.09200e-02
      7524       7527      1   0.012677   0.008364     2.60142e-01     2.09200e-02
      7523       7530      1  -0.031787   0.008477     3.00055e-01     6.91943e-02
      7523       7531      1  -0.031787   0.008477     3.00055e-01     6.91943e-02
      7522       7526      1   0.017208  -0.017521     3.00055e-01     6.91943e-02
      7522       7524      1   0.017208   0.010564     2.60142e-01     2.09200e-02
      7522       7525      1   0.017208   0.010564     2.60142e-01     2.09200e-02
      7521       7526      1   0.017208  -0.017521     3.00055e-01     6.91943e-02
      7521       7524      1   0.017208   0.010564     2.60142e-01     2.09200e-02
      7521       7525      1   0.017208   0.010564     2.60142e-01     2.09200e-02
      7520       7528      1  -0.028094   0.008364     3.00055e-01     6.91943e-02
      7520       7527      1  -0.028094   0.008364     3.00055e-01     6.91943e-02
      7519       7523      1   0.007531  -0.026489     3.00055e-01     6.91943e-02
      7519       7522      1   0.007531   0.014340     2.60142e-01     2.09200e-02
      7519       7521      1   0.007531   0.014340     2.60142e-01     2.09200e-02
      7518       7523      1   0.007531  -0.026489     3.00055e-01     6.91943e-02
      7518       7522      1   0.007531   0.014340     2.60142e-01     2.09200e-02
      7518       7521      1   0.007531   0.014340     2.60142e-01     2.09200e-02
      7517       7524      1   0.017463   0.010564     3.00055e-01     6.91943e-02
      7517       7525      1   0.017463   0.010564     3.00055e-01     6.91943e-02
      7516       7520      1   0.025511  -0.023412     3.00055e-01     6.91943e-02
      7516       7518      1   0.025511   0.006276     2.60142e-01     2.09200e-02
      7516       7519      1   0.025511   0.006276     2.60142e-01     2.09200e-02
      7515       7520      1   0.025511  -0.023412     3.00055e-01     6.91943e-02
      7515       7518      1   0.025511   0.006276     2.60142e-01     2.09200e-02
      7515       7519      1   0.025511   0.006276     2.60142e-01     2.09200e-02
      7514       7522      1  -0.111712   0.014340     3.00055e-01     6.91943e-02
      7514       7521      1  -0.111712   0.014340     3.00055e-01     6.91943e-02
      7513       7520      1   0.025511  -0.023412     3.00055e-01     6.91943e-02
      7513       7518      1   0.025511   0.006276     2.60142e-01     2.09200e-02
      7513       7519      1   0.025511   0.006276     2.60142e-01     2.09200e-02
      7592       7594      1   0.053944  -0.559638     2.78067e-01     9.58675e-02
      7592       7595      1   0.053944  -0.479574     2.80072e-01     8.62554e-02
      7591       7594      1   0.053944  -0.559638     2.78067e-01     9.58675e-02
      7591       7595      1   0.053944  -0.479574     2.80072e-01     8.62554e-02
      7589       7592      1   0.018859   0.044953     2.60142e-01     2.09200e-02
      7589       7591      1   0.018859   0.044953     2.60142e-01     2.09200e-02
      7589       7593      1   0.018859   0.758669     3.00055e-01     6.13495e-02
      7588       7592      1   0.018859   0.044953     2.60142e-01     2.09200e-02
      7588       7591      1   0.018859   0.044953     2.60142e-01     2.09200e-02
      7588       7593      1   0.018859   0.758669     3.00055e-01     6.13495e-02
      7586       7590      1   0.020431  -0.136833     3.00055e-01     6.91943e-02
      7586       7589      1   0.020431   0.015716     2.60142e-01     2.09200e-02
      7586       7588      1   0.020431   0.015716     2.60142e-01     2.09200e-02
      7585       7590      1   0.020431  -0.136833     3.00055e-01     6.91943e-02
      7585       7589      1   0.020431   0.015716     2.60142e-01     2.09200e-02
      7585       7588      1   0.020431   0.015716     2.60142e-01     2.09200e-02
      7584       7592      1  -0.026954   0.044953     3.00055e-01     6.91943e-02
      7584       7591      1  -0.026954   0.044953     3.00055e-01     6.91943e-02
      7583       7587      1   0.010573  -0.002029     3.00055e-01     6.91943e-02
      7583       7586      1   0.010573   0.017026     2.60142e-01     2.09200e-02
      7583       7585      1   0.010573   0.017026     2.60142e-01     2.09200e-02
      7582       7587      1   0.010573  -0.002029     3.00055e-01     6.91943e-02
      7582       7586      1   0.010573   0.017026     2.60142e-01     2.09200e-02
      7582       7585      1   0.010573   0.017026     2.60142e-01     2.09200e-02
      7581       7589      1  -0.016521   0.015716     3.00055e-01     6.91943e-02
      7581       7588      1  -0.016521   0.015716     3.00055e-01     6.91943e-02
      7580       7584      1   0.011511  -0.022462     3.00055e-01     6.91943e-02
      7580       7582      1   0.011511   0.008811     2.60142e-01     2.09200e-02
      7580       7583      1   0.011511   0.008811     2.60142e-01     2.09200e-02
      7579       7584      1   0.011511  -0.022462     3.00055e-01     6.91943e-02
      7579       7582      1   0.011511   0.008811     2.60142e-01     2.09200e-02
      7579       7583      1   0.011511   0.008811     2.60142e-01     2.09200e-02
      7578       7586      1  -0.027812   0.017026     3.00055e-01     6.91943e-02
      7578       7585      1  -0.027812   0.017026     3.00055e-01     6.91943e-02
      7577       7581      1   0.006833  -0.013767     3.00055e-01     6.91943e-02
      7577       7579      1   0.006833   0.009592     2.60142e-01     2.09200e-02
      7577       7580      1   0.006833   0.009592     2.60142e-01     2.09200e-02
      7576       7581      1   0.006833  -0.013767     3.00055e-01     6.91943e-02
      7576       7579      1   0.006833   0.009592     2.60142e-01     2.09200e-02
      7576       7580      1   0.006833   0.009592     2.60142e-01     2.09200e-02
      7575       7582      1  -0.004386   0.008811     3.00055e-01     6.91943e-02
      7575       7583      1  -0.004386   0.008811     3.00055e-01     6.91943e-02
      7574       7578      1   0.011241  -0.023177     3.00055e-01     6.91943e-02
      7574       7576      1   0.011241   0.005694     2.60142e-01     2.09200e-02
      7574       7577      1   0.011241   0.005694     2.60142e-01     2.09200e-02
      7573       7578      1   0.011241  -0.023177     3.00055e-01     6.91943e-02
      7573       7576      1   0.011241   0.005694     2.60142e-01     2.09200e-02
      7573       7577      1   0.011241   0.005694     2.60142e-01     2.09200e-02
      7572       7579      1  -0.026451   0.009592     3.00055e-01     6.91943e-02
      7572       7580      1  -0.026451   0.009592     3.00055e-01     6.91943e-02
      7571       7575      1   0.010172  -0.003655     3.00055e-01     6.91943e-02
      7571       7574      1   0.010172   0.009367     2.60142e-01     2.09200e-02
      7571       7573      1   0.010172   0.009367     2.60142e-01     2.09200e-02
      7570       7575      1   0.010172  -0.003655     3.00055e-01     6.91943e-02
      7570       7574      1   0.010172   0.009367     2.60142e-01     2.09200e-02
      7570       7573      1   0.010172   0.009367     2.60142e-01     2.09200e-02
      7569       7576      1  -0.014653   0.005694     3.00055e-01     6.91943e-02
      7569       7577      1  -0.014653   0.005694     3.00055e-01     6.91943e-02
      7568       7572      1   0.010037  -0.022042     3.00055e-01     6.91943e-02
      7568       7570      1   0.010037   0.008477     2.60142e-01     2.09200e-02
      7568       7571      1   0.010037   0.008477     2.60142e-01     2.09200e-02
      7567       7572      1   0.010037  -0.022042     3.00055e-01     6.91943e-02
      7567       7570      1   0.010037   0.008477     2.60142e-01     2.09200e-02
      7567       7571      1   0.010037   0.008477     2.60142e-01     2.09200e-02
      7566       7574      1  -0.021025   0.009367     3.00055e-01     6.91943e-02
      7566       7573      1  -0.021025   0.009367     3.00055e-01     6.91943e-02
      7565       7569      1   0.012677  -0.012211     3.00055e-01     6.91943e-02
      7565       7568      1   0.012677   0.008364     2.60142e-01     2.09200e-02
      7565       7567      1   0.012677   0.008364     2.60142e-01     2.09200e-02
      7564       7569      1   0.012677  -0.012211     3.00055e-01     6.91943e-02
      7564       7568      1   0.012677   0.008364     2.60142e-01     2.09200e-02
      7564       7567      1   0.012677   0.008364     2.60142e-01     2.09200e-02
      7563       7570      1  -0.031787   0.008477     3.00055e-01     6.91943e-02
      7563       7571      1  -0.031787   0.008477     3.00055e-01     6.91943e-02
      7562       7566      1   0.017208  -0.017521     3.00055e-01     6.91943e-02
      7562       7564      1   0.017208   0.010564     2.60142e-01     2.09200e-02
      7562       7565      1   0.017208   0.010564     2.60142e-01     2.09200e-02
      7561       7566      1   0.017208  -0.017521     3.00055e-01     6.91943e-02
      7561       7564      1   0.017208   0.010564     2.60142e-01     2.09200e-02
      7561       7565      1   0.017208   0.010564     2.60142e-01     2.09200e-02
      7560       7568      1  -0.028094   0.008364     3.00055e-01     6.91943e-02
      7560       7567      1  -0.028094   0.008364     3.00055e-01     6.91943e-02
      7559       7563      1   0.007531  -0.026489     3.00055e-01     6.91943e-02
      7559       7562      1   0.007531   0.014340     2.60142e-01     2.09200e-02
      7559       7561      1   0.007531   0.014340     2.60142e-01     2.09200e-02
      7558       7563      1   0.007531  -0.026489     3.00055e-01     6.91943e-02
      7558       7562      1   0.007531   0.014340     2.60142e-01     2.09200e-02
      7558       7561      1   0.007531   0.014340     2.60142e-01     2.09200e-02
      7557       7564      1   0.017463   0.010564     3.00055e-01     6.91943e-02
      7557       7565      1   0.017463   0.010564     3.00055e-01     6.91943e-02
      7556       7560      1   0.025511  -0.023412     3.00055e-01     6.91943e-02
      7556       7558      1   0.025511   0.006276     2.60142e-01     2.09200e-02
      7556       7559      1   0.025511   0.006276     2.60142e-01     2.09200e-02
      7555       7560      1   0.025511  -0.023412     3.00055e-01     6.91943e-02
      7555       7558      1   0.025511   0.006276     2.60142e-01     2.09200e-02
      7555       7559      1   0.025511   0.006276     2.60142e-01     2.09200e-02
      7554       7562      1  -0.111712   0.014340     3.00055e-01     6.91943e-02
      7554       7561      1  -0.111712   0.014340     3.00055e-01     6.91943e-02
      7553       7560      1   0.025511  -0.023412     3.00055e-01     6.91943e-02
      7553       7558      1   0.025511   0.006276     2.60142e-01     2.09200e-02
      7553       7559      1   0.025511   0.006276     2.60142e-01     2.09200e-02
      7630       7670      1  -0.673755   0.044953     2.78067e-01     9.58675e-02
      7630       7669      1  -0.673755   0.044953     2.78067e-01     9.58675e-02
      7629       7667      1   0.897613   0.015716     3.00055e-01     6.13495e-02
      7629       7666      1   0.897613   0.015716     3.00055e-01     6.13495e-02
      7628       7670      1  -0.552948   0.044953     2.80072e-01     8.62554e-02
      7628       7669      1  -0.552948   0.044953     2.80072e-01     8.62554e-02
      7621       7622      1   0.172230  -0.282478     2.67982e-01     8.67002e-02
      7620       7622      1   0.172230  -0.282478     2.67982e-01     8.67002e-02
      7619       7622      1   0.172230  -0.282478     2.67982e-01     8.67002e-02
      7618       7623      1  -0.338973   0.143525     2.67982e-01     8.67002e-02
      7618       7624      1  -0.338973   0.143525     2.67982e-01     8.67002e-02
      7618       7625      1  -0.338973   0.143525     2.67982e-01     8.67002e-02
      7617       7618      1   0.172230  -0.282478     2.67982e-01     8.67002e-02
      7617       7622      1   0.172230  -0.282478     2.67982e-01     8.67002e-02
      7616       7618      1   0.172230  -0.282478     2.67982e-01     8.67002e-02
      7616       7622      1   0.172230  -0.282478     2.67982e-01     8.67002e-02
      7615       7618      1   0.172230  -0.282478     2.67982e-01     8.67002e-02
      7615       7622      1   0.172230  -0.282478     2.67982e-01     8.67002e-02
      7614       7619      1  -0.338973   0.143525     2.67982e-01     8.67002e-02
      7614       7620      1  -0.338973   0.143525     2.67982e-01     8.67002e-02
      7614       7621      1  -0.338973   0.143525     2.67982e-01     8.67002e-02
      7614       7623      1  -0.338973   0.143525     2.67982e-01     8.67002e-02
      7614       7624      1  -0.338973   0.143525     2.67982e-01     8.67002e-02
      7614       7625      1  -0.338973   0.143525     2.67982e-01     8.67002e-02
      7612       7614      1   0.136415  -0.282478     2.67982e-01     8.67002e-02
      7612       7618      1   0.136415  -0.282478     2.67982e-01     8.67002e-02
      7612       7622      1   0.136415  -0.282478     2.67982e-01     8.67002e-02
      7611       7614      1   0.136415  -0.282478     2.67982e-01     8.67002e-02
      7611       7618      1   0.136415  -0.282478     2.67982e-01     8.67002e-02
      7611       7622      1   0.136415  -0.282478     2.67982e-01     8.67002e-02
      7610       7615      1  -0.170824   0.143525     2.67982e-01     8.67002e-02
      7610       7616      1  -0.170824   0.143525     2.67982e-01     8.67002e-02
      7610       7617      1  -0.170824   0.143525     2.67982e-01     8.67002e-02
      7610       7619      1  -0.170824   0.143525     2.67982e-01     8.67002e-02
      7610       7620      1  -0.170824   0.143525     2.67982e-01     8.67002e-02
      7610       7621      1  -0.170824   0.143525     2.67982e-01     8.67002e-02
      7610       7623      1  -0.170824   0.143525     2.67982e-01     8.67002e-02
      7610       7624      1  -0.170824   0.143525     2.67982e-01     8.67002e-02
      7610       7625      1  -0.170824   0.143525     2.67982e-01     8.67002e-02
      7609       7611      1   0.078534   0.113679     2.21567e-01     3.28444e-02
      7609       7612      1   0.078534   0.113679     2.21567e-01     3.28444e-02
      7609       7613      1   0.078534   0.204385     2.86068e-01     1.08078e-01
      7608       7611      1   0.078534   0.113679     2.21567e-01     3.28444e-02
      7608       7612      1   0.078534   0.113679     2.21567e-01     3.28444e-02
      7608       7613      1   0.078534   0.204385     2.86068e-01     1.08078e-01
      7606       7611      1  -0.508176   0.113679     2.47999e-01     1.08078e-01
      7606       7612      1  -0.508176   0.113679     2.47999e-01     1.08078e-01
      7605       7608      1   1.339721   0.065445     3.10656e-01     1.17227e-01
      7605       7609      1   1.339721   0.065445     3.10656e-01     1.17227e-01
      7603       7628      1   0.095591  -0.460790     2.73568e-01     1.08078e-01
      7603       7605      1   0.095591   1.116434     3.10656e-01     1.17227e-01
      7602       7628      1   0.095591  -0.460790     2.73568e-01     1.08078e-01
      7602       7605      1   0.095591   1.116434     3.10656e-01     1.17227e-01
      7600       7602      1   0.063253   0.079659     2.47135e-01     3.28444e-02
      7600       7603      1   0.063253   0.079659     2.47135e-01     3.28444e-02
      7600       7604      1   0.063253  -0.424567     2.73568e-01     1.08078e-01
      7600       7629      1   0.063253   0.748011     2.93551e-01     7.68707e-02
      7598       7600      1   0.070469   0.052711     2.47135e-01     3.28444e-02
      7598       7601      1   0.070469   0.014549     2.93551e-01     8.67002e-02
      7598       7628      1   0.070469  -0.460790     2.73568e-01     1.08078e-01
      7597       7600      1   0.070469   0.052711     2.47135e-01     3.28444e-02
      7597       7601      1   0.070469   0.014549     2.93551e-01     8.67002e-02
      7597       7628      1   0.070469  -0.460790     2.73568e-01     1.08078e-01
      7596       7602      1   0.196939   0.079659     2.93551e-01     8.67002e-02
      7596       7603      1   0.196939   0.079659     2.93551e-01     8.67002e-02
      7595       7600      1  -0.575489   0.052711     2.73568e-01     1.08078e-01
      7593       7597      1   0.910403   0.058724     2.93551e-01     7.68707e-02
      7593       7598      1   0.910403   0.058724     2.93551e-01     7.68707e-02
      7667       7670      1   0.018859   0.044953     2.60142e-01     2.09200e-02
      7667       7669      1   0.018859   0.044953     2.60142e-01     2.09200e-02
      7666       7670      1   0.018859   0.044953     2.60142e-01     2.09200e-02
      7666       7669      1   0.018859   0.044953     2.60142e-01     2.09200e-02
      7664       7668      1   0.020431  -0.136833     3.00055e-01     6.91943e-02
      7664       7667      1   0.020431   0.015716     2.60142e-01     2.09200e-02
      7664       7666      1   0.020431   0.015716     2.60142e-01     2.09200e-02
      7663       7668      1   0.020431  -0.136833     3.00055e-01     6.91943e-02
      7663       7667      1   0.020431   0.015716     2.60142e-01     2.09200e-02
      7663       7666      1   0.020431   0.015716     2.60142e-01     2.09200e-02
      7662       7670      1  -0.026954   0.044953     3.00055e-01     6.91943e-02
      7662       7669      1  -0.026954   0.044953     3.00055e-01     6.91943e-02
      7661       7665      1   0.010573  -0.002029     3.00055e-01     6.91943e-02
      7661       7664      1   0.010573   0.017026     2.60142e-01     2.09200e-02
      7661       7663      1   0.010573   0.017026     2.60142e-01     2.09200e-02
      7660       7665      1   0.010573  -0.002029     3.00055e-01     6.91943e-02
      7660       7664      1   0.010573   0.017026     2.60142e-01     2.09200e-02
      7660       7663      1   0.010573   0.017026     2.60142e-01     2.09200e-02
      7659       7667      1  -0.016521   0.015716     3.00055e-01     6.91943e-02
      7659       7666      1  -0.016521   0.015716     3.00055e-01     6.91943e-02
      7658       7662      1   0.011511  -0.022462     3.00055e-01     6.91943e-02
      7658       7660      1   0.011511   0.008811     2.60142e-01     2.09200e-02
      7658       7661      1   0.011511   0.008811     2.60142e-01     2.09200e-02
      7657       7662      1   0.011511  -0.022462     3.00055e-01     6.91943e-02
      7657       7660      1   0.011511   0.008811     2.60142e-01     2.09200e-02
      7657       7661      1   0.011511   0.008811     2.60142e-01     2.09200e-02
      7656       7664      1  -0.027812   0.017026     3.00055e-01     6.91943e-02
      7656       7663      1  -0.027812   0.017026     3.00055e-01     6.91943e-02
      7655       7659      1   0.006833  -0.013767     3.00055e-01     6.91943e-02
      7655       7657      1   0.006833   0.009592     2.60142e-01     2.09200e-02
      7655       7658      1   0.006833   0.009592     2.60142e-01     2.09200e-02
      7654       7659      1   0.006833  -0.013767     3.00055e-01     6.91943e-02
      7654       7657      1   0.006833   0.009592     2.60142e-01     2.09200e-02
      7654       7658      1   0.006833   0.009592     2.60142e-01     2.09200e-02
      7653       7660      1  -0.004386   0.008811     3.00055e-01     6.91943e-02
      7653       7661      1  -0.004386   0.008811     3.00055e-01     6.91943e-02
      7652       7656      1   0.011241  -0.023177     3.00055e-01     6.91943e-02
      7652       7654      1   0.011241   0.005694     2.60142e-01     2.09200e-02
      7652       7655      1   0.011241   0.005694     2.60142e-01     2.09200e-02
      7651       7656      1   0.011241  -0.023177     3.00055e-01     6.91943e-02
      7651       7654      1   0.011241   0.005694     2.60142e-01     2.09200e-02
      7651       7655      1   0.011241   0.005694     2.60142e-01     2.09200e-02
      7650       7657      1  -0.026451   0.009592     3.00055e-01     6.91943e-02
      7650       7658      1  -0.026451   0.009592     3.00055e-01     6.91943e-02
      7649       7653      1   0.010172  -0.003655     3.00055e-01     6.91943e-02
      7649       7652      1   0.010172   0.009367     2.60142e-01     2.09200e-02
      7649       7651      1   0.010172   0.009367     2.60142e-01     2.09200e-02
      7648       7653      1   0.010172  -0.003655     3.00055e-01     6.91943e-02
      7648       7652      1   0.010172   0.009367     2.60142e-01     2.09200e-02
      7648       7651      1   0.010172   0.009367     2.60142e-01     2.09200e-02
      7647       7654      1  -0.014653   0.005694     3.00055e-01     6.91943e-02
      7647       7655      1  -0.014653   0.005694     3.00055e-01     6.91943e-02
      7646       7650      1   0.010037  -0.022042     3.00055e-01     6.91943e-02
      7646       7648      1   0.010037   0.008477     2.60142e-01     2.09200e-02
      7646       7649      1   0.010037   0.008477     2.60142e-01     2.09200e-02
      7645       7650      1   0.010037  -0.022042     3.00055e-01     6.91943e-02
      7645       7648      1   0.010037   0.008477     2.60142e-01     2.09200e-02
      7645       7649      1   0.010037   0.008477     2.60142e-01     2.09200e-02
      7644       7652      1  -0.021025   0.009367     3.00055e-01     6.91943e-02
      7644       7651      1  -0.021025   0.009367     3.00055e-01     6.91943e-02
      7643       7647      1   0.012677  -0.012211     3.00055e-01     6.91943e-02
      7643       7646      1   0.012677   0.008364     2.60142e-01     2.09200e-02
      7643       7645      1   0.012677   0.008364     2.60142e-01     2.09200e-02
      7642       7647      1   0.012677  -0.012211     3.00055e-01     6.91943e-02
      7642       7646      1   0.012677   0.008364     2.60142e-01     2.09200e-02
      7642       7645      1   0.012677   0.008364     2.60142e-01     2.09200e-02
      7641       7648      1  -0.031787   0.008477     3.00055e-01     6.91943e-02
      7641       7649      1  -0.031787   0.008477     3.00055e-01     6.91943e-02
      7640       7644      1   0.017208  -0.017521     3.00055e-01     6.91943e-02
      7640       7642      1   0.017208   0.010564     2.60142e-01     2.09200e-02
      7640       7643      1   0.017208   0.010564     2.60142e-01     2.09200e-02
      7639       7644      1   0.017208  -0.017521     3.00055e-01     6.91943e-02
      7639       7642      1   0.017208   0.010564     2.60142e-01     2.09200e-02
      7639       7643      1   0.017208   0.010564     2.60142e-01     2.09200e-02
      7638       7646      1  -0.028094   0.008364     3.00055e-01     6.91943e-02
      7638       7645      1  -0.028094   0.008364     3.00055e-01     6.91943e-02
      7637       7641      1   0.007531  -0.026489     3.00055e-01     6.91943e-02
      7637       7640      1   0.007531   0.014340     2.60142e-01     2.09200e-02
      7637       7639      1   0.007531   0.014340     2.60142e-01     2.09200e-02
      7636       7641      1   0.007531  -0.026489     3.00055e-01     6.91943e-02
      7636       7640      1   0.007531   0.014340     2.60142e-01     2.09200e-02
      7636       7639      1   0.007531   0.014340     2.60142e-01     2.09200e-02
      7635       7642      1   0.017463   0.010564     3.00055e-01     6.91943e-02
      7635       7643      1   0.017463   0.010564     3.00055e-01     6.91943e-02
      7634       7638      1   0.025511  -0.023412     3.00055e-01     6.91943e-02
      7634       7636      1   0.025511   0.006276     2.60142e-01     2.09200e-02
      7634       7637      1   0.025511   0.006276     2.60142e-01     2.09200e-02
      7633       7638      1   0.025511  -0.023412     3.00055e-01     6.91943e-02
      7633       7636      1   0.025511   0.006276     2.60142e-01     2.09200e-02
      7633       7637      1   0.025511   0.006276     2.60142e-01     2.09200e-02
      7632       7640      1  -0.111712   0.014340     3.00055e-01     6.91943e-02
      7632       7639      1  -0.111712   0.014340     3.00055e-01     6.91943e-02
      7631       7638      1   0.025511  -0.023412     3.00055e-01     6.91943e-02
      7631       7636      1   0.025511   0.006276     2.60142e-01     2.09200e-02
      7631       7637      1   0.025511   0.006276     2.60142e-01     2.09200e-02
      7710       7712      1   0.053944  -0.559638     2.78067e-01     9.58675e-02
      7710       7713      1   0.053944  -0.479574     2.80072e-01     8.62554e-02
      7709       7712      1   0.053944  -0.559638     2.78067e-01     9.58675e-02
      7709       7713      1   0.053944  -0.479574     2.80072e-01     8.62554e-02
      7707       7710      1   0.018859   0.044953     2.60142e-01     2.09200e-02
      7707       7709      1   0.018859   0.044953     2.60142e-01     2.09200e-02
      7707       7711      1   0.018859   0.758669     3.00055e-01     6.13495e-02
      7706       7710      1   0.018859   0.044953     2.60142e-01     2.09200e-02
      7706       7709      1   0.018859   0.044953     2.60142e-01     2.09200e-02
      7706       7711      1   0.018859   0.758669     3.00055e-01     6.13495e-02
      7704       7708      1   0.020431  -0.136833     3.00055e-01     6.91943e-02
      7704       7707      1   0.020431   0.015716     2.60142e-01     2.09200e-02
      7704       7706      1   0.020431   0.015716     2.60142e-01     2.09200e-02
      7703       7708      1   0.020431  -0.136833     3.00055e-01     6.91943e-02
      7703       7707      1   0.020431   0.015716     2.60142e-01     2.09200e-02
      7703       7706      1   0.020431   0.015716     2.60142e-01     2.09200e-02
      7702       7710      1  -0.026954   0.044953     3.00055e-01     6.91943e-02
      7702       7709      1  -0.026954   0.044953     3.00055e-01     6.91943e-02
      7701       7705      1   0.010573  -0.002029     3.00055e-01     6.91943e-02
      7701       7704      1   0.010573   0.017026     2.60142e-01     2.09200e-02
      7701       7703      1   0.010573   0.017026     2.60142e-01     2.09200e-02
      7700       7705      1   0.010573  -0.002029     3.00055e-01     6.91943e-02
      7700       7704      1   0.010573   0.017026     2.60142e-01     2.09200e-02
      7700       7703      1   0.010573   0.017026     2.60142e-01     2.09200e-02
      7699       7707      1  -0.016521   0.015716     3.00055e-01     6.91943e-02
      7699       7706      1  -0.016521   0.015716     3.00055e-01     6.91943e-02
      7698       7702      1   0.011511  -0.022462     3.00055e-01     6.91943e-02
      7698       7700      1   0.011511   0.008811     2.60142e-01     2.09200e-02
      7698       7701      1   0.011511   0.008811     2.60142e-01     2.09200e-02
      7697       7702      1   0.011511  -0.022462     3.00055e-01     6.91943e-02
      7697       7700      1   0.011511   0.008811     2.60142e-01     2.09200e-02
      7697       7701      1   0.011511   0.008811     2.60142e-01     2.09200e-02
      7696       7704      1  -0.027812   0.017026     3.00055e-01     6.91943e-02
      7696       7703      1  -0.027812   0.017026     3.00055e-01     6.91943e-02
      7695       7699      1   0.006833  -0.013767     3.00055e-01     6.91943e-02
      7695       7697      1   0.006833   0.009592     2.60142e-01     2.09200e-02
      7695       7698      1   0.006833   0.009592     2.60142e-01     2.09200e-02
      7694       7699      1   0.006833  -0.013767     3.00055e-01     6.91943e-02
      7694       7697      1   0.006833   0.009592     2.60142e-01     2.09200e-02
      7694       7698      1   0.006833   0.009592     2.60142e-01     2.09200e-02
      7693       7700      1  -0.004386   0.008811     3.00055e-01     6.91943e-02
      7693       7701      1  -0.004386   0.008811     3.00055e-01     6.91943e-02
      7692       7696      1   0.011241  -0.023177     3.00055e-01     6.91943e-02
      7692       7694      1   0.011241   0.005694     2.60142e-01     2.09200e-02
      7692       7695      1   0.011241   0.005694     2.60142e-01     2.09200e-02
      7691       7696      1   0.011241  -0.023177     3.00055e-01     6.91943e-02
      7691       7694      1   0.011241   0.005694     2.60142e-01     2.09200e-02
      7691       7695      1   0.011241   0.005694     2.60142e-01     2.09200e-02
      7690       7697      1  -0.026451   0.009592     3.00055e-01     6.91943e-02
      7690       7698      1  -0.026451   0.009592     3.00055e-01     6.91943e-02
      7689       7693      1   0.010172  -0.003655     3.00055e-01     6.91943e-02
      7689       7692      1   0.010172   0.009367     2.60142e-01     2.09200e-02
      7689       7691      1   0.010172   0.009367     2.60142e-01     2.09200e-02
      7688       7693      1   0.010172  -0.003655     3.00055e-01     6.91943e-02
      7688       7692      1   0.010172   0.009367     2.60142e-01     2.09200e-02
      7688       7691      1   0.010172   0.009367     2.60142e-01     2.09200e-02
      7687       7694      1  -0.014653   0.005694     3.00055e-01     6.91943e-02
      7687       7695      1  -0.014653   0.005694     3.00055e-01     6.91943e-02
      7686       7690      1   0.010037  -0.022042     3.00055e-01     6.91943e-02
      7686       7688      1   0.010037   0.008477     2.60142e-01     2.09200e-02
      7686       7689      1   0.010037   0.008477     2.60142e-01     2.09200e-02
      7685       7690      1   0.010037  -0.022042     3.00055e-01     6.91943e-02
      7685       7688      1   0.010037   0.008477     2.60142e-01     2.09200e-02
      7685       7689      1   0.010037   0.008477     2.60142e-01     2.09200e-02
      7684       7692      1  -0.021025   0.009367     3.00055e-01     6.91943e-02
      7684       7691      1  -0.021025   0.009367     3.00055e-01     6.91943e-02
      7683       7687      1   0.012677  -0.012211     3.00055e-01     6.91943e-02
      7683       7686      1   0.012677   0.008364     2.60142e-01     2.09200e-02
      7683       7685      1   0.012677   0.008364     2.60142e-01     2.09200e-02
      7682       7687      1   0.012677  -0.012211     3.00055e-01     6.91943e-02
      7682       7686      1   0.012677   0.008364     2.60142e-01     2.09200e-02
      7682       7685      1   0.012677   0.008364     2.60142e-01     2.09200e-02
      7681       7688      1  -0.031787   0.008477     3.00055e-01     6.91943e-02
      7681       7689      1  -0.031787   0.008477     3.00055e-01     6.91943e-02
      7680       7684      1   0.017208  -0.017521     3.00055e-01     6.91943e-02
      7680       7682      1   0.017208   0.010564     2.60142e-01     2.09200e-02
      7680       7683      1   0.017208   0.010564     2.60142e-01     2.09200e-02
      7679       7684      1   0.017208  -0.017521     3.00055e-01     6.91943e-02
      7679       7682      1   0.017208   0.010564     2.60142e-01     2.09200e-02
      7679       7683      1   0.017208   0.010564     2.60142e-01     2.09200e-02
      7678       7686      1  -0.028094   0.008364     3.00055e-01     6.91943e-02
      7678       7685      1  -0.028094   0.008364     3.00055e-01     6.91943e-02
      7677       7681      1   0.007531  -0.026489     3.00055e-01     6.91943e-02
      7677       7680      1   0.007531   0.014340     2.60142e-01     2.09200e-02
      7677       7679      1   0.007531   0.014340     2.60142e-01     2.09200e-02
      7676       7681      1   0.007531  -0.026489     3.00055e-01     6.91943e-02
      7676       7680      1   0.007531   0.014340     2.60142e-01     2.09200e-02
      7676       7679      1   0.007531   0.014340     2.60142e-01     2.09200e-02
      7675       7682      1   0.017463   0.010564     3.00055e-01     6.91943e-02
      7675       7683      1   0.017463   0.010564     3.00055e-01     6.91943e-02
      7674       7678      1   0.025511  -0.023412     3.00055e-01     6.91943e-02
      7674       7676      1   0.025511   0.006276     2.60142e-01     2.09200e-02
      7674       7677      1   0.025511   0.006276     2.60142e-01     2.09200e-02
      7673       7678      1   0.025511  -0.023412     3.00055e-01     6.91943e-02
      7673       7676      1   0.025511   0.006276     2.60142e-01     2.09200e-02
      7673       7677      1   0.025511   0.006276     2.60142e-01     2.09200e-02
      7672       7680      1  -0.111712   0.014340     3.00055e-01     6.91943e-02
      7672       7679      1  -0.111712   0.014340     3.00055e-01     6.91943e-02
      7671       7678      1   0.025511  -0.023412     3.00055e-01     6.91943e-02
      7671       7676      1   0.025511   0.006276     2.60142e-01     2.09200e-02
      7671       7677      1   0.025511   0.006276     2.60142e-01     2.09200e-02
      7748       7788      1  -0.673755   0.044953     2.78067e-01     9.58675e-02
      7748       7787      1  -0.673755   0.044953     2.78067e-01     9.58675e-02
      7747       7785      1   0.897613   0.015716     3.00055e-01     6.13495e-02
      7747       7784      1   0.897613   0.015716     3.00055e-01     6.13495e-02
      7746       7788      1  -0.552948   0.044953     2.80072e-01     8.62554e-02
      7746       7787      1  -0.552948   0.044953     2.80072e-01     8.62554e-02
      7739       7740      1   0.172230  -0.282478     2.67982e-01     8.67002e-02
      7738       7740      1   0.172230  -0.282478     2.67982e-01     8.67002e-02
      7737       7740      1   0.172230  -0.282478     2.67982e-01     8.67002e-02
      7736       7741      1  -0.338973   0.143525     2.67982e-01     8.67002e-02
      7736       7742      1  -0.338973   0.143525     2.67982e-01     8.67002e-02
      7736       7743      1  -0.338973   0.143525     2.67982e-01     8.67002e-02
      7735       7736      1   0.172230  -0.282478     2.67982e-01     8.67002e-02
      7735       7740      1   0.172230  -0.282478     2.67982e-01     8.67002e-02
      7734       7736      1   0.172230  -0.282478     2.67982e-01     8.67002e-02
      7734       7740      1   0.172230  -0.282478     2.67982e-01     8.67002e-02
      7733       7736      1   0.172230  -0.282478     2.67982e-01     8.67002e-02
      7733       7740      1   0.172230  -0.282478     2.67982e-01     8.67002e-02
      7732       7737      1  -0.338973   0.143525     2.67982e-01     8.67002e-02
      7732       7738      1  -0.338973   0.143525     2.67982e-01     8.67002e-02
      7732       7739      1  -0.338973   0.143525     2.67982e-01     8.67002e-02
      7732       7741      1  -0.338973   0.143525     2.67982e-01     8.67002e-02
      7732       7742      1  -0.338973   0.143525     2.67982e-01     8.67002e-02
      7732       7743      1  -0.338973   0.143525     2.67982e-01     8.67002e-02
      7730       7732      1   0.136415  -0.282478     2.67982e-01     8.67002e-02
      7730       7736      1   0.136415  -0.282478     2.67982e-01     8.67002e-02
      7730       7740      1   0.136415  -0.282478     2.67982e-01     8.67002e-02
      7729       7732      1   0.136415  -0.282478     2.67982e-01     8.67002e-02
      7729       7736      1   0.136415  -0.282478     2.67982e-01     8.67002e-02
      7729       7740      1   0.136415  -0.282478     2.67982e-01     8.67002e-02
      7728       7733      1  -0.170824   0.143525     2.67982e-01     8.67002e-02
      7728       7734      1  -0.170824   0.143525     2.67982e-01     8.67002e-02
      7728       7735      1  -0.170824   0.143525     2.67982e-01     8.67002e-02
      7728       7737      1  -0.170824   0.143525     2.67982e-01     8.67002e-02
      7728       7738      1  -0.170824   0.143525     2.67982e-01     8.67002e-02
      7728       7739      1  -0.170824   0.143525     2.67982e-01     8.67002e-02
      7728       7741      1  -0.170824   0.143525     2.67982e-01     8.67002e-02
      7728       7742      1  -0.170824   0.143525     2.67982e-01     8.67002e-02
      7728       7743      1  -0.170824   0.143525     2.67982e-01     8.67002e-02
      7727       7729      1   0.078534   0.113679     2.21567e-01     3.28444e-02
      7727       7730      1   0.078534   0.113679     2.21567e-01     3.28444e-02
      7727       7731      1   0.078534   0.204385     2.86068e-01     1.08078e-01
      7726       7729      1   0.078534   0.113679     2.21567e-01     3.28444e-02
      7726       7730      1   0.078534   0.113679     2.21567e-01     3.28444e-02
      7726       7731      1   0.078534   0.204385     2.86068e-01     1.08078e-01
      7724       7729      1  -0.508176   0.113679     2.47999e-01     1.08078e-01
      7724       7730      1  -0.508176   0.113679     2.47999e-01     1.08078e-01
      7723       7726      1   1.339721   0.065445     3.10656e-01     1.17227e-01
      7723       7727      1   1.339721   0.065445     3.10656e-01     1.17227e-01
      7721       7746      1   0.095591  -0.460790     2.73568e-01     1.08078e-01
      7721       7723      1   0.095591   1.116434     3.10656e-01     1.17227e-01
      7720       7746      1   0.095591  -0.460790     2.73568e-01     1.08078e-01
      7720       7723      1   0.095591   1.116434     3.10656e-01     1.17227e-01
      7718       7720      1   0.063253   0.079659     2.47135e-01     3.28444e-02
      7718       7721      1   0.063253   0.079659     2.47135e-01     3.28444e-02
      7718       7722      1   0.063253  -0.424567     2.73568e-01     1.08078e-01
      7718       7747      1   0.063253   0.748011     2.93551e-01     7.68707e-02
      7716       7718      1   0.070469   0.052711     2.47135e-01     3.28444e-02
      7716       7719      1   0.070469   0.014549     2.93551e-01     8.67002e-02
      7716       7746      1   0.070469  -0.460790     2.73568e-01     1.08078e-01
      7715       7718      1   0.070469   0.052711     2.47135e-01     3.28444e-02
      7715       7719      1   0.070469   0.014549     2.93551e-01     8.67002e-02
      7715       7746      1   0.070469  -0.460790     2.73568e-01     1.08078e-01
      7714       7720      1   0.196939   0.079659     2.93551e-01     8.67002e-02
      7714       7721      1   0.196939   0.079659     2.93551e-01     8.67002e-02
      7713       7718      1  -0.575489   0.052711     2.73568e-01     1.08078e-01
      7711       7715      1   0.910403   0.058724     2.93551e-01     7.68707e-02
      7711       7716      1   0.910403   0.058724     2.93551e-01     7.68707e-02
      7785       7788      1   0.018859   0.044953     2.60142e-01     2.09200e-02
      7785       7787      1   0.018859   0.044953     2.60142e-01     2.09200e-02
      7784       7788      1   0.018859   0.044953     2.60142e-01     2.09200e-02
      7784       7787      1   0.018859   0.044953     2.60142e-01     2.09200e-02
      7782       7786      1   0.020431  -0.136833     3.00055e-01     6.91943e-02
      7782       7785      1   0.020431   0.015716     2.60142e-01     2.09200e-02
      7782       7784      1   0.020431   0.015716     2.60142e-01     2.09200e-02
      7781       7786      1   0.020431  -0.136833     3.00055e-01     6.91943e-02
      7781       7785      1   0.020431   0.015716     2.60142e-01     2.09200e-02
      7781       7784      1   0.020431   0.015716     2.60142e-01     2.09200e-02
      7780       7788      1  -0.026954   0.044953     3.00055e-01     6.91943e-02
      7780       7787      1  -0.026954   0.044953     3.00055e-01     6.91943e-02
      7779       7783      1   0.010573  -0.002029     3.00055e-01     6.91943e-02
      7779       7782      1   0.010573   0.017026     2.60142e-01     2.09200e-02
      7779       7781      1   0.010573   0.017026     2.60142e-01     2.09200e-02
      7778       7783      1   0.010573  -0.002029     3.00055e-01     6.91943e-02
      7778       7782      1   0.010573   0.017026     2.60142e-01     2.09200e-02
      7778       7781      1   0.010573   0.017026     2.60142e-01     2.09200e-02
      7777       7785      1  -0.016521   0.015716     3.00055e-01     6.91943e-02
      7777       7784      1  -0.016521   0.015716     3.00055e-01     6.91943e-02
      7776       7780      1   0.011511  -0.022462     3.00055e-01     6.91943e-02
      7776       7778      1   0.011511   0.008811     2.60142e-01     2.09200e-02
      7776       7779      1   0.011511   0.008811     2.60142e-01     2.09200e-02
      7775       7780      1   0.011511  -0.022462     3.00055e-01     6.91943e-02
      7775       7778      1   0.011511   0.008811     2.60142e-01     2.09200e-02
      7775       7779      1   0.011511   0.008811     2.60142e-01     2.09200e-02
      7774       7782      1  -0.027812   0.017026     3.00055e-01     6.91943e-02
      7774       7781      1  -0.027812   0.017026     3.00055e-01     6.91943e-02
      7773       7777      1   0.006833  -0.013767     3.00055e-01     6.91943e-02
      7773       7775      1   0.006833   0.009592     2.60142e-01     2.09200e-02
      7773       7776      1   0.006833   0.009592     2.60142e-01     2.09200e-02
      7772       7777      1   0.006833  -0.013767     3.00055e-01     6.91943e-02
      7772       7775      1   0.006833   0.009592     2.60142e-01     2.09200e-02
      7772       7776      1   0.006833   0.009592     2.60142e-01     2.09200e-02
      7771       7778      1  -0.004386   0.008811     3.00055e-01     6.91943e-02
      7771       7779      1  -0.004386   0.008811     3.00055e-01     6.91943e-02
      7770       7774      1   0.011241  -0.023177     3.00055e-01     6.91943e-02
      7770       7772      1   0.011241   0.005694     2.60142e-01     2.09200e-02
      7770       7773      1   0.011241   0.005694     2.60142e-01     2.09200e-02
      7769       7774      1   0.011241  -0.023177     3.00055e-01     6.91943e-02
      7769       7772      1   0.011241   0.005694     2.60142e-01     2.09200e-02
      7769       7773      1   0.011241   0.005694     2.60142e-01     2.09200e-02
      7768       7775      1  -0.026451   0.009592     3.00055e-01     6.91943e-02
      7768       7776      1  -0.026451   0.009592     3.00055e-01     6.91943e-02
      7767       7771      1   0.010172  -0.003655     3.00055e-01     6.91943e-02
      7767       7770      1   0.010172   0.009367     2.60142e-01     2.09200e-02
      7767       7769      1   0.010172   0.009367     2.60142e-01     2.09200e-02
      7766       7771      1   0.010172  -0.003655     3.00055e-01     6.91943e-02
      7766       7770      1   0.010172   0.009367     2.60142e-01     2.09200e-02
      7766       7769      1   0.010172   0.009367     2.60142e-01     2.09200e-02
      7765       7772      1  -0.014653   0.005694     3.00055e-01     6.91943e-02
      7765       7773      1  -0.014653   0.005694     3.00055e-01     6.91943e-02
      7764       7768      1   0.010037  -0.022042     3.00055e-01     6.91943e-02
      7764       7766      1   0.010037   0.008477     2.60142e-01     2.09200e-02
      7764       7767      1   0.010037   0.008477     2.60142e-01     2.09200e-02
      7763       7768      1   0.010037  -0.022042     3.00055e-01     6.91943e-02
      7763       7766      1   0.010037   0.008477     2.60142e-01     2.09200e-02
      7763       7767      1   0.010037   0.008477     2.60142e-01     2.09200e-02
      7762       7770      1  -0.021025   0.009367     3.00055e-01     6.91943e-02
      7762       7769      1  -0.021025   0.009367     3.00055e-01     6.91943e-02
      7761       7765      1   0.012677  -0.012211     3.00055e-01     6.91943e-02
      7761       7764      1   0.012677   0.008364     2.60142e-01     2.09200e-02
      7761       7763      1   0.012677   0.008364     2.60142e-01     2.09200e-02
      7760       7765      1   0.012677  -0.012211     3.00055e-01     6.91943e-02
      7760       7764      1   0.012677   0.008364     2.60142e-01     2.09200e-02
      7760       7763      1   0.012677   0.008364     2.60142e-01     2.09200e-02
      7759       7766      1  -0.031787   0.008477     3.00055e-01     6.91943e-02
      7759       7767      1  -0.031787   0.008477     3.00055e-01     6.91943e-02
      7758       7762      1   0.017208  -0.017521     3.00055e-01     6.91943e-02
      7758       7760      1   0.017208   0.010564     2.60142e-01     2.09200e-02
      7758       7761      1   0.017208   0.010564     2.60142e-01     2.09200e-02
      7757       7762      1   0.017208  -0.017521     3.00055e-01     6.91943e-02
      7757       7760      1   0.017208   0.010564     2.60142e-01     2.09200e-02
      7757       7761      1   0.017208   0.010564     2.60142e-01     2.09200e-02
      7756       7764      1  -0.028094   0.008364     3.00055e-01     6.91943e-02
      7756       7763      1  -0.028094   0.008364     3.00055e-01     6.91943e-02
      7755       7759      1   0.007531  -0.026489     3.00055e-01     6.91943e-02
      7755       7758      1   0.007531   0.014340     2.60142e-01     2.09200e-02
      7755       7757      1   0.007531   0.014340     2.60142e-01     2.09200e-02
      7754       7759      1   0.007531  -0.026489     3.00055e-01     6.91943e-02
      7754       7758      1   0.007531   0.014340     2.60142e-01     2.09200e-02
      7754       7757      1   0.007531   0.014340     2.60142e-01     2.09200e-02
      7753       7760      1   0.017463   0.010564     3.00055e-01     6.91943e-02
      7753       7761      1   0.017463   0.010564     3.00055e-01     6.91943e-02
      7752       7756      1   0.025511  -0.023412     3.00055e-01     6.91943e-02
      7752       7754      1   0.025511   0.006276     2.60142e-01     2.09200e-02
      7752       7755      1   0.025511   0.006276     2.60142e-01     2.09200e-02
      7751       7756      1   0.025511  -0.023412     3.00055e-01     6.91943e-02
      7751       7754      1   0.025511   0.006276     2.60142e-01     2.09200e-02
      7751       7755      1   0.025511   0.006276     2.60142e-01     2.09200e-02
      7750       7758      1  -0.111712   0.014340     3.00055e-01     6.91943e-02
      7750       7757      1  -0.111712   0.014340     3.00055e-01     6.91943e-02
      7749       7756      1   0.025511  -0.023412     3.00055e-01     6.91943e-02
      7749       7754      1   0.025511   0.006276     2.60142e-01     2.09200e-02
      7749       7755      1   0.025511   0.006276     2.60142e-01     2.09200e-02
      7828       7830      1   0.053944  -0.559638     2.78067e-01     9.58675e-02
      7828       7831      1   0.053944  -0.479574     2.80072e-01     8.62554e-02
      7827       7830      1   0.053944  -0.559638     2.78067e-01     9.58675e-02
      7827       7831      1   0.053944  -0.479574     2.80072e-01     8.62554e-02
      7825       7828      1   0.018859   0.044953     2.60142e-01     2.09200e-02
      7825       7827      1   0.018859   0.044953     2.60142e-01     2.09200e-02
      7825       7829      1   0.018859   0.758669     3.00055e-01     6.13495e-02
      7824       7828      1   0.018859   0.044953     2.60142e-01     2.09200e-02
      7824       7827      1   0.018859   0.044953     2.60142e-01     2.09200e-02
      7824       7829      1   0.018859   0.758669     3.00055e-01     6.13495e-02
      7822       7826      1   0.020431  -0.136833     3.00055e-01     6.91943e-02
      7822       7825      1   0.020431   0.015716     2.60142e-01     2.09200e-02
      7822       7824      1   0.020431   0.015716     2.60142e-01     2.09200e-02
      7821       7826      1   0.020431  -0.136833     3.00055e-01     6.91943e-02
      7821       7825      1   0.020431   0.015716     2.60142e-01     2.09200e-02
      7821       7824      1   0.020431   0.015716     2.60142e-01     2.09200e-02
      7820       7828      1  -0.026954   0.044953     3.00055e-01     6.91943e-02
      7820       7827      1  -0.026954   0.044953     3.00055e-01     6.91943e-02
      7819       7823      1   0.010573  -0.002029     3.00055e-01     6.91943e-02
      7819       7822      1   0.010573   0.017026     2.60142e-01     2.09200e-02
      7819       7821      1   0.010573   0.017026     2.60142e-01     2.09200e-02
      7818       7823      1   0.010573  -0.002029     3.00055e-01     6.91943e-02
      7818       7822      1   0.010573   0.017026     2.60142e-01     2.09200e-02
      7818       7821      1   0.010573   0.017026     2.60142e-01     2.09200e-02
      7817       7825      1  -0.016521   0.015716     3.00055e-01     6.91943e-02
      7817       7824      1  -0.016521   0.015716     3.00055e-01     6.91943e-02
      7816       7820      1   0.011511  -0.022462     3.00055e-01     6.91943e-02
      7816       7818      1   0.011511   0.008811     2.60142e-01     2.09200e-02
      7816       7819      1   0.011511   0.008811     2.60142e-01     2.09200e-02
      7815       7820      1   0.011511  -0.022462     3.00055e-01     6.91943e-02
      7815       7818      1   0.011511   0.008811     2.60142e-01     2.09200e-02
      7815       7819      1   0.011511   0.008811     2.60142e-01     2.09200e-02
      7814       7822      1  -0.027812   0.017026     3.00055e-01     6.91943e-02
      7814       7821      1  -0.027812   0.017026     3.00055e-01     6.91943e-02
      7813       7817      1   0.006833  -0.013767     3.00055e-01     6.91943e-02
      7813       7815      1   0.006833   0.009592     2.60142e-01     2.09200e-02
      7813       7816      1   0.006833   0.009592     2.60142e-01     2.09200e-02
      7812       7817      1   0.006833  -0.013767     3.00055e-01     6.91943e-02
      7812       7815      1   0.006833   0.009592     2.60142e-01     2.09200e-02
      7812       7816      1   0.006833   0.009592     2.60142e-01     2.09200e-02
      7811       7818      1  -0.004386   0.008811     3.00055e-01     6.91943e-02
      7811       7819      1  -0.004386   0.008811     3.00055e-01     6.91943e-02
      7810       7814      1   0.011241  -0.023177     3.00055e-01     6.91943e-02
      7810       7812      1   0.011241   0.005694     2.60142e-01     2.09200e-02
      7810       7813      1   0.011241   0.005694     2.60142e-01     2.09200e-02
      7809       7814      1   0.011241  -0.023177     3.00055e-01     6.91943e-02
      7809       7812      1   0.011241   0.005694     2.60142e-01     2.09200e-02
      7809       7813      1   0.011241   0.005694     2.60142e-01     2.09200e-02
      7808       7815      1  -0.026451   0.009592     3.00055e-01     6.91943e-02
      7808       7816      1  -0.026451   0.009592     3.00055e-01     6.91943e-02
      7807       7811      1   0.010172  -0.003655     3.00055e-01     6.91943e-02
      7807       7810      1   0.010172   0.009367     2.60142e-01     2.09200e-02
      7807       7809      1   0.010172   0.009367     2.60142e-01     2.09200e-02
      7806       7811      1   0.010172  -0.003655     3.00055e-01     6.91943e-02
      7806       7810      1   0.010172   0.009367     2.60142e-01     2.09200e-02
      7806       7809      1   0.010172   0.009367     2.60142e-01     2.09200e-02
      7805       7812      1  -0.014653   0.005694     3.00055e-01     6.91943e-02
      7805       7813      1  -0.014653   0.005694     3.00055e-01     6.91943e-02
      7804       7808      1   0.010037  -0.022042     3.00055e-01     6.91943e-02
      7804       7806      1   0.010037   0.008477     2.60142e-01     2.09200e-02
      7804       7807      1   0.010037   0.008477     2.60142e-01     2.09200e-02
      7803       7808      1   0.010037  -0.022042     3.00055e-01     6.91943e-02
      7803       7806      1   0.010037   0.008477     2.60142e-01     2.09200e-02
      7803       7807      1   0.010037   0.008477     2.60142e-01     2.09200e-02
      7802       7810      1  -0.021025   0.009367     3.00055e-01     6.91943e-02
      7802       7809      1  -0.021025   0.009367     3.00055e-01     6.91943e-02
      7801       7805      1   0.012677  -0.012211     3.00055e-01     6.91943e-02
      7801       7804      1   0.012677   0.008364     2.60142e-01     2.09200e-02
      7801       7803      1   0.012677   0.008364     2.60142e-01     2.09200e-02
      7800       7805      1   0.012677  -0.012211     3.00055e-01     6.91943e-02
      7800       7804      1   0.012677   0.008364     2.60142e-01     2.09200e-02
      7800       7803      1   0.012677   0.008364     2.60142e-01     2.09200e-02
      7799       7806      1  -0.031787   0.008477     3.00055e-01     6.91943e-02
      7799       7807      1  -0.031787   0.008477     3.00055e-01     6.91943e-02
      7798       7802      1   0.017208  -0.017521     3.00055e-01     6.91943e-02
      7798       7800      1   0.017208   0.010564     2.60142e-01     2.09200e-02
      7798       7801      1   0.017208   0.010564     2.60142e-01     2.09200e-02
      7797       7802      1   0.017208  -0.017521     3.00055e-01     6.91943e-02
      7797       7800      1   0.017208   0.010564     2.60142e-01     2.09200e-02
      7797       7801      1   0.017208   0.010564     2.60142e-01     2.09200e-02
      7796       7804      1  -0.028094   0.008364     3.00055e-01     6.91943e-02
      7796       7803      1  -0.028094   0.008364     3.00055e-01     6.91943e-02
      7795       7799      1   0.007531  -0.026489     3.00055e-01     6.91943e-02
      7795       7798      1   0.007531   0.014340     2.60142e-01     2.09200e-02
      7795       7797      1   0.007531   0.014340     2.60142e-01     2.09200e-02
      7794       7799      1   0.007531  -0.026489     3.00055e-01     6.91943e-02
      7794       7798      1   0.007531   0.014340     2.60142e-01     2.09200e-02
      7794       7797      1   0.007531   0.014340     2.60142e-01     2.09200e-02
      7793       7800      1   0.017463   0.010564     3.00055e-01     6.91943e-02
      7793       7801      1   0.017463   0.010564     3.00055e-01     6.91943e-02
      7792       7796      1   0.025511  -0.023412     3.00055e-01     6.91943e-02
      7792       7794      1   0.025511   0.006276     2.60142e-01     2.09200e-02
      7792       7795      1   0.025511   0.006276     2.60142e-01     2.09200e-02
      7791       7796      1   0.025511  -0.023412     3.00055e-01     6.91943e-02
      7791       7794      1   0.025511   0.006276     2.60142e-01     2.09200e-02
      7791       7795      1   0.025511   0.006276     2.60142e-01     2.09200e-02
      7790       7798      1  -0.111712   0.014340     3.00055e-01     6.91943e-02
      7790       7797      1  -0.111712   0.014340     3.00055e-01     6.91943e-02
      7789       7796      1   0.025511  -0.023412     3.00055e-01     6.91943e-02
      7789       7794      1   0.025511   0.006276     2.60142e-01     2.09200e-02
      7789       7795      1   0.025511   0.006276     2.60142e-01     2.09200e-02
      7866       7906      1  -0.673755   0.044953     2.78067e-01     9.58675e-02
      7866       7905      1  -0.673755   0.044953     2.78067e-01     9.58675e-02
      7865       7903      1   0.897613   0.015716     3.00055e-01     6.13495e-02
      7865       7902      1   0.897613   0.015716     3.00055e-01     6.13495e-02
      7864       7906      1  -0.552948   0.044953     2.80072e-01     8.62554e-02
      7864       7905      1  -0.552948   0.044953     2.80072e-01     8.62554e-02
      7857       7858      1   0.172230  -0.282478     2.67982e-01     8.67002e-02
      7856       7858      1   0.172230  -0.282478     2.67982e-01     8.67002e-02
      7855       7858      1   0.172230  -0.282478     2.67982e-01     8.67002e-02
      7854       7859      1  -0.338973   0.143525     2.67982e-01     8.67002e-02
      7854       7860      1  -0.338973   0.143525     2.67982e-01     8.67002e-02
      7854       7861      1  -0.338973   0.143525     2.67982e-01     8.67002e-02
      7853       7854      1   0.172230  -0.282478     2.67982e-01     8.67002e-02
      7853       7858      1   0.172230  -0.282478     2.67982e-01     8.67002e-02
      7852       7854      1   0.172230  -0.282478     2.67982e-01     8.67002e-02
      7852       7858      1   0.172230  -0.282478     2.67982e-01     8.67002e-02
      7851       7854      1   0.172230  -0.282478     2.67982e-01     8.67002e-02
      7851       7858      1   0.172230  -0.282478     2.67982e-01     8.67002e-02
      7850       7855      1  -0.338973   0.143525     2.67982e-01     8.67002e-02
      7850       7856      1  -0.338973   0.143525     2.67982e-01     8.67002e-02
      7850       7857      1  -0.338973   0.143525     2.67982e-01     8.67002e-02
      7850       7859      1  -0.338973   0.143525     2.67982e-01     8.67002e-02
      7850       7860      1  -0.338973   0.143525     2.67982e-01     8.67002e-02
      7850       7861      1  -0.338973   0.143525     2.67982e-01     8.67002e-02
      7848       7850      1   0.136415  -0.282478     2.67982e-01     8.67002e-02
      7848       7854      1   0.136415  -0.282478     2.67982e-01     8.67002e-02
      7848       7858      1   0.136415  -0.282478     2.67982e-01     8.67002e-02
      7847       7850      1   0.136415  -0.282478     2.67982e-01     8.67002e-02
      7847       7854      1   0.136415  -0.282478     2.67982e-01     8.67002e-02
      7847       7858      1   0.136415  -0.282478     2.67982e-01     8.67002e-02
      7846       7851      1  -0.170824   0.143525     2.67982e-01     8.67002e-02
      7846       7852      1  -0.170824   0.143525     2.67982e-01     8.67002e-02
      7846       7853      1  -0.170824   0.143525     2.67982e-01     8.67002e-02
      7846       7855      1  -0.170824   0.143525     2.67982e-01     8.67002e-02
      7846       7856      1  -0.170824   0.143525     2.67982e-01     8.67002e-02
      7846       7857      1  -0.170824   0.143525     2.67982e-01     8.67002e-02
      7846       7859      1  -0.170824   0.143525     2.67982e-01     8.67002e-02
      7846       7860      1  -0.170824   0.143525     2.67982e-01     8.67002e-02
      7846       7861      1  -0.170824   0.143525     2.67982e-01     8.67002e-02
      7845       7847      1   0.078534   0.113679     2.21567e-01     3.28444e-02
      7845       7848      1   0.078534   0.113679     2.21567e-01     3.28444e-02
      7845       7849      1   0.078534   0.204385     2.86068e-01     1.08078e-01
      7844       7847      1   0.078534   0.113679     2.21567e-01     3.28444e-02
      7844       7848      1   0.078534   0.113679     2.21567e-01     3.28444e-02
      7844       7849      1   0.078534   0.204385     2.86068e-01     1.08078e-01
      7842       7847      1  -0.508176   0.113679     2.47999e-01     1.08078e-01
      7842       7848      1  -0.508176   0.113679     2.47999e-01     1.08078e-01
      7841       7844      1   1.339721   0.065445     3.10656e-01     1.17227e-01
      7841       7845      1   1.339721   0.065445     3.10656e-01     1.17227e-01
      7839       7864      1   0.095591  -0.460790     2.73568e-01     1.08078e-01
      7839       7841      1   0.095591   1.116434     3.10656e-01     1.17227e-01
      7838       7864      1   0.095591  -0.460790     2.73568e-01     1.08078e-01
      7838       7841      1   0.095591   1.116434     3.10656e-01     1.17227e-01
      7836       7838      1   0.063253   0.079659     2.47135e-01     3.28444e-02
      7836       7839      1   0.063253   0.079659     2.47135e-01     3.28444e-02
      7836       7840      1   0.063253  -0.424567     2.73568e-01     1.08078e-01
      7836       7865      1   0.063253   0.748011     2.93551e-01     7.68707e-02
      7834       7836      1   0.070469   0.052711     2.47135e-01     3.28444e-02
      7834       7837      1   0.070469   0.014549     2.93551e-01     8.67002e-02
      7834       7864      1   0.070469  -0.460790     2.73568e-01     1.08078e-01
      7833       7836      1   0.070469   0.052711     2.47135e-01     3.28444e-02
      7833       7837      1   0.070469   0.014549     2.93551e-01     8.67002e-02
      7833       7864      1   0.070469  -0.460790     2.73568e-01     1.08078e-01
      7832       7838      1   0.196939   0.079659     2.93551e-01     8.67002e-02
      7832       7839      1   0.196939   0.079659     2.93551e-01     8.67002e-02
      7831       7836      1  -0.575489   0.052711     2.73568e-01     1.08078e-01
      7829       7833      1   0.910403   0.058724     2.93551e-01     7.68707e-02
      7829       7834      1   0.910403   0.058724     2.93551e-01     7.68707e-02
      7903       7906      1   0.018859   0.044953     2.60142e-01     2.09200e-02
      7903       7905      1   0.018859   0.044953     2.60142e-01     2.09200e-02
      7902       7906      1   0.018859   0.044953     2.60142e-01     2.09200e-02
      7902       7905      1   0.018859   0.044953     2.60142e-01     2.09200e-02
      7900       7904      1   0.020431  -0.136833     3.00055e-01     6.91943e-02
      7900       7903      1   0.020431   0.015716     2.60142e-01     2.09200e-02
      7900       7902      1   0.020431   0.015716     2.60142e-01     2.09200e-02
      7899       7904      1   0.020431  -0.136833     3.00055e-01     6.91943e-02
      7899       7903      1   0.020431   0.015716     2.60142e-01     2.09200e-02
      7899       7902      1   0.020431   0.015716     2.60142e-01     2.09200e-02
      7898       7906      1  -0.026954   0.044953     3.00055e-01     6.91943e-02
      7898       7905      1  -0.026954   0.044953     3.00055e-01     6.91943e-02
      7897       7901      1   0.010573  -0.002029     3.00055e-01     6.91943e-02
      7897       7900      1   0.010573   0.017026     2.60142e-01     2.09200e-02
      7897       7899      1   0.010573   0.017026     2.60142e-01     2.09200e-02
      7896       7901      1   0.010573  -0.002029     3.00055e-01     6.91943e-02
      7896       7900      1   0.010573   0.017026     2.60142e-01     2.09200e-02
      7896       7899      1   0.010573   0.017026     2.60142e-01     2.09200e-02
      7895       7903      1  -0.016521   0.015716     3.00055e-01     6.91943e-02
      7895       7902      1  -0.016521   0.015716     3.00055e-01     6.91943e-02
      7894       7898      1   0.011511  -0.022462     3.00055e-01     6.91943e-02
      7894       7896      1   0.011511   0.008811     2.60142e-01     2.09200e-02
      7894       7897      1   0.011511   0.008811     2.60142e-01     2.09200e-02
      7893       7898      1   0.011511  -0.022462     3.00055e-01     6.91943e-02
      7893       7896      1   0.011511   0.008811     2.60142e-01     2.09200e-02
      7893       7897      1   0.011511   0.008811     2.60142e-01     2.09200e-02
      7892       7900      1  -0.027812   0.017026     3.00055e-01     6.91943e-02
      7892       7899      1  -0.027812   0.017026     3.00055e-01     6.91943e-02
      7891       7895      1   0.006833  -0.013767     3.00055e-01     6.91943e-02
      7891       7893      1   0.006833   0.009592     2.60142e-01     2.09200e-02
      7891       7894      1   0.006833   0.009592     2.60142e-01     2.09200e-02
      7890       7895      1   0.006833  -0.013767     3.00055e-01     6.91943e-02
      7890       7893      1   0.006833   0.009592     2.60142e-01     2.09200e-02
      7890       7894      1   0.006833   0.009592     2.60142e-01     2.09200e-02
      7889       7896      1  -0.004386   0.008811     3.00055e-01     6.91943e-02
      7889       7897      1  -0.004386   0.008811     3.00055e-01     6.91943e-02
      7888       7892      1   0.011241  -0.023177     3.00055e-01     6.91943e-02
      7888       7890      1   0.011241   0.005694     2.60142e-01     2.09200e-02
      7888       7891      1   0.011241   0.005694     2.60142e-01     2.09200e-02
      7887       7892      1   0.011241  -0.023177     3.00055e-01     6.91943e-02
      7887       7890      1   0.011241   0.005694     2.60142e-01     2.09200e-02
      7887       7891      1   0.011241   0.005694     2.60142e-01     2.09200e-02
      7886       7893      1  -0.026451   0.009592     3.00055e-01     6.91943e-02
      7886       7894      1  -0.026451   0.009592     3.00055e-01     6.91943e-02
      7885       7889      1   0.010172  -0.003655     3.00055e-01     6.91943e-02
      7885       7888      1   0.010172   0.009367     2.60142e-01     2.09200e-02
      7885       7887      1   0.010172   0.009367     2.60142e-01     2.09200e-02
      7884       7889      1   0.010172  -0.003655     3.00055e-01     6.91943e-02
      7884       7888      1   0.010172   0.009367     2.60142e-01     2.09200e-02
      7884       7887      1   0.010172   0.009367     2.60142e-01     2.09200e-02
      7883       7890      1  -0.014653   0.005694     3.00055e-01     6.91943e-02
      7883       7891      1  -0.014653   0.005694     3.00055e-01     6.91943e-02
      7882       7886      1   0.010037  -0.022042     3.00055e-01     6.91943e-02
      7882       7884      1   0.010037   0.008477     2.60142e-01     2.09200e-02
      7882       7885      1   0.010037   0.008477     2.60142e-01     2.09200e-02
      7881       7886      1   0.010037  -0.022042     3.00055e-01     6.91943e-02
      7881       7884      1   0.010037   0.008477     2.60142e-01     2.09200e-02
      7881       7885      1   0.010037   0.008477     2.60142e-01     2.09200e-02
      7880       7888      1  -0.021025   0.009367     3.00055e-01     6.91943e-02
      7880       7887      1  -0.021025   0.009367     3.00055e-01     6.91943e-02
      7879       7883      1   0.012677  -0.012211     3.00055e-01     6.91943e-02
      7879       7882      1   0.012677   0.008364     2.60142e-01     2.09200e-02
      7879       7881      1   0.012677   0.008364     2.60142e-01     2.09200e-02
      7878       7883      1   0.012677  -0.012211     3.00055e-01     6.91943e-02
      7878       7882      1   0.012677   0.008364     2.60142e-01     2.09200e-02
      7878       7881      1   0.012677   0.008364     2.60142e-01     2.09200e-02
      7877       7884      1  -0.031787   0.008477     3.00055e-01     6.91943e-02
      7877       7885      1  -0.031787   0.008477     3.00055e-01     6.91943e-02
      7876       7880      1   0.017208  -0.017521     3.00055e-01     6.91943e-02
      7876       7878      1   0.017208   0.010564     2.60142e-01     2.09200e-02
      7876       7879      1   0.017208   0.010564     2.60142e-01     2.09200e-02
      7875       7880      1   0.017208  -0.017521     3.00055e-01     6.91943e-02
      7875       7878      1   0.017208   0.010564     2.60142e-01     2.09200e-02
      7875       7879      1   0.017208   0.010564     2.60142e-01     2.09200e-02
      7874       7882      1  -0.028094   0.008364     3.00055e-01     6.91943e-02
      7874       7881      1  -0.028094   0.008364     3.00055e-01     6.91943e-02
      7873       7877      1   0.007531  -0.026489     3.00055e-01     6.91943e-02
      7873       7876      1   0.007531   0.014340     2.60142e-01     2.09200e-02
      7873       7875      1   0.007531   0.014340     2.60142e-01     2.09200e-02
      7872       7877      1   0.007531  -0.026489     3.00055e-01     6.91943e-02
      7872       7876      1   0.007531   0.014340     2.60142e-01     2.09200e-02
      7872       7875      1   0.007531   0.014340     2.60142e-01     2.09200e-02
      7871       7878      1   0.017463   0.010564     3.00055e-01     6.91943e-02
      7871       7879      1   0.017463   0.010564     3.00055e-01     6.91943e-02
      7870       7874      1   0.025511  -0.023412     3.00055e-01     6.91943e-02
      7870       7872      1   0.025511   0.006276     2.60142e-01     2.09200e-02
      7870       7873      1   0.025511   0.006276     2.60142e-01     2.09200e-02
      7869       7874      1   0.025511  -0.023412     3.00055e-01     6.91943e-02
      7869       7872      1   0.025511   0.006276     2.60142e-01     2.09200e-02
      7869       7873      1   0.025511   0.006276     2.60142e-01     2.09200e-02
      7868       7876      1  -0.111712   0.014340     3.00055e-01     6.91943e-02
      7868       7875      1  -0.111712   0.014340     3.00055e-01     6.91943e-02
      7867       7874      1   0.025511  -0.023412     3.00055e-01     6.91943e-02
      7867       7872      1   0.025511   0.006276     2.60142e-01     2.09200e-02
      7867       7873      1   0.025511   0.006276     2.60142e-01     2.09200e-02
      7946       7948      1   0.053944  -0.559638     2.78067e-01     9.58675e-02
      7946       7949      1   0.053944  -0.479574     2.80072e-01     8.62554e-02
      7945       7948      1   0.053944  -0.559638     2.78067e-01     9.58675e-02
      7945       7949      1   0.053944  -0.479574     2.80072e-01     8.62554e-02
      7943       7946      1   0.018859   0.044953     2.60142e-01     2.09200e-02
      7943       7945      1   0.018859   0.044953     2.60142e-01     2.09200e-02
      7943       7947      1   0.018859   0.758669     3.00055e-01     6.13495e-02
      7942       7946      1   0.018859   0.044953     2.60142e-01     2.09200e-02
      7942       7945      1   0.018859   0.044953     2.60142e-01     2.09200e-02
      7942       7947      1   0.018859   0.758669     3.00055e-01     6.13495e-02
      7940       7944      1   0.020431  -0.136833     3.00055e-01     6.91943e-02
      7940       7943      1   0.020431   0.015716     2.60142e-01     2.09200e-02
      7940       7942      1   0.020431   0.015716     2.60142e-01     2.09200e-02
      7939       7944      1   0.020431  -0.136833     3.00055e-01     6.91943e-02
      7939       7943      1   0.020431   0.015716     2.60142e-01     2.09200e-02
      7939       7942      1   0.020431   0.015716     2.60142e-01     2.09200e-02
      7938       7946      1  -0.026954   0.044953     3.00055e-01     6.91943e-02
      7938       7945      1  -0.026954   0.044953     3.00055e-01     6.91943e-02
      7937       7941      1   0.010573  -0.002029     3.00055e-01     6.91943e-02
      7937       7940      1   0.010573   0.017026     2.60142e-01     2.09200e-02
      7937       7939      1   0.010573   0.017026     2.60142e-01     2.09200e-02
      7936       7941      1   0.010573  -0.002029     3.00055e-01     6.91943e-02
      7936       7940      1   0.010573   0.017026     2.60142e-01     2.09200e-02
      7936       7939      1   0.010573   0.017026     2.60142e-01     2.09200e-02
      7935       7943      1  -0.016521   0.015716     3.00055e-01     6.91943e-02
      7935       7942      1  -0.016521   0.015716     3.00055e-01     6.91943e-02
      7934       7938      1   0.011511  -0.022462     3.00055e-01     6.91943e-02
      7934       7936      1   0.011511   0.008811     2.60142e-01     2.09200e-02
      7934       7937      1   0.011511   0.008811     2.60142e-01     2.09200e-02
      7933       7938      1   0.011511  -0.022462     3.00055e-01     6.91943e-02
      7933       7936      1   0.011511   0.008811     2.60142e-01     2.09200e-02
      7933       7937      1   0.011511   0.008811     2.60142e-01     2.09200e-02
      7932       7940      1  -0.027812   0.017026     3.00055e-01     6.91943e-02
      7932       7939      1  -0.027812   0.017026     3.00055e-01     6.91943e-02
      7931       7935      1   0.006833  -0.013767     3.00055e-01     6.91943e-02
      7931       7933      1   0.006833   0.009592     2.60142e-01     2.09200e-02
      7931       7934      1   0.006833   0.009592     2.60142e-01     2.09200e-02
      7930       7935      1   0.006833  -0.013767     3.00055e-01     6.91943e-02
      7930       7933      1   0.006833   0.009592     2.60142e-01     2.09200e-02
      7930       7934      1   0.006833   0.009592     2.60142e-01     2.09200e-02
      7929       7936      1  -0.004386   0.008811     3.00055e-01     6.91943e-02
      7929       7937      1  -0.004386   0.008811     3.00055e-01     6.91943e-02
      7928       7932      1   0.011241  -0.023177     3.00055e-01     6.91943e-02
      7928       7930      1   0.011241   0.005694     2.60142e-01     2.09200e-02
      7928       7931      1   0.011241   0.005694     2.60142e-01     2.09200e-02
      7927       7932      1   0.011241  -0.023177     3.00055e-01     6.91943e-02
      7927       7930      1   0.011241   0.005694     2.60142e-01     2.09200e-02
      7927       7931      1   0.011241   0.005694     2.60142e-01     2.09200e-02
      7926       7933      1  -0.026451   0.009592     3.00055e-01     6.91943e-02
      7926       7934      1  -0.026451   0.009592     3.00055e-01     6.91943e-02
      7925       7929      1   0.010172  -0.003655     3.00055e-01     6.91943e-02
      7925       7928      1   0.010172   0.009367     2.60142e-01     2.09200e-02
      7925       7927      1   0.010172   0.009367     2.60142e-01     2.09200e-02
      7924       7929      1   0.010172  -0.003655     3.00055e-01     6.91943e-02
      7924       7928      1   0.010172   0.009367     2.60142e-01     2.09200e-02
      7924       7927      1   0.010172   0.009367     2.60142e-01     2.09200e-02
      7923       7930      1  -0.014653   0.005694     3.00055e-01     6.91943e-02
      7923       7931      1  -0.014653   0.005694     3.00055e-01     6.91943e-02
      7922       7926      1   0.010037  -0.022042     3.00055e-01     6.91943e-02
      7922       7924      1   0.010037   0.008477     2.60142e-01     2.09200e-02
      7922       7925      1   0.010037   0.008477     2.60142e-01     2.09200e-02
      7921       7926      1   0.010037  -0.022042     3.00055e-01     6.91943e-02
      7921       7924      1   0.010037   0.008477     2.60142e-01     2.09200e-02
      7921       7925      1   0.010037   0.008477     2.60142e-01     2.09200e-02
      7920       7928      1  -0.021025   0.009367     3.00055e-01     6.91943e-02
      7920       7927      1  -0.021025   0.009367     3.00055e-01     6.91943e-02
      7919       7923      1   0.012677  -0.012211     3.00055e-01     6.91943e-02
      7919       7922      1   0.012677   0.008364     2.60142e-01     2.09200e-02
      7919       7921      1   0.012677   0.008364     2.60142e-01     2.09200e-02
      7918       7923      1   0.012677  -0.012211     3.00055e-01     6.91943e-02
      7918       7922      1   0.012677   0.008364     2.60142e-01     2.09200e-02
      7918       7921      1   0.012677   0.008364     2.60142e-01     2.09200e-02
      7917       7924      1  -0.031787   0.008477     3.00055e-01     6.91943e-02
      7917       7925      1  -0.031787   0.008477     3.00055e-01     6.91943e-02
      7916       7920      1   0.017208  -0.017521     3.00055e-01     6.91943e-02
      7916       7918      1   0.017208   0.010564     2.60142e-01     2.09200e-02
      7916       7919      1   0.017208   0.010564     2.60142e-01     2.09200e-02
      7915       7920      1   0.017208  -0.017521     3.00055e-01     6.91943e-02
      7915       7918      1   0.017208   0.010564     2.60142e-01     2.09200e-02
      7915       7919      1   0.017208   0.010564     2.60142e-01     2.09200e-02
      7914       7922      1  -0.028094   0.008364     3.00055e-01     6.91943e-02
      7914       7921      1  -0.028094   0.008364     3.00055e-01     6.91943e-02
      7913       7917      1   0.007531  -0.026489     3.00055e-01     6.91943e-02
      7913       7916      1   0.007531   0.014340     2.60142e-01     2.09200e-02
      7913       7915      1   0.007531   0.014340     2.60142e-01     2.09200e-02
      7912       7917      1   0.007531  -0.026489     3.00055e-01     6.91943e-02
      7912       7916      1   0.007531   0.014340     2.60142e-01     2.09200e-02
      7912       7915      1   0.007531   0.014340     2.60142e-01     2.09200e-02
      7911       7918      1   0.017463   0.010564     3.00055e-01     6.91943e-02
      7911       7919      1   0.017463   0.010564     3.00055e-01     6.91943e-02
      7910       7914      1   0.025511  -0.023412     3.00055e-01     6.91943e-02
      7910       7912      1   0.025511   0.006276     2.60142e-01     2.09200e-02
      7910       7913      1   0.025511   0.006276     2.60142e-01     2.09200e-02
      7909       7914      1   0.025511  -0.023412     3.00055e-01     6.91943e-02
      7909       7912      1   0.025511   0.006276     2.60142e-01     2.09200e-02
      7909       7913      1   0.025511   0.006276     2.60142e-01     2.09200e-02
      7908       7916      1  -0.111712   0.014340     3.00055e-01     6.91943e-02
      7908       7915      1  -0.111712   0.014340     3.00055e-01     6.91943e-02
      7907       7914      1   0.025511  -0.023412     3.00055e-01     6.91943e-02
      7907       7912      1   0.025511   0.006276     2.60142e-01     2.09200e-02
      7907       7913      1   0.025511   0.006276     2.60142e-01     2.09200e-02
      7984       8024      1  -0.673755   0.044953     2.78067e-01     9.58675e-02
      7984       8023      1  -0.673755   0.044953     2.78067e-01     9.58675e-02
      7983       8021      1   0.897613   0.015716     3.00055e-01     6.13495e-02
      7983       8020      1   0.897613   0.015716     3.00055e-01     6.13495e-02
      7982       8024      1  -0.552948   0.044953     2.80072e-01     8.62554e-02
      7982       8023      1  -0.552948   0.044953     2.80072e-01     8.62554e-02
      7975       7976      1   0.172230  -0.282478     2.67982e-01     8.67002e-02
      7974       7976      1   0.172230  -0.282478     2.67982e-01     8.67002e-02
      7973       7976      1   0.172230  -0.282478     2.67982e-01     8.67002e-02
      7972       7977      1  -0.338973   0.143525     2.67982e-01     8.67002e-02
      7972       7978      1  -0.338973   0.143525     2.67982e-01     8.67002e-02
      7972       7979      1  -0.338973   0.143525     2.67982e-01     8.67002e-02
      7971       7972      1   0.172230  -0.282478     2.67982e-01     8.67002e-02
      7971       7976      1   0.172230  -0.282478     2.67982e-01     8.67002e-02
      7970       7972      1   0.172230  -0.282478     2.67982e-01     8.67002e-02
      7970       7976      1   0.172230  -0.282478     2.67982e-01     8.67002e-02
      7969       7972      1   0.172230  -0.282478     2.67982e-01     8.67002e-02
      7969       7976      1   0.172230  -0.282478     2.67982e-01     8.67002e-02
      7968       7973      1  -0.338973   0.143525     2.67982e-01     8.67002e-02
      7968       7974      1  -0.338973   0.143525     2.67982e-01     8.67002e-02
      7968       7975      1  -0.338973   0.143525     2.67982e-01     8.67002e-02
      7968       7977      1  -0.338973   0.143525     2.67982e-01     8.67002e-02
      7968       7978      1  -0.338973   0.143525     2.67982e-01     8.67002e-02
      7968       7979      1  -0.338973   0.143525     2.67982e-01     8.67002e-02
      7966       7968      1   0.136415  -0.282478     2.67982e-01     8.67002e-02
      7966       7972      1   0.136415  -0.282478     2.67982e-01     8.67002e-02
      7966       7976      1   0.136415  -0.282478     2.67982e-01     8.67002e-02
      7965       7968      1   0.136415  -0.282478     2.67982e-01     8.67002e-02
      7965       7972      1   0.136415  -0.282478     2.67982e-01     8.67002e-02
      7965       7976      1   0.136415  -0.282478     2.67982e-01     8.67002e-02
      7964       7969      1  -0.170824   0.143525     2.67982e-01     8.67002e-02
      7964       7970      1  -0.170824   0.143525     2.67982e-01     8.67002e-02
      7964       7971      1  -0.170824   0.143525     2.67982e-01     8.67002e-02
      7964       7973      1  -0.170824   0.143525     2.67982e-01     8.67002e-02
      7964       7974      1  -0.170824   0.143525     2.67982e-01     8.67002e-02
      7964       7975      1  -0.170824   0.143525     2.67982e-01     8.67002e-02
      7964       7977      1  -0.170824   0.143525     2.67982e-01     8.67002e-02
      7964       7978      1  -0.170824   0.143525     2.67982e-01     8.67002e-02
      7964       7979      1  -0.170824   0.143525     2.67982e-01     8.67002e-02
      7963       7965      1   0.078534   0.113679     2.21567e-01     3.28444e-02
      7963       7966      1   0.078534   0.113679     2.21567e-01     3.28444e-02
      7963       7967      1   0.078534   0.204385     2.86068e-01     1.08078e-01
      7962       7965      1   0.078534   0.113679     2.21567e-01     3.28444e-02
      7962       7966      1   0.078534   0.113679     2.21567e-01     3.28444e-02
      7962       7967      1   0.078534   0.204385     2.86068e-01     1.08078e-01
      7960       7965      1  -0.508176   0.113679     2.47999e-01     1.08078e-01
      7960       7966      1  -0.508176   0.113679     2.47999e-01     1.08078e-01
      7959       7962      1   1.339721   0.065445     3.10656e-01     1.17227e-01
      7959       7963      1   1.339721   0.065445     3.10656e-01     1.17227e-01
      7957       7982      1   0.095591  -0.460790     2.73568e-01     1.08078e-01
      7957       7959      1   0.095591   1.116434     3.10656e-01     1.17227e-01
      7956       7982      1   0.095591  -0.460790     2.73568e-01     1.08078e-01
      7956       7959      1   0.095591   1.116434     3.10656e-01     1.17227e-01
      7954       7956      1   0.063253   0.079659     2.47135e-01     3.28444e-02
      7954       7957      1   0.063253   0.079659     2.47135e-01     3.28444e-02
      7954       7958      1   0.063253  -0.424567     2.73568e-01     1.08078e-01
      7954       7983      1   0.063253   0.748011     2.93551e-01     7.68707e-02
      7952       7954      1   0.070469   0.052711     2.47135e-01     3.28444e-02
      7952       7955      1   0.070469   0.014549     2.93551e-01     8.67002e-02
      7952       7982      1   0.070469  -0.460790     2.73568e-01     1.08078e-01
      7951       7954      1   0.070469   0.052711     2.47135e-01     3.28444e-02
      7951       7955      1   0.070469   0.014549     2.93551e-01     8.67002e-02
      7951       7982      1   0.070469  -0.460790     2.73568e-01     1.08078e-01
      7950       7956      1   0.196939   0.079659     2.93551e-01     8.67002e-02
      7950       7957      1   0.196939   0.079659     2.93551e-01     8.67002e-02
      7949       7954      1  -0.575489   0.052711     2.73568e-01     1.08078e-01
      7947       7951      1   0.910403   0.058724     2.93551e-01     7.68707e-02
      7947       7952      1   0.910403   0.058724     2.93551e-01     7.68707e-02
      8021       8024      1   0.018859   0.044953     2.60142e-01     2.09200e-02
      8021       8023      1   0.018859   0.044953     2.60142e-01     2.09200e-02
      8020       8024      1   0.018859   0.044953     2.60142e-01     2.09200e-02
      8020       8023      1   0.018859   0.044953     2.60142e-01     2.09200e-02
      8018       8022      1   0.020431  -0.136833     3.00055e-01     6.91943e-02
      8018       8021      1   0.020431   0.015716     2.60142e-01     2.09200e-02
      8018       8020      1   0.020431   0.015716     2.60142e-01     2.09200e-02
      8017       8022      1   0.020431  -0.136833     3.00055e-01     6.91943e-02
      8017       8021      1   0.020431   0.015716     2.60142e-01     2.09200e-02
      8017       8020      1   0.020431   0.015716     2.60142e-01     2.09200e-02
      8016       8024      1  -0.026954   0.044953     3.00055e-01     6.91943e-02
      8016       8023      1  -0.026954   0.044953     3.00055e-01     6.91943e-02
      8015       8019      1   0.010573  -0.002029     3.00055e-01     6.91943e-02
      8015       8018      1   0.010573   0.017026     2.60142e-01     2.09200e-02
      8015       8017      1   0.010573   0.017026     2.60142e-01     2.09200e-02
      8014       8019      1   0.010573  -0.002029     3.00055e-01     6.91943e-02
      8014       8018      1   0.010573   0.017026     2.60142e-01     2.09200e-02
      8014       8017      1   0.010573   0.017026     2.60142e-01     2.09200e-02
      8013       8021      1  -0.016521   0.015716     3.00055e-01     6.91943e-02
      8013       8020      1  -0.016521   0.015716     3.00055e-01     6.91943e-02
      8012       8016      1   0.011511  -0.022462     3.00055e-01     6.91943e-02
      8012       8014      1   0.011511   0.008811     2.60142e-01     2.09200e-02
      8012       8015      1   0.011511   0.008811     2.60142e-01     2.09200e-02
      8011       8016      1   0.011511  -0.022462     3.00055e-01     6.91943e-02
      8011       8014      1   0.011511   0.008811     2.60142e-01     2.09200e-02
      8011       8015      1   0.011511   0.008811     2.60142e-01     2.09200e-02
      8010       8018      1  -0.027812   0.017026     3.00055e-01     6.91943e-02
      8010       8017      1  -0.027812   0.017026     3.00055e-01     6.91943e-02
      8009       8013      1   0.006833  -0.013767     3.00055e-01     6.91943e-02
      8009       8011      1   0.006833   0.009592     2.60142e-01     2.09200e-02
      8009       8012      1   0.006833   0.009592     2.60142e-01     2.09200e-02
      8008       8013      1   0.006833  -0.013767     3.00055e-01     6.91943e-02
      8008       8011      1   0.006833   0.009592     2.60142e-01     2.09200e-02
      8008       8012      1   0.006833   0.009592     2.60142e-01     2.09200e-02
      8007       8014      1  -0.004386   0.008811     3.00055e-01     6.91943e-02
      8007       8015      1  -0.004386   0.008811     3.00055e-01     6.91943e-02
      8006       8010      1   0.011241  -0.023177     3.00055e-01     6.91943e-02
      8006       8008      1   0.011241   0.005694     2.60142e-01     2.09200e-02
      8006       8009      1   0.011241   0.005694     2.60142e-01     2.09200e-02
      8005       8010      1   0.011241  -0.023177     3.00055e-01     6.91943e-02
      8005       8008      1   0.011241   0.005694     2.60142e-01     2.09200e-02
      8005       8009      1   0.011241   0.005694     2.60142e-01     2.09200e-02
      8004       8011      1  -0.026451   0.009592     3.00055e-01     6.91943e-02
      8004       8012      1  -0.026451   0.009592     3.00055e-01     6.91943e-02
      8003       8007      1   0.010172  -0.003655     3.00055e-01     6.91943e-02
      8003       8006      1   0.010172   0.009367     2.60142e-01     2.09200e-02
      8003       8005      1   0.010172   0.009367     2.60142e-01     2.09200e-02
      8002       8007      1   0.010172  -0.003655     3.00055e-01     6.91943e-02
      8002       8006      1   0.010172   0.009367     2.60142e-01     2.09200e-02
      8002       8005      1   0.010172   0.009367     2.60142e-01     2.09200e-02
      8001       8008      1  -0.014653   0.005694     3.00055e-01     6.91943e-02
      8001       8009      1  -0.014653   0.005694     3.00055e-01     6.91943e-02
      8000       8004      1   0.010037  -0.022042     3.00055e-01     6.91943e-02
      8000       8002      1   0.010037   0.008477     2.60142e-01     2.09200e-02
      8000       8003      1   0.010037   0.008477     2.60142e-01     2.09200e-02
      7999       8004      1   0.010037  -0.022042     3.00055e-01     6.91943e-02
      7999       8002      1   0.010037   0.008477     2.60142e-01     2.09200e-02
      7999       8003      1   0.010037   0.008477     2.60142e-01     2.09200e-02
      7998       8006      1  -0.021025   0.009367     3.00055e-01     6.91943e-02
      7998       8005      1  -0.021025   0.009367     3.00055e-01     6.91943e-02
      7997       8001      1   0.012677  -0.012211     3.00055e-01     6.91943e-02
      7997       8000      1   0.012677   0.008364     2.60142e-01     2.09200e-02
      7997       7999      1   0.012677   0.008364     2.60142e-01     2.09200e-02
      7996       8001      1   0.012677  -0.012211     3.00055e-01     6.91943e-02
      7996       8000      1   0.012677   0.008364     2.60142e-01     2.09200e-02
      7996       7999      1   0.012677   0.008364     2.60142e-01     2.09200e-02
      7995       8002      1  -0.031787   0.008477     3.00055e-01     6.91943e-02
      7995       8003      1  -0.031787   0.008477     3.00055e-01     6.91943e-02
      7994       7998      1   0.017208  -0.017521     3.00055e-01     6.91943e-02
      7994       7996      1   0.017208   0.010564     2.60142e-01     2.09200e-02
      7994       7997      1   0.017208   0.010564     2.60142e-01     2.09200e-02
      7993       7998      1   0.017208  -0.017521     3.00055e-01     6.91943e-02
      7993       7996      1   0.017208   0.010564     2.60142e-01     2.09200e-02
      7993       7997      1   0.017208   0.010564     2.60142e-01     2.09200e-02
      7992       8000      1  -0.028094   0.008364     3.00055e-01     6.91943e-02
      7992       7999      1  -0.028094   0.008364     3.00055e-01     6.91943e-02
      7991       7995      1   0.007531  -0.026489     3.00055e-01     6.91943e-02
      7991       7994      1   0.007531   0.014340     2.60142e-01     2.09200e-02
      7991       7993      1   0.007531   0.014340     2.60142e-01     2.09200e-02
      7990       7995      1   0.007531  -0.026489     3.00055e-01     6.91943e-02
      7990       7994      1   0.007531   0.014340     2.60142e-01     2.09200e-02
      7990       7993      1   0.007531   0.014340     2.60142e-01     2.09200e-02
      7989       7996      1   0.017463   0.010564     3.00055e-01     6.91943e-02
      7989       7997      1   0.017463   0.010564     3.00055e-01     6.91943e-02
      7988       7992      1   0.025511  -0.023412     3.00055e-01     6.91943e-02
      7988       7990      1   0.025511   0.006276     2.60142e-01     2.09200e-02
      7988       7991      1   0.025511   0.006276     2.60142e-01     2.09200e-02
      7987       7992      1   0.025511  -0.023412     3.00055e-01     6.91943e-02
      7987       7990      1   0.025511   0.006276     2.60142e-01     2.09200e-02
      7987       7991      1   0.025511   0.006276     2.60142e-01     2.09200e-02
      7986       7994      1  -0.111712   0.014340     3.00055e-01     6.91943e-02
      7986       7993      1  -0.111712   0.014340     3.00055e-01     6.91943e-02
      7985       7992      1   0.025511  -0.023412     3.00055e-01     6.91943e-02
      7985       7990      1   0.025511   0.006276     2.60142e-01     2.09200e-02
      7985       7991      1   0.025511   0.006276     2.60142e-01     2.09200e-02
      8064       8066      1   0.053944  -0.559638     2.78067e-01     9.58675e-02
      8064       8067      1   0.053944  -0.479574     2.80072e-01     8.62554e-02
      8063       8066      1   0.053944  -0.559638     2.78067e-01     9.58675e-02
      8063       8067      1   0.053944  -0.479574     2.80072e-01     8.62554e-02
      8061       8064      1   0.018859   0.044953     2.60142e-01     2.09200e-02
      8061       8063      1   0.018859   0.044953     2.60142e-01     2.09200e-02
      8061       8065      1   0.018859   0.758669     3.00055e-01     6.13495e-02
      8060       8064      1   0.018859   0.044953     2.60142e-01     2.09200e-02
      8060       8063      1   0.018859   0.044953     2.60142e-01     2.09200e-02
      8060       8065      1   0.018859   0.758669     3.00055e-01     6.13495e-02
      8058       8062      1   0.020431  -0.136833     3.00055e-01     6.91943e-02
      8058       8061      1   0.020431   0.015716     2.60142e-01     2.09200e-02
      8058       8060      1   0.020431   0.015716     2.60142e-01     2.09200e-02
      8057       8062      1   0.020431  -0.136833     3.00055e-01     6.91943e-02
      8057       8061      1   0.020431   0.015716     2.60142e-01     2.09200e-02
      8057       8060      1   0.020431   0.015716     2.60142e-01     2.09200e-02
      8056       8064      1  -0.026954   0.044953     3.00055e-01     6.91943e-02
      8056       8063      1  -0.026954   0.044953     3.00055e-01     6.91943e-02
      8055       8059      1   0.010573  -0.002029     3.00055e-01     6.91943e-02
      8055       8058      1   0.010573   0.017026     2.60142e-01     2.09200e-02
      8055       8057      1   0.010573   0.017026     2.60142e-01     2.09200e-02
      8054       8059      1   0.010573  -0.002029     3.00055e-01     6.91943e-02
      8054       8058      1   0.010573   0.017026     2.60142e-01     2.09200e-02
      8054       8057      1   0.010573   0.017026     2.60142e-01     2.09200e-02
      8053       8061      1  -0.016521   0.015716     3.00055e-01     6.91943e-02
      8053       8060      1  -0.016521   0.015716     3.00055e-01     6.91943e-02
      8052       8056      1   0.011511  -0.022462     3.00055e-01     6.91943e-02
      8052       8054      1   0.011511   0.008811     2.60142e-01     2.09200e-02
      8052       8055      1   0.011511   0.008811     2.60142e-01     2.09200e-02
      8051       8056      1   0.011511  -0.022462     3.00055e-01     6.91943e-02
      8051       8054      1   0.011511   0.008811     2.60142e-01     2.09200e-02
      8051       8055      1   0.011511   0.008811     2.60142e-01     2.09200e-02
      8050       8058      1  -0.027812   0.017026     3.00055e-01     6.91943e-02
      8050       8057      1  -0.027812   0.017026     3.00055e-01     6.91943e-02
      8049       8053      1   0.006833  -0.013767     3.00055e-01     6.91943e-02
      8049       8051      1   0.006833   0.009592     2.60142e-01     2.09200e-02
      8049       8052      1   0.006833   0.009592     2.60142e-01     2.09200e-02
      8048       8053      1   0.006833  -0.013767     3.00055e-01     6.91943e-02
      8048       8051      1   0.006833   0.009592     2.60142e-01     2.09200e-02
      8048       8052      1   0.006833   0.009592     2.60142e-01     2.09200e-02
      8047       8054      1  -0.004386   0.008811     3.00055e-01     6.91943e-02
      8047       8055      1  -0.004386   0.008811     3.00055e-01     6.91943e-02
      8046       8050      1   0.011241  -0.023177     3.00055e-01     6.91943e-02
      8046       8048      1   0.011241   0.005694     2.60142e-01     2.09200e-02
      8046       8049      1   0.011241   0.005694     2.60142e-01     2.09200e-02
      8045       8050      1   0.011241  -0.023177     3.00055e-01     6.91943e-02
      8045       8048      1   0.011241   0.005694     2.60142e-01     2.09200e-02
      8045       8049      1   0.011241   0.005694     2.60142e-01     2.09200e-02
      8044       8051      1  -0.026451   0.009592     3.00055e-01     6.91943e-02
      8044       8052      1  -0.026451   0.009592     3.00055e-01     6.91943e-02
      8043       8047      1   0.010172  -0.003655     3.00055e-01     6.91943e-02
      8043       8046      1   0.010172   0.009367     2.60142e-01     2.09200e-02
      8043       8045      1   0.010172   0.009367     2.60142e-01     2.09200e-02
      8042       8047      1   0.010172  -0.003655     3.00055e-01     6.91943e-02
      8042       8046      1   0.010172   0.009367     2.60142e-01     2.09200e-02
      8042       8045      1   0.010172   0.009367     2.60142e-01     2.09200e-02
      8041       8048      1  -0.014653   0.005694     3.00055e-01     6.91943e-02
      8041       8049      1  -0.014653   0.005694     3.00055e-01     6.91943e-02
      8040       8044      1   0.010037  -0.022042     3.00055e-01     6.91943e-02
      8040       8042      1   0.010037   0.008477     2.60142e-01     2.09200e-02
      8040       8043      1   0.010037   0.008477     2.60142e-01     2.09200e-02
      8039       8044      1   0.010037  -0.022042     3.00055e-01     6.91943e-02
      8039       8042      1   0.010037   0.008477     2.60142e-01     2.09200e-02
      8039       8043      1   0.010037   0.008477     2.60142e-01     2.09200e-02
      8038       8046      1  -0.021025   0.009367     3.00055e-01     6.91943e-02
      8038       8045      1  -0.021025   0.009367     3.00055e-01     6.91943e-02
      8037       8041      1   0.012677  -0.012211     3.00055e-01     6.91943e-02
      8037       8040      1   0.012677   0.008364     2.60142e-01     2.09200e-02
      8037       8039      1   0.012677   0.008364     2.60142e-01     2.09200e-02
      8036       8041      1   0.012677  -0.012211     3.00055e-01     6.91943e-02
      8036       8040      1   0.012677   0.008364     2.60142e-01     2.09200e-02
      8036       8039      1   0.012677   0.008364     2.60142e-01     2.09200e-02
      8035       8042      1  -0.031787   0.008477     3.00055e-01     6.91943e-02
      8035       8043      1  -0.031787   0.008477     3.00055e-01     6.91943e-02
      8034       8038      1   0.017208  -0.017521     3.00055e-01     6.91943e-02
      8034       8036      1   0.017208   0.010564     2.60142e-01     2.09200e-02
      8034       8037      1   0.017208   0.010564     2.60142e-01     2.09200e-02
      8033       8038      1   0.017208  -0.017521     3.00055e-01     6.91943e-02
      8033       8036      1   0.017208   0.010564     2.60142e-01     2.09200e-02
      8033       8037      1   0.017208   0.010564     2.60142e-01     2.09200e-02
      8032       8040      1  -0.028094   0.008364     3.00055e-01     6.91943e-02
      8032       8039      1  -0.028094   0.008364     3.00055e-01     6.91943e-02
      8031       8035      1   0.007531  -0.026489     3.00055e-01     6.91943e-02
      8031       8034      1   0.007531   0.014340     2.60142e-01     2.09200e-02
      8031       8033      1   0.007531   0.014340     2.60142e-01     2.09200e-02
      8030       8035      1   0.007531  -0.026489     3.00055e-01     6.91943e-02
      8030       8034      1   0.007531   0.014340     2.60142e-01     2.09200e-02
      8030       8033      1   0.007531   0.014340     2.60142e-01     2.09200e-02
      8029       8036      1   0.017463   0.010564     3.00055e-01     6.91943e-02
      8029       8037      1   0.017463   0.010564     3.00055e-01     6.91943e-02
      8028       8032      1   0.025511  -0.023412     3.00055e-01     6.91943e-02
      8028       8030      1   0.025511   0.006276     2.60142e-01     2.09200e-02
      8028       8031      1   0.025511   0.006276     2.60142e-01     2.09200e-02
      8027       8032      1   0.025511  -0.023412     3.00055e-01     6.91943e-02
      8027       8030      1   0.025511   0.006276     2.60142e-01     2.09200e-02
      8027       8031      1   0.025511   0.006276     2.60142e-01     2.09200e-02
      8026       8034      1  -0.111712   0.014340     3.00055e-01     6.91943e-02
      8026       8033      1  -0.111712   0.014340     3.00055e-01     6.91943e-02
      8025       8032      1   0.025511  -0.023412     3.00055e-01     6.91943e-02
      8025       8030      1   0.025511   0.006276     2.60142e-01     2.09200e-02
      8025       8031      1   0.025511   0.006276     2.60142e-01     2.09200e-02
      8102       8142      1  -0.673755   0.044953     2.78067e-01     9.58675e-02
      8102       8141      1  -0.673755   0.044953     2.78067e-01     9.58675e-02
      8101       8139      1   0.897613   0.015716     3.00055e-01     6.13495e-02
      8101       8138      1   0.897613   0.015716     3.00055e-01     6.13495e-02
      8100       8142      1  -0.552948   0.044953     2.80072e-01     8.62554e-02
      8100       8141      1  -0.552948   0.044953     2.80072e-01     8.62554e-02
      8093       8094      1   0.172230  -0.282478     2.67982e-01     8.67002e-02
      8092       8094      1   0.172230  -0.282478     2.67982e-01     8.67002e-02
      8091       8094      1   0.172230  -0.282478     2.67982e-01     8.67002e-02
      8090       8095      1  -0.338973   0.143525     2.67982e-01     8.67002e-02
      8090       8096      1  -0.338973   0.143525     2.67982e-01     8.67002e-02
      8090       8097      1  -0.338973   0.143525     2.67982e-01     8.67002e-02
      8089       8090      1   0.172230  -0.282478     2.67982e-01     8.67002e-02
      8089       8094      1   0.172230  -0.282478     2.67982e-01     8.67002e-02
      8088       8090      1   0.172230  -0.282478     2.67982e-01     8.67002e-02
      8088       8094      1   0.172230  -0.282478     2.67982e-01     8.67002e-02
      8087       8090      1   0.172230  -0.282478     2.67982e-01     8.67002e-02
      8087       8094      1   0.172230  -0.282478     2.67982e-01     8.67002e-02
      8086       8091      1  -0.338973   0.143525     2.67982e-01     8.67002e-02
      8086       8092      1  -0.338973   0.143525     2.67982e-01     8.67002e-02
      8086       8093      1  -0.338973   0.143525     2.67982e-01     8.67002e-02
      8086       8095      1  -0.338973   0.143525     2.67982e-01     8.67002e-02
      8086       8096      1  -0.338973   0.143525     2.67982e-01     8.67002e-02
      8086       8097      1  -0.338973   0.143525     2.67982e-01     8.67002e-02
      8084       8086      1   0.136415  -0.282478     2.67982e-01     8.67002e-02
      8084       8090      1   0.136415  -0.282478     2.67982e-01     8.67002e-02
      8084       8094      1   0.136415  -0.282478     2.67982e-01     8.67002e-02
      8083       8086      1   0.136415  -0.282478     2.67982e-01     8.67002e-02
      8083       8090      1   0.136415  -0.282478     2.67982e-01     8.67002e-02
      8083       8094      1   0.136415  -0.282478     2.67982e-01     8.67002e-02
      8082       8087      1  -0.170824   0.143525     2.67982e-01     8.67002e-02
      8082       8088      1  -0.170824   0.143525     2.67982e-01     8.67002e-02
      8082       8089      1  -0.170824   0.143525     2.67982e-01     8.67002e-02
      8082       8091      1  -0.170824   0.143525     2.67982e-01     8.67002e-02
      8082       8092      1  -0.170824   0.143525     2.67982e-01     8.67002e-02
      8082       8093      1  -0.170824   0.143525     2.67982e-01     8.67002e-02
      8082       8095      1  -0.170824   0.143525     2.67982e-01     8.67002e-02
      8082       8096      1  -0.170824   0.143525     2.67982e-01     8.67002e-02
      8082       8097      1  -0.170824   0.143525     2.67982e-01     8.67002e-02
      8081       8083      1   0.078534   0.113679     2.21567e-01     3.28444e-02
      8081       8084      1   0.078534   0.113679     2.21567e-01     3.28444e-02
      8081       8085      1   0.078534   0.204385     2.86068e-01     1.08078e-01
      8080       8083      1   0.078534   0.113679     2.21567e-01     3.28444e-02
      8080       8084      1   0.078534   0.113679     2.21567e-01     3.28444e-02
      8080       8085      1   0.078534   0.204385     2.86068e-01     1.08078e-01
      8078       8083      1  -0.508176   0.113679     2.47999e-01     1.08078e-01
      8078       8084      1  -0.508176   0.113679     2.47999e-01     1.08078e-01
      8077       8080      1   1.339721   0.065445     3.10656e-01     1.17227e-01
      8077       8081      1   1.339721   0.065445     3.10656e-01     1.17227e-01
      8075       8100      1   0.095591  -0.460790     2.73568e-01     1.08078e-01
      8075       8077      1   0.095591   1.116434     3.10656e-01     1.17227e-01
      8074       8100      1   0.095591  -0.460790     2.73568e-01     1.08078e-01
      8074       8077      1   0.095591   1.116434     3.10656e-01     1.17227e-01
      8072       8074      1   0.063253   0.079659     2.47135e-01     3.28444e-02
      8072       8075      1   0.063253   0.079659     2.47135e-01     3.28444e-02
      8072       8076      1   0.063253  -0.424567     2.73568e-01     1.08078e-01
      8072       8101      1   0.063253   0.748011     2.93551e-01     7.68707e-02
      8070       8072      1   0.070469   0.052711     2.47135e-01     3.28444e-02
      8070       8073      1   0.070469   0.014549     2.93551e-01     8.67002e-02
      8070       8100      1   0.070469  -0.460790     2.73568e-01     1.08078e-01
      8069       8072      1   0.070469   0.052711     2.47135e-01     3.28444e-02
      8069       8073      1   0.070469   0.014549     2.93551e-01     8.67002e-02
      8069       8100      1   0.070469  -0.460790     2.73568e-01     1.08078e-01
      8068       8074      1   0.196939   0.079659     2.93551e-01     8.67002e-02
      8068       8075      1   0.196939   0.079659     2.93551e-01     8.67002e-02
      8067       8072      1  -0.575489   0.052711     2.73568e-01     1.08078e-01
      8065       8069      1   0.910403   0.058724     2.93551e-01     7.68707e-02
      8065       8070      1   0.910403   0.058724     2.93551e-01     7.68707e-02
      8139       8142      1   0.018859   0.044953     2.60142e-01     2.09200e-02
      8139       8141      1   0.018859   0.044953     2.60142e-01     2.09200e-02
      8138       8142      1   0.018859   0.044953     2.60142e-01     2.09200e-02
      8138       8141      1   0.018859   0.044953     2.60142e-01     2.09200e-02
      8136       8140      1   0.020431  -0.136833     3.00055e-01     6.91943e-02
      8136       8139      1   0.020431   0.015716     2.60142e-01     2.09200e-02
      8136       8138      1   0.020431   0.015716     2.60142e-01     2.09200e-02
      8135       8140      1   0.020431  -0.136833     3.00055e-01     6.91943e-02
      8135       8139      1   0.020431   0.015716     2.60142e-01     2.09200e-02
      8135       8138      1   0.020431   0.015716     2.60142e-01     2.09200e-02
      8134       8142      1  -0.026954   0.044953     3.00055e-01     6.91943e-02
      8134       8141      1  -0.026954   0.044953     3.00055e-01     6.91943e-02
      8133       8137      1   0.010573  -0.002029     3.00055e-01     6.91943e-02
      8133       8136      1   0.010573   0.017026     2.60142e-01     2.09200e-02
      8133       8135      1   0.010573   0.017026     2.60142e-01     2.09200e-02
      8132       8137      1   0.010573  -0.002029     3.00055e-01     6.91943e-02
      8132       8136      1   0.010573   0.017026     2.60142e-01     2.09200e-02
      8132       8135      1   0.010573   0.017026     2.60142e-01     2.09200e-02
      8131       8139      1  -0.016521   0.015716     3.00055e-01     6.91943e-02
      8131       8138      1  -0.016521   0.015716     3.00055e-01     6.91943e-02
      8130       8134      1   0.011511  -0.022462     3.00055e-01     6.91943e-02
      8130       8132      1   0.011511   0.008811     2.60142e-01     2.09200e-02
      8130       8133      1   0.011511   0.008811     2.60142e-01     2.09200e-02
      8129       8134      1   0.011511  -0.022462     3.00055e-01     6.91943e-02
      8129       8132      1   0.011511   0.008811     2.60142e-01     2.09200e-02
      8129       8133      1   0.011511   0.008811     2.60142e-01     2.09200e-02
      8128       8136      1  -0.027812   0.017026     3.00055e-01     6.91943e-02
      8128       8135      1  -0.027812   0.017026     3.00055e-01     6.91943e-02
      8127       8131      1   0.006833  -0.013767     3.00055e-01     6.91943e-02
      8127       8129      1   0.006833   0.009592     2.60142e-01     2.09200e-02
      8127       8130      1   0.006833   0.009592     2.60142e-01     2.09200e-02
      8126       8131      1   0.006833  -0.013767     3.00055e-01     6.91943e-02
      8126       8129      1   0.006833   0.009592     2.60142e-01     2.09200e-02
      8126       8130      1   0.006833   0.009592     2.60142e-01     2.09200e-02
      8125       8132      1  -0.004386   0.008811     3.00055e-01     6.91943e-02
      8125       8133      1  -0.004386   0.008811     3.00055e-01     6.91943e-02
      8124       8128      1   0.011241  -0.023177     3.00055e-01     6.91943e-02
      8124       8126      1   0.011241   0.005694     2.60142e-01     2.09200e-02
      8124       8127      1   0.011241   0.005694     2.60142e-01     2.09200e-02
      8123       8128      1   0.011241  -0.023177     3.00055e-01     6.91943e-02
      8123       8126      1   0.011241   0.005694     2.60142e-01     2.09200e-02
      8123       8127      1   0.011241   0.005694     2.60142e-01     2.09200e-02
      8122       8129      1  -0.026451   0.009592     3.00055e-01     6.91943e-02
      8122       8130      1  -0.026451   0.009592     3.00055e-01     6.91943e-02
      8121       8125      1   0.010172  -0.003655     3.00055e-01     6.91943e-02
      8121       8124      1   0.010172   0.009367     2.60142e-01     2.09200e-02
      8121       8123      1   0.010172   0.009367     2.60142e-01     2.09200e-02
      8120       8125      1   0.010172  -0.003655     3.00055e-01     6.91943e-02
      8120       8124      1   0.010172   0.009367     2.60142e-01     2.09200e-02
      8120       8123      1   0.010172   0.009367     2.60142e-01     2.09200e-02
      8119       8126      1  -0.014653   0.005694     3.00055e-01     6.91943e-02
      8119       8127      1  -0.014653   0.005694     3.00055e-01     6.91943e-02
      8118       8122      1   0.010037  -0.022042     3.00055e-01     6.91943e-02
      8118       8120      1   0.010037   0.008477     2.60142e-01     2.09200e-02
      8118       8121      1   0.010037   0.008477     2.60142e-01     2.09200e-02
      8117       8122      1   0.010037  -0.022042     3.00055e-01     6.91943e-02
      8117       8120      1   0.010037   0.008477     2.60142e-01     2.09200e-02
      8117       8121      1   0.010037   0.008477     2.60142e-01     2.09200e-02
      8116       8124      1  -0.021025   0.009367     3.00055e-01     6.91943e-02
      8116       8123      1  -0.021025   0.009367     3.00055e-01     6.91943e-02
      8115       8119      1   0.012677  -0.012211     3.00055e-01     6.91943e-02
      8115       8118      1   0.012677   0.008364     2.60142e-01     2.09200e-02
      8115       8117      1   0.012677   0.008364     2.60142e-01     2.09200e-02
      8114       8119      1   0.012677  -0.012211     3.00055e-01     6.91943e-02
      8114       8118      1   0.012677   0.008364     2.60142e-01     2.09200e-02
      8114       8117      1   0.012677   0.008364     2.60142e-01     2.09200e-02
      8113       8120      1  -0.031787   0.008477     3.00055e-01     6.91943e-02
      8113       8121      1  -0.031787   0.008477     3.00055e-01     6.91943e-02
      8112       8116      1   0.017208  -0.017521     3.00055e-01     6.91943e-02
      8112       8114      1   0.017208   0.010564     2.60142e-01     2.09200e-02
      8112       8115      1   0.017208   0.010564     2.60142e-01     2.09200e-02
      8111       8116      1   0.017208  -0.017521     3.00055e-01     6.91943e-02
      8111       8114      1   0.017208   0.010564     2.60142e-01     2.09200e-02
      8111       8115      1   0.017208   0.010564     2.60142e-01     2.09200e-02
      8110       8118      1  -0.028094   0.008364     3.00055e-01     6.91943e-02
      8110       8117      1  -0.028094   0.008364     3.00055e-01     6.91943e-02
      8109       8113      1   0.007531  -0.026489     3.00055e-01     6.91943e-02
      8109       8112      1   0.007531   0.014340     2.60142e-01     2.09200e-02
      8109       8111      1   0.007531   0.014340     2.60142e-01     2.09200e-02
      8108       8113      1   0.007531  -0.026489     3.00055e-01     6.91943e-02
      8108       8112      1   0.007531   0.014340     2.60142e-01     2.09200e-02
      8108       8111      1   0.007531   0.014340     2.60142e-01     2.09200e-02
      8107       8114      1   0.017463   0.010564     3.00055e-01     6.91943e-02
      8107       8115      1   0.017463   0.010564     3.00055e-01     6.91943e-02
      8106       8110      1   0.025511  -0.023412     3.00055e-01     6.91943e-02
      8106       8108      1   0.025511   0.006276     2.60142e-01     2.09200e-02
      8106       8109      1   0.025511   0.006276     2.60142e-01     2.09200e-02
      8105       8110      1   0.025511  -0.023412     3.00055e-01     6.91943e-02
      8105       8108      1   0.025511   0.006276     2.60142e-01     2.09200e-02
      8105       8109      1   0.025511   0.006276     2.60142e-01     2.09200e-02
      8104       8112      1  -0.111712   0.014340     3.00055e-01     6.91943e-02
      8104       8111      1  -0.111712   0.014340     3.00055e-01     6.91943e-02
      8103       8110      1   0.025511  -0.023412     3.00055e-01     6.91943e-02
      8103       8108      1   0.025511   0.006276     2.60142e-01     2.09200e-02
      8103       8109      1   0.025511   0.006276     2.60142e-01     2.09200e-02
      8182       8184      1   0.053944  -0.559638     2.78067e-01     9.58675e-02
      8182       8185      1   0.053944  -0.479574     2.80072e-01     8.62554e-02
      8181       8184      1   0.053944  -0.559638     2.78067e-01     9.58675e-02
      8181       8185      1   0.053944  -0.479574     2.80072e-01     8.62554e-02
      8179       8182      1   0.018859   0.044953     2.60142e-01     2.09200e-02
      8179       8181      1   0.018859   0.044953     2.60142e-01     2.09200e-02
      8179       8183      1   0.018859   0.758669     3.00055e-01     6.13495e-02
      8178       8182      1   0.018859   0.044953     2.60142e-01     2.09200e-02
      8178       8181      1   0.018859   0.044953     2.60142e-01     2.09200e-02
      8178       8183      1   0.018859   0.758669     3.00055e-01     6.13495e-02
      8176       8180      1   0.020431  -0.136833     3.00055e-01     6.91943e-02
      8176       8179      1   0.020431   0.015716     2.60142e-01     2.09200e-02
      8176       8178      1   0.020431   0.015716     2.60142e-01     2.09200e-02
      8175       8180      1   0.020431  -0.136833     3.00055e-01     6.91943e-02
      8175       8179      1   0.020431   0.015716     2.60142e-01     2.09200e-02
      8175       8178      1   0.020431   0.015716     2.60142e-01     2.09200e-02
      8174       8182      1  -0.026954   0.044953     3.00055e-01     6.91943e-02
      8174       8181      1  -0.026954   0.044953     3.00055e-01     6.91943e-02
      8173       8177      1   0.010573  -0.002029     3.00055e-01     6.91943e-02
      8173       8176      1   0.010573   0.017026     2.60142e-01     2.09200e-02
      8173       8175      1   0.010573   0.017026     2.60142e-01     2.09200e-02
      8172       8177      1   0.010573  -0.002029     3.00055e-01     6.91943e-02
      8172       8176      1   0.010573   0.017026     2.60142e-01     2.09200e-02
      8172       8175      1   0.010573   0.017026     2.60142e-01     2.09200e-02
      8171       8179      1  -0.016521   0.015716     3.00055e-01     6.91943e-02
      8171       8178      1  -0.016521   0.015716     3.00055e-01     6.91943e-02
      8170       8174      1   0.011511  -0.022462     3.00055e-01     6.91943e-02
      8170       8172      1   0.011511   0.008811     2.60142e-01     2.09200e-02
      8170       8173      1   0.011511   0.008811     2.60142e-01     2.09200e-02
      8169       8174      1   0.011511  -0.022462     3.00055e-01     6.91943e-02
      8169       8172      1   0.011511   0.008811     2.60142e-01     2.09200e-02
      8169       8173      1   0.011511   0.008811     2.60142e-01     2.09200e-02
      8168       8176      1  -0.027812   0.017026     3.00055e-01     6.91943e-02
      8168       8175      1  -0.027812   0.017026     3.00055e-01     6.91943e-02
      8167       8171      1   0.006833  -0.013767     3.00055e-01     6.91943e-02
      8167       8169      1   0.006833   0.009592     2.60142e-01     2.09200e-02
      8167       8170      1   0.006833   0.009592     2.60142e-01     2.09200e-02
      8166       8171      1   0.006833  -0.013767     3.00055e-01     6.91943e-02
      8166       8169      1   0.006833   0.009592     2.60142e-01     2.09200e-02
      8166       8170      1   0.006833   0.009592     2.60142e-01     2.09200e-02
      8165       8172      1  -0.004386   0.008811     3.00055e-01     6.91943e-02
      8165       8173      1  -0.004386   0.008811     3.00055e-01     6.91943e-02
      8164       8168      1   0.011241  -0.023177     3.00055e-01     6.91943e-02
      8164       8166      1   0.011241   0.005694     2.60142e-01     2.09200e-02
      8164       8167      1   0.011241   0.005694     2.60142e-01     2.09200e-02
      8163       8168      1   0.011241  -0.023177     3.00055e-01     6.91943e-02
      8163       8166      1   0.011241   0.005694     2.60142e-01     2.09200e-02
      8163       8167      1   0.011241   0.005694     2.60142e-01     2.09200e-02
      8162       8169      1  -0.026451   0.009592     3.00055e-01     6.91943e-02
      8162       8170      1  -0.026451   0.009592     3.00055e-01     6.91943e-02
      8161       8165      1   0.010172  -0.003655     3.00055e-01     6.91943e-02
      8161       8164      1   0.010172   0.009367     2.60142e-01     2.09200e-02
      8161       8163      1   0.010172   0.009367     2.60142e-01     2.09200e-02
      8160       8165      1   0.010172  -0.003655     3.00055e-01     6.91943e-02
      8160       8164      1   0.010172   0.009367     2.60142e-01     2.09200e-02
      8160       8163      1   0.010172   0.009367     2.60142e-01     2.09200e-02
      8159       8166      1  -0.014653   0.005694     3.00055e-01     6.91943e-02
      8159       8167      1  -0.014653   0.005694     3.00055e-01     6.91943e-02
      8158       8162      1   0.010037  -0.022042     3.00055e-01     6.91943e-02
      8158       8160      1   0.010037   0.008477     2.60142e-01     2.09200e-02
      8158       8161      1   0.010037   0.008477     2.60142e-01     2.09200e-02
      8157       8162      1   0.010037  -0.022042     3.00055e-01     6.91943e-02
      8157       8160      1   0.010037   0.008477     2.60142e-01     2.09200e-02
      8157       8161      1   0.010037   0.008477     2.60142e-01     2.09200e-02
      8156       8164      1  -0.021025   0.009367     3.00055e-01     6.91943e-02
      8156       8163      1  -0.021025   0.009367     3.00055e-01     6.91943e-02
      8155       8159      1   0.012677  -0.012211     3.00055e-01     6.91943e-02
      8155       8158      1   0.012677   0.008364     2.60142e-01     2.09200e-02
      8155       8157      1   0.012677   0.008364     2.60142e-01     2.09200e-02
      8154       8159      1   0.012677  -0.012211     3.00055e-01     6.91943e-02
      8154       8158      1   0.012677   0.008364     2.60142e-01     2.09200e-02
      8154       8157      1   0.012677   0.008364     2.60142e-01     2.09200e-02
      8153       8160      1  -0.031787   0.008477     3.00055e-01     6.91943e-02
      8153       8161      1  -0.031787   0.008477     3.00055e-01     6.91943e-02
      8152       8156      1   0.017208  -0.017521     3.00055e-01     6.91943e-02
      8152       8154      1   0.017208   0.010564     2.60142e-01     2.09200e-02
      8152       8155      1   0.017208   0.010564     2.60142e-01     2.09200e-02
      8151       8156      1   0.017208  -0.017521     3.00055e-01     6.91943e-02
      8151       8154      1   0.017208   0.010564     2.60142e-01     2.09200e-02
      8151       8155      1   0.017208   0.010564     2.60142e-01     2.09200e-02
      8150       8158      1  -0.028094   0.008364     3.00055e-01     6.91943e-02
      8150       8157      1  -0.028094   0.008364     3.00055e-01     6.91943e-02
      8149       8153      1   0.007531  -0.026489     3.00055e-01     6.91943e-02
      8149       8152      1   0.007531   0.014340     2.60142e-01     2.09200e-02
      8149       8151      1   0.007531   0.014340     2.60142e-01     2.09200e-02
      8148       8153      1   0.007531  -0.026489     3.00055e-01     6.91943e-02
      8148       8152      1   0.007531   0.014340     2.60142e-01     2.09200e-02
      8148       8151      1   0.007531   0.014340     2.60142e-01     2.09200e-02
      8147       8154      1   0.017463   0.010564     3.00055e-01     6.91943e-02
      8147       8155      1   0.017463   0.010564     3.00055e-01     6.91943e-02
      8146       8150      1   0.025511  -0.023412     3.00055e-01     6.91943e-02
      8146       8148      1   0.025511   0.006276     2.60142e-01     2.09200e-02
      8146       8149      1   0.025511   0.006276     2.60142e-01     2.09200e-02
      8145       8150      1   0.025511  -0.023412     3.00055e-01     6.91943e-02
      8145       8148      1   0.025511   0.006276     2.60142e-01     2.09200e-02
      8145       8149      1   0.025511   0.006276     2.60142e-01     2.09200e-02
      8144       8152      1  -0.111712   0.014340     3.00055e-01     6.91943e-02
      8144       8151      1  -0.111712   0.014340     3.00055e-01     6.91943e-02
      8143       8150      1   0.025511  -0.023412     3.00055e-01     6.91943e-02
      8143       8148      1   0.025511   0.006276     2.60142e-01     2.09200e-02
      8143       8149      1   0.025511   0.006276     2.60142e-01     2.09200e-02
      8220       8260      1  -0.673755   0.044953     2.78067e-01     9.58675e-02
      8220       8259      1  -0.673755   0.044953     2.78067e-01     9.58675e-02
      8219       8257      1   0.897613   0.015716     3.00055e-01     6.13495e-02
      8219       8256      1   0.897613   0.015716     3.00055e-01     6.13495e-02
      8218       8260      1  -0.552948   0.044953     2.80072e-01     8.62554e-02
      8218       8259      1  -0.552948   0.044953     2.80072e-01     8.62554e-02
      8211       8212      1   0.172230  -0.282478     2.67982e-01     8.67002e-02
      8210       8212      1   0.172230  -0.282478     2.67982e-01     8.67002e-02
      8209       8212      1   0.172230  -0.282478     2.67982e-01     8.67002e-02
      8208       8213      1  -0.338973   0.143525     2.67982e-01     8.67002e-02
      8208       8214      1  -0.338973   0.143525     2.67982e-01     8.67002e-02
      8208       8215      1  -0.338973   0.143525     2.67982e-01     8.67002e-02
      8207       8208      1   0.172230  -0.282478     2.67982e-01     8.67002e-02
      8207       8212      1   0.172230  -0.282478     2.67982e-01     8.67002e-02
      8206       8208      1   0.172230  -0.282478     2.67982e-01     8.67002e-02
      8206       8212      1   0.172230  -0.282478     2.67982e-01     8.67002e-02
      8205       8208      1   0.172230  -0.282478     2.67982e-01     8.67002e-02
      8205       8212      1   0.172230  -0.282478     2.67982e-01     8.67002e-02
      8204       8209      1  -0.338973   0.143525     2.67982e-01     8.67002e-02
      8204       8210      1  -0.338973   0.143525     2.67982e-01     8.67002e-02
      8204       8211      1  -0.338973   0.143525     2.67982e-01     8.67002e-02
      8204       8213      1  -0.338973   0.143525     2.67982e-01     8.67002e-02
      8204       8214      1  -0.338973   0.143525     2.67982e-01     8.67002e-02
      8204       8215      1  -0.338973   0.143525     2.67982e-01     8.67002e-02
      8202       8204      1   0.136415  -0.282478     2.67982e-01     8.67002e-02
      8202       8208      1   0.136415  -0.282478     2.67982e-01     8.67002e-02
      8202       8212      1   0.136415  -0.282478     2.67982e-01     8.67002e-02
      8201       8204      1   0.136415  -0.282478     2.67982e-01     8.67002e-02
      8201       8208      1   0.136415  -0.282478     2.67982e-01     8.67002e-02
      8201       8212      1   0.136415  -0.282478     2.67982e-01     8.67002e-02
      8200       8205      1  -0.170824   0.143525     2.67982e-01     8.67002e-02
      8200       8206      1  -0.170824   0.143525     2.67982e-01     8.67002e-02
      8200       8207      1  -0.170824   0.143525     2.67982e-01     8.67002e-02
      8200       8209      1  -0.170824   0.143525     2.67982e-01     8.67002e-02
      8200       8210      1  -0.170824   0.143525     2.67982e-01     8.67002e-02
      8200       8211      1  -0.170824   0.143525     2.67982e-01     8.67002e-02
      8200       8213      1  -0.170824   0.143525     2.67982e-01     8.67002e-02
      8200       8214      1  -0.170824   0.143525     2.67982e-01     8.67002e-02
      8200       8215      1  -0.170824   0.143525     2.67982e-01     8.67002e-02
      8199       8201      1   0.078534   0.113679     2.21567e-01     3.28444e-02
      8199       8202      1   0.078534   0.113679     2.21567e-01     3.28444e-02
      8199       8203      1   0.078534   0.204385     2.86068e-01     1.08078e-01
      8198       8201      1   0.078534   0.113679     2.21567e-01     3.28444e-02
      8198       8202      1   0.078534   0.113679     2.21567e-01     3.28444e-02
      8198       8203      1   0.078534   0.204385     2.86068e-01     1.08078e-01
      8196       8201      1  -0.508176   0.113679     2.47999e-01     1.08078e-01
      8196       8202      1  -0.508176   0.113679     2.47999e-01     1.08078e-01
      8195       8198      1   1.339721   0.065445     3.10656e-01     1.17227e-01
      8195       8199      1   1.339721   0.065445     3.10656e-01     1.17227e-01
      8193       8218      1   0.095591  -0.460790     2.73568e-01     1.08078e-01
      8193       8195      1   0.095591   1.116434     3.10656e-01     1.17227e-01
      8192       8218      1   0.095591  -0.460790     2.73568e-01     1.08078e-01
      8192       8195      1   0.095591   1.116434     3.10656e-01     1.17227e-01
      8190       8192      1   0.063253   0.079659     2.47135e-01     3.28444e-02
      8190       8193      1   0.063253   0.079659     2.47135e-01     3.28444e-02
      8190       8194      1   0.063253  -0.424567     2.73568e-01     1.08078e-01
      8190       8219      1   0.063253   0.748011     2.93551e-01     7.68707e-02
      8188       8190      1   0.070469   0.052711     2.47135e-01     3.28444e-02
      8188       8191      1   0.070469   0.014549     2.93551e-01     8.67002e-02
      8188       8218      1   0.070469  -0.460790     2.73568e-01     1.08078e-01
      8187       8190      1   0.070469   0.052711     2.47135e-01     3.28444e-02
      8187       8191      1   0.070469   0.014549     2.93551e-01     8.67002e-02
      8187       8218      1   0.070469  -0.460790     2.73568e-01     1.08078e-01
      8186       8192      1   0.196939   0.079659     2.93551e-01     8.67002e-02
      8186       8193      1   0.196939   0.079659     2.93551e-01     8.67002e-02
      8185       8190      1  -0.575489   0.052711     2.73568e-01     1.08078e-01
      8183       8187      1   0.910403   0.058724     2.93551e-01     7.68707e-02
      8183       8188      1   0.910403   0.058724     2.93551e-01     7.68707e-02
      8257       8260      1   0.018859   0.044953     2.60142e-01     2.09200e-02
      8257       8259      1   0.018859   0.044953     2.60142e-01     2.09200e-02
      8256       8260      1   0.018859   0.044953     2.60142e-01     2.09200e-02
      8256       8259      1   0.018859   0.044953     2.60142e-01     2.09200e-02
      8254       8258      1   0.020431  -0.136833     3.00055e-01     6.91943e-02
      8254       8257      1   0.020431   0.015716     2.60142e-01     2.09200e-02
      8254       8256      1   0.020431   0.015716     2.60142e-01     2.09200e-02
      8253       8258      1   0.020431  -0.136833     3.00055e-01     6.91943e-02
      8253       8257      1   0.020431   0.015716     2.60142e-01     2.09200e-02
      8253       8256      1   0.020431   0.015716     2.60142e-01     2.09200e-02
      8252       8260      1  -0.026954   0.044953     3.00055e-01     6.91943e-02
      8252       8259      1  -0.026954   0.044953     3.00055e-01     6.91943e-02
      8251       8255      1   0.010573  -0.002029     3.00055e-01     6.91943e-02
      8251       8254      1   0.010573   0.017026     2.60142e-01     2.09200e-02
      8251       8253      1   0.010573   0.017026     2.60142e-01     2.09200e-02
      8250       8255      1   0.010573  -0.002029     3.00055e-01     6.91943e-02
      8250       8254      1   0.010573   0.017026     2.60142e-01     2.09200e-02
      8250       8253      1   0.010573   0.017026     2.60142e-01     2.09200e-02
      8249       8257      1  -0.016521   0.015716     3.00055e-01     6.91943e-02
      8249       8256      1  -0.016521   0.015716     3.00055e-01     6.91943e-02
      8248       8252      1   0.011511  -0.022462     3.00055e-01     6.91943e-02
      8248       8250      1   0.011511   0.008811     2.60142e-01     2.09200e-02
      8248       8251      1   0.011511   0.008811     2.60142e-01     2.09200e-02
      8247       8252      1   0.011511  -0.022462     3.00055e-01     6.91943e-02
      8247       8250      1   0.011511   0.008811     2.60142e-01     2.09200e-02
      8247       8251      1   0.011511   0.008811     2.60142e-01     2.09200e-02
      8246       8254      1  -0.027812   0.017026     3.00055e-01     6.91943e-02
      8246       8253      1  -0.027812   0.017026     3.00055e-01     6.91943e-02
      8245       8249      1   0.006833  -0.013767     3.00055e-01     6.91943e-02
      8245       8247      1   0.006833   0.009592     2.60142e-01     2.09200e-02
      8245       8248      1   0.006833   0.009592     2.60142e-01     2.09200e-02
      8244       8249      1   0.006833  -0.013767     3.00055e-01     6.91943e-02
      8244       8247      1   0.006833   0.009592     2.60142e-01     2.09200e-02
      8244       8248      1   0.006833   0.009592     2.60142e-01     2.09200e-02
      8243       8250      1  -0.004386   0.008811     3.00055e-01     6.91943e-02
      8243       8251      1  -0.004386   0.008811     3.00055e-01     6.91943e-02
      8242       8246      1   0.011241  -0.023177     3.00055e-01     6.91943e-02
      8242       8244      1   0.011241   0.005694     2.60142e-01     2.09200e-02
      8242       8245      1   0.011241   0.005694     2.60142e-01     2.09200e-02
      8241       8246      1   0.011241  -0.023177     3.00055e-01     6.91943e-02
      8241       8244      1   0.011241   0.005694     2.60142e-01     2.09200e-02
      8241       8245      1   0.011241   0.005694     2.60142e-01     2.09200e-02
      8240       8247      1  -0.026451   0.009592     3.00055e-01     6.91943e-02
      8240       8248      1  -0.026451   0.009592     3.00055e-01     6.91943e-02
      8239       8243      1   0.010172  -0.003655     3.00055e-01     6.91943e-02
      8239       8242      1   0.010172   0.009367     2.60142e-01     2.09200e-02
      8239       8241      1   0.010172   0.009367     2.60142e-01     2.09200e-02
      8238       8243      1   0.010172  -0.003655     3.00055e-01     6.91943e-02
      8238       8242      1   0.010172   0.009367     2.60142e-01     2.09200e-02
      8238       8241      1   0.010172   0.009367     2.60142e-01     2.09200e-02
      8237       8244      1  -0.014653   0.005694     3.00055e-01     6.91943e-02
      8237       8245      1  -0.014653   0.005694     3.00055e-01     6.91943e-02
      8236       8240      1   0.010037  -0.022042     3.00055e-01     6.91943e-02
      8236       8238      1   0.010037   0.008477     2.60142e-01     2.09200e-02
      8236       8239      1   0.010037   0.008477     2.60142e-01     2.09200e-02
      8235       8240      1   0.010037  -0.022042     3.00055e-01     6.91943e-02
      8235       8238      1   0.010037   0.008477     2.60142e-01     2.09200e-02
      8235       8239      1   0.010037   0.008477     2.60142e-01     2.09200e-02
      8234       8242      1  -0.021025   0.009367     3.00055e-01     6.91943e-02
      8234       8241      1  -0.021025   0.009367     3.00055e-01     6.91943e-02
      8233       8237      1   0.012677  -0.012211     3.00055e-01     6.91943e-02
      8233       8236      1   0.012677   0.008364     2.60142e-01     2.09200e-02
      8233       8235      1   0.012677   0.008364     2.60142e-01     2.09200e-02
      8232       8237      1   0.012677  -0.012211     3.00055e-01     6.91943e-02
      8232       8236      1   0.012677   0.008364     2.60142e-01     2.09200e-02
      8232       8235      1   0.012677   0.008364     2.60142e-01     2.09200e-02
      8231       8238      1  -0.031787   0.008477     3.00055e-01     6.91943e-02
      8231       8239      1  -0.031787   0.008477     3.00055e-01     6.91943e-02
      8230       8234      1   0.017208  -0.017521     3.00055e-01     6.91943e-02
      8230       8232      1   0.017208   0.010564     2.60142e-01     2.09200e-02
      8230       8233      1   0.017208   0.010564     2.60142e-01     2.09200e-02
      8229       8234      1   0.017208  -0.017521     3.00055e-01     6.91943e-02
      8229       8232      1   0.017208   0.010564     2.60142e-01     2.09200e-02
      8229       8233      1   0.017208   0.010564     2.60142e-01     2.09200e-02
      8228       8236      1  -0.028094   0.008364     3.00055e-01     6.91943e-02
      8228       8235      1  -0.028094   0.008364     3.00055e-01     6.91943e-02
      8227       8231      1   0.007531  -0.026489     3.00055e-01     6.91943e-02
      8227       8230      1   0.007531   0.014340     2.60142e-01     2.09200e-02
      8227       8229      1   0.007531   0.014340     2.60142e-01     2.09200e-02
      8226       8231      1   0.007531  -0.026489     3.00055e-01     6.91943e-02
      8226       8230      1   0.007531   0.014340     2.60142e-01     2.09200e-02
      8226       8229      1   0.007531   0.014340     2.60142e-01     2.09200e-02
      8225       8232      1   0.017463   0.010564     3.00055e-01     6.91943e-02
      8225       8233      1   0.017463   0.010564     3.00055e-01     6.91943e-02
      8224       8228      1   0.025511  -0.023412     3.00055e-01     6.91943e-02
      8224       8226      1   0.025511   0.006276     2.60142e-01     2.09200e-02
      8224       8227      1   0.025511   0.006276     2.60142e-01     2.09200e-02
      8223       8228      1   0.025511  -0.023412     3.00055e-01     6.91943e-02
      8223       8226      1   0.025511   0.006276     2.60142e-01     2.09200e-02
      8223       8227      1   0.025511   0.006276     2.60142e-01     2.09200e-02
      8222       8230      1  -0.111712   0.014340     3.00055e-01     6.91943e-02
      8222       8229      1  -0.111712   0.014340     3.00055e-01     6.91943e-02
      8221       8228      1   0.025511  -0.023412     3.00055e-01     6.91943e-02
      8221       8226      1   0.025511   0.006276     2.60142e-01     2.09200e-02
      8221       8227      1   0.025511   0.006276     2.60142e-01     2.09200e-02
      8300       8302      1   0.053944  -0.559638     2.78067e-01     9.58675e-02
      8300       8303      1   0.053944  -0.479574     2.80072e-01     8.62554e-02
      8299       8302      1   0.053944  -0.559638     2.78067e-01     9.58675e-02
      8299       8303      1   0.053944  -0.479574     2.80072e-01     8.62554e-02
      8297       8300      1   0.018859   0.044953     2.60142e-01     2.09200e-02
      8297       8299      1   0.018859   0.044953     2.60142e-01     2.09200e-02
      8297       8301      1   0.018859   0.758669     3.00055e-01     6.13495e-02
      8296       8300      1   0.018859   0.044953     2.60142e-01     2.09200e-02
      8296       8299      1   0.018859   0.044953     2.60142e-01     2.09200e-02
      8296       8301      1   0.018859   0.758669     3.00055e-01     6.13495e-02
      8294       8298      1   0.020431  -0.136833     3.00055e-01     6.91943e-02
      8294       8297      1   0.020431   0.015716     2.60142e-01     2.09200e-02
      8294       8296      1   0.020431   0.015716     2.60142e-01     2.09200e-02
      8293       8298      1   0.020431  -0.136833     3.00055e-01     6.91943e-02
      8293       8297      1   0.020431   0.015716     2.60142e-01     2.09200e-02
      8293       8296      1   0.020431   0.015716     2.60142e-01     2.09200e-02
      8292       8300      1  -0.026954   0.044953     3.00055e-01     6.91943e-02
      8292       8299      1  -0.026954   0.044953     3.00055e-01     6.91943e-02
      8291       8295      1   0.010573  -0.002029     3.00055e-01     6.91943e-02
      8291       8294      1   0.010573   0.017026     2.60142e-01     2.09200e-02
      8291       8293      1   0.010573   0.017026     2.60142e-01     2.09200e-02
      8290       8295      1   0.010573  -0.002029     3.00055e-01     6.91943e-02
      8290       8294      1   0.010573   0.017026     2.60142e-01     2.09200e-02
      8290       8293      1   0.010573   0.017026     2.60142e-01     2.09200e-02
      8289       8297      1  -0.016521   0.015716     3.00055e-01     6.91943e-02
      8289       8296      1  -0.016521   0.015716     3.00055e-01     6.91943e-02
      8288       8292      1   0.011511  -0.022462     3.00055e-01     6.91943e-02
      8288       8290      1   0.011511   0.008811     2.60142e-01     2.09200e-02
      8288       8291      1   0.011511   0.008811     2.60142e-01     2.09200e-02
      8287       8292      1   0.011511  -0.022462     3.00055e-01     6.91943e-02
      8287       8290      1   0.011511   0.008811     2.60142e-01     2.09200e-02
      8287       8291      1   0.011511   0.008811     2.60142e-01     2.09200e-02
      8286       8294      1  -0.027812   0.017026     3.00055e-01     6.91943e-02
      8286       8293      1  -0.027812   0.017026     3.00055e-01     6.91943e-02
      8285       8289      1   0.006833  -0.013767     3.00055e-01     6.91943e-02
      8285       8287      1   0.006833   0.009592     2.60142e-01     2.09200e-02
      8285       8288      1   0.006833   0.009592     2.60142e-01     2.09200e-02
      8284       8289      1   0.006833  -0.013767     3.00055e-01     6.91943e-02
      8284       8287      1   0.006833   0.009592     2.60142e-01     2.09200e-02
      8284       8288      1   0.006833   0.009592     2.60142e-01     2.09200e-02
      8283       8290      1  -0.004386   0.008811     3.00055e-01     6.91943e-02
      8283       8291      1  -0.004386   0.008811     3.00055e-01     6.91943e-02
      8282       8286      1   0.011241  -0.023177     3.00055e-01     6.91943e-02
      8282       8284      1   0.011241   0.005694     2.60142e-01     2.09200e-02
      8282       8285      1   0.011241   0.005694     2.60142e-01     2.09200e-02
      8281       8286      1   0.011241  -0.023177     3.00055e-01     6.91943e-02
      8281       8284      1   0.011241   0.005694     2.60142e-01     2.09200e-02
      8281       8285      1   0.011241   0.005694     2.60142e-01     2.09200e-02
      8280       8287      1  -0.026451   0.009592     3.00055e-01     6.91943e-02
      8280       8288      1  -0.026451   0.009592     3.00055e-01     6.91943e-02
      8279       8283      1   0.010172  -0.003655     3.00055e-01     6.91943e-02
      8279       8282      1   0.010172   0.009367     2.60142e-01     2.09200e-02
      8279       8281      1   0.010172   0.009367     2.60142e-01     2.09200e-02
      8278       8283      1   0.010172  -0.003655     3.00055e-01     6.91943e-02
      8278       8282      1   0.010172   0.009367     2.60142e-01     2.09200e-02
      8278       8281      1   0.010172   0.009367     2.60142e-01     2.09200e-02
      8277       8284      1  -0.014653   0.005694     3.00055e-01     6.91943e-02
      8277       8285      1  -0.014653   0.005694     3.00055e-01     6.91943e-02
      8276       8280      1   0.010037  -0.022042     3.00055e-01     6.91943e-02
      8276       8278      1   0.010037   0.008477     2.60142e-01     2.09200e-02
      8276       8279      1   0.010037   0.008477     2.60142e-01     2.09200e-02
      8275       8280      1   0.010037  -0.022042     3.00055e-01     6.91943e-02
      8275       8278      1   0.010037   0.008477     2.60142e-01     2.09200e-02
      8275       8279      1   0.010037   0.008477     2.60142e-01     2.09200e-02
      8274       8282      1  -0.021025   0.009367     3.00055e-01     6.91943e-02
      8274       8281      1  -0.021025   0.009367     3.00055e-01     6.91943e-02
      8273       8277      1   0.012677  -0.012211     3.00055e-01     6.91943e-02
      8273       8276      1   0.012677   0.008364     2.60142e-01     2.09200e-02
      8273       8275      1   0.012677   0.008364     2.60142e-01     2.09200e-02
      8272       8277      1   0.012677  -0.012211     3.00055e-01     6.91943e-02
      8272       8276      1   0.012677   0.008364     2.60142e-01     2.09200e-02
      8272       8275      1   0.012677   0.008364     2.60142e-01     2.09200e-02
      8271       8278      1  -0.031787   0.008477     3.00055e-01     6.91943e-02
      8271       8279      1  -0.031787   0.008477     3.00055e-01     6.91943e-02
      8270       8274      1   0.017208  -0.017521     3.00055e-01     6.91943e-02
      8270       8272      1   0.017208   0.010564     2.60142e-01     2.09200e-02
      8270       8273      1   0.017208   0.010564     2.60142e-01     2.09200e-02
      8269       8274      1   0.017208  -0.017521     3.00055e-01     6.91943e-02
      8269       8272      1   0.017208   0.010564     2.60142e-01     2.09200e-02
      8269       8273      1   0.017208   0.010564     2.60142e-01     2.09200e-02
      8268       8276      1  -0.028094   0.008364     3.00055e-01     6.91943e-02
      8268       8275      1  -0.028094   0.008364     3.00055e-01     6.91943e-02
      8267       8271      1   0.007531  -0.026489     3.00055e-01     6.91943e-02
      8267       8270      1   0.007531   0.014340     2.60142e-01     2.09200e-02
      8267       8269      1   0.007531   0.014340     2.60142e-01     2.09200e-02
      8266       8271      1   0.007531  -0.026489     3.00055e-01     6.91943e-02
      8266       8270      1   0.007531   0.014340     2.60142e-01     2.09200e-02
      8266       8269      1   0.007531   0.014340     2.60142e-01     2.09200e-02
      8265       8272      1   0.017463   0.010564     3.00055e-01     6.91943e-02
      8265       8273      1   0.017463   0.010564     3.00055e-01     6.91943e-02
      8264       8268      1   0.025511  -0.023412     3.00055e-01     6.91943e-02
      8264       8266      1   0.025511   0.006276     2.60142e-01     2.09200e-02
      8264       8267      1   0.025511   0.006276     2.60142e-01     2.09200e-02
      8263       8268      1   0.025511  -0.023412     3.00055e-01     6.91943e-02
      8263       8266      1   0.025511   0.006276     2.60142e-01     2.09200e-02
      8263       8267      1   0.025511   0.006276     2.60142e-01     2.09200e-02
      8262       8270      1  -0.111712   0.014340     3.00055e-01     6.91943e-02
      8262       8269      1  -0.111712   0.014340     3.00055e-01     6.91943e-02
      8261       8268      1   0.025511  -0.023412     3.00055e-01     6.91943e-02
      8261       8266      1   0.025511   0.006276     2.60142e-01     2.09200e-02
      8261       8267      1   0.025511   0.006276     2.60142e-01     2.09200e-02
      8338       8378      1  -0.673755   0.044953     2.78067e-01     9.58675e-02
      8338       8377      1  -0.673755   0.044953     2.78067e-01     9.58675e-02
      8337       8375      1   0.897613   0.015716     3.00055e-01     6.13495e-02
      8337       8374      1   0.897613   0.015716     3.00055e-01     6.13495e-02
      8336       8378      1  -0.552948   0.044953     2.80072e-01     8.62554e-02
      8336       8377      1  -0.552948   0.044953     2.80072e-01     8.62554e-02
      8329       8330      1   0.172230  -0.282478     2.67982e-01     8.67002e-02
      8328       8330      1   0.172230  -0.282478     2.67982e-01     8.67002e-02
      8327       8330      1   0.172230  -0.282478     2.67982e-01     8.67002e-02
      8326       8331      1  -0.338973   0.143525     2.67982e-01     8.67002e-02
      8326       8332      1  -0.338973   0.143525     2.67982e-01     8.67002e-02
      8326       8333      1  -0.338973   0.143525     2.67982e-01     8.67002e-02
      8325       8326      1   0.172230  -0.282478     2.67982e-01     8.67002e-02
      8325       8330      1   0.172230  -0.282478     2.67982e-01     8.67002e-02
      8324       8326      1   0.172230  -0.282478     2.67982e-01     8.67002e-02
      8324       8330      1   0.172230  -0.282478     2.67982e-01     8.67002e-02
      8323       8326      1   0.172230  -0.282478     2.67982e-01     8.67002e-02
      8323       8330      1   0.172230  -0.282478     2.67982e-01     8.67002e-02
      8322       8327      1  -0.338973   0.143525     2.67982e-01     8.67002e-02
      8322       8328      1  -0.338973   0.143525     2.67982e-01     8.67002e-02
      8322       8329      1  -0.338973   0.143525     2.67982e-01     8.67002e-02
      8322       8331      1  -0.338973   0.143525     2.67982e-01     8.67002e-02
      8322       8332      1  -0.338973   0.143525     2.67982e-01     8.67002e-02
      8322       8333      1  -0.338973   0.143525     2.67982e-01     8.67002e-02
      8320       8322      1   0.136415  -0.282478     2.67982e-01     8.67002e-02
      8320       8326      1   0.136415  -0.282478     2.67982e-01     8.67002e-02
      8320       8330      1   0.136415  -0.282478     2.67982e-01     8.67002e-02
      8319       8322      1   0.136415  -0.282478     2.67982e-01     8.67002e-02
      8319       8326      1   0.136415  -0.282478     2.67982e-01     8.67002e-02
      8319       8330      1   0.136415  -0.282478     2.67982e-01     8.67002e-02
      8318       8323      1  -0.170824   0.143525     2.67982e-01     8.67002e-02
      8318       8324      1  -0.170824   0.143525     2.67982e-01     8.67002e-02
      8318       8325      1  -0.170824   0.143525     2.67982e-01     8.67002e-02
      8318       8327      1  -0.170824   0.143525     2.67982e-01     8.67002e-02
      8318       8328      1  -0.170824   0.143525     2.67982e-01     8.67002e-02
      8318       8329      1  -0.170824   0.143525     2.67982e-01     8.67002e-02
      8318       8331      1  -0.170824   0.143525     2.67982e-01     8.67002e-02
      8318       8332      1  -0.170824   0.143525     2.67982e-01     8.67002e-02
      8318       8333      1  -0.170824   0.143525     2.67982e-01     8.67002e-02
      8317       8319      1   0.078534   0.113679     2.21567e-01     3.28444e-02
      8317       8320      1   0.078534   0.113679     2.21567e-01     3.28444e-02
      8317       8321      1   0.078534   0.204385     2.86068e-01     1.08078e-01
      8316       8319      1   0.078534   0.113679     2.21567e-01     3.28444e-02
      8316       8320      1   0.078534   0.113679     2.21567e-01     3.28444e-02
      8316       8321      1   0.078534   0.204385     2.86068e-01     1.08078e-01
      8314       8319      1  -0.508176   0.113679     2.47999e-01     1.08078e-01
      8314       8320      1  -0.508176   0.113679     2.47999e-01     1.08078e-01
      8313       8316      1   1.339721   0.065445     3.10656e-01     1.17227e-01
      8313       8317      1   1.339721   0.065445     3.10656e-01     1.17227e-01
      8311       8336      1   0.095591  -0.460790     2.73568e-01     1.08078e-01
      8311       8313      1   0.095591   1.116434     3.10656e-01     1.17227e-01
      8310       8336      1   0.095591  -0.460790     2.73568e-01     1.08078e-01
      8310       8313      1   0.095591   1.116434     3.10656e-01     1.17227e-01
      8308       8310      1   0.063253   0.079659     2.47135e-01     3.28444e-02
      8308       8311      1   0.063253   0.079659     2.47135e-01     3.28444e-02
      8308       8312      1   0.063253  -0.424567     2.73568e-01     1.08078e-01
      8308       8337      1   0.063253   0.748011     2.93551e-01     7.68707e-02
      8306       8308      1   0.070469   0.052711     2.47135e-01     3.28444e-02
      8306       8309      1   0.070469   0.014549     2.93551e-01     8.67002e-02
      8306       8336      1   0.070469  -0.460790     2.73568e-01     1.08078e-01
      8305       8308      1   0.070469   0.052711     2.47135e-01     3.28444e-02
      8305       8309      1   0.070469   0.014549     2.93551e-01     8.67002e-02
      8305       8336      1   0.070469  -0.460790     2.73568e-01     1.08078e-01
      8304       8310      1   0.196939   0.079659     2.93551e-01     8.67002e-02
      8304       8311      1   0.196939   0.079659     2.93551e-01     8.67002e-02
      8303       8308      1  -0.575489   0.052711     2.73568e-01     1.08078e-01
      8301       8305      1   0.910403   0.058724     2.93551e-01     7.68707e-02
      8301       8306      1   0.910403   0.058724     2.93551e-01     7.68707e-02
      8375       8378      1   0.018859   0.044953     2.60142e-01     2.09200e-02
      8375       8377      1   0.018859   0.044953     2.60142e-01     2.09200e-02
      8374       8378      1   0.018859   0.044953     2.60142e-01     2.09200e-02
      8374       8377      1   0.018859   0.044953     2.60142e-01     2.09200e-02
      8372       8376      1   0.020431  -0.136833     3.00055e-01     6.91943e-02
      8372       8375      1   0.020431   0.015716     2.60142e-01     2.09200e-02
      8372       8374      1   0.020431   0.015716     2.60142e-01     2.09200e-02
      8371       8376      1   0.020431  -0.136833     3.00055e-01     6.91943e-02
      8371       8375      1   0.020431   0.015716     2.60142e-01     2.09200e-02
      8371       8374      1   0.020431   0.015716     2.60142e-01     2.09200e-02
      8370       8378      1  -0.026954   0.044953     3.00055e-01     6.91943e-02
      8370       8377      1  -0.026954   0.044953     3.00055e-01     6.91943e-02
      8369       8373      1   0.010573  -0.002029     3.00055e-01     6.91943e-02
      8369       8372      1   0.010573   0.017026     2.60142e-01     2.09200e-02
      8369       8371      1   0.010573   0.017026     2.60142e-01     2.09200e-02
      8368       8373      1   0.010573  -0.002029     3.00055e-01     6.91943e-02
      8368       8372      1   0.010573   0.017026     2.60142e-01     2.09200e-02
      8368       8371      1   0.010573   0.017026     2.60142e-01     2.09200e-02
      8367       8375      1  -0.016521   0.015716     3.00055e-01     6.91943e-02
      8367       8374      1  -0.016521   0.015716     3.00055e-01     6.91943e-02
      8366       8370      1   0.011511  -0.022462     3.00055e-01     6.91943e-02
      8366       8368      1   0.011511   0.008811     2.60142e-01     2.09200e-02
      8366       8369      1   0.011511   0.008811     2.60142e-01     2.09200e-02
      8365       8370      1   0.011511  -0.022462     3.00055e-01     6.91943e-02
      8365       8368      1   0.011511   0.008811     2.60142e-01     2.09200e-02
      8365       8369      1   0.011511   0.008811     2.60142e-01     2.09200e-02
      8364       8372      1  -0.027812   0.017026     3.00055e-01     6.91943e-02
      8364       8371      1  -0.027812   0.017026     3.00055e-01     6.91943e-02
      8363       8367      1   0.006833  -0.013767     3.00055e-01     6.91943e-02
      8363       8365      1   0.006833   0.009592     2.60142e-01     2.09200e-02
      8363       8366      1   0.006833   0.009592     2.60142e-01     2.09200e-02
      8362       8367      1   0.006833  -0.013767     3.00055e-01     6.91943e-02
      8362       8365      1   0.006833   0.009592     2.60142e-01     2.09200e-02
      8362       8366      1   0.006833   0.009592     2.60142e-01     2.09200e-02
      8361       8368      1  -0.004386   0.008811     3.00055e-01     6.91943e-02
      8361       8369      1  -0.004386   0.008811     3.00055e-01     6.91943e-02
      8360       8364      1   0.011241  -0.023177     3.00055e-01     6.91943e-02
      8360       8362      1   0.011241   0.005694     2.60142e-01     2.09200e-02
      8360       8363      1   0.011241   0.005694     2.60142e-01     2.09200e-02
      8359       8364      1   0.011241  -0.023177     3.00055e-01     6.91943e-02
      8359       8362      1   0.011241   0.005694     2.60142e-01     2.09200e-02
      8359       8363      1   0.011241   0.005694     2.60142e-01     2.09200e-02
      8358       8365      1  -0.026451   0.009592     3.00055e-01     6.91943e-02
      8358       8366      1  -0.026451   0.009592     3.00055e-01     6.91943e-02
      8357       8361      1   0.010172  -0.003655     3.00055e-01     6.91943e-02
      8357       8360      1   0.010172   0.009367     2.60142e-01     2.09200e-02
      8357       8359      1   0.010172   0.009367     2.60142e-01     2.09200e-02
      8356       8361      1   0.010172  -0.003655     3.00055e-01     6.91943e-02
      8356       8360      1   0.010172   0.009367     2.60142e-01     2.09200e-02
      8356       8359      1   0.010172   0.009367     2.60142e-01     2.09200e-02
      8355       8362      1  -0.014653   0.005694     3.00055e-01     6.91943e-02
      8355       8363      1  -0.014653   0.005694     3.00055e-01     6.91943e-02
      8354       8358      1   0.010037  -0.022042     3.00055e-01     6.91943e-02
      8354       8356      1   0.010037   0.008477     2.60142e-01     2.09200e-02
      8354       8357      1   0.010037   0.008477     2.60142e-01     2.09200e-02
      8353       8358      1   0.010037  -0.022042     3.00055e-01     6.91943e-02
      8353       8356      1   0.010037   0.008477     2.60142e-01     2.09200e-02
      8353       8357      1   0.010037   0.008477     2.60142e-01     2.09200e-02
      8352       8360      1  -0.021025   0.009367     3.00055e-01     6.91943e-02
      8352       8359      1  -0.021025   0.009367     3.00055e-01     6.91943e-02
      8351       8355      1   0.012677  -0.012211     3.00055e-01     6.91943e-02
      8351       8354      1   0.012677   0.008364     2.60142e-01     2.09200e-02
      8351       8353      1   0.012677   0.008364     2.60142e-01     2.09200e-02
      8350       8355      1   0.012677  -0.012211     3.00055e-01     6.91943e-02
      8350       8354      1   0.012677   0.008364     2.60142e-01     2.09200e-02
      8350       8353      1   0.012677   0.008364     2.60142e-01     2.09200e-02
      8349       8356      1  -0.031787   0.008477     3.00055e-01     6.91943e-02
      8349       8357      1  -0.031787   0.008477     3.00055e-01     6.91943e-02
      8348       8352      1   0.017208  -0.017521     3.00055e-01     6.91943e-02
      8348       8350      1   0.017208   0.010564     2.60142e-01     2.09200e-02
      8348       8351      1   0.017208   0.010564     2.60142e-01     2.09200e-02
      8347       8352      1   0.017208  -0.017521     3.00055e-01     6.91943e-02
      8347       8350      1   0.017208   0.010564     2.60142e-01     2.09200e-02
      8347       8351      1   0.017208   0.010564     2.60142e-01     2.09200e-02
      8346       8354      1  -0.028094   0.008364     3.00055e-01     6.91943e-02
      8346       8353      1  -0.028094   0.008364     3.00055e-01     6.91943e-02
      8345       8349      1   0.007531  -0.026489     3.00055e-01     6.91943e-02
      8345       8348      1   0.007531   0.014340     2.60142e-01     2.09200e-02
      8345       8347      1   0.007531   0.014340     2.60142e-01     2.09200e-02
      8344       8349      1   0.007531  -0.026489     3.00055e-01     6.91943e-02
      8344       8348      1   0.007531   0.014340     2.60142e-01     2.09200e-02
      8344       8347      1   0.007531   0.014340     2.60142e-01     2.09200e-02
      8343       8350      1   0.017463   0.010564     3.00055e-01     6.91943e-02
      8343       8351      1   0.017463   0.010564     3.00055e-01     6.91943e-02
      8342       8346      1   0.025511  -0.023412     3.00055e-01     6.91943e-02
      8342       8344      1   0.025511   0.006276     2.60142e-01     2.09200e-02
      8342       8345      1   0.025511   0.006276     2.60142e-01     2.09200e-02
      8341       8346      1   0.025511  -0.023412     3.00055e-01     6.91943e-02
      8341       8344      1   0.025511   0.006276     2.60142e-01     2.09200e-02
      8341       8345      1   0.025511   0.006276     2.60142e-01     2.09200e-02
      8340       8348      1  -0.111712   0.014340     3.00055e-01     6.91943e-02
      8340       8347      1  -0.111712   0.014340     3.00055e-01     6.91943e-02
      8339       8346      1   0.025511  -0.023412     3.00055e-01     6.91943e-02
      8339       8344      1   0.025511   0.006276     2.60142e-01     2.09200e-02
      8339       8345      1   0.025511   0.006276     2.60142e-01     2.09200e-02
      8418       8420      1   0.053944  -0.559638     2.78067e-01     9.58675e-02
      8418       8421      1   0.053944  -0.479574     2.80072e-01     8.62554e-02
      8417       8420      1   0.053944  -0.559638     2.78067e-01     9.58675e-02
      8417       8421      1   0.053944  -0.479574     2.80072e-01     8.62554e-02
      8415       8418      1   0.018859   0.044953     2.60142e-01     2.09200e-02
      8415       8417      1   0.018859   0.044953     2.60142e-01     2.09200e-02
      8415       8419      1   0.018859   0.758669     3.00055e-01     6.13495e-02
      8414       8418      1   0.018859   0.044953     2.60142e-01     2.09200e-02
      8414       8417      1   0.018859   0.044953     2.60142e-01     2.09200e-02
      8414       8419      1   0.018859   0.758669     3.00055e-01     6.13495e-02
      8412       8416      1   0.020431  -0.136833     3.00055e-01     6.91943e-02
      8412       8415      1   0.020431   0.015716     2.60142e-01     2.09200e-02
      8412       8414      1   0.020431   0.015716     2.60142e-01     2.09200e-02
      8411       8416      1   0.020431  -0.136833     3.00055e-01     6.91943e-02
      8411       8415      1   0.020431   0.015716     2.60142e-01     2.09200e-02
      8411       8414      1   0.020431   0.015716     2.60142e-01     2.09200e-02
      8410       8418      1  -0.026954   0.044953     3.00055e-01     6.91943e-02
      8410       8417      1  -0.026954   0.044953     3.00055e-01     6.91943e-02
      8409       8413      1   0.010573  -0.002029     3.00055e-01     6.91943e-02
      8409       8412      1   0.010573   0.017026     2.60142e-01     2.09200e-02
      8409       8411      1   0.010573   0.017026     2.60142e-01     2.09200e-02
      8408       8413      1   0.010573  -0.002029     3.00055e-01     6.91943e-02
      8408       8412      1   0.010573   0.017026     2.60142e-01     2.09200e-02
      8408       8411      1   0.010573   0.017026     2.60142e-01     2.09200e-02
      8407       8415      1  -0.016521   0.015716     3.00055e-01     6.91943e-02
      8407       8414      1  -0.016521   0.015716     3.00055e-01     6.91943e-02
      8406       8410      1   0.011511  -0.022462     3.00055e-01     6.91943e-02
      8406       8408      1   0.011511   0.008811     2.60142e-01     2.09200e-02
      8406       8409      1   0.011511   0.008811     2.60142e-01     2.09200e-02
      8405       8410      1   0.011511  -0.022462     3.00055e-01     6.91943e-02
      8405       8408      1   0.011511   0.008811     2.60142e-01     2.09200e-02
      8405       8409      1   0.011511   0.008811     2.60142e-01     2.09200e-02
      8404       8412      1  -0.027812   0.017026     3.00055e-01     6.91943e-02
      8404       8411      1  -0.027812   0.017026     3.00055e-01     6.91943e-02
      8403       8407      1   0.006833  -0.013767     3.00055e-01     6.91943e-02
      8403       8405      1   0.006833   0.009592     2.60142e-01     2.09200e-02
      8403       8406      1   0.006833   0.009592     2.60142e-01     2.09200e-02
      8402       8407      1   0.006833  -0.013767     3.00055e-01     6.91943e-02
      8402       8405      1   0.006833   0.009592     2.60142e-01     2.09200e-02
      8402       8406      1   0.006833   0.009592     2.60142e-01     2.09200e-02
      8401       8408      1  -0.004386   0.008811     3.00055e-01     6.91943e-02
      8401       8409      1  -0.004386   0.008811     3.00055e-01     6.91943e-02
      8400       8404      1   0.011241  -0.023177     3.00055e-01     6.91943e-02
      8400       8402      1   0.011241   0.005694     2.60142e-01     2.09200e-02
      8400       8403      1   0.011241   0.005694     2.60142e-01     2.09200e-02
      8399       8404      1   0.011241  -0.023177     3.00055e-01     6.91943e-02
      8399       8402      1   0.011241   0.005694     2.60142e-01     2.09200e-02
      8399       8403      1   0.011241   0.005694     2.60142e-01     2.09200e-02
      8398       8405      1  -0.026451   0.009592     3.00055e-01     6.91943e-02
      8398       8406      1  -0.026451   0.009592     3.00055e-01     6.91943e-02
      8397       8401      1   0.010172  -0.003655     3.00055e-01     6.91943e-02
      8397       8400      1   0.010172   0.009367     2.60142e-01     2.09200e-02
      8397       8399      1   0.010172   0.009367     2.60142e-01     2.09200e-02
      8396       8401      1   0.010172  -0.003655     3.00055e-01     6.91943e-02
      8396       8400      1   0.010172   0.009367     2.60142e-01     2.09200e-02
      8396       8399      1   0.010172   0.009367     2.60142e-01     2.09200e-02
      8395       8402      1  -0.014653   0.005694     3.00055e-01     6.91943e-02
      8395       8403      1  -0.014653   0.005694     3.00055e-01     6.91943e-02
      8394       8398      1   0.010037  -0.022042     3.00055e-01     6.91943e-02
      8394       8396      1   0.010037   0.008477     2.60142e-01     2.09200e-02
      8394       8397      1   0.010037   0.008477     2.60142e-01     2.09200e-02
      8393       8398      1   0.010037  -0.022042     3.00055e-01     6.91943e-02
      8393       8396      1   0.010037   0.008477     2.60142e-01     2.09200e-02
      8393       8397      1   0.010037   0.008477     2.60142e-01     2.09200e-02
      8392       8400      1  -0.021025   0.009367     3.00055e-01     6.91943e-02
      8392       8399      1  -0.021025   0.009367     3.00055e-01     6.91943e-02
      8391       8395      1   0.012677  -0.012211     3.00055e-01     6.91943e-02
      8391       8394      1   0.012677   0.008364     2.60142e-01     2.09200e-02
      8391       8393      1   0.012677   0.008364     2.60142e-01     2.09200e-02
      8390       8395      1   0.012677  -0.012211     3.00055e-01     6.91943e-02
      8390       8394      1   0.012677   0.008364     2.60142e-01     2.09200e-02
      8390       8393      1   0.012677   0.008364     2.60142e-01     2.09200e-02
      8389       8396      1  -0.031787   0.008477     3.00055e-01     6.91943e-02
      8389       8397      1  -0.031787   0.008477     3.00055e-01     6.91943e-02
      8388       8392      1   0.017208  -0.017521     3.00055e-01     6.91943e-02
      8388       8390      1   0.017208   0.010564     2.60142e-01     2.09200e-02
      8388       8391      1   0.017208   0.010564     2.60142e-01     2.09200e-02
      8387       8392      1   0.017208  -0.017521     3.00055e-01     6.91943e-02
      8387       8390      1   0.017208   0.010564     2.60142e-01     2.09200e-02
      8387       8391      1   0.017208   0.010564     2.60142e-01     2.09200e-02
      8386       8394      1  -0.028094   0.008364     3.00055e-01     6.91943e-02
      8386       8393      1  -0.028094   0.008364     3.00055e-01     6.91943e-02
      8385       8389      1   0.007531  -0.026489     3.00055e-01     6.91943e-02
      8385       8388      1   0.007531   0.014340     2.60142e-01     2.09200e-02
      8385       8387      1   0.007531   0.014340     2.60142e-01     2.09200e-02
      8384       8389      1   0.007531  -0.026489     3.00055e-01     6.91943e-02
      8384       8388      1   0.007531   0.014340     2.60142e-01     2.09200e-02
      8384       8387      1   0.007531   0.014340     2.60142e-01     2.09200e-02
      8383       8390      1   0.017463   0.010564     3.00055e-01     6.91943e-02
      8383       8391      1   0.017463   0.010564     3.00055e-01     6.91943e-02
      8382       8386      1   0.025511  -0.023412     3.00055e-01     6.91943e-02
      8382       8384      1   0.025511   0.006276     2.60142e-01     2.09200e-02
      8382       8385      1   0.025511   0.006276     2.60142e-01     2.09200e-02
      8381       8386      1   0.025511  -0.023412     3.00055e-01     6.91943e-02
      8381       8384      1   0.025511   0.006276     2.60142e-01     2.09200e-02
      8381       8385      1   0.025511   0.006276     2.60142e-01     2.09200e-02
      8380       8388      1  -0.111712   0.014340     3.00055e-01     6.91943e-02
      8380       8387      1  -0.111712   0.014340     3.00055e-01     6.91943e-02
      8379       8386      1   0.025511  -0.023412     3.00055e-01     6.91943e-02
      8379       8384      1   0.025511   0.006276     2.60142e-01     2.09200e-02
      8379       8385      1   0.025511   0.006276     2.60142e-01     2.09200e-02
      8456       8496      1  -0.673755   0.044953     2.78067e-01     9.58675e-02
      8456       8495      1  -0.673755   0.044953     2.78067e-01     9.58675e-02
      8455       8493      1   0.897613   0.015716     3.00055e-01     6.13495e-02
      8455       8492      1   0.897613   0.015716     3.00055e-01     6.13495e-02
      8454       8496      1  -0.552948   0.044953     2.80072e-01     8.62554e-02
      8454       8495      1  -0.552948   0.044953     2.80072e-01     8.62554e-02
      8447       8448      1   0.172230  -0.282478     2.67982e-01     8.67002e-02
      8446       8448      1   0.172230  -0.282478     2.67982e-01     8.67002e-02
      8445       8448      1   0.172230  -0.282478     2.67982e-01     8.67002e-02
      8444       8449      1  -0.338973   0.143525     2.67982e-01     8.67002e-02
      8444       8450      1  -0.338973   0.143525     2.67982e-01     8.67002e-02
      8444       8451      1  -0.338973   0.143525     2.67982e-01     8.67002e-02
      8443       8444      1   0.172230  -0.282478     2.67982e-01     8.67002e-02
      8443       8448      1   0.172230  -0.282478     2.67982e-01     8.67002e-02
      8442       8444      1   0.172230  -0.282478     2.67982e-01     8.67002e-02
      8442       8448      1   0.172230  -0.282478     2.67982e-01     8.67002e-02
      8441       8444      1   0.172230  -0.282478     2.67982e-01     8.67002e-02
      8441       8448      1   0.172230  -0.282478     2.67982e-01     8.67002e-02
      8440       8445      1  -0.338973   0.143525     2.67982e-01     8.67002e-02
      8440       8446      1  -0.338973   0.143525     2.67982e-01     8.67002e-02
      8440       8447      1  -0.338973   0.143525     2.67982e-01     8.67002e-02
      8440       8449      1  -0.338973   0.143525     2.67982e-01     8.67002e-02
      8440       8450      1  -0.338973   0.143525     2.67982e-01     8.67002e-02
      8440       8451      1  -0.338973   0.143525     2.67982e-01     8.67002e-02
      8438       8440      1   0.136415  -0.282478     2.67982e-01     8.67002e-02
      8438       8444      1   0.136415  -0.282478     2.67982e-01     8.67002e-02
      8438       8448      1   0.136415  -0.282478     2.67982e-01     8.67002e-02
      8437       8440      1   0.136415  -0.282478     2.67982e-01     8.67002e-02
      8437       8444      1   0.136415  -0.282478     2.67982e-01     8.67002e-02
      8437       8448      1   0.136415  -0.282478     2.67982e-01     8.67002e-02
      8436       8441      1  -0.170824   0.143525     2.67982e-01     8.67002e-02
      8436       8442      1  -0.170824   0.143525     2.67982e-01     8.67002e-02
      8436       8443      1  -0.170824   0.143525     2.67982e-01     8.67002e-02
      8436       8445      1  -0.170824   0.143525     2.67982e-01     8.67002e-02
      8436       8446      1  -0.170824   0.143525     2.67982e-01     8.67002e-02
      8436       8447      1  -0.170824   0.143525     2.67982e-01     8.67002e-02
      8436       8449      1  -0.170824   0.143525     2.67982e-01     8.67002e-02
      8436       8450      1  -0.170824   0.143525     2.67982e-01     8.67002e-02
      8436       8451      1  -0.170824   0.143525     2.67982e-01     8.67002e-02
      8435       8437      1   0.078534   0.113679     2.21567e-01     3.28444e-02
      8435       8438      1   0.078534   0.113679     2.21567e-01     3.28444e-02
      8435       8439      1   0.078534   0.204385     2.86068e-01     1.08078e-01
      8434       8437      1   0.078534   0.113679     2.21567e-01     3.28444e-02
      8434       8438      1   0.078534   0.113679     2.21567e-01     3.28444e-02
      8434       8439      1   0.078534   0.204385     2.86068e-01     1.08078e-01
      8432       8437      1  -0.508176   0.113679     2.47999e-01     1.08078e-01
      8432       8438      1  -0.508176   0.113679     2.47999e-01     1.08078e-01
      8431       8434      1   1.339721   0.065445     3.10656e-01     1.17227e-01
      8431       8435      1   1.339721   0.065445     3.10656e-01     1.17227e-01
      8429       8454      1   0.095591  -0.460790     2.73568e-01     1.08078e-01
      8429       8431      1   0.095591   1.116434     3.10656e-01     1.17227e-01
      8428       8454      1   0.095591  -0.460790     2.73568e-01     1.08078e-01
      8428       8431      1   0.095591   1.116434     3.10656e-01     1.17227e-01
      8426       8428      1   0.063253   0.079659     2.47135e-01     3.28444e-02
      8426       8429      1   0.063253   0.079659     2.47135e-01     3.28444e-02
      8426       8430      1   0.063253  -0.424567     2.73568e-01     1.08078e-01
      8426       8455      1   0.063253   0.748011     2.93551e-01     7.68707e-02
      8424       8426      1   0.070469   0.052711     2.47135e-01     3.28444e-02
      8424       8427      1   0.070469   0.014549     2.93551e-01     8.67002e-02
      8424       8454      1   0.070469  -0.460790     2.73568e-01     1.08078e-01
      8423       8426      1   0.070469   0.052711     2.47135e-01     3.28444e-02
      8423       8427      1   0.070469   0.014549     2.93551e-01     8.67002e-02
      8423       8454      1   0.070469  -0.460790     2.73568e-01     1.08078e-01
      8422       8428      1   0.196939   0.079659     2.93551e-01     8.67002e-02
      8422       8429      1   0.196939   0.079659     2.93551e-01     8.67002e-02
      8421       8426      1  -0.575489   0.052711     2.73568e-01     1.08078e-01
      8419       8423      1   0.910403   0.058724     2.93551e-01     7.68707e-02
      8419       8424      1   0.910403   0.058724     2.93551e-01     7.68707e-02
      8493       8496      1   0.018859   0.044953     2.60142e-01     2.09200e-02
      8493       8495      1   0.018859   0.044953     2.60142e-01     2.09200e-02
      8492       8496      1   0.018859   0.044953     2.60142e-01     2.09200e-02
      8492       8495      1   0.018859   0.044953     2.60142e-01     2.09200e-02
      8490       8494      1   0.020431  -0.136833     3.00055e-01     6.91943e-02
      8490       8493      1   0.020431   0.015716     2.60142e-01     2.09200e-02
      8490       8492      1   0.020431   0.015716     2.60142e-01     2.09200e-02
      8489       8494      1   0.020431  -0.136833     3.00055e-01     6.91943e-02
      8489       8493      1   0.020431   0.015716     2.60142e-01     2.09200e-02
      8489       8492      1   0.020431   0.015716     2.60142e-01     2.09200e-02
      8488       8496      1  -0.026954   0.044953     3.00055e-01     6.91943e-02
      8488       8495      1  -0.026954   0.044953     3.00055e-01     6.91943e-02
      8487       8491      1   0.010573  -0.002029     3.00055e-01     6.91943e-02
      8487       8490      1   0.010573   0.017026     2.60142e-01     2.09200e-02
      8487       8489      1   0.010573   0.017026     2.60142e-01     2.09200e-02
      8486       8491      1   0.010573  -0.002029     3.00055e-01     6.91943e-02
      8486       8490      1   0.010573   0.017026     2.60142e-01     2.09200e-02
      8486       8489      1   0.010573   0.017026     2.60142e-01     2.09200e-02
      8485       8493      1  -0.016521   0.015716     3.00055e-01     6.91943e-02
      8485       8492      1  -0.016521   0.015716     3.00055e-01     6.91943e-02
      8484       8488      1   0.011511  -0.022462     3.00055e-01     6.91943e-02
      8484       8486      1   0.011511   0.008811     2.60142e-01     2.09200e-02
      8484       8487      1   0.011511   0.008811     2.60142e-01     2.09200e-02
      8483       8488      1   0.011511  -0.022462     3.00055e-01     6.91943e-02
      8483       8486      1   0.011511   0.008811     2.60142e-01     2.09200e-02
      8483       8487      1   0.011511   0.008811     2.60142e-01     2.09200e-02
      8482       8490      1  -0.027812   0.017026     3.00055e-01     6.91943e-02
      8482       8489      1  -0.027812   0.017026     3.00055e-01     6.91943e-02
      8481       8485      1   0.006833  -0.013767     3.00055e-01     6.91943e-02
      8481       8483      1   0.006833   0.009592     2.60142e-01     2.09200e-02
      8481       8484      1   0.006833   0.009592     2.60142e-01     2.09200e-02
      8480       8485      1   0.006833  -0.013767     3.00055e-01     6.91943e-02
      8480       8483      1   0.006833   0.009592     2.60142e-01     2.09200e-02
      8480       8484      1   0.006833   0.009592     2.60142e-01     2.09200e-02
      8479       8486      1  -0.004386   0.008811     3.00055e-01     6.91943e-02
      8479       8487      1  -0.004386   0.008811     3.00055e-01     6.91943e-02
      8478       8482      1   0.011241  -0.023177     3.00055e-01     6.91943e-02
      8478       8480      1   0.011241   0.005694     2.60142e-01     2.09200e-02
      8478       8481      1   0.011241   0.005694     2.60142e-01     2.09200e-02
      8477       8482      1   0.011241  -0.023177     3.00055e-01     6.91943e-02
      8477       8480      1   0.011241   0.005694     2.60142e-01     2.09200e-02
      8477       8481      1   0.011241   0.005694     2.60142e-01     2.09200e-02
      8476       8483      1  -0.026451   0.009592     3.00055e-01     6.91943e-02
      8476       8484      1  -0.026451   0.009592     3.00055e-01     6.91943e-02
      8475       8479      1   0.010172  -0.003655     3.00055e-01     6.91943e-02
      8475       8478      1   0.010172   0.009367     2.60142e-01     2.09200e-02
      8475       8477      1   0.010172   0.009367     2.60142e-01     2.09200e-02
      8474       8479      1   0.010172  -0.003655     3.00055e-01     6.91943e-02
      8474       8478      1   0.010172   0.009367     2.60142e-01     2.09200e-02
      8474       8477      1   0.010172   0.009367     2.60142e-01     2.09200e-02
      8473       8480      1  -0.014653   0.005694     3.00055e-01     6.91943e-02
      8473       8481      1  -0.014653   0.005694     3.00055e-01     6.91943e-02
      8472       8476      1   0.010037  -0.022042     3.00055e-01     6.91943e-02
      8472       8474      1   0.010037   0.008477     2.60142e-01     2.09200e-02
      8472       8475      1   0.010037   0.008477     2.60142e-01     2.09200e-02
      8471       8476      1   0.010037  -0.022042     3.00055e-01     6.91943e-02
      8471       8474      1   0.010037   0.008477     2.60142e-01     2.09200e-02
      8471       8475      1   0.010037   0.008477     2.60142e-01     2.09200e-02
      8470       8478      1  -0.021025   0.009367     3.00055e-01     6.91943e-02
      8470       8477      1  -0.021025   0.009367     3.00055e-01     6.91943e-02
      8469       8473      1   0.012677  -0.012211     3.00055e-01     6.91943e-02
      8469       8472      1   0.012677   0.008364     2.60142e-01     2.09200e-02
      8469       8471      1   0.012677   0.008364     2.60142e-01     2.09200e-02
      8468       8473      1   0.012677  -0.012211     3.00055e-01     6.91943e-02
      8468       8472      1   0.012677   0.008364     2.60142e-01     2.09200e-02
      8468       8471      1   0.012677   0.008364     2.60142e-01     2.09200e-02
      8467       8474      1  -0.031787   0.008477     3.00055e-01     6.91943e-02
      8467       8475      1  -0.031787   0.008477     3.00055e-01     6.91943e-02
      8466       8470      1   0.017208  -0.017521     3.00055e-01     6.91943e-02
      8466       8468      1   0.017208   0.010564     2.60142e-01     2.09200e-02
      8466       8469      1   0.017208   0.010564     2.60142e-01     2.09200e-02
      8465       8470      1   0.017208  -0.017521     3.00055e-01     6.91943e-02
      8465       8468      1   0.017208   0.010564     2.60142e-01     2.09200e-02
      8465       8469      1   0.017208   0.010564     2.60142e-01     2.09200e-02
      8464       8472      1  -0.028094   0.008364     3.00055e-01     6.91943e-02
      8464       8471      1  -0.028094   0.008364     3.00055e-01     6.91943e-02
      8463       8467      1   0.007531  -0.026489     3.00055e-01     6.91943e-02
      8463       8466      1   0.007531   0.014340     2.60142e-01     2.09200e-02
      8463       8465      1   0.007531   0.014340     2.60142e-01     2.09200e-02
      8462       8467      1   0.007531  -0.026489     3.00055e-01     6.91943e-02
      8462       8466      1   0.007531   0.014340     2.60142e-01     2.09200e-02
      8462       8465      1   0.007531   0.014340     2.60142e-01     2.09200e-02
      8461       8468      1   0.017463   0.010564     3.00055e-01     6.91943e-02
      8461       8469      1   0.017463   0.010564     3.00055e-01     6.91943e-02
      8460       8464      1   0.025511  -0.023412     3.00055e-01     6.91943e-02
      8460       8462      1   0.025511   0.006276     2.60142e-01     2.09200e-02
      8460       8463      1   0.025511   0.006276     2.60142e-01     2.09200e-02
      8459       8464      1   0.025511  -0.023412     3.00055e-01     6.91943e-02
      8459       8462      1   0.025511   0.006276     2.60142e-01     2.09200e-02
      8459       8463      1   0.025511   0.006276     2.60142e-01     2.09200e-02
      8458       8466      1  -0.111712   0.014340     3.00055e-01     6.91943e-02
      8458       8465      1  -0.111712   0.014340     3.00055e-01     6.91943e-02
      8457       8464      1   0.025511  -0.023412     3.00055e-01     6.91943e-02
      8457       8462      1   0.025511   0.006276     2.60142e-01     2.09200e-02
      8457       8463      1   0.025511   0.006276     2.60142e-01     2.09200e-02
      8536       8538      1   0.053944  -0.559638     2.78067e-01     9.58675e-02
      8536       8539      1   0.053944  -0.479574     2.80072e-01     8.62554e-02
      8535       8538      1   0.053944  -0.559638     2.78067e-01     9.58675e-02
      8535       8539      1   0.053944  -0.479574     2.80072e-01     8.62554e-02
      8533       8536      1   0.018859   0.044953     2.60142e-01     2.09200e-02
      8533       8535      1   0.018859   0.044953     2.60142e-01     2.09200e-02
      8533       8537      1   0.018859   0.758669     3.00055e-01     6.13495e-02
      8532       8536      1   0.018859   0.044953     2.60142e-01     2.09200e-02
      8532       8535      1   0.018859   0.044953     2.60142e-01     2.09200e-02
      8532       8537      1   0.018859   0.758669     3.00055e-01     6.13495e-02
      8530       8534      1   0.020431  -0.136833     3.00055e-01     6.91943e-02
      8530       8533      1   0.020431   0.015716     2.60142e-01     2.09200e-02
      8530       8532      1   0.020431   0.015716     2.60142e-01     2.09200e-02
      8529       8534      1   0.020431  -0.136833     3.00055e-01     6.91943e-02
      8529       8533      1   0.020431   0.015716     2.60142e-01     2.09200e-02
      8529       8532      1   0.020431   0.015716     2.60142e-01     2.09200e-02
      8528       8536      1  -0.026954   0.044953     3.00055e-01     6.91943e-02
      8528       8535      1  -0.026954   0.044953     3.00055e-01     6.91943e-02
      8527       8531      1   0.010573  -0.002029     3.00055e-01     6.91943e-02
      8527       8530      1   0.010573   0.017026     2.60142e-01     2.09200e-02
      8527       8529      1   0.010573   0.017026     2.60142e-01     2.09200e-02
      8526       8531      1   0.010573  -0.002029     3.00055e-01     6.91943e-02
      8526       8530      1   0.010573   0.017026     2.60142e-01     2.09200e-02
      8526       8529      1   0.010573   0.017026     2.60142e-01     2.09200e-02
      8525       8533      1  -0.016521   0.015716     3.00055e-01     6.91943e-02
      8525       8532      1  -0.016521   0.015716     3.00055e-01     6.91943e-02
      8524       8528      1   0.011511  -0.022462     3.00055e-01     6.91943e-02
      8524       8526      1   0.011511   0.008811     2.60142e-01     2.09200e-02
      8524       8527      1   0.011511   0.008811     2.60142e-01     2.09200e-02
      8523       8528      1   0.011511  -0.022462     3.00055e-01     6.91943e-02
      8523       8526      1   0.011511   0.008811     2.60142e-01     2.09200e-02
      8523       8527      1   0.011511   0.008811     2.60142e-01     2.09200e-02
      8522       8530      1  -0.027812   0.017026     3.00055e-01     6.91943e-02
      8522       8529      1  -0.027812   0.017026     3.00055e-01     6.91943e-02
      8521       8525      1   0.006833  -0.013767     3.00055e-01     6.91943e-02
      8521       8523      1   0.006833   0.009592     2.60142e-01     2.09200e-02
      8521       8524      1   0.006833   0.009592     2.60142e-01     2.09200e-02
      8520       8525      1   0.006833  -0.013767     3.00055e-01     6.91943e-02
      8520       8523      1   0.006833   0.009592     2.60142e-01     2.09200e-02
      8520       8524      1   0.006833   0.009592     2.60142e-01     2.09200e-02
      8519       8526      1  -0.004386   0.008811     3.00055e-01     6.91943e-02
      8519       8527      1  -0.004386   0.008811     3.00055e-01     6.91943e-02
      8518       8522      1   0.011241  -0.023177     3.00055e-01     6.91943e-02
      8518       8520      1   0.011241   0.005694     2.60142e-01     2.09200e-02
      8518       8521      1   0.011241   0.005694     2.60142e-01     2.09200e-02
      8517       8522      1   0.011241  -0.023177     3.00055e-01     6.91943e-02
      8517       8520      1   0.011241   0.005694     2.60142e-01     2.09200e-02
      8517       8521      1   0.011241   0.005694     2.60142e-01     2.09200e-02
      8516       8523      1  -0.026451   0.009592     3.00055e-01     6.91943e-02
      8516       8524      1  -0.026451   0.009592     3.00055e-01     6.91943e-02
      8515       8519      1   0.010172  -0.003655     3.00055e-01     6.91943e-02
      8515       8518      1   0.010172   0.009367     2.60142e-01     2.09200e-02
      8515       8517      1   0.010172   0.009367     2.60142e-01     2.09200e-02
      8514       8519      1   0.010172  -0.003655     3.00055e-01     6.91943e-02
      8514       8518      1   0.010172   0.009367     2.60142e-01     2.09200e-02
      8514       8517      1   0.010172   0.009367     2.60142e-01     2.09200e-02
      8513       8520      1  -0.014653   0.005694     3.00055e-01     6.91943e-02
      8513       8521      1  -0.014653   0.005694     3.00055e-01     6.91943e-02
      8512       8516      1   0.010037  -0.022042     3.00055e-01     6.91943e-02
      8512       8514      1   0.010037   0.008477     2.60142e-01     2.09200e-02
      8512       8515      1   0.010037   0.008477     2.60142e-01     2.09200e-02
      8511       8516      1   0.010037  -0.022042     3.00055e-01     6.91943e-02
      8511       8514      1   0.010037   0.008477     2.60142e-01     2.09200e-02
      8511       8515      1   0.010037   0.008477     2.60142e-01     2.09200e-02
      8510       8518      1  -0.021025   0.009367     3.00055e-01     6.91943e-02
      8510       8517      1  -0.021025   0.009367     3.00055e-01     6.91943e-02
      8509       8513      1   0.012677  -0.012211     3.00055e-01     6.91943e-02
      8509       8512      1   0.012677   0.008364     2.60142e-01     2.09200e-02
      8509       8511      1   0.012677   0.008364     2.60142e-01     2.09200e-02
      8508       8513      1   0.012677  -0.012211     3.00055e-01     6.91943e-02
      8508       8512      1   0.012677   0.008364     2.60142e-01     2.09200e-02
      8508       8511      1   0.012677   0.008364     2.60142e-01     2.09200e-02
      8507       8514      1  -0.031787   0.008477     3.00055e-01     6.91943e-02
      8507       8515      1  -0.031787   0.008477     3.00055e-01     6.91943e-02
      8506       8510      1   0.017208  -0.017521     3.00055e-01     6.91943e-02
      8506       8508      1   0.017208   0.010564     2.60142e-01     2.09200e-02
      8506       8509      1   0.017208   0.010564     2.60142e-01     2.09200e-02
      8505       8510      1   0.017208  -0.017521     3.00055e-01     6.91943e-02
      8505       8508      1   0.017208   0.010564     2.60142e-01     2.09200e-02
      8505       8509      1   0.017208   0.010564     2.60142e-01     2.09200e-02
      8504       8512      1  -0.028094   0.008364     3.00055e-01     6.91943e-02
      8504       8511      1  -0.028094   0.008364     3.00055e-01     6.91943e-02
      8503       8507      1   0.007531  -0.026489     3.00055e-01     6.91943e-02
      8503       8506      1   0.007531   0.014340     2.60142e-01     2.09200e-02
      8503       8505      1   0.007531   0.014340     2.60142e-01     2.09200e-02
      8502       8507      1   0.007531  -0.026489     3.00055e-01     6.91943e-02
      8502       8506      1   0.007531   0.014340     2.60142e-01     2.09200e-02
      8502       8505      1   0.007531   0.014340     2.60142e-01     2.09200e-02
      8501       8508      1   0.017463   0.010564     3.00055e-01     6.91943e-02
      8501       8509      1   0.017463   0.010564     3.00055e-01     6.91943e-02
      8500       8504      1   0.025511  -0.023412     3.00055e-01     6.91943e-02
      8500       8502      1   0.025511   0.006276     2.60142e-01     2.09200e-02
      8500       8503      1   0.025511   0.006276     2.60142e-01     2.09200e-02
      8499       8504      1   0.025511  -0.023412     3.00055e-01     6.91943e-02
      8499       8502      1   0.025511   0.006276     2.60142e-01     2.09200e-02
      8499       8503      1   0.025511   0.006276     2.60142e-01     2.09200e-02
      8498       8506      1  -0.111712   0.014340     3.00055e-01     6.91943e-02
      8498       8505      1  -0.111712   0.014340     3.00055e-01     6.91943e-02
      8497       8504      1   0.025511  -0.023412     3.00055e-01     6.91943e-02
      8497       8502      1   0.025511   0.006276     2.60142e-01     2.09200e-02
      8497       8503      1   0.025511   0.006276     2.60142e-01     2.09200e-02
      8574       8614      1  -0.673755   0.044953     2.78067e-01     9.58675e-02
      8574       8613      1  -0.673755   0.044953     2.78067e-01     9.58675e-02
      8573       8611      1   0.897613   0.015716     3.00055e-01     6.13495e-02
      8573       8610      1   0.897613   0.015716     3.00055e-01     6.13495e-02
      8572       8614      1  -0.552948   0.044953     2.80072e-01     8.62554e-02
      8572       8613      1  -0.552948   0.044953     2.80072e-01     8.62554e-02
      8565       8566      1   0.172230  -0.282478     2.67982e-01     8.67002e-02
      8564       8566      1   0.172230  -0.282478     2.67982e-01     8.67002e-02
      8563       8566      1   0.172230  -0.282478     2.67982e-01     8.67002e-02
      8562       8567      1  -0.338973   0.143525     2.67982e-01     8.67002e-02
      8562       8568      1  -0.338973   0.143525     2.67982e-01     8.67002e-02
      8562       8569      1  -0.338973   0.143525     2.67982e-01     8.67002e-02
      8561       8562      1   0.172230  -0.282478     2.67982e-01     8.67002e-02
      8561       8566      1   0.172230  -0.282478     2.67982e-01     8.67002e-02
      8560       8562      1   0.172230  -0.282478     2.67982e-01     8.67002e-02
      8560       8566      1   0.172230  -0.282478     2.67982e-01     8.67002e-02
      8559       8562      1   0.172230  -0.282478     2.67982e-01     8.67002e-02
      8559       8566      1   0.172230  -0.282478     2.67982e-01     8.67002e-02
      8558       8563      1  -0.338973   0.143525     2.67982e-01     8.67002e-02
      8558       8564      1  -0.338973   0.143525     2.67982e-01     8.67002e-02
      8558       8565      1  -0.338973   0.143525     2.67982e-01     8.67002e-02
      8558       8567      1  -0.338973   0.143525     2.67982e-01     8.67002e-02
      8558       8568      1  -0.338973   0.143525     2.67982e-01     8.67002e-02
      8558       8569      1  -0.338973   0.143525     2.67982e-01     8.67002e-02
      8556       8558      1   0.136415  -0.282478     2.67982e-01     8.67002e-02
      8556       8562      1   0.136415  -0.282478     2.67982e-01     8.67002e-02
      8556       8566      1   0.136415  -0.282478     2.67982e-01     8.67002e-02
      8555       8558      1   0.136415  -0.282478     2.67982e-01     8.67002e-02
      8555       8562      1   0.136415  -0.282478     2.67982e-01     8.67002e-02
      8555       8566      1   0.136415  -0.282478     2.67982e-01     8.67002e-02
      8554       8559      1  -0.170824   0.143525     2.67982e-01     8.67002e-02
      8554       8560      1  -0.170824   0.143525     2.67982e-01     8.67002e-02
      8554       8561      1  -0.170824   0.143525     2.67982e-01     8.67002e-02
      8554       8563      1  -0.170824   0.143525     2.67982e-01     8.67002e-02
      8554       8564      1  -0.170824   0.143525     2.67982e-01     8.67002e-02
      8554       8565      1  -0.170824   0.143525     2.67982e-01     8.67002e-02
      8554       8567      1  -0.170824   0.143525     2.67982e-01     8.67002e-02
      8554       8568      1  -0.170824   0.143525     2.67982e-01     8.67002e-02
      8554       8569      1  -0.170824   0.143525     2.67982e-01     8.67002e-02
      8553       8555      1   0.078534   0.113679     2.21567e-01     3.28444e-02
      8553       8556      1   0.078534   0.113679     2.21567e-01     3.28444e-02
      8553       8557      1   0.078534   0.204385     2.86068e-01     1.08078e-01
      8552       8555      1   0.078534   0.113679     2.21567e-01     3.28444e-02
      8552       8556      1   0.078534   0.113679     2.21567e-01     3.28444e-02
      8552       8557      1   0.078534   0.204385     2.86068e-01     1.08078e-01
      8550       8555      1  -0.508176   0.113679     2.47999e-01     1.08078e-01
      8550       8556      1  -0.508176   0.113679     2.47999e-01     1.08078e-01
      8549       8552      1   1.339721   0.065445     3.10656e-01     1.17227e-01
      8549       8553      1   1.339721   0.065445     3.10656e-01     1.17227e-01
      8547       8572      1   0.095591  -0.460790     2.73568e-01     1.08078e-01
      8547       8549      1   0.095591   1.116434     3.10656e-01     1.17227e-01
      8546       8572      1   0.095591  -0.460790     2.73568e-01     1.08078e-01
      8546       8549      1   0.095591   1.116434     3.10656e-01     1.17227e-01
      8544       8546      1   0.063253   0.079659     2.47135e-01     3.28444e-02
      8544       8547      1   0.063253   0.079659     2.47135e-01     3.28444e-02
      8544       8548      1   0.063253  -0.424567     2.73568e-01     1.08078e-01
      8544       8573      1   0.063253   0.748011     2.93551e-01     7.68707e-02
      8542       8544      1   0.070469   0.052711     2.47135e-01     3.28444e-02
      8542       8545      1   0.070469   0.014549     2.93551e-01     8.67002e-02
      8542       8572      1   0.070469  -0.460790     2.73568e-01     1.08078e-01
      8541       8544      1   0.070469   0.052711     2.47135e-01     3.28444e-02
      8541       8545      1   0.070469   0.014549     2.93551e-01     8.67002e-02
      8541       8572      1   0.070469  -0.460790     2.73568e-01     1.08078e-01
      8540       8546      1   0.196939   0.079659     2.93551e-01     8.67002e-02
      8540       8547      1   0.196939   0.079659     2.93551e-01     8.67002e-02
      8539       8544      1  -0.575489   0.052711     2.73568e-01     1.08078e-01
      8537       8541      1   0.910403   0.058724     2.93551e-01     7.68707e-02
      8537       8542      1   0.910403   0.058724     2.93551e-01     7.68707e-02
      8611       8614      1   0.018859   0.044953     2.60142e-01     2.09200e-02
      8611       8613      1   0.018859   0.044953     2.60142e-01     2.09200e-02
      8610       8614      1   0.018859   0.044953     2.60142e-01     2.09200e-02
      8610       8613      1   0.018859   0.044953     2.60142e-01     2.09200e-02
      8608       8612      1   0.020431  -0.136833     3.00055e-01     6.91943e-02
      8608       8611      1   0.020431   0.015716     2.60142e-01     2.09200e-02
      8608       8610      1   0.020431   0.015716     2.60142e-01     2.09200e-02
      8607       8612      1   0.020431  -0.136833     3.00055e-01     6.91943e-02
      8607       8611      1   0.020431   0.015716     2.60142e-01     2.09200e-02
      8607       8610      1   0.020431   0.015716     2.60142e-01     2.09200e-02
      8606       8614      1  -0.026954   0.044953     3.00055e-01     6.91943e-02
      8606       8613      1  -0.026954   0.044953     3.00055e-01     6.91943e-02
      8605       8609      1   0.010573  -0.002029     3.00055e-01     6.91943e-02
      8605       8608      1   0.010573   0.017026     2.60142e-01     2.09200e-02
      8605       8607      1   0.010573   0.017026     2.60142e-01     2.09200e-02
      8604       8609      1   0.010573  -0.002029     3.00055e-01     6.91943e-02
      8604       8608      1   0.010573   0.017026     2.60142e-01     2.09200e-02
      8604       8607      1   0.010573   0.017026     2.60142e-01     2.09200e-02
      8603       8611      1  -0.016521   0.015716     3.00055e-01     6.91943e-02
      8603       8610      1  -0.016521   0.015716     3.00055e-01     6.91943e-02
      8602       8606      1   0.011511  -0.022462     3.00055e-01     6.91943e-02
      8602       8604      1   0.011511   0.008811     2.60142e-01     2.09200e-02
      8602       8605      1   0.011511   0.008811     2.60142e-01     2.09200e-02
      8601       8606      1   0.011511  -0.022462     3.00055e-01     6.91943e-02
      8601       8604      1   0.011511   0.008811     2.60142e-01     2.09200e-02
      8601       8605      1   0.011511   0.008811     2.60142e-01     2.09200e-02
      8600       8608      1  -0.027812   0.017026     3.00055e-01     6.91943e-02
      8600       8607      1  -0.027812   0.017026     3.00055e-01     6.91943e-02
      8599       8603      1   0.006833  -0.013767     3.00055e-01     6.91943e-02
      8599       8601      1   0.006833   0.009592     2.60142e-01     2.09200e-02
      8599       8602      1   0.006833   0.009592     2.60142e-01     2.09200e-02
      8598       8603      1   0.006833  -0.013767     3.00055e-01     6.91943e-02
      8598       8601      1   0.006833   0.009592     2.60142e-01     2.09200e-02
      8598       8602      1   0.006833   0.009592     2.60142e-01     2.09200e-02
      8597       8604      1  -0.004386   0.008811     3.00055e-01     6.91943e-02
      8597       8605      1  -0.004386   0.008811     3.00055e-01     6.91943e-02
      8596       8600      1   0.011241  -0.023177     3.00055e-01     6.91943e-02
      8596       8598      1   0.011241   0.005694     2.60142e-01     2.09200e-02
      8596       8599      1   0.011241   0.005694     2.60142e-01     2.09200e-02
      8595       8600      1   0.011241  -0.023177     3.00055e-01     6.91943e-02
      8595       8598      1   0.011241   0.005694     2.60142e-01     2.09200e-02
      8595       8599      1   0.011241   0.005694     2.60142e-01     2.09200e-02
      8594       8601      1  -0.026451   0.009592     3.00055e-01     6.91943e-02
      8594       8602      1  -0.026451   0.009592     3.00055e-01     6.91943e-02
      8593       8597      1   0.010172  -0.003655     3.00055e-01     6.91943e-02
      8593       8596      1   0.010172   0.009367     2.60142e-01     2.09200e-02
      8593       8595      1   0.010172   0.009367     2.60142e-01     2.09200e-02
      8592       8597      1   0.010172  -0.003655     3.00055e-01     6.91943e-02
      8592       8596      1   0.010172   0.009367     2.60142e-01     2.09200e-02
      8592       8595      1   0.010172   0.009367     2.60142e-01     2.09200e-02
      8591       8598      1  -0.014653   0.005694     3.00055e-01     6.91943e-02
      8591       8599      1  -0.014653   0.005694     3.00055e-01     6.91943e-02
      8590       8594      1   0.010037  -0.022042     3.00055e-01     6.91943e-02
      8590       8592      1   0.010037   0.008477     2.60142e-01     2.09200e-02
      8590       8593      1   0.010037   0.008477     2.60142e-01     2.09200e-02
      8589       8594      1   0.010037  -0.022042     3.00055e-01     6.91943e-02
      8589       8592      1   0.010037   0.008477     2.60142e-01     2.09200e-02
      8589       8593      1   0.010037   0.008477     2.60142e-01     2.09200e-02
      8588       8596      1  -0.021025   0.009367     3.00055e-01     6.91943e-02
      8588       8595      1  -0.021025   0.009367     3.00055e-01     6.91943e-02
      8587       8591      1   0.012677  -0.012211     3.00055e-01     6.91943e-02
      8587       8590      1   0.012677   0.008364     2.60142e-01     2.09200e-02
      8587       8589      1   0.012677   0.008364     2.60142e-01     2.09200e-02
      8586       8591      1   0.012677  -0.012211     3.00055e-01     6.91943e-02
      8586       8590      1   0.012677   0.008364     2.60142e-01     2.09200e-02
      8586       8589      1   0.012677   0.008364     2.60142e-01     2.09200e-02
      8585       8592      1  -0.031787   0.008477     3.00055e-01     6.91943e-02
      8585       8593      1  -0.031787   0.008477     3.00055e-01     6.91943e-02
      8584       8588      1   0.017208  -0.017521     3.00055e-01     6.91943e-02
      8584       8586      1   0.017208   0.010564     2.60142e-01     2.09200e-02
      8584       8587      1   0.017208   0.010564     2.60142e-01     2.09200e-02
      8583       8588      1   0.017208  -0.017521     3.00055e-01     6.91943e-02
      8583       8586      1   0.017208   0.010564     2.60142e-01     2.09200e-02
      8583       8587      1   0.017208   0.010564     2.60142e-01     2.09200e-02
      8582       8590      1  -0.028094   0.008364     3.00055e-01     6.91943e-02
      8582       8589      1  -0.028094   0.008364     3.00055e-01     6.91943e-02
      8581       8585      1   0.007531  -0.026489     3.00055e-01     6.91943e-02
      8581       8584      1   0.007531   0.014340     2.60142e-01     2.09200e-02
      8581       8583      1   0.007531   0.014340     2.60142e-01     2.09200e-02
      8580       8585      1   0.007531  -0.026489     3.00055e-01     6.91943e-02
      8580       8584      1   0.007531   0.014340     2.60142e-01     2.09200e-02
      8580       8583      1   0.007531   0.014340     2.60142e-01     2.09200e-02
      8579       8586      1   0.017463   0.010564     3.00055e-01     6.91943e-02
      8579       8587      1   0.017463   0.010564     3.00055e-01     6.91943e-02
      8578       8582      1   0.025511  -0.023412     3.00055e-01     6.91943e-02
      8578       8580      1   0.025511   0.006276     2.60142e-01     2.09200e-02
      8578       8581      1   0.025511   0.006276     2.60142e-01     2.09200e-02
      8577       8582      1   0.025511  -0.023412     3.00055e-01     6.91943e-02
      8577       8580      1   0.025511   0.006276     2.60142e-01     2.09200e-02
      8577       8581      1   0.025511   0.006276     2.60142e-01     2.09200e-02
      8576       8584      1  -0.111712   0.014340     3.00055e-01     6.91943e-02
      8576       8583      1  -0.111712   0.014340     3.00055e-01     6.91943e-02
      8575       8582      1   0.025511  -0.023412     3.00055e-01     6.91943e-02
      8575       8580      1   0.025511   0.006276     2.60142e-01     2.09200e-02
      8575       8581      1   0.025511   0.006276     2.60142e-01     2.09200e-02
      8654       8656      1   0.053944  -0.559638     2.78067e-01     9.58675e-02
      8654       8657      1   0.053944  -0.479574     2.80072e-01     8.62554e-02
      8653       8656      1   0.053944  -0.559638     2.78067e-01     9.58675e-02
      8653       8657      1   0.053944  -0.479574     2.80072e-01     8.62554e-02
      8651       8654      1   0.018859   0.044953     2.60142e-01     2.09200e-02
      8651       8653      1   0.018859   0.044953     2.60142e-01     2.09200e-02
      8651       8655      1   0.018859   0.758669     3.00055e-01     6.13495e-02
      8650       8654      1   0.018859   0.044953     2.60142e-01     2.09200e-02
      8650       8653      1   0.018859   0.044953     2.60142e-01     2.09200e-02
      8650       8655      1   0.018859   0.758669     3.00055e-01     6.13495e-02
      8648       8652      1   0.020431  -0.136833     3.00055e-01     6.91943e-02
      8648       8651      1   0.020431   0.015716     2.60142e-01     2.09200e-02
      8648       8650      1   0.020431   0.015716     2.60142e-01     2.09200e-02
      8647       8652      1   0.020431  -0.136833     3.00055e-01     6.91943e-02
      8647       8651      1   0.020431   0.015716     2.60142e-01     2.09200e-02
      8647       8650      1   0.020431   0.015716     2.60142e-01     2.09200e-02
      8646       8654      1  -0.026954   0.044953     3.00055e-01     6.91943e-02
      8646       8653      1  -0.026954   0.044953     3.00055e-01     6.91943e-02
      8645       8649      1   0.010573  -0.002029     3.00055e-01     6.91943e-02
      8645       8648      1   0.010573   0.017026     2.60142e-01     2.09200e-02
      8645       8647      1   0.010573   0.017026     2.60142e-01     2.09200e-02
      8644       8649      1   0.010573  -0.002029     3.00055e-01     6.91943e-02
      8644       8648      1   0.010573   0.017026     2.60142e-01     2.09200e-02
      8644       8647      1   0.010573   0.017026     2.60142e-01     2.09200e-02
      8643       8651      1  -0.016521   0.015716     3.00055e-01     6.91943e-02
      8643       8650      1  -0.016521   0.015716     3.00055e-01     6.91943e-02
      8642       8646      1   0.011511  -0.022462     3.00055e-01     6.91943e-02
      8642       8644      1   0.011511   0.008811     2.60142e-01     2.09200e-02
      8642       8645      1   0.011511   0.008811     2.60142e-01     2.09200e-02
      8641       8646      1   0.011511  -0.022462     3.00055e-01     6.91943e-02
      8641       8644      1   0.011511   0.008811     2.60142e-01     2.09200e-02
      8641       8645      1   0.011511   0.008811     2.60142e-01     2.09200e-02
      8640       8648      1  -0.027812   0.017026     3.00055e-01     6.91943e-02
      8640       8647      1  -0.027812   0.017026     3.00055e-01     6.91943e-02
      8639       8643      1   0.006833  -0.013767     3.00055e-01     6.91943e-02
      8639       8641      1   0.006833   0.009592     2.60142e-01     2.09200e-02
      8639       8642      1   0.006833   0.009592     2.60142e-01     2.09200e-02
      8638       8643      1   0.006833  -0.013767     3.00055e-01     6.91943e-02
      8638       8641      1   0.006833   0.009592     2.60142e-01     2.09200e-02
      8638       8642      1   0.006833   0.009592     2.60142e-01     2.09200e-02
      8637       8644      1  -0.004386   0.008811     3.00055e-01     6.91943e-02
      8637       8645      1  -0.004386   0.008811     3.00055e-01     6.91943e-02
      8636       8640      1   0.011241  -0.023177     3.00055e-01     6.91943e-02
      8636       8638      1   0.011241   0.005694     2.60142e-01     2.09200e-02
      8636       8639      1   0.011241   0.005694     2.60142e-01     2.09200e-02
      8635       8640      1   0.011241  -0.023177     3.00055e-01     6.91943e-02
      8635       8638      1   0.011241   0.005694     2.60142e-01     2.09200e-02
      8635       8639      1   0.011241   0.005694     2.60142e-01     2.09200e-02
      8634       8641      1  -0.026451   0.009592     3.00055e-01     6.91943e-02
      8634       8642      1  -0.026451   0.009592     3.00055e-01     6.91943e-02
      8633       8637      1   0.010172  -0.003655     3.00055e-01     6.91943e-02
      8633       8636      1   0.010172   0.009367     2.60142e-01     2.09200e-02
      8633       8635      1   0.010172   0.009367     2.60142e-01     2.09200e-02
      8632       8637      1   0.010172  -0.003655     3.00055e-01     6.91943e-02
      8632       8636      1   0.010172   0.009367     2.60142e-01     2.09200e-02
      8632       8635      1   0.010172   0.009367     2.60142e-01     2.09200e-02
      8631       8638      1  -0.014653   0.005694     3.00055e-01     6.91943e-02
      8631       8639      1  -0.014653   0.005694     3.00055e-01     6.91943e-02
      8630       8634      1   0.010037  -0.022042     3.00055e-01     6.91943e-02
      8630       8632      1   0.010037   0.008477     2.60142e-01     2.09200e-02
      8630       8633      1   0.010037   0.008477     2.60142e-01     2.09200e-02
      8629       8634      1   0.010037  -0.022042     3.00055e-01     6.91943e-02
      8629       8632      1   0.010037   0.008477     2.60142e-01     2.09200e-02
      8629       8633      1   0.010037   0.008477     2.60142e-01     2.09200e-02
      8628       8636      1  -0.021025   0.009367     3.00055e-01     6.91943e-02
      8628       8635      1  -0.021025   0.009367     3.00055e-01     6.91943e-02
      8627       8631      1   0.012677  -0.012211     3.00055e-01     6.91943e-02
      8627       8630      1   0.012677   0.008364     2.60142e-01     2.09200e-02
      8627       8629      1   0.012677   0.008364     2.60142e-01     2.09200e-02
      8626       8631      1   0.012677  -0.012211     3.00055e-01     6.91943e-02
      8626       8630      1   0.012677   0.008364     2.60142e-01     2.09200e-02
      8626       8629      1   0.012677   0.008364     2.60142e-01     2.09200e-02
      8625       8632      1  -0.031787   0.008477     3.00055e-01     6.91943e-02
      8625       8633      1  -0.031787   0.008477     3.00055e-01     6.91943e-02
      8624       8628      1   0.017208  -0.017521     3.00055e-01     6.91943e-02
      8624       8626      1   0.017208   0.010564     2.60142e-01     2.09200e-02
      8624       8627      1   0.017208   0.010564     2.60142e-01     2.09200e-02
      8623       8628      1   0.017208  -0.017521     3.00055e-01     6.91943e-02
      8623       8626      1   0.017208   0.010564     2.60142e-01     2.09200e-02
      8623       8627      1   0.017208   0.010564     2.60142e-01     2.09200e-02
      8622       8630      1  -0.028094   0.008364     3.00055e-01     6.91943e-02
      8622       8629      1  -0.028094   0.008364     3.00055e-01     6.91943e-02
      8621       8625      1   0.007531  -0.026489     3.00055e-01     6.91943e-02
      8621       8624      1   0.007531   0.014340     2.60142e-01     2.09200e-02
      8621       8623      1   0.007531   0.014340     2.60142e-01     2.09200e-02
      8620       8625      1   0.007531  -0.026489     3.00055e-01     6.91943e-02
      8620       8624      1   0.007531   0.014340     2.60142e-01     2.09200e-02
      8620       8623      1   0.007531   0.014340     2.60142e-01     2.09200e-02
      8619       8626      1   0.017463   0.010564     3.00055e-01     6.91943e-02
      8619       8627      1   0.017463   0.010564     3.00055e-01     6.91943e-02
      8618       8622      1   0.025511  -0.023412     3.00055e-01     6.91943e-02
      8618       8620      1   0.025511   0.006276     2.60142e-01     2.09200e-02
      8618       8621      1   0.025511   0.006276     2.60142e-01     2.09200e-02
      8617       8622      1   0.025511  -0.023412     3.00055e-01     6.91943e-02
      8617       8620      1   0.025511   0.006276     2.60142e-01     2.09200e-02
      8617       8621      1   0.025511   0.006276     2.60142e-01     2.09200e-02
      8616       8624      1  -0.111712   0.014340     3.00055e-01     6.91943e-02
      8616       8623      1  -0.111712   0.014340     3.00055e-01     6.91943e-02
      8615       8622      1   0.025511  -0.023412     3.00055e-01     6.91943e-02
      8615       8620      1   0.025511   0.006276     2.60142e-01     2.09200e-02
      8615       8621      1   0.025511   0.006276     2.60142e-01     2.09200e-02
      8692       8732      1  -0.673755   0.044953     2.78067e-01     9.58675e-02
      8692       8731      1  -0.673755   0.044953     2.78067e-01     9.58675e-02
      8691       8729      1   0.897613   0.015716     3.00055e-01     6.13495e-02
      8691       8728      1   0.897613   0.015716     3.00055e-01     6.13495e-02
      8690       8732      1  -0.552948   0.044953     2.80072e-01     8.62554e-02
      8690       8731      1  -0.552948   0.044953     2.80072e-01     8.62554e-02
      8683       8684      1   0.172230  -0.282478     2.67982e-01     8.67002e-02
      8682       8684      1   0.172230  -0.282478     2.67982e-01     8.67002e-02
      8681       8684      1   0.172230  -0.282478     2.67982e-01     8.67002e-02
      8680       8685      1  -0.338973   0.143525     2.67982e-01     8.67002e-02
      8680       8686      1  -0.338973   0.143525     2.67982e-01     8.67002e-02
      8680       8687      1  -0.338973   0.143525     2.67982e-01     8.67002e-02
      8679       8680      1   0.172230  -0.282478     2.67982e-01     8.67002e-02
      8679       8684      1   0.172230  -0.282478     2.67982e-01     8.67002e-02
      8678       8680      1   0.172230  -0.282478     2.67982e-01     8.67002e-02
      8678       8684      1   0.172230  -0.282478     2.67982e-01     8.67002e-02
      8677       8680      1   0.172230  -0.282478     2.67982e-01     8.67002e-02
      8677       8684      1   0.172230  -0.282478     2.67982e-01     8.67002e-02
      8676       8681      1  -0.338973   0.143525     2.67982e-01     8.67002e-02
      8676       8682      1  -0.338973   0.143525     2.67982e-01     8.67002e-02
      8676       8683      1  -0.338973   0.143525     2.67982e-01     8.67002e-02
      8676       8685      1  -0.338973   0.143525     2.67982e-01     8.67002e-02
      8676       8686      1  -0.338973   0.143525     2.67982e-01     8.67002e-02
      8676       8687      1  -0.338973   0.143525     2.67982e-01     8.67002e-02
      8674       8676      1   0.136415  -0.282478     2.67982e-01     8.67002e-02
      8674       8680      1   0.136415  -0.282478     2.67982e-01     8.67002e-02
      8674       8684      1   0.136415  -0.282478     2.67982e-01     8.67002e-02
      8673       8676      1   0.136415  -0.282478     2.67982e-01     8.67002e-02
      8673       8680      1   0.136415  -0.282478     2.67982e-01     8.67002e-02
      8673       8684      1   0.136415  -0.282478     2.67982e-01     8.67002e-02
      8672       8677      1  -0.170824   0.143525     2.67982e-01     8.67002e-02
      8672       8678      1  -0.170824   0.143525     2.67982e-01     8.67002e-02
      8672       8679      1  -0.170824   0.143525     2.67982e-01     8.67002e-02
      8672       8681      1  -0.170824   0.143525     2.67982e-01     8.67002e-02
      8672       8682      1  -0.170824   0.143525     2.67982e-01     8.67002e-02
      8672       8683      1  -0.170824   0.143525     2.67982e-01     8.67002e-02
      8672       8685      1  -0.170824   0.143525     2.67982e-01     8.67002e-02
      8672       8686      1  -0.170824   0.143525     2.67982e-01     8.67002e-02
      8672       8687      1  -0.170824   0.143525     2.67982e-01     8.67002e-02
      8671       8673      1   0.078534   0.113679     2.21567e-01     3.28444e-02
      8671       8674      1   0.078534   0.113679     2.21567e-01     3.28444e-02
      8671       8675      1   0.078534   0.204385     2.86068e-01     1.08078e-01
      8670       8673      1   0.078534   0.113679     2.21567e-01     3.28444e-02
      8670       8674      1   0.078534   0.113679     2.21567e-01     3.28444e-02
      8670       8675      1   0.078534   0.204385     2.86068e-01     1.08078e-01
      8668       8673      1  -0.508176   0.113679     2.47999e-01     1.08078e-01
      8668       8674      1  -0.508176   0.113679     2.47999e-01     1.08078e-01
      8667       8670      1   1.339721   0.065445     3.10656e-01     1.17227e-01
      8667       8671      1   1.339721   0.065445     3.10656e-01     1.17227e-01
      8665       8690      1   0.095591  -0.460790     2.73568e-01     1.08078e-01
      8665       8667      1   0.095591   1.116434     3.10656e-01     1.17227e-01
      8664       8690      1   0.095591  -0.460790     2.73568e-01     1.08078e-01
      8664       8667      1   0.095591   1.116434     3.10656e-01     1.17227e-01
      8662       8664      1   0.063253   0.079659     2.47135e-01     3.28444e-02
      8662       8665      1   0.063253   0.079659     2.47135e-01     3.28444e-02
      8662       8666      1   0.063253  -0.424567     2.73568e-01     1.08078e-01
      8662       8691      1   0.063253   0.748011     2.93551e-01     7.68707e-02
      8660       8662      1   0.070469   0.052711     2.47135e-01     3.28444e-02
      8660       8663      1   0.070469   0.014549     2.93551e-01     8.67002e-02
      8660       8690      1   0.070469  -0.460790     2.73568e-01     1.08078e-01
      8659       8662      1   0.070469   0.052711     2.47135e-01     3.28444e-02
      8659       8663      1   0.070469   0.014549     2.93551e-01     8.67002e-02
      8659       8690      1   0.070469  -0.460790     2.73568e-01     1.08078e-01
      8658       8664      1   0.196939   0.079659     2.93551e-01     8.67002e-02
      8658       8665      1   0.196939   0.079659     2.93551e-01     8.67002e-02
      8657       8662      1  -0.575489   0.052711     2.73568e-01     1.08078e-01
      8655       8659      1   0.910403   0.058724     2.93551e-01     7.68707e-02
      8655       8660      1   0.910403   0.058724     2.93551e-01     7.68707e-02
      8729       8732      1   0.018859   0.044953     2.60142e-01     2.09200e-02
      8729       8731      1   0.018859   0.044953     2.60142e-01     2.09200e-02
      8728       8732      1   0.018859   0.044953     2.60142e-01     2.09200e-02
      8728       8731      1   0.018859   0.044953     2.60142e-01     2.09200e-02
      8726       8730      1   0.020431  -0.136833     3.00055e-01     6.91943e-02
      8726       8729      1   0.020431   0.015716     2.60142e-01     2.09200e-02
      8726       8728      1   0.020431   0.015716     2.60142e-01     2.09200e-02
      8725       8730      1   0.020431  -0.136833     3.00055e-01     6.91943e-02
      8725       8729      1   0.020431   0.015716     2.60142e-01     2.09200e-02
      8725       8728      1   0.020431   0.015716     2.60142e-01     2.09200e-02
      8724       8732      1  -0.026954   0.044953     3.00055e-01     6.91943e-02
      8724       8731      1  -0.026954   0.044953     3.00055e-01     6.91943e-02
      8723       8727      1   0.010573  -0.002029     3.00055e-01     6.91943e-02
      8723       8726      1   0.010573   0.017026     2.60142e-01     2.09200e-02
      8723       8725      1   0.010573   0.017026     2.60142e-01     2.09200e-02
      8722       8727      1   0.010573  -0.002029     3.00055e-01     6.91943e-02
      8722       8726      1   0.010573   0.017026     2.60142e-01     2.09200e-02
      8722       8725      1   0.010573   0.017026     2.60142e-01     2.09200e-02
      8721       8729      1  -0.016521   0.015716     3.00055e-01     6.91943e-02
      8721       8728      1  -0.016521   0.015716     3.00055e-01     6.91943e-02
      8720       8724      1   0.011511  -0.022462     3.00055e-01     6.91943e-02
      8720       8722      1   0.011511   0.008811     2.60142e-01     2.09200e-02
      8720       8723      1   0.011511   0.008811     2.60142e-01     2.09200e-02
      8719       8724      1   0.011511  -0.022462     3.00055e-01     6.91943e-02
      8719       8722      1   0.011511   0.008811     2.60142e-01     2.09200e-02
      8719       8723      1   0.011511   0.008811     2.60142e-01     2.09200e-02
      8718       8726      1  -0.027812   0.017026     3.00055e-01     6.91943e-02
      8718       8725      1  -0.027812   0.017026     3.00055e-01     6.91943e-02
      8717       8721      1   0.006833  -0.013767     3.00055e-01     6.91943e-02
      8717       8719      1   0.006833   0.009592     2.60142e-01     2.09200e-02
      8717       8720      1   0.006833   0.009592     2.60142e-01     2.09200e-02
      8716       8721      1   0.006833  -0.013767     3.00055e-01     6.91943e-02
      8716       8719      1   0.006833   0.009592     2.60142e-01     2.09200e-02
      8716       8720      1   0.006833   0.009592     2.60142e-01     2.09200e-02
      8715       8722      1  -0.004386   0.008811     3.00055e-01     6.91943e-02
      8715       8723      1  -0.004386   0.008811     3.00055e-01     6.91943e-02
      8714       8718      1   0.011241  -0.023177     3.00055e-01     6.91943e-02
      8714       8716      1   0.011241   0.005694     2.60142e-01     2.09200e-02
      8714       8717      1   0.011241   0.005694     2.60142e-01     2.09200e-02
      8713       8718      1   0.011241  -0.023177     3.00055e-01     6.91943e-02
      8713       8716      1   0.011241   0.005694     2.60142e-01     2.09200e-02
      8713       8717      1   0.011241   0.005694     2.60142e-01     2.09200e-02
      8712       8719      1  -0.026451   0.009592     3.00055e-01     6.91943e-02
      8712       8720      1  -0.026451   0.009592     3.00055e-01     6.91943e-02
      8711       8715      1   0.010172  -0.003655     3.00055e-01     6.91943e-02
      8711       8714      1   0.010172   0.009367     2.60142e-01     2.09200e-02
      8711       8713      1   0.010172   0.009367     2.60142e-01     2.09200e-02
      8710       8715      1   0.010172  -0.003655     3.00055e-01     6.91943e-02
      8710       8714      1   0.010172   0.009367     2.60142e-01     2.09200e-02
      8710       8713      1   0.010172   0.009367     2.60142e-01     2.09200e-02
      8709       8716      1  -0.014653   0.005694     3.00055e-01     6.91943e-02
      8709       8717      1  -0.014653   0.005694     3.00055e-01     6.91943e-02
      8708       8712      1   0.010037  -0.022042     3.00055e-01     6.91943e-02
      8708       8710      1   0.010037   0.008477     2.60142e-01     2.09200e-02
      8708       8711      1   0.010037   0.008477     2.60142e-01     2.09200e-02
      8707       8712      1   0.010037  -0.022042     3.00055e-01     6.91943e-02
      8707       8710      1   0.010037   0.008477     2.60142e-01     2.09200e-02
      8707       8711      1   0.010037   0.008477     2.60142e-01     2.09200e-02
      8706       8714      1  -0.021025   0.009367     3.00055e-01     6.91943e-02
      8706       8713      1  -0.021025   0.009367     3.00055e-01     6.91943e-02
      8705       8709      1   0.012677  -0.012211     3.00055e-01     6.91943e-02
      8705       8708      1   0.012677   0.008364     2.60142e-01     2.09200e-02
      8705       8707      1   0.012677   0.008364     2.60142e-01     2.09200e-02
      8704       8709      1   0.012677  -0.012211     3.00055e-01     6.91943e-02
      8704       8708      1   0.012677   0.008364     2.60142e-01     2.09200e-02
      8704       8707      1   0.012677   0.008364     2.60142e-01     2.09200e-02
      8703       8710      1  -0.031787   0.008477     3.00055e-01     6.91943e-02
      8703       8711      1  -0.031787   0.008477     3.00055e-01     6.91943e-02
      8702       8706      1   0.017208  -0.017521     3.00055e-01     6.91943e-02
      8702       8704      1   0.017208   0.010564     2.60142e-01     2.09200e-02
      8702       8705      1   0.017208   0.010564     2.60142e-01     2.09200e-02
      8701       8706      1   0.017208  -0.017521     3.00055e-01     6.91943e-02
      8701       8704      1   0.017208   0.010564     2.60142e-01     2.09200e-02
      8701       8705      1   0.017208   0.010564     2.60142e-01     2.09200e-02
      8700       8708      1  -0.028094   0.008364     3.00055e-01     6.91943e-02
      8700       8707      1  -0.028094   0.008364     3.00055e-01     6.91943e-02
      8699       8703      1   0.007531  -0.026489     3.00055e-01     6.91943e-02
      8699       8702      1   0.007531   0.014340     2.60142e-01     2.09200e-02
      8699       8701      1   0.007531   0.014340     2.60142e-01     2.09200e-02
      8698       8703      1   0.007531  -0.026489     3.00055e-01     6.91943e-02
      8698       8702      1   0.007531   0.014340     2.60142e-01     2.09200e-02
      8698       8701      1   0.007531   0.014340     2.60142e-01     2.09200e-02
      8697       8704      1   0.017463   0.010564     3.00055e-01     6.91943e-02
      8697       8705      1   0.017463   0.010564     3.00055e-01     6.91943e-02
      8696       8700      1   0.025511  -0.023412     3.00055e-01     6.91943e-02
      8696       8698      1   0.025511   0.006276     2.60142e-01     2.09200e-02
      8696       8699      1   0.025511   0.006276     2.60142e-01     2.09200e-02
      8695       8700      1   0.025511  -0.023412     3.00055e-01     6.91943e-02
      8695       8698      1   0.025511   0.006276     2.60142e-01     2.09200e-02
      8695       8699      1   0.025511   0.006276     2.60142e-01     2.09200e-02
      8694       8702      1  -0.111712   0.014340     3.00055e-01     6.91943e-02
      8694       8701      1  -0.111712   0.014340     3.00055e-01     6.91943e-02
      8693       8700      1   0.025511  -0.023412     3.00055e-01     6.91943e-02
      8693       8698      1   0.025511   0.006276     2.60142e-01     2.09200e-02
      8693       8699      1   0.025511   0.006276     2.60142e-01     2.09200e-02
      8772       8774      1   0.053944  -0.559638     2.78067e-01     9.58675e-02
      8772       8775      1   0.053944  -0.479574     2.80072e-01     8.62554e-02
      8771       8774      1   0.053944  -0.559638     2.78067e-01     9.58675e-02
      8771       8775      1   0.053944  -0.479574     2.80072e-01     8.62554e-02
      8769       8772      1   0.018859   0.044953     2.60142e-01     2.09200e-02
      8769       8771      1   0.018859   0.044953     2.60142e-01     2.09200e-02
      8769       8773      1   0.018859   0.758669     3.00055e-01     6.13495e-02
      8768       8772      1   0.018859   0.044953     2.60142e-01     2.09200e-02
      8768       8771      1   0.018859   0.044953     2.60142e-01     2.09200e-02
      8768       8773      1   0.018859   0.758669     3.00055e-01     6.13495e-02
      8766       8770      1   0.020431  -0.136833     3.00055e-01     6.91943e-02
      8766       8769      1   0.020431   0.015716     2.60142e-01     2.09200e-02
      8766       8768      1   0.020431   0.015716     2.60142e-01     2.09200e-02
      8765       8770      1   0.020431  -0.136833     3.00055e-01     6.91943e-02
      8765       8769      1   0.020431   0.015716     2.60142e-01     2.09200e-02
      8765       8768      1   0.020431   0.015716     2.60142e-01     2.09200e-02
      8764       8772      1  -0.026954   0.044953     3.00055e-01     6.91943e-02
      8764       8771      1  -0.026954   0.044953     3.00055e-01     6.91943e-02
      8763       8767      1   0.010573  -0.002029     3.00055e-01     6.91943e-02
      8763       8766      1   0.010573   0.017026     2.60142e-01     2.09200e-02
      8763       8765      1   0.010573   0.017026     2.60142e-01     2.09200e-02
      8762       8767      1   0.010573  -0.002029     3.00055e-01     6.91943e-02
      8762       8766      1   0.010573   0.017026     2.60142e-01     2.09200e-02
      8762       8765      1   0.010573   0.017026     2.60142e-01     2.09200e-02
      8761       8769      1  -0.016521   0.015716     3.00055e-01     6.91943e-02
      8761       8768      1  -0.016521   0.015716     3.00055e-01     6.91943e-02
      8760       8764      1   0.011511  -0.022462     3.00055e-01     6.91943e-02
      8760       8762      1   0.011511   0.008811     2.60142e-01     2.09200e-02
      8760       8763      1   0.011511   0.008811     2.60142e-01     2.09200e-02
      8759       8764      1   0.011511  -0.022462     3.00055e-01     6.91943e-02
      8759       8762      1   0.011511   0.008811     2.60142e-01     2.09200e-02
      8759       8763      1   0.011511   0.008811     2.60142e-01     2.09200e-02
      8758       8766      1  -0.027812   0.017026     3.00055e-01     6.91943e-02
      8758       8765      1  -0.027812   0.017026     3.00055e-01     6.91943e-02
      8757       8761      1   0.006833  -0.013767     3.00055e-01     6.91943e-02
      8757       8759      1   0.006833   0.009592     2.60142e-01     2.09200e-02
      8757       8760      1   0.006833   0.009592     2.60142e-01     2.09200e-02
      8756       8761      1   0.006833  -0.013767     3.00055e-01     6.91943e-02
      8756       8759      1   0.006833   0.009592     2.60142e-01     2.09200e-02
      8756       8760      1   0.006833   0.009592     2.60142e-01     2.09200e-02
      8755       8762      1  -0.004386   0.008811     3.00055e-01     6.91943e-02
      8755       8763      1  -0.004386   0.008811     3.00055e-01     6.91943e-02
      8754       8758      1   0.011241  -0.023177     3.00055e-01     6.91943e-02
      8754       8756      1   0.011241   0.005694     2.60142e-01     2.09200e-02
      8754       8757      1   0.011241   0.005694     2.60142e-01     2.09200e-02
      8753       8758      1   0.011241  -0.023177     3.00055e-01     6.91943e-02
      8753       8756      1   0.011241   0.005694     2.60142e-01     2.09200e-02
      8753       8757      1   0.011241   0.005694     2.60142e-01     2.09200e-02
      8752       8759      1  -0.026451   0.009592     3.00055e-01     6.91943e-02
      8752       8760      1  -0.026451   0.009592     3.00055e-01     6.91943e-02
      8751       8755      1   0.010172  -0.003655     3.00055e-01     6.91943e-02
      8751       8754      1   0.010172   0.009367     2.60142e-01     2.09200e-02
      8751       8753      1   0.010172   0.009367     2.60142e-01     2.09200e-02
      8750       8755      1   0.010172  -0.003655     3.00055e-01     6.91943e-02
      8750       8754      1   0.010172   0.009367     2.60142e-01     2.09200e-02
      8750       8753      1   0.010172   0.009367     2.60142e-01     2.09200e-02
      8749       8756      1  -0.014653   0.005694     3.00055e-01     6.91943e-02
      8749       8757      1  -0.014653   0.005694     3.00055e-01     6.91943e-02
      8748       8752      1   0.010037  -0.022042     3.00055e-01     6.91943e-02
      8748       8750      1   0.010037   0.008477     2.60142e-01     2.09200e-02
      8748       8751      1   0.010037   0.008477     2.60142e-01     2.09200e-02
      8747       8752      1   0.010037  -0.022042     3.00055e-01     6.91943e-02
      8747       8750      1   0.010037   0.008477     2.60142e-01     2.09200e-02
      8747       8751      1   0.010037   0.008477     2.60142e-01     2.09200e-02
      8746       8754      1  -0.021025   0.009367     3.00055e-01     6.91943e-02
      8746       8753      1  -0.021025   0.009367     3.00055e-01     6.91943e-02
      8745       8749      1   0.012677  -0.012211     3.00055e-01     6.91943e-02
      8745       8748      1   0.012677   0.008364     2.60142e-01     2.09200e-02
      8745       8747      1   0.012677   0.008364     2.60142e-01     2.09200e-02
      8744       8749      1   0.012677  -0.012211     3.00055e-01     6.91943e-02
      8744       8748      1   0.012677   0.008364     2.60142e-01     2.09200e-02
      8744       8747      1   0.012677   0.008364     2.60142e-01     2.09200e-02
      8743       8750      1  -0.031787   0.008477     3.00055e-01     6.91943e-02
      8743       8751      1  -0.031787   0.008477     3.00055e-01     6.91943e-02
      8742       8746      1   0.017208  -0.017521     3.00055e-01     6.91943e-02
      8742       8744      1   0.017208   0.010564     2.60142e-01     2.09200e-02
      8742       8745      1   0.017208   0.010564     2.60142e-01     2.09200e-02
      8741       8746      1   0.017208  -0.017521     3.00055e-01     6.91943e-02
      8741       8744      1   0.017208   0.010564     2.60142e-01     2.09200e-02
      8741       8745      1   0.017208   0.010564     2.60142e-01     2.09200e-02
      8740       8748      1  -0.028094   0.008364     3.00055e-01     6.91943e-02
      8740       8747      1  -0.028094   0.008364     3.00055e-01     6.91943e-02
      8739       8743      1   0.007531  -0.026489     3.00055e-01     6.91943e-02
      8739       8742      1   0.007531   0.014340     2.60142e-01     2.09200e-02
      8739       8741      1   0.007531   0.014340     2.60142e-01     2.09200e-02
      8738       8743      1   0.007531  -0.026489     3.00055e-01     6.91943e-02
      8738       8742      1   0.007531   0.014340     2.60142e-01     2.09200e-02
      8738       8741      1   0.007531   0.014340     2.60142e-01     2.09200e-02
      8737       8744      1   0.017463   0.010564     3.00055e-01     6.91943e-02
      8737       8745      1   0.017463   0.010564     3.00055e-01     6.91943e-02
      8736       8740      1   0.025511  -0.023412     3.00055e-01     6.91943e-02
      8736       8738      1   0.025511   0.006276     2.60142e-01     2.09200e-02
      8736       8739      1   0.025511   0.006276     2.60142e-01     2.09200e-02
      8735       8740      1   0.025511  -0.023412     3.00055e-01     6.91943e-02
      8735       8738      1   0.025511   0.006276     2.60142e-01     2.09200e-02
      8735       8739      1   0.025511   0.006276     2.60142e-01     2.09200e-02
      8734       8742      1  -0.111712   0.014340     3.00055e-01     6.91943e-02
      8734       8741      1  -0.111712   0.014340     3.00055e-01     6.91943e-02
      8733       8740      1   0.025511  -0.023412     3.00055e-01     6.91943e-02
      8733       8738      1   0.025511   0.006276     2.60142e-01     2.09200e-02
      8733       8739      1   0.025511   0.006276     2.60142e-01     2.09200e-02
      8810       8850      1  -0.673755   0.044953     2.78067e-01     9.58675e-02
      8810       8849      1  -0.673755   0.044953     2.78067e-01     9.58675e-02
      8809       8847      1   0.897613   0.015716     3.00055e-01     6.13495e-02
      8809       8846      1   0.897613   0.015716     3.00055e-01     6.13495e-02
      8808       8850      1  -0.552948   0.044953     2.80072e-01     8.62554e-02
      8808       8849      1  -0.552948   0.044953     2.80072e-01     8.62554e-02
      8801       8802      1   0.172230  -0.282478     2.67982e-01     8.67002e-02
      8800       8802      1   0.172230  -0.282478     2.67982e-01     8.67002e-02
      8799       8802      1   0.172230  -0.282478     2.67982e-01     8.67002e-02
      8798       8803      1  -0.338973   0.143525     2.67982e-01     8.67002e-02
      8798       8804      1  -0.338973   0.143525     2.67982e-01     8.67002e-02
      8798       8805      1  -0.338973   0.143525     2.67982e-01     8.67002e-02
      8797       8798      1   0.172230  -0.282478     2.67982e-01     8.67002e-02
      8797       8802      1   0.172230  -0.282478     2.67982e-01     8.67002e-02
      8796       8798      1   0.172230  -0.282478     2.67982e-01     8.67002e-02
      8796       8802      1   0.172230  -0.282478     2.67982e-01     8.67002e-02
      8795       8798      1   0.172230  -0.282478     2.67982e-01     8.67002e-02
      8795       8802      1   0.172230  -0.282478     2.67982e-01     8.67002e-02
      8794       8799      1  -0.338973   0.143525     2.67982e-01     8.67002e-02
      8794       8800      1  -0.338973   0.143525     2.67982e-01     8.67002e-02
      8794       8801      1  -0.338973   0.143525     2.67982e-01     8.67002e-02
      8794       8803      1  -0.338973   0.143525     2.67982e-01     8.67002e-02
      8794       8804      1  -0.338973   0.143525     2.67982e-01     8.67002e-02
      8794       8805      1  -0.338973   0.143525     2.67982e-01     8.67002e-02
      8792       8794      1   0.136415  -0.282478     2.67982e-01     8.67002e-02
      8792       8798      1   0.136415  -0.282478     2.67982e-01     8.67002e-02
      8792       8802      1   0.136415  -0.282478     2.67982e-01     8.67002e-02
      8791       8794      1   0.136415  -0.282478     2.67982e-01     8.67002e-02
      8791       8798      1   0.136415  -0.282478     2.67982e-01     8.67002e-02
      8791       8802      1   0.136415  -0.282478     2.67982e-01     8.67002e-02
      8790       8795      1  -0.170824   0.143525     2.67982e-01     8.67002e-02
      8790       8796      1  -0.170824   0.143525     2.67982e-01     8.67002e-02
      8790       8797      1  -0.170824   0.143525     2.67982e-01     8.67002e-02
      8790       8799      1  -0.170824   0.143525     2.67982e-01     8.67002e-02
      8790       8800      1  -0.170824   0.143525     2.67982e-01     8.67002e-02
      8790       8801      1  -0.170824   0.143525     2.67982e-01     8.67002e-02
      8790       8803      1  -0.170824   0.143525     2.67982e-01     8.67002e-02
      8790       8804      1  -0.170824   0.143525     2.67982e-01     8.67002e-02
      8790       8805      1  -0.170824   0.143525     2.67982e-01     8.67002e-02
      8789       8791      1   0.078534   0.113679     2.21567e-01     3.28444e-02
      8789       8792      1   0.078534   0.113679     2.21567e-01     3.28444e-02
      8789       8793      1   0.078534   0.204385     2.86068e-01     1.08078e-01
      8788       8791      1   0.078534   0.113679     2.21567e-01     3.28444e-02
      8788       8792      1   0.078534   0.113679     2.21567e-01     3.28444e-02
      8788       8793      1   0.078534   0.204385     2.86068e-01     1.08078e-01
      8786       8791      1  -0.508176   0.113679     2.47999e-01     1.08078e-01
      8786       8792      1  -0.508176   0.113679     2.47999e-01     1.08078e-01
      8785       8788      1   1.339721   0.065445     3.10656e-01     1.17227e-01
      8785       8789      1   1.339721   0.065445     3.10656e-01     1.17227e-01
      8783       8808      1   0.095591  -0.460790     2.73568e-01     1.08078e-01
      8783       8785      1   0.095591   1.116434     3.10656e-01     1.17227e-01
      8782       8808      1   0.095591  -0.460790     2.73568e-01     1.08078e-01
      8782       8785      1   0.095591   1.116434     3.10656e-01     1.17227e-01
      8780       8782      1   0.063253   0.079659     2.47135e-01     3.28444e-02
      8780       8783      1   0.063253   0.079659     2.47135e-01     3.28444e-02
      8780       8784      1   0.063253  -0.424567     2.73568e-01     1.08078e-01
      8780       8809      1   0.063253   0.748011     2.93551e-01     7.68707e-02
      8778       8780      1   0.070469   0.052711     2.47135e-01     3.28444e-02
      8778       8781      1   0.070469   0.014549     2.93551e-01     8.67002e-02
      8778       8808      1   0.070469  -0.460790     2.73568e-01     1.08078e-01
      8777       8780      1   0.070469   0.052711     2.47135e-01     3.28444e-02
      8777       8781      1   0.070469   0.014549     2.93551e-01     8.67002e-02
      8777       8808      1   0.070469  -0.460790     2.73568e-01     1.08078e-01
      8776       8782      1   0.196939   0.079659     2.93551e-01     8.67002e-02
      8776       8783      1   0.196939   0.079659     2.93551e-01     8.67002e-02
      8775       8780      1  -0.575489   0.052711     2.73568e-01     1.08078e-01
      8773       8777      1   0.910403   0.058724     2.93551e-01     7.68707e-02
      8773       8778      1   0.910403   0.058724     2.93551e-01     7.68707e-02
      8847       8850      1   0.018859   0.044953     2.60142e-01     2.09200e-02
      8847       8849      1   0.018859   0.044953     2.60142e-01     2.09200e-02
      8846       8850      1   0.018859   0.044953     2.60142e-01     2.09200e-02
      8846       8849      1   0.018859   0.044953     2.60142e-01     2.09200e-02
      8844       8848      1   0.020431  -0.136833     3.00055e-01     6.91943e-02
      8844       8847      1   0.020431   0.015716     2.60142e-01     2.09200e-02
      8844       8846      1   0.020431   0.015716     2.60142e-01     2.09200e-02
      8843       8848      1   0.020431  -0.136833     3.00055e-01     6.91943e-02
      8843       8847      1   0.020431   0.015716     2.60142e-01     2.09200e-02
      8843       8846      1   0.020431   0.015716     2.60142e-01     2.09200e-02
      8842       8850      1  -0.026954   0.044953     3.00055e-01     6.91943e-02
      8842       8849      1  -0.026954   0.044953     3.00055e-01     6.91943e-02
      8841       8845      1   0.010573  -0.002029     3.00055e-01     6.91943e-02
      8841       8844      1   0.010573   0.017026     2.60142e-01     2.09200e-02
      8841       8843      1   0.010573   0.017026     2.60142e-01     2.09200e-02
      8840       8845      1   0.010573  -0.002029     3.00055e-01     6.91943e-02
      8840       8844      1   0.010573   0.017026     2.60142e-01     2.09200e-02
      8840       8843      1   0.010573   0.017026     2.60142e-01     2.09200e-02
      8839       8847      1  -0.016521   0.015716     3.00055e-01     6.91943e-02
      8839       8846      1  -0.016521   0.015716     3.00055e-01     6.91943e-02
      8838       8842      1   0.011511  -0.022462     3.00055e-01     6.91943e-02
      8838       8840      1   0.011511   0.008811     2.60142e-01     2.09200e-02
      8838       8841      1   0.011511   0.008811     2.60142e-01     2.09200e-02
      8837       8842      1   0.011511  -0.022462     3.00055e-01     6.91943e-02
      8837       8840      1   0.011511   0.008811     2.60142e-01     2.09200e-02
      8837       8841      1   0.011511   0.008811     2.60142e-01     2.09200e-02
      8836       8844      1  -0.027812   0.017026     3.00055e-01     6.91943e-02
      8836       8843      1  -0.027812   0.017026     3.00055e-01     6.91943e-02
      8835       8839      1   0.006833  -0.013767     3.00055e-01     6.91943e-02
      8835       8837      1   0.006833   0.009592     2.60142e-01     2.09200e-02
      8835       8838      1   0.006833   0.009592     2.60142e-01     2.09200e-02
      8834       8839      1   0.006833  -0.013767     3.00055e-01     6.91943e-02
      8834       8837      1   0.006833   0.009592     2.60142e-01     2.09200e-02
      8834       8838      1   0.006833   0.009592     2.60142e-01     2.09200e-02
      8833       8840      1  -0.004386   0.008811     3.00055e-01     6.91943e-02
      8833       8841      1  -0.004386   0.008811     3.00055e-01     6.91943e-02
      8832       8836      1   0.011241  -0.023177     3.00055e-01     6.91943e-02
      8832       8834      1   0.011241   0.005694     2.60142e-01     2.09200e-02
      8832       8835      1   0.011241   0.005694     2.60142e-01     2.09200e-02
      8831       8836      1   0.011241  -0.023177     3.00055e-01     6.91943e-02
      8831       8834      1   0.011241   0.005694     2.60142e-01     2.09200e-02
      8831       8835      1   0.011241   0.005694     2.60142e-01     2.09200e-02
      8830       8837      1  -0.026451   0.009592     3.00055e-01     6.91943e-02
      8830       8838      1  -0.026451   0.009592     3.00055e-01     6.91943e-02
      8829       8833      1   0.010172  -0.003655     3.00055e-01     6.91943e-02
      8829       8832      1   0.010172   0.009367     2.60142e-01     2.09200e-02
      8829       8831      1   0.010172   0.009367     2.60142e-01     2.09200e-02
      8828       8833      1   0.010172  -0.003655     3.00055e-01     6.91943e-02
      8828       8832      1   0.010172   0.009367     2.60142e-01     2.09200e-02
      8828       8831      1   0.010172   0.009367     2.60142e-01     2.09200e-02
      8827       8834      1  -0.014653   0.005694     3.00055e-01     6.91943e-02
      8827       8835      1  -0.014653   0.005694     3.00055e-01     6.91943e-02
      8826       8830      1   0.010037  -0.022042     3.00055e-01     6.91943e-02
      8826       8828      1   0.010037   0.008477     2.60142e-01     2.09200e-02
      8826       8829      1   0.010037   0.008477     2.60142e-01     2.09200e-02
      8825       8830      1   0.010037  -0.022042     3.00055e-01     6.91943e-02
      8825       8828      1   0.010037   0.008477     2.60142e-01     2.09200e-02
      8825       8829      1   0.010037   0.008477     2.60142e-01     2.09200e-02
      8824       8832      1  -0.021025   0.009367     3.00055e-01     6.91943e-02
      8824       8831      1  -0.021025   0.009367     3.00055e-01     6.91943e-02
      8823       8827      1   0.012677  -0.012211     3.00055e-01     6.91943e-02
      8823       8826      1   0.012677   0.008364     2.60142e-01     2.09200e-02
      8823       8825      1   0.012677   0.008364     2.60142e-01     2.09200e-02
      8822       8827      1   0.012677  -0.012211     3.00055e-01     6.91943e-02
      8822       8826      1   0.012677   0.008364     2.60142e-01     2.09200e-02
      8822       8825      1   0.012677   0.008364     2.60142e-01     2.09200e-02
      8821       8828      1  -0.031787   0.008477     3.00055e-01     6.91943e-02
      8821       8829      1  -0.031787   0.008477     3.00055e-01     6.91943e-02
      8820       8824      1   0.017208  -0.017521     3.00055e-01     6.91943e-02
      8820       8822      1   0.017208   0.010564     2.60142e-01     2.09200e-02
      8820       8823      1   0.017208   0.010564     2.60142e-01     2.09200e-02
      8819       8824      1   0.017208  -0.017521     3.00055e-01     6.91943e-02
      8819       8822      1   0.017208   0.010564     2.60142e-01     2.09200e-02
      8819       8823      1   0.017208   0.010564     2.60142e-01     2.09200e-02
      8818       8826      1  -0.028094   0.008364     3.00055e-01     6.91943e-02
      8818       8825      1  -0.028094   0.008364     3.00055e-01     6.91943e-02
      8817       8821      1   0.007531  -0.026489     3.00055e-01     6.91943e-02
      8817       8820      1   0.007531   0.014340     2.60142e-01     2.09200e-02
      8817       8819      1   0.007531   0.014340     2.60142e-01     2.09200e-02
      8816       8821      1   0.007531  -0.026489     3.00055e-01     6.91943e-02
      8816       8820      1   0.007531   0.014340     2.60142e-01     2.09200e-02
      8816       8819      1   0.007531   0.014340     2.60142e-01     2.09200e-02
      8815       8822      1   0.017463   0.010564     3.00055e-01     6.91943e-02
      8815       8823      1   0.017463   0.010564     3.00055e-01     6.91943e-02
      8814       8818      1   0.025511  -0.023412     3.00055e-01     6.91943e-02
      8814       8816      1   0.025511   0.006276     2.60142e-01     2.09200e-02
      8814       8817      1   0.025511   0.006276     2.60142e-01     2.09200e-02
      8813       8818      1   0.025511  -0.023412     3.00055e-01     6.91943e-02
      8813       8816      1   0.025511   0.006276     2.60142e-01     2.09200e-02
      8813       8817      1   0.025511   0.006276     2.60142e-01     2.09200e-02
      8812       8820      1  -0.111712   0.014340     3.00055e-01     6.91943e-02
      8812       8819      1  -0.111712   0.014340     3.00055e-01     6.91943e-02
      8811       8818      1   0.025511  -0.023412     3.00055e-01     6.91943e-02
      8811       8816      1   0.025511   0.006276     2.60142e-01     2.09200e-02
      8811       8817      1   0.025511   0.006276     2.60142e-01     2.09200e-02
      8890       8892      1   0.053944  -0.559638     2.78067e-01     9.58675e-02
      8890       8893      1   0.053944  -0.479574     2.80072e-01     8.62554e-02
      8889       8892      1   0.053944  -0.559638     2.78067e-01     9.58675e-02
      8889       8893      1   0.053944  -0.479574     2.80072e-01     8.62554e-02
      8887       8890      1   0.018859   0.044953     2.60142e-01     2.09200e-02
      8887       8889      1   0.018859   0.044953     2.60142e-01     2.09200e-02
      8887       8891      1   0.018859   0.758669     3.00055e-01     6.13495e-02
      8886       8890      1   0.018859   0.044953     2.60142e-01     2.09200e-02
      8886       8889      1   0.018859   0.044953     2.60142e-01     2.09200e-02
      8886       8891      1   0.018859   0.758669     3.00055e-01     6.13495e-02
      8884       8888      1   0.020431  -0.136833     3.00055e-01     6.91943e-02
      8884       8887      1   0.020431   0.015716     2.60142e-01     2.09200e-02
      8884       8886      1   0.020431   0.015716     2.60142e-01     2.09200e-02
      8883       8888      1   0.020431  -0.136833     3.00055e-01     6.91943e-02
      8883       8887      1   0.020431   0.015716     2.60142e-01     2.09200e-02
      8883       8886      1   0.020431   0.015716     2.60142e-01     2.09200e-02
      8882       8890      1  -0.026954   0.044953     3.00055e-01     6.91943e-02
      8882       8889      1  -0.026954   0.044953     3.00055e-01     6.91943e-02
      8881       8885      1   0.010573  -0.002029     3.00055e-01     6.91943e-02
      8881       8884      1   0.010573   0.017026     2.60142e-01     2.09200e-02
      8881       8883      1   0.010573   0.017026     2.60142e-01     2.09200e-02
      8880       8885      1   0.010573  -0.002029     3.00055e-01     6.91943e-02
      8880       8884      1   0.010573   0.017026     2.60142e-01     2.09200e-02
      8880       8883      1   0.010573   0.017026     2.60142e-01     2.09200e-02
      8879       8887      1  -0.016521   0.015716     3.00055e-01     6.91943e-02
      8879       8886      1  -0.016521   0.015716     3.00055e-01     6.91943e-02
      8878       8882      1   0.011511  -0.022462     3.00055e-01     6.91943e-02
      8878       8880      1   0.011511   0.008811     2.60142e-01     2.09200e-02
      8878       8881      1   0.011511   0.008811     2.60142e-01     2.09200e-02
      8877       8882      1   0.011511  -0.022462     3.00055e-01     6.91943e-02
      8877       8880      1   0.011511   0.008811     2.60142e-01     2.09200e-02
      8877       8881      1   0.011511   0.008811     2.60142e-01     2.09200e-02
      8876       8884      1  -0.027812   0.017026     3.00055e-01     6.91943e-02
      8876       8883      1  -0.027812   0.017026     3.00055e-01     6.91943e-02
      8875       8879      1   0.006833  -0.013767     3.00055e-01     6.91943e-02
      8875       8877      1   0.006833   0.009592     2.60142e-01     2.09200e-02
      8875       8878      1   0.006833   0.009592     2.60142e-01     2.09200e-02
      8874       8879      1   0.006833  -0.013767     3.00055e-01     6.91943e-02
      8874       8877      1   0.006833   0.009592     2.60142e-01     2.09200e-02
      8874       8878      1   0.006833   0.009592     2.60142e-01     2.09200e-02
      8873       8880      1  -0.004386   0.008811     3.00055e-01     6.91943e-02
      8873       8881      1  -0.004386   0.008811     3.00055e-01     6.91943e-02
      8872       8876      1   0.011241  -0.023177     3.00055e-01     6.91943e-02
      8872       8874      1   0.011241   0.005694     2.60142e-01     2.09200e-02
      8872       8875      1   0.011241   0.005694     2.60142e-01     2.09200e-02
      8871       8876      1   0.011241  -0.023177     3.00055e-01     6.91943e-02
      8871       8874      1   0.011241   0.005694     2.60142e-01     2.09200e-02
      8871       8875      1   0.011241   0.005694     2.60142e-01     2.09200e-02
      8870       8877      1  -0.026451   0.009592     3.00055e-01     6.91943e-02
      8870       8878      1  -0.026451   0.009592     3.00055e-01     6.91943e-02
      8869       8873      1   0.010172  -0.003655     3.00055e-01     6.91943e-02
      8869       8872      1   0.010172   0.009367     2.60142e-01     2.09200e-02
      8869       8871      1   0.010172   0.009367     2.60142e-01     2.09200e-02
      8868       8873      1   0.010172  -0.003655     3.00055e-01     6.91943e-02
      8868       8872      1   0.010172   0.009367     2.60142e-01     2.09200e-02
      8868       8871      1   0.010172   0.009367     2.60142e-01     2.09200e-02
      8867       8874      1  -0.014653   0.005694     3.00055e-01     6.91943e-02
      8867       8875      1  -0.014653   0.005694     3.00055e-01     6.91943e-02
      8866       8870      1   0.010037  -0.022042     3.00055e-01     6.91943e-02
      8866       8868      1   0.010037   0.008477     2.60142e-01     2.09200e-02
      8866       8869      1   0.010037   0.008477     2.60142e-01     2.09200e-02
      8865       8870      1   0.010037  -0.022042     3.00055e-01     6.91943e-02
      8865       8868      1   0.010037   0.008477     2.60142e-01     2.09200e-02
      8865       8869      1   0.010037   0.008477     2.60142e-01     2.09200e-02
      8864       8872      1  -0.021025   0.009367     3.00055e-01     6.91943e-02
      8864       8871      1  -0.021025   0.009367     3.00055e-01     6.91943e-02
      8863       8867      1   0.012677  -0.012211     3.00055e-01     6.91943e-02
      8863       8866      1   0.012677   0.008364     2.60142e-01     2.09200e-02
      8863       8865      1   0.012677   0.008364     2.60142e-01     2.09200e-02
      8862       8867      1   0.012677  -0.012211     3.00055e-01     6.91943e-02
      8862       8866      1   0.012677   0.008364     2.60142e-01     2.09200e-02
      8862       8865      1   0.012677   0.008364     2.60142e-01     2.09200e-02
      8861       8868      1  -0.031787   0.008477     3.00055e-01     6.91943e-02
      8861       8869      1  -0.031787   0.008477     3.00055e-01     6.91943e-02
      8860       8864      1   0.017208  -0.017521     3.00055e-01     6.91943e-02
      8860       8862      1   0.017208   0.010564     2.60142e-01     2.09200e-02
      8860       8863      1   0.017208   0.010564     2.60142e-01     2.09200e-02
      8859       8864      1   0.017208  -0.017521     3.00055e-01     6.91943e-02
      8859       8862      1   0.017208   0.010564     2.60142e-01     2.09200e-02
      8859       8863      1   0.017208   0.010564     2.60142e-01     2.09200e-02
      8858       8866      1  -0.028094   0.008364     3.00055e-01     6.91943e-02
      8858       8865      1  -0.028094   0.008364     3.00055e-01     6.91943e-02
      8857       8861      1   0.007531  -0.026489     3.00055e-01     6.91943e-02
      8857       8860      1   0.007531   0.014340     2.60142e-01     2.09200e-02
      8857       8859      1   0.007531   0.014340     2.60142e-01     2.09200e-02
      8856       8861      1   0.007531  -0.026489     3.00055e-01     6.91943e-02
      8856       8860      1   0.007531   0.014340     2.60142e-01     2.09200e-02
      8856       8859      1   0.007531   0.014340     2.60142e-01     2.09200e-02
      8855       8862      1   0.017463   0.010564     3.00055e-01     6.91943e-02
      8855       8863      1   0.017463   0.010564     3.00055e-01     6.91943e-02
      8854       8858      1   0.025511  -0.023412     3.00055e-01     6.91943e-02
      8854       8856      1   0.025511   0.006276     2.60142e-01     2.09200e-02
      8854       8857      1   0.025511   0.006276     2.60142e-01     2.09200e-02
      8853       8858      1   0.025511  -0.023412     3.00055e-01     6.91943e-02
      8853       8856      1   0.025511   0.006276     2.60142e-01     2.09200e-02
      8853       8857      1   0.025511   0.006276     2.60142e-01     2.09200e-02
      8852       8860      1  -0.111712   0.014340     3.00055e-01     6.91943e-02
      8852       8859      1  -0.111712   0.014340     3.00055e-01     6.91943e-02
      8851       8858      1   0.025511  -0.023412     3.00055e-01     6.91943e-02
      8851       8856      1   0.025511   0.006276     2.60142e-01     2.09200e-02
      8851       8857      1   0.025511   0.006276     2.60142e-01     2.09200e-02
      8928       8968      1  -0.673755   0.044953     2.78067e-01     9.58675e-02
      8928       8967      1  -0.673755   0.044953     2.78067e-01     9.58675e-02
      8927       8965      1   0.897613   0.015716     3.00055e-01     6.13495e-02
      8927       8964      1   0.897613   0.015716     3.00055e-01     6.13495e-02
      8926       8968      1  -0.552948   0.044953     2.80072e-01     8.62554e-02
      8926       8967      1  -0.552948   0.044953     2.80072e-01     8.62554e-02
      8919       8920      1   0.172230  -0.282478     2.67982e-01     8.67002e-02
      8918       8920      1   0.172230  -0.282478     2.67982e-01     8.67002e-02
      8917       8920      1   0.172230  -0.282478     2.67982e-01     8.67002e-02
      8916       8921      1  -0.338973   0.143525     2.67982e-01     8.67002e-02
      8916       8922      1  -0.338973   0.143525     2.67982e-01     8.67002e-02
      8916       8923      1  -0.338973   0.143525     2.67982e-01     8.67002e-02
      8915       8916      1   0.172230  -0.282478     2.67982e-01     8.67002e-02
      8915       8920      1   0.172230  -0.282478     2.67982e-01     8.67002e-02
      8914       8916      1   0.172230  -0.282478     2.67982e-01     8.67002e-02
      8914       8920      1   0.172230  -0.282478     2.67982e-01     8.67002e-02
      8913       8916      1   0.172230  -0.282478     2.67982e-01     8.67002e-02
      8913       8920      1   0.172230  -0.282478     2.67982e-01     8.67002e-02
      8912       8917      1  -0.338973   0.143525     2.67982e-01     8.67002e-02
      8912       8918      1  -0.338973   0.143525     2.67982e-01     8.67002e-02
      8912       8919      1  -0.338973   0.143525     2.67982e-01     8.67002e-02
      8912       8921      1  -0.338973   0.143525     2.67982e-01     8.67002e-02
      8912       8922      1  -0.338973   0.143525     2.67982e-01     8.67002e-02
      8912       8923      1  -0.338973   0.143525     2.67982e-01     8.67002e-02
      8910       8912      1   0.136415  -0.282478     2.67982e-01     8.67002e-02
      8910       8916      1   0.136415  -0.282478     2.67982e-01     8.67002e-02
      8910       8920      1   0.136415  -0.282478     2.67982e-01     8.67002e-02
      8909       8912      1   0.136415  -0.282478     2.67982e-01     8.67002e-02
      8909       8916      1   0.136415  -0.282478     2.67982e-01     8.67002e-02
      8909       8920      1   0.136415  -0.282478     2.67982e-01     8.67002e-02
      8908       8913      1  -0.170824   0.143525     2.67982e-01     8.67002e-02
      8908       8914      1  -0.170824   0.143525     2.67982e-01     8.67002e-02
      8908       8915      1  -0.170824   0.143525     2.67982e-01     8.67002e-02
      8908       8917      1  -0.170824   0.143525     2.67982e-01     8.67002e-02
      8908       8918      1  -0.170824   0.143525     2.67982e-01     8.67002e-02
      8908       8919      1  -0.170824   0.143525     2.67982e-01     8.67002e-02
      8908       8921      1  -0.170824   0.143525     2.67982e-01     8.67002e-02
      8908       8922      1  -0.170824   0.143525     2.67982e-01     8.67002e-02
      8908       8923      1  -0.170824   0.143525     2.67982e-01     8.67002e-02
      8907       8909      1   0.078534   0.113679     2.21567e-01     3.28444e-02
      8907       8910      1   0.078534   0.113679     2.21567e-01     3.28444e-02
      8907       8911      1   0.078534   0.204385     2.86068e-01     1.08078e-01
      8906       8909      1   0.078534   0.113679     2.21567e-01     3.28444e-02
      8906       8910      1   0.078534   0.113679     2.21567e-01     3.28444e-02
      8906       8911      1   0.078534   0.204385     2.86068e-01     1.08078e-01
      8904       8909      1  -0.508176   0.113679     2.47999e-01     1.08078e-01
      8904       8910      1  -0.508176   0.113679     2.47999e-01     1.08078e-01
      8903       8906      1   1.339721   0.065445     3.10656e-01     1.17227e-01
      8903       8907      1   1.339721   0.065445     3.10656e-01     1.17227e-01
      8901       8926      1   0.095591  -0.460790     2.73568e-01     1.08078e-01
      8901       8903      1   0.095591   1.116434     3.10656e-01     1.17227e-01
      8900       8926      1   0.095591  -0.460790     2.73568e-01     1.08078e-01
      8900       8903      1   0.095591   1.116434     3.10656e-01     1.17227e-01
      8898       8900      1   0.063253   0.079659     2.47135e-01     3.28444e-02
      8898       8901      1   0.063253   0.079659     2.47135e-01     3.28444e-02
      8898       8902      1   0.063253  -0.424567     2.73568e-01     1.08078e-01
      8898       8927      1   0.063253   0.748011     2.93551e-01     7.68707e-02
      8896       8898      1   0.070469   0.052711     2.47135e-01     3.28444e-02
      8896       8899      1   0.070469   0.014549     2.93551e-01     8.67002e-02
      8896       8926      1   0.070469  -0.460790     2.73568e-01     1.08078e-01
      8895       8898      1   0.070469   0.052711     2.47135e-01     3.28444e-02
      8895       8899      1   0.070469   0.014549     2.93551e-01     8.67002e-02
      8895       8926      1   0.070469  -0.460790     2.73568e-01     1.08078e-01
      8894       8900      1   0.196939   0.079659     2.93551e-01     8.67002e-02
      8894       8901      1   0.196939   0.079659     2.93551e-01     8.67002e-02
      8893       8898      1  -0.575489   0.052711     2.73568e-01     1.08078e-01
      8891       8895      1   0.910403   0.058724     2.93551e-01     7.68707e-02
      8891       8896      1   0.910403   0.058724     2.93551e-01     7.68707e-02
      8965       8968      1   0.018859   0.044953     2.60142e-01     2.09200e-02
      8965       8967      1   0.018859   0.044953     2.60142e-01     2.09200e-02
      8964       8968      1   0.018859   0.044953     2.60142e-01     2.09200e-02
      8964       8967      1   0.018859   0.044953     2.60142e-01     2.09200e-02
      8962       8966      1   0.020431  -0.136833     3.00055e-01     6.91943e-02
      8962       8965      1   0.020431   0.015716     2.60142e-01     2.09200e-02
      8962       8964      1   0.020431   0.015716     2.60142e-01     2.09200e-02
      8961       8966      1   0.020431  -0.136833     3.00055e-01     6.91943e-02
      8961       8965      1   0.020431   0.015716     2.60142e-01     2.09200e-02
      8961       8964      1   0.020431   0.015716     2.60142e-01     2.09200e-02
      8960       8968      1  -0.026954   0.044953     3.00055e-01     6.91943e-02
      8960       8967      1  -0.026954   0.044953     3.00055e-01     6.91943e-02
      8959       8963      1   0.010573  -0.002029     3.00055e-01     6.91943e-02
      8959       8962      1   0.010573   0.017026     2.60142e-01     2.09200e-02
      8959       8961      1   0.010573   0.017026     2.60142e-01     2.09200e-02
      8958       8963      1   0.010573  -0.002029     3.00055e-01     6.91943e-02
      8958       8962      1   0.010573   0.017026     2.60142e-01     2.09200e-02
      8958       8961      1   0.010573   0.017026     2.60142e-01     2.09200e-02
      8957       8965      1  -0.016521   0.015716     3.00055e-01     6.91943e-02
      8957       8964      1  -0.016521   0.015716     3.00055e-01     6.91943e-02
      8956       8960      1   0.011511  -0.022462     3.00055e-01     6.91943e-02
      8956       8958      1   0.011511   0.008811     2.60142e-01     2.09200e-02
      8956       8959      1   0.011511   0.008811     2.60142e-01     2.09200e-02
      8955       8960      1   0.011511  -0.022462     3.00055e-01     6.91943e-02
      8955       8958      1   0.011511   0.008811     2.60142e-01     2.09200e-02
      8955       8959      1   0.011511   0.008811     2.60142e-01     2.09200e-02
      8954       8962      1  -0.027812   0.017026     3.00055e-01     6.91943e-02
      8954       8961      1  -0.027812   0.017026     3.00055e-01     6.91943e-02
      8953       8957      1   0.006833  -0.013767     3.00055e-01     6.91943e-02
      8953       8955      1   0.006833   0.009592     2.60142e-01     2.09200e-02
      8953       8956      1   0.006833   0.009592     2.60142e-01     2.09200e-02
      8952       8957      1   0.006833  -0.013767     3.00055e-01     6.91943e-02
      8952       8955      1   0.006833   0.009592     2.60142e-01     2.09200e-02
      8952       8956      1   0.006833   0.009592     2.60142e-01     2.09200e-02
      8951       8958      1  -0.004386   0.008811     3.00055e-01     6.91943e-02
      8951       8959      1  -0.004386   0.008811     3.00055e-01     6.91943e-02
      8950       8954      1   0.011241  -0.023177     3.00055e-01     6.91943e-02
      8950       8952      1   0.011241   0.005694     2.60142e-01     2.09200e-02
      8950       8953      1   0.011241   0.005694     2.60142e-01     2.09200e-02
      8949       8954      1   0.011241  -0.023177     3.00055e-01     6.91943e-02
      8949       8952      1   0.011241   0.005694     2.60142e-01     2.09200e-02
      8949       8953      1   0.011241   0.005694     2.60142e-01     2.09200e-02
      8948       8955      1  -0.026451   0.009592     3.00055e-01     6.91943e-02
      8948       8956      1  -0.026451   0.009592     3.00055e-01     6.91943e-02
      8947       8951      1   0.010172  -0.003655     3.00055e-01     6.91943e-02
      8947       8950      1   0.010172   0.009367     2.60142e-01     2.09200e-02
      8947       8949      1   0.010172   0.009367     2.60142e-01     2.09200e-02
      8946       8951      1   0.010172  -0.003655     3.00055e-01     6.91943e-02
      8946       8950      1   0.010172   0.009367     2.60142e-01     2.09200e-02
      8946       8949      1   0.010172   0.009367     2.60142e-01     2.09200e-02
      8945       8952      1  -0.014653   0.005694     3.00055e-01     6.91943e-02
      8945       8953      1  -0.014653   0.005694     3.00055e-01     6.91943e-02
      8944       8948      1   0.010037  -0.022042     3.00055e-01     6.91943e-02
      8944       8946      1   0.010037   0.008477     2.60142e-01     2.09200e-02
      8944       8947      1   0.010037   0.008477     2.60142e-01     2.09200e-02
      8943       8948      1   0.010037  -0.022042     3.00055e-01     6.91943e-02
      8943       8946      1   0.010037   0.008477     2.60142e-01     2.09200e-02
      8943       8947      1   0.010037   0.008477     2.60142e-01     2.09200e-02
      8942       8950      1  -0.021025   0.009367     3.00055e-01     6.91943e-02
      8942       8949      1  -0.021025   0.009367     3.00055e-01     6.91943e-02
      8941       8945      1   0.012677  -0.012211     3.00055e-01     6.91943e-02
      8941       8944      1   0.012677   0.008364     2.60142e-01     2.09200e-02
      8941       8943      1   0.012677   0.008364     2.60142e-01     2.09200e-02
      8940       8945      1   0.012677  -0.012211     3.00055e-01     6.91943e-02
      8940       8944      1   0.012677   0.008364     2.60142e-01     2.09200e-02
      8940       8943      1   0.012677   0.008364     2.60142e-01     2.09200e-02
      8939       8946      1  -0.031787   0.008477     3.00055e-01     6.91943e-02
      8939       8947      1  -0.031787   0.008477     3.00055e-01     6.91943e-02
      8938       8942      1   0.017208  -0.017521     3.00055e-01     6.91943e-02
      8938       8940      1   0.017208   0.010564     2.60142e-01     2.09200e-02
      8938       8941      1   0.017208   0.010564     2.60142e-01     2.09200e-02
      8937       8942      1   0.017208  -0.017521     3.00055e-01     6.91943e-02
      8937       8940      1   0.017208   0.010564     2.60142e-01     2.09200e-02
      8937       8941      1   0.017208   0.010564     2.60142e-01     2.09200e-02
      8936       8944      1  -0.028094   0.008364     3.00055e-01     6.91943e-02
      8936       8943      1  -0.028094   0.008364     3.00055e-01     6.91943e-02
      8935       8939      1   0.007531  -0.026489     3.00055e-01     6.91943e-02
      8935       8938      1   0.007531   0.014340     2.60142e-01     2.09200e-02
      8935       8937      1   0.007531   0.014340     2.60142e-01     2.09200e-02
      8934       8939      1   0.007531  -0.026489     3.00055e-01     6.91943e-02
      8934       8938      1   0.007531   0.014340     2.60142e-01     2.09200e-02
      8934       8937      1   0.007531   0.014340     2.60142e-01     2.09200e-02
      8933       8940      1   0.017463   0.010564     3.00055e-01     6.91943e-02
      8933       8941      1   0.017463   0.010564     3.00055e-01     6.91943e-02
      8932       8936      1   0.025511  -0.023412     3.00055e-01     6.91943e-02
      8932       8934      1   0.025511   0.006276     2.60142e-01     2.09200e-02
      8932       8935      1   0.025511   0.006276     2.60142e-01     2.09200e-02
      8931       8936      1   0.025511  -0.023412     3.00055e-01     6.91943e-02
      8931       8934      1   0.025511   0.006276     2.60142e-01     2.09200e-02
      8931       8935      1   0.025511   0.006276     2.60142e-01     2.09200e-02
      8930       8938      1  -0.111712   0.014340     3.00055e-01     6.91943e-02
      8930       8937      1  -0.111712   0.014340     3.00055e-01     6.91943e-02
      8929       8936      1   0.025511  -0.023412     3.00055e-01     6.91943e-02
      8929       8934      1   0.025511   0.006276     2.60142e-01     2.09200e-02
      8929       8935      1   0.025511   0.006276     2.60142e-01     2.09200e-02
      9008       9010      1   0.053944  -0.559638     2.78067e-01     9.58675e-02
      9008       9011      1   0.053944  -0.479574     2.80072e-01     8.62554e-02
      9007       9010      1   0.053944  -0.559638     2.78067e-01     9.58675e-02
      9007       9011      1   0.053944  -0.479574     2.80072e-01     8.62554e-02
      9005       9008      1   0.018859   0.044953     2.60142e-01     2.09200e-02
      9005       9007      1   0.018859   0.044953     2.60142e-01     2.09200e-02
      9005       9009      1   0.018859   0.758669     3.00055e-01     6.13495e-02
      9004       9008      1   0.018859   0.044953     2.60142e-01     2.09200e-02
      9004       9007      1   0.018859   0.044953     2.60142e-01     2.09200e-02
      9004       9009      1   0.018859   0.758669     3.00055e-01     6.13495e-02
      9002       9006      1   0.020431  -0.136833     3.00055e-01     6.91943e-02
      9002       9005      1   0.020431   0.015716     2.60142e-01     2.09200e-02
      9002       9004      1   0.020431   0.015716     2.60142e-01     2.09200e-02
      9001       9006      1   0.020431  -0.136833     3.00055e-01     6.91943e-02
      9001       9005      1   0.020431   0.015716     2.60142e-01     2.09200e-02
      9001       9004      1   0.020431   0.015716     2.60142e-01     2.09200e-02
      9000       9008      1  -0.026954   0.044953     3.00055e-01     6.91943e-02
      9000       9007      1  -0.026954   0.044953     3.00055e-01     6.91943e-02
      8999       9003      1   0.010573  -0.002029     3.00055e-01     6.91943e-02
      8999       9002      1   0.010573   0.017026     2.60142e-01     2.09200e-02
      8999       9001      1   0.010573   0.017026     2.60142e-01     2.09200e-02
      8998       9003      1   0.010573  -0.002029     3.00055e-01     6.91943e-02
      8998       9002      1   0.010573   0.017026     2.60142e-01     2.09200e-02
      8998       9001      1   0.010573   0.017026     2.60142e-01     2.09200e-02
      8997       9005      1  -0.016521   0.015716     3.00055e-01     6.91943e-02
      8997       9004      1  -0.016521   0.015716     3.00055e-01     6.91943e-02
      8996       9000      1   0.011511  -0.022462     3.00055e-01     6.91943e-02
      8996       8998      1   0.011511   0.008811     2.60142e-01     2.09200e-02
      8996       8999      1   0.011511   0.008811     2.60142e-01     2.09200e-02
      8995       9000      1   0.011511  -0.022462     3.00055e-01     6.91943e-02
      8995       8998      1   0.011511   0.008811     2.60142e-01     2.09200e-02
      8995       8999      1   0.011511   0.008811     2.60142e-01     2.09200e-02
      8994       9002      1  -0.027812   0.017026     3.00055e-01     6.91943e-02
      8994       9001      1  -0.027812   0.017026     3.00055e-01     6.91943e-02
      8993       8997      1   0.006833  -0.013767     3.00055e-01     6.91943e-02
      8993       8995      1   0.006833   0.009592     2.60142e-01     2.09200e-02
      8993       8996      1   0.006833   0.009592     2.60142e-01     2.09200e-02
      8992       8997      1   0.006833  -0.013767     3.00055e-01     6.91943e-02
      8992       8995      1   0.006833   0.009592     2.60142e-01     2.09200e-02
      8992       8996      1   0.006833   0.009592     2.60142e-01     2.09200e-02
      8991       8998      1  -0.004386   0.008811     3.00055e-01     6.91943e-02
      8991       8999      1  -0.004386   0.008811     3.00055e-01     6.91943e-02
      8990       8994      1   0.011241  -0.023177     3.00055e-01     6.91943e-02
      8990       8992      1   0.011241   0.005694     2.60142e-01     2.09200e-02
      8990       8993      1   0.011241   0.005694     2.60142e-01     2.09200e-02
      8989       8994      1   0.011241  -0.023177     3.00055e-01     6.91943e-02
      8989       8992      1   0.011241   0.005694     2.60142e-01     2.09200e-02
      8989       8993      1   0.011241   0.005694     2.60142e-01     2.09200e-02
      8988       8995      1  -0.026451   0.009592     3.00055e-01     6.91943e-02
      8988       8996      1  -0.026451   0.009592     3.00055e-01     6.91943e-02
      8987       8991      1   0.010172  -0.003655     3.00055e-01     6.91943e-02
      8987       8990      1   0.010172   0.009367     2.60142e-01     2.09200e-02
      8987       8989      1   0.010172   0.009367     2.60142e-01     2.09200e-02
      8986       8991      1   0.010172  -0.003655     3.00055e-01     6.91943e-02
      8986       8990      1   0.010172   0.009367     2.60142e-01     2.09200e-02
      8986       8989      1   0.010172   0.009367     2.60142e-01     2.09200e-02
      8985       8992      1  -0.014653   0.005694     3.00055e-01     6.91943e-02
      8985       8993      1  -0.014653   0.005694     3.00055e-01     6.91943e-02
      8984       8988      1   0.010037  -0.022042     3.00055e-01     6.91943e-02
      8984       8986      1   0.010037   0.008477     2.60142e-01     2.09200e-02
      8984       8987      1   0.010037   0.008477     2.60142e-01     2.09200e-02
      8983       8988      1   0.010037  -0.022042     3.00055e-01     6.91943e-02
      8983       8986      1   0.010037   0.008477     2.60142e-01     2.09200e-02
      8983       8987      1   0.010037   0.008477     2.60142e-01     2.09200e-02
      8982       8990      1  -0.021025   0.009367     3.00055e-01     6.91943e-02
      8982       8989      1  -0.021025   0.009367     3.00055e-01     6.91943e-02
      8981       8985      1   0.012677  -0.012211     3.00055e-01     6.91943e-02
      8981       8984      1   0.012677   0.008364     2.60142e-01     2.09200e-02
      8981       8983      1   0.012677   0.008364     2.60142e-01     2.09200e-02
      8980       8985      1   0.012677  -0.012211     3.00055e-01     6.91943e-02
      8980       8984      1   0.012677   0.008364     2.60142e-01     2.09200e-02
      8980       8983      1   0.012677   0.008364     2.60142e-01     2.09200e-02
      8979       8986      1  -0.031787   0.008477     3.00055e-01     6.91943e-02
      8979       8987      1  -0.031787   0.008477     3.00055e-01     6.91943e-02
      8978       8982      1   0.017208  -0.017521     3.00055e-01     6.91943e-02
      8978       8980      1   0.017208   0.010564     2.60142e-01     2.09200e-02
      8978       8981      1   0.017208   0.010564     2.60142e-01     2.09200e-02
      8977       8982      1   0.017208  -0.017521     3.00055e-01     6.91943e-02
      8977       8980      1   0.017208   0.010564     2.60142e-01     2.09200e-02
      8977       8981      1   0.017208   0.010564     2.60142e-01     2.09200e-02
      8976       8984      1  -0.028094   0.008364     3.00055e-01     6.91943e-02
      8976       8983      1  -0.028094   0.008364     3.00055e-01     6.91943e-02
      8975       8979      1   0.007531  -0.026489     3.00055e-01     6.91943e-02
      8975       8978      1   0.007531   0.014340     2.60142e-01     2.09200e-02
      8975       8977      1   0.007531   0.014340     2.60142e-01     2.09200e-02
      8974       8979      1   0.007531  -0.026489     3.00055e-01     6.91943e-02
      8974       8978      1   0.007531   0.014340     2.60142e-01     2.09200e-02
      8974       8977      1   0.007531   0.014340     2.60142e-01     2.09200e-02
      8973       8980      1   0.017463   0.010564     3.00055e-01     6.91943e-02
      8973       8981      1   0.017463   0.010564     3.00055e-01     6.91943e-02
      8972       8976      1   0.025511  -0.023412     3.00055e-01     6.91943e-02
      8972       8974      1   0.025511   0.006276     2.60142e-01     2.09200e-02
      8972       8975      1   0.025511   0.006276     2.60142e-01     2.09200e-02
      8971       8976      1   0.025511  -0.023412     3.00055e-01     6.91943e-02
      8971       8974      1   0.025511   0.006276     2.60142e-01     2.09200e-02
      8971       8975      1   0.025511   0.006276     2.60142e-01     2.09200e-02
      8970       8978      1  -0.111712   0.014340     3.00055e-01     6.91943e-02
      8970       8977      1  -0.111712   0.014340     3.00055e-01     6.91943e-02
      8969       8976      1   0.025511  -0.023412     3.00055e-01     6.91943e-02
      8969       8974      1   0.025511   0.006276     2.60142e-01     2.09200e-02
      8969       8975      1   0.025511   0.006276     2.60142e-01     2.09200e-02
      9046       9086      1  -0.673755   0.044953     2.78067e-01     9.58675e-02
      9046       9085      1  -0.673755   0.044953     2.78067e-01     9.58675e-02
      9045       9083      1   0.897613   0.015716     3.00055e-01     6.13495e-02
      9045       9082      1   0.897613   0.015716     3.00055e-01     6.13495e-02
      9044       9086      1  -0.552948   0.044953     2.80072e-01     8.62554e-02
      9044       9085      1  -0.552948   0.044953     2.80072e-01     8.62554e-02
      9037       9038      1   0.172230  -0.282478     2.67982e-01     8.67002e-02
      9036       9038      1   0.172230  -0.282478     2.67982e-01     8.67002e-02
      9035       9038      1   0.172230  -0.282478     2.67982e-01     8.67002e-02
      9034       9039      1  -0.338973   0.143525     2.67982e-01     8.67002e-02
      9034       9040      1  -0.338973   0.143525     2.67982e-01     8.67002e-02
      9034       9041      1  -0.338973   0.143525     2.67982e-01     8.67002e-02
      9033       9034      1   0.172230  -0.282478     2.67982e-01     8.67002e-02
      9033       9038      1   0.172230  -0.282478     2.67982e-01     8.67002e-02
      9032       9034      1   0.172230  -0.282478     2.67982e-01     8.67002e-02
      9032       9038      1   0.172230  -0.282478     2.67982e-01     8.67002e-02
      9031       9034      1   0.172230  -0.282478     2.67982e-01     8.67002e-02
      9031       9038      1   0.172230  -0.282478     2.67982e-01     8.67002e-02
      9030       9035      1  -0.338973   0.143525     2.67982e-01     8.67002e-02
      9030       9036      1  -0.338973   0.143525     2.67982e-01     8.67002e-02
      9030       9037      1  -0.338973   0.143525     2.67982e-01     8.67002e-02
      9030       9039      1  -0.338973   0.143525     2.67982e-01     8.67002e-02
      9030       9040      1  -0.338973   0.143525     2.67982e-01     8.67002e-02
      9030       9041      1  -0.338973   0.143525     2.67982e-01     8.67002e-02
      9028       9030      1   0.136415  -0.282478     2.67982e-01     8.67002e-02
      9028       9034      1   0.136415  -0.282478     2.67982e-01     8.67002e-02
      9028       9038      1   0.136415  -0.282478     2.67982e-01     8.67002e-02
      9027       9030      1   0.136415  -0.282478     2.67982e-01     8.67002e-02
      9027       9034      1   0.136415  -0.282478     2.67982e-01     8.67002e-02
      9027       9038      1   0.136415  -0.282478     2.67982e-01     8.67002e-02
      9026       9031      1  -0.170824   0.143525     2.67982e-01     8.67002e-02
      9026       9032      1  -0.170824   0.143525     2.67982e-01     8.67002e-02
      9026       9033      1  -0.170824   0.143525     2.67982e-01     8.67002e-02
      9026       9035      1  -0.170824   0.143525     2.67982e-01     8.67002e-02
      9026       9036      1  -0.170824   0.143525     2.67982e-01     8.67002e-02
      9026       9037      1  -0.170824   0.143525     2.67982e-01     8.67002e-02
      9026       9039      1  -0.170824   0.143525     2.67982e-01     8.67002e-02
      9026       9040      1  -0.170824   0.143525     2.67982e-01     8.67002e-02
      9026       9041      1  -0.170824   0.143525     2.67982e-01     8.67002e-02
      9025       9027      1   0.078534   0.113679     2.21567e-01     3.28444e-02
      9025       9028      1   0.078534   0.113679     2.21567e-01     3.28444e-02
      9025       9029      1   0.078534   0.204385     2.86068e-01     1.08078e-01
      9024       9027      1   0.078534   0.113679     2.21567e-01     3.28444e-02
      9024       9028      1   0.078534   0.113679     2.21567e-01     3.28444e-02
      9024       9029      1   0.078534   0.204385     2.86068e-01     1.08078e-01
      9022       9027      1  -0.508176   0.113679     2.47999e-01     1.08078e-01
      9022       9028      1  -0.508176   0.113679     2.47999e-01     1.08078e-01
      9021       9024      1   1.339721   0.065445     3.10656e-01     1.17227e-01
      9021       9025      1   1.339721   0.065445     3.10656e-01     1.17227e-01
      9019       9044      1   0.095591  -0.460790     2.73568e-01     1.08078e-01
      9019       9021      1   0.095591   1.116434     3.10656e-01     1.17227e-01
      9018       9044      1   0.095591  -0.460790     2.73568e-01     1.08078e-01
      9018       9021      1   0.095591   1.116434     3.10656e-01     1.17227e-01
      9016       9018      1   0.063253   0.079659     2.47135e-01     3.28444e-02
      9016       9019      1   0.063253   0.079659     2.47135e-01     3.28444e-02
      9016       9020      1   0.063253  -0.424567     2.73568e-01     1.08078e-01
      9016       9045      1   0.063253   0.748011     2.93551e-01     7.68707e-02
      9014       9016      1   0.070469   0.052711     2.47135e-01     3.28444e-02
      9014       9017      1   0.070469   0.014549     2.93551e-01     8.67002e-02
      9014       9044      1   0.070469  -0.460790     2.73568e-01     1.08078e-01
      9013       9016      1   0.070469   0.052711     2.47135e-01     3.28444e-02
      9013       9017      1   0.070469   0.014549     2.93551e-01     8.67002e-02
      9013       9044      1   0.070469  -0.460790     2.73568e-01     1.08078e-01
      9012       9018      1   0.196939   0.079659     2.93551e-01     8.67002e-02
      9012       9019      1   0.196939   0.079659     2.93551e-01     8.67002e-02
      9011       9016      1  -0.575489   0.052711     2.73568e-01     1.08078e-01
      9009       9013      1   0.910403   0.058724     2.93551e-01     7.68707e-02
      9009       9014      1   0.910403   0.058724     2.93551e-01     7.68707e-02
      9083       9086      1   0.018859   0.044953     2.60142e-01     2.09200e-02
      9083       9085      1   0.018859   0.044953     2.60142e-01     2.09200e-02
      9082       9086      1   0.018859   0.044953     2.60142e-01     2.09200e-02
      9082       9085      1   0.018859   0.044953     2.60142e-01     2.09200e-02
      9080       9084      1   0.020431  -0.136833     3.00055e-01     6.91943e-02
      9080       9083      1   0.020431   0.015716     2.60142e-01     2.09200e-02
      9080       9082      1   0.020431   0.015716     2.60142e-01     2.09200e-02
      9079       9084      1   0.020431  -0.136833     3.00055e-01     6.91943e-02
      9079       9083      1   0.020431   0.015716     2.60142e-01     2.09200e-02
      9079       9082      1   0.020431   0.015716     2.60142e-01     2.09200e-02
      9078       9086      1  -0.026954   0.044953     3.00055e-01     6.91943e-02
      9078       9085      1  -0.026954   0.044953     3.00055e-01     6.91943e-02
      9077       9081      1   0.010573  -0.002029     3.00055e-01     6.91943e-02
      9077       9080      1   0.010573   0.017026     2.60142e-01     2.09200e-02
      9077       9079      1   0.010573   0.017026     2.60142e-01     2.09200e-02
      9076       9081      1   0.010573  -0.002029     3.00055e-01     6.91943e-02
      9076       9080      1   0.010573   0.017026     2.60142e-01     2.09200e-02
      9076       9079      1   0.010573   0.017026     2.60142e-01     2.09200e-02
      9075       9083      1  -0.016521   0.015716     3.00055e-01     6.91943e-02
      9075       9082      1  -0.016521   0.015716     3.00055e-01     6.91943e-02
      9074       9078      1   0.011511  -0.022462     3.00055e-01     6.91943e-02
      9074       9076      1   0.011511   0.008811     2.60142e-01     2.09200e-02
      9074       9077      1   0.011511   0.008811     2.60142e-01     2.09200e-02
      9073       9078      1   0.011511  -0.022462     3.00055e-01     6.91943e-02
      9073       9076      1   0.011511   0.008811     2.60142e-01     2.09200e-02
      9073       9077      1   0.011511   0.008811     2.60142e-01     2.09200e-02
      9072       9080      1  -0.027812   0.017026     3.00055e-01     6.91943e-02
      9072       9079      1  -0.027812   0.017026     3.00055e-01     6.91943e-02
      9071       9075      1   0.006833  -0.013767     3.00055e-01     6.91943e-02
      9071       9073      1   0.006833   0.009592     2.60142e-01     2.09200e-02
      9071       9074      1   0.006833   0.009592     2.60142e-01     2.09200e-02
      9070       9075      1   0.006833  -0.013767     3.00055e-01     6.91943e-02
      9070       9073      1   0.006833   0.009592     2.60142e-01     2.09200e-02
      9070       9074      1   0.006833   0.009592     2.60142e-01     2.09200e-02
      9069       9076      1  -0.004386   0.008811     3.00055e-01     6.91943e-02
      9069       9077      1  -0.004386   0.008811     3.00055e-01     6.91943e-02
      9068       9072      1   0.011241  -0.023177     3.00055e-01     6.91943e-02
      9068       9070      1   0.011241   0.005694     2.60142e-01     2.09200e-02
      9068       9071      1   0.011241   0.005694     2.60142e-01     2.09200e-02
      9067       9072      1   0.011241  -0.023177     3.00055e-01     6.91943e-02
      9067       9070      1   0.011241   0.005694     2.60142e-01     2.09200e-02
      9067       9071      1   0.011241   0.005694     2.60142e-01     2.09200e-02
      9066       9073      1  -0.026451   0.009592     3.00055e-01     6.91943e-02
      9066       9074      1  -0.026451   0.009592     3.00055e-01     6.91943e-02
      9065       9069      1   0.010172  -0.003655     3.00055e-01     6.91943e-02
      9065       9068      1   0.010172   0.009367     2.60142e-01     2.09200e-02
      9065       9067      1   0.010172   0.009367     2.60142e-01     2.09200e-02
      9064       9069      1   0.010172  -0.003655     3.00055e-01     6.91943e-02
      9064       9068      1   0.010172   0.009367     2.60142e-01     2.09200e-02
      9064       9067      1   0.010172   0.009367     2.60142e-01     2.09200e-02
      9063       9070      1  -0.014653   0.005694     3.00055e-01     6.91943e-02
      9063       9071      1  -0.014653   0.005694     3.00055e-01     6.91943e-02
      9062       9066      1   0.010037  -0.022042     3.00055e-01     6.91943e-02
      9062       9064      1   0.010037   0.008477     2.60142e-01     2.09200e-02
      9062       9065      1   0.010037   0.008477     2.60142e-01     2.09200e-02
      9061       9066      1   0.010037  -0.022042     3.00055e-01     6.91943e-02
      9061       9064      1   0.010037   0.008477     2.60142e-01     2.09200e-02
      9061       9065      1   0.010037   0.008477     2.60142e-01     2.09200e-02
      9060       9068      1  -0.021025   0.009367     3.00055e-01     6.91943e-02
      9060       9067      1  -0.021025   0.009367     3.00055e-01     6.91943e-02
      9059       9063      1   0.012677  -0.012211     3.00055e-01     6.91943e-02
      9059       9062      1   0.012677   0.008364     2.60142e-01     2.09200e-02
      9059       9061      1   0.012677   0.008364     2.60142e-01     2.09200e-02
      9058       9063      1   0.012677  -0.012211     3.00055e-01     6.91943e-02
      9058       9062      1   0.012677   0.008364     2.60142e-01     2.09200e-02
      9058       9061      1   0.012677   0.008364     2.60142e-01     2.09200e-02
      9057       9064      1  -0.031787   0.008477     3.00055e-01     6.91943e-02
      9057       9065      1  -0.031787   0.008477     3.00055e-01     6.91943e-02
      9056       9060      1   0.017208  -0.017521     3.00055e-01     6.91943e-02
      9056       9058      1   0.017208   0.010564     2.60142e-01     2.09200e-02
      9056       9059      1   0.017208   0.010564     2.60142e-01     2.09200e-02
      9055       9060      1   0.017208  -0.017521     3.00055e-01     6.91943e-02
      9055       9058      1   0.017208   0.010564     2.60142e-01     2.09200e-02
      9055       9059      1   0.017208   0.010564     2.60142e-01     2.09200e-02
      9054       9062      1  -0.028094   0.008364     3.00055e-01     6.91943e-02
      9054       9061      1  -0.028094   0.008364     3.00055e-01     6.91943e-02
      9053       9057      1   0.007531  -0.026489     3.00055e-01     6.91943e-02
      9053       9056      1   0.007531   0.014340     2.60142e-01     2.09200e-02
      9053       9055      1   0.007531   0.014340     2.60142e-01     2.09200e-02
      9052       9057      1   0.007531  -0.026489     3.00055e-01     6.91943e-02
      9052       9056      1   0.007531   0.014340     2.60142e-01     2.09200e-02
      9052       9055      1   0.007531   0.014340     2.60142e-01     2.09200e-02
      9051       9058      1   0.017463   0.010564     3.00055e-01     6.91943e-02
      9051       9059      1   0.017463   0.010564     3.00055e-01     6.91943e-02
      9050       9054      1   0.025511  -0.023412     3.00055e-01     6.91943e-02
      9050       9052      1   0.025511   0.006276     2.60142e-01     2.09200e-02
      9050       9053      1   0.025511   0.006276     2.60142e-01     2.09200e-02
      9049       9054      1   0.025511  -0.023412     3.00055e-01     6.91943e-02
      9049       9052      1   0.025511   0.006276     2.60142e-01     2.09200e-02
      9049       9053      1   0.025511   0.006276     2.60142e-01     2.09200e-02
      9048       9056      1  -0.111712   0.014340     3.00055e-01     6.91943e-02
      9048       9055      1  -0.111712   0.014340     3.00055e-01     6.91943e-02
      9047       9054      1   0.025511  -0.023412     3.00055e-01     6.91943e-02
      9047       9052      1   0.025511   0.006276     2.60142e-01     2.09200e-02
      9047       9053      1   0.025511   0.006276     2.60142e-01     2.09200e-02
      9126       9128      1   0.053944  -0.559638     2.78067e-01     9.58675e-02
      9126       9129      1   0.053944  -0.479574     2.80072e-01     8.62554e-02
      9125       9128      1   0.053944  -0.559638     2.78067e-01     9.58675e-02
      9125       9129      1   0.053944  -0.479574     2.80072e-01     8.62554e-02
      9123       9126      1   0.018859   0.044953     2.60142e-01     2.09200e-02
      9123       9125      1   0.018859   0.044953     2.60142e-01     2.09200e-02
      9123       9127      1   0.018859   0.758669     3.00055e-01     6.13495e-02
      9122       9126      1   0.018859   0.044953     2.60142e-01     2.09200e-02
      9122       9125      1   0.018859   0.044953     2.60142e-01     2.09200e-02
      9122       9127      1   0.018859   0.758669     3.00055e-01     6.13495e-02
      9120       9124      1   0.020431  -0.136833     3.00055e-01     6.91943e-02
      9120       9123      1   0.020431   0.015716     2.60142e-01     2.09200e-02
      9120       9122      1   0.020431   0.015716     2.60142e-01     2.09200e-02
      9119       9124      1   0.020431  -0.136833     3.00055e-01     6.91943e-02
      9119       9123      1   0.020431   0.015716     2.60142e-01     2.09200e-02
      9119       9122      1   0.020431   0.015716     2.60142e-01     2.09200e-02
      9118       9126      1  -0.026954   0.044953     3.00055e-01     6.91943e-02
      9118       9125      1  -0.026954   0.044953     3.00055e-01     6.91943e-02
      9117       9121      1   0.010573  -0.002029     3.00055e-01     6.91943e-02
      9117       9120      1   0.010573   0.017026     2.60142e-01     2.09200e-02
      9117       9119      1   0.010573   0.017026     2.60142e-01     2.09200e-02
      9116       9121      1   0.010573  -0.002029     3.00055e-01     6.91943e-02
      9116       9120      1   0.010573   0.017026     2.60142e-01     2.09200e-02
      9116       9119      1   0.010573   0.017026     2.60142e-01     2.09200e-02
      9115       9123      1  -0.016521   0.015716     3.00055e-01     6.91943e-02
      9115       9122      1  -0.016521   0.015716     3.00055e-01     6.91943e-02
      9114       9118      1   0.011511  -0.022462     3.00055e-01     6.91943e-02
      9114       9116      1   0.011511   0.008811     2.60142e-01     2.09200e-02
      9114       9117      1   0.011511   0.008811     2.60142e-01     2.09200e-02
      9113       9118      1   0.011511  -0.022462     3.00055e-01     6.91943e-02
      9113       9116      1   0.011511   0.008811     2.60142e-01     2.09200e-02
      9113       9117      1   0.011511   0.008811     2.60142e-01     2.09200e-02
      9112       9120      1  -0.027812   0.017026     3.00055e-01     6.91943e-02
      9112       9119      1  -0.027812   0.017026     3.00055e-01     6.91943e-02
      9111       9115      1   0.006833  -0.013767     3.00055e-01     6.91943e-02
      9111       9113      1   0.006833   0.009592     2.60142e-01     2.09200e-02
      9111       9114      1   0.006833   0.009592     2.60142e-01     2.09200e-02
      9110       9115      1   0.006833  -0.013767     3.00055e-01     6.91943e-02
      9110       9113      1   0.006833   0.009592     2.60142e-01     2.09200e-02
      9110       9114      1   0.006833   0.009592     2.60142e-01     2.09200e-02
      9109       9116      1  -0.004386   0.008811     3.00055e-01     6.91943e-02
      9109       9117      1  -0.004386   0.008811     3.00055e-01     6.91943e-02
      9108       9112      1   0.011241  -0.023177     3.00055e-01     6.91943e-02
      9108       9110      1   0.011241   0.005694     2.60142e-01     2.09200e-02
      9108       9111      1   0.011241   0.005694     2.60142e-01     2.09200e-02
      9107       9112      1   0.011241  -0.023177     3.00055e-01     6.91943e-02
      9107       9110      1   0.011241   0.005694     2.60142e-01     2.09200e-02
      9107       9111      1   0.011241   0.005694     2.60142e-01     2.09200e-02
      9106       9113      1  -0.026451   0.009592     3.00055e-01     6.91943e-02
      9106       9114      1  -0.026451   0.009592     3.00055e-01     6.91943e-02
      9105       9109      1   0.010172  -0.003655     3.00055e-01     6.91943e-02
      9105       9108      1   0.010172   0.009367     2.60142e-01     2.09200e-02
      9105       9107      1   0.010172   0.009367     2.60142e-01     2.09200e-02
      9104       9109      1   0.010172  -0.003655     3.00055e-01     6.91943e-02
      9104       9108      1   0.010172   0.009367     2.60142e-01     2.09200e-02
      9104       9107      1   0.010172   0.009367     2.60142e-01     2.09200e-02
      9103       9110      1  -0.014653   0.005694     3.00055e-01     6.91943e-02
      9103       9111      1  -0.014653   0.005694     3.00055e-01     6.91943e-02
      9102       9106      1   0.010037  -0.022042     3.00055e-01     6.91943e-02
      9102       9104      1   0.010037   0.008477     2.60142e-01     2.09200e-02
      9102       9105      1   0.010037   0.008477     2.60142e-01     2.09200e-02
      9101       9106      1   0.010037  -0.022042     3.00055e-01     6.91943e-02
      9101       9104      1   0.010037   0.008477     2.60142e-01     2.09200e-02
      9101       9105      1   0.010037   0.008477     2.60142e-01     2.09200e-02
      9100       9108      1  -0.021025   0.009367     3.00055e-01     6.91943e-02
      9100       9107      1  -0.021025   0.009367     3.00055e-01     6.91943e-02
      9099       9103      1   0.012677  -0.012211     3.00055e-01     6.91943e-02
      9099       9102      1   0.012677   0.008364     2.60142e-01     2.09200e-02
      9099       9101      1   0.012677   0.008364     2.60142e-01     2.09200e-02
      9098       9103      1   0.012677  -0.012211     3.00055e-01     6.91943e-02
      9098       9102      1   0.012677   0.008364     2.60142e-01     2.09200e-02
      9098       9101      1   0.012677   0.008364     2.60142e-01     2.09200e-02
      9097       9104      1  -0.031787   0.008477     3.00055e-01     6.91943e-02
      9097       9105      1  -0.031787   0.008477     3.00055e-01     6.91943e-02
      9096       9100      1   0.017208  -0.017521     3.00055e-01     6.91943e-02
      9096       9098      1   0.017208   0.010564     2.60142e-01     2.09200e-02
      9096       9099      1   0.017208   0.010564     2.60142e-01     2.09200e-02
      9095       9100      1   0.017208  -0.017521     3.00055e-01     6.91943e-02
      9095       9098      1   0.017208   0.010564     2.60142e-01     2.09200e-02
      9095       9099      1   0.017208   0.010564     2.60142e-01     2.09200e-02
      9094       9102      1  -0.028094   0.008364     3.00055e-01     6.91943e-02
      9094       9101      1  -0.028094   0.008364     3.00055e-01     6.91943e-02
      9093       9097      1   0.007531  -0.026489     3.00055e-01     6.91943e-02
      9093       9096      1   0.007531   0.014340     2.60142e-01     2.09200e-02
      9093       9095      1   0.007531   0.014340     2.60142e-01     2.09200e-02
      9092       9097      1   0.007531  -0.026489     3.00055e-01     6.91943e-02
      9092       9096      1   0.007531   0.014340     2.60142e-01     2.09200e-02
      9092       9095      1   0.007531   0.014340     2.60142e-01     2.09200e-02
      9091       9098      1   0.017463   0.010564     3.00055e-01     6.91943e-02
      9091       9099      1   0.017463   0.010564     3.00055e-01     6.91943e-02
      9090       9094      1   0.025511  -0.023412     3.00055e-01     6.91943e-02
      9090       9092      1   0.025511   0.006276     2.60142e-01     2.09200e-02
      9090       9093      1   0.025511   0.006276     2.60142e-01     2.09200e-02
      9089       9094      1   0.025511  -0.023412     3.00055e-01     6.91943e-02
      9089       9092      1   0.025511   0.006276     2.60142e-01     2.09200e-02
      9089       9093      1   0.025511   0.006276     2.60142e-01     2.09200e-02
      9088       9096      1  -0.111712   0.014340     3.00055e-01     6.91943e-02
      9088       9095      1  -0.111712   0.014340     3.00055e-01     6.91943e-02
      9087       9094      1   0.025511  -0.023412     3.00055e-01     6.91943e-02
      9087       9092      1   0.025511   0.006276     2.60142e-01     2.09200e-02
      9087       9093      1   0.025511   0.006276     2.60142e-01     2.09200e-02
      9164       9204      1  -0.673755   0.044953     2.78067e-01     9.58675e-02
      9164       9203      1  -0.673755   0.044953     2.78067e-01     9.58675e-02
      9163       9201      1   0.897613   0.015716     3.00055e-01     6.13495e-02
      9163       9200      1   0.897613   0.015716     3.00055e-01     6.13495e-02
      9162       9204      1  -0.552948   0.044953     2.80072e-01     8.62554e-02
      9162       9203      1  -0.552948   0.044953     2.80072e-01     8.62554e-02
      9155       9156      1   0.172230  -0.282478     2.67982e-01     8.67002e-02
      9154       9156      1   0.172230  -0.282478     2.67982e-01     8.67002e-02
      9153       9156      1   0.172230  -0.282478     2.67982e-01     8.67002e-02
      9152       9157      1  -0.338973   0.143525     2.67982e-01     8.67002e-02
      9152       9158      1  -0.338973   0.143525     2.67982e-01     8.67002e-02
      9152       9159      1  -0.338973   0.143525     2.67982e-01     8.67002e-02
      9151       9152      1   0.172230  -0.282478     2.67982e-01     8.67002e-02
      9151       9156      1   0.172230  -0.282478     2.67982e-01     8.67002e-02
      9150       9152      1   0.172230  -0.282478     2.67982e-01     8.67002e-02
      9150       9156      1   0.172230  -0.282478     2.67982e-01     8.67002e-02
      9149       9152      1   0.172230  -0.282478     2.67982e-01     8.67002e-02
      9149       9156      1   0.172230  -0.282478     2.67982e-01     8.67002e-02
      9148       9153      1  -0.338973   0.143525     2.67982e-01     8.67002e-02
      9148       9154      1  -0.338973   0.143525     2.67982e-01     8.67002e-02
      9148       9155      1  -0.338973   0.143525     2.67982e-01     8.67002e-02
      9148       9157      1  -0.338973   0.143525     2.67982e-01     8.67002e-02
      9148       9158      1  -0.338973   0.143525     2.67982e-01     8.67002e-02
      9148       9159      1  -0.338973   0.143525     2.67982e-01     8.67002e-02
      9146       9148      1   0.136415  -0.282478     2.67982e-01     8.67002e-02
      9146       9152      1   0.136415  -0.282478     2.67982e-01     8.67002e-02
      9146       9156      1   0.136415  -0.282478     2.67982e-01     8.67002e-02
      9145       9148      1   0.136415  -0.282478     2.67982e-01     8.67002e-02
      9145       9152      1   0.136415  -0.282478     2.67982e-01     8.67002e-02
      9145       9156      1   0.136415  -0.282478     2.67982e-01     8.67002e-02
      9144       9149      1  -0.170824   0.143525     2.67982e-01     8.67002e-02
      9144       9150      1  -0.170824   0.143525     2.67982e-01     8.67002e-02
      9144       9151      1  -0.170824   0.143525     2.67982e-01     8.67002e-02
      9144       9153      1  -0.170824   0.143525     2.67982e-01     8.67002e-02
      9144       9154      1  -0.170824   0.143525     2.67982e-01     8.67002e-02
      9144       9155      1  -0.170824   0.143525     2.67982e-01     8.67002e-02
      9144       9157      1  -0.170824   0.143525     2.67982e-01     8.67002e-02
      9144       9158      1  -0.170824   0.143525     2.67982e-01     8.67002e-02
      9144       9159      1  -0.170824   0.143525     2.67982e-01     8.67002e-02
      9143       9145      1   0.078534   0.113679     2.21567e-01     3.28444e-02
      9143       9146      1   0.078534   0.113679     2.21567e-01     3.28444e-02
      9143       9147      1   0.078534   0.204385     2.86068e-01     1.08078e-01
      9142       9145      1   0.078534   0.113679     2.21567e-01     3.28444e-02
      9142       9146      1   0.078534   0.113679     2.21567e-01     3.28444e-02
      9142       9147      1   0.078534   0.204385     2.86068e-01     1.08078e-01
      9140       9145      1  -0.508176   0.113679     2.47999e-01     1.08078e-01
      9140       9146      1  -0.508176   0.113679     2.47999e-01     1.08078e-01
      9139       9142      1   1.339721   0.065445     3.10656e-01     1.17227e-01
      9139       9143      1   1.339721   0.065445     3.10656e-01     1.17227e-01
      9137       9162      1   0.095591  -0.460790     2.73568e-01     1.08078e-01
      9137       9139      1   0.095591   1.116434     3.10656e-01     1.17227e-01
      9136       9162      1   0.095591  -0.460790     2.73568e-01     1.08078e-01
      9136       9139      1   0.095591   1.116434     3.10656e-01     1.17227e-01
      9134       9136      1   0.063253   0.079659     2.47135e-01     3.28444e-02
      9134       9137      1   0.063253   0.079659     2.47135e-01     3.28444e-02
      9134       9138      1   0.063253  -0.424567     2.73568e-01     1.08078e-01
      9134       9163      1   0.063253   0.748011     2.93551e-01     7.68707e-02
      9132       9134      1   0.070469   0.052711     2.47135e-01     3.28444e-02
      9132       9135      1   0.070469   0.014549     2.93551e-01     8.67002e-02
      9132       9162      1   0.070469  -0.460790     2.73568e-01     1.08078e-01
      9131       9134      1   0.070469   0.052711     2.47135e-01     3.28444e-02
      9131       9135      1   0.070469   0.014549     2.93551e-01     8.67002e-02
      9131       9162      1   0.070469  -0.460790     2.73568e-01     1.08078e-01
      9130       9136      1   0.196939   0.079659     2.93551e-01     8.67002e-02
      9130       9137      1   0.196939   0.079659     2.93551e-01     8.67002e-02
      9129       9134      1  -0.575489   0.052711     2.73568e-01     1.08078e-01
      9127       9131      1   0.910403   0.058724     2.93551e-01     7.68707e-02
      9127       9132      1   0.910403   0.058724     2.93551e-01     7.68707e-02
      9201       9204      1   0.018859   0.044953     2.60142e-01     2.09200e-02
      9201       9203      1   0.018859   0.044953     2.60142e-01     2.09200e-02
      9200       9204      1   0.018859   0.044953     2.60142e-01     2.09200e-02
      9200       9203      1   0.018859   0.044953     2.60142e-01     2.09200e-02
      9198       9202      1   0.020431  -0.136833     3.00055e-01     6.91943e-02
      9198       9201      1   0.020431   0.015716     2.60142e-01     2.09200e-02
      9198       9200      1   0.020431   0.015716     2.60142e-01     2.09200e-02
      9197       9202      1   0.020431  -0.136833     3.00055e-01     6.91943e-02
      9197       9201      1   0.020431   0.015716     2.60142e-01     2.09200e-02
      9197       9200      1   0.020431   0.015716     2.60142e-01     2.09200e-02
      9196       9204      1  -0.026954   0.044953     3.00055e-01     6.91943e-02
      9196       9203      1  -0.026954   0.044953     3.00055e-01     6.91943e-02
      9195       9199      1   0.010573  -0.002029     3.00055e-01     6.91943e-02
      9195       9198      1   0.010573   0.017026     2.60142e-01     2.09200e-02
      9195       9197      1   0.010573   0.017026     2.60142e-01     2.09200e-02
      9194       9199      1   0.010573  -0.002029     3.00055e-01     6.91943e-02
      9194       9198      1   0.010573   0.017026     2.60142e-01     2.09200e-02
      9194       9197      1   0.010573   0.017026     2.60142e-01     2.09200e-02
      9193       9201      1  -0.016521   0.015716     3.00055e-01     6.91943e-02
      9193       9200      1  -0.016521   0.015716     3.00055e-01     6.91943e-02
      9192       9196      1   0.011511  -0.022462     3.00055e-01     6.91943e-02
      9192       9194      1   0.011511   0.008811     2.60142e-01     2.09200e-02
      9192       9195      1   0.011511   0.008811     2.60142e-01     2.09200e-02
      9191       9196      1   0.011511  -0.022462     3.00055e-01     6.91943e-02
      9191       9194      1   0.011511   0.008811     2.60142e-01     2.09200e-02
      9191       9195      1   0.011511   0.008811     2.60142e-01     2.09200e-02
      9190       9198      1  -0.027812   0.017026     3.00055e-01     6.91943e-02
      9190       9197      1  -0.027812   0.017026     3.00055e-01     6.91943e-02
      9189       9193      1   0.006833  -0.013767     3.00055e-01     6.91943e-02
      9189       9191      1   0.006833   0.009592     2.60142e-01     2.09200e-02
      9189       9192      1   0.006833   0.009592     2.60142e-01     2.09200e-02
      9188       9193      1   0.006833  -0.013767     3.00055e-01     6.91943e-02
      9188       9191      1   0.006833   0.009592     2.60142e-01     2.09200e-02
      9188       9192      1   0.006833   0.009592     2.60142e-01     2.09200e-02
      9187       9194      1  -0.004386   0.008811     3.00055e-01     6.91943e-02
      9187       9195      1  -0.004386   0.008811     3.00055e-01     6.91943e-02
      9186       9190      1   0.011241  -0.023177     3.00055e-01     6.91943e-02
      9186       9188      1   0.011241   0.005694     2.60142e-01     2.09200e-02
      9186       9189      1   0.011241   0.005694     2.60142e-01     2.09200e-02
      9185       9190      1   0.011241  -0.023177     3.00055e-01     6.91943e-02
      9185       9188      1   0.011241   0.005694     2.60142e-01     2.09200e-02
      9185       9189      1   0.011241   0.005694     2.60142e-01     2.09200e-02
      9184       9191      1  -0.026451   0.009592     3.00055e-01     6.91943e-02
      9184       9192      1  -0.026451   0.009592     3.00055e-01     6.91943e-02
      9183       9187      1   0.010172  -0.003655     3.00055e-01     6.91943e-02
      9183       9186      1   0.010172   0.009367     2.60142e-01     2.09200e-02
      9183       9185      1   0.010172   0.009367     2.60142e-01     2.09200e-02
      9182       9187      1   0.010172  -0.003655     3.00055e-01     6.91943e-02
      9182       9186      1   0.010172   0.009367     2.60142e-01     2.09200e-02
      9182       9185      1   0.010172   0.009367     2.60142e-01     2.09200e-02
      9181       9188      1  -0.014653   0.005694     3.00055e-01     6.91943e-02
      9181       9189      1  -0.014653   0.005694     3.00055e-01     6.91943e-02
      9180       9184      1   0.010037  -0.022042     3.00055e-01     6.91943e-02
      9180       9182      1   0.010037   0.008477     2.60142e-01     2.09200e-02
      9180       9183      1   0.010037   0.008477     2.60142e-01     2.09200e-02
      9179       9184      1   0.010037  -0.022042     3.00055e-01     6.91943e-02
      9179       9182      1   0.010037   0.008477     2.60142e-01     2.09200e-02
      9179       9183      1   0.010037   0.008477     2.60142e-01     2.09200e-02
      9178       9186      1  -0.021025   0.009367     3.00055e-01     6.91943e-02
      9178       9185      1  -0.021025   0.009367     3.00055e-01     6.91943e-02
      9177       9181      1   0.012677  -0.012211     3.00055e-01     6.91943e-02
      9177       9180      1   0.012677   0.008364     2.60142e-01     2.09200e-02
      9177       9179      1   0.012677   0.008364     2.60142e-01     2.09200e-02
      9176       9181      1   0.012677  -0.012211     3.00055e-01     6.91943e-02
      9176       9180      1   0.012677   0.008364     2.60142e-01     2.09200e-02
      9176       9179      1   0.012677   0.008364     2.60142e-01     2.09200e-02
      9175       9182      1  -0.031787   0.008477     3.00055e-01     6.91943e-02
      9175       9183      1  -0.031787   0.008477     3.00055e-01     6.91943e-02
      9174       9178      1   0.017208  -0.017521     3.00055e-01     6.91943e-02
      9174       9176      1   0.017208   0.010564     2.60142e-01     2.09200e-02
      9174       9177      1   0.017208   0.010564     2.60142e-01     2.09200e-02
      9173       9178      1   0.017208  -0.017521     3.00055e-01     6.91943e-02
      9173       9176      1   0.017208   0.010564     2.60142e-01     2.09200e-02
      9173       9177      1   0.017208   0.010564     2.60142e-01     2.09200e-02
      9172       9180      1  -0.028094   0.008364     3.00055e-01     6.91943e-02
      9172       9179      1  -0.028094   0.008364     3.00055e-01     6.91943e-02
      9171       9175      1   0.007531  -0.026489     3.00055e-01     6.91943e-02
      9171       9174      1   0.007531   0.014340     2.60142e-01     2.09200e-02
      9171       9173      1   0.007531   0.014340     2.60142e-01     2.09200e-02
      9170       9175      1   0.007531  -0.026489     3.00055e-01     6.91943e-02
      9170       9174      1   0.007531   0.014340     2.60142e-01     2.09200e-02
      9170       9173      1   0.007531   0.014340     2.60142e-01     2.09200e-02
      9169       9176      1   0.017463   0.010564     3.00055e-01     6.91943e-02
      9169       9177      1   0.017463   0.010564     3.00055e-01     6.91943e-02
      9168       9172      1   0.025511  -0.023412     3.00055e-01     6.91943e-02
      9168       9170      1   0.025511   0.006276     2.60142e-01     2.09200e-02
      9168       9171      1   0.025511   0.006276     2.60142e-01     2.09200e-02
      9167       9172      1   0.025511  -0.023412     3.00055e-01     6.91943e-02
      9167       9170      1   0.025511   0.006276     2.60142e-01     2.09200e-02
      9167       9171      1   0.025511   0.006276     2.60142e-01     2.09200e-02
      9166       9174      1  -0.111712   0.014340     3.00055e-01     6.91943e-02
      9166       9173      1  -0.111712   0.014340     3.00055e-01     6.91943e-02
      9165       9172      1   0.025511  -0.023412     3.00055e-01     6.91943e-02
      9165       9170      1   0.025511   0.006276     2.60142e-01     2.09200e-02
      9165       9171      1   0.025511   0.006276     2.60142e-01     2.09200e-02
      9244       9246      1   0.053944  -0.559638     2.78067e-01     9.58675e-02
      9244       9247      1   0.053944  -0.479574     2.80072e-01     8.62554e-02
      9243       9246      1   0.053944  -0.559638     2.78067e-01     9.58675e-02
      9243       9247      1   0.053944  -0.479574     2.80072e-01     8.62554e-02
      9241       9244      1   0.018859   0.044953     2.60142e-01     2.09200e-02
      9241       9243      1   0.018859   0.044953     2.60142e-01     2.09200e-02
      9241       9245      1   0.018859   0.758669     3.00055e-01     6.13495e-02
      9240       9244      1   0.018859   0.044953     2.60142e-01     2.09200e-02
      9240       9243      1   0.018859   0.044953     2.60142e-01     2.09200e-02
      9240       9245      1   0.018859   0.758669     3.00055e-01     6.13495e-02
      9238       9242      1   0.020431  -0.136833     3.00055e-01     6.91943e-02
      9238       9241      1   0.020431   0.015716     2.60142e-01     2.09200e-02
      9238       9240      1   0.020431   0.015716     2.60142e-01     2.09200e-02
      9237       9242      1   0.020431  -0.136833     3.00055e-01     6.91943e-02
      9237       9241      1   0.020431   0.015716     2.60142e-01     2.09200e-02
      9237       9240      1   0.020431   0.015716     2.60142e-01     2.09200e-02
      9236       9244      1  -0.026954   0.044953     3.00055e-01     6.91943e-02
      9236       9243      1  -0.026954   0.044953     3.00055e-01     6.91943e-02
      9235       9239      1   0.010573  -0.002029     3.00055e-01     6.91943e-02
      9235       9238      1   0.010573   0.017026     2.60142e-01     2.09200e-02
      9235       9237      1   0.010573   0.017026     2.60142e-01     2.09200e-02
      9234       9239      1   0.010573  -0.002029     3.00055e-01     6.91943e-02
      9234       9238      1   0.010573   0.017026     2.60142e-01     2.09200e-02
      9234       9237      1   0.010573   0.017026     2.60142e-01     2.09200e-02
      9233       9241      1  -0.016521   0.015716     3.00055e-01     6.91943e-02
      9233       9240      1  -0.016521   0.015716     3.00055e-01     6.91943e-02
      9232       9236      1   0.011511  -0.022462     3.00055e-01     6.91943e-02
      9232       9234      1   0.011511   0.008811     2.60142e-01     2.09200e-02
      9232       9235      1   0.011511   0.008811     2.60142e-01     2.09200e-02
      9231       9236      1   0.011511  -0.022462     3.00055e-01     6.91943e-02
      9231       9234      1   0.011511   0.008811     2.60142e-01     2.09200e-02
      9231       9235      1   0.011511   0.008811     2.60142e-01     2.09200e-02
      9230       9238      1  -0.027812   0.017026     3.00055e-01     6.91943e-02
      9230       9237      1  -0.027812   0.017026     3.00055e-01     6.91943e-02
      9229       9233      1   0.006833  -0.013767     3.00055e-01     6.91943e-02
      9229       9231      1   0.006833   0.009592     2.60142e-01     2.09200e-02
      9229       9232      1   0.006833   0.009592     2.60142e-01     2.09200e-02
      9228       9233      1   0.006833  -0.013767     3.00055e-01     6.91943e-02
      9228       9231      1   0.006833   0.009592     2.60142e-01     2.09200e-02
      9228       9232      1   0.006833   0.009592     2.60142e-01     2.09200e-02
      9227       9234      1  -0.004386   0.008811     3.00055e-01     6.91943e-02
      9227       9235      1  -0.004386   0.008811     3.00055e-01     6.91943e-02
      9226       9230      1   0.011241  -0.023177     3.00055e-01     6.91943e-02
      9226       9228      1   0.011241   0.005694     2.60142e-01     2.09200e-02
      9226       9229      1   0.011241   0.005694     2.60142e-01     2.09200e-02
      9225       9230      1   0.011241  -0.023177     3.00055e-01     6.91943e-02
      9225       9228      1   0.011241   0.005694     2.60142e-01     2.09200e-02
      9225       9229      1   0.011241   0.005694     2.60142e-01     2.09200e-02
      9224       9231      1  -0.026451   0.009592     3.00055e-01     6.91943e-02
      9224       9232      1  -0.026451   0.009592     3.00055e-01     6.91943e-02
      9223       9227      1   0.010172  -0.003655     3.00055e-01     6.91943e-02
      9223       9226      1   0.010172   0.009367     2.60142e-01     2.09200e-02
      9223       9225      1   0.010172   0.009367     2.60142e-01     2.09200e-02
      9222       9227      1   0.010172  -0.003655     3.00055e-01     6.91943e-02
      9222       9226      1   0.010172   0.009367     2.60142e-01     2.09200e-02
      9222       9225      1   0.010172   0.009367     2.60142e-01     2.09200e-02
      9221       9228      1  -0.014653   0.005694     3.00055e-01     6.91943e-02
      9221       9229      1  -0.014653   0.005694     3.00055e-01     6.91943e-02
      9220       9224      1   0.010037  -0.022042     3.00055e-01     6.91943e-02
      9220       9222      1   0.010037   0.008477     2.60142e-01     2.09200e-02
      9220       9223      1   0.010037   0.008477     2.60142e-01     2.09200e-02
      9219       9224      1   0.010037  -0.022042     3.00055e-01     6.91943e-02
      9219       9222      1   0.010037   0.008477     2.60142e-01     2.09200e-02
      9219       9223      1   0.010037   0.008477     2.60142e-01     2.09200e-02
      9218       9226      1  -0.021025   0.009367     3.00055e-01     6.91943e-02
      9218       9225      1  -0.021025   0.009367     3.00055e-01     6.91943e-02
      9217       9221      1   0.012677  -0.012211     3.00055e-01     6.91943e-02
      9217       9220      1   0.012677   0.008364     2.60142e-01     2.09200e-02
      9217       9219      1   0.012677   0.008364     2.60142e-01     2.09200e-02
      9216       9221      1   0.012677  -0.012211     3.00055e-01     6.91943e-02
      9216       9220      1   0.012677   0.008364     2.60142e-01     2.09200e-02
      9216       9219      1   0.012677   0.008364     2.60142e-01     2.09200e-02
      9215       9222      1  -0.031787   0.008477     3.00055e-01     6.91943e-02
      9215       9223      1  -0.031787   0.008477     3.00055e-01     6.91943e-02
      9214       9218      1   0.017208  -0.017521     3.00055e-01     6.91943e-02
      9214       9216      1   0.017208   0.010564     2.60142e-01     2.09200e-02
      9214       9217      1   0.017208   0.010564     2.60142e-01     2.09200e-02
      9213       9218      1   0.017208  -0.017521     3.00055e-01     6.91943e-02
      9213       9216      1   0.017208   0.010564     2.60142e-01     2.09200e-02
      9213       9217      1   0.017208   0.010564     2.60142e-01     2.09200e-02
      9212       9220      1  -0.028094   0.008364     3.00055e-01     6.91943e-02
      9212       9219      1  -0.028094   0.008364     3.00055e-01     6.91943e-02
      9211       9215      1   0.007531  -0.026489     3.00055e-01     6.91943e-02
      9211       9214      1   0.007531   0.014340     2.60142e-01     2.09200e-02
      9211       9213      1   0.007531   0.014340     2.60142e-01     2.09200e-02
      9210       9215      1   0.007531  -0.026489     3.00055e-01     6.91943e-02
      9210       9214      1   0.007531   0.014340     2.60142e-01     2.09200e-02
      9210       9213      1   0.007531   0.014340     2.60142e-01     2.09200e-02
      9209       9216      1   0.017463   0.010564     3.00055e-01     6.91943e-02
      9209       9217      1   0.017463   0.010564     3.00055e-01     6.91943e-02
      9208       9212      1   0.025511  -0.023412     3.00055e-01     6.91943e-02
      9208       9210      1   0.025511   0.006276     2.60142e-01     2.09200e-02
      9208       9211      1   0.025511   0.006276     2.60142e-01     2.09200e-02
      9207       9212      1   0.025511  -0.023412     3.00055e-01     6.91943e-02
      9207       9210      1   0.025511   0.006276     2.60142e-01     2.09200e-02
      9207       9211      1   0.025511   0.006276     2.60142e-01     2.09200e-02
      9206       9214      1  -0.111712   0.014340     3.00055e-01     6.91943e-02
      9206       9213      1  -0.111712   0.014340     3.00055e-01     6.91943e-02
      9205       9212      1   0.025511  -0.023412     3.00055e-01     6.91943e-02
      9205       9210      1   0.025511   0.006276     2.60142e-01     2.09200e-02
      9205       9211      1   0.025511   0.006276     2.60142e-01     2.09200e-02
      9282       9322      1  -0.673755   0.044953     2.78067e-01     9.58675e-02
      9282       9321      1  -0.673755   0.044953     2.78067e-01     9.58675e-02
      9281       9319      1   0.897613   0.015716     3.00055e-01     6.13495e-02
      9281       9318      1   0.897613   0.015716     3.00055e-01     6.13495e-02
      9280       9322      1  -0.552948   0.044953     2.80072e-01     8.62554e-02
      9280       9321      1  -0.552948   0.044953     2.80072e-01     8.62554e-02
      9273       9274      1   0.172230  -0.282478     2.67982e-01     8.67002e-02
      9272       9274      1   0.172230  -0.282478     2.67982e-01     8.67002e-02
      9271       9274      1   0.172230  -0.282478     2.67982e-01     8.67002e-02
      9270       9275      1  -0.338973   0.143525     2.67982e-01     8.67002e-02
      9270       9276      1  -0.338973   0.143525     2.67982e-01     8.67002e-02
      9270       9277      1  -0.338973   0.143525     2.67982e-01     8.67002e-02
      9269       9270      1   0.172230  -0.282478     2.67982e-01     8.67002e-02
      9269       9274      1   0.172230  -0.282478     2.67982e-01     8.67002e-02
      9268       9270      1   0.172230  -0.282478     2.67982e-01     8.67002e-02
      9268       9274      1   0.172230  -0.282478     2.67982e-01     8.67002e-02
      9267       9270      1   0.172230  -0.282478     2.67982e-01     8.67002e-02
      9267       9274      1   0.172230  -0.282478     2.67982e-01     8.67002e-02
      9266       9271      1  -0.338973   0.143525     2.67982e-01     8.67002e-02
      9266       9272      1  -0.338973   0.143525     2.67982e-01     8.67002e-02
      9266       9273      1  -0.338973   0.143525     2.67982e-01     8.67002e-02
      9266       9275      1  -0.338973   0.143525     2.67982e-01     8.67002e-02
      9266       9276      1  -0.338973   0.143525     2.67982e-01     8.67002e-02
      9266       9277      1  -0.338973   0.143525     2.67982e-01     8.67002e-02
      9264       9266      1   0.136415  -0.282478     2.67982e-01     8.67002e-02
      9264       9270      1   0.136415  -0.282478     2.67982e-01     8.67002e-02
      9264       9274      1   0.136415  -0.282478     2.67982e-01     8.67002e-02
      9263       9266      1   0.136415  -0.282478     2.67982e-01     8.67002e-02
      9263       9270      1   0.136415  -0.282478     2.67982e-01     8.67002e-02
      9263       9274      1   0.136415  -0.282478     2.67982e-01     8.67002e-02
      9262       9267      1  -0.170824   0.143525     2.67982e-01     8.67002e-02
      9262       9268      1  -0.170824   0.143525     2.67982e-01     8.67002e-02
      9262       9269      1  -0.170824   0.143525     2.67982e-01     8.67002e-02
      9262       9271      1  -0.170824   0.143525     2.67982e-01     8.67002e-02
      9262       9272      1  -0.170824   0.143525     2.67982e-01     8.67002e-02
      9262       9273      1  -0.170824   0.143525     2.67982e-01     8.67002e-02
      9262       9275      1  -0.170824   0.143525     2.67982e-01     8.67002e-02
      9262       9276      1  -0.170824   0.143525     2.67982e-01     8.67002e-02
      9262       9277      1  -0.170824   0.143525     2.67982e-01     8.67002e-02
      9261       9263      1   0.078534   0.113679     2.21567e-01     3.28444e-02
      9261       9264      1   0.078534   0.113679     2.21567e-01     3.28444e-02
      9261       9265      1   0.078534   0.204385     2.86068e-01     1.08078e-01
      9260       9263      1   0.078534   0.113679     2.21567e-01     3.28444e-02
      9260       9264      1   0.078534   0.113679     2.21567e-01     3.28444e-02
      9260       9265      1   0.078534   0.204385     2.86068e-01     1.08078e-01
      9258       9263      1  -0.508176   0.113679     2.47999e-01     1.08078e-01
      9258       9264      1  -0.508176   0.113679     2.47999e-01     1.08078e-01
      9257       9260      1   1.339721   0.065445     3.10656e-01     1.17227e-01
      9257       9261      1   1.339721   0.065445     3.10656e-01     1.17227e-01
      9255       9280      1   0.095591  -0.460790     2.73568e-01     1.08078e-01
      9255       9257      1   0.095591   1.116434     3.10656e-01     1.17227e-01
      9254       9280      1   0.095591  -0.460790     2.73568e-01     1.08078e-01
      9254       9257      1   0.095591   1.116434     3.10656e-01     1.17227e-01
      9252       9254      1   0.063253   0.079659     2.47135e-01     3.28444e-02
      9252       9255      1   0.063253   0.079659     2.47135e-01     3.28444e-02
      9252       9256      1   0.063253  -0.424567     2.73568e-01     1.08078e-01
      9252       9281      1   0.063253   0.748011     2.93551e-01     7.68707e-02
      9250       9252      1   0.070469   0.052711     2.47135e-01     3.28444e-02
      9250       9253      1   0.070469   0.014549     2.93551e-01     8.67002e-02
      9250       9280      1   0.070469  -0.460790     2.73568e-01     1.08078e-01
      9249       9252      1   0.070469   0.052711     2.47135e-01     3.28444e-02
      9249       9253      1   0.070469   0.014549     2.93551e-01     8.67002e-02
      9249       9280      1   0.070469  -0.460790     2.73568e-01     1.08078e-01
      9248       9254      1   0.196939   0.079659     2.93551e-01     8.67002e-02
      9248       9255      1   0.196939   0.079659     2.93551e-01     8.67002e-02
      9247       9252      1  -0.575489   0.052711     2.73568e-01     1.08078e-01
      9245       9249      1   0.910403   0.058724     2.93551e-01     7.68707e-02
      9245       9250      1   0.910403   0.058724     2.93551e-01     7.68707e-02
      9319       9322      1   0.018859   0.044953     2.60142e-01     2.09200e-02
      9319       9321      1   0.018859   0.044953     2.60142e-01     2.09200e-02
      9318       9322      1   0.018859   0.044953     2.60142e-01     2.09200e-02
      9318       9321      1   0.018859   0.044953     2.60142e-01     2.09200e-02
      9316       9320      1   0.020431  -0.136833     3.00055e-01     6.91943e-02
      9316       9319      1   0.020431   0.015716     2.60142e-01     2.09200e-02
      9316       9318      1   0.020431   0.015716     2.60142e-01     2.09200e-02
      9315       9320      1   0.020431  -0.136833     3.00055e-01     6.91943e-02
      9315       9319      1   0.020431   0.015716     2.60142e-01     2.09200e-02
      9315       9318      1   0.020431   0.015716     2.60142e-01     2.09200e-02
      9314       9322      1  -0.026954   0.044953     3.00055e-01     6.91943e-02
      9314       9321      1  -0.026954   0.044953     3.00055e-01     6.91943e-02
      9313       9317      1   0.010573  -0.002029     3.00055e-01     6.91943e-02
      9313       9316      1   0.010573   0.017026     2.60142e-01     2.09200e-02
      9313       9315      1   0.010573   0.017026     2.60142e-01     2.09200e-02
      9312       9317      1   0.010573  -0.002029     3.00055e-01     6.91943e-02
      9312       9316      1   0.010573   0.017026     2.60142e-01     2.09200e-02
      9312       9315      1   0.010573   0.017026     2.60142e-01     2.09200e-02
      9311       9319      1  -0.016521   0.015716     3.00055e-01     6.91943e-02
      9311       9318      1  -0.016521   0.015716     3.00055e-01     6.91943e-02
      9310       9314      1   0.011511  -0.022462     3.00055e-01     6.91943e-02
      9310       9312      1   0.011511   0.008811     2.60142e-01     2.09200e-02
      9310       9313      1   0.011511   0.008811     2.60142e-01     2.09200e-02
      9309       9314      1   0.011511  -0.022462     3.00055e-01     6.91943e-02
      9309       9312      1   0.011511   0.008811     2.60142e-01     2.09200e-02
      9309       9313      1   0.011511   0.008811     2.60142e-01     2.09200e-02
      9308       9316      1  -0.027812   0.017026     3.00055e-01     6.91943e-02
      9308       9315      1  -0.027812   0.017026     3.00055e-01     6.91943e-02
      9307       9311      1   0.006833  -0.013767     3.00055e-01     6.91943e-02
      9307       9309      1   0.006833   0.009592     2.60142e-01     2.09200e-02
      9307       9310      1   0.006833   0.009592     2.60142e-01     2.09200e-02
      9306       9311      1   0.006833  -0.013767     3.00055e-01     6.91943e-02
      9306       9309      1   0.006833   0.009592     2.60142e-01     2.09200e-02
      9306       9310      1   0.006833   0.009592     2.60142e-01     2.09200e-02
      9305       9312      1  -0.004386   0.008811     3.00055e-01     6.91943e-02
      9305       9313      1  -0.004386   0.008811     3.00055e-01     6.91943e-02
      9304       9308      1   0.011241  -0.023177     3.00055e-01     6.91943e-02
      9304       9306      1   0.011241   0.005694     2.60142e-01     2.09200e-02
      9304       9307      1   0.011241   0.005694     2.60142e-01     2.09200e-02
      9303       9308      1   0.011241  -0.023177     3.00055e-01     6.91943e-02
      9303       9306      1   0.011241   0.005694     2.60142e-01     2.09200e-02
      9303       9307      1   0.011241   0.005694     2.60142e-01     2.09200e-02
      9302       9309      1  -0.026451   0.009592     3.00055e-01     6.91943e-02
      9302       9310      1  -0.026451   0.009592     3.00055e-01     6.91943e-02
      9301       9305      1   0.010172  -0.003655     3.00055e-01     6.91943e-02
      9301       9304      1   0.010172   0.009367     2.60142e-01     2.09200e-02
      9301       9303      1   0.010172   0.009367     2.60142e-01     2.09200e-02
      9300       9305      1   0.010172  -0.003655     3.00055e-01     6.91943e-02
      9300       9304      1   0.010172   0.009367     2.60142e-01     2.09200e-02
      9300       9303      1   0.010172   0.009367     2.60142e-01     2.09200e-02
      9299       9306      1  -0.014653   0.005694     3.00055e-01     6.91943e-02
      9299       9307      1  -0.014653   0.005694     3.00055e-01     6.91943e-02
      9298       9302      1   0.010037  -0.022042     3.00055e-01     6.91943e-02
      9298       9300      1   0.010037   0.008477     2.60142e-01     2.09200e-02
      9298       9301      1   0.010037   0.008477     2.60142e-01     2.09200e-02
      9297       9302      1   0.010037  -0.022042     3.00055e-01     6.91943e-02
      9297       9300      1   0.010037   0.008477     2.60142e-01     2.09200e-02
      9297       9301      1   0.010037   0.008477     2.60142e-01     2.09200e-02
      9296       9304      1  -0.021025   0.009367     3.00055e-01     6.91943e-02
      9296       9303      1  -0.021025   0.009367     3.00055e-01     6.91943e-02
      9295       9299      1   0.012677  -0.012211     3.00055e-01     6.91943e-02
      9295       9298      1   0.012677   0.008364     2.60142e-01     2.09200e-02
      9295       9297      1   0.012677   0.008364     2.60142e-01     2.09200e-02
      9294       9299      1   0.012677  -0.012211     3.00055e-01     6.91943e-02
      9294       9298      1   0.012677   0.008364     2.60142e-01     2.09200e-02
      9294       9297      1   0.012677   0.008364     2.60142e-01     2.09200e-02
      9293       9300      1  -0.031787   0.008477     3.00055e-01     6.91943e-02
      9293       9301      1  -0.031787   0.008477     3.00055e-01     6.91943e-02
      9292       9296      1   0.017208  -0.017521     3.00055e-01     6.91943e-02
      9292       9294      1   0.017208   0.010564     2.60142e-01     2.09200e-02
      9292       9295      1   0.017208   0.010564     2.60142e-01     2.09200e-02
      9291       9296      1   0.017208  -0.017521     3.00055e-01     6.91943e-02
      9291       9294      1   0.017208   0.010564     2.60142e-01     2.09200e-02
      9291       9295      1   0.017208   0.010564     2.60142e-01     2.09200e-02
      9290       9298      1  -0.028094   0.008364     3.00055e-01     6.91943e-02
      9290       9297      1  -0.028094   0.008364     3.00055e-01     6.91943e-02
      9289       9293      1   0.007531  -0.026489     3.00055e-01     6.91943e-02
      9289       9292      1   0.007531   0.014340     2.60142e-01     2.09200e-02
      9289       9291      1   0.007531   0.014340     2.60142e-01     2.09200e-02
      9288       9293      1   0.007531  -0.026489     3.00055e-01     6.91943e-02
      9288       9292      1   0.007531   0.014340     2.60142e-01     2.09200e-02
      9288       9291      1   0.007531   0.014340     2.60142e-01     2.09200e-02
      9287       9294      1   0.017463   0.010564     3.00055e-01     6.91943e-02
      9287       9295      1   0.017463   0.010564     3.00055e-01     6.91943e-02
      9286       9290      1   0.025511  -0.023412     3.00055e-01     6.91943e-02
      9286       9288      1   0.025511   0.006276     2.60142e-01     2.09200e-02
      9286       9289      1   0.025511   0.006276     2.60142e-01     2.09200e-02
      9285       9290      1   0.025511  -0.023412     3.00055e-01     6.91943e-02
      9285       9288      1   0.025511   0.006276     2.60142e-01     2.09200e-02
      9285       9289      1   0.025511   0.006276     2.60142e-01     2.09200e-02
      9284       9292      1  -0.111712   0.014340     3.00055e-01     6.91943e-02
      9284       9291      1  -0.111712   0.014340     3.00055e-01     6.91943e-02
      9283       9290      1   0.025511  -0.023412     3.00055e-01     6.91943e-02
      9283       9288      1   0.025511   0.006276     2.60142e-01     2.09200e-02
      9283       9289      1   0.025511   0.006276     2.60142e-01     2.09200e-02
      9362       9364      1   0.053944  -0.559638     2.78067e-01     9.58675e-02
      9362       9365      1   0.053944  -0.479574     2.80072e-01     8.62554e-02
      9361       9364      1   0.053944  -0.559638     2.78067e-01     9.58675e-02
      9361       9365      1   0.053944  -0.479574     2.80072e-01     8.62554e-02
      9359       9362      1   0.018859   0.044953     2.60142e-01     2.09200e-02
      9359       9361      1   0.018859   0.044953     2.60142e-01     2.09200e-02
      9359       9363      1   0.018859   0.758669     3.00055e-01     6.13495e-02
      9358       9362      1   0.018859   0.044953     2.60142e-01     2.09200e-02
      9358       9361      1   0.018859   0.044953     2.60142e-01     2.09200e-02
      9358       9363      1   0.018859   0.758669     3.00055e-01     6.13495e-02
      9356       9360      1   0.020431  -0.136833     3.00055e-01     6.91943e-02
      9356       9359      1   0.020431   0.015716     2.60142e-01     2.09200e-02
      9356       9358      1   0.020431   0.015716     2.60142e-01     2.09200e-02
      9355       9360      1   0.020431  -0.136833     3.00055e-01     6.91943e-02
      9355       9359      1   0.020431   0.015716     2.60142e-01     2.09200e-02
      9355       9358      1   0.020431   0.015716     2.60142e-01     2.09200e-02
      9354       9362      1  -0.026954   0.044953     3.00055e-01     6.91943e-02
      9354       9361      1  -0.026954   0.044953     3.00055e-01     6.91943e-02
      9353       9357      1   0.010573  -0.002029     3.00055e-01     6.91943e-02
      9353       9356      1   0.010573   0.017026     2.60142e-01     2.09200e-02
      9353       9355      1   0.010573   0.017026     2.60142e-01     2.09200e-02
      9352       9357      1   0.010573  -0.002029     3.00055e-01     6.91943e-02
      9352       9356      1   0.010573   0.017026     2.60142e-01     2.09200e-02
      9352       9355      1   0.010573   0.017026     2.60142e-01     2.09200e-02
      9351       9359      1  -0.016521   0.015716     3.00055e-01     6.91943e-02
      9351       9358      1  -0.016521   0.015716     3.00055e-01     6.91943e-02
      9350       9354      1   0.011511  -0.022462     3.00055e-01     6.91943e-02
      9350       9352      1   0.011511   0.008811     2.60142e-01     2.09200e-02
      9350       9353      1   0.011511   0.008811     2.60142e-01     2.09200e-02
      9349       9354      1   0.011511  -0.022462     3.00055e-01     6.91943e-02
      9349       9352      1   0.011511   0.008811     2.60142e-01     2.09200e-02
      9349       9353      1   0.011511   0.008811     2.60142e-01     2.09200e-02
      9348       9356      1  -0.027812   0.017026     3.00055e-01     6.91943e-02
      9348       9355      1  -0.027812   0.017026     3.00055e-01     6.91943e-02
      9347       9351      1   0.006833  -0.013767     3.00055e-01     6.91943e-02
      9347       9349      1   0.006833   0.009592     2.60142e-01     2.09200e-02
      9347       9350      1   0.006833   0.009592     2.60142e-01     2.09200e-02
      9346       9351      1   0.006833  -0.013767     3.00055e-01     6.91943e-02
      9346       9349      1   0.006833   0.009592     2.60142e-01     2.09200e-02
      9346       9350      1   0.006833   0.009592     2.60142e-01     2.09200e-02
      9345       9352      1  -0.004386   0.008811     3.00055e-01     6.91943e-02
      9345       9353      1  -0.004386   0.008811     3.00055e-01     6.91943e-02
      9344       9348      1   0.011241  -0.023177     3.00055e-01     6.91943e-02
      9344       9346      1   0.011241   0.005694     2.60142e-01     2.09200e-02
      9344       9347      1   0.011241   0.005694     2.60142e-01     2.09200e-02
      9343       9348      1   0.011241  -0.023177     3.00055e-01     6.91943e-02
      9343       9346      1   0.011241   0.005694     2.60142e-01     2.09200e-02
      9343       9347      1   0.011241   0.005694     2.60142e-01     2.09200e-02
      9342       9349      1  -0.026451   0.009592     3.00055e-01     6.91943e-02
      9342       9350      1  -0.026451   0.009592     3.00055e-01     6.91943e-02
      9341       9345      1   0.010172  -0.003655     3.00055e-01     6.91943e-02
      9341       9344      1   0.010172   0.009367     2.60142e-01     2.09200e-02
      9341       9343      1   0.010172   0.009367     2.60142e-01     2.09200e-02
      9340       9345      1   0.010172  -0.003655     3.00055e-01     6.91943e-02
      9340       9344      1   0.010172   0.009367     2.60142e-01     2.09200e-02
      9340       9343      1   0.010172   0.009367     2.60142e-01     2.09200e-02
      9339       9346      1  -0.014653   0.005694     3.00055e-01     6.91943e-02
      9339       9347      1  -0.014653   0.005694     3.00055e-01     6.91943e-02
      9338       9342      1   0.010037  -0.022042     3.00055e-01     6.91943e-02
      9338       9340      1   0.010037   0.008477     2.60142e-01     2.09200e-02
      9338       9341      1   0.010037   0.008477     2.60142e-01     2.09200e-02
      9337       9342      1   0.010037  -0.022042     3.00055e-01     6.91943e-02
      9337       9340      1   0.010037   0.008477     2.60142e-01     2.09200e-02
      9337       9341      1   0.010037   0.008477     2.60142e-01     2.09200e-02
      9336       9344      1  -0.021025   0.009367     3.00055e-01     6.91943e-02
      9336       9343      1  -0.021025   0.009367     3.00055e-01     6.91943e-02
      9335       9339      1   0.012677  -0.012211     3.00055e-01     6.91943e-02
      9335       9338      1   0.012677   0.008364     2.60142e-01     2.09200e-02
      9335       9337      1   0.012677   0.008364     2.60142e-01     2.09200e-02
      9334       9339      1   0.012677  -0.012211     3.00055e-01     6.91943e-02
      9334       9338      1   0.012677   0.008364     2.60142e-01     2.09200e-02
      9334       9337      1   0.012677   0.008364     2.60142e-01     2.09200e-02
      9333       9340      1  -0.031787   0.008477     3.00055e-01     6.91943e-02
      9333       9341      1  -0.031787   0.008477     3.00055e-01     6.91943e-02
      9332       9336      1   0.017208  -0.017521     3.00055e-01     6.91943e-02
      9332       9334      1   0.017208   0.010564     2.60142e-01     2.09200e-02
      9332       9335      1   0.017208   0.010564     2.60142e-01     2.09200e-02
      9331       9336      1   0.017208  -0.017521     3.00055e-01     6.91943e-02
      9331       9334      1   0.017208   0.010564     2.60142e-01     2.09200e-02
      9331       9335      1   0.017208   0.010564     2.60142e-01     2.09200e-02
      9330       9338      1  -0.028094   0.008364     3.00055e-01     6.91943e-02
      9330       9337      1  -0.028094   0.008364     3.00055e-01     6.91943e-02
      9329       9333      1   0.007531  -0.026489     3.00055e-01     6.91943e-02
      9329       9332      1   0.007531   0.014340     2.60142e-01     2.09200e-02
      9329       9331      1   0.007531   0.014340     2.60142e-01     2.09200e-02
      9328       9333      1   0.007531  -0.026489     3.00055e-01     6.91943e-02
      9328       9332      1   0.007531   0.014340     2.60142e-01     2.09200e-02
      9328       9331      1   0.007531   0.014340     2.60142e-01     2.09200e-02
      9327       9334      1   0.017463   0.010564     3.00055e-01     6.91943e-02
      9327       9335      1   0.017463   0.010564     3.00055e-01     6.91943e-02
      9326       9330      1   0.025511  -0.023412     3.00055e-01     6.91943e-02
      9326       9328      1   0.025511   0.006276     2.60142e-01     2.09200e-02
      9326       9329      1   0.025511   0.006276     2.60142e-01     2.09200e-02
      9325       9330      1   0.025511  -0.023412     3.00055e-01     6.91943e-02
      9325       9328      1   0.025511   0.006276     2.60142e-01     2.09200e-02
      9325       9329      1   0.025511   0.006276     2.60142e-01     2.09200e-02
      9324       9332      1  -0.111712   0.014340     3.00055e-01     6.91943e-02
      9324       9331      1  -0.111712   0.014340     3.00055e-01     6.91943e-02
      9323       9330      1   0.025511  -0.023412     3.00055e-01     6.91943e-02
      9323       9328      1   0.025511   0.006276     2.60142e-01     2.09200e-02
      9323       9329      1   0.025511   0.006276     2.60142e-01     2.09200e-02
      9400       9440      1  -0.673755   0.044953     2.78067e-01     9.58675e-02
      9400       9439      1  -0.673755   0.044953     2.78067e-01     9.58675e-02
      9399       9437      1   0.897613   0.015716     3.00055e-01     6.13495e-02
      9399       9436      1   0.897613   0.015716     3.00055e-01     6.13495e-02
      9398       9440      1  -0.552948   0.044953     2.80072e-01     8.62554e-02
      9398       9439      1  -0.552948   0.044953     2.80072e-01     8.62554e-02
      9391       9392      1   0.172230  -0.282478     2.67982e-01     8.67002e-02
      9390       9392      1   0.172230  -0.282478     2.67982e-01     8.67002e-02
      9389       9392      1   0.172230  -0.282478     2.67982e-01     8.67002e-02
      9388       9393      1  -0.338973   0.143525     2.67982e-01     8.67002e-02
      9388       9394      1  -0.338973   0.143525     2.67982e-01     8.67002e-02
      9388       9395      1  -0.338973   0.143525     2.67982e-01     8.67002e-02
      9387       9388      1   0.172230  -0.282478     2.67982e-01     8.67002e-02
      9387       9392      1   0.172230  -0.282478     2.67982e-01     8.67002e-02
      9386       9388      1   0.172230  -0.282478     2.67982e-01     8.67002e-02
      9386       9392      1   0.172230  -0.282478     2.67982e-01     8.67002e-02
      9385       9388      1   0.172230  -0.282478     2.67982e-01     8.67002e-02
      9385       9392      1   0.172230  -0.282478     2.67982e-01     8.67002e-02
      9384       9389      1  -0.338973   0.143525     2.67982e-01     8.67002e-02
      9384       9390      1  -0.338973   0.143525     2.67982e-01     8.67002e-02
      9384       9391      1  -0.338973   0.143525     2.67982e-01     8.67002e-02
      9384       9393      1  -0.338973   0.143525     2.67982e-01     8.67002e-02
      9384       9394      1  -0.338973   0.143525     2.67982e-01     8.67002e-02
      9384       9395      1  -0.338973   0.143525     2.67982e-01     8.67002e-02
      9382       9384      1   0.136415  -0.282478     2.67982e-01     8.67002e-02
      9382       9388      1   0.136415  -0.282478     2.67982e-01     8.67002e-02
      9382       9392      1   0.136415  -0.282478     2.67982e-01     8.67002e-02
      9381       9384      1   0.136415  -0.282478     2.67982e-01     8.67002e-02
      9381       9388      1   0.136415  -0.282478     2.67982e-01     8.67002e-02
      9381       9392      1   0.136415  -0.282478     2.67982e-01     8.67002e-02
      9380       9385      1  -0.170824   0.143525     2.67982e-01     8.67002e-02
      9380       9386      1  -0.170824   0.143525     2.67982e-01     8.67002e-02
      9380       9387      1  -0.170824   0.143525     2.67982e-01     8.67002e-02
      9380       9389      1  -0.170824   0.143525     2.67982e-01     8.67002e-02
      9380       9390      1  -0.170824   0.143525     2.67982e-01     8.67002e-02
      9380       9391      1  -0.170824   0.143525     2.67982e-01     8.67002e-02
      9380       9393      1  -0.170824   0.143525     2.67982e-01     8.67002e-02
      9380       9394      1  -0.170824   0.143525     2.67982e-01     8.67002e-02
      9380       9395      1  -0.170824   0.143525     2.67982e-01     8.67002e-02
      9379       9381      1   0.078534   0.113679     2.21567e-01     3.28444e-02
      9379       9382      1   0.078534   0.113679     2.21567e-01     3.28444e-02
      9379       9383      1   0.078534   0.204385     2.86068e-01     1.08078e-01
      9378       9381      1   0.078534   0.113679     2.21567e-01     3.28444e-02
      9378       9382      1   0.078534   0.113679     2.21567e-01     3.28444e-02
      9378       9383      1   0.078534   0.204385     2.86068e-01     1.08078e-01
      9376       9381      1  -0.508176   0.113679     2.47999e-01     1.08078e-01
      9376       9382      1  -0.508176   0.113679     2.47999e-01     1.08078e-01
      9375       9378      1   1.339721   0.065445     3.10656e-01     1.17227e-01
      9375       9379      1   1.339721   0.065445     3.10656e-01     1.17227e-01
      9373       9398      1   0.095591  -0.460790     2.73568e-01     1.08078e-01
      9373       9375      1   0.095591   1.116434     3.10656e-01     1.17227e-01
      9372       9398      1   0.095591  -0.460790     2.73568e-01     1.08078e-01
      9372       9375      1   0.095591   1.116434     3.10656e-01     1.17227e-01
      9370       9372      1   0.063253   0.079659     2.47135e-01     3.28444e-02
      9370       9373      1   0.063253   0.079659     2.47135e-01     3.28444e-02
      9370       9374      1   0.063253  -0.424567     2.73568e-01     1.08078e-01
      9370       9399      1   0.063253   0.748011     2.93551e-01     7.68707e-02
      9368       9370      1   0.070469   0.052711     2.47135e-01     3.28444e-02
      9368       9371      1   0.070469   0.014549     2.93551e-01     8.67002e-02
      9368       9398      1   0.070469  -0.460790     2.73568e-01     1.08078e-01
      9367       9370      1   0.070469   0.052711     2.47135e-01     3.28444e-02
      9367       9371      1   0.070469   0.014549     2.93551e-01     8.67002e-02
      9367       9398      1   0.070469  -0.460790     2.73568e-01     1.08078e-01
      9366       9372      1   0.196939   0.079659     2.93551e-01     8.67002e-02
      9366       9373      1   0.196939   0.079659     2.93551e-01     8.67002e-02
      9365       9370      1  -0.575489   0.052711     2.73568e-01     1.08078e-01
      9363       9367      1   0.910403   0.058724     2.93551e-01     7.68707e-02
      9363       9368      1   0.910403   0.058724     2.93551e-01     7.68707e-02
      9437       9440      1   0.018859   0.044953     2.60142e-01     2.09200e-02
      9437       9439      1   0.018859   0.044953     2.60142e-01     2.09200e-02
      9436       9440      1   0.018859   0.044953     2.60142e-01     2.09200e-02
      9436       9439      1   0.018859   0.044953     2.60142e-01     2.09200e-02
      9434       9438      1   0.020431  -0.136833     3.00055e-01     6.91943e-02
      9434       9437      1   0.020431   0.015716     2.60142e-01     2.09200e-02
      9434       9436      1   0.020431   0.015716     2.60142e-01     2.09200e-02
      9433       9438      1   0.020431  -0.136833     3.00055e-01     6.91943e-02
      9433       9437      1   0.020431   0.015716     2.60142e-01     2.09200e-02
      9433       9436      1   0.020431   0.015716     2.60142e-01     2.09200e-02
      9432       9440      1  -0.026954   0.044953     3.00055e-01     6.91943e-02
      9432       9439      1  -0.026954   0.044953     3.00055e-01     6.91943e-02
      9431       9435      1   0.010573  -0.002029     3.00055e-01     6.91943e-02
      9431       9434      1   0.010573   0.017026     2.60142e-01     2.09200e-02
      9431       9433      1   0.010573   0.017026     2.60142e-01     2.09200e-02
      9430       9435      1   0.010573  -0.002029     3.00055e-01     6.91943e-02
      9430       9434      1   0.010573   0.017026     2.60142e-01     2.09200e-02
      9430       9433      1   0.010573   0.017026     2.60142e-01     2.09200e-02
      9429       9437      1  -0.016521   0.015716     3.00055e-01     6.91943e-02
      9429       9436      1  -0.016521   0.015716     3.00055e-01     6.91943e-02
      9428       9432      1   0.011511  -0.022462     3.00055e-01     6.91943e-02
      9428       9430      1   0.011511   0.008811     2.60142e-01     2.09200e-02
      9428       9431      1   0.011511   0.008811     2.60142e-01     2.09200e-02
      9427       9432      1   0.011511  -0.022462     3.00055e-01     6.91943e-02
      9427       9430      1   0.011511   0.008811     2.60142e-01     2.09200e-02
      9427       9431      1   0.011511   0.008811     2.60142e-01     2.09200e-02
      9426       9434      1  -0.027812   0.017026     3.00055e-01     6.91943e-02
      9426       9433      1  -0.027812   0.017026     3.00055e-01     6.91943e-02
      9425       9429      1   0.006833  -0.013767     3.00055e-01     6.91943e-02
      9425       9427      1   0.006833   0.009592     2.60142e-01     2.09200e-02
      9425       9428      1   0.006833   0.009592     2.60142e-01     2.09200e-02
      9424       9429      1   0.006833  -0.013767     3.00055e-01     6.91943e-02
      9424       9427      1   0.006833   0.009592     2.60142e-01     2.09200e-02
      9424       9428      1   0.006833   0.009592     2.60142e-01     2.09200e-02
      9423       9430      1  -0.004386   0.008811     3.00055e-01     6.91943e-02
      9423       9431      1  -0.004386   0.008811     3.00055e-01     6.91943e-02
      9422       9426      1   0.011241  -0.023177     3.00055e-01     6.91943e-02
      9422       9424      1   0.011241   0.005694     2.60142e-01     2.09200e-02
      9422       9425      1   0.011241   0.005694     2.60142e-01     2.09200e-02
      9421       9426      1   0.011241  -0.023177     3.00055e-01     6.91943e-02
      9421       9424      1   0.011241   0.005694     2.60142e-01     2.09200e-02
      9421       9425      1   0.011241   0.005694     2.60142e-01     2.09200e-02
      9420       9427      1  -0.026451   0.009592     3.00055e-01     6.91943e-02
      9420       9428      1  -0.026451   0.009592     3.00055e-01     6.91943e-02
      9419       9423      1   0.010172  -0.003655     3.00055e-01     6.91943e-02
      9419       9422      1   0.010172   0.009367     2.60142e-01     2.09200e-02
      9419       9421      1   0.010172   0.009367     2.60142e-01     2.09200e-02
      9418       9423      1   0.010172  -0.003655     3.00055e-01     6.91943e-02
      9418       9422      1   0.010172   0.009367     2.60142e-01     2.09200e-02
      9418       9421      1   0.010172   0.009367     2.60142e-01     2.09200e-02
      9417       9424      1  -0.014653   0.005694     3.00055e-01     6.91943e-02
      9417       9425      1  -0.014653   0.005694     3.00055e-01     6.91943e-02
      9416       9420      1   0.010037  -0.022042     3.00055e-01     6.91943e-02
      9416       9418      1   0.010037   0.008477     2.60142e-01     2.09200e-02
      9416       9419      1   0.010037   0.008477     2.60142e-01     2.09200e-02
      9415       9420      1   0.010037  -0.022042     3.00055e-01     6.91943e-02
      9415       9418      1   0.010037   0.008477     2.60142e-01     2.09200e-02
      9415       9419      1   0.010037   0.008477     2.60142e-01     2.09200e-02
      9414       9422      1  -0.021025   0.009367     3.00055e-01     6.91943e-02
      9414       9421      1  -0.021025   0.009367     3.00055e-01     6.91943e-02
      9413       9417      1   0.012677  -0.012211     3.00055e-01     6.91943e-02
      9413       9416      1   0.012677   0.008364     2.60142e-01     2.09200e-02
      9413       9415      1   0.012677   0.008364     2.60142e-01     2.09200e-02
      9412       9417      1   0.012677  -0.012211     3.00055e-01     6.91943e-02
      9412       9416      1   0.012677   0.008364     2.60142e-01     2.09200e-02
      9412       9415      1   0.012677   0.008364     2.60142e-01     2.09200e-02
      9411       9418      1  -0.031787   0.008477     3.00055e-01     6.91943e-02
      9411       9419      1  -0.031787   0.008477     3.00055e-01     6.91943e-02
      9410       9414      1   0.017208  -0.017521     3.00055e-01     6.91943e-02
      9410       9412      1   0.017208   0.010564     2.60142e-01     2.09200e-02
      9410       9413      1   0.017208   0.010564     2.60142e-01     2.09200e-02
      9409       9414      1   0.017208  -0.017521     3.00055e-01     6.91943e-02
      9409       9412      1   0.017208   0.010564     2.60142e-01     2.09200e-02
      9409       9413      1   0.017208   0.010564     2.60142e-01     2.09200e-02
      9408       9416      1  -0.028094   0.008364     3.00055e-01     6.91943e-02
      9408       9415      1  -0.028094   0.008364     3.00055e-01     6.91943e-02
      9407       9411      1   0.007531  -0.026489     3.00055e-01     6.91943e-02
      9407       9410      1   0.007531   0.014340     2.60142e-01     2.09200e-02
      9407       9409      1   0.007531   0.014340     2.60142e-01     2.09200e-02
      9406       9411      1   0.007531  -0.026489     3.00055e-01     6.91943e-02
      9406       9410      1   0.007531   0.014340     2.60142e-01     2.09200e-02
      9406       9409      1   0.007531   0.014340     2.60142e-01     2.09200e-02
      9405       9412      1   0.017463   0.010564     3.00055e-01     6.91943e-02
      9405       9413      1   0.017463   0.010564     3.00055e-01     6.91943e-02
      9404       9408      1   0.025511  -0.023412     3.00055e-01     6.91943e-02
      9404       9406      1   0.025511   0.006276     2.60142e-01     2.09200e-02
      9404       9407      1   0.025511   0.006276     2.60142e-01     2.09200e-02
      9403       9408      1   0.025511  -0.023412     3.00055e-01     6.91943e-02
      9403       9406      1   0.025511   0.006276     2.60142e-01     2.09200e-02
      9403       9407      1   0.025511   0.006276     2.60142e-01     2.09200e-02
      9402       9410      1  -0.111712   0.014340     3.00055e-01     6.91943e-02
      9402       9409      1  -0.111712   0.014340     3.00055e-01     6.91943e-02
      9401       9408      1   0.025511  -0.023412     3.00055e-01     6.91943e-02
      9401       9406      1   0.025511   0.006276     2.60142e-01     2.09200e-02
      9401       9407      1   0.025511   0.006276     2.60142e-01     2.09200e-02
      9480       9482      1   0.053944  -0.559638     2.78067e-01     9.58675e-02
      9480       9483      1   0.053944  -0.479574     2.80072e-01     8.62554e-02
      9479       9482      1   0.053944  -0.559638     2.78067e-01     9.58675e-02
      9479       9483      1   0.053944  -0.479574     2.80072e-01     8.62554e-02
      9477       9480      1   0.018859   0.044953     2.60142e-01     2.09200e-02
      9477       9479      1   0.018859   0.044953     2.60142e-01     2.09200e-02
      9477       9481      1   0.018859   0.758669     3.00055e-01     6.13495e-02
      9476       9480      1   0.018859   0.044953     2.60142e-01     2.09200e-02
      9476       9479      1   0.018859   0.044953     2.60142e-01     2.09200e-02
      9476       9481      1   0.018859   0.758669     3.00055e-01     6.13495e-02
      9474       9478      1   0.020431  -0.136833     3.00055e-01     6.91943e-02
      9474       9477      1   0.020431   0.015716     2.60142e-01     2.09200e-02
      9474       9476      1   0.020431   0.015716     2.60142e-01     2.09200e-02
      9473       9478      1   0.020431  -0.136833     3.00055e-01     6.91943e-02
      9473       9477      1   0.020431   0.015716     2.60142e-01     2.09200e-02
      9473       9476      1   0.020431   0.015716     2.60142e-01     2.09200e-02
      9472       9480      1  -0.026954   0.044953     3.00055e-01     6.91943e-02
      9472       9479      1  -0.026954   0.044953     3.00055e-01     6.91943e-02
      9471       9475      1   0.010573  -0.002029     3.00055e-01     6.91943e-02
      9471       9474      1   0.010573   0.017026     2.60142e-01     2.09200e-02
      9471       9473      1   0.010573   0.017026     2.60142e-01     2.09200e-02
      9470       9475      1   0.010573  -0.002029     3.00055e-01     6.91943e-02
      9470       9474      1   0.010573   0.017026     2.60142e-01     2.09200e-02
      9470       9473      1   0.010573   0.017026     2.60142e-01     2.09200e-02
      9469       9477      1  -0.016521   0.015716     3.00055e-01     6.91943e-02
      9469       9476      1  -0.016521   0.015716     3.00055e-01     6.91943e-02
      9468       9472      1   0.011511  -0.022462     3.00055e-01     6.91943e-02
      9468       9470      1   0.011511   0.008811     2.60142e-01     2.09200e-02
      9468       9471      1   0.011511   0.008811     2.60142e-01     2.09200e-02
      9467       9472      1   0.011511  -0.022462     3.00055e-01     6.91943e-02
      9467       9470      1   0.011511   0.008811     2.60142e-01     2.09200e-02
      9467       9471      1   0.011511   0.008811     2.60142e-01     2.09200e-02
      9466       9474      1  -0.027812   0.017026     3.00055e-01     6.91943e-02
      9466       9473      1  -0.027812   0.017026     3.00055e-01     6.91943e-02
      9465       9469      1   0.006833  -0.013767     3.00055e-01     6.91943e-02
      9465       9467      1   0.006833   0.009592     2.60142e-01     2.09200e-02
      9465       9468      1   0.006833   0.009592     2.60142e-01     2.09200e-02
      9464       9469      1   0.006833  -0.013767     3.00055e-01     6.91943e-02
      9464       9467      1   0.006833   0.009592     2.60142e-01     2.09200e-02
      9464       9468      1   0.006833   0.009592     2.60142e-01     2.09200e-02
      9463       9470      1  -0.004386   0.008811     3.00055e-01     6.91943e-02
      9463       9471      1  -0.004386   0.008811     3.00055e-01     6.91943e-02
      9462       9466      1   0.011241  -0.023177     3.00055e-01     6.91943e-02
      9462       9464      1   0.011241   0.005694     2.60142e-01     2.09200e-02
      9462       9465      1   0.011241   0.005694     2.60142e-01     2.09200e-02
      9461       9466      1   0.011241  -0.023177     3.00055e-01     6.91943e-02
      9461       9464      1   0.011241   0.005694     2.60142e-01     2.09200e-02
      9461       9465      1   0.011241   0.005694     2.60142e-01     2.09200e-02
      9460       9467      1  -0.026451   0.009592     3.00055e-01     6.91943e-02
      9460       9468      1  -0.026451   0.009592     3.00055e-01     6.91943e-02
      9459       9463      1   0.010172  -0.003655     3.00055e-01     6.91943e-02
      9459       9462      1   0.010172   0.009367     2.60142e-01     2.09200e-02
      9459       9461      1   0.010172   0.009367     2.60142e-01     2.09200e-02
      9458       9463      1   0.010172  -0.003655     3.00055e-01     6.91943e-02
      9458       9462      1   0.010172   0.009367     2.60142e-01     2.09200e-02
      9458       9461      1   0.010172   0.009367     2.60142e-01     2.09200e-02
      9457       9464      1  -0.014653   0.005694     3.00055e-01     6.91943e-02
      9457       9465      1  -0.014653   0.005694     3.00055e-01     6.91943e-02
      9456       9460      1   0.010037  -0.022042     3.00055e-01     6.91943e-02
      9456       9458      1   0.010037   0.008477     2.60142e-01     2.09200e-02
      9456       9459      1   0.010037   0.008477     2.60142e-01     2.09200e-02
      9455       9460      1   0.010037  -0.022042     3.00055e-01     6.91943e-02
      9455       9458      1   0.010037   0.008477     2.60142e-01     2.09200e-02
      9455       9459      1   0.010037   0.008477     2.60142e-01     2.09200e-02
      9454       9462      1  -0.021025   0.009367     3.00055e-01     6.91943e-02
      9454       9461      1  -0.021025   0.009367     3.00055e-01     6.91943e-02
      9453       9457      1   0.012677  -0.012211     3.00055e-01     6.91943e-02
      9453       9456      1   0.012677   0.008364     2.60142e-01     2.09200e-02
      9453       9455      1   0.012677   0.008364     2.60142e-01     2.09200e-02
      9452       9457      1   0.012677  -0.012211     3.00055e-01     6.91943e-02
      9452       9456      1   0.012677   0.008364     2.60142e-01     2.09200e-02
      9452       9455      1   0.012677   0.008364     2.60142e-01     2.09200e-02
      9451       9458      1  -0.031787   0.008477     3.00055e-01     6.91943e-02
      9451       9459      1  -0.031787   0.008477     3.00055e-01     6.91943e-02
      9450       9454      1   0.017208  -0.017521     3.00055e-01     6.91943e-02
      9450       9452      1   0.017208   0.010564     2.60142e-01     2.09200e-02
      9450       9453      1   0.017208   0.010564     2.60142e-01     2.09200e-02
      9449       9454      1   0.017208  -0.017521     3.00055e-01     6.91943e-02
      9449       9452      1   0.017208   0.010564     2.60142e-01     2.09200e-02
      9449       9453      1   0.017208   0.010564     2.60142e-01     2.09200e-02
      9448       9456      1  -0.028094   0.008364     3.00055e-01     6.91943e-02
      9448       9455      1  -0.028094   0.008364     3.00055e-01     6.91943e-02
      9447       9451      1   0.007531  -0.026489     3.00055e-01     6.91943e-02
      9447       9450      1   0.007531   0.014340     2.60142e-01     2.09200e-02
      9447       9449      1   0.007531   0.014340     2.60142e-01     2.09200e-02
      9446       9451      1   0.007531  -0.026489     3.00055e-01     6.91943e-02
      9446       9450      1   0.007531   0.014340     2.60142e-01     2.09200e-02
      9446       9449      1   0.007531   0.014340     2.60142e-01     2.09200e-02
      9445       9452      1   0.017463   0.010564     3.00055e-01     6.91943e-02
      9445       9453      1   0.017463   0.010564     3.00055e-01     6.91943e-02
      9444       9448      1   0.025511  -0.023412     3.00055e-01     6.91943e-02
      9444       9446      1   0.025511   0.006276     2.60142e-01     2.09200e-02
      9444       9447      1   0.025511   0.006276     2.60142e-01     2.09200e-02
      9443       9448      1   0.025511  -0.023412     3.00055e-01     6.91943e-02
      9443       9446      1   0.025511   0.006276     2.60142e-01     2.09200e-02
      9443       9447      1   0.025511   0.006276     2.60142e-01     2.09200e-02
      9442       9450      1  -0.111712   0.014340     3.00055e-01     6.91943e-02
      9442       9449      1  -0.111712   0.014340     3.00055e-01     6.91943e-02
      9441       9448      1   0.025511  -0.023412     3.00055e-01     6.91943e-02
      9441       9446      1   0.025511   0.006276     2.60142e-01     2.09200e-02
      9441       9447      1   0.025511   0.006276     2.60142e-01     2.09200e-02
      9518       9558      1  -0.673755   0.044953     2.78067e-01     9.58675e-02
      9518       9557      1  -0.673755   0.044953     2.78067e-01     9.58675e-02
      9517       9555      1   0.897613   0.015716     3.00055e-01     6.13495e-02
      9517       9554      1   0.897613   0.015716     3.00055e-01     6.13495e-02
      9516       9558      1  -0.552948   0.044953     2.80072e-01     8.62554e-02
      9516       9557      1  -0.552948   0.044953     2.80072e-01     8.62554e-02
      9509       9510      1   0.172230  -0.282478     2.67982e-01     8.67002e-02
      9508       9510      1   0.172230  -0.282478     2.67982e-01     8.67002e-02
      9507       9510      1   0.172230  -0.282478     2.67982e-01     8.67002e-02
      9506       9511      1  -0.338973   0.143525     2.67982e-01     8.67002e-02
      9506       9512      1  -0.338973   0.143525     2.67982e-01     8.67002e-02
      9506       9513      1  -0.338973   0.143525     2.67982e-01     8.67002e-02
      9505       9506      1   0.172230  -0.282478     2.67982e-01     8.67002e-02
      9505       9510      1   0.172230  -0.282478     2.67982e-01     8.67002e-02
      9504       9506      1   0.172230  -0.282478     2.67982e-01     8.67002e-02
      9504       9510      1   0.172230  -0.282478     2.67982e-01     8.67002e-02
      9503       9506      1   0.172230  -0.282478     2.67982e-01     8.67002e-02
      9503       9510      1   0.172230  -0.282478     2.67982e-01     8.67002e-02
      9502       9507      1  -0.338973   0.143525     2.67982e-01     8.67002e-02
      9502       9508      1  -0.338973   0.143525     2.67982e-01     8.67002e-02
      9502       9509      1  -0.338973   0.143525     2.67982e-01     8.67002e-02
      9502       9511      1  -0.338973   0.143525     2.67982e-01     8.67002e-02
      9502       9512      1  -0.338973   0.143525     2.67982e-01     8.67002e-02
      9502       9513      1  -0.338973   0.143525     2.67982e-01     8.67002e-02
      9500       9502      1   0.136415  -0.282478     2.67982e-01     8.67002e-02
      9500       9506      1   0.136415  -0.282478     2.67982e-01     8.67002e-02
      9500       9510      1   0.136415  -0.282478     2.67982e-01     8.67002e-02
      9499       9502      1   0.136415  -0.282478     2.67982e-01     8.67002e-02
      9499       9506      1   0.136415  -0.282478     2.67982e-01     8.67002e-02
      9499       9510      1   0.136415  -0.282478     2.67982e-01     8.67002e-02
      9498       9503      1  -0.170824   0.143525     2.67982e-01     8.67002e-02
      9498       9504      1  -0.170824   0.143525     2.67982e-01     8.67002e-02
      9498       9505      1  -0.170824   0.143525     2.67982e-01     8.67002e-02
      9498       9507      1  -0.170824   0.143525     2.67982e-01     8.67002e-02
      9498       9508      1  -0.170824   0.143525     2.67982e-01     8.67002e-02
      9498       9509      1  -0.170824   0.143525     2.67982e-01     8.67002e-02
      9498       9511      1  -0.170824   0.143525     2.67982e-01     8.67002e-02
      9498       9512      1  -0.170824   0.143525     2.67982e-01     8.67002e-02
      9498       9513      1  -0.170824   0.143525     2.67982e-01     8.67002e-02
      9497       9499      1   0.078534   0.113679     2.21567e-01     3.28444e-02
      9497       9500      1   0.078534   0.113679     2.21567e-01     3.28444e-02
      9497       9501      1   0.078534   0.204385     2.86068e-01     1.08078e-01
      9496       9499      1   0.078534   0.113679     2.21567e-01     3.28444e-02
      9496       9500      1   0.078534   0.113679     2.21567e-01     3.28444e-02
      9496       9501      1   0.078534   0.204385     2.86068e-01     1.08078e-01
      9494       9499      1  -0.508176   0.113679     2.47999e-01     1.08078e-01
      9494       9500      1  -0.508176   0.113679     2.47999e-01     1.08078e-01
      9493       9496      1   1.339721   0.065445     3.10656e-01     1.17227e-01
      9493       9497      1   1.339721   0.065445     3.10656e-01     1.17227e-01
      9491       9516      1   0.095591  -0.460790     2.73568e-01     1.08078e-01
      9491       9493      1   0.095591   1.116434     3.10656e-01     1.17227e-01
      9490       9516      1   0.095591  -0.460790     2.73568e-01     1.08078e-01
      9490       9493      1   0.095591   1.116434     3.10656e-01     1.17227e-01
      9488       9490      1   0.063253   0.079659     2.47135e-01     3.28444e-02
      9488       9491      1   0.063253   0.079659     2.47135e-01     3.28444e-02
      9488       9492      1   0.063253  -0.424567     2.73568e-01     1.08078e-01
      9488       9517      1   0.063253   0.748011     2.93551e-01     7.68707e-02
      9486       9488      1   0.070469   0.052711     2.47135e-01     3.28444e-02
      9486       9489      1   0.070469   0.014549     2.93551e-01     8.67002e-02
      9486       9516      1   0.070469  -0.460790     2.73568e-01     1.08078e-01
      9485       9488      1   0.070469   0.052711     2.47135e-01     3.28444e-02
      9485       9489      1   0.070469   0.014549     2.93551e-01     8.67002e-02
      9485       9516      1   0.070469  -0.460790     2.73568e-01     1.08078e-01
      9484       9490      1   0.196939   0.079659     2.93551e-01     8.67002e-02
      9484       9491      1   0.196939   0.079659     2.93551e-01     8.67002e-02
      9483       9488      1  -0.575489   0.052711     2.73568e-01     1.08078e-01
      9481       9485      1   0.910403   0.058724     2.93551e-01     7.68707e-02
      9481       9486      1   0.910403   0.058724     2.93551e-01     7.68707e-02
      9555       9558      1   0.018859   0.044953     2.60142e-01     2.09200e-02
      9555       9557      1   0.018859   0.044953     2.60142e-01     2.09200e-02
      9554       9558      1   0.018859   0.044953     2.60142e-01     2.09200e-02
      9554       9557      1   0.018859   0.044953     2.60142e-01     2.09200e-02
      9552       9556      1   0.020431  -0.136833     3.00055e-01     6.91943e-02
      9552       9555      1   0.020431   0.015716     2.60142e-01     2.09200e-02
      9552       9554      1   0.020431   0.015716     2.60142e-01     2.09200e-02
      9551       9556      1   0.020431  -0.136833     3.00055e-01     6.91943e-02
      9551       9555      1   0.020431   0.015716     2.60142e-01     2.09200e-02
      9551       9554      1   0.020431   0.015716     2.60142e-01     2.09200e-02
      9550       9558      1  -0.026954   0.044953     3.00055e-01     6.91943e-02
      9550       9557      1  -0.026954   0.044953     3.00055e-01     6.91943e-02
      9549       9553      1   0.010573  -0.002029     3.00055e-01     6.91943e-02
      9549       9552      1   0.010573   0.017026     2.60142e-01     2.09200e-02
      9549       9551      1   0.010573   0.017026     2.60142e-01     2.09200e-02
      9548       9553      1   0.010573  -0.002029     3.00055e-01     6.91943e-02
      9548       9552      1   0.010573   0.017026     2.60142e-01     2.09200e-02
      9548       9551      1   0.010573   0.017026     2.60142e-01     2.09200e-02
      9547       9555      1  -0.016521   0.015716     3.00055e-01     6.91943e-02
      9547       9554      1  -0.016521   0.015716     3.00055e-01     6.91943e-02
      9546       9550      1   0.011511  -0.022462     3.00055e-01     6.91943e-02
      9546       9548      1   0.011511   0.008811     2.60142e-01     2.09200e-02
      9546       9549      1   0.011511   0.008811     2.60142e-01     2.09200e-02
      9545       9550      1   0.011511  -0.022462     3.00055e-01     6.91943e-02
      9545       9548      1   0.011511   0.008811     2.60142e-01     2.09200e-02
      9545       9549      1   0.011511   0.008811     2.60142e-01     2.09200e-02
      9544       9552      1  -0.027812   0.017026     3.00055e-01     6.91943e-02
      9544       9551      1  -0.027812   0.017026     3.00055e-01     6.91943e-02
      9543       9547      1   0.006833  -0.013767     3.00055e-01     6.91943e-02
      9543       9545      1   0.006833   0.009592     2.60142e-01     2.09200e-02
      9543       9546      1   0.006833   0.009592     2.60142e-01     2.09200e-02
      9542       9547      1   0.006833  -0.013767     3.00055e-01     6.91943e-02
      9542       9545      1   0.006833   0.009592     2.60142e-01     2.09200e-02
      9542       9546      1   0.006833   0.009592     2.60142e-01     2.09200e-02
      9541       9548      1  -0.004386   0.008811     3.00055e-01     6.91943e-02
      9541       9549      1  -0.004386   0.008811     3.00055e-01     6.91943e-02
      9540       9544      1   0.011241  -0.023177     3.00055e-01     6.91943e-02
      9540       9542      1   0.011241   0.005694     2.60142e-01     2.09200e-02
      9540       9543      1   0.011241   0.005694     2.60142e-01     2.09200e-02
      9539       9544      1   0.011241  -0.023177     3.00055e-01     6.91943e-02
      9539       9542      1   0.011241   0.005694     2.60142e-01     2.09200e-02
      9539       9543      1   0.011241   0.005694     2.60142e-01     2.09200e-02
      9538       9545      1  -0.026451   0.009592     3.00055e-01     6.91943e-02
      9538       9546      1  -0.026451   0.009592     3.00055e-01     6.91943e-02
      9537       9541      1   0.010172  -0.003655     3.00055e-01     6.91943e-02
      9537       9540      1   0.010172   0.009367     2.60142e-01     2.09200e-02
      9537       9539      1   0.010172   0.009367     2.60142e-01     2.09200e-02
      9536       9541      1   0.010172  -0.003655     3.00055e-01     6.91943e-02
      9536       9540      1   0.010172   0.009367     2.60142e-01     2.09200e-02
      9536       9539      1   0.010172   0.009367     2.60142e-01     2.09200e-02
      9535       9542      1  -0.014653   0.005694     3.00055e-01     6.91943e-02
      9535       9543      1  -0.014653   0.005694     3.00055e-01     6.91943e-02
      9534       9538      1   0.010037  -0.022042     3.00055e-01     6.91943e-02
      9534       9536      1   0.010037   0.008477     2.60142e-01     2.09200e-02
      9534       9537      1   0.010037   0.008477     2.60142e-01     2.09200e-02
      9533       9538      1   0.010037  -0.022042     3.00055e-01     6.91943e-02
      9533       9536      1   0.010037   0.008477     2.60142e-01     2.09200e-02
      9533       9537      1   0.010037   0.008477     2.60142e-01     2.09200e-02
      9532       9540      1  -0.021025   0.009367     3.00055e-01     6.91943e-02
      9532       9539      1  -0.021025   0.009367     3.00055e-01     6.91943e-02
      9531       9535      1   0.012677  -0.012211     3.00055e-01     6.91943e-02
      9531       9534      1   0.012677   0.008364     2.60142e-01     2.09200e-02
      9531       9533      1   0.012677   0.008364     2.60142e-01     2.09200e-02
      9530       9535      1   0.012677  -0.012211     3.00055e-01     6.91943e-02
      9530       9534      1   0.012677   0.008364     2.60142e-01     2.09200e-02
      9530       9533      1   0.012677   0.008364     2.60142e-01     2.09200e-02
      9529       9536      1  -0.031787   0.008477     3.00055e-01     6.91943e-02
      9529       9537      1  -0.031787   0.008477     3.00055e-01     6.91943e-02
      9528       9532      1   0.017208  -0.017521     3.00055e-01     6.91943e-02
      9528       9530      1   0.017208   0.010564     2.60142e-01     2.09200e-02
      9528       9531      1   0.017208   0.010564     2.60142e-01     2.09200e-02
      9527       9532      1   0.017208  -0.017521     3.00055e-01     6.91943e-02
      9527       9530      1   0.017208   0.010564     2.60142e-01     2.09200e-02
      9527       9531      1   0.017208   0.010564     2.60142e-01     2.09200e-02
      9526       9534      1  -0.028094   0.008364     3.00055e-01     6.91943e-02
      9526       9533      1  -0.028094   0.008364     3.00055e-01     6.91943e-02
      9525       9529      1   0.007531  -0.026489     3.00055e-01     6.91943e-02
      9525       9528      1   0.007531   0.014340     2.60142e-01     2.09200e-02
      9525       9527      1   0.007531   0.014340     2.60142e-01     2.09200e-02
      9524       9529      1   0.007531  -0.026489     3.00055e-01     6.91943e-02
      9524       9528      1   0.007531   0.014340     2.60142e-01     2.09200e-02
      9524       9527      1   0.007531   0.014340     2.60142e-01     2.09200e-02
      9523       9530      1   0.017463   0.010564     3.00055e-01     6.91943e-02
      9523       9531      1   0.017463   0.010564     3.00055e-01     6.91943e-02
      9522       9526      1   0.025511  -0.023412     3.00055e-01     6.91943e-02
      9522       9524      1   0.025511   0.006276     2.60142e-01     2.09200e-02
      9522       9525      1   0.025511   0.006276     2.60142e-01     2.09200e-02
      9521       9526      1   0.025511  -0.023412     3.00055e-01     6.91943e-02
      9521       9524      1   0.025511   0.006276     2.60142e-01     2.09200e-02
      9521       9525      1   0.025511   0.006276     2.60142e-01     2.09200e-02
      9520       9528      1  -0.111712   0.014340     3.00055e-01     6.91943e-02
      9520       9527      1  -0.111712   0.014340     3.00055e-01     6.91943e-02
      9519       9526      1   0.025511  -0.023412     3.00055e-01     6.91943e-02
      9519       9524      1   0.025511   0.006276     2.60142e-01     2.09200e-02
      9519       9525      1   0.025511   0.006276     2.60142e-01     2.09200e-02
      9598       9600      1   0.053944  -0.559638     2.78067e-01     9.58675e-02
      9598       9601      1   0.053944  -0.479574     2.80072e-01     8.62554e-02
      9597       9600      1   0.053944  -0.559638     2.78067e-01     9.58675e-02
      9597       9601      1   0.053944  -0.479574     2.80072e-01     8.62554e-02
      9595       9598      1   0.018859   0.044953     2.60142e-01     2.09200e-02
      9595       9597      1   0.018859   0.044953     2.60142e-01     2.09200e-02
      9595       9599      1   0.018859   0.758669     3.00055e-01     6.13495e-02
      9594       9598      1   0.018859   0.044953     2.60142e-01     2.09200e-02
      9594       9597      1   0.018859   0.044953     2.60142e-01     2.09200e-02
      9594       9599      1   0.018859   0.758669     3.00055e-01     6.13495e-02
      9592       9596      1   0.020431  -0.136833     3.00055e-01     6.91943e-02
      9592       9595      1   0.020431   0.015716     2.60142e-01     2.09200e-02
      9592       9594      1   0.020431   0.015716     2.60142e-01     2.09200e-02
      9591       9596      1   0.020431  -0.136833     3.00055e-01     6.91943e-02
      9591       9595      1   0.020431   0.015716     2.60142e-01     2.09200e-02
      9591       9594      1   0.020431   0.015716     2.60142e-01     2.09200e-02
      9590       9598      1  -0.026954   0.044953     3.00055e-01     6.91943e-02
      9590       9597      1  -0.026954   0.044953     3.00055e-01     6.91943e-02
      9589       9593      1   0.010573  -0.002029     3.00055e-01     6.91943e-02
      9589       9592      1   0.010573   0.017026     2.60142e-01     2.09200e-02
      9589       9591      1   0.010573   0.017026     2.60142e-01     2.09200e-02
      9588       9593      1   0.010573  -0.002029     3.00055e-01     6.91943e-02
      9588       9592      1   0.010573   0.017026     2.60142e-01     2.09200e-02
      9588       9591      1   0.010573   0.017026     2.60142e-01     2.09200e-02
      9587       9595      1  -0.016521   0.015716     3.00055e-01     6.91943e-02
      9587       9594      1  -0.016521   0.015716     3.00055e-01     6.91943e-02
      9586       9590      1   0.011511  -0.022462     3.00055e-01     6.91943e-02
      9586       9588      1   0.011511   0.008811     2.60142e-01     2.09200e-02
      9586       9589      1   0.011511   0.008811     2.60142e-01     2.09200e-02
      9585       9590      1   0.011511  -0.022462     3.00055e-01     6.91943e-02
      9585       9588      1   0.011511   0.008811     2.60142e-01     2.09200e-02
      9585       9589      1   0.011511   0.008811     2.60142e-01     2.09200e-02
      9584       9592      1  -0.027812   0.017026     3.00055e-01     6.91943e-02
      9584       9591      1  -0.027812   0.017026     3.00055e-01     6.91943e-02
      9583       9587      1   0.006833  -0.013767     3.00055e-01     6.91943e-02
      9583       9585      1   0.006833   0.009592     2.60142e-01     2.09200e-02
      9583       9586      1   0.006833   0.009592     2.60142e-01     2.09200e-02
      9582       9587      1   0.006833  -0.013767     3.00055e-01     6.91943e-02
      9582       9585      1   0.006833   0.009592     2.60142e-01     2.09200e-02
      9582       9586      1   0.006833   0.009592     2.60142e-01     2.09200e-02
      9581       9588      1  -0.004386   0.008811     3.00055e-01     6.91943e-02
      9581       9589      1  -0.004386   0.008811     3.00055e-01     6.91943e-02
      9580       9584      1   0.011241  -0.023177     3.00055e-01     6.91943e-02
      9580       9582      1   0.011241   0.005694     2.60142e-01     2.09200e-02
      9580       9583      1   0.011241   0.005694     2.60142e-01     2.09200e-02
      9579       9584      1   0.011241  -0.023177     3.00055e-01     6.91943e-02
      9579       9582      1   0.011241   0.005694     2.60142e-01     2.09200e-02
      9579       9583      1   0.011241   0.005694     2.60142e-01     2.09200e-02
      9578       9585      1  -0.026451   0.009592     3.00055e-01     6.91943e-02
      9578       9586      1  -0.026451   0.009592     3.00055e-01     6.91943e-02
      9577       9581      1   0.010172  -0.003655     3.00055e-01     6.91943e-02
      9577       9580      1   0.010172   0.009367     2.60142e-01     2.09200e-02
      9577       9579      1   0.010172   0.009367     2.60142e-01     2.09200e-02
      9576       9581      1   0.010172  -0.003655     3.00055e-01     6.91943e-02
      9576       9580      1   0.010172   0.009367     2.60142e-01     2.09200e-02
      9576       9579      1   0.010172   0.009367     2.60142e-01     2.09200e-02
      9575       9582      1  -0.014653   0.005694     3.00055e-01     6.91943e-02
      9575       9583      1  -0.014653   0.005694     3.00055e-01     6.91943e-02
      9574       9578      1   0.010037  -0.022042     3.00055e-01     6.91943e-02
      9574       9576      1   0.010037   0.008477     2.60142e-01     2.09200e-02
      9574       9577      1   0.010037   0.008477     2.60142e-01     2.09200e-02
      9573       9578      1   0.010037  -0.022042     3.00055e-01     6.91943e-02
      9573       9576      1   0.010037   0.008477     2.60142e-01     2.09200e-02
      9573       9577      1   0.010037   0.008477     2.60142e-01     2.09200e-02
      9572       9580      1  -0.021025   0.009367     3.00055e-01     6.91943e-02
      9572       9579      1  -0.021025   0.009367     3.00055e-01     6.91943e-02
      9571       9575      1   0.012677  -0.012211     3.00055e-01     6.91943e-02
      9571       9574      1   0.012677   0.008364     2.60142e-01     2.09200e-02
      9571       9573      1   0.012677   0.008364     2.60142e-01     2.09200e-02
      9570       9575      1   0.012677  -0.012211     3.00055e-01     6.91943e-02
      9570       9574      1   0.012677   0.008364     2.60142e-01     2.09200e-02
      9570       9573      1   0.012677   0.008364     2.60142e-01     2.09200e-02
      9569       9576      1  -0.031787   0.008477     3.00055e-01     6.91943e-02
      9569       9577      1  -0.031787   0.008477     3.00055e-01     6.91943e-02
      9568       9572      1   0.017208  -0.017521     3.00055e-01     6.91943e-02
      9568       9570      1   0.017208   0.010564     2.60142e-01     2.09200e-02
      9568       9571      1   0.017208   0.010564     2.60142e-01     2.09200e-02
      9567       9572      1   0.017208  -0.017521     3.00055e-01     6.91943e-02
      9567       9570      1   0.017208   0.010564     2.60142e-01     2.09200e-02
      9567       9571      1   0.017208   0.010564     2.60142e-01     2.09200e-02
      9566       9574      1  -0.028094   0.008364     3.00055e-01     6.91943e-02
      9566       9573      1  -0.028094   0.008364     3.00055e-01     6.91943e-02
      9565       9569      1   0.007531  -0.026489     3.00055e-01     6.91943e-02
      9565       9568      1   0.007531   0.014340     2.60142e-01     2.09200e-02
      9565       9567      1   0.007531   0.014340     2.60142e-01     2.09200e-02
      9564       9569      1   0.007531  -0.026489     3.00055e-01     6.91943e-02
      9564       9568      1   0.007531   0.014340     2.60142e-01     2.09200e-02
      9564       9567      1   0.007531   0.014340     2.60142e-01     2.09200e-02
      9563       9570      1   0.017463   0.010564     3.00055e-01     6.91943e-02
      9563       9571      1   0.017463   0.010564     3.00055e-01     6.91943e-02
      9562       9566      1   0.025511  -0.023412     3.00055e-01     6.91943e-02
      9562       9564      1   0.025511   0.006276     2.60142e-01     2.09200e-02
      9562       9565      1   0.025511   0.006276     2.60142e-01     2.09200e-02
      9561       9566      1   0.025511  -0.023412     3.00055e-01     6.91943e-02
      9561       9564      1   0.025511   0.006276     2.60142e-01     2.09200e-02
      9561       9565      1   0.025511   0.006276     2.60142e-01     2.09200e-02
      9560       9568      1  -0.111712   0.014340     3.00055e-01     6.91943e-02
      9560       9567      1  -0.111712   0.014340     3.00055e-01     6.91943e-02
      9559       9566      1   0.025511  -0.023412     3.00055e-01     6.91943e-02
      9559       9564      1   0.025511   0.006276     2.60142e-01     2.09200e-02
      9559       9565      1   0.025511   0.006276     2.60142e-01     2.09200e-02
      9636       9676      1  -0.673755   0.044953     2.78067e-01     9.58675e-02
      9636       9675      1  -0.673755   0.044953     2.78067e-01     9.58675e-02
      9635       9673      1   0.897613   0.015716     3.00055e-01     6.13495e-02
      9635       9672      1   0.897613   0.015716     3.00055e-01     6.13495e-02
      9634       9676      1  -0.552948   0.044953     2.80072e-01     8.62554e-02
      9634       9675      1  -0.552948   0.044953     2.80072e-01     8.62554e-02
      9627       9628      1   0.172230  -0.282478     2.67982e-01     8.67002e-02
      9626       9628      1   0.172230  -0.282478     2.67982e-01     8.67002e-02
      9625       9628      1   0.172230  -0.282478     2.67982e-01     8.67002e-02
      9624       9629      1  -0.338973   0.143525     2.67982e-01     8.67002e-02
      9624       9630      1  -0.338973   0.143525     2.67982e-01     8.67002e-02
      9624       9631      1  -0.338973   0.143525     2.67982e-01     8.67002e-02
      9623       9624      1   0.172230  -0.282478     2.67982e-01     8.67002e-02
      9623       9628      1   0.172230  -0.282478     2.67982e-01     8.67002e-02
      9622       9624      1   0.172230  -0.282478     2.67982e-01     8.67002e-02
      9622       9628      1   0.172230  -0.282478     2.67982e-01     8.67002e-02
      9621       9624      1   0.172230  -0.282478     2.67982e-01     8.67002e-02
      9621       9628      1   0.172230  -0.282478     2.67982e-01     8.67002e-02
      9620       9625      1  -0.338973   0.143525     2.67982e-01     8.67002e-02
      9620       9626      1  -0.338973   0.143525     2.67982e-01     8.67002e-02
      9620       9627      1  -0.338973   0.143525     2.67982e-01     8.67002e-02
      9620       9629      1  -0.338973   0.143525     2.67982e-01     8.67002e-02
      9620       9630      1  -0.338973   0.143525     2.67982e-01     8.67002e-02
      9620       9631      1  -0.338973   0.143525     2.67982e-01     8.67002e-02
      9618       9620      1   0.136415  -0.282478     2.67982e-01     8.67002e-02
      9618       9624      1   0.136415  -0.282478     2.67982e-01     8.67002e-02
      9618       9628      1   0.136415  -0.282478     2.67982e-01     8.67002e-02
      9617       9620      1   0.136415  -0.282478     2.67982e-01     8.67002e-02
      9617       9624      1   0.136415  -0.282478     2.67982e-01     8.67002e-02
      9617       9628      1   0.136415  -0.282478     2.67982e-01     8.67002e-02
      9616       9621      1  -0.170824   0.143525     2.67982e-01     8.67002e-02
      9616       9622      1  -0.170824   0.143525     2.67982e-01     8.67002e-02
      9616       9623      1  -0.170824   0.143525     2.67982e-01     8.67002e-02
      9616       9625      1  -0.170824   0.143525     2.67982e-01     8.67002e-02
      9616       9626      1  -0.170824   0.143525     2.67982e-01     8.67002e-02
      9616       9627      1  -0.170824   0.143525     2.67982e-01     8.67002e-02
      9616       9629      1  -0.170824   0.143525     2.67982e-01     8.67002e-02
      9616       9630      1  -0.170824   0.143525     2.67982e-01     8.67002e-02
      9616       9631      1  -0.170824   0.143525     2.67982e-01     8.67002e-02
      9615       9617      1   0.078534   0.113679     2.21567e-01     3.28444e-02
      9615       9618      1   0.078534   0.113679     2.21567e-01     3.28444e-02
      9615       9619      1   0.078534   0.204385     2.86068e-01     1.08078e-01
      9614       9617      1   0.078534   0.113679     2.21567e-01     3.28444e-02
      9614       9618      1   0.078534   0.113679     2.21567e-01     3.28444e-02
      9614       9619      1   0.078534   0.204385     2.86068e-01     1.08078e-01
      9612       9617      1  -0.508176   0.113679     2.47999e-01     1.08078e-01
      9612       9618      1  -0.508176   0.113679     2.47999e-01     1.08078e-01
      9611       9614      1   1.339721   0.065445     3.10656e-01     1.17227e-01
      9611       9615      1   1.339721   0.065445     3.10656e-01     1.17227e-01
      9609       9634      1   0.095591  -0.460790     2.73568e-01     1.08078e-01
      9609       9611      1   0.095591   1.116434     3.10656e-01     1.17227e-01
      9608       9634      1   0.095591  -0.460790     2.73568e-01     1.08078e-01
      9608       9611      1   0.095591   1.116434     3.10656e-01     1.17227e-01
      9606       9608      1   0.063253   0.079659     2.47135e-01     3.28444e-02
      9606       9609      1   0.063253   0.079659     2.47135e-01     3.28444e-02
      9606       9610      1   0.063253  -0.424567     2.73568e-01     1.08078e-01
      9606       9635      1   0.063253   0.748011     2.93551e-01     7.68707e-02
      9604       9606      1   0.070469   0.052711     2.47135e-01     3.28444e-02
      9604       9607      1   0.070469   0.014549     2.93551e-01     8.67002e-02
      9604       9634      1   0.070469  -0.460790     2.73568e-01     1.08078e-01
      9603       9606      1   0.070469   0.052711     2.47135e-01     3.28444e-02
      9603       9607      1   0.070469   0.014549     2.93551e-01     8.67002e-02
      9603       9634      1   0.070469  -0.460790     2.73568e-01     1.08078e-01
      9602       9608      1   0.196939   0.079659     2.93551e-01     8.67002e-02
      9602       9609      1   0.196939   0.079659     2.93551e-01     8.67002e-02
      9601       9606      1  -0.575489   0.052711     2.73568e-01     1.08078e-01
      9599       9603      1   0.910403   0.058724     2.93551e-01     7.68707e-02
      9599       9604      1   0.910403   0.058724     2.93551e-01     7.68707e-02
      9673       9676      1   0.018859   0.044953     2.60142e-01     2.09200e-02
      9673       9675      1   0.018859   0.044953     2.60142e-01     2.09200e-02
      9672       9676      1   0.018859   0.044953     2.60142e-01     2.09200e-02
      9672       9675      1   0.018859   0.044953     2.60142e-01     2.09200e-02
      9670       9674      1   0.020431  -0.136833     3.00055e-01     6.91943e-02
      9670       9673      1   0.020431   0.015716     2.60142e-01     2.09200e-02
      9670       9672      1   0.020431   0.015716     2.60142e-01     2.09200e-02
      9669       9674      1   0.020431  -0.136833     3.00055e-01     6.91943e-02
      9669       9673      1   0.020431   0.015716     2.60142e-01     2.09200e-02
      9669       9672      1   0.020431   0.015716     2.60142e-01     2.09200e-02
      9668       9676      1  -0.026954   0.044953     3.00055e-01     6.91943e-02
      9668       9675      1  -0.026954   0.044953     3.00055e-01     6.91943e-02
      9667       9671      1   0.010573  -0.002029     3.00055e-01     6.91943e-02
      9667       9670      1   0.010573   0.017026     2.60142e-01     2.09200e-02
      9667       9669      1   0.010573   0.017026     2.60142e-01     2.09200e-02
      9666       9671      1   0.010573  -0.002029     3.00055e-01     6.91943e-02
      9666       9670      1   0.010573   0.017026     2.60142e-01     2.09200e-02
      9666       9669      1   0.010573   0.017026     2.60142e-01     2.09200e-02
      9665       9673      1  -0.016521   0.015716     3.00055e-01     6.91943e-02
      9665       9672      1  -0.016521   0.015716     3.00055e-01     6.91943e-02
      9664       9668      1   0.011511  -0.022462     3.00055e-01     6.91943e-02
      9664       9666      1   0.011511   0.008811     2.60142e-01     2.09200e-02
      9664       9667      1   0.011511   0.008811     2.60142e-01     2.09200e-02
      9663       9668      1   0.011511  -0.022462     3.00055e-01     6.91943e-02
      9663       9666      1   0.011511   0.008811     2.60142e-01     2.09200e-02
      9663       9667      1   0.011511   0.008811     2.60142e-01     2.09200e-02
      9662       9670      1  -0.027812   0.017026     3.00055e-01     6.91943e-02
      9662       9669      1  -0.027812   0.017026     3.00055e-01     6.91943e-02
      9661       9665      1   0.006833  -0.013767     3.00055e-01     6.91943e-02
      9661       9663      1   0.006833   0.009592     2.60142e-01     2.09200e-02
      9661       9664      1   0.006833   0.009592     2.60142e-01     2.09200e-02
      9660       9665      1   0.006833  -0.013767     3.00055e-01     6.91943e-02
      9660       9663      1   0.006833   0.009592     2.60142e-01     2.09200e-02
      9660       9664      1   0.006833   0.009592     2.60142e-01     2.09200e-02
      9659       9666      1  -0.004386   0.008811     3.00055e-01     6.91943e-02
      9659       9667      1  -0.004386   0.008811     3.00055e-01     6.91943e-02
      9658       9662      1   0.011241  -0.023177     3.00055e-01     6.91943e-02
      9658       9660      1   0.011241   0.005694     2.60142e-01     2.09200e-02
      9658       9661      1   0.011241   0.005694     2.60142e-01     2.09200e-02
      9657       9662      1   0.011241  -0.023177     3.00055e-01     6.91943e-02
      9657       9660      1   0.011241   0.005694     2.60142e-01     2.09200e-02
      9657       9661      1   0.011241   0.005694     2.60142e-01     2.09200e-02
      9656       9663      1  -0.026451   0.009592     3.00055e-01     6.91943e-02
      9656       9664      1  -0.026451   0.009592     3.00055e-01     6.91943e-02
      9655       9659      1   0.010172  -0.003655     3.00055e-01     6.91943e-02
      9655       9658      1   0.010172   0.009367     2.60142e-01     2.09200e-02
      9655       9657      1   0.010172   0.009367     2.60142e-01     2.09200e-02
      9654       9659      1   0.010172  -0.003655     3.00055e-01     6.91943e-02
      9654       9658      1   0.010172   0.009367     2.60142e-01     2.09200e-02
      9654       9657      1   0.010172   0.009367     2.60142e-01     2.09200e-02
      9653       9660      1  -0.014653   0.005694     3.00055e-01     6.91943e-02
      9653       9661      1  -0.014653   0.005694     3.00055e-01     6.91943e-02
      9652       9656      1   0.010037  -0.022042     3.00055e-01     6.91943e-02
      9652       9654      1   0.010037   0.008477     2.60142e-01     2.09200e-02
      9652       9655      1   0.010037   0.008477     2.60142e-01     2.09200e-02
      9651       9656      1   0.010037  -0.022042     3.00055e-01     6.91943e-02
      9651       9654      1   0.010037   0.008477     2.60142e-01     2.09200e-02
      9651       9655      1   0.010037   0.008477     2.60142e-01     2.09200e-02
      9650       9658      1  -0.021025   0.009367     3.00055e-01     6.91943e-02
      9650       9657      1  -0.021025   0.009367     3.00055e-01     6.91943e-02
      9649       9653      1   0.012677  -0.012211     3.00055e-01     6.91943e-02
      9649       9652      1   0.012677   0.008364     2.60142e-01     2.09200e-02
      9649       9651      1   0.012677   0.008364     2.60142e-01     2.09200e-02
      9648       9653      1   0.012677  -0.012211     3.00055e-01     6.91943e-02
      9648       9652      1   0.012677   0.008364     2.60142e-01     2.09200e-02
      9648       9651      1   0.012677   0.008364     2.60142e-01     2.09200e-02
      9647       9654      1  -0.031787   0.008477     3.00055e-01     6.91943e-02
      9647       9655      1  -0.031787   0.008477     3.00055e-01     6.91943e-02
      9646       9650      1   0.017208  -0.017521     3.00055e-01     6.91943e-02
      9646       9648      1   0.017208   0.010564     2.60142e-01     2.09200e-02
      9646       9649      1   0.017208   0.010564     2.60142e-01     2.09200e-02
      9645       9650      1   0.017208  -0.017521     3.00055e-01     6.91943e-02
      9645       9648      1   0.017208   0.010564     2.60142e-01     2.09200e-02
      9645       9649      1   0.017208   0.010564     2.60142e-01     2.09200e-02
      9644       9652      1  -0.028094   0.008364     3.00055e-01     6.91943e-02
      9644       9651      1  -0.028094   0.008364     3.00055e-01     6.91943e-02
      9643       9647      1   0.007531  -0.026489     3.00055e-01     6.91943e-02
      9643       9646      1   0.007531   0.014340     2.60142e-01     2.09200e-02
      9643       9645      1   0.007531   0.014340     2.60142e-01     2.09200e-02
      9642       9647      1   0.007531  -0.026489     3.00055e-01     6.91943e-02
      9642       9646      1   0.007531   0.014340     2.60142e-01     2.09200e-02
      9642       9645      1   0.007531   0.014340     2.60142e-01     2.09200e-02
      9641       9648      1   0.017463   0.010564     3.00055e-01     6.91943e-02
      9641       9649      1   0.017463   0.010564     3.00055e-01     6.91943e-02
      9640       9644      1   0.025511  -0.023412     3.00055e-01     6.91943e-02
      9640       9642      1   0.025511   0.006276     2.60142e-01     2.09200e-02
      9640       9643      1   0.025511   0.006276     2.60142e-01     2.09200e-02
      9639       9644      1   0.025511  -0.023412     3.00055e-01     6.91943e-02
      9639       9642      1   0.025511   0.006276     2.60142e-01     2.09200e-02
      9639       9643      1   0.025511   0.006276     2.60142e-01     2.09200e-02
      9638       9646      1  -0.111712   0.014340     3.00055e-01     6.91943e-02
      9638       9645      1  -0.111712   0.014340     3.00055e-01     6.91943e-02
      9637       9644      1   0.025511  -0.023412     3.00055e-01     6.91943e-02
      9637       9642      1   0.025511   0.006276     2.60142e-01     2.09200e-02
      9637       9643      1   0.025511   0.006276     2.60142e-01     2.09200e-02
      9716       9718      1   0.053944  -0.559638     2.78067e-01     9.58675e-02
      9716       9719      1   0.053944  -0.479574     2.80072e-01     8.62554e-02
      9715       9718      1   0.053944  -0.559638     2.78067e-01     9.58675e-02
      9715       9719      1   0.053944  -0.479574     2.80072e-01     8.62554e-02
      9713       9716      1   0.018859   0.044953     2.60142e-01     2.09200e-02
      9713       9715      1   0.018859   0.044953     2.60142e-01     2.09200e-02
      9713       9717      1   0.018859   0.758669     3.00055e-01     6.13495e-02
      9712       9716      1   0.018859   0.044953     2.60142e-01     2.09200e-02
      9712       9715      1   0.018859   0.044953     2.60142e-01     2.09200e-02
      9712       9717      1   0.018859   0.758669     3.00055e-01     6.13495e-02
      9710       9714      1   0.020431  -0.136833     3.00055e-01     6.91943e-02
      9710       9713      1   0.020431   0.015716     2.60142e-01     2.09200e-02
      9710       9712      1   0.020431   0.015716     2.60142e-01     2.09200e-02
      9709       9714      1   0.020431  -0.136833     3.00055e-01     6.91943e-02
      9709       9713      1   0.020431   0.015716     2.60142e-01     2.09200e-02
      9709       9712      1   0.020431   0.015716     2.60142e-01     2.09200e-02
      9708       9716      1  -0.026954   0.044953     3.00055e-01     6.91943e-02
      9708       9715      1  -0.026954   0.044953     3.00055e-01     6.91943e-02
      9707       9711      1   0.010573  -0.002029     3.00055e-01     6.91943e-02
      9707       9710      1   0.010573   0.017026     2.60142e-01     2.09200e-02
      9707       9709      1   0.010573   0.017026     2.60142e-01     2.09200e-02
      9706       9711      1   0.010573  -0.002029     3.00055e-01     6.91943e-02
      9706       9710      1   0.010573   0.017026     2.60142e-01     2.09200e-02
      9706       9709      1   0.010573   0.017026     2.60142e-01     2.09200e-02
      9705       9713      1  -0.016521   0.015716     3.00055e-01     6.91943e-02
      9705       9712      1  -0.016521   0.015716     3.00055e-01     6.91943e-02
      9704       9708      1   0.011511  -0.022462     3.00055e-01     6.91943e-02
      9704       9706      1   0.011511   0.008811     2.60142e-01     2.09200e-02
      9704       9707      1   0.011511   0.008811     2.60142e-01     2.09200e-02
      9703       9708      1   0.011511  -0.022462     3.00055e-01     6.91943e-02
      9703       9706      1   0.011511   0.008811     2.60142e-01     2.09200e-02
      9703       9707      1   0.011511   0.008811     2.60142e-01     2.09200e-02
      9702       9710      1  -0.027812   0.017026     3.00055e-01     6.91943e-02
      9702       9709      1  -0.027812   0.017026     3.00055e-01     6.91943e-02
      9701       9705      1   0.006833  -0.013767     3.00055e-01     6.91943e-02
      9701       9703      1   0.006833   0.009592     2.60142e-01     2.09200e-02
      9701       9704      1   0.006833   0.009592     2.60142e-01     2.09200e-02
      9700       9705      1   0.006833  -0.013767     3.00055e-01     6.91943e-02
      9700       9703      1   0.006833   0.009592     2.60142e-01     2.09200e-02
      9700       9704      1   0.006833   0.009592     2.60142e-01     2.09200e-02
      9699       9706      1  -0.004386   0.008811     3.00055e-01     6.91943e-02
      9699       9707      1  -0.004386   0.008811     3.00055e-01     6.91943e-02
      9698       9702      1   0.011241  -0.023177     3.00055e-01     6.91943e-02
      9698       9700      1   0.011241   0.005694     2.60142e-01     2.09200e-02
      9698       9701      1   0.011241   0.005694     2.60142e-01     2.09200e-02
      9697       9702      1   0.011241  -0.023177     3.00055e-01     6.91943e-02
      9697       9700      1   0.011241   0.005694     2.60142e-01     2.09200e-02
      9697       9701      1   0.011241   0.005694     2.60142e-01     2.09200e-02
      9696       9703      1  -0.026451   0.009592     3.00055e-01     6.91943e-02
      9696       9704      1  -0.026451   0.009592     3.00055e-01     6.91943e-02
      9695       9699      1   0.010172  -0.003655     3.00055e-01     6.91943e-02
      9695       9698      1   0.010172   0.009367     2.60142e-01     2.09200e-02
      9695       9697      1   0.010172   0.009367     2.60142e-01     2.09200e-02
      9694       9699      1   0.010172  -0.003655     3.00055e-01     6.91943e-02
      9694       9698      1   0.010172   0.009367     2.60142e-01     2.09200e-02
      9694       9697      1   0.010172   0.009367     2.60142e-01     2.09200e-02
      9693       9700      1  -0.014653   0.005694     3.00055e-01     6.91943e-02
      9693       9701      1  -0.014653   0.005694     3.00055e-01     6.91943e-02
      9692       9696      1   0.010037  -0.022042     3.00055e-01     6.91943e-02
      9692       9694      1   0.010037   0.008477     2.60142e-01     2.09200e-02
      9692       9695      1   0.010037   0.008477     2.60142e-01     2.09200e-02
      9691       9696      1   0.010037  -0.022042     3.00055e-01     6.91943e-02
      9691       9694      1   0.010037   0.008477     2.60142e-01     2.09200e-02
      9691       9695      1   0.010037   0.008477     2.60142e-01     2.09200e-02
      9690       9698      1  -0.021025   0.009367     3.00055e-01     6.91943e-02
      9690       9697      1  -0.021025   0.009367     3.00055e-01     6.91943e-02
      9689       9693      1   0.012677  -0.012211     3.00055e-01     6.91943e-02
      9689       9692      1   0.012677   0.008364     2.60142e-01     2.09200e-02
      9689       9691      1   0.012677   0.008364     2.60142e-01     2.09200e-02
      9688       9693      1   0.012677  -0.012211     3.00055e-01     6.91943e-02
      9688       9692      1   0.012677   0.008364     2.60142e-01     2.09200e-02
      9688       9691      1   0.012677   0.008364     2.60142e-01     2.09200e-02
      9687       9694      1  -0.031787   0.008477     3.00055e-01     6.91943e-02
      9687       9695      1  -0.031787   0.008477     3.00055e-01     6.91943e-02
      9686       9690      1   0.017208  -0.017521     3.00055e-01     6.91943e-02
      9686       9688      1   0.017208   0.010564     2.60142e-01     2.09200e-02
      9686       9689      1   0.017208   0.010564     2.60142e-01     2.09200e-02
      9685       9690      1   0.017208  -0.017521     3.00055e-01     6.91943e-02
      9685       9688      1   0.017208   0.010564     2.60142e-01     2.09200e-02
      9685       9689      1   0.017208   0.010564     2.60142e-01     2.09200e-02
      9684       9692      1  -0.028094   0.008364     3.00055e-01     6.91943e-02
      9684       9691      1  -0.028094   0.008364     3.00055e-01     6.91943e-02
      9683       9687      1   0.007531  -0.026489     3.00055e-01     6.91943e-02
      9683       9686      1   0.007531   0.014340     2.60142e-01     2.09200e-02
      9683       9685      1   0.007531   0.014340     2.60142e-01     2.09200e-02
      9682       9687      1   0.007531  -0.026489     3.00055e-01     6.91943e-02
      9682       9686      1   0.007531   0.014340     2.60142e-01     2.09200e-02
      9682       9685      1   0.007531   0.014340     2.60142e-01     2.09200e-02
      9681       9688      1   0.017463   0.010564     3.00055e-01     6.91943e-02
      9681       9689      1   0.017463   0.010564     3.00055e-01     6.91943e-02
      9680       9684      1   0.025511  -0.023412     3.00055e-01     6.91943e-02
      9680       9682      1   0.025511   0.006276     2.60142e-01     2.09200e-02
      9680       9683      1   0.025511   0.006276     2.60142e-01     2.09200e-02
      9679       9684      1   0.025511  -0.023412     3.00055e-01     6.91943e-02
      9679       9682      1   0.025511   0.006276     2.60142e-01     2.09200e-02
      9679       9683      1   0.025511   0.006276     2.60142e-01     2.09200e-02
      9678       9686      1  -0.111712   0.014340     3.00055e-01     6.91943e-02
      9678       9685      1  -0.111712   0.014340     3.00055e-01     6.91943e-02
      9677       9684      1   0.025511  -0.023412     3.00055e-01     6.91943e-02
      9677       9682      1   0.025511   0.006276     2.60142e-01     2.09200e-02
      9677       9683      1   0.025511   0.006276     2.60142e-01     2.09200e-02
      9754       9794      1  -0.673755   0.044953     2.78067e-01     9.58675e-02
      9754       9793      1  -0.673755   0.044953     2.78067e-01     9.58675e-02
      9753       9791      1   0.897613   0.015716     3.00055e-01     6.13495e-02
      9753       9790      1   0.897613   0.015716     3.00055e-01     6.13495e-02
      9752       9794      1  -0.552948   0.044953     2.80072e-01     8.62554e-02
      9752       9793      1  -0.552948   0.044953     2.80072e-01     8.62554e-02
      9745       9746      1   0.172230  -0.282478     2.67982e-01     8.67002e-02
      9744       9746      1   0.172230  -0.282478     2.67982e-01     8.67002e-02
      9743       9746      1   0.172230  -0.282478     2.67982e-01     8.67002e-02
      9742       9747      1  -0.338973   0.143525     2.67982e-01     8.67002e-02
      9742       9748      1  -0.338973   0.143525     2.67982e-01     8.67002e-02
      9742       9749      1  -0.338973   0.143525     2.67982e-01     8.67002e-02
      9741       9742      1   0.172230  -0.282478     2.67982e-01     8.67002e-02
      9741       9746      1   0.172230  -0.282478     2.67982e-01     8.67002e-02
      9740       9742      1   0.172230  -0.282478     2.67982e-01     8.67002e-02
      9740       9746      1   0.172230  -0.282478     2.67982e-01     8.67002e-02
      9739       9742      1   0.172230  -0.282478     2.67982e-01     8.67002e-02
      9739       9746      1   0.172230  -0.282478     2.67982e-01     8.67002e-02
      9738       9743      1  -0.338973   0.143525     2.67982e-01     8.67002e-02
      9738       9744      1  -0.338973   0.143525     2.67982e-01     8.67002e-02
      9738       9745      1  -0.338973   0.143525     2.67982e-01     8.67002e-02
      9738       9747      1  -0.338973   0.143525     2.67982e-01     8.67002e-02
      9738       9748      1  -0.338973   0.143525     2.67982e-01     8.67002e-02
      9738       9749      1  -0.338973   0.143525     2.67982e-01     8.67002e-02
      9736       9738      1   0.136415  -0.282478     2.67982e-01     8.67002e-02
      9736       9742      1   0.136415  -0.282478     2.67982e-01     8.67002e-02
      9736       9746      1   0.136415  -0.282478     2.67982e-01     8.67002e-02
      9735       9738      1   0.136415  -0.282478     2.67982e-01     8.67002e-02
      9735       9742      1   0.136415  -0.282478     2.67982e-01     8.67002e-02
      9735       9746      1   0.136415  -0.282478     2.67982e-01     8.67002e-02
      9734       9739      1  -0.170824   0.143525     2.67982e-01     8.67002e-02
      9734       9740      1  -0.170824   0.143525     2.67982e-01     8.67002e-02
      9734       9741      1  -0.170824   0.143525     2.67982e-01     8.67002e-02
      9734       9743      1  -0.170824   0.143525     2.67982e-01     8.67002e-02
      9734       9744      1  -0.170824   0.143525     2.67982e-01     8.67002e-02
      9734       9745      1  -0.170824   0.143525     2.67982e-01     8.67002e-02
      9734       9747      1  -0.170824   0.143525     2.67982e-01     8.67002e-02
      9734       9748      1  -0.170824   0.143525     2.67982e-01     8.67002e-02
      9734       9749      1  -0.170824   0.143525     2.67982e-01     8.67002e-02
      9733       9735      1   0.078534   0.113679     2.21567e-01     3.28444e-02
      9733       9736      1   0.078534   0.113679     2.21567e-01     3.28444e-02
      9733       9737      1   0.078534   0.204385     2.86068e-01     1.08078e-01
      9732       9735      1   0.078534   0.113679     2.21567e-01     3.28444e-02
      9732       9736      1   0.078534   0.113679     2.21567e-01     3.28444e-02
      9732       9737      1   0.078534   0.204385     2.86068e-01     1.08078e-01
      9730       9735      1  -0.508176   0.113679     2.47999e-01     1.08078e-01
      9730       9736      1  -0.508176   0.113679     2.47999e-01     1.08078e-01
      9729       9732      1   1.339721   0.065445     3.10656e-01     1.17227e-01
      9729       9733      1   1.339721   0.065445     3.10656e-01     1.17227e-01
      9727       9752      1   0.095591  -0.460790     2.73568e-01     1.08078e-01
      9727       9729      1   0.095591   1.116434     3.10656e-01     1.17227e-01
      9726       9752      1   0.095591  -0.460790     2.73568e-01     1.08078e-01
      9726       9729      1   0.095591   1.116434     3.10656e-01     1.17227e-01
      9724       9726      1   0.063253   0.079659     2.47135e-01     3.28444e-02
      9724       9727      1   0.063253   0.079659     2.47135e-01     3.28444e-02
      9724       9728      1   0.063253  -0.424567     2.73568e-01     1.08078e-01
      9724       9753      1   0.063253   0.748011     2.93551e-01     7.68707e-02
      9722       9724      1   0.070469   0.052711     2.47135e-01     3.28444e-02
      9722       9725      1   0.070469   0.014549     2.93551e-01     8.67002e-02
      9722       9752      1   0.070469  -0.460790     2.73568e-01     1.08078e-01
      9721       9724      1   0.070469   0.052711     2.47135e-01     3.28444e-02
      9721       9725      1   0.070469   0.014549     2.93551e-01     8.67002e-02
      9721       9752      1   0.070469  -0.460790     2.73568e-01     1.08078e-01
      9720       9726      1   0.196939   0.079659     2.93551e-01     8.67002e-02
      9720       9727      1   0.196939   0.079659     2.93551e-01     8.67002e-02
      9719       9724      1  -0.575489   0.052711     2.73568e-01     1.08078e-01
      9717       9721      1   0.910403   0.058724     2.93551e-01     7.68707e-02
      9717       9722      1   0.910403   0.058724     2.93551e-01     7.68707e-02
      9791       9794      1   0.018859   0.044953     2.60142e-01     2.09200e-02
      9791       9793      1   0.018859   0.044953     2.60142e-01     2.09200e-02
      9790       9794      1   0.018859   0.044953     2.60142e-01     2.09200e-02
      9790       9793      1   0.018859   0.044953     2.60142e-01     2.09200e-02
      9788       9792      1   0.020431  -0.136833     3.00055e-01     6.91943e-02
      9788       9791      1   0.020431   0.015716     2.60142e-01     2.09200e-02
      9788       9790      1   0.020431   0.015716     2.60142e-01     2.09200e-02
      9787       9792      1   0.020431  -0.136833     3.00055e-01     6.91943e-02
      9787       9791      1   0.020431   0.015716     2.60142e-01     2.09200e-02
      9787       9790      1   0.020431   0.015716     2.60142e-01     2.09200e-02
      9786       9794      1  -0.026954   0.044953     3.00055e-01     6.91943e-02
      9786       9793      1  -0.026954   0.044953     3.00055e-01     6.91943e-02
      9785       9789      1   0.010573  -0.002029     3.00055e-01     6.91943e-02
      9785       9788      1   0.010573   0.017026     2.60142e-01     2.09200e-02
      9785       9787      1   0.010573   0.017026     2.60142e-01     2.09200e-02
      9784       9789      1   0.010573  -0.002029     3.00055e-01     6.91943e-02
      9784       9788      1   0.010573   0.017026     2.60142e-01     2.09200e-02
      9784       9787      1   0.010573   0.017026     2.60142e-01     2.09200e-02
      9783       9791      1  -0.016521   0.015716     3.00055e-01     6.91943e-02
      9783       9790      1  -0.016521   0.015716     3.00055e-01     6.91943e-02
      9782       9786      1   0.011511  -0.022462     3.00055e-01     6.91943e-02
      9782       9784      1   0.011511   0.008811     2.60142e-01     2.09200e-02
      9782       9785      1   0.011511   0.008811     2.60142e-01     2.09200e-02
      9781       9786      1   0.011511  -0.022462     3.00055e-01     6.91943e-02
      9781       9784      1   0.011511   0.008811     2.60142e-01     2.09200e-02
      9781       9785      1   0.011511   0.008811     2.60142e-01     2.09200e-02
      9780       9788      1  -0.027812   0.017026     3.00055e-01     6.91943e-02
      9780       9787      1  -0.027812   0.017026     3.00055e-01     6.91943e-02
      9779       9783      1   0.006833  -0.013767     3.00055e-01     6.91943e-02
      9779       9781      1   0.006833   0.009592     2.60142e-01     2.09200e-02
      9779       9782      1   0.006833   0.009592     2.60142e-01     2.09200e-02
      9778       9783      1   0.006833  -0.013767     3.00055e-01     6.91943e-02
      9778       9781      1   0.006833   0.009592     2.60142e-01     2.09200e-02
      9778       9782      1   0.006833   0.009592     2.60142e-01     2.09200e-02
      9777       9784      1  -0.004386   0.008811     3.00055e-01     6.91943e-02
      9777       9785      1  -0.004386   0.008811     3.00055e-01     6.91943e-02
      9776       9780      1   0.011241  -0.023177     3.00055e-01     6.91943e-02
      9776       9778      1   0.011241   0.005694     2.60142e-01     2.09200e-02
      9776       9779      1   0.011241   0.005694     2.60142e-01     2.09200e-02
      9775       9780      1   0.011241  -0.023177     3.00055e-01     6.91943e-02
      9775       9778      1   0.011241   0.005694     2.60142e-01     2.09200e-02
      9775       9779      1   0.011241   0.005694     2.60142e-01     2.09200e-02
      9774       9781      1  -0.026451   0.009592     3.00055e-01     6.91943e-02
      9774       9782      1  -0.026451   0.009592     3.00055e-01     6.91943e-02
      9773       9777      1   0.010172  -0.003655     3.00055e-01     6.91943e-02
      9773       9776      1   0.010172   0.009367     2.60142e-01     2.09200e-02
      9773       9775      1   0.010172   0.009367     2.60142e-01     2.09200e-02
      9772       9777      1   0.010172  -0.003655     3.00055e-01     6.91943e-02
      9772       9776      1   0.010172   0.009367     2.60142e-01     2.09200e-02
      9772       9775      1   0.010172   0.009367     2.60142e-01     2.09200e-02
      9771       9778      1  -0.014653   0.005694     3.00055e-01     6.91943e-02
      9771       9779      1  -0.014653   0.005694     3.00055e-01     6.91943e-02
      9770       9774      1   0.010037  -0.022042     3.00055e-01     6.91943e-02
      9770       9772      1   0.010037   0.008477     2.60142e-01     2.09200e-02
      9770       9773      1   0.010037   0.008477     2.60142e-01     2.09200e-02
      9769       9774      1   0.010037  -0.022042     3.00055e-01     6.91943e-02
      9769       9772      1   0.010037   0.008477     2.60142e-01     2.09200e-02
      9769       9773      1   0.010037   0.008477     2.60142e-01     2.09200e-02
      9768       9776      1  -0.021025   0.009367     3.00055e-01     6.91943e-02
      9768       9775      1  -0.021025   0.009367     3.00055e-01     6.91943e-02
      9767       9771      1   0.012677  -0.012211     3.00055e-01     6.91943e-02
      9767       9770      1   0.012677   0.008364     2.60142e-01     2.09200e-02
      9767       9769      1   0.012677   0.008364     2.60142e-01     2.09200e-02
      9766       9771      1   0.012677  -0.012211     3.00055e-01     6.91943e-02
      9766       9770      1   0.012677   0.008364     2.60142e-01     2.09200e-02
      9766       9769      1   0.012677   0.008364     2.60142e-01     2.09200e-02
      9765       9772      1  -0.031787   0.008477     3.00055e-01     6.91943e-02
      9765       9773      1  -0.031787   0.008477     3.00055e-01     6.91943e-02
      9764       9768      1   0.017208  -0.017521     3.00055e-01     6.91943e-02
      9764       9766      1   0.017208   0.010564     2.60142e-01     2.09200e-02
      9764       9767      1   0.017208   0.010564     2.60142e-01     2.09200e-02
      9763       9768      1   0.017208  -0.017521     3.00055e-01     6.91943e-02
      9763       9766      1   0.017208   0.010564     2.60142e-01     2.09200e-02
      9763       9767      1   0.017208   0.010564     2.60142e-01     2.09200e-02
      9762       9770      1  -0.028094   0.008364     3.00055e-01     6.91943e-02
      9762       9769      1  -0.028094   0.008364     3.00055e-01     6.91943e-02
      9761       9765      1   0.007531  -0.026489     3.00055e-01     6.91943e-02
      9761       9764      1   0.007531   0.014340     2.60142e-01     2.09200e-02
      9761       9763      1   0.007531   0.014340     2.60142e-01     2.09200e-02
      9760       9765      1   0.007531  -0.026489     3.00055e-01     6.91943e-02
      9760       9764      1   0.007531   0.014340     2.60142e-01     2.09200e-02
      9760       9763      1   0.007531   0.014340     2.60142e-01     2.09200e-02
      9759       9766      1   0.017463   0.010564     3.00055e-01     6.91943e-02
      9759       9767      1   0.017463   0.010564     3.00055e-01     6.91943e-02
      9758       9762      1   0.025511  -0.023412     3.00055e-01     6.91943e-02
      9758       9760      1   0.025511   0.006276     2.60142e-01     2.09200e-02
      9758       9761      1   0.025511   0.006276     2.60142e-01     2.09200e-02
      9757       9762      1   0.025511  -0.023412     3.00055e-01     6.91943e-02
      9757       9760      1   0.025511   0.006276     2.60142e-01     2.09200e-02
      9757       9761      1   0.025511   0.006276     2.60142e-01     2.09200e-02
      9756       9764      1  -0.111712   0.014340     3.00055e-01     6.91943e-02
      9756       9763      1  -0.111712   0.014340     3.00055e-01     6.91943e-02
      9755       9762      1   0.025511  -0.023412     3.00055e-01     6.91943e-02
      9755       9760      1   0.025511   0.006276     2.60142e-01     2.09200e-02
      9755       9761      1   0.025511   0.006276     2.60142e-01     2.09200e-02
      9834       9836      1   0.053944  -0.559638     2.78067e-01     9.58675e-02
      9834       9837      1   0.053944  -0.479574     2.80072e-01     8.62554e-02
      9833       9836      1   0.053944  -0.559638     2.78067e-01     9.58675e-02
      9833       9837      1   0.053944  -0.479574     2.80072e-01     8.62554e-02
      9831       9834      1   0.018859   0.044953     2.60142e-01     2.09200e-02
      9831       9833      1   0.018859   0.044953     2.60142e-01     2.09200e-02
      9831       9835      1   0.018859   0.758669     3.00055e-01     6.13495e-02
      9830       9834      1   0.018859   0.044953     2.60142e-01     2.09200e-02
      9830       9833      1   0.018859   0.044953     2.60142e-01     2.09200e-02
      9830       9835      1   0.018859   0.758669     3.00055e-01     6.13495e-02
      9828       9832      1   0.020431  -0.136833     3.00055e-01     6.91943e-02
      9828       9831      1   0.020431   0.015716     2.60142e-01     2.09200e-02
      9828       9830      1   0.020431   0.015716     2.60142e-01     2.09200e-02
      9827       9832      1   0.020431  -0.136833     3.00055e-01     6.91943e-02
      9827       9831      1   0.020431   0.015716     2.60142e-01     2.09200e-02
      9827       9830      1   0.020431   0.015716     2.60142e-01     2.09200e-02
      9826       9834      1  -0.026954   0.044953     3.00055e-01     6.91943e-02
      9826       9833      1  -0.026954   0.044953     3.00055e-01     6.91943e-02
      9825       9829      1   0.010573  -0.002029     3.00055e-01     6.91943e-02
      9825       9828      1   0.010573   0.017026     2.60142e-01     2.09200e-02
      9825       9827      1   0.010573   0.017026     2.60142e-01     2.09200e-02
      9824       9829      1   0.010573  -0.002029     3.00055e-01     6.91943e-02
      9824       9828      1   0.010573   0.017026     2.60142e-01     2.09200e-02
      9824       9827      1   0.010573   0.017026     2.60142e-01     2.09200e-02
      9823       9831      1  -0.016521   0.015716     3.00055e-01     6.91943e-02
      9823       9830      1  -0.016521   0.015716     3.00055e-01     6.91943e-02
      9822       9826      1   0.011511  -0.022462     3.00055e-01     6.91943e-02
      9822       9824      1   0.011511   0.008811     2.60142e-01     2.09200e-02
      9822       9825      1   0.011511   0.008811     2.60142e-01     2.09200e-02
      9821       9826      1   0.011511  -0.022462     3.00055e-01     6.91943e-02
      9821       9824      1   0.011511   0.008811     2.60142e-01     2.09200e-02
      9821       9825      1   0.011511   0.008811     2.60142e-01     2.09200e-02
      9820       9828      1  -0.027812   0.017026     3.00055e-01     6.91943e-02
      9820       9827      1  -0.027812   0.017026     3.00055e-01     6.91943e-02
      9819       9823      1   0.006833  -0.013767     3.00055e-01     6.91943e-02
      9819       9821      1   0.006833   0.009592     2.60142e-01     2.09200e-02
      9819       9822      1   0.006833   0.009592     2.60142e-01     2.09200e-02
      9818       9823      1   0.006833  -0.013767     3.00055e-01     6.91943e-02
      9818       9821      1   0.006833   0.009592     2.60142e-01     2.09200e-02
      9818       9822      1   0.006833   0.009592     2.60142e-01     2.09200e-02
      9817       9824      1  -0.004386   0.008811     3.00055e-01     6.91943e-02
      9817       9825      1  -0.004386   0.008811     3.00055e-01     6.91943e-02
      9816       9820      1   0.011241  -0.023177     3.00055e-01     6.91943e-02
      9816       9818      1   0.011241   0.005694     2.60142e-01     2.09200e-02
      9816       9819      1   0.011241   0.005694     2.60142e-01     2.09200e-02
      9815       9820      1   0.011241  -0.023177     3.00055e-01     6.91943e-02
      9815       9818      1   0.011241   0.005694     2.60142e-01     2.09200e-02
      9815       9819      1   0.011241   0.005694     2.60142e-01     2.09200e-02
      9814       9821      1  -0.026451   0.009592     3.00055e-01     6.91943e-02
      9814       9822      1  -0.026451   0.009592     3.00055e-01     6.91943e-02
      9813       9817      1   0.010172  -0.003655     3.00055e-01     6.91943e-02
      9813       9816      1   0.010172   0.009367     2.60142e-01     2.09200e-02
      9813       9815      1   0.010172   0.009367     2.60142e-01     2.09200e-02
      9812       9817      1   0.010172  -0.003655     3.00055e-01     6.91943e-02
      9812       9816      1   0.010172   0.009367     2.60142e-01     2.09200e-02
      9812       9815      1   0.010172   0.009367     2.60142e-01     2.09200e-02
      9811       9818      1  -0.014653   0.005694     3.00055e-01     6.91943e-02
      9811       9819      1  -0.014653   0.005694     3.00055e-01     6.91943e-02
      9810       9814      1   0.010037  -0.022042     3.00055e-01     6.91943e-02
      9810       9812      1   0.010037   0.008477     2.60142e-01     2.09200e-02
      9810       9813      1   0.010037   0.008477     2.60142e-01     2.09200e-02
      9809       9814      1   0.010037  -0.022042     3.00055e-01     6.91943e-02
      9809       9812      1   0.010037   0.008477     2.60142e-01     2.09200e-02
      9809       9813      1   0.010037   0.008477     2.60142e-01     2.09200e-02
      9808       9816      1  -0.021025   0.009367     3.00055e-01     6.91943e-02
      9808       9815      1  -0.021025   0.009367     3.00055e-01     6.91943e-02
      9807       9811      1   0.012677  -0.012211     3.00055e-01     6.91943e-02
      9807       9810      1   0.012677   0.008364     2.60142e-01     2.09200e-02
      9807       9809      1   0.012677   0.008364     2.60142e-01     2.09200e-02
      9806       9811      1   0.012677  -0.012211     3.00055e-01     6.91943e-02
      9806       9810      1   0.012677   0.008364     2.60142e-01     2.09200e-02
      9806       9809      1   0.012677   0.008364     2.60142e-01     2.09200e-02
      9805       9812      1  -0.031787   0.008477     3.00055e-01     6.91943e-02
      9805       9813      1  -0.031787   0.008477     3.00055e-01     6.91943e-02
      9804       9808      1   0.017208  -0.017521     3.00055e-01     6.91943e-02
      9804       9806      1   0.017208   0.010564     2.60142e-01     2.09200e-02
      9804       9807      1   0.017208   0.010564     2.60142e-01     2.09200e-02
      9803       9808      1   0.017208  -0.017521     3.00055e-01     6.91943e-02
      9803       9806      1   0.017208   0.010564     2.60142e-01     2.09200e-02
      9803       9807      1   0.017208   0.010564     2.60142e-01     2.09200e-02
      9802       9810      1  -0.028094   0.008364     3.00055e-01     6.91943e-02
      9802       9809      1  -0.028094   0.008364     3.00055e-01     6.91943e-02
      9801       9805      1   0.007531  -0.026489     3.00055e-01     6.91943e-02
      9801       9804      1   0.007531   0.014340     2.60142e-01     2.09200e-02
      9801       9803      1   0.007531   0.014340     2.60142e-01     2.09200e-02
      9800       9805      1   0.007531  -0.026489     3.00055e-01     6.91943e-02
      9800       9804      1   0.007531   0.014340     2.60142e-01     2.09200e-02
      9800       9803      1   0.007531   0.014340     2.60142e-01     2.09200e-02
      9799       9806      1   0.017463   0.010564     3.00055e-01     6.91943e-02
      9799       9807      1   0.017463   0.010564     3.00055e-01     6.91943e-02
      9798       9802      1   0.025511  -0.023412     3.00055e-01     6.91943e-02
      9798       9800      1   0.025511   0.006276     2.60142e-01     2.09200e-02
      9798       9801      1   0.025511   0.006276     2.60142e-01     2.09200e-02
      9797       9802      1   0.025511  -0.023412     3.00055e-01     6.91943e-02
      9797       9800      1   0.025511   0.006276     2.60142e-01     2.09200e-02
      9797       9801      1   0.025511   0.006276     2.60142e-01     2.09200e-02
      9796       9804      1  -0.111712   0.014340     3.00055e-01     6.91943e-02
      9796       9803      1  -0.111712   0.014340     3.00055e-01     6.91943e-02
      9795       9802      1   0.025511  -0.023412     3.00055e-01     6.91943e-02
      9795       9800      1   0.025511   0.006276     2.60142e-01     2.09200e-02
      9795       9801      1   0.025511   0.006276     2.60142e-01     2.09200e-02
      9872       9912      1  -0.673755   0.044953     2.78067e-01     9.58675e-02
      9872       9911      1  -0.673755   0.044953     2.78067e-01     9.58675e-02
      9871       9909      1   0.897613   0.015716     3.00055e-01     6.13495e-02
      9871       9908      1   0.897613   0.015716     3.00055e-01     6.13495e-02
      9870       9912      1  -0.552948   0.044953     2.80072e-01     8.62554e-02
      9870       9911      1  -0.552948   0.044953     2.80072e-01     8.62554e-02
      9863       9864      1   0.172230  -0.282478     2.67982e-01     8.67002e-02
      9862       9864      1   0.172230  -0.282478     2.67982e-01     8.67002e-02
      9861       9864      1   0.172230  -0.282478     2.67982e-01     8.67002e-02
      9860       9865      1  -0.338973   0.143525     2.67982e-01     8.67002e-02
      9860       9866      1  -0.338973   0.143525     2.67982e-01     8.67002e-02
      9860       9867      1  -0.338973   0.143525     2.67982e-01     8.67002e-02
      9859       9860      1   0.172230  -0.282478     2.67982e-01     8.67002e-02
      9859       9864      1   0.172230  -0.282478     2.67982e-01     8.67002e-02
      9858       9860      1   0.172230  -0.282478     2.67982e-01     8.67002e-02
      9858       9864      1   0.172230  -0.282478     2.67982e-01     8.67002e-02
      9857       9860      1   0.172230  -0.282478     2.67982e-01     8.67002e-02
      9857       9864      1   0.172230  -0.282478     2.67982e-01     8.67002e-02
      9856       9861      1  -0.338973   0.143525     2.67982e-01     8.67002e-02
      9856       9862      1  -0.338973   0.143525     2.67982e-01     8.67002e-02
      9856       9863      1  -0.338973   0.143525     2.67982e-01     8.67002e-02
      9856       9865      1  -0.338973   0.143525     2.67982e-01     8.67002e-02
      9856       9866      1  -0.338973   0.143525     2.67982e-01     8.67002e-02
      9856       9867      1  -0.338973   0.143525     2.67982e-01     8.67002e-02
      9854       9856      1   0.136415  -0.282478     2.67982e-01     8.67002e-02
      9854       9860      1   0.136415  -0.282478     2.67982e-01     8.67002e-02
      9854       9864      1   0.136415  -0.282478     2.67982e-01     8.67002e-02
      9853       9856      1   0.136415  -0.282478     2.67982e-01     8.67002e-02
      9853       9860      1   0.136415  -0.282478     2.67982e-01     8.67002e-02
      9853       9864      1   0.136415  -0.282478     2.67982e-01     8.67002e-02
      9852       9857      1  -0.170824   0.143525     2.67982e-01     8.67002e-02
      9852       9858      1  -0.170824   0.143525     2.67982e-01     8.67002e-02
      9852       9859      1  -0.170824   0.143525     2.67982e-01     8.67002e-02
      9852       9861      1  -0.170824   0.143525     2.67982e-01     8.67002e-02
      9852       9862      1  -0.170824   0.143525     2.67982e-01     8.67002e-02
      9852       9863      1  -0.170824   0.143525     2.67982e-01     8.67002e-02
      9852       9865      1  -0.170824   0.143525     2.67982e-01     8.67002e-02
      9852       9866      1  -0.170824   0.143525     2.67982e-01     8.67002e-02
      9852       9867      1  -0.170824   0.143525     2.67982e-01     8.67002e-02
      9851       9853      1   0.078534   0.113679     2.21567e-01     3.28444e-02
      9851       9854      1   0.078534   0.113679     2.21567e-01     3.28444e-02
      9851       9855      1   0.078534   0.204385     2.86068e-01     1.08078e-01
      9850       9853      1   0.078534   0.113679     2.21567e-01     3.28444e-02
      9850       9854      1   0.078534   0.113679     2.21567e-01     3.28444e-02
      9850       9855      1   0.078534   0.204385     2.86068e-01     1.08078e-01
      9848       9853      1  -0.508176   0.113679     2.47999e-01     1.08078e-01
      9848       9854      1  -0.508176   0.113679     2.47999e-01     1.08078e-01
      9847       9850      1   1.339721   0.065445     3.10656e-01     1.17227e-01
      9847       9851      1   1.339721   0.065445     3.10656e-01     1.17227e-01
      9845       9870      1   0.095591  -0.460790     2.73568e-01     1.08078e-01
      9845       9847      1   0.095591   1.116434     3.10656e-01     1.17227e-01
      9844       9870      1   0.095591  -0.460790     2.73568e-01     1.08078e-01
      9844       9847      1   0.095591   1.116434     3.10656e-01     1.17227e-01
      9842       9844      1   0.063253   0.079659     2.47135e-01     3.28444e-02
      9842       9845      1   0.063253   0.079659     2.47135e-01     3.28444e-02
      9842       9846      1   0.063253  -0.424567     2.73568e-01     1.08078e-01
      9842       9871      1   0.063253   0.748011     2.93551e-01     7.68707e-02
      9840       9842      1   0.070469   0.052711     2.47135e-01     3.28444e-02
      9840       9843      1   0.070469   0.014549     2.93551e-01     8.67002e-02
      9840       9870      1   0.070469  -0.460790     2.73568e-01     1.08078e-01
      9839       9842      1   0.070469   0.052711     2.47135e-01     3.28444e-02
      9839       9843      1   0.070469   0.014549     2.93551e-01     8.67002e-02
      9839       9870      1   0.070469  -0.460790     2.73568e-01     1.08078e-01
      9838       9844      1   0.196939   0.079659     2.93551e-01     8.67002e-02
      9838       9845      1   0.196939   0.079659     2.93551e-01     8.67002e-02
      9837       9842      1  -0.575489   0.052711     2.73568e-01     1.08078e-01
      9835       9839      1   0.910403   0.058724     2.93551e-01     7.68707e-02
      9835       9840      1   0.910403   0.058724     2.93551e-01     7.68707e-02
      9909       9912      1   0.018859   0.044953     2.60142e-01     2.09200e-02
      9909       9911      1   0.018859   0.044953     2.60142e-01     2.09200e-02
      9908       9912      1   0.018859   0.044953     2.60142e-01     2.09200e-02
      9908       9911      1   0.018859   0.044953     2.60142e-01     2.09200e-02
      9906       9910      1   0.020431  -0.136833     3.00055e-01     6.91943e-02
      9906       9909      1   0.020431   0.015716     2.60142e-01     2.09200e-02
      9906       9908      1   0.020431   0.015716     2.60142e-01     2.09200e-02
      9905       9910      1   0.020431  -0.136833     3.00055e-01     6.91943e-02
      9905       9909      1   0.020431   0.015716     2.60142e-01     2.09200e-02
      9905       9908      1   0.020431   0.015716     2.60142e-01     2.09200e-02
      9904       9912      1  -0.026954   0.044953     3.00055e-01     6.91943e-02
      9904       9911      1  -0.026954   0.044953     3.00055e-01     6.91943e-02
      9903       9907      1   0.010573  -0.002029     3.00055e-01     6.91943e-02
      9903       9906      1   0.010573   0.017026     2.60142e-01     2.09200e-02
      9903       9905      1   0.010573   0.017026     2.60142e-01     2.09200e-02
      9902       9907      1   0.010573  -0.002029     3.00055e-01     6.91943e-02
      9902       9906      1   0.010573   0.017026     2.60142e-01     2.09200e-02
      9902       9905      1   0.010573   0.017026     2.60142e-01     2.09200e-02
      9901       9909      1  -0.016521   0.015716     3.00055e-01     6.91943e-02
      9901       9908      1  -0.016521   0.015716     3.00055e-01     6.91943e-02
      9900       9904      1   0.011511  -0.022462     3.00055e-01     6.91943e-02
      9900       9902      1   0.011511   0.008811     2.60142e-01     2.09200e-02
      9900       9903      1   0.011511   0.008811     2.60142e-01     2.09200e-02
      9899       9904      1   0.011511  -0.022462     3.00055e-01     6.91943e-02
      9899       9902      1   0.011511   0.008811     2.60142e-01     2.09200e-02
      9899       9903      1   0.011511   0.008811     2.60142e-01     2.09200e-02
      9898       9906      1  -0.027812   0.017026     3.00055e-01     6.91943e-02
      9898       9905      1  -0.027812   0.017026     3.00055e-01     6.91943e-02
      9897       9901      1   0.006833  -0.013767     3.00055e-01     6.91943e-02
      9897       9899      1   0.006833   0.009592     2.60142e-01     2.09200e-02
      9897       9900      1   0.006833   0.009592     2.60142e-01     2.09200e-02
      9896       9901      1   0.006833  -0.013767     3.00055e-01     6.91943e-02
      9896       9899      1   0.006833   0.009592     2.60142e-01     2.09200e-02
      9896       9900      1   0.006833   0.009592     2.60142e-01     2.09200e-02
      9895       9902      1  -0.004386   0.008811     3.00055e-01     6.91943e-02
      9895       9903      1  -0.004386   0.008811     3.00055e-01     6.91943e-02
      9894       9898      1   0.011241  -0.023177     3.00055e-01     6.91943e-02
      9894       9896      1   0.011241   0.005694     2.60142e-01     2.09200e-02
      9894       9897      1   0.011241   0.005694     2.60142e-01     2.09200e-02
      9893       9898      1   0.011241  -0.023177     3.00055e-01     6.91943e-02
      9893       9896      1   0.011241   0.005694     2.60142e-01     2.09200e-02
      9893       9897      1   0.011241   0.005694     2.60142e-01     2.09200e-02
      9892       9899      1  -0.026451   0.009592     3.00055e-01     6.91943e-02
      9892       9900      1  -0.026451   0.009592     3.00055e-01     6.91943e-02
      9891       9895      1   0.010172  -0.003655     3.00055e-01     6.91943e-02
      9891       9894      1   0.010172   0.009367     2.60142e-01     2.09200e-02
      9891       9893      1   0.010172   0.009367     2.60142e-01     2.09200e-02
      9890       9895      1   0.010172  -0.003655     3.00055e-01     6.91943e-02
      9890       9894      1   0.010172   0.009367     2.60142e-01     2.09200e-02
      9890       9893      1   0.010172   0.009367     2.60142e-01     2.09200e-02
      9889       9896      1  -0.014653   0.005694     3.00055e-01     6.91943e-02
      9889       9897      1  -0.014653   0.005694     3.00055e-01     6.91943e-02
      9888       9892      1   0.010037  -0.022042     3.00055e-01     6.91943e-02
      9888       9890      1   0.010037   0.008477     2.60142e-01     2.09200e-02
      9888       9891      1   0.010037   0.008477     2.60142e-01     2.09200e-02
      9887       9892      1   0.010037  -0.022042     3.00055e-01     6.91943e-02
      9887       9890      1   0.010037   0.008477     2.60142e-01     2.09200e-02
      9887       9891      1   0.010037   0.008477     2.60142e-01     2.09200e-02
      9886       9894      1  -0.021025   0.009367     3.00055e-01     6.91943e-02
      9886       9893      1  -0.021025   0.009367     3.00055e-01     6.91943e-02
      9885       9889      1   0.012677  -0.012211     3.00055e-01     6.91943e-02
      9885       9888      1   0.012677   0.008364     2.60142e-01     2.09200e-02
      9885       9887      1   0.012677   0.008364     2.60142e-01     2.09200e-02
      9884       9889      1   0.012677  -0.012211     3.00055e-01     6.91943e-02
      9884       9888      1   0.012677   0.008364     2.60142e-01     2.09200e-02
      9884       9887      1   0.012677   0.008364     2.60142e-01     2.09200e-02
      9883       9890      1  -0.031787   0.008477     3.00055e-01     6.91943e-02
      9883       9891      1  -0.031787   0.008477     3.00055e-01     6.91943e-02
      9882       9886      1   0.017208  -0.017521     3.00055e-01     6.91943e-02
      9882       9884      1   0.017208   0.010564     2.60142e-01     2.09200e-02
      9882       9885      1   0.017208   0.010564     2.60142e-01     2.09200e-02
      9881       9886      1   0.017208  -0.017521     3.00055e-01     6.91943e-02
      9881       9884      1   0.017208   0.010564     2.60142e-01     2.09200e-02
      9881       9885      1   0.017208   0.010564     2.60142e-01     2.09200e-02
      9880       9888      1  -0.028094   0.008364     3.00055e-01     6.91943e-02
      9880       9887      1  -0.028094   0.008364     3.00055e-01     6.91943e-02
      9879       9883      1   0.007531  -0.026489     3.00055e-01     6.91943e-02
      9879       9882      1   0.007531   0.014340     2.60142e-01     2.09200e-02
      9879       9881      1   0.007531   0.014340     2.60142e-01     2.09200e-02
      9878       9883      1   0.007531  -0.026489     3.00055e-01     6.91943e-02
      9878       9882      1   0.007531   0.014340     2.60142e-01     2.09200e-02
      9878       9881      1   0.007531   0.014340     2.60142e-01     2.09200e-02
      9877       9884      1   0.017463   0.010564     3.00055e-01     6.91943e-02
      9877       9885      1   0.017463   0.010564     3.00055e-01     6.91943e-02
      9876       9880      1   0.025511  -0.023412     3.00055e-01     6.91943e-02
      9876       9878      1   0.025511   0.006276     2.60142e-01     2.09200e-02
      9876       9879      1   0.025511   0.006276     2.60142e-01     2.09200e-02
      9875       9880      1   0.025511  -0.023412     3.00055e-01     6.91943e-02
      9875       9878      1   0.025511   0.006276     2.60142e-01     2.09200e-02
      9875       9879      1   0.025511   0.006276     2.60142e-01     2.09200e-02
      9874       9882      1  -0.111712   0.014340     3.00055e-01     6.91943e-02
      9874       9881      1  -0.111712   0.014340     3.00055e-01     6.91943e-02
      9873       9880      1   0.025511  -0.023412     3.00055e-01     6.91943e-02
      9873       9878      1   0.025511   0.006276     2.60142e-01     2.09200e-02
      9873       9879      1   0.025511   0.006276     2.60142e-01     2.09200e-02
      9952       9954      1   0.053944  -0.559638     2.78067e-01     9.58675e-02
      9952       9955      1   0.053944  -0.479574     2.80072e-01     8.62554e-02
      9951       9954      1   0.053944  -0.559638     2.78067e-01     9.58675e-02
      9951       9955      1   0.053944  -0.479574     2.80072e-01     8.62554e-02
      9949       9952      1   0.018859   0.044953     2.60142e-01     2.09200e-02
      9949       9951      1   0.018859   0.044953     2.60142e-01     2.09200e-02
      9949       9953      1   0.018859   0.758669     3.00055e-01     6.13495e-02
      9948       9952      1   0.018859   0.044953     2.60142e-01     2.09200e-02
      9948       9951      1   0.018859   0.044953     2.60142e-01     2.09200e-02
      9948       9953      1   0.018859   0.758669     3.00055e-01     6.13495e-02
      9946       9950      1   0.020431  -0.136833     3.00055e-01     6.91943e-02
      9946       9949      1   0.020431   0.015716     2.60142e-01     2.09200e-02
      9946       9948      1   0.020431   0.015716     2.60142e-01     2.09200e-02
      9945       9950      1   0.020431  -0.136833     3.00055e-01     6.91943e-02
      9945       9949      1   0.020431   0.015716     2.60142e-01     2.09200e-02
      9945       9948      1   0.020431   0.015716     2.60142e-01     2.09200e-02
      9944       9952      1  -0.026954   0.044953     3.00055e-01     6.91943e-02
      9944       9951      1  -0.026954   0.044953     3.00055e-01     6.91943e-02
      9943       9947      1   0.010573  -0.002029     3.00055e-01     6.91943e-02
      9943       9946      1   0.010573   0.017026     2.60142e-01     2.09200e-02
      9943       9945      1   0.010573   0.017026     2.60142e-01     2.09200e-02
      9942       9947      1   0.010573  -0.002029     3.00055e-01     6.91943e-02
      9942       9946      1   0.010573   0.017026     2.60142e-01     2.09200e-02
      9942       9945      1   0.010573   0.017026     2.60142e-01     2.09200e-02
      9941       9949      1  -0.016521   0.015716     3.00055e-01     6.91943e-02
      9941       9948      1  -0.016521   0.015716     3.00055e-01     6.91943e-02
      9940       9944      1   0.011511  -0.022462     3.00055e-01     6.91943e-02
      9940       9942      1   0.011511   0.008811     2.60142e-01     2.09200e-02
      9940       9943      1   0.011511   0.008811     2.60142e-01     2.09200e-02
      9939       9944      1   0.011511  -0.022462     3.00055e-01     6.91943e-02
      9939       9942      1   0.011511   0.008811     2.60142e-01     2.09200e-02
      9939       9943      1   0.011511   0.008811     2.60142e-01     2.09200e-02
      9938       9946      1  -0.027812   0.017026     3.00055e-01     6.91943e-02
      9938       9945      1  -0.027812   0.017026     3.00055e-01     6.91943e-02
      9937       9941      1   0.006833  -0.013767     3.00055e-01     6.91943e-02
      9937       9939      1   0.006833   0.009592     2.60142e-01     2.09200e-02
      9937       9940      1   0.006833   0.009592     2.60142e-01     2.09200e-02
      9936       9941      1   0.006833  -0.013767     3.00055e-01     6.91943e-02
      9936       9939      1   0.006833   0.009592     2.60142e-01     2.09200e-02
      9936       9940      1   0.006833   0.009592     2.60142e-01     2.09200e-02
      9935       9942      1  -0.004386   0.008811     3.00055e-01     6.91943e-02
      9935       9943      1  -0.004386   0.008811     3.00055e-01     6.91943e-02
      9934       9938      1   0.011241  -0.023177     3.00055e-01     6.91943e-02
      9934       9936      1   0.011241   0.005694     2.60142e-01     2.09200e-02
      9934       9937      1   0.011241   0.005694     2.60142e-01     2.09200e-02
      9933       9938      1   0.011241  -0.023177     3.00055e-01     6.91943e-02
      9933       9936      1   0.011241   0.005694     2.60142e-01     2.09200e-02
      9933       9937      1   0.011241   0.005694     2.60142e-01     2.09200e-02
      9932       9939      1  -0.026451   0.009592     3.00055e-01     6.91943e-02
      9932       9940      1  -0.026451   0.009592     3.00055e-01     6.91943e-02
      9931       9935      1   0.010172  -0.003655     3.00055e-01     6.91943e-02
      9931       9934      1   0.010172   0.009367     2.60142e-01     2.09200e-02
      9931       9933      1   0.010172   0.009367     2.60142e-01     2.09200e-02
      9930       9935      1   0.010172  -0.003655     3.00055e-01     6.91943e-02
      9930       9934      1   0.010172   0.009367     2.60142e-01     2.09200e-02
      9930       9933      1   0.010172   0.009367     2.60142e-01     2.09200e-02
      9929       9936      1  -0.014653   0.005694     3.00055e-01     6.91943e-02
      9929       9937      1  -0.014653   0.005694     3.00055e-01     6.91943e-02
      9928       9932      1   0.010037  -0.022042     3.00055e-01     6.91943e-02
      9928       9930      1   0.010037   0.008477     2.60142e-01     2.09200e-02
      9928       9931      1   0.010037   0.008477     2.60142e-01     2.09200e-02
      9927       9932      1   0.010037  -0.022042     3.00055e-01     6.91943e-02
      9927       9930      1   0.010037   0.008477     2.60142e-01     2.09200e-02
      9927       9931      1   0.010037   0.008477     2.60142e-01     2.09200e-02
      9926       9934      1  -0.021025   0.009367     3.00055e-01     6.91943e-02
      9926       9933      1  -0.021025   0.009367     3.00055e-01     6.91943e-02
      9925       9929      1   0.012677  -0.012211     3.00055e-01     6.91943e-02
      9925       9928      1   0.012677   0.008364     2.60142e-01     2.09200e-02
      9925       9927      1   0.012677   0.008364     2.60142e-01     2.09200e-02
      9924       9929      1   0.012677  -0.012211     3.00055e-01     6.91943e-02
      9924       9928      1   0.012677   0.008364     2.60142e-01     2.09200e-02
      9924       9927      1   0.012677   0.008364     2.60142e-01     2.09200e-02
      9923       9930      1  -0.031787   0.008477     3.00055e-01     6.91943e-02
      9923       9931      1  -0.031787   0.008477     3.00055e-01     6.91943e-02
      9922       9926      1   0.017208  -0.017521     3.00055e-01     6.91943e-02
      9922       9924      1   0.017208   0.010564     2.60142e-01     2.09200e-02
      9922       9925      1   0.017208   0.010564     2.60142e-01     2.09200e-02
      9921       9926      1   0.017208  -0.017521     3.00055e-01     6.91943e-02
      9921       9924      1   0.017208   0.010564     2.60142e-01     2.09200e-02
      9921       9925      1   0.017208   0.010564     2.60142e-01     2.09200e-02
      9920       9928      1  -0.028094   0.008364     3.00055e-01     6.91943e-02
      9920       9927      1  -0.028094   0.008364     3.00055e-01     6.91943e-02
      9919       9923      1   0.007531  -0.026489     3.00055e-01     6.91943e-02
      9919       9922      1   0.007531   0.014340     2.60142e-01     2.09200e-02
      9919       9921      1   0.007531   0.014340     2.60142e-01     2.09200e-02
      9918       9923      1   0.007531  -0.026489     3.00055e-01     6.91943e-02
      9918       9922      1   0.007531   0.014340     2.60142e-01     2.09200e-02
      9918       9921      1   0.007531   0.014340     2.60142e-01     2.09200e-02
      9917       9924      1   0.017463   0.010564     3.00055e-01     6.91943e-02
      9917       9925      1   0.017463   0.010564     3.00055e-01     6.91943e-02
      9916       9920      1   0.025511  -0.023412     3.00055e-01     6.91943e-02
      9916       9918      1   0.025511   0.006276     2.60142e-01     2.09200e-02
      9916       9919      1   0.025511   0.006276     2.60142e-01     2.09200e-02
      9915       9920      1   0.025511  -0.023412     3.00055e-01     6.91943e-02
      9915       9918      1   0.025511   0.006276     2.60142e-01     2.09200e-02
      9915       9919      1   0.025511   0.006276     2.60142e-01     2.09200e-02
      9914       9922      1  -0.111712   0.014340     3.00055e-01     6.91943e-02
      9914       9921      1  -0.111712   0.014340     3.00055e-01     6.91943e-02
      9913       9920      1   0.025511  -0.023412     3.00055e-01     6.91943e-02
      9913       9918      1   0.025511   0.006276     2.60142e-01     2.09200e-02
      9913       9919      1   0.025511   0.006276     2.60142e-01     2.09200e-02
      9990      10030      1  -0.673755   0.044953     2.78067e-01     9.58675e-02
      9990      10029      1  -0.673755   0.044953     2.78067e-01     9.58675e-02
      9989      10027      1   0.897613   0.015716     3.00055e-01     6.13495e-02
      9989      10026      1   0.897613   0.015716     3.00055e-01     6.13495e-02
      9988      10030      1  -0.552948   0.044953     2.80072e-01     8.62554e-02
      9988      10029      1  -0.552948   0.044953     2.80072e-01     8.62554e-02
      9981       9982      1   0.172230  -0.282478     2.67982e-01     8.67002e-02
      9980       9982      1   0.172230  -0.282478     2.67982e-01     8.67002e-02
      9979       9982      1   0.172230  -0.282478     2.67982e-01     8.67002e-02
      9978       9983      1  -0.338973   0.143525     2.67982e-01     8.67002e-02
      9978       9984      1  -0.338973   0.143525     2.67982e-01     8.67002e-02
      9978       9985      1  -0.338973   0.143525     2.67982e-01     8.67002e-02
      9977       9978      1   0.172230  -0.282478     2.67982e-01     8.67002e-02
      9977       9982      1   0.172230  -0.282478     2.67982e-01     8.67002e-02
      9976       9978      1   0.172230  -0.282478     2.67982e-01     8.67002e-02
      9976       9982      1   0.172230  -0.282478     2.67982e-01     8.67002e-02
      9975       9978      1   0.172230  -0.282478     2.67982e-01     8.67002e-02
      9975       9982      1   0.172230  -0.282478     2.67982e-01     8.67002e-02
      9974       9979      1  -0.338973   0.143525     2.67982e-01     8.67002e-02
      9974       9980      1  -0.338973   0.143525     2.67982e-01     8.67002e-02
      9974       9981      1  -0.338973   0.143525     2.67982e-01     8.67002e-02
      9974       9983      1  -0.338973   0.143525     2.67982e-01     8.67002e-02
      9974       9984      1  -0.338973   0.143525     2.67982e-01     8.67002e-02
      9974       9985      1  -0.338973   0.143525     2.67982e-01     8.67002e-02
      9972       9974      1   0.136415  -0.282478     2.67982e-01     8.67002e-02
      9972       9978      1   0.136415  -0.282478     2.67982e-01     8.67002e-02
      9972       9982      1   0.136415  -0.282478     2.67982e-01     8.67002e-02
      9971       9974      1   0.136415  -0.282478     2.67982e-01     8.67002e-02
      9971       9978      1   0.136415  -0.282478     2.67982e-01     8.67002e-02
      9971       9982      1   0.136415  -0.282478     2.67982e-01     8.67002e-02
      9970       9975      1  -0.170824   0.143525     2.67982e-01     8.67002e-02
      9970       9976      1  -0.170824   0.143525     2.67982e-01     8.67002e-02
      9970       9977      1  -0.170824   0.143525     2.67982e-01     8.67002e-02
      9970       9979      1  -0.170824   0.143525     2.67982e-01     8.67002e-02
      9970       9980      1  -0.170824   0.143525     2.67982e-01     8.67002e-02
      9970       9981      1  -0.170824   0.143525     2.67982e-01     8.67002e-02
      9970       9983      1  -0.170824   0.143525     2.67982e-01     8.67002e-02
      9970       9984      1  -0.170824   0.143525     2.67982e-01     8.67002e-02
      9970       9985      1  -0.170824   0.143525     2.67982e-01     8.67002e-02
      9969       9971      1   0.078534   0.113679     2.21567e-01     3.28444e-02
      9969       9972      1   0.078534   0.113679     2.21567e-01     3.28444e-02
      9969       9973      1   0.078534   0.204385     2.86068e-01     1.08078e-01
      9968       9971      1   0.078534   0.113679     2.21567e-01     3.28444e-02
      9968       9972      1   0.078534   0.113679     2.21567e-01     3.28444e-02
      9968       9973      1   0.078534   0.204385     2.86068e-01     1.08078e-01
      9966       9971      1  -0.508176   0.113679     2.47999e-01     1.08078e-01
      9966       9972      1  -0.508176   0.113679     2.47999e-01     1.08078e-01
      9965       9968      1   1.339721   0.065445     3.10656e-01     1.17227e-01
      9965       9969      1   1.339721   0.065445     3.10656e-01     1.17227e-01
      9963       9988      1   0.095591  -0.460790     2.73568e-01     1.08078e-01
      9963       9965      1   0.095591   1.116434     3.10656e-01     1.17227e-01
      9962       9988      1   0.095591  -0.460790     2.73568e-01     1.08078e-01
      9962       9965      1   0.095591   1.116434     3.10656e-01     1.17227e-01
      9960       9962      1   0.063253   0.079659     2.47135e-01     3.28444e-02
      9960       9963      1   0.063253   0.079659     2.47135e-01     3.28444e-02
      9960       9964      1   0.063253  -0.424567     2.73568e-01     1.08078e-01
      9960       9989      1   0.063253   0.748011     2.93551e-01     7.68707e-02
      9958       9960      1   0.070469   0.052711     2.47135e-01     3.28444e-02
      9958       9961      1   0.070469   0.014549     2.93551e-01     8.67002e-02
      9958       9988      1   0.070469  -0.460790     2.73568e-01     1.08078e-01
      9957       9960      1   0.070469   0.052711     2.47135e-01     3.28444e-02
      9957       9961      1   0.070469   0.014549     2.93551e-01     8.67002e-02
      9957       9988      1   0.070469  -0.460790     2.73568e-01     1.08078e-01
      9956       9962      1   0.196939   0.079659     2.93551e-01     8.67002e-02
      9956       9963      1   0.196939   0.079659     2.93551e-01     8.67002e-02
      9955       9960      1  -0.575489   0.052711     2.73568e-01     1.08078e-01
      9953       9957      1   0.910403   0.058724     2.93551e-01     7.68707e-02
      9953       9958      1   0.910403   0.058724     2.93551e-01     7.68707e-02
     10027      10030      1   0.018859   0.044953     2.60142e-01     2.09200e-02
     10027      10029      1   0.018859   0.044953     2.60142e-01     2.09200e-02
     10026      10030      1   0.018859   0.044953     2.60142e-01     2.09200e-02
     10026      10029      1   0.018859   0.044953     2.60142e-01     2.09200e-02
     10024      10028      1   0.020431  -0.136833     3.00055e-01     6.91943e-02
     10024      10027      1   0.020431   0.015716     2.60142e-01     2.09200e-02
     10024      10026      1   0.020431   0.015716     2.60142e-01     2.09200e-02
     10023      10028      1   0.020431  -0.136833     3.00055e-01     6.91943e-02
     10023      10027      1   0.020431   0.015716     2.60142e-01     2.09200e-02
     10023      10026      1   0.020431   0.015716     2.60142e-01     2.09200e-02
     10022      10030      1  -0.026954   0.044953     3.00055e-01     6.91943e-02
     10022      10029      1  -0.026954   0.044953     3.00055e-01     6.91943e-02
     10021      10025      1   0.010573  -0.002029     3.00055e-01     6.91943e-02
     10021      10024      1   0.010573   0.017026     2.60142e-01     2.09200e-02
     10021      10023      1   0.010573   0.017026     2.60142e-01     2.09200e-02
     10020      10025      1   0.010573  -0.002029     3.00055e-01     6.91943e-02
     10020      10024      1   0.010573   0.017026     2.60142e-01     2.09200e-02
     10020      10023      1   0.010573   0.017026     2.60142e-01     2.09200e-02
     10019      10027      1  -0.016521   0.015716     3.00055e-01     6.91943e-02
     10019      10026      1  -0.016521   0.015716     3.00055e-01     6.91943e-02
     10018      10022      1   0.011511  -0.022462     3.00055e-01     6.91943e-02
     10018      10020      1   0.011511   0.008811     2.60142e-01     2.09200e-02
     10018      10021      1   0.011511   0.008811     2.60142e-01     2.09200e-02
     10017      10022      1   0.011511  -0.022462     3.00055e-01     6.91943e-02
     10017      10020      1   0.011511   0.008811     2.60142e-01     2.09200e-02
     10017      10021      1   0.011511   0.008811     2.60142e-01     2.09200e-02
     10016      10024      1  -0.027812   0.017026     3.00055e-01     6.91943e-02
     10016      10023      1  -0.027812   0.017026     3.00055e-01     6.91943e-02
     10015      10019      1   0.006833  -0.013767     3.00055e-01     6.91943e-02
     10015      10017      1   0.006833   0.009592     2.60142e-01     2.09200e-02
     10015      10018      1   0.006833   0.009592     2.60142e-01     2.09200e-02
     10014      10019      1   0.006833  -0.013767     3.00055e-01     6.91943e-02
     10014      10017      1   0.006833   0.009592     2.60142e-01     2.09200e-02
     10014      10018      1   0.006833   0.009592     2.60142e-01     2.09200e-02
     10013      10020      1  -0.004386   0.008811     3.00055e-01     6.91943e-02
     10013      10021      1  -0.004386   0.008811     3.00055e-01     6.91943e-02
     10012      10016      1   0.011241  -0.023177     3.00055e-01     6.91943e-02
     10012      10014      1   0.011241   0.005694     2.60142e-01     2.09200e-02
     10012      10015      1   0.011241   0.005694     2.60142e-01     2.09200e-02
     10011      10016      1   0.011241  -0.023177     3.00055e-01     6.91943e-02
     10011      10014      1   0.011241   0.005694     2.60142e-01     2.09200e-02
     10011      10015      1   0.011241   0.005694     2.60142e-01     2.09200e-02
     10010      10017      1  -0.026451   0.009592     3.00055e-01     6.91943e-02
     10010      10018      1  -0.026451   0.009592     3.00055e-01     6.91943e-02
     10009      10013      1   0.010172  -0.003655     3.00055e-01     6.91943e-02
     10009      10012      1   0.010172   0.009367     2.60142e-01     2.09200e-02
     10009      10011      1   0.010172   0.009367     2.60142e-01     2.09200e-02
     10008      10013      1   0.010172  -0.003655     3.00055e-01     6.91943e-02
     10008      10012      1   0.010172   0.009367     2.60142e-01     2.09200e-02
     10008      10011      1   0.010172   0.009367     2.60142e-01     2.09200e-02
     10007      10014      1  -0.014653   0.005694     3.00055e-01     6.91943e-02
     10007      10015      1  -0.014653   0.005694     3.00055e-01     6.91943e-02
     10006      10010      1   0.010037  -0.022042     3.00055e-01     6.91943e-02
     10006      10008      1   0.010037   0.008477     2.60142e-01     2.09200e-02
     10006      10009      1   0.010037   0.008477     2.60142e-01     2.09200e-02
     10005      10010      1   0.010037  -0.022042     3.00055e-01     6.91943e-02
     10005      10008      1   0.010037   0.008477     2.60142e-01     2.09200e-02
     10005      10009      1   0.010037   0.008477     2.60142e-01     2.09200e-02
     10004      10012      1  -0.021025   0.009367     3.00055e-01     6.91943e-02
     10004      10011      1  -0.021025   0.009367     3.00055e-01     6.91943e-02
     10003      10007      1   0.012677  -0.012211     3.00055e-01     6.91943e-02
     10003      10006      1   0.012677   0.008364     2.60142e-01     2.09200e-02
     10003      10005      1   0.012677   0.008364     2.60142e-01     2.09200e-02
     10002      10007      1   0.012677  -0.012211     3.00055e-01     6.91943e-02
     10002      10006      1   0.012677   0.008364     2.60142e-01     2.09200e-02
     10002      10005      1   0.012677   0.008364     2.60142e-01     2.09200e-02
     10001      10008      1  -0.031787   0.008477     3.00055e-01     6.91943e-02
     10001      10009      1  -0.031787   0.008477     3.00055e-01     6.91943e-02
     10000      10004      1   0.017208  -0.017521     3.00055e-01     6.91943e-02
     10000      10002      1   0.017208   0.010564     2.60142e-01     2.09200e-02
     10000      10003      1   0.017208   0.010564     2.60142e-01     2.09200e-02
      9999      10004      1   0.017208  -0.017521     3.00055e-01     6.91943e-02
      9999      10002      1   0.017208   0.010564     2.60142e-01     2.09200e-02
      9999      10003      1   0.017208   0.010564     2.60142e-01     2.09200e-02
      9998      10006      1  -0.028094   0.008364     3.00055e-01     6.91943e-02
      9998      10005      1  -0.028094   0.008364     3.00055e-01     6.91943e-02
      9997      10001      1   0.007531  -0.026489     3.00055e-01     6.91943e-02
      9997      10000      1   0.007531   0.014340     2.60142e-01     2.09200e-02
      9997       9999      1   0.007531   0.014340     2.60142e-01     2.09200e-02
      9996      10001      1   0.007531  -0.026489     3.00055e-01     6.91943e-02
      9996      10000      1   0.007531   0.014340     2.60142e-01     2.09200e-02
      9996       9999      1   0.007531   0.014340     2.60142e-01     2.09200e-02
      9995      10002      1   0.017463   0.010564     3.00055e-01     6.91943e-02
      9995      10003      1   0.017463   0.010564     3.00055e-01     6.91943e-02
      9994       9998      1   0.025511  -0.023412     3.00055e-01     6.91943e-02
      9994       9996      1   0.025511   0.006276     2.60142e-01     2.09200e-02
      9994       9997      1   0.025511   0.006276     2.60142e-01     2.09200e-02
      9993       9998      1   0.025511  -0.023412     3.00055e-01     6.91943e-02
      9993       9996      1   0.025511   0.006276     2.60142e-01     2.09200e-02
      9993       9997      1   0.025511   0.006276     2.60142e-01     2.09200e-02
      9992      10000      1  -0.111712   0.014340     3.00055e-01     6.91943e-02
      9992       9999      1  -0.111712   0.014340     3.00055e-01     6.91943e-02
      9991       9998      1   0.025511  -0.023412     3.00055e-01     6.91943e-02
      9991       9996      1   0.025511   0.006276     2.60142e-01     2.09200e-02
      9991       9997      1   0.025511   0.006276     2.60142e-01     2.09200e-02
     10070      10072      1   0.053944  -0.559638     2.78067e-01     9.58675e-02
     10070      10073      1   0.053944  -0.479574     2.80072e-01     8.62554e-02
     10069      10072      1   0.053944  -0.559638     2.78067e-01     9.58675e-02
     10069      10073      1   0.053944  -0.479574     2.80072e-01     8.62554e-02
     10067      10070      1   0.018859   0.044953     2.60142e-01     2.09200e-02
     10067      10069      1   0.018859   0.044953     2.60142e-01     2.09200e-02
     10067      10071      1   0.018859   0.758669     3.00055e-01     6.13495e-02
     10066      10070      1   0.018859   0.044953     2.60142e-01     2.09200e-02
     10066      10069      1   0.018859   0.044953     2.60142e-01     2.09200e-02
     10066      10071      1   0.018859   0.758669     3.00055e-01     6.13495e-02
     10064      10068      1   0.020431  -0.136833     3.00055e-01     6.91943e-02
     10064      10067      1   0.020431   0.015716     2.60142e-01     2.09200e-02
     10064      10066      1   0.020431   0.015716     2.60142e-01     2.09200e-02
     10063      10068      1   0.020431  -0.136833     3.00055e-01     6.91943e-02
     10063      10067      1   0.020431   0.015716     2.60142e-01     2.09200e-02
     10063      10066      1   0.020431   0.015716     2.60142e-01     2.09200e-02
     10062      10070      1  -0.026954   0.044953     3.00055e-01     6.91943e-02
     10062      10069      1  -0.026954   0.044953     3.00055e-01     6.91943e-02
     10061      10065      1   0.010573  -0.002029     3.00055e-01     6.91943e-02
     10061      10064      1   0.010573   0.017026     2.60142e-01     2.09200e-02
     10061      10063      1   0.010573   0.017026     2.60142e-01     2.09200e-02
     10060      10065      1   0.010573  -0.002029     3.00055e-01     6.91943e-02
     10060      10064      1   0.010573   0.017026     2.60142e-01     2.09200e-02
     10060      10063      1   0.010573   0.017026     2.60142e-01     2.09200e-02
     10059      10067      1  -0.016521   0.015716     3.00055e-01     6.91943e-02
     10059      10066      1  -0.016521   0.015716     3.00055e-01     6.91943e-02
     10058      10062      1   0.011511  -0.022462     3.00055e-01     6.91943e-02
     10058      10060      1   0.011511   0.008811     2.60142e-01     2.09200e-02
     10058      10061      1   0.011511   0.008811     2.60142e-01     2.09200e-02
     10057      10062      1   0.011511  -0.022462     3.00055e-01     6.91943e-02
     10057      10060      1   0.011511   0.008811     2.60142e-01     2.09200e-02
     10057      10061      1   0.011511   0.008811     2.60142e-01     2.09200e-02
     10056      10064      1  -0.027812   0.017026     3.00055e-01     6.91943e-02
     10056      10063      1  -0.027812   0.017026     3.00055e-01     6.91943e-02
     10055      10059      1   0.006833  -0.013767     3.00055e-01     6.91943e-02
     10055      10057      1   0.006833   0.009592     2.60142e-01     2.09200e-02
     10055      10058      1   0.006833   0.009592     2.60142e-01     2.09200e-02
     10054      10059      1   0.006833  -0.013767     3.00055e-01     6.91943e-02
     10054      10057      1   0.006833   0.009592     2.60142e-01     2.09200e-02
     10054      10058      1   0.006833   0.009592     2.60142e-01     2.09200e-02
     10053      10060      1  -0.004386   0.008811     3.00055e-01     6.91943e-02
     10053      10061      1  -0.004386   0.008811     3.00055e-01     6.91943e-02
     10052      10056      1   0.011241  -0.023177     3.00055e-01     6.91943e-02
     10052      10054      1   0.011241   0.005694     2.60142e-01     2.09200e-02
     10052      10055      1   0.011241   0.005694     2.60142e-01     2.09200e-02
     10051      10056      1   0.011241  -0.023177     3.00055e-01     6.91943e-02
     10051      10054      1   0.011241   0.005694     2.60142e-01     2.09200e-02
     10051      10055      1   0.011241   0.005694     2.60142e-01     2.09200e-02
     10050      10057      1  -0.026451   0.009592     3.00055e-01     6.91943e-02
     10050      10058      1  -0.026451   0.009592     3.00055e-01     6.91943e-02
     10049      10053      1   0.010172  -0.003655     3.00055e-01     6.91943e-02
     10049      10052      1   0.010172   0.009367     2.60142e-01     2.09200e-02
     10049      10051      1   0.010172   0.009367     2.60142e-01     2.09200e-02
     10048      10053      1   0.010172  -0.003655     3.00055e-01     6.91943e-02
     10048      10052      1   0.010172   0.009367     2.60142e-01     2.09200e-02
     10048      10051      1   0.010172   0.009367     2.60142e-01     2.09200e-02
     10047      10054      1  -0.014653   0.005694     3.00055e-01     6.91943e-02
     10047      10055      1  -0.014653   0.005694     3.00055e-01     6.91943e-02
     10046      10050      1   0.010037  -0.022042     3.00055e-01     6.91943e-02
     10046      10048      1   0.010037   0.008477     2.60142e-01     2.09200e-02
     10046      10049      1   0.010037   0.008477     2.60142e-01     2.09200e-02
     10045      10050      1   0.010037  -0.022042     3.00055e-01     6.91943e-02
     10045      10048      1   0.010037   0.008477     2.60142e-01     2.09200e-02
     10045      10049      1   0.010037   0.008477     2.60142e-01     2.09200e-02
     10044      10052      1  -0.021025   0.009367     3.00055e-01     6.91943e-02
     10044      10051      1  -0.021025   0.009367     3.00055e-01     6.91943e-02
     10043      10047      1   0.012677  -0.012211     3.00055e-01     6.91943e-02
     10043      10046      1   0.012677   0.008364     2.60142e-01     2.09200e-02
     10043      10045      1   0.012677   0.008364     2.60142e-01     2.09200e-02
     10042      10047      1   0.012677  -0.012211     3.00055e-01     6.91943e-02
     10042      10046      1   0.012677   0.008364     2.60142e-01     2.09200e-02
     10042      10045      1   0.012677   0.008364     2.60142e-01     2.09200e-02
     10041      10048      1  -0.031787   0.008477     3.00055e-01     6.91943e-02
     10041      10049      1  -0.031787   0.008477     3.00055e-01     6.91943e-02
     10040      10044      1   0.017208  -0.017521     3.00055e-01     6.91943e-02
     10040      10042      1   0.017208   0.010564     2.60142e-01     2.09200e-02
     10040      10043      1   0.017208   0.010564     2.60142e-01     2.09200e-02
     10039      10044      1   0.017208  -0.017521     3.00055e-01     6.91943e-02
     10039      10042      1   0.017208   0.010564     2.60142e-01     2.09200e-02
     10039      10043      1   0.017208   0.010564     2.60142e-01     2.09200e-02
     10038      10046      1  -0.028094   0.008364     3.00055e-01     6.91943e-02
     10038      10045      1  -0.028094   0.008364     3.00055e-01     6.91943e-02
     10037      10041      1   0.007531  -0.026489     3.00055e-01     6.91943e-02
     10037      10040      1   0.007531   0.014340     2.60142e-01     2.09200e-02
     10037      10039      1   0.007531   0.014340     2.60142e-01     2.09200e-02
     10036      10041      1   0.007531  -0.026489     3.00055e-01     6.91943e-02
     10036      10040      1   0.007531   0.014340     2.60142e-01     2.09200e-02
     10036      10039      1   0.007531   0.014340     2.60142e-01     2.09200e-02
     10035      10042      1   0.017463   0.010564     3.00055e-01     6.91943e-02
     10035      10043      1   0.017463   0.010564     3.00055e-01     6.91943e-02
     10034      10038      1   0.025511  -0.023412     3.00055e-01     6.91943e-02
     10034      10036      1   0.025511   0.006276     2.60142e-01     2.09200e-02
     10034      10037      1   0.025511   0.006276     2.60142e-01     2.09200e-02
     10033      10038      1   0.025511  -0.023412     3.00055e-01     6.91943e-02
     10033      10036      1   0.025511   0.006276     2.60142e-01     2.09200e-02
     10033      10037      1   0.025511   0.006276     2.60142e-01     2.09200e-02
     10032      10040      1  -0.111712   0.014340     3.00055e-01     6.91943e-02
     10032      10039      1  -0.111712   0.014340     3.00055e-01     6.91943e-02
     10031      10038      1   0.025511  -0.023412     3.00055e-01     6.91943e-02
     10031      10036      1   0.025511   0.006276     2.60142e-01     2.09200e-02
     10031      10037      1   0.025511   0.006276     2.60142e-01     2.09200e-02
     10108      10148      1  -0.673755   0.044953     2.78067e-01     9.58675e-02
     10108      10147      1  -0.673755   0.044953     2.78067e-01     9.58675e-02
     10107      10145      1   0.897613   0.015716     3.00055e-01     6.13495e-02
     10107      10144      1   0.897613   0.015716     3.00055e-01     6.13495e-02
     10106      10148      1  -0.552948   0.044953     2.80072e-01     8.62554e-02
     10106      10147      1  -0.552948   0.044953     2.80072e-01     8.62554e-02
     10099      10100      1   0.172230  -0.282478     2.67982e-01     8.67002e-02
     10098      10100      1   0.172230  -0.282478     2.67982e-01     8.67002e-02
     10097      10100      1   0.172230  -0.282478     2.67982e-01     8.67002e-02
     10096      10101      1  -0.338973   0.143525     2.67982e-01     8.67002e-02
     10096      10102      1  -0.338973   0.143525     2.67982e-01     8.67002e-02
     10096      10103      1  -0.338973   0.143525     2.67982e-01     8.67002e-02
     10095      10096      1   0.172230  -0.282478     2.67982e-01     8.67002e-02
     10095      10100      1   0.172230  -0.282478     2.67982e-01     8.67002e-02
     10094      10096      1   0.172230  -0.282478     2.67982e-01     8.67002e-02
     10094      10100      1   0.172230  -0.282478     2.67982e-01     8.67002e-02
     10093      10096      1   0.172230  -0.282478     2.67982e-01     8.67002e-02
     10093      10100      1   0.172230  -0.282478     2.67982e-01     8.67002e-02
     10092      10097      1  -0.338973   0.143525     2.67982e-01     8.67002e-02
     10092      10098      1  -0.338973   0.143525     2.67982e-01     8.67002e-02
     10092      10099      1  -0.338973   0.143525     2.67982e-01     8.67002e-02
     10092      10101      1  -0.338973   0.143525     2.67982e-01     8.67002e-02
     10092      10102      1  -0.338973   0.143525     2.67982e-01     8.67002e-02
     10092      10103      1  -0.338973   0.143525     2.67982e-01     8.67002e-02
     10090      10092      1   0.136415  -0.282478     2.67982e-01     8.67002e-02
     10090      10096      1   0.136415  -0.282478     2.67982e-01     8.67002e-02
     10090      10100      1   0.136415  -0.282478     2.67982e-01     8.67002e-02
     10089      10092      1   0.136415  -0.282478     2.67982e-01     8.67002e-02
     10089      10096      1   0.136415  -0.282478     2.67982e-01     8.67002e-02
     10089      10100      1   0.136415  -0.282478     2.67982e-01     8.67002e-02
     10088      10093      1  -0.170824   0.143525     2.67982e-01     8.67002e-02
     10088      10094      1  -0.170824   0.143525     2.67982e-01     8.67002e-02
     10088      10095      1  -0.170824   0.143525     2.67982e-01     8.67002e-02
     10088      10097      1  -0.170824   0.143525     2.67982e-01     8.67002e-02
     10088      10098      1  -0.170824   0.143525     2.67982e-01     8.67002e-02
     10088      10099      1  -0.170824   0.143525     2.67982e-01     8.67002e-02
     10088      10101      1  -0.170824   0.143525     2.67982e-01     8.67002e-02
     10088      10102      1  -0.170824   0.143525     2.67982e-01     8.67002e-02
     10088      10103      1  -0.170824   0.143525     2.67982e-01     8.67002e-02
     10087      10089      1   0.078534   0.113679     2.21567e-01     3.28444e-02
     10087      10090      1   0.078534   0.113679     2.21567e-01     3.28444e-02
     10087      10091      1   0.078534   0.204385     2.86068e-01     1.08078e-01
     10086      10089      1   0.078534   0.113679     2.21567e-01     3.28444e-02
     10086      10090      1   0.078534   0.113679     2.21567e-01     3.28444e-02
     10086      10091      1   0.078534   0.204385     2.86068e-01     1.08078e-01
     10084      10089      1  -0.508176   0.113679     2.47999e-01     1.08078e-01
     10084      10090      1  -0.508176   0.113679     2.47999e-01     1.08078e-01
     10083      10086      1   1.339721   0.065445     3.10656e-01     1.17227e-01
     10083      10087      1   1.339721   0.065445     3.10656e-01     1.17227e-01
     10081      10106      1   0.095591  -0.460790     2.73568e-01     1.08078e-01
     10081      10083      1   0.095591   1.116434     3.10656e-01     1.17227e-01
     10080      10106      1   0.095591  -0.460790     2.73568e-01     1.08078e-01
     10080      10083      1   0.095591   1.116434     3.10656e-01     1.17227e-01
     10078      10080      1   0.063253   0.079659     2.47135e-01     3.28444e-02
     10078      10081      1   0.063253   0.079659     2.47135e-01     3.28444e-02
     10078      10082      1   0.063253  -0.424567     2.73568e-01     1.08078e-01
     10078      10107      1   0.063253   0.748011     2.93551e-01     7.68707e-02
     10076      10078      1   0.070469   0.052711     2.47135e-01     3.28444e-02
     10076      10079      1   0.070469   0.014549     2.93551e-01     8.67002e-02
     10076      10106      1   0.070469  -0.460790     2.73568e-01     1.08078e-01
     10075      10078      1   0.070469   0.052711     2.47135e-01     3.28444e-02
     10075      10079      1   0.070469   0.014549     2.93551e-01     8.67002e-02
     10075      10106      1   0.070469  -0.460790     2.73568e-01     1.08078e-01
     10074      10080      1   0.196939   0.079659     2.93551e-01     8.67002e-02
     10074      10081      1   0.196939   0.079659     2.93551e-01     8.67002e-02
     10073      10078      1  -0.575489   0.052711     2.73568e-01     1.08078e-01
     10071      10075      1   0.910403   0.058724     2.93551e-01     7.68707e-02
     10071      10076      1   0.910403   0.058724     2.93551e-01     7.68707e-02
     10145      10148      1   0.018859   0.044953     2.60142e-01     2.09200e-02
     10145      10147      1   0.018859   0.044953     2.60142e-01     2.09200e-02
     10144      10148      1   0.018859   0.044953     2.60142e-01     2.09200e-02
     10144      10147      1   0.018859   0.044953     2.60142e-01     2.09200e-02
     10142      10146      1   0.020431  -0.136833     3.00055e-01     6.91943e-02
     10142      10145      1   0.020431   0.015716     2.60142e-01     2.09200e-02
     10142      10144      1   0.020431   0.015716     2.60142e-01     2.09200e-02
     10141      10146      1   0.020431  -0.136833     3.00055e-01     6.91943e-02
     10141      10145      1   0.020431   0.015716     2.60142e-01     2.09200e-02
     10141      10144      1   0.020431   0.015716     2.60142e-01     2.09200e-02
     10140      10148      1  -0.026954   0.044953     3.00055e-01     6.91943e-02
     10140      10147      1  -0.026954   0.044953     3.00055e-01     6.91943e-02
     10139      10143      1   0.010573  -0.002029     3.00055e-01     6.91943e-02
     10139      10142      1   0.010573   0.017026     2.60142e-01     2.09200e-02
     10139      10141      1   0.010573   0.017026     2.60142e-01     2.09200e-02
     10138      10143      1   0.010573  -0.002029     3.00055e-01     6.91943e-02
     10138      10142      1   0.010573   0.017026     2.60142e-01     2.09200e-02
     10138      10141      1   0.010573   0.017026     2.60142e-01     2.09200e-02
     10137      10145      1  -0.016521   0.015716     3.00055e-01     6.91943e-02
     10137      10144      1  -0.016521   0.015716     3.00055e-01     6.91943e-02
     10136      10140      1   0.011511  -0.022462     3.00055e-01     6.91943e-02
     10136      10138      1   0.011511   0.008811     2.60142e-01     2.09200e-02
     10136      10139      1   0.011511   0.008811     2.60142e-01     2.09200e-02
     10135      10140      1   0.011511  -0.022462     3.00055e-01     6.91943e-02
     10135      10138      1   0.011511   0.008811     2.60142e-01     2.09200e-02
     10135      10139      1   0.011511   0.008811     2.60142e-01     2.09200e-02
     10134      10142      1  -0.027812   0.017026     3.00055e-01     6.91943e-02
     10134      10141      1  -0.027812   0.017026     3.00055e-01     6.91943e-02
     10133      10137      1   0.006833  -0.013767     3.00055e-01     6.91943e-02
     10133      10135      1   0.006833   0.009592     2.60142e-01     2.09200e-02
     10133      10136      1   0.006833   0.009592     2.60142e-01     2.09200e-02
     10132      10137      1   0.006833  -0.013767     3.00055e-01     6.91943e-02
     10132      10135      1   0.006833   0.009592     2.60142e-01     2.09200e-02
     10132      10136      1   0.006833   0.009592     2.60142e-01     2.09200e-02
     10131      10138      1  -0.004386   0.008811     3.00055e-01     6.91943e-02
     10131      10139      1  -0.004386   0.008811     3.00055e-01     6.91943e-02
     10130      10134      1   0.011241  -0.023177     3.00055e-01     6.91943e-02
     10130      10132      1   0.011241   0.005694     2.60142e-01     2.09200e-02
     10130      10133      1   0.011241   0.005694     2.60142e-01     2.09200e-02
     10129      10134      1   0.011241  -0.023177     3.00055e-01     6.91943e-02
     10129      10132      1   0.011241   0.005694     2.60142e-01     2.09200e-02
     10129      10133      1   0.011241   0.005694     2.60142e-01     2.09200e-02
     10128      10135      1  -0.026451   0.009592     3.00055e-01     6.91943e-02
     10128      10136      1  -0.026451   0.009592     3.00055e-01     6.91943e-02
     10127      10131      1   0.010172  -0.003655     3.00055e-01     6.91943e-02
     10127      10130      1   0.010172   0.009367     2.60142e-01     2.09200e-02
     10127      10129      1   0.010172   0.009367     2.60142e-01     2.09200e-02
     10126      10131      1   0.010172  -0.003655     3.00055e-01     6.91943e-02
     10126      10130      1   0.010172   0.009367     2.60142e-01     2.09200e-02
     10126      10129      1   0.010172   0.009367     2.60142e-01     2.09200e-02
     10125      10132      1  -0.014653   0.005694     3.00055e-01     6.91943e-02
     10125      10133      1  -0.014653   0.005694     3.00055e-01     6.91943e-02
     10124      10128      1   0.010037  -0.022042     3.00055e-01     6.91943e-02
     10124      10126      1   0.010037   0.008477     2.60142e-01     2.09200e-02
     10124      10127      1   0.010037   0.008477     2.60142e-01     2.09200e-02
     10123      10128      1   0.010037  -0.022042     3.00055e-01     6.91943e-02
     10123      10126      1   0.010037   0.008477     2.60142e-01     2.09200e-02
     10123      10127      1   0.010037   0.008477     2.60142e-01     2.09200e-02
     10122      10130      1  -0.021025   0.009367     3.00055e-01     6.91943e-02
     10122      10129      1  -0.021025   0.009367     3.00055e-01     6.91943e-02
     10121      10125      1   0.012677  -0.012211     3.00055e-01     6.91943e-02
     10121      10124      1   0.012677   0.008364     2.60142e-01     2.09200e-02
     10121      10123      1   0.012677   0.008364     2.60142e-01     2.09200e-02
     10120      10125      1   0.012677  -0.012211     3.00055e-01     6.91943e-02
     10120      10124      1   0.012677   0.008364     2.60142e-01     2.09200e-02
     10120      10123      1   0.012677   0.008364     2.60142e-01     2.09200e-02
     10119      10126      1  -0.031787   0.008477     3.00055e-01     6.91943e-02
     10119      10127      1  -0.031787   0.008477     3.00055e-01     6.91943e-02
     10118      10122      1   0.017208  -0.017521     3.00055e-01     6.91943e-02
     10118      10120      1   0.017208   0.010564     2.60142e-01     2.09200e-02
     10118      10121      1   0.017208   0.010564     2.60142e-01     2.09200e-02
     10117      10122      1   0.017208  -0.017521     3.00055e-01     6.91943e-02
     10117      10120      1   0.017208   0.010564     2.60142e-01     2.09200e-02
     10117      10121      1   0.017208   0.010564     2.60142e-01     2.09200e-02
     10116      10124      1  -0.028094   0.008364     3.00055e-01     6.91943e-02
     10116      10123      1  -0.028094   0.008364     3.00055e-01     6.91943e-02
     10115      10119      1   0.007531  -0.026489     3.00055e-01     6.91943e-02
     10115      10118      1   0.007531   0.014340     2.60142e-01     2.09200e-02
     10115      10117      1   0.007531   0.014340     2.60142e-01     2.09200e-02
     10114      10119      1   0.007531  -0.026489     3.00055e-01     6.91943e-02
     10114      10118      1   0.007531   0.014340     2.60142e-01     2.09200e-02
     10114      10117      1   0.007531   0.014340     2.60142e-01     2.09200e-02
     10113      10120      1   0.017463   0.010564     3.00055e-01     6.91943e-02
     10113      10121      1   0.017463   0.010564     3.00055e-01     6.91943e-02
     10112      10116      1   0.025511  -0.023412     3.00055e-01     6.91943e-02
     10112      10114      1   0.025511   0.006276     2.60142e-01     2.09200e-02
     10112      10115      1   0.025511   0.006276     2.60142e-01     2.09200e-02
     10111      10116      1   0.025511  -0.023412     3.00055e-01     6.91943e-02
     10111      10114      1   0.025511   0.006276     2.60142e-01     2.09200e-02
     10111      10115      1   0.025511   0.006276     2.60142e-01     2.09200e-02
     10110      10118      1  -0.111712   0.014340     3.00055e-01     6.91943e-02
     10110      10117      1  -0.111712   0.014340     3.00055e-01     6.91943e-02
     10109      10116      1   0.025511  -0.023412     3.00055e-01     6.91943e-02
     10109      10114      1   0.025511   0.006276     2.60142e-01     2.09200e-02
     10109      10115      1   0.025511   0.006276     2.60142e-01     2.09200e-02
     10188      10190      1   0.053944  -0.559638     2.78067e-01     9.58675e-02
     10188      10191      1   0.053944  -0.479574     2.80072e-01     8.62554e-02
     10187      10190      1   0.053944  -0.559638     2.78067e-01     9.58675e-02
     10187      10191      1   0.053944  -0.479574     2.80072e-01     8.62554e-02
     10185      10188      1   0.018859   0.044953     2.60142e-01     2.09200e-02
     10185      10187      1   0.018859   0.044953     2.60142e-01     2.09200e-02
     10185      10189      1   0.018859   0.758669     3.00055e-01     6.13495e-02
     10184      10188      1   0.018859   0.044953     2.60142e-01     2.09200e-02
     10184      10187      1   0.018859   0.044953     2.60142e-01     2.09200e-02
     10184      10189      1   0.018859   0.758669     3.00055e-01     6.13495e-02
     10182      10186      1   0.020431  -0.136833     3.00055e-01     6.91943e-02
     10182      10185      1   0.020431   0.015716     2.60142e-01     2.09200e-02
     10182      10184      1   0.020431   0.015716     2.60142e-01     2.09200e-02
     10181      10186      1   0.020431  -0.136833     3.00055e-01     6.91943e-02
     10181      10185      1   0.020431   0.015716     2.60142e-01     2.09200e-02
     10181      10184      1   0.020431   0.015716     2.60142e-01     2.09200e-02
     10180      10188      1  -0.026954   0.044953     3.00055e-01     6.91943e-02
     10180      10187      1  -0.026954   0.044953     3.00055e-01     6.91943e-02
     10179      10183      1   0.010573  -0.002029     3.00055e-01     6.91943e-02
     10179      10182      1   0.010573   0.017026     2.60142e-01     2.09200e-02
     10179      10181      1   0.010573   0.017026     2.60142e-01     2.09200e-02
     10178      10183      1   0.010573  -0.002029     3.00055e-01     6.91943e-02
     10178      10182      1   0.010573   0.017026     2.60142e-01     2.09200e-02
     10178      10181      1   0.010573   0.017026     2.60142e-01     2.09200e-02
     10177      10185      1  -0.016521   0.015716     3.00055e-01     6.91943e-02
     10177      10184      1  -0.016521   0.015716     3.00055e-01     6.91943e-02
     10176      10180      1   0.011511  -0.022462     3.00055e-01     6.91943e-02
     10176      10178      1   0.011511   0.008811     2.60142e-01     2.09200e-02
     10176      10179      1   0.011511   0.008811     2.60142e-01     2.09200e-02
     10175      10180      1   0.011511  -0.022462     3.00055e-01     6.91943e-02
     10175      10178      1   0.011511   0.008811     2.60142e-01     2.09200e-02
     10175      10179      1   0.011511   0.008811     2.60142e-01     2.09200e-02
     10174      10182      1  -0.027812   0.017026     3.00055e-01     6.91943e-02
     10174      10181      1  -0.027812   0.017026     3.00055e-01     6.91943e-02
     10173      10177      1   0.006833  -0.013767     3.00055e-01     6.91943e-02
     10173      10175      1   0.006833   0.009592     2.60142e-01     2.09200e-02
     10173      10176      1   0.006833   0.009592     2.60142e-01     2.09200e-02
     10172      10177      1   0.006833  -0.013767     3.00055e-01     6.91943e-02
     10172      10175      1   0.006833   0.009592     2.60142e-01     2.09200e-02
     10172      10176      1   0.006833   0.009592     2.60142e-01     2.09200e-02
     10171      10178      1  -0.004386   0.008811     3.00055e-01     6.91943e-02
     10171      10179      1  -0.004386   0.008811     3.00055e-01     6.91943e-02
     10170      10174      1   0.011241  -0.023177     3.00055e-01     6.91943e-02
     10170      10172      1   0.011241   0.005694     2.60142e-01     2.09200e-02
     10170      10173      1   0.011241   0.005694     2.60142e-01     2.09200e-02
     10169      10174      1   0.011241  -0.023177     3.00055e-01     6.91943e-02
     10169      10172      1   0.011241   0.005694     2.60142e-01     2.09200e-02
     10169      10173      1   0.011241   0.005694     2.60142e-01     2.09200e-02
     10168      10175      1  -0.026451   0.009592     3.00055e-01     6.91943e-02
     10168      10176      1  -0.026451   0.009592     3.00055e-01     6.91943e-02
     10167      10171      1   0.010172  -0.003655     3.00055e-01     6.91943e-02
     10167      10170      1   0.010172   0.009367     2.60142e-01     2.09200e-02
     10167      10169      1   0.010172   0.009367     2.60142e-01     2.09200e-02
     10166      10171      1   0.010172  -0.003655     3.00055e-01     6.91943e-02
     10166      10170      1   0.010172   0.009367     2.60142e-01     2.09200e-02
     10166      10169      1   0.010172   0.009367     2.60142e-01     2.09200e-02
     10165      10172      1  -0.014653   0.005694     3.00055e-01     6.91943e-02
     10165      10173      1  -0.014653   0.005694     3.00055e-01     6.91943e-02
     10164      10168      1   0.010037  -0.022042     3.00055e-01     6.91943e-02
     10164      10166      1   0.010037   0.008477     2.60142e-01     2.09200e-02
     10164      10167      1   0.010037   0.008477     2.60142e-01     2.09200e-02
     10163      10168      1   0.010037  -0.022042     3.00055e-01     6.91943e-02
     10163      10166      1   0.010037   0.008477     2.60142e-01     2.09200e-02
     10163      10167      1   0.010037   0.008477     2.60142e-01     2.09200e-02
     10162      10170      1  -0.021025   0.009367     3.00055e-01     6.91943e-02
     10162      10169      1  -0.021025   0.009367     3.00055e-01     6.91943e-02
     10161      10165      1   0.012677  -0.012211     3.00055e-01     6.91943e-02
     10161      10164      1   0.012677   0.008364     2.60142e-01     2.09200e-02
     10161      10163      1   0.012677   0.008364     2.60142e-01     2.09200e-02
     10160      10165      1   0.012677  -0.012211     3.00055e-01     6.91943e-02
     10160      10164      1   0.012677   0.008364     2.60142e-01     2.09200e-02
     10160      10163      1   0.012677   0.008364     2.60142e-01     2.09200e-02
     10159      10166      1  -0.031787   0.008477     3.00055e-01     6.91943e-02
     10159      10167      1  -0.031787   0.008477     3.00055e-01     6.91943e-02
     10158      10162      1   0.017208  -0.017521     3.00055e-01     6.91943e-02
     10158      10160      1   0.017208   0.010564     2.60142e-01     2.09200e-02
     10158      10161      1   0.017208   0.010564     2.60142e-01     2.09200e-02
     10157      10162      1   0.017208  -0.017521     3.00055e-01     6.91943e-02
     10157      10160      1   0.017208   0.010564     2.60142e-01     2.09200e-02
     10157      10161      1   0.017208   0.010564     2.60142e-01     2.09200e-02
     10156      10164      1  -0.028094   0.008364     3.00055e-01     6.91943e-02
     10156      10163      1  -0.028094   0.008364     3.00055e-01     6.91943e-02
     10155      10159      1   0.007531  -0.026489     3.00055e-01     6.91943e-02
     10155      10158      1   0.007531   0.014340     2.60142e-01     2.09200e-02
     10155      10157      1   0.007531   0.014340     2.60142e-01     2.09200e-02
     10154      10159      1   0.007531  -0.026489     3.00055e-01     6.91943e-02
     10154      10158      1   0.007531   0.014340     2.60142e-01     2.09200e-02
     10154      10157      1   0.007531   0.014340     2.60142e-01     2.09200e-02
     10153      10160      1   0.017463   0.010564     3.00055e-01     6.91943e-02
     10153      10161      1   0.017463   0.010564     3.00055e-01     6.91943e-02
     10152      10156      1   0.025511  -0.023412     3.00055e-01     6.91943e-02
     10152      10154      1   0.025511   0.006276     2.60142e-01     2.09200e-02
     10152      10155      1   0.025511   0.006276     2.60142e-01     2.09200e-02
     10151      10156      1   0.025511  -0.023412     3.00055e-01     6.91943e-02
     10151      10154      1   0.025511   0.006276     2.60142e-01     2.09200e-02
     10151      10155      1   0.025511   0.006276     2.60142e-01     2.09200e-02
     10150      10158      1  -0.111712   0.014340     3.00055e-01     6.91943e-02
     10150      10157      1  -0.111712   0.014340     3.00055e-01     6.91943e-02
     10149      10156      1   0.025511  -0.023412     3.00055e-01     6.91943e-02
     10149      10154      1   0.025511   0.006276     2.60142e-01     2.09200e-02
     10149      10155      1   0.025511   0.006276     2.60142e-01     2.09200e-02
     10226      10266      1  -0.673755   0.044953     2.78067e-01     9.58675e-02
     10226      10265      1  -0.673755   0.044953     2.78067e-01     9.58675e-02
     10225      10263      1   0.897613   0.015716     3.00055e-01     6.13495e-02
     10225      10262      1   0.897613   0.015716     3.00055e-01     6.13495e-02
     10224      10266      1  -0.552948   0.044953     2.80072e-01     8.62554e-02
     10224      10265      1  -0.552948   0.044953     2.80072e-01     8.62554e-02
     10217      10218      1   0.172230  -0.282478     2.67982e-01     8.67002e-02
     10216      10218      1   0.172230  -0.282478     2.67982e-01     8.67002e-02
     10215      10218      1   0.172230  -0.282478     2.67982e-01     8.67002e-02
     10214      10219      1  -0.338973   0.143525     2.67982e-01     8.67002e-02
     10214      10220      1  -0.338973   0.143525     2.67982e-01     8.67002e-02
     10214      10221      1  -0.338973   0.143525     2.67982e-01     8.67002e-02
     10213      10214      1   0.172230  -0.282478     2.67982e-01     8.67002e-02
     10213      10218      1   0.172230  -0.282478     2.67982e-01     8.67002e-02
     10212      10214      1   0.172230  -0.282478     2.67982e-01     8.67002e-02
     10212      10218      1   0.172230  -0.282478     2.67982e-01     8.67002e-02
     10211      10214      1   0.172230  -0.282478     2.67982e-01     8.67002e-02
     10211      10218      1   0.172230  -0.282478     2.67982e-01     8.67002e-02
     10210      10215      1  -0.338973   0.143525     2.67982e-01     8.67002e-02
     10210      10216      1  -0.338973   0.143525     2.67982e-01     8.67002e-02
     10210      10217      1  -0.338973   0.143525     2.67982e-01     8.67002e-02
     10210      10219      1  -0.338973   0.143525     2.67982e-01     8.67002e-02
     10210      10220      1  -0.338973   0.143525     2.67982e-01     8.67002e-02
     10210      10221      1  -0.338973   0.143525     2.67982e-01     8.67002e-02
     10208      10210      1   0.136415  -0.282478     2.67982e-01     8.67002e-02
     10208      10214      1   0.136415  -0.282478     2.67982e-01     8.67002e-02
     10208      10218      1   0.136415  -0.282478     2.67982e-01     8.67002e-02
     10207      10210      1   0.136415  -0.282478     2.67982e-01     8.67002e-02
     10207      10214      1   0.136415  -0.282478     2.67982e-01     8.67002e-02
     10207      10218      1   0.136415  -0.282478     2.67982e-01     8.67002e-02
     10206      10211      1  -0.170824   0.143525     2.67982e-01     8.67002e-02
     10206      10212      1  -0.170824   0.143525     2.67982e-01     8.67002e-02
     10206      10213      1  -0.170824   0.143525     2.67982e-01     8.67002e-02
     10206      10215      1  -0.170824   0.143525     2.67982e-01     8.67002e-02
     10206      10216      1  -0.170824   0.143525     2.67982e-01     8.67002e-02
     10206      10217      1  -0.170824   0.143525     2.67982e-01     8.67002e-02
     10206      10219      1  -0.170824   0.143525     2.67982e-01     8.67002e-02
     10206      10220      1  -0.170824   0.143525     2.67982e-01     8.67002e-02
     10206      10221      1  -0.170824   0.143525     2.67982e-01     8.67002e-02
     10205      10207      1   0.078534   0.113679     2.21567e-01     3.28444e-02
     10205      10208      1   0.078534   0.113679     2.21567e-01     3.28444e-02
     10205      10209      1   0.078534   0.204385     2.86068e-01     1.08078e-01
     10204      10207      1   0.078534   0.113679     2.21567e-01     3.28444e-02
     10204      10208      1   0.078534   0.113679     2.21567e-01     3.28444e-02
     10204      10209      1   0.078534   0.204385     2.86068e-01     1.08078e-01
     10202      10207      1  -0.508176   0.113679     2.47999e-01     1.08078e-01
     10202      10208      1  -0.508176   0.113679     2.47999e-01     1.08078e-01
     10201      10204      1   1.339721   0.065445     3.10656e-01     1.17227e-01
     10201      10205      1   1.339721   0.065445     3.10656e-01     1.17227e-01
     10199      10224      1   0.095591  -0.460790     2.73568e-01     1.08078e-01
     10199      10201      1   0.095591   1.116434     3.10656e-01     1.17227e-01
     10198      10224      1   0.095591  -0.460790     2.73568e-01     1.08078e-01
     10198      10201      1   0.095591   1.116434     3.10656e-01     1.17227e-01
     10196      10198      1   0.063253   0.079659     2.47135e-01     3.28444e-02
     10196      10199      1   0.063253   0.079659     2.47135e-01     3.28444e-02
     10196      10200      1   0.063253  -0.424567     2.73568e-01     1.08078e-01
     10196      10225      1   0.063253   0.748011     2.93551e-01     7.68707e-02
     10194      10196      1   0.070469   0.052711     2.47135e-01     3.28444e-02
     10194      10197      1   0.070469   0.014549     2.93551e-01     8.67002e-02
     10194      10224      1   0.070469  -0.460790     2.73568e-01     1.08078e-01
     10193      10196      1   0.070469   0.052711     2.47135e-01     3.28444e-02
     10193      10197      1   0.070469   0.014549     2.93551e-01     8.67002e-02
     10193      10224      1   0.070469  -0.460790     2.73568e-01     1.08078e-01
     10192      10198      1   0.196939   0.079659     2.93551e-01     8.67002e-02
     10192      10199      1   0.196939   0.079659     2.93551e-01     8.67002e-02
     10191      10196      1  -0.575489   0.052711     2.73568e-01     1.08078e-01
     10189      10193      1   0.910403   0.058724     2.93551e-01     7.68707e-02
     10189      10194      1   0.910403   0.058724     2.93551e-01     7.68707e-02
     10263      10266      1   0.018859   0.044953     2.60142e-01     2.09200e-02
     10263      10265      1   0.018859   0.044953     2.60142e-01     2.09200e-02
     10262      10266      1   0.018859   0.044953     2.60142e-01     2.09200e-02
     10262      10265      1   0.018859   0.044953     2.60142e-01     2.09200e-02
     10260      10264      1   0.020431  -0.136833     3.00055e-01     6.91943e-02
     10260      10263      1   0.020431   0.015716     2.60142e-01     2.09200e-02
     10260      10262      1   0.020431   0.015716     2.60142e-01     2.09200e-02
     10259      10264      1   0.020431  -0.136833     3.00055e-01     6.91943e-02
     10259      10263      1   0.020431   0.015716     2.60142e-01     2.09200e-02
     10259      10262      1   0.020431   0.015716     2.60142e-01     2.09200e-02
     10258      10266      1  -0.026954   0.044953     3.00055e-01     6.91943e-02
     10258      10265      1  -0.026954   0.044953     3.00055e-01     6.91943e-02
     10257      10261      1   0.010573  -0.002029     3.00055e-01     6.91943e-02
     10257      10260      1   0.010573   0.017026     2.60142e-01     2.09200e-02
     10257      10259      1   0.010573   0.017026     2.60142e-01     2.09200e-02
     10256      10261      1   0.010573  -0.002029     3.00055e-01     6.91943e-02
     10256      10260      1   0.010573   0.017026     2.60142e-01     2.09200e-02
     10256      10259      1   0.010573   0.017026     2.60142e-01     2.09200e-02
     10255      10263      1  -0.016521   0.015716     3.00055e-01     6.91943e-02
     10255      10262      1  -0.016521   0.015716     3.00055e-01     6.91943e-02
     10254      10258      1   0.011511  -0.022462     3.00055e-01     6.91943e-02
     10254      10256      1   0.011511   0.008811     2.60142e-01     2.09200e-02
     10254      10257      1   0.011511   0.008811     2.60142e-01     2.09200e-02
     10253      10258      1   0.011511  -0.022462     3.00055e-01     6.91943e-02
     10253      10256      1   0.011511   0.008811     2.60142e-01     2.09200e-02
     10253      10257      1   0.011511   0.008811     2.60142e-01     2.09200e-02
     10252      10260      1  -0.027812   0.017026     3.00055e-01     6.91943e-02
     10252      10259      1  -0.027812   0.017026     3.00055e-01     6.91943e-02
     10251      10255      1   0.006833  -0.013767     3.00055e-01     6.91943e-02
     10251      10253      1   0.006833   0.009592     2.60142e-01     2.09200e-02
     10251      10254      1   0.006833   0.009592     2.60142e-01     2.09200e-02
     10250      10255      1   0.006833  -0.013767     3.00055e-01     6.91943e-02
     10250      10253      1   0.006833   0.009592     2.60142e-01     2.09200e-02
     10250      10254      1   0.006833   0.009592     2.60142e-01     2.09200e-02
     10249      10256      1  -0.004386   0.008811     3.00055e-01     6.91943e-02
     10249      10257      1  -0.004386   0.008811     3.00055e-01     6.91943e-02
     10248      10252      1   0.011241  -0.023177     3.00055e-01     6.91943e-02
     10248      10250      1   0.011241   0.005694     2.60142e-01     2.09200e-02
     10248      10251      1   0.011241   0.005694     2.60142e-01     2.09200e-02
     10247      10252      1   0.011241  -0.023177     3.00055e-01     6.91943e-02
     10247      10250      1   0.011241   0.005694     2.60142e-01     2.09200e-02
     10247      10251      1   0.011241   0.005694     2.60142e-01     2.09200e-02
     10246      10253      1  -0.026451   0.009592     3.00055e-01     6.91943e-02
     10246      10254      1  -0.026451   0.009592     3.00055e-01     6.91943e-02
     10245      10249      1   0.010172  -0.003655     3.00055e-01     6.91943e-02
     10245      10248      1   0.010172   0.009367     2.60142e-01     2.09200e-02
     10245      10247      1   0.010172   0.009367     2.60142e-01     2.09200e-02
     10244      10249      1   0.010172  -0.003655     3.00055e-01     6.91943e-02
     10244      10248      1   0.010172   0.009367     2.60142e-01     2.09200e-02
     10244      10247      1   0.010172   0.009367     2.60142e-01     2.09200e-02
     10243      10250      1  -0.014653   0.005694     3.00055e-01     6.91943e-02
     10243      10251      1  -0.014653   0.005694     3.00055e-01     6.91943e-02
     10242      10246      1   0.010037  -0.022042     3.00055e-01     6.91943e-02
     10242      10244      1   0.010037   0.008477     2.60142e-01     2.09200e-02
     10242      10245      1   0.010037   0.008477     2.60142e-01     2.09200e-02
     10241      10246      1   0.010037  -0.022042     3.00055e-01     6.91943e-02
     10241      10244      1   0.010037   0.008477     2.60142e-01     2.09200e-02
     10241      10245      1   0.010037   0.008477     2.60142e-01     2.09200e-02
     10240      10248      1  -0.021025   0.009367     3.00055e-01     6.91943e-02
     10240      10247      1  -0.021025   0.009367     3.00055e-01     6.91943e-02
     10239      10243      1   0.012677  -0.012211     3.00055e-01     6.91943e-02
     10239      10242      1   0.012677   0.008364     2.60142e-01     2.09200e-02
     10239      10241      1   0.012677   0.008364     2.60142e-01     2.09200e-02
     10238      10243      1   0.012677  -0.012211     3.00055e-01     6.91943e-02
     10238      10242      1   0.012677   0.008364     2.60142e-01     2.09200e-02
     10238      10241      1   0.012677   0.008364     2.60142e-01     2.09200e-02
     10237      10244      1  -0.031787   0.008477     3.00055e-01     6.91943e-02
     10237      10245      1  -0.031787   0.008477     3.00055e-01     6.91943e-02
     10236      10240      1   0.017208  -0.017521     3.00055e-01     6.91943e-02
     10236      10238      1   0.017208   0.010564     2.60142e-01     2.09200e-02
     10236      10239      1   0.017208   0.010564     2.60142e-01     2.09200e-02
     10235      10240      1   0.017208  -0.017521     3.00055e-01     6.91943e-02
     10235      10238      1   0.017208   0.010564     2.60142e-01     2.09200e-02
     10235      10239      1   0.017208   0.010564     2.60142e-01     2.09200e-02
     10234      10242      1  -0.028094   0.008364     3.00055e-01     6.91943e-02
     10234      10241      1  -0.028094   0.008364     3.00055e-01     6.91943e-02
     10233      10237      1   0.007531  -0.026489     3.00055e-01     6.91943e-02
     10233      10236      1   0.007531   0.014340     2.60142e-01     2.09200e-02
     10233      10235      1   0.007531   0.014340     2.60142e-01     2.09200e-02
     10232      10237      1   0.007531  -0.026489     3.00055e-01     6.91943e-02
     10232      10236      1   0.007531   0.014340     2.60142e-01     2.09200e-02
     10232      10235      1   0.007531   0.014340     2.60142e-01     2.09200e-02
     10231      10238      1   0.017463   0.010564     3.00055e-01     6.91943e-02
     10231      10239      1   0.017463   0.010564     3.00055e-01     6.91943e-02
     10230      10234      1   0.025511  -0.023412     3.00055e-01     6.91943e-02
     10230      10232      1   0.025511   0.006276     2.60142e-01     2.09200e-02
     10230      10233      1   0.025511   0.006276     2.60142e-01     2.09200e-02
     10229      10234      1   0.025511  -0.023412     3.00055e-01     6.91943e-02
     10229      10232      1   0.025511   0.006276     2.60142e-01     2.09200e-02
     10229      10233      1   0.025511   0.006276     2.60142e-01     2.09200e-02
     10228      10236      1  -0.111712   0.014340     3.00055e-01     6.91943e-02
     10228      10235      1  -0.111712   0.014340     3.00055e-01     6.91943e-02
     10227      10234      1   0.025511  -0.023412     3.00055e-01     6.91943e-02
     10227      10232      1   0.025511   0.006276     2.60142e-01     2.09200e-02
     10227      10233      1   0.025511   0.006276     2.60142e-01     2.09200e-02
     10306      10308      1   0.053944  -0.559638     2.78067e-01     9.58675e-02
     10306      10309      1   0.053944  -0.479574     2.80072e-01     8.62554e-02
     10305      10308      1   0.053944  -0.559638     2.78067e-01     9.58675e-02
     10305      10309      1   0.053944  -0.479574     2.80072e-01     8.62554e-02
     10303      10306      1   0.018859   0.044953     2.60142e-01     2.09200e-02
     10303      10305      1   0.018859   0.044953     2.60142e-01     2.09200e-02
     10303      10307      1   0.018859   0.758669     3.00055e-01     6.13495e-02
     10302      10306      1   0.018859   0.044953     2.60142e-01     2.09200e-02
     10302      10305      1   0.018859   0.044953     2.60142e-01     2.09200e-02
     10302      10307      1   0.018859   0.758669     3.00055e-01     6.13495e-02
     10300      10304      1   0.020431  -0.136833     3.00055e-01     6.91943e-02
     10300      10303      1   0.020431   0.015716     2.60142e-01     2.09200e-02
     10300      10302      1   0.020431   0.015716     2.60142e-01     2.09200e-02
     10299      10304      1   0.020431  -0.136833     3.00055e-01     6.91943e-02
     10299      10303      1   0.020431   0.015716     2.60142e-01     2.09200e-02
     10299      10302      1   0.020431   0.015716     2.60142e-01     2.09200e-02
     10298      10306      1  -0.026954   0.044953     3.00055e-01     6.91943e-02
     10298      10305      1  -0.026954   0.044953     3.00055e-01     6.91943e-02
     10297      10301      1   0.010573  -0.002029     3.00055e-01     6.91943e-02
     10297      10300      1   0.010573   0.017026     2.60142e-01     2.09200e-02
     10297      10299      1   0.010573   0.017026     2.60142e-01     2.09200e-02
     10296      10301      1   0.010573  -0.002029     3.00055e-01     6.91943e-02
     10296      10300      1   0.010573   0.017026     2.60142e-01     2.09200e-02
     10296      10299      1   0.010573   0.017026     2.60142e-01     2.09200e-02
     10295      10303      1  -0.016521   0.015716     3.00055e-01     6.91943e-02
     10295      10302      1  -0.016521   0.015716     3.00055e-01     6.91943e-02
     10294      10298      1   0.011511  -0.022462     3.00055e-01     6.91943e-02
     10294      10296      1   0.011511   0.008811     2.60142e-01     2.09200e-02
     10294      10297      1   0.011511   0.008811     2.60142e-01     2.09200e-02
     10293      10298      1   0.011511  -0.022462     3.00055e-01     6.91943e-02
     10293      10296      1   0.011511   0.008811     2.60142e-01     2.09200e-02
     10293      10297      1   0.011511   0.008811     2.60142e-01     2.09200e-02
     10292      10300      1  -0.027812   0.017026     3.00055e-01     6.91943e-02
     10292      10299      1  -0.027812   0.017026     3.00055e-01     6.91943e-02
     10291      10295      1   0.006833  -0.013767     3.00055e-01     6.91943e-02
     10291      10293      1   0.006833   0.009592     2.60142e-01     2.09200e-02
     10291      10294      1   0.006833   0.009592     2.60142e-01     2.09200e-02
     10290      10295      1   0.006833  -0.013767     3.00055e-01     6.91943e-02
     10290      10293      1   0.006833   0.009592     2.60142e-01     2.09200e-02
     10290      10294      1   0.006833   0.009592     2.60142e-01     2.09200e-02
     10289      10296      1  -0.004386   0.008811     3.00055e-01     6.91943e-02
     10289      10297      1  -0.004386   0.008811     3.00055e-01     6.91943e-02
     10288      10292      1   0.011241  -0.023177     3.00055e-01     6.91943e-02
     10288      10290      1   0.011241   0.005694     2.60142e-01     2.09200e-02
     10288      10291      1   0.011241   0.005694     2.60142e-01     2.09200e-02
     10287      10292      1   0.011241  -0.023177     3.00055e-01     6.91943e-02
     10287      10290      1   0.011241   0.005694     2.60142e-01     2.09200e-02
     10287      10291      1   0.011241   0.005694     2.60142e-01     2.09200e-02
     10286      10293      1  -0.026451   0.009592     3.00055e-01     6.91943e-02
     10286      10294      1  -0.026451   0.009592     3.00055e-01     6.91943e-02
     10285      10289      1   0.010172  -0.003655     3.00055e-01     6.91943e-02
     10285      10288      1   0.010172   0.009367     2.60142e-01     2.09200e-02
     10285      10287      1   0.010172   0.009367     2.60142e-01     2.09200e-02
     10284      10289      1   0.010172  -0.003655     3.00055e-01     6.91943e-02
     10284      10288      1   0.010172   0.009367     2.60142e-01     2.09200e-02
     10284      10287      1   0.010172   0.009367     2.60142e-01     2.09200e-02
     10283      10290      1  -0.014653   0.005694     3.00055e-01     6.91943e-02
     10283      10291      1  -0.014653   0.005694     3.00055e-01     6.91943e-02
     10282      10286      1   0.010037  -0.022042     3.00055e-01     6.91943e-02
     10282      10284      1   0.010037   0.008477     2.60142e-01     2.09200e-02
     10282      10285      1   0.010037   0.008477     2.60142e-01     2.09200e-02
     10281      10286      1   0.010037  -0.022042     3.00055e-01     6.91943e-02
     10281      10284      1   0.010037   0.008477     2.60142e-01     2.09200e-02
     10281      10285      1   0.010037   0.008477     2.60142e-01     2.09200e-02
     10280      10288      1  -0.021025   0.009367     3.00055e-01     6.91943e-02
     10280      10287      1  -0.021025   0.009367     3.00055e-01     6.91943e-02
     10279      10283      1   0.012677  -0.012211     3.00055e-01     6.91943e-02
     10279      10282      1   0.012677   0.008364     2.60142e-01     2.09200e-02
     10279      10281      1   0.012677   0.008364     2.60142e-01     2.09200e-02
     10278      10283      1   0.012677  -0.012211     3.00055e-01     6.91943e-02
     10278      10282      1   0.012677   0.008364     2.60142e-01     2.09200e-02
     10278      10281      1   0.012677   0.008364     2.60142e-01     2.09200e-02
     10277      10284      1  -0.031787   0.008477     3.00055e-01     6.91943e-02
     10277      10285      1  -0.031787   0.008477     3.00055e-01     6.91943e-02
     10276      10280      1   0.017208  -0.017521     3.00055e-01     6.91943e-02
     10276      10278      1   0.017208   0.010564     2.60142e-01     2.09200e-02
     10276      10279      1   0.017208   0.010564     2.60142e-01     2.09200e-02
     10275      10280      1   0.017208  -0.017521     3.00055e-01     6.91943e-02
     10275      10278      1   0.017208   0.010564     2.60142e-01     2.09200e-02
     10275      10279      1   0.017208   0.010564     2.60142e-01     2.09200e-02
     10274      10282      1  -0.028094   0.008364     3.00055e-01     6.91943e-02
     10274      10281      1  -0.028094   0.008364     3.00055e-01     6.91943e-02
     10273      10277      1   0.007531  -0.026489     3.00055e-01     6.91943e-02
     10273      10276      1   0.007531   0.014340     2.60142e-01     2.09200e-02
     10273      10275      1   0.007531   0.014340     2.60142e-01     2.09200e-02
     10272      10277      1   0.007531  -0.026489     3.00055e-01     6.91943e-02
     10272      10276      1   0.007531   0.014340     2.60142e-01     2.09200e-02
     10272      10275      1   0.007531   0.014340     2.60142e-01     2.09200e-02
     10271      10278      1   0.017463   0.010564     3.00055e-01     6.91943e-02
     10271      10279      1   0.017463   0.010564     3.00055e-01     6.91943e-02
     10270      10274      1   0.025511  -0.023412     3.00055e-01     6.91943e-02
     10270      10272      1   0.025511   0.006276     2.60142e-01     2.09200e-02
     10270      10273      1   0.025511   0.006276     2.60142e-01     2.09200e-02
     10269      10274      1   0.025511  -0.023412     3.00055e-01     6.91943e-02
     10269      10272      1   0.025511   0.006276     2.60142e-01     2.09200e-02
     10269      10273      1   0.025511   0.006276     2.60142e-01     2.09200e-02
     10268      10276      1  -0.111712   0.014340     3.00055e-01     6.91943e-02
     10268      10275      1  -0.111712   0.014340     3.00055e-01     6.91943e-02
     10267      10274      1   0.025511  -0.023412     3.00055e-01     6.91943e-02
     10267      10272      1   0.025511   0.006276     2.60142e-01     2.09200e-02
     10267      10273      1   0.025511   0.006276     2.60142e-01     2.09200e-02
     10344      10384      1  -0.673755   0.044953     2.78067e-01     9.58675e-02
     10344      10383      1  -0.673755   0.044953     2.78067e-01     9.58675e-02
     10343      10381      1   0.897613   0.015716     3.00055e-01     6.13495e-02
     10343      10380      1   0.897613   0.015716     3.00055e-01     6.13495e-02
     10342      10384      1  -0.552948   0.044953     2.80072e-01     8.62554e-02
     10342      10383      1  -0.552948   0.044953     2.80072e-01     8.62554e-02
     10335      10336      1   0.172230  -0.282478     2.67982e-01     8.67002e-02
     10334      10336      1   0.172230  -0.282478     2.67982e-01     8.67002e-02
     10333      10336      1   0.172230  -0.282478     2.67982e-01     8.67002e-02
     10332      10337      1  -0.338973   0.143525     2.67982e-01     8.67002e-02
     10332      10338      1  -0.338973   0.143525     2.67982e-01     8.67002e-02
     10332      10339      1  -0.338973   0.143525     2.67982e-01     8.67002e-02
     10331      10332      1   0.172230  -0.282478     2.67982e-01     8.67002e-02
     10331      10336      1   0.172230  -0.282478     2.67982e-01     8.67002e-02
     10330      10332      1   0.172230  -0.282478     2.67982e-01     8.67002e-02
     10330      10336      1   0.172230  -0.282478     2.67982e-01     8.67002e-02
     10329      10332      1   0.172230  -0.282478     2.67982e-01     8.67002e-02
     10329      10336      1   0.172230  -0.282478     2.67982e-01     8.67002e-02
     10328      10333      1  -0.338973   0.143525     2.67982e-01     8.67002e-02
     10328      10334      1  -0.338973   0.143525     2.67982e-01     8.67002e-02
     10328      10335      1  -0.338973   0.143525     2.67982e-01     8.67002e-02
     10328      10337      1  -0.338973   0.143525     2.67982e-01     8.67002e-02
     10328      10338      1  -0.338973   0.143525     2.67982e-01     8.67002e-02
     10328      10339      1  -0.338973   0.143525     2.67982e-01     8.67002e-02
     10326      10328      1   0.136415  -0.282478     2.67982e-01     8.67002e-02
     10326      10332      1   0.136415  -0.282478     2.67982e-01     8.67002e-02
     10326      10336      1   0.136415  -0.282478     2.67982e-01     8.67002e-02
     10325      10328      1   0.136415  -0.282478     2.67982e-01     8.67002e-02
     10325      10332      1   0.136415  -0.282478     2.67982e-01     8.67002e-02
     10325      10336      1   0.136415  -0.282478     2.67982e-01     8.67002e-02
     10324      10329      1  -0.170824   0.143525     2.67982e-01     8.67002e-02
     10324      10330      1  -0.170824   0.143525     2.67982e-01     8.67002e-02
     10324      10331      1  -0.170824   0.143525     2.67982e-01     8.67002e-02
     10324      10333      1  -0.170824   0.143525     2.67982e-01     8.67002e-02
     10324      10334      1  -0.170824   0.143525     2.67982e-01     8.67002e-02
     10324      10335      1  -0.170824   0.143525     2.67982e-01     8.67002e-02
     10324      10337      1  -0.170824   0.143525     2.67982e-01     8.67002e-02
     10324      10338      1  -0.170824   0.143525     2.67982e-01     8.67002e-02
     10324      10339      1  -0.170824   0.143525     2.67982e-01     8.67002e-02
     10323      10325      1   0.078534   0.113679     2.21567e-01     3.28444e-02
     10323      10326      1   0.078534   0.113679     2.21567e-01     3.28444e-02
     10323      10327      1   0.078534   0.204385     2.86068e-01     1.08078e-01
     10322      10325      1   0.078534   0.113679     2.21567e-01     3.28444e-02
     10322      10326      1   0.078534   0.113679     2.21567e-01     3.28444e-02
     10322      10327      1   0.078534   0.204385     2.86068e-01     1.08078e-01
     10320      10325      1  -0.508176   0.113679     2.47999e-01     1.08078e-01
     10320      10326      1  -0.508176   0.113679     2.47999e-01     1.08078e-01
     10319      10322      1   1.339721   0.065445     3.10656e-01     1.17227e-01
     10319      10323      1   1.339721   0.065445     3.10656e-01     1.17227e-01
     10317      10342      1   0.095591  -0.460790     2.73568e-01     1.08078e-01
     10317      10319      1   0.095591   1.116434     3.10656e-01     1.17227e-01
     10316      10342      1   0.095591  -0.460790     2.73568e-01     1.08078e-01
     10316      10319      1   0.095591   1.116434     3.10656e-01     1.17227e-01
     10314      10316      1   0.063253   0.079659     2.47135e-01     3.28444e-02
     10314      10317      1   0.063253   0.079659     2.47135e-01     3.28444e-02
     10314      10318      1   0.063253  -0.424567     2.73568e-01     1.08078e-01
     10314      10343      1   0.063253   0.748011     2.93551e-01     7.68707e-02
     10312      10314      1   0.070469   0.052711     2.47135e-01     3.28444e-02
     10312      10315      1   0.070469   0.014549     2.93551e-01     8.67002e-02
     10312      10342      1   0.070469  -0.460790     2.73568e-01     1.08078e-01
     10311      10314      1   0.070469   0.052711     2.47135e-01     3.28444e-02
     10311      10315      1   0.070469   0.014549     2.93551e-01     8.67002e-02
     10311      10342      1   0.070469  -0.460790     2.73568e-01     1.08078e-01
     10310      10316      1   0.196939   0.079659     2.93551e-01     8.67002e-02
     10310      10317      1   0.196939   0.079659     2.93551e-01     8.67002e-02
     10309      10314      1  -0.575489   0.052711     2.73568e-01     1.08078e-01
     10307      10311      1   0.910403   0.058724     2.93551e-01     7.68707e-02
     10307      10312      1   0.910403   0.058724     2.93551e-01     7.68707e-02
     10381      10384      1   0.018859   0.044953     2.60142e-01     2.09200e-02
     10381      10383      1   0.018859   0.044953     2.60142e-01     2.09200e-02
     10380      10384      1   0.018859   0.044953     2.60142e-01     2.09200e-02
     10380      10383      1   0.018859   0.044953     2.60142e-01     2.09200e-02
     10378      10382      1   0.020431  -0.136833     3.00055e-01     6.91943e-02
     10378      10381      1   0.020431   0.015716     2.60142e-01     2.09200e-02
     10378      10380      1   0.020431   0.015716     2.60142e-01     2.09200e-02
     10377      10382      1   0.020431  -0.136833     3.00055e-01     6.91943e-02
     10377      10381      1   0.020431   0.015716     2.60142e-01     2.09200e-02
     10377      10380      1   0.020431   0.015716     2.60142e-01     2.09200e-02
     10376      10384      1  -0.026954   0.044953     3.00055e-01     6.91943e-02
     10376      10383      1  -0.026954   0.044953     3.00055e-01     6.91943e-02
     10375      10379      1   0.010573  -0.002029     3.00055e-01     6.91943e-02
     10375      10378      1   0.010573   0.017026     2.60142e-01     2.09200e-02
     10375      10377      1   0.010573   0.017026     2.60142e-01     2.09200e-02
     10374      10379      1   0.010573  -0.002029     3.00055e-01     6.91943e-02
     10374      10378      1   0.010573   0.017026     2.60142e-01     2.09200e-02
     10374      10377      1   0.010573   0.017026     2.60142e-01     2.09200e-02
     10373      10381      1  -0.016521   0.015716     3.00055e-01     6.91943e-02
     10373      10380      1  -0.016521   0.015716     3.00055e-01     6.91943e-02
     10372      10376      1   0.011511  -0.022462     3.00055e-01     6.91943e-02
     10372      10374      1   0.011511   0.008811     2.60142e-01     2.09200e-02
     10372      10375      1   0.011511   0.008811     2.60142e-01     2.09200e-02
     10371      10376      1   0.011511  -0.022462     3.00055e-01     6.91943e-02
     10371      10374      1   0.011511   0.008811     2.60142e-01     2.09200e-02
     10371      10375      1   0.011511   0.008811     2.60142e-01     2.09200e-02
     10370      10378      1  -0.027812   0.017026     3.00055e-01     6.91943e-02
     10370      10377      1  -0.027812   0.017026     3.00055e-01     6.91943e-02
     10369      10373      1   0.006833  -0.013767     3.00055e-01     6.91943e-02
     10369      10371      1   0.006833   0.009592     2.60142e-01     2.09200e-02
     10369      10372      1   0.006833   0.009592     2.60142e-01     2.09200e-02
     10368      10373      1   0.006833  -0.013767     3.00055e-01     6.91943e-02
     10368      10371      1   0.006833   0.009592     2.60142e-01     2.09200e-02
     10368      10372      1   0.006833   0.009592     2.60142e-01     2.09200e-02
     10367      10374      1  -0.004386   0.008811     3.00055e-01     6.91943e-02
     10367      10375      1  -0.004386   0.008811     3.00055e-01     6.91943e-02
     10366      10370      1   0.011241  -0.023177     3.00055e-01     6.91943e-02
     10366      10368      1   0.011241   0.005694     2.60142e-01     2.09200e-02
     10366      10369      1   0.011241   0.005694     2.60142e-01     2.09200e-02
     10365      10370      1   0.011241  -0.023177     3.00055e-01     6.91943e-02
     10365      10368      1   0.011241   0.005694     2.60142e-01     2.09200e-02
     10365      10369      1   0.011241   0.005694     2.60142e-01     2.09200e-02
     10364      10371      1  -0.026451   0.009592     3.00055e-01     6.91943e-02
     10364      10372      1  -0.026451   0.009592     3.00055e-01     6.91943e-02
     10363      10367      1   0.010172  -0.003655     3.00055e-01     6.91943e-02
     10363      10366      1   0.010172   0.009367     2.60142e-01     2.09200e-02
     10363      10365      1   0.010172   0.009367     2.60142e-01     2.09200e-02
     10362      10367      1   0.010172  -0.003655     3.00055e-01     6.91943e-02
     10362      10366      1   0.010172   0.009367     2.60142e-01     2.09200e-02
     10362      10365      1   0.010172   0.009367     2.60142e-01     2.09200e-02
     10361      10368      1  -0.014653   0.005694     3.00055e-01     6.91943e-02
     10361      10369      1  -0.014653   0.005694     3.00055e-01     6.91943e-02
     10360      10364      1   0.010037  -0.022042     3.00055e-01     6.91943e-02
     10360      10362      1   0.010037   0.008477     2.60142e-01     2.09200e-02
     10360      10363      1   0.010037   0.008477     2.60142e-01     2.09200e-02
     10359      10364      1   0.010037  -0.022042     3.00055e-01     6.91943e-02
     10359      10362      1   0.010037   0.008477     2.60142e-01     2.09200e-02
     10359      10363      1   0.010037   0.008477     2.60142e-01     2.09200e-02
     10358      10366      1  -0.021025   0.009367     3.00055e-01     6.91943e-02
     10358      10365      1  -0.021025   0.009367     3.00055e-01     6.91943e-02
     10357      10361      1   0.012677  -0.012211     3.00055e-01     6.91943e-02
     10357      10360      1   0.012677   0.008364     2.60142e-01     2.09200e-02
     10357      10359      1   0.012677   0.008364     2.60142e-01     2.09200e-02
     10356      10361      1   0.012677  -0.012211     3.00055e-01     6.91943e-02
     10356      10360      1   0.012677   0.008364     2.60142e-01     2.09200e-02
     10356      10359      1   0.012677   0.008364     2.60142e-01     2.09200e-02
     10355      10362      1  -0.031787   0.008477     3.00055e-01     6.91943e-02
     10355      10363      1  -0.031787   0.008477     3.00055e-01     6.91943e-02
     10354      10358      1   0.017208  -0.017521     3.00055e-01     6.91943e-02
     10354      10356      1   0.017208   0.010564     2.60142e-01     2.09200e-02
     10354      10357      1   0.017208   0.010564     2.60142e-01     2.09200e-02
     10353      10358      1   0.017208  -0.017521     3.00055e-01     6.91943e-02
     10353      10356      1   0.017208   0.010564     2.60142e-01     2.09200e-02
     10353      10357      1   0.017208   0.010564     2.60142e-01     2.09200e-02
     10352      10360      1  -0.028094   0.008364     3.00055e-01     6.91943e-02
     10352      10359      1  -0.028094   0.008364     3.00055e-01     6.91943e-02
     10351      10355      1   0.007531  -0.026489     3.00055e-01     6.91943e-02
     10351      10354      1   0.007531   0.014340     2.60142e-01     2.09200e-02
     10351      10353      1   0.007531   0.014340     2.60142e-01     2.09200e-02
     10350      10355      1   0.007531  -0.026489     3.00055e-01     6.91943e-02
     10350      10354      1   0.007531   0.014340     2.60142e-01     2.09200e-02
     10350      10353      1   0.007531   0.014340     2.60142e-01     2.09200e-02
     10349      10356      1   0.017463   0.010564     3.00055e-01     6.91943e-02
     10349      10357      1   0.017463   0.010564     3.00055e-01     6.91943e-02
     10348      10352      1   0.025511  -0.023412     3.00055e-01     6.91943e-02
     10348      10350      1   0.025511   0.006276     2.60142e-01     2.09200e-02
     10348      10351      1   0.025511   0.006276     2.60142e-01     2.09200e-02
     10347      10352      1   0.025511  -0.023412     3.00055e-01     6.91943e-02
     10347      10350      1   0.025511   0.006276     2.60142e-01     2.09200e-02
     10347      10351      1   0.025511   0.006276     2.60142e-01     2.09200e-02
     10346      10354      1  -0.111712   0.014340     3.00055e-01     6.91943e-02
     10346      10353      1  -0.111712   0.014340     3.00055e-01     6.91943e-02
     10345      10352      1   0.025511  -0.023412     3.00055e-01     6.91943e-02
     10345      10350      1   0.025511   0.006276     2.60142e-01     2.09200e-02
     10345      10351      1   0.025511   0.006276     2.60142e-01     2.09200e-02
     10424      10426      1   0.053944  -0.559638     2.78067e-01     9.58675e-02
     10424      10427      1   0.053944  -0.479574     2.80072e-01     8.62554e-02
     10423      10426      1   0.053944  -0.559638     2.78067e-01     9.58675e-02
     10423      10427      1   0.053944  -0.479574     2.80072e-01     8.62554e-02
     10421      10424      1   0.018859   0.044953     2.60142e-01     2.09200e-02
     10421      10423      1   0.018859   0.044953     2.60142e-01     2.09200e-02
     10421      10425      1   0.018859   0.758669     3.00055e-01     6.13495e-02
     10420      10424      1   0.018859   0.044953     2.60142e-01     2.09200e-02
     10420      10423      1   0.018859   0.044953     2.60142e-01     2.09200e-02
     10420      10425      1   0.018859   0.758669     3.00055e-01     6.13495e-02
     10418      10422      1   0.020431  -0.136833     3.00055e-01     6.91943e-02
     10418      10421      1   0.020431   0.015716     2.60142e-01     2.09200e-02
     10418      10420      1   0.020431   0.015716     2.60142e-01     2.09200e-02
     10417      10422      1   0.020431  -0.136833     3.00055e-01     6.91943e-02
     10417      10421      1   0.020431   0.015716     2.60142e-01     2.09200e-02
     10417      10420      1   0.020431   0.015716     2.60142e-01     2.09200e-02
     10416      10424      1  -0.026954   0.044953     3.00055e-01     6.91943e-02
     10416      10423      1  -0.026954   0.044953     3.00055e-01     6.91943e-02
     10415      10419      1   0.010573  -0.002029     3.00055e-01     6.91943e-02
     10415      10418      1   0.010573   0.017026     2.60142e-01     2.09200e-02
     10415      10417      1   0.010573   0.017026     2.60142e-01     2.09200e-02
     10414      10419      1   0.010573  -0.002029     3.00055e-01     6.91943e-02
     10414      10418      1   0.010573   0.017026     2.60142e-01     2.09200e-02
     10414      10417      1   0.010573   0.017026     2.60142e-01     2.09200e-02
     10413      10421      1  -0.016521   0.015716     3.00055e-01     6.91943e-02
     10413      10420      1  -0.016521   0.015716     3.00055e-01     6.91943e-02
     10412      10416      1   0.011511  -0.022462     3.00055e-01     6.91943e-02
     10412      10414      1   0.011511   0.008811     2.60142e-01     2.09200e-02
     10412      10415      1   0.011511   0.008811     2.60142e-01     2.09200e-02
     10411      10416      1   0.011511  -0.022462     3.00055e-01     6.91943e-02
     10411      10414      1   0.011511   0.008811     2.60142e-01     2.09200e-02
     10411      10415      1   0.011511   0.008811     2.60142e-01     2.09200e-02
     10410      10418      1  -0.027812   0.017026     3.00055e-01     6.91943e-02
     10410      10417      1  -0.027812   0.017026     3.00055e-01     6.91943e-02
     10409      10413      1   0.006833  -0.013767     3.00055e-01     6.91943e-02
     10409      10411      1   0.006833   0.009592     2.60142e-01     2.09200e-02
     10409      10412      1   0.006833   0.009592     2.60142e-01     2.09200e-02
     10408      10413      1   0.006833  -0.013767     3.00055e-01     6.91943e-02
     10408      10411      1   0.006833   0.009592     2.60142e-01     2.09200e-02
     10408      10412      1   0.006833   0.009592     2.60142e-01     2.09200e-02
     10407      10414      1  -0.004386   0.008811     3.00055e-01     6.91943e-02
     10407      10415      1  -0.004386   0.008811     3.00055e-01     6.91943e-02
     10406      10410      1   0.011241  -0.023177     3.00055e-01     6.91943e-02
     10406      10408      1   0.011241   0.005694     2.60142e-01     2.09200e-02
     10406      10409      1   0.011241   0.005694     2.60142e-01     2.09200e-02
     10405      10410      1   0.011241  -0.023177     3.00055e-01     6.91943e-02
     10405      10408      1   0.011241   0.005694     2.60142e-01     2.09200e-02
     10405      10409      1   0.011241   0.005694     2.60142e-01     2.09200e-02
     10404      10411      1  -0.026451   0.009592     3.00055e-01     6.91943e-02
     10404      10412      1  -0.026451   0.009592     3.00055e-01     6.91943e-02
     10403      10407      1   0.010172  -0.003655     3.00055e-01     6.91943e-02
     10403      10406      1   0.010172   0.009367     2.60142e-01     2.09200e-02
     10403      10405      1   0.010172   0.009367     2.60142e-01     2.09200e-02
     10402      10407      1   0.010172  -0.003655     3.00055e-01     6.91943e-02
     10402      10406      1   0.010172   0.009367     2.60142e-01     2.09200e-02
     10402      10405      1   0.010172   0.009367     2.60142e-01     2.09200e-02
     10401      10408      1  -0.014653   0.005694     3.00055e-01     6.91943e-02
     10401      10409      1  -0.014653   0.005694     3.00055e-01     6.91943e-02
     10400      10404      1   0.010037  -0.022042     3.00055e-01     6.91943e-02
     10400      10402      1   0.010037   0.008477     2.60142e-01     2.09200e-02
     10400      10403      1   0.010037   0.008477     2.60142e-01     2.09200e-02
     10399      10404      1   0.010037  -0.022042     3.00055e-01     6.91943e-02
     10399      10402      1   0.010037   0.008477     2.60142e-01     2.09200e-02
     10399      10403      1   0.010037   0.008477     2.60142e-01     2.09200e-02
     10398      10406      1  -0.021025   0.009367     3.00055e-01     6.91943e-02
     10398      10405      1  -0.021025   0.009367     3.00055e-01     6.91943e-02
     10397      10401      1   0.012677  -0.012211     3.00055e-01     6.91943e-02
     10397      10400      1   0.012677   0.008364     2.60142e-01     2.09200e-02
     10397      10399      1   0.012677   0.008364     2.60142e-01     2.09200e-02
     10396      10401      1   0.012677  -0.012211     3.00055e-01     6.91943e-02
     10396      10400      1   0.012677   0.008364     2.60142e-01     2.09200e-02
     10396      10399      1   0.012677   0.008364     2.60142e-01     2.09200e-02
     10395      10402      1  -0.031787   0.008477     3.00055e-01     6.91943e-02
     10395      10403      1  -0.031787   0.008477     3.00055e-01     6.91943e-02
     10394      10398      1   0.017208  -0.017521     3.00055e-01     6.91943e-02
     10394      10396      1   0.017208   0.010564     2.60142e-01     2.09200e-02
     10394      10397      1   0.017208   0.010564     2.60142e-01     2.09200e-02
     10393      10398      1   0.017208  -0.017521     3.00055e-01     6.91943e-02
     10393      10396      1   0.017208   0.010564     2.60142e-01     2.09200e-02
     10393      10397      1   0.017208   0.010564     2.60142e-01     2.09200e-02
     10392      10400      1  -0.028094   0.008364     3.00055e-01     6.91943e-02
     10392      10399      1  -0.028094   0.008364     3.00055e-01     6.91943e-02
     10391      10395      1   0.007531  -0.026489     3.00055e-01     6.91943e-02
     10391      10394      1   0.007531   0.014340     2.60142e-01     2.09200e-02
     10391      10393      1   0.007531   0.014340     2.60142e-01     2.09200e-02
     10390      10395      1   0.007531  -0.026489     3.00055e-01     6.91943e-02
     10390      10394      1   0.007531   0.014340     2.60142e-01     2.09200e-02
     10390      10393      1   0.007531   0.014340     2.60142e-01     2.09200e-02
     10389      10396      1   0.017463   0.010564     3.00055e-01     6.91943e-02
     10389      10397      1   0.017463   0.010564     3.00055e-01     6.91943e-02
     10388      10392      1   0.025511  -0.023412     3.00055e-01     6.91943e-02
     10388      10390      1   0.025511   0.006276     2.60142e-01     2.09200e-02
     10388      10391      1   0.025511   0.006276     2.60142e-01     2.09200e-02
     10387      10392      1   0.025511  -0.023412     3.00055e-01     6.91943e-02
     10387      10390      1   0.025511   0.006276     2.60142e-01     2.09200e-02
     10387      10391      1   0.025511   0.006276     2.60142e-01     2.09200e-02
     10386      10394      1  -0.111712   0.014340     3.00055e-01     6.91943e-02
     10386      10393      1  -0.111712   0.014340     3.00055e-01     6.91943e-02
     10385      10392      1   0.025511  -0.023412     3.00055e-01     6.91943e-02
     10385      10390      1   0.025511   0.006276     2.60142e-01     2.09200e-02
     10385      10391      1   0.025511   0.006276     2.60142e-01     2.09200e-02
     10462      10502      1  -0.673755   0.044953     2.78067e-01     9.58675e-02
     10462      10501      1  -0.673755   0.044953     2.78067e-01     9.58675e-02
     10461      10499      1   0.897613   0.015716     3.00055e-01     6.13495e-02
     10461      10498      1   0.897613   0.015716     3.00055e-01     6.13495e-02
     10460      10502      1  -0.552948   0.044953     2.80072e-01     8.62554e-02
     10460      10501      1  -0.552948   0.044953     2.80072e-01     8.62554e-02
     10453      10454      1   0.172230  -0.282478     2.67982e-01     8.67002e-02
     10452      10454      1   0.172230  -0.282478     2.67982e-01     8.67002e-02
     10451      10454      1   0.172230  -0.282478     2.67982e-01     8.67002e-02
     10450      10455      1  -0.338973   0.143525     2.67982e-01     8.67002e-02
     10450      10456      1  -0.338973   0.143525     2.67982e-01     8.67002e-02
     10450      10457      1  -0.338973   0.143525     2.67982e-01     8.67002e-02
     10449      10450      1   0.172230  -0.282478     2.67982e-01     8.67002e-02
     10449      10454      1   0.172230  -0.282478     2.67982e-01     8.67002e-02
     10448      10450      1   0.172230  -0.282478     2.67982e-01     8.67002e-02
     10448      10454      1   0.172230  -0.282478     2.67982e-01     8.67002e-02
     10447      10450      1   0.172230  -0.282478     2.67982e-01     8.67002e-02
     10447      10454      1   0.172230  -0.282478     2.67982e-01     8.67002e-02
     10446      10451      1  -0.338973   0.143525     2.67982e-01     8.67002e-02
     10446      10452      1  -0.338973   0.143525     2.67982e-01     8.67002e-02
     10446      10453      1  -0.338973   0.143525     2.67982e-01     8.67002e-02
     10446      10455      1  -0.338973   0.143525     2.67982e-01     8.67002e-02
     10446      10456      1  -0.338973   0.143525     2.67982e-01     8.67002e-02
     10446      10457      1  -0.338973   0.143525     2.67982e-01     8.67002e-02
     10444      10446      1   0.136415  -0.282478     2.67982e-01     8.67002e-02
     10444      10450      1   0.136415  -0.282478     2.67982e-01     8.67002e-02
     10444      10454      1   0.136415  -0.282478     2.67982e-01     8.67002e-02
     10443      10446      1   0.136415  -0.282478     2.67982e-01     8.67002e-02
     10443      10450      1   0.136415  -0.282478     2.67982e-01     8.67002e-02
     10443      10454      1   0.136415  -0.282478     2.67982e-01     8.67002e-02
     10442      10447      1  -0.170824   0.143525     2.67982e-01     8.67002e-02
     10442      10448      1  -0.170824   0.143525     2.67982e-01     8.67002e-02
     10442      10449      1  -0.170824   0.143525     2.67982e-01     8.67002e-02
     10442      10451      1  -0.170824   0.143525     2.67982e-01     8.67002e-02
     10442      10452      1  -0.170824   0.143525     2.67982e-01     8.67002e-02
     10442      10453      1  -0.170824   0.143525     2.67982e-01     8.67002e-02
     10442      10455      1  -0.170824   0.143525     2.67982e-01     8.67002e-02
     10442      10456      1  -0.170824   0.143525     2.67982e-01     8.67002e-02
     10442      10457      1  -0.170824   0.143525     2.67982e-01     8.67002e-02
     10441      10443      1   0.078534   0.113679     2.21567e-01     3.28444e-02
     10441      10444      1   0.078534   0.113679     2.21567e-01     3.28444e-02
     10441      10445      1   0.078534   0.204385     2.86068e-01     1.08078e-01
     10440      10443      1   0.078534   0.113679     2.21567e-01     3.28444e-02
     10440      10444      1   0.078534   0.113679     2.21567e-01     3.28444e-02
     10440      10445      1   0.078534   0.204385     2.86068e-01     1.08078e-01
     10438      10443      1  -0.508176   0.113679     2.47999e-01     1.08078e-01
     10438      10444      1  -0.508176   0.113679     2.47999e-01     1.08078e-01
     10437      10440      1   1.339721   0.065445     3.10656e-01     1.17227e-01
     10437      10441      1   1.339721   0.065445     3.10656e-01     1.17227e-01
     10435      10460      1   0.095591  -0.460790     2.73568e-01     1.08078e-01
     10435      10437      1   0.095591   1.116434     3.10656e-01     1.17227e-01
     10434      10460      1   0.095591  -0.460790     2.73568e-01     1.08078e-01
     10434      10437      1   0.095591   1.116434     3.10656e-01     1.17227e-01
     10432      10434      1   0.063253   0.079659     2.47135e-01     3.28444e-02
     10432      10435      1   0.063253   0.079659     2.47135e-01     3.28444e-02
     10432      10436      1   0.063253  -0.424567     2.73568e-01     1.08078e-01
     10432      10461      1   0.063253   0.748011     2.93551e-01     7.68707e-02
     10430      10432      1   0.070469   0.052711     2.47135e-01     3.28444e-02
     10430      10433      1   0.070469   0.014549     2.93551e-01     8.67002e-02
     10430      10460      1   0.070469  -0.460790     2.73568e-01     1.08078e-01
     10429      10432      1   0.070469   0.052711     2.47135e-01     3.28444e-02
     10429      10433      1   0.070469   0.014549     2.93551e-01     8.67002e-02
     10429      10460      1   0.070469  -0.460790     2.73568e-01     1.08078e-01
     10428      10434      1   0.196939   0.079659     2.93551e-01     8.67002e-02
     10428      10435      1   0.196939   0.079659     2.93551e-01     8.67002e-02
     10427      10432      1  -0.575489   0.052711     2.73568e-01     1.08078e-01
     10425      10429      1   0.910403   0.058724     2.93551e-01     7.68707e-02
     10425      10430      1   0.910403   0.058724     2.93551e-01     7.68707e-02
     10499      10502      1   0.018859   0.044953     2.60142e-01     2.09200e-02
     10499      10501      1   0.018859   0.044953     2.60142e-01     2.09200e-02
     10498      10502      1   0.018859   0.044953     2.60142e-01     2.09200e-02
     10498      10501      1   0.018859   0.044953     2.60142e-01     2.09200e-02
     10496      10500      1   0.020431  -0.136833     3.00055e-01     6.91943e-02
     10496      10499      1   0.020431   0.015716     2.60142e-01     2.09200e-02
     10496      10498      1   0.020431   0.015716     2.60142e-01     2.09200e-02
     10495      10500      1   0.020431  -0.136833     3.00055e-01     6.91943e-02
     10495      10499      1   0.020431   0.015716     2.60142e-01     2.09200e-02
     10495      10498      1   0.020431   0.015716     2.60142e-01     2.09200e-02
     10494      10502      1  -0.026954   0.044953     3.00055e-01     6.91943e-02
     10494      10501      1  -0.026954   0.044953     3.00055e-01     6.91943e-02
     10493      10497      1   0.010573  -0.002029     3.00055e-01     6.91943e-02
     10493      10496      1   0.010573   0.017026     2.60142e-01     2.09200e-02
     10493      10495      1   0.010573   0.017026     2.60142e-01     2.09200e-02
     10492      10497      1   0.010573  -0.002029     3.00055e-01     6.91943e-02
     10492      10496      1   0.010573   0.017026     2.60142e-01     2.09200e-02
     10492      10495      1   0.010573   0.017026     2.60142e-01     2.09200e-02
     10491      10499      1  -0.016521   0.015716     3.00055e-01     6.91943e-02
     10491      10498      1  -0.016521   0.015716     3.00055e-01     6.91943e-02
     10490      10494      1   0.011511  -0.022462     3.00055e-01     6.91943e-02
     10490      10492      1   0.011511   0.008811     2.60142e-01     2.09200e-02
     10490      10493      1   0.011511   0.008811     2.60142e-01     2.09200e-02
     10489      10494      1   0.011511  -0.022462     3.00055e-01     6.91943e-02
     10489      10492      1   0.011511   0.008811     2.60142e-01     2.09200e-02
     10489      10493      1   0.011511   0.008811     2.60142e-01     2.09200e-02
     10488      10496      1  -0.027812   0.017026     3.00055e-01     6.91943e-02
     10488      10495      1  -0.027812   0.017026     3.00055e-01     6.91943e-02
     10487      10491      1   0.006833  -0.013767     3.00055e-01     6.91943e-02
     10487      10489      1   0.006833   0.009592     2.60142e-01     2.09200e-02
     10487      10490      1   0.006833   0.009592     2.60142e-01     2.09200e-02
     10486      10491      1   0.006833  -0.013767     3.00055e-01     6.91943e-02
     10486      10489      1   0.006833   0.009592     2.60142e-01     2.09200e-02
     10486      10490      1   0.006833   0.009592     2.60142e-01     2.09200e-02
     10485      10492      1  -0.004386   0.008811     3.00055e-01     6.91943e-02
     10485      10493      1  -0.004386   0.008811     3.00055e-01     6.91943e-02
     10484      10488      1   0.011241  -0.023177     3.00055e-01     6.91943e-02
     10484      10486      1   0.011241   0.005694     2.60142e-01     2.09200e-02
     10484      10487      1   0.011241   0.005694     2.60142e-01     2.09200e-02
     10483      10488      1   0.011241  -0.023177     3.00055e-01     6.91943e-02
     10483      10486      1   0.011241   0.005694     2.60142e-01     2.09200e-02
     10483      10487      1   0.011241   0.005694     2.60142e-01     2.09200e-02
     10482      10489      1  -0.026451   0.009592     3.00055e-01     6.91943e-02
     10482      10490      1  -0.026451   0.009592     3.00055e-01     6.91943e-02
     10481      10485      1   0.010172  -0.003655     3.00055e-01     6.91943e-02
     10481      10484      1   0.010172   0.009367     2.60142e-01     2.09200e-02
     10481      10483      1   0.010172   0.009367     2.60142e-01     2.09200e-02
     10480      10485      1   0.010172  -0.003655     3.00055e-01     6.91943e-02
     10480      10484      1   0.010172   0.009367     2.60142e-01     2.09200e-02
     10480      10483      1   0.010172   0.009367     2.60142e-01     2.09200e-02
     10479      10486      1  -0.014653   0.005694     3.00055e-01     6.91943e-02
     10479      10487      1  -0.014653   0.005694     3.00055e-01     6.91943e-02
     10478      10482      1   0.010037  -0.022042     3.00055e-01     6.91943e-02
     10478      10480      1   0.010037   0.008477     2.60142e-01     2.09200e-02
     10478      10481      1   0.010037   0.008477     2.60142e-01     2.09200e-02
     10477      10482      1   0.010037  -0.022042     3.00055e-01     6.91943e-02
     10477      10480      1   0.010037   0.008477     2.60142e-01     2.09200e-02
     10477      10481      1   0.010037   0.008477     2.60142e-01     2.09200e-02
     10476      10484      1  -0.021025   0.009367     3.00055e-01     6.91943e-02
     10476      10483      1  -0.021025   0.009367     3.00055e-01     6.91943e-02
     10475      10479      1   0.012677  -0.012211     3.00055e-01     6.91943e-02
     10475      10478      1   0.012677   0.008364     2.60142e-01     2.09200e-02
     10475      10477      1   0.012677   0.008364     2.60142e-01     2.09200e-02
     10474      10479      1   0.012677  -0.012211     3.00055e-01     6.91943e-02
     10474      10478      1   0.012677   0.008364     2.60142e-01     2.09200e-02
     10474      10477      1   0.012677   0.008364     2.60142e-01     2.09200e-02
     10473      10480      1  -0.031787   0.008477     3.00055e-01     6.91943e-02
     10473      10481      1  -0.031787   0.008477     3.00055e-01     6.91943e-02
     10472      10476      1   0.017208  -0.017521     3.00055e-01     6.91943e-02
     10472      10474      1   0.017208   0.010564     2.60142e-01     2.09200e-02
     10472      10475      1   0.017208   0.010564     2.60142e-01     2.09200e-02
     10471      10476      1   0.017208  -0.017521     3.00055e-01     6.91943e-02
     10471      10474      1   0.017208   0.010564     2.60142e-01     2.09200e-02
     10471      10475      1   0.017208   0.010564     2.60142e-01     2.09200e-02
     10470      10478      1  -0.028094   0.008364     3.00055e-01     6.91943e-02
     10470      10477      1  -0.028094   0.008364     3.00055e-01     6.91943e-02
     10469      10473      1   0.007531  -0.026489     3.00055e-01     6.91943e-02
     10469      10472      1   0.007531   0.014340     2.60142e-01     2.09200e-02
     10469      10471      1   0.007531   0.014340     2.60142e-01     2.09200e-02
     10468      10473      1   0.007531  -0.026489     3.00055e-01     6.91943e-02
     10468      10472      1   0.007531   0.014340     2.60142e-01     2.09200e-02
     10468      10471      1   0.007531   0.014340     2.60142e-01     2.09200e-02
     10467      10474      1   0.017463   0.010564     3.00055e-01     6.91943e-02
     10467      10475      1   0.017463   0.010564     3.00055e-01     6.91943e-02
     10466      10470      1   0.025511  -0.023412     3.00055e-01     6.91943e-02
     10466      10468      1   0.025511   0.006276     2.60142e-01     2.09200e-02
     10466      10469      1   0.025511   0.006276     2.60142e-01     2.09200e-02
     10465      10470      1   0.025511  -0.023412     3.00055e-01     6.91943e-02
     10465      10468      1   0.025511   0.006276     2.60142e-01     2.09200e-02
     10465      10469      1   0.025511   0.006276     2.60142e-01     2.09200e-02
     10464      10472      1  -0.111712   0.014340     3.00055e-01     6.91943e-02
     10464      10471      1  -0.111712   0.014340     3.00055e-01     6.91943e-02
     10463      10470      1   0.025511  -0.023412     3.00055e-01     6.91943e-02
     10463      10468      1   0.025511   0.006276     2.60142e-01     2.09200e-02
     10463      10469      1   0.025511   0.006276     2.60142e-01     2.09200e-02
     10542      10544      1   0.053944  -0.559638     2.78067e-01     9.58675e-02
     10542      10545      1   0.053944  -0.479574     2.80072e-01     8.62554e-02
     10541      10544      1   0.053944  -0.559638     2.78067e-01     9.58675e-02
     10541      10545      1   0.053944  -0.479574     2.80072e-01     8.62554e-02
     10539      10542      1   0.018859   0.044953     2.60142e-01     2.09200e-02
     10539      10541      1   0.018859   0.044953     2.60142e-01     2.09200e-02
     10539      10543      1   0.018859   0.758669     3.00055e-01     6.13495e-02
     10538      10542      1   0.018859   0.044953     2.60142e-01     2.09200e-02
     10538      10541      1   0.018859   0.044953     2.60142e-01     2.09200e-02
     10538      10543      1   0.018859   0.758669     3.00055e-01     6.13495e-02
     10536      10540      1   0.020431  -0.136833     3.00055e-01     6.91943e-02
     10536      10539      1   0.020431   0.015716     2.60142e-01     2.09200e-02
     10536      10538      1   0.020431   0.015716     2.60142e-01     2.09200e-02
     10535      10540      1   0.020431  -0.136833     3.00055e-01     6.91943e-02
     10535      10539      1   0.020431   0.015716     2.60142e-01     2.09200e-02
     10535      10538      1   0.020431   0.015716     2.60142e-01     2.09200e-02
     10534      10542      1  -0.026954   0.044953     3.00055e-01     6.91943e-02
     10534      10541      1  -0.026954   0.044953     3.00055e-01     6.91943e-02
     10533      10537      1   0.010573  -0.002029     3.00055e-01     6.91943e-02
     10533      10536      1   0.010573   0.017026     2.60142e-01     2.09200e-02
     10533      10535      1   0.010573   0.017026     2.60142e-01     2.09200e-02
     10532      10537      1   0.010573  -0.002029     3.00055e-01     6.91943e-02
     10532      10536      1   0.010573   0.017026     2.60142e-01     2.09200e-02
     10532      10535      1   0.010573   0.017026     2.60142e-01     2.09200e-02
     10531      10539      1  -0.016521   0.015716     3.00055e-01     6.91943e-02
     10531      10538      1  -0.016521   0.015716     3.00055e-01     6.91943e-02
     10530      10534      1   0.011511  -0.022462     3.00055e-01     6.91943e-02
     10530      10532      1   0.011511   0.008811     2.60142e-01     2.09200e-02
     10530      10533      1   0.011511   0.008811     2.60142e-01     2.09200e-02
     10529      10534      1   0.011511  -0.022462     3.00055e-01     6.91943e-02
     10529      10532      1   0.011511   0.008811     2.60142e-01     2.09200e-02
     10529      10533      1   0.011511   0.008811     2.60142e-01     2.09200e-02
     10528      10536      1  -0.027812   0.017026     3.00055e-01     6.91943e-02
     10528      10535      1  -0.027812   0.017026     3.00055e-01     6.91943e-02
     10527      10531      1   0.006833  -0.013767     3.00055e-01     6.91943e-02
     10527      10529      1   0.006833   0.009592     2.60142e-01     2.09200e-02
     10527      10530      1   0.006833   0.009592     2.60142e-01     2.09200e-02
     10526      10531      1   0.006833  -0.013767     3.00055e-01     6.91943e-02
     10526      10529      1   0.006833   0.009592     2.60142e-01     2.09200e-02
     10526      10530      1   0.006833   0.009592     2.60142e-01     2.09200e-02
     10525      10532      1  -0.004386   0.008811     3.00055e-01     6.91943e-02
     10525      10533      1  -0.004386   0.008811     3.00055e-01     6.91943e-02
     10524      10528      1   0.011241  -0.023177     3.00055e-01     6.91943e-02
     10524      10526      1   0.011241   0.005694     2.60142e-01     2.09200e-02
     10524      10527      1   0.011241   0.005694     2.60142e-01     2.09200e-02
     10523      10528      1   0.011241  -0.023177     3.00055e-01     6.91943e-02
     10523      10526      1   0.011241   0.005694     2.60142e-01     2.09200e-02
     10523      10527      1   0.011241   0.005694     2.60142e-01     2.09200e-02
     10522      10529      1  -0.026451   0.009592     3.00055e-01     6.91943e-02
     10522      10530      1  -0.026451   0.009592     3.00055e-01     6.91943e-02
     10521      10525      1   0.010172  -0.003655     3.00055e-01     6.91943e-02
     10521      10524      1   0.010172   0.009367     2.60142e-01     2.09200e-02
     10521      10523      1   0.010172   0.009367     2.60142e-01     2.09200e-02
     10520      10525      1   0.010172  -0.003655     3.00055e-01     6.91943e-02
     10520      10524      1   0.010172   0.009367     2.60142e-01     2.09200e-02
     10520      10523      1   0.010172   0.009367     2.60142e-01     2.09200e-02
     10519      10526      1  -0.014653   0.005694     3.00055e-01     6.91943e-02
     10519      10527      1  -0.014653   0.005694     3.00055e-01     6.91943e-02
     10518      10522      1   0.010037  -0.022042     3.00055e-01     6.91943e-02
     10518      10520      1   0.010037   0.008477     2.60142e-01     2.09200e-02
     10518      10521      1   0.010037   0.008477     2.60142e-01     2.09200e-02
     10517      10522      1   0.010037  -0.022042     3.00055e-01     6.91943e-02
     10517      10520      1   0.010037   0.008477     2.60142e-01     2.09200e-02
     10517      10521      1   0.010037   0.008477     2.60142e-01     2.09200e-02
     10516      10524      1  -0.021025   0.009367     3.00055e-01     6.91943e-02
     10516      10523      1  -0.021025   0.009367     3.00055e-01     6.91943e-02
     10515      10519      1   0.012677  -0.012211     3.00055e-01     6.91943e-02
     10515      10518      1   0.012677   0.008364     2.60142e-01     2.09200e-02
     10515      10517      1   0.012677   0.008364     2.60142e-01     2.09200e-02
     10514      10519      1   0.012677  -0.012211     3.00055e-01     6.91943e-02
     10514      10518      1   0.012677   0.008364     2.60142e-01     2.09200e-02
     10514      10517      1   0.012677   0.008364     2.60142e-01     2.09200e-02
     10513      10520      1  -0.031787   0.008477     3.00055e-01     6.91943e-02
     10513      10521      1  -0.031787   0.008477     3.00055e-01     6.91943e-02
     10512      10516      1   0.017208  -0.017521     3.00055e-01     6.91943e-02
     10512      10514      1   0.017208   0.010564     2.60142e-01     2.09200e-02
     10512      10515      1   0.017208   0.010564     2.60142e-01     2.09200e-02
     10511      10516      1   0.017208  -0.017521     3.00055e-01     6.91943e-02
     10511      10514      1   0.017208   0.010564     2.60142e-01     2.09200e-02
     10511      10515      1   0.017208   0.010564     2.60142e-01     2.09200e-02
     10510      10518      1  -0.028094   0.008364     3.00055e-01     6.91943e-02
     10510      10517      1  -0.028094   0.008364     3.00055e-01     6.91943e-02
     10509      10513      1   0.007531  -0.026489     3.00055e-01     6.91943e-02
     10509      10512      1   0.007531   0.014340     2.60142e-01     2.09200e-02
     10509      10511      1   0.007531   0.014340     2.60142e-01     2.09200e-02
     10508      10513      1   0.007531  -0.026489     3.00055e-01     6.91943e-02
     10508      10512      1   0.007531   0.014340     2.60142e-01     2.09200e-02
     10508      10511      1   0.007531   0.014340     2.60142e-01     2.09200e-02
     10507      10514      1   0.017463   0.010564     3.00055e-01     6.91943e-02
     10507      10515      1   0.017463   0.010564     3.00055e-01     6.91943e-02
     10506      10510      1   0.025511  -0.023412     3.00055e-01     6.91943e-02
     10506      10508      1   0.025511   0.006276     2.60142e-01     2.09200e-02
     10506      10509      1   0.025511   0.006276     2.60142e-01     2.09200e-02
     10505      10510      1   0.025511  -0.023412     3.00055e-01     6.91943e-02
     10505      10508      1   0.025511   0.006276     2.60142e-01     2.09200e-02
     10505      10509      1   0.025511   0.006276     2.60142e-01     2.09200e-02
     10504      10512      1  -0.111712   0.014340     3.00055e-01     6.91943e-02
     10504      10511      1  -0.111712   0.014340     3.00055e-01     6.91943e-02
     10503      10510      1   0.025511  -0.023412     3.00055e-01     6.91943e-02
     10503      10508      1   0.025511   0.006276     2.60142e-01     2.09200e-02
     10503      10509      1   0.025511   0.006276     2.60142e-01     2.09200e-02
     10580      10620      1  -0.673755   0.044953     2.78067e-01     9.58675e-02
     10580      10619      1  -0.673755   0.044953     2.78067e-01     9.58675e-02
     10579      10617      1   0.897613   0.015716     3.00055e-01     6.13495e-02
     10579      10616      1   0.897613   0.015716     3.00055e-01     6.13495e-02
     10578      10620      1  -0.552948   0.044953     2.80072e-01     8.62554e-02
     10578      10619      1  -0.552948   0.044953     2.80072e-01     8.62554e-02
     10571      10572      1   0.172230  -0.282478     2.67982e-01     8.67002e-02
     10570      10572      1   0.172230  -0.282478     2.67982e-01     8.67002e-02
     10569      10572      1   0.172230  -0.282478     2.67982e-01     8.67002e-02
     10568      10573      1  -0.338973   0.143525     2.67982e-01     8.67002e-02
     10568      10574      1  -0.338973   0.143525     2.67982e-01     8.67002e-02
     10568      10575      1  -0.338973   0.143525     2.67982e-01     8.67002e-02
     10567      10568      1   0.172230  -0.282478     2.67982e-01     8.67002e-02
     10567      10572      1   0.172230  -0.282478     2.67982e-01     8.67002e-02
     10566      10568      1   0.172230  -0.282478     2.67982e-01     8.67002e-02
     10566      10572      1   0.172230  -0.282478     2.67982e-01     8.67002e-02
     10565      10568      1   0.172230  -0.282478     2.67982e-01     8.67002e-02
     10565      10572      1   0.172230  -0.282478     2.67982e-01     8.67002e-02
     10564      10569      1  -0.338973   0.143525     2.67982e-01     8.67002e-02
     10564      10570      1  -0.338973   0.143525     2.67982e-01     8.67002e-02
     10564      10571      1  -0.338973   0.143525     2.67982e-01     8.67002e-02
     10564      10573      1  -0.338973   0.143525     2.67982e-01     8.67002e-02
     10564      10574      1  -0.338973   0.143525     2.67982e-01     8.67002e-02
     10564      10575      1  -0.338973   0.143525     2.67982e-01     8.67002e-02
     10562      10564      1   0.136415  -0.282478     2.67982e-01     8.67002e-02
     10562      10568      1   0.136415  -0.282478     2.67982e-01     8.67002e-02
     10562      10572      1   0.136415  -0.282478     2.67982e-01     8.67002e-02
     10561      10564      1   0.136415  -0.282478     2.67982e-01     8.67002e-02
     10561      10568      1   0.136415  -0.282478     2.67982e-01     8.67002e-02
     10561      10572      1   0.136415  -0.282478     2.67982e-01     8.67002e-02
     10560      10565      1  -0.170824   0.143525     2.67982e-01     8.67002e-02
     10560      10566      1  -0.170824   0.143525     2.67982e-01     8.67002e-02
     10560      10567      1  -0.170824   0.143525     2.67982e-01     8.67002e-02
     10560      10569      1  -0.170824   0.143525     2.67982e-01     8.67002e-02
     10560      10570      1  -0.170824   0.143525     2.67982e-01     8.67002e-02
     10560      10571      1  -0.170824   0.143525     2.67982e-01     8.67002e-02
     10560      10573      1  -0.170824   0.143525     2.67982e-01     8.67002e-02
     10560      10574      1  -0.170824   0.143525     2.67982e-01     8.67002e-02
     10560      10575      1  -0.170824   0.143525     2.67982e-01     8.67002e-02
     10559      10561      1   0.078534   0.113679     2.21567e-01     3.28444e-02
     10559      10562      1   0.078534   0.113679     2.21567e-01     3.28444e-02
     10559      10563      1   0.078534   0.204385     2.86068e-01     1.08078e-01
     10558      10561      1   0.078534   0.113679     2.21567e-01     3.28444e-02
     10558      10562      1   0.078534   0.113679     2.21567e-01     3.28444e-02
     10558      10563      1   0.078534   0.204385     2.86068e-01     1.08078e-01
     10556      10561      1  -0.508176   0.113679     2.47999e-01     1.08078e-01
     10556      10562      1  -0.508176   0.113679     2.47999e-01     1.08078e-01
     10555      10558      1   1.339721   0.065445     3.10656e-01     1.17227e-01
     10555      10559      1   1.339721   0.065445     3.10656e-01     1.17227e-01
     10553      10578      1   0.095591  -0.460790     2.73568e-01     1.08078e-01
     10553      10555      1   0.095591   1.116434     3.10656e-01     1.17227e-01
     10552      10578      1   0.095591  -0.460790     2.73568e-01     1.08078e-01
     10552      10555      1   0.095591   1.116434     3.10656e-01     1.17227e-01
     10550      10552      1   0.063253   0.079659     2.47135e-01     3.28444e-02
     10550      10553      1   0.063253   0.079659     2.47135e-01     3.28444e-02
     10550      10554      1   0.063253  -0.424567     2.73568e-01     1.08078e-01
     10550      10579      1   0.063253   0.748011     2.93551e-01     7.68707e-02
     10548      10550      1   0.070469   0.052711     2.47135e-01     3.28444e-02
     10548      10551      1   0.070469   0.014549     2.93551e-01     8.67002e-02
     10548      10578      1   0.070469  -0.460790     2.73568e-01     1.08078e-01
     10547      10550      1   0.070469   0.052711     2.47135e-01     3.28444e-02
     10547      10551      1   0.070469   0.014549     2.93551e-01     8.67002e-02
     10547      10578      1   0.070469  -0.460790     2.73568e-01     1.08078e-01
     10546      10552      1   0.196939   0.079659     2.93551e-01     8.67002e-02
     10546      10553      1   0.196939   0.079659     2.93551e-01     8.67002e-02
     10545      10550      1  -0.575489   0.052711     2.73568e-01     1.08078e-01
     10543      10547      1   0.910403   0.058724     2.93551e-01     7.68707e-02
     10543      10548      1   0.910403   0.058724     2.93551e-01     7.68707e-02
     10617      10620      1   0.018859   0.044953     2.60142e-01     2.09200e-02
     10617      10619      1   0.018859   0.044953     2.60142e-01     2.09200e-02
     10616      10620      1   0.018859   0.044953     2.60142e-01     2.09200e-02
     10616      10619      1   0.018859   0.044953     2.60142e-01     2.09200e-02
     10614      10618      1   0.020431  -0.136833     3.00055e-01     6.91943e-02
     10614      10617      1   0.020431   0.015716     2.60142e-01     2.09200e-02
     10614      10616      1   0.020431   0.015716     2.60142e-01     2.09200e-02
     10613      10618      1   0.020431  -0.136833     3.00055e-01     6.91943e-02
     10613      10617      1   0.020431   0.015716     2.60142e-01     2.09200e-02
     10613      10616      1   0.020431   0.015716     2.60142e-01     2.09200e-02
     10612      10620      1  -0.026954   0.044953     3.00055e-01     6.91943e-02
     10612      10619      1  -0.026954   0.044953     3.00055e-01     6.91943e-02
     10611      10615      1   0.010573  -0.002029     3.00055e-01     6.91943e-02
     10611      10614      1   0.010573   0.017026     2.60142e-01     2.09200e-02
     10611      10613      1   0.010573   0.017026     2.60142e-01     2.09200e-02
     10610      10615      1   0.010573  -0.002029     3.00055e-01     6.91943e-02
     10610      10614      1   0.010573   0.017026     2.60142e-01     2.09200e-02
     10610      10613      1   0.010573   0.017026     2.60142e-01     2.09200e-02
     10609      10617      1  -0.016521   0.015716     3.00055e-01     6.91943e-02
     10609      10616      1  -0.016521   0.015716     3.00055e-01     6.91943e-02
     10608      10612      1   0.011511  -0.022462     3.00055e-01     6.91943e-02
     10608      10610      1   0.011511   0.008811     2.60142e-01     2.09200e-02
     10608      10611      1   0.011511   0.008811     2.60142e-01     2.09200e-02
     10607      10612      1   0.011511  -0.022462     3.00055e-01     6.91943e-02
     10607      10610      1   0.011511   0.008811     2.60142e-01     2.09200e-02
     10607      10611      1   0.011511   0.008811     2.60142e-01     2.09200e-02
     10606      10614      1  -0.027812   0.017026     3.00055e-01     6.91943e-02
     10606      10613      1  -0.027812   0.017026     3.00055e-01     6.91943e-02
     10605      10609      1   0.006833  -0.013767     3.00055e-01     6.91943e-02
     10605      10607      1   0.006833   0.009592     2.60142e-01     2.09200e-02
     10605      10608      1   0.006833   0.009592     2.60142e-01     2.09200e-02
     10604      10609      1   0.006833  -0.013767     3.00055e-01     6.91943e-02
     10604      10607      1   0.006833   0.009592     2.60142e-01     2.09200e-02
     10604      10608      1   0.006833   0.009592     2.60142e-01     2.09200e-02
     10603      10610      1  -0.004386   0.008811     3.00055e-01     6.91943e-02
     10603      10611      1  -0.004386   0.008811     3.00055e-01     6.91943e-02
     10602      10606      1   0.011241  -0.023177     3.00055e-01     6.91943e-02
     10602      10604      1   0.011241   0.005694     2.60142e-01     2.09200e-02
     10602      10605      1   0.011241   0.005694     2.60142e-01     2.09200e-02
     10601      10606      1   0.011241  -0.023177     3.00055e-01     6.91943e-02
     10601      10604      1   0.011241   0.005694     2.60142e-01     2.09200e-02
     10601      10605      1   0.011241   0.005694     2.60142e-01     2.09200e-02
     10600      10607      1  -0.026451   0.009592     3.00055e-01     6.91943e-02
     10600      10608      1  -0.026451   0.009592     3.00055e-01     6.91943e-02
     10599      10603      1   0.010172  -0.003655     3.00055e-01     6.91943e-02
     10599      10602      1   0.010172   0.009367     2.60142e-01     2.09200e-02
     10599      10601      1   0.010172   0.009367     2.60142e-01     2.09200e-02
     10598      10603      1   0.010172  -0.003655     3.00055e-01     6.91943e-02
     10598      10602      1   0.010172   0.009367     2.60142e-01     2.09200e-02
     10598      10601      1   0.010172   0.009367     2.60142e-01     2.09200e-02
     10597      10604      1  -0.014653   0.005694     3.00055e-01     6.91943e-02
     10597      10605      1  -0.014653   0.005694     3.00055e-01     6.91943e-02
     10596      10600      1   0.010037  -0.022042     3.00055e-01     6.91943e-02
     10596      10598      1   0.010037   0.008477     2.60142e-01     2.09200e-02
     10596      10599      1   0.010037   0.008477     2.60142e-01     2.09200e-02
     10595      10600      1   0.010037  -0.022042     3.00055e-01     6.91943e-02
     10595      10598      1   0.010037   0.008477     2.60142e-01     2.09200e-02
     10595      10599      1   0.010037   0.008477     2.60142e-01     2.09200e-02
     10594      10602      1  -0.021025   0.009367     3.00055e-01     6.91943e-02
     10594      10601      1  -0.021025   0.009367     3.00055e-01     6.91943e-02
     10593      10597      1   0.012677  -0.012211     3.00055e-01     6.91943e-02
     10593      10596      1   0.012677   0.008364     2.60142e-01     2.09200e-02
     10593      10595      1   0.012677   0.008364     2.60142e-01     2.09200e-02
     10592      10597      1   0.012677  -0.012211     3.00055e-01     6.91943e-02
     10592      10596      1   0.012677   0.008364     2.60142e-01     2.09200e-02
     10592      10595      1   0.012677   0.008364     2.60142e-01     2.09200e-02
     10591      10598      1  -0.031787   0.008477     3.00055e-01     6.91943e-02
     10591      10599      1  -0.031787   0.008477     3.00055e-01     6.91943e-02
     10590      10594      1   0.017208  -0.017521     3.00055e-01     6.91943e-02
     10590      10592      1   0.017208   0.010564     2.60142e-01     2.09200e-02
     10590      10593      1   0.017208   0.010564     2.60142e-01     2.09200e-02
     10589      10594      1   0.017208  -0.017521     3.00055e-01     6.91943e-02
     10589      10592      1   0.017208   0.010564     2.60142e-01     2.09200e-02
     10589      10593      1   0.017208   0.010564     2.60142e-01     2.09200e-02
     10588      10596      1  -0.028094   0.008364     3.00055e-01     6.91943e-02
     10588      10595      1  -0.028094   0.008364     3.00055e-01     6.91943e-02
     10587      10591      1   0.007531  -0.026489     3.00055e-01     6.91943e-02
     10587      10590      1   0.007531   0.014340     2.60142e-01     2.09200e-02
     10587      10589      1   0.007531   0.014340     2.60142e-01     2.09200e-02
     10586      10591      1   0.007531  -0.026489     3.00055e-01     6.91943e-02
     10586      10590      1   0.007531   0.014340     2.60142e-01     2.09200e-02
     10586      10589      1   0.007531   0.014340     2.60142e-01     2.09200e-02
     10585      10592      1   0.017463   0.010564     3.00055e-01     6.91943e-02
     10585      10593      1   0.017463   0.010564     3.00055e-01     6.91943e-02
     10584      10588      1   0.025511  -0.023412     3.00055e-01     6.91943e-02
     10584      10586      1   0.025511   0.006276     2.60142e-01     2.09200e-02
     10584      10587      1   0.025511   0.006276     2.60142e-01     2.09200e-02
     10583      10588      1   0.025511  -0.023412     3.00055e-01     6.91943e-02
     10583      10586      1   0.025511   0.006276     2.60142e-01     2.09200e-02
     10583      10587      1   0.025511   0.006276     2.60142e-01     2.09200e-02
     10582      10590      1  -0.111712   0.014340     3.00055e-01     6.91943e-02
     10582      10589      1  -0.111712   0.014340     3.00055e-01     6.91943e-02
     10581      10588      1   0.025511  -0.023412     3.00055e-01     6.91943e-02
     10581      10586      1   0.025511   0.006276     2.60142e-01     2.09200e-02
     10581      10587      1   0.025511   0.006276     2.60142e-01     2.09200e-02
     10660      10662      1   0.053944  -0.559638     2.78067e-01     9.58675e-02
     10660      10663      1   0.053944  -0.479574     2.80072e-01     8.62554e-02
     10659      10662      1   0.053944  -0.559638     2.78067e-01     9.58675e-02
     10659      10663      1   0.053944  -0.479574     2.80072e-01     8.62554e-02
     10657      10660      1   0.018859   0.044953     2.60142e-01     2.09200e-02
     10657      10659      1   0.018859   0.044953     2.60142e-01     2.09200e-02
     10657      10661      1   0.018859   0.758669     3.00055e-01     6.13495e-02
     10656      10660      1   0.018859   0.044953     2.60142e-01     2.09200e-02
     10656      10659      1   0.018859   0.044953     2.60142e-01     2.09200e-02
     10656      10661      1   0.018859   0.758669     3.00055e-01     6.13495e-02
     10654      10658      1   0.020431  -0.136833     3.00055e-01     6.91943e-02
     10654      10657      1   0.020431   0.015716     2.60142e-01     2.09200e-02
     10654      10656      1   0.020431   0.015716     2.60142e-01     2.09200e-02
     10653      10658      1   0.020431  -0.136833     3.00055e-01     6.91943e-02
     10653      10657      1   0.020431   0.015716     2.60142e-01     2.09200e-02
     10653      10656      1   0.020431   0.015716     2.60142e-01     2.09200e-02
     10652      10660      1  -0.026954   0.044953     3.00055e-01     6.91943e-02
     10652      10659      1  -0.026954   0.044953     3.00055e-01     6.91943e-02
     10651      10655      1   0.010573  -0.002029     3.00055e-01     6.91943e-02
     10651      10654      1   0.010573   0.017026     2.60142e-01     2.09200e-02
     10651      10653      1   0.010573   0.017026     2.60142e-01     2.09200e-02
     10650      10655      1   0.010573  -0.002029     3.00055e-01     6.91943e-02
     10650      10654      1   0.010573   0.017026     2.60142e-01     2.09200e-02
     10650      10653      1   0.010573   0.017026     2.60142e-01     2.09200e-02
     10649      10657      1  -0.016521   0.015716     3.00055e-01     6.91943e-02
     10649      10656      1  -0.016521   0.015716     3.00055e-01     6.91943e-02
     10648      10652      1   0.011511  -0.022462     3.00055e-01     6.91943e-02
     10648      10650      1   0.011511   0.008811     2.60142e-01     2.09200e-02
     10648      10651      1   0.011511   0.008811     2.60142e-01     2.09200e-02
     10647      10652      1   0.011511  -0.022462     3.00055e-01     6.91943e-02
     10647      10650      1   0.011511   0.008811     2.60142e-01     2.09200e-02
     10647      10651      1   0.011511   0.008811     2.60142e-01     2.09200e-02
     10646      10654      1  -0.027812   0.017026     3.00055e-01     6.91943e-02
     10646      10653      1  -0.027812   0.017026     3.00055e-01     6.91943e-02
     10645      10649      1   0.006833  -0.013767     3.00055e-01     6.91943e-02
     10645      10647      1   0.006833   0.009592     2.60142e-01     2.09200e-02
     10645      10648      1   0.006833   0.009592     2.60142e-01     2.09200e-02
     10644      10649      1   0.006833  -0.013767     3.00055e-01     6.91943e-02
     10644      10647      1   0.006833   0.009592     2.60142e-01     2.09200e-02
     10644      10648      1   0.006833   0.009592     2.60142e-01     2.09200e-02
     10643      10650      1  -0.004386   0.008811     3.00055e-01     6.91943e-02
     10643      10651      1  -0.004386   0.008811     3.00055e-01     6.91943e-02
     10642      10646      1   0.011241  -0.023177     3.00055e-01     6.91943e-02
     10642      10644      1   0.011241   0.005694     2.60142e-01     2.09200e-02
     10642      10645      1   0.011241   0.005694     2.60142e-01     2.09200e-02
     10641      10646      1   0.011241  -0.023177     3.00055e-01     6.91943e-02
     10641      10644      1   0.011241   0.005694     2.60142e-01     2.09200e-02
     10641      10645      1   0.011241   0.005694     2.60142e-01     2.09200e-02
     10640      10647      1  -0.026451   0.009592     3.00055e-01     6.91943e-02
     10640      10648      1  -0.026451   0.009592     3.00055e-01     6.91943e-02
     10639      10643      1   0.010172  -0.003655     3.00055e-01     6.91943e-02
     10639      10642      1   0.010172   0.009367     2.60142e-01     2.09200e-02
     10639      10641      1   0.010172   0.009367     2.60142e-01     2.09200e-02
     10638      10643      1   0.010172  -0.003655     3.00055e-01     6.91943e-02
     10638      10642      1   0.010172   0.009367     2.60142e-01     2.09200e-02
     10638      10641      1   0.010172   0.009367     2.60142e-01     2.09200e-02
     10637      10644      1  -0.014653   0.005694     3.00055e-01     6.91943e-02
     10637      10645      1  -0.014653   0.005694     3.00055e-01     6.91943e-02
     10636      10640      1   0.010037  -0.022042     3.00055e-01     6.91943e-02
     10636      10638      1   0.010037   0.008477     2.60142e-01     2.09200e-02
     10636      10639      1   0.010037   0.008477     2.60142e-01     2.09200e-02
     10635      10640      1   0.010037  -0.022042     3.00055e-01     6.91943e-02
     10635      10638      1   0.010037   0.008477     2.60142e-01     2.09200e-02
     10635      10639      1   0.010037   0.008477     2.60142e-01     2.09200e-02
     10634      10642      1  -0.021025   0.009367     3.00055e-01     6.91943e-02
     10634      10641      1  -0.021025   0.009367     3.00055e-01     6.91943e-02
     10633      10637      1   0.012677  -0.012211     3.00055e-01     6.91943e-02
     10633      10636      1   0.012677   0.008364     2.60142e-01     2.09200e-02
     10633      10635      1   0.012677   0.008364     2.60142e-01     2.09200e-02
     10632      10637      1   0.012677  -0.012211     3.00055e-01     6.91943e-02
     10632      10636      1   0.012677   0.008364     2.60142e-01     2.09200e-02
     10632      10635      1   0.012677   0.008364     2.60142e-01     2.09200e-02
     10631      10638      1  -0.031787   0.008477     3.00055e-01     6.91943e-02
     10631      10639      1  -0.031787   0.008477     3.00055e-01     6.91943e-02
     10630      10634      1   0.017208  -0.017521     3.00055e-01     6.91943e-02
     10630      10632      1   0.017208   0.010564     2.60142e-01     2.09200e-02
     10630      10633      1   0.017208   0.010564     2.60142e-01     2.09200e-02
     10629      10634      1   0.017208  -0.017521     3.00055e-01     6.91943e-02
     10629      10632      1   0.017208   0.010564     2.60142e-01     2.09200e-02
     10629      10633      1   0.017208   0.010564     2.60142e-01     2.09200e-02
     10628      10636      1  -0.028094   0.008364     3.00055e-01     6.91943e-02
     10628      10635      1  -0.028094   0.008364     3.00055e-01     6.91943e-02
     10627      10631      1   0.007531  -0.026489     3.00055e-01     6.91943e-02
     10627      10630      1   0.007531   0.014340     2.60142e-01     2.09200e-02
     10627      10629      1   0.007531   0.014340     2.60142e-01     2.09200e-02
     10626      10631      1   0.007531  -0.026489     3.00055e-01     6.91943e-02
     10626      10630      1   0.007531   0.014340     2.60142e-01     2.09200e-02
     10626      10629      1   0.007531   0.014340     2.60142e-01     2.09200e-02
     10625      10632      1   0.017463   0.010564     3.00055e-01     6.91943e-02
     10625      10633      1   0.017463   0.010564     3.00055e-01     6.91943e-02
     10624      10628      1   0.025511  -0.023412     3.00055e-01     6.91943e-02
     10624      10626      1   0.025511   0.006276     2.60142e-01     2.09200e-02
     10624      10627      1   0.025511   0.006276     2.60142e-01     2.09200e-02
     10623      10628      1   0.025511  -0.023412     3.00055e-01     6.91943e-02
     10623      10626      1   0.025511   0.006276     2.60142e-01     2.09200e-02
     10623      10627      1   0.025511   0.006276     2.60142e-01     2.09200e-02
     10622      10630      1  -0.111712   0.014340     3.00055e-01     6.91943e-02
     10622      10629      1  -0.111712   0.014340     3.00055e-01     6.91943e-02
     10621      10628      1   0.025511  -0.023412     3.00055e-01     6.91943e-02
     10621      10626      1   0.025511   0.006276     2.60142e-01     2.09200e-02
     10621      10627      1   0.025511   0.006276     2.60142e-01     2.09200e-02
     10698      10738      1  -0.673755   0.044953     2.78067e-01     9.58675e-02
     10698      10737      1  -0.673755   0.044953     2.78067e-01     9.58675e-02
     10697      10735      1   0.897613   0.015716     3.00055e-01     6.13495e-02
     10697      10734      1   0.897613   0.015716     3.00055e-01     6.13495e-02
     10696      10738      1  -0.552948   0.044953     2.80072e-01     8.62554e-02
     10696      10737      1  -0.552948   0.044953     2.80072e-01     8.62554e-02
     10689      10690      1   0.172230  -0.282478     2.67982e-01     8.67002e-02
     10688      10690      1   0.172230  -0.282478     2.67982e-01     8.67002e-02
     10687      10690      1   0.172230  -0.282478     2.67982e-01     8.67002e-02
     10686      10691      1  -0.338973   0.143525     2.67982e-01     8.67002e-02
     10686      10692      1  -0.338973   0.143525     2.67982e-01     8.67002e-02
     10686      10693      1  -0.338973   0.143525     2.67982e-01     8.67002e-02
     10685      10686      1   0.172230  -0.282478     2.67982e-01     8.67002e-02
     10685      10690      1   0.172230  -0.282478     2.67982e-01     8.67002e-02
     10684      10686      1   0.172230  -0.282478     2.67982e-01     8.67002e-02
     10684      10690      1   0.172230  -0.282478     2.67982e-01     8.67002e-02
     10683      10686      1   0.172230  -0.282478     2.67982e-01     8.67002e-02
     10683      10690      1   0.172230  -0.282478     2.67982e-01     8.67002e-02
     10682      10687      1  -0.338973   0.143525     2.67982e-01     8.67002e-02
     10682      10688      1  -0.338973   0.143525     2.67982e-01     8.67002e-02
     10682      10689      1  -0.338973   0.143525     2.67982e-01     8.67002e-02
     10682      10691      1  -0.338973   0.143525     2.67982e-01     8.67002e-02
     10682      10692      1  -0.338973   0.143525     2.67982e-01     8.67002e-02
     10682      10693      1  -0.338973   0.143525     2.67982e-01     8.67002e-02
     10680      10682      1   0.136415  -0.282478     2.67982e-01     8.67002e-02
     10680      10686      1   0.136415  -0.282478     2.67982e-01     8.67002e-02
     10680      10690      1   0.136415  -0.282478     2.67982e-01     8.67002e-02
     10679      10682      1   0.136415  -0.282478     2.67982e-01     8.67002e-02
     10679      10686      1   0.136415  -0.282478     2.67982e-01     8.67002e-02
     10679      10690      1   0.136415  -0.282478     2.67982e-01     8.67002e-02
     10678      10683      1  -0.170824   0.143525     2.67982e-01     8.67002e-02
     10678      10684      1  -0.170824   0.143525     2.67982e-01     8.67002e-02
     10678      10685      1  -0.170824   0.143525     2.67982e-01     8.67002e-02
     10678      10687      1  -0.170824   0.143525     2.67982e-01     8.67002e-02
     10678      10688      1  -0.170824   0.143525     2.67982e-01     8.67002e-02
     10678      10689      1  -0.170824   0.143525     2.67982e-01     8.67002e-02
     10678      10691      1  -0.170824   0.143525     2.67982e-01     8.67002e-02
     10678      10692      1  -0.170824   0.143525     2.67982e-01     8.67002e-02
     10678      10693      1  -0.170824   0.143525     2.67982e-01     8.67002e-02
     10677      10679      1   0.078534   0.113679     2.21567e-01     3.28444e-02
     10677      10680      1   0.078534   0.113679     2.21567e-01     3.28444e-02
     10677      10681      1   0.078534   0.204385     2.86068e-01     1.08078e-01
     10676      10679      1   0.078534   0.113679     2.21567e-01     3.28444e-02
     10676      10680      1   0.078534   0.113679     2.21567e-01     3.28444e-02
     10676      10681      1   0.078534   0.204385     2.86068e-01     1.08078e-01
     10674      10679      1  -0.508176   0.113679     2.47999e-01     1.08078e-01
     10674      10680      1  -0.508176   0.113679     2.47999e-01     1.08078e-01
     10673      10676      1   1.339721   0.065445     3.10656e-01     1.17227e-01
     10673      10677      1   1.339721   0.065445     3.10656e-01     1.17227e-01
     10671      10696      1   0.095591  -0.460790     2.73568e-01     1.08078e-01
     10671      10673      1   0.095591   1.116434     3.10656e-01     1.17227e-01
     10670      10696      1   0.095591  -0.460790     2.73568e-01     1.08078e-01
     10670      10673      1   0.095591   1.116434     3.10656e-01     1.17227e-01
     10668      10670      1   0.063253   0.079659     2.47135e-01     3.28444e-02
     10668      10671      1   0.063253   0.079659     2.47135e-01     3.28444e-02
     10668      10672      1   0.063253  -0.424567     2.73568e-01     1.08078e-01
     10668      10697      1   0.063253   0.748011     2.93551e-01     7.68707e-02
     10666      10668      1   0.070469   0.052711     2.47135e-01     3.28444e-02
     10666      10669      1   0.070469   0.014549     2.93551e-01     8.67002e-02
     10666      10696      1   0.070469  -0.460790     2.73568e-01     1.08078e-01
     10665      10668      1   0.070469   0.052711     2.47135e-01     3.28444e-02
     10665      10669      1   0.070469   0.014549     2.93551e-01     8.67002e-02
     10665      10696      1   0.070469  -0.460790     2.73568e-01     1.08078e-01
     10664      10670      1   0.196939   0.079659     2.93551e-01     8.67002e-02
     10664      10671      1   0.196939   0.079659     2.93551e-01     8.67002e-02
     10663      10668      1  -0.575489   0.052711     2.73568e-01     1.08078e-01
     10661      10665      1   0.910403   0.058724     2.93551e-01     7.68707e-02
     10661      10666      1   0.910403   0.058724     2.93551e-01     7.68707e-02
     10735      10738      1   0.018859   0.044953     2.60142e-01     2.09200e-02
     10735      10737      1   0.018859   0.044953     2.60142e-01     2.09200e-02
     10734      10738      1   0.018859   0.044953     2.60142e-01     2.09200e-02
     10734      10737      1   0.018859   0.044953     2.60142e-01     2.09200e-02
     10732      10736      1   0.020431  -0.136833     3.00055e-01     6.91943e-02
     10732      10735      1   0.020431   0.015716     2.60142e-01     2.09200e-02
     10732      10734      1   0.020431   0.015716     2.60142e-01     2.09200e-02
     10731      10736      1   0.020431  -0.136833     3.00055e-01     6.91943e-02
     10731      10735      1   0.020431   0.015716     2.60142e-01     2.09200e-02
     10731      10734      1   0.020431   0.015716     2.60142e-01     2.09200e-02
     10730      10738      1  -0.026954   0.044953     3.00055e-01     6.91943e-02
     10730      10737      1  -0.026954   0.044953     3.00055e-01     6.91943e-02
     10729      10733      1   0.010573  -0.002029     3.00055e-01     6.91943e-02
     10729      10732      1   0.010573   0.017026     2.60142e-01     2.09200e-02
     10729      10731      1   0.010573   0.017026     2.60142e-01     2.09200e-02
     10728      10733      1   0.010573  -0.002029     3.00055e-01     6.91943e-02
     10728      10732      1   0.010573   0.017026     2.60142e-01     2.09200e-02
     10728      10731      1   0.010573   0.017026     2.60142e-01     2.09200e-02
     10727      10735      1  -0.016521   0.015716     3.00055e-01     6.91943e-02
     10727      10734      1  -0.016521   0.015716     3.00055e-01     6.91943e-02
     10726      10730      1   0.011511  -0.022462     3.00055e-01     6.91943e-02
     10726      10728      1   0.011511   0.008811     2.60142e-01     2.09200e-02
     10726      10729      1   0.011511   0.008811     2.60142e-01     2.09200e-02
     10725      10730      1   0.011511  -0.022462     3.00055e-01     6.91943e-02
     10725      10728      1   0.011511   0.008811     2.60142e-01     2.09200e-02
     10725      10729      1   0.011511   0.008811     2.60142e-01     2.09200e-02
     10724      10732      1  -0.027812   0.017026     3.00055e-01     6.91943e-02
     10724      10731      1  -0.027812   0.017026     3.00055e-01     6.91943e-02
     10723      10727      1   0.006833  -0.013767     3.00055e-01     6.91943e-02
     10723      10725      1   0.006833   0.009592     2.60142e-01     2.09200e-02
     10723      10726      1   0.006833   0.009592     2.60142e-01     2.09200e-02
     10722      10727      1   0.006833  -0.013767     3.00055e-01     6.91943e-02
     10722      10725      1   0.006833   0.009592     2.60142e-01     2.09200e-02
     10722      10726      1   0.006833   0.009592     2.60142e-01     2.09200e-02
     10721      10728      1  -0.004386   0.008811     3.00055e-01     6.91943e-02
     10721      10729      1  -0.004386   0.008811     3.00055e-01     6.91943e-02
     10720      10724      1   0.011241  -0.023177     3.00055e-01     6.91943e-02
     10720      10722      1   0.011241   0.005694     2.60142e-01     2.09200e-02
     10720      10723      1   0.011241   0.005694     2.60142e-01     2.09200e-02
     10719      10724      1   0.011241  -0.023177     3.00055e-01     6.91943e-02
     10719      10722      1   0.011241   0.005694     2.60142e-01     2.09200e-02
     10719      10723      1   0.011241   0.005694     2.60142e-01     2.09200e-02
     10718      10725      1  -0.026451   0.009592     3.00055e-01     6.91943e-02
     10718      10726      1  -0.026451   0.009592     3.00055e-01     6.91943e-02
     10717      10721      1   0.010172  -0.003655     3.00055e-01     6.91943e-02
     10717      10720      1   0.010172   0.009367     2.60142e-01     2.09200e-02
     10717      10719      1   0.010172   0.009367     2.60142e-01     2.09200e-02
     10716      10721      1   0.010172  -0.003655     3.00055e-01     6.91943e-02
     10716      10720      1   0.010172   0.009367     2.60142e-01     2.09200e-02
     10716      10719      1   0.010172   0.009367     2.60142e-01     2.09200e-02
     10715      10722      1  -0.014653   0.005694     3.00055e-01     6.91943e-02
     10715      10723      1  -0.014653   0.005694     3.00055e-01     6.91943e-02
     10714      10718      1   0.010037  -0.022042     3.00055e-01     6.91943e-02
     10714      10716      1   0.010037   0.008477     2.60142e-01     2.09200e-02
     10714      10717      1   0.010037   0.008477     2.60142e-01     2.09200e-02
     10713      10718      1   0.010037  -0.022042     3.00055e-01     6.91943e-02
     10713      10716      1   0.010037   0.008477     2.60142e-01     2.09200e-02
     10713      10717      1   0.010037   0.008477     2.60142e-01     2.09200e-02
     10712      10720      1  -0.021025   0.009367     3.00055e-01     6.91943e-02
     10712      10719      1  -0.021025   0.009367     3.00055e-01     6.91943e-02
     10711      10715      1   0.012677  -0.012211     3.00055e-01     6.91943e-02
     10711      10714      1   0.012677   0.008364     2.60142e-01     2.09200e-02
     10711      10713      1   0.012677   0.008364     2.60142e-01     2.09200e-02
     10710      10715      1   0.012677  -0.012211     3.00055e-01     6.91943e-02
     10710      10714      1   0.012677   0.008364     2.60142e-01     2.09200e-02
     10710      10713      1   0.012677   0.008364     2.60142e-01     2.09200e-02
     10709      10716      1  -0.031787   0.008477     3.00055e-01     6.91943e-02
     10709      10717      1  -0.031787   0.008477     3.00055e-01     6.91943e-02
     10708      10712      1   0.017208  -0.017521     3.00055e-01     6.91943e-02
     10708      10710      1   0.017208   0.010564     2.60142e-01     2.09200e-02
     10708      10711      1   0.017208   0.010564     2.60142e-01     2.09200e-02
     10707      10712      1   0.017208  -0.017521     3.00055e-01     6.91943e-02
     10707      10710      1   0.017208   0.010564     2.60142e-01     2.09200e-02
     10707      10711      1   0.017208   0.010564     2.60142e-01     2.09200e-02
     10706      10714      1  -0.028094   0.008364     3.00055e-01     6.91943e-02
     10706      10713      1  -0.028094   0.008364     3.00055e-01     6.91943e-02
     10705      10709      1   0.007531  -0.026489     3.00055e-01     6.91943e-02
     10705      10708      1   0.007531   0.014340     2.60142e-01     2.09200e-02
     10705      10707      1   0.007531   0.014340     2.60142e-01     2.09200e-02
     10704      10709      1   0.007531  -0.026489     3.00055e-01     6.91943e-02
     10704      10708      1   0.007531   0.014340     2.60142e-01     2.09200e-02
     10704      10707      1   0.007531   0.014340     2.60142e-01     2.09200e-02
     10703      10710      1   0.017463   0.010564     3.00055e-01     6.91943e-02
     10703      10711      1   0.017463   0.010564     3.00055e-01     6.91943e-02
     10702      10706      1   0.025511  -0.023412     3.00055e-01     6.91943e-02
     10702      10704      1   0.025511   0.006276     2.60142e-01     2.09200e-02
     10702      10705      1   0.025511   0.006276     2.60142e-01     2.09200e-02
     10701      10706      1   0.025511  -0.023412     3.00055e-01     6.91943e-02
     10701      10704      1   0.025511   0.006276     2.60142e-01     2.09200e-02
     10701      10705      1   0.025511   0.006276     2.60142e-01     2.09200e-02
     10700      10708      1  -0.111712   0.014340     3.00055e-01     6.91943e-02
     10700      10707      1  -0.111712   0.014340     3.00055e-01     6.91943e-02
     10699      10706      1   0.025511  -0.023412     3.00055e-01     6.91943e-02
     10699      10704      1   0.025511   0.006276     2.60142e-01     2.09200e-02
     10699      10705      1   0.025511   0.006276     2.60142e-01     2.09200e-02
     10778      10780      1   0.053944  -0.559638     2.78067e-01     9.58675e-02
     10778      10781      1   0.053944  -0.479574     2.80072e-01     8.62554e-02
     10777      10780      1   0.053944  -0.559638     2.78067e-01     9.58675e-02
     10777      10781      1   0.053944  -0.479574     2.80072e-01     8.62554e-02
     10775      10778      1   0.018859   0.044953     2.60142e-01     2.09200e-02
     10775      10777      1   0.018859   0.044953     2.60142e-01     2.09200e-02
     10775      10779      1   0.018859   0.758669     3.00055e-01     6.13495e-02
     10774      10778      1   0.018859   0.044953     2.60142e-01     2.09200e-02
     10774      10777      1   0.018859   0.044953     2.60142e-01     2.09200e-02
     10774      10779      1   0.018859   0.758669     3.00055e-01     6.13495e-02
     10772      10776      1   0.020431  -0.136833     3.00055e-01     6.91943e-02
     10772      10775      1   0.020431   0.015716     2.60142e-01     2.09200e-02
     10772      10774      1   0.020431   0.015716     2.60142e-01     2.09200e-02
     10771      10776      1   0.020431  -0.136833     3.00055e-01     6.91943e-02
     10771      10775      1   0.020431   0.015716     2.60142e-01     2.09200e-02
     10771      10774      1   0.020431   0.015716     2.60142e-01     2.09200e-02
     10770      10778      1  -0.026954   0.044953     3.00055e-01     6.91943e-02
     10770      10777      1  -0.026954   0.044953     3.00055e-01     6.91943e-02
     10769      10773      1   0.010573  -0.002029     3.00055e-01     6.91943e-02
     10769      10772      1   0.010573   0.017026     2.60142e-01     2.09200e-02
     10769      10771      1   0.010573   0.017026     2.60142e-01     2.09200e-02
     10768      10773      1   0.010573  -0.002029     3.00055e-01     6.91943e-02
     10768      10772      1   0.010573   0.017026     2.60142e-01     2.09200e-02
     10768      10771      1   0.010573   0.017026     2.60142e-01     2.09200e-02
     10767      10775      1  -0.016521   0.015716     3.00055e-01     6.91943e-02
     10767      10774      1  -0.016521   0.015716     3.00055e-01     6.91943e-02
     10766      10770      1   0.011511  -0.022462     3.00055e-01     6.91943e-02
     10766      10768      1   0.011511   0.008811     2.60142e-01     2.09200e-02
     10766      10769      1   0.011511   0.008811     2.60142e-01     2.09200e-02
     10765      10770      1   0.011511  -0.022462     3.00055e-01     6.91943e-02
     10765      10768      1   0.011511   0.008811     2.60142e-01     2.09200e-02
     10765      10769      1   0.011511   0.008811     2.60142e-01     2.09200e-02
     10764      10772      1  -0.027812   0.017026     3.00055e-01     6.91943e-02
     10764      10771      1  -0.027812   0.017026     3.00055e-01     6.91943e-02
     10763      10767      1   0.006833  -0.013767     3.00055e-01     6.91943e-02
     10763      10765      1   0.006833   0.009592     2.60142e-01     2.09200e-02
     10763      10766      1   0.006833   0.009592     2.60142e-01     2.09200e-02
     10762      10767      1   0.006833  -0.013767     3.00055e-01     6.91943e-02
     10762      10765      1   0.006833   0.009592     2.60142e-01     2.09200e-02
     10762      10766      1   0.006833   0.009592     2.60142e-01     2.09200e-02
     10761      10768      1  -0.004386   0.008811     3.00055e-01     6.91943e-02
     10761      10769      1  -0.004386   0.008811     3.00055e-01     6.91943e-02
     10760      10764      1   0.011241  -0.023177     3.00055e-01     6.91943e-02
     10760      10762      1   0.011241   0.005694     2.60142e-01     2.09200e-02
     10760      10763      1   0.011241   0.005694     2.60142e-01     2.09200e-02
     10759      10764      1   0.011241  -0.023177     3.00055e-01     6.91943e-02
     10759      10762      1   0.011241   0.005694     2.60142e-01     2.09200e-02
     10759      10763      1   0.011241   0.005694     2.60142e-01     2.09200e-02
     10758      10765      1  -0.026451   0.009592     3.00055e-01     6.91943e-02
     10758      10766      1  -0.026451   0.009592     3.00055e-01     6.91943e-02
     10757      10761      1   0.010172  -0.003655     3.00055e-01     6.91943e-02
     10757      10760      1   0.010172   0.009367     2.60142e-01     2.09200e-02
     10757      10759      1   0.010172   0.009367     2.60142e-01     2.09200e-02
     10756      10761      1   0.010172  -0.003655     3.00055e-01     6.91943e-02
     10756      10760      1   0.010172   0.009367     2.60142e-01     2.09200e-02
     10756      10759      1   0.010172   0.009367     2.60142e-01     2.09200e-02
     10755      10762      1  -0.014653   0.005694     3.00055e-01     6.91943e-02
     10755      10763      1  -0.014653   0.005694     3.00055e-01     6.91943e-02
     10754      10758      1   0.010037  -0.022042     3.00055e-01     6.91943e-02
     10754      10756      1   0.010037   0.008477     2.60142e-01     2.09200e-02
     10754      10757      1   0.010037   0.008477     2.60142e-01     2.09200e-02
     10753      10758      1   0.010037  -0.022042     3.00055e-01     6.91943e-02
     10753      10756      1   0.010037   0.008477     2.60142e-01     2.09200e-02
     10753      10757      1   0.010037   0.008477     2.60142e-01     2.09200e-02
     10752      10760      1  -0.021025   0.009367     3.00055e-01     6.91943e-02
     10752      10759      1  -0.021025   0.009367     3.00055e-01     6.91943e-02
     10751      10755      1   0.012677  -0.012211     3.00055e-01     6.91943e-02
     10751      10754      1   0.012677   0.008364     2.60142e-01     2.09200e-02
     10751      10753      1   0.012677   0.008364     2.60142e-01     2.09200e-02
     10750      10755      1   0.012677  -0.012211     3.00055e-01     6.91943e-02
     10750      10754      1   0.012677   0.008364     2.60142e-01     2.09200e-02
     10750      10753      1   0.012677   0.008364     2.60142e-01     2.09200e-02
     10749      10756      1  -0.031787   0.008477     3.00055e-01     6.91943e-02
     10749      10757      1  -0.031787   0.008477     3.00055e-01     6.91943e-02
     10748      10752      1   0.017208  -0.017521     3.00055e-01     6.91943e-02
     10748      10750      1   0.017208   0.010564     2.60142e-01     2.09200e-02
     10748      10751      1   0.017208   0.010564     2.60142e-01     2.09200e-02
     10747      10752      1   0.017208  -0.017521     3.00055e-01     6.91943e-02
     10747      10750      1   0.017208   0.010564     2.60142e-01     2.09200e-02
     10747      10751      1   0.017208   0.010564     2.60142e-01     2.09200e-02
     10746      10754      1  -0.028094   0.008364     3.00055e-01     6.91943e-02
     10746      10753      1  -0.028094   0.008364     3.00055e-01     6.91943e-02
     10745      10749      1   0.007531  -0.026489     3.00055e-01     6.91943e-02
     10745      10748      1   0.007531   0.014340     2.60142e-01     2.09200e-02
     10745      10747      1   0.007531   0.014340     2.60142e-01     2.09200e-02
     10744      10749      1   0.007531  -0.026489     3.00055e-01     6.91943e-02
     10744      10748      1   0.007531   0.014340     2.60142e-01     2.09200e-02
     10744      10747      1   0.007531   0.014340     2.60142e-01     2.09200e-02
     10743      10750      1   0.017463   0.010564     3.00055e-01     6.91943e-02
     10743      10751      1   0.017463   0.010564     3.00055e-01     6.91943e-02
     10742      10746      1   0.025511  -0.023412     3.00055e-01     6.91943e-02
     10742      10744      1   0.025511   0.006276     2.60142e-01     2.09200e-02
     10742      10745      1   0.025511   0.006276     2.60142e-01     2.09200e-02
     10741      10746      1   0.025511  -0.023412     3.00055e-01     6.91943e-02
     10741      10744      1   0.025511   0.006276     2.60142e-01     2.09200e-02
     10741      10745      1   0.025511   0.006276     2.60142e-01     2.09200e-02
     10740      10748      1  -0.111712   0.014340     3.00055e-01     6.91943e-02
     10740      10747      1  -0.111712   0.014340     3.00055e-01     6.91943e-02
     10739      10746      1   0.025511  -0.023412     3.00055e-01     6.91943e-02
     10739      10744      1   0.025511   0.006276     2.60142e-01     2.09200e-02
     10739      10745      1   0.025511   0.006276     2.60142e-01     2.09200e-02
     10816      10856      1  -0.673755   0.044953     2.78067e-01     9.58675e-02
     10816      10855      1  -0.673755   0.044953     2.78067e-01     9.58675e-02
     10815      10853      1   0.897613   0.015716     3.00055e-01     6.13495e-02
     10815      10852      1   0.897613   0.015716     3.00055e-01     6.13495e-02
     10814      10856      1  -0.552948   0.044953     2.80072e-01     8.62554e-02
     10814      10855      1  -0.552948   0.044953     2.80072e-01     8.62554e-02
     10807      10808      1   0.172230  -0.282478     2.67982e-01     8.67002e-02
     10806      10808      1   0.172230  -0.282478     2.67982e-01     8.67002e-02
     10805      10808      1   0.172230  -0.282478     2.67982e-01     8.67002e-02
     10804      10809      1  -0.338973   0.143525     2.67982e-01     8.67002e-02
     10804      10810      1  -0.338973   0.143525     2.67982e-01     8.67002e-02
     10804      10811      1  -0.338973   0.143525     2.67982e-01     8.67002e-02
     10803      10804      1   0.172230  -0.282478     2.67982e-01     8.67002e-02
     10803      10808      1   0.172230  -0.282478     2.67982e-01     8.67002e-02
     10802      10804      1   0.172230  -0.282478     2.67982e-01     8.67002e-02
     10802      10808      1   0.172230  -0.282478     2.67982e-01     8.67002e-02
     10801      10804      1   0.172230  -0.282478     2.67982e-01     8.67002e-02
     10801      10808      1   0.172230  -0.282478     2.67982e-01     8.67002e-02
     10800      10805      1  -0.338973   0.143525     2.67982e-01     8.67002e-02
     10800      10806      1  -0.338973   0.143525     2.67982e-01     8.67002e-02
     10800      10807      1  -0.338973   0.143525     2.67982e-01     8.67002e-02
     10800      10809      1  -0.338973   0.143525     2.67982e-01     8.67002e-02
     10800      10810      1  -0.338973   0.143525     2.67982e-01     8.67002e-02
     10800      10811      1  -0.338973   0.143525     2.67982e-01     8.67002e-02
     10798      10800      1   0.136415  -0.282478     2.67982e-01     8.67002e-02
     10798      10804      1   0.136415  -0.282478     2.67982e-01     8.67002e-02
     10798      10808      1   0.136415  -0.282478     2.67982e-01     8.67002e-02
     10797      10800      1   0.136415  -0.282478     2.67982e-01     8.67002e-02
     10797      10804      1   0.136415  -0.282478     2.67982e-01     8.67002e-02
     10797      10808      1   0.136415  -0.282478     2.67982e-01     8.67002e-02
     10796      10801      1  -0.170824   0.143525     2.67982e-01     8.67002e-02
     10796      10802      1  -0.170824   0.143525     2.67982e-01     8.67002e-02
     10796      10803      1  -0.170824   0.143525     2.67982e-01     8.67002e-02
     10796      10805      1  -0.170824   0.143525     2.67982e-01     8.67002e-02
     10796      10806      1  -0.170824   0.143525     2.67982e-01     8.67002e-02
     10796      10807      1  -0.170824   0.143525     2.67982e-01     8.67002e-02
     10796      10809      1  -0.170824   0.143525     2.67982e-01     8.67002e-02
     10796      10810      1  -0.170824   0.143525     2.67982e-01     8.67002e-02
     10796      10811      1  -0.170824   0.143525     2.67982e-01     8.67002e-02
     10795      10797      1   0.078534   0.113679     2.21567e-01     3.28444e-02
     10795      10798      1   0.078534   0.113679     2.21567e-01     3.28444e-02
     10795      10799      1   0.078534   0.204385     2.86068e-01     1.08078e-01
     10794      10797      1   0.078534   0.113679     2.21567e-01     3.28444e-02
     10794      10798      1   0.078534   0.113679     2.21567e-01     3.28444e-02
     10794      10799      1   0.078534   0.204385     2.86068e-01     1.08078e-01
     10792      10797      1  -0.508176   0.113679     2.47999e-01     1.08078e-01
     10792      10798      1  -0.508176   0.113679     2.47999e-01     1.08078e-01
     10791      10794      1   1.339721   0.065445     3.10656e-01     1.17227e-01
     10791      10795      1   1.339721   0.065445     3.10656e-01     1.17227e-01
     10789      10814      1   0.095591  -0.460790     2.73568e-01     1.08078e-01
     10789      10791      1   0.095591   1.116434     3.10656e-01     1.17227e-01
     10788      10814      1   0.095591  -0.460790     2.73568e-01     1.08078e-01
     10788      10791      1   0.095591   1.116434     3.10656e-01     1.17227e-01
     10786      10788      1   0.063253   0.079659     2.47135e-01     3.28444e-02
     10786      10789      1   0.063253   0.079659     2.47135e-01     3.28444e-02
     10786      10790      1   0.063253  -0.424567     2.73568e-01     1.08078e-01
     10786      10815      1   0.063253   0.748011     2.93551e-01     7.68707e-02
     10784      10786      1   0.070469   0.052711     2.47135e-01     3.28444e-02
     10784      10787      1   0.070469   0.014549     2.93551e-01     8.67002e-02
     10784      10814      1   0.070469  -0.460790     2.73568e-01     1.08078e-01
     10783      10786      1   0.070469   0.052711     2.47135e-01     3.28444e-02
     10783      10787      1   0.070469   0.014549     2.93551e-01     8.67002e-02
     10783      10814      1   0.070469  -0.460790     2.73568e-01     1.08078e-01
     10782      10788      1   0.196939   0.079659     2.93551e-01     8.67002e-02
     10782      10789      1   0.196939   0.079659     2.93551e-01     8.67002e-02
     10781      10786      1  -0.575489   0.052711     2.73568e-01     1.08078e-01
     10779      10783      1   0.910403   0.058724     2.93551e-01     7.68707e-02
     10779      10784      1   0.910403   0.058724     2.93551e-01     7.68707e-02
     10853      10856      1   0.018859   0.044953     2.60142e-01     2.09200e-02
     10853      10855      1   0.018859   0.044953     2.60142e-01     2.09200e-02
     10852      10856      1   0.018859   0.044953     2.60142e-01     2.09200e-02
     10852      10855      1   0.018859   0.044953     2.60142e-01     2.09200e-02
     10850      10854      1   0.020431  -0.136833     3.00055e-01     6.91943e-02
     10850      10853      1   0.020431   0.015716     2.60142e-01     2.09200e-02
     10850      10852      1   0.020431   0.015716     2.60142e-01     2.09200e-02
     10849      10854      1   0.020431  -0.136833     3.00055e-01     6.91943e-02
     10849      10853      1   0.020431   0.015716     2.60142e-01     2.09200e-02
     10849      10852      1   0.020431   0.015716     2.60142e-01     2.09200e-02
     10848      10856      1  -0.026954   0.044953     3.00055e-01     6.91943e-02
     10848      10855      1  -0.026954   0.044953     3.00055e-01     6.91943e-02
     10847      10851      1   0.010573  -0.002029     3.00055e-01     6.91943e-02
     10847      10850      1   0.010573   0.017026     2.60142e-01     2.09200e-02
     10847      10849      1   0.010573   0.017026     2.60142e-01     2.09200e-02
     10846      10851      1   0.010573  -0.002029     3.00055e-01     6.91943e-02
     10846      10850      1   0.010573   0.017026     2.60142e-01     2.09200e-02
     10846      10849      1   0.010573   0.017026     2.60142e-01     2.09200e-02
     10845      10853      1  -0.016521   0.015716     3.00055e-01     6.91943e-02
     10845      10852      1  -0.016521   0.015716     3.00055e-01     6.91943e-02
     10844      10848      1   0.011511  -0.022462     3.00055e-01     6.91943e-02
     10844      10846      1   0.011511   0.008811     2.60142e-01     2.09200e-02
     10844      10847      1   0.011511   0.008811     2.60142e-01     2.09200e-02
     10843      10848      1   0.011511  -0.022462     3.00055e-01     6.91943e-02
     10843      10846      1   0.011511   0.008811     2.60142e-01     2.09200e-02
     10843      10847      1   0.011511   0.008811     2.60142e-01     2.09200e-02
     10842      10850      1  -0.027812   0.017026     3.00055e-01     6.91943e-02
     10842      10849      1  -0.027812   0.017026     3.00055e-01     6.91943e-02
     10841      10845      1   0.006833  -0.013767     3.00055e-01     6.91943e-02
     10841      10843      1   0.006833   0.009592     2.60142e-01     2.09200e-02
     10841      10844      1   0.006833   0.009592     2.60142e-01     2.09200e-02
     10840      10845      1   0.006833  -0.013767     3.00055e-01     6.91943e-02
     10840      10843      1   0.006833   0.009592     2.60142e-01     2.09200e-02
     10840      10844      1   0.006833   0.009592     2.60142e-01     2.09200e-02
     10839      10846      1  -0.004386   0.008811     3.00055e-01     6.91943e-02
     10839      10847      1  -0.004386   0.008811     3.00055e-01     6.91943e-02
     10838      10842      1   0.011241  -0.023177     3.00055e-01     6.91943e-02
     10838      10840      1   0.011241   0.005694     2.60142e-01     2.09200e-02
     10838      10841      1   0.011241   0.005694     2.60142e-01     2.09200e-02
     10837      10842      1   0.011241  -0.023177     3.00055e-01     6.91943e-02
     10837      10840      1   0.011241   0.005694     2.60142e-01     2.09200e-02
     10837      10841      1   0.011241   0.005694     2.60142e-01     2.09200e-02
     10836      10843      1  -0.026451   0.009592     3.00055e-01     6.91943e-02
     10836      10844      1  -0.026451   0.009592     3.00055e-01     6.91943e-02
     10835      10839      1   0.010172  -0.003655     3.00055e-01     6.91943e-02
     10835      10838      1   0.010172   0.009367     2.60142e-01     2.09200e-02
     10835      10837      1   0.010172   0.009367     2.60142e-01     2.09200e-02
     10834      10839      1   0.010172  -0.003655     3.00055e-01     6.91943e-02
     10834      10838      1   0.010172   0.009367     2.60142e-01     2.09200e-02
     10834      10837      1   0.010172   0.009367     2.60142e-01     2.09200e-02
     10833      10840      1  -0.014653   0.005694     3.00055e-01     6.91943e-02
     10833      10841      1  -0.014653   0.005694     3.00055e-01     6.91943e-02
     10832      10836      1   0.010037  -0.022042     3.00055e-01     6.91943e-02
     10832      10834      1   0.010037   0.008477     2.60142e-01     2.09200e-02
     10832      10835      1   0.010037   0.008477     2.60142e-01     2.09200e-02
     10831      10836      1   0.010037  -0.022042     3.00055e-01     6.91943e-02
     10831      10834      1   0.010037   0.008477     2.60142e-01     2.09200e-02
     10831      10835      1   0.010037   0.008477     2.60142e-01     2.09200e-02
     10830      10838      1  -0.021025   0.009367     3.00055e-01     6.91943e-02
     10830      10837      1  -0.021025   0.009367     3.00055e-01     6.91943e-02
     10829      10833      1   0.012677  -0.012211     3.00055e-01     6.91943e-02
     10829      10832      1   0.012677   0.008364     2.60142e-01     2.09200e-02
     10829      10831      1   0.012677   0.008364     2.60142e-01     2.09200e-02
     10828      10833      1   0.012677  -0.012211     3.00055e-01     6.91943e-02
     10828      10832      1   0.012677   0.008364     2.60142e-01     2.09200e-02
     10828      10831      1   0.012677   0.008364     2.60142e-01     2.09200e-02
     10827      10834      1  -0.031787   0.008477     3.00055e-01     6.91943e-02
     10827      10835      1  -0.031787   0.008477     3.00055e-01     6.91943e-02
     10826      10830      1   0.017208  -0.017521     3.00055e-01     6.91943e-02
     10826      10828      1   0.017208   0.010564     2.60142e-01     2.09200e-02
     10826      10829      1   0.017208   0.010564     2.60142e-01     2.09200e-02
     10825      10830      1   0.017208  -0.017521     3.00055e-01     6.91943e-02
     10825      10828      1   0.017208   0.010564     2.60142e-01     2.09200e-02
     10825      10829      1   0.017208   0.010564     2.60142e-01     2.09200e-02
     10824      10832      1  -0.028094   0.008364     3.00055e-01     6.91943e-02
     10824      10831      1  -0.028094   0.008364     3.00055e-01     6.91943e-02
     10823      10827      1   0.007531  -0.026489     3.00055e-01     6.91943e-02
     10823      10826      1   0.007531   0.014340     2.60142e-01     2.09200e-02
     10823      10825      1   0.007531   0.014340     2.60142e-01     2.09200e-02
     10822      10827      1   0.007531  -0.026489     3.00055e-01     6.91943e-02
     10822      10826      1   0.007531   0.014340     2.60142e-01     2.09200e-02
     10822      10825      1   0.007531   0.014340     2.60142e-01     2.09200e-02
     10821      10828      1   0.017463   0.010564     3.00055e-01     6.91943e-02
     10821      10829      1   0.017463   0.010564     3.00055e-01     6.91943e-02
     10820      10824      1   0.025511  -0.023412     3.00055e-01     6.91943e-02
     10820      10822      1   0.025511   0.006276     2.60142e-01     2.09200e-02
     10820      10823      1   0.025511   0.006276     2.60142e-01     2.09200e-02
     10819      10824      1   0.025511  -0.023412     3.00055e-01     6.91943e-02
     10819      10822      1   0.025511   0.006276     2.60142e-01     2.09200e-02
     10819      10823      1   0.025511   0.006276     2.60142e-01     2.09200e-02
     10818      10826      1  -0.111712   0.014340     3.00055e-01     6.91943e-02
     10818      10825      1  -0.111712   0.014340     3.00055e-01     6.91943e-02
     10817      10824      1   0.025511  -0.023412     3.00055e-01     6.91943e-02
     10817      10822      1   0.025511   0.006276     2.60142e-01     2.09200e-02
     10817      10823      1   0.025511   0.006276     2.60142e-01     2.09200e-02
     10896      10898      1   0.053944  -0.559638     2.78067e-01     9.58675e-02
     10896      10899      1   0.053944  -0.479574     2.80072e-01     8.62554e-02
     10895      10898      1   0.053944  -0.559638     2.78067e-01     9.58675e-02
     10895      10899      1   0.053944  -0.479574     2.80072e-01     8.62554e-02
     10893      10896      1   0.018859   0.044953     2.60142e-01     2.09200e-02
     10893      10895      1   0.018859   0.044953     2.60142e-01     2.09200e-02
     10893      10897      1   0.018859   0.758669     3.00055e-01     6.13495e-02
     10892      10896      1   0.018859   0.044953     2.60142e-01     2.09200e-02
     10892      10895      1   0.018859   0.044953     2.60142e-01     2.09200e-02
     10892      10897      1   0.018859   0.758669     3.00055e-01     6.13495e-02
     10890      10894      1   0.020431  -0.136833     3.00055e-01     6.91943e-02
     10890      10893      1   0.020431   0.015716     2.60142e-01     2.09200e-02
     10890      10892      1   0.020431   0.015716     2.60142e-01     2.09200e-02
     10889      10894      1   0.020431  -0.136833     3.00055e-01     6.91943e-02
     10889      10893      1   0.020431   0.015716     2.60142e-01     2.09200e-02
     10889      10892      1   0.020431   0.015716     2.60142e-01     2.09200e-02
     10888      10896      1  -0.026954   0.044953     3.00055e-01     6.91943e-02
     10888      10895      1  -0.026954   0.044953     3.00055e-01     6.91943e-02
     10887      10891      1   0.010573  -0.002029     3.00055e-01     6.91943e-02
     10887      10890      1   0.010573   0.017026     2.60142e-01     2.09200e-02
     10887      10889      1   0.010573   0.017026     2.60142e-01     2.09200e-02
     10886      10891      1   0.010573  -0.002029     3.00055e-01     6.91943e-02
     10886      10890      1   0.010573   0.017026     2.60142e-01     2.09200e-02
     10886      10889      1   0.010573   0.017026     2.60142e-01     2.09200e-02
     10885      10893      1  -0.016521   0.015716     3.00055e-01     6.91943e-02
     10885      10892      1  -0.016521   0.015716     3.00055e-01     6.91943e-02
     10884      10888      1   0.011511  -0.022462     3.00055e-01     6.91943e-02
     10884      10886      1   0.011511   0.008811     2.60142e-01     2.09200e-02
     10884      10887      1   0.011511   0.008811     2.60142e-01     2.09200e-02
     10883      10888      1   0.011511  -0.022462     3.00055e-01     6.91943e-02
     10883      10886      1   0.011511   0.008811     2.60142e-01     2.09200e-02
     10883      10887      1   0.011511   0.008811     2.60142e-01     2.09200e-02
     10882      10890      1  -0.027812   0.017026     3.00055e-01     6.91943e-02
     10882      10889      1  -0.027812   0.017026     3.00055e-01     6.91943e-02
     10881      10885      1   0.006833  -0.013767     3.00055e-01     6.91943e-02
     10881      10883      1   0.006833   0.009592     2.60142e-01     2.09200e-02
     10881      10884      1   0.006833   0.009592     2.60142e-01     2.09200e-02
     10880      10885      1   0.006833  -0.013767     3.00055e-01     6.91943e-02
     10880      10883      1   0.006833   0.009592     2.60142e-01     2.09200e-02
     10880      10884      1   0.006833   0.009592     2.60142e-01     2.09200e-02
     10879      10886      1  -0.004386   0.008811     3.00055e-01     6.91943e-02
     10879      10887      1  -0.004386   0.008811     3.00055e-01     6.91943e-02
     10878      10882      1   0.011241  -0.023177     3.00055e-01     6.91943e-02
     10878      10880      1   0.011241   0.005694     2.60142e-01     2.09200e-02
     10878      10881      1   0.011241   0.005694     2.60142e-01     2.09200e-02
     10877      10882      1   0.011241  -0.023177     3.00055e-01     6.91943e-02
     10877      10880      1   0.011241   0.005694     2.60142e-01     2.09200e-02
     10877      10881      1   0.011241   0.005694     2.60142e-01     2.09200e-02
     10876      10883      1  -0.026451   0.009592     3.00055e-01     6.91943e-02
     10876      10884      1  -0.026451   0.009592     3.00055e-01     6.91943e-02
     10875      10879      1   0.010172  -0.003655     3.00055e-01     6.91943e-02
     10875      10878      1   0.010172   0.009367     2.60142e-01     2.09200e-02
     10875      10877      1   0.010172   0.009367     2.60142e-01     2.09200e-02
     10874      10879      1   0.010172  -0.003655     3.00055e-01     6.91943e-02
     10874      10878      1   0.010172   0.009367     2.60142e-01     2.09200e-02
     10874      10877      1   0.010172   0.009367     2.60142e-01     2.09200e-02
     10873      10880      1  -0.014653   0.005694     3.00055e-01     6.91943e-02
     10873      10881      1  -0.014653   0.005694     3.00055e-01     6.91943e-02
     10872      10876      1   0.010037  -0.022042     3.00055e-01     6.91943e-02
     10872      10874      1   0.010037   0.008477     2.60142e-01     2.09200e-02
     10872      10875      1   0.010037   0.008477     2.60142e-01     2.09200e-02
     10871      10876      1   0.010037  -0.022042     3.00055e-01     6.91943e-02
     10871      10874      1   0.010037   0.008477     2.60142e-01     2.09200e-02
     10871      10875      1   0.010037   0.008477     2.60142e-01     2.09200e-02
     10870      10878      1  -0.021025   0.009367     3.00055e-01     6.91943e-02
     10870      10877      1  -0.021025   0.009367     3.00055e-01     6.91943e-02
     10869      10873      1   0.012677  -0.012211     3.00055e-01     6.91943e-02
     10869      10872      1   0.012677   0.008364     2.60142e-01     2.09200e-02
     10869      10871      1   0.012677   0.008364     2.60142e-01     2.09200e-02
     10868      10873      1   0.012677  -0.012211     3.00055e-01     6.91943e-02
     10868      10872      1   0.012677   0.008364     2.60142e-01     2.09200e-02
     10868      10871      1   0.012677   0.008364     2.60142e-01     2.09200e-02
     10867      10874      1  -0.031787   0.008477     3.00055e-01     6.91943e-02
     10867      10875      1  -0.031787   0.008477     3.00055e-01     6.91943e-02
     10866      10870      1   0.017208  -0.017521     3.00055e-01     6.91943e-02
     10866      10868      1   0.017208   0.010564     2.60142e-01     2.09200e-02
     10866      10869      1   0.017208   0.010564     2.60142e-01     2.09200e-02
     10865      10870      1   0.017208  -0.017521     3.00055e-01     6.91943e-02
     10865      10868      1   0.017208   0.010564     2.60142e-01     2.09200e-02
     10865      10869      1   0.017208   0.010564     2.60142e-01     2.09200e-02
     10864      10872      1  -0.028094   0.008364     3.00055e-01     6.91943e-02
     10864      10871      1  -0.028094   0.008364     3.00055e-01     6.91943e-02
     10863      10867      1   0.007531  -0.026489     3.00055e-01     6.91943e-02
     10863      10866      1   0.007531   0.014340     2.60142e-01     2.09200e-02
     10863      10865      1   0.007531   0.014340     2.60142e-01     2.09200e-02
     10862      10867      1   0.007531  -0.026489     3.00055e-01     6.91943e-02
     10862      10866      1   0.007531   0.014340     2.60142e-01     2.09200e-02
     10862      10865      1   0.007531   0.014340     2.60142e-01     2.09200e-02
     10861      10868      1   0.017463   0.010564     3.00055e-01     6.91943e-02
     10861      10869      1   0.017463   0.010564     3.00055e-01     6.91943e-02
     10860      10864      1   0.025511  -0.023412     3.00055e-01     6.91943e-02
     10860      10862      1   0.025511   0.006276     2.60142e-01     2.09200e-02
     10860      10863      1   0.025511   0.006276     2.60142e-01     2.09200e-02
     10859      10864      1   0.025511  -0.023412     3.00055e-01     6.91943e-02
     10859      10862      1   0.025511   0.006276     2.60142e-01     2.09200e-02
     10859      10863      1   0.025511   0.006276     2.60142e-01     2.09200e-02
     10858      10866      1  -0.111712   0.014340     3.00055e-01     6.91943e-02
     10858      10865      1  -0.111712   0.014340     3.00055e-01     6.91943e-02
     10857      10864      1   0.025511  -0.023412     3.00055e-01     6.91943e-02
     10857      10862      1   0.025511   0.006276     2.60142e-01     2.09200e-02
     10857      10863      1   0.025511   0.006276     2.60142e-01     2.09200e-02
     10934      10974      1  -0.673755   0.044953     2.78067e-01     9.58675e-02
     10934      10973      1  -0.673755   0.044953     2.78067e-01     9.58675e-02
     10933      10971      1   0.897613   0.015716     3.00055e-01     6.13495e-02
     10933      10970      1   0.897613   0.015716     3.00055e-01     6.13495e-02
     10932      10974      1  -0.552948   0.044953     2.80072e-01     8.62554e-02
     10932      10973      1  -0.552948   0.044953     2.80072e-01     8.62554e-02
     10925      10926      1   0.172230  -0.282478     2.67982e-01     8.67002e-02
     10924      10926      1   0.172230  -0.282478     2.67982e-01     8.67002e-02
     10923      10926      1   0.172230  -0.282478     2.67982e-01     8.67002e-02
     10922      10927      1  -0.338973   0.143525     2.67982e-01     8.67002e-02
     10922      10928      1  -0.338973   0.143525     2.67982e-01     8.67002e-02
     10922      10929      1  -0.338973   0.143525     2.67982e-01     8.67002e-02
     10921      10922      1   0.172230  -0.282478     2.67982e-01     8.67002e-02
     10921      10926      1   0.172230  -0.282478     2.67982e-01     8.67002e-02
     10920      10922      1   0.172230  -0.282478     2.67982e-01     8.67002e-02
     10920      10926      1   0.172230  -0.282478     2.67982e-01     8.67002e-02
     10919      10922      1   0.172230  -0.282478     2.67982e-01     8.67002e-02
     10919      10926      1   0.172230  -0.282478     2.67982e-01     8.67002e-02
     10918      10923      1  -0.338973   0.143525     2.67982e-01     8.67002e-02
     10918      10924      1  -0.338973   0.143525     2.67982e-01     8.67002e-02
     10918      10925      1  -0.338973   0.143525     2.67982e-01     8.67002e-02
     10918      10927      1  -0.338973   0.143525     2.67982e-01     8.67002e-02
     10918      10928      1  -0.338973   0.143525     2.67982e-01     8.67002e-02
     10918      10929      1  -0.338973   0.143525     2.67982e-01     8.67002e-02
     10916      10918      1   0.136415  -0.282478     2.67982e-01     8.67002e-02
     10916      10922      1   0.136415  -0.282478     2.67982e-01     8.67002e-02
     10916      10926      1   0.136415  -0.282478     2.67982e-01     8.67002e-02
     10915      10918      1   0.136415  -0.282478     2.67982e-01     8.67002e-02
     10915      10922      1   0.136415  -0.282478     2.67982e-01     8.67002e-02
     10915      10926      1   0.136415  -0.282478     2.67982e-01     8.67002e-02
     10914      10919      1  -0.170824   0.143525     2.67982e-01     8.67002e-02
     10914      10920      1  -0.170824   0.143525     2.67982e-01     8.67002e-02
     10914      10921      1  -0.170824   0.143525     2.67982e-01     8.67002e-02
     10914      10923      1  -0.170824   0.143525     2.67982e-01     8.67002e-02
     10914      10924      1  -0.170824   0.143525     2.67982e-01     8.67002e-02
     10914      10925      1  -0.170824   0.143525     2.67982e-01     8.67002e-02
     10914      10927      1  -0.170824   0.143525     2.67982e-01     8.67002e-02
     10914      10928      1  -0.170824   0.143525     2.67982e-01     8.67002e-02
     10914      10929      1  -0.170824   0.143525     2.67982e-01     8.67002e-02
     10913      10915      1   0.078534   0.113679     2.21567e-01     3.28444e-02
     10913      10916      1   0.078534   0.113679     2.21567e-01     3.28444e-02
     10913      10917      1   0.078534   0.204385     2.86068e-01     1.08078e-01
     10912      10915      1   0.078534   0.113679     2.21567e-01     3.28444e-02
     10912      10916      1   0.078534   0.113679     2.21567e-01     3.28444e-02
     10912      10917      1   0.078534   0.204385     2.86068e-01     1.08078e-01
     10910      10915      1  -0.508176   0.113679     2.47999e-01     1.08078e-01
     10910      10916      1  -0.508176   0.113679     2.47999e-01     1.08078e-01
     10909      10912      1   1.339721   0.065445     3.10656e-01     1.17227e-01
     10909      10913      1   1.339721   0.065445     3.10656e-01     1.17227e-01
     10907      10932      1   0.095591  -0.460790     2.73568e-01     1.08078e-01
     10907      10909      1   0.095591   1.116434     3.10656e-01     1.17227e-01
     10906      10932      1   0.095591  -0.460790     2.73568e-01     1.08078e-01
     10906      10909      1   0.095591   1.116434     3.10656e-01     1.17227e-01
     10904      10906      1   0.063253   0.079659     2.47135e-01     3.28444e-02
     10904      10907      1   0.063253   0.079659     2.47135e-01     3.28444e-02
     10904      10908      1   0.063253  -0.424567     2.73568e-01     1.08078e-01
     10904      10933      1   0.063253   0.748011     2.93551e-01     7.68707e-02
     10902      10904      1   0.070469   0.052711     2.47135e-01     3.28444e-02
     10902      10905      1   0.070469   0.014549     2.93551e-01     8.67002e-02
     10902      10932      1   0.070469  -0.460790     2.73568e-01     1.08078e-01
     10901      10904      1   0.070469   0.052711     2.47135e-01     3.28444e-02
     10901      10905      1   0.070469   0.014549     2.93551e-01     8.67002e-02
     10901      10932      1   0.070469  -0.460790     2.73568e-01     1.08078e-01
     10900      10906      1   0.196939   0.079659     2.93551e-01     8.67002e-02
     10900      10907      1   0.196939   0.079659     2.93551e-01     8.67002e-02
     10899      10904      1  -0.575489   0.052711     2.73568e-01     1.08078e-01
     10897      10901      1   0.910403   0.058724     2.93551e-01     7.68707e-02
     10897      10902      1   0.910403   0.058724     2.93551e-01     7.68707e-02
     10971      10974      1   0.018859   0.044953     2.60142e-01     2.09200e-02
     10971      10973      1   0.018859   0.044953     2.60142e-01     2.09200e-02
     10970      10974      1   0.018859   0.044953     2.60142e-01     2.09200e-02
     10970      10973      1   0.018859   0.044953     2.60142e-01     2.09200e-02
     10968      10972      1   0.020431  -0.136833     3.00055e-01     6.91943e-02
     10968      10971      1   0.020431   0.015716     2.60142e-01     2.09200e-02
     10968      10970      1   0.020431   0.015716     2.60142e-01     2.09200e-02
     10967      10972      1   0.020431  -0.136833     3.00055e-01     6.91943e-02
     10967      10971      1   0.020431   0.015716     2.60142e-01     2.09200e-02
     10967      10970      1   0.020431   0.015716     2.60142e-01     2.09200e-02
     10966      10974      1  -0.026954   0.044953     3.00055e-01     6.91943e-02
     10966      10973      1  -0.026954   0.044953     3.00055e-01     6.91943e-02
     10965      10969      1   0.010573  -0.002029     3.00055e-01     6.91943e-02
     10965      10968      1   0.010573   0.017026     2.60142e-01     2.09200e-02
     10965      10967      1   0.010573   0.017026     2.60142e-01     2.09200e-02
     10964      10969      1   0.010573  -0.002029     3.00055e-01     6.91943e-02
     10964      10968      1   0.010573   0.017026     2.60142e-01     2.09200e-02
     10964      10967      1   0.010573   0.017026     2.60142e-01     2.09200e-02
     10963      10971      1  -0.016521   0.015716     3.00055e-01     6.91943e-02
     10963      10970      1  -0.016521   0.015716     3.00055e-01     6.91943e-02
     10962      10966      1   0.011511  -0.022462     3.00055e-01     6.91943e-02
     10962      10964      1   0.011511   0.008811     2.60142e-01     2.09200e-02
     10962      10965      1   0.011511   0.008811     2.60142e-01     2.09200e-02
     10961      10966      1   0.011511  -0.022462     3.00055e-01     6.91943e-02
     10961      10964      1   0.011511   0.008811     2.60142e-01     2.09200e-02
     10961      10965      1   0.011511   0.008811     2.60142e-01     2.09200e-02
     10960      10968      1  -0.027812   0.017026     3.00055e-01     6.91943e-02
     10960      10967      1  -0.027812   0.017026     3.00055e-01     6.91943e-02
     10959      10963      1   0.006833  -0.013767     3.00055e-01     6.91943e-02
     10959      10961      1   0.006833   0.009592     2.60142e-01     2.09200e-02
     10959      10962      1   0.006833   0.009592     2.60142e-01     2.09200e-02
     10958      10963      1   0.006833  -0.013767     3.00055e-01     6.91943e-02
     10958      10961      1   0.006833   0.009592     2.60142e-01     2.09200e-02
     10958      10962      1   0.006833   0.009592     2.60142e-01     2.09200e-02
     10957      10964      1  -0.004386   0.008811     3.00055e-01     6.91943e-02
     10957      10965      1  -0.004386   0.008811     3.00055e-01     6.91943e-02
     10956      10960      1   0.011241  -0.023177     3.00055e-01     6.91943e-02
     10956      10958      1   0.011241   0.005694     2.60142e-01     2.09200e-02
     10956      10959      1   0.011241   0.005694     2.60142e-01     2.09200e-02
     10955      10960      1   0.011241  -0.023177     3.00055e-01     6.91943e-02
     10955      10958      1   0.011241   0.005694     2.60142e-01     2.09200e-02
     10955      10959      1   0.011241   0.005694     2.60142e-01     2.09200e-02
     10954      10961      1  -0.026451   0.009592     3.00055e-01     6.91943e-02
     10954      10962      1  -0.026451   0.009592     3.00055e-01     6.91943e-02
     10953      10957      1   0.010172  -0.003655     3.00055e-01     6.91943e-02
     10953      10956      1   0.010172   0.009367     2.60142e-01     2.09200e-02
     10953      10955      1   0.010172   0.009367     2.60142e-01     2.09200e-02
     10952      10957      1   0.010172  -0.003655     3.00055e-01     6.91943e-02
     10952      10956      1   0.010172   0.009367     2.60142e-01     2.09200e-02
     10952      10955      1   0.010172   0.009367     2.60142e-01     2.09200e-02
     10951      10958      1  -0.014653   0.005694     3.00055e-01     6.91943e-02
     10951      10959      1  -0.014653   0.005694     3.00055e-01     6.91943e-02
     10950      10954      1   0.010037  -0.022042     3.00055e-01     6.91943e-02
     10950      10952      1   0.010037   0.008477     2.60142e-01     2.09200e-02
     10950      10953      1   0.010037   0.008477     2.60142e-01     2.09200e-02
     10949      10954      1   0.010037  -0.022042     3.00055e-01     6.91943e-02
     10949      10952      1   0.010037   0.008477     2.60142e-01     2.09200e-02
     10949      10953      1   0.010037   0.008477     2.60142e-01     2.09200e-02
     10948      10956      1  -0.021025   0.009367     3.00055e-01     6.91943e-02
     10948      10955      1  -0.021025   0.009367     3.00055e-01     6.91943e-02
     10947      10951      1   0.012677  -0.012211     3.00055e-01     6.91943e-02
     10947      10950      1   0.012677   0.008364     2.60142e-01     2.09200e-02
     10947      10949      1   0.012677   0.008364     2.60142e-01     2.09200e-02
     10946      10951      1   0.012677  -0.012211     3.00055e-01     6.91943e-02
     10946      10950      1   0.012677   0.008364     2.60142e-01     2.09200e-02
     10946      10949      1   0.012677   0.008364     2.60142e-01     2.09200e-02
     10945      10952      1  -0.031787   0.008477     3.00055e-01     6.91943e-02
     10945      10953      1  -0.031787   0.008477     3.00055e-01     6.91943e-02
     10944      10948      1   0.017208  -0.017521     3.00055e-01     6.91943e-02
     10944      10946      1   0.017208   0.010564     2.60142e-01     2.09200e-02
     10944      10947      1   0.017208   0.010564     2.60142e-01     2.09200e-02
     10943      10948      1   0.017208  -0.017521     3.00055e-01     6.91943e-02
     10943      10946      1   0.017208   0.010564     2.60142e-01     2.09200e-02
     10943      10947      1   0.017208   0.010564     2.60142e-01     2.09200e-02
     10942      10950      1  -0.028094   0.008364     3.00055e-01     6.91943e-02
     10942      10949      1  -0.028094   0.008364     3.00055e-01     6.91943e-02
     10941      10945      1   0.007531  -0.026489     3.00055e-01     6.91943e-02
     10941      10944      1   0.007531   0.014340     2.60142e-01     2.09200e-02
     10941      10943      1   0.007531   0.014340     2.60142e-01     2.09200e-02
     10940      10945      1   0.007531  -0.026489     3.00055e-01     6.91943e-02
     10940      10944      1   0.007531   0.014340     2.60142e-01     2.09200e-02
     10940      10943      1   0.007531   0.014340     2.60142e-01     2.09200e-02
     10939      10946      1   0.017463   0.010564     3.00055e-01     6.91943e-02
     10939      10947      1   0.017463   0.010564     3.00055e-01     6.91943e-02
     10938      10942      1   0.025511  -0.023412     3.00055e-01     6.91943e-02
     10938      10940      1   0.025511   0.006276     2.60142e-01     2.09200e-02
     10938      10941      1   0.025511   0.006276     2.60142e-01     2.09200e-02
     10937      10942      1   0.025511  -0.023412     3.00055e-01     6.91943e-02
     10937      10940      1   0.025511   0.006276     2.60142e-01     2.09200e-02
     10937      10941      1   0.025511   0.006276     2.60142e-01     2.09200e-02
     10936      10944      1  -0.111712   0.014340     3.00055e-01     6.91943e-02
     10936      10943      1  -0.111712   0.014340     3.00055e-01     6.91943e-02
     10935      10942      1   0.025511  -0.023412     3.00055e-01     6.91943e-02
     10935      10940      1   0.025511   0.006276     2.60142e-01     2.09200e-02
     10935      10941      1   0.025511   0.006276     2.60142e-01     2.09200e-02
     11014      11016      1   0.053944  -0.559638     2.78067e-01     9.58675e-02
     11014      11017      1   0.053944  -0.479574     2.80072e-01     8.62554e-02
     11013      11016      1   0.053944  -0.559638     2.78067e-01     9.58675e-02
     11013      11017      1   0.053944  -0.479574     2.80072e-01     8.62554e-02
     11011      11014      1   0.018859   0.044953     2.60142e-01     2.09200e-02
     11011      11013      1   0.018859   0.044953     2.60142e-01     2.09200e-02
     11011      11015      1   0.018859   0.758669     3.00055e-01     6.13495e-02
     11010      11014      1   0.018859   0.044953     2.60142e-01     2.09200e-02
     11010      11013      1   0.018859   0.044953     2.60142e-01     2.09200e-02
     11010      11015      1   0.018859   0.758669     3.00055e-01     6.13495e-02
     11008      11012      1   0.020431  -0.136833     3.00055e-01     6.91943e-02
     11008      11011      1   0.020431   0.015716     2.60142e-01     2.09200e-02
     11008      11010      1   0.020431   0.015716     2.60142e-01     2.09200e-02
     11007      11012      1   0.020431  -0.136833     3.00055e-01     6.91943e-02
     11007      11011      1   0.020431   0.015716     2.60142e-01     2.09200e-02
     11007      11010      1   0.020431   0.015716     2.60142e-01     2.09200e-02
     11006      11014      1  -0.026954   0.044953     3.00055e-01     6.91943e-02
     11006      11013      1  -0.026954   0.044953     3.00055e-01     6.91943e-02
     11005      11009      1   0.010573  -0.002029     3.00055e-01     6.91943e-02
     11005      11008      1   0.010573   0.017026     2.60142e-01     2.09200e-02
     11005      11007      1   0.010573   0.017026     2.60142e-01     2.09200e-02
     11004      11009      1   0.010573  -0.002029     3.00055e-01     6.91943e-02
     11004      11008      1   0.010573   0.017026     2.60142e-01     2.09200e-02
     11004      11007      1   0.010573   0.017026     2.60142e-01     2.09200e-02
     11003      11011      1  -0.016521   0.015716     3.00055e-01     6.91943e-02
     11003      11010      1  -0.016521   0.015716     3.00055e-01     6.91943e-02
     11002      11006      1   0.011511  -0.022462     3.00055e-01     6.91943e-02
     11002      11004      1   0.011511   0.008811     2.60142e-01     2.09200e-02
     11002      11005      1   0.011511   0.008811     2.60142e-01     2.09200e-02
     11001      11006      1   0.011511  -0.022462     3.00055e-01     6.91943e-02
     11001      11004      1   0.011511   0.008811     2.60142e-01     2.09200e-02
     11001      11005      1   0.011511   0.008811     2.60142e-01     2.09200e-02
     11000      11008      1  -0.027812   0.017026     3.00055e-01     6.91943e-02
     11000      11007      1  -0.027812   0.017026     3.00055e-01     6.91943e-02
     10999      11003      1   0.006833  -0.013767     3.00055e-01     6.91943e-02
     10999      11001      1   0.006833   0.009592     2.60142e-01     2.09200e-02
     10999      11002      1   0.006833   0.009592     2.60142e-01     2.09200e-02
     10998      11003      1   0.006833  -0.013767     3.00055e-01     6.91943e-02
     10998      11001      1   0.006833   0.009592     2.60142e-01     2.09200e-02
     10998      11002      1   0.006833   0.009592     2.60142e-01     2.09200e-02
     10997      11004      1  -0.004386   0.008811     3.00055e-01     6.91943e-02
     10997      11005      1  -0.004386   0.008811     3.00055e-01     6.91943e-02
     10996      11000      1   0.011241  -0.023177     3.00055e-01     6.91943e-02
     10996      10998      1   0.011241   0.005694     2.60142e-01     2.09200e-02
     10996      10999      1   0.011241   0.005694     2.60142e-01     2.09200e-02
     10995      11000      1   0.011241  -0.023177     3.00055e-01     6.91943e-02
     10995      10998      1   0.011241   0.005694     2.60142e-01     2.09200e-02
     10995      10999      1   0.011241   0.005694     2.60142e-01     2.09200e-02
     10994      11001      1  -0.026451   0.009592     3.00055e-01     6.91943e-02
     10994      11002      1  -0.026451   0.009592     3.00055e-01     6.91943e-02
     10993      10997      1   0.010172  -0.003655     3.00055e-01     6.91943e-02
     10993      10996      1   0.010172   0.009367     2.60142e-01     2.09200e-02
     10993      10995      1   0.010172   0.009367     2.60142e-01     2.09200e-02
     10992      10997      1   0.010172  -0.003655     3.00055e-01     6.91943e-02
     10992      10996      1   0.010172   0.009367     2.60142e-01     2.09200e-02
     10992      10995      1   0.010172   0.009367     2.60142e-01     2.09200e-02
     10991      10998      1  -0.014653   0.005694     3.00055e-01     6.91943e-02
     10991      10999      1  -0.014653   0.005694     3.00055e-01     6.91943e-02
     10990      10994      1   0.010037  -0.022042     3.00055e-01     6.91943e-02
     10990      10992      1   0.010037   0.008477     2.60142e-01     2.09200e-02
     10990      10993      1   0.010037   0.008477     2.60142e-01     2.09200e-02
     10989      10994      1   0.010037  -0.022042     3.00055e-01     6.91943e-02
     10989      10992      1   0.010037   0.008477     2.60142e-01     2.09200e-02
     10989      10993      1   0.010037   0.008477     2.60142e-01     2.09200e-02
     10988      10996      1  -0.021025   0.009367     3.00055e-01     6.91943e-02
     10988      10995      1  -0.021025   0.009367     3.00055e-01     6.91943e-02
     10987      10991      1   0.012677  -0.012211     3.00055e-01     6.91943e-02
     10987      10990      1   0.012677   0.008364     2.60142e-01     2.09200e-02
     10987      10989      1   0.012677   0.008364     2.60142e-01     2.09200e-02
     10986      10991      1   0.012677  -0.012211     3.00055e-01     6.91943e-02
     10986      10990      1   0.012677   0.008364     2.60142e-01     2.09200e-02
     10986      10989      1   0.012677   0.008364     2.60142e-01     2.09200e-02
     10985      10992      1  -0.031787   0.008477     3.00055e-01     6.91943e-02
     10985      10993      1  -0.031787   0.008477     3.00055e-01     6.91943e-02
     10984      10988      1   0.017208  -0.017521     3.00055e-01     6.91943e-02
     10984      10986      1   0.017208   0.010564     2.60142e-01     2.09200e-02
     10984      10987      1   0.017208   0.010564     2.60142e-01     2.09200e-02
     10983      10988      1   0.017208  -0.017521     3.00055e-01     6.91943e-02
     10983      10986      1   0.017208   0.010564     2.60142e-01     2.09200e-02
     10983      10987      1   0.017208   0.010564     2.60142e-01     2.09200e-02
     10982      10990      1  -0.028094   0.008364     3.00055e-01     6.91943e-02
     10982      10989      1  -0.028094   0.008364     3.00055e-01     6.91943e-02
     10981      10985      1   0.007531  -0.026489     3.00055e-01     6.91943e-02
     10981      10984      1   0.007531   0.014340     2.60142e-01     2.09200e-02
     10981      10983      1   0.007531   0.014340     2.60142e-01     2.09200e-02
     10980      10985      1   0.007531  -0.026489     3.00055e-01     6.91943e-02
     10980      10984      1   0.007531   0.014340     2.60142e-01     2.09200e-02
     10980      10983      1   0.007531   0.014340     2.60142e-01     2.09200e-02
     10979      10986      1   0.017463   0.010564     3.00055e-01     6.91943e-02
     10979      10987      1   0.017463   0.010564     3.00055e-01     6.91943e-02
     10978      10982      1   0.025511  -0.023412     3.00055e-01     6.91943e-02
     10978      10980      1   0.025511   0.006276     2.60142e-01     2.09200e-02
     10978      10981      1   0.025511   0.006276     2.60142e-01     2.09200e-02
     10977      10982      1   0.025511  -0.023412     3.00055e-01     6.91943e-02
     10977      10980      1   0.025511   0.006276     2.60142e-01     2.09200e-02
     10977      10981      1   0.025511   0.006276     2.60142e-01     2.09200e-02
     10976      10984      1  -0.111712   0.014340     3.00055e-01     6.91943e-02
     10976      10983      1  -0.111712   0.014340     3.00055e-01     6.91943e-02
     10975      10982      1   0.025511  -0.023412     3.00055e-01     6.91943e-02
     10975      10980      1   0.025511   0.006276     2.60142e-01     2.09200e-02
     10975      10981      1   0.025511   0.006276     2.60142e-01     2.09200e-02
     11052      11092      1  -0.673755   0.044953     2.78067e-01     9.58675e-02
     11052      11091      1  -0.673755   0.044953     2.78067e-01     9.58675e-02
     11051      11089      1   0.897613   0.015716     3.00055e-01     6.13495e-02
     11051      11088      1   0.897613   0.015716     3.00055e-01     6.13495e-02
     11050      11092      1  -0.552948   0.044953     2.80072e-01     8.62554e-02
     11050      11091      1  -0.552948   0.044953     2.80072e-01     8.62554e-02
     11043      11044      1   0.172230  -0.282478     2.67982e-01     8.67002e-02
     11042      11044      1   0.172230  -0.282478     2.67982e-01     8.67002e-02
     11041      11044      1   0.172230  -0.282478     2.67982e-01     8.67002e-02
     11040      11045      1  -0.338973   0.143525     2.67982e-01     8.67002e-02
     11040      11046      1  -0.338973   0.143525     2.67982e-01     8.67002e-02
     11040      11047      1  -0.338973   0.143525     2.67982e-01     8.67002e-02
     11039      11040      1   0.172230  -0.282478     2.67982e-01     8.67002e-02
     11039      11044      1   0.172230  -0.282478     2.67982e-01     8.67002e-02
     11038      11040      1   0.172230  -0.282478     2.67982e-01     8.67002e-02
     11038      11044      1   0.172230  -0.282478     2.67982e-01     8.67002e-02
     11037      11040      1   0.172230  -0.282478     2.67982e-01     8.67002e-02
     11037      11044      1   0.172230  -0.282478     2.67982e-01     8.67002e-02
     11036      11041      1  -0.338973   0.143525     2.67982e-01     8.67002e-02
     11036      11042      1  -0.338973   0.143525     2.67982e-01     8.67002e-02
     11036      11043      1  -0.338973   0.143525     2.67982e-01     8.67002e-02
     11036      11045      1  -0.338973   0.143525     2.67982e-01     8.67002e-02
     11036      11046      1  -0.338973   0.143525     2.67982e-01     8.67002e-02
     11036      11047      1  -0.338973   0.143525     2.67982e-01     8.67002e-02
     11034      11036      1   0.136415  -0.282478     2.67982e-01     8.67002e-02
     11034      11040      1   0.136415  -0.282478     2.67982e-01     8.67002e-02
     11034      11044      1   0.136415  -0.282478     2.67982e-01     8.67002e-02
     11033      11036      1   0.136415  -0.282478     2.67982e-01     8.67002e-02
     11033      11040      1   0.136415  -0.282478     2.67982e-01     8.67002e-02
     11033      11044      1   0.136415  -0.282478     2.67982e-01     8.67002e-02
     11032      11037      1  -0.170824   0.143525     2.67982e-01     8.67002e-02
     11032      11038      1  -0.170824   0.143525     2.67982e-01     8.67002e-02
     11032      11039      1  -0.170824   0.143525     2.67982e-01     8.67002e-02
     11032      11041      1  -0.170824   0.143525     2.67982e-01     8.67002e-02
     11032      11042      1  -0.170824   0.143525     2.67982e-01     8.67002e-02
     11032      11043      1  -0.170824   0.143525     2.67982e-01     8.67002e-02
     11032      11045      1  -0.170824   0.143525     2.67982e-01     8.67002e-02
     11032      11046      1  -0.170824   0.143525     2.67982e-01     8.67002e-02
     11032      11047      1  -0.170824   0.143525     2.67982e-01     8.67002e-02
     11031      11033      1   0.078534   0.113679     2.21567e-01     3.28444e-02
     11031      11034      1   0.078534   0.113679     2.21567e-01     3.28444e-02
     11031      11035      1   0.078534   0.204385     2.86068e-01     1.08078e-01
     11030      11033      1   0.078534   0.113679     2.21567e-01     3.28444e-02
     11030      11034      1   0.078534   0.113679     2.21567e-01     3.28444e-02
     11030      11035      1   0.078534   0.204385     2.86068e-01     1.08078e-01
     11028      11033      1  -0.508176   0.113679     2.47999e-01     1.08078e-01
     11028      11034      1  -0.508176   0.113679     2.47999e-01     1.08078e-01
     11027      11030      1   1.339721   0.065445     3.10656e-01     1.17227e-01
     11027      11031      1   1.339721   0.065445     3.10656e-01     1.17227e-01
     11025      11050      1   0.095591  -0.460790     2.73568e-01     1.08078e-01
     11025      11027      1   0.095591   1.116434     3.10656e-01     1.17227e-01
     11024      11050      1   0.095591  -0.460790     2.73568e-01     1.08078e-01
     11024      11027      1   0.095591   1.116434     3.10656e-01     1.17227e-01
     11022      11024      1   0.063253   0.079659     2.47135e-01     3.28444e-02
     11022      11025      1   0.063253   0.079659     2.47135e-01     3.28444e-02
     11022      11026      1   0.063253  -0.424567     2.73568e-01     1.08078e-01
     11022      11051      1   0.063253   0.748011     2.93551e-01     7.68707e-02
     11020      11022      1   0.070469   0.052711     2.47135e-01     3.28444e-02
     11020      11023      1   0.070469   0.014549     2.93551e-01     8.67002e-02
     11020      11050      1   0.070469  -0.460790     2.73568e-01     1.08078e-01
     11019      11022      1   0.070469   0.052711     2.47135e-01     3.28444e-02
     11019      11023      1   0.070469   0.014549     2.93551e-01     8.67002e-02
     11019      11050      1   0.070469  -0.460790     2.73568e-01     1.08078e-01
     11018      11024      1   0.196939   0.079659     2.93551e-01     8.67002e-02
     11018      11025      1   0.196939   0.079659     2.93551e-01     8.67002e-02
     11017      11022      1  -0.575489   0.052711     2.73568e-01     1.08078e-01
     11015      11019      1   0.910403   0.058724     2.93551e-01     7.68707e-02
     11015      11020      1   0.910403   0.058724     2.93551e-01     7.68707e-02
     11089      11092      1   0.018859   0.044953     2.60142e-01     2.09200e-02
     11089      11091      1   0.018859   0.044953     2.60142e-01     2.09200e-02
     11088      11092      1   0.018859   0.044953     2.60142e-01     2.09200e-02
     11088      11091      1   0.018859   0.044953     2.60142e-01     2.09200e-02
     11086      11090      1   0.020431  -0.136833     3.00055e-01     6.91943e-02
     11086      11089      1   0.020431   0.015716     2.60142e-01     2.09200e-02
     11086      11088      1   0.020431   0.015716     2.60142e-01     2.09200e-02
     11085      11090      1   0.020431  -0.136833     3.00055e-01     6.91943e-02
     11085      11089      1   0.020431   0.015716     2.60142e-01     2.09200e-02
     11085      11088      1   0.020431   0.015716     2.60142e-01     2.09200e-02
     11084      11092      1  -0.026954   0.044953     3.00055e-01     6.91943e-02
     11084      11091      1  -0.026954   0.044953     3.00055e-01     6.91943e-02
     11083      11087      1   0.010573  -0.002029     3.00055e-01     6.91943e-02
     11083      11086      1   0.010573   0.017026     2.60142e-01     2.09200e-02
     11083      11085      1   0.010573   0.017026     2.60142e-01     2.09200e-02
     11082      11087      1   0.010573  -0.002029     3.00055e-01     6.91943e-02
     11082      11086      1   0.010573   0.017026     2.60142e-01     2.09200e-02
     11082      11085      1   0.010573   0.017026     2.60142e-01     2.09200e-02
     11081      11089      1  -0.016521   0.015716     3.00055e-01     6.91943e-02
     11081      11088      1  -0.016521   0.015716     3.00055e-01     6.91943e-02
     11080      11084      1   0.011511  -0.022462     3.00055e-01     6.91943e-02
     11080      11082      1   0.011511   0.008811     2.60142e-01     2.09200e-02
     11080      11083      1   0.011511   0.008811     2.60142e-01     2.09200e-02
     11079      11084      1   0.011511  -0.022462     3.00055e-01     6.91943e-02
     11079      11082      1   0.011511   0.008811     2.60142e-01     2.09200e-02
     11079      11083      1   0.011511   0.008811     2.60142e-01     2.09200e-02
     11078      11086      1  -0.027812   0.017026     3.00055e-01     6.91943e-02
     11078      11085      1  -0.027812   0.017026     3.00055e-01     6.91943e-02
     11077      11081      1   0.006833  -0.013767     3.00055e-01     6.91943e-02
     11077      11079      1   0.006833   0.009592     2.60142e-01     2.09200e-02
     11077      11080      1   0.006833   0.009592     2.60142e-01     2.09200e-02
     11076      11081      1   0.006833  -0.013767     3.00055e-01     6.91943e-02
     11076      11079      1   0.006833   0.009592     2.60142e-01     2.09200e-02
     11076      11080      1   0.006833   0.009592     2.60142e-01     2.09200e-02
     11075      11082      1  -0.004386   0.008811     3.00055e-01     6.91943e-02
     11075      11083      1  -0.004386   0.008811     3.00055e-01     6.91943e-02
     11074      11078      1   0.011241  -0.023177     3.00055e-01     6.91943e-02
     11074      11076      1   0.011241   0.005694     2.60142e-01     2.09200e-02
     11074      11077      1   0.011241   0.005694     2.60142e-01     2.09200e-02
     11073      11078      1   0.011241  -0.023177     3.00055e-01     6.91943e-02
     11073      11076      1   0.011241   0.005694     2.60142e-01     2.09200e-02
     11073      11077      1   0.011241   0.005694     2.60142e-01     2.09200e-02
     11072      11079      1  -0.026451   0.009592     3.00055e-01     6.91943e-02
     11072      11080      1  -0.026451   0.009592     3.00055e-01     6.91943e-02
     11071      11075      1   0.010172  -0.003655     3.00055e-01     6.91943e-02
     11071      11074      1   0.010172   0.009367     2.60142e-01     2.09200e-02
     11071      11073      1   0.010172   0.009367     2.60142e-01     2.09200e-02
     11070      11075      1   0.010172  -0.003655     3.00055e-01     6.91943e-02
     11070      11074      1   0.010172   0.009367     2.60142e-01     2.09200e-02
     11070      11073      1   0.010172   0.009367     2.60142e-01     2.09200e-02
     11069      11076      1  -0.014653   0.005694     3.00055e-01     6.91943e-02
     11069      11077      1  -0.014653   0.005694     3.00055e-01     6.91943e-02
     11068      11072      1   0.010037  -0.022042     3.00055e-01     6.91943e-02
     11068      11070      1   0.010037   0.008477     2.60142e-01     2.09200e-02
     11068      11071      1   0.010037   0.008477     2.60142e-01     2.09200e-02
     11067      11072      1   0.010037  -0.022042     3.00055e-01     6.91943e-02
     11067      11070      1   0.010037   0.008477     2.60142e-01     2.09200e-02
     11067      11071      1   0.010037   0.008477     2.60142e-01     2.09200e-02
     11066      11074      1  -0.021025   0.009367     3.00055e-01     6.91943e-02
     11066      11073      1  -0.021025   0.009367     3.00055e-01     6.91943e-02
     11065      11069      1   0.012677  -0.012211     3.00055e-01     6.91943e-02
     11065      11068      1   0.012677   0.008364     2.60142e-01     2.09200e-02
     11065      11067      1   0.012677   0.008364     2.60142e-01     2.09200e-02
     11064      11069      1   0.012677  -0.012211     3.00055e-01     6.91943e-02
     11064      11068      1   0.012677   0.008364     2.60142e-01     2.09200e-02
     11064      11067      1   0.012677   0.008364     2.60142e-01     2.09200e-02
     11063      11070      1  -0.031787   0.008477     3.00055e-01     6.91943e-02
     11063      11071      1  -0.031787   0.008477     3.00055e-01     6.91943e-02
     11062      11066      1   0.017208  -0.017521     3.00055e-01     6.91943e-02
     11062      11064      1   0.017208   0.010564     2.60142e-01     2.09200e-02
     11062      11065      1   0.017208   0.010564     2.60142e-01     2.09200e-02
     11061      11066      1   0.017208  -0.017521     3.00055e-01     6.91943e-02
     11061      11064      1   0.017208   0.010564     2.60142e-01     2.09200e-02
     11061      11065      1   0.017208   0.010564     2.60142e-01     2.09200e-02
     11060      11068      1  -0.028094   0.008364     3.00055e-01     6.91943e-02
     11060      11067      1  -0.028094   0.008364     3.00055e-01     6.91943e-02
     11059      11063      1   0.007531  -0.026489     3.00055e-01     6.91943e-02
     11059      11062      1   0.007531   0.014340     2.60142e-01     2.09200e-02
     11059      11061      1   0.007531   0.014340     2.60142e-01     2.09200e-02
     11058      11063      1   0.007531  -0.026489     3.00055e-01     6.91943e-02
     11058      11062      1   0.007531   0.014340     2.60142e-01     2.09200e-02
     11058      11061      1   0.007531   0.014340     2.60142e-01     2.09200e-02
     11057      11064      1   0.017463   0.010564     3.00055e-01     6.91943e-02
     11057      11065      1   0.017463   0.010564     3.00055e-01     6.91943e-02
     11056      11060      1   0.025511  -0.023412     3.00055e-01     6.91943e-02
     11056      11058      1   0.025511   0.006276     2.60142e-01     2.09200e-02
     11056      11059      1   0.025511   0.006276     2.60142e-01     2.09200e-02
     11055      11060      1   0.025511  -0.023412     3.00055e-01     6.91943e-02
     11055      11058      1   0.025511   0.006276     2.60142e-01     2.09200e-02
     11055      11059      1   0.025511   0.006276     2.60142e-01     2.09200e-02
     11054      11062      1  -0.111712   0.014340     3.00055e-01     6.91943e-02
     11054      11061      1  -0.111712   0.014340     3.00055e-01     6.91943e-02
     11053      11060      1   0.025511  -0.023412     3.00055e-01     6.91943e-02
     11053      11058      1   0.025511   0.006276     2.60142e-01     2.09200e-02
     11053      11059      1   0.025511   0.006276     2.60142e-01     2.09200e-02
     11132      11134      1   0.053944  -0.559638     2.78067e-01     9.58675e-02
     11132      11135      1   0.053944  -0.479574     2.80072e-01     8.62554e-02
     11131      11134      1   0.053944  -0.559638     2.78067e-01     9.58675e-02
     11131      11135      1   0.053944  -0.479574     2.80072e-01     8.62554e-02
     11129      11132      1   0.018859   0.044953     2.60142e-01     2.09200e-02
     11129      11131      1   0.018859   0.044953     2.60142e-01     2.09200e-02
     11129      11133      1   0.018859   0.758669     3.00055e-01     6.13495e-02
     11128      11132      1   0.018859   0.044953     2.60142e-01     2.09200e-02
     11128      11131      1   0.018859   0.044953     2.60142e-01     2.09200e-02
     11128      11133      1   0.018859   0.758669     3.00055e-01     6.13495e-02
     11126      11130      1   0.020431  -0.136833     3.00055e-01     6.91943e-02
     11126      11129      1   0.020431   0.015716     2.60142e-01     2.09200e-02
     11126      11128      1   0.020431   0.015716     2.60142e-01     2.09200e-02
     11125      11130      1   0.020431  -0.136833     3.00055e-01     6.91943e-02
     11125      11129      1   0.020431   0.015716     2.60142e-01     2.09200e-02
     11125      11128      1   0.020431   0.015716     2.60142e-01     2.09200e-02
     11124      11132      1  -0.026954   0.044953     3.00055e-01     6.91943e-02
     11124      11131      1  -0.026954   0.044953     3.00055e-01     6.91943e-02
     11123      11127      1   0.010573  -0.002029     3.00055e-01     6.91943e-02
     11123      11126      1   0.010573   0.017026     2.60142e-01     2.09200e-02
     11123      11125      1   0.010573   0.017026     2.60142e-01     2.09200e-02
     11122      11127      1   0.010573  -0.002029     3.00055e-01     6.91943e-02
     11122      11126      1   0.010573   0.017026     2.60142e-01     2.09200e-02
     11122      11125      1   0.010573   0.017026     2.60142e-01     2.09200e-02
     11121      11129      1  -0.016521   0.015716     3.00055e-01     6.91943e-02
     11121      11128      1  -0.016521   0.015716     3.00055e-01     6.91943e-02
     11120      11124      1   0.011511  -0.022462     3.00055e-01     6.91943e-02
     11120      11122      1   0.011511   0.008811     2.60142e-01     2.09200e-02
     11120      11123      1   0.011511   0.008811     2.60142e-01     2.09200e-02
     11119      11124      1   0.011511  -0.022462     3.00055e-01     6.91943e-02
     11119      11122      1   0.011511   0.008811     2.60142e-01     2.09200e-02
     11119      11123      1   0.011511   0.008811     2.60142e-01     2.09200e-02
     11118      11126      1  -0.027812   0.017026     3.00055e-01     6.91943e-02
     11118      11125      1  -0.027812   0.017026     3.00055e-01     6.91943e-02
     11117      11121      1   0.006833  -0.013767     3.00055e-01     6.91943e-02
     11117      11119      1   0.006833   0.009592     2.60142e-01     2.09200e-02
     11117      11120      1   0.006833   0.009592     2.60142e-01     2.09200e-02
     11116      11121      1   0.006833  -0.013767     3.00055e-01     6.91943e-02
     11116      11119      1   0.006833   0.009592     2.60142e-01     2.09200e-02
     11116      11120      1   0.006833   0.009592     2.60142e-01     2.09200e-02
     11115      11122      1  -0.004386   0.008811     3.00055e-01     6.91943e-02
     11115      11123      1  -0.004386   0.008811     3.00055e-01     6.91943e-02
     11114      11118      1   0.011241  -0.023177     3.00055e-01     6.91943e-02
     11114      11116      1   0.011241   0.005694     2.60142e-01     2.09200e-02
     11114      11117      1   0.011241   0.005694     2.60142e-01     2.09200e-02
     11113      11118      1   0.011241  -0.023177     3.00055e-01     6.91943e-02
     11113      11116      1   0.011241   0.005694     2.60142e-01     2.09200e-02
     11113      11117      1   0.011241   0.005694     2.60142e-01     2.09200e-02
     11112      11119      1  -0.026451   0.009592     3.00055e-01     6.91943e-02
     11112      11120      1  -0.026451   0.009592     3.00055e-01     6.91943e-02
     11111      11115      1   0.010172  -0.003655     3.00055e-01     6.91943e-02
     11111      11114      1   0.010172   0.009367     2.60142e-01     2.09200e-02
     11111      11113      1   0.010172   0.009367     2.60142e-01     2.09200e-02
     11110      11115      1   0.010172  -0.003655     3.00055e-01     6.91943e-02
     11110      11114      1   0.010172   0.009367     2.60142e-01     2.09200e-02
     11110      11113      1   0.010172   0.009367     2.60142e-01     2.09200e-02
     11109      11116      1  -0.014653   0.005694     3.00055e-01     6.91943e-02
     11109      11117      1  -0.014653   0.005694     3.00055e-01     6.91943e-02
     11108      11112      1   0.010037  -0.022042     3.00055e-01     6.91943e-02
     11108      11110      1   0.010037   0.008477     2.60142e-01     2.09200e-02
     11108      11111      1   0.010037   0.008477     2.60142e-01     2.09200e-02
     11107      11112      1   0.010037  -0.022042     3.00055e-01     6.91943e-02
     11107      11110      1   0.010037   0.008477     2.60142e-01     2.09200e-02
     11107      11111      1   0.010037   0.008477     2.60142e-01     2.09200e-02
     11106      11114      1  -0.021025   0.009367     3.00055e-01     6.91943e-02
     11106      11113      1  -0.021025   0.009367     3.00055e-01     6.91943e-02
     11105      11109      1   0.012677  -0.012211     3.00055e-01     6.91943e-02
     11105      11108      1   0.012677   0.008364     2.60142e-01     2.09200e-02
     11105      11107      1   0.012677   0.008364     2.60142e-01     2.09200e-02
     11104      11109      1   0.012677  -0.012211     3.00055e-01     6.91943e-02
     11104      11108      1   0.012677   0.008364     2.60142e-01     2.09200e-02
     11104      11107      1   0.012677   0.008364     2.60142e-01     2.09200e-02
     11103      11110      1  -0.031787   0.008477     3.00055e-01     6.91943e-02
     11103      11111      1  -0.031787   0.008477     3.00055e-01     6.91943e-02
     11102      11106      1   0.017208  -0.017521     3.00055e-01     6.91943e-02
     11102      11104      1   0.017208   0.010564     2.60142e-01     2.09200e-02
     11102      11105      1   0.017208   0.010564     2.60142e-01     2.09200e-02
     11101      11106      1   0.017208  -0.017521     3.00055e-01     6.91943e-02
     11101      11104      1   0.017208   0.010564     2.60142e-01     2.09200e-02
     11101      11105      1   0.017208   0.010564     2.60142e-01     2.09200e-02
     11100      11108      1  -0.028094   0.008364     3.00055e-01     6.91943e-02
     11100      11107      1  -0.028094   0.008364     3.00055e-01     6.91943e-02
     11099      11103      1   0.007531  -0.026489     3.00055e-01     6.91943e-02
     11099      11102      1   0.007531   0.014340     2.60142e-01     2.09200e-02
     11099      11101      1   0.007531   0.014340     2.60142e-01     2.09200e-02
     11098      11103      1   0.007531  -0.026489     3.00055e-01     6.91943e-02
     11098      11102      1   0.007531   0.014340     2.60142e-01     2.09200e-02
     11098      11101      1   0.007531   0.014340     2.60142e-01     2.09200e-02
     11097      11104      1   0.017463   0.010564     3.00055e-01     6.91943e-02
     11097      11105      1   0.017463   0.010564     3.00055e-01     6.91943e-02
     11096      11100      1   0.025511  -0.023412     3.00055e-01     6.91943e-02
     11096      11098      1   0.025511   0.006276     2.60142e-01     2.09200e-02
     11096      11099      1   0.025511   0.006276     2.60142e-01     2.09200e-02
     11095      11100      1   0.025511  -0.023412     3.00055e-01     6.91943e-02
     11095      11098      1   0.025511   0.006276     2.60142e-01     2.09200e-02
     11095      11099      1   0.025511   0.006276     2.60142e-01     2.09200e-02
     11094      11102      1  -0.111712   0.014340     3.00055e-01     6.91943e-02
     11094      11101      1  -0.111712   0.014340     3.00055e-01     6.91943e-02
     11093      11100      1   0.025511  -0.023412     3.00055e-01     6.91943e-02
     11093      11098      1   0.025511   0.006276     2.60142e-01     2.09200e-02
     11093      11099      1   0.025511   0.006276     2.60142e-01     2.09200e-02
     11170      11210      1  -0.673755   0.044953     2.78067e-01     9.58675e-02
     11170      11209      1  -0.673755   0.044953     2.78067e-01     9.58675e-02
     11169      11207      1   0.897613   0.015716     3.00055e-01     6.13495e-02
     11169      11206      1   0.897613   0.015716     3.00055e-01     6.13495e-02
     11168      11210      1  -0.552948   0.044953     2.80072e-01     8.62554e-02
     11168      11209      1  -0.552948   0.044953     2.80072e-01     8.62554e-02
     11161      11162      1   0.172230  -0.282478     2.67982e-01     8.67002e-02
     11160      11162      1   0.172230  -0.282478     2.67982e-01     8.67002e-02
     11159      11162      1   0.172230  -0.282478     2.67982e-01     8.67002e-02
     11158      11163      1  -0.338973   0.143525     2.67982e-01     8.67002e-02
     11158      11164      1  -0.338973   0.143525     2.67982e-01     8.67002e-02
     11158      11165      1  -0.338973   0.143525     2.67982e-01     8.67002e-02
     11157      11158      1   0.172230  -0.282478     2.67982e-01     8.67002e-02
     11157      11162      1   0.172230  -0.282478     2.67982e-01     8.67002e-02
     11156      11158      1   0.172230  -0.282478     2.67982e-01     8.67002e-02
     11156      11162      1   0.172230  -0.282478     2.67982e-01     8.67002e-02
     11155      11158      1   0.172230  -0.282478     2.67982e-01     8.67002e-02
     11155      11162      1   0.172230  -0.282478     2.67982e-01     8.67002e-02
     11154      11159      1  -0.338973   0.143525     2.67982e-01     8.67002e-02
     11154      11160      1  -0.338973   0.143525     2.67982e-01     8.67002e-02
     11154      11161      1  -0.338973   0.143525     2.67982e-01     8.67002e-02
     11154      11163      1  -0.338973   0.143525     2.67982e-01     8.67002e-02
     11154      11164      1  -0.338973   0.143525     2.67982e-01     8.67002e-02
     11154      11165      1  -0.338973   0.143525     2.67982e-01     8.67002e-02
     11152      11154      1   0.136415  -0.282478     2.67982e-01     8.67002e-02
     11152      11158      1   0.136415  -0.282478     2.67982e-01     8.67002e-02
     11152      11162      1   0.136415  -0.282478     2.67982e-01     8.67002e-02
     11151      11154      1   0.136415  -0.282478     2.67982e-01     8.67002e-02
     11151      11158      1   0.136415  -0.282478     2.67982e-01     8.67002e-02
     11151      11162      1   0.136415  -0.282478     2.67982e-01     8.67002e-02
     11150      11155      1  -0.170824   0.143525     2.67982e-01     8.67002e-02
     11150      11156      1  -0.170824   0.143525     2.67982e-01     8.67002e-02
     11150      11157      1  -0.170824   0.143525     2.67982e-01     8.67002e-02
     11150      11159      1  -0.170824   0.143525     2.67982e-01     8.67002e-02
     11150      11160      1  -0.170824   0.143525     2.67982e-01     8.67002e-02
     11150      11161      1  -0.170824   0.143525     2.67982e-01     8.67002e-02
     11150      11163      1  -0.170824   0.143525     2.67982e-01     8.67002e-02
     11150      11164      1  -0.170824   0.143525     2.67982e-01     8.67002e-02
     11150      11165      1  -0.170824   0.143525     2.67982e-01     8.67002e-02
     11149      11151      1   0.078534   0.113679     2.21567e-01     3.28444e-02
     11149      11152      1   0.078534   0.113679     2.21567e-01     3.28444e-02
     11149      11153      1   0.078534   0.204385     2.86068e-01     1.08078e-01
     11148      11151      1   0.078534   0.113679     2.21567e-01     3.28444e-02
     11148      11152      1   0.078534   0.113679     2.21567e-01     3.28444e-02
     11148      11153      1   0.078534   0.204385     2.86068e-01     1.08078e-01
     11146      11151      1  -0.508176   0.113679     2.47999e-01     1.08078e-01
     11146      11152      1  -0.508176   0.113679     2.47999e-01     1.08078e-01
     11145      11148      1   1.339721   0.065445     3.10656e-01     1.17227e-01
     11145      11149      1   1.339721   0.065445     3.10656e-01     1.17227e-01
     11143      11168      1   0.095591  -0.460790     2.73568e-01     1.08078e-01
     11143      11145      1   0.095591   1.116434     3.10656e-01     1.17227e-01
     11142      11168      1   0.095591  -0.460790     2.73568e-01     1.08078e-01
     11142      11145      1   0.095591   1.116434     3.10656e-01     1.17227e-01
     11140      11142      1   0.063253   0.079659     2.47135e-01     3.28444e-02
     11140      11143      1   0.063253   0.079659     2.47135e-01     3.28444e-02
     11140      11144      1   0.063253  -0.424567     2.73568e-01     1.08078e-01
     11140      11169      1   0.063253   0.748011     2.93551e-01     7.68707e-02
     11138      11140      1   0.070469   0.052711     2.47135e-01     3.28444e-02
     11138      11141      1   0.070469   0.014549     2.93551e-01     8.67002e-02
     11138      11168      1   0.070469  -0.460790     2.73568e-01     1.08078e-01
     11137      11140      1   0.070469   0.052711     2.47135e-01     3.28444e-02
     11137      11141      1   0.070469   0.014549     2.93551e-01     8.67002e-02
     11137      11168      1   0.070469  -0.460790     2.73568e-01     1.08078e-01
     11136      11142      1   0.196939   0.079659     2.93551e-01     8.67002e-02
     11136      11143      1   0.196939   0.079659     2.93551e-01     8.67002e-02
     11135      11140      1  -0.575489   0.052711     2.73568e-01     1.08078e-01
     11133      11137      1   0.910403   0.058724     2.93551e-01     7.68707e-02
     11133      11138      1   0.910403   0.058724     2.93551e-01     7.68707e-02
     11207      11210      1   0.018859   0.044953     2.60142e-01     2.09200e-02
     11207      11209      1   0.018859   0.044953     2.60142e-01     2.09200e-02
     11206      11210      1   0.018859   0.044953     2.60142e-01     2.09200e-02
     11206      11209      1   0.018859   0.044953     2.60142e-01     2.09200e-02
     11204      11208      1   0.020431  -0.136833     3.00055e-01     6.91943e-02
     11204      11207      1   0.020431   0.015716     2.60142e-01     2.09200e-02
     11204      11206      1   0.020431   0.015716     2.60142e-01     2.09200e-02
     11203      11208      1   0.020431  -0.136833     3.00055e-01     6.91943e-02
     11203      11207      1   0.020431   0.015716     2.60142e-01     2.09200e-02
     11203      11206      1   0.020431   0.015716     2.60142e-01     2.09200e-02
     11202      11210      1  -0.026954   0.044953     3.00055e-01     6.91943e-02
     11202      11209      1  -0.026954   0.044953     3.00055e-01     6.91943e-02
     11201      11205      1   0.010573  -0.002029     3.00055e-01     6.91943e-02
     11201      11204      1   0.010573   0.017026     2.60142e-01     2.09200e-02
     11201      11203      1   0.010573   0.017026     2.60142e-01     2.09200e-02
     11200      11205      1   0.010573  -0.002029     3.00055e-01     6.91943e-02
     11200      11204      1   0.010573   0.017026     2.60142e-01     2.09200e-02
     11200      11203      1   0.010573   0.017026     2.60142e-01     2.09200e-02
     11199      11207      1  -0.016521   0.015716     3.00055e-01     6.91943e-02
     11199      11206      1  -0.016521   0.015716     3.00055e-01     6.91943e-02
     11198      11202      1   0.011511  -0.022462     3.00055e-01     6.91943e-02
     11198      11200      1   0.011511   0.008811     2.60142e-01     2.09200e-02
     11198      11201      1   0.011511   0.008811     2.60142e-01     2.09200e-02
     11197      11202      1   0.011511  -0.022462     3.00055e-01     6.91943e-02
     11197      11200      1   0.011511   0.008811     2.60142e-01     2.09200e-02
     11197      11201      1   0.011511   0.008811     2.60142e-01     2.09200e-02
     11196      11204      1  -0.027812   0.017026     3.00055e-01     6.91943e-02
     11196      11203      1  -0.027812   0.017026     3.00055e-01     6.91943e-02
     11195      11199      1   0.006833  -0.013767     3.00055e-01     6.91943e-02
     11195      11197      1   0.006833   0.009592     2.60142e-01     2.09200e-02
     11195      11198      1   0.006833   0.009592     2.60142e-01     2.09200e-02
     11194      11199      1   0.006833  -0.013767     3.00055e-01     6.91943e-02
     11194      11197      1   0.006833   0.009592     2.60142e-01     2.09200e-02
     11194      11198      1   0.006833   0.009592     2.60142e-01     2.09200e-02
     11193      11200      1  -0.004386   0.008811     3.00055e-01     6.91943e-02
     11193      11201      1  -0.004386   0.008811     3.00055e-01     6.91943e-02
     11192      11196      1   0.011241  -0.023177     3.00055e-01     6.91943e-02
     11192      11194      1   0.011241   0.005694     2.60142e-01     2.09200e-02
     11192      11195      1   0.011241   0.005694     2.60142e-01     2.09200e-02
     11191      11196      1   0.011241  -0.023177     3.00055e-01     6.91943e-02
     11191      11194      1   0.011241   0.005694     2.60142e-01     2.09200e-02
     11191      11195      1   0.011241   0.005694     2.60142e-01     2.09200e-02
     11190      11197      1  -0.026451   0.009592     3.00055e-01     6.91943e-02
     11190      11198      1  -0.026451   0.009592     3.00055e-01     6.91943e-02
     11189      11193      1   0.010172  -0.003655     3.00055e-01     6.91943e-02
     11189      11192      1   0.010172   0.009367     2.60142e-01     2.09200e-02
     11189      11191      1   0.010172   0.009367     2.60142e-01     2.09200e-02
     11188      11193      1   0.010172  -0.003655     3.00055e-01     6.91943e-02
     11188      11192      1   0.010172   0.009367     2.60142e-01     2.09200e-02
     11188      11191      1   0.010172   0.009367     2.60142e-01     2.09200e-02
     11187      11194      1  -0.014653   0.005694     3.00055e-01     6.91943e-02
     11187      11195      1  -0.014653   0.005694     3.00055e-01     6.91943e-02
     11186      11190      1   0.010037  -0.022042     3.00055e-01     6.91943e-02
     11186      11188      1   0.010037   0.008477     2.60142e-01     2.09200e-02
     11186      11189      1   0.010037   0.008477     2.60142e-01     2.09200e-02
     11185      11190      1   0.010037  -0.022042     3.00055e-01     6.91943e-02
     11185      11188      1   0.010037   0.008477     2.60142e-01     2.09200e-02
     11185      11189      1   0.010037   0.008477     2.60142e-01     2.09200e-02
     11184      11192      1  -0.021025   0.009367     3.00055e-01     6.91943e-02
     11184      11191      1  -0.021025   0.009367     3.00055e-01     6.91943e-02
     11183      11187      1   0.012677  -0.012211     3.00055e-01     6.91943e-02
     11183      11186      1   0.012677   0.008364     2.60142e-01     2.09200e-02
     11183      11185      1   0.012677   0.008364     2.60142e-01     2.09200e-02
     11182      11187      1   0.012677  -0.012211     3.00055e-01     6.91943e-02
     11182      11186      1   0.012677   0.008364     2.60142e-01     2.09200e-02
     11182      11185      1   0.012677   0.008364     2.60142e-01     2.09200e-02
     11181      11188      1  -0.031787   0.008477     3.00055e-01     6.91943e-02
     11181      11189      1  -0.031787   0.008477     3.00055e-01     6.91943e-02
     11180      11184      1   0.017208  -0.017521     3.00055e-01     6.91943e-02
     11180      11182      1   0.017208   0.010564     2.60142e-01     2.09200e-02
     11180      11183      1   0.017208   0.010564     2.60142e-01     2.09200e-02
     11179      11184      1   0.017208  -0.017521     3.00055e-01     6.91943e-02
     11179      11182      1   0.017208   0.010564     2.60142e-01     2.09200e-02
     11179      11183      1   0.017208   0.010564     2.60142e-01     2.09200e-02
     11178      11186      1  -0.028094   0.008364     3.00055e-01     6.91943e-02
     11178      11185      1  -0.028094   0.008364     3.00055e-01     6.91943e-02
     11177      11181      1   0.007531  -0.026489     3.00055e-01     6.91943e-02
     11177      11180      1   0.007531   0.014340     2.60142e-01     2.09200e-02
     11177      11179      1   0.007531   0.014340     2.60142e-01     2.09200e-02
     11176      11181      1   0.007531  -0.026489     3.00055e-01     6.91943e-02
     11176      11180      1   0.007531   0.014340     2.60142e-01     2.09200e-02
     11176      11179      1   0.007531   0.014340     2.60142e-01     2.09200e-02
     11175      11182      1   0.017463   0.010564     3.00055e-01     6.91943e-02
     11175      11183      1   0.017463   0.010564     3.00055e-01     6.91943e-02
     11174      11178      1   0.025511  -0.023412     3.00055e-01     6.91943e-02
     11174      11176      1   0.025511   0.006276     2.60142e-01     2.09200e-02
     11174      11177      1   0.025511   0.006276     2.60142e-01     2.09200e-02
     11173      11178      1   0.025511  -0.023412     3.00055e-01     6.91943e-02
     11173      11176      1   0.025511   0.006276     2.60142e-01     2.09200e-02
     11173      11177      1   0.025511   0.006276     2.60142e-01     2.09200e-02
     11172      11180      1  -0.111712   0.014340     3.00055e-01     6.91943e-02
     11172      11179      1  -0.111712   0.014340     3.00055e-01     6.91943e-02
     11171      11178      1   0.025511  -0.023412     3.00055e-01     6.91943e-02
     11171      11176      1   0.025511   0.006276     2.60142e-01     2.09200e-02
     11171      11177      1   0.025511   0.006276     2.60142e-01     2.09200e-02
     11250      11252      1   0.053944  -0.559638     2.78067e-01     9.58675e-02
     11250      11253      1   0.053944  -0.479574     2.80072e-01     8.62554e-02
     11249      11252      1   0.053944  -0.559638     2.78067e-01     9.58675e-02
     11249      11253      1   0.053944  -0.479574     2.80072e-01     8.62554e-02
     11247      11250      1   0.018859   0.044953     2.60142e-01     2.09200e-02
     11247      11249      1   0.018859   0.044953     2.60142e-01     2.09200e-02
     11247      11251      1   0.018859   0.758669     3.00055e-01     6.13495e-02
     11246      11250      1   0.018859   0.044953     2.60142e-01     2.09200e-02
     11246      11249      1   0.018859   0.044953     2.60142e-01     2.09200e-02
     11246      11251      1   0.018859   0.758669     3.00055e-01     6.13495e-02
     11244      11248      1   0.020431  -0.136833     3.00055e-01     6.91943e-02
     11244      11247      1   0.020431   0.015716     2.60142e-01     2.09200e-02
     11244      11246      1   0.020431   0.015716     2.60142e-01     2.09200e-02
     11243      11248      1   0.020431  -0.136833     3.00055e-01     6.91943e-02
     11243      11247      1   0.020431   0.015716     2.60142e-01     2.09200e-02
     11243      11246      1   0.020431   0.015716     2.60142e-01     2.09200e-02
     11242      11250      1  -0.026954   0.044953     3.00055e-01     6.91943e-02
     11242      11249      1  -0.026954   0.044953     3.00055e-01     6.91943e-02
     11241      11245      1   0.010573  -0.002029     3.00055e-01     6.91943e-02
     11241      11244      1   0.010573   0.017026     2.60142e-01     2.09200e-02
     11241      11243      1   0.010573   0.017026     2.60142e-01     2.09200e-02
     11240      11245      1   0.010573  -0.002029     3.00055e-01     6.91943e-02
     11240      11244      1   0.010573   0.017026     2.60142e-01     2.09200e-02
     11240      11243      1   0.010573   0.017026     2.60142e-01     2.09200e-02
     11239      11247      1  -0.016521   0.015716     3.00055e-01     6.91943e-02
     11239      11246      1  -0.016521   0.015716     3.00055e-01     6.91943e-02
     11238      11242      1   0.011511  -0.022462     3.00055e-01     6.91943e-02
     11238      11240      1   0.011511   0.008811     2.60142e-01     2.09200e-02
     11238      11241      1   0.011511   0.008811     2.60142e-01     2.09200e-02
     11237      11242      1   0.011511  -0.022462     3.00055e-01     6.91943e-02
     11237      11240      1   0.011511   0.008811     2.60142e-01     2.09200e-02
     11237      11241      1   0.011511   0.008811     2.60142e-01     2.09200e-02
     11236      11244      1  -0.027812   0.017026     3.00055e-01     6.91943e-02
     11236      11243      1  -0.027812   0.017026     3.00055e-01     6.91943e-02
     11235      11239      1   0.006833  -0.013767     3.00055e-01     6.91943e-02
     11235      11237      1   0.006833   0.009592     2.60142e-01     2.09200e-02
     11235      11238      1   0.006833   0.009592     2.60142e-01     2.09200e-02
     11234      11239      1   0.006833  -0.013767     3.00055e-01     6.91943e-02
     11234      11237      1   0.006833   0.009592     2.60142e-01     2.09200e-02
     11234      11238      1   0.006833   0.009592     2.60142e-01     2.09200e-02
     11233      11240      1  -0.004386   0.008811     3.00055e-01     6.91943e-02
     11233      11241      1  -0.004386   0.008811     3.00055e-01     6.91943e-02
     11232      11236      1   0.011241  -0.023177     3.00055e-01     6.91943e-02
     11232      11234      1   0.011241   0.005694     2.60142e-01     2.09200e-02
     11232      11235      1   0.011241   0.005694     2.60142e-01     2.09200e-02
     11231      11236      1   0.011241  -0.023177     3.00055e-01     6.91943e-02
     11231      11234      1   0.011241   0.005694     2.60142e-01     2.09200e-02
     11231      11235      1   0.011241   0.005694     2.60142e-01     2.09200e-02
     11230      11237      1  -0.026451   0.009592     3.00055e-01     6.91943e-02
     11230      11238      1  -0.026451   0.009592     3.00055e-01     6.91943e-02
     11229      11233      1   0.010172  -0.003655     3.00055e-01     6.91943e-02
     11229      11232      1   0.010172   0.009367     2.60142e-01     2.09200e-02
     11229      11231      1   0.010172   0.009367     2.60142e-01     2.09200e-02
     11228      11233      1   0.010172  -0.003655     3.00055e-01     6.91943e-02
     11228      11232      1   0.010172   0.009367     2.60142e-01     2.09200e-02
     11228      11231      1   0.010172   0.009367     2.60142e-01     2.09200e-02
     11227      11234      1  -0.014653   0.005694     3.00055e-01     6.91943e-02
     11227      11235      1  -0.014653   0.005694     3.00055e-01     6.91943e-02
     11226      11230      1   0.010037  -0.022042     3.00055e-01     6.91943e-02
     11226      11228      1   0.010037   0.008477     2.60142e-01     2.09200e-02
     11226      11229      1   0.010037   0.008477     2.60142e-01     2.09200e-02
     11225      11230      1   0.010037  -0.022042     3.00055e-01     6.91943e-02
     11225      11228      1   0.010037   0.008477     2.60142e-01     2.09200e-02
     11225      11229      1   0.010037   0.008477     2.60142e-01     2.09200e-02
     11224      11232      1  -0.021025   0.009367     3.00055e-01     6.91943e-02
     11224      11231      1  -0.021025   0.009367     3.00055e-01     6.91943e-02
     11223      11227      1   0.012677  -0.012211     3.00055e-01     6.91943e-02
     11223      11226      1   0.012677   0.008364     2.60142e-01     2.09200e-02
     11223      11225      1   0.012677   0.008364     2.60142e-01     2.09200e-02
     11222      11227      1   0.012677  -0.012211     3.00055e-01     6.91943e-02
     11222      11226      1   0.012677   0.008364     2.60142e-01     2.09200e-02
     11222      11225      1   0.012677   0.008364     2.60142e-01     2.09200e-02
     11221      11228      1  -0.031787   0.008477     3.00055e-01     6.91943e-02
     11221      11229      1  -0.031787   0.008477     3.00055e-01     6.91943e-02
     11220      11224      1   0.017208  -0.017521     3.00055e-01     6.91943e-02
     11220      11222      1   0.017208   0.010564     2.60142e-01     2.09200e-02
     11220      11223      1   0.017208   0.010564     2.60142e-01     2.09200e-02
     11219      11224      1   0.017208  -0.017521     3.00055e-01     6.91943e-02
     11219      11222      1   0.017208   0.010564     2.60142e-01     2.09200e-02
     11219      11223      1   0.017208   0.010564     2.60142e-01     2.09200e-02
     11218      11226      1  -0.028094   0.008364     3.00055e-01     6.91943e-02
     11218      11225      1  -0.028094   0.008364     3.00055e-01     6.91943e-02
     11217      11221      1   0.007531  -0.026489     3.00055e-01     6.91943e-02
     11217      11220      1   0.007531   0.014340     2.60142e-01     2.09200e-02
     11217      11219      1   0.007531   0.014340     2.60142e-01     2.09200e-02
     11216      11221      1   0.007531  -0.026489     3.00055e-01     6.91943e-02
     11216      11220      1   0.007531   0.014340     2.60142e-01     2.09200e-02
     11216      11219      1   0.007531   0.014340     2.60142e-01     2.09200e-02
     11215      11222      1   0.017463   0.010564     3.00055e-01     6.91943e-02
     11215      11223      1   0.017463   0.010564     3.00055e-01     6.91943e-02
     11214      11218      1   0.025511  -0.023412     3.00055e-01     6.91943e-02
     11214      11216      1   0.025511   0.006276     2.60142e-01     2.09200e-02
     11214      11217      1   0.025511   0.006276     2.60142e-01     2.09200e-02
     11213      11218      1   0.025511  -0.023412     3.00055e-01     6.91943e-02
     11213      11216      1   0.025511   0.006276     2.60142e-01     2.09200e-02
     11213      11217      1   0.025511   0.006276     2.60142e-01     2.09200e-02
     11212      11220      1  -0.111712   0.014340     3.00055e-01     6.91943e-02
     11212      11219      1  -0.111712   0.014340     3.00055e-01     6.91943e-02
     11211      11218      1   0.025511  -0.023412     3.00055e-01     6.91943e-02
     11211      11216      1   0.025511   0.006276     2.60142e-01     2.09200e-02
     11211      11217      1   0.025511   0.006276     2.60142e-01     2.09200e-02
     11288      11328      1  -0.673755   0.044953     2.78067e-01     9.58675e-02
     11288      11327      1  -0.673755   0.044953     2.78067e-01     9.58675e-02
     11287      11325      1   0.897613   0.015716     3.00055e-01     6.13495e-02
     11287      11324      1   0.897613   0.015716     3.00055e-01     6.13495e-02
     11286      11328      1  -0.552948   0.044953     2.80072e-01     8.62554e-02
     11286      11327      1  -0.552948   0.044953     2.80072e-01     8.62554e-02
     11279      11280      1   0.172230  -0.282478     2.67982e-01     8.67002e-02
     11278      11280      1   0.172230  -0.282478     2.67982e-01     8.67002e-02
     11277      11280      1   0.172230  -0.282478     2.67982e-01     8.67002e-02
     11276      11281      1  -0.338973   0.143525     2.67982e-01     8.67002e-02
     11276      11282      1  -0.338973   0.143525     2.67982e-01     8.67002e-02
     11276      11283      1  -0.338973   0.143525     2.67982e-01     8.67002e-02
     11275      11276      1   0.172230  -0.282478     2.67982e-01     8.67002e-02
     11275      11280      1   0.172230  -0.282478     2.67982e-01     8.67002e-02
     11274      11276      1   0.172230  -0.282478     2.67982e-01     8.67002e-02
     11274      11280      1   0.172230  -0.282478     2.67982e-01     8.67002e-02
     11273      11276      1   0.172230  -0.282478     2.67982e-01     8.67002e-02
     11273      11280      1   0.172230  -0.282478     2.67982e-01     8.67002e-02
     11272      11277      1  -0.338973   0.143525     2.67982e-01     8.67002e-02
     11272      11278      1  -0.338973   0.143525     2.67982e-01     8.67002e-02
     11272      11279      1  -0.338973   0.143525     2.67982e-01     8.67002e-02
     11272      11281      1  -0.338973   0.143525     2.67982e-01     8.67002e-02
     11272      11282      1  -0.338973   0.143525     2.67982e-01     8.67002e-02
     11272      11283      1  -0.338973   0.143525     2.67982e-01     8.67002e-02
     11270      11272      1   0.136415  -0.282478     2.67982e-01     8.67002e-02
     11270      11276      1   0.136415  -0.282478     2.67982e-01     8.67002e-02
     11270      11280      1   0.136415  -0.282478     2.67982e-01     8.67002e-02
     11269      11272      1   0.136415  -0.282478     2.67982e-01     8.67002e-02
     11269      11276      1   0.136415  -0.282478     2.67982e-01     8.67002e-02
     11269      11280      1   0.136415  -0.282478     2.67982e-01     8.67002e-02
     11268      11273      1  -0.170824   0.143525     2.67982e-01     8.67002e-02
     11268      11274      1  -0.170824   0.143525     2.67982e-01     8.67002e-02
     11268      11275      1  -0.170824   0.143525     2.67982e-01     8.67002e-02
     11268      11277      1  -0.170824   0.143525     2.67982e-01     8.67002e-02
     11268      11278      1  -0.170824   0.143525     2.67982e-01     8.67002e-02
     11268      11279      1  -0.170824   0.143525     2.67982e-01     8.67002e-02
     11268      11281      1  -0.170824   0.143525     2.67982e-01     8.67002e-02
     11268      11282      1  -0.170824   0.143525     2.67982e-01     8.67002e-02
     11268      11283      1  -0.170824   0.143525     2.67982e-01     8.67002e-02
     11267      11269      1   0.078534   0.113679     2.21567e-01     3.28444e-02
     11267      11270      1   0.078534   0.113679     2.21567e-01     3.28444e-02
     11267      11271      1   0.078534   0.204385     2.86068e-01     1.08078e-01
     11266      11269      1   0.078534   0.113679     2.21567e-01     3.28444e-02
     11266      11270      1   0.078534   0.113679     2.21567e-01     3.28444e-02
     11266      11271      1   0.078534   0.204385     2.86068e-01     1.08078e-01
     11264      11269      1  -0.508176   0.113679     2.47999e-01     1.08078e-01
     11264      11270      1  -0.508176   0.113679     2.47999e-01     1.08078e-01
     11263      11266      1   1.339721   0.065445     3.10656e-01     1.17227e-01
     11263      11267      1   1.339721   0.065445     3.10656e-01     1.17227e-01
     11261      11286      1   0.095591  -0.460790     2.73568e-01     1.08078e-01
     11261      11263      1   0.095591   1.116434     3.10656e-01     1.17227e-01
     11260      11286      1   0.095591  -0.460790     2.73568e-01     1.08078e-01
     11260      11263      1   0.095591   1.116434     3.10656e-01     1.17227e-01
     11258      11260      1   0.063253   0.079659     2.47135e-01     3.28444e-02
     11258      11261      1   0.063253   0.079659     2.47135e-01     3.28444e-02
     11258      11262      1   0.063253  -0.424567     2.73568e-01     1.08078e-01
     11258      11287      1   0.063253   0.748011     2.93551e-01     7.68707e-02
     11256      11258      1   0.070469   0.052711     2.47135e-01     3.28444e-02
     11256      11259      1   0.070469   0.014549     2.93551e-01     8.67002e-02
     11256      11286      1   0.070469  -0.460790     2.73568e-01     1.08078e-01
     11255      11258      1   0.070469   0.052711     2.47135e-01     3.28444e-02
     11255      11259      1   0.070469   0.014549     2.93551e-01     8.67002e-02
     11255      11286      1   0.070469  -0.460790     2.73568e-01     1.08078e-01
     11254      11260      1   0.196939   0.079659     2.93551e-01     8.67002e-02
     11254      11261      1   0.196939   0.079659     2.93551e-01     8.67002e-02
     11253      11258      1  -0.575489   0.052711     2.73568e-01     1.08078e-01
     11251      11255      1   0.910403   0.058724     2.93551e-01     7.68707e-02
     11251      11256      1   0.910403   0.058724     2.93551e-01     7.68707e-02
     11325      11328      1   0.018859   0.044953     2.60142e-01     2.09200e-02
     11325      11327      1   0.018859   0.044953     2.60142e-01     2.09200e-02
     11324      11328      1   0.018859   0.044953     2.60142e-01     2.09200e-02
     11324      11327      1   0.018859   0.044953     2.60142e-01     2.09200e-02
     11322      11326      1   0.020431  -0.136833     3.00055e-01     6.91943e-02
     11322      11325      1   0.020431   0.015716     2.60142e-01     2.09200e-02
     11322      11324      1   0.020431   0.015716     2.60142e-01     2.09200e-02
     11321      11326      1   0.020431  -0.136833     3.00055e-01     6.91943e-02
     11321      11325      1   0.020431   0.015716     2.60142e-01     2.09200e-02
     11321      11324      1   0.020431   0.015716     2.60142e-01     2.09200e-02
     11320      11328      1  -0.026954   0.044953     3.00055e-01     6.91943e-02
     11320      11327      1  -0.026954   0.044953     3.00055e-01     6.91943e-02
     11319      11323      1   0.010573  -0.002029     3.00055e-01     6.91943e-02
     11319      11322      1   0.010573   0.017026     2.60142e-01     2.09200e-02
     11319      11321      1   0.010573   0.017026     2.60142e-01     2.09200e-02
     11318      11323      1   0.010573  -0.002029     3.00055e-01     6.91943e-02
     11318      11322      1   0.010573   0.017026     2.60142e-01     2.09200e-02
     11318      11321      1   0.010573   0.017026     2.60142e-01     2.09200e-02
     11317      11325      1  -0.016521   0.015716     3.00055e-01     6.91943e-02
     11317      11324      1  -0.016521   0.015716     3.00055e-01     6.91943e-02
     11316      11320      1   0.011511  -0.022462     3.00055e-01     6.91943e-02
     11316      11318      1   0.011511   0.008811     2.60142e-01     2.09200e-02
     11316      11319      1   0.011511   0.008811     2.60142e-01     2.09200e-02
     11315      11320      1   0.011511  -0.022462     3.00055e-01     6.91943e-02
     11315      11318      1   0.011511   0.008811     2.60142e-01     2.09200e-02
     11315      11319      1   0.011511   0.008811     2.60142e-01     2.09200e-02
     11314      11322      1  -0.027812   0.017026     3.00055e-01     6.91943e-02
     11314      11321      1  -0.027812   0.017026     3.00055e-01     6.91943e-02
     11313      11317      1   0.006833  -0.013767     3.00055e-01     6.91943e-02
     11313      11315      1   0.006833   0.009592     2.60142e-01     2.09200e-02
     11313      11316      1   0.006833   0.009592     2.60142e-01     2.09200e-02
     11312      11317      1   0.006833  -0.013767     3.00055e-01     6.91943e-02
     11312      11315      1   0.006833   0.009592     2.60142e-01     2.09200e-02
     11312      11316      1   0.006833   0.009592     2.60142e-01     2.09200e-02
     11311      11318      1  -0.004386   0.008811     3.00055e-01     6.91943e-02
     11311      11319      1  -0.004386   0.008811     3.00055e-01     6.91943e-02
     11310      11314      1   0.011241  -0.023177     3.00055e-01     6.91943e-02
     11310      11312      1   0.011241   0.005694     2.60142e-01     2.09200e-02
     11310      11313      1   0.011241   0.005694     2.60142e-01     2.09200e-02
     11309      11314      1   0.011241  -0.023177     3.00055e-01     6.91943e-02
     11309      11312      1   0.011241   0.005694     2.60142e-01     2.09200e-02
     11309      11313      1   0.011241   0.005694     2.60142e-01     2.09200e-02
     11308      11315      1  -0.026451   0.009592     3.00055e-01     6.91943e-02
     11308      11316      1  -0.026451   0.009592     3.00055e-01     6.91943e-02
     11307      11311      1   0.010172  -0.003655     3.00055e-01     6.91943e-02
     11307      11310      1   0.010172   0.009367     2.60142e-01     2.09200e-02
     11307      11309      1   0.010172   0.009367     2.60142e-01     2.09200e-02
     11306      11311      1   0.010172  -0.003655     3.00055e-01     6.91943e-02
     11306      11310      1   0.010172   0.009367     2.60142e-01     2.09200e-02
     11306      11309      1   0.010172   0.009367     2.60142e-01     2.09200e-02
     11305      11312      1  -0.014653   0.005694     3.00055e-01     6.91943e-02
     11305      11313      1  -0.014653   0.005694     3.00055e-01     6.91943e-02
     11304      11308      1   0.010037  -0.022042     3.00055e-01     6.91943e-02
     11304      11306      1   0.010037   0.008477     2.60142e-01     2.09200e-02
     11304      11307      1   0.010037   0.008477     2.60142e-01     2.09200e-02
     11303      11308      1   0.010037  -0.022042     3.00055e-01     6.91943e-02
     11303      11306      1   0.010037   0.008477     2.60142e-01     2.09200e-02
     11303      11307      1   0.010037   0.008477     2.60142e-01     2.09200e-02
     11302      11310      1  -0.021025   0.009367     3.00055e-01     6.91943e-02
     11302      11309      1  -0.021025   0.009367     3.00055e-01     6.91943e-02
     11301      11305      1   0.012677  -0.012211     3.00055e-01     6.91943e-02
     11301      11304      1   0.012677   0.008364     2.60142e-01     2.09200e-02
     11301      11303      1   0.012677   0.008364     2.60142e-01     2.09200e-02
     11300      11305      1   0.012677  -0.012211     3.00055e-01     6.91943e-02
     11300      11304      1   0.012677   0.008364     2.60142e-01     2.09200e-02
     11300      11303      1   0.012677   0.008364     2.60142e-01     2.09200e-02
     11299      11306      1  -0.031787   0.008477     3.00055e-01     6.91943e-02
     11299      11307      1  -0.031787   0.008477     3.00055e-01     6.91943e-02
     11298      11302      1   0.017208  -0.017521     3.00055e-01     6.91943e-02
     11298      11300      1   0.017208   0.010564     2.60142e-01     2.09200e-02
     11298      11301      1   0.017208   0.010564     2.60142e-01     2.09200e-02
     11297      11302      1   0.017208  -0.017521     3.00055e-01     6.91943e-02
     11297      11300      1   0.017208   0.010564     2.60142e-01     2.09200e-02
     11297      11301      1   0.017208   0.010564     2.60142e-01     2.09200e-02
     11296      11304      1  -0.028094   0.008364     3.00055e-01     6.91943e-02
     11296      11303      1  -0.028094   0.008364     3.00055e-01     6.91943e-02
     11295      11299      1   0.007531  -0.026489     3.00055e-01     6.91943e-02
     11295      11298      1   0.007531   0.014340     2.60142e-01     2.09200e-02
     11295      11297      1   0.007531   0.014340     2.60142e-01     2.09200e-02
     11294      11299      1   0.007531  -0.026489     3.00055e-01     6.91943e-02
     11294      11298      1   0.007531   0.014340     2.60142e-01     2.09200e-02
     11294      11297      1   0.007531   0.014340     2.60142e-01     2.09200e-02
     11293      11300      1   0.017463   0.010564     3.00055e-01     6.91943e-02
     11293      11301      1   0.017463   0.010564     3.00055e-01     6.91943e-02
     11292      11296      1   0.025511  -0.023412     3.00055e-01     6.91943e-02
     11292      11294      1   0.025511   0.006276     2.60142e-01     2.09200e-02
     11292      11295      1   0.025511   0.006276     2.60142e-01     2.09200e-02
     11291      11296      1   0.025511  -0.023412     3.00055e-01     6.91943e-02
     11291      11294      1   0.025511   0.006276     2.60142e-01     2.09200e-02
     11291      11295      1   0.025511   0.006276     2.60142e-01     2.09200e-02
     11290      11298      1  -0.111712   0.014340     3.00055e-01     6.91943e-02
     11290      11297      1  -0.111712   0.014340     3.00055e-01     6.91943e-02
     11289      11296      1   0.025511  -0.023412     3.00055e-01     6.91943e-02
     11289      11294      1   0.025511   0.006276     2.60142e-01     2.09200e-02
     11289      11295      1   0.025511   0.006276     2.60142e-01     2.09200e-02
     11368      11370      1   0.053944  -0.559638     2.78067e-01     9.58675e-02
     11368      11371      1   0.053944  -0.479574     2.80072e-01     8.62554e-02
     11367      11370      1   0.053944  -0.559638     2.78067e-01     9.58675e-02
     11367      11371      1   0.053944  -0.479574     2.80072e-01     8.62554e-02
     11365      11368      1   0.018859   0.044953     2.60142e-01     2.09200e-02
     11365      11367      1   0.018859   0.044953     2.60142e-01     2.09200e-02
     11365      11369      1   0.018859   0.758669     3.00055e-01     6.13495e-02
     11364      11368      1   0.018859   0.044953     2.60142e-01     2.09200e-02
     11364      11367      1   0.018859   0.044953     2.60142e-01     2.09200e-02
     11364      11369      1   0.018859   0.758669     3.00055e-01     6.13495e-02
     11362      11366      1   0.020431  -0.136833     3.00055e-01     6.91943e-02
     11362      11365      1   0.020431   0.015716     2.60142e-01     2.09200e-02
     11362      11364      1   0.020431   0.015716     2.60142e-01     2.09200e-02
     11361      11366      1   0.020431  -0.136833     3.00055e-01     6.91943e-02
     11361      11365      1   0.020431   0.015716     2.60142e-01     2.09200e-02
     11361      11364      1   0.020431   0.015716     2.60142e-01     2.09200e-02
     11360      11368      1  -0.026954   0.044953     3.00055e-01     6.91943e-02
     11360      11367      1  -0.026954   0.044953     3.00055e-01     6.91943e-02
     11359      11363      1   0.010573  -0.002029     3.00055e-01     6.91943e-02
     11359      11362      1   0.010573   0.017026     2.60142e-01     2.09200e-02
     11359      11361      1   0.010573   0.017026     2.60142e-01     2.09200e-02
     11358      11363      1   0.010573  -0.002029     3.00055e-01     6.91943e-02
     11358      11362      1   0.010573   0.017026     2.60142e-01     2.09200e-02
     11358      11361      1   0.010573   0.017026     2.60142e-01     2.09200e-02
     11357      11365      1  -0.016521   0.015716     3.00055e-01     6.91943e-02
     11357      11364      1  -0.016521   0.015716     3.00055e-01     6.91943e-02
     11356      11360      1   0.011511  -0.022462     3.00055e-01     6.91943e-02
     11356      11358      1   0.011511   0.008811     2.60142e-01     2.09200e-02
     11356      11359      1   0.011511   0.008811     2.60142e-01     2.09200e-02
     11355      11360      1   0.011511  -0.022462     3.00055e-01     6.91943e-02
     11355      11358      1   0.011511   0.008811     2.60142e-01     2.09200e-02
     11355      11359      1   0.011511   0.008811     2.60142e-01     2.09200e-02
     11354      11362      1  -0.027812   0.017026     3.00055e-01     6.91943e-02
     11354      11361      1  -0.027812   0.017026     3.00055e-01     6.91943e-02
     11353      11357      1   0.006833  -0.013767     3.00055e-01     6.91943e-02
     11353      11355      1   0.006833   0.009592     2.60142e-01     2.09200e-02
     11353      11356      1   0.006833   0.009592     2.60142e-01     2.09200e-02
     11352      11357      1   0.006833  -0.013767     3.00055e-01     6.91943e-02
     11352      11355      1   0.006833   0.009592     2.60142e-01     2.09200e-02
     11352      11356      1   0.006833   0.009592     2.60142e-01     2.09200e-02
     11351      11358      1  -0.004386   0.008811     3.00055e-01     6.91943e-02
     11351      11359      1  -0.004386   0.008811     3.00055e-01     6.91943e-02
     11350      11354      1   0.011241  -0.023177     3.00055e-01     6.91943e-02
     11350      11352      1   0.011241   0.005694     2.60142e-01     2.09200e-02
     11350      11353      1   0.011241   0.005694     2.60142e-01     2.09200e-02
     11349      11354      1   0.011241  -0.023177     3.00055e-01     6.91943e-02
     11349      11352      1   0.011241   0.005694     2.60142e-01     2.09200e-02
     11349      11353      1   0.011241   0.005694     2.60142e-01     2.09200e-02
     11348      11355      1  -0.026451   0.009592     3.00055e-01     6.91943e-02
     11348      11356      1  -0.026451   0.009592     3.00055e-01     6.91943e-02
     11347      11351      1   0.010172  -0.003655     3.00055e-01     6.91943e-02
     11347      11350      1   0.010172   0.009367     2.60142e-01     2.09200e-02
     11347      11349      1   0.010172   0.009367     2.60142e-01     2.09200e-02
     11346      11351      1   0.010172  -0.003655     3.00055e-01     6.91943e-02
     11346      11350      1   0.010172   0.009367     2.60142e-01     2.09200e-02
     11346      11349      1   0.010172   0.009367     2.60142e-01     2.09200e-02
     11345      11352      1  -0.014653   0.005694     3.00055e-01     6.91943e-02
     11345      11353      1  -0.014653   0.005694     3.00055e-01     6.91943e-02
     11344      11348      1   0.010037  -0.022042     3.00055e-01     6.91943e-02
     11344      11346      1   0.010037   0.008477     2.60142e-01     2.09200e-02
     11344      11347      1   0.010037   0.008477     2.60142e-01     2.09200e-02
     11343      11348      1   0.010037  -0.022042     3.00055e-01     6.91943e-02
     11343      11346      1   0.010037   0.008477     2.60142e-01     2.09200e-02
     11343      11347      1   0.010037   0.008477     2.60142e-01     2.09200e-02
     11342      11350      1  -0.021025   0.009367     3.00055e-01     6.91943e-02
     11342      11349      1  -0.021025   0.009367     3.00055e-01     6.91943e-02
     11341      11345      1   0.012677  -0.012211     3.00055e-01     6.91943e-02
     11341      11344      1   0.012677   0.008364     2.60142e-01     2.09200e-02
     11341      11343      1   0.012677   0.008364     2.60142e-01     2.09200e-02
     11340      11345      1   0.012677  -0.012211     3.00055e-01     6.91943e-02
     11340      11344      1   0.012677   0.008364     2.60142e-01     2.09200e-02
     11340      11343      1   0.012677   0.008364     2.60142e-01     2.09200e-02
     11339      11346      1  -0.031787   0.008477     3.00055e-01     6.91943e-02
     11339      11347      1  -0.031787   0.008477     3.00055e-01     6.91943e-02
     11338      11342      1   0.017208  -0.017521     3.00055e-01     6.91943e-02
     11338      11340      1   0.017208   0.010564     2.60142e-01     2.09200e-02
     11338      11341      1   0.017208   0.010564     2.60142e-01     2.09200e-02
     11337      11342      1   0.017208  -0.017521     3.00055e-01     6.91943e-02
     11337      11340      1   0.017208   0.010564     2.60142e-01     2.09200e-02
     11337      11341      1   0.017208   0.010564     2.60142e-01     2.09200e-02
     11336      11344      1  -0.028094   0.008364     3.00055e-01     6.91943e-02
     11336      11343      1  -0.028094   0.008364     3.00055e-01     6.91943e-02
     11335      11339      1   0.007531  -0.026489     3.00055e-01     6.91943e-02
     11335      11338      1   0.007531   0.014340     2.60142e-01     2.09200e-02
     11335      11337      1   0.007531   0.014340     2.60142e-01     2.09200e-02
     11334      11339      1   0.007531  -0.026489     3.00055e-01     6.91943e-02
     11334      11338      1   0.007531   0.014340     2.60142e-01     2.09200e-02
     11334      11337      1   0.007531   0.014340     2.60142e-01     2.09200e-02
     11333      11340      1   0.017463   0.010564     3.00055e-01     6.91943e-02
     11333      11341      1   0.017463   0.010564     3.00055e-01     6.91943e-02
     11332      11336      1   0.025511  -0.023412     3.00055e-01     6.91943e-02
     11332      11334      1   0.025511   0.006276     2.60142e-01     2.09200e-02
     11332      11335      1   0.025511   0.006276     2.60142e-01     2.09200e-02
     11331      11336      1   0.025511  -0.023412     3.00055e-01     6.91943e-02
     11331      11334      1   0.025511   0.006276     2.60142e-01     2.09200e-02
     11331      11335      1   0.025511   0.006276     2.60142e-01     2.09200e-02
     11330      11338      1  -0.111712   0.014340     3.00055e-01     6.91943e-02
     11330      11337      1  -0.111712   0.014340     3.00055e-01     6.91943e-02
     11329      11336      1   0.025511  -0.023412     3.00055e-01     6.91943e-02
     11329      11334      1   0.025511   0.006276     2.60142e-01     2.09200e-02
     11329      11335      1   0.025511   0.006276     2.60142e-01     2.09200e-02
     11406      11446      1  -0.673755   0.044953     2.78067e-01     9.58675e-02
     11406      11445      1  -0.673755   0.044953     2.78067e-01     9.58675e-02
     11405      11443      1   0.897613   0.015716     3.00055e-01     6.13495e-02
     11405      11442      1   0.897613   0.015716     3.00055e-01     6.13495e-02
     11404      11446      1  -0.552948   0.044953     2.80072e-01     8.62554e-02
     11404      11445      1  -0.552948   0.044953     2.80072e-01     8.62554e-02
     11397      11398      1   0.172230  -0.282478     2.67982e-01     8.67002e-02
     11396      11398      1   0.172230  -0.282478     2.67982e-01     8.67002e-02
     11395      11398      1   0.172230  -0.282478     2.67982e-01     8.67002e-02
     11394      11399      1  -0.338973   0.143525     2.67982e-01     8.67002e-02
     11394      11400      1  -0.338973   0.143525     2.67982e-01     8.67002e-02
     11394      11401      1  -0.338973   0.143525     2.67982e-01     8.67002e-02
     11393      11394      1   0.172230  -0.282478     2.67982e-01     8.67002e-02
     11393      11398      1   0.172230  -0.282478     2.67982e-01     8.67002e-02
     11392      11394      1   0.172230  -0.282478     2.67982e-01     8.67002e-02
     11392      11398      1   0.172230  -0.282478     2.67982e-01     8.67002e-02
     11391      11394      1   0.172230  -0.282478     2.67982e-01     8.67002e-02
     11391      11398      1   0.172230  -0.282478     2.67982e-01     8.67002e-02
     11390      11395      1  -0.338973   0.143525     2.67982e-01     8.67002e-02
     11390      11396      1  -0.338973   0.143525     2.67982e-01     8.67002e-02
     11390      11397      1  -0.338973   0.143525     2.67982e-01     8.67002e-02
     11390      11399      1  -0.338973   0.143525     2.67982e-01     8.67002e-02
     11390      11400      1  -0.338973   0.143525     2.67982e-01     8.67002e-02
     11390      11401      1  -0.338973   0.143525     2.67982e-01     8.67002e-02
     11388      11390      1   0.136415  -0.282478     2.67982e-01     8.67002e-02
     11388      11394      1   0.136415  -0.282478     2.67982e-01     8.67002e-02
     11388      11398      1   0.136415  -0.282478     2.67982e-01     8.67002e-02
     11387      11390      1   0.136415  -0.282478     2.67982e-01     8.67002e-02
     11387      11394      1   0.136415  -0.282478     2.67982e-01     8.67002e-02
     11387      11398      1   0.136415  -0.282478     2.67982e-01     8.67002e-02
     11386      11391      1  -0.170824   0.143525     2.67982e-01     8.67002e-02
     11386      11392      1  -0.170824   0.143525     2.67982e-01     8.67002e-02
     11386      11393      1  -0.170824   0.143525     2.67982e-01     8.67002e-02
     11386      11395      1  -0.170824   0.143525     2.67982e-01     8.67002e-02
     11386      11396      1  -0.170824   0.143525     2.67982e-01     8.67002e-02
     11386      11397      1  -0.170824   0.143525     2.67982e-01     8.67002e-02
     11386      11399      1  -0.170824   0.143525     2.67982e-01     8.67002e-02
     11386      11400      1  -0.170824   0.143525     2.67982e-01     8.67002e-02
     11386      11401      1  -0.170824   0.143525     2.67982e-01     8.67002e-02
     11385      11387      1   0.078534   0.113679     2.21567e-01     3.28444e-02
     11385      11388      1   0.078534   0.113679     2.21567e-01     3.28444e-02
     11385      11389      1   0.078534   0.204385     2.86068e-01     1.08078e-01
     11384      11387      1   0.078534   0.113679     2.21567e-01     3.28444e-02
     11384      11388      1   0.078534   0.113679     2.21567e-01     3.28444e-02
     11384      11389      1   0.078534   0.204385     2.86068e-01     1.08078e-01
     11382      11387      1  -0.508176   0.113679     2.47999e-01     1.08078e-01
     11382      11388      1  -0.508176   0.113679     2.47999e-01     1.08078e-01
     11381      11384      1   1.339721   0.065445     3.10656e-01     1.17227e-01
     11381      11385      1   1.339721   0.065445     3.10656e-01     1.17227e-01
     11379      11404      1   0.095591  -0.460790     2.73568e-01     1.08078e-01
     11379      11381      1   0.095591   1.116434     3.10656e-01     1.17227e-01
     11378      11404      1   0.095591  -0.460790     2.73568e-01     1.08078e-01
     11378      11381      1   0.095591   1.116434     3.10656e-01     1.17227e-01
     11376      11378      1   0.063253   0.079659     2.47135e-01     3.28444e-02
     11376      11379      1   0.063253   0.079659     2.47135e-01     3.28444e-02
     11376      11380      1   0.063253  -0.424567     2.73568e-01     1.08078e-01
     11376      11405      1   0.063253   0.748011     2.93551e-01     7.68707e-02
     11374      11376      1   0.070469   0.052711     2.47135e-01     3.28444e-02
     11374      11377      1   0.070469   0.014549     2.93551e-01     8.67002e-02
     11374      11404      1   0.070469  -0.460790     2.73568e-01     1.08078e-01
     11373      11376      1   0.070469   0.052711     2.47135e-01     3.28444e-02
     11373      11377      1   0.070469   0.014549     2.93551e-01     8.67002e-02
     11373      11404      1   0.070469  -0.460790     2.73568e-01     1.08078e-01
     11372      11378      1   0.196939   0.079659     2.93551e-01     8.67002e-02
     11372      11379      1   0.196939   0.079659     2.93551e-01     8.67002e-02
     11371      11376      1  -0.575489   0.052711     2.73568e-01     1.08078e-01
     11369      11373      1   0.910403   0.058724     2.93551e-01     7.68707e-02
     11369      11374      1   0.910403   0.058724     2.93551e-01     7.68707e-02
     11443      11446      1   0.018859   0.044953     2.60142e-01     2.09200e-02
     11443      11445      1   0.018859   0.044953     2.60142e-01     2.09200e-02
     11442      11446      1   0.018859   0.044953     2.60142e-01     2.09200e-02
     11442      11445      1   0.018859   0.044953     2.60142e-01     2.09200e-02
     11440      11444      1   0.020431  -0.136833     3.00055e-01     6.91943e-02
     11440      11443      1   0.020431   0.015716     2.60142e-01     2.09200e-02
     11440      11442      1   0.020431   0.015716     2.60142e-01     2.09200e-02
     11439      11444      1   0.020431  -0.136833     3.00055e-01     6.91943e-02
     11439      11443      1   0.020431   0.015716     2.60142e-01     2.09200e-02
     11439      11442      1   0.020431   0.015716     2.60142e-01     2.09200e-02
     11438      11446      1  -0.026954   0.044953     3.00055e-01     6.91943e-02
     11438      11445      1  -0.026954   0.044953     3.00055e-01     6.91943e-02
     11437      11441      1   0.010573  -0.002029     3.00055e-01     6.91943e-02
     11437      11440      1   0.010573   0.017026     2.60142e-01     2.09200e-02
     11437      11439      1   0.010573   0.017026     2.60142e-01     2.09200e-02
     11436      11441      1   0.010573  -0.002029     3.00055e-01     6.91943e-02
     11436      11440      1   0.010573   0.017026     2.60142e-01     2.09200e-02
     11436      11439      1   0.010573   0.017026     2.60142e-01     2.09200e-02
     11435      11443      1  -0.016521   0.015716     3.00055e-01     6.91943e-02
     11435      11442      1  -0.016521   0.015716     3.00055e-01     6.91943e-02
     11434      11438      1   0.011511  -0.022462     3.00055e-01     6.91943e-02
     11434      11436      1   0.011511   0.008811     2.60142e-01     2.09200e-02
     11434      11437      1   0.011511   0.008811     2.60142e-01     2.09200e-02
     11433      11438      1   0.011511  -0.022462     3.00055e-01     6.91943e-02
     11433      11436      1   0.011511   0.008811     2.60142e-01     2.09200e-02
     11433      11437      1   0.011511   0.008811     2.60142e-01     2.09200e-02
     11432      11440      1  -0.027812   0.017026     3.00055e-01     6.91943e-02
     11432      11439      1  -0.027812   0.017026     3.00055e-01     6.91943e-02
     11431      11435      1   0.006833  -0.013767     3.00055e-01     6.91943e-02
     11431      11433      1   0.006833   0.009592     2.60142e-01     2.09200e-02
     11431      11434      1   0.006833   0.009592     2.60142e-01     2.09200e-02
     11430      11435      1   0.006833  -0.013767     3.00055e-01     6.91943e-02
     11430      11433      1   0.006833   0.009592     2.60142e-01     2.09200e-02
     11430      11434      1   0.006833   0.009592     2.60142e-01     2.09200e-02
     11429      11436      1  -0.004386   0.008811     3.00055e-01     6.91943e-02
     11429      11437      1  -0.004386   0.008811     3.00055e-01     6.91943e-02
     11428      11432      1   0.011241  -0.023177     3.00055e-01     6.91943e-02
     11428      11430      1   0.011241   0.005694     2.60142e-01     2.09200e-02
     11428      11431      1   0.011241   0.005694     2.60142e-01     2.09200e-02
     11427      11432      1   0.011241  -0.023177     3.00055e-01     6.91943e-02
     11427      11430      1   0.011241   0.005694     2.60142e-01     2.09200e-02
     11427      11431      1   0.011241   0.005694     2.60142e-01     2.09200e-02
     11426      11433      1  -0.026451   0.009592     3.00055e-01     6.91943e-02
     11426      11434      1  -0.026451   0.009592     3.00055e-01     6.91943e-02
     11425      11429      1   0.010172  -0.003655     3.00055e-01     6.91943e-02
     11425      11428      1   0.010172   0.009367     2.60142e-01     2.09200e-02
     11425      11427      1   0.010172   0.009367     2.60142e-01     2.09200e-02
     11424      11429      1   0.010172  -0.003655     3.00055e-01     6.91943e-02
     11424      11428      1   0.010172   0.009367     2.60142e-01     2.09200e-02
     11424      11427      1   0.010172   0.009367     2.60142e-01     2.09200e-02
     11423      11430      1  -0.014653   0.005694     3.00055e-01     6.91943e-02
     11423      11431      1  -0.014653   0.005694     3.00055e-01     6.91943e-02
     11422      11426      1   0.010037  -0.022042     3.00055e-01     6.91943e-02
     11422      11424      1   0.010037   0.008477     2.60142e-01     2.09200e-02
     11422      11425      1   0.010037   0.008477     2.60142e-01     2.09200e-02
     11421      11426      1   0.010037  -0.022042     3.00055e-01     6.91943e-02
     11421      11424      1   0.010037   0.008477     2.60142e-01     2.09200e-02
     11421      11425      1   0.010037   0.008477     2.60142e-01     2.09200e-02
     11420      11428      1  -0.021025   0.009367     3.00055e-01     6.91943e-02
     11420      11427      1  -0.021025   0.009367     3.00055e-01     6.91943e-02
     11419      11423      1   0.012677  -0.012211     3.00055e-01     6.91943e-02
     11419      11422      1   0.012677   0.008364     2.60142e-01     2.09200e-02
     11419      11421      1   0.012677   0.008364     2.60142e-01     2.09200e-02
     11418      11423      1   0.012677  -0.012211     3.00055e-01     6.91943e-02
     11418      11422      1   0.012677   0.008364     2.60142e-01     2.09200e-02
     11418      11421      1   0.012677   0.008364     2.60142e-01     2.09200e-02
     11417      11424      1  -0.031787   0.008477     3.00055e-01     6.91943e-02
     11417      11425      1  -0.031787   0.008477     3.00055e-01     6.91943e-02
     11416      11420      1   0.017208  -0.017521     3.00055e-01     6.91943e-02
     11416      11418      1   0.017208   0.010564     2.60142e-01     2.09200e-02
     11416      11419      1   0.017208   0.010564     2.60142e-01     2.09200e-02
     11415      11420      1   0.017208  -0.017521     3.00055e-01     6.91943e-02
     11415      11418      1   0.017208   0.010564     2.60142e-01     2.09200e-02
     11415      11419      1   0.017208   0.010564     2.60142e-01     2.09200e-02
     11414      11422      1  -0.028094   0.008364     3.00055e-01     6.91943e-02
     11414      11421      1  -0.028094   0.008364     3.00055e-01     6.91943e-02
     11413      11417      1   0.007531  -0.026489     3.00055e-01     6.91943e-02
     11413      11416      1   0.007531   0.014340     2.60142e-01     2.09200e-02
     11413      11415      1   0.007531   0.014340     2.60142e-01     2.09200e-02
     11412      11417      1   0.007531  -0.026489     3.00055e-01     6.91943e-02
     11412      11416      1   0.007531   0.014340     2.60142e-01     2.09200e-02
     11412      11415      1   0.007531   0.014340     2.60142e-01     2.09200e-02
     11411      11418      1   0.017463   0.010564     3.00055e-01     6.91943e-02
     11411      11419      1   0.017463   0.010564     3.00055e-01     6.91943e-02
     11410      11414      1   0.025511  -0.023412     3.00055e-01     6.91943e-02
     11410      11412      1   0.025511   0.006276     2.60142e-01     2.09200e-02
     11410      11413      1   0.025511   0.006276     2.60142e-01     2.09200e-02
     11409      11414      1   0.025511  -0.023412     3.00055e-01     6.91943e-02
     11409      11412      1   0.025511   0.006276     2.60142e-01     2.09200e-02
     11409      11413      1   0.025511   0.006276     2.60142e-01     2.09200e-02
     11408      11416      1  -0.111712   0.014340     3.00055e-01     6.91943e-02
     11408      11415      1  -0.111712   0.014340     3.00055e-01     6.91943e-02
     11407      11414      1   0.025511  -0.023412     3.00055e-01     6.91943e-02
     11407      11412      1   0.025511   0.006276     2.60142e-01     2.09200e-02
     11407      11413      1   0.025511   0.006276     2.60142e-01     2.09200e-02
     11486      11488      1   0.053944  -0.559638     2.78067e-01     9.58675e-02
     11486      11489      1   0.053944  -0.479574     2.80072e-01     8.62554e-02
     11485      11488      1   0.053944  -0.559638     2.78067e-01     9.58675e-02
     11485      11489      1   0.053944  -0.479574     2.80072e-01     8.62554e-02
     11483      11486      1   0.018859   0.044953     2.60142e-01     2.09200e-02
     11483      11485      1   0.018859   0.044953     2.60142e-01     2.09200e-02
     11483      11487      1   0.018859   0.758669     3.00055e-01     6.13495e-02
     11482      11486      1   0.018859   0.044953     2.60142e-01     2.09200e-02
     11482      11485      1   0.018859   0.044953     2.60142e-01     2.09200e-02
     11482      11487      1   0.018859   0.758669     3.00055e-01     6.13495e-02
     11480      11484      1   0.020431  -0.136833     3.00055e-01     6.91943e-02
     11480      11483      1   0.020431   0.015716     2.60142e-01     2.09200e-02
     11480      11482      1   0.020431   0.015716     2.60142e-01     2.09200e-02
     11479      11484      1   0.020431  -0.136833     3.00055e-01     6.91943e-02
     11479      11483      1   0.020431   0.015716     2.60142e-01     2.09200e-02
     11479      11482      1   0.020431   0.015716     2.60142e-01     2.09200e-02
     11478      11486      1  -0.026954   0.044953     3.00055e-01     6.91943e-02
     11478      11485      1  -0.026954   0.044953     3.00055e-01     6.91943e-02
     11477      11481      1   0.010573  -0.002029     3.00055e-01     6.91943e-02
     11477      11480      1   0.010573   0.017026     2.60142e-01     2.09200e-02
     11477      11479      1   0.010573   0.017026     2.60142e-01     2.09200e-02
     11476      11481      1   0.010573  -0.002029     3.00055e-01     6.91943e-02
     11476      11480      1   0.010573   0.017026     2.60142e-01     2.09200e-02
     11476      11479      1   0.010573   0.017026     2.60142e-01     2.09200e-02
     11475      11483      1  -0.016521   0.015716     3.00055e-01     6.91943e-02
     11475      11482      1  -0.016521   0.015716     3.00055e-01     6.91943e-02
     11474      11478      1   0.011511  -0.022462     3.00055e-01     6.91943e-02
     11474      11476      1   0.011511   0.008811     2.60142e-01     2.09200e-02
     11474      11477      1   0.011511   0.008811     2.60142e-01     2.09200e-02
     11473      11478      1   0.011511  -0.022462     3.00055e-01     6.91943e-02
     11473      11476      1   0.011511   0.008811     2.60142e-01     2.09200e-02
     11473      11477      1   0.011511   0.008811     2.60142e-01     2.09200e-02
     11472      11480      1  -0.027812   0.017026     3.00055e-01     6.91943e-02
     11472      11479      1  -0.027812   0.017026     3.00055e-01     6.91943e-02
     11471      11475      1   0.006833  -0.013767     3.00055e-01     6.91943e-02
     11471      11473      1   0.006833   0.009592     2.60142e-01     2.09200e-02
     11471      11474      1   0.006833   0.009592     2.60142e-01     2.09200e-02
     11470      11475      1   0.006833  -0.013767     3.00055e-01     6.91943e-02
     11470      11473      1   0.006833   0.009592     2.60142e-01     2.09200e-02
     11470      11474      1   0.006833   0.009592     2.60142e-01     2.09200e-02
     11469      11476      1  -0.004386   0.008811     3.00055e-01     6.91943e-02
     11469      11477      1  -0.004386   0.008811     3.00055e-01     6.91943e-02
     11468      11472      1   0.011241  -0.023177     3.00055e-01     6.91943e-02
     11468      11470      1   0.011241   0.005694     2.60142e-01     2.09200e-02
     11468      11471      1   0.011241   0.005694     2.60142e-01     2.09200e-02
     11467      11472      1   0.011241  -0.023177     3.00055e-01     6.91943e-02
     11467      11470      1   0.011241   0.005694     2.60142e-01     2.09200e-02
     11467      11471      1   0.011241   0.005694     2.60142e-01     2.09200e-02
     11466      11473      1  -0.026451   0.009592     3.00055e-01     6.91943e-02
     11466      11474      1  -0.026451   0.009592     3.00055e-01     6.91943e-02
     11465      11469      1   0.010172  -0.003655     3.00055e-01     6.91943e-02
     11465      11468      1   0.010172   0.009367     2.60142e-01     2.09200e-02
     11465      11467      1   0.010172   0.009367     2.60142e-01     2.09200e-02
     11464      11469      1   0.010172  -0.003655     3.00055e-01     6.91943e-02
     11464      11468      1   0.010172   0.009367     2.60142e-01     2.09200e-02
     11464      11467      1   0.010172   0.009367     2.60142e-01     2.09200e-02
     11463      11470      1  -0.014653   0.005694     3.00055e-01     6.91943e-02
     11463      11471      1  -0.014653   0.005694     3.00055e-01     6.91943e-02
     11462      11466      1   0.010037  -0.022042     3.00055e-01     6.91943e-02
     11462      11464      1   0.010037   0.008477     2.60142e-01     2.09200e-02
     11462      11465      1   0.010037   0.008477     2.60142e-01     2.09200e-02
     11461      11466      1   0.010037  -0.022042     3.00055e-01     6.91943e-02
     11461      11464      1   0.010037   0.008477     2.60142e-01     2.09200e-02
     11461      11465      1   0.010037   0.008477     2.60142e-01     2.09200e-02
     11460      11468      1  -0.021025   0.009367     3.00055e-01     6.91943e-02
     11460      11467      1  -0.021025   0.009367     3.00055e-01     6.91943e-02
     11459      11463      1   0.012677  -0.012211     3.00055e-01     6.91943e-02
     11459      11462      1   0.012677   0.008364     2.60142e-01     2.09200e-02
     11459      11461      1   0.012677   0.008364     2.60142e-01     2.09200e-02
     11458      11463      1   0.012677  -0.012211     3.00055e-01     6.91943e-02
     11458      11462      1   0.012677   0.008364     2.60142e-01     2.09200e-02
     11458      11461      1   0.012677   0.008364     2.60142e-01     2.09200e-02
     11457      11464      1  -0.031787   0.008477     3.00055e-01     6.91943e-02
     11457      11465      1  -0.031787   0.008477     3.00055e-01     6.91943e-02
     11456      11460      1   0.017208  -0.017521     3.00055e-01     6.91943e-02
     11456      11458      1   0.017208   0.010564     2.60142e-01     2.09200e-02
     11456      11459      1   0.017208   0.010564     2.60142e-01     2.09200e-02
     11455      11460      1   0.017208  -0.017521     3.00055e-01     6.91943e-02
     11455      11458      1   0.017208   0.010564     2.60142e-01     2.09200e-02
     11455      11459      1   0.017208   0.010564     2.60142e-01     2.09200e-02
     11454      11462      1  -0.028094   0.008364     3.00055e-01     6.91943e-02
     11454      11461      1  -0.028094   0.008364     3.00055e-01     6.91943e-02
     11453      11457      1   0.007531  -0.026489     3.00055e-01     6.91943e-02
     11453      11456      1   0.007531   0.014340     2.60142e-01     2.09200e-02
     11453      11455      1   0.007531   0.014340     2.60142e-01     2.09200e-02
     11452      11457      1   0.007531  -0.026489     3.00055e-01     6.91943e-02
     11452      11456      1   0.007531   0.014340     2.60142e-01     2.09200e-02
     11452      11455      1   0.007531   0.014340     2.60142e-01     2.09200e-02
     11451      11458      1   0.017463   0.010564     3.00055e-01     6.91943e-02
     11451      11459      1   0.017463   0.010564     3.00055e-01     6.91943e-02
     11450      11454      1   0.025511  -0.023412     3.00055e-01     6.91943e-02
     11450      11452      1   0.025511   0.006276     2.60142e-01     2.09200e-02
     11450      11453      1   0.025511   0.006276     2.60142e-01     2.09200e-02
     11449      11454      1   0.025511  -0.023412     3.00055e-01     6.91943e-02
     11449      11452      1   0.025511   0.006276     2.60142e-01     2.09200e-02
     11449      11453      1   0.025511   0.006276     2.60142e-01     2.09200e-02
     11448      11456      1  -0.111712   0.014340     3.00055e-01     6.91943e-02
     11448      11455      1  -0.111712   0.014340     3.00055e-01     6.91943e-02
     11447      11454      1   0.025511  -0.023412     3.00055e-01     6.91943e-02
     11447      11452      1   0.025511   0.006276     2.60142e-01     2.09200e-02
     11447      11453      1   0.025511   0.006276     2.60142e-01     2.09200e-02
     11524      11564      1  -0.673755   0.044953     2.78067e-01     9.58675e-02
     11524      11563      1  -0.673755   0.044953     2.78067e-01     9.58675e-02
     11523      11561      1   0.897613   0.015716     3.00055e-01     6.13495e-02
     11523      11560      1   0.897613   0.015716     3.00055e-01     6.13495e-02
     11522      11564      1  -0.552948   0.044953     2.80072e-01     8.62554e-02
     11522      11563      1  -0.552948   0.044953     2.80072e-01     8.62554e-02
     11515      11516      1   0.172230  -0.282478     2.67982e-01     8.67002e-02
     11514      11516      1   0.172230  -0.282478     2.67982e-01     8.67002e-02
     11513      11516      1   0.172230  -0.282478     2.67982e-01     8.67002e-02
     11512      11517      1  -0.338973   0.143525     2.67982e-01     8.67002e-02
     11512      11518      1  -0.338973   0.143525     2.67982e-01     8.67002e-02
     11512      11519      1  -0.338973   0.143525     2.67982e-01     8.67002e-02
     11511      11512      1   0.172230  -0.282478     2.67982e-01     8.67002e-02
     11511      11516      1   0.172230  -0.282478     2.67982e-01     8.67002e-02
     11510      11512      1   0.172230  -0.282478     2.67982e-01     8.67002e-02
     11510      11516      1   0.172230  -0.282478     2.67982e-01     8.67002e-02
     11509      11512      1   0.172230  -0.282478     2.67982e-01     8.67002e-02
     11509      11516      1   0.172230  -0.282478     2.67982e-01     8.67002e-02
     11508      11513      1  -0.338973   0.143525     2.67982e-01     8.67002e-02
     11508      11514      1  -0.338973   0.143525     2.67982e-01     8.67002e-02
     11508      11515      1  -0.338973   0.143525     2.67982e-01     8.67002e-02
     11508      11517      1  -0.338973   0.143525     2.67982e-01     8.67002e-02
     11508      11518      1  -0.338973   0.143525     2.67982e-01     8.67002e-02
     11508      11519      1  -0.338973   0.143525     2.67982e-01     8.67002e-02
     11506      11508      1   0.136415  -0.282478     2.67982e-01     8.67002e-02
     11506      11512      1   0.136415  -0.282478     2.67982e-01     8.67002e-02
     11506      11516      1   0.136415  -0.282478     2.67982e-01     8.67002e-02
     11505      11508      1   0.136415  -0.282478     2.67982e-01     8.67002e-02
     11505      11512      1   0.136415  -0.282478     2.67982e-01     8.67002e-02
     11505      11516      1   0.136415  -0.282478     2.67982e-01     8.67002e-02
     11504      11509      1  -0.170824   0.143525     2.67982e-01     8.67002e-02
     11504      11510      1  -0.170824   0.143525     2.67982e-01     8.67002e-02
     11504      11511      1  -0.170824   0.143525     2.67982e-01     8.67002e-02
     11504      11513      1  -0.170824   0.143525     2.67982e-01     8.67002e-02
     11504      11514      1  -0.170824   0.143525     2.67982e-01     8.67002e-02
     11504      11515      1  -0.170824   0.143525     2.67982e-01     8.67002e-02
     11504      11517      1  -0.170824   0.143525     2.67982e-01     8.67002e-02
     11504      11518      1  -0.170824   0.143525     2.67982e-01     8.67002e-02
     11504      11519      1  -0.170824   0.143525     2.67982e-01     8.67002e-02
     11503      11505      1   0.078534   0.113679     2.21567e-01     3.28444e-02
     11503      11506      1   0.078534   0.113679     2.21567e-01     3.28444e-02
     11503      11507      1   0.078534   0.204385     2.86068e-01     1.08078e-01
     11502      11505      1   0.078534   0.113679     2.21567e-01     3.28444e-02
     11502      11506      1   0.078534   0.113679     2.21567e-01     3.28444e-02
     11502      11507      1   0.078534   0.204385     2.86068e-01     1.08078e-01
     11500      11505      1  -0.508176   0.113679     2.47999e-01     1.08078e-01
     11500      11506      1  -0.508176   0.113679     2.47999e-01     1.08078e-01
     11499      11502      1   1.339721   0.065445     3.10656e-01     1.17227e-01
     11499      11503      1   1.339721   0.065445     3.10656e-01     1.17227e-01
     11497      11522      1   0.095591  -0.460790     2.73568e-01     1.08078e-01
     11497      11499      1   0.095591   1.116434     3.10656e-01     1.17227e-01
     11496      11522      1   0.095591  -0.460790     2.73568e-01     1.08078e-01
     11496      11499      1   0.095591   1.116434     3.10656e-01     1.17227e-01
     11494      11496      1   0.063253   0.079659     2.47135e-01     3.28444e-02
     11494      11497      1   0.063253   0.079659     2.47135e-01     3.28444e-02
     11494      11498      1   0.063253  -0.424567     2.73568e-01     1.08078e-01
     11494      11523      1   0.063253   0.748011     2.93551e-01     7.68707e-02
     11492      11494      1   0.070469   0.052711     2.47135e-01     3.28444e-02
     11492      11495      1   0.070469   0.014549     2.93551e-01     8.67002e-02
     11492      11522      1   0.070469  -0.460790     2.73568e-01     1.08078e-01
     11491      11494      1   0.070469   0.052711     2.47135e-01     3.28444e-02
     11491      11495      1   0.070469   0.014549     2.93551e-01     8.67002e-02
     11491      11522      1   0.070469  -0.460790     2.73568e-01     1.08078e-01
     11490      11496      1   0.196939   0.079659     2.93551e-01     8.67002e-02
     11490      11497      1   0.196939   0.079659     2.93551e-01     8.67002e-02
     11489      11494      1  -0.575489   0.052711     2.73568e-01     1.08078e-01
     11487      11491      1   0.910403   0.058724     2.93551e-01     7.68707e-02
     11487      11492      1   0.910403   0.058724     2.93551e-01     7.68707e-02
     11561      11564      1   0.018859   0.044953     2.60142e-01     2.09200e-02
     11561      11563      1   0.018859   0.044953     2.60142e-01     2.09200e-02
     11560      11564      1   0.018859   0.044953     2.60142e-01     2.09200e-02
     11560      11563      1   0.018859   0.044953     2.60142e-01     2.09200e-02
     11558      11562      1   0.020431  -0.136833     3.00055e-01     6.91943e-02
     11558      11561      1   0.020431   0.015716     2.60142e-01     2.09200e-02
     11558      11560      1   0.020431   0.015716     2.60142e-01     2.09200e-02
     11557      11562      1   0.020431  -0.136833     3.00055e-01     6.91943e-02
     11557      11561      1   0.020431   0.015716     2.60142e-01     2.09200e-02
     11557      11560      1   0.020431   0.015716     2.60142e-01     2.09200e-02
     11556      11564      1  -0.026954   0.044953     3.00055e-01     6.91943e-02
     11556      11563      1  -0.026954   0.044953     3.00055e-01     6.91943e-02
     11555      11559      1   0.010573  -0.002029     3.00055e-01     6.91943e-02
     11555      11558      1   0.010573   0.017026     2.60142e-01     2.09200e-02
     11555      11557      1   0.010573   0.017026     2.60142e-01     2.09200e-02
     11554      11559      1   0.010573  -0.002029     3.00055e-01     6.91943e-02
     11554      11558      1   0.010573   0.017026     2.60142e-01     2.09200e-02
     11554      11557      1   0.010573   0.017026     2.60142e-01     2.09200e-02
     11553      11561      1  -0.016521   0.015716     3.00055e-01     6.91943e-02
     11553      11560      1  -0.016521   0.015716     3.00055e-01     6.91943e-02
     11552      11556      1   0.011511  -0.022462     3.00055e-01     6.91943e-02
     11552      11554      1   0.011511   0.008811     2.60142e-01     2.09200e-02
     11552      11555      1   0.011511   0.008811     2.60142e-01     2.09200e-02
     11551      11556      1   0.011511  -0.022462     3.00055e-01     6.91943e-02
     11551      11554      1   0.011511   0.008811     2.60142e-01     2.09200e-02
     11551      11555      1   0.011511   0.008811     2.60142e-01     2.09200e-02
     11550      11558      1  -0.027812   0.017026     3.00055e-01     6.91943e-02
     11550      11557      1  -0.027812   0.017026     3.00055e-01     6.91943e-02
     11549      11553      1   0.006833  -0.013767     3.00055e-01     6.91943e-02
     11549      11551      1   0.006833   0.009592     2.60142e-01     2.09200e-02
     11549      11552      1   0.006833   0.009592     2.60142e-01     2.09200e-02
     11548      11553      1   0.006833  -0.013767     3.00055e-01     6.91943e-02
     11548      11551      1   0.006833   0.009592     2.60142e-01     2.09200e-02
     11548      11552      1   0.006833   0.009592     2.60142e-01     2.09200e-02
     11547      11554      1  -0.004386   0.008811     3.00055e-01     6.91943e-02
     11547      11555      1  -0.004386   0.008811     3.00055e-01     6.91943e-02
     11546      11550      1   0.011241  -0.023177     3.00055e-01     6.91943e-02
     11546      11548      1   0.011241   0.005694     2.60142e-01     2.09200e-02
     11546      11549      1   0.011241   0.005694     2.60142e-01     2.09200e-02
     11545      11550      1   0.011241  -0.023177     3.00055e-01     6.91943e-02
     11545      11548      1   0.011241   0.005694     2.60142e-01     2.09200e-02
     11545      11549      1   0.011241   0.005694     2.60142e-01     2.09200e-02
     11544      11551      1  -0.026451   0.009592     3.00055e-01     6.91943e-02
     11544      11552      1  -0.026451   0.009592     3.00055e-01     6.91943e-02
     11543      11547      1   0.010172  -0.003655     3.00055e-01     6.91943e-02
     11543      11546      1   0.010172   0.009367     2.60142e-01     2.09200e-02
     11543      11545      1   0.010172   0.009367     2.60142e-01     2.09200e-02
     11542      11547      1   0.010172  -0.003655     3.00055e-01     6.91943e-02
     11542      11546      1   0.010172   0.009367     2.60142e-01     2.09200e-02
     11542      11545      1   0.010172   0.009367     2.60142e-01     2.09200e-02
     11541      11548      1  -0.014653   0.005694     3.00055e-01     6.91943e-02
     11541      11549      1  -0.014653   0.005694     3.00055e-01     6.91943e-02
     11540      11544      1   0.010037  -0.022042     3.00055e-01     6.91943e-02
     11540      11542      1   0.010037   0.008477     2.60142e-01     2.09200e-02
     11540      11543      1   0.010037   0.008477     2.60142e-01     2.09200e-02
     11539      11544      1   0.010037  -0.022042     3.00055e-01     6.91943e-02
     11539      11542      1   0.010037   0.008477     2.60142e-01     2.09200e-02
     11539      11543      1   0.010037   0.008477     2.60142e-01     2.09200e-02
     11538      11546      1  -0.021025   0.009367     3.00055e-01     6.91943e-02
     11538      11545      1  -0.021025   0.009367     3.00055e-01     6.91943e-02
     11537      11541      1   0.012677  -0.012211     3.00055e-01     6.91943e-02
     11537      11540      1   0.012677   0.008364     2.60142e-01     2.09200e-02
     11537      11539      1   0.012677   0.008364     2.60142e-01     2.09200e-02
     11536      11541      1   0.012677  -0.012211     3.00055e-01     6.91943e-02
     11536      11540      1   0.012677   0.008364     2.60142e-01     2.09200e-02
     11536      11539      1   0.012677   0.008364     2.60142e-01     2.09200e-02
     11535      11542      1  -0.031787   0.008477     3.00055e-01     6.91943e-02
     11535      11543      1  -0.031787   0.008477     3.00055e-01     6.91943e-02
     11534      11538      1   0.017208  -0.017521     3.00055e-01     6.91943e-02
     11534      11536      1   0.017208   0.010564     2.60142e-01     2.09200e-02
     11534      11537      1   0.017208   0.010564     2.60142e-01     2.09200e-02
     11533      11538      1   0.017208  -0.017521     3.00055e-01     6.91943e-02
     11533      11536      1   0.017208   0.010564     2.60142e-01     2.09200e-02
     11533      11537      1   0.017208   0.010564     2.60142e-01     2.09200e-02
     11532      11540      1  -0.028094   0.008364     3.00055e-01     6.91943e-02
     11532      11539      1  -0.028094   0.008364     3.00055e-01     6.91943e-02
     11531      11535      1   0.007531  -0.026489     3.00055e-01     6.91943e-02
     11531      11534      1   0.007531   0.014340     2.60142e-01     2.09200e-02
     11531      11533      1   0.007531   0.014340     2.60142e-01     2.09200e-02
     11530      11535      1   0.007531  -0.026489     3.00055e-01     6.91943e-02
     11530      11534      1   0.007531   0.014340     2.60142e-01     2.09200e-02
     11530      11533      1   0.007531   0.014340     2.60142e-01     2.09200e-02
     11529      11536      1   0.017463   0.010564     3.00055e-01     6.91943e-02
     11529      11537      1   0.017463   0.010564     3.00055e-01     6.91943e-02
     11528      11532      1   0.025511  -0.023412     3.00055e-01     6.91943e-02
     11528      11530      1   0.025511   0.006276     2.60142e-01     2.09200e-02
     11528      11531      1   0.025511   0.006276     2.60142e-01     2.09200e-02
     11527      11532      1   0.025511  -0.023412     3.00055e-01     6.91943e-02
     11527      11530      1   0.025511   0.006276     2.60142e-01     2.09200e-02
     11527      11531      1   0.025511   0.006276     2.60142e-01     2.09200e-02
     11526      11534      1  -0.111712   0.014340     3.00055e-01     6.91943e-02
     11526      11533      1  -0.111712   0.014340     3.00055e-01     6.91943e-02
     11525      11532      1   0.025511  -0.023412     3.00055e-01     6.91943e-02
     11525      11530      1   0.025511   0.006276     2.60142e-01     2.09200e-02
     11525      11531      1   0.025511   0.006276     2.60142e-01     2.09200e-02
     11604      11606      1   0.053944  -0.559638     2.78067e-01     9.58675e-02
     11604      11607      1   0.053944  -0.479574     2.80072e-01     8.62554e-02
     11603      11606      1   0.053944  -0.559638     2.78067e-01     9.58675e-02
     11603      11607      1   0.053944  -0.479574     2.80072e-01     8.62554e-02
     11601      11604      1   0.018859   0.044953     2.60142e-01     2.09200e-02
     11601      11603      1   0.018859   0.044953     2.60142e-01     2.09200e-02
     11601      11605      1   0.018859   0.758669     3.00055e-01     6.13495e-02
     11600      11604      1   0.018859   0.044953     2.60142e-01     2.09200e-02
     11600      11603      1   0.018859   0.044953     2.60142e-01     2.09200e-02
     11600      11605      1   0.018859   0.758669     3.00055e-01     6.13495e-02
     11598      11602      1   0.020431  -0.136833     3.00055e-01     6.91943e-02
     11598      11601      1   0.020431   0.015716     2.60142e-01     2.09200e-02
     11598      11600      1   0.020431   0.015716     2.60142e-01     2.09200e-02
     11597      11602      1   0.020431  -0.136833     3.00055e-01     6.91943e-02
     11597      11601      1   0.020431   0.015716     2.60142e-01     2.09200e-02
     11597      11600      1   0.020431   0.015716     2.60142e-01     2.09200e-02
     11596      11604      1  -0.026954   0.044953     3.00055e-01     6.91943e-02
     11596      11603      1  -0.026954   0.044953     3.00055e-01     6.91943e-02
     11595      11599      1   0.010573  -0.002029     3.00055e-01     6.91943e-02
     11595      11598      1   0.010573   0.017026     2.60142e-01     2.09200e-02
     11595      11597      1   0.010573   0.017026     2.60142e-01     2.09200e-02
     11594      11599      1   0.010573  -0.002029     3.00055e-01     6.91943e-02
     11594      11598      1   0.010573   0.017026     2.60142e-01     2.09200e-02
     11594      11597      1   0.010573   0.017026     2.60142e-01     2.09200e-02
     11593      11601      1  -0.016521   0.015716     3.00055e-01     6.91943e-02
     11593      11600      1  -0.016521   0.015716     3.00055e-01     6.91943e-02
     11592      11596      1   0.011511  -0.022462     3.00055e-01     6.91943e-02
     11592      11594      1   0.011511   0.008811     2.60142e-01     2.09200e-02
     11592      11595      1   0.011511   0.008811     2.60142e-01     2.09200e-02
     11591      11596      1   0.011511  -0.022462     3.00055e-01     6.91943e-02
     11591      11594      1   0.011511   0.008811     2.60142e-01     2.09200e-02
     11591      11595      1   0.011511   0.008811     2.60142e-01     2.09200e-02
     11590      11598      1  -0.027812   0.017026     3.00055e-01     6.91943e-02
     11590      11597      1  -0.027812   0.017026     3.00055e-01     6.91943e-02
     11589      11593      1   0.006833  -0.013767     3.00055e-01     6.91943e-02
     11589      11591      1   0.006833   0.009592     2.60142e-01     2.09200e-02
     11589      11592      1   0.006833   0.009592     2.60142e-01     2.09200e-02
     11588      11593      1   0.006833  -0.013767     3.00055e-01     6.91943e-02
     11588      11591      1   0.006833   0.009592     2.60142e-01     2.09200e-02
     11588      11592      1   0.006833   0.009592     2.60142e-01     2.09200e-02
     11587      11594      1  -0.004386   0.008811     3.00055e-01     6.91943e-02
     11587      11595      1  -0.004386   0.008811     3.00055e-01     6.91943e-02
     11586      11590      1   0.011241  -0.023177     3.00055e-01     6.91943e-02
     11586      11588      1   0.011241   0.005694     2.60142e-01     2.09200e-02
     11586      11589      1   0.011241   0.005694     2.60142e-01     2.09200e-02
     11585      11590      1   0.011241  -0.023177     3.00055e-01     6.91943e-02
     11585      11588      1   0.011241   0.005694     2.60142e-01     2.09200e-02
     11585      11589      1   0.011241   0.005694     2.60142e-01     2.09200e-02
     11584      11591      1  -0.026451   0.009592     3.00055e-01     6.91943e-02
     11584      11592      1  -0.026451   0.009592     3.00055e-01     6.91943e-02
     11583      11587      1   0.010172  -0.003655     3.00055e-01     6.91943e-02
     11583      11586      1   0.010172   0.009367     2.60142e-01     2.09200e-02
     11583      11585      1   0.010172   0.009367     2.60142e-01     2.09200e-02
     11582      11587      1   0.010172  -0.003655     3.00055e-01     6.91943e-02
     11582      11586      1   0.010172   0.009367     2.60142e-01     2.09200e-02
     11582      11585      1   0.010172   0.009367     2.60142e-01     2.09200e-02
     11581      11588      1  -0.014653   0.005694     3.00055e-01     6.91943e-02
     11581      11589      1  -0.014653   0.005694     3.00055e-01     6.91943e-02
     11580      11584      1   0.010037  -0.022042     3.00055e-01     6.91943e-02
     11580      11582      1   0.010037   0.008477     2.60142e-01     2.09200e-02
     11580      11583      1   0.010037   0.008477     2.60142e-01     2.09200e-02
     11579      11584      1   0.010037  -0.022042     3.00055e-01     6.91943e-02
     11579      11582      1   0.010037   0.008477     2.60142e-01     2.09200e-02
     11579      11583      1   0.010037   0.008477     2.60142e-01     2.09200e-02
     11578      11586      1  -0.021025   0.009367     3.00055e-01     6.91943e-02
     11578      11585      1  -0.021025   0.009367     3.00055e-01     6.91943e-02
     11577      11581      1   0.012677  -0.012211     3.00055e-01     6.91943e-02
     11577      11580      1   0.012677   0.008364     2.60142e-01     2.09200e-02
     11577      11579      1   0.012677   0.008364     2.60142e-01     2.09200e-02
     11576      11581      1   0.012677  -0.012211     3.00055e-01     6.91943e-02
     11576      11580      1   0.012677   0.008364     2.60142e-01     2.09200e-02
     11576      11579      1   0.012677   0.008364     2.60142e-01     2.09200e-02
     11575      11582      1  -0.031787   0.008477     3.00055e-01     6.91943e-02
     11575      11583      1  -0.031787   0.008477     3.00055e-01     6.91943e-02
     11574      11578      1   0.017208  -0.017521     3.00055e-01     6.91943e-02
     11574      11576      1   0.017208   0.010564     2.60142e-01     2.09200e-02
     11574      11577      1   0.017208   0.010564     2.60142e-01     2.09200e-02
     11573      11578      1   0.017208  -0.017521     3.00055e-01     6.91943e-02
     11573      11576      1   0.017208   0.010564     2.60142e-01     2.09200e-02
     11573      11577      1   0.017208   0.010564     2.60142e-01     2.09200e-02
     11572      11580      1  -0.028094   0.008364     3.00055e-01     6.91943e-02
     11572      11579      1  -0.028094   0.008364     3.00055e-01     6.91943e-02
     11571      11575      1   0.007531  -0.026489     3.00055e-01     6.91943e-02
     11571      11574      1   0.007531   0.014340     2.60142e-01     2.09200e-02
     11571      11573      1   0.007531   0.014340     2.60142e-01     2.09200e-02
     11570      11575      1   0.007531  -0.026489     3.00055e-01     6.91943e-02
     11570      11574      1   0.007531   0.014340     2.60142e-01     2.09200e-02
     11570      11573      1   0.007531   0.014340     2.60142e-01     2.09200e-02
     11569      11576      1   0.017463   0.010564     3.00055e-01     6.91943e-02
     11569      11577      1   0.017463   0.010564     3.00055e-01     6.91943e-02
     11568      11572      1   0.025511  -0.023412     3.00055e-01     6.91943e-02
     11568      11570      1   0.025511   0.006276     2.60142e-01     2.09200e-02
     11568      11571      1   0.025511   0.006276     2.60142e-01     2.09200e-02
     11567      11572      1   0.025511  -0.023412     3.00055e-01     6.91943e-02
     11567      11570      1   0.025511   0.006276     2.60142e-01     2.09200e-02
     11567      11571      1   0.025511   0.006276     2.60142e-01     2.09200e-02
     11566      11574      1  -0.111712   0.014340     3.00055e-01     6.91943e-02
     11566      11573      1  -0.111712   0.014340     3.00055e-01     6.91943e-02
     11565      11572      1   0.025511  -0.023412     3.00055e-01     6.91943e-02
     11565      11570      1   0.025511   0.006276     2.60142e-01     2.09200e-02
     11565      11571      1   0.025511   0.006276     2.60142e-01     2.09200e-02
     11642      11682      1  -0.673755   0.044953     2.78067e-01     9.58675e-02
     11642      11681      1  -0.673755   0.044953     2.78067e-01     9.58675e-02
     11641      11679      1   0.897613   0.015716     3.00055e-01     6.13495e-02
     11641      11678      1   0.897613   0.015716     3.00055e-01     6.13495e-02
     11640      11682      1  -0.552948   0.044953     2.80072e-01     8.62554e-02
     11640      11681      1  -0.552948   0.044953     2.80072e-01     8.62554e-02
     11633      11634      1   0.172230  -0.282478     2.67982e-01     8.67002e-02
     11632      11634      1   0.172230  -0.282478     2.67982e-01     8.67002e-02
     11631      11634      1   0.172230  -0.282478     2.67982e-01     8.67002e-02
     11630      11635      1  -0.338973   0.143525     2.67982e-01     8.67002e-02
     11630      11636      1  -0.338973   0.143525     2.67982e-01     8.67002e-02
     11630      11637      1  -0.338973   0.143525     2.67982e-01     8.67002e-02
     11629      11630      1   0.172230  -0.282478     2.67982e-01     8.67002e-02
     11629      11634      1   0.172230  -0.282478     2.67982e-01     8.67002e-02
     11628      11630      1   0.172230  -0.282478     2.67982e-01     8.67002e-02
     11628      11634      1   0.172230  -0.282478     2.67982e-01     8.67002e-02
     11627      11630      1   0.172230  -0.282478     2.67982e-01     8.67002e-02
     11627      11634      1   0.172230  -0.282478     2.67982e-01     8.67002e-02
     11626      11631      1  -0.338973   0.143525     2.67982e-01     8.67002e-02
     11626      11632      1  -0.338973   0.143525     2.67982e-01     8.67002e-02
     11626      11633      1  -0.338973   0.143525     2.67982e-01     8.67002e-02
     11626      11635      1  -0.338973   0.143525     2.67982e-01     8.67002e-02
     11626      11636      1  -0.338973   0.143525     2.67982e-01     8.67002e-02
     11626      11637      1  -0.338973   0.143525     2.67982e-01     8.67002e-02
     11624      11626      1   0.136415  -0.282478     2.67982e-01     8.67002e-02
     11624      11630      1   0.136415  -0.282478     2.67982e-01     8.67002e-02
     11624      11634      1   0.136415  -0.282478     2.67982e-01     8.67002e-02
     11623      11626      1   0.136415  -0.282478     2.67982e-01     8.67002e-02
     11623      11630      1   0.136415  -0.282478     2.67982e-01     8.67002e-02
     11623      11634      1   0.136415  -0.282478     2.67982e-01     8.67002e-02
     11622      11627      1  -0.170824   0.143525     2.67982e-01     8.67002e-02
     11622      11628      1  -0.170824   0.143525     2.67982e-01     8.67002e-02
     11622      11629      1  -0.170824   0.143525     2.67982e-01     8.67002e-02
     11622      11631      1  -0.170824   0.143525     2.67982e-01     8.67002e-02
     11622      11632      1  -0.170824   0.143525     2.67982e-01     8.67002e-02
     11622      11633      1  -0.170824   0.143525     2.67982e-01     8.67002e-02
     11622      11635      1  -0.170824   0.143525     2.67982e-01     8.67002e-02
     11622      11636      1  -0.170824   0.143525     2.67982e-01     8.67002e-02
     11622      11637      1  -0.170824   0.143525     2.67982e-01     8.67002e-02
     11621      11623      1   0.078534   0.113679     2.21567e-01     3.28444e-02
     11621      11624      1   0.078534   0.113679     2.21567e-01     3.28444e-02
     11621      11625      1   0.078534   0.204385     2.86068e-01     1.08078e-01
     11620      11623      1   0.078534   0.113679     2.21567e-01     3.28444e-02
     11620      11624      1   0.078534   0.113679     2.21567e-01     3.28444e-02
     11620      11625      1   0.078534   0.204385     2.86068e-01     1.08078e-01
     11618      11623      1  -0.508176   0.113679     2.47999e-01     1.08078e-01
     11618      11624      1  -0.508176   0.113679     2.47999e-01     1.08078e-01
     11617      11620      1   1.339721   0.065445     3.10656e-01     1.17227e-01
     11617      11621      1   1.339721   0.065445     3.10656e-01     1.17227e-01
     11615      11640      1   0.095591  -0.460790     2.73568e-01     1.08078e-01
     11615      11617      1   0.095591   1.116434     3.10656e-01     1.17227e-01
     11614      11640      1   0.095591  -0.460790     2.73568e-01     1.08078e-01
     11614      11617      1   0.095591   1.116434     3.10656e-01     1.17227e-01
     11612      11614      1   0.063253   0.079659     2.47135e-01     3.28444e-02
     11612      11615      1   0.063253   0.079659     2.47135e-01     3.28444e-02
     11612      11616      1   0.063253  -0.424567     2.73568e-01     1.08078e-01
     11612      11641      1   0.063253   0.748011     2.93551e-01     7.68707e-02
     11610      11612      1   0.070469   0.052711     2.47135e-01     3.28444e-02
     11610      11613      1   0.070469   0.014549     2.93551e-01     8.67002e-02
     11610      11640      1   0.070469  -0.460790     2.73568e-01     1.08078e-01
     11609      11612      1   0.070469   0.052711     2.47135e-01     3.28444e-02
     11609      11613      1   0.070469   0.014549     2.93551e-01     8.67002e-02
     11609      11640      1   0.070469  -0.460790     2.73568e-01     1.08078e-01
     11608      11614      1   0.196939   0.079659     2.93551e-01     8.67002e-02
     11608      11615      1   0.196939   0.079659     2.93551e-01     8.67002e-02
     11607      11612      1  -0.575489   0.052711     2.73568e-01     1.08078e-01
     11605      11609      1   0.910403   0.058724     2.93551e-01     7.68707e-02
     11605      11610      1   0.910403   0.058724     2.93551e-01     7.68707e-02
     11679      11682      1   0.018859   0.044953     2.60142e-01     2.09200e-02
     11679      11681      1   0.018859   0.044953     2.60142e-01     2.09200e-02
     11678      11682      1   0.018859   0.044953     2.60142e-01     2.09200e-02
     11678      11681      1   0.018859   0.044953     2.60142e-01     2.09200e-02
     11676      11680      1   0.020431  -0.136833     3.00055e-01     6.91943e-02
     11676      11679      1   0.020431   0.015716     2.60142e-01     2.09200e-02
     11676      11678      1   0.020431   0.015716     2.60142e-01     2.09200e-02
     11675      11680      1   0.020431  -0.136833     3.00055e-01     6.91943e-02
     11675      11679      1   0.020431   0.015716     2.60142e-01     2.09200e-02
     11675      11678      1   0.020431   0.015716     2.60142e-01     2.09200e-02
     11674      11682      1  -0.026954   0.044953     3.00055e-01     6.91943e-02
     11674      11681      1  -0.026954   0.044953     3.00055e-01     6.91943e-02
     11673      11677      1   0.010573  -0.002029     3.00055e-01     6.91943e-02
     11673      11676      1   0.010573   0.017026     2.60142e-01     2.09200e-02
     11673      11675      1   0.010573   0.017026     2.60142e-01     2.09200e-02
     11672      11677      1   0.010573  -0.002029     3.00055e-01     6.91943e-02
     11672      11676      1   0.010573   0.017026     2.60142e-01     2.09200e-02
     11672      11675      1   0.010573   0.017026     2.60142e-01     2.09200e-02
     11671      11679      1  -0.016521   0.015716     3.00055e-01     6.91943e-02
     11671      11678      1  -0.016521   0.015716     3.00055e-01     6.91943e-02
     11670      11674      1   0.011511  -0.022462     3.00055e-01     6.91943e-02
     11670      11672      1   0.011511   0.008811     2.60142e-01     2.09200e-02
     11670      11673      1   0.011511   0.008811     2.60142e-01     2.09200e-02
     11669      11674      1   0.011511  -0.022462     3.00055e-01     6.91943e-02
     11669      11672      1   0.011511   0.008811     2.60142e-01     2.09200e-02
     11669      11673      1   0.011511   0.008811     2.60142e-01     2.09200e-02
     11668      11676      1  -0.027812   0.017026     3.00055e-01     6.91943e-02
     11668      11675      1  -0.027812   0.017026     3.00055e-01     6.91943e-02
     11667      11671      1   0.006833  -0.013767     3.00055e-01     6.91943e-02
     11667      11669      1   0.006833   0.009592     2.60142e-01     2.09200e-02
     11667      11670      1   0.006833   0.009592     2.60142e-01     2.09200e-02
     11666      11671      1   0.006833  -0.013767     3.00055e-01     6.91943e-02
     11666      11669      1   0.006833   0.009592     2.60142e-01     2.09200e-02
     11666      11670      1   0.006833   0.009592     2.60142e-01     2.09200e-02
     11665      11672      1  -0.004386   0.008811     3.00055e-01     6.91943e-02
     11665      11673      1  -0.004386   0.008811     3.00055e-01     6.91943e-02
     11664      11668      1   0.011241  -0.023177     3.00055e-01     6.91943e-02
     11664      11666      1   0.011241   0.005694     2.60142e-01     2.09200e-02
     11664      11667      1   0.011241   0.005694     2.60142e-01     2.09200e-02
     11663      11668      1   0.011241  -0.023177     3.00055e-01     6.91943e-02
     11663      11666      1   0.011241   0.005694     2.60142e-01     2.09200e-02
     11663      11667      1   0.011241   0.005694     2.60142e-01     2.09200e-02
     11662      11669      1  -0.026451   0.009592     3.00055e-01     6.91943e-02
     11662      11670      1  -0.026451   0.009592     3.00055e-01     6.91943e-02
     11661      11665      1   0.010172  -0.003655     3.00055e-01     6.91943e-02
     11661      11664      1   0.010172   0.009367     2.60142e-01     2.09200e-02
     11661      11663      1   0.010172   0.009367     2.60142e-01     2.09200e-02
     11660      11665      1   0.010172  -0.003655     3.00055e-01     6.91943e-02
     11660      11664      1   0.010172   0.009367     2.60142e-01     2.09200e-02
     11660      11663      1   0.010172   0.009367     2.60142e-01     2.09200e-02
     11659      11666      1  -0.014653   0.005694     3.00055e-01     6.91943e-02
     11659      11667      1  -0.014653   0.005694     3.00055e-01     6.91943e-02
     11658      11662      1   0.010037  -0.022042     3.00055e-01     6.91943e-02
     11658      11660      1   0.010037   0.008477     2.60142e-01     2.09200e-02
     11658      11661      1   0.010037   0.008477     2.60142e-01     2.09200e-02
     11657      11662      1   0.010037  -0.022042     3.00055e-01     6.91943e-02
     11657      11660      1   0.010037   0.008477     2.60142e-01     2.09200e-02
     11657      11661      1   0.010037   0.008477     2.60142e-01     2.09200e-02
     11656      11664      1  -0.021025   0.009367     3.00055e-01     6.91943e-02
     11656      11663      1  -0.021025   0.009367     3.00055e-01     6.91943e-02
     11655      11659      1   0.012677  -0.012211     3.00055e-01     6.91943e-02
     11655      11658      1   0.012677   0.008364     2.60142e-01     2.09200e-02
     11655      11657      1   0.012677   0.008364     2.60142e-01     2.09200e-02
     11654      11659      1   0.012677  -0.012211     3.00055e-01     6.91943e-02
     11654      11658      1   0.012677   0.008364     2.60142e-01     2.09200e-02
     11654      11657      1   0.012677   0.008364     2.60142e-01     2.09200e-02
     11653      11660      1  -0.031787   0.008477     3.00055e-01     6.91943e-02
     11653      11661      1  -0.031787   0.008477     3.00055e-01     6.91943e-02
     11652      11656      1   0.017208  -0.017521     3.00055e-01     6.91943e-02
     11652      11654      1   0.017208   0.010564     2.60142e-01     2.09200e-02
     11652      11655      1   0.017208   0.010564     2.60142e-01     2.09200e-02
     11651      11656      1   0.017208  -0.017521     3.00055e-01     6.91943e-02
     11651      11654      1   0.017208   0.010564     2.60142e-01     2.09200e-02
     11651      11655      1   0.017208   0.010564     2.60142e-01     2.09200e-02
     11650      11658      1  -0.028094   0.008364     3.00055e-01     6.91943e-02
     11650      11657      1  -0.028094   0.008364     3.00055e-01     6.91943e-02
     11649      11653      1   0.007531  -0.026489     3.00055e-01     6.91943e-02
     11649      11652      1   0.007531   0.014340     2.60142e-01     2.09200e-02
     11649      11651      1   0.007531   0.014340     2.60142e-01     2.09200e-02
     11648      11653      1   0.007531  -0.026489     3.00055e-01     6.91943e-02
     11648      11652      1   0.007531   0.014340     2.60142e-01     2.09200e-02
     11648      11651      1   0.007531   0.014340     2.60142e-01     2.09200e-02
     11647      11654      1   0.017463   0.010564     3.00055e-01     6.91943e-02
     11647      11655      1   0.017463   0.010564     3.00055e-01     6.91943e-02
     11646      11650      1   0.025511  -0.023412     3.00055e-01     6.91943e-02
     11646      11648      1   0.025511   0.006276     2.60142e-01     2.09200e-02
     11646      11649      1   0.025511   0.006276     2.60142e-01     2.09200e-02
     11645      11650      1   0.025511  -0.023412     3.00055e-01     6.91943e-02
     11645      11648      1   0.025511   0.006276     2.60142e-01     2.09200e-02
     11645      11649      1   0.025511   0.006276     2.60142e-01     2.09200e-02
     11644      11652      1  -0.111712   0.014340     3.00055e-01     6.91943e-02
     11644      11651      1  -0.111712   0.014340     3.00055e-01     6.91943e-02
     11643      11650      1   0.025511  -0.023412     3.00055e-01     6.91943e-02
     11643      11648      1   0.025511   0.006276     2.60142e-01     2.09200e-02
     11643      11649      1   0.025511   0.006276     2.60142e-01     2.09200e-02
     11722      11724      1   0.053944  -0.559638     2.78067e-01     9.58675e-02
     11722      11725      1   0.053944  -0.479574     2.80072e-01     8.62554e-02
     11721      11724      1   0.053944  -0.559638     2.78067e-01     9.58675e-02
     11721      11725      1   0.053944  -0.479574     2.80072e-01     8.62554e-02
     11719      11722      1   0.018859   0.044953     2.60142e-01     2.09200e-02
     11719      11721      1   0.018859   0.044953     2.60142e-01     2.09200e-02
     11719      11723      1   0.018859   0.758669     3.00055e-01     6.13495e-02
     11718      11722      1   0.018859   0.044953     2.60142e-01     2.09200e-02
     11718      11721      1   0.018859   0.044953     2.60142e-01     2.09200e-02
     11718      11723      1   0.018859   0.758669     3.00055e-01     6.13495e-02
     11716      11720      1   0.020431  -0.136833     3.00055e-01     6.91943e-02
     11716      11719      1   0.020431   0.015716     2.60142e-01     2.09200e-02
     11716      11718      1   0.020431   0.015716     2.60142e-01     2.09200e-02
     11715      11720      1   0.020431  -0.136833     3.00055e-01     6.91943e-02
     11715      11719      1   0.020431   0.015716     2.60142e-01     2.09200e-02
     11715      11718      1   0.020431   0.015716     2.60142e-01     2.09200e-02
     11714      11722      1  -0.026954   0.044953     3.00055e-01     6.91943e-02
     11714      11721      1  -0.026954   0.044953     3.00055e-01     6.91943e-02
     11713      11717      1   0.010573  -0.002029     3.00055e-01     6.91943e-02
     11713      11716      1   0.010573   0.017026     2.60142e-01     2.09200e-02
     11713      11715      1   0.010573   0.017026     2.60142e-01     2.09200e-02
     11712      11717      1   0.010573  -0.002029     3.00055e-01     6.91943e-02
     11712      11716      1   0.010573   0.017026     2.60142e-01     2.09200e-02
     11712      11715      1   0.010573   0.017026     2.60142e-01     2.09200e-02
     11711      11719      1  -0.016521   0.015716     3.00055e-01     6.91943e-02
     11711      11718      1  -0.016521   0.015716     3.00055e-01     6.91943e-02
     11710      11714      1   0.011511  -0.022462     3.00055e-01     6.91943e-02
     11710      11712      1   0.011511   0.008811     2.60142e-01     2.09200e-02
     11710      11713      1   0.011511   0.008811     2.60142e-01     2.09200e-02
     11709      11714      1   0.011511  -0.022462     3.00055e-01     6.91943e-02
     11709      11712      1   0.011511   0.008811     2.60142e-01     2.09200e-02
     11709      11713      1   0.011511   0.008811     2.60142e-01     2.09200e-02
     11708      11716      1  -0.027812   0.017026     3.00055e-01     6.91943e-02
     11708      11715      1  -0.027812   0.017026     3.00055e-01     6.91943e-02
     11707      11711      1   0.006833  -0.013767     3.00055e-01     6.91943e-02
     11707      11709      1   0.006833   0.009592     2.60142e-01     2.09200e-02
     11707      11710      1   0.006833   0.009592     2.60142e-01     2.09200e-02
     11706      11711      1   0.006833  -0.013767     3.00055e-01     6.91943e-02
     11706      11709      1   0.006833   0.009592     2.60142e-01     2.09200e-02
     11706      11710      1   0.006833   0.009592     2.60142e-01     2.09200e-02
     11705      11712      1  -0.004386   0.008811     3.00055e-01     6.91943e-02
     11705      11713      1  -0.004386   0.008811     3.00055e-01     6.91943e-02
     11704      11708      1   0.011241  -0.023177     3.00055e-01     6.91943e-02
     11704      11706      1   0.011241   0.005694     2.60142e-01     2.09200e-02
     11704      11707      1   0.011241   0.005694     2.60142e-01     2.09200e-02
     11703      11708      1   0.011241  -0.023177     3.00055e-01     6.91943e-02
     11703      11706      1   0.011241   0.005694     2.60142e-01     2.09200e-02
     11703      11707      1   0.011241   0.005694     2.60142e-01     2.09200e-02
     11702      11709      1  -0.026451   0.009592     3.00055e-01     6.91943e-02
     11702      11710      1  -0.026451   0.009592     3.00055e-01     6.91943e-02
     11701      11705      1   0.010172  -0.003655     3.00055e-01     6.91943e-02
     11701      11704      1   0.010172   0.009367     2.60142e-01     2.09200e-02
     11701      11703      1   0.010172   0.009367     2.60142e-01     2.09200e-02
     11700      11705      1   0.010172  -0.003655     3.00055e-01     6.91943e-02
     11700      11704      1   0.010172   0.009367     2.60142e-01     2.09200e-02
     11700      11703      1   0.010172   0.009367     2.60142e-01     2.09200e-02
     11699      11706      1  -0.014653   0.005694     3.00055e-01     6.91943e-02
     11699      11707      1  -0.014653   0.005694     3.00055e-01     6.91943e-02
     11698      11702      1   0.010037  -0.022042     3.00055e-01     6.91943e-02
     11698      11700      1   0.010037   0.008477     2.60142e-01     2.09200e-02
     11698      11701      1   0.010037   0.008477     2.60142e-01     2.09200e-02
     11697      11702      1   0.010037  -0.022042     3.00055e-01     6.91943e-02
     11697      11700      1   0.010037   0.008477     2.60142e-01     2.09200e-02
     11697      11701      1   0.010037   0.008477     2.60142e-01     2.09200e-02
     11696      11704      1  -0.021025   0.009367     3.00055e-01     6.91943e-02
     11696      11703      1  -0.021025   0.009367     3.00055e-01     6.91943e-02
     11695      11699      1   0.012677  -0.012211     3.00055e-01     6.91943e-02
     11695      11698      1   0.012677   0.008364     2.60142e-01     2.09200e-02
     11695      11697      1   0.012677   0.008364     2.60142e-01     2.09200e-02
     11694      11699      1   0.012677  -0.012211     3.00055e-01     6.91943e-02
     11694      11698      1   0.012677   0.008364     2.60142e-01     2.09200e-02
     11694      11697      1   0.012677   0.008364     2.60142e-01     2.09200e-02
     11693      11700      1  -0.031787   0.008477     3.00055e-01     6.91943e-02
     11693      11701      1  -0.031787   0.008477     3.00055e-01     6.91943e-02
     11692      11696      1   0.017208  -0.017521     3.00055e-01     6.91943e-02
     11692      11694      1   0.017208   0.010564     2.60142e-01     2.09200e-02
     11692      11695      1   0.017208   0.010564     2.60142e-01     2.09200e-02
     11691      11696      1   0.017208  -0.017521     3.00055e-01     6.91943e-02
     11691      11694      1   0.017208   0.010564     2.60142e-01     2.09200e-02
     11691      11695      1   0.017208   0.010564     2.60142e-01     2.09200e-02
     11690      11698      1  -0.028094   0.008364     3.00055e-01     6.91943e-02
     11690      11697      1  -0.028094   0.008364     3.00055e-01     6.91943e-02
     11689      11693      1   0.007531  -0.026489     3.00055e-01     6.91943e-02
     11689      11692      1   0.007531   0.014340     2.60142e-01     2.09200e-02
     11689      11691      1   0.007531   0.014340     2.60142e-01     2.09200e-02
     11688      11693      1   0.007531  -0.026489     3.00055e-01     6.91943e-02
     11688      11692      1   0.007531   0.014340     2.60142e-01     2.09200e-02
     11688      11691      1   0.007531   0.014340     2.60142e-01     2.09200e-02
     11687      11694      1   0.017463   0.010564     3.00055e-01     6.91943e-02
     11687      11695      1   0.017463   0.010564     3.00055e-01     6.91943e-02
     11686      11690      1   0.025511  -0.023412     3.00055e-01     6.91943e-02
     11686      11688      1   0.025511   0.006276     2.60142e-01     2.09200e-02
     11686      11689      1   0.025511   0.006276     2.60142e-01     2.09200e-02
     11685      11690      1   0.025511  -0.023412     3.00055e-01     6.91943e-02
     11685      11688      1   0.025511   0.006276     2.60142e-01     2.09200e-02
     11685      11689      1   0.025511   0.006276     2.60142e-01     2.09200e-02
     11684      11692      1  -0.111712   0.014340     3.00055e-01     6.91943e-02
     11684      11691      1  -0.111712   0.014340     3.00055e-01     6.91943e-02
     11683      11690      1   0.025511  -0.023412     3.00055e-01     6.91943e-02
     11683      11688      1   0.025511   0.006276     2.60142e-01     2.09200e-02
     11683      11689      1   0.025511   0.006276     2.60142e-01     2.09200e-02
     11760      11800      1  -0.673755   0.044953     2.78067e-01     9.58675e-02
     11760      11799      1  -0.673755   0.044953     2.78067e-01     9.58675e-02
     11759      11797      1   0.897613   0.015716     3.00055e-01     6.13495e-02
     11759      11796      1   0.897613   0.015716     3.00055e-01     6.13495e-02
     11758      11800      1  -0.552948   0.044953     2.80072e-01     8.62554e-02
     11758      11799      1  -0.552948   0.044953     2.80072e-01     8.62554e-02
     11751      11752      1   0.172230  -0.282478     2.67982e-01     8.67002e-02
     11750      11752      1   0.172230  -0.282478     2.67982e-01     8.67002e-02
     11749      11752      1   0.172230  -0.282478     2.67982e-01     8.67002e-02
     11748      11753      1  -0.338973   0.143525     2.67982e-01     8.67002e-02
     11748      11754      1  -0.338973   0.143525     2.67982e-01     8.67002e-02
     11748      11755      1  -0.338973   0.143525     2.67982e-01     8.67002e-02
     11747      11748      1   0.172230  -0.282478     2.67982e-01     8.67002e-02
     11747      11752      1   0.172230  -0.282478     2.67982e-01     8.67002e-02
     11746      11748      1   0.172230  -0.282478     2.67982e-01     8.67002e-02
     11746      11752      1   0.172230  -0.282478     2.67982e-01     8.67002e-02
     11745      11748      1   0.172230  -0.282478     2.67982e-01     8.67002e-02
     11745      11752      1   0.172230  -0.282478     2.67982e-01     8.67002e-02
     11744      11749      1  -0.338973   0.143525     2.67982e-01     8.67002e-02
     11744      11750      1  -0.338973   0.143525     2.67982e-01     8.67002e-02
     11744      11751      1  -0.338973   0.143525     2.67982e-01     8.67002e-02
     11744      11753      1  -0.338973   0.143525     2.67982e-01     8.67002e-02
     11744      11754      1  -0.338973   0.143525     2.67982e-01     8.67002e-02
     11744      11755      1  -0.338973   0.143525     2.67982e-01     8.67002e-02
     11742      11744      1   0.136415  -0.282478     2.67982e-01     8.67002e-02
     11742      11748      1   0.136415  -0.282478     2.67982e-01     8.67002e-02
     11742      11752      1   0.136415  -0.282478     2.67982e-01     8.67002e-02
     11741      11744      1   0.136415  -0.282478     2.67982e-01     8.67002e-02
     11741      11748      1   0.136415  -0.282478     2.67982e-01     8.67002e-02
     11741      11752      1   0.136415  -0.282478     2.67982e-01     8.67002e-02
     11740      11745      1  -0.170824   0.143525     2.67982e-01     8.67002e-02
     11740      11746      1  -0.170824   0.143525     2.67982e-01     8.67002e-02
     11740      11747      1  -0.170824   0.143525     2.67982e-01     8.67002e-02
     11740      11749      1  -0.170824   0.143525     2.67982e-01     8.67002e-02
     11740      11750      1  -0.170824   0.143525     2.67982e-01     8.67002e-02
     11740      11751      1  -0.170824   0.143525     2.67982e-01     8.67002e-02
     11740      11753      1  -0.170824   0.143525     2.67982e-01     8.67002e-02
     11740      11754      1  -0.170824   0.143525     2.67982e-01     8.67002e-02
     11740      11755      1  -0.170824   0.143525     2.67982e-01     8.67002e-02
     11739      11741      1   0.078534   0.113679     2.21567e-01     3.28444e-02
     11739      11742      1   0.078534   0.113679     2.21567e-01     3.28444e-02
     11739      11743      1   0.078534   0.204385     2.86068e-01     1.08078e-01
     11738      11741      1   0.078534   0.113679     2.21567e-01     3.28444e-02
     11738      11742      1   0.078534   0.113679     2.21567e-01     3.28444e-02
     11738      11743      1   0.078534   0.204385     2.86068e-01     1.08078e-01
     11736      11741      1  -0.508176   0.113679     2.47999e-01     1.08078e-01
     11736      11742      1  -0.508176   0.113679     2.47999e-01     1.08078e-01
     11735      11738      1   1.339721   0.065445     3.10656e-01     1.17227e-01
     11735      11739      1   1.339721   0.065445     3.10656e-01     1.17227e-01
     11733      11758      1   0.095591  -0.460790     2.73568e-01     1.08078e-01
     11733      11735      1   0.095591   1.116434     3.10656e-01     1.17227e-01
     11732      11758      1   0.095591  -0.460790     2.73568e-01     1.08078e-01
     11732      11735      1   0.095591   1.116434     3.10656e-01     1.17227e-01
     11730      11732      1   0.063253   0.079659     2.47135e-01     3.28444e-02
     11730      11733      1   0.063253   0.079659     2.47135e-01     3.28444e-02
     11730      11734      1   0.063253  -0.424567     2.73568e-01     1.08078e-01
     11730      11759      1   0.063253   0.748011     2.93551e-01     7.68707e-02
     11728      11730      1   0.070469   0.052711     2.47135e-01     3.28444e-02
     11728      11731      1   0.070469   0.014549     2.93551e-01     8.67002e-02
     11728      11758      1   0.070469  -0.460790     2.73568e-01     1.08078e-01
     11727      11730      1   0.070469   0.052711     2.47135e-01     3.28444e-02
     11727      11731      1   0.070469   0.014549     2.93551e-01     8.67002e-02
     11727      11758      1   0.070469  -0.460790     2.73568e-01     1.08078e-01
     11726      11732      1   0.196939   0.079659     2.93551e-01     8.67002e-02
     11726      11733      1   0.196939   0.079659     2.93551e-01     8.67002e-02
     11725      11730      1  -0.575489   0.052711     2.73568e-01     1.08078e-01
     11723      11727      1   0.910403   0.058724     2.93551e-01     7.68707e-02
     11723      11728      1   0.910403   0.058724     2.93551e-01     7.68707e-02
     11797      11800      1   0.018859   0.044953     2.60142e-01     2.09200e-02
     11797      11799      1   0.018859   0.044953     2.60142e-01     2.09200e-02
     11796      11800      1   0.018859   0.044953     2.60142e-01     2.09200e-02
     11796      11799      1   0.018859   0.044953     2.60142e-01     2.09200e-02
     11794      11798      1   0.020431  -0.136833     3.00055e-01     6.91943e-02
     11794      11797      1   0.020431   0.015716     2.60142e-01     2.09200e-02
     11794      11796      1   0.020431   0.015716     2.60142e-01     2.09200e-02
     11793      11798      1   0.020431  -0.136833     3.00055e-01     6.91943e-02
     11793      11797      1   0.020431   0.015716     2.60142e-01     2.09200e-02
     11793      11796      1   0.020431   0.015716     2.60142e-01     2.09200e-02
     11792      11800      1  -0.026954   0.044953     3.00055e-01     6.91943e-02
     11792      11799      1  -0.026954   0.044953     3.00055e-01     6.91943e-02
     11791      11795      1   0.010573  -0.002029     3.00055e-01     6.91943e-02
     11791      11794      1   0.010573   0.017026     2.60142e-01     2.09200e-02
     11791      11793      1   0.010573   0.017026     2.60142e-01     2.09200e-02
     11790      11795      1   0.010573  -0.002029     3.00055e-01     6.91943e-02
     11790      11794      1   0.010573   0.017026     2.60142e-01     2.09200e-02
     11790      11793      1   0.010573   0.017026     2.60142e-01     2.09200e-02
     11789      11797      1  -0.016521   0.015716     3.00055e-01     6.91943e-02
     11789      11796      1  -0.016521   0.015716     3.00055e-01     6.91943e-02
     11788      11792      1   0.011511  -0.022462     3.00055e-01     6.91943e-02
     11788      11790      1   0.011511   0.008811     2.60142e-01     2.09200e-02
     11788      11791      1   0.011511   0.008811     2.60142e-01     2.09200e-02
     11787      11792      1   0.011511  -0.022462     3.00055e-01     6.91943e-02
     11787      11790      1   0.011511   0.008811     2.60142e-01     2.09200e-02
     11787      11791      1   0.011511   0.008811     2.60142e-01     2.09200e-02
     11786      11794      1  -0.027812   0.017026     3.00055e-01     6.91943e-02
     11786      11793      1  -0.027812   0.017026     3.00055e-01     6.91943e-02
     11785      11789      1   0.006833  -0.013767     3.00055e-01     6.91943e-02
     11785      11787      1   0.006833   0.009592     2.60142e-01     2.09200e-02
     11785      11788      1   0.006833   0.009592     2.60142e-01     2.09200e-02
     11784      11789      1   0.006833  -0.013767     3.00055e-01     6.91943e-02
     11784      11787      1   0.006833   0.009592     2.60142e-01     2.09200e-02
     11784      11788      1   0.006833   0.009592     2.60142e-01     2.09200e-02
     11783      11790      1  -0.004386   0.008811     3.00055e-01     6.91943e-02
     11783      11791      1  -0.004386   0.008811     3.00055e-01     6.91943e-02
     11782      11786      1   0.011241  -0.023177     3.00055e-01     6.91943e-02
     11782      11784      1   0.011241   0.005694     2.60142e-01     2.09200e-02
     11782      11785      1   0.011241   0.005694     2.60142e-01     2.09200e-02
     11781      11786      1   0.011241  -0.023177     3.00055e-01     6.91943e-02
     11781      11784      1   0.011241   0.005694     2.60142e-01     2.09200e-02
     11781      11785      1   0.011241   0.005694     2.60142e-01     2.09200e-02
     11780      11787      1  -0.026451   0.009592     3.00055e-01     6.91943e-02
     11780      11788      1  -0.026451   0.009592     3.00055e-01     6.91943e-02
     11779      11783      1   0.010172  -0.003655     3.00055e-01     6.91943e-02
     11779      11782      1   0.010172   0.009367     2.60142e-01     2.09200e-02
     11779      11781      1   0.010172   0.009367     2.60142e-01     2.09200e-02
     11778      11783      1   0.010172  -0.003655     3.00055e-01     6.91943e-02
     11778      11782      1   0.010172   0.009367     2.60142e-01     2.09200e-02
     11778      11781      1   0.010172   0.009367     2.60142e-01     2.09200e-02
     11777      11784      1  -0.014653   0.005694     3.00055e-01     6.91943e-02
     11777      11785      1  -0.014653   0.005694     3.00055e-01     6.91943e-02
     11776      11780      1   0.010037  -0.022042     3.00055e-01     6.91943e-02
     11776      11778      1   0.010037   0.008477     2.60142e-01     2.09200e-02
     11776      11779      1   0.010037   0.008477     2.60142e-01     2.09200e-02
     11775      11780      1   0.010037  -0.022042     3.00055e-01     6.91943e-02
     11775      11778      1   0.010037   0.008477     2.60142e-01     2.09200e-02
     11775      11779      1   0.010037   0.008477     2.60142e-01     2.09200e-02
     11774      11782      1  -0.021025   0.009367     3.00055e-01     6.91943e-02
     11774      11781      1  -0.021025   0.009367     3.00055e-01     6.91943e-02
     11773      11777      1   0.012677  -0.012211     3.00055e-01     6.91943e-02
     11773      11776      1   0.012677   0.008364     2.60142e-01     2.09200e-02
     11773      11775      1   0.012677   0.008364     2.60142e-01     2.09200e-02
     11772      11777      1   0.012677  -0.012211     3.00055e-01     6.91943e-02
     11772      11776      1   0.012677   0.008364     2.60142e-01     2.09200e-02
     11772      11775      1   0.012677   0.008364     2.60142e-01     2.09200e-02
     11771      11778      1  -0.031787   0.008477     3.00055e-01     6.91943e-02
     11771      11779      1  -0.031787   0.008477     3.00055e-01     6.91943e-02
     11770      11774      1   0.017208  -0.017521     3.00055e-01     6.91943e-02
     11770      11772      1   0.017208   0.010564     2.60142e-01     2.09200e-02
     11770      11773      1   0.017208   0.010564     2.60142e-01     2.09200e-02
     11769      11774      1   0.017208  -0.017521     3.00055e-01     6.91943e-02
     11769      11772      1   0.017208   0.010564     2.60142e-01     2.09200e-02
     11769      11773      1   0.017208   0.010564     2.60142e-01     2.09200e-02
     11768      11776      1  -0.028094   0.008364     3.00055e-01     6.91943e-02
     11768      11775      1  -0.028094   0.008364     3.00055e-01     6.91943e-02
     11767      11771      1   0.007531  -0.026489     3.00055e-01     6.91943e-02
     11767      11770      1   0.007531   0.014340     2.60142e-01     2.09200e-02
     11767      11769      1   0.007531   0.014340     2.60142e-01     2.09200e-02
     11766      11771      1   0.007531  -0.026489     3.00055e-01     6.91943e-02
     11766      11770      1   0.007531   0.014340     2.60142e-01     2.09200e-02
     11766      11769      1   0.007531   0.014340     2.60142e-01     2.09200e-02
     11765      11772      1   0.017463   0.010564     3.00055e-01     6.91943e-02
     11765      11773      1   0.017463   0.010564     3.00055e-01     6.91943e-02
     11764      11768      1   0.025511  -0.023412     3.00055e-01     6.91943e-02
     11764      11766      1   0.025511   0.006276     2.60142e-01     2.09200e-02
     11764      11767      1   0.025511   0.006276     2.60142e-01     2.09200e-02
     11763      11768      1   0.025511  -0.023412     3.00055e-01     6.91943e-02
     11763      11766      1   0.025511   0.006276     2.60142e-01     2.09200e-02
     11763      11767      1   0.025511   0.006276     2.60142e-01     2.09200e-02
     11762      11770      1  -0.111712   0.014340     3.00055e-01     6.91943e-02
     11762      11769      1  -0.111712   0.014340     3.00055e-01     6.91943e-02
     11761      11768      1   0.025511  -0.023412     3.00055e-01     6.91943e-02
     11761      11766      1   0.025511   0.006276     2.60142e-01     2.09200e-02
     11761      11767      1   0.025511   0.006276     2.60142e-01     2.09200e-02
     11840      11842      1   0.053944  -0.559638     2.78067e-01     9.58675e-02
     11840      11843      1   0.053944  -0.479574     2.80072e-01     8.62554e-02
     11839      11842      1   0.053944  -0.559638     2.78067e-01     9.58675e-02
     11839      11843      1   0.053944  -0.479574     2.80072e-01     8.62554e-02
     11837      11840      1   0.018859   0.044953     2.60142e-01     2.09200e-02
     11837      11839      1   0.018859   0.044953     2.60142e-01     2.09200e-02
     11837      11841      1   0.018859   0.758669     3.00055e-01     6.13495e-02
     11836      11840      1   0.018859   0.044953     2.60142e-01     2.09200e-02
     11836      11839      1   0.018859   0.044953     2.60142e-01     2.09200e-02
     11836      11841      1   0.018859   0.758669     3.00055e-01     6.13495e-02
     11834      11838      1   0.020431  -0.136833     3.00055e-01     6.91943e-02
     11834      11837      1   0.020431   0.015716     2.60142e-01     2.09200e-02
     11834      11836      1   0.020431   0.015716     2.60142e-01     2.09200e-02
     11833      11838      1   0.020431  -0.136833     3.00055e-01     6.91943e-02
     11833      11837      1   0.020431   0.015716     2.60142e-01     2.09200e-02
     11833      11836      1   0.020431   0.015716     2.60142e-01     2.09200e-02
     11832      11840      1  -0.026954   0.044953     3.00055e-01     6.91943e-02
     11832      11839      1  -0.026954   0.044953     3.00055e-01     6.91943e-02
     11831      11835      1   0.010573  -0.002029     3.00055e-01     6.91943e-02
     11831      11834      1   0.010573   0.017026     2.60142e-01     2.09200e-02
     11831      11833      1   0.010573   0.017026     2.60142e-01     2.09200e-02
     11830      11835      1   0.010573  -0.002029     3.00055e-01     6.91943e-02
     11830      11834      1   0.010573   0.017026     2.60142e-01     2.09200e-02
     11830      11833      1   0.010573   0.017026     2.60142e-01     2.09200e-02
     11829      11837      1  -0.016521   0.015716     3.00055e-01     6.91943e-02
     11829      11836      1  -0.016521   0.015716     3.00055e-01     6.91943e-02
     11828      11832      1   0.011511  -0.022462     3.00055e-01     6.91943e-02
     11828      11830      1   0.011511   0.008811     2.60142e-01     2.09200e-02
     11828      11831      1   0.011511   0.008811     2.60142e-01     2.09200e-02
     11827      11832      1   0.011511  -0.022462     3.00055e-01     6.91943e-02
     11827      11830      1   0.011511   0.008811     2.60142e-01     2.09200e-02
     11827      11831      1   0.011511   0.008811     2.60142e-01     2.09200e-02
     11826      11834      1  -0.027812   0.017026     3.00055e-01     6.91943e-02
     11826      11833      1  -0.027812   0.017026     3.00055e-01     6.91943e-02
     11825      11829      1   0.006833  -0.013767     3.00055e-01     6.91943e-02
     11825      11827      1   0.006833   0.009592     2.60142e-01     2.09200e-02
     11825      11828      1   0.006833   0.009592     2.60142e-01     2.09200e-02
     11824      11829      1   0.006833  -0.013767     3.00055e-01     6.91943e-02
     11824      11827      1   0.006833   0.009592     2.60142e-01     2.09200e-02
     11824      11828      1   0.006833   0.009592     2.60142e-01     2.09200e-02
     11823      11830      1  -0.004386   0.008811     3.00055e-01     6.91943e-02
     11823      11831      1  -0.004386   0.008811     3.00055e-01     6.91943e-02
     11822      11826      1   0.011241  -0.023177     3.00055e-01     6.91943e-02
     11822      11824      1   0.011241   0.005694     2.60142e-01     2.09200e-02
     11822      11825      1   0.011241   0.005694     2.60142e-01     2.09200e-02
     11821      11826      1   0.011241  -0.023177     3.00055e-01     6.91943e-02
     11821      11824      1   0.011241   0.005694     2.60142e-01     2.09200e-02
     11821      11825      1   0.011241   0.005694     2.60142e-01     2.09200e-02
     11820      11827      1  -0.026451   0.009592     3.00055e-01     6.91943e-02
     11820      11828      1  -0.026451   0.009592     3.00055e-01     6.91943e-02
     11819      11823      1   0.010172  -0.003655     3.00055e-01     6.91943e-02
     11819      11822      1   0.010172   0.009367     2.60142e-01     2.09200e-02
     11819      11821      1   0.010172   0.009367     2.60142e-01     2.09200e-02
     11818      11823      1   0.010172  -0.003655     3.00055e-01     6.91943e-02
     11818      11822      1   0.010172   0.009367     2.60142e-01     2.09200e-02
     11818      11821      1   0.010172   0.009367     2.60142e-01     2.09200e-02
     11817      11824      1  -0.014653   0.005694     3.00055e-01     6.91943e-02
     11817      11825      1  -0.014653   0.005694     3.00055e-01     6.91943e-02
     11816      11820      1   0.010037  -0.022042     3.00055e-01     6.91943e-02
     11816      11818      1   0.010037   0.008477     2.60142e-01     2.09200e-02
     11816      11819      1   0.010037   0.008477     2.60142e-01     2.09200e-02
     11815      11820      1   0.010037  -0.022042     3.00055e-01     6.91943e-02
     11815      11818      1   0.010037   0.008477     2.60142e-01     2.09200e-02
     11815      11819      1   0.010037   0.008477     2.60142e-01     2.09200e-02
     11814      11822      1  -0.021025   0.009367     3.00055e-01     6.91943e-02
     11814      11821      1  -0.021025   0.009367     3.00055e-01     6.91943e-02
     11813      11817      1   0.012677  -0.012211     3.00055e-01     6.91943e-02
     11813      11816      1   0.012677   0.008364     2.60142e-01     2.09200e-02
     11813      11815      1   0.012677   0.008364     2.60142e-01     2.09200e-02
     11812      11817      1   0.012677  -0.012211     3.00055e-01     6.91943e-02
     11812      11816      1   0.012677   0.008364     2.60142e-01     2.09200e-02
     11812      11815      1   0.012677   0.008364     2.60142e-01     2.09200e-02
     11811      11818      1  -0.031787   0.008477     3.00055e-01     6.91943e-02
     11811      11819      1  -0.031787   0.008477     3.00055e-01     6.91943e-02
     11810      11814      1   0.017208  -0.017521     3.00055e-01     6.91943e-02
     11810      11812      1   0.017208   0.010564     2.60142e-01     2.09200e-02
     11810      11813      1   0.017208   0.010564     2.60142e-01     2.09200e-02
     11809      11814      1   0.017208  -0.017521     3.00055e-01     6.91943e-02
     11809      11812      1   0.017208   0.010564     2.60142e-01     2.09200e-02
     11809      11813      1   0.017208   0.010564     2.60142e-01     2.09200e-02
     11808      11816      1  -0.028094   0.008364     3.00055e-01     6.91943e-02
     11808      11815      1  -0.028094   0.008364     3.00055e-01     6.91943e-02
     11807      11811      1   0.007531  -0.026489     3.00055e-01     6.91943e-02
     11807      11810      1   0.007531   0.014340     2.60142e-01     2.09200e-02
     11807      11809      1   0.007531   0.014340     2.60142e-01     2.09200e-02
     11806      11811      1   0.007531  -0.026489     3.00055e-01     6.91943e-02
     11806      11810      1   0.007531   0.014340     2.60142e-01     2.09200e-02
     11806      11809      1   0.007531   0.014340     2.60142e-01     2.09200e-02
     11805      11812      1   0.017463   0.010564     3.00055e-01     6.91943e-02
     11805      11813      1   0.017463   0.010564     3.00055e-01     6.91943e-02
     11804      11808      1   0.025511  -0.023412     3.00055e-01     6.91943e-02
     11804      11806      1   0.025511   0.006276     2.60142e-01     2.09200e-02
     11804      11807      1   0.025511   0.006276     2.60142e-01     2.09200e-02
     11803      11808      1   0.025511  -0.023412     3.00055e-01     6.91943e-02
     11803      11806      1   0.025511   0.006276     2.60142e-01     2.09200e-02
     11803      11807      1   0.025511   0.006276     2.60142e-01     2.09200e-02
     11802      11810      1  -0.111712   0.014340     3.00055e-01     6.91943e-02
     11802      11809      1  -0.111712   0.014340     3.00055e-01     6.91943e-02
     11801      11808      1   0.025511  -0.023412     3.00055e-01     6.91943e-02
     11801      11806      1   0.025511   0.006276     2.60142e-01     2.09200e-02
     11801      11807      1   0.025511   0.006276     2.60142e-01     2.09200e-02
     11878      11918      1  -0.673755   0.044953     2.78067e-01     9.58675e-02
     11878      11917      1  -0.673755   0.044953     2.78067e-01     9.58675e-02
     11877      11915      1   0.897613   0.015716     3.00055e-01     6.13495e-02
     11877      11914      1   0.897613   0.015716     3.00055e-01     6.13495e-02
     11876      11918      1  -0.552948   0.044953     2.80072e-01     8.62554e-02
     11876      11917      1  -0.552948   0.044953     2.80072e-01     8.62554e-02
     11869      11870      1   0.172230  -0.282478     2.67982e-01     8.67002e-02
     11868      11870      1   0.172230  -0.282478     2.67982e-01     8.67002e-02
     11867      11870      1   0.172230  -0.282478     2.67982e-01     8.67002e-02
     11866      11871      1  -0.338973   0.143525     2.67982e-01     8.67002e-02
     11866      11872      1  -0.338973   0.143525     2.67982e-01     8.67002e-02
     11866      11873      1  -0.338973   0.143525     2.67982e-01     8.67002e-02
     11865      11866      1   0.172230  -0.282478     2.67982e-01     8.67002e-02
     11865      11870      1   0.172230  -0.282478     2.67982e-01     8.67002e-02
     11864      11866      1   0.172230  -0.282478     2.67982e-01     8.67002e-02
     11864      11870      1   0.172230  -0.282478     2.67982e-01     8.67002e-02
     11863      11866      1   0.172230  -0.282478     2.67982e-01     8.67002e-02
     11863      11870      1   0.172230  -0.282478     2.67982e-01     8.67002e-02
     11862      11867      1  -0.338973   0.143525     2.67982e-01     8.67002e-02
     11862      11868      1  -0.338973   0.143525     2.67982e-01     8.67002e-02
     11862      11869      1  -0.338973   0.143525     2.67982e-01     8.67002e-02
     11862      11871      1  -0.338973   0.143525     2.67982e-01     8.67002e-02
     11862      11872      1  -0.338973   0.143525     2.67982e-01     8.67002e-02
     11862      11873      1  -0.338973   0.143525     2.67982e-01     8.67002e-02
     11860      11862      1   0.136415  -0.282478     2.67982e-01     8.67002e-02
     11860      11866      1   0.136415  -0.282478     2.67982e-01     8.67002e-02
     11860      11870      1   0.136415  -0.282478     2.67982e-01     8.67002e-02
     11859      11862      1   0.136415  -0.282478     2.67982e-01     8.67002e-02
     11859      11866      1   0.136415  -0.282478     2.67982e-01     8.67002e-02
     11859      11870      1   0.136415  -0.282478     2.67982e-01     8.67002e-02
     11858      11863      1  -0.170824   0.143525     2.67982e-01     8.67002e-02
     11858      11864      1  -0.170824   0.143525     2.67982e-01     8.67002e-02
     11858      11865      1  -0.170824   0.143525     2.67982e-01     8.67002e-02
     11858      11867      1  -0.170824   0.143525     2.67982e-01     8.67002e-02
     11858      11868      1  -0.170824   0.143525     2.67982e-01     8.67002e-02
     11858      11869      1  -0.170824   0.143525     2.67982e-01     8.67002e-02
     11858      11871      1  -0.170824   0.143525     2.67982e-01     8.67002e-02
     11858      11872      1  -0.170824   0.143525     2.67982e-01     8.67002e-02
     11858      11873      1  -0.170824   0.143525     2.67982e-01     8.67002e-02
     11857      11859      1   0.078534   0.113679     2.21567e-01     3.28444e-02
     11857      11860      1   0.078534   0.113679     2.21567e-01     3.28444e-02
     11857      11861      1   0.078534   0.204385     2.86068e-01     1.08078e-01
     11856      11859      1   0.078534   0.113679     2.21567e-01     3.28444e-02
     11856      11860      1   0.078534   0.113679     2.21567e-01     3.28444e-02
     11856      11861      1   0.078534   0.204385     2.86068e-01     1.08078e-01
     11854      11859      1  -0.508176   0.113679     2.47999e-01     1.08078e-01
     11854      11860      1  -0.508176   0.113679     2.47999e-01     1.08078e-01
     11853      11856      1   1.339721   0.065445     3.10656e-01     1.17227e-01
     11853      11857      1   1.339721   0.065445     3.10656e-01     1.17227e-01
     11851      11876      1   0.095591  -0.460790     2.73568e-01     1.08078e-01
     11851      11853      1   0.095591   1.116434     3.10656e-01     1.17227e-01
     11850      11876      1   0.095591  -0.460790     2.73568e-01     1.08078e-01
     11850      11853      1   0.095591   1.116434     3.10656e-01     1.17227e-01
     11848      11850      1   0.063253   0.079659     2.47135e-01     3.28444e-02
     11848      11851      1   0.063253   0.079659     2.47135e-01     3.28444e-02
     11848      11852      1   0.063253  -0.424567     2.73568e-01     1.08078e-01
     11848      11877      1   0.063253   0.748011     2.93551e-01     7.68707e-02
     11846      11848      1   0.070469   0.052711     2.47135e-01     3.28444e-02
     11846      11849      1   0.070469   0.014549     2.93551e-01     8.67002e-02
     11846      11876      1   0.070469  -0.460790     2.73568e-01     1.08078e-01
     11845      11848      1   0.070469   0.052711     2.47135e-01     3.28444e-02
     11845      11849      1   0.070469   0.014549     2.93551e-01     8.67002e-02
     11845      11876      1   0.070469  -0.460790     2.73568e-01     1.08078e-01
     11844      11850      1   0.196939   0.079659     2.93551e-01     8.67002e-02
     11844      11851      1   0.196939   0.079659     2.93551e-01     8.67002e-02
     11843      11848      1  -0.575489   0.052711     2.73568e-01     1.08078e-01
     11841      11845      1   0.910403   0.058724     2.93551e-01     7.68707e-02
     11841      11846      1   0.910403   0.058724     2.93551e-01     7.68707e-02
     11915      11918      1   0.018859   0.044953     2.60142e-01     2.09200e-02
     11915      11917      1   0.018859   0.044953     2.60142e-01     2.09200e-02
     11914      11918      1   0.018859   0.044953     2.60142e-01     2.09200e-02
     11914      11917      1   0.018859   0.044953     2.60142e-01     2.09200e-02
     11912      11916      1   0.020431  -0.136833     3.00055e-01     6.91943e-02
     11912      11915      1   0.020431   0.015716     2.60142e-01     2.09200e-02
     11912      11914      1   0.020431   0.015716     2.60142e-01     2.09200e-02
     11911      11916      1   0.020431  -0.136833     3.00055e-01     6.91943e-02
     11911      11915      1   0.020431   0.015716     2.60142e-01     2.09200e-02
     11911      11914      1   0.020431   0.015716     2.60142e-01     2.09200e-02
     11910      11918      1  -0.026954   0.044953     3.00055e-01     6.91943e-02
     11910      11917      1  -0.026954   0.044953     3.00055e-01     6.91943e-02
     11909      11913      1   0.010573  -0.002029     3.00055e-01     6.91943e-02
     11909      11912      1   0.010573   0.017026     2.60142e-01     2.09200e-02
     11909      11911      1   0.010573   0.017026     2.60142e-01     2.09200e-02
     11908      11913      1   0.010573  -0.002029     3.00055e-01     6.91943e-02
     11908      11912      1   0.010573   0.017026     2.60142e-01     2.09200e-02
     11908      11911      1   0.010573   0.017026     2.60142e-01     2.09200e-02
     11907      11915      1  -0.016521   0.015716     3.00055e-01     6.91943e-02
     11907      11914      1  -0.016521   0.015716     3.00055e-01     6.91943e-02
     11906      11910      1   0.011511  -0.022462     3.00055e-01     6.91943e-02
     11906      11908      1   0.011511   0.008811     2.60142e-01     2.09200e-02
     11906      11909      1   0.011511   0.008811     2.60142e-01     2.09200e-02
     11905      11910      1   0.011511  -0.022462     3.00055e-01     6.91943e-02
     11905      11908      1   0.011511   0.008811     2.60142e-01     2.09200e-02
     11905      11909      1   0.011511   0.008811     2.60142e-01     2.09200e-02
     11904      11912      1  -0.027812   0.017026     3.00055e-01     6.91943e-02
     11904      11911      1  -0.027812   0.017026     3.00055e-01     6.91943e-02
     11903      11907      1   0.006833  -0.013767     3.00055e-01     6.91943e-02
     11903      11905      1   0.006833   0.009592     2.60142e-01     2.09200e-02
     11903      11906      1   0.006833   0.009592     2.60142e-01     2.09200e-02
     11902      11907      1   0.006833  -0.013767     3.00055e-01     6.91943e-02
     11902      11905      1   0.006833   0.009592     2.60142e-01     2.09200e-02
     11902      11906      1   0.006833   0.009592     2.60142e-01     2.09200e-02
     11901      11908      1  -0.004386   0.008811     3.00055e-01     6.91943e-02
     11901      11909      1  -0.004386   0.008811     3.00055e-01     6.91943e-02
     11900      11904      1   0.011241  -0.023177     3.00055e-01     6.91943e-02
     11900      11902      1   0.011241   0.005694     2.60142e-01     2.09200e-02
     11900      11903      1   0.011241   0.005694     2.60142e-01     2.09200e-02
     11899      11904      1   0.011241  -0.023177     3.00055e-01     6.91943e-02
     11899      11902      1   0.011241   0.005694     2.60142e-01     2.09200e-02
     11899      11903      1   0.011241   0.005694     2.60142e-01     2.09200e-02
     11898      11905      1  -0.026451   0.009592     3.00055e-01     6.91943e-02
     11898      11906      1  -0.026451   0.009592     3.00055e-01     6.91943e-02
     11897      11901      1   0.010172  -0.003655     3.00055e-01     6.91943e-02
     11897      11900      1   0.010172   0.009367     2.60142e-01     2.09200e-02
     11897      11899      1   0.010172   0.009367     2.60142e-01     2.09200e-02
     11896      11901      1   0.010172  -0.003655     3.00055e-01     6.91943e-02
     11896      11900      1   0.010172   0.009367     2.60142e-01     2.09200e-02
     11896      11899      1   0.010172   0.009367     2.60142e-01     2.09200e-02
     11895      11902      1  -0.014653   0.005694     3.00055e-01     6.91943e-02
     11895      11903      1  -0.014653   0.005694     3.00055e-01     6.91943e-02
     11894      11898      1   0.010037  -0.022042     3.00055e-01     6.91943e-02
     11894      11896      1   0.010037   0.008477     2.60142e-01     2.09200e-02
     11894      11897      1   0.010037   0.008477     2.60142e-01     2.09200e-02
     11893      11898      1   0.010037  -0.022042     3.00055e-01     6.91943e-02
     11893      11896      1   0.010037   0.008477     2.60142e-01     2.09200e-02
     11893      11897      1   0.010037   0.008477     2.60142e-01     2.09200e-02
     11892      11900      1  -0.021025   0.009367     3.00055e-01     6.91943e-02
     11892      11899      1  -0.021025   0.009367     3.00055e-01     6.91943e-02
     11891      11895      1   0.012677  -0.012211     3.00055e-01     6.91943e-02
     11891      11894      1   0.012677   0.008364     2.60142e-01     2.09200e-02
     11891      11893      1   0.012677   0.008364     2.60142e-01     2.09200e-02
     11890      11895      1   0.012677  -0.012211     3.00055e-01     6.91943e-02
     11890      11894      1   0.012677   0.008364     2.60142e-01     2.09200e-02
     11890      11893      1   0.012677   0.008364     2.60142e-01     2.09200e-02
     11889      11896      1  -0.031787   0.008477     3.00055e-01     6.91943e-02
     11889      11897      1  -0.031787   0.008477     3.00055e-01     6.91943e-02
     11888      11892      1   0.017208  -0.017521     3.00055e-01     6.91943e-02
     11888      11890      1   0.017208   0.010564     2.60142e-01     2.09200e-02
     11888      11891      1   0.017208   0.010564     2.60142e-01     2.09200e-02
     11887      11892      1   0.017208  -0.017521     3.00055e-01     6.91943e-02
     11887      11890      1   0.017208   0.010564     2.60142e-01     2.09200e-02
     11887      11891      1   0.017208   0.010564     2.60142e-01     2.09200e-02
     11886      11894      1  -0.028094   0.008364     3.00055e-01     6.91943e-02
     11886      11893      1  -0.028094   0.008364     3.00055e-01     6.91943e-02
     11885      11889      1   0.007531  -0.026489     3.00055e-01     6.91943e-02
     11885      11888      1   0.007531   0.014340     2.60142e-01     2.09200e-02
     11885      11887      1   0.007531   0.014340     2.60142e-01     2.09200e-02
     11884      11889      1   0.007531  -0.026489     3.00055e-01     6.91943e-02
     11884      11888      1   0.007531   0.014340     2.60142e-01     2.09200e-02
     11884      11887      1   0.007531   0.014340     2.60142e-01     2.09200e-02
     11883      11890      1   0.017463   0.010564     3.00055e-01     6.91943e-02
     11883      11891      1   0.017463   0.010564     3.00055e-01     6.91943e-02
     11882      11886      1   0.025511  -0.023412     3.00055e-01     6.91943e-02
     11882      11884      1   0.025511   0.006276     2.60142e-01     2.09200e-02
     11882      11885      1   0.025511   0.006276     2.60142e-01     2.09200e-02
     11881      11886      1   0.025511  -0.023412     3.00055e-01     6.91943e-02
     11881      11884      1   0.025511   0.006276     2.60142e-01     2.09200e-02
     11881      11885      1   0.025511   0.006276     2.60142e-01     2.09200e-02
     11880      11888      1  -0.111712   0.014340     3.00055e-01     6.91943e-02
     11880      11887      1  -0.111712   0.014340     3.00055e-01     6.91943e-02
     11879      11886      1   0.025511  -0.023412     3.00055e-01     6.91943e-02
     11879      11884      1   0.025511   0.006276     2.60142e-01     2.09200e-02
     11879      11885      1   0.025511   0.006276     2.60142e-01     2.09200e-02
     11958      11960      1   0.053944  -0.559638     2.78067e-01     9.58675e-02
     11958      11961      1   0.053944  -0.479574     2.80072e-01     8.62554e-02
     11957      11960      1   0.053944  -0.559638     2.78067e-01     9.58675e-02
     11957      11961      1   0.053944  -0.479574     2.80072e-01     8.62554e-02
     11955      11958      1   0.018859   0.044953     2.60142e-01     2.09200e-02
     11955      11957      1   0.018859   0.044953     2.60142e-01     2.09200e-02
     11955      11959      1   0.018859   0.758669     3.00055e-01     6.13495e-02
     11954      11958      1   0.018859   0.044953     2.60142e-01     2.09200e-02
     11954      11957      1   0.018859   0.044953     2.60142e-01     2.09200e-02
     11954      11959      1   0.018859   0.758669     3.00055e-01     6.13495e-02
     11952      11956      1   0.020431  -0.136833     3.00055e-01     6.91943e-02
     11952      11955      1   0.020431   0.015716     2.60142e-01     2.09200e-02
     11952      11954      1   0.020431   0.015716     2.60142e-01     2.09200e-02
     11951      11956      1   0.020431  -0.136833     3.00055e-01     6.91943e-02
     11951      11955      1   0.020431   0.015716     2.60142e-01     2.09200e-02
     11951      11954      1   0.020431   0.015716     2.60142e-01     2.09200e-02
     11950      11958      1  -0.026954   0.044953     3.00055e-01     6.91943e-02
     11950      11957      1  -0.026954   0.044953     3.00055e-01     6.91943e-02
     11949      11953      1   0.010573  -0.002029     3.00055e-01     6.91943e-02
     11949      11952      1   0.010573   0.017026     2.60142e-01     2.09200e-02
     11949      11951      1   0.010573   0.017026     2.60142e-01     2.09200e-02
     11948      11953      1   0.010573  -0.002029     3.00055e-01     6.91943e-02
     11948      11952      1   0.010573   0.017026     2.60142e-01     2.09200e-02
     11948      11951      1   0.010573   0.017026     2.60142e-01     2.09200e-02
     11947      11955      1  -0.016521   0.015716     3.00055e-01     6.91943e-02
     11947      11954      1  -0.016521   0.015716     3.00055e-01     6.91943e-02
     11946      11950      1   0.011511  -0.022462     3.00055e-01     6.91943e-02
     11946      11948      1   0.011511   0.008811     2.60142e-01     2.09200e-02
     11946      11949      1   0.011511   0.008811     2.60142e-01     2.09200e-02
     11945      11950      1   0.011511  -0.022462     3.00055e-01     6.91943e-02
     11945      11948      1   0.011511   0.008811     2.60142e-01     2.09200e-02
     11945      11949      1   0.011511   0.008811     2.60142e-01     2.09200e-02
     11944      11952      1  -0.027812   0.017026     3.00055e-01     6.91943e-02
     11944      11951      1  -0.027812   0.017026     3.00055e-01     6.91943e-02
     11943      11947      1   0.006833  -0.013767     3.00055e-01     6.91943e-02
     11943      11945      1   0.006833   0.009592     2.60142e-01     2.09200e-02
     11943      11946      1   0.006833   0.009592     2.60142e-01     2.09200e-02
     11942      11947      1   0.006833  -0.013767     3.00055e-01     6.91943e-02
     11942      11945      1   0.006833   0.009592     2.60142e-01     2.09200e-02
     11942      11946      1   0.006833   0.009592     2.60142e-01     2.09200e-02
     11941      11948      1  -0.004386   0.008811     3.00055e-01     6.91943e-02
     11941      11949      1  -0.004386   0.008811     3.00055e-01     6.91943e-02
     11940      11944      1   0.011241  -0.023177     3.00055e-01     6.91943e-02
     11940      11942      1   0.011241   0.005694     2.60142e-01     2.09200e-02
     11940      11943      1   0.011241   0.005694     2.60142e-01     2.09200e-02
     11939      11944      1   0.011241  -0.023177     3.00055e-01     6.91943e-02
     11939      11942      1   0.011241   0.005694     2.60142e-01     2.09200e-02
     11939      11943      1   0.011241   0.005694     2.60142e-01     2.09200e-02
     11938      11945      1  -0.026451   0.009592     3.00055e-01     6.91943e-02
     11938      11946      1  -0.026451   0.009592     3.00055e-01     6.91943e-02
     11937      11941      1   0.010172  -0.003655     3.00055e-01     6.91943e-02
     11937      11940      1   0.010172   0.009367     2.60142e-01     2.09200e-02
     11937      11939      1   0.010172   0.009367     2.60142e-01     2.09200e-02
     11936      11941      1   0.010172  -0.003655     3.00055e-01     6.91943e-02
     11936      11940      1   0.010172   0.009367     2.60142e-01     2.09200e-02
     11936      11939      1   0.010172   0.009367     2.60142e-01     2.09200e-02
     11935      11942      1  -0.014653   0.005694     3.00055e-01     6.91943e-02
     11935      11943      1  -0.014653   0.005694     3.00055e-01     6.91943e-02
     11934      11938      1   0.010037  -0.022042     3.00055e-01     6.91943e-02
     11934      11936      1   0.010037   0.008477     2.60142e-01     2.09200e-02
     11934      11937      1   0.010037   0.008477     2.60142e-01     2.09200e-02
     11933      11938      1   0.010037  -0.022042     3.00055e-01     6.91943e-02
     11933      11936      1   0.010037   0.008477     2.60142e-01     2.09200e-02
     11933      11937      1   0.010037   0.008477     2.60142e-01     2.09200e-02
     11932      11940      1  -0.021025   0.009367     3.00055e-01     6.91943e-02
     11932      11939      1  -0.021025   0.009367     3.00055e-01     6.91943e-02
     11931      11935      1   0.012677  -0.012211     3.00055e-01     6.91943e-02
     11931      11934      1   0.012677   0.008364     2.60142e-01     2.09200e-02
     11931      11933      1   0.012677   0.008364     2.60142e-01     2.09200e-02
     11930      11935      1   0.012677  -0.012211     3.00055e-01     6.91943e-02
     11930      11934      1   0.012677   0.008364     2.60142e-01     2.09200e-02
     11930      11933      1   0.012677   0.008364     2.60142e-01     2.09200e-02
     11929      11936      1  -0.031787   0.008477     3.00055e-01     6.91943e-02
     11929      11937      1  -0.031787   0.008477     3.00055e-01     6.91943e-02
     11928      11932      1   0.017208  -0.017521     3.00055e-01     6.91943e-02
     11928      11930      1   0.017208   0.010564     2.60142e-01     2.09200e-02
     11928      11931      1   0.017208   0.010564     2.60142e-01     2.09200e-02
     11927      11932      1   0.017208  -0.017521     3.00055e-01     6.91943e-02
     11927      11930      1   0.017208   0.010564     2.60142e-01     2.09200e-02
     11927      11931      1   0.017208   0.010564     2.60142e-01     2.09200e-02
     11926      11934      1  -0.028094   0.008364     3.00055e-01     6.91943e-02
     11926      11933      1  -0.028094   0.008364     3.00055e-01     6.91943e-02
     11925      11929      1   0.007531  -0.026489     3.00055e-01     6.91943e-02
     11925      11928      1   0.007531   0.014340     2.60142e-01     2.09200e-02
     11925      11927      1   0.007531   0.014340     2.60142e-01     2.09200e-02
     11924      11929      1   0.007531  -0.026489     3.00055e-01     6.91943e-02
     11924      11928      1   0.007531   0.014340     2.60142e-01     2.09200e-02
     11924      11927      1   0.007531   0.014340     2.60142e-01     2.09200e-02
     11923      11930      1   0.017463   0.010564     3.00055e-01     6.91943e-02
     11923      11931      1   0.017463   0.010564     3.00055e-01     6.91943e-02
     11922      11926      1   0.025511  -0.023412     3.00055e-01     6.91943e-02
     11922      11924      1   0.025511   0.006276     2.60142e-01     2.09200e-02
     11922      11925      1   0.025511   0.006276     2.60142e-01     2.09200e-02
     11921      11926      1   0.025511  -0.023412     3.00055e-01     6.91943e-02
     11921      11924      1   0.025511   0.006276     2.60142e-01     2.09200e-02
     11921      11925      1   0.025511   0.006276     2.60142e-01     2.09200e-02
     11920      11928      1  -0.111712   0.014340     3.00055e-01     6.91943e-02
     11920      11927      1  -0.111712   0.014340     3.00055e-01     6.91943e-02
     11919      11926      1   0.025511  -0.023412     3.00055e-01     6.91943e-02
     11919      11924      1   0.025511   0.006276     2.60142e-01     2.09200e-02
     11919      11925      1   0.025511   0.006276     2.60142e-01     2.09200e-02
     11996      12036      1  -0.673755   0.044953     2.78067e-01     9.58675e-02
     11996      12035      1  -0.673755   0.044953     2.78067e-01     9.58675e-02
     11995      12033      1   0.897613   0.015716     3.00055e-01     6.13495e-02
     11995      12032      1   0.897613   0.015716     3.00055e-01     6.13495e-02
     11994      12036      1  -0.552948   0.044953     2.80072e-01     8.62554e-02
     11994      12035      1  -0.552948   0.044953     2.80072e-01     8.62554e-02
     11987      11988      1   0.172230  -0.282478     2.67982e-01     8.67002e-02
     11986      11988      1   0.172230  -0.282478     2.67982e-01     8.67002e-02
     11985      11988      1   0.172230  -0.282478     2.67982e-01     8.67002e-02
     11984      11989      1  -0.338973   0.143525     2.67982e-01     8.67002e-02
     11984      11990      1  -0.338973   0.143525     2.67982e-01     8.67002e-02
     11984      11991      1  -0.338973   0.143525     2.67982e-01     8.67002e-02
     11983      11984      1   0.172230  -0.282478     2.67982e-01     8.67002e-02
     11983      11988      1   0.172230  -0.282478     2.67982e-01     8.67002e-02
     11982      11984      1   0.172230  -0.282478     2.67982e-01     8.67002e-02
     11982      11988      1   0.172230  -0.282478     2.67982e-01     8.67002e-02
     11981      11984      1   0.172230  -0.282478     2.67982e-01     8.67002e-02
     11981      11988      1   0.172230  -0.282478     2.67982e-01     8.67002e-02
     11980      11985      1  -0.338973   0.143525     2.67982e-01     8.67002e-02
     11980      11986      1  -0.338973   0.143525     2.67982e-01     8.67002e-02
     11980      11987      1  -0.338973   0.143525     2.67982e-01     8.67002e-02
     11980      11989      1  -0.338973   0.143525     2.67982e-01     8.67002e-02
     11980      11990      1  -0.338973   0.143525     2.67982e-01     8.67002e-02
     11980      11991      1  -0.338973   0.143525     2.67982e-01     8.67002e-02
     11978      11980      1   0.136415  -0.282478     2.67982e-01     8.67002e-02
     11978      11984      1   0.136415  -0.282478     2.67982e-01     8.67002e-02
     11978      11988      1   0.136415  -0.282478     2.67982e-01     8.67002e-02
     11977      11980      1   0.136415  -0.282478     2.67982e-01     8.67002e-02
     11977      11984      1   0.136415  -0.282478     2.67982e-01     8.67002e-02
     11977      11988      1   0.136415  -0.282478     2.67982e-01     8.67002e-02
     11976      11981      1  -0.170824   0.143525     2.67982e-01     8.67002e-02
     11976      11982      1  -0.170824   0.143525     2.67982e-01     8.67002e-02
     11976      11983      1  -0.170824   0.143525     2.67982e-01     8.67002e-02
     11976      11985      1  -0.170824   0.143525     2.67982e-01     8.67002e-02
     11976      11986      1  -0.170824   0.143525     2.67982e-01     8.67002e-02
     11976      11987      1  -0.170824   0.143525     2.67982e-01     8.67002e-02
     11976      11989      1  -0.170824   0.143525     2.67982e-01     8.67002e-02
     11976      11990      1  -0.170824   0.143525     2.67982e-01     8.67002e-02
     11976      11991      1  -0.170824   0.143525     2.67982e-01     8.67002e-02
     11975      11977      1   0.078534   0.113679     2.21567e-01     3.28444e-02
     11975      11978      1   0.078534   0.113679     2.21567e-01     3.28444e-02
     11975      11979      1   0.078534   0.204385     2.86068e-01     1.08078e-01
     11974      11977      1   0.078534   0.113679     2.21567e-01     3.28444e-02
     11974      11978      1   0.078534   0.113679     2.21567e-01     3.28444e-02
     11974      11979      1   0.078534   0.204385     2.86068e-01     1.08078e-01
     11972      11977      1  -0.508176   0.113679     2.47999e-01     1.08078e-01
     11972      11978      1  -0.508176   0.113679     2.47999e-01     1.08078e-01
     11971      11974      1   1.339721   0.065445     3.10656e-01     1.17227e-01
     11971      11975      1   1.339721   0.065445     3.10656e-01     1.17227e-01
     11969      11994      1   0.095591  -0.460790     2.73568e-01     1.08078e-01
     11969      11971      1   0.095591   1.116434     3.10656e-01     1.17227e-01
     11968      11994      1   0.095591  -0.460790     2.73568e-01     1.08078e-01
     11968      11971      1   0.095591   1.116434     3.10656e-01     1.17227e-01
     11966      11968      1   0.063253   0.079659     2.47135e-01     3.28444e-02
     11966      11969      1   0.063253   0.079659     2.47135e-01     3.28444e-02
     11966      11970      1   0.063253  -0.424567     2.73568e-01     1.08078e-01
     11966      11995      1   0.063253   0.748011     2.93551e-01     7.68707e-02
     11964      11966      1   0.070469   0.052711     2.47135e-01     3.28444e-02
     11964      11967      1   0.070469   0.014549     2.93551e-01     8.67002e-02
     11964      11994      1   0.070469  -0.460790     2.73568e-01     1.08078e-01
     11963      11966      1   0.070469   0.052711     2.47135e-01     3.28444e-02
     11963      11967      1   0.070469   0.014549     2.93551e-01     8.67002e-02
     11963      11994      1   0.070469  -0.460790     2.73568e-01     1.08078e-01
     11962      11968      1   0.196939   0.079659     2.93551e-01     8.67002e-02
     11962      11969      1   0.196939   0.079659     2.93551e-01     8.67002e-02
     11961      11966      1  -0.575489   0.052711     2.73568e-01     1.08078e-01
     11959      11963      1   0.910403   0.058724     2.93551e-01     7.68707e-02
     11959      11964      1   0.910403   0.058724     2.93551e-01     7.68707e-02
     12033      12036      1   0.018859   0.044953     2.60142e-01     2.09200e-02
     12033      12035      1   0.018859   0.044953     2.60142e-01     2.09200e-02
     12032      12036      1   0.018859   0.044953     2.60142e-01     2.09200e-02
     12032      12035      1   0.018859   0.044953     2.60142e-01     2.09200e-02
     12030      12034      1   0.020431  -0.136833     3.00055e-01     6.91943e-02
     12030      12033      1   0.020431   0.015716     2.60142e-01     2.09200e-02
     12030      12032      1   0.020431   0.015716     2.60142e-01     2.09200e-02
     12029      12034      1   0.020431  -0.136833     3.00055e-01     6.91943e-02
     12029      12033      1   0.020431   0.015716     2.60142e-01     2.09200e-02
     12029      12032      1   0.020431   0.015716     2.60142e-01     2.09200e-02
     12028      12036      1  -0.026954   0.044953     3.00055e-01     6.91943e-02
     12028      12035      1  -0.026954   0.044953     3.00055e-01     6.91943e-02
     12027      12031      1   0.010573  -0.002029     3.00055e-01     6.91943e-02
     12027      12030      1   0.010573   0.017026     2.60142e-01     2.09200e-02
     12027      12029      1   0.010573   0.017026     2.60142e-01     2.09200e-02
     12026      12031      1   0.010573  -0.002029     3.00055e-01     6.91943e-02
     12026      12030      1   0.010573   0.017026     2.60142e-01     2.09200e-02
     12026      12029      1   0.010573   0.017026     2.60142e-01     2.09200e-02
     12025      12033      1  -0.016521   0.015716     3.00055e-01     6.91943e-02
     12025      12032      1  -0.016521   0.015716     3.00055e-01     6.91943e-02
     12024      12028      1   0.011511  -0.022462     3.00055e-01     6.91943e-02
     12024      12026      1   0.011511   0.008811     2.60142e-01     2.09200e-02
     12024      12027      1   0.011511   0.008811     2.60142e-01     2.09200e-02
     12023      12028      1   0.011511  -0.022462     3.00055e-01     6.91943e-02
     12023      12026      1   0.011511   0.008811     2.60142e-01     2.09200e-02
     12023      12027      1   0.011511   0.008811     2.60142e-01     2.09200e-02
     12022      12030      1  -0.027812   0.017026     3.00055e-01     6.91943e-02
     12022      12029      1  -0.027812   0.017026     3.00055e-01     6.91943e-02
     12021      12025      1   0.006833  -0.013767     3.00055e-01     6.91943e-02
     12021      12023      1   0.006833   0.009592     2.60142e-01     2.09200e-02
     12021      12024      1   0.006833   0.009592     2.60142e-01     2.09200e-02
     12020      12025      1   0.006833  -0.013767     3.00055e-01     6.91943e-02
     12020      12023      1   0.006833   0.009592     2.60142e-01     2.09200e-02
     12020      12024      1   0.006833   0.009592     2.60142e-01     2.09200e-02
     12019      12026      1  -0.004386   0.008811     3.00055e-01     6.91943e-02
     12019      12027      1  -0.004386   0.008811     3.00055e-01     6.91943e-02
     12018      12022      1   0.011241  -0.023177     3.00055e-01     6.91943e-02
     12018      12020      1   0.011241   0.005694     2.60142e-01     2.09200e-02
     12018      12021      1   0.011241   0.005694     2.60142e-01     2.09200e-02
     12017      12022      1   0.011241  -0.023177     3.00055e-01     6.91943e-02
     12017      12020      1   0.011241   0.005694     2.60142e-01     2.09200e-02
     12017      12021      1   0.011241   0.005694     2.60142e-01     2.09200e-02
     12016      12023      1  -0.026451   0.009592     3.00055e-01     6.91943e-02
     12016      12024      1  -0.026451   0.009592     3.00055e-01     6.91943e-02
     12015      12019      1   0.010172  -0.003655     3.00055e-01     6.91943e-02
     12015      12018      1   0.010172   0.009367     2.60142e-01     2.09200e-02
     12015      12017      1   0.010172   0.009367     2.60142e-01     2.09200e-02
     12014      12019      1   0.010172  -0.003655     3.00055e-01     6.91943e-02
     12014      12018      1   0.010172   0.009367     2.60142e-01     2.09200e-02
     12014      12017      1   0.010172   0.009367     2.60142e-01     2.09200e-02
     12013      12020      1  -0.014653   0.005694     3.00055e-01     6.91943e-02
     12013      12021      1  -0.014653   0.005694     3.00055e-01     6.91943e-02
     12012      12016      1   0.010037  -0.022042     3.00055e-01     6.91943e-02
     12012      12014      1   0.010037   0.008477     2.60142e-01     2.09200e-02
     12012      12015      1   0.010037   0.008477     2.60142e-01     2.09200e-02
     12011      12016      1   0.010037  -0.022042     3.00055e-01     6.91943e-02
     12011      12014      1   0.010037   0.008477     2.60142e-01     2.09200e-02
     12011      12015      1   0.010037   0.008477     2.60142e-01     2.09200e-02
     12010      12018      1  -0.021025   0.009367     3.00055e-01     6.91943e-02
     12010      12017      1  -0.021025   0.009367     3.00055e-01     6.91943e-02
     12009      12013      1   0.012677  -0.012211     3.00055e-01     6.91943e-02
     12009      12012      1   0.012677   0.008364     2.60142e-01     2.09200e-02
     12009      12011      1   0.012677   0.008364     2.60142e-01     2.09200e-02
     12008      12013      1   0.012677  -0.012211     3.00055e-01     6.91943e-02
     12008      12012      1   0.012677   0.008364     2.60142e-01     2.09200e-02
     12008      12011      1   0.012677   0.008364     2.60142e-01     2.09200e-02
     12007      12014      1  -0.031787   0.008477     3.00055e-01     6.91943e-02
     12007      12015      1  -0.031787   0.008477     3.00055e-01     6.91943e-02
     12006      12010      1   0.017208  -0.017521     3.00055e-01     6.91943e-02
     12006      12008      1   0.017208   0.010564     2.60142e-01     2.09200e-02
     12006      12009      1   0.017208   0.010564     2.60142e-01     2.09200e-02
     12005      12010      1   0.017208  -0.017521     3.00055e-01     6.91943e-02
     12005      12008      1   0.017208   0.010564     2.60142e-01     2.09200e-02
     12005      12009      1   0.017208   0.010564     2.60142e-01     2.09200e-02
     12004      12012      1  -0.028094   0.008364     3.00055e-01     6.91943e-02
     12004      12011      1  -0.028094   0.008364     3.00055e-01     6.91943e-02
     12003      12007      1   0.007531  -0.026489     3.00055e-01     6.91943e-02
     12003      12006      1   0.007531   0.014340     2.60142e-01     2.09200e-02
     12003      12005      1   0.007531   0.014340     2.60142e-01     2.09200e-02
     12002      12007      1   0.007531  -0.026489     3.00055e-01     6.91943e-02
     12002      12006      1   0.007531   0.014340     2.60142e-01     2.09200e-02
     12002      12005      1   0.007531   0.014340     2.60142e-01     2.09200e-02
     12001      12008      1   0.017463   0.010564     3.00055e-01     6.91943e-02
     12001      12009      1   0.017463   0.010564     3.00055e-01     6.91943e-02
     12000      12004      1   0.025511  -0.023412     3.00055e-01     6.91943e-02
     12000      12002      1   0.025511   0.006276     2.60142e-01     2.09200e-02
     12000      12003      1   0.025511   0.006276     2.60142e-01     2.09200e-02
     11999      12004      1   0.025511  -0.023412     3.00055e-01     6.91943e-02
     11999      12002      1   0.025511   0.006276     2.60142e-01     2.09200e-02
     11999      12003      1   0.025511   0.006276     2.60142e-01     2.09200e-02
     11998      12006      1  -0.111712   0.014340     3.00055e-01     6.91943e-02
     11998      12005      1  -0.111712   0.014340     3.00055e-01     6.91943e-02
     11997      12004      1   0.025511  -0.023412     3.00055e-01     6.91943e-02
     11997      12002      1   0.025511   0.006276     2.60142e-01     2.09200e-02
     11997      12003      1   0.025511   0.006276     2.60142e-01     2.09200e-02
     12076      12078      1   0.053944  -0.559638     2.78067e-01     9.58675e-02
     12076      12079      1   0.053944  -0.479574     2.80072e-01     8.62554e-02
     12075      12078      1   0.053944  -0.559638     2.78067e-01     9.58675e-02
     12075      12079      1   0.053944  -0.479574     2.80072e-01     8.62554e-02
     12073      12076      1   0.018859   0.044953     2.60142e-01     2.09200e-02
     12073      12075      1   0.018859   0.044953     2.60142e-01     2.09200e-02
     12073      12077      1   0.018859   0.758669     3.00055e-01     6.13495e-02
     12072      12076      1   0.018859   0.044953     2.60142e-01     2.09200e-02
     12072      12075      1   0.018859   0.044953     2.60142e-01     2.09200e-02
     12072      12077      1   0.018859   0.758669     3.00055e-01     6.13495e-02
     12070      12074      1   0.020431  -0.136833     3.00055e-01     6.91943e-02
     12070      12073      1   0.020431   0.015716     2.60142e-01     2.09200e-02
     12070      12072      1   0.020431   0.015716     2.60142e-01     2.09200e-02
     12069      12074      1   0.020431  -0.136833     3.00055e-01     6.91943e-02
     12069      12073      1   0.020431   0.015716     2.60142e-01     2.09200e-02
     12069      12072      1   0.020431   0.015716     2.60142e-01     2.09200e-02
     12068      12076      1  -0.026954   0.044953     3.00055e-01     6.91943e-02
     12068      12075      1  -0.026954   0.044953     3.00055e-01     6.91943e-02
     12067      12071      1   0.010573  -0.002029     3.00055e-01     6.91943e-02
     12067      12070      1   0.010573   0.017026     2.60142e-01     2.09200e-02
     12067      12069      1   0.010573   0.017026     2.60142e-01     2.09200e-02
     12066      12071      1   0.010573  -0.002029     3.00055e-01     6.91943e-02
     12066      12070      1   0.010573   0.017026     2.60142e-01     2.09200e-02
     12066      12069      1   0.010573   0.017026     2.60142e-01     2.09200e-02
     12065      12073      1  -0.016521   0.015716     3.00055e-01     6.91943e-02
     12065      12072      1  -0.016521   0.015716     3.00055e-01     6.91943e-02
     12064      12068      1   0.011511  -0.022462     3.00055e-01     6.91943e-02
     12064      12066      1   0.011511   0.008811     2.60142e-01     2.09200e-02
     12064      12067      1   0.011511   0.008811     2.60142e-01     2.09200e-02
     12063      12068      1   0.011511  -0.022462     3.00055e-01     6.91943e-02
     12063      12066      1   0.011511   0.008811     2.60142e-01     2.09200e-02
     12063      12067      1   0.011511   0.008811     2.60142e-01     2.09200e-02
     12062      12070      1  -0.027812   0.017026     3.00055e-01     6.91943e-02
     12062      12069      1  -0.027812   0.017026     3.00055e-01     6.91943e-02
     12061      12065      1   0.006833  -0.013767     3.00055e-01     6.91943e-02
     12061      12063      1   0.006833   0.009592     2.60142e-01     2.09200e-02
     12061      12064      1   0.006833   0.009592     2.60142e-01     2.09200e-02
     12060      12065      1   0.006833  -0.013767     3.00055e-01     6.91943e-02
     12060      12063      1   0.006833   0.009592     2.60142e-01     2.09200e-02
     12060      12064      1   0.006833   0.009592     2.60142e-01     2.09200e-02
     12059      12066      1  -0.004386   0.008811     3.00055e-01     6.91943e-02
     12059      12067      1  -0.004386   0.008811     3.00055e-01     6.91943e-02
     12058      12062      1   0.011241  -0.023177     3.00055e-01     6.91943e-02
     12058      12060      1   0.011241   0.005694     2.60142e-01     2.09200e-02
     12058      12061      1   0.011241   0.005694     2.60142e-01     2.09200e-02
     12057      12062      1   0.011241  -0.023177     3.00055e-01     6.91943e-02
     12057      12060      1   0.011241   0.005694     2.60142e-01     2.09200e-02
     12057      12061      1   0.011241   0.005694     2.60142e-01     2.09200e-02
     12056      12063      1  -0.026451   0.009592     3.00055e-01     6.91943e-02
     12056      12064      1  -0.026451   0.009592     3.00055e-01     6.91943e-02
     12055      12059      1   0.010172  -0.003655     3.00055e-01     6.91943e-02
     12055      12058      1   0.010172   0.009367     2.60142e-01     2.09200e-02
     12055      12057      1   0.010172   0.009367     2.60142e-01     2.09200e-02
     12054      12059      1   0.010172  -0.003655     3.00055e-01     6.91943e-02
     12054      12058      1   0.010172   0.009367     2.60142e-01     2.09200e-02
     12054      12057      1   0.010172   0.009367     2.60142e-01     2.09200e-02
     12053      12060      1  -0.014653   0.005694     3.00055e-01     6.91943e-02
     12053      12061      1  -0.014653   0.005694     3.00055e-01     6.91943e-02
     12052      12056      1   0.010037  -0.022042     3.00055e-01     6.91943e-02
     12052      12054      1   0.010037   0.008477     2.60142e-01     2.09200e-02
     12052      12055      1   0.010037   0.008477     2.60142e-01     2.09200e-02
     12051      12056      1   0.010037  -0.022042     3.00055e-01     6.91943e-02
     12051      12054      1   0.010037   0.008477     2.60142e-01     2.09200e-02
     12051      12055      1   0.010037   0.008477     2.60142e-01     2.09200e-02
     12050      12058      1  -0.021025   0.009367     3.00055e-01     6.91943e-02
     12050      12057      1  -0.021025   0.009367     3.00055e-01     6.91943e-02
     12049      12053      1   0.012677  -0.012211     3.00055e-01     6.91943e-02
     12049      12052      1   0.012677   0.008364     2.60142e-01     2.09200e-02
     12049      12051      1   0.012677   0.008364     2.60142e-01     2.09200e-02
     12048      12053      1   0.012677  -0.012211     3.00055e-01     6.91943e-02
     12048      12052      1   0.012677   0.008364     2.60142e-01     2.09200e-02
     12048      12051      1   0.012677   0.008364     2.60142e-01     2.09200e-02
     12047      12054      1  -0.031787   0.008477     3.00055e-01     6.91943e-02
     12047      12055      1  -0.031787   0.008477     3.00055e-01     6.91943e-02
     12046      12050      1   0.017208  -0.017521     3.00055e-01     6.91943e-02
     12046      12048      1   0.017208   0.010564     2.60142e-01     2.09200e-02
     12046      12049      1   0.017208   0.010564     2.60142e-01     2.09200e-02
     12045      12050      1   0.017208  -0.017521     3.00055e-01     6.91943e-02
     12045      12048      1   0.017208   0.010564     2.60142e-01     2.09200e-02
     12045      12049      1   0.017208   0.010564     2.60142e-01     2.09200e-02
     12044      12052      1  -0.028094   0.008364     3.00055e-01     6.91943e-02
     12044      12051      1  -0.028094   0.008364     3.00055e-01     6.91943e-02
     12043      12047      1   0.007531  -0.026489     3.00055e-01     6.91943e-02
     12043      12046      1   0.007531   0.014340     2.60142e-01     2.09200e-02
     12043      12045      1   0.007531   0.014340     2.60142e-01     2.09200e-02
     12042      12047      1   0.007531  -0.026489     3.00055e-01     6.91943e-02
     12042      12046      1   0.007531   0.014340     2.60142e-01     2.09200e-02
     12042      12045      1   0.007531   0.014340     2.60142e-01     2.09200e-02
     12041      12048      1   0.017463   0.010564     3.00055e-01     6.91943e-02
     12041      12049      1   0.017463   0.010564     3.00055e-01     6.91943e-02
     12040      12044      1   0.025511  -0.023412     3.00055e-01     6.91943e-02
     12040      12042      1   0.025511   0.006276     2.60142e-01     2.09200e-02
     12040      12043      1   0.025511   0.006276     2.60142e-01     2.09200e-02
     12039      12044      1   0.025511  -0.023412     3.00055e-01     6.91943e-02
     12039      12042      1   0.025511   0.006276     2.60142e-01     2.09200e-02
     12039      12043      1   0.025511   0.006276     2.60142e-01     2.09200e-02
     12038      12046      1  -0.111712   0.014340     3.00055e-01     6.91943e-02
     12038      12045      1  -0.111712   0.014340     3.00055e-01     6.91943e-02
     12037      12044      1   0.025511  -0.023412     3.00055e-01     6.91943e-02
     12037      12042      1   0.025511   0.006276     2.60142e-01     2.09200e-02
     12037      12043      1   0.025511   0.006276     2.60142e-01     2.09200e-02
     12114      12154      1  -0.673755   0.044953     2.78067e-01     9.58675e-02
     12114      12153      1  -0.673755   0.044953     2.78067e-01     9.58675e-02
     12113      12151      1   0.897613   0.015716     3.00055e-01     6.13495e-02
     12113      12150      1   0.897613   0.015716     3.00055e-01     6.13495e-02
     12112      12154      1  -0.552948   0.044953     2.80072e-01     8.62554e-02
     12112      12153      1  -0.552948   0.044953     2.80072e-01     8.62554e-02
     12105      12106      1   0.172230  -0.282478     2.67982e-01     8.67002e-02
     12104      12106      1   0.172230  -0.282478     2.67982e-01     8.67002e-02
     12103      12106      1   0.172230  -0.282478     2.67982e-01     8.67002e-02
     12102      12107      1  -0.338973   0.143525     2.67982e-01     8.67002e-02
     12102      12108      1  -0.338973   0.143525     2.67982e-01     8.67002e-02
     12102      12109      1  -0.338973   0.143525     2.67982e-01     8.67002e-02
     12101      12102      1   0.172230  -0.282478     2.67982e-01     8.67002e-02
     12101      12106      1   0.172230  -0.282478     2.67982e-01     8.67002e-02
     12100      12102      1   0.172230  -0.282478     2.67982e-01     8.67002e-02
     12100      12106      1   0.172230  -0.282478     2.67982e-01     8.67002e-02
     12099      12102      1   0.172230  -0.282478     2.67982e-01     8.67002e-02
     12099      12106      1   0.172230  -0.282478     2.67982e-01     8.67002e-02
     12098      12103      1  -0.338973   0.143525     2.67982e-01     8.67002e-02
     12098      12104      1  -0.338973   0.143525     2.67982e-01     8.67002e-02
     12098      12105      1  -0.338973   0.143525     2.67982e-01     8.67002e-02
     12098      12107      1  -0.338973   0.143525     2.67982e-01     8.67002e-02
     12098      12108      1  -0.338973   0.143525     2.67982e-01     8.67002e-02
     12098      12109      1  -0.338973   0.143525     2.67982e-01     8.67002e-02
     12096      12098      1   0.136415  -0.282478     2.67982e-01     8.67002e-02
     12096      12102      1   0.136415  -0.282478     2.67982e-01     8.67002e-02
     12096      12106      1   0.136415  -0.282478     2.67982e-01     8.67002e-02
     12095      12098      1   0.136415  -0.282478     2.67982e-01     8.67002e-02
     12095      12102      1   0.136415  -0.282478     2.67982e-01     8.67002e-02
     12095      12106      1   0.136415  -0.282478     2.67982e-01     8.67002e-02
     12094      12099      1  -0.170824   0.143525     2.67982e-01     8.67002e-02
     12094      12100      1  -0.170824   0.143525     2.67982e-01     8.67002e-02
     12094      12101      1  -0.170824   0.143525     2.67982e-01     8.67002e-02
     12094      12103      1  -0.170824   0.143525     2.67982e-01     8.67002e-02
     12094      12104      1  -0.170824   0.143525     2.67982e-01     8.67002e-02
     12094      12105      1  -0.170824   0.143525     2.67982e-01     8.67002e-02
     12094      12107      1  -0.170824   0.143525     2.67982e-01     8.67002e-02
     12094      12108      1  -0.170824   0.143525     2.67982e-01     8.67002e-02
     12094      12109      1  -0.170824   0.143525     2.67982e-01     8.67002e-02
     12093      12095      1   0.078534   0.113679     2.21567e-01     3.28444e-02
     12093      12096      1   0.078534   0.113679     2.21567e-01     3.28444e-02
     12093      12097      1   0.078534   0.204385     2.86068e-01     1.08078e-01
     12092      12095      1   0.078534   0.113679     2.21567e-01     3.28444e-02
     12092      12096      1   0.078534   0.113679     2.21567e-01     3.28444e-02
     12092      12097      1   0.078534   0.204385     2.86068e-01     1.08078e-01
     12090      12095      1  -0.508176   0.113679     2.47999e-01     1.08078e-01
     12090      12096      1  -0.508176   0.113679     2.47999e-01     1.08078e-01
     12089      12092      1   1.339721   0.065445     3.10656e-01     1.17227e-01
     12089      12093      1   1.339721   0.065445     3.10656e-01     1.17227e-01
     12087      12112      1   0.095591  -0.460790     2.73568e-01     1.08078e-01
     12087      12089      1   0.095591   1.116434     3.10656e-01     1.17227e-01
     12086      12112      1   0.095591  -0.460790     2.73568e-01     1.08078e-01
     12086      12089      1   0.095591   1.116434     3.10656e-01     1.17227e-01
     12084      12086      1   0.063253   0.079659     2.47135e-01     3.28444e-02
     12084      12087      1   0.063253   0.079659     2.47135e-01     3.28444e-02
     12084      12088      1   0.063253  -0.424567     2.73568e-01     1.08078e-01
     12084      12113      1   0.063253   0.748011     2.93551e-01     7.68707e-02
     12082      12084      1   0.070469   0.052711     2.47135e-01     3.28444e-02
     12082      12085      1   0.070469   0.014549     2.93551e-01     8.67002e-02
     12082      12112      1   0.070469  -0.460790     2.73568e-01     1.08078e-01
     12081      12084      1   0.070469   0.052711     2.47135e-01     3.28444e-02
     12081      12085      1   0.070469   0.014549     2.93551e-01     8.67002e-02
     12081      12112      1   0.070469  -0.460790     2.73568e-01     1.08078e-01
     12080      12086      1   0.196939   0.079659     2.93551e-01     8.67002e-02
     12080      12087      1   0.196939   0.079659     2.93551e-01     8.67002e-02
     12079      12084      1  -0.575489   0.052711     2.73568e-01     1.08078e-01
     12077      12081      1   0.910403   0.058724     2.93551e-01     7.68707e-02
     12077      12082      1   0.910403   0.058724     2.93551e-01     7.68707e-02
     12151      12154      1   0.018859   0.044953     2.60142e-01     2.09200e-02
     12151      12153      1   0.018859   0.044953     2.60142e-01     2.09200e-02
     12150      12154      1   0.018859   0.044953     2.60142e-01     2.09200e-02
     12150      12153      1   0.018859   0.044953     2.60142e-01     2.09200e-02
     12148      12152      1   0.020431  -0.136833     3.00055e-01     6.91943e-02
     12148      12151      1   0.020431   0.015716     2.60142e-01     2.09200e-02
     12148      12150      1   0.020431   0.015716     2.60142e-01     2.09200e-02
     12147      12152      1   0.020431  -0.136833     3.00055e-01     6.91943e-02
     12147      12151      1   0.020431   0.015716     2.60142e-01     2.09200e-02
     12147      12150      1   0.020431   0.015716     2.60142e-01     2.09200e-02
     12146      12154      1  -0.026954   0.044953     3.00055e-01     6.91943e-02
     12146      12153      1  -0.026954   0.044953     3.00055e-01     6.91943e-02
     12145      12149      1   0.010573  -0.002029     3.00055e-01     6.91943e-02
     12145      12148      1   0.010573   0.017026     2.60142e-01     2.09200e-02
     12145      12147      1   0.010573   0.017026     2.60142e-01     2.09200e-02
     12144      12149      1   0.010573  -0.002029     3.00055e-01     6.91943e-02
     12144      12148      1   0.010573   0.017026     2.60142e-01     2.09200e-02
     12144      12147      1   0.010573   0.017026     2.60142e-01     2.09200e-02
     12143      12151      1  -0.016521   0.015716     3.00055e-01     6.91943e-02
     12143      12150      1  -0.016521   0.015716     3.00055e-01     6.91943e-02
     12142      12146      1   0.011511  -0.022462     3.00055e-01     6.91943e-02
     12142      12144      1   0.011511   0.008811     2.60142e-01     2.09200e-02
     12142      12145      1   0.011511   0.008811     2.60142e-01     2.09200e-02
     12141      12146      1   0.011511  -0.022462     3.00055e-01     6.91943e-02
     12141      12144      1   0.011511   0.008811     2.60142e-01     2.09200e-02
     12141      12145      1   0.011511   0.008811     2.60142e-01     2.09200e-02
     12140      12148      1  -0.027812   0.017026     3.00055e-01     6.91943e-02
     12140      12147      1  -0.027812   0.017026     3.00055e-01     6.91943e-02
     12139      12143      1   0.006833  -0.013767     3.00055e-01     6.91943e-02
     12139      12141      1   0.006833   0.009592     2.60142e-01     2.09200e-02
     12139      12142      1   0.006833   0.009592     2.60142e-01     2.09200e-02
     12138      12143      1   0.006833  -0.013767     3.00055e-01     6.91943e-02
     12138      12141      1   0.006833   0.009592     2.60142e-01     2.09200e-02
     12138      12142      1   0.006833   0.009592     2.60142e-01     2.09200e-02
     12137      12144      1  -0.004386   0.008811     3.00055e-01     6.91943e-02
     12137      12145      1  -0.004386   0.008811     3.00055e-01     6.91943e-02
     12136      12140      1   0.011241  -0.023177     3.00055e-01     6.91943e-02
     12136      12138      1   0.011241   0.005694     2.60142e-01     2.09200e-02
     12136      12139      1   0.011241   0.005694     2.60142e-01     2.09200e-02
     12135      12140      1   0.011241  -0.023177     3.00055e-01     6.91943e-02
     12135      12138      1   0.011241   0.005694     2.60142e-01     2.09200e-02
     12135      12139      1   0.011241   0.005694     2.60142e-01     2.09200e-02
     12134      12141      1  -0.026451   0.009592     3.00055e-01     6.91943e-02
     12134      12142      1  -0.026451   0.009592     3.00055e-01     6.91943e-02
     12133      12137      1   0.010172  -0.003655     3.00055e-01     6.91943e-02
     12133      12136      1   0.010172   0.009367     2.60142e-01     2.09200e-02
     12133      12135      1   0.010172   0.009367     2.60142e-01     2.09200e-02
     12132      12137      1   0.010172  -0.003655     3.00055e-01     6.91943e-02
     12132      12136      1   0.010172   0.009367     2.60142e-01     2.09200e-02
     12132      12135      1   0.010172   0.009367     2.60142e-01     2.09200e-02
     12131      12138      1  -0.014653   0.005694     3.00055e-01     6.91943e-02
     12131      12139      1  -0.014653   0.005694     3.00055e-01     6.91943e-02
     12130      12134      1   0.010037  -0.022042     3.00055e-01     6.91943e-02
     12130      12132      1   0.010037   0.008477     2.60142e-01     2.09200e-02
     12130      12133      1   0.010037   0.008477     2.60142e-01     2.09200e-02
     12129      12134      1   0.010037  -0.022042     3.00055e-01     6.91943e-02
     12129      12132      1   0.010037   0.008477     2.60142e-01     2.09200e-02
     12129      12133      1   0.010037   0.008477     2.60142e-01     2.09200e-02
     12128      12136      1  -0.021025   0.009367     3.00055e-01     6.91943e-02
     12128      12135      1  -0.021025   0.009367     3.00055e-01     6.91943e-02
     12127      12131      1   0.012677  -0.012211     3.00055e-01     6.91943e-02
     12127      12130      1   0.012677   0.008364     2.60142e-01     2.09200e-02
     12127      12129      1   0.012677   0.008364     2.60142e-01     2.09200e-02
     12126      12131      1   0.012677  -0.012211     3.00055e-01     6.91943e-02
     12126      12130      1   0.012677   0.008364     2.60142e-01     2.09200e-02
     12126      12129      1   0.012677   0.008364     2.60142e-01     2.09200e-02
     12125      12132      1  -0.031787   0.008477     3.00055e-01     6.91943e-02
     12125      12133      1  -0.031787   0.008477     3.00055e-01     6.91943e-02
     12124      12128      1   0.017208  -0.017521     3.00055e-01     6.91943e-02
     12124      12126      1   0.017208   0.010564     2.60142e-01     2.09200e-02
     12124      12127      1   0.017208   0.010564     2.60142e-01     2.09200e-02
     12123      12128      1   0.017208  -0.017521     3.00055e-01     6.91943e-02
     12123      12126      1   0.017208   0.010564     2.60142e-01     2.09200e-02
     12123      12127      1   0.017208   0.010564     2.60142e-01     2.09200e-02
     12122      12130      1  -0.028094   0.008364     3.00055e-01     6.91943e-02
     12122      12129      1  -0.028094   0.008364     3.00055e-01     6.91943e-02
     12121      12125      1   0.007531  -0.026489     3.00055e-01     6.91943e-02
     12121      12124      1   0.007531   0.014340     2.60142e-01     2.09200e-02
     12121      12123      1   0.007531   0.014340     2.60142e-01     2.09200e-02
     12120      12125      1   0.007531  -0.026489     3.00055e-01     6.91943e-02
     12120      12124      1   0.007531   0.014340     2.60142e-01     2.09200e-02
     12120      12123      1   0.007531   0.014340     2.60142e-01     2.09200e-02
     12119      12126      1   0.017463   0.010564     3.00055e-01     6.91943e-02
     12119      12127      1   0.017463   0.010564     3.00055e-01     6.91943e-02
     12118      12122      1   0.025511  -0.023412     3.00055e-01     6.91943e-02
     12118      12120      1   0.025511   0.006276     2.60142e-01     2.09200e-02
     12118      12121      1   0.025511   0.006276     2.60142e-01     2.09200e-02
     12117      12122      1   0.025511  -0.023412     3.00055e-01     6.91943e-02
     12117      12120      1   0.025511   0.006276     2.60142e-01     2.09200e-02
     12117      12121      1   0.025511   0.006276     2.60142e-01     2.09200e-02
     12116      12124      1  -0.111712   0.014340     3.00055e-01     6.91943e-02
     12116      12123      1  -0.111712   0.014340     3.00055e-01     6.91943e-02
     12115      12122      1   0.025511  -0.023412     3.00055e-01     6.91943e-02
     12115      12120      1   0.025511   0.006276     2.60142e-01     2.09200e-02
     12115      12121      1   0.025511   0.006276     2.60142e-01     2.09200e-02
     12194      12196      1   0.053944  -0.559638     2.78067e-01     9.58675e-02
     12194      12197      1   0.053944  -0.479574     2.80072e-01     8.62554e-02
     12193      12196      1   0.053944  -0.559638     2.78067e-01     9.58675e-02
     12193      12197      1   0.053944  -0.479574     2.80072e-01     8.62554e-02
     12191      12194      1   0.018859   0.044953     2.60142e-01     2.09200e-02
     12191      12193      1   0.018859   0.044953     2.60142e-01     2.09200e-02
     12191      12195      1   0.018859   0.758669     3.00055e-01     6.13495e-02
     12190      12194      1   0.018859   0.044953     2.60142e-01     2.09200e-02
     12190      12193      1   0.018859   0.044953     2.60142e-01     2.09200e-02
     12190      12195      1   0.018859   0.758669     3.00055e-01     6.13495e-02
     12188      12192      1   0.020431  -0.136833     3.00055e-01     6.91943e-02
     12188      12191      1   0.020431   0.015716     2.60142e-01     2.09200e-02
     12188      12190      1   0.020431   0.015716     2.60142e-01     2.09200e-02
     12187      12192      1   0.020431  -0.136833     3.00055e-01     6.91943e-02
     12187      12191      1   0.020431   0.015716     2.60142e-01     2.09200e-02
     12187      12190      1   0.020431   0.015716     2.60142e-01     2.09200e-02
     12186      12194      1  -0.026954   0.044953     3.00055e-01     6.91943e-02
     12186      12193      1  -0.026954   0.044953     3.00055e-01     6.91943e-02
     12185      12189      1   0.010573  -0.002029     3.00055e-01     6.91943e-02
     12185      12188      1   0.010573   0.017026     2.60142e-01     2.09200e-02
     12185      12187      1   0.010573   0.017026     2.60142e-01     2.09200e-02
     12184      12189      1   0.010573  -0.002029     3.00055e-01     6.91943e-02
     12184      12188      1   0.010573   0.017026     2.60142e-01     2.09200e-02
     12184      12187      1   0.010573   0.017026     2.60142e-01     2.09200e-02
     12183      12191      1  -0.016521   0.015716     3.00055e-01     6.91943e-02
     12183      12190      1  -0.016521   0.015716     3.00055e-01     6.91943e-02
     12182      12186      1   0.011511  -0.022462     3.00055e-01     6.91943e-02
     12182      12184      1   0.011511   0.008811     2.60142e-01     2.09200e-02
     12182      12185      1   0.011511   0.008811     2.60142e-01     2.09200e-02
     12181      12186      1   0.011511  -0.022462     3.00055e-01     6.91943e-02
     12181      12184      1   0.011511   0.008811     2.60142e-01     2.09200e-02
     12181      12185      1   0.011511   0.008811     2.60142e-01     2.09200e-02
     12180      12188      1  -0.027812   0.017026     3.00055e-01     6.91943e-02
     12180      12187      1  -0.027812   0.017026     3.00055e-01     6.91943e-02
     12179      12183      1   0.006833  -0.013767     3.00055e-01     6.91943e-02
     12179      12181      1   0.006833   0.009592     2.60142e-01     2.09200e-02
     12179      12182      1   0.006833   0.009592     2.60142e-01     2.09200e-02
     12178      12183      1   0.006833  -0.013767     3.00055e-01     6.91943e-02
     12178      12181      1   0.006833   0.009592     2.60142e-01     2.09200e-02
     12178      12182      1   0.006833   0.009592     2.60142e-01     2.09200e-02
     12177      12184      1  -0.004386   0.008811     3.00055e-01     6.91943e-02
     12177      12185      1  -0.004386   0.008811     3.00055e-01     6.91943e-02
     12176      12180      1   0.011241  -0.023177     3.00055e-01     6.91943e-02
     12176      12178      1   0.011241   0.005694     2.60142e-01     2.09200e-02
     12176      12179      1   0.011241   0.005694     2.60142e-01     2.09200e-02
     12175      12180      1   0.011241  -0.023177     3.00055e-01     6.91943e-02
     12175      12178      1   0.011241   0.005694     2.60142e-01     2.09200e-02
     12175      12179      1   0.011241   0.005694     2.60142e-01     2.09200e-02
     12174      12181      1  -0.026451   0.009592     3.00055e-01     6.91943e-02
     12174      12182      1  -0.026451   0.009592     3.00055e-01     6.91943e-02
     12173      12177      1   0.010172  -0.003655     3.00055e-01     6.91943e-02
     12173      12176      1   0.010172   0.009367     2.60142e-01     2.09200e-02
     12173      12175      1   0.010172   0.009367     2.60142e-01     2.09200e-02
     12172      12177      1   0.010172  -0.003655     3.00055e-01     6.91943e-02
     12172      12176      1   0.010172   0.009367     2.60142e-01     2.09200e-02
     12172      12175      1   0.010172   0.009367     2.60142e-01     2.09200e-02
     12171      12178      1  -0.014653   0.005694     3.00055e-01     6.91943e-02
     12171      12179      1  -0.014653   0.005694     3.00055e-01     6.91943e-02
     12170      12174      1   0.010037  -0.022042     3.00055e-01     6.91943e-02
     12170      12172      1   0.010037   0.008477     2.60142e-01     2.09200e-02
     12170      12173      1   0.010037   0.008477     2.60142e-01     2.09200e-02
     12169      12174      1   0.010037  -0.022042     3.00055e-01     6.91943e-02
     12169      12172      1   0.010037   0.008477     2.60142e-01     2.09200e-02
     12169      12173      1   0.010037   0.008477     2.60142e-01     2.09200e-02
     12168      12176      1  -0.021025   0.009367     3.00055e-01     6.91943e-02
     12168      12175      1  -0.021025   0.009367     3.00055e-01     6.91943e-02
     12167      12171      1   0.012677  -0.012211     3.00055e-01     6.91943e-02
     12167      12170      1   0.012677   0.008364     2.60142e-01     2.09200e-02
     12167      12169      1   0.012677   0.008364     2.60142e-01     2.09200e-02
     12166      12171      1   0.012677  -0.012211     3.00055e-01     6.91943e-02
     12166      12170      1   0.012677   0.008364     2.60142e-01     2.09200e-02
     12166      12169      1   0.012677   0.008364     2.60142e-01     2.09200e-02
     12165      12172      1  -0.031787   0.008477     3.00055e-01     6.91943e-02
     12165      12173      1  -0.031787   0.008477     3.00055e-01     6.91943e-02
     12164      12168      1   0.017208  -0.017521     3.00055e-01     6.91943e-02
     12164      12166      1   0.017208   0.010564     2.60142e-01     2.09200e-02
     12164      12167      1   0.017208   0.010564     2.60142e-01     2.09200e-02
     12163      12168      1   0.017208  -0.017521     3.00055e-01     6.91943e-02
     12163      12166      1   0.017208   0.010564     2.60142e-01     2.09200e-02
     12163      12167      1   0.017208   0.010564     2.60142e-01     2.09200e-02
     12162      12170      1  -0.028094   0.008364     3.00055e-01     6.91943e-02
     12162      12169      1  -0.028094   0.008364     3.00055e-01     6.91943e-02
     12161      12165      1   0.007531  -0.026489     3.00055e-01     6.91943e-02
     12161      12164      1   0.007531   0.014340     2.60142e-01     2.09200e-02
     12161      12163      1   0.007531   0.014340     2.60142e-01     2.09200e-02
     12160      12165      1   0.007531  -0.026489     3.00055e-01     6.91943e-02
     12160      12164      1   0.007531   0.014340     2.60142e-01     2.09200e-02
     12160      12163      1   0.007531   0.014340     2.60142e-01     2.09200e-02
     12159      12166      1   0.017463   0.010564     3.00055e-01     6.91943e-02
     12159      12167      1   0.017463   0.010564     3.00055e-01     6.91943e-02
     12158      12162      1   0.025511  -0.023412     3.00055e-01     6.91943e-02
     12158      12160      1   0.025511   0.006276     2.60142e-01     2.09200e-02
     12158      12161      1   0.025511   0.006276     2.60142e-01     2.09200e-02
     12157      12162      1   0.025511  -0.023412     3.00055e-01     6.91943e-02
     12157      12160      1   0.025511   0.006276     2.60142e-01     2.09200e-02
     12157      12161      1   0.025511   0.006276     2.60142e-01     2.09200e-02
     12156      12164      1  -0.111712   0.014340     3.00055e-01     6.91943e-02
     12156      12163      1  -0.111712   0.014340     3.00055e-01     6.91943e-02
     12155      12162      1   0.025511  -0.023412     3.00055e-01     6.91943e-02
     12155      12160      1   0.025511   0.006276     2.60142e-01     2.09200e-02
     12155      12161      1   0.025511   0.006276     2.60142e-01     2.09200e-02
     12232      12272      1  -0.673755   0.044953     2.78067e-01     9.58675e-02
     12232      12271      1  -0.673755   0.044953     2.78067e-01     9.58675e-02
     12231      12269      1   0.897613   0.015716     3.00055e-01     6.13495e-02
     12231      12268      1   0.897613   0.015716     3.00055e-01     6.13495e-02
     12230      12272      1  -0.552948   0.044953     2.80072e-01     8.62554e-02
     12230      12271      1  -0.552948   0.044953     2.80072e-01     8.62554e-02
     12223      12224      1   0.172230  -0.282478     2.67982e-01     8.67002e-02
     12222      12224      1   0.172230  -0.282478     2.67982e-01     8.67002e-02
     12221      12224      1   0.172230  -0.282478     2.67982e-01     8.67002e-02
     12220      12225      1  -0.338973   0.143525     2.67982e-01     8.67002e-02
     12220      12226      1  -0.338973   0.143525     2.67982e-01     8.67002e-02
     12220      12227      1  -0.338973   0.143525     2.67982e-01     8.67002e-02
     12219      12220      1   0.172230  -0.282478     2.67982e-01     8.67002e-02
     12219      12224      1   0.172230  -0.282478     2.67982e-01     8.67002e-02
     12218      12220      1   0.172230  -0.282478     2.67982e-01     8.67002e-02
     12218      12224      1   0.172230  -0.282478     2.67982e-01     8.67002e-02
     12217      12220      1   0.172230  -0.282478     2.67982e-01     8.67002e-02
     12217      12224      1   0.172230  -0.282478     2.67982e-01     8.67002e-02
     12216      12221      1  -0.338973   0.143525     2.67982e-01     8.67002e-02
     12216      12222      1  -0.338973   0.143525     2.67982e-01     8.67002e-02
     12216      12223      1  -0.338973   0.143525     2.67982e-01     8.67002e-02
     12216      12225      1  -0.338973   0.143525     2.67982e-01     8.67002e-02
     12216      12226      1  -0.338973   0.143525     2.67982e-01     8.67002e-02
     12216      12227      1  -0.338973   0.143525     2.67982e-01     8.67002e-02
     12214      12216      1   0.136415  -0.282478     2.67982e-01     8.67002e-02
     12214      12220      1   0.136415  -0.282478     2.67982e-01     8.67002e-02
     12214      12224      1   0.136415  -0.282478     2.67982e-01     8.67002e-02
     12213      12216      1   0.136415  -0.282478     2.67982e-01     8.67002e-02
     12213      12220      1   0.136415  -0.282478     2.67982e-01     8.67002e-02
     12213      12224      1   0.136415  -0.282478     2.67982e-01     8.67002e-02
     12212      12217      1  -0.170824   0.143525     2.67982e-01     8.67002e-02
     12212      12218      1  -0.170824   0.143525     2.67982e-01     8.67002e-02
     12212      12219      1  -0.170824   0.143525     2.67982e-01     8.67002e-02
     12212      12221      1  -0.170824   0.143525     2.67982e-01     8.67002e-02
     12212      12222      1  -0.170824   0.143525     2.67982e-01     8.67002e-02
     12212      12223      1  -0.170824   0.143525     2.67982e-01     8.67002e-02
     12212      12225      1  -0.170824   0.143525     2.67982e-01     8.67002e-02
     12212      12226      1  -0.170824   0.143525     2.67982e-01     8.67002e-02
     12212      12227      1  -0.170824   0.143525     2.67982e-01     8.67002e-02
     12211      12213      1   0.078534   0.113679     2.21567e-01     3.28444e-02
     12211      12214      1   0.078534   0.113679     2.21567e-01     3.28444e-02
     12211      12215      1   0.078534   0.204385     2.86068e-01     1.08078e-01
     12210      12213      1   0.078534   0.113679     2.21567e-01     3.28444e-02
     12210      12214      1   0.078534   0.113679     2.21567e-01     3.28444e-02
     12210      12215      1   0.078534   0.204385     2.86068e-01     1.08078e-01
     12208      12213      1  -0.508176   0.113679     2.47999e-01     1.08078e-01
     12208      12214      1  -0.508176   0.113679     2.47999e-01     1.08078e-01
     12207      12210      1   1.339721   0.065445     3.10656e-01     1.17227e-01
     12207      12211      1   1.339721   0.065445     3.10656e-01     1.17227e-01
     12205      12230      1   0.095591  -0.460790     2.73568e-01     1.08078e-01
     12205      12207      1   0.095591   1.116434     3.10656e-01     1.17227e-01
     12204      12230      1   0.095591  -0.460790     2.73568e-01     1.08078e-01
     12204      12207      1   0.095591   1.116434     3.10656e-01     1.17227e-01
     12202      12204      1   0.063253   0.079659     2.47135e-01     3.28444e-02
     12202      12205      1   0.063253   0.079659     2.47135e-01     3.28444e-02
     12202      12206      1   0.063253  -0.424567     2.73568e-01     1.08078e-01
     12202      12231      1   0.063253   0.748011     2.93551e-01     7.68707e-02
     12200      12202      1   0.070469   0.052711     2.47135e-01     3.28444e-02
     12200      12203      1   0.070469   0.014549     2.93551e-01     8.67002e-02
     12200      12230      1   0.070469  -0.460790     2.73568e-01     1.08078e-01
     12199      12202      1   0.070469   0.052711     2.47135e-01     3.28444e-02
     12199      12203      1   0.070469   0.014549     2.93551e-01     8.67002e-02
     12199      12230      1   0.070469  -0.460790     2.73568e-01     1.08078e-01
     12198      12204      1   0.196939   0.079659     2.93551e-01     8.67002e-02
     12198      12205      1   0.196939   0.079659     2.93551e-01     8.67002e-02
     12197      12202      1  -0.575489   0.052711     2.73568e-01     1.08078e-01
     12195      12199      1   0.910403   0.058724     2.93551e-01     7.68707e-02
     12195      12200      1   0.910403   0.058724     2.93551e-01     7.68707e-02
     12269      12272      1   0.018859   0.044953     2.60142e-01     2.09200e-02
     12269      12271      1   0.018859   0.044953     2.60142e-01     2.09200e-02
     12268      12272      1   0.018859   0.044953     2.60142e-01     2.09200e-02
     12268      12271      1   0.018859   0.044953     2.60142e-01     2.09200e-02
     12266      12270      1   0.020431  -0.136833     3.00055e-01     6.91943e-02
     12266      12269      1   0.020431   0.015716     2.60142e-01     2.09200e-02
     12266      12268      1   0.020431   0.015716     2.60142e-01     2.09200e-02
     12265      12270      1   0.020431  -0.136833     3.00055e-01     6.91943e-02
     12265      12269      1   0.020431   0.015716     2.60142e-01     2.09200e-02
     12265      12268      1   0.020431   0.015716     2.60142e-01     2.09200e-02
     12264      12272      1  -0.026954   0.044953     3.00055e-01     6.91943e-02
     12264      12271      1  -0.026954   0.044953     3.00055e-01     6.91943e-02
     12263      12267      1   0.010573  -0.002029     3.00055e-01     6.91943e-02
     12263      12266      1   0.010573   0.017026     2.60142e-01     2.09200e-02
     12263      12265      1   0.010573   0.017026     2.60142e-01     2.09200e-02
     12262      12267      1   0.010573  -0.002029     3.00055e-01     6.91943e-02
     12262      12266      1   0.010573   0.017026     2.60142e-01     2.09200e-02
     12262      12265      1   0.010573   0.017026     2.60142e-01     2.09200e-02
     12261      12269      1  -0.016521   0.015716     3.00055e-01     6.91943e-02
     12261      12268      1  -0.016521   0.015716     3.00055e-01     6.91943e-02
     12260      12264      1   0.011511  -0.022462     3.00055e-01     6.91943e-02
     12260      12262      1   0.011511   0.008811     2.60142e-01     2.09200e-02
     12260      12263      1   0.011511   0.008811     2.60142e-01     2.09200e-02
     12259      12264      1   0.011511  -0.022462     3.00055e-01     6.91943e-02
     12259      12262      1   0.011511   0.008811     2.60142e-01     2.09200e-02
     12259      12263      1   0.011511   0.008811     2.60142e-01     2.09200e-02
     12258      12266      1  -0.027812   0.017026     3.00055e-01     6.91943e-02
     12258      12265      1  -0.027812   0.017026     3.00055e-01     6.91943e-02
     12257      12261      1   0.006833  -0.013767     3.00055e-01     6.91943e-02
     12257      12259      1   0.006833   0.009592     2.60142e-01     2.09200e-02
     12257      12260      1   0.006833   0.009592     2.60142e-01     2.09200e-02
     12256      12261      1   0.006833  -0.013767     3.00055e-01     6.91943e-02
     12256      12259      1   0.006833   0.009592     2.60142e-01     2.09200e-02
     12256      12260      1   0.006833   0.009592     2.60142e-01     2.09200e-02
     12255      12262      1  -0.004386   0.008811     3.00055e-01     6.91943e-02
     12255      12263      1  -0.004386   0.008811     3.00055e-01     6.91943e-02
     12254      12258      1   0.011241  -0.023177     3.00055e-01     6.91943e-02
     12254      12256      1   0.011241   0.005694     2.60142e-01     2.09200e-02
     12254      12257      1   0.011241   0.005694     2.60142e-01     2.09200e-02
     12253      12258      1   0.011241  -0.023177     3.00055e-01     6.91943e-02
     12253      12256      1   0.011241   0.005694     2.60142e-01     2.09200e-02
     12253      12257      1   0.011241   0.005694     2.60142e-01     2.09200e-02
     12252      12259      1  -0.026451   0.009592     3.00055e-01     6.91943e-02
     12252      12260      1  -0.026451   0.009592     3.00055e-01     6.91943e-02
     12251      12255      1   0.010172  -0.003655     3.00055e-01     6.91943e-02
     12251      12254      1   0.010172   0.009367     2.60142e-01     2.09200e-02
     12251      12253      1   0.010172   0.009367     2.60142e-01     2.09200e-02
     12250      12255      1   0.010172  -0.003655     3.00055e-01     6.91943e-02
     12250      12254      1   0.010172   0.009367     2.60142e-01     2.09200e-02
     12250      12253      1   0.010172   0.009367     2.60142e-01     2.09200e-02
     12249      12256      1  -0.014653   0.005694     3.00055e-01     6.91943e-02
     12249      12257      1  -0.014653   0.005694     3.00055e-01     6.91943e-02
     12248      12252      1   0.010037  -0.022042     3.00055e-01     6.91943e-02
     12248      12250      1   0.010037   0.008477     2.60142e-01     2.09200e-02
     12248      12251      1   0.010037   0.008477     2.60142e-01     2.09200e-02
     12247      12252      1   0.010037  -0.022042     3.00055e-01     6.91943e-02
     12247      12250      1   0.010037   0.008477     2.60142e-01     2.09200e-02
     12247      12251      1   0.010037   0.008477     2.60142e-01     2.09200e-02
     12246      12254      1  -0.021025   0.009367     3.00055e-01     6.91943e-02
     12246      12253      1  -0.021025   0.009367     3.00055e-01     6.91943e-02
     12245      12249      1   0.012677  -0.012211     3.00055e-01     6.91943e-02
     12245      12248      1   0.012677   0.008364     2.60142e-01     2.09200e-02
     12245      12247      1   0.012677   0.008364     2.60142e-01     2.09200e-02
     12244      12249      1   0.012677  -0.012211     3.00055e-01     6.91943e-02
     12244      12248      1   0.012677   0.008364     2.60142e-01     2.09200e-02
     12244      12247      1   0.012677   0.008364     2.60142e-01     2.09200e-02
     12243      12250      1  -0.031787   0.008477     3.00055e-01     6.91943e-02
     12243      12251      1  -0.031787   0.008477     3.00055e-01     6.91943e-02
     12242      12246      1   0.017208  -0.017521     3.00055e-01     6.91943e-02
     12242      12244      1   0.017208   0.010564     2.60142e-01     2.09200e-02
     12242      12245      1   0.017208   0.010564     2.60142e-01     2.09200e-02
     12241      12246      1   0.017208  -0.017521     3.00055e-01     6.91943e-02
     12241      12244      1   0.017208   0.010564     2.60142e-01     2.09200e-02
     12241      12245      1   0.017208   0.010564     2.60142e-01     2.09200e-02
     12240      12248      1  -0.028094   0.008364     3.00055e-01     6.91943e-02
     12240      12247      1  -0.028094   0.008364     3.00055e-01     6.91943e-02
     12239      12243      1   0.007531  -0.026489     3.00055e-01     6.91943e-02
     12239      12242      1   0.007531   0.014340     2.60142e-01     2.09200e-02
     12239      12241      1   0.007531   0.014340     2.60142e-01     2.09200e-02
     12238      12243      1   0.007531  -0.026489     3.00055e-01     6.91943e-02
     12238      12242      1   0.007531   0.014340     2.60142e-01     2.09200e-02
     12238      12241      1   0.007531   0.014340     2.60142e-01     2.09200e-02
     12237      12244      1   0.017463   0.010564     3.00055e-01     6.91943e-02
     12237      12245      1   0.017463   0.010564     3.00055e-01     6.91943e-02
     12236      12240      1   0.025511  -0.023412     3.00055e-01     6.91943e-02
     12236      12238      1   0.025511   0.006276     2.60142e-01     2.09200e-02
     12236      12239      1   0.025511   0.006276     2.60142e-01     2.09200e-02
     12235      12240      1   0.025511  -0.023412     3.00055e-01     6.91943e-02
     12235      12238      1   0.025511   0.006276     2.60142e-01     2.09200e-02
     12235      12239      1   0.025511   0.006276     2.60142e-01     2.09200e-02
     12234      12242      1  -0.111712   0.014340     3.00055e-01     6.91943e-02
     12234      12241      1  -0.111712   0.014340     3.00055e-01     6.91943e-02
     12233      12240      1   0.025511  -0.023412     3.00055e-01     6.91943e-02
     12233      12238      1   0.025511   0.006276     2.60142e-01     2.09200e-02
     12233      12239      1   0.025511   0.006276     2.60142e-01     2.09200e-02
     12312      12314      1   0.053944  -0.559638     2.78067e-01     9.58675e-02
     12312      12315      1   0.053944  -0.479574     2.80072e-01     8.62554e-02
     12311      12314      1   0.053944  -0.559638     2.78067e-01     9.58675e-02
     12311      12315      1   0.053944  -0.479574     2.80072e-01     8.62554e-02
     12309      12312      1   0.018859   0.044953     2.60142e-01     2.09200e-02
     12309      12311      1   0.018859   0.044953     2.60142e-01     2.09200e-02
     12309      12313      1   0.018859   0.758669     3.00055e-01     6.13495e-02
     12308      12312      1   0.018859   0.044953     2.60142e-01     2.09200e-02
     12308      12311      1   0.018859   0.044953     2.60142e-01     2.09200e-02
     12308      12313      1   0.018859   0.758669     3.00055e-01     6.13495e-02
     12306      12310      1   0.020431  -0.136833     3.00055e-01     6.91943e-02
     12306      12309      1   0.020431   0.015716     2.60142e-01     2.09200e-02
     12306      12308      1   0.020431   0.015716     2.60142e-01     2.09200e-02
     12305      12310      1   0.020431  -0.136833     3.00055e-01     6.91943e-02
     12305      12309      1   0.020431   0.015716     2.60142e-01     2.09200e-02
     12305      12308      1   0.020431   0.015716     2.60142e-01     2.09200e-02
     12304      12312      1  -0.026954   0.044953     3.00055e-01     6.91943e-02
     12304      12311      1  -0.026954   0.044953     3.00055e-01     6.91943e-02
     12303      12307      1   0.010573  -0.002029     3.00055e-01     6.91943e-02
     12303      12306      1   0.010573   0.017026     2.60142e-01     2.09200e-02
     12303      12305      1   0.010573   0.017026     2.60142e-01     2.09200e-02
     12302      12307      1   0.010573  -0.002029     3.00055e-01     6.91943e-02
     12302      12306      1   0.010573   0.017026     2.60142e-01     2.09200e-02
     12302      12305      1   0.010573   0.017026     2.60142e-01     2.09200e-02
     12301      12309      1  -0.016521   0.015716     3.00055e-01     6.91943e-02
     12301      12308      1  -0.016521   0.015716     3.00055e-01     6.91943e-02
     12300      12304      1   0.011511  -0.022462     3.00055e-01     6.91943e-02
     12300      12302      1   0.011511   0.008811     2.60142e-01     2.09200e-02
     12300      12303      1   0.011511   0.008811     2.60142e-01     2.09200e-02
     12299      12304      1   0.011511  -0.022462     3.00055e-01     6.91943e-02
     12299      12302      1   0.011511   0.008811     2.60142e-01     2.09200e-02
     12299      12303      1   0.011511   0.008811     2.60142e-01     2.09200e-02
     12298      12306      1  -0.027812   0.017026     3.00055e-01     6.91943e-02
     12298      12305      1  -0.027812   0.017026     3.00055e-01     6.91943e-02
     12297      12301      1   0.006833  -0.013767     3.00055e-01     6.91943e-02
     12297      12299      1   0.006833   0.009592     2.60142e-01     2.09200e-02
     12297      12300      1   0.006833   0.009592     2.60142e-01     2.09200e-02
     12296      12301      1   0.006833  -0.013767     3.00055e-01     6.91943e-02
     12296      12299      1   0.006833   0.009592     2.60142e-01     2.09200e-02
     12296      12300      1   0.006833   0.009592     2.60142e-01     2.09200e-02
     12295      12302      1  -0.004386   0.008811     3.00055e-01     6.91943e-02
     12295      12303      1  -0.004386   0.008811     3.00055e-01     6.91943e-02
     12294      12298      1   0.011241  -0.023177     3.00055e-01     6.91943e-02
     12294      12296      1   0.011241   0.005694     2.60142e-01     2.09200e-02
     12294      12297      1   0.011241   0.005694     2.60142e-01     2.09200e-02
     12293      12298      1   0.011241  -0.023177     3.00055e-01     6.91943e-02
     12293      12296      1   0.011241   0.005694     2.60142e-01     2.09200e-02
     12293      12297      1   0.011241   0.005694     2.60142e-01     2.09200e-02
     12292      12299      1  -0.026451   0.009592     3.00055e-01     6.91943e-02
     12292      12300      1  -0.026451   0.009592     3.00055e-01     6.91943e-02
     12291      12295      1   0.010172  -0.003655     3.00055e-01     6.91943e-02
     12291      12294      1   0.010172   0.009367     2.60142e-01     2.09200e-02
     12291      12293      1   0.010172   0.009367     2.60142e-01     2.09200e-02
     12290      12295      1   0.010172  -0.003655     3.00055e-01     6.91943e-02
     12290      12294      1   0.010172   0.009367     2.60142e-01     2.09200e-02
     12290      12293      1   0.010172   0.009367     2.60142e-01     2.09200e-02
     12289      12296      1  -0.014653   0.005694     3.00055e-01     6.91943e-02
     12289      12297      1  -0.014653   0.005694     3.00055e-01     6.91943e-02
     12288      12292      1   0.010037  -0.022042     3.00055e-01     6.91943e-02
     12288      12290      1   0.010037   0.008477     2.60142e-01     2.09200e-02
     12288      12291      1   0.010037   0.008477     2.60142e-01     2.09200e-02
     12287      12292      1   0.010037  -0.022042     3.00055e-01     6.91943e-02
     12287      12290      1   0.010037   0.008477     2.60142e-01     2.09200e-02
     12287      12291      1   0.010037   0.008477     2.60142e-01     2.09200e-02
     12286      12294      1  -0.021025   0.009367     3.00055e-01     6.91943e-02
     12286      12293      1  -0.021025   0.009367     3.00055e-01     6.91943e-02
     12285      12289      1   0.012677  -0.012211     3.00055e-01     6.91943e-02
     12285      12288      1   0.012677   0.008364     2.60142e-01     2.09200e-02
     12285      12287      1   0.012677   0.008364     2.60142e-01     2.09200e-02
     12284      12289      1   0.012677  -0.012211     3.00055e-01     6.91943e-02
     12284      12288      1   0.012677   0.008364     2.60142e-01     2.09200e-02
     12284      12287      1   0.012677   0.008364     2.60142e-01     2.09200e-02
     12283      12290      1  -0.031787   0.008477     3.00055e-01     6.91943e-02
     12283      12291      1  -0.031787   0.008477     3.00055e-01     6.91943e-02
     12282      12286      1   0.017208  -0.017521     3.00055e-01     6.91943e-02
     12282      12284      1   0.017208   0.010564     2.60142e-01     2.09200e-02
     12282      12285      1   0.017208   0.010564     2.60142e-01     2.09200e-02
     12281      12286      1   0.017208  -0.017521     3.00055e-01     6.91943e-02
     12281      12284      1   0.017208   0.010564     2.60142e-01     2.09200e-02
     12281      12285      1   0.017208   0.010564     2.60142e-01     2.09200e-02
     12280      12288      1  -0.028094   0.008364     3.00055e-01     6.91943e-02
     12280      12287      1  -0.028094   0.008364     3.00055e-01     6.91943e-02
     12279      12283      1   0.007531  -0.026489     3.00055e-01     6.91943e-02
     12279      12282      1   0.007531   0.014340     2.60142e-01     2.09200e-02
     12279      12281      1   0.007531   0.014340     2.60142e-01     2.09200e-02
     12278      12283      1   0.007531  -0.026489     3.00055e-01     6.91943e-02
     12278      12282      1   0.007531   0.014340     2.60142e-01     2.09200e-02
     12278      12281      1   0.007531   0.014340     2.60142e-01     2.09200e-02
     12277      12284      1   0.017463   0.010564     3.00055e-01     6.91943e-02
     12277      12285      1   0.017463   0.010564     3.00055e-01     6.91943e-02
     12276      12280      1   0.025511  -0.023412     3.00055e-01     6.91943e-02
     12276      12278      1   0.025511   0.006276     2.60142e-01     2.09200e-02
     12276      12279      1   0.025511   0.006276     2.60142e-01     2.09200e-02
     12275      12280      1   0.025511  -0.023412     3.00055e-01     6.91943e-02
     12275      12278      1   0.025511   0.006276     2.60142e-01     2.09200e-02
     12275      12279      1   0.025511   0.006276     2.60142e-01     2.09200e-02
     12274      12282      1  -0.111712   0.014340     3.00055e-01     6.91943e-02
     12274      12281      1  -0.111712   0.014340     3.00055e-01     6.91943e-02
     12273      12280      1   0.025511  -0.023412     3.00055e-01     6.91943e-02
     12273      12278      1   0.025511   0.006276     2.60142e-01     2.09200e-02
     12273      12279      1   0.025511   0.006276     2.60142e-01     2.09200e-02
     12350      12390      1  -0.673755   0.044953     2.78067e-01     9.58675e-02
     12350      12389      1  -0.673755   0.044953     2.78067e-01     9.58675e-02
     12349      12387      1   0.897613   0.015716     3.00055e-01     6.13495e-02
     12349      12386      1   0.897613   0.015716     3.00055e-01     6.13495e-02
     12348      12390      1  -0.552948   0.044953     2.80072e-01     8.62554e-02
     12348      12389      1  -0.552948   0.044953     2.80072e-01     8.62554e-02
     12341      12342      1   0.172230  -0.282478     2.67982e-01     8.67002e-02
     12340      12342      1   0.172230  -0.282478     2.67982e-01     8.67002e-02
     12339      12342      1   0.172230  -0.282478     2.67982e-01     8.67002e-02
     12338      12343      1  -0.338973   0.143525     2.67982e-01     8.67002e-02
     12338      12344      1  -0.338973   0.143525     2.67982e-01     8.67002e-02
     12338      12345      1  -0.338973   0.143525     2.67982e-01     8.67002e-02
     12337      12338      1   0.172230  -0.282478     2.67982e-01     8.67002e-02
     12337      12342      1   0.172230  -0.282478     2.67982e-01     8.67002e-02
     12336      12338      1   0.172230  -0.282478     2.67982e-01     8.67002e-02
     12336      12342      1   0.172230  -0.282478     2.67982e-01     8.67002e-02
     12335      12338      1   0.172230  -0.282478     2.67982e-01     8.67002e-02
     12335      12342      1   0.172230  -0.282478     2.67982e-01     8.67002e-02
     12334      12339      1  -0.338973   0.143525     2.67982e-01     8.67002e-02
     12334      12340      1  -0.338973   0.143525     2.67982e-01     8.67002e-02
     12334      12341      1  -0.338973   0.143525     2.67982e-01     8.67002e-02
     12334      12343      1  -0.338973   0.143525     2.67982e-01     8.67002e-02
     12334      12344      1  -0.338973   0.143525     2.67982e-01     8.67002e-02
     12334      12345      1  -0.338973   0.143525     2.67982e-01     8.67002e-02
     12332      12334      1   0.136415  -0.282478     2.67982e-01     8.67002e-02
     12332      12338      1   0.136415  -0.282478     2.67982e-01     8.67002e-02
     12332      12342      1   0.136415  -0.282478     2.67982e-01     8.67002e-02
     12331      12334      1   0.136415  -0.282478     2.67982e-01     8.67002e-02
     12331      12338      1   0.136415  -0.282478     2.67982e-01     8.67002e-02
     12331      12342      1   0.136415  -0.282478     2.67982e-01     8.67002e-02
     12330      12335      1  -0.170824   0.143525     2.67982e-01     8.67002e-02
     12330      12336      1  -0.170824   0.143525     2.67982e-01     8.67002e-02
     12330      12337      1  -0.170824   0.143525     2.67982e-01     8.67002e-02
     12330      12339      1  -0.170824   0.143525     2.67982e-01     8.67002e-02
     12330      12340      1  -0.170824   0.143525     2.67982e-01     8.67002e-02
     12330      12341      1  -0.170824   0.143525     2.67982e-01     8.67002e-02
     12330      12343      1  -0.170824   0.143525     2.67982e-01     8.67002e-02
     12330      12344      1  -0.170824   0.143525     2.67982e-01     8.67002e-02
     12330      12345      1  -0.170824   0.143525     2.67982e-01     8.67002e-02
     12329      12331      1   0.078534   0.113679     2.21567e-01     3.28444e-02
     12329      12332      1   0.078534   0.113679     2.21567e-01     3.28444e-02
     12329      12333      1   0.078534   0.204385     2.86068e-01     1.08078e-01
     12328      12331      1   0.078534   0.113679     2.21567e-01     3.28444e-02
     12328      12332      1   0.078534   0.113679     2.21567e-01     3.28444e-02
     12328      12333      1   0.078534   0.204385     2.86068e-01     1.08078e-01
     12326      12331      1  -0.508176   0.113679     2.47999e-01     1.08078e-01
     12326      12332      1  -0.508176   0.113679     2.47999e-01     1.08078e-01
     12325      12328      1   1.339721   0.065445     3.10656e-01     1.17227e-01
     12325      12329      1   1.339721   0.065445     3.10656e-01     1.17227e-01
     12323      12348      1   0.095591  -0.460790     2.73568e-01     1.08078e-01
     12323      12325      1   0.095591   1.116434     3.10656e-01     1.17227e-01
     12322      12348      1   0.095591  -0.460790     2.73568e-01     1.08078e-01
     12322      12325      1   0.095591   1.116434     3.10656e-01     1.17227e-01
     12320      12322      1   0.063253   0.079659     2.47135e-01     3.28444e-02
     12320      12323      1   0.063253   0.079659     2.47135e-01     3.28444e-02
     12320      12324      1   0.063253  -0.424567     2.73568e-01     1.08078e-01
     12320      12349      1   0.063253   0.748011     2.93551e-01     7.68707e-02
     12318      12320      1   0.070469   0.052711     2.47135e-01     3.28444e-02
     12318      12321      1   0.070469   0.014549     2.93551e-01     8.67002e-02
     12318      12348      1   0.070469  -0.460790     2.73568e-01     1.08078e-01
     12317      12320      1   0.070469   0.052711     2.47135e-01     3.28444e-02
     12317      12321      1   0.070469   0.014549     2.93551e-01     8.67002e-02
     12317      12348      1   0.070469  -0.460790     2.73568e-01     1.08078e-01
     12316      12322      1   0.196939   0.079659     2.93551e-01     8.67002e-02
     12316      12323      1   0.196939   0.079659     2.93551e-01     8.67002e-02
     12315      12320      1  -0.575489   0.052711     2.73568e-01     1.08078e-01
     12313      12317      1   0.910403   0.058724     2.93551e-01     7.68707e-02
     12313      12318      1   0.910403   0.058724     2.93551e-01     7.68707e-02
     12387      12390      1   0.018859   0.044953     2.60142e-01     2.09200e-02
     12387      12389      1   0.018859   0.044953     2.60142e-01     2.09200e-02
     12386      12390      1   0.018859   0.044953     2.60142e-01     2.09200e-02
     12386      12389      1   0.018859   0.044953     2.60142e-01     2.09200e-02
     12384      12388      1   0.020431  -0.136833     3.00055e-01     6.91943e-02
     12384      12387      1   0.020431   0.015716     2.60142e-01     2.09200e-02
     12384      12386      1   0.020431   0.015716     2.60142e-01     2.09200e-02
     12383      12388      1   0.020431  -0.136833     3.00055e-01     6.91943e-02
     12383      12387      1   0.020431   0.015716     2.60142e-01     2.09200e-02
     12383      12386      1   0.020431   0.015716     2.60142e-01     2.09200e-02
     12382      12390      1  -0.026954   0.044953     3.00055e-01     6.91943e-02
     12382      12389      1  -0.026954   0.044953     3.00055e-01     6.91943e-02
     12381      12385      1   0.010573  -0.002029     3.00055e-01     6.91943e-02
     12381      12384      1   0.010573   0.017026     2.60142e-01     2.09200e-02
     12381      12383      1   0.010573   0.017026     2.60142e-01     2.09200e-02
     12380      12385      1   0.010573  -0.002029     3.00055e-01     6.91943e-02
     12380      12384      1   0.010573   0.017026     2.60142e-01     2.09200e-02
     12380      12383      1   0.010573   0.017026     2.60142e-01     2.09200e-02
     12379      12387      1  -0.016521   0.015716     3.00055e-01     6.91943e-02
     12379      12386      1  -0.016521   0.015716     3.00055e-01     6.91943e-02
     12378      12382      1   0.011511  -0.022462     3.00055e-01     6.91943e-02
     12378      12380      1   0.011511   0.008811     2.60142e-01     2.09200e-02
     12378      12381      1   0.011511   0.008811     2.60142e-01     2.09200e-02
     12377      12382      1   0.011511  -0.022462     3.00055e-01     6.91943e-02
     12377      12380      1   0.011511   0.008811     2.60142e-01     2.09200e-02
     12377      12381      1   0.011511   0.008811     2.60142e-01     2.09200e-02
     12376      12384      1  -0.027812   0.017026     3.00055e-01     6.91943e-02
     12376      12383      1  -0.027812   0.017026     3.00055e-01     6.91943e-02
     12375      12379      1   0.006833  -0.013767     3.00055e-01     6.91943e-02
     12375      12377      1   0.006833   0.009592     2.60142e-01     2.09200e-02
     12375      12378      1   0.006833   0.009592     2.60142e-01     2.09200e-02
     12374      12379      1   0.006833  -0.013767     3.00055e-01     6.91943e-02
     12374      12377      1   0.006833   0.009592     2.60142e-01     2.09200e-02
     12374      12378      1   0.006833   0.009592     2.60142e-01     2.09200e-02
     12373      12380      1  -0.004386   0.008811     3.00055e-01     6.91943e-02
     12373      12381      1  -0.004386   0.008811     3.00055e-01     6.91943e-02
     12372      12376      1   0.011241  -0.023177     3.00055e-01     6.91943e-02
     12372      12374      1   0.011241   0.005694     2.60142e-01     2.09200e-02
     12372      12375      1   0.011241   0.005694     2.60142e-01     2.09200e-02
     12371      12376      1   0.011241  -0.023177     3.00055e-01     6.91943e-02
     12371      12374      1   0.011241   0.005694     2.60142e-01     2.09200e-02
     12371      12375      1   0.011241   0.005694     2.60142e-01     2.09200e-02
     12370      12377      1  -0.026451   0.009592     3.00055e-01     6.91943e-02
     12370      12378      1  -0.026451   0.009592     3.00055e-01     6.91943e-02
     12369      12373      1   0.010172  -0.003655     3.00055e-01     6.91943e-02
     12369      12372      1   0.010172   0.009367     2.60142e-01     2.09200e-02
     12369      12371      1   0.010172   0.009367     2.60142e-01     2.09200e-02
     12368      12373      1   0.010172  -0.003655     3.00055e-01     6.91943e-02
     12368      12372      1   0.010172   0.009367     2.60142e-01     2.09200e-02
     12368      12371      1   0.010172   0.009367     2.60142e-01     2.09200e-02
     12367      12374      1  -0.014653   0.005694     3.00055e-01     6.91943e-02
     12367      12375      1  -0.014653   0.005694     3.00055e-01     6.91943e-02
     12366      12370      1   0.010037  -0.022042     3.00055e-01     6.91943e-02
     12366      12368      1   0.010037   0.008477     2.60142e-01     2.09200e-02
     12366      12369      1   0.010037   0.008477     2.60142e-01     2.09200e-02
     12365      12370      1   0.010037  -0.022042     3.00055e-01     6.91943e-02
     12365      12368      1   0.010037   0.008477     2.60142e-01     2.09200e-02
     12365      12369      1   0.010037   0.008477     2.60142e-01     2.09200e-02
     12364      12372      1  -0.021025   0.009367     3.00055e-01     6.91943e-02
     12364      12371      1  -0.021025   0.009367     3.00055e-01     6.91943e-02
     12363      12367      1   0.012677  -0.012211     3.00055e-01     6.91943e-02
     12363      12366      1   0.012677   0.008364     2.60142e-01     2.09200e-02
     12363      12365      1   0.012677   0.008364     2.60142e-01     2.09200e-02
     12362      12367      1   0.012677  -0.012211     3.00055e-01     6.91943e-02
     12362      12366      1   0.012677   0.008364     2.60142e-01     2.09200e-02
     12362      12365      1   0.012677   0.008364     2.60142e-01     2.09200e-02
     12361      12368      1  -0.031787   0.008477     3.00055e-01     6.91943e-02
     12361      12369      1  -0.031787   0.008477     3.00055e-01     6.91943e-02
     12360      12364      1   0.017208  -0.017521     3.00055e-01     6.91943e-02
     12360      12362      1   0.017208   0.010564     2.60142e-01     2.09200e-02
     12360      12363      1   0.017208   0.010564     2.60142e-01     2.09200e-02
     12359      12364      1   0.017208  -0.017521     3.00055e-01     6.91943e-02
     12359      12362      1   0.017208   0.010564     2.60142e-01     2.09200e-02
     12359      12363      1   0.017208   0.010564     2.60142e-01     2.09200e-02
     12358      12366      1  -0.028094   0.008364     3.00055e-01     6.91943e-02
     12358      12365      1  -0.028094   0.008364     3.00055e-01     6.91943e-02
     12357      12361      1   0.007531  -0.026489     3.00055e-01     6.91943e-02
     12357      12360      1   0.007531   0.014340     2.60142e-01     2.09200e-02
     12357      12359      1   0.007531   0.014340     2.60142e-01     2.09200e-02
     12356      12361      1   0.007531  -0.026489     3.00055e-01     6.91943e-02
     12356      12360      1   0.007531   0.014340     2.60142e-01     2.09200e-02
     12356      12359      1   0.007531   0.014340     2.60142e-01     2.09200e-02
     12355      12362      1   0.017463   0.010564     3.00055e-01     6.91943e-02
     12355      12363      1   0.017463   0.010564     3.00055e-01     6.91943e-02
     12354      12358      1   0.025511  -0.023412     3.00055e-01     6.91943e-02
     12354      12356      1   0.025511   0.006276     2.60142e-01     2.09200e-02
     12354      12357      1   0.025511   0.006276     2.60142e-01     2.09200e-02
     12353      12358      1   0.025511  -0.023412     3.00055e-01     6.91943e-02
     12353      12356      1   0.025511   0.006276     2.60142e-01     2.09200e-02
     12353      12357      1   0.025511   0.006276     2.60142e-01     2.09200e-02
     12352      12360      1  -0.111712   0.014340     3.00055e-01     6.91943e-02
     12352      12359      1  -0.111712   0.014340     3.00055e-01     6.91943e-02
     12351      12358      1   0.025511  -0.023412     3.00055e-01     6.91943e-02
     12351      12356      1   0.025511   0.006276     2.60142e-01     2.09200e-02
     12351      12357      1   0.025511   0.006276     2.60142e-01     2.09200e-02
     12430      12432      1   0.053944  -0.559638     2.78067e-01     9.58675e-02
     12430      12433      1   0.053944  -0.479574     2.80072e-01     8.62554e-02
     12429      12432      1   0.053944  -0.559638     2.78067e-01     9.58675e-02
     12429      12433      1   0.053944  -0.479574     2.80072e-01     8.62554e-02
     12427      12430      1   0.018859   0.044953     2.60142e-01     2.09200e-02
     12427      12429      1   0.018859   0.044953     2.60142e-01     2.09200e-02
     12427      12431      1   0.018859   0.758669     3.00055e-01     6.13495e-02
     12426      12430      1   0.018859   0.044953     2.60142e-01     2.09200e-02
     12426      12429      1   0.018859   0.044953     2.60142e-01     2.09200e-02
     12426      12431      1   0.018859   0.758669     3.00055e-01     6.13495e-02
     12424      12428      1   0.020431  -0.136833     3.00055e-01     6.91943e-02
     12424      12427      1   0.020431   0.015716     2.60142e-01     2.09200e-02
     12424      12426      1   0.020431   0.015716     2.60142e-01     2.09200e-02
     12423      12428      1   0.020431  -0.136833     3.00055e-01     6.91943e-02
     12423      12427      1   0.020431   0.015716     2.60142e-01     2.09200e-02
     12423      12426      1   0.020431   0.015716     2.60142e-01     2.09200e-02
     12422      12430      1  -0.026954   0.044953     3.00055e-01     6.91943e-02
     12422      12429      1  -0.026954   0.044953     3.00055e-01     6.91943e-02
     12421      12425      1   0.010573  -0.002029     3.00055e-01     6.91943e-02
     12421      12424      1   0.010573   0.017026     2.60142e-01     2.09200e-02
     12421      12423      1   0.010573   0.017026     2.60142e-01     2.09200e-02
     12420      12425      1   0.010573  -0.002029     3.00055e-01     6.91943e-02
     12420      12424      1   0.010573   0.017026     2.60142e-01     2.09200e-02
     12420      12423      1   0.010573   0.017026     2.60142e-01     2.09200e-02
     12419      12427      1  -0.016521   0.015716     3.00055e-01     6.91943e-02
     12419      12426      1  -0.016521   0.015716     3.00055e-01     6.91943e-02
     12418      12422      1   0.011511  -0.022462     3.00055e-01     6.91943e-02
     12418      12420      1   0.011511   0.008811     2.60142e-01     2.09200e-02
     12418      12421      1   0.011511   0.008811     2.60142e-01     2.09200e-02
     12417      12422      1   0.011511  -0.022462     3.00055e-01     6.91943e-02
     12417      12420      1   0.011511   0.008811     2.60142e-01     2.09200e-02
     12417      12421      1   0.011511   0.008811     2.60142e-01     2.09200e-02
     12416      12424      1  -0.027812   0.017026     3.00055e-01     6.91943e-02
     12416      12423      1  -0.027812   0.017026     3.00055e-01     6.91943e-02
     12415      12419      1   0.006833  -0.013767     3.00055e-01     6.91943e-02
     12415      12417      1   0.006833   0.009592     2.60142e-01     2.09200e-02
     12415      12418      1   0.006833   0.009592     2.60142e-01     2.09200e-02
     12414      12419      1   0.006833  -0.013767     3.00055e-01     6.91943e-02
     12414      12417      1   0.006833   0.009592     2.60142e-01     2.09200e-02
     12414      12418      1   0.006833   0.009592     2.60142e-01     2.09200e-02
     12413      12420      1  -0.004386   0.008811     3.00055e-01     6.91943e-02
     12413      12421      1  -0.004386   0.008811     3.00055e-01     6.91943e-02
     12412      12416      1   0.011241  -0.023177     3.00055e-01     6.91943e-02
     12412      12414      1   0.011241   0.005694     2.60142e-01     2.09200e-02
     12412      12415      1   0.011241   0.005694     2.60142e-01     2.09200e-02
     12411      12416      1   0.011241  -0.023177     3.00055e-01     6.91943e-02
     12411      12414      1   0.011241   0.005694     2.60142e-01     2.09200e-02
     12411      12415      1   0.011241   0.005694     2.60142e-01     2.09200e-02
     12410      12417      1  -0.026451   0.009592     3.00055e-01     6.91943e-02
     12410      12418      1  -0.026451   0.009592     3.00055e-01     6.91943e-02
     12409      12413      1   0.010172  -0.003655     3.00055e-01     6.91943e-02
     12409      12412      1   0.010172   0.009367     2.60142e-01     2.09200e-02
     12409      12411      1   0.010172   0.009367     2.60142e-01     2.09200e-02
     12408      12413      1   0.010172  -0.003655     3.00055e-01     6.91943e-02
     12408      12412      1   0.010172   0.009367     2.60142e-01     2.09200e-02
     12408      12411      1   0.010172   0.009367     2.60142e-01     2.09200e-02
     12407      12414      1  -0.014653   0.005694     3.00055e-01     6.91943e-02
     12407      12415      1  -0.014653   0.005694     3.00055e-01     6.91943e-02
     12406      12410      1   0.010037  -0.022042     3.00055e-01     6.91943e-02
     12406      12408      1   0.010037   0.008477     2.60142e-01     2.09200e-02
     12406      12409      1   0.010037   0.008477     2.60142e-01     2.09200e-02
     12405      12410      1   0.010037  -0.022042     3.00055e-01     6.91943e-02
     12405      12408      1   0.010037   0.008477     2.60142e-01     2.09200e-02
     12405      12409      1   0.010037   0.008477     2.60142e-01     2.09200e-02
     12404      12412      1  -0.021025   0.009367     3.00055e-01     6.91943e-02
     12404      12411      1  -0.021025   0.009367     3.00055e-01     6.91943e-02
     12403      12407      1   0.012677  -0.012211     3.00055e-01     6.91943e-02
     12403      12406      1   0.012677   0.008364     2.60142e-01     2.09200e-02
     12403      12405      1   0.012677   0.008364     2.60142e-01     2.09200e-02
     12402      12407      1   0.012677  -0.012211     3.00055e-01     6.91943e-02
     12402      12406      1   0.012677   0.008364     2.60142e-01     2.09200e-02
     12402      12405      1   0.012677   0.008364     2.60142e-01     2.09200e-02
     12401      12408      1  -0.031787   0.008477     3.00055e-01     6.91943e-02
     12401      12409      1  -0.031787   0.008477     3.00055e-01     6.91943e-02
     12400      12404      1   0.017208  -0.017521     3.00055e-01     6.91943e-02
     12400      12402      1   0.017208   0.010564     2.60142e-01     2.09200e-02
     12400      12403      1   0.017208   0.010564     2.60142e-01     2.09200e-02
     12399      12404      1   0.017208  -0.017521     3.00055e-01     6.91943e-02
     12399      12402      1   0.017208   0.010564     2.60142e-01     2.09200e-02
     12399      12403      1   0.017208   0.010564     2.60142e-01     2.09200e-02
     12398      12406      1  -0.028094   0.008364     3.00055e-01     6.91943e-02
     12398      12405      1  -0.028094   0.008364     3.00055e-01     6.91943e-02
     12397      12401      1   0.007531  -0.026489     3.00055e-01     6.91943e-02
     12397      12400      1   0.007531   0.014340     2.60142e-01     2.09200e-02
     12397      12399      1   0.007531   0.014340     2.60142e-01     2.09200e-02
     12396      12401      1   0.007531  -0.026489     3.00055e-01     6.91943e-02
     12396      12400      1   0.007531   0.014340     2.60142e-01     2.09200e-02
     12396      12399      1   0.007531   0.014340     2.60142e-01     2.09200e-02
     12395      12402      1   0.017463   0.010564     3.00055e-01     6.91943e-02
     12395      12403      1   0.017463   0.010564     3.00055e-01     6.91943e-02
     12394      12398      1   0.025511  -0.023412     3.00055e-01     6.91943e-02
     12394      12396      1   0.025511   0.006276     2.60142e-01     2.09200e-02
     12394      12397      1   0.025511   0.006276     2.60142e-01     2.09200e-02
     12393      12398      1   0.025511  -0.023412     3.00055e-01     6.91943e-02
     12393      12396      1   0.025511   0.006276     2.60142e-01     2.09200e-02
     12393      12397      1   0.025511   0.006276     2.60142e-01     2.09200e-02
     12392      12400      1  -0.111712   0.014340     3.00055e-01     6.91943e-02
     12392      12399      1  -0.111712   0.014340     3.00055e-01     6.91943e-02
     12391      12398      1   0.025511  -0.023412     3.00055e-01     6.91943e-02
     12391      12396      1   0.025511   0.006276     2.60142e-01     2.09200e-02
     12391      12397      1   0.025511   0.006276     2.60142e-01     2.09200e-02
     12468      12508      1  -0.673755   0.044953     2.78067e-01     9.58675e-02
     12468      12507      1  -0.673755   0.044953     2.78067e-01     9.58675e-02
     12467      12505      1   0.897613   0.015716     3.00055e-01     6.13495e-02
     12467      12504      1   0.897613   0.015716     3.00055e-01     6.13495e-02
     12466      12508      1  -0.552948   0.044953     2.80072e-01     8.62554e-02
     12466      12507      1  -0.552948   0.044953     2.80072e-01     8.62554e-02
     12459      12460      1   0.172230  -0.282478     2.67982e-01     8.67002e-02
     12458      12460      1   0.172230  -0.282478     2.67982e-01     8.67002e-02
     12457      12460      1   0.172230  -0.282478     2.67982e-01     8.67002e-02
     12456      12461      1  -0.338973   0.143525     2.67982e-01     8.67002e-02
     12456      12462      1  -0.338973   0.143525     2.67982e-01     8.67002e-02
     12456      12463      1  -0.338973   0.143525     2.67982e-01     8.67002e-02
     12455      12456      1   0.172230  -0.282478     2.67982e-01     8.67002e-02
     12455      12460      1   0.172230  -0.282478     2.67982e-01     8.67002e-02
     12454      12456      1   0.172230  -0.282478     2.67982e-01     8.67002e-02
     12454      12460      1   0.172230  -0.282478     2.67982e-01     8.67002e-02
     12453      12456      1   0.172230  -0.282478     2.67982e-01     8.67002e-02
     12453      12460      1   0.172230  -0.282478     2.67982e-01     8.67002e-02
     12452      12457      1  -0.338973   0.143525     2.67982e-01     8.67002e-02
     12452      12458      1  -0.338973   0.143525     2.67982e-01     8.67002e-02
     12452      12459      1  -0.338973   0.143525     2.67982e-01     8.67002e-02
     12452      12461      1  -0.338973   0.143525     2.67982e-01     8.67002e-02
     12452      12462      1  -0.338973   0.143525     2.67982e-01     8.67002e-02
     12452      12463      1  -0.338973   0.143525     2.67982e-01     8.67002e-02
     12450      12452      1   0.136415  -0.282478     2.67982e-01     8.67002e-02
     12450      12456      1   0.136415  -0.282478     2.67982e-01     8.67002e-02
     12450      12460      1   0.136415  -0.282478     2.67982e-01     8.67002e-02
     12449      12452      1   0.136415  -0.282478     2.67982e-01     8.67002e-02
     12449      12456      1   0.136415  -0.282478     2.67982e-01     8.67002e-02
     12449      12460      1   0.136415  -0.282478     2.67982e-01     8.67002e-02
     12448      12453      1  -0.170824   0.143525     2.67982e-01     8.67002e-02
     12448      12454      1  -0.170824   0.143525     2.67982e-01     8.67002e-02
     12448      12455      1  -0.170824   0.143525     2.67982e-01     8.67002e-02
     12448      12457      1  -0.170824   0.143525     2.67982e-01     8.67002e-02
     12448      12458      1  -0.170824   0.143525     2.67982e-01     8.67002e-02
     12448      12459      1  -0.170824   0.143525     2.67982e-01     8.67002e-02
     12448      12461      1  -0.170824   0.143525     2.67982e-01     8.67002e-02
     12448      12462      1  -0.170824   0.143525     2.67982e-01     8.67002e-02
     12448      12463      1  -0.170824   0.143525     2.67982e-01     8.67002e-02
     12447      12449      1   0.078534   0.113679     2.21567e-01     3.28444e-02
     12447      12450      1   0.078534   0.113679     2.21567e-01     3.28444e-02
     12447      12451      1   0.078534   0.204385     2.86068e-01     1.08078e-01
     12446      12449      1   0.078534   0.113679     2.21567e-01     3.28444e-02
     12446      12450      1   0.078534   0.113679     2.21567e-01     3.28444e-02
     12446      12451      1   0.078534   0.204385     2.86068e-01     1.08078e-01
     12444      12449      1  -0.508176   0.113679     2.47999e-01     1.08078e-01
     12444      12450      1  -0.508176   0.113679     2.47999e-01     1.08078e-01
     12443      12446      1   1.339721   0.065445     3.10656e-01     1.17227e-01
     12443      12447      1   1.339721   0.065445     3.10656e-01     1.17227e-01
     12441      12466      1   0.095591  -0.460790     2.73568e-01     1.08078e-01
     12441      12443      1   0.095591   1.116434     3.10656e-01     1.17227e-01
     12440      12466      1   0.095591  -0.460790     2.73568e-01     1.08078e-01
     12440      12443      1   0.095591   1.116434     3.10656e-01     1.17227e-01
     12438      12440      1   0.063253   0.079659     2.47135e-01     3.28444e-02
     12438      12441      1   0.063253   0.079659     2.47135e-01     3.28444e-02
     12438      12442      1   0.063253  -0.424567     2.73568e-01     1.08078e-01
     12438      12467      1   0.063253   0.748011     2.93551e-01     7.68707e-02
     12436      12438      1   0.070469   0.052711     2.47135e-01     3.28444e-02
     12436      12439      1   0.070469   0.014549     2.93551e-01     8.67002e-02
     12436      12466      1   0.070469  -0.460790     2.73568e-01     1.08078e-01
     12435      12438      1   0.070469   0.052711     2.47135e-01     3.28444e-02
     12435      12439      1   0.070469   0.014549     2.93551e-01     8.67002e-02
     12435      12466      1   0.070469  -0.460790     2.73568e-01     1.08078e-01
     12434      12440      1   0.196939   0.079659     2.93551e-01     8.67002e-02
     12434      12441      1   0.196939   0.079659     2.93551e-01     8.67002e-02
     12433      12438      1  -0.575489   0.052711     2.73568e-01     1.08078e-01
     12431      12435      1   0.910403   0.058724     2.93551e-01     7.68707e-02
     12431      12436      1   0.910403   0.058724     2.93551e-01     7.68707e-02
     12505      12508      1   0.018859   0.044953     2.60142e-01     2.09200e-02
     12505      12507      1   0.018859   0.044953     2.60142e-01     2.09200e-02
     12504      12508      1   0.018859   0.044953     2.60142e-01     2.09200e-02
     12504      12507      1   0.018859   0.044953     2.60142e-01     2.09200e-02
     12502      12506      1   0.020431  -0.136833     3.00055e-01     6.91943e-02
     12502      12505      1   0.020431   0.015716     2.60142e-01     2.09200e-02
     12502      12504      1   0.020431   0.015716     2.60142e-01     2.09200e-02
     12501      12506      1   0.020431  -0.136833     3.00055e-01     6.91943e-02
     12501      12505      1   0.020431   0.015716     2.60142e-01     2.09200e-02
     12501      12504      1   0.020431   0.015716     2.60142e-01     2.09200e-02
     12500      12508      1  -0.026954   0.044953     3.00055e-01     6.91943e-02
     12500      12507      1  -0.026954   0.044953     3.00055e-01     6.91943e-02
     12499      12503      1   0.010573  -0.002029     3.00055e-01     6.91943e-02
     12499      12502      1   0.010573   0.017026     2.60142e-01     2.09200e-02
     12499      12501      1   0.010573   0.017026     2.60142e-01     2.09200e-02
     12498      12503      1   0.010573  -0.002029     3.00055e-01     6.91943e-02
     12498      12502      1   0.010573   0.017026     2.60142e-01     2.09200e-02
     12498      12501      1   0.010573   0.017026     2.60142e-01     2.09200e-02
     12497      12505      1  -0.016521   0.015716     3.00055e-01     6.91943e-02
     12497      12504      1  -0.016521   0.015716     3.00055e-01     6.91943e-02
     12496      12500      1   0.011511  -0.022462     3.00055e-01     6.91943e-02
     12496      12498      1   0.011511   0.008811     2.60142e-01     2.09200e-02
     12496      12499      1   0.011511   0.008811     2.60142e-01     2.09200e-02
     12495      12500      1   0.011511  -0.022462     3.00055e-01     6.91943e-02
     12495      12498      1   0.011511   0.008811     2.60142e-01     2.09200e-02
     12495      12499      1   0.011511   0.008811     2.60142e-01     2.09200e-02
     12494      12502      1  -0.027812   0.017026     3.00055e-01     6.91943e-02
     12494      12501      1  -0.027812   0.017026     3.00055e-01     6.91943e-02
     12493      12497      1   0.006833  -0.013767     3.00055e-01     6.91943e-02
     12493      12495      1   0.006833   0.009592     2.60142e-01     2.09200e-02
     12493      12496      1   0.006833   0.009592     2.60142e-01     2.09200e-02
     12492      12497      1   0.006833  -0.013767     3.00055e-01     6.91943e-02
     12492      12495      1   0.006833   0.009592     2.60142e-01     2.09200e-02
     12492      12496      1   0.006833   0.009592     2.60142e-01     2.09200e-02
     12491      12498      1  -0.004386   0.008811     3.00055e-01     6.91943e-02
     12491      12499      1  -0.004386   0.008811     3.00055e-01     6.91943e-02
     12490      12494      1   0.011241  -0.023177     3.00055e-01     6.91943e-02
     12490      12492      1   0.011241   0.005694     2.60142e-01     2.09200e-02
     12490      12493      1   0.011241   0.005694     2.60142e-01     2.09200e-02
     12489      12494      1   0.011241  -0.023177     3.00055e-01     6.91943e-02
     12489      12492      1   0.011241   0.005694     2.60142e-01     2.09200e-02
     12489      12493      1   0.011241   0.005694     2.60142e-01     2.09200e-02
     12488      12495      1  -0.026451   0.009592     3.00055e-01     6.91943e-02
     12488      12496      1  -0.026451   0.009592     3.00055e-01     6.91943e-02
     12487      12491      1   0.010172  -0.003655     3.00055e-01     6.91943e-02
     12487      12490      1   0.010172   0.009367     2.60142e-01     2.09200e-02
     12487      12489      1   0.010172   0.009367     2.60142e-01     2.09200e-02
     12486      12491      1   0.010172  -0.003655     3.00055e-01     6.91943e-02
     12486      12490      1   0.010172   0.009367     2.60142e-01     2.09200e-02
     12486      12489      1   0.010172   0.009367     2.60142e-01     2.09200e-02
     12485      12492      1  -0.014653   0.005694     3.00055e-01     6.91943e-02
     12485      12493      1  -0.014653   0.005694     3.00055e-01     6.91943e-02
     12484      12488      1   0.010037  -0.022042     3.00055e-01     6.91943e-02
     12484      12486      1   0.010037   0.008477     2.60142e-01     2.09200e-02
     12484      12487      1   0.010037   0.008477     2.60142e-01     2.09200e-02
     12483      12488      1   0.010037  -0.022042     3.00055e-01     6.91943e-02
     12483      12486      1   0.010037   0.008477     2.60142e-01     2.09200e-02
     12483      12487      1   0.010037   0.008477     2.60142e-01     2.09200e-02
     12482      12490      1  -0.021025   0.009367     3.00055e-01     6.91943e-02
     12482      12489      1  -0.021025   0.009367     3.00055e-01     6.91943e-02
     12481      12485      1   0.012677  -0.012211     3.00055e-01     6.91943e-02
     12481      12484      1   0.012677   0.008364     2.60142e-01     2.09200e-02
     12481      12483      1   0.012677   0.008364     2.60142e-01     2.09200e-02
     12480      12485      1   0.012677  -0.012211     3.00055e-01     6.91943e-02
     12480      12484      1   0.012677   0.008364     2.60142e-01     2.09200e-02
     12480      12483      1   0.012677   0.008364     2.60142e-01     2.09200e-02
     12479      12486      1  -0.031787   0.008477     3.00055e-01     6.91943e-02
     12479      12487      1  -0.031787   0.008477     3.00055e-01     6.91943e-02
     12478      12482      1   0.017208  -0.017521     3.00055e-01     6.91943e-02
     12478      12480      1   0.017208   0.010564     2.60142e-01     2.09200e-02
     12478      12481      1   0.017208   0.010564     2.60142e-01     2.09200e-02
     12477      12482      1   0.017208  -0.017521     3.00055e-01     6.91943e-02
     12477      12480      1   0.017208   0.010564     2.60142e-01     2.09200e-02
     12477      12481      1   0.017208   0.010564     2.60142e-01     2.09200e-02
     12476      12484      1  -0.028094   0.008364     3.00055e-01     6.91943e-02
     12476      12483      1  -0.028094   0.008364     3.00055e-01     6.91943e-02
     12475      12479      1   0.007531  -0.026489     3.00055e-01     6.91943e-02
     12475      12478      1   0.007531   0.014340     2.60142e-01     2.09200e-02
     12475      12477      1   0.007531   0.014340     2.60142e-01     2.09200e-02
     12474      12479      1   0.007531  -0.026489     3.00055e-01     6.91943e-02
     12474      12478      1   0.007531   0.014340     2.60142e-01     2.09200e-02
     12474      12477      1   0.007531   0.014340     2.60142e-01     2.09200e-02
     12473      12480      1   0.017463   0.010564     3.00055e-01     6.91943e-02
     12473      12481      1   0.017463   0.010564     3.00055e-01     6.91943e-02
     12472      12476      1   0.025511  -0.023412     3.00055e-01     6.91943e-02
     12472      12474      1   0.025511   0.006276     2.60142e-01     2.09200e-02
     12472      12475      1   0.025511   0.006276     2.60142e-01     2.09200e-02
     12471      12476      1   0.025511  -0.023412     3.00055e-01     6.91943e-02
     12471      12474      1   0.025511   0.006276     2.60142e-01     2.09200e-02
     12471      12475      1   0.025511   0.006276     2.60142e-01     2.09200e-02
     12470      12478      1  -0.111712   0.014340     3.00055e-01     6.91943e-02
     12470      12477      1  -0.111712   0.014340     3.00055e-01     6.91943e-02
     12469      12476      1   0.025511  -0.023412     3.00055e-01     6.91943e-02
     12469      12474      1   0.025511   0.006276     2.60142e-01     2.09200e-02
     12469      12475      1   0.025511   0.006276     2.60142e-01     2.09200e-02
     12548      12550      1   0.053944  -0.559638     2.78067e-01     9.58675e-02
     12548      12551      1   0.053944  -0.479574     2.80072e-01     8.62554e-02
     12547      12550      1   0.053944  -0.559638     2.78067e-01     9.58675e-02
     12547      12551      1   0.053944  -0.479574     2.80072e-01     8.62554e-02
     12545      12548      1   0.018859   0.044953     2.60142e-01     2.09200e-02
     12545      12547      1   0.018859   0.044953     2.60142e-01     2.09200e-02
     12545      12549      1   0.018859   0.758669     3.00055e-01     6.13495e-02
     12544      12548      1   0.018859   0.044953     2.60142e-01     2.09200e-02
     12544      12547      1   0.018859   0.044953     2.60142e-01     2.09200e-02
     12544      12549      1   0.018859   0.758669     3.00055e-01     6.13495e-02
     12542      12546      1   0.020431  -0.136833     3.00055e-01     6.91943e-02
     12542      12545      1   0.020431   0.015716     2.60142e-01     2.09200e-02
     12542      12544      1   0.020431   0.015716     2.60142e-01     2.09200e-02
     12541      12546      1   0.020431  -0.136833     3.00055e-01     6.91943e-02
     12541      12545      1   0.020431   0.015716     2.60142e-01     2.09200e-02
     12541      12544      1   0.020431   0.015716     2.60142e-01     2.09200e-02
     12540      12548      1  -0.026954   0.044953     3.00055e-01     6.91943e-02
     12540      12547      1  -0.026954   0.044953     3.00055e-01     6.91943e-02
     12539      12543      1   0.010573  -0.002029     3.00055e-01     6.91943e-02
     12539      12542      1   0.010573   0.017026     2.60142e-01     2.09200e-02
     12539      12541      1   0.010573   0.017026     2.60142e-01     2.09200e-02
     12538      12543      1   0.010573  -0.002029     3.00055e-01     6.91943e-02
     12538      12542      1   0.010573   0.017026     2.60142e-01     2.09200e-02
     12538      12541      1   0.010573   0.017026     2.60142e-01     2.09200e-02
     12537      12545      1  -0.016521   0.015716     3.00055e-01     6.91943e-02
     12537      12544      1  -0.016521   0.015716     3.00055e-01     6.91943e-02
     12536      12540      1   0.011511  -0.022462     3.00055e-01     6.91943e-02
     12536      12538      1   0.011511   0.008811     2.60142e-01     2.09200e-02
     12536      12539      1   0.011511   0.008811     2.60142e-01     2.09200e-02
     12535      12540      1   0.011511  -0.022462     3.00055e-01     6.91943e-02
     12535      12538      1   0.011511   0.008811     2.60142e-01     2.09200e-02
     12535      12539      1   0.011511   0.008811     2.60142e-01     2.09200e-02
     12534      12542      1  -0.027812   0.017026     3.00055e-01     6.91943e-02
     12534      12541      1  -0.027812   0.017026     3.00055e-01     6.91943e-02
     12533      12537      1   0.006833  -0.013767     3.00055e-01     6.91943e-02
     12533      12535      1   0.006833   0.009592     2.60142e-01     2.09200e-02
     12533      12536      1   0.006833   0.009592     2.60142e-01     2.09200e-02
     12532      12537      1   0.006833  -0.013767     3.00055e-01     6.91943e-02
     12532      12535      1   0.006833   0.009592     2.60142e-01     2.09200e-02
     12532      12536      1   0.006833   0.009592     2.60142e-01     2.09200e-02
     12531      12538      1  -0.004386   0.008811     3.00055e-01     6.91943e-02
     12531      12539      1  -0.004386   0.008811     3.00055e-01     6.91943e-02
     12530      12534      1   0.011241  -0.023177     3.00055e-01     6.91943e-02
     12530      12532      1   0.011241   0.005694     2.60142e-01     2.09200e-02
     12530      12533      1   0.011241   0.005694     2.60142e-01     2.09200e-02
     12529      12534      1   0.011241  -0.023177     3.00055e-01     6.91943e-02
     12529      12532      1   0.011241   0.005694     2.60142e-01     2.09200e-02
     12529      12533      1   0.011241   0.005694     2.60142e-01     2.09200e-02
     12528      12535      1  -0.026451   0.009592     3.00055e-01     6.91943e-02
     12528      12536      1  -0.026451   0.009592     3.00055e-01     6.91943e-02
     12527      12531      1   0.010172  -0.003655     3.00055e-01     6.91943e-02
     12527      12530      1   0.010172   0.009367     2.60142e-01     2.09200e-02
     12527      12529      1   0.010172   0.009367     2.60142e-01     2.09200e-02
     12526      12531      1   0.010172  -0.003655     3.00055e-01     6.91943e-02
     12526      12530      1   0.010172   0.009367     2.60142e-01     2.09200e-02
     12526      12529      1   0.010172   0.009367     2.60142e-01     2.09200e-02
     12525      12532      1  -0.014653   0.005694     3.00055e-01     6.91943e-02
     12525      12533      1  -0.014653   0.005694     3.00055e-01     6.91943e-02
     12524      12528      1   0.010037  -0.022042     3.00055e-01     6.91943e-02
     12524      12526      1   0.010037   0.008477     2.60142e-01     2.09200e-02
     12524      12527      1   0.010037   0.008477     2.60142e-01     2.09200e-02
     12523      12528      1   0.010037  -0.022042     3.00055e-01     6.91943e-02
     12523      12526      1   0.010037   0.008477     2.60142e-01     2.09200e-02
     12523      12527      1   0.010037   0.008477     2.60142e-01     2.09200e-02
     12522      12530      1  -0.021025   0.009367     3.00055e-01     6.91943e-02
     12522      12529      1  -0.021025   0.009367     3.00055e-01     6.91943e-02
     12521      12525      1   0.012677  -0.012211     3.00055e-01     6.91943e-02
     12521      12524      1   0.012677   0.008364     2.60142e-01     2.09200e-02
     12521      12523      1   0.012677   0.008364     2.60142e-01     2.09200e-02
     12520      12525      1   0.012677  -0.012211     3.00055e-01     6.91943e-02
     12520      12524      1   0.012677   0.008364     2.60142e-01     2.09200e-02
     12520      12523      1   0.012677   0.008364     2.60142e-01     2.09200e-02
     12519      12526      1  -0.031787   0.008477     3.00055e-01     6.91943e-02
     12519      12527      1  -0.031787   0.008477     3.00055e-01     6.91943e-02
     12518      12522      1   0.017208  -0.017521     3.00055e-01     6.91943e-02
     12518      12520      1   0.017208   0.010564     2.60142e-01     2.09200e-02
     12518      12521      1   0.017208   0.010564     2.60142e-01     2.09200e-02
     12517      12522      1   0.017208  -0.017521     3.00055e-01     6.91943e-02
     12517      12520      1   0.017208   0.010564     2.60142e-01     2.09200e-02
     12517      12521      1   0.017208   0.010564     2.60142e-01     2.09200e-02
     12516      12524      1  -0.028094   0.008364     3.00055e-01     6.91943e-02
     12516      12523      1  -0.028094   0.008364     3.00055e-01     6.91943e-02
     12515      12519      1   0.007531  -0.026489     3.00055e-01     6.91943e-02
     12515      12518      1   0.007531   0.014340     2.60142e-01     2.09200e-02
     12515      12517      1   0.007531   0.014340     2.60142e-01     2.09200e-02
     12514      12519      1   0.007531  -0.026489     3.00055e-01     6.91943e-02
     12514      12518      1   0.007531   0.014340     2.60142e-01     2.09200e-02
     12514      12517      1   0.007531   0.014340     2.60142e-01     2.09200e-02
     12513      12520      1   0.017463   0.010564     3.00055e-01     6.91943e-02
     12513      12521      1   0.017463   0.010564     3.00055e-01     6.91943e-02
     12512      12516      1   0.025511  -0.023412     3.00055e-01     6.91943e-02
     12512      12514      1   0.025511   0.006276     2.60142e-01     2.09200e-02
     12512      12515      1   0.025511   0.006276     2.60142e-01     2.09200e-02
     12511      12516      1   0.025511  -0.023412     3.00055e-01     6.91943e-02
     12511      12514      1   0.025511   0.006276     2.60142e-01     2.09200e-02
     12511      12515      1   0.025511   0.006276     2.60142e-01     2.09200e-02
     12510      12518      1  -0.111712   0.014340     3.00055e-01     6.91943e-02
     12510      12517      1  -0.111712   0.014340     3.00055e-01     6.91943e-02
     12509      12516      1   0.025511  -0.023412     3.00055e-01     6.91943e-02
     12509      12514      1   0.025511   0.006276     2.60142e-01     2.09200e-02
     12509      12515      1   0.025511   0.006276     2.60142e-01     2.09200e-02
     12586      12626      1  -0.673755   0.044953     2.78067e-01     9.58675e-02
     12586      12625      1  -0.673755   0.044953     2.78067e-01     9.58675e-02
     12585      12623      1   0.897613   0.015716     3.00055e-01     6.13495e-02
     12585      12622      1   0.897613   0.015716     3.00055e-01     6.13495e-02
     12584      12626      1  -0.552948   0.044953     2.80072e-01     8.62554e-02
     12584      12625      1  -0.552948   0.044953     2.80072e-01     8.62554e-02
     12577      12578      1   0.172230  -0.282478     2.67982e-01     8.67002e-02
     12576      12578      1   0.172230  -0.282478     2.67982e-01     8.67002e-02
     12575      12578      1   0.172230  -0.282478     2.67982e-01     8.67002e-02
     12574      12579      1  -0.338973   0.143525     2.67982e-01     8.67002e-02
     12574      12580      1  -0.338973   0.143525     2.67982e-01     8.67002e-02
     12574      12581      1  -0.338973   0.143525     2.67982e-01     8.67002e-02
     12573      12574      1   0.172230  -0.282478     2.67982e-01     8.67002e-02
     12573      12578      1   0.172230  -0.282478     2.67982e-01     8.67002e-02
     12572      12574      1   0.172230  -0.282478     2.67982e-01     8.67002e-02
     12572      12578      1   0.172230  -0.282478     2.67982e-01     8.67002e-02
     12571      12574      1   0.172230  -0.282478     2.67982e-01     8.67002e-02
     12571      12578      1   0.172230  -0.282478     2.67982e-01     8.67002e-02
     12570      12575      1  -0.338973   0.143525     2.67982e-01     8.67002e-02
     12570      12576      1  -0.338973   0.143525     2.67982e-01     8.67002e-02
     12570      12577      1  -0.338973   0.143525     2.67982e-01     8.67002e-02
     12570      12579      1  -0.338973   0.143525     2.67982e-01     8.67002e-02
     12570      12580      1  -0.338973   0.143525     2.67982e-01     8.67002e-02
     12570      12581      1  -0.338973   0.143525     2.67982e-01     8.67002e-02
     12568      12570      1   0.136415  -0.282478     2.67982e-01     8.67002e-02
     12568      12574      1   0.136415  -0.282478     2.67982e-01     8.67002e-02
     12568      12578      1   0.136415  -0.282478     2.67982e-01     8.67002e-02
     12567      12570      1   0.136415  -0.282478     2.67982e-01     8.67002e-02
     12567      12574      1   0.136415  -0.282478     2.67982e-01     8.67002e-02
     12567      12578      1   0.136415  -0.282478     2.67982e-01     8.67002e-02
     12566      12571      1  -0.170824   0.143525     2.67982e-01     8.67002e-02
     12566      12572      1  -0.170824   0.143525     2.67982e-01     8.67002e-02
     12566      12573      1  -0.170824   0.143525     2.67982e-01     8.67002e-02
     12566      12575      1  -0.170824   0.143525     2.67982e-01     8.67002e-02
     12566      12576      1  -0.170824   0.143525     2.67982e-01     8.67002e-02
     12566      12577      1  -0.170824   0.143525     2.67982e-01     8.67002e-02
     12566      12579      1  -0.170824   0.143525     2.67982e-01     8.67002e-02
     12566      12580      1  -0.170824   0.143525     2.67982e-01     8.67002e-02
     12566      12581      1  -0.170824   0.143525     2.67982e-01     8.67002e-02
     12565      12567      1   0.078534   0.113679     2.21567e-01     3.28444e-02
     12565      12568      1   0.078534   0.113679     2.21567e-01     3.28444e-02
     12565      12569      1   0.078534   0.204385     2.86068e-01     1.08078e-01
     12564      12567      1   0.078534   0.113679     2.21567e-01     3.28444e-02
     12564      12568      1   0.078534   0.113679     2.21567e-01     3.28444e-02
     12564      12569      1   0.078534   0.204385     2.86068e-01     1.08078e-01
     12562      12567      1  -0.508176   0.113679     2.47999e-01     1.08078e-01
     12562      12568      1  -0.508176   0.113679     2.47999e-01     1.08078e-01
     12561      12564      1   1.339721   0.065445     3.10656e-01     1.17227e-01
     12561      12565      1   1.339721   0.065445     3.10656e-01     1.17227e-01
     12559      12584      1   0.095591  -0.460790     2.73568e-01     1.08078e-01
     12559      12561      1   0.095591   1.116434     3.10656e-01     1.17227e-01
     12558      12584      1   0.095591  -0.460790     2.73568e-01     1.08078e-01
     12558      12561      1   0.095591   1.116434     3.10656e-01     1.17227e-01
     12556      12558      1   0.063253   0.079659     2.47135e-01     3.28444e-02
     12556      12559      1   0.063253   0.079659     2.47135e-01     3.28444e-02
     12556      12560      1   0.063253  -0.424567     2.73568e-01     1.08078e-01
     12556      12585      1   0.063253   0.748011     2.93551e-01     7.68707e-02
     12554      12556      1   0.070469   0.052711     2.47135e-01     3.28444e-02
     12554      12557      1   0.070469   0.014549     2.93551e-01     8.67002e-02
     12554      12584      1   0.070469  -0.460790     2.73568e-01     1.08078e-01
     12553      12556      1   0.070469   0.052711     2.47135e-01     3.28444e-02
     12553      12557      1   0.070469   0.014549     2.93551e-01     8.67002e-02
     12553      12584      1   0.070469  -0.460790     2.73568e-01     1.08078e-01
     12552      12558      1   0.196939   0.079659     2.93551e-01     8.67002e-02
     12552      12559      1   0.196939   0.079659     2.93551e-01     8.67002e-02
     12551      12556      1  -0.575489   0.052711     2.73568e-01     1.08078e-01
     12549      12553      1   0.910403   0.058724     2.93551e-01     7.68707e-02
     12549      12554      1   0.910403   0.058724     2.93551e-01     7.68707e-02
     12623      12626      1   0.018859   0.044953     2.60142e-01     2.09200e-02
     12623      12625      1   0.018859   0.044953     2.60142e-01     2.09200e-02
     12622      12626      1   0.018859   0.044953     2.60142e-01     2.09200e-02
     12622      12625      1   0.018859   0.044953     2.60142e-01     2.09200e-02
     12620      12624      1   0.020431  -0.136833     3.00055e-01     6.91943e-02
     12620      12623      1   0.020431   0.015716     2.60142e-01     2.09200e-02
     12620      12622      1   0.020431   0.015716     2.60142e-01     2.09200e-02
     12619      12624      1   0.020431  -0.136833     3.00055e-01     6.91943e-02
     12619      12623      1   0.020431   0.015716     2.60142e-01     2.09200e-02
     12619      12622      1   0.020431   0.015716     2.60142e-01     2.09200e-02
     12618      12626      1  -0.026954   0.044953     3.00055e-01     6.91943e-02
     12618      12625      1  -0.026954   0.044953     3.00055e-01     6.91943e-02
     12617      12621      1   0.010573  -0.002029     3.00055e-01     6.91943e-02
     12617      12620      1   0.010573   0.017026     2.60142e-01     2.09200e-02
     12617      12619      1   0.010573   0.017026     2.60142e-01     2.09200e-02
     12616      12621      1   0.010573  -0.002029     3.00055e-01     6.91943e-02
     12616      12620      1   0.010573   0.017026     2.60142e-01     2.09200e-02
     12616      12619      1   0.010573   0.017026     2.60142e-01     2.09200e-02
     12615      12623      1  -0.016521   0.015716     3.00055e-01     6.91943e-02
     12615      12622      1  -0.016521   0.015716     3.00055e-01     6.91943e-02
     12614      12618      1   0.011511  -0.022462     3.00055e-01     6.91943e-02
     12614      12616      1   0.011511   0.008811     2.60142e-01     2.09200e-02
     12614      12617      1   0.011511   0.008811     2.60142e-01     2.09200e-02
     12613      12618      1   0.011511  -0.022462     3.00055e-01     6.91943e-02
     12613      12616      1   0.011511   0.008811     2.60142e-01     2.09200e-02
     12613      12617      1   0.011511   0.008811     2.60142e-01     2.09200e-02
     12612      12620      1  -0.027812   0.017026     3.00055e-01     6.91943e-02
     12612      12619      1  -0.027812   0.017026     3.00055e-01     6.91943e-02
     12611      12615      1   0.006833  -0.013767     3.00055e-01     6.91943e-02
     12611      12613      1   0.006833   0.009592     2.60142e-01     2.09200e-02
     12611      12614      1   0.006833   0.009592     2.60142e-01     2.09200e-02
     12610      12615      1   0.006833  -0.013767     3.00055e-01     6.91943e-02
     12610      12613      1   0.006833   0.009592     2.60142e-01     2.09200e-02
     12610      12614      1   0.006833   0.009592     2.60142e-01     2.09200e-02
     12609      12616      1  -0.004386   0.008811     3.00055e-01     6.91943e-02
     12609      12617      1  -0.004386   0.008811     3.00055e-01     6.91943e-02
     12608      12612      1   0.011241  -0.023177     3.00055e-01     6.91943e-02
     12608      12610      1   0.011241   0.005694     2.60142e-01     2.09200e-02
     12608      12611      1   0.011241   0.005694     2.60142e-01     2.09200e-02
     12607      12612      1   0.011241  -0.023177     3.00055e-01     6.91943e-02
     12607      12610      1   0.011241   0.005694     2.60142e-01     2.09200e-02
     12607      12611      1   0.011241   0.005694     2.60142e-01     2.09200e-02
     12606      12613      1  -0.026451   0.009592     3.00055e-01     6.91943e-02
     12606      12614      1  -0.026451   0.009592     3.00055e-01     6.91943e-02
     12605      12609      1   0.010172  -0.003655     3.00055e-01     6.91943e-02
     12605      12608      1   0.010172   0.009367     2.60142e-01     2.09200e-02
     12605      12607      1   0.010172   0.009367     2.60142e-01     2.09200e-02
     12604      12609      1   0.010172  -0.003655     3.00055e-01     6.91943e-02
     12604      12608      1   0.010172   0.009367     2.60142e-01     2.09200e-02
     12604      12607      1   0.010172   0.009367     2.60142e-01     2.09200e-02
     12603      12610      1  -0.014653   0.005694     3.00055e-01     6.91943e-02
     12603      12611      1  -0.014653   0.005694     3.00055e-01     6.91943e-02
     12602      12606      1   0.010037  -0.022042     3.00055e-01     6.91943e-02
     12602      12604      1   0.010037   0.008477     2.60142e-01     2.09200e-02
     12602      12605      1   0.010037   0.008477     2.60142e-01     2.09200e-02
     12601      12606      1   0.010037  -0.022042     3.00055e-01     6.91943e-02
     12601      12604      1   0.010037   0.008477     2.60142e-01     2.09200e-02
     12601      12605      1   0.010037   0.008477     2.60142e-01     2.09200e-02
     12600      12608      1  -0.021025   0.009367     3.00055e-01     6.91943e-02
     12600      12607      1  -0.021025   0.009367     3.00055e-01     6.91943e-02
     12599      12603      1   0.012677  -0.012211     3.00055e-01     6.91943e-02
     12599      12602      1   0.012677   0.008364     2.60142e-01     2.09200e-02
     12599      12601      1   0.012677   0.008364     2.60142e-01     2.09200e-02
     12598      12603      1   0.012677  -0.012211     3.00055e-01     6.91943e-02
     12598      12602      1   0.012677   0.008364     2.60142e-01     2.09200e-02
     12598      12601      1   0.012677   0.008364     2.60142e-01     2.09200e-02
     12597      12604      1  -0.031787   0.008477     3.00055e-01     6.91943e-02
     12597      12605      1  -0.031787   0.008477     3.00055e-01     6.91943e-02
     12596      12600      1   0.017208  -0.017521     3.00055e-01     6.91943e-02
     12596      12598      1   0.017208   0.010564     2.60142e-01     2.09200e-02
     12596      12599      1   0.017208   0.010564     2.60142e-01     2.09200e-02
     12595      12600      1   0.017208  -0.017521     3.00055e-01     6.91943e-02
     12595      12598      1   0.017208   0.010564     2.60142e-01     2.09200e-02
     12595      12599      1   0.017208   0.010564     2.60142e-01     2.09200e-02
     12594      12602      1  -0.028094   0.008364     3.00055e-01     6.91943e-02
     12594      12601      1  -0.028094   0.008364     3.00055e-01     6.91943e-02
     12593      12597      1   0.007531  -0.026489     3.00055e-01     6.91943e-02
     12593      12596      1   0.007531   0.014340     2.60142e-01     2.09200e-02
     12593      12595      1   0.007531   0.014340     2.60142e-01     2.09200e-02
     12592      12597      1   0.007531  -0.026489     3.00055e-01     6.91943e-02
     12592      12596      1   0.007531   0.014340     2.60142e-01     2.09200e-02
     12592      12595      1   0.007531   0.014340     2.60142e-01     2.09200e-02
     12591      12598      1   0.017463   0.010564     3.00055e-01     6.91943e-02
     12591      12599      1   0.017463   0.010564     3.00055e-01     6.91943e-02
     12590      12594      1   0.025511  -0.023412     3.00055e-01     6.91943e-02
     12590      12592      1   0.025511   0.006276     2.60142e-01     2.09200e-02
     12590      12593      1   0.025511   0.006276     2.60142e-01     2.09200e-02
     12589      12594      1   0.025511  -0.023412     3.00055e-01     6.91943e-02
     12589      12592      1   0.025511   0.006276     2.60142e-01     2.09200e-02
     12589      12593      1   0.025511   0.006276     2.60142e-01     2.09200e-02
     12588      12596      1  -0.111712   0.014340     3.00055e-01     6.91943e-02
     12588      12595      1  -0.111712   0.014340     3.00055e-01     6.91943e-02
     12587      12594      1   0.025511  -0.023412     3.00055e-01     6.91943e-02
     12587      12592      1   0.025511   0.006276     2.60142e-01     2.09200e-02
     12587      12593      1   0.025511   0.006276     2.60142e-01     2.09200e-02
     12666      12668      1   0.053944  -0.559638     2.78067e-01     9.58675e-02
     12666      12669      1   0.053944  -0.479574     2.80072e-01     8.62554e-02
     12665      12668      1   0.053944  -0.559638     2.78067e-01     9.58675e-02
     12665      12669      1   0.053944  -0.479574     2.80072e-01     8.62554e-02
     12663      12666      1   0.018859   0.044953     2.60142e-01     2.09200e-02
     12663      12665      1   0.018859   0.044953     2.60142e-01     2.09200e-02
     12663      12667      1   0.018859   0.758669     3.00055e-01     6.13495e-02
     12662      12666      1   0.018859   0.044953     2.60142e-01     2.09200e-02
     12662      12665      1   0.018859   0.044953     2.60142e-01     2.09200e-02
     12662      12667      1   0.018859   0.758669     3.00055e-01     6.13495e-02
     12660      12664      1   0.020431  -0.136833     3.00055e-01     6.91943e-02
     12660      12663      1   0.020431   0.015716     2.60142e-01     2.09200e-02
     12660      12662      1   0.020431   0.015716     2.60142e-01     2.09200e-02
     12659      12664      1   0.020431  -0.136833     3.00055e-01     6.91943e-02
     12659      12663      1   0.020431   0.015716     2.60142e-01     2.09200e-02
     12659      12662      1   0.020431   0.015716     2.60142e-01     2.09200e-02
     12658      12666      1  -0.026954   0.044953     3.00055e-01     6.91943e-02
     12658      12665      1  -0.026954   0.044953     3.00055e-01     6.91943e-02
     12657      12661      1   0.010573  -0.002029     3.00055e-01     6.91943e-02
     12657      12660      1   0.010573   0.017026     2.60142e-01     2.09200e-02
     12657      12659      1   0.010573   0.017026     2.60142e-01     2.09200e-02
     12656      12661      1   0.010573  -0.002029     3.00055e-01     6.91943e-02
     12656      12660      1   0.010573   0.017026     2.60142e-01     2.09200e-02
     12656      12659      1   0.010573   0.017026     2.60142e-01     2.09200e-02
     12655      12663      1  -0.016521   0.015716     3.00055e-01     6.91943e-02
     12655      12662      1  -0.016521   0.015716     3.00055e-01     6.91943e-02
     12654      12658      1   0.011511  -0.022462     3.00055e-01     6.91943e-02
     12654      12656      1   0.011511   0.008811     2.60142e-01     2.09200e-02
     12654      12657      1   0.011511   0.008811     2.60142e-01     2.09200e-02
     12653      12658      1   0.011511  -0.022462     3.00055e-01     6.91943e-02
     12653      12656      1   0.011511   0.008811     2.60142e-01     2.09200e-02
     12653      12657      1   0.011511   0.008811     2.60142e-01     2.09200e-02
     12652      12660      1  -0.027812   0.017026     3.00055e-01     6.91943e-02
     12652      12659      1  -0.027812   0.017026     3.00055e-01     6.91943e-02
     12651      12655      1   0.006833  -0.013767     3.00055e-01     6.91943e-02
     12651      12653      1   0.006833   0.009592     2.60142e-01     2.09200e-02
     12651      12654      1   0.006833   0.009592     2.60142e-01     2.09200e-02
     12650      12655      1   0.006833  -0.013767     3.00055e-01     6.91943e-02
     12650      12653      1   0.006833   0.009592     2.60142e-01     2.09200e-02
     12650      12654      1   0.006833   0.009592     2.60142e-01     2.09200e-02
     12649      12656      1  -0.004386   0.008811     3.00055e-01     6.91943e-02
     12649      12657      1  -0.004386   0.008811     3.00055e-01     6.91943e-02
     12648      12652      1   0.011241  -0.023177     3.00055e-01     6.91943e-02
     12648      12650      1   0.011241   0.005694     2.60142e-01     2.09200e-02
     12648      12651      1   0.011241   0.005694     2.60142e-01     2.09200e-02
     12647      12652      1   0.011241  -0.023177     3.00055e-01     6.91943e-02
     12647      12650      1   0.011241   0.005694     2.60142e-01     2.09200e-02
     12647      12651      1   0.011241   0.005694     2.60142e-01     2.09200e-02
     12646      12653      1  -0.026451   0.009592     3.00055e-01     6.91943e-02
     12646      12654      1  -0.026451   0.009592     3.00055e-01     6.91943e-02
     12645      12649      1   0.010172  -0.003655     3.00055e-01     6.91943e-02
     12645      12648      1   0.010172   0.009367     2.60142e-01     2.09200e-02
     12645      12647      1   0.010172   0.009367     2.60142e-01     2.09200e-02
     12644      12649      1   0.010172  -0.003655     3.00055e-01     6.91943e-02
     12644      12648      1   0.010172   0.009367     2.60142e-01     2.09200e-02
     12644      12647      1   0.010172   0.009367     2.60142e-01     2.09200e-02
     12643      12650      1  -0.014653   0.005694     3.00055e-01     6.91943e-02
     12643      12651      1  -0.014653   0.005694     3.00055e-01     6.91943e-02
     12642      12646      1   0.010037  -0.022042     3.00055e-01     6.91943e-02
     12642      12644      1   0.010037   0.008477     2.60142e-01     2.09200e-02
     12642      12645      1   0.010037   0.008477     2.60142e-01     2.09200e-02
     12641      12646      1   0.010037  -0.022042     3.00055e-01     6.91943e-02
     12641      12644      1   0.010037   0.008477     2.60142e-01     2.09200e-02
     12641      12645      1   0.010037   0.008477     2.60142e-01     2.09200e-02
     12640      12648      1  -0.021025   0.009367     3.00055e-01     6.91943e-02
     12640      12647      1  -0.021025   0.009367     3.00055e-01     6.91943e-02
     12639      12643      1   0.012677  -0.012211     3.00055e-01     6.91943e-02
     12639      12642      1   0.012677   0.008364     2.60142e-01     2.09200e-02
     12639      12641      1   0.012677   0.008364     2.60142e-01     2.09200e-02
     12638      12643      1   0.012677  -0.012211     3.00055e-01     6.91943e-02
     12638      12642      1   0.012677   0.008364     2.60142e-01     2.09200e-02
     12638      12641      1   0.012677   0.008364     2.60142e-01     2.09200e-02
     12637      12644      1  -0.031787   0.008477     3.00055e-01     6.91943e-02
     12637      12645      1  -0.031787   0.008477     3.00055e-01     6.91943e-02
     12636      12640      1   0.017208  -0.017521     3.00055e-01     6.91943e-02
     12636      12638      1   0.017208   0.010564     2.60142e-01     2.09200e-02
     12636      12639      1   0.017208   0.010564     2.60142e-01     2.09200e-02
     12635      12640      1   0.017208  -0.017521     3.00055e-01     6.91943e-02
     12635      12638      1   0.017208   0.010564     2.60142e-01     2.09200e-02
     12635      12639      1   0.017208   0.010564     2.60142e-01     2.09200e-02
     12634      12642      1  -0.028094   0.008364     3.00055e-01     6.91943e-02
     12634      12641      1  -0.028094   0.008364     3.00055e-01     6.91943e-02
     12633      12637      1   0.007531  -0.026489     3.00055e-01     6.91943e-02
     12633      12636      1   0.007531   0.014340     2.60142e-01     2.09200e-02
     12633      12635      1   0.007531   0.014340     2.60142e-01     2.09200e-02
     12632      12637      1   0.007531  -0.026489     3.00055e-01     6.91943e-02
     12632      12636      1   0.007531   0.014340     2.60142e-01     2.09200e-02
     12632      12635      1   0.007531   0.014340     2.60142e-01     2.09200e-02
     12631      12638      1   0.017463   0.010564     3.00055e-01     6.91943e-02
     12631      12639      1   0.017463   0.010564     3.00055e-01     6.91943e-02
     12630      12634      1   0.025511  -0.023412     3.00055e-01     6.91943e-02
     12630      12632      1   0.025511   0.006276     2.60142e-01     2.09200e-02
     12630      12633      1   0.025511   0.006276     2.60142e-01     2.09200e-02
     12629      12634      1   0.025511  -0.023412     3.00055e-01     6.91943e-02
     12629      12632      1   0.025511   0.006276     2.60142e-01     2.09200e-02
     12629      12633      1   0.025511   0.006276     2.60142e-01     2.09200e-02
     12628      12636      1  -0.111712   0.014340     3.00055e-01     6.91943e-02
     12628      12635      1  -0.111712   0.014340     3.00055e-01     6.91943e-02
     12627      12634      1   0.025511  -0.023412     3.00055e-01     6.91943e-02
     12627      12632      1   0.025511   0.006276     2.60142e-01     2.09200e-02
     12627      12633      1   0.025511   0.006276     2.60142e-01     2.09200e-02
     12704      12744      1  -0.673755   0.044953     2.78067e-01     9.58675e-02
     12704      12743      1  -0.673755   0.044953     2.78067e-01     9.58675e-02
     12703      12741      1   0.897613   0.015716     3.00055e-01     6.13495e-02
     12703      12740      1   0.897613   0.015716     3.00055e-01     6.13495e-02
     12702      12744      1  -0.552948   0.044953     2.80072e-01     8.62554e-02
     12702      12743      1  -0.552948   0.044953     2.80072e-01     8.62554e-02
     12695      12696      1   0.172230  -0.282478     2.67982e-01     8.67002e-02
     12694      12696      1   0.172230  -0.282478     2.67982e-01     8.67002e-02
     12693      12696      1   0.172230  -0.282478     2.67982e-01     8.67002e-02
     12692      12697      1  -0.338973   0.143525     2.67982e-01     8.67002e-02
     12692      12698      1  -0.338973   0.143525     2.67982e-01     8.67002e-02
     12692      12699      1  -0.338973   0.143525     2.67982e-01     8.67002e-02
     12691      12692      1   0.172230  -0.282478     2.67982e-01     8.67002e-02
     12691      12696      1   0.172230  -0.282478     2.67982e-01     8.67002e-02
     12690      12692      1   0.172230  -0.282478     2.67982e-01     8.67002e-02
     12690      12696      1   0.172230  -0.282478     2.67982e-01     8.67002e-02
     12689      12692      1   0.172230  -0.282478     2.67982e-01     8.67002e-02
     12689      12696      1   0.172230  -0.282478     2.67982e-01     8.67002e-02
     12688      12693      1  -0.338973   0.143525     2.67982e-01     8.67002e-02
     12688      12694      1  -0.338973   0.143525     2.67982e-01     8.67002e-02
     12688      12695      1  -0.338973   0.143525     2.67982e-01     8.67002e-02
     12688      12697      1  -0.338973   0.143525     2.67982e-01     8.67002e-02
     12688      12698      1  -0.338973   0.143525     2.67982e-01     8.67002e-02
     12688      12699      1  -0.338973   0.143525     2.67982e-01     8.67002e-02
     12686      12688      1   0.136415  -0.282478     2.67982e-01     8.67002e-02
     12686      12692      1   0.136415  -0.282478     2.67982e-01     8.67002e-02
     12686      12696      1   0.136415  -0.282478     2.67982e-01     8.67002e-02
     12685      12688      1   0.136415  -0.282478     2.67982e-01     8.67002e-02
     12685      12692      1   0.136415  -0.282478     2.67982e-01     8.67002e-02
     12685      12696      1   0.136415  -0.282478     2.67982e-01     8.67002e-02
     12684      12689      1  -0.170824   0.143525     2.67982e-01     8.67002e-02
     12684      12690      1  -0.170824   0.143525     2.67982e-01     8.67002e-02
     12684      12691      1  -0.170824   0.143525     2.67982e-01     8.67002e-02
     12684      12693      1  -0.170824   0.143525     2.67982e-01     8.67002e-02
     12684      12694      1  -0.170824   0.143525     2.67982e-01     8.67002e-02
     12684      12695      1  -0.170824   0.143525     2.67982e-01     8.67002e-02
     12684      12697      1  -0.170824   0.143525     2.67982e-01     8.67002e-02
     12684      12698      1  -0.170824   0.143525     2.67982e-01     8.67002e-02
     12684      12699      1  -0.170824   0.143525     2.67982e-01     8.67002e-02
     12683      12685      1   0.078534   0.113679     2.21567e-01     3.28444e-02
     12683      12686      1   0.078534   0.113679     2.21567e-01     3.28444e-02
     12683      12687      1   0.078534   0.204385     2.86068e-01     1.08078e-01
     12682      12685      1   0.078534   0.113679     2.21567e-01     3.28444e-02
     12682      12686      1   0.078534   0.113679     2.21567e-01     3.28444e-02
     12682      12687      1   0.078534   0.204385     2.86068e-01     1.08078e-01
     12680      12685      1  -0.508176   0.113679     2.47999e-01     1.08078e-01
     12680      12686      1  -0.508176   0.113679     2.47999e-01     1.08078e-01
     12679      12682      1   1.339721   0.065445     3.10656e-01     1.17227e-01
     12679      12683      1   1.339721   0.065445     3.10656e-01     1.17227e-01
     12677      12702      1   0.095591  -0.460790     2.73568e-01     1.08078e-01
     12677      12679      1   0.095591   1.116434     3.10656e-01     1.17227e-01
     12676      12702      1   0.095591  -0.460790     2.73568e-01     1.08078e-01
     12676      12679      1   0.095591   1.116434     3.10656e-01     1.17227e-01
     12674      12676      1   0.063253   0.079659     2.47135e-01     3.28444e-02
     12674      12677      1   0.063253   0.079659     2.47135e-01     3.28444e-02
     12674      12678      1   0.063253  -0.424567     2.73568e-01     1.08078e-01
     12674      12703      1   0.063253   0.748011     2.93551e-01     7.68707e-02
     12672      12674      1   0.070469   0.052711     2.47135e-01     3.28444e-02
     12672      12675      1   0.070469   0.014549     2.93551e-01     8.67002e-02
     12672      12702      1   0.070469  -0.460790     2.73568e-01     1.08078e-01
     12671      12674      1   0.070469   0.052711     2.47135e-01     3.28444e-02
     12671      12675      1   0.070469   0.014549     2.93551e-01     8.67002e-02
     12671      12702      1   0.070469  -0.460790     2.73568e-01     1.08078e-01
     12670      12676      1   0.196939   0.079659     2.93551e-01     8.67002e-02
     12670      12677      1   0.196939   0.079659     2.93551e-01     8.67002e-02
     12669      12674      1  -0.575489   0.052711     2.73568e-01     1.08078e-01
     12667      12671      1   0.910403   0.058724     2.93551e-01     7.68707e-02
     12667      12672      1   0.910403   0.058724     2.93551e-01     7.68707e-02
     12741      12744      1   0.018859   0.044953     2.60142e-01     2.09200e-02
     12741      12743      1   0.018859   0.044953     2.60142e-01     2.09200e-02
     12740      12744      1   0.018859   0.044953     2.60142e-01     2.09200e-02
     12740      12743      1   0.018859   0.044953     2.60142e-01     2.09200e-02
     12738      12742      1   0.020431  -0.136833     3.00055e-01     6.91943e-02
     12738      12741      1   0.020431   0.015716     2.60142e-01     2.09200e-02
     12738      12740      1   0.020431   0.015716     2.60142e-01     2.09200e-02
     12737      12742      1   0.020431  -0.136833     3.00055e-01     6.91943e-02
     12737      12741      1   0.020431   0.015716     2.60142e-01     2.09200e-02
     12737      12740      1   0.020431   0.015716     2.60142e-01     2.09200e-02
     12736      12744      1  -0.026954   0.044953     3.00055e-01     6.91943e-02
     12736      12743      1  -0.026954   0.044953     3.00055e-01     6.91943e-02
     12735      12739      1   0.010573  -0.002029     3.00055e-01     6.91943e-02
     12735      12738      1   0.010573   0.017026     2.60142e-01     2.09200e-02
     12735      12737      1   0.010573   0.017026     2.60142e-01     2.09200e-02
     12734      12739      1   0.010573  -0.002029     3.00055e-01     6.91943e-02
     12734      12738      1   0.010573   0.017026     2.60142e-01     2.09200e-02
     12734      12737      1   0.010573   0.017026     2.60142e-01     2.09200e-02
     12733      12741      1  -0.016521   0.015716     3.00055e-01     6.91943e-02
     12733      12740      1  -0.016521   0.015716     3.00055e-01     6.91943e-02
     12732      12736      1   0.011511  -0.022462     3.00055e-01     6.91943e-02
     12732      12734      1   0.011511   0.008811     2.60142e-01     2.09200e-02
     12732      12735      1   0.011511   0.008811     2.60142e-01     2.09200e-02
     12731      12736      1   0.011511  -0.022462     3.00055e-01     6.91943e-02
     12731      12734      1   0.011511   0.008811     2.60142e-01     2.09200e-02
     12731      12735      1   0.011511   0.008811     2.60142e-01     2.09200e-02
     12730      12738      1  -0.027812   0.017026     3.00055e-01     6.91943e-02
     12730      12737      1  -0.027812   0.017026     3.00055e-01     6.91943e-02
     12729      12733      1   0.006833  -0.013767     3.00055e-01     6.91943e-02
     12729      12731      1   0.006833   0.009592     2.60142e-01     2.09200e-02
     12729      12732      1   0.006833   0.009592     2.60142e-01     2.09200e-02
     12728      12733      1   0.006833  -0.013767     3.00055e-01     6.91943e-02
     12728      12731      1   0.006833   0.009592     2.60142e-01     2.09200e-02
     12728      12732      1   0.006833   0.009592     2.60142e-01     2.09200e-02
     12727      12734      1  -0.004386   0.008811     3.00055e-01     6.91943e-02
     12727      12735      1  -0.004386   0.008811     3.00055e-01     6.91943e-02
     12726      12730      1   0.011241  -0.023177     3.00055e-01     6.91943e-02
     12726      12728      1   0.011241   0.005694     2.60142e-01     2.09200e-02
     12726      12729      1   0.011241   0.005694     2.60142e-01     2.09200e-02
     12725      12730      1   0.011241  -0.023177     3.00055e-01     6.91943e-02
     12725      12728      1   0.011241   0.005694     2.60142e-01     2.09200e-02
     12725      12729      1   0.011241   0.005694     2.60142e-01     2.09200e-02
     12724      12731      1  -0.026451   0.009592     3.00055e-01     6.91943e-02
     12724      12732      1  -0.026451   0.009592     3.00055e-01     6.91943e-02
     12723      12727      1   0.010172  -0.003655     3.00055e-01     6.91943e-02
     12723      12726      1   0.010172   0.009367     2.60142e-01     2.09200e-02
     12723      12725      1   0.010172   0.009367     2.60142e-01     2.09200e-02
     12722      12727      1   0.010172  -0.003655     3.00055e-01     6.91943e-02
     12722      12726      1   0.010172   0.009367     2.60142e-01     2.09200e-02
     12722      12725      1   0.010172   0.009367     2.60142e-01     2.09200e-02
     12721      12728      1  -0.014653   0.005694     3.00055e-01     6.91943e-02
     12721      12729      1  -0.014653   0.005694     3.00055e-01     6.91943e-02
     12720      12724      1   0.010037  -0.022042     3.00055e-01     6.91943e-02
     12720      12722      1   0.010037   0.008477     2.60142e-01     2.09200e-02
     12720      12723      1   0.010037   0.008477     2.60142e-01     2.09200e-02
     12719      12724      1   0.010037  -0.022042     3.00055e-01     6.91943e-02
     12719      12722      1   0.010037   0.008477     2.60142e-01     2.09200e-02
     12719      12723      1   0.010037   0.008477     2.60142e-01     2.09200e-02
     12718      12726      1  -0.021025   0.009367     3.00055e-01     6.91943e-02
     12718      12725      1  -0.021025   0.009367     3.00055e-01     6.91943e-02
     12717      12721      1   0.012677  -0.012211     3.00055e-01     6.91943e-02
     12717      12720      1   0.012677   0.008364     2.60142e-01     2.09200e-02
     12717      12719      1   0.012677   0.008364     2.60142e-01     2.09200e-02
     12716      12721      1   0.012677  -0.012211     3.00055e-01     6.91943e-02
     12716      12720      1   0.012677   0.008364     2.60142e-01     2.09200e-02
     12716      12719      1   0.012677   0.008364     2.60142e-01     2.09200e-02
     12715      12722      1  -0.031787   0.008477     3.00055e-01     6.91943e-02
     12715      12723      1  -0.031787   0.008477     3.00055e-01     6.91943e-02
     12714      12718      1   0.017208  -0.017521     3.00055e-01     6.91943e-02
     12714      12716      1   0.017208   0.010564     2.60142e-01     2.09200e-02
     12714      12717      1   0.017208   0.010564     2.60142e-01     2.09200e-02
     12713      12718      1   0.017208  -0.017521     3.00055e-01     6.91943e-02
     12713      12716      1   0.017208   0.010564     2.60142e-01     2.09200e-02
     12713      12717      1   0.017208   0.010564     2.60142e-01     2.09200e-02
     12712      12720      1  -0.028094   0.008364     3.00055e-01     6.91943e-02
     12712      12719      1  -0.028094   0.008364     3.00055e-01     6.91943e-02
     12711      12715      1   0.007531  -0.026489     3.00055e-01     6.91943e-02
     12711      12714      1   0.007531   0.014340     2.60142e-01     2.09200e-02
     12711      12713      1   0.007531   0.014340     2.60142e-01     2.09200e-02
     12710      12715      1   0.007531  -0.026489     3.00055e-01     6.91943e-02
     12710      12714      1   0.007531   0.014340     2.60142e-01     2.09200e-02
     12710      12713      1   0.007531   0.014340     2.60142e-01     2.09200e-02
     12709      12716      1   0.017463   0.010564     3.00055e-01     6.91943e-02
     12709      12717      1   0.017463   0.010564     3.00055e-01     6.91943e-02
     12708      12712      1   0.025511  -0.023412     3.00055e-01     6.91943e-02
     12708      12710      1   0.025511   0.006276     2.60142e-01     2.09200e-02
     12708      12711      1   0.025511   0.006276     2.60142e-01     2.09200e-02
     12707      12712      1   0.025511  -0.023412     3.00055e-01     6.91943e-02
     12707      12710      1   0.025511   0.006276     2.60142e-01     2.09200e-02
     12707      12711      1   0.025511   0.006276     2.60142e-01     2.09200e-02
     12706      12714      1  -0.111712   0.014340     3.00055e-01     6.91943e-02
     12706      12713      1  -0.111712   0.014340     3.00055e-01     6.91943e-02
     12705      12712      1   0.025511  -0.023412     3.00055e-01     6.91943e-02
     12705      12710      1   0.025511   0.006276     2.60142e-01     2.09200e-02
     12705      12711      1   0.025511   0.006276     2.60142e-01     2.09200e-02
     12784      12786      1   0.053944  -0.559638     2.78067e-01     9.58675e-02
     12784      12787      1   0.053944  -0.479574     2.80072e-01     8.62554e-02
     12783      12786      1   0.053944  -0.559638     2.78067e-01     9.58675e-02
     12783      12787      1   0.053944  -0.479574     2.80072e-01     8.62554e-02
     12781      12784      1   0.018859   0.044953     2.60142e-01     2.09200e-02
     12781      12783      1   0.018859   0.044953     2.60142e-01     2.09200e-02
     12781      12785      1   0.018859   0.758669     3.00055e-01     6.13495e-02
     12780      12784      1   0.018859   0.044953     2.60142e-01     2.09200e-02
     12780      12783      1   0.018859   0.044953     2.60142e-01     2.09200e-02
     12780      12785      1   0.018859   0.758669     3.00055e-01     6.13495e-02
     12778      12782      1   0.020431  -0.136833     3.00055e-01     6.91943e-02
     12778      12781      1   0.020431   0.015716     2.60142e-01     2.09200e-02
     12778      12780      1   0.020431   0.015716     2.60142e-01     2.09200e-02
     12777      12782      1   0.020431  -0.136833     3.00055e-01     6.91943e-02
     12777      12781      1   0.020431   0.015716     2.60142e-01     2.09200e-02
     12777      12780      1   0.020431   0.015716     2.60142e-01     2.09200e-02
     12776      12784      1  -0.026954   0.044953     3.00055e-01     6.91943e-02
     12776      12783      1  -0.026954   0.044953     3.00055e-01     6.91943e-02
     12775      12779      1   0.010573  -0.002029     3.00055e-01     6.91943e-02
     12775      12778      1   0.010573   0.017026     2.60142e-01     2.09200e-02
     12775      12777      1   0.010573   0.017026     2.60142e-01     2.09200e-02
     12774      12779      1   0.010573  -0.002029     3.00055e-01     6.91943e-02
     12774      12778      1   0.010573   0.017026     2.60142e-01     2.09200e-02
     12774      12777      1   0.010573   0.017026     2.60142e-01     2.09200e-02
     12773      12781      1  -0.016521   0.015716     3.00055e-01     6.91943e-02
     12773      12780      1  -0.016521   0.015716     3.00055e-01     6.91943e-02
     12772      12776      1   0.011511  -0.022462     3.00055e-01     6.91943e-02
     12772      12774      1   0.011511   0.008811     2.60142e-01     2.09200e-02
     12772      12775      1   0.011511   0.008811     2.60142e-01     2.09200e-02
     12771      12776      1   0.011511  -0.022462     3.00055e-01     6.91943e-02
     12771      12774      1   0.011511   0.008811     2.60142e-01     2.09200e-02
     12771      12775      1   0.011511   0.008811     2.60142e-01     2.09200e-02
     12770      12778      1  -0.027812   0.017026     3.00055e-01     6.91943e-02
     12770      12777      1  -0.027812   0.017026     3.00055e-01     6.91943e-02
     12769      12773      1   0.006833  -0.013767     3.00055e-01     6.91943e-02
     12769      12771      1   0.006833   0.009592     2.60142e-01     2.09200e-02
     12769      12772      1   0.006833   0.009592     2.60142e-01     2.09200e-02
     12768      12773      1   0.006833  -0.013767     3.00055e-01     6.91943e-02
     12768      12771      1   0.006833   0.009592     2.60142e-01     2.09200e-02
     12768      12772      1   0.006833   0.009592     2.60142e-01     2.09200e-02
     12767      12774      1  -0.004386   0.008811     3.00055e-01     6.91943e-02
     12767      12775      1  -0.004386   0.008811     3.00055e-01     6.91943e-02
     12766      12770      1   0.011241  -0.023177     3.00055e-01     6.91943e-02
     12766      12768      1   0.011241   0.005694     2.60142e-01     2.09200e-02
     12766      12769      1   0.011241   0.005694     2.60142e-01     2.09200e-02
     12765      12770      1   0.011241  -0.023177     3.00055e-01     6.91943e-02
     12765      12768      1   0.011241   0.005694     2.60142e-01     2.09200e-02
     12765      12769      1   0.011241   0.005694     2.60142e-01     2.09200e-02
     12764      12771      1  -0.026451   0.009592     3.00055e-01     6.91943e-02
     12764      12772      1  -0.026451   0.009592     3.00055e-01     6.91943e-02
     12763      12767      1   0.010172  -0.003655     3.00055e-01     6.91943e-02
     12763      12766      1   0.010172   0.009367     2.60142e-01     2.09200e-02
     12763      12765      1   0.010172   0.009367     2.60142e-01     2.09200e-02
     12762      12767      1   0.010172  -0.003655     3.00055e-01     6.91943e-02
     12762      12766      1   0.010172   0.009367     2.60142e-01     2.09200e-02
     12762      12765      1   0.010172   0.009367     2.60142e-01     2.09200e-02
     12761      12768      1  -0.014653   0.005694     3.00055e-01     6.91943e-02
     12761      12769      1  -0.014653   0.005694     3.00055e-01     6.91943e-02
     12760      12764      1   0.010037  -0.022042     3.00055e-01     6.91943e-02
     12760      12762      1   0.010037   0.008477     2.60142e-01     2.09200e-02
     12760      12763      1   0.010037   0.008477     2.60142e-01     2.09200e-02
     12759      12764      1   0.010037  -0.022042     3.00055e-01     6.91943e-02
     12759      12762      1   0.010037   0.008477     2.60142e-01     2.09200e-02
     12759      12763      1   0.010037   0.008477     2.60142e-01     2.09200e-02
     12758      12766      1  -0.021025   0.009367     3.00055e-01     6.91943e-02
     12758      12765      1  -0.021025   0.009367     3.00055e-01     6.91943e-02
     12757      12761      1   0.012677  -0.012211     3.00055e-01     6.91943e-02
     12757      12760      1   0.012677   0.008364     2.60142e-01     2.09200e-02
     12757      12759      1   0.012677   0.008364     2.60142e-01     2.09200e-02
     12756      12761      1   0.012677  -0.012211     3.00055e-01     6.91943e-02
     12756      12760      1   0.012677   0.008364     2.60142e-01     2.09200e-02
     12756      12759      1   0.012677   0.008364     2.60142e-01     2.09200e-02
     12755      12762      1  -0.031787   0.008477     3.00055e-01     6.91943e-02
     12755      12763      1  -0.031787   0.008477     3.00055e-01     6.91943e-02
     12754      12758      1   0.017208  -0.017521     3.00055e-01     6.91943e-02
     12754      12756      1   0.017208   0.010564     2.60142e-01     2.09200e-02
     12754      12757      1   0.017208   0.010564     2.60142e-01     2.09200e-02
     12753      12758      1   0.017208  -0.017521     3.00055e-01     6.91943e-02
     12753      12756      1   0.017208   0.010564     2.60142e-01     2.09200e-02
     12753      12757      1   0.017208   0.010564     2.60142e-01     2.09200e-02
     12752      12760      1  -0.028094   0.008364     3.00055e-01     6.91943e-02
     12752      12759      1  -0.028094   0.008364     3.00055e-01     6.91943e-02
     12751      12755      1   0.007531  -0.026489     3.00055e-01     6.91943e-02
     12751      12754      1   0.007531   0.014340     2.60142e-01     2.09200e-02
     12751      12753      1   0.007531   0.014340     2.60142e-01     2.09200e-02
     12750      12755      1   0.007531  -0.026489     3.00055e-01     6.91943e-02
     12750      12754      1   0.007531   0.014340     2.60142e-01     2.09200e-02
     12750      12753      1   0.007531   0.014340     2.60142e-01     2.09200e-02
     12749      12756      1   0.017463   0.010564     3.00055e-01     6.91943e-02
     12749      12757      1   0.017463   0.010564     3.00055e-01     6.91943e-02
     12748      12752      1   0.025511  -0.023412     3.00055e-01     6.91943e-02
     12748      12750      1   0.025511   0.006276     2.60142e-01     2.09200e-02
     12748      12751      1   0.025511   0.006276     2.60142e-01     2.09200e-02
     12747      12752      1   0.025511  -0.023412     3.00055e-01     6.91943e-02
     12747      12750      1   0.025511   0.006276     2.60142e-01     2.09200e-02
     12747      12751      1   0.025511   0.006276     2.60142e-01     2.09200e-02
     12746      12754      1  -0.111712   0.014340     3.00055e-01     6.91943e-02
     12746      12753      1  -0.111712   0.014340     3.00055e-01     6.91943e-02
     12745      12752      1   0.025511  -0.023412     3.00055e-01     6.91943e-02
     12745      12750      1   0.025511   0.006276     2.60142e-01     2.09200e-02
     12745      12751      1   0.025511   0.006276     2.60142e-01     2.09200e-02
     12822      12862      1  -0.673755   0.044953     2.78067e-01     9.58675e-02
     12822      12861      1  -0.673755   0.044953     2.78067e-01     9.58675e-02
     12821      12859      1   0.897613   0.015716     3.00055e-01     6.13495e-02
     12821      12858      1   0.897613   0.015716     3.00055e-01     6.13495e-02
     12820      12862      1  -0.552948   0.044953     2.80072e-01     8.62554e-02
     12820      12861      1  -0.552948   0.044953     2.80072e-01     8.62554e-02
     12813      12814      1   0.172230  -0.282478     2.67982e-01     8.67002e-02
     12812      12814      1   0.172230  -0.282478     2.67982e-01     8.67002e-02
     12811      12814      1   0.172230  -0.282478     2.67982e-01     8.67002e-02
     12810      12815      1  -0.338973   0.143525     2.67982e-01     8.67002e-02
     12810      12816      1  -0.338973   0.143525     2.67982e-01     8.67002e-02
     12810      12817      1  -0.338973   0.143525     2.67982e-01     8.67002e-02
     12809      12810      1   0.172230  -0.282478     2.67982e-01     8.67002e-02
     12809      12814      1   0.172230  -0.282478     2.67982e-01     8.67002e-02
     12808      12810      1   0.172230  -0.282478     2.67982e-01     8.67002e-02
     12808      12814      1   0.172230  -0.282478     2.67982e-01     8.67002e-02
     12807      12810      1   0.172230  -0.282478     2.67982e-01     8.67002e-02
     12807      12814      1   0.172230  -0.282478     2.67982e-01     8.67002e-02
     12806      12811      1  -0.338973   0.143525     2.67982e-01     8.67002e-02
     12806      12812      1  -0.338973   0.143525     2.67982e-01     8.67002e-02
     12806      12813      1  -0.338973   0.143525     2.67982e-01     8.67002e-02
     12806      12815      1  -0.338973   0.143525     2.67982e-01     8.67002e-02
     12806      12816      1  -0.338973   0.143525     2.67982e-01     8.67002e-02
     12806      12817      1  -0.338973   0.143525     2.67982e-01     8.67002e-02
     12804      12806      1   0.136415  -0.282478     2.67982e-01     8.67002e-02
     12804      12810      1   0.136415  -0.282478     2.67982e-01     8.67002e-02
     12804      12814      1   0.136415  -0.282478     2.67982e-01     8.67002e-02
     12803      12806      1   0.136415  -0.282478     2.67982e-01     8.67002e-02
     12803      12810      1   0.136415  -0.282478     2.67982e-01     8.67002e-02
     12803      12814      1   0.136415  -0.282478     2.67982e-01     8.67002e-02
     12802      12807      1  -0.170824   0.143525     2.67982e-01     8.67002e-02
     12802      12808      1  -0.170824   0.143525     2.67982e-01     8.67002e-02
     12802      12809      1  -0.170824   0.143525     2.67982e-01     8.67002e-02
     12802      12811      1  -0.170824   0.143525     2.67982e-01     8.67002e-02
     12802      12812      1  -0.170824   0.143525     2.67982e-01     8.67002e-02
     12802      12813      1  -0.170824   0.143525     2.67982e-01     8.67002e-02
     12802      12815      1  -0.170824   0.143525     2.67982e-01     8.67002e-02
     12802      12816      1  -0.170824   0.143525     2.67982e-01     8.67002e-02
     12802      12817      1  -0.170824   0.143525     2.67982e-01     8.67002e-02
     12801      12803      1   0.078534   0.113679     2.21567e-01     3.28444e-02
     12801      12804      1   0.078534   0.113679     2.21567e-01     3.28444e-02
     12801      12805      1   0.078534   0.204385     2.86068e-01     1.08078e-01
     12800      12803      1   0.078534   0.113679     2.21567e-01     3.28444e-02
     12800      12804      1   0.078534   0.113679     2.21567e-01     3.28444e-02
     12800      12805      1   0.078534   0.204385     2.86068e-01     1.08078e-01
     12798      12803      1  -0.508176   0.113679     2.47999e-01     1.08078e-01
     12798      12804      1  -0.508176   0.113679     2.47999e-01     1.08078e-01
     12797      12800      1   1.339721   0.065445     3.10656e-01     1.17227e-01
     12797      12801      1   1.339721   0.065445     3.10656e-01     1.17227e-01
     12795      12820      1   0.095591  -0.460790     2.73568e-01     1.08078e-01
     12795      12797      1   0.095591   1.116434     3.10656e-01     1.17227e-01
     12794      12820      1   0.095591  -0.460790     2.73568e-01     1.08078e-01
     12794      12797      1   0.095591   1.116434     3.10656e-01     1.17227e-01
     12792      12794      1   0.063253   0.079659     2.47135e-01     3.28444e-02
     12792      12795      1   0.063253   0.079659     2.47135e-01     3.28444e-02
     12792      12796      1   0.063253  -0.424567     2.73568e-01     1.08078e-01
     12792      12821      1   0.063253   0.748011     2.93551e-01     7.68707e-02
     12790      12792      1   0.070469   0.052711     2.47135e-01     3.28444e-02
     12790      12793      1   0.070469   0.014549     2.93551e-01     8.67002e-02
     12790      12820      1   0.070469  -0.460790     2.73568e-01     1.08078e-01
     12789      12792      1   0.070469   0.052711     2.47135e-01     3.28444e-02
     12789      12793      1   0.070469   0.014549     2.93551e-01     8.67002e-02
     12789      12820      1   0.070469  -0.460790     2.73568e-01     1.08078e-01
     12788      12794      1   0.196939   0.079659     2.93551e-01     8.67002e-02
     12788      12795      1   0.196939   0.079659     2.93551e-01     8.67002e-02
     12787      12792      1  -0.575489   0.052711     2.73568e-01     1.08078e-01
     12785      12789      1   0.910403   0.058724     2.93551e-01     7.68707e-02
     12785      12790      1   0.910403   0.058724     2.93551e-01     7.68707e-02
     12859      12862      1   0.018859   0.044953     2.60142e-01     2.09200e-02
     12859      12861      1   0.018859   0.044953     2.60142e-01     2.09200e-02
     12858      12862      1   0.018859   0.044953     2.60142e-01     2.09200e-02
     12858      12861      1   0.018859   0.044953     2.60142e-01     2.09200e-02
     12856      12860      1   0.020431  -0.136833     3.00055e-01     6.91943e-02
     12856      12859      1   0.020431   0.015716     2.60142e-01     2.09200e-02
     12856      12858      1   0.020431   0.015716     2.60142e-01     2.09200e-02
     12855      12860      1   0.020431  -0.136833     3.00055e-01     6.91943e-02
     12855      12859      1   0.020431   0.015716     2.60142e-01     2.09200e-02
     12855      12858      1   0.020431   0.015716     2.60142e-01     2.09200e-02
     12854      12862      1  -0.026954   0.044953     3.00055e-01     6.91943e-02
     12854      12861      1  -0.026954   0.044953     3.00055e-01     6.91943e-02
     12853      12857      1   0.010573  -0.002029     3.00055e-01     6.91943e-02
     12853      12856      1   0.010573   0.017026     2.60142e-01     2.09200e-02
     12853      12855      1   0.010573   0.017026     2.60142e-01     2.09200e-02
     12852      12857      1   0.010573  -0.002029     3.00055e-01     6.91943e-02
     12852      12856      1   0.010573   0.017026     2.60142e-01     2.09200e-02
     12852      12855      1   0.010573   0.017026     2.60142e-01     2.09200e-02
     12851      12859      1  -0.016521   0.015716     3.00055e-01     6.91943e-02
     12851      12858      1  -0.016521   0.015716     3.00055e-01     6.91943e-02
     12850      12854      1   0.011511  -0.022462     3.00055e-01     6.91943e-02
     12850      12852      1   0.011511   0.008811     2.60142e-01     2.09200e-02
     12850      12853      1   0.011511   0.008811     2.60142e-01     2.09200e-02
     12849      12854      1   0.011511  -0.022462     3.00055e-01     6.91943e-02
     12849      12852      1   0.011511   0.008811     2.60142e-01     2.09200e-02
     12849      12853      1   0.011511   0.008811     2.60142e-01     2.09200e-02
     12848      12856      1  -0.027812   0.017026     3.00055e-01     6.91943e-02
     12848      12855      1  -0.027812   0.017026     3.00055e-01     6.91943e-02
     12847      12851      1   0.006833  -0.013767     3.00055e-01     6.91943e-02
     12847      12849      1   0.006833   0.009592     2.60142e-01     2.09200e-02
     12847      12850      1   0.006833   0.009592     2.60142e-01     2.09200e-02
     12846      12851      1   0.006833  -0.013767     3.00055e-01     6.91943e-02
     12846      12849      1   0.006833   0.009592     2.60142e-01     2.09200e-02
     12846      12850      1   0.006833   0.009592     2.60142e-01     2.09200e-02
     12845      12852      1  -0.004386   0.008811     3.00055e-01     6.91943e-02
     12845      12853      1  -0.004386   0.008811     3.00055e-01     6.91943e-02
     12844      12848      1   0.011241  -0.023177     3.00055e-01     6.91943e-02
     12844      12846      1   0.011241   0.005694     2.60142e-01     2.09200e-02
     12844      12847      1   0.011241   0.005694     2.60142e-01     2.09200e-02
     12843      12848      1   0.011241  -0.023177     3.00055e-01     6.91943e-02
     12843      12846      1   0.011241   0.005694     2.60142e-01     2.09200e-02
     12843      12847      1   0.011241   0.005694     2.60142e-01     2.09200e-02
     12842      12849      1  -0.026451   0.009592     3.00055e-01     6.91943e-02
     12842      12850      1  -0.026451   0.009592     3.00055e-01     6.91943e-02
     12841      12845      1   0.010172  -0.003655     3.00055e-01     6.91943e-02
     12841      12844      1   0.010172   0.009367     2.60142e-01     2.09200e-02
     12841      12843      1   0.010172   0.009367     2.60142e-01     2.09200e-02
     12840      12845      1   0.010172  -0.003655     3.00055e-01     6.91943e-02
     12840      12844      1   0.010172   0.009367     2.60142e-01     2.09200e-02
     12840      12843      1   0.010172   0.009367     2.60142e-01     2.09200e-02
     12839      12846      1  -0.014653   0.005694     3.00055e-01     6.91943e-02
     12839      12847      1  -0.014653   0.005694     3.00055e-01     6.91943e-02
     12838      12842      1   0.010037  -0.022042     3.00055e-01     6.91943e-02
     12838      12840      1   0.010037   0.008477     2.60142e-01     2.09200e-02
     12838      12841      1   0.010037   0.008477     2.60142e-01     2.09200e-02
     12837      12842      1   0.010037  -0.022042     3.00055e-01     6.91943e-02
     12837      12840      1   0.010037   0.008477     2.60142e-01     2.09200e-02
     12837      12841      1   0.010037   0.008477     2.60142e-01     2.09200e-02
     12836      12844      1  -0.021025   0.009367     3.00055e-01     6.91943e-02
     12836      12843      1  -0.021025   0.009367     3.00055e-01     6.91943e-02
     12835      12839      1   0.012677  -0.012211     3.00055e-01     6.91943e-02
     12835      12838      1   0.012677   0.008364     2.60142e-01     2.09200e-02
     12835      12837      1   0.012677   0.008364     2.60142e-01     2.09200e-02
     12834      12839      1   0.012677  -0.012211     3.00055e-01     6.91943e-02
     12834      12838      1   0.012677   0.008364     2.60142e-01     2.09200e-02
     12834      12837      1   0.012677   0.008364     2.60142e-01     2.09200e-02
     12833      12840      1  -0.031787   0.008477     3.00055e-01     6.91943e-02
     12833      12841      1  -0.031787   0.008477     3.00055e-01     6.91943e-02
     12832      12836      1   0.017208  -0.017521     3.00055e-01     6.91943e-02
     12832      12834      1   0.017208   0.010564     2.60142e-01     2.09200e-02
     12832      12835      1   0.017208   0.010564     2.60142e-01     2.09200e-02
     12831      12836      1   0.017208  -0.017521     3.00055e-01     6.91943e-02
     12831      12834      1   0.017208   0.010564     2.60142e-01     2.09200e-02
     12831      12835      1   0.017208   0.010564     2.60142e-01     2.09200e-02
     12830      12838      1  -0.028094   0.008364     3.00055e-01     6.91943e-02
     12830      12837      1  -0.028094   0.008364     3.00055e-01     6.91943e-02
     12829      12833      1   0.007531  -0.026489     3.00055e-01     6.91943e-02
     12829      12832      1   0.007531   0.014340     2.60142e-01     2.09200e-02
     12829      12831      1   0.007531   0.014340     2.60142e-01     2.09200e-02
     12828      12833      1   0.007531  -0.026489     3.00055e-01     6.91943e-02
     12828      12832      1   0.007531   0.014340     2.60142e-01     2.09200e-02
     12828      12831      1   0.007531   0.014340     2.60142e-01     2.09200e-02
     12827      12834      1   0.017463   0.010564     3.00055e-01     6.91943e-02
     12827      12835      1   0.017463   0.010564     3.00055e-01     6.91943e-02
     12826      12830      1   0.025511  -0.023412     3.00055e-01     6.91943e-02
     12826      12828      1   0.025511   0.006276     2.60142e-01     2.09200e-02
     12826      12829      1   0.025511   0.006276     2.60142e-01     2.09200e-02
     12825      12830      1   0.025511  -0.023412     3.00055e-01     6.91943e-02
     12825      12828      1   0.025511   0.006276     2.60142e-01     2.09200e-02
     12825      12829      1   0.025511   0.006276     2.60142e-01     2.09200e-02
     12824      12832      1  -0.111712   0.014340     3.00055e-01     6.91943e-02
     12824      12831      1  -0.111712   0.014340     3.00055e-01     6.91943e-02
     12823      12830      1   0.025511  -0.023412     3.00055e-01     6.91943e-02
     12823      12828      1   0.025511   0.006276     2.60142e-01     2.09200e-02
     12823      12829      1   0.025511   0.006276     2.60142e-01     2.09200e-02
     12902      12904      1   0.053944  -0.559638     2.78067e-01     9.58675e-02
     12902      12905      1   0.053944  -0.479574     2.80072e-01     8.62554e-02
     12901      12904      1   0.053944  -0.559638     2.78067e-01     9.58675e-02
     12901      12905      1   0.053944  -0.479574     2.80072e-01     8.62554e-02
     12899      12902      1   0.018859   0.044953     2.60142e-01     2.09200e-02
     12899      12901      1   0.018859   0.044953     2.60142e-01     2.09200e-02
     12899      12903      1   0.018859   0.758669     3.00055e-01     6.13495e-02
     12898      12902      1   0.018859   0.044953     2.60142e-01     2.09200e-02
     12898      12901      1   0.018859   0.044953     2.60142e-01     2.09200e-02
     12898      12903      1   0.018859   0.758669     3.00055e-01     6.13495e-02
     12896      12900      1   0.020431  -0.136833     3.00055e-01     6.91943e-02
     12896      12899      1   0.020431   0.015716     2.60142e-01     2.09200e-02
     12896      12898      1   0.020431   0.015716     2.60142e-01     2.09200e-02
     12895      12900      1   0.020431  -0.136833     3.00055e-01     6.91943e-02
     12895      12899      1   0.020431   0.015716     2.60142e-01     2.09200e-02
     12895      12898      1   0.020431   0.015716     2.60142e-01     2.09200e-02
     12894      12902      1  -0.026954   0.044953     3.00055e-01     6.91943e-02
     12894      12901      1  -0.026954   0.044953     3.00055e-01     6.91943e-02
     12893      12897      1   0.010573  -0.002029     3.00055e-01     6.91943e-02
     12893      12896      1   0.010573   0.017026     2.60142e-01     2.09200e-02
     12893      12895      1   0.010573   0.017026     2.60142e-01     2.09200e-02
     12892      12897      1   0.010573  -0.002029     3.00055e-01     6.91943e-02
     12892      12896      1   0.010573   0.017026     2.60142e-01     2.09200e-02
     12892      12895      1   0.010573   0.017026     2.60142e-01     2.09200e-02
     12891      12899      1  -0.016521   0.015716     3.00055e-01     6.91943e-02
     12891      12898      1  -0.016521   0.015716     3.00055e-01     6.91943e-02
     12890      12894      1   0.011511  -0.022462     3.00055e-01     6.91943e-02
     12890      12892      1   0.011511   0.008811     2.60142e-01     2.09200e-02
     12890      12893      1   0.011511   0.008811     2.60142e-01     2.09200e-02
     12889      12894      1   0.011511  -0.022462     3.00055e-01     6.91943e-02
     12889      12892      1   0.011511   0.008811     2.60142e-01     2.09200e-02
     12889      12893      1   0.011511   0.008811     2.60142e-01     2.09200e-02
     12888      12896      1  -0.027812   0.017026     3.00055e-01     6.91943e-02
     12888      12895      1  -0.027812   0.017026     3.00055e-01     6.91943e-02
     12887      12891      1   0.006833  -0.013767     3.00055e-01     6.91943e-02
     12887      12889      1   0.006833   0.009592     2.60142e-01     2.09200e-02
     12887      12890      1   0.006833   0.009592     2.60142e-01     2.09200e-02
     12886      12891      1   0.006833  -0.013767     3.00055e-01     6.91943e-02
     12886      12889      1   0.006833   0.009592     2.60142e-01     2.09200e-02
     12886      12890      1   0.006833   0.009592     2.60142e-01     2.09200e-02
     12885      12892      1  -0.004386   0.008811     3.00055e-01     6.91943e-02
     12885      12893      1  -0.004386   0.008811     3.00055e-01     6.91943e-02
     12884      12888      1   0.011241  -0.023177     3.00055e-01     6.91943e-02
     12884      12886      1   0.011241   0.005694     2.60142e-01     2.09200e-02
     12884      12887      1   0.011241   0.005694     2.60142e-01     2.09200e-02
     12883      12888      1   0.011241  -0.023177     3.00055e-01     6.91943e-02
     12883      12886      1   0.011241   0.005694     2.60142e-01     2.09200e-02
     12883      12887      1   0.011241   0.005694     2.60142e-01     2.09200e-02
     12882      12889      1  -0.026451   0.009592     3.00055e-01     6.91943e-02
     12882      12890      1  -0.026451   0.009592     3.00055e-01     6.91943e-02
     12881      12885      1   0.010172  -0.003655     3.00055e-01     6.91943e-02
     12881      12884      1   0.010172   0.009367     2.60142e-01     2.09200e-02
     12881      12883      1   0.010172   0.009367     2.60142e-01     2.09200e-02
     12880      12885      1   0.010172  -0.003655     3.00055e-01     6.91943e-02
     12880      12884      1   0.010172   0.009367     2.60142e-01     2.09200e-02
     12880      12883      1   0.010172   0.009367     2.60142e-01     2.09200e-02
     12879      12886      1  -0.014653   0.005694     3.00055e-01     6.91943e-02
     12879      12887      1  -0.014653   0.005694     3.00055e-01     6.91943e-02
     12878      12882      1   0.010037  -0.022042     3.00055e-01     6.91943e-02
     12878      12880      1   0.010037   0.008477     2.60142e-01     2.09200e-02
     12878      12881      1   0.010037   0.008477     2.60142e-01     2.09200e-02
     12877      12882      1   0.010037  -0.022042     3.00055e-01     6.91943e-02
     12877      12880      1   0.010037   0.008477     2.60142e-01     2.09200e-02
     12877      12881      1   0.010037   0.008477     2.60142e-01     2.09200e-02
     12876      12884      1  -0.021025   0.009367     3.00055e-01     6.91943e-02
     12876      12883      1  -0.021025   0.009367     3.00055e-01     6.91943e-02
     12875      12879      1   0.012677  -0.012211     3.00055e-01     6.91943e-02
     12875      12878      1   0.012677   0.008364     2.60142e-01     2.09200e-02
     12875      12877      1   0.012677   0.008364     2.60142e-01     2.09200e-02
     12874      12879      1   0.012677  -0.012211     3.00055e-01     6.91943e-02
     12874      12878      1   0.012677   0.008364     2.60142e-01     2.09200e-02
     12874      12877      1   0.012677   0.008364     2.60142e-01     2.09200e-02
     12873      12880      1  -0.031787   0.008477     3.00055e-01     6.91943e-02
     12873      12881      1  -0.031787   0.008477     3.00055e-01     6.91943e-02
     12872      12876      1   0.017208  -0.017521     3.00055e-01     6.91943e-02
     12872      12874      1   0.017208   0.010564     2.60142e-01     2.09200e-02
     12872      12875      1   0.017208   0.010564     2.60142e-01     2.09200e-02
     12871      12876      1   0.017208  -0.017521     3.00055e-01     6.91943e-02
     12871      12874      1   0.017208   0.010564     2.60142e-01     2.09200e-02
     12871      12875      1   0.017208   0.010564     2.60142e-01     2.09200e-02
     12870      12878      1  -0.028094   0.008364     3.00055e-01     6.91943e-02
     12870      12877      1  -0.028094   0.008364     3.00055e-01     6.91943e-02
     12869      12873      1   0.007531  -0.026489     3.00055e-01     6.91943e-02
     12869      12872      1   0.007531   0.014340     2.60142e-01     2.09200e-02
     12869      12871      1   0.007531   0.014340     2.60142e-01     2.09200e-02
     12868      12873      1   0.007531  -0.026489     3.00055e-01     6.91943e-02
     12868      12872      1   0.007531   0.014340     2.60142e-01     2.09200e-02
     12868      12871      1   0.007531   0.014340     2.60142e-01     2.09200e-02
     12867      12874      1   0.017463   0.010564     3.00055e-01     6.91943e-02
     12867      12875      1   0.017463   0.010564     3.00055e-01     6.91943e-02
     12866      12870      1   0.025511  -0.023412     3.00055e-01     6.91943e-02
     12866      12868      1   0.025511   0.006276     2.60142e-01     2.09200e-02
     12866      12869      1   0.025511   0.006276     2.60142e-01     2.09200e-02
     12865      12870      1   0.025511  -0.023412     3.00055e-01     6.91943e-02
     12865      12868      1   0.025511   0.006276     2.60142e-01     2.09200e-02
     12865      12869      1   0.025511   0.006276     2.60142e-01     2.09200e-02
     12864      12872      1  -0.111712   0.014340     3.00055e-01     6.91943e-02
     12864      12871      1  -0.111712   0.014340     3.00055e-01     6.91943e-02
     12863      12870      1   0.025511  -0.023412     3.00055e-01     6.91943e-02
     12863      12868      1   0.025511   0.006276     2.60142e-01     2.09200e-02
     12863      12869      1   0.025511   0.006276     2.60142e-01     2.09200e-02
     12940      12980      1  -0.673755   0.044953     2.78067e-01     9.58675e-02
     12940      12979      1  -0.673755   0.044953     2.78067e-01     9.58675e-02
     12939      12977      1   0.897613   0.015716     3.00055e-01     6.13495e-02
     12939      12976      1   0.897613   0.015716     3.00055e-01     6.13495e-02
     12938      12980      1  -0.552948   0.044953     2.80072e-01     8.62554e-02
     12938      12979      1  -0.552948   0.044953     2.80072e-01     8.62554e-02
     12931      12932      1   0.172230  -0.282478     2.67982e-01     8.67002e-02
     12930      12932      1   0.172230  -0.282478     2.67982e-01     8.67002e-02
     12929      12932      1   0.172230  -0.282478     2.67982e-01     8.67002e-02
     12928      12933      1  -0.338973   0.143525     2.67982e-01     8.67002e-02
     12928      12934      1  -0.338973   0.143525     2.67982e-01     8.67002e-02
     12928      12935      1  -0.338973   0.143525     2.67982e-01     8.67002e-02
     12927      12928      1   0.172230  -0.282478     2.67982e-01     8.67002e-02
     12927      12932      1   0.172230  -0.282478     2.67982e-01     8.67002e-02
     12926      12928      1   0.172230  -0.282478     2.67982e-01     8.67002e-02
     12926      12932      1   0.172230  -0.282478     2.67982e-01     8.67002e-02
     12925      12928      1   0.172230  -0.282478     2.67982e-01     8.67002e-02
     12925      12932      1   0.172230  -0.282478     2.67982e-01     8.67002e-02
     12924      12929      1  -0.338973   0.143525     2.67982e-01     8.67002e-02
     12924      12930      1  -0.338973   0.143525     2.67982e-01     8.67002e-02
     12924      12931      1  -0.338973   0.143525     2.67982e-01     8.67002e-02
     12924      12933      1  -0.338973   0.143525     2.67982e-01     8.67002e-02
     12924      12934      1  -0.338973   0.143525     2.67982e-01     8.67002e-02
     12924      12935      1  -0.338973   0.143525     2.67982e-01     8.67002e-02
     12922      12924      1   0.136415  -0.282478     2.67982e-01     8.67002e-02
     12922      12928      1   0.136415  -0.282478     2.67982e-01     8.67002e-02
     12922      12932      1   0.136415  -0.282478     2.67982e-01     8.67002e-02
     12921      12924      1   0.136415  -0.282478     2.67982e-01     8.67002e-02
     12921      12928      1   0.136415  -0.282478     2.67982e-01     8.67002e-02
     12921      12932      1   0.136415  -0.282478     2.67982e-01     8.67002e-02
     12920      12925      1  -0.170824   0.143525     2.67982e-01     8.67002e-02
     12920      12926      1  -0.170824   0.143525     2.67982e-01     8.67002e-02
     12920      12927      1  -0.170824   0.143525     2.67982e-01     8.67002e-02
     12920      12929      1  -0.170824   0.143525     2.67982e-01     8.67002e-02
     12920      12930      1  -0.170824   0.143525     2.67982e-01     8.67002e-02
     12920      12931      1  -0.170824   0.143525     2.67982e-01     8.67002e-02
     12920      12933      1  -0.170824   0.143525     2.67982e-01     8.67002e-02
     12920      12934      1  -0.170824   0.143525     2.67982e-01     8.67002e-02
     12920      12935      1  -0.170824   0.143525     2.67982e-01     8.67002e-02
     12919      12921      1   0.078534   0.113679     2.21567e-01     3.28444e-02
     12919      12922      1   0.078534   0.113679     2.21567e-01     3.28444e-02
     12919      12923      1   0.078534   0.204385     2.86068e-01     1.08078e-01
     12918      12921      1   0.078534   0.113679     2.21567e-01     3.28444e-02
     12918      12922      1   0.078534   0.113679     2.21567e-01     3.28444e-02
     12918      12923      1   0.078534   0.204385     2.86068e-01     1.08078e-01
     12916      12921      1  -0.508176   0.113679     2.47999e-01     1.08078e-01
     12916      12922      1  -0.508176   0.113679     2.47999e-01     1.08078e-01
     12915      12918      1   1.339721   0.065445     3.10656e-01     1.17227e-01
     12915      12919      1   1.339721   0.065445     3.10656e-01     1.17227e-01
     12913      12938      1   0.095591  -0.460790     2.73568e-01     1.08078e-01
     12913      12915      1   0.095591   1.116434     3.10656e-01     1.17227e-01
     12912      12938      1   0.095591  -0.460790     2.73568e-01     1.08078e-01
     12912      12915      1   0.095591   1.116434     3.10656e-01     1.17227e-01
     12910      12912      1   0.063253   0.079659     2.47135e-01     3.28444e-02
     12910      12913      1   0.063253   0.079659     2.47135e-01     3.28444e-02
     12910      12914      1   0.063253  -0.424567     2.73568e-01     1.08078e-01
     12910      12939      1   0.063253   0.748011     2.93551e-01     7.68707e-02
     12908      12910      1   0.070469   0.052711     2.47135e-01     3.28444e-02
     12908      12911      1   0.070469   0.014549     2.93551e-01     8.67002e-02
     12908      12938      1   0.070469  -0.460790     2.73568e-01     1.08078e-01
     12907      12910      1   0.070469   0.052711     2.47135e-01     3.28444e-02
     12907      12911      1   0.070469   0.014549     2.93551e-01     8.67002e-02
     12907      12938      1   0.070469  -0.460790     2.73568e-01     1.08078e-01
     12906      12912      1   0.196939   0.079659     2.93551e-01     8.67002e-02
     12906      12913      1   0.196939   0.079659     2.93551e-01     8.67002e-02
     12905      12910      1  -0.575489   0.052711     2.73568e-01     1.08078e-01
     12903      12907      1   0.910403   0.058724     2.93551e-01     7.68707e-02
     12903      12908      1   0.910403   0.058724     2.93551e-01     7.68707e-02
     12977      12980      1   0.018859   0.044953     2.60142e-01     2.09200e-02
     12977      12979      1   0.018859   0.044953     2.60142e-01     2.09200e-02
     12976      12980      1   0.018859   0.044953     2.60142e-01     2.09200e-02
     12976      12979      1   0.018859   0.044953     2.60142e-01     2.09200e-02
     12974      12978      1   0.020431  -0.136833     3.00055e-01     6.91943e-02
     12974      12977      1   0.020431   0.015716     2.60142e-01     2.09200e-02
     12974      12976      1   0.020431   0.015716     2.60142e-01     2.09200e-02
     12973      12978      1   0.020431  -0.136833     3.00055e-01     6.91943e-02
     12973      12977      1   0.020431   0.015716     2.60142e-01     2.09200e-02
     12973      12976      1   0.020431   0.015716     2.60142e-01     2.09200e-02
     12972      12980      1  -0.026954   0.044953     3.00055e-01     6.91943e-02
     12972      12979      1  -0.026954   0.044953     3.00055e-01     6.91943e-02
     12971      12975      1   0.010573  -0.002029     3.00055e-01     6.91943e-02
     12971      12974      1   0.010573   0.017026     2.60142e-01     2.09200e-02
     12971      12973      1   0.010573   0.017026     2.60142e-01     2.09200e-02
     12970      12975      1   0.010573  -0.002029     3.00055e-01     6.91943e-02
     12970      12974      1   0.010573   0.017026     2.60142e-01     2.09200e-02
     12970      12973      1   0.010573   0.017026     2.60142e-01     2.09200e-02
     12969      12977      1  -0.016521   0.015716     3.00055e-01     6.91943e-02
     12969      12976      1  -0.016521   0.015716     3.00055e-01     6.91943e-02
     12968      12972      1   0.011511  -0.022462     3.00055e-01     6.91943e-02
     12968      12970      1   0.011511   0.008811     2.60142e-01     2.09200e-02
     12968      12971      1   0.011511   0.008811     2.60142e-01     2.09200e-02
     12967      12972      1   0.011511  -0.022462     3.00055e-01     6.91943e-02
     12967      12970      1   0.011511   0.008811     2.60142e-01     2.09200e-02
     12967      12971      1   0.011511   0.008811     2.60142e-01     2.09200e-02
     12966      12974      1  -0.027812   0.017026     3.00055e-01     6.91943e-02
     12966      12973      1  -0.027812   0.017026     3.00055e-01     6.91943e-02
     12965      12969      1   0.006833  -0.013767     3.00055e-01     6.91943e-02
     12965      12967      1   0.006833   0.009592     2.60142e-01     2.09200e-02
     12965      12968      1   0.006833   0.009592     2.60142e-01     2.09200e-02
     12964      12969      1   0.006833  -0.013767     3.00055e-01     6.91943e-02
     12964      12967      1   0.006833   0.009592     2.60142e-01     2.09200e-02
     12964      12968      1   0.006833   0.009592     2.60142e-01     2.09200e-02
     12963      12970      1  -0.004386   0.008811     3.00055e-01     6.91943e-02
     12963      12971      1  -0.004386   0.008811     3.00055e-01     6.91943e-02
     12962      12966      1   0.011241  -0.023177     3.00055e-01     6.91943e-02
     12962      12964      1   0.011241   0.005694     2.60142e-01     2.09200e-02
     12962      12965      1   0.011241   0.005694     2.60142e-01     2.09200e-02
     12961      12966      1   0.011241  -0.023177     3.00055e-01     6.91943e-02
     12961      12964      1   0.011241   0.005694     2.60142e-01     2.09200e-02
     12961      12965      1   0.011241   0.005694     2.60142e-01     2.09200e-02
     12960      12967      1  -0.026451   0.009592     3.00055e-01     6.91943e-02
     12960      12968      1  -0.026451   0.009592     3.00055e-01     6.91943e-02
     12959      12963      1   0.010172  -0.003655     3.00055e-01     6.91943e-02
     12959      12962      1   0.010172   0.009367     2.60142e-01     2.09200e-02
     12959      12961      1   0.010172   0.009367     2.60142e-01     2.09200e-02
     12958      12963      1   0.010172  -0.003655     3.00055e-01     6.91943e-02
     12958      12962      1   0.010172   0.009367     2.60142e-01     2.09200e-02
     12958      12961      1   0.010172   0.009367     2.60142e-01     2.09200e-02
     12957      12964      1  -0.014653   0.005694     3.00055e-01     6.91943e-02
     12957      12965      1  -0.014653   0.005694     3.00055e-01     6.91943e-02
     12956      12960      1   0.010037  -0.022042     3.00055e-01     6.91943e-02
     12956      12958      1   0.010037   0.008477     2.60142e-01     2.09200e-02
     12956      12959      1   0.010037   0.008477     2.60142e-01     2.09200e-02
     12955      12960      1   0.010037  -0.022042     3.00055e-01     6.91943e-02
     12955      12958      1   0.010037   0.008477     2.60142e-01     2.09200e-02
     12955      12959      1   0.010037   0.008477     2.60142e-01     2.09200e-02
     12954      12962      1  -0.021025   0.009367     3.00055e-01     6.91943e-02
     12954      12961      1  -0.021025   0.009367     3.00055e-01     6.91943e-02
     12953      12957      1   0.012677  -0.012211     3.00055e-01     6.91943e-02
     12953      12956      1   0.012677   0.008364     2.60142e-01     2.09200e-02
     12953      12955      1   0.012677   0.008364     2.60142e-01     2.09200e-02
     12952      12957      1   0.012677  -0.012211     3.00055e-01     6.91943e-02
     12952      12956      1   0.012677   0.008364     2.60142e-01     2.09200e-02
     12952      12955      1   0.012677   0.008364     2.60142e-01     2.09200e-02
     12951      12958      1  -0.031787   0.008477     3.00055e-01     6.91943e-02
     12951      12959      1  -0.031787   0.008477     3.00055e-01     6.91943e-02
     12950      12954      1   0.017208  -0.017521     3.00055e-01     6.91943e-02
     12950      12952      1   0.017208   0.010564     2.60142e-01     2.09200e-02
     12950      12953      1   0.017208   0.010564     2.60142e-01     2.09200e-02
     12949      12954      1   0.017208  -0.017521     3.00055e-01     6.91943e-02
     12949      12952      1   0.017208   0.010564     2.60142e-01     2.09200e-02
     12949      12953      1   0.017208   0.010564     2.60142e-01     2.09200e-02
     12948      12956      1  -0.028094   0.008364     3.00055e-01     6.91943e-02
     12948      12955      1  -0.028094   0.008364     3.00055e-01     6.91943e-02
     12947      12951      1   0.007531  -0.026489     3.00055e-01     6.91943e-02
     12947      12950      1   0.007531   0.014340     2.60142e-01     2.09200e-02
     12947      12949      1   0.007531   0.014340     2.60142e-01     2.09200e-02
     12946      12951      1   0.007531  -0.026489     3.00055e-01     6.91943e-02
     12946      12950      1   0.007531   0.014340     2.60142e-01     2.09200e-02
     12946      12949      1   0.007531   0.014340     2.60142e-01     2.09200e-02
     12945      12952      1   0.017463   0.010564     3.00055e-01     6.91943e-02
     12945      12953      1   0.017463   0.010564     3.00055e-01     6.91943e-02
     12944      12948      1   0.025511  -0.023412     3.00055e-01     6.91943e-02
     12944      12946      1   0.025511   0.006276     2.60142e-01     2.09200e-02
     12944      12947      1   0.025511   0.006276     2.60142e-01     2.09200e-02
     12943      12948      1   0.025511  -0.023412     3.00055e-01     6.91943e-02
     12943      12946      1   0.025511   0.006276     2.60142e-01     2.09200e-02
     12943      12947      1   0.025511   0.006276     2.60142e-01     2.09200e-02
     12942      12950      1  -0.111712   0.014340     3.00055e-01     6.91943e-02
     12942      12949      1  -0.111712   0.014340     3.00055e-01     6.91943e-02
     12941      12948      1   0.025511  -0.023412     3.00055e-01     6.91943e-02
     12941      12946      1   0.025511   0.006276     2.60142e-01     2.09200e-02
     12941      12947      1   0.025511   0.006276     2.60142e-01     2.09200e-02
     13020      13022      1   0.053944  -0.559638     2.78067e-01     9.58675e-02
     13020      13023      1   0.053944  -0.479574     2.80072e-01     8.62554e-02
     13019      13022      1   0.053944  -0.559638     2.78067e-01     9.58675e-02
     13019      13023      1   0.053944  -0.479574     2.80072e-01     8.62554e-02
     13017      13020      1   0.018859   0.044953     2.60142e-01     2.09200e-02
     13017      13019      1   0.018859   0.044953     2.60142e-01     2.09200e-02
     13017      13021      1   0.018859   0.758669     3.00055e-01     6.13495e-02
     13016      13020      1   0.018859   0.044953     2.60142e-01     2.09200e-02
     13016      13019      1   0.018859   0.044953     2.60142e-01     2.09200e-02
     13016      13021      1   0.018859   0.758669     3.00055e-01     6.13495e-02
     13014      13018      1   0.020431  -0.136833     3.00055e-01     6.91943e-02
     13014      13017      1   0.020431   0.015716     2.60142e-01     2.09200e-02
     13014      13016      1   0.020431   0.015716     2.60142e-01     2.09200e-02
     13013      13018      1   0.020431  -0.136833     3.00055e-01     6.91943e-02
     13013      13017      1   0.020431   0.015716     2.60142e-01     2.09200e-02
     13013      13016      1   0.020431   0.015716     2.60142e-01     2.09200e-02
     13012      13020      1  -0.026954   0.044953     3.00055e-01     6.91943e-02
     13012      13019      1  -0.026954   0.044953     3.00055e-01     6.91943e-02
     13011      13015      1   0.010573  -0.002029     3.00055e-01     6.91943e-02
     13011      13014      1   0.010573   0.017026     2.60142e-01     2.09200e-02
     13011      13013      1   0.010573   0.017026     2.60142e-01     2.09200e-02
     13010      13015      1   0.010573  -0.002029     3.00055e-01     6.91943e-02
     13010      13014      1   0.010573   0.017026     2.60142e-01     2.09200e-02
     13010      13013      1   0.010573   0.017026     2.60142e-01     2.09200e-02
     13009      13017      1  -0.016521   0.015716     3.00055e-01     6.91943e-02
     13009      13016      1  -0.016521   0.015716     3.00055e-01     6.91943e-02
     13008      13012      1   0.011511  -0.022462     3.00055e-01     6.91943e-02
     13008      13010      1   0.011511   0.008811     2.60142e-01     2.09200e-02
     13008      13011      1   0.011511   0.008811     2.60142e-01     2.09200e-02
     13007      13012      1   0.011511  -0.022462     3.00055e-01     6.91943e-02
     13007      13010      1   0.011511   0.008811     2.60142e-01     2.09200e-02
     13007      13011      1   0.011511   0.008811     2.60142e-01     2.09200e-02
     13006      13014      1  -0.027812   0.017026     3.00055e-01     6.91943e-02
     13006      13013      1  -0.027812   0.017026     3.00055e-01     6.91943e-02
     13005      13009      1   0.006833  -0.013767     3.00055e-01     6.91943e-02
     13005      13007      1   0.006833   0.009592     2.60142e-01     2.09200e-02
     13005      13008      1   0.006833   0.009592     2.60142e-01     2.09200e-02
     13004      13009      1   0.006833  -0.013767     3.00055e-01     6.91943e-02
     13004      13007      1   0.006833   0.009592     2.60142e-01     2.09200e-02
     13004      13008      1   0.006833   0.009592     2.60142e-01     2.09200e-02
     13003      13010      1  -0.004386   0.008811     3.00055e-01     6.91943e-02
     13003      13011      1  -0.004386   0.008811     3.00055e-01     6.91943e-02
     13002      13006      1   0.011241  -0.023177     3.00055e-01     6.91943e-02
     13002      13004      1   0.011241   0.005694     2.60142e-01     2.09200e-02
     13002      13005      1   0.011241   0.005694     2.60142e-01     2.09200e-02
     13001      13006      1   0.011241  -0.023177     3.00055e-01     6.91943e-02
     13001      13004      1   0.011241   0.005694     2.60142e-01     2.09200e-02
     13001      13005      1   0.011241   0.005694     2.60142e-01     2.09200e-02
     13000      13007      1  -0.026451   0.009592     3.00055e-01     6.91943e-02
     13000      13008      1  -0.026451   0.009592     3.00055e-01     6.91943e-02
     12999      13003      1   0.010172  -0.003655     3.00055e-01     6.91943e-02
     12999      13002      1   0.010172   0.009367     2.60142e-01     2.09200e-02
     12999      13001      1   0.010172   0.009367     2.60142e-01     2.09200e-02
     12998      13003      1   0.010172  -0.003655     3.00055e-01     6.91943e-02
     12998      13002      1   0.010172   0.009367     2.60142e-01     2.09200e-02
     12998      13001      1   0.010172   0.009367     2.60142e-01     2.09200e-02
     12997      13004      1  -0.014653   0.005694     3.00055e-01     6.91943e-02
     12997      13005      1  -0.014653   0.005694     3.00055e-01     6.91943e-02
     12996      13000      1   0.010037  -0.022042     3.00055e-01     6.91943e-02
     12996      12998      1   0.010037   0.008477     2.60142e-01     2.09200e-02
     12996      12999      1   0.010037   0.008477     2.60142e-01     2.09200e-02
     12995      13000      1   0.010037  -0.022042     3.00055e-01     6.91943e-02
     12995      12998      1   0.010037   0.008477     2.60142e-01     2.09200e-02
     12995      12999      1   0.010037   0.008477     2.60142e-01     2.09200e-02
     12994      13002      1  -0.021025   0.009367     3.00055e-01     6.91943e-02
     12994      13001      1  -0.021025   0.009367     3.00055e-01     6.91943e-02
     12993      12997      1   0.012677  -0.012211     3.00055e-01     6.91943e-02
     12993      12996      1   0.012677   0.008364     2.60142e-01     2.09200e-02
     12993      12995      1   0.012677   0.008364     2.60142e-01     2.09200e-02
     12992      12997      1   0.012677  -0.012211     3.00055e-01     6.91943e-02
     12992      12996      1   0.012677   0.008364     2.60142e-01     2.09200e-02
     12992      12995      1   0.012677   0.008364     2.60142e-01     2.09200e-02
     12991      12998      1  -0.031787   0.008477     3.00055e-01     6.91943e-02
     12991      12999      1  -0.031787   0.008477     3.00055e-01     6.91943e-02
     12990      12994      1   0.017208  -0.017521     3.00055e-01     6.91943e-02
     12990      12992      1   0.017208   0.010564     2.60142e-01     2.09200e-02
     12990      12993      1   0.017208   0.010564     2.60142e-01     2.09200e-02
     12989      12994      1   0.017208  -0.017521     3.00055e-01     6.91943e-02
     12989      12992      1   0.017208   0.010564     2.60142e-01     2.09200e-02
     12989      12993      1   0.017208   0.010564     2.60142e-01     2.09200e-02
     12988      12996      1  -0.028094   0.008364     3.00055e-01     6.91943e-02
     12988      12995      1  -0.028094   0.008364     3.00055e-01     6.91943e-02
     12987      12991      1   0.007531  -0.026489     3.00055e-01     6.91943e-02
     12987      12990      1   0.007531   0.014340     2.60142e-01     2.09200e-02
     12987      12989      1   0.007531   0.014340     2.60142e-01     2.09200e-02
     12986      12991      1   0.007531  -0.026489     3.00055e-01     6.91943e-02
     12986      12990      1   0.007531   0.014340     2.60142e-01     2.09200e-02
     12986      12989      1   0.007531   0.014340     2.60142e-01     2.09200e-02
     12985      12992      1   0.017463   0.010564     3.00055e-01     6.91943e-02
     12985      12993      1   0.017463   0.010564     3.00055e-01     6.91943e-02
     12984      12988      1   0.025511  -0.023412     3.00055e-01     6.91943e-02
     12984      12986      1   0.025511   0.006276     2.60142e-01     2.09200e-02
     12984      12987      1   0.025511   0.006276     2.60142e-01     2.09200e-02
     12983      12988      1   0.025511  -0.023412     3.00055e-01     6.91943e-02
     12983      12986      1   0.025511   0.006276     2.60142e-01     2.09200e-02
     12983      12987      1   0.025511   0.006276     2.60142e-01     2.09200e-02
     12982      12990      1  -0.111712   0.014340     3.00055e-01     6.91943e-02
     12982      12989      1  -0.111712   0.014340     3.00055e-01     6.91943e-02
     12981      12988      1   0.025511  -0.023412     3.00055e-01     6.91943e-02
     12981      12986      1   0.025511   0.006276     2.60142e-01     2.09200e-02
     12981      12987      1   0.025511   0.006276     2.60142e-01     2.09200e-02
     13058      13098      1  -0.673755   0.044953     2.78067e-01     9.58675e-02
     13058      13097      1  -0.673755   0.044953     2.78067e-01     9.58675e-02
     13057      13095      1   0.897613   0.015716     3.00055e-01     6.13495e-02
     13057      13094      1   0.897613   0.015716     3.00055e-01     6.13495e-02
     13056      13098      1  -0.552948   0.044953     2.80072e-01     8.62554e-02
     13056      13097      1  -0.552948   0.044953     2.80072e-01     8.62554e-02
     13049      13050      1   0.172230  -0.282478     2.67982e-01     8.67002e-02
     13048      13050      1   0.172230  -0.282478     2.67982e-01     8.67002e-02
     13047      13050      1   0.172230  -0.282478     2.67982e-01     8.67002e-02
     13046      13051      1  -0.338973   0.143525     2.67982e-01     8.67002e-02
     13046      13052      1  -0.338973   0.143525     2.67982e-01     8.67002e-02
     13046      13053      1  -0.338973   0.143525     2.67982e-01     8.67002e-02
     13045      13046      1   0.172230  -0.282478     2.67982e-01     8.67002e-02
     13045      13050      1   0.172230  -0.282478     2.67982e-01     8.67002e-02
     13044      13046      1   0.172230  -0.282478     2.67982e-01     8.67002e-02
     13044      13050      1   0.172230  -0.282478     2.67982e-01     8.67002e-02
     13043      13046      1   0.172230  -0.282478     2.67982e-01     8.67002e-02
     13043      13050      1   0.172230  -0.282478     2.67982e-01     8.67002e-02
     13042      13047      1  -0.338973   0.143525     2.67982e-01     8.67002e-02
     13042      13048      1  -0.338973   0.143525     2.67982e-01     8.67002e-02
     13042      13049      1  -0.338973   0.143525     2.67982e-01     8.67002e-02
     13042      13051      1  -0.338973   0.143525     2.67982e-01     8.67002e-02
     13042      13052      1  -0.338973   0.143525     2.67982e-01     8.67002e-02
     13042      13053      1  -0.338973   0.143525     2.67982e-01     8.67002e-02
     13040      13042      1   0.136415  -0.282478     2.67982e-01     8.67002e-02
     13040      13046      1   0.136415  -0.282478     2.67982e-01     8.67002e-02
     13040      13050      1   0.136415  -0.282478     2.67982e-01     8.67002e-02
     13039      13042      1   0.136415  -0.282478     2.67982e-01     8.67002e-02
     13039      13046      1   0.136415  -0.282478     2.67982e-01     8.67002e-02
     13039      13050      1   0.136415  -0.282478     2.67982e-01     8.67002e-02
     13038      13043      1  -0.170824   0.143525     2.67982e-01     8.67002e-02
     13038      13044      1  -0.170824   0.143525     2.67982e-01     8.67002e-02
     13038      13045      1  -0.170824   0.143525     2.67982e-01     8.67002e-02
     13038      13047      1  -0.170824   0.143525     2.67982e-01     8.67002e-02
     13038      13048      1  -0.170824   0.143525     2.67982e-01     8.67002e-02
     13038      13049      1  -0.170824   0.143525     2.67982e-01     8.67002e-02
     13038      13051      1  -0.170824   0.143525     2.67982e-01     8.67002e-02
     13038      13052      1  -0.170824   0.143525     2.67982e-01     8.67002e-02
     13038      13053      1  -0.170824   0.143525     2.67982e-01     8.67002e-02
     13037      13039      1   0.078534   0.113679     2.21567e-01     3.28444e-02
     13037      13040      1   0.078534   0.113679     2.21567e-01     3.28444e-02
     13037      13041      1   0.078534   0.204385     2.86068e-01     1.08078e-01
     13036      13039      1   0.078534   0.113679     2.21567e-01     3.28444e-02
     13036      13040      1   0.078534   0.113679     2.21567e-01     3.28444e-02
     13036      13041      1   0.078534   0.204385     2.86068e-01     1.08078e-01
     13034      13039      1  -0.508176   0.113679     2.47999e-01     1.08078e-01
     13034      13040      1  -0.508176   0.113679     2.47999e-01     1.08078e-01
     13033      13036      1   1.339721   0.065445     3.10656e-01     1.17227e-01
     13033      13037      1   1.339721   0.065445     3.10656e-01     1.17227e-01
     13031      13056      1   0.095591  -0.460790     2.73568e-01     1.08078e-01
     13031      13033      1   0.095591   1.116434     3.10656e-01     1.17227e-01
     13030      13056      1   0.095591  -0.460790     2.73568e-01     1.08078e-01
     13030      13033      1   0.095591   1.116434     3.10656e-01     1.17227e-01
     13028      13030      1   0.063253   0.079659     2.47135e-01     3.28444e-02
     13028      13031      1   0.063253   0.079659     2.47135e-01     3.28444e-02
     13028      13032      1   0.063253  -0.424567     2.73568e-01     1.08078e-01
     13028      13057      1   0.063253   0.748011     2.93551e-01     7.68707e-02
     13026      13028      1   0.070469   0.052711     2.47135e-01     3.28444e-02
     13026      13029      1   0.070469   0.014549     2.93551e-01     8.67002e-02
     13026      13056      1   0.070469  -0.460790     2.73568e-01     1.08078e-01
     13025      13028      1   0.070469   0.052711     2.47135e-01     3.28444e-02
     13025      13029      1   0.070469   0.014549     2.93551e-01     8.67002e-02
     13025      13056      1   0.070469  -0.460790     2.73568e-01     1.08078e-01
     13024      13030      1   0.196939   0.079659     2.93551e-01     8.67002e-02
     13024      13031      1   0.196939   0.079659     2.93551e-01     8.67002e-02
     13023      13028      1  -0.575489   0.052711     2.73568e-01     1.08078e-01
     13021      13025      1   0.910403   0.058724     2.93551e-01     7.68707e-02
     13021      13026      1   0.910403   0.058724     2.93551e-01     7.68707e-02
     13095      13098      1   0.018859   0.044953     2.60142e-01     2.09200e-02
     13095      13097      1   0.018859   0.044953     2.60142e-01     2.09200e-02
     13094      13098      1   0.018859   0.044953     2.60142e-01     2.09200e-02
     13094      13097      1   0.018859   0.044953     2.60142e-01     2.09200e-02
     13092      13096      1   0.020431  -0.136833     3.00055e-01     6.91943e-02
     13092      13095      1   0.020431   0.015716     2.60142e-01     2.09200e-02
     13092      13094      1   0.020431   0.015716     2.60142e-01     2.09200e-02
     13091      13096      1   0.020431  -0.136833     3.00055e-01     6.91943e-02
     13091      13095      1   0.020431   0.015716     2.60142e-01     2.09200e-02
     13091      13094      1   0.020431   0.015716     2.60142e-01     2.09200e-02
     13090      13098      1  -0.026954   0.044953     3.00055e-01     6.91943e-02
     13090      13097      1  -0.026954   0.044953     3.00055e-01     6.91943e-02
     13089      13093      1   0.010573  -0.002029     3.00055e-01     6.91943e-02
     13089      13092      1   0.010573   0.017026     2.60142e-01     2.09200e-02
     13089      13091      1   0.010573   0.017026     2.60142e-01     2.09200e-02
     13088      13093      1   0.010573  -0.002029     3.00055e-01     6.91943e-02
     13088      13092      1   0.010573   0.017026     2.60142e-01     2.09200e-02
     13088      13091      1   0.010573   0.017026     2.60142e-01     2.09200e-02
     13087      13095      1  -0.016521   0.015716     3.00055e-01     6.91943e-02
     13087      13094      1  -0.016521   0.015716     3.00055e-01     6.91943e-02
     13086      13090      1   0.011511  -0.022462     3.00055e-01     6.91943e-02
     13086      13088      1   0.011511   0.008811     2.60142e-01     2.09200e-02
     13086      13089      1   0.011511   0.008811     2.60142e-01     2.09200e-02
     13085      13090      1   0.011511  -0.022462     3.00055e-01     6.91943e-02
     13085      13088      1   0.011511   0.008811     2.60142e-01     2.09200e-02
     13085      13089      1   0.011511   0.008811     2.60142e-01     2.09200e-02
     13084      13092      1  -0.027812   0.017026     3.00055e-01     6.91943e-02
     13084      13091      1  -0.027812   0.017026     3.00055e-01     6.91943e-02
     13083      13087      1   0.006833  -0.013767     3.00055e-01     6.91943e-02
     13083      13085      1   0.006833   0.009592     2.60142e-01     2.09200e-02
     13083      13086      1   0.006833   0.009592     2.60142e-01     2.09200e-02
     13082      13087      1   0.006833  -0.013767     3.00055e-01     6.91943e-02
     13082      13085      1   0.006833   0.009592     2.60142e-01     2.09200e-02
     13082      13086      1   0.006833   0.009592     2.60142e-01     2.09200e-02
     13081      13088      1  -0.004386   0.008811     3.00055e-01     6.91943e-02
     13081      13089      1  -0.004386   0.008811     3.00055e-01     6.91943e-02
     13080      13084      1   0.011241  -0.023177     3.00055e-01     6.91943e-02
     13080      13082      1   0.011241   0.005694     2.60142e-01     2.09200e-02
     13080      13083      1   0.011241   0.005694     2.60142e-01     2.09200e-02
     13079      13084      1   0.011241  -0.023177     3.00055e-01     6.91943e-02
     13079      13082      1   0.011241   0.005694     2.60142e-01     2.09200e-02
     13079      13083      1   0.011241   0.005694     2.60142e-01     2.09200e-02
     13078      13085      1  -0.026451   0.009592     3.00055e-01     6.91943e-02
     13078      13086      1  -0.026451   0.009592     3.00055e-01     6.91943e-02
     13077      13081      1   0.010172  -0.003655     3.00055e-01     6.91943e-02
     13077      13080      1   0.010172   0.009367     2.60142e-01     2.09200e-02
     13077      13079      1   0.010172   0.009367     2.60142e-01     2.09200e-02
     13076      13081      1   0.010172  -0.003655     3.00055e-01     6.91943e-02
     13076      13080      1   0.010172   0.009367     2.60142e-01     2.09200e-02
     13076      13079      1   0.010172   0.009367     2.60142e-01     2.09200e-02
     13075      13082      1  -0.014653   0.005694     3.00055e-01     6.91943e-02
     13075      13083      1  -0.014653   0.005694     3.00055e-01     6.91943e-02
     13074      13078      1   0.010037  -0.022042     3.00055e-01     6.91943e-02
     13074      13076      1   0.010037   0.008477     2.60142e-01     2.09200e-02
     13074      13077      1   0.010037   0.008477     2.60142e-01     2.09200e-02
     13073      13078      1   0.010037  -0.022042     3.00055e-01     6.91943e-02
     13073      13076      1   0.010037   0.008477     2.60142e-01     2.09200e-02
     13073      13077      1   0.010037   0.008477     2.60142e-01     2.09200e-02
     13072      13080      1  -0.021025   0.009367     3.00055e-01     6.91943e-02
     13072      13079      1  -0.021025   0.009367     3.00055e-01     6.91943e-02
     13071      13075      1   0.012677  -0.012211     3.00055e-01     6.91943e-02
     13071      13074      1   0.012677   0.008364     2.60142e-01     2.09200e-02
     13071      13073      1   0.012677   0.008364     2.60142e-01     2.09200e-02
     13070      13075      1   0.012677  -0.012211     3.00055e-01     6.91943e-02
     13070      13074      1   0.012677   0.008364     2.60142e-01     2.09200e-02
     13070      13073      1   0.012677   0.008364     2.60142e-01     2.09200e-02
     13069      13076      1  -0.031787   0.008477     3.00055e-01     6.91943e-02
     13069      13077      1  -0.031787   0.008477     3.00055e-01     6.91943e-02
     13068      13072      1   0.017208  -0.017521     3.00055e-01     6.91943e-02
     13068      13070      1   0.017208   0.010564     2.60142e-01     2.09200e-02
     13068      13071      1   0.017208   0.010564     2.60142e-01     2.09200e-02
     13067      13072      1   0.017208  -0.017521     3.00055e-01     6.91943e-02
     13067      13070      1   0.017208   0.010564     2.60142e-01     2.09200e-02
     13067      13071      1   0.017208   0.010564     2.60142e-01     2.09200e-02
     13066      13074      1  -0.028094   0.008364     3.00055e-01     6.91943e-02
     13066      13073      1  -0.028094   0.008364     3.00055e-01     6.91943e-02
     13065      13069      1   0.007531  -0.026489     3.00055e-01     6.91943e-02
     13065      13068      1   0.007531   0.014340     2.60142e-01     2.09200e-02
     13065      13067      1   0.007531   0.014340     2.60142e-01     2.09200e-02
     13064      13069      1   0.007531  -0.026489     3.00055e-01     6.91943e-02
     13064      13068      1   0.007531   0.014340     2.60142e-01     2.09200e-02
     13064      13067      1   0.007531   0.014340     2.60142e-01     2.09200e-02
     13063      13070      1   0.017463   0.010564     3.00055e-01     6.91943e-02
     13063      13071      1   0.017463   0.010564     3.00055e-01     6.91943e-02
     13062      13066      1   0.025511  -0.023412     3.00055e-01     6.91943e-02
     13062      13064      1   0.025511   0.006276     2.60142e-01     2.09200e-02
     13062      13065      1   0.025511   0.006276     2.60142e-01     2.09200e-02
     13061      13066      1   0.025511  -0.023412     3.00055e-01     6.91943e-02
     13061      13064      1   0.025511   0.006276     2.60142e-01     2.09200e-02
     13061      13065      1   0.025511   0.006276     2.60142e-01     2.09200e-02
     13060      13068      1  -0.111712   0.014340     3.00055e-01     6.91943e-02
     13060      13067      1  -0.111712   0.014340     3.00055e-01     6.91943e-02
     13059      13066      1   0.025511  -0.023412     3.00055e-01     6.91943e-02
     13059      13064      1   0.025511   0.006276     2.60142e-01     2.09200e-02
     13059      13065      1   0.025511   0.006276     2.60142e-01     2.09200e-02
     13138      13140      1   0.053944  -0.559638     2.78067e-01     9.58675e-02
     13138      13141      1   0.053944  -0.479574     2.80072e-01     8.62554e-02
     13137      13140      1   0.053944  -0.559638     2.78067e-01     9.58675e-02
     13137      13141      1   0.053944  -0.479574     2.80072e-01     8.62554e-02
     13135      13138      1   0.018859   0.044953     2.60142e-01     2.09200e-02
     13135      13137      1   0.018859   0.044953     2.60142e-01     2.09200e-02
     13135      13139      1   0.018859   0.758669     3.00055e-01     6.13495e-02
     13134      13138      1   0.018859   0.044953     2.60142e-01     2.09200e-02
     13134      13137      1   0.018859   0.044953     2.60142e-01     2.09200e-02
     13134      13139      1   0.018859   0.758669     3.00055e-01     6.13495e-02
     13132      13136      1   0.020431  -0.136833     3.00055e-01     6.91943e-02
     13132      13135      1   0.020431   0.015716     2.60142e-01     2.09200e-02
     13132      13134      1   0.020431   0.015716     2.60142e-01     2.09200e-02
     13131      13136      1   0.020431  -0.136833     3.00055e-01     6.91943e-02
     13131      13135      1   0.020431   0.015716     2.60142e-01     2.09200e-02
     13131      13134      1   0.020431   0.015716     2.60142e-01     2.09200e-02
     13130      13138      1  -0.026954   0.044953     3.00055e-01     6.91943e-02
     13130      13137      1  -0.026954   0.044953     3.00055e-01     6.91943e-02
     13129      13133      1   0.010573  -0.002029     3.00055e-01     6.91943e-02
     13129      13132      1   0.010573   0.017026     2.60142e-01     2.09200e-02
     13129      13131      1   0.010573   0.017026     2.60142e-01     2.09200e-02
     13128      13133      1   0.010573  -0.002029     3.00055e-01     6.91943e-02
     13128      13132      1   0.010573   0.017026     2.60142e-01     2.09200e-02
     13128      13131      1   0.010573   0.017026     2.60142e-01     2.09200e-02
     13127      13135      1  -0.016521   0.015716     3.00055e-01     6.91943e-02
     13127      13134      1  -0.016521   0.015716     3.00055e-01     6.91943e-02
     13126      13130      1   0.011511  -0.022462     3.00055e-01     6.91943e-02
     13126      13128      1   0.011511   0.008811     2.60142e-01     2.09200e-02
     13126      13129      1   0.011511   0.008811     2.60142e-01     2.09200e-02
     13125      13130      1   0.011511  -0.022462     3.00055e-01     6.91943e-02
     13125      13128      1   0.011511   0.008811     2.60142e-01     2.09200e-02
     13125      13129      1   0.011511   0.008811     2.60142e-01     2.09200e-02
     13124      13132      1  -0.027812   0.017026     3.00055e-01     6.91943e-02
     13124      13131      1  -0.027812   0.017026     3.00055e-01     6.91943e-02
     13123      13127      1   0.006833  -0.013767     3.00055e-01     6.91943e-02
     13123      13125      1   0.006833   0.009592     2.60142e-01     2.09200e-02
     13123      13126      1   0.006833   0.009592     2.60142e-01     2.09200e-02
     13122      13127      1   0.006833  -0.013767     3.00055e-01     6.91943e-02
     13122      13125      1   0.006833   0.009592     2.60142e-01     2.09200e-02
     13122      13126      1   0.006833   0.009592     2.60142e-01     2.09200e-02
     13121      13128      1  -0.004386   0.008811     3.00055e-01     6.91943e-02
     13121      13129      1  -0.004386   0.008811     3.00055e-01     6.91943e-02
     13120      13124      1   0.011241  -0.023177     3.00055e-01     6.91943e-02
     13120      13122      1   0.011241   0.005694     2.60142e-01     2.09200e-02
     13120      13123      1   0.011241   0.005694     2.60142e-01     2.09200e-02
     13119      13124      1   0.011241  -0.023177     3.00055e-01     6.91943e-02
     13119      13122      1   0.011241   0.005694     2.60142e-01     2.09200e-02
     13119      13123      1   0.011241   0.005694     2.60142e-01     2.09200e-02
     13118      13125      1  -0.026451   0.009592     3.00055e-01     6.91943e-02
     13118      13126      1  -0.026451   0.009592     3.00055e-01     6.91943e-02
     13117      13121      1   0.010172  -0.003655     3.00055e-01     6.91943e-02
     13117      13120      1   0.010172   0.009367     2.60142e-01     2.09200e-02
     13117      13119      1   0.010172   0.009367     2.60142e-01     2.09200e-02
     13116      13121      1   0.010172  -0.003655     3.00055e-01     6.91943e-02
     13116      13120      1   0.010172   0.009367     2.60142e-01     2.09200e-02
     13116      13119      1   0.010172   0.009367     2.60142e-01     2.09200e-02
     13115      13122      1  -0.014653   0.005694     3.00055e-01     6.91943e-02
     13115      13123      1  -0.014653   0.005694     3.00055e-01     6.91943e-02
     13114      13118      1   0.010037  -0.022042     3.00055e-01     6.91943e-02
     13114      13116      1   0.010037   0.008477     2.60142e-01     2.09200e-02
     13114      13117      1   0.010037   0.008477     2.60142e-01     2.09200e-02
     13113      13118      1   0.010037  -0.022042     3.00055e-01     6.91943e-02
     13113      13116      1   0.010037   0.008477     2.60142e-01     2.09200e-02
     13113      13117      1   0.010037   0.008477     2.60142e-01     2.09200e-02
     13112      13120      1  -0.021025   0.009367     3.00055e-01     6.91943e-02
     13112      13119      1  -0.021025   0.009367     3.00055e-01     6.91943e-02
     13111      13115      1   0.012677  -0.012211     3.00055e-01     6.91943e-02
     13111      13114      1   0.012677   0.008364     2.60142e-01     2.09200e-02
     13111      13113      1   0.012677   0.008364     2.60142e-01     2.09200e-02
     13110      13115      1   0.012677  -0.012211     3.00055e-01     6.91943e-02
     13110      13114      1   0.012677   0.008364     2.60142e-01     2.09200e-02
     13110      13113      1   0.012677   0.008364     2.60142e-01     2.09200e-02
     13109      13116      1  -0.031787   0.008477     3.00055e-01     6.91943e-02
     13109      13117      1  -0.031787   0.008477     3.00055e-01     6.91943e-02
     13108      13112      1   0.017208  -0.017521     3.00055e-01     6.91943e-02
     13108      13110      1   0.017208   0.010564     2.60142e-01     2.09200e-02
     13108      13111      1   0.017208   0.010564     2.60142e-01     2.09200e-02
     13107      13112      1   0.017208  -0.017521     3.00055e-01     6.91943e-02
     13107      13110      1   0.017208   0.010564     2.60142e-01     2.09200e-02
     13107      13111      1   0.017208   0.010564     2.60142e-01     2.09200e-02
     13106      13114      1  -0.028094   0.008364     3.00055e-01     6.91943e-02
     13106      13113      1  -0.028094   0.008364     3.00055e-01     6.91943e-02
     13105      13109      1   0.007531  -0.026489     3.00055e-01     6.91943e-02
     13105      13108      1   0.007531   0.014340     2.60142e-01     2.09200e-02
     13105      13107      1   0.007531   0.014340     2.60142e-01     2.09200e-02
     13104      13109      1   0.007531  -0.026489     3.00055e-01     6.91943e-02
     13104      13108      1   0.007531   0.014340     2.60142e-01     2.09200e-02
     13104      13107      1   0.007531   0.014340     2.60142e-01     2.09200e-02
     13103      13110      1   0.017463   0.010564     3.00055e-01     6.91943e-02
     13103      13111      1   0.017463   0.010564     3.00055e-01     6.91943e-02
     13102      13106      1   0.025511  -0.023412     3.00055e-01     6.91943e-02
     13102      13104      1   0.025511   0.006276     2.60142e-01     2.09200e-02
     13102      13105      1   0.025511   0.006276     2.60142e-01     2.09200e-02
     13101      13106      1   0.025511  -0.023412     3.00055e-01     6.91943e-02
     13101      13104      1   0.025511   0.006276     2.60142e-01     2.09200e-02
     13101      13105      1   0.025511   0.006276     2.60142e-01     2.09200e-02
     13100      13108      1  -0.111712   0.014340     3.00055e-01     6.91943e-02
     13100      13107      1  -0.111712   0.014340     3.00055e-01     6.91943e-02
     13099      13106      1   0.025511  -0.023412     3.00055e-01     6.91943e-02
     13099      13104      1   0.025511   0.006276     2.60142e-01     2.09200e-02
     13099      13105      1   0.025511   0.006276     2.60142e-01     2.09200e-02
     13176      13216      1  -0.673755   0.044953     2.78067e-01     9.58675e-02
     13176      13215      1  -0.673755   0.044953     2.78067e-01     9.58675e-02
     13175      13213      1   0.897613   0.015716     3.00055e-01     6.13495e-02
     13175      13212      1   0.897613   0.015716     3.00055e-01     6.13495e-02
     13174      13216      1  -0.552948   0.044953     2.80072e-01     8.62554e-02
     13174      13215      1  -0.552948   0.044953     2.80072e-01     8.62554e-02
     13167      13168      1   0.172230  -0.282478     2.67982e-01     8.67002e-02
     13166      13168      1   0.172230  -0.282478     2.67982e-01     8.67002e-02
     13165      13168      1   0.172230  -0.282478     2.67982e-01     8.67002e-02
     13164      13169      1  -0.338973   0.143525     2.67982e-01     8.67002e-02
     13164      13170      1  -0.338973   0.143525     2.67982e-01     8.67002e-02
     13164      13171      1  -0.338973   0.143525     2.67982e-01     8.67002e-02
     13163      13164      1   0.172230  -0.282478     2.67982e-01     8.67002e-02
     13163      13168      1   0.172230  -0.282478     2.67982e-01     8.67002e-02
     13162      13164      1   0.172230  -0.282478     2.67982e-01     8.67002e-02
     13162      13168      1   0.172230  -0.282478     2.67982e-01     8.67002e-02
     13161      13164      1   0.172230  -0.282478     2.67982e-01     8.67002e-02
     13161      13168      1   0.172230  -0.282478     2.67982e-01     8.67002e-02
     13160      13165      1  -0.338973   0.143525     2.67982e-01     8.67002e-02
     13160      13166      1  -0.338973   0.143525     2.67982e-01     8.67002e-02
     13160      13167      1  -0.338973   0.143525     2.67982e-01     8.67002e-02
     13160      13169      1  -0.338973   0.143525     2.67982e-01     8.67002e-02
     13160      13170      1  -0.338973   0.143525     2.67982e-01     8.67002e-02
     13160      13171      1  -0.338973   0.143525     2.67982e-01     8.67002e-02
     13158      13160      1   0.136415  -0.282478     2.67982e-01     8.67002e-02
     13158      13164      1   0.136415  -0.282478     2.67982e-01     8.67002e-02
     13158      13168      1   0.136415  -0.282478     2.67982e-01     8.67002e-02
     13157      13160      1   0.136415  -0.282478     2.67982e-01     8.67002e-02
     13157      13164      1   0.136415  -0.282478     2.67982e-01     8.67002e-02
     13157      13168      1   0.136415  -0.282478     2.67982e-01     8.67002e-02
     13156      13161      1  -0.170824   0.143525     2.67982e-01     8.67002e-02
     13156      13162      1  -0.170824   0.143525     2.67982e-01     8.67002e-02
     13156      13163      1  -0.170824   0.143525     2.67982e-01     8.67002e-02
     13156      13165      1  -0.170824   0.143525     2.67982e-01     8.67002e-02
     13156      13166      1  -0.170824   0.143525     2.67982e-01     8.67002e-02
     13156      13167      1  -0.170824   0.143525     2.67982e-01     8.67002e-02
     13156      13169      1  -0.170824   0.143525     2.67982e-01     8.67002e-02
     13156      13170      1  -0.170824   0.143525     2.67982e-01     8.67002e-02
     13156      13171      1  -0.170824   0.143525     2.67982e-01     8.67002e-02
     13155      13157      1   0.078534   0.113679     2.21567e-01     3.28444e-02
     13155      13158      1   0.078534   0.113679     2.21567e-01     3.28444e-02
     13155      13159      1   0.078534   0.204385     2.86068e-01     1.08078e-01
     13154      13157      1   0.078534   0.113679     2.21567e-01     3.28444e-02
     13154      13158      1   0.078534   0.113679     2.21567e-01     3.28444e-02
     13154      13159      1   0.078534   0.204385     2.86068e-01     1.08078e-01
     13152      13157      1  -0.508176   0.113679     2.47999e-01     1.08078e-01
     13152      13158      1  -0.508176   0.113679     2.47999e-01     1.08078e-01
     13151      13154      1   1.339721   0.065445     3.10656e-01     1.17227e-01
     13151      13155      1   1.339721   0.065445     3.10656e-01     1.17227e-01
     13149      13174      1   0.095591  -0.460790     2.73568e-01     1.08078e-01
     13149      13151      1   0.095591   1.116434     3.10656e-01     1.17227e-01
     13148      13174      1   0.095591  -0.460790     2.73568e-01     1.08078e-01
     13148      13151      1   0.095591   1.116434     3.10656e-01     1.17227e-01
     13146      13148      1   0.063253   0.079659     2.47135e-01     3.28444e-02
     13146      13149      1   0.063253   0.079659     2.47135e-01     3.28444e-02
     13146      13150      1   0.063253  -0.424567     2.73568e-01     1.08078e-01
     13146      13175      1   0.063253   0.748011     2.93551e-01     7.68707e-02
     13144      13146      1   0.070469   0.052711     2.47135e-01     3.28444e-02
     13144      13147      1   0.070469   0.014549     2.93551e-01     8.67002e-02
     13144      13174      1   0.070469  -0.460790     2.73568e-01     1.08078e-01
     13143      13146      1   0.070469   0.052711     2.47135e-01     3.28444e-02
     13143      13147      1   0.070469   0.014549     2.93551e-01     8.67002e-02
     13143      13174      1   0.070469  -0.460790     2.73568e-01     1.08078e-01
     13142      13148      1   0.196939   0.079659     2.93551e-01     8.67002e-02
     13142      13149      1   0.196939   0.079659     2.93551e-01     8.67002e-02
     13141      13146      1  -0.575489   0.052711     2.73568e-01     1.08078e-01
     13139      13143      1   0.910403   0.058724     2.93551e-01     7.68707e-02
     13139      13144      1   0.910403   0.058724     2.93551e-01     7.68707e-02
     13213      13216      1   0.018859   0.044953     2.60142e-01     2.09200e-02
     13213      13215      1   0.018859   0.044953     2.60142e-01     2.09200e-02
     13212      13216      1   0.018859   0.044953     2.60142e-01     2.09200e-02
     13212      13215      1   0.018859   0.044953     2.60142e-01     2.09200e-02
     13210      13214      1   0.020431  -0.136833     3.00055e-01     6.91943e-02
     13210      13213      1   0.020431   0.015716     2.60142e-01     2.09200e-02
     13210      13212      1   0.020431   0.015716     2.60142e-01     2.09200e-02
     13209      13214      1   0.020431  -0.136833     3.00055e-01     6.91943e-02
     13209      13213      1   0.020431   0.015716     2.60142e-01     2.09200e-02
     13209      13212      1   0.020431   0.015716     2.60142e-01     2.09200e-02
     13208      13216      1  -0.026954   0.044953     3.00055e-01     6.91943e-02
     13208      13215      1  -0.026954   0.044953     3.00055e-01     6.91943e-02
     13207      13211      1   0.010573  -0.002029     3.00055e-01     6.91943e-02
     13207      13210      1   0.010573   0.017026     2.60142e-01     2.09200e-02
     13207      13209      1   0.010573   0.017026     2.60142e-01     2.09200e-02
     13206      13211      1   0.010573  -0.002029     3.00055e-01     6.91943e-02
     13206      13210      1   0.010573   0.017026     2.60142e-01     2.09200e-02
     13206      13209      1   0.010573   0.017026     2.60142e-01     2.09200e-02
     13205      13213      1  -0.016521   0.015716     3.00055e-01     6.91943e-02
     13205      13212      1  -0.016521   0.015716     3.00055e-01     6.91943e-02
     13204      13208      1   0.011511  -0.022462     3.00055e-01     6.91943e-02
     13204      13206      1   0.011511   0.008811     2.60142e-01     2.09200e-02
     13204      13207      1   0.011511   0.008811     2.60142e-01     2.09200e-02
     13203      13208      1   0.011511  -0.022462     3.00055e-01     6.91943e-02
     13203      13206      1   0.011511   0.008811     2.60142e-01     2.09200e-02
     13203      13207      1   0.011511   0.008811     2.60142e-01     2.09200e-02
     13202      13210      1  -0.027812   0.017026     3.00055e-01     6.91943e-02
     13202      13209      1  -0.027812   0.017026     3.00055e-01     6.91943e-02
     13201      13205      1   0.006833  -0.013767     3.00055e-01     6.91943e-02
     13201      13203      1   0.006833   0.009592     2.60142e-01     2.09200e-02
     13201      13204      1   0.006833   0.009592     2.60142e-01     2.09200e-02
     13200      13205      1   0.006833  -0.013767     3.00055e-01     6.91943e-02
     13200      13203      1   0.006833   0.009592     2.60142e-01     2.09200e-02
     13200      13204      1   0.006833   0.009592     2.60142e-01     2.09200e-02
     13199      13206      1  -0.004386   0.008811     3.00055e-01     6.91943e-02
     13199      13207      1  -0.004386   0.008811     3.00055e-01     6.91943e-02
     13198      13202      1   0.011241  -0.023177     3.00055e-01     6.91943e-02
     13198      13200      1   0.011241   0.005694     2.60142e-01     2.09200e-02
     13198      13201      1   0.011241   0.005694     2.60142e-01     2.09200e-02
     13197      13202      1   0.011241  -0.023177     3.00055e-01     6.91943e-02
     13197      13200      1   0.011241   0.005694     2.60142e-01     2.09200e-02
     13197      13201      1   0.011241   0.005694     2.60142e-01     2.09200e-02
     13196      13203      1  -0.026451   0.009592     3.00055e-01     6.91943e-02
     13196      13204      1  -0.026451   0.009592     3.00055e-01     6.91943e-02
     13195      13199      1   0.010172  -0.003655     3.00055e-01     6.91943e-02
     13195      13198      1   0.010172   0.009367     2.60142e-01     2.09200e-02
     13195      13197      1   0.010172   0.009367     2.60142e-01     2.09200e-02
     13194      13199      1   0.010172  -0.003655     3.00055e-01     6.91943e-02
     13194      13198      1   0.010172   0.009367     2.60142e-01     2.09200e-02
     13194      13197      1   0.010172   0.009367     2.60142e-01     2.09200e-02
     13193      13200      1  -0.014653   0.005694     3.00055e-01     6.91943e-02
     13193      13201      1  -0.014653   0.005694     3.00055e-01     6.91943e-02
     13192      13196      1   0.010037  -0.022042     3.00055e-01     6.91943e-02
     13192      13194      1   0.010037   0.008477     2.60142e-01     2.09200e-02
     13192      13195      1   0.010037   0.008477     2.60142e-01     2.09200e-02
     13191      13196      1   0.010037  -0.022042     3.00055e-01     6.91943e-02
     13191      13194      1   0.010037   0.008477     2.60142e-01     2.09200e-02
     13191      13195      1   0.010037   0.008477     2.60142e-01     2.09200e-02
     13190      13198      1  -0.021025   0.009367     3.00055e-01     6.91943e-02
     13190      13197      1  -0.021025   0.009367     3.00055e-01     6.91943e-02
     13189      13193      1   0.012677  -0.012211     3.00055e-01     6.91943e-02
     13189      13192      1   0.012677   0.008364     2.60142e-01     2.09200e-02
     13189      13191      1   0.012677   0.008364     2.60142e-01     2.09200e-02
     13188      13193      1   0.012677  -0.012211     3.00055e-01     6.91943e-02
     13188      13192      1   0.012677   0.008364     2.60142e-01     2.09200e-02
     13188      13191      1   0.012677   0.008364     2.60142e-01     2.09200e-02
     13187      13194      1  -0.031787   0.008477     3.00055e-01     6.91943e-02
     13187      13195      1  -0.031787   0.008477     3.00055e-01     6.91943e-02
     13186      13190      1   0.017208  -0.017521     3.00055e-01     6.91943e-02
     13186      13188      1   0.017208   0.010564     2.60142e-01     2.09200e-02
     13186      13189      1   0.017208   0.010564     2.60142e-01     2.09200e-02
     13185      13190      1   0.017208  -0.017521     3.00055e-01     6.91943e-02
     13185      13188      1   0.017208   0.010564     2.60142e-01     2.09200e-02
     13185      13189      1   0.017208   0.010564     2.60142e-01     2.09200e-02
     13184      13192      1  -0.028094   0.008364     3.00055e-01     6.91943e-02
     13184      13191      1  -0.028094   0.008364     3.00055e-01     6.91943e-02
     13183      13187      1   0.007531  -0.026489     3.00055e-01     6.91943e-02
     13183      13186      1   0.007531   0.014340     2.60142e-01     2.09200e-02
     13183      13185      1   0.007531   0.014340     2.60142e-01     2.09200e-02
     13182      13187      1   0.007531  -0.026489     3.00055e-01     6.91943e-02
     13182      13186      1   0.007531   0.014340     2.60142e-01     2.09200e-02
     13182      13185      1   0.007531   0.014340     2.60142e-01     2.09200e-02
     13181      13188      1   0.017463   0.010564     3.00055e-01     6.91943e-02
     13181      13189      1   0.017463   0.010564     3.00055e-01     6.91943e-02
     13180      13184      1   0.025511  -0.023412     3.00055e-01     6.91943e-02
     13180      13182      1   0.025511   0.006276     2.60142e-01     2.09200e-02
     13180      13183      1   0.025511   0.006276     2.60142e-01     2.09200e-02
     13179      13184      1   0.025511  -0.023412     3.00055e-01     6.91943e-02
     13179      13182      1   0.025511   0.006276     2.60142e-01     2.09200e-02
     13179      13183      1   0.025511   0.006276     2.60142e-01     2.09200e-02
     13178      13186      1  -0.111712   0.014340     3.00055e-01     6.91943e-02
     13178      13185      1  -0.111712   0.014340     3.00055e-01     6.91943e-02
     13177      13184      1   0.025511  -0.023412     3.00055e-01     6.91943e-02
     13177      13182      1   0.025511   0.006276     2.60142e-01     2.09200e-02
     13177      13183      1   0.025511   0.006276     2.60142e-01     2.09200e-02
     13256      13258      1   0.053944  -0.559638     2.78067e-01     9.58675e-02
     13256      13259      1   0.053944  -0.479574     2.80072e-01     8.62554e-02
     13255      13258      1   0.053944  -0.559638     2.78067e-01     9.58675e-02
     13255      13259      1   0.053944  -0.479574     2.80072e-01     8.62554e-02
     13253      13256      1   0.018859   0.044953     2.60142e-01     2.09200e-02
     13253      13255      1   0.018859   0.044953     2.60142e-01     2.09200e-02
     13253      13257      1   0.018859   0.758669     3.00055e-01     6.13495e-02
     13252      13256      1   0.018859   0.044953     2.60142e-01     2.09200e-02
     13252      13255      1   0.018859   0.044953     2.60142e-01     2.09200e-02
     13252      13257      1   0.018859   0.758669     3.00055e-01     6.13495e-02
     13250      13254      1   0.020431  -0.136833     3.00055e-01     6.91943e-02
     13250      13253      1   0.020431   0.015716     2.60142e-01     2.09200e-02
     13250      13252      1   0.020431   0.015716     2.60142e-01     2.09200e-02
     13249      13254      1   0.020431  -0.136833     3.00055e-01     6.91943e-02
     13249      13253      1   0.020431   0.015716     2.60142e-01     2.09200e-02
     13249      13252      1   0.020431   0.015716     2.60142e-01     2.09200e-02
     13248      13256      1  -0.026954   0.044953     3.00055e-01     6.91943e-02
     13248      13255      1  -0.026954   0.044953     3.00055e-01     6.91943e-02
     13247      13251      1   0.010573  -0.002029     3.00055e-01     6.91943e-02
     13247      13250      1   0.010573   0.017026     2.60142e-01     2.09200e-02
     13247      13249      1   0.010573   0.017026     2.60142e-01     2.09200e-02
     13246      13251      1   0.010573  -0.002029     3.00055e-01     6.91943e-02
     13246      13250      1   0.010573   0.017026     2.60142e-01     2.09200e-02
     13246      13249      1   0.010573   0.017026     2.60142e-01     2.09200e-02
     13245      13253      1  -0.016521   0.015716     3.00055e-01     6.91943e-02
     13245      13252      1  -0.016521   0.015716     3.00055e-01     6.91943e-02
     13244      13248      1   0.011511  -0.022462     3.00055e-01     6.91943e-02
     13244      13246      1   0.011511   0.008811     2.60142e-01     2.09200e-02
     13244      13247      1   0.011511   0.008811     2.60142e-01     2.09200e-02
     13243      13248      1   0.011511  -0.022462     3.00055e-01     6.91943e-02
     13243      13246      1   0.011511   0.008811     2.60142e-01     2.09200e-02
     13243      13247      1   0.011511   0.008811     2.60142e-01     2.09200e-02
     13242      13250      1  -0.027812   0.017026     3.00055e-01     6.91943e-02
     13242      13249      1  -0.027812   0.017026     3.00055e-01     6.91943e-02
     13241      13245      1   0.006833  -0.013767     3.00055e-01     6.91943e-02
     13241      13243      1   0.006833   0.009592     2.60142e-01     2.09200e-02
     13241      13244      1   0.006833   0.009592     2.60142e-01     2.09200e-02
     13240      13245      1   0.006833  -0.013767     3.00055e-01     6.91943e-02
     13240      13243      1   0.006833   0.009592     2.60142e-01     2.09200e-02
     13240      13244      1   0.006833   0.009592     2.60142e-01     2.09200e-02
     13239      13246      1  -0.004386   0.008811     3.00055e-01     6.91943e-02
     13239      13247      1  -0.004386   0.008811     3.00055e-01     6.91943e-02
     13238      13242      1   0.011241  -0.023177     3.00055e-01     6.91943e-02
     13238      13240      1   0.011241   0.005694     2.60142e-01     2.09200e-02
     13238      13241      1   0.011241   0.005694     2.60142e-01     2.09200e-02
     13237      13242      1   0.011241  -0.023177     3.00055e-01     6.91943e-02
     13237      13240      1   0.011241   0.005694     2.60142e-01     2.09200e-02
     13237      13241      1   0.011241   0.005694     2.60142e-01     2.09200e-02
     13236      13243      1  -0.026451   0.009592     3.00055e-01     6.91943e-02
     13236      13244      1  -0.026451   0.009592     3.00055e-01     6.91943e-02
     13235      13239      1   0.010172  -0.003655     3.00055e-01     6.91943e-02
     13235      13238      1   0.010172   0.009367     2.60142e-01     2.09200e-02
     13235      13237      1   0.010172   0.009367     2.60142e-01     2.09200e-02
     13234      13239      1   0.010172  -0.003655     3.00055e-01     6.91943e-02
     13234      13238      1   0.010172   0.009367     2.60142e-01     2.09200e-02
     13234      13237      1   0.010172   0.009367     2.60142e-01     2.09200e-02
     13233      13240      1  -0.014653   0.005694     3.00055e-01     6.91943e-02
     13233      13241      1  -0.014653   0.005694     3.00055e-01     6.91943e-02
     13232      13236      1   0.010037  -0.022042     3.00055e-01     6.91943e-02
     13232      13234      1   0.010037   0.008477     2.60142e-01     2.09200e-02
     13232      13235      1   0.010037   0.008477     2.60142e-01     2.09200e-02
     13231      13236      1   0.010037  -0.022042     3.00055e-01     6.91943e-02
     13231      13234      1   0.010037   0.008477     2.60142e-01     2.09200e-02
     13231      13235      1   0.010037   0.008477     2.60142e-01     2.09200e-02
     13230      13238      1  -0.021025   0.009367     3.00055e-01     6.91943e-02
     13230      13237      1  -0.021025   0.009367     3.00055e-01     6.91943e-02
     13229      13233      1   0.012677  -0.012211     3.00055e-01     6.91943e-02
     13229      13232      1   0.012677   0.008364     2.60142e-01     2.09200e-02
     13229      13231      1   0.012677   0.008364     2.60142e-01     2.09200e-02
     13228      13233      1   0.012677  -0.012211     3.00055e-01     6.91943e-02
     13228      13232      1   0.012677   0.008364     2.60142e-01     2.09200e-02
     13228      13231      1   0.012677   0.008364     2.60142e-01     2.09200e-02
     13227      13234      1  -0.031787   0.008477     3.00055e-01     6.91943e-02
     13227      13235      1  -0.031787   0.008477     3.00055e-01     6.91943e-02
     13226      13230      1   0.017208  -0.017521     3.00055e-01     6.91943e-02
     13226      13228      1   0.017208   0.010564     2.60142e-01     2.09200e-02
     13226      13229      1   0.017208   0.010564     2.60142e-01     2.09200e-02
     13225      13230      1   0.017208  -0.017521     3.00055e-01     6.91943e-02
     13225      13228      1   0.017208   0.010564     2.60142e-01     2.09200e-02
     13225      13229      1   0.017208   0.010564     2.60142e-01     2.09200e-02
     13224      13232      1  -0.028094   0.008364     3.00055e-01     6.91943e-02
     13224      13231      1  -0.028094   0.008364     3.00055e-01     6.91943e-02
     13223      13227      1   0.007531  -0.026489     3.00055e-01     6.91943e-02
     13223      13226      1   0.007531   0.014340     2.60142e-01     2.09200e-02
     13223      13225      1   0.007531   0.014340     2.60142e-01     2.09200e-02
     13222      13227      1   0.007531  -0.026489     3.00055e-01     6.91943e-02
     13222      13226      1   0.007531   0.014340     2.60142e-01     2.09200e-02
     13222      13225      1   0.007531   0.014340     2.60142e-01     2.09200e-02
     13221      13228      1   0.017463   0.010564     3.00055e-01     6.91943e-02
     13221      13229      1   0.017463   0.010564     3.00055e-01     6.91943e-02
     13220      13224      1   0.025511  -0.023412     3.00055e-01     6.91943e-02
     13220      13222      1   0.025511   0.006276     2.60142e-01     2.09200e-02
     13220      13223      1   0.025511   0.006276     2.60142e-01     2.09200e-02
     13219      13224      1   0.025511  -0.023412     3.00055e-01     6.91943e-02
     13219      13222      1   0.025511   0.006276     2.60142e-01     2.09200e-02
     13219      13223      1   0.025511   0.006276     2.60142e-01     2.09200e-02
     13218      13226      1  -0.111712   0.014340     3.00055e-01     6.91943e-02
     13218      13225      1  -0.111712   0.014340     3.00055e-01     6.91943e-02
     13217      13224      1   0.025511  -0.023412     3.00055e-01     6.91943e-02
     13217      13222      1   0.025511   0.006276     2.60142e-01     2.09200e-02
     13217      13223      1   0.025511   0.006276     2.60142e-01     2.09200e-02
     13294      13334      1  -0.673755   0.044953     2.78067e-01     9.58675e-02
     13294      13333      1  -0.673755   0.044953     2.78067e-01     9.58675e-02
     13293      13331      1   0.897613   0.015716     3.00055e-01     6.13495e-02
     13293      13330      1   0.897613   0.015716     3.00055e-01     6.13495e-02
     13292      13334      1  -0.552948   0.044953     2.80072e-01     8.62554e-02
     13292      13333      1  -0.552948   0.044953     2.80072e-01     8.62554e-02
     13285      13286      1   0.172230  -0.282478     2.67982e-01     8.67002e-02
     13284      13286      1   0.172230  -0.282478     2.67982e-01     8.67002e-02
     13283      13286      1   0.172230  -0.282478     2.67982e-01     8.67002e-02
     13282      13287      1  -0.338973   0.143525     2.67982e-01     8.67002e-02
     13282      13288      1  -0.338973   0.143525     2.67982e-01     8.67002e-02
     13282      13289      1  -0.338973   0.143525     2.67982e-01     8.67002e-02
     13281      13282      1   0.172230  -0.282478     2.67982e-01     8.67002e-02
     13281      13286      1   0.172230  -0.282478     2.67982e-01     8.67002e-02
     13280      13282      1   0.172230  -0.282478     2.67982e-01     8.67002e-02
     13280      13286      1   0.172230  -0.282478     2.67982e-01     8.67002e-02
     13279      13282      1   0.172230  -0.282478     2.67982e-01     8.67002e-02
     13279      13286      1   0.172230  -0.282478     2.67982e-01     8.67002e-02
     13278      13283      1  -0.338973   0.143525     2.67982e-01     8.67002e-02
     13278      13284      1  -0.338973   0.143525     2.67982e-01     8.67002e-02
     13278      13285      1  -0.338973   0.143525     2.67982e-01     8.67002e-02
     13278      13287      1  -0.338973   0.143525     2.67982e-01     8.67002e-02
     13278      13288      1  -0.338973   0.143525     2.67982e-01     8.67002e-02
     13278      13289      1  -0.338973   0.143525     2.67982e-01     8.67002e-02
     13276      13278      1   0.136415  -0.282478     2.67982e-01     8.67002e-02
     13276      13282      1   0.136415  -0.282478     2.67982e-01     8.67002e-02
     13276      13286      1   0.136415  -0.282478     2.67982e-01     8.67002e-02
     13275      13278      1   0.136415  -0.282478     2.67982e-01     8.67002e-02
     13275      13282      1   0.136415  -0.282478     2.67982e-01     8.67002e-02
     13275      13286      1   0.136415  -0.282478     2.67982e-01     8.67002e-02
     13274      13279      1  -0.170824   0.143525     2.67982e-01     8.67002e-02
     13274      13280      1  -0.170824   0.143525     2.67982e-01     8.67002e-02
     13274      13281      1  -0.170824   0.143525     2.67982e-01     8.67002e-02
     13274      13283      1  -0.170824   0.143525     2.67982e-01     8.67002e-02
     13274      13284      1  -0.170824   0.143525     2.67982e-01     8.67002e-02
     13274      13285      1  -0.170824   0.143525     2.67982e-01     8.67002e-02
     13274      13287      1  -0.170824   0.143525     2.67982e-01     8.67002e-02
     13274      13288      1  -0.170824   0.143525     2.67982e-01     8.67002e-02
     13274      13289      1  -0.170824   0.143525     2.67982e-01     8.67002e-02
     13273      13275      1   0.078534   0.113679     2.21567e-01     3.28444e-02
     13273      13276      1   0.078534   0.113679     2.21567e-01     3.28444e-02
     13273      13277      1   0.078534   0.204385     2.86068e-01     1.08078e-01
     13272      13275      1   0.078534   0.113679     2.21567e-01     3.28444e-02
     13272      13276      1   0.078534   0.113679     2.21567e-01     3.28444e-02
     13272      13277      1   0.078534   0.204385     2.86068e-01     1.08078e-01
     13270      13275      1  -0.508176   0.113679     2.47999e-01     1.08078e-01
     13270      13276      1  -0.508176   0.113679     2.47999e-01     1.08078e-01
     13269      13272      1   1.339721   0.065445     3.10656e-01     1.17227e-01
     13269      13273      1   1.339721   0.065445     3.10656e-01     1.17227e-01
     13267      13292      1   0.095591  -0.460790     2.73568e-01     1.08078e-01
     13267      13269      1   0.095591   1.116434     3.10656e-01     1.17227e-01
     13266      13292      1   0.095591  -0.460790     2.73568e-01     1.08078e-01
     13266      13269      1   0.095591   1.116434     3.10656e-01     1.17227e-01
     13264      13266      1   0.063253   0.079659     2.47135e-01     3.28444e-02
     13264      13267      1   0.063253   0.079659     2.47135e-01     3.28444e-02
     13264      13268      1   0.063253  -0.424567     2.73568e-01     1.08078e-01
     13264      13293      1   0.063253   0.748011     2.93551e-01     7.68707e-02
     13262      13264      1   0.070469   0.052711     2.47135e-01     3.28444e-02
     13262      13265      1   0.070469   0.014549     2.93551e-01     8.67002e-02
     13262      13292      1   0.070469  -0.460790     2.73568e-01     1.08078e-01
     13261      13264      1   0.070469   0.052711     2.47135e-01     3.28444e-02
     13261      13265      1   0.070469   0.014549     2.93551e-01     8.67002e-02
     13261      13292      1   0.070469  -0.460790     2.73568e-01     1.08078e-01
     13260      13266      1   0.196939   0.079659     2.93551e-01     8.67002e-02
     13260      13267      1   0.196939   0.079659     2.93551e-01     8.67002e-02
     13259      13264      1  -0.575489   0.052711     2.73568e-01     1.08078e-01
     13257      13261      1   0.910403   0.058724     2.93551e-01     7.68707e-02
     13257      13262      1   0.910403   0.058724     2.93551e-01     7.68707e-02
     13331      13334      1   0.018859   0.044953     2.60142e-01     2.09200e-02
     13331      13333      1   0.018859   0.044953     2.60142e-01     2.09200e-02
     13330      13334      1   0.018859   0.044953     2.60142e-01     2.09200e-02
     13330      13333      1   0.018859   0.044953     2.60142e-01     2.09200e-02
     13328      13332      1   0.020431  -0.136833     3.00055e-01     6.91943e-02
     13328      13331      1   0.020431   0.015716     2.60142e-01     2.09200e-02
     13328      13330      1   0.020431   0.015716     2.60142e-01     2.09200e-02
     13327      13332      1   0.020431  -0.136833     3.00055e-01     6.91943e-02
     13327      13331      1   0.020431   0.015716     2.60142e-01     2.09200e-02
     13327      13330      1   0.020431   0.015716     2.60142e-01     2.09200e-02
     13326      13334      1  -0.026954   0.044953     3.00055e-01     6.91943e-02
     13326      13333      1  -0.026954   0.044953     3.00055e-01     6.91943e-02
     13325      13329      1   0.010573  -0.002029     3.00055e-01     6.91943e-02
     13325      13328      1   0.010573   0.017026     2.60142e-01     2.09200e-02
     13325      13327      1   0.010573   0.017026     2.60142e-01     2.09200e-02
     13324      13329      1   0.010573  -0.002029     3.00055e-01     6.91943e-02
     13324      13328      1   0.010573   0.017026     2.60142e-01     2.09200e-02
     13324      13327      1   0.010573   0.017026     2.60142e-01     2.09200e-02
     13323      13331      1  -0.016521   0.015716     3.00055e-01     6.91943e-02
     13323      13330      1  -0.016521   0.015716     3.00055e-01     6.91943e-02
     13322      13326      1   0.011511  -0.022462     3.00055e-01     6.91943e-02
     13322      13324      1   0.011511   0.008811     2.60142e-01     2.09200e-02
     13322      13325      1   0.011511   0.008811     2.60142e-01     2.09200e-02
     13321      13326      1   0.011511  -0.022462     3.00055e-01     6.91943e-02
     13321      13324      1   0.011511   0.008811     2.60142e-01     2.09200e-02
     13321      13325      1   0.011511   0.008811     2.60142e-01     2.09200e-02
     13320      13328      1  -0.027812   0.017026     3.00055e-01     6.91943e-02
     13320      13327      1  -0.027812   0.017026     3.00055e-01     6.91943e-02
     13319      13323      1   0.006833  -0.013767     3.00055e-01     6.91943e-02
     13319      13321      1   0.006833   0.009592     2.60142e-01     2.09200e-02
     13319      13322      1   0.006833   0.009592     2.60142e-01     2.09200e-02
     13318      13323      1   0.006833  -0.013767     3.00055e-01     6.91943e-02
     13318      13321      1   0.006833   0.009592     2.60142e-01     2.09200e-02
     13318      13322      1   0.006833   0.009592     2.60142e-01     2.09200e-02
     13317      13324      1  -0.004386   0.008811     3.00055e-01     6.91943e-02
     13317      13325      1  -0.004386   0.008811     3.00055e-01     6.91943e-02
     13316      13320      1   0.011241  -0.023177     3.00055e-01     6.91943e-02
     13316      13318      1   0.011241   0.005694     2.60142e-01     2.09200e-02
     13316      13319      1   0.011241   0.005694     2.60142e-01     2.09200e-02
     13315      13320      1   0.011241  -0.023177     3.00055e-01     6.91943e-02
     13315      13318      1   0.011241   0.005694     2.60142e-01     2.09200e-02
     13315      13319      1   0.011241   0.005694     2.60142e-01     2.09200e-02
     13314      13321      1  -0.026451   0.009592     3.00055e-01     6.91943e-02
     13314      13322      1  -0.026451   0.009592     3.00055e-01     6.91943e-02
     13313      13317      1   0.010172  -0.003655     3.00055e-01     6.91943e-02
     13313      13316      1   0.010172   0.009367     2.60142e-01     2.09200e-02
     13313      13315      1   0.010172   0.009367     2.60142e-01     2.09200e-02
     13312      13317      1   0.010172  -0.003655     3.00055e-01     6.91943e-02
     13312      13316      1   0.010172   0.009367     2.60142e-01     2.09200e-02
     13312      13315      1   0.010172   0.009367     2.60142e-01     2.09200e-02
     13311      13318      1  -0.014653   0.005694     3.00055e-01     6.91943e-02
     13311      13319      1  -0.014653   0.005694     3.00055e-01     6.91943e-02
     13310      13314      1   0.010037  -0.022042     3.00055e-01     6.91943e-02
     13310      13312      1   0.010037   0.008477     2.60142e-01     2.09200e-02
     13310      13313      1   0.010037   0.008477     2.60142e-01     2.09200e-02
     13309      13314      1   0.010037  -0.022042     3.00055e-01     6.91943e-02
     13309      13312      1   0.010037   0.008477     2.60142e-01     2.09200e-02
     13309      13313      1   0.010037   0.008477     2.60142e-01     2.09200e-02
     13308      13316      1  -0.021025   0.009367     3.00055e-01     6.91943e-02
     13308      13315      1  -0.021025   0.009367     3.00055e-01     6.91943e-02
     13307      13311      1   0.012677  -0.012211     3.00055e-01     6.91943e-02
     13307      13310      1   0.012677   0.008364     2.60142e-01     2.09200e-02
     13307      13309      1   0.012677   0.008364     2.60142e-01     2.09200e-02
     13306      13311      1   0.012677  -0.012211     3.00055e-01     6.91943e-02
     13306      13310      1   0.012677   0.008364     2.60142e-01     2.09200e-02
     13306      13309      1   0.012677   0.008364     2.60142e-01     2.09200e-02
     13305      13312      1  -0.031787   0.008477     3.00055e-01     6.91943e-02
     13305      13313      1  -0.031787   0.008477     3.00055e-01     6.91943e-02
     13304      13308      1   0.017208  -0.017521     3.00055e-01     6.91943e-02
     13304      13306      1   0.017208   0.010564     2.60142e-01     2.09200e-02
     13304      13307      1   0.017208   0.010564     2.60142e-01     2.09200e-02
     13303      13308      1   0.017208  -0.017521     3.00055e-01     6.91943e-02
     13303      13306      1   0.017208   0.010564     2.60142e-01     2.09200e-02
     13303      13307      1   0.017208   0.010564     2.60142e-01     2.09200e-02
     13302      13310      1  -0.028094   0.008364     3.00055e-01     6.91943e-02
     13302      13309      1  -0.028094   0.008364     3.00055e-01     6.91943e-02
     13301      13305      1   0.007531  -0.026489     3.00055e-01     6.91943e-02
     13301      13304      1   0.007531   0.014340     2.60142e-01     2.09200e-02
     13301      13303      1   0.007531   0.014340     2.60142e-01     2.09200e-02
     13300      13305      1   0.007531  -0.026489     3.00055e-01     6.91943e-02
     13300      13304      1   0.007531   0.014340     2.60142e-01     2.09200e-02
     13300      13303      1   0.007531   0.014340     2.60142e-01     2.09200e-02
     13299      13306      1   0.017463   0.010564     3.00055e-01     6.91943e-02
     13299      13307      1   0.017463   0.010564     3.00055e-01     6.91943e-02
     13298      13302      1   0.025511  -0.023412     3.00055e-01     6.91943e-02
     13298      13300      1   0.025511   0.006276     2.60142e-01     2.09200e-02
     13298      13301      1   0.025511   0.006276     2.60142e-01     2.09200e-02
     13297      13302      1   0.025511  -0.023412     3.00055e-01     6.91943e-02
     13297      13300      1   0.025511   0.006276     2.60142e-01     2.09200e-02
     13297      13301      1   0.025511   0.006276     2.60142e-01     2.09200e-02
     13296      13304      1  -0.111712   0.014340     3.00055e-01     6.91943e-02
     13296      13303      1  -0.111712   0.014340     3.00055e-01     6.91943e-02
     13295      13302      1   0.025511  -0.023412     3.00055e-01     6.91943e-02
     13295      13300      1   0.025511   0.006276     2.60142e-01     2.09200e-02
     13295      13301      1   0.025511   0.006276     2.60142e-01     2.09200e-02
     13374      13376      1   0.053944  -0.559638     2.78067e-01     9.58675e-02
     13374      13377      1   0.053944  -0.479574     2.80072e-01     8.62554e-02
     13373      13376      1   0.053944  -0.559638     2.78067e-01     9.58675e-02
     13373      13377      1   0.053944  -0.479574     2.80072e-01     8.62554e-02
     13371      13374      1   0.018859   0.044953     2.60142e-01     2.09200e-02
     13371      13373      1   0.018859   0.044953     2.60142e-01     2.09200e-02
     13371      13375      1   0.018859   0.758669     3.00055e-01     6.13495e-02
     13370      13374      1   0.018859   0.044953     2.60142e-01     2.09200e-02
     13370      13373      1   0.018859   0.044953     2.60142e-01     2.09200e-02
     13370      13375      1   0.018859   0.758669     3.00055e-01     6.13495e-02
     13368      13372      1   0.020431  -0.136833     3.00055e-01     6.91943e-02
     13368      13371      1   0.020431   0.015716     2.60142e-01     2.09200e-02
     13368      13370      1   0.020431   0.015716     2.60142e-01     2.09200e-02
     13367      13372      1   0.020431  -0.136833     3.00055e-01     6.91943e-02
     13367      13371      1   0.020431   0.015716     2.60142e-01     2.09200e-02
     13367      13370      1   0.020431   0.015716     2.60142e-01     2.09200e-02
     13366      13374      1  -0.026954   0.044953     3.00055e-01     6.91943e-02
     13366      13373      1  -0.026954   0.044953     3.00055e-01     6.91943e-02
     13365      13369      1   0.010573  -0.002029     3.00055e-01     6.91943e-02
     13365      13368      1   0.010573   0.017026     2.60142e-01     2.09200e-02
     13365      13367      1   0.010573   0.017026     2.60142e-01     2.09200e-02
     13364      13369      1   0.010573  -0.002029     3.00055e-01     6.91943e-02
     13364      13368      1   0.010573   0.017026     2.60142e-01     2.09200e-02
     13364      13367      1   0.010573   0.017026     2.60142e-01     2.09200e-02
     13363      13371      1  -0.016521   0.015716     3.00055e-01     6.91943e-02
     13363      13370      1  -0.016521   0.015716     3.00055e-01     6.91943e-02
     13362      13366      1   0.011511  -0.022462     3.00055e-01     6.91943e-02
     13362      13364      1   0.011511   0.008811     2.60142e-01     2.09200e-02
     13362      13365      1   0.011511   0.008811     2.60142e-01     2.09200e-02
     13361      13366      1   0.011511  -0.022462     3.00055e-01     6.91943e-02
     13361      13364      1   0.011511   0.008811     2.60142e-01     2.09200e-02
     13361      13365      1   0.011511   0.008811     2.60142e-01     2.09200e-02
     13360      13368      1  -0.027812   0.017026     3.00055e-01     6.91943e-02
     13360      13367      1  -0.027812   0.017026     3.00055e-01     6.91943e-02
     13359      13363      1   0.006833  -0.013767     3.00055e-01     6.91943e-02
     13359      13361      1   0.006833   0.009592     2.60142e-01     2.09200e-02
     13359      13362      1   0.006833   0.009592     2.60142e-01     2.09200e-02
     13358      13363      1   0.006833  -0.013767     3.00055e-01     6.91943e-02
     13358      13361      1   0.006833   0.009592     2.60142e-01     2.09200e-02
     13358      13362      1   0.006833   0.009592     2.60142e-01     2.09200e-02
     13357      13364      1  -0.004386   0.008811     3.00055e-01     6.91943e-02
     13357      13365      1  -0.004386   0.008811     3.00055e-01     6.91943e-02
     13356      13360      1   0.011241  -0.023177     3.00055e-01     6.91943e-02
     13356      13358      1   0.011241   0.005694     2.60142e-01     2.09200e-02
     13356      13359      1   0.011241   0.005694     2.60142e-01     2.09200e-02
     13355      13360      1   0.011241  -0.023177     3.00055e-01     6.91943e-02
     13355      13358      1   0.011241   0.005694     2.60142e-01     2.09200e-02
     13355      13359      1   0.011241   0.005694     2.60142e-01     2.09200e-02
     13354      13361      1  -0.026451   0.009592     3.00055e-01     6.91943e-02
     13354      13362      1  -0.026451   0.009592     3.00055e-01     6.91943e-02
     13353      13357      1   0.010172  -0.003655     3.00055e-01     6.91943e-02
     13353      13356      1   0.010172   0.009367     2.60142e-01     2.09200e-02
     13353      13355      1   0.010172   0.009367     2.60142e-01     2.09200e-02
     13352      13357      1   0.010172  -0.003655     3.00055e-01     6.91943e-02
     13352      13356      1   0.010172   0.009367     2.60142e-01     2.09200e-02
     13352      13355      1   0.010172   0.009367     2.60142e-01     2.09200e-02
     13351      13358      1  -0.014653   0.005694     3.00055e-01     6.91943e-02
     13351      13359      1  -0.014653   0.005694     3.00055e-01     6.91943e-02
     13350      13354      1   0.010037  -0.022042     3.00055e-01     6.91943e-02
     13350      13352      1   0.010037   0.008477     2.60142e-01     2.09200e-02
     13350      13353      1   0.010037   0.008477     2.60142e-01     2.09200e-02
     13349      13354      1   0.010037  -0.022042     3.00055e-01     6.91943e-02
     13349      13352      1   0.010037   0.008477     2.60142e-01     2.09200e-02
     13349      13353      1   0.010037   0.008477     2.60142e-01     2.09200e-02
     13348      13356      1  -0.021025   0.009367     3.00055e-01     6.91943e-02
     13348      13355      1  -0.021025   0.009367     3.00055e-01     6.91943e-02
     13347      13351      1   0.012677  -0.012211     3.00055e-01     6.91943e-02
     13347      13350      1   0.012677   0.008364     2.60142e-01     2.09200e-02
     13347      13349      1   0.012677   0.008364     2.60142e-01     2.09200e-02
     13346      13351      1   0.012677  -0.012211     3.00055e-01     6.91943e-02
     13346      13350      1   0.012677   0.008364     2.60142e-01     2.09200e-02
     13346      13349      1   0.012677   0.008364     2.60142e-01     2.09200e-02
     13345      13352      1  -0.031787   0.008477     3.00055e-01     6.91943e-02
     13345      13353      1  -0.031787   0.008477     3.00055e-01     6.91943e-02
     13344      13348      1   0.017208  -0.017521     3.00055e-01     6.91943e-02
     13344      13346      1   0.017208   0.010564     2.60142e-01     2.09200e-02
     13344      13347      1   0.017208   0.010564     2.60142e-01     2.09200e-02
     13343      13348      1   0.017208  -0.017521     3.00055e-01     6.91943e-02
     13343      13346      1   0.017208   0.010564     2.60142e-01     2.09200e-02
     13343      13347      1   0.017208   0.010564     2.60142e-01     2.09200e-02
     13342      13350      1  -0.028094   0.008364     3.00055e-01     6.91943e-02
     13342      13349      1  -0.028094   0.008364     3.00055e-01     6.91943e-02
     13341      13345      1   0.007531  -0.026489     3.00055e-01     6.91943e-02
     13341      13344      1   0.007531   0.014340     2.60142e-01     2.09200e-02
     13341      13343      1   0.007531   0.014340     2.60142e-01     2.09200e-02
     13340      13345      1   0.007531  -0.026489     3.00055e-01     6.91943e-02
     13340      13344      1   0.007531   0.014340     2.60142e-01     2.09200e-02
     13340      13343      1   0.007531   0.014340     2.60142e-01     2.09200e-02
     13339      13346      1   0.017463   0.010564     3.00055e-01     6.91943e-02
     13339      13347      1   0.017463   0.010564     3.00055e-01     6.91943e-02
     13338      13342      1   0.025511  -0.023412     3.00055e-01     6.91943e-02
     13338      13340      1   0.025511   0.006276     2.60142e-01     2.09200e-02
     13338      13341      1   0.025511   0.006276     2.60142e-01     2.09200e-02
     13337      13342      1   0.025511  -0.023412     3.00055e-01     6.91943e-02
     13337      13340      1   0.025511   0.006276     2.60142e-01     2.09200e-02
     13337      13341      1   0.025511   0.006276     2.60142e-01     2.09200e-02
     13336      13344      1  -0.111712   0.014340     3.00055e-01     6.91943e-02
     13336      13343      1  -0.111712   0.014340     3.00055e-01     6.91943e-02
     13335      13342      1   0.025511  -0.023412     3.00055e-01     6.91943e-02
     13335      13340      1   0.025511   0.006276     2.60142e-01     2.09200e-02
     13335      13341      1   0.025511   0.006276     2.60142e-01     2.09200e-02
     13412      13452      1  -0.673755   0.044953     2.78067e-01     9.58675e-02
     13412      13451      1  -0.673755   0.044953     2.78067e-01     9.58675e-02
     13411      13449      1   0.897613   0.015716     3.00055e-01     6.13495e-02
     13411      13448      1   0.897613   0.015716     3.00055e-01     6.13495e-02
     13410      13452      1  -0.552948   0.044953     2.80072e-01     8.62554e-02
     13410      13451      1  -0.552948   0.044953     2.80072e-01     8.62554e-02
     13403      13404      1   0.172230  -0.282478     2.67982e-01     8.67002e-02
     13402      13404      1   0.172230  -0.282478     2.67982e-01     8.67002e-02
     13401      13404      1   0.172230  -0.282478     2.67982e-01     8.67002e-02
     13400      13405      1  -0.338973   0.143525     2.67982e-01     8.67002e-02
     13400      13406      1  -0.338973   0.143525     2.67982e-01     8.67002e-02
     13400      13407      1  -0.338973   0.143525     2.67982e-01     8.67002e-02
     13399      13400      1   0.172230  -0.282478     2.67982e-01     8.67002e-02
     13399      13404      1   0.172230  -0.282478     2.67982e-01     8.67002e-02
     13398      13400      1   0.172230  -0.282478     2.67982e-01     8.67002e-02
     13398      13404      1   0.172230  -0.282478     2.67982e-01     8.67002e-02
     13397      13400      1   0.172230  -0.282478     2.67982e-01     8.67002e-02
     13397      13404      1   0.172230  -0.282478     2.67982e-01     8.67002e-02
     13396      13401      1  -0.338973   0.143525     2.67982e-01     8.67002e-02
     13396      13402      1  -0.338973   0.143525     2.67982e-01     8.67002e-02
     13396      13403      1  -0.338973   0.143525     2.67982e-01     8.67002e-02
     13396      13405      1  -0.338973   0.143525     2.67982e-01     8.67002e-02
     13396      13406      1  -0.338973   0.143525     2.67982e-01     8.67002e-02
     13396      13407      1  -0.338973   0.143525     2.67982e-01     8.67002e-02
     13394      13396      1   0.136415  -0.282478     2.67982e-01     8.67002e-02
     13394      13400      1   0.136415  -0.282478     2.67982e-01     8.67002e-02
     13394      13404      1   0.136415  -0.282478     2.67982e-01     8.67002e-02
     13393      13396      1   0.136415  -0.282478     2.67982e-01     8.67002e-02
     13393      13400      1   0.136415  -0.282478     2.67982e-01     8.67002e-02
     13393      13404      1   0.136415  -0.282478     2.67982e-01     8.67002e-02
     13392      13397      1  -0.170824   0.143525     2.67982e-01     8.67002e-02
     13392      13398      1  -0.170824   0.143525     2.67982e-01     8.67002e-02
     13392      13399      1  -0.170824   0.143525     2.67982e-01     8.67002e-02
     13392      13401      1  -0.170824   0.143525     2.67982e-01     8.67002e-02
     13392      13402      1  -0.170824   0.143525     2.67982e-01     8.67002e-02
     13392      13403      1  -0.170824   0.143525     2.67982e-01     8.67002e-02
     13392      13405      1  -0.170824   0.143525     2.67982e-01     8.67002e-02
     13392      13406      1  -0.170824   0.143525     2.67982e-01     8.67002e-02
     13392      13407      1  -0.170824   0.143525     2.67982e-01     8.67002e-02
     13391      13393      1   0.078534   0.113679     2.21567e-01     3.28444e-02
     13391      13394      1   0.078534   0.113679     2.21567e-01     3.28444e-02
     13391      13395      1   0.078534   0.204385     2.86068e-01     1.08078e-01
     13390      13393      1   0.078534   0.113679     2.21567e-01     3.28444e-02
     13390      13394      1   0.078534   0.113679     2.21567e-01     3.28444e-02
     13390      13395      1   0.078534   0.204385     2.86068e-01     1.08078e-01
     13388      13393      1  -0.508176   0.113679     2.47999e-01     1.08078e-01
     13388      13394      1  -0.508176   0.113679     2.47999e-01     1.08078e-01
     13387      13390      1   1.339721   0.065445     3.10656e-01     1.17227e-01
     13387      13391      1   1.339721   0.065445     3.10656e-01     1.17227e-01
     13385      13410      1   0.095591  -0.460790     2.73568e-01     1.08078e-01
     13385      13387      1   0.095591   1.116434     3.10656e-01     1.17227e-01
     13384      13410      1   0.095591  -0.460790     2.73568e-01     1.08078e-01
     13384      13387      1   0.095591   1.116434     3.10656e-01     1.17227e-01
     13382      13384      1   0.063253   0.079659     2.47135e-01     3.28444e-02
     13382      13385      1   0.063253   0.079659     2.47135e-01     3.28444e-02
     13382      13386      1   0.063253  -0.424567     2.73568e-01     1.08078e-01
     13382      13411      1   0.063253   0.748011     2.93551e-01     7.68707e-02
     13380      13382      1   0.070469   0.052711     2.47135e-01     3.28444e-02
     13380      13383      1   0.070469   0.014549     2.93551e-01     8.67002e-02
     13380      13410      1   0.070469  -0.460790     2.73568e-01     1.08078e-01
     13379      13382      1   0.070469   0.052711     2.47135e-01     3.28444e-02
     13379      13383      1   0.070469   0.014549     2.93551e-01     8.67002e-02
     13379      13410      1   0.070469  -0.460790     2.73568e-01     1.08078e-01
     13378      13384      1   0.196939   0.079659     2.93551e-01     8.67002e-02
     13378      13385      1   0.196939   0.079659     2.93551e-01     8.67002e-02
     13377      13382      1  -0.575489   0.052711     2.73568e-01     1.08078e-01
     13375      13379      1   0.910403   0.058724     2.93551e-01     7.68707e-02
     13375      13380      1   0.910403   0.058724     2.93551e-01     7.68707e-02
     13449      13452      1   0.018859   0.044953     2.60142e-01     2.09200e-02
     13449      13451      1   0.018859   0.044953     2.60142e-01     2.09200e-02
     13448      13452      1   0.018859   0.044953     2.60142e-01     2.09200e-02
     13448      13451      1   0.018859   0.044953     2.60142e-01     2.09200e-02
     13446      13450      1   0.020431  -0.136833     3.00055e-01     6.91943e-02
     13446      13449      1   0.020431   0.015716     2.60142e-01     2.09200e-02
     13446      13448      1   0.020431   0.015716     2.60142e-01     2.09200e-02
     13445      13450      1   0.020431  -0.136833     3.00055e-01     6.91943e-02
     13445      13449      1   0.020431   0.015716     2.60142e-01     2.09200e-02
     13445      13448      1   0.020431   0.015716     2.60142e-01     2.09200e-02
     13444      13452      1  -0.026954   0.044953     3.00055e-01     6.91943e-02
     13444      13451      1  -0.026954   0.044953     3.00055e-01     6.91943e-02
     13443      13447      1   0.010573  -0.002029     3.00055e-01     6.91943e-02
     13443      13446      1   0.010573   0.017026     2.60142e-01     2.09200e-02
     13443      13445      1   0.010573   0.017026     2.60142e-01     2.09200e-02
     13442      13447      1   0.010573  -0.002029     3.00055e-01     6.91943e-02
     13442      13446      1   0.010573   0.017026     2.60142e-01     2.09200e-02
     13442      13445      1   0.010573   0.017026     2.60142e-01     2.09200e-02
     13441      13449      1  -0.016521   0.015716     3.00055e-01     6.91943e-02
     13441      13448      1  -0.016521   0.015716     3.00055e-01     6.91943e-02
     13440      13444      1   0.011511  -0.022462     3.00055e-01     6.91943e-02
     13440      13442      1   0.011511   0.008811     2.60142e-01     2.09200e-02
     13440      13443      1   0.011511   0.008811     2.60142e-01     2.09200e-02
     13439      13444      1   0.011511  -0.022462     3.00055e-01     6.91943e-02
     13439      13442      1   0.011511   0.008811     2.60142e-01     2.09200e-02
     13439      13443      1   0.011511   0.008811     2.60142e-01     2.09200e-02
     13438      13446      1  -0.027812   0.017026     3.00055e-01     6.91943e-02
     13438      13445      1  -0.027812   0.017026     3.00055e-01     6.91943e-02
     13437      13441      1   0.006833  -0.013767     3.00055e-01     6.91943e-02
     13437      13439      1   0.006833   0.009592     2.60142e-01     2.09200e-02
     13437      13440      1   0.006833   0.009592     2.60142e-01     2.09200e-02
     13436      13441      1   0.006833  -0.013767     3.00055e-01     6.91943e-02
     13436      13439      1   0.006833   0.009592     2.60142e-01     2.09200e-02
     13436      13440      1   0.006833   0.009592     2.60142e-01     2.09200e-02
     13435      13442      1  -0.004386   0.008811     3.00055e-01     6.91943e-02
     13435      13443      1  -0.004386   0.008811     3.00055e-01     6.91943e-02
     13434      13438      1   0.011241  -0.023177     3.00055e-01     6.91943e-02
     13434      13436      1   0.011241   0.005694     2.60142e-01     2.09200e-02
     13434      13437      1   0.011241   0.005694     2.60142e-01     2.09200e-02
     13433      13438      1   0.011241  -0.023177     3.00055e-01     6.91943e-02
     13433      13436      1   0.011241   0.005694     2.60142e-01     2.09200e-02
     13433      13437      1   0.011241   0.005694     2.60142e-01     2.09200e-02
     13432      13439      1  -0.026451   0.009592     3.00055e-01     6.91943e-02
     13432      13440      1  -0.026451   0.009592     3.00055e-01     6.91943e-02
     13431      13435      1   0.010172  -0.003655     3.00055e-01     6.91943e-02
     13431      13434      1   0.010172   0.009367     2.60142e-01     2.09200e-02
     13431      13433      1   0.010172   0.009367     2.60142e-01     2.09200e-02
     13430      13435      1   0.010172  -0.003655     3.00055e-01     6.91943e-02
     13430      13434      1   0.010172   0.009367     2.60142e-01     2.09200e-02
     13430      13433      1   0.010172   0.009367     2.60142e-01     2.09200e-02
     13429      13436      1  -0.014653   0.005694     3.00055e-01     6.91943e-02
     13429      13437      1  -0.014653   0.005694     3.00055e-01     6.91943e-02
     13428      13432      1   0.010037  -0.022042     3.00055e-01     6.91943e-02
     13428      13430      1   0.010037   0.008477     2.60142e-01     2.09200e-02
     13428      13431      1   0.010037   0.008477     2.60142e-01     2.09200e-02
     13427      13432      1   0.010037  -0.022042     3.00055e-01     6.91943e-02
     13427      13430      1   0.010037   0.008477     2.60142e-01     2.09200e-02
     13427      13431      1   0.010037   0.008477     2.60142e-01     2.09200e-02
     13426      13434      1  -0.021025   0.009367     3.00055e-01     6.91943e-02
     13426      13433      1  -0.021025   0.009367     3.00055e-01     6.91943e-02
     13425      13429      1   0.012677  -0.012211     3.00055e-01     6.91943e-02
     13425      13428      1   0.012677   0.008364     2.60142e-01     2.09200e-02
     13425      13427      1   0.012677   0.008364     2.60142e-01     2.09200e-02
     13424      13429      1   0.012677  -0.012211     3.00055e-01     6.91943e-02
     13424      13428      1   0.012677   0.008364     2.60142e-01     2.09200e-02
     13424      13427      1   0.012677   0.008364     2.60142e-01     2.09200e-02
     13423      13430      1  -0.031787   0.008477     3.00055e-01     6.91943e-02
     13423      13431      1  -0.031787   0.008477     3.00055e-01     6.91943e-02
     13422      13426      1   0.017208  -0.017521     3.00055e-01     6.91943e-02
     13422      13424      1   0.017208   0.010564     2.60142e-01     2.09200e-02
     13422      13425      1   0.017208   0.010564     2.60142e-01     2.09200e-02
     13421      13426      1   0.017208  -0.017521     3.00055e-01     6.91943e-02
     13421      13424      1   0.017208   0.010564     2.60142e-01     2.09200e-02
     13421      13425      1   0.017208   0.010564     2.60142e-01     2.09200e-02
     13420      13428      1  -0.028094   0.008364     3.00055e-01     6.91943e-02
     13420      13427      1  -0.028094   0.008364     3.00055e-01     6.91943e-02
     13419      13423      1   0.007531  -0.026489     3.00055e-01     6.91943e-02
     13419      13422      1   0.007531   0.014340     2.60142e-01     2.09200e-02
     13419      13421      1   0.007531   0.014340     2.60142e-01     2.09200e-02
     13418      13423      1   0.007531  -0.026489     3.00055e-01     6.91943e-02
     13418      13422      1   0.007531   0.014340     2.60142e-01     2.09200e-02
     13418      13421      1   0.007531   0.014340     2.60142e-01     2.09200e-02
     13417      13424      1   0.017463   0.010564     3.00055e-01     6.91943e-02
     13417      13425      1   0.017463   0.010564     3.00055e-01     6.91943e-02
     13416      13420      1   0.025511  -0.023412     3.00055e-01     6.91943e-02
     13416      13418      1   0.025511   0.006276     2.60142e-01     2.09200e-02
     13416      13419      1   0.025511   0.006276     2.60142e-01     2.09200e-02
     13415      13420      1   0.025511  -0.023412     3.00055e-01     6.91943e-02
     13415      13418      1   0.025511   0.006276     2.60142e-01     2.09200e-02
     13415      13419      1   0.025511   0.006276     2.60142e-01     2.09200e-02
     13414      13422      1  -0.111712   0.014340     3.00055e-01     6.91943e-02
     13414      13421      1  -0.111712   0.014340     3.00055e-01     6.91943e-02
     13413      13420      1   0.025511  -0.023412     3.00055e-01     6.91943e-02
     13413      13418      1   0.025511   0.006276     2.60142e-01     2.09200e-02
     13413      13419      1   0.025511   0.006276     2.60142e-01     2.09200e-02
     13492      13494      1   0.053944  -0.559638     2.78067e-01     9.58675e-02
     13492      13495      1   0.053944  -0.479574     2.80072e-01     8.62554e-02
     13491      13494      1   0.053944  -0.559638     2.78067e-01     9.58675e-02
     13491      13495      1   0.053944  -0.479574     2.80072e-01     8.62554e-02
     13489      13492      1   0.018859   0.044953     2.60142e-01     2.09200e-02
     13489      13491      1   0.018859   0.044953     2.60142e-01     2.09200e-02
     13489      13493      1   0.018859   0.758669     3.00055e-01     6.13495e-02
     13488      13492      1   0.018859   0.044953     2.60142e-01     2.09200e-02
     13488      13491      1   0.018859   0.044953     2.60142e-01     2.09200e-02
     13488      13493      1   0.018859   0.758669     3.00055e-01     6.13495e-02
     13486      13490      1   0.020431  -0.136833     3.00055e-01     6.91943e-02
     13486      13489      1   0.020431   0.015716     2.60142e-01     2.09200e-02
     13486      13488      1   0.020431   0.015716     2.60142e-01     2.09200e-02
     13485      13490      1   0.020431  -0.136833     3.00055e-01     6.91943e-02
     13485      13489      1   0.020431   0.015716     2.60142e-01     2.09200e-02
     13485      13488      1   0.020431   0.015716     2.60142e-01     2.09200e-02
     13484      13492      1  -0.026954   0.044953     3.00055e-01     6.91943e-02
     13484      13491      1  -0.026954   0.044953     3.00055e-01     6.91943e-02
     13483      13487      1   0.010573  -0.002029     3.00055e-01     6.91943e-02
     13483      13486      1   0.010573   0.017026     2.60142e-01     2.09200e-02
     13483      13485      1   0.010573   0.017026     2.60142e-01     2.09200e-02
     13482      13487      1   0.010573  -0.002029     3.00055e-01     6.91943e-02
     13482      13486      1   0.010573   0.017026     2.60142e-01     2.09200e-02
     13482      13485      1   0.010573   0.017026     2.60142e-01     2.09200e-02
     13481      13489      1  -0.016521   0.015716     3.00055e-01     6.91943e-02
     13481      13488      1  -0.016521   0.015716     3.00055e-01     6.91943e-02
     13480      13484      1   0.011511  -0.022462     3.00055e-01     6.91943e-02
     13480      13482      1   0.011511   0.008811     2.60142e-01     2.09200e-02
     13480      13483      1   0.011511   0.008811     2.60142e-01     2.09200e-02
     13479      13484      1   0.011511  -0.022462     3.00055e-01     6.91943e-02
     13479      13482      1   0.011511   0.008811     2.60142e-01     2.09200e-02
     13479      13483      1   0.011511   0.008811     2.60142e-01     2.09200e-02
     13478      13486      1  -0.027812   0.017026     3.00055e-01     6.91943e-02
     13478      13485      1  -0.027812   0.017026     3.00055e-01     6.91943e-02
     13477      13481      1   0.006833  -0.013767     3.00055e-01     6.91943e-02
     13477      13479      1   0.006833   0.009592     2.60142e-01     2.09200e-02
     13477      13480      1   0.006833   0.009592     2.60142e-01     2.09200e-02
     13476      13481      1   0.006833  -0.013767     3.00055e-01     6.91943e-02
     13476      13479      1   0.006833   0.009592     2.60142e-01     2.09200e-02
     13476      13480      1   0.006833   0.009592     2.60142e-01     2.09200e-02
     13475      13482      1  -0.004386   0.008811     3.00055e-01     6.91943e-02
     13475      13483      1  -0.004386   0.008811     3.00055e-01     6.91943e-02
     13474      13478      1   0.011241  -0.023177     3.00055e-01     6.91943e-02
     13474      13476      1   0.011241   0.005694     2.60142e-01     2.09200e-02
     13474      13477      1   0.011241   0.005694     2.60142e-01     2.09200e-02
     13473      13478      1   0.011241  -0.023177     3.00055e-01     6.91943e-02
     13473      13476      1   0.011241   0.005694     2.60142e-01     2.09200e-02
     13473      13477      1   0.011241   0.005694     2.60142e-01     2.09200e-02
     13472      13479      1  -0.026451   0.009592     3.00055e-01     6.91943e-02
     13472      13480      1  -0.026451   0.009592     3.00055e-01     6.91943e-02
     13471      13475      1   0.010172  -0.003655     3.00055e-01     6.91943e-02
     13471      13474      1   0.010172   0.009367     2.60142e-01     2.09200e-02
     13471      13473      1   0.010172   0.009367     2.60142e-01     2.09200e-02
     13470      13475      1   0.010172  -0.003655     3.00055e-01     6.91943e-02
     13470      13474      1   0.010172   0.009367     2.60142e-01     2.09200e-02
     13470      13473      1   0.010172   0.009367     2.60142e-01     2.09200e-02
     13469      13476      1  -0.014653   0.005694     3.00055e-01     6.91943e-02
     13469      13477      1  -0.014653   0.005694     3.00055e-01     6.91943e-02
     13468      13472      1   0.010037  -0.022042     3.00055e-01     6.91943e-02
     13468      13470      1   0.010037   0.008477     2.60142e-01     2.09200e-02
     13468      13471      1   0.010037   0.008477     2.60142e-01     2.09200e-02
     13467      13472      1   0.010037  -0.022042     3.00055e-01     6.91943e-02
     13467      13470      1   0.010037   0.008477     2.60142e-01     2.09200e-02
     13467      13471      1   0.010037   0.008477     2.60142e-01     2.09200e-02
     13466      13474      1  -0.021025   0.009367     3.00055e-01     6.91943e-02
     13466      13473      1  -0.021025   0.009367     3.00055e-01     6.91943e-02
     13465      13469      1   0.012677  -0.012211     3.00055e-01     6.91943e-02
     13465      13468      1   0.012677   0.008364     2.60142e-01     2.09200e-02
     13465      13467      1   0.012677   0.008364     2.60142e-01     2.09200e-02
     13464      13469      1   0.012677  -0.012211     3.00055e-01     6.91943e-02
     13464      13468      1   0.012677   0.008364     2.60142e-01     2.09200e-02
     13464      13467      1   0.012677   0.008364     2.60142e-01     2.09200e-02
     13463      13470      1  -0.031787   0.008477     3.00055e-01     6.91943e-02
     13463      13471      1  -0.031787   0.008477     3.00055e-01     6.91943e-02
     13462      13466      1   0.017208  -0.017521     3.00055e-01     6.91943e-02
     13462      13464      1   0.017208   0.010564     2.60142e-01     2.09200e-02
     13462      13465      1   0.017208   0.010564     2.60142e-01     2.09200e-02
     13461      13466      1   0.017208  -0.017521     3.00055e-01     6.91943e-02
     13461      13464      1   0.017208   0.010564     2.60142e-01     2.09200e-02
     13461      13465      1   0.017208   0.010564     2.60142e-01     2.09200e-02
     13460      13468      1  -0.028094   0.008364     3.00055e-01     6.91943e-02
     13460      13467      1  -0.028094   0.008364     3.00055e-01     6.91943e-02
     13459      13463      1   0.007531  -0.026489     3.00055e-01     6.91943e-02
     13459      13462      1   0.007531   0.014340     2.60142e-01     2.09200e-02
     13459      13461      1   0.007531   0.014340     2.60142e-01     2.09200e-02
     13458      13463      1   0.007531  -0.026489     3.00055e-01     6.91943e-02
     13458      13462      1   0.007531   0.014340     2.60142e-01     2.09200e-02
     13458      13461      1   0.007531   0.014340     2.60142e-01     2.09200e-02
     13457      13464      1   0.017463   0.010564     3.00055e-01     6.91943e-02
     13457      13465      1   0.017463   0.010564     3.00055e-01     6.91943e-02
     13456      13460      1   0.025511  -0.023412     3.00055e-01     6.91943e-02
     13456      13458      1   0.025511   0.006276     2.60142e-01     2.09200e-02
     13456      13459      1   0.025511   0.006276     2.60142e-01     2.09200e-02
     13455      13460      1   0.025511  -0.023412     3.00055e-01     6.91943e-02
     13455      13458      1   0.025511   0.006276     2.60142e-01     2.09200e-02
     13455      13459      1   0.025511   0.006276     2.60142e-01     2.09200e-02
     13454      13462      1  -0.111712   0.014340     3.00055e-01     6.91943e-02
     13454      13461      1  -0.111712   0.014340     3.00055e-01     6.91943e-02
     13453      13460      1   0.025511  -0.023412     3.00055e-01     6.91943e-02
     13453      13458      1   0.025511   0.006276     2.60142e-01     2.09200e-02
     13453      13459      1   0.025511   0.006276     2.60142e-01     2.09200e-02
     13530      13570      1  -0.673755   0.044953     2.78067e-01     9.58675e-02
     13530      13569      1  -0.673755   0.044953     2.78067e-01     9.58675e-02
     13529      13567      1   0.897613   0.015716     3.00055e-01     6.13495e-02
     13529      13566      1   0.897613   0.015716     3.00055e-01     6.13495e-02
     13528      13570      1  -0.552948   0.044953     2.80072e-01     8.62554e-02
     13528      13569      1  -0.552948   0.044953     2.80072e-01     8.62554e-02
     13521      13522      1   0.172230  -0.282478     2.67982e-01     8.67002e-02
     13520      13522      1   0.172230  -0.282478     2.67982e-01     8.67002e-02
     13519      13522      1   0.172230  -0.282478     2.67982e-01     8.67002e-02
     13518      13523      1  -0.338973   0.143525     2.67982e-01     8.67002e-02
     13518      13524      1  -0.338973   0.143525     2.67982e-01     8.67002e-02
     13518      13525      1  -0.338973   0.143525     2.67982e-01     8.67002e-02
     13517      13518      1   0.172230  -0.282478     2.67982e-01     8.67002e-02
     13517      13522      1   0.172230  -0.282478     2.67982e-01     8.67002e-02
     13516      13518      1   0.172230  -0.282478     2.67982e-01     8.67002e-02
     13516      13522      1   0.172230  -0.282478     2.67982e-01     8.67002e-02
     13515      13518      1   0.172230  -0.282478     2.67982e-01     8.67002e-02
     13515      13522      1   0.172230  -0.282478     2.67982e-01     8.67002e-02
     13514      13519      1  -0.338973   0.143525     2.67982e-01     8.67002e-02
     13514      13520      1  -0.338973   0.143525     2.67982e-01     8.67002e-02
     13514      13521      1  -0.338973   0.143525     2.67982e-01     8.67002e-02
     13514      13523      1  -0.338973   0.143525     2.67982e-01     8.67002e-02
     13514      13524      1  -0.338973   0.143525     2.67982e-01     8.67002e-02
     13514      13525      1  -0.338973   0.143525     2.67982e-01     8.67002e-02
     13512      13514      1   0.136415  -0.282478     2.67982e-01     8.67002e-02
     13512      13518      1   0.136415  -0.282478     2.67982e-01     8.67002e-02
     13512      13522      1   0.136415  -0.282478     2.67982e-01     8.67002e-02
     13511      13514      1   0.136415  -0.282478     2.67982e-01     8.67002e-02
     13511      13518      1   0.136415  -0.282478     2.67982e-01     8.67002e-02
     13511      13522      1   0.136415  -0.282478     2.67982e-01     8.67002e-02
     13510      13515      1  -0.170824   0.143525     2.67982e-01     8.67002e-02
     13510      13516      1  -0.170824   0.143525     2.67982e-01     8.67002e-02
     13510      13517      1  -0.170824   0.143525     2.67982e-01     8.67002e-02
     13510      13519      1  -0.170824   0.143525     2.67982e-01     8.67002e-02
     13510      13520      1  -0.170824   0.143525     2.67982e-01     8.67002e-02
     13510      13521      1  -0.170824   0.143525     2.67982e-01     8.67002e-02
     13510      13523      1  -0.170824   0.143525     2.67982e-01     8.67002e-02
     13510      13524      1  -0.170824   0.143525     2.67982e-01     8.67002e-02
     13510      13525      1  -0.170824   0.143525     2.67982e-01     8.67002e-02
     13509      13511      1   0.078534   0.113679     2.21567e-01     3.28444e-02
     13509      13512      1   0.078534   0.113679     2.21567e-01     3.28444e-02
     13509      13513      1   0.078534   0.204385     2.86068e-01     1.08078e-01
     13508      13511      1   0.078534   0.113679     2.21567e-01     3.28444e-02
     13508      13512      1   0.078534   0.113679     2.21567e-01     3.28444e-02
     13508      13513      1   0.078534   0.204385     2.86068e-01     1.08078e-01
     13506      13511      1  -0.508176   0.113679     2.47999e-01     1.08078e-01
     13506      13512      1  -0.508176   0.113679     2.47999e-01     1.08078e-01
     13505      13508      1   1.339721   0.065445     3.10656e-01     1.17227e-01
     13505      13509      1   1.339721   0.065445     3.10656e-01     1.17227e-01
     13503      13528      1   0.095591  -0.460790     2.73568e-01     1.08078e-01
     13503      13505      1   0.095591   1.116434     3.10656e-01     1.17227e-01
     13502      13528      1   0.095591  -0.460790     2.73568e-01     1.08078e-01
     13502      13505      1   0.095591   1.116434     3.10656e-01     1.17227e-01
     13500      13502      1   0.063253   0.079659     2.47135e-01     3.28444e-02
     13500      13503      1   0.063253   0.079659     2.47135e-01     3.28444e-02
     13500      13504      1   0.063253  -0.424567     2.73568e-01     1.08078e-01
     13500      13529      1   0.063253   0.748011     2.93551e-01     7.68707e-02
     13498      13500      1   0.070469   0.052711     2.47135e-01     3.28444e-02
     13498      13501      1   0.070469   0.014549     2.93551e-01     8.67002e-02
     13498      13528      1   0.070469  -0.460790     2.73568e-01     1.08078e-01
     13497      13500      1   0.070469   0.052711     2.47135e-01     3.28444e-02
     13497      13501      1   0.070469   0.014549     2.93551e-01     8.67002e-02
     13497      13528      1   0.070469  -0.460790     2.73568e-01     1.08078e-01
     13496      13502      1   0.196939   0.079659     2.93551e-01     8.67002e-02
     13496      13503      1   0.196939   0.079659     2.93551e-01     8.67002e-02
     13495      13500      1  -0.575489   0.052711     2.73568e-01     1.08078e-01
     13493      13497      1   0.910403   0.058724     2.93551e-01     7.68707e-02
     13493      13498      1   0.910403   0.058724     2.93551e-01     7.68707e-02
     13567      13570      1   0.018859   0.044953     2.60142e-01     2.09200e-02
     13567      13569      1   0.018859   0.044953     2.60142e-01     2.09200e-02
     13566      13570      1   0.018859   0.044953     2.60142e-01     2.09200e-02
     13566      13569      1   0.018859   0.044953     2.60142e-01     2.09200e-02
     13564      13568      1   0.020431  -0.136833     3.00055e-01     6.91943e-02
     13564      13567      1   0.020431   0.015716     2.60142e-01     2.09200e-02
     13564      13566      1   0.020431   0.015716     2.60142e-01     2.09200e-02
     13563      13568      1   0.020431  -0.136833     3.00055e-01     6.91943e-02
     13563      13567      1   0.020431   0.015716     2.60142e-01     2.09200e-02
     13563      13566      1   0.020431   0.015716     2.60142e-01     2.09200e-02
     13562      13570      1  -0.026954   0.044953     3.00055e-01     6.91943e-02
     13562      13569      1  -0.026954   0.044953     3.00055e-01     6.91943e-02
     13561      13565      1   0.010573  -0.002029     3.00055e-01     6.91943e-02
     13561      13564      1   0.010573   0.017026     2.60142e-01     2.09200e-02
     13561      13563      1   0.010573   0.017026     2.60142e-01     2.09200e-02
     13560      13565      1   0.010573  -0.002029     3.00055e-01     6.91943e-02
     13560      13564      1   0.010573   0.017026     2.60142e-01     2.09200e-02
     13560      13563      1   0.010573   0.017026     2.60142e-01     2.09200e-02
     13559      13567      1  -0.016521   0.015716     3.00055e-01     6.91943e-02
     13559      13566      1  -0.016521   0.015716     3.00055e-01     6.91943e-02
     13558      13562      1   0.011511  -0.022462     3.00055e-01     6.91943e-02
     13558      13560      1   0.011511   0.008811     2.60142e-01     2.09200e-02
     13558      13561      1   0.011511   0.008811     2.60142e-01     2.09200e-02
     13557      13562      1   0.011511  -0.022462     3.00055e-01     6.91943e-02
     13557      13560      1   0.011511   0.008811     2.60142e-01     2.09200e-02
     13557      13561      1   0.011511   0.008811     2.60142e-01     2.09200e-02
     13556      13564      1  -0.027812   0.017026     3.00055e-01     6.91943e-02
     13556      13563      1  -0.027812   0.017026     3.00055e-01     6.91943e-02
     13555      13559      1   0.006833  -0.013767     3.00055e-01     6.91943e-02
     13555      13557      1   0.006833   0.009592     2.60142e-01     2.09200e-02
     13555      13558      1   0.006833   0.009592     2.60142e-01     2.09200e-02
     13554      13559      1   0.006833  -0.013767     3.00055e-01     6.91943e-02
     13554      13557      1   0.006833   0.009592     2.60142e-01     2.09200e-02
     13554      13558      1   0.006833   0.009592     2.60142e-01     2.09200e-02
     13553      13560      1  -0.004386   0.008811     3.00055e-01     6.91943e-02
     13553      13561      1  -0.004386   0.008811     3.00055e-01     6.91943e-02
     13552      13556      1   0.011241  -0.023177     3.00055e-01     6.91943e-02
     13552      13554      1   0.011241   0.005694     2.60142e-01     2.09200e-02
     13552      13555      1   0.011241   0.005694     2.60142e-01     2.09200e-02
     13551      13556      1   0.011241  -0.023177     3.00055e-01     6.91943e-02
     13551      13554      1   0.011241   0.005694     2.60142e-01     2.09200e-02
     13551      13555      1   0.011241   0.005694     2.60142e-01     2.09200e-02
     13550      13557      1  -0.026451   0.009592     3.00055e-01     6.91943e-02
     13550      13558      1  -0.026451   0.009592     3.00055e-01     6.91943e-02
     13549      13553      1   0.010172  -0.003655     3.00055e-01     6.91943e-02
     13549      13552      1   0.010172   0.009367     2.60142e-01     2.09200e-02
     13549      13551      1   0.010172   0.009367     2.60142e-01     2.09200e-02
     13548      13553      1   0.010172  -0.003655     3.00055e-01     6.91943e-02
     13548      13552      1   0.010172   0.009367     2.60142e-01     2.09200e-02
     13548      13551      1   0.010172   0.009367     2.60142e-01     2.09200e-02
     13547      13554      1  -0.014653   0.005694     3.00055e-01     6.91943e-02
     13547      13555      1  -0.014653   0.005694     3.00055e-01     6.91943e-02
     13546      13550      1   0.010037  -0.022042     3.00055e-01     6.91943e-02
     13546      13548      1   0.010037   0.008477     2.60142e-01     2.09200e-02
     13546      13549      1   0.010037   0.008477     2.60142e-01     2.09200e-02
     13545      13550      1   0.010037  -0.022042     3.00055e-01     6.91943e-02
     13545      13548      1   0.010037   0.008477     2.60142e-01     2.09200e-02
     13545      13549      1   0.010037   0.008477     2.60142e-01     2.09200e-02
     13544      13552      1  -0.021025   0.009367     3.00055e-01     6.91943e-02
     13544      13551      1  -0.021025   0.009367     3.00055e-01     6.91943e-02
     13543      13547      1   0.012677  -0.012211     3.00055e-01     6.91943e-02
     13543      13546      1   0.012677   0.008364     2.60142e-01     2.09200e-02
     13543      13545      1   0.012677   0.008364     2.60142e-01     2.09200e-02
     13542      13547      1   0.012677  -0.012211     3.00055e-01     6.91943e-02
     13542      13546      1   0.012677   0.008364     2.60142e-01     2.09200e-02
     13542      13545      1   0.012677   0.008364     2.60142e-01     2.09200e-02
     13541      13548      1  -0.031787   0.008477     3.00055e-01     6.91943e-02
     13541      13549      1  -0.031787   0.008477     3.00055e-01     6.91943e-02
     13540      13544      1   0.017208  -0.017521     3.00055e-01     6.91943e-02
     13540      13542      1   0.017208   0.010564     2.60142e-01     2.09200e-02
     13540      13543      1   0.017208   0.010564     2.60142e-01     2.09200e-02
     13539      13544      1   0.017208  -0.017521     3.00055e-01     6.91943e-02
     13539      13542      1   0.017208   0.010564     2.60142e-01     2.09200e-02
     13539      13543      1   0.017208   0.010564     2.60142e-01     2.09200e-02
     13538      13546      1  -0.028094   0.008364     3.00055e-01     6.91943e-02
     13538      13545      1  -0.028094   0.008364     3.00055e-01     6.91943e-02
     13537      13541      1   0.007531  -0.026489     3.00055e-01     6.91943e-02
     13537      13540      1   0.007531   0.014340     2.60142e-01     2.09200e-02
     13537      13539      1   0.007531   0.014340     2.60142e-01     2.09200e-02
     13536      13541      1   0.007531  -0.026489     3.00055e-01     6.91943e-02
     13536      13540      1   0.007531   0.014340     2.60142e-01     2.09200e-02
     13536      13539      1   0.007531   0.014340     2.60142e-01     2.09200e-02
     13535      13542      1   0.017463   0.010564     3.00055e-01     6.91943e-02
     13535      13543      1   0.017463   0.010564     3.00055e-01     6.91943e-02
     13534      13538      1   0.025511  -0.023412     3.00055e-01     6.91943e-02
     13534      13536      1   0.025511   0.006276     2.60142e-01     2.09200e-02
     13534      13537      1   0.025511   0.006276     2.60142e-01     2.09200e-02
     13533      13538      1   0.025511  -0.023412     3.00055e-01     6.91943e-02
     13533      13536      1   0.025511   0.006276     2.60142e-01     2.09200e-02
     13533      13537      1   0.025511   0.006276     2.60142e-01     2.09200e-02
     13532      13540      1  -0.111712   0.014340     3.00055e-01     6.91943e-02
     13532      13539      1  -0.111712   0.014340     3.00055e-01     6.91943e-02
     13531      13538      1   0.025511  -0.023412     3.00055e-01     6.91943e-02
     13531      13536      1   0.025511   0.006276     2.60142e-01     2.09200e-02
     13531      13537      1   0.025511   0.006276     2.60142e-01     2.09200e-02
     13610      13612      1   0.053944  -0.559638     2.78067e-01     9.58675e-02
     13610      13613      1   0.053944  -0.479574     2.80072e-01     8.62554e-02
     13609      13612      1   0.053944  -0.559638     2.78067e-01     9.58675e-02
     13609      13613      1   0.053944  -0.479574     2.80072e-01     8.62554e-02
     13607      13610      1   0.018859   0.044953     2.60142e-01     2.09200e-02
     13607      13609      1   0.018859   0.044953     2.60142e-01     2.09200e-02
     13607      13611      1   0.018859   0.758669     3.00055e-01     6.13495e-02
     13606      13610      1   0.018859   0.044953     2.60142e-01     2.09200e-02
     13606      13609      1   0.018859   0.044953     2.60142e-01     2.09200e-02
     13606      13611      1   0.018859   0.758669     3.00055e-01     6.13495e-02
     13604      13608      1   0.020431  -0.136833     3.00055e-01     6.91943e-02
     13604      13607      1   0.020431   0.015716     2.60142e-01     2.09200e-02
     13604      13606      1   0.020431   0.015716     2.60142e-01     2.09200e-02
     13603      13608      1   0.020431  -0.136833     3.00055e-01     6.91943e-02
     13603      13607      1   0.020431   0.015716     2.60142e-01     2.09200e-02
     13603      13606      1   0.020431   0.015716     2.60142e-01     2.09200e-02
     13602      13610      1  -0.026954   0.044953     3.00055e-01     6.91943e-02
     13602      13609      1  -0.026954   0.044953     3.00055e-01     6.91943e-02
     13601      13605      1   0.010573  -0.002029     3.00055e-01     6.91943e-02
     13601      13604      1   0.010573   0.017026     2.60142e-01     2.09200e-02
     13601      13603      1   0.010573   0.017026     2.60142e-01     2.09200e-02
     13600      13605      1   0.010573  -0.002029     3.00055e-01     6.91943e-02
     13600      13604      1   0.010573   0.017026     2.60142e-01     2.09200e-02
     13600      13603      1   0.010573   0.017026     2.60142e-01     2.09200e-02
     13599      13607      1  -0.016521   0.015716     3.00055e-01     6.91943e-02
     13599      13606      1  -0.016521   0.015716     3.00055e-01     6.91943e-02
     13598      13602      1   0.011511  -0.022462     3.00055e-01     6.91943e-02
     13598      13600      1   0.011511   0.008811     2.60142e-01     2.09200e-02
     13598      13601      1   0.011511   0.008811     2.60142e-01     2.09200e-02
     13597      13602      1   0.011511  -0.022462     3.00055e-01     6.91943e-02
     13597      13600      1   0.011511   0.008811     2.60142e-01     2.09200e-02
     13597      13601      1   0.011511   0.008811     2.60142e-01     2.09200e-02
     13596      13604      1  -0.027812   0.017026     3.00055e-01     6.91943e-02
     13596      13603      1  -0.027812   0.017026     3.00055e-01     6.91943e-02
     13595      13599      1   0.006833  -0.013767     3.00055e-01     6.91943e-02
     13595      13597      1   0.006833   0.009592     2.60142e-01     2.09200e-02
     13595      13598      1   0.006833   0.009592     2.60142e-01     2.09200e-02
     13594      13599      1   0.006833  -0.013767     3.00055e-01     6.91943e-02
     13594      13597      1   0.006833   0.009592     2.60142e-01     2.09200e-02
     13594      13598      1   0.006833   0.009592     2.60142e-01     2.09200e-02
     13593      13600      1  -0.004386   0.008811     3.00055e-01     6.91943e-02
     13593      13601      1  -0.004386   0.008811     3.00055e-01     6.91943e-02
     13592      13596      1   0.011241  -0.023177     3.00055e-01     6.91943e-02
     13592      13594      1   0.011241   0.005694     2.60142e-01     2.09200e-02
     13592      13595      1   0.011241   0.005694     2.60142e-01     2.09200e-02
     13591      13596      1   0.011241  -0.023177     3.00055e-01     6.91943e-02
     13591      13594      1   0.011241   0.005694     2.60142e-01     2.09200e-02
     13591      13595      1   0.011241   0.005694     2.60142e-01     2.09200e-02
     13590      13597      1  -0.026451   0.009592     3.00055e-01     6.91943e-02
     13590      13598      1  -0.026451   0.009592     3.00055e-01     6.91943e-02
     13589      13593      1   0.010172  -0.003655     3.00055e-01     6.91943e-02
     13589      13592      1   0.010172   0.009367     2.60142e-01     2.09200e-02
     13589      13591      1   0.010172   0.009367     2.60142e-01     2.09200e-02
     13588      13593      1   0.010172  -0.003655     3.00055e-01     6.91943e-02
     13588      13592      1   0.010172   0.009367     2.60142e-01     2.09200e-02
     13588      13591      1   0.010172   0.009367     2.60142e-01     2.09200e-02
     13587      13594      1  -0.014653   0.005694     3.00055e-01     6.91943e-02
     13587      13595      1  -0.014653   0.005694     3.00055e-01     6.91943e-02
     13586      13590      1   0.010037  -0.022042     3.00055e-01     6.91943e-02
     13586      13588      1   0.010037   0.008477     2.60142e-01     2.09200e-02
     13586      13589      1   0.010037   0.008477     2.60142e-01     2.09200e-02
     13585      13590      1   0.010037  -0.022042     3.00055e-01     6.91943e-02
     13585      13588      1   0.010037   0.008477     2.60142e-01     2.09200e-02
     13585      13589      1   0.010037   0.008477     2.60142e-01     2.09200e-02
     13584      13592      1  -0.021025   0.009367     3.00055e-01     6.91943e-02
     13584      13591      1  -0.021025   0.009367     3.00055e-01     6.91943e-02
     13583      13587      1   0.012677  -0.012211     3.00055e-01     6.91943e-02
     13583      13586      1   0.012677   0.008364     2.60142e-01     2.09200e-02
     13583      13585      1   0.012677   0.008364     2.60142e-01     2.09200e-02
     13582      13587      1   0.012677  -0.012211     3.00055e-01     6.91943e-02
     13582      13586      1   0.012677   0.008364     2.60142e-01     2.09200e-02
     13582      13585      1   0.012677   0.008364     2.60142e-01     2.09200e-02
     13581      13588      1  -0.031787   0.008477     3.00055e-01     6.91943e-02
     13581      13589      1  -0.031787   0.008477     3.00055e-01     6.91943e-02
     13580      13584      1   0.017208  -0.017521     3.00055e-01     6.91943e-02
     13580      13582      1   0.017208   0.010564     2.60142e-01     2.09200e-02
     13580      13583      1   0.017208   0.010564     2.60142e-01     2.09200e-02
     13579      13584      1   0.017208  -0.017521     3.00055e-01     6.91943e-02
     13579      13582      1   0.017208   0.010564     2.60142e-01     2.09200e-02
     13579      13583      1   0.017208   0.010564     2.60142e-01     2.09200e-02
     13578      13586      1  -0.028094   0.008364     3.00055e-01     6.91943e-02
     13578      13585      1  -0.028094   0.008364     3.00055e-01     6.91943e-02
     13577      13581      1   0.007531  -0.026489     3.00055e-01     6.91943e-02
     13577      13580      1   0.007531   0.014340     2.60142e-01     2.09200e-02
     13577      13579      1   0.007531   0.014340     2.60142e-01     2.09200e-02
     13576      13581      1   0.007531  -0.026489     3.00055e-01     6.91943e-02
     13576      13580      1   0.007531   0.014340     2.60142e-01     2.09200e-02
     13576      13579      1   0.007531   0.014340     2.60142e-01     2.09200e-02
     13575      13582      1   0.017463   0.010564     3.00055e-01     6.91943e-02
     13575      13583      1   0.017463   0.010564     3.00055e-01     6.91943e-02
     13574      13578      1   0.025511  -0.023412     3.00055e-01     6.91943e-02
     13574      13576      1   0.025511   0.006276     2.60142e-01     2.09200e-02
     13574      13577      1   0.025511   0.006276     2.60142e-01     2.09200e-02
     13573      13578      1   0.025511  -0.023412     3.00055e-01     6.91943e-02
     13573      13576      1   0.025511   0.006276     2.60142e-01     2.09200e-02
     13573      13577      1   0.025511   0.006276     2.60142e-01     2.09200e-02
     13572      13580      1  -0.111712   0.014340     3.00055e-01     6.91943e-02
     13572      13579      1  -0.111712   0.014340     3.00055e-01     6.91943e-02
     13571      13578      1   0.025511  -0.023412     3.00055e-01     6.91943e-02
     13571      13576      1   0.025511   0.006276     2.60142e-01     2.09200e-02
     13571      13577      1   0.025511   0.006276     2.60142e-01     2.09200e-02
     13648      13688      1  -0.673755   0.044953     2.78067e-01     9.58675e-02
     13648      13687      1  -0.673755   0.044953     2.78067e-01     9.58675e-02
     13647      13685      1   0.897613   0.015716     3.00055e-01     6.13495e-02
     13647      13684      1   0.897613   0.015716     3.00055e-01     6.13495e-02
     13646      13688      1  -0.552948   0.044953     2.80072e-01     8.62554e-02
     13646      13687      1  -0.552948   0.044953     2.80072e-01     8.62554e-02
     13639      13640      1   0.172230  -0.282478     2.67982e-01     8.67002e-02
     13638      13640      1   0.172230  -0.282478     2.67982e-01     8.67002e-02
     13637      13640      1   0.172230  -0.282478     2.67982e-01     8.67002e-02
     13636      13641      1  -0.338973   0.143525     2.67982e-01     8.67002e-02
     13636      13642      1  -0.338973   0.143525     2.67982e-01     8.67002e-02
     13636      13643      1  -0.338973   0.143525     2.67982e-01     8.67002e-02
     13635      13636      1   0.172230  -0.282478     2.67982e-01     8.67002e-02
     13635      13640      1   0.172230  -0.282478     2.67982e-01     8.67002e-02
     13634      13636      1   0.172230  -0.282478     2.67982e-01     8.67002e-02
     13634      13640      1   0.172230  -0.282478     2.67982e-01     8.67002e-02
     13633      13636      1   0.172230  -0.282478     2.67982e-01     8.67002e-02
     13633      13640      1   0.172230  -0.282478     2.67982e-01     8.67002e-02
     13632      13637      1  -0.338973   0.143525     2.67982e-01     8.67002e-02
     13632      13638      1  -0.338973   0.143525     2.67982e-01     8.67002e-02
     13632      13639      1  -0.338973   0.143525     2.67982e-01     8.67002e-02
     13632      13641      1  -0.338973   0.143525     2.67982e-01     8.67002e-02
     13632      13642      1  -0.338973   0.143525     2.67982e-01     8.67002e-02
     13632      13643      1  -0.338973   0.143525     2.67982e-01     8.67002e-02
     13630      13632      1   0.136415  -0.282478     2.67982e-01     8.67002e-02
     13630      13636      1   0.136415  -0.282478     2.67982e-01     8.67002e-02
     13630      13640      1   0.136415  -0.282478     2.67982e-01     8.67002e-02
     13629      13632      1   0.136415  -0.282478     2.67982e-01     8.67002e-02
     13629      13636      1   0.136415  -0.282478     2.67982e-01     8.67002e-02
     13629      13640      1   0.136415  -0.282478     2.67982e-01     8.67002e-02
     13628      13633      1  -0.170824   0.143525     2.67982e-01     8.67002e-02
     13628      13634      1  -0.170824   0.143525     2.67982e-01     8.67002e-02
     13628      13635      1  -0.170824   0.143525     2.67982e-01     8.67002e-02
     13628      13637      1  -0.170824   0.143525     2.67982e-01     8.67002e-02
     13628      13638      1  -0.170824   0.143525     2.67982e-01     8.67002e-02
     13628      13639      1  -0.170824   0.143525     2.67982e-01     8.67002e-02
     13628      13641      1  -0.170824   0.143525     2.67982e-01     8.67002e-02
     13628      13642      1  -0.170824   0.143525     2.67982e-01     8.67002e-02
     13628      13643      1  -0.170824   0.143525     2.67982e-01     8.67002e-02
     13627      13629      1   0.078534   0.113679     2.21567e-01     3.28444e-02
     13627      13630      1   0.078534   0.113679     2.21567e-01     3.28444e-02
     13627      13631      1   0.078534   0.204385     2.86068e-01     1.08078e-01
     13626      13629      1   0.078534   0.113679     2.21567e-01     3.28444e-02
     13626      13630      1   0.078534   0.113679     2.21567e-01     3.28444e-02
     13626      13631      1   0.078534   0.204385     2.86068e-01     1.08078e-01
     13624      13629      1  -0.508176   0.113679     2.47999e-01     1.08078e-01
     13624      13630      1  -0.508176   0.113679     2.47999e-01     1.08078e-01
     13623      13626      1   1.339721   0.065445     3.10656e-01     1.17227e-01
     13623      13627      1   1.339721   0.065445     3.10656e-01     1.17227e-01
     13621      13646      1   0.095591  -0.460790     2.73568e-01     1.08078e-01
     13621      13623      1   0.095591   1.116434     3.10656e-01     1.17227e-01
     13620      13646      1   0.095591  -0.460790     2.73568e-01     1.08078e-01
     13620      13623      1   0.095591   1.116434     3.10656e-01     1.17227e-01
     13618      13620      1   0.063253   0.079659     2.47135e-01     3.28444e-02
     13618      13621      1   0.063253   0.079659     2.47135e-01     3.28444e-02
     13618      13622      1   0.063253  -0.424567     2.73568e-01     1.08078e-01
     13618      13647      1   0.063253   0.748011     2.93551e-01     7.68707e-02
     13616      13618      1   0.070469   0.052711     2.47135e-01     3.28444e-02
     13616      13619      1   0.070469   0.014549     2.93551e-01     8.67002e-02
     13616      13646      1   0.070469  -0.460790     2.73568e-01     1.08078e-01
     13615      13618      1   0.070469   0.052711     2.47135e-01     3.28444e-02
     13615      13619      1   0.070469   0.014549     2.93551e-01     8.67002e-02
     13615      13646      1   0.070469  -0.460790     2.73568e-01     1.08078e-01
     13614      13620      1   0.196939   0.079659     2.93551e-01     8.67002e-02
     13614      13621      1   0.196939   0.079659     2.93551e-01     8.67002e-02
     13613      13618      1  -0.575489   0.052711     2.73568e-01     1.08078e-01
     13611      13615      1   0.910403   0.058724     2.93551e-01     7.68707e-02
     13611      13616      1   0.910403   0.058724     2.93551e-01     7.68707e-02
     13685      13688      1   0.018859   0.044953     2.60142e-01     2.09200e-02
     13685      13687      1   0.018859   0.044953     2.60142e-01     2.09200e-02
     13684      13688      1   0.018859   0.044953     2.60142e-01     2.09200e-02
     13684      13687      1   0.018859   0.044953     2.60142e-01     2.09200e-02
     13682      13686      1   0.020431  -0.136833     3.00055e-01     6.91943e-02
     13682      13685      1   0.020431   0.015716     2.60142e-01     2.09200e-02
     13682      13684      1   0.020431   0.015716     2.60142e-01     2.09200e-02
     13681      13686      1   0.020431  -0.136833     3.00055e-01     6.91943e-02
     13681      13685      1   0.020431   0.015716     2.60142e-01     2.09200e-02
     13681      13684      1   0.020431   0.015716     2.60142e-01     2.09200e-02
     13680      13688      1  -0.026954   0.044953     3.00055e-01     6.91943e-02
     13680      13687      1  -0.026954   0.044953     3.00055e-01     6.91943e-02
     13679      13683      1   0.010573  -0.002029     3.00055e-01     6.91943e-02
     13679      13682      1   0.010573   0.017026     2.60142e-01     2.09200e-02
     13679      13681      1   0.010573   0.017026     2.60142e-01     2.09200e-02
     13678      13683      1   0.010573  -0.002029     3.00055e-01     6.91943e-02
     13678      13682      1   0.010573   0.017026     2.60142e-01     2.09200e-02
     13678      13681      1   0.010573   0.017026     2.60142e-01     2.09200e-02
     13677      13685      1  -0.016521   0.015716     3.00055e-01     6.91943e-02
     13677      13684      1  -0.016521   0.015716     3.00055e-01     6.91943e-02
     13676      13680      1   0.011511  -0.022462     3.00055e-01     6.91943e-02
     13676      13678      1   0.011511   0.008811     2.60142e-01     2.09200e-02
     13676      13679      1   0.011511   0.008811     2.60142e-01     2.09200e-02
     13675      13680      1   0.011511  -0.022462     3.00055e-01     6.91943e-02
     13675      13678      1   0.011511   0.008811     2.60142e-01     2.09200e-02
     13675      13679      1   0.011511   0.008811     2.60142e-01     2.09200e-02
     13674      13682      1  -0.027812   0.017026     3.00055e-01     6.91943e-02
     13674      13681      1  -0.027812   0.017026     3.00055e-01     6.91943e-02
     13673      13677      1   0.006833  -0.013767     3.00055e-01     6.91943e-02
     13673      13675      1   0.006833   0.009592     2.60142e-01     2.09200e-02
     13673      13676      1   0.006833   0.009592     2.60142e-01     2.09200e-02
     13672      13677      1   0.006833  -0.013767     3.00055e-01     6.91943e-02
     13672      13675      1   0.006833   0.009592     2.60142e-01     2.09200e-02
     13672      13676      1   0.006833   0.009592     2.60142e-01     2.09200e-02
     13671      13678      1  -0.004386   0.008811     3.00055e-01     6.91943e-02
     13671      13679      1  -0.004386   0.008811     3.00055e-01     6.91943e-02
     13670      13674      1   0.011241  -0.023177     3.00055e-01     6.91943e-02
     13670      13672      1   0.011241   0.005694     2.60142e-01     2.09200e-02
     13670      13673      1   0.011241   0.005694     2.60142e-01     2.09200e-02
     13669      13674      1   0.011241  -0.023177     3.00055e-01     6.91943e-02
     13669      13672      1   0.011241   0.005694     2.60142e-01     2.09200e-02
     13669      13673      1   0.011241   0.005694     2.60142e-01     2.09200e-02
     13668      13675      1  -0.026451   0.009592     3.00055e-01     6.91943e-02
     13668      13676      1  -0.026451   0.009592     3.00055e-01     6.91943e-02
     13667      13671      1   0.010172  -0.003655     3.00055e-01     6.91943e-02
     13667      13670      1   0.010172   0.009367     2.60142e-01     2.09200e-02
     13667      13669      1   0.010172   0.009367     2.60142e-01     2.09200e-02
     13666      13671      1   0.010172  -0.003655     3.00055e-01     6.91943e-02
     13666      13670      1   0.010172   0.009367     2.60142e-01     2.09200e-02
     13666      13669      1   0.010172   0.009367     2.60142e-01     2.09200e-02
     13665      13672      1  -0.014653   0.005694     3.00055e-01     6.91943e-02
     13665      13673      1  -0.014653   0.005694     3.00055e-01     6.91943e-02
     13664      13668      1   0.010037  -0.022042     3.00055e-01     6.91943e-02
     13664      13666      1   0.010037   0.008477     2.60142e-01     2.09200e-02
     13664      13667      1   0.010037   0.008477     2.60142e-01     2.09200e-02
     13663      13668      1   0.010037  -0.022042     3.00055e-01     6.91943e-02
     13663      13666      1   0.010037   0.008477     2.60142e-01     2.09200e-02
     13663      13667      1   0.010037   0.008477     2.60142e-01     2.09200e-02
     13662      13670      1  -0.021025   0.009367     3.00055e-01     6.91943e-02
     13662      13669      1  -0.021025   0.009367     3.00055e-01     6.91943e-02
     13661      13665      1   0.012677  -0.012211     3.00055e-01     6.91943e-02
     13661      13664      1   0.012677   0.008364     2.60142e-01     2.09200e-02
     13661      13663      1   0.012677   0.008364     2.60142e-01     2.09200e-02
     13660      13665      1   0.012677  -0.012211     3.00055e-01     6.91943e-02
     13660      13664      1   0.012677   0.008364     2.60142e-01     2.09200e-02
     13660      13663      1   0.012677   0.008364     2.60142e-01     2.09200e-02
     13659      13666      1  -0.031787   0.008477     3.00055e-01     6.91943e-02
     13659      13667      1  -0.031787   0.008477     3.00055e-01     6.91943e-02
     13658      13662      1   0.017208  -0.017521     3.00055e-01     6.91943e-02
     13658      13660      1   0.017208   0.010564     2.60142e-01     2.09200e-02
     13658      13661      1   0.017208   0.010564     2.60142e-01     2.09200e-02
     13657      13662      1   0.017208  -0.017521     3.00055e-01     6.91943e-02
     13657      13660      1   0.017208   0.010564     2.60142e-01     2.09200e-02
     13657      13661      1   0.017208   0.010564     2.60142e-01     2.09200e-02
     13656      13664      1  -0.028094   0.008364     3.00055e-01     6.91943e-02
     13656      13663      1  -0.028094   0.008364     3.00055e-01     6.91943e-02
     13655      13659      1   0.007531  -0.026489     3.00055e-01     6.91943e-02
     13655      13658      1   0.007531   0.014340     2.60142e-01     2.09200e-02
     13655      13657      1   0.007531   0.014340     2.60142e-01     2.09200e-02
     13654      13659      1   0.007531  -0.026489     3.00055e-01     6.91943e-02
     13654      13658      1   0.007531   0.014340     2.60142e-01     2.09200e-02
     13654      13657      1   0.007531   0.014340     2.60142e-01     2.09200e-02
     13653      13660      1   0.017463   0.010564     3.00055e-01     6.91943e-02
     13653      13661      1   0.017463   0.010564     3.00055e-01     6.91943e-02
     13652      13656      1   0.025511  -0.023412     3.00055e-01     6.91943e-02
     13652      13654      1   0.025511   0.006276     2.60142e-01     2.09200e-02
     13652      13655      1   0.025511   0.006276     2.60142e-01     2.09200e-02
     13651      13656      1   0.025511  -0.023412     3.00055e-01     6.91943e-02
     13651      13654      1   0.025511   0.006276     2.60142e-01     2.09200e-02
     13651      13655      1   0.025511   0.006276     2.60142e-01     2.09200e-02
     13650      13658      1  -0.111712   0.014340     3.00055e-01     6.91943e-02
     13650      13657      1  -0.111712   0.014340     3.00055e-01     6.91943e-02
     13649      13656      1   0.025511  -0.023412     3.00055e-01     6.91943e-02
     13649      13654      1   0.025511   0.006276     2.60142e-01     2.09200e-02
     13649      13655      1   0.025511   0.006276     2.60142e-01     2.09200e-02
     13728      13730      1   0.053944  -0.559638     2.78067e-01     9.58675e-02
     13728      13731      1   0.053944  -0.479574     2.80072e-01     8.62554e-02
     13727      13730      1   0.053944  -0.559638     2.78067e-01     9.58675e-02
     13727      13731      1   0.053944  -0.479574     2.80072e-01     8.62554e-02
     13725      13728      1   0.018859   0.044953     2.60142e-01     2.09200e-02
     13725      13727      1   0.018859   0.044953     2.60142e-01     2.09200e-02
     13725      13729      1   0.018859   0.758669     3.00055e-01     6.13495e-02
     13724      13728      1   0.018859   0.044953     2.60142e-01     2.09200e-02
     13724      13727      1   0.018859   0.044953     2.60142e-01     2.09200e-02
     13724      13729      1   0.018859   0.758669     3.00055e-01     6.13495e-02
     13722      13726      1   0.020431  -0.136833     3.00055e-01     6.91943e-02
     13722      13725      1   0.020431   0.015716     2.60142e-01     2.09200e-02
     13722      13724      1   0.020431   0.015716     2.60142e-01     2.09200e-02
     13721      13726      1   0.020431  -0.136833     3.00055e-01     6.91943e-02
     13721      13725      1   0.020431   0.015716     2.60142e-01     2.09200e-02
     13721      13724      1   0.020431   0.015716     2.60142e-01     2.09200e-02
     13720      13728      1  -0.026954   0.044953     3.00055e-01     6.91943e-02
     13720      13727      1  -0.026954   0.044953     3.00055e-01     6.91943e-02
     13719      13723      1   0.010573  -0.002029     3.00055e-01     6.91943e-02
     13719      13722      1   0.010573   0.017026     2.60142e-01     2.09200e-02
     13719      13721      1   0.010573   0.017026     2.60142e-01     2.09200e-02
     13718      13723      1   0.010573  -0.002029     3.00055e-01     6.91943e-02
     13718      13722      1   0.010573   0.017026     2.60142e-01     2.09200e-02
     13718      13721      1   0.010573   0.017026     2.60142e-01     2.09200e-02
     13717      13725      1  -0.016521   0.015716     3.00055e-01     6.91943e-02
     13717      13724      1  -0.016521   0.015716     3.00055e-01     6.91943e-02
     13716      13720      1   0.011511  -0.022462     3.00055e-01     6.91943e-02
     13716      13718      1   0.011511   0.008811     2.60142e-01     2.09200e-02
     13716      13719      1   0.011511   0.008811     2.60142e-01     2.09200e-02
     13715      13720      1   0.011511  -0.022462     3.00055e-01     6.91943e-02
     13715      13718      1   0.011511   0.008811     2.60142e-01     2.09200e-02
     13715      13719      1   0.011511   0.008811     2.60142e-01     2.09200e-02
     13714      13722      1  -0.027812   0.017026     3.00055e-01     6.91943e-02
     13714      13721      1  -0.027812   0.017026     3.00055e-01     6.91943e-02
     13713      13717      1   0.006833  -0.013767     3.00055e-01     6.91943e-02
     13713      13715      1   0.006833   0.009592     2.60142e-01     2.09200e-02
     13713      13716      1   0.006833   0.009592     2.60142e-01     2.09200e-02
     13712      13717      1   0.006833  -0.013767     3.00055e-01     6.91943e-02
     13712      13715      1   0.006833   0.009592     2.60142e-01     2.09200e-02
     13712      13716      1   0.006833   0.009592     2.60142e-01     2.09200e-02
     13711      13718      1  -0.004386   0.008811     3.00055e-01     6.91943e-02
     13711      13719      1  -0.004386   0.008811     3.00055e-01     6.91943e-02
     13710      13714      1   0.011241  -0.023177     3.00055e-01     6.91943e-02
     13710      13712      1   0.011241   0.005694     2.60142e-01     2.09200e-02
     13710      13713      1   0.011241   0.005694     2.60142e-01     2.09200e-02
     13709      13714      1   0.011241  -0.023177     3.00055e-01     6.91943e-02
     13709      13712      1   0.011241   0.005694     2.60142e-01     2.09200e-02
     13709      13713      1   0.011241   0.005694     2.60142e-01     2.09200e-02
     13708      13715      1  -0.026451   0.009592     3.00055e-01     6.91943e-02
     13708      13716      1  -0.026451   0.009592     3.00055e-01     6.91943e-02
     13707      13711      1   0.010172  -0.003655     3.00055e-01     6.91943e-02
     13707      13710      1   0.010172   0.009367     2.60142e-01     2.09200e-02
     13707      13709      1   0.010172   0.009367     2.60142e-01     2.09200e-02
     13706      13711      1   0.010172  -0.003655     3.00055e-01     6.91943e-02
     13706      13710      1   0.010172   0.009367     2.60142e-01     2.09200e-02
     13706      13709      1   0.010172   0.009367     2.60142e-01     2.09200e-02
     13705      13712      1  -0.014653   0.005694     3.00055e-01     6.91943e-02
     13705      13713      1  -0.014653   0.005694     3.00055e-01     6.91943e-02
     13704      13708      1   0.010037  -0.022042     3.00055e-01     6.91943e-02
     13704      13706      1   0.010037   0.008477     2.60142e-01     2.09200e-02
     13704      13707      1   0.010037   0.008477     2.60142e-01     2.09200e-02
     13703      13708      1   0.010037  -0.022042     3.00055e-01     6.91943e-02
     13703      13706      1   0.010037   0.008477     2.60142e-01     2.09200e-02
     13703      13707      1   0.010037   0.008477     2.60142e-01     2.09200e-02
     13702      13710      1  -0.021025   0.009367     3.00055e-01     6.91943e-02
     13702      13709      1  -0.021025   0.009367     3.00055e-01     6.91943e-02
     13701      13705      1   0.012677  -0.012211     3.00055e-01     6.91943e-02
     13701      13704      1   0.012677   0.008364     2.60142e-01     2.09200e-02
     13701      13703      1   0.012677   0.008364     2.60142e-01     2.09200e-02
     13700      13705      1   0.012677  -0.012211     3.00055e-01     6.91943e-02
     13700      13704      1   0.012677   0.008364     2.60142e-01     2.09200e-02
     13700      13703      1   0.012677   0.008364     2.60142e-01     2.09200e-02
     13699      13706      1  -0.031787   0.008477     3.00055e-01     6.91943e-02
     13699      13707      1  -0.031787   0.008477     3.00055e-01     6.91943e-02
     13698      13702      1   0.017208  -0.017521     3.00055e-01     6.91943e-02
     13698      13700      1   0.017208   0.010564     2.60142e-01     2.09200e-02
     13698      13701      1   0.017208   0.010564     2.60142e-01     2.09200e-02
     13697      13702      1   0.017208  -0.017521     3.00055e-01     6.91943e-02
     13697      13700      1   0.017208   0.010564     2.60142e-01     2.09200e-02
     13697      13701      1   0.017208   0.010564     2.60142e-01     2.09200e-02
     13696      13704      1  -0.028094   0.008364     3.00055e-01     6.91943e-02
     13696      13703      1  -0.028094   0.008364     3.00055e-01     6.91943e-02
     13695      13699      1   0.007531  -0.026489     3.00055e-01     6.91943e-02
     13695      13698      1   0.007531   0.014340     2.60142e-01     2.09200e-02
     13695      13697      1   0.007531   0.014340     2.60142e-01     2.09200e-02
     13694      13699      1   0.007531  -0.026489     3.00055e-01     6.91943e-02
     13694      13698      1   0.007531   0.014340     2.60142e-01     2.09200e-02
     13694      13697      1   0.007531   0.014340     2.60142e-01     2.09200e-02
     13693      13700      1   0.017463   0.010564     3.00055e-01     6.91943e-02
     13693      13701      1   0.017463   0.010564     3.00055e-01     6.91943e-02
     13692      13696      1   0.025511  -0.023412     3.00055e-01     6.91943e-02
     13692      13694      1   0.025511   0.006276     2.60142e-01     2.09200e-02
     13692      13695      1   0.025511   0.006276     2.60142e-01     2.09200e-02
     13691      13696      1   0.025511  -0.023412     3.00055e-01     6.91943e-02
     13691      13694      1   0.025511   0.006276     2.60142e-01     2.09200e-02
     13691      13695      1   0.025511   0.006276     2.60142e-01     2.09200e-02
     13690      13698      1  -0.111712   0.014340     3.00055e-01     6.91943e-02
     13690      13697      1  -0.111712   0.014340     3.00055e-01     6.91943e-02
     13689      13696      1   0.025511  -0.023412     3.00055e-01     6.91943e-02
     13689      13694      1   0.025511   0.006276     2.60142e-01     2.09200e-02
     13689      13695      1   0.025511   0.006276     2.60142e-01     2.09200e-02
     13766      13806      1  -0.673755   0.044953     2.78067e-01     9.58675e-02
     13766      13805      1  -0.673755   0.044953     2.78067e-01     9.58675e-02
     13765      13803      1   0.897613   0.015716     3.00055e-01     6.13495e-02
     13765      13802      1   0.897613   0.015716     3.00055e-01     6.13495e-02
     13764      13806      1  -0.552948   0.044953     2.80072e-01     8.62554e-02
     13764      13805      1  -0.552948   0.044953     2.80072e-01     8.62554e-02
     13757      13758      1   0.172230  -0.282478     2.67982e-01     8.67002e-02
     13756      13758      1   0.172230  -0.282478     2.67982e-01     8.67002e-02
     13755      13758      1   0.172230  -0.282478     2.67982e-01     8.67002e-02
     13754      13759      1  -0.338973   0.143525     2.67982e-01     8.67002e-02
     13754      13760      1  -0.338973   0.143525     2.67982e-01     8.67002e-02
     13754      13761      1  -0.338973   0.143525     2.67982e-01     8.67002e-02
     13753      13754      1   0.172230  -0.282478     2.67982e-01     8.67002e-02
     13753      13758      1   0.172230  -0.282478     2.67982e-01     8.67002e-02
     13752      13754      1   0.172230  -0.282478     2.67982e-01     8.67002e-02
     13752      13758      1   0.172230  -0.282478     2.67982e-01     8.67002e-02
     13751      13754      1   0.172230  -0.282478     2.67982e-01     8.67002e-02
     13751      13758      1   0.172230  -0.282478     2.67982e-01     8.67002e-02
     13750      13755      1  -0.338973   0.143525     2.67982e-01     8.67002e-02
     13750      13756      1  -0.338973   0.143525     2.67982e-01     8.67002e-02
     13750      13757      1  -0.338973   0.143525     2.67982e-01     8.67002e-02
     13750      13759      1  -0.338973   0.143525     2.67982e-01     8.67002e-02
     13750      13760      1  -0.338973   0.143525     2.67982e-01     8.67002e-02
     13750      13761      1  -0.338973   0.143525     2.67982e-01     8.67002e-02
     13748      13750      1   0.136415  -0.282478     2.67982e-01     8.67002e-02
     13748      13754      1   0.136415  -0.282478     2.67982e-01     8.67002e-02
     13748      13758      1   0.136415  -0.282478     2.67982e-01     8.67002e-02
     13747      13750      1   0.136415  -0.282478     2.67982e-01     8.67002e-02
     13747      13754      1   0.136415  -0.282478     2.67982e-01     8.67002e-02
     13747      13758      1   0.136415  -0.282478     2.67982e-01     8.67002e-02
     13746      13751      1  -0.170824   0.143525     2.67982e-01     8.67002e-02
     13746      13752      1  -0.170824   0.143525     2.67982e-01     8.67002e-02
     13746      13753      1  -0.170824   0.143525     2.67982e-01     8.67002e-02
     13746      13755      1  -0.170824   0.143525     2.67982e-01     8.67002e-02
     13746      13756      1  -0.170824   0.143525     2.67982e-01     8.67002e-02
     13746      13757      1  -0.170824   0.143525     2.67982e-01     8.67002e-02
     13746      13759      1  -0.170824   0.143525     2.67982e-01     8.67002e-02
     13746      13760      1  -0.170824   0.143525     2.67982e-01     8.67002e-02
     13746      13761      1  -0.170824   0.143525     2.67982e-01     8.67002e-02
     13745      13747      1   0.078534   0.113679     2.21567e-01     3.28444e-02
     13745      13748      1   0.078534   0.113679     2.21567e-01     3.28444e-02
     13745      13749      1   0.078534   0.204385     2.86068e-01     1.08078e-01
     13744      13747      1   0.078534   0.113679     2.21567e-01     3.28444e-02
     13744      13748      1   0.078534   0.113679     2.21567e-01     3.28444e-02
     13744      13749      1   0.078534   0.204385     2.86068e-01     1.08078e-01
     13742      13747      1  -0.508176   0.113679     2.47999e-01     1.08078e-01
     13742      13748      1  -0.508176   0.113679     2.47999e-01     1.08078e-01
     13741      13744      1   1.339721   0.065445     3.10656e-01     1.17227e-01
     13741      13745      1   1.339721   0.065445     3.10656e-01     1.17227e-01
     13739      13764      1   0.095591  -0.460790     2.73568e-01     1.08078e-01
     13739      13741      1   0.095591   1.116434     3.10656e-01     1.17227e-01
     13738      13764      1   0.095591  -0.460790     2.73568e-01     1.08078e-01
     13738      13741      1   0.095591   1.116434     3.10656e-01     1.17227e-01
     13736      13738      1   0.063253   0.079659     2.47135e-01     3.28444e-02
     13736      13739      1   0.063253   0.079659     2.47135e-01     3.28444e-02
     13736      13740      1   0.063253  -0.424567     2.73568e-01     1.08078e-01
     13736      13765      1   0.063253   0.748011     2.93551e-01     7.68707e-02
     13734      13736      1   0.070469   0.052711     2.47135e-01     3.28444e-02
     13734      13737      1   0.070469   0.014549     2.93551e-01     8.67002e-02
     13734      13764      1   0.070469  -0.460790     2.73568e-01     1.08078e-01
     13733      13736      1   0.070469   0.052711     2.47135e-01     3.28444e-02
     13733      13737      1   0.070469   0.014549     2.93551e-01     8.67002e-02
     13733      13764      1   0.070469  -0.460790     2.73568e-01     1.08078e-01
     13732      13738      1   0.196939   0.079659     2.93551e-01     8.67002e-02
     13732      13739      1   0.196939   0.079659     2.93551e-01     8.67002e-02
     13731      13736      1  -0.575489   0.052711     2.73568e-01     1.08078e-01
     13729      13733      1   0.910403   0.058724     2.93551e-01     7.68707e-02
     13729      13734      1   0.910403   0.058724     2.93551e-01     7.68707e-02
     13803      13806      1   0.018859   0.044953     2.60142e-01     2.09200e-02
     13803      13805      1   0.018859   0.044953     2.60142e-01     2.09200e-02
     13802      13806      1   0.018859   0.044953     2.60142e-01     2.09200e-02
     13802      13805      1   0.018859   0.044953     2.60142e-01     2.09200e-02
     13800      13804      1   0.020431  -0.136833     3.00055e-01     6.91943e-02
     13800      13803      1   0.020431   0.015716     2.60142e-01     2.09200e-02
     13800      13802      1   0.020431   0.015716     2.60142e-01     2.09200e-02
     13799      13804      1   0.020431  -0.136833     3.00055e-01     6.91943e-02
     13799      13803      1   0.020431   0.015716     2.60142e-01     2.09200e-02
     13799      13802      1   0.020431   0.015716     2.60142e-01     2.09200e-02
     13798      13806      1  -0.026954   0.044953     3.00055e-01     6.91943e-02
     13798      13805      1  -0.026954   0.044953     3.00055e-01     6.91943e-02
     13797      13801      1   0.010573  -0.002029     3.00055e-01     6.91943e-02
     13797      13800      1   0.010573   0.017026     2.60142e-01     2.09200e-02
     13797      13799      1   0.010573   0.017026     2.60142e-01     2.09200e-02
     13796      13801      1   0.010573  -0.002029     3.00055e-01     6.91943e-02
     13796      13800      1   0.010573   0.017026     2.60142e-01     2.09200e-02
     13796      13799      1   0.010573   0.017026     2.60142e-01     2.09200e-02
     13795      13803      1  -0.016521   0.015716     3.00055e-01     6.91943e-02
     13795      13802      1  -0.016521   0.015716     3.00055e-01     6.91943e-02
     13794      13798      1   0.011511  -0.022462     3.00055e-01     6.91943e-02
     13794      13796      1   0.011511   0.008811     2.60142e-01     2.09200e-02
     13794      13797      1   0.011511   0.008811     2.60142e-01     2.09200e-02
     13793      13798      1   0.011511  -0.022462     3.00055e-01     6.91943e-02
     13793      13796      1   0.011511   0.008811     2.60142e-01     2.09200e-02
     13793      13797      1   0.011511   0.008811     2.60142e-01     2.09200e-02
     13792      13800      1  -0.027812   0.017026     3.00055e-01     6.91943e-02
     13792      13799      1  -0.027812   0.017026     3.00055e-01     6.91943e-02
     13791      13795      1   0.006833  -0.013767     3.00055e-01     6.91943e-02
     13791      13793      1   0.006833   0.009592     2.60142e-01     2.09200e-02
     13791      13794      1   0.006833   0.009592     2.60142e-01     2.09200e-02
     13790      13795      1   0.006833  -0.013767     3.00055e-01     6.91943e-02
     13790      13793      1   0.006833   0.009592     2.60142e-01     2.09200e-02
     13790      13794      1   0.006833   0.009592     2.60142e-01     2.09200e-02
     13789      13796      1  -0.004386   0.008811     3.00055e-01     6.91943e-02
     13789      13797      1  -0.004386   0.008811     3.00055e-01     6.91943e-02
     13788      13792      1   0.011241  -0.023177     3.00055e-01     6.91943e-02
     13788      13790      1   0.011241   0.005694     2.60142e-01     2.09200e-02
     13788      13791      1   0.011241   0.005694     2.60142e-01     2.09200e-02
     13787      13792      1   0.011241  -0.023177     3.00055e-01     6.91943e-02
     13787      13790      1   0.011241   0.005694     2.60142e-01     2.09200e-02
     13787      13791      1   0.011241   0.005694     2.60142e-01     2.09200e-02
     13786      13793      1  -0.026451   0.009592     3.00055e-01     6.91943e-02
     13786      13794      1  -0.026451   0.009592     3.00055e-01     6.91943e-02
     13785      13789      1   0.010172  -0.003655     3.00055e-01     6.91943e-02
     13785      13788      1   0.010172   0.009367     2.60142e-01     2.09200e-02
     13785      13787      1   0.010172   0.009367     2.60142e-01     2.09200e-02
     13784      13789      1   0.010172  -0.003655     3.00055e-01     6.91943e-02
     13784      13788      1   0.010172   0.009367     2.60142e-01     2.09200e-02
     13784      13787      1   0.010172   0.009367     2.60142e-01     2.09200e-02
     13783      13790      1  -0.014653   0.005694     3.00055e-01     6.91943e-02
     13783      13791      1  -0.014653   0.005694     3.00055e-01     6.91943e-02
     13782      13786      1   0.010037  -0.022042     3.00055e-01     6.91943e-02
     13782      13784      1   0.010037   0.008477     2.60142e-01     2.09200e-02
     13782      13785      1   0.010037   0.008477     2.60142e-01     2.09200e-02
     13781      13786      1   0.010037  -0.022042     3.00055e-01     6.91943e-02
     13781      13784      1   0.010037   0.008477     2.60142e-01     2.09200e-02
     13781      13785      1   0.010037   0.008477     2.60142e-01     2.09200e-02
     13780      13788      1  -0.021025   0.009367     3.00055e-01     6.91943e-02
     13780      13787      1  -0.021025   0.009367     3.00055e-01     6.91943e-02
     13779      13783      1   0.012677  -0.012211     3.00055e-01     6.91943e-02
     13779      13782      1   0.012677   0.008364     2.60142e-01     2.09200e-02
     13779      13781      1   0.012677   0.008364     2.60142e-01     2.09200e-02
     13778      13783      1   0.012677  -0.012211     3.00055e-01     6.91943e-02
     13778      13782      1   0.012677   0.008364     2.60142e-01     2.09200e-02
     13778      13781      1   0.012677   0.008364     2.60142e-01     2.09200e-02
     13777      13784      1  -0.031787   0.008477     3.00055e-01     6.91943e-02
     13777      13785      1  -0.031787   0.008477     3.00055e-01     6.91943e-02
     13776      13780      1   0.017208  -0.017521     3.00055e-01     6.91943e-02
     13776      13778      1   0.017208   0.010564     2.60142e-01     2.09200e-02
     13776      13779      1   0.017208   0.010564     2.60142e-01     2.09200e-02
     13775      13780      1   0.017208  -0.017521     3.00055e-01     6.91943e-02
     13775      13778      1   0.017208   0.010564     2.60142e-01     2.09200e-02
     13775      13779      1   0.017208   0.010564     2.60142e-01     2.09200e-02
     13774      13782      1  -0.028094   0.008364     3.00055e-01     6.91943e-02
     13774      13781      1  -0.028094   0.008364     3.00055e-01     6.91943e-02
     13773      13777      1   0.007531  -0.026489     3.00055e-01     6.91943e-02
     13773      13776      1   0.007531   0.014340     2.60142e-01     2.09200e-02
     13773      13775      1   0.007531   0.014340     2.60142e-01     2.09200e-02
     13772      13777      1   0.007531  -0.026489     3.00055e-01     6.91943e-02
     13772      13776      1   0.007531   0.014340     2.60142e-01     2.09200e-02
     13772      13775      1   0.007531   0.014340     2.60142e-01     2.09200e-02
     13771      13778      1   0.017463   0.010564     3.00055e-01     6.91943e-02
     13771      13779      1   0.017463   0.010564     3.00055e-01     6.91943e-02
     13770      13774      1   0.025511  -0.023412     3.00055e-01     6.91943e-02
     13770      13772      1   0.025511   0.006276     2.60142e-01     2.09200e-02
     13770      13773      1   0.025511   0.006276     2.60142e-01     2.09200e-02
     13769      13774      1   0.025511  -0.023412     3.00055e-01     6.91943e-02
     13769      13772      1   0.025511   0.006276     2.60142e-01     2.09200e-02
     13769      13773      1   0.025511   0.006276     2.60142e-01     2.09200e-02
     13768      13776      1  -0.111712   0.014340     3.00055e-01     6.91943e-02
     13768      13775      1  -0.111712   0.014340     3.00055e-01     6.91943e-02
     13767      13774      1   0.025511  -0.023412     3.00055e-01     6.91943e-02
     13767      13772      1   0.025511   0.006276     2.60142e-01     2.09200e-02
     13767      13773      1   0.025511   0.006276     2.60142e-01     2.09200e-02
     13846      13848      1   0.053944  -0.559638     2.78067e-01     9.58675e-02
     13846      13849      1   0.053944  -0.479574     2.80072e-01     8.62554e-02
     13845      13848      1   0.053944  -0.559638     2.78067e-01     9.58675e-02
     13845      13849      1   0.053944  -0.479574     2.80072e-01     8.62554e-02
     13843      13846      1   0.018859   0.044953     2.60142e-01     2.09200e-02
     13843      13845      1   0.018859   0.044953     2.60142e-01     2.09200e-02
     13843      13847      1   0.018859   0.758669     3.00055e-01     6.13495e-02
     13842      13846      1   0.018859   0.044953     2.60142e-01     2.09200e-02
     13842      13845      1   0.018859   0.044953     2.60142e-01     2.09200e-02
     13842      13847      1   0.018859   0.758669     3.00055e-01     6.13495e-02
     13840      13844      1   0.020431  -0.136833     3.00055e-01     6.91943e-02
     13840      13843      1   0.020431   0.015716     2.60142e-01     2.09200e-02
     13840      13842      1   0.020431   0.015716     2.60142e-01     2.09200e-02
     13839      13844      1   0.020431  -0.136833     3.00055e-01     6.91943e-02
     13839      13843      1   0.020431   0.015716     2.60142e-01     2.09200e-02
     13839      13842      1   0.020431   0.015716     2.60142e-01     2.09200e-02
     13838      13846      1  -0.026954   0.044953     3.00055e-01     6.91943e-02
     13838      13845      1  -0.026954   0.044953     3.00055e-01     6.91943e-02
     13837      13841      1   0.010573  -0.002029     3.00055e-01     6.91943e-02
     13837      13840      1   0.010573   0.017026     2.60142e-01     2.09200e-02
     13837      13839      1   0.010573   0.017026     2.60142e-01     2.09200e-02
     13836      13841      1   0.010573  -0.002029     3.00055e-01     6.91943e-02
     13836      13840      1   0.010573   0.017026     2.60142e-01     2.09200e-02
     13836      13839      1   0.010573   0.017026     2.60142e-01     2.09200e-02
     13835      13843      1  -0.016521   0.015716     3.00055e-01     6.91943e-02
     13835      13842      1  -0.016521   0.015716     3.00055e-01     6.91943e-02
     13834      13838      1   0.011511  -0.022462     3.00055e-01     6.91943e-02
     13834      13836      1   0.011511   0.008811     2.60142e-01     2.09200e-02
     13834      13837      1   0.011511   0.008811     2.60142e-01     2.09200e-02
     13833      13838      1   0.011511  -0.022462     3.00055e-01     6.91943e-02
     13833      13836      1   0.011511   0.008811     2.60142e-01     2.09200e-02
     13833      13837      1   0.011511   0.008811     2.60142e-01     2.09200e-02
     13832      13840      1  -0.027812   0.017026     3.00055e-01     6.91943e-02
     13832      13839      1  -0.027812   0.017026     3.00055e-01     6.91943e-02
     13831      13835      1   0.006833  -0.013767     3.00055e-01     6.91943e-02
     13831      13833      1   0.006833   0.009592     2.60142e-01     2.09200e-02
     13831      13834      1   0.006833   0.009592     2.60142e-01     2.09200e-02
     13830      13835      1   0.006833  -0.013767     3.00055e-01     6.91943e-02
     13830      13833      1   0.006833   0.009592     2.60142e-01     2.09200e-02
     13830      13834      1   0.006833   0.009592     2.60142e-01     2.09200e-02
     13829      13836      1  -0.004386   0.008811     3.00055e-01     6.91943e-02
     13829      13837      1  -0.004386   0.008811     3.00055e-01     6.91943e-02
     13828      13832      1   0.011241  -0.023177     3.00055e-01     6.91943e-02
     13828      13830      1   0.011241   0.005694     2.60142e-01     2.09200e-02
     13828      13831      1   0.011241   0.005694     2.60142e-01     2.09200e-02
     13827      13832      1   0.011241  -0.023177     3.00055e-01     6.91943e-02
     13827      13830      1   0.011241   0.005694     2.60142e-01     2.09200e-02
     13827      13831      1   0.011241   0.005694     2.60142e-01     2.09200e-02
     13826      13833      1  -0.026451   0.009592     3.00055e-01     6.91943e-02
     13826      13834      1  -0.026451   0.009592     3.00055e-01     6.91943e-02
     13825      13829      1   0.010172  -0.003655     3.00055e-01     6.91943e-02
     13825      13828      1   0.010172   0.009367     2.60142e-01     2.09200e-02
     13825      13827      1   0.010172   0.009367     2.60142e-01     2.09200e-02
     13824      13829      1   0.010172  -0.003655     3.00055e-01     6.91943e-02
     13824      13828      1   0.010172   0.009367     2.60142e-01     2.09200e-02
     13824      13827      1   0.010172   0.009367     2.60142e-01     2.09200e-02
     13823      13830      1  -0.014653   0.005694     3.00055e-01     6.91943e-02
     13823      13831      1  -0.014653   0.005694     3.00055e-01     6.91943e-02
     13822      13826      1   0.010037  -0.022042     3.00055e-01     6.91943e-02
     13822      13824      1   0.010037   0.008477     2.60142e-01     2.09200e-02
     13822      13825      1   0.010037   0.008477     2.60142e-01     2.09200e-02
     13821      13826      1   0.010037  -0.022042     3.00055e-01     6.91943e-02
     13821      13824      1   0.010037   0.008477     2.60142e-01     2.09200e-02
     13821      13825      1   0.010037   0.008477     2.60142e-01     2.09200e-02
     13820      13828      1  -0.021025   0.009367     3.00055e-01     6.91943e-02
     13820      13827      1  -0.021025   0.009367     3.00055e-01     6.91943e-02
     13819      13823      1   0.012677  -0.012211     3.00055e-01     6.91943e-02
     13819      13822      1   0.012677   0.008364     2.60142e-01     2.09200e-02
     13819      13821      1   0.012677   0.008364     2.60142e-01     2.09200e-02
     13818      13823      1   0.012677  -0.012211     3.00055e-01     6.91943e-02
     13818      13822      1   0.012677   0.008364     2.60142e-01     2.09200e-02
     13818      13821      1   0.012677   0.008364     2.60142e-01     2.09200e-02
     13817      13824      1  -0.031787   0.008477     3.00055e-01     6.91943e-02
     13817      13825      1  -0.031787   0.008477     3.00055e-01     6.91943e-02
     13816      13820      1   0.017208  -0.017521     3.00055e-01     6.91943e-02
     13816      13818      1   0.017208   0.010564     2.60142e-01     2.09200e-02
     13816      13819      1   0.017208   0.010564     2.60142e-01     2.09200e-02
     13815      13820      1   0.017208  -0.017521     3.00055e-01     6.91943e-02
     13815      13818      1   0.017208   0.010564     2.60142e-01     2.09200e-02
     13815      13819      1   0.017208   0.010564     2.60142e-01     2.09200e-02
     13814      13822      1  -0.028094   0.008364     3.00055e-01     6.91943e-02
     13814      13821      1  -0.028094   0.008364     3.00055e-01     6.91943e-02
     13813      13817      1   0.007531  -0.026489     3.00055e-01     6.91943e-02
     13813      13816      1   0.007531   0.014340     2.60142e-01     2.09200e-02
     13813      13815      1   0.007531   0.014340     2.60142e-01     2.09200e-02
     13812      13817      1   0.007531  -0.026489     3.00055e-01     6.91943e-02
     13812      13816      1   0.007531   0.014340     2.60142e-01     2.09200e-02
     13812      13815      1   0.007531   0.014340     2.60142e-01     2.09200e-02
     13811      13818      1   0.017463   0.010564     3.00055e-01     6.91943e-02
     13811      13819      1   0.017463   0.010564     3.00055e-01     6.91943e-02
     13810      13814      1   0.025511  -0.023412     3.00055e-01     6.91943e-02
     13810      13812      1   0.025511   0.006276     2.60142e-01     2.09200e-02
     13810      13813      1   0.025511   0.006276     2.60142e-01     2.09200e-02
     13809      13814      1   0.025511  -0.023412     3.00055e-01     6.91943e-02
     13809      13812      1   0.025511   0.006276     2.60142e-01     2.09200e-02
     13809      13813      1   0.025511   0.006276     2.60142e-01     2.09200e-02
     13808      13816      1  -0.111712   0.014340     3.00055e-01     6.91943e-02
     13808      13815      1  -0.111712   0.014340     3.00055e-01     6.91943e-02
     13807      13814      1   0.025511  -0.023412     3.00055e-01     6.91943e-02
     13807      13812      1   0.025511   0.006276     2.60142e-01     2.09200e-02
     13807      13813      1   0.025511   0.006276     2.60142e-01     2.09200e-02
     13884      13924      1  -0.673755   0.044953     2.78067e-01     9.58675e-02
     13884      13923      1  -0.673755   0.044953     2.78067e-01     9.58675e-02
     13883      13921      1   0.897613   0.015716     3.00055e-01     6.13495e-02
     13883      13920      1   0.897613   0.015716     3.00055e-01     6.13495e-02
     13882      13924      1  -0.552948   0.044953     2.80072e-01     8.62554e-02
     13882      13923      1  -0.552948   0.044953     2.80072e-01     8.62554e-02
     13875      13876      1   0.172230  -0.282478     2.67982e-01     8.67002e-02
     13874      13876      1   0.172230  -0.282478     2.67982e-01     8.67002e-02
     13873      13876      1   0.172230  -0.282478     2.67982e-01     8.67002e-02
     13872      13877      1  -0.338973   0.143525     2.67982e-01     8.67002e-02
     13872      13878      1  -0.338973   0.143525     2.67982e-01     8.67002e-02
     13872      13879      1  -0.338973   0.143525     2.67982e-01     8.67002e-02
     13871      13872      1   0.172230  -0.282478     2.67982e-01     8.67002e-02
     13871      13876      1   0.172230  -0.282478     2.67982e-01     8.67002e-02
     13870      13872      1   0.172230  -0.282478     2.67982e-01     8.67002e-02
     13870      13876      1   0.172230  -0.282478     2.67982e-01     8.67002e-02
     13869      13872      1   0.172230  -0.282478     2.67982e-01     8.67002e-02
     13869      13876      1   0.172230  -0.282478     2.67982e-01     8.67002e-02
     13868      13873      1  -0.338973   0.143525     2.67982e-01     8.67002e-02
     13868      13874      1  -0.338973   0.143525     2.67982e-01     8.67002e-02
     13868      13875      1  -0.338973   0.143525     2.67982e-01     8.67002e-02
     13868      13877      1  -0.338973   0.143525     2.67982e-01     8.67002e-02
     13868      13878      1  -0.338973   0.143525     2.67982e-01     8.67002e-02
     13868      13879      1  -0.338973   0.143525     2.67982e-01     8.67002e-02
     13866      13868      1   0.136415  -0.282478     2.67982e-01     8.67002e-02
     13866      13872      1   0.136415  -0.282478     2.67982e-01     8.67002e-02
     13866      13876      1   0.136415  -0.282478     2.67982e-01     8.67002e-02
     13865      13868      1   0.136415  -0.282478     2.67982e-01     8.67002e-02
     13865      13872      1   0.136415  -0.282478     2.67982e-01     8.67002e-02
     13865      13876      1   0.136415  -0.282478     2.67982e-01     8.67002e-02
     13864      13869      1  -0.170824   0.143525     2.67982e-01     8.67002e-02
     13864      13870      1  -0.170824   0.143525     2.67982e-01     8.67002e-02
     13864      13871      1  -0.170824   0.143525     2.67982e-01     8.67002e-02
     13864      13873      1  -0.170824   0.143525     2.67982e-01     8.67002e-02
     13864      13874      1  -0.170824   0.143525     2.67982e-01     8.67002e-02
     13864      13875      1  -0.170824   0.143525     2.67982e-01     8.67002e-02
     13864      13877      1  -0.170824   0.143525     2.67982e-01     8.67002e-02
     13864      13878      1  -0.170824   0.143525     2.67982e-01     8.67002e-02
     13864      13879      1  -0.170824   0.143525     2.67982e-01     8.67002e-02
     13863      13865      1   0.078534   0.113679     2.21567e-01     3.28444e-02
     13863      13866      1   0.078534   0.113679     2.21567e-01     3.28444e-02
     13863      13867      1   0.078534   0.204385     2.86068e-01     1.08078e-01
     13862      13865      1   0.078534   0.113679     2.21567e-01     3.28444e-02
     13862      13866      1   0.078534   0.113679     2.21567e-01     3.28444e-02
     13862      13867      1   0.078534   0.204385     2.86068e-01     1.08078e-01
     13860      13865      1  -0.508176   0.113679     2.47999e-01     1.08078e-01
     13860      13866      1  -0.508176   0.113679     2.47999e-01     1.08078e-01
     13859      13862      1   1.339721   0.065445     3.10656e-01     1.17227e-01
     13859      13863      1   1.339721   0.065445     3.10656e-01     1.17227e-01
     13857      13882      1   0.095591  -0.460790     2.73568e-01     1.08078e-01
     13857      13859      1   0.095591   1.116434     3.10656e-01     1.17227e-01
     13856      13882      1   0.095591  -0.460790     2.73568e-01     1.08078e-01
     13856      13859      1   0.095591   1.116434     3.10656e-01     1.17227e-01
     13854      13856      1   0.063253   0.079659     2.47135e-01     3.28444e-02
     13854      13857      1   0.063253   0.079659     2.47135e-01     3.28444e-02
     13854      13858      1   0.063253  -0.424567     2.73568e-01     1.08078e-01
     13854      13883      1   0.063253   0.748011     2.93551e-01     7.68707e-02
     13852      13854      1   0.070469   0.052711     2.47135e-01     3.28444e-02
     13852      13855      1   0.070469   0.014549     2.93551e-01     8.67002e-02
     13852      13882      1   0.070469  -0.460790     2.73568e-01     1.08078e-01
     13851      13854      1   0.070469   0.052711     2.47135e-01     3.28444e-02
     13851      13855      1   0.070469   0.014549     2.93551e-01     8.67002e-02
     13851      13882      1   0.070469  -0.460790     2.73568e-01     1.08078e-01
     13850      13856      1   0.196939   0.079659     2.93551e-01     8.67002e-02
     13850      13857      1   0.196939   0.079659     2.93551e-01     8.67002e-02
     13849      13854      1  -0.575489   0.052711     2.73568e-01     1.08078e-01
     13847      13851      1   0.910403   0.058724     2.93551e-01     7.68707e-02
     13847      13852      1   0.910403   0.058724     2.93551e-01     7.68707e-02
     13921      13924      1   0.018859   0.044953     2.60142e-01     2.09200e-02
     13921      13923      1   0.018859   0.044953     2.60142e-01     2.09200e-02
     13920      13924      1   0.018859   0.044953     2.60142e-01     2.09200e-02
     13920      13923      1   0.018859   0.044953     2.60142e-01     2.09200e-02
     13918      13922      1   0.020431  -0.136833     3.00055e-01     6.91943e-02
     13918      13921      1   0.020431   0.015716     2.60142e-01     2.09200e-02
     13918      13920      1   0.020431   0.015716     2.60142e-01     2.09200e-02
     13917      13922      1   0.020431  -0.136833     3.00055e-01     6.91943e-02
     13917      13921      1   0.020431   0.015716     2.60142e-01     2.09200e-02
     13917      13920      1   0.020431   0.015716     2.60142e-01     2.09200e-02
     13916      13924      1  -0.026954   0.044953     3.00055e-01     6.91943e-02
     13916      13923      1  -0.026954   0.044953     3.00055e-01     6.91943e-02
     13915      13919      1   0.010573  -0.002029     3.00055e-01     6.91943e-02
     13915      13918      1   0.010573   0.017026     2.60142e-01     2.09200e-02
     13915      13917      1   0.010573   0.017026     2.60142e-01     2.09200e-02
     13914      13919      1   0.010573  -0.002029     3.00055e-01     6.91943e-02
     13914      13918      1   0.010573   0.017026     2.60142e-01     2.09200e-02
     13914      13917      1   0.010573   0.017026     2.60142e-01     2.09200e-02
     13913      13921      1  -0.016521   0.015716     3.00055e-01     6.91943e-02
     13913      13920      1  -0.016521   0.015716     3.00055e-01     6.91943e-02
     13912      13916      1   0.011511  -0.022462     3.00055e-01     6.91943e-02
     13912      13914      1   0.011511   0.008811     2.60142e-01     2.09200e-02
     13912      13915      1   0.011511   0.008811     2.60142e-01     2.09200e-02
     13911      13916      1   0.011511  -0.022462     3.00055e-01     6.91943e-02
     13911      13914      1   0.011511   0.008811     2.60142e-01     2.09200e-02
     13911      13915      1   0.011511   0.008811     2.60142e-01     2.09200e-02
     13910      13918      1  -0.027812   0.017026     3.00055e-01     6.91943e-02
     13910      13917      1  -0.027812   0.017026     3.00055e-01     6.91943e-02
     13909      13913      1   0.006833  -0.013767     3.00055e-01     6.91943e-02
     13909      13911      1   0.006833   0.009592     2.60142e-01     2.09200e-02
     13909      13912      1   0.006833   0.009592     2.60142e-01     2.09200e-02
     13908      13913      1   0.006833  -0.013767     3.00055e-01     6.91943e-02
     13908      13911      1   0.006833   0.009592     2.60142e-01     2.09200e-02
     13908      13912      1   0.006833   0.009592     2.60142e-01     2.09200e-02
     13907      13914      1  -0.004386   0.008811     3.00055e-01     6.91943e-02
     13907      13915      1  -0.004386   0.008811     3.00055e-01     6.91943e-02
     13906      13910      1   0.011241  -0.023177     3.00055e-01     6.91943e-02
     13906      13908      1   0.011241   0.005694     2.60142e-01     2.09200e-02
     13906      13909      1   0.011241   0.005694     2.60142e-01     2.09200e-02
     13905      13910      1   0.011241  -0.023177     3.00055e-01     6.91943e-02
     13905      13908      1   0.011241   0.005694     2.60142e-01     2.09200e-02
     13905      13909      1   0.011241   0.005694     2.60142e-01     2.09200e-02
     13904      13911      1  -0.026451   0.009592     3.00055e-01     6.91943e-02
     13904      13912      1  -0.026451   0.009592     3.00055e-01     6.91943e-02
     13903      13907      1   0.010172  -0.003655     3.00055e-01     6.91943e-02
     13903      13906      1   0.010172   0.009367     2.60142e-01     2.09200e-02
     13903      13905      1   0.010172   0.009367     2.60142e-01     2.09200e-02
     13902      13907      1   0.010172  -0.003655     3.00055e-01     6.91943e-02
     13902      13906      1   0.010172   0.009367     2.60142e-01     2.09200e-02
     13902      13905      1   0.010172   0.009367     2.60142e-01     2.09200e-02
     13901      13908      1  -0.014653   0.005694     3.00055e-01     6.91943e-02
     13901      13909      1  -0.014653   0.005694     3.00055e-01     6.91943e-02
     13900      13904      1   0.010037  -0.022042     3.00055e-01     6.91943e-02
     13900      13902      1   0.010037   0.008477     2.60142e-01     2.09200e-02
     13900      13903      1   0.010037   0.008477     2.60142e-01     2.09200e-02
     13899      13904      1   0.010037  -0.022042     3.00055e-01     6.91943e-02
     13899      13902      1   0.010037   0.008477     2.60142e-01     2.09200e-02
     13899      13903      1   0.010037   0.008477     2.60142e-01     2.09200e-02
     13898      13906      1  -0.021025   0.009367     3.00055e-01     6.91943e-02
     13898      13905      1  -0.021025   0.009367     3.00055e-01     6.91943e-02
     13897      13901      1   0.012677  -0.012211     3.00055e-01     6.91943e-02
     13897      13900      1   0.012677   0.008364     2.60142e-01     2.09200e-02
     13897      13899      1   0.012677   0.008364     2.60142e-01     2.09200e-02
     13896      13901      1   0.012677  -0.012211     3.00055e-01     6.91943e-02
     13896      13900      1   0.012677   0.008364     2.60142e-01     2.09200e-02
     13896      13899      1   0.012677   0.008364     2.60142e-01     2.09200e-02
     13895      13902      1  -0.031787   0.008477     3.00055e-01     6.91943e-02
     13895      13903      1  -0.031787   0.008477     3.00055e-01     6.91943e-02
     13894      13898      1   0.017208  -0.017521     3.00055e-01     6.91943e-02
     13894      13896      1   0.017208   0.010564     2.60142e-01     2.09200e-02
     13894      13897      1   0.017208   0.010564     2.60142e-01     2.09200e-02
     13893      13898      1   0.017208  -0.017521     3.00055e-01     6.91943e-02
     13893      13896      1   0.017208   0.010564     2.60142e-01     2.09200e-02
     13893      13897      1   0.017208   0.010564     2.60142e-01     2.09200e-02
     13892      13900      1  -0.028094   0.008364     3.00055e-01     6.91943e-02
     13892      13899      1  -0.028094   0.008364     3.00055e-01     6.91943e-02
     13891      13895      1   0.007531  -0.026489     3.00055e-01     6.91943e-02
     13891      13894      1   0.007531   0.014340     2.60142e-01     2.09200e-02
     13891      13893      1   0.007531   0.014340     2.60142e-01     2.09200e-02
     13890      13895      1   0.007531  -0.026489     3.00055e-01     6.91943e-02
     13890      13894      1   0.007531   0.014340     2.60142e-01     2.09200e-02
     13890      13893      1   0.007531   0.014340     2.60142e-01     2.09200e-02
     13889      13896      1   0.017463   0.010564     3.00055e-01     6.91943e-02
     13889      13897      1   0.017463   0.010564     3.00055e-01     6.91943e-02
     13888      13892      1   0.025511  -0.023412     3.00055e-01     6.91943e-02
     13888      13890      1   0.025511   0.006276     2.60142e-01     2.09200e-02
     13888      13891      1   0.025511   0.006276     2.60142e-01     2.09200e-02
     13887      13892      1   0.025511  -0.023412     3.00055e-01     6.91943e-02
     13887      13890      1   0.025511   0.006276     2.60142e-01     2.09200e-02
     13887      13891      1   0.025511   0.006276     2.60142e-01     2.09200e-02
     13886      13894      1  -0.111712   0.014340     3.00055e-01     6.91943e-02
     13886      13893      1  -0.111712   0.014340     3.00055e-01     6.91943e-02
     13885      13892      1   0.025511  -0.023412     3.00055e-01     6.91943e-02
     13885      13890      1   0.025511   0.006276     2.60142e-01     2.09200e-02
     13885      13891      1   0.025511   0.006276     2.60142e-01     2.09200e-02
     13964      13966      1   0.053944  -0.559638     2.78067e-01     9.58675e-02
     13964      13967      1   0.053944  -0.479574     2.80072e-01     8.62554e-02
     13963      13966      1   0.053944  -0.559638     2.78067e-01     9.58675e-02
     13963      13967      1   0.053944  -0.479574     2.80072e-01     8.62554e-02
     13961      13964      1   0.018859   0.044953     2.60142e-01     2.09200e-02
     13961      13963      1   0.018859   0.044953     2.60142e-01     2.09200e-02
     13961      13965      1   0.018859   0.758669     3.00055e-01     6.13495e-02
     13960      13964      1   0.018859   0.044953     2.60142e-01     2.09200e-02
     13960      13963      1   0.018859   0.044953     2.60142e-01     2.09200e-02
     13960      13965      1   0.018859   0.758669     3.00055e-01     6.13495e-02
     13958      13962      1   0.020431  -0.136833     3.00055e-01     6.91943e-02
     13958      13961      1   0.020431   0.015716     2.60142e-01     2.09200e-02
     13958      13960      1   0.020431   0.015716     2.60142e-01     2.09200e-02
     13957      13962      1   0.020431  -0.136833     3.00055e-01     6.91943e-02
     13957      13961      1   0.020431   0.015716     2.60142e-01     2.09200e-02
     13957      13960      1   0.020431   0.015716     2.60142e-01     2.09200e-02
     13956      13964      1  -0.026954   0.044953     3.00055e-01     6.91943e-02
     13956      13963      1  -0.026954   0.044953     3.00055e-01     6.91943e-02
     13955      13959      1   0.010573  -0.002029     3.00055e-01     6.91943e-02
     13955      13958      1   0.010573   0.017026     2.60142e-01     2.09200e-02
     13955      13957      1   0.010573   0.017026     2.60142e-01     2.09200e-02
     13954      13959      1   0.010573  -0.002029     3.00055e-01     6.91943e-02
     13954      13958      1   0.010573   0.017026     2.60142e-01     2.09200e-02
     13954      13957      1   0.010573   0.017026     2.60142e-01     2.09200e-02
     13953      13961      1  -0.016521   0.015716     3.00055e-01     6.91943e-02
     13953      13960      1  -0.016521   0.015716     3.00055e-01     6.91943e-02
     13952      13956      1   0.011511  -0.022462     3.00055e-01     6.91943e-02
     13952      13954      1   0.011511   0.008811     2.60142e-01     2.09200e-02
     13952      13955      1   0.011511   0.008811     2.60142e-01     2.09200e-02
     13951      13956      1   0.011511  -0.022462     3.00055e-01     6.91943e-02
     13951      13954      1   0.011511   0.008811     2.60142e-01     2.09200e-02
     13951      13955      1   0.011511   0.008811     2.60142e-01     2.09200e-02
     13950      13958      1  -0.027812   0.017026     3.00055e-01     6.91943e-02
     13950      13957      1  -0.027812   0.017026     3.00055e-01     6.91943e-02
     13949      13953      1   0.006833  -0.013767     3.00055e-01     6.91943e-02
     13949      13951      1   0.006833   0.009592     2.60142e-01     2.09200e-02
     13949      13952      1   0.006833   0.009592     2.60142e-01     2.09200e-02
     13948      13953      1   0.006833  -0.013767     3.00055e-01     6.91943e-02
     13948      13951      1   0.006833   0.009592     2.60142e-01     2.09200e-02
     13948      13952      1   0.006833   0.009592     2.60142e-01     2.09200e-02
     13947      13954      1  -0.004386   0.008811     3.00055e-01     6.91943e-02
     13947      13955      1  -0.004386   0.008811     3.00055e-01     6.91943e-02
     13946      13950      1   0.011241  -0.023177     3.00055e-01     6.91943e-02
     13946      13948      1   0.011241   0.005694     2.60142e-01     2.09200e-02
     13946      13949      1   0.011241   0.005694     2.60142e-01     2.09200e-02
     13945      13950      1   0.011241  -0.023177     3.00055e-01     6.91943e-02
     13945      13948      1   0.011241   0.005694     2.60142e-01     2.09200e-02
     13945      13949      1   0.011241   0.005694     2.60142e-01     2.09200e-02
     13944      13951      1  -0.026451   0.009592     3.00055e-01     6.91943e-02
     13944      13952      1  -0.026451   0.009592     3.00055e-01     6.91943e-02
     13943      13947      1   0.010172  -0.003655     3.00055e-01     6.91943e-02
     13943      13946      1   0.010172   0.009367     2.60142e-01     2.09200e-02
     13943      13945      1   0.010172   0.009367     2.60142e-01     2.09200e-02
     13942      13947      1   0.010172  -0.003655     3.00055e-01     6.91943e-02
     13942      13946      1   0.010172   0.009367     2.60142e-01     2.09200e-02
     13942      13945      1   0.010172   0.009367     2.60142e-01     2.09200e-02
     13941      13948      1  -0.014653   0.005694     3.00055e-01     6.91943e-02
     13941      13949      1  -0.014653   0.005694     3.00055e-01     6.91943e-02
     13940      13944      1   0.010037  -0.022042     3.00055e-01     6.91943e-02
     13940      13942      1   0.010037   0.008477     2.60142e-01     2.09200e-02
     13940      13943      1   0.010037   0.008477     2.60142e-01     2.09200e-02
     13939      13944      1   0.010037  -0.022042     3.00055e-01     6.91943e-02
     13939      13942      1   0.010037   0.008477     2.60142e-01     2.09200e-02
     13939      13943      1   0.010037   0.008477     2.60142e-01     2.09200e-02
     13938      13946      1  -0.021025   0.009367     3.00055e-01     6.91943e-02
     13938      13945      1  -0.021025   0.009367     3.00055e-01     6.91943e-02
     13937      13941      1   0.012677  -0.012211     3.00055e-01     6.91943e-02
     13937      13940      1   0.012677   0.008364     2.60142e-01     2.09200e-02
     13937      13939      1   0.012677   0.008364     2.60142e-01     2.09200e-02
     13936      13941      1   0.012677  -0.012211     3.00055e-01     6.91943e-02
     13936      13940      1   0.012677   0.008364     2.60142e-01     2.09200e-02
     13936      13939      1   0.012677   0.008364     2.60142e-01     2.09200e-02
     13935      13942      1  -0.031787   0.008477     3.00055e-01     6.91943e-02
     13935      13943      1  -0.031787   0.008477     3.00055e-01     6.91943e-02
     13934      13938      1   0.017208  -0.017521     3.00055e-01     6.91943e-02
     13934      13936      1   0.017208   0.010564     2.60142e-01     2.09200e-02
     13934      13937      1   0.017208   0.010564     2.60142e-01     2.09200e-02
     13933      13938      1   0.017208  -0.017521     3.00055e-01     6.91943e-02
     13933      13936      1   0.017208   0.010564     2.60142e-01     2.09200e-02
     13933      13937      1   0.017208   0.010564     2.60142e-01     2.09200e-02
     13932      13940      1  -0.028094   0.008364     3.00055e-01     6.91943e-02
     13932      13939      1  -0.028094   0.008364     3.00055e-01     6.91943e-02
     13931      13935      1   0.007531  -0.026489     3.00055e-01     6.91943e-02
     13931      13934      1   0.007531   0.014340     2.60142e-01     2.09200e-02
     13931      13933      1   0.007531   0.014340     2.60142e-01     2.09200e-02
     13930      13935      1   0.007531  -0.026489     3.00055e-01     6.91943e-02
     13930      13934      1   0.007531   0.014340     2.60142e-01     2.09200e-02
     13930      13933      1   0.007531   0.014340     2.60142e-01     2.09200e-02
     13929      13936      1   0.017463   0.010564     3.00055e-01     6.91943e-02
     13929      13937      1   0.017463   0.010564     3.00055e-01     6.91943e-02
     13928      13932      1   0.025511  -0.023412     3.00055e-01     6.91943e-02
     13928      13930      1   0.025511   0.006276     2.60142e-01     2.09200e-02
     13928      13931      1   0.025511   0.006276     2.60142e-01     2.09200e-02
     13927      13932      1   0.025511  -0.023412     3.00055e-01     6.91943e-02
     13927      13930      1   0.025511   0.006276     2.60142e-01     2.09200e-02
     13927      13931      1   0.025511   0.006276     2.60142e-01     2.09200e-02
     13926      13934      1  -0.111712   0.014340     3.00055e-01     6.91943e-02
     13926      13933      1  -0.111712   0.014340     3.00055e-01     6.91943e-02
     13925      13932      1   0.025511  -0.023412     3.00055e-01     6.91943e-02
     13925      13930      1   0.025511   0.006276     2.60142e-01     2.09200e-02
     13925      13931      1   0.025511   0.006276     2.60142e-01     2.09200e-02
     14002      14042      1  -0.673755   0.044953     2.78067e-01     9.58675e-02
     14002      14041      1  -0.673755   0.044953     2.78067e-01     9.58675e-02
     14001      14039      1   0.897613   0.015716     3.00055e-01     6.13495e-02
     14001      14038      1   0.897613   0.015716     3.00055e-01     6.13495e-02
     14000      14042      1  -0.552948   0.044953     2.80072e-01     8.62554e-02
     14000      14041      1  -0.552948   0.044953     2.80072e-01     8.62554e-02
     13993      13994      1   0.172230  -0.282478     2.67982e-01     8.67002e-02
     13992      13994      1   0.172230  -0.282478     2.67982e-01     8.67002e-02
     13991      13994      1   0.172230  -0.282478     2.67982e-01     8.67002e-02
     13990      13995      1  -0.338973   0.143525     2.67982e-01     8.67002e-02
     13990      13996      1  -0.338973   0.143525     2.67982e-01     8.67002e-02
     13990      13997      1  -0.338973   0.143525     2.67982e-01     8.67002e-02
     13989      13990      1   0.172230  -0.282478     2.67982e-01     8.67002e-02
     13989      13994      1   0.172230  -0.282478     2.67982e-01     8.67002e-02
     13988      13990      1   0.172230  -0.282478     2.67982e-01     8.67002e-02
     13988      13994      1   0.172230  -0.282478     2.67982e-01     8.67002e-02
     13987      13990      1   0.172230  -0.282478     2.67982e-01     8.67002e-02
     13987      13994      1   0.172230  -0.282478     2.67982e-01     8.67002e-02
     13986      13991      1  -0.338973   0.143525     2.67982e-01     8.67002e-02
     13986      13992      1  -0.338973   0.143525     2.67982e-01     8.67002e-02
     13986      13993      1  -0.338973   0.143525     2.67982e-01     8.67002e-02
     13986      13995      1  -0.338973   0.143525     2.67982e-01     8.67002e-02
     13986      13996      1  -0.338973   0.143525     2.67982e-01     8.67002e-02
     13986      13997      1  -0.338973   0.143525     2.67982e-01     8.67002e-02
     13984      13986      1   0.136415  -0.282478     2.67982e-01     8.67002e-02
     13984      13990      1   0.136415  -0.282478     2.67982e-01     8.67002e-02
     13984      13994      1   0.136415  -0.282478     2.67982e-01     8.67002e-02
     13983      13986      1   0.136415  -0.282478     2.67982e-01     8.67002e-02
     13983      13990      1   0.136415  -0.282478     2.67982e-01     8.67002e-02
     13983      13994      1   0.136415  -0.282478     2.67982e-01     8.67002e-02
     13982      13987      1  -0.170824   0.143525     2.67982e-01     8.67002e-02
     13982      13988      1  -0.170824   0.143525     2.67982e-01     8.67002e-02
     13982      13989      1  -0.170824   0.143525     2.67982e-01     8.67002e-02
     13982      13991      1  -0.170824   0.143525     2.67982e-01     8.67002e-02
     13982      13992      1  -0.170824   0.143525     2.67982e-01     8.67002e-02
     13982      13993      1  -0.170824   0.143525     2.67982e-01     8.67002e-02
     13982      13995      1  -0.170824   0.143525     2.67982e-01     8.67002e-02
     13982      13996      1  -0.170824   0.143525     2.67982e-01     8.67002e-02
     13982      13997      1  -0.170824   0.143525     2.67982e-01     8.67002e-02
     13981      13983      1   0.078534   0.113679     2.21567e-01     3.28444e-02
     13981      13984      1   0.078534   0.113679     2.21567e-01     3.28444e-02
     13981      13985      1   0.078534   0.204385     2.86068e-01     1.08078e-01
     13980      13983      1   0.078534   0.113679     2.21567e-01     3.28444e-02
     13980      13984      1   0.078534   0.113679     2.21567e-01     3.28444e-02
     13980      13985      1   0.078534   0.204385     2.86068e-01     1.08078e-01
     13978      13983      1  -0.508176   0.113679     2.47999e-01     1.08078e-01
     13978      13984      1  -0.508176   0.113679     2.47999e-01     1.08078e-01
     13977      13980      1   1.339721   0.065445     3.10656e-01     1.17227e-01
     13977      13981      1   1.339721   0.065445     3.10656e-01     1.17227e-01
     13975      14000      1   0.095591  -0.460790     2.73568e-01     1.08078e-01
     13975      13977      1   0.095591   1.116434     3.10656e-01     1.17227e-01
     13974      14000      1   0.095591  -0.460790     2.73568e-01     1.08078e-01
     13974      13977      1   0.095591   1.116434     3.10656e-01     1.17227e-01
     13972      13974      1   0.063253   0.079659     2.47135e-01     3.28444e-02
     13972      13975      1   0.063253   0.079659     2.47135e-01     3.28444e-02
     13972      13976      1   0.063253  -0.424567     2.73568e-01     1.08078e-01
     13972      14001      1   0.063253   0.748011     2.93551e-01     7.68707e-02
     13970      13972      1   0.070469   0.052711     2.47135e-01     3.28444e-02
     13970      13973      1   0.070469   0.014549     2.93551e-01     8.67002e-02
     13970      14000      1   0.070469  -0.460790     2.73568e-01     1.08078e-01
     13969      13972      1   0.070469   0.052711     2.47135e-01     3.28444e-02
     13969      13973      1   0.070469   0.014549     2.93551e-01     8.67002e-02
     13969      14000      1   0.070469  -0.460790     2.73568e-01     1.08078e-01
     13968      13974      1   0.196939   0.079659     2.93551e-01     8.67002e-02
     13968      13975      1   0.196939   0.079659     2.93551e-01     8.67002e-02
     13967      13972      1  -0.575489   0.052711     2.73568e-01     1.08078e-01
     13965      13969      1   0.910403   0.058724     2.93551e-01     7.68707e-02
     13965      13970      1   0.910403   0.058724     2.93551e-01     7.68707e-02
     14039      14042      1   0.018859   0.044953     2.60142e-01     2.09200e-02
     14039      14041      1   0.018859   0.044953     2.60142e-01     2.09200e-02
     14038      14042      1   0.018859   0.044953     2.60142e-01     2.09200e-02
     14038      14041      1   0.018859   0.044953     2.60142e-01     2.09200e-02
     14036      14040      1   0.020431  -0.136833     3.00055e-01     6.91943e-02
     14036      14039      1   0.020431   0.015716     2.60142e-01     2.09200e-02
     14036      14038      1   0.020431   0.015716     2.60142e-01     2.09200e-02
     14035      14040      1   0.020431  -0.136833     3.00055e-01     6.91943e-02
     14035      14039      1   0.020431   0.015716     2.60142e-01     2.09200e-02
     14035      14038      1   0.020431   0.015716     2.60142e-01     2.09200e-02
     14034      14042      1  -0.026954   0.044953     3.00055e-01     6.91943e-02
     14034      14041      1  -0.026954   0.044953     3.00055e-01     6.91943e-02
     14033      14037      1   0.010573  -0.002029     3.00055e-01     6.91943e-02
     14033      14036      1   0.010573   0.017026     2.60142e-01     2.09200e-02
     14033      14035      1   0.010573   0.017026     2.60142e-01     2.09200e-02
     14032      14037      1   0.010573  -0.002029     3.00055e-01     6.91943e-02
     14032      14036      1   0.010573   0.017026     2.60142e-01     2.09200e-02
     14032      14035      1   0.010573   0.017026     2.60142e-01     2.09200e-02
     14031      14039      1  -0.016521   0.015716     3.00055e-01     6.91943e-02
     14031      14038      1  -0.016521   0.015716     3.00055e-01     6.91943e-02
     14030      14034      1   0.011511  -0.022462     3.00055e-01     6.91943e-02
     14030      14032      1   0.011511   0.008811     2.60142e-01     2.09200e-02
     14030      14033      1   0.011511   0.008811     2.60142e-01     2.09200e-02
     14029      14034      1   0.011511  -0.022462     3.00055e-01     6.91943e-02
     14029      14032      1   0.011511   0.008811     2.60142e-01     2.09200e-02
     14029      14033      1   0.011511   0.008811     2.60142e-01     2.09200e-02
     14028      14036      1  -0.027812   0.017026     3.00055e-01     6.91943e-02
     14028      14035      1  -0.027812   0.017026     3.00055e-01     6.91943e-02
     14027      14031      1   0.006833  -0.013767     3.00055e-01     6.91943e-02
     14027      14029      1   0.006833   0.009592     2.60142e-01     2.09200e-02
     14027      14030      1   0.006833   0.009592     2.60142e-01     2.09200e-02
     14026      14031      1   0.006833  -0.013767     3.00055e-01     6.91943e-02
     14026      14029      1   0.006833   0.009592     2.60142e-01     2.09200e-02
     14026      14030      1   0.006833   0.009592     2.60142e-01     2.09200e-02
     14025      14032      1  -0.004386   0.008811     3.00055e-01     6.91943e-02
     14025      14033      1  -0.004386   0.008811     3.00055e-01     6.91943e-02
     14024      14028      1   0.011241  -0.023177     3.00055e-01     6.91943e-02
     14024      14026      1   0.011241   0.005694     2.60142e-01     2.09200e-02
     14024      14027      1   0.011241   0.005694     2.60142e-01     2.09200e-02
     14023      14028      1   0.011241  -0.023177     3.00055e-01     6.91943e-02
     14023      14026      1   0.011241   0.005694     2.60142e-01     2.09200e-02
     14023      14027      1   0.011241   0.005694     2.60142e-01     2.09200e-02
     14022      14029      1  -0.026451   0.009592     3.00055e-01     6.91943e-02
     14022      14030      1  -0.026451   0.009592     3.00055e-01     6.91943e-02
     14021      14025      1   0.010172  -0.003655     3.00055e-01     6.91943e-02
     14021      14024      1   0.010172   0.009367     2.60142e-01     2.09200e-02
     14021      14023      1   0.010172   0.009367     2.60142e-01     2.09200e-02
     14020      14025      1   0.010172  -0.003655     3.00055e-01     6.91943e-02
     14020      14024      1   0.010172   0.009367     2.60142e-01     2.09200e-02
     14020      14023      1   0.010172   0.009367     2.60142e-01     2.09200e-02
     14019      14026      1  -0.014653   0.005694     3.00055e-01     6.91943e-02
     14019      14027      1  -0.014653   0.005694     3.00055e-01     6.91943e-02
     14018      14022      1   0.010037  -0.022042     3.00055e-01     6.91943e-02
     14018      14020      1   0.010037   0.008477     2.60142e-01     2.09200e-02
     14018      14021      1   0.010037   0.008477     2.60142e-01     2.09200e-02
     14017      14022      1   0.010037  -0.022042     3.00055e-01     6.91943e-02
     14017      14020      1   0.010037   0.008477     2.60142e-01     2.09200e-02
     14017      14021      1   0.010037   0.008477     2.60142e-01     2.09200e-02
     14016      14024      1  -0.021025   0.009367     3.00055e-01     6.91943e-02
     14016      14023      1  -0.021025   0.009367     3.00055e-01     6.91943e-02
     14015      14019      1   0.012677  -0.012211     3.00055e-01     6.91943e-02
     14015      14018      1   0.012677   0.008364     2.60142e-01     2.09200e-02
     14015      14017      1   0.012677   0.008364     2.60142e-01     2.09200e-02
     14014      14019      1   0.012677  -0.012211     3.00055e-01     6.91943e-02
     14014      14018      1   0.012677   0.008364     2.60142e-01     2.09200e-02
     14014      14017      1   0.012677   0.008364     2.60142e-01     2.09200e-02
     14013      14020      1  -0.031787   0.008477     3.00055e-01     6.91943e-02
     14013      14021      1  -0.031787   0.008477     3.00055e-01     6.91943e-02
     14012      14016      1   0.017208  -0.017521     3.00055e-01     6.91943e-02
     14012      14014      1   0.017208   0.010564     2.60142e-01     2.09200e-02
     14012      14015      1   0.017208   0.010564     2.60142e-01     2.09200e-02
     14011      14016      1   0.017208  -0.017521     3.00055e-01     6.91943e-02
     14011      14014      1   0.017208   0.010564     2.60142e-01     2.09200e-02
     14011      14015      1   0.017208   0.010564     2.60142e-01     2.09200e-02
     14010      14018      1  -0.028094   0.008364     3.00055e-01     6.91943e-02
     14010      14017      1  -0.028094   0.008364     3.00055e-01     6.91943e-02
     14009      14013      1   0.007531  -0.026489     3.00055e-01     6.91943e-02
     14009      14012      1   0.007531   0.014340     2.60142e-01     2.09200e-02
     14009      14011      1   0.007531   0.014340     2.60142e-01     2.09200e-02
     14008      14013      1   0.007531  -0.026489     3.00055e-01     6.91943e-02
     14008      14012      1   0.007531   0.014340     2.60142e-01     2.09200e-02
     14008      14011      1   0.007531   0.014340     2.60142e-01     2.09200e-02
     14007      14014      1   0.017463   0.010564     3.00055e-01     6.91943e-02
     14007      14015      1   0.017463   0.010564     3.00055e-01     6.91943e-02
     14006      14010      1   0.025511  -0.023412     3.00055e-01     6.91943e-02
     14006      14008      1   0.025511   0.006276     2.60142e-01     2.09200e-02
     14006      14009      1   0.025511   0.006276     2.60142e-01     2.09200e-02
     14005      14010      1   0.025511  -0.023412     3.00055e-01     6.91943e-02
     14005      14008      1   0.025511   0.006276     2.60142e-01     2.09200e-02
     14005      14009      1   0.025511   0.006276     2.60142e-01     2.09200e-02
     14004      14012      1  -0.111712   0.014340     3.00055e-01     6.91943e-02
     14004      14011      1  -0.111712   0.014340     3.00055e-01     6.91943e-02
     14003      14010      1   0.025511  -0.023412     3.00055e-01     6.91943e-02
     14003      14008      1   0.025511   0.006276     2.60142e-01     2.09200e-02
     14003      14009      1   0.025511   0.006276     2.60142e-01     2.09200e-02
     14082      14084      1   0.053944  -0.559638     2.78067e-01     9.58675e-02
     14082      14085      1   0.053944  -0.479574     2.80072e-01     8.62554e-02
     14081      14084      1   0.053944  -0.559638     2.78067e-01     9.58675e-02
     14081      14085      1   0.053944  -0.479574     2.80072e-01     8.62554e-02
     14079      14082      1   0.018859   0.044953     2.60142e-01     2.09200e-02
     14079      14081      1   0.018859   0.044953     2.60142e-01     2.09200e-02
     14079      14083      1   0.018859   0.758669     3.00055e-01     6.13495e-02
     14078      14082      1   0.018859   0.044953     2.60142e-01     2.09200e-02
     14078      14081      1   0.018859   0.044953     2.60142e-01     2.09200e-02
     14078      14083      1   0.018859   0.758669     3.00055e-01     6.13495e-02
     14076      14080      1   0.020431  -0.136833     3.00055e-01     6.91943e-02
     14076      14079      1   0.020431   0.015716     2.60142e-01     2.09200e-02
     14076      14078      1   0.020431   0.015716     2.60142e-01     2.09200e-02
     14075      14080      1   0.020431  -0.136833     3.00055e-01     6.91943e-02
     14075      14079      1   0.020431   0.015716     2.60142e-01     2.09200e-02
     14075      14078      1   0.020431   0.015716     2.60142e-01     2.09200e-02
     14074      14082      1  -0.026954   0.044953     3.00055e-01     6.91943e-02
     14074      14081      1  -0.026954   0.044953     3.00055e-01     6.91943e-02
     14073      14077      1   0.010573  -0.002029     3.00055e-01     6.91943e-02
     14073      14076      1   0.010573   0.017026     2.60142e-01     2.09200e-02
     14073      14075      1   0.010573   0.017026     2.60142e-01     2.09200e-02
     14072      14077      1   0.010573  -0.002029     3.00055e-01     6.91943e-02
     14072      14076      1   0.010573   0.017026     2.60142e-01     2.09200e-02
     14072      14075      1   0.010573   0.017026     2.60142e-01     2.09200e-02
     14071      14079      1  -0.016521   0.015716     3.00055e-01     6.91943e-02
     14071      14078      1  -0.016521   0.015716     3.00055e-01     6.91943e-02
     14070      14074      1   0.011511  -0.022462     3.00055e-01     6.91943e-02
     14070      14072      1   0.011511   0.008811     2.60142e-01     2.09200e-02
     14070      14073      1   0.011511   0.008811     2.60142e-01     2.09200e-02
     14069      14074      1   0.011511  -0.022462     3.00055e-01     6.91943e-02
     14069      14072      1   0.011511   0.008811     2.60142e-01     2.09200e-02
     14069      14073      1   0.011511   0.008811     2.60142e-01     2.09200e-02
     14068      14076      1  -0.027812   0.017026     3.00055e-01     6.91943e-02
     14068      14075      1  -0.027812   0.017026     3.00055e-01     6.91943e-02
     14067      14071      1   0.006833  -0.013767     3.00055e-01     6.91943e-02
     14067      14069      1   0.006833   0.009592     2.60142e-01     2.09200e-02
     14067      14070      1   0.006833   0.009592     2.60142e-01     2.09200e-02
     14066      14071      1   0.006833  -0.013767     3.00055e-01     6.91943e-02
     14066      14069      1   0.006833   0.009592     2.60142e-01     2.09200e-02
     14066      14070      1   0.006833   0.009592     2.60142e-01     2.09200e-02
     14065      14072      1  -0.004386   0.008811     3.00055e-01     6.91943e-02
     14065      14073      1  -0.004386   0.008811     3.00055e-01     6.91943e-02
     14064      14068      1   0.011241  -0.023177     3.00055e-01     6.91943e-02
     14064      14066      1   0.011241   0.005694     2.60142e-01     2.09200e-02
     14064      14067      1   0.011241   0.005694     2.60142e-01     2.09200e-02
     14063      14068      1   0.011241  -0.023177     3.00055e-01     6.91943e-02
     14063      14066      1   0.011241   0.005694     2.60142e-01     2.09200e-02
     14063      14067      1   0.011241   0.005694     2.60142e-01     2.09200e-02
     14062      14069      1  -0.026451   0.009592     3.00055e-01     6.91943e-02
     14062      14070      1  -0.026451   0.009592     3.00055e-01     6.91943e-02
     14061      14065      1   0.010172  -0.003655     3.00055e-01     6.91943e-02
     14061      14064      1   0.010172   0.009367     2.60142e-01     2.09200e-02
     14061      14063      1   0.010172   0.009367     2.60142e-01     2.09200e-02
     14060      14065      1   0.010172  -0.003655     3.00055e-01     6.91943e-02
     14060      14064      1   0.010172   0.009367     2.60142e-01     2.09200e-02
     14060      14063      1   0.010172   0.009367     2.60142e-01     2.09200e-02
     14059      14066      1  -0.014653   0.005694     3.00055e-01     6.91943e-02
     14059      14067      1  -0.014653   0.005694     3.00055e-01     6.91943e-02
     14058      14062      1   0.010037  -0.022042     3.00055e-01     6.91943e-02
     14058      14060      1   0.010037   0.008477     2.60142e-01     2.09200e-02
     14058      14061      1   0.010037   0.008477     2.60142e-01     2.09200e-02
     14057      14062      1   0.010037  -0.022042     3.00055e-01     6.91943e-02
     14057      14060      1   0.010037   0.008477     2.60142e-01     2.09200e-02
     14057      14061      1   0.010037   0.008477     2.60142e-01     2.09200e-02
     14056      14064      1  -0.021025   0.009367     3.00055e-01     6.91943e-02
     14056      14063      1  -0.021025   0.009367     3.00055e-01     6.91943e-02
     14055      14059      1   0.012677  -0.012211     3.00055e-01     6.91943e-02
     14055      14058      1   0.012677   0.008364     2.60142e-01     2.09200e-02
     14055      14057      1   0.012677   0.008364     2.60142e-01     2.09200e-02
     14054      14059      1   0.012677  -0.012211     3.00055e-01     6.91943e-02
     14054      14058      1   0.012677   0.008364     2.60142e-01     2.09200e-02
     14054      14057      1   0.012677   0.008364     2.60142e-01     2.09200e-02
     14053      14060      1  -0.031787   0.008477     3.00055e-01     6.91943e-02
     14053      14061      1  -0.031787   0.008477     3.00055e-01     6.91943e-02
     14052      14056      1   0.017208  -0.017521     3.00055e-01     6.91943e-02
     14052      14054      1   0.017208   0.010564     2.60142e-01     2.09200e-02
     14052      14055      1   0.017208   0.010564     2.60142e-01     2.09200e-02
     14051      14056      1   0.017208  -0.017521     3.00055e-01     6.91943e-02
     14051      14054      1   0.017208   0.010564     2.60142e-01     2.09200e-02
     14051      14055      1   0.017208   0.010564     2.60142e-01     2.09200e-02
     14050      14058      1  -0.028094   0.008364     3.00055e-01     6.91943e-02
     14050      14057      1  -0.028094   0.008364     3.00055e-01     6.91943e-02
     14049      14053      1   0.007531  -0.026489     3.00055e-01     6.91943e-02
     14049      14052      1   0.007531   0.014340     2.60142e-01     2.09200e-02
     14049      14051      1   0.007531   0.014340     2.60142e-01     2.09200e-02
     14048      14053      1   0.007531  -0.026489     3.00055e-01     6.91943e-02
     14048      14052      1   0.007531   0.014340     2.60142e-01     2.09200e-02
     14048      14051      1   0.007531   0.014340     2.60142e-01     2.09200e-02
     14047      14054      1   0.017463   0.010564     3.00055e-01     6.91943e-02
     14047      14055      1   0.017463   0.010564     3.00055e-01     6.91943e-02
     14046      14050      1   0.025511  -0.023412     3.00055e-01     6.91943e-02
     14046      14048      1   0.025511   0.006276     2.60142e-01     2.09200e-02
     14046      14049      1   0.025511   0.006276     2.60142e-01     2.09200e-02
     14045      14050      1   0.025511  -0.023412     3.00055e-01     6.91943e-02
     14045      14048      1   0.025511   0.006276     2.60142e-01     2.09200e-02
     14045      14049      1   0.025511   0.006276     2.60142e-01     2.09200e-02
     14044      14052      1  -0.111712   0.014340     3.00055e-01     6.91943e-02
     14044      14051      1  -0.111712   0.014340     3.00055e-01     6.91943e-02
     14043      14050      1   0.025511  -0.023412     3.00055e-01     6.91943e-02
     14043      14048      1   0.025511   0.006276     2.60142e-01     2.09200e-02
     14043      14049      1   0.025511   0.006276     2.60142e-01     2.09200e-02
     14120      14160      1  -0.673755   0.044953     2.78067e-01     9.58675e-02
     14120      14159      1  -0.673755   0.044953     2.78067e-01     9.58675e-02
     14119      14157      1   0.897613   0.015716     3.00055e-01     6.13495e-02
     14119      14156      1   0.897613   0.015716     3.00055e-01     6.13495e-02
     14118      14160      1  -0.552948   0.044953     2.80072e-01     8.62554e-02
     14118      14159      1  -0.552948   0.044953     2.80072e-01     8.62554e-02
     14111      14112      1   0.172230  -0.282478     2.67982e-01     8.67002e-02
     14110      14112      1   0.172230  -0.282478     2.67982e-01     8.67002e-02
     14109      14112      1   0.172230  -0.282478     2.67982e-01     8.67002e-02
     14108      14113      1  -0.338973   0.143525     2.67982e-01     8.67002e-02
     14108      14114      1  -0.338973   0.143525     2.67982e-01     8.67002e-02
     14108      14115      1  -0.338973   0.143525     2.67982e-01     8.67002e-02
     14107      14108      1   0.172230  -0.282478     2.67982e-01     8.67002e-02
     14107      14112      1   0.172230  -0.282478     2.67982e-01     8.67002e-02
     14106      14108      1   0.172230  -0.282478     2.67982e-01     8.67002e-02
     14106      14112      1   0.172230  -0.282478     2.67982e-01     8.67002e-02
     14105      14108      1   0.172230  -0.282478     2.67982e-01     8.67002e-02
     14105      14112      1   0.172230  -0.282478     2.67982e-01     8.67002e-02
     14104      14109      1  -0.338973   0.143525     2.67982e-01     8.67002e-02
     14104      14110      1  -0.338973   0.143525     2.67982e-01     8.67002e-02
     14104      14111      1  -0.338973   0.143525     2.67982e-01     8.67002e-02
     14104      14113      1  -0.338973   0.143525     2.67982e-01     8.67002e-02
     14104      14114      1  -0.338973   0.143525     2.67982e-01     8.67002e-02
     14104      14115      1  -0.338973   0.143525     2.67982e-01     8.67002e-02
     14102      14104      1   0.136415  -0.282478     2.67982e-01     8.67002e-02
     14102      14108      1   0.136415  -0.282478     2.67982e-01     8.67002e-02
     14102      14112      1   0.136415  -0.282478     2.67982e-01     8.67002e-02
     14101      14104      1   0.136415  -0.282478     2.67982e-01     8.67002e-02
     14101      14108      1   0.136415  -0.282478     2.67982e-01     8.67002e-02
     14101      14112      1   0.136415  -0.282478     2.67982e-01     8.67002e-02
     14100      14105      1  -0.170824   0.143525     2.67982e-01     8.67002e-02
     14100      14106      1  -0.170824   0.143525     2.67982e-01     8.67002e-02
     14100      14107      1  -0.170824   0.143525     2.67982e-01     8.67002e-02
     14100      14109      1  -0.170824   0.143525     2.67982e-01     8.67002e-02
     14100      14110      1  -0.170824   0.143525     2.67982e-01     8.67002e-02
     14100      14111      1  -0.170824   0.143525     2.67982e-01     8.67002e-02
     14100      14113      1  -0.170824   0.143525     2.67982e-01     8.67002e-02
     14100      14114      1  -0.170824   0.143525     2.67982e-01     8.67002e-02
     14100      14115      1  -0.170824   0.143525     2.67982e-01     8.67002e-02
     14099      14101      1   0.078534   0.113679     2.21567e-01     3.28444e-02
     14099      14102      1   0.078534   0.113679     2.21567e-01     3.28444e-02
     14099      14103      1   0.078534   0.204385     2.86068e-01     1.08078e-01
     14098      14101      1   0.078534   0.113679     2.21567e-01     3.28444e-02
     14098      14102      1   0.078534   0.113679     2.21567e-01     3.28444e-02
     14098      14103      1   0.078534   0.204385     2.86068e-01     1.08078e-01
     14096      14101      1  -0.508176   0.113679     2.47999e-01     1.08078e-01
     14096      14102      1  -0.508176   0.113679     2.47999e-01     1.08078e-01
     14095      14098      1   1.339721   0.065445     3.10656e-01     1.17227e-01
     14095      14099      1   1.339721   0.065445     3.10656e-01     1.17227e-01
     14093      14118      1   0.095591  -0.460790     2.73568e-01     1.08078e-01
     14093      14095      1   0.095591   1.116434     3.10656e-01     1.17227e-01
     14092      14118      1   0.095591  -0.460790     2.73568e-01     1.08078e-01
     14092      14095      1   0.095591   1.116434     3.10656e-01     1.17227e-01
     14090      14092      1   0.063253   0.079659     2.47135e-01     3.28444e-02
     14090      14093      1   0.063253   0.079659     2.47135e-01     3.28444e-02
     14090      14094      1   0.063253  -0.424567     2.73568e-01     1.08078e-01
     14090      14119      1   0.063253   0.748011     2.93551e-01     7.68707e-02
     14088      14090      1   0.070469   0.052711     2.47135e-01     3.28444e-02
     14088      14091      1   0.070469   0.014549     2.93551e-01     8.67002e-02
     14088      14118      1   0.070469  -0.460790     2.73568e-01     1.08078e-01
     14087      14090      1   0.070469   0.052711     2.47135e-01     3.28444e-02
     14087      14091      1   0.070469   0.014549     2.93551e-01     8.67002e-02
     14087      14118      1   0.070469  -0.460790     2.73568e-01     1.08078e-01
     14086      14092      1   0.196939   0.079659     2.93551e-01     8.67002e-02
     14086      14093      1   0.196939   0.079659     2.93551e-01     8.67002e-02
     14085      14090      1  -0.575489   0.052711     2.73568e-01     1.08078e-01
     14083      14087      1   0.910403   0.058724     2.93551e-01     7.68707e-02
     14083      14088      1   0.910403   0.058724     2.93551e-01     7.68707e-02
     14157      14160      1   0.018859   0.044953     2.60142e-01     2.09200e-02
     14157      14159      1   0.018859   0.044953     2.60142e-01     2.09200e-02
     14156      14160      1   0.018859   0.044953     2.60142e-01     2.09200e-02
     14156      14159      1   0.018859   0.044953     2.60142e-01     2.09200e-02
     14154      14158      1   0.020431  -0.136833     3.00055e-01     6.91943e-02
     14154      14157      1   0.020431   0.015716     2.60142e-01     2.09200e-02
     14154      14156      1   0.020431   0.015716     2.60142e-01     2.09200e-02
     14153      14158      1   0.020431  -0.136833     3.00055e-01     6.91943e-02
     14153      14157      1   0.020431   0.015716     2.60142e-01     2.09200e-02
     14153      14156      1   0.020431   0.015716     2.60142e-01     2.09200e-02
     14152      14160      1  -0.026954   0.044953     3.00055e-01     6.91943e-02
     14152      14159      1  -0.026954   0.044953     3.00055e-01     6.91943e-02
     14151      14155      1   0.010573  -0.002029     3.00055e-01     6.91943e-02
     14151      14154      1   0.010573   0.017026     2.60142e-01     2.09200e-02
     14151      14153      1   0.010573   0.017026     2.60142e-01     2.09200e-02
     14150      14155      1   0.010573  -0.002029     3.00055e-01     6.91943e-02
     14150      14154      1   0.010573   0.017026     2.60142e-01     2.09200e-02
     14150      14153      1   0.010573   0.017026     2.60142e-01     2.09200e-02
     14149      14157      1  -0.016521   0.015716     3.00055e-01     6.91943e-02
     14149      14156      1  -0.016521   0.015716     3.00055e-01     6.91943e-02
     14148      14152      1   0.011511  -0.022462     3.00055e-01     6.91943e-02
     14148      14150      1   0.011511   0.008811     2.60142e-01     2.09200e-02
     14148      14151      1   0.011511   0.008811     2.60142e-01     2.09200e-02
     14147      14152      1   0.011511  -0.022462     3.00055e-01     6.91943e-02
     14147      14150      1   0.011511   0.008811     2.60142e-01     2.09200e-02
     14147      14151      1   0.011511   0.008811     2.60142e-01     2.09200e-02
     14146      14154      1  -0.027812   0.017026     3.00055e-01     6.91943e-02
     14146      14153      1  -0.027812   0.017026     3.00055e-01     6.91943e-02
     14145      14149      1   0.006833  -0.013767     3.00055e-01     6.91943e-02
     14145      14147      1   0.006833   0.009592     2.60142e-01     2.09200e-02
     14145      14148      1   0.006833   0.009592     2.60142e-01     2.09200e-02
     14144      14149      1   0.006833  -0.013767     3.00055e-01     6.91943e-02
     14144      14147      1   0.006833   0.009592     2.60142e-01     2.09200e-02
     14144      14148      1   0.006833   0.009592     2.60142e-01     2.09200e-02
     14143      14150      1  -0.004386   0.008811     3.00055e-01     6.91943e-02
     14143      14151      1  -0.004386   0.008811     3.00055e-01     6.91943e-02
     14142      14146      1   0.011241  -0.023177     3.00055e-01     6.91943e-02
     14142      14144      1   0.011241   0.005694     2.60142e-01     2.09200e-02
     14142      14145      1   0.011241   0.005694     2.60142e-01     2.09200e-02
     14141      14146      1   0.011241  -0.023177     3.00055e-01     6.91943e-02
     14141      14144      1   0.011241   0.005694     2.60142e-01     2.09200e-02
     14141      14145      1   0.011241   0.005694     2.60142e-01     2.09200e-02
     14140      14147      1  -0.026451   0.009592     3.00055e-01     6.91943e-02
     14140      14148      1  -0.026451   0.009592     3.00055e-01     6.91943e-02
     14139      14143      1   0.010172  -0.003655     3.00055e-01     6.91943e-02
     14139      14142      1   0.010172   0.009367     2.60142e-01     2.09200e-02
     14139      14141      1   0.010172   0.009367     2.60142e-01     2.09200e-02
     14138      14143      1   0.010172  -0.003655     3.00055e-01     6.91943e-02
     14138      14142      1   0.010172   0.009367     2.60142e-01     2.09200e-02
     14138      14141      1   0.010172   0.009367     2.60142e-01     2.09200e-02
     14137      14144      1  -0.014653   0.005694     3.00055e-01     6.91943e-02
     14137      14145      1  -0.014653   0.005694     3.00055e-01     6.91943e-02
     14136      14140      1   0.010037  -0.022042     3.00055e-01     6.91943e-02
     14136      14138      1   0.010037   0.008477     2.60142e-01     2.09200e-02
     14136      14139      1   0.010037   0.008477     2.60142e-01     2.09200e-02
     14135      14140      1   0.010037  -0.022042     3.00055e-01     6.91943e-02
     14135      14138      1   0.010037   0.008477     2.60142e-01     2.09200e-02
     14135      14139      1   0.010037   0.008477     2.60142e-01     2.09200e-02
     14134      14142      1  -0.021025   0.009367     3.00055e-01     6.91943e-02
     14134      14141      1  -0.021025   0.009367     3.00055e-01     6.91943e-02
     14133      14137      1   0.012677  -0.012211     3.00055e-01     6.91943e-02
     14133      14136      1   0.012677   0.008364     2.60142e-01     2.09200e-02
     14133      14135      1   0.012677   0.008364     2.60142e-01     2.09200e-02
     14132      14137      1   0.012677  -0.012211     3.00055e-01     6.91943e-02
     14132      14136      1   0.012677   0.008364     2.60142e-01     2.09200e-02
     14132      14135      1   0.012677   0.008364     2.60142e-01     2.09200e-02
     14131      14138      1  -0.031787   0.008477     3.00055e-01     6.91943e-02
     14131      14139      1  -0.031787   0.008477     3.00055e-01     6.91943e-02
     14130      14134      1   0.017208  -0.017521     3.00055e-01     6.91943e-02
     14130      14132      1   0.017208   0.010564     2.60142e-01     2.09200e-02
     14130      14133      1   0.017208   0.010564     2.60142e-01     2.09200e-02
     14129      14134      1   0.017208  -0.017521     3.00055e-01     6.91943e-02
     14129      14132      1   0.017208   0.010564     2.60142e-01     2.09200e-02
     14129      14133      1   0.017208   0.010564     2.60142e-01     2.09200e-02
     14128      14136      1  -0.028094   0.008364     3.00055e-01     6.91943e-02
     14128      14135      1  -0.028094   0.008364     3.00055e-01     6.91943e-02
     14127      14131      1   0.007531  -0.026489     3.00055e-01     6.91943e-02
     14127      14130      1   0.007531   0.014340     2.60142e-01     2.09200e-02
     14127      14129      1   0.007531   0.014340     2.60142e-01     2.09200e-02
     14126      14131      1   0.007531  -0.026489     3.00055e-01     6.91943e-02
     14126      14130      1   0.007531   0.014340     2.60142e-01     2.09200e-02
     14126      14129      1   0.007531   0.014340     2.60142e-01     2.09200e-02
     14125      14132      1   0.017463   0.010564     3.00055e-01     6.91943e-02
     14125      14133      1   0.017463   0.010564     3.00055e-01     6.91943e-02
     14124      14128      1   0.025511  -0.023412     3.00055e-01     6.91943e-02
     14124      14126      1   0.025511   0.006276     2.60142e-01     2.09200e-02
     14124      14127      1   0.025511   0.006276     2.60142e-01     2.09200e-02
     14123      14128      1   0.025511  -0.023412     3.00055e-01     6.91943e-02
     14123      14126      1   0.025511   0.006276     2.60142e-01     2.09200e-02
     14123      14127      1   0.025511   0.006276     2.60142e-01     2.09200e-02
     14122      14130      1  -0.111712   0.014340     3.00055e-01     6.91943e-02
     14122      14129      1  -0.111712   0.014340     3.00055e-01     6.91943e-02
     14121      14128      1   0.025511  -0.023412     3.00055e-01     6.91943e-02
     14121      14126      1   0.025511   0.006276     2.60142e-01     2.09200e-02
     14121      14127      1   0.025511   0.006276     2.60142e-01     2.09200e-02
     14200      14202      1   0.053944  -0.559638     2.78067e-01     9.58675e-02
     14200      14203      1   0.053944  -0.479574     2.80072e-01     8.62554e-02
     14199      14202      1   0.053944  -0.559638     2.78067e-01     9.58675e-02
     14199      14203      1   0.053944  -0.479574     2.80072e-01     8.62554e-02
     14197      14200      1   0.018859   0.044953     2.60142e-01     2.09200e-02
     14197      14199      1   0.018859   0.044953     2.60142e-01     2.09200e-02
     14197      14201      1   0.018859   0.758669     3.00055e-01     6.13495e-02
     14196      14200      1   0.018859   0.044953     2.60142e-01     2.09200e-02
     14196      14199      1   0.018859   0.044953     2.60142e-01     2.09200e-02
     14196      14201      1   0.018859   0.758669     3.00055e-01     6.13495e-02
     14194      14198      1   0.020431  -0.136833     3.00055e-01     6.91943e-02
     14194      14197      1   0.020431   0.015716     2.60142e-01     2.09200e-02
     14194      14196      1   0.020431   0.015716     2.60142e-01     2.09200e-02
     14193      14198      1   0.020431  -0.136833     3.00055e-01     6.91943e-02
     14193      14197      1   0.020431   0.015716     2.60142e-01     2.09200e-02
     14193      14196      1   0.020431   0.015716     2.60142e-01     2.09200e-02
     14192      14200      1  -0.026954   0.044953     3.00055e-01     6.91943e-02
     14192      14199      1  -0.026954   0.044953     3.00055e-01     6.91943e-02
     14191      14195      1   0.010573  -0.002029     3.00055e-01     6.91943e-02
     14191      14194      1   0.010573   0.017026     2.60142e-01     2.09200e-02
     14191      14193      1   0.010573   0.017026     2.60142e-01     2.09200e-02
     14190      14195      1   0.010573  -0.002029     3.00055e-01     6.91943e-02
     14190      14194      1   0.010573   0.017026     2.60142e-01     2.09200e-02
     14190      14193      1   0.010573   0.017026     2.60142e-01     2.09200e-02
     14189      14197      1  -0.016521   0.015716     3.00055e-01     6.91943e-02
     14189      14196      1  -0.016521   0.015716     3.00055e-01     6.91943e-02
     14188      14192      1   0.011511  -0.022462     3.00055e-01     6.91943e-02
     14188      14190      1   0.011511   0.008811     2.60142e-01     2.09200e-02
     14188      14191      1   0.011511   0.008811     2.60142e-01     2.09200e-02
     14187      14192      1   0.011511  -0.022462     3.00055e-01     6.91943e-02
     14187      14190      1   0.011511   0.008811     2.60142e-01     2.09200e-02
     14187      14191      1   0.011511   0.008811     2.60142e-01     2.09200e-02
     14186      14194      1  -0.027812   0.017026     3.00055e-01     6.91943e-02
     14186      14193      1  -0.027812   0.017026     3.00055e-01     6.91943e-02
     14185      14189      1   0.006833  -0.013767     3.00055e-01     6.91943e-02
     14185      14187      1   0.006833   0.009592     2.60142e-01     2.09200e-02
     14185      14188      1   0.006833   0.009592     2.60142e-01     2.09200e-02
     14184      14189      1   0.006833  -0.013767     3.00055e-01     6.91943e-02
     14184      14187      1   0.006833   0.009592     2.60142e-01     2.09200e-02
     14184      14188      1   0.006833   0.009592     2.60142e-01     2.09200e-02
     14183      14190      1  -0.004386   0.008811     3.00055e-01     6.91943e-02
     14183      14191      1  -0.004386   0.008811     3.00055e-01     6.91943e-02
     14182      14186      1   0.011241  -0.023177     3.00055e-01     6.91943e-02
     14182      14184      1   0.011241   0.005694     2.60142e-01     2.09200e-02
     14182      14185      1   0.011241   0.005694     2.60142e-01     2.09200e-02
     14181      14186      1   0.011241  -0.023177     3.00055e-01     6.91943e-02
     14181      14184      1   0.011241   0.005694     2.60142e-01     2.09200e-02
     14181      14185      1   0.011241   0.005694     2.60142e-01     2.09200e-02
     14180      14187      1  -0.026451   0.009592     3.00055e-01     6.91943e-02
     14180      14188      1  -0.026451   0.009592     3.00055e-01     6.91943e-02
     14179      14183      1   0.010172  -0.003655     3.00055e-01     6.91943e-02
     14179      14182      1   0.010172   0.009367     2.60142e-01     2.09200e-02
     14179      14181      1   0.010172   0.009367     2.60142e-01     2.09200e-02
     14178      14183      1   0.010172  -0.003655     3.00055e-01     6.91943e-02
     14178      14182      1   0.010172   0.009367     2.60142e-01     2.09200e-02
     14178      14181      1   0.010172   0.009367     2.60142e-01     2.09200e-02
     14177      14184      1  -0.014653   0.005694     3.00055e-01     6.91943e-02
     14177      14185      1  -0.014653   0.005694     3.00055e-01     6.91943e-02
     14176      14180      1   0.010037  -0.022042     3.00055e-01     6.91943e-02
     14176      14178      1   0.010037   0.008477     2.60142e-01     2.09200e-02
     14176      14179      1   0.010037   0.008477     2.60142e-01     2.09200e-02
     14175      14180      1   0.010037  -0.022042     3.00055e-01     6.91943e-02
     14175      14178      1   0.010037   0.008477     2.60142e-01     2.09200e-02
     14175      14179      1   0.010037   0.008477     2.60142e-01     2.09200e-02
     14174      14182      1  -0.021025   0.009367     3.00055e-01     6.91943e-02
     14174      14181      1  -0.021025   0.009367     3.00055e-01     6.91943e-02
     14173      14177      1   0.012677  -0.012211     3.00055e-01     6.91943e-02
     14173      14176      1   0.012677   0.008364     2.60142e-01     2.09200e-02
     14173      14175      1   0.012677   0.008364     2.60142e-01     2.09200e-02
     14172      14177      1   0.012677  -0.012211     3.00055e-01     6.91943e-02
     14172      14176      1   0.012677   0.008364     2.60142e-01     2.09200e-02
     14172      14175      1   0.012677   0.008364     2.60142e-01     2.09200e-02
     14171      14178      1  -0.031787   0.008477     3.00055e-01     6.91943e-02
     14171      14179      1  -0.031787   0.008477     3.00055e-01     6.91943e-02
     14170      14174      1   0.017208  -0.017521     3.00055e-01     6.91943e-02
     14170      14172      1   0.017208   0.010564     2.60142e-01     2.09200e-02
     14170      14173      1   0.017208   0.010564     2.60142e-01     2.09200e-02
     14169      14174      1   0.017208  -0.017521     3.00055e-01     6.91943e-02
     14169      14172      1   0.017208   0.010564     2.60142e-01     2.09200e-02
     14169      14173      1   0.017208   0.010564     2.60142e-01     2.09200e-02
     14168      14176      1  -0.028094   0.008364     3.00055e-01     6.91943e-02
     14168      14175      1  -0.028094   0.008364     3.00055e-01     6.91943e-02
     14167      14171      1   0.007531  -0.026489     3.00055e-01     6.91943e-02
     14167      14170      1   0.007531   0.014340     2.60142e-01     2.09200e-02
     14167      14169      1   0.007531   0.014340     2.60142e-01     2.09200e-02
     14166      14171      1   0.007531  -0.026489     3.00055e-01     6.91943e-02
     14166      14170      1   0.007531   0.014340     2.60142e-01     2.09200e-02
     14166      14169      1   0.007531   0.014340     2.60142e-01     2.09200e-02
     14165      14172      1   0.017463   0.010564     3.00055e-01     6.91943e-02
     14165      14173      1   0.017463   0.010564     3.00055e-01     6.91943e-02
     14164      14168      1   0.025511  -0.023412     3.00055e-01     6.91943e-02
     14164      14166      1   0.025511   0.006276     2.60142e-01     2.09200e-02
     14164      14167      1   0.025511   0.006276     2.60142e-01     2.09200e-02
     14163      14168      1   0.025511  -0.023412     3.00055e-01     6.91943e-02
     14163      14166      1   0.025511   0.006276     2.60142e-01     2.09200e-02
     14163      14167      1   0.025511   0.006276     2.60142e-01     2.09200e-02
     14162      14170      1  -0.111712   0.014340     3.00055e-01     6.91943e-02
     14162      14169      1  -0.111712   0.014340     3.00055e-01     6.91943e-02
     14161      14168      1   0.025511  -0.023412     3.00055e-01     6.91943e-02
     14161      14166      1   0.025511   0.006276     2.60142e-01     2.09200e-02
     14161      14167      1   0.025511   0.006276     2.60142e-01     2.09200e-02
     14238      14278      1  -0.673755   0.044953     2.78067e-01     9.58675e-02
     14238      14277      1  -0.673755   0.044953     2.78067e-01     9.58675e-02
     14237      14275      1   0.897613   0.015716     3.00055e-01     6.13495e-02
     14237      14274      1   0.897613   0.015716     3.00055e-01     6.13495e-02
     14236      14278      1  -0.552948   0.044953     2.80072e-01     8.62554e-02
     14236      14277      1  -0.552948   0.044953     2.80072e-01     8.62554e-02
     14229      14230      1   0.172230  -0.282478     2.67982e-01     8.67002e-02
     14228      14230      1   0.172230  -0.282478     2.67982e-01     8.67002e-02
     14227      14230      1   0.172230  -0.282478     2.67982e-01     8.67002e-02
     14226      14231      1  -0.338973   0.143525     2.67982e-01     8.67002e-02
     14226      14232      1  -0.338973   0.143525     2.67982e-01     8.67002e-02
     14226      14233      1  -0.338973   0.143525     2.67982e-01     8.67002e-02
     14225      14226      1   0.172230  -0.282478     2.67982e-01     8.67002e-02
     14225      14230      1   0.172230  -0.282478     2.67982e-01     8.67002e-02
     14224      14226      1   0.172230  -0.282478     2.67982e-01     8.67002e-02
     14224      14230      1   0.172230  -0.282478     2.67982e-01     8.67002e-02
     14223      14226      1   0.172230  -0.282478     2.67982e-01     8.67002e-02
     14223      14230      1   0.172230  -0.282478     2.67982e-01     8.67002e-02
     14222      14227      1  -0.338973   0.143525     2.67982e-01     8.67002e-02
     14222      14228      1  -0.338973   0.143525     2.67982e-01     8.67002e-02
     14222      14229      1  -0.338973   0.143525     2.67982e-01     8.67002e-02
     14222      14231      1  -0.338973   0.143525     2.67982e-01     8.67002e-02
     14222      14232      1  -0.338973   0.143525     2.67982e-01     8.67002e-02
     14222      14233      1  -0.338973   0.143525     2.67982e-01     8.67002e-02
     14220      14222      1   0.136415  -0.282478     2.67982e-01     8.67002e-02
     14220      14226      1   0.136415  -0.282478     2.67982e-01     8.67002e-02
     14220      14230      1   0.136415  -0.282478     2.67982e-01     8.67002e-02
     14219      14222      1   0.136415  -0.282478     2.67982e-01     8.67002e-02
     14219      14226      1   0.136415  -0.282478     2.67982e-01     8.67002e-02
     14219      14230      1   0.136415  -0.282478     2.67982e-01     8.67002e-02
     14218      14223      1  -0.170824   0.143525     2.67982e-01     8.67002e-02
     14218      14224      1  -0.170824   0.143525     2.67982e-01     8.67002e-02
     14218      14225      1  -0.170824   0.143525     2.67982e-01     8.67002e-02
     14218      14227      1  -0.170824   0.143525     2.67982e-01     8.67002e-02
     14218      14228      1  -0.170824   0.143525     2.67982e-01     8.67002e-02
     14218      14229      1  -0.170824   0.143525     2.67982e-01     8.67002e-02
     14218      14231      1  -0.170824   0.143525     2.67982e-01     8.67002e-02
     14218      14232      1  -0.170824   0.143525     2.67982e-01     8.67002e-02
     14218      14233      1  -0.170824   0.143525     2.67982e-01     8.67002e-02
     14217      14219      1   0.078534   0.113679     2.21567e-01     3.28444e-02
     14217      14220      1   0.078534   0.113679     2.21567e-01     3.28444e-02
     14217      14221      1   0.078534   0.204385     2.86068e-01     1.08078e-01
     14216      14219      1   0.078534   0.113679     2.21567e-01     3.28444e-02
     14216      14220      1   0.078534   0.113679     2.21567e-01     3.28444e-02
     14216      14221      1   0.078534   0.204385     2.86068e-01     1.08078e-01
     14214      14219      1  -0.508176   0.113679     2.47999e-01     1.08078e-01
     14214      14220      1  -0.508176   0.113679     2.47999e-01     1.08078e-01
     14213      14216      1   1.339721   0.065445     3.10656e-01     1.17227e-01
     14213      14217      1   1.339721   0.065445     3.10656e-01     1.17227e-01
     14211      14236      1   0.095591  -0.460790     2.73568e-01     1.08078e-01
     14211      14213      1   0.095591   1.116434     3.10656e-01     1.17227e-01
     14210      14236      1   0.095591  -0.460790     2.73568e-01     1.08078e-01
     14210      14213      1   0.095591   1.116434     3.10656e-01     1.17227e-01
     14208      14210      1   0.063253   0.079659     2.47135e-01     3.28444e-02
     14208      14211      1   0.063253   0.079659     2.47135e-01     3.28444e-02
     14208      14212      1   0.063253  -0.424567     2.73568e-01     1.08078e-01
     14208      14237      1   0.063253   0.748011     2.93551e-01     7.68707e-02
     14206      14208      1   0.070469   0.052711     2.47135e-01     3.28444e-02
     14206      14209      1   0.070469   0.014549     2.93551e-01     8.67002e-02
     14206      14236      1   0.070469  -0.460790     2.73568e-01     1.08078e-01
     14205      14208      1   0.070469   0.052711     2.47135e-01     3.28444e-02
     14205      14209      1   0.070469   0.014549     2.93551e-01     8.67002e-02
     14205      14236      1   0.070469  -0.460790     2.73568e-01     1.08078e-01
     14204      14210      1   0.196939   0.079659     2.93551e-01     8.67002e-02
     14204      14211      1   0.196939   0.079659     2.93551e-01     8.67002e-02
     14203      14208      1  -0.575489   0.052711     2.73568e-01     1.08078e-01
     14201      14205      1   0.910403   0.058724     2.93551e-01     7.68707e-02
     14201      14206      1   0.910403   0.058724     2.93551e-01     7.68707e-02
     14275      14278      1   0.018859   0.044953     2.60142e-01     2.09200e-02
     14275      14277      1   0.018859   0.044953     2.60142e-01     2.09200e-02
     14274      14278      1   0.018859   0.044953     2.60142e-01     2.09200e-02
     14274      14277      1   0.018859   0.044953     2.60142e-01     2.09200e-02
     14272      14276      1   0.020431  -0.136833     3.00055e-01     6.91943e-02
     14272      14275      1   0.020431   0.015716     2.60142e-01     2.09200e-02
     14272      14274      1   0.020431   0.015716     2.60142e-01     2.09200e-02
     14271      14276      1   0.020431  -0.136833     3.00055e-01     6.91943e-02
     14271      14275      1   0.020431   0.015716     2.60142e-01     2.09200e-02
     14271      14274      1   0.020431   0.015716     2.60142e-01     2.09200e-02
     14270      14278      1  -0.026954   0.044953     3.00055e-01     6.91943e-02
     14270      14277      1  -0.026954   0.044953     3.00055e-01     6.91943e-02
     14269      14273      1   0.010573  -0.002029     3.00055e-01     6.91943e-02
     14269      14272      1   0.010573   0.017026     2.60142e-01     2.09200e-02
     14269      14271      1   0.010573   0.017026     2.60142e-01     2.09200e-02
     14268      14273      1   0.010573  -0.002029     3.00055e-01     6.91943e-02
     14268      14272      1   0.010573   0.017026     2.60142e-01     2.09200e-02
     14268      14271      1   0.010573   0.017026     2.60142e-01     2.09200e-02
     14267      14275      1  -0.016521   0.015716     3.00055e-01     6.91943e-02
     14267      14274      1  -0.016521   0.015716     3.00055e-01     6.91943e-02
     14266      14270      1   0.011511  -0.022462     3.00055e-01     6.91943e-02
     14266      14268      1   0.011511   0.008811     2.60142e-01     2.09200e-02
     14266      14269      1   0.011511   0.008811     2.60142e-01     2.09200e-02
     14265      14270      1   0.011511  -0.022462     3.00055e-01     6.91943e-02
     14265      14268      1   0.011511   0.008811     2.60142e-01     2.09200e-02
     14265      14269      1   0.011511   0.008811     2.60142e-01     2.09200e-02
     14264      14272      1  -0.027812   0.017026     3.00055e-01     6.91943e-02
     14264      14271      1  -0.027812   0.017026     3.00055e-01     6.91943e-02
     14263      14267      1   0.006833  -0.013767     3.00055e-01     6.91943e-02
     14263      14265      1   0.006833   0.009592     2.60142e-01     2.09200e-02
     14263      14266      1   0.006833   0.009592     2.60142e-01     2.09200e-02
     14262      14267      1   0.006833  -0.013767     3.00055e-01     6.91943e-02
     14262      14265      1   0.006833   0.009592     2.60142e-01     2.09200e-02
     14262      14266      1   0.006833   0.009592     2.60142e-01     2.09200e-02
     14261      14268      1  -0.004386   0.008811     3.00055e-01     6.91943e-02
     14261      14269      1  -0.004386   0.008811     3.00055e-01     6.91943e-02
     14260      14264      1   0.011241  -0.023177     3.00055e-01     6.91943e-02
     14260      14262      1   0.011241   0.005694     2.60142e-01     2.09200e-02
     14260      14263      1   0.011241   0.005694     2.60142e-01     2.09200e-02
     14259      14264      1   0.011241  -0.023177     3.00055e-01     6.91943e-02
     14259      14262      1   0.011241   0.005694     2.60142e-01     2.09200e-02
     14259      14263      1   0.011241   0.005694     2.60142e-01     2.09200e-02
     14258      14265      1  -0.026451   0.009592     3.00055e-01     6.91943e-02
     14258      14266      1  -0.026451   0.009592     3.00055e-01     6.91943e-02
     14257      14261      1   0.010172  -0.003655     3.00055e-01     6.91943e-02
     14257      14260      1   0.010172   0.009367     2.60142e-01     2.09200e-02
     14257      14259      1   0.010172   0.009367     2.60142e-01     2.09200e-02
     14256      14261      1   0.010172  -0.003655     3.00055e-01     6.91943e-02
     14256      14260      1   0.010172   0.009367     2.60142e-01     2.09200e-02
     14256      14259      1   0.010172   0.009367     2.60142e-01     2.09200e-02
     14255      14262      1  -0.014653   0.005694     3.00055e-01     6.91943e-02
     14255      14263      1  -0.014653   0.005694     3.00055e-01     6.91943e-02
     14254      14258      1   0.010037  -0.022042     3.00055e-01     6.91943e-02
     14254      14256      1   0.010037   0.008477     2.60142e-01     2.09200e-02
     14254      14257      1   0.010037   0.008477     2.60142e-01     2.09200e-02
     14253      14258      1   0.010037  -0.022042     3.00055e-01     6.91943e-02
     14253      14256      1   0.010037   0.008477     2.60142e-01     2.09200e-02
     14253      14257      1   0.010037   0.008477     2.60142e-01     2.09200e-02
     14252      14260      1  -0.021025   0.009367     3.00055e-01     6.91943e-02
     14252      14259      1  -0.021025   0.009367     3.00055e-01     6.91943e-02
     14251      14255      1   0.012677  -0.012211     3.00055e-01     6.91943e-02
     14251      14254      1   0.012677   0.008364     2.60142e-01     2.09200e-02
     14251      14253      1   0.012677   0.008364     2.60142e-01     2.09200e-02
     14250      14255      1   0.012677  -0.012211     3.00055e-01     6.91943e-02
     14250      14254      1   0.012677   0.008364     2.60142e-01     2.09200e-02
     14250      14253      1   0.012677   0.008364     2.60142e-01     2.09200e-02
     14249      14256      1  -0.031787   0.008477     3.00055e-01     6.91943e-02
     14249      14257      1  -0.031787   0.008477     3.00055e-01     6.91943e-02
     14248      14252      1   0.017208  -0.017521     3.00055e-01     6.91943e-02
     14248      14250      1   0.017208   0.010564     2.60142e-01     2.09200e-02
     14248      14251      1   0.017208   0.010564     2.60142e-01     2.09200e-02
     14247      14252      1   0.017208  -0.017521     3.00055e-01     6.91943e-02
     14247      14250      1   0.017208   0.010564     2.60142e-01     2.09200e-02
     14247      14251      1   0.017208   0.010564     2.60142e-01     2.09200e-02
     14246      14254      1  -0.028094   0.008364     3.00055e-01     6.91943e-02
     14246      14253      1  -0.028094   0.008364     3.00055e-01     6.91943e-02
     14245      14249      1   0.007531  -0.026489     3.00055e-01     6.91943e-02
     14245      14248      1   0.007531   0.014340     2.60142e-01     2.09200e-02
     14245      14247      1   0.007531   0.014340     2.60142e-01     2.09200e-02
     14244      14249      1   0.007531  -0.026489     3.00055e-01     6.91943e-02
     14244      14248      1   0.007531   0.014340     2.60142e-01     2.09200e-02
     14244      14247      1   0.007531   0.014340     2.60142e-01     2.09200e-02
     14243      14250      1   0.017463   0.010564     3.00055e-01     6.91943e-02
     14243      14251      1   0.017463   0.010564     3.00055e-01     6.91943e-02
     14242      14246      1   0.025511  -0.023412     3.00055e-01     6.91943e-02
     14242      14244      1   0.025511   0.006276     2.60142e-01     2.09200e-02
     14242      14245      1   0.025511   0.006276     2.60142e-01     2.09200e-02
     14241      14246      1   0.025511  -0.023412     3.00055e-01     6.91943e-02
     14241      14244      1   0.025511   0.006276     2.60142e-01     2.09200e-02
     14241      14245      1   0.025511   0.006276     2.60142e-01     2.09200e-02
     14240      14248      1  -0.111712   0.014340     3.00055e-01     6.91943e-02
     14240      14247      1  -0.111712   0.014340     3.00055e-01     6.91943e-02
     14239      14246      1   0.025511  -0.023412     3.00055e-01     6.91943e-02
     14239      14244      1   0.025511   0.006276     2.60142e-01     2.09200e-02
     14239      14245      1   0.025511   0.006276     2.60142e-01     2.09200e-02
     14318      14320      1   0.053944  -0.559638     2.78067e-01     9.58675e-02
     14318      14321      1   0.053944  -0.479574     2.80072e-01     8.62554e-02
     14317      14320      1   0.053944  -0.559638     2.78067e-01     9.58675e-02
     14317      14321      1   0.053944  -0.479574     2.80072e-01     8.62554e-02
     14315      14318      1   0.018859   0.044953     2.60142e-01     2.09200e-02
     14315      14317      1   0.018859   0.044953     2.60142e-01     2.09200e-02
     14315      14319      1   0.018859   0.758669     3.00055e-01     6.13495e-02
     14314      14318      1   0.018859   0.044953     2.60142e-01     2.09200e-02
     14314      14317      1   0.018859   0.044953     2.60142e-01     2.09200e-02
     14314      14319      1   0.018859   0.758669     3.00055e-01     6.13495e-02
     14312      14316      1   0.020431  -0.136833     3.00055e-01     6.91943e-02
     14312      14315      1   0.020431   0.015716     2.60142e-01     2.09200e-02
     14312      14314      1   0.020431   0.015716     2.60142e-01     2.09200e-02
     14311      14316      1   0.020431  -0.136833     3.00055e-01     6.91943e-02
     14311      14315      1   0.020431   0.015716     2.60142e-01     2.09200e-02
     14311      14314      1   0.020431   0.015716     2.60142e-01     2.09200e-02
     14310      14318      1  -0.026954   0.044953     3.00055e-01     6.91943e-02
     14310      14317      1  -0.026954   0.044953     3.00055e-01     6.91943e-02
     14309      14313      1   0.010573  -0.002029     3.00055e-01     6.91943e-02
     14309      14312      1   0.010573   0.017026     2.60142e-01     2.09200e-02
     14309      14311      1   0.010573   0.017026     2.60142e-01     2.09200e-02
     14308      14313      1   0.010573  -0.002029     3.00055e-01     6.91943e-02
     14308      14312      1   0.010573   0.017026     2.60142e-01     2.09200e-02
     14308      14311      1   0.010573   0.017026     2.60142e-01     2.09200e-02
     14307      14315      1  -0.016521   0.015716     3.00055e-01     6.91943e-02
     14307      14314      1  -0.016521   0.015716     3.00055e-01     6.91943e-02
     14306      14310      1   0.011511  -0.022462     3.00055e-01     6.91943e-02
     14306      14308      1   0.011511   0.008811     2.60142e-01     2.09200e-02
     14306      14309      1   0.011511   0.008811     2.60142e-01     2.09200e-02
     14305      14310      1   0.011511  -0.022462     3.00055e-01     6.91943e-02
     14305      14308      1   0.011511   0.008811     2.60142e-01     2.09200e-02
     14305      14309      1   0.011511   0.008811     2.60142e-01     2.09200e-02
     14304      14312      1  -0.027812   0.017026     3.00055e-01     6.91943e-02
     14304      14311      1  -0.027812   0.017026     3.00055e-01     6.91943e-02
     14303      14307      1   0.006833  -0.013767     3.00055e-01     6.91943e-02
     14303      14305      1   0.006833   0.009592     2.60142e-01     2.09200e-02
     14303      14306      1   0.006833   0.009592     2.60142e-01     2.09200e-02
     14302      14307      1   0.006833  -0.013767     3.00055e-01     6.91943e-02
     14302      14305      1   0.006833   0.009592     2.60142e-01     2.09200e-02
     14302      14306      1   0.006833   0.009592     2.60142e-01     2.09200e-02
     14301      14308      1  -0.004386   0.008811     3.00055e-01     6.91943e-02
     14301      14309      1  -0.004386   0.008811     3.00055e-01     6.91943e-02
     14300      14304      1   0.011241  -0.023177     3.00055e-01     6.91943e-02
     14300      14302      1   0.011241   0.005694     2.60142e-01     2.09200e-02
     14300      14303      1   0.011241   0.005694     2.60142e-01     2.09200e-02
     14299      14304      1   0.011241  -0.023177     3.00055e-01     6.91943e-02
     14299      14302      1   0.011241   0.005694     2.60142e-01     2.09200e-02
     14299      14303      1   0.011241   0.005694     2.60142e-01     2.09200e-02
     14298      14305      1  -0.026451   0.009592     3.00055e-01     6.91943e-02
     14298      14306      1  -0.026451   0.009592     3.00055e-01     6.91943e-02
     14297      14301      1   0.010172  -0.003655     3.00055e-01     6.91943e-02
     14297      14300      1   0.010172   0.009367     2.60142e-01     2.09200e-02
     14297      14299      1   0.010172   0.009367     2.60142e-01     2.09200e-02
     14296      14301      1   0.010172  -0.003655     3.00055e-01     6.91943e-02
     14296      14300      1   0.010172   0.009367     2.60142e-01     2.09200e-02
     14296      14299      1   0.010172   0.009367     2.60142e-01     2.09200e-02
     14295      14302      1  -0.014653   0.005694     3.00055e-01     6.91943e-02
     14295      14303      1  -0.014653   0.005694     3.00055e-01     6.91943e-02
     14294      14298      1   0.010037  -0.022042     3.00055e-01     6.91943e-02
     14294      14296      1   0.010037   0.008477     2.60142e-01     2.09200e-02
     14294      14297      1   0.010037   0.008477     2.60142e-01     2.09200e-02
     14293      14298      1   0.010037  -0.022042     3.00055e-01     6.91943e-02
     14293      14296      1   0.010037   0.008477     2.60142e-01     2.09200e-02
     14293      14297      1   0.010037   0.008477     2.60142e-01     2.09200e-02
     14292      14300      1  -0.021025   0.009367     3.00055e-01     6.91943e-02
     14292      14299      1  -0.021025   0.009367     3.00055e-01     6.91943e-02
     14291      14295      1   0.012677  -0.012211     3.00055e-01     6.91943e-02
     14291      14294      1   0.012677   0.008364     2.60142e-01     2.09200e-02
     14291      14293      1   0.012677   0.008364     2.60142e-01     2.09200e-02
     14290      14295      1   0.012677  -0.012211     3.00055e-01     6.91943e-02
     14290      14294      1   0.012677   0.008364     2.60142e-01     2.09200e-02
     14290      14293      1   0.012677   0.008364     2.60142e-01     2.09200e-02
     14289      14296      1  -0.031787   0.008477     3.00055e-01     6.91943e-02
     14289      14297      1  -0.031787   0.008477     3.00055e-01     6.91943e-02
     14288      14292      1   0.017208  -0.017521     3.00055e-01     6.91943e-02
     14288      14290      1   0.017208   0.010564     2.60142e-01     2.09200e-02
     14288      14291      1   0.017208   0.010564     2.60142e-01     2.09200e-02
     14287      14292      1   0.017208  -0.017521     3.00055e-01     6.91943e-02
     14287      14290      1   0.017208   0.010564     2.60142e-01     2.09200e-02
     14287      14291      1   0.017208   0.010564     2.60142e-01     2.09200e-02
     14286      14294      1  -0.028094   0.008364     3.00055e-01     6.91943e-02
     14286      14293      1  -0.028094   0.008364     3.00055e-01     6.91943e-02
     14285      14289      1   0.007531  -0.026489     3.00055e-01     6.91943e-02
     14285      14288      1   0.007531   0.014340     2.60142e-01     2.09200e-02
     14285      14287      1   0.007531   0.014340     2.60142e-01     2.09200e-02
     14284      14289      1   0.007531  -0.026489     3.00055e-01     6.91943e-02
     14284      14288      1   0.007531   0.014340     2.60142e-01     2.09200e-02
     14284      14287      1   0.007531   0.014340     2.60142e-01     2.09200e-02
     14283      14290      1   0.017463   0.010564     3.00055e-01     6.91943e-02
     14283      14291      1   0.017463   0.010564     3.00055e-01     6.91943e-02
     14282      14286      1   0.025511  -0.023412     3.00055e-01     6.91943e-02
     14282      14284      1   0.025511   0.006276     2.60142e-01     2.09200e-02
     14282      14285      1   0.025511   0.006276     2.60142e-01     2.09200e-02
     14281      14286      1   0.025511  -0.023412     3.00055e-01     6.91943e-02
     14281      14284      1   0.025511   0.006276     2.60142e-01     2.09200e-02
     14281      14285      1   0.025511   0.006276     2.60142e-01     2.09200e-02
     14280      14288      1  -0.111712   0.014340     3.00055e-01     6.91943e-02
     14280      14287      1  -0.111712   0.014340     3.00055e-01     6.91943e-02
     14279      14286      1   0.025511  -0.023412     3.00055e-01     6.91943e-02
     14279      14284      1   0.025511   0.006276     2.60142e-01     2.09200e-02
     14279      14285      1   0.025511   0.006276     2.60142e-01     2.09200e-02
     14356      14396      1  -0.673755   0.044953     2.78067e-01     9.58675e-02
     14356      14395      1  -0.673755   0.044953     2.78067e-01     9.58675e-02
     14355      14393      1   0.897613   0.015716     3.00055e-01     6.13495e-02
     14355      14392      1   0.897613   0.015716     3.00055e-01     6.13495e-02
     14354      14396      1  -0.552948   0.044953     2.80072e-01     8.62554e-02
     14354      14395      1  -0.552948   0.044953     2.80072e-01     8.62554e-02
     14347      14348      1   0.172230  -0.282478     2.67982e-01     8.67002e-02
     14346      14348      1   0.172230  -0.282478     2.67982e-01     8.67002e-02
     14345      14348      1   0.172230  -0.282478     2.67982e-01     8.67002e-02
     14344      14349      1  -0.338973   0.143525     2.67982e-01     8.67002e-02
     14344      14350      1  -0.338973   0.143525     2.67982e-01     8.67002e-02
     14344      14351      1  -0.338973   0.143525     2.67982e-01     8.67002e-02
     14343      14344      1   0.172230  -0.282478     2.67982e-01     8.67002e-02
     14343      14348      1   0.172230  -0.282478     2.67982e-01     8.67002e-02
     14342      14344      1   0.172230  -0.282478     2.67982e-01     8.67002e-02
     14342      14348      1   0.172230  -0.282478     2.67982e-01     8.67002e-02
     14341      14344      1   0.172230  -0.282478     2.67982e-01     8.67002e-02
     14341      14348      1   0.172230  -0.282478     2.67982e-01     8.67002e-02
     14340      14345      1  -0.338973   0.143525     2.67982e-01     8.67002e-02
     14340      14346      1  -0.338973   0.143525     2.67982e-01     8.67002e-02
     14340      14347      1  -0.338973   0.143525     2.67982e-01     8.67002e-02
     14340      14349      1  -0.338973   0.143525     2.67982e-01     8.67002e-02
     14340      14350      1  -0.338973   0.143525     2.67982e-01     8.67002e-02
     14340      14351      1  -0.338973   0.143525     2.67982e-01     8.67002e-02
     14338      14340      1   0.136415  -0.282478     2.67982e-01     8.67002e-02
     14338      14344      1   0.136415  -0.282478     2.67982e-01     8.67002e-02
     14338      14348      1   0.136415  -0.282478     2.67982e-01     8.67002e-02
     14337      14340      1   0.136415  -0.282478     2.67982e-01     8.67002e-02
     14337      14344      1   0.136415  -0.282478     2.67982e-01     8.67002e-02
     14337      14348      1   0.136415  -0.282478     2.67982e-01     8.67002e-02
     14336      14341      1  -0.170824   0.143525     2.67982e-01     8.67002e-02
     14336      14342      1  -0.170824   0.143525     2.67982e-01     8.67002e-02
     14336      14343      1  -0.170824   0.143525     2.67982e-01     8.67002e-02
     14336      14345      1  -0.170824   0.143525     2.67982e-01     8.67002e-02
     14336      14346      1  -0.170824   0.143525     2.67982e-01     8.67002e-02
     14336      14347      1  -0.170824   0.143525     2.67982e-01     8.67002e-02
     14336      14349      1  -0.170824   0.143525     2.67982e-01     8.67002e-02
     14336      14350      1  -0.170824   0.143525     2.67982e-01     8.67002e-02
     14336      14351      1  -0.170824   0.143525     2.67982e-01     8.67002e-02
     14335      14337      1   0.078534   0.113679     2.21567e-01     3.28444e-02
     14335      14338      1   0.078534   0.113679     2.21567e-01     3.28444e-02
     14335      14339      1   0.078534   0.204385     2.86068e-01     1.08078e-01
     14334      14337      1   0.078534   0.113679     2.21567e-01     3.28444e-02
     14334      14338      1   0.078534   0.113679     2.21567e-01     3.28444e-02
     14334      14339      1   0.078534   0.204385     2.86068e-01     1.08078e-01
     14332      14337      1  -0.508176   0.113679     2.47999e-01     1.08078e-01
     14332      14338      1  -0.508176   0.113679     2.47999e-01     1.08078e-01
     14331      14334      1   1.339721   0.065445     3.10656e-01     1.17227e-01
     14331      14335      1   1.339721   0.065445     3.10656e-01     1.17227e-01
     14329      14354      1   0.095591  -0.460790     2.73568e-01     1.08078e-01
     14329      14331      1   0.095591   1.116434     3.10656e-01     1.17227e-01
     14328      14354      1   0.095591  -0.460790     2.73568e-01     1.08078e-01
     14328      14331      1   0.095591   1.116434     3.10656e-01     1.17227e-01
     14326      14328      1   0.063253   0.079659     2.47135e-01     3.28444e-02
     14326      14329      1   0.063253   0.079659     2.47135e-01     3.28444e-02
     14326      14330      1   0.063253  -0.424567     2.73568e-01     1.08078e-01
     14326      14355      1   0.063253   0.748011     2.93551e-01     7.68707e-02
     14324      14326      1   0.070469   0.052711     2.47135e-01     3.28444e-02
     14324      14327      1   0.070469   0.014549     2.93551e-01     8.67002e-02
     14324      14354      1   0.070469  -0.460790     2.73568e-01     1.08078e-01
     14323      14326      1   0.070469   0.052711     2.47135e-01     3.28444e-02
     14323      14327      1   0.070469   0.014549     2.93551e-01     8.67002e-02
     14323      14354      1   0.070469  -0.460790     2.73568e-01     1.08078e-01
     14322      14328      1   0.196939   0.079659     2.93551e-01     8.67002e-02
     14322      14329      1   0.196939   0.079659     2.93551e-01     8.67002e-02
     14321      14326      1  -0.575489   0.052711     2.73568e-01     1.08078e-01
     14319      14323      1   0.910403   0.058724     2.93551e-01     7.68707e-02
     14319      14324      1   0.910403   0.058724     2.93551e-01     7.68707e-02
     14393      14396      1   0.018859   0.044953     2.60142e-01     2.09200e-02
     14393      14395      1   0.018859   0.044953     2.60142e-01     2.09200e-02
     14392      14396      1   0.018859   0.044953     2.60142e-01     2.09200e-02
     14392      14395      1   0.018859   0.044953     2.60142e-01     2.09200e-02
     14390      14394      1   0.020431  -0.136833     3.00055e-01     6.91943e-02
     14390      14393      1   0.020431   0.015716     2.60142e-01     2.09200e-02
     14390      14392      1   0.020431   0.015716     2.60142e-01     2.09200e-02
     14389      14394      1   0.020431  -0.136833     3.00055e-01     6.91943e-02
     14389      14393      1   0.020431   0.015716     2.60142e-01     2.09200e-02
     14389      14392      1   0.020431   0.015716     2.60142e-01     2.09200e-02
     14388      14396      1  -0.026954   0.044953     3.00055e-01     6.91943e-02
     14388      14395      1  -0.026954   0.044953     3.00055e-01     6.91943e-02
     14387      14391      1   0.010573  -0.002029     3.00055e-01     6.91943e-02
     14387      14390      1   0.010573   0.017026     2.60142e-01     2.09200e-02
     14387      14389      1   0.010573   0.017026     2.60142e-01     2.09200e-02
     14386      14391      1   0.010573  -0.002029     3.00055e-01     6.91943e-02
     14386      14390      1   0.010573   0.017026     2.60142e-01     2.09200e-02
     14386      14389      1   0.010573   0.017026     2.60142e-01     2.09200e-02
     14385      14393      1  -0.016521   0.015716     3.00055e-01     6.91943e-02
     14385      14392      1  -0.016521   0.015716     3.00055e-01     6.91943e-02
     14384      14388      1   0.011511  -0.022462     3.00055e-01     6.91943e-02
     14384      14386      1   0.011511   0.008811     2.60142e-01     2.09200e-02
     14384      14387      1   0.011511   0.008811     2.60142e-01     2.09200e-02
     14383      14388      1   0.011511  -0.022462     3.00055e-01     6.91943e-02
     14383      14386      1   0.011511   0.008811     2.60142e-01     2.09200e-02
     14383      14387      1   0.011511   0.008811     2.60142e-01     2.09200e-02
     14382      14390      1  -0.027812   0.017026     3.00055e-01     6.91943e-02
     14382      14389      1  -0.027812   0.017026     3.00055e-01     6.91943e-02
     14381      14385      1   0.006833  -0.013767     3.00055e-01     6.91943e-02
     14381      14383      1   0.006833   0.009592     2.60142e-01     2.09200e-02
     14381      14384      1   0.006833   0.009592     2.60142e-01     2.09200e-02
     14380      14385      1   0.006833  -0.013767     3.00055e-01     6.91943e-02
     14380      14383      1   0.006833   0.009592     2.60142e-01     2.09200e-02
     14380      14384      1   0.006833   0.009592     2.60142e-01     2.09200e-02
     14379      14386      1  -0.004386   0.008811     3.00055e-01     6.91943e-02
     14379      14387      1  -0.004386   0.008811     3.00055e-01     6.91943e-02
     14378      14382      1   0.011241  -0.023177     3.00055e-01     6.91943e-02
     14378      14380      1   0.011241   0.005694     2.60142e-01     2.09200e-02
     14378      14381      1   0.011241   0.005694     2.60142e-01     2.09200e-02
     14377      14382      1   0.011241  -0.023177     3.00055e-01     6.91943e-02
     14377      14380      1   0.011241   0.005694     2.60142e-01     2.09200e-02
     14377      14381      1   0.011241   0.005694     2.60142e-01     2.09200e-02
     14376      14383      1  -0.026451   0.009592     3.00055e-01     6.91943e-02
     14376      14384      1  -0.026451   0.009592     3.00055e-01     6.91943e-02
     14375      14379      1   0.010172  -0.003655     3.00055e-01     6.91943e-02
     14375      14378      1   0.010172   0.009367     2.60142e-01     2.09200e-02
     14375      14377      1   0.010172   0.009367     2.60142e-01     2.09200e-02
     14374      14379      1   0.010172  -0.003655     3.00055e-01     6.91943e-02
     14374      14378      1   0.010172   0.009367     2.60142e-01     2.09200e-02
     14374      14377      1   0.010172   0.009367     2.60142e-01     2.09200e-02
     14373      14380      1  -0.014653   0.005694     3.00055e-01     6.91943e-02
     14373      14381      1  -0.014653   0.005694     3.00055e-01     6.91943e-02
     14372      14376      1   0.010037  -0.022042     3.00055e-01     6.91943e-02
     14372      14374      1   0.010037   0.008477     2.60142e-01     2.09200e-02
     14372      14375      1   0.010037   0.008477     2.60142e-01     2.09200e-02
     14371      14376      1   0.010037  -0.022042     3.00055e-01     6.91943e-02
     14371      14374      1   0.010037   0.008477     2.60142e-01     2.09200e-02
     14371      14375      1   0.010037   0.008477     2.60142e-01     2.09200e-02
     14370      14378      1  -0.021025   0.009367     3.00055e-01     6.91943e-02
     14370      14377      1  -0.021025   0.009367     3.00055e-01     6.91943e-02
     14369      14373      1   0.012677  -0.012211     3.00055e-01     6.91943e-02
     14369      14372      1   0.012677   0.008364     2.60142e-01     2.09200e-02
     14369      14371      1   0.012677   0.008364     2.60142e-01     2.09200e-02
     14368      14373      1   0.012677  -0.012211     3.00055e-01     6.91943e-02
     14368      14372      1   0.012677   0.008364     2.60142e-01     2.09200e-02
     14368      14371      1   0.012677   0.008364     2.60142e-01     2.09200e-02
     14367      14374      1  -0.031787   0.008477     3.00055e-01     6.91943e-02
     14367      14375      1  -0.031787   0.008477     3.00055e-01     6.91943e-02
     14366      14370      1   0.017208  -0.017521     3.00055e-01     6.91943e-02
     14366      14368      1   0.017208   0.010564     2.60142e-01     2.09200e-02
     14366      14369      1   0.017208   0.010564     2.60142e-01     2.09200e-02
     14365      14370      1   0.017208  -0.017521     3.00055e-01     6.91943e-02
     14365      14368      1   0.017208   0.010564     2.60142e-01     2.09200e-02
     14365      14369      1   0.017208   0.010564     2.60142e-01     2.09200e-02
     14364      14372      1  -0.028094   0.008364     3.00055e-01     6.91943e-02
     14364      14371      1  -0.028094   0.008364     3.00055e-01     6.91943e-02
     14363      14367      1   0.007531  -0.026489     3.00055e-01     6.91943e-02
     14363      14366      1   0.007531   0.014340     2.60142e-01     2.09200e-02
     14363      14365      1   0.007531   0.014340     2.60142e-01     2.09200e-02
     14362      14367      1   0.007531  -0.026489     3.00055e-01     6.91943e-02
     14362      14366      1   0.007531   0.014340     2.60142e-01     2.09200e-02
     14362      14365      1   0.007531   0.014340     2.60142e-01     2.09200e-02
     14361      14368      1   0.017463   0.010564     3.00055e-01     6.91943e-02
     14361      14369      1   0.017463   0.010564     3.00055e-01     6.91943e-02
     14360      14364      1   0.025511  -0.023412     3.00055e-01     6.91943e-02
     14360      14362      1   0.025511   0.006276     2.60142e-01     2.09200e-02
     14360      14363      1   0.025511   0.006276     2.60142e-01     2.09200e-02
     14359      14364      1   0.025511  -0.023412     3.00055e-01     6.91943e-02
     14359      14362      1   0.025511   0.006276     2.60142e-01     2.09200e-02
     14359      14363      1   0.025511   0.006276     2.60142e-01     2.09200e-02
     14358      14366      1  -0.111712   0.014340     3.00055e-01     6.91943e-02
     14358      14365      1  -0.111712   0.014340     3.00055e-01     6.91943e-02
     14357      14364      1   0.025511  -0.023412     3.00055e-01     6.91943e-02
     14357      14362      1   0.025511   0.006276     2.60142e-01     2.09200e-02
     14357      14363      1   0.025511   0.006276     2.60142e-01     2.09200e-02
     14436      14438      1   0.053944  -0.559638     2.78067e-01     9.58675e-02
     14436      14439      1   0.053944  -0.479574     2.80072e-01     8.62554e-02
     14435      14438      1   0.053944  -0.559638     2.78067e-01     9.58675e-02
     14435      14439      1   0.053944  -0.479574     2.80072e-01     8.62554e-02
     14433      14436      1   0.018859   0.044953     2.60142e-01     2.09200e-02
     14433      14435      1   0.018859   0.044953     2.60142e-01     2.09200e-02
     14433      14437      1   0.018859   0.758669     3.00055e-01     6.13495e-02
     14432      14436      1   0.018859   0.044953     2.60142e-01     2.09200e-02
     14432      14435      1   0.018859   0.044953     2.60142e-01     2.09200e-02
     14432      14437      1   0.018859   0.758669     3.00055e-01     6.13495e-02
     14430      14434      1   0.020431  -0.136833     3.00055e-01     6.91943e-02
     14430      14433      1   0.020431   0.015716     2.60142e-01     2.09200e-02
     14430      14432      1   0.020431   0.015716     2.60142e-01     2.09200e-02
     14429      14434      1   0.020431  -0.136833     3.00055e-01     6.91943e-02
     14429      14433      1   0.020431   0.015716     2.60142e-01     2.09200e-02
     14429      14432      1   0.020431   0.015716     2.60142e-01     2.09200e-02
     14428      14436      1  -0.026954   0.044953     3.00055e-01     6.91943e-02
     14428      14435      1  -0.026954   0.044953     3.00055e-01     6.91943e-02
     14427      14431      1   0.010573  -0.002029     3.00055e-01     6.91943e-02
     14427      14430      1   0.010573   0.017026     2.60142e-01     2.09200e-02
     14427      14429      1   0.010573   0.017026     2.60142e-01     2.09200e-02
     14426      14431      1   0.010573  -0.002029     3.00055e-01     6.91943e-02
     14426      14430      1   0.010573   0.017026     2.60142e-01     2.09200e-02
     14426      14429      1   0.010573   0.017026     2.60142e-01     2.09200e-02
     14425      14433      1  -0.016521   0.015716     3.00055e-01     6.91943e-02
     14425      14432      1  -0.016521   0.015716     3.00055e-01     6.91943e-02
     14424      14428      1   0.011511  -0.022462     3.00055e-01     6.91943e-02
     14424      14426      1   0.011511   0.008811     2.60142e-01     2.09200e-02
     14424      14427      1   0.011511   0.008811     2.60142e-01     2.09200e-02
     14423      14428      1   0.011511  -0.022462     3.00055e-01     6.91943e-02
     14423      14426      1   0.011511   0.008811     2.60142e-01     2.09200e-02
     14423      14427      1   0.011511   0.008811     2.60142e-01     2.09200e-02
     14422      14430      1  -0.027812   0.017026     3.00055e-01     6.91943e-02
     14422      14429      1  -0.027812   0.017026     3.00055e-01     6.91943e-02
     14421      14425      1   0.006833  -0.013767     3.00055e-01     6.91943e-02
     14421      14423      1   0.006833   0.009592     2.60142e-01     2.09200e-02
     14421      14424      1   0.006833   0.009592     2.60142e-01     2.09200e-02
     14420      14425      1   0.006833  -0.013767     3.00055e-01     6.91943e-02
     14420      14423      1   0.006833   0.009592     2.60142e-01     2.09200e-02
     14420      14424      1   0.006833   0.009592     2.60142e-01     2.09200e-02
     14419      14426      1  -0.004386   0.008811     3.00055e-01     6.91943e-02
     14419      14427      1  -0.004386   0.008811     3.00055e-01     6.91943e-02
     14418      14422      1   0.011241  -0.023177     3.00055e-01     6.91943e-02
     14418      14420      1   0.011241   0.005694     2.60142e-01     2.09200e-02
     14418      14421      1   0.011241   0.005694     2.60142e-01     2.09200e-02
     14417      14422      1   0.011241  -0.023177     3.00055e-01     6.91943e-02
     14417      14420      1   0.011241   0.005694     2.60142e-01     2.09200e-02
     14417      14421      1   0.011241   0.005694     2.60142e-01     2.09200e-02
     14416      14423      1  -0.026451   0.009592     3.00055e-01     6.91943e-02
     14416      14424      1  -0.026451   0.009592     3.00055e-01     6.91943e-02
     14415      14419      1   0.010172  -0.003655     3.00055e-01     6.91943e-02
     14415      14418      1   0.010172   0.009367     2.60142e-01     2.09200e-02
     14415      14417      1   0.010172   0.009367     2.60142e-01     2.09200e-02
     14414      14419      1   0.010172  -0.003655     3.00055e-01     6.91943e-02
     14414      14418      1   0.010172   0.009367     2.60142e-01     2.09200e-02
     14414      14417      1   0.010172   0.009367     2.60142e-01     2.09200e-02
     14413      14420      1  -0.014653   0.005694     3.00055e-01     6.91943e-02
     14413      14421      1  -0.014653   0.005694     3.00055e-01     6.91943e-02
     14412      14416      1   0.010037  -0.022042     3.00055e-01     6.91943e-02
     14412      14414      1   0.010037   0.008477     2.60142e-01     2.09200e-02
     14412      14415      1   0.010037   0.008477     2.60142e-01     2.09200e-02
     14411      14416      1   0.010037  -0.022042     3.00055e-01     6.91943e-02
     14411      14414      1   0.010037   0.008477     2.60142e-01     2.09200e-02
     14411      14415      1   0.010037   0.008477     2.60142e-01     2.09200e-02
     14410      14418      1  -0.021025   0.009367     3.00055e-01     6.91943e-02
     14410      14417      1  -0.021025   0.009367     3.00055e-01     6.91943e-02
     14409      14413      1   0.012677  -0.012211     3.00055e-01     6.91943e-02
     14409      14412      1   0.012677   0.008364     2.60142e-01     2.09200e-02
     14409      14411      1   0.012677   0.008364     2.60142e-01     2.09200e-02
     14408      14413      1   0.012677  -0.012211     3.00055e-01     6.91943e-02
     14408      14412      1   0.012677   0.008364     2.60142e-01     2.09200e-02
     14408      14411      1   0.012677   0.008364     2.60142e-01     2.09200e-02
     14407      14414      1  -0.031787   0.008477     3.00055e-01     6.91943e-02
     14407      14415      1  -0.031787   0.008477     3.00055e-01     6.91943e-02
     14406      14410      1   0.017208  -0.017521     3.00055e-01     6.91943e-02
     14406      14408      1   0.017208   0.010564     2.60142e-01     2.09200e-02
     14406      14409      1   0.017208   0.010564     2.60142e-01     2.09200e-02
     14405      14410      1   0.017208  -0.017521     3.00055e-01     6.91943e-02
     14405      14408      1   0.017208   0.010564     2.60142e-01     2.09200e-02
     14405      14409      1   0.017208   0.010564     2.60142e-01     2.09200e-02
     14404      14412      1  -0.028094   0.008364     3.00055e-01     6.91943e-02
     14404      14411      1  -0.028094   0.008364     3.00055e-01     6.91943e-02
     14403      14407      1   0.007531  -0.026489     3.00055e-01     6.91943e-02
     14403      14406      1   0.007531   0.014340     2.60142e-01     2.09200e-02
     14403      14405      1   0.007531   0.014340     2.60142e-01     2.09200e-02
     14402      14407      1   0.007531  -0.026489     3.00055e-01     6.91943e-02
     14402      14406      1   0.007531   0.014340     2.60142e-01     2.09200e-02
     14402      14405      1   0.007531   0.014340     2.60142e-01     2.09200e-02
     14401      14408      1   0.017463   0.010564     3.00055e-01     6.91943e-02
     14401      14409      1   0.017463   0.010564     3.00055e-01     6.91943e-02
     14400      14404      1   0.025511  -0.023412     3.00055e-01     6.91943e-02
     14400      14402      1   0.025511   0.006276     2.60142e-01     2.09200e-02
     14400      14403      1   0.025511   0.006276     2.60142e-01     2.09200e-02
     14399      14404      1   0.025511  -0.023412     3.00055e-01     6.91943e-02
     14399      14402      1   0.025511   0.006276     2.60142e-01     2.09200e-02
     14399      14403      1   0.025511   0.006276     2.60142e-01     2.09200e-02
     14398      14406      1  -0.111712   0.014340     3.00055e-01     6.91943e-02
     14398      14405      1  -0.111712   0.014340     3.00055e-01     6.91943e-02
     14397      14404      1   0.025511  -0.023412     3.00055e-01     6.91943e-02
     14397      14402      1   0.025511   0.006276     2.60142e-01     2.09200e-02
     14397      14403      1   0.025511   0.006276     2.60142e-01     2.09200e-02
     14474      14514      1  -0.673755   0.044953     2.78067e-01     9.58675e-02
     14474      14513      1  -0.673755   0.044953     2.78067e-01     9.58675e-02
     14473      14511      1   0.897613   0.015716     3.00055e-01     6.13495e-02
     14473      14510      1   0.897613   0.015716     3.00055e-01     6.13495e-02
     14472      14514      1  -0.552948   0.044953     2.80072e-01     8.62554e-02
     14472      14513      1  -0.552948   0.044953     2.80072e-01     8.62554e-02
     14465      14466      1   0.172230  -0.282478     2.67982e-01     8.67002e-02
     14464      14466      1   0.172230  -0.282478     2.67982e-01     8.67002e-02
     14463      14466      1   0.172230  -0.282478     2.67982e-01     8.67002e-02
     14462      14467      1  -0.338973   0.143525     2.67982e-01     8.67002e-02
     14462      14468      1  -0.338973   0.143525     2.67982e-01     8.67002e-02
     14462      14469      1  -0.338973   0.143525     2.67982e-01     8.67002e-02
     14461      14462      1   0.172230  -0.282478     2.67982e-01     8.67002e-02
     14461      14466      1   0.172230  -0.282478     2.67982e-01     8.67002e-02
     14460      14462      1   0.172230  -0.282478     2.67982e-01     8.67002e-02
     14460      14466      1   0.172230  -0.282478     2.67982e-01     8.67002e-02
     14459      14462      1   0.172230  -0.282478     2.67982e-01     8.67002e-02
     14459      14466      1   0.172230  -0.282478     2.67982e-01     8.67002e-02
     14458      14463      1  -0.338973   0.143525     2.67982e-01     8.67002e-02
     14458      14464      1  -0.338973   0.143525     2.67982e-01     8.67002e-02
     14458      14465      1  -0.338973   0.143525     2.67982e-01     8.67002e-02
     14458      14467      1  -0.338973   0.143525     2.67982e-01     8.67002e-02
     14458      14468      1  -0.338973   0.143525     2.67982e-01     8.67002e-02
     14458      14469      1  -0.338973   0.143525     2.67982e-01     8.67002e-02
     14456      14458      1   0.136415  -0.282478     2.67982e-01     8.67002e-02
     14456      14462      1   0.136415  -0.282478     2.67982e-01     8.67002e-02
     14456      14466      1   0.136415  -0.282478     2.67982e-01     8.67002e-02
     14455      14458      1   0.136415  -0.282478     2.67982e-01     8.67002e-02
     14455      14462      1   0.136415  -0.282478     2.67982e-01     8.67002e-02
     14455      14466      1   0.136415  -0.282478     2.67982e-01     8.67002e-02
     14454      14459      1  -0.170824   0.143525     2.67982e-01     8.67002e-02
     14454      14460      1  -0.170824   0.143525     2.67982e-01     8.67002e-02
     14454      14461      1  -0.170824   0.143525     2.67982e-01     8.67002e-02
     14454      14463      1  -0.170824   0.143525     2.67982e-01     8.67002e-02
     14454      14464      1  -0.170824   0.143525     2.67982e-01     8.67002e-02
     14454      14465      1  -0.170824   0.143525     2.67982e-01     8.67002e-02
     14454      14467      1  -0.170824   0.143525     2.67982e-01     8.67002e-02
     14454      14468      1  -0.170824   0.143525     2.67982e-01     8.67002e-02
     14454      14469      1  -0.170824   0.143525     2.67982e-01     8.67002e-02
     14453      14455      1   0.078534   0.113679     2.21567e-01     3.28444e-02
     14453      14456      1   0.078534   0.113679     2.21567e-01     3.28444e-02
     14453      14457      1   0.078534   0.204385     2.86068e-01     1.08078e-01
     14452      14455      1   0.078534   0.113679     2.21567e-01     3.28444e-02
     14452      14456      1   0.078534   0.113679     2.21567e-01     3.28444e-02
     14452      14457      1   0.078534   0.204385     2.86068e-01     1.08078e-01
     14450      14455      1  -0.508176   0.113679     2.47999e-01     1.08078e-01
     14450      14456      1  -0.508176   0.113679     2.47999e-01     1.08078e-01
     14449      14452      1   1.339721   0.065445     3.10656e-01     1.17227e-01
     14449      14453      1   1.339721   0.065445     3.10656e-01     1.17227e-01
     14447      14472      1   0.095591  -0.460790     2.73568e-01     1.08078e-01
     14447      14449      1   0.095591   1.116434     3.10656e-01     1.17227e-01
     14446      14472      1   0.095591  -0.460790     2.73568e-01     1.08078e-01
     14446      14449      1   0.095591   1.116434     3.10656e-01     1.17227e-01
     14444      14446      1   0.063253   0.079659     2.47135e-01     3.28444e-02
     14444      14447      1   0.063253   0.079659     2.47135e-01     3.28444e-02
     14444      14448      1   0.063253  -0.424567     2.73568e-01     1.08078e-01
     14444      14473      1   0.063253   0.748011     2.93551e-01     7.68707e-02
     14442      14444      1   0.070469   0.052711     2.47135e-01     3.28444e-02
     14442      14445      1   0.070469   0.014549     2.93551e-01     8.67002e-02
     14442      14472      1   0.070469  -0.460790     2.73568e-01     1.08078e-01
     14441      14444      1   0.070469   0.052711     2.47135e-01     3.28444e-02
     14441      14445      1   0.070469   0.014549     2.93551e-01     8.67002e-02
     14441      14472      1   0.070469  -0.460790     2.73568e-01     1.08078e-01
     14440      14446      1   0.196939   0.079659     2.93551e-01     8.67002e-02
     14440      14447      1   0.196939   0.079659     2.93551e-01     8.67002e-02
     14439      14444      1  -0.575489   0.052711     2.73568e-01     1.08078e-01
     14437      14441      1   0.910403   0.058724     2.93551e-01     7.68707e-02
     14437      14442      1   0.910403   0.058724     2.93551e-01     7.68707e-02
     14511      14514      1   0.018859   0.044953     2.60142e-01     2.09200e-02
     14511      14513      1   0.018859   0.044953     2.60142e-01     2.09200e-02
     14510      14514      1   0.018859   0.044953     2.60142e-01     2.09200e-02
     14510      14513      1   0.018859   0.044953     2.60142e-01     2.09200e-02
     14508      14512      1   0.020431  -0.136833     3.00055e-01     6.91943e-02
     14508      14511      1   0.020431   0.015716     2.60142e-01     2.09200e-02
     14508      14510      1   0.020431   0.015716     2.60142e-01     2.09200e-02
     14507      14512      1   0.020431  -0.136833     3.00055e-01     6.91943e-02
     14507      14511      1   0.020431   0.015716     2.60142e-01     2.09200e-02
     14507      14510      1   0.020431   0.015716     2.60142e-01     2.09200e-02
     14506      14514      1  -0.026954   0.044953     3.00055e-01     6.91943e-02
     14506      14513      1  -0.026954   0.044953     3.00055e-01     6.91943e-02
     14505      14509      1   0.010573  -0.002029     3.00055e-01     6.91943e-02
     14505      14508      1   0.010573   0.017026     2.60142e-01     2.09200e-02
     14505      14507      1   0.010573   0.017026     2.60142e-01     2.09200e-02
     14504      14509      1   0.010573  -0.002029     3.00055e-01     6.91943e-02
     14504      14508      1   0.010573   0.017026     2.60142e-01     2.09200e-02
     14504      14507      1   0.010573   0.017026     2.60142e-01     2.09200e-02
     14503      14511      1  -0.016521   0.015716     3.00055e-01     6.91943e-02
     14503      14510      1  -0.016521   0.015716     3.00055e-01     6.91943e-02
     14502      14506      1   0.011511  -0.022462     3.00055e-01     6.91943e-02
     14502      14504      1   0.011511   0.008811     2.60142e-01     2.09200e-02
     14502      14505      1   0.011511   0.008811     2.60142e-01     2.09200e-02
     14501      14506      1   0.011511  -0.022462     3.00055e-01     6.91943e-02
     14501      14504      1   0.011511   0.008811     2.60142e-01     2.09200e-02
     14501      14505      1   0.011511   0.008811     2.60142e-01     2.09200e-02
     14500      14508      1  -0.027812   0.017026     3.00055e-01     6.91943e-02
     14500      14507      1  -0.027812   0.017026     3.00055e-01     6.91943e-02
     14499      14503      1   0.006833  -0.013767     3.00055e-01     6.91943e-02
     14499      14501      1   0.006833   0.009592     2.60142e-01     2.09200e-02
     14499      14502      1   0.006833   0.009592     2.60142e-01     2.09200e-02
     14498      14503      1   0.006833  -0.013767     3.00055e-01     6.91943e-02
     14498      14501      1   0.006833   0.009592     2.60142e-01     2.09200e-02
     14498      14502      1   0.006833   0.009592     2.60142e-01     2.09200e-02
     14497      14504      1  -0.004386   0.008811     3.00055e-01     6.91943e-02
     14497      14505      1  -0.004386   0.008811     3.00055e-01     6.91943e-02
     14496      14500      1   0.011241  -0.023177     3.00055e-01     6.91943e-02
     14496      14498      1   0.011241   0.005694     2.60142e-01     2.09200e-02
     14496      14499      1   0.011241   0.005694     2.60142e-01     2.09200e-02
     14495      14500      1   0.011241  -0.023177     3.00055e-01     6.91943e-02
     14495      14498      1   0.011241   0.005694     2.60142e-01     2.09200e-02
     14495      14499      1   0.011241   0.005694     2.60142e-01     2.09200e-02
     14494      14501      1  -0.026451   0.009592     3.00055e-01     6.91943e-02
     14494      14502      1  -0.026451   0.009592     3.00055e-01     6.91943e-02
     14493      14497      1   0.010172  -0.003655     3.00055e-01     6.91943e-02
     14493      14496      1   0.010172   0.009367     2.60142e-01     2.09200e-02
     14493      14495      1   0.010172   0.009367     2.60142e-01     2.09200e-02
     14492      14497      1   0.010172  -0.003655     3.00055e-01     6.91943e-02
     14492      14496      1   0.010172   0.009367     2.60142e-01     2.09200e-02
     14492      14495      1   0.010172   0.009367     2.60142e-01     2.09200e-02
     14491      14498      1  -0.014653   0.005694     3.00055e-01     6.91943e-02
     14491      14499      1  -0.014653   0.005694     3.00055e-01     6.91943e-02
     14490      14494      1   0.010037  -0.022042     3.00055e-01     6.91943e-02
     14490      14492      1   0.010037   0.008477     2.60142e-01     2.09200e-02
     14490      14493      1   0.010037   0.008477     2.60142e-01     2.09200e-02
     14489      14494      1   0.010037  -0.022042     3.00055e-01     6.91943e-02
     14489      14492      1   0.010037   0.008477     2.60142e-01     2.09200e-02
     14489      14493      1   0.010037   0.008477     2.60142e-01     2.09200e-02
     14488      14496      1  -0.021025   0.009367     3.00055e-01     6.91943e-02
     14488      14495      1  -0.021025   0.009367     3.00055e-01     6.91943e-02
     14487      14491      1   0.012677  -0.012211     3.00055e-01     6.91943e-02
     14487      14490      1   0.012677   0.008364     2.60142e-01     2.09200e-02
     14487      14489      1   0.012677   0.008364     2.60142e-01     2.09200e-02
     14486      14491      1   0.012677  -0.012211     3.00055e-01     6.91943e-02
     14486      14490      1   0.012677   0.008364     2.60142e-01     2.09200e-02
     14486      14489      1   0.012677   0.008364     2.60142e-01     2.09200e-02
     14485      14492      1  -0.031787   0.008477     3.00055e-01     6.91943e-02
     14485      14493      1  -0.031787   0.008477     3.00055e-01     6.91943e-02
     14484      14488      1   0.017208  -0.017521     3.00055e-01     6.91943e-02
     14484      14486      1   0.017208   0.010564     2.60142e-01     2.09200e-02
     14484      14487      1   0.017208   0.010564     2.60142e-01     2.09200e-02
     14483      14488      1   0.017208  -0.017521     3.00055e-01     6.91943e-02
     14483      14486      1   0.017208   0.010564     2.60142e-01     2.09200e-02
     14483      14487      1   0.017208   0.010564     2.60142e-01     2.09200e-02
     14482      14490      1  -0.028094   0.008364     3.00055e-01     6.91943e-02
     14482      14489      1  -0.028094   0.008364     3.00055e-01     6.91943e-02
     14481      14485      1   0.007531  -0.026489     3.00055e-01     6.91943e-02
     14481      14484      1   0.007531   0.014340     2.60142e-01     2.09200e-02
     14481      14483      1   0.007531   0.014340     2.60142e-01     2.09200e-02
     14480      14485      1   0.007531  -0.026489     3.00055e-01     6.91943e-02
     14480      14484      1   0.007531   0.014340     2.60142e-01     2.09200e-02
     14480      14483      1   0.007531   0.014340     2.60142e-01     2.09200e-02
     14479      14486      1   0.017463   0.010564     3.00055e-01     6.91943e-02
     14479      14487      1   0.017463   0.010564     3.00055e-01     6.91943e-02
     14478      14482      1   0.025511  -0.023412     3.00055e-01     6.91943e-02
     14478      14480      1   0.025511   0.006276     2.60142e-01     2.09200e-02
     14478      14481      1   0.025511   0.006276     2.60142e-01     2.09200e-02
     14477      14482      1   0.025511  -0.023412     3.00055e-01     6.91943e-02
     14477      14480      1   0.025511   0.006276     2.60142e-01     2.09200e-02
     14477      14481      1   0.025511   0.006276     2.60142e-01     2.09200e-02
     14476      14484      1  -0.111712   0.014340     3.00055e-01     6.91943e-02
     14476      14483      1  -0.111712   0.014340     3.00055e-01     6.91943e-02
     14475      14482      1   0.025511  -0.023412     3.00055e-01     6.91943e-02
     14475      14480      1   0.025511   0.006276     2.60142e-01     2.09200e-02
     14475      14481      1   0.025511   0.006276     2.60142e-01     2.09200e-02
     14554      14556      1   0.053944  -0.559638     2.78067e-01     9.58675e-02
     14554      14557      1   0.053944  -0.479574     2.80072e-01     8.62554e-02
     14553      14556      1   0.053944  -0.559638     2.78067e-01     9.58675e-02
     14553      14557      1   0.053944  -0.479574     2.80072e-01     8.62554e-02
     14551      14554      1   0.018859   0.044953     2.60142e-01     2.09200e-02
     14551      14553      1   0.018859   0.044953     2.60142e-01     2.09200e-02
     14551      14555      1   0.018859   0.758669     3.00055e-01     6.13495e-02
     14550      14554      1   0.018859   0.044953     2.60142e-01     2.09200e-02
     14550      14553      1   0.018859   0.044953     2.60142e-01     2.09200e-02
     14550      14555      1   0.018859   0.758669     3.00055e-01     6.13495e-02
     14548      14552      1   0.020431  -0.136833     3.00055e-01     6.91943e-02
     14548      14551      1   0.020431   0.015716     2.60142e-01     2.09200e-02
     14548      14550      1   0.020431   0.015716     2.60142e-01     2.09200e-02
     14547      14552      1   0.020431  -0.136833     3.00055e-01     6.91943e-02
     14547      14551      1   0.020431   0.015716     2.60142e-01     2.09200e-02
     14547      14550      1   0.020431   0.015716     2.60142e-01     2.09200e-02
     14546      14554      1  -0.026954   0.044953     3.00055e-01     6.91943e-02
     14546      14553      1  -0.026954   0.044953     3.00055e-01     6.91943e-02
     14545      14549      1   0.010573  -0.002029     3.00055e-01     6.91943e-02
     14545      14548      1   0.010573   0.017026     2.60142e-01     2.09200e-02
     14545      14547      1   0.010573   0.017026     2.60142e-01     2.09200e-02
     14544      14549      1   0.010573  -0.002029     3.00055e-01     6.91943e-02
     14544      14548      1   0.010573   0.017026     2.60142e-01     2.09200e-02
     14544      14547      1   0.010573   0.017026     2.60142e-01     2.09200e-02
     14543      14551      1  -0.016521   0.015716     3.00055e-01     6.91943e-02
     14543      14550      1  -0.016521   0.015716     3.00055e-01     6.91943e-02
     14542      14546      1   0.011511  -0.022462     3.00055e-01     6.91943e-02
     14542      14544      1   0.011511   0.008811     2.60142e-01     2.09200e-02
     14542      14545      1   0.011511   0.008811     2.60142e-01     2.09200e-02
     14541      14546      1   0.011511  -0.022462     3.00055e-01     6.91943e-02
     14541      14544      1   0.011511   0.008811     2.60142e-01     2.09200e-02
     14541      14545      1   0.011511   0.008811     2.60142e-01     2.09200e-02
     14540      14548      1  -0.027812   0.017026     3.00055e-01     6.91943e-02
     14540      14547      1  -0.027812   0.017026     3.00055e-01     6.91943e-02
     14539      14543      1   0.006833  -0.013767     3.00055e-01     6.91943e-02
     14539      14541      1   0.006833   0.009592     2.60142e-01     2.09200e-02
     14539      14542      1   0.006833   0.009592     2.60142e-01     2.09200e-02
     14538      14543      1   0.006833  -0.013767     3.00055e-01     6.91943e-02
     14538      14541      1   0.006833   0.009592     2.60142e-01     2.09200e-02
     14538      14542      1   0.006833   0.009592     2.60142e-01     2.09200e-02
     14537      14544      1  -0.004386   0.008811     3.00055e-01     6.91943e-02
     14537      14545      1  -0.004386   0.008811     3.00055e-01     6.91943e-02
     14536      14540      1   0.011241  -0.023177     3.00055e-01     6.91943e-02
     14536      14538      1   0.011241   0.005694     2.60142e-01     2.09200e-02
     14536      14539      1   0.011241   0.005694     2.60142e-01     2.09200e-02
     14535      14540      1   0.011241  -0.023177     3.00055e-01     6.91943e-02
     14535      14538      1   0.011241   0.005694     2.60142e-01     2.09200e-02
     14535      14539      1   0.011241   0.005694     2.60142e-01     2.09200e-02
     14534      14541      1  -0.026451   0.009592     3.00055e-01     6.91943e-02
     14534      14542      1  -0.026451   0.009592     3.00055e-01     6.91943e-02
     14533      14537      1   0.010172  -0.003655     3.00055e-01     6.91943e-02
     14533      14536      1   0.010172   0.009367     2.60142e-01     2.09200e-02
     14533      14535      1   0.010172   0.009367     2.60142e-01     2.09200e-02
     14532      14537      1   0.010172  -0.003655     3.00055e-01     6.91943e-02
     14532      14536      1   0.010172   0.009367     2.60142e-01     2.09200e-02
     14532      14535      1   0.010172   0.009367     2.60142e-01     2.09200e-02
     14531      14538      1  -0.014653   0.005694     3.00055e-01     6.91943e-02
     14531      14539      1  -0.014653   0.005694     3.00055e-01     6.91943e-02
     14530      14534      1   0.010037  -0.022042     3.00055e-01     6.91943e-02
     14530      14532      1   0.010037   0.008477     2.60142e-01     2.09200e-02
     14530      14533      1   0.010037   0.008477     2.60142e-01     2.09200e-02
     14529      14534      1   0.010037  -0.022042     3.00055e-01     6.91943e-02
     14529      14532      1   0.010037   0.008477     2.60142e-01     2.09200e-02
     14529      14533      1   0.010037   0.008477     2.60142e-01     2.09200e-02
     14528      14536      1  -0.021025   0.009367     3.00055e-01     6.91943e-02
     14528      14535      1  -0.021025   0.009367     3.00055e-01     6.91943e-02
     14527      14531      1   0.012677  -0.012211     3.00055e-01     6.91943e-02
     14527      14530      1   0.012677   0.008364     2.60142e-01     2.09200e-02
     14527      14529      1   0.012677   0.008364     2.60142e-01     2.09200e-02
     14526      14531      1   0.012677  -0.012211     3.00055e-01     6.91943e-02
     14526      14530      1   0.012677   0.008364     2.60142e-01     2.09200e-02
     14526      14529      1   0.012677   0.008364     2.60142e-01     2.09200e-02
     14525      14532      1  -0.031787   0.008477     3.00055e-01     6.91943e-02
     14525      14533      1  -0.031787   0.008477     3.00055e-01     6.91943e-02
     14524      14528      1   0.017208  -0.017521     3.00055e-01     6.91943e-02
     14524      14526      1   0.017208   0.010564     2.60142e-01     2.09200e-02
     14524      14527      1   0.017208   0.010564     2.60142e-01     2.09200e-02
     14523      14528      1   0.017208  -0.017521     3.00055e-01     6.91943e-02
     14523      14526      1   0.017208   0.010564     2.60142e-01     2.09200e-02
     14523      14527      1   0.017208   0.010564     2.60142e-01     2.09200e-02
     14522      14530      1  -0.028094   0.008364     3.00055e-01     6.91943e-02
     14522      14529      1  -0.028094   0.008364     3.00055e-01     6.91943e-02
     14521      14525      1   0.007531  -0.026489     3.00055e-01     6.91943e-02
     14521      14524      1   0.007531   0.014340     2.60142e-01     2.09200e-02
     14521      14523      1   0.007531   0.014340     2.60142e-01     2.09200e-02
     14520      14525      1   0.007531  -0.026489     3.00055e-01     6.91943e-02
     14520      14524      1   0.007531   0.014340     2.60142e-01     2.09200e-02
     14520      14523      1   0.007531   0.014340     2.60142e-01     2.09200e-02
     14519      14526      1   0.017463   0.010564     3.00055e-01     6.91943e-02
     14519      14527      1   0.017463   0.010564     3.00055e-01     6.91943e-02
     14518      14522      1   0.025511  -0.023412     3.00055e-01     6.91943e-02
     14518      14520      1   0.025511   0.006276     2.60142e-01     2.09200e-02
     14518      14521      1   0.025511   0.006276     2.60142e-01     2.09200e-02
     14517      14522      1   0.025511  -0.023412     3.00055e-01     6.91943e-02
     14517      14520      1   0.025511   0.006276     2.60142e-01     2.09200e-02
     14517      14521      1   0.025511   0.006276     2.60142e-01     2.09200e-02
     14516      14524      1  -0.111712   0.014340     3.00055e-01     6.91943e-02
     14516      14523      1  -0.111712   0.014340     3.00055e-01     6.91943e-02
     14515      14522      1   0.025511  -0.023412     3.00055e-01     6.91943e-02
     14515      14520      1   0.025511   0.006276     2.60142e-01     2.09200e-02
     14515      14521      1   0.025511   0.006276     2.60142e-01     2.09200e-02
     14592      14632      1  -0.673755   0.044953     2.78067e-01     9.58675e-02
     14592      14631      1  -0.673755   0.044953     2.78067e-01     9.58675e-02
     14591      14629      1   0.897613   0.015716     3.00055e-01     6.13495e-02
     14591      14628      1   0.897613   0.015716     3.00055e-01     6.13495e-02
     14590      14632      1  -0.552948   0.044953     2.80072e-01     8.62554e-02
     14590      14631      1  -0.552948   0.044953     2.80072e-01     8.62554e-02
     14583      14584      1   0.172230  -0.282478     2.67982e-01     8.67002e-02
     14582      14584      1   0.172230  -0.282478     2.67982e-01     8.67002e-02
     14581      14584      1   0.172230  -0.282478     2.67982e-01     8.67002e-02
     14580      14585      1  -0.338973   0.143525     2.67982e-01     8.67002e-02
     14580      14586      1  -0.338973   0.143525     2.67982e-01     8.67002e-02
     14580      14587      1  -0.338973   0.143525     2.67982e-01     8.67002e-02
     14579      14580      1   0.172230  -0.282478     2.67982e-01     8.67002e-02
     14579      14584      1   0.172230  -0.282478     2.67982e-01     8.67002e-02
     14578      14580      1   0.172230  -0.282478     2.67982e-01     8.67002e-02
     14578      14584      1   0.172230  -0.282478     2.67982e-01     8.67002e-02
     14577      14580      1   0.172230  -0.282478     2.67982e-01     8.67002e-02
     14577      14584      1   0.172230  -0.282478     2.67982e-01     8.67002e-02
     14576      14581      1  -0.338973   0.143525     2.67982e-01     8.67002e-02
     14576      14582      1  -0.338973   0.143525     2.67982e-01     8.67002e-02
     14576      14583      1  -0.338973   0.143525     2.67982e-01     8.67002e-02
     14576      14585      1  -0.338973   0.143525     2.67982e-01     8.67002e-02
     14576      14586      1  -0.338973   0.143525     2.67982e-01     8.67002e-02
     14576      14587      1  -0.338973   0.143525     2.67982e-01     8.67002e-02
     14574      14576      1   0.136415  -0.282478     2.67982e-01     8.67002e-02
     14574      14580      1   0.136415  -0.282478     2.67982e-01     8.67002e-02
     14574      14584      1   0.136415  -0.282478     2.67982e-01     8.67002e-02
     14573      14576      1   0.136415  -0.282478     2.67982e-01     8.67002e-02
     14573      14580      1   0.136415  -0.282478     2.67982e-01     8.67002e-02
     14573      14584      1   0.136415  -0.282478     2.67982e-01     8.67002e-02
     14572      14577      1  -0.170824   0.143525     2.67982e-01     8.67002e-02
     14572      14578      1  -0.170824   0.143525     2.67982e-01     8.67002e-02
     14572      14579      1  -0.170824   0.143525     2.67982e-01     8.67002e-02
     14572      14581      1  -0.170824   0.143525     2.67982e-01     8.67002e-02
     14572      14582      1  -0.170824   0.143525     2.67982e-01     8.67002e-02
     14572      14583      1  -0.170824   0.143525     2.67982e-01     8.67002e-02
     14572      14585      1  -0.170824   0.143525     2.67982e-01     8.67002e-02
     14572      14586      1  -0.170824   0.143525     2.67982e-01     8.67002e-02
     14572      14587      1  -0.170824   0.143525     2.67982e-01     8.67002e-02
     14571      14573      1   0.078534   0.113679     2.21567e-01     3.28444e-02
     14571      14574      1   0.078534   0.113679     2.21567e-01     3.28444e-02
     14571      14575      1   0.078534   0.204385     2.86068e-01     1.08078e-01
     14570      14573      1   0.078534   0.113679     2.21567e-01     3.28444e-02
     14570      14574      1   0.078534   0.113679     2.21567e-01     3.28444e-02
     14570      14575      1   0.078534   0.204385     2.86068e-01     1.08078e-01
     14568      14573      1  -0.508176   0.113679     2.47999e-01     1.08078e-01
     14568      14574      1  -0.508176   0.113679     2.47999e-01     1.08078e-01
     14567      14570      1   1.339721   0.065445     3.10656e-01     1.17227e-01
     14567      14571      1   1.339721   0.065445     3.10656e-01     1.17227e-01
     14565      14590      1   0.095591  -0.460790     2.73568e-01     1.08078e-01
     14565      14567      1   0.095591   1.116434     3.10656e-01     1.17227e-01
     14564      14590      1   0.095591  -0.460790     2.73568e-01     1.08078e-01
     14564      14567      1   0.095591   1.116434     3.10656e-01     1.17227e-01
     14562      14564      1   0.063253   0.079659     2.47135e-01     3.28444e-02
     14562      14565      1   0.063253   0.079659     2.47135e-01     3.28444e-02
     14562      14566      1   0.063253  -0.424567     2.73568e-01     1.08078e-01
     14562      14591      1   0.063253   0.748011     2.93551e-01     7.68707e-02
     14560      14562      1   0.070469   0.052711     2.47135e-01     3.28444e-02
     14560      14563      1   0.070469   0.014549     2.93551e-01     8.67002e-02
     14560      14590      1   0.070469  -0.460790     2.73568e-01     1.08078e-01
     14559      14562      1   0.070469   0.052711     2.47135e-01     3.28444e-02
     14559      14563      1   0.070469   0.014549     2.93551e-01     8.67002e-02
     14559      14590      1   0.070469  -0.460790     2.73568e-01     1.08078e-01
     14558      14564      1   0.196939   0.079659     2.93551e-01     8.67002e-02
     14558      14565      1   0.196939   0.079659     2.93551e-01     8.67002e-02
     14557      14562      1  -0.575489   0.052711     2.73568e-01     1.08078e-01
     14555      14559      1   0.910403   0.058724     2.93551e-01     7.68707e-02
     14555      14560      1   0.910403   0.058724     2.93551e-01     7.68707e-02
     14629      14632      1   0.018859   0.044953     2.60142e-01     2.09200e-02
     14629      14631      1   0.018859   0.044953     2.60142e-01     2.09200e-02
     14628      14632      1   0.018859   0.044953     2.60142e-01     2.09200e-02
     14628      14631      1   0.018859   0.044953     2.60142e-01     2.09200e-02
     14626      14630      1   0.020431  -0.136833     3.00055e-01     6.91943e-02
     14626      14629      1   0.020431   0.015716     2.60142e-01     2.09200e-02
     14626      14628      1   0.020431   0.015716     2.60142e-01     2.09200e-02
     14625      14630      1   0.020431  -0.136833     3.00055e-01     6.91943e-02
     14625      14629      1   0.020431   0.015716     2.60142e-01     2.09200e-02
     14625      14628      1   0.020431   0.015716     2.60142e-01     2.09200e-02
     14624      14632      1  -0.026954   0.044953     3.00055e-01     6.91943e-02
     14624      14631      1  -0.026954   0.044953     3.00055e-01     6.91943e-02
     14623      14627      1   0.010573  -0.002029     3.00055e-01     6.91943e-02
     14623      14626      1   0.010573   0.017026     2.60142e-01     2.09200e-02
     14623      14625      1   0.010573   0.017026     2.60142e-01     2.09200e-02
     14622      14627      1   0.010573  -0.002029     3.00055e-01     6.91943e-02
     14622      14626      1   0.010573   0.017026     2.60142e-01     2.09200e-02
     14622      14625      1   0.010573   0.017026     2.60142e-01     2.09200e-02
     14621      14629      1  -0.016521   0.015716     3.00055e-01     6.91943e-02
     14621      14628      1  -0.016521   0.015716     3.00055e-01     6.91943e-02
     14620      14624      1   0.011511  -0.022462     3.00055e-01     6.91943e-02
     14620      14622      1   0.011511   0.008811     2.60142e-01     2.09200e-02
     14620      14623      1   0.011511   0.008811     2.60142e-01     2.09200e-02
     14619      14624      1   0.011511  -0.022462     3.00055e-01     6.91943e-02
     14619      14622      1   0.011511   0.008811     2.60142e-01     2.09200e-02
     14619      14623      1   0.011511   0.008811     2.60142e-01     2.09200e-02
     14618      14626      1  -0.027812   0.017026     3.00055e-01     6.91943e-02
     14618      14625      1  -0.027812   0.017026     3.00055e-01     6.91943e-02
     14617      14621      1   0.006833  -0.013767     3.00055e-01     6.91943e-02
     14617      14619      1   0.006833   0.009592     2.60142e-01     2.09200e-02
     14617      14620      1   0.006833   0.009592     2.60142e-01     2.09200e-02
     14616      14621      1   0.006833  -0.013767     3.00055e-01     6.91943e-02
     14616      14619      1   0.006833   0.009592     2.60142e-01     2.09200e-02
     14616      14620      1   0.006833   0.009592     2.60142e-01     2.09200e-02
     14615      14622      1  -0.004386   0.008811     3.00055e-01     6.91943e-02
     14615      14623      1  -0.004386   0.008811     3.00055e-01     6.91943e-02
     14614      14618      1   0.011241  -0.023177     3.00055e-01     6.91943e-02
     14614      14616      1   0.011241   0.005694     2.60142e-01     2.09200e-02
     14614      14617      1   0.011241   0.005694     2.60142e-01     2.09200e-02
     14613      14618      1   0.011241  -0.023177     3.00055e-01     6.91943e-02
     14613      14616      1   0.011241   0.005694     2.60142e-01     2.09200e-02
     14613      14617      1   0.011241   0.005694     2.60142e-01     2.09200e-02
     14612      14619      1  -0.026451   0.009592     3.00055e-01     6.91943e-02
     14612      14620      1  -0.026451   0.009592     3.00055e-01     6.91943e-02
     14611      14615      1   0.010172  -0.003655     3.00055e-01     6.91943e-02
     14611      14614      1   0.010172   0.009367     2.60142e-01     2.09200e-02
     14611      14613      1   0.010172   0.009367     2.60142e-01     2.09200e-02
     14610      14615      1   0.010172  -0.003655     3.00055e-01     6.91943e-02
     14610      14614      1   0.010172   0.009367     2.60142e-01     2.09200e-02
     14610      14613      1   0.010172   0.009367     2.60142e-01     2.09200e-02
     14609      14616      1  -0.014653   0.005694     3.00055e-01     6.91943e-02
     14609      14617      1  -0.014653   0.005694     3.00055e-01     6.91943e-02
     14608      14612      1   0.010037  -0.022042     3.00055e-01     6.91943e-02
     14608      14610      1   0.010037   0.008477     2.60142e-01     2.09200e-02
     14608      14611      1   0.010037   0.008477     2.60142e-01     2.09200e-02
     14607      14612      1   0.010037  -0.022042     3.00055e-01     6.91943e-02
     14607      14610      1   0.010037   0.008477     2.60142e-01     2.09200e-02
     14607      14611      1   0.010037   0.008477     2.60142e-01     2.09200e-02
     14606      14614      1  -0.021025   0.009367     3.00055e-01     6.91943e-02
     14606      14613      1  -0.021025   0.009367     3.00055e-01     6.91943e-02
     14605      14609      1   0.012677  -0.012211     3.00055e-01     6.91943e-02
     14605      14608      1   0.012677   0.008364     2.60142e-01     2.09200e-02
     14605      14607      1   0.012677   0.008364     2.60142e-01     2.09200e-02
     14604      14609      1   0.012677  -0.012211     3.00055e-01     6.91943e-02
     14604      14608      1   0.012677   0.008364     2.60142e-01     2.09200e-02
     14604      14607      1   0.012677   0.008364     2.60142e-01     2.09200e-02
     14603      14610      1  -0.031787   0.008477     3.00055e-01     6.91943e-02
     14603      14611      1  -0.031787   0.008477     3.00055e-01     6.91943e-02
     14602      14606      1   0.017208  -0.017521     3.00055e-01     6.91943e-02
     14602      14604      1   0.017208   0.010564     2.60142e-01     2.09200e-02
     14602      14605      1   0.017208   0.010564     2.60142e-01     2.09200e-02
     14601      14606      1   0.017208  -0.017521     3.00055e-01     6.91943e-02
     14601      14604      1   0.017208   0.010564     2.60142e-01     2.09200e-02
     14601      14605      1   0.017208   0.010564     2.60142e-01     2.09200e-02
     14600      14608      1  -0.028094   0.008364     3.00055e-01     6.91943e-02
     14600      14607      1  -0.028094   0.008364     3.00055e-01     6.91943e-02
     14599      14603      1   0.007531  -0.026489     3.00055e-01     6.91943e-02
     14599      14602      1   0.007531   0.014340     2.60142e-01     2.09200e-02
     14599      14601      1   0.007531   0.014340     2.60142e-01     2.09200e-02
     14598      14603      1   0.007531  -0.026489     3.00055e-01     6.91943e-02
     14598      14602      1   0.007531   0.014340     2.60142e-01     2.09200e-02
     14598      14601      1   0.007531   0.014340     2.60142e-01     2.09200e-02
     14597      14604      1   0.017463   0.010564     3.00055e-01     6.91943e-02
     14597      14605      1   0.017463   0.010564     3.00055e-01     6.91943e-02
     14596      14600      1   0.025511  -0.023412     3.00055e-01     6.91943e-02
     14596      14598      1   0.025511   0.006276     2.60142e-01     2.09200e-02
     14596      14599      1   0.025511   0.006276     2.60142e-01     2.09200e-02
     14595      14600      1   0.025511  -0.023412     3.00055e-01     6.91943e-02
     14595      14598      1   0.025511   0.006276     2.60142e-01     2.09200e-02
     14595      14599      1   0.025511   0.006276     2.60142e-01     2.09200e-02
     14594      14602      1  -0.111712   0.014340     3.00055e-01     6.91943e-02
     14594      14601      1  -0.111712   0.014340     3.00055e-01     6.91943e-02
     14593      14600      1   0.025511  -0.023412     3.00055e-01     6.91943e-02
     14593      14598      1   0.025511   0.006276     2.60142e-01     2.09200e-02
     14593      14599      1   0.025511   0.006276     2.60142e-01     2.09200e-02
     14672      14674      1   0.053944  -0.559638     2.78067e-01     9.58675e-02
     14672      14675      1   0.053944  -0.479574     2.80072e-01     8.62554e-02
     14671      14674      1   0.053944  -0.559638     2.78067e-01     9.58675e-02
     14671      14675      1   0.053944  -0.479574     2.80072e-01     8.62554e-02
     14669      14672      1   0.018859   0.044953     2.60142e-01     2.09200e-02
     14669      14671      1   0.018859   0.044953     2.60142e-01     2.09200e-02
     14669      14673      1   0.018859   0.758669     3.00055e-01     6.13495e-02
     14668      14672      1   0.018859   0.044953     2.60142e-01     2.09200e-02
     14668      14671      1   0.018859   0.044953     2.60142e-01     2.09200e-02
     14668      14673      1   0.018859   0.758669     3.00055e-01     6.13495e-02
     14666      14670      1   0.020431  -0.136833     3.00055e-01     6.91943e-02
     14666      14669      1   0.020431   0.015716     2.60142e-01     2.09200e-02
     14666      14668      1   0.020431   0.015716     2.60142e-01     2.09200e-02
     14665      14670      1   0.020431  -0.136833     3.00055e-01     6.91943e-02
     14665      14669      1   0.020431   0.015716     2.60142e-01     2.09200e-02
     14665      14668      1   0.020431   0.015716     2.60142e-01     2.09200e-02
     14664      14672      1  -0.026954   0.044953     3.00055e-01     6.91943e-02
     14664      14671      1  -0.026954   0.044953     3.00055e-01     6.91943e-02
     14663      14667      1   0.010573  -0.002029     3.00055e-01     6.91943e-02
     14663      14666      1   0.010573   0.017026     2.60142e-01     2.09200e-02
     14663      14665      1   0.010573   0.017026     2.60142e-01     2.09200e-02
     14662      14667      1   0.010573  -0.002029     3.00055e-01     6.91943e-02
     14662      14666      1   0.010573   0.017026     2.60142e-01     2.09200e-02
     14662      14665      1   0.010573   0.017026     2.60142e-01     2.09200e-02
     14661      14669      1  -0.016521   0.015716     3.00055e-01     6.91943e-02
     14661      14668      1  -0.016521   0.015716     3.00055e-01     6.91943e-02
     14660      14664      1   0.011511  -0.022462     3.00055e-01     6.91943e-02
     14660      14662      1   0.011511   0.008811     2.60142e-01     2.09200e-02
     14660      14663      1   0.011511   0.008811     2.60142e-01     2.09200e-02
     14659      14664      1   0.011511  -0.022462     3.00055e-01     6.91943e-02
     14659      14662      1   0.011511   0.008811     2.60142e-01     2.09200e-02
     14659      14663      1   0.011511   0.008811     2.60142e-01     2.09200e-02
     14658      14666      1  -0.027812   0.017026     3.00055e-01     6.91943e-02
     14658      14665      1  -0.027812   0.017026     3.00055e-01     6.91943e-02
     14657      14661      1   0.006833  -0.013767     3.00055e-01     6.91943e-02
     14657      14659      1   0.006833   0.009592     2.60142e-01     2.09200e-02
     14657      14660      1   0.006833   0.009592     2.60142e-01     2.09200e-02
     14656      14661      1   0.006833  -0.013767     3.00055e-01     6.91943e-02
     14656      14659      1   0.006833   0.009592     2.60142e-01     2.09200e-02
     14656      14660      1   0.006833   0.009592     2.60142e-01     2.09200e-02
     14655      14662      1  -0.004386   0.008811     3.00055e-01     6.91943e-02
     14655      14663      1  -0.004386   0.008811     3.00055e-01     6.91943e-02
     14654      14658      1   0.011241  -0.023177     3.00055e-01     6.91943e-02
     14654      14656      1   0.011241   0.005694     2.60142e-01     2.09200e-02
     14654      14657      1   0.011241   0.005694     2.60142e-01     2.09200e-02
     14653      14658      1   0.011241  -0.023177     3.00055e-01     6.91943e-02
     14653      14656      1   0.011241   0.005694     2.60142e-01     2.09200e-02
     14653      14657      1   0.011241   0.005694     2.60142e-01     2.09200e-02
     14652      14659      1  -0.026451   0.009592     3.00055e-01     6.91943e-02
     14652      14660      1  -0.026451   0.009592     3.00055e-01     6.91943e-02
     14651      14655      1   0.010172  -0.003655     3.00055e-01     6.91943e-02
     14651      14654      1   0.010172   0.009367     2.60142e-01     2.09200e-02
     14651      14653      1   0.010172   0.009367     2.60142e-01     2.09200e-02
     14650      14655      1   0.010172  -0.003655     3.00055e-01     6.91943e-02
     14650      14654      1   0.010172   0.009367     2.60142e-01     2.09200e-02
     14650      14653      1   0.010172   0.009367     2.60142e-01     2.09200e-02
     14649      14656      1  -0.014653   0.005694     3.00055e-01     6.91943e-02
     14649      14657      1  -0.014653   0.005694     3.00055e-01     6.91943e-02
     14648      14652      1   0.010037  -0.022042     3.00055e-01     6.91943e-02
     14648      14650      1   0.010037   0.008477     2.60142e-01     2.09200e-02
     14648      14651      1   0.010037   0.008477     2.60142e-01     2.09200e-02
     14647      14652      1   0.010037  -0.022042     3.00055e-01     6.91943e-02
     14647      14650      1   0.010037   0.008477     2.60142e-01     2.09200e-02
     14647      14651      1   0.010037   0.008477     2.60142e-01     2.09200e-02
     14646      14654      1  -0.021025   0.009367     3.00055e-01     6.91943e-02
     14646      14653      1  -0.021025   0.009367     3.00055e-01     6.91943e-02
     14645      14649      1   0.012677  -0.012211     3.00055e-01     6.91943e-02
     14645      14648      1   0.012677   0.008364     2.60142e-01     2.09200e-02
     14645      14647      1   0.012677   0.008364     2.60142e-01     2.09200e-02
     14644      14649      1   0.012677  -0.012211     3.00055e-01     6.91943e-02
     14644      14648      1   0.012677   0.008364     2.60142e-01     2.09200e-02
     14644      14647      1   0.012677   0.008364     2.60142e-01     2.09200e-02
     14643      14650      1  -0.031787   0.008477     3.00055e-01     6.91943e-02
     14643      14651      1  -0.031787   0.008477     3.00055e-01     6.91943e-02
     14642      14646      1   0.017208  -0.017521     3.00055e-01     6.91943e-02
     14642      14644      1   0.017208   0.010564     2.60142e-01     2.09200e-02
     14642      14645      1   0.017208   0.010564     2.60142e-01     2.09200e-02
     14641      14646      1   0.017208  -0.017521     3.00055e-01     6.91943e-02
     14641      14644      1   0.017208   0.010564     2.60142e-01     2.09200e-02
     14641      14645      1   0.017208   0.010564     2.60142e-01     2.09200e-02
     14640      14648      1  -0.028094   0.008364     3.00055e-01     6.91943e-02
     14640      14647      1  -0.028094   0.008364     3.00055e-01     6.91943e-02
     14639      14643      1   0.007531  -0.026489     3.00055e-01     6.91943e-02
     14639      14642      1   0.007531   0.014340     2.60142e-01     2.09200e-02
     14639      14641      1   0.007531   0.014340     2.60142e-01     2.09200e-02
     14638      14643      1   0.007531  -0.026489     3.00055e-01     6.91943e-02
     14638      14642      1   0.007531   0.014340     2.60142e-01     2.09200e-02
     14638      14641      1   0.007531   0.014340     2.60142e-01     2.09200e-02
     14637      14644      1   0.017463   0.010564     3.00055e-01     6.91943e-02
     14637      14645      1   0.017463   0.010564     3.00055e-01     6.91943e-02
     14636      14640      1   0.025511  -0.023412     3.00055e-01     6.91943e-02
     14636      14638      1   0.025511   0.006276     2.60142e-01     2.09200e-02
     14636      14639      1   0.025511   0.006276     2.60142e-01     2.09200e-02
     14635      14640      1   0.025511  -0.023412     3.00055e-01     6.91943e-02
     14635      14638      1   0.025511   0.006276     2.60142e-01     2.09200e-02
     14635      14639      1   0.025511   0.006276     2.60142e-01     2.09200e-02
     14634      14642      1  -0.111712   0.014340     3.00055e-01     6.91943e-02
     14634      14641      1  -0.111712   0.014340     3.00055e-01     6.91943e-02
     14633      14640      1   0.025511  -0.023412     3.00055e-01     6.91943e-02
     14633      14638      1   0.025511   0.006276     2.60142e-01     2.09200e-02
     14633      14639      1   0.025511   0.006276     2.60142e-01     2.09200e-02
     14710      14750      1  -0.673755   0.044953     2.78067e-01     9.58675e-02
     14710      14749      1  -0.673755   0.044953     2.78067e-01     9.58675e-02
     14709      14747      1   0.897613   0.015716     3.00055e-01     6.13495e-02
     14709      14746      1   0.897613   0.015716     3.00055e-01     6.13495e-02
     14708      14750      1  -0.552948   0.044953     2.80072e-01     8.62554e-02
     14708      14749      1  -0.552948   0.044953     2.80072e-01     8.62554e-02
     14701      14702      1   0.172230  -0.282478     2.67982e-01     8.67002e-02
     14700      14702      1   0.172230  -0.282478     2.67982e-01     8.67002e-02
     14699      14702      1   0.172230  -0.282478     2.67982e-01     8.67002e-02
     14698      14703      1  -0.338973   0.143525     2.67982e-01     8.67002e-02
     14698      14704      1  -0.338973   0.143525     2.67982e-01     8.67002e-02
     14698      14705      1  -0.338973   0.143525     2.67982e-01     8.67002e-02
     14697      14698      1   0.172230  -0.282478     2.67982e-01     8.67002e-02
     14697      14702      1   0.172230  -0.282478     2.67982e-01     8.67002e-02
     14696      14698      1   0.172230  -0.282478     2.67982e-01     8.67002e-02
     14696      14702      1   0.172230  -0.282478     2.67982e-01     8.67002e-02
     14695      14698      1   0.172230  -0.282478     2.67982e-01     8.67002e-02
     14695      14702      1   0.172230  -0.282478     2.67982e-01     8.67002e-02
     14694      14699      1  -0.338973   0.143525     2.67982e-01     8.67002e-02
     14694      14700      1  -0.338973   0.143525     2.67982e-01     8.67002e-02
     14694      14701      1  -0.338973   0.143525     2.67982e-01     8.67002e-02
     14694      14703      1  -0.338973   0.143525     2.67982e-01     8.67002e-02
     14694      14704      1  -0.338973   0.143525     2.67982e-01     8.67002e-02
     14694      14705      1  -0.338973   0.143525     2.67982e-01     8.67002e-02
     14692      14694      1   0.136415  -0.282478     2.67982e-01     8.67002e-02
     14692      14698      1   0.136415  -0.282478     2.67982e-01     8.67002e-02
     14692      14702      1   0.136415  -0.282478     2.67982e-01     8.67002e-02
     14691      14694      1   0.136415  -0.282478     2.67982e-01     8.67002e-02
     14691      14698      1   0.136415  -0.282478     2.67982e-01     8.67002e-02
     14691      14702      1   0.136415  -0.282478     2.67982e-01     8.67002e-02
     14690      14695      1  -0.170824   0.143525     2.67982e-01     8.67002e-02
     14690      14696      1  -0.170824   0.143525     2.67982e-01     8.67002e-02
     14690      14697      1  -0.170824   0.143525     2.67982e-01     8.67002e-02
     14690      14699      1  -0.170824   0.143525     2.67982e-01     8.67002e-02
     14690      14700      1  -0.170824   0.143525     2.67982e-01     8.67002e-02
     14690      14701      1  -0.170824   0.143525     2.67982e-01     8.67002e-02
     14690      14703      1  -0.170824   0.143525     2.67982e-01     8.67002e-02
     14690      14704      1  -0.170824   0.143525     2.67982e-01     8.67002e-02
     14690      14705      1  -0.170824   0.143525     2.67982e-01     8.67002e-02
     14689      14691      1   0.078534   0.113679     2.21567e-01     3.28444e-02
     14689      14692      1   0.078534   0.113679     2.21567e-01     3.28444e-02
     14689      14693      1   0.078534   0.204385     2.86068e-01     1.08078e-01
     14688      14691      1   0.078534   0.113679     2.21567e-01     3.28444e-02
     14688      14692      1   0.078534   0.113679     2.21567e-01     3.28444e-02
     14688      14693      1   0.078534   0.204385     2.86068e-01     1.08078e-01
     14686      14691      1  -0.508176   0.113679     2.47999e-01     1.08078e-01
     14686      14692      1  -0.508176   0.113679     2.47999e-01     1.08078e-01
     14685      14688      1   1.339721   0.065445     3.10656e-01     1.17227e-01
     14685      14689      1   1.339721   0.065445     3.10656e-01     1.17227e-01
     14683      14708      1   0.095591  -0.460790     2.73568e-01     1.08078e-01
     14683      14685      1   0.095591   1.116434     3.10656e-01     1.17227e-01
     14682      14708      1   0.095591  -0.460790     2.73568e-01     1.08078e-01
     14682      14685      1   0.095591   1.116434     3.10656e-01     1.17227e-01
     14680      14682      1   0.063253   0.079659     2.47135e-01     3.28444e-02
     14680      14683      1   0.063253   0.079659     2.47135e-01     3.28444e-02
     14680      14684      1   0.063253  -0.424567     2.73568e-01     1.08078e-01
     14680      14709      1   0.063253   0.748011     2.93551e-01     7.68707e-02
     14678      14680      1   0.070469   0.052711     2.47135e-01     3.28444e-02
     14678      14681      1   0.070469   0.014549     2.93551e-01     8.67002e-02
     14678      14708      1   0.070469  -0.460790     2.73568e-01     1.08078e-01
     14677      14680      1   0.070469   0.052711     2.47135e-01     3.28444e-02
     14677      14681      1   0.070469   0.014549     2.93551e-01     8.67002e-02
     14677      14708      1   0.070469  -0.460790     2.73568e-01     1.08078e-01
     14676      14682      1   0.196939   0.079659     2.93551e-01     8.67002e-02
     14676      14683      1   0.196939   0.079659     2.93551e-01     8.67002e-02
     14675      14680      1  -0.575489   0.052711     2.73568e-01     1.08078e-01
     14673      14677      1   0.910403   0.058724     2.93551e-01     7.68707e-02
     14673      14678      1   0.910403   0.058724     2.93551e-01     7.68707e-02
     14747      14750      1   0.018859   0.044953     2.60142e-01     2.09200e-02
     14747      14749      1   0.018859   0.044953     2.60142e-01     2.09200e-02
     14746      14750      1   0.018859   0.044953     2.60142e-01     2.09200e-02
     14746      14749      1   0.018859   0.044953     2.60142e-01     2.09200e-02
     14744      14748      1   0.020431  -0.136833     3.00055e-01     6.91943e-02
     14744      14747      1   0.020431   0.015716     2.60142e-01     2.09200e-02
     14744      14746      1   0.020431   0.015716     2.60142e-01     2.09200e-02
     14743      14748      1   0.020431  -0.136833     3.00055e-01     6.91943e-02
     14743      14747      1   0.020431   0.015716     2.60142e-01     2.09200e-02
     14743      14746      1   0.020431   0.015716     2.60142e-01     2.09200e-02
     14742      14750      1  -0.026954   0.044953     3.00055e-01     6.91943e-02
     14742      14749      1  -0.026954   0.044953     3.00055e-01     6.91943e-02
     14741      14745      1   0.010573  -0.002029     3.00055e-01     6.91943e-02
     14741      14744      1   0.010573   0.017026     2.60142e-01     2.09200e-02
     14741      14743      1   0.010573   0.017026     2.60142e-01     2.09200e-02
     14740      14745      1   0.010573  -0.002029     3.00055e-01     6.91943e-02
     14740      14744      1   0.010573   0.017026     2.60142e-01     2.09200e-02
     14740      14743      1   0.010573   0.017026     2.60142e-01     2.09200e-02
     14739      14747      1  -0.016521   0.015716     3.00055e-01     6.91943e-02
     14739      14746      1  -0.016521   0.015716     3.00055e-01     6.91943e-02
     14738      14742      1   0.011511  -0.022462     3.00055e-01     6.91943e-02
     14738      14740      1   0.011511   0.008811     2.60142e-01     2.09200e-02
     14738      14741      1   0.011511   0.008811     2.60142e-01     2.09200e-02
     14737      14742      1   0.011511  -0.022462     3.00055e-01     6.91943e-02
     14737      14740      1   0.011511   0.008811     2.60142e-01     2.09200e-02
     14737      14741      1   0.011511   0.008811     2.60142e-01     2.09200e-02
     14736      14744      1  -0.027812   0.017026     3.00055e-01     6.91943e-02
     14736      14743      1  -0.027812   0.017026     3.00055e-01     6.91943e-02
     14735      14739      1   0.006833  -0.013767     3.00055e-01     6.91943e-02
     14735      14737      1   0.006833   0.009592     2.60142e-01     2.09200e-02
     14735      14738      1   0.006833   0.009592     2.60142e-01     2.09200e-02
     14734      14739      1   0.006833  -0.013767     3.00055e-01     6.91943e-02
     14734      14737      1   0.006833   0.009592     2.60142e-01     2.09200e-02
     14734      14738      1   0.006833   0.009592     2.60142e-01     2.09200e-02
     14733      14740      1  -0.004386   0.008811     3.00055e-01     6.91943e-02
     14733      14741      1  -0.004386   0.008811     3.00055e-01     6.91943e-02
     14732      14736      1   0.011241  -0.023177     3.00055e-01     6.91943e-02
     14732      14734      1   0.011241   0.005694     2.60142e-01     2.09200e-02
     14732      14735      1   0.011241   0.005694     2.60142e-01     2.09200e-02
     14731      14736      1   0.011241  -0.023177     3.00055e-01     6.91943e-02
     14731      14734      1   0.011241   0.005694     2.60142e-01     2.09200e-02
     14731      14735      1   0.011241   0.005694     2.60142e-01     2.09200e-02
     14730      14737      1  -0.026451   0.009592     3.00055e-01     6.91943e-02
     14730      14738      1  -0.026451   0.009592     3.00055e-01     6.91943e-02
     14729      14733      1   0.010172  -0.003655     3.00055e-01     6.91943e-02
     14729      14732      1   0.010172   0.009367     2.60142e-01     2.09200e-02
     14729      14731      1   0.010172   0.009367     2.60142e-01     2.09200e-02
     14728      14733      1   0.010172  -0.003655     3.00055e-01     6.91943e-02
     14728      14732      1   0.010172   0.009367     2.60142e-01     2.09200e-02
     14728      14731      1   0.010172   0.009367     2.60142e-01     2.09200e-02
     14727      14734      1  -0.014653   0.005694     3.00055e-01     6.91943e-02
     14727      14735      1  -0.014653   0.005694     3.00055e-01     6.91943e-02
     14726      14730      1   0.010037  -0.022042     3.00055e-01     6.91943e-02
     14726      14728      1   0.010037   0.008477     2.60142e-01     2.09200e-02
     14726      14729      1   0.010037   0.008477     2.60142e-01     2.09200e-02
     14725      14730      1   0.010037  -0.022042     3.00055e-01     6.91943e-02
     14725      14728      1   0.010037   0.008477     2.60142e-01     2.09200e-02
     14725      14729      1   0.010037   0.008477     2.60142e-01     2.09200e-02
     14724      14732      1  -0.021025   0.009367     3.00055e-01     6.91943e-02
     14724      14731      1  -0.021025   0.009367     3.00055e-01     6.91943e-02
     14723      14727      1   0.012677  -0.012211     3.00055e-01     6.91943e-02
     14723      14726      1   0.012677   0.008364     2.60142e-01     2.09200e-02
     14723      14725      1   0.012677   0.008364     2.60142e-01     2.09200e-02
     14722      14727      1   0.012677  -0.012211     3.00055e-01     6.91943e-02
     14722      14726      1   0.012677   0.008364     2.60142e-01     2.09200e-02
     14722      14725      1   0.012677   0.008364     2.60142e-01     2.09200e-02
     14721      14728      1  -0.031787   0.008477     3.00055e-01     6.91943e-02
     14721      14729      1  -0.031787   0.008477     3.00055e-01     6.91943e-02
     14720      14724      1   0.017208  -0.017521     3.00055e-01     6.91943e-02
     14720      14722      1   0.017208   0.010564     2.60142e-01     2.09200e-02
     14720      14723      1   0.017208   0.010564     2.60142e-01     2.09200e-02
     14719      14724      1   0.017208  -0.017521     3.00055e-01     6.91943e-02
     14719      14722      1   0.017208   0.010564     2.60142e-01     2.09200e-02
     14719      14723      1   0.017208   0.010564     2.60142e-01     2.09200e-02
     14718      14726      1  -0.028094   0.008364     3.00055e-01     6.91943e-02
     14718      14725      1  -0.028094   0.008364     3.00055e-01     6.91943e-02
     14717      14721      1   0.007531  -0.026489     3.00055e-01     6.91943e-02
     14717      14720      1   0.007531   0.014340     2.60142e-01     2.09200e-02
     14717      14719      1   0.007531   0.014340     2.60142e-01     2.09200e-02
     14716      14721      1   0.007531  -0.026489     3.00055e-01     6.91943e-02
     14716      14720      1   0.007531   0.014340     2.60142e-01     2.09200e-02
     14716      14719      1   0.007531   0.014340     2.60142e-01     2.09200e-02
     14715      14722      1   0.017463   0.010564     3.00055e-01     6.91943e-02
     14715      14723      1   0.017463   0.010564     3.00055e-01     6.91943e-02
     14714      14718      1   0.025511  -0.023412     3.00055e-01     6.91943e-02
     14714      14716      1   0.025511   0.006276     2.60142e-01     2.09200e-02
     14714      14717      1   0.025511   0.006276     2.60142e-01     2.09200e-02
     14713      14718      1   0.025511  -0.023412     3.00055e-01     6.91943e-02
     14713      14716      1   0.025511   0.006276     2.60142e-01     2.09200e-02
     14713      14717      1   0.025511   0.006276     2.60142e-01     2.09200e-02
     14712      14720      1  -0.111712   0.014340     3.00055e-01     6.91943e-02
     14712      14719      1  -0.111712   0.014340     3.00055e-01     6.91943e-02
     14711      14718      1   0.025511  -0.023412     3.00055e-01     6.91943e-02
     14711      14716      1   0.025511   0.006276     2.60142e-01     2.09200e-02
     14711      14717      1   0.025511   0.006276     2.60142e-01     2.09200e-02
     14790      14792      1   0.053944  -0.559638     2.78067e-01     9.58675e-02
     14790      14793      1   0.053944  -0.479574     2.80072e-01     8.62554e-02
     14789      14792      1   0.053944  -0.559638     2.78067e-01     9.58675e-02
     14789      14793      1   0.053944  -0.479574     2.80072e-01     8.62554e-02
     14787      14790      1   0.018859   0.044953     2.60142e-01     2.09200e-02
     14787      14789      1   0.018859   0.044953     2.60142e-01     2.09200e-02
     14787      14791      1   0.018859   0.758669     3.00055e-01     6.13495e-02
     14786      14790      1   0.018859   0.044953     2.60142e-01     2.09200e-02
     14786      14789      1   0.018859   0.044953     2.60142e-01     2.09200e-02
     14786      14791      1   0.018859   0.758669     3.00055e-01     6.13495e-02
     14784      14788      1   0.020431  -0.136833     3.00055e-01     6.91943e-02
     14784      14787      1   0.020431   0.015716     2.60142e-01     2.09200e-02
     14784      14786      1   0.020431   0.015716     2.60142e-01     2.09200e-02
     14783      14788      1   0.020431  -0.136833     3.00055e-01     6.91943e-02
     14783      14787      1   0.020431   0.015716     2.60142e-01     2.09200e-02
     14783      14786      1   0.020431   0.015716     2.60142e-01     2.09200e-02
     14782      14790      1  -0.026954   0.044953     3.00055e-01     6.91943e-02
     14782      14789      1  -0.026954   0.044953     3.00055e-01     6.91943e-02
     14781      14785      1   0.010573  -0.002029     3.00055e-01     6.91943e-02
     14781      14784      1   0.010573   0.017026     2.60142e-01     2.09200e-02
     14781      14783      1   0.010573   0.017026     2.60142e-01     2.09200e-02
     14780      14785      1   0.010573  -0.002029     3.00055e-01     6.91943e-02
     14780      14784      1   0.010573   0.017026     2.60142e-01     2.09200e-02
     14780      14783      1   0.010573   0.017026     2.60142e-01     2.09200e-02
     14779      14787      1  -0.016521   0.015716     3.00055e-01     6.91943e-02
     14779      14786      1  -0.016521   0.015716     3.00055e-01     6.91943e-02
     14778      14782      1   0.011511  -0.022462     3.00055e-01     6.91943e-02
     14778      14780      1   0.011511   0.008811     2.60142e-01     2.09200e-02
     14778      14781      1   0.011511   0.008811     2.60142e-01     2.09200e-02
     14777      14782      1   0.011511  -0.022462     3.00055e-01     6.91943e-02
     14777      14780      1   0.011511   0.008811     2.60142e-01     2.09200e-02
     14777      14781      1   0.011511   0.008811     2.60142e-01     2.09200e-02
     14776      14784      1  -0.027812   0.017026     3.00055e-01     6.91943e-02
     14776      14783      1  -0.027812   0.017026     3.00055e-01     6.91943e-02
     14775      14779      1   0.006833  -0.013767     3.00055e-01     6.91943e-02
     14775      14777      1   0.006833   0.009592     2.60142e-01     2.09200e-02
     14775      14778      1   0.006833   0.009592     2.60142e-01     2.09200e-02
     14774      14779      1   0.006833  -0.013767     3.00055e-01     6.91943e-02
     14774      14777      1   0.006833   0.009592     2.60142e-01     2.09200e-02
     14774      14778      1   0.006833   0.009592     2.60142e-01     2.09200e-02
     14773      14780      1  -0.004386   0.008811     3.00055e-01     6.91943e-02
     14773      14781      1  -0.004386   0.008811     3.00055e-01     6.91943e-02
     14772      14776      1   0.011241  -0.023177     3.00055e-01     6.91943e-02
     14772      14774      1   0.011241   0.005694     2.60142e-01     2.09200e-02
     14772      14775      1   0.011241   0.005694     2.60142e-01     2.09200e-02
     14771      14776      1   0.011241  -0.023177     3.00055e-01     6.91943e-02
     14771      14774      1   0.011241   0.005694     2.60142e-01     2.09200e-02
     14771      14775      1   0.011241   0.005694     2.60142e-01     2.09200e-02
     14770      14777      1  -0.026451   0.009592     3.00055e-01     6.91943e-02
     14770      14778      1  -0.026451   0.009592     3.00055e-01     6.91943e-02
     14769      14773      1   0.010172  -0.003655     3.00055e-01     6.91943e-02
     14769      14772      1   0.010172   0.009367     2.60142e-01     2.09200e-02
     14769      14771      1   0.010172   0.009367     2.60142e-01     2.09200e-02
     14768      14773      1   0.010172  -0.003655     3.00055e-01     6.91943e-02
     14768      14772      1   0.010172   0.009367     2.60142e-01     2.09200e-02
     14768      14771      1   0.010172   0.009367     2.60142e-01     2.09200e-02
     14767      14774      1  -0.014653   0.005694     3.00055e-01     6.91943e-02
     14767      14775      1  -0.014653   0.005694     3.00055e-01     6.91943e-02
     14766      14770      1   0.010037  -0.022042     3.00055e-01     6.91943e-02
     14766      14768      1   0.010037   0.008477     2.60142e-01     2.09200e-02
     14766      14769      1   0.010037   0.008477     2.60142e-01     2.09200e-02
     14765      14770      1   0.010037  -0.022042     3.00055e-01     6.91943e-02
     14765      14768      1   0.010037   0.008477     2.60142e-01     2.09200e-02
     14765      14769      1   0.010037   0.008477     2.60142e-01     2.09200e-02
     14764      14772      1  -0.021025   0.009367     3.00055e-01     6.91943e-02
     14764      14771      1  -0.021025   0.009367     3.00055e-01     6.91943e-02
     14763      14767      1   0.012677  -0.012211     3.00055e-01     6.91943e-02
     14763      14766      1   0.012677   0.008364     2.60142e-01     2.09200e-02
     14763      14765      1   0.012677   0.008364     2.60142e-01     2.09200e-02
     14762      14767      1   0.012677  -0.012211     3.00055e-01     6.91943e-02
     14762      14766      1   0.012677   0.008364     2.60142e-01     2.09200e-02
     14762      14765      1   0.012677   0.008364     2.60142e-01     2.09200e-02
     14761      14768      1  -0.031787   0.008477     3.00055e-01     6.91943e-02
     14761      14769      1  -0.031787   0.008477     3.00055e-01     6.91943e-02
     14760      14764      1   0.017208  -0.017521     3.00055e-01     6.91943e-02
     14760      14762      1   0.017208   0.010564     2.60142e-01     2.09200e-02
     14760      14763      1   0.017208   0.010564     2.60142e-01     2.09200e-02
     14759      14764      1   0.017208  -0.017521     3.00055e-01     6.91943e-02
     14759      14762      1   0.017208   0.010564     2.60142e-01     2.09200e-02
     14759      14763      1   0.017208   0.010564     2.60142e-01     2.09200e-02
     14758      14766      1  -0.028094   0.008364     3.00055e-01     6.91943e-02
     14758      14765      1  -0.028094   0.008364     3.00055e-01     6.91943e-02
     14757      14761      1   0.007531  -0.026489     3.00055e-01     6.91943e-02
     14757      14760      1   0.007531   0.014340     2.60142e-01     2.09200e-02
     14757      14759      1   0.007531   0.014340     2.60142e-01     2.09200e-02
     14756      14761      1   0.007531  -0.026489     3.00055e-01     6.91943e-02
     14756      14760      1   0.007531   0.014340     2.60142e-01     2.09200e-02
     14756      14759      1   0.007531   0.014340     2.60142e-01     2.09200e-02
     14755      14762      1   0.017463   0.010564     3.00055e-01     6.91943e-02
     14755      14763      1   0.017463   0.010564     3.00055e-01     6.91943e-02
     14754      14758      1   0.025511  -0.023412     3.00055e-01     6.91943e-02
     14754      14756      1   0.025511   0.006276     2.60142e-01     2.09200e-02
     14754      14757      1   0.025511   0.006276     2.60142e-01     2.09200e-02
     14753      14758      1   0.025511  -0.023412     3.00055e-01     6.91943e-02
     14753      14756      1   0.025511   0.006276     2.60142e-01     2.09200e-02
     14753      14757      1   0.025511   0.006276     2.60142e-01     2.09200e-02
     14752      14760      1  -0.111712   0.014340     3.00055e-01     6.91943e-02
     14752      14759      1  -0.111712   0.014340     3.00055e-01     6.91943e-02
     14751      14758      1   0.025511  -0.023412     3.00055e-01     6.91943e-02
     14751      14756      1   0.025511   0.006276     2.60142e-01     2.09200e-02
     14751      14757      1   0.025511   0.006276     2.60142e-01     2.09200e-02
     14828      14868      1  -0.673755   0.044953     2.78067e-01     9.58675e-02
     14828      14867      1  -0.673755   0.044953     2.78067e-01     9.58675e-02
     14827      14865      1   0.897613   0.015716     3.00055e-01     6.13495e-02
     14827      14864      1   0.897613   0.015716     3.00055e-01     6.13495e-02
     14826      14868      1  -0.552948   0.044953     2.80072e-01     8.62554e-02
     14826      14867      1  -0.552948   0.044953     2.80072e-01     8.62554e-02
     14819      14820      1   0.172230  -0.282478     2.67982e-01     8.67002e-02
     14818      14820      1   0.172230  -0.282478     2.67982e-01     8.67002e-02
     14817      14820      1   0.172230  -0.282478     2.67982e-01     8.67002e-02
     14816      14821      1  -0.338973   0.143525     2.67982e-01     8.67002e-02
     14816      14822      1  -0.338973   0.143525     2.67982e-01     8.67002e-02
     14816      14823      1  -0.338973   0.143525     2.67982e-01     8.67002e-02
     14815      14816      1   0.172230  -0.282478     2.67982e-01     8.67002e-02
     14815      14820      1   0.172230  -0.282478     2.67982e-01     8.67002e-02
     14814      14816      1   0.172230  -0.282478     2.67982e-01     8.67002e-02
     14814      14820      1   0.172230  -0.282478     2.67982e-01     8.67002e-02
     14813      14816      1   0.172230  -0.282478     2.67982e-01     8.67002e-02
     14813      14820      1   0.172230  -0.282478     2.67982e-01     8.67002e-02
     14812      14817      1  -0.338973   0.143525     2.67982e-01     8.67002e-02
     14812      14818      1  -0.338973   0.143525     2.67982e-01     8.67002e-02
     14812      14819      1  -0.338973   0.143525     2.67982e-01     8.67002e-02
     14812      14821      1  -0.338973   0.143525     2.67982e-01     8.67002e-02
     14812      14822      1  -0.338973   0.143525     2.67982e-01     8.67002e-02
     14812      14823      1  -0.338973   0.143525     2.67982e-01     8.67002e-02
     14810      14812      1   0.136415  -0.282478     2.67982e-01     8.67002e-02
     14810      14816      1   0.136415  -0.282478     2.67982e-01     8.67002e-02
     14810      14820      1   0.136415  -0.282478     2.67982e-01     8.67002e-02
     14809      14812      1   0.136415  -0.282478     2.67982e-01     8.67002e-02
     14809      14816      1   0.136415  -0.282478     2.67982e-01     8.67002e-02
     14809      14820      1   0.136415  -0.282478     2.67982e-01     8.67002e-02
     14808      14813      1  -0.170824   0.143525     2.67982e-01     8.67002e-02
     14808      14814      1  -0.170824   0.143525     2.67982e-01     8.67002e-02
     14808      14815      1  -0.170824   0.143525     2.67982e-01     8.67002e-02
     14808      14817      1  -0.170824   0.143525     2.67982e-01     8.67002e-02
     14808      14818      1  -0.170824   0.143525     2.67982e-01     8.67002e-02
     14808      14819      1  -0.170824   0.143525     2.67982e-01     8.67002e-02
     14808      14821      1  -0.170824   0.143525     2.67982e-01     8.67002e-02
     14808      14822      1  -0.170824   0.143525     2.67982e-01     8.67002e-02
     14808      14823      1  -0.170824   0.143525     2.67982e-01     8.67002e-02
     14807      14809      1   0.078534   0.113679     2.21567e-01     3.28444e-02
     14807      14810      1   0.078534   0.113679     2.21567e-01     3.28444e-02
     14807      14811      1   0.078534   0.204385     2.86068e-01     1.08078e-01
     14806      14809      1   0.078534   0.113679     2.21567e-01     3.28444e-02
     14806      14810      1   0.078534   0.113679     2.21567e-01     3.28444e-02
     14806      14811      1   0.078534   0.204385     2.86068e-01     1.08078e-01
     14804      14809      1  -0.508176   0.113679     2.47999e-01     1.08078e-01
     14804      14810      1  -0.508176   0.113679     2.47999e-01     1.08078e-01
     14803      14806      1   1.339721   0.065445     3.10656e-01     1.17227e-01
     14803      14807      1   1.339721   0.065445     3.10656e-01     1.17227e-01
     14801      14826      1   0.095591  -0.460790     2.73568e-01     1.08078e-01
     14801      14803      1   0.095591   1.116434     3.10656e-01     1.17227e-01
     14800      14826      1   0.095591  -0.460790     2.73568e-01     1.08078e-01
     14800      14803      1   0.095591   1.116434     3.10656e-01     1.17227e-01
     14798      14800      1   0.063253   0.079659     2.47135e-01     3.28444e-02
     14798      14801      1   0.063253   0.079659     2.47135e-01     3.28444e-02
     14798      14802      1   0.063253  -0.424567     2.73568e-01     1.08078e-01
     14798      14827      1   0.063253   0.748011     2.93551e-01     7.68707e-02
     14796      14798      1   0.070469   0.052711     2.47135e-01     3.28444e-02
     14796      14799      1   0.070469   0.014549     2.93551e-01     8.67002e-02
     14796      14826      1   0.070469  -0.460790     2.73568e-01     1.08078e-01
     14795      14798      1   0.070469   0.052711     2.47135e-01     3.28444e-02
     14795      14799      1   0.070469   0.014549     2.93551e-01     8.67002e-02
     14795      14826      1   0.070469  -0.460790     2.73568e-01     1.08078e-01
     14794      14800      1   0.196939   0.079659     2.93551e-01     8.67002e-02
     14794      14801      1   0.196939   0.079659     2.93551e-01     8.67002e-02
     14793      14798      1  -0.575489   0.052711     2.73568e-01     1.08078e-01
     14791      14795      1   0.910403   0.058724     2.93551e-01     7.68707e-02
     14791      14796      1   0.910403   0.058724     2.93551e-01     7.68707e-02
     14865      14868      1   0.018859   0.044953     2.60142e-01     2.09200e-02
     14865      14867      1   0.018859   0.044953     2.60142e-01     2.09200e-02
     14864      14868      1   0.018859   0.044953     2.60142e-01     2.09200e-02
     14864      14867      1   0.018859   0.044953     2.60142e-01     2.09200e-02
     14862      14866      1   0.020431  -0.136833     3.00055e-01     6.91943e-02
     14862      14865      1   0.020431   0.015716     2.60142e-01     2.09200e-02
     14862      14864      1   0.020431   0.015716     2.60142e-01     2.09200e-02
     14861      14866      1   0.020431  -0.136833     3.00055e-01     6.91943e-02
     14861      14865      1   0.020431   0.015716     2.60142e-01     2.09200e-02
     14861      14864      1   0.020431   0.015716     2.60142e-01     2.09200e-02
     14860      14868      1  -0.026954   0.044953     3.00055e-01     6.91943e-02
     14860      14867      1  -0.026954   0.044953     3.00055e-01     6.91943e-02
     14859      14863      1   0.010573  -0.002029     3.00055e-01     6.91943e-02
     14859      14862      1   0.010573   0.017026     2.60142e-01     2.09200e-02
     14859      14861      1   0.010573   0.017026     2.60142e-01     2.09200e-02
     14858      14863      1   0.010573  -0.002029     3.00055e-01     6.91943e-02
     14858      14862      1   0.010573   0.017026     2.60142e-01     2.09200e-02
     14858      14861      1   0.010573   0.017026     2.60142e-01     2.09200e-02
     14857      14865      1  -0.016521   0.015716     3.00055e-01     6.91943e-02
     14857      14864      1  -0.016521   0.015716     3.00055e-01     6.91943e-02
     14856      14860      1   0.011511  -0.022462     3.00055e-01     6.91943e-02
     14856      14858      1   0.011511   0.008811     2.60142e-01     2.09200e-02
     14856      14859      1   0.011511   0.008811     2.60142e-01     2.09200e-02
     14855      14860      1   0.011511  -0.022462     3.00055e-01     6.91943e-02
     14855      14858      1   0.011511   0.008811     2.60142e-01     2.09200e-02
     14855      14859      1   0.011511   0.008811     2.60142e-01     2.09200e-02
     14854      14862      1  -0.027812   0.017026     3.00055e-01     6.91943e-02
     14854      14861      1  -0.027812   0.017026     3.00055e-01     6.91943e-02
     14853      14857      1   0.006833  -0.013767     3.00055e-01     6.91943e-02
     14853      14855      1   0.006833   0.009592     2.60142e-01     2.09200e-02
     14853      14856      1   0.006833   0.009592     2.60142e-01     2.09200e-02
     14852      14857      1   0.006833  -0.013767     3.00055e-01     6.91943e-02
     14852      14855      1   0.006833   0.009592     2.60142e-01     2.09200e-02
     14852      14856      1   0.006833   0.009592     2.60142e-01     2.09200e-02
     14851      14858      1  -0.004386   0.008811     3.00055e-01     6.91943e-02
     14851      14859      1  -0.004386   0.008811     3.00055e-01     6.91943e-02
     14850      14854      1   0.011241  -0.023177     3.00055e-01     6.91943e-02
     14850      14852      1   0.011241   0.005694     2.60142e-01     2.09200e-02
     14850      14853      1   0.011241   0.005694     2.60142e-01     2.09200e-02
     14849      14854      1   0.011241  -0.023177     3.00055e-01     6.91943e-02
     14849      14852      1   0.011241   0.005694     2.60142e-01     2.09200e-02
     14849      14853      1   0.011241   0.005694     2.60142e-01     2.09200e-02
     14848      14855      1  -0.026451   0.009592     3.00055e-01     6.91943e-02
     14848      14856      1  -0.026451   0.009592     3.00055e-01     6.91943e-02
     14847      14851      1   0.010172  -0.003655     3.00055e-01     6.91943e-02
     14847      14850      1   0.010172   0.009367     2.60142e-01     2.09200e-02
     14847      14849      1   0.010172   0.009367     2.60142e-01     2.09200e-02
     14846      14851      1   0.010172  -0.003655     3.00055e-01     6.91943e-02
     14846      14850      1   0.010172   0.009367     2.60142e-01     2.09200e-02
     14846      14849      1   0.010172   0.009367     2.60142e-01     2.09200e-02
     14845      14852      1  -0.014653   0.005694     3.00055e-01     6.91943e-02
     14845      14853      1  -0.014653   0.005694     3.00055e-01     6.91943e-02
     14844      14848      1   0.010037  -0.022042     3.00055e-01     6.91943e-02
     14844      14846      1   0.010037   0.008477     2.60142e-01     2.09200e-02
     14844      14847      1   0.010037   0.008477     2.60142e-01     2.09200e-02
     14843      14848      1   0.010037  -0.022042     3.00055e-01     6.91943e-02
     14843      14846      1   0.010037   0.008477     2.60142e-01     2.09200e-02
     14843      14847      1   0.010037   0.008477     2.60142e-01     2.09200e-02
     14842      14850      1  -0.021025   0.009367     3.00055e-01     6.91943e-02
     14842      14849      1  -0.021025   0.009367     3.00055e-01     6.91943e-02
     14841      14845      1   0.012677  -0.012211     3.00055e-01     6.91943e-02
     14841      14844      1   0.012677   0.008364     2.60142e-01     2.09200e-02
     14841      14843      1   0.012677   0.008364     2.60142e-01     2.09200e-02
     14840      14845      1   0.012677  -0.012211     3.00055e-01     6.91943e-02
     14840      14844      1   0.012677   0.008364     2.60142e-01     2.09200e-02
     14840      14843      1   0.012677   0.008364     2.60142e-01     2.09200e-02
     14839      14846      1  -0.031787   0.008477     3.00055e-01     6.91943e-02
     14839      14847      1  -0.031787   0.008477     3.00055e-01     6.91943e-02
     14838      14842      1   0.017208  -0.017521     3.00055e-01     6.91943e-02
     14838      14840      1   0.017208   0.010564     2.60142e-01     2.09200e-02
     14838      14841      1   0.017208   0.010564     2.60142e-01     2.09200e-02
     14837      14842      1   0.017208  -0.017521     3.00055e-01     6.91943e-02
     14837      14840      1   0.017208   0.010564     2.60142e-01     2.09200e-02
     14837      14841      1   0.017208   0.010564     2.60142e-01     2.09200e-02
     14836      14844      1  -0.028094   0.008364     3.00055e-01     6.91943e-02
     14836      14843      1  -0.028094   0.008364     3.00055e-01     6.91943e-02
     14835      14839      1   0.007531  -0.026489     3.00055e-01     6.91943e-02
     14835      14838      1   0.007531   0.014340     2.60142e-01     2.09200e-02
     14835      14837      1   0.007531   0.014340     2.60142e-01     2.09200e-02
     14834      14839      1   0.007531  -0.026489     3.00055e-01     6.91943e-02
     14834      14838      1   0.007531   0.014340     2.60142e-01     2.09200e-02
     14834      14837      1   0.007531   0.014340     2.60142e-01     2.09200e-02
     14833      14840      1   0.017463   0.010564     3.00055e-01     6.91943e-02
     14833      14841      1   0.017463   0.010564     3.00055e-01     6.91943e-02
     14832      14836      1   0.025511  -0.023412     3.00055e-01     6.91943e-02
     14832      14834      1   0.025511   0.006276     2.60142e-01     2.09200e-02
     14832      14835      1   0.025511   0.006276     2.60142e-01     2.09200e-02
     14831      14836      1   0.025511  -0.023412     3.00055e-01     6.91943e-02
     14831      14834      1   0.025511   0.006276     2.60142e-01     2.09200e-02
     14831      14835      1   0.025511   0.006276     2.60142e-01     2.09200e-02
     14830      14838      1  -0.111712   0.014340     3.00055e-01     6.91943e-02
     14830      14837      1  -0.111712   0.014340     3.00055e-01     6.91943e-02
     14829      14836      1   0.025511  -0.023412     3.00055e-01     6.91943e-02
     14829      14834      1   0.025511   0.006276     2.60142e-01     2.09200e-02
     14829      14835      1   0.025511   0.006276     2.60142e-01     2.09200e-02
     14908      14910      1   0.053944  -0.559638     2.78067e-01     9.58675e-02
     14908      14911      1   0.053944  -0.479574     2.80072e-01     8.62554e-02
     14907      14910      1   0.053944  -0.559638     2.78067e-01     9.58675e-02
     14907      14911      1   0.053944  -0.479574     2.80072e-01     8.62554e-02
     14905      14908      1   0.018859   0.044953     2.60142e-01     2.09200e-02
     14905      14907      1   0.018859   0.044953     2.60142e-01     2.09200e-02
     14905      14909      1   0.018859   0.758669     3.00055e-01     6.13495e-02
     14904      14908      1   0.018859   0.044953     2.60142e-01     2.09200e-02
     14904      14907      1   0.018859   0.044953     2.60142e-01     2.09200e-02
     14904      14909      1   0.018859   0.758669     3.00055e-01     6.13495e-02
     14902      14906      1   0.020431  -0.136833     3.00055e-01     6.91943e-02
     14902      14905      1   0.020431   0.015716     2.60142e-01     2.09200e-02
     14902      14904      1   0.020431   0.015716     2.60142e-01     2.09200e-02
     14901      14906      1   0.020431  -0.136833     3.00055e-01     6.91943e-02
     14901      14905      1   0.020431   0.015716     2.60142e-01     2.09200e-02
     14901      14904      1   0.020431   0.015716     2.60142e-01     2.09200e-02
     14900      14908      1  -0.026954   0.044953     3.00055e-01     6.91943e-02
     14900      14907      1  -0.026954   0.044953     3.00055e-01     6.91943e-02
     14899      14903      1   0.010573  -0.002029     3.00055e-01     6.91943e-02
     14899      14902      1   0.010573   0.017026     2.60142e-01     2.09200e-02
     14899      14901      1   0.010573   0.017026     2.60142e-01     2.09200e-02
     14898      14903      1   0.010573  -0.002029     3.00055e-01     6.91943e-02
     14898      14902      1   0.010573   0.017026     2.60142e-01     2.09200e-02
     14898      14901      1   0.010573   0.017026     2.60142e-01     2.09200e-02
     14897      14905      1  -0.016521   0.015716     3.00055e-01     6.91943e-02
     14897      14904      1  -0.016521   0.015716     3.00055e-01     6.91943e-02
     14896      14900      1   0.011511  -0.022462     3.00055e-01     6.91943e-02
     14896      14898      1   0.011511   0.008811     2.60142e-01     2.09200e-02
     14896      14899      1   0.011511   0.008811     2.60142e-01     2.09200e-02
     14895      14900      1   0.011511  -0.022462     3.00055e-01     6.91943e-02
     14895      14898      1   0.011511   0.008811     2.60142e-01     2.09200e-02
     14895      14899      1   0.011511   0.008811     2.60142e-01     2.09200e-02
     14894      14902      1  -0.027812   0.017026     3.00055e-01     6.91943e-02
     14894      14901      1  -0.027812   0.017026     3.00055e-01     6.91943e-02
     14893      14897      1   0.006833  -0.013767     3.00055e-01     6.91943e-02
     14893      14895      1   0.006833   0.009592     2.60142e-01     2.09200e-02
     14893      14896      1   0.006833   0.009592     2.60142e-01     2.09200e-02
     14892      14897      1   0.006833  -0.013767     3.00055e-01     6.91943e-02
     14892      14895      1   0.006833   0.009592     2.60142e-01     2.09200e-02
     14892      14896      1   0.006833   0.009592     2.60142e-01     2.09200e-02
     14891      14898      1  -0.004386   0.008811     3.00055e-01     6.91943e-02
     14891      14899      1  -0.004386   0.008811     3.00055e-01     6.91943e-02
     14890      14894      1   0.011241  -0.023177     3.00055e-01     6.91943e-02
     14890      14892      1   0.011241   0.005694     2.60142e-01     2.09200e-02
     14890      14893      1   0.011241   0.005694     2.60142e-01     2.09200e-02
     14889      14894      1   0.011241  -0.023177     3.00055e-01     6.91943e-02
     14889      14892      1   0.011241   0.005694     2.60142e-01     2.09200e-02
     14889      14893      1   0.011241   0.005694     2.60142e-01     2.09200e-02
     14888      14895      1  -0.026451   0.009592     3.00055e-01     6.91943e-02
     14888      14896      1  -0.026451   0.009592     3.00055e-01     6.91943e-02
     14887      14891      1   0.010172  -0.003655     3.00055e-01     6.91943e-02
     14887      14890      1   0.010172   0.009367     2.60142e-01     2.09200e-02
     14887      14889      1   0.010172   0.009367     2.60142e-01     2.09200e-02
     14886      14891      1   0.010172  -0.003655     3.00055e-01     6.91943e-02
     14886      14890      1   0.010172   0.009367     2.60142e-01     2.09200e-02
     14886      14889      1   0.010172   0.009367     2.60142e-01     2.09200e-02
     14885      14892      1  -0.014653   0.005694     3.00055e-01     6.91943e-02
     14885      14893      1  -0.014653   0.005694     3.00055e-01     6.91943e-02
     14884      14888      1   0.010037  -0.022042     3.00055e-01     6.91943e-02
     14884      14886      1   0.010037   0.008477     2.60142e-01     2.09200e-02
     14884      14887      1   0.010037   0.008477     2.60142e-01     2.09200e-02
     14883      14888      1   0.010037  -0.022042     3.00055e-01     6.91943e-02
     14883      14886      1   0.010037   0.008477     2.60142e-01     2.09200e-02
     14883      14887      1   0.010037   0.008477     2.60142e-01     2.09200e-02
     14882      14890      1  -0.021025   0.009367     3.00055e-01     6.91943e-02
     14882      14889      1  -0.021025   0.009367     3.00055e-01     6.91943e-02
     14881      14885      1   0.012677  -0.012211     3.00055e-01     6.91943e-02
     14881      14884      1   0.012677   0.008364     2.60142e-01     2.09200e-02
     14881      14883      1   0.012677   0.008364     2.60142e-01     2.09200e-02
     14880      14885      1   0.012677  -0.012211     3.00055e-01     6.91943e-02
     14880      14884      1   0.012677   0.008364     2.60142e-01     2.09200e-02
     14880      14883      1   0.012677   0.008364     2.60142e-01     2.09200e-02
     14879      14886      1  -0.031787   0.008477     3.00055e-01     6.91943e-02
     14879      14887      1  -0.031787   0.008477     3.00055e-01     6.91943e-02
     14878      14882      1   0.017208  -0.017521     3.00055e-01     6.91943e-02
     14878      14880      1   0.017208   0.010564     2.60142e-01     2.09200e-02
     14878      14881      1   0.017208   0.010564     2.60142e-01     2.09200e-02
     14877      14882      1   0.017208  -0.017521     3.00055e-01     6.91943e-02
     14877      14880      1   0.017208   0.010564     2.60142e-01     2.09200e-02
     14877      14881      1   0.017208   0.010564     2.60142e-01     2.09200e-02
     14876      14884      1  -0.028094   0.008364     3.00055e-01     6.91943e-02
     14876      14883      1  -0.028094   0.008364     3.00055e-01     6.91943e-02
     14875      14879      1   0.007531  -0.026489     3.00055e-01     6.91943e-02
     14875      14878      1   0.007531   0.014340     2.60142e-01     2.09200e-02
     14875      14877      1   0.007531   0.014340     2.60142e-01     2.09200e-02
     14874      14879      1   0.007531  -0.026489     3.00055e-01     6.91943e-02
     14874      14878      1   0.007531   0.014340     2.60142e-01     2.09200e-02
     14874      14877      1   0.007531   0.014340     2.60142e-01     2.09200e-02
     14873      14880      1   0.017463   0.010564     3.00055e-01     6.91943e-02
     14873      14881      1   0.017463   0.010564     3.00055e-01     6.91943e-02
     14872      14876      1   0.025511  -0.023412     3.00055e-01     6.91943e-02
     14872      14874      1   0.025511   0.006276     2.60142e-01     2.09200e-02
     14872      14875      1   0.025511   0.006276     2.60142e-01     2.09200e-02
     14871      14876      1   0.025511  -0.023412     3.00055e-01     6.91943e-02
     14871      14874      1   0.025511   0.006276     2.60142e-01     2.09200e-02
     14871      14875      1   0.025511   0.006276     2.60142e-01     2.09200e-02
     14870      14878      1  -0.111712   0.014340     3.00055e-01     6.91943e-02
     14870      14877      1  -0.111712   0.014340     3.00055e-01     6.91943e-02
     14869      14876      1   0.025511  -0.023412     3.00055e-01     6.91943e-02
     14869      14874      1   0.025511   0.006276     2.60142e-01     2.09200e-02
     14869      14875      1   0.025511   0.006276     2.60142e-01     2.09200e-02
     14946      14986      1  -0.673755   0.044953     2.78067e-01     9.58675e-02
     14946      14985      1  -0.673755   0.044953     2.78067e-01     9.58675e-02
     14945      14983      1   0.897613   0.015716     3.00055e-01     6.13495e-02
     14945      14982      1   0.897613   0.015716     3.00055e-01     6.13495e-02
     14944      14986      1  -0.552948   0.044953     2.80072e-01     8.62554e-02
     14944      14985      1  -0.552948   0.044953     2.80072e-01     8.62554e-02
     14937      14938      1   0.172230  -0.282478     2.67982e-01     8.67002e-02
     14936      14938      1   0.172230  -0.282478     2.67982e-01     8.67002e-02
     14935      14938      1   0.172230  -0.282478     2.67982e-01     8.67002e-02
     14934      14939      1  -0.338973   0.143525     2.67982e-01     8.67002e-02
     14934      14940      1  -0.338973   0.143525     2.67982e-01     8.67002e-02
     14934      14941      1  -0.338973   0.143525     2.67982e-01     8.67002e-02
     14933      14934      1   0.172230  -0.282478     2.67982e-01     8.67002e-02
     14933      14938      1   0.172230  -0.282478     2.67982e-01     8.67002e-02
     14932      14934      1   0.172230  -0.282478     2.67982e-01     8.67002e-02
     14932      14938      1   0.172230  -0.282478     2.67982e-01     8.67002e-02
     14931      14934      1   0.172230  -0.282478     2.67982e-01     8.67002e-02
     14931      14938      1   0.172230  -0.282478     2.67982e-01     8.67002e-02
     14930      14935      1  -0.338973   0.143525     2.67982e-01     8.67002e-02
     14930      14936      1  -0.338973   0.143525     2.67982e-01     8.67002e-02
     14930      14937      1  -0.338973   0.143525     2.67982e-01     8.67002e-02
     14930      14939      1  -0.338973   0.143525     2.67982e-01     8.67002e-02
     14930      14940      1  -0.338973   0.143525     2.67982e-01     8.67002e-02
     14930      14941      1  -0.338973   0.143525     2.67982e-01     8.67002e-02
     14928      14930      1   0.136415  -0.282478     2.67982e-01     8.67002e-02
     14928      14934      1   0.136415  -0.282478     2.67982e-01     8.67002e-02
     14928      14938      1   0.136415  -0.282478     2.67982e-01     8.67002e-02
     14927      14930      1   0.136415  -0.282478     2.67982e-01     8.67002e-02
     14927      14934      1   0.136415  -0.282478     2.67982e-01     8.67002e-02
     14927      14938      1   0.136415  -0.282478     2.67982e-01     8.67002e-02
     14926      14931      1  -0.170824   0.143525     2.67982e-01     8.67002e-02
     14926      14932      1  -0.170824   0.143525     2.67982e-01     8.67002e-02
     14926      14933      1  -0.170824   0.143525     2.67982e-01     8.67002e-02
     14926      14935      1  -0.170824   0.143525     2.67982e-01     8.67002e-02
     14926      14936      1  -0.170824   0.143525     2.67982e-01     8.67002e-02
     14926      14937      1  -0.170824   0.143525     2.67982e-01     8.67002e-02
     14926      14939      1  -0.170824   0.143525     2.67982e-01     8.67002e-02
     14926      14940      1  -0.170824   0.143525     2.67982e-01     8.67002e-02
     14926      14941      1  -0.170824   0.143525     2.67982e-01     8.67002e-02
     14925      14927      1   0.078534   0.113679     2.21567e-01     3.28444e-02
     14925      14928      1   0.078534   0.113679     2.21567e-01     3.28444e-02
     14925      14929      1   0.078534   0.204385     2.86068e-01     1.08078e-01
     14924      14927      1   0.078534   0.113679     2.21567e-01     3.28444e-02
     14924      14928      1   0.078534   0.113679     2.21567e-01     3.28444e-02
     14924      14929      1   0.078534   0.204385     2.86068e-01     1.08078e-01
     14922      14927      1  -0.508176   0.113679     2.47999e-01     1.08078e-01
     14922      14928      1  -0.508176   0.113679     2.47999e-01     1.08078e-01
     14921      14924      1   1.339721   0.065445     3.10656e-01     1.17227e-01
     14921      14925      1   1.339721   0.065445     3.10656e-01     1.17227e-01
     14919      14944      1   0.095591  -0.460790     2.73568e-01     1.08078e-01
     14919      14921      1   0.095591   1.116434     3.10656e-01     1.17227e-01
     14918      14944      1   0.095591  -0.460790     2.73568e-01     1.08078e-01
     14918      14921      1   0.095591   1.116434     3.10656e-01     1.17227e-01
     14916      14918      1   0.063253   0.079659     2.47135e-01     3.28444e-02
     14916      14919      1   0.063253   0.079659     2.47135e-01     3.28444e-02
     14916      14920      1   0.063253  -0.424567     2.73568e-01     1.08078e-01
     14916      14945      1   0.063253   0.748011     2.93551e-01     7.68707e-02
     14914      14916      1   0.070469   0.052711     2.47135e-01     3.28444e-02
     14914      14917      1   0.070469   0.014549     2.93551e-01     8.67002e-02
     14914      14944      1   0.070469  -0.460790     2.73568e-01     1.08078e-01
     14913      14916      1   0.070469   0.052711     2.47135e-01     3.28444e-02
     14913      14917      1   0.070469   0.014549     2.93551e-01     8.67002e-02
     14913      14944      1   0.070469  -0.460790     2.73568e-01     1.08078e-01
     14912      14918      1   0.196939   0.079659     2.93551e-01     8.67002e-02
     14912      14919      1   0.196939   0.079659     2.93551e-01     8.67002e-02
     14911      14916      1  -0.575489   0.052711     2.73568e-01     1.08078e-01
     14909      14913      1   0.910403   0.058724     2.93551e-01     7.68707e-02
     14909      14914      1   0.910403   0.058724     2.93551e-01     7.68707e-02
     14983      14986      1   0.018859   0.044953     2.60142e-01     2.09200e-02
     14983      14985      1   0.018859   0.044953     2.60142e-01     2.09200e-02
     14982      14986      1   0.018859   0.044953     2.60142e-01     2.09200e-02
     14982      14985      1   0.018859   0.044953     2.60142e-01     2.09200e-02
     14980      14984      1   0.020431  -0.136833     3.00055e-01     6.91943e-02
     14980      14983      1   0.020431   0.015716     2.60142e-01     2.09200e-02
     14980      14982      1   0.020431   0.015716     2.60142e-01     2.09200e-02
     14979      14984      1   0.020431  -0.136833     3.00055e-01     6.91943e-02
     14979      14983      1   0.020431   0.015716     2.60142e-01     2.09200e-02
     14979      14982      1   0.020431   0.015716     2.60142e-01     2.09200e-02
     14978      14986      1  -0.026954   0.044953     3.00055e-01     6.91943e-02
     14978      14985      1  -0.026954   0.044953     3.00055e-01     6.91943e-02
     14977      14981      1   0.010573  -0.002029     3.00055e-01     6.91943e-02
     14977      14980      1   0.010573   0.017026     2.60142e-01     2.09200e-02
     14977      14979      1   0.010573   0.017026     2.60142e-01     2.09200e-02
     14976      14981      1   0.010573  -0.002029     3.00055e-01     6.91943e-02
     14976      14980      1   0.010573   0.017026     2.60142e-01     2.09200e-02
     14976      14979      1   0.010573   0.017026     2.60142e-01     2.09200e-02
     14975      14983      1  -0.016521   0.015716     3.00055e-01     6.91943e-02
     14975      14982      1  -0.016521   0.015716     3.00055e-01     6.91943e-02
     14974      14978      1   0.011511  -0.022462     3.00055e-01     6.91943e-02
     14974      14976      1   0.011511   0.008811     2.60142e-01     2.09200e-02
     14974      14977      1   0.011511   0.008811     2.60142e-01     2.09200e-02
     14973      14978      1   0.011511  -0.022462     3.00055e-01     6.91943e-02
     14973      14976      1   0.011511   0.008811     2.60142e-01     2.09200e-02
     14973      14977      1   0.011511   0.008811     2.60142e-01     2.09200e-02
     14972      14980      1  -0.027812   0.017026     3.00055e-01     6.91943e-02
     14972      14979      1  -0.027812   0.017026     3.00055e-01     6.91943e-02
     14971      14975      1   0.006833  -0.013767     3.00055e-01     6.91943e-02
     14971      14973      1   0.006833   0.009592     2.60142e-01     2.09200e-02
     14971      14974      1   0.006833   0.009592     2.60142e-01     2.09200e-02
     14970      14975      1   0.006833  -0.013767     3.00055e-01     6.91943e-02
     14970      14973      1   0.006833   0.009592     2.60142e-01     2.09200e-02
     14970      14974      1   0.006833   0.009592     2.60142e-01     2.09200e-02
     14969      14976      1  -0.004386   0.008811     3.00055e-01     6.91943e-02
     14969      14977      1  -0.004386   0.008811     3.00055e-01     6.91943e-02
     14968      14972      1   0.011241  -0.023177     3.00055e-01     6.91943e-02
     14968      14970      1   0.011241   0.005694     2.60142e-01     2.09200e-02
     14968      14971      1   0.011241   0.005694     2.60142e-01     2.09200e-02
     14967      14972      1   0.011241  -0.023177     3.00055e-01     6.91943e-02
     14967      14970      1   0.011241   0.005694     2.60142e-01     2.09200e-02
     14967      14971      1   0.011241   0.005694     2.60142e-01     2.09200e-02
     14966      14973      1  -0.026451   0.009592     3.00055e-01     6.91943e-02
     14966      14974      1  -0.026451   0.009592     3.00055e-01     6.91943e-02
     14965      14969      1   0.010172  -0.003655     3.00055e-01     6.91943e-02
     14965      14968      1   0.010172   0.009367     2.60142e-01     2.09200e-02
     14965      14967      1   0.010172   0.009367     2.60142e-01     2.09200e-02
     14964      14969      1   0.010172  -0.003655     3.00055e-01     6.91943e-02
     14964      14968      1   0.010172   0.009367     2.60142e-01     2.09200e-02
     14964      14967      1   0.010172   0.009367     2.60142e-01     2.09200e-02
     14963      14970      1  -0.014653   0.005694     3.00055e-01     6.91943e-02
     14963      14971      1  -0.014653   0.005694     3.00055e-01     6.91943e-02
     14962      14966      1   0.010037  -0.022042     3.00055e-01     6.91943e-02
     14962      14964      1   0.010037   0.008477     2.60142e-01     2.09200e-02
     14962      14965      1   0.010037   0.008477     2.60142e-01     2.09200e-02
     14961      14966      1   0.010037  -0.022042     3.00055e-01     6.91943e-02
     14961      14964      1   0.010037   0.008477     2.60142e-01     2.09200e-02
     14961      14965      1   0.010037   0.008477     2.60142e-01     2.09200e-02
     14960      14968      1  -0.021025   0.009367     3.00055e-01     6.91943e-02
     14960      14967      1  -0.021025   0.009367     3.00055e-01     6.91943e-02
     14959      14963      1   0.012677  -0.012211     3.00055e-01     6.91943e-02
     14959      14962      1   0.012677   0.008364     2.60142e-01     2.09200e-02
     14959      14961      1   0.012677   0.008364     2.60142e-01     2.09200e-02
     14958      14963      1   0.012677  -0.012211     3.00055e-01     6.91943e-02
     14958      14962      1   0.012677   0.008364     2.60142e-01     2.09200e-02
     14958      14961      1   0.012677   0.008364     2.60142e-01     2.09200e-02
     14957      14964      1  -0.031787   0.008477     3.00055e-01     6.91943e-02
     14957      14965      1  -0.031787   0.008477     3.00055e-01     6.91943e-02
     14956      14960      1   0.017208  -0.017521     3.00055e-01     6.91943e-02
     14956      14958      1   0.017208   0.010564     2.60142e-01     2.09200e-02
     14956      14959      1   0.017208   0.010564     2.60142e-01     2.09200e-02
     14955      14960      1   0.017208  -0.017521     3.00055e-01     6.91943e-02
     14955      14958      1   0.017208   0.010564     2.60142e-01     2.09200e-02
     14955      14959      1   0.017208   0.010564     2.60142e-01     2.09200e-02
     14954      14962      1  -0.028094   0.008364     3.00055e-01     6.91943e-02
     14954      14961      1  -0.028094   0.008364     3.00055e-01     6.91943e-02
     14953      14957      1   0.007531  -0.026489     3.00055e-01     6.91943e-02
     14953      14956      1   0.007531   0.014340     2.60142e-01     2.09200e-02
     14953      14955      1   0.007531   0.014340     2.60142e-01     2.09200e-02
     14952      14957      1   0.007531  -0.026489     3.00055e-01     6.91943e-02
     14952      14956      1   0.007531   0.014340     2.60142e-01     2.09200e-02
     14952      14955      1   0.007531   0.014340     2.60142e-01     2.09200e-02
     14951      14958      1   0.017463   0.010564     3.00055e-01     6.91943e-02
     14951      14959      1   0.017463   0.010564     3.00055e-01     6.91943e-02
     14950      14954      1   0.025511  -0.023412     3.00055e-01     6.91943e-02
     14950      14952      1   0.025511   0.006276     2.60142e-01     2.09200e-02
     14950      14953      1   0.025511   0.006276     2.60142e-01     2.09200e-02
     14949      14954      1   0.025511  -0.023412     3.00055e-01     6.91943e-02
     14949      14952      1   0.025511   0.006276     2.60142e-01     2.09200e-02
     14949      14953      1   0.025511   0.006276     2.60142e-01     2.09200e-02
     14948      14956      1  -0.111712   0.014340     3.00055e-01     6.91943e-02
     14948      14955      1  -0.111712   0.014340     3.00055e-01     6.91943e-02
     14947      14954      1   0.025511  -0.023412     3.00055e-01     6.91943e-02
     14947      14952      1   0.025511   0.006276     2.60142e-01     2.09200e-02
     14947      14953      1   0.025511   0.006276     2.60142e-01     2.09200e-02
     15026      15028      1   0.053944  -0.559638     2.78067e-01     9.58675e-02
     15026      15029      1   0.053944  -0.479574     2.80072e-01     8.62554e-02
     15025      15028      1   0.053944  -0.559638     2.78067e-01     9.58675e-02
     15025      15029      1   0.053944  -0.479574     2.80072e-01     8.62554e-02
     15023      15026      1   0.018859   0.044953     2.60142e-01     2.09200e-02
     15023      15025      1   0.018859   0.044953     2.60142e-01     2.09200e-02
     15023      15027      1   0.018859   0.758669     3.00055e-01     6.13495e-02
     15022      15026      1   0.018859   0.044953     2.60142e-01     2.09200e-02
     15022      15025      1   0.018859   0.044953     2.60142e-01     2.09200e-02
     15022      15027      1   0.018859   0.758669     3.00055e-01     6.13495e-02
     15020      15024      1   0.020431  -0.136833     3.00055e-01     6.91943e-02
     15020      15023      1   0.020431   0.015716     2.60142e-01     2.09200e-02
     15020      15022      1   0.020431   0.015716     2.60142e-01     2.09200e-02
     15019      15024      1   0.020431  -0.136833     3.00055e-01     6.91943e-02
     15019      15023      1   0.020431   0.015716     2.60142e-01     2.09200e-02
     15019      15022      1   0.020431   0.015716     2.60142e-01     2.09200e-02
     15018      15026      1  -0.026954   0.044953     3.00055e-01     6.91943e-02
     15018      15025      1  -0.026954   0.044953     3.00055e-01     6.91943e-02
     15017      15021      1   0.010573  -0.002029     3.00055e-01     6.91943e-02
     15017      15020      1   0.010573   0.017026     2.60142e-01     2.09200e-02
     15017      15019      1   0.010573   0.017026     2.60142e-01     2.09200e-02
     15016      15021      1   0.010573  -0.002029     3.00055e-01     6.91943e-02
     15016      15020      1   0.010573   0.017026     2.60142e-01     2.09200e-02
     15016      15019      1   0.010573   0.017026     2.60142e-01     2.09200e-02
     15015      15023      1  -0.016521   0.015716     3.00055e-01     6.91943e-02
     15015      15022      1  -0.016521   0.015716     3.00055e-01     6.91943e-02
     15014      15018      1   0.011511  -0.022462     3.00055e-01     6.91943e-02
     15014      15016      1   0.011511   0.008811     2.60142e-01     2.09200e-02
     15014      15017      1   0.011511   0.008811     2.60142e-01     2.09200e-02
     15013      15018      1   0.011511  -0.022462     3.00055e-01     6.91943e-02
     15013      15016      1   0.011511   0.008811     2.60142e-01     2.09200e-02
     15013      15017      1   0.011511   0.008811     2.60142e-01     2.09200e-02
     15012      15020      1  -0.027812   0.017026     3.00055e-01     6.91943e-02
     15012      15019      1  -0.027812   0.017026     3.00055e-01     6.91943e-02
     15011      15015      1   0.006833  -0.013767     3.00055e-01     6.91943e-02
     15011      15013      1   0.006833   0.009592     2.60142e-01     2.09200e-02
     15011      15014      1   0.006833   0.009592     2.60142e-01     2.09200e-02
     15010      15015      1   0.006833  -0.013767     3.00055e-01     6.91943e-02
     15010      15013      1   0.006833   0.009592     2.60142e-01     2.09200e-02
     15010      15014      1   0.006833   0.009592     2.60142e-01     2.09200e-02
     15009      15016      1  -0.004386   0.008811     3.00055e-01     6.91943e-02
     15009      15017      1  -0.004386   0.008811     3.00055e-01     6.91943e-02
     15008      15012      1   0.011241  -0.023177     3.00055e-01     6.91943e-02
     15008      15010      1   0.011241   0.005694     2.60142e-01     2.09200e-02
     15008      15011      1   0.011241   0.005694     2.60142e-01     2.09200e-02
     15007      15012      1   0.011241  -0.023177     3.00055e-01     6.91943e-02
     15007      15010      1   0.011241   0.005694     2.60142e-01     2.09200e-02
     15007      15011      1   0.011241   0.005694     2.60142e-01     2.09200e-02
     15006      15013      1  -0.026451   0.009592     3.00055e-01     6.91943e-02
     15006      15014      1  -0.026451   0.009592     3.00055e-01     6.91943e-02
     15005      15009      1   0.010172  -0.003655     3.00055e-01     6.91943e-02
     15005      15008      1   0.010172   0.009367     2.60142e-01     2.09200e-02
     15005      15007      1   0.010172   0.009367     2.60142e-01     2.09200e-02
     15004      15009      1   0.010172  -0.003655     3.00055e-01     6.91943e-02
     15004      15008      1   0.010172   0.009367     2.60142e-01     2.09200e-02
     15004      15007      1   0.010172   0.009367     2.60142e-01     2.09200e-02
     15003      15010      1  -0.014653   0.005694     3.00055e-01     6.91943e-02
     15003      15011      1  -0.014653   0.005694     3.00055e-01     6.91943e-02
     15002      15006      1   0.010037  -0.022042     3.00055e-01     6.91943e-02
     15002      15004      1   0.010037   0.008477     2.60142e-01     2.09200e-02
     15002      15005      1   0.010037   0.008477     2.60142e-01     2.09200e-02
     15001      15006      1   0.010037  -0.022042     3.00055e-01     6.91943e-02
     15001      15004      1   0.010037   0.008477     2.60142e-01     2.09200e-02
     15001      15005      1   0.010037   0.008477     2.60142e-01     2.09200e-02
     15000      15008      1  -0.021025   0.009367     3.00055e-01     6.91943e-02
     15000      15007      1  -0.021025   0.009367     3.00055e-01     6.91943e-02
     14999      15003      1   0.012677  -0.012211     3.00055e-01     6.91943e-02
     14999      15002      1   0.012677   0.008364     2.60142e-01     2.09200e-02
     14999      15001      1   0.012677   0.008364     2.60142e-01     2.09200e-02
     14998      15003      1   0.012677  -0.012211     3.00055e-01     6.91943e-02
     14998      15002      1   0.012677   0.008364     2.60142e-01     2.09200e-02
     14998      15001      1   0.012677   0.008364     2.60142e-01     2.09200e-02
     14997      15004      1  -0.031787   0.008477     3.00055e-01     6.91943e-02
     14997      15005      1  -0.031787   0.008477     3.00055e-01     6.91943e-02
     14996      15000      1   0.017208  -0.017521     3.00055e-01     6.91943e-02
     14996      14998      1   0.017208   0.010564     2.60142e-01     2.09200e-02
     14996      14999      1   0.017208   0.010564     2.60142e-01     2.09200e-02
     14995      15000      1   0.017208  -0.017521     3.00055e-01     6.91943e-02
     14995      14998      1   0.017208   0.010564     2.60142e-01     2.09200e-02
     14995      14999      1   0.017208   0.010564     2.60142e-01     2.09200e-02
     14994      15002      1  -0.028094   0.008364     3.00055e-01     6.91943e-02
     14994      15001      1  -0.028094   0.008364     3.00055e-01     6.91943e-02
     14993      14997      1   0.007531  -0.026489     3.00055e-01     6.91943e-02
     14993      14996      1   0.007531   0.014340     2.60142e-01     2.09200e-02
     14993      14995      1   0.007531   0.014340     2.60142e-01     2.09200e-02
     14992      14997      1   0.007531  -0.026489     3.00055e-01     6.91943e-02
     14992      14996      1   0.007531   0.014340     2.60142e-01     2.09200e-02
     14992      14995      1   0.007531   0.014340     2.60142e-01     2.09200e-02
     14991      14998      1   0.017463   0.010564     3.00055e-01     6.91943e-02
     14991      14999      1   0.017463   0.010564     3.00055e-01     6.91943e-02
     14990      14994      1   0.025511  -0.023412     3.00055e-01     6.91943e-02
     14990      14992      1   0.025511   0.006276     2.60142e-01     2.09200e-02
     14990      14993      1   0.025511   0.006276     2.60142e-01     2.09200e-02
     14989      14994      1   0.025511  -0.023412     3.00055e-01     6.91943e-02
     14989      14992      1   0.025511   0.006276     2.60142e-01     2.09200e-02
     14989      14993      1   0.025511   0.006276     2.60142e-01     2.09200e-02
     14988      14996      1  -0.111712   0.014340     3.00055e-01     6.91943e-02
     14988      14995      1  -0.111712   0.014340     3.00055e-01     6.91943e-02
     14987      14994      1   0.025511  -0.023412     3.00055e-01     6.91943e-02
     14987      14992      1   0.025511   0.006276     2.60142e-01     2.09200e-02
     14987      14993      1   0.025511   0.006276     2.60142e-01     2.09200e-02
     15064      15104      1  -0.673755   0.044953     2.78067e-01     9.58675e-02
     15064      15103      1  -0.673755   0.044953     2.78067e-01     9.58675e-02
     15063      15101      1   0.897613   0.015716     3.00055e-01     6.13495e-02
     15063      15100      1   0.897613   0.015716     3.00055e-01     6.13495e-02
     15062      15104      1  -0.552948   0.044953     2.80072e-01     8.62554e-02
     15062      15103      1  -0.552948   0.044953     2.80072e-01     8.62554e-02
     15055      15056      1   0.172230  -0.282478     2.67982e-01     8.67002e-02
     15054      15056      1   0.172230  -0.282478     2.67982e-01     8.67002e-02
     15053      15056      1   0.172230  -0.282478     2.67982e-01     8.67002e-02
     15052      15057      1  -0.338973   0.143525     2.67982e-01     8.67002e-02
     15052      15058      1  -0.338973   0.143525     2.67982e-01     8.67002e-02
     15052      15059      1  -0.338973   0.143525     2.67982e-01     8.67002e-02
     15051      15052      1   0.172230  -0.282478     2.67982e-01     8.67002e-02
     15051      15056      1   0.172230  -0.282478     2.67982e-01     8.67002e-02
     15050      15052      1   0.172230  -0.282478     2.67982e-01     8.67002e-02
     15050      15056      1   0.172230  -0.282478     2.67982e-01     8.67002e-02
     15049      15052      1   0.172230  -0.282478     2.67982e-01     8.67002e-02
     15049      15056      1   0.172230  -0.282478     2.67982e-01     8.67002e-02
     15048      15053      1  -0.338973   0.143525     2.67982e-01     8.67002e-02
     15048      15054      1  -0.338973   0.143525     2.67982e-01     8.67002e-02
     15048      15055      1  -0.338973   0.143525     2.67982e-01     8.67002e-02
     15048      15057      1  -0.338973   0.143525     2.67982e-01     8.67002e-02
     15048      15058      1  -0.338973   0.143525     2.67982e-01     8.67002e-02
     15048      15059      1  -0.338973   0.143525     2.67982e-01     8.67002e-02
     15046      15048      1   0.136415  -0.282478     2.67982e-01     8.67002e-02
     15046      15052      1   0.136415  -0.282478     2.67982e-01     8.67002e-02
     15046      15056      1   0.136415  -0.282478     2.67982e-01     8.67002e-02
     15045      15048      1   0.136415  -0.282478     2.67982e-01     8.67002e-02
     15045      15052      1   0.136415  -0.282478     2.67982e-01     8.67002e-02
     15045      15056      1   0.136415  -0.282478     2.67982e-01     8.67002e-02
     15044      15049      1  -0.170824   0.143525     2.67982e-01     8.67002e-02
     15044      15050      1  -0.170824   0.143525     2.67982e-01     8.67002e-02
     15044      15051      1  -0.170824   0.143525     2.67982e-01     8.67002e-02
     15044      15053      1  -0.170824   0.143525     2.67982e-01     8.67002e-02
     15044      15054      1  -0.170824   0.143525     2.67982e-01     8.67002e-02
     15044      15055      1  -0.170824   0.143525     2.67982e-01     8.67002e-02
     15044      15057      1  -0.170824   0.143525     2.67982e-01     8.67002e-02
     15044      15058      1  -0.170824   0.143525     2.67982e-01     8.67002e-02
     15044      15059      1  -0.170824   0.143525     2.67982e-01     8.67002e-02
     15043      15045      1   0.078534   0.113679     2.21567e-01     3.28444e-02
     15043      15046      1   0.078534   0.113679     2.21567e-01     3.28444e-02
     15043      15047      1   0.078534   0.204385     2.86068e-01     1.08078e-01
     15042      15045      1   0.078534   0.113679     2.21567e-01     3.28444e-02
     15042      15046      1   0.078534   0.113679     2.21567e-01     3.28444e-02
     15042      15047      1   0.078534   0.204385     2.86068e-01     1.08078e-01
     15040      15045      1  -0.508176   0.113679     2.47999e-01     1.08078e-01
     15040      15046      1  -0.508176   0.113679     2.47999e-01     1.08078e-01
     15039      15042      1   1.339721   0.065445     3.10656e-01     1.17227e-01
     15039      15043      1   1.339721   0.065445     3.10656e-01     1.17227e-01
     15037      15062      1   0.095591  -0.460790     2.73568e-01     1.08078e-01
     15037      15039      1   0.095591   1.116434     3.10656e-01     1.17227e-01
     15036      15062      1   0.095591  -0.460790     2.73568e-01     1.08078e-01
     15036      15039      1   0.095591   1.116434     3.10656e-01     1.17227e-01
     15034      15036      1   0.063253   0.079659     2.47135e-01     3.28444e-02
     15034      15037      1   0.063253   0.079659     2.47135e-01     3.28444e-02
     15034      15038      1   0.063253  -0.424567     2.73568e-01     1.08078e-01
     15034      15063      1   0.063253   0.748011     2.93551e-01     7.68707e-02
     15032      15034      1   0.070469   0.052711     2.47135e-01     3.28444e-02
     15032      15035      1   0.070469   0.014549     2.93551e-01     8.67002e-02
     15032      15062      1   0.070469  -0.460790     2.73568e-01     1.08078e-01
     15031      15034      1   0.070469   0.052711     2.47135e-01     3.28444e-02
     15031      15035      1   0.070469   0.014549     2.93551e-01     8.67002e-02
     15031      15062      1   0.070469  -0.460790     2.73568e-01     1.08078e-01
     15030      15036      1   0.196939   0.079659     2.93551e-01     8.67002e-02
     15030      15037      1   0.196939   0.079659     2.93551e-01     8.67002e-02
     15029      15034      1  -0.575489   0.052711     2.73568e-01     1.08078e-01
     15027      15031      1   0.910403   0.058724     2.93551e-01     7.68707e-02
     15027      15032      1   0.910403   0.058724     2.93551e-01     7.68707e-02
     15101      15104      1   0.018859   0.044953     2.60142e-01     2.09200e-02
     15101      15103      1   0.018859   0.044953     2.60142e-01     2.09200e-02
     15100      15104      1   0.018859   0.044953     2.60142e-01     2.09200e-02
     15100      15103      1   0.018859   0.044953     2.60142e-01     2.09200e-02
     15098      15102      1   0.020431  -0.136833     3.00055e-01     6.91943e-02
     15098      15101      1   0.020431   0.015716     2.60142e-01     2.09200e-02
     15098      15100      1   0.020431   0.015716     2.60142e-01     2.09200e-02
     15097      15102      1   0.020431  -0.136833     3.00055e-01     6.91943e-02
     15097      15101      1   0.020431   0.015716     2.60142e-01     2.09200e-02
     15097      15100      1   0.020431   0.015716     2.60142e-01     2.09200e-02
     15096      15104      1  -0.026954   0.044953     3.00055e-01     6.91943e-02
     15096      15103      1  -0.026954   0.044953     3.00055e-01     6.91943e-02
     15095      15099      1   0.010573  -0.002029     3.00055e-01     6.91943e-02
     15095      15098      1   0.010573   0.017026     2.60142e-01     2.09200e-02
     15095      15097      1   0.010573   0.017026     2.60142e-01     2.09200e-02
     15094      15099      1   0.010573  -0.002029     3.00055e-01     6.91943e-02
     15094      15098      1   0.010573   0.017026     2.60142e-01     2.09200e-02
     15094      15097      1   0.010573   0.017026     2.60142e-01     2.09200e-02
     15093      15101      1  -0.016521   0.015716     3.00055e-01     6.91943e-02
     15093      15100      1  -0.016521   0.015716     3.00055e-01     6.91943e-02
     15092      15096      1   0.011511  -0.022462     3.00055e-01     6.91943e-02
     15092      15094      1   0.011511   0.008811     2.60142e-01     2.09200e-02
     15092      15095      1   0.011511   0.008811     2.60142e-01     2.09200e-02
     15091      15096      1   0.011511  -0.022462     3.00055e-01     6.91943e-02
     15091      15094      1   0.011511   0.008811     2.60142e-01     2.09200e-02
     15091      15095      1   0.011511   0.008811     2.60142e-01     2.09200e-02
     15090      15098      1  -0.027812   0.017026     3.00055e-01     6.91943e-02
     15090      15097      1  -0.027812   0.017026     3.00055e-01     6.91943e-02
     15089      15093      1   0.006833  -0.013767     3.00055e-01     6.91943e-02
     15089      15091      1   0.006833   0.009592     2.60142e-01     2.09200e-02
     15089      15092      1   0.006833   0.009592     2.60142e-01     2.09200e-02
     15088      15093      1   0.006833  -0.013767     3.00055e-01     6.91943e-02
     15088      15091      1   0.006833   0.009592     2.60142e-01     2.09200e-02
     15088      15092      1   0.006833   0.009592     2.60142e-01     2.09200e-02
     15087      15094      1  -0.004386   0.008811     3.00055e-01     6.91943e-02
     15087      15095      1  -0.004386   0.008811     3.00055e-01     6.91943e-02
     15086      15090      1   0.011241  -0.023177     3.00055e-01     6.91943e-02
     15086      15088      1   0.011241   0.005694     2.60142e-01     2.09200e-02
     15086      15089      1   0.011241   0.005694     2.60142e-01     2.09200e-02
     15085      15090      1   0.011241  -0.023177     3.00055e-01     6.91943e-02
     15085      15088      1   0.011241   0.005694     2.60142e-01     2.09200e-02
     15085      15089      1   0.011241   0.005694     2.60142e-01     2.09200e-02
     15084      15091      1  -0.026451   0.009592     3.00055e-01     6.91943e-02
     15084      15092      1  -0.026451   0.009592     3.00055e-01     6.91943e-02
     15083      15087      1   0.010172  -0.003655     3.00055e-01     6.91943e-02
     15083      15086      1   0.010172   0.009367     2.60142e-01     2.09200e-02
     15083      15085      1   0.010172   0.009367     2.60142e-01     2.09200e-02
     15082      15087      1   0.010172  -0.003655     3.00055e-01     6.91943e-02
     15082      15086      1   0.010172   0.009367     2.60142e-01     2.09200e-02
     15082      15085      1   0.010172   0.009367     2.60142e-01     2.09200e-02
     15081      15088      1  -0.014653   0.005694     3.00055e-01     6.91943e-02
     15081      15089      1  -0.014653   0.005694     3.00055e-01     6.91943e-02
     15080      15084      1   0.010037  -0.022042     3.00055e-01     6.91943e-02
     15080      15082      1   0.010037   0.008477     2.60142e-01     2.09200e-02
     15080      15083      1   0.010037   0.008477     2.60142e-01     2.09200e-02
     15079      15084      1   0.010037  -0.022042     3.00055e-01     6.91943e-02
     15079      15082      1   0.010037   0.008477     2.60142e-01     2.09200e-02
     15079      15083      1   0.010037   0.008477     2.60142e-01     2.09200e-02
     15078      15086      1  -0.021025   0.009367     3.00055e-01     6.91943e-02
     15078      15085      1  -0.021025   0.009367     3.00055e-01     6.91943e-02
     15077      15081      1   0.012677  -0.012211     3.00055e-01     6.91943e-02
     15077      15080      1   0.012677   0.008364     2.60142e-01     2.09200e-02
     15077      15079      1   0.012677   0.008364     2.60142e-01     2.09200e-02
     15076      15081      1   0.012677  -0.012211     3.00055e-01     6.91943e-02
     15076      15080      1   0.012677   0.008364     2.60142e-01     2.09200e-02
     15076      15079      1   0.012677   0.008364     2.60142e-01     2.09200e-02
     15075      15082      1  -0.031787   0.008477     3.00055e-01     6.91943e-02
     15075      15083      1  -0.031787   0.008477     3.00055e-01     6.91943e-02
     15074      15078      1   0.017208  -0.017521     3.00055e-01     6.91943e-02
     15074      15076      1   0.017208   0.010564     2.60142e-01     2.09200e-02
     15074      15077      1   0.017208   0.010564     2.60142e-01     2.09200e-02
     15073      15078      1   0.017208  -0.017521     3.00055e-01     6.91943e-02
     15073      15076      1   0.017208   0.010564     2.60142e-01     2.09200e-02
     15073      15077      1   0.017208   0.010564     2.60142e-01     2.09200e-02
     15072      15080      1  -0.028094   0.008364     3.00055e-01     6.91943e-02
     15072      15079      1  -0.028094   0.008364     3.00055e-01     6.91943e-02
     15071      15075      1   0.007531  -0.026489     3.00055e-01     6.91943e-02
     15071      15074      1   0.007531   0.014340     2.60142e-01     2.09200e-02
     15071      15073      1   0.007531   0.014340     2.60142e-01     2.09200e-02
     15070      15075      1   0.007531  -0.026489     3.00055e-01     6.91943e-02
     15070      15074      1   0.007531   0.014340     2.60142e-01     2.09200e-02
     15070      15073      1   0.007531   0.014340     2.60142e-01     2.09200e-02
     15069      15076      1   0.017463   0.010564     3.00055e-01     6.91943e-02
     15069      15077      1   0.017463   0.010564     3.00055e-01     6.91943e-02
     15068      15072      1   0.025511  -0.023412     3.00055e-01     6.91943e-02
     15068      15070      1   0.025511   0.006276     2.60142e-01     2.09200e-02
     15068      15071      1   0.025511   0.006276     2.60142e-01     2.09200e-02
     15067      15072      1   0.025511  -0.023412     3.00055e-01     6.91943e-02
     15067      15070      1   0.025511   0.006276     2.60142e-01     2.09200e-02
     15067      15071      1   0.025511   0.006276     2.60142e-01     2.09200e-02
     15066      15074      1  -0.111712   0.014340     3.00055e-01     6.91943e-02
     15066      15073      1  -0.111712   0.014340     3.00055e-01     6.91943e-02
     15065      15072      1   0.025511  -0.023412     3.00055e-01     6.91943e-02
     15065      15070      1   0.025511   0.006276     2.60142e-01     2.09200e-02
     15065      15071      1   0.025511   0.006276     2.60142e-01     2.09200e-02
        38         44      1  -0.164200   0.164116     3.39967e-01     2.28865e-01
        35         42      1  -0.002435  -0.559638     3.17980e-01     3.17088e-01
        35         43      1  -0.002435  -0.479574     3.19984e-01     2.85295e-01
        32         41      1  -0.026954   0.758669     3.39967e-01     2.02918e-01
        29         38      1  -0.016521  -0.136833     3.39967e-01     7.62883e-02
        26         35      1  -0.027812  -0.002029     3.39967e-01     7.62883e-02
        23         32      1  -0.004386  -0.022462     3.39967e-01     7.62883e-02
        20         29      1  -0.026451  -0.013767     3.39967e-01     7.62883e-02
        17         26      1  -0.014653  -0.023177     3.39967e-01     7.62883e-02
        14         23      1  -0.021025  -0.003655     3.39967e-01     7.62883e-02
        11         20      1  -0.031787  -0.022042     3.39967e-01     7.62883e-02
         8         17      1  -0.028094  -0.012211     3.39967e-01     7.62883e-02
         5         14      1   0.017463  -0.017521     3.39967e-01     7.62883e-02
         2         11      1  -0.111712  -0.026489     3.39967e-01     7.62883e-02
        78        113      1  -0.673755  -0.002029     3.17980e-01     3.17088e-01
        77        110      1   0.897613  -0.022462     3.39967e-01     2.02918e-01
        76        113      1  -0.552948  -0.002029     3.19984e-01     2.85295e-01
        55         74      1   0.166801  -0.729843     3.17980e-01     3.17088e-01
        55         75      1   0.166801  -0.729843     3.17980e-01     3.17088e-01
        55         62      1   0.166801  -0.282478     3.39967e-01     2.28865e-01
        55         66      1   0.166801  -0.282478     3.39967e-01     2.28865e-01
        55         70      1   0.166801  -0.282478     3.39967e-01     2.28865e-01
        54         61      1  -0.508176   0.204385     3.12501e-01     3.55640e-01
        53         58      1   1.339721  -0.142353     3.57072e-01     3.09446e-01
        52         76      1  -0.509480  -0.460790     3.00001e-01     3.55640e-01
        52         55      1  -0.509480   0.139001     3.19984e-01     2.85295e-01
        49         77      1   0.017459   0.748011     3.39967e-01     2.02918e-01
        49         54      1   0.017459  -0.423480     3.19984e-01     2.85295e-01
        49         74      1   0.017459  -0.729843     3.17980e-01     3.17088e-01
        49         75      1   0.017459  -0.729843     3.17980e-01     3.17088e-01
        47         53      1   0.281242   1.116434     3.57072e-01     3.09446e-01
        47         78      1   0.281242  -0.561462     3.17980e-01     3.17088e-01
        47        116      1   0.281242  -0.136833     3.39967e-01     2.28865e-01
        44         52      1   0.196939  -0.424567     3.19984e-01     2.85295e-01
        44         77      1   0.196939   0.748011     3.39967e-01     2.02918e-01
        43         49      1  -0.575489   0.014549     3.19984e-01     2.85295e-01
        43         76      1  -0.575489  -0.460790     3.00001e-01     3.55640e-01
        42         44      1  -0.671566   0.164116     3.17980e-01     3.17088e-01
        41         47      1   0.910403   0.234368     3.39967e-01     2.02918e-01
       107        116      1  -0.016521  -0.136833     3.39967e-01     7.62883e-02
       104        113      1  -0.027812  -0.002029     3.39967e-01     7.62883e-02
       101        110      1  -0.004386  -0.022462     3.39967e-01     7.62883e-02
        98        107      1  -0.026451  -0.013767     3.39967e-01     7.62883e-02
        95        104      1  -0.014653  -0.023177     3.39967e-01     7.62883e-02
        92        101      1  -0.021025  -0.003655     3.39967e-01     7.62883e-02
        89         98      1  -0.031787  -0.022042     3.39967e-01     7.62883e-02
        86         95      1  -0.028094  -0.012211     3.39967e-01     7.62883e-02
        83         92      1   0.017463  -0.017521     3.39967e-01     7.62883e-02
        80         89      1  -0.111712  -0.026489     3.39967e-01     7.62883e-02
       156        162      1  -0.164200   0.164116     3.39967e-01     2.28865e-01
       153        160      1  -0.002435  -0.559638     3.17980e-01     3.17088e-01
       153        161      1  -0.002435  -0.479574     3.19984e-01     2.85295e-01
       150        159      1  -0.026954   0.758669     3.39967e-01     2.02918e-01
       147        156      1  -0.016521  -0.136833     3.39967e-01     7.62883e-02
       144        153      1  -0.027812  -0.002029     3.39967e-01     7.62883e-02
       141        150      1  -0.004386  -0.022462     3.39967e-01     7.62883e-02
       138        147      1  -0.026451  -0.013767     3.39967e-01     7.62883e-02
       135        144      1  -0.014653  -0.023177     3.39967e-01     7.62883e-02
       132        141      1  -0.021025  -0.003655     3.39967e-01     7.62883e-02
       129        138      1  -0.031787  -0.022042     3.39967e-01     7.62883e-02
       126        135      1  -0.028094  -0.012211     3.39967e-01     7.62883e-02
       123        132      1   0.017463  -0.017521     3.39967e-01     7.62883e-02
       120        129      1  -0.111712  -0.026489     3.39967e-01     7.62883e-02
       196        231      1  -0.673755  -0.002029     3.17980e-01     3.17088e-01
       195        228      1   0.897613  -0.022462     3.39967e-01     2.02918e-01
       194        231      1  -0.552948  -0.002029     3.19984e-01     2.85295e-01
       173        192      1   0.166801  -0.729843     3.17980e-01     3.17088e-01
       173        193      1   0.166801  -0.729843     3.17980e-01     3.17088e-01
       173        180      1   0.166801  -0.282478     3.39967e-01     2.28865e-01
       173        184      1   0.166801  -0.282478     3.39967e-01     2.28865e-01
       173        188      1   0.166801  -0.282478     3.39967e-01     2.28865e-01
       172        179      1  -0.508176   0.204385     3.12501e-01     3.55640e-01
       171        176      1   1.339721  -0.142353     3.57072e-01     3.09446e-01
       170        194      1  -0.509480  -0.460790     3.00001e-01     3.55640e-01
       170        173      1  -0.509480   0.139001     3.19984e-01     2.85295e-01
       167        195      1   0.017459   0.748011     3.39967e-01     2.02918e-01
       167        172      1   0.017459  -0.423480     3.19984e-01     2.85295e-01
       167        192      1   0.017459  -0.729843     3.17980e-01     3.17088e-01
       167        193      1   0.017459  -0.729843     3.17980e-01     3.17088e-01
       165        171      1   0.281242   1.116434     3.57072e-01     3.09446e-01
       165        196      1   0.281242  -0.561462     3.17980e-01     3.17088e-01
       165        234      1   0.281242  -0.136833     3.39967e-01     2.28865e-01
       162        170      1   0.196939  -0.424567     3.19984e-01     2.85295e-01
       162        195      1   0.196939   0.748011     3.39967e-01     2.02918e-01
       161        167      1  -0.575489   0.014549     3.19984e-01     2.85295e-01
       161        194      1  -0.575489  -0.460790     3.00001e-01     3.55640e-01
       160        162      1  -0.671566   0.164116     3.17980e-01     3.17088e-01
       159        165      1   0.910403   0.234368     3.39967e-01     2.02918e-01
       225        234      1  -0.016521  -0.136833     3.39967e-01     7.62883e-02
       222        231      1  -0.027812  -0.002029     3.39967e-01     7.62883e-02
       219        228      1  -0.004386  -0.022462     3.39967e-01     7.62883e-02
       216        225      1  -0.026451  -0.013767     3.39967e-01     7.62883e-02
       213        222      1  -0.014653  -0.023177     3.39967e-01     7.62883e-02
       210        219      1  -0.021025  -0.003655     3.39967e-01     7.62883e-02
       207        216      1  -0.031787  -0.022042     3.39967e-01     7.62883e-02
       204        213      1  -0.028094  -0.012211     3.39967e-01     7.62883e-02
       201        210      1   0.017463  -0.017521     3.39967e-01     7.62883e-02
       198        207      1  -0.111712  -0.026489     3.39967e-01     7.62883e-02
       274        280      1  -0.164200   0.164116     3.39967e-01     2.28865e-01
       271        278      1  -0.002435  -0.559638     3.17980e-01     3.17088e-01
       271        279      1  -0.002435  -0.479574     3.19984e-01     2.85295e-01
       268        277      1  -0.026954   0.758669     3.39967e-01     2.02918e-01
       265        274      1  -0.016521  -0.136833     3.39967e-01     7.62883e-02
       262        271      1  -0.027812  -0.002029     3.39967e-01     7.62883e-02
       259        268      1  -0.004386  -0.022462     3.39967e-01     7.62883e-02
       256        265      1  -0.026451  -0.013767     3.39967e-01     7.62883e-02
       253        262      1  -0.014653  -0.023177     3.39967e-01     7.62883e-02
       250        259      1  -0.021025  -0.003655     3.39967e-01     7.62883e-02
       247        256      1  -0.031787  -0.022042     3.39967e-01     7.62883e-02
       244        253      1  -0.028094  -0.012211     3.39967e-01     7.62883e-02
       241        250      1   0.017463  -0.017521     3.39967e-01     7.62883e-02
       238        247      1  -0.111712  -0.026489     3.39967e-01     7.62883e-02
       314        349      1  -0.673755  -0.002029     3.17980e-01     3.17088e-01
       313        346      1   0.897613  -0.022462     3.39967e-01     2.02918e-01
       312        349      1  -0.552948  -0.002029     3.19984e-01     2.85295e-01
       291        310      1   0.166801  -0.729843     3.17980e-01     3.17088e-01
       291        311      1   0.166801  -0.729843     3.17980e-01     3.17088e-01
       291        298      1   0.166801  -0.282478     3.39967e-01     2.28865e-01
       291        302      1   0.166801  -0.282478     3.39967e-01     2.28865e-01
       291        306      1   0.166801  -0.282478     3.39967e-01     2.28865e-01
       290        297      1  -0.508176   0.204385     3.12501e-01     3.55640e-01
       289        294      1   1.339721  -0.142353     3.57072e-01     3.09446e-01
       288        312      1  -0.509480  -0.460790     3.00001e-01     3.55640e-01
       288        291      1  -0.509480   0.139001     3.19984e-01     2.85295e-01
       285        313      1   0.017459   0.748011     3.39967e-01     2.02918e-01
       285        290      1   0.017459  -0.423480     3.19984e-01     2.85295e-01
       285        310      1   0.017459  -0.729843     3.17980e-01     3.17088e-01
       285        311      1   0.017459  -0.729843     3.17980e-01     3.17088e-01
       283        289      1   0.281242   1.116434     3.57072e-01     3.09446e-01
       283        314      1   0.281242  -0.561462     3.17980e-01     3.17088e-01
       283        352      1   0.281242  -0.136833     3.39967e-01     2.28865e-01
       280        288      1   0.196939  -0.424567     3.19984e-01     2.85295e-01
       280        313      1   0.196939   0.748011     3.39967e-01     2.02918e-01
       279        285      1  -0.575489   0.014549     3.19984e-01     2.85295e-01
       279        312      1  -0.575489  -0.460790     3.00001e-01     3.55640e-01
       278        280      1  -0.671566   0.164116     3.17980e-01     3.17088e-01
       277        283      1   0.910403   0.234368     3.39967e-01     2.02918e-01
       343        352      1  -0.016521  -0.136833     3.39967e-01     7.62883e-02
       340        349      1  -0.027812  -0.002029     3.39967e-01     7.62883e-02
       337        346      1  -0.004386  -0.022462     3.39967e-01     7.62883e-02
       334        343      1  -0.026451  -0.013767     3.39967e-01     7.62883e-02
       331        340      1  -0.014653  -0.023177     3.39967e-01     7.62883e-02
       328        337      1  -0.021025  -0.003655     3.39967e-01     7.62883e-02
       325        334      1  -0.031787  -0.022042     3.39967e-01     7.62883e-02
       322        331      1  -0.028094  -0.012211     3.39967e-01     7.62883e-02
       319        328      1   0.017463  -0.017521     3.39967e-01     7.62883e-02
       316        325      1  -0.111712  -0.026489     3.39967e-01     7.62883e-02
       392        398      1  -0.164200   0.164116     3.39967e-01     2.28865e-01
       389        396      1  -0.002435  -0.559638     3.17980e-01     3.17088e-01
       389        397      1  -0.002435  -0.479574     3.19984e-01     2.85295e-01
       386        395      1  -0.026954   0.758669     3.39967e-01     2.02918e-01
       383        392      1  -0.016521  -0.136833     3.39967e-01     7.62883e-02
       380        389      1  -0.027812  -0.002029     3.39967e-01     7.62883e-02
       377        386      1  -0.004386  -0.022462     3.39967e-01     7.62883e-02
       374        383      1  -0.026451  -0.013767     3.39967e-01     7.62883e-02
       371        380      1  -0.014653  -0.023177     3.39967e-01     7.62883e-02
       368        377      1  -0.021025  -0.003655     3.39967e-01     7.62883e-02
       365        374      1  -0.031787  -0.022042     3.39967e-01     7.62883e-02
       362        371      1  -0.028094  -0.012211     3.39967e-01     7.62883e-02
       359        368      1   0.017463  -0.017521     3.39967e-01     7.62883e-02
       356        365      1  -0.111712  -0.026489     3.39967e-01     7.62883e-02
       432        467      1  -0.673755  -0.002029     3.17980e-01     3.17088e-01
       431        464      1   0.897613  -0.022462     3.39967e-01     2.02918e-01
       430        467      1  -0.552948  -0.002029     3.19984e-01     2.85295e-01
       409        428      1   0.166801  -0.729843     3.17980e-01     3.17088e-01
       409        429      1   0.166801  -0.729843     3.17980e-01     3.17088e-01
       409        416      1   0.166801  -0.282478     3.39967e-01     2.28865e-01
       409        420      1   0.166801  -0.282478     3.39967e-01     2.28865e-01
       409        424      1   0.166801  -0.282478     3.39967e-01     2.28865e-01
       408        415      1  -0.508176   0.204385     3.12501e-01     3.55640e-01
       407        412      1   1.339721  -0.142353     3.57072e-01     3.09446e-01
       406        430      1  -0.509480  -0.460790     3.00001e-01     3.55640e-01
       406        409      1  -0.509480   0.139001     3.19984e-01     2.85295e-01
       403        431      1   0.017459   0.748011     3.39967e-01     2.02918e-01
       403        408      1   0.017459  -0.423480     3.19984e-01     2.85295e-01
       403        428      1   0.017459  -0.729843     3.17980e-01     3.17088e-01
       403        429      1   0.017459  -0.729843     3.17980e-01     3.17088e-01
       401        407      1   0.281242   1.116434     3.57072e-01     3.09446e-01
       401        432      1   0.281242  -0.561462     3.17980e-01     3.17088e-01
       401        470      1   0.281242  -0.136833     3.39967e-01     2.28865e-01
       398        406      1   0.196939  -0.424567     3.19984e-01     2.85295e-01
       398        431      1   0.196939   0.748011     3.39967e-01     2.02918e-01
       397        403      1  -0.575489   0.014549     3.19984e-01     2.85295e-01
       397        430      1  -0.575489  -0.460790     3.00001e-01     3.55640e-01
       396        398      1  -0.671566   0.164116     3.17980e-01     3.17088e-01
       395        401      1   0.910403   0.234368     3.39967e-01     2.02918e-01
       461        470      1  -0.016521  -0.136833     3.39967e-01     7.62883e-02
       458        467      1  -0.027812  -0.002029     3.39967e-01     7.62883e-02
       455        464      1  -0.004386  -0.022462     3.39967e-01     7.62883e-02
       452        461      1  -0.026451  -0.013767     3.39967e-01     7.62883e-02
       449        458      1  -0.014653  -0.023177     3.39967e-01     7.62883e-02
       446        455      1  -0.021025  -0.003655     3.39967e-01     7.62883e-02
       443        452      1  -0.031787  -0.022042     3.39967e-01     7.62883e-02
       440        449      1  -0.028094  -0.012211     3.39967e-01     7.62883e-02
       437        446      1   0.017463  -0.017521     3.39967e-01     7.62883e-02
       434        443      1  -0.111712  -0.026489     3.39967e-01     7.62883e-02
       510        516      1  -0.164200   0.164116     3.39967e-01     2.28865e-01
       507        514      1  -0.002435  -0.559638     3.17980e-01     3.17088e-01
       507        515      1  -0.002435  -0.479574     3.19984e-01     2.85295e-01
       504        513      1  -0.026954   0.758669     3.39967e-01     2.02918e-01
       501        510      1  -0.016521  -0.136833     3.39967e-01     7.62883e-02
       498        507      1  -0.027812  -0.002029     3.39967e-01     7.62883e-02
       495        504      1  -0.004386  -0.022462     3.39967e-01     7.62883e-02
       492        501      1  -0.026451  -0.013767     3.39967e-01     7.62883e-02
       489        498      1  -0.014653  -0.023177     3.39967e-01     7.62883e-02
       486        495      1  -0.021025  -0.003655     3.39967e-01     7.62883e-02
       483        492      1  -0.031787  -0.022042     3.39967e-01     7.62883e-02
       480        489      1  -0.028094  -0.012211     3.39967e-01     7.62883e-02
       477        486      1   0.017463  -0.017521     3.39967e-01     7.62883e-02
       474        483      1  -0.111712  -0.026489     3.39967e-01     7.62883e-02
       550        585      1  -0.673755  -0.002029     3.17980e-01     3.17088e-01
       549        582      1   0.897613  -0.022462     3.39967e-01     2.02918e-01
       548        585      1  -0.552948  -0.002029     3.19984e-01     2.85295e-01
       527        546      1   0.166801  -0.729843     3.17980e-01     3.17088e-01
       527        547      1   0.166801  -0.729843     3.17980e-01     3.17088e-01
       527        534      1   0.166801  -0.282478     3.39967e-01     2.28865e-01
       527        538      1   0.166801  -0.282478     3.39967e-01     2.28865e-01
       527        542      1   0.166801  -0.282478     3.39967e-01     2.28865e-01
       526        533      1  -0.508176   0.204385     3.12501e-01     3.55640e-01
       525        530      1   1.339721  -0.142353     3.57072e-01     3.09446e-01
       524        548      1  -0.509480  -0.460790     3.00001e-01     3.55640e-01
       524        527      1  -0.509480   0.139001     3.19984e-01     2.85295e-01
       521        549      1   0.017459   0.748011     3.39967e-01     2.02918e-01
       521        526      1   0.017459  -0.423480     3.19984e-01     2.85295e-01
       521        546      1   0.017459  -0.729843     3.17980e-01     3.17088e-01
       521        547      1   0.017459  -0.729843     3.17980e-01     3.17088e-01
       519        525      1   0.281242   1.116434     3.57072e-01     3.09446e-01
       519        550      1   0.281242  -0.561462     3.17980e-01     3.17088e-01
       519        588      1   0.281242  -0.136833     3.39967e-01     2.28865e-01
       516        524      1   0.196939  -0.424567     3.19984e-01     2.85295e-01
       516        549      1   0.196939   0.748011     3.39967e-01     2.02918e-01
       515        521      1  -0.575489   0.014549     3.19984e-01     2.85295e-01
       515        548      1  -0.575489  -0.460790     3.00001e-01     3.55640e-01
       514        516      1  -0.671566   0.164116     3.17980e-01     3.17088e-01
       513        519      1   0.910403   0.234368     3.39967e-01     2.02918e-01
       579        588      1  -0.016521  -0.136833     3.39967e-01     7.62883e-02
       576        585      1  -0.027812  -0.002029     3.39967e-01     7.62883e-02
       573        582      1  -0.004386  -0.022462     3.39967e-01     7.62883e-02
       570        579      1  -0.026451  -0.013767     3.39967e-01     7.62883e-02
       567        576      1  -0.014653  -0.023177     3.39967e-01     7.62883e-02
       564        573      1  -0.021025  -0.003655     3.39967e-01     7.62883e-02
       561        570      1  -0.031787  -0.022042     3.39967e-01     7.62883e-02
       558        567      1  -0.028094  -0.012211     3.39967e-01     7.62883e-02
       555        564      1   0.017463  -0.017521     3.39967e-01     7.62883e-02
       552        561      1  -0.111712  -0.026489     3.39967e-01     7.62883e-02
       628        634      1  -0.164200   0.164116     3.39967e-01     2.28865e-01
       625        632      1  -0.002435  -0.559638     3.17980e-01     3.17088e-01
       625        633      1  -0.002435  -0.479574     3.19984e-01     2.85295e-01
       622        631      1  -0.026954   0.758669     3.39967e-01     2.02918e-01
       619        628      1  -0.016521  -0.136833     3.39967e-01     7.62883e-02
       616        625      1  -0.027812  -0.002029     3.39967e-01     7.62883e-02
       613        622      1  -0.004386  -0.022462     3.39967e-01     7.62883e-02
       610        619      1  -0.026451  -0.013767     3.39967e-01     7.62883e-02
       607        616      1  -0.014653  -0.023177     3.39967e-01     7.62883e-02
       604        613      1  -0.021025  -0.003655     3.39967e-01     7.62883e-02
       601        610      1  -0.031787  -0.022042     3.39967e-01     7.62883e-02
       598        607      1  -0.028094  -0.012211     3.39967e-01     7.62883e-02
       595        604      1   0.017463  -0.017521     3.39967e-01     7.62883e-02
       592        601      1  -0.111712  -0.026489     3.39967e-01     7.62883e-02
       668        703      1  -0.673755  -0.002029     3.17980e-01     3.17088e-01
       667        700      1   0.897613  -0.022462     3.39967e-01     2.02918e-01
       666        703      1  -0.552948  -0.002029     3.19984e-01     2.85295e-01
       645        664      1   0.166801  -0.729843     3.17980e-01     3.17088e-01
       645        665      1   0.166801  -0.729843     3.17980e-01     3.17088e-01
       645        652      1   0.166801  -0.282478     3.39967e-01     2.28865e-01
       645        656      1   0.166801  -0.282478     3.39967e-01     2.28865e-01
       645        660      1   0.166801  -0.282478     3.39967e-01     2.28865e-01
       644        651      1  -0.508176   0.204385     3.12501e-01     3.55640e-01
       643        648      1   1.339721  -0.142353     3.57072e-01     3.09446e-01
       642        666      1  -0.509480  -0.460790     3.00001e-01     3.55640e-01
       642        645      1  -0.509480   0.139001     3.19984e-01     2.85295e-01
       639        667      1   0.017459   0.748011     3.39967e-01     2.02918e-01
       639        644      1   0.017459  -0.423480     3.19984e-01     2.85295e-01
       639        664      1   0.017459  -0.729843     3.17980e-01     3.17088e-01
       639        665      1   0.017459  -0.729843     3.17980e-01     3.17088e-01
       637        643      1   0.281242   1.116434     3.57072e-01     3.09446e-01
       637        668      1   0.281242  -0.561462     3.17980e-01     3.17088e-01
       637        706      1   0.281242  -0.136833     3.39967e-01     2.28865e-01
       634        642      1   0.196939  -0.424567     3.19984e-01     2.85295e-01
       634        667      1   0.196939   0.748011     3.39967e-01     2.02918e-01
       633        639      1  -0.575489   0.014549     3.19984e-01     2.85295e-01
       633        666      1  -0.575489  -0.460790     3.00001e-01     3.55640e-01
       632        634      1  -0.671566   0.164116     3.17980e-01     3.17088e-01
       631        637      1   0.910403   0.234368     3.39967e-01     2.02918e-01
       697        706      1  -0.016521  -0.136833     3.39967e-01     7.62883e-02
       694        703      1  -0.027812  -0.002029     3.39967e-01     7.62883e-02
       691        700      1  -0.004386  -0.022462     3.39967e-01     7.62883e-02
       688        697      1  -0.026451  -0.013767     3.39967e-01     7.62883e-02
       685        694      1  -0.014653  -0.023177     3.39967e-01     7.62883e-02
       682        691      1  -0.021025  -0.003655     3.39967e-01     7.62883e-02
       679        688      1  -0.031787  -0.022042     3.39967e-01     7.62883e-02
       676        685      1  -0.028094  -0.012211     3.39967e-01     7.62883e-02
       673        682      1   0.017463  -0.017521     3.39967e-01     7.62883e-02
       670        679      1  -0.111712  -0.026489     3.39967e-01     7.62883e-02
       746        752      1  -0.164200   0.164116     3.39967e-01     2.28865e-01
       743        750      1  -0.002435  -0.559638     3.17980e-01     3.17088e-01
       743        751      1  -0.002435  -0.479574     3.19984e-01     2.85295e-01
       740        749      1  -0.026954   0.758669     3.39967e-01     2.02918e-01
       737        746      1  -0.016521  -0.136833     3.39967e-01     7.62883e-02
       734        743      1  -0.027812  -0.002029     3.39967e-01     7.62883e-02
       731        740      1  -0.004386  -0.022462     3.39967e-01     7.62883e-02
       728        737      1  -0.026451  -0.013767     3.39967e-01     7.62883e-02
       725        734      1  -0.014653  -0.023177     3.39967e-01     7.62883e-02
       722        731      1  -0.021025  -0.003655     3.39967e-01     7.62883e-02
       719        728      1  -0.031787  -0.022042     3.39967e-01     7.62883e-02
       716        725      1  -0.028094  -0.012211     3.39967e-01     7.62883e-02
       713        722      1   0.017463  -0.017521     3.39967e-01     7.62883e-02
       710        719      1  -0.111712  -0.026489     3.39967e-01     7.62883e-02
       786        821      1  -0.673755  -0.002029     3.17980e-01     3.17088e-01
       785        818      1   0.897613  -0.022462     3.39967e-01     2.02918e-01
       784        821      1  -0.552948  -0.002029     3.19984e-01     2.85295e-01
       763        782      1   0.166801  -0.729843     3.17980e-01     3.17088e-01
       763        783      1   0.166801  -0.729843     3.17980e-01     3.17088e-01
       763        770      1   0.166801  -0.282478     3.39967e-01     2.28865e-01
       763        774      1   0.166801  -0.282478     3.39967e-01     2.28865e-01
       763        778      1   0.166801  -0.282478     3.39967e-01     2.28865e-01
       762        769      1  -0.508176   0.204385     3.12501e-01     3.55640e-01
       761        766      1   1.339721  -0.142353     3.57072e-01     3.09446e-01
       760        784      1  -0.509480  -0.460790     3.00001e-01     3.55640e-01
       760        763      1  -0.509480   0.139001     3.19984e-01     2.85295e-01
       757        785      1   0.017459   0.748011     3.39967e-01     2.02918e-01
       757        762      1   0.017459  -0.423480     3.19984e-01     2.85295e-01
       757        782      1   0.017459  -0.729843     3.17980e-01     3.17088e-01
       757        783      1   0.017459  -0.729843     3.17980e-01     3.17088e-01
       755        761      1   0.281242   1.116434     3.57072e-01     3.09446e-01
       755        786      1   0.281242  -0.561462     3.17980e-01     3.17088e-01
       755        824      1   0.281242  -0.136833     3.39967e-01     2.28865e-01
       752        760      1   0.196939  -0.424567     3.19984e-01     2.85295e-01
       752        785      1   0.196939   0.748011     3.39967e-01     2.02918e-01
       751        757      1  -0.575489   0.014549     3.19984e-01     2.85295e-01
       751        784      1  -0.575489  -0.460790     3.00001e-01     3.55640e-01
       750        752      1  -0.671566   0.164116     3.17980e-01     3.17088e-01
       749        755      1   0.910403   0.234368     3.39967e-01     2.02918e-01
       815        824      1  -0.016521  -0.136833     3.39967e-01     7.62883e-02
       812        821      1  -0.027812  -0.002029     3.39967e-01     7.62883e-02
       809        818      1  -0.004386  -0.022462     3.39967e-01     7.62883e-02
       806        815      1  -0.026451  -0.013767     3.39967e-01     7.62883e-02
       803        812      1  -0.014653  -0.023177     3.39967e-01     7.62883e-02
       800        809      1  -0.021025  -0.003655     3.39967e-01     7.62883e-02
       797        806      1  -0.031787  -0.022042     3.39967e-01     7.62883e-02
       794        803      1  -0.028094  -0.012211     3.39967e-01     7.62883e-02
       791        800      1   0.017463  -0.017521     3.39967e-01     7.62883e-02
       788        797      1  -0.111712  -0.026489     3.39967e-01     7.62883e-02
       864        870      1  -0.164200   0.164116     3.39967e-01     2.28865e-01
       861        868      1  -0.002435  -0.559638     3.17980e-01     3.17088e-01
       861        869      1  -0.002435  -0.479574     3.19984e-01     2.85295e-01
       858        867      1  -0.026954   0.758669     3.39967e-01     2.02918e-01
       855        864      1  -0.016521  -0.136833     3.39967e-01     7.62883e-02
       852        861      1  -0.027812  -0.002029     3.39967e-01     7.62883e-02
       849        858      1  -0.004386  -0.022462     3.39967e-01     7.62883e-02
       846        855      1  -0.026451  -0.013767     3.39967e-01     7.62883e-02
       843        852      1  -0.014653  -0.023177     3.39967e-01     7.62883e-02
       840        849      1  -0.021025  -0.003655     3.39967e-01     7.62883e-02
       837        846      1  -0.031787  -0.022042     3.39967e-01     7.62883e-02
       834        843      1  -0.028094  -0.012211     3.39967e-01     7.62883e-02
       831        840      1   0.017463  -0.017521     3.39967e-01     7.62883e-02
       828        837      1  -0.111712  -0.026489     3.39967e-01     7.62883e-02
       904        939      1  -0.673755  -0.002029     3.17980e-01     3.17088e-01
       903        936      1   0.897613  -0.022462     3.39967e-01     2.02918e-01
       902        939      1  -0.552948  -0.002029     3.19984e-01     2.85295e-01
       881        900      1   0.166801  -0.729843     3.17980e-01     3.17088e-01
       881        901      1   0.166801  -0.729843     3.17980e-01     3.17088e-01
       881        888      1   0.166801  -0.282478     3.39967e-01     2.28865e-01
       881        892      1   0.166801  -0.282478     3.39967e-01     2.28865e-01
       881        896      1   0.166801  -0.282478     3.39967e-01     2.28865e-01
       880        887      1  -0.508176   0.204385     3.12501e-01     3.55640e-01
       879        884      1   1.339721  -0.142353     3.57072e-01     3.09446e-01
       878        902      1  -0.509480  -0.460790     3.00001e-01     3.55640e-01
       878        881      1  -0.509480   0.139001     3.19984e-01     2.85295e-01
       875        903      1   0.017459   0.748011     3.39967e-01     2.02918e-01
       875        880      1   0.017459  -0.423480     3.19984e-01     2.85295e-01
       875        900      1   0.017459  -0.729843     3.17980e-01     3.17088e-01
       875        901      1   0.017459  -0.729843     3.17980e-01     3.17088e-01
       873        879      1   0.281242   1.116434     3.57072e-01     3.09446e-01
       873        904      1   0.281242  -0.561462     3.17980e-01     3.17088e-01
       873        942      1   0.281242  -0.136833     3.39967e-01     2.28865e-01
       870        878      1   0.196939  -0.424567     3.19984e-01     2.85295e-01
       870        903      1   0.196939   0.748011     3.39967e-01     2.02918e-01
       869        875      1  -0.575489   0.014549     3.19984e-01     2.85295e-01
       869        902      1  -0.575489  -0.460790     3.00001e-01     3.55640e-01
       868        870      1  -0.671566   0.164116     3.17980e-01     3.17088e-01
       867        873      1   0.910403   0.234368     3.39967e-01     2.02918e-01
       933        942      1  -0.016521  -0.136833     3.39967e-01     7.62883e-02
       930        939      1  -0.027812  -0.002029     3.39967e-01     7.62883e-02
       927        936      1  -0.004386  -0.022462     3.39967e-01     7.62883e-02
       924        933      1  -0.026451  -0.013767     3.39967e-01     7.62883e-02
       921        930      1  -0.014653  -0.023177     3.39967e-01     7.62883e-02
       918        927      1  -0.021025  -0.003655     3.39967e-01     7.62883e-02
       915        924      1  -0.031787  -0.022042     3.39967e-01     7.62883e-02
       912        921      1  -0.028094  -0.012211     3.39967e-01     7.62883e-02
       909        918      1   0.017463  -0.017521     3.39967e-01     7.62883e-02
       906        915      1  -0.111712  -0.026489     3.39967e-01     7.62883e-02
       982        988      1  -0.164200   0.164116     3.39967e-01     2.28865e-01
       979        986      1  -0.002435  -0.559638     3.17980e-01     3.17088e-01
       979        987      1  -0.002435  -0.479574     3.19984e-01     2.85295e-01
       976        985      1  -0.026954   0.758669     3.39967e-01     2.02918e-01
       973        982      1  -0.016521  -0.136833     3.39967e-01     7.62883e-02
       970        979      1  -0.027812  -0.002029     3.39967e-01     7.62883e-02
       967        976      1  -0.004386  -0.022462     3.39967e-01     7.62883e-02
       964        973      1  -0.026451  -0.013767     3.39967e-01     7.62883e-02
       961        970      1  -0.014653  -0.023177     3.39967e-01     7.62883e-02
       958        967      1  -0.021025  -0.003655     3.39967e-01     7.62883e-02
       955        964      1  -0.031787  -0.022042     3.39967e-01     7.62883e-02
       952        961      1  -0.028094  -0.012211     3.39967e-01     7.62883e-02
       949        958      1   0.017463  -0.017521     3.39967e-01     7.62883e-02
       946        955      1  -0.111712  -0.026489     3.39967e-01     7.62883e-02
      1022       1057      1  -0.673755  -0.002029     3.17980e-01     3.17088e-01
      1021       1054      1   0.897613  -0.022462     3.39967e-01     2.02918e-01
      1020       1057      1  -0.552948  -0.002029     3.19984e-01     2.85295e-01
       999       1018      1   0.166801  -0.729843     3.17980e-01     3.17088e-01
       999       1019      1   0.166801  -0.729843     3.17980e-01     3.17088e-01
       999       1006      1   0.166801  -0.282478     3.39967e-01     2.28865e-01
       999       1010      1   0.166801  -0.282478     3.39967e-01     2.28865e-01
       999       1014      1   0.166801  -0.282478     3.39967e-01     2.28865e-01
       998       1005      1  -0.508176   0.204385     3.12501e-01     3.55640e-01
       997       1002      1   1.339721  -0.142353     3.57072e-01     3.09446e-01
       996       1020      1  -0.509480  -0.460790     3.00001e-01     3.55640e-01
       996        999      1  -0.509480   0.139001     3.19984e-01     2.85295e-01
       993       1021      1   0.017459   0.748011     3.39967e-01     2.02918e-01
       993        998      1   0.017459  -0.423480     3.19984e-01     2.85295e-01
       993       1018      1   0.017459  -0.729843     3.17980e-01     3.17088e-01
       993       1019      1   0.017459  -0.729843     3.17980e-01     3.17088e-01
       991        997      1   0.281242   1.116434     3.57072e-01     3.09446e-01
       991       1022      1   0.281242  -0.561462     3.17980e-01     3.17088e-01
       991       1060      1   0.281242  -0.136833     3.39967e-01     2.28865e-01
       988        996      1   0.196939  -0.424567     3.19984e-01     2.85295e-01
       988       1021      1   0.196939   0.748011     3.39967e-01     2.02918e-01
       987        993      1  -0.575489   0.014549     3.19984e-01     2.85295e-01
       987       1020      1  -0.575489  -0.460790     3.00001e-01     3.55640e-01
       986        988      1  -0.671566   0.164116     3.17980e-01     3.17088e-01
       985        991      1   0.910403   0.234368     3.39967e-01     2.02918e-01
      1051       1060      1  -0.016521  -0.136833     3.39967e-01     7.62883e-02
      1048       1057      1  -0.027812  -0.002029     3.39967e-01     7.62883e-02
      1045       1054      1  -0.004386  -0.022462     3.39967e-01     7.62883e-02
      1042       1051      1  -0.026451  -0.013767     3.39967e-01     7.62883e-02
      1039       1048      1  -0.014653  -0.023177     3.39967e-01     7.62883e-02
      1036       1045      1  -0.021025  -0.003655     3.39967e-01     7.62883e-02
      1033       1042      1  -0.031787  -0.022042     3.39967e-01     7.62883e-02
      1030       1039      1  -0.028094  -0.012211     3.39967e-01     7.62883e-02
      1027       1036      1   0.017463  -0.017521     3.39967e-01     7.62883e-02
      1024       1033      1  -0.111712  -0.026489     3.39967e-01     7.62883e-02
      1100       1106      1  -0.164200   0.164116     3.39967e-01     2.28865e-01
      1097       1104      1  -0.002435  -0.559638     3.17980e-01     3.17088e-01
      1097       1105      1  -0.002435  -0.479574     3.19984e-01     2.85295e-01
      1094       1103      1  -0.026954   0.758669     3.39967e-01     2.02918e-01
      1091       1100      1  -0.016521  -0.136833     3.39967e-01     7.62883e-02
      1088       1097      1  -0.027812  -0.002029     3.39967e-01     7.62883e-02
      1085       1094      1  -0.004386  -0.022462     3.39967e-01     7.62883e-02
      1082       1091      1  -0.026451  -0.013767     3.39967e-01     7.62883e-02
      1079       1088      1  -0.014653  -0.023177     3.39967e-01     7.62883e-02
      1076       1085      1  -0.021025  -0.003655     3.39967e-01     7.62883e-02
      1073       1082      1  -0.031787  -0.022042     3.39967e-01     7.62883e-02
      1070       1079      1  -0.028094  -0.012211     3.39967e-01     7.62883e-02
      1067       1076      1   0.017463  -0.017521     3.39967e-01     7.62883e-02
      1064       1073      1  -0.111712  -0.026489     3.39967e-01     7.62883e-02
      1140       1175      1  -0.673755  -0.002029     3.17980e-01     3.17088e-01
      1139       1172      1   0.897613  -0.022462     3.39967e-01     2.02918e-01
      1138       1175      1  -0.552948  -0.002029     3.19984e-01     2.85295e-01
      1117       1136      1   0.166801  -0.729843     3.17980e-01     3.17088e-01
      1117       1137      1   0.166801  -0.729843     3.17980e-01     3.17088e-01
      1117       1124      1   0.166801  -0.282478     3.39967e-01     2.28865e-01
      1117       1128      1   0.166801  -0.282478     3.39967e-01     2.28865e-01
      1117       1132      1   0.166801  -0.282478     3.39967e-01     2.28865e-01
      1116       1123      1  -0.508176   0.204385     3.12501e-01     3.55640e-01
      1115       1120      1   1.339721  -0.142353     3.57072e-01     3.09446e-01
      1114       1138      1  -0.509480  -0.460790     3.00001e-01     3.55640e-01
      1114       1117      1  -0.509480   0.139001     3.19984e-01     2.85295e-01
      1111       1139      1   0.017459   0.748011     3.39967e-01     2.02918e-01
      1111       1116      1   0.017459  -0.423480     3.19984e-01     2.85295e-01
      1111       1136      1   0.017459  -0.729843     3.17980e-01     3.17088e-01
      1111       1137      1   0.017459  -0.729843     3.17980e-01     3.17088e-01
      1109       1115      1   0.281242   1.116434     3.57072e-01     3.09446e-01
      1109       1140      1   0.281242  -0.561462     3.17980e-01     3.17088e-01
      1109       1178      1   0.281242  -0.136833     3.39967e-01     2.28865e-01
      1106       1114      1   0.196939  -0.424567     3.19984e-01     2.85295e-01
      1106       1139      1   0.196939   0.748011     3.39967e-01     2.02918e-01
      1105       1111      1  -0.575489   0.014549     3.19984e-01     2.85295e-01
      1105       1138      1  -0.575489  -0.460790     3.00001e-01     3.55640e-01
      1104       1106      1  -0.671566   0.164116     3.17980e-01     3.17088e-01
      1103       1109      1   0.910403   0.234368     3.39967e-01     2.02918e-01
      1169       1178      1  -0.016521  -0.136833     3.39967e-01     7.62883e-02
      1166       1175      1  -0.027812  -0.002029     3.39967e-01     7.62883e-02
      1163       1172      1  -0.004386  -0.022462     3.39967e-01     7.62883e-02
      1160       1169      1  -0.026451  -0.013767     3.39967e-01     7.62883e-02
      1157       1166      1  -0.014653  -0.023177     3.39967e-01     7.62883e-02
      1154       1163      1  -0.021025  -0.003655     3.39967e-01     7.62883e-02
      1151       1160      1  -0.031787  -0.022042     3.39967e-01     7.62883e-02
      1148       1157      1  -0.028094  -0.012211     3.39967e-01     7.62883e-02
      1145       1154      1   0.017463  -0.017521     3.39967e-01     7.62883e-02
      1142       1151      1  -0.111712  -0.026489     3.39967e-01     7.62883e-02
      1218       1224      1  -0.164200   0.164116     3.39967e-01     2.28865e-01
      1215       1222      1  -0.002435  -0.559638     3.17980e-01     3.17088e-01
      1215       1223      1  -0.002435  -0.479574     3.19984e-01     2.85295e-01
      1212       1221      1  -0.026954   0.758669     3.39967e-01     2.02918e-01
      1209       1218      1  -0.016521  -0.136833     3.39967e-01     7.62883e-02
      1206       1215      1  -0.027812  -0.002029     3.39967e-01     7.62883e-02
      1203       1212      1  -0.004386  -0.022462     3.39967e-01     7.62883e-02
      1200       1209      1  -0.026451  -0.013767     3.39967e-01     7.62883e-02
      1197       1206      1  -0.014653  -0.023177     3.39967e-01     7.62883e-02
      1194       1203      1  -0.021025  -0.003655     3.39967e-01     7.62883e-02
      1191       1200      1  -0.031787  -0.022042     3.39967e-01     7.62883e-02
      1188       1197      1  -0.028094  -0.012211     3.39967e-01     7.62883e-02
      1185       1194      1   0.017463  -0.017521     3.39967e-01     7.62883e-02
      1182       1191      1  -0.111712  -0.026489     3.39967e-01     7.62883e-02
      1258       1293      1  -0.673755  -0.002029     3.17980e-01     3.17088e-01
      1257       1290      1   0.897613  -0.022462     3.39967e-01     2.02918e-01
      1256       1293      1  -0.552948  -0.002029     3.19984e-01     2.85295e-01
      1235       1254      1   0.166801  -0.729843     3.17980e-01     3.17088e-01
      1235       1255      1   0.166801  -0.729843     3.17980e-01     3.17088e-01
      1235       1242      1   0.166801  -0.282478     3.39967e-01     2.28865e-01
      1235       1246      1   0.166801  -0.282478     3.39967e-01     2.28865e-01
      1235       1250      1   0.166801  -0.282478     3.39967e-01     2.28865e-01
      1234       1241      1  -0.508176   0.204385     3.12501e-01     3.55640e-01
      1233       1238      1   1.339721  -0.142353     3.57072e-01     3.09446e-01
      1232       1256      1  -0.509480  -0.460790     3.00001e-01     3.55640e-01
      1232       1235      1  -0.509480   0.139001     3.19984e-01     2.85295e-01
      1229       1257      1   0.017459   0.748011     3.39967e-01     2.02918e-01
      1229       1234      1   0.017459  -0.423480     3.19984e-01     2.85295e-01
      1229       1254      1   0.017459  -0.729843     3.17980e-01     3.17088e-01
      1229       1255      1   0.017459  -0.729843     3.17980e-01     3.17088e-01
      1227       1233      1   0.281242   1.116434     3.57072e-01     3.09446e-01
      1227       1258      1   0.281242  -0.561462     3.17980e-01     3.17088e-01
      1227       1296      1   0.281242  -0.136833     3.39967e-01     2.28865e-01
      1224       1232      1   0.196939  -0.424567     3.19984e-01     2.85295e-01
      1224       1257      1   0.196939   0.748011     3.39967e-01     2.02918e-01
      1223       1229      1  -0.575489   0.014549     3.19984e-01     2.85295e-01
      1223       1256      1  -0.575489  -0.460790     3.00001e-01     3.55640e-01
      1222       1224      1  -0.671566   0.164116     3.17980e-01     3.17088e-01
      1221       1227      1   0.910403   0.234368     3.39967e-01     2.02918e-01
      1287       1296      1  -0.016521  -0.136833     3.39967e-01     7.62883e-02
      1284       1293      1  -0.027812  -0.002029     3.39967e-01     7.62883e-02
      1281       1290      1  -0.004386  -0.022462     3.39967e-01     7.62883e-02
      1278       1287      1  -0.026451  -0.013767     3.39967e-01     7.62883e-02
      1275       1284      1  -0.014653  -0.023177     3.39967e-01     7.62883e-02
      1272       1281      1  -0.021025  -0.003655     3.39967e-01     7.62883e-02
      1269       1278      1  -0.031787  -0.022042     3.39967e-01     7.62883e-02
      1266       1275      1  -0.028094  -0.012211     3.39967e-01     7.62883e-02
      1263       1272      1   0.017463  -0.017521     3.39967e-01     7.62883e-02
      1260       1269      1  -0.111712  -0.026489     3.39967e-01     7.62883e-02
      1336       1342      1  -0.164200   0.164116     3.39967e-01     2.28865e-01
      1333       1340      1  -0.002435  -0.559638     3.17980e-01     3.17088e-01
      1333       1341      1  -0.002435  -0.479574     3.19984e-01     2.85295e-01
      1330       1339      1  -0.026954   0.758669     3.39967e-01     2.02918e-01
      1327       1336      1  -0.016521  -0.136833     3.39967e-01     7.62883e-02
      1324       1333      1  -0.027812  -0.002029     3.39967e-01     7.62883e-02
      1321       1330      1  -0.004386  -0.022462     3.39967e-01     7.62883e-02
      1318       1327      1  -0.026451  -0.013767     3.39967e-01     7.62883e-02
      1315       1324      1  -0.014653  -0.023177     3.39967e-01     7.62883e-02
      1312       1321      1  -0.021025  -0.003655     3.39967e-01     7.62883e-02
      1309       1318      1  -0.031787  -0.022042     3.39967e-01     7.62883e-02
      1306       1315      1  -0.028094  -0.012211     3.39967e-01     7.62883e-02
      1303       1312      1   0.017463  -0.017521     3.39967e-01     7.62883e-02
      1300       1309      1  -0.111712  -0.026489     3.39967e-01     7.62883e-02
      1376       1411      1  -0.673755  -0.002029     3.17980e-01     3.17088e-01
      1375       1408      1   0.897613  -0.022462     3.39967e-01     2.02918e-01
      1374       1411      1  -0.552948  -0.002029     3.19984e-01     2.85295e-01
      1353       1372      1   0.166801  -0.729843     3.17980e-01     3.17088e-01
      1353       1373      1   0.166801  -0.729843     3.17980e-01     3.17088e-01
      1353       1360      1   0.166801  -0.282478     3.39967e-01     2.28865e-01
      1353       1364      1   0.166801  -0.282478     3.39967e-01     2.28865e-01
      1353       1368      1   0.166801  -0.282478     3.39967e-01     2.28865e-01
      1352       1359      1  -0.508176   0.204385     3.12501e-01     3.55640e-01
      1351       1356      1   1.339721  -0.142353     3.57072e-01     3.09446e-01
      1350       1374      1  -0.509480  -0.460790     3.00001e-01     3.55640e-01
      1350       1353      1  -0.509480   0.139001     3.19984e-01     2.85295e-01
      1347       1375      1   0.017459   0.748011     3.39967e-01     2.02918e-01
      1347       1352      1   0.017459  -0.423480     3.19984e-01     2.85295e-01
      1347       1372      1   0.017459  -0.729843     3.17980e-01     3.17088e-01
      1347       1373      1   0.017459  -0.729843     3.17980e-01     3.17088e-01
      1345       1351      1   0.281242   1.116434     3.57072e-01     3.09446e-01
      1345       1376      1   0.281242  -0.561462     3.17980e-01     3.17088e-01
      1345       1414      1   0.281242  -0.136833     3.39967e-01     2.28865e-01
      1342       1350      1   0.196939  -0.424567     3.19984e-01     2.85295e-01
      1342       1375      1   0.196939   0.748011     3.39967e-01     2.02918e-01
      1341       1347      1  -0.575489   0.014549     3.19984e-01     2.85295e-01
      1341       1374      1  -0.575489  -0.460790     3.00001e-01     3.55640e-01
      1340       1342      1  -0.671566   0.164116     3.17980e-01     3.17088e-01
      1339       1345      1   0.910403   0.234368     3.39967e-01     2.02918e-01
      1405       1414      1  -0.016521  -0.136833     3.39967e-01     7.62883e-02
      1402       1411      1  -0.027812  -0.002029     3.39967e-01     7.62883e-02
      1399       1408      1  -0.004386  -0.022462     3.39967e-01     7.62883e-02
      1396       1405      1  -0.026451  -0.013767     3.39967e-01     7.62883e-02
      1393       1402      1  -0.014653  -0.023177     3.39967e-01     7.62883e-02
      1390       1399      1  -0.021025  -0.003655     3.39967e-01     7.62883e-02
      1387       1396      1  -0.031787  -0.022042     3.39967e-01     7.62883e-02
      1384       1393      1  -0.028094  -0.012211     3.39967e-01     7.62883e-02
      1381       1390      1   0.017463  -0.017521     3.39967e-01     7.62883e-02
      1378       1387      1  -0.111712  -0.026489     3.39967e-01     7.62883e-02
      1454       1460      1  -0.164200   0.164116     3.39967e-01     2.28865e-01
      1451       1458      1  -0.002435  -0.559638     3.17980e-01     3.17088e-01
      1451       1459      1  -0.002435  -0.479574     3.19984e-01     2.85295e-01
      1448       1457      1  -0.026954   0.758669     3.39967e-01     2.02918e-01
      1445       1454      1  -0.016521  -0.136833     3.39967e-01     7.62883e-02
      1442       1451      1  -0.027812  -0.002029     3.39967e-01     7.62883e-02
      1439       1448      1  -0.004386  -0.022462     3.39967e-01     7.62883e-02
      1436       1445      1  -0.026451  -0.013767     3.39967e-01     7.62883e-02
      1433       1442      1  -0.014653  -0.023177     3.39967e-01     7.62883e-02
      1430       1439      1  -0.021025  -0.003655     3.39967e-01     7.62883e-02
      1427       1436      1  -0.031787  -0.022042     3.39967e-01     7.62883e-02
      1424       1433      1  -0.028094  -0.012211     3.39967e-01     7.62883e-02
      1421       1430      1   0.017463  -0.017521     3.39967e-01     7.62883e-02
      1418       1427      1  -0.111712  -0.026489     3.39967e-01     7.62883e-02
      1494       1529      1  -0.673755  -0.002029     3.17980e-01     3.17088e-01
      1493       1526      1   0.897613  -0.022462     3.39967e-01     2.02918e-01
      1492       1529      1  -0.552948  -0.002029     3.19984e-01     2.85295e-01
      1471       1490      1   0.166801  -0.729843     3.17980e-01     3.17088e-01
      1471       1491      1   0.166801  -0.729843     3.17980e-01     3.17088e-01
      1471       1478      1   0.166801  -0.282478     3.39967e-01     2.28865e-01
      1471       1482      1   0.166801  -0.282478     3.39967e-01     2.28865e-01
      1471       1486      1   0.166801  -0.282478     3.39967e-01     2.28865e-01
      1470       1477      1  -0.508176   0.204385     3.12501e-01     3.55640e-01
      1469       1474      1   1.339721  -0.142353     3.57072e-01     3.09446e-01
      1468       1492      1  -0.509480  -0.460790     3.00001e-01     3.55640e-01
      1468       1471      1  -0.509480   0.139001     3.19984e-01     2.85295e-01
      1465       1493      1   0.017459   0.748011     3.39967e-01     2.02918e-01
      1465       1470      1   0.017459  -0.423480     3.19984e-01     2.85295e-01
      1465       1490      1   0.017459  -0.729843     3.17980e-01     3.17088e-01
      1465       1491      1   0.017459  -0.729843     3.17980e-01     3.17088e-01
      1463       1469      1   0.281242   1.116434     3.57072e-01     3.09446e-01
      1463       1494      1   0.281242  -0.561462     3.17980e-01     3.17088e-01
      1463       1532      1   0.281242  -0.136833     3.39967e-01     2.28865e-01
      1460       1468      1   0.196939  -0.424567     3.19984e-01     2.85295e-01
      1460       1493      1   0.196939   0.748011     3.39967e-01     2.02918e-01
      1459       1465      1  -0.575489   0.014549     3.19984e-01     2.85295e-01
      1459       1492      1  -0.575489  -0.460790     3.00001e-01     3.55640e-01
      1458       1460      1  -0.671566   0.164116     3.17980e-01     3.17088e-01
      1457       1463      1   0.910403   0.234368     3.39967e-01     2.02918e-01
      1523       1532      1  -0.016521  -0.136833     3.39967e-01     7.62883e-02
      1520       1529      1  -0.027812  -0.002029     3.39967e-01     7.62883e-02
      1517       1526      1  -0.004386  -0.022462     3.39967e-01     7.62883e-02
      1514       1523      1  -0.026451  -0.013767     3.39967e-01     7.62883e-02
      1511       1520      1  -0.014653  -0.023177     3.39967e-01     7.62883e-02
      1508       1517      1  -0.021025  -0.003655     3.39967e-01     7.62883e-02
      1505       1514      1  -0.031787  -0.022042     3.39967e-01     7.62883e-02
      1502       1511      1  -0.028094  -0.012211     3.39967e-01     7.62883e-02
      1499       1508      1   0.017463  -0.017521     3.39967e-01     7.62883e-02
      1496       1505      1  -0.111712  -0.026489     3.39967e-01     7.62883e-02
      1572       1578      1  -0.164200   0.164116     3.39967e-01     2.28865e-01
      1569       1576      1  -0.002435  -0.559638     3.17980e-01     3.17088e-01
      1569       1577      1  -0.002435  -0.479574     3.19984e-01     2.85295e-01
      1566       1575      1  -0.026954   0.758669     3.39967e-01     2.02918e-01
      1563       1572      1  -0.016521  -0.136833     3.39967e-01     7.62883e-02
      1560       1569      1  -0.027812  -0.002029     3.39967e-01     7.62883e-02
      1557       1566      1  -0.004386  -0.022462     3.39967e-01     7.62883e-02
      1554       1563      1  -0.026451  -0.013767     3.39967e-01     7.62883e-02
      1551       1560      1  -0.014653  -0.023177     3.39967e-01     7.62883e-02
      1548       1557      1  -0.021025  -0.003655     3.39967e-01     7.62883e-02
      1545       1554      1  -0.031787  -0.022042     3.39967e-01     7.62883e-02
      1542       1551      1  -0.028094  -0.012211     3.39967e-01     7.62883e-02
      1539       1548      1   0.017463  -0.017521     3.39967e-01     7.62883e-02
      1536       1545      1  -0.111712  -0.026489     3.39967e-01     7.62883e-02
      1612       1647      1  -0.673755  -0.002029     3.17980e-01     3.17088e-01
      1611       1644      1   0.897613  -0.022462     3.39967e-01     2.02918e-01
      1610       1647      1  -0.552948  -0.002029     3.19984e-01     2.85295e-01
      1589       1608      1   0.166801  -0.729843     3.17980e-01     3.17088e-01
      1589       1609      1   0.166801  -0.729843     3.17980e-01     3.17088e-01
      1589       1596      1   0.166801  -0.282478     3.39967e-01     2.28865e-01
      1589       1600      1   0.166801  -0.282478     3.39967e-01     2.28865e-01
      1589       1604      1   0.166801  -0.282478     3.39967e-01     2.28865e-01
      1588       1595      1  -0.508176   0.204385     3.12501e-01     3.55640e-01
      1587       1592      1   1.339721  -0.142353     3.57072e-01     3.09446e-01
      1586       1610      1  -0.509480  -0.460790     3.00001e-01     3.55640e-01
      1586       1589      1  -0.509480   0.139001     3.19984e-01     2.85295e-01
      1583       1611      1   0.017459   0.748011     3.39967e-01     2.02918e-01
      1583       1588      1   0.017459  -0.423480     3.19984e-01     2.85295e-01
      1583       1608      1   0.017459  -0.729843     3.17980e-01     3.17088e-01
      1583       1609      1   0.017459  -0.729843     3.17980e-01     3.17088e-01
      1581       1587      1   0.281242   1.116434     3.57072e-01     3.09446e-01
      1581       1612      1   0.281242  -0.561462     3.17980e-01     3.17088e-01
      1581       1650      1   0.281242  -0.136833     3.39967e-01     2.28865e-01
      1578       1586      1   0.196939  -0.424567     3.19984e-01     2.85295e-01
      1578       1611      1   0.196939   0.748011     3.39967e-01     2.02918e-01
      1577       1583      1  -0.575489   0.014549     3.19984e-01     2.85295e-01
      1577       1610      1  -0.575489  -0.460790     3.00001e-01     3.55640e-01
      1576       1578      1  -0.671566   0.164116     3.17980e-01     3.17088e-01
      1575       1581      1   0.910403   0.234368     3.39967e-01     2.02918e-01
      1641       1650      1  -0.016521  -0.136833     3.39967e-01     7.62883e-02
      1638       1647      1  -0.027812  -0.002029     3.39967e-01     7.62883e-02
      1635       1644      1  -0.004386  -0.022462     3.39967e-01     7.62883e-02
      1632       1641      1  -0.026451  -0.013767     3.39967e-01     7.62883e-02
      1629       1638      1  -0.014653  -0.023177     3.39967e-01     7.62883e-02
      1626       1635      1  -0.021025  -0.003655     3.39967e-01     7.62883e-02
      1623       1632      1  -0.031787  -0.022042     3.39967e-01     7.62883e-02
      1620       1629      1  -0.028094  -0.012211     3.39967e-01     7.62883e-02
      1617       1626      1   0.017463  -0.017521     3.39967e-01     7.62883e-02
      1614       1623      1  -0.111712  -0.026489     3.39967e-01     7.62883e-02
      1690       1696      1  -0.164200   0.164116     3.39967e-01     2.28865e-01
      1687       1694      1  -0.002435  -0.559638     3.17980e-01     3.17088e-01
      1687       1695      1  -0.002435  -0.479574     3.19984e-01     2.85295e-01
      1684       1693      1  -0.026954   0.758669     3.39967e-01     2.02918e-01
      1681       1690      1  -0.016521  -0.136833     3.39967e-01     7.62883e-02
      1678       1687      1  -0.027812  -0.002029     3.39967e-01     7.62883e-02
      1675       1684      1  -0.004386  -0.022462     3.39967e-01     7.62883e-02
      1672       1681      1  -0.026451  -0.013767     3.39967e-01     7.62883e-02
      1669       1678      1  -0.014653  -0.023177     3.39967e-01     7.62883e-02
      1666       1675      1  -0.021025  -0.003655     3.39967e-01     7.62883e-02
      1663       1672      1  -0.031787  -0.022042     3.39967e-01     7.62883e-02
      1660       1669      1  -0.028094  -0.012211     3.39967e-01     7.62883e-02
      1657       1666      1   0.017463  -0.017521     3.39967e-01     7.62883e-02
      1654       1663      1  -0.111712  -0.026489     3.39967e-01     7.62883e-02
      1730       1765      1  -0.673755  -0.002029     3.17980e-01     3.17088e-01
      1729       1762      1   0.897613  -0.022462     3.39967e-01     2.02918e-01
      1728       1765      1  -0.552948  -0.002029     3.19984e-01     2.85295e-01
      1707       1726      1   0.166801  -0.729843     3.17980e-01     3.17088e-01
      1707       1727      1   0.166801  -0.729843     3.17980e-01     3.17088e-01
      1707       1714      1   0.166801  -0.282478     3.39967e-01     2.28865e-01
      1707       1718      1   0.166801  -0.282478     3.39967e-01     2.28865e-01
      1707       1722      1   0.166801  -0.282478     3.39967e-01     2.28865e-01
      1706       1713      1  -0.508176   0.204385     3.12501e-01     3.55640e-01
      1705       1710      1   1.339721  -0.142353     3.57072e-01     3.09446e-01
      1704       1728      1  -0.509480  -0.460790     3.00001e-01     3.55640e-01
      1704       1707      1  -0.509480   0.139001     3.19984e-01     2.85295e-01
      1701       1729      1   0.017459   0.748011     3.39967e-01     2.02918e-01
      1701       1706      1   0.017459  -0.423480     3.19984e-01     2.85295e-01
      1701       1726      1   0.017459  -0.729843     3.17980e-01     3.17088e-01
      1701       1727      1   0.017459  -0.729843     3.17980e-01     3.17088e-01
      1699       1705      1   0.281242   1.116434     3.57072e-01     3.09446e-01
      1699       1730      1   0.281242  -0.561462     3.17980e-01     3.17088e-01
      1699       1768      1   0.281242  -0.136833     3.39967e-01     2.28865e-01
      1696       1704      1   0.196939  -0.424567     3.19984e-01     2.85295e-01
      1696       1729      1   0.196939   0.748011     3.39967e-01     2.02918e-01
      1695       1701      1  -0.575489   0.014549     3.19984e-01     2.85295e-01
      1695       1728      1  -0.575489  -0.460790     3.00001e-01     3.55640e-01
      1694       1696      1  -0.671566   0.164116     3.17980e-01     3.17088e-01
      1693       1699      1   0.910403   0.234368     3.39967e-01     2.02918e-01
      1759       1768      1  -0.016521  -0.136833     3.39967e-01     7.62883e-02
      1756       1765      1  -0.027812  -0.002029     3.39967e-01     7.62883e-02
      1753       1762      1  -0.004386  -0.022462     3.39967e-01     7.62883e-02
      1750       1759      1  -0.026451  -0.013767     3.39967e-01     7.62883e-02
      1747       1756      1  -0.014653  -0.023177     3.39967e-01     7.62883e-02
      1744       1753      1  -0.021025  -0.003655     3.39967e-01     7.62883e-02
      1741       1750      1  -0.031787  -0.022042     3.39967e-01     7.62883e-02
      1738       1747      1  -0.028094  -0.012211     3.39967e-01     7.62883e-02
      1735       1744      1   0.017463  -0.017521     3.39967e-01     7.62883e-02
      1732       1741      1  -0.111712  -0.026489     3.39967e-01     7.62883e-02
      1808       1814      1  -0.164200   0.164116     3.39967e-01     2.28865e-01
      1805       1812      1  -0.002435  -0.559638     3.17980e-01     3.17088e-01
      1805       1813      1  -0.002435  -0.479574     3.19984e-01     2.85295e-01
      1802       1811      1  -0.026954   0.758669     3.39967e-01     2.02918e-01
      1799       1808      1  -0.016521  -0.136833     3.39967e-01     7.62883e-02
      1796       1805      1  -0.027812  -0.002029     3.39967e-01     7.62883e-02
      1793       1802      1  -0.004386  -0.022462     3.39967e-01     7.62883e-02
      1790       1799      1  -0.026451  -0.013767     3.39967e-01     7.62883e-02
      1787       1796      1  -0.014653  -0.023177     3.39967e-01     7.62883e-02
      1784       1793      1  -0.021025  -0.003655     3.39967e-01     7.62883e-02
      1781       1790      1  -0.031787  -0.022042     3.39967e-01     7.62883e-02
      1778       1787      1  -0.028094  -0.012211     3.39967e-01     7.62883e-02
      1775       1784      1   0.017463  -0.017521     3.39967e-01     7.62883e-02
      1772       1781      1  -0.111712  -0.026489     3.39967e-01     7.62883e-02
      1848       1883      1  -0.673755  -0.002029     3.17980e-01     3.17088e-01
      1847       1880      1   0.897613  -0.022462     3.39967e-01     2.02918e-01
      1846       1883      1  -0.552948  -0.002029     3.19984e-01     2.85295e-01
      1825       1844      1   0.166801  -0.729843     3.17980e-01     3.17088e-01
      1825       1845      1   0.166801  -0.729843     3.17980e-01     3.17088e-01
      1825       1832      1   0.166801  -0.282478     3.39967e-01     2.28865e-01
      1825       1836      1   0.166801  -0.282478     3.39967e-01     2.28865e-01
      1825       1840      1   0.166801  -0.282478     3.39967e-01     2.28865e-01
      1824       1831      1  -0.508176   0.204385     3.12501e-01     3.55640e-01
      1823       1828      1   1.339721  -0.142353     3.57072e-01     3.09446e-01
      1822       1846      1  -0.509480  -0.460790     3.00001e-01     3.55640e-01
      1822       1825      1  -0.509480   0.139001     3.19984e-01     2.85295e-01
      1819       1847      1   0.017459   0.748011     3.39967e-01     2.02918e-01
      1819       1824      1   0.017459  -0.423480     3.19984e-01     2.85295e-01
      1819       1844      1   0.017459  -0.729843     3.17980e-01     3.17088e-01
      1819       1845      1   0.017459  -0.729843     3.17980e-01     3.17088e-01
      1817       1823      1   0.281242   1.116434     3.57072e-01     3.09446e-01
      1817       1848      1   0.281242  -0.561462     3.17980e-01     3.17088e-01
      1817       1886      1   0.281242  -0.136833     3.39967e-01     2.28865e-01
      1814       1822      1   0.196939  -0.424567     3.19984e-01     2.85295e-01
      1814       1847      1   0.196939   0.748011     3.39967e-01     2.02918e-01
      1813       1819      1  -0.575489   0.014549     3.19984e-01     2.85295e-01
      1813       1846      1  -0.575489  -0.460790     3.00001e-01     3.55640e-01
      1812       1814      1  -0.671566   0.164116     3.17980e-01     3.17088e-01
      1811       1817      1   0.910403   0.234368     3.39967e-01     2.02918e-01
      1877       1886      1  -0.016521  -0.136833     3.39967e-01     7.62883e-02
      1874       1883      1  -0.027812  -0.002029     3.39967e-01     7.62883e-02
      1871       1880      1  -0.004386  -0.022462     3.39967e-01     7.62883e-02
      1868       1877      1  -0.026451  -0.013767     3.39967e-01     7.62883e-02
      1865       1874      1  -0.014653  -0.023177     3.39967e-01     7.62883e-02
      1862       1871      1  -0.021025  -0.003655     3.39967e-01     7.62883e-02
      1859       1868      1  -0.031787  -0.022042     3.39967e-01     7.62883e-02
      1856       1865      1  -0.028094  -0.012211     3.39967e-01     7.62883e-02
      1853       1862      1   0.017463  -0.017521     3.39967e-01     7.62883e-02
      1850       1859      1  -0.111712  -0.026489     3.39967e-01     7.62883e-02
      1926       1932      1  -0.164200   0.164116     3.39967e-01     2.28865e-01
      1923       1930      1  -0.002435  -0.559638     3.17980e-01     3.17088e-01
      1923       1931      1  -0.002435  -0.479574     3.19984e-01     2.85295e-01
      1920       1929      1  -0.026954   0.758669     3.39967e-01     2.02918e-01
      1917       1926      1  -0.016521  -0.136833     3.39967e-01     7.62883e-02
      1914       1923      1  -0.027812  -0.002029     3.39967e-01     7.62883e-02
      1911       1920      1  -0.004386  -0.022462     3.39967e-01     7.62883e-02
      1908       1917      1  -0.026451  -0.013767     3.39967e-01     7.62883e-02
      1905       1914      1  -0.014653  -0.023177     3.39967e-01     7.62883e-02
      1902       1911      1  -0.021025  -0.003655     3.39967e-01     7.62883e-02
      1899       1908      1  -0.031787  -0.022042     3.39967e-01     7.62883e-02
      1896       1905      1  -0.028094  -0.012211     3.39967e-01     7.62883e-02
      1893       1902      1   0.017463  -0.017521     3.39967e-01     7.62883e-02
      1890       1899      1  -0.111712  -0.026489     3.39967e-01     7.62883e-02
      1966       2001      1  -0.673755  -0.002029     3.17980e-01     3.17088e-01
      1965       1998      1   0.897613  -0.022462     3.39967e-01     2.02918e-01
      1964       2001      1  -0.552948  -0.002029     3.19984e-01     2.85295e-01
      1943       1962      1   0.166801  -0.729843     3.17980e-01     3.17088e-01
      1943       1963      1   0.166801  -0.729843     3.17980e-01     3.17088e-01
      1943       1950      1   0.166801  -0.282478     3.39967e-01     2.28865e-01
      1943       1954      1   0.166801  -0.282478     3.39967e-01     2.28865e-01
      1943       1958      1   0.166801  -0.282478     3.39967e-01     2.28865e-01
      1942       1949      1  -0.508176   0.204385     3.12501e-01     3.55640e-01
      1941       1946      1   1.339721  -0.142353     3.57072e-01     3.09446e-01
      1940       1964      1  -0.509480  -0.460790     3.00001e-01     3.55640e-01
      1940       1943      1  -0.509480   0.139001     3.19984e-01     2.85295e-01
      1937       1965      1   0.017459   0.748011     3.39967e-01     2.02918e-01
      1937       1942      1   0.017459  -0.423480     3.19984e-01     2.85295e-01
      1937       1962      1   0.017459  -0.729843     3.17980e-01     3.17088e-01
      1937       1963      1   0.017459  -0.729843     3.17980e-01     3.17088e-01
      1935       1941      1   0.281242   1.116434     3.57072e-01     3.09446e-01
      1935       1966      1   0.281242  -0.561462     3.17980e-01     3.17088e-01
      1935       2004      1   0.281242  -0.136833     3.39967e-01     2.28865e-01
      1932       1940      1   0.196939  -0.424567     3.19984e-01     2.85295e-01
      1932       1965      1   0.196939   0.748011     3.39967e-01     2.02918e-01
      1931       1937      1  -0.575489   0.014549     3.19984e-01     2.85295e-01
      1931       1964      1  -0.575489  -0.460790     3.00001e-01     3.55640e-01
      1930       1932      1  -0.671566   0.164116     3.17980e-01     3.17088e-01
      1929       1935      1   0.910403   0.234368     3.39967e-01     2.02918e-01
      1995       2004      1  -0.016521  -0.136833     3.39967e-01     7.62883e-02
      1992       2001      1  -0.027812  -0.002029     3.39967e-01     7.62883e-02
      1989       1998      1  -0.004386  -0.022462     3.39967e-01     7.62883e-02
      1986       1995      1  -0.026451  -0.013767     3.39967e-01     7.62883e-02
      1983       1992      1  -0.014653  -0.023177     3.39967e-01     7.62883e-02
      1980       1989      1  -0.021025  -0.003655     3.39967e-01     7.62883e-02
      1977       1986      1  -0.031787  -0.022042     3.39967e-01     7.62883e-02
      1974       1983      1  -0.028094  -0.012211     3.39967e-01     7.62883e-02
      1971       1980      1   0.017463  -0.017521     3.39967e-01     7.62883e-02
      1968       1977      1  -0.111712  -0.026489     3.39967e-01     7.62883e-02
      2044       2050      1  -0.164200   0.164116     3.39967e-01     2.28865e-01
      2041       2048      1  -0.002435  -0.559638     3.17980e-01     3.17088e-01
      2041       2049      1  -0.002435  -0.479574     3.19984e-01     2.85295e-01
      2038       2047      1  -0.026954   0.758669     3.39967e-01     2.02918e-01
      2035       2044      1  -0.016521  -0.136833     3.39967e-01     7.62883e-02
      2032       2041      1  -0.027812  -0.002029     3.39967e-01     7.62883e-02
      2029       2038      1  -0.004386  -0.022462     3.39967e-01     7.62883e-02
      2026       2035      1  -0.026451  -0.013767     3.39967e-01     7.62883e-02
      2023       2032      1  -0.014653  -0.023177     3.39967e-01     7.62883e-02
      2020       2029      1  -0.021025  -0.003655     3.39967e-01     7.62883e-02
      2017       2026      1  -0.031787  -0.022042     3.39967e-01     7.62883e-02
      2014       2023      1  -0.028094  -0.012211     3.39967e-01     7.62883e-02
      2011       2020      1   0.017463  -0.017521     3.39967e-01     7.62883e-02
      2008       2017      1  -0.111712  -0.026489     3.39967e-01     7.62883e-02
      2084       2119      1  -0.673755  -0.002029     3.17980e-01     3.17088e-01
      2083       2116      1   0.897613  -0.022462     3.39967e-01     2.02918e-01
      2082       2119      1  -0.552948  -0.002029     3.19984e-01     2.85295e-01
      2061       2080      1   0.166801  -0.729843     3.17980e-01     3.17088e-01
      2061       2081      1   0.166801  -0.729843     3.17980e-01     3.17088e-01
      2061       2068      1   0.166801  -0.282478     3.39967e-01     2.28865e-01
      2061       2072      1   0.166801  -0.282478     3.39967e-01     2.28865e-01
      2061       2076      1   0.166801  -0.282478     3.39967e-01     2.28865e-01
      2060       2067      1  -0.508176   0.204385     3.12501e-01     3.55640e-01
      2059       2064      1   1.339721  -0.142353     3.57072e-01     3.09446e-01
      2058       2082      1  -0.509480  -0.460790     3.00001e-01     3.55640e-01
      2058       2061      1  -0.509480   0.139001     3.19984e-01     2.85295e-01
      2055       2083      1   0.017459   0.748011     3.39967e-01     2.02918e-01
      2055       2060      1   0.017459  -0.423480     3.19984e-01     2.85295e-01
      2055       2080      1   0.017459  -0.729843     3.17980e-01     3.17088e-01
      2055       2081      1   0.017459  -0.729843     3.17980e-01     3.17088e-01
      2053       2059      1   0.281242   1.116434     3.57072e-01     3.09446e-01
      2053       2084      1   0.281242  -0.561462     3.17980e-01     3.17088e-01
      2053       2122      1   0.281242  -0.136833     3.39967e-01     2.28865e-01
      2050       2058      1   0.196939  -0.424567     3.19984e-01     2.85295e-01
      2050       2083      1   0.196939   0.748011     3.39967e-01     2.02918e-01
      2049       2055      1  -0.575489   0.014549     3.19984e-01     2.85295e-01
      2049       2082      1  -0.575489  -0.460790     3.00001e-01     3.55640e-01
      2048       2050      1  -0.671566   0.164116     3.17980e-01     3.17088e-01
      2047       2053      1   0.910403   0.234368     3.39967e-01     2.02918e-01
      2113       2122      1  -0.016521  -0.136833     3.39967e-01     7.62883e-02
      2110       2119      1  -0.027812  -0.002029     3.39967e-01     7.62883e-02
      2107       2116      1  -0.004386  -0.022462     3.39967e-01     7.62883e-02
      2104       2113      1  -0.026451  -0.013767     3.39967e-01     7.62883e-02
      2101       2110      1  -0.014653  -0.023177     3.39967e-01     7.62883e-02
      2098       2107      1  -0.021025  -0.003655     3.39967e-01     7.62883e-02
      2095       2104      1  -0.031787  -0.022042     3.39967e-01     7.62883e-02
      2092       2101      1  -0.028094  -0.012211     3.39967e-01     7.62883e-02
      2089       2098      1   0.017463  -0.017521     3.39967e-01     7.62883e-02
      2086       2095      1  -0.111712  -0.026489     3.39967e-01     7.62883e-02
      2162       2168      1  -0.164200   0.164116     3.39967e-01     2.28865e-01
      2159       2166      1  -0.002435  -0.559638     3.17980e-01     3.17088e-01
      2159       2167      1  -0.002435  -0.479574     3.19984e-01     2.85295e-01
      2156       2165      1  -0.026954   0.758669     3.39967e-01     2.02918e-01
      2153       2162      1  -0.016521  -0.136833     3.39967e-01     7.62883e-02
      2150       2159      1  -0.027812  -0.002029     3.39967e-01     7.62883e-02
      2147       2156      1  -0.004386  -0.022462     3.39967e-01     7.62883e-02
      2144       2153      1  -0.026451  -0.013767     3.39967e-01     7.62883e-02
      2141       2150      1  -0.014653  -0.023177     3.39967e-01     7.62883e-02
      2138       2147      1  -0.021025  -0.003655     3.39967e-01     7.62883e-02
      2135       2144      1  -0.031787  -0.022042     3.39967e-01     7.62883e-02
      2132       2141      1  -0.028094  -0.012211     3.39967e-01     7.62883e-02
      2129       2138      1   0.017463  -0.017521     3.39967e-01     7.62883e-02
      2126       2135      1  -0.111712  -0.026489     3.39967e-01     7.62883e-02
      2202       2237      1  -0.673755  -0.002029     3.17980e-01     3.17088e-01
      2201       2234      1   0.897613  -0.022462     3.39967e-01     2.02918e-01
      2200       2237      1  -0.552948  -0.002029     3.19984e-01     2.85295e-01
      2179       2198      1   0.166801  -0.729843     3.17980e-01     3.17088e-01
      2179       2199      1   0.166801  -0.729843     3.17980e-01     3.17088e-01
      2179       2186      1   0.166801  -0.282478     3.39967e-01     2.28865e-01
      2179       2190      1   0.166801  -0.282478     3.39967e-01     2.28865e-01
      2179       2194      1   0.166801  -0.282478     3.39967e-01     2.28865e-01
      2178       2185      1  -0.508176   0.204385     3.12501e-01     3.55640e-01
      2177       2182      1   1.339721  -0.142353     3.57072e-01     3.09446e-01
      2176       2200      1  -0.509480  -0.460790     3.00001e-01     3.55640e-01
      2176       2179      1  -0.509480   0.139001     3.19984e-01     2.85295e-01
      2173       2201      1   0.017459   0.748011     3.39967e-01     2.02918e-01
      2173       2178      1   0.017459  -0.423480     3.19984e-01     2.85295e-01
      2173       2198      1   0.017459  -0.729843     3.17980e-01     3.17088e-01
      2173       2199      1   0.017459  -0.729843     3.17980e-01     3.17088e-01
      2171       2177      1   0.281242   1.116434     3.57072e-01     3.09446e-01
      2171       2202      1   0.281242  -0.561462     3.17980e-01     3.17088e-01
      2171       2240      1   0.281242  -0.136833     3.39967e-01     2.28865e-01
      2168       2176      1   0.196939  -0.424567     3.19984e-01     2.85295e-01
      2168       2201      1   0.196939   0.748011     3.39967e-01     2.02918e-01
      2167       2173      1  -0.575489   0.014549     3.19984e-01     2.85295e-01
      2167       2200      1  -0.575489  -0.460790     3.00001e-01     3.55640e-01
      2166       2168      1  -0.671566   0.164116     3.17980e-01     3.17088e-01
      2165       2171      1   0.910403   0.234368     3.39967e-01     2.02918e-01
      2231       2240      1  -0.016521  -0.136833     3.39967e-01     7.62883e-02
      2228       2237      1  -0.027812  -0.002029     3.39967e-01     7.62883e-02
      2225       2234      1  -0.004386  -0.022462     3.39967e-01     7.62883e-02
      2222       2231      1  -0.026451  -0.013767     3.39967e-01     7.62883e-02
      2219       2228      1  -0.014653  -0.023177     3.39967e-01     7.62883e-02
      2216       2225      1  -0.021025  -0.003655     3.39967e-01     7.62883e-02
      2213       2222      1  -0.031787  -0.022042     3.39967e-01     7.62883e-02
      2210       2219      1  -0.028094  -0.012211     3.39967e-01     7.62883e-02
      2207       2216      1   0.017463  -0.017521     3.39967e-01     7.62883e-02
      2204       2213      1  -0.111712  -0.026489     3.39967e-01     7.62883e-02
      2280       2286      1  -0.164200   0.164116     3.39967e-01     2.28865e-01
      2277       2284      1  -0.002435  -0.559638     3.17980e-01     3.17088e-01
      2277       2285      1  -0.002435  -0.479574     3.19984e-01     2.85295e-01
      2274       2283      1  -0.026954   0.758669     3.39967e-01     2.02918e-01
      2271       2280      1  -0.016521  -0.136833     3.39967e-01     7.62883e-02
      2268       2277      1  -0.027812  -0.002029     3.39967e-01     7.62883e-02
      2265       2274      1  -0.004386  -0.022462     3.39967e-01     7.62883e-02
      2262       2271      1  -0.026451  -0.013767     3.39967e-01     7.62883e-02
      2259       2268      1  -0.014653  -0.023177     3.39967e-01     7.62883e-02
      2256       2265      1  -0.021025  -0.003655     3.39967e-01     7.62883e-02
      2253       2262      1  -0.031787  -0.022042     3.39967e-01     7.62883e-02
      2250       2259      1  -0.028094  -0.012211     3.39967e-01     7.62883e-02
      2247       2256      1   0.017463  -0.017521     3.39967e-01     7.62883e-02
      2244       2253      1  -0.111712  -0.026489     3.39967e-01     7.62883e-02
      2320       2355      1  -0.673755  -0.002029     3.17980e-01     3.17088e-01
      2319       2352      1   0.897613  -0.022462     3.39967e-01     2.02918e-01
      2318       2355      1  -0.552948  -0.002029     3.19984e-01     2.85295e-01
      2297       2316      1   0.166801  -0.729843     3.17980e-01     3.17088e-01
      2297       2317      1   0.166801  -0.729843     3.17980e-01     3.17088e-01
      2297       2304      1   0.166801  -0.282478     3.39967e-01     2.28865e-01
      2297       2308      1   0.166801  -0.282478     3.39967e-01     2.28865e-01
      2297       2312      1   0.166801  -0.282478     3.39967e-01     2.28865e-01
      2296       2303      1  -0.508176   0.204385     3.12501e-01     3.55640e-01
      2295       2300      1   1.339721  -0.142353     3.57072e-01     3.09446e-01
      2294       2318      1  -0.509480  -0.460790     3.00001e-01     3.55640e-01
      2294       2297      1  -0.509480   0.139001     3.19984e-01     2.85295e-01
      2291       2319      1   0.017459   0.748011     3.39967e-01     2.02918e-01
      2291       2296      1   0.017459  -0.423480     3.19984e-01     2.85295e-01
      2291       2316      1   0.017459  -0.729843     3.17980e-01     3.17088e-01
      2291       2317      1   0.017459  -0.729843     3.17980e-01     3.17088e-01
      2289       2295      1   0.281242   1.116434     3.57072e-01     3.09446e-01
      2289       2320      1   0.281242  -0.561462     3.17980e-01     3.17088e-01
      2289       2358      1   0.281242  -0.136833     3.39967e-01     2.28865e-01
      2286       2294      1   0.196939  -0.424567     3.19984e-01     2.85295e-01
      2286       2319      1   0.196939   0.748011     3.39967e-01     2.02918e-01
      2285       2291      1  -0.575489   0.014549     3.19984e-01     2.85295e-01
      2285       2318      1  -0.575489  -0.460790     3.00001e-01     3.55640e-01
      2284       2286      1  -0.671566   0.164116     3.17980e-01     3.17088e-01
      2283       2289      1   0.910403   0.234368     3.39967e-01     2.02918e-01
      2349       2358      1  -0.016521  -0.136833     3.39967e-01     7.62883e-02
      2346       2355      1  -0.027812  -0.002029     3.39967e-01     7.62883e-02
      2343       2352      1  -0.004386  -0.022462     3.39967e-01     7.62883e-02
      2340       2349      1  -0.026451  -0.013767     3.39967e-01     7.62883e-02
      2337       2346      1  -0.014653  -0.023177     3.39967e-01     7.62883e-02
      2334       2343      1  -0.021025  -0.003655     3.39967e-01     7.62883e-02
      2331       2340      1  -0.031787  -0.022042     3.39967e-01     7.62883e-02
      2328       2337      1  -0.028094  -0.012211     3.39967e-01     7.62883e-02
      2325       2334      1   0.017463  -0.017521     3.39967e-01     7.62883e-02
      2322       2331      1  -0.111712  -0.026489     3.39967e-01     7.62883e-02
      2398       2404      1  -0.164200   0.164116     3.39967e-01     2.28865e-01
      2395       2402      1  -0.002435  -0.559638     3.17980e-01     3.17088e-01
      2395       2403      1  -0.002435  -0.479574     3.19984e-01     2.85295e-01
      2392       2401      1  -0.026954   0.758669     3.39967e-01     2.02918e-01
      2389       2398      1  -0.016521  -0.136833     3.39967e-01     7.62883e-02
      2386       2395      1  -0.027812  -0.002029     3.39967e-01     7.62883e-02
      2383       2392      1  -0.004386  -0.022462     3.39967e-01     7.62883e-02
      2380       2389      1  -0.026451  -0.013767     3.39967e-01     7.62883e-02
      2377       2386      1  -0.014653  -0.023177     3.39967e-01     7.62883e-02
      2374       2383      1  -0.021025  -0.003655     3.39967e-01     7.62883e-02
      2371       2380      1  -0.031787  -0.022042     3.39967e-01     7.62883e-02
      2368       2377      1  -0.028094  -0.012211     3.39967e-01     7.62883e-02
      2365       2374      1   0.017463  -0.017521     3.39967e-01     7.62883e-02
      2362       2371      1  -0.111712  -0.026489     3.39967e-01     7.62883e-02
      2438       2473      1  -0.673755  -0.002029     3.17980e-01     3.17088e-01
      2437       2470      1   0.897613  -0.022462     3.39967e-01     2.02918e-01
      2436       2473      1  -0.552948  -0.002029     3.19984e-01     2.85295e-01
      2415       2434      1   0.166801  -0.729843     3.17980e-01     3.17088e-01
      2415       2435      1   0.166801  -0.729843     3.17980e-01     3.17088e-01
      2415       2422      1   0.166801  -0.282478     3.39967e-01     2.28865e-01
      2415       2426      1   0.166801  -0.282478     3.39967e-01     2.28865e-01
      2415       2430      1   0.166801  -0.282478     3.39967e-01     2.28865e-01
      2414       2421      1  -0.508176   0.204385     3.12501e-01     3.55640e-01
      2413       2418      1   1.339721  -0.142353     3.57072e-01     3.09446e-01
      2412       2436      1  -0.509480  -0.460790     3.00001e-01     3.55640e-01
      2412       2415      1  -0.509480   0.139001     3.19984e-01     2.85295e-01
      2409       2437      1   0.017459   0.748011     3.39967e-01     2.02918e-01
      2409       2414      1   0.017459  -0.423480     3.19984e-01     2.85295e-01
      2409       2434      1   0.017459  -0.729843     3.17980e-01     3.17088e-01
      2409       2435      1   0.017459  -0.729843     3.17980e-01     3.17088e-01
      2407       2413      1   0.281242   1.116434     3.57072e-01     3.09446e-01
      2407       2438      1   0.281242  -0.561462     3.17980e-01     3.17088e-01
      2407       2476      1   0.281242  -0.136833     3.39967e-01     2.28865e-01
      2404       2412      1   0.196939  -0.424567     3.19984e-01     2.85295e-01
      2404       2437      1   0.196939   0.748011     3.39967e-01     2.02918e-01
      2403       2409      1  -0.575489   0.014549     3.19984e-01     2.85295e-01
      2403       2436      1  -0.575489  -0.460790     3.00001e-01     3.55640e-01
      2402       2404      1  -0.671566   0.164116     3.17980e-01     3.17088e-01
      2401       2407      1   0.910403   0.234368     3.39967e-01     2.02918e-01
      2467       2476      1  -0.016521  -0.136833     3.39967e-01     7.62883e-02
      2464       2473      1  -0.027812  -0.002029     3.39967e-01     7.62883e-02
      2461       2470      1  -0.004386  -0.022462     3.39967e-01     7.62883e-02
      2458       2467      1  -0.026451  -0.013767     3.39967e-01     7.62883e-02
      2455       2464      1  -0.014653  -0.023177     3.39967e-01     7.62883e-02
      2452       2461      1  -0.021025  -0.003655     3.39967e-01     7.62883e-02
      2449       2458      1  -0.031787  -0.022042     3.39967e-01     7.62883e-02
      2446       2455      1  -0.028094  -0.012211     3.39967e-01     7.62883e-02
      2443       2452      1   0.017463  -0.017521     3.39967e-01     7.62883e-02
      2440       2449      1  -0.111712  -0.026489     3.39967e-01     7.62883e-02
      2516       2522      1  -0.164200   0.164116     3.39967e-01     2.28865e-01
      2513       2520      1  -0.002435  -0.559638     3.17980e-01     3.17088e-01
      2513       2521      1  -0.002435  -0.479574     3.19984e-01     2.85295e-01
      2510       2519      1  -0.026954   0.758669     3.39967e-01     2.02918e-01
      2507       2516      1  -0.016521  -0.136833     3.39967e-01     7.62883e-02
      2504       2513      1  -0.027812  -0.002029     3.39967e-01     7.62883e-02
      2501       2510      1  -0.004386  -0.022462     3.39967e-01     7.62883e-02
      2498       2507      1  -0.026451  -0.013767     3.39967e-01     7.62883e-02
      2495       2504      1  -0.014653  -0.023177     3.39967e-01     7.62883e-02
      2492       2501      1  -0.021025  -0.003655     3.39967e-01     7.62883e-02
      2489       2498      1  -0.031787  -0.022042     3.39967e-01     7.62883e-02
      2486       2495      1  -0.028094  -0.012211     3.39967e-01     7.62883e-02
      2483       2492      1   0.017463  -0.017521     3.39967e-01     7.62883e-02
      2480       2489      1  -0.111712  -0.026489     3.39967e-01     7.62883e-02
      2556       2591      1  -0.673755  -0.002029     3.17980e-01     3.17088e-01
      2555       2588      1   0.897613  -0.022462     3.39967e-01     2.02918e-01
      2554       2591      1  -0.552948  -0.002029     3.19984e-01     2.85295e-01
      2533       2552      1   0.166801  -0.729843     3.17980e-01     3.17088e-01
      2533       2553      1   0.166801  -0.729843     3.17980e-01     3.17088e-01
      2533       2540      1   0.166801  -0.282478     3.39967e-01     2.28865e-01
      2533       2544      1   0.166801  -0.282478     3.39967e-01     2.28865e-01
      2533       2548      1   0.166801  -0.282478     3.39967e-01     2.28865e-01
      2532       2539      1  -0.508176   0.204385     3.12501e-01     3.55640e-01
      2531       2536      1   1.339721  -0.142353     3.57072e-01     3.09446e-01
      2530       2554      1  -0.509480  -0.460790     3.00001e-01     3.55640e-01
      2530       2533      1  -0.509480   0.139001     3.19984e-01     2.85295e-01
      2527       2555      1   0.017459   0.748011     3.39967e-01     2.02918e-01
      2527       2532      1   0.017459  -0.423480     3.19984e-01     2.85295e-01
      2527       2552      1   0.017459  -0.729843     3.17980e-01     3.17088e-01
      2527       2553      1   0.017459  -0.729843     3.17980e-01     3.17088e-01
      2525       2531      1   0.281242   1.116434     3.57072e-01     3.09446e-01
      2525       2556      1   0.281242  -0.561462     3.17980e-01     3.17088e-01
      2525       2594      1   0.281242  -0.136833     3.39967e-01     2.28865e-01
      2522       2530      1   0.196939  -0.424567     3.19984e-01     2.85295e-01
      2522       2555      1   0.196939   0.748011     3.39967e-01     2.02918e-01
      2521       2527      1  -0.575489   0.014549     3.19984e-01     2.85295e-01
      2521       2554      1  -0.575489  -0.460790     3.00001e-01     3.55640e-01
      2520       2522      1  -0.671566   0.164116     3.17980e-01     3.17088e-01
      2519       2525      1   0.910403   0.234368     3.39967e-01     2.02918e-01
      2585       2594      1  -0.016521  -0.136833     3.39967e-01     7.62883e-02
      2582       2591      1  -0.027812  -0.002029     3.39967e-01     7.62883e-02
      2579       2588      1  -0.004386  -0.022462     3.39967e-01     7.62883e-02
      2576       2585      1  -0.026451  -0.013767     3.39967e-01     7.62883e-02
      2573       2582      1  -0.014653  -0.023177     3.39967e-01     7.62883e-02
      2570       2579      1  -0.021025  -0.003655     3.39967e-01     7.62883e-02
      2567       2576      1  -0.031787  -0.022042     3.39967e-01     7.62883e-02
      2564       2573      1  -0.028094  -0.012211     3.39967e-01     7.62883e-02
      2561       2570      1   0.017463  -0.017521     3.39967e-01     7.62883e-02
      2558       2567      1  -0.111712  -0.026489     3.39967e-01     7.62883e-02
      2634       2640      1  -0.164200   0.164116     3.39967e-01     2.28865e-01
      2631       2638      1  -0.002435  -0.559638     3.17980e-01     3.17088e-01
      2631       2639      1  -0.002435  -0.479574     3.19984e-01     2.85295e-01
      2628       2637      1  -0.026954   0.758669     3.39967e-01     2.02918e-01
      2625       2634      1  -0.016521  -0.136833     3.39967e-01     7.62883e-02
      2622       2631      1  -0.027812  -0.002029     3.39967e-01     7.62883e-02
      2619       2628      1  -0.004386  -0.022462     3.39967e-01     7.62883e-02
      2616       2625      1  -0.026451  -0.013767     3.39967e-01     7.62883e-02
      2613       2622      1  -0.014653  -0.023177     3.39967e-01     7.62883e-02
      2610       2619      1  -0.021025  -0.003655     3.39967e-01     7.62883e-02
      2607       2616      1  -0.031787  -0.022042     3.39967e-01     7.62883e-02
      2604       2613      1  -0.028094  -0.012211     3.39967e-01     7.62883e-02
      2601       2610      1   0.017463  -0.017521     3.39967e-01     7.62883e-02
      2598       2607      1  -0.111712  -0.026489     3.39967e-01     7.62883e-02
      2674       2709      1  -0.673755  -0.002029     3.17980e-01     3.17088e-01
      2673       2706      1   0.897613  -0.022462     3.39967e-01     2.02918e-01
      2672       2709      1  -0.552948  -0.002029     3.19984e-01     2.85295e-01
      2651       2670      1   0.166801  -0.729843     3.17980e-01     3.17088e-01
      2651       2671      1   0.166801  -0.729843     3.17980e-01     3.17088e-01
      2651       2658      1   0.166801  -0.282478     3.39967e-01     2.28865e-01
      2651       2662      1   0.166801  -0.282478     3.39967e-01     2.28865e-01
      2651       2666      1   0.166801  -0.282478     3.39967e-01     2.28865e-01
      2650       2657      1  -0.508176   0.204385     3.12501e-01     3.55640e-01
      2649       2654      1   1.339721  -0.142353     3.57072e-01     3.09446e-01
      2648       2672      1  -0.509480  -0.460790     3.00001e-01     3.55640e-01
      2648       2651      1  -0.509480   0.139001     3.19984e-01     2.85295e-01
      2645       2673      1   0.017459   0.748011     3.39967e-01     2.02918e-01
      2645       2650      1   0.017459  -0.423480     3.19984e-01     2.85295e-01
      2645       2670      1   0.017459  -0.729843     3.17980e-01     3.17088e-01
      2645       2671      1   0.017459  -0.729843     3.17980e-01     3.17088e-01
      2643       2649      1   0.281242   1.116434     3.57072e-01     3.09446e-01
      2643       2674      1   0.281242  -0.561462     3.17980e-01     3.17088e-01
      2643       2712      1   0.281242  -0.136833     3.39967e-01     2.28865e-01
      2640       2648      1   0.196939  -0.424567     3.19984e-01     2.85295e-01
      2640       2673      1   0.196939   0.748011     3.39967e-01     2.02918e-01
      2639       2645      1  -0.575489   0.014549     3.19984e-01     2.85295e-01
      2639       2672      1  -0.575489  -0.460790     3.00001e-01     3.55640e-01
      2638       2640      1  -0.671566   0.164116     3.17980e-01     3.17088e-01
      2637       2643      1   0.910403   0.234368     3.39967e-01     2.02918e-01
      2703       2712      1  -0.016521  -0.136833     3.39967e-01     7.62883e-02
      2700       2709      1  -0.027812  -0.002029     3.39967e-01     7.62883e-02
      2697       2706      1  -0.004386  -0.022462     3.39967e-01     7.62883e-02
      2694       2703      1  -0.026451  -0.013767     3.39967e-01     7.62883e-02
      2691       2700      1  -0.014653  -0.023177     3.39967e-01     7.62883e-02
      2688       2697      1  -0.021025  -0.003655     3.39967e-01     7.62883e-02
      2685       2694      1  -0.031787  -0.022042     3.39967e-01     7.62883e-02
      2682       2691      1  -0.028094  -0.012211     3.39967e-01     7.62883e-02
      2679       2688      1   0.017463  -0.017521     3.39967e-01     7.62883e-02
      2676       2685      1  -0.111712  -0.026489     3.39967e-01     7.62883e-02
      2752       2758      1  -0.164200   0.164116     3.39967e-01     2.28865e-01
      2749       2756      1  -0.002435  -0.559638     3.17980e-01     3.17088e-01
      2749       2757      1  -0.002435  -0.479574     3.19984e-01     2.85295e-01
      2746       2755      1  -0.026954   0.758669     3.39967e-01     2.02918e-01
      2743       2752      1  -0.016521  -0.136833     3.39967e-01     7.62883e-02
      2740       2749      1  -0.027812  -0.002029     3.39967e-01     7.62883e-02
      2737       2746      1  -0.004386  -0.022462     3.39967e-01     7.62883e-02
      2734       2743      1  -0.026451  -0.013767     3.39967e-01     7.62883e-02
      2731       2740      1  -0.014653  -0.023177     3.39967e-01     7.62883e-02
      2728       2737      1  -0.021025  -0.003655     3.39967e-01     7.62883e-02
      2725       2734      1  -0.031787  -0.022042     3.39967e-01     7.62883e-02
      2722       2731      1  -0.028094  -0.012211     3.39967e-01     7.62883e-02
      2719       2728      1   0.017463  -0.017521     3.39967e-01     7.62883e-02
      2716       2725      1  -0.111712  -0.026489     3.39967e-01     7.62883e-02
      2792       2827      1  -0.673755  -0.002029     3.17980e-01     3.17088e-01
      2791       2824      1   0.897613  -0.022462     3.39967e-01     2.02918e-01
      2790       2827      1  -0.552948  -0.002029     3.19984e-01     2.85295e-01
      2769       2788      1   0.166801  -0.729843     3.17980e-01     3.17088e-01
      2769       2789      1   0.166801  -0.729843     3.17980e-01     3.17088e-01
      2769       2776      1   0.166801  -0.282478     3.39967e-01     2.28865e-01
      2769       2780      1   0.166801  -0.282478     3.39967e-01     2.28865e-01
      2769       2784      1   0.166801  -0.282478     3.39967e-01     2.28865e-01
      2768       2775      1  -0.508176   0.204385     3.12501e-01     3.55640e-01
      2767       2772      1   1.339721  -0.142353     3.57072e-01     3.09446e-01
      2766       2790      1  -0.509480  -0.460790     3.00001e-01     3.55640e-01
      2766       2769      1  -0.509480   0.139001     3.19984e-01     2.85295e-01
      2763       2791      1   0.017459   0.748011     3.39967e-01     2.02918e-01
      2763       2768      1   0.017459  -0.423480     3.19984e-01     2.85295e-01
      2763       2788      1   0.017459  -0.729843     3.17980e-01     3.17088e-01
      2763       2789      1   0.017459  -0.729843     3.17980e-01     3.17088e-01
      2761       2767      1   0.281242   1.116434     3.57072e-01     3.09446e-01
      2761       2792      1   0.281242  -0.561462     3.17980e-01     3.17088e-01
      2761       2830      1   0.281242  -0.136833     3.39967e-01     2.28865e-01
      2758       2766      1   0.196939  -0.424567     3.19984e-01     2.85295e-01
      2758       2791      1   0.196939   0.748011     3.39967e-01     2.02918e-01
      2757       2763      1  -0.575489   0.014549     3.19984e-01     2.85295e-01
      2757       2790      1  -0.575489  -0.460790     3.00001e-01     3.55640e-01
      2756       2758      1  -0.671566   0.164116     3.17980e-01     3.17088e-01
      2755       2761      1   0.910403   0.234368     3.39967e-01     2.02918e-01
      2821       2830      1  -0.016521  -0.136833     3.39967e-01     7.62883e-02
      2818       2827      1  -0.027812  -0.002029     3.39967e-01     7.62883e-02
      2815       2824      1  -0.004386  -0.022462     3.39967e-01     7.62883e-02
      2812       2821      1  -0.026451  -0.013767     3.39967e-01     7.62883e-02
      2809       2818      1  -0.014653  -0.023177     3.39967e-01     7.62883e-02
      2806       2815      1  -0.021025  -0.003655     3.39967e-01     7.62883e-02
      2803       2812      1  -0.031787  -0.022042     3.39967e-01     7.62883e-02
      2800       2809      1  -0.028094  -0.012211     3.39967e-01     7.62883e-02
      2797       2806      1   0.017463  -0.017521     3.39967e-01     7.62883e-02
      2794       2803      1  -0.111712  -0.026489     3.39967e-01     7.62883e-02
      2870       2876      1  -0.164200   0.164116     3.39967e-01     2.28865e-01
      2867       2874      1  -0.002435  -0.559638     3.17980e-01     3.17088e-01
      2867       2875      1  -0.002435  -0.479574     3.19984e-01     2.85295e-01
      2864       2873      1  -0.026954   0.758669     3.39967e-01     2.02918e-01
      2861       2870      1  -0.016521  -0.136833     3.39967e-01     7.62883e-02
      2858       2867      1  -0.027812  -0.002029     3.39967e-01     7.62883e-02
      2855       2864      1  -0.004386  -0.022462     3.39967e-01     7.62883e-02
      2852       2861      1  -0.026451  -0.013767     3.39967e-01     7.62883e-02
      2849       2858      1  -0.014653  -0.023177     3.39967e-01     7.62883e-02
      2846       2855      1  -0.021025  -0.003655     3.39967e-01     7.62883e-02
      2843       2852      1  -0.031787  -0.022042     3.39967e-01     7.62883e-02
      2840       2849      1  -0.028094  -0.012211     3.39967e-01     7.62883e-02
      2837       2846      1   0.017463  -0.017521     3.39967e-01     7.62883e-02
      2834       2843      1  -0.111712  -0.026489     3.39967e-01     7.62883e-02
      2910       2945      1  -0.673755  -0.002029     3.17980e-01     3.17088e-01
      2909       2942      1   0.897613  -0.022462     3.39967e-01     2.02918e-01
      2908       2945      1  -0.552948  -0.002029     3.19984e-01     2.85295e-01
      2887       2906      1   0.166801  -0.729843     3.17980e-01     3.17088e-01
      2887       2907      1   0.166801  -0.729843     3.17980e-01     3.17088e-01
      2887       2894      1   0.166801  -0.282478     3.39967e-01     2.28865e-01
      2887       2898      1   0.166801  -0.282478     3.39967e-01     2.28865e-01
      2887       2902      1   0.166801  -0.282478     3.39967e-01     2.28865e-01
      2886       2893      1  -0.508176   0.204385     3.12501e-01     3.55640e-01
      2885       2890      1   1.339721  -0.142353     3.57072e-01     3.09446e-01
      2884       2908      1  -0.509480  -0.460790     3.00001e-01     3.55640e-01
      2884       2887      1  -0.509480   0.139001     3.19984e-01     2.85295e-01
      2881       2909      1   0.017459   0.748011     3.39967e-01     2.02918e-01
      2881       2886      1   0.017459  -0.423480     3.19984e-01     2.85295e-01
      2881       2906      1   0.017459  -0.729843     3.17980e-01     3.17088e-01
      2881       2907      1   0.017459  -0.729843     3.17980e-01     3.17088e-01
      2879       2885      1   0.281242   1.116434     3.57072e-01     3.09446e-01
      2879       2910      1   0.281242  -0.561462     3.17980e-01     3.17088e-01
      2879       2948      1   0.281242  -0.136833     3.39967e-01     2.28865e-01
      2876       2884      1   0.196939  -0.424567     3.19984e-01     2.85295e-01
      2876       2909      1   0.196939   0.748011     3.39967e-01     2.02918e-01
      2875       2881      1  -0.575489   0.014549     3.19984e-01     2.85295e-01
      2875       2908      1  -0.575489  -0.460790     3.00001e-01     3.55640e-01
      2874       2876      1  -0.671566   0.164116     3.17980e-01     3.17088e-01
      2873       2879      1   0.910403   0.234368     3.39967e-01     2.02918e-01
      2939       2948      1  -0.016521  -0.136833     3.39967e-01     7.62883e-02
      2936       2945      1  -0.027812  -0.002029     3.39967e-01     7.62883e-02
      2933       2942      1  -0.004386  -0.022462     3.39967e-01     7.62883e-02
      2930       2939      1  -0.026451  -0.013767     3.39967e-01     7.62883e-02
      2927       2936      1  -0.014653  -0.023177     3.39967e-01     7.62883e-02
      2924       2933      1  -0.021025  -0.003655     3.39967e-01     7.62883e-02
      2921       2930      1  -0.031787  -0.022042     3.39967e-01     7.62883e-02
      2918       2927      1  -0.028094  -0.012211     3.39967e-01     7.62883e-02
      2915       2924      1   0.017463  -0.017521     3.39967e-01     7.62883e-02
      2912       2921      1  -0.111712  -0.026489     3.39967e-01     7.62883e-02
      2988       2994      1  -0.164200   0.164116     3.39967e-01     2.28865e-01
      2985       2992      1  -0.002435  -0.559638     3.17980e-01     3.17088e-01
      2985       2993      1  -0.002435  -0.479574     3.19984e-01     2.85295e-01
      2982       2991      1  -0.026954   0.758669     3.39967e-01     2.02918e-01
      2979       2988      1  -0.016521  -0.136833     3.39967e-01     7.62883e-02
      2976       2985      1  -0.027812  -0.002029     3.39967e-01     7.62883e-02
      2973       2982      1  -0.004386  -0.022462     3.39967e-01     7.62883e-02
      2970       2979      1  -0.026451  -0.013767     3.39967e-01     7.62883e-02
      2967       2976      1  -0.014653  -0.023177     3.39967e-01     7.62883e-02
      2964       2973      1  -0.021025  -0.003655     3.39967e-01     7.62883e-02
      2961       2970      1  -0.031787  -0.022042     3.39967e-01     7.62883e-02
      2958       2967      1  -0.028094  -0.012211     3.39967e-01     7.62883e-02
      2955       2964      1   0.017463  -0.017521     3.39967e-01     7.62883e-02
      2952       2961      1  -0.111712  -0.026489     3.39967e-01     7.62883e-02
      3028       3063      1  -0.673755  -0.002029     3.17980e-01     3.17088e-01
      3027       3060      1   0.897613  -0.022462     3.39967e-01     2.02918e-01
      3026       3063      1  -0.552948  -0.002029     3.19984e-01     2.85295e-01
      3005       3024      1   0.166801  -0.729843     3.17980e-01     3.17088e-01
      3005       3025      1   0.166801  -0.729843     3.17980e-01     3.17088e-01
      3005       3012      1   0.166801  -0.282478     3.39967e-01     2.28865e-01
      3005       3016      1   0.166801  -0.282478     3.39967e-01     2.28865e-01
      3005       3020      1   0.166801  -0.282478     3.39967e-01     2.28865e-01
      3004       3011      1  -0.508176   0.204385     3.12501e-01     3.55640e-01
      3003       3008      1   1.339721  -0.142353     3.57072e-01     3.09446e-01
      3002       3026      1  -0.509480  -0.460790     3.00001e-01     3.55640e-01
      3002       3005      1  -0.509480   0.139001     3.19984e-01     2.85295e-01
      2999       3027      1   0.017459   0.748011     3.39967e-01     2.02918e-01
      2999       3004      1   0.017459  -0.423480     3.19984e-01     2.85295e-01
      2999       3024      1   0.017459  -0.729843     3.17980e-01     3.17088e-01
      2999       3025      1   0.017459  -0.729843     3.17980e-01     3.17088e-01
      2997       3003      1   0.281242   1.116434     3.57072e-01     3.09446e-01
      2997       3028      1   0.281242  -0.561462     3.17980e-01     3.17088e-01
      2997       3066      1   0.281242  -0.136833     3.39967e-01     2.28865e-01
      2994       3002      1   0.196939  -0.424567     3.19984e-01     2.85295e-01
      2994       3027      1   0.196939   0.748011     3.39967e-01     2.02918e-01
      2993       2999      1  -0.575489   0.014549     3.19984e-01     2.85295e-01
      2993       3026      1  -0.575489  -0.460790     3.00001e-01     3.55640e-01
      2992       2994      1  -0.671566   0.164116     3.17980e-01     3.17088e-01
      2991       2997      1   0.910403   0.234368     3.39967e-01     2.02918e-01
      3057       3066      1  -0.016521  -0.136833     3.39967e-01     7.62883e-02
      3054       3063      1  -0.027812  -0.002029     3.39967e-01     7.62883e-02
      3051       3060      1  -0.004386  -0.022462     3.39967e-01     7.62883e-02
      3048       3057      1  -0.026451  -0.013767     3.39967e-01     7.62883e-02
      3045       3054      1  -0.014653  -0.023177     3.39967e-01     7.62883e-02
      3042       3051      1  -0.021025  -0.003655     3.39967e-01     7.62883e-02
      3039       3048      1  -0.031787  -0.022042     3.39967e-01     7.62883e-02
      3036       3045      1  -0.028094  -0.012211     3.39967e-01     7.62883e-02
      3033       3042      1   0.017463  -0.017521     3.39967e-01     7.62883e-02
      3030       3039      1  -0.111712  -0.026489     3.39967e-01     7.62883e-02
      3106       3112      1  -0.164200   0.164116     3.39967e-01     2.28865e-01
      3103       3110      1  -0.002435  -0.559638     3.17980e-01     3.17088e-01
      3103       3111      1  -0.002435  -0.479574     3.19984e-01     2.85295e-01
      3100       3109      1  -0.026954   0.758669     3.39967e-01     2.02918e-01
      3097       3106      1  -0.016521  -0.136833     3.39967e-01     7.62883e-02
      3094       3103      1  -0.027812  -0.002029     3.39967e-01     7.62883e-02
      3091       3100      1  -0.004386  -0.022462     3.39967e-01     7.62883e-02
      3088       3097      1  -0.026451  -0.013767     3.39967e-01     7.62883e-02
      3085       3094      1  -0.014653  -0.023177     3.39967e-01     7.62883e-02
      3082       3091      1  -0.021025  -0.003655     3.39967e-01     7.62883e-02
      3079       3088      1  -0.031787  -0.022042     3.39967e-01     7.62883e-02
      3076       3085      1  -0.028094  -0.012211     3.39967e-01     7.62883e-02
      3073       3082      1   0.017463  -0.017521     3.39967e-01     7.62883e-02
      3070       3079      1  -0.111712  -0.026489     3.39967e-01     7.62883e-02
      3146       3181      1  -0.673755  -0.002029     3.17980e-01     3.17088e-01
      3145       3178      1   0.897613  -0.022462     3.39967e-01     2.02918e-01
      3144       3181      1  -0.552948  -0.002029     3.19984e-01     2.85295e-01
      3123       3142      1   0.166801  -0.729843     3.17980e-01     3.17088e-01
      3123       3143      1   0.166801  -0.729843     3.17980e-01     3.17088e-01
      3123       3130      1   0.166801  -0.282478     3.39967e-01     2.28865e-01
      3123       3134      1   0.166801  -0.282478     3.39967e-01     2.28865e-01
      3123       3138      1   0.166801  -0.282478     3.39967e-01     2.28865e-01
      3122       3129      1  -0.508176   0.204385     3.12501e-01     3.55640e-01
      3121       3126      1   1.339721  -0.142353     3.57072e-01     3.09446e-01
      3120       3144      1  -0.509480  -0.460790     3.00001e-01     3.55640e-01
      3120       3123      1  -0.509480   0.139001     3.19984e-01     2.85295e-01
      3117       3145      1   0.017459   0.748011     3.39967e-01     2.02918e-01
      3117       3122      1   0.017459  -0.423480     3.19984e-01     2.85295e-01
      3117       3142      1   0.017459  -0.729843     3.17980e-01     3.17088e-01
      3117       3143      1   0.017459  -0.729843     3.17980e-01     3.17088e-01
      3115       3121      1   0.281242   1.116434     3.57072e-01     3.09446e-01
      3115       3146      1   0.281242  -0.561462     3.17980e-01     3.17088e-01
      3115       3184      1   0.281242  -0.136833     3.39967e-01     2.28865e-01
      3112       3120      1   0.196939  -0.424567     3.19984e-01     2.85295e-01
      3112       3145      1   0.196939   0.748011     3.39967e-01     2.02918e-01
      3111       3117      1  -0.575489   0.014549     3.19984e-01     2.85295e-01
      3111       3144      1  -0.575489  -0.460790     3.00001e-01     3.55640e-01
      3110       3112      1  -0.671566   0.164116     3.17980e-01     3.17088e-01
      3109       3115      1   0.910403   0.234368     3.39967e-01     2.02918e-01
      3175       3184      1  -0.016521  -0.136833     3.39967e-01     7.62883e-02
      3172       3181      1  -0.027812  -0.002029     3.39967e-01     7.62883e-02
      3169       3178      1  -0.004386  -0.022462     3.39967e-01     7.62883e-02
      3166       3175      1  -0.026451  -0.013767     3.39967e-01     7.62883e-02
      3163       3172      1  -0.014653  -0.023177     3.39967e-01     7.62883e-02
      3160       3169      1  -0.021025  -0.003655     3.39967e-01     7.62883e-02
      3157       3166      1  -0.031787  -0.022042     3.39967e-01     7.62883e-02
      3154       3163      1  -0.028094  -0.012211     3.39967e-01     7.62883e-02
      3151       3160      1   0.017463  -0.017521     3.39967e-01     7.62883e-02
      3148       3157      1  -0.111712  -0.026489     3.39967e-01     7.62883e-02
      3224       3230      1  -0.164200   0.164116     3.39967e-01     2.28865e-01
      3221       3228      1  -0.002435  -0.559638     3.17980e-01     3.17088e-01
      3221       3229      1  -0.002435  -0.479574     3.19984e-01     2.85295e-01
      3218       3227      1  -0.026954   0.758669     3.39967e-01     2.02918e-01
      3215       3224      1  -0.016521  -0.136833     3.39967e-01     7.62883e-02
      3212       3221      1  -0.027812  -0.002029     3.39967e-01     7.62883e-02
      3209       3218      1  -0.004386  -0.022462     3.39967e-01     7.62883e-02
      3206       3215      1  -0.026451  -0.013767     3.39967e-01     7.62883e-02
      3203       3212      1  -0.014653  -0.023177     3.39967e-01     7.62883e-02
      3200       3209      1  -0.021025  -0.003655     3.39967e-01     7.62883e-02
      3197       3206      1  -0.031787  -0.022042     3.39967e-01     7.62883e-02
      3194       3203      1  -0.028094  -0.012211     3.39967e-01     7.62883e-02
      3191       3200      1   0.017463  -0.017521     3.39967e-01     7.62883e-02
      3188       3197      1  -0.111712  -0.026489     3.39967e-01     7.62883e-02
      3264       3299      1  -0.673755  -0.002029     3.17980e-01     3.17088e-01
      3263       3296      1   0.897613  -0.022462     3.39967e-01     2.02918e-01
      3262       3299      1  -0.552948  -0.002029     3.19984e-01     2.85295e-01
      3241       3260      1   0.166801  -0.729843     3.17980e-01     3.17088e-01
      3241       3261      1   0.166801  -0.729843     3.17980e-01     3.17088e-01
      3241       3248      1   0.166801  -0.282478     3.39967e-01     2.28865e-01
      3241       3252      1   0.166801  -0.282478     3.39967e-01     2.28865e-01
      3241       3256      1   0.166801  -0.282478     3.39967e-01     2.28865e-01
      3240       3247      1  -0.508176   0.204385     3.12501e-01     3.55640e-01
      3239       3244      1   1.339721  -0.142353     3.57072e-01     3.09446e-01
      3238       3262      1  -0.509480  -0.460790     3.00001e-01     3.55640e-01
      3238       3241      1  -0.509480   0.139001     3.19984e-01     2.85295e-01
      3235       3263      1   0.017459   0.748011     3.39967e-01     2.02918e-01
      3235       3240      1   0.017459  -0.423480     3.19984e-01     2.85295e-01
      3235       3260      1   0.017459  -0.729843     3.17980e-01     3.17088e-01
      3235       3261      1   0.017459  -0.729843     3.17980e-01     3.17088e-01
      3233       3239      1   0.281242   1.116434     3.57072e-01     3.09446e-01
      3233       3264      1   0.281242  -0.561462     3.17980e-01     3.17088e-01
      3233       3302      1   0.281242  -0.136833     3.39967e-01     2.28865e-01
      3230       3238      1   0.196939  -0.424567     3.19984e-01     2.85295e-01
      3230       3263      1   0.196939   0.748011     3.39967e-01     2.02918e-01
      3229       3235      1  -0.575489   0.014549     3.19984e-01     2.85295e-01
      3229       3262      1  -0.575489  -0.460790     3.00001e-01     3.55640e-01
      3228       3230      1  -0.671566   0.164116     3.17980e-01     3.17088e-01
      3227       3233      1   0.910403   0.234368     3.39967e-01     2.02918e-01
      3293       3302      1  -0.016521  -0.136833     3.39967e-01     7.62883e-02
      3290       3299      1  -0.027812  -0.002029     3.39967e-01     7.62883e-02
      3287       3296      1  -0.004386  -0.022462     3.39967e-01     7.62883e-02
      3284       3293      1  -0.026451  -0.013767     3.39967e-01     7.62883e-02
      3281       3290      1  -0.014653  -0.023177     3.39967e-01     7.62883e-02
      3278       3287      1  -0.021025  -0.003655     3.39967e-01     7.62883e-02
      3275       3284      1  -0.031787  -0.022042     3.39967e-01     7.62883e-02
      3272       3281      1  -0.028094  -0.012211     3.39967e-01     7.62883e-02
      3269       3278      1   0.017463  -0.017521     3.39967e-01     7.62883e-02
      3266       3275      1  -0.111712  -0.026489     3.39967e-01     7.62883e-02
      3342       3348      1  -0.164200   0.164116     3.39967e-01     2.28865e-01
      3339       3346      1  -0.002435  -0.559638     3.17980e-01     3.17088e-01
      3339       3347      1  -0.002435  -0.479574     3.19984e-01     2.85295e-01
      3336       3345      1  -0.026954   0.758669     3.39967e-01     2.02918e-01
      3333       3342      1  -0.016521  -0.136833     3.39967e-01     7.62883e-02
      3330       3339      1  -0.027812  -0.002029     3.39967e-01     7.62883e-02
      3327       3336      1  -0.004386  -0.022462     3.39967e-01     7.62883e-02
      3324       3333      1  -0.026451  -0.013767     3.39967e-01     7.62883e-02
      3321       3330      1  -0.014653  -0.023177     3.39967e-01     7.62883e-02
      3318       3327      1  -0.021025  -0.003655     3.39967e-01     7.62883e-02
      3315       3324      1  -0.031787  -0.022042     3.39967e-01     7.62883e-02
      3312       3321      1  -0.028094  -0.012211     3.39967e-01     7.62883e-02
      3309       3318      1   0.017463  -0.017521     3.39967e-01     7.62883e-02
      3306       3315      1  -0.111712  -0.026489     3.39967e-01     7.62883e-02
      3382       3417      1  -0.673755  -0.002029     3.17980e-01     3.17088e-01
      3381       3414      1   0.897613  -0.022462     3.39967e-01     2.02918e-01
      3380       3417      1  -0.552948  -0.002029     3.19984e-01     2.85295e-01
      3359       3378      1   0.166801  -0.729843     3.17980e-01     3.17088e-01
      3359       3379      1   0.166801  -0.729843     3.17980e-01     3.17088e-01
      3359       3366      1   0.166801  -0.282478     3.39967e-01     2.28865e-01
      3359       3370      1   0.166801  -0.282478     3.39967e-01     2.28865e-01
      3359       3374      1   0.166801  -0.282478     3.39967e-01     2.28865e-01
      3358       3365      1  -0.508176   0.204385     3.12501e-01     3.55640e-01
      3357       3362      1   1.339721  -0.142353     3.57072e-01     3.09446e-01
      3356       3380      1  -0.509480  -0.460790     3.00001e-01     3.55640e-01
      3356       3359      1  -0.509480   0.139001     3.19984e-01     2.85295e-01
      3353       3381      1   0.017459   0.748011     3.39967e-01     2.02918e-01
      3353       3358      1   0.017459  -0.423480     3.19984e-01     2.85295e-01
      3353       3378      1   0.017459  -0.729843     3.17980e-01     3.17088e-01
      3353       3379      1   0.017459  -0.729843     3.17980e-01     3.17088e-01
      3351       3357      1   0.281242   1.116434     3.57072e-01     3.09446e-01
      3351       3382      1   0.281242  -0.561462     3.17980e-01     3.17088e-01
      3351       3420      1   0.281242  -0.136833     3.39967e-01     2.28865e-01
      3348       3356      1   0.196939  -0.424567     3.19984e-01     2.85295e-01
      3348       3381      1   0.196939   0.748011     3.39967e-01     2.02918e-01
      3347       3353      1  -0.575489   0.014549     3.19984e-01     2.85295e-01
      3347       3380      1  -0.575489  -0.460790     3.00001e-01     3.55640e-01
      3346       3348      1  -0.671566   0.164116     3.17980e-01     3.17088e-01
      3345       3351      1   0.910403   0.234368     3.39967e-01     2.02918e-01
      3411       3420      1  -0.016521  -0.136833     3.39967e-01     7.62883e-02
      3408       3417      1  -0.027812  -0.002029     3.39967e-01     7.62883e-02
      3405       3414      1  -0.004386  -0.022462     3.39967e-01     7.62883e-02
      3402       3411      1  -0.026451  -0.013767     3.39967e-01     7.62883e-02
      3399       3408      1  -0.014653  -0.023177     3.39967e-01     7.62883e-02
      3396       3405      1  -0.021025  -0.003655     3.39967e-01     7.62883e-02
      3393       3402      1  -0.031787  -0.022042     3.39967e-01     7.62883e-02
      3390       3399      1  -0.028094  -0.012211     3.39967e-01     7.62883e-02
      3387       3396      1   0.017463  -0.017521     3.39967e-01     7.62883e-02
      3384       3393      1  -0.111712  -0.026489     3.39967e-01     7.62883e-02
      3460       3466      1  -0.164200   0.164116     3.39967e-01     2.28865e-01
      3457       3464      1  -0.002435  -0.559638     3.17980e-01     3.17088e-01
      3457       3465      1  -0.002435  -0.479574     3.19984e-01     2.85295e-01
      3454       3463      1  -0.026954   0.758669     3.39967e-01     2.02918e-01
      3451       3460      1  -0.016521  -0.136833     3.39967e-01     7.62883e-02
      3448       3457      1  -0.027812  -0.002029     3.39967e-01     7.62883e-02
      3445       3454      1  -0.004386  -0.022462     3.39967e-01     7.62883e-02
      3442       3451      1  -0.026451  -0.013767     3.39967e-01     7.62883e-02
      3439       3448      1  -0.014653  -0.023177     3.39967e-01     7.62883e-02
      3436       3445      1  -0.021025  -0.003655     3.39967e-01     7.62883e-02
      3433       3442      1  -0.031787  -0.022042     3.39967e-01     7.62883e-02
      3430       3439      1  -0.028094  -0.012211     3.39967e-01     7.62883e-02
      3427       3436      1   0.017463  -0.017521     3.39967e-01     7.62883e-02
      3424       3433      1  -0.111712  -0.026489     3.39967e-01     7.62883e-02
      3500       3535      1  -0.673755  -0.002029     3.17980e-01     3.17088e-01
      3499       3532      1   0.897613  -0.022462     3.39967e-01     2.02918e-01
      3498       3535      1  -0.552948  -0.002029     3.19984e-01     2.85295e-01
      3477       3496      1   0.166801  -0.729843     3.17980e-01     3.17088e-01
      3477       3497      1   0.166801  -0.729843     3.17980e-01     3.17088e-01
      3477       3484      1   0.166801  -0.282478     3.39967e-01     2.28865e-01
      3477       3488      1   0.166801  -0.282478     3.39967e-01     2.28865e-01
      3477       3492      1   0.166801  -0.282478     3.39967e-01     2.28865e-01
      3476       3483      1  -0.508176   0.204385     3.12501e-01     3.55640e-01
      3475       3480      1   1.339721  -0.142353     3.57072e-01     3.09446e-01
      3474       3498      1  -0.509480  -0.460790     3.00001e-01     3.55640e-01
      3474       3477      1  -0.509480   0.139001     3.19984e-01     2.85295e-01
      3471       3499      1   0.017459   0.748011     3.39967e-01     2.02918e-01
      3471       3476      1   0.017459  -0.423480     3.19984e-01     2.85295e-01
      3471       3496      1   0.017459  -0.729843     3.17980e-01     3.17088e-01
      3471       3497      1   0.017459  -0.729843     3.17980e-01     3.17088e-01
      3469       3475      1   0.281242   1.116434     3.57072e-01     3.09446e-01
      3469       3500      1   0.281242  -0.561462     3.17980e-01     3.17088e-01
      3469       3538      1   0.281242  -0.136833     3.39967e-01     2.28865e-01
      3466       3474      1   0.196939  -0.424567     3.19984e-01     2.85295e-01
      3466       3499      1   0.196939   0.748011     3.39967e-01     2.02918e-01
      3465       3471      1  -0.575489   0.014549     3.19984e-01     2.85295e-01
      3465       3498      1  -0.575489  -0.460790     3.00001e-01     3.55640e-01
      3464       3466      1  -0.671566   0.164116     3.17980e-01     3.17088e-01
      3463       3469      1   0.910403   0.234368     3.39967e-01     2.02918e-01
      3529       3538      1  -0.016521  -0.136833     3.39967e-01     7.62883e-02
      3526       3535      1  -0.027812  -0.002029     3.39967e-01     7.62883e-02
      3523       3532      1  -0.004386  -0.022462     3.39967e-01     7.62883e-02
      3520       3529      1  -0.026451  -0.013767     3.39967e-01     7.62883e-02
      3517       3526      1  -0.014653  -0.023177     3.39967e-01     7.62883e-02
      3514       3523      1  -0.021025  -0.003655     3.39967e-01     7.62883e-02
      3511       3520      1  -0.031787  -0.022042     3.39967e-01     7.62883e-02
      3508       3517      1  -0.028094  -0.012211     3.39967e-01     7.62883e-02
      3505       3514      1   0.017463  -0.017521     3.39967e-01     7.62883e-02
      3502       3511      1  -0.111712  -0.026489     3.39967e-01     7.62883e-02
      3578       3584      1  -0.164200   0.164116     3.39967e-01     2.28865e-01
      3575       3582      1  -0.002435  -0.559638     3.17980e-01     3.17088e-01
      3575       3583      1  -0.002435  -0.479574     3.19984e-01     2.85295e-01
      3572       3581      1  -0.026954   0.758669     3.39967e-01     2.02918e-01
      3569       3578      1  -0.016521  -0.136833     3.39967e-01     7.62883e-02
      3566       3575      1  -0.027812  -0.002029     3.39967e-01     7.62883e-02
      3563       3572      1  -0.004386  -0.022462     3.39967e-01     7.62883e-02
      3560       3569      1  -0.026451  -0.013767     3.39967e-01     7.62883e-02
      3557       3566      1  -0.014653  -0.023177     3.39967e-01     7.62883e-02
      3554       3563      1  -0.021025  -0.003655     3.39967e-01     7.62883e-02
      3551       3560      1  -0.031787  -0.022042     3.39967e-01     7.62883e-02
      3548       3557      1  -0.028094  -0.012211     3.39967e-01     7.62883e-02
      3545       3554      1   0.017463  -0.017521     3.39967e-01     7.62883e-02
      3542       3551      1  -0.111712  -0.026489     3.39967e-01     7.62883e-02
      3618       3653      1  -0.673755  -0.002029     3.17980e-01     3.17088e-01
      3617       3650      1   0.897613  -0.022462     3.39967e-01     2.02918e-01
      3616       3653      1  -0.552948  -0.002029     3.19984e-01     2.85295e-01
      3595       3614      1   0.166801  -0.729843     3.17980e-01     3.17088e-01
      3595       3615      1   0.166801  -0.729843     3.17980e-01     3.17088e-01
      3595       3602      1   0.166801  -0.282478     3.39967e-01     2.28865e-01
      3595       3606      1   0.166801  -0.282478     3.39967e-01     2.28865e-01
      3595       3610      1   0.166801  -0.282478     3.39967e-01     2.28865e-01
      3594       3601      1  -0.508176   0.204385     3.12501e-01     3.55640e-01
      3593       3598      1   1.339721  -0.142353     3.57072e-01     3.09446e-01
      3592       3616      1  -0.509480  -0.460790     3.00001e-01     3.55640e-01
      3592       3595      1  -0.509480   0.139001     3.19984e-01     2.85295e-01
      3589       3617      1   0.017459   0.748011     3.39967e-01     2.02918e-01
      3589       3594      1   0.017459  -0.423480     3.19984e-01     2.85295e-01
      3589       3614      1   0.017459  -0.729843     3.17980e-01     3.17088e-01
      3589       3615      1   0.017459  -0.729843     3.17980e-01     3.17088e-01
      3587       3593      1   0.281242   1.116434     3.57072e-01     3.09446e-01
      3587       3618      1   0.281242  -0.561462     3.17980e-01     3.17088e-01
      3587       3656      1   0.281242  -0.136833     3.39967e-01     2.28865e-01
      3584       3592      1   0.196939  -0.424567     3.19984e-01     2.85295e-01
      3584       3617      1   0.196939   0.748011     3.39967e-01     2.02918e-01
      3583       3589      1  -0.575489   0.014549     3.19984e-01     2.85295e-01
      3583       3616      1  -0.575489  -0.460790     3.00001e-01     3.55640e-01
      3582       3584      1  -0.671566   0.164116     3.17980e-01     3.17088e-01
      3581       3587      1   0.910403   0.234368     3.39967e-01     2.02918e-01
      3647       3656      1  -0.016521  -0.136833     3.39967e-01     7.62883e-02
      3644       3653      1  -0.027812  -0.002029     3.39967e-01     7.62883e-02
      3641       3650      1  -0.004386  -0.022462     3.39967e-01     7.62883e-02
      3638       3647      1  -0.026451  -0.013767     3.39967e-01     7.62883e-02
      3635       3644      1  -0.014653  -0.023177     3.39967e-01     7.62883e-02
      3632       3641      1  -0.021025  -0.003655     3.39967e-01     7.62883e-02
      3629       3638      1  -0.031787  -0.022042     3.39967e-01     7.62883e-02
      3626       3635      1  -0.028094  -0.012211     3.39967e-01     7.62883e-02
      3623       3632      1   0.017463  -0.017521     3.39967e-01     7.62883e-02
      3620       3629      1  -0.111712  -0.026489     3.39967e-01     7.62883e-02
      3696       3702      1  -0.164200   0.164116     3.39967e-01     2.28865e-01
      3693       3700      1  -0.002435  -0.559638     3.17980e-01     3.17088e-01
      3693       3701      1  -0.002435  -0.479574     3.19984e-01     2.85295e-01
      3690       3699      1  -0.026954   0.758669     3.39967e-01     2.02918e-01
      3687       3696      1  -0.016521  -0.136833     3.39967e-01     7.62883e-02
      3684       3693      1  -0.027812  -0.002029     3.39967e-01     7.62883e-02
      3681       3690      1  -0.004386  -0.022462     3.39967e-01     7.62883e-02
      3678       3687      1  -0.026451  -0.013767     3.39967e-01     7.62883e-02
      3675       3684      1  -0.014653  -0.023177     3.39967e-01     7.62883e-02
      3672       3681      1  -0.021025  -0.003655     3.39967e-01     7.62883e-02
      3669       3678      1  -0.031787  -0.022042     3.39967e-01     7.62883e-02
      3666       3675      1  -0.028094  -0.012211     3.39967e-01     7.62883e-02
      3663       3672      1   0.017463  -0.017521     3.39967e-01     7.62883e-02
      3660       3669      1  -0.111712  -0.026489     3.39967e-01     7.62883e-02
      3736       3771      1  -0.673755  -0.002029     3.17980e-01     3.17088e-01
      3735       3768      1   0.897613  -0.022462     3.39967e-01     2.02918e-01
      3734       3771      1  -0.552948  -0.002029     3.19984e-01     2.85295e-01
      3713       3732      1   0.166801  -0.729843     3.17980e-01     3.17088e-01
      3713       3733      1   0.166801  -0.729843     3.17980e-01     3.17088e-01
      3713       3720      1   0.166801  -0.282478     3.39967e-01     2.28865e-01
      3713       3724      1   0.166801  -0.282478     3.39967e-01     2.28865e-01
      3713       3728      1   0.166801  -0.282478     3.39967e-01     2.28865e-01
      3712       3719      1  -0.508176   0.204385     3.12501e-01     3.55640e-01
      3711       3716      1   1.339721  -0.142353     3.57072e-01     3.09446e-01
      3710       3734      1  -0.509480  -0.460790     3.00001e-01     3.55640e-01
      3710       3713      1  -0.509480   0.139001     3.19984e-01     2.85295e-01
      3707       3735      1   0.017459   0.748011     3.39967e-01     2.02918e-01
      3707       3712      1   0.017459  -0.423480     3.19984e-01     2.85295e-01
      3707       3732      1   0.017459  -0.729843     3.17980e-01     3.17088e-01
      3707       3733      1   0.017459  -0.729843     3.17980e-01     3.17088e-01
      3705       3711      1   0.281242   1.116434     3.57072e-01     3.09446e-01
      3705       3736      1   0.281242  -0.561462     3.17980e-01     3.17088e-01
      3705       3774      1   0.281242  -0.136833     3.39967e-01     2.28865e-01
      3702       3710      1   0.196939  -0.424567     3.19984e-01     2.85295e-01
      3702       3735      1   0.196939   0.748011     3.39967e-01     2.02918e-01
      3701       3707      1  -0.575489   0.014549     3.19984e-01     2.85295e-01
      3701       3734      1  -0.575489  -0.460790     3.00001e-01     3.55640e-01
      3700       3702      1  -0.671566   0.164116     3.17980e-01     3.17088e-01
      3699       3705      1   0.910403   0.234368     3.39967e-01     2.02918e-01
      3765       3774      1  -0.016521  -0.136833     3.39967e-01     7.62883e-02
      3762       3771      1  -0.027812  -0.002029     3.39967e-01     7.62883e-02
      3759       3768      1  -0.004386  -0.022462     3.39967e-01     7.62883e-02
      3756       3765      1  -0.026451  -0.013767     3.39967e-01     7.62883e-02
      3753       3762      1  -0.014653  -0.023177     3.39967e-01     7.62883e-02
      3750       3759      1  -0.021025  -0.003655     3.39967e-01     7.62883e-02
      3747       3756      1  -0.031787  -0.022042     3.39967e-01     7.62883e-02
      3744       3753      1  -0.028094  -0.012211     3.39967e-01     7.62883e-02
      3741       3750      1   0.017463  -0.017521     3.39967e-01     7.62883e-02
      3738       3747      1  -0.111712  -0.026489     3.39967e-01     7.62883e-02
      3814       3820      1  -0.164200   0.164116     3.39967e-01     2.28865e-01
      3811       3818      1  -0.002435  -0.559638     3.17980e-01     3.17088e-01
      3811       3819      1  -0.002435  -0.479574     3.19984e-01     2.85295e-01
      3808       3817      1  -0.026954   0.758669     3.39967e-01     2.02918e-01
      3805       3814      1  -0.016521  -0.136833     3.39967e-01     7.62883e-02
      3802       3811      1  -0.027812  -0.002029     3.39967e-01     7.62883e-02
      3799       3808      1  -0.004386  -0.022462     3.39967e-01     7.62883e-02
      3796       3805      1  -0.026451  -0.013767     3.39967e-01     7.62883e-02
      3793       3802      1  -0.014653  -0.023177     3.39967e-01     7.62883e-02
      3790       3799      1  -0.021025  -0.003655     3.39967e-01     7.62883e-02
      3787       3796      1  -0.031787  -0.022042     3.39967e-01     7.62883e-02
      3784       3793      1  -0.028094  -0.012211     3.39967e-01     7.62883e-02
      3781       3790      1   0.017463  -0.017521     3.39967e-01     7.62883e-02
      3778       3787      1  -0.111712  -0.026489     3.39967e-01     7.62883e-02
      3854       3889      1  -0.673755  -0.002029     3.17980e-01     3.17088e-01
      3853       3886      1   0.897613  -0.022462     3.39967e-01     2.02918e-01
      3852       3889      1  -0.552948  -0.002029     3.19984e-01     2.85295e-01
      3831       3850      1   0.166801  -0.729843     3.17980e-01     3.17088e-01
      3831       3851      1   0.166801  -0.729843     3.17980e-01     3.17088e-01
      3831       3838      1   0.166801  -0.282478     3.39967e-01     2.28865e-01
      3831       3842      1   0.166801  -0.282478     3.39967e-01     2.28865e-01
      3831       3846      1   0.166801  -0.282478     3.39967e-01     2.28865e-01
      3830       3837      1  -0.508176   0.204385     3.12501e-01     3.55640e-01
      3829       3834      1   1.339721  -0.142353     3.57072e-01     3.09446e-01
      3828       3852      1  -0.509480  -0.460790     3.00001e-01     3.55640e-01
      3828       3831      1  -0.509480   0.139001     3.19984e-01     2.85295e-01
      3825       3853      1   0.017459   0.748011     3.39967e-01     2.02918e-01
      3825       3830      1   0.017459  -0.423480     3.19984e-01     2.85295e-01
      3825       3850      1   0.017459  -0.729843     3.17980e-01     3.17088e-01
      3825       3851      1   0.017459  -0.729843     3.17980e-01     3.17088e-01
      3823       3829      1   0.281242   1.116434     3.57072e-01     3.09446e-01
      3823       3854      1   0.281242  -0.561462     3.17980e-01     3.17088e-01
      3823       3892      1   0.281242  -0.136833     3.39967e-01     2.28865e-01
      3820       3828      1   0.196939  -0.424567     3.19984e-01     2.85295e-01
      3820       3853      1   0.196939   0.748011     3.39967e-01     2.02918e-01
      3819       3825      1  -0.575489   0.014549     3.19984e-01     2.85295e-01
      3819       3852      1  -0.575489  -0.460790     3.00001e-01     3.55640e-01
      3818       3820      1  -0.671566   0.164116     3.17980e-01     3.17088e-01
      3817       3823      1   0.910403   0.234368     3.39967e-01     2.02918e-01
      3883       3892      1  -0.016521  -0.136833     3.39967e-01     7.62883e-02
      3880       3889      1  -0.027812  -0.002029     3.39967e-01     7.62883e-02
      3877       3886      1  -0.004386  -0.022462     3.39967e-01     7.62883e-02
      3874       3883      1  -0.026451  -0.013767     3.39967e-01     7.62883e-02
      3871       3880      1  -0.014653  -0.023177     3.39967e-01     7.62883e-02
      3868       3877      1  -0.021025  -0.003655     3.39967e-01     7.62883e-02
      3865       3874      1  -0.031787  -0.022042     3.39967e-01     7.62883e-02
      3862       3871      1  -0.028094  -0.012211     3.39967e-01     7.62883e-02
      3859       3868      1   0.017463  -0.017521     3.39967e-01     7.62883e-02
      3856       3865      1  -0.111712  -0.026489     3.39967e-01     7.62883e-02
      3932       3938      1  -0.164200   0.164116     3.39967e-01     2.28865e-01
      3929       3936      1  -0.002435  -0.559638     3.17980e-01     3.17088e-01
      3929       3937      1  -0.002435  -0.479574     3.19984e-01     2.85295e-01
      3926       3935      1  -0.026954   0.758669     3.39967e-01     2.02918e-01
      3923       3932      1  -0.016521  -0.136833     3.39967e-01     7.62883e-02
      3920       3929      1  -0.027812  -0.002029     3.39967e-01     7.62883e-02
      3917       3926      1  -0.004386  -0.022462     3.39967e-01     7.62883e-02
      3914       3923      1  -0.026451  -0.013767     3.39967e-01     7.62883e-02
      3911       3920      1  -0.014653  -0.023177     3.39967e-01     7.62883e-02
      3908       3917      1  -0.021025  -0.003655     3.39967e-01     7.62883e-02
      3905       3914      1  -0.031787  -0.022042     3.39967e-01     7.62883e-02
      3902       3911      1  -0.028094  -0.012211     3.39967e-01     7.62883e-02
      3899       3908      1   0.017463  -0.017521     3.39967e-01     7.62883e-02
      3896       3905      1  -0.111712  -0.026489     3.39967e-01     7.62883e-02
      3972       4007      1  -0.673755  -0.002029     3.17980e-01     3.17088e-01
      3971       4004      1   0.897613  -0.022462     3.39967e-01     2.02918e-01
      3970       4007      1  -0.552948  -0.002029     3.19984e-01     2.85295e-01
      3949       3968      1   0.166801  -0.729843     3.17980e-01     3.17088e-01
      3949       3969      1   0.166801  -0.729843     3.17980e-01     3.17088e-01
      3949       3956      1   0.166801  -0.282478     3.39967e-01     2.28865e-01
      3949       3960      1   0.166801  -0.282478     3.39967e-01     2.28865e-01
      3949       3964      1   0.166801  -0.282478     3.39967e-01     2.28865e-01
      3948       3955      1  -0.508176   0.204385     3.12501e-01     3.55640e-01
      3947       3952      1   1.339721  -0.142353     3.57072e-01     3.09446e-01
      3946       3970      1  -0.509480  -0.460790     3.00001e-01     3.55640e-01
      3946       3949      1  -0.509480   0.139001     3.19984e-01     2.85295e-01
      3943       3971      1   0.017459   0.748011     3.39967e-01     2.02918e-01
      3943       3948      1   0.017459  -0.423480     3.19984e-01     2.85295e-01
      3943       3968      1   0.017459  -0.729843     3.17980e-01     3.17088e-01
      3943       3969      1   0.017459  -0.729843     3.17980e-01     3.17088e-01
      3941       3947      1   0.281242   1.116434     3.57072e-01     3.09446e-01
      3941       3972      1   0.281242  -0.561462     3.17980e-01     3.17088e-01
      3941       4010      1   0.281242  -0.136833     3.39967e-01     2.28865e-01
      3938       3946      1   0.196939  -0.424567     3.19984e-01     2.85295e-01
      3938       3971      1   0.196939   0.748011     3.39967e-01     2.02918e-01
      3937       3943      1  -0.575489   0.014549     3.19984e-01     2.85295e-01
      3937       3970      1  -0.575489  -0.460790     3.00001e-01     3.55640e-01
      3936       3938      1  -0.671566   0.164116     3.17980e-01     3.17088e-01
      3935       3941      1   0.910403   0.234368     3.39967e-01     2.02918e-01
      4001       4010      1  -0.016521  -0.136833     3.39967e-01     7.62883e-02
      3998       4007      1  -0.027812  -0.002029     3.39967e-01     7.62883e-02
      3995       4004      1  -0.004386  -0.022462     3.39967e-01     7.62883e-02
      3992       4001      1  -0.026451  -0.013767     3.39967e-01     7.62883e-02
      3989       3998      1  -0.014653  -0.023177     3.39967e-01     7.62883e-02
      3986       3995      1  -0.021025  -0.003655     3.39967e-01     7.62883e-02
      3983       3992      1  -0.031787  -0.022042     3.39967e-01     7.62883e-02
      3980       3989      1  -0.028094  -0.012211     3.39967e-01     7.62883e-02
      3977       3986      1   0.017463  -0.017521     3.39967e-01     7.62883e-02
      3974       3983      1  -0.111712  -0.026489     3.39967e-01     7.62883e-02
      4050       4056      1  -0.164200   0.164116     3.39967e-01     2.28865e-01
      4047       4054      1  -0.002435  -0.559638     3.17980e-01     3.17088e-01
      4047       4055      1  -0.002435  -0.479574     3.19984e-01     2.85295e-01
      4044       4053      1  -0.026954   0.758669     3.39967e-01     2.02918e-01
      4041       4050      1  -0.016521  -0.136833     3.39967e-01     7.62883e-02
      4038       4047      1  -0.027812  -0.002029     3.39967e-01     7.62883e-02
      4035       4044      1  -0.004386  -0.022462     3.39967e-01     7.62883e-02
      4032       4041      1  -0.026451  -0.013767     3.39967e-01     7.62883e-02
      4029       4038      1  -0.014653  -0.023177     3.39967e-01     7.62883e-02
      4026       4035      1  -0.021025  -0.003655     3.39967e-01     7.62883e-02
      4023       4032      1  -0.031787  -0.022042     3.39967e-01     7.62883e-02
      4020       4029      1  -0.028094  -0.012211     3.39967e-01     7.62883e-02
      4017       4026      1   0.017463  -0.017521     3.39967e-01     7.62883e-02
      4014       4023      1  -0.111712  -0.026489     3.39967e-01     7.62883e-02
      4090       4125      1  -0.673755  -0.002029     3.17980e-01     3.17088e-01
      4089       4122      1   0.897613  -0.022462     3.39967e-01     2.02918e-01
      4088       4125      1  -0.552948  -0.002029     3.19984e-01     2.85295e-01
      4067       4086      1   0.166801  -0.729843     3.17980e-01     3.17088e-01
      4067       4087      1   0.166801  -0.729843     3.17980e-01     3.17088e-01
      4067       4074      1   0.166801  -0.282478     3.39967e-01     2.28865e-01
      4067       4078      1   0.166801  -0.282478     3.39967e-01     2.28865e-01
      4067       4082      1   0.166801  -0.282478     3.39967e-01     2.28865e-01
      4066       4073      1  -0.508176   0.204385     3.12501e-01     3.55640e-01
      4065       4070      1   1.339721  -0.142353     3.57072e-01     3.09446e-01
      4064       4088      1  -0.509480  -0.460790     3.00001e-01     3.55640e-01
      4064       4067      1  -0.509480   0.139001     3.19984e-01     2.85295e-01
      4061       4089      1   0.017459   0.748011     3.39967e-01     2.02918e-01
      4061       4066      1   0.017459  -0.423480     3.19984e-01     2.85295e-01
      4061       4086      1   0.017459  -0.729843     3.17980e-01     3.17088e-01
      4061       4087      1   0.017459  -0.729843     3.17980e-01     3.17088e-01
      4059       4065      1   0.281242   1.116434     3.57072e-01     3.09446e-01
      4059       4090      1   0.281242  -0.561462     3.17980e-01     3.17088e-01
      4059       4128      1   0.281242  -0.136833     3.39967e-01     2.28865e-01
      4056       4064      1   0.196939  -0.424567     3.19984e-01     2.85295e-01
      4056       4089      1   0.196939   0.748011     3.39967e-01     2.02918e-01
      4055       4061      1  -0.575489   0.014549     3.19984e-01     2.85295e-01
      4055       4088      1  -0.575489  -0.460790     3.00001e-01     3.55640e-01
      4054       4056      1  -0.671566   0.164116     3.17980e-01     3.17088e-01
      4053       4059      1   0.910403   0.234368     3.39967e-01     2.02918e-01
      4119       4128      1  -0.016521  -0.136833     3.39967e-01     7.62883e-02
      4116       4125      1  -0.027812  -0.002029     3.39967e-01     7.62883e-02
      4113       4122      1  -0.004386  -0.022462     3.39967e-01     7.62883e-02
      4110       4119      1  -0.026451  -0.013767     3.39967e-01     7.62883e-02
      4107       4116      1  -0.014653  -0.023177     3.39967e-01     7.62883e-02
      4104       4113      1  -0.021025  -0.003655     3.39967e-01     7.62883e-02
      4101       4110      1  -0.031787  -0.022042     3.39967e-01     7.62883e-02
      4098       4107      1  -0.028094  -0.012211     3.39967e-01     7.62883e-02
      4095       4104      1   0.017463  -0.017521     3.39967e-01     7.62883e-02
      4092       4101      1  -0.111712  -0.026489     3.39967e-01     7.62883e-02
      4168       4174      1  -0.164200   0.164116     3.39967e-01     2.28865e-01
      4165       4172      1  -0.002435  -0.559638     3.17980e-01     3.17088e-01
      4165       4173      1  -0.002435  -0.479574     3.19984e-01     2.85295e-01
      4162       4171      1  -0.026954   0.758669     3.39967e-01     2.02918e-01
      4159       4168      1  -0.016521  -0.136833     3.39967e-01     7.62883e-02
      4156       4165      1  -0.027812  -0.002029     3.39967e-01     7.62883e-02
      4153       4162      1  -0.004386  -0.022462     3.39967e-01     7.62883e-02
      4150       4159      1  -0.026451  -0.013767     3.39967e-01     7.62883e-02
      4147       4156      1  -0.014653  -0.023177     3.39967e-01     7.62883e-02
      4144       4153      1  -0.021025  -0.003655     3.39967e-01     7.62883e-02
      4141       4150      1  -0.031787  -0.022042     3.39967e-01     7.62883e-02
      4138       4147      1  -0.028094  -0.012211     3.39967e-01     7.62883e-02
      4135       4144      1   0.017463  -0.017521     3.39967e-01     7.62883e-02
      4132       4141      1  -0.111712  -0.026489     3.39967e-01     7.62883e-02
      4208       4243      1  -0.673755  -0.002029     3.17980e-01     3.17088e-01
      4207       4240      1   0.897613  -0.022462     3.39967e-01     2.02918e-01
      4206       4243      1  -0.552948  -0.002029     3.19984e-01     2.85295e-01
      4185       4204      1   0.166801  -0.729843     3.17980e-01     3.17088e-01
      4185       4205      1   0.166801  -0.729843     3.17980e-01     3.17088e-01
      4185       4192      1   0.166801  -0.282478     3.39967e-01     2.28865e-01
      4185       4196      1   0.166801  -0.282478     3.39967e-01     2.28865e-01
      4185       4200      1   0.166801  -0.282478     3.39967e-01     2.28865e-01
      4184       4191      1  -0.508176   0.204385     3.12501e-01     3.55640e-01
      4183       4188      1   1.339721  -0.142353     3.57072e-01     3.09446e-01
      4182       4206      1  -0.509480  -0.460790     3.00001e-01     3.55640e-01
      4182       4185      1  -0.509480   0.139001     3.19984e-01     2.85295e-01
      4179       4207      1   0.017459   0.748011     3.39967e-01     2.02918e-01
      4179       4184      1   0.017459  -0.423480     3.19984e-01     2.85295e-01
      4179       4204      1   0.017459  -0.729843     3.17980e-01     3.17088e-01
      4179       4205      1   0.017459  -0.729843     3.17980e-01     3.17088e-01
      4177       4183      1   0.281242   1.116434     3.57072e-01     3.09446e-01
      4177       4208      1   0.281242  -0.561462     3.17980e-01     3.17088e-01
      4177       4246      1   0.281242  -0.136833     3.39967e-01     2.28865e-01
      4174       4182      1   0.196939  -0.424567     3.19984e-01     2.85295e-01
      4174       4207      1   0.196939   0.748011     3.39967e-01     2.02918e-01
      4173       4179      1  -0.575489   0.014549     3.19984e-01     2.85295e-01
      4173       4206      1  -0.575489  -0.460790     3.00001e-01     3.55640e-01
      4172       4174      1  -0.671566   0.164116     3.17980e-01     3.17088e-01
      4171       4177      1   0.910403   0.234368     3.39967e-01     2.02918e-01
      4237       4246      1  -0.016521  -0.136833     3.39967e-01     7.62883e-02
      4234       4243      1  -0.027812  -0.002029     3.39967e-01     7.62883e-02
      4231       4240      1  -0.004386  -0.022462     3.39967e-01     7.62883e-02
      4228       4237      1  -0.026451  -0.013767     3.39967e-01     7.62883e-02
      4225       4234      1  -0.014653  -0.023177     3.39967e-01     7.62883e-02
      4222       4231      1  -0.021025  -0.003655     3.39967e-01     7.62883e-02
      4219       4228      1  -0.031787  -0.022042     3.39967e-01     7.62883e-02
      4216       4225      1  -0.028094  -0.012211     3.39967e-01     7.62883e-02
      4213       4222      1   0.017463  -0.017521     3.39967e-01     7.62883e-02
      4210       4219      1  -0.111712  -0.026489     3.39967e-01     7.62883e-02
      4286       4292      1  -0.164200   0.164116     3.39967e-01     2.28865e-01
      4283       4290      1  -0.002435  -0.559638     3.17980e-01     3.17088e-01
      4283       4291      1  -0.002435  -0.479574     3.19984e-01     2.85295e-01
      4280       4289      1  -0.026954   0.758669     3.39967e-01     2.02918e-01
      4277       4286      1  -0.016521  -0.136833     3.39967e-01     7.62883e-02
      4274       4283      1  -0.027812  -0.002029     3.39967e-01     7.62883e-02
      4271       4280      1  -0.004386  -0.022462     3.39967e-01     7.62883e-02
      4268       4277      1  -0.026451  -0.013767     3.39967e-01     7.62883e-02
      4265       4274      1  -0.014653  -0.023177     3.39967e-01     7.62883e-02
      4262       4271      1  -0.021025  -0.003655     3.39967e-01     7.62883e-02
      4259       4268      1  -0.031787  -0.022042     3.39967e-01     7.62883e-02
      4256       4265      1  -0.028094  -0.012211     3.39967e-01     7.62883e-02
      4253       4262      1   0.017463  -0.017521     3.39967e-01     7.62883e-02
      4250       4259      1  -0.111712  -0.026489     3.39967e-01     7.62883e-02
      4326       4361      1  -0.673755  -0.002029     3.17980e-01     3.17088e-01
      4325       4358      1   0.897613  -0.022462     3.39967e-01     2.02918e-01
      4324       4361      1  -0.552948  -0.002029     3.19984e-01     2.85295e-01
      4303       4322      1   0.166801  -0.729843     3.17980e-01     3.17088e-01
      4303       4323      1   0.166801  -0.729843     3.17980e-01     3.17088e-01
      4303       4310      1   0.166801  -0.282478     3.39967e-01     2.28865e-01
      4303       4314      1   0.166801  -0.282478     3.39967e-01     2.28865e-01
      4303       4318      1   0.166801  -0.282478     3.39967e-01     2.28865e-01
      4302       4309      1  -0.508176   0.204385     3.12501e-01     3.55640e-01
      4301       4306      1   1.339721  -0.142353     3.57072e-01     3.09446e-01
      4300       4324      1  -0.509480  -0.460790     3.00001e-01     3.55640e-01
      4300       4303      1  -0.509480   0.139001     3.19984e-01     2.85295e-01
      4297       4325      1   0.017459   0.748011     3.39967e-01     2.02918e-01
      4297       4302      1   0.017459  -0.423480     3.19984e-01     2.85295e-01
      4297       4322      1   0.017459  -0.729843     3.17980e-01     3.17088e-01
      4297       4323      1   0.017459  -0.729843     3.17980e-01     3.17088e-01
      4295       4301      1   0.281242   1.116434     3.57072e-01     3.09446e-01
      4295       4326      1   0.281242  -0.561462     3.17980e-01     3.17088e-01
      4295       4364      1   0.281242  -0.136833     3.39967e-01     2.28865e-01
      4292       4300      1   0.196939  -0.424567     3.19984e-01     2.85295e-01
      4292       4325      1   0.196939   0.748011     3.39967e-01     2.02918e-01
      4291       4297      1  -0.575489   0.014549     3.19984e-01     2.85295e-01
      4291       4324      1  -0.575489  -0.460790     3.00001e-01     3.55640e-01
      4290       4292      1  -0.671566   0.164116     3.17980e-01     3.17088e-01
      4289       4295      1   0.910403   0.234368     3.39967e-01     2.02918e-01
      4355       4364      1  -0.016521  -0.136833     3.39967e-01     7.62883e-02
      4352       4361      1  -0.027812  -0.002029     3.39967e-01     7.62883e-02
      4349       4358      1  -0.004386  -0.022462     3.39967e-01     7.62883e-02
      4346       4355      1  -0.026451  -0.013767     3.39967e-01     7.62883e-02
      4343       4352      1  -0.014653  -0.023177     3.39967e-01     7.62883e-02
      4340       4349      1  -0.021025  -0.003655     3.39967e-01     7.62883e-02
      4337       4346      1  -0.031787  -0.022042     3.39967e-01     7.62883e-02
      4334       4343      1  -0.028094  -0.012211     3.39967e-01     7.62883e-02
      4331       4340      1   0.017463  -0.017521     3.39967e-01     7.62883e-02
      4328       4337      1  -0.111712  -0.026489     3.39967e-01     7.62883e-02
      4404       4410      1  -0.164200   0.164116     3.39967e-01     2.28865e-01
      4401       4408      1  -0.002435  -0.559638     3.17980e-01     3.17088e-01
      4401       4409      1  -0.002435  -0.479574     3.19984e-01     2.85295e-01
      4398       4407      1  -0.026954   0.758669     3.39967e-01     2.02918e-01
      4395       4404      1  -0.016521  -0.136833     3.39967e-01     7.62883e-02
      4392       4401      1  -0.027812  -0.002029     3.39967e-01     7.62883e-02
      4389       4398      1  -0.004386  -0.022462     3.39967e-01     7.62883e-02
      4386       4395      1  -0.026451  -0.013767     3.39967e-01     7.62883e-02
      4383       4392      1  -0.014653  -0.023177     3.39967e-01     7.62883e-02
      4380       4389      1  -0.021025  -0.003655     3.39967e-01     7.62883e-02
      4377       4386      1  -0.031787  -0.022042     3.39967e-01     7.62883e-02
      4374       4383      1  -0.028094  -0.012211     3.39967e-01     7.62883e-02
      4371       4380      1   0.017463  -0.017521     3.39967e-01     7.62883e-02
      4368       4377      1  -0.111712  -0.026489     3.39967e-01     7.62883e-02
      4444       4479      1  -0.673755  -0.002029     3.17980e-01     3.17088e-01
      4443       4476      1   0.897613  -0.022462     3.39967e-01     2.02918e-01
      4442       4479      1  -0.552948  -0.002029     3.19984e-01     2.85295e-01
      4421       4440      1   0.166801  -0.729843     3.17980e-01     3.17088e-01
      4421       4441      1   0.166801  -0.729843     3.17980e-01     3.17088e-01
      4421       4428      1   0.166801  -0.282478     3.39967e-01     2.28865e-01
      4421       4432      1   0.166801  -0.282478     3.39967e-01     2.28865e-01
      4421       4436      1   0.166801  -0.282478     3.39967e-01     2.28865e-01
      4420       4427      1  -0.508176   0.204385     3.12501e-01     3.55640e-01
      4419       4424      1   1.339721  -0.142353     3.57072e-01     3.09446e-01
      4418       4442      1  -0.509480  -0.460790     3.00001e-01     3.55640e-01
      4418       4421      1  -0.509480   0.139001     3.19984e-01     2.85295e-01
      4415       4443      1   0.017459   0.748011     3.39967e-01     2.02918e-01
      4415       4420      1   0.017459  -0.423480     3.19984e-01     2.85295e-01
      4415       4440      1   0.017459  -0.729843     3.17980e-01     3.17088e-01
      4415       4441      1   0.017459  -0.729843     3.17980e-01     3.17088e-01
      4413       4419      1   0.281242   1.116434     3.57072e-01     3.09446e-01
      4413       4444      1   0.281242  -0.561462     3.17980e-01     3.17088e-01
      4413       4482      1   0.281242  -0.136833     3.39967e-01     2.28865e-01
      4410       4418      1   0.196939  -0.424567     3.19984e-01     2.85295e-01
      4410       4443      1   0.196939   0.748011     3.39967e-01     2.02918e-01
      4409       4415      1  -0.575489   0.014549     3.19984e-01     2.85295e-01
      4409       4442      1  -0.575489  -0.460790     3.00001e-01     3.55640e-01
      4408       4410      1  -0.671566   0.164116     3.17980e-01     3.17088e-01
      4407       4413      1   0.910403   0.234368     3.39967e-01     2.02918e-01
      4473       4482      1  -0.016521  -0.136833     3.39967e-01     7.62883e-02
      4470       4479      1  -0.027812  -0.002029     3.39967e-01     7.62883e-02
      4467       4476      1  -0.004386  -0.022462     3.39967e-01     7.62883e-02
      4464       4473      1  -0.026451  -0.013767     3.39967e-01     7.62883e-02
      4461       4470      1  -0.014653  -0.023177     3.39967e-01     7.62883e-02
      4458       4467      1  -0.021025  -0.003655     3.39967e-01     7.62883e-02
      4455       4464      1  -0.031787  -0.022042     3.39967e-01     7.62883e-02
      4452       4461      1  -0.028094  -0.012211     3.39967e-01     7.62883e-02
      4449       4458      1   0.017463  -0.017521     3.39967e-01     7.62883e-02
      4446       4455      1  -0.111712  -0.026489     3.39967e-01     7.62883e-02
      4522       4528      1  -0.164200   0.164116     3.39967e-01     2.28865e-01
      4519       4526      1  -0.002435  -0.559638     3.17980e-01     3.17088e-01
      4519       4527      1  -0.002435  -0.479574     3.19984e-01     2.85295e-01
      4516       4525      1  -0.026954   0.758669     3.39967e-01     2.02918e-01
      4513       4522      1  -0.016521  -0.136833     3.39967e-01     7.62883e-02
      4510       4519      1  -0.027812  -0.002029     3.39967e-01     7.62883e-02
      4507       4516      1  -0.004386  -0.022462     3.39967e-01     7.62883e-02
      4504       4513      1  -0.026451  -0.013767     3.39967e-01     7.62883e-02
      4501       4510      1  -0.014653  -0.023177     3.39967e-01     7.62883e-02
      4498       4507      1  -0.021025  -0.003655     3.39967e-01     7.62883e-02
      4495       4504      1  -0.031787  -0.022042     3.39967e-01     7.62883e-02
      4492       4501      1  -0.028094  -0.012211     3.39967e-01     7.62883e-02
      4489       4498      1   0.017463  -0.017521     3.39967e-01     7.62883e-02
      4486       4495      1  -0.111712  -0.026489     3.39967e-01     7.62883e-02
      4562       4597      1  -0.673755  -0.002029     3.17980e-01     3.17088e-01
      4561       4594      1   0.897613  -0.022462     3.39967e-01     2.02918e-01
      4560       4597      1  -0.552948  -0.002029     3.19984e-01     2.85295e-01
      4539       4558      1   0.166801  -0.729843     3.17980e-01     3.17088e-01
      4539       4559      1   0.166801  -0.729843     3.17980e-01     3.17088e-01
      4539       4546      1   0.166801  -0.282478     3.39967e-01     2.28865e-01
      4539       4550      1   0.166801  -0.282478     3.39967e-01     2.28865e-01
      4539       4554      1   0.166801  -0.282478     3.39967e-01     2.28865e-01
      4538       4545      1  -0.508176   0.204385     3.12501e-01     3.55640e-01
      4537       4542      1   1.339721  -0.142353     3.57072e-01     3.09446e-01
      4536       4560      1  -0.509480  -0.460790     3.00001e-01     3.55640e-01
      4536       4539      1  -0.509480   0.139001     3.19984e-01     2.85295e-01
      4533       4561      1   0.017459   0.748011     3.39967e-01     2.02918e-01
      4533       4538      1   0.017459  -0.423480     3.19984e-01     2.85295e-01
      4533       4558      1   0.017459  -0.729843     3.17980e-01     3.17088e-01
      4533       4559      1   0.017459  -0.729843     3.17980e-01     3.17088e-01
      4531       4537      1   0.281242   1.116434     3.57072e-01     3.09446e-01
      4531       4562      1   0.281242  -0.561462     3.17980e-01     3.17088e-01
      4531       4600      1   0.281242  -0.136833     3.39967e-01     2.28865e-01
      4528       4536      1   0.196939  -0.424567     3.19984e-01     2.85295e-01
      4528       4561      1   0.196939   0.748011     3.39967e-01     2.02918e-01
      4527       4533      1  -0.575489   0.014549     3.19984e-01     2.85295e-01
      4527       4560      1  -0.575489  -0.460790     3.00001e-01     3.55640e-01
      4526       4528      1  -0.671566   0.164116     3.17980e-01     3.17088e-01
      4525       4531      1   0.910403   0.234368     3.39967e-01     2.02918e-01
      4591       4600      1  -0.016521  -0.136833     3.39967e-01     7.62883e-02
      4588       4597      1  -0.027812  -0.002029     3.39967e-01     7.62883e-02
      4585       4594      1  -0.004386  -0.022462     3.39967e-01     7.62883e-02
      4582       4591      1  -0.026451  -0.013767     3.39967e-01     7.62883e-02
      4579       4588      1  -0.014653  -0.023177     3.39967e-01     7.62883e-02
      4576       4585      1  -0.021025  -0.003655     3.39967e-01     7.62883e-02
      4573       4582      1  -0.031787  -0.022042     3.39967e-01     7.62883e-02
      4570       4579      1  -0.028094  -0.012211     3.39967e-01     7.62883e-02
      4567       4576      1   0.017463  -0.017521     3.39967e-01     7.62883e-02
      4564       4573      1  -0.111712  -0.026489     3.39967e-01     7.62883e-02
      4640       4646      1  -0.164200   0.164116     3.39967e-01     2.28865e-01
      4637       4644      1  -0.002435  -0.559638     3.17980e-01     3.17088e-01
      4637       4645      1  -0.002435  -0.479574     3.19984e-01     2.85295e-01
      4634       4643      1  -0.026954   0.758669     3.39967e-01     2.02918e-01
      4631       4640      1  -0.016521  -0.136833     3.39967e-01     7.62883e-02
      4628       4637      1  -0.027812  -0.002029     3.39967e-01     7.62883e-02
      4625       4634      1  -0.004386  -0.022462     3.39967e-01     7.62883e-02
      4622       4631      1  -0.026451  -0.013767     3.39967e-01     7.62883e-02
      4619       4628      1  -0.014653  -0.023177     3.39967e-01     7.62883e-02
      4616       4625      1  -0.021025  -0.003655     3.39967e-01     7.62883e-02
      4613       4622      1  -0.031787  -0.022042     3.39967e-01     7.62883e-02
      4610       4619      1  -0.028094  -0.012211     3.39967e-01     7.62883e-02
      4607       4616      1   0.017463  -0.017521     3.39967e-01     7.62883e-02
      4604       4613      1  -0.111712  -0.026489     3.39967e-01     7.62883e-02
      4680       4715      1  -0.673755  -0.002029     3.17980e-01     3.17088e-01
      4679       4712      1   0.897613  -0.022462     3.39967e-01     2.02918e-01
      4678       4715      1  -0.552948  -0.002029     3.19984e-01     2.85295e-01
      4657       4676      1   0.166801  -0.729843     3.17980e-01     3.17088e-01
      4657       4677      1   0.166801  -0.729843     3.17980e-01     3.17088e-01
      4657       4664      1   0.166801  -0.282478     3.39967e-01     2.28865e-01
      4657       4668      1   0.166801  -0.282478     3.39967e-01     2.28865e-01
      4657       4672      1   0.166801  -0.282478     3.39967e-01     2.28865e-01
      4656       4663      1  -0.508176   0.204385     3.12501e-01     3.55640e-01
      4655       4660      1   1.339721  -0.142353     3.57072e-01     3.09446e-01
      4654       4678      1  -0.509480  -0.460790     3.00001e-01     3.55640e-01
      4654       4657      1  -0.509480   0.139001     3.19984e-01     2.85295e-01
      4651       4679      1   0.017459   0.748011     3.39967e-01     2.02918e-01
      4651       4656      1   0.017459  -0.423480     3.19984e-01     2.85295e-01
      4651       4676      1   0.017459  -0.729843     3.17980e-01     3.17088e-01
      4651       4677      1   0.017459  -0.729843     3.17980e-01     3.17088e-01
      4649       4655      1   0.281242   1.116434     3.57072e-01     3.09446e-01
      4649       4680      1   0.281242  -0.561462     3.17980e-01     3.17088e-01
      4649       4718      1   0.281242  -0.136833     3.39967e-01     2.28865e-01
      4646       4654      1   0.196939  -0.424567     3.19984e-01     2.85295e-01
      4646       4679      1   0.196939   0.748011     3.39967e-01     2.02918e-01
      4645       4651      1  -0.575489   0.014549     3.19984e-01     2.85295e-01
      4645       4678      1  -0.575489  -0.460790     3.00001e-01     3.55640e-01
      4644       4646      1  -0.671566   0.164116     3.17980e-01     3.17088e-01
      4643       4649      1   0.910403   0.234368     3.39967e-01     2.02918e-01
      4709       4718      1  -0.016521  -0.136833     3.39967e-01     7.62883e-02
      4706       4715      1  -0.027812  -0.002029     3.39967e-01     7.62883e-02
      4703       4712      1  -0.004386  -0.022462     3.39967e-01     7.62883e-02
      4700       4709      1  -0.026451  -0.013767     3.39967e-01     7.62883e-02
      4697       4706      1  -0.014653  -0.023177     3.39967e-01     7.62883e-02
      4694       4703      1  -0.021025  -0.003655     3.39967e-01     7.62883e-02
      4691       4700      1  -0.031787  -0.022042     3.39967e-01     7.62883e-02
      4688       4697      1  -0.028094  -0.012211     3.39967e-01     7.62883e-02
      4685       4694      1   0.017463  -0.017521     3.39967e-01     7.62883e-02
      4682       4691      1  -0.111712  -0.026489     3.39967e-01     7.62883e-02
      4758       4764      1  -0.164200   0.164116     3.39967e-01     2.28865e-01
      4755       4762      1  -0.002435  -0.559638     3.17980e-01     3.17088e-01
      4755       4763      1  -0.002435  -0.479574     3.19984e-01     2.85295e-01
      4752       4761      1  -0.026954   0.758669     3.39967e-01     2.02918e-01
      4749       4758      1  -0.016521  -0.136833     3.39967e-01     7.62883e-02
      4746       4755      1  -0.027812  -0.002029     3.39967e-01     7.62883e-02
      4743       4752      1  -0.004386  -0.022462     3.39967e-01     7.62883e-02
      4740       4749      1  -0.026451  -0.013767     3.39967e-01     7.62883e-02
      4737       4746      1  -0.014653  -0.023177     3.39967e-01     7.62883e-02
      4734       4743      1  -0.021025  -0.003655     3.39967e-01     7.62883e-02
      4731       4740      1  -0.031787  -0.022042     3.39967e-01     7.62883e-02
      4728       4737      1  -0.028094  -0.012211     3.39967e-01     7.62883e-02
      4725       4734      1   0.017463  -0.017521     3.39967e-01     7.62883e-02
      4722       4731      1  -0.111712  -0.026489     3.39967e-01     7.62883e-02
      4798       4833      1  -0.673755  -0.002029     3.17980e-01     3.17088e-01
      4797       4830      1   0.897613  -0.022462     3.39967e-01     2.02918e-01
      4796       4833      1  -0.552948  -0.002029     3.19984e-01     2.85295e-01
      4775       4794      1   0.166801  -0.729843     3.17980e-01     3.17088e-01
      4775       4795      1   0.166801  -0.729843     3.17980e-01     3.17088e-01
      4775       4782      1   0.166801  -0.282478     3.39967e-01     2.28865e-01
      4775       4786      1   0.166801  -0.282478     3.39967e-01     2.28865e-01
      4775       4790      1   0.166801  -0.282478     3.39967e-01     2.28865e-01
      4774       4781      1  -0.508176   0.204385     3.12501e-01     3.55640e-01
      4773       4778      1   1.339721  -0.142353     3.57072e-01     3.09446e-01
      4772       4796      1  -0.509480  -0.460790     3.00001e-01     3.55640e-01
      4772       4775      1  -0.509480   0.139001     3.19984e-01     2.85295e-01
      4769       4797      1   0.017459   0.748011     3.39967e-01     2.02918e-01
      4769       4774      1   0.017459  -0.423480     3.19984e-01     2.85295e-01
      4769       4794      1   0.017459  -0.729843     3.17980e-01     3.17088e-01
      4769       4795      1   0.017459  -0.729843     3.17980e-01     3.17088e-01
      4767       4773      1   0.281242   1.116434     3.57072e-01     3.09446e-01
      4767       4798      1   0.281242  -0.561462     3.17980e-01     3.17088e-01
      4767       4836      1   0.281242  -0.136833     3.39967e-01     2.28865e-01
      4764       4772      1   0.196939  -0.424567     3.19984e-01     2.85295e-01
      4764       4797      1   0.196939   0.748011     3.39967e-01     2.02918e-01
      4763       4769      1  -0.575489   0.014549     3.19984e-01     2.85295e-01
      4763       4796      1  -0.575489  -0.460790     3.00001e-01     3.55640e-01
      4762       4764      1  -0.671566   0.164116     3.17980e-01     3.17088e-01
      4761       4767      1   0.910403   0.234368     3.39967e-01     2.02918e-01
      4827       4836      1  -0.016521  -0.136833     3.39967e-01     7.62883e-02
      4824       4833      1  -0.027812  -0.002029     3.39967e-01     7.62883e-02
      4821       4830      1  -0.004386  -0.022462     3.39967e-01     7.62883e-02
      4818       4827      1  -0.026451  -0.013767     3.39967e-01     7.62883e-02
      4815       4824      1  -0.014653  -0.023177     3.39967e-01     7.62883e-02
      4812       4821      1  -0.021025  -0.003655     3.39967e-01     7.62883e-02
      4809       4818      1  -0.031787  -0.022042     3.39967e-01     7.62883e-02
      4806       4815      1  -0.028094  -0.012211     3.39967e-01     7.62883e-02
      4803       4812      1   0.017463  -0.017521     3.39967e-01     7.62883e-02
      4800       4809      1  -0.111712  -0.026489     3.39967e-01     7.62883e-02
      4876       4882      1  -0.164200   0.164116     3.39967e-01     2.28865e-01
      4873       4880      1  -0.002435  -0.559638     3.17980e-01     3.17088e-01
      4873       4881      1  -0.002435  -0.479574     3.19984e-01     2.85295e-01
      4870       4879      1  -0.026954   0.758669     3.39967e-01     2.02918e-01
      4867       4876      1  -0.016521  -0.136833     3.39967e-01     7.62883e-02
      4864       4873      1  -0.027812  -0.002029     3.39967e-01     7.62883e-02
      4861       4870      1  -0.004386  -0.022462     3.39967e-01     7.62883e-02
      4858       4867      1  -0.026451  -0.013767     3.39967e-01     7.62883e-02
      4855       4864      1  -0.014653  -0.023177     3.39967e-01     7.62883e-02
      4852       4861      1  -0.021025  -0.003655     3.39967e-01     7.62883e-02
      4849       4858      1  -0.031787  -0.022042     3.39967e-01     7.62883e-02
      4846       4855      1  -0.028094  -0.012211     3.39967e-01     7.62883e-02
      4843       4852      1   0.017463  -0.017521     3.39967e-01     7.62883e-02
      4840       4849      1  -0.111712  -0.026489     3.39967e-01     7.62883e-02
      4916       4951      1  -0.673755  -0.002029     3.17980e-01     3.17088e-01
      4915       4948      1   0.897613  -0.022462     3.39967e-01     2.02918e-01
      4914       4951      1  -0.552948  -0.002029     3.19984e-01     2.85295e-01
      4893       4912      1   0.166801  -0.729843     3.17980e-01     3.17088e-01
      4893       4913      1   0.166801  -0.729843     3.17980e-01     3.17088e-01
      4893       4900      1   0.166801  -0.282478     3.39967e-01     2.28865e-01
      4893       4904      1   0.166801  -0.282478     3.39967e-01     2.28865e-01
      4893       4908      1   0.166801  -0.282478     3.39967e-01     2.28865e-01
      4892       4899      1  -0.508176   0.204385     3.12501e-01     3.55640e-01
      4891       4896      1   1.339721  -0.142353     3.57072e-01     3.09446e-01
      4890       4914      1  -0.509480  -0.460790     3.00001e-01     3.55640e-01
      4890       4893      1  -0.509480   0.139001     3.19984e-01     2.85295e-01
      4887       4915      1   0.017459   0.748011     3.39967e-01     2.02918e-01
      4887       4892      1   0.017459  -0.423480     3.19984e-01     2.85295e-01
      4887       4912      1   0.017459  -0.729843     3.17980e-01     3.17088e-01
      4887       4913      1   0.017459  -0.729843     3.17980e-01     3.17088e-01
      4885       4891      1   0.281242   1.116434     3.57072e-01     3.09446e-01
      4885       4916      1   0.281242  -0.561462     3.17980e-01     3.17088e-01
      4885       4954      1   0.281242  -0.136833     3.39967e-01     2.28865e-01
      4882       4890      1   0.196939  -0.424567     3.19984e-01     2.85295e-01
      4882       4915      1   0.196939   0.748011     3.39967e-01     2.02918e-01
      4881       4887      1  -0.575489   0.014549     3.19984e-01     2.85295e-01
      4881       4914      1  -0.575489  -0.460790     3.00001e-01     3.55640e-01
      4880       4882      1  -0.671566   0.164116     3.17980e-01     3.17088e-01
      4879       4885      1   0.910403   0.234368     3.39967e-01     2.02918e-01
      4945       4954      1  -0.016521  -0.136833     3.39967e-01     7.62883e-02
      4942       4951      1  -0.027812  -0.002029     3.39967e-01     7.62883e-02
      4939       4948      1  -0.004386  -0.022462     3.39967e-01     7.62883e-02
      4936       4945      1  -0.026451  -0.013767     3.39967e-01     7.62883e-02
      4933       4942      1  -0.014653  -0.023177     3.39967e-01     7.62883e-02
      4930       4939      1  -0.021025  -0.003655     3.39967e-01     7.62883e-02
      4927       4936      1  -0.031787  -0.022042     3.39967e-01     7.62883e-02
      4924       4933      1  -0.028094  -0.012211     3.39967e-01     7.62883e-02
      4921       4930      1   0.017463  -0.017521     3.39967e-01     7.62883e-02
      4918       4927      1  -0.111712  -0.026489     3.39967e-01     7.62883e-02
      4994       5000      1  -0.164200   0.164116     3.39967e-01     2.28865e-01
      4991       4998      1  -0.002435  -0.559638     3.17980e-01     3.17088e-01
      4991       4999      1  -0.002435  -0.479574     3.19984e-01     2.85295e-01
      4988       4997      1  -0.026954   0.758669     3.39967e-01     2.02918e-01
      4985       4994      1  -0.016521  -0.136833     3.39967e-01     7.62883e-02
      4982       4991      1  -0.027812  -0.002029     3.39967e-01     7.62883e-02
      4979       4988      1  -0.004386  -0.022462     3.39967e-01     7.62883e-02
      4976       4985      1  -0.026451  -0.013767     3.39967e-01     7.62883e-02
      4973       4982      1  -0.014653  -0.023177     3.39967e-01     7.62883e-02
      4970       4979      1  -0.021025  -0.003655     3.39967e-01     7.62883e-02
      4967       4976      1  -0.031787  -0.022042     3.39967e-01     7.62883e-02
      4964       4973      1  -0.028094  -0.012211     3.39967e-01     7.62883e-02
      4961       4970      1   0.017463  -0.017521     3.39967e-01     7.62883e-02
      4958       4967      1  -0.111712  -0.026489     3.39967e-01     7.62883e-02
      5034       5069      1  -0.673755  -0.002029     3.17980e-01     3.17088e-01
      5033       5066      1   0.897613  -0.022462     3.39967e-01     2.02918e-01
      5032       5069      1  -0.552948  -0.002029     3.19984e-01     2.85295e-01
      5011       5030      1   0.166801  -0.729843     3.17980e-01     3.17088e-01
      5011       5031      1   0.166801  -0.729843     3.17980e-01     3.17088e-01
      5011       5018      1   0.166801  -0.282478     3.39967e-01     2.28865e-01
      5011       5022      1   0.166801  -0.282478     3.39967e-01     2.28865e-01
      5011       5026      1   0.166801  -0.282478     3.39967e-01     2.28865e-01
      5010       5017      1  -0.508176   0.204385     3.12501e-01     3.55640e-01
      5009       5014      1   1.339721  -0.142353     3.57072e-01     3.09446e-01
      5008       5032      1  -0.509480  -0.460790     3.00001e-01     3.55640e-01
      5008       5011      1  -0.509480   0.139001     3.19984e-01     2.85295e-01
      5005       5033      1   0.017459   0.748011     3.39967e-01     2.02918e-01
      5005       5010      1   0.017459  -0.423480     3.19984e-01     2.85295e-01
      5005       5030      1   0.017459  -0.729843     3.17980e-01     3.17088e-01
      5005       5031      1   0.017459  -0.729843     3.17980e-01     3.17088e-01
      5003       5009      1   0.281242   1.116434     3.57072e-01     3.09446e-01
      5003       5034      1   0.281242  -0.561462     3.17980e-01     3.17088e-01
      5003       5072      1   0.281242  -0.136833     3.39967e-01     2.28865e-01
      5000       5008      1   0.196939  -0.424567     3.19984e-01     2.85295e-01
      5000       5033      1   0.196939   0.748011     3.39967e-01     2.02918e-01
      4999       5005      1  -0.575489   0.014549     3.19984e-01     2.85295e-01
      4999       5032      1  -0.575489  -0.460790     3.00001e-01     3.55640e-01
      4998       5000      1  -0.671566   0.164116     3.17980e-01     3.17088e-01
      4997       5003      1   0.910403   0.234368     3.39967e-01     2.02918e-01
      5063       5072      1  -0.016521  -0.136833     3.39967e-01     7.62883e-02
      5060       5069      1  -0.027812  -0.002029     3.39967e-01     7.62883e-02
      5057       5066      1  -0.004386  -0.022462     3.39967e-01     7.62883e-02
      5054       5063      1  -0.026451  -0.013767     3.39967e-01     7.62883e-02
      5051       5060      1  -0.014653  -0.023177     3.39967e-01     7.62883e-02
      5048       5057      1  -0.021025  -0.003655     3.39967e-01     7.62883e-02
      5045       5054      1  -0.031787  -0.022042     3.39967e-01     7.62883e-02
      5042       5051      1  -0.028094  -0.012211     3.39967e-01     7.62883e-02
      5039       5048      1   0.017463  -0.017521     3.39967e-01     7.62883e-02
      5036       5045      1  -0.111712  -0.026489     3.39967e-01     7.62883e-02
      5112       5118      1  -0.164200   0.164116     3.39967e-01     2.28865e-01
      5109       5116      1  -0.002435  -0.559638     3.17980e-01     3.17088e-01
      5109       5117      1  -0.002435  -0.479574     3.19984e-01     2.85295e-01
      5106       5115      1  -0.026954   0.758669     3.39967e-01     2.02918e-01
      5103       5112      1  -0.016521  -0.136833     3.39967e-01     7.62883e-02
      5100       5109      1  -0.027812  -0.002029     3.39967e-01     7.62883e-02
      5097       5106      1  -0.004386  -0.022462     3.39967e-01     7.62883e-02
      5094       5103      1  -0.026451  -0.013767     3.39967e-01     7.62883e-02
      5091       5100      1  -0.014653  -0.023177     3.39967e-01     7.62883e-02
      5088       5097      1  -0.021025  -0.003655     3.39967e-01     7.62883e-02
      5085       5094      1  -0.031787  -0.022042     3.39967e-01     7.62883e-02
      5082       5091      1  -0.028094  -0.012211     3.39967e-01     7.62883e-02
      5079       5088      1   0.017463  -0.017521     3.39967e-01     7.62883e-02
      5076       5085      1  -0.111712  -0.026489     3.39967e-01     7.62883e-02
      5152       5187      1  -0.673755  -0.002029     3.17980e-01     3.17088e-01
      5151       5184      1   0.897613  -0.022462     3.39967e-01     2.02918e-01
      5150       5187      1  -0.552948  -0.002029     3.19984e-01     2.85295e-01
      5129       5148      1   0.166801  -0.729843     3.17980e-01     3.17088e-01
      5129       5149      1   0.166801  -0.729843     3.17980e-01     3.17088e-01
      5129       5136      1   0.166801  -0.282478     3.39967e-01     2.28865e-01
      5129       5140      1   0.166801  -0.282478     3.39967e-01     2.28865e-01
      5129       5144      1   0.166801  -0.282478     3.39967e-01     2.28865e-01
      5128       5135      1  -0.508176   0.204385     3.12501e-01     3.55640e-01
      5127       5132      1   1.339721  -0.142353     3.57072e-01     3.09446e-01
      5126       5150      1  -0.509480  -0.460790     3.00001e-01     3.55640e-01
      5126       5129      1  -0.509480   0.139001     3.19984e-01     2.85295e-01
      5123       5151      1   0.017459   0.748011     3.39967e-01     2.02918e-01
      5123       5128      1   0.017459  -0.423480     3.19984e-01     2.85295e-01
      5123       5148      1   0.017459  -0.729843     3.17980e-01     3.17088e-01
      5123       5149      1   0.017459  -0.729843     3.17980e-01     3.17088e-01
      5121       5127      1   0.281242   1.116434     3.57072e-01     3.09446e-01
      5121       5152      1   0.281242  -0.561462     3.17980e-01     3.17088e-01
      5121       5190      1   0.281242  -0.136833     3.39967e-01     2.28865e-01
      5118       5126      1   0.196939  -0.424567     3.19984e-01     2.85295e-01
      5118       5151      1   0.196939   0.748011     3.39967e-01     2.02918e-01
      5117       5123      1  -0.575489   0.014549     3.19984e-01     2.85295e-01
      5117       5150      1  -0.575489  -0.460790     3.00001e-01     3.55640e-01
      5116       5118      1  -0.671566   0.164116     3.17980e-01     3.17088e-01
      5115       5121      1   0.910403   0.234368     3.39967e-01     2.02918e-01
      5181       5190      1  -0.016521  -0.136833     3.39967e-01     7.62883e-02
      5178       5187      1  -0.027812  -0.002029     3.39967e-01     7.62883e-02
      5175       5184      1  -0.004386  -0.022462     3.39967e-01     7.62883e-02
      5172       5181      1  -0.026451  -0.013767     3.39967e-01     7.62883e-02
      5169       5178      1  -0.014653  -0.023177     3.39967e-01     7.62883e-02
      5166       5175      1  -0.021025  -0.003655     3.39967e-01     7.62883e-02
      5163       5172      1  -0.031787  -0.022042     3.39967e-01     7.62883e-02
      5160       5169      1  -0.028094  -0.012211     3.39967e-01     7.62883e-02
      5157       5166      1   0.017463  -0.017521     3.39967e-01     7.62883e-02
      5154       5163      1  -0.111712  -0.026489     3.39967e-01     7.62883e-02
      5230       5236      1  -0.164200   0.164116     3.39967e-01     2.28865e-01
      5227       5234      1  -0.002435  -0.559638     3.17980e-01     3.17088e-01
      5227       5235      1  -0.002435  -0.479574     3.19984e-01     2.85295e-01
      5224       5233      1  -0.026954   0.758669     3.39967e-01     2.02918e-01
      5221       5230      1  -0.016521  -0.136833     3.39967e-01     7.62883e-02
      5218       5227      1  -0.027812  -0.002029     3.39967e-01     7.62883e-02
      5215       5224      1  -0.004386  -0.022462     3.39967e-01     7.62883e-02
      5212       5221      1  -0.026451  -0.013767     3.39967e-01     7.62883e-02
      5209       5218      1  -0.014653  -0.023177     3.39967e-01     7.62883e-02
      5206       5215      1  -0.021025  -0.003655     3.39967e-01     7.62883e-02
      5203       5212      1  -0.031787  -0.022042     3.39967e-01     7.62883e-02
      5200       5209      1  -0.028094  -0.012211     3.39967e-01     7.62883e-02
      5197       5206      1   0.017463  -0.017521     3.39967e-01     7.62883e-02
      5194       5203      1  -0.111712  -0.026489     3.39967e-01     7.62883e-02
      5270       5305      1  -0.673755  -0.002029     3.17980e-01     3.17088e-01
      5269       5302      1   0.897613  -0.022462     3.39967e-01     2.02918e-01
      5268       5305      1  -0.552948  -0.002029     3.19984e-01     2.85295e-01
      5247       5266      1   0.166801  -0.729843     3.17980e-01     3.17088e-01
      5247       5267      1   0.166801  -0.729843     3.17980e-01     3.17088e-01
      5247       5254      1   0.166801  -0.282478     3.39967e-01     2.28865e-01
      5247       5258      1   0.166801  -0.282478     3.39967e-01     2.28865e-01
      5247       5262      1   0.166801  -0.282478     3.39967e-01     2.28865e-01
      5246       5253      1  -0.508176   0.204385     3.12501e-01     3.55640e-01
      5245       5250      1   1.339721  -0.142353     3.57072e-01     3.09446e-01
      5244       5268      1  -0.509480  -0.460790     3.00001e-01     3.55640e-01
      5244       5247      1  -0.509480   0.139001     3.19984e-01     2.85295e-01
      5241       5269      1   0.017459   0.748011     3.39967e-01     2.02918e-01
      5241       5246      1   0.017459  -0.423480     3.19984e-01     2.85295e-01
      5241       5266      1   0.017459  -0.729843     3.17980e-01     3.17088e-01
      5241       5267      1   0.017459  -0.729843     3.17980e-01     3.17088e-01
      5239       5245      1   0.281242   1.116434     3.57072e-01     3.09446e-01
      5239       5270      1   0.281242  -0.561462     3.17980e-01     3.17088e-01
      5239       5308      1   0.281242  -0.136833     3.39967e-01     2.28865e-01
      5236       5244      1   0.196939  -0.424567     3.19984e-01     2.85295e-01
      5236       5269      1   0.196939   0.748011     3.39967e-01     2.02918e-01
      5235       5241      1  -0.575489   0.014549     3.19984e-01     2.85295e-01
      5235       5268      1  -0.575489  -0.460790     3.00001e-01     3.55640e-01
      5234       5236      1  -0.671566   0.164116     3.17980e-01     3.17088e-01
      5233       5239      1   0.910403   0.234368     3.39967e-01     2.02918e-01
      5299       5308      1  -0.016521  -0.136833     3.39967e-01     7.62883e-02
      5296       5305      1  -0.027812  -0.002029     3.39967e-01     7.62883e-02
      5293       5302      1  -0.004386  -0.022462     3.39967e-01     7.62883e-02
      5290       5299      1  -0.026451  -0.013767     3.39967e-01     7.62883e-02
      5287       5296      1  -0.014653  -0.023177     3.39967e-01     7.62883e-02
      5284       5293      1  -0.021025  -0.003655     3.39967e-01     7.62883e-02
      5281       5290      1  -0.031787  -0.022042     3.39967e-01     7.62883e-02
      5278       5287      1  -0.028094  -0.012211     3.39967e-01     7.62883e-02
      5275       5284      1   0.017463  -0.017521     3.39967e-01     7.62883e-02
      5272       5281      1  -0.111712  -0.026489     3.39967e-01     7.62883e-02
      5348       5354      1  -0.164200   0.164116     3.39967e-01     2.28865e-01
      5345       5352      1  -0.002435  -0.559638     3.17980e-01     3.17088e-01
      5345       5353      1  -0.002435  -0.479574     3.19984e-01     2.85295e-01
      5342       5351      1  -0.026954   0.758669     3.39967e-01     2.02918e-01
      5339       5348      1  -0.016521  -0.136833     3.39967e-01     7.62883e-02
      5336       5345      1  -0.027812  -0.002029     3.39967e-01     7.62883e-02
      5333       5342      1  -0.004386  -0.022462     3.39967e-01     7.62883e-02
      5330       5339      1  -0.026451  -0.013767     3.39967e-01     7.62883e-02
      5327       5336      1  -0.014653  -0.023177     3.39967e-01     7.62883e-02
      5324       5333      1  -0.021025  -0.003655     3.39967e-01     7.62883e-02
      5321       5330      1  -0.031787  -0.022042     3.39967e-01     7.62883e-02
      5318       5327      1  -0.028094  -0.012211     3.39967e-01     7.62883e-02
      5315       5324      1   0.017463  -0.017521     3.39967e-01     7.62883e-02
      5312       5321      1  -0.111712  -0.026489     3.39967e-01     7.62883e-02
      5388       5423      1  -0.673755  -0.002029     3.17980e-01     3.17088e-01
      5387       5420      1   0.897613  -0.022462     3.39967e-01     2.02918e-01
      5386       5423      1  -0.552948  -0.002029     3.19984e-01     2.85295e-01
      5365       5384      1   0.166801  -0.729843     3.17980e-01     3.17088e-01
      5365       5385      1   0.166801  -0.729843     3.17980e-01     3.17088e-01
      5365       5372      1   0.166801  -0.282478     3.39967e-01     2.28865e-01
      5365       5376      1   0.166801  -0.282478     3.39967e-01     2.28865e-01
      5365       5380      1   0.166801  -0.282478     3.39967e-01     2.28865e-01
      5364       5371      1  -0.508176   0.204385     3.12501e-01     3.55640e-01
      5363       5368      1   1.339721  -0.142353     3.57072e-01     3.09446e-01
      5362       5386      1  -0.509480  -0.460790     3.00001e-01     3.55640e-01
      5362       5365      1  -0.509480   0.139001     3.19984e-01     2.85295e-01
      5359       5387      1   0.017459   0.748011     3.39967e-01     2.02918e-01
      5359       5364      1   0.017459  -0.423480     3.19984e-01     2.85295e-01
      5359       5384      1   0.017459  -0.729843     3.17980e-01     3.17088e-01
      5359       5385      1   0.017459  -0.729843     3.17980e-01     3.17088e-01
      5357       5363      1   0.281242   1.116434     3.57072e-01     3.09446e-01
      5357       5388      1   0.281242  -0.561462     3.17980e-01     3.17088e-01
      5357       5426      1   0.281242  -0.136833     3.39967e-01     2.28865e-01
      5354       5362      1   0.196939  -0.424567     3.19984e-01     2.85295e-01
      5354       5387      1   0.196939   0.748011     3.39967e-01     2.02918e-01
      5353       5359      1  -0.575489   0.014549     3.19984e-01     2.85295e-01
      5353       5386      1  -0.575489  -0.460790     3.00001e-01     3.55640e-01
      5352       5354      1  -0.671566   0.164116     3.17980e-01     3.17088e-01
      5351       5357      1   0.910403   0.234368     3.39967e-01     2.02918e-01
      5417       5426      1  -0.016521  -0.136833     3.39967e-01     7.62883e-02
      5414       5423      1  -0.027812  -0.002029     3.39967e-01     7.62883e-02
      5411       5420      1  -0.004386  -0.022462     3.39967e-01     7.62883e-02
      5408       5417      1  -0.026451  -0.013767     3.39967e-01     7.62883e-02
      5405       5414      1  -0.014653  -0.023177     3.39967e-01     7.62883e-02
      5402       5411      1  -0.021025  -0.003655     3.39967e-01     7.62883e-02
      5399       5408      1  -0.031787  -0.022042     3.39967e-01     7.62883e-02
      5396       5405      1  -0.028094  -0.012211     3.39967e-01     7.62883e-02
      5393       5402      1   0.017463  -0.017521     3.39967e-01     7.62883e-02
      5390       5399      1  -0.111712  -0.026489     3.39967e-01     7.62883e-02
      5466       5472      1  -0.164200   0.164116     3.39967e-01     2.28865e-01
      5463       5470      1  -0.002435  -0.559638     3.17980e-01     3.17088e-01
      5463       5471      1  -0.002435  -0.479574     3.19984e-01     2.85295e-01
      5460       5469      1  -0.026954   0.758669     3.39967e-01     2.02918e-01
      5457       5466      1  -0.016521  -0.136833     3.39967e-01     7.62883e-02
      5454       5463      1  -0.027812  -0.002029     3.39967e-01     7.62883e-02
      5451       5460      1  -0.004386  -0.022462     3.39967e-01     7.62883e-02
      5448       5457      1  -0.026451  -0.013767     3.39967e-01     7.62883e-02
      5445       5454      1  -0.014653  -0.023177     3.39967e-01     7.62883e-02
      5442       5451      1  -0.021025  -0.003655     3.39967e-01     7.62883e-02
      5439       5448      1  -0.031787  -0.022042     3.39967e-01     7.62883e-02
      5436       5445      1  -0.028094  -0.012211     3.39967e-01     7.62883e-02
      5433       5442      1   0.017463  -0.017521     3.39967e-01     7.62883e-02
      5430       5439      1  -0.111712  -0.026489     3.39967e-01     7.62883e-02
      5506       5541      1  -0.673755  -0.002029     3.17980e-01     3.17088e-01
      5505       5538      1   0.897613  -0.022462     3.39967e-01     2.02918e-01
      5504       5541      1  -0.552948  -0.002029     3.19984e-01     2.85295e-01
      5483       5502      1   0.166801  -0.729843     3.17980e-01     3.17088e-01
      5483       5503      1   0.166801  -0.729843     3.17980e-01     3.17088e-01
      5483       5490      1   0.166801  -0.282478     3.39967e-01     2.28865e-01
      5483       5494      1   0.166801  -0.282478     3.39967e-01     2.28865e-01
      5483       5498      1   0.166801  -0.282478     3.39967e-01     2.28865e-01
      5482       5489      1  -0.508176   0.204385     3.12501e-01     3.55640e-01
      5481       5486      1   1.339721  -0.142353     3.57072e-01     3.09446e-01
      5480       5504      1  -0.509480  -0.460790     3.00001e-01     3.55640e-01
      5480       5483      1  -0.509480   0.139001     3.19984e-01     2.85295e-01
      5477       5505      1   0.017459   0.748011     3.39967e-01     2.02918e-01
      5477       5482      1   0.017459  -0.423480     3.19984e-01     2.85295e-01
      5477       5502      1   0.017459  -0.729843     3.17980e-01     3.17088e-01
      5477       5503      1   0.017459  -0.729843     3.17980e-01     3.17088e-01
      5475       5481      1   0.281242   1.116434     3.57072e-01     3.09446e-01
      5475       5506      1   0.281242  -0.561462     3.17980e-01     3.17088e-01
      5475       5544      1   0.281242  -0.136833     3.39967e-01     2.28865e-01
      5472       5480      1   0.196939  -0.424567     3.19984e-01     2.85295e-01
      5472       5505      1   0.196939   0.748011     3.39967e-01     2.02918e-01
      5471       5477      1  -0.575489   0.014549     3.19984e-01     2.85295e-01
      5471       5504      1  -0.575489  -0.460790     3.00001e-01     3.55640e-01
      5470       5472      1  -0.671566   0.164116     3.17980e-01     3.17088e-01
      5469       5475      1   0.910403   0.234368     3.39967e-01     2.02918e-01
      5535       5544      1  -0.016521  -0.136833     3.39967e-01     7.62883e-02
      5532       5541      1  -0.027812  -0.002029     3.39967e-01     7.62883e-02
      5529       5538      1  -0.004386  -0.022462     3.39967e-01     7.62883e-02
      5526       5535      1  -0.026451  -0.013767     3.39967e-01     7.62883e-02
      5523       5532      1  -0.014653  -0.023177     3.39967e-01     7.62883e-02
      5520       5529      1  -0.021025  -0.003655     3.39967e-01     7.62883e-02
      5517       5526      1  -0.031787  -0.022042     3.39967e-01     7.62883e-02
      5514       5523      1  -0.028094  -0.012211     3.39967e-01     7.62883e-02
      5511       5520      1   0.017463  -0.017521     3.39967e-01     7.62883e-02
      5508       5517      1  -0.111712  -0.026489     3.39967e-01     7.62883e-02
      5584       5590      1  -0.164200   0.164116     3.39967e-01     2.28865e-01
      5581       5588      1  -0.002435  -0.559638     3.17980e-01     3.17088e-01
      5581       5589      1  -0.002435  -0.479574     3.19984e-01     2.85295e-01
      5578       5587      1  -0.026954   0.758669     3.39967e-01     2.02918e-01
      5575       5584      1  -0.016521  -0.136833     3.39967e-01     7.62883e-02
      5572       5581      1  -0.027812  -0.002029     3.39967e-01     7.62883e-02
      5569       5578      1  -0.004386  -0.022462     3.39967e-01     7.62883e-02
      5566       5575      1  -0.026451  -0.013767     3.39967e-01     7.62883e-02
      5563       5572      1  -0.014653  -0.023177     3.39967e-01     7.62883e-02
      5560       5569      1  -0.021025  -0.003655     3.39967e-01     7.62883e-02
      5557       5566      1  -0.031787  -0.022042     3.39967e-01     7.62883e-02
      5554       5563      1  -0.028094  -0.012211     3.39967e-01     7.62883e-02
      5551       5560      1   0.017463  -0.017521     3.39967e-01     7.62883e-02
      5548       5557      1  -0.111712  -0.026489     3.39967e-01     7.62883e-02
      5624       5659      1  -0.673755  -0.002029     3.17980e-01     3.17088e-01
      5623       5656      1   0.897613  -0.022462     3.39967e-01     2.02918e-01
      5622       5659      1  -0.552948  -0.002029     3.19984e-01     2.85295e-01
      5601       5620      1   0.166801  -0.729843     3.17980e-01     3.17088e-01
      5601       5621      1   0.166801  -0.729843     3.17980e-01     3.17088e-01
      5601       5608      1   0.166801  -0.282478     3.39967e-01     2.28865e-01
      5601       5612      1   0.166801  -0.282478     3.39967e-01     2.28865e-01
      5601       5616      1   0.166801  -0.282478     3.39967e-01     2.28865e-01
      5600       5607      1  -0.508176   0.204385     3.12501e-01     3.55640e-01
      5599       5604      1   1.339721  -0.142353     3.57072e-01     3.09446e-01
      5598       5622      1  -0.509480  -0.460790     3.00001e-01     3.55640e-01
      5598       5601      1  -0.509480   0.139001     3.19984e-01     2.85295e-01
      5595       5623      1   0.017459   0.748011     3.39967e-01     2.02918e-01
      5595       5600      1   0.017459  -0.423480     3.19984e-01     2.85295e-01
      5595       5620      1   0.017459  -0.729843     3.17980e-01     3.17088e-01
      5595       5621      1   0.017459  -0.729843     3.17980e-01     3.17088e-01
      5593       5599      1   0.281242   1.116434     3.57072e-01     3.09446e-01
      5593       5624      1   0.281242  -0.561462     3.17980e-01     3.17088e-01
      5593       5662      1   0.281242  -0.136833     3.39967e-01     2.28865e-01
      5590       5598      1   0.196939  -0.424567     3.19984e-01     2.85295e-01
      5590       5623      1   0.196939   0.748011     3.39967e-01     2.02918e-01
      5589       5595      1  -0.575489   0.014549     3.19984e-01     2.85295e-01
      5589       5622      1  -0.575489  -0.460790     3.00001e-01     3.55640e-01
      5588       5590      1  -0.671566   0.164116     3.17980e-01     3.17088e-01
      5587       5593      1   0.910403   0.234368     3.39967e-01     2.02918e-01
      5653       5662      1  -0.016521  -0.136833     3.39967e-01     7.62883e-02
      5650       5659      1  -0.027812  -0.002029     3.39967e-01     7.62883e-02
      5647       5656      1  -0.004386  -0.022462     3.39967e-01     7.62883e-02
      5644       5653      1  -0.026451  -0.013767     3.39967e-01     7.62883e-02
      5641       5650      1  -0.014653  -0.023177     3.39967e-01     7.62883e-02
      5638       5647      1  -0.021025  -0.003655     3.39967e-01     7.62883e-02
      5635       5644      1  -0.031787  -0.022042     3.39967e-01     7.62883e-02
      5632       5641      1  -0.028094  -0.012211     3.39967e-01     7.62883e-02
      5629       5638      1   0.017463  -0.017521     3.39967e-01     7.62883e-02
      5626       5635      1  -0.111712  -0.026489     3.39967e-01     7.62883e-02
      5702       5708      1  -0.164200   0.164116     3.39967e-01     2.28865e-01
      5699       5706      1  -0.002435  -0.559638     3.17980e-01     3.17088e-01
      5699       5707      1  -0.002435  -0.479574     3.19984e-01     2.85295e-01
      5696       5705      1  -0.026954   0.758669     3.39967e-01     2.02918e-01
      5693       5702      1  -0.016521  -0.136833     3.39967e-01     7.62883e-02
      5690       5699      1  -0.027812  -0.002029     3.39967e-01     7.62883e-02
      5687       5696      1  -0.004386  -0.022462     3.39967e-01     7.62883e-02
      5684       5693      1  -0.026451  -0.013767     3.39967e-01     7.62883e-02
      5681       5690      1  -0.014653  -0.023177     3.39967e-01     7.62883e-02
      5678       5687      1  -0.021025  -0.003655     3.39967e-01     7.62883e-02
      5675       5684      1  -0.031787  -0.022042     3.39967e-01     7.62883e-02
      5672       5681      1  -0.028094  -0.012211     3.39967e-01     7.62883e-02
      5669       5678      1   0.017463  -0.017521     3.39967e-01     7.62883e-02
      5666       5675      1  -0.111712  -0.026489     3.39967e-01     7.62883e-02
      5742       5777      1  -0.673755  -0.002029     3.17980e-01     3.17088e-01
      5741       5774      1   0.897613  -0.022462     3.39967e-01     2.02918e-01
      5740       5777      1  -0.552948  -0.002029     3.19984e-01     2.85295e-01
      5719       5738      1   0.166801  -0.729843     3.17980e-01     3.17088e-01
      5719       5739      1   0.166801  -0.729843     3.17980e-01     3.17088e-01
      5719       5726      1   0.166801  -0.282478     3.39967e-01     2.28865e-01
      5719       5730      1   0.166801  -0.282478     3.39967e-01     2.28865e-01
      5719       5734      1   0.166801  -0.282478     3.39967e-01     2.28865e-01
      5718       5725      1  -0.508176   0.204385     3.12501e-01     3.55640e-01
      5717       5722      1   1.339721  -0.142353     3.57072e-01     3.09446e-01
      5716       5740      1  -0.509480  -0.460790     3.00001e-01     3.55640e-01
      5716       5719      1  -0.509480   0.139001     3.19984e-01     2.85295e-01
      5713       5741      1   0.017459   0.748011     3.39967e-01     2.02918e-01
      5713       5718      1   0.017459  -0.423480     3.19984e-01     2.85295e-01
      5713       5738      1   0.017459  -0.729843     3.17980e-01     3.17088e-01
      5713       5739      1   0.017459  -0.729843     3.17980e-01     3.17088e-01
      5711       5717      1   0.281242   1.116434     3.57072e-01     3.09446e-01
      5711       5742      1   0.281242  -0.561462     3.17980e-01     3.17088e-01
      5711       5780      1   0.281242  -0.136833     3.39967e-01     2.28865e-01
      5708       5716      1   0.196939  -0.424567     3.19984e-01     2.85295e-01
      5708       5741      1   0.196939   0.748011     3.39967e-01     2.02918e-01
      5707       5713      1  -0.575489   0.014549     3.19984e-01     2.85295e-01
      5707       5740      1  -0.575489  -0.460790     3.00001e-01     3.55640e-01
      5706       5708      1  -0.671566   0.164116     3.17980e-01     3.17088e-01
      5705       5711      1   0.910403   0.234368     3.39967e-01     2.02918e-01
      5771       5780      1  -0.016521  -0.136833     3.39967e-01     7.62883e-02
      5768       5777      1  -0.027812  -0.002029     3.39967e-01     7.62883e-02
      5765       5774      1  -0.004386  -0.022462     3.39967e-01     7.62883e-02
      5762       5771      1  -0.026451  -0.013767     3.39967e-01     7.62883e-02
      5759       5768      1  -0.014653  -0.023177     3.39967e-01     7.62883e-02
      5756       5765      1  -0.021025  -0.003655     3.39967e-01     7.62883e-02
      5753       5762      1  -0.031787  -0.022042     3.39967e-01     7.62883e-02
      5750       5759      1  -0.028094  -0.012211     3.39967e-01     7.62883e-02
      5747       5756      1   0.017463  -0.017521     3.39967e-01     7.62883e-02
      5744       5753      1  -0.111712  -0.026489     3.39967e-01     7.62883e-02
      5820       5826      1  -0.164200   0.164116     3.39967e-01     2.28865e-01
      5817       5824      1  -0.002435  -0.559638     3.17980e-01     3.17088e-01
      5817       5825      1  -0.002435  -0.479574     3.19984e-01     2.85295e-01
      5814       5823      1  -0.026954   0.758669     3.39967e-01     2.02918e-01
      5811       5820      1  -0.016521  -0.136833     3.39967e-01     7.62883e-02
      5808       5817      1  -0.027812  -0.002029     3.39967e-01     7.62883e-02
      5805       5814      1  -0.004386  -0.022462     3.39967e-01     7.62883e-02
      5802       5811      1  -0.026451  -0.013767     3.39967e-01     7.62883e-02
      5799       5808      1  -0.014653  -0.023177     3.39967e-01     7.62883e-02
      5796       5805      1  -0.021025  -0.003655     3.39967e-01     7.62883e-02
      5793       5802      1  -0.031787  -0.022042     3.39967e-01     7.62883e-02
      5790       5799      1  -0.028094  -0.012211     3.39967e-01     7.62883e-02
      5787       5796      1   0.017463  -0.017521     3.39967e-01     7.62883e-02
      5784       5793      1  -0.111712  -0.026489     3.39967e-01     7.62883e-02
      5860       5895      1  -0.673755  -0.002029     3.17980e-01     3.17088e-01
      5859       5892      1   0.897613  -0.022462     3.39967e-01     2.02918e-01
      5858       5895      1  -0.552948  -0.002029     3.19984e-01     2.85295e-01
      5837       5856      1   0.166801  -0.729843     3.17980e-01     3.17088e-01
      5837       5857      1   0.166801  -0.729843     3.17980e-01     3.17088e-01
      5837       5844      1   0.166801  -0.282478     3.39967e-01     2.28865e-01
      5837       5848      1   0.166801  -0.282478     3.39967e-01     2.28865e-01
      5837       5852      1   0.166801  -0.282478     3.39967e-01     2.28865e-01
      5836       5843      1  -0.508176   0.204385     3.12501e-01     3.55640e-01
      5835       5840      1   1.339721  -0.142353     3.57072e-01     3.09446e-01
      5834       5858      1  -0.509480  -0.460790     3.00001e-01     3.55640e-01
      5834       5837      1  -0.509480   0.139001     3.19984e-01     2.85295e-01
      5831       5859      1   0.017459   0.748011     3.39967e-01     2.02918e-01
      5831       5836      1   0.017459  -0.423480     3.19984e-01     2.85295e-01
      5831       5856      1   0.017459  -0.729843     3.17980e-01     3.17088e-01
      5831       5857      1   0.017459  -0.729843     3.17980e-01     3.17088e-01
      5829       5835      1   0.281242   1.116434     3.57072e-01     3.09446e-01
      5829       5860      1   0.281242  -0.561462     3.17980e-01     3.17088e-01
      5829       5898      1   0.281242  -0.136833     3.39967e-01     2.28865e-01
      5826       5834      1   0.196939  -0.424567     3.19984e-01     2.85295e-01
      5826       5859      1   0.196939   0.748011     3.39967e-01     2.02918e-01
      5825       5831      1  -0.575489   0.014549     3.19984e-01     2.85295e-01
      5825       5858      1  -0.575489  -0.460790     3.00001e-01     3.55640e-01
      5824       5826      1  -0.671566   0.164116     3.17980e-01     3.17088e-01
      5823       5829      1   0.910403   0.234368     3.39967e-01     2.02918e-01
      5889       5898      1  -0.016521  -0.136833     3.39967e-01     7.62883e-02
      5886       5895      1  -0.027812  -0.002029     3.39967e-01     7.62883e-02
      5883       5892      1  -0.004386  -0.022462     3.39967e-01     7.62883e-02
      5880       5889      1  -0.026451  -0.013767     3.39967e-01     7.62883e-02
      5877       5886      1  -0.014653  -0.023177     3.39967e-01     7.62883e-02
      5874       5883      1  -0.021025  -0.003655     3.39967e-01     7.62883e-02
      5871       5880      1  -0.031787  -0.022042     3.39967e-01     7.62883e-02
      5868       5877      1  -0.028094  -0.012211     3.39967e-01     7.62883e-02
      5865       5874      1   0.017463  -0.017521     3.39967e-01     7.62883e-02
      5862       5871      1  -0.111712  -0.026489     3.39967e-01     7.62883e-02
      5938       5944      1  -0.164200   0.164116     3.39967e-01     2.28865e-01
      5935       5942      1  -0.002435  -0.559638     3.17980e-01     3.17088e-01
      5935       5943      1  -0.002435  -0.479574     3.19984e-01     2.85295e-01
      5932       5941      1  -0.026954   0.758669     3.39967e-01     2.02918e-01
      5929       5938      1  -0.016521  -0.136833     3.39967e-01     7.62883e-02
      5926       5935      1  -0.027812  -0.002029     3.39967e-01     7.62883e-02
      5923       5932      1  -0.004386  -0.022462     3.39967e-01     7.62883e-02
      5920       5929      1  -0.026451  -0.013767     3.39967e-01     7.62883e-02
      5917       5926      1  -0.014653  -0.023177     3.39967e-01     7.62883e-02
      5914       5923      1  -0.021025  -0.003655     3.39967e-01     7.62883e-02
      5911       5920      1  -0.031787  -0.022042     3.39967e-01     7.62883e-02
      5908       5917      1  -0.028094  -0.012211     3.39967e-01     7.62883e-02
      5905       5914      1   0.017463  -0.017521     3.39967e-01     7.62883e-02
      5902       5911      1  -0.111712  -0.026489     3.39967e-01     7.62883e-02
      5978       6013      1  -0.673755  -0.002029     3.17980e-01     3.17088e-01
      5977       6010      1   0.897613  -0.022462     3.39967e-01     2.02918e-01
      5976       6013      1  -0.552948  -0.002029     3.19984e-01     2.85295e-01
      5955       5974      1   0.166801  -0.729843     3.17980e-01     3.17088e-01
      5955       5975      1   0.166801  -0.729843     3.17980e-01     3.17088e-01
      5955       5962      1   0.166801  -0.282478     3.39967e-01     2.28865e-01
      5955       5966      1   0.166801  -0.282478     3.39967e-01     2.28865e-01
      5955       5970      1   0.166801  -0.282478     3.39967e-01     2.28865e-01
      5954       5961      1  -0.508176   0.204385     3.12501e-01     3.55640e-01
      5953       5958      1   1.339721  -0.142353     3.57072e-01     3.09446e-01
      5952       5976      1  -0.509480  -0.460790     3.00001e-01     3.55640e-01
      5952       5955      1  -0.509480   0.139001     3.19984e-01     2.85295e-01
      5949       5977      1   0.017459   0.748011     3.39967e-01     2.02918e-01
      5949       5954      1   0.017459  -0.423480     3.19984e-01     2.85295e-01
      5949       5974      1   0.017459  -0.729843     3.17980e-01     3.17088e-01
      5949       5975      1   0.017459  -0.729843     3.17980e-01     3.17088e-01
      5947       5953      1   0.281242   1.116434     3.57072e-01     3.09446e-01
      5947       5978      1   0.281242  -0.561462     3.17980e-01     3.17088e-01
      5947       6016      1   0.281242  -0.136833     3.39967e-01     2.28865e-01
      5944       5952      1   0.196939  -0.424567     3.19984e-01     2.85295e-01
      5944       5977      1   0.196939   0.748011     3.39967e-01     2.02918e-01
      5943       5949      1  -0.575489   0.014549     3.19984e-01     2.85295e-01
      5943       5976      1  -0.575489  -0.460790     3.00001e-01     3.55640e-01
      5942       5944      1  -0.671566   0.164116     3.17980e-01     3.17088e-01
      5941       5947      1   0.910403   0.234368     3.39967e-01     2.02918e-01
      6007       6016      1  -0.016521  -0.136833     3.39967e-01     7.62883e-02
      6004       6013      1  -0.027812  -0.002029     3.39967e-01     7.62883e-02
      6001       6010      1  -0.004386  -0.022462     3.39967e-01     7.62883e-02
      5998       6007      1  -0.026451  -0.013767     3.39967e-01     7.62883e-02
      5995       6004      1  -0.014653  -0.023177     3.39967e-01     7.62883e-02
      5992       6001      1  -0.021025  -0.003655     3.39967e-01     7.62883e-02
      5989       5998      1  -0.031787  -0.022042     3.39967e-01     7.62883e-02
      5986       5995      1  -0.028094  -0.012211     3.39967e-01     7.62883e-02
      5983       5992      1   0.017463  -0.017521     3.39967e-01     7.62883e-02
      5980       5989      1  -0.111712  -0.026489     3.39967e-01     7.62883e-02
      6056       6062      1  -0.164200   0.164116     3.39967e-01     2.28865e-01
      6053       6060      1  -0.002435  -0.559638     3.17980e-01     3.17088e-01
      6053       6061      1  -0.002435  -0.479574     3.19984e-01     2.85295e-01
      6050       6059      1  -0.026954   0.758669     3.39967e-01     2.02918e-01
      6047       6056      1  -0.016521  -0.136833     3.39967e-01     7.62883e-02
      6044       6053      1  -0.027812  -0.002029     3.39967e-01     7.62883e-02
      6041       6050      1  -0.004386  -0.022462     3.39967e-01     7.62883e-02
      6038       6047      1  -0.026451  -0.013767     3.39967e-01     7.62883e-02
      6035       6044      1  -0.014653  -0.023177     3.39967e-01     7.62883e-02
      6032       6041      1  -0.021025  -0.003655     3.39967e-01     7.62883e-02
      6029       6038      1  -0.031787  -0.022042     3.39967e-01     7.62883e-02
      6026       6035      1  -0.028094  -0.012211     3.39967e-01     7.62883e-02
      6023       6032      1   0.017463  -0.017521     3.39967e-01     7.62883e-02
      6020       6029      1  -0.111712  -0.026489     3.39967e-01     7.62883e-02
      6096       6131      1  -0.673755  -0.002029     3.17980e-01     3.17088e-01
      6095       6128      1   0.897613  -0.022462     3.39967e-01     2.02918e-01
      6094       6131      1  -0.552948  -0.002029     3.19984e-01     2.85295e-01
      6073       6092      1   0.166801  -0.729843     3.17980e-01     3.17088e-01
      6073       6093      1   0.166801  -0.729843     3.17980e-01     3.17088e-01
      6073       6080      1   0.166801  -0.282478     3.39967e-01     2.28865e-01
      6073       6084      1   0.166801  -0.282478     3.39967e-01     2.28865e-01
      6073       6088      1   0.166801  -0.282478     3.39967e-01     2.28865e-01
      6072       6079      1  -0.508176   0.204385     3.12501e-01     3.55640e-01
      6071       6076      1   1.339721  -0.142353     3.57072e-01     3.09446e-01
      6070       6094      1  -0.509480  -0.460790     3.00001e-01     3.55640e-01
      6070       6073      1  -0.509480   0.139001     3.19984e-01     2.85295e-01
      6067       6095      1   0.017459   0.748011     3.39967e-01     2.02918e-01
      6067       6072      1   0.017459  -0.423480     3.19984e-01     2.85295e-01
      6067       6092      1   0.017459  -0.729843     3.17980e-01     3.17088e-01
      6067       6093      1   0.017459  -0.729843     3.17980e-01     3.17088e-01
      6065       6071      1   0.281242   1.116434     3.57072e-01     3.09446e-01
      6065       6096      1   0.281242  -0.561462     3.17980e-01     3.17088e-01
      6065       6134      1   0.281242  -0.136833     3.39967e-01     2.28865e-01
      6062       6070      1   0.196939  -0.424567     3.19984e-01     2.85295e-01
      6062       6095      1   0.196939   0.748011     3.39967e-01     2.02918e-01
      6061       6067      1  -0.575489   0.014549     3.19984e-01     2.85295e-01
      6061       6094      1  -0.575489  -0.460790     3.00001e-01     3.55640e-01
      6060       6062      1  -0.671566   0.164116     3.17980e-01     3.17088e-01
      6059       6065      1   0.910403   0.234368     3.39967e-01     2.02918e-01
      6125       6134      1  -0.016521  -0.136833     3.39967e-01     7.62883e-02
      6122       6131      1  -0.027812  -0.002029     3.39967e-01     7.62883e-02
      6119       6128      1  -0.004386  -0.022462     3.39967e-01     7.62883e-02
      6116       6125      1  -0.026451  -0.013767     3.39967e-01     7.62883e-02
      6113       6122      1  -0.014653  -0.023177     3.39967e-01     7.62883e-02
      6110       6119      1  -0.021025  -0.003655     3.39967e-01     7.62883e-02
      6107       6116      1  -0.031787  -0.022042     3.39967e-01     7.62883e-02
      6104       6113      1  -0.028094  -0.012211     3.39967e-01     7.62883e-02
      6101       6110      1   0.017463  -0.017521     3.39967e-01     7.62883e-02
      6098       6107      1  -0.111712  -0.026489     3.39967e-01     7.62883e-02
      6174       6180      1  -0.164200   0.164116     3.39967e-01     2.28865e-01
      6171       6178      1  -0.002435  -0.559638     3.17980e-01     3.17088e-01
      6171       6179      1  -0.002435  -0.479574     3.19984e-01     2.85295e-01
      6168       6177      1  -0.026954   0.758669     3.39967e-01     2.02918e-01
      6165       6174      1  -0.016521  -0.136833     3.39967e-01     7.62883e-02
      6162       6171      1  -0.027812  -0.002029     3.39967e-01     7.62883e-02
      6159       6168      1  -0.004386  -0.022462     3.39967e-01     7.62883e-02
      6156       6165      1  -0.026451  -0.013767     3.39967e-01     7.62883e-02
      6153       6162      1  -0.014653  -0.023177     3.39967e-01     7.62883e-02
      6150       6159      1  -0.021025  -0.003655     3.39967e-01     7.62883e-02
      6147       6156      1  -0.031787  -0.022042     3.39967e-01     7.62883e-02
      6144       6153      1  -0.028094  -0.012211     3.39967e-01     7.62883e-02
      6141       6150      1   0.017463  -0.017521     3.39967e-01     7.62883e-02
      6138       6147      1  -0.111712  -0.026489     3.39967e-01     7.62883e-02
      6214       6249      1  -0.673755  -0.002029     3.17980e-01     3.17088e-01
      6213       6246      1   0.897613  -0.022462     3.39967e-01     2.02918e-01
      6212       6249      1  -0.552948  -0.002029     3.19984e-01     2.85295e-01
      6191       6210      1   0.166801  -0.729843     3.17980e-01     3.17088e-01
      6191       6211      1   0.166801  -0.729843     3.17980e-01     3.17088e-01
      6191       6198      1   0.166801  -0.282478     3.39967e-01     2.28865e-01
      6191       6202      1   0.166801  -0.282478     3.39967e-01     2.28865e-01
      6191       6206      1   0.166801  -0.282478     3.39967e-01     2.28865e-01
      6190       6197      1  -0.508176   0.204385     3.12501e-01     3.55640e-01
      6189       6194      1   1.339721  -0.142353     3.57072e-01     3.09446e-01
      6188       6212      1  -0.509480  -0.460790     3.00001e-01     3.55640e-01
      6188       6191      1  -0.509480   0.139001     3.19984e-01     2.85295e-01
      6185       6213      1   0.017459   0.748011     3.39967e-01     2.02918e-01
      6185       6190      1   0.017459  -0.423480     3.19984e-01     2.85295e-01
      6185       6210      1   0.017459  -0.729843     3.17980e-01     3.17088e-01
      6185       6211      1   0.017459  -0.729843     3.17980e-01     3.17088e-01
      6183       6189      1   0.281242   1.116434     3.57072e-01     3.09446e-01
      6183       6214      1   0.281242  -0.561462     3.17980e-01     3.17088e-01
      6183       6252      1   0.281242  -0.136833     3.39967e-01     2.28865e-01
      6180       6188      1   0.196939  -0.424567     3.19984e-01     2.85295e-01
      6180       6213      1   0.196939   0.748011     3.39967e-01     2.02918e-01
      6179       6185      1  -0.575489   0.014549     3.19984e-01     2.85295e-01
      6179       6212      1  -0.575489  -0.460790     3.00001e-01     3.55640e-01
      6178       6180      1  -0.671566   0.164116     3.17980e-01     3.17088e-01
      6177       6183      1   0.910403   0.234368     3.39967e-01     2.02918e-01
      6243       6252      1  -0.016521  -0.136833     3.39967e-01     7.62883e-02
      6240       6249      1  -0.027812  -0.002029     3.39967e-01     7.62883e-02
      6237       6246      1  -0.004386  -0.022462     3.39967e-01     7.62883e-02
      6234       6243      1  -0.026451  -0.013767     3.39967e-01     7.62883e-02
      6231       6240      1  -0.014653  -0.023177     3.39967e-01     7.62883e-02
      6228       6237      1  -0.021025  -0.003655     3.39967e-01     7.62883e-02
      6225       6234      1  -0.031787  -0.022042     3.39967e-01     7.62883e-02
      6222       6231      1  -0.028094  -0.012211     3.39967e-01     7.62883e-02
      6219       6228      1   0.017463  -0.017521     3.39967e-01     7.62883e-02
      6216       6225      1  -0.111712  -0.026489     3.39967e-01     7.62883e-02
      6292       6298      1  -0.164200   0.164116     3.39967e-01     2.28865e-01
      6289       6296      1  -0.002435  -0.559638     3.17980e-01     3.17088e-01
      6289       6297      1  -0.002435  -0.479574     3.19984e-01     2.85295e-01
      6286       6295      1  -0.026954   0.758669     3.39967e-01     2.02918e-01
      6283       6292      1  -0.016521  -0.136833     3.39967e-01     7.62883e-02
      6280       6289      1  -0.027812  -0.002029     3.39967e-01     7.62883e-02
      6277       6286      1  -0.004386  -0.022462     3.39967e-01     7.62883e-02
      6274       6283      1  -0.026451  -0.013767     3.39967e-01     7.62883e-02
      6271       6280      1  -0.014653  -0.023177     3.39967e-01     7.62883e-02
      6268       6277      1  -0.021025  -0.003655     3.39967e-01     7.62883e-02
      6265       6274      1  -0.031787  -0.022042     3.39967e-01     7.62883e-02
      6262       6271      1  -0.028094  -0.012211     3.39967e-01     7.62883e-02
      6259       6268      1   0.017463  -0.017521     3.39967e-01     7.62883e-02
      6256       6265      1  -0.111712  -0.026489     3.39967e-01     7.62883e-02
      6332       6367      1  -0.673755  -0.002029     3.17980e-01     3.17088e-01
      6331       6364      1   0.897613  -0.022462     3.39967e-01     2.02918e-01
      6330       6367      1  -0.552948  -0.002029     3.19984e-01     2.85295e-01
      6309       6328      1   0.166801  -0.729843     3.17980e-01     3.17088e-01
      6309       6329      1   0.166801  -0.729843     3.17980e-01     3.17088e-01
      6309       6316      1   0.166801  -0.282478     3.39967e-01     2.28865e-01
      6309       6320      1   0.166801  -0.282478     3.39967e-01     2.28865e-01
      6309       6324      1   0.166801  -0.282478     3.39967e-01     2.28865e-01
      6308       6315      1  -0.508176   0.204385     3.12501e-01     3.55640e-01
      6307       6312      1   1.339721  -0.142353     3.57072e-01     3.09446e-01
      6306       6330      1  -0.509480  -0.460790     3.00001e-01     3.55640e-01
      6306       6309      1  -0.509480   0.139001     3.19984e-01     2.85295e-01
      6303       6331      1   0.017459   0.748011     3.39967e-01     2.02918e-01
      6303       6308      1   0.017459  -0.423480     3.19984e-01     2.85295e-01
      6303       6328      1   0.017459  -0.729843     3.17980e-01     3.17088e-01
      6303       6329      1   0.017459  -0.729843     3.17980e-01     3.17088e-01
      6301       6307      1   0.281242   1.116434     3.57072e-01     3.09446e-01
      6301       6332      1   0.281242  -0.561462     3.17980e-01     3.17088e-01
      6301       6370      1   0.281242  -0.136833     3.39967e-01     2.28865e-01
      6298       6306      1   0.196939  -0.424567     3.19984e-01     2.85295e-01
      6298       6331      1   0.196939   0.748011     3.39967e-01     2.02918e-01
      6297       6303      1  -0.575489   0.014549     3.19984e-01     2.85295e-01
      6297       6330      1  -0.575489  -0.460790     3.00001e-01     3.55640e-01
      6296       6298      1  -0.671566   0.164116     3.17980e-01     3.17088e-01
      6295       6301      1   0.910403   0.234368     3.39967e-01     2.02918e-01
      6361       6370      1  -0.016521  -0.136833     3.39967e-01     7.62883e-02
      6358       6367      1  -0.027812  -0.002029     3.39967e-01     7.62883e-02
      6355       6364      1  -0.004386  -0.022462     3.39967e-01     7.62883e-02
      6352       6361      1  -0.026451  -0.013767     3.39967e-01     7.62883e-02
      6349       6358      1  -0.014653  -0.023177     3.39967e-01     7.62883e-02
      6346       6355      1  -0.021025  -0.003655     3.39967e-01     7.62883e-02
      6343       6352      1  -0.031787  -0.022042     3.39967e-01     7.62883e-02
      6340       6349      1  -0.028094  -0.012211     3.39967e-01     7.62883e-02
      6337       6346      1   0.017463  -0.017521     3.39967e-01     7.62883e-02
      6334       6343      1  -0.111712  -0.026489     3.39967e-01     7.62883e-02
      6410       6416      1  -0.164200   0.164116     3.39967e-01     2.28865e-01
      6407       6414      1  -0.002435  -0.559638     3.17980e-01     3.17088e-01
      6407       6415      1  -0.002435  -0.479574     3.19984e-01     2.85295e-01
      6404       6413      1  -0.026954   0.758669     3.39967e-01     2.02918e-01
      6401       6410      1  -0.016521  -0.136833     3.39967e-01     7.62883e-02
      6398       6407      1  -0.027812  -0.002029     3.39967e-01     7.62883e-02
      6395       6404      1  -0.004386  -0.022462     3.39967e-01     7.62883e-02
      6392       6401      1  -0.026451  -0.013767     3.39967e-01     7.62883e-02
      6389       6398      1  -0.014653  -0.023177     3.39967e-01     7.62883e-02
      6386       6395      1  -0.021025  -0.003655     3.39967e-01     7.62883e-02
      6383       6392      1  -0.031787  -0.022042     3.39967e-01     7.62883e-02
      6380       6389      1  -0.028094  -0.012211     3.39967e-01     7.62883e-02
      6377       6386      1   0.017463  -0.017521     3.39967e-01     7.62883e-02
      6374       6383      1  -0.111712  -0.026489     3.39967e-01     7.62883e-02
      6450       6485      1  -0.673755  -0.002029     3.17980e-01     3.17088e-01
      6449       6482      1   0.897613  -0.022462     3.39967e-01     2.02918e-01
      6448       6485      1  -0.552948  -0.002029     3.19984e-01     2.85295e-01
      6427       6446      1   0.166801  -0.729843     3.17980e-01     3.17088e-01
      6427       6447      1   0.166801  -0.729843     3.17980e-01     3.17088e-01
      6427       6434      1   0.166801  -0.282478     3.39967e-01     2.28865e-01
      6427       6438      1   0.166801  -0.282478     3.39967e-01     2.28865e-01
      6427       6442      1   0.166801  -0.282478     3.39967e-01     2.28865e-01
      6426       6433      1  -0.508176   0.204385     3.12501e-01     3.55640e-01
      6425       6430      1   1.339721  -0.142353     3.57072e-01     3.09446e-01
      6424       6448      1  -0.509480  -0.460790     3.00001e-01     3.55640e-01
      6424       6427      1  -0.509480   0.139001     3.19984e-01     2.85295e-01
      6421       6449      1   0.017459   0.748011     3.39967e-01     2.02918e-01
      6421       6426      1   0.017459  -0.423480     3.19984e-01     2.85295e-01
      6421       6446      1   0.017459  -0.729843     3.17980e-01     3.17088e-01
      6421       6447      1   0.017459  -0.729843     3.17980e-01     3.17088e-01
      6419       6425      1   0.281242   1.116434     3.57072e-01     3.09446e-01
      6419       6450      1   0.281242  -0.561462     3.17980e-01     3.17088e-01
      6419       6488      1   0.281242  -0.136833     3.39967e-01     2.28865e-01
      6416       6424      1   0.196939  -0.424567     3.19984e-01     2.85295e-01
      6416       6449      1   0.196939   0.748011     3.39967e-01     2.02918e-01
      6415       6421      1  -0.575489   0.014549     3.19984e-01     2.85295e-01
      6415       6448      1  -0.575489  -0.460790     3.00001e-01     3.55640e-01
      6414       6416      1  -0.671566   0.164116     3.17980e-01     3.17088e-01
      6413       6419      1   0.910403   0.234368     3.39967e-01     2.02918e-01
      6479       6488      1  -0.016521  -0.136833     3.39967e-01     7.62883e-02
      6476       6485      1  -0.027812  -0.002029     3.39967e-01     7.62883e-02
      6473       6482      1  -0.004386  -0.022462     3.39967e-01     7.62883e-02
      6470       6479      1  -0.026451  -0.013767     3.39967e-01     7.62883e-02
      6467       6476      1  -0.014653  -0.023177     3.39967e-01     7.62883e-02
      6464       6473      1  -0.021025  -0.003655     3.39967e-01     7.62883e-02
      6461       6470      1  -0.031787  -0.022042     3.39967e-01     7.62883e-02
      6458       6467      1  -0.028094  -0.012211     3.39967e-01     7.62883e-02
      6455       6464      1   0.017463  -0.017521     3.39967e-01     7.62883e-02
      6452       6461      1  -0.111712  -0.026489     3.39967e-01     7.62883e-02
      6528       6534      1  -0.164200   0.164116     3.39967e-01     2.28865e-01
      6525       6532      1  -0.002435  -0.559638     3.17980e-01     3.17088e-01
      6525       6533      1  -0.002435  -0.479574     3.19984e-01     2.85295e-01
      6522       6531      1  -0.026954   0.758669     3.39967e-01     2.02918e-01
      6519       6528      1  -0.016521  -0.136833     3.39967e-01     7.62883e-02
      6516       6525      1  -0.027812  -0.002029     3.39967e-01     7.62883e-02
      6513       6522      1  -0.004386  -0.022462     3.39967e-01     7.62883e-02
      6510       6519      1  -0.026451  -0.013767     3.39967e-01     7.62883e-02
      6507       6516      1  -0.014653  -0.023177     3.39967e-01     7.62883e-02
      6504       6513      1  -0.021025  -0.003655     3.39967e-01     7.62883e-02
      6501       6510      1  -0.031787  -0.022042     3.39967e-01     7.62883e-02
      6498       6507      1  -0.028094  -0.012211     3.39967e-01     7.62883e-02
      6495       6504      1   0.017463  -0.017521     3.39967e-01     7.62883e-02
      6492       6501      1  -0.111712  -0.026489     3.39967e-01     7.62883e-02
      6568       6603      1  -0.673755  -0.002029     3.17980e-01     3.17088e-01
      6567       6600      1   0.897613  -0.022462     3.39967e-01     2.02918e-01
      6566       6603      1  -0.552948  -0.002029     3.19984e-01     2.85295e-01
      6545       6564      1   0.166801  -0.729843     3.17980e-01     3.17088e-01
      6545       6565      1   0.166801  -0.729843     3.17980e-01     3.17088e-01
      6545       6552      1   0.166801  -0.282478     3.39967e-01     2.28865e-01
      6545       6556      1   0.166801  -0.282478     3.39967e-01     2.28865e-01
      6545       6560      1   0.166801  -0.282478     3.39967e-01     2.28865e-01
      6544       6551      1  -0.508176   0.204385     3.12501e-01     3.55640e-01
      6543       6548      1   1.339721  -0.142353     3.57072e-01     3.09446e-01
      6542       6566      1  -0.509480  -0.460790     3.00001e-01     3.55640e-01
      6542       6545      1  -0.509480   0.139001     3.19984e-01     2.85295e-01
      6539       6567      1   0.017459   0.748011     3.39967e-01     2.02918e-01
      6539       6544      1   0.017459  -0.423480     3.19984e-01     2.85295e-01
      6539       6564      1   0.017459  -0.729843     3.17980e-01     3.17088e-01
      6539       6565      1   0.017459  -0.729843     3.17980e-01     3.17088e-01
      6537       6543      1   0.281242   1.116434     3.57072e-01     3.09446e-01
      6537       6568      1   0.281242  -0.561462     3.17980e-01     3.17088e-01
      6537       6606      1   0.281242  -0.136833     3.39967e-01     2.28865e-01
      6534       6542      1   0.196939  -0.424567     3.19984e-01     2.85295e-01
      6534       6567      1   0.196939   0.748011     3.39967e-01     2.02918e-01
      6533       6539      1  -0.575489   0.014549     3.19984e-01     2.85295e-01
      6533       6566      1  -0.575489  -0.460790     3.00001e-01     3.55640e-01
      6532       6534      1  -0.671566   0.164116     3.17980e-01     3.17088e-01
      6531       6537      1   0.910403   0.234368     3.39967e-01     2.02918e-01
      6597       6606      1  -0.016521  -0.136833     3.39967e-01     7.62883e-02
      6594       6603      1  -0.027812  -0.002029     3.39967e-01     7.62883e-02
      6591       6600      1  -0.004386  -0.022462     3.39967e-01     7.62883e-02
      6588       6597      1  -0.026451  -0.013767     3.39967e-01     7.62883e-02
      6585       6594      1  -0.014653  -0.023177     3.39967e-01     7.62883e-02
      6582       6591      1  -0.021025  -0.003655     3.39967e-01     7.62883e-02
      6579       6588      1  -0.031787  -0.022042     3.39967e-01     7.62883e-02
      6576       6585      1  -0.028094  -0.012211     3.39967e-01     7.62883e-02
      6573       6582      1   0.017463  -0.017521     3.39967e-01     7.62883e-02
      6570       6579      1  -0.111712  -0.026489     3.39967e-01     7.62883e-02
      6646       6652      1  -0.164200   0.164116     3.39967e-01     2.28865e-01
      6643       6650      1  -0.002435  -0.559638     3.17980e-01     3.17088e-01
      6643       6651      1  -0.002435  -0.479574     3.19984e-01     2.85295e-01
      6640       6649      1  -0.026954   0.758669     3.39967e-01     2.02918e-01
      6637       6646      1  -0.016521  -0.136833     3.39967e-01     7.62883e-02
      6634       6643      1  -0.027812  -0.002029     3.39967e-01     7.62883e-02
      6631       6640      1  -0.004386  -0.022462     3.39967e-01     7.62883e-02
      6628       6637      1  -0.026451  -0.013767     3.39967e-01     7.62883e-02
      6625       6634      1  -0.014653  -0.023177     3.39967e-01     7.62883e-02
      6622       6631      1  -0.021025  -0.003655     3.39967e-01     7.62883e-02
      6619       6628      1  -0.031787  -0.022042     3.39967e-01     7.62883e-02
      6616       6625      1  -0.028094  -0.012211     3.39967e-01     7.62883e-02
      6613       6622      1   0.017463  -0.017521     3.39967e-01     7.62883e-02
      6610       6619      1  -0.111712  -0.026489     3.39967e-01     7.62883e-02
      6686       6721      1  -0.673755  -0.002029     3.17980e-01     3.17088e-01
      6685       6718      1   0.897613  -0.022462     3.39967e-01     2.02918e-01
      6684       6721      1  -0.552948  -0.002029     3.19984e-01     2.85295e-01
      6663       6682      1   0.166801  -0.729843     3.17980e-01     3.17088e-01
      6663       6683      1   0.166801  -0.729843     3.17980e-01     3.17088e-01
      6663       6670      1   0.166801  -0.282478     3.39967e-01     2.28865e-01
      6663       6674      1   0.166801  -0.282478     3.39967e-01     2.28865e-01
      6663       6678      1   0.166801  -0.282478     3.39967e-01     2.28865e-01
      6662       6669      1  -0.508176   0.204385     3.12501e-01     3.55640e-01
      6661       6666      1   1.339721  -0.142353     3.57072e-01     3.09446e-01
      6660       6684      1  -0.509480  -0.460790     3.00001e-01     3.55640e-01
      6660       6663      1  -0.509480   0.139001     3.19984e-01     2.85295e-01
      6657       6685      1   0.017459   0.748011     3.39967e-01     2.02918e-01
      6657       6662      1   0.017459  -0.423480     3.19984e-01     2.85295e-01
      6657       6682      1   0.017459  -0.729843     3.17980e-01     3.17088e-01
      6657       6683      1   0.017459  -0.729843     3.17980e-01     3.17088e-01
      6655       6661      1   0.281242   1.116434     3.57072e-01     3.09446e-01
      6655       6686      1   0.281242  -0.561462     3.17980e-01     3.17088e-01
      6655       6724      1   0.281242  -0.136833     3.39967e-01     2.28865e-01
      6652       6660      1   0.196939  -0.424567     3.19984e-01     2.85295e-01
      6652       6685      1   0.196939   0.748011     3.39967e-01     2.02918e-01
      6651       6657      1  -0.575489   0.014549     3.19984e-01     2.85295e-01
      6651       6684      1  -0.575489  -0.460790     3.00001e-01     3.55640e-01
      6650       6652      1  -0.671566   0.164116     3.17980e-01     3.17088e-01
      6649       6655      1   0.910403   0.234368     3.39967e-01     2.02918e-01
      6715       6724      1  -0.016521  -0.136833     3.39967e-01     7.62883e-02
      6712       6721      1  -0.027812  -0.002029     3.39967e-01     7.62883e-02
      6709       6718      1  -0.004386  -0.022462     3.39967e-01     7.62883e-02
      6706       6715      1  -0.026451  -0.013767     3.39967e-01     7.62883e-02
      6703       6712      1  -0.014653  -0.023177     3.39967e-01     7.62883e-02
      6700       6709      1  -0.021025  -0.003655     3.39967e-01     7.62883e-02
      6697       6706      1  -0.031787  -0.022042     3.39967e-01     7.62883e-02
      6694       6703      1  -0.028094  -0.012211     3.39967e-01     7.62883e-02
      6691       6700      1   0.017463  -0.017521     3.39967e-01     7.62883e-02
      6688       6697      1  -0.111712  -0.026489     3.39967e-01     7.62883e-02
      6764       6770      1  -0.164200   0.164116     3.39967e-01     2.28865e-01
      6761       6768      1  -0.002435  -0.559638     3.17980e-01     3.17088e-01
      6761       6769      1  -0.002435  -0.479574     3.19984e-01     2.85295e-01
      6758       6767      1  -0.026954   0.758669     3.39967e-01     2.02918e-01
      6755       6764      1  -0.016521  -0.136833     3.39967e-01     7.62883e-02
      6752       6761      1  -0.027812  -0.002029     3.39967e-01     7.62883e-02
      6749       6758      1  -0.004386  -0.022462     3.39967e-01     7.62883e-02
      6746       6755      1  -0.026451  -0.013767     3.39967e-01     7.62883e-02
      6743       6752      1  -0.014653  -0.023177     3.39967e-01     7.62883e-02
      6740       6749      1  -0.021025  -0.003655     3.39967e-01     7.62883e-02
      6737       6746      1  -0.031787  -0.022042     3.39967e-01     7.62883e-02
      6734       6743      1  -0.028094  -0.012211     3.39967e-01     7.62883e-02
      6731       6740      1   0.017463  -0.017521     3.39967e-01     7.62883e-02
      6728       6737      1  -0.111712  -0.026489     3.39967e-01     7.62883e-02
      6804       6839      1  -0.673755  -0.002029     3.17980e-01     3.17088e-01
      6803       6836      1   0.897613  -0.022462     3.39967e-01     2.02918e-01
      6802       6839      1  -0.552948  -0.002029     3.19984e-01     2.85295e-01
      6781       6800      1   0.166801  -0.729843     3.17980e-01     3.17088e-01
      6781       6801      1   0.166801  -0.729843     3.17980e-01     3.17088e-01
      6781       6788      1   0.166801  -0.282478     3.39967e-01     2.28865e-01
      6781       6792      1   0.166801  -0.282478     3.39967e-01     2.28865e-01
      6781       6796      1   0.166801  -0.282478     3.39967e-01     2.28865e-01
      6780       6787      1  -0.508176   0.204385     3.12501e-01     3.55640e-01
      6779       6784      1   1.339721  -0.142353     3.57072e-01     3.09446e-01
      6778       6802      1  -0.509480  -0.460790     3.00001e-01     3.55640e-01
      6778       6781      1  -0.509480   0.139001     3.19984e-01     2.85295e-01
      6775       6803      1   0.017459   0.748011     3.39967e-01     2.02918e-01
      6775       6780      1   0.017459  -0.423480     3.19984e-01     2.85295e-01
      6775       6800      1   0.017459  -0.729843     3.17980e-01     3.17088e-01
      6775       6801      1   0.017459  -0.729843     3.17980e-01     3.17088e-01
      6773       6779      1   0.281242   1.116434     3.57072e-01     3.09446e-01
      6773       6804      1   0.281242  -0.561462     3.17980e-01     3.17088e-01
      6773       6842      1   0.281242  -0.136833     3.39967e-01     2.28865e-01
      6770       6778      1   0.196939  -0.424567     3.19984e-01     2.85295e-01
      6770       6803      1   0.196939   0.748011     3.39967e-01     2.02918e-01
      6769       6775      1  -0.575489   0.014549     3.19984e-01     2.85295e-01
      6769       6802      1  -0.575489  -0.460790     3.00001e-01     3.55640e-01
      6768       6770      1  -0.671566   0.164116     3.17980e-01     3.17088e-01
      6767       6773      1   0.910403   0.234368     3.39967e-01     2.02918e-01
      6833       6842      1  -0.016521  -0.136833     3.39967e-01     7.62883e-02
      6830       6839      1  -0.027812  -0.002029     3.39967e-01     7.62883e-02
      6827       6836      1  -0.004386  -0.022462     3.39967e-01     7.62883e-02
      6824       6833      1  -0.026451  -0.013767     3.39967e-01     7.62883e-02
      6821       6830      1  -0.014653  -0.023177     3.39967e-01     7.62883e-02
      6818       6827      1  -0.021025  -0.003655     3.39967e-01     7.62883e-02
      6815       6824      1  -0.031787  -0.022042     3.39967e-01     7.62883e-02
      6812       6821      1  -0.028094  -0.012211     3.39967e-01     7.62883e-02
      6809       6818      1   0.017463  -0.017521     3.39967e-01     7.62883e-02
      6806       6815      1  -0.111712  -0.026489     3.39967e-01     7.62883e-02
      6882       6888      1  -0.164200   0.164116     3.39967e-01     2.28865e-01
      6879       6886      1  -0.002435  -0.559638     3.17980e-01     3.17088e-01
      6879       6887      1  -0.002435  -0.479574     3.19984e-01     2.85295e-01
      6876       6885      1  -0.026954   0.758669     3.39967e-01     2.02918e-01
      6873       6882      1  -0.016521  -0.136833     3.39967e-01     7.62883e-02
      6870       6879      1  -0.027812  -0.002029     3.39967e-01     7.62883e-02
      6867       6876      1  -0.004386  -0.022462     3.39967e-01     7.62883e-02
      6864       6873      1  -0.026451  -0.013767     3.39967e-01     7.62883e-02
      6861       6870      1  -0.014653  -0.023177     3.39967e-01     7.62883e-02
      6858       6867      1  -0.021025  -0.003655     3.39967e-01     7.62883e-02
      6855       6864      1  -0.031787  -0.022042     3.39967e-01     7.62883e-02
      6852       6861      1  -0.028094  -0.012211     3.39967e-01     7.62883e-02
      6849       6858      1   0.017463  -0.017521     3.39967e-01     7.62883e-02
      6846       6855      1  -0.111712  -0.026489     3.39967e-01     7.62883e-02
      6922       6957      1  -0.673755  -0.002029     3.17980e-01     3.17088e-01
      6921       6954      1   0.897613  -0.022462     3.39967e-01     2.02918e-01
      6920       6957      1  -0.552948  -0.002029     3.19984e-01     2.85295e-01
      6899       6918      1   0.166801  -0.729843     3.17980e-01     3.17088e-01
      6899       6919      1   0.166801  -0.729843     3.17980e-01     3.17088e-01
      6899       6906      1   0.166801  -0.282478     3.39967e-01     2.28865e-01
      6899       6910      1   0.166801  -0.282478     3.39967e-01     2.28865e-01
      6899       6914      1   0.166801  -0.282478     3.39967e-01     2.28865e-01
      6898       6905      1  -0.508176   0.204385     3.12501e-01     3.55640e-01
      6897       6902      1   1.339721  -0.142353     3.57072e-01     3.09446e-01
      6896       6920      1  -0.509480  -0.460790     3.00001e-01     3.55640e-01
      6896       6899      1  -0.509480   0.139001     3.19984e-01     2.85295e-01
      6893       6921      1   0.017459   0.748011     3.39967e-01     2.02918e-01
      6893       6898      1   0.017459  -0.423480     3.19984e-01     2.85295e-01
      6893       6918      1   0.017459  -0.729843     3.17980e-01     3.17088e-01
      6893       6919      1   0.017459  -0.729843     3.17980e-01     3.17088e-01
      6891       6897      1   0.281242   1.116434     3.57072e-01     3.09446e-01
      6891       6922      1   0.281242  -0.561462     3.17980e-01     3.17088e-01
      6891       6960      1   0.281242  -0.136833     3.39967e-01     2.28865e-01
      6888       6896      1   0.196939  -0.424567     3.19984e-01     2.85295e-01
      6888       6921      1   0.196939   0.748011     3.39967e-01     2.02918e-01
      6887       6893      1  -0.575489   0.014549     3.19984e-01     2.85295e-01
      6887       6920      1  -0.575489  -0.460790     3.00001e-01     3.55640e-01
      6886       6888      1  -0.671566   0.164116     3.17980e-01     3.17088e-01
      6885       6891      1   0.910403   0.234368     3.39967e-01     2.02918e-01
      6951       6960      1  -0.016521  -0.136833     3.39967e-01     7.62883e-02
      6948       6957      1  -0.027812  -0.002029     3.39967e-01     7.62883e-02
      6945       6954      1  -0.004386  -0.022462     3.39967e-01     7.62883e-02
      6942       6951      1  -0.026451  -0.013767     3.39967e-01     7.62883e-02
      6939       6948      1  -0.014653  -0.023177     3.39967e-01     7.62883e-02
      6936       6945      1  -0.021025  -0.003655     3.39967e-01     7.62883e-02
      6933       6942      1  -0.031787  -0.022042     3.39967e-01     7.62883e-02
      6930       6939      1  -0.028094  -0.012211     3.39967e-01     7.62883e-02
      6927       6936      1   0.017463  -0.017521     3.39967e-01     7.62883e-02
      6924       6933      1  -0.111712  -0.026489     3.39967e-01     7.62883e-02
      7000       7006      1  -0.164200   0.164116     3.39967e-01     2.28865e-01
      6997       7004      1  -0.002435  -0.559638     3.17980e-01     3.17088e-01
      6997       7005      1  -0.002435  -0.479574     3.19984e-01     2.85295e-01
      6994       7003      1  -0.026954   0.758669     3.39967e-01     2.02918e-01
      6991       7000      1  -0.016521  -0.136833     3.39967e-01     7.62883e-02
      6988       6997      1  -0.027812  -0.002029     3.39967e-01     7.62883e-02
      6985       6994      1  -0.004386  -0.022462     3.39967e-01     7.62883e-02
      6982       6991      1  -0.026451  -0.013767     3.39967e-01     7.62883e-02
      6979       6988      1  -0.014653  -0.023177     3.39967e-01     7.62883e-02
      6976       6985      1  -0.021025  -0.003655     3.39967e-01     7.62883e-02
      6973       6982      1  -0.031787  -0.022042     3.39967e-01     7.62883e-02
      6970       6979      1  -0.028094  -0.012211     3.39967e-01     7.62883e-02
      6967       6976      1   0.017463  -0.017521     3.39967e-01     7.62883e-02
      6964       6973      1  -0.111712  -0.026489     3.39967e-01     7.62883e-02
      7040       7075      1  -0.673755  -0.002029     3.17980e-01     3.17088e-01
      7039       7072      1   0.897613  -0.022462     3.39967e-01     2.02918e-01
      7038       7075      1  -0.552948  -0.002029     3.19984e-01     2.85295e-01
      7017       7036      1   0.166801  -0.729843     3.17980e-01     3.17088e-01
      7017       7037      1   0.166801  -0.729843     3.17980e-01     3.17088e-01
      7017       7024      1   0.166801  -0.282478     3.39967e-01     2.28865e-01
      7017       7028      1   0.166801  -0.282478     3.39967e-01     2.28865e-01
      7017       7032      1   0.166801  -0.282478     3.39967e-01     2.28865e-01
      7016       7023      1  -0.508176   0.204385     3.12501e-01     3.55640e-01
      7015       7020      1   1.339721  -0.142353     3.57072e-01     3.09446e-01
      7014       7038      1  -0.509480  -0.460790     3.00001e-01     3.55640e-01
      7014       7017      1  -0.509480   0.139001     3.19984e-01     2.85295e-01
      7011       7039      1   0.017459   0.748011     3.39967e-01     2.02918e-01
      7011       7016      1   0.017459  -0.423480     3.19984e-01     2.85295e-01
      7011       7036      1   0.017459  -0.729843     3.17980e-01     3.17088e-01
      7011       7037      1   0.017459  -0.729843     3.17980e-01     3.17088e-01
      7009       7015      1   0.281242   1.116434     3.57072e-01     3.09446e-01
      7009       7040      1   0.281242  -0.561462     3.17980e-01     3.17088e-01
      7009       7078      1   0.281242  -0.136833     3.39967e-01     2.28865e-01
      7006       7014      1   0.196939  -0.424567     3.19984e-01     2.85295e-01
      7006       7039      1   0.196939   0.748011     3.39967e-01     2.02918e-01
      7005       7011      1  -0.575489   0.014549     3.19984e-01     2.85295e-01
      7005       7038      1  -0.575489  -0.460790     3.00001e-01     3.55640e-01
      7004       7006      1  -0.671566   0.164116     3.17980e-01     3.17088e-01
      7003       7009      1   0.910403   0.234368     3.39967e-01     2.02918e-01
      7069       7078      1  -0.016521  -0.136833     3.39967e-01     7.62883e-02
      7066       7075      1  -0.027812  -0.002029     3.39967e-01     7.62883e-02
      7063       7072      1  -0.004386  -0.022462     3.39967e-01     7.62883e-02
      7060       7069      1  -0.026451  -0.013767     3.39967e-01     7.62883e-02
      7057       7066      1  -0.014653  -0.023177     3.39967e-01     7.62883e-02
      7054       7063      1  -0.021025  -0.003655     3.39967e-01     7.62883e-02
      7051       7060      1  -0.031787  -0.022042     3.39967e-01     7.62883e-02
      7048       7057      1  -0.028094  -0.012211     3.39967e-01     7.62883e-02
      7045       7054      1   0.017463  -0.017521     3.39967e-01     7.62883e-02
      7042       7051      1  -0.111712  -0.026489     3.39967e-01     7.62883e-02
      7118       7124      1  -0.164200   0.164116     3.39967e-01     2.28865e-01
      7115       7122      1  -0.002435  -0.559638     3.17980e-01     3.17088e-01
      7115       7123      1  -0.002435  -0.479574     3.19984e-01     2.85295e-01
      7112       7121      1  -0.026954   0.758669     3.39967e-01     2.02918e-01
      7109       7118      1  -0.016521  -0.136833     3.39967e-01     7.62883e-02
      7106       7115      1  -0.027812  -0.002029     3.39967e-01     7.62883e-02
      7103       7112      1  -0.004386  -0.022462     3.39967e-01     7.62883e-02
      7100       7109      1  -0.026451  -0.013767     3.39967e-01     7.62883e-02
      7097       7106      1  -0.014653  -0.023177     3.39967e-01     7.62883e-02
      7094       7103      1  -0.021025  -0.003655     3.39967e-01     7.62883e-02
      7091       7100      1  -0.031787  -0.022042     3.39967e-01     7.62883e-02
      7088       7097      1  -0.028094  -0.012211     3.39967e-01     7.62883e-02
      7085       7094      1   0.017463  -0.017521     3.39967e-01     7.62883e-02
      7082       7091      1  -0.111712  -0.026489     3.39967e-01     7.62883e-02
      7158       7193      1  -0.673755  -0.002029     3.17980e-01     3.17088e-01
      7157       7190      1   0.897613  -0.022462     3.39967e-01     2.02918e-01
      7156       7193      1  -0.552948  -0.002029     3.19984e-01     2.85295e-01
      7135       7154      1   0.166801  -0.729843     3.17980e-01     3.17088e-01
      7135       7155      1   0.166801  -0.729843     3.17980e-01     3.17088e-01
      7135       7142      1   0.166801  -0.282478     3.39967e-01     2.28865e-01
      7135       7146      1   0.166801  -0.282478     3.39967e-01     2.28865e-01
      7135       7150      1   0.166801  -0.282478     3.39967e-01     2.28865e-01
      7134       7141      1  -0.508176   0.204385     3.12501e-01     3.55640e-01
      7133       7138      1   1.339721  -0.142353     3.57072e-01     3.09446e-01
      7132       7156      1  -0.509480  -0.460790     3.00001e-01     3.55640e-01
      7132       7135      1  -0.509480   0.139001     3.19984e-01     2.85295e-01
      7129       7157      1   0.017459   0.748011     3.39967e-01     2.02918e-01
      7129       7134      1   0.017459  -0.423480     3.19984e-01     2.85295e-01
      7129       7154      1   0.017459  -0.729843     3.17980e-01     3.17088e-01
      7129       7155      1   0.017459  -0.729843     3.17980e-01     3.17088e-01
      7127       7133      1   0.281242   1.116434     3.57072e-01     3.09446e-01
      7127       7158      1   0.281242  -0.561462     3.17980e-01     3.17088e-01
      7127       7196      1   0.281242  -0.136833     3.39967e-01     2.28865e-01
      7124       7132      1   0.196939  -0.424567     3.19984e-01     2.85295e-01
      7124       7157      1   0.196939   0.748011     3.39967e-01     2.02918e-01
      7123       7129      1  -0.575489   0.014549     3.19984e-01     2.85295e-01
      7123       7156      1  -0.575489  -0.460790     3.00001e-01     3.55640e-01
      7122       7124      1  -0.671566   0.164116     3.17980e-01     3.17088e-01
      7121       7127      1   0.910403   0.234368     3.39967e-01     2.02918e-01
      7187       7196      1  -0.016521  -0.136833     3.39967e-01     7.62883e-02
      7184       7193      1  -0.027812  -0.002029     3.39967e-01     7.62883e-02
      7181       7190      1  -0.004386  -0.022462     3.39967e-01     7.62883e-02
      7178       7187      1  -0.026451  -0.013767     3.39967e-01     7.62883e-02
      7175       7184      1  -0.014653  -0.023177     3.39967e-01     7.62883e-02
      7172       7181      1  -0.021025  -0.003655     3.39967e-01     7.62883e-02
      7169       7178      1  -0.031787  -0.022042     3.39967e-01     7.62883e-02
      7166       7175      1  -0.028094  -0.012211     3.39967e-01     7.62883e-02
      7163       7172      1   0.017463  -0.017521     3.39967e-01     7.62883e-02
      7160       7169      1  -0.111712  -0.026489     3.39967e-01     7.62883e-02
      7236       7242      1  -0.164200   0.164116     3.39967e-01     2.28865e-01
      7233       7240      1  -0.002435  -0.559638     3.17980e-01     3.17088e-01
      7233       7241      1  -0.002435  -0.479574     3.19984e-01     2.85295e-01
      7230       7239      1  -0.026954   0.758669     3.39967e-01     2.02918e-01
      7227       7236      1  -0.016521  -0.136833     3.39967e-01     7.62883e-02
      7224       7233      1  -0.027812  -0.002029     3.39967e-01     7.62883e-02
      7221       7230      1  -0.004386  -0.022462     3.39967e-01     7.62883e-02
      7218       7227      1  -0.026451  -0.013767     3.39967e-01     7.62883e-02
      7215       7224      1  -0.014653  -0.023177     3.39967e-01     7.62883e-02
      7212       7221      1  -0.021025  -0.003655     3.39967e-01     7.62883e-02
      7209       7218      1  -0.031787  -0.022042     3.39967e-01     7.62883e-02
      7206       7215      1  -0.028094  -0.012211     3.39967e-01     7.62883e-02
      7203       7212      1   0.017463  -0.017521     3.39967e-01     7.62883e-02
      7200       7209      1  -0.111712  -0.026489     3.39967e-01     7.62883e-02
      7276       7311      1  -0.673755  -0.002029     3.17980e-01     3.17088e-01
      7275       7308      1   0.897613  -0.022462     3.39967e-01     2.02918e-01
      7274       7311      1  -0.552948  -0.002029     3.19984e-01     2.85295e-01
      7253       7272      1   0.166801  -0.729843     3.17980e-01     3.17088e-01
      7253       7273      1   0.166801  -0.729843     3.17980e-01     3.17088e-01
      7253       7260      1   0.166801  -0.282478     3.39967e-01     2.28865e-01
      7253       7264      1   0.166801  -0.282478     3.39967e-01     2.28865e-01
      7253       7268      1   0.166801  -0.282478     3.39967e-01     2.28865e-01
      7252       7259      1  -0.508176   0.204385     3.12501e-01     3.55640e-01
      7251       7256      1   1.339721  -0.142353     3.57072e-01     3.09446e-01
      7250       7274      1  -0.509480  -0.460790     3.00001e-01     3.55640e-01
      7250       7253      1  -0.509480   0.139001     3.19984e-01     2.85295e-01
      7247       7275      1   0.017459   0.748011     3.39967e-01     2.02918e-01
      7247       7252      1   0.017459  -0.423480     3.19984e-01     2.85295e-01
      7247       7272      1   0.017459  -0.729843     3.17980e-01     3.17088e-01
      7247       7273      1   0.017459  -0.729843     3.17980e-01     3.17088e-01
      7245       7251      1   0.281242   1.116434     3.57072e-01     3.09446e-01
      7245       7276      1   0.281242  -0.561462     3.17980e-01     3.17088e-01
      7245       7314      1   0.281242  -0.136833     3.39967e-01     2.28865e-01
      7242       7250      1   0.196939  -0.424567     3.19984e-01     2.85295e-01
      7242       7275      1   0.196939   0.748011     3.39967e-01     2.02918e-01
      7241       7247      1  -0.575489   0.014549     3.19984e-01     2.85295e-01
      7241       7274      1  -0.575489  -0.460790     3.00001e-01     3.55640e-01
      7240       7242      1  -0.671566   0.164116     3.17980e-01     3.17088e-01
      7239       7245      1   0.910403   0.234368     3.39967e-01     2.02918e-01
      7305       7314      1  -0.016521  -0.136833     3.39967e-01     7.62883e-02
      7302       7311      1  -0.027812  -0.002029     3.39967e-01     7.62883e-02
      7299       7308      1  -0.004386  -0.022462     3.39967e-01     7.62883e-02
      7296       7305      1  -0.026451  -0.013767     3.39967e-01     7.62883e-02
      7293       7302      1  -0.014653  -0.023177     3.39967e-01     7.62883e-02
      7290       7299      1  -0.021025  -0.003655     3.39967e-01     7.62883e-02
      7287       7296      1  -0.031787  -0.022042     3.39967e-01     7.62883e-02
      7284       7293      1  -0.028094  -0.012211     3.39967e-01     7.62883e-02
      7281       7290      1   0.017463  -0.017521     3.39967e-01     7.62883e-02
      7278       7287      1  -0.111712  -0.026489     3.39967e-01     7.62883e-02
      7354       7360      1  -0.164200   0.164116     3.39967e-01     2.28865e-01
      7351       7358      1  -0.002435  -0.559638     3.17980e-01     3.17088e-01
      7351       7359      1  -0.002435  -0.479574     3.19984e-01     2.85295e-01
      7348       7357      1  -0.026954   0.758669     3.39967e-01     2.02918e-01
      7345       7354      1  -0.016521  -0.136833     3.39967e-01     7.62883e-02
      7342       7351      1  -0.027812  -0.002029     3.39967e-01     7.62883e-02
      7339       7348      1  -0.004386  -0.022462     3.39967e-01     7.62883e-02
      7336       7345      1  -0.026451  -0.013767     3.39967e-01     7.62883e-02
      7333       7342      1  -0.014653  -0.023177     3.39967e-01     7.62883e-02
      7330       7339      1  -0.021025  -0.003655     3.39967e-01     7.62883e-02
      7327       7336      1  -0.031787  -0.022042     3.39967e-01     7.62883e-02
      7324       7333      1  -0.028094  -0.012211     3.39967e-01     7.62883e-02
      7321       7330      1   0.017463  -0.017521     3.39967e-01     7.62883e-02
      7318       7327      1  -0.111712  -0.026489     3.39967e-01     7.62883e-02
      7394       7429      1  -0.673755  -0.002029     3.17980e-01     3.17088e-01
      7393       7426      1   0.897613  -0.022462     3.39967e-01     2.02918e-01
      7392       7429      1  -0.552948  -0.002029     3.19984e-01     2.85295e-01
      7371       7390      1   0.166801  -0.729843     3.17980e-01     3.17088e-01
      7371       7391      1   0.166801  -0.729843     3.17980e-01     3.17088e-01
      7371       7378      1   0.166801  -0.282478     3.39967e-01     2.28865e-01
      7371       7382      1   0.166801  -0.282478     3.39967e-01     2.28865e-01
      7371       7386      1   0.166801  -0.282478     3.39967e-01     2.28865e-01
      7370       7377      1  -0.508176   0.204385     3.12501e-01     3.55640e-01
      7369       7374      1   1.339721  -0.142353     3.57072e-01     3.09446e-01
      7368       7392      1  -0.509480  -0.460790     3.00001e-01     3.55640e-01
      7368       7371      1  -0.509480   0.139001     3.19984e-01     2.85295e-01
      7365       7393      1   0.017459   0.748011     3.39967e-01     2.02918e-01
      7365       7370      1   0.017459  -0.423480     3.19984e-01     2.85295e-01
      7365       7390      1   0.017459  -0.729843     3.17980e-01     3.17088e-01
      7365       7391      1   0.017459  -0.729843     3.17980e-01     3.17088e-01
      7363       7369      1   0.281242   1.116434     3.57072e-01     3.09446e-01
      7363       7394      1   0.281242  -0.561462     3.17980e-01     3.17088e-01
      7363       7432      1   0.281242  -0.136833     3.39967e-01     2.28865e-01
      7360       7368      1   0.196939  -0.424567     3.19984e-01     2.85295e-01
      7360       7393      1   0.196939   0.748011     3.39967e-01     2.02918e-01
      7359       7365      1  -0.575489   0.014549     3.19984e-01     2.85295e-01
      7359       7392      1  -0.575489  -0.460790     3.00001e-01     3.55640e-01
      7358       7360      1  -0.671566   0.164116     3.17980e-01     3.17088e-01
      7357       7363      1   0.910403   0.234368     3.39967e-01     2.02918e-01
      7423       7432      1  -0.016521  -0.136833     3.39967e-01     7.62883e-02
      7420       7429      1  -0.027812  -0.002029     3.39967e-01     7.62883e-02
      7417       7426      1  -0.004386  -0.022462     3.39967e-01     7.62883e-02
      7414       7423      1  -0.026451  -0.013767     3.39967e-01     7.62883e-02
      7411       7420      1  -0.014653  -0.023177     3.39967e-01     7.62883e-02
      7408       7417      1  -0.021025  -0.003655     3.39967e-01     7.62883e-02
      7405       7414      1  -0.031787  -0.022042     3.39967e-01     7.62883e-02
      7402       7411      1  -0.028094  -0.012211     3.39967e-01     7.62883e-02
      7399       7408      1   0.017463  -0.017521     3.39967e-01     7.62883e-02
      7396       7405      1  -0.111712  -0.026489     3.39967e-01     7.62883e-02
      7472       7478      1  -0.164200   0.164116     3.39967e-01     2.28865e-01
      7469       7476      1  -0.002435  -0.559638     3.17980e-01     3.17088e-01
      7469       7477      1  -0.002435  -0.479574     3.19984e-01     2.85295e-01
      7466       7475      1  -0.026954   0.758669     3.39967e-01     2.02918e-01
      7463       7472      1  -0.016521  -0.136833     3.39967e-01     7.62883e-02
      7460       7469      1  -0.027812  -0.002029     3.39967e-01     7.62883e-02
      7457       7466      1  -0.004386  -0.022462     3.39967e-01     7.62883e-02
      7454       7463      1  -0.026451  -0.013767     3.39967e-01     7.62883e-02
      7451       7460      1  -0.014653  -0.023177     3.39967e-01     7.62883e-02
      7448       7457      1  -0.021025  -0.003655     3.39967e-01     7.62883e-02
      7445       7454      1  -0.031787  -0.022042     3.39967e-01     7.62883e-02
      7442       7451      1  -0.028094  -0.012211     3.39967e-01     7.62883e-02
      7439       7448      1   0.017463  -0.017521     3.39967e-01     7.62883e-02
      7436       7445      1  -0.111712  -0.026489     3.39967e-01     7.62883e-02
      7512       7547      1  -0.673755  -0.002029     3.17980e-01     3.17088e-01
      7511       7544      1   0.897613  -0.022462     3.39967e-01     2.02918e-01
      7510       7547      1  -0.552948  -0.002029     3.19984e-01     2.85295e-01
      7489       7508      1   0.166801  -0.729843     3.17980e-01     3.17088e-01
      7489       7509      1   0.166801  -0.729843     3.17980e-01     3.17088e-01
      7489       7496      1   0.166801  -0.282478     3.39967e-01     2.28865e-01
      7489       7500      1   0.166801  -0.282478     3.39967e-01     2.28865e-01
      7489       7504      1   0.166801  -0.282478     3.39967e-01     2.28865e-01
      7488       7495      1  -0.508176   0.204385     3.12501e-01     3.55640e-01
      7487       7492      1   1.339721  -0.142353     3.57072e-01     3.09446e-01
      7486       7510      1  -0.509480  -0.460790     3.00001e-01     3.55640e-01
      7486       7489      1  -0.509480   0.139001     3.19984e-01     2.85295e-01
      7483       7511      1   0.017459   0.748011     3.39967e-01     2.02918e-01
      7483       7488      1   0.017459  -0.423480     3.19984e-01     2.85295e-01
      7483       7508      1   0.017459  -0.729843     3.17980e-01     3.17088e-01
      7483       7509      1   0.017459  -0.729843     3.17980e-01     3.17088e-01
      7481       7487      1   0.281242   1.116434     3.57072e-01     3.09446e-01
      7481       7512      1   0.281242  -0.561462     3.17980e-01     3.17088e-01
      7481       7550      1   0.281242  -0.136833     3.39967e-01     2.28865e-01
      7478       7486      1   0.196939  -0.424567     3.19984e-01     2.85295e-01
      7478       7511      1   0.196939   0.748011     3.39967e-01     2.02918e-01
      7477       7483      1  -0.575489   0.014549     3.19984e-01     2.85295e-01
      7477       7510      1  -0.575489  -0.460790     3.00001e-01     3.55640e-01
      7476       7478      1  -0.671566   0.164116     3.17980e-01     3.17088e-01
      7475       7481      1   0.910403   0.234368     3.39967e-01     2.02918e-01
      7541       7550      1  -0.016521  -0.136833     3.39967e-01     7.62883e-02
      7538       7547      1  -0.027812  -0.002029     3.39967e-01     7.62883e-02
      7535       7544      1  -0.004386  -0.022462     3.39967e-01     7.62883e-02
      7532       7541      1  -0.026451  -0.013767     3.39967e-01     7.62883e-02
      7529       7538      1  -0.014653  -0.023177     3.39967e-01     7.62883e-02
      7526       7535      1  -0.021025  -0.003655     3.39967e-01     7.62883e-02
      7523       7532      1  -0.031787  -0.022042     3.39967e-01     7.62883e-02
      7520       7529      1  -0.028094  -0.012211     3.39967e-01     7.62883e-02
      7517       7526      1   0.017463  -0.017521     3.39967e-01     7.62883e-02
      7514       7523      1  -0.111712  -0.026489     3.39967e-01     7.62883e-02
      7590       7596      1  -0.164200   0.164116     3.39967e-01     2.28865e-01
      7587       7594      1  -0.002435  -0.559638     3.17980e-01     3.17088e-01
      7587       7595      1  -0.002435  -0.479574     3.19984e-01     2.85295e-01
      7584       7593      1  -0.026954   0.758669     3.39967e-01     2.02918e-01
      7581       7590      1  -0.016521  -0.136833     3.39967e-01     7.62883e-02
      7578       7587      1  -0.027812  -0.002029     3.39967e-01     7.62883e-02
      7575       7584      1  -0.004386  -0.022462     3.39967e-01     7.62883e-02
      7572       7581      1  -0.026451  -0.013767     3.39967e-01     7.62883e-02
      7569       7578      1  -0.014653  -0.023177     3.39967e-01     7.62883e-02
      7566       7575      1  -0.021025  -0.003655     3.39967e-01     7.62883e-02
      7563       7572      1  -0.031787  -0.022042     3.39967e-01     7.62883e-02
      7560       7569      1  -0.028094  -0.012211     3.39967e-01     7.62883e-02
      7557       7566      1   0.017463  -0.017521     3.39967e-01     7.62883e-02
      7554       7563      1  -0.111712  -0.026489     3.39967e-01     7.62883e-02
      7630       7665      1  -0.673755  -0.002029     3.17980e-01     3.17088e-01
      7629       7662      1   0.897613  -0.022462     3.39967e-01     2.02918e-01
      7628       7665      1  -0.552948  -0.002029     3.19984e-01     2.85295e-01
      7607       7626      1   0.166801  -0.729843     3.17980e-01     3.17088e-01
      7607       7627      1   0.166801  -0.729843     3.17980e-01     3.17088e-01
      7607       7614      1   0.166801  -0.282478     3.39967e-01     2.28865e-01
      7607       7618      1   0.166801  -0.282478     3.39967e-01     2.28865e-01
      7607       7622      1   0.166801  -0.282478     3.39967e-01     2.28865e-01
      7606       7613      1  -0.508176   0.204385     3.12501e-01     3.55640e-01
      7605       7610      1   1.339721  -0.142353     3.57072e-01     3.09446e-01
      7604       7628      1  -0.509480  -0.460790     3.00001e-01     3.55640e-01
      7604       7607      1  -0.509480   0.139001     3.19984e-01     2.85295e-01
      7601       7629      1   0.017459   0.748011     3.39967e-01     2.02918e-01
      7601       7606      1   0.017459  -0.423480     3.19984e-01     2.85295e-01
      7601       7626      1   0.017459  -0.729843     3.17980e-01     3.17088e-01
      7601       7627      1   0.017459  -0.729843     3.17980e-01     3.17088e-01
      7599       7605      1   0.281242   1.116434     3.57072e-01     3.09446e-01
      7599       7630      1   0.281242  -0.561462     3.17980e-01     3.17088e-01
      7599       7668      1   0.281242  -0.136833     3.39967e-01     2.28865e-01
      7596       7604      1   0.196939  -0.424567     3.19984e-01     2.85295e-01
      7596       7629      1   0.196939   0.748011     3.39967e-01     2.02918e-01
      7595       7601      1  -0.575489   0.014549     3.19984e-01     2.85295e-01
      7595       7628      1  -0.575489  -0.460790     3.00001e-01     3.55640e-01
      7594       7596      1  -0.671566   0.164116     3.17980e-01     3.17088e-01
      7593       7599      1   0.910403   0.234368     3.39967e-01     2.02918e-01
      7659       7668      1  -0.016521  -0.136833     3.39967e-01     7.62883e-02
      7656       7665      1  -0.027812  -0.002029     3.39967e-01     7.62883e-02
      7653       7662      1  -0.004386  -0.022462     3.39967e-01     7.62883e-02
      7650       7659      1  -0.026451  -0.013767     3.39967e-01     7.62883e-02
      7647       7656      1  -0.014653  -0.023177     3.39967e-01     7.62883e-02
      7644       7653      1  -0.021025  -0.003655     3.39967e-01     7.62883e-02
      7641       7650      1  -0.031787  -0.022042     3.39967e-01     7.62883e-02
      7638       7647      1  -0.028094  -0.012211     3.39967e-01     7.62883e-02
      7635       7644      1   0.017463  -0.017521     3.39967e-01     7.62883e-02
      7632       7641      1  -0.111712  -0.026489     3.39967e-01     7.62883e-02
      7708       7714      1  -0.164200   0.164116     3.39967e-01     2.28865e-01
      7705       7712      1  -0.002435  -0.559638     3.17980e-01     3.17088e-01
      7705       7713      1  -0.002435  -0.479574     3.19984e-01     2.85295e-01
      7702       7711      1  -0.026954   0.758669     3.39967e-01     2.02918e-01
      7699       7708      1  -0.016521  -0.136833     3.39967e-01     7.62883e-02
      7696       7705      1  -0.027812  -0.002029     3.39967e-01     7.62883e-02
      7693       7702      1  -0.004386  -0.022462     3.39967e-01     7.62883e-02
      7690       7699      1  -0.026451  -0.013767     3.39967e-01     7.62883e-02
      7687       7696      1  -0.014653  -0.023177     3.39967e-01     7.62883e-02
      7684       7693      1  -0.021025  -0.003655     3.39967e-01     7.62883e-02
      7681       7690      1  -0.031787  -0.022042     3.39967e-01     7.62883e-02
      7678       7687      1  -0.028094  -0.012211     3.39967e-01     7.62883e-02
      7675       7684      1   0.017463  -0.017521     3.39967e-01     7.62883e-02
      7672       7681      1  -0.111712  -0.026489     3.39967e-01     7.62883e-02
      7748       7783      1  -0.673755  -0.002029     3.17980e-01     3.17088e-01
      7747       7780      1   0.897613  -0.022462     3.39967e-01     2.02918e-01
      7746       7783      1  -0.552948  -0.002029     3.19984e-01     2.85295e-01
      7725       7744      1   0.166801  -0.729843     3.17980e-01     3.17088e-01
      7725       7745      1   0.166801  -0.729843     3.17980e-01     3.17088e-01
      7725       7732      1   0.166801  -0.282478     3.39967e-01     2.28865e-01
      7725       7736      1   0.166801  -0.282478     3.39967e-01     2.28865e-01
      7725       7740      1   0.166801  -0.282478     3.39967e-01     2.28865e-01
      7724       7731      1  -0.508176   0.204385     3.12501e-01     3.55640e-01
      7723       7728      1   1.339721  -0.142353     3.57072e-01     3.09446e-01
      7722       7746      1  -0.509480  -0.460790     3.00001e-01     3.55640e-01
      7722       7725      1  -0.509480   0.139001     3.19984e-01     2.85295e-01
      7719       7747      1   0.017459   0.748011     3.39967e-01     2.02918e-01
      7719       7724      1   0.017459  -0.423480     3.19984e-01     2.85295e-01
      7719       7744      1   0.017459  -0.729843     3.17980e-01     3.17088e-01
      7719       7745      1   0.017459  -0.729843     3.17980e-01     3.17088e-01
      7717       7723      1   0.281242   1.116434     3.57072e-01     3.09446e-01
      7717       7748      1   0.281242  -0.561462     3.17980e-01     3.17088e-01
      7717       7786      1   0.281242  -0.136833     3.39967e-01     2.28865e-01
      7714       7722      1   0.196939  -0.424567     3.19984e-01     2.85295e-01
      7714       7747      1   0.196939   0.748011     3.39967e-01     2.02918e-01
      7713       7719      1  -0.575489   0.014549     3.19984e-01     2.85295e-01
      7713       7746      1  -0.575489  -0.460790     3.00001e-01     3.55640e-01
      7712       7714      1  -0.671566   0.164116     3.17980e-01     3.17088e-01
      7711       7717      1   0.910403   0.234368     3.39967e-01     2.02918e-01
      7777       7786      1  -0.016521  -0.136833     3.39967e-01     7.62883e-02
      7774       7783      1  -0.027812  -0.002029     3.39967e-01     7.62883e-02
      7771       7780      1  -0.004386  -0.022462     3.39967e-01     7.62883e-02
      7768       7777      1  -0.026451  -0.013767     3.39967e-01     7.62883e-02
      7765       7774      1  -0.014653  -0.023177     3.39967e-01     7.62883e-02
      7762       7771      1  -0.021025  -0.003655     3.39967e-01     7.62883e-02
      7759       7768      1  -0.031787  -0.022042     3.39967e-01     7.62883e-02
      7756       7765      1  -0.028094  -0.012211     3.39967e-01     7.62883e-02
      7753       7762      1   0.017463  -0.017521     3.39967e-01     7.62883e-02
      7750       7759      1  -0.111712  -0.026489     3.39967e-01     7.62883e-02
      7826       7832      1  -0.164200   0.164116     3.39967e-01     2.28865e-01
      7823       7830      1  -0.002435  -0.559638     3.17980e-01     3.17088e-01
      7823       7831      1  -0.002435  -0.479574     3.19984e-01     2.85295e-01
      7820       7829      1  -0.026954   0.758669     3.39967e-01     2.02918e-01
      7817       7826      1  -0.016521  -0.136833     3.39967e-01     7.62883e-02
      7814       7823      1  -0.027812  -0.002029     3.39967e-01     7.62883e-02
      7811       7820      1  -0.004386  -0.022462     3.39967e-01     7.62883e-02
      7808       7817      1  -0.026451  -0.013767     3.39967e-01     7.62883e-02
      7805       7814      1  -0.014653  -0.023177     3.39967e-01     7.62883e-02
      7802       7811      1  -0.021025  -0.003655     3.39967e-01     7.62883e-02
      7799       7808      1  -0.031787  -0.022042     3.39967e-01     7.62883e-02
      7796       7805      1  -0.028094  -0.012211     3.39967e-01     7.62883e-02
      7793       7802      1   0.017463  -0.017521     3.39967e-01     7.62883e-02
      7790       7799      1  -0.111712  -0.026489     3.39967e-01     7.62883e-02
      7866       7901      1  -0.673755  -0.002029     3.17980e-01     3.17088e-01
      7865       7898      1   0.897613  -0.022462     3.39967e-01     2.02918e-01
      7864       7901      1  -0.552948  -0.002029     3.19984e-01     2.85295e-01
      7843       7862      1   0.166801  -0.729843     3.17980e-01     3.17088e-01
      7843       7863      1   0.166801  -0.729843     3.17980e-01     3.17088e-01
      7843       7850      1   0.166801  -0.282478     3.39967e-01     2.28865e-01
      7843       7854      1   0.166801  -0.282478     3.39967e-01     2.28865e-01
      7843       7858      1   0.166801  -0.282478     3.39967e-01     2.28865e-01
      7842       7849      1  -0.508176   0.204385     3.12501e-01     3.55640e-01
      7841       7846      1   1.339721  -0.142353     3.57072e-01     3.09446e-01
      7840       7864      1  -0.509480  -0.460790     3.00001e-01     3.55640e-01
      7840       7843      1  -0.509480   0.139001     3.19984e-01     2.85295e-01
      7837       7865      1   0.017459   0.748011     3.39967e-01     2.02918e-01
      7837       7842      1   0.017459  -0.423480     3.19984e-01     2.85295e-01
      7837       7862      1   0.017459  -0.729843     3.17980e-01     3.17088e-01
      7837       7863      1   0.017459  -0.729843     3.17980e-01     3.17088e-01
      7835       7841      1   0.281242   1.116434     3.57072e-01     3.09446e-01
      7835       7866      1   0.281242  -0.561462     3.17980e-01     3.17088e-01
      7835       7904      1   0.281242  -0.136833     3.39967e-01     2.28865e-01
      7832       7840      1   0.196939  -0.424567     3.19984e-01     2.85295e-01
      7832       7865      1   0.196939   0.748011     3.39967e-01     2.02918e-01
      7831       7837      1  -0.575489   0.014549     3.19984e-01     2.85295e-01
      7831       7864      1  -0.575489  -0.460790     3.00001e-01     3.55640e-01
      7830       7832      1  -0.671566   0.164116     3.17980e-01     3.17088e-01
      7829       7835      1   0.910403   0.234368     3.39967e-01     2.02918e-01
      7895       7904      1  -0.016521  -0.136833     3.39967e-01     7.62883e-02
      7892       7901      1  -0.027812  -0.002029     3.39967e-01     7.62883e-02
      7889       7898      1  -0.004386  -0.022462     3.39967e-01     7.62883e-02
      7886       7895      1  -0.026451  -0.013767     3.39967e-01     7.62883e-02
      7883       7892      1  -0.014653  -0.023177     3.39967e-01     7.62883e-02
      7880       7889      1  -0.021025  -0.003655     3.39967e-01     7.62883e-02
      7877       7886      1  -0.031787  -0.022042     3.39967e-01     7.62883e-02
      7874       7883      1  -0.028094  -0.012211     3.39967e-01     7.62883e-02
      7871       7880      1   0.017463  -0.017521     3.39967e-01     7.62883e-02
      7868       7877      1  -0.111712  -0.026489     3.39967e-01     7.62883e-02
      7944       7950      1  -0.164200   0.164116     3.39967e-01     2.28865e-01
      7941       7948      1  -0.002435  -0.559638     3.17980e-01     3.17088e-01
      7941       7949      1  -0.002435  -0.479574     3.19984e-01     2.85295e-01
      7938       7947      1  -0.026954   0.758669     3.39967e-01     2.02918e-01
      7935       7944      1  -0.016521  -0.136833     3.39967e-01     7.62883e-02
      7932       7941      1  -0.027812  -0.002029     3.39967e-01     7.62883e-02
      7929       7938      1  -0.004386  -0.022462     3.39967e-01     7.62883e-02
      7926       7935      1  -0.026451  -0.013767     3.39967e-01     7.62883e-02
      7923       7932      1  -0.014653  -0.023177     3.39967e-01     7.62883e-02
      7920       7929      1  -0.021025  -0.003655     3.39967e-01     7.62883e-02
      7917       7926      1  -0.031787  -0.022042     3.39967e-01     7.62883e-02
      7914       7923      1  -0.028094  -0.012211     3.39967e-01     7.62883e-02
      7911       7920      1   0.017463  -0.017521     3.39967e-01     7.62883e-02
      7908       7917      1  -0.111712  -0.026489     3.39967e-01     7.62883e-02
      7984       8019      1  -0.673755  -0.002029     3.17980e-01     3.17088e-01
      7983       8016      1   0.897613  -0.022462     3.39967e-01     2.02918e-01
      7982       8019      1  -0.552948  -0.002029     3.19984e-01     2.85295e-01
      7961       7980      1   0.166801  -0.729843     3.17980e-01     3.17088e-01
      7961       7981      1   0.166801  -0.729843     3.17980e-01     3.17088e-01
      7961       7968      1   0.166801  -0.282478     3.39967e-01     2.28865e-01
      7961       7972      1   0.166801  -0.282478     3.39967e-01     2.28865e-01
      7961       7976      1   0.166801  -0.282478     3.39967e-01     2.28865e-01
      7960       7967      1  -0.508176   0.204385     3.12501e-01     3.55640e-01
      7959       7964      1   1.339721  -0.142353     3.57072e-01     3.09446e-01
      7958       7982      1  -0.509480  -0.460790     3.00001e-01     3.55640e-01
      7958       7961      1  -0.509480   0.139001     3.19984e-01     2.85295e-01
      7955       7983      1   0.017459   0.748011     3.39967e-01     2.02918e-01
      7955       7960      1   0.017459  -0.423480     3.19984e-01     2.85295e-01
      7955       7980      1   0.017459  -0.729843     3.17980e-01     3.17088e-01
      7955       7981      1   0.017459  -0.729843     3.17980e-01     3.17088e-01
      7953       7959      1   0.281242   1.116434     3.57072e-01     3.09446e-01
      7953       7984      1   0.281242  -0.561462     3.17980e-01     3.17088e-01
      7953       8022      1   0.281242  -0.136833     3.39967e-01     2.28865e-01
      7950       7958      1   0.196939  -0.424567     3.19984e-01     2.85295e-01
      7950       7983      1   0.196939   0.748011     3.39967e-01     2.02918e-01
      7949       7955      1  -0.575489   0.014549     3.19984e-01     2.85295e-01
      7949       7982      1  -0.575489  -0.460790     3.00001e-01     3.55640e-01
      7948       7950      1  -0.671566   0.164116     3.17980e-01     3.17088e-01
      7947       7953      1   0.910403   0.234368     3.39967e-01     2.02918e-01
      8013       8022      1  -0.016521  -0.136833     3.39967e-01     7.62883e-02
      8010       8019      1  -0.027812  -0.002029     3.39967e-01     7.62883e-02
      8007       8016      1  -0.004386  -0.022462     3.39967e-01     7.62883e-02
      8004       8013      1  -0.026451  -0.013767     3.39967e-01     7.62883e-02
      8001       8010      1  -0.014653  -0.023177     3.39967e-01     7.62883e-02
      7998       8007      1  -0.021025  -0.003655     3.39967e-01     7.62883e-02
      7995       8004      1  -0.031787  -0.022042     3.39967e-01     7.62883e-02
      7992       8001      1  -0.028094  -0.012211     3.39967e-01     7.62883e-02
      7989       7998      1   0.017463  -0.017521     3.39967e-01     7.62883e-02
      7986       7995      1  -0.111712  -0.026489     3.39967e-01     7.62883e-02
      8062       8068      1  -0.164200   0.164116     3.39967e-01     2.28865e-01
      8059       8066      1  -0.002435  -0.559638     3.17980e-01     3.17088e-01
      8059       8067      1  -0.002435  -0.479574     3.19984e-01     2.85295e-01
      8056       8065      1  -0.026954   0.758669     3.39967e-01     2.02918e-01
      8053       8062      1  -0.016521  -0.136833     3.39967e-01     7.62883e-02
      8050       8059      1  -0.027812  -0.002029     3.39967e-01     7.62883e-02
      8047       8056      1  -0.004386  -0.022462     3.39967e-01     7.62883e-02
      8044       8053      1  -0.026451  -0.013767     3.39967e-01     7.62883e-02
      8041       8050      1  -0.014653  -0.023177     3.39967e-01     7.62883e-02
      8038       8047      1  -0.021025  -0.003655     3.39967e-01     7.62883e-02
      8035       8044      1  -0.031787  -0.022042     3.39967e-01     7.62883e-02
      8032       8041      1  -0.028094  -0.012211     3.39967e-01     7.62883e-02
      8029       8038      1   0.017463  -0.017521     3.39967e-01     7.62883e-02
      8026       8035      1  -0.111712  -0.026489     3.39967e-01     7.62883e-02
      8102       8137      1  -0.673755  -0.002029     3.17980e-01     3.17088e-01
      8101       8134      1   0.897613  -0.022462     3.39967e-01     2.02918e-01
      8100       8137      1  -0.552948  -0.002029     3.19984e-01     2.85295e-01
      8079       8098      1   0.166801  -0.729843     3.17980e-01     3.17088e-01
      8079       8099      1   0.166801  -0.729843     3.17980e-01     3.17088e-01
      8079       8086      1   0.166801  -0.282478     3.39967e-01     2.28865e-01
      8079       8090      1   0.166801  -0.282478     3.39967e-01     2.28865e-01
      8079       8094      1   0.166801  -0.282478     3.39967e-01     2.28865e-01
      8078       8085      1  -0.508176   0.204385     3.12501e-01     3.55640e-01
      8077       8082      1   1.339721  -0.142353     3.57072e-01     3.09446e-01
      8076       8100      1  -0.509480  -0.460790     3.00001e-01     3.55640e-01
      8076       8079      1  -0.509480   0.139001     3.19984e-01     2.85295e-01
      8073       8101      1   0.017459   0.748011     3.39967e-01     2.02918e-01
      8073       8078      1   0.017459  -0.423480     3.19984e-01     2.85295e-01
      8073       8098      1   0.017459  -0.729843     3.17980e-01     3.17088e-01
      8073       8099      1   0.017459  -0.729843     3.17980e-01     3.17088e-01
      8071       8077      1   0.281242   1.116434     3.57072e-01     3.09446e-01
      8071       8102      1   0.281242  -0.561462     3.17980e-01     3.17088e-01
      8071       8140      1   0.281242  -0.136833     3.39967e-01     2.28865e-01
      8068       8076      1   0.196939  -0.424567     3.19984e-01     2.85295e-01
      8068       8101      1   0.196939   0.748011     3.39967e-01     2.02918e-01
      8067       8073      1  -0.575489   0.014549     3.19984e-01     2.85295e-01
      8067       8100      1  -0.575489  -0.460790     3.00001e-01     3.55640e-01
      8066       8068      1  -0.671566   0.164116     3.17980e-01     3.17088e-01
      8065       8071      1   0.910403   0.234368     3.39967e-01     2.02918e-01
      8131       8140      1  -0.016521  -0.136833     3.39967e-01     7.62883e-02
      8128       8137      1  -0.027812  -0.002029     3.39967e-01     7.62883e-02
      8125       8134      1  -0.004386  -0.022462     3.39967e-01     7.62883e-02
      8122       8131      1  -0.026451  -0.013767     3.39967e-01     7.62883e-02
      8119       8128      1  -0.014653  -0.023177     3.39967e-01     7.62883e-02
      8116       8125      1  -0.021025  -0.003655     3.39967e-01     7.62883e-02
      8113       8122      1  -0.031787  -0.022042     3.39967e-01     7.62883e-02
      8110       8119      1  -0.028094  -0.012211     3.39967e-01     7.62883e-02
      8107       8116      1   0.017463  -0.017521     3.39967e-01     7.62883e-02
      8104       8113      1  -0.111712  -0.026489     3.39967e-01     7.62883e-02
      8180       8186      1  -0.164200   0.164116     3.39967e-01     2.28865e-01
      8177       8184      1  -0.002435  -0.559638     3.17980e-01     3.17088e-01
      8177       8185      1  -0.002435  -0.479574     3.19984e-01     2.85295e-01
      8174       8183      1  -0.026954   0.758669     3.39967e-01     2.02918e-01
      8171       8180      1  -0.016521  -0.136833     3.39967e-01     7.62883e-02
      8168       8177      1  -0.027812  -0.002029     3.39967e-01     7.62883e-02
      8165       8174      1  -0.004386  -0.022462     3.39967e-01     7.62883e-02
      8162       8171      1  -0.026451  -0.013767     3.39967e-01     7.62883e-02
      8159       8168      1  -0.014653  -0.023177     3.39967e-01     7.62883e-02
      8156       8165      1  -0.021025  -0.003655     3.39967e-01     7.62883e-02
      8153       8162      1  -0.031787  -0.022042     3.39967e-01     7.62883e-02
      8150       8159      1  -0.028094  -0.012211     3.39967e-01     7.62883e-02
      8147       8156      1   0.017463  -0.017521     3.39967e-01     7.62883e-02
      8144       8153      1  -0.111712  -0.026489     3.39967e-01     7.62883e-02
      8220       8255      1  -0.673755  -0.002029     3.17980e-01     3.17088e-01
      8219       8252      1   0.897613  -0.022462     3.39967e-01     2.02918e-01
      8218       8255      1  -0.552948  -0.002029     3.19984e-01     2.85295e-01
      8197       8216      1   0.166801  -0.729843     3.17980e-01     3.17088e-01
      8197       8217      1   0.166801  -0.729843     3.17980e-01     3.17088e-01
      8197       8204      1   0.166801  -0.282478     3.39967e-01     2.28865e-01
      8197       8208      1   0.166801  -0.282478     3.39967e-01     2.28865e-01
      8197       8212      1   0.166801  -0.282478     3.39967e-01     2.28865e-01
      8196       8203      1  -0.508176   0.204385     3.12501e-01     3.55640e-01
      8195       8200      1   1.339721  -0.142353     3.57072e-01     3.09446e-01
      8194       8218      1  -0.509480  -0.460790     3.00001e-01     3.55640e-01
      8194       8197      1  -0.509480   0.139001     3.19984e-01     2.85295e-01
      8191       8219      1   0.017459   0.748011     3.39967e-01     2.02918e-01
      8191       8196      1   0.017459  -0.423480     3.19984e-01     2.85295e-01
      8191       8216      1   0.017459  -0.729843     3.17980e-01     3.17088e-01
      8191       8217      1   0.017459  -0.729843     3.17980e-01     3.17088e-01
      8189       8195      1   0.281242   1.116434     3.57072e-01     3.09446e-01
      8189       8220      1   0.281242  -0.561462     3.17980e-01     3.17088e-01
      8189       8258      1   0.281242  -0.136833     3.39967e-01     2.28865e-01
      8186       8194      1   0.196939  -0.424567     3.19984e-01     2.85295e-01
      8186       8219      1   0.196939   0.748011     3.39967e-01     2.02918e-01
      8185       8191      1  -0.575489   0.014549     3.19984e-01     2.85295e-01
      8185       8218      1  -0.575489  -0.460790     3.00001e-01     3.55640e-01
      8184       8186      1  -0.671566   0.164116     3.17980e-01     3.17088e-01
      8183       8189      1   0.910403   0.234368     3.39967e-01     2.02918e-01
      8249       8258      1  -0.016521  -0.136833     3.39967e-01     7.62883e-02
      8246       8255      1  -0.027812  -0.002029     3.39967e-01     7.62883e-02
      8243       8252      1  -0.004386  -0.022462     3.39967e-01     7.62883e-02
      8240       8249      1  -0.026451  -0.013767     3.39967e-01     7.62883e-02
      8237       8246      1  -0.014653  -0.023177     3.39967e-01     7.62883e-02
      8234       8243      1  -0.021025  -0.003655     3.39967e-01     7.62883e-02
      8231       8240      1  -0.031787  -0.022042     3.39967e-01     7.62883e-02
      8228       8237      1  -0.028094  -0.012211     3.39967e-01     7.62883e-02
      8225       8234      1   0.017463  -0.017521     3.39967e-01     7.62883e-02
      8222       8231      1  -0.111712  -0.026489     3.39967e-01     7.62883e-02
      8298       8304      1  -0.164200   0.164116     3.39967e-01     2.28865e-01
      8295       8302      1  -0.002435  -0.559638     3.17980e-01     3.17088e-01
      8295       8303      1  -0.002435  -0.479574     3.19984e-01     2.85295e-01
      8292       8301      1  -0.026954   0.758669     3.39967e-01     2.02918e-01
      8289       8298      1  -0.016521  -0.136833     3.39967e-01     7.62883e-02
      8286       8295      1  -0.027812  -0.002029     3.39967e-01     7.62883e-02
      8283       8292      1  -0.004386  -0.022462     3.39967e-01     7.62883e-02
      8280       8289      1  -0.026451  -0.013767     3.39967e-01     7.62883e-02
      8277       8286      1  -0.014653  -0.023177     3.39967e-01     7.62883e-02
      8274       8283      1  -0.021025  -0.003655     3.39967e-01     7.62883e-02
      8271       8280      1  -0.031787  -0.022042     3.39967e-01     7.62883e-02
      8268       8277      1  -0.028094  -0.012211     3.39967e-01     7.62883e-02
      8265       8274      1   0.017463  -0.017521     3.39967e-01     7.62883e-02
      8262       8271      1  -0.111712  -0.026489     3.39967e-01     7.62883e-02
      8338       8373      1  -0.673755  -0.002029     3.17980e-01     3.17088e-01
      8337       8370      1   0.897613  -0.022462     3.39967e-01     2.02918e-01
      8336       8373      1  -0.552948  -0.002029     3.19984e-01     2.85295e-01
      8315       8334      1   0.166801  -0.729843     3.17980e-01     3.17088e-01
      8315       8335      1   0.166801  -0.729843     3.17980e-01     3.17088e-01
      8315       8322      1   0.166801  -0.282478     3.39967e-01     2.28865e-01
      8315       8326      1   0.166801  -0.282478     3.39967e-01     2.28865e-01
      8315       8330      1   0.166801  -0.282478     3.39967e-01     2.28865e-01
      8314       8321      1  -0.508176   0.204385     3.12501e-01     3.55640e-01
      8313       8318      1   1.339721  -0.142353     3.57072e-01     3.09446e-01
      8312       8336      1  -0.509480  -0.460790     3.00001e-01     3.55640e-01
      8312       8315      1  -0.509480   0.139001     3.19984e-01     2.85295e-01
      8309       8337      1   0.017459   0.748011     3.39967e-01     2.02918e-01
      8309       8314      1   0.017459  -0.423480     3.19984e-01     2.85295e-01
      8309       8334      1   0.017459  -0.729843     3.17980e-01     3.17088e-01
      8309       8335      1   0.017459  -0.729843     3.17980e-01     3.17088e-01
      8307       8313      1   0.281242   1.116434     3.57072e-01     3.09446e-01
      8307       8338      1   0.281242  -0.561462     3.17980e-01     3.17088e-01
      8307       8376      1   0.281242  -0.136833     3.39967e-01     2.28865e-01
      8304       8312      1   0.196939  -0.424567     3.19984e-01     2.85295e-01
      8304       8337      1   0.196939   0.748011     3.39967e-01     2.02918e-01
      8303       8309      1  -0.575489   0.014549     3.19984e-01     2.85295e-01
      8303       8336      1  -0.575489  -0.460790     3.00001e-01     3.55640e-01
      8302       8304      1  -0.671566   0.164116     3.17980e-01     3.17088e-01
      8301       8307      1   0.910403   0.234368     3.39967e-01     2.02918e-01
      8367       8376      1  -0.016521  -0.136833     3.39967e-01     7.62883e-02
      8364       8373      1  -0.027812  -0.002029     3.39967e-01     7.62883e-02
      8361       8370      1  -0.004386  -0.022462     3.39967e-01     7.62883e-02
      8358       8367      1  -0.026451  -0.013767     3.39967e-01     7.62883e-02
      8355       8364      1  -0.014653  -0.023177     3.39967e-01     7.62883e-02
      8352       8361      1  -0.021025  -0.003655     3.39967e-01     7.62883e-02
      8349       8358      1  -0.031787  -0.022042     3.39967e-01     7.62883e-02
      8346       8355      1  -0.028094  -0.012211     3.39967e-01     7.62883e-02
      8343       8352      1   0.017463  -0.017521     3.39967e-01     7.62883e-02
      8340       8349      1  -0.111712  -0.026489     3.39967e-01     7.62883e-02
      8416       8422      1  -0.164200   0.164116     3.39967e-01     2.28865e-01
      8413       8420      1  -0.002435  -0.559638     3.17980e-01     3.17088e-01
      8413       8421      1  -0.002435  -0.479574     3.19984e-01     2.85295e-01
      8410       8419      1  -0.026954   0.758669     3.39967e-01     2.02918e-01
      8407       8416      1  -0.016521  -0.136833     3.39967e-01     7.62883e-02
      8404       8413      1  -0.027812  -0.002029     3.39967e-01     7.62883e-02
      8401       8410      1  -0.004386  -0.022462     3.39967e-01     7.62883e-02
      8398       8407      1  -0.026451  -0.013767     3.39967e-01     7.62883e-02
      8395       8404      1  -0.014653  -0.023177     3.39967e-01     7.62883e-02
      8392       8401      1  -0.021025  -0.003655     3.39967e-01     7.62883e-02
      8389       8398      1  -0.031787  -0.022042     3.39967e-01     7.62883e-02
      8386       8395      1  -0.028094  -0.012211     3.39967e-01     7.62883e-02
      8383       8392      1   0.017463  -0.017521     3.39967e-01     7.62883e-02
      8380       8389      1  -0.111712  -0.026489     3.39967e-01     7.62883e-02
      8456       8491      1  -0.673755  -0.002029     3.17980e-01     3.17088e-01
      8455       8488      1   0.897613  -0.022462     3.39967e-01     2.02918e-01
      8454       8491      1  -0.552948  -0.002029     3.19984e-01     2.85295e-01
      8433       8452      1   0.166801  -0.729843     3.17980e-01     3.17088e-01
      8433       8453      1   0.166801  -0.729843     3.17980e-01     3.17088e-01
      8433       8440      1   0.166801  -0.282478     3.39967e-01     2.28865e-01
      8433       8444      1   0.166801  -0.282478     3.39967e-01     2.28865e-01
      8433       8448      1   0.166801  -0.282478     3.39967e-01     2.28865e-01
      8432       8439      1  -0.508176   0.204385     3.12501e-01     3.55640e-01
      8431       8436      1   1.339721  -0.142353     3.57072e-01     3.09446e-01
      8430       8454      1  -0.509480  -0.460790     3.00001e-01     3.55640e-01
      8430       8433      1  -0.509480   0.139001     3.19984e-01     2.85295e-01
      8427       8455      1   0.017459   0.748011     3.39967e-01     2.02918e-01
      8427       8432      1   0.017459  -0.423480     3.19984e-01     2.85295e-01
      8427       8452      1   0.017459  -0.729843     3.17980e-01     3.17088e-01
      8427       8453      1   0.017459  -0.729843     3.17980e-01     3.17088e-01
      8425       8431      1   0.281242   1.116434     3.57072e-01     3.09446e-01
      8425       8456      1   0.281242  -0.561462     3.17980e-01     3.17088e-01
      8425       8494      1   0.281242  -0.136833     3.39967e-01     2.28865e-01
      8422       8430      1   0.196939  -0.424567     3.19984e-01     2.85295e-01
      8422       8455      1   0.196939   0.748011     3.39967e-01     2.02918e-01
      8421       8427      1  -0.575489   0.014549     3.19984e-01     2.85295e-01
      8421       8454      1  -0.575489  -0.460790     3.00001e-01     3.55640e-01
      8420       8422      1  -0.671566   0.164116     3.17980e-01     3.17088e-01
      8419       8425      1   0.910403   0.234368     3.39967e-01     2.02918e-01
      8485       8494      1  -0.016521  -0.136833     3.39967e-01     7.62883e-02
      8482       8491      1  -0.027812  -0.002029     3.39967e-01     7.62883e-02
      8479       8488      1  -0.004386  -0.022462     3.39967e-01     7.62883e-02
      8476       8485      1  -0.026451  -0.013767     3.39967e-01     7.62883e-02
      8473       8482      1  -0.014653  -0.023177     3.39967e-01     7.62883e-02
      8470       8479      1  -0.021025  -0.003655     3.39967e-01     7.62883e-02
      8467       8476      1  -0.031787  -0.022042     3.39967e-01     7.62883e-02
      8464       8473      1  -0.028094  -0.012211     3.39967e-01     7.62883e-02
      8461       8470      1   0.017463  -0.017521     3.39967e-01     7.62883e-02
      8458       8467      1  -0.111712  -0.026489     3.39967e-01     7.62883e-02
      8534       8540      1  -0.164200   0.164116     3.39967e-01     2.28865e-01
      8531       8538      1  -0.002435  -0.559638     3.17980e-01     3.17088e-01
      8531       8539      1  -0.002435  -0.479574     3.19984e-01     2.85295e-01
      8528       8537      1  -0.026954   0.758669     3.39967e-01     2.02918e-01
      8525       8534      1  -0.016521  -0.136833     3.39967e-01     7.62883e-02
      8522       8531      1  -0.027812  -0.002029     3.39967e-01     7.62883e-02
      8519       8528      1  -0.004386  -0.022462     3.39967e-01     7.62883e-02
      8516       8525      1  -0.026451  -0.013767     3.39967e-01     7.62883e-02
      8513       8522      1  -0.014653  -0.023177     3.39967e-01     7.62883e-02
      8510       8519      1  -0.021025  -0.003655     3.39967e-01     7.62883e-02
      8507       8516      1  -0.031787  -0.022042     3.39967e-01     7.62883e-02
      8504       8513      1  -0.028094  -0.012211     3.39967e-01     7.62883e-02
      8501       8510      1   0.017463  -0.017521     3.39967e-01     7.62883e-02
      8498       8507      1  -0.111712  -0.026489     3.39967e-01     7.62883e-02
      8574       8609      1  -0.673755  -0.002029     3.17980e-01     3.17088e-01
      8573       8606      1   0.897613  -0.022462     3.39967e-01     2.02918e-01
      8572       8609      1  -0.552948  -0.002029     3.19984e-01     2.85295e-01
      8551       8570      1   0.166801  -0.729843     3.17980e-01     3.17088e-01
      8551       8571      1   0.166801  -0.729843     3.17980e-01     3.17088e-01
      8551       8558      1   0.166801  -0.282478     3.39967e-01     2.28865e-01
      8551       8562      1   0.166801  -0.282478     3.39967e-01     2.28865e-01
      8551       8566      1   0.166801  -0.282478     3.39967e-01     2.28865e-01
      8550       8557      1  -0.508176   0.204385     3.12501e-01     3.55640e-01
      8549       8554      1   1.339721  -0.142353     3.57072e-01     3.09446e-01
      8548       8572      1  -0.509480  -0.460790     3.00001e-01     3.55640e-01
      8548       8551      1  -0.509480   0.139001     3.19984e-01     2.85295e-01
      8545       8573      1   0.017459   0.748011     3.39967e-01     2.02918e-01
      8545       8550      1   0.017459  -0.423480     3.19984e-01     2.85295e-01
      8545       8570      1   0.017459  -0.729843     3.17980e-01     3.17088e-01
      8545       8571      1   0.017459  -0.729843     3.17980e-01     3.17088e-01
      8543       8549      1   0.281242   1.116434     3.57072e-01     3.09446e-01
      8543       8574      1   0.281242  -0.561462     3.17980e-01     3.17088e-01
      8543       8612      1   0.281242  -0.136833     3.39967e-01     2.28865e-01
      8540       8548      1   0.196939  -0.424567     3.19984e-01     2.85295e-01
      8540       8573      1   0.196939   0.748011     3.39967e-01     2.02918e-01
      8539       8545      1  -0.575489   0.014549     3.19984e-01     2.85295e-01
      8539       8572      1  -0.575489  -0.460790     3.00001e-01     3.55640e-01
      8538       8540      1  -0.671566   0.164116     3.17980e-01     3.17088e-01
      8537       8543      1   0.910403   0.234368     3.39967e-01     2.02918e-01
      8603       8612      1  -0.016521  -0.136833     3.39967e-01     7.62883e-02
      8600       8609      1  -0.027812  -0.002029     3.39967e-01     7.62883e-02
      8597       8606      1  -0.004386  -0.022462     3.39967e-01     7.62883e-02
      8594       8603      1  -0.026451  -0.013767     3.39967e-01     7.62883e-02
      8591       8600      1  -0.014653  -0.023177     3.39967e-01     7.62883e-02
      8588       8597      1  -0.021025  -0.003655     3.39967e-01     7.62883e-02
      8585       8594      1  -0.031787  -0.022042     3.39967e-01     7.62883e-02
      8582       8591      1  -0.028094  -0.012211     3.39967e-01     7.62883e-02
      8579       8588      1   0.017463  -0.017521     3.39967e-01     7.62883e-02
      8576       8585      1  -0.111712  -0.026489     3.39967e-01     7.62883e-02
      8652       8658      1  -0.164200   0.164116     3.39967e-01     2.28865e-01
      8649       8656      1  -0.002435  -0.559638     3.17980e-01     3.17088e-01
      8649       8657      1  -0.002435  -0.479574     3.19984e-01     2.85295e-01
      8646       8655      1  -0.026954   0.758669     3.39967e-01     2.02918e-01
      8643       8652      1  -0.016521  -0.136833     3.39967e-01     7.62883e-02
      8640       8649      1  -0.027812  -0.002029     3.39967e-01     7.62883e-02
      8637       8646      1  -0.004386  -0.022462     3.39967e-01     7.62883e-02
      8634       8643      1  -0.026451  -0.013767     3.39967e-01     7.62883e-02
      8631       8640      1  -0.014653  -0.023177     3.39967e-01     7.62883e-02
      8628       8637      1  -0.021025  -0.003655     3.39967e-01     7.62883e-02
      8625       8634      1  -0.031787  -0.022042     3.39967e-01     7.62883e-02
      8622       8631      1  -0.028094  -0.012211     3.39967e-01     7.62883e-02
      8619       8628      1   0.017463  -0.017521     3.39967e-01     7.62883e-02
      8616       8625      1  -0.111712  -0.026489     3.39967e-01     7.62883e-02
      8692       8727      1  -0.673755  -0.002029     3.17980e-01     3.17088e-01
      8691       8724      1   0.897613  -0.022462     3.39967e-01     2.02918e-01
      8690       8727      1  -0.552948  -0.002029     3.19984e-01     2.85295e-01
      8669       8688      1   0.166801  -0.729843     3.17980e-01     3.17088e-01
      8669       8689      1   0.166801  -0.729843     3.17980e-01     3.17088e-01
      8669       8676      1   0.166801  -0.282478     3.39967e-01     2.28865e-01
      8669       8680      1   0.166801  -0.282478     3.39967e-01     2.28865e-01
      8669       8684      1   0.166801  -0.282478     3.39967e-01     2.28865e-01
      8668       8675      1  -0.508176   0.204385     3.12501e-01     3.55640e-01
      8667       8672      1   1.339721  -0.142353     3.57072e-01     3.09446e-01
      8666       8690      1  -0.509480  -0.460790     3.00001e-01     3.55640e-01
      8666       8669      1  -0.509480   0.139001     3.19984e-01     2.85295e-01
      8663       8691      1   0.017459   0.748011     3.39967e-01     2.02918e-01
      8663       8668      1   0.017459  -0.423480     3.19984e-01     2.85295e-01
      8663       8688      1   0.017459  -0.729843     3.17980e-01     3.17088e-01
      8663       8689      1   0.017459  -0.729843     3.17980e-01     3.17088e-01
      8661       8667      1   0.281242   1.116434     3.57072e-01     3.09446e-01
      8661       8692      1   0.281242  -0.561462     3.17980e-01     3.17088e-01
      8661       8730      1   0.281242  -0.136833     3.39967e-01     2.28865e-01
      8658       8666      1   0.196939  -0.424567     3.19984e-01     2.85295e-01
      8658       8691      1   0.196939   0.748011     3.39967e-01     2.02918e-01
      8657       8663      1  -0.575489   0.014549     3.19984e-01     2.85295e-01
      8657       8690      1  -0.575489  -0.460790     3.00001e-01     3.55640e-01
      8656       8658      1  -0.671566   0.164116     3.17980e-01     3.17088e-01
      8655       8661      1   0.910403   0.234368     3.39967e-01     2.02918e-01
      8721       8730      1  -0.016521  -0.136833     3.39967e-01     7.62883e-02
      8718       8727      1  -0.027812  -0.002029     3.39967e-01     7.62883e-02
      8715       8724      1  -0.004386  -0.022462     3.39967e-01     7.62883e-02
      8712       8721      1  -0.026451  -0.013767     3.39967e-01     7.62883e-02
      8709       8718      1  -0.014653  -0.023177     3.39967e-01     7.62883e-02
      8706       8715      1  -0.021025  -0.003655     3.39967e-01     7.62883e-02
      8703       8712      1  -0.031787  -0.022042     3.39967e-01     7.62883e-02
      8700       8709      1  -0.028094  -0.012211     3.39967e-01     7.62883e-02
      8697       8706      1   0.017463  -0.017521     3.39967e-01     7.62883e-02
      8694       8703      1  -0.111712  -0.026489     3.39967e-01     7.62883e-02
      8770       8776      1  -0.164200   0.164116     3.39967e-01     2.28865e-01
      8767       8774      1  -0.002435  -0.559638     3.17980e-01     3.17088e-01
      8767       8775      1  -0.002435  -0.479574     3.19984e-01     2.85295e-01
      8764       8773      1  -0.026954   0.758669     3.39967e-01     2.02918e-01
      8761       8770      1  -0.016521  -0.136833     3.39967e-01     7.62883e-02
      8758       8767      1  -0.027812  -0.002029     3.39967e-01     7.62883e-02
      8755       8764      1  -0.004386  -0.022462     3.39967e-01     7.62883e-02
      8752       8761      1  -0.026451  -0.013767     3.39967e-01     7.62883e-02
      8749       8758      1  -0.014653  -0.023177     3.39967e-01     7.62883e-02
      8746       8755      1  -0.021025  -0.003655     3.39967e-01     7.62883e-02
      8743       8752      1  -0.031787  -0.022042     3.39967e-01     7.62883e-02
      8740       8749      1  -0.028094  -0.012211     3.39967e-01     7.62883e-02
      8737       8746      1   0.017463  -0.017521     3.39967e-01     7.62883e-02
      8734       8743      1  -0.111712  -0.026489     3.39967e-01     7.62883e-02
      8810       8845      1  -0.673755  -0.002029     3.17980e-01     3.17088e-01
      8809       8842      1   0.897613  -0.022462     3.39967e-01     2.02918e-01
      8808       8845      1  -0.552948  -0.002029     3.19984e-01     2.85295e-01
      8787       8806      1   0.166801  -0.729843     3.17980e-01     3.17088e-01
      8787       8807      1   0.166801  -0.729843     3.17980e-01     3.17088e-01
      8787       8794      1   0.166801  -0.282478     3.39967e-01     2.28865e-01
      8787       8798      1   0.166801  -0.282478     3.39967e-01     2.28865e-01
      8787       8802      1   0.166801  -0.282478     3.39967e-01     2.28865e-01
      8786       8793      1  -0.508176   0.204385     3.12501e-01     3.55640e-01
      8785       8790      1   1.339721  -0.142353     3.57072e-01     3.09446e-01
      8784       8808      1  -0.509480  -0.460790     3.00001e-01     3.55640e-01
      8784       8787      1  -0.509480   0.139001     3.19984e-01     2.85295e-01
      8781       8809      1   0.017459   0.748011     3.39967e-01     2.02918e-01
      8781       8786      1   0.017459  -0.423480     3.19984e-01     2.85295e-01
      8781       8806      1   0.017459  -0.729843     3.17980e-01     3.17088e-01
      8781       8807      1   0.017459  -0.729843     3.17980e-01     3.17088e-01
      8779       8785      1   0.281242   1.116434     3.57072e-01     3.09446e-01
      8779       8810      1   0.281242  -0.561462     3.17980e-01     3.17088e-01
      8779       8848      1   0.281242  -0.136833     3.39967e-01     2.28865e-01
      8776       8784      1   0.196939  -0.424567     3.19984e-01     2.85295e-01
      8776       8809      1   0.196939   0.748011     3.39967e-01     2.02918e-01
      8775       8781      1  -0.575489   0.014549     3.19984e-01     2.85295e-01
      8775       8808      1  -0.575489  -0.460790     3.00001e-01     3.55640e-01
      8774       8776      1  -0.671566   0.164116     3.17980e-01     3.17088e-01
      8773       8779      1   0.910403   0.234368     3.39967e-01     2.02918e-01
      8839       8848      1  -0.016521  -0.136833     3.39967e-01     7.62883e-02
      8836       8845      1  -0.027812  -0.002029     3.39967e-01     7.62883e-02
      8833       8842      1  -0.004386  -0.022462     3.39967e-01     7.62883e-02
      8830       8839      1  -0.026451  -0.013767     3.39967e-01     7.62883e-02
      8827       8836      1  -0.014653  -0.023177     3.39967e-01     7.62883e-02
      8824       8833      1  -0.021025  -0.003655     3.39967e-01     7.62883e-02
      8821       8830      1  -0.031787  -0.022042     3.39967e-01     7.62883e-02
      8818       8827      1  -0.028094  -0.012211     3.39967e-01     7.62883e-02
      8815       8824      1   0.017463  -0.017521     3.39967e-01     7.62883e-02
      8812       8821      1  -0.111712  -0.026489     3.39967e-01     7.62883e-02
      8888       8894      1  -0.164200   0.164116     3.39967e-01     2.28865e-01
      8885       8892      1  -0.002435  -0.559638     3.17980e-01     3.17088e-01
      8885       8893      1  -0.002435  -0.479574     3.19984e-01     2.85295e-01
      8882       8891      1  -0.026954   0.758669     3.39967e-01     2.02918e-01
      8879       8888      1  -0.016521  -0.136833     3.39967e-01     7.62883e-02
      8876       8885      1  -0.027812  -0.002029     3.39967e-01     7.62883e-02
      8873       8882      1  -0.004386  -0.022462     3.39967e-01     7.62883e-02
      8870       8879      1  -0.026451  -0.013767     3.39967e-01     7.62883e-02
      8867       8876      1  -0.014653  -0.023177     3.39967e-01     7.62883e-02
      8864       8873      1  -0.021025  -0.003655     3.39967e-01     7.62883e-02
      8861       8870      1  -0.031787  -0.022042     3.39967e-01     7.62883e-02
      8858       8867      1  -0.028094  -0.012211     3.39967e-01     7.62883e-02
      8855       8864      1   0.017463  -0.017521     3.39967e-01     7.62883e-02
      8852       8861      1  -0.111712  -0.026489     3.39967e-01     7.62883e-02
      8928       8963      1  -0.673755  -0.002029     3.17980e-01     3.17088e-01
      8927       8960      1   0.897613  -0.022462     3.39967e-01     2.02918e-01
      8926       8963      1  -0.552948  -0.002029     3.19984e-01     2.85295e-01
      8905       8924      1   0.166801  -0.729843     3.17980e-01     3.17088e-01
      8905       8925      1   0.166801  -0.729843     3.17980e-01     3.17088e-01
      8905       8912      1   0.166801  -0.282478     3.39967e-01     2.28865e-01
      8905       8916      1   0.166801  -0.282478     3.39967e-01     2.28865e-01
      8905       8920      1   0.166801  -0.282478     3.39967e-01     2.28865e-01
      8904       8911      1  -0.508176   0.204385     3.12501e-01     3.55640e-01
      8903       8908      1   1.339721  -0.142353     3.57072e-01     3.09446e-01
      8902       8926      1  -0.509480  -0.460790     3.00001e-01     3.55640e-01
      8902       8905      1  -0.509480   0.139001     3.19984e-01     2.85295e-01
      8899       8927      1   0.017459   0.748011     3.39967e-01     2.02918e-01
      8899       8904      1   0.017459  -0.423480     3.19984e-01     2.85295e-01
      8899       8924      1   0.017459  -0.729843     3.17980e-01     3.17088e-01
      8899       8925      1   0.017459  -0.729843     3.17980e-01     3.17088e-01
      8897       8903      1   0.281242   1.116434     3.57072e-01     3.09446e-01
      8897       8928      1   0.281242  -0.561462     3.17980e-01     3.17088e-01
      8897       8966      1   0.281242  -0.136833     3.39967e-01     2.28865e-01
      8894       8902      1   0.196939  -0.424567     3.19984e-01     2.85295e-01
      8894       8927      1   0.196939   0.748011     3.39967e-01     2.02918e-01
      8893       8899      1  -0.575489   0.014549     3.19984e-01     2.85295e-01
      8893       8926      1  -0.575489  -0.460790     3.00001e-01     3.55640e-01
      8892       8894      1  -0.671566   0.164116     3.17980e-01     3.17088e-01
      8891       8897      1   0.910403   0.234368     3.39967e-01     2.02918e-01
      8957       8966      1  -0.016521  -0.136833     3.39967e-01     7.62883e-02
      8954       8963      1  -0.027812  -0.002029     3.39967e-01     7.62883e-02
      8951       8960      1  -0.004386  -0.022462     3.39967e-01     7.62883e-02
      8948       8957      1  -0.026451  -0.013767     3.39967e-01     7.62883e-02
      8945       8954      1  -0.014653  -0.023177     3.39967e-01     7.62883e-02
      8942       8951      1  -0.021025  -0.003655     3.39967e-01     7.62883e-02
      8939       8948      1  -0.031787  -0.022042     3.39967e-01     7.62883e-02
      8936       8945      1  -0.028094  -0.012211     3.39967e-01     7.62883e-02
      8933       8942      1   0.017463  -0.017521     3.39967e-01     7.62883e-02
      8930       8939      1  -0.111712  -0.026489     3.39967e-01     7.62883e-02
      9006       9012      1  -0.164200   0.164116     3.39967e-01     2.28865e-01
      9003       9010      1  -0.002435  -0.559638     3.17980e-01     3.17088e-01
      9003       9011      1  -0.002435  -0.479574     3.19984e-01     2.85295e-01
      9000       9009      1  -0.026954   0.758669     3.39967e-01     2.02918e-01
      8997       9006      1  -0.016521  -0.136833     3.39967e-01     7.62883e-02
      8994       9003      1  -0.027812  -0.002029     3.39967e-01     7.62883e-02
      8991       9000      1  -0.004386  -0.022462     3.39967e-01     7.62883e-02
      8988       8997      1  -0.026451  -0.013767     3.39967e-01     7.62883e-02
      8985       8994      1  -0.014653  -0.023177     3.39967e-01     7.62883e-02
      8982       8991      1  -0.021025  -0.003655     3.39967e-01     7.62883e-02
      8979       8988      1  -0.031787  -0.022042     3.39967e-01     7.62883e-02
      8976       8985      1  -0.028094  -0.012211     3.39967e-01     7.62883e-02
      8973       8982      1   0.017463  -0.017521     3.39967e-01     7.62883e-02
      8970       8979      1  -0.111712  -0.026489     3.39967e-01     7.62883e-02
      9046       9081      1  -0.673755  -0.002029     3.17980e-01     3.17088e-01
      9045       9078      1   0.897613  -0.022462     3.39967e-01     2.02918e-01
      9044       9081      1  -0.552948  -0.002029     3.19984e-01     2.85295e-01
      9023       9042      1   0.166801  -0.729843     3.17980e-01     3.17088e-01
      9023       9043      1   0.166801  -0.729843     3.17980e-01     3.17088e-01
      9023       9030      1   0.166801  -0.282478     3.39967e-01     2.28865e-01
      9023       9034      1   0.166801  -0.282478     3.39967e-01     2.28865e-01
      9023       9038      1   0.166801  -0.282478     3.39967e-01     2.28865e-01
      9022       9029      1  -0.508176   0.204385     3.12501e-01     3.55640e-01
      9021       9026      1   1.339721  -0.142353     3.57072e-01     3.09446e-01
      9020       9044      1  -0.509480  -0.460790     3.00001e-01     3.55640e-01
      9020       9023      1  -0.509480   0.139001     3.19984e-01     2.85295e-01
      9017       9045      1   0.017459   0.748011     3.39967e-01     2.02918e-01
      9017       9022      1   0.017459  -0.423480     3.19984e-01     2.85295e-01
      9017       9042      1   0.017459  -0.729843     3.17980e-01     3.17088e-01
      9017       9043      1   0.017459  -0.729843     3.17980e-01     3.17088e-01
      9015       9021      1   0.281242   1.116434     3.57072e-01     3.09446e-01
      9015       9046      1   0.281242  -0.561462     3.17980e-01     3.17088e-01
      9015       9084      1   0.281242  -0.136833     3.39967e-01     2.28865e-01
      9012       9020      1   0.196939  -0.424567     3.19984e-01     2.85295e-01
      9012       9045      1   0.196939   0.748011     3.39967e-01     2.02918e-01
      9011       9017      1  -0.575489   0.014549     3.19984e-01     2.85295e-01
      9011       9044      1  -0.575489  -0.460790     3.00001e-01     3.55640e-01
      9010       9012      1  -0.671566   0.164116     3.17980e-01     3.17088e-01
      9009       9015      1   0.910403   0.234368     3.39967e-01     2.02918e-01
      9075       9084      1  -0.016521  -0.136833     3.39967e-01     7.62883e-02
      9072       9081      1  -0.027812  -0.002029     3.39967e-01     7.62883e-02
      9069       9078      1  -0.004386  -0.022462     3.39967e-01     7.62883e-02
      9066       9075      1  -0.026451  -0.013767     3.39967e-01     7.62883e-02
      9063       9072      1  -0.014653  -0.023177     3.39967e-01     7.62883e-02
      9060       9069      1  -0.021025  -0.003655     3.39967e-01     7.62883e-02
      9057       9066      1  -0.031787  -0.022042     3.39967e-01     7.62883e-02
      9054       9063      1  -0.028094  -0.012211     3.39967e-01     7.62883e-02
      9051       9060      1   0.017463  -0.017521     3.39967e-01     7.62883e-02
      9048       9057      1  -0.111712  -0.026489     3.39967e-01     7.62883e-02
      9124       9130      1  -0.164200   0.164116     3.39967e-01     2.28865e-01
      9121       9128      1  -0.002435  -0.559638     3.17980e-01     3.17088e-01
      9121       9129      1  -0.002435  -0.479574     3.19984e-01     2.85295e-01
      9118       9127      1  -0.026954   0.758669     3.39967e-01     2.02918e-01
      9115       9124      1  -0.016521  -0.136833     3.39967e-01     7.62883e-02
      9112       9121      1  -0.027812  -0.002029     3.39967e-01     7.62883e-02
      9109       9118      1  -0.004386  -0.022462     3.39967e-01     7.62883e-02
      9106       9115      1  -0.026451  -0.013767     3.39967e-01     7.62883e-02
      9103       9112      1  -0.014653  -0.023177     3.39967e-01     7.62883e-02
      9100       9109      1  -0.021025  -0.003655     3.39967e-01     7.62883e-02
      9097       9106      1  -0.031787  -0.022042     3.39967e-01     7.62883e-02
      9094       9103      1  -0.028094  -0.012211     3.39967e-01     7.62883e-02
      9091       9100      1   0.017463  -0.017521     3.39967e-01     7.62883e-02
      9088       9097      1  -0.111712  -0.026489     3.39967e-01     7.62883e-02
      9164       9199      1  -0.673755  -0.002029     3.17980e-01     3.17088e-01
      9163       9196      1   0.897613  -0.022462     3.39967e-01     2.02918e-01
      9162       9199      1  -0.552948  -0.002029     3.19984e-01     2.85295e-01
      9141       9160      1   0.166801  -0.729843     3.17980e-01     3.17088e-01
      9141       9161      1   0.166801  -0.729843     3.17980e-01     3.17088e-01
      9141       9148      1   0.166801  -0.282478     3.39967e-01     2.28865e-01
      9141       9152      1   0.166801  -0.282478     3.39967e-01     2.28865e-01
      9141       9156      1   0.166801  -0.282478     3.39967e-01     2.28865e-01
      9140       9147      1  -0.508176   0.204385     3.12501e-01     3.55640e-01
      9139       9144      1   1.339721  -0.142353     3.57072e-01     3.09446e-01
      9138       9162      1  -0.509480  -0.460790     3.00001e-01     3.55640e-01
      9138       9141      1  -0.509480   0.139001     3.19984e-01     2.85295e-01
      9135       9163      1   0.017459   0.748011     3.39967e-01     2.02918e-01
      9135       9140      1   0.017459  -0.423480     3.19984e-01     2.85295e-01
      9135       9160      1   0.017459  -0.729843     3.17980e-01     3.17088e-01
      9135       9161      1   0.017459  -0.729843     3.17980e-01     3.17088e-01
      9133       9139      1   0.281242   1.116434     3.57072e-01     3.09446e-01
      9133       9164      1   0.281242  -0.561462     3.17980e-01     3.17088e-01
      9133       9202      1   0.281242  -0.136833     3.39967e-01     2.28865e-01
      9130       9138      1   0.196939  -0.424567     3.19984e-01     2.85295e-01
      9130       9163      1   0.196939   0.748011     3.39967e-01     2.02918e-01
      9129       9135      1  -0.575489   0.014549     3.19984e-01     2.85295e-01
      9129       9162      1  -0.575489  -0.460790     3.00001e-01     3.55640e-01
      9128       9130      1  -0.671566   0.164116     3.17980e-01     3.17088e-01
      9127       9133      1   0.910403   0.234368     3.39967e-01     2.02918e-01
      9193       9202      1  -0.016521  -0.136833     3.39967e-01     7.62883e-02
      9190       9199      1  -0.027812  -0.002029     3.39967e-01     7.62883e-02
      9187       9196      1  -0.004386  -0.022462     3.39967e-01     7.62883e-02
      9184       9193      1  -0.026451  -0.013767     3.39967e-01     7.62883e-02
      9181       9190      1  -0.014653  -0.023177     3.39967e-01     7.62883e-02
      9178       9187      1  -0.021025  -0.003655     3.39967e-01     7.62883e-02
      9175       9184      1  -0.031787  -0.022042     3.39967e-01     7.62883e-02
      9172       9181      1  -0.028094  -0.012211     3.39967e-01     7.62883e-02
      9169       9178      1   0.017463  -0.017521     3.39967e-01     7.62883e-02
      9166       9175      1  -0.111712  -0.026489     3.39967e-01     7.62883e-02
      9242       9248      1  -0.164200   0.164116     3.39967e-01     2.28865e-01
      9239       9246      1  -0.002435  -0.559638     3.17980e-01     3.17088e-01
      9239       9247      1  -0.002435  -0.479574     3.19984e-01     2.85295e-01
      9236       9245      1  -0.026954   0.758669     3.39967e-01     2.02918e-01
      9233       9242      1  -0.016521  -0.136833     3.39967e-01     7.62883e-02
      9230       9239      1  -0.027812  -0.002029     3.39967e-01     7.62883e-02
      9227       9236      1  -0.004386  -0.022462     3.39967e-01     7.62883e-02
      9224       9233      1  -0.026451  -0.013767     3.39967e-01     7.62883e-02
      9221       9230      1  -0.014653  -0.023177     3.39967e-01     7.62883e-02
      9218       9227      1  -0.021025  -0.003655     3.39967e-01     7.62883e-02
      9215       9224      1  -0.031787  -0.022042     3.39967e-01     7.62883e-02
      9212       9221      1  -0.028094  -0.012211     3.39967e-01     7.62883e-02
      9209       9218      1   0.017463  -0.017521     3.39967e-01     7.62883e-02
      9206       9215      1  -0.111712  -0.026489     3.39967e-01     7.62883e-02
      9282       9317      1  -0.673755  -0.002029     3.17980e-01     3.17088e-01
      9281       9314      1   0.897613  -0.022462     3.39967e-01     2.02918e-01
      9280       9317      1  -0.552948  -0.002029     3.19984e-01     2.85295e-01
      9259       9278      1   0.166801  -0.729843     3.17980e-01     3.17088e-01
      9259       9279      1   0.166801  -0.729843     3.17980e-01     3.17088e-01
      9259       9266      1   0.166801  -0.282478     3.39967e-01     2.28865e-01
      9259       9270      1   0.166801  -0.282478     3.39967e-01     2.28865e-01
      9259       9274      1   0.166801  -0.282478     3.39967e-01     2.28865e-01
      9258       9265      1  -0.508176   0.204385     3.12501e-01     3.55640e-01
      9257       9262      1   1.339721  -0.142353     3.57072e-01     3.09446e-01
      9256       9280      1  -0.509480  -0.460790     3.00001e-01     3.55640e-01
      9256       9259      1  -0.509480   0.139001     3.19984e-01     2.85295e-01
      9253       9281      1   0.017459   0.748011     3.39967e-01     2.02918e-01
      9253       9258      1   0.017459  -0.423480     3.19984e-01     2.85295e-01
      9253       9278      1   0.017459  -0.729843     3.17980e-01     3.17088e-01
      9253       9279      1   0.017459  -0.729843     3.17980e-01     3.17088e-01
      9251       9257      1   0.281242   1.116434     3.57072e-01     3.09446e-01
      9251       9282      1   0.281242  -0.561462     3.17980e-01     3.17088e-01
      9251       9320      1   0.281242  -0.136833     3.39967e-01     2.28865e-01
      9248       9256      1   0.196939  -0.424567     3.19984e-01     2.85295e-01
      9248       9281      1   0.196939   0.748011     3.39967e-01     2.02918e-01
      9247       9253      1  -0.575489   0.014549     3.19984e-01     2.85295e-01
      9247       9280      1  -0.575489  -0.460790     3.00001e-01     3.55640e-01
      9246       9248      1  -0.671566   0.164116     3.17980e-01     3.17088e-01
      9245       9251      1   0.910403   0.234368     3.39967e-01     2.02918e-01
      9311       9320      1  -0.016521  -0.136833     3.39967e-01     7.62883e-02
      9308       9317      1  -0.027812  -0.002029     3.39967e-01     7.62883e-02
      9305       9314      1  -0.004386  -0.022462     3.39967e-01     7.62883e-02
      9302       9311      1  -0.026451  -0.013767     3.39967e-01     7.62883e-02
      9299       9308      1  -0.014653  -0.023177     3.39967e-01     7.62883e-02
      9296       9305      1  -0.021025  -0.003655     3.39967e-01     7.62883e-02
      9293       9302      1  -0.031787  -0.022042     3.39967e-01     7.62883e-02
      9290       9299      1  -0.028094  -0.012211     3.39967e-01     7.62883e-02
      9287       9296      1   0.017463  -0.017521     3.39967e-01     7.62883e-02
      9284       9293      1  -0.111712  -0.026489     3.39967e-01     7.62883e-02
      9360       9366      1  -0.164200   0.164116     3.39967e-01     2.28865e-01
      9357       9364      1  -0.002435  -0.559638     3.17980e-01     3.17088e-01
      9357       9365      1  -0.002435  -0.479574     3.19984e-01     2.85295e-01
      9354       9363      1  -0.026954   0.758669     3.39967e-01     2.02918e-01
      9351       9360      1  -0.016521  -0.136833     3.39967e-01     7.62883e-02
      9348       9357      1  -0.027812  -0.002029     3.39967e-01     7.62883e-02
      9345       9354      1  -0.004386  -0.022462     3.39967e-01     7.62883e-02
      9342       9351      1  -0.026451  -0.013767     3.39967e-01     7.62883e-02
      9339       9348      1  -0.014653  -0.023177     3.39967e-01     7.62883e-02
      9336       9345      1  -0.021025  -0.003655     3.39967e-01     7.62883e-02
      9333       9342      1  -0.031787  -0.022042     3.39967e-01     7.62883e-02
      9330       9339      1  -0.028094  -0.012211     3.39967e-01     7.62883e-02
      9327       9336      1   0.017463  -0.017521     3.39967e-01     7.62883e-02
      9324       9333      1  -0.111712  -0.026489     3.39967e-01     7.62883e-02
      9400       9435      1  -0.673755  -0.002029     3.17980e-01     3.17088e-01
      9399       9432      1   0.897613  -0.022462     3.39967e-01     2.02918e-01
      9398       9435      1  -0.552948  -0.002029     3.19984e-01     2.85295e-01
      9377       9396      1   0.166801  -0.729843     3.17980e-01     3.17088e-01
      9377       9397      1   0.166801  -0.729843     3.17980e-01     3.17088e-01
      9377       9384      1   0.166801  -0.282478     3.39967e-01     2.28865e-01
      9377       9388      1   0.166801  -0.282478     3.39967e-01     2.28865e-01
      9377       9392      1   0.166801  -0.282478     3.39967e-01     2.28865e-01
      9376       9383      1  -0.508176   0.204385     3.12501e-01     3.55640e-01
      9375       9380      1   1.339721  -0.142353     3.57072e-01     3.09446e-01
      9374       9398      1  -0.509480  -0.460790     3.00001e-01     3.55640e-01
      9374       9377      1  -0.509480   0.139001     3.19984e-01     2.85295e-01
      9371       9399      1   0.017459   0.748011     3.39967e-01     2.02918e-01
      9371       9376      1   0.017459  -0.423480     3.19984e-01     2.85295e-01
      9371       9396      1   0.017459  -0.729843     3.17980e-01     3.17088e-01
      9371       9397      1   0.017459  -0.729843     3.17980e-01     3.17088e-01
      9369       9375      1   0.281242   1.116434     3.57072e-01     3.09446e-01
      9369       9400      1   0.281242  -0.561462     3.17980e-01     3.17088e-01
      9369       9438      1   0.281242  -0.136833     3.39967e-01     2.28865e-01
      9366       9374      1   0.196939  -0.424567     3.19984e-01     2.85295e-01
      9366       9399      1   0.196939   0.748011     3.39967e-01     2.02918e-01
      9365       9371      1  -0.575489   0.014549     3.19984e-01     2.85295e-01
      9365       9398      1  -0.575489  -0.460790     3.00001e-01     3.55640e-01
      9364       9366      1  -0.671566   0.164116     3.17980e-01     3.17088e-01
      9363       9369      1   0.910403   0.234368     3.39967e-01     2.02918e-01
      9429       9438      1  -0.016521  -0.136833     3.39967e-01     7.62883e-02
      9426       9435      1  -0.027812  -0.002029     3.39967e-01     7.62883e-02
      9423       9432      1  -0.004386  -0.022462     3.39967e-01     7.62883e-02
      9420       9429      1  -0.026451  -0.013767     3.39967e-01     7.62883e-02
      9417       9426      1  -0.014653  -0.023177     3.39967e-01     7.62883e-02
      9414       9423      1  -0.021025  -0.003655     3.39967e-01     7.62883e-02
      9411       9420      1  -0.031787  -0.022042     3.39967e-01     7.62883e-02
      9408       9417      1  -0.028094  -0.012211     3.39967e-01     7.62883e-02
      9405       9414      1   0.017463  -0.017521     3.39967e-01     7.62883e-02
      9402       9411      1  -0.111712  -0.026489     3.39967e-01     7.62883e-02
      9478       9484      1  -0.164200   0.164116     3.39967e-01     2.28865e-01
      9475       9482      1  -0.002435  -0.559638     3.17980e-01     3.17088e-01
      9475       9483      1  -0.002435  -0.479574     3.19984e-01     2.85295e-01
      9472       9481      1  -0.026954   0.758669     3.39967e-01     2.02918e-01
      9469       9478      1  -0.016521  -0.136833     3.39967e-01     7.62883e-02
      9466       9475      1  -0.027812  -0.002029     3.39967e-01     7.62883e-02
      9463       9472      1  -0.004386  -0.022462     3.39967e-01     7.62883e-02
      9460       9469      1  -0.026451  -0.013767     3.39967e-01     7.62883e-02
      9457       9466      1  -0.014653  -0.023177     3.39967e-01     7.62883e-02
      9454       9463      1  -0.021025  -0.003655     3.39967e-01     7.62883e-02
      9451       9460      1  -0.031787  -0.022042     3.39967e-01     7.62883e-02
      9448       9457      1  -0.028094  -0.012211     3.39967e-01     7.62883e-02
      9445       9454      1   0.017463  -0.017521     3.39967e-01     7.62883e-02
      9442       9451      1  -0.111712  -0.026489     3.39967e-01     7.62883e-02
      9518       9553      1  -0.673755  -0.002029     3.17980e-01     3.17088e-01
      9517       9550      1   0.897613  -0.022462     3.39967e-01     2.02918e-01
      9516       9553      1  -0.552948  -0.002029     3.19984e-01     2.85295e-01
      9495       9514      1   0.166801  -0.729843     3.17980e-01     3.17088e-01
      9495       9515      1   0.166801  -0.729843     3.17980e-01     3.17088e-01
      9495       9502      1   0.166801  -0.282478     3.39967e-01     2.28865e-01
      9495       9506      1   0.166801  -0.282478     3.39967e-01     2.28865e-01
      9495       9510      1   0.166801  -0.282478     3.39967e-01     2.28865e-01
      9494       9501      1  -0.508176   0.204385     3.12501e-01     3.55640e-01
      9493       9498      1   1.339721  -0.142353     3.57072e-01     3.09446e-01
      9492       9516      1  -0.509480  -0.460790     3.00001e-01     3.55640e-01
      9492       9495      1  -0.509480   0.139001     3.19984e-01     2.85295e-01
      9489       9517      1   0.017459   0.748011     3.39967e-01     2.02918e-01
      9489       9494      1   0.017459  -0.423480     3.19984e-01     2.85295e-01
      9489       9514      1   0.017459  -0.729843     3.17980e-01     3.17088e-01
      9489       9515      1   0.017459  -0.729843     3.17980e-01     3.17088e-01
      9487       9493      1   0.281242   1.116434     3.57072e-01     3.09446e-01
      9487       9518      1   0.281242  -0.561462     3.17980e-01     3.17088e-01
      9487       9556      1   0.281242  -0.136833     3.39967e-01     2.28865e-01
      9484       9492      1   0.196939  -0.424567     3.19984e-01     2.85295e-01
      9484       9517      1   0.196939   0.748011     3.39967e-01     2.02918e-01
      9483       9489      1  -0.575489   0.014549     3.19984e-01     2.85295e-01
      9483       9516      1  -0.575489  -0.460790     3.00001e-01     3.55640e-01
      9482       9484      1  -0.671566   0.164116     3.17980e-01     3.17088e-01
      9481       9487      1   0.910403   0.234368     3.39967e-01     2.02918e-01
      9547       9556      1  -0.016521  -0.136833     3.39967e-01     7.62883e-02
      9544       9553      1  -0.027812  -0.002029     3.39967e-01     7.62883e-02
      9541       9550      1  -0.004386  -0.022462     3.39967e-01     7.62883e-02
      9538       9547      1  -0.026451  -0.013767     3.39967e-01     7.62883e-02
      9535       9544      1  -0.014653  -0.023177     3.39967e-01     7.62883e-02
      9532       9541      1  -0.021025  -0.003655     3.39967e-01     7.62883e-02
      9529       9538      1  -0.031787  -0.022042     3.39967e-01     7.62883e-02
      9526       9535      1  -0.028094  -0.012211     3.39967e-01     7.62883e-02
      9523       9532      1   0.017463  -0.017521     3.39967e-01     7.62883e-02
      9520       9529      1  -0.111712  -0.026489     3.39967e-01     7.62883e-02
      9596       9602      1  -0.164200   0.164116     3.39967e-01     2.28865e-01
      9593       9600      1  -0.002435  -0.559638     3.17980e-01     3.17088e-01
      9593       9601      1  -0.002435  -0.479574     3.19984e-01     2.85295e-01
      9590       9599      1  -0.026954   0.758669     3.39967e-01     2.02918e-01
      9587       9596      1  -0.016521  -0.136833     3.39967e-01     7.62883e-02
      9584       9593      1  -0.027812  -0.002029     3.39967e-01     7.62883e-02
      9581       9590      1  -0.004386  -0.022462     3.39967e-01     7.62883e-02
      9578       9587      1  -0.026451  -0.013767     3.39967e-01     7.62883e-02
      9575       9584      1  -0.014653  -0.023177     3.39967e-01     7.62883e-02
      9572       9581      1  -0.021025  -0.003655     3.39967e-01     7.62883e-02
      9569       9578      1  -0.031787  -0.022042     3.39967e-01     7.62883e-02
      9566       9575      1  -0.028094  -0.012211     3.39967e-01     7.62883e-02
      9563       9572      1   0.017463  -0.017521     3.39967e-01     7.62883e-02
      9560       9569      1  -0.111712  -0.026489     3.39967e-01     7.62883e-02
      9636       9671      1  -0.673755  -0.002029     3.17980e-01     3.17088e-01
      9635       9668      1   0.897613  -0.022462     3.39967e-01     2.02918e-01
      9634       9671      1  -0.552948  -0.002029     3.19984e-01     2.85295e-01
      9613       9632      1   0.166801  -0.729843     3.17980e-01     3.17088e-01
      9613       9633      1   0.166801  -0.729843     3.17980e-01     3.17088e-01
      9613       9620      1   0.166801  -0.282478     3.39967e-01     2.28865e-01
      9613       9624      1   0.166801  -0.282478     3.39967e-01     2.28865e-01
      9613       9628      1   0.166801  -0.282478     3.39967e-01     2.28865e-01
      9612       9619      1  -0.508176   0.204385     3.12501e-01     3.55640e-01
      9611       9616      1   1.339721  -0.142353     3.57072e-01     3.09446e-01
      9610       9634      1  -0.509480  -0.460790     3.00001e-01     3.55640e-01
      9610       9613      1  -0.509480   0.139001     3.19984e-01     2.85295e-01
      9607       9635      1   0.017459   0.748011     3.39967e-01     2.02918e-01
      9607       9612      1   0.017459  -0.423480     3.19984e-01     2.85295e-01
      9607       9632      1   0.017459  -0.729843     3.17980e-01     3.17088e-01
      9607       9633      1   0.017459  -0.729843     3.17980e-01     3.17088e-01
      9605       9611      1   0.281242   1.116434     3.57072e-01     3.09446e-01
      9605       9636      1   0.281242  -0.561462     3.17980e-01     3.17088e-01
      9605       9674      1   0.281242  -0.136833     3.39967e-01     2.28865e-01
      9602       9610      1   0.196939  -0.424567     3.19984e-01     2.85295e-01
      9602       9635      1   0.196939   0.748011     3.39967e-01     2.02918e-01
      9601       9607      1  -0.575489   0.014549     3.19984e-01     2.85295e-01
      9601       9634      1  -0.575489  -0.460790     3.00001e-01     3.55640e-01
      9600       9602      1  -0.671566   0.164116     3.17980e-01     3.17088e-01
      9599       9605      1   0.910403   0.234368     3.39967e-01     2.02918e-01
      9665       9674      1  -0.016521  -0.136833     3.39967e-01     7.62883e-02
      9662       9671      1  -0.027812  -0.002029     3.39967e-01     7.62883e-02
      9659       9668      1  -0.004386  -0.022462     3.39967e-01     7.62883e-02
      9656       9665      1  -0.026451  -0.013767     3.39967e-01     7.62883e-02
      9653       9662      1  -0.014653  -0.023177     3.39967e-01     7.62883e-02
      9650       9659      1  -0.021025  -0.003655     3.39967e-01     7.62883e-02
      9647       9656      1  -0.031787  -0.022042     3.39967e-01     7.62883e-02
      9644       9653      1  -0.028094  -0.012211     3.39967e-01     7.62883e-02
      9641       9650      1   0.017463  -0.017521     3.39967e-01     7.62883e-02
      9638       9647      1  -0.111712  -0.026489     3.39967e-01     7.62883e-02
      9714       9720      1  -0.164200   0.164116     3.39967e-01     2.28865e-01
      9711       9718      1  -0.002435  -0.559638     3.17980e-01     3.17088e-01
      9711       9719      1  -0.002435  -0.479574     3.19984e-01     2.85295e-01
      9708       9717      1  -0.026954   0.758669     3.39967e-01     2.02918e-01
      9705       9714      1  -0.016521  -0.136833     3.39967e-01     7.62883e-02
      9702       9711      1  -0.027812  -0.002029     3.39967e-01     7.62883e-02
      9699       9708      1  -0.004386  -0.022462     3.39967e-01     7.62883e-02
      9696       9705      1  -0.026451  -0.013767     3.39967e-01     7.62883e-02
      9693       9702      1  -0.014653  -0.023177     3.39967e-01     7.62883e-02
      9690       9699      1  -0.021025  -0.003655     3.39967e-01     7.62883e-02
      9687       9696      1  -0.031787  -0.022042     3.39967e-01     7.62883e-02
      9684       9693      1  -0.028094  -0.012211     3.39967e-01     7.62883e-02
      9681       9690      1   0.017463  -0.017521     3.39967e-01     7.62883e-02
      9678       9687      1  -0.111712  -0.026489     3.39967e-01     7.62883e-02
      9754       9789      1  -0.673755  -0.002029     3.17980e-01     3.17088e-01
      9753       9786      1   0.897613  -0.022462     3.39967e-01     2.02918e-01
      9752       9789      1  -0.552948  -0.002029     3.19984e-01     2.85295e-01
      9731       9750      1   0.166801  -0.729843     3.17980e-01     3.17088e-01
      9731       9751      1   0.166801  -0.729843     3.17980e-01     3.17088e-01
      9731       9738      1   0.166801  -0.282478     3.39967e-01     2.28865e-01
      9731       9742      1   0.166801  -0.282478     3.39967e-01     2.28865e-01
      9731       9746      1   0.166801  -0.282478     3.39967e-01     2.28865e-01
      9730       9737      1  -0.508176   0.204385     3.12501e-01     3.55640e-01
      9729       9734      1   1.339721  -0.142353     3.57072e-01     3.09446e-01
      9728       9752      1  -0.509480  -0.460790     3.00001e-01     3.55640e-01
      9728       9731      1  -0.509480   0.139001     3.19984e-01     2.85295e-01
      9725       9753      1   0.017459   0.748011     3.39967e-01     2.02918e-01
      9725       9730      1   0.017459  -0.423480     3.19984e-01     2.85295e-01
      9725       9750      1   0.017459  -0.729843     3.17980e-01     3.17088e-01
      9725       9751      1   0.017459  -0.729843     3.17980e-01     3.17088e-01
      9723       9729      1   0.281242   1.116434     3.57072e-01     3.09446e-01
      9723       9754      1   0.281242  -0.561462     3.17980e-01     3.17088e-01
      9723       9792      1   0.281242  -0.136833     3.39967e-01     2.28865e-01
      9720       9728      1   0.196939  -0.424567     3.19984e-01     2.85295e-01
      9720       9753      1   0.196939   0.748011     3.39967e-01     2.02918e-01
      9719       9725      1  -0.575489   0.014549     3.19984e-01     2.85295e-01
      9719       9752      1  -0.575489  -0.460790     3.00001e-01     3.55640e-01
      9718       9720      1  -0.671566   0.164116     3.17980e-01     3.17088e-01
      9717       9723      1   0.910403   0.234368     3.39967e-01     2.02918e-01
      9783       9792      1  -0.016521  -0.136833     3.39967e-01     7.62883e-02
      9780       9789      1  -0.027812  -0.002029     3.39967e-01     7.62883e-02
      9777       9786      1  -0.004386  -0.022462     3.39967e-01     7.62883e-02
      9774       9783      1  -0.026451  -0.013767     3.39967e-01     7.62883e-02
      9771       9780      1  -0.014653  -0.023177     3.39967e-01     7.62883e-02
      9768       9777      1  -0.021025  -0.003655     3.39967e-01     7.62883e-02
      9765       9774      1  -0.031787  -0.022042     3.39967e-01     7.62883e-02
      9762       9771      1  -0.028094  -0.012211     3.39967e-01     7.62883e-02
      9759       9768      1   0.017463  -0.017521     3.39967e-01     7.62883e-02
      9756       9765      1  -0.111712  -0.026489     3.39967e-01     7.62883e-02
      9832       9838      1  -0.164200   0.164116     3.39967e-01     2.28865e-01
      9829       9836      1  -0.002435  -0.559638     3.17980e-01     3.17088e-01
      9829       9837      1  -0.002435  -0.479574     3.19984e-01     2.85295e-01
      9826       9835      1  -0.026954   0.758669     3.39967e-01     2.02918e-01
      9823       9832      1  -0.016521  -0.136833     3.39967e-01     7.62883e-02
      9820       9829      1  -0.027812  -0.002029     3.39967e-01     7.62883e-02
      9817       9826      1  -0.004386  -0.022462     3.39967e-01     7.62883e-02
      9814       9823      1  -0.026451  -0.013767     3.39967e-01     7.62883e-02
      9811       9820      1  -0.014653  -0.023177     3.39967e-01     7.62883e-02
      9808       9817      1  -0.021025  -0.003655     3.39967e-01     7.62883e-02
      9805       9814      1  -0.031787  -0.022042     3.39967e-01     7.62883e-02
      9802       9811      1  -0.028094  -0.012211     3.39967e-01     7.62883e-02
      9799       9808      1   0.017463  -0.017521     3.39967e-01     7.62883e-02
      9796       9805      1  -0.111712  -0.026489     3.39967e-01     7.62883e-02
      9872       9907      1  -0.673755  -0.002029     3.17980e-01     3.17088e-01
      9871       9904      1   0.897613  -0.022462     3.39967e-01     2.02918e-01
      9870       9907      1  -0.552948  -0.002029     3.19984e-01     2.85295e-01
      9849       9868      1   0.166801  -0.729843     3.17980e-01     3.17088e-01
      9849       9869      1   0.166801  -0.729843     3.17980e-01     3.17088e-01
      9849       9856      1   0.166801  -0.282478     3.39967e-01     2.28865e-01
      9849       9860      1   0.166801  -0.282478     3.39967e-01     2.28865e-01
      9849       9864      1   0.166801  -0.282478     3.39967e-01     2.28865e-01
      9848       9855      1  -0.508176   0.204385     3.12501e-01     3.55640e-01
      9847       9852      1   1.339721  -0.142353     3.57072e-01     3.09446e-01
      9846       9870      1  -0.509480  -0.460790     3.00001e-01     3.55640e-01
      9846       9849      1  -0.509480   0.139001     3.19984e-01     2.85295e-01
      9843       9871      1   0.017459   0.748011     3.39967e-01     2.02918e-01
      9843       9848      1   0.017459  -0.423480     3.19984e-01     2.85295e-01
      9843       9868      1   0.017459  -0.729843     3.17980e-01     3.17088e-01
      9843       9869      1   0.017459  -0.729843     3.17980e-01     3.17088e-01
      9841       9847      1   0.281242   1.116434     3.57072e-01     3.09446e-01
      9841       9872      1   0.281242  -0.561462     3.17980e-01     3.17088e-01
      9841       9910      1   0.281242  -0.136833     3.39967e-01     2.28865e-01
      9838       9846      1   0.196939  -0.424567     3.19984e-01     2.85295e-01
      9838       9871      1   0.196939   0.748011     3.39967e-01     2.02918e-01
      9837       9843      1  -0.575489   0.014549     3.19984e-01     2.85295e-01
      9837       9870      1  -0.575489  -0.460790     3.00001e-01     3.55640e-01
      9836       9838      1  -0.671566   0.164116     3.17980e-01     3.17088e-01
      9835       9841      1   0.910403   0.234368     3.39967e-01     2.02918e-01
      9901       9910      1  -0.016521  -0.136833     3.39967e-01     7.62883e-02
      9898       9907      1  -0.027812  -0.002029     3.39967e-01     7.62883e-02
      9895       9904      1  -0.004386  -0.022462     3.39967e-01     7.62883e-02
      9892       9901      1  -0.026451  -0.013767     3.39967e-01     7.62883e-02
      9889       9898      1  -0.014653  -0.023177     3.39967e-01     7.62883e-02
      9886       9895      1  -0.021025  -0.003655     3.39967e-01     7.62883e-02
      9883       9892      1  -0.031787  -0.022042     3.39967e-01     7.62883e-02
      9880       9889      1  -0.028094  -0.012211     3.39967e-01     7.62883e-02
      9877       9886      1   0.017463  -0.017521     3.39967e-01     7.62883e-02
      9874       9883      1  -0.111712  -0.026489     3.39967e-01     7.62883e-02
      9950       9956      1  -0.164200   0.164116     3.39967e-01     2.28865e-01
      9947       9954      1  -0.002435  -0.559638     3.17980e-01     3.17088e-01
      9947       9955      1  -0.002435  -0.479574     3.19984e-01     2.85295e-01
      9944       9953      1  -0.026954   0.758669     3.39967e-01     2.02918e-01
      9941       9950      1  -0.016521  -0.136833     3.39967e-01     7.62883e-02
      9938       9947      1  -0.027812  -0.002029     3.39967e-01     7.62883e-02
      9935       9944      1  -0.004386  -0.022462     3.39967e-01     7.62883e-02
      9932       9941      1  -0.026451  -0.013767     3.39967e-01     7.62883e-02
      9929       9938      1  -0.014653  -0.023177     3.39967e-01     7.62883e-02
      9926       9935      1  -0.021025  -0.003655     3.39967e-01     7.62883e-02
      9923       9932      1  -0.031787  -0.022042     3.39967e-01     7.62883e-02
      9920       9929      1  -0.028094  -0.012211     3.39967e-01     7.62883e-02
      9917       9926      1   0.017463  -0.017521     3.39967e-01     7.62883e-02
      9914       9923      1  -0.111712  -0.026489     3.39967e-01     7.62883e-02
      9990      10025      1  -0.673755  -0.002029     3.17980e-01     3.17088e-01
      9989      10022      1   0.897613  -0.022462     3.39967e-01     2.02918e-01
      9988      10025      1  -0.552948  -0.002029     3.19984e-01     2.85295e-01
      9967       9986      1   0.166801  -0.729843     3.17980e-01     3.17088e-01
      9967       9987      1   0.166801  -0.729843     3.17980e-01     3.17088e-01
      9967       9974      1   0.166801  -0.282478     3.39967e-01     2.28865e-01
      9967       9978      1   0.166801  -0.282478     3.39967e-01     2.28865e-01
      9967       9982      1   0.166801  -0.282478     3.39967e-01     2.28865e-01
      9966       9973      1  -0.508176   0.204385     3.12501e-01     3.55640e-01
      9965       9970      1   1.339721  -0.142353     3.57072e-01     3.09446e-01
      9964       9988      1  -0.509480  -0.460790     3.00001e-01     3.55640e-01
      9964       9967      1  -0.509480   0.139001     3.19984e-01     2.85295e-01
      9961       9989      1   0.017459   0.748011     3.39967e-01     2.02918e-01
      9961       9966      1   0.017459  -0.423480     3.19984e-01     2.85295e-01
      9961       9986      1   0.017459  -0.729843     3.17980e-01     3.17088e-01
      9961       9987      1   0.017459  -0.729843     3.17980e-01     3.17088e-01
      9959       9965      1   0.281242   1.116434     3.57072e-01     3.09446e-01
      9959       9990      1   0.281242  -0.561462     3.17980e-01     3.17088e-01
      9959      10028      1   0.281242  -0.136833     3.39967e-01     2.28865e-01
      9956       9964      1   0.196939  -0.424567     3.19984e-01     2.85295e-01
      9956       9989      1   0.196939   0.748011     3.39967e-01     2.02918e-01
      9955       9961      1  -0.575489   0.014549     3.19984e-01     2.85295e-01
      9955       9988      1  -0.575489  -0.460790     3.00001e-01     3.55640e-01
      9954       9956      1  -0.671566   0.164116     3.17980e-01     3.17088e-01
      9953       9959      1   0.910403   0.234368     3.39967e-01     2.02918e-01
     10019      10028      1  -0.016521  -0.136833     3.39967e-01     7.62883e-02
     10016      10025      1  -0.027812  -0.002029     3.39967e-01     7.62883e-02
     10013      10022      1  -0.004386  -0.022462     3.39967e-01     7.62883e-02
     10010      10019      1  -0.026451  -0.013767     3.39967e-01     7.62883e-02
     10007      10016      1  -0.014653  -0.023177     3.39967e-01     7.62883e-02
     10004      10013      1  -0.021025  -0.003655     3.39967e-01     7.62883e-02
     10001      10010      1  -0.031787  -0.022042     3.39967e-01     7.62883e-02
      9998      10007      1  -0.028094  -0.012211     3.39967e-01     7.62883e-02
      9995      10004      1   0.017463  -0.017521     3.39967e-01     7.62883e-02
      9992      10001      1  -0.111712  -0.026489     3.39967e-01     7.62883e-02
     10068      10074      1  -0.164200   0.164116     3.39967e-01     2.28865e-01
     10065      10072      1  -0.002435  -0.559638     3.17980e-01     3.17088e-01
     10065      10073      1  -0.002435  -0.479574     3.19984e-01     2.85295e-01
     10062      10071      1  -0.026954   0.758669     3.39967e-01     2.02918e-01
     10059      10068      1  -0.016521  -0.136833     3.39967e-01     7.62883e-02
     10056      10065      1  -0.027812  -0.002029     3.39967e-01     7.62883e-02
     10053      10062      1  -0.004386  -0.022462     3.39967e-01     7.62883e-02
     10050      10059      1  -0.026451  -0.013767     3.39967e-01     7.62883e-02
     10047      10056      1  -0.014653  -0.023177     3.39967e-01     7.62883e-02
     10044      10053      1  -0.021025  -0.003655     3.39967e-01     7.62883e-02
     10041      10050      1  -0.031787  -0.022042     3.39967e-01     7.62883e-02
     10038      10047      1  -0.028094  -0.012211     3.39967e-01     7.62883e-02
     10035      10044      1   0.017463  -0.017521     3.39967e-01     7.62883e-02
     10032      10041      1  -0.111712  -0.026489     3.39967e-01     7.62883e-02
     10108      10143      1  -0.673755  -0.002029     3.17980e-01     3.17088e-01
     10107      10140      1   0.897613  -0.022462     3.39967e-01     2.02918e-01
     10106      10143      1  -0.552948  -0.002029     3.19984e-01     2.85295e-01
     10085      10104      1   0.166801  -0.729843     3.17980e-01     3.17088e-01
     10085      10105      1   0.166801  -0.729843     3.17980e-01     3.17088e-01
     10085      10092      1   0.166801  -0.282478     3.39967e-01     2.28865e-01
     10085      10096      1   0.166801  -0.282478     3.39967e-01     2.28865e-01
     10085      10100      1   0.166801  -0.282478     3.39967e-01     2.28865e-01
     10084      10091      1  -0.508176   0.204385     3.12501e-01     3.55640e-01
     10083      10088      1   1.339721  -0.142353     3.57072e-01     3.09446e-01
     10082      10106      1  -0.509480  -0.460790     3.00001e-01     3.55640e-01
     10082      10085      1  -0.509480   0.139001     3.19984e-01     2.85295e-01
     10079      10107      1   0.017459   0.748011     3.39967e-01     2.02918e-01
     10079      10084      1   0.017459  -0.423480     3.19984e-01     2.85295e-01
     10079      10104      1   0.017459  -0.729843     3.17980e-01     3.17088e-01
     10079      10105      1   0.017459  -0.729843     3.17980e-01     3.17088e-01
     10077      10083      1   0.281242   1.116434     3.57072e-01     3.09446e-01
     10077      10108      1   0.281242  -0.561462     3.17980e-01     3.17088e-01
     10077      10146      1   0.281242  -0.136833     3.39967e-01     2.28865e-01
     10074      10082      1   0.196939  -0.424567     3.19984e-01     2.85295e-01
     10074      10107      1   0.196939   0.748011     3.39967e-01     2.02918e-01
     10073      10079      1  -0.575489   0.014549     3.19984e-01     2.85295e-01
     10073      10106      1  -0.575489  -0.460790     3.00001e-01     3.55640e-01
     10072      10074      1  -0.671566   0.164116     3.17980e-01     3.17088e-01
     10071      10077      1   0.910403   0.234368     3.39967e-01     2.02918e-01
     10137      10146      1  -0.016521  -0.136833     3.39967e-01     7.62883e-02
     10134      10143      1  -0.027812  -0.002029     3.39967e-01     7.62883e-02
     10131      10140      1  -0.004386  -0.022462     3.39967e-01     7.62883e-02
     10128      10137      1  -0.026451  -0.013767     3.39967e-01     7.62883e-02
     10125      10134      1  -0.014653  -0.023177     3.39967e-01     7.62883e-02
     10122      10131      1  -0.021025  -0.003655     3.39967e-01     7.62883e-02
     10119      10128      1  -0.031787  -0.022042     3.39967e-01     7.62883e-02
     10116      10125      1  -0.028094  -0.012211     3.39967e-01     7.62883e-02
     10113      10122      1   0.017463  -0.017521     3.39967e-01     7.62883e-02
     10110      10119      1  -0.111712  -0.026489     3.39967e-01     7.62883e-02
     10186      10192      1  -0.164200   0.164116     3.39967e-01     2.28865e-01
     10183      10190      1  -0.002435  -0.559638     3.17980e-01     3.17088e-01
     10183      10191      1  -0.002435  -0.479574     3.19984e-01     2.85295e-01
     10180      10189      1  -0.026954   0.758669     3.39967e-01     2.02918e-01
     10177      10186      1  -0.016521  -0.136833     3.39967e-01     7.62883e-02
     10174      10183      1  -0.027812  -0.002029     3.39967e-01     7.62883e-02
     10171      10180      1  -0.004386  -0.022462     3.39967e-01     7.62883e-02
     10168      10177      1  -0.026451  -0.013767     3.39967e-01     7.62883e-02
     10165      10174      1  -0.014653  -0.023177     3.39967e-01     7.62883e-02
     10162      10171      1  -0.021025  -0.003655     3.39967e-01     7.62883e-02
     10159      10168      1  -0.031787  -0.022042     3.39967e-01     7.62883e-02
     10156      10165      1  -0.028094  -0.012211     3.39967e-01     7.62883e-02
     10153      10162      1   0.017463  -0.017521     3.39967e-01     7.62883e-02
     10150      10159      1  -0.111712  -0.026489     3.39967e-01     7.62883e-02
     10226      10261      1  -0.673755  -0.002029     3.17980e-01     3.17088e-01
     10225      10258      1   0.897613  -0.022462     3.39967e-01     2.02918e-01
     10224      10261      1  -0.552948  -0.002029     3.19984e-01     2.85295e-01
     10203      10222      1   0.166801  -0.729843     3.17980e-01     3.17088e-01
     10203      10223      1   0.166801  -0.729843     3.17980e-01     3.17088e-01
     10203      10210      1   0.166801  -0.282478     3.39967e-01     2.28865e-01
     10203      10214      1   0.166801  -0.282478     3.39967e-01     2.28865e-01
     10203      10218      1   0.166801  -0.282478     3.39967e-01     2.28865e-01
     10202      10209      1  -0.508176   0.204385     3.12501e-01     3.55640e-01
     10201      10206      1   1.339721  -0.142353     3.57072e-01     3.09446e-01
     10200      10224      1  -0.509480  -0.460790     3.00001e-01     3.55640e-01
     10200      10203      1  -0.509480   0.139001     3.19984e-01     2.85295e-01
     10197      10225      1   0.017459   0.748011     3.39967e-01     2.02918e-01
     10197      10202      1   0.017459  -0.423480     3.19984e-01     2.85295e-01
     10197      10222      1   0.017459  -0.729843     3.17980e-01     3.17088e-01
     10197      10223      1   0.017459  -0.729843     3.17980e-01     3.17088e-01
     10195      10201      1   0.281242   1.116434     3.57072e-01     3.09446e-01
     10195      10226      1   0.281242  -0.561462     3.17980e-01     3.17088e-01
     10195      10264      1   0.281242  -0.136833     3.39967e-01     2.28865e-01
     10192      10200      1   0.196939  -0.424567     3.19984e-01     2.85295e-01
     10192      10225      1   0.196939   0.748011     3.39967e-01     2.02918e-01
     10191      10197      1  -0.575489   0.014549     3.19984e-01     2.85295e-01
     10191      10224      1  -0.575489  -0.460790     3.00001e-01     3.55640e-01
     10190      10192      1  -0.671566   0.164116     3.17980e-01     3.17088e-01
     10189      10195      1   0.910403   0.234368     3.39967e-01     2.02918e-01
     10255      10264      1  -0.016521  -0.136833     3.39967e-01     7.62883e-02
     10252      10261      1  -0.027812  -0.002029     3.39967e-01     7.62883e-02
     10249      10258      1  -0.004386  -0.022462     3.39967e-01     7.62883e-02
     10246      10255      1  -0.026451  -0.013767     3.39967e-01     7.62883e-02
     10243      10252      1  -0.014653  -0.023177     3.39967e-01     7.62883e-02
     10240      10249      1  -0.021025  -0.003655     3.39967e-01     7.62883e-02
     10237      10246      1  -0.031787  -0.022042     3.39967e-01     7.62883e-02
     10234      10243      1  -0.028094  -0.012211     3.39967e-01     7.62883e-02
     10231      10240      1   0.017463  -0.017521     3.39967e-01     7.62883e-02
     10228      10237      1  -0.111712  -0.026489     3.39967e-01     7.62883e-02
     10304      10310      1  -0.164200   0.164116     3.39967e-01     2.28865e-01
     10301      10308      1  -0.002435  -0.559638     3.17980e-01     3.17088e-01
     10301      10309      1  -0.002435  -0.479574     3.19984e-01     2.85295e-01
     10298      10307      1  -0.026954   0.758669     3.39967e-01     2.02918e-01
     10295      10304      1  -0.016521  -0.136833     3.39967e-01     7.62883e-02
     10292      10301      1  -0.027812  -0.002029     3.39967e-01     7.62883e-02
     10289      10298      1  -0.004386  -0.022462     3.39967e-01     7.62883e-02
     10286      10295      1  -0.026451  -0.013767     3.39967e-01     7.62883e-02
     10283      10292      1  -0.014653  -0.023177     3.39967e-01     7.62883e-02
     10280      10289      1  -0.021025  -0.003655     3.39967e-01     7.62883e-02
     10277      10286      1  -0.031787  -0.022042     3.39967e-01     7.62883e-02
     10274      10283      1  -0.028094  -0.012211     3.39967e-01     7.62883e-02
     10271      10280      1   0.017463  -0.017521     3.39967e-01     7.62883e-02
     10268      10277      1  -0.111712  -0.026489     3.39967e-01     7.62883e-02
     10344      10379      1  -0.673755  -0.002029     3.17980e-01     3.17088e-01
     10343      10376      1   0.897613  -0.022462     3.39967e-01     2.02918e-01
     10342      10379      1  -0.552948  -0.002029     3.19984e-01     2.85295e-01
     10321      10340      1   0.166801  -0.729843     3.17980e-01     3.17088e-01
     10321      10341      1   0.166801  -0.729843     3.17980e-01     3.17088e-01
     10321      10328      1   0.166801  -0.282478     3.39967e-01     2.28865e-01
     10321      10332      1   0.166801  -0.282478     3.39967e-01     2.28865e-01
     10321      10336      1   0.166801  -0.282478     3.39967e-01     2.28865e-01
     10320      10327      1  -0.508176   0.204385     3.12501e-01     3.55640e-01
     10319      10324      1   1.339721  -0.142353     3.57072e-01     3.09446e-01
     10318      10342      1  -0.509480  -0.460790     3.00001e-01     3.55640e-01
     10318      10321      1  -0.509480   0.139001     3.19984e-01     2.85295e-01
     10315      10343      1   0.017459   0.748011     3.39967e-01     2.02918e-01
     10315      10320      1   0.017459  -0.423480     3.19984e-01     2.85295e-01
     10315      10340      1   0.017459  -0.729843     3.17980e-01     3.17088e-01
     10315      10341      1   0.017459  -0.729843     3.17980e-01     3.17088e-01
     10313      10319      1   0.281242   1.116434     3.57072e-01     3.09446e-01
     10313      10344      1   0.281242  -0.561462     3.17980e-01     3.17088e-01
     10313      10382      1   0.281242  -0.136833     3.39967e-01     2.28865e-01
     10310      10318      1   0.196939  -0.424567     3.19984e-01     2.85295e-01
     10310      10343      1   0.196939   0.748011     3.39967e-01     2.02918e-01
     10309      10315      1  -0.575489   0.014549     3.19984e-01     2.85295e-01
     10309      10342      1  -0.575489  -0.460790     3.00001e-01     3.55640e-01
     10308      10310      1  -0.671566   0.164116     3.17980e-01     3.17088e-01
     10307      10313      1   0.910403   0.234368     3.39967e-01     2.02918e-01
     10373      10382      1  -0.016521  -0.136833     3.39967e-01     7.62883e-02
     10370      10379      1  -0.027812  -0.002029     3.39967e-01     7.62883e-02
     10367      10376      1  -0.004386  -0.022462     3.39967e-01     7.62883e-02
     10364      10373      1  -0.026451  -0.013767     3.39967e-01     7.62883e-02
     10361      10370      1  -0.014653  -0.023177     3.39967e-01     7.62883e-02
     10358      10367      1  -0.021025  -0.003655     3.39967e-01     7.62883e-02
     10355      10364      1  -0.031787  -0.022042     3.39967e-01     7.62883e-02
     10352      10361      1  -0.028094  -0.012211     3.39967e-01     7.62883e-02
     10349      10358      1   0.017463  -0.017521     3.39967e-01     7.62883e-02
     10346      10355      1  -0.111712  -0.026489     3.39967e-01     7.62883e-02
     10422      10428      1  -0.164200   0.164116     3.39967e-01     2.28865e-01
     10419      10426      1  -0.002435  -0.559638     3.17980e-01     3.17088e-01
     10419      10427      1  -0.002435  -0.479574     3.19984e-01     2.85295e-01
     10416      10425      1  -0.026954   0.758669     3.39967e-01     2.02918e-01
     10413      10422      1  -0.016521  -0.136833     3.39967e-01     7.62883e-02
     10410      10419      1  -0.027812  -0.002029     3.39967e-01     7.62883e-02
     10407      10416      1  -0.004386  -0.022462     3.39967e-01     7.62883e-02
     10404      10413      1  -0.026451  -0.013767     3.39967e-01     7.62883e-02
     10401      10410      1  -0.014653  -0.023177     3.39967e-01     7.62883e-02
     10398      10407      1  -0.021025  -0.003655     3.39967e-01     7.62883e-02
     10395      10404      1  -0.031787  -0.022042     3.39967e-01     7.62883e-02
     10392      10401      1  -0.028094  -0.012211     3.39967e-01     7.62883e-02
     10389      10398      1   0.017463  -0.017521     3.39967e-01     7.62883e-02
     10386      10395      1  -0.111712  -0.026489     3.39967e-01     7.62883e-02
     10462      10497      1  -0.673755  -0.002029     3.17980e-01     3.17088e-01
     10461      10494      1   0.897613  -0.022462     3.39967e-01     2.02918e-01
     10460      10497      1  -0.552948  -0.002029     3.19984e-01     2.85295e-01
     10439      10458      1   0.166801  -0.729843     3.17980e-01     3.17088e-01
     10439      10459      1   0.166801  -0.729843     3.17980e-01     3.17088e-01
     10439      10446      1   0.166801  -0.282478     3.39967e-01     2.28865e-01
     10439      10450      1   0.166801  -0.282478     3.39967e-01     2.28865e-01
     10439      10454      1   0.166801  -0.282478     3.39967e-01     2.28865e-01
     10438      10445      1  -0.508176   0.204385     3.12501e-01     3.55640e-01
     10437      10442      1   1.339721  -0.142353     3.57072e-01     3.09446e-01
     10436      10460      1  -0.509480  -0.460790     3.00001e-01     3.55640e-01
     10436      10439      1  -0.509480   0.139001     3.19984e-01     2.85295e-01
     10433      10461      1   0.017459   0.748011     3.39967e-01     2.02918e-01
     10433      10438      1   0.017459  -0.423480     3.19984e-01     2.85295e-01
     10433      10458      1   0.017459  -0.729843     3.17980e-01     3.17088e-01
     10433      10459      1   0.017459  -0.729843     3.17980e-01     3.17088e-01
     10431      10437      1   0.281242   1.116434     3.57072e-01     3.09446e-01
     10431      10462      1   0.281242  -0.561462     3.17980e-01     3.17088e-01
     10431      10500      1   0.281242  -0.136833     3.39967e-01     2.28865e-01
     10428      10436      1   0.196939  -0.424567     3.19984e-01     2.85295e-01
     10428      10461      1   0.196939   0.748011     3.39967e-01     2.02918e-01
     10427      10433      1  -0.575489   0.014549     3.19984e-01     2.85295e-01
     10427      10460      1  -0.575489  -0.460790     3.00001e-01     3.55640e-01
     10426      10428      1  -0.671566   0.164116     3.17980e-01     3.17088e-01
     10425      10431      1   0.910403   0.234368     3.39967e-01     2.02918e-01
     10491      10500      1  -0.016521  -0.136833     3.39967e-01     7.62883e-02
     10488      10497      1  -0.027812  -0.002029     3.39967e-01     7.62883e-02
     10485      10494      1  -0.004386  -0.022462     3.39967e-01     7.62883e-02
     10482      10491      1  -0.026451  -0.013767     3.39967e-01     7.62883e-02
     10479      10488      1  -0.014653  -0.023177     3.39967e-01     7.62883e-02
     10476      10485      1  -0.021025  -0.003655     3.39967e-01     7.62883e-02
     10473      10482      1  -0.031787  -0.022042     3.39967e-01     7.62883e-02
     10470      10479      1  -0.028094  -0.012211     3.39967e-01     7.62883e-02
     10467      10476      1   0.017463  -0.017521     3.39967e-01     7.62883e-02
     10464      10473      1  -0.111712  -0.026489     3.39967e-01     7.62883e-02
     10540      10546      1  -0.164200   0.164116     3.39967e-01     2.28865e-01
     10537      10544      1  -0.002435  -0.559638     3.17980e-01     3.17088e-01
     10537      10545      1  -0.002435  -0.479574     3.19984e-01     2.85295e-01
     10534      10543      1  -0.026954   0.758669     3.39967e-01     2.02918e-01
     10531      10540      1  -0.016521  -0.136833     3.39967e-01     7.62883e-02
     10528      10537      1  -0.027812  -0.002029     3.39967e-01     7.62883e-02
     10525      10534      1  -0.004386  -0.022462     3.39967e-01     7.62883e-02
     10522      10531      1  -0.026451  -0.013767     3.39967e-01     7.62883e-02
     10519      10528      1  -0.014653  -0.023177     3.39967e-01     7.62883e-02
     10516      10525      1  -0.021025  -0.003655     3.39967e-01     7.62883e-02
     10513      10522      1  -0.031787  -0.022042     3.39967e-01     7.62883e-02
     10510      10519      1  -0.028094  -0.012211     3.39967e-01     7.62883e-02
     10507      10516      1   0.017463  -0.017521     3.39967e-01     7.62883e-02
     10504      10513      1  -0.111712  -0.026489     3.39967e-01     7.62883e-02
     10580      10615      1  -0.673755  -0.002029     3.17980e-01     3.17088e-01
     10579      10612      1   0.897613  -0.022462     3.39967e-01     2.02918e-01
     10578      10615      1  -0.552948  -0.002029     3.19984e-01     2.85295e-01
     10557      10576      1   0.166801  -0.729843     3.17980e-01     3.17088e-01
     10557      10577      1   0.166801  -0.729843     3.17980e-01     3.17088e-01
     10557      10564      1   0.166801  -0.282478     3.39967e-01     2.28865e-01
     10557      10568      1   0.166801  -0.282478     3.39967e-01     2.28865e-01
     10557      10572      1   0.166801  -0.282478     3.39967e-01     2.28865e-01
     10556      10563      1  -0.508176   0.204385     3.12501e-01     3.55640e-01
     10555      10560      1   1.339721  -0.142353     3.57072e-01     3.09446e-01
     10554      10578      1  -0.509480  -0.460790     3.00001e-01     3.55640e-01
     10554      10557      1  -0.509480   0.139001     3.19984e-01     2.85295e-01
     10551      10579      1   0.017459   0.748011     3.39967e-01     2.02918e-01
     10551      10556      1   0.017459  -0.423480     3.19984e-01     2.85295e-01
     10551      10576      1   0.017459  -0.729843     3.17980e-01     3.17088e-01
     10551      10577      1   0.017459  -0.729843     3.17980e-01     3.17088e-01
     10549      10555      1   0.281242   1.116434     3.57072e-01     3.09446e-01
     10549      10580      1   0.281242  -0.561462     3.17980e-01     3.17088e-01
     10549      10618      1   0.281242  -0.136833     3.39967e-01     2.28865e-01
     10546      10554      1   0.196939  -0.424567     3.19984e-01     2.85295e-01
     10546      10579      1   0.196939   0.748011     3.39967e-01     2.02918e-01
     10545      10551      1  -0.575489   0.014549     3.19984e-01     2.85295e-01
     10545      10578      1  -0.575489  -0.460790     3.00001e-01     3.55640e-01
     10544      10546      1  -0.671566   0.164116     3.17980e-01     3.17088e-01
     10543      10549      1   0.910403   0.234368     3.39967e-01     2.02918e-01
     10609      10618      1  -0.016521  -0.136833     3.39967e-01     7.62883e-02
     10606      10615      1  -0.027812  -0.002029     3.39967e-01     7.62883e-02
     10603      10612      1  -0.004386  -0.022462     3.39967e-01     7.62883e-02
     10600      10609      1  -0.026451  -0.013767     3.39967e-01     7.62883e-02
     10597      10606      1  -0.014653  -0.023177     3.39967e-01     7.62883e-02
     10594      10603      1  -0.021025  -0.003655     3.39967e-01     7.62883e-02
     10591      10600      1  -0.031787  -0.022042     3.39967e-01     7.62883e-02
     10588      10597      1  -0.028094  -0.012211     3.39967e-01     7.62883e-02
     10585      10594      1   0.017463  -0.017521     3.39967e-01     7.62883e-02
     10582      10591      1  -0.111712  -0.026489     3.39967e-01     7.62883e-02
     10658      10664      1  -0.164200   0.164116     3.39967e-01     2.28865e-01
     10655      10662      1  -0.002435  -0.559638     3.17980e-01     3.17088e-01
     10655      10663      1  -0.002435  -0.479574     3.19984e-01     2.85295e-01
     10652      10661      1  -0.026954   0.758669     3.39967e-01     2.02918e-01
     10649      10658      1  -0.016521  -0.136833     3.39967e-01     7.62883e-02
     10646      10655      1  -0.027812  -0.002029     3.39967e-01     7.62883e-02
     10643      10652      1  -0.004386  -0.022462     3.39967e-01     7.62883e-02
     10640      10649      1  -0.026451  -0.013767     3.39967e-01     7.62883e-02
     10637      10646      1  -0.014653  -0.023177     3.39967e-01     7.62883e-02
     10634      10643      1  -0.021025  -0.003655     3.39967e-01     7.62883e-02
     10631      10640      1  -0.031787  -0.022042     3.39967e-01     7.62883e-02
     10628      10637      1  -0.028094  -0.012211     3.39967e-01     7.62883e-02
     10625      10634      1   0.017463  -0.017521     3.39967e-01     7.62883e-02
     10622      10631      1  -0.111712  -0.026489     3.39967e-01     7.62883e-02
     10698      10733      1  -0.673755  -0.002029     3.17980e-01     3.17088e-01
     10697      10730      1   0.897613  -0.022462     3.39967e-01     2.02918e-01
     10696      10733      1  -0.552948  -0.002029     3.19984e-01     2.85295e-01
     10675      10694      1   0.166801  -0.729843     3.17980e-01     3.17088e-01
     10675      10695      1   0.166801  -0.729843     3.17980e-01     3.17088e-01
     10675      10682      1   0.166801  -0.282478     3.39967e-01     2.28865e-01
     10675      10686      1   0.166801  -0.282478     3.39967e-01     2.28865e-01
     10675      10690      1   0.166801  -0.282478     3.39967e-01     2.28865e-01
     10674      10681      1  -0.508176   0.204385     3.12501e-01     3.55640e-01
     10673      10678      1   1.339721  -0.142353     3.57072e-01     3.09446e-01
     10672      10696      1  -0.509480  -0.460790     3.00001e-01     3.55640e-01
     10672      10675      1  -0.509480   0.139001     3.19984e-01     2.85295e-01
     10669      10697      1   0.017459   0.748011     3.39967e-01     2.02918e-01
     10669      10674      1   0.017459  -0.423480     3.19984e-01     2.85295e-01
     10669      10694      1   0.017459  -0.729843     3.17980e-01     3.17088e-01
     10669      10695      1   0.017459  -0.729843     3.17980e-01     3.17088e-01
     10667      10673      1   0.281242   1.116434     3.57072e-01     3.09446e-01
     10667      10698      1   0.281242  -0.561462     3.17980e-01     3.17088e-01
     10667      10736      1   0.281242  -0.136833     3.39967e-01     2.28865e-01
     10664      10672      1   0.196939  -0.424567     3.19984e-01     2.85295e-01
     10664      10697      1   0.196939   0.748011     3.39967e-01     2.02918e-01
     10663      10669      1  -0.575489   0.014549     3.19984e-01     2.85295e-01
     10663      10696      1  -0.575489  -0.460790     3.00001e-01     3.55640e-01
     10662      10664      1  -0.671566   0.164116     3.17980e-01     3.17088e-01
     10661      10667      1   0.910403   0.234368     3.39967e-01     2.02918e-01
     10727      10736      1  -0.016521  -0.136833     3.39967e-01     7.62883e-02
     10724      10733      1  -0.027812  -0.002029     3.39967e-01     7.62883e-02
     10721      10730      1  -0.004386  -0.022462     3.39967e-01     7.62883e-02
     10718      10727      1  -0.026451  -0.013767     3.39967e-01     7.62883e-02
     10715      10724      1  -0.014653  -0.023177     3.39967e-01     7.62883e-02
     10712      10721      1  -0.021025  -0.003655     3.39967e-01     7.62883e-02
     10709      10718      1  -0.031787  -0.022042     3.39967e-01     7.62883e-02
     10706      10715      1  -0.028094  -0.012211     3.39967e-01     7.62883e-02
     10703      10712      1   0.017463  -0.017521     3.39967e-01     7.62883e-02
     10700      10709      1  -0.111712  -0.026489     3.39967e-01     7.62883e-02
     10776      10782      1  -0.164200   0.164116     3.39967e-01     2.28865e-01
     10773      10780      1  -0.002435  -0.559638     3.17980e-01     3.17088e-01
     10773      10781      1  -0.002435  -0.479574     3.19984e-01     2.85295e-01
     10770      10779      1  -0.026954   0.758669     3.39967e-01     2.02918e-01
     10767      10776      1  -0.016521  -0.136833     3.39967e-01     7.62883e-02
     10764      10773      1  -0.027812  -0.002029     3.39967e-01     7.62883e-02
     10761      10770      1  -0.004386  -0.022462     3.39967e-01     7.62883e-02
     10758      10767      1  -0.026451  -0.013767     3.39967e-01     7.62883e-02
     10755      10764      1  -0.014653  -0.023177     3.39967e-01     7.62883e-02
     10752      10761      1  -0.021025  -0.003655     3.39967e-01     7.62883e-02
     10749      10758      1  -0.031787  -0.022042     3.39967e-01     7.62883e-02
     10746      10755      1  -0.028094  -0.012211     3.39967e-01     7.62883e-02
     10743      10752      1   0.017463  -0.017521     3.39967e-01     7.62883e-02
     10740      10749      1  -0.111712  -0.026489     3.39967e-01     7.62883e-02
     10816      10851      1  -0.673755  -0.002029     3.17980e-01     3.17088e-01
     10815      10848      1   0.897613  -0.022462     3.39967e-01     2.02918e-01
     10814      10851      1  -0.552948  -0.002029     3.19984e-01     2.85295e-01
     10793      10812      1   0.166801  -0.729843     3.17980e-01     3.17088e-01
     10793      10813      1   0.166801  -0.729843     3.17980e-01     3.17088e-01
     10793      10800      1   0.166801  -0.282478     3.39967e-01     2.28865e-01
     10793      10804      1   0.166801  -0.282478     3.39967e-01     2.28865e-01
     10793      10808      1   0.166801  -0.282478     3.39967e-01     2.28865e-01
     10792      10799      1  -0.508176   0.204385     3.12501e-01     3.55640e-01
     10791      10796      1   1.339721  -0.142353     3.57072e-01     3.09446e-01
     10790      10814      1  -0.509480  -0.460790     3.00001e-01     3.55640e-01
     10790      10793      1  -0.509480   0.139001     3.19984e-01     2.85295e-01
     10787      10815      1   0.017459   0.748011     3.39967e-01     2.02918e-01
     10787      10792      1   0.017459  -0.423480     3.19984e-01     2.85295e-01
     10787      10812      1   0.017459  -0.729843     3.17980e-01     3.17088e-01
     10787      10813      1   0.017459  -0.729843     3.17980e-01     3.17088e-01
     10785      10791      1   0.281242   1.116434     3.57072e-01     3.09446e-01
     10785      10816      1   0.281242  -0.561462     3.17980e-01     3.17088e-01
     10785      10854      1   0.281242  -0.136833     3.39967e-01     2.28865e-01
     10782      10790      1   0.196939  -0.424567     3.19984e-01     2.85295e-01
     10782      10815      1   0.196939   0.748011     3.39967e-01     2.02918e-01
     10781      10787      1  -0.575489   0.014549     3.19984e-01     2.85295e-01
     10781      10814      1  -0.575489  -0.460790     3.00001e-01     3.55640e-01
     10780      10782      1  -0.671566   0.164116     3.17980e-01     3.17088e-01
     10779      10785      1   0.910403   0.234368     3.39967e-01     2.02918e-01
     10845      10854      1  -0.016521  -0.136833     3.39967e-01     7.62883e-02
     10842      10851      1  -0.027812  -0.002029     3.39967e-01     7.62883e-02
     10839      10848      1  -0.004386  -0.022462     3.39967e-01     7.62883e-02
     10836      10845      1  -0.026451  -0.013767     3.39967e-01     7.62883e-02
     10833      10842      1  -0.014653  -0.023177     3.39967e-01     7.62883e-02
     10830      10839      1  -0.021025  -0.003655     3.39967e-01     7.62883e-02
     10827      10836      1  -0.031787  -0.022042     3.39967e-01     7.62883e-02
     10824      10833      1  -0.028094  -0.012211     3.39967e-01     7.62883e-02
     10821      10830      1   0.017463  -0.017521     3.39967e-01     7.62883e-02
     10818      10827      1  -0.111712  -0.026489     3.39967e-01     7.62883e-02
     10894      10900      1  -0.164200   0.164116     3.39967e-01     2.28865e-01
     10891      10898      1  -0.002435  -0.559638     3.17980e-01     3.17088e-01
     10891      10899      1  -0.002435  -0.479574     3.19984e-01     2.85295e-01
     10888      10897      1  -0.026954   0.758669     3.39967e-01     2.02918e-01
     10885      10894      1  -0.016521  -0.136833     3.39967e-01     7.62883e-02
     10882      10891      1  -0.027812  -0.002029     3.39967e-01     7.62883e-02
     10879      10888      1  -0.004386  -0.022462     3.39967e-01     7.62883e-02
     10876      10885      1  -0.026451  -0.013767     3.39967e-01     7.62883e-02
     10873      10882      1  -0.014653  -0.023177     3.39967e-01     7.62883e-02
     10870      10879      1  -0.021025  -0.003655     3.39967e-01     7.62883e-02
     10867      10876      1  -0.031787  -0.022042     3.39967e-01     7.62883e-02
     10864      10873      1  -0.028094  -0.012211     3.39967e-01     7.62883e-02
     10861      10870      1   0.017463  -0.017521     3.39967e-01     7.62883e-02
     10858      10867      1  -0.111712  -0.026489     3.39967e-01     7.62883e-02
     10934      10969      1  -0.673755  -0.002029     3.17980e-01     3.17088e-01
     10933      10966      1   0.897613  -0.022462     3.39967e-01     2.02918e-01
     10932      10969      1  -0.552948  -0.002029     3.19984e-01     2.85295e-01
     10911      10930      1   0.166801  -0.729843     3.17980e-01     3.17088e-01
     10911      10931      1   0.166801  -0.729843     3.17980e-01     3.17088e-01
     10911      10918      1   0.166801  -0.282478     3.39967e-01     2.28865e-01
     10911      10922      1   0.166801  -0.282478     3.39967e-01     2.28865e-01
     10911      10926      1   0.166801  -0.282478     3.39967e-01     2.28865e-01
     10910      10917      1  -0.508176   0.204385     3.12501e-01     3.55640e-01
     10909      10914      1   1.339721  -0.142353     3.57072e-01     3.09446e-01
     10908      10932      1  -0.509480  -0.460790     3.00001e-01     3.55640e-01
     10908      10911      1  -0.509480   0.139001     3.19984e-01     2.85295e-01
     10905      10933      1   0.017459   0.748011     3.39967e-01     2.02918e-01
     10905      10910      1   0.017459  -0.423480     3.19984e-01     2.85295e-01
     10905      10930      1   0.017459  -0.729843     3.17980e-01     3.17088e-01
     10905      10931      1   0.017459  -0.729843     3.17980e-01     3.17088e-01
     10903      10909      1   0.281242   1.116434     3.57072e-01     3.09446e-01
     10903      10934      1   0.281242  -0.561462     3.17980e-01     3.17088e-01
     10903      10972      1   0.281242  -0.136833     3.39967e-01     2.28865e-01
     10900      10908      1   0.196939  -0.424567     3.19984e-01     2.85295e-01
     10900      10933      1   0.196939   0.748011     3.39967e-01     2.02918e-01
     10899      10905      1  -0.575489   0.014549     3.19984e-01     2.85295e-01
     10899      10932      1  -0.575489  -0.460790     3.00001e-01     3.55640e-01
     10898      10900      1  -0.671566   0.164116     3.17980e-01     3.17088e-01
     10897      10903      1   0.910403   0.234368     3.39967e-01     2.02918e-01
     10963      10972      1  -0.016521  -0.136833     3.39967e-01     7.62883e-02
     10960      10969      1  -0.027812  -0.002029     3.39967e-01     7.62883e-02
     10957      10966      1  -0.004386  -0.022462     3.39967e-01     7.62883e-02
     10954      10963      1  -0.026451  -0.013767     3.39967e-01     7.62883e-02
     10951      10960      1  -0.014653  -0.023177     3.39967e-01     7.62883e-02
     10948      10957      1  -0.021025  -0.003655     3.39967e-01     7.62883e-02
     10945      10954      1  -0.031787  -0.022042     3.39967e-01     7.62883e-02
     10942      10951      1  -0.028094  -0.012211     3.39967e-01     7.62883e-02
     10939      10948      1   0.017463  -0.017521     3.39967e-01     7.62883e-02
     10936      10945      1  -0.111712  -0.026489     3.39967e-01     7.62883e-02
     11012      11018      1  -0.164200   0.164116     3.39967e-01     2.28865e-01
     11009      11016      1  -0.002435  -0.559638     3.17980e-01     3.17088e-01
     11009      11017      1  -0.002435  -0.479574     3.19984e-01     2.85295e-01
     11006      11015      1  -0.026954   0.758669     3.39967e-01     2.02918e-01
     11003      11012      1  -0.016521  -0.136833     3.39967e-01     7.62883e-02
     11000      11009      1  -0.027812  -0.002029     3.39967e-01     7.62883e-02
     10997      11006      1  -0.004386  -0.022462     3.39967e-01     7.62883e-02
     10994      11003      1  -0.026451  -0.013767     3.39967e-01     7.62883e-02
     10991      11000      1  -0.014653  -0.023177     3.39967e-01     7.62883e-02
     10988      10997      1  -0.021025  -0.003655     3.39967e-01     7.62883e-02
     10985      10994      1  -0.031787  -0.022042     3.39967e-01     7.62883e-02
     10982      10991      1  -0.028094  -0.012211     3.39967e-01     7.62883e-02
     10979      10988      1   0.017463  -0.017521     3.39967e-01     7.62883e-02
     10976      10985      1  -0.111712  -0.026489     3.39967e-01     7.62883e-02
     11052      11087      1  -0.673755  -0.002029     3.17980e-01     3.17088e-01
     11051      11084      1   0.897613  -0.022462     3.39967e-01     2.02918e-01
     11050      11087      1  -0.552948  -0.002029     3.19984e-01     2.85295e-01
     11029      11048      1   0.166801  -0.729843     3.17980e-01     3.17088e-01
     11029      11049      1   0.166801  -0.729843     3.17980e-01     3.17088e-01
     11029      11036      1   0.166801  -0.282478     3.39967e-01     2.28865e-01
     11029      11040      1   0.166801  -0.282478     3.39967e-01     2.28865e-01
     11029      11044      1   0.166801  -0.282478     3.39967e-01     2.28865e-01
     11028      11035      1  -0.508176   0.204385     3.12501e-01     3.55640e-01
     11027      11032      1   1.339721  -0.142353     3.57072e-01     3.09446e-01
     11026      11050      1  -0.509480  -0.460790     3.00001e-01     3.55640e-01
     11026      11029      1  -0.509480   0.139001     3.19984e-01     2.85295e-01
     11023      11051      1   0.017459   0.748011     3.39967e-01     2.02918e-01
     11023      11028      1   0.017459  -0.423480     3.19984e-01     2.85295e-01
     11023      11048      1   0.017459  -0.729843     3.17980e-01     3.17088e-01
     11023      11049      1   0.017459  -0.729843     3.17980e-01     3.17088e-01
     11021      11027      1   0.281242   1.116434     3.57072e-01     3.09446e-01
     11021      11052      1   0.281242  -0.561462     3.17980e-01     3.17088e-01
     11021      11090      1   0.281242  -0.136833     3.39967e-01     2.28865e-01
     11018      11026      1   0.196939  -0.424567     3.19984e-01     2.85295e-01
     11018      11051      1   0.196939   0.748011     3.39967e-01     2.02918e-01
     11017      11023      1  -0.575489   0.014549     3.19984e-01     2.85295e-01
     11017      11050      1  -0.575489  -0.460790     3.00001e-01     3.55640e-01
     11016      11018      1  -0.671566   0.164116     3.17980e-01     3.17088e-01
     11015      11021      1   0.910403   0.234368     3.39967e-01     2.02918e-01
     11081      11090      1  -0.016521  -0.136833     3.39967e-01     7.62883e-02
     11078      11087      1  -0.027812  -0.002029     3.39967e-01     7.62883e-02
     11075      11084      1  -0.004386  -0.022462     3.39967e-01     7.62883e-02
     11072      11081      1  -0.026451  -0.013767     3.39967e-01     7.62883e-02
     11069      11078      1  -0.014653  -0.023177     3.39967e-01     7.62883e-02
     11066      11075      1  -0.021025  -0.003655     3.39967e-01     7.62883e-02
     11063      11072      1  -0.031787  -0.022042     3.39967e-01     7.62883e-02
     11060      11069      1  -0.028094  -0.012211     3.39967e-01     7.62883e-02
     11057      11066      1   0.017463  -0.017521     3.39967e-01     7.62883e-02
     11054      11063      1  -0.111712  -0.026489     3.39967e-01     7.62883e-02
     11130      11136      1  -0.164200   0.164116     3.39967e-01     2.28865e-01
     11127      11134      1  -0.002435  -0.559638     3.17980e-01     3.17088e-01
     11127      11135      1  -0.002435  -0.479574     3.19984e-01     2.85295e-01
     11124      11133      1  -0.026954   0.758669     3.39967e-01     2.02918e-01
     11121      11130      1  -0.016521  -0.136833     3.39967e-01     7.62883e-02
     11118      11127      1  -0.027812  -0.002029     3.39967e-01     7.62883e-02
     11115      11124      1  -0.004386  -0.022462     3.39967e-01     7.62883e-02
     11112      11121      1  -0.026451  -0.013767     3.39967e-01     7.62883e-02
     11109      11118      1  -0.014653  -0.023177     3.39967e-01     7.62883e-02
     11106      11115      1  -0.021025  -0.003655     3.39967e-01     7.62883e-02
     11103      11112      1  -0.031787  -0.022042     3.39967e-01     7.62883e-02
     11100      11109      1  -0.028094  -0.012211     3.39967e-01     7.62883e-02
     11097      11106      1   0.017463  -0.017521     3.39967e-01     7.62883e-02
     11094      11103      1  -0.111712  -0.026489     3.39967e-01     7.62883e-02
     11170      11205      1  -0.673755  -0.002029     3.17980e-01     3.17088e-01
     11169      11202      1   0.897613  -0.022462     3.39967e-01     2.02918e-01
     11168      11205      1  -0.552948  -0.002029     3.19984e-01     2.85295e-01
     11147      11166      1   0.166801  -0.729843     3.17980e-01     3.17088e-01
     11147      11167      1   0.166801  -0.729843     3.17980e-01     3.17088e-01
     11147      11154      1   0.166801  -0.282478     3.39967e-01     2.28865e-01
     11147      11158      1   0.166801  -0.282478     3.39967e-01     2.28865e-01
     11147      11162      1   0.166801  -0.282478     3.39967e-01     2.28865e-01
     11146      11153      1  -0.508176   0.204385     3.12501e-01     3.55640e-01
     11145      11150      1   1.339721  -0.142353     3.57072e-01     3.09446e-01
     11144      11168      1  -0.509480  -0.460790     3.00001e-01     3.55640e-01
     11144      11147      1  -0.509480   0.139001     3.19984e-01     2.85295e-01
     11141      11169      1   0.017459   0.748011     3.39967e-01     2.02918e-01
     11141      11146      1   0.017459  -0.423480     3.19984e-01     2.85295e-01
     11141      11166      1   0.017459  -0.729843     3.17980e-01     3.17088e-01
     11141      11167      1   0.017459  -0.729843     3.17980e-01     3.17088e-01
     11139      11145      1   0.281242   1.116434     3.57072e-01     3.09446e-01
     11139      11170      1   0.281242  -0.561462     3.17980e-01     3.17088e-01
     11139      11208      1   0.281242  -0.136833     3.39967e-01     2.28865e-01
     11136      11144      1   0.196939  -0.424567     3.19984e-01     2.85295e-01
     11136      11169      1   0.196939   0.748011     3.39967e-01     2.02918e-01
     11135      11141      1  -0.575489   0.014549     3.19984e-01     2.85295e-01
     11135      11168      1  -0.575489  -0.460790     3.00001e-01     3.55640e-01
     11134      11136      1  -0.671566   0.164116     3.17980e-01     3.17088e-01
     11133      11139      1   0.910403   0.234368     3.39967e-01     2.02918e-01
     11199      11208      1  -0.016521  -0.136833     3.39967e-01     7.62883e-02
     11196      11205      1  -0.027812  -0.002029     3.39967e-01     7.62883e-02
     11193      11202      1  -0.004386  -0.022462     3.39967e-01     7.62883e-02
     11190      11199      1  -0.026451  -0.013767     3.39967e-01     7.62883e-02
     11187      11196      1  -0.014653  -0.023177     3.39967e-01     7.62883e-02
     11184      11193      1  -0.021025  -0.003655     3.39967e-01     7.62883e-02
     11181      11190      1  -0.031787  -0.022042     3.39967e-01     7.62883e-02
     11178      11187      1  -0.028094  -0.012211     3.39967e-01     7.62883e-02
     11175      11184      1   0.017463  -0.017521     3.39967e-01     7.62883e-02
     11172      11181      1  -0.111712  -0.026489     3.39967e-01     7.62883e-02
     11248      11254      1  -0.164200   0.164116     3.39967e-01     2.28865e-01
     11245      11252      1  -0.002435  -0.559638     3.17980e-01     3.17088e-01
     11245      11253      1  -0.002435  -0.479574     3.19984e-01     2.85295e-01
     11242      11251      1  -0.026954   0.758669     3.39967e-01     2.02918e-01
     11239      11248      1  -0.016521  -0.136833     3.39967e-01     7.62883e-02
     11236      11245      1  -0.027812  -0.002029     3.39967e-01     7.62883e-02
     11233      11242      1  -0.004386  -0.022462     3.39967e-01     7.62883e-02
     11230      11239      1  -0.026451  -0.013767     3.39967e-01     7.62883e-02
     11227      11236      1  -0.014653  -0.023177     3.39967e-01     7.62883e-02
     11224      11233      1  -0.021025  -0.003655     3.39967e-01     7.62883e-02
     11221      11230      1  -0.031787  -0.022042     3.39967e-01     7.62883e-02
     11218      11227      1  -0.028094  -0.012211     3.39967e-01     7.62883e-02
     11215      11224      1   0.017463  -0.017521     3.39967e-01     7.62883e-02
     11212      11221      1  -0.111712  -0.026489     3.39967e-01     7.62883e-02
     11288      11323      1  -0.673755  -0.002029     3.17980e-01     3.17088e-01
     11287      11320      1   0.897613  -0.022462     3.39967e-01     2.02918e-01
     11286      11323      1  -0.552948  -0.002029     3.19984e-01     2.85295e-01
     11265      11284      1   0.166801  -0.729843     3.17980e-01     3.17088e-01
     11265      11285      1   0.166801  -0.729843     3.17980e-01     3.17088e-01
     11265      11272      1   0.166801  -0.282478     3.39967e-01     2.28865e-01
     11265      11276      1   0.166801  -0.282478     3.39967e-01     2.28865e-01
     11265      11280      1   0.166801  -0.282478     3.39967e-01     2.28865e-01
     11264      11271      1  -0.508176   0.204385     3.12501e-01     3.55640e-01
     11263      11268      1   1.339721  -0.142353     3.57072e-01     3.09446e-01
     11262      11286      1  -0.509480  -0.460790     3.00001e-01     3.55640e-01
     11262      11265      1  -0.509480   0.139001     3.19984e-01     2.85295e-01
     11259      11287      1   0.017459   0.748011     3.39967e-01     2.02918e-01
     11259      11264      1   0.017459  -0.423480     3.19984e-01     2.85295e-01
     11259      11284      1   0.017459  -0.729843     3.17980e-01     3.17088e-01
     11259      11285      1   0.017459  -0.729843     3.17980e-01     3.17088e-01
     11257      11263      1   0.281242   1.116434     3.57072e-01     3.09446e-01
     11257      11288      1   0.281242  -0.561462     3.17980e-01     3.17088e-01
     11257      11326      1   0.281242  -0.136833     3.39967e-01     2.28865e-01
     11254      11262      1   0.196939  -0.424567     3.19984e-01     2.85295e-01
     11254      11287      1   0.196939   0.748011     3.39967e-01     2.02918e-01
     11253      11259      1  -0.575489   0.014549     3.19984e-01     2.85295e-01
     11253      11286      1  -0.575489  -0.460790     3.00001e-01     3.55640e-01
     11252      11254      1  -0.671566   0.164116     3.17980e-01     3.17088e-01
     11251      11257      1   0.910403   0.234368     3.39967e-01     2.02918e-01
     11317      11326      1  -0.016521  -0.136833     3.39967e-01     7.62883e-02
     11314      11323      1  -0.027812  -0.002029     3.39967e-01     7.62883e-02
     11311      11320      1  -0.004386  -0.022462     3.39967e-01     7.62883e-02
     11308      11317      1  -0.026451  -0.013767     3.39967e-01     7.62883e-02
     11305      11314      1  -0.014653  -0.023177     3.39967e-01     7.62883e-02
     11302      11311      1  -0.021025  -0.003655     3.39967e-01     7.62883e-02
     11299      11308      1  -0.031787  -0.022042     3.39967e-01     7.62883e-02
     11296      11305      1  -0.028094  -0.012211     3.39967e-01     7.62883e-02
     11293      11302      1   0.017463  -0.017521     3.39967e-01     7.62883e-02
     11290      11299      1  -0.111712  -0.026489     3.39967e-01     7.62883e-02
     11366      11372      1  -0.164200   0.164116     3.39967e-01     2.28865e-01
     11363      11370      1  -0.002435  -0.559638     3.17980e-01     3.17088e-01
     11363      11371      1  -0.002435  -0.479574     3.19984e-01     2.85295e-01
     11360      11369      1  -0.026954   0.758669     3.39967e-01     2.02918e-01
     11357      11366      1  -0.016521  -0.136833     3.39967e-01     7.62883e-02
     11354      11363      1  -0.027812  -0.002029     3.39967e-01     7.62883e-02
     11351      11360      1  -0.004386  -0.022462     3.39967e-01     7.62883e-02
     11348      11357      1  -0.026451  -0.013767     3.39967e-01     7.62883e-02
     11345      11354      1  -0.014653  -0.023177     3.39967e-01     7.62883e-02
     11342      11351      1  -0.021025  -0.003655     3.39967e-01     7.62883e-02
     11339      11348      1  -0.031787  -0.022042     3.39967e-01     7.62883e-02
     11336      11345      1  -0.028094  -0.012211     3.39967e-01     7.62883e-02
     11333      11342      1   0.017463  -0.017521     3.39967e-01     7.62883e-02
     11330      11339      1  -0.111712  -0.026489     3.39967e-01     7.62883e-02
     11406      11441      1  -0.673755  -0.002029     3.17980e-01     3.17088e-01
     11405      11438      1   0.897613  -0.022462     3.39967e-01     2.02918e-01
     11404      11441      1  -0.552948  -0.002029     3.19984e-01     2.85295e-01
     11383      11402      1   0.166801  -0.729843     3.17980e-01     3.17088e-01
     11383      11403      1   0.166801  -0.729843     3.17980e-01     3.17088e-01
     11383      11390      1   0.166801  -0.282478     3.39967e-01     2.28865e-01
     11383      11394      1   0.166801  -0.282478     3.39967e-01     2.28865e-01
     11383      11398      1   0.166801  -0.282478     3.39967e-01     2.28865e-01
     11382      11389      1  -0.508176   0.204385     3.12501e-01     3.55640e-01
     11381      11386      1   1.339721  -0.142353     3.57072e-01     3.09446e-01
     11380      11404      1  -0.509480  -0.460790     3.00001e-01     3.55640e-01
     11380      11383      1  -0.509480   0.139001     3.19984e-01     2.85295e-01
     11377      11405      1   0.017459   0.748011     3.39967e-01     2.02918e-01
     11377      11382      1   0.017459  -0.423480     3.19984e-01     2.85295e-01
     11377      11402      1   0.017459  -0.729843     3.17980e-01     3.17088e-01
     11377      11403      1   0.017459  -0.729843     3.17980e-01     3.17088e-01
     11375      11381      1   0.281242   1.116434     3.57072e-01     3.09446e-01
     11375      11406      1   0.281242  -0.561462     3.17980e-01     3.17088e-01
     11375      11444      1   0.281242  -0.136833     3.39967e-01     2.28865e-01
     11372      11380      1   0.196939  -0.424567     3.19984e-01     2.85295e-01
     11372      11405      1   0.196939   0.748011     3.39967e-01     2.02918e-01
     11371      11377      1  -0.575489   0.014549     3.19984e-01     2.85295e-01
     11371      11404      1  -0.575489  -0.460790     3.00001e-01     3.55640e-01
     11370      11372      1  -0.671566   0.164116     3.17980e-01     3.17088e-01
     11369      11375      1   0.910403   0.234368     3.39967e-01     2.02918e-01
     11435      11444      1  -0.016521  -0.136833     3.39967e-01     7.62883e-02
     11432      11441      1  -0.027812  -0.002029     3.39967e-01     7.62883e-02
     11429      11438      1  -0.004386  -0.022462     3.39967e-01     7.62883e-02
     11426      11435      1  -0.026451  -0.013767     3.39967e-01     7.62883e-02
     11423      11432      1  -0.014653  -0.023177     3.39967e-01     7.62883e-02
     11420      11429      1  -0.021025  -0.003655     3.39967e-01     7.62883e-02
     11417      11426      1  -0.031787  -0.022042     3.39967e-01     7.62883e-02
     11414      11423      1  -0.028094  -0.012211     3.39967e-01     7.62883e-02
     11411      11420      1   0.017463  -0.017521     3.39967e-01     7.62883e-02
     11408      11417      1  -0.111712  -0.026489     3.39967e-01     7.62883e-02
     11484      11490      1  -0.164200   0.164116     3.39967e-01     2.28865e-01
     11481      11488      1  -0.002435  -0.559638     3.17980e-01     3.17088e-01
     11481      11489      1  -0.002435  -0.479574     3.19984e-01     2.85295e-01
     11478      11487      1  -0.026954   0.758669     3.39967e-01     2.02918e-01
     11475      11484      1  -0.016521  -0.136833     3.39967e-01     7.62883e-02
     11472      11481      1  -0.027812  -0.002029     3.39967e-01     7.62883e-02
     11469      11478      1  -0.004386  -0.022462     3.39967e-01     7.62883e-02
     11466      11475      1  -0.026451  -0.013767     3.39967e-01     7.62883e-02
     11463      11472      1  -0.014653  -0.023177     3.39967e-01     7.62883e-02
     11460      11469      1  -0.021025  -0.003655     3.39967e-01     7.62883e-02
     11457      11466      1  -0.031787  -0.022042     3.39967e-01     7.62883e-02
     11454      11463      1  -0.028094  -0.012211     3.39967e-01     7.62883e-02
     11451      11460      1   0.017463  -0.017521     3.39967e-01     7.62883e-02
     11448      11457      1  -0.111712  -0.026489     3.39967e-01     7.62883e-02
     11524      11559      1  -0.673755  -0.002029     3.17980e-01     3.17088e-01
     11523      11556      1   0.897613  -0.022462     3.39967e-01     2.02918e-01
     11522      11559      1  -0.552948  -0.002029     3.19984e-01     2.85295e-01
     11501      11520      1   0.166801  -0.729843     3.17980e-01     3.17088e-01
     11501      11521      1   0.166801  -0.729843     3.17980e-01     3.17088e-01
     11501      11508      1   0.166801  -0.282478     3.39967e-01     2.28865e-01
     11501      11512      1   0.166801  -0.282478     3.39967e-01     2.28865e-01
     11501      11516      1   0.166801  -0.282478     3.39967e-01     2.28865e-01
     11500      11507      1  -0.508176   0.204385     3.12501e-01     3.55640e-01
     11499      11504      1   1.339721  -0.142353     3.57072e-01     3.09446e-01
     11498      11522      1  -0.509480  -0.460790     3.00001e-01     3.55640e-01
     11498      11501      1  -0.509480   0.139001     3.19984e-01     2.85295e-01
     11495      11523      1   0.017459   0.748011     3.39967e-01     2.02918e-01
     11495      11500      1   0.017459  -0.423480     3.19984e-01     2.85295e-01
     11495      11520      1   0.017459  -0.729843     3.17980e-01     3.17088e-01
     11495      11521      1   0.017459  -0.729843     3.17980e-01     3.17088e-01
     11493      11499      1   0.281242   1.116434     3.57072e-01     3.09446e-01
     11493      11524      1   0.281242  -0.561462     3.17980e-01     3.17088e-01
     11493      11562      1   0.281242  -0.136833     3.39967e-01     2.28865e-01
     11490      11498      1   0.196939  -0.424567     3.19984e-01     2.85295e-01
     11490      11523      1   0.196939   0.748011     3.39967e-01     2.02918e-01
     11489      11495      1  -0.575489   0.014549     3.19984e-01     2.85295e-01
     11489      11522      1  -0.575489  -0.460790     3.00001e-01     3.55640e-01
     11488      11490      1  -0.671566   0.164116     3.17980e-01     3.17088e-01
     11487      11493      1   0.910403   0.234368     3.39967e-01     2.02918e-01
     11553      11562      1  -0.016521  -0.136833     3.39967e-01     7.62883e-02
     11550      11559      1  -0.027812  -0.002029     3.39967e-01     7.62883e-02
     11547      11556      1  -0.004386  -0.022462     3.39967e-01     7.62883e-02
     11544      11553      1  -0.026451  -0.013767     3.39967e-01     7.62883e-02
     11541      11550      1  -0.014653  -0.023177     3.39967e-01     7.62883e-02
     11538      11547      1  -0.021025  -0.003655     3.39967e-01     7.62883e-02
     11535      11544      1  -0.031787  -0.022042     3.39967e-01     7.62883e-02
     11532      11541      1  -0.028094  -0.012211     3.39967e-01     7.62883e-02
     11529      11538      1   0.017463  -0.017521     3.39967e-01     7.62883e-02
     11526      11535      1  -0.111712  -0.026489     3.39967e-01     7.62883e-02
     11602      11608      1  -0.164200   0.164116     3.39967e-01     2.28865e-01
     11599      11606      1  -0.002435  -0.559638     3.17980e-01     3.17088e-01
     11599      11607      1  -0.002435  -0.479574     3.19984e-01     2.85295e-01
     11596      11605      1  -0.026954   0.758669     3.39967e-01     2.02918e-01
     11593      11602      1  -0.016521  -0.136833     3.39967e-01     7.62883e-02
     11590      11599      1  -0.027812  -0.002029     3.39967e-01     7.62883e-02
     11587      11596      1  -0.004386  -0.022462     3.39967e-01     7.62883e-02
     11584      11593      1  -0.026451  -0.013767     3.39967e-01     7.62883e-02
     11581      11590      1  -0.014653  -0.023177     3.39967e-01     7.62883e-02
     11578      11587      1  -0.021025  -0.003655     3.39967e-01     7.62883e-02
     11575      11584      1  -0.031787  -0.022042     3.39967e-01     7.62883e-02
     11572      11581      1  -0.028094  -0.012211     3.39967e-01     7.62883e-02
     11569      11578      1   0.017463  -0.017521     3.39967e-01     7.62883e-02
     11566      11575      1  -0.111712  -0.026489     3.39967e-01     7.62883e-02
     11642      11677      1  -0.673755  -0.002029     3.17980e-01     3.17088e-01
     11641      11674      1   0.897613  -0.022462     3.39967e-01     2.02918e-01
     11640      11677      1  -0.552948  -0.002029     3.19984e-01     2.85295e-01
     11619      11638      1   0.166801  -0.729843     3.17980e-01     3.17088e-01
     11619      11639      1   0.166801  -0.729843     3.17980e-01     3.17088e-01
     11619      11626      1   0.166801  -0.282478     3.39967e-01     2.28865e-01
     11619      11630      1   0.166801  -0.282478     3.39967e-01     2.28865e-01
     11619      11634      1   0.166801  -0.282478     3.39967e-01     2.28865e-01
     11618      11625      1  -0.508176   0.204385     3.12501e-01     3.55640e-01
     11617      11622      1   1.339721  -0.142353     3.57072e-01     3.09446e-01
     11616      11640      1  -0.509480  -0.460790     3.00001e-01     3.55640e-01
     11616      11619      1  -0.509480   0.139001     3.19984e-01     2.85295e-01
     11613      11641      1   0.017459   0.748011     3.39967e-01     2.02918e-01
     11613      11618      1   0.017459  -0.423480     3.19984e-01     2.85295e-01
     11613      11638      1   0.017459  -0.729843     3.17980e-01     3.17088e-01
     11613      11639      1   0.017459  -0.729843     3.17980e-01     3.17088e-01
     11611      11617      1   0.281242   1.116434     3.57072e-01     3.09446e-01
     11611      11642      1   0.281242  -0.561462     3.17980e-01     3.17088e-01
     11611      11680      1   0.281242  -0.136833     3.39967e-01     2.28865e-01
     11608      11616      1   0.196939  -0.424567     3.19984e-01     2.85295e-01
     11608      11641      1   0.196939   0.748011     3.39967e-01     2.02918e-01
     11607      11613      1  -0.575489   0.014549     3.19984e-01     2.85295e-01
     11607      11640      1  -0.575489  -0.460790     3.00001e-01     3.55640e-01
     11606      11608      1  -0.671566   0.164116     3.17980e-01     3.17088e-01
     11605      11611      1   0.910403   0.234368     3.39967e-01     2.02918e-01
     11671      11680      1  -0.016521  -0.136833     3.39967e-01     7.62883e-02
     11668      11677      1  -0.027812  -0.002029     3.39967e-01     7.62883e-02
     11665      11674      1  -0.004386  -0.022462     3.39967e-01     7.62883e-02
     11662      11671      1  -0.026451  -0.013767     3.39967e-01     7.62883e-02
     11659      11668      1  -0.014653  -0.023177     3.39967e-01     7.62883e-02
     11656      11665      1  -0.021025  -0.003655     3.39967e-01     7.62883e-02
     11653      11662      1  -0.031787  -0.022042     3.39967e-01     7.62883e-02
     11650      11659      1  -0.028094  -0.012211     3.39967e-01     7.62883e-02
     11647      11656      1   0.017463  -0.017521     3.39967e-01     7.62883e-02
     11644      11653      1  -0.111712  -0.026489     3.39967e-01     7.62883e-02
     11720      11726      1  -0.164200   0.164116     3.39967e-01     2.28865e-01
     11717      11724      1  -0.002435  -0.559638     3.17980e-01     3.17088e-01
     11717      11725      1  -0.002435  -0.479574     3.19984e-01     2.85295e-01
     11714      11723      1  -0.026954   0.758669     3.39967e-01     2.02918e-01
     11711      11720      1  -0.016521  -0.136833     3.39967e-01     7.62883e-02
     11708      11717      1  -0.027812  -0.002029     3.39967e-01     7.62883e-02
     11705      11714      1  -0.004386  -0.022462     3.39967e-01     7.62883e-02
     11702      11711      1  -0.026451  -0.013767     3.39967e-01     7.62883e-02
     11699      11708      1  -0.014653  -0.023177     3.39967e-01     7.62883e-02
     11696      11705      1  -0.021025  -0.003655     3.39967e-01     7.62883e-02
     11693      11702      1  -0.031787  -0.022042     3.39967e-01     7.62883e-02
     11690      11699      1  -0.028094  -0.012211     3.39967e-01     7.62883e-02
     11687      11696      1   0.017463  -0.017521     3.39967e-01     7.62883e-02
     11684      11693      1  -0.111712  -0.026489     3.39967e-01     7.62883e-02
     11760      11795      1  -0.673755  -0.002029     3.17980e-01     3.17088e-01
     11759      11792      1   0.897613  -0.022462     3.39967e-01     2.02918e-01
     11758      11795      1  -0.552948  -0.002029     3.19984e-01     2.85295e-01
     11737      11756      1   0.166801  -0.729843     3.17980e-01     3.17088e-01
     11737      11757      1   0.166801  -0.729843     3.17980e-01     3.17088e-01
     11737      11744      1   0.166801  -0.282478     3.39967e-01     2.28865e-01
     11737      11748      1   0.166801  -0.282478     3.39967e-01     2.28865e-01
     11737      11752      1   0.166801  -0.282478     3.39967e-01     2.28865e-01
     11736      11743      1  -0.508176   0.204385     3.12501e-01     3.55640e-01
     11735      11740      1   1.339721  -0.142353     3.57072e-01     3.09446e-01
     11734      11758      1  -0.509480  -0.460790     3.00001e-01     3.55640e-01
     11734      11737      1  -0.509480   0.139001     3.19984e-01     2.85295e-01
     11731      11759      1   0.017459   0.748011     3.39967e-01     2.02918e-01
     11731      11736      1   0.017459  -0.423480     3.19984e-01     2.85295e-01
     11731      11756      1   0.017459  -0.729843     3.17980e-01     3.17088e-01
     11731      11757      1   0.017459  -0.729843     3.17980e-01     3.17088e-01
     11729      11735      1   0.281242   1.116434     3.57072e-01     3.09446e-01
     11729      11760      1   0.281242  -0.561462     3.17980e-01     3.17088e-01
     11729      11798      1   0.281242  -0.136833     3.39967e-01     2.28865e-01
     11726      11734      1   0.196939  -0.424567     3.19984e-01     2.85295e-01
     11726      11759      1   0.196939   0.748011     3.39967e-01     2.02918e-01
     11725      11731      1  -0.575489   0.014549     3.19984e-01     2.85295e-01
     11725      11758      1  -0.575489  -0.460790     3.00001e-01     3.55640e-01
     11724      11726      1  -0.671566   0.164116     3.17980e-01     3.17088e-01
     11723      11729      1   0.910403   0.234368     3.39967e-01     2.02918e-01
     11789      11798      1  -0.016521  -0.136833     3.39967e-01     7.62883e-02
     11786      11795      1  -0.027812  -0.002029     3.39967e-01     7.62883e-02
     11783      11792      1  -0.004386  -0.022462     3.39967e-01     7.62883e-02
     11780      11789      1  -0.026451  -0.013767     3.39967e-01     7.62883e-02
     11777      11786      1  -0.014653  -0.023177     3.39967e-01     7.62883e-02
     11774      11783      1  -0.021025  -0.003655     3.39967e-01     7.62883e-02
     11771      11780      1  -0.031787  -0.022042     3.39967e-01     7.62883e-02
     11768      11777      1  -0.028094  -0.012211     3.39967e-01     7.62883e-02
     11765      11774      1   0.017463  -0.017521     3.39967e-01     7.62883e-02
     11762      11771      1  -0.111712  -0.026489     3.39967e-01     7.62883e-02
     11838      11844      1  -0.164200   0.164116     3.39967e-01     2.28865e-01
     11835      11842      1  -0.002435  -0.559638     3.17980e-01     3.17088e-01
     11835      11843      1  -0.002435  -0.479574     3.19984e-01     2.85295e-01
     11832      11841      1  -0.026954   0.758669     3.39967e-01     2.02918e-01
     11829      11838      1  -0.016521  -0.136833     3.39967e-01     7.62883e-02
     11826      11835      1  -0.027812  -0.002029     3.39967e-01     7.62883e-02
     11823      11832      1  -0.004386  -0.022462     3.39967e-01     7.62883e-02
     11820      11829      1  -0.026451  -0.013767     3.39967e-01     7.62883e-02
     11817      11826      1  -0.014653  -0.023177     3.39967e-01     7.62883e-02
     11814      11823      1  -0.021025  -0.003655     3.39967e-01     7.62883e-02
     11811      11820      1  -0.031787  -0.022042     3.39967e-01     7.62883e-02
     11808      11817      1  -0.028094  -0.012211     3.39967e-01     7.62883e-02
     11805      11814      1   0.017463  -0.017521     3.39967e-01     7.62883e-02
     11802      11811      1  -0.111712  -0.026489     3.39967e-01     7.62883e-02
     11878      11913      1  -0.673755  -0.002029     3.17980e-01     3.17088e-01
     11877      11910      1   0.897613  -0.022462     3.39967e-01     2.02918e-01
     11876      11913      1  -0.552948  -0.002029     3.19984e-01     2.85295e-01
     11855      11874      1   0.166801  -0.729843     3.17980e-01     3.17088e-01
     11855      11875      1   0.166801  -0.729843     3.17980e-01     3.17088e-01
     11855      11862      1   0.166801  -0.282478     3.39967e-01     2.28865e-01
     11855      11866      1   0.166801  -0.282478     3.39967e-01     2.28865e-01
     11855      11870      1   0.166801  -0.282478     3.39967e-01     2.28865e-01
     11854      11861      1  -0.508176   0.204385     3.12501e-01     3.55640e-01
     11853      11858      1   1.339721  -0.142353     3.57072e-01     3.09446e-01
     11852      11876      1  -0.509480  -0.460790     3.00001e-01     3.55640e-01
     11852      11855      1  -0.509480   0.139001     3.19984e-01     2.85295e-01
     11849      11877      1   0.017459   0.748011     3.39967e-01     2.02918e-01
     11849      11854      1   0.017459  -0.423480     3.19984e-01     2.85295e-01
     11849      11874      1   0.017459  -0.729843     3.17980e-01     3.17088e-01
     11849      11875      1   0.017459  -0.729843     3.17980e-01     3.17088e-01
     11847      11853      1   0.281242   1.116434     3.57072e-01     3.09446e-01
     11847      11878      1   0.281242  -0.561462     3.17980e-01     3.17088e-01
     11847      11916      1   0.281242  -0.136833     3.39967e-01     2.28865e-01
     11844      11852      1   0.196939  -0.424567     3.19984e-01     2.85295e-01
     11844      11877      1   0.196939   0.748011     3.39967e-01     2.02918e-01
     11843      11849      1  -0.575489   0.014549     3.19984e-01     2.85295e-01
     11843      11876      1  -0.575489  -0.460790     3.00001e-01     3.55640e-01
     11842      11844      1  -0.671566   0.164116     3.17980e-01     3.17088e-01
     11841      11847      1   0.910403   0.234368     3.39967e-01     2.02918e-01
     11907      11916      1  -0.016521  -0.136833     3.39967e-01     7.62883e-02
     11904      11913      1  -0.027812  -0.002029     3.39967e-01     7.62883e-02
     11901      11910      1  -0.004386  -0.022462     3.39967e-01     7.62883e-02
     11898      11907      1  -0.026451  -0.013767     3.39967e-01     7.62883e-02
     11895      11904      1  -0.014653  -0.023177     3.39967e-01     7.62883e-02
     11892      11901      1  -0.021025  -0.003655     3.39967e-01     7.62883e-02
     11889      11898      1  -0.031787  -0.022042     3.39967e-01     7.62883e-02
     11886      11895      1  -0.028094  -0.012211     3.39967e-01     7.62883e-02
     11883      11892      1   0.017463  -0.017521     3.39967e-01     7.62883e-02
     11880      11889      1  -0.111712  -0.026489     3.39967e-01     7.62883e-02
     11956      11962      1  -0.164200   0.164116     3.39967e-01     2.28865e-01
     11953      11960      1  -0.002435  -0.559638     3.17980e-01     3.17088e-01
     11953      11961      1  -0.002435  -0.479574     3.19984e-01     2.85295e-01
     11950      11959      1  -0.026954   0.758669     3.39967e-01     2.02918e-01
     11947      11956      1  -0.016521  -0.136833     3.39967e-01     7.62883e-02
     11944      11953      1  -0.027812  -0.002029     3.39967e-01     7.62883e-02
     11941      11950      1  -0.004386  -0.022462     3.39967e-01     7.62883e-02
     11938      11947      1  -0.026451  -0.013767     3.39967e-01     7.62883e-02
     11935      11944      1  -0.014653  -0.023177     3.39967e-01     7.62883e-02
     11932      11941      1  -0.021025  -0.003655     3.39967e-01     7.62883e-02
     11929      11938      1  -0.031787  -0.022042     3.39967e-01     7.62883e-02
     11926      11935      1  -0.028094  -0.012211     3.39967e-01     7.62883e-02
     11923      11932      1   0.017463  -0.017521     3.39967e-01     7.62883e-02
     11920      11929      1  -0.111712  -0.026489     3.39967e-01     7.62883e-02
     11996      12031      1  -0.673755  -0.002029     3.17980e-01     3.17088e-01
     11995      12028      1   0.897613  -0.022462     3.39967e-01     2.02918e-01
     11994      12031      1  -0.552948  -0.002029     3.19984e-01     2.85295e-01
     11973      11992      1   0.166801  -0.729843     3.17980e-01     3.17088e-01
     11973      11993      1   0.166801  -0.729843     3.17980e-01     3.17088e-01
     11973      11980      1   0.166801  -0.282478     3.39967e-01     2.28865e-01
     11973      11984      1   0.166801  -0.282478     3.39967e-01     2.28865e-01
     11973      11988      1   0.166801  -0.282478     3.39967e-01     2.28865e-01
     11972      11979      1  -0.508176   0.204385     3.12501e-01     3.55640e-01
     11971      11976      1   1.339721  -0.142353     3.57072e-01     3.09446e-01
     11970      11994      1  -0.509480  -0.460790     3.00001e-01     3.55640e-01
     11970      11973      1  -0.509480   0.139001     3.19984e-01     2.85295e-01
     11967      11995      1   0.017459   0.748011     3.39967e-01     2.02918e-01
     11967      11972      1   0.017459  -0.423480     3.19984e-01     2.85295e-01
     11967      11992      1   0.017459  -0.729843     3.17980e-01     3.17088e-01
     11967      11993      1   0.017459  -0.729843     3.17980e-01     3.17088e-01
     11965      11971      1   0.281242   1.116434     3.57072e-01     3.09446e-01
     11965      11996      1   0.281242  -0.561462     3.17980e-01     3.17088e-01
     11965      12034      1   0.281242  -0.136833     3.39967e-01     2.28865e-01
     11962      11970      1   0.196939  -0.424567     3.19984e-01     2.85295e-01
     11962      11995      1   0.196939   0.748011     3.39967e-01     2.02918e-01
     11961      11967      1  -0.575489   0.014549     3.19984e-01     2.85295e-01
     11961      11994      1  -0.575489  -0.460790     3.00001e-01     3.55640e-01
     11960      11962      1  -0.671566   0.164116     3.17980e-01     3.17088e-01
     11959      11965      1   0.910403   0.234368     3.39967e-01     2.02918e-01
     12025      12034      1  -0.016521  -0.136833     3.39967e-01     7.62883e-02
     12022      12031      1  -0.027812  -0.002029     3.39967e-01     7.62883e-02
     12019      12028      1  -0.004386  -0.022462     3.39967e-01     7.62883e-02
     12016      12025      1  -0.026451  -0.013767     3.39967e-01     7.62883e-02
     12013      12022      1  -0.014653  -0.023177     3.39967e-01     7.62883e-02
     12010      12019      1  -0.021025  -0.003655     3.39967e-01     7.62883e-02
     12007      12016      1  -0.031787  -0.022042     3.39967e-01     7.62883e-02
     12004      12013      1  -0.028094  -0.012211     3.39967e-01     7.62883e-02
     12001      12010      1   0.017463  -0.017521     3.39967e-01     7.62883e-02
     11998      12007      1  -0.111712  -0.026489     3.39967e-01     7.62883e-02
     12074      12080      1  -0.164200   0.164116     3.39967e-01     2.28865e-01
     12071      12078      1  -0.002435  -0.559638     3.17980e-01     3.17088e-01
     12071      12079      1  -0.002435  -0.479574     3.19984e-01     2.85295e-01
     12068      12077      1  -0.026954   0.758669     3.39967e-01     2.02918e-01
     12065      12074      1  -0.016521  -0.136833     3.39967e-01     7.62883e-02
     12062      12071      1  -0.027812  -0.002029     3.39967e-01     7.62883e-02
     12059      12068      1  -0.004386  -0.022462     3.39967e-01     7.62883e-02
     12056      12065      1  -0.026451  -0.013767     3.39967e-01     7.62883e-02
     12053      12062      1  -0.014653  -0.023177     3.39967e-01     7.62883e-02
     12050      12059      1  -0.021025  -0.003655     3.39967e-01     7.62883e-02
     12047      12056      1  -0.031787  -0.022042     3.39967e-01     7.62883e-02
     12044      12053      1  -0.028094  -0.012211     3.39967e-01     7.62883e-02
     12041      12050      1   0.017463  -0.017521     3.39967e-01     7.62883e-02
     12038      12047      1  -0.111712  -0.026489     3.39967e-01     7.62883e-02
     12114      12149      1  -0.673755  -0.002029     3.17980e-01     3.17088e-01
     12113      12146      1   0.897613  -0.022462     3.39967e-01     2.02918e-01
     12112      12149      1  -0.552948  -0.002029     3.19984e-01     2.85295e-01
     12091      12110      1   0.166801  -0.729843     3.17980e-01     3.17088e-01
     12091      12111      1   0.166801  -0.729843     3.17980e-01     3.17088e-01
     12091      12098      1   0.166801  -0.282478     3.39967e-01     2.28865e-01
     12091      12102      1   0.166801  -0.282478     3.39967e-01     2.28865e-01
     12091      12106      1   0.166801  -0.282478     3.39967e-01     2.28865e-01
     12090      12097      1  -0.508176   0.204385     3.12501e-01     3.55640e-01
     12089      12094      1   1.339721  -0.142353     3.57072e-01     3.09446e-01
     12088      12112      1  -0.509480  -0.460790     3.00001e-01     3.55640e-01
     12088      12091      1  -0.509480   0.139001     3.19984e-01     2.85295e-01
     12085      12113      1   0.017459   0.748011     3.39967e-01     2.02918e-01
     12085      12090      1   0.017459  -0.423480     3.19984e-01     2.85295e-01
     12085      12110      1   0.017459  -0.729843     3.17980e-01     3.17088e-01
     12085      12111      1   0.017459  -0.729843     3.17980e-01     3.17088e-01
     12083      12089      1   0.281242   1.116434     3.57072e-01     3.09446e-01
     12083      12114      1   0.281242  -0.561462     3.17980e-01     3.17088e-01
     12083      12152      1   0.281242  -0.136833     3.39967e-01     2.28865e-01
     12080      12088      1   0.196939  -0.424567     3.19984e-01     2.85295e-01
     12080      12113      1   0.196939   0.748011     3.39967e-01     2.02918e-01
     12079      12085      1  -0.575489   0.014549     3.19984e-01     2.85295e-01
     12079      12112      1  -0.575489  -0.460790     3.00001e-01     3.55640e-01
     12078      12080      1  -0.671566   0.164116     3.17980e-01     3.17088e-01
     12077      12083      1   0.910403   0.234368     3.39967e-01     2.02918e-01
     12143      12152      1  -0.016521  -0.136833     3.39967e-01     7.62883e-02
     12140      12149      1  -0.027812  -0.002029     3.39967e-01     7.62883e-02
     12137      12146      1  -0.004386  -0.022462     3.39967e-01     7.62883e-02
     12134      12143      1  -0.026451  -0.013767     3.39967e-01     7.62883e-02
     12131      12140      1  -0.014653  -0.023177     3.39967e-01     7.62883e-02
     12128      12137      1  -0.021025  -0.003655     3.39967e-01     7.62883e-02
     12125      12134      1  -0.031787  -0.022042     3.39967e-01     7.62883e-02
     12122      12131      1  -0.028094  -0.012211     3.39967e-01     7.62883e-02
     12119      12128      1   0.017463  -0.017521     3.39967e-01     7.62883e-02
     12116      12125      1  -0.111712  -0.026489     3.39967e-01     7.62883e-02
     12192      12198      1  -0.164200   0.164116     3.39967e-01     2.28865e-01
     12189      12196      1  -0.002435  -0.559638     3.17980e-01     3.17088e-01
     12189      12197      1  -0.002435  -0.479574     3.19984e-01     2.85295e-01
     12186      12195      1  -0.026954   0.758669     3.39967e-01     2.02918e-01
     12183      12192      1  -0.016521  -0.136833     3.39967e-01     7.62883e-02
     12180      12189      1  -0.027812  -0.002029     3.39967e-01     7.62883e-02
     12177      12186      1  -0.004386  -0.022462     3.39967e-01     7.62883e-02
     12174      12183      1  -0.026451  -0.013767     3.39967e-01     7.62883e-02
     12171      12180      1  -0.014653  -0.023177     3.39967e-01     7.62883e-02
     12168      12177      1  -0.021025  -0.003655     3.39967e-01     7.62883e-02
     12165      12174      1  -0.031787  -0.022042     3.39967e-01     7.62883e-02
     12162      12171      1  -0.028094  -0.012211     3.39967e-01     7.62883e-02
     12159      12168      1   0.017463  -0.017521     3.39967e-01     7.62883e-02
     12156      12165      1  -0.111712  -0.026489     3.39967e-01     7.62883e-02
     12232      12267      1  -0.673755  -0.002029     3.17980e-01     3.17088e-01
     12231      12264      1   0.897613  -0.022462     3.39967e-01     2.02918e-01
     12230      12267      1  -0.552948  -0.002029     3.19984e-01     2.85295e-01
     12209      12228      1   0.166801  -0.729843     3.17980e-01     3.17088e-01
     12209      12229      1   0.166801  -0.729843     3.17980e-01     3.17088e-01
     12209      12216      1   0.166801  -0.282478     3.39967e-01     2.28865e-01
     12209      12220      1   0.166801  -0.282478     3.39967e-01     2.28865e-01
     12209      12224      1   0.166801  -0.282478     3.39967e-01     2.28865e-01
     12208      12215      1  -0.508176   0.204385     3.12501e-01     3.55640e-01
     12207      12212      1   1.339721  -0.142353     3.57072e-01     3.09446e-01
     12206      12230      1  -0.509480  -0.460790     3.00001e-01     3.55640e-01
     12206      12209      1  -0.509480   0.139001     3.19984e-01     2.85295e-01
     12203      12231      1   0.017459   0.748011     3.39967e-01     2.02918e-01
     12203      12208      1   0.017459  -0.423480     3.19984e-01     2.85295e-01
     12203      12228      1   0.017459  -0.729843     3.17980e-01     3.17088e-01
     12203      12229      1   0.017459  -0.729843     3.17980e-01     3.17088e-01
     12201      12207      1   0.281242   1.116434     3.57072e-01     3.09446e-01
     12201      12232      1   0.281242  -0.561462     3.17980e-01     3.17088e-01
     12201      12270      1   0.281242  -0.136833     3.39967e-01     2.28865e-01
     12198      12206      1   0.196939  -0.424567     3.19984e-01     2.85295e-01
     12198      12231      1   0.196939   0.748011     3.39967e-01     2.02918e-01
     12197      12203      1  -0.575489   0.014549     3.19984e-01     2.85295e-01
     12197      12230      1  -0.575489  -0.460790     3.00001e-01     3.55640e-01
     12196      12198      1  -0.671566   0.164116     3.17980e-01     3.17088e-01
     12195      12201      1   0.910403   0.234368     3.39967e-01     2.02918e-01
     12261      12270      1  -0.016521  -0.136833     3.39967e-01     7.62883e-02
     12258      12267      1  -0.027812  -0.002029     3.39967e-01     7.62883e-02
     12255      12264      1  -0.004386  -0.022462     3.39967e-01     7.62883e-02
     12252      12261      1  -0.026451  -0.013767     3.39967e-01     7.62883e-02
     12249      12258      1  -0.014653  -0.023177     3.39967e-01     7.62883e-02
     12246      12255      1  -0.021025  -0.003655     3.39967e-01     7.62883e-02
     12243      12252      1  -0.031787  -0.022042     3.39967e-01     7.62883e-02
     12240      12249      1  -0.028094  -0.012211     3.39967e-01     7.62883e-02
     12237      12246      1   0.017463  -0.017521     3.39967e-01     7.62883e-02
     12234      12243      1  -0.111712  -0.026489     3.39967e-01     7.62883e-02
     12310      12316      1  -0.164200   0.164116     3.39967e-01     2.28865e-01
     12307      12314      1  -0.002435  -0.559638     3.17980e-01     3.17088e-01
     12307      12315      1  -0.002435  -0.479574     3.19984e-01     2.85295e-01
     12304      12313      1  -0.026954   0.758669     3.39967e-01     2.02918e-01
     12301      12310      1  -0.016521  -0.136833     3.39967e-01     7.62883e-02
     12298      12307      1  -0.027812  -0.002029     3.39967e-01     7.62883e-02
     12295      12304      1  -0.004386  -0.022462     3.39967e-01     7.62883e-02
     12292      12301      1  -0.026451  -0.013767     3.39967e-01     7.62883e-02
     12289      12298      1  -0.014653  -0.023177     3.39967e-01     7.62883e-02
     12286      12295      1  -0.021025  -0.003655     3.39967e-01     7.62883e-02
     12283      12292      1  -0.031787  -0.022042     3.39967e-01     7.62883e-02
     12280      12289      1  -0.028094  -0.012211     3.39967e-01     7.62883e-02
     12277      12286      1   0.017463  -0.017521     3.39967e-01     7.62883e-02
     12274      12283      1  -0.111712  -0.026489     3.39967e-01     7.62883e-02
     12350      12385      1  -0.673755  -0.002029     3.17980e-01     3.17088e-01
     12349      12382      1   0.897613  -0.022462     3.39967e-01     2.02918e-01
     12348      12385      1  -0.552948  -0.002029     3.19984e-01     2.85295e-01
     12327      12346      1   0.166801  -0.729843     3.17980e-01     3.17088e-01
     12327      12347      1   0.166801  -0.729843     3.17980e-01     3.17088e-01
     12327      12334      1   0.166801  -0.282478     3.39967e-01     2.28865e-01
     12327      12338      1   0.166801  -0.282478     3.39967e-01     2.28865e-01
     12327      12342      1   0.166801  -0.282478     3.39967e-01     2.28865e-01
     12326      12333      1  -0.508176   0.204385     3.12501e-01     3.55640e-01
     12325      12330      1   1.339721  -0.142353     3.57072e-01     3.09446e-01
     12324      12348      1  -0.509480  -0.460790     3.00001e-01     3.55640e-01
     12324      12327      1  -0.509480   0.139001     3.19984e-01     2.85295e-01
     12321      12349      1   0.017459   0.748011     3.39967e-01     2.02918e-01
     12321      12326      1   0.017459  -0.423480     3.19984e-01     2.85295e-01
     12321      12346      1   0.017459  -0.729843     3.17980e-01     3.17088e-01
     12321      12347      1   0.017459  -0.729843     3.17980e-01     3.17088e-01
     12319      12325      1   0.281242   1.116434     3.57072e-01     3.09446e-01
     12319      12350      1   0.281242  -0.561462     3.17980e-01     3.17088e-01
     12319      12388      1   0.281242  -0.136833     3.39967e-01     2.28865e-01
     12316      12324      1   0.196939  -0.424567     3.19984e-01     2.85295e-01
     12316      12349      1   0.196939   0.748011     3.39967e-01     2.02918e-01
     12315      12321      1  -0.575489   0.014549     3.19984e-01     2.85295e-01
     12315      12348      1  -0.575489  -0.460790     3.00001e-01     3.55640e-01
     12314      12316      1  -0.671566   0.164116     3.17980e-01     3.17088e-01
     12313      12319      1   0.910403   0.234368     3.39967e-01     2.02918e-01
     12379      12388      1  -0.016521  -0.136833     3.39967e-01     7.62883e-02
     12376      12385      1  -0.027812  -0.002029     3.39967e-01     7.62883e-02
     12373      12382      1  -0.004386  -0.022462     3.39967e-01     7.62883e-02
     12370      12379      1  -0.026451  -0.013767     3.39967e-01     7.62883e-02
     12367      12376      1  -0.014653  -0.023177     3.39967e-01     7.62883e-02
     12364      12373      1  -0.021025  -0.003655     3.39967e-01     7.62883e-02
     12361      12370      1  -0.031787  -0.022042     3.39967e-01     7.62883e-02
     12358      12367      1  -0.028094  -0.012211     3.39967e-01     7.62883e-02
     12355      12364      1   0.017463  -0.017521     3.39967e-01     7.62883e-02
     12352      12361      1  -0.111712  -0.026489     3.39967e-01     7.62883e-02
     12428      12434      1  -0.164200   0.164116     3.39967e-01     2.28865e-01
     12425      12432      1  -0.002435  -0.559638     3.17980e-01     3.17088e-01
     12425      12433      1  -0.002435  -0.479574     3.19984e-01     2.85295e-01
     12422      12431      1  -0.026954   0.758669     3.39967e-01     2.02918e-01
     12419      12428      1  -0.016521  -0.136833     3.39967e-01     7.62883e-02
     12416      12425      1  -0.027812  -0.002029     3.39967e-01     7.62883e-02
     12413      12422      1  -0.004386  -0.022462     3.39967e-01     7.62883e-02
     12410      12419      1  -0.026451  -0.013767     3.39967e-01     7.62883e-02
     12407      12416      1  -0.014653  -0.023177     3.39967e-01     7.62883e-02
     12404      12413      1  -0.021025  -0.003655     3.39967e-01     7.62883e-02
     12401      12410      1  -0.031787  -0.022042     3.39967e-01     7.62883e-02
     12398      12407      1  -0.028094  -0.012211     3.39967e-01     7.62883e-02
     12395      12404      1   0.017463  -0.017521     3.39967e-01     7.62883e-02
     12392      12401      1  -0.111712  -0.026489     3.39967e-01     7.62883e-02
     12468      12503      1  -0.673755  -0.002029     3.17980e-01     3.17088e-01
     12467      12500      1   0.897613  -0.022462     3.39967e-01     2.02918e-01
     12466      12503      1  -0.552948  -0.002029     3.19984e-01     2.85295e-01
     12445      12464      1   0.166801  -0.729843     3.17980e-01     3.17088e-01
     12445      12465      1   0.166801  -0.729843     3.17980e-01     3.17088e-01
     12445      12452      1   0.166801  -0.282478     3.39967e-01     2.28865e-01
     12445      12456      1   0.166801  -0.282478     3.39967e-01     2.28865e-01
     12445      12460      1   0.166801  -0.282478     3.39967e-01     2.28865e-01
     12444      12451      1  -0.508176   0.204385     3.12501e-01     3.55640e-01
     12443      12448      1   1.339721  -0.142353     3.57072e-01     3.09446e-01
     12442      12466      1  -0.509480  -0.460790     3.00001e-01     3.55640e-01
     12442      12445      1  -0.509480   0.139001     3.19984e-01     2.85295e-01
     12439      12467      1   0.017459   0.748011     3.39967e-01     2.02918e-01
     12439      12444      1   0.017459  -0.423480     3.19984e-01     2.85295e-01
     12439      12464      1   0.017459  -0.729843     3.17980e-01     3.17088e-01
     12439      12465      1   0.017459  -0.729843     3.17980e-01     3.17088e-01
     12437      12443      1   0.281242   1.116434     3.57072e-01     3.09446e-01
     12437      12468      1   0.281242  -0.561462     3.17980e-01     3.17088e-01
     12437      12506      1   0.281242  -0.136833     3.39967e-01     2.28865e-01
     12434      12442      1   0.196939  -0.424567     3.19984e-01     2.85295e-01
     12434      12467      1   0.196939   0.748011     3.39967e-01     2.02918e-01
     12433      12439      1  -0.575489   0.014549     3.19984e-01     2.85295e-01
     12433      12466      1  -0.575489  -0.460790     3.00001e-01     3.55640e-01
     12432      12434      1  -0.671566   0.164116     3.17980e-01     3.17088e-01
     12431      12437      1   0.910403   0.234368     3.39967e-01     2.02918e-01
     12497      12506      1  -0.016521  -0.136833     3.39967e-01     7.62883e-02
     12494      12503      1  -0.027812  -0.002029     3.39967e-01     7.62883e-02
     12491      12500      1  -0.004386  -0.022462     3.39967e-01     7.62883e-02
     12488      12497      1  -0.026451  -0.013767     3.39967e-01     7.62883e-02
     12485      12494      1  -0.014653  -0.023177     3.39967e-01     7.62883e-02
     12482      12491      1  -0.021025  -0.003655     3.39967e-01     7.62883e-02
     12479      12488      1  -0.031787  -0.022042     3.39967e-01     7.62883e-02
     12476      12485      1  -0.028094  -0.012211     3.39967e-01     7.62883e-02
     12473      12482      1   0.017463  -0.017521     3.39967e-01     7.62883e-02
     12470      12479      1  -0.111712  -0.026489     3.39967e-01     7.62883e-02
     12546      12552      1  -0.164200   0.164116     3.39967e-01     2.28865e-01
     12543      12550      1  -0.002435  -0.559638     3.17980e-01     3.17088e-01
     12543      12551      1  -0.002435  -0.479574     3.19984e-01     2.85295e-01
     12540      12549      1  -0.026954   0.758669     3.39967e-01     2.02918e-01
     12537      12546      1  -0.016521  -0.136833     3.39967e-01     7.62883e-02
     12534      12543      1  -0.027812  -0.002029     3.39967e-01     7.62883e-02
     12531      12540      1  -0.004386  -0.022462     3.39967e-01     7.62883e-02
     12528      12537      1  -0.026451  -0.013767     3.39967e-01     7.62883e-02
     12525      12534      1  -0.014653  -0.023177     3.39967e-01     7.62883e-02
     12522      12531      1  -0.021025  -0.003655     3.39967e-01     7.62883e-02
     12519      12528      1  -0.031787  -0.022042     3.39967e-01     7.62883e-02
     12516      12525      1  -0.028094  -0.012211     3.39967e-01     7.62883e-02
     12513      12522      1   0.017463  -0.017521     3.39967e-01     7.62883e-02
     12510      12519      1  -0.111712  -0.026489     3.39967e-01     7.62883e-02
     12586      12621      1  -0.673755  -0.002029     3.17980e-01     3.17088e-01
     12585      12618      1   0.897613  -0.022462     3.39967e-01     2.02918e-01
     12584      12621      1  -0.552948  -0.002029     3.19984e-01     2.85295e-01
     12563      12582      1   0.166801  -0.729843     3.17980e-01     3.17088e-01
     12563      12583      1   0.166801  -0.729843     3.17980e-01     3.17088e-01
     12563      12570      1   0.166801  -0.282478     3.39967e-01     2.28865e-01
     12563      12574      1   0.166801  -0.282478     3.39967e-01     2.28865e-01
     12563      12578      1   0.166801  -0.282478     3.39967e-01     2.28865e-01
     12562      12569      1  -0.508176   0.204385     3.12501e-01     3.55640e-01
     12561      12566      1   1.339721  -0.142353     3.57072e-01     3.09446e-01
     12560      12584      1  -0.509480  -0.460790     3.00001e-01     3.55640e-01
     12560      12563      1  -0.509480   0.139001     3.19984e-01     2.85295e-01
     12557      12585      1   0.017459   0.748011     3.39967e-01     2.02918e-01
     12557      12562      1   0.017459  -0.423480     3.19984e-01     2.85295e-01
     12557      12582      1   0.017459  -0.729843     3.17980e-01     3.17088e-01
     12557      12583      1   0.017459  -0.729843     3.17980e-01     3.17088e-01
     12555      12561      1   0.281242   1.116434     3.57072e-01     3.09446e-01
     12555      12586      1   0.281242  -0.561462     3.17980e-01     3.17088e-01
     12555      12624      1   0.281242  -0.136833     3.39967e-01     2.28865e-01
     12552      12560      1   0.196939  -0.424567     3.19984e-01     2.85295e-01
     12552      12585      1   0.196939   0.748011     3.39967e-01     2.02918e-01
     12551      12557      1  -0.575489   0.014549     3.19984e-01     2.85295e-01
     12551      12584      1  -0.575489  -0.460790     3.00001e-01     3.55640e-01
     12550      12552      1  -0.671566   0.164116     3.17980e-01     3.17088e-01
     12549      12555      1   0.910403   0.234368     3.39967e-01     2.02918e-01
     12615      12624      1  -0.016521  -0.136833     3.39967e-01     7.62883e-02
     12612      12621      1  -0.027812  -0.002029     3.39967e-01     7.62883e-02
     12609      12618      1  -0.004386  -0.022462     3.39967e-01     7.62883e-02
     12606      12615      1  -0.026451  -0.013767     3.39967e-01     7.62883e-02
     12603      12612      1  -0.014653  -0.023177     3.39967e-01     7.62883e-02
     12600      12609      1  -0.021025  -0.003655     3.39967e-01     7.62883e-02
     12597      12606      1  -0.031787  -0.022042     3.39967e-01     7.62883e-02
     12594      12603      1  -0.028094  -0.012211     3.39967e-01     7.62883e-02
     12591      12600      1   0.017463  -0.017521     3.39967e-01     7.62883e-02
     12588      12597      1  -0.111712  -0.026489     3.39967e-01     7.62883e-02
     12664      12670      1  -0.164200   0.164116     3.39967e-01     2.28865e-01
     12661      12668      1  -0.002435  -0.559638     3.17980e-01     3.17088e-01
     12661      12669      1  -0.002435  -0.479574     3.19984e-01     2.85295e-01
     12658      12667      1  -0.026954   0.758669     3.39967e-01     2.02918e-01
     12655      12664      1  -0.016521  -0.136833     3.39967e-01     7.62883e-02
     12652      12661      1  -0.027812  -0.002029     3.39967e-01     7.62883e-02
     12649      12658      1  -0.004386  -0.022462     3.39967e-01     7.62883e-02
     12646      12655      1  -0.026451  -0.013767     3.39967e-01     7.62883e-02
     12643      12652      1  -0.014653  -0.023177     3.39967e-01     7.62883e-02
     12640      12649      1  -0.021025  -0.003655     3.39967e-01     7.62883e-02
     12637      12646      1  -0.031787  -0.022042     3.39967e-01     7.62883e-02
     12634      12643      1  -0.028094  -0.012211     3.39967e-01     7.62883e-02
     12631      12640      1   0.017463  -0.017521     3.39967e-01     7.62883e-02
     12628      12637      1  -0.111712  -0.026489     3.39967e-01     7.62883e-02
     12704      12739      1  -0.673755  -0.002029     3.17980e-01     3.17088e-01
     12703      12736      1   0.897613  -0.022462     3.39967e-01     2.02918e-01
     12702      12739      1  -0.552948  -0.002029     3.19984e-01     2.85295e-01
     12681      12700      1   0.166801  -0.729843     3.17980e-01     3.17088e-01
     12681      12701      1   0.166801  -0.729843     3.17980e-01     3.17088e-01
     12681      12688      1   0.166801  -0.282478     3.39967e-01     2.28865e-01
     12681      12692      1   0.166801  -0.282478     3.39967e-01     2.28865e-01
     12681      12696      1   0.166801  -0.282478     3.39967e-01     2.28865e-01
     12680      12687      1  -0.508176   0.204385     3.12501e-01     3.55640e-01
     12679      12684      1   1.339721  -0.142353     3.57072e-01     3.09446e-01
     12678      12702      1  -0.509480  -0.460790     3.00001e-01     3.55640e-01
     12678      12681      1  -0.509480   0.139001     3.19984e-01     2.85295e-01
     12675      12703      1   0.017459   0.748011     3.39967e-01     2.02918e-01
     12675      12680      1   0.017459  -0.423480     3.19984e-01     2.85295e-01
     12675      12700      1   0.017459  -0.729843     3.17980e-01     3.17088e-01
     12675      12701      1   0.017459  -0.729843     3.17980e-01     3.17088e-01
     12673      12679      1   0.281242   1.116434     3.57072e-01     3.09446e-01
     12673      12704      1   0.281242  -0.561462     3.17980e-01     3.17088e-01
     12673      12742      1   0.281242  -0.136833     3.39967e-01     2.28865e-01
     12670      12678      1   0.196939  -0.424567     3.19984e-01     2.85295e-01
     12670      12703      1   0.196939   0.748011     3.39967e-01     2.02918e-01
     12669      12675      1  -0.575489   0.014549     3.19984e-01     2.85295e-01
     12669      12702      1  -0.575489  -0.460790     3.00001e-01     3.55640e-01
     12668      12670      1  -0.671566   0.164116     3.17980e-01     3.17088e-01
     12667      12673      1   0.910403   0.234368     3.39967e-01     2.02918e-01
     12733      12742      1  -0.016521  -0.136833     3.39967e-01     7.62883e-02
     12730      12739      1  -0.027812  -0.002029     3.39967e-01     7.62883e-02
     12727      12736      1  -0.004386  -0.022462     3.39967e-01     7.62883e-02
     12724      12733      1  -0.026451  -0.013767     3.39967e-01     7.62883e-02
     12721      12730      1  -0.014653  -0.023177     3.39967e-01     7.62883e-02
     12718      12727      1  -0.021025  -0.003655     3.39967e-01     7.62883e-02
     12715      12724      1  -0.031787  -0.022042     3.39967e-01     7.62883e-02
     12712      12721      1  -0.028094  -0.012211     3.39967e-01     7.62883e-02
     12709      12718      1   0.017463  -0.017521     3.39967e-01     7.62883e-02
     12706      12715      1  -0.111712  -0.026489     3.39967e-01     7.62883e-02
     12782      12788      1  -0.164200   0.164116     3.39967e-01     2.28865e-01
     12779      12786      1  -0.002435  -0.559638     3.17980e-01     3.17088e-01
     12779      12787      1  -0.002435  -0.479574     3.19984e-01     2.85295e-01
     12776      12785      1  -0.026954   0.758669     3.39967e-01     2.02918e-01
     12773      12782      1  -0.016521  -0.136833     3.39967e-01     7.62883e-02
     12770      12779      1  -0.027812  -0.002029     3.39967e-01     7.62883e-02
     12767      12776      1  -0.004386  -0.022462     3.39967e-01     7.62883e-02
     12764      12773      1  -0.026451  -0.013767     3.39967e-01     7.62883e-02
     12761      12770      1  -0.014653  -0.023177     3.39967e-01     7.62883e-02
     12758      12767      1  -0.021025  -0.003655     3.39967e-01     7.62883e-02
     12755      12764      1  -0.031787  -0.022042     3.39967e-01     7.62883e-02
     12752      12761      1  -0.028094  -0.012211     3.39967e-01     7.62883e-02
     12749      12758      1   0.017463  -0.017521     3.39967e-01     7.62883e-02
     12746      12755      1  -0.111712  -0.026489     3.39967e-01     7.62883e-02
     12822      12857      1  -0.673755  -0.002029     3.17980e-01     3.17088e-01
     12821      12854      1   0.897613  -0.022462     3.39967e-01     2.02918e-01
     12820      12857      1  -0.552948  -0.002029     3.19984e-01     2.85295e-01
     12799      12818      1   0.166801  -0.729843     3.17980e-01     3.17088e-01
     12799      12819      1   0.166801  -0.729843     3.17980e-01     3.17088e-01
     12799      12806      1   0.166801  -0.282478     3.39967e-01     2.28865e-01
     12799      12810      1   0.166801  -0.282478     3.39967e-01     2.28865e-01
     12799      12814      1   0.166801  -0.282478     3.39967e-01     2.28865e-01
     12798      12805      1  -0.508176   0.204385     3.12501e-01     3.55640e-01
     12797      12802      1   1.339721  -0.142353     3.57072e-01     3.09446e-01
     12796      12820      1  -0.509480  -0.460790     3.00001e-01     3.55640e-01
     12796      12799      1  -0.509480   0.139001     3.19984e-01     2.85295e-01
     12793      12821      1   0.017459   0.748011     3.39967e-01     2.02918e-01
     12793      12798      1   0.017459  -0.423480     3.19984e-01     2.85295e-01
     12793      12818      1   0.017459  -0.729843     3.17980e-01     3.17088e-01
     12793      12819      1   0.017459  -0.729843     3.17980e-01     3.17088e-01
     12791      12797      1   0.281242   1.116434     3.57072e-01     3.09446e-01
     12791      12822      1   0.281242  -0.561462     3.17980e-01     3.17088e-01
     12791      12860      1   0.281242  -0.136833     3.39967e-01     2.28865e-01
     12788      12796      1   0.196939  -0.424567     3.19984e-01     2.85295e-01
     12788      12821      1   0.196939   0.748011     3.39967e-01     2.02918e-01
     12787      12793      1  -0.575489   0.014549     3.19984e-01     2.85295e-01
     12787      12820      1  -0.575489  -0.460790     3.00001e-01     3.55640e-01
     12786      12788      1  -0.671566   0.164116     3.17980e-01     3.17088e-01
     12785      12791      1   0.910403   0.234368     3.39967e-01     2.02918e-01
     12851      12860      1  -0.016521  -0.136833     3.39967e-01     7.62883e-02
     12848      12857      1  -0.027812  -0.002029     3.39967e-01     7.62883e-02
     12845      12854      1  -0.004386  -0.022462     3.39967e-01     7.62883e-02
     12842      12851      1  -0.026451  -0.013767     3.39967e-01     7.62883e-02
     12839      12848      1  -0.014653  -0.023177     3.39967e-01     7.62883e-02
     12836      12845      1  -0.021025  -0.003655     3.39967e-01     7.62883e-02
     12833      12842      1  -0.031787  -0.022042     3.39967e-01     7.62883e-02
     12830      12839      1  -0.028094  -0.012211     3.39967e-01     7.62883e-02
     12827      12836      1   0.017463  -0.017521     3.39967e-01     7.62883e-02
     12824      12833      1  -0.111712  -0.026489     3.39967e-01     7.62883e-02
     12900      12906      1  -0.164200   0.164116     3.39967e-01     2.28865e-01
     12897      12904      1  -0.002435  -0.559638     3.17980e-01     3.17088e-01
     12897      12905      1  -0.002435  -0.479574     3.19984e-01     2.85295e-01
     12894      12903      1  -0.026954   0.758669     3.39967e-01     2.02918e-01
     12891      12900      1  -0.016521  -0.136833     3.39967e-01     7.62883e-02
     12888      12897      1  -0.027812  -0.002029     3.39967e-01     7.62883e-02
     12885      12894      1  -0.004386  -0.022462     3.39967e-01     7.62883e-02
     12882      12891      1  -0.026451  -0.013767     3.39967e-01     7.62883e-02
     12879      12888      1  -0.014653  -0.023177     3.39967e-01     7.62883e-02
     12876      12885      1  -0.021025  -0.003655     3.39967e-01     7.62883e-02
     12873      12882      1  -0.031787  -0.022042     3.39967e-01     7.62883e-02
     12870      12879      1  -0.028094  -0.012211     3.39967e-01     7.62883e-02
     12867      12876      1   0.017463  -0.017521     3.39967e-01     7.62883e-02
     12864      12873      1  -0.111712  -0.026489     3.39967e-01     7.62883e-02
     12940      12975      1  -0.673755  -0.002029     3.17980e-01     3.17088e-01
     12939      12972      1   0.897613  -0.022462     3.39967e-01     2.02918e-01
     12938      12975      1  -0.552948  -0.002029     3.19984e-01     2.85295e-01
     12917      12936      1   0.166801  -0.729843     3.17980e-01     3.17088e-01
     12917      12937      1   0.166801  -0.729843     3.17980e-01     3.17088e-01
     12917      12924      1   0.166801  -0.282478     3.39967e-01     2.28865e-01
     12917      12928      1   0.166801  -0.282478     3.39967e-01     2.28865e-01
     12917      12932      1   0.166801  -0.282478     3.39967e-01     2.28865e-01
     12916      12923      1  -0.508176   0.204385     3.12501e-01     3.55640e-01
     12915      12920      1   1.339721  -0.142353     3.57072e-01     3.09446e-01
     12914      12938      1  -0.509480  -0.460790     3.00001e-01     3.55640e-01
     12914      12917      1  -0.509480   0.139001     3.19984e-01     2.85295e-01
     12911      12939      1   0.017459   0.748011     3.39967e-01     2.02918e-01
     12911      12916      1   0.017459  -0.423480     3.19984e-01     2.85295e-01
     12911      12936      1   0.017459  -0.729843     3.17980e-01     3.17088e-01
     12911      12937      1   0.017459  -0.729843     3.17980e-01     3.17088e-01
     12909      12915      1   0.281242   1.116434     3.57072e-01     3.09446e-01
     12909      12940      1   0.281242  -0.561462     3.17980e-01     3.17088e-01
     12909      12978      1   0.281242  -0.136833     3.39967e-01     2.28865e-01
     12906      12914      1   0.196939  -0.424567     3.19984e-01     2.85295e-01
     12906      12939      1   0.196939   0.748011     3.39967e-01     2.02918e-01
     12905      12911      1  -0.575489   0.014549     3.19984e-01     2.85295e-01
     12905      12938      1  -0.575489  -0.460790     3.00001e-01     3.55640e-01
     12904      12906      1  -0.671566   0.164116     3.17980e-01     3.17088e-01
     12903      12909      1   0.910403   0.234368     3.39967e-01     2.02918e-01
     12969      12978      1  -0.016521  -0.136833     3.39967e-01     7.62883e-02
     12966      12975      1  -0.027812  -0.002029     3.39967e-01     7.62883e-02
     12963      12972      1  -0.004386  -0.022462     3.39967e-01     7.62883e-02
     12960      12969      1  -0.026451  -0.013767     3.39967e-01     7.62883e-02
     12957      12966      1  -0.014653  -0.023177     3.39967e-01     7.62883e-02
     12954      12963      1  -0.021025  -0.003655     3.39967e-01     7.62883e-02
     12951      12960      1  -0.031787  -0.022042     3.39967e-01     7.62883e-02
     12948      12957      1  -0.028094  -0.012211     3.39967e-01     7.62883e-02
     12945      12954      1   0.017463  -0.017521     3.39967e-01     7.62883e-02
     12942      12951      1  -0.111712  -0.026489     3.39967e-01     7.62883e-02
     13018      13024      1  -0.164200   0.164116     3.39967e-01     2.28865e-01
     13015      13022      1  -0.002435  -0.559638     3.17980e-01     3.17088e-01
     13015      13023      1  -0.002435  -0.479574     3.19984e-01     2.85295e-01
     13012      13021      1  -0.026954   0.758669     3.39967e-01     2.02918e-01
     13009      13018      1  -0.016521  -0.136833     3.39967e-01     7.62883e-02
     13006      13015      1  -0.027812  -0.002029     3.39967e-01     7.62883e-02
     13003      13012      1  -0.004386  -0.022462     3.39967e-01     7.62883e-02
     13000      13009      1  -0.026451  -0.013767     3.39967e-01     7.62883e-02
     12997      13006      1  -0.014653  -0.023177     3.39967e-01     7.62883e-02
     12994      13003      1  -0.021025  -0.003655     3.39967e-01     7.62883e-02
     12991      13000      1  -0.031787  -0.022042     3.39967e-01     7.62883e-02
     12988      12997      1  -0.028094  -0.012211     3.39967e-01     7.62883e-02
     12985      12994      1   0.017463  -0.017521     3.39967e-01     7.62883e-02
     12982      12991      1  -0.111712  -0.026489     3.39967e-01     7.62883e-02
     13058      13093      1  -0.673755  -0.002029     3.17980e-01     3.17088e-01
     13057      13090      1   0.897613  -0.022462     3.39967e-01     2.02918e-01
     13056      13093      1  -0.552948  -0.002029     3.19984e-01     2.85295e-01
     13035      13054      1   0.166801  -0.729843     3.17980e-01     3.17088e-01
     13035      13055      1   0.166801  -0.729843     3.17980e-01     3.17088e-01
     13035      13042      1   0.166801  -0.282478     3.39967e-01     2.28865e-01
     13035      13046      1   0.166801  -0.282478     3.39967e-01     2.28865e-01
     13035      13050      1   0.166801  -0.282478     3.39967e-01     2.28865e-01
     13034      13041      1  -0.508176   0.204385     3.12501e-01     3.55640e-01
     13033      13038      1   1.339721  -0.142353     3.57072e-01     3.09446e-01
     13032      13056      1  -0.509480  -0.460790     3.00001e-01     3.55640e-01
     13032      13035      1  -0.509480   0.139001     3.19984e-01     2.85295e-01
     13029      13057      1   0.017459   0.748011     3.39967e-01     2.02918e-01
     13029      13034      1   0.017459  -0.423480     3.19984e-01     2.85295e-01
     13029      13054      1   0.017459  -0.729843     3.17980e-01     3.17088e-01
     13029      13055      1   0.017459  -0.729843     3.17980e-01     3.17088e-01
     13027      13033      1   0.281242   1.116434     3.57072e-01     3.09446e-01
     13027      13058      1   0.281242  -0.561462     3.17980e-01     3.17088e-01
     13027      13096      1   0.281242  -0.136833     3.39967e-01     2.28865e-01
     13024      13032      1   0.196939  -0.424567     3.19984e-01     2.85295e-01
     13024      13057      1   0.196939   0.748011     3.39967e-01     2.02918e-01
     13023      13029      1  -0.575489   0.014549     3.19984e-01     2.85295e-01
     13023      13056      1  -0.575489  -0.460790     3.00001e-01     3.55640e-01
     13022      13024      1  -0.671566   0.164116     3.17980e-01     3.17088e-01
     13021      13027      1   0.910403   0.234368     3.39967e-01     2.02918e-01
     13087      13096      1  -0.016521  -0.136833     3.39967e-01     7.62883e-02
     13084      13093      1  -0.027812  -0.002029     3.39967e-01     7.62883e-02
     13081      13090      1  -0.004386  -0.022462     3.39967e-01     7.62883e-02
     13078      13087      1  -0.026451  -0.013767     3.39967e-01     7.62883e-02
     13075      13084      1  -0.014653  -0.023177     3.39967e-01     7.62883e-02
     13072      13081      1  -0.021025  -0.003655     3.39967e-01     7.62883e-02
     13069      13078      1  -0.031787  -0.022042     3.39967e-01     7.62883e-02
     13066      13075      1  -0.028094  -0.012211     3.39967e-01     7.62883e-02
     13063      13072      1   0.017463  -0.017521     3.39967e-01     7.62883e-02
     13060      13069      1  -0.111712  -0.026489     3.39967e-01     7.62883e-02
     13136      13142      1  -0.164200   0.164116     3.39967e-01     2.28865e-01
     13133      13140      1  -0.002435  -0.559638     3.17980e-01     3.17088e-01
     13133      13141      1  -0.002435  -0.479574     3.19984e-01     2.85295e-01
     13130      13139      1  -0.026954   0.758669     3.39967e-01     2.02918e-01
     13127      13136      1  -0.016521  -0.136833     3.39967e-01     7.62883e-02
     13124      13133      1  -0.027812  -0.002029     3.39967e-01     7.62883e-02
     13121      13130      1  -0.004386  -0.022462     3.39967e-01     7.62883e-02
     13118      13127      1  -0.026451  -0.013767     3.39967e-01     7.62883e-02
     13115      13124      1  -0.014653  -0.023177     3.39967e-01     7.62883e-02
     13112      13121      1  -0.021025  -0.003655     3.39967e-01     7.62883e-02
     13109      13118      1  -0.031787  -0.022042     3.39967e-01     7.62883e-02
     13106      13115      1  -0.028094  -0.012211     3.39967e-01     7.62883e-02
     13103      13112      1   0.017463  -0.017521     3.39967e-01     7.62883e-02
     13100      13109      1  -0.111712  -0.026489     3.39967e-01     7.62883e-02
     13176      13211      1  -0.673755  -0.002029     3.17980e-01     3.17088e-01
     13175      13208      1   0.897613  -0.022462     3.39967e-01     2.02918e-01
     13174      13211      1  -0.552948  -0.002029     3.19984e-01     2.85295e-01
     13153      13172      1   0.166801  -0.729843     3.17980e-01     3.17088e-01
     13153      13173      1   0.166801  -0.729843     3.17980e-01     3.17088e-01
     13153      13160      1   0.166801  -0.282478     3.39967e-01     2.28865e-01
     13153      13164      1   0.166801  -0.282478     3.39967e-01     2.28865e-01
     13153      13168      1   0.166801  -0.282478     3.39967e-01     2.28865e-01
     13152      13159      1  -0.508176   0.204385     3.12501e-01     3.55640e-01
     13151      13156      1   1.339721  -0.142353     3.57072e-01     3.09446e-01
     13150      13174      1  -0.509480  -0.460790     3.00001e-01     3.55640e-01
     13150      13153      1  -0.509480   0.139001     3.19984e-01     2.85295e-01
     13147      13175      1   0.017459   0.748011     3.39967e-01     2.02918e-01
     13147      13152      1   0.017459  -0.423480     3.19984e-01     2.85295e-01
     13147      13172      1   0.017459  -0.729843     3.17980e-01     3.17088e-01
     13147      13173      1   0.017459  -0.729843     3.17980e-01     3.17088e-01
     13145      13151      1   0.281242   1.116434     3.57072e-01     3.09446e-01
     13145      13176      1   0.281242  -0.561462     3.17980e-01     3.17088e-01
     13145      13214      1   0.281242  -0.136833     3.39967e-01     2.28865e-01
     13142      13150      1   0.196939  -0.424567     3.19984e-01     2.85295e-01
     13142      13175      1   0.196939   0.748011     3.39967e-01     2.02918e-01
     13141      13147      1  -0.575489   0.014549     3.19984e-01     2.85295e-01
     13141      13174      1  -0.575489  -0.460790     3.00001e-01     3.55640e-01
     13140      13142      1  -0.671566   0.164116     3.17980e-01     3.17088e-01
     13139      13145      1   0.910403   0.234368     3.39967e-01     2.02918e-01
     13205      13214      1  -0.016521  -0.136833     3.39967e-01     7.62883e-02
     13202      13211      1  -0.027812  -0.002029     3.39967e-01     7.62883e-02
     13199      13208      1  -0.004386  -0.022462     3.39967e-01     7.62883e-02
     13196      13205      1  -0.026451  -0.013767     3.39967e-01     7.62883e-02
     13193      13202      1  -0.014653  -0.023177     3.39967e-01     7.62883e-02
     13190      13199      1  -0.021025  -0.003655     3.39967e-01     7.62883e-02
     13187      13196      1  -0.031787  -0.022042     3.39967e-01     7.62883e-02
     13184      13193      1  -0.028094  -0.012211     3.39967e-01     7.62883e-02
     13181      13190      1   0.017463  -0.017521     3.39967e-01     7.62883e-02
     13178      13187      1  -0.111712  -0.026489     3.39967e-01     7.62883e-02
     13254      13260      1  -0.164200   0.164116     3.39967e-01     2.28865e-01
     13251      13258      1  -0.002435  -0.559638     3.17980e-01     3.17088e-01
     13251      13259      1  -0.002435  -0.479574     3.19984e-01     2.85295e-01
     13248      13257      1  -0.026954   0.758669     3.39967e-01     2.02918e-01
     13245      13254      1  -0.016521  -0.136833     3.39967e-01     7.62883e-02
     13242      13251      1  -0.027812  -0.002029     3.39967e-01     7.62883e-02
     13239      13248      1  -0.004386  -0.022462     3.39967e-01     7.62883e-02
     13236      13245      1  -0.026451  -0.013767     3.39967e-01     7.62883e-02
     13233      13242      1  -0.014653  -0.023177     3.39967e-01     7.62883e-02
     13230      13239      1  -0.021025  -0.003655     3.39967e-01     7.62883e-02
     13227      13236      1  -0.031787  -0.022042     3.39967e-01     7.62883e-02
     13224      13233      1  -0.028094  -0.012211     3.39967e-01     7.62883e-02
     13221      13230      1   0.017463  -0.017521     3.39967e-01     7.62883e-02
     13218      13227      1  -0.111712  -0.026489     3.39967e-01     7.62883e-02
     13294      13329      1  -0.673755  -0.002029     3.17980e-01     3.17088e-01
     13293      13326      1   0.897613  -0.022462     3.39967e-01     2.02918e-01
     13292      13329      1  -0.552948  -0.002029     3.19984e-01     2.85295e-01
     13271      13290      1   0.166801  -0.729843     3.17980e-01     3.17088e-01
     13271      13291      1   0.166801  -0.729843     3.17980e-01     3.17088e-01
     13271      13278      1   0.166801  -0.282478     3.39967e-01     2.28865e-01
     13271      13282      1   0.166801  -0.282478     3.39967e-01     2.28865e-01
     13271      13286      1   0.166801  -0.282478     3.39967e-01     2.28865e-01
     13270      13277      1  -0.508176   0.204385     3.12501e-01     3.55640e-01
     13269      13274      1   1.339721  -0.142353     3.57072e-01     3.09446e-01
     13268      13292      1  -0.509480  -0.460790     3.00001e-01     3.55640e-01
     13268      13271      1  -0.509480   0.139001     3.19984e-01     2.85295e-01
     13265      13293      1   0.017459   0.748011     3.39967e-01     2.02918e-01
     13265      13270      1   0.017459  -0.423480     3.19984e-01     2.85295e-01
     13265      13290      1   0.017459  -0.729843     3.17980e-01     3.17088e-01
     13265      13291      1   0.017459  -0.729843     3.17980e-01     3.17088e-01
     13263      13269      1   0.281242   1.116434     3.57072e-01     3.09446e-01
     13263      13294      1   0.281242  -0.561462     3.17980e-01     3.17088e-01
     13263      13332      1   0.281242  -0.136833     3.39967e-01     2.28865e-01
     13260      13268      1   0.196939  -0.424567     3.19984e-01     2.85295e-01
     13260      13293      1   0.196939   0.748011     3.39967e-01     2.02918e-01
     13259      13265      1  -0.575489   0.014549     3.19984e-01     2.85295e-01
     13259      13292      1  -0.575489  -0.460790     3.00001e-01     3.55640e-01
     13258      13260      1  -0.671566   0.164116     3.17980e-01     3.17088e-01
     13257      13263      1   0.910403   0.234368     3.39967e-01     2.02918e-01
     13323      13332      1  -0.016521  -0.136833     3.39967e-01     7.62883e-02
     13320      13329      1  -0.027812  -0.002029     3.39967e-01     7.62883e-02
     13317      13326      1  -0.004386  -0.022462     3.39967e-01     7.62883e-02
     13314      13323      1  -0.026451  -0.013767     3.39967e-01     7.62883e-02
     13311      13320      1  -0.014653  -0.023177     3.39967e-01     7.62883e-02
     13308      13317      1  -0.021025  -0.003655     3.39967e-01     7.62883e-02
     13305      13314      1  -0.031787  -0.022042     3.39967e-01     7.62883e-02
     13302      13311      1  -0.028094  -0.012211     3.39967e-01     7.62883e-02
     13299      13308      1   0.017463  -0.017521     3.39967e-01     7.62883e-02
     13296      13305      1  -0.111712  -0.026489     3.39967e-01     7.62883e-02
     13372      13378      1  -0.164200   0.164116     3.39967e-01     2.28865e-01
     13369      13376      1  -0.002435  -0.559638     3.17980e-01     3.17088e-01
     13369      13377      1  -0.002435  -0.479574     3.19984e-01     2.85295e-01
     13366      13375      1  -0.026954   0.758669     3.39967e-01     2.02918e-01
     13363      13372      1  -0.016521  -0.136833     3.39967e-01     7.62883e-02
     13360      13369      1  -0.027812  -0.002029     3.39967e-01     7.62883e-02
     13357      13366      1  -0.004386  -0.022462     3.39967e-01     7.62883e-02
     13354      13363      1  -0.026451  -0.013767     3.39967e-01     7.62883e-02
     13351      13360      1  -0.014653  -0.023177     3.39967e-01     7.62883e-02
     13348      13357      1  -0.021025  -0.003655     3.39967e-01     7.62883e-02
     13345      13354      1  -0.031787  -0.022042     3.39967e-01     7.62883e-02
     13342      13351      1  -0.028094  -0.012211     3.39967e-01     7.62883e-02
     13339      13348      1   0.017463  -0.017521     3.39967e-01     7.62883e-02
     13336      13345      1  -0.111712  -0.026489     3.39967e-01     7.62883e-02
     13412      13447      1  -0.673755  -0.002029     3.17980e-01     3.17088e-01
     13411      13444      1   0.897613  -0.022462     3.39967e-01     2.02918e-01
     13410      13447      1  -0.552948  -0.002029     3.19984e-01     2.85295e-01
     13389      13408      1   0.166801  -0.729843     3.17980e-01     3.17088e-01
     13389      13409      1   0.166801  -0.729843     3.17980e-01     3.17088e-01
     13389      13396      1   0.166801  -0.282478     3.39967e-01     2.28865e-01
     13389      13400      1   0.166801  -0.282478     3.39967e-01     2.28865e-01
     13389      13404      1   0.166801  -0.282478     3.39967e-01     2.28865e-01
     13388      13395      1  -0.508176   0.204385     3.12501e-01     3.55640e-01
     13387      13392      1   1.339721  -0.142353     3.57072e-01     3.09446e-01
     13386      13410      1  -0.509480  -0.460790     3.00001e-01     3.55640e-01
     13386      13389      1  -0.509480   0.139001     3.19984e-01     2.85295e-01
     13383      13411      1   0.017459   0.748011     3.39967e-01     2.02918e-01
     13383      13388      1   0.017459  -0.423480     3.19984e-01     2.85295e-01
     13383      13408      1   0.017459  -0.729843     3.17980e-01     3.17088e-01
     13383      13409      1   0.017459  -0.729843     3.17980e-01     3.17088e-01
     13381      13387      1   0.281242   1.116434     3.57072e-01     3.09446e-01
     13381      13412      1   0.281242  -0.561462     3.17980e-01     3.17088e-01
     13381      13450      1   0.281242  -0.136833     3.39967e-01     2.28865e-01
     13378      13386      1   0.196939  -0.424567     3.19984e-01     2.85295e-01
     13378      13411      1   0.196939   0.748011     3.39967e-01     2.02918e-01
     13377      13383      1  -0.575489   0.014549     3.19984e-01     2.85295e-01
     13377      13410      1  -0.575489  -0.460790     3.00001e-01     3.55640e-01
     13376      13378      1  -0.671566   0.164116     3.17980e-01     3.17088e-01
     13375      13381      1   0.910403   0.234368     3.39967e-01     2.02918e-01
     13441      13450      1  -0.016521  -0.136833     3.39967e-01     7.62883e-02
     13438      13447      1  -0.027812  -0.002029     3.39967e-01     7.62883e-02
     13435      13444      1  -0.004386  -0.022462     3.39967e-01     7.62883e-02
     13432      13441      1  -0.026451  -0.013767     3.39967e-01     7.62883e-02
     13429      13438      1  -0.014653  -0.023177     3.39967e-01     7.62883e-02
     13426      13435      1  -0.021025  -0.003655     3.39967e-01     7.62883e-02
     13423      13432      1  -0.031787  -0.022042     3.39967e-01     7.62883e-02
     13420      13429      1  -0.028094  -0.012211     3.39967e-01     7.62883e-02
     13417      13426      1   0.017463  -0.017521     3.39967e-01     7.62883e-02
     13414      13423      1  -0.111712  -0.026489     3.39967e-01     7.62883e-02
     13490      13496      1  -0.164200   0.164116     3.39967e-01     2.28865e-01
     13487      13494      1  -0.002435  -0.559638     3.17980e-01     3.17088e-01
     13487      13495      1  -0.002435  -0.479574     3.19984e-01     2.85295e-01
     13484      13493      1  -0.026954   0.758669     3.39967e-01     2.02918e-01
     13481      13490      1  -0.016521  -0.136833     3.39967e-01     7.62883e-02
     13478      13487      1  -0.027812  -0.002029     3.39967e-01     7.62883e-02
     13475      13484      1  -0.004386  -0.022462     3.39967e-01     7.62883e-02
     13472      13481      1  -0.026451  -0.013767     3.39967e-01     7.62883e-02
     13469      13478      1  -0.014653  -0.023177     3.39967e-01     7.62883e-02
     13466      13475      1  -0.021025  -0.003655     3.39967e-01     7.62883e-02
     13463      13472      1  -0.031787  -0.022042     3.39967e-01     7.62883e-02
     13460      13469      1  -0.028094  -0.012211     3.39967e-01     7.62883e-02
     13457      13466      1   0.017463  -0.017521     3.39967e-01     7.62883e-02
     13454      13463      1  -0.111712  -0.026489     3.39967e-01     7.62883e-02
     13530      13565      1  -0.673755  -0.002029     3.17980e-01     3.17088e-01
     13529      13562      1   0.897613  -0.022462     3.39967e-01     2.02918e-01
     13528      13565      1  -0.552948  -0.002029     3.19984e-01     2.85295e-01
     13507      13526      1   0.166801  -0.729843     3.17980e-01     3.17088e-01
     13507      13527      1   0.166801  -0.729843     3.17980e-01     3.17088e-01
     13507      13514      1   0.166801  -0.282478     3.39967e-01     2.28865e-01
     13507      13518      1   0.166801  -0.282478     3.39967e-01     2.28865e-01
     13507      13522      1   0.166801  -0.282478     3.39967e-01     2.28865e-01
     13506      13513      1  -0.508176   0.204385     3.12501e-01     3.55640e-01
     13505      13510      1   1.339721  -0.142353     3.57072e-01     3.09446e-01
     13504      13528      1  -0.509480  -0.460790     3.00001e-01     3.55640e-01
     13504      13507      1  -0.509480   0.139001     3.19984e-01     2.85295e-01
     13501      13529      1   0.017459   0.748011     3.39967e-01     2.02918e-01
     13501      13506      1   0.017459  -0.423480     3.19984e-01     2.85295e-01
     13501      13526      1   0.017459  -0.729843     3.17980e-01     3.17088e-01
     13501      13527      1   0.017459  -0.729843     3.17980e-01     3.17088e-01
     13499      13505      1   0.281242   1.116434     3.57072e-01     3.09446e-01
     13499      13530      1   0.281242  -0.561462     3.17980e-01     3.17088e-01
     13499      13568      1   0.281242  -0.136833     3.39967e-01     2.28865e-01
     13496      13504      1   0.196939  -0.424567     3.19984e-01     2.85295e-01
     13496      13529      1   0.196939   0.748011     3.39967e-01     2.02918e-01
     13495      13501      1  -0.575489   0.014549     3.19984e-01     2.85295e-01
     13495      13528      1  -0.575489  -0.460790     3.00001e-01     3.55640e-01
     13494      13496      1  -0.671566   0.164116     3.17980e-01     3.17088e-01
     13493      13499      1   0.910403   0.234368     3.39967e-01     2.02918e-01
     13559      13568      1  -0.016521  -0.136833     3.39967e-01     7.62883e-02
     13556      13565      1  -0.027812  -0.002029     3.39967e-01     7.62883e-02
     13553      13562      1  -0.004386  -0.022462     3.39967e-01     7.62883e-02
     13550      13559      1  -0.026451  -0.013767     3.39967e-01     7.62883e-02
     13547      13556      1  -0.014653  -0.023177     3.39967e-01     7.62883e-02
     13544      13553      1  -0.021025  -0.003655     3.39967e-01     7.62883e-02
     13541      13550      1  -0.031787  -0.022042     3.39967e-01     7.62883e-02
     13538      13547      1  -0.028094  -0.012211     3.39967e-01     7.62883e-02
     13535      13544      1   0.017463  -0.017521     3.39967e-01     7.62883e-02
     13532      13541      1  -0.111712  -0.026489     3.39967e-01     7.62883e-02
     13608      13614      1  -0.164200   0.164116     3.39967e-01     2.28865e-01
     13605      13612      1  -0.002435  -0.559638     3.17980e-01     3.17088e-01
     13605      13613      1  -0.002435  -0.479574     3.19984e-01     2.85295e-01
     13602      13611      1  -0.026954   0.758669     3.39967e-01     2.02918e-01
     13599      13608      1  -0.016521  -0.136833     3.39967e-01     7.62883e-02
     13596      13605      1  -0.027812  -0.002029     3.39967e-01     7.62883e-02
     13593      13602      1  -0.004386  -0.022462     3.39967e-01     7.62883e-02
     13590      13599      1  -0.026451  -0.013767     3.39967e-01     7.62883e-02
     13587      13596      1  -0.014653  -0.023177     3.39967e-01     7.62883e-02
     13584      13593      1  -0.021025  -0.003655     3.39967e-01     7.62883e-02
     13581      13590      1  -0.031787  -0.022042     3.39967e-01     7.62883e-02
     13578      13587      1  -0.028094  -0.012211     3.39967e-01     7.62883e-02
     13575      13584      1   0.017463  -0.017521     3.39967e-01     7.62883e-02
     13572      13581      1  -0.111712  -0.026489     3.39967e-01     7.62883e-02
     13648      13683      1  -0.673755  -0.002029     3.17980e-01     3.17088e-01
     13647      13680      1   0.897613  -0.022462     3.39967e-01     2.02918e-01
     13646      13683      1  -0.552948  -0.002029     3.19984e-01     2.85295e-01
     13625      13644      1   0.166801  -0.729843     3.17980e-01     3.17088e-01
     13625      13645      1   0.166801  -0.729843     3.17980e-01     3.17088e-01
     13625      13632      1   0.166801  -0.282478     3.39967e-01     2.28865e-01
     13625      13636      1   0.166801  -0.282478     3.39967e-01     2.28865e-01
     13625      13640      1   0.166801  -0.282478     3.39967e-01     2.28865e-01
     13624      13631      1  -0.508176   0.204385     3.12501e-01     3.55640e-01
     13623      13628      1   1.339721  -0.142353     3.57072e-01     3.09446e-01
     13622      13646      1  -0.509480  -0.460790     3.00001e-01     3.55640e-01
     13622      13625      1  -0.509480   0.139001     3.19984e-01     2.85295e-01
     13619      13647      1   0.017459   0.748011     3.39967e-01     2.02918e-01
     13619      13624      1   0.017459  -0.423480     3.19984e-01     2.85295e-01
     13619      13644      1   0.017459  -0.729843     3.17980e-01     3.17088e-01
     13619      13645      1   0.017459  -0.729843     3.17980e-01     3.17088e-01
     13617      13623      1   0.281242   1.116434     3.57072e-01     3.09446e-01
     13617      13648      1   0.281242  -0.561462     3.17980e-01     3.17088e-01
     13617      13686      1   0.281242  -0.136833     3.39967e-01     2.28865e-01
     13614      13622      1   0.196939  -0.424567     3.19984e-01     2.85295e-01
     13614      13647      1   0.196939   0.748011     3.39967e-01     2.02918e-01
     13613      13619      1  -0.575489   0.014549     3.19984e-01     2.85295e-01
     13613      13646      1  -0.575489  -0.460790     3.00001e-01     3.55640e-01
     13612      13614      1  -0.671566   0.164116     3.17980e-01     3.17088e-01
     13611      13617      1   0.910403   0.234368     3.39967e-01     2.02918e-01
     13677      13686      1  -0.016521  -0.136833     3.39967e-01     7.62883e-02
     13674      13683      1  -0.027812  -0.002029     3.39967e-01     7.62883e-02
     13671      13680      1  -0.004386  -0.022462     3.39967e-01     7.62883e-02
     13668      13677      1  -0.026451  -0.013767     3.39967e-01     7.62883e-02
     13665      13674      1  -0.014653  -0.023177     3.39967e-01     7.62883e-02
     13662      13671      1  -0.021025  -0.003655     3.39967e-01     7.62883e-02
     13659      13668      1  -0.031787  -0.022042     3.39967e-01     7.62883e-02
     13656      13665      1  -0.028094  -0.012211     3.39967e-01     7.62883e-02
     13653      13662      1   0.017463  -0.017521     3.39967e-01     7.62883e-02
     13650      13659      1  -0.111712  -0.026489     3.39967e-01     7.62883e-02
     13726      13732      1  -0.164200   0.164116     3.39967e-01     2.28865e-01
     13723      13730      1  -0.002435  -0.559638     3.17980e-01     3.17088e-01
     13723      13731      1  -0.002435  -0.479574     3.19984e-01     2.85295e-01
     13720      13729      1  -0.026954   0.758669     3.39967e-01     2.02918e-01
     13717      13726      1  -0.016521  -0.136833     3.39967e-01     7.62883e-02
     13714      13723      1  -0.027812  -0.002029     3.39967e-01     7.62883e-02
     13711      13720      1  -0.004386  -0.022462     3.39967e-01     7.62883e-02
     13708      13717      1  -0.026451  -0.013767     3.39967e-01     7.62883e-02
     13705      13714      1  -0.014653  -0.023177     3.39967e-01     7.62883e-02
     13702      13711      1  -0.021025  -0.003655     3.39967e-01     7.62883e-02
     13699      13708      1  -0.031787  -0.022042     3.39967e-01     7.62883e-02
     13696      13705      1  -0.028094  -0.012211     3.39967e-01     7.62883e-02
     13693      13702      1   0.017463  -0.017521     3.39967e-01     7.62883e-02
     13690      13699      1  -0.111712  -0.026489     3.39967e-01     7.62883e-02
     13766      13801      1  -0.673755  -0.002029     3.17980e-01     3.17088e-01
     13765      13798      1   0.897613  -0.022462     3.39967e-01     2.02918e-01
     13764      13801      1  -0.552948  -0.002029     3.19984e-01     2.85295e-01
     13743      13762      1   0.166801  -0.729843     3.17980e-01     3.17088e-01
     13743      13763      1   0.166801  -0.729843     3.17980e-01     3.17088e-01
     13743      13750      1   0.166801  -0.282478     3.39967e-01     2.28865e-01
     13743      13754      1   0.166801  -0.282478     3.39967e-01     2.28865e-01
     13743      13758      1   0.166801  -0.282478     3.39967e-01     2.28865e-01
     13742      13749      1  -0.508176   0.204385     3.12501e-01     3.55640e-01
     13741      13746      1   1.339721  -0.142353     3.57072e-01     3.09446e-01
     13740      13764      1  -0.509480  -0.460790     3.00001e-01     3.55640e-01
     13740      13743      1  -0.509480   0.139001     3.19984e-01     2.85295e-01
     13737      13765      1   0.017459   0.748011     3.39967e-01     2.02918e-01
     13737      13742      1   0.017459  -0.423480     3.19984e-01     2.85295e-01
     13737      13762      1   0.017459  -0.729843     3.17980e-01     3.17088e-01
     13737      13763      1   0.017459  -0.729843     3.17980e-01     3.17088e-01
     13735      13741      1   0.281242   1.116434     3.57072e-01     3.09446e-01
     13735      13766      1   0.281242  -0.561462     3.17980e-01     3.17088e-01
     13735      13804      1   0.281242  -0.136833     3.39967e-01     2.28865e-01
     13732      13740      1   0.196939  -0.424567     3.19984e-01     2.85295e-01
     13732      13765      1   0.196939   0.748011     3.39967e-01     2.02918e-01
     13731      13737      1  -0.575489   0.014549     3.19984e-01     2.85295e-01
     13731      13764      1  -0.575489  -0.460790     3.00001e-01     3.55640e-01
     13730      13732      1  -0.671566   0.164116     3.17980e-01     3.17088e-01
     13729      13735      1   0.910403   0.234368     3.39967e-01     2.02918e-01
     13795      13804      1  -0.016521  -0.136833     3.39967e-01     7.62883e-02
     13792      13801      1  -0.027812  -0.002029     3.39967e-01     7.62883e-02
     13789      13798      1  -0.004386  -0.022462     3.39967e-01     7.62883e-02
     13786      13795      1  -0.026451  -0.013767     3.39967e-01     7.62883e-02
     13783      13792      1  -0.014653  -0.023177     3.39967e-01     7.62883e-02
     13780      13789      1  -0.021025  -0.003655     3.39967e-01     7.62883e-02
     13777      13786      1  -0.031787  -0.022042     3.39967e-01     7.62883e-02
     13774      13783      1  -0.028094  -0.012211     3.39967e-01     7.62883e-02
     13771      13780      1   0.017463  -0.017521     3.39967e-01     7.62883e-02
     13768      13777      1  -0.111712  -0.026489     3.39967e-01     7.62883e-02
     13844      13850      1  -0.164200   0.164116     3.39967e-01     2.28865e-01
     13841      13848      1  -0.002435  -0.559638     3.17980e-01     3.17088e-01
     13841      13849      1  -0.002435  -0.479574     3.19984e-01     2.85295e-01
     13838      13847      1  -0.026954   0.758669     3.39967e-01     2.02918e-01
     13835      13844      1  -0.016521  -0.136833     3.39967e-01     7.62883e-02
     13832      13841      1  -0.027812  -0.002029     3.39967e-01     7.62883e-02
     13829      13838      1  -0.004386  -0.022462     3.39967e-01     7.62883e-02
     13826      13835      1  -0.026451  -0.013767     3.39967e-01     7.62883e-02
     13823      13832      1  -0.014653  -0.023177     3.39967e-01     7.62883e-02
     13820      13829      1  -0.021025  -0.003655     3.39967e-01     7.62883e-02
     13817      13826      1  -0.031787  -0.022042     3.39967e-01     7.62883e-02
     13814      13823      1  -0.028094  -0.012211     3.39967e-01     7.62883e-02
     13811      13820      1   0.017463  -0.017521     3.39967e-01     7.62883e-02
     13808      13817      1  -0.111712  -0.026489     3.39967e-01     7.62883e-02
     13884      13919      1  -0.673755  -0.002029     3.17980e-01     3.17088e-01
     13883      13916      1   0.897613  -0.022462     3.39967e-01     2.02918e-01
     13882      13919      1  -0.552948  -0.002029     3.19984e-01     2.85295e-01
     13861      13880      1   0.166801  -0.729843     3.17980e-01     3.17088e-01
     13861      13881      1   0.166801  -0.729843     3.17980e-01     3.17088e-01
     13861      13868      1   0.166801  -0.282478     3.39967e-01     2.28865e-01
     13861      13872      1   0.166801  -0.282478     3.39967e-01     2.28865e-01
     13861      13876      1   0.166801  -0.282478     3.39967e-01     2.28865e-01
     13860      13867      1  -0.508176   0.204385     3.12501e-01     3.55640e-01
     13859      13864      1   1.339721  -0.142353     3.57072e-01     3.09446e-01
     13858      13882      1  -0.509480  -0.460790     3.00001e-01     3.55640e-01
     13858      13861      1  -0.509480   0.139001     3.19984e-01     2.85295e-01
     13855      13883      1   0.017459   0.748011     3.39967e-01     2.02918e-01
     13855      13860      1   0.017459  -0.423480     3.19984e-01     2.85295e-01
     13855      13880      1   0.017459  -0.729843     3.17980e-01     3.17088e-01
     13855      13881      1   0.017459  -0.729843     3.17980e-01     3.17088e-01
     13853      13859      1   0.281242   1.116434     3.57072e-01     3.09446e-01
     13853      13884      1   0.281242  -0.561462     3.17980e-01     3.17088e-01
     13853      13922      1   0.281242  -0.136833     3.39967e-01     2.28865e-01
     13850      13858      1   0.196939  -0.424567     3.19984e-01     2.85295e-01
     13850      13883      1   0.196939   0.748011     3.39967e-01     2.02918e-01
     13849      13855      1  -0.575489   0.014549     3.19984e-01     2.85295e-01
     13849      13882      1  -0.575489  -0.460790     3.00001e-01     3.55640e-01
     13848      13850      1  -0.671566   0.164116     3.17980e-01     3.17088e-01
     13847      13853      1   0.910403   0.234368     3.39967e-01     2.02918e-01
     13913      13922      1  -0.016521  -0.136833     3.39967e-01     7.62883e-02
     13910      13919      1  -0.027812  -0.002029     3.39967e-01     7.62883e-02
     13907      13916      1  -0.004386  -0.022462     3.39967e-01     7.62883e-02
     13904      13913      1  -0.026451  -0.013767     3.39967e-01     7.62883e-02
     13901      13910      1  -0.014653  -0.023177     3.39967e-01     7.62883e-02
     13898      13907      1  -0.021025  -0.003655     3.39967e-01     7.62883e-02
     13895      13904      1  -0.031787  -0.022042     3.39967e-01     7.62883e-02
     13892      13901      1  -0.028094  -0.012211     3.39967e-01     7.62883e-02
     13889      13898      1   0.017463  -0.017521     3.39967e-01     7.62883e-02
     13886      13895      1  -0.111712  -0.026489     3.39967e-01     7.62883e-02
     13962      13968      1  -0.164200   0.164116     3.39967e-01     2.28865e-01
     13959      13966      1  -0.002435  -0.559638     3.17980e-01     3.17088e-01
     13959      13967      1  -0.002435  -0.479574     3.19984e-01     2.85295e-01
     13956      13965      1  -0.026954   0.758669     3.39967e-01     2.02918e-01
     13953      13962      1  -0.016521  -0.136833     3.39967e-01     7.62883e-02
     13950      13959      1  -0.027812  -0.002029     3.39967e-01     7.62883e-02
     13947      13956      1  -0.004386  -0.022462     3.39967e-01     7.62883e-02
     13944      13953      1  -0.026451  -0.013767     3.39967e-01     7.62883e-02
     13941      13950      1  -0.014653  -0.023177     3.39967e-01     7.62883e-02
     13938      13947      1  -0.021025  -0.003655     3.39967e-01     7.62883e-02
     13935      13944      1  -0.031787  -0.022042     3.39967e-01     7.62883e-02
     13932      13941      1  -0.028094  -0.012211     3.39967e-01     7.62883e-02
     13929      13938      1   0.017463  -0.017521     3.39967e-01     7.62883e-02
     13926      13935      1  -0.111712  -0.026489     3.39967e-01     7.62883e-02
     14002      14037      1  -0.673755  -0.002029     3.17980e-01     3.17088e-01
     14001      14034      1   0.897613  -0.022462     3.39967e-01     2.02918e-01
     14000      14037      1  -0.552948  -0.002029     3.19984e-01     2.85295e-01
     13979      13998      1   0.166801  -0.729843     3.17980e-01     3.17088e-01
     13979      13999      1   0.166801  -0.729843     3.17980e-01     3.17088e-01
     13979      13986      1   0.166801  -0.282478     3.39967e-01     2.28865e-01
     13979      13990      1   0.166801  -0.282478     3.39967e-01     2.28865e-01
     13979      13994      1   0.166801  -0.282478     3.39967e-01     2.28865e-01
     13978      13985      1  -0.508176   0.204385     3.12501e-01     3.55640e-01
     13977      13982      1   1.339721  -0.142353     3.57072e-01     3.09446e-01
     13976      14000      1  -0.509480  -0.460790     3.00001e-01     3.55640e-01
     13976      13979      1  -0.509480   0.139001     3.19984e-01     2.85295e-01
     13973      14001      1   0.017459   0.748011     3.39967e-01     2.02918e-01
     13973      13978      1   0.017459  -0.423480     3.19984e-01     2.85295e-01
     13973      13998      1   0.017459  -0.729843     3.17980e-01     3.17088e-01
     13973      13999      1   0.017459  -0.729843     3.17980e-01     3.17088e-01
     13971      13977      1   0.281242   1.116434     3.57072e-01     3.09446e-01
     13971      14002      1   0.281242  -0.561462     3.17980e-01     3.17088e-01
     13971      14040      1   0.281242  -0.136833     3.39967e-01     2.28865e-01
     13968      13976      1   0.196939  -0.424567     3.19984e-01     2.85295e-01
     13968      14001      1   0.196939   0.748011     3.39967e-01     2.02918e-01
     13967      13973      1  -0.575489   0.014549     3.19984e-01     2.85295e-01
     13967      14000      1  -0.575489  -0.460790     3.00001e-01     3.55640e-01
     13966      13968      1  -0.671566   0.164116     3.17980e-01     3.17088e-01
     13965      13971      1   0.910403   0.234368     3.39967e-01     2.02918e-01
     14031      14040      1  -0.016521  -0.136833     3.39967e-01     7.62883e-02
     14028      14037      1  -0.027812  -0.002029     3.39967e-01     7.62883e-02
     14025      14034      1  -0.004386  -0.022462     3.39967e-01     7.62883e-02
     14022      14031      1  -0.026451  -0.013767     3.39967e-01     7.62883e-02
     14019      14028      1  -0.014653  -0.023177     3.39967e-01     7.62883e-02
     14016      14025      1  -0.021025  -0.003655     3.39967e-01     7.62883e-02
     14013      14022      1  -0.031787  -0.022042     3.39967e-01     7.62883e-02
     14010      14019      1  -0.028094  -0.012211     3.39967e-01     7.62883e-02
     14007      14016      1   0.017463  -0.017521     3.39967e-01     7.62883e-02
     14004      14013      1  -0.111712  -0.026489     3.39967e-01     7.62883e-02
     14080      14086      1  -0.164200   0.164116     3.39967e-01     2.28865e-01
     14077      14084      1  -0.002435  -0.559638     3.17980e-01     3.17088e-01
     14077      14085      1  -0.002435  -0.479574     3.19984e-01     2.85295e-01
     14074      14083      1  -0.026954   0.758669     3.39967e-01     2.02918e-01
     14071      14080      1  -0.016521  -0.136833     3.39967e-01     7.62883e-02
     14068      14077      1  -0.027812  -0.002029     3.39967e-01     7.62883e-02
     14065      14074      1  -0.004386  -0.022462     3.39967e-01     7.62883e-02
     14062      14071      1  -0.026451  -0.013767     3.39967e-01     7.62883e-02
     14059      14068      1  -0.014653  -0.023177     3.39967e-01     7.62883e-02
     14056      14065      1  -0.021025  -0.003655     3.39967e-01     7.62883e-02
     14053      14062      1  -0.031787  -0.022042     3.39967e-01     7.62883e-02
     14050      14059      1  -0.028094  -0.012211     3.39967e-01     7.62883e-02
     14047      14056      1   0.017463  -0.017521     3.39967e-01     7.62883e-02
     14044      14053      1  -0.111712  -0.026489     3.39967e-01     7.62883e-02
     14120      14155      1  -0.673755  -0.002029     3.17980e-01     3.17088e-01
     14119      14152      1   0.897613  -0.022462     3.39967e-01     2.02918e-01
     14118      14155      1  -0.552948  -0.002029     3.19984e-01     2.85295e-01
     14097      14116      1   0.166801  -0.729843     3.17980e-01     3.17088e-01
     14097      14117      1   0.166801  -0.729843     3.17980e-01     3.17088e-01
     14097      14104      1   0.166801  -0.282478     3.39967e-01     2.28865e-01
     14097      14108      1   0.166801  -0.282478     3.39967e-01     2.28865e-01
     14097      14112      1   0.166801  -0.282478     3.39967e-01     2.28865e-01
     14096      14103      1  -0.508176   0.204385     3.12501e-01     3.55640e-01
     14095      14100      1   1.339721  -0.142353     3.57072e-01     3.09446e-01
     14094      14118      1  -0.509480  -0.460790     3.00001e-01     3.55640e-01
     14094      14097      1  -0.509480   0.139001     3.19984e-01     2.85295e-01
     14091      14119      1   0.017459   0.748011     3.39967e-01     2.02918e-01
     14091      14096      1   0.017459  -0.423480     3.19984e-01     2.85295e-01
     14091      14116      1   0.017459  -0.729843     3.17980e-01     3.17088e-01
     14091      14117      1   0.017459  -0.729843     3.17980e-01     3.17088e-01
     14089      14095      1   0.281242   1.116434     3.57072e-01     3.09446e-01
     14089      14120      1   0.281242  -0.561462     3.17980e-01     3.17088e-01
     14089      14158      1   0.281242  -0.136833     3.39967e-01     2.28865e-01
     14086      14094      1   0.196939  -0.424567     3.19984e-01     2.85295e-01
     14086      14119      1   0.196939   0.748011     3.39967e-01     2.02918e-01
     14085      14091      1  -0.575489   0.014549     3.19984e-01     2.85295e-01
     14085      14118      1  -0.575489  -0.460790     3.00001e-01     3.55640e-01
     14084      14086      1  -0.671566   0.164116     3.17980e-01     3.17088e-01
     14083      14089      1   0.910403   0.234368     3.39967e-01     2.02918e-01
     14149      14158      1  -0.016521  -0.136833     3.39967e-01     7.62883e-02
     14146      14155      1  -0.027812  -0.002029     3.39967e-01     7.62883e-02
     14143      14152      1  -0.004386  -0.022462     3.39967e-01     7.62883e-02
     14140      14149      1  -0.026451  -0.013767     3.39967e-01     7.62883e-02
     14137      14146      1  -0.014653  -0.023177     3.39967e-01     7.62883e-02
     14134      14143      1  -0.021025  -0.003655     3.39967e-01     7.62883e-02
     14131      14140      1  -0.031787  -0.022042     3.39967e-01     7.62883e-02
     14128      14137      1  -0.028094  -0.012211     3.39967e-01     7.62883e-02
     14125      14134      1   0.017463  -0.017521     3.39967e-01     7.62883e-02
     14122      14131      1  -0.111712  -0.026489     3.39967e-01     7.62883e-02
     14198      14204      1  -0.164200   0.164116     3.39967e-01     2.28865e-01
     14195      14202      1  -0.002435  -0.559638     3.17980e-01     3.17088e-01
     14195      14203      1  -0.002435  -0.479574     3.19984e-01     2.85295e-01
     14192      14201      1  -0.026954   0.758669     3.39967e-01     2.02918e-01
     14189      14198      1  -0.016521  -0.136833     3.39967e-01     7.62883e-02
     14186      14195      1  -0.027812  -0.002029     3.39967e-01     7.62883e-02
     14183      14192      1  -0.004386  -0.022462     3.39967e-01     7.62883e-02
     14180      14189      1  -0.026451  -0.013767     3.39967e-01     7.62883e-02
     14177      14186      1  -0.014653  -0.023177     3.39967e-01     7.62883e-02
     14174      14183      1  -0.021025  -0.003655     3.39967e-01     7.62883e-02
     14171      14180      1  -0.031787  -0.022042     3.39967e-01     7.62883e-02
     14168      14177      1  -0.028094  -0.012211     3.39967e-01     7.62883e-02
     14165      14174      1   0.017463  -0.017521     3.39967e-01     7.62883e-02
     14162      14171      1  -0.111712  -0.026489     3.39967e-01     7.62883e-02
     14238      14273      1  -0.673755  -0.002029     3.17980e-01     3.17088e-01
     14237      14270      1   0.897613  -0.022462     3.39967e-01     2.02918e-01
     14236      14273      1  -0.552948  -0.002029     3.19984e-01     2.85295e-01
     14215      14234      1   0.166801  -0.729843     3.17980e-01     3.17088e-01
     14215      14235      1   0.166801  -0.729843     3.17980e-01     3.17088e-01
     14215      14222      1   0.166801  -0.282478     3.39967e-01     2.28865e-01
     14215      14226      1   0.166801  -0.282478     3.39967e-01     2.28865e-01
     14215      14230      1   0.166801  -0.282478     3.39967e-01     2.28865e-01
     14214      14221      1  -0.508176   0.204385     3.12501e-01     3.55640e-01
     14213      14218      1   1.339721  -0.142353     3.57072e-01     3.09446e-01
     14212      14236      1  -0.509480  -0.460790     3.00001e-01     3.55640e-01
     14212      14215      1  -0.509480   0.139001     3.19984e-01     2.85295e-01
     14209      14237      1   0.017459   0.748011     3.39967e-01     2.02918e-01
     14209      14214      1   0.017459  -0.423480     3.19984e-01     2.85295e-01
     14209      14234      1   0.017459  -0.729843     3.17980e-01     3.17088e-01
     14209      14235      1   0.017459  -0.729843     3.17980e-01     3.17088e-01
     14207      14213      1   0.281242   1.116434     3.57072e-01     3.09446e-01
     14207      14238      1   0.281242  -0.561462     3.17980e-01     3.17088e-01
     14207      14276      1   0.281242  -0.136833     3.39967e-01     2.28865e-01
     14204      14212      1   0.196939  -0.424567     3.19984e-01     2.85295e-01
     14204      14237      1   0.196939   0.748011     3.39967e-01     2.02918e-01
     14203      14209      1  -0.575489   0.014549     3.19984e-01     2.85295e-01
     14203      14236      1  -0.575489  -0.460790     3.00001e-01     3.55640e-01
     14202      14204      1  -0.671566   0.164116     3.17980e-01     3.17088e-01
     14201      14207      1   0.910403   0.234368     3.39967e-01     2.02918e-01
     14267      14276      1  -0.016521  -0.136833     3.39967e-01     7.62883e-02
     14264      14273      1  -0.027812  -0.002029     3.39967e-01     7.62883e-02
     14261      14270      1  -0.004386  -0.022462     3.39967e-01     7.62883e-02
     14258      14267      1  -0.026451  -0.013767     3.39967e-01     7.62883e-02
     14255      14264      1  -0.014653  -0.023177     3.39967e-01     7.62883e-02
     14252      14261      1  -0.021025  -0.003655     3.39967e-01     7.62883e-02
     14249      14258      1  -0.031787  -0.022042     3.39967e-01     7.62883e-02
     14246      14255      1  -0.028094  -0.012211     3.39967e-01     7.62883e-02
     14243      14252      1   0.017463  -0.017521     3.39967e-01     7.62883e-02
     14240      14249      1  -0.111712  -0.026489     3.39967e-01     7.62883e-02
     14316      14322      1  -0.164200   0.164116     3.39967e-01     2.28865e-01
     14313      14320      1  -0.002435  -0.559638     3.17980e-01     3.17088e-01
     14313      14321      1  -0.002435  -0.479574     3.19984e-01     2.85295e-01
     14310      14319      1  -0.026954   0.758669     3.39967e-01     2.02918e-01
     14307      14316      1  -0.016521  -0.136833     3.39967e-01     7.62883e-02
     14304      14313      1  -0.027812  -0.002029     3.39967e-01     7.62883e-02
     14301      14310      1  -0.004386  -0.022462     3.39967e-01     7.62883e-02
     14298      14307      1  -0.026451  -0.013767     3.39967e-01     7.62883e-02
     14295      14304      1  -0.014653  -0.023177     3.39967e-01     7.62883e-02
     14292      14301      1  -0.021025  -0.003655     3.39967e-01     7.62883e-02
     14289      14298      1  -0.031787  -0.022042     3.39967e-01     7.62883e-02
     14286      14295      1  -0.028094  -0.012211     3.39967e-01     7.62883e-02
     14283      14292      1   0.017463  -0.017521     3.39967e-01     7.62883e-02
     14280      14289      1  -0.111712  -0.026489     3.39967e-01     7.62883e-02
     14356      14391      1  -0.673755  -0.002029     3.17980e-01     3.17088e-01
     14355      14388      1   0.897613  -0.022462     3.39967e-01     2.02918e-01
     14354      14391      1  -0.552948  -0.002029     3.19984e-01     2.85295e-01
     14333      14352      1   0.166801  -0.729843     3.17980e-01     3.17088e-01
     14333      14353      1   0.166801  -0.729843     3.17980e-01     3.17088e-01
     14333      14340      1   0.166801  -0.282478     3.39967e-01     2.28865e-01
     14333      14344      1   0.166801  -0.282478     3.39967e-01     2.28865e-01
     14333      14348      1   0.166801  -0.282478     3.39967e-01     2.28865e-01
     14332      14339      1  -0.508176   0.204385     3.12501e-01     3.55640e-01
     14331      14336      1   1.339721  -0.142353     3.57072e-01     3.09446e-01
     14330      14354      1  -0.509480  -0.460790     3.00001e-01     3.55640e-01
     14330      14333      1  -0.509480   0.139001     3.19984e-01     2.85295e-01
     14327      14355      1   0.017459   0.748011     3.39967e-01     2.02918e-01
     14327      14332      1   0.017459  -0.423480     3.19984e-01     2.85295e-01
     14327      14352      1   0.017459  -0.729843     3.17980e-01     3.17088e-01
     14327      14353      1   0.017459  -0.729843     3.17980e-01     3.17088e-01
     14325      14331      1   0.281242   1.116434     3.57072e-01     3.09446e-01
     14325      14356      1   0.281242  -0.561462     3.17980e-01     3.17088e-01
     14325      14394      1   0.281242  -0.136833     3.39967e-01     2.28865e-01
     14322      14330      1   0.196939  -0.424567     3.19984e-01     2.85295e-01
     14322      14355      1   0.196939   0.748011     3.39967e-01     2.02918e-01
     14321      14327      1  -0.575489   0.014549     3.19984e-01     2.85295e-01
     14321      14354      1  -0.575489  -0.460790     3.00001e-01     3.55640e-01
     14320      14322      1  -0.671566   0.164116     3.17980e-01     3.17088e-01
     14319      14325      1   0.910403   0.234368     3.39967e-01     2.02918e-01
     14385      14394      1  -0.016521  -0.136833     3.39967e-01     7.62883e-02
     14382      14391      1  -0.027812  -0.002029     3.39967e-01     7.62883e-02
     14379      14388      1  -0.004386  -0.022462     3.39967e-01     7.62883e-02
     14376      14385      1  -0.026451  -0.013767     3.39967e-01     7.62883e-02
     14373      14382      1  -0.014653  -0.023177     3.39967e-01     7.62883e-02
     14370      14379      1  -0.021025  -0.003655     3.39967e-01     7.62883e-02
     14367      14376      1  -0.031787  -0.022042     3.39967e-01     7.62883e-02
     14364      14373      1  -0.028094  -0.012211     3.39967e-01     7.62883e-02
     14361      14370      1   0.017463  -0.017521     3.39967e-01     7.62883e-02
     14358      14367      1  -0.111712  -0.026489     3.39967e-01     7.62883e-02
     14434      14440      1  -0.164200   0.164116     3.39967e-01     2.28865e-01
     14431      14438      1  -0.002435  -0.559638     3.17980e-01     3.17088e-01
     14431      14439      1  -0.002435  -0.479574     3.19984e-01     2.85295e-01
     14428      14437      1  -0.026954   0.758669     3.39967e-01     2.02918e-01
     14425      14434      1  -0.016521  -0.136833     3.39967e-01     7.62883e-02
     14422      14431      1  -0.027812  -0.002029     3.39967e-01     7.62883e-02
     14419      14428      1  -0.004386  -0.022462     3.39967e-01     7.62883e-02
     14416      14425      1  -0.026451  -0.013767     3.39967e-01     7.62883e-02
     14413      14422      1  -0.014653  -0.023177     3.39967e-01     7.62883e-02
     14410      14419      1  -0.021025  -0.003655     3.39967e-01     7.62883e-02
     14407      14416      1  -0.031787  -0.022042     3.39967e-01     7.62883e-02
     14404      14413      1  -0.028094  -0.012211     3.39967e-01     7.62883e-02
     14401      14410      1   0.017463  -0.017521     3.39967e-01     7.62883e-02
     14398      14407      1  -0.111712  -0.026489     3.39967e-01     7.62883e-02
     14474      14509      1  -0.673755  -0.002029     3.17980e-01     3.17088e-01
     14473      14506      1   0.897613  -0.022462     3.39967e-01     2.02918e-01
     14472      14509      1  -0.552948  -0.002029     3.19984e-01     2.85295e-01
     14451      14470      1   0.166801  -0.729843     3.17980e-01     3.17088e-01
     14451      14471      1   0.166801  -0.729843     3.17980e-01     3.17088e-01
     14451      14458      1   0.166801  -0.282478     3.39967e-01     2.28865e-01
     14451      14462      1   0.166801  -0.282478     3.39967e-01     2.28865e-01
     14451      14466      1   0.166801  -0.282478     3.39967e-01     2.28865e-01
     14450      14457      1  -0.508176   0.204385     3.12501e-01     3.55640e-01
     14449      14454      1   1.339721  -0.142353     3.57072e-01     3.09446e-01
     14448      14472      1  -0.509480  -0.460790     3.00001e-01     3.55640e-01
     14448      14451      1  -0.509480   0.139001     3.19984e-01     2.85295e-01
     14445      14473      1   0.017459   0.748011     3.39967e-01     2.02918e-01
     14445      14450      1   0.017459  -0.423480     3.19984e-01     2.85295e-01
     14445      14470      1   0.017459  -0.729843     3.17980e-01     3.17088e-01
     14445      14471      1   0.017459  -0.729843     3.17980e-01     3.17088e-01
     14443      14449      1   0.281242   1.116434     3.57072e-01     3.09446e-01
     14443      14474      1   0.281242  -0.561462     3.17980e-01     3.17088e-01
     14443      14512      1   0.281242  -0.136833     3.39967e-01     2.28865e-01
     14440      14448      1   0.196939  -0.424567     3.19984e-01     2.85295e-01
     14440      14473      1   0.196939   0.748011     3.39967e-01     2.02918e-01
     14439      14445      1  -0.575489   0.014549     3.19984e-01     2.85295e-01
     14439      14472      1  -0.575489  -0.460790     3.00001e-01     3.55640e-01
     14438      14440      1  -0.671566   0.164116     3.17980e-01     3.17088e-01
     14437      14443      1   0.910403   0.234368     3.39967e-01     2.02918e-01
     14503      14512      1  -0.016521  -0.136833     3.39967e-01     7.62883e-02
     14500      14509      1  -0.027812  -0.002029     3.39967e-01     7.62883e-02
     14497      14506      1  -0.004386  -0.022462     3.39967e-01     7.62883e-02
     14494      14503      1  -0.026451  -0.013767     3.39967e-01     7.62883e-02
     14491      14500      1  -0.014653  -0.023177     3.39967e-01     7.62883e-02
     14488      14497      1  -0.021025  -0.003655     3.39967e-01     7.62883e-02
     14485      14494      1  -0.031787  -0.022042     3.39967e-01     7.62883e-02
     14482      14491      1  -0.028094  -0.012211     3.39967e-01     7.62883e-02
     14479      14488      1   0.017463  -0.017521     3.39967e-01     7.62883e-02
     14476      14485      1  -0.111712  -0.026489     3.39967e-01     7.62883e-02
     14552      14558      1  -0.164200   0.164116     3.39967e-01     2.28865e-01
     14549      14556      1  -0.002435  -0.559638     3.17980e-01     3.17088e-01
     14549      14557      1  -0.002435  -0.479574     3.19984e-01     2.85295e-01
     14546      14555      1  -0.026954   0.758669     3.39967e-01     2.02918e-01
     14543      14552      1  -0.016521  -0.136833     3.39967e-01     7.62883e-02
     14540      14549      1  -0.027812  -0.002029     3.39967e-01     7.62883e-02
     14537      14546      1  -0.004386  -0.022462     3.39967e-01     7.62883e-02
     14534      14543      1  -0.026451  -0.013767     3.39967e-01     7.62883e-02
     14531      14540      1  -0.014653  -0.023177     3.39967e-01     7.62883e-02
     14528      14537      1  -0.021025  -0.003655     3.39967e-01     7.62883e-02
     14525      14534      1  -0.031787  -0.022042     3.39967e-01     7.62883e-02
     14522      14531      1  -0.028094  -0.012211     3.39967e-01     7.62883e-02
     14519      14528      1   0.017463  -0.017521     3.39967e-01     7.62883e-02
     14516      14525      1  -0.111712  -0.026489     3.39967e-01     7.62883e-02
     14592      14627      1  -0.673755  -0.002029     3.17980e-01     3.17088e-01
     14591      14624      1   0.897613  -0.022462     3.39967e-01     2.02918e-01
     14590      14627      1  -0.552948  -0.002029     3.19984e-01     2.85295e-01
     14569      14588      1   0.166801  -0.729843     3.17980e-01     3.17088e-01
     14569      14589      1   0.166801  -0.729843     3.17980e-01     3.17088e-01
     14569      14576      1   0.166801  -0.282478     3.39967e-01     2.28865e-01
     14569      14580      1   0.166801  -0.282478     3.39967e-01     2.28865e-01
     14569      14584      1   0.166801  -0.282478     3.39967e-01     2.28865e-01
     14568      14575      1  -0.508176   0.204385     3.12501e-01     3.55640e-01
     14567      14572      1   1.339721  -0.142353     3.57072e-01     3.09446e-01
     14566      14590      1  -0.509480  -0.460790     3.00001e-01     3.55640e-01
     14566      14569      1  -0.509480   0.139001     3.19984e-01     2.85295e-01
     14563      14591      1   0.017459   0.748011     3.39967e-01     2.02918e-01
     14563      14568      1   0.017459  -0.423480     3.19984e-01     2.85295e-01
     14563      14588      1   0.017459  -0.729843     3.17980e-01     3.17088e-01
     14563      14589      1   0.017459  -0.729843     3.17980e-01     3.17088e-01
     14561      14567      1   0.281242   1.116434     3.57072e-01     3.09446e-01
     14561      14592      1   0.281242  -0.561462     3.17980e-01     3.17088e-01
     14561      14630      1   0.281242  -0.136833     3.39967e-01     2.28865e-01
     14558      14566      1   0.196939  -0.424567     3.19984e-01     2.85295e-01
     14558      14591      1   0.196939   0.748011     3.39967e-01     2.02918e-01
     14557      14563      1  -0.575489   0.014549     3.19984e-01     2.85295e-01
     14557      14590      1  -0.575489  -0.460790     3.00001e-01     3.55640e-01
     14556      14558      1  -0.671566   0.164116     3.17980e-01     3.17088e-01
     14555      14561      1   0.910403   0.234368     3.39967e-01     2.02918e-01
     14621      14630      1  -0.016521  -0.136833     3.39967e-01     7.62883e-02
     14618      14627      1  -0.027812  -0.002029     3.39967e-01     7.62883e-02
     14615      14624      1  -0.004386  -0.022462     3.39967e-01     7.62883e-02
     14612      14621      1  -0.026451  -0.013767     3.39967e-01     7.62883e-02
     14609      14618      1  -0.014653  -0.023177     3.39967e-01     7.62883e-02
     14606      14615      1  -0.021025  -0.003655     3.39967e-01     7.62883e-02
     14603      14612      1  -0.031787  -0.022042     3.39967e-01     7.62883e-02
     14600      14609      1  -0.028094  -0.012211     3.39967e-01     7.62883e-02
     14597      14606      1   0.017463  -0.017521     3.39967e-01     7.62883e-02
     14594      14603      1  -0.111712  -0.026489     3.39967e-01     7.62883e-02
     14670      14676      1  -0.164200   0.164116     3.39967e-01     2.28865e-01
     14667      14674      1  -0.002435  -0.559638     3.17980e-01     3.17088e-01
     14667      14675      1  -0.002435  -0.479574     3.19984e-01     2.85295e-01
     14664      14673      1  -0.026954   0.758669     3.39967e-01     2.02918e-01
     14661      14670      1  -0.016521  -0.136833     3.39967e-01     7.62883e-02
     14658      14667      1  -0.027812  -0.002029     3.39967e-01     7.62883e-02
     14655      14664      1  -0.004386  -0.022462     3.39967e-01     7.62883e-02
     14652      14661      1  -0.026451  -0.013767     3.39967e-01     7.62883e-02
     14649      14658      1  -0.014653  -0.023177     3.39967e-01     7.62883e-02
     14646      14655      1  -0.021025  -0.003655     3.39967e-01     7.62883e-02
     14643      14652      1  -0.031787  -0.022042     3.39967e-01     7.62883e-02
     14640      14649      1  -0.028094  -0.012211     3.39967e-01     7.62883e-02
     14637      14646      1   0.017463  -0.017521     3.39967e-01     7.62883e-02
     14634      14643      1  -0.111712  -0.026489     3.39967e-01     7.62883e-02
     14710      14745      1  -0.673755  -0.002029     3.17980e-01     3.17088e-01
     14709      14742      1   0.897613  -0.022462     3.39967e-01     2.02918e-01
     14708      14745      1  -0.552948  -0.002029     3.19984e-01     2.85295e-01
     14687      14706      1   0.166801  -0.729843     3.17980e-01     3.17088e-01
     14687      14707      1   0.166801  -0.729843     3.17980e-01     3.17088e-01
     14687      14694      1   0.166801  -0.282478     3.39967e-01     2.28865e-01
     14687      14698      1   0.166801  -0.282478     3.39967e-01     2.28865e-01
     14687      14702      1   0.166801  -0.282478     3.39967e-01     2.28865e-01
     14686      14693      1  -0.508176   0.204385     3.12501e-01     3.55640e-01
     14685      14690      1   1.339721  -0.142353     3.57072e-01     3.09446e-01
     14684      14708      1  -0.509480  -0.460790     3.00001e-01     3.55640e-01
     14684      14687      1  -0.509480   0.139001     3.19984e-01     2.85295e-01
     14681      14709      1   0.017459   0.748011     3.39967e-01     2.02918e-01
     14681      14686      1   0.017459  -0.423480     3.19984e-01     2.85295e-01
     14681      14706      1   0.017459  -0.729843     3.17980e-01     3.17088e-01
     14681      14707      1   0.017459  -0.729843     3.17980e-01     3.17088e-01
     14679      14685      1   0.281242   1.116434     3.57072e-01     3.09446e-01
     14679      14710      1   0.281242  -0.561462     3.17980e-01     3.17088e-01
     14679      14748      1   0.281242  -0.136833     3.39967e-01     2.28865e-01
     14676      14684      1   0.196939  -0.424567     3.19984e-01     2.85295e-01
     14676      14709      1   0.196939   0.748011     3.39967e-01     2.02918e-01
     14675      14681      1  -0.575489   0.014549     3.19984e-01     2.85295e-01
     14675      14708      1  -0.575489  -0.460790     3.00001e-01     3.55640e-01
     14674      14676      1  -0.671566   0.164116     3.17980e-01     3.17088e-01
     14673      14679      1   0.910403   0.234368     3.39967e-01     2.02918e-01
     14739      14748      1  -0.016521  -0.136833     3.39967e-01     7.62883e-02
     14736      14745      1  -0.027812  -0.002029     3.39967e-01     7.62883e-02
     14733      14742      1  -0.004386  -0.022462     3.39967e-01     7.62883e-02
     14730      14739      1  -0.026451  -0.013767     3.39967e-01     7.62883e-02
     14727      14736      1  -0.014653  -0.023177     3.39967e-01     7.62883e-02
     14724      14733      1  -0.021025  -0.003655     3.39967e-01     7.62883e-02
     14721      14730      1  -0.031787  -0.022042     3.39967e-01     7.62883e-02
     14718      14727      1  -0.028094  -0.012211     3.39967e-01     7.62883e-02
     14715      14724      1   0.017463  -0.017521     3.39967e-01     7.62883e-02
     14712      14721      1  -0.111712  -0.026489     3.39967e-01     7.62883e-02
     14788      14794      1  -0.164200   0.164116     3.39967e-01     2.28865e-01
     14785      14792      1  -0.002435  -0.559638     3.17980e-01     3.17088e-01
     14785      14793      1  -0.002435  -0.479574     3.19984e-01     2.85295e-01
     14782      14791      1  -0.026954   0.758669     3.39967e-01     2.02918e-01
     14779      14788      1  -0.016521  -0.136833     3.39967e-01     7.62883e-02
     14776      14785      1  -0.027812  -0.002029     3.39967e-01     7.62883e-02
     14773      14782      1  -0.004386  -0.022462     3.39967e-01     7.62883e-02
     14770      14779      1  -0.026451  -0.013767     3.39967e-01     7.62883e-02
     14767      14776      1  -0.014653  -0.023177     3.39967e-01     7.62883e-02
     14764      14773      1  -0.021025  -0.003655     3.39967e-01     7.62883e-02
     14761      14770      1  -0.031787  -0.022042     3.39967e-01     7.62883e-02
     14758      14767      1  -0.028094  -0.012211     3.39967e-01     7.62883e-02
     14755      14764      1   0.017463  -0.017521     3.39967e-01     7.62883e-02
     14752      14761      1  -0.111712  -0.026489     3.39967e-01     7.62883e-02
     14828      14863      1  -0.673755  -0.002029     3.17980e-01     3.17088e-01
     14827      14860      1   0.897613  -0.022462     3.39967e-01     2.02918e-01
     14826      14863      1  -0.552948  -0.002029     3.19984e-01     2.85295e-01
     14805      14824      1   0.166801  -0.729843     3.17980e-01     3.17088e-01
     14805      14825      1   0.166801  -0.729843     3.17980e-01     3.17088e-01
     14805      14812      1   0.166801  -0.282478     3.39967e-01     2.28865e-01
     14805      14816      1   0.166801  -0.282478     3.39967e-01     2.28865e-01
     14805      14820      1   0.166801  -0.282478     3.39967e-01     2.28865e-01
     14804      14811      1  -0.508176   0.204385     3.12501e-01     3.55640e-01
     14803      14808      1   1.339721  -0.142353     3.57072e-01     3.09446e-01
     14802      14826      1  -0.509480  -0.460790     3.00001e-01     3.55640e-01
     14802      14805      1  -0.509480   0.139001     3.19984e-01     2.85295e-01
     14799      14827      1   0.017459   0.748011     3.39967e-01     2.02918e-01
     14799      14804      1   0.017459  -0.423480     3.19984e-01     2.85295e-01
     14799      14824      1   0.017459  -0.729843     3.17980e-01     3.17088e-01
     14799      14825      1   0.017459  -0.729843     3.17980e-01     3.17088e-01
     14797      14803      1   0.281242   1.116434     3.57072e-01     3.09446e-01
     14797      14828      1   0.281242  -0.561462     3.17980e-01     3.17088e-01
     14797      14866      1   0.281242  -0.136833     3.39967e-01     2.28865e-01
     14794      14802      1   0.196939  -0.424567     3.19984e-01     2.85295e-01
     14794      14827      1   0.196939   0.748011     3.39967e-01     2.02918e-01
     14793      14799      1  -0.575489   0.014549     3.19984e-01     2.85295e-01
     14793      14826      1  -0.575489  -0.460790     3.00001e-01     3.55640e-01
     14792      14794      1  -0.671566   0.164116     3.17980e-01     3.17088e-01
     14791      14797      1   0.910403   0.234368     3.39967e-01     2.02918e-01
     14857      14866      1  -0.016521  -0.136833     3.39967e-01     7.62883e-02
     14854      14863      1  -0.027812  -0.002029     3.39967e-01     7.62883e-02
     14851      14860      1  -0.004386  -0.022462     3.39967e-01     7.62883e-02
     14848      14857      1  -0.026451  -0.013767     3.39967e-01     7.62883e-02
     14845      14854      1  -0.014653  -0.023177     3.39967e-01     7.62883e-02
     14842      14851      1  -0.021025  -0.003655     3.39967e-01     7.62883e-02
     14839      14848      1  -0.031787  -0.022042     3.39967e-01     7.62883e-02
     14836      14845      1  -0.028094  -0.012211     3.39967e-01     7.62883e-02
     14833      14842      1   0.017463  -0.017521     3.39967e-01     7.62883e-02
     14830      14839      1  -0.111712  -0.026489     3.39967e-01     7.62883e-02
     14906      14912      1  -0.164200   0.164116     3.39967e-01     2.28865e-01
     14903      14910      1  -0.002435  -0.559638     3.17980e-01     3.17088e-01
     14903      14911      1  -0.002435  -0.479574     3.19984e-01     2.85295e-01
     14900      14909      1  -0.026954   0.758669     3.39967e-01     2.02918e-01
     14897      14906      1  -0.016521  -0.136833     3.39967e-01     7.62883e-02
     14894      14903      1  -0.027812  -0.002029     3.39967e-01     7.62883e-02
     14891      14900      1  -0.004386  -0.022462     3.39967e-01     7.62883e-02
     14888      14897      1  -0.026451  -0.013767     3.39967e-01     7.62883e-02
     14885      14894      1  -0.014653  -0.023177     3.39967e-01     7.62883e-02
     14882      14891      1  -0.021025  -0.003655     3.39967e-01     7.62883e-02
     14879      14888      1  -0.031787  -0.022042     3.39967e-01     7.62883e-02
     14876      14885      1  -0.028094  -0.012211     3.39967e-01     7.62883e-02
     14873      14882      1   0.017463  -0.017521     3.39967e-01     7.62883e-02
     14870      14879      1  -0.111712  -0.026489     3.39967e-01     7.62883e-02
     14946      14981      1  -0.673755  -0.002029     3.17980e-01     3.17088e-01
     14945      14978      1   0.897613  -0.022462     3.39967e-01     2.02918e-01
     14944      14981      1  -0.552948  -0.002029     3.19984e-01     2.85295e-01
     14923      14942      1   0.166801  -0.729843     3.17980e-01     3.17088e-01
     14923      14943      1   0.166801  -0.729843     3.17980e-01     3.17088e-01
     14923      14930      1   0.166801  -0.282478     3.39967e-01     2.28865e-01
     14923      14934      1   0.166801  -0.282478     3.39967e-01     2.28865e-01
     14923      14938      1   0.166801  -0.282478     3.39967e-01     2.28865e-01
     14922      14929      1  -0.508176   0.204385     3.12501e-01     3.55640e-01
     14921      14926      1   1.339721  -0.142353     3.57072e-01     3.09446e-01
     14920      14944      1  -0.509480  -0.460790     3.00001e-01     3.55640e-01
     14920      14923      1  -0.509480   0.139001     3.19984e-01     2.85295e-01
     14917      14945      1   0.017459   0.748011     3.39967e-01     2.02918e-01
     14917      14922      1   0.017459  -0.423480     3.19984e-01     2.85295e-01
     14917      14942      1   0.017459  -0.729843     3.17980e-01     3.17088e-01
     14917      14943      1   0.017459  -0.729843     3.17980e-01     3.17088e-01
     14915      14921      1   0.281242   1.116434     3.57072e-01     3.09446e-01
     14915      14946      1   0.281242  -0.561462     3.17980e-01     3.17088e-01
     14915      14984      1   0.281242  -0.136833     3.39967e-01     2.28865e-01
     14912      14920      1   0.196939  -0.424567     3.19984e-01     2.85295e-01
     14912      14945      1   0.196939   0.748011     3.39967e-01     2.02918e-01
     14911      14917      1  -0.575489   0.014549     3.19984e-01     2.85295e-01
     14911      14944      1  -0.575489  -0.460790     3.00001e-01     3.55640e-01
     14910      14912      1  -0.671566   0.164116     3.17980e-01     3.17088e-01
     14909      14915      1   0.910403   0.234368     3.39967e-01     2.02918e-01
     14975      14984      1  -0.016521  -0.136833     3.39967e-01     7.62883e-02
     14972      14981      1  -0.027812  -0.002029     3.39967e-01     7.62883e-02
     14969      14978      1  -0.004386  -0.022462     3.39967e-01     7.62883e-02
     14966      14975      1  -0.026451  -0.013767     3.39967e-01     7.62883e-02
     14963      14972      1  -0.014653  -0.023177     3.39967e-01     7.62883e-02
     14960      14969      1  -0.021025  -0.003655     3.39967e-01     7.62883e-02
     14957      14966      1  -0.031787  -0.022042     3.39967e-01     7.62883e-02
     14954      14963      1  -0.028094  -0.012211     3.39967e-01     7.62883e-02
     14951      14960      1   0.017463  -0.017521     3.39967e-01     7.62883e-02
     14948      14957      1  -0.111712  -0.026489     3.39967e-01     7.62883e-02
     15024      15030      1  -0.164200   0.164116     3.39967e-01     2.28865e-01
     15021      15028      1  -0.002435  -0.559638     3.17980e-01     3.17088e-01
     15021      15029      1  -0.002435  -0.479574     3.19984e-01     2.85295e-01
     15018      15027      1  -0.026954   0.758669     3.39967e-01     2.02918e-01
     15015      15024      1  -0.016521  -0.136833     3.39967e-01     7.62883e-02
     15012      15021      1  -0.027812  -0.002029     3.39967e-01     7.62883e-02
     15009      15018      1  -0.004386  -0.022462     3.39967e-01     7.62883e-02
     15006      15015      1  -0.026451  -0.013767     3.39967e-01     7.62883e-02
     15003      15012      1  -0.014653  -0.023177     3.39967e-01     7.62883e-02
     15000      15009      1  -0.021025  -0.003655     3.39967e-01     7.62883e-02
     14997      15006      1  -0.031787  -0.022042     3.39967e-01     7.62883e-02
     14994      15003      1  -0.028094  -0.012211     3.39967e-01     7.62883e-02
     14991      15000      1   0.017463  -0.017521     3.39967e-01     7.62883e-02
     14988      14997      1  -0.111712  -0.026489     3.39967e-01     7.62883e-02
     15064      15099      1  -0.673755  -0.002029     3.17980e-01     3.17088e-01
     15063      15096      1   0.897613  -0.022462     3.39967e-01     2.02918e-01
     15062      15099      1  -0.552948  -0.002029     3.19984e-01     2.85295e-01
     15041      15060      1   0.166801  -0.729843     3.17980e-01     3.17088e-01
     15041      15061      1   0.166801  -0.729843     3.17980e-01     3.17088e-01
     15041      15048      1   0.166801  -0.282478     3.39967e-01     2.28865e-01
     15041      15052      1   0.166801  -0.282478     3.39967e-01     2.28865e-01
     15041      15056      1   0.166801  -0.282478     3.39967e-01     2.28865e-01
     15040      15047      1  -0.508176   0.204385     3.12501e-01     3.55640e-01
     15039      15044      1   1.339721  -0.142353     3.57072e-01     3.09446e-01
     15038      15062      1  -0.509480  -0.460790     3.00001e-01     3.55640e-01
     15038      15041      1  -0.509480   0.139001     3.19984e-01     2.85295e-01
     15035      15063      1   0.017459   0.748011     3.39967e-01     2.02918e-01
     15035      15040      1   0.017459  -0.423480     3.19984e-01     2.85295e-01
     15035      15060      1   0.017459  -0.729843     3.17980e-01     3.17088e-01
     15035      15061      1   0.017459  -0.729843     3.17980e-01     3.17088e-01
     15033      15039      1   0.281242   1.116434     3.57072e-01     3.09446e-01
     15033      15064      1   0.281242  -0.561462     3.17980e-01     3.17088e-01
     15033      15102      1   0.281242  -0.136833     3.39967e-01     2.28865e-01
     15030      15038      1   0.196939  -0.424567     3.19984e-01     2.85295e-01
     15030      15063      1   0.196939   0.748011     3.39967e-01     2.02918e-01
     15029      15035      1  -0.575489   0.014549     3.19984e-01     2.85295e-01
     15029      15062      1  -0.575489  -0.460790     3.00001e-01     3.55640e-01
     15028      15030      1  -0.671566   0.164116     3.17980e-01     3.17088e-01
     15027      15033      1   0.910403   0.234368     3.39967e-01     2.02918e-01
     15093      15102      1  -0.016521  -0.136833     3.39967e-01     7.62883e-02
     15090      15099      1  -0.027812  -0.002029     3.39967e-01     7.62883e-02
     15087      15096      1  -0.004386  -0.022462     3.39967e-01     7.62883e-02
     15084      15093      1  -0.026451  -0.013767     3.39967e-01     7.62883e-02
     15081      15090      1  -0.014653  -0.023177     3.39967e-01     7.62883e-02
     15078      15087      1  -0.021025  -0.003655     3.39967e-01     7.62883e-02
     15075      15084      1  -0.031787  -0.022042     3.39967e-01     7.62883e-02
     15072      15081      1  -0.028094  -0.012211     3.39967e-01     7.62883e-02
     15069      15078      1   0.017463  -0.017521     3.39967e-01     7.62883e-02
     15066      15075      1  -0.111712  -0.026489     3.39967e-01     7.62883e-02

[ angles ]
;   ai     aj     ak    funct   theta         cth
     1      2      3      1    1.0835e+02    3.2995e+02 ;   H14T - C114   - H14R  
     1      2      4      1    1.0835e+02    3.2995e+02 ;   H14T - C114   - H14S  
     1      2      5      1    1.1005e+02    3.8802e+02 ;   H14T - C114   - C113  
     2      5      6      1    1.1005e+02    3.8802e+02 ;   C114 - C113   - H13R  
     2      5      7      1    1.1005e+02    3.8802e+02 ;   C114 - C113   - H13S  
     2      5      8      1    1.1205e+02    3.9497e+02 ;   C114 - C113   - C112  
     3      2      4      1    1.0835e+02    3.2995e+02 ;   H14R - C114   - H14S  
     3      2      5      1    1.1005e+02    3.8802e+02 ;   H14R - C114   - C113  
     4      2      5      1    1.1005e+02    3.8802e+02 ;   H14S - C114   - C113  
     5      8      9      1    1.1005e+02    3.8802e+02 ;   C113 - C112   - H12R  
     5      8     10      1    1.1005e+02    3.8802e+02 ;   C113 - C112   - H12S  
     5      8     11      1    1.1205e+02    3.9497e+02 ;   C113 - C112   - C111  
     6      5      7      1    1.0835e+02    3.2995e+02 ;   H13R - C113   - H13S  
     6      5      8      1    1.1005e+02    3.8802e+02 ;   H13R - C113   - C112  
     7      5      8      1    1.1005e+02    3.8802e+02 ;   H13S - C113   - C112  
     8     11     12      1    1.1005e+02    3.8802e+02 ;   C112 - C111   - H11R  
     8     11     13      1    1.1005e+02    3.8802e+02 ;   C112 - C111   - H11S  
     8     11     14      1    1.1205e+02    3.9497e+02 ;   C112 - C111   - C110  
     9      8     10      1    1.0835e+02    3.2995e+02 ;   H12R - C112   - H12S  
     9      8     11      1    1.1005e+02    3.8802e+02 ;   H12R - C112   - C111  
    10      8     11      1    1.1005e+02    3.8802e+02 ;   H12S - C112   - C111  
    11     14     15      1    1.1005e+02    3.8802e+02 ;   C111 - C110   - H10R  
    11     14     16      1    1.1005e+02    3.8802e+02 ;   C111 - C110   - H10S  
    11     14     17      1    1.1205e+02    3.9497e+02 ;   C111 - C110   - C19   
    12     11     13      1    1.0835e+02    3.2995e+02 ;   H11R - C111   - H11S  
    12     11     14      1    1.1005e+02    3.8802e+02 ;   H11R - C111   - C110  
    13     11     14      1    1.1005e+02    3.8802e+02 ;   H11S - C111   - C110  
    14     17     18      1    1.1005e+02    3.8802e+02 ;   C110 - C19    - H9R   
    14     17     19      1    1.1005e+02    3.8802e+02 ;   C110 - C19    - H9S   
    14     17     20      1    1.1205e+02    3.9497e+02 ;   C110 - C19    - C18   
    15     14     16      1    1.0835e+02    3.2995e+02 ;   H10R - C110   - H10S  
    15     14     17      1    1.1005e+02    3.8802e+02 ;   H10R - C110   - C19   
    16     14     17      1    1.1005e+02    3.8802e+02 ;   H10S - C110   - C19   
    17     20     21      1    1.1005e+02    3.8802e+02 ;    C19 - C18    - H8R   
    17     20     22      1    1.1005e+02    3.8802e+02 ;    C19 - C18    - H8S   
    17     20     23      1    1.1205e+02    3.9497e+02 ;    C19 - C18    - C17   
    18     17     19      1    1.0835e+02    3.2995e+02 ;    H9R - C19    - H9S   
    18     17     20      1    1.1005e+02    3.8802e+02 ;    H9R - C19    - C18   
    19     17     20      1    1.1005e+02    3.8802e+02 ;    H9S - C19    - C18   
    20     23     24      1    1.1005e+02    3.8802e+02 ;    C18 - C17    - H7R   
    20     23     25      1    1.1005e+02    3.8802e+02 ;    C18 - C17    - H7S   
    20     23     26      1    1.1205e+02    3.9497e+02 ;    C18 - C17    - C16   
    21     20     22      1    1.0835e+02    3.2995e+02 ;    H8R - C18    - H8S   
    21     20     23      1    1.1005e+02    3.8802e+02 ;    H8R - C18    - C17   
    22     20     23      1    1.1005e+02    3.8802e+02 ;    H8S - C18    - C17   
    23     26     27      1    1.1005e+02    3.8802e+02 ;    C17 - C16    - H6R   
    23     26     28      1    1.1005e+02    3.8802e+02 ;    C17 - C16    - H6S   
    23     26     29      1    1.1205e+02    3.9497e+02 ;    C17 - C16    - C15   
    24     23     25      1    1.0835e+02    3.2995e+02 ;    H7R - C17    - H7S   
    24     23     26      1    1.1005e+02    3.8802e+02 ;    H7R - C17    - C16   
    25     23     26      1    1.1005e+02    3.8802e+02 ;    H7S - C17    - C16   
    26     29     30      1    1.1005e+02    3.8802e+02 ;    C16 - C15    - H5R   
    26     29     31      1    1.1005e+02    3.8802e+02 ;    C16 - C15    - H5S   
    26     29     32      1    1.1205e+02    3.9497e+02 ;    C16 - C15    - C14   
    27     26     28      1    1.0835e+02    3.2995e+02 ;    H6R - C16    - H6S   
    27     26     29      1    1.1005e+02    3.8802e+02 ;    H6R - C16    - C15   
    28     26     29      1    1.1005e+02    3.8802e+02 ;    H6S - C16    - C15   
    29     32     33      1    1.1005e+02    3.8802e+02 ;    C15 - C14    - H4R   
    29     32     34      1    1.1005e+02    3.8802e+02 ;    C15 - C14    - H4S   
    29     32     35      1    1.1205e+02    3.9497e+02 ;    C15 - C14    - C13   
    30     29     31      1    1.0835e+02    3.2995e+02 ;    H5R - C15    - H5S   
    30     29     32      1    1.1005e+02    3.8802e+02 ;    H5R - C15    - C14   
    31     29     32      1    1.1005e+02    3.8802e+02 ;    H5S - C15    - C14   
    32     35     36      1    1.1005e+02    3.8802e+02 ;    C14 - C13    - H3R   
    32     35     37      1    1.1005e+02    3.8802e+02 ;    C14 - C13    - H3S   
    32     35     38      1    1.1205e+02    3.9497e+02 ;    C14 - C13    - C12   
    33     32     34      1    1.0835e+02    3.2995e+02 ;    H4R - C14    - H4S   
    33     32     35      1    1.1005e+02    3.8802e+02 ;    H4R - C14    - C13   
    34     32     35      1    1.1005e+02    3.8802e+02 ;    H4S - C14    - C13   
    35     38     39      1    1.1005e+02    3.8802e+02 ;    C13 - C12    - H2R   
    35     38     40      1    1.1005e+02    3.8802e+02 ;    C13 - C12    - H2S   
    35     38     41      1    1.1053e+02    5.3379e+02 ;    C13 - C12    - C11   
    36     35     37      1    1.0835e+02    3.2995e+02 ;    H3R - C13    - H3S   
    36     35     38      1    1.1005e+02    3.8802e+02 ;    H3R - C13    - C12   
    37     35     38      1    1.1005e+02    3.8802e+02 ;    H3S - C13    - C12   
    38     41     42      1    1.2311e+02    5.6928e+02 ;    C12 - C11    - O12   
    38     41     43      1    1.1196e+02    5.7957e+02 ;    C12 - C11    - O11   
    39     38     40      1    1.0835e+02    3.2995e+02 ;    H2R - C12    - H2S   
    39     38     41      1    1.0968e+02    3.9497e+02 ;    H2R - C12    - C11   
    40     38     41      1    1.0968e+02    3.9497e+02 ;    H2S - C12    - C11   
    41     43     44      1    1.1514e+02    5.3246e+02 ;    C11 - O11    - C1    
    42     41     43      1    1.2333e+02    6.3538e+02 ;    O12 - C11    - O11   
    43     44     45      1    1.0882e+02    4.2543e+02 ;    O11 - C1     - HR    
    43     44     46      1    1.0882e+02    4.2543e+02 ;    O11 - C1     - HS    
    43     44     47      1    1.0842e+02    5.6718e+02 ;    O11 - C1     - C2    
    44     47     48      1    1.1007e+02    3.8794e+02 ;     C1 - C2     - HX    
    44     47     49      1    1.1063e+02    5.2894e+02 ;     C1 - C2     - C3    
    44     47     76      1    1.0842e+02    5.6718e+02 ;     C1 - C2     - O21   
    45     44     46      1    1.0955e+02    3.2786e+02 ;     HR - C1     - HS    
    45     44     47      1    1.1007e+02    3.8794e+02 ;     HR - C1     - C2    
    46     44     47      1    1.1007e+02    3.8794e+02 ;     HS - C1     - C2    
    47     49     50      1    1.1007e+02    3.8794e+02 ;     C2 - C3     - HA    
    47     49     51      1    1.1007e+02    3.8794e+02 ;     C2 - C3     - HB    
    47     49     52      1    1.0842e+02    5.6718e+02 ;     C2 - C3     - O31   
    47     76     77      1    1.1514e+02    5.3246e+02 ;     C2 - O21    - C21   
    48     47     49      1    1.1007e+02    3.8794e+02 ;     HX - C2     - C3    
    48     47     76      1    1.0882e+02    4.2543e+02 ;     HX - C2     - O21   
    49     47     76      1    1.0842e+02    5.6718e+02 ;     C3 - C2     - O21   
    49     52     53      1    1.2050e+02    8.3680e+02 ;     C3 - O31    - P31   
    50     49     51      1    1.0955e+02    3.2786e+02 ;     HA - C3     - HB    
    50     49     52      1    1.0882e+02    4.2543e+02 ;     HA - C3     - O31   
    51     49     52      1    1.0882e+02    4.2543e+02 ;     HB - C3     - O31   
    52     53     54      1    1.0260e+02    7.5312e+02 ;    O31 - P31    - O32   
    52     53     74      1    1.0823e+02    8.3680e+02 ;    O31 - P31    - O33   
    52     53     75      1    1.0823e+02    8.3680e+02 ;    O31 - P31    - O34   
    53     54     55      1    1.2050e+02    8.3680e+02 ;    P31 - O32    - C31   
    54     53     74      1    1.0823e+02    8.3680e+02 ;    O32 - P31    - O33   
    54     53     75      1    1.0823e+02    8.3680e+02 ;    O32 - P31    - O34   
    54     55     56      1    1.0882e+02    4.2543e+02 ;    O32 - C31    - H1A   
    54     55     57      1    1.0882e+02    4.2543e+02 ;    O32 - C31    - H1B   
    54     55     58      1    1.0842e+02    5.6718e+02 ;    O32 - C31    - C32   
    55     58     59      1    1.1174e+02    3.8510e+02 ;    C31 - C32    - H2A   
    55     58     60      1    1.1174e+02    3.8510e+02 ;    C31 - C32    - H2B   
    55     58     61      1    1.1432e+02    5.3932e+02 ;    C31 - C32    - N31   
    56     55     57      1    1.0955e+02    3.2786e+02 ;    H1A - C31    - H1B   
    56     55     58      1    1.1007e+02    3.8794e+02 ;    H1A - C31    - C32   
    57     55     58      1    1.1007e+02    3.8794e+02 ;    H1B - C31    - C32   
    58     61     62      1    1.1064e+02    5.2585e+02 ;    C32 - N31    - C33   
    58     61     66      1    1.1064e+02    5.2585e+02 ;    C32 - N31    - C34   
    58     61     70      1    1.1064e+02    5.2585e+02 ;    C32 - N31    - C35   
    59     58     60      1    1.1074e+02    3.2669e+02 ;    H2A - C32    - H2B   
    59     58     61      1    1.0791e+02    4.1020e+02 ;    H2A - C32    - N31   
    60     58     61      1    1.0791e+02    4.1020e+02 ;    H2B - C32    - N31   
    61     62     63      1    1.0791e+02    4.1020e+02 ;    N31 - C33    - H3A   
    61     62     64      1    1.0791e+02    4.1020e+02 ;    N31 - C33    - H3B   
    61     62     65      1    1.0791e+02    4.1020e+02 ;    N31 - C33    - H3C   
    61     66     67      1    1.0791e+02    4.1020e+02 ;    N31 - C34    - H4A   
    61     66     68      1    1.0791e+02    4.1020e+02 ;    N31 - C34    - H4B   
    61     66     69      1    1.0791e+02    4.1020e+02 ;    N31 - C34    - H4C   
    61     70     71      1    1.0791e+02    4.1020e+02 ;    N31 - C35    - H5A   
    61     70     72      1    1.0791e+02    4.1020e+02 ;    N31 - C35    - H5B   
    61     70     73      1    1.0791e+02    4.1020e+02 ;    N31 - C35    - H5C   
    62     61     66      1    1.1064e+02    5.2585e+02 ;    C33 - N31    - C34   
    62     61     70      1    1.1064e+02    5.2585e+02 ;    C33 - N31    - C35   
    63     62     64      1    1.1074e+02    3.2669e+02 ;    H3A - C33    - H3B   
    63     62     65      1    1.1074e+02    3.2669e+02 ;    H3A - C33    - H3C   
    64     62     65      1    1.1074e+02    3.2669e+02 ;    H3B - C33    - H3C   
    66     61     70      1    1.1064e+02    5.2585e+02 ;    C34 - N31    - C35   
    67     66     68      1    1.1074e+02    3.2669e+02 ;    H4A - C34    - H4B   
    67     66     69      1    1.1074e+02    3.2669e+02 ;    H4A - C34    - H4C   
    68     66     69      1    1.1074e+02    3.2669e+02 ;    H4B - C34    - H4C   
    71     70     72      1    1.1074e+02    3.2669e+02 ;    H5A - C35    - H5B   
    71     70     73      1    1.1074e+02    3.2669e+02 ;    H5A - C35    - H5C   
    72     70     73      1    1.1074e+02    3.2669e+02 ;    H5B - C35    - H5C   
    74     53     75      1    1.1990e+02    1.1715e+03 ;    O33 - P31    - O34   
    76     77     78      1    1.2333e+02    6.3538e+02 ;    O21 - C21    - O22   
    76     77    116      1    1.1196e+02    5.7957e+02 ;    O21 - C21    - C12   
    77    116    113      1    1.1053e+02    5.3379e+02 ;    C21 - C12    - C13   
    77    116    117      1    1.0968e+02    3.9497e+02 ;    C21 - C12    - H2R   
    77    116    118      1    1.0968e+02    3.9497e+02 ;    C21 - C12    - H2S   
    78     77    116      1    1.2311e+02    5.6928e+02 ;    O22 - C21    - C12   
    79     80     81      1    1.0835e+02    3.2995e+02 ;   H14T - C114   - H14R  
    79     80     82      1    1.0835e+02    3.2995e+02 ;   H14T - C114   - H14S  
    79     80     83      1    1.1005e+02    3.8802e+02 ;   H14T - C114   - C113  
    80     83     84      1    1.1005e+02    3.8802e+02 ;   C114 - C113   - H13R  
    80     83     85      1    1.1005e+02    3.8802e+02 ;   C114 - C113   - H13S  
    80     83     86      1    1.1205e+02    3.9497e+02 ;   C114 - C113   - C112  
    81     80     82      1    1.0835e+02    3.2995e+02 ;   H14R - C114   - H14S  
    81     80     83      1    1.1005e+02    3.8802e+02 ;   H14R - C114   - C113  
    82     80     83      1    1.1005e+02    3.8802e+02 ;   H14S - C114   - C113  
    83     86     87      1    1.1005e+02    3.8802e+02 ;   C113 - C112   - H12R  
    83     86     88      1    1.1005e+02    3.8802e+02 ;   C113 - C112   - H12S  
    83     86     89      1    1.1205e+02    3.9497e+02 ;   C113 - C112   - C111  
    84     83     85      1    1.0835e+02    3.2995e+02 ;   H13R - C113   - H13S  
    84     83     86      1    1.1005e+02    3.8802e+02 ;   H13R - C113   - C112  
    85     83     86      1    1.1005e+02    3.8802e+02 ;   H13S - C113   - C112  
    86     89     90      1    1.1005e+02    3.8802e+02 ;   C112 - C111   - H11R  
    86     89     91      1    1.1005e+02    3.8802e+02 ;   C112 - C111   - H11S  
    86     89     92      1    1.1205e+02    3.9497e+02 ;   C112 - C111   - C110  
    87     86     88      1    1.0835e+02    3.2995e+02 ;   H12R - C112   - H12S  
    87     86     89      1    1.1005e+02    3.8802e+02 ;   H12R - C112   - C111  
    88     86     89      1    1.1005e+02    3.8802e+02 ;   H12S - C112   - C111  
    89     92     93      1    1.1005e+02    3.8802e+02 ;   C111 - C110   - H10R  
    89     92     94      1    1.1005e+02    3.8802e+02 ;   C111 - C110   - H10S  
    89     92     95      1    1.1205e+02    3.9497e+02 ;   C111 - C110   - C19   
    90     89     91      1    1.0835e+02    3.2995e+02 ;   H11R - C111   - H11S  
    90     89     92      1    1.1005e+02    3.8802e+02 ;   H11R - C111   - C110  
    91     89     92      1    1.1005e+02    3.8802e+02 ;   H11S - C111   - C110  
    92     95     96      1    1.1005e+02    3.8802e+02 ;   C110 - C19    - H9R   
    92     95     97      1    1.1005e+02    3.8802e+02 ;   C110 - C19    - H9S   
    92     95     98      1    1.1205e+02    3.9497e+02 ;   C110 - C19    - C18   
    93     92     94      1    1.0835e+02    3.2995e+02 ;   H10R - C110   - H10S  
    93     92     95      1    1.1005e+02    3.8802e+02 ;   H10R - C110   - C19   
    94     92     95      1    1.1005e+02    3.8802e+02 ;   H10S - C110   - C19   
    95     98     99      1    1.1005e+02    3.8802e+02 ;    C19 - C18    - H8R   
    95     98    100      1    1.1005e+02    3.8802e+02 ;    C19 - C18    - H8S   
    95     98    101      1    1.1205e+02    3.9497e+02 ;    C19 - C18    - C17   
    96     95     97      1    1.0835e+02    3.2995e+02 ;    H9R - C19    - H9S   
    96     95     98      1    1.1005e+02    3.8802e+02 ;    H9R - C19    - C18   
    97     95     98      1    1.1005e+02    3.8802e+02 ;    H9S - C19    - C18   
    98    101    102      1    1.1005e+02    3.8802e+02 ;    C18 - C17    - H7R   
    98    101    103      1    1.1005e+02    3.8802e+02 ;    C18 - C17    - H7S   
    98    101    104      1    1.1205e+02    3.9497e+02 ;    C18 - C17    - C16   
    99     98    100      1    1.0835e+02    3.2995e+02 ;    H8R - C18    - H8S   
    99     98    101      1    1.1005e+02    3.8802e+02 ;    H8R - C18    - C17   
   100     98    101      1    1.1005e+02    3.8802e+02 ;    H8S - C18    - C17   
   101    104    105      1    1.1005e+02    3.8802e+02 ;    C17 - C16    - H6R   
   101    104    106      1    1.1005e+02    3.8802e+02 ;    C17 - C16    - H6S   
   101    104    107      1    1.1205e+02    3.9497e+02 ;    C17 - C16    - C15   
   102    101    103      1    1.0835e+02    3.2995e+02 ;    H7R - C17    - H7S   
   102    101    104      1    1.1005e+02    3.8802e+02 ;    H7R - C17    - C16   
   103    101    104      1    1.1005e+02    3.8802e+02 ;    H7S - C17    - C16   
   104    107    108      1    1.1005e+02    3.8802e+02 ;    C16 - C15    - H5R   
   104    107    109      1    1.1005e+02    3.8802e+02 ;    C16 - C15    - H5S   
   104    107    110      1    1.1205e+02    3.9497e+02 ;    C16 - C15    - C14   
   105    104    106      1    1.0835e+02    3.2995e+02 ;    H6R - C16    - H6S   
   105    104    107      1    1.1005e+02    3.8802e+02 ;    H6R - C16    - C15   
   106    104    107      1    1.1005e+02    3.8802e+02 ;    H6S - C16    - C15   
   107    110    111      1    1.1005e+02    3.8802e+02 ;    C15 - C14    - H4R   
   107    110    112      1    1.1005e+02    3.8802e+02 ;    C15 - C14    - H4S   
   107    110    113      1    1.1205e+02    3.9497e+02 ;    C15 - C14    - C13   
   108    107    109      1    1.0835e+02    3.2995e+02 ;    H5R - C15    - H5S   
   108    107    110      1    1.1005e+02    3.8802e+02 ;    H5R - C15    - C14   
   109    107    110      1    1.1005e+02    3.8802e+02 ;    H5S - C15    - C14   
   110    113    114      1    1.1005e+02    3.8802e+02 ;    C14 - C13    - H3R   
   110    113    115      1    1.1005e+02    3.8802e+02 ;    C14 - C13    - H3S   
   110    113    116      1    1.1205e+02    3.9497e+02 ;    C14 - C13    - C12   
   111    110    112      1    1.0835e+02    3.2995e+02 ;    H4R - C14    - H4S   
   111    110    113      1    1.1005e+02    3.8802e+02 ;    H4R - C14    - C13   
   112    110    113      1    1.1005e+02    3.8802e+02 ;    H4S - C14    - C13   
   113    116    117      1    1.1005e+02    3.8802e+02 ;    C13 - C12    - H2R   
   113    116    118      1    1.1005e+02    3.8802e+02 ;    C13 - C12    - H2S   
   114    113    115      1    1.0835e+02    3.2995e+02 ;    H3R - C13    - H3S   
   114    113    116      1    1.1005e+02    3.8802e+02 ;    H3R - C13    - C12   
   115    113    116      1    1.1005e+02    3.8802e+02 ;    H3S - C13    - C12   
   117    116    118      1    1.0835e+02    3.2995e+02 ;    H2R - C12    - H2S   
   119    120    121      1    1.0835e+02    3.2995e+02 ;   H14T - C114   - H14R  
   119    120    122      1    1.0835e+02    3.2995e+02 ;   H14T - C114   - H14S  
   119    120    123      1    1.1005e+02    3.8802e+02 ;   H14T - C114   - C113  
   120    123    124      1    1.1005e+02    3.8802e+02 ;   C114 - C113   - H13R  
   120    123    125      1    1.1005e+02    3.8802e+02 ;   C114 - C113   - H13S  
   120    123    126      1    1.1205e+02    3.9497e+02 ;   C114 - C113   - C112  
   121    120    122      1    1.0835e+02    3.2995e+02 ;   H14R - C114   - H14S  
   121    120    123      1    1.1005e+02    3.8802e+02 ;   H14R - C114   - C113  
   122    120    123      1    1.1005e+02    3.8802e+02 ;   H14S - C114   - C113  
   123    126    127      1    1.1005e+02    3.8802e+02 ;   C113 - C112   - H12R  
   123    126    128      1    1.1005e+02    3.8802e+02 ;   C113 - C112   - H12S  
   123    126    129      1    1.1205e+02    3.9497e+02 ;   C113 - C112   - C111  
   124    123    125      1    1.0835e+02    3.2995e+02 ;   H13R - C113   - H13S  
   124    123    126      1    1.1005e+02    3.8802e+02 ;   H13R - C113   - C112  
   125    123    126      1    1.1005e+02    3.8802e+02 ;   H13S - C113   - C112  
   126    129    130      1    1.1005e+02    3.8802e+02 ;   C112 - C111   - H11R  
   126    129    131      1    1.1005e+02    3.8802e+02 ;   C112 - C111   - H11S  
   126    129    132      1    1.1205e+02    3.9497e+02 ;   C112 - C111   - C110  
   127    126    128      1    1.0835e+02    3.2995e+02 ;   H12R - C112   - H12S  
   127    126    129      1    1.1005e+02    3.8802e+02 ;   H12R - C112   - C111  
   128    126    129      1    1.1005e+02    3.8802e+02 ;   H12S - C112   - C111  
   129    132    133      1    1.1005e+02    3.8802e+02 ;   C111 - C110   - H10R  
   129    132    134      1    1.1005e+02    3.8802e+02 ;   C111 - C110   - H10S  
   129    132    135      1    1.1205e+02    3.9497e+02 ;   C111 - C110   - C19   
   130    129    131      1    1.0835e+02    3.2995e+02 ;   H11R - C111   - H11S  
   130    129    132      1    1.1005e+02    3.8802e+02 ;   H11R - C111   - C110  
   131    129    132      1    1.1005e+02    3.8802e+02 ;   H11S - C111   - C110  
   132    135    136      1    1.1005e+02    3.8802e+02 ;   C110 - C19    - H9R   
   132    135    137      1    1.1005e+02    3.8802e+02 ;   C110 - C19    - H9S   
   132    135    138      1    1.1205e+02    3.9497e+02 ;   C110 - C19    - C18   
   133    132    134      1    1.0835e+02    3.2995e+02 ;   H10R - C110   - H10S  
   133    132    135      1    1.1005e+02    3.8802e+02 ;   H10R - C110   - C19   
   134    132    135      1    1.1005e+02    3.8802e+02 ;   H10S - C110   - C19   
   135    138    139      1    1.1005e+02    3.8802e+02 ;    C19 - C18    - H8R   
   135    138    140      1    1.1005e+02    3.8802e+02 ;    C19 - C18    - H8S   
   135    138    141      1    1.1205e+02    3.9497e+02 ;    C19 - C18    - C17   
   136    135    137      1    1.0835e+02    3.2995e+02 ;    H9R - C19    - H9S   
   136    135    138      1    1.1005e+02    3.8802e+02 ;    H9R - C19    - C18   
   137    135    138      1    1.1005e+02    3.8802e+02 ;    H9S - C19    - C18   
   138    141    142      1    1.1005e+02    3.8802e+02 ;    C18 - C17    - H7R   
   138    141    143      1    1.1005e+02    3.8802e+02 ;    C18 - C17    - H7S   
   138    141    144      1    1.1205e+02    3.9497e+02 ;    C18 - C17    - C16   
   139    138    140      1    1.0835e+02    3.2995e+02 ;    H8R - C18    - H8S   
   139    138    141      1    1.1005e+02    3.8802e+02 ;    H8R - C18    - C17   
   140    138    141      1    1.1005e+02    3.8802e+02 ;    H8S - C18    - C17   
   141    144    145      1    1.1005e+02    3.8802e+02 ;    C17 - C16    - H6R   
   141    144    146      1    1.1005e+02    3.8802e+02 ;    C17 - C16    - H6S   
   141    144    147      1    1.1205e+02    3.9497e+02 ;    C17 - C16    - C15   
   142    141    143      1    1.0835e+02    3.2995e+02 ;    H7R - C17    - H7S   
   142    141    144      1    1.1005e+02    3.8802e+02 ;    H7R - C17    - C16   
   143    141    144      1    1.1005e+02    3.8802e+02 ;    H7S - C17    - C16   
   144    147    148      1    1.1005e+02    3.8802e+02 ;    C16 - C15    - H5R   
   144    147    149      1    1.1005e+02    3.8802e+02 ;    C16 - C15    - H5S   
   144    147    150      1    1.1205e+02    3.9497e+02 ;    C16 - C15    - C14   
   145    144    146      1    1.0835e+02    3.2995e+02 ;    H6R - C16    - H6S   
   145    144    147      1    1.1005e+02    3.8802e+02 ;    H6R - C16    - C15   
   146    144    147      1    1.1005e+02    3.8802e+02 ;    H6S - C16    - C15   
   147    150    151      1    1.1005e+02    3.8802e+02 ;    C15 - C14    - H4R   
   147    150    152      1    1.1005e+02    3.8802e+02 ;    C15 - C14    - H4S   
   147    150    153      1    1.1205e+02    3.9497e+02 ;    C15 - C14    - C13   
   148    147    149      1    1.0835e+02    3.2995e+02 ;    H5R - C15    - H5S   
   148    147    150      1    1.1005e+02    3.8802e+02 ;    H5R - C15    - C14   
   149    147    150      1    1.1005e+02    3.8802e+02 ;    H5S - C15    - C14   
   150    153    154      1    1.1005e+02    3.8802e+02 ;    C14 - C13    - H3R   
   150    153    155      1    1.1005e+02    3.8802e+02 ;    C14 - C13    - H3S   
   150    153    156      1    1.1205e+02    3.9497e+02 ;    C14 - C13    - C12   
   151    150    152      1    1.0835e+02    3.2995e+02 ;    H4R - C14    - H4S   
   151    150    153      1    1.1005e+02    3.8802e+02 ;    H4R - C14    - C13   
   152    150    153      1    1.1005e+02    3.8802e+02 ;    H4S - C14    - C13   
   153    156    157      1    1.1005e+02    3.8802e+02 ;    C13 - C12    - H2R   
   153    156    158      1    1.1005e+02    3.8802e+02 ;    C13 - C12    - H2S   
   153    156    159      1    1.1053e+02    5.3379e+02 ;    C13 - C12    - C11   
   154    153    155      1    1.0835e+02    3.2995e+02 ;    H3R - C13    - H3S   
   154    153    156      1    1.1005e+02    3.8802e+02 ;    H3R - C13    - C12   
   155    153    156      1    1.1005e+02    3.8802e+02 ;    H3S - C13    - C12   
   156    159    160      1    1.2311e+02    5.6928e+02 ;    C12 - C11    - O12   
   156    159    161      1    1.1196e+02    5.7957e+02 ;    C12 - C11    - O11   
   157    156    158      1    1.0835e+02    3.2995e+02 ;    H2R - C12    - H2S   
   157    156    159      1    1.0968e+02    3.9497e+02 ;    H2R - C12    - C11   
   158    156    159      1    1.0968e+02    3.9497e+02 ;    H2S - C12    - C11   
   159    161    162      1    1.1514e+02    5.3246e+02 ;    C11 - O11    - C1    
   160    159    161      1    1.2333e+02    6.3538e+02 ;    O12 - C11    - O11   
   161    162    163      1    1.0882e+02    4.2543e+02 ;    O11 - C1     - HR    
   161    162    164      1    1.0882e+02    4.2543e+02 ;    O11 - C1     - HS    
   161    162    165      1    1.0842e+02    5.6718e+02 ;    O11 - C1     - C2    
   162    165    166      1    1.1007e+02    3.8794e+02 ;     C1 - C2     - HX    
   162    165    167      1    1.1063e+02    5.2894e+02 ;     C1 - C2     - C3    
   162    165    194      1    1.0842e+02    5.6718e+02 ;     C1 - C2     - O21   
   163    162    164      1    1.0955e+02    3.2786e+02 ;     HR - C1     - HS    
   163    162    165      1    1.1007e+02    3.8794e+02 ;     HR - C1     - C2    
   164    162    165      1    1.1007e+02    3.8794e+02 ;     HS - C1     - C2    
   165    167    168      1    1.1007e+02    3.8794e+02 ;     C2 - C3     - HA    
   165    167    169      1    1.1007e+02    3.8794e+02 ;     C2 - C3     - HB    
   165    167    170      1    1.0842e+02    5.6718e+02 ;     C2 - C3     - O31   
   165    194    195      1    1.1514e+02    5.3246e+02 ;     C2 - O21    - C21   
   166    165    167      1    1.1007e+02    3.8794e+02 ;     HX - C2     - C3    
   166    165    194      1    1.0882e+02    4.2543e+02 ;     HX - C2     - O21   
   167    165    194      1    1.0842e+02    5.6718e+02 ;     C3 - C2     - O21   
   167    170    171      1    1.2050e+02    8.3680e+02 ;     C3 - O31    - P31   
   168    167    169      1    1.0955e+02    3.2786e+02 ;     HA - C3     - HB    
   168    167    170      1    1.0882e+02    4.2543e+02 ;     HA - C3     - O31   
   169    167    170      1    1.0882e+02    4.2543e+02 ;     HB - C3     - O31   
   170    171    172      1    1.0260e+02    7.5312e+02 ;    O31 - P31    - O32   
   170    171    192      1    1.0823e+02    8.3680e+02 ;    O31 - P31    - O33   
   170    171    193      1    1.0823e+02    8.3680e+02 ;    O31 - P31    - O34   
   171    172    173      1    1.2050e+02    8.3680e+02 ;    P31 - O32    - C31   
   172    171    192      1    1.0823e+02    8.3680e+02 ;    O32 - P31    - O33   
   172    171    193      1    1.0823e+02    8.3680e+02 ;    O32 - P31    - O34   
   172    173    174      1    1.0882e+02    4.2543e+02 ;    O32 - C31    - H1A   
   172    173    175      1    1.0882e+02    4.2543e+02 ;    O32 - C31    - H1B   
   172    173    176      1    1.0842e+02    5.6718e+02 ;    O32 - C31    - C32   
   173    176    177      1    1.1174e+02    3.8510e+02 ;    C31 - C32    - H2A   
   173    176    178      1    1.1174e+02    3.8510e+02 ;    C31 - C32    - H2B   
   173    176    179      1    1.1432e+02    5.3932e+02 ;    C31 - C32    - N31   
   174    173    175      1    1.0955e+02    3.2786e+02 ;    H1A - C31    - H1B   
   174    173    176      1    1.1007e+02    3.8794e+02 ;    H1A - C31    - C32   
   175    173    176      1    1.1007e+02    3.8794e+02 ;    H1B - C31    - C32   
   176    179    180      1    1.1064e+02    5.2585e+02 ;    C32 - N31    - C33   
   176    179    184      1    1.1064e+02    5.2585e+02 ;    C32 - N31    - C34   
   176    179    188      1    1.1064e+02    5.2585e+02 ;    C32 - N31    - C35   
   177    176    178      1    1.1074e+02    3.2669e+02 ;    H2A - C32    - H2B   
   177    176    179      1    1.0791e+02    4.1020e+02 ;    H2A - C32    - N31   
   178    176    179      1    1.0791e+02    4.1020e+02 ;    H2B - C32    - N31   
   179    180    181      1    1.0791e+02    4.1020e+02 ;    N31 - C33    - H3A   
   179    180    182      1    1.0791e+02    4.1020e+02 ;    N31 - C33    - H3B   
   179    180    183      1    1.0791e+02    4.1020e+02 ;    N31 - C33    - H3C   
   179    184    185      1    1.0791e+02    4.1020e+02 ;    N31 - C34    - H4A   
   179    184    186      1    1.0791e+02    4.1020e+02 ;    N31 - C34    - H4B   
   179    184    187      1    1.0791e+02    4.1020e+02 ;    N31 - C34    - H4C   
   179    188    189      1    1.0791e+02    4.1020e+02 ;    N31 - C35    - H5A   
   179    188    190      1    1.0791e+02    4.1020e+02 ;    N31 - C35    - H5B   
   179    188    191      1    1.0791e+02    4.1020e+02 ;    N31 - C35    - H5C   
   180    179    184      1    1.1064e+02    5.2585e+02 ;    C33 - N31    - C34   
   180    179    188      1    1.1064e+02    5.2585e+02 ;    C33 - N31    - C35   
   181    180    182      1    1.1074e+02    3.2669e+02 ;    H3A - C33    - H3B   
   181    180    183      1    1.1074e+02    3.2669e+02 ;    H3A - C33    - H3C   
   182    180    183      1    1.1074e+02    3.2669e+02 ;    H3B - C33    - H3C   
   184    179    188      1    1.1064e+02    5.2585e+02 ;    C34 - N31    - C35   
   185    184    186      1    1.1074e+02    3.2669e+02 ;    H4A - C34    - H4B   
   185    184    187      1    1.1074e+02    3.2669e+02 ;    H4A - C34    - H4C   
   186    184    187      1    1.1074e+02    3.2669e+02 ;    H4B - C34    - H4C   
   189    188    190      1    1.1074e+02    3.2669e+02 ;    H5A - C35    - H5B   
   189    188    191      1    1.1074e+02    3.2669e+02 ;    H5A - C35    - H5C   
   190    188    191      1    1.1074e+02    3.2669e+02 ;    H5B - C35    - H5C   
   192    171    193      1    1.1990e+02    1.1715e+03 ;    O33 - P31    - O34   
   194    195    196      1    1.2333e+02    6.3538e+02 ;    O21 - C21    - O22   
   194    195    234      1    1.1196e+02    5.7957e+02 ;    O21 - C21    - C12   
   195    234    231      1    1.1053e+02    5.3379e+02 ;    C21 - C12    - C13   
   195    234    235      1    1.0968e+02    3.9497e+02 ;    C21 - C12    - H2R   
   195    234    236      1    1.0968e+02    3.9497e+02 ;    C21 - C12    - H2S   
   196    195    234      1    1.2311e+02    5.6928e+02 ;    O22 - C21    - C12   
   197    198    199      1    1.0835e+02    3.2995e+02 ;   H14T - C114   - H14R  
   197    198    200      1    1.0835e+02    3.2995e+02 ;   H14T - C114   - H14S  
   197    198    201      1    1.1005e+02    3.8802e+02 ;   H14T - C114   - C113  
   198    201    202      1    1.1005e+02    3.8802e+02 ;   C114 - C113   - H13R  
   198    201    203      1    1.1005e+02    3.8802e+02 ;   C114 - C113   - H13S  
   198    201    204      1    1.1205e+02    3.9497e+02 ;   C114 - C113   - C112  
   199    198    200      1    1.0835e+02    3.2995e+02 ;   H14R - C114   - H14S  
   199    198    201      1    1.1005e+02    3.8802e+02 ;   H14R - C114   - C113  
   200    198    201      1    1.1005e+02    3.8802e+02 ;   H14S - C114   - C113  
   201    204    205      1    1.1005e+02    3.8802e+02 ;   C113 - C112   - H12R  
   201    204    206      1    1.1005e+02    3.8802e+02 ;   C113 - C112   - H12S  
   201    204    207      1    1.1205e+02    3.9497e+02 ;   C113 - C112   - C111  
   202    201    203      1    1.0835e+02    3.2995e+02 ;   H13R - C113   - H13S  
   202    201    204      1    1.1005e+02    3.8802e+02 ;   H13R - C113   - C112  
   203    201    204      1    1.1005e+02    3.8802e+02 ;   H13S - C113   - C112  
   204    207    208      1    1.1005e+02    3.8802e+02 ;   C112 - C111   - H11R  
   204    207    209      1    1.1005e+02    3.8802e+02 ;   C112 - C111   - H11S  
   204    207    210      1    1.1205e+02    3.9497e+02 ;   C112 - C111   - C110  
   205    204    206      1    1.0835e+02    3.2995e+02 ;   H12R - C112   - H12S  
   205    204    207      1    1.1005e+02    3.8802e+02 ;   H12R - C112   - C111  
   206    204    207      1    1.1005e+02    3.8802e+02 ;   H12S - C112   - C111  
   207    210    211      1    1.1005e+02    3.8802e+02 ;   C111 - C110   - H10R  
   207    210    212      1    1.1005e+02    3.8802e+02 ;   C111 - C110   - H10S  
   207    210    213      1    1.1205e+02    3.9497e+02 ;   C111 - C110   - C19   
   208    207    209      1    1.0835e+02    3.2995e+02 ;   H11R - C111   - H11S  
   208    207    210      1    1.1005e+02    3.8802e+02 ;   H11R - C111   - C110  
   209    207    210      1    1.1005e+02    3.8802e+02 ;   H11S - C111   - C110  
   210    213    214      1    1.1005e+02    3.8802e+02 ;   C110 - C19    - H9R   
   210    213    215      1    1.1005e+02    3.8802e+02 ;   C110 - C19    - H9S   
   210    213    216      1    1.1205e+02    3.9497e+02 ;   C110 - C19    - C18   
   211    210    212      1    1.0835e+02    3.2995e+02 ;   H10R - C110   - H10S  
   211    210    213      1    1.1005e+02    3.8802e+02 ;   H10R - C110   - C19   
   212    210    213      1    1.1005e+02    3.8802e+02 ;   H10S - C110   - C19   
   213    216    217      1    1.1005e+02    3.8802e+02 ;    C19 - C18    - H8R   
   213    216    218      1    1.1005e+02    3.8802e+02 ;    C19 - C18    - H8S   
   213    216    219      1    1.1205e+02    3.9497e+02 ;    C19 - C18    - C17   
   214    213    215      1    1.0835e+02    3.2995e+02 ;    H9R - C19    - H9S   
   214    213    216      1    1.1005e+02    3.8802e+02 ;    H9R - C19    - C18   
   215    213    216      1    1.1005e+02    3.8802e+02 ;    H9S - C19    - C18   
   216    219    220      1    1.1005e+02    3.8802e+02 ;    C18 - C17    - H7R   
   216    219    221      1    1.1005e+02    3.8802e+02 ;    C18 - C17    - H7S   
   216    219    222      1    1.1205e+02    3.9497e+02 ;    C18 - C17    - C16   
   217    216    218      1    1.0835e+02    3.2995e+02 ;    H8R - C18    - H8S   
   217    216    219      1    1.1005e+02    3.8802e+02 ;    H8R - C18    - C17   
   218    216    219      1    1.1005e+02    3.8802e+02 ;    H8S - C18    - C17   
   219    222    223      1    1.1005e+02    3.8802e+02 ;    C17 - C16    - H6R   
   219    222    224      1    1.1005e+02    3.8802e+02 ;    C17 - C16    - H6S   
   219    222    225      1    1.1205e+02    3.9497e+02 ;    C17 - C16    - C15   
   220    219    221      1    1.0835e+02    3.2995e+02 ;    H7R - C17    - H7S   
   220    219    222      1    1.1005e+02    3.8802e+02 ;    H7R - C17    - C16   
   221    219    222      1    1.1005e+02    3.8802e+02 ;    H7S - C17    - C16   
   222    225    226      1    1.1005e+02    3.8802e+02 ;    C16 - C15    - H5R   
   222    225    227      1    1.1005e+02    3.8802e+02 ;    C16 - C15    - H5S   
   222    225    228      1    1.1205e+02    3.9497e+02 ;    C16 - C15    - C14   
   223    222    224      1    1.0835e+02    3.2995e+02 ;    H6R - C16    - H6S   
   223    222    225      1    1.1005e+02    3.8802e+02 ;    H6R - C16    - C15   
   224    222    225      1    1.1005e+02    3.8802e+02 ;    H6S - C16    - C15   
   225    228    229      1    1.1005e+02    3.8802e+02 ;    C15 - C14    - H4R   
   225    228    230      1    1.1005e+02    3.8802e+02 ;    C15 - C14    - H4S   
   225    228    231      1    1.1205e+02    3.9497e+02 ;    C15 - C14    - C13   
   226    225    227      1    1.0835e+02    3.2995e+02 ;    H5R - C15    - H5S   
   226    225    228      1    1.1005e+02    3.8802e+02 ;    H5R - C15    - C14   
   227    225    228      1    1.1005e+02    3.8802e+02 ;    H5S - C15    - C14   
   228    231    232      1    1.1005e+02    3.8802e+02 ;    C14 - C13    - H3R   
   228    231    233      1    1.1005e+02    3.8802e+02 ;    C14 - C13    - H3S   
   228    231    234      1    1.1205e+02    3.9497e+02 ;    C14 - C13    - C12   
   229    228    230      1    1.0835e+02    3.2995e+02 ;    H4R - C14    - H4S   
   229    228    231      1    1.1005e+02    3.8802e+02 ;    H4R - C14    - C13   
   230    228    231      1    1.1005e+02    3.8802e+02 ;    H4S - C14    - C13   
   231    234    235      1    1.1005e+02    3.8802e+02 ;    C13 - C12    - H2R   
   231    234    236      1    1.1005e+02    3.8802e+02 ;    C13 - C12    - H2S   
   232    231    233      1    1.0835e+02    3.2995e+02 ;    H3R - C13    - H3S   
   232    231    234      1    1.1005e+02    3.8802e+02 ;    H3R - C13    - C12   
   233    231    234      1    1.1005e+02    3.8802e+02 ;    H3S - C13    - C12   
   235    234    236      1    1.0835e+02    3.2995e+02 ;    H2R - C12    - H2S   
   237    238    239      1    1.0835e+02    3.2995e+02 ;   H14T - C114   - H14R  
   237    238    240      1    1.0835e+02    3.2995e+02 ;   H14T - C114   - H14S  
   237    238    241      1    1.1005e+02    3.8802e+02 ;   H14T - C114   - C113  
   238    241    242      1    1.1005e+02    3.8802e+02 ;   C114 - C113   - H13R  
   238    241    243      1    1.1005e+02    3.8802e+02 ;   C114 - C113   - H13S  
   238    241    244      1    1.1205e+02    3.9497e+02 ;   C114 - C113   - C112  
   239    238    240      1    1.0835e+02    3.2995e+02 ;   H14R - C114   - H14S  
   239    238    241      1    1.1005e+02    3.8802e+02 ;   H14R - C114   - C113  
   240    238    241      1    1.1005e+02    3.8802e+02 ;   H14S - C114   - C113  
   241    244    245      1    1.1005e+02    3.8802e+02 ;   C113 - C112   - H12R  
   241    244    246      1    1.1005e+02    3.8802e+02 ;   C113 - C112   - H12S  
   241    244    247      1    1.1205e+02    3.9497e+02 ;   C113 - C112   - C111  
   242    241    243      1    1.0835e+02    3.2995e+02 ;   H13R - C113   - H13S  
   242    241    244      1    1.1005e+02    3.8802e+02 ;   H13R - C113   - C112  
   243    241    244      1    1.1005e+02    3.8802e+02 ;   H13S - C113   - C112  
   244    247    248      1    1.1005e+02    3.8802e+02 ;   C112 - C111   - H11R  
   244    247    249      1    1.1005e+02    3.8802e+02 ;   C112 - C111   - H11S  
   244    247    250      1    1.1205e+02    3.9497e+02 ;   C112 - C111   - C110  
   245    244    246      1    1.0835e+02    3.2995e+02 ;   H12R - C112   - H12S  
   245    244    247      1    1.1005e+02    3.8802e+02 ;   H12R - C112   - C111  
   246    244    247      1    1.1005e+02    3.8802e+02 ;   H12S - C112   - C111  
   247    250    251      1    1.1005e+02    3.8802e+02 ;   C111 - C110   - H10R  
   247    250    252      1    1.1005e+02    3.8802e+02 ;   C111 - C110   - H10S  
   247    250    253      1    1.1205e+02    3.9497e+02 ;   C111 - C110   - C19   
   248    247    249      1    1.0835e+02    3.2995e+02 ;   H11R - C111   - H11S  
   248    247    250      1    1.1005e+02    3.8802e+02 ;   H11R - C111   - C110  
   249    247    250      1    1.1005e+02    3.8802e+02 ;   H11S - C111   - C110  
   250    253    254      1    1.1005e+02    3.8802e+02 ;   C110 - C19    - H9R   
   250    253    255      1    1.1005e+02    3.8802e+02 ;   C110 - C19    - H9S   
   250    253    256      1    1.1205e+02    3.9497e+02 ;   C110 - C19    - C18   
   251    250    252      1    1.0835e+02    3.2995e+02 ;   H10R - C110   - H10S  
   251    250    253      1    1.1005e+02    3.8802e+02 ;   H10R - C110   - C19   
   252    250    253      1    1.1005e+02    3.8802e+02 ;   H10S - C110   - C19   
   253    256    257      1    1.1005e+02    3.8802e+02 ;    C19 - C18    - H8R   
   253    256    258      1    1.1005e+02    3.8802e+02 ;    C19 - C18    - H8S   
   253    256    259      1    1.1205e+02    3.9497e+02 ;    C19 - C18    - C17   
   254    253    255      1    1.0835e+02    3.2995e+02 ;    H9R - C19    - H9S   
   254    253    256      1    1.1005e+02    3.8802e+02 ;    H9R - C19    - C18   
   255    253    256      1    1.1005e+02    3.8802e+02 ;    H9S - C19    - C18   
   256    259    260      1    1.1005e+02    3.8802e+02 ;    C18 - C17    - H7R   
   256    259    261      1    1.1005e+02    3.8802e+02 ;    C18 - C17    - H7S   
   256    259    262      1    1.1205e+02    3.9497e+02 ;    C18 - C17    - C16   
   257    256    258      1    1.0835e+02    3.2995e+02 ;    H8R - C18    - H8S   
   257    256    259      1    1.1005e+02    3.8802e+02 ;    H8R - C18    - C17   
   258    256    259      1    1.1005e+02    3.8802e+02 ;    H8S - C18    - C17   
   259    262    263      1    1.1005e+02    3.8802e+02 ;    C17 - C16    - H6R   
   259    262    264      1    1.1005e+02    3.8802e+02 ;    C17 - C16    - H6S   
   259    262    265      1    1.1205e+02    3.9497e+02 ;    C17 - C16    - C15   
   260    259    261      1    1.0835e+02    3.2995e+02 ;    H7R - C17    - H7S   
   260    259    262      1    1.1005e+02    3.8802e+02 ;    H7R - C17    - C16   
   261    259    262      1    1.1005e+02    3.8802e+02 ;    H7S - C17    - C16   
   262    265    266      1    1.1005e+02    3.8802e+02 ;    C16 - C15    - H5R   
   262    265    267      1    1.1005e+02    3.8802e+02 ;    C16 - C15    - H5S   
   262    265    268      1    1.1205e+02    3.9497e+02 ;    C16 - C15    - C14   
   263    262    264      1    1.0835e+02    3.2995e+02 ;    H6R - C16    - H6S   
   263    262    265      1    1.1005e+02    3.8802e+02 ;    H6R - C16    - C15   
   264    262    265      1    1.1005e+02    3.8802e+02 ;    H6S - C16    - C15   
   265    268    269      1    1.1005e+02    3.8802e+02 ;    C15 - C14    - H4R   
   265    268    270      1    1.1005e+02    3.8802e+02 ;    C15 - C14    - H4S   
   265    268    271      1    1.1205e+02    3.9497e+02 ;    C15 - C14    - C13   
   266    265    267      1    1.0835e+02    3.2995e+02 ;    H5R - C15    - H5S   
   266    265    268      1    1.1005e+02    3.8802e+02 ;    H5R - C15    - C14   
   267    265    268      1    1.1005e+02    3.8802e+02 ;    H5S - C15    - C14   
   268    271    272      1    1.1005e+02    3.8802e+02 ;    C14 - C13    - H3R   
   268    271    273      1    1.1005e+02    3.8802e+02 ;    C14 - C13    - H3S   
   268    271    274      1    1.1205e+02    3.9497e+02 ;    C14 - C13    - C12   
   269    268    270      1    1.0835e+02    3.2995e+02 ;    H4R - C14    - H4S   
   269    268    271      1    1.1005e+02    3.8802e+02 ;    H4R - C14    - C13   
   270    268    271      1    1.1005e+02    3.8802e+02 ;    H4S - C14    - C13   
   271    274    275      1    1.1005e+02    3.8802e+02 ;    C13 - C12    - H2R   
   271    274    276      1    1.1005e+02    3.8802e+02 ;    C13 - C12    - H2S   
   271    274    277      1    1.1053e+02    5.3379e+02 ;    C13 - C12    - C11   
   272    271    273      1    1.0835e+02    3.2995e+02 ;    H3R - C13    - H3S   
   272    271    274      1    1.1005e+02    3.8802e+02 ;    H3R - C13    - C12   
   273    271    274      1    1.1005e+02    3.8802e+02 ;    H3S - C13    - C12   
   274    277    278      1    1.2311e+02    5.6928e+02 ;    C12 - C11    - O12   
   274    277    279      1    1.1196e+02    5.7957e+02 ;    C12 - C11    - O11   
   275    274    276      1    1.0835e+02    3.2995e+02 ;    H2R - C12    - H2S   
   275    274    277      1    1.0968e+02    3.9497e+02 ;    H2R - C12    - C11   
   276    274    277      1    1.0968e+02    3.9497e+02 ;    H2S - C12    - C11   
   277    279    280      1    1.1514e+02    5.3246e+02 ;    C11 - O11    - C1    
   278    277    279      1    1.2333e+02    6.3538e+02 ;    O12 - C11    - O11   
   279    280    281      1    1.0882e+02    4.2543e+02 ;    O11 - C1     - HR    
   279    280    282      1    1.0882e+02    4.2543e+02 ;    O11 - C1     - HS    
   279    280    283      1    1.0842e+02    5.6718e+02 ;    O11 - C1     - C2    
   280    283    284      1    1.1007e+02    3.8794e+02 ;     C1 - C2     - HX    
   280    283    285      1    1.1063e+02    5.2894e+02 ;     C1 - C2     - C3    
   280    283    312      1    1.0842e+02    5.6718e+02 ;     C1 - C2     - O21   
   281    280    282      1    1.0955e+02    3.2786e+02 ;     HR - C1     - HS    
   281    280    283      1    1.1007e+02    3.8794e+02 ;     HR - C1     - C2    
   282    280    283      1    1.1007e+02    3.8794e+02 ;     HS - C1     - C2    
   283    285    286      1    1.1007e+02    3.8794e+02 ;     C2 - C3     - HA    
   283    285    287      1    1.1007e+02    3.8794e+02 ;     C2 - C3     - HB    
   283    285    288      1    1.0842e+02    5.6718e+02 ;     C2 - C3     - O31   
   283    312    313      1    1.1514e+02    5.3246e+02 ;     C2 - O21    - C21   
   284    283    285      1    1.1007e+02    3.8794e+02 ;     HX - C2     - C3    
   284    283    312      1    1.0882e+02    4.2543e+02 ;     HX - C2     - O21   
   285    283    312      1    1.0842e+02    5.6718e+02 ;     C3 - C2     - O21   
   285    288    289      1    1.2050e+02    8.3680e+02 ;     C3 - O31    - P31   
   286    285    287      1    1.0955e+02    3.2786e+02 ;     HA - C3     - HB    
   286    285    288      1    1.0882e+02    4.2543e+02 ;     HA - C3     - O31   
   287    285    288      1    1.0882e+02    4.2543e+02 ;     HB - C3     - O31   
   288    289    290      1    1.0260e+02    7.5312e+02 ;    O31 - P31    - O32   
   288    289    310      1    1.0823e+02    8.3680e+02 ;    O31 - P31    - O33   
   288    289    311      1    1.0823e+02    8.3680e+02 ;    O31 - P31    - O34   
   289    290    291      1    1.2050e+02    8.3680e+02 ;    P31 - O32    - C31   
   290    289    310      1    1.0823e+02    8.3680e+02 ;    O32 - P31    - O33   
   290    289    311      1    1.0823e+02    8.3680e+02 ;    O32 - P31    - O34   
   290    291    292      1    1.0882e+02    4.2543e+02 ;    O32 - C31    - H1A   
   290    291    293      1    1.0882e+02    4.2543e+02 ;    O32 - C31    - H1B   
   290    291    294      1    1.0842e+02    5.6718e+02 ;    O32 - C31    - C32   
   291    294    295      1    1.1174e+02    3.8510e+02 ;    C31 - C32    - H2A   
   291    294    296      1    1.1174e+02    3.8510e+02 ;    C31 - C32    - H2B   
   291    294    297      1    1.1432e+02    5.3932e+02 ;    C31 - C32    - N31   
   292    291    293      1    1.0955e+02    3.2786e+02 ;    H1A - C31    - H1B   
   292    291    294      1    1.1007e+02    3.8794e+02 ;    H1A - C31    - C32   
   293    291    294      1    1.1007e+02    3.8794e+02 ;    H1B - C31    - C32   
   294    297    298      1    1.1064e+02    5.2585e+02 ;    C32 - N31    - C33   
   294    297    302      1    1.1064e+02    5.2585e+02 ;    C32 - N31    - C34   
   294    297    306      1    1.1064e+02    5.2585e+02 ;    C32 - N31    - C35   
   295    294    296      1    1.1074e+02    3.2669e+02 ;    H2A - C32    - H2B   
   295    294    297      1    1.0791e+02    4.1020e+02 ;    H2A - C32    - N31   
   296    294    297      1    1.0791e+02    4.1020e+02 ;    H2B - C32    - N31   
   297    298    299      1    1.0791e+02    4.1020e+02 ;    N31 - C33    - H3A   
   297    298    300      1    1.0791e+02    4.1020e+02 ;    N31 - C33    - H3B   
   297    298    301      1    1.0791e+02    4.1020e+02 ;    N31 - C33    - H3C   
   297    302    303      1    1.0791e+02    4.1020e+02 ;    N31 - C34    - H4A   
   297    302    304      1    1.0791e+02    4.1020e+02 ;    N31 - C34    - H4B   
   297    302    305      1    1.0791e+02    4.1020e+02 ;    N31 - C34    - H4C   
   297    306    307      1    1.0791e+02    4.1020e+02 ;    N31 - C35    - H5A   
   297    306    308      1    1.0791e+02    4.1020e+02 ;    N31 - C35    - H5B   
   297    306    309      1    1.0791e+02    4.1020e+02 ;    N31 - C35    - H5C   
   298    297    302      1    1.1064e+02    5.2585e+02 ;    C33 - N31    - C34   
   298    297    306      1    1.1064e+02    5.2585e+02 ;    C33 - N31    - C35   
   299    298    300      1    1.1074e+02    3.2669e+02 ;    H3A - C33    - H3B   
   299    298    301      1    1.1074e+02    3.2669e+02 ;    H3A - C33    - H3C   
   300    298    301      1    1.1074e+02    3.2669e+02 ;    H3B - C33    - H3C   
   302    297    306      1    1.1064e+02    5.2585e+02 ;    C34 - N31    - C35   
   303    302    304      1    1.1074e+02    3.2669e+02 ;    H4A - C34    - H4B   
   303    302    305      1    1.1074e+02    3.2669e+02 ;    H4A - C34    - H4C   
   304    302    305      1    1.1074e+02    3.2669e+02 ;    H4B - C34    - H4C   
   307    306    308      1    1.1074e+02    3.2669e+02 ;    H5A - C35    - H5B   
   307    306    309      1    1.1074e+02    3.2669e+02 ;    H5A - C35    - H5C   
   308    306    309      1    1.1074e+02    3.2669e+02 ;    H5B - C35    - H5C   
   310    289    311      1    1.1990e+02    1.1715e+03 ;    O33 - P31    - O34   
   312    313    314      1    1.2333e+02    6.3538e+02 ;    O21 - C21    - O22   
   312    313    352      1    1.1196e+02    5.7957e+02 ;    O21 - C21    - C12   
   313    352    349      1    1.1053e+02    5.3379e+02 ;    C21 - C12    - C13   
   313    352    353      1    1.0968e+02    3.9497e+02 ;    C21 - C12    - H2R   
   313    352    354      1    1.0968e+02    3.9497e+02 ;    C21 - C12    - H2S   
   314    313    352      1    1.2311e+02    5.6928e+02 ;    O22 - C21    - C12   
   315    316    317      1    1.0835e+02    3.2995e+02 ;   H14T - C114   - H14R  
   315    316    318      1    1.0835e+02    3.2995e+02 ;   H14T - C114   - H14S  
   315    316    319      1    1.1005e+02    3.8802e+02 ;   H14T - C114   - C113  
   316    319    320      1    1.1005e+02    3.8802e+02 ;   C114 - C113   - H13R  
   316    319    321      1    1.1005e+02    3.8802e+02 ;   C114 - C113   - H13S  
   316    319    322      1    1.1205e+02    3.9497e+02 ;   C114 - C113   - C112  
   317    316    318      1    1.0835e+02    3.2995e+02 ;   H14R - C114   - H14S  
   317    316    319      1    1.1005e+02    3.8802e+02 ;   H14R - C114   - C113  
   318    316    319      1    1.1005e+02    3.8802e+02 ;   H14S - C114   - C113  
   319    322    323      1    1.1005e+02    3.8802e+02 ;   C113 - C112   - H12R  
   319    322    324      1    1.1005e+02    3.8802e+02 ;   C113 - C112   - H12S  
   319    322    325      1    1.1205e+02    3.9497e+02 ;   C113 - C112   - C111  
   320    319    321      1    1.0835e+02    3.2995e+02 ;   H13R - C113   - H13S  
   320    319    322      1    1.1005e+02    3.8802e+02 ;   H13R - C113   - C112  
   321    319    322      1    1.1005e+02    3.8802e+02 ;   H13S - C113   - C112  
   322    325    326      1    1.1005e+02    3.8802e+02 ;   C112 - C111   - H11R  
   322    325    327      1    1.1005e+02    3.8802e+02 ;   C112 - C111   - H11S  
   322    325    328      1    1.1205e+02    3.9497e+02 ;   C112 - C111   - C110  
   323    322    324      1    1.0835e+02    3.2995e+02 ;   H12R - C112   - H12S  
   323    322    325      1    1.1005e+02    3.8802e+02 ;   H12R - C112   - C111  
   324    322    325      1    1.1005e+02    3.8802e+02 ;   H12S - C112   - C111  
   325    328    329      1    1.1005e+02    3.8802e+02 ;   C111 - C110   - H10R  
   325    328    330      1    1.1005e+02    3.8802e+02 ;   C111 - C110   - H10S  
   325    328    331      1    1.1205e+02    3.9497e+02 ;   C111 - C110   - C19   
   326    325    327      1    1.0835e+02    3.2995e+02 ;   H11R - C111   - H11S  
   326    325    328      1    1.1005e+02    3.8802e+02 ;   H11R - C111   - C110  
   327    325    328      1    1.1005e+02    3.8802e+02 ;   H11S - C111   - C110  
   328    331    332      1    1.1005e+02    3.8802e+02 ;   C110 - C19    - H9R   
   328    331    333      1    1.1005e+02    3.8802e+02 ;   C110 - C19    - H9S   
   328    331    334      1    1.1205e+02    3.9497e+02 ;   C110 - C19    - C18   
   329    328    330      1    1.0835e+02    3.2995e+02 ;   H10R - C110   - H10S  
   329    328    331      1    1.1005e+02    3.8802e+02 ;   H10R - C110   - C19   
   330    328    331      1    1.1005e+02    3.8802e+02 ;   H10S - C110   - C19   
   331    334    335      1    1.1005e+02    3.8802e+02 ;    C19 - C18    - H8R   
   331    334    336      1    1.1005e+02    3.8802e+02 ;    C19 - C18    - H8S   
   331    334    337      1    1.1205e+02    3.9497e+02 ;    C19 - C18    - C17   
   332    331    333      1    1.0835e+02    3.2995e+02 ;    H9R - C19    - H9S   
   332    331    334      1    1.1005e+02    3.8802e+02 ;    H9R - C19    - C18   
   333    331    334      1    1.1005e+02    3.8802e+02 ;    H9S - C19    - C18   
   334    337    338      1    1.1005e+02    3.8802e+02 ;    C18 - C17    - H7R   
   334    337    339      1    1.1005e+02    3.8802e+02 ;    C18 - C17    - H7S   
   334    337    340      1    1.1205e+02    3.9497e+02 ;    C18 - C17    - C16   
   335    334    336      1    1.0835e+02    3.2995e+02 ;    H8R - C18    - H8S   
   335    334    337      1    1.1005e+02    3.8802e+02 ;    H8R - C18    - C17   
   336    334    337      1    1.1005e+02    3.8802e+02 ;    H8S - C18    - C17   
   337    340    341      1    1.1005e+02    3.8802e+02 ;    C17 - C16    - H6R   
   337    340    342      1    1.1005e+02    3.8802e+02 ;    C17 - C16    - H6S   
   337    340    343      1    1.1205e+02    3.9497e+02 ;    C17 - C16    - C15   
   338    337    339      1    1.0835e+02    3.2995e+02 ;    H7R - C17    - H7S   
   338    337    340      1    1.1005e+02    3.8802e+02 ;    H7R - C17    - C16   
   339    337    340      1    1.1005e+02    3.8802e+02 ;    H7S - C17    - C16   
   340    343    344      1    1.1005e+02    3.8802e+02 ;    C16 - C15    - H5R   
   340    343    345      1    1.1005e+02    3.8802e+02 ;    C16 - C15    - H5S   
   340    343    346      1    1.1205e+02    3.9497e+02 ;    C16 - C15    - C14   
   341    340    342      1    1.0835e+02    3.2995e+02 ;    H6R - C16    - H6S   
   341    340    343      1    1.1005e+02    3.8802e+02 ;    H6R - C16    - C15   
   342    340    343      1    1.1005e+02    3.8802e+02 ;    H6S - C16    - C15   
   343    346    347      1    1.1005e+02    3.8802e+02 ;    C15 - C14    - H4R   
   343    346    348      1    1.1005e+02    3.8802e+02 ;    C15 - C14    - H4S   
   343    346    349      1    1.1205e+02    3.9497e+02 ;    C15 - C14    - C13   
   344    343    345      1    1.0835e+02    3.2995e+02 ;    H5R - C15    - H5S   
   344    343    346      1    1.1005e+02    3.8802e+02 ;    H5R - C15    - C14   
   345    343    346      1    1.1005e+02    3.8802e+02 ;    H5S - C15    - C14   
   346    349    350      1    1.1005e+02    3.8802e+02 ;    C14 - C13    - H3R   
   346    349    351      1    1.1005e+02    3.8802e+02 ;    C14 - C13    - H3S   
   346    349    352      1    1.1205e+02    3.9497e+02 ;    C14 - C13    - C12   
   347    346    348      1    1.0835e+02    3.2995e+02 ;    H4R - C14    - H4S   
   347    346    349      1    1.1005e+02    3.8802e+02 ;    H4R - C14    - C13   
   348    346    349      1    1.1005e+02    3.8802e+02 ;    H4S - C14    - C13   
   349    352    353      1    1.1005e+02    3.8802e+02 ;    C13 - C12    - H2R   
   349    352    354      1    1.1005e+02    3.8802e+02 ;    C13 - C12    - H2S   
   350    349    351      1    1.0835e+02    3.2995e+02 ;    H3R - C13    - H3S   
   350    349    352      1    1.1005e+02    3.8802e+02 ;    H3R - C13    - C12   
   351    349    352      1    1.1005e+02    3.8802e+02 ;    H3S - C13    - C12   
   353    352    354      1    1.0835e+02    3.2995e+02 ;    H2R - C12    - H2S   
   355    356    357      1    1.0835e+02    3.2995e+02 ;   H14T - C114   - H14R  
   355    356    358      1    1.0835e+02    3.2995e+02 ;   H14T - C114   - H14S  
   355    356    359      1    1.1005e+02    3.8802e+02 ;   H14T - C114   - C113  
   356    359    360      1    1.1005e+02    3.8802e+02 ;   C114 - C113   - H13R  
   356    359    361      1    1.1005e+02    3.8802e+02 ;   C114 - C113   - H13S  
   356    359    362      1    1.1205e+02    3.9497e+02 ;   C114 - C113   - C112  
   357    356    358      1    1.0835e+02    3.2995e+02 ;   H14R - C114   - H14S  
   357    356    359      1    1.1005e+02    3.8802e+02 ;   H14R - C114   - C113  
   358    356    359      1    1.1005e+02    3.8802e+02 ;   H14S - C114   - C113  
   359    362    363      1    1.1005e+02    3.8802e+02 ;   C113 - C112   - H12R  
   359    362    364      1    1.1005e+02    3.8802e+02 ;   C113 - C112   - H12S  
   359    362    365      1    1.1205e+02    3.9497e+02 ;   C113 - C112   - C111  
   360    359    361      1    1.0835e+02    3.2995e+02 ;   H13R - C113   - H13S  
   360    359    362      1    1.1005e+02    3.8802e+02 ;   H13R - C113   - C112  
   361    359    362      1    1.1005e+02    3.8802e+02 ;   H13S - C113   - C112  
   362    365    366      1    1.1005e+02    3.8802e+02 ;   C112 - C111   - H11R  
   362    365    367      1    1.1005e+02    3.8802e+02 ;   C112 - C111   - H11S  
   362    365    368      1    1.1205e+02    3.9497e+02 ;   C112 - C111   - C110  
   363    362    364      1    1.0835e+02    3.2995e+02 ;   H12R - C112   - H12S  
   363    362    365      1    1.1005e+02    3.8802e+02 ;   H12R - C112   - C111  
   364    362    365      1    1.1005e+02    3.8802e+02 ;   H12S - C112   - C111  
   365    368    369      1    1.1005e+02    3.8802e+02 ;   C111 - C110   - H10R  
   365    368    370      1    1.1005e+02    3.8802e+02 ;   C111 - C110   - H10S  
   365    368    371      1    1.1205e+02    3.9497e+02 ;   C111 - C110   - C19   
   366    365    367      1    1.0835e+02    3.2995e+02 ;   H11R - C111   - H11S  
   366    365    368      1    1.1005e+02    3.8802e+02 ;   H11R - C111   - C110  
   367    365    368      1    1.1005e+02    3.8802e+02 ;   H11S - C111   - C110  
   368    371    372      1    1.1005e+02    3.8802e+02 ;   C110 - C19    - H9R   
   368    371    373      1    1.1005e+02    3.8802e+02 ;   C110 - C19    - H9S   
   368    371    374      1    1.1205e+02    3.9497e+02 ;   C110 - C19    - C18   
   369    368    370      1    1.0835e+02    3.2995e+02 ;   H10R - C110   - H10S  
   369    368    371      1    1.1005e+02    3.8802e+02 ;   H10R - C110   - C19   
   370    368    371      1    1.1005e+02    3.8802e+02 ;   H10S - C110   - C19   
   371    374    375      1    1.1005e+02    3.8802e+02 ;    C19 - C18    - H8R   
   371    374    376      1    1.1005e+02    3.8802e+02 ;    C19 - C18    - H8S   
   371    374    377      1    1.1205e+02    3.9497e+02 ;    C19 - C18    - C17   
   372    371    373      1    1.0835e+02    3.2995e+02 ;    H9R - C19    - H9S   
   372    371    374      1    1.1005e+02    3.8802e+02 ;    H9R - C19    - C18   
   373    371    374      1    1.1005e+02    3.8802e+02 ;    H9S - C19    - C18   
   374    377    378      1    1.1005e+02    3.8802e+02 ;    C18 - C17    - H7R   
   374    377    379      1    1.1005e+02    3.8802e+02 ;    C18 - C17    - H7S   
   374    377    380      1    1.1205e+02    3.9497e+02 ;    C18 - C17    - C16   
   375    374    376      1    1.0835e+02    3.2995e+02 ;    H8R - C18    - H8S   
   375    374    377      1    1.1005e+02    3.8802e+02 ;    H8R - C18    - C17   
   376    374    377      1    1.1005e+02    3.8802e+02 ;    H8S - C18    - C17   
   377    380    381      1    1.1005e+02    3.8802e+02 ;    C17 - C16    - H6R   
   377    380    382      1    1.1005e+02    3.8802e+02 ;    C17 - C16    - H6S   
   377    380    383      1    1.1205e+02    3.9497e+02 ;    C17 - C16    - C15   
   378    377    379      1    1.0835e+02    3.2995e+02 ;    H7R - C17    - H7S   
   378    377    380      1    1.1005e+02    3.8802e+02 ;    H7R - C17    - C16   
   379    377    380      1    1.1005e+02    3.8802e+02 ;    H7S - C17    - C16   
   380    383    384      1    1.1005e+02    3.8802e+02 ;    C16 - C15    - H5R   
   380    383    385      1    1.1005e+02    3.8802e+02 ;    C16 - C15    - H5S   
   380    383    386      1    1.1205e+02    3.9497e+02 ;    C16 - C15    - C14   
   381    380    382      1    1.0835e+02    3.2995e+02 ;    H6R - C16    - H6S   
   381    380    383      1    1.1005e+02    3.8802e+02 ;    H6R - C16    - C15   
   382    380    383      1    1.1005e+02    3.8802e+02 ;    H6S - C16    - C15   
   383    386    387      1    1.1005e+02    3.8802e+02 ;    C15 - C14    - H4R   
   383    386    388      1    1.1005e+02    3.8802e+02 ;    C15 - C14    - H4S   
   383    386    389      1    1.1205e+02    3.9497e+02 ;    C15 - C14    - C13   
   384    383    385      1    1.0835e+02    3.2995e+02 ;    H5R - C15    - H5S   
   384    383    386      1    1.1005e+02    3.8802e+02 ;    H5R - C15    - C14   
   385    383    386      1    1.1005e+02    3.8802e+02 ;    H5S - C15    - C14   
   386    389    390      1    1.1005e+02    3.8802e+02 ;    C14 - C13    - H3R   
   386    389    391      1    1.1005e+02    3.8802e+02 ;    C14 - C13    - H3S   
   386    389    392      1    1.1205e+02    3.9497e+02 ;    C14 - C13    - C12   
   387    386    388      1    1.0835e+02    3.2995e+02 ;    H4R - C14    - H4S   
   387    386    389      1    1.1005e+02    3.8802e+02 ;    H4R - C14    - C13   
   388    386    389      1    1.1005e+02    3.8802e+02 ;    H4S - C14    - C13   
   389    392    393      1    1.1005e+02    3.8802e+02 ;    C13 - C12    - H2R   
   389    392    394      1    1.1005e+02    3.8802e+02 ;    C13 - C12    - H2S   
   389    392    395      1    1.1053e+02    5.3379e+02 ;    C13 - C12    - C11   
   390    389    391      1    1.0835e+02    3.2995e+02 ;    H3R - C13    - H3S   
   390    389    392      1    1.1005e+02    3.8802e+02 ;    H3R - C13    - C12   
   391    389    392      1    1.1005e+02    3.8802e+02 ;    H3S - C13    - C12   
   392    395    396      1    1.2311e+02    5.6928e+02 ;    C12 - C11    - O12   
   392    395    397      1    1.1196e+02    5.7957e+02 ;    C12 - C11    - O11   
   393    392    394      1    1.0835e+02    3.2995e+02 ;    H2R - C12    - H2S   
   393    392    395      1    1.0968e+02    3.9497e+02 ;    H2R - C12    - C11   
   394    392    395      1    1.0968e+02    3.9497e+02 ;    H2S - C12    - C11   
   395    397    398      1    1.1514e+02    5.3246e+02 ;    C11 - O11    - C1    
   396    395    397      1    1.2333e+02    6.3538e+02 ;    O12 - C11    - O11   
   397    398    399      1    1.0882e+02    4.2543e+02 ;    O11 - C1     - HR    
   397    398    400      1    1.0882e+02    4.2543e+02 ;    O11 - C1     - HS    
   397    398    401      1    1.0842e+02    5.6718e+02 ;    O11 - C1     - C2    
   398    401    402      1    1.1007e+02    3.8794e+02 ;     C1 - C2     - HX    
   398    401    403      1    1.1063e+02    5.2894e+02 ;     C1 - C2     - C3    
   398    401    430      1    1.0842e+02    5.6718e+02 ;     C1 - C2     - O21   
   399    398    400      1    1.0955e+02    3.2786e+02 ;     HR - C1     - HS    
   399    398    401      1    1.1007e+02    3.8794e+02 ;     HR - C1     - C2    
   400    398    401      1    1.1007e+02    3.8794e+02 ;     HS - C1     - C2    
   401    403    404      1    1.1007e+02    3.8794e+02 ;     C2 - C3     - HA    
   401    403    405      1    1.1007e+02    3.8794e+02 ;     C2 - C3     - HB    
   401    403    406      1    1.0842e+02    5.6718e+02 ;     C2 - C3     - O31   
   401    430    431      1    1.1514e+02    5.3246e+02 ;     C2 - O21    - C21   
   402    401    403      1    1.1007e+02    3.8794e+02 ;     HX - C2     - C3    
   402    401    430      1    1.0882e+02    4.2543e+02 ;     HX - C2     - O21   
   403    401    430      1    1.0842e+02    5.6718e+02 ;     C3 - C2     - O21   
   403    406    407      1    1.2050e+02    8.3680e+02 ;     C3 - O31    - P31   
   404    403    405      1    1.0955e+02    3.2786e+02 ;     HA - C3     - HB    
   404    403    406      1    1.0882e+02    4.2543e+02 ;     HA - C3     - O31   
   405    403    406      1    1.0882e+02    4.2543e+02 ;     HB - C3     - O31   
   406    407    408      1    1.0260e+02    7.5312e+02 ;    O31 - P31    - O32   
   406    407    428      1    1.0823e+02    8.3680e+02 ;    O31 - P31    - O33   
   406    407    429      1    1.0823e+02    8.3680e+02 ;    O31 - P31    - O34   
   407    408    409      1    1.2050e+02    8.3680e+02 ;    P31 - O32    - C31   
   408    407    428      1    1.0823e+02    8.3680e+02 ;    O32 - P31    - O33   
   408    407    429      1    1.0823e+02    8.3680e+02 ;    O32 - P31    - O34   
   408    409    410      1    1.0882e+02    4.2543e+02 ;    O32 - C31    - H1A   
   408    409    411      1    1.0882e+02    4.2543e+02 ;    O32 - C31    - H1B   
   408    409    412      1    1.0842e+02    5.6718e+02 ;    O32 - C31    - C32   
   409    412    413      1    1.1174e+02    3.8510e+02 ;    C31 - C32    - H2A   
   409    412    414      1    1.1174e+02    3.8510e+02 ;    C31 - C32    - H2B   
   409    412    415      1    1.1432e+02    5.3932e+02 ;    C31 - C32    - N31   
   410    409    411      1    1.0955e+02    3.2786e+02 ;    H1A - C31    - H1B   
   410    409    412      1    1.1007e+02    3.8794e+02 ;    H1A - C31    - C32   
   411    409    412      1    1.1007e+02    3.8794e+02 ;    H1B - C31    - C32   
   412    415    416      1    1.1064e+02    5.2585e+02 ;    C32 - N31    - C33   
   412    415    420      1    1.1064e+02    5.2585e+02 ;    C32 - N31    - C34   
   412    415    424      1    1.1064e+02    5.2585e+02 ;    C32 - N31    - C35   
   413    412    414      1    1.1074e+02    3.2669e+02 ;    H2A - C32    - H2B   
   413    412    415      1    1.0791e+02    4.1020e+02 ;    H2A - C32    - N31   
   414    412    415      1    1.0791e+02    4.1020e+02 ;    H2B - C32    - N31   
   415    416    417      1    1.0791e+02    4.1020e+02 ;    N31 - C33    - H3A   
   415    416    418      1    1.0791e+02    4.1020e+02 ;    N31 - C33    - H3B   
   415    416    419      1    1.0791e+02    4.1020e+02 ;    N31 - C33    - H3C   
   415    420    421      1    1.0791e+02    4.1020e+02 ;    N31 - C34    - H4A   
   415    420    422      1    1.0791e+02    4.1020e+02 ;    N31 - C34    - H4B   
   415    420    423      1    1.0791e+02    4.1020e+02 ;    N31 - C34    - H4C   
   415    424    425      1    1.0791e+02    4.1020e+02 ;    N31 - C35    - H5A   
   415    424    426      1    1.0791e+02    4.1020e+02 ;    N31 - C35    - H5B   
   415    424    427      1    1.0791e+02    4.1020e+02 ;    N31 - C35    - H5C   
   416    415    420      1    1.1064e+02    5.2585e+02 ;    C33 - N31    - C34   
   416    415    424      1    1.1064e+02    5.2585e+02 ;    C33 - N31    - C35   
   417    416    418      1    1.1074e+02    3.2669e+02 ;    H3A - C33    - H3B   
   417    416    419      1    1.1074e+02    3.2669e+02 ;    H3A - C33    - H3C   
   418    416    419      1    1.1074e+02    3.2669e+02 ;    H3B - C33    - H3C   
   420    415    424      1    1.1064e+02    5.2585e+02 ;    C34 - N31    - C35   
   421    420    422      1    1.1074e+02    3.2669e+02 ;    H4A - C34    - H4B   
   421    420    423      1    1.1074e+02    3.2669e+02 ;    H4A - C34    - H4C   
   422    420    423      1    1.1074e+02    3.2669e+02 ;    H4B - C34    - H4C   
   425    424    426      1    1.1074e+02    3.2669e+02 ;    H5A - C35    - H5B   
   425    424    427      1    1.1074e+02    3.2669e+02 ;    H5A - C35    - H5C   
   426    424    427      1    1.1074e+02    3.2669e+02 ;    H5B - C35    - H5C   
   428    407    429      1    1.1990e+02    1.1715e+03 ;    O33 - P31    - O34   
   430    431    432      1    1.2333e+02    6.3538e+02 ;    O21 - C21    - O22   
   430    431    470      1    1.1196e+02    5.7957e+02 ;    O21 - C21    - C12   
   431    470    467      1    1.1053e+02    5.3379e+02 ;    C21 - C12    - C13   
   431    470    471      1    1.0968e+02    3.9497e+02 ;    C21 - C12    - H2R   
   431    470    472      1    1.0968e+02    3.9497e+02 ;    C21 - C12    - H2S   
   432    431    470      1    1.2311e+02    5.6928e+02 ;    O22 - C21    - C12   
   433    434    435      1    1.0835e+02    3.2995e+02 ;   H14T - C114   - H14R  
   433    434    436      1    1.0835e+02    3.2995e+02 ;   H14T - C114   - H14S  
   433    434    437      1    1.1005e+02    3.8802e+02 ;   H14T - C114   - C113  
   434    437    438      1    1.1005e+02    3.8802e+02 ;   C114 - C113   - H13R  
   434    437    439      1    1.1005e+02    3.8802e+02 ;   C114 - C113   - H13S  
   434    437    440      1    1.1205e+02    3.9497e+02 ;   C114 - C113   - C112  
   435    434    436      1    1.0835e+02    3.2995e+02 ;   H14R - C114   - H14S  
   435    434    437      1    1.1005e+02    3.8802e+02 ;   H14R - C114   - C113  
   436    434    437      1    1.1005e+02    3.8802e+02 ;   H14S - C114   - C113  
   437    440    441      1    1.1005e+02    3.8802e+02 ;   C113 - C112   - H12R  
   437    440    442      1    1.1005e+02    3.8802e+02 ;   C113 - C112   - H12S  
   437    440    443      1    1.1205e+02    3.9497e+02 ;   C113 - C112   - C111  
   438    437    439      1    1.0835e+02    3.2995e+02 ;   H13R - C113   - H13S  
   438    437    440      1    1.1005e+02    3.8802e+02 ;   H13R - C113   - C112  
   439    437    440      1    1.1005e+02    3.8802e+02 ;   H13S - C113   - C112  
   440    443    444      1    1.1005e+02    3.8802e+02 ;   C112 - C111   - H11R  
   440    443    445      1    1.1005e+02    3.8802e+02 ;   C112 - C111   - H11S  
   440    443    446      1    1.1205e+02    3.9497e+02 ;   C112 - C111   - C110  
   441    440    442      1    1.0835e+02    3.2995e+02 ;   H12R - C112   - H12S  
   441    440    443      1    1.1005e+02    3.8802e+02 ;   H12R - C112   - C111  
   442    440    443      1    1.1005e+02    3.8802e+02 ;   H12S - C112   - C111  
   443    446    447      1    1.1005e+02    3.8802e+02 ;   C111 - C110   - H10R  
   443    446    448      1    1.1005e+02    3.8802e+02 ;   C111 - C110   - H10S  
   443    446    449      1    1.1205e+02    3.9497e+02 ;   C111 - C110   - C19   
   444    443    445      1    1.0835e+02    3.2995e+02 ;   H11R - C111   - H11S  
   444    443    446      1    1.1005e+02    3.8802e+02 ;   H11R - C111   - C110  
   445    443    446      1    1.1005e+02    3.8802e+02 ;   H11S - C111   - C110  
   446    449    450      1    1.1005e+02    3.8802e+02 ;   C110 - C19    - H9R   
   446    449    451      1    1.1005e+02    3.8802e+02 ;   C110 - C19    - H9S   
   446    449    452      1    1.1205e+02    3.9497e+02 ;   C110 - C19    - C18   
   447    446    448      1    1.0835e+02    3.2995e+02 ;   H10R - C110   - H10S  
   447    446    449      1    1.1005e+02    3.8802e+02 ;   H10R - C110   - C19   
   448    446    449      1    1.1005e+02    3.8802e+02 ;   H10S - C110   - C19   
   449    452    453      1    1.1005e+02    3.8802e+02 ;    C19 - C18    - H8R   
   449    452    454      1    1.1005e+02    3.8802e+02 ;    C19 - C18    - H8S   
   449    452    455      1    1.1205e+02    3.9497e+02 ;    C19 - C18    - C17   
   450    449    451      1    1.0835e+02    3.2995e+02 ;    H9R - C19    - H9S   
   450    449    452      1    1.1005e+02    3.8802e+02 ;    H9R - C19    - C18   
   451    449    452      1    1.1005e+02    3.8802e+02 ;    H9S - C19    - C18   
   452    455    456      1    1.1005e+02    3.8802e+02 ;    C18 - C17    - H7R   
   452    455    457      1    1.1005e+02    3.8802e+02 ;    C18 - C17    - H7S   
   452    455    458      1    1.1205e+02    3.9497e+02 ;    C18 - C17    - C16   
   453    452    454      1    1.0835e+02    3.2995e+02 ;    H8R - C18    - H8S   
   453    452    455      1    1.1005e+02    3.8802e+02 ;    H8R - C18    - C17   
   454    452    455      1    1.1005e+02    3.8802e+02 ;    H8S - C18    - C17   
   455    458    459      1    1.1005e+02    3.8802e+02 ;    C17 - C16    - H6R   
   455    458    460      1    1.1005e+02    3.8802e+02 ;    C17 - C16    - H6S   
   455    458    461      1    1.1205e+02    3.9497e+02 ;    C17 - C16    - C15   
   456    455    457      1    1.0835e+02    3.2995e+02 ;    H7R - C17    - H7S   
   456    455    458      1    1.1005e+02    3.8802e+02 ;    H7R - C17    - C16   
   457    455    458      1    1.1005e+02    3.8802e+02 ;    H7S - C17    - C16   
   458    461    462      1    1.1005e+02    3.8802e+02 ;    C16 - C15    - H5R   
   458    461    463      1    1.1005e+02    3.8802e+02 ;    C16 - C15    - H5S   
   458    461    464      1    1.1205e+02    3.9497e+02 ;    C16 - C15    - C14   
   459    458    460      1    1.0835e+02    3.2995e+02 ;    H6R - C16    - H6S   
   459    458    461      1    1.1005e+02    3.8802e+02 ;    H6R - C16    - C15   
   460    458    461      1    1.1005e+02    3.8802e+02 ;    H6S - C16    - C15   
   461    464    465      1    1.1005e+02    3.8802e+02 ;    C15 - C14    - H4R   
   461    464    466      1    1.1005e+02    3.8802e+02 ;    C15 - C14    - H4S   
   461    464    467      1    1.1205e+02    3.9497e+02 ;    C15 - C14    - C13   
   462    461    463      1    1.0835e+02    3.2995e+02 ;    H5R - C15    - H5S   
   462    461    464      1    1.1005e+02    3.8802e+02 ;    H5R - C15    - C14   
   463    461    464      1    1.1005e+02    3.8802e+02 ;    H5S - C15    - C14   
   464    467    468      1    1.1005e+02    3.8802e+02 ;    C14 - C13    - H3R   
   464    467    469      1    1.1005e+02    3.8802e+02 ;    C14 - C13    - H3S   
   464    467    470      1    1.1205e+02    3.9497e+02 ;    C14 - C13    - C12   
   465    464    466      1    1.0835e+02    3.2995e+02 ;    H4R - C14    - H4S   
   465    464    467      1    1.1005e+02    3.8802e+02 ;    H4R - C14    - C13   
   466    464    467      1    1.1005e+02    3.8802e+02 ;    H4S - C14    - C13   
   467    470    471      1    1.1005e+02    3.8802e+02 ;    C13 - C12    - H2R   
   467    470    472      1    1.1005e+02    3.8802e+02 ;    C13 - C12    - H2S   
   468    467    469      1    1.0835e+02    3.2995e+02 ;    H3R - C13    - H3S   
   468    467    470      1    1.1005e+02    3.8802e+02 ;    H3R - C13    - C12   
   469    467    470      1    1.1005e+02    3.8802e+02 ;    H3S - C13    - C12   
   471    470    472      1    1.0835e+02    3.2995e+02 ;    H2R - C12    - H2S   
   473    474    475      1    1.0835e+02    3.2995e+02 ;   H14T - C114   - H14R  
   473    474    476      1    1.0835e+02    3.2995e+02 ;   H14T - C114   - H14S  
   473    474    477      1    1.1005e+02    3.8802e+02 ;   H14T - C114   - C113  
   474    477    478      1    1.1005e+02    3.8802e+02 ;   C114 - C113   - H13R  
   474    477    479      1    1.1005e+02    3.8802e+02 ;   C114 - C113   - H13S  
   474    477    480      1    1.1205e+02    3.9497e+02 ;   C114 - C113   - C112  
   475    474    476      1    1.0835e+02    3.2995e+02 ;   H14R - C114   - H14S  
   475    474    477      1    1.1005e+02    3.8802e+02 ;   H14R - C114   - C113  
   476    474    477      1    1.1005e+02    3.8802e+02 ;   H14S - C114   - C113  
   477    480    481      1    1.1005e+02    3.8802e+02 ;   C113 - C112   - H12R  
   477    480    482      1    1.1005e+02    3.8802e+02 ;   C113 - C112   - H12S  
   477    480    483      1    1.1205e+02    3.9497e+02 ;   C113 - C112   - C111  
   478    477    479      1    1.0835e+02    3.2995e+02 ;   H13R - C113   - H13S  
   478    477    480      1    1.1005e+02    3.8802e+02 ;   H13R - C113   - C112  
   479    477    480      1    1.1005e+02    3.8802e+02 ;   H13S - C113   - C112  
   480    483    484      1    1.1005e+02    3.8802e+02 ;   C112 - C111   - H11R  
   480    483    485      1    1.1005e+02    3.8802e+02 ;   C112 - C111   - H11S  
   480    483    486      1    1.1205e+02    3.9497e+02 ;   C112 - C111   - C110  
   481    480    482      1    1.0835e+02    3.2995e+02 ;   H12R - C112   - H12S  
   481    480    483      1    1.1005e+02    3.8802e+02 ;   H12R - C112   - C111  
   482    480    483      1    1.1005e+02    3.8802e+02 ;   H12S - C112   - C111  
   483    486    487      1    1.1005e+02    3.8802e+02 ;   C111 - C110   - H10R  
   483    486    488      1    1.1005e+02    3.8802e+02 ;   C111 - C110   - H10S  
   483    486    489      1    1.1205e+02    3.9497e+02 ;   C111 - C110   - C19   
   484    483    485      1    1.0835e+02    3.2995e+02 ;   H11R - C111   - H11S  
   484    483    486      1    1.1005e+02    3.8802e+02 ;   H11R - C111   - C110  
   485    483    486      1    1.1005e+02    3.8802e+02 ;   H11S - C111   - C110  
   486    489    490      1    1.1005e+02    3.8802e+02 ;   C110 - C19    - H9R   
   486    489    491      1    1.1005e+02    3.8802e+02 ;   C110 - C19    - H9S   
   486    489    492      1    1.1205e+02    3.9497e+02 ;   C110 - C19    - C18   
   487    486    488      1    1.0835e+02    3.2995e+02 ;   H10R - C110   - H10S  
   487    486    489      1    1.1005e+02    3.8802e+02 ;   H10R - C110   - C19   
   488    486    489      1    1.1005e+02    3.8802e+02 ;   H10S - C110   - C19   
   489    492    493      1    1.1005e+02    3.8802e+02 ;    C19 - C18    - H8R   
   489    492    494      1    1.1005e+02    3.8802e+02 ;    C19 - C18    - H8S   
   489    492    495      1    1.1205e+02    3.9497e+02 ;    C19 - C18    - C17   
   490    489    491      1    1.0835e+02    3.2995e+02 ;    H9R - C19    - H9S   
   490    489    492      1    1.1005e+02    3.8802e+02 ;    H9R - C19    - C18   
   491    489    492      1    1.1005e+02    3.8802e+02 ;    H9S - C19    - C18   
   492    495    496      1    1.1005e+02    3.8802e+02 ;    C18 - C17    - H7R   
   492    495    497      1    1.1005e+02    3.8802e+02 ;    C18 - C17    - H7S   
   492    495    498      1    1.1205e+02    3.9497e+02 ;    C18 - C17    - C16   
   493    492    494      1    1.0835e+02    3.2995e+02 ;    H8R - C18    - H8S   
   493    492    495      1    1.1005e+02    3.8802e+02 ;    H8R - C18    - C17   
   494    492    495      1    1.1005e+02    3.8802e+02 ;    H8S - C18    - C17   
   495    498    499      1    1.1005e+02    3.8802e+02 ;    C17 - C16    - H6R   
   495    498    500      1    1.1005e+02    3.8802e+02 ;    C17 - C16    - H6S   
   495    498    501      1    1.1205e+02    3.9497e+02 ;    C17 - C16    - C15   
   496    495    497      1    1.0835e+02    3.2995e+02 ;    H7R - C17    - H7S   
   496    495    498      1    1.1005e+02    3.8802e+02 ;    H7R - C17    - C16   
   497    495    498      1    1.1005e+02    3.8802e+02 ;    H7S - C17    - C16   
   498    501    502      1    1.1005e+02    3.8802e+02 ;    C16 - C15    - H5R   
   498    501    503      1    1.1005e+02    3.8802e+02 ;    C16 - C15    - H5S   
   498    501    504      1    1.1205e+02    3.9497e+02 ;    C16 - C15    - C14   
   499    498    500      1    1.0835e+02    3.2995e+02 ;    H6R - C16    - H6S   
   499    498    501      1    1.1005e+02    3.8802e+02 ;    H6R - C16    - C15   
   500    498    501      1    1.1005e+02    3.8802e+02 ;    H6S - C16    - C15   
   501    504    505      1    1.1005e+02    3.8802e+02 ;    C15 - C14    - H4R   
   501    504    506      1    1.1005e+02    3.8802e+02 ;    C15 - C14    - H4S   
   501    504    507      1    1.1205e+02    3.9497e+02 ;    C15 - C14    - C13   
   502    501    503      1    1.0835e+02    3.2995e+02 ;    H5R - C15    - H5S   
   502    501    504      1    1.1005e+02    3.8802e+02 ;    H5R - C15    - C14   
   503    501    504      1    1.1005e+02    3.8802e+02 ;    H5S - C15    - C14   
   504    507    508      1    1.1005e+02    3.8802e+02 ;    C14 - C13    - H3R   
   504    507    509      1    1.1005e+02    3.8802e+02 ;    C14 - C13    - H3S   
   504    507    510      1    1.1205e+02    3.9497e+02 ;    C14 - C13    - C12   
   505    504    506      1    1.0835e+02    3.2995e+02 ;    H4R - C14    - H4S   
   505    504    507      1    1.1005e+02    3.8802e+02 ;    H4R - C14    - C13   
   506    504    507      1    1.1005e+02    3.8802e+02 ;    H4S - C14    - C13   
   507    510    511      1    1.1005e+02    3.8802e+02 ;    C13 - C12    - H2R   
   507    510    512      1    1.1005e+02    3.8802e+02 ;    C13 - C12    - H2S   
   507    510    513      1    1.1053e+02    5.3379e+02 ;    C13 - C12    - C11   
   508    507    509      1    1.0835e+02    3.2995e+02 ;    H3R - C13    - H3S   
   508    507    510      1    1.1005e+02    3.8802e+02 ;    H3R - C13    - C12   
   509    507    510      1    1.1005e+02    3.8802e+02 ;    H3S - C13    - C12   
   510    513    514      1    1.2311e+02    5.6928e+02 ;    C12 - C11    - O12   
   510    513    515      1    1.1196e+02    5.7957e+02 ;    C12 - C11    - O11   
   511    510    512      1    1.0835e+02    3.2995e+02 ;    H2R - C12    - H2S   
   511    510    513      1    1.0968e+02    3.9497e+02 ;    H2R - C12    - C11   
   512    510    513      1    1.0968e+02    3.9497e+02 ;    H2S - C12    - C11   
   513    515    516      1    1.1514e+02    5.3246e+02 ;    C11 - O11    - C1    
   514    513    515      1    1.2333e+02    6.3538e+02 ;    O12 - C11    - O11   
   515    516    517      1    1.0882e+02    4.2543e+02 ;    O11 - C1     - HR    
   515    516    518      1    1.0882e+02    4.2543e+02 ;    O11 - C1     - HS    
   515    516    519      1    1.0842e+02    5.6718e+02 ;    O11 - C1     - C2    
   516    519    520      1    1.1007e+02    3.8794e+02 ;     C1 - C2     - HX    
   516    519    521      1    1.1063e+02    5.2894e+02 ;     C1 - C2     - C3    
   516    519    548      1    1.0842e+02    5.6718e+02 ;     C1 - C2     - O21   
   517    516    518      1    1.0955e+02    3.2786e+02 ;     HR - C1     - HS    
   517    516    519      1    1.1007e+02    3.8794e+02 ;     HR - C1     - C2    
   518    516    519      1    1.1007e+02    3.8794e+02 ;     HS - C1     - C2    
   519    521    522      1    1.1007e+02    3.8794e+02 ;     C2 - C3     - HA    
   519    521    523      1    1.1007e+02    3.8794e+02 ;     C2 - C3     - HB    
   519    521    524      1    1.0842e+02    5.6718e+02 ;     C2 - C3     - O31   
   519    548    549      1    1.1514e+02    5.3246e+02 ;     C2 - O21    - C21   
   520    519    521      1    1.1007e+02    3.8794e+02 ;     HX - C2     - C3    
   520    519    548      1    1.0882e+02    4.2543e+02 ;     HX - C2     - O21   
   521    519    548      1    1.0842e+02    5.6718e+02 ;     C3 - C2     - O21   
   521    524    525      1    1.2050e+02    8.3680e+02 ;     C3 - O31    - P31   
   522    521    523      1    1.0955e+02    3.2786e+02 ;     HA - C3     - HB    
   522    521    524      1    1.0882e+02    4.2543e+02 ;     HA - C3     - O31   
   523    521    524      1    1.0882e+02    4.2543e+02 ;     HB - C3     - O31   
   524    525    526      1    1.0260e+02    7.5312e+02 ;    O31 - P31    - O32   
   524    525    546      1    1.0823e+02    8.3680e+02 ;    O31 - P31    - O33   
   524    525    547      1    1.0823e+02    8.3680e+02 ;    O31 - P31    - O34   
   525    526    527      1    1.2050e+02    8.3680e+02 ;    P31 - O32    - C31   
   526    525    546      1    1.0823e+02    8.3680e+02 ;    O32 - P31    - O33   
   526    525    547      1    1.0823e+02    8.3680e+02 ;    O32 - P31    - O34   
   526    527    528      1    1.0882e+02    4.2543e+02 ;    O32 - C31    - H1A   
   526    527    529      1    1.0882e+02    4.2543e+02 ;    O32 - C31    - H1B   
   526    527    530      1    1.0842e+02    5.6718e+02 ;    O32 - C31    - C32   
   527    530    531      1    1.1174e+02    3.8510e+02 ;    C31 - C32    - H2A   
   527    530    532      1    1.1174e+02    3.8510e+02 ;    C31 - C32    - H2B   
   527    530    533      1    1.1432e+02    5.3932e+02 ;    C31 - C32    - N31   
   528    527    529      1    1.0955e+02    3.2786e+02 ;    H1A - C31    - H1B   
   528    527    530      1    1.1007e+02    3.8794e+02 ;    H1A - C31    - C32   
   529    527    530      1    1.1007e+02    3.8794e+02 ;    H1B - C31    - C32   
   530    533    534      1    1.1064e+02    5.2585e+02 ;    C32 - N31    - C33   
   530    533    538      1    1.1064e+02    5.2585e+02 ;    C32 - N31    - C34   
   530    533    542      1    1.1064e+02    5.2585e+02 ;    C32 - N31    - C35   
   531    530    532      1    1.1074e+02    3.2669e+02 ;    H2A - C32    - H2B   
   531    530    533      1    1.0791e+02    4.1020e+02 ;    H2A - C32    - N31   
   532    530    533      1    1.0791e+02    4.1020e+02 ;    H2B - C32    - N31   
   533    534    535      1    1.0791e+02    4.1020e+02 ;    N31 - C33    - H3A   
   533    534    536      1    1.0791e+02    4.1020e+02 ;    N31 - C33    - H3B   
   533    534    537      1    1.0791e+02    4.1020e+02 ;    N31 - C33    - H3C   
   533    538    539      1    1.0791e+02    4.1020e+02 ;    N31 - C34    - H4A   
   533    538    540      1    1.0791e+02    4.1020e+02 ;    N31 - C34    - H4B   
   533    538    541      1    1.0791e+02    4.1020e+02 ;    N31 - C34    - H4C   
   533    542    543      1    1.0791e+02    4.1020e+02 ;    N31 - C35    - H5A   
   533    542    544      1    1.0791e+02    4.1020e+02 ;    N31 - C35    - H5B   
   533    542    545      1    1.0791e+02    4.1020e+02 ;    N31 - C35    - H5C   
   534    533    538      1    1.1064e+02    5.2585e+02 ;    C33 - N31    - C34   
   534    533    542      1    1.1064e+02    5.2585e+02 ;    C33 - N31    - C35   
   535    534    536      1    1.1074e+02    3.2669e+02 ;    H3A - C33    - H3B   
   535    534    537      1    1.1074e+02    3.2669e+02 ;    H3A - C33    - H3C   
   536    534    537      1    1.1074e+02    3.2669e+02 ;    H3B - C33    - H3C   
   538    533    542      1    1.1064e+02    5.2585e+02 ;    C34 - N31    - C35   
   539    538    540      1    1.1074e+02    3.2669e+02 ;    H4A - C34    - H4B   
   539    538    541      1    1.1074e+02    3.2669e+02 ;    H4A - C34    - H4C   
   540    538    541      1    1.1074e+02    3.2669e+02 ;    H4B - C34    - H4C   
   543    542    544      1    1.1074e+02    3.2669e+02 ;    H5A - C35    - H5B   
   543    542    545      1    1.1074e+02    3.2669e+02 ;    H5A - C35    - H5C   
   544    542    545      1    1.1074e+02    3.2669e+02 ;    H5B - C35    - H5C   
   546    525    547      1    1.1990e+02    1.1715e+03 ;    O33 - P31    - O34   
   548    549    550      1    1.2333e+02    6.3538e+02 ;    O21 - C21    - O22   
   548    549    588      1    1.1196e+02    5.7957e+02 ;    O21 - C21    - C12   
   549    588    585      1    1.1053e+02    5.3379e+02 ;    C21 - C12    - C13   
   549    588    589      1    1.0968e+02    3.9497e+02 ;    C21 - C12    - H2R   
   549    588    590      1    1.0968e+02    3.9497e+02 ;    C21 - C12    - H2S   
   550    549    588      1    1.2311e+02    5.6928e+02 ;    O22 - C21    - C12   
   551    552    553      1    1.0835e+02    3.2995e+02 ;   H14T - C114   - H14R  
   551    552    554      1    1.0835e+02    3.2995e+02 ;   H14T - C114   - H14S  
   551    552    555      1    1.1005e+02    3.8802e+02 ;   H14T - C114   - C113  
   552    555    556      1    1.1005e+02    3.8802e+02 ;   C114 - C113   - H13R  
   552    555    557      1    1.1005e+02    3.8802e+02 ;   C114 - C113   - H13S  
   552    555    558      1    1.1205e+02    3.9497e+02 ;   C114 - C113   - C112  
   553    552    554      1    1.0835e+02    3.2995e+02 ;   H14R - C114   - H14S  
   553    552    555      1    1.1005e+02    3.8802e+02 ;   H14R - C114   - C113  
   554    552    555      1    1.1005e+02    3.8802e+02 ;   H14S - C114   - C113  
   555    558    559      1    1.1005e+02    3.8802e+02 ;   C113 - C112   - H12R  
   555    558    560      1    1.1005e+02    3.8802e+02 ;   C113 - C112   - H12S  
   555    558    561      1    1.1205e+02    3.9497e+02 ;   C113 - C112   - C111  
   556    555    557      1    1.0835e+02    3.2995e+02 ;   H13R - C113   - H13S  
   556    555    558      1    1.1005e+02    3.8802e+02 ;   H13R - C113   - C112  
   557    555    558      1    1.1005e+02    3.8802e+02 ;   H13S - C113   - C112  
   558    561    562      1    1.1005e+02    3.8802e+02 ;   C112 - C111   - H11R  
   558    561    563      1    1.1005e+02    3.8802e+02 ;   C112 - C111   - H11S  
   558    561    564      1    1.1205e+02    3.9497e+02 ;   C112 - C111   - C110  
   559    558    560      1    1.0835e+02    3.2995e+02 ;   H12R - C112   - H12S  
   559    558    561      1    1.1005e+02    3.8802e+02 ;   H12R - C112   - C111  
   560    558    561      1    1.1005e+02    3.8802e+02 ;   H12S - C112   - C111  
   561    564    565      1    1.1005e+02    3.8802e+02 ;   C111 - C110   - H10R  
   561    564    566      1    1.1005e+02    3.8802e+02 ;   C111 - C110   - H10S  
   561    564    567      1    1.1205e+02    3.9497e+02 ;   C111 - C110   - C19   
   562    561    563      1    1.0835e+02    3.2995e+02 ;   H11R - C111   - H11S  
   562    561    564      1    1.1005e+02    3.8802e+02 ;   H11R - C111   - C110  
   563    561    564      1    1.1005e+02    3.8802e+02 ;   H11S - C111   - C110  
   564    567    568      1    1.1005e+02    3.8802e+02 ;   C110 - C19    - H9R   
   564    567    569      1    1.1005e+02    3.8802e+02 ;   C110 - C19    - H9S   
   564    567    570      1    1.1205e+02    3.9497e+02 ;   C110 - C19    - C18   
   565    564    566      1    1.0835e+02    3.2995e+02 ;   H10R - C110   - H10S  
   565    564    567      1    1.1005e+02    3.8802e+02 ;   H10R - C110   - C19   
   566    564    567      1    1.1005e+02    3.8802e+02 ;   H10S - C110   - C19   
   567    570    571      1    1.1005e+02    3.8802e+02 ;    C19 - C18    - H8R   
   567    570    572      1    1.1005e+02    3.8802e+02 ;    C19 - C18    - H8S   
   567    570    573      1    1.1205e+02    3.9497e+02 ;    C19 - C18    - C17   
   568    567    569      1    1.0835e+02    3.2995e+02 ;    H9R - C19    - H9S   
   568    567    570      1    1.1005e+02    3.8802e+02 ;    H9R - C19    - C18   
   569    567    570      1    1.1005e+02    3.8802e+02 ;    H9S - C19    - C18   
   570    573    574      1    1.1005e+02    3.8802e+02 ;    C18 - C17    - H7R   
   570    573    575      1    1.1005e+02    3.8802e+02 ;    C18 - C17    - H7S   
   570    573    576      1    1.1205e+02    3.9497e+02 ;    C18 - C17    - C16   
   571    570    572      1    1.0835e+02    3.2995e+02 ;    H8R - C18    - H8S   
   571    570    573      1    1.1005e+02    3.8802e+02 ;    H8R - C18    - C17   
   572    570    573      1    1.1005e+02    3.8802e+02 ;    H8S - C18    - C17   
   573    576    577      1    1.1005e+02    3.8802e+02 ;    C17 - C16    - H6R   
   573    576    578      1    1.1005e+02    3.8802e+02 ;    C17 - C16    - H6S   
   573    576    579      1    1.1205e+02    3.9497e+02 ;    C17 - C16    - C15   
   574    573    575      1    1.0835e+02    3.2995e+02 ;    H7R - C17    - H7S   
   574    573    576      1    1.1005e+02    3.8802e+02 ;    H7R - C17    - C16   
   575    573    576      1    1.1005e+02    3.8802e+02 ;    H7S - C17    - C16   
   576    579    580      1    1.1005e+02    3.8802e+02 ;    C16 - C15    - H5R   
   576    579    581      1    1.1005e+02    3.8802e+02 ;    C16 - C15    - H5S   
   576    579    582      1    1.1205e+02    3.9497e+02 ;    C16 - C15    - C14   
   577    576    578      1    1.0835e+02    3.2995e+02 ;    H6R - C16    - H6S   
   577    576    579      1    1.1005e+02    3.8802e+02 ;    H6R - C16    - C15   
   578    576    579      1    1.1005e+02    3.8802e+02 ;    H6S - C16    - C15   
   579    582    583      1    1.1005e+02    3.8802e+02 ;    C15 - C14    - H4R   
   579    582    584      1    1.1005e+02    3.8802e+02 ;    C15 - C14    - H4S   
   579    582    585      1    1.1205e+02    3.9497e+02 ;    C15 - C14    - C13   
   580    579    581      1    1.0835e+02    3.2995e+02 ;    H5R - C15    - H5S   
   580    579    582      1    1.1005e+02    3.8802e+02 ;    H5R - C15    - C14   
   581    579    582      1    1.1005e+02    3.8802e+02 ;    H5S - C15    - C14   
   582    585    586      1    1.1005e+02    3.8802e+02 ;    C14 - C13    - H3R   
   582    585    587      1    1.1005e+02    3.8802e+02 ;    C14 - C13    - H3S   
   582    585    588      1    1.1205e+02    3.9497e+02 ;    C14 - C13    - C12   
   583    582    584      1    1.0835e+02    3.2995e+02 ;    H4R - C14    - H4S   
   583    582    585      1    1.1005e+02    3.8802e+02 ;    H4R - C14    - C13   
   584    582    585      1    1.1005e+02    3.8802e+02 ;    H4S - C14    - C13   
   585    588    589      1    1.1005e+02    3.8802e+02 ;    C13 - C12    - H2R   
   585    588    590      1    1.1005e+02    3.8802e+02 ;    C13 - C12    - H2S   
   586    585    587      1    1.0835e+02    3.2995e+02 ;    H3R - C13    - H3S   
   586    585    588      1    1.1005e+02    3.8802e+02 ;    H3R - C13    - C12   
   587    585    588      1    1.1005e+02    3.8802e+02 ;    H3S - C13    - C12   
   589    588    590      1    1.0835e+02    3.2995e+02 ;    H2R - C12    - H2S   
   591    592    593      1    1.0835e+02    3.2995e+02 ;   H14T - C114   - H14R  
   591    592    594      1    1.0835e+02    3.2995e+02 ;   H14T - C114   - H14S  
   591    592    595      1    1.1005e+02    3.8802e+02 ;   H14T - C114   - C113  
   592    595    596      1    1.1005e+02    3.8802e+02 ;   C114 - C113   - H13R  
   592    595    597      1    1.1005e+02    3.8802e+02 ;   C114 - C113   - H13S  
   592    595    598      1    1.1205e+02    3.9497e+02 ;   C114 - C113   - C112  
   593    592    594      1    1.0835e+02    3.2995e+02 ;   H14R - C114   - H14S  
   593    592    595      1    1.1005e+02    3.8802e+02 ;   H14R - C114   - C113  
   594    592    595      1    1.1005e+02    3.8802e+02 ;   H14S - C114   - C113  
   595    598    599      1    1.1005e+02    3.8802e+02 ;   C113 - C112   - H12R  
   595    598    600      1    1.1005e+02    3.8802e+02 ;   C113 - C112   - H12S  
   595    598    601      1    1.1205e+02    3.9497e+02 ;   C113 - C112   - C111  
   596    595    597      1    1.0835e+02    3.2995e+02 ;   H13R - C113   - H13S  
   596    595    598      1    1.1005e+02    3.8802e+02 ;   H13R - C113   - C112  
   597    595    598      1    1.1005e+02    3.8802e+02 ;   H13S - C113   - C112  
   598    601    602      1    1.1005e+02    3.8802e+02 ;   C112 - C111   - H11R  
   598    601    603      1    1.1005e+02    3.8802e+02 ;   C112 - C111   - H11S  
   598    601    604      1    1.1205e+02    3.9497e+02 ;   C112 - C111   - C110  
   599    598    600      1    1.0835e+02    3.2995e+02 ;   H12R - C112   - H12S  
   599    598    601      1    1.1005e+02    3.8802e+02 ;   H12R - C112   - C111  
   600    598    601      1    1.1005e+02    3.8802e+02 ;   H12S - C112   - C111  
   601    604    605      1    1.1005e+02    3.8802e+02 ;   C111 - C110   - H10R  
   601    604    606      1    1.1005e+02    3.8802e+02 ;   C111 - C110   - H10S  
   601    604    607      1    1.1205e+02    3.9497e+02 ;   C111 - C110   - C19   
   602    601    603      1    1.0835e+02    3.2995e+02 ;   H11R - C111   - H11S  
   602    601    604      1    1.1005e+02    3.8802e+02 ;   H11R - C111   - C110  
   603    601    604      1    1.1005e+02    3.8802e+02 ;   H11S - C111   - C110  
   604    607    608      1    1.1005e+02    3.8802e+02 ;   C110 - C19    - H9R   
   604    607    609      1    1.1005e+02    3.8802e+02 ;   C110 - C19    - H9S   
   604    607    610      1    1.1205e+02    3.9497e+02 ;   C110 - C19    - C18   
   605    604    606      1    1.0835e+02    3.2995e+02 ;   H10R - C110   - H10S  
   605    604    607      1    1.1005e+02    3.8802e+02 ;   H10R - C110   - C19   
   606    604    607      1    1.1005e+02    3.8802e+02 ;   H10S - C110   - C19   
   607    610    611      1    1.1005e+02    3.8802e+02 ;    C19 - C18    - H8R   
   607    610    612      1    1.1005e+02    3.8802e+02 ;    C19 - C18    - H8S   
   607    610    613      1    1.1205e+02    3.9497e+02 ;    C19 - C18    - C17   
   608    607    609      1    1.0835e+02    3.2995e+02 ;    H9R - C19    - H9S   
   608    607    610      1    1.1005e+02    3.8802e+02 ;    H9R - C19    - C18   
   609    607    610      1    1.1005e+02    3.8802e+02 ;    H9S - C19    - C18   
   610    613    614      1    1.1005e+02    3.8802e+02 ;    C18 - C17    - H7R   
   610    613    615      1    1.1005e+02    3.8802e+02 ;    C18 - C17    - H7S   
   610    613    616      1    1.1205e+02    3.9497e+02 ;    C18 - C17    - C16   
   611    610    612      1    1.0835e+02    3.2995e+02 ;    H8R - C18    - H8S   
   611    610    613      1    1.1005e+02    3.8802e+02 ;    H8R - C18    - C17   
   612    610    613      1    1.1005e+02    3.8802e+02 ;    H8S - C18    - C17   
   613    616    617      1    1.1005e+02    3.8802e+02 ;    C17 - C16    - H6R   
   613    616    618      1    1.1005e+02    3.8802e+02 ;    C17 - C16    - H6S   
   613    616    619      1    1.1205e+02    3.9497e+02 ;    C17 - C16    - C15   
   614    613    615      1    1.0835e+02    3.2995e+02 ;    H7R - C17    - H7S   
   614    613    616      1    1.1005e+02    3.8802e+02 ;    H7R - C17    - C16   
   615    613    616      1    1.1005e+02    3.8802e+02 ;    H7S - C17    - C16   
   616    619    620      1    1.1005e+02    3.8802e+02 ;    C16 - C15    - H5R   
   616    619    621      1    1.1005e+02    3.8802e+02 ;    C16 - C15    - H5S   
   616    619    622      1    1.1205e+02    3.9497e+02 ;    C16 - C15    - C14   
   617    616    618      1    1.0835e+02    3.2995e+02 ;    H6R - C16    - H6S   
   617    616    619      1    1.1005e+02    3.8802e+02 ;    H6R - C16    - C15   
   618    616    619      1    1.1005e+02    3.8802e+02 ;    H6S - C16    - C15   
   619    622    623      1    1.1005e+02    3.8802e+02 ;    C15 - C14    - H4R   
   619    622    624      1    1.1005e+02    3.8802e+02 ;    C15 - C14    - H4S   
   619    622    625      1    1.1205e+02    3.9497e+02 ;    C15 - C14    - C13   
   620    619    621      1    1.0835e+02    3.2995e+02 ;    H5R - C15    - H5S   
   620    619    622      1    1.1005e+02    3.8802e+02 ;    H5R - C15    - C14   
   621    619    622      1    1.1005e+02    3.8802e+02 ;    H5S - C15    - C14   
   622    625    626      1    1.1005e+02    3.8802e+02 ;    C14 - C13    - H3R   
   622    625    627      1    1.1005e+02    3.8802e+02 ;    C14 - C13    - H3S   
   622    625    628      1    1.1205e+02    3.9497e+02 ;    C14 - C13    - C12   
   623    622    624      1    1.0835e+02    3.2995e+02 ;    H4R - C14    - H4S   
   623    622    625      1    1.1005e+02    3.8802e+02 ;    H4R - C14    - C13   
   624    622    625      1    1.1005e+02    3.8802e+02 ;    H4S - C14    - C13   
   625    628    629      1    1.1005e+02    3.8802e+02 ;    C13 - C12    - H2R   
   625    628    630      1    1.1005e+02    3.8802e+02 ;    C13 - C12    - H2S   
   625    628    631      1    1.1053e+02    5.3379e+02 ;    C13 - C12    - C11   
   626    625    627      1    1.0835e+02    3.2995e+02 ;    H3R - C13    - H3S   
   626    625    628      1    1.1005e+02    3.8802e+02 ;    H3R - C13    - C12   
   627    625    628      1    1.1005e+02    3.8802e+02 ;    H3S - C13    - C12   
   628    631    632      1    1.2311e+02    5.6928e+02 ;    C12 - C11    - O12   
   628    631    633      1    1.1196e+02    5.7957e+02 ;    C12 - C11    - O11   
   629    628    630      1    1.0835e+02    3.2995e+02 ;    H2R - C12    - H2S   
   629    628    631      1    1.0968e+02    3.9497e+02 ;    H2R - C12    - C11   
   630    628    631      1    1.0968e+02    3.9497e+02 ;    H2S - C12    - C11   
   631    633    634      1    1.1514e+02    5.3246e+02 ;    C11 - O11    - C1    
   632    631    633      1    1.2333e+02    6.3538e+02 ;    O12 - C11    - O11   
   633    634    635      1    1.0882e+02    4.2543e+02 ;    O11 - C1     - HR    
   633    634    636      1    1.0882e+02    4.2543e+02 ;    O11 - C1     - HS    
   633    634    637      1    1.0842e+02    5.6718e+02 ;    O11 - C1     - C2    
   634    637    638      1    1.1007e+02    3.8794e+02 ;     C1 - C2     - HX    
   634    637    639      1    1.1063e+02    5.2894e+02 ;     C1 - C2     - C3    
   634    637    666      1    1.0842e+02    5.6718e+02 ;     C1 - C2     - O21   
   635    634    636      1    1.0955e+02    3.2786e+02 ;     HR - C1     - HS    
   635    634    637      1    1.1007e+02    3.8794e+02 ;     HR - C1     - C2    
   636    634    637      1    1.1007e+02    3.8794e+02 ;     HS - C1     - C2    
   637    639    640      1    1.1007e+02    3.8794e+02 ;     C2 - C3     - HA    
   637    639    641      1    1.1007e+02    3.8794e+02 ;     C2 - C3     - HB    
   637    639    642      1    1.0842e+02    5.6718e+02 ;     C2 - C3     - O31   
   637    666    667      1    1.1514e+02    5.3246e+02 ;     C2 - O21    - C21   
   638    637    639      1    1.1007e+02    3.8794e+02 ;     HX - C2     - C3    
   638    637    666      1    1.0882e+02    4.2543e+02 ;     HX - C2     - O21   
   639    637    666      1    1.0842e+02    5.6718e+02 ;     C3 - C2     - O21   
   639    642    643      1    1.2050e+02    8.3680e+02 ;     C3 - O31    - P31   
   640    639    641      1    1.0955e+02    3.2786e+02 ;     HA - C3     - HB    
   640    639    642      1    1.0882e+02    4.2543e+02 ;     HA - C3     - O31   
   641    639    642      1    1.0882e+02    4.2543e+02 ;     HB - C3     - O31   
   642    643    644      1    1.0260e+02    7.5312e+02 ;    O31 - P31    - O32   
   642    643    664      1    1.0823e+02    8.3680e+02 ;    O31 - P31    - O33   
   642    643    665      1    1.0823e+02    8.3680e+02 ;    O31 - P31    - O34   
   643    644    645      1    1.2050e+02    8.3680e+02 ;    P31 - O32    - C31   
   644    643    664      1    1.0823e+02    8.3680e+02 ;    O32 - P31    - O33   
   644    643    665      1    1.0823e+02    8.3680e+02 ;    O32 - P31    - O34   
   644    645    646      1    1.0882e+02    4.2543e+02 ;    O32 - C31    - H1A   
   644    645    647      1    1.0882e+02    4.2543e+02 ;    O32 - C31    - H1B   
   644    645    648      1    1.0842e+02    5.6718e+02 ;    O32 - C31    - C32   
   645    648    649      1    1.1174e+02    3.8510e+02 ;    C31 - C32    - H2A   
   645    648    650      1    1.1174e+02    3.8510e+02 ;    C31 - C32    - H2B   
   645    648    651      1    1.1432e+02    5.3932e+02 ;    C31 - C32    - N31   
   646    645    647      1    1.0955e+02    3.2786e+02 ;    H1A - C31    - H1B   
   646    645    648      1    1.1007e+02    3.8794e+02 ;    H1A - C31    - C32   
   647    645    648      1    1.1007e+02    3.8794e+02 ;    H1B - C31    - C32   
   648    651    652      1    1.1064e+02    5.2585e+02 ;    C32 - N31    - C33   
   648    651    656      1    1.1064e+02    5.2585e+02 ;    C32 - N31    - C34   
   648    651    660      1    1.1064e+02    5.2585e+02 ;    C32 - N31    - C35   
   649    648    650      1    1.1074e+02    3.2669e+02 ;    H2A - C32    - H2B   
   649    648    651      1    1.0791e+02    4.1020e+02 ;    H2A - C32    - N31   
   650    648    651      1    1.0791e+02    4.1020e+02 ;    H2B - C32    - N31   
   651    652    653      1    1.0791e+02    4.1020e+02 ;    N31 - C33    - H3A   
   651    652    654      1    1.0791e+02    4.1020e+02 ;    N31 - C33    - H3B   
   651    652    655      1    1.0791e+02    4.1020e+02 ;    N31 - C33    - H3C   
   651    656    657      1    1.0791e+02    4.1020e+02 ;    N31 - C34    - H4A   
   651    656    658      1    1.0791e+02    4.1020e+02 ;    N31 - C34    - H4B   
   651    656    659      1    1.0791e+02    4.1020e+02 ;    N31 - C34    - H4C   
   651    660    661      1    1.0791e+02    4.1020e+02 ;    N31 - C35    - H5A   
   651    660    662      1    1.0791e+02    4.1020e+02 ;    N31 - C35    - H5B   
   651    660    663      1    1.0791e+02    4.1020e+02 ;    N31 - C35    - H5C   
   652    651    656      1    1.1064e+02    5.2585e+02 ;    C33 - N31    - C34   
   652    651    660      1    1.1064e+02    5.2585e+02 ;    C33 - N31    - C35   
   653    652    654      1    1.1074e+02    3.2669e+02 ;    H3A - C33    - H3B   
   653    652    655      1    1.1074e+02    3.2669e+02 ;    H3A - C33    - H3C   
   654    652    655      1    1.1074e+02    3.2669e+02 ;    H3B - C33    - H3C   
   656    651    660      1    1.1064e+02    5.2585e+02 ;    C34 - N31    - C35   
   657    656    658      1    1.1074e+02    3.2669e+02 ;    H4A - C34    - H4B   
   657    656    659      1    1.1074e+02    3.2669e+02 ;    H4A - C34    - H4C   
   658    656    659      1    1.1074e+02    3.2669e+02 ;    H4B - C34    - H4C   
   661    660    662      1    1.1074e+02    3.2669e+02 ;    H5A - C35    - H5B   
   661    660    663      1    1.1074e+02    3.2669e+02 ;    H5A - C35    - H5C   
   662    660    663      1    1.1074e+02    3.2669e+02 ;    H5B - C35    - H5C   
   664    643    665      1    1.1990e+02    1.1715e+03 ;    O33 - P31    - O34   
   666    667    668      1    1.2333e+02    6.3538e+02 ;    O21 - C21    - O22   
   666    667    706      1    1.1196e+02    5.7957e+02 ;    O21 - C21    - C12   
   667    706    703      1    1.1053e+02    5.3379e+02 ;    C21 - C12    - C13   
   667    706    707      1    1.0968e+02    3.9497e+02 ;    C21 - C12    - H2R   
   667    706    708      1    1.0968e+02    3.9497e+02 ;    C21 - C12    - H2S   
   668    667    706      1    1.2311e+02    5.6928e+02 ;    O22 - C21    - C12   
   669    670    671      1    1.0835e+02    3.2995e+02 ;   H14T - C114   - H14R  
   669    670    672      1    1.0835e+02    3.2995e+02 ;   H14T - C114   - H14S  
   669    670    673      1    1.1005e+02    3.8802e+02 ;   H14T - C114   - C113  
   670    673    674      1    1.1005e+02    3.8802e+02 ;   C114 - C113   - H13R  
   670    673    675      1    1.1005e+02    3.8802e+02 ;   C114 - C113   - H13S  
   670    673    676      1    1.1205e+02    3.9497e+02 ;   C114 - C113   - C112  
   671    670    672      1    1.0835e+02    3.2995e+02 ;   H14R - C114   - H14S  
   671    670    673      1    1.1005e+02    3.8802e+02 ;   H14R - C114   - C113  
   672    670    673      1    1.1005e+02    3.8802e+02 ;   H14S - C114   - C113  
   673    676    677      1    1.1005e+02    3.8802e+02 ;   C113 - C112   - H12R  
   673    676    678      1    1.1005e+02    3.8802e+02 ;   C113 - C112   - H12S  
   673    676    679      1    1.1205e+02    3.9497e+02 ;   C113 - C112   - C111  
   674    673    675      1    1.0835e+02    3.2995e+02 ;   H13R - C113   - H13S  
   674    673    676      1    1.1005e+02    3.8802e+02 ;   H13R - C113   - C112  
   675    673    676      1    1.1005e+02    3.8802e+02 ;   H13S - C113   - C112  
   676    679    680      1    1.1005e+02    3.8802e+02 ;   C112 - C111   - H11R  
   676    679    681      1    1.1005e+02    3.8802e+02 ;   C112 - C111   - H11S  
   676    679    682      1    1.1205e+02    3.9497e+02 ;   C112 - C111   - C110  
   677    676    678      1    1.0835e+02    3.2995e+02 ;   H12R - C112   - H12S  
   677    676    679      1    1.1005e+02    3.8802e+02 ;   H12R - C112   - C111  
   678    676    679      1    1.1005e+02    3.8802e+02 ;   H12S - C112   - C111  
   679    682    683      1    1.1005e+02    3.8802e+02 ;   C111 - C110   - H10R  
   679    682    684      1    1.1005e+02    3.8802e+02 ;   C111 - C110   - H10S  
   679    682    685      1    1.1205e+02    3.9497e+02 ;   C111 - C110   - C19   
   680    679    681      1    1.0835e+02    3.2995e+02 ;   H11R - C111   - H11S  
   680    679    682      1    1.1005e+02    3.8802e+02 ;   H11R - C111   - C110  
   681    679    682      1    1.1005e+02    3.8802e+02 ;   H11S - C111   - C110  
   682    685    686      1    1.1005e+02    3.8802e+02 ;   C110 - C19    - H9R   
   682    685    687      1    1.1005e+02    3.8802e+02 ;   C110 - C19    - H9S   
   682    685    688      1    1.1205e+02    3.9497e+02 ;   C110 - C19    - C18   
   683    682    684      1    1.0835e+02    3.2995e+02 ;   H10R - C110   - H10S  
   683    682    685      1    1.1005e+02    3.8802e+02 ;   H10R - C110   - C19   
   684    682    685      1    1.1005e+02    3.8802e+02 ;   H10S - C110   - C19   
   685    688    689      1    1.1005e+02    3.8802e+02 ;    C19 - C18    - H8R   
   685    688    690      1    1.1005e+02    3.8802e+02 ;    C19 - C18    - H8S   
   685    688    691      1    1.1205e+02    3.9497e+02 ;    C19 - C18    - C17   
   686    685    687      1    1.0835e+02    3.2995e+02 ;    H9R - C19    - H9S   
   686    685    688      1    1.1005e+02    3.8802e+02 ;    H9R - C19    - C18   
   687    685    688      1    1.1005e+02    3.8802e+02 ;    H9S - C19    - C18   
   688    691    692      1    1.1005e+02    3.8802e+02 ;    C18 - C17    - H7R   
   688    691    693      1    1.1005e+02    3.8802e+02 ;    C18 - C17    - H7S   
   688    691    694      1    1.1205e+02    3.9497e+02 ;    C18 - C17    - C16   
   689    688    690      1    1.0835e+02    3.2995e+02 ;    H8R - C18    - H8S   
   689    688    691      1    1.1005e+02    3.8802e+02 ;    H8R - C18    - C17   
   690    688    691      1    1.1005e+02    3.8802e+02 ;    H8S - C18    - C17   
   691    694    695      1    1.1005e+02    3.8802e+02 ;    C17 - C16    - H6R   
   691    694    696      1    1.1005e+02    3.8802e+02 ;    C17 - C16    - H6S   
   691    694    697      1    1.1205e+02    3.9497e+02 ;    C17 - C16    - C15   
   692    691    693      1    1.0835e+02    3.2995e+02 ;    H7R - C17    - H7S   
   692    691    694      1    1.1005e+02    3.8802e+02 ;    H7R - C17    - C16   
   693    691    694      1    1.1005e+02    3.8802e+02 ;    H7S - C17    - C16   
   694    697    698      1    1.1005e+02    3.8802e+02 ;    C16 - C15    - H5R   
   694    697    699      1    1.1005e+02    3.8802e+02 ;    C16 - C15    - H5S   
   694    697    700      1    1.1205e+02    3.9497e+02 ;    C16 - C15    - C14   
   695    694    696      1    1.0835e+02    3.2995e+02 ;    H6R - C16    - H6S   
   695    694    697      1    1.1005e+02    3.8802e+02 ;    H6R - C16    - C15   
   696    694    697      1    1.1005e+02    3.8802e+02 ;    H6S - C16    - C15   
   697    700    701      1    1.1005e+02    3.8802e+02 ;    C15 - C14    - H4R   
   697    700    702      1    1.1005e+02    3.8802e+02 ;    C15 - C14    - H4S   
   697    700    703      1    1.1205e+02    3.9497e+02 ;    C15 - C14    - C13   
   698    697    699      1    1.0835e+02    3.2995e+02 ;    H5R - C15    - H5S   
   698    697    700      1    1.1005e+02    3.8802e+02 ;    H5R - C15    - C14   
   699    697    700      1    1.1005e+02    3.8802e+02 ;    H5S - C15    - C14   
   700    703    704      1    1.1005e+02    3.8802e+02 ;    C14 - C13    - H3R   
   700    703    705      1    1.1005e+02    3.8802e+02 ;    C14 - C13    - H3S   
   700    703    706      1    1.1205e+02    3.9497e+02 ;    C14 - C13    - C12   
   701    700    702      1    1.0835e+02    3.2995e+02 ;    H4R - C14    - H4S   
   701    700    703      1    1.1005e+02    3.8802e+02 ;    H4R - C14    - C13   
   702    700    703      1    1.1005e+02    3.8802e+02 ;    H4S - C14    - C13   
   703    706    707      1    1.1005e+02    3.8802e+02 ;    C13 - C12    - H2R   
   703    706    708      1    1.1005e+02    3.8802e+02 ;    C13 - C12    - H2S   
   704    703    705      1    1.0835e+02    3.2995e+02 ;    H3R - C13    - H3S   
   704    703    706      1    1.1005e+02    3.8802e+02 ;    H3R - C13    - C12   
   705    703    706      1    1.1005e+02    3.8802e+02 ;    H3S - C13    - C12   
   707    706    708      1    1.0835e+02    3.2995e+02 ;    H2R - C12    - H2S   
   709    710    711      1    1.0835e+02    3.2995e+02 ;   H14T - C114   - H14R  
   709    710    712      1    1.0835e+02    3.2995e+02 ;   H14T - C114   - H14S  
   709    710    713      1    1.1005e+02    3.8802e+02 ;   H14T - C114   - C113  
   710    713    714      1    1.1005e+02    3.8802e+02 ;   C114 - C113   - H13R  
   710    713    715      1    1.1005e+02    3.8802e+02 ;   C114 - C113   - H13S  
   710    713    716      1    1.1205e+02    3.9497e+02 ;   C114 - C113   - C112  
   711    710    712      1    1.0835e+02    3.2995e+02 ;   H14R - C114   - H14S  
   711    710    713      1    1.1005e+02    3.8802e+02 ;   H14R - C114   - C113  
   712    710    713      1    1.1005e+02    3.8802e+02 ;   H14S - C114   - C113  
   713    716    717      1    1.1005e+02    3.8802e+02 ;   C113 - C112   - H12R  
   713    716    718      1    1.1005e+02    3.8802e+02 ;   C113 - C112   - H12S  
   713    716    719      1    1.1205e+02    3.9497e+02 ;   C113 - C112   - C111  
   714    713    715      1    1.0835e+02    3.2995e+02 ;   H13R - C113   - H13S  
   714    713    716      1    1.1005e+02    3.8802e+02 ;   H13R - C113   - C112  
   715    713    716      1    1.1005e+02    3.8802e+02 ;   H13S - C113   - C112  
   716    719    720      1    1.1005e+02    3.8802e+02 ;   C112 - C111   - H11R  
   716    719    721      1    1.1005e+02    3.8802e+02 ;   C112 - C111   - H11S  
   716    719    722      1    1.1205e+02    3.9497e+02 ;   C112 - C111   - C110  
   717    716    718      1    1.0835e+02    3.2995e+02 ;   H12R - C112   - H12S  
   717    716    719      1    1.1005e+02    3.8802e+02 ;   H12R - C112   - C111  
   718    716    719      1    1.1005e+02    3.8802e+02 ;   H12S - C112   - C111  
   719    722    723      1    1.1005e+02    3.8802e+02 ;   C111 - C110   - H10R  
   719    722    724      1    1.1005e+02    3.8802e+02 ;   C111 - C110   - H10S  
   719    722    725      1    1.1205e+02    3.9497e+02 ;   C111 - C110   - C19   
   720    719    721      1    1.0835e+02    3.2995e+02 ;   H11R - C111   - H11S  
   720    719    722      1    1.1005e+02    3.8802e+02 ;   H11R - C111   - C110  
   721    719    722      1    1.1005e+02    3.8802e+02 ;   H11S - C111   - C110  
   722    725    726      1    1.1005e+02    3.8802e+02 ;   C110 - C19    - H9R   
   722    725    727      1    1.1005e+02    3.8802e+02 ;   C110 - C19    - H9S   
   722    725    728      1    1.1205e+02    3.9497e+02 ;   C110 - C19    - C18   
   723    722    724      1    1.0835e+02    3.2995e+02 ;   H10R - C110   - H10S  
   723    722    725      1    1.1005e+02    3.8802e+02 ;   H10R - C110   - C19   
   724    722    725      1    1.1005e+02    3.8802e+02 ;   H10S - C110   - C19   
   725    728    729      1    1.1005e+02    3.8802e+02 ;    C19 - C18    - H8R   
   725    728    730      1    1.1005e+02    3.8802e+02 ;    C19 - C18    - H8S   
   725    728    731      1    1.1205e+02    3.9497e+02 ;    C19 - C18    - C17   
   726    725    727      1    1.0835e+02    3.2995e+02 ;    H9R - C19    - H9S   
   726    725    728      1    1.1005e+02    3.8802e+02 ;    H9R - C19    - C18   
   727    725    728      1    1.1005e+02    3.8802e+02 ;    H9S - C19    - C18   
   728    731    732      1    1.1005e+02    3.8802e+02 ;    C18 - C17    - H7R   
   728    731    733      1    1.1005e+02    3.8802e+02 ;    C18 - C17    - H7S   
   728    731    734      1    1.1205e+02    3.9497e+02 ;    C18 - C17    - C16   
   729    728    730      1    1.0835e+02    3.2995e+02 ;    H8R - C18    - H8S   
   729    728    731      1    1.1005e+02    3.8802e+02 ;    H8R - C18    - C17   
   730    728    731      1    1.1005e+02    3.8802e+02 ;    H8S - C18    - C17   
   731    734    735      1    1.1005e+02    3.8802e+02 ;    C17 - C16    - H6R   
   731    734    736      1    1.1005e+02    3.8802e+02 ;    C17 - C16    - H6S   
   731    734    737      1    1.1205e+02    3.9497e+02 ;    C17 - C16    - C15   
   732    731    733      1    1.0835e+02    3.2995e+02 ;    H7R - C17    - H7S   
   732    731    734      1    1.1005e+02    3.8802e+02 ;    H7R - C17    - C16   
   733    731    734      1    1.1005e+02    3.8802e+02 ;    H7S - C17    - C16   
   734    737    738      1    1.1005e+02    3.8802e+02 ;    C16 - C15    - H5R   
   734    737    739      1    1.1005e+02    3.8802e+02 ;    C16 - C15    - H5S   
   734    737    740      1    1.1205e+02    3.9497e+02 ;    C16 - C15    - C14   
   735    734    736      1    1.0835e+02    3.2995e+02 ;    H6R - C16    - H6S   
   735    734    737      1    1.1005e+02    3.8802e+02 ;    H6R - C16    - C15   
   736    734    737      1    1.1005e+02    3.8802e+02 ;    H6S - C16    - C15   
   737    740    741      1    1.1005e+02    3.8802e+02 ;    C15 - C14    - H4R   
   737    740    742      1    1.1005e+02    3.8802e+02 ;    C15 - C14    - H4S   
   737    740    743      1    1.1205e+02    3.9497e+02 ;    C15 - C14    - C13   
   738    737    739      1    1.0835e+02    3.2995e+02 ;    H5R - C15    - H5S   
   738    737    740      1    1.1005e+02    3.8802e+02 ;    H5R - C15    - C14   
   739    737    740      1    1.1005e+02    3.8802e+02 ;    H5S - C15    - C14   
   740    743    744      1    1.1005e+02    3.8802e+02 ;    C14 - C13    - H3R   
   740    743    745      1    1.1005e+02    3.8802e+02 ;    C14 - C13    - H3S   
   740    743    746      1    1.1205e+02    3.9497e+02 ;    C14 - C13    - C12   
   741    740    742      1    1.0835e+02    3.2995e+02 ;    H4R - C14    - H4S   
   741    740    743      1    1.1005e+02    3.8802e+02 ;    H4R - C14    - C13   
   742    740    743      1    1.1005e+02    3.8802e+02 ;    H4S - C14    - C13   
   743    746    747      1    1.1005e+02    3.8802e+02 ;    C13 - C12    - H2R   
   743    746    748      1    1.1005e+02    3.8802e+02 ;    C13 - C12    - H2S   
   743    746    749      1    1.1053e+02    5.3379e+02 ;    C13 - C12    - C11   
   744    743    745      1    1.0835e+02    3.2995e+02 ;    H3R - C13    - H3S   
   744    743    746      1    1.1005e+02    3.8802e+02 ;    H3R - C13    - C12   
   745    743    746      1    1.1005e+02    3.8802e+02 ;    H3S - C13    - C12   
   746    749    750      1    1.2311e+02    5.6928e+02 ;    C12 - C11    - O12   
   746    749    751      1    1.1196e+02    5.7957e+02 ;    C12 - C11    - O11   
   747    746    748      1    1.0835e+02    3.2995e+02 ;    H2R - C12    - H2S   
   747    746    749      1    1.0968e+02    3.9497e+02 ;    H2R - C12    - C11   
   748    746    749      1    1.0968e+02    3.9497e+02 ;    H2S - C12    - C11   
   749    751    752      1    1.1514e+02    5.3246e+02 ;    C11 - O11    - C1    
   750    749    751      1    1.2333e+02    6.3538e+02 ;    O12 - C11    - O11   
   751    752    753      1    1.0882e+02    4.2543e+02 ;    O11 - C1     - HR    
   751    752    754      1    1.0882e+02    4.2543e+02 ;    O11 - C1     - HS    
   751    752    755      1    1.0842e+02    5.6718e+02 ;    O11 - C1     - C2    
   752    755    756      1    1.1007e+02    3.8794e+02 ;     C1 - C2     - HX    
   752    755    757      1    1.1063e+02    5.2894e+02 ;     C1 - C2     - C3    
   752    755    784      1    1.0842e+02    5.6718e+02 ;     C1 - C2     - O21   
   753    752    754      1    1.0955e+02    3.2786e+02 ;     HR - C1     - HS    
   753    752    755      1    1.1007e+02    3.8794e+02 ;     HR - C1     - C2    
   754    752    755      1    1.1007e+02    3.8794e+02 ;     HS - C1     - C2    
   755    757    758      1    1.1007e+02    3.8794e+02 ;     C2 - C3     - HA    
   755    757    759      1    1.1007e+02    3.8794e+02 ;     C2 - C3     - HB    
   755    757    760      1    1.0842e+02    5.6718e+02 ;     C2 - C3     - O31   
   755    784    785      1    1.1514e+02    5.3246e+02 ;     C2 - O21    - C21   
   756    755    757      1    1.1007e+02    3.8794e+02 ;     HX - C2     - C3    
   756    755    784      1    1.0882e+02    4.2543e+02 ;     HX - C2     - O21   
   757    755    784      1    1.0842e+02    5.6718e+02 ;     C3 - C2     - O21   
   757    760    761      1    1.2050e+02    8.3680e+02 ;     C3 - O31    - P31   
   758    757    759      1    1.0955e+02    3.2786e+02 ;     HA - C3     - HB    
   758    757    760      1    1.0882e+02    4.2543e+02 ;     HA - C3     - O31   
   759    757    760      1    1.0882e+02    4.2543e+02 ;     HB - C3     - O31   
   760    761    762      1    1.0260e+02    7.5312e+02 ;    O31 - P31    - O32   
   760    761    782      1    1.0823e+02    8.3680e+02 ;    O31 - P31    - O33   
   760    761    783      1    1.0823e+02    8.3680e+02 ;    O31 - P31    - O34   
   761    762    763      1    1.2050e+02    8.3680e+02 ;    P31 - O32    - C31   
   762    761    782      1    1.0823e+02    8.3680e+02 ;    O32 - P31    - O33   
   762    761    783      1    1.0823e+02    8.3680e+02 ;    O32 - P31    - O34   
   762    763    764      1    1.0882e+02    4.2543e+02 ;    O32 - C31    - H1A   
   762    763    765      1    1.0882e+02    4.2543e+02 ;    O32 - C31    - H1B   
   762    763    766      1    1.0842e+02    5.6718e+02 ;    O32 - C31    - C32   
   763    766    767      1    1.1174e+02    3.8510e+02 ;    C31 - C32    - H2A   
   763    766    768      1    1.1174e+02    3.8510e+02 ;    C31 - C32    - H2B   
   763    766    769      1    1.1432e+02    5.3932e+02 ;    C31 - C32    - N31   
   764    763    765      1    1.0955e+02    3.2786e+02 ;    H1A - C31    - H1B   
   764    763    766      1    1.1007e+02    3.8794e+02 ;    H1A - C31    - C32   
   765    763    766      1    1.1007e+02    3.8794e+02 ;    H1B - C31    - C32   
   766    769    770      1    1.1064e+02    5.2585e+02 ;    C32 - N31    - C33   
   766    769    774      1    1.1064e+02    5.2585e+02 ;    C32 - N31    - C34   
   766    769    778      1    1.1064e+02    5.2585e+02 ;    C32 - N31    - C35   
   767    766    768      1    1.1074e+02    3.2669e+02 ;    H2A - C32    - H2B   
   767    766    769      1    1.0791e+02    4.1020e+02 ;    H2A - C32    - N31   
   768    766    769      1    1.0791e+02    4.1020e+02 ;    H2B - C32    - N31   
   769    770    771      1    1.0791e+02    4.1020e+02 ;    N31 - C33    - H3A   
   769    770    772      1    1.0791e+02    4.1020e+02 ;    N31 - C33    - H3B   
   769    770    773      1    1.0791e+02    4.1020e+02 ;    N31 - C33    - H3C   
   769    774    775      1    1.0791e+02    4.1020e+02 ;    N31 - C34    - H4A   
   769    774    776      1    1.0791e+02    4.1020e+02 ;    N31 - C34    - H4B   
   769    774    777      1    1.0791e+02    4.1020e+02 ;    N31 - C34    - H4C   
   769    778    779      1    1.0791e+02    4.1020e+02 ;    N31 - C35    - H5A   
   769    778    780      1    1.0791e+02    4.1020e+02 ;    N31 - C35    - H5B   
   769    778    781      1    1.0791e+02    4.1020e+02 ;    N31 - C35    - H5C   
   770    769    774      1    1.1064e+02    5.2585e+02 ;    C33 - N31    - C34   
   770    769    778      1    1.1064e+02    5.2585e+02 ;    C33 - N31    - C35   
   771    770    772      1    1.1074e+02    3.2669e+02 ;    H3A - C33    - H3B   
   771    770    773      1    1.1074e+02    3.2669e+02 ;    H3A - C33    - H3C   
   772    770    773      1    1.1074e+02    3.2669e+02 ;    H3B - C33    - H3C   
   774    769    778      1    1.1064e+02    5.2585e+02 ;    C34 - N31    - C35   
   775    774    776      1    1.1074e+02    3.2669e+02 ;    H4A - C34    - H4B   
   775    774    777      1    1.1074e+02    3.2669e+02 ;    H4A - C34    - H4C   
   776    774    777      1    1.1074e+02    3.2669e+02 ;    H4B - C34    - H4C   
   779    778    780      1    1.1074e+02    3.2669e+02 ;    H5A - C35    - H5B   
   779    778    781      1    1.1074e+02    3.2669e+02 ;    H5A - C35    - H5C   
   780    778    781      1    1.1074e+02    3.2669e+02 ;    H5B - C35    - H5C   
   782    761    783      1    1.1990e+02    1.1715e+03 ;    O33 - P31    - O34   
   784    785    786      1    1.2333e+02    6.3538e+02 ;    O21 - C21    - O22   
   784    785    824      1    1.1196e+02    5.7957e+02 ;    O21 - C21    - C12   
   785    824    821      1    1.1053e+02    5.3379e+02 ;    C21 - C12    - C13   
   785    824    825      1    1.0968e+02    3.9497e+02 ;    C21 - C12    - H2R   
   785    824    826      1    1.0968e+02    3.9497e+02 ;    C21 - C12    - H2S   
   786    785    824      1    1.2311e+02    5.6928e+02 ;    O22 - C21    - C12   
   787    788    789      1    1.0835e+02    3.2995e+02 ;   H14T - C114   - H14R  
   787    788    790      1    1.0835e+02    3.2995e+02 ;   H14T - C114   - H14S  
   787    788    791      1    1.1005e+02    3.8802e+02 ;   H14T - C114   - C113  
   788    791    792      1    1.1005e+02    3.8802e+02 ;   C114 - C113   - H13R  
   788    791    793      1    1.1005e+02    3.8802e+02 ;   C114 - C113   - H13S  
   788    791    794      1    1.1205e+02    3.9497e+02 ;   C114 - C113   - C112  
   789    788    790      1    1.0835e+02    3.2995e+02 ;   H14R - C114   - H14S  
   789    788    791      1    1.1005e+02    3.8802e+02 ;   H14R - C114   - C113  
   790    788    791      1    1.1005e+02    3.8802e+02 ;   H14S - C114   - C113  
   791    794    795      1    1.1005e+02    3.8802e+02 ;   C113 - C112   - H12R  
   791    794    796      1    1.1005e+02    3.8802e+02 ;   C113 - C112   - H12S  
   791    794    797      1    1.1205e+02    3.9497e+02 ;   C113 - C112   - C111  
   792    791    793      1    1.0835e+02    3.2995e+02 ;   H13R - C113   - H13S  
   792    791    794      1    1.1005e+02    3.8802e+02 ;   H13R - C113   - C112  
   793    791    794      1    1.1005e+02    3.8802e+02 ;   H13S - C113   - C112  
   794    797    798      1    1.1005e+02    3.8802e+02 ;   C112 - C111   - H11R  
   794    797    799      1    1.1005e+02    3.8802e+02 ;   C112 - C111   - H11S  
   794    797    800      1    1.1205e+02    3.9497e+02 ;   C112 - C111   - C110  
   795    794    796      1    1.0835e+02    3.2995e+02 ;   H12R - C112   - H12S  
   795    794    797      1    1.1005e+02    3.8802e+02 ;   H12R - C112   - C111  
   796    794    797      1    1.1005e+02    3.8802e+02 ;   H12S - C112   - C111  
   797    800    801      1    1.1005e+02    3.8802e+02 ;   C111 - C110   - H10R  
   797    800    802      1    1.1005e+02    3.8802e+02 ;   C111 - C110   - H10S  
   797    800    803      1    1.1205e+02    3.9497e+02 ;   C111 - C110   - C19   
   798    797    799      1    1.0835e+02    3.2995e+02 ;   H11R - C111   - H11S  
   798    797    800      1    1.1005e+02    3.8802e+02 ;   H11R - C111   - C110  
   799    797    800      1    1.1005e+02    3.8802e+02 ;   H11S - C111   - C110  
   800    803    804      1    1.1005e+02    3.8802e+02 ;   C110 - C19    - H9R   
   800    803    805      1    1.1005e+02    3.8802e+02 ;   C110 - C19    - H9S   
   800    803    806      1    1.1205e+02    3.9497e+02 ;   C110 - C19    - C18   
   801    800    802      1    1.0835e+02    3.2995e+02 ;   H10R - C110   - H10S  
   801    800    803      1    1.1005e+02    3.8802e+02 ;   H10R - C110   - C19   
   802    800    803      1    1.1005e+02    3.8802e+02 ;   H10S - C110   - C19   
   803    806    807      1    1.1005e+02    3.8802e+02 ;    C19 - C18    - H8R   
   803    806    808      1    1.1005e+02    3.8802e+02 ;    C19 - C18    - H8S   
   803    806    809      1    1.1205e+02    3.9497e+02 ;    C19 - C18    - C17   
   804    803    805      1    1.0835e+02    3.2995e+02 ;    H9R - C19    - H9S   
   804    803    806      1    1.1005e+02    3.8802e+02 ;    H9R - C19    - C18   
   805    803    806      1    1.1005e+02    3.8802e+02 ;    H9S - C19    - C18   
   806    809    810      1    1.1005e+02    3.8802e+02 ;    C18 - C17    - H7R   
   806    809    811      1    1.1005e+02    3.8802e+02 ;    C18 - C17    - H7S   
   806    809    812      1    1.1205e+02    3.9497e+02 ;    C18 - C17    - C16   
   807    806    808      1    1.0835e+02    3.2995e+02 ;    H8R - C18    - H8S   
   807    806    809      1    1.1005e+02    3.8802e+02 ;    H8R - C18    - C17   
   808    806    809      1    1.1005e+02    3.8802e+02 ;    H8S - C18    - C17   
   809    812    813      1    1.1005e+02    3.8802e+02 ;    C17 - C16    - H6R   
   809    812    814      1    1.1005e+02    3.8802e+02 ;    C17 - C16    - H6S   
   809    812    815      1    1.1205e+02    3.9497e+02 ;    C17 - C16    - C15   
   810    809    811      1    1.0835e+02    3.2995e+02 ;    H7R - C17    - H7S   
   810    809    812      1    1.1005e+02    3.8802e+02 ;    H7R - C17    - C16   
   811    809    812      1    1.1005e+02    3.8802e+02 ;    H7S - C17    - C16   
   812    815    816      1    1.1005e+02    3.8802e+02 ;    C16 - C15    - H5R   
   812    815    817      1    1.1005e+02    3.8802e+02 ;    C16 - C15    - H5S   
   812    815    818      1    1.1205e+02    3.9497e+02 ;    C16 - C15    - C14   
   813    812    814      1    1.0835e+02    3.2995e+02 ;    H6R - C16    - H6S   
   813    812    815      1    1.1005e+02    3.8802e+02 ;    H6R - C16    - C15   
   814    812    815      1    1.1005e+02    3.8802e+02 ;    H6S - C16    - C15   
   815    818    819      1    1.1005e+02    3.8802e+02 ;    C15 - C14    - H4R   
   815    818    820      1    1.1005e+02    3.8802e+02 ;    C15 - C14    - H4S   
   815    818    821      1    1.1205e+02    3.9497e+02 ;    C15 - C14    - C13   
   816    815    817      1    1.0835e+02    3.2995e+02 ;    H5R - C15    - H5S   
   816    815    818      1    1.1005e+02    3.8802e+02 ;    H5R - C15    - C14   
   817    815    818      1    1.1005e+02    3.8802e+02 ;    H5S - C15    - C14   
   818    821    822      1    1.1005e+02    3.8802e+02 ;    C14 - C13    - H3R   
   818    821    823      1    1.1005e+02    3.8802e+02 ;    C14 - C13    - H3S   
   818    821    824      1    1.1205e+02    3.9497e+02 ;    C14 - C13    - C12   
   819    818    820      1    1.0835e+02    3.2995e+02 ;    H4R - C14    - H4S   
   819    818    821      1    1.1005e+02    3.8802e+02 ;    H4R - C14    - C13   
   820    818    821      1    1.1005e+02    3.8802e+02 ;    H4S - C14    - C13   
   821    824    825      1    1.1005e+02    3.8802e+02 ;    C13 - C12    - H2R   
   821    824    826      1    1.1005e+02    3.8802e+02 ;    C13 - C12    - H2S   
   822    821    823      1    1.0835e+02    3.2995e+02 ;    H3R - C13    - H3S   
   822    821    824      1    1.1005e+02    3.8802e+02 ;    H3R - C13    - C12   
   823    821    824      1    1.1005e+02    3.8802e+02 ;    H3S - C13    - C12   
   825    824    826      1    1.0835e+02    3.2995e+02 ;    H2R - C12    - H2S   
   827    828    829      1    1.0835e+02    3.2995e+02 ;   H14T - C114   - H14R  
   827    828    830      1    1.0835e+02    3.2995e+02 ;   H14T - C114   - H14S  
   827    828    831      1    1.1005e+02    3.8802e+02 ;   H14T - C114   - C113  
   828    831    832      1    1.1005e+02    3.8802e+02 ;   C114 - C113   - H13R  
   828    831    833      1    1.1005e+02    3.8802e+02 ;   C114 - C113   - H13S  
   828    831    834      1    1.1205e+02    3.9497e+02 ;   C114 - C113   - C112  
   829    828    830      1    1.0835e+02    3.2995e+02 ;   H14R - C114   - H14S  
   829    828    831      1    1.1005e+02    3.8802e+02 ;   H14R - C114   - C113  
   830    828    831      1    1.1005e+02    3.8802e+02 ;   H14S - C114   - C113  
   831    834    835      1    1.1005e+02    3.8802e+02 ;   C113 - C112   - H12R  
   831    834    836      1    1.1005e+02    3.8802e+02 ;   C113 - C112   - H12S  
   831    834    837      1    1.1205e+02    3.9497e+02 ;   C113 - C112   - C111  
   832    831    833      1    1.0835e+02    3.2995e+02 ;   H13R - C113   - H13S  
   832    831    834      1    1.1005e+02    3.8802e+02 ;   H13R - C113   - C112  
   833    831    834      1    1.1005e+02    3.8802e+02 ;   H13S - C113   - C112  
   834    837    838      1    1.1005e+02    3.8802e+02 ;   C112 - C111   - H11R  
   834    837    839      1    1.1005e+02    3.8802e+02 ;   C112 - C111   - H11S  
   834    837    840      1    1.1205e+02    3.9497e+02 ;   C112 - C111   - C110  
   835    834    836      1    1.0835e+02    3.2995e+02 ;   H12R - C112   - H12S  
   835    834    837      1    1.1005e+02    3.8802e+02 ;   H12R - C112   - C111  
   836    834    837      1    1.1005e+02    3.8802e+02 ;   H12S - C112   - C111  
   837    840    841      1    1.1005e+02    3.8802e+02 ;   C111 - C110   - H10R  
   837    840    842      1    1.1005e+02    3.8802e+02 ;   C111 - C110   - H10S  
   837    840    843      1    1.1205e+02    3.9497e+02 ;   C111 - C110   - C19   
   838    837    839      1    1.0835e+02    3.2995e+02 ;   H11R - C111   - H11S  
   838    837    840      1    1.1005e+02    3.8802e+02 ;   H11R - C111   - C110  
   839    837    840      1    1.1005e+02    3.8802e+02 ;   H11S - C111   - C110  
   840    843    844      1    1.1005e+02    3.8802e+02 ;   C110 - C19    - H9R   
   840    843    845      1    1.1005e+02    3.8802e+02 ;   C110 - C19    - H9S   
   840    843    846      1    1.1205e+02    3.9497e+02 ;   C110 - C19    - C18   
   841    840    842      1    1.0835e+02    3.2995e+02 ;   H10R - C110   - H10S  
   841    840    843      1    1.1005e+02    3.8802e+02 ;   H10R - C110   - C19   
   842    840    843      1    1.1005e+02    3.8802e+02 ;   H10S - C110   - C19   
   843    846    847      1    1.1005e+02    3.8802e+02 ;    C19 - C18    - H8R   
   843    846    848      1    1.1005e+02    3.8802e+02 ;    C19 - C18    - H8S   
   843    846    849      1    1.1205e+02    3.9497e+02 ;    C19 - C18    - C17   
   844    843    845      1    1.0835e+02    3.2995e+02 ;    H9R - C19    - H9S   
   844    843    846      1    1.1005e+02    3.8802e+02 ;    H9R - C19    - C18   
   845    843    846      1    1.1005e+02    3.8802e+02 ;    H9S - C19    - C18   
   846    849    850      1    1.1005e+02    3.8802e+02 ;    C18 - C17    - H7R   
   846    849    851      1    1.1005e+02    3.8802e+02 ;    C18 - C17    - H7S   
   846    849    852      1    1.1205e+02    3.9497e+02 ;    C18 - C17    - C16   
   847    846    848      1    1.0835e+02    3.2995e+02 ;    H8R - C18    - H8S   
   847    846    849      1    1.1005e+02    3.8802e+02 ;    H8R - C18    - C17   
   848    846    849      1    1.1005e+02    3.8802e+02 ;    H8S - C18    - C17   
   849    852    853      1    1.1005e+02    3.8802e+02 ;    C17 - C16    - H6R   
   849    852    854      1    1.1005e+02    3.8802e+02 ;    C17 - C16    - H6S   
   849    852    855      1    1.1205e+02    3.9497e+02 ;    C17 - C16    - C15   
   850    849    851      1    1.0835e+02    3.2995e+02 ;    H7R - C17    - H7S   
   850    849    852      1    1.1005e+02    3.8802e+02 ;    H7R - C17    - C16   
   851    849    852      1    1.1005e+02    3.8802e+02 ;    H7S - C17    - C16   
   852    855    856      1    1.1005e+02    3.8802e+02 ;    C16 - C15    - H5R   
   852    855    857      1    1.1005e+02    3.8802e+02 ;    C16 - C15    - H5S   
   852    855    858      1    1.1205e+02    3.9497e+02 ;    C16 - C15    - C14   
   853    852    854      1    1.0835e+02    3.2995e+02 ;    H6R - C16    - H6S   
   853    852    855      1    1.1005e+02    3.8802e+02 ;    H6R - C16    - C15   
   854    852    855      1    1.1005e+02    3.8802e+02 ;    H6S - C16    - C15   
   855    858    859      1    1.1005e+02    3.8802e+02 ;    C15 - C14    - H4R   
   855    858    860      1    1.1005e+02    3.8802e+02 ;    C15 - C14    - H4S   
   855    858    861      1    1.1205e+02    3.9497e+02 ;    C15 - C14    - C13   
   856    855    857      1    1.0835e+02    3.2995e+02 ;    H5R - C15    - H5S   
   856    855    858      1    1.1005e+02    3.8802e+02 ;    H5R - C15    - C14   
   857    855    858      1    1.1005e+02    3.8802e+02 ;    H5S - C15    - C14   
   858    861    862      1    1.1005e+02    3.8802e+02 ;    C14 - C13    - H3R   
   858    861    863      1    1.1005e+02    3.8802e+02 ;    C14 - C13    - H3S   
   858    861    864      1    1.1205e+02    3.9497e+02 ;    C14 - C13    - C12   
   859    858    860      1    1.0835e+02    3.2995e+02 ;    H4R - C14    - H4S   
   859    858    861      1    1.1005e+02    3.8802e+02 ;    H4R - C14    - C13   
   860    858    861      1    1.1005e+02    3.8802e+02 ;    H4S - C14    - C13   
   861    864    865      1    1.1005e+02    3.8802e+02 ;    C13 - C12    - H2R   
   861    864    866      1    1.1005e+02    3.8802e+02 ;    C13 - C12    - H2S   
   861    864    867      1    1.1053e+02    5.3379e+02 ;    C13 - C12    - C11   
   862    861    863      1    1.0835e+02    3.2995e+02 ;    H3R - C13    - H3S   
   862    861    864      1    1.1005e+02    3.8802e+02 ;    H3R - C13    - C12   
   863    861    864      1    1.1005e+02    3.8802e+02 ;    H3S - C13    - C12   
   864    867    868      1    1.2311e+02    5.6928e+02 ;    C12 - C11    - O12   
   864    867    869      1    1.1196e+02    5.7957e+02 ;    C12 - C11    - O11   
   865    864    866      1    1.0835e+02    3.2995e+02 ;    H2R - C12    - H2S   
   865    864    867      1    1.0968e+02    3.9497e+02 ;    H2R - C12    - C11   
   866    864    867      1    1.0968e+02    3.9497e+02 ;    H2S - C12    - C11   
   867    869    870      1    1.1514e+02    5.3246e+02 ;    C11 - O11    - C1    
   868    867    869      1    1.2333e+02    6.3538e+02 ;    O12 - C11    - O11   
   869    870    871      1    1.0882e+02    4.2543e+02 ;    O11 - C1     - HR    
   869    870    872      1    1.0882e+02    4.2543e+02 ;    O11 - C1     - HS    
   869    870    873      1    1.0842e+02    5.6718e+02 ;    O11 - C1     - C2    
   870    873    874      1    1.1007e+02    3.8794e+02 ;     C1 - C2     - HX    
   870    873    875      1    1.1063e+02    5.2894e+02 ;     C1 - C2     - C3    
   870    873    902      1    1.0842e+02    5.6718e+02 ;     C1 - C2     - O21   
   871    870    872      1    1.0955e+02    3.2786e+02 ;     HR - C1     - HS    
   871    870    873      1    1.1007e+02    3.8794e+02 ;     HR - C1     - C2    
   872    870    873      1    1.1007e+02    3.8794e+02 ;     HS - C1     - C2    
   873    875    876      1    1.1007e+02    3.8794e+02 ;     C2 - C3     - HA    
   873    875    877      1    1.1007e+02    3.8794e+02 ;     C2 - C3     - HB    
   873    875    878      1    1.0842e+02    5.6718e+02 ;     C2 - C3     - O31   
   873    902    903      1    1.1514e+02    5.3246e+02 ;     C2 - O21    - C21   
   874    873    875      1    1.1007e+02    3.8794e+02 ;     HX - C2     - C3    
   874    873    902      1    1.0882e+02    4.2543e+02 ;     HX - C2     - O21   
   875    873    902      1    1.0842e+02    5.6718e+02 ;     C3 - C2     - O21   
   875    878    879      1    1.2050e+02    8.3680e+02 ;     C3 - O31    - P31   
   876    875    877      1    1.0955e+02    3.2786e+02 ;     HA - C3     - HB    
   876    875    878      1    1.0882e+02    4.2543e+02 ;     HA - C3     - O31   
   877    875    878      1    1.0882e+02    4.2543e+02 ;     HB - C3     - O31   
   878    879    880      1    1.0260e+02    7.5312e+02 ;    O31 - P31    - O32   
   878    879    900      1    1.0823e+02    8.3680e+02 ;    O31 - P31    - O33   
   878    879    901      1    1.0823e+02    8.3680e+02 ;    O31 - P31    - O34   
   879    880    881      1    1.2050e+02    8.3680e+02 ;    P31 - O32    - C31   
   880    879    900      1    1.0823e+02    8.3680e+02 ;    O32 - P31    - O33   
   880    879    901      1    1.0823e+02    8.3680e+02 ;    O32 - P31    - O34   
   880    881    882      1    1.0882e+02    4.2543e+02 ;    O32 - C31    - H1A   
   880    881    883      1    1.0882e+02    4.2543e+02 ;    O32 - C31    - H1B   
   880    881    884      1    1.0842e+02    5.6718e+02 ;    O32 - C31    - C32   
   881    884    885      1    1.1174e+02    3.8510e+02 ;    C31 - C32    - H2A   
   881    884    886      1    1.1174e+02    3.8510e+02 ;    C31 - C32    - H2B   
   881    884    887      1    1.1432e+02    5.3932e+02 ;    C31 - C32    - N31   
   882    881    883      1    1.0955e+02    3.2786e+02 ;    H1A - C31    - H1B   
   882    881    884      1    1.1007e+02    3.8794e+02 ;    H1A - C31    - C32   
   883    881    884      1    1.1007e+02    3.8794e+02 ;    H1B - C31    - C32   
   884    887    888      1    1.1064e+02    5.2585e+02 ;    C32 - N31    - C33   
   884    887    892      1    1.1064e+02    5.2585e+02 ;    C32 - N31    - C34   
   884    887    896      1    1.1064e+02    5.2585e+02 ;    C32 - N31    - C35   
   885    884    886      1    1.1074e+02    3.2669e+02 ;    H2A - C32    - H2B   
   885    884    887      1    1.0791e+02    4.1020e+02 ;    H2A - C32    - N31   
   886    884    887      1    1.0791e+02    4.1020e+02 ;    H2B - C32    - N31   
   887    888    889      1    1.0791e+02    4.1020e+02 ;    N31 - C33    - H3A   
   887    888    890      1    1.0791e+02    4.1020e+02 ;    N31 - C33    - H3B   
   887    888    891      1    1.0791e+02    4.1020e+02 ;    N31 - C33    - H3C   
   887    892    893      1    1.0791e+02    4.1020e+02 ;    N31 - C34    - H4A   
   887    892    894      1    1.0791e+02    4.1020e+02 ;    N31 - C34    - H4B   
   887    892    895      1    1.0791e+02    4.1020e+02 ;    N31 - C34    - H4C   
   887    896    897      1    1.0791e+02    4.1020e+02 ;    N31 - C35    - H5A   
   887    896    898      1    1.0791e+02    4.1020e+02 ;    N31 - C35    - H5B   
   887    896    899      1    1.0791e+02    4.1020e+02 ;    N31 - C35    - H5C   
   888    887    892      1    1.1064e+02    5.2585e+02 ;    C33 - N31    - C34   
   888    887    896      1    1.1064e+02    5.2585e+02 ;    C33 - N31    - C35   
   889    888    890      1    1.1074e+02    3.2669e+02 ;    H3A - C33    - H3B   
   889    888    891      1    1.1074e+02    3.2669e+02 ;    H3A - C33    - H3C   
   890    888    891      1    1.1074e+02    3.2669e+02 ;    H3B - C33    - H3C   
   892    887    896      1    1.1064e+02    5.2585e+02 ;    C34 - N31    - C35   
   893    892    894      1    1.1074e+02    3.2669e+02 ;    H4A - C34    - H4B   
   893    892    895      1    1.1074e+02    3.2669e+02 ;    H4A - C34    - H4C   
   894    892    895      1    1.1074e+02    3.2669e+02 ;    H4B - C34    - H4C   
   897    896    898      1    1.1074e+02    3.2669e+02 ;    H5A - C35    - H5B   
   897    896    899      1    1.1074e+02    3.2669e+02 ;    H5A - C35    - H5C   
   898    896    899      1    1.1074e+02    3.2669e+02 ;    H5B - C35    - H5C   
   900    879    901      1    1.1990e+02    1.1715e+03 ;    O33 - P31    - O34   
   902    903    904      1    1.2333e+02    6.3538e+02 ;    O21 - C21    - O22   
   902    903    942      1    1.1196e+02    5.7957e+02 ;    O21 - C21    - C12   
   903    942    939      1    1.1053e+02    5.3379e+02 ;    C21 - C12    - C13   
   903    942    943      1    1.0968e+02    3.9497e+02 ;    C21 - C12    - H2R   
   903    942    944      1    1.0968e+02    3.9497e+02 ;    C21 - C12    - H2S   
   904    903    942      1    1.2311e+02    5.6928e+02 ;    O22 - C21    - C12   
   905    906    907      1    1.0835e+02    3.2995e+02 ;   H14T - C114   - H14R  
   905    906    908      1    1.0835e+02    3.2995e+02 ;   H14T - C114   - H14S  
   905    906    909      1    1.1005e+02    3.8802e+02 ;   H14T - C114   - C113  
   906    909    910      1    1.1005e+02    3.8802e+02 ;   C114 - C113   - H13R  
   906    909    911      1    1.1005e+02    3.8802e+02 ;   C114 - C113   - H13S  
   906    909    912      1    1.1205e+02    3.9497e+02 ;   C114 - C113   - C112  
   907    906    908      1    1.0835e+02    3.2995e+02 ;   H14R - C114   - H14S  
   907    906    909      1    1.1005e+02    3.8802e+02 ;   H14R - C114   - C113  
   908    906    909      1    1.1005e+02    3.8802e+02 ;   H14S - C114   - C113  
   909    912    913      1    1.1005e+02    3.8802e+02 ;   C113 - C112   - H12R  
   909    912    914      1    1.1005e+02    3.8802e+02 ;   C113 - C112   - H12S  
   909    912    915      1    1.1205e+02    3.9497e+02 ;   C113 - C112   - C111  
   910    909    911      1    1.0835e+02    3.2995e+02 ;   H13R - C113   - H13S  
   910    909    912      1    1.1005e+02    3.8802e+02 ;   H13R - C113   - C112  
   911    909    912      1    1.1005e+02    3.8802e+02 ;   H13S - C113   - C112  
   912    915    916      1    1.1005e+02    3.8802e+02 ;   C112 - C111   - H11R  
   912    915    917      1    1.1005e+02    3.8802e+02 ;   C112 - C111   - H11S  
   912    915    918      1    1.1205e+02    3.9497e+02 ;   C112 - C111   - C110  
   913    912    914      1    1.0835e+02    3.2995e+02 ;   H12R - C112   - H12S  
   913    912    915      1    1.1005e+02    3.8802e+02 ;   H12R - C112   - C111  
   914    912    915      1    1.1005e+02    3.8802e+02 ;   H12S - C112   - C111  
   915    918    919      1    1.1005e+02    3.8802e+02 ;   C111 - C110   - H10R  
   915    918    920      1    1.1005e+02    3.8802e+02 ;   C111 - C110   - H10S  
   915    918    921      1    1.1205e+02    3.9497e+02 ;   C111 - C110   - C19   
   916    915    917      1    1.0835e+02    3.2995e+02 ;   H11R - C111   - H11S  
   916    915    918      1    1.1005e+02    3.8802e+02 ;   H11R - C111   - C110  
   917    915    918      1    1.1005e+02    3.8802e+02 ;   H11S - C111   - C110  
   918    921    922      1    1.1005e+02    3.8802e+02 ;   C110 - C19    - H9R   
   918    921    923      1    1.1005e+02    3.8802e+02 ;   C110 - C19    - H9S   
   918    921    924      1    1.1205e+02    3.9497e+02 ;   C110 - C19    - C18   
   919    918    920      1    1.0835e+02    3.2995e+02 ;   H10R - C110   - H10S  
   919    918    921      1    1.1005e+02    3.8802e+02 ;   H10R - C110   - C19   
   920    918    921      1    1.1005e+02    3.8802e+02 ;   H10S - C110   - C19   
   921    924    925      1    1.1005e+02    3.8802e+02 ;    C19 - C18    - H8R   
   921    924    926      1    1.1005e+02    3.8802e+02 ;    C19 - C18    - H8S   
   921    924    927      1    1.1205e+02    3.9497e+02 ;    C19 - C18    - C17   
   922    921    923      1    1.0835e+02    3.2995e+02 ;    H9R - C19    - H9S   
   922    921    924      1    1.1005e+02    3.8802e+02 ;    H9R - C19    - C18   
   923    921    924      1    1.1005e+02    3.8802e+02 ;    H9S - C19    - C18   
   924    927    928      1    1.1005e+02    3.8802e+02 ;    C18 - C17    - H7R   
   924    927    929      1    1.1005e+02    3.8802e+02 ;    C18 - C17    - H7S   
   924    927    930      1    1.1205e+02    3.9497e+02 ;    C18 - C17    - C16   
   925    924    926      1    1.0835e+02    3.2995e+02 ;    H8R - C18    - H8S   
   925    924    927      1    1.1005e+02    3.8802e+02 ;    H8R - C18    - C17   
   926    924    927      1    1.1005e+02    3.8802e+02 ;    H8S - C18    - C17   
   927    930    931      1    1.1005e+02    3.8802e+02 ;    C17 - C16    - H6R   
   927    930    932      1    1.1005e+02    3.8802e+02 ;    C17 - C16    - H6S   
   927    930    933      1    1.1205e+02    3.9497e+02 ;    C17 - C16    - C15   
   928    927    929      1    1.0835e+02    3.2995e+02 ;    H7R - C17    - H7S   
   928    927    930      1    1.1005e+02    3.8802e+02 ;    H7R - C17    - C16   
   929    927    930      1    1.1005e+02    3.8802e+02 ;    H7S - C17    - C16   
   930    933    934      1    1.1005e+02    3.8802e+02 ;    C16 - C15    - H5R   
   930    933    935      1    1.1005e+02    3.8802e+02 ;    C16 - C15    - H5S   
   930    933    936      1    1.1205e+02    3.9497e+02 ;    C16 - C15    - C14   
   931    930    932      1    1.0835e+02    3.2995e+02 ;    H6R - C16    - H6S   
   931    930    933      1    1.1005e+02    3.8802e+02 ;    H6R - C16    - C15   
   932    930    933      1    1.1005e+02    3.8802e+02 ;    H6S - C16    - C15   
   933    936    937      1    1.1005e+02    3.8802e+02 ;    C15 - C14    - H4R   
   933    936    938      1    1.1005e+02    3.8802e+02 ;    C15 - C14    - H4S   
   933    936    939      1    1.1205e+02    3.9497e+02 ;    C15 - C14    - C13   
   934    933    935      1    1.0835e+02    3.2995e+02 ;    H5R - C15    - H5S   
   934    933    936      1    1.1005e+02    3.8802e+02 ;    H5R - C15    - C14   
   935    933    936      1    1.1005e+02    3.8802e+02 ;    H5S - C15    - C14   
   936    939    940      1    1.1005e+02    3.8802e+02 ;    C14 - C13    - H3R   
   936    939    941      1    1.1005e+02    3.8802e+02 ;    C14 - C13    - H3S   
   936    939    942      1    1.1205e+02    3.9497e+02 ;    C14 - C13    - C12   
   937    936    938      1    1.0835e+02    3.2995e+02 ;    H4R - C14    - H4S   
   937    936    939      1    1.1005e+02    3.8802e+02 ;    H4R - C14    - C13   
   938    936    939      1    1.1005e+02    3.8802e+02 ;    H4S - C14    - C13   
   939    942    943      1    1.1005e+02    3.8802e+02 ;    C13 - C12    - H2R   
   939    942    944      1    1.1005e+02    3.8802e+02 ;    C13 - C12    - H2S   
   940    939    941      1    1.0835e+02    3.2995e+02 ;    H3R - C13    - H3S   
   940    939    942      1    1.1005e+02    3.8802e+02 ;    H3R - C13    - C12   
   941    939    942      1    1.1005e+02    3.8802e+02 ;    H3S - C13    - C12   
   943    942    944      1    1.0835e+02    3.2995e+02 ;    H2R - C12    - H2S   
   945    946    947      1    1.0835e+02    3.2995e+02 ;   H14T - C114   - H14R  
   945    946    948      1    1.0835e+02    3.2995e+02 ;   H14T - C114   - H14S  
   945    946    949      1    1.1005e+02    3.8802e+02 ;   H14T - C114   - C113  
   946    949    950      1    1.1005e+02    3.8802e+02 ;   C114 - C113   - H13R  
   946    949    951      1    1.1005e+02    3.8802e+02 ;   C114 - C113   - H13S  
   946    949    952      1    1.1205e+02    3.9497e+02 ;   C114 - C113   - C112  
   947    946    948      1    1.0835e+02    3.2995e+02 ;   H14R - C114   - H14S  
   947    946    949      1    1.1005e+02    3.8802e+02 ;   H14R - C114   - C113  
   948    946    949      1    1.1005e+02    3.8802e+02 ;   H14S - C114   - C113  
   949    952    953      1    1.1005e+02    3.8802e+02 ;   C113 - C112   - H12R  
   949    952    954      1    1.1005e+02    3.8802e+02 ;   C113 - C112   - H12S  
   949    952    955      1    1.1205e+02    3.9497e+02 ;   C113 - C112   - C111  
   950    949    951      1    1.0835e+02    3.2995e+02 ;   H13R - C113   - H13S  
   950    949    952      1    1.1005e+02    3.8802e+02 ;   H13R - C113   - C112  
   951    949    952      1    1.1005e+02    3.8802e+02 ;   H13S - C113   - C112  
   952    955    956      1    1.1005e+02    3.8802e+02 ;   C112 - C111   - H11R  
   952    955    957      1    1.1005e+02    3.8802e+02 ;   C112 - C111   - H11S  
   952    955    958      1    1.1205e+02    3.9497e+02 ;   C112 - C111   - C110  
   953    952    954      1    1.0835e+02    3.2995e+02 ;   H12R - C112   - H12S  
   953    952    955      1    1.1005e+02    3.8802e+02 ;   H12R - C112   - C111  
   954    952    955      1    1.1005e+02    3.8802e+02 ;   H12S - C112   - C111  
   955    958    959      1    1.1005e+02    3.8802e+02 ;   C111 - C110   - H10R  
   955    958    960      1    1.1005e+02    3.8802e+02 ;   C111 - C110   - H10S  
   955    958    961      1    1.1205e+02    3.9497e+02 ;   C111 - C110   - C19   
   956    955    957      1    1.0835e+02    3.2995e+02 ;   H11R - C111   - H11S  
   956    955    958      1    1.1005e+02    3.8802e+02 ;   H11R - C111   - C110  
   957    955    958      1    1.1005e+02    3.8802e+02 ;   H11S - C111   - C110  
   958    961    962      1    1.1005e+02    3.8802e+02 ;   C110 - C19    - H9R   
   958    961    963      1    1.1005e+02    3.8802e+02 ;   C110 - C19    - H9S   
   958    961    964      1    1.1205e+02    3.9497e+02 ;   C110 - C19    - C18   
   959    958    960      1    1.0835e+02    3.2995e+02 ;   H10R - C110   - H10S  
   959    958    961      1    1.1005e+02    3.8802e+02 ;   H10R - C110   - C19   
   960    958    961      1    1.1005e+02    3.8802e+02 ;   H10S - C110   - C19   
   961    964    965      1    1.1005e+02    3.8802e+02 ;    C19 - C18    - H8R   
   961    964    966      1    1.1005e+02    3.8802e+02 ;    C19 - C18    - H8S   
   961    964    967      1    1.1205e+02    3.9497e+02 ;    C19 - C18    - C17   
   962    961    963      1    1.0835e+02    3.2995e+02 ;    H9R - C19    - H9S   
   962    961    964      1    1.1005e+02    3.8802e+02 ;    H9R - C19    - C18   
   963    961    964      1    1.1005e+02    3.8802e+02 ;    H9S - C19    - C18   
   964    967    968      1    1.1005e+02    3.8802e+02 ;    C18 - C17    - H7R   
   964    967    969      1    1.1005e+02    3.8802e+02 ;    C18 - C17    - H7S   
   964    967    970      1    1.1205e+02    3.9497e+02 ;    C18 - C17    - C16   
   965    964    966      1    1.0835e+02    3.2995e+02 ;    H8R - C18    - H8S   
   965    964    967      1    1.1005e+02    3.8802e+02 ;    H8R - C18    - C17   
   966    964    967      1    1.1005e+02    3.8802e+02 ;    H8S - C18    - C17   
   967    970    971      1    1.1005e+02    3.8802e+02 ;    C17 - C16    - H6R   
   967    970    972      1    1.1005e+02    3.8802e+02 ;    C17 - C16    - H6S   
   967    970    973      1    1.1205e+02    3.9497e+02 ;    C17 - C16    - C15   
   968    967    969      1    1.0835e+02    3.2995e+02 ;    H7R - C17    - H7S   
   968    967    970      1    1.1005e+02    3.8802e+02 ;    H7R - C17    - C16   
   969    967    970      1    1.1005e+02    3.8802e+02 ;    H7S - C17    - C16   
   970    973    974      1    1.1005e+02    3.8802e+02 ;    C16 - C15    - H5R   
   970    973    975      1    1.1005e+02    3.8802e+02 ;    C16 - C15    - H5S   
   970    973    976      1    1.1205e+02    3.9497e+02 ;    C16 - C15    - C14   
   971    970    972      1    1.0835e+02    3.2995e+02 ;    H6R - C16    - H6S   
   971    970    973      1    1.1005e+02    3.8802e+02 ;    H6R - C16    - C15   
   972    970    973      1    1.1005e+02    3.8802e+02 ;    H6S - C16    - C15   
   973    976    977      1    1.1005e+02    3.8802e+02 ;    C15 - C14    - H4R   
   973    976    978      1    1.1005e+02    3.8802e+02 ;    C15 - C14    - H4S   
   973    976    979      1    1.1205e+02    3.9497e+02 ;    C15 - C14    - C13   
   974    973    975      1    1.0835e+02    3.2995e+02 ;    H5R - C15    - H5S   
   974    973    976      1    1.1005e+02    3.8802e+02 ;    H5R - C15    - C14   
   975    973    976      1    1.1005e+02    3.8802e+02 ;    H5S - C15    - C14   
   976    979    980      1    1.1005e+02    3.8802e+02 ;    C14 - C13    - H3R   
   976    979    981      1    1.1005e+02    3.8802e+02 ;    C14 - C13    - H3S   
   976    979    982      1    1.1205e+02    3.9497e+02 ;    C14 - C13    - C12   
   977    976    978      1    1.0835e+02    3.2995e+02 ;    H4R - C14    - H4S   
   977    976    979      1    1.1005e+02    3.8802e+02 ;    H4R - C14    - C13   
   978    976    979      1    1.1005e+02    3.8802e+02 ;    H4S - C14    - C13   
   979    982    983      1    1.1005e+02    3.8802e+02 ;    C13 - C12    - H2R   
   979    982    984      1    1.1005e+02    3.8802e+02 ;    C13 - C12    - H2S   
   979    982    985      1    1.1053e+02    5.3379e+02 ;    C13 - C12    - C11   
   980    979    981      1    1.0835e+02    3.2995e+02 ;    H3R - C13    - H3S   
   980    979    982      1    1.1005e+02    3.8802e+02 ;    H3R - C13    - C12   
   981    979    982      1    1.1005e+02    3.8802e+02 ;    H3S - C13    - C12   
   982    985    986      1    1.2311e+02    5.6928e+02 ;    C12 - C11    - O12   
   982    985    987      1    1.1196e+02    5.7957e+02 ;    C12 - C11    - O11   
   983    982    984      1    1.0835e+02    3.2995e+02 ;    H2R - C12    - H2S   
   983    982    985      1    1.0968e+02    3.9497e+02 ;    H2R - C12    - C11   
   984    982    985      1    1.0968e+02    3.9497e+02 ;    H2S - C12    - C11   
   985    987    988      1    1.1514e+02    5.3246e+02 ;    C11 - O11    - C1    
   986    985    987      1    1.2333e+02    6.3538e+02 ;    O12 - C11    - O11   
   987    988    989      1    1.0882e+02    4.2543e+02 ;    O11 - C1     - HR    
   987    988    990      1    1.0882e+02    4.2543e+02 ;    O11 - C1     - HS    
   987    988    991      1    1.0842e+02    5.6718e+02 ;    O11 - C1     - C2    
   988    991    992      1    1.1007e+02    3.8794e+02 ;     C1 - C2     - HX    
   988    991    993      1    1.1063e+02    5.2894e+02 ;     C1 - C2     - C3    
   988    991   1020      1    1.0842e+02    5.6718e+02 ;     C1 - C2     - O21   
   989    988    990      1    1.0955e+02    3.2786e+02 ;     HR - C1     - HS    
   989    988    991      1    1.1007e+02    3.8794e+02 ;     HR - C1     - C2    
   990    988    991      1    1.1007e+02    3.8794e+02 ;     HS - C1     - C2    
   991    993    994      1    1.1007e+02    3.8794e+02 ;     C2 - C3     - HA    
   991    993    995      1    1.1007e+02    3.8794e+02 ;     C2 - C3     - HB    
   991    993    996      1    1.0842e+02    5.6718e+02 ;     C2 - C3     - O31   
   991   1020   1021      1    1.1514e+02    5.3246e+02 ;     C2 - O21    - C21   
   992    991    993      1    1.1007e+02    3.8794e+02 ;     HX - C2     - C3    
   992    991   1020      1    1.0882e+02    4.2543e+02 ;     HX - C2     - O21   
   993    991   1020      1    1.0842e+02    5.6718e+02 ;     C3 - C2     - O21   
   993    996    997      1    1.2050e+02    8.3680e+02 ;     C3 - O31    - P31   
   994    993    995      1    1.0955e+02    3.2786e+02 ;     HA - C3     - HB    
   994    993    996      1    1.0882e+02    4.2543e+02 ;     HA - C3     - O31   
   995    993    996      1    1.0882e+02    4.2543e+02 ;     HB - C3     - O31   
   996    997    998      1    1.0260e+02    7.5312e+02 ;    O31 - P31    - O32   
   996    997   1018      1    1.0823e+02    8.3680e+02 ;    O31 - P31    - O33   
   996    997   1019      1    1.0823e+02    8.3680e+02 ;    O31 - P31    - O34   
   997    998    999      1    1.2050e+02    8.3680e+02 ;    P31 - O32    - C31   
   998    997   1018      1    1.0823e+02    8.3680e+02 ;    O32 - P31    - O33   
   998    997   1019      1    1.0823e+02    8.3680e+02 ;    O32 - P31    - O34   
   998    999   1000      1    1.0882e+02    4.2543e+02 ;    O32 - C31    - H1A   
   998    999   1001      1    1.0882e+02    4.2543e+02 ;    O32 - C31    - H1B   
   998    999   1002      1    1.0842e+02    5.6718e+02 ;    O32 - C31    - C32   
   999   1002   1003      1    1.1174e+02    3.8510e+02 ;    C31 - C32    - H2A   
   999   1002   1004      1    1.1174e+02    3.8510e+02 ;    C31 - C32    - H2B   
   999   1002   1005      1    1.1432e+02    5.3932e+02 ;    C31 - C32    - N31   
  1000    999   1001      1    1.0955e+02    3.2786e+02 ;    H1A - C31    - H1B   
  1000    999   1002      1    1.1007e+02    3.8794e+02 ;    H1A - C31    - C32   
  1001    999   1002      1    1.1007e+02    3.8794e+02 ;    H1B - C31    - C32   
  1002   1005   1006      1    1.1064e+02    5.2585e+02 ;    C32 - N31    - C33   
  1002   1005   1010      1    1.1064e+02    5.2585e+02 ;    C32 - N31    - C34   
  1002   1005   1014      1    1.1064e+02    5.2585e+02 ;    C32 - N31    - C35   
  1003   1002   1004      1    1.1074e+02    3.2669e+02 ;    H2A - C32    - H2B   
  1003   1002   1005      1    1.0791e+02    4.1020e+02 ;    H2A - C32    - N31   
  1004   1002   1005      1    1.0791e+02    4.1020e+02 ;    H2B - C32    - N31   
  1005   1006   1007      1    1.0791e+02    4.1020e+02 ;    N31 - C33    - H3A   
  1005   1006   1008      1    1.0791e+02    4.1020e+02 ;    N31 - C33    - H3B   
  1005   1006   1009      1    1.0791e+02    4.1020e+02 ;    N31 - C33    - H3C   
  1005   1010   1011      1    1.0791e+02    4.1020e+02 ;    N31 - C34    - H4A   
  1005   1010   1012      1    1.0791e+02    4.1020e+02 ;    N31 - C34    - H4B   
  1005   1010   1013      1    1.0791e+02    4.1020e+02 ;    N31 - C34    - H4C   
  1005   1014   1015      1    1.0791e+02    4.1020e+02 ;    N31 - C35    - H5A   
  1005   1014   1016      1    1.0791e+02    4.1020e+02 ;    N31 - C35    - H5B   
  1005   1014   1017      1    1.0791e+02    4.1020e+02 ;    N31 - C35    - H5C   
  1006   1005   1010      1    1.1064e+02    5.2585e+02 ;    C33 - N31    - C34   
  1006   1005   1014      1    1.1064e+02    5.2585e+02 ;    C33 - N31    - C35   
  1007   1006   1008      1    1.1074e+02    3.2669e+02 ;    H3A - C33    - H3B   
  1007   1006   1009      1    1.1074e+02    3.2669e+02 ;    H3A - C33    - H3C   
  1008   1006   1009      1    1.1074e+02    3.2669e+02 ;    H3B - C33    - H3C   
  1010   1005   1014      1    1.1064e+02    5.2585e+02 ;    C34 - N31    - C35   
  1011   1010   1012      1    1.1074e+02    3.2669e+02 ;    H4A - C34    - H4B   
  1011   1010   1013      1    1.1074e+02    3.2669e+02 ;    H4A - C34    - H4C   
  1012   1010   1013      1    1.1074e+02    3.2669e+02 ;    H4B - C34    - H4C   
  1015   1014   1016      1    1.1074e+02    3.2669e+02 ;    H5A - C35    - H5B   
  1015   1014   1017      1    1.1074e+02    3.2669e+02 ;    H5A - C35    - H5C   
  1016   1014   1017      1    1.1074e+02    3.2669e+02 ;    H5B - C35    - H5C   
  1018    997   1019      1    1.1990e+02    1.1715e+03 ;    O33 - P31    - O34   
  1020   1021   1022      1    1.2333e+02    6.3538e+02 ;    O21 - C21    - O22   
  1020   1021   1060      1    1.1196e+02    5.7957e+02 ;    O21 - C21    - C12   
  1021   1060   1057      1    1.1053e+02    5.3379e+02 ;    C21 - C12    - C13   
  1021   1060   1061      1    1.0968e+02    3.9497e+02 ;    C21 - C12    - H2R   
  1021   1060   1062      1    1.0968e+02    3.9497e+02 ;    C21 - C12    - H2S   
  1022   1021   1060      1    1.2311e+02    5.6928e+02 ;    O22 - C21    - C12   
  1023   1024   1025      1    1.0835e+02    3.2995e+02 ;   H14T - C114   - H14R  
  1023   1024   1026      1    1.0835e+02    3.2995e+02 ;   H14T - C114   - H14S  
  1023   1024   1027      1    1.1005e+02    3.8802e+02 ;   H14T - C114   - C113  
  1024   1027   1028      1    1.1005e+02    3.8802e+02 ;   C114 - C113   - H13R  
  1024   1027   1029      1    1.1005e+02    3.8802e+02 ;   C114 - C113   - H13S  
  1024   1027   1030      1    1.1205e+02    3.9497e+02 ;   C114 - C113   - C112  
  1025   1024   1026      1    1.0835e+02    3.2995e+02 ;   H14R - C114   - H14S  
  1025   1024   1027      1    1.1005e+02    3.8802e+02 ;   H14R - C114   - C113  
  1026   1024   1027      1    1.1005e+02    3.8802e+02 ;   H14S - C114   - C113  
  1027   1030   1031      1    1.1005e+02    3.8802e+02 ;   C113 - C112   - H12R  
  1027   1030   1032      1    1.1005e+02    3.8802e+02 ;   C113 - C112   - H12S  
  1027   1030   1033      1    1.1205e+02    3.9497e+02 ;   C113 - C112   - C111  
  1028   1027   1029      1    1.0835e+02    3.2995e+02 ;   H13R - C113   - H13S  
  1028   1027   1030      1    1.1005e+02    3.8802e+02 ;   H13R - C113   - C112  
  1029   1027   1030      1    1.1005e+02    3.8802e+02 ;   H13S - C113   - C112  
  1030   1033   1034      1    1.1005e+02    3.8802e+02 ;   C112 - C111   - H11R  
  1030   1033   1035      1    1.1005e+02    3.8802e+02 ;   C112 - C111   - H11S  
  1030   1033   1036      1    1.1205e+02    3.9497e+02 ;   C112 - C111   - C110  
  1031   1030   1032      1    1.0835e+02    3.2995e+02 ;   H12R - C112   - H12S  
  1031   1030   1033      1    1.1005e+02    3.8802e+02 ;   H12R - C112   - C111  
  1032   1030   1033      1    1.1005e+02    3.8802e+02 ;   H12S - C112   - C111  
  1033   1036   1037      1    1.1005e+02    3.8802e+02 ;   C111 - C110   - H10R  
  1033   1036   1038      1    1.1005e+02    3.8802e+02 ;   C111 - C110   - H10S  
  1033   1036   1039      1    1.1205e+02    3.9497e+02 ;   C111 - C110   - C19   
  1034   1033   1035      1    1.0835e+02    3.2995e+02 ;   H11R - C111   - H11S  
  1034   1033   1036      1    1.1005e+02    3.8802e+02 ;   H11R - C111   - C110  
  1035   1033   1036      1    1.1005e+02    3.8802e+02 ;   H11S - C111   - C110  
  1036   1039   1040      1    1.1005e+02    3.8802e+02 ;   C110 - C19    - H9R   
  1036   1039   1041      1    1.1005e+02    3.8802e+02 ;   C110 - C19    - H9S   
  1036   1039   1042      1    1.1205e+02    3.9497e+02 ;   C110 - C19    - C18   
  1037   1036   1038      1    1.0835e+02    3.2995e+02 ;   H10R - C110   - H10S  
  1037   1036   1039      1    1.1005e+02    3.8802e+02 ;   H10R - C110   - C19   
  1038   1036   1039      1    1.1005e+02    3.8802e+02 ;   H10S - C110   - C19   
  1039   1042   1043      1    1.1005e+02    3.8802e+02 ;    C19 - C18    - H8R   
  1039   1042   1044      1    1.1005e+02    3.8802e+02 ;    C19 - C18    - H8S   
  1039   1042   1045      1    1.1205e+02    3.9497e+02 ;    C19 - C18    - C17   
  1040   1039   1041      1    1.0835e+02    3.2995e+02 ;    H9R - C19    - H9S   
  1040   1039   1042      1    1.1005e+02    3.8802e+02 ;    H9R - C19    - C18   
  1041   1039   1042      1    1.1005e+02    3.8802e+02 ;    H9S - C19    - C18   
  1042   1045   1046      1    1.1005e+02    3.8802e+02 ;    C18 - C17    - H7R   
  1042   1045   1047      1    1.1005e+02    3.8802e+02 ;    C18 - C17    - H7S   
  1042   1045   1048      1    1.1205e+02    3.9497e+02 ;    C18 - C17    - C16   
  1043   1042   1044      1    1.0835e+02    3.2995e+02 ;    H8R - C18    - H8S   
  1043   1042   1045      1    1.1005e+02    3.8802e+02 ;    H8R - C18    - C17   
  1044   1042   1045      1    1.1005e+02    3.8802e+02 ;    H8S - C18    - C17   
  1045   1048   1049      1    1.1005e+02    3.8802e+02 ;    C17 - C16    - H6R   
  1045   1048   1050      1    1.1005e+02    3.8802e+02 ;    C17 - C16    - H6S   
  1045   1048   1051      1    1.1205e+02    3.9497e+02 ;    C17 - C16    - C15   
  1046   1045   1047      1    1.0835e+02    3.2995e+02 ;    H7R - C17    - H7S   
  1046   1045   1048      1    1.1005e+02    3.8802e+02 ;    H7R - C17    - C16   
  1047   1045   1048      1    1.1005e+02    3.8802e+02 ;    H7S - C17    - C16   
  1048   1051   1052      1    1.1005e+02    3.8802e+02 ;    C16 - C15    - H5R   
  1048   1051   1053      1    1.1005e+02    3.8802e+02 ;    C16 - C15    - H5S   
  1048   1051   1054      1    1.1205e+02    3.9497e+02 ;    C16 - C15    - C14   
  1049   1048   1050      1    1.0835e+02    3.2995e+02 ;    H6R - C16    - H6S   
  1049   1048   1051      1    1.1005e+02    3.8802e+02 ;    H6R - C16    - C15   
  1050   1048   1051      1    1.1005e+02    3.8802e+02 ;    H6S - C16    - C15   
  1051   1054   1055      1    1.1005e+02    3.8802e+02 ;    C15 - C14    - H4R   
  1051   1054   1056      1    1.1005e+02    3.8802e+02 ;    C15 - C14    - H4S   
  1051   1054   1057      1    1.1205e+02    3.9497e+02 ;    C15 - C14    - C13   
  1052   1051   1053      1    1.0835e+02    3.2995e+02 ;    H5R - C15    - H5S   
  1052   1051   1054      1    1.1005e+02    3.8802e+02 ;    H5R - C15    - C14   
  1053   1051   1054      1    1.1005e+02    3.8802e+02 ;    H5S - C15    - C14   
  1054   1057   1058      1    1.1005e+02    3.8802e+02 ;    C14 - C13    - H3R   
  1054   1057   1059      1    1.1005e+02    3.8802e+02 ;    C14 - C13    - H3S   
  1054   1057   1060      1    1.1205e+02    3.9497e+02 ;    C14 - C13    - C12   
  1055   1054   1056      1    1.0835e+02    3.2995e+02 ;    H4R - C14    - H4S   
  1055   1054   1057      1    1.1005e+02    3.8802e+02 ;    H4R - C14    - C13   
  1056   1054   1057      1    1.1005e+02    3.8802e+02 ;    H4S - C14    - C13   
  1057   1060   1061      1    1.1005e+02    3.8802e+02 ;    C13 - C12    - H2R   
  1057   1060   1062      1    1.1005e+02    3.8802e+02 ;    C13 - C12    - H2S   
  1058   1057   1059      1    1.0835e+02    3.2995e+02 ;    H3R - C13    - H3S   
  1058   1057   1060      1    1.1005e+02    3.8802e+02 ;    H3R - C13    - C12   
  1059   1057   1060      1    1.1005e+02    3.8802e+02 ;    H3S - C13    - C12   
  1061   1060   1062      1    1.0835e+02    3.2995e+02 ;    H2R - C12    - H2S   
  1063   1064   1065      1    1.0835e+02    3.2995e+02 ;   H14T - C114   - H14R  
  1063   1064   1066      1    1.0835e+02    3.2995e+02 ;   H14T - C114   - H14S  
  1063   1064   1067      1    1.1005e+02    3.8802e+02 ;   H14T - C114   - C113  
  1064   1067   1068      1    1.1005e+02    3.8802e+02 ;   C114 - C113   - H13R  
  1064   1067   1069      1    1.1005e+02    3.8802e+02 ;   C114 - C113   - H13S  
  1064   1067   1070      1    1.1205e+02    3.9497e+02 ;   C114 - C113   - C112  
  1065   1064   1066      1    1.0835e+02    3.2995e+02 ;   H14R - C114   - H14S  
  1065   1064   1067      1    1.1005e+02    3.8802e+02 ;   H14R - C114   - C113  
  1066   1064   1067      1    1.1005e+02    3.8802e+02 ;   H14S - C114   - C113  
  1067   1070   1071      1    1.1005e+02    3.8802e+02 ;   C113 - C112   - H12R  
  1067   1070   1072      1    1.1005e+02    3.8802e+02 ;   C113 - C112   - H12S  
  1067   1070   1073      1    1.1205e+02    3.9497e+02 ;   C113 - C112   - C111  
  1068   1067   1069      1    1.0835e+02    3.2995e+02 ;   H13R - C113   - H13S  
  1068   1067   1070      1    1.1005e+02    3.8802e+02 ;   H13R - C113   - C112  
  1069   1067   1070      1    1.1005e+02    3.8802e+02 ;   H13S - C113   - C112  
  1070   1073   1074      1    1.1005e+02    3.8802e+02 ;   C112 - C111   - H11R  
  1070   1073   1075      1    1.1005e+02    3.8802e+02 ;   C112 - C111   - H11S  
  1070   1073   1076      1    1.1205e+02    3.9497e+02 ;   C112 - C111   - C110  
  1071   1070   1072      1    1.0835e+02    3.2995e+02 ;   H12R - C112   - H12S  
  1071   1070   1073      1    1.1005e+02    3.8802e+02 ;   H12R - C112   - C111  
  1072   1070   1073      1    1.1005e+02    3.8802e+02 ;   H12S - C112   - C111  
  1073   1076   1077      1    1.1005e+02    3.8802e+02 ;   C111 - C110   - H10R  
  1073   1076   1078      1    1.1005e+02    3.8802e+02 ;   C111 - C110   - H10S  
  1073   1076   1079      1    1.1205e+02    3.9497e+02 ;   C111 - C110   - C19   
  1074   1073   1075      1    1.0835e+02    3.2995e+02 ;   H11R - C111   - H11S  
  1074   1073   1076      1    1.1005e+02    3.8802e+02 ;   H11R - C111   - C110  
  1075   1073   1076      1    1.1005e+02    3.8802e+02 ;   H11S - C111   - C110  
  1076   1079   1080      1    1.1005e+02    3.8802e+02 ;   C110 - C19    - H9R   
  1076   1079   1081      1    1.1005e+02    3.8802e+02 ;   C110 - C19    - H9S   
  1076   1079   1082      1    1.1205e+02    3.9497e+02 ;   C110 - C19    - C18   
  1077   1076   1078      1    1.0835e+02    3.2995e+02 ;   H10R - C110   - H10S  
  1077   1076   1079      1    1.1005e+02    3.8802e+02 ;   H10R - C110   - C19   
  1078   1076   1079      1    1.1005e+02    3.8802e+02 ;   H10S - C110   - C19   
  1079   1082   1083      1    1.1005e+02    3.8802e+02 ;    C19 - C18    - H8R   
  1079   1082   1084      1    1.1005e+02    3.8802e+02 ;    C19 - C18    - H8S   
  1079   1082   1085      1    1.1205e+02    3.9497e+02 ;    C19 - C18    - C17   
  1080   1079   1081      1    1.0835e+02    3.2995e+02 ;    H9R - C19    - H9S   
  1080   1079   1082      1    1.1005e+02    3.8802e+02 ;    H9R - C19    - C18   
  1081   1079   1082      1    1.1005e+02    3.8802e+02 ;    H9S - C19    - C18   
  1082   1085   1086      1    1.1005e+02    3.8802e+02 ;    C18 - C17    - H7R   
  1082   1085   1087      1    1.1005e+02    3.8802e+02 ;    C18 - C17    - H7S   
  1082   1085   1088      1    1.1205e+02    3.9497e+02 ;    C18 - C17    - C16   
  1083   1082   1084      1    1.0835e+02    3.2995e+02 ;    H8R - C18    - H8S   
  1083   1082   1085      1    1.1005e+02    3.8802e+02 ;    H8R - C18    - C17   
  1084   1082   1085      1    1.1005e+02    3.8802e+02 ;    H8S - C18    - C17   
  1085   1088   1089      1    1.1005e+02    3.8802e+02 ;    C17 - C16    - H6R   
  1085   1088   1090      1    1.1005e+02    3.8802e+02 ;    C17 - C16    - H6S   
  1085   1088   1091      1    1.1205e+02    3.9497e+02 ;    C17 - C16    - C15   
  1086   1085   1087      1    1.0835e+02    3.2995e+02 ;    H7R - C17    - H7S   
  1086   1085   1088      1    1.1005e+02    3.8802e+02 ;    H7R - C17    - C16   
  1087   1085   1088      1    1.1005e+02    3.8802e+02 ;    H7S - C17    - C16   
  1088   1091   1092      1    1.1005e+02    3.8802e+02 ;    C16 - C15    - H5R   
  1088   1091   1093      1    1.1005e+02    3.8802e+02 ;    C16 - C15    - H5S   
  1088   1091   1094      1    1.1205e+02    3.9497e+02 ;    C16 - C15    - C14   
  1089   1088   1090      1    1.0835e+02    3.2995e+02 ;    H6R - C16    - H6S   
  1089   1088   1091      1    1.1005e+02    3.8802e+02 ;    H6R - C16    - C15   
  1090   1088   1091      1    1.1005e+02    3.8802e+02 ;    H6S - C16    - C15   
  1091   1094   1095      1    1.1005e+02    3.8802e+02 ;    C15 - C14    - H4R   
  1091   1094   1096      1    1.1005e+02    3.8802e+02 ;    C15 - C14    - H4S   
  1091   1094   1097      1    1.1205e+02    3.9497e+02 ;    C15 - C14    - C13   
  1092   1091   1093      1    1.0835e+02    3.2995e+02 ;    H5R - C15    - H5S   
  1092   1091   1094      1    1.1005e+02    3.8802e+02 ;    H5R - C15    - C14   
  1093   1091   1094      1    1.1005e+02    3.8802e+02 ;    H5S - C15    - C14   
  1094   1097   1098      1    1.1005e+02    3.8802e+02 ;    C14 - C13    - H3R   
  1094   1097   1099      1    1.1005e+02    3.8802e+02 ;    C14 - C13    - H3S   
  1094   1097   1100      1    1.1205e+02    3.9497e+02 ;    C14 - C13    - C12   
  1095   1094   1096      1    1.0835e+02    3.2995e+02 ;    H4R - C14    - H4S   
  1095   1094   1097      1    1.1005e+02    3.8802e+02 ;    H4R - C14    - C13   
  1096   1094   1097      1    1.1005e+02    3.8802e+02 ;    H4S - C14    - C13   
  1097   1100   1101      1    1.1005e+02    3.8802e+02 ;    C13 - C12    - H2R   
  1097   1100   1102      1    1.1005e+02    3.8802e+02 ;    C13 - C12    - H2S   
  1097   1100   1103      1    1.1053e+02    5.3379e+02 ;    C13 - C12    - C11   
  1098   1097   1099      1    1.0835e+02    3.2995e+02 ;    H3R - C13    - H3S   
  1098   1097   1100      1    1.1005e+02    3.8802e+02 ;    H3R - C13    - C12   
  1099   1097   1100      1    1.1005e+02    3.8802e+02 ;    H3S - C13    - C12   
  1100   1103   1104      1    1.2311e+02    5.6928e+02 ;    C12 - C11    - O12   
  1100   1103   1105      1    1.1196e+02    5.7957e+02 ;    C12 - C11    - O11   
  1101   1100   1102      1    1.0835e+02    3.2995e+02 ;    H2R - C12    - H2S   
  1101   1100   1103      1    1.0968e+02    3.9497e+02 ;    H2R - C12    - C11   
  1102   1100   1103      1    1.0968e+02    3.9497e+02 ;    H2S - C12    - C11   
  1103   1105   1106      1    1.1514e+02    5.3246e+02 ;    C11 - O11    - C1    
  1104   1103   1105      1    1.2333e+02    6.3538e+02 ;    O12 - C11    - O11   
  1105   1106   1107      1    1.0882e+02    4.2543e+02 ;    O11 - C1     - HR    
  1105   1106   1108      1    1.0882e+02    4.2543e+02 ;    O11 - C1     - HS    
  1105   1106   1109      1    1.0842e+02    5.6718e+02 ;    O11 - C1     - C2    
  1106   1109   1110      1    1.1007e+02    3.8794e+02 ;     C1 - C2     - HX    
  1106   1109   1111      1    1.1063e+02    5.2894e+02 ;     C1 - C2     - C3    
  1106   1109   1138      1    1.0842e+02    5.6718e+02 ;     C1 - C2     - O21   
  1107   1106   1108      1    1.0955e+02    3.2786e+02 ;     HR - C1     - HS    
  1107   1106   1109      1    1.1007e+02    3.8794e+02 ;     HR - C1     - C2    
  1108   1106   1109      1    1.1007e+02    3.8794e+02 ;     HS - C1     - C2    
  1109   1111   1112      1    1.1007e+02    3.8794e+02 ;     C2 - C3     - HA    
  1109   1111   1113      1    1.1007e+02    3.8794e+02 ;     C2 - C3     - HB    
  1109   1111   1114      1    1.0842e+02    5.6718e+02 ;     C2 - C3     - O31   
  1109   1138   1139      1    1.1514e+02    5.3246e+02 ;     C2 - O21    - C21   
  1110   1109   1111      1    1.1007e+02    3.8794e+02 ;     HX - C2     - C3    
  1110   1109   1138      1    1.0882e+02    4.2543e+02 ;     HX - C2     - O21   
  1111   1109   1138      1    1.0842e+02    5.6718e+02 ;     C3 - C2     - O21   
  1111   1114   1115      1    1.2050e+02    8.3680e+02 ;     C3 - O31    - P31   
  1112   1111   1113      1    1.0955e+02    3.2786e+02 ;     HA - C3     - HB    
  1112   1111   1114      1    1.0882e+02    4.2543e+02 ;     HA - C3     - O31   
  1113   1111   1114      1    1.0882e+02    4.2543e+02 ;     HB - C3     - O31   
  1114   1115   1116      1    1.0260e+02    7.5312e+02 ;    O31 - P31    - O32   
  1114   1115   1136      1    1.0823e+02    8.3680e+02 ;    O31 - P31    - O33   
  1114   1115   1137      1    1.0823e+02    8.3680e+02 ;    O31 - P31    - O34   
  1115   1116   1117      1    1.2050e+02    8.3680e+02 ;    P31 - O32    - C31   
  1116   1115   1136      1    1.0823e+02    8.3680e+02 ;    O32 - P31    - O33   
  1116   1115   1137      1    1.0823e+02    8.3680e+02 ;    O32 - P31    - O34   
  1116   1117   1118      1    1.0882e+02    4.2543e+02 ;    O32 - C31    - H1A   
  1116   1117   1119      1    1.0882e+02    4.2543e+02 ;    O32 - C31    - H1B   
  1116   1117   1120      1    1.0842e+02    5.6718e+02 ;    O32 - C31    - C32   
  1117   1120   1121      1    1.1174e+02    3.8510e+02 ;    C31 - C32    - H2A   
  1117   1120   1122      1    1.1174e+02    3.8510e+02 ;    C31 - C32    - H2B   
  1117   1120   1123      1    1.1432e+02    5.3932e+02 ;    C31 - C32    - N31   
  1118   1117   1119      1    1.0955e+02    3.2786e+02 ;    H1A - C31    - H1B   
  1118   1117   1120      1    1.1007e+02    3.8794e+02 ;    H1A - C31    - C32   
  1119   1117   1120      1    1.1007e+02    3.8794e+02 ;    H1B - C31    - C32   
  1120   1123   1124      1    1.1064e+02    5.2585e+02 ;    C32 - N31    - C33   
  1120   1123   1128      1    1.1064e+02    5.2585e+02 ;    C32 - N31    - C34   
  1120   1123   1132      1    1.1064e+02    5.2585e+02 ;    C32 - N31    - C35   
  1121   1120   1122      1    1.1074e+02    3.2669e+02 ;    H2A - C32    - H2B   
  1121   1120   1123      1    1.0791e+02    4.1020e+02 ;    H2A - C32    - N31   
  1122   1120   1123      1    1.0791e+02    4.1020e+02 ;    H2B - C32    - N31   
  1123   1124   1125      1    1.0791e+02    4.1020e+02 ;    N31 - C33    - H3A   
  1123   1124   1126      1    1.0791e+02    4.1020e+02 ;    N31 - C33    - H3B   
  1123   1124   1127      1    1.0791e+02    4.1020e+02 ;    N31 - C33    - H3C   
  1123   1128   1129      1    1.0791e+02    4.1020e+02 ;    N31 - C34    - H4A   
  1123   1128   1130      1    1.0791e+02    4.1020e+02 ;    N31 - C34    - H4B   
  1123   1128   1131      1    1.0791e+02    4.1020e+02 ;    N31 - C34    - H4C   
  1123   1132   1133      1    1.0791e+02    4.1020e+02 ;    N31 - C35    - H5A   
  1123   1132   1134      1    1.0791e+02    4.1020e+02 ;    N31 - C35    - H5B   
  1123   1132   1135      1    1.0791e+02    4.1020e+02 ;    N31 - C35    - H5C   
  1124   1123   1128      1    1.1064e+02    5.2585e+02 ;    C33 - N31    - C34   
  1124   1123   1132      1    1.1064e+02    5.2585e+02 ;    C33 - N31    - C35   
  1125   1124   1126      1    1.1074e+02    3.2669e+02 ;    H3A - C33    - H3B   
  1125   1124   1127      1    1.1074e+02    3.2669e+02 ;    H3A - C33    - H3C   
  1126   1124   1127      1    1.1074e+02    3.2669e+02 ;    H3B - C33    - H3C   
  1128   1123   1132      1    1.1064e+02    5.2585e+02 ;    C34 - N31    - C35   
  1129   1128   1130      1    1.1074e+02    3.2669e+02 ;    H4A - C34    - H4B   
  1129   1128   1131      1    1.1074e+02    3.2669e+02 ;    H4A - C34    - H4C   
  1130   1128   1131      1    1.1074e+02    3.2669e+02 ;    H4B - C34    - H4C   
  1133   1132   1134      1    1.1074e+02    3.2669e+02 ;    H5A - C35    - H5B   
  1133   1132   1135      1    1.1074e+02    3.2669e+02 ;    H5A - C35    - H5C   
  1134   1132   1135      1    1.1074e+02    3.2669e+02 ;    H5B - C35    - H5C   
  1136   1115   1137      1    1.1990e+02    1.1715e+03 ;    O33 - P31    - O34   
  1138   1139   1140      1    1.2333e+02    6.3538e+02 ;    O21 - C21    - O22   
  1138   1139   1178      1    1.1196e+02    5.7957e+02 ;    O21 - C21    - C12   
  1139   1178   1175      1    1.1053e+02    5.3379e+02 ;    C21 - C12    - C13   
  1139   1178   1179      1    1.0968e+02    3.9497e+02 ;    C21 - C12    - H2R   
  1139   1178   1180      1    1.0968e+02    3.9497e+02 ;    C21 - C12    - H2S   
  1140   1139   1178      1    1.2311e+02    5.6928e+02 ;    O22 - C21    - C12   
  1141   1142   1143      1    1.0835e+02    3.2995e+02 ;   H14T - C114   - H14R  
  1141   1142   1144      1    1.0835e+02    3.2995e+02 ;   H14T - C114   - H14S  
  1141   1142   1145      1    1.1005e+02    3.8802e+02 ;   H14T - C114   - C113  
  1142   1145   1146      1    1.1005e+02    3.8802e+02 ;   C114 - C113   - H13R  
  1142   1145   1147      1    1.1005e+02    3.8802e+02 ;   C114 - C113   - H13S  
  1142   1145   1148      1    1.1205e+02    3.9497e+02 ;   C114 - C113   - C112  
  1143   1142   1144      1    1.0835e+02    3.2995e+02 ;   H14R - C114   - H14S  
  1143   1142   1145      1    1.1005e+02    3.8802e+02 ;   H14R - C114   - C113  
  1144   1142   1145      1    1.1005e+02    3.8802e+02 ;   H14S - C114   - C113  
  1145   1148   1149      1    1.1005e+02    3.8802e+02 ;   C113 - C112   - H12R  
  1145   1148   1150      1    1.1005e+02    3.8802e+02 ;   C113 - C112   - H12S  
  1145   1148   1151      1    1.1205e+02    3.9497e+02 ;   C113 - C112   - C111  
  1146   1145   1147      1    1.0835e+02    3.2995e+02 ;   H13R - C113   - H13S  
  1146   1145   1148      1    1.1005e+02    3.8802e+02 ;   H13R - C113   - C112  
  1147   1145   1148      1    1.1005e+02    3.8802e+02 ;   H13S - C113   - C112  
  1148   1151   1152      1    1.1005e+02    3.8802e+02 ;   C112 - C111   - H11R  
  1148   1151   1153      1    1.1005e+02    3.8802e+02 ;   C112 - C111   - H11S  
  1148   1151   1154      1    1.1205e+02    3.9497e+02 ;   C112 - C111   - C110  
  1149   1148   1150      1    1.0835e+02    3.2995e+02 ;   H12R - C112   - H12S  
  1149   1148   1151      1    1.1005e+02    3.8802e+02 ;   H12R - C112   - C111  
  1150   1148   1151      1    1.1005e+02    3.8802e+02 ;   H12S - C112   - C111  
  1151   1154   1155      1    1.1005e+02    3.8802e+02 ;   C111 - C110   - H10R  
  1151   1154   1156      1    1.1005e+02    3.8802e+02 ;   C111 - C110   - H10S  
  1151   1154   1157      1    1.1205e+02    3.9497e+02 ;   C111 - C110   - C19   
  1152   1151   1153      1    1.0835e+02    3.2995e+02 ;   H11R - C111   - H11S  
  1152   1151   1154      1    1.1005e+02    3.8802e+02 ;   H11R - C111   - C110  
  1153   1151   1154      1    1.1005e+02    3.8802e+02 ;   H11S - C111   - C110  
  1154   1157   1158      1    1.1005e+02    3.8802e+02 ;   C110 - C19    - H9R   
  1154   1157   1159      1    1.1005e+02    3.8802e+02 ;   C110 - C19    - H9S   
  1154   1157   1160      1    1.1205e+02    3.9497e+02 ;   C110 - C19    - C18   
  1155   1154   1156      1    1.0835e+02    3.2995e+02 ;   H10R - C110   - H10S  
  1155   1154   1157      1    1.1005e+02    3.8802e+02 ;   H10R - C110   - C19   
  1156   1154   1157      1    1.1005e+02    3.8802e+02 ;   H10S - C110   - C19   
  1157   1160   1161      1    1.1005e+02    3.8802e+02 ;    C19 - C18    - H8R   
  1157   1160   1162      1    1.1005e+02    3.8802e+02 ;    C19 - C18    - H8S   
  1157   1160   1163      1    1.1205e+02    3.9497e+02 ;    C19 - C18    - C17   
  1158   1157   1159      1    1.0835e+02    3.2995e+02 ;    H9R - C19    - H9S   
  1158   1157   1160      1    1.1005e+02    3.8802e+02 ;    H9R - C19    - C18   
  1159   1157   1160      1    1.1005e+02    3.8802e+02 ;    H9S - C19    - C18   
  1160   1163   1164      1    1.1005e+02    3.8802e+02 ;    C18 - C17    - H7R   
  1160   1163   1165      1    1.1005e+02    3.8802e+02 ;    C18 - C17    - H7S   
  1160   1163   1166      1    1.1205e+02    3.9497e+02 ;    C18 - C17    - C16   
  1161   1160   1162      1    1.0835e+02    3.2995e+02 ;    H8R - C18    - H8S   
  1161   1160   1163      1    1.1005e+02    3.8802e+02 ;    H8R - C18    - C17   
  1162   1160   1163      1    1.1005e+02    3.8802e+02 ;    H8S - C18    - C17   
  1163   1166   1167      1    1.1005e+02    3.8802e+02 ;    C17 - C16    - H6R   
  1163   1166   1168      1    1.1005e+02    3.8802e+02 ;    C17 - C16    - H6S   
  1163   1166   1169      1    1.1205e+02    3.9497e+02 ;    C17 - C16    - C15   
  1164   1163   1165      1    1.0835e+02    3.2995e+02 ;    H7R - C17    - H7S   
  1164   1163   1166      1    1.1005e+02    3.8802e+02 ;    H7R - C17    - C16   
  1165   1163   1166      1    1.1005e+02    3.8802e+02 ;    H7S - C17    - C16   
  1166   1169   1170      1    1.1005e+02    3.8802e+02 ;    C16 - C15    - H5R   
  1166   1169   1171      1    1.1005e+02    3.8802e+02 ;    C16 - C15    - H5S   
  1166   1169   1172      1    1.1205e+02    3.9497e+02 ;    C16 - C15    - C14   
  1167   1166   1168      1    1.0835e+02    3.2995e+02 ;    H6R - C16    - H6S   
  1167   1166   1169      1    1.1005e+02    3.8802e+02 ;    H6R - C16    - C15   
  1168   1166   1169      1    1.1005e+02    3.8802e+02 ;    H6S - C16    - C15   
  1169   1172   1173      1    1.1005e+02    3.8802e+02 ;    C15 - C14    - H4R   
  1169   1172   1174      1    1.1005e+02    3.8802e+02 ;    C15 - C14    - H4S   
  1169   1172   1175      1    1.1205e+02    3.9497e+02 ;    C15 - C14    - C13   
  1170   1169   1171      1    1.0835e+02    3.2995e+02 ;    H5R - C15    - H5S   
  1170   1169   1172      1    1.1005e+02    3.8802e+02 ;    H5R - C15    - C14   
  1171   1169   1172      1    1.1005e+02    3.8802e+02 ;    H5S - C15    - C14   
  1172   1175   1176      1    1.1005e+02    3.8802e+02 ;    C14 - C13    - H3R   
  1172   1175   1177      1    1.1005e+02    3.8802e+02 ;    C14 - C13    - H3S   
  1172   1175   1178      1    1.1205e+02    3.9497e+02 ;    C14 - C13    - C12   
  1173   1172   1174      1    1.0835e+02    3.2995e+02 ;    H4R - C14    - H4S   
  1173   1172   1175      1    1.1005e+02    3.8802e+02 ;    H4R - C14    - C13   
  1174   1172   1175      1    1.1005e+02    3.8802e+02 ;    H4S - C14    - C13   
  1175   1178   1179      1    1.1005e+02    3.8802e+02 ;    C13 - C12    - H2R   
  1175   1178   1180      1    1.1005e+02    3.8802e+02 ;    C13 - C12    - H2S   
  1176   1175   1177      1    1.0835e+02    3.2995e+02 ;    H3R - C13    - H3S   
  1176   1175   1178      1    1.1005e+02    3.8802e+02 ;    H3R - C13    - C12   
  1177   1175   1178      1    1.1005e+02    3.8802e+02 ;    H3S - C13    - C12   
  1179   1178   1180      1    1.0835e+02    3.2995e+02 ;    H2R - C12    - H2S   
  1181   1182   1183      1    1.0835e+02    3.2995e+02 ;   H14T - C114   - H14R  
  1181   1182   1184      1    1.0835e+02    3.2995e+02 ;   H14T - C114   - H14S  
  1181   1182   1185      1    1.1005e+02    3.8802e+02 ;   H14T - C114   - C113  
  1182   1185   1186      1    1.1005e+02    3.8802e+02 ;   C114 - C113   - H13R  
  1182   1185   1187      1    1.1005e+02    3.8802e+02 ;   C114 - C113   - H13S  
  1182   1185   1188      1    1.1205e+02    3.9497e+02 ;   C114 - C113   - C112  
  1183   1182   1184      1    1.0835e+02    3.2995e+02 ;   H14R - C114   - H14S  
  1183   1182   1185      1    1.1005e+02    3.8802e+02 ;   H14R - C114   - C113  
  1184   1182   1185      1    1.1005e+02    3.8802e+02 ;   H14S - C114   - C113  
  1185   1188   1189      1    1.1005e+02    3.8802e+02 ;   C113 - C112   - H12R  
  1185   1188   1190      1    1.1005e+02    3.8802e+02 ;   C113 - C112   - H12S  
  1185   1188   1191      1    1.1205e+02    3.9497e+02 ;   C113 - C112   - C111  
  1186   1185   1187      1    1.0835e+02    3.2995e+02 ;   H13R - C113   - H13S  
  1186   1185   1188      1    1.1005e+02    3.8802e+02 ;   H13R - C113   - C112  
  1187   1185   1188      1    1.1005e+02    3.8802e+02 ;   H13S - C113   - C112  
  1188   1191   1192      1    1.1005e+02    3.8802e+02 ;   C112 - C111   - H11R  
  1188   1191   1193      1    1.1005e+02    3.8802e+02 ;   C112 - C111   - H11S  
  1188   1191   1194      1    1.1205e+02    3.9497e+02 ;   C112 - C111   - C110  
  1189   1188   1190      1    1.0835e+02    3.2995e+02 ;   H12R - C112   - H12S  
  1189   1188   1191      1    1.1005e+02    3.8802e+02 ;   H12R - C112   - C111  
  1190   1188   1191      1    1.1005e+02    3.8802e+02 ;   H12S - C112   - C111  
  1191   1194   1195      1    1.1005e+02    3.8802e+02 ;   C111 - C110   - H10R  
  1191   1194   1196      1    1.1005e+02    3.8802e+02 ;   C111 - C110   - H10S  
  1191   1194   1197      1    1.1205e+02    3.9497e+02 ;   C111 - C110   - C19   
  1192   1191   1193      1    1.0835e+02    3.2995e+02 ;   H11R - C111   - H11S  
  1192   1191   1194      1    1.1005e+02    3.8802e+02 ;   H11R - C111   - C110  
  1193   1191   1194      1    1.1005e+02    3.8802e+02 ;   H11S - C111   - C110  
  1194   1197   1198      1    1.1005e+02    3.8802e+02 ;   C110 - C19    - H9R   
  1194   1197   1199      1    1.1005e+02    3.8802e+02 ;   C110 - C19    - H9S   
  1194   1197   1200      1    1.1205e+02    3.9497e+02 ;   C110 - C19    - C18   
  1195   1194   1196      1    1.0835e+02    3.2995e+02 ;   H10R - C110   - H10S  
  1195   1194   1197      1    1.1005e+02    3.8802e+02 ;   H10R - C110   - C19   
  1196   1194   1197      1    1.1005e+02    3.8802e+02 ;   H10S - C110   - C19   
  1197   1200   1201      1    1.1005e+02    3.8802e+02 ;    C19 - C18    - H8R   
  1197   1200   1202      1    1.1005e+02    3.8802e+02 ;    C19 - C18    - H8S   
  1197   1200   1203      1    1.1205e+02    3.9497e+02 ;    C19 - C18    - C17   
  1198   1197   1199      1    1.0835e+02    3.2995e+02 ;    H9R - C19    - H9S   
  1198   1197   1200      1    1.1005e+02    3.8802e+02 ;    H9R - C19    - C18   
  1199   1197   1200      1    1.1005e+02    3.8802e+02 ;    H9S - C19    - C18   
  1200   1203   1204      1    1.1005e+02    3.8802e+02 ;    C18 - C17    - H7R   
  1200   1203   1205      1    1.1005e+02    3.8802e+02 ;    C18 - C17    - H7S   
  1200   1203   1206      1    1.1205e+02    3.9497e+02 ;    C18 - C17    - C16   
  1201   1200   1202      1    1.0835e+02    3.2995e+02 ;    H8R - C18    - H8S   
  1201   1200   1203      1    1.1005e+02    3.8802e+02 ;    H8R - C18    - C17   
  1202   1200   1203      1    1.1005e+02    3.8802e+02 ;    H8S - C18    - C17   
  1203   1206   1207      1    1.1005e+02    3.8802e+02 ;    C17 - C16    - H6R   
  1203   1206   1208      1    1.1005e+02    3.8802e+02 ;    C17 - C16    - H6S   
  1203   1206   1209      1    1.1205e+02    3.9497e+02 ;    C17 - C16    - C15   
  1204   1203   1205      1    1.0835e+02    3.2995e+02 ;    H7R - C17    - H7S   
  1204   1203   1206      1    1.1005e+02    3.8802e+02 ;    H7R - C17    - C16   
  1205   1203   1206      1    1.1005e+02    3.8802e+02 ;    H7S - C17    - C16   
  1206   1209   1210      1    1.1005e+02    3.8802e+02 ;    C16 - C15    - H5R   
  1206   1209   1211      1    1.1005e+02    3.8802e+02 ;    C16 - C15    - H5S   
  1206   1209   1212      1    1.1205e+02    3.9497e+02 ;    C16 - C15    - C14   
  1207   1206   1208      1    1.0835e+02    3.2995e+02 ;    H6R - C16    - H6S   
  1207   1206   1209      1    1.1005e+02    3.8802e+02 ;    H6R - C16    - C15   
  1208   1206   1209      1    1.1005e+02    3.8802e+02 ;    H6S - C16    - C15   
  1209   1212   1213      1    1.1005e+02    3.8802e+02 ;    C15 - C14    - H4R   
  1209   1212   1214      1    1.1005e+02    3.8802e+02 ;    C15 - C14    - H4S   
  1209   1212   1215      1    1.1205e+02    3.9497e+02 ;    C15 - C14    - C13   
  1210   1209   1211      1    1.0835e+02    3.2995e+02 ;    H5R - C15    - H5S   
  1210   1209   1212      1    1.1005e+02    3.8802e+02 ;    H5R - C15    - C14   
  1211   1209   1212      1    1.1005e+02    3.8802e+02 ;    H5S - C15    - C14   
  1212   1215   1216      1    1.1005e+02    3.8802e+02 ;    C14 - C13    - H3R   
  1212   1215   1217      1    1.1005e+02    3.8802e+02 ;    C14 - C13    - H3S   
  1212   1215   1218      1    1.1205e+02    3.9497e+02 ;    C14 - C13    - C12   
  1213   1212   1214      1    1.0835e+02    3.2995e+02 ;    H4R - C14    - H4S   
  1213   1212   1215      1    1.1005e+02    3.8802e+02 ;    H4R - C14    - C13   
  1214   1212   1215      1    1.1005e+02    3.8802e+02 ;    H4S - C14    - C13   
  1215   1218   1219      1    1.1005e+02    3.8802e+02 ;    C13 - C12    - H2R   
  1215   1218   1220      1    1.1005e+02    3.8802e+02 ;    C13 - C12    - H2S   
  1215   1218   1221      1    1.1053e+02    5.3379e+02 ;    C13 - C12    - C11   
  1216   1215   1217      1    1.0835e+02    3.2995e+02 ;    H3R - C13    - H3S   
  1216   1215   1218      1    1.1005e+02    3.8802e+02 ;    H3R - C13    - C12   
  1217   1215   1218      1    1.1005e+02    3.8802e+02 ;    H3S - C13    - C12   
  1218   1221   1222      1    1.2311e+02    5.6928e+02 ;    C12 - C11    - O12   
  1218   1221   1223      1    1.1196e+02    5.7957e+02 ;    C12 - C11    - O11   
  1219   1218   1220      1    1.0835e+02    3.2995e+02 ;    H2R - C12    - H2S   
  1219   1218   1221      1    1.0968e+02    3.9497e+02 ;    H2R - C12    - C11   
  1220   1218   1221      1    1.0968e+02    3.9497e+02 ;    H2S - C12    - C11   
  1221   1223   1224      1    1.1514e+02    5.3246e+02 ;    C11 - O11    - C1    
  1222   1221   1223      1    1.2333e+02    6.3538e+02 ;    O12 - C11    - O11   
  1223   1224   1225      1    1.0882e+02    4.2543e+02 ;    O11 - C1     - HR    
  1223   1224   1226      1    1.0882e+02    4.2543e+02 ;    O11 - C1     - HS    
  1223   1224   1227      1    1.0842e+02    5.6718e+02 ;    O11 - C1     - C2    
  1224   1227   1228      1    1.1007e+02    3.8794e+02 ;     C1 - C2     - HX    
  1224   1227   1229      1    1.1063e+02    5.2894e+02 ;     C1 - C2     - C3    
  1224   1227   1256      1    1.0842e+02    5.6718e+02 ;     C1 - C2     - O21   
  1225   1224   1226      1    1.0955e+02    3.2786e+02 ;     HR - C1     - HS    
  1225   1224   1227      1    1.1007e+02    3.8794e+02 ;     HR - C1     - C2    
  1226   1224   1227      1    1.1007e+02    3.8794e+02 ;     HS - C1     - C2    
  1227   1229   1230      1    1.1007e+02    3.8794e+02 ;     C2 - C3     - HA    
  1227   1229   1231      1    1.1007e+02    3.8794e+02 ;     C2 - C3     - HB    
  1227   1229   1232      1    1.0842e+02    5.6718e+02 ;     C2 - C3     - O31   
  1227   1256   1257      1    1.1514e+02    5.3246e+02 ;     C2 - O21    - C21   
  1228   1227   1229      1    1.1007e+02    3.8794e+02 ;     HX - C2     - C3    
  1228   1227   1256      1    1.0882e+02    4.2543e+02 ;     HX - C2     - O21   
  1229   1227   1256      1    1.0842e+02    5.6718e+02 ;     C3 - C2     - O21   
  1229   1232   1233      1    1.2050e+02    8.3680e+02 ;     C3 - O31    - P31   
  1230   1229   1231      1    1.0955e+02    3.2786e+02 ;     HA - C3     - HB    
  1230   1229   1232      1    1.0882e+02    4.2543e+02 ;     HA - C3     - O31   
  1231   1229   1232      1    1.0882e+02    4.2543e+02 ;     HB - C3     - O31   
  1232   1233   1234      1    1.0260e+02    7.5312e+02 ;    O31 - P31    - O32   
  1232   1233   1254      1    1.0823e+02    8.3680e+02 ;    O31 - P31    - O33   
  1232   1233   1255      1    1.0823e+02    8.3680e+02 ;    O31 - P31    - O34   
  1233   1234   1235      1    1.2050e+02    8.3680e+02 ;    P31 - O32    - C31   
  1234   1233   1254      1    1.0823e+02    8.3680e+02 ;    O32 - P31    - O33   
  1234   1233   1255      1    1.0823e+02    8.3680e+02 ;    O32 - P31    - O34   
  1234   1235   1236      1    1.0882e+02    4.2543e+02 ;    O32 - C31    - H1A   
  1234   1235   1237      1    1.0882e+02    4.2543e+02 ;    O32 - C31    - H1B   
  1234   1235   1238      1    1.0842e+02    5.6718e+02 ;    O32 - C31    - C32   
  1235   1238   1239      1    1.1174e+02    3.8510e+02 ;    C31 - C32    - H2A   
  1235   1238   1240      1    1.1174e+02    3.8510e+02 ;    C31 - C32    - H2B   
  1235   1238   1241      1    1.1432e+02    5.3932e+02 ;    C31 - C32    - N31   
  1236   1235   1237      1    1.0955e+02    3.2786e+02 ;    H1A - C31    - H1B   
  1236   1235   1238      1    1.1007e+02    3.8794e+02 ;    H1A - C31    - C32   
  1237   1235   1238      1    1.1007e+02    3.8794e+02 ;    H1B - C31    - C32   
  1238   1241   1242      1    1.1064e+02    5.2585e+02 ;    C32 - N31    - C33   
  1238   1241   1246      1    1.1064e+02    5.2585e+02 ;    C32 - N31    - C34   
  1238   1241   1250      1    1.1064e+02    5.2585e+02 ;    C32 - N31    - C35   
  1239   1238   1240      1    1.1074e+02    3.2669e+02 ;    H2A - C32    - H2B   
  1239   1238   1241      1    1.0791e+02    4.1020e+02 ;    H2A - C32    - N31   
  1240   1238   1241      1    1.0791e+02    4.1020e+02 ;    H2B - C32    - N31   
  1241   1242   1243      1    1.0791e+02    4.1020e+02 ;    N31 - C33    - H3A   
  1241   1242   1244      1    1.0791e+02    4.1020e+02 ;    N31 - C33    - H3B   
  1241   1242   1245      1    1.0791e+02    4.1020e+02 ;    N31 - C33    - H3C   
  1241   1246   1247      1    1.0791e+02    4.1020e+02 ;    N31 - C34    - H4A   
  1241   1246   1248      1    1.0791e+02    4.1020e+02 ;    N31 - C34    - H4B   
  1241   1246   1249      1    1.0791e+02    4.1020e+02 ;    N31 - C34    - H4C   
  1241   1250   1251      1    1.0791e+02    4.1020e+02 ;    N31 - C35    - H5A   
  1241   1250   1252      1    1.0791e+02    4.1020e+02 ;    N31 - C35    - H5B   
  1241   1250   1253      1    1.0791e+02    4.1020e+02 ;    N31 - C35    - H5C   
  1242   1241   1246      1    1.1064e+02    5.2585e+02 ;    C33 - N31    - C34   
  1242   1241   1250      1    1.1064e+02    5.2585e+02 ;    C33 - N31    - C35   
  1243   1242   1244      1    1.1074e+02    3.2669e+02 ;    H3A - C33    - H3B   
  1243   1242   1245      1    1.1074e+02    3.2669e+02 ;    H3A - C33    - H3C   
  1244   1242   1245      1    1.1074e+02    3.2669e+02 ;    H3B - C33    - H3C   
  1246   1241   1250      1    1.1064e+02    5.2585e+02 ;    C34 - N31    - C35   
  1247   1246   1248      1    1.1074e+02    3.2669e+02 ;    H4A - C34    - H4B   
  1247   1246   1249      1    1.1074e+02    3.2669e+02 ;    H4A - C34    - H4C   
  1248   1246   1249      1    1.1074e+02    3.2669e+02 ;    H4B - C34    - H4C   
  1251   1250   1252      1    1.1074e+02    3.2669e+02 ;    H5A - C35    - H5B   
  1251   1250   1253      1    1.1074e+02    3.2669e+02 ;    H5A - C35    - H5C   
  1252   1250   1253      1    1.1074e+02    3.2669e+02 ;    H5B - C35    - H5C   
  1254   1233   1255      1    1.1990e+02    1.1715e+03 ;    O33 - P31    - O34   
  1256   1257   1258      1    1.2333e+02    6.3538e+02 ;    O21 - C21    - O22   
  1256   1257   1296      1    1.1196e+02    5.7957e+02 ;    O21 - C21    - C12   
  1257   1296   1293      1    1.1053e+02    5.3379e+02 ;    C21 - C12    - C13   
  1257   1296   1297      1    1.0968e+02    3.9497e+02 ;    C21 - C12    - H2R   
  1257   1296   1298      1    1.0968e+02    3.9497e+02 ;    C21 - C12    - H2S   
  1258   1257   1296      1    1.2311e+02    5.6928e+02 ;    O22 - C21    - C12   
  1259   1260   1261      1    1.0835e+02    3.2995e+02 ;   H14T - C114   - H14R  
  1259   1260   1262      1    1.0835e+02    3.2995e+02 ;   H14T - C114   - H14S  
  1259   1260   1263      1    1.1005e+02    3.8802e+02 ;   H14T - C114   - C113  
  1260   1263   1264      1    1.1005e+02    3.8802e+02 ;   C114 - C113   - H13R  
  1260   1263   1265      1    1.1005e+02    3.8802e+02 ;   C114 - C113   - H13S  
  1260   1263   1266      1    1.1205e+02    3.9497e+02 ;   C114 - C113   - C112  
  1261   1260   1262      1    1.0835e+02    3.2995e+02 ;   H14R - C114   - H14S  
  1261   1260   1263      1    1.1005e+02    3.8802e+02 ;   H14R - C114   - C113  
  1262   1260   1263      1    1.1005e+02    3.8802e+02 ;   H14S - C114   - C113  
  1263   1266   1267      1    1.1005e+02    3.8802e+02 ;   C113 - C112   - H12R  
  1263   1266   1268      1    1.1005e+02    3.8802e+02 ;   C113 - C112   - H12S  
  1263   1266   1269      1    1.1205e+02    3.9497e+02 ;   C113 - C112   - C111  
  1264   1263   1265      1    1.0835e+02    3.2995e+02 ;   H13R - C113   - H13S  
  1264   1263   1266      1    1.1005e+02    3.8802e+02 ;   H13R - C113   - C112  
  1265   1263   1266      1    1.1005e+02    3.8802e+02 ;   H13S - C113   - C112  
  1266   1269   1270      1    1.1005e+02    3.8802e+02 ;   C112 - C111   - H11R  
  1266   1269   1271      1    1.1005e+02    3.8802e+02 ;   C112 - C111   - H11S  
  1266   1269   1272      1    1.1205e+02    3.9497e+02 ;   C112 - C111   - C110  
  1267   1266   1268      1    1.0835e+02    3.2995e+02 ;   H12R - C112   - H12S  
  1267   1266   1269      1    1.1005e+02    3.8802e+02 ;   H12R - C112   - C111  
  1268   1266   1269      1    1.1005e+02    3.8802e+02 ;   H12S - C112   - C111  
  1269   1272   1273      1    1.1005e+02    3.8802e+02 ;   C111 - C110   - H10R  
  1269   1272   1274      1    1.1005e+02    3.8802e+02 ;   C111 - C110   - H10S  
  1269   1272   1275      1    1.1205e+02    3.9497e+02 ;   C111 - C110   - C19   
  1270   1269   1271      1    1.0835e+02    3.2995e+02 ;   H11R - C111   - H11S  
  1270   1269   1272      1    1.1005e+02    3.8802e+02 ;   H11R - C111   - C110  
  1271   1269   1272      1    1.1005e+02    3.8802e+02 ;   H11S - C111   - C110  
  1272   1275   1276      1    1.1005e+02    3.8802e+02 ;   C110 - C19    - H9R   
  1272   1275   1277      1    1.1005e+02    3.8802e+02 ;   C110 - C19    - H9S   
  1272   1275   1278      1    1.1205e+02    3.9497e+02 ;   C110 - C19    - C18   
  1273   1272   1274      1    1.0835e+02    3.2995e+02 ;   H10R - C110   - H10S  
  1273   1272   1275      1    1.1005e+02    3.8802e+02 ;   H10R - C110   - C19   
  1274   1272   1275      1    1.1005e+02    3.8802e+02 ;   H10S - C110   - C19   
  1275   1278   1279      1    1.1005e+02    3.8802e+02 ;    C19 - C18    - H8R   
  1275   1278   1280      1    1.1005e+02    3.8802e+02 ;    C19 - C18    - H8S   
  1275   1278   1281      1    1.1205e+02    3.9497e+02 ;    C19 - C18    - C17   
  1276   1275   1277      1    1.0835e+02    3.2995e+02 ;    H9R - C19    - H9S   
  1276   1275   1278      1    1.1005e+02    3.8802e+02 ;    H9R - C19    - C18   
  1277   1275   1278      1    1.1005e+02    3.8802e+02 ;    H9S - C19    - C18   
  1278   1281   1282      1    1.1005e+02    3.8802e+02 ;    C18 - C17    - H7R   
  1278   1281   1283      1    1.1005e+02    3.8802e+02 ;    C18 - C17    - H7S   
  1278   1281   1284      1    1.1205e+02    3.9497e+02 ;    C18 - C17    - C16   
  1279   1278   1280      1    1.0835e+02    3.2995e+02 ;    H8R - C18    - H8S   
  1279   1278   1281      1    1.1005e+02    3.8802e+02 ;    H8R - C18    - C17   
  1280   1278   1281      1    1.1005e+02    3.8802e+02 ;    H8S - C18    - C17   
  1281   1284   1285      1    1.1005e+02    3.8802e+02 ;    C17 - C16    - H6R   
  1281   1284   1286      1    1.1005e+02    3.8802e+02 ;    C17 - C16    - H6S   
  1281   1284   1287      1    1.1205e+02    3.9497e+02 ;    C17 - C16    - C15   
  1282   1281   1283      1    1.0835e+02    3.2995e+02 ;    H7R - C17    - H7S   
  1282   1281   1284      1    1.1005e+02    3.8802e+02 ;    H7R - C17    - C16   
  1283   1281   1284      1    1.1005e+02    3.8802e+02 ;    H7S - C17    - C16   
  1284   1287   1288      1    1.1005e+02    3.8802e+02 ;    C16 - C15    - H5R   
  1284   1287   1289      1    1.1005e+02    3.8802e+02 ;    C16 - C15    - H5S   
  1284   1287   1290      1    1.1205e+02    3.9497e+02 ;    C16 - C15    - C14   
  1285   1284   1286      1    1.0835e+02    3.2995e+02 ;    H6R - C16    - H6S   
  1285   1284   1287      1    1.1005e+02    3.8802e+02 ;    H6R - C16    - C15   
  1286   1284   1287      1    1.1005e+02    3.8802e+02 ;    H6S - C16    - C15   
  1287   1290   1291      1    1.1005e+02    3.8802e+02 ;    C15 - C14    - H4R   
  1287   1290   1292      1    1.1005e+02    3.8802e+02 ;    C15 - C14    - H4S   
  1287   1290   1293      1    1.1205e+02    3.9497e+02 ;    C15 - C14    - C13   
  1288   1287   1289      1    1.0835e+02    3.2995e+02 ;    H5R - C15    - H5S   
  1288   1287   1290      1    1.1005e+02    3.8802e+02 ;    H5R - C15    - C14   
  1289   1287   1290      1    1.1005e+02    3.8802e+02 ;    H5S - C15    - C14   
  1290   1293   1294      1    1.1005e+02    3.8802e+02 ;    C14 - C13    - H3R   
  1290   1293   1295      1    1.1005e+02    3.8802e+02 ;    C14 - C13    - H3S   
  1290   1293   1296      1    1.1205e+02    3.9497e+02 ;    C14 - C13    - C12   
  1291   1290   1292      1    1.0835e+02    3.2995e+02 ;    H4R - C14    - H4S   
  1291   1290   1293      1    1.1005e+02    3.8802e+02 ;    H4R - C14    - C13   
  1292   1290   1293      1    1.1005e+02    3.8802e+02 ;    H4S - C14    - C13   
  1293   1296   1297      1    1.1005e+02    3.8802e+02 ;    C13 - C12    - H2R   
  1293   1296   1298      1    1.1005e+02    3.8802e+02 ;    C13 - C12    - H2S   
  1294   1293   1295      1    1.0835e+02    3.2995e+02 ;    H3R - C13    - H3S   
  1294   1293   1296      1    1.1005e+02    3.8802e+02 ;    H3R - C13    - C12   
  1295   1293   1296      1    1.1005e+02    3.8802e+02 ;    H3S - C13    - C12   
  1297   1296   1298      1    1.0835e+02    3.2995e+02 ;    H2R - C12    - H2S   
  1299   1300   1301      1    1.0835e+02    3.2995e+02 ;   H14T - C114   - H14R  
  1299   1300   1302      1    1.0835e+02    3.2995e+02 ;   H14T - C114   - H14S  
  1299   1300   1303      1    1.1005e+02    3.8802e+02 ;   H14T - C114   - C113  
  1300   1303   1304      1    1.1005e+02    3.8802e+02 ;   C114 - C113   - H13R  
  1300   1303   1305      1    1.1005e+02    3.8802e+02 ;   C114 - C113   - H13S  
  1300   1303   1306      1    1.1205e+02    3.9497e+02 ;   C114 - C113   - C112  
  1301   1300   1302      1    1.0835e+02    3.2995e+02 ;   H14R - C114   - H14S  
  1301   1300   1303      1    1.1005e+02    3.8802e+02 ;   H14R - C114   - C113  
  1302   1300   1303      1    1.1005e+02    3.8802e+02 ;   H14S - C114   - C113  
  1303   1306   1307      1    1.1005e+02    3.8802e+02 ;   C113 - C112   - H12R  
  1303   1306   1308      1    1.1005e+02    3.8802e+02 ;   C113 - C112   - H12S  
  1303   1306   1309      1    1.1205e+02    3.9497e+02 ;   C113 - C112   - C111  
  1304   1303   1305      1    1.0835e+02    3.2995e+02 ;   H13R - C113   - H13S  
  1304   1303   1306      1    1.1005e+02    3.8802e+02 ;   H13R - C113   - C112  
  1305   1303   1306      1    1.1005e+02    3.8802e+02 ;   H13S - C113   - C112  
  1306   1309   1310      1    1.1005e+02    3.8802e+02 ;   C112 - C111   - H11R  
  1306   1309   1311      1    1.1005e+02    3.8802e+02 ;   C112 - C111   - H11S  
  1306   1309   1312      1    1.1205e+02    3.9497e+02 ;   C112 - C111   - C110  
  1307   1306   1308      1    1.0835e+02    3.2995e+02 ;   H12R - C112   - H12S  
  1307   1306   1309      1    1.1005e+02    3.8802e+02 ;   H12R - C112   - C111  
  1308   1306   1309      1    1.1005e+02    3.8802e+02 ;   H12S - C112   - C111  
  1309   1312   1313      1    1.1005e+02    3.8802e+02 ;   C111 - C110   - H10R  
  1309   1312   1314      1    1.1005e+02    3.8802e+02 ;   C111 - C110   - H10S  
  1309   1312   1315      1    1.1205e+02    3.9497e+02 ;   C111 - C110   - C19   
  1310   1309   1311      1    1.0835e+02    3.2995e+02 ;   H11R - C111   - H11S  
  1310   1309   1312      1    1.1005e+02    3.8802e+02 ;   H11R - C111   - C110  
  1311   1309   1312      1    1.1005e+02    3.8802e+02 ;   H11S - C111   - C110  
  1312   1315   1316      1    1.1005e+02    3.8802e+02 ;   C110 - C19    - H9R   
  1312   1315   1317      1    1.1005e+02    3.8802e+02 ;   C110 - C19    - H9S   
  1312   1315   1318      1    1.1205e+02    3.9497e+02 ;   C110 - C19    - C18   
  1313   1312   1314      1    1.0835e+02    3.2995e+02 ;   H10R - C110   - H10S  
  1313   1312   1315      1    1.1005e+02    3.8802e+02 ;   H10R - C110   - C19   
  1314   1312   1315      1    1.1005e+02    3.8802e+02 ;   H10S - C110   - C19   
  1315   1318   1319      1    1.1005e+02    3.8802e+02 ;    C19 - C18    - H8R   
  1315   1318   1320      1    1.1005e+02    3.8802e+02 ;    C19 - C18    - H8S   
  1315   1318   1321      1    1.1205e+02    3.9497e+02 ;    C19 - C18    - C17   
  1316   1315   1317      1    1.0835e+02    3.2995e+02 ;    H9R - C19    - H9S   
  1316   1315   1318      1    1.1005e+02    3.8802e+02 ;    H9R - C19    - C18   
  1317   1315   1318      1    1.1005e+02    3.8802e+02 ;    H9S - C19    - C18   
  1318   1321   1322      1    1.1005e+02    3.8802e+02 ;    C18 - C17    - H7R   
  1318   1321   1323      1    1.1005e+02    3.8802e+02 ;    C18 - C17    - H7S   
  1318   1321   1324      1    1.1205e+02    3.9497e+02 ;    C18 - C17    - C16   
  1319   1318   1320      1    1.0835e+02    3.2995e+02 ;    H8R - C18    - H8S   
  1319   1318   1321      1    1.1005e+02    3.8802e+02 ;    H8R - C18    - C17   
  1320   1318   1321      1    1.1005e+02    3.8802e+02 ;    H8S - C18    - C17   
  1321   1324   1325      1    1.1005e+02    3.8802e+02 ;    C17 - C16    - H6R   
  1321   1324   1326      1    1.1005e+02    3.8802e+02 ;    C17 - C16    - H6S   
  1321   1324   1327      1    1.1205e+02    3.9497e+02 ;    C17 - C16    - C15   
  1322   1321   1323      1    1.0835e+02    3.2995e+02 ;    H7R - C17    - H7S   
  1322   1321   1324      1    1.1005e+02    3.8802e+02 ;    H7R - C17    - C16   
  1323   1321   1324      1    1.1005e+02    3.8802e+02 ;    H7S - C17    - C16   
  1324   1327   1328      1    1.1005e+02    3.8802e+02 ;    C16 - C15    - H5R   
  1324   1327   1329      1    1.1005e+02    3.8802e+02 ;    C16 - C15    - H5S   
  1324   1327   1330      1    1.1205e+02    3.9497e+02 ;    C16 - C15    - C14   
  1325   1324   1326      1    1.0835e+02    3.2995e+02 ;    H6R - C16    - H6S   
  1325   1324   1327      1    1.1005e+02    3.8802e+02 ;    H6R - C16    - C15   
  1326   1324   1327      1    1.1005e+02    3.8802e+02 ;    H6S - C16    - C15   
  1327   1330   1331      1    1.1005e+02    3.8802e+02 ;    C15 - C14    - H4R   
  1327   1330   1332      1    1.1005e+02    3.8802e+02 ;    C15 - C14    - H4S   
  1327   1330   1333      1    1.1205e+02    3.9497e+02 ;    C15 - C14    - C13   
  1328   1327   1329      1    1.0835e+02    3.2995e+02 ;    H5R - C15    - H5S   
  1328   1327   1330      1    1.1005e+02    3.8802e+02 ;    H5R - C15    - C14   
  1329   1327   1330      1    1.1005e+02    3.8802e+02 ;    H5S - C15    - C14   
  1330   1333   1334      1    1.1005e+02    3.8802e+02 ;    C14 - C13    - H3R   
  1330   1333   1335      1    1.1005e+02    3.8802e+02 ;    C14 - C13    - H3S   
  1330   1333   1336      1    1.1205e+02    3.9497e+02 ;    C14 - C13    - C12   
  1331   1330   1332      1    1.0835e+02    3.2995e+02 ;    H4R - C14    - H4S   
  1331   1330   1333      1    1.1005e+02    3.8802e+02 ;    H4R - C14    - C13   
  1332   1330   1333      1    1.1005e+02    3.8802e+02 ;    H4S - C14    - C13   
  1333   1336   1337      1    1.1005e+02    3.8802e+02 ;    C13 - C12    - H2R   
  1333   1336   1338      1    1.1005e+02    3.8802e+02 ;    C13 - C12    - H2S   
  1333   1336   1339      1    1.1053e+02    5.3379e+02 ;    C13 - C12    - C11   
  1334   1333   1335      1    1.0835e+02    3.2995e+02 ;    H3R - C13    - H3S   
  1334   1333   1336      1    1.1005e+02    3.8802e+02 ;    H3R - C13    - C12   
  1335   1333   1336      1    1.1005e+02    3.8802e+02 ;    H3S - C13    - C12   
  1336   1339   1340      1    1.2311e+02    5.6928e+02 ;    C12 - C11    - O12   
  1336   1339   1341      1    1.1196e+02    5.7957e+02 ;    C12 - C11    - O11   
  1337   1336   1338      1    1.0835e+02    3.2995e+02 ;    H2R - C12    - H2S   
  1337   1336   1339      1    1.0968e+02    3.9497e+02 ;    H2R - C12    - C11   
  1338   1336   1339      1    1.0968e+02    3.9497e+02 ;    H2S - C12    - C11   
  1339   1341   1342      1    1.1514e+02    5.3246e+02 ;    C11 - O11    - C1    
  1340   1339   1341      1    1.2333e+02    6.3538e+02 ;    O12 - C11    - O11   
  1341   1342   1343      1    1.0882e+02    4.2543e+02 ;    O11 - C1     - HR    
  1341   1342   1344      1    1.0882e+02    4.2543e+02 ;    O11 - C1     - HS    
  1341   1342   1345      1    1.0842e+02    5.6718e+02 ;    O11 - C1     - C2    
  1342   1345   1346      1    1.1007e+02    3.8794e+02 ;     C1 - C2     - HX    
  1342   1345   1347      1    1.1063e+02    5.2894e+02 ;     C1 - C2     - C3    
  1342   1345   1374      1    1.0842e+02    5.6718e+02 ;     C1 - C2     - O21   
  1343   1342   1344      1    1.0955e+02    3.2786e+02 ;     HR - C1     - HS    
  1343   1342   1345      1    1.1007e+02    3.8794e+02 ;     HR - C1     - C2    
  1344   1342   1345      1    1.1007e+02    3.8794e+02 ;     HS - C1     - C2    
  1345   1347   1348      1    1.1007e+02    3.8794e+02 ;     C2 - C3     - HA    
  1345   1347   1349      1    1.1007e+02    3.8794e+02 ;     C2 - C3     - HB    
  1345   1347   1350      1    1.0842e+02    5.6718e+02 ;     C2 - C3     - O31   
  1345   1374   1375      1    1.1514e+02    5.3246e+02 ;     C2 - O21    - C21   
  1346   1345   1347      1    1.1007e+02    3.8794e+02 ;     HX - C2     - C3    
  1346   1345   1374      1    1.0882e+02    4.2543e+02 ;     HX - C2     - O21   
  1347   1345   1374      1    1.0842e+02    5.6718e+02 ;     C3 - C2     - O21   
  1347   1350   1351      1    1.2050e+02    8.3680e+02 ;     C3 - O31    - P31   
  1348   1347   1349      1    1.0955e+02    3.2786e+02 ;     HA - C3     - HB    
  1348   1347   1350      1    1.0882e+02    4.2543e+02 ;     HA - C3     - O31   
  1349   1347   1350      1    1.0882e+02    4.2543e+02 ;     HB - C3     - O31   
  1350   1351   1352      1    1.0260e+02    7.5312e+02 ;    O31 - P31    - O32   
  1350   1351   1372      1    1.0823e+02    8.3680e+02 ;    O31 - P31    - O33   
  1350   1351   1373      1    1.0823e+02    8.3680e+02 ;    O31 - P31    - O34   
  1351   1352   1353      1    1.2050e+02    8.3680e+02 ;    P31 - O32    - C31   
  1352   1351   1372      1    1.0823e+02    8.3680e+02 ;    O32 - P31    - O33   
  1352   1351   1373      1    1.0823e+02    8.3680e+02 ;    O32 - P31    - O34   
  1352   1353   1354      1    1.0882e+02    4.2543e+02 ;    O32 - C31    - H1A   
  1352   1353   1355      1    1.0882e+02    4.2543e+02 ;    O32 - C31    - H1B   
  1352   1353   1356      1    1.0842e+02    5.6718e+02 ;    O32 - C31    - C32   
  1353   1356   1357      1    1.1174e+02    3.8510e+02 ;    C31 - C32    - H2A   
  1353   1356   1358      1    1.1174e+02    3.8510e+02 ;    C31 - C32    - H2B   
  1353   1356   1359      1    1.1432e+02    5.3932e+02 ;    C31 - C32    - N31   
  1354   1353   1355      1    1.0955e+02    3.2786e+02 ;    H1A - C31    - H1B   
  1354   1353   1356      1    1.1007e+02    3.8794e+02 ;    H1A - C31    - C32   
  1355   1353   1356      1    1.1007e+02    3.8794e+02 ;    H1B - C31    - C32   
  1356   1359   1360      1    1.1064e+02    5.2585e+02 ;    C32 - N31    - C33   
  1356   1359   1364      1    1.1064e+02    5.2585e+02 ;    C32 - N31    - C34   
  1356   1359   1368      1    1.1064e+02    5.2585e+02 ;    C32 - N31    - C35   
  1357   1356   1358      1    1.1074e+02    3.2669e+02 ;    H2A - C32    - H2B   
  1357   1356   1359      1    1.0791e+02    4.1020e+02 ;    H2A - C32    - N31   
  1358   1356   1359      1    1.0791e+02    4.1020e+02 ;    H2B - C32    - N31   
  1359   1360   1361      1    1.0791e+02    4.1020e+02 ;    N31 - C33    - H3A   
  1359   1360   1362      1    1.0791e+02    4.1020e+02 ;    N31 - C33    - H3B   
  1359   1360   1363      1    1.0791e+02    4.1020e+02 ;    N31 - C33    - H3C   
  1359   1364   1365      1    1.0791e+02    4.1020e+02 ;    N31 - C34    - H4A   
  1359   1364   1366      1    1.0791e+02    4.1020e+02 ;    N31 - C34    - H4B   
  1359   1364   1367      1    1.0791e+02    4.1020e+02 ;    N31 - C34    - H4C   
  1359   1368   1369      1    1.0791e+02    4.1020e+02 ;    N31 - C35    - H5A   
  1359   1368   1370      1    1.0791e+02    4.1020e+02 ;    N31 - C35    - H5B   
  1359   1368   1371      1    1.0791e+02    4.1020e+02 ;    N31 - C35    - H5C   
  1360   1359   1364      1    1.1064e+02    5.2585e+02 ;    C33 - N31    - C34   
  1360   1359   1368      1    1.1064e+02    5.2585e+02 ;    C33 - N31    - C35   
  1361   1360   1362      1    1.1074e+02    3.2669e+02 ;    H3A - C33    - H3B   
  1361   1360   1363      1    1.1074e+02    3.2669e+02 ;    H3A - C33    - H3C   
  1362   1360   1363      1    1.1074e+02    3.2669e+02 ;    H3B - C33    - H3C   
  1364   1359   1368      1    1.1064e+02    5.2585e+02 ;    C34 - N31    - C35   
  1365   1364   1366      1    1.1074e+02    3.2669e+02 ;    H4A - C34    - H4B   
  1365   1364   1367      1    1.1074e+02    3.2669e+02 ;    H4A - C34    - H4C   
  1366   1364   1367      1    1.1074e+02    3.2669e+02 ;    H4B - C34    - H4C   
  1369   1368   1370      1    1.1074e+02    3.2669e+02 ;    H5A - C35    - H5B   
  1369   1368   1371      1    1.1074e+02    3.2669e+02 ;    H5A - C35    - H5C   
  1370   1368   1371      1    1.1074e+02    3.2669e+02 ;    H5B - C35    - H5C   
  1372   1351   1373      1    1.1990e+02    1.1715e+03 ;    O33 - P31    - O34   
  1374   1375   1376      1    1.2333e+02    6.3538e+02 ;    O21 - C21    - O22   
  1374   1375   1414      1    1.1196e+02    5.7957e+02 ;    O21 - C21    - C12   
  1375   1414   1411      1    1.1053e+02    5.3379e+02 ;    C21 - C12    - C13   
  1375   1414   1415      1    1.0968e+02    3.9497e+02 ;    C21 - C12    - H2R   
  1375   1414   1416      1    1.0968e+02    3.9497e+02 ;    C21 - C12    - H2S   
  1376   1375   1414      1    1.2311e+02    5.6928e+02 ;    O22 - C21    - C12   
  1377   1378   1379      1    1.0835e+02    3.2995e+02 ;   H14T - C114   - H14R  
  1377   1378   1380      1    1.0835e+02    3.2995e+02 ;   H14T - C114   - H14S  
  1377   1378   1381      1    1.1005e+02    3.8802e+02 ;   H14T - C114   - C113  
  1378   1381   1382      1    1.1005e+02    3.8802e+02 ;   C114 - C113   - H13R  
  1378   1381   1383      1    1.1005e+02    3.8802e+02 ;   C114 - C113   - H13S  
  1378   1381   1384      1    1.1205e+02    3.9497e+02 ;   C114 - C113   - C112  
  1379   1378   1380      1    1.0835e+02    3.2995e+02 ;   H14R - C114   - H14S  
  1379   1378   1381      1    1.1005e+02    3.8802e+02 ;   H14R - C114   - C113  
  1380   1378   1381      1    1.1005e+02    3.8802e+02 ;   H14S - C114   - C113  
  1381   1384   1385      1    1.1005e+02    3.8802e+02 ;   C113 - C112   - H12R  
  1381   1384   1386      1    1.1005e+02    3.8802e+02 ;   C113 - C112   - H12S  
  1381   1384   1387      1    1.1205e+02    3.9497e+02 ;   C113 - C112   - C111  
  1382   1381   1383      1    1.0835e+02    3.2995e+02 ;   H13R - C113   - H13S  
  1382   1381   1384      1    1.1005e+02    3.8802e+02 ;   H13R - C113   - C112  
  1383   1381   1384      1    1.1005e+02    3.8802e+02 ;   H13S - C113   - C112  
  1384   1387   1388      1    1.1005e+02    3.8802e+02 ;   C112 - C111   - H11R  
  1384   1387   1389      1    1.1005e+02    3.8802e+02 ;   C112 - C111   - H11S  
  1384   1387   1390      1    1.1205e+02    3.9497e+02 ;   C112 - C111   - C110  
  1385   1384   1386      1    1.0835e+02    3.2995e+02 ;   H12R - C112   - H12S  
  1385   1384   1387      1    1.1005e+02    3.8802e+02 ;   H12R - C112   - C111  
  1386   1384   1387      1    1.1005e+02    3.8802e+02 ;   H12S - C112   - C111  
  1387   1390   1391      1    1.1005e+02    3.8802e+02 ;   C111 - C110   - H10R  
  1387   1390   1392      1    1.1005e+02    3.8802e+02 ;   C111 - C110   - H10S  
  1387   1390   1393      1    1.1205e+02    3.9497e+02 ;   C111 - C110   - C19   
  1388   1387   1389      1    1.0835e+02    3.2995e+02 ;   H11R - C111   - H11S  
  1388   1387   1390      1    1.1005e+02    3.8802e+02 ;   H11R - C111   - C110  
  1389   1387   1390      1    1.1005e+02    3.8802e+02 ;   H11S - C111   - C110  
  1390   1393   1394      1    1.1005e+02    3.8802e+02 ;   C110 - C19    - H9R   
  1390   1393   1395      1    1.1005e+02    3.8802e+02 ;   C110 - C19    - H9S   
  1390   1393   1396      1    1.1205e+02    3.9497e+02 ;   C110 - C19    - C18   
  1391   1390   1392      1    1.0835e+02    3.2995e+02 ;   H10R - C110   - H10S  
  1391   1390   1393      1    1.1005e+02    3.8802e+02 ;   H10R - C110   - C19   
  1392   1390   1393      1    1.1005e+02    3.8802e+02 ;   H10S - C110   - C19   
  1393   1396   1397      1    1.1005e+02    3.8802e+02 ;    C19 - C18    - H8R   
  1393   1396   1398      1    1.1005e+02    3.8802e+02 ;    C19 - C18    - H8S   
  1393   1396   1399      1    1.1205e+02    3.9497e+02 ;    C19 - C18    - C17   
  1394   1393   1395      1    1.0835e+02    3.2995e+02 ;    H9R - C19    - H9S   
  1394   1393   1396      1    1.1005e+02    3.8802e+02 ;    H9R - C19    - C18   
  1395   1393   1396      1    1.1005e+02    3.8802e+02 ;    H9S - C19    - C18   
  1396   1399   1400      1    1.1005e+02    3.8802e+02 ;    C18 - C17    - H7R   
  1396   1399   1401      1    1.1005e+02    3.8802e+02 ;    C18 - C17    - H7S   
  1396   1399   1402      1    1.1205e+02    3.9497e+02 ;    C18 - C17    - C16   
  1397   1396   1398      1    1.0835e+02    3.2995e+02 ;    H8R - C18    - H8S   
  1397   1396   1399      1    1.1005e+02    3.8802e+02 ;    H8R - C18    - C17   
  1398   1396   1399      1    1.1005e+02    3.8802e+02 ;    H8S - C18    - C17   
  1399   1402   1403      1    1.1005e+02    3.8802e+02 ;    C17 - C16    - H6R   
  1399   1402   1404      1    1.1005e+02    3.8802e+02 ;    C17 - C16    - H6S   
  1399   1402   1405      1    1.1205e+02    3.9497e+02 ;    C17 - C16    - C15   
  1400   1399   1401      1    1.0835e+02    3.2995e+02 ;    H7R - C17    - H7S   
  1400   1399   1402      1    1.1005e+02    3.8802e+02 ;    H7R - C17    - C16   
  1401   1399   1402      1    1.1005e+02    3.8802e+02 ;    H7S - C17    - C16   
  1402   1405   1406      1    1.1005e+02    3.8802e+02 ;    C16 - C15    - H5R   
  1402   1405   1407      1    1.1005e+02    3.8802e+02 ;    C16 - C15    - H5S   
  1402   1405   1408      1    1.1205e+02    3.9497e+02 ;    C16 - C15    - C14   
  1403   1402   1404      1    1.0835e+02    3.2995e+02 ;    H6R - C16    - H6S   
  1403   1402   1405      1    1.1005e+02    3.8802e+02 ;    H6R - C16    - C15   
  1404   1402   1405      1    1.1005e+02    3.8802e+02 ;    H6S - C16    - C15   
  1405   1408   1409      1    1.1005e+02    3.8802e+02 ;    C15 - C14    - H4R   
  1405   1408   1410      1    1.1005e+02    3.8802e+02 ;    C15 - C14    - H4S   
  1405   1408   1411      1    1.1205e+02    3.9497e+02 ;    C15 - C14    - C13   
  1406   1405   1407      1    1.0835e+02    3.2995e+02 ;    H5R - C15    - H5S   
  1406   1405   1408      1    1.1005e+02    3.8802e+02 ;    H5R - C15    - C14   
  1407   1405   1408      1    1.1005e+02    3.8802e+02 ;    H5S - C15    - C14   
  1408   1411   1412      1    1.1005e+02    3.8802e+02 ;    C14 - C13    - H3R   
  1408   1411   1413      1    1.1005e+02    3.8802e+02 ;    C14 - C13    - H3S   
  1408   1411   1414      1    1.1205e+02    3.9497e+02 ;    C14 - C13    - C12   
  1409   1408   1410      1    1.0835e+02    3.2995e+02 ;    H4R - C14    - H4S   
  1409   1408   1411      1    1.1005e+02    3.8802e+02 ;    H4R - C14    - C13   
  1410   1408   1411      1    1.1005e+02    3.8802e+02 ;    H4S - C14    - C13   
  1411   1414   1415      1    1.1005e+02    3.8802e+02 ;    C13 - C12    - H2R   
  1411   1414   1416      1    1.1005e+02    3.8802e+02 ;    C13 - C12    - H2S   
  1412   1411   1413      1    1.0835e+02    3.2995e+02 ;    H3R - C13    - H3S   
  1412   1411   1414      1    1.1005e+02    3.8802e+02 ;    H3R - C13    - C12   
  1413   1411   1414      1    1.1005e+02    3.8802e+02 ;    H3S - C13    - C12   
  1415   1414   1416      1    1.0835e+02    3.2995e+02 ;    H2R - C12    - H2S   
  1417   1418   1419      1    1.0835e+02    3.2995e+02 ;   H14T - C114   - H14R  
  1417   1418   1420      1    1.0835e+02    3.2995e+02 ;   H14T - C114   - H14S  
  1417   1418   1421      1    1.1005e+02    3.8802e+02 ;   H14T - C114   - C113  
  1418   1421   1422      1    1.1005e+02    3.8802e+02 ;   C114 - C113   - H13R  
  1418   1421   1423      1    1.1005e+02    3.8802e+02 ;   C114 - C113   - H13S  
  1418   1421   1424      1    1.1205e+02    3.9497e+02 ;   C114 - C113   - C112  
  1419   1418   1420      1    1.0835e+02    3.2995e+02 ;   H14R - C114   - H14S  
  1419   1418   1421      1    1.1005e+02    3.8802e+02 ;   H14R - C114   - C113  
  1420   1418   1421      1    1.1005e+02    3.8802e+02 ;   H14S - C114   - C113  
  1421   1424   1425      1    1.1005e+02    3.8802e+02 ;   C113 - C112   - H12R  
  1421   1424   1426      1    1.1005e+02    3.8802e+02 ;   C113 - C112   - H12S  
  1421   1424   1427      1    1.1205e+02    3.9497e+02 ;   C113 - C112   - C111  
  1422   1421   1423      1    1.0835e+02    3.2995e+02 ;   H13R - C113   - H13S  
  1422   1421   1424      1    1.1005e+02    3.8802e+02 ;   H13R - C113   - C112  
  1423   1421   1424      1    1.1005e+02    3.8802e+02 ;   H13S - C113   - C112  
  1424   1427   1428      1    1.1005e+02    3.8802e+02 ;   C112 - C111   - H11R  
  1424   1427   1429      1    1.1005e+02    3.8802e+02 ;   C112 - C111   - H11S  
  1424   1427   1430      1    1.1205e+02    3.9497e+02 ;   C112 - C111   - C110  
  1425   1424   1426      1    1.0835e+02    3.2995e+02 ;   H12R - C112   - H12S  
  1425   1424   1427      1    1.1005e+02    3.8802e+02 ;   H12R - C112   - C111  
  1426   1424   1427      1    1.1005e+02    3.8802e+02 ;   H12S - C112   - C111  
  1427   1430   1431      1    1.1005e+02    3.8802e+02 ;   C111 - C110   - H10R  
  1427   1430   1432      1    1.1005e+02    3.8802e+02 ;   C111 - C110   - H10S  
  1427   1430   1433      1    1.1205e+02    3.9497e+02 ;   C111 - C110   - C19   
  1428   1427   1429      1    1.0835e+02    3.2995e+02 ;   H11R - C111   - H11S  
  1428   1427   1430      1    1.1005e+02    3.8802e+02 ;   H11R - C111   - C110  
  1429   1427   1430      1    1.1005e+02    3.8802e+02 ;   H11S - C111   - C110  
  1430   1433   1434      1    1.1005e+02    3.8802e+02 ;   C110 - C19    - H9R   
  1430   1433   1435      1    1.1005e+02    3.8802e+02 ;   C110 - C19    - H9S   
  1430   1433   1436      1    1.1205e+02    3.9497e+02 ;   C110 - C19    - C18   
  1431   1430   1432      1    1.0835e+02    3.2995e+02 ;   H10R - C110   - H10S  
  1431   1430   1433      1    1.1005e+02    3.8802e+02 ;   H10R - C110   - C19   
  1432   1430   1433      1    1.1005e+02    3.8802e+02 ;   H10S - C110   - C19   
  1433   1436   1437      1    1.1005e+02    3.8802e+02 ;    C19 - C18    - H8R   
  1433   1436   1438      1    1.1005e+02    3.8802e+02 ;    C19 - C18    - H8S   
  1433   1436   1439      1    1.1205e+02    3.9497e+02 ;    C19 - C18    - C17   
  1434   1433   1435      1    1.0835e+02    3.2995e+02 ;    H9R - C19    - H9S   
  1434   1433   1436      1    1.1005e+02    3.8802e+02 ;    H9R - C19    - C18   
  1435   1433   1436      1    1.1005e+02    3.8802e+02 ;    H9S - C19    - C18   
  1436   1439   1440      1    1.1005e+02    3.8802e+02 ;    C18 - C17    - H7R   
  1436   1439   1441      1    1.1005e+02    3.8802e+02 ;    C18 - C17    - H7S   
  1436   1439   1442      1    1.1205e+02    3.9497e+02 ;    C18 - C17    - C16   
  1437   1436   1438      1    1.0835e+02    3.2995e+02 ;    H8R - C18    - H8S   
  1437   1436   1439      1    1.1005e+02    3.8802e+02 ;    H8R - C18    - C17   
  1438   1436   1439      1    1.1005e+02    3.8802e+02 ;    H8S - C18    - C17   
  1439   1442   1443      1    1.1005e+02    3.8802e+02 ;    C17 - C16    - H6R   
  1439   1442   1444      1    1.1005e+02    3.8802e+02 ;    C17 - C16    - H6S   
  1439   1442   1445      1    1.1205e+02    3.9497e+02 ;    C17 - C16    - C15   
  1440   1439   1441      1    1.0835e+02    3.2995e+02 ;    H7R - C17    - H7S   
  1440   1439   1442      1    1.1005e+02    3.8802e+02 ;    H7R - C17    - C16   
  1441   1439   1442      1    1.1005e+02    3.8802e+02 ;    H7S - C17    - C16   
  1442   1445   1446      1    1.1005e+02    3.8802e+02 ;    C16 - C15    - H5R   
  1442   1445   1447      1    1.1005e+02    3.8802e+02 ;    C16 - C15    - H5S   
  1442   1445   1448      1    1.1205e+02    3.9497e+02 ;    C16 - C15    - C14   
  1443   1442   1444      1    1.0835e+02    3.2995e+02 ;    H6R - C16    - H6S   
  1443   1442   1445      1    1.1005e+02    3.8802e+02 ;    H6R - C16    - C15   
  1444   1442   1445      1    1.1005e+02    3.8802e+02 ;    H6S - C16    - C15   
  1445   1448   1449      1    1.1005e+02    3.8802e+02 ;    C15 - C14    - H4R   
  1445   1448   1450      1    1.1005e+02    3.8802e+02 ;    C15 - C14    - H4S   
  1445   1448   1451      1    1.1205e+02    3.9497e+02 ;    C15 - C14    - C13   
  1446   1445   1447      1    1.0835e+02    3.2995e+02 ;    H5R - C15    - H5S   
  1446   1445   1448      1    1.1005e+02    3.8802e+02 ;    H5R - C15    - C14   
  1447   1445   1448      1    1.1005e+02    3.8802e+02 ;    H5S - C15    - C14   
  1448   1451   1452      1    1.1005e+02    3.8802e+02 ;    C14 - C13    - H3R   
  1448   1451   1453      1    1.1005e+02    3.8802e+02 ;    C14 - C13    - H3S   
  1448   1451   1454      1    1.1205e+02    3.9497e+02 ;    C14 - C13    - C12   
  1449   1448   1450      1    1.0835e+02    3.2995e+02 ;    H4R - C14    - H4S   
  1449   1448   1451      1    1.1005e+02    3.8802e+02 ;    H4R - C14    - C13   
  1450   1448   1451      1    1.1005e+02    3.8802e+02 ;    H4S - C14    - C13   
  1451   1454   1455      1    1.1005e+02    3.8802e+02 ;    C13 - C12    - H2R   
  1451   1454   1456      1    1.1005e+02    3.8802e+02 ;    C13 - C12    - H2S   
  1451   1454   1457      1    1.1053e+02    5.3379e+02 ;    C13 - C12    - C11   
  1452   1451   1453      1    1.0835e+02    3.2995e+02 ;    H3R - C13    - H3S   
  1452   1451   1454      1    1.1005e+02    3.8802e+02 ;    H3R - C13    - C12   
  1453   1451   1454      1    1.1005e+02    3.8802e+02 ;    H3S - C13    - C12   
  1454   1457   1458      1    1.2311e+02    5.6928e+02 ;    C12 - C11    - O12   
  1454   1457   1459      1    1.1196e+02    5.7957e+02 ;    C12 - C11    - O11   
  1455   1454   1456      1    1.0835e+02    3.2995e+02 ;    H2R - C12    - H2S   
  1455   1454   1457      1    1.0968e+02    3.9497e+02 ;    H2R - C12    - C11   
  1456   1454   1457      1    1.0968e+02    3.9497e+02 ;    H2S - C12    - C11   
  1457   1459   1460      1    1.1514e+02    5.3246e+02 ;    C11 - O11    - C1    
  1458   1457   1459      1    1.2333e+02    6.3538e+02 ;    O12 - C11    - O11   
  1459   1460   1461      1    1.0882e+02    4.2543e+02 ;    O11 - C1     - HR    
  1459   1460   1462      1    1.0882e+02    4.2543e+02 ;    O11 - C1     - HS    
  1459   1460   1463      1    1.0842e+02    5.6718e+02 ;    O11 - C1     - C2    
  1460   1463   1464      1    1.1007e+02    3.8794e+02 ;     C1 - C2     - HX    
  1460   1463   1465      1    1.1063e+02    5.2894e+02 ;     C1 - C2     - C3    
  1460   1463   1492      1    1.0842e+02    5.6718e+02 ;     C1 - C2     - O21   
  1461   1460   1462      1    1.0955e+02    3.2786e+02 ;     HR - C1     - HS    
  1461   1460   1463      1    1.1007e+02    3.8794e+02 ;     HR - C1     - C2    
  1462   1460   1463      1    1.1007e+02    3.8794e+02 ;     HS - C1     - C2    
  1463   1465   1466      1    1.1007e+02    3.8794e+02 ;     C2 - C3     - HA    
  1463   1465   1467      1    1.1007e+02    3.8794e+02 ;     C2 - C3     - HB    
  1463   1465   1468      1    1.0842e+02    5.6718e+02 ;     C2 - C3     - O31   
  1463   1492   1493      1    1.1514e+02    5.3246e+02 ;     C2 - O21    - C21   
  1464   1463   1465      1    1.1007e+02    3.8794e+02 ;     HX - C2     - C3    
  1464   1463   1492      1    1.0882e+02    4.2543e+02 ;     HX - C2     - O21   
  1465   1463   1492      1    1.0842e+02    5.6718e+02 ;     C3 - C2     - O21   
  1465   1468   1469      1    1.2050e+02    8.3680e+02 ;     C3 - O31    - P31   
  1466   1465   1467      1    1.0955e+02    3.2786e+02 ;     HA - C3     - HB    
  1466   1465   1468      1    1.0882e+02    4.2543e+02 ;     HA - C3     - O31   
  1467   1465   1468      1    1.0882e+02    4.2543e+02 ;     HB - C3     - O31   
  1468   1469   1470      1    1.0260e+02    7.5312e+02 ;    O31 - P31    - O32   
  1468   1469   1490      1    1.0823e+02    8.3680e+02 ;    O31 - P31    - O33   
  1468   1469   1491      1    1.0823e+02    8.3680e+02 ;    O31 - P31    - O34   
  1469   1470   1471      1    1.2050e+02    8.3680e+02 ;    P31 - O32    - C31   
  1470   1469   1490      1    1.0823e+02    8.3680e+02 ;    O32 - P31    - O33   
  1470   1469   1491      1    1.0823e+02    8.3680e+02 ;    O32 - P31    - O34   
  1470   1471   1472      1    1.0882e+02    4.2543e+02 ;    O32 - C31    - H1A   
  1470   1471   1473      1    1.0882e+02    4.2543e+02 ;    O32 - C31    - H1B   
  1470   1471   1474      1    1.0842e+02    5.6718e+02 ;    O32 - C31    - C32   
  1471   1474   1475      1    1.1174e+02    3.8510e+02 ;    C31 - C32    - H2A   
  1471   1474   1476      1    1.1174e+02    3.8510e+02 ;    C31 - C32    - H2B   
  1471   1474   1477      1    1.1432e+02    5.3932e+02 ;    C31 - C32    - N31   
  1472   1471   1473      1    1.0955e+02    3.2786e+02 ;    H1A - C31    - H1B   
  1472   1471   1474      1    1.1007e+02    3.8794e+02 ;    H1A - C31    - C32   
  1473   1471   1474      1    1.1007e+02    3.8794e+02 ;    H1B - C31    - C32   
  1474   1477   1478      1    1.1064e+02    5.2585e+02 ;    C32 - N31    - C33   
  1474   1477   1482      1    1.1064e+02    5.2585e+02 ;    C32 - N31    - C34   
  1474   1477   1486      1    1.1064e+02    5.2585e+02 ;    C32 - N31    - C35   
  1475   1474   1476      1    1.1074e+02    3.2669e+02 ;    H2A - C32    - H2B   
  1475   1474   1477      1    1.0791e+02    4.1020e+02 ;    H2A - C32    - N31   
  1476   1474   1477      1    1.0791e+02    4.1020e+02 ;    H2B - C32    - N31   
  1477   1478   1479      1    1.0791e+02    4.1020e+02 ;    N31 - C33    - H3A   
  1477   1478   1480      1    1.0791e+02    4.1020e+02 ;    N31 - C33    - H3B   
  1477   1478   1481      1    1.0791e+02    4.1020e+02 ;    N31 - C33    - H3C   
  1477   1482   1483      1    1.0791e+02    4.1020e+02 ;    N31 - C34    - H4A   
  1477   1482   1484      1    1.0791e+02    4.1020e+02 ;    N31 - C34    - H4B   
  1477   1482   1485      1    1.0791e+02    4.1020e+02 ;    N31 - C34    - H4C   
  1477   1486   1487      1    1.0791e+02    4.1020e+02 ;    N31 - C35    - H5A   
  1477   1486   1488      1    1.0791e+02    4.1020e+02 ;    N31 - C35    - H5B   
  1477   1486   1489      1    1.0791e+02    4.1020e+02 ;    N31 - C35    - H5C   
  1478   1477   1482      1    1.1064e+02    5.2585e+02 ;    C33 - N31    - C34   
  1478   1477   1486      1    1.1064e+02    5.2585e+02 ;    C33 - N31    - C35   
  1479   1478   1480      1    1.1074e+02    3.2669e+02 ;    H3A - C33    - H3B   
  1479   1478   1481      1    1.1074e+02    3.2669e+02 ;    H3A - C33    - H3C   
  1480   1478   1481      1    1.1074e+02    3.2669e+02 ;    H3B - C33    - H3C   
  1482   1477   1486      1    1.1064e+02    5.2585e+02 ;    C34 - N31    - C35   
  1483   1482   1484      1    1.1074e+02    3.2669e+02 ;    H4A - C34    - H4B   
  1483   1482   1485      1    1.1074e+02    3.2669e+02 ;    H4A - C34    - H4C   
  1484   1482   1485      1    1.1074e+02    3.2669e+02 ;    H4B - C34    - H4C   
  1487   1486   1488      1    1.1074e+02    3.2669e+02 ;    H5A - C35    - H5B   
  1487   1486   1489      1    1.1074e+02    3.2669e+02 ;    H5A - C35    - H5C   
  1488   1486   1489      1    1.1074e+02    3.2669e+02 ;    H5B - C35    - H5C   
  1490   1469   1491      1    1.1990e+02    1.1715e+03 ;    O33 - P31    - O34   
  1492   1493   1494      1    1.2333e+02    6.3538e+02 ;    O21 - C21    - O22   
  1492   1493   1532      1    1.1196e+02    5.7957e+02 ;    O21 - C21    - C12   
  1493   1532   1529      1    1.1053e+02    5.3379e+02 ;    C21 - C12    - C13   
  1493   1532   1533      1    1.0968e+02    3.9497e+02 ;    C21 - C12    - H2R   
  1493   1532   1534      1    1.0968e+02    3.9497e+02 ;    C21 - C12    - H2S   
  1494   1493   1532      1    1.2311e+02    5.6928e+02 ;    O22 - C21    - C12   
  1495   1496   1497      1    1.0835e+02    3.2995e+02 ;   H14T - C114   - H14R  
  1495   1496   1498      1    1.0835e+02    3.2995e+02 ;   H14T - C114   - H14S  
  1495   1496   1499      1    1.1005e+02    3.8802e+02 ;   H14T - C114   - C113  
  1496   1499   1500      1    1.1005e+02    3.8802e+02 ;   C114 - C113   - H13R  
  1496   1499   1501      1    1.1005e+02    3.8802e+02 ;   C114 - C113   - H13S  
  1496   1499   1502      1    1.1205e+02    3.9497e+02 ;   C114 - C113   - C112  
  1497   1496   1498      1    1.0835e+02    3.2995e+02 ;   H14R - C114   - H14S  
  1497   1496   1499      1    1.1005e+02    3.8802e+02 ;   H14R - C114   - C113  
  1498   1496   1499      1    1.1005e+02    3.8802e+02 ;   H14S - C114   - C113  
  1499   1502   1503      1    1.1005e+02    3.8802e+02 ;   C113 - C112   - H12R  
  1499   1502   1504      1    1.1005e+02    3.8802e+02 ;   C113 - C112   - H12S  
  1499   1502   1505      1    1.1205e+02    3.9497e+02 ;   C113 - C112   - C111  
  1500   1499   1501      1    1.0835e+02    3.2995e+02 ;   H13R - C113   - H13S  
  1500   1499   1502      1    1.1005e+02    3.8802e+02 ;   H13R - C113   - C112  
  1501   1499   1502      1    1.1005e+02    3.8802e+02 ;   H13S - C113   - C112  
  1502   1505   1506      1    1.1005e+02    3.8802e+02 ;   C112 - C111   - H11R  
  1502   1505   1507      1    1.1005e+02    3.8802e+02 ;   C112 - C111   - H11S  
  1502   1505   1508      1    1.1205e+02    3.9497e+02 ;   C112 - C111   - C110  
  1503   1502   1504      1    1.0835e+02    3.2995e+02 ;   H12R - C112   - H12S  
  1503   1502   1505      1    1.1005e+02    3.8802e+02 ;   H12R - C112   - C111  
  1504   1502   1505      1    1.1005e+02    3.8802e+02 ;   H12S - C112   - C111  
  1505   1508   1509      1    1.1005e+02    3.8802e+02 ;   C111 - C110   - H10R  
  1505   1508   1510      1    1.1005e+02    3.8802e+02 ;   C111 - C110   - H10S  
  1505   1508   1511      1    1.1205e+02    3.9497e+02 ;   C111 - C110   - C19   
  1506   1505   1507      1    1.0835e+02    3.2995e+02 ;   H11R - C111   - H11S  
  1506   1505   1508      1    1.1005e+02    3.8802e+02 ;   H11R - C111   - C110  
  1507   1505   1508      1    1.1005e+02    3.8802e+02 ;   H11S - C111   - C110  
  1508   1511   1512      1    1.1005e+02    3.8802e+02 ;   C110 - C19    - H9R   
  1508   1511   1513      1    1.1005e+02    3.8802e+02 ;   C110 - C19    - H9S   
  1508   1511   1514      1    1.1205e+02    3.9497e+02 ;   C110 - C19    - C18   
  1509   1508   1510      1    1.0835e+02    3.2995e+02 ;   H10R - C110   - H10S  
  1509   1508   1511      1    1.1005e+02    3.8802e+02 ;   H10R - C110   - C19   
  1510   1508   1511      1    1.1005e+02    3.8802e+02 ;   H10S - C110   - C19   
  1511   1514   1515      1    1.1005e+02    3.8802e+02 ;    C19 - C18    - H8R   
  1511   1514   1516      1    1.1005e+02    3.8802e+02 ;    C19 - C18    - H8S   
  1511   1514   1517      1    1.1205e+02    3.9497e+02 ;    C19 - C18    - C17   
  1512   1511   1513      1    1.0835e+02    3.2995e+02 ;    H9R - C19    - H9S   
  1512   1511   1514      1    1.1005e+02    3.8802e+02 ;    H9R - C19    - C18   
  1513   1511   1514      1    1.1005e+02    3.8802e+02 ;    H9S - C19    - C18   
  1514   1517   1518      1    1.1005e+02    3.8802e+02 ;    C18 - C17    - H7R   
  1514   1517   1519      1    1.1005e+02    3.8802e+02 ;    C18 - C17    - H7S   
  1514   1517   1520      1    1.1205e+02    3.9497e+02 ;    C18 - C17    - C16   
  1515   1514   1516      1    1.0835e+02    3.2995e+02 ;    H8R - C18    - H8S   
  1515   1514   1517      1    1.1005e+02    3.8802e+02 ;    H8R - C18    - C17   
  1516   1514   1517      1    1.1005e+02    3.8802e+02 ;    H8S - C18    - C17   
  1517   1520   1521      1    1.1005e+02    3.8802e+02 ;    C17 - C16    - H6R   
  1517   1520   1522      1    1.1005e+02    3.8802e+02 ;    C17 - C16    - H6S   
  1517   1520   1523      1    1.1205e+02    3.9497e+02 ;    C17 - C16    - C15   
  1518   1517   1519      1    1.0835e+02    3.2995e+02 ;    H7R - C17    - H7S   
  1518   1517   1520      1    1.1005e+02    3.8802e+02 ;    H7R - C17    - C16   
  1519   1517   1520      1    1.1005e+02    3.8802e+02 ;    H7S - C17    - C16   
  1520   1523   1524      1    1.1005e+02    3.8802e+02 ;    C16 - C15    - H5R   
  1520   1523   1525      1    1.1005e+02    3.8802e+02 ;    C16 - C15    - H5S   
  1520   1523   1526      1    1.1205e+02    3.9497e+02 ;    C16 - C15    - C14   
  1521   1520   1522      1    1.0835e+02    3.2995e+02 ;    H6R - C16    - H6S   
  1521   1520   1523      1    1.1005e+02    3.8802e+02 ;    H6R - C16    - C15   
  1522   1520   1523      1    1.1005e+02    3.8802e+02 ;    H6S - C16    - C15   
  1523   1526   1527      1    1.1005e+02    3.8802e+02 ;    C15 - C14    - H4R   
  1523   1526   1528      1    1.1005e+02    3.8802e+02 ;    C15 - C14    - H4S   
  1523   1526   1529      1    1.1205e+02    3.9497e+02 ;    C15 - C14    - C13   
  1524   1523   1525      1    1.0835e+02    3.2995e+02 ;    H5R - C15    - H5S   
  1524   1523   1526      1    1.1005e+02    3.8802e+02 ;    H5R - C15    - C14   
  1525   1523   1526      1    1.1005e+02    3.8802e+02 ;    H5S - C15    - C14   
  1526   1529   1530      1    1.1005e+02    3.8802e+02 ;    C14 - C13    - H3R   
  1526   1529   1531      1    1.1005e+02    3.8802e+02 ;    C14 - C13    - H3S   
  1526   1529   1532      1    1.1205e+02    3.9497e+02 ;    C14 - C13    - C12   
  1527   1526   1528      1    1.0835e+02    3.2995e+02 ;    H4R - C14    - H4S   
  1527   1526   1529      1    1.1005e+02    3.8802e+02 ;    H4R - C14    - C13   
  1528   1526   1529      1    1.1005e+02    3.8802e+02 ;    H4S - C14    - C13   
  1529   1532   1533      1    1.1005e+02    3.8802e+02 ;    C13 - C12    - H2R   
  1529   1532   1534      1    1.1005e+02    3.8802e+02 ;    C13 - C12    - H2S   
  1530   1529   1531      1    1.0835e+02    3.2995e+02 ;    H3R - C13    - H3S   
  1530   1529   1532      1    1.1005e+02    3.8802e+02 ;    H3R - C13    - C12   
  1531   1529   1532      1    1.1005e+02    3.8802e+02 ;    H3S - C13    - C12   
  1533   1532   1534      1    1.0835e+02    3.2995e+02 ;    H2R - C12    - H2S   
  1535   1536   1537      1    1.0835e+02    3.2995e+02 ;   H14T - C114   - H14R  
  1535   1536   1538      1    1.0835e+02    3.2995e+02 ;   H14T - C114   - H14S  
  1535   1536   1539      1    1.1005e+02    3.8802e+02 ;   H14T - C114   - C113  
  1536   1539   1540      1    1.1005e+02    3.8802e+02 ;   C114 - C113   - H13R  
  1536   1539   1541      1    1.1005e+02    3.8802e+02 ;   C114 - C113   - H13S  
  1536   1539   1542      1    1.1205e+02    3.9497e+02 ;   C114 - C113   - C112  
  1537   1536   1538      1    1.0835e+02    3.2995e+02 ;   H14R - C114   - H14S  
  1537   1536   1539      1    1.1005e+02    3.8802e+02 ;   H14R - C114   - C113  
  1538   1536   1539      1    1.1005e+02    3.8802e+02 ;   H14S - C114   - C113  
  1539   1542   1543      1    1.1005e+02    3.8802e+02 ;   C113 - C112   - H12R  
  1539   1542   1544      1    1.1005e+02    3.8802e+02 ;   C113 - C112   - H12S  
  1539   1542   1545      1    1.1205e+02    3.9497e+02 ;   C113 - C112   - C111  
  1540   1539   1541      1    1.0835e+02    3.2995e+02 ;   H13R - C113   - H13S  
  1540   1539   1542      1    1.1005e+02    3.8802e+02 ;   H13R - C113   - C112  
  1541   1539   1542      1    1.1005e+02    3.8802e+02 ;   H13S - C113   - C112  
  1542   1545   1546      1    1.1005e+02    3.8802e+02 ;   C112 - C111   - H11R  
  1542   1545   1547      1    1.1005e+02    3.8802e+02 ;   C112 - C111   - H11S  
  1542   1545   1548      1    1.1205e+02    3.9497e+02 ;   C112 - C111   - C110  
  1543   1542   1544      1    1.0835e+02    3.2995e+02 ;   H12R - C112   - H12S  
  1543   1542   1545      1    1.1005e+02    3.8802e+02 ;   H12R - C112   - C111  
  1544   1542   1545      1    1.1005e+02    3.8802e+02 ;   H12S - C112   - C111  
  1545   1548   1549      1    1.1005e+02    3.8802e+02 ;   C111 - C110   - H10R  
  1545   1548   1550      1    1.1005e+02    3.8802e+02 ;   C111 - C110   - H10S  
  1545   1548   1551      1    1.1205e+02    3.9497e+02 ;   C111 - C110   - C19   
  1546   1545   1547      1    1.0835e+02    3.2995e+02 ;   H11R - C111   - H11S  
  1546   1545   1548      1    1.1005e+02    3.8802e+02 ;   H11R - C111   - C110  
  1547   1545   1548      1    1.1005e+02    3.8802e+02 ;   H11S - C111   - C110  
  1548   1551   1552      1    1.1005e+02    3.8802e+02 ;   C110 - C19    - H9R   
  1548   1551   1553      1    1.1005e+02    3.8802e+02 ;   C110 - C19    - H9S   
  1548   1551   1554      1    1.1205e+02    3.9497e+02 ;   C110 - C19    - C18   
  1549   1548   1550      1    1.0835e+02    3.2995e+02 ;   H10R - C110   - H10S  
  1549   1548   1551      1    1.1005e+02    3.8802e+02 ;   H10R - C110   - C19   
  1550   1548   1551      1    1.1005e+02    3.8802e+02 ;   H10S - C110   - C19   
  1551   1554   1555      1    1.1005e+02    3.8802e+02 ;    C19 - C18    - H8R   
  1551   1554   1556      1    1.1005e+02    3.8802e+02 ;    C19 - C18    - H8S   
  1551   1554   1557      1    1.1205e+02    3.9497e+02 ;    C19 - C18    - C17   
  1552   1551   1553      1    1.0835e+02    3.2995e+02 ;    H9R - C19    - H9S   
  1552   1551   1554      1    1.1005e+02    3.8802e+02 ;    H9R - C19    - C18   
  1553   1551   1554      1    1.1005e+02    3.8802e+02 ;    H9S - C19    - C18   
  1554   1557   1558      1    1.1005e+02    3.8802e+02 ;    C18 - C17    - H7R   
  1554   1557   1559      1    1.1005e+02    3.8802e+02 ;    C18 - C17    - H7S   
  1554   1557   1560      1    1.1205e+02    3.9497e+02 ;    C18 - C17    - C16   
  1555   1554   1556      1    1.0835e+02    3.2995e+02 ;    H8R - C18    - H8S   
  1555   1554   1557      1    1.1005e+02    3.8802e+02 ;    H8R - C18    - C17   
  1556   1554   1557      1    1.1005e+02    3.8802e+02 ;    H8S - C18    - C17   
  1557   1560   1561      1    1.1005e+02    3.8802e+02 ;    C17 - C16    - H6R   
  1557   1560   1562      1    1.1005e+02    3.8802e+02 ;    C17 - C16    - H6S   
  1557   1560   1563      1    1.1205e+02    3.9497e+02 ;    C17 - C16    - C15   
  1558   1557   1559      1    1.0835e+02    3.2995e+02 ;    H7R - C17    - H7S   
  1558   1557   1560      1    1.1005e+02    3.8802e+02 ;    H7R - C17    - C16   
  1559   1557   1560      1    1.1005e+02    3.8802e+02 ;    H7S - C17    - C16   
  1560   1563   1564      1    1.1005e+02    3.8802e+02 ;    C16 - C15    - H5R   
  1560   1563   1565      1    1.1005e+02    3.8802e+02 ;    C16 - C15    - H5S   
  1560   1563   1566      1    1.1205e+02    3.9497e+02 ;    C16 - C15    - C14   
  1561   1560   1562      1    1.0835e+02    3.2995e+02 ;    H6R - C16    - H6S   
  1561   1560   1563      1    1.1005e+02    3.8802e+02 ;    H6R - C16    - C15   
  1562   1560   1563      1    1.1005e+02    3.8802e+02 ;    H6S - C16    - C15   
  1563   1566   1567      1    1.1005e+02    3.8802e+02 ;    C15 - C14    - H4R   
  1563   1566   1568      1    1.1005e+02    3.8802e+02 ;    C15 - C14    - H4S   
  1563   1566   1569      1    1.1205e+02    3.9497e+02 ;    C15 - C14    - C13   
  1564   1563   1565      1    1.0835e+02    3.2995e+02 ;    H5R - C15    - H5S   
  1564   1563   1566      1    1.1005e+02    3.8802e+02 ;    H5R - C15    - C14   
  1565   1563   1566      1    1.1005e+02    3.8802e+02 ;    H5S - C15    - C14   
  1566   1569   1570      1    1.1005e+02    3.8802e+02 ;    C14 - C13    - H3R   
  1566   1569   1571      1    1.1005e+02    3.8802e+02 ;    C14 - C13    - H3S   
  1566   1569   1572      1    1.1205e+02    3.9497e+02 ;    C14 - C13    - C12   
  1567   1566   1568      1    1.0835e+02    3.2995e+02 ;    H4R - C14    - H4S   
  1567   1566   1569      1    1.1005e+02    3.8802e+02 ;    H4R - C14    - C13   
  1568   1566   1569      1    1.1005e+02    3.8802e+02 ;    H4S - C14    - C13   
  1569   1572   1573      1    1.1005e+02    3.8802e+02 ;    C13 - C12    - H2R   
  1569   1572   1574      1    1.1005e+02    3.8802e+02 ;    C13 - C12    - H2S   
  1569   1572   1575      1    1.1053e+02    5.3379e+02 ;    C13 - C12    - C11   
  1570   1569   1571      1    1.0835e+02    3.2995e+02 ;    H3R - C13    - H3S   
  1570   1569   1572      1    1.1005e+02    3.8802e+02 ;    H3R - C13    - C12   
  1571   1569   1572      1    1.1005e+02    3.8802e+02 ;    H3S - C13    - C12   
  1572   1575   1576      1    1.2311e+02    5.6928e+02 ;    C12 - C11    - O12   
  1572   1575   1577      1    1.1196e+02    5.7957e+02 ;    C12 - C11    - O11   
  1573   1572   1574      1    1.0835e+02    3.2995e+02 ;    H2R - C12    - H2S   
  1573   1572   1575      1    1.0968e+02    3.9497e+02 ;    H2R - C12    - C11   
  1574   1572   1575      1    1.0968e+02    3.9497e+02 ;    H2S - C12    - C11   
  1575   1577   1578      1    1.1514e+02    5.3246e+02 ;    C11 - O11    - C1    
  1576   1575   1577      1    1.2333e+02    6.3538e+02 ;    O12 - C11    - O11   
  1577   1578   1579      1    1.0882e+02    4.2543e+02 ;    O11 - C1     - HR    
  1577   1578   1580      1    1.0882e+02    4.2543e+02 ;    O11 - C1     - HS    
  1577   1578   1581      1    1.0842e+02    5.6718e+02 ;    O11 - C1     - C2    
  1578   1581   1582      1    1.1007e+02    3.8794e+02 ;     C1 - C2     - HX    
  1578   1581   1583      1    1.1063e+02    5.2894e+02 ;     C1 - C2     - C3    
  1578   1581   1610      1    1.0842e+02    5.6718e+02 ;     C1 - C2     - O21   
  1579   1578   1580      1    1.0955e+02    3.2786e+02 ;     HR - C1     - HS    
  1579   1578   1581      1    1.1007e+02    3.8794e+02 ;     HR - C1     - C2    
  1580   1578   1581      1    1.1007e+02    3.8794e+02 ;     HS - C1     - C2    
  1581   1583   1584      1    1.1007e+02    3.8794e+02 ;     C2 - C3     - HA    
  1581   1583   1585      1    1.1007e+02    3.8794e+02 ;     C2 - C3     - HB    
  1581   1583   1586      1    1.0842e+02    5.6718e+02 ;     C2 - C3     - O31   
  1581   1610   1611      1    1.1514e+02    5.3246e+02 ;     C2 - O21    - C21   
  1582   1581   1583      1    1.1007e+02    3.8794e+02 ;     HX - C2     - C3    
  1582   1581   1610      1    1.0882e+02    4.2543e+02 ;     HX - C2     - O21   
  1583   1581   1610      1    1.0842e+02    5.6718e+02 ;     C3 - C2     - O21   
  1583   1586   1587      1    1.2050e+02    8.3680e+02 ;     C3 - O31    - P31   
  1584   1583   1585      1    1.0955e+02    3.2786e+02 ;     HA - C3     - HB    
  1584   1583   1586      1    1.0882e+02    4.2543e+02 ;     HA - C3     - O31   
  1585   1583   1586      1    1.0882e+02    4.2543e+02 ;     HB - C3     - O31   
  1586   1587   1588      1    1.0260e+02    7.5312e+02 ;    O31 - P31    - O32   
  1586   1587   1608      1    1.0823e+02    8.3680e+02 ;    O31 - P31    - O33   
  1586   1587   1609      1    1.0823e+02    8.3680e+02 ;    O31 - P31    - O34   
  1587   1588   1589      1    1.2050e+02    8.3680e+02 ;    P31 - O32    - C31   
  1588   1587   1608      1    1.0823e+02    8.3680e+02 ;    O32 - P31    - O33   
  1588   1587   1609      1    1.0823e+02    8.3680e+02 ;    O32 - P31    - O34   
  1588   1589   1590      1    1.0882e+02    4.2543e+02 ;    O32 - C31    - H1A   
  1588   1589   1591      1    1.0882e+02    4.2543e+02 ;    O32 - C31    - H1B   
  1588   1589   1592      1    1.0842e+02    5.6718e+02 ;    O32 - C31    - C32   
  1589   1592   1593      1    1.1174e+02    3.8510e+02 ;    C31 - C32    - H2A   
  1589   1592   1594      1    1.1174e+02    3.8510e+02 ;    C31 - C32    - H2B   
  1589   1592   1595      1    1.1432e+02    5.3932e+02 ;    C31 - C32    - N31   
  1590   1589   1591      1    1.0955e+02    3.2786e+02 ;    H1A - C31    - H1B   
  1590   1589   1592      1    1.1007e+02    3.8794e+02 ;    H1A - C31    - C32   
  1591   1589   1592      1    1.1007e+02    3.8794e+02 ;    H1B - C31    - C32   
  1592   1595   1596      1    1.1064e+02    5.2585e+02 ;    C32 - N31    - C33   
  1592   1595   1600      1    1.1064e+02    5.2585e+02 ;    C32 - N31    - C34   
  1592   1595   1604      1    1.1064e+02    5.2585e+02 ;    C32 - N31    - C35   
  1593   1592   1594      1    1.1074e+02    3.2669e+02 ;    H2A - C32    - H2B   
  1593   1592   1595      1    1.0791e+02    4.1020e+02 ;    H2A - C32    - N31   
  1594   1592   1595      1    1.0791e+02    4.1020e+02 ;    H2B - C32    - N31   
  1595   1596   1597      1    1.0791e+02    4.1020e+02 ;    N31 - C33    - H3A   
  1595   1596   1598      1    1.0791e+02    4.1020e+02 ;    N31 - C33    - H3B   
  1595   1596   1599      1    1.0791e+02    4.1020e+02 ;    N31 - C33    - H3C   
  1595   1600   1601      1    1.0791e+02    4.1020e+02 ;    N31 - C34    - H4A   
  1595   1600   1602      1    1.0791e+02    4.1020e+02 ;    N31 - C34    - H4B   
  1595   1600   1603      1    1.0791e+02    4.1020e+02 ;    N31 - C34    - H4C   
  1595   1604   1605      1    1.0791e+02    4.1020e+02 ;    N31 - C35    - H5A   
  1595   1604   1606      1    1.0791e+02    4.1020e+02 ;    N31 - C35    - H5B   
  1595   1604   1607      1    1.0791e+02    4.1020e+02 ;    N31 - C35    - H5C   
  1596   1595   1600      1    1.1064e+02    5.2585e+02 ;    C33 - N31    - C34   
  1596   1595   1604      1    1.1064e+02    5.2585e+02 ;    C33 - N31    - C35   
  1597   1596   1598      1    1.1074e+02    3.2669e+02 ;    H3A - C33    - H3B   
  1597   1596   1599      1    1.1074e+02    3.2669e+02 ;    H3A - C33    - H3C   
  1598   1596   1599      1    1.1074e+02    3.2669e+02 ;    H3B - C33    - H3C   
  1600   1595   1604      1    1.1064e+02    5.2585e+02 ;    C34 - N31    - C35   
  1601   1600   1602      1    1.1074e+02    3.2669e+02 ;    H4A - C34    - H4B   
  1601   1600   1603      1    1.1074e+02    3.2669e+02 ;    H4A - C34    - H4C   
  1602   1600   1603      1    1.1074e+02    3.2669e+02 ;    H4B - C34    - H4C   
  1605   1604   1606      1    1.1074e+02    3.2669e+02 ;    H5A - C35    - H5B   
  1605   1604   1607      1    1.1074e+02    3.2669e+02 ;    H5A - C35    - H5C   
  1606   1604   1607      1    1.1074e+02    3.2669e+02 ;    H5B - C35    - H5C   
  1608   1587   1609      1    1.1990e+02    1.1715e+03 ;    O33 - P31    - O34   
  1610   1611   1612      1    1.2333e+02    6.3538e+02 ;    O21 - C21    - O22   
  1610   1611   1650      1    1.1196e+02    5.7957e+02 ;    O21 - C21    - C12   
  1611   1650   1647      1    1.1053e+02    5.3379e+02 ;    C21 - C12    - C13   
  1611   1650   1651      1    1.0968e+02    3.9497e+02 ;    C21 - C12    - H2R   
  1611   1650   1652      1    1.0968e+02    3.9497e+02 ;    C21 - C12    - H2S   
  1612   1611   1650      1    1.2311e+02    5.6928e+02 ;    O22 - C21    - C12   
  1613   1614   1615      1    1.0835e+02    3.2995e+02 ;   H14T - C114   - H14R  
  1613   1614   1616      1    1.0835e+02    3.2995e+02 ;   H14T - C114   - H14S  
  1613   1614   1617      1    1.1005e+02    3.8802e+02 ;   H14T - C114   - C113  
  1614   1617   1618      1    1.1005e+02    3.8802e+02 ;   C114 - C113   - H13R  
  1614   1617   1619      1    1.1005e+02    3.8802e+02 ;   C114 - C113   - H13S  
  1614   1617   1620      1    1.1205e+02    3.9497e+02 ;   C114 - C113   - C112  
  1615   1614   1616      1    1.0835e+02    3.2995e+02 ;   H14R - C114   - H14S  
  1615   1614   1617      1    1.1005e+02    3.8802e+02 ;   H14R - C114   - C113  
  1616   1614   1617      1    1.1005e+02    3.8802e+02 ;   H14S - C114   - C113  
  1617   1620   1621      1    1.1005e+02    3.8802e+02 ;   C113 - C112   - H12R  
  1617   1620   1622      1    1.1005e+02    3.8802e+02 ;   C113 - C112   - H12S  
  1617   1620   1623      1    1.1205e+02    3.9497e+02 ;   C113 - C112   - C111  
  1618   1617   1619      1    1.0835e+02    3.2995e+02 ;   H13R - C113   - H13S  
  1618   1617   1620      1    1.1005e+02    3.8802e+02 ;   H13R - C113   - C112  
  1619   1617   1620      1    1.1005e+02    3.8802e+02 ;   H13S - C113   - C112  
  1620   1623   1624      1    1.1005e+02    3.8802e+02 ;   C112 - C111   - H11R  
  1620   1623   1625      1    1.1005e+02    3.8802e+02 ;   C112 - C111   - H11S  
  1620   1623   1626      1    1.1205e+02    3.9497e+02 ;   C112 - C111   - C110  
  1621   1620   1622      1    1.0835e+02    3.2995e+02 ;   H12R - C112   - H12S  
  1621   1620   1623      1    1.1005e+02    3.8802e+02 ;   H12R - C112   - C111  
  1622   1620   1623      1    1.1005e+02    3.8802e+02 ;   H12S - C112   - C111  
  1623   1626   1627      1    1.1005e+02    3.8802e+02 ;   C111 - C110   - H10R  
  1623   1626   1628      1    1.1005e+02    3.8802e+02 ;   C111 - C110   - H10S  
  1623   1626   1629      1    1.1205e+02    3.9497e+02 ;   C111 - C110   - C19   
  1624   1623   1625      1    1.0835e+02    3.2995e+02 ;   H11R - C111   - H11S  
  1624   1623   1626      1    1.1005e+02    3.8802e+02 ;   H11R - C111   - C110  
  1625   1623   1626      1    1.1005e+02    3.8802e+02 ;   H11S - C111   - C110  
  1626   1629   1630      1    1.1005e+02    3.8802e+02 ;   C110 - C19    - H9R   
  1626   1629   1631      1    1.1005e+02    3.8802e+02 ;   C110 - C19    - H9S   
  1626   1629   1632      1    1.1205e+02    3.9497e+02 ;   C110 - C19    - C18   
  1627   1626   1628      1    1.0835e+02    3.2995e+02 ;   H10R - C110   - H10S  
  1627   1626   1629      1    1.1005e+02    3.8802e+02 ;   H10R - C110   - C19   
  1628   1626   1629      1    1.1005e+02    3.8802e+02 ;   H10S - C110   - C19   
  1629   1632   1633      1    1.1005e+02    3.8802e+02 ;    C19 - C18    - H8R   
  1629   1632   1634      1    1.1005e+02    3.8802e+02 ;    C19 - C18    - H8S   
  1629   1632   1635      1    1.1205e+02    3.9497e+02 ;    C19 - C18    - C17   
  1630   1629   1631      1    1.0835e+02    3.2995e+02 ;    H9R - C19    - H9S   
  1630   1629   1632      1    1.1005e+02    3.8802e+02 ;    H9R - C19    - C18   
  1631   1629   1632      1    1.1005e+02    3.8802e+02 ;    H9S - C19    - C18   
  1632   1635   1636      1    1.1005e+02    3.8802e+02 ;    C18 - C17    - H7R   
  1632   1635   1637      1    1.1005e+02    3.8802e+02 ;    C18 - C17    - H7S   
  1632   1635   1638      1    1.1205e+02    3.9497e+02 ;    C18 - C17    - C16   
  1633   1632   1634      1    1.0835e+02    3.2995e+02 ;    H8R - C18    - H8S   
  1633   1632   1635      1    1.1005e+02    3.8802e+02 ;    H8R - C18    - C17   
  1634   1632   1635      1    1.1005e+02    3.8802e+02 ;    H8S - C18    - C17   
  1635   1638   1639      1    1.1005e+02    3.8802e+02 ;    C17 - C16    - H6R   
  1635   1638   1640      1    1.1005e+02    3.8802e+02 ;    C17 - C16    - H6S   
  1635   1638   1641      1    1.1205e+02    3.9497e+02 ;    C17 - C16    - C15   
  1636   1635   1637      1    1.0835e+02    3.2995e+02 ;    H7R - C17    - H7S   
  1636   1635   1638      1    1.1005e+02    3.8802e+02 ;    H7R - C17    - C16   
  1637   1635   1638      1    1.1005e+02    3.8802e+02 ;    H7S - C17    - C16   
  1638   1641   1642      1    1.1005e+02    3.8802e+02 ;    C16 - C15    - H5R   
  1638   1641   1643      1    1.1005e+02    3.8802e+02 ;    C16 - C15    - H5S   
  1638   1641   1644      1    1.1205e+02    3.9497e+02 ;    C16 - C15    - C14   
  1639   1638   1640      1    1.0835e+02    3.2995e+02 ;    H6R - C16    - H6S   
  1639   1638   1641      1    1.1005e+02    3.8802e+02 ;    H6R - C16    - C15   
  1640   1638   1641      1    1.1005e+02    3.8802e+02 ;    H6S - C16    - C15   
  1641   1644   1645      1    1.1005e+02    3.8802e+02 ;    C15 - C14    - H4R   
  1641   1644   1646      1    1.1005e+02    3.8802e+02 ;    C15 - C14    - H4S   
  1641   1644   1647      1    1.1205e+02    3.9497e+02 ;    C15 - C14    - C13   
  1642   1641   1643      1    1.0835e+02    3.2995e+02 ;    H5R - C15    - H5S   
  1642   1641   1644      1    1.1005e+02    3.8802e+02 ;    H5R - C15    - C14   
  1643   1641   1644      1    1.1005e+02    3.8802e+02 ;    H5S - C15    - C14   
  1644   1647   1648      1    1.1005e+02    3.8802e+02 ;    C14 - C13    - H3R   
  1644   1647   1649      1    1.1005e+02    3.8802e+02 ;    C14 - C13    - H3S   
  1644   1647   1650      1    1.1205e+02    3.9497e+02 ;    C14 - C13    - C12   
  1645   1644   1646      1    1.0835e+02    3.2995e+02 ;    H4R - C14    - H4S   
  1645   1644   1647      1    1.1005e+02    3.8802e+02 ;    H4R - C14    - C13   
  1646   1644   1647      1    1.1005e+02    3.8802e+02 ;    H4S - C14    - C13   
  1647   1650   1651      1    1.1005e+02    3.8802e+02 ;    C13 - C12    - H2R   
  1647   1650   1652      1    1.1005e+02    3.8802e+02 ;    C13 - C12    - H2S   
  1648   1647   1649      1    1.0835e+02    3.2995e+02 ;    H3R - C13    - H3S   
  1648   1647   1650      1    1.1005e+02    3.8802e+02 ;    H3R - C13    - C12   
  1649   1647   1650      1    1.1005e+02    3.8802e+02 ;    H3S - C13    - C12   
  1651   1650   1652      1    1.0835e+02    3.2995e+02 ;    H2R - C12    - H2S   
  1653   1654   1655      1    1.0835e+02    3.2995e+02 ;   H14T - C114   - H14R  
  1653   1654   1656      1    1.0835e+02    3.2995e+02 ;   H14T - C114   - H14S  
  1653   1654   1657      1    1.1005e+02    3.8802e+02 ;   H14T - C114   - C113  
  1654   1657   1658      1    1.1005e+02    3.8802e+02 ;   C114 - C113   - H13R  
  1654   1657   1659      1    1.1005e+02    3.8802e+02 ;   C114 - C113   - H13S  
  1654   1657   1660      1    1.1205e+02    3.9497e+02 ;   C114 - C113   - C112  
  1655   1654   1656      1    1.0835e+02    3.2995e+02 ;   H14R - C114   - H14S  
  1655   1654   1657      1    1.1005e+02    3.8802e+02 ;   H14R - C114   - C113  
  1656   1654   1657      1    1.1005e+02    3.8802e+02 ;   H14S - C114   - C113  
  1657   1660   1661      1    1.1005e+02    3.8802e+02 ;   C113 - C112   - H12R  
  1657   1660   1662      1    1.1005e+02    3.8802e+02 ;   C113 - C112   - H12S  
  1657   1660   1663      1    1.1205e+02    3.9497e+02 ;   C113 - C112   - C111  
  1658   1657   1659      1    1.0835e+02    3.2995e+02 ;   H13R - C113   - H13S  
  1658   1657   1660      1    1.1005e+02    3.8802e+02 ;   H13R - C113   - C112  
  1659   1657   1660      1    1.1005e+02    3.8802e+02 ;   H13S - C113   - C112  
  1660   1663   1664      1    1.1005e+02    3.8802e+02 ;   C112 - C111   - H11R  
  1660   1663   1665      1    1.1005e+02    3.8802e+02 ;   C112 - C111   - H11S  
  1660   1663   1666      1    1.1205e+02    3.9497e+02 ;   C112 - C111   - C110  
  1661   1660   1662      1    1.0835e+02    3.2995e+02 ;   H12R - C112   - H12S  
  1661   1660   1663      1    1.1005e+02    3.8802e+02 ;   H12R - C112   - C111  
  1662   1660   1663      1    1.1005e+02    3.8802e+02 ;   H12S - C112   - C111  
  1663   1666   1667      1    1.1005e+02    3.8802e+02 ;   C111 - C110   - H10R  
  1663   1666   1668      1    1.1005e+02    3.8802e+02 ;   C111 - C110   - H10S  
  1663   1666   1669      1    1.1205e+02    3.9497e+02 ;   C111 - C110   - C19   
  1664   1663   1665      1    1.0835e+02    3.2995e+02 ;   H11R - C111   - H11S  
  1664   1663   1666      1    1.1005e+02    3.8802e+02 ;   H11R - C111   - C110  
  1665   1663   1666      1    1.1005e+02    3.8802e+02 ;   H11S - C111   - C110  
  1666   1669   1670      1    1.1005e+02    3.8802e+02 ;   C110 - C19    - H9R   
  1666   1669   1671      1    1.1005e+02    3.8802e+02 ;   C110 - C19    - H9S   
  1666   1669   1672      1    1.1205e+02    3.9497e+02 ;   C110 - C19    - C18   
  1667   1666   1668      1    1.0835e+02    3.2995e+02 ;   H10R - C110   - H10S  
  1667   1666   1669      1    1.1005e+02    3.8802e+02 ;   H10R - C110   - C19   
  1668   1666   1669      1    1.1005e+02    3.8802e+02 ;   H10S - C110   - C19   
  1669   1672   1673      1    1.1005e+02    3.8802e+02 ;    C19 - C18    - H8R   
  1669   1672   1674      1    1.1005e+02    3.8802e+02 ;    C19 - C18    - H8S   
  1669   1672   1675      1    1.1205e+02    3.9497e+02 ;    C19 - C18    - C17   
  1670   1669   1671      1    1.0835e+02    3.2995e+02 ;    H9R - C19    - H9S   
  1670   1669   1672      1    1.1005e+02    3.8802e+02 ;    H9R - C19    - C18   
  1671   1669   1672      1    1.1005e+02    3.8802e+02 ;    H9S - C19    - C18   
  1672   1675   1676      1    1.1005e+02    3.8802e+02 ;    C18 - C17    - H7R   
  1672   1675   1677      1    1.1005e+02    3.8802e+02 ;    C18 - C17    - H7S   
  1672   1675   1678      1    1.1205e+02    3.9497e+02 ;    C18 - C17    - C16   
  1673   1672   1674      1    1.0835e+02    3.2995e+02 ;    H8R - C18    - H8S   
  1673   1672   1675      1    1.1005e+02    3.8802e+02 ;    H8R - C18    - C17   
  1674   1672   1675      1    1.1005e+02    3.8802e+02 ;    H8S - C18    - C17   
  1675   1678   1679      1    1.1005e+02    3.8802e+02 ;    C17 - C16    - H6R   
  1675   1678   1680      1    1.1005e+02    3.8802e+02 ;    C17 - C16    - H6S   
  1675   1678   1681      1    1.1205e+02    3.9497e+02 ;    C17 - C16    - C15   
  1676   1675   1677      1    1.0835e+02    3.2995e+02 ;    H7R - C17    - H7S   
  1676   1675   1678      1    1.1005e+02    3.8802e+02 ;    H7R - C17    - C16   
  1677   1675   1678      1    1.1005e+02    3.8802e+02 ;    H7S - C17    - C16   
  1678   1681   1682      1    1.1005e+02    3.8802e+02 ;    C16 - C15    - H5R   
  1678   1681   1683      1    1.1005e+02    3.8802e+02 ;    C16 - C15    - H5S   
  1678   1681   1684      1    1.1205e+02    3.9497e+02 ;    C16 - C15    - C14   
  1679   1678   1680      1    1.0835e+02    3.2995e+02 ;    H6R - C16    - H6S   
  1679   1678   1681      1    1.1005e+02    3.8802e+02 ;    H6R - C16    - C15   
  1680   1678   1681      1    1.1005e+02    3.8802e+02 ;    H6S - C16    - C15   
  1681   1684   1685      1    1.1005e+02    3.8802e+02 ;    C15 - C14    - H4R   
  1681   1684   1686      1    1.1005e+02    3.8802e+02 ;    C15 - C14    - H4S   
  1681   1684   1687      1    1.1205e+02    3.9497e+02 ;    C15 - C14    - C13   
  1682   1681   1683      1    1.0835e+02    3.2995e+02 ;    H5R - C15    - H5S   
  1682   1681   1684      1    1.1005e+02    3.8802e+02 ;    H5R - C15    - C14   
  1683   1681   1684      1    1.1005e+02    3.8802e+02 ;    H5S - C15    - C14   
  1684   1687   1688      1    1.1005e+02    3.8802e+02 ;    C14 - C13    - H3R   
  1684   1687   1689      1    1.1005e+02    3.8802e+02 ;    C14 - C13    - H3S   
  1684   1687   1690      1    1.1205e+02    3.9497e+02 ;    C14 - C13    - C12   
  1685   1684   1686      1    1.0835e+02    3.2995e+02 ;    H4R - C14    - H4S   
  1685   1684   1687      1    1.1005e+02    3.8802e+02 ;    H4R - C14    - C13   
  1686   1684   1687      1    1.1005e+02    3.8802e+02 ;    H4S - C14    - C13   
  1687   1690   1691      1    1.1005e+02    3.8802e+02 ;    C13 - C12    - H2R   
  1687   1690   1692      1    1.1005e+02    3.8802e+02 ;    C13 - C12    - H2S   
  1687   1690   1693      1    1.1053e+02    5.3379e+02 ;    C13 - C12    - C11   
  1688   1687   1689      1    1.0835e+02    3.2995e+02 ;    H3R - C13    - H3S   
  1688   1687   1690      1    1.1005e+02    3.8802e+02 ;    H3R - C13    - C12   
  1689   1687   1690      1    1.1005e+02    3.8802e+02 ;    H3S - C13    - C12   
  1690   1693   1694      1    1.2311e+02    5.6928e+02 ;    C12 - C11    - O12   
  1690   1693   1695      1    1.1196e+02    5.7957e+02 ;    C12 - C11    - O11   
  1691   1690   1692      1    1.0835e+02    3.2995e+02 ;    H2R - C12    - H2S   
  1691   1690   1693      1    1.0968e+02    3.9497e+02 ;    H2R - C12    - C11   
  1692   1690   1693      1    1.0968e+02    3.9497e+02 ;    H2S - C12    - C11   
  1693   1695   1696      1    1.1514e+02    5.3246e+02 ;    C11 - O11    - C1    
  1694   1693   1695      1    1.2333e+02    6.3538e+02 ;    O12 - C11    - O11   
  1695   1696   1697      1    1.0882e+02    4.2543e+02 ;    O11 - C1     - HR    
  1695   1696   1698      1    1.0882e+02    4.2543e+02 ;    O11 - C1     - HS    
  1695   1696   1699      1    1.0842e+02    5.6718e+02 ;    O11 - C1     - C2    
  1696   1699   1700      1    1.1007e+02    3.8794e+02 ;     C1 - C2     - HX    
  1696   1699   1701      1    1.1063e+02    5.2894e+02 ;     C1 - C2     - C3    
  1696   1699   1728      1    1.0842e+02    5.6718e+02 ;     C1 - C2     - O21   
  1697   1696   1698      1    1.0955e+02    3.2786e+02 ;     HR - C1     - HS    
  1697   1696   1699      1    1.1007e+02    3.8794e+02 ;     HR - C1     - C2    
  1698   1696   1699      1    1.1007e+02    3.8794e+02 ;     HS - C1     - C2    
  1699   1701   1702      1    1.1007e+02    3.8794e+02 ;     C2 - C3     - HA    
  1699   1701   1703      1    1.1007e+02    3.8794e+02 ;     C2 - C3     - HB    
  1699   1701   1704      1    1.0842e+02    5.6718e+02 ;     C2 - C3     - O31   
  1699   1728   1729      1    1.1514e+02    5.3246e+02 ;     C2 - O21    - C21   
  1700   1699   1701      1    1.1007e+02    3.8794e+02 ;     HX - C2     - C3    
  1700   1699   1728      1    1.0882e+02    4.2543e+02 ;     HX - C2     - O21   
  1701   1699   1728      1    1.0842e+02    5.6718e+02 ;     C3 - C2     - O21   
  1701   1704   1705      1    1.2050e+02    8.3680e+02 ;     C3 - O31    - P31   
  1702   1701   1703      1    1.0955e+02    3.2786e+02 ;     HA - C3     - HB    
  1702   1701   1704      1    1.0882e+02    4.2543e+02 ;     HA - C3     - O31   
  1703   1701   1704      1    1.0882e+02    4.2543e+02 ;     HB - C3     - O31   
  1704   1705   1706      1    1.0260e+02    7.5312e+02 ;    O31 - P31    - O32   
  1704   1705   1726      1    1.0823e+02    8.3680e+02 ;    O31 - P31    - O33   
  1704   1705   1727      1    1.0823e+02    8.3680e+02 ;    O31 - P31    - O34   
  1705   1706   1707      1    1.2050e+02    8.3680e+02 ;    P31 - O32    - C31   
  1706   1705   1726      1    1.0823e+02    8.3680e+02 ;    O32 - P31    - O33   
  1706   1705   1727      1    1.0823e+02    8.3680e+02 ;    O32 - P31    - O34   
  1706   1707   1708      1    1.0882e+02    4.2543e+02 ;    O32 - C31    - H1A   
  1706   1707   1709      1    1.0882e+02    4.2543e+02 ;    O32 - C31    - H1B   
  1706   1707   1710      1    1.0842e+02    5.6718e+02 ;    O32 - C31    - C32   
  1707   1710   1711      1    1.1174e+02    3.8510e+02 ;    C31 - C32    - H2A   
  1707   1710   1712      1    1.1174e+02    3.8510e+02 ;    C31 - C32    - H2B   
  1707   1710   1713      1    1.1432e+02    5.3932e+02 ;    C31 - C32    - N31   
  1708   1707   1709      1    1.0955e+02    3.2786e+02 ;    H1A - C31    - H1B   
  1708   1707   1710      1    1.1007e+02    3.8794e+02 ;    H1A - C31    - C32   
  1709   1707   1710      1    1.1007e+02    3.8794e+02 ;    H1B - C31    - C32   
  1710   1713   1714      1    1.1064e+02    5.2585e+02 ;    C32 - N31    - C33   
  1710   1713   1718      1    1.1064e+02    5.2585e+02 ;    C32 - N31    - C34   
  1710   1713   1722      1    1.1064e+02    5.2585e+02 ;    C32 - N31    - C35   
  1711   1710   1712      1    1.1074e+02    3.2669e+02 ;    H2A - C32    - H2B   
  1711   1710   1713      1    1.0791e+02    4.1020e+02 ;    H2A - C32    - N31   
  1712   1710   1713      1    1.0791e+02    4.1020e+02 ;    H2B - C32    - N31   
  1713   1714   1715      1    1.0791e+02    4.1020e+02 ;    N31 - C33    - H3A   
  1713   1714   1716      1    1.0791e+02    4.1020e+02 ;    N31 - C33    - H3B   
  1713   1714   1717      1    1.0791e+02    4.1020e+02 ;    N31 - C33    - H3C   
  1713   1718   1719      1    1.0791e+02    4.1020e+02 ;    N31 - C34    - H4A   
  1713   1718   1720      1    1.0791e+02    4.1020e+02 ;    N31 - C34    - H4B   
  1713   1718   1721      1    1.0791e+02    4.1020e+02 ;    N31 - C34    - H4C   
  1713   1722   1723      1    1.0791e+02    4.1020e+02 ;    N31 - C35    - H5A   
  1713   1722   1724      1    1.0791e+02    4.1020e+02 ;    N31 - C35    - H5B   
  1713   1722   1725      1    1.0791e+02    4.1020e+02 ;    N31 - C35    - H5C   
  1714   1713   1718      1    1.1064e+02    5.2585e+02 ;    C33 - N31    - C34   
  1714   1713   1722      1    1.1064e+02    5.2585e+02 ;    C33 - N31    - C35   
  1715   1714   1716      1    1.1074e+02    3.2669e+02 ;    H3A - C33    - H3B   
  1715   1714   1717      1    1.1074e+02    3.2669e+02 ;    H3A - C33    - H3C   
  1716   1714   1717      1    1.1074e+02    3.2669e+02 ;    H3B - C33    - H3C   
  1718   1713   1722      1    1.1064e+02    5.2585e+02 ;    C34 - N31    - C35   
  1719   1718   1720      1    1.1074e+02    3.2669e+02 ;    H4A - C34    - H4B   
  1719   1718   1721      1    1.1074e+02    3.2669e+02 ;    H4A - C34    - H4C   
  1720   1718   1721      1    1.1074e+02    3.2669e+02 ;    H4B - C34    - H4C   
  1723   1722   1724      1    1.1074e+02    3.2669e+02 ;    H5A - C35    - H5B   
  1723   1722   1725      1    1.1074e+02    3.2669e+02 ;    H5A - C35    - H5C   
  1724   1722   1725      1    1.1074e+02    3.2669e+02 ;    H5B - C35    - H5C   
  1726   1705   1727      1    1.1990e+02    1.1715e+03 ;    O33 - P31    - O34   
  1728   1729   1730      1    1.2333e+02    6.3538e+02 ;    O21 - C21    - O22   
  1728   1729   1768      1    1.1196e+02    5.7957e+02 ;    O21 - C21    - C12   
  1729   1768   1765      1    1.1053e+02    5.3379e+02 ;    C21 - C12    - C13   
  1729   1768   1769      1    1.0968e+02    3.9497e+02 ;    C21 - C12    - H2R   
  1729   1768   1770      1    1.0968e+02    3.9497e+02 ;    C21 - C12    - H2S   
  1730   1729   1768      1    1.2311e+02    5.6928e+02 ;    O22 - C21    - C12   
  1731   1732   1733      1    1.0835e+02    3.2995e+02 ;   H14T - C114   - H14R  
  1731   1732   1734      1    1.0835e+02    3.2995e+02 ;   H14T - C114   - H14S  
  1731   1732   1735      1    1.1005e+02    3.8802e+02 ;   H14T - C114   - C113  
  1732   1735   1736      1    1.1005e+02    3.8802e+02 ;   C114 - C113   - H13R  
  1732   1735   1737      1    1.1005e+02    3.8802e+02 ;   C114 - C113   - H13S  
  1732   1735   1738      1    1.1205e+02    3.9497e+02 ;   C114 - C113   - C112  
  1733   1732   1734      1    1.0835e+02    3.2995e+02 ;   H14R - C114   - H14S  
  1733   1732   1735      1    1.1005e+02    3.8802e+02 ;   H14R - C114   - C113  
  1734   1732   1735      1    1.1005e+02    3.8802e+02 ;   H14S - C114   - C113  
  1735   1738   1739      1    1.1005e+02    3.8802e+02 ;   C113 - C112   - H12R  
  1735   1738   1740      1    1.1005e+02    3.8802e+02 ;   C113 - C112   - H12S  
  1735   1738   1741      1    1.1205e+02    3.9497e+02 ;   C113 - C112   - C111  
  1736   1735   1737      1    1.0835e+02    3.2995e+02 ;   H13R - C113   - H13S  
  1736   1735   1738      1    1.1005e+02    3.8802e+02 ;   H13R - C113   - C112  
  1737   1735   1738      1    1.1005e+02    3.8802e+02 ;   H13S - C113   - C112  
  1738   1741   1742      1    1.1005e+02    3.8802e+02 ;   C112 - C111   - H11R  
  1738   1741   1743      1    1.1005e+02    3.8802e+02 ;   C112 - C111   - H11S  
  1738   1741   1744      1    1.1205e+02    3.9497e+02 ;   C112 - C111   - C110  
  1739   1738   1740      1    1.0835e+02    3.2995e+02 ;   H12R - C112   - H12S  
  1739   1738   1741      1    1.1005e+02    3.8802e+02 ;   H12R - C112   - C111  
  1740   1738   1741      1    1.1005e+02    3.8802e+02 ;   H12S - C112   - C111  
  1741   1744   1745      1    1.1005e+02    3.8802e+02 ;   C111 - C110   - H10R  
  1741   1744   1746      1    1.1005e+02    3.8802e+02 ;   C111 - C110   - H10S  
  1741   1744   1747      1    1.1205e+02    3.9497e+02 ;   C111 - C110   - C19   
  1742   1741   1743      1    1.0835e+02    3.2995e+02 ;   H11R - C111   - H11S  
  1742   1741   1744      1    1.1005e+02    3.8802e+02 ;   H11R - C111   - C110  
  1743   1741   1744      1    1.1005e+02    3.8802e+02 ;   H11S - C111   - C110  
  1744   1747   1748      1    1.1005e+02    3.8802e+02 ;   C110 - C19    - H9R   
  1744   1747   1749      1    1.1005e+02    3.8802e+02 ;   C110 - C19    - H9S   
  1744   1747   1750      1    1.1205e+02    3.9497e+02 ;   C110 - C19    - C18   
  1745   1744   1746      1    1.0835e+02    3.2995e+02 ;   H10R - C110   - H10S  
  1745   1744   1747      1    1.1005e+02    3.8802e+02 ;   H10R - C110   - C19   
  1746   1744   1747      1    1.1005e+02    3.8802e+02 ;   H10S - C110   - C19   
  1747   1750   1751      1    1.1005e+02    3.8802e+02 ;    C19 - C18    - H8R   
  1747   1750   1752      1    1.1005e+02    3.8802e+02 ;    C19 - C18    - H8S   
  1747   1750   1753      1    1.1205e+02    3.9497e+02 ;    C19 - C18    - C17   
  1748   1747   1749      1    1.0835e+02    3.2995e+02 ;    H9R - C19    - H9S   
  1748   1747   1750      1    1.1005e+02    3.8802e+02 ;    H9R - C19    - C18   
  1749   1747   1750      1    1.1005e+02    3.8802e+02 ;    H9S - C19    - C18   
  1750   1753   1754      1    1.1005e+02    3.8802e+02 ;    C18 - C17    - H7R   
  1750   1753   1755      1    1.1005e+02    3.8802e+02 ;    C18 - C17    - H7S   
  1750   1753   1756      1    1.1205e+02    3.9497e+02 ;    C18 - C17    - C16   
  1751   1750   1752      1    1.0835e+02    3.2995e+02 ;    H8R - C18    - H8S   
  1751   1750   1753      1    1.1005e+02    3.8802e+02 ;    H8R - C18    - C17   
  1752   1750   1753      1    1.1005e+02    3.8802e+02 ;    H8S - C18    - C17   
  1753   1756   1757      1    1.1005e+02    3.8802e+02 ;    C17 - C16    - H6R   
  1753   1756   1758      1    1.1005e+02    3.8802e+02 ;    C17 - C16    - H6S   
  1753   1756   1759      1    1.1205e+02    3.9497e+02 ;    C17 - C16    - C15   
  1754   1753   1755      1    1.0835e+02    3.2995e+02 ;    H7R - C17    - H7S   
  1754   1753   1756      1    1.1005e+02    3.8802e+02 ;    H7R - C17    - C16   
  1755   1753   1756      1    1.1005e+02    3.8802e+02 ;    H7S - C17    - C16   
  1756   1759   1760      1    1.1005e+02    3.8802e+02 ;    C16 - C15    - H5R   
  1756   1759   1761      1    1.1005e+02    3.8802e+02 ;    C16 - C15    - H5S   
  1756   1759   1762      1    1.1205e+02    3.9497e+02 ;    C16 - C15    - C14   
  1757   1756   1758      1    1.0835e+02    3.2995e+02 ;    H6R - C16    - H6S   
  1757   1756   1759      1    1.1005e+02    3.8802e+02 ;    H6R - C16    - C15   
  1758   1756   1759      1    1.1005e+02    3.8802e+02 ;    H6S - C16    - C15   
  1759   1762   1763      1    1.1005e+02    3.8802e+02 ;    C15 - C14    - H4R   
  1759   1762   1764      1    1.1005e+02    3.8802e+02 ;    C15 - C14    - H4S   
  1759   1762   1765      1    1.1205e+02    3.9497e+02 ;    C15 - C14    - C13   
  1760   1759   1761      1    1.0835e+02    3.2995e+02 ;    H5R - C15    - H5S   
  1760   1759   1762      1    1.1005e+02    3.8802e+02 ;    H5R - C15    - C14   
  1761   1759   1762      1    1.1005e+02    3.8802e+02 ;    H5S - C15    - C14   
  1762   1765   1766      1    1.1005e+02    3.8802e+02 ;    C14 - C13    - H3R   
  1762   1765   1767      1    1.1005e+02    3.8802e+02 ;    C14 - C13    - H3S   
  1762   1765   1768      1    1.1205e+02    3.9497e+02 ;    C14 - C13    - C12   
  1763   1762   1764      1    1.0835e+02    3.2995e+02 ;    H4R - C14    - H4S   
  1763   1762   1765      1    1.1005e+02    3.8802e+02 ;    H4R - C14    - C13   
  1764   1762   1765      1    1.1005e+02    3.8802e+02 ;    H4S - C14    - C13   
  1765   1768   1769      1    1.1005e+02    3.8802e+02 ;    C13 - C12    - H2R   
  1765   1768   1770      1    1.1005e+02    3.8802e+02 ;    C13 - C12    - H2S   
  1766   1765   1767      1    1.0835e+02    3.2995e+02 ;    H3R - C13    - H3S   
  1766   1765   1768      1    1.1005e+02    3.8802e+02 ;    H3R - C13    - C12   
  1767   1765   1768      1    1.1005e+02    3.8802e+02 ;    H3S - C13    - C12   
  1769   1768   1770      1    1.0835e+02    3.2995e+02 ;    H2R - C12    - H2S   
  1771   1772   1773      1    1.0835e+02    3.2995e+02 ;   H14T - C114   - H14R  
  1771   1772   1774      1    1.0835e+02    3.2995e+02 ;   H14T - C114   - H14S  
  1771   1772   1775      1    1.1005e+02    3.8802e+02 ;   H14T - C114   - C113  
  1772   1775   1776      1    1.1005e+02    3.8802e+02 ;   C114 - C113   - H13R  
  1772   1775   1777      1    1.1005e+02    3.8802e+02 ;   C114 - C113   - H13S  
  1772   1775   1778      1    1.1205e+02    3.9497e+02 ;   C114 - C113   - C112  
  1773   1772   1774      1    1.0835e+02    3.2995e+02 ;   H14R - C114   - H14S  
  1773   1772   1775      1    1.1005e+02    3.8802e+02 ;   H14R - C114   - C113  
  1774   1772   1775      1    1.1005e+02    3.8802e+02 ;   H14S - C114   - C113  
  1775   1778   1779      1    1.1005e+02    3.8802e+02 ;   C113 - C112   - H12R  
  1775   1778   1780      1    1.1005e+02    3.8802e+02 ;   C113 - C112   - H12S  
  1775   1778   1781      1    1.1205e+02    3.9497e+02 ;   C113 - C112   - C111  
  1776   1775   1777      1    1.0835e+02    3.2995e+02 ;   H13R - C113   - H13S  
  1776   1775   1778      1    1.1005e+02    3.8802e+02 ;   H13R - C113   - C112  
  1777   1775   1778      1    1.1005e+02    3.8802e+02 ;   H13S - C113   - C112  
  1778   1781   1782      1    1.1005e+02    3.8802e+02 ;   C112 - C111   - H11R  
  1778   1781   1783      1    1.1005e+02    3.8802e+02 ;   C112 - C111   - H11S  
  1778   1781   1784      1    1.1205e+02    3.9497e+02 ;   C112 - C111   - C110  
  1779   1778   1780      1    1.0835e+02    3.2995e+02 ;   H12R - C112   - H12S  
  1779   1778   1781      1    1.1005e+02    3.8802e+02 ;   H12R - C112   - C111  
  1780   1778   1781      1    1.1005e+02    3.8802e+02 ;   H12S - C112   - C111  
  1781   1784   1785      1    1.1005e+02    3.8802e+02 ;   C111 - C110   - H10R  
  1781   1784   1786      1    1.1005e+02    3.8802e+02 ;   C111 - C110   - H10S  
  1781   1784   1787      1    1.1205e+02    3.9497e+02 ;   C111 - C110   - C19   
  1782   1781   1783      1    1.0835e+02    3.2995e+02 ;   H11R - C111   - H11S  
  1782   1781   1784      1    1.1005e+02    3.8802e+02 ;   H11R - C111   - C110  
  1783   1781   1784      1    1.1005e+02    3.8802e+02 ;   H11S - C111   - C110  
  1784   1787   1788      1    1.1005e+02    3.8802e+02 ;   C110 - C19    - H9R   
  1784   1787   1789      1    1.1005e+02    3.8802e+02 ;   C110 - C19    - H9S   
  1784   1787   1790      1    1.1205e+02    3.9497e+02 ;   C110 - C19    - C18   
  1785   1784   1786      1    1.0835e+02    3.2995e+02 ;   H10R - C110   - H10S  
  1785   1784   1787      1    1.1005e+02    3.8802e+02 ;   H10R - C110   - C19   
  1786   1784   1787      1    1.1005e+02    3.8802e+02 ;   H10S - C110   - C19   
  1787   1790   1791      1    1.1005e+02    3.8802e+02 ;    C19 - C18    - H8R   
  1787   1790   1792      1    1.1005e+02    3.8802e+02 ;    C19 - C18    - H8S   
  1787   1790   1793      1    1.1205e+02    3.9497e+02 ;    C19 - C18    - C17   
  1788   1787   1789      1    1.0835e+02    3.2995e+02 ;    H9R - C19    - H9S   
  1788   1787   1790      1    1.1005e+02    3.8802e+02 ;    H9R - C19    - C18   
  1789   1787   1790      1    1.1005e+02    3.8802e+02 ;    H9S - C19    - C18   
  1790   1793   1794      1    1.1005e+02    3.8802e+02 ;    C18 - C17    - H7R   
  1790   1793   1795      1    1.1005e+02    3.8802e+02 ;    C18 - C17    - H7S   
  1790   1793   1796      1    1.1205e+02    3.9497e+02 ;    C18 - C17    - C16   
  1791   1790   1792      1    1.0835e+02    3.2995e+02 ;    H8R - C18    - H8S   
  1791   1790   1793      1    1.1005e+02    3.8802e+02 ;    H8R - C18    - C17   
  1792   1790   1793      1    1.1005e+02    3.8802e+02 ;    H8S - C18    - C17   
  1793   1796   1797      1    1.1005e+02    3.8802e+02 ;    C17 - C16    - H6R   
  1793   1796   1798      1    1.1005e+02    3.8802e+02 ;    C17 - C16    - H6S   
  1793   1796   1799      1    1.1205e+02    3.9497e+02 ;    C17 - C16    - C15   
  1794   1793   1795      1    1.0835e+02    3.2995e+02 ;    H7R - C17    - H7S   
  1794   1793   1796      1    1.1005e+02    3.8802e+02 ;    H7R - C17    - C16   
  1795   1793   1796      1    1.1005e+02    3.8802e+02 ;    H7S - C17    - C16   
  1796   1799   1800      1    1.1005e+02    3.8802e+02 ;    C16 - C15    - H5R   
  1796   1799   1801      1    1.1005e+02    3.8802e+02 ;    C16 - C15    - H5S   
  1796   1799   1802      1    1.1205e+02    3.9497e+02 ;    C16 - C15    - C14   
  1797   1796   1798      1    1.0835e+02    3.2995e+02 ;    H6R - C16    - H6S   
  1797   1796   1799      1    1.1005e+02    3.8802e+02 ;    H6R - C16    - C15   
  1798   1796   1799      1    1.1005e+02    3.8802e+02 ;    H6S - C16    - C15   
  1799   1802   1803      1    1.1005e+02    3.8802e+02 ;    C15 - C14    - H4R   
  1799   1802   1804      1    1.1005e+02    3.8802e+02 ;    C15 - C14    - H4S   
  1799   1802   1805      1    1.1205e+02    3.9497e+02 ;    C15 - C14    - C13   
  1800   1799   1801      1    1.0835e+02    3.2995e+02 ;    H5R - C15    - H5S   
  1800   1799   1802      1    1.1005e+02    3.8802e+02 ;    H5R - C15    - C14   
  1801   1799   1802      1    1.1005e+02    3.8802e+02 ;    H5S - C15    - C14   
  1802   1805   1806      1    1.1005e+02    3.8802e+02 ;    C14 - C13    - H3R   
  1802   1805   1807      1    1.1005e+02    3.8802e+02 ;    C14 - C13    - H3S   
  1802   1805   1808      1    1.1205e+02    3.9497e+02 ;    C14 - C13    - C12   
  1803   1802   1804      1    1.0835e+02    3.2995e+02 ;    H4R - C14    - H4S   
  1803   1802   1805      1    1.1005e+02    3.8802e+02 ;    H4R - C14    - C13   
  1804   1802   1805      1    1.1005e+02    3.8802e+02 ;    H4S - C14    - C13   
  1805   1808   1809      1    1.1005e+02    3.8802e+02 ;    C13 - C12    - H2R   
  1805   1808   1810      1    1.1005e+02    3.8802e+02 ;    C13 - C12    - H2S   
  1805   1808   1811      1    1.1053e+02    5.3379e+02 ;    C13 - C12    - C11   
  1806   1805   1807      1    1.0835e+02    3.2995e+02 ;    H3R - C13    - H3S   
  1806   1805   1808      1    1.1005e+02    3.8802e+02 ;    H3R - C13    - C12   
  1807   1805   1808      1    1.1005e+02    3.8802e+02 ;    H3S - C13    - C12   
  1808   1811   1812      1    1.2311e+02    5.6928e+02 ;    C12 - C11    - O12   
  1808   1811   1813      1    1.1196e+02    5.7957e+02 ;    C12 - C11    - O11   
  1809   1808   1810      1    1.0835e+02    3.2995e+02 ;    H2R - C12    - H2S   
  1809   1808   1811      1    1.0968e+02    3.9497e+02 ;    H2R - C12    - C11   
  1810   1808   1811      1    1.0968e+02    3.9497e+02 ;    H2S - C12    - C11   
  1811   1813   1814      1    1.1514e+02    5.3246e+02 ;    C11 - O11    - C1    
  1812   1811   1813      1    1.2333e+02    6.3538e+02 ;    O12 - C11    - O11   
  1813   1814   1815      1    1.0882e+02    4.2543e+02 ;    O11 - C1     - HR    
  1813   1814   1816      1    1.0882e+02    4.2543e+02 ;    O11 - C1     - HS    
  1813   1814   1817      1    1.0842e+02    5.6718e+02 ;    O11 - C1     - C2    
  1814   1817   1818      1    1.1007e+02    3.8794e+02 ;     C1 - C2     - HX    
  1814   1817   1819      1    1.1063e+02    5.2894e+02 ;     C1 - C2     - C3    
  1814   1817   1846      1    1.0842e+02    5.6718e+02 ;     C1 - C2     - O21   
  1815   1814   1816      1    1.0955e+02    3.2786e+02 ;     HR - C1     - HS    
  1815   1814   1817      1    1.1007e+02    3.8794e+02 ;     HR - C1     - C2    
  1816   1814   1817      1    1.1007e+02    3.8794e+02 ;     HS - C1     - C2    
  1817   1819   1820      1    1.1007e+02    3.8794e+02 ;     C2 - C3     - HA    
  1817   1819   1821      1    1.1007e+02    3.8794e+02 ;     C2 - C3     - HB    
  1817   1819   1822      1    1.0842e+02    5.6718e+02 ;     C2 - C3     - O31   
  1817   1846   1847      1    1.1514e+02    5.3246e+02 ;     C2 - O21    - C21   
  1818   1817   1819      1    1.1007e+02    3.8794e+02 ;     HX - C2     - C3    
  1818   1817   1846      1    1.0882e+02    4.2543e+02 ;     HX - C2     - O21   
  1819   1817   1846      1    1.0842e+02    5.6718e+02 ;     C3 - C2     - O21   
  1819   1822   1823      1    1.2050e+02    8.3680e+02 ;     C3 - O31    - P31   
  1820   1819   1821      1    1.0955e+02    3.2786e+02 ;     HA - C3     - HB    
  1820   1819   1822      1    1.0882e+02    4.2543e+02 ;     HA - C3     - O31   
  1821   1819   1822      1    1.0882e+02    4.2543e+02 ;     HB - C3     - O31   
  1822   1823   1824      1    1.0260e+02    7.5312e+02 ;    O31 - P31    - O32   
  1822   1823   1844      1    1.0823e+02    8.3680e+02 ;    O31 - P31    - O33   
  1822   1823   1845      1    1.0823e+02    8.3680e+02 ;    O31 - P31    - O34   
  1823   1824   1825      1    1.2050e+02    8.3680e+02 ;    P31 - O32    - C31   
  1824   1823   1844      1    1.0823e+02    8.3680e+02 ;    O32 - P31    - O33   
  1824   1823   1845      1    1.0823e+02    8.3680e+02 ;    O32 - P31    - O34   
  1824   1825   1826      1    1.0882e+02    4.2543e+02 ;    O32 - C31    - H1A   
  1824   1825   1827      1    1.0882e+02    4.2543e+02 ;    O32 - C31    - H1B   
  1824   1825   1828      1    1.0842e+02    5.6718e+02 ;    O32 - C31    - C32   
  1825   1828   1829      1    1.1174e+02    3.8510e+02 ;    C31 - C32    - H2A   
  1825   1828   1830      1    1.1174e+02    3.8510e+02 ;    C31 - C32    - H2B   
  1825   1828   1831      1    1.1432e+02    5.3932e+02 ;    C31 - C32    - N31   
  1826   1825   1827      1    1.0955e+02    3.2786e+02 ;    H1A - C31    - H1B   
  1826   1825   1828      1    1.1007e+02    3.8794e+02 ;    H1A - C31    - C32   
  1827   1825   1828      1    1.1007e+02    3.8794e+02 ;    H1B - C31    - C32   
  1828   1831   1832      1    1.1064e+02    5.2585e+02 ;    C32 - N31    - C33   
  1828   1831   1836      1    1.1064e+02    5.2585e+02 ;    C32 - N31    - C34   
  1828   1831   1840      1    1.1064e+02    5.2585e+02 ;    C32 - N31    - C35   
  1829   1828   1830      1    1.1074e+02    3.2669e+02 ;    H2A - C32    - H2B   
  1829   1828   1831      1    1.0791e+02    4.1020e+02 ;    H2A - C32    - N31   
  1830   1828   1831      1    1.0791e+02    4.1020e+02 ;    H2B - C32    - N31   
  1831   1832   1833      1    1.0791e+02    4.1020e+02 ;    N31 - C33    - H3A   
  1831   1832   1834      1    1.0791e+02    4.1020e+02 ;    N31 - C33    - H3B   
  1831   1832   1835      1    1.0791e+02    4.1020e+02 ;    N31 - C33    - H3C   
  1831   1836   1837      1    1.0791e+02    4.1020e+02 ;    N31 - C34    - H4A   
  1831   1836   1838      1    1.0791e+02    4.1020e+02 ;    N31 - C34    - H4B   
  1831   1836   1839      1    1.0791e+02    4.1020e+02 ;    N31 - C34    - H4C   
  1831   1840   1841      1    1.0791e+02    4.1020e+02 ;    N31 - C35    - H5A   
  1831   1840   1842      1    1.0791e+02    4.1020e+02 ;    N31 - C35    - H5B   
  1831   1840   1843      1    1.0791e+02    4.1020e+02 ;    N31 - C35    - H5C   
  1832   1831   1836      1    1.1064e+02    5.2585e+02 ;    C33 - N31    - C34   
  1832   1831   1840      1    1.1064e+02    5.2585e+02 ;    C33 - N31    - C35   
  1833   1832   1834      1    1.1074e+02    3.2669e+02 ;    H3A - C33    - H3B   
  1833   1832   1835      1    1.1074e+02    3.2669e+02 ;    H3A - C33    - H3C   
  1834   1832   1835      1    1.1074e+02    3.2669e+02 ;    H3B - C33    - H3C   
  1836   1831   1840      1    1.1064e+02    5.2585e+02 ;    C34 - N31    - C35   
  1837   1836   1838      1    1.1074e+02    3.2669e+02 ;    H4A - C34    - H4B   
  1837   1836   1839      1    1.1074e+02    3.2669e+02 ;    H4A - C34    - H4C   
  1838   1836   1839      1    1.1074e+02    3.2669e+02 ;    H4B - C34    - H4C   
  1841   1840   1842      1    1.1074e+02    3.2669e+02 ;    H5A - C35    - H5B   
  1841   1840   1843      1    1.1074e+02    3.2669e+02 ;    H5A - C35    - H5C   
  1842   1840   1843      1    1.1074e+02    3.2669e+02 ;    H5B - C35    - H5C   
  1844   1823   1845      1    1.1990e+02    1.1715e+03 ;    O33 - P31    - O34   
  1846   1847   1848      1    1.2333e+02    6.3538e+02 ;    O21 - C21    - O22   
  1846   1847   1886      1    1.1196e+02    5.7957e+02 ;    O21 - C21    - C12   
  1847   1886   1883      1    1.1053e+02    5.3379e+02 ;    C21 - C12    - C13   
  1847   1886   1887      1    1.0968e+02    3.9497e+02 ;    C21 - C12    - H2R   
  1847   1886   1888      1    1.0968e+02    3.9497e+02 ;    C21 - C12    - H2S   
  1848   1847   1886      1    1.2311e+02    5.6928e+02 ;    O22 - C21    - C12   
  1849   1850   1851      1    1.0835e+02    3.2995e+02 ;   H14T - C114   - H14R  
  1849   1850   1852      1    1.0835e+02    3.2995e+02 ;   H14T - C114   - H14S  
  1849   1850   1853      1    1.1005e+02    3.8802e+02 ;   H14T - C114   - C113  
  1850   1853   1854      1    1.1005e+02    3.8802e+02 ;   C114 - C113   - H13R  
  1850   1853   1855      1    1.1005e+02    3.8802e+02 ;   C114 - C113   - H13S  
  1850   1853   1856      1    1.1205e+02    3.9497e+02 ;   C114 - C113   - C112  
  1851   1850   1852      1    1.0835e+02    3.2995e+02 ;   H14R - C114   - H14S  
  1851   1850   1853      1    1.1005e+02    3.8802e+02 ;   H14R - C114   - C113  
  1852   1850   1853      1    1.1005e+02    3.8802e+02 ;   H14S - C114   - C113  
  1853   1856   1857      1    1.1005e+02    3.8802e+02 ;   C113 - C112   - H12R  
  1853   1856   1858      1    1.1005e+02    3.8802e+02 ;   C113 - C112   - H12S  
  1853   1856   1859      1    1.1205e+02    3.9497e+02 ;   C113 - C112   - C111  
  1854   1853   1855      1    1.0835e+02    3.2995e+02 ;   H13R - C113   - H13S  
  1854   1853   1856      1    1.1005e+02    3.8802e+02 ;   H13R - C113   - C112  
  1855   1853   1856      1    1.1005e+02    3.8802e+02 ;   H13S - C113   - C112  
  1856   1859   1860      1    1.1005e+02    3.8802e+02 ;   C112 - C111   - H11R  
  1856   1859   1861      1    1.1005e+02    3.8802e+02 ;   C112 - C111   - H11S  
  1856   1859   1862      1    1.1205e+02    3.9497e+02 ;   C112 - C111   - C110  
  1857   1856   1858      1    1.0835e+02    3.2995e+02 ;   H12R - C112   - H12S  
  1857   1856   1859      1    1.1005e+02    3.8802e+02 ;   H12R - C112   - C111  
  1858   1856   1859      1    1.1005e+02    3.8802e+02 ;   H12S - C112   - C111  
  1859   1862   1863      1    1.1005e+02    3.8802e+02 ;   C111 - C110   - H10R  
  1859   1862   1864      1    1.1005e+02    3.8802e+02 ;   C111 - C110   - H10S  
  1859   1862   1865      1    1.1205e+02    3.9497e+02 ;   C111 - C110   - C19   
  1860   1859   1861      1    1.0835e+02    3.2995e+02 ;   H11R - C111   - H11S  
  1860   1859   1862      1    1.1005e+02    3.8802e+02 ;   H11R - C111   - C110  
  1861   1859   1862      1    1.1005e+02    3.8802e+02 ;   H11S - C111   - C110  
  1862   1865   1866      1    1.1005e+02    3.8802e+02 ;   C110 - C19    - H9R   
  1862   1865   1867      1    1.1005e+02    3.8802e+02 ;   C110 - C19    - H9S   
  1862   1865   1868      1    1.1205e+02    3.9497e+02 ;   C110 - C19    - C18   
  1863   1862   1864      1    1.0835e+02    3.2995e+02 ;   H10R - C110   - H10S  
  1863   1862   1865      1    1.1005e+02    3.8802e+02 ;   H10R - C110   - C19   
  1864   1862   1865      1    1.1005e+02    3.8802e+02 ;   H10S - C110   - C19   
  1865   1868   1869      1    1.1005e+02    3.8802e+02 ;    C19 - C18    - H8R   
  1865   1868   1870      1    1.1005e+02    3.8802e+02 ;    C19 - C18    - H8S   
  1865   1868   1871      1    1.1205e+02    3.9497e+02 ;    C19 - C18    - C17   
  1866   1865   1867      1    1.0835e+02    3.2995e+02 ;    H9R - C19    - H9S   
  1866   1865   1868      1    1.1005e+02    3.8802e+02 ;    H9R - C19    - C18   
  1867   1865   1868      1    1.1005e+02    3.8802e+02 ;    H9S - C19    - C18   
  1868   1871   1872      1    1.1005e+02    3.8802e+02 ;    C18 - C17    - H7R   
  1868   1871   1873      1    1.1005e+02    3.8802e+02 ;    C18 - C17    - H7S   
  1868   1871   1874      1    1.1205e+02    3.9497e+02 ;    C18 - C17    - C16   
  1869   1868   1870      1    1.0835e+02    3.2995e+02 ;    H8R - C18    - H8S   
  1869   1868   1871      1    1.1005e+02    3.8802e+02 ;    H8R - C18    - C17   
  1870   1868   1871      1    1.1005e+02    3.8802e+02 ;    H8S - C18    - C17   
  1871   1874   1875      1    1.1005e+02    3.8802e+02 ;    C17 - C16    - H6R   
  1871   1874   1876      1    1.1005e+02    3.8802e+02 ;    C17 - C16    - H6S   
  1871   1874   1877      1    1.1205e+02    3.9497e+02 ;    C17 - C16    - C15   
  1872   1871   1873      1    1.0835e+02    3.2995e+02 ;    H7R - C17    - H7S   
  1872   1871   1874      1    1.1005e+02    3.8802e+02 ;    H7R - C17    - C16   
  1873   1871   1874      1    1.1005e+02    3.8802e+02 ;    H7S - C17    - C16   
  1874   1877   1878      1    1.1005e+02    3.8802e+02 ;    C16 - C15    - H5R   
  1874   1877   1879      1    1.1005e+02    3.8802e+02 ;    C16 - C15    - H5S   
  1874   1877   1880      1    1.1205e+02    3.9497e+02 ;    C16 - C15    - C14   
  1875   1874   1876      1    1.0835e+02    3.2995e+02 ;    H6R - C16    - H6S   
  1875   1874   1877      1    1.1005e+02    3.8802e+02 ;    H6R - C16    - C15   
  1876   1874   1877      1    1.1005e+02    3.8802e+02 ;    H6S - C16    - C15   
  1877   1880   1881      1    1.1005e+02    3.8802e+02 ;    C15 - C14    - H4R   
  1877   1880   1882      1    1.1005e+02    3.8802e+02 ;    C15 - C14    - H4S   
  1877   1880   1883      1    1.1205e+02    3.9497e+02 ;    C15 - C14    - C13   
  1878   1877   1879      1    1.0835e+02    3.2995e+02 ;    H5R - C15    - H5S   
  1878   1877   1880      1    1.1005e+02    3.8802e+02 ;    H5R - C15    - C14   
  1879   1877   1880      1    1.1005e+02    3.8802e+02 ;    H5S - C15    - C14   
  1880   1883   1884      1    1.1005e+02    3.8802e+02 ;    C14 - C13    - H3R   
  1880   1883   1885      1    1.1005e+02    3.8802e+02 ;    C14 - C13    - H3S   
  1880   1883   1886      1    1.1205e+02    3.9497e+02 ;    C14 - C13    - C12   
  1881   1880   1882      1    1.0835e+02    3.2995e+02 ;    H4R - C14    - H4S   
  1881   1880   1883      1    1.1005e+02    3.8802e+02 ;    H4R - C14    - C13   
  1882   1880   1883      1    1.1005e+02    3.8802e+02 ;    H4S - C14    - C13   
  1883   1886   1887      1    1.1005e+02    3.8802e+02 ;    C13 - C12    - H2R   
  1883   1886   1888      1    1.1005e+02    3.8802e+02 ;    C13 - C12    - H2S   
  1884   1883   1885      1    1.0835e+02    3.2995e+02 ;    H3R - C13    - H3S   
  1884   1883   1886      1    1.1005e+02    3.8802e+02 ;    H3R - C13    - C12   
  1885   1883   1886      1    1.1005e+02    3.8802e+02 ;    H3S - C13    - C12   
  1887   1886   1888      1    1.0835e+02    3.2995e+02 ;    H2R - C12    - H2S   
  1889   1890   1891      1    1.0835e+02    3.2995e+02 ;   H14T - C114   - H14R  
  1889   1890   1892      1    1.0835e+02    3.2995e+02 ;   H14T - C114   - H14S  
  1889   1890   1893      1    1.1005e+02    3.8802e+02 ;   H14T - C114   - C113  
  1890   1893   1894      1    1.1005e+02    3.8802e+02 ;   C114 - C113   - H13R  
  1890   1893   1895      1    1.1005e+02    3.8802e+02 ;   C114 - C113   - H13S  
  1890   1893   1896      1    1.1205e+02    3.9497e+02 ;   C114 - C113   - C112  
  1891   1890   1892      1    1.0835e+02    3.2995e+02 ;   H14R - C114   - H14S  
  1891   1890   1893      1    1.1005e+02    3.8802e+02 ;   H14R - C114   - C113  
  1892   1890   1893      1    1.1005e+02    3.8802e+02 ;   H14S - C114   - C113  
  1893   1896   1897      1    1.1005e+02    3.8802e+02 ;   C113 - C112   - H12R  
  1893   1896   1898      1    1.1005e+02    3.8802e+02 ;   C113 - C112   - H12S  
  1893   1896   1899      1    1.1205e+02    3.9497e+02 ;   C113 - C112   - C111  
  1894   1893   1895      1    1.0835e+02    3.2995e+02 ;   H13R - C113   - H13S  
  1894   1893   1896      1    1.1005e+02    3.8802e+02 ;   H13R - C113   - C112  
  1895   1893   1896      1    1.1005e+02    3.8802e+02 ;   H13S - C113   - C112  
  1896   1899   1900      1    1.1005e+02    3.8802e+02 ;   C112 - C111   - H11R  
  1896   1899   1901      1    1.1005e+02    3.8802e+02 ;   C112 - C111   - H11S  
  1896   1899   1902      1    1.1205e+02    3.9497e+02 ;   C112 - C111   - C110  
  1897   1896   1898      1    1.0835e+02    3.2995e+02 ;   H12R - C112   - H12S  
  1897   1896   1899      1    1.1005e+02    3.8802e+02 ;   H12R - C112   - C111  
  1898   1896   1899      1    1.1005e+02    3.8802e+02 ;   H12S - C112   - C111  
  1899   1902   1903      1    1.1005e+02    3.8802e+02 ;   C111 - C110   - H10R  
  1899   1902   1904      1    1.1005e+02    3.8802e+02 ;   C111 - C110   - H10S  
  1899   1902   1905      1    1.1205e+02    3.9497e+02 ;   C111 - C110   - C19   
  1900   1899   1901      1    1.0835e+02    3.2995e+02 ;   H11R - C111   - H11S  
  1900   1899   1902      1    1.1005e+02    3.8802e+02 ;   H11R - C111   - C110  
  1901   1899   1902      1    1.1005e+02    3.8802e+02 ;   H11S - C111   - C110  
  1902   1905   1906      1    1.1005e+02    3.8802e+02 ;   C110 - C19    - H9R   
  1902   1905   1907      1    1.1005e+02    3.8802e+02 ;   C110 - C19    - H9S   
  1902   1905   1908      1    1.1205e+02    3.9497e+02 ;   C110 - C19    - C18   
  1903   1902   1904      1    1.0835e+02    3.2995e+02 ;   H10R - C110   - H10S  
  1903   1902   1905      1    1.1005e+02    3.8802e+02 ;   H10R - C110   - C19   
  1904   1902   1905      1    1.1005e+02    3.8802e+02 ;   H10S - C110   - C19   
  1905   1908   1909      1    1.1005e+02    3.8802e+02 ;    C19 - C18    - H8R   
  1905   1908   1910      1    1.1005e+02    3.8802e+02 ;    C19 - C18    - H8S   
  1905   1908   1911      1    1.1205e+02    3.9497e+02 ;    C19 - C18    - C17   
  1906   1905   1907      1    1.0835e+02    3.2995e+02 ;    H9R - C19    - H9S   
  1906   1905   1908      1    1.1005e+02    3.8802e+02 ;    H9R - C19    - C18   
  1907   1905   1908      1    1.1005e+02    3.8802e+02 ;    H9S - C19    - C18   
  1908   1911   1912      1    1.1005e+02    3.8802e+02 ;    C18 - C17    - H7R   
  1908   1911   1913      1    1.1005e+02    3.8802e+02 ;    C18 - C17    - H7S   
  1908   1911   1914      1    1.1205e+02    3.9497e+02 ;    C18 - C17    - C16   
  1909   1908   1910      1    1.0835e+02    3.2995e+02 ;    H8R - C18    - H8S   
  1909   1908   1911      1    1.1005e+02    3.8802e+02 ;    H8R - C18    - C17   
  1910   1908   1911      1    1.1005e+02    3.8802e+02 ;    H8S - C18    - C17   
  1911   1914   1915      1    1.1005e+02    3.8802e+02 ;    C17 - C16    - H6R   
  1911   1914   1916      1    1.1005e+02    3.8802e+02 ;    C17 - C16    - H6S   
  1911   1914   1917      1    1.1205e+02    3.9497e+02 ;    C17 - C16    - C15   
  1912   1911   1913      1    1.0835e+02    3.2995e+02 ;    H7R - C17    - H7S   
  1912   1911   1914      1    1.1005e+02    3.8802e+02 ;    H7R - C17    - C16   
  1913   1911   1914      1    1.1005e+02    3.8802e+02 ;    H7S - C17    - C16   
  1914   1917   1918      1    1.1005e+02    3.8802e+02 ;    C16 - C15    - H5R   
  1914   1917   1919      1    1.1005e+02    3.8802e+02 ;    C16 - C15    - H5S   
  1914   1917   1920      1    1.1205e+02    3.9497e+02 ;    C16 - C15    - C14   
  1915   1914   1916      1    1.0835e+02    3.2995e+02 ;    H6R - C16    - H6S   
  1915   1914   1917      1    1.1005e+02    3.8802e+02 ;    H6R - C16    - C15   
  1916   1914   1917      1    1.1005e+02    3.8802e+02 ;    H6S - C16    - C15   
  1917   1920   1921      1    1.1005e+02    3.8802e+02 ;    C15 - C14    - H4R   
  1917   1920   1922      1    1.1005e+02    3.8802e+02 ;    C15 - C14    - H4S   
  1917   1920   1923      1    1.1205e+02    3.9497e+02 ;    C15 - C14    - C13   
  1918   1917   1919      1    1.0835e+02    3.2995e+02 ;    H5R - C15    - H5S   
  1918   1917   1920      1    1.1005e+02    3.8802e+02 ;    H5R - C15    - C14   
  1919   1917   1920      1    1.1005e+02    3.8802e+02 ;    H5S - C15    - C14   
  1920   1923   1924      1    1.1005e+02    3.8802e+02 ;    C14 - C13    - H3R   
  1920   1923   1925      1    1.1005e+02    3.8802e+02 ;    C14 - C13    - H3S   
  1920   1923   1926      1    1.1205e+02    3.9497e+02 ;    C14 - C13    - C12   
  1921   1920   1922      1    1.0835e+02    3.2995e+02 ;    H4R - C14    - H4S   
  1921   1920   1923      1    1.1005e+02    3.8802e+02 ;    H4R - C14    - C13   
  1922   1920   1923      1    1.1005e+02    3.8802e+02 ;    H4S - C14    - C13   
  1923   1926   1927      1    1.1005e+02    3.8802e+02 ;    C13 - C12    - H2R   
  1923   1926   1928      1    1.1005e+02    3.8802e+02 ;    C13 - C12    - H2S   
  1923   1926   1929      1    1.1053e+02    5.3379e+02 ;    C13 - C12    - C11   
  1924   1923   1925      1    1.0835e+02    3.2995e+02 ;    H3R - C13    - H3S   
  1924   1923   1926      1    1.1005e+02    3.8802e+02 ;    H3R - C13    - C12   
  1925   1923   1926      1    1.1005e+02    3.8802e+02 ;    H3S - C13    - C12   
  1926   1929   1930      1    1.2311e+02    5.6928e+02 ;    C12 - C11    - O12   
  1926   1929   1931      1    1.1196e+02    5.7957e+02 ;    C12 - C11    - O11   
  1927   1926   1928      1    1.0835e+02    3.2995e+02 ;    H2R - C12    - H2S   
  1927   1926   1929      1    1.0968e+02    3.9497e+02 ;    H2R - C12    - C11   
  1928   1926   1929      1    1.0968e+02    3.9497e+02 ;    H2S - C12    - C11   
  1929   1931   1932      1    1.1514e+02    5.3246e+02 ;    C11 - O11    - C1    
  1930   1929   1931      1    1.2333e+02    6.3538e+02 ;    O12 - C11    - O11   
  1931   1932   1933      1    1.0882e+02    4.2543e+02 ;    O11 - C1     - HR    
  1931   1932   1934      1    1.0882e+02    4.2543e+02 ;    O11 - C1     - HS    
  1931   1932   1935      1    1.0842e+02    5.6718e+02 ;    O11 - C1     - C2    
  1932   1935   1936      1    1.1007e+02    3.8794e+02 ;     C1 - C2     - HX    
  1932   1935   1937      1    1.1063e+02    5.2894e+02 ;     C1 - C2     - C3    
  1932   1935   1964      1    1.0842e+02    5.6718e+02 ;     C1 - C2     - O21   
  1933   1932   1934      1    1.0955e+02    3.2786e+02 ;     HR - C1     - HS    
  1933   1932   1935      1    1.1007e+02    3.8794e+02 ;     HR - C1     - C2    
  1934   1932   1935      1    1.1007e+02    3.8794e+02 ;     HS - C1     - C2    
  1935   1937   1938      1    1.1007e+02    3.8794e+02 ;     C2 - C3     - HA    
  1935   1937   1939      1    1.1007e+02    3.8794e+02 ;     C2 - C3     - HB    
  1935   1937   1940      1    1.0842e+02    5.6718e+02 ;     C2 - C3     - O31   
  1935   1964   1965      1    1.1514e+02    5.3246e+02 ;     C2 - O21    - C21   
  1936   1935   1937      1    1.1007e+02    3.8794e+02 ;     HX - C2     - C3    
  1936   1935   1964      1    1.0882e+02    4.2543e+02 ;     HX - C2     - O21   
  1937   1935   1964      1    1.0842e+02    5.6718e+02 ;     C3 - C2     - O21   
  1937   1940   1941      1    1.2050e+02    8.3680e+02 ;     C3 - O31    - P31   
  1938   1937   1939      1    1.0955e+02    3.2786e+02 ;     HA - C3     - HB    
  1938   1937   1940      1    1.0882e+02    4.2543e+02 ;     HA - C3     - O31   
  1939   1937   1940      1    1.0882e+02    4.2543e+02 ;     HB - C3     - O31   
  1940   1941   1942      1    1.0260e+02    7.5312e+02 ;    O31 - P31    - O32   
  1940   1941   1962      1    1.0823e+02    8.3680e+02 ;    O31 - P31    - O33   
  1940   1941   1963      1    1.0823e+02    8.3680e+02 ;    O31 - P31    - O34   
  1941   1942   1943      1    1.2050e+02    8.3680e+02 ;    P31 - O32    - C31   
  1942   1941   1962      1    1.0823e+02    8.3680e+02 ;    O32 - P31    - O33   
  1942   1941   1963      1    1.0823e+02    8.3680e+02 ;    O32 - P31    - O34   
  1942   1943   1944      1    1.0882e+02    4.2543e+02 ;    O32 - C31    - H1A   
  1942   1943   1945      1    1.0882e+02    4.2543e+02 ;    O32 - C31    - H1B   
  1942   1943   1946      1    1.0842e+02    5.6718e+02 ;    O32 - C31    - C32   
  1943   1946   1947      1    1.1174e+02    3.8510e+02 ;    C31 - C32    - H2A   
  1943   1946   1948      1    1.1174e+02    3.8510e+02 ;    C31 - C32    - H2B   
  1943   1946   1949      1    1.1432e+02    5.3932e+02 ;    C31 - C32    - N31   
  1944   1943   1945      1    1.0955e+02    3.2786e+02 ;    H1A - C31    - H1B   
  1944   1943   1946      1    1.1007e+02    3.8794e+02 ;    H1A - C31    - C32   
  1945   1943   1946      1    1.1007e+02    3.8794e+02 ;    H1B - C31    - C32   
  1946   1949   1950      1    1.1064e+02    5.2585e+02 ;    C32 - N31    - C33   
  1946   1949   1954      1    1.1064e+02    5.2585e+02 ;    C32 - N31    - C34   
  1946   1949   1958      1    1.1064e+02    5.2585e+02 ;    C32 - N31    - C35   
  1947   1946   1948      1    1.1074e+02    3.2669e+02 ;    H2A - C32    - H2B   
  1947   1946   1949      1    1.0791e+02    4.1020e+02 ;    H2A - C32    - N31   
  1948   1946   1949      1    1.0791e+02    4.1020e+02 ;    H2B - C32    - N31   
  1949   1950   1951      1    1.0791e+02    4.1020e+02 ;    N31 - C33    - H3A   
  1949   1950   1952      1    1.0791e+02    4.1020e+02 ;    N31 - C33    - H3B   
  1949   1950   1953      1    1.0791e+02    4.1020e+02 ;    N31 - C33    - H3C   
  1949   1954   1955      1    1.0791e+02    4.1020e+02 ;    N31 - C34    - H4A   
  1949   1954   1956      1    1.0791e+02    4.1020e+02 ;    N31 - C34    - H4B   
  1949   1954   1957      1    1.0791e+02    4.1020e+02 ;    N31 - C34    - H4C   
  1949   1958   1959      1    1.0791e+02    4.1020e+02 ;    N31 - C35    - H5A   
  1949   1958   1960      1    1.0791e+02    4.1020e+02 ;    N31 - C35    - H5B   
  1949   1958   1961      1    1.0791e+02    4.1020e+02 ;    N31 - C35    - H5C   
  1950   1949   1954      1    1.1064e+02    5.2585e+02 ;    C33 - N31    - C34   
  1950   1949   1958      1    1.1064e+02    5.2585e+02 ;    C33 - N31    - C35   
  1951   1950   1952      1    1.1074e+02    3.2669e+02 ;    H3A - C33    - H3B   
  1951   1950   1953      1    1.1074e+02    3.2669e+02 ;    H3A - C33    - H3C   
  1952   1950   1953      1    1.1074e+02    3.2669e+02 ;    H3B - C33    - H3C   
  1954   1949   1958      1    1.1064e+02    5.2585e+02 ;    C34 - N31    - C35   
  1955   1954   1956      1    1.1074e+02    3.2669e+02 ;    H4A - C34    - H4B   
  1955   1954   1957      1    1.1074e+02    3.2669e+02 ;    H4A - C34    - H4C   
  1956   1954   1957      1    1.1074e+02    3.2669e+02 ;    H4B - C34    - H4C   
  1959   1958   1960      1    1.1074e+02    3.2669e+02 ;    H5A - C35    - H5B   
  1959   1958   1961      1    1.1074e+02    3.2669e+02 ;    H5A - C35    - H5C   
  1960   1958   1961      1    1.1074e+02    3.2669e+02 ;    H5B - C35    - H5C   
  1962   1941   1963      1    1.1990e+02    1.1715e+03 ;    O33 - P31    - O34   
  1964   1965   1966      1    1.2333e+02    6.3538e+02 ;    O21 - C21    - O22   
  1964   1965   2004      1    1.1196e+02    5.7957e+02 ;    O21 - C21    - C12   
  1965   2004   2001      1    1.1053e+02    5.3379e+02 ;    C21 - C12    - C13   
  1965   2004   2005      1    1.0968e+02    3.9497e+02 ;    C21 - C12    - H2R   
  1965   2004   2006      1    1.0968e+02    3.9497e+02 ;    C21 - C12    - H2S   
  1966   1965   2004      1    1.2311e+02    5.6928e+02 ;    O22 - C21    - C12   
  1967   1968   1969      1    1.0835e+02    3.2995e+02 ;   H14T - C114   - H14R  
  1967   1968   1970      1    1.0835e+02    3.2995e+02 ;   H14T - C114   - H14S  
  1967   1968   1971      1    1.1005e+02    3.8802e+02 ;   H14T - C114   - C113  
  1968   1971   1972      1    1.1005e+02    3.8802e+02 ;   C114 - C113   - H13R  
  1968   1971   1973      1    1.1005e+02    3.8802e+02 ;   C114 - C113   - H13S  
  1968   1971   1974      1    1.1205e+02    3.9497e+02 ;   C114 - C113   - C112  
  1969   1968   1970      1    1.0835e+02    3.2995e+02 ;   H14R - C114   - H14S  
  1969   1968   1971      1    1.1005e+02    3.8802e+02 ;   H14R - C114   - C113  
  1970   1968   1971      1    1.1005e+02    3.8802e+02 ;   H14S - C114   - C113  
  1971   1974   1975      1    1.1005e+02    3.8802e+02 ;   C113 - C112   - H12R  
  1971   1974   1976      1    1.1005e+02    3.8802e+02 ;   C113 - C112   - H12S  
  1971   1974   1977      1    1.1205e+02    3.9497e+02 ;   C113 - C112   - C111  
  1972   1971   1973      1    1.0835e+02    3.2995e+02 ;   H13R - C113   - H13S  
  1972   1971   1974      1    1.1005e+02    3.8802e+02 ;   H13R - C113   - C112  
  1973   1971   1974      1    1.1005e+02    3.8802e+02 ;   H13S - C113   - C112  
  1974   1977   1978      1    1.1005e+02    3.8802e+02 ;   C112 - C111   - H11R  
  1974   1977   1979      1    1.1005e+02    3.8802e+02 ;   C112 - C111   - H11S  
  1974   1977   1980      1    1.1205e+02    3.9497e+02 ;   C112 - C111   - C110  
  1975   1974   1976      1    1.0835e+02    3.2995e+02 ;   H12R - C112   - H12S  
  1975   1974   1977      1    1.1005e+02    3.8802e+02 ;   H12R - C112   - C111  
  1976   1974   1977      1    1.1005e+02    3.8802e+02 ;   H12S - C112   - C111  
  1977   1980   1981      1    1.1005e+02    3.8802e+02 ;   C111 - C110   - H10R  
  1977   1980   1982      1    1.1005e+02    3.8802e+02 ;   C111 - C110   - H10S  
  1977   1980   1983      1    1.1205e+02    3.9497e+02 ;   C111 - C110   - C19   
  1978   1977   1979      1    1.0835e+02    3.2995e+02 ;   H11R - C111   - H11S  
  1978   1977   1980      1    1.1005e+02    3.8802e+02 ;   H11R - C111   - C110  
  1979   1977   1980      1    1.1005e+02    3.8802e+02 ;   H11S - C111   - C110  
  1980   1983   1984      1    1.1005e+02    3.8802e+02 ;   C110 - C19    - H9R   
  1980   1983   1985      1    1.1005e+02    3.8802e+02 ;   C110 - C19    - H9S   
  1980   1983   1986      1    1.1205e+02    3.9497e+02 ;   C110 - C19    - C18   
  1981   1980   1982      1    1.0835e+02    3.2995e+02 ;   H10R - C110   - H10S  
  1981   1980   1983      1    1.1005e+02    3.8802e+02 ;   H10R - C110   - C19   
  1982   1980   1983      1    1.1005e+02    3.8802e+02 ;   H10S - C110   - C19   
  1983   1986   1987      1    1.1005e+02    3.8802e+02 ;    C19 - C18    - H8R   
  1983   1986   1988      1    1.1005e+02    3.8802e+02 ;    C19 - C18    - H8S   
  1983   1986   1989      1    1.1205e+02    3.9497e+02 ;    C19 - C18    - C17   
  1984   1983   1985      1    1.0835e+02    3.2995e+02 ;    H9R - C19    - H9S   
  1984   1983   1986      1    1.1005e+02    3.8802e+02 ;    H9R - C19    - C18   
  1985   1983   1986      1    1.1005e+02    3.8802e+02 ;    H9S - C19    - C18   
  1986   1989   1990      1    1.1005e+02    3.8802e+02 ;    C18 - C17    - H7R   
  1986   1989   1991      1    1.1005e+02    3.8802e+02 ;    C18 - C17    - H7S   
  1986   1989   1992      1    1.1205e+02    3.9497e+02 ;    C18 - C17    - C16   
  1987   1986   1988      1    1.0835e+02    3.2995e+02 ;    H8R - C18    - H8S   
  1987   1986   1989      1    1.1005e+02    3.8802e+02 ;    H8R - C18    - C17   
  1988   1986   1989      1    1.1005e+02    3.8802e+02 ;    H8S - C18    - C17   
  1989   1992   1993      1    1.1005e+02    3.8802e+02 ;    C17 - C16    - H6R   
  1989   1992   1994      1    1.1005e+02    3.8802e+02 ;    C17 - C16    - H6S   
  1989   1992   1995      1    1.1205e+02    3.9497e+02 ;    C17 - C16    - C15   
  1990   1989   1991      1    1.0835e+02    3.2995e+02 ;    H7R - C17    - H7S   
  1990   1989   1992      1    1.1005e+02    3.8802e+02 ;    H7R - C17    - C16   
  1991   1989   1992      1    1.1005e+02    3.8802e+02 ;    H7S - C17    - C16   
  1992   1995   1996      1    1.1005e+02    3.8802e+02 ;    C16 - C15    - H5R   
  1992   1995   1997      1    1.1005e+02    3.8802e+02 ;    C16 - C15    - H5S   
  1992   1995   1998      1    1.1205e+02    3.9497e+02 ;    C16 - C15    - C14   
  1993   1992   1994      1    1.0835e+02    3.2995e+02 ;    H6R - C16    - H6S   
  1993   1992   1995      1    1.1005e+02    3.8802e+02 ;    H6R - C16    - C15   
  1994   1992   1995      1    1.1005e+02    3.8802e+02 ;    H6S - C16    - C15   
  1995   1998   1999      1    1.1005e+02    3.8802e+02 ;    C15 - C14    - H4R   
  1995   1998   2000      1    1.1005e+02    3.8802e+02 ;    C15 - C14    - H4S   
  1995   1998   2001      1    1.1205e+02    3.9497e+02 ;    C15 - C14    - C13   
  1996   1995   1997      1    1.0835e+02    3.2995e+02 ;    H5R - C15    - H5S   
  1996   1995   1998      1    1.1005e+02    3.8802e+02 ;    H5R - C15    - C14   
  1997   1995   1998      1    1.1005e+02    3.8802e+02 ;    H5S - C15    - C14   
  1998   2001   2002      1    1.1005e+02    3.8802e+02 ;    C14 - C13    - H3R   
  1998   2001   2003      1    1.1005e+02    3.8802e+02 ;    C14 - C13    - H3S   
  1998   2001   2004      1    1.1205e+02    3.9497e+02 ;    C14 - C13    - C12   
  1999   1998   2000      1    1.0835e+02    3.2995e+02 ;    H4R - C14    - H4S   
  1999   1998   2001      1    1.1005e+02    3.8802e+02 ;    H4R - C14    - C13   
  2000   1998   2001      1    1.1005e+02    3.8802e+02 ;    H4S - C14    - C13   
  2001   2004   2005      1    1.1005e+02    3.8802e+02 ;    C13 - C12    - H2R   
  2001   2004   2006      1    1.1005e+02    3.8802e+02 ;    C13 - C12    - H2S   
  2002   2001   2003      1    1.0835e+02    3.2995e+02 ;    H3R - C13    - H3S   
  2002   2001   2004      1    1.1005e+02    3.8802e+02 ;    H3R - C13    - C12   
  2003   2001   2004      1    1.1005e+02    3.8802e+02 ;    H3S - C13    - C12   
  2005   2004   2006      1    1.0835e+02    3.2995e+02 ;    H2R - C12    - H2S   
  2007   2008   2009      1    1.0835e+02    3.2995e+02 ;   H14T - C114   - H14R  
  2007   2008   2010      1    1.0835e+02    3.2995e+02 ;   H14T - C114   - H14S  
  2007   2008   2011      1    1.1005e+02    3.8802e+02 ;   H14T - C114   - C113  
  2008   2011   2012      1    1.1005e+02    3.8802e+02 ;   C114 - C113   - H13R  
  2008   2011   2013      1    1.1005e+02    3.8802e+02 ;   C114 - C113   - H13S  
  2008   2011   2014      1    1.1205e+02    3.9497e+02 ;   C114 - C113   - C112  
  2009   2008   2010      1    1.0835e+02    3.2995e+02 ;   H14R - C114   - H14S  
  2009   2008   2011      1    1.1005e+02    3.8802e+02 ;   H14R - C114   - C113  
  2010   2008   2011      1    1.1005e+02    3.8802e+02 ;   H14S - C114   - C113  
  2011   2014   2015      1    1.1005e+02    3.8802e+02 ;   C113 - C112   - H12R  
  2011   2014   2016      1    1.1005e+02    3.8802e+02 ;   C113 - C112   - H12S  
  2011   2014   2017      1    1.1205e+02    3.9497e+02 ;   C113 - C112   - C111  
  2012   2011   2013      1    1.0835e+02    3.2995e+02 ;   H13R - C113   - H13S  
  2012   2011   2014      1    1.1005e+02    3.8802e+02 ;   H13R - C113   - C112  
  2013   2011   2014      1    1.1005e+02    3.8802e+02 ;   H13S - C113   - C112  
  2014   2017   2018      1    1.1005e+02    3.8802e+02 ;   C112 - C111   - H11R  
  2014   2017   2019      1    1.1005e+02    3.8802e+02 ;   C112 - C111   - H11S  
  2014   2017   2020      1    1.1205e+02    3.9497e+02 ;   C112 - C111   - C110  
  2015   2014   2016      1    1.0835e+02    3.2995e+02 ;   H12R - C112   - H12S  
  2015   2014   2017      1    1.1005e+02    3.8802e+02 ;   H12R - C112   - C111  
  2016   2014   2017      1    1.1005e+02    3.8802e+02 ;   H12S - C112   - C111  
  2017   2020   2021      1    1.1005e+02    3.8802e+02 ;   C111 - C110   - H10R  
  2017   2020   2022      1    1.1005e+02    3.8802e+02 ;   C111 - C110   - H10S  
  2017   2020   2023      1    1.1205e+02    3.9497e+02 ;   C111 - C110   - C19   
  2018   2017   2019      1    1.0835e+02    3.2995e+02 ;   H11R - C111   - H11S  
  2018   2017   2020      1    1.1005e+02    3.8802e+02 ;   H11R - C111   - C110  
  2019   2017   2020      1    1.1005e+02    3.8802e+02 ;   H11S - C111   - C110  
  2020   2023   2024      1    1.1005e+02    3.8802e+02 ;   C110 - C19    - H9R   
  2020   2023   2025      1    1.1005e+02    3.8802e+02 ;   C110 - C19    - H9S   
  2020   2023   2026      1    1.1205e+02    3.9497e+02 ;   C110 - C19    - C18   
  2021   2020   2022      1    1.0835e+02    3.2995e+02 ;   H10R - C110   - H10S  
  2021   2020   2023      1    1.1005e+02    3.8802e+02 ;   H10R - C110   - C19   
  2022   2020   2023      1    1.1005e+02    3.8802e+02 ;   H10S - C110   - C19   
  2023   2026   2027      1    1.1005e+02    3.8802e+02 ;    C19 - C18    - H8R   
  2023   2026   2028      1    1.1005e+02    3.8802e+02 ;    C19 - C18    - H8S   
  2023   2026   2029      1    1.1205e+02    3.9497e+02 ;    C19 - C18    - C17   
  2024   2023   2025      1    1.0835e+02    3.2995e+02 ;    H9R - C19    - H9S   
  2024   2023   2026      1    1.1005e+02    3.8802e+02 ;    H9R - C19    - C18   
  2025   2023   2026      1    1.1005e+02    3.8802e+02 ;    H9S - C19    - C18   
  2026   2029   2030      1    1.1005e+02    3.8802e+02 ;    C18 - C17    - H7R   
  2026   2029   2031      1    1.1005e+02    3.8802e+02 ;    C18 - C17    - H7S   
  2026   2029   2032      1    1.1205e+02    3.9497e+02 ;    C18 - C17    - C16   
  2027   2026   2028      1    1.0835e+02    3.2995e+02 ;    H8R - C18    - H8S   
  2027   2026   2029      1    1.1005e+02    3.8802e+02 ;    H8R - C18    - C17   
  2028   2026   2029      1    1.1005e+02    3.8802e+02 ;    H8S - C18    - C17   
  2029   2032   2033      1    1.1005e+02    3.8802e+02 ;    C17 - C16    - H6R   
  2029   2032   2034      1    1.1005e+02    3.8802e+02 ;    C17 - C16    - H6S   
  2029   2032   2035      1    1.1205e+02    3.9497e+02 ;    C17 - C16    - C15   
  2030   2029   2031      1    1.0835e+02    3.2995e+02 ;    H7R - C17    - H7S   
  2030   2029   2032      1    1.1005e+02    3.8802e+02 ;    H7R - C17    - C16   
  2031   2029   2032      1    1.1005e+02    3.8802e+02 ;    H7S - C17    - C16   
  2032   2035   2036      1    1.1005e+02    3.8802e+02 ;    C16 - C15    - H5R   
  2032   2035   2037      1    1.1005e+02    3.8802e+02 ;    C16 - C15    - H5S   
  2032   2035   2038      1    1.1205e+02    3.9497e+02 ;    C16 - C15    - C14   
  2033   2032   2034      1    1.0835e+02    3.2995e+02 ;    H6R - C16    - H6S   
  2033   2032   2035      1    1.1005e+02    3.8802e+02 ;    H6R - C16    - C15   
  2034   2032   2035      1    1.1005e+02    3.8802e+02 ;    H6S - C16    - C15   
  2035   2038   2039      1    1.1005e+02    3.8802e+02 ;    C15 - C14    - H4R   
  2035   2038   2040      1    1.1005e+02    3.8802e+02 ;    C15 - C14    - H4S   
  2035   2038   2041      1    1.1205e+02    3.9497e+02 ;    C15 - C14    - C13   
  2036   2035   2037      1    1.0835e+02    3.2995e+02 ;    H5R - C15    - H5S   
  2036   2035   2038      1    1.1005e+02    3.8802e+02 ;    H5R - C15    - C14   
  2037   2035   2038      1    1.1005e+02    3.8802e+02 ;    H5S - C15    - C14   
  2038   2041   2042      1    1.1005e+02    3.8802e+02 ;    C14 - C13    - H3R   
  2038   2041   2043      1    1.1005e+02    3.8802e+02 ;    C14 - C13    - H3S   
  2038   2041   2044      1    1.1205e+02    3.9497e+02 ;    C14 - C13    - C12   
  2039   2038   2040      1    1.0835e+02    3.2995e+02 ;    H4R - C14    - H4S   
  2039   2038   2041      1    1.1005e+02    3.8802e+02 ;    H4R - C14    - C13   
  2040   2038   2041      1    1.1005e+02    3.8802e+02 ;    H4S - C14    - C13   
  2041   2044   2045      1    1.1005e+02    3.8802e+02 ;    C13 - C12    - H2R   
  2041   2044   2046      1    1.1005e+02    3.8802e+02 ;    C13 - C12    - H2S   
  2041   2044   2047      1    1.1053e+02    5.3379e+02 ;    C13 - C12    - C11   
  2042   2041   2043      1    1.0835e+02    3.2995e+02 ;    H3R - C13    - H3S   
  2042   2041   2044      1    1.1005e+02    3.8802e+02 ;    H3R - C13    - C12   
  2043   2041   2044      1    1.1005e+02    3.8802e+02 ;    H3S - C13    - C12   
  2044   2047   2048      1    1.2311e+02    5.6928e+02 ;    C12 - C11    - O12   
  2044   2047   2049      1    1.1196e+02    5.7957e+02 ;    C12 - C11    - O11   
  2045   2044   2046      1    1.0835e+02    3.2995e+02 ;    H2R - C12    - H2S   
  2045   2044   2047      1    1.0968e+02    3.9497e+02 ;    H2R - C12    - C11   
  2046   2044   2047      1    1.0968e+02    3.9497e+02 ;    H2S - C12    - C11   
  2047   2049   2050      1    1.1514e+02    5.3246e+02 ;    C11 - O11    - C1    
  2048   2047   2049      1    1.2333e+02    6.3538e+02 ;    O12 - C11    - O11   
  2049   2050   2051      1    1.0882e+02    4.2543e+02 ;    O11 - C1     - HR    
  2049   2050   2052      1    1.0882e+02    4.2543e+02 ;    O11 - C1     - HS    
  2049   2050   2053      1    1.0842e+02    5.6718e+02 ;    O11 - C1     - C2    
  2050   2053   2054      1    1.1007e+02    3.8794e+02 ;     C1 - C2     - HX    
  2050   2053   2055      1    1.1063e+02    5.2894e+02 ;     C1 - C2     - C3    
  2050   2053   2082      1    1.0842e+02    5.6718e+02 ;     C1 - C2     - O21   
  2051   2050   2052      1    1.0955e+02    3.2786e+02 ;     HR - C1     - HS    
  2051   2050   2053      1    1.1007e+02    3.8794e+02 ;     HR - C1     - C2    
  2052   2050   2053      1    1.1007e+02    3.8794e+02 ;     HS - C1     - C2    
  2053   2055   2056      1    1.1007e+02    3.8794e+02 ;     C2 - C3     - HA    
  2053   2055   2057      1    1.1007e+02    3.8794e+02 ;     C2 - C3     - HB    
  2053   2055   2058      1    1.0842e+02    5.6718e+02 ;     C2 - C3     - O31   
  2053   2082   2083      1    1.1514e+02    5.3246e+02 ;     C2 - O21    - C21   
  2054   2053   2055      1    1.1007e+02    3.8794e+02 ;     HX - C2     - C3    
  2054   2053   2082      1    1.0882e+02    4.2543e+02 ;     HX - C2     - O21   
  2055   2053   2082      1    1.0842e+02    5.6718e+02 ;     C3 - C2     - O21   
  2055   2058   2059      1    1.2050e+02    8.3680e+02 ;     C3 - O31    - P31   
  2056   2055   2057      1    1.0955e+02    3.2786e+02 ;     HA - C3     - HB    
  2056   2055   2058      1    1.0882e+02    4.2543e+02 ;     HA - C3     - O31   
  2057   2055   2058      1    1.0882e+02    4.2543e+02 ;     HB - C3     - O31   
  2058   2059   2060      1    1.0260e+02    7.5312e+02 ;    O31 - P31    - O32   
  2058   2059   2080      1    1.0823e+02    8.3680e+02 ;    O31 - P31    - O33   
  2058   2059   2081      1    1.0823e+02    8.3680e+02 ;    O31 - P31    - O34   
  2059   2060   2061      1    1.2050e+02    8.3680e+02 ;    P31 - O32    - C31   
  2060   2059   2080      1    1.0823e+02    8.3680e+02 ;    O32 - P31    - O33   
  2060   2059   2081      1    1.0823e+02    8.3680e+02 ;    O32 - P31    - O34   
  2060   2061   2062      1    1.0882e+02    4.2543e+02 ;    O32 - C31    - H1A   
  2060   2061   2063      1    1.0882e+02    4.2543e+02 ;    O32 - C31    - H1B   
  2060   2061   2064      1    1.0842e+02    5.6718e+02 ;    O32 - C31    - C32   
  2061   2064   2065      1    1.1174e+02    3.8510e+02 ;    C31 - C32    - H2A   
  2061   2064   2066      1    1.1174e+02    3.8510e+02 ;    C31 - C32    - H2B   
  2061   2064   2067      1    1.1432e+02    5.3932e+02 ;    C31 - C32    - N31   
  2062   2061   2063      1    1.0955e+02    3.2786e+02 ;    H1A - C31    - H1B   
  2062   2061   2064      1    1.1007e+02    3.8794e+02 ;    H1A - C31    - C32   
  2063   2061   2064      1    1.1007e+02    3.8794e+02 ;    H1B - C31    - C32   
  2064   2067   2068      1    1.1064e+02    5.2585e+02 ;    C32 - N31    - C33   
  2064   2067   2072      1    1.1064e+02    5.2585e+02 ;    C32 - N31    - C34   
  2064   2067   2076      1    1.1064e+02    5.2585e+02 ;    C32 - N31    - C35   
  2065   2064   2066      1    1.1074e+02    3.2669e+02 ;    H2A - C32    - H2B   
  2065   2064   2067      1    1.0791e+02    4.1020e+02 ;    H2A - C32    - N31   
  2066   2064   2067      1    1.0791e+02    4.1020e+02 ;    H2B - C32    - N31   
  2067   2068   2069      1    1.0791e+02    4.1020e+02 ;    N31 - C33    - H3A   
  2067   2068   2070      1    1.0791e+02    4.1020e+02 ;    N31 - C33    - H3B   
  2067   2068   2071      1    1.0791e+02    4.1020e+02 ;    N31 - C33    - H3C   
  2067   2072   2073      1    1.0791e+02    4.1020e+02 ;    N31 - C34    - H4A   
  2067   2072   2074      1    1.0791e+02    4.1020e+02 ;    N31 - C34    - H4B   
  2067   2072   2075      1    1.0791e+02    4.1020e+02 ;    N31 - C34    - H4C   
  2067   2076   2077      1    1.0791e+02    4.1020e+02 ;    N31 - C35    - H5A   
  2067   2076   2078      1    1.0791e+02    4.1020e+02 ;    N31 - C35    - H5B   
  2067   2076   2079      1    1.0791e+02    4.1020e+02 ;    N31 - C35    - H5C   
  2068   2067   2072      1    1.1064e+02    5.2585e+02 ;    C33 - N31    - C34   
  2068   2067   2076      1    1.1064e+02    5.2585e+02 ;    C33 - N31    - C35   
  2069   2068   2070      1    1.1074e+02    3.2669e+02 ;    H3A - C33    - H3B   
  2069   2068   2071      1    1.1074e+02    3.2669e+02 ;    H3A - C33    - H3C   
  2070   2068   2071      1    1.1074e+02    3.2669e+02 ;    H3B - C33    - H3C   
  2072   2067   2076      1    1.1064e+02    5.2585e+02 ;    C34 - N31    - C35   
  2073   2072   2074      1    1.1074e+02    3.2669e+02 ;    H4A - C34    - H4B   
  2073   2072   2075      1    1.1074e+02    3.2669e+02 ;    H4A - C34    - H4C   
  2074   2072   2075      1    1.1074e+02    3.2669e+02 ;    H4B - C34    - H4C   
  2077   2076   2078      1    1.1074e+02    3.2669e+02 ;    H5A - C35    - H5B   
  2077   2076   2079      1    1.1074e+02    3.2669e+02 ;    H5A - C35    - H5C   
  2078   2076   2079      1    1.1074e+02    3.2669e+02 ;    H5B - C35    - H5C   
  2080   2059   2081      1    1.1990e+02    1.1715e+03 ;    O33 - P31    - O34   
  2082   2083   2084      1    1.2333e+02    6.3538e+02 ;    O21 - C21    - O22   
  2082   2083   2122      1    1.1196e+02    5.7957e+02 ;    O21 - C21    - C12   
  2083   2122   2119      1    1.1053e+02    5.3379e+02 ;    C21 - C12    - C13   
  2083   2122   2123      1    1.0968e+02    3.9497e+02 ;    C21 - C12    - H2R   
  2083   2122   2124      1    1.0968e+02    3.9497e+02 ;    C21 - C12    - H2S   
  2084   2083   2122      1    1.2311e+02    5.6928e+02 ;    O22 - C21    - C12   
  2085   2086   2087      1    1.0835e+02    3.2995e+02 ;   H14T - C114   - H14R  
  2085   2086   2088      1    1.0835e+02    3.2995e+02 ;   H14T - C114   - H14S  
  2085   2086   2089      1    1.1005e+02    3.8802e+02 ;   H14T - C114   - C113  
  2086   2089   2090      1    1.1005e+02    3.8802e+02 ;   C114 - C113   - H13R  
  2086   2089   2091      1    1.1005e+02    3.8802e+02 ;   C114 - C113   - H13S  
  2086   2089   2092      1    1.1205e+02    3.9497e+02 ;   C114 - C113   - C112  
  2087   2086   2088      1    1.0835e+02    3.2995e+02 ;   H14R - C114   - H14S  
  2087   2086   2089      1    1.1005e+02    3.8802e+02 ;   H14R - C114   - C113  
  2088   2086   2089      1    1.1005e+02    3.8802e+02 ;   H14S - C114   - C113  
  2089   2092   2093      1    1.1005e+02    3.8802e+02 ;   C113 - C112   - H12R  
  2089   2092   2094      1    1.1005e+02    3.8802e+02 ;   C113 - C112   - H12S  
  2089   2092   2095      1    1.1205e+02    3.9497e+02 ;   C113 - C112   - C111  
  2090   2089   2091      1    1.0835e+02    3.2995e+02 ;   H13R - C113   - H13S  
  2090   2089   2092      1    1.1005e+02    3.8802e+02 ;   H13R - C113   - C112  
  2091   2089   2092      1    1.1005e+02    3.8802e+02 ;   H13S - C113   - C112  
  2092   2095   2096      1    1.1005e+02    3.8802e+02 ;   C112 - C111   - H11R  
  2092   2095   2097      1    1.1005e+02    3.8802e+02 ;   C112 - C111   - H11S  
  2092   2095   2098      1    1.1205e+02    3.9497e+02 ;   C112 - C111   - C110  
  2093   2092   2094      1    1.0835e+02    3.2995e+02 ;   H12R - C112   - H12S  
  2093   2092   2095      1    1.1005e+02    3.8802e+02 ;   H12R - C112   - C111  
  2094   2092   2095      1    1.1005e+02    3.8802e+02 ;   H12S - C112   - C111  
  2095   2098   2099      1    1.1005e+02    3.8802e+02 ;   C111 - C110   - H10R  
  2095   2098   2100      1    1.1005e+02    3.8802e+02 ;   C111 - C110   - H10S  
  2095   2098   2101      1    1.1205e+02    3.9497e+02 ;   C111 - C110   - C19   
  2096   2095   2097      1    1.0835e+02    3.2995e+02 ;   H11R - C111   - H11S  
  2096   2095   2098      1    1.1005e+02    3.8802e+02 ;   H11R - C111   - C110  
  2097   2095   2098      1    1.1005e+02    3.8802e+02 ;   H11S - C111   - C110  
  2098   2101   2102      1    1.1005e+02    3.8802e+02 ;   C110 - C19    - H9R   
  2098   2101   2103      1    1.1005e+02    3.8802e+02 ;   C110 - C19    - H9S   
  2098   2101   2104      1    1.1205e+02    3.9497e+02 ;   C110 - C19    - C18   
  2099   2098   2100      1    1.0835e+02    3.2995e+02 ;   H10R - C110   - H10S  
  2099   2098   2101      1    1.1005e+02    3.8802e+02 ;   H10R - C110   - C19   
  2100   2098   2101      1    1.1005e+02    3.8802e+02 ;   H10S - C110   - C19   
  2101   2104   2105      1    1.1005e+02    3.8802e+02 ;    C19 - C18    - H8R   
  2101   2104   2106      1    1.1005e+02    3.8802e+02 ;    C19 - C18    - H8S   
  2101   2104   2107      1    1.1205e+02    3.9497e+02 ;    C19 - C18    - C17   
  2102   2101   2103      1    1.0835e+02    3.2995e+02 ;    H9R - C19    - H9S   
  2102   2101   2104      1    1.1005e+02    3.8802e+02 ;    H9R - C19    - C18   
  2103   2101   2104      1    1.1005e+02    3.8802e+02 ;    H9S - C19    - C18   
  2104   2107   2108      1    1.1005e+02    3.8802e+02 ;    C18 - C17    - H7R   
  2104   2107   2109      1    1.1005e+02    3.8802e+02 ;    C18 - C17    - H7S   
  2104   2107   2110      1    1.1205e+02    3.9497e+02 ;    C18 - C17    - C16   
  2105   2104   2106      1    1.0835e+02    3.2995e+02 ;    H8R - C18    - H8S   
  2105   2104   2107      1    1.1005e+02    3.8802e+02 ;    H8R - C18    - C17   
  2106   2104   2107      1    1.1005e+02    3.8802e+02 ;    H8S - C18    - C17   
  2107   2110   2111      1    1.1005e+02    3.8802e+02 ;    C17 - C16    - H6R   
  2107   2110   2112      1    1.1005e+02    3.8802e+02 ;    C17 - C16    - H6S   
  2107   2110   2113      1    1.1205e+02    3.9497e+02 ;    C17 - C16    - C15   
  2108   2107   2109      1    1.0835e+02    3.2995e+02 ;    H7R - C17    - H7S   
  2108   2107   2110      1    1.1005e+02    3.8802e+02 ;    H7R - C17    - C16   
  2109   2107   2110      1    1.1005e+02    3.8802e+02 ;    H7S - C17    - C16   
  2110   2113   2114      1    1.1005e+02    3.8802e+02 ;    C16 - C15    - H5R   
  2110   2113   2115      1    1.1005e+02    3.8802e+02 ;    C16 - C15    - H5S   
  2110   2113   2116      1    1.1205e+02    3.9497e+02 ;    C16 - C15    - C14   
  2111   2110   2112      1    1.0835e+02    3.2995e+02 ;    H6R - C16    - H6S   
  2111   2110   2113      1    1.1005e+02    3.8802e+02 ;    H6R - C16    - C15   
  2112   2110   2113      1    1.1005e+02    3.8802e+02 ;    H6S - C16    - C15   
  2113   2116   2117      1    1.1005e+02    3.8802e+02 ;    C15 - C14    - H4R   
  2113   2116   2118      1    1.1005e+02    3.8802e+02 ;    C15 - C14    - H4S   
  2113   2116   2119      1    1.1205e+02    3.9497e+02 ;    C15 - C14    - C13   
  2114   2113   2115      1    1.0835e+02    3.2995e+02 ;    H5R - C15    - H5S   
  2114   2113   2116      1    1.1005e+02    3.8802e+02 ;    H5R - C15    - C14   
  2115   2113   2116      1    1.1005e+02    3.8802e+02 ;    H5S - C15    - C14   
  2116   2119   2120      1    1.1005e+02    3.8802e+02 ;    C14 - C13    - H3R   
  2116   2119   2121      1    1.1005e+02    3.8802e+02 ;    C14 - C13    - H3S   
  2116   2119   2122      1    1.1205e+02    3.9497e+02 ;    C14 - C13    - C12   
  2117   2116   2118      1    1.0835e+02    3.2995e+02 ;    H4R - C14    - H4S   
  2117   2116   2119      1    1.1005e+02    3.8802e+02 ;    H4R - C14    - C13   
  2118   2116   2119      1    1.1005e+02    3.8802e+02 ;    H4S - C14    - C13   
  2119   2122   2123      1    1.1005e+02    3.8802e+02 ;    C13 - C12    - H2R   
  2119   2122   2124      1    1.1005e+02    3.8802e+02 ;    C13 - C12    - H2S   
  2120   2119   2121      1    1.0835e+02    3.2995e+02 ;    H3R - C13    - H3S   
  2120   2119   2122      1    1.1005e+02    3.8802e+02 ;    H3R - C13    - C12   
  2121   2119   2122      1    1.1005e+02    3.8802e+02 ;    H3S - C13    - C12   
  2123   2122   2124      1    1.0835e+02    3.2995e+02 ;    H2R - C12    - H2S   
  2125   2126   2127      1    1.0835e+02    3.2995e+02 ;   H14T - C114   - H14R  
  2125   2126   2128      1    1.0835e+02    3.2995e+02 ;   H14T - C114   - H14S  
  2125   2126   2129      1    1.1005e+02    3.8802e+02 ;   H14T - C114   - C113  
  2126   2129   2130      1    1.1005e+02    3.8802e+02 ;   C114 - C113   - H13R  
  2126   2129   2131      1    1.1005e+02    3.8802e+02 ;   C114 - C113   - H13S  
  2126   2129   2132      1    1.1205e+02    3.9497e+02 ;   C114 - C113   - C112  
  2127   2126   2128      1    1.0835e+02    3.2995e+02 ;   H14R - C114   - H14S  
  2127   2126   2129      1    1.1005e+02    3.8802e+02 ;   H14R - C114   - C113  
  2128   2126   2129      1    1.1005e+02    3.8802e+02 ;   H14S - C114   - C113  
  2129   2132   2133      1    1.1005e+02    3.8802e+02 ;   C113 - C112   - H12R  
  2129   2132   2134      1    1.1005e+02    3.8802e+02 ;   C113 - C112   - H12S  
  2129   2132   2135      1    1.1205e+02    3.9497e+02 ;   C113 - C112   - C111  
  2130   2129   2131      1    1.0835e+02    3.2995e+02 ;   H13R - C113   - H13S  
  2130   2129   2132      1    1.1005e+02    3.8802e+02 ;   H13R - C113   - C112  
  2131   2129   2132      1    1.1005e+02    3.8802e+02 ;   H13S - C113   - C112  
  2132   2135   2136      1    1.1005e+02    3.8802e+02 ;   C112 - C111   - H11R  
  2132   2135   2137      1    1.1005e+02    3.8802e+02 ;   C112 - C111   - H11S  
  2132   2135   2138      1    1.1205e+02    3.9497e+02 ;   C112 - C111   - C110  
  2133   2132   2134      1    1.0835e+02    3.2995e+02 ;   H12R - C112   - H12S  
  2133   2132   2135      1    1.1005e+02    3.8802e+02 ;   H12R - C112   - C111  
  2134   2132   2135      1    1.1005e+02    3.8802e+02 ;   H12S - C112   - C111  
  2135   2138   2139      1    1.1005e+02    3.8802e+02 ;   C111 - C110   - H10R  
  2135   2138   2140      1    1.1005e+02    3.8802e+02 ;   C111 - C110   - H10S  
  2135   2138   2141      1    1.1205e+02    3.9497e+02 ;   C111 - C110   - C19   
  2136   2135   2137      1    1.0835e+02    3.2995e+02 ;   H11R - C111   - H11S  
  2136   2135   2138      1    1.1005e+02    3.8802e+02 ;   H11R - C111   - C110  
  2137   2135   2138      1    1.1005e+02    3.8802e+02 ;   H11S - C111   - C110  
  2138   2141   2142      1    1.1005e+02    3.8802e+02 ;   C110 - C19    - H9R   
  2138   2141   2143      1    1.1005e+02    3.8802e+02 ;   C110 - C19    - H9S   
  2138   2141   2144      1    1.1205e+02    3.9497e+02 ;   C110 - C19    - C18   
  2139   2138   2140      1    1.0835e+02    3.2995e+02 ;   H10R - C110   - H10S  
  2139   2138   2141      1    1.1005e+02    3.8802e+02 ;   H10R - C110   - C19   
  2140   2138   2141      1    1.1005e+02    3.8802e+02 ;   H10S - C110   - C19   
  2141   2144   2145      1    1.1005e+02    3.8802e+02 ;    C19 - C18    - H8R   
  2141   2144   2146      1    1.1005e+02    3.8802e+02 ;    C19 - C18    - H8S   
  2141   2144   2147      1    1.1205e+02    3.9497e+02 ;    C19 - C18    - C17   
  2142   2141   2143      1    1.0835e+02    3.2995e+02 ;    H9R - C19    - H9S   
  2142   2141   2144      1    1.1005e+02    3.8802e+02 ;    H9R - C19    - C18   
  2143   2141   2144      1    1.1005e+02    3.8802e+02 ;    H9S - C19    - C18   
  2144   2147   2148      1    1.1005e+02    3.8802e+02 ;    C18 - C17    - H7R   
  2144   2147   2149      1    1.1005e+02    3.8802e+02 ;    C18 - C17    - H7S   
  2144   2147   2150      1    1.1205e+02    3.9497e+02 ;    C18 - C17    - C16   
  2145   2144   2146      1    1.0835e+02    3.2995e+02 ;    H8R - C18    - H8S   
  2145   2144   2147      1    1.1005e+02    3.8802e+02 ;    H8R - C18    - C17   
  2146   2144   2147      1    1.1005e+02    3.8802e+02 ;    H8S - C18    - C17   
  2147   2150   2151      1    1.1005e+02    3.8802e+02 ;    C17 - C16    - H6R   
  2147   2150   2152      1    1.1005e+02    3.8802e+02 ;    C17 - C16    - H6S   
  2147   2150   2153      1    1.1205e+02    3.9497e+02 ;    C17 - C16    - C15   
  2148   2147   2149      1    1.0835e+02    3.2995e+02 ;    H7R - C17    - H7S   
  2148   2147   2150      1    1.1005e+02    3.8802e+02 ;    H7R - C17    - C16   
  2149   2147   2150      1    1.1005e+02    3.8802e+02 ;    H7S - C17    - C16   
  2150   2153   2154      1    1.1005e+02    3.8802e+02 ;    C16 - C15    - H5R   
  2150   2153   2155      1    1.1005e+02    3.8802e+02 ;    C16 - C15    - H5S   
  2150   2153   2156      1    1.1205e+02    3.9497e+02 ;    C16 - C15    - C14   
  2151   2150   2152      1    1.0835e+02    3.2995e+02 ;    H6R - C16    - H6S   
  2151   2150   2153      1    1.1005e+02    3.8802e+02 ;    H6R - C16    - C15   
  2152   2150   2153      1    1.1005e+02    3.8802e+02 ;    H6S - C16    - C15   
  2153   2156   2157      1    1.1005e+02    3.8802e+02 ;    C15 - C14    - H4R   
  2153   2156   2158      1    1.1005e+02    3.8802e+02 ;    C15 - C14    - H4S   
  2153   2156   2159      1    1.1205e+02    3.9497e+02 ;    C15 - C14    - C13   
  2154   2153   2155      1    1.0835e+02    3.2995e+02 ;    H5R - C15    - H5S   
  2154   2153   2156      1    1.1005e+02    3.8802e+02 ;    H5R - C15    - C14   
  2155   2153   2156      1    1.1005e+02    3.8802e+02 ;    H5S - C15    - C14   
  2156   2159   2160      1    1.1005e+02    3.8802e+02 ;    C14 - C13    - H3R   
  2156   2159   2161      1    1.1005e+02    3.8802e+02 ;    C14 - C13    - H3S   
  2156   2159   2162      1    1.1205e+02    3.9497e+02 ;    C14 - C13    - C12   
  2157   2156   2158      1    1.0835e+02    3.2995e+02 ;    H4R - C14    - H4S   
  2157   2156   2159      1    1.1005e+02    3.8802e+02 ;    H4R - C14    - C13   
  2158   2156   2159      1    1.1005e+02    3.8802e+02 ;    H4S - C14    - C13   
  2159   2162   2163      1    1.1005e+02    3.8802e+02 ;    C13 - C12    - H2R   
  2159   2162   2164      1    1.1005e+02    3.8802e+02 ;    C13 - C12    - H2S   
  2159   2162   2165      1    1.1053e+02    5.3379e+02 ;    C13 - C12    - C11   
  2160   2159   2161      1    1.0835e+02    3.2995e+02 ;    H3R - C13    - H3S   
  2160   2159   2162      1    1.1005e+02    3.8802e+02 ;    H3R - C13    - C12   
  2161   2159   2162      1    1.1005e+02    3.8802e+02 ;    H3S - C13    - C12   
  2162   2165   2166      1    1.2311e+02    5.6928e+02 ;    C12 - C11    - O12   
  2162   2165   2167      1    1.1196e+02    5.7957e+02 ;    C12 - C11    - O11   
  2163   2162   2164      1    1.0835e+02    3.2995e+02 ;    H2R - C12    - H2S   
  2163   2162   2165      1    1.0968e+02    3.9497e+02 ;    H2R - C12    - C11   
  2164   2162   2165      1    1.0968e+02    3.9497e+02 ;    H2S - C12    - C11   
  2165   2167   2168      1    1.1514e+02    5.3246e+02 ;    C11 - O11    - C1    
  2166   2165   2167      1    1.2333e+02    6.3538e+02 ;    O12 - C11    - O11   
  2167   2168   2169      1    1.0882e+02    4.2543e+02 ;    O11 - C1     - HR    
  2167   2168   2170      1    1.0882e+02    4.2543e+02 ;    O11 - C1     - HS    
  2167   2168   2171      1    1.0842e+02    5.6718e+02 ;    O11 - C1     - C2    
  2168   2171   2172      1    1.1007e+02    3.8794e+02 ;     C1 - C2     - HX    
  2168   2171   2173      1    1.1063e+02    5.2894e+02 ;     C1 - C2     - C3    
  2168   2171   2200      1    1.0842e+02    5.6718e+02 ;     C1 - C2     - O21   
  2169   2168   2170      1    1.0955e+02    3.2786e+02 ;     HR - C1     - HS    
  2169   2168   2171      1    1.1007e+02    3.8794e+02 ;     HR - C1     - C2    
  2170   2168   2171      1    1.1007e+02    3.8794e+02 ;     HS - C1     - C2    
  2171   2173   2174      1    1.1007e+02    3.8794e+02 ;     C2 - C3     - HA    
  2171   2173   2175      1    1.1007e+02    3.8794e+02 ;     C2 - C3     - HB    
  2171   2173   2176      1    1.0842e+02    5.6718e+02 ;     C2 - C3     - O31   
  2171   2200   2201      1    1.1514e+02    5.3246e+02 ;     C2 - O21    - C21   
  2172   2171   2173      1    1.1007e+02    3.8794e+02 ;     HX - C2     - C3    
  2172   2171   2200      1    1.0882e+02    4.2543e+02 ;     HX - C2     - O21   
  2173   2171   2200      1    1.0842e+02    5.6718e+02 ;     C3 - C2     - O21   
  2173   2176   2177      1    1.2050e+02    8.3680e+02 ;     C3 - O31    - P31   
  2174   2173   2175      1    1.0955e+02    3.2786e+02 ;     HA - C3     - HB    
  2174   2173   2176      1    1.0882e+02    4.2543e+02 ;     HA - C3     - O31   
  2175   2173   2176      1    1.0882e+02    4.2543e+02 ;     HB - C3     - O31   
  2176   2177   2178      1    1.0260e+02    7.5312e+02 ;    O31 - P31    - O32   
  2176   2177   2198      1    1.0823e+02    8.3680e+02 ;    O31 - P31    - O33   
  2176   2177   2199      1    1.0823e+02    8.3680e+02 ;    O31 - P31    - O34   
  2177   2178   2179      1    1.2050e+02    8.3680e+02 ;    P31 - O32    - C31   
  2178   2177   2198      1    1.0823e+02    8.3680e+02 ;    O32 - P31    - O33   
  2178   2177   2199      1    1.0823e+02    8.3680e+02 ;    O32 - P31    - O34   
  2178   2179   2180      1    1.0882e+02    4.2543e+02 ;    O32 - C31    - H1A   
  2178   2179   2181      1    1.0882e+02    4.2543e+02 ;    O32 - C31    - H1B   
  2178   2179   2182      1    1.0842e+02    5.6718e+02 ;    O32 - C31    - C32   
  2179   2182   2183      1    1.1174e+02    3.8510e+02 ;    C31 - C32    - H2A   
  2179   2182   2184      1    1.1174e+02    3.8510e+02 ;    C31 - C32    - H2B   
  2179   2182   2185      1    1.1432e+02    5.3932e+02 ;    C31 - C32    - N31   
  2180   2179   2181      1    1.0955e+02    3.2786e+02 ;    H1A - C31    - H1B   
  2180   2179   2182      1    1.1007e+02    3.8794e+02 ;    H1A - C31    - C32   
  2181   2179   2182      1    1.1007e+02    3.8794e+02 ;    H1B - C31    - C32   
  2182   2185   2186      1    1.1064e+02    5.2585e+02 ;    C32 - N31    - C33   
  2182   2185   2190      1    1.1064e+02    5.2585e+02 ;    C32 - N31    - C34   
  2182   2185   2194      1    1.1064e+02    5.2585e+02 ;    C32 - N31    - C35   
  2183   2182   2184      1    1.1074e+02    3.2669e+02 ;    H2A - C32    - H2B   
  2183   2182   2185      1    1.0791e+02    4.1020e+02 ;    H2A - C32    - N31   
  2184   2182   2185      1    1.0791e+02    4.1020e+02 ;    H2B - C32    - N31   
  2185   2186   2187      1    1.0791e+02    4.1020e+02 ;    N31 - C33    - H3A   
  2185   2186   2188      1    1.0791e+02    4.1020e+02 ;    N31 - C33    - H3B   
  2185   2186   2189      1    1.0791e+02    4.1020e+02 ;    N31 - C33    - H3C   
  2185   2190   2191      1    1.0791e+02    4.1020e+02 ;    N31 - C34    - H4A   
  2185   2190   2192      1    1.0791e+02    4.1020e+02 ;    N31 - C34    - H4B   
  2185   2190   2193      1    1.0791e+02    4.1020e+02 ;    N31 - C34    - H4C   
  2185   2194   2195      1    1.0791e+02    4.1020e+02 ;    N31 - C35    - H5A   
  2185   2194   2196      1    1.0791e+02    4.1020e+02 ;    N31 - C35    - H5B   
  2185   2194   2197      1    1.0791e+02    4.1020e+02 ;    N31 - C35    - H5C   
  2186   2185   2190      1    1.1064e+02    5.2585e+02 ;    C33 - N31    - C34   
  2186   2185   2194      1    1.1064e+02    5.2585e+02 ;    C33 - N31    - C35   
  2187   2186   2188      1    1.1074e+02    3.2669e+02 ;    H3A - C33    - H3B   
  2187   2186   2189      1    1.1074e+02    3.2669e+02 ;    H3A - C33    - H3C   
  2188   2186   2189      1    1.1074e+02    3.2669e+02 ;    H3B - C33    - H3C   
  2190   2185   2194      1    1.1064e+02    5.2585e+02 ;    C34 - N31    - C35   
  2191   2190   2192      1    1.1074e+02    3.2669e+02 ;    H4A - C34    - H4B   
  2191   2190   2193      1    1.1074e+02    3.2669e+02 ;    H4A - C34    - H4C   
  2192   2190   2193      1    1.1074e+02    3.2669e+02 ;    H4B - C34    - H4C   
  2195   2194   2196      1    1.1074e+02    3.2669e+02 ;    H5A - C35    - H5B   
  2195   2194   2197      1    1.1074e+02    3.2669e+02 ;    H5A - C35    - H5C   
  2196   2194   2197      1    1.1074e+02    3.2669e+02 ;    H5B - C35    - H5C   
  2198   2177   2199      1    1.1990e+02    1.1715e+03 ;    O33 - P31    - O34   
  2200   2201   2202      1    1.2333e+02    6.3538e+02 ;    O21 - C21    - O22   
  2200   2201   2240      1    1.1196e+02    5.7957e+02 ;    O21 - C21    - C12   
  2201   2240   2237      1    1.1053e+02    5.3379e+02 ;    C21 - C12    - C13   
  2201   2240   2241      1    1.0968e+02    3.9497e+02 ;    C21 - C12    - H2R   
  2201   2240   2242      1    1.0968e+02    3.9497e+02 ;    C21 - C12    - H2S   
  2202   2201   2240      1    1.2311e+02    5.6928e+02 ;    O22 - C21    - C12   
  2203   2204   2205      1    1.0835e+02    3.2995e+02 ;   H14T - C114   - H14R  
  2203   2204   2206      1    1.0835e+02    3.2995e+02 ;   H14T - C114   - H14S  
  2203   2204   2207      1    1.1005e+02    3.8802e+02 ;   H14T - C114   - C113  
  2204   2207   2208      1    1.1005e+02    3.8802e+02 ;   C114 - C113   - H13R  
  2204   2207   2209      1    1.1005e+02    3.8802e+02 ;   C114 - C113   - H13S  
  2204   2207   2210      1    1.1205e+02    3.9497e+02 ;   C114 - C113   - C112  
  2205   2204   2206      1    1.0835e+02    3.2995e+02 ;   H14R - C114   - H14S  
  2205   2204   2207      1    1.1005e+02    3.8802e+02 ;   H14R - C114   - C113  
  2206   2204   2207      1    1.1005e+02    3.8802e+02 ;   H14S - C114   - C113  
  2207   2210   2211      1    1.1005e+02    3.8802e+02 ;   C113 - C112   - H12R  
  2207   2210   2212      1    1.1005e+02    3.8802e+02 ;   C113 - C112   - H12S  
  2207   2210   2213      1    1.1205e+02    3.9497e+02 ;   C113 - C112   - C111  
  2208   2207   2209      1    1.0835e+02    3.2995e+02 ;   H13R - C113   - H13S  
  2208   2207   2210      1    1.1005e+02    3.8802e+02 ;   H13R - C113   - C112  
  2209   2207   2210      1    1.1005e+02    3.8802e+02 ;   H13S - C113   - C112  
  2210   2213   2214      1    1.1005e+02    3.8802e+02 ;   C112 - C111   - H11R  
  2210   2213   2215      1    1.1005e+02    3.8802e+02 ;   C112 - C111   - H11S  
  2210   2213   2216      1    1.1205e+02    3.9497e+02 ;   C112 - C111   - C110  
  2211   2210   2212      1    1.0835e+02    3.2995e+02 ;   H12R - C112   - H12S  
  2211   2210   2213      1    1.1005e+02    3.8802e+02 ;   H12R - C112   - C111  
  2212   2210   2213      1    1.1005e+02    3.8802e+02 ;   H12S - C112   - C111  
  2213   2216   2217      1    1.1005e+02    3.8802e+02 ;   C111 - C110   - H10R  
  2213   2216   2218      1    1.1005e+02    3.8802e+02 ;   C111 - C110   - H10S  
  2213   2216   2219      1    1.1205e+02    3.9497e+02 ;   C111 - C110   - C19   
  2214   2213   2215      1    1.0835e+02    3.2995e+02 ;   H11R - C111   - H11S  
  2214   2213   2216      1    1.1005e+02    3.8802e+02 ;   H11R - C111   - C110  
  2215   2213   2216      1    1.1005e+02    3.8802e+02 ;   H11S - C111   - C110  
  2216   2219   2220      1    1.1005e+02    3.8802e+02 ;   C110 - C19    - H9R   
  2216   2219   2221      1    1.1005e+02    3.8802e+02 ;   C110 - C19    - H9S   
  2216   2219   2222      1    1.1205e+02    3.9497e+02 ;   C110 - C19    - C18   
  2217   2216   2218      1    1.0835e+02    3.2995e+02 ;   H10R - C110   - H10S  
  2217   2216   2219      1    1.1005e+02    3.8802e+02 ;   H10R - C110   - C19   
  2218   2216   2219      1    1.1005e+02    3.8802e+02 ;   H10S - C110   - C19   
  2219   2222   2223      1    1.1005e+02    3.8802e+02 ;    C19 - C18    - H8R   
  2219   2222   2224      1    1.1005e+02    3.8802e+02 ;    C19 - C18    - H8S   
  2219   2222   2225      1    1.1205e+02    3.9497e+02 ;    C19 - C18    - C17   
  2220   2219   2221      1    1.0835e+02    3.2995e+02 ;    H9R - C19    - H9S   
  2220   2219   2222      1    1.1005e+02    3.8802e+02 ;    H9R - C19    - C18   
  2221   2219   2222      1    1.1005e+02    3.8802e+02 ;    H9S - C19    - C18   
  2222   2225   2226      1    1.1005e+02    3.8802e+02 ;    C18 - C17    - H7R   
  2222   2225   2227      1    1.1005e+02    3.8802e+02 ;    C18 - C17    - H7S   
  2222   2225   2228      1    1.1205e+02    3.9497e+02 ;    C18 - C17    - C16   
  2223   2222   2224      1    1.0835e+02    3.2995e+02 ;    H8R - C18    - H8S   
  2223   2222   2225      1    1.1005e+02    3.8802e+02 ;    H8R - C18    - C17   
  2224   2222   2225      1    1.1005e+02    3.8802e+02 ;    H8S - C18    - C17   
  2225   2228   2229      1    1.1005e+02    3.8802e+02 ;    C17 - C16    - H6R   
  2225   2228   2230      1    1.1005e+02    3.8802e+02 ;    C17 - C16    - H6S   
  2225   2228   2231      1    1.1205e+02    3.9497e+02 ;    C17 - C16    - C15   
  2226   2225   2227      1    1.0835e+02    3.2995e+02 ;    H7R - C17    - H7S   
  2226   2225   2228      1    1.1005e+02    3.8802e+02 ;    H7R - C17    - C16   
  2227   2225   2228      1    1.1005e+02    3.8802e+02 ;    H7S - C17    - C16   
  2228   2231   2232      1    1.1005e+02    3.8802e+02 ;    C16 - C15    - H5R   
  2228   2231   2233      1    1.1005e+02    3.8802e+02 ;    C16 - C15    - H5S   
  2228   2231   2234      1    1.1205e+02    3.9497e+02 ;    C16 - C15    - C14   
  2229   2228   2230      1    1.0835e+02    3.2995e+02 ;    H6R - C16    - H6S   
  2229   2228   2231      1    1.1005e+02    3.8802e+02 ;    H6R - C16    - C15   
  2230   2228   2231      1    1.1005e+02    3.8802e+02 ;    H6S - C16    - C15   
  2231   2234   2235      1    1.1005e+02    3.8802e+02 ;    C15 - C14    - H4R   
  2231   2234   2236      1    1.1005e+02    3.8802e+02 ;    C15 - C14    - H4S   
  2231   2234   2237      1    1.1205e+02    3.9497e+02 ;    C15 - C14    - C13   
  2232   2231   2233      1    1.0835e+02    3.2995e+02 ;    H5R - C15    - H5S   
  2232   2231   2234      1    1.1005e+02    3.8802e+02 ;    H5R - C15    - C14   
  2233   2231   2234      1    1.1005e+02    3.8802e+02 ;    H5S - C15    - C14   
  2234   2237   2238      1    1.1005e+02    3.8802e+02 ;    C14 - C13    - H3R   
  2234   2237   2239      1    1.1005e+02    3.8802e+02 ;    C14 - C13    - H3S   
  2234   2237   2240      1    1.1205e+02    3.9497e+02 ;    C14 - C13    - C12   
  2235   2234   2236      1    1.0835e+02    3.2995e+02 ;    H4R - C14    - H4S   
  2235   2234   2237      1    1.1005e+02    3.8802e+02 ;    H4R - C14    - C13   
  2236   2234   2237      1    1.1005e+02    3.8802e+02 ;    H4S - C14    - C13   
  2237   2240   2241      1    1.1005e+02    3.8802e+02 ;    C13 - C12    - H2R   
  2237   2240   2242      1    1.1005e+02    3.8802e+02 ;    C13 - C12    - H2S   
  2238   2237   2239      1    1.0835e+02    3.2995e+02 ;    H3R - C13    - H3S   
  2238   2237   2240      1    1.1005e+02    3.8802e+02 ;    H3R - C13    - C12   
  2239   2237   2240      1    1.1005e+02    3.8802e+02 ;    H3S - C13    - C12   
  2241   2240   2242      1    1.0835e+02    3.2995e+02 ;    H2R - C12    - H2S   
  2243   2244   2245      1    1.0835e+02    3.2995e+02 ;   H14T - C114   - H14R  
  2243   2244   2246      1    1.0835e+02    3.2995e+02 ;   H14T - C114   - H14S  
  2243   2244   2247      1    1.1005e+02    3.8802e+02 ;   H14T - C114   - C113  
  2244   2247   2248      1    1.1005e+02    3.8802e+02 ;   C114 - C113   - H13R  
  2244   2247   2249      1    1.1005e+02    3.8802e+02 ;   C114 - C113   - H13S  
  2244   2247   2250      1    1.1205e+02    3.9497e+02 ;   C114 - C113   - C112  
  2245   2244   2246      1    1.0835e+02    3.2995e+02 ;   H14R - C114   - H14S  
  2245   2244   2247      1    1.1005e+02    3.8802e+02 ;   H14R - C114   - C113  
  2246   2244   2247      1    1.1005e+02    3.8802e+02 ;   H14S - C114   - C113  
  2247   2250   2251      1    1.1005e+02    3.8802e+02 ;   C113 - C112   - H12R  
  2247   2250   2252      1    1.1005e+02    3.8802e+02 ;   C113 - C112   - H12S  
  2247   2250   2253      1    1.1205e+02    3.9497e+02 ;   C113 - C112   - C111  
  2248   2247   2249      1    1.0835e+02    3.2995e+02 ;   H13R - C113   - H13S  
  2248   2247   2250      1    1.1005e+02    3.8802e+02 ;   H13R - C113   - C112  
  2249   2247   2250      1    1.1005e+02    3.8802e+02 ;   H13S - C113   - C112  
  2250   2253   2254      1    1.1005e+02    3.8802e+02 ;   C112 - C111   - H11R  
  2250   2253   2255      1    1.1005e+02    3.8802e+02 ;   C112 - C111   - H11S  
  2250   2253   2256      1    1.1205e+02    3.9497e+02 ;   C112 - C111   - C110  
  2251   2250   2252      1    1.0835e+02    3.2995e+02 ;   H12R - C112   - H12S  
  2251   2250   2253      1    1.1005e+02    3.8802e+02 ;   H12R - C112   - C111  
  2252   2250   2253      1    1.1005e+02    3.8802e+02 ;   H12S - C112   - C111  
  2253   2256   2257      1    1.1005e+02    3.8802e+02 ;   C111 - C110   - H10R  
  2253   2256   2258      1    1.1005e+02    3.8802e+02 ;   C111 - C110   - H10S  
  2253   2256   2259      1    1.1205e+02    3.9497e+02 ;   C111 - C110   - C19   
  2254   2253   2255      1    1.0835e+02    3.2995e+02 ;   H11R - C111   - H11S  
  2254   2253   2256      1    1.1005e+02    3.8802e+02 ;   H11R - C111   - C110  
  2255   2253   2256      1    1.1005e+02    3.8802e+02 ;   H11S - C111   - C110  
  2256   2259   2260      1    1.1005e+02    3.8802e+02 ;   C110 - C19    - H9R   
  2256   2259   2261      1    1.1005e+02    3.8802e+02 ;   C110 - C19    - H9S   
  2256   2259   2262      1    1.1205e+02    3.9497e+02 ;   C110 - C19    - C18   
  2257   2256   2258      1    1.0835e+02    3.2995e+02 ;   H10R - C110   - H10S  
  2257   2256   2259      1    1.1005e+02    3.8802e+02 ;   H10R - C110   - C19   
  2258   2256   2259      1    1.1005e+02    3.8802e+02 ;   H10S - C110   - C19   
  2259   2262   2263      1    1.1005e+02    3.8802e+02 ;    C19 - C18    - H8R   
  2259   2262   2264      1    1.1005e+02    3.8802e+02 ;    C19 - C18    - H8S   
  2259   2262   2265      1    1.1205e+02    3.9497e+02 ;    C19 - C18    - C17   
  2260   2259   2261      1    1.0835e+02    3.2995e+02 ;    H9R - C19    - H9S   
  2260   2259   2262      1    1.1005e+02    3.8802e+02 ;    H9R - C19    - C18   
  2261   2259   2262      1    1.1005e+02    3.8802e+02 ;    H9S - C19    - C18   
  2262   2265   2266      1    1.1005e+02    3.8802e+02 ;    C18 - C17    - H7R   
  2262   2265   2267      1    1.1005e+02    3.8802e+02 ;    C18 - C17    - H7S   
  2262   2265   2268      1    1.1205e+02    3.9497e+02 ;    C18 - C17    - C16   
  2263   2262   2264      1    1.0835e+02    3.2995e+02 ;    H8R - C18    - H8S   
  2263   2262   2265      1    1.1005e+02    3.8802e+02 ;    H8R - C18    - C17   
  2264   2262   2265      1    1.1005e+02    3.8802e+02 ;    H8S - C18    - C17   
  2265   2268   2269      1    1.1005e+02    3.8802e+02 ;    C17 - C16    - H6R   
  2265   2268   2270      1    1.1005e+02    3.8802e+02 ;    C17 - C16    - H6S   
  2265   2268   2271      1    1.1205e+02    3.9497e+02 ;    C17 - C16    - C15   
  2266   2265   2267      1    1.0835e+02    3.2995e+02 ;    H7R - C17    - H7S   
  2266   2265   2268      1    1.1005e+02    3.8802e+02 ;    H7R - C17    - C16   
  2267   2265   2268      1    1.1005e+02    3.8802e+02 ;    H7S - C17    - C16   
  2268   2271   2272      1    1.1005e+02    3.8802e+02 ;    C16 - C15    - H5R   
  2268   2271   2273      1    1.1005e+02    3.8802e+02 ;    C16 - C15    - H5S   
  2268   2271   2274      1    1.1205e+02    3.9497e+02 ;    C16 - C15    - C14   
  2269   2268   2270      1    1.0835e+02    3.2995e+02 ;    H6R - C16    - H6S   
  2269   2268   2271      1    1.1005e+02    3.8802e+02 ;    H6R - C16    - C15   
  2270   2268   2271      1    1.1005e+02    3.8802e+02 ;    H6S - C16    - C15   
  2271   2274   2275      1    1.1005e+02    3.8802e+02 ;    C15 - C14    - H4R   
  2271   2274   2276      1    1.1005e+02    3.8802e+02 ;    C15 - C14    - H4S   
  2271   2274   2277      1    1.1205e+02    3.9497e+02 ;    C15 - C14    - C13   
  2272   2271   2273      1    1.0835e+02    3.2995e+02 ;    H5R - C15    - H5S   
  2272   2271   2274      1    1.1005e+02    3.8802e+02 ;    H5R - C15    - C14   
  2273   2271   2274      1    1.1005e+02    3.8802e+02 ;    H5S - C15    - C14   
  2274   2277   2278      1    1.1005e+02    3.8802e+02 ;    C14 - C13    - H3R   
  2274   2277   2279      1    1.1005e+02    3.8802e+02 ;    C14 - C13    - H3S   
  2274   2277   2280      1    1.1205e+02    3.9497e+02 ;    C14 - C13    - C12   
  2275   2274   2276      1    1.0835e+02    3.2995e+02 ;    H4R - C14    - H4S   
  2275   2274   2277      1    1.1005e+02    3.8802e+02 ;    H4R - C14    - C13   
  2276   2274   2277      1    1.1005e+02    3.8802e+02 ;    H4S - C14    - C13   
  2277   2280   2281      1    1.1005e+02    3.8802e+02 ;    C13 - C12    - H2R   
  2277   2280   2282      1    1.1005e+02    3.8802e+02 ;    C13 - C12    - H2S   
  2277   2280   2283      1    1.1053e+02    5.3379e+02 ;    C13 - C12    - C11   
  2278   2277   2279      1    1.0835e+02    3.2995e+02 ;    H3R - C13    - H3S   
  2278   2277   2280      1    1.1005e+02    3.8802e+02 ;    H3R - C13    - C12   
  2279   2277   2280      1    1.1005e+02    3.8802e+02 ;    H3S - C13    - C12   
  2280   2283   2284      1    1.2311e+02    5.6928e+02 ;    C12 - C11    - O12   
  2280   2283   2285      1    1.1196e+02    5.7957e+02 ;    C12 - C11    - O11   
  2281   2280   2282      1    1.0835e+02    3.2995e+02 ;    H2R - C12    - H2S   
  2281   2280   2283      1    1.0968e+02    3.9497e+02 ;    H2R - C12    - C11   
  2282   2280   2283      1    1.0968e+02    3.9497e+02 ;    H2S - C12    - C11   
  2283   2285   2286      1    1.1514e+02    5.3246e+02 ;    C11 - O11    - C1    
  2284   2283   2285      1    1.2333e+02    6.3538e+02 ;    O12 - C11    - O11   
  2285   2286   2287      1    1.0882e+02    4.2543e+02 ;    O11 - C1     - HR    
  2285   2286   2288      1    1.0882e+02    4.2543e+02 ;    O11 - C1     - HS    
  2285   2286   2289      1    1.0842e+02    5.6718e+02 ;    O11 - C1     - C2    
  2286   2289   2290      1    1.1007e+02    3.8794e+02 ;     C1 - C2     - HX    
  2286   2289   2291      1    1.1063e+02    5.2894e+02 ;     C1 - C2     - C3    
  2286   2289   2318      1    1.0842e+02    5.6718e+02 ;     C1 - C2     - O21   
  2287   2286   2288      1    1.0955e+02    3.2786e+02 ;     HR - C1     - HS    
  2287   2286   2289      1    1.1007e+02    3.8794e+02 ;     HR - C1     - C2    
  2288   2286   2289      1    1.1007e+02    3.8794e+02 ;     HS - C1     - C2    
  2289   2291   2292      1    1.1007e+02    3.8794e+02 ;     C2 - C3     - HA    
  2289   2291   2293      1    1.1007e+02    3.8794e+02 ;     C2 - C3     - HB    
  2289   2291   2294      1    1.0842e+02    5.6718e+02 ;     C2 - C3     - O31   
  2289   2318   2319      1    1.1514e+02    5.3246e+02 ;     C2 - O21    - C21   
  2290   2289   2291      1    1.1007e+02    3.8794e+02 ;     HX - C2     - C3    
  2290   2289   2318      1    1.0882e+02    4.2543e+02 ;     HX - C2     - O21   
  2291   2289   2318      1    1.0842e+02    5.6718e+02 ;     C3 - C2     - O21   
  2291   2294   2295      1    1.2050e+02    8.3680e+02 ;     C3 - O31    - P31   
  2292   2291   2293      1    1.0955e+02    3.2786e+02 ;     HA - C3     - HB    
  2292   2291   2294      1    1.0882e+02    4.2543e+02 ;     HA - C3     - O31   
  2293   2291   2294      1    1.0882e+02    4.2543e+02 ;     HB - C3     - O31   
  2294   2295   2296      1    1.0260e+02    7.5312e+02 ;    O31 - P31    - O32   
  2294   2295   2316      1    1.0823e+02    8.3680e+02 ;    O31 - P31    - O33   
  2294   2295   2317      1    1.0823e+02    8.3680e+02 ;    O31 - P31    - O34   
  2295   2296   2297      1    1.2050e+02    8.3680e+02 ;    P31 - O32    - C31   
  2296   2295   2316      1    1.0823e+02    8.3680e+02 ;    O32 - P31    - O33   
  2296   2295   2317      1    1.0823e+02    8.3680e+02 ;    O32 - P31    - O34   
  2296   2297   2298      1    1.0882e+02    4.2543e+02 ;    O32 - C31    - H1A   
  2296   2297   2299      1    1.0882e+02    4.2543e+02 ;    O32 - C31    - H1B   
  2296   2297   2300      1    1.0842e+02    5.6718e+02 ;    O32 - C31    - C32   
  2297   2300   2301      1    1.1174e+02    3.8510e+02 ;    C31 - C32    - H2A   
  2297   2300   2302      1    1.1174e+02    3.8510e+02 ;    C31 - C32    - H2B   
  2297   2300   2303      1    1.1432e+02    5.3932e+02 ;    C31 - C32    - N31   
  2298   2297   2299      1    1.0955e+02    3.2786e+02 ;    H1A - C31    - H1B   
  2298   2297   2300      1    1.1007e+02    3.8794e+02 ;    H1A - C31    - C32   
  2299   2297   2300      1    1.1007e+02    3.8794e+02 ;    H1B - C31    - C32   
  2300   2303   2304      1    1.1064e+02    5.2585e+02 ;    C32 - N31    - C33   
  2300   2303   2308      1    1.1064e+02    5.2585e+02 ;    C32 - N31    - C34   
  2300   2303   2312      1    1.1064e+02    5.2585e+02 ;    C32 - N31    - C35   
  2301   2300   2302      1    1.1074e+02    3.2669e+02 ;    H2A - C32    - H2B   
  2301   2300   2303      1    1.0791e+02    4.1020e+02 ;    H2A - C32    - N31   
  2302   2300   2303      1    1.0791e+02    4.1020e+02 ;    H2B - C32    - N31   
  2303   2304   2305      1    1.0791e+02    4.1020e+02 ;    N31 - C33    - H3A   
  2303   2304   2306      1    1.0791e+02    4.1020e+02 ;    N31 - C33    - H3B   
  2303   2304   2307      1    1.0791e+02    4.1020e+02 ;    N31 - C33    - H3C   
  2303   2308   2309      1    1.0791e+02    4.1020e+02 ;    N31 - C34    - H4A   
  2303   2308   2310      1    1.0791e+02    4.1020e+02 ;    N31 - C34    - H4B   
  2303   2308   2311      1    1.0791e+02    4.1020e+02 ;    N31 - C34    - H4C   
  2303   2312   2313      1    1.0791e+02    4.1020e+02 ;    N31 - C35    - H5A   
  2303   2312   2314      1    1.0791e+02    4.1020e+02 ;    N31 - C35    - H5B   
  2303   2312   2315      1    1.0791e+02    4.1020e+02 ;    N31 - C35    - H5C   
  2304   2303   2308      1    1.1064e+02    5.2585e+02 ;    C33 - N31    - C34   
  2304   2303   2312      1    1.1064e+02    5.2585e+02 ;    C33 - N31    - C35   
  2305   2304   2306      1    1.1074e+02    3.2669e+02 ;    H3A - C33    - H3B   
  2305   2304   2307      1    1.1074e+02    3.2669e+02 ;    H3A - C33    - H3C   
  2306   2304   2307      1    1.1074e+02    3.2669e+02 ;    H3B - C33    - H3C   
  2308   2303   2312      1    1.1064e+02    5.2585e+02 ;    C34 - N31    - C35   
  2309   2308   2310      1    1.1074e+02    3.2669e+02 ;    H4A - C34    - H4B   
  2309   2308   2311      1    1.1074e+02    3.2669e+02 ;    H4A - C34    - H4C   
  2310   2308   2311      1    1.1074e+02    3.2669e+02 ;    H4B - C34    - H4C   
  2313   2312   2314      1    1.1074e+02    3.2669e+02 ;    H5A - C35    - H5B   
  2313   2312   2315      1    1.1074e+02    3.2669e+02 ;    H5A - C35    - H5C   
  2314   2312   2315      1    1.1074e+02    3.2669e+02 ;    H5B - C35    - H5C   
  2316   2295   2317      1    1.1990e+02    1.1715e+03 ;    O33 - P31    - O34   
  2318   2319   2320      1    1.2333e+02    6.3538e+02 ;    O21 - C21    - O22   
  2318   2319   2358      1    1.1196e+02    5.7957e+02 ;    O21 - C21    - C12   
  2319   2358   2355      1    1.1053e+02    5.3379e+02 ;    C21 - C12    - C13   
  2319   2358   2359      1    1.0968e+02    3.9497e+02 ;    C21 - C12    - H2R   
  2319   2358   2360      1    1.0968e+02    3.9497e+02 ;    C21 - C12    - H2S   
  2320   2319   2358      1    1.2311e+02    5.6928e+02 ;    O22 - C21    - C12   
  2321   2322   2323      1    1.0835e+02    3.2995e+02 ;   H14T - C114   - H14R  
  2321   2322   2324      1    1.0835e+02    3.2995e+02 ;   H14T - C114   - H14S  
  2321   2322   2325      1    1.1005e+02    3.8802e+02 ;   H14T - C114   - C113  
  2322   2325   2326      1    1.1005e+02    3.8802e+02 ;   C114 - C113   - H13R  
  2322   2325   2327      1    1.1005e+02    3.8802e+02 ;   C114 - C113   - H13S  
  2322   2325   2328      1    1.1205e+02    3.9497e+02 ;   C114 - C113   - C112  
  2323   2322   2324      1    1.0835e+02    3.2995e+02 ;   H14R - C114   - H14S  
  2323   2322   2325      1    1.1005e+02    3.8802e+02 ;   H14R - C114   - C113  
  2324   2322   2325      1    1.1005e+02    3.8802e+02 ;   H14S - C114   - C113  
  2325   2328   2329      1    1.1005e+02    3.8802e+02 ;   C113 - C112   - H12R  
  2325   2328   2330      1    1.1005e+02    3.8802e+02 ;   C113 - C112   - H12S  
  2325   2328   2331      1    1.1205e+02    3.9497e+02 ;   C113 - C112   - C111  
  2326   2325   2327      1    1.0835e+02    3.2995e+02 ;   H13R - C113   - H13S  
  2326   2325   2328      1    1.1005e+02    3.8802e+02 ;   H13R - C113   - C112  
  2327   2325   2328      1    1.1005e+02    3.8802e+02 ;   H13S - C113   - C112  
  2328   2331   2332      1    1.1005e+02    3.8802e+02 ;   C112 - C111   - H11R  
  2328   2331   2333      1    1.1005e+02    3.8802e+02 ;   C112 - C111   - H11S  
  2328   2331   2334      1    1.1205e+02    3.9497e+02 ;   C112 - C111   - C110  
  2329   2328   2330      1    1.0835e+02    3.2995e+02 ;   H12R - C112   - H12S  
  2329   2328   2331      1    1.1005e+02    3.8802e+02 ;   H12R - C112   - C111  
  2330   2328   2331      1    1.1005e+02    3.8802e+02 ;   H12S - C112   - C111  
  2331   2334   2335      1    1.1005e+02    3.8802e+02 ;   C111 - C110   - H10R  
  2331   2334   2336      1    1.1005e+02    3.8802e+02 ;   C111 - C110   - H10S  
  2331   2334   2337      1    1.1205e+02    3.9497e+02 ;   C111 - C110   - C19   
  2332   2331   2333      1    1.0835e+02    3.2995e+02 ;   H11R - C111   - H11S  
  2332   2331   2334      1    1.1005e+02    3.8802e+02 ;   H11R - C111   - C110  
  2333   2331   2334      1    1.1005e+02    3.8802e+02 ;   H11S - C111   - C110  
  2334   2337   2338      1    1.1005e+02    3.8802e+02 ;   C110 - C19    - H9R   
  2334   2337   2339      1    1.1005e+02    3.8802e+02 ;   C110 - C19    - H9S   
  2334   2337   2340      1    1.1205e+02    3.9497e+02 ;   C110 - C19    - C18   
  2335   2334   2336      1    1.0835e+02    3.2995e+02 ;   H10R - C110   - H10S  
  2335   2334   2337      1    1.1005e+02    3.8802e+02 ;   H10R - C110   - C19   
  2336   2334   2337      1    1.1005e+02    3.8802e+02 ;   H10S - C110   - C19   
  2337   2340   2341      1    1.1005e+02    3.8802e+02 ;    C19 - C18    - H8R   
  2337   2340   2342      1    1.1005e+02    3.8802e+02 ;    C19 - C18    - H8S   
  2337   2340   2343      1    1.1205e+02    3.9497e+02 ;    C19 - C18    - C17   
  2338   2337   2339      1    1.0835e+02    3.2995e+02 ;    H9R - C19    - H9S   
  2338   2337   2340      1    1.1005e+02    3.8802e+02 ;    H9R - C19    - C18   
  2339   2337   2340      1    1.1005e+02    3.8802e+02 ;    H9S - C19    - C18   
  2340   2343   2344      1    1.1005e+02    3.8802e+02 ;    C18 - C17    - H7R   
  2340   2343   2345      1    1.1005e+02    3.8802e+02 ;    C18 - C17    - H7S   
  2340   2343   2346      1    1.1205e+02    3.9497e+02 ;    C18 - C17    - C16   
  2341   2340   2342      1    1.0835e+02    3.2995e+02 ;    H8R - C18    - H8S   
  2341   2340   2343      1    1.1005e+02    3.8802e+02 ;    H8R - C18    - C17   
  2342   2340   2343      1    1.1005e+02    3.8802e+02 ;    H8S - C18    - C17   
  2343   2346   2347      1    1.1005e+02    3.8802e+02 ;    C17 - C16    - H6R   
  2343   2346   2348      1    1.1005e+02    3.8802e+02 ;    C17 - C16    - H6S   
  2343   2346   2349      1    1.1205e+02    3.9497e+02 ;    C17 - C16    - C15   
  2344   2343   2345      1    1.0835e+02    3.2995e+02 ;    H7R - C17    - H7S   
  2344   2343   2346      1    1.1005e+02    3.8802e+02 ;    H7R - C17    - C16   
  2345   2343   2346      1    1.1005e+02    3.8802e+02 ;    H7S - C17    - C16   
  2346   2349   2350      1    1.1005e+02    3.8802e+02 ;    C16 - C15    - H5R   
  2346   2349   2351      1    1.1005e+02    3.8802e+02 ;    C16 - C15    - H5S   
  2346   2349   2352      1    1.1205e+02    3.9497e+02 ;    C16 - C15    - C14   
  2347   2346   2348      1    1.0835e+02    3.2995e+02 ;    H6R - C16    - H6S   
  2347   2346   2349      1    1.1005e+02    3.8802e+02 ;    H6R - C16    - C15   
  2348   2346   2349      1    1.1005e+02    3.8802e+02 ;    H6S - C16    - C15   
  2349   2352   2353      1    1.1005e+02    3.8802e+02 ;    C15 - C14    - H4R   
  2349   2352   2354      1    1.1005e+02    3.8802e+02 ;    C15 - C14    - H4S   
  2349   2352   2355      1    1.1205e+02    3.9497e+02 ;    C15 - C14    - C13   
  2350   2349   2351      1    1.0835e+02    3.2995e+02 ;    H5R - C15    - H5S   
  2350   2349   2352      1    1.1005e+02    3.8802e+02 ;    H5R - C15    - C14   
  2351   2349   2352      1    1.1005e+02    3.8802e+02 ;    H5S - C15    - C14   
  2352   2355   2356      1    1.1005e+02    3.8802e+02 ;    C14 - C13    - H3R   
  2352   2355   2357      1    1.1005e+02    3.8802e+02 ;    C14 - C13    - H3S   
  2352   2355   2358      1    1.1205e+02    3.9497e+02 ;    C14 - C13    - C12   
  2353   2352   2354      1    1.0835e+02    3.2995e+02 ;    H4R - C14    - H4S   
  2353   2352   2355      1    1.1005e+02    3.8802e+02 ;    H4R - C14    - C13   
  2354   2352   2355      1    1.1005e+02    3.8802e+02 ;    H4S - C14    - C13   
  2355   2358   2359      1    1.1005e+02    3.8802e+02 ;    C13 - C12    - H2R   
  2355   2358   2360      1    1.1005e+02    3.8802e+02 ;    C13 - C12    - H2S   
  2356   2355   2357      1    1.0835e+02    3.2995e+02 ;    H3R - C13    - H3S   
  2356   2355   2358      1    1.1005e+02    3.8802e+02 ;    H3R - C13    - C12   
  2357   2355   2358      1    1.1005e+02    3.8802e+02 ;    H3S - C13    - C12   
  2359   2358   2360      1    1.0835e+02    3.2995e+02 ;    H2R - C12    - H2S   
  2361   2362   2363      1    1.0835e+02    3.2995e+02 ;   H14T - C114   - H14R  
  2361   2362   2364      1    1.0835e+02    3.2995e+02 ;   H14T - C114   - H14S  
  2361   2362   2365      1    1.1005e+02    3.8802e+02 ;   H14T - C114   - C113  
  2362   2365   2366      1    1.1005e+02    3.8802e+02 ;   C114 - C113   - H13R  
  2362   2365   2367      1    1.1005e+02    3.8802e+02 ;   C114 - C113   - H13S  
  2362   2365   2368      1    1.1205e+02    3.9497e+02 ;   C114 - C113   - C112  
  2363   2362   2364      1    1.0835e+02    3.2995e+02 ;   H14R - C114   - H14S  
  2363   2362   2365      1    1.1005e+02    3.8802e+02 ;   H14R - C114   - C113  
  2364   2362   2365      1    1.1005e+02    3.8802e+02 ;   H14S - C114   - C113  
  2365   2368   2369      1    1.1005e+02    3.8802e+02 ;   C113 - C112   - H12R  
  2365   2368   2370      1    1.1005e+02    3.8802e+02 ;   C113 - C112   - H12S  
  2365   2368   2371      1    1.1205e+02    3.9497e+02 ;   C113 - C112   - C111  
  2366   2365   2367      1    1.0835e+02    3.2995e+02 ;   H13R - C113   - H13S  
  2366   2365   2368      1    1.1005e+02    3.8802e+02 ;   H13R - C113   - C112  
  2367   2365   2368      1    1.1005e+02    3.8802e+02 ;   H13S - C113   - C112  
  2368   2371   2372      1    1.1005e+02    3.8802e+02 ;   C112 - C111   - H11R  
  2368   2371   2373      1    1.1005e+02    3.8802e+02 ;   C112 - C111   - H11S  
  2368   2371   2374      1    1.1205e+02    3.9497e+02 ;   C112 - C111   - C110  
  2369   2368   2370      1    1.0835e+02    3.2995e+02 ;   H12R - C112   - H12S  
  2369   2368   2371      1    1.1005e+02    3.8802e+02 ;   H12R - C112   - C111  
  2370   2368   2371      1    1.1005e+02    3.8802e+02 ;   H12S - C112   - C111  
  2371   2374   2375      1    1.1005e+02    3.8802e+02 ;   C111 - C110   - H10R  
  2371   2374   2376      1    1.1005e+02    3.8802e+02 ;   C111 - C110   - H10S  
  2371   2374   2377      1    1.1205e+02    3.9497e+02 ;   C111 - C110   - C19   
  2372   2371   2373      1    1.0835e+02    3.2995e+02 ;   H11R - C111   - H11S  
  2372   2371   2374      1    1.1005e+02    3.8802e+02 ;   H11R - C111   - C110  
  2373   2371   2374      1    1.1005e+02    3.8802e+02 ;   H11S - C111   - C110  
  2374   2377   2378      1    1.1005e+02    3.8802e+02 ;   C110 - C19    - H9R   
  2374   2377   2379      1    1.1005e+02    3.8802e+02 ;   C110 - C19    - H9S   
  2374   2377   2380      1    1.1205e+02    3.9497e+02 ;   C110 - C19    - C18   
  2375   2374   2376      1    1.0835e+02    3.2995e+02 ;   H10R - C110   - H10S  
  2375   2374   2377      1    1.1005e+02    3.8802e+02 ;   H10R - C110   - C19   
  2376   2374   2377      1    1.1005e+02    3.8802e+02 ;   H10S - C110   - C19   
  2377   2380   2381      1    1.1005e+02    3.8802e+02 ;    C19 - C18    - H8R   
  2377   2380   2382      1    1.1005e+02    3.8802e+02 ;    C19 - C18    - H8S   
  2377   2380   2383      1    1.1205e+02    3.9497e+02 ;    C19 - C18    - C17   
  2378   2377   2379      1    1.0835e+02    3.2995e+02 ;    H9R - C19    - H9S   
  2378   2377   2380      1    1.1005e+02    3.8802e+02 ;    H9R - C19    - C18   
  2379   2377   2380      1    1.1005e+02    3.8802e+02 ;    H9S - C19    - C18   
  2380   2383   2384      1    1.1005e+02    3.8802e+02 ;    C18 - C17    - H7R   
  2380   2383   2385      1    1.1005e+02    3.8802e+02 ;    C18 - C17    - H7S   
  2380   2383   2386      1    1.1205e+02    3.9497e+02 ;    C18 - C17    - C16   
  2381   2380   2382      1    1.0835e+02    3.2995e+02 ;    H8R - C18    - H8S   
  2381   2380   2383      1    1.1005e+02    3.8802e+02 ;    H8R - C18    - C17   
  2382   2380   2383      1    1.1005e+02    3.8802e+02 ;    H8S - C18    - C17   
  2383   2386   2387      1    1.1005e+02    3.8802e+02 ;    C17 - C16    - H6R   
  2383   2386   2388      1    1.1005e+02    3.8802e+02 ;    C17 - C16    - H6S   
  2383   2386   2389      1    1.1205e+02    3.9497e+02 ;    C17 - C16    - C15   
  2384   2383   2385      1    1.0835e+02    3.2995e+02 ;    H7R - C17    - H7S   
  2384   2383   2386      1    1.1005e+02    3.8802e+02 ;    H7R - C17    - C16   
  2385   2383   2386      1    1.1005e+02    3.8802e+02 ;    H7S - C17    - C16   
  2386   2389   2390      1    1.1005e+02    3.8802e+02 ;    C16 - C15    - H5R   
  2386   2389   2391      1    1.1005e+02    3.8802e+02 ;    C16 - C15    - H5S   
  2386   2389   2392      1    1.1205e+02    3.9497e+02 ;    C16 - C15    - C14   
  2387   2386   2388      1    1.0835e+02    3.2995e+02 ;    H6R - C16    - H6S   
  2387   2386   2389      1    1.1005e+02    3.8802e+02 ;    H6R - C16    - C15   
  2388   2386   2389      1    1.1005e+02    3.8802e+02 ;    H6S - C16    - C15   
  2389   2392   2393      1    1.1005e+02    3.8802e+02 ;    C15 - C14    - H4R   
  2389   2392   2394      1    1.1005e+02    3.8802e+02 ;    C15 - C14    - H4S   
  2389   2392   2395      1    1.1205e+02    3.9497e+02 ;    C15 - C14    - C13   
  2390   2389   2391      1    1.0835e+02    3.2995e+02 ;    H5R - C15    - H5S   
  2390   2389   2392      1    1.1005e+02    3.8802e+02 ;    H5R - C15    - C14   
  2391   2389   2392      1    1.1005e+02    3.8802e+02 ;    H5S - C15    - C14   
  2392   2395   2396      1    1.1005e+02    3.8802e+02 ;    C14 - C13    - H3R   
  2392   2395   2397      1    1.1005e+02    3.8802e+02 ;    C14 - C13    - H3S   
  2392   2395   2398      1    1.1205e+02    3.9497e+02 ;    C14 - C13    - C12   
  2393   2392   2394      1    1.0835e+02    3.2995e+02 ;    H4R - C14    - H4S   
  2393   2392   2395      1    1.1005e+02    3.8802e+02 ;    H4R - C14    - C13   
  2394   2392   2395      1    1.1005e+02    3.8802e+02 ;    H4S - C14    - C13   
  2395   2398   2399      1    1.1005e+02    3.8802e+02 ;    C13 - C12    - H2R   
  2395   2398   2400      1    1.1005e+02    3.8802e+02 ;    C13 - C12    - H2S   
  2395   2398   2401      1    1.1053e+02    5.3379e+02 ;    C13 - C12    - C11   
  2396   2395   2397      1    1.0835e+02    3.2995e+02 ;    H3R - C13    - H3S   
  2396   2395   2398      1    1.1005e+02    3.8802e+02 ;    H3R - C13    - C12   
  2397   2395   2398      1    1.1005e+02    3.8802e+02 ;    H3S - C13    - C12   
  2398   2401   2402      1    1.2311e+02    5.6928e+02 ;    C12 - C11    - O12   
  2398   2401   2403      1    1.1196e+02    5.7957e+02 ;    C12 - C11    - O11   
  2399   2398   2400      1    1.0835e+02    3.2995e+02 ;    H2R - C12    - H2S   
  2399   2398   2401      1    1.0968e+02    3.9497e+02 ;    H2R - C12    - C11   
  2400   2398   2401      1    1.0968e+02    3.9497e+02 ;    H2S - C12    - C11   
  2401   2403   2404      1    1.1514e+02    5.3246e+02 ;    C11 - O11    - C1    
  2402   2401   2403      1    1.2333e+02    6.3538e+02 ;    O12 - C11    - O11   
  2403   2404   2405      1    1.0882e+02    4.2543e+02 ;    O11 - C1     - HR    
  2403   2404   2406      1    1.0882e+02    4.2543e+02 ;    O11 - C1     - HS    
  2403   2404   2407      1    1.0842e+02    5.6718e+02 ;    O11 - C1     - C2    
  2404   2407   2408      1    1.1007e+02    3.8794e+02 ;     C1 - C2     - HX    
  2404   2407   2409      1    1.1063e+02    5.2894e+02 ;     C1 - C2     - C3    
  2404   2407   2436      1    1.0842e+02    5.6718e+02 ;     C1 - C2     - O21   
  2405   2404   2406      1    1.0955e+02    3.2786e+02 ;     HR - C1     - HS    
  2405   2404   2407      1    1.1007e+02    3.8794e+02 ;     HR - C1     - C2    
  2406   2404   2407      1    1.1007e+02    3.8794e+02 ;     HS - C1     - C2    
  2407   2409   2410      1    1.1007e+02    3.8794e+02 ;     C2 - C3     - HA    
  2407   2409   2411      1    1.1007e+02    3.8794e+02 ;     C2 - C3     - HB    
  2407   2409   2412      1    1.0842e+02    5.6718e+02 ;     C2 - C3     - O31   
  2407   2436   2437      1    1.1514e+02    5.3246e+02 ;     C2 - O21    - C21   
  2408   2407   2409      1    1.1007e+02    3.8794e+02 ;     HX - C2     - C3    
  2408   2407   2436      1    1.0882e+02    4.2543e+02 ;     HX - C2     - O21   
  2409   2407   2436      1    1.0842e+02    5.6718e+02 ;     C3 - C2     - O21   
  2409   2412   2413      1    1.2050e+02    8.3680e+02 ;     C3 - O31    - P31   
  2410   2409   2411      1    1.0955e+02    3.2786e+02 ;     HA - C3     - HB    
  2410   2409   2412      1    1.0882e+02    4.2543e+02 ;     HA - C3     - O31   
  2411   2409   2412      1    1.0882e+02    4.2543e+02 ;     HB - C3     - O31   
  2412   2413   2414      1    1.0260e+02    7.5312e+02 ;    O31 - P31    - O32   
  2412   2413   2434      1    1.0823e+02    8.3680e+02 ;    O31 - P31    - O33   
  2412   2413   2435      1    1.0823e+02    8.3680e+02 ;    O31 - P31    - O34   
  2413   2414   2415      1    1.2050e+02    8.3680e+02 ;    P31 - O32    - C31   
  2414   2413   2434      1    1.0823e+02    8.3680e+02 ;    O32 - P31    - O33   
  2414   2413   2435      1    1.0823e+02    8.3680e+02 ;    O32 - P31    - O34   
  2414   2415   2416      1    1.0882e+02    4.2543e+02 ;    O32 - C31    - H1A   
  2414   2415   2417      1    1.0882e+02    4.2543e+02 ;    O32 - C31    - H1B   
  2414   2415   2418      1    1.0842e+02    5.6718e+02 ;    O32 - C31    - C32   
  2415   2418   2419      1    1.1174e+02    3.8510e+02 ;    C31 - C32    - H2A   
  2415   2418   2420      1    1.1174e+02    3.8510e+02 ;    C31 - C32    - H2B   
  2415   2418   2421      1    1.1432e+02    5.3932e+02 ;    C31 - C32    - N31   
  2416   2415   2417      1    1.0955e+02    3.2786e+02 ;    H1A - C31    - H1B   
  2416   2415   2418      1    1.1007e+02    3.8794e+02 ;    H1A - C31    - C32   
  2417   2415   2418      1    1.1007e+02    3.8794e+02 ;    H1B - C31    - C32   
  2418   2421   2422      1    1.1064e+02    5.2585e+02 ;    C32 - N31    - C33   
  2418   2421   2426      1    1.1064e+02    5.2585e+02 ;    C32 - N31    - C34   
  2418   2421   2430      1    1.1064e+02    5.2585e+02 ;    C32 - N31    - C35   
  2419   2418   2420      1    1.1074e+02    3.2669e+02 ;    H2A - C32    - H2B   
  2419   2418   2421      1    1.0791e+02    4.1020e+02 ;    H2A - C32    - N31   
  2420   2418   2421      1    1.0791e+02    4.1020e+02 ;    H2B - C32    - N31   
  2421   2422   2423      1    1.0791e+02    4.1020e+02 ;    N31 - C33    - H3A   
  2421   2422   2424      1    1.0791e+02    4.1020e+02 ;    N31 - C33    - H3B   
  2421   2422   2425      1    1.0791e+02    4.1020e+02 ;    N31 - C33    - H3C   
  2421   2426   2427      1    1.0791e+02    4.1020e+02 ;    N31 - C34    - H4A   
  2421   2426   2428      1    1.0791e+02    4.1020e+02 ;    N31 - C34    - H4B   
  2421   2426   2429      1    1.0791e+02    4.1020e+02 ;    N31 - C34    - H4C   
  2421   2430   2431      1    1.0791e+02    4.1020e+02 ;    N31 - C35    - H5A   
  2421   2430   2432      1    1.0791e+02    4.1020e+02 ;    N31 - C35    - H5B   
  2421   2430   2433      1    1.0791e+02    4.1020e+02 ;    N31 - C35    - H5C   
  2422   2421   2426      1    1.1064e+02    5.2585e+02 ;    C33 - N31    - C34   
  2422   2421   2430      1    1.1064e+02    5.2585e+02 ;    C33 - N31    - C35   
  2423   2422   2424      1    1.1074e+02    3.2669e+02 ;    H3A - C33    - H3B   
  2423   2422   2425      1    1.1074e+02    3.2669e+02 ;    H3A - C33    - H3C   
  2424   2422   2425      1    1.1074e+02    3.2669e+02 ;    H3B - C33    - H3C   
  2426   2421   2430      1    1.1064e+02    5.2585e+02 ;    C34 - N31    - C35   
  2427   2426   2428      1    1.1074e+02    3.2669e+02 ;    H4A - C34    - H4B   
  2427   2426   2429      1    1.1074e+02    3.2669e+02 ;    H4A - C34    - H4C   
  2428   2426   2429      1    1.1074e+02    3.2669e+02 ;    H4B - C34    - H4C   
  2431   2430   2432      1    1.1074e+02    3.2669e+02 ;    H5A - C35    - H5B   
  2431   2430   2433      1    1.1074e+02    3.2669e+02 ;    H5A - C35    - H5C   
  2432   2430   2433      1    1.1074e+02    3.2669e+02 ;    H5B - C35    - H5C   
  2434   2413   2435      1    1.1990e+02    1.1715e+03 ;    O33 - P31    - O34   
  2436   2437   2438      1    1.2333e+02    6.3538e+02 ;    O21 - C21    - O22   
  2436   2437   2476      1    1.1196e+02    5.7957e+02 ;    O21 - C21    - C12   
  2437   2476   2473      1    1.1053e+02    5.3379e+02 ;    C21 - C12    - C13   
  2437   2476   2477      1    1.0968e+02    3.9497e+02 ;    C21 - C12    - H2R   
  2437   2476   2478      1    1.0968e+02    3.9497e+02 ;    C21 - C12    - H2S   
  2438   2437   2476      1    1.2311e+02    5.6928e+02 ;    O22 - C21    - C12   
  2439   2440   2441      1    1.0835e+02    3.2995e+02 ;   H14T - C114   - H14R  
  2439   2440   2442      1    1.0835e+02    3.2995e+02 ;   H14T - C114   - H14S  
  2439   2440   2443      1    1.1005e+02    3.8802e+02 ;   H14T - C114   - C113  
  2440   2443   2444      1    1.1005e+02    3.8802e+02 ;   C114 - C113   - H13R  
  2440   2443   2445      1    1.1005e+02    3.8802e+02 ;   C114 - C113   - H13S  
  2440   2443   2446      1    1.1205e+02    3.9497e+02 ;   C114 - C113   - C112  
  2441   2440   2442      1    1.0835e+02    3.2995e+02 ;   H14R - C114   - H14S  
  2441   2440   2443      1    1.1005e+02    3.8802e+02 ;   H14R - C114   - C113  
  2442   2440   2443      1    1.1005e+02    3.8802e+02 ;   H14S - C114   - C113  
  2443   2446   2447      1    1.1005e+02    3.8802e+02 ;   C113 - C112   - H12R  
  2443   2446   2448      1    1.1005e+02    3.8802e+02 ;   C113 - C112   - H12S  
  2443   2446   2449      1    1.1205e+02    3.9497e+02 ;   C113 - C112   - C111  
  2444   2443   2445      1    1.0835e+02    3.2995e+02 ;   H13R - C113   - H13S  
  2444   2443   2446      1    1.1005e+02    3.8802e+02 ;   H13R - C113   - C112  
  2445   2443   2446      1    1.1005e+02    3.8802e+02 ;   H13S - C113   - C112  
  2446   2449   2450      1    1.1005e+02    3.8802e+02 ;   C112 - C111   - H11R  
  2446   2449   2451      1    1.1005e+02    3.8802e+02 ;   C112 - C111   - H11S  
  2446   2449   2452      1    1.1205e+02    3.9497e+02 ;   C112 - C111   - C110  
  2447   2446   2448      1    1.0835e+02    3.2995e+02 ;   H12R - C112   - H12S  
  2447   2446   2449      1    1.1005e+02    3.8802e+02 ;   H12R - C112   - C111  
  2448   2446   2449      1    1.1005e+02    3.8802e+02 ;   H12S - C112   - C111  
  2449   2452   2453      1    1.1005e+02    3.8802e+02 ;   C111 - C110   - H10R  
  2449   2452   2454      1    1.1005e+02    3.8802e+02 ;   C111 - C110   - H10S  
  2449   2452   2455      1    1.1205e+02    3.9497e+02 ;   C111 - C110   - C19   
  2450   2449   2451      1    1.0835e+02    3.2995e+02 ;   H11R - C111   - H11S  
  2450   2449   2452      1    1.1005e+02    3.8802e+02 ;   H11R - C111   - C110  
  2451   2449   2452      1    1.1005e+02    3.8802e+02 ;   H11S - C111   - C110  
  2452   2455   2456      1    1.1005e+02    3.8802e+02 ;   C110 - C19    - H9R   
  2452   2455   2457      1    1.1005e+02    3.8802e+02 ;   C110 - C19    - H9S   
  2452   2455   2458      1    1.1205e+02    3.9497e+02 ;   C110 - C19    - C18   
  2453   2452   2454      1    1.0835e+02    3.2995e+02 ;   H10R - C110   - H10S  
  2453   2452   2455      1    1.1005e+02    3.8802e+02 ;   H10R - C110   - C19   
  2454   2452   2455      1    1.1005e+02    3.8802e+02 ;   H10S - C110   - C19   
  2455   2458   2459      1    1.1005e+02    3.8802e+02 ;    C19 - C18    - H8R   
  2455   2458   2460      1    1.1005e+02    3.8802e+02 ;    C19 - C18    - H8S   
  2455   2458   2461      1    1.1205e+02    3.9497e+02 ;    C19 - C18    - C17   
  2456   2455   2457      1    1.0835e+02    3.2995e+02 ;    H9R - C19    - H9S   
  2456   2455   2458      1    1.1005e+02    3.8802e+02 ;    H9R - C19    - C18   
  2457   2455   2458      1    1.1005e+02    3.8802e+02 ;    H9S - C19    - C18   
  2458   2461   2462      1    1.1005e+02    3.8802e+02 ;    C18 - C17    - H7R   
  2458   2461   2463      1    1.1005e+02    3.8802e+02 ;    C18 - C17    - H7S   
  2458   2461   2464      1    1.1205e+02    3.9497e+02 ;    C18 - C17    - C16   
  2459   2458   2460      1    1.0835e+02    3.2995e+02 ;    H8R - C18    - H8S   
  2459   2458   2461      1    1.1005e+02    3.8802e+02 ;    H8R - C18    - C17   
  2460   2458   2461      1    1.1005e+02    3.8802e+02 ;    H8S - C18    - C17   
  2461   2464   2465      1    1.1005e+02    3.8802e+02 ;    C17 - C16    - H6R   
  2461   2464   2466      1    1.1005e+02    3.8802e+02 ;    C17 - C16    - H6S   
  2461   2464   2467      1    1.1205e+02    3.9497e+02 ;    C17 - C16    - C15   
  2462   2461   2463      1    1.0835e+02    3.2995e+02 ;    H7R - C17    - H7S   
  2462   2461   2464      1    1.1005e+02    3.8802e+02 ;    H7R - C17    - C16   
  2463   2461   2464      1    1.1005e+02    3.8802e+02 ;    H7S - C17    - C16   
  2464   2467   2468      1    1.1005e+02    3.8802e+02 ;    C16 - C15    - H5R   
  2464   2467   2469      1    1.1005e+02    3.8802e+02 ;    C16 - C15    - H5S   
  2464   2467   2470      1    1.1205e+02    3.9497e+02 ;    C16 - C15    - C14   
  2465   2464   2466      1    1.0835e+02    3.2995e+02 ;    H6R - C16    - H6S   
  2465   2464   2467      1    1.1005e+02    3.8802e+02 ;    H6R - C16    - C15   
  2466   2464   2467      1    1.1005e+02    3.8802e+02 ;    H6S - C16    - C15   
  2467   2470   2471      1    1.1005e+02    3.8802e+02 ;    C15 - C14    - H4R   
  2467   2470   2472      1    1.1005e+02    3.8802e+02 ;    C15 - C14    - H4S   
  2467   2470   2473      1    1.1205e+02    3.9497e+02 ;    C15 - C14    - C13   
  2468   2467   2469      1    1.0835e+02    3.2995e+02 ;    H5R - C15    - H5S   
  2468   2467   2470      1    1.1005e+02    3.8802e+02 ;    H5R - C15    - C14   
  2469   2467   2470      1    1.1005e+02    3.8802e+02 ;    H5S - C15    - C14   
  2470   2473   2474      1    1.1005e+02    3.8802e+02 ;    C14 - C13    - H3R   
  2470   2473   2475      1    1.1005e+02    3.8802e+02 ;    C14 - C13    - H3S   
  2470   2473   2476      1    1.1205e+02    3.9497e+02 ;    C14 - C13    - C12   
  2471   2470   2472      1    1.0835e+02    3.2995e+02 ;    H4R - C14    - H4S   
  2471   2470   2473      1    1.1005e+02    3.8802e+02 ;    H4R - C14    - C13   
  2472   2470   2473      1    1.1005e+02    3.8802e+02 ;    H4S - C14    - C13   
  2473   2476   2477      1    1.1005e+02    3.8802e+02 ;    C13 - C12    - H2R   
  2473   2476   2478      1    1.1005e+02    3.8802e+02 ;    C13 - C12    - H2S   
  2474   2473   2475      1    1.0835e+02    3.2995e+02 ;    H3R - C13    - H3S   
  2474   2473   2476      1    1.1005e+02    3.8802e+02 ;    H3R - C13    - C12   
  2475   2473   2476      1    1.1005e+02    3.8802e+02 ;    H3S - C13    - C12   
  2477   2476   2478      1    1.0835e+02    3.2995e+02 ;    H2R - C12    - H2S   
  2479   2480   2481      1    1.0835e+02    3.2995e+02 ;   H14T - C114   - H14R  
  2479   2480   2482      1    1.0835e+02    3.2995e+02 ;   H14T - C114   - H14S  
  2479   2480   2483      1    1.1005e+02    3.8802e+02 ;   H14T - C114   - C113  
  2480   2483   2484      1    1.1005e+02    3.8802e+02 ;   C114 - C113   - H13R  
  2480   2483   2485      1    1.1005e+02    3.8802e+02 ;   C114 - C113   - H13S  
  2480   2483   2486      1    1.1205e+02    3.9497e+02 ;   C114 - C113   - C112  
  2481   2480   2482      1    1.0835e+02    3.2995e+02 ;   H14R - C114   - H14S  
  2481   2480   2483      1    1.1005e+02    3.8802e+02 ;   H14R - C114   - C113  
  2482   2480   2483      1    1.1005e+02    3.8802e+02 ;   H14S - C114   - C113  
  2483   2486   2487      1    1.1005e+02    3.8802e+02 ;   C113 - C112   - H12R  
  2483   2486   2488      1    1.1005e+02    3.8802e+02 ;   C113 - C112   - H12S  
  2483   2486   2489      1    1.1205e+02    3.9497e+02 ;   C113 - C112   - C111  
  2484   2483   2485      1    1.0835e+02    3.2995e+02 ;   H13R - C113   - H13S  
  2484   2483   2486      1    1.1005e+02    3.8802e+02 ;   H13R - C113   - C112  
  2485   2483   2486      1    1.1005e+02    3.8802e+02 ;   H13S - C113   - C112  
  2486   2489   2490      1    1.1005e+02    3.8802e+02 ;   C112 - C111   - H11R  
  2486   2489   2491      1    1.1005e+02    3.8802e+02 ;   C112 - C111   - H11S  
  2486   2489   2492      1    1.1205e+02    3.9497e+02 ;   C112 - C111   - C110  
  2487   2486   2488      1    1.0835e+02    3.2995e+02 ;   H12R - C112   - H12S  
  2487   2486   2489      1    1.1005e+02    3.8802e+02 ;   H12R - C112   - C111  
  2488   2486   2489      1    1.1005e+02    3.8802e+02 ;   H12S - C112   - C111  
  2489   2492   2493      1    1.1005e+02    3.8802e+02 ;   C111 - C110   - H10R  
  2489   2492   2494      1    1.1005e+02    3.8802e+02 ;   C111 - C110   - H10S  
  2489   2492   2495      1    1.1205e+02    3.9497e+02 ;   C111 - C110   - C19   
  2490   2489   2491      1    1.0835e+02    3.2995e+02 ;   H11R - C111   - H11S  
  2490   2489   2492      1    1.1005e+02    3.8802e+02 ;   H11R - C111   - C110  
  2491   2489   2492      1    1.1005e+02    3.8802e+02 ;   H11S - C111   - C110  
  2492   2495   2496      1    1.1005e+02    3.8802e+02 ;   C110 - C19    - H9R   
  2492   2495   2497      1    1.1005e+02    3.8802e+02 ;   C110 - C19    - H9S   
  2492   2495   2498      1    1.1205e+02    3.9497e+02 ;   C110 - C19    - C18   
  2493   2492   2494      1    1.0835e+02    3.2995e+02 ;   H10R - C110   - H10S  
  2493   2492   2495      1    1.1005e+02    3.8802e+02 ;   H10R - C110   - C19   
  2494   2492   2495      1    1.1005e+02    3.8802e+02 ;   H10S - C110   - C19   
  2495   2498   2499      1    1.1005e+02    3.8802e+02 ;    C19 - C18    - H8R   
  2495   2498   2500      1    1.1005e+02    3.8802e+02 ;    C19 - C18    - H8S   
  2495   2498   2501      1    1.1205e+02    3.9497e+02 ;    C19 - C18    - C17   
  2496   2495   2497      1    1.0835e+02    3.2995e+02 ;    H9R - C19    - H9S   
  2496   2495   2498      1    1.1005e+02    3.8802e+02 ;    H9R - C19    - C18   
  2497   2495   2498      1    1.1005e+02    3.8802e+02 ;    H9S - C19    - C18   
  2498   2501   2502      1    1.1005e+02    3.8802e+02 ;    C18 - C17    - H7R   
  2498   2501   2503      1    1.1005e+02    3.8802e+02 ;    C18 - C17    - H7S   
  2498   2501   2504      1    1.1205e+02    3.9497e+02 ;    C18 - C17    - C16   
  2499   2498   2500      1    1.0835e+02    3.2995e+02 ;    H8R - C18    - H8S   
  2499   2498   2501      1    1.1005e+02    3.8802e+02 ;    H8R - C18    - C17   
  2500   2498   2501      1    1.1005e+02    3.8802e+02 ;    H8S - C18    - C17   
  2501   2504   2505      1    1.1005e+02    3.8802e+02 ;    C17 - C16    - H6R   
  2501   2504   2506      1    1.1005e+02    3.8802e+02 ;    C17 - C16    - H6S   
  2501   2504   2507      1    1.1205e+02    3.9497e+02 ;    C17 - C16    - C15   
  2502   2501   2503      1    1.0835e+02    3.2995e+02 ;    H7R - C17    - H7S   
  2502   2501   2504      1    1.1005e+02    3.8802e+02 ;    H7R - C17    - C16   
  2503   2501   2504      1    1.1005e+02    3.8802e+02 ;    H7S - C17    - C16   
  2504   2507   2508      1    1.1005e+02    3.8802e+02 ;    C16 - C15    - H5R   
  2504   2507   2509      1    1.1005e+02    3.8802e+02 ;    C16 - C15    - H5S   
  2504   2507   2510      1    1.1205e+02    3.9497e+02 ;    C16 - C15    - C14   
  2505   2504   2506      1    1.0835e+02    3.2995e+02 ;    H6R - C16    - H6S   
  2505   2504   2507      1    1.1005e+02    3.8802e+02 ;    H6R - C16    - C15   
  2506   2504   2507      1    1.1005e+02    3.8802e+02 ;    H6S - C16    - C15   
  2507   2510   2511      1    1.1005e+02    3.8802e+02 ;    C15 - C14    - H4R   
  2507   2510   2512      1    1.1005e+02    3.8802e+02 ;    C15 - C14    - H4S   
  2507   2510   2513      1    1.1205e+02    3.9497e+02 ;    C15 - C14    - C13   
  2508   2507   2509      1    1.0835e+02    3.2995e+02 ;    H5R - C15    - H5S   
  2508   2507   2510      1    1.1005e+02    3.8802e+02 ;    H5R - C15    - C14   
  2509   2507   2510      1    1.1005e+02    3.8802e+02 ;    H5S - C15    - C14   
  2510   2513   2514      1    1.1005e+02    3.8802e+02 ;    C14 - C13    - H3R   
  2510   2513   2515      1    1.1005e+02    3.8802e+02 ;    C14 - C13    - H3S   
  2510   2513   2516      1    1.1205e+02    3.9497e+02 ;    C14 - C13    - C12   
  2511   2510   2512      1    1.0835e+02    3.2995e+02 ;    H4R - C14    - H4S   
  2511   2510   2513      1    1.1005e+02    3.8802e+02 ;    H4R - C14    - C13   
  2512   2510   2513      1    1.1005e+02    3.8802e+02 ;    H4S - C14    - C13   
  2513   2516   2517      1    1.1005e+02    3.8802e+02 ;    C13 - C12    - H2R   
  2513   2516   2518      1    1.1005e+02    3.8802e+02 ;    C13 - C12    - H2S   
  2513   2516   2519      1    1.1053e+02    5.3379e+02 ;    C13 - C12    - C11   
  2514   2513   2515      1    1.0835e+02    3.2995e+02 ;    H3R - C13    - H3S   
  2514   2513   2516      1    1.1005e+02    3.8802e+02 ;    H3R - C13    - C12   
  2515   2513   2516      1    1.1005e+02    3.8802e+02 ;    H3S - C13    - C12   
  2516   2519   2520      1    1.2311e+02    5.6928e+02 ;    C12 - C11    - O12   
  2516   2519   2521      1    1.1196e+02    5.7957e+02 ;    C12 - C11    - O11   
  2517   2516   2518      1    1.0835e+02    3.2995e+02 ;    H2R - C12    - H2S   
  2517   2516   2519      1    1.0968e+02    3.9497e+02 ;    H2R - C12    - C11   
  2518   2516   2519      1    1.0968e+02    3.9497e+02 ;    H2S - C12    - C11   
  2519   2521   2522      1    1.1514e+02    5.3246e+02 ;    C11 - O11    - C1    
  2520   2519   2521      1    1.2333e+02    6.3538e+02 ;    O12 - C11    - O11   
  2521   2522   2523      1    1.0882e+02    4.2543e+02 ;    O11 - C1     - HR    
  2521   2522   2524      1    1.0882e+02    4.2543e+02 ;    O11 - C1     - HS    
  2521   2522   2525      1    1.0842e+02    5.6718e+02 ;    O11 - C1     - C2    
  2522   2525   2526      1    1.1007e+02    3.8794e+02 ;     C1 - C2     - HX    
  2522   2525   2527      1    1.1063e+02    5.2894e+02 ;     C1 - C2     - C3    
  2522   2525   2554      1    1.0842e+02    5.6718e+02 ;     C1 - C2     - O21   
  2523   2522   2524      1    1.0955e+02    3.2786e+02 ;     HR - C1     - HS    
  2523   2522   2525      1    1.1007e+02    3.8794e+02 ;     HR - C1     - C2    
  2524   2522   2525      1    1.1007e+02    3.8794e+02 ;     HS - C1     - C2    
  2525   2527   2528      1    1.1007e+02    3.8794e+02 ;     C2 - C3     - HA    
  2525   2527   2529      1    1.1007e+02    3.8794e+02 ;     C2 - C3     - HB    
  2525   2527   2530      1    1.0842e+02    5.6718e+02 ;     C2 - C3     - O31   
  2525   2554   2555      1    1.1514e+02    5.3246e+02 ;     C2 - O21    - C21   
  2526   2525   2527      1    1.1007e+02    3.8794e+02 ;     HX - C2     - C3    
  2526   2525   2554      1    1.0882e+02    4.2543e+02 ;     HX - C2     - O21   
  2527   2525   2554      1    1.0842e+02    5.6718e+02 ;     C3 - C2     - O21   
  2527   2530   2531      1    1.2050e+02    8.3680e+02 ;     C3 - O31    - P31   
  2528   2527   2529      1    1.0955e+02    3.2786e+02 ;     HA - C3     - HB    
  2528   2527   2530      1    1.0882e+02    4.2543e+02 ;     HA - C3     - O31   
  2529   2527   2530      1    1.0882e+02    4.2543e+02 ;     HB - C3     - O31   
  2530   2531   2532      1    1.0260e+02    7.5312e+02 ;    O31 - P31    - O32   
  2530   2531   2552      1    1.0823e+02    8.3680e+02 ;    O31 - P31    - O33   
  2530   2531   2553      1    1.0823e+02    8.3680e+02 ;    O31 - P31    - O34   
  2531   2532   2533      1    1.2050e+02    8.3680e+02 ;    P31 - O32    - C31   
  2532   2531   2552      1    1.0823e+02    8.3680e+02 ;    O32 - P31    - O33   
  2532   2531   2553      1    1.0823e+02    8.3680e+02 ;    O32 - P31    - O34   
  2532   2533   2534      1    1.0882e+02    4.2543e+02 ;    O32 - C31    - H1A   
  2532   2533   2535      1    1.0882e+02    4.2543e+02 ;    O32 - C31    - H1B   
  2532   2533   2536      1    1.0842e+02    5.6718e+02 ;    O32 - C31    - C32   
  2533   2536   2537      1    1.1174e+02    3.8510e+02 ;    C31 - C32    - H2A   
  2533   2536   2538      1    1.1174e+02    3.8510e+02 ;    C31 - C32    - H2B   
  2533   2536   2539      1    1.1432e+02    5.3932e+02 ;    C31 - C32    - N31   
  2534   2533   2535      1    1.0955e+02    3.2786e+02 ;    H1A - C31    - H1B   
  2534   2533   2536      1    1.1007e+02    3.8794e+02 ;    H1A - C31    - C32   
  2535   2533   2536      1    1.1007e+02    3.8794e+02 ;    H1B - C31    - C32   
  2536   2539   2540      1    1.1064e+02    5.2585e+02 ;    C32 - N31    - C33   
  2536   2539   2544      1    1.1064e+02    5.2585e+02 ;    C32 - N31    - C34   
  2536   2539   2548      1    1.1064e+02    5.2585e+02 ;    C32 - N31    - C35   
  2537   2536   2538      1    1.1074e+02    3.2669e+02 ;    H2A - C32    - H2B   
  2537   2536   2539      1    1.0791e+02    4.1020e+02 ;    H2A - C32    - N31   
  2538   2536   2539      1    1.0791e+02    4.1020e+02 ;    H2B - C32    - N31   
  2539   2540   2541      1    1.0791e+02    4.1020e+02 ;    N31 - C33    - H3A   
  2539   2540   2542      1    1.0791e+02    4.1020e+02 ;    N31 - C33    - H3B   
  2539   2540   2543      1    1.0791e+02    4.1020e+02 ;    N31 - C33    - H3C   
  2539   2544   2545      1    1.0791e+02    4.1020e+02 ;    N31 - C34    - H4A   
  2539   2544   2546      1    1.0791e+02    4.1020e+02 ;    N31 - C34    - H4B   
  2539   2544   2547      1    1.0791e+02    4.1020e+02 ;    N31 - C34    - H4C   
  2539   2548   2549      1    1.0791e+02    4.1020e+02 ;    N31 - C35    - H5A   
  2539   2548   2550      1    1.0791e+02    4.1020e+02 ;    N31 - C35    - H5B   
  2539   2548   2551      1    1.0791e+02    4.1020e+02 ;    N31 - C35    - H5C   
  2540   2539   2544      1    1.1064e+02    5.2585e+02 ;    C33 - N31    - C34   
  2540   2539   2548      1    1.1064e+02    5.2585e+02 ;    C33 - N31    - C35   
  2541   2540   2542      1    1.1074e+02    3.2669e+02 ;    H3A - C33    - H3B   
  2541   2540   2543      1    1.1074e+02    3.2669e+02 ;    H3A - C33    - H3C   
  2542   2540   2543      1    1.1074e+02    3.2669e+02 ;    H3B - C33    - H3C   
  2544   2539   2548      1    1.1064e+02    5.2585e+02 ;    C34 - N31    - C35   
  2545   2544   2546      1    1.1074e+02    3.2669e+02 ;    H4A - C34    - H4B   
  2545   2544   2547      1    1.1074e+02    3.2669e+02 ;    H4A - C34    - H4C   
  2546   2544   2547      1    1.1074e+02    3.2669e+02 ;    H4B - C34    - H4C   
  2549   2548   2550      1    1.1074e+02    3.2669e+02 ;    H5A - C35    - H5B   
  2549   2548   2551      1    1.1074e+02    3.2669e+02 ;    H5A - C35    - H5C   
  2550   2548   2551      1    1.1074e+02    3.2669e+02 ;    H5B - C35    - H5C   
  2552   2531   2553      1    1.1990e+02    1.1715e+03 ;    O33 - P31    - O34   
  2554   2555   2556      1    1.2333e+02    6.3538e+02 ;    O21 - C21    - O22   
  2554   2555   2594      1    1.1196e+02    5.7957e+02 ;    O21 - C21    - C12   
  2555   2594   2591      1    1.1053e+02    5.3379e+02 ;    C21 - C12    - C13   
  2555   2594   2595      1    1.0968e+02    3.9497e+02 ;    C21 - C12    - H2R   
  2555   2594   2596      1    1.0968e+02    3.9497e+02 ;    C21 - C12    - H2S   
  2556   2555   2594      1    1.2311e+02    5.6928e+02 ;    O22 - C21    - C12   
  2557   2558   2559      1    1.0835e+02    3.2995e+02 ;   H14T - C114   - H14R  
  2557   2558   2560      1    1.0835e+02    3.2995e+02 ;   H14T - C114   - H14S  
  2557   2558   2561      1    1.1005e+02    3.8802e+02 ;   H14T - C114   - C113  
  2558   2561   2562      1    1.1005e+02    3.8802e+02 ;   C114 - C113   - H13R  
  2558   2561   2563      1    1.1005e+02    3.8802e+02 ;   C114 - C113   - H13S  
  2558   2561   2564      1    1.1205e+02    3.9497e+02 ;   C114 - C113   - C112  
  2559   2558   2560      1    1.0835e+02    3.2995e+02 ;   H14R - C114   - H14S  
  2559   2558   2561      1    1.1005e+02    3.8802e+02 ;   H14R - C114   - C113  
  2560   2558   2561      1    1.1005e+02    3.8802e+02 ;   H14S - C114   - C113  
  2561   2564   2565      1    1.1005e+02    3.8802e+02 ;   C113 - C112   - H12R  
  2561   2564   2566      1    1.1005e+02    3.8802e+02 ;   C113 - C112   - H12S  
  2561   2564   2567      1    1.1205e+02    3.9497e+02 ;   C113 - C112   - C111  
  2562   2561   2563      1    1.0835e+02    3.2995e+02 ;   H13R - C113   - H13S  
  2562   2561   2564      1    1.1005e+02    3.8802e+02 ;   H13R - C113   - C112  
  2563   2561   2564      1    1.1005e+02    3.8802e+02 ;   H13S - C113   - C112  
  2564   2567   2568      1    1.1005e+02    3.8802e+02 ;   C112 - C111   - H11R  
  2564   2567   2569      1    1.1005e+02    3.8802e+02 ;   C112 - C111   - H11S  
  2564   2567   2570      1    1.1205e+02    3.9497e+02 ;   C112 - C111   - C110  
  2565   2564   2566      1    1.0835e+02    3.2995e+02 ;   H12R - C112   - H12S  
  2565   2564   2567      1    1.1005e+02    3.8802e+02 ;   H12R - C112   - C111  
  2566   2564   2567      1    1.1005e+02    3.8802e+02 ;   H12S - C112   - C111  
  2567   2570   2571      1    1.1005e+02    3.8802e+02 ;   C111 - C110   - H10R  
  2567   2570   2572      1    1.1005e+02    3.8802e+02 ;   C111 - C110   - H10S  
  2567   2570   2573      1    1.1205e+02    3.9497e+02 ;   C111 - C110   - C19   
  2568   2567   2569      1    1.0835e+02    3.2995e+02 ;   H11R - C111   - H11S  
  2568   2567   2570      1    1.1005e+02    3.8802e+02 ;   H11R - C111   - C110  
  2569   2567   2570      1    1.1005e+02    3.8802e+02 ;   H11S - C111   - C110  
  2570   2573   2574      1    1.1005e+02    3.8802e+02 ;   C110 - C19    - H9R   
  2570   2573   2575      1    1.1005e+02    3.8802e+02 ;   C110 - C19    - H9S   
  2570   2573   2576      1    1.1205e+02    3.9497e+02 ;   C110 - C19    - C18   
  2571   2570   2572      1    1.0835e+02    3.2995e+02 ;   H10R - C110   - H10S  
  2571   2570   2573      1    1.1005e+02    3.8802e+02 ;   H10R - C110   - C19   
  2572   2570   2573      1    1.1005e+02    3.8802e+02 ;   H10S - C110   - C19   
  2573   2576   2577      1    1.1005e+02    3.8802e+02 ;    C19 - C18    - H8R   
  2573   2576   2578      1    1.1005e+02    3.8802e+02 ;    C19 - C18    - H8S   
  2573   2576   2579      1    1.1205e+02    3.9497e+02 ;    C19 - C18    - C17   
  2574   2573   2575      1    1.0835e+02    3.2995e+02 ;    H9R - C19    - H9S   
  2574   2573   2576      1    1.1005e+02    3.8802e+02 ;    H9R - C19    - C18   
  2575   2573   2576      1    1.1005e+02    3.8802e+02 ;    H9S - C19    - C18   
  2576   2579   2580      1    1.1005e+02    3.8802e+02 ;    C18 - C17    - H7R   
  2576   2579   2581      1    1.1005e+02    3.8802e+02 ;    C18 - C17    - H7S   
  2576   2579   2582      1    1.1205e+02    3.9497e+02 ;    C18 - C17    - C16   
  2577   2576   2578      1    1.0835e+02    3.2995e+02 ;    H8R - C18    - H8S   
  2577   2576   2579      1    1.1005e+02    3.8802e+02 ;    H8R - C18    - C17   
  2578   2576   2579      1    1.1005e+02    3.8802e+02 ;    H8S - C18    - C17   
  2579   2582   2583      1    1.1005e+02    3.8802e+02 ;    C17 - C16    - H6R   
  2579   2582   2584      1    1.1005e+02    3.8802e+02 ;    C17 - C16    - H6S   
  2579   2582   2585      1    1.1205e+02    3.9497e+02 ;    C17 - C16    - C15   
  2580   2579   2581      1    1.0835e+02    3.2995e+02 ;    H7R - C17    - H7S   
  2580   2579   2582      1    1.1005e+02    3.8802e+02 ;    H7R - C17    - C16   
  2581   2579   2582      1    1.1005e+02    3.8802e+02 ;    H7S - C17    - C16   
  2582   2585   2586      1    1.1005e+02    3.8802e+02 ;    C16 - C15    - H5R   
  2582   2585   2587      1    1.1005e+02    3.8802e+02 ;    C16 - C15    - H5S   
  2582   2585   2588      1    1.1205e+02    3.9497e+02 ;    C16 - C15    - C14   
  2583   2582   2584      1    1.0835e+02    3.2995e+02 ;    H6R - C16    - H6S   
  2583   2582   2585      1    1.1005e+02    3.8802e+02 ;    H6R - C16    - C15   
  2584   2582   2585      1    1.1005e+02    3.8802e+02 ;    H6S - C16    - C15   
  2585   2588   2589      1    1.1005e+02    3.8802e+02 ;    C15 - C14    - H4R   
  2585   2588   2590      1    1.1005e+02    3.8802e+02 ;    C15 - C14    - H4S   
  2585   2588   2591      1    1.1205e+02    3.9497e+02 ;    C15 - C14    - C13   
  2586   2585   2587      1    1.0835e+02    3.2995e+02 ;    H5R - C15    - H5S   
  2586   2585   2588      1    1.1005e+02    3.8802e+02 ;    H5R - C15    - C14   
  2587   2585   2588      1    1.1005e+02    3.8802e+02 ;    H5S - C15    - C14   
  2588   2591   2592      1    1.1005e+02    3.8802e+02 ;    C14 - C13    - H3R   
  2588   2591   2593      1    1.1005e+02    3.8802e+02 ;    C14 - C13    - H3S   
  2588   2591   2594      1    1.1205e+02    3.9497e+02 ;    C14 - C13    - C12   
  2589   2588   2590      1    1.0835e+02    3.2995e+02 ;    H4R - C14    - H4S   
  2589   2588   2591      1    1.1005e+02    3.8802e+02 ;    H4R - C14    - C13   
  2590   2588   2591      1    1.1005e+02    3.8802e+02 ;    H4S - C14    - C13   
  2591   2594   2595      1    1.1005e+02    3.8802e+02 ;    C13 - C12    - H2R   
  2591   2594   2596      1    1.1005e+02    3.8802e+02 ;    C13 - C12    - H2S   
  2592   2591   2593      1    1.0835e+02    3.2995e+02 ;    H3R - C13    - H3S   
  2592   2591   2594      1    1.1005e+02    3.8802e+02 ;    H3R - C13    - C12   
  2593   2591   2594      1    1.1005e+02    3.8802e+02 ;    H3S - C13    - C12   
  2595   2594   2596      1    1.0835e+02    3.2995e+02 ;    H2R - C12    - H2S   
  2597   2598   2599      1    1.0835e+02    3.2995e+02 ;   H14T - C114   - H14R  
  2597   2598   2600      1    1.0835e+02    3.2995e+02 ;   H14T - C114   - H14S  
  2597   2598   2601      1    1.1005e+02    3.8802e+02 ;   H14T - C114   - C113  
  2598   2601   2602      1    1.1005e+02    3.8802e+02 ;   C114 - C113   - H13R  
  2598   2601   2603      1    1.1005e+02    3.8802e+02 ;   C114 - C113   - H13S  
  2598   2601   2604      1    1.1205e+02    3.9497e+02 ;   C114 - C113   - C112  
  2599   2598   2600      1    1.0835e+02    3.2995e+02 ;   H14R - C114   - H14S  
  2599   2598   2601      1    1.1005e+02    3.8802e+02 ;   H14R - C114   - C113  
  2600   2598   2601      1    1.1005e+02    3.8802e+02 ;   H14S - C114   - C113  
  2601   2604   2605      1    1.1005e+02    3.8802e+02 ;   C113 - C112   - H12R  
  2601   2604   2606      1    1.1005e+02    3.8802e+02 ;   C113 - C112   - H12S  
  2601   2604   2607      1    1.1205e+02    3.9497e+02 ;   C113 - C112   - C111  
  2602   2601   2603      1    1.0835e+02    3.2995e+02 ;   H13R - C113   - H13S  
  2602   2601   2604      1    1.1005e+02    3.8802e+02 ;   H13R - C113   - C112  
  2603   2601   2604      1    1.1005e+02    3.8802e+02 ;   H13S - C113   - C112  
  2604   2607   2608      1    1.1005e+02    3.8802e+02 ;   C112 - C111   - H11R  
  2604   2607   2609      1    1.1005e+02    3.8802e+02 ;   C112 - C111   - H11S  
  2604   2607   2610      1    1.1205e+02    3.9497e+02 ;   C112 - C111   - C110  
  2605   2604   2606      1    1.0835e+02    3.2995e+02 ;   H12R - C112   - H12S  
  2605   2604   2607      1    1.1005e+02    3.8802e+02 ;   H12R - C112   - C111  
  2606   2604   2607      1    1.1005e+02    3.8802e+02 ;   H12S - C112   - C111  
  2607   2610   2611      1    1.1005e+02    3.8802e+02 ;   C111 - C110   - H10R  
  2607   2610   2612      1    1.1005e+02    3.8802e+02 ;   C111 - C110   - H10S  
  2607   2610   2613      1    1.1205e+02    3.9497e+02 ;   C111 - C110   - C19   
  2608   2607   2609      1    1.0835e+02    3.2995e+02 ;   H11R - C111   - H11S  
  2608   2607   2610      1    1.1005e+02    3.8802e+02 ;   H11R - C111   - C110  
  2609   2607   2610      1    1.1005e+02    3.8802e+02 ;   H11S - C111   - C110  
  2610   2613   2614      1    1.1005e+02    3.8802e+02 ;   C110 - C19    - H9R   
  2610   2613   2615      1    1.1005e+02    3.8802e+02 ;   C110 - C19    - H9S   
  2610   2613   2616      1    1.1205e+02    3.9497e+02 ;   C110 - C19    - C18   
  2611   2610   2612      1    1.0835e+02    3.2995e+02 ;   H10R - C110   - H10S  
  2611   2610   2613      1    1.1005e+02    3.8802e+02 ;   H10R - C110   - C19   
  2612   2610   2613      1    1.1005e+02    3.8802e+02 ;   H10S - C110   - C19   
  2613   2616   2617      1    1.1005e+02    3.8802e+02 ;    C19 - C18    - H8R   
  2613   2616   2618      1    1.1005e+02    3.8802e+02 ;    C19 - C18    - H8S   
  2613   2616   2619      1    1.1205e+02    3.9497e+02 ;    C19 - C18    - C17   
  2614   2613   2615      1    1.0835e+02    3.2995e+02 ;    H9R - C19    - H9S   
  2614   2613   2616      1    1.1005e+02    3.8802e+02 ;    H9R - C19    - C18   
  2615   2613   2616      1    1.1005e+02    3.8802e+02 ;    H9S - C19    - C18   
  2616   2619   2620      1    1.1005e+02    3.8802e+02 ;    C18 - C17    - H7R   
  2616   2619   2621      1    1.1005e+02    3.8802e+02 ;    C18 - C17    - H7S   
  2616   2619   2622      1    1.1205e+02    3.9497e+02 ;    C18 - C17    - C16   
  2617   2616   2618      1    1.0835e+02    3.2995e+02 ;    H8R - C18    - H8S   
  2617   2616   2619      1    1.1005e+02    3.8802e+02 ;    H8R - C18    - C17   
  2618   2616   2619      1    1.1005e+02    3.8802e+02 ;    H8S - C18    - C17   
  2619   2622   2623      1    1.1005e+02    3.8802e+02 ;    C17 - C16    - H6R   
  2619   2622   2624      1    1.1005e+02    3.8802e+02 ;    C17 - C16    - H6S   
  2619   2622   2625      1    1.1205e+02    3.9497e+02 ;    C17 - C16    - C15   
  2620   2619   2621      1    1.0835e+02    3.2995e+02 ;    H7R - C17    - H7S   
  2620   2619   2622      1    1.1005e+02    3.8802e+02 ;    H7R - C17    - C16   
  2621   2619   2622      1    1.1005e+02    3.8802e+02 ;    H7S - C17    - C16   
  2622   2625   2626      1    1.1005e+02    3.8802e+02 ;    C16 - C15    - H5R   
  2622   2625   2627      1    1.1005e+02    3.8802e+02 ;    C16 - C15    - H5S   
  2622   2625   2628      1    1.1205e+02    3.9497e+02 ;    C16 - C15    - C14   
  2623   2622   2624      1    1.0835e+02    3.2995e+02 ;    H6R - C16    - H6S   
  2623   2622   2625      1    1.1005e+02    3.8802e+02 ;    H6R - C16    - C15   
  2624   2622   2625      1    1.1005e+02    3.8802e+02 ;    H6S - C16    - C15   
  2625   2628   2629      1    1.1005e+02    3.8802e+02 ;    C15 - C14    - H4R   
  2625   2628   2630      1    1.1005e+02    3.8802e+02 ;    C15 - C14    - H4S   
  2625   2628   2631      1    1.1205e+02    3.9497e+02 ;    C15 - C14    - C13   
  2626   2625   2627      1    1.0835e+02    3.2995e+02 ;    H5R - C15    - H5S   
  2626   2625   2628      1    1.1005e+02    3.8802e+02 ;    H5R - C15    - C14   
  2627   2625   2628      1    1.1005e+02    3.8802e+02 ;    H5S - C15    - C14   
  2628   2631   2632      1    1.1005e+02    3.8802e+02 ;    C14 - C13    - H3R   
  2628   2631   2633      1    1.1005e+02    3.8802e+02 ;    C14 - C13    - H3S   
  2628   2631   2634      1    1.1205e+02    3.9497e+02 ;    C14 - C13    - C12   
  2629   2628   2630      1    1.0835e+02    3.2995e+02 ;    H4R - C14    - H4S   
  2629   2628   2631      1    1.1005e+02    3.8802e+02 ;    H4R - C14    - C13   
  2630   2628   2631      1    1.1005e+02    3.8802e+02 ;    H4S - C14    - C13   
  2631   2634   2635      1    1.1005e+02    3.8802e+02 ;    C13 - C12    - H2R   
  2631   2634   2636      1    1.1005e+02    3.8802e+02 ;    C13 - C12    - H2S   
  2631   2634   2637      1    1.1053e+02    5.3379e+02 ;    C13 - C12    - C11   
  2632   2631   2633      1    1.0835e+02    3.2995e+02 ;    H3R - C13    - H3S   
  2632   2631   2634      1    1.1005e+02    3.8802e+02 ;    H3R - C13    - C12   
  2633   2631   2634      1    1.1005e+02    3.8802e+02 ;    H3S - C13    - C12   
  2634   2637   2638      1    1.2311e+02    5.6928e+02 ;    C12 - C11    - O12   
  2634   2637   2639      1    1.1196e+02    5.7957e+02 ;    C12 - C11    - O11   
  2635   2634   2636      1    1.0835e+02    3.2995e+02 ;    H2R - C12    - H2S   
  2635   2634   2637      1    1.0968e+02    3.9497e+02 ;    H2R - C12    - C11   
  2636   2634   2637      1    1.0968e+02    3.9497e+02 ;    H2S - C12    - C11   
  2637   2639   2640      1    1.1514e+02    5.3246e+02 ;    C11 - O11    - C1    
  2638   2637   2639      1    1.2333e+02    6.3538e+02 ;    O12 - C11    - O11   
  2639   2640   2641      1    1.0882e+02    4.2543e+02 ;    O11 - C1     - HR    
  2639   2640   2642      1    1.0882e+02    4.2543e+02 ;    O11 - C1     - HS    
  2639   2640   2643      1    1.0842e+02    5.6718e+02 ;    O11 - C1     - C2    
  2640   2643   2644      1    1.1007e+02    3.8794e+02 ;     C1 - C2     - HX    
  2640   2643   2645      1    1.1063e+02    5.2894e+02 ;     C1 - C2     - C3    
  2640   2643   2672      1    1.0842e+02    5.6718e+02 ;     C1 - C2     - O21   
  2641   2640   2642      1    1.0955e+02    3.2786e+02 ;     HR - C1     - HS    
  2641   2640   2643      1    1.1007e+02    3.8794e+02 ;     HR - C1     - C2    
  2642   2640   2643      1    1.1007e+02    3.8794e+02 ;     HS - C1     - C2    
  2643   2645   2646      1    1.1007e+02    3.8794e+02 ;     C2 - C3     - HA    
  2643   2645   2647      1    1.1007e+02    3.8794e+02 ;     C2 - C3     - HB    
  2643   2645   2648      1    1.0842e+02    5.6718e+02 ;     C2 - C3     - O31   
  2643   2672   2673      1    1.1514e+02    5.3246e+02 ;     C2 - O21    - C21   
  2644   2643   2645      1    1.1007e+02    3.8794e+02 ;     HX - C2     - C3    
  2644   2643   2672      1    1.0882e+02    4.2543e+02 ;     HX - C2     - O21   
  2645   2643   2672      1    1.0842e+02    5.6718e+02 ;     C3 - C2     - O21   
  2645   2648   2649      1    1.2050e+02    8.3680e+02 ;     C3 - O31    - P31   
  2646   2645   2647      1    1.0955e+02    3.2786e+02 ;     HA - C3     - HB    
  2646   2645   2648      1    1.0882e+02    4.2543e+02 ;     HA - C3     - O31   
  2647   2645   2648      1    1.0882e+02    4.2543e+02 ;     HB - C3     - O31   
  2648   2649   2650      1    1.0260e+02    7.5312e+02 ;    O31 - P31    - O32   
  2648   2649   2670      1    1.0823e+02    8.3680e+02 ;    O31 - P31    - O33   
  2648   2649   2671      1    1.0823e+02    8.3680e+02 ;    O31 - P31    - O34   
  2649   2650   2651      1    1.2050e+02    8.3680e+02 ;    P31 - O32    - C31   
  2650   2649   2670      1    1.0823e+02    8.3680e+02 ;    O32 - P31    - O33   
  2650   2649   2671      1    1.0823e+02    8.3680e+02 ;    O32 - P31    - O34   
  2650   2651   2652      1    1.0882e+02    4.2543e+02 ;    O32 - C31    - H1A   
  2650   2651   2653      1    1.0882e+02    4.2543e+02 ;    O32 - C31    - H1B   
  2650   2651   2654      1    1.0842e+02    5.6718e+02 ;    O32 - C31    - C32   
  2651   2654   2655      1    1.1174e+02    3.8510e+02 ;    C31 - C32    - H2A   
  2651   2654   2656      1    1.1174e+02    3.8510e+02 ;    C31 - C32    - H2B   
  2651   2654   2657      1    1.1432e+02    5.3932e+02 ;    C31 - C32    - N31   
  2652   2651   2653      1    1.0955e+02    3.2786e+02 ;    H1A - C31    - H1B   
  2652   2651   2654      1    1.1007e+02    3.8794e+02 ;    H1A - C31    - C32   
  2653   2651   2654      1    1.1007e+02    3.8794e+02 ;    H1B - C31    - C32   
  2654   2657   2658      1    1.1064e+02    5.2585e+02 ;    C32 - N31    - C33   
  2654   2657   2662      1    1.1064e+02    5.2585e+02 ;    C32 - N31    - C34   
  2654   2657   2666      1    1.1064e+02    5.2585e+02 ;    C32 - N31    - C35   
  2655   2654   2656      1    1.1074e+02    3.2669e+02 ;    H2A - C32    - H2B   
  2655   2654   2657      1    1.0791e+02    4.1020e+02 ;    H2A - C32    - N31   
  2656   2654   2657      1    1.0791e+02    4.1020e+02 ;    H2B - C32    - N31   
  2657   2658   2659      1    1.0791e+02    4.1020e+02 ;    N31 - C33    - H3A   
  2657   2658   2660      1    1.0791e+02    4.1020e+02 ;    N31 - C33    - H3B   
  2657   2658   2661      1    1.0791e+02    4.1020e+02 ;    N31 - C33    - H3C   
  2657   2662   2663      1    1.0791e+02    4.1020e+02 ;    N31 - C34    - H4A   
  2657   2662   2664      1    1.0791e+02    4.1020e+02 ;    N31 - C34    - H4B   
  2657   2662   2665      1    1.0791e+02    4.1020e+02 ;    N31 - C34    - H4C   
  2657   2666   2667      1    1.0791e+02    4.1020e+02 ;    N31 - C35    - H5A   
  2657   2666   2668      1    1.0791e+02    4.1020e+02 ;    N31 - C35    - H5B   
  2657   2666   2669      1    1.0791e+02    4.1020e+02 ;    N31 - C35    - H5C   
  2658   2657   2662      1    1.1064e+02    5.2585e+02 ;    C33 - N31    - C34   
  2658   2657   2666      1    1.1064e+02    5.2585e+02 ;    C33 - N31    - C35   
  2659   2658   2660      1    1.1074e+02    3.2669e+02 ;    H3A - C33    - H3B   
  2659   2658   2661      1    1.1074e+02    3.2669e+02 ;    H3A - C33    - H3C   
  2660   2658   2661      1    1.1074e+02    3.2669e+02 ;    H3B - C33    - H3C   
  2662   2657   2666      1    1.1064e+02    5.2585e+02 ;    C34 - N31    - C35   
  2663   2662   2664      1    1.1074e+02    3.2669e+02 ;    H4A - C34    - H4B   
  2663   2662   2665      1    1.1074e+02    3.2669e+02 ;    H4A - C34    - H4C   
  2664   2662   2665      1    1.1074e+02    3.2669e+02 ;    H4B - C34    - H4C   
  2667   2666   2668      1    1.1074e+02    3.2669e+02 ;    H5A - C35    - H5B   
  2667   2666   2669      1    1.1074e+02    3.2669e+02 ;    H5A - C35    - H5C   
  2668   2666   2669      1    1.1074e+02    3.2669e+02 ;    H5B - C35    - H5C   
  2670   2649   2671      1    1.1990e+02    1.1715e+03 ;    O33 - P31    - O34   
  2672   2673   2674      1    1.2333e+02    6.3538e+02 ;    O21 - C21    - O22   
  2672   2673   2712      1    1.1196e+02    5.7957e+02 ;    O21 - C21    - C12   
  2673   2712   2709      1    1.1053e+02    5.3379e+02 ;    C21 - C12    - C13   
  2673   2712   2713      1    1.0968e+02    3.9497e+02 ;    C21 - C12    - H2R   
  2673   2712   2714      1    1.0968e+02    3.9497e+02 ;    C21 - C12    - H2S   
  2674   2673   2712      1    1.2311e+02    5.6928e+02 ;    O22 - C21    - C12   
  2675   2676   2677      1    1.0835e+02    3.2995e+02 ;   H14T - C114   - H14R  
  2675   2676   2678      1    1.0835e+02    3.2995e+02 ;   H14T - C114   - H14S  
  2675   2676   2679      1    1.1005e+02    3.8802e+02 ;   H14T - C114   - C113  
  2676   2679   2680      1    1.1005e+02    3.8802e+02 ;   C114 - C113   - H13R  
  2676   2679   2681      1    1.1005e+02    3.8802e+02 ;   C114 - C113   - H13S  
  2676   2679   2682      1    1.1205e+02    3.9497e+02 ;   C114 - C113   - C112  
  2677   2676   2678      1    1.0835e+02    3.2995e+02 ;   H14R - C114   - H14S  
  2677   2676   2679      1    1.1005e+02    3.8802e+02 ;   H14R - C114   - C113  
  2678   2676   2679      1    1.1005e+02    3.8802e+02 ;   H14S - C114   - C113  
  2679   2682   2683      1    1.1005e+02    3.8802e+02 ;   C113 - C112   - H12R  
  2679   2682   2684      1    1.1005e+02    3.8802e+02 ;   C113 - C112   - H12S  
  2679   2682   2685      1    1.1205e+02    3.9497e+02 ;   C113 - C112   - C111  
  2680   2679   2681      1    1.0835e+02    3.2995e+02 ;   H13R - C113   - H13S  
  2680   2679   2682      1    1.1005e+02    3.8802e+02 ;   H13R - C113   - C112  
  2681   2679   2682      1    1.1005e+02    3.8802e+02 ;   H13S - C113   - C112  
  2682   2685   2686      1    1.1005e+02    3.8802e+02 ;   C112 - C111   - H11R  
  2682   2685   2687      1    1.1005e+02    3.8802e+02 ;   C112 - C111   - H11S  
  2682   2685   2688      1    1.1205e+02    3.9497e+02 ;   C112 - C111   - C110  
  2683   2682   2684      1    1.0835e+02    3.2995e+02 ;   H12R - C112   - H12S  
  2683   2682   2685      1    1.1005e+02    3.8802e+02 ;   H12R - C112   - C111  
  2684   2682   2685      1    1.1005e+02    3.8802e+02 ;   H12S - C112   - C111  
  2685   2688   2689      1    1.1005e+02    3.8802e+02 ;   C111 - C110   - H10R  
  2685   2688   2690      1    1.1005e+02    3.8802e+02 ;   C111 - C110   - H10S  
  2685   2688   2691      1    1.1205e+02    3.9497e+02 ;   C111 - C110   - C19   
  2686   2685   2687      1    1.0835e+02    3.2995e+02 ;   H11R - C111   - H11S  
  2686   2685   2688      1    1.1005e+02    3.8802e+02 ;   H11R - C111   - C110  
  2687   2685   2688      1    1.1005e+02    3.8802e+02 ;   H11S - C111   - C110  
  2688   2691   2692      1    1.1005e+02    3.8802e+02 ;   C110 - C19    - H9R   
  2688   2691   2693      1    1.1005e+02    3.8802e+02 ;   C110 - C19    - H9S   
  2688   2691   2694      1    1.1205e+02    3.9497e+02 ;   C110 - C19    - C18   
  2689   2688   2690      1    1.0835e+02    3.2995e+02 ;   H10R - C110   - H10S  
  2689   2688   2691      1    1.1005e+02    3.8802e+02 ;   H10R - C110   - C19   
  2690   2688   2691      1    1.1005e+02    3.8802e+02 ;   H10S - C110   - C19   
  2691   2694   2695      1    1.1005e+02    3.8802e+02 ;    C19 - C18    - H8R   
  2691   2694   2696      1    1.1005e+02    3.8802e+02 ;    C19 - C18    - H8S   
  2691   2694   2697      1    1.1205e+02    3.9497e+02 ;    C19 - C18    - C17   
  2692   2691   2693      1    1.0835e+02    3.2995e+02 ;    H9R - C19    - H9S   
  2692   2691   2694      1    1.1005e+02    3.8802e+02 ;    H9R - C19    - C18   
  2693   2691   2694      1    1.1005e+02    3.8802e+02 ;    H9S - C19    - C18   
  2694   2697   2698      1    1.1005e+02    3.8802e+02 ;    C18 - C17    - H7R   
  2694   2697   2699      1    1.1005e+02    3.8802e+02 ;    C18 - C17    - H7S   
  2694   2697   2700      1    1.1205e+02    3.9497e+02 ;    C18 - C17    - C16   
  2695   2694   2696      1    1.0835e+02    3.2995e+02 ;    H8R - C18    - H8S   
  2695   2694   2697      1    1.1005e+02    3.8802e+02 ;    H8R - C18    - C17   
  2696   2694   2697      1    1.1005e+02    3.8802e+02 ;    H8S - C18    - C17   
  2697   2700   2701      1    1.1005e+02    3.8802e+02 ;    C17 - C16    - H6R   
  2697   2700   2702      1    1.1005e+02    3.8802e+02 ;    C17 - C16    - H6S   
  2697   2700   2703      1    1.1205e+02    3.9497e+02 ;    C17 - C16    - C15   
  2698   2697   2699      1    1.0835e+02    3.2995e+02 ;    H7R - C17    - H7S   
  2698   2697   2700      1    1.1005e+02    3.8802e+02 ;    H7R - C17    - C16   
  2699   2697   2700      1    1.1005e+02    3.8802e+02 ;    H7S - C17    - C16   
  2700   2703   2704      1    1.1005e+02    3.8802e+02 ;    C16 - C15    - H5R   
  2700   2703   2705      1    1.1005e+02    3.8802e+02 ;    C16 - C15    - H5S   
  2700   2703   2706      1    1.1205e+02    3.9497e+02 ;    C16 - C15    - C14   
  2701   2700   2702      1    1.0835e+02    3.2995e+02 ;    H6R - C16    - H6S   
  2701   2700   2703      1    1.1005e+02    3.8802e+02 ;    H6R - C16    - C15   
  2702   2700   2703      1    1.1005e+02    3.8802e+02 ;    H6S - C16    - C15   
  2703   2706   2707      1    1.1005e+02    3.8802e+02 ;    C15 - C14    - H4R   
  2703   2706   2708      1    1.1005e+02    3.8802e+02 ;    C15 - C14    - H4S   
  2703   2706   2709      1    1.1205e+02    3.9497e+02 ;    C15 - C14    - C13   
  2704   2703   2705      1    1.0835e+02    3.2995e+02 ;    H5R - C15    - H5S   
  2704   2703   2706      1    1.1005e+02    3.8802e+02 ;    H5R - C15    - C14   
  2705   2703   2706      1    1.1005e+02    3.8802e+02 ;    H5S - C15    - C14   
  2706   2709   2710      1    1.1005e+02    3.8802e+02 ;    C14 - C13    - H3R   
  2706   2709   2711      1    1.1005e+02    3.8802e+02 ;    C14 - C13    - H3S   
  2706   2709   2712      1    1.1205e+02    3.9497e+02 ;    C14 - C13    - C12   
  2707   2706   2708      1    1.0835e+02    3.2995e+02 ;    H4R - C14    - H4S   
  2707   2706   2709      1    1.1005e+02    3.8802e+02 ;    H4R - C14    - C13   
  2708   2706   2709      1    1.1005e+02    3.8802e+02 ;    H4S - C14    - C13   
  2709   2712   2713      1    1.1005e+02    3.8802e+02 ;    C13 - C12    - H2R   
  2709   2712   2714      1    1.1005e+02    3.8802e+02 ;    C13 - C12    - H2S   
  2710   2709   2711      1    1.0835e+02    3.2995e+02 ;    H3R - C13    - H3S   
  2710   2709   2712      1    1.1005e+02    3.8802e+02 ;    H3R - C13    - C12   
  2711   2709   2712      1    1.1005e+02    3.8802e+02 ;    H3S - C13    - C12   
  2713   2712   2714      1    1.0835e+02    3.2995e+02 ;    H2R - C12    - H2S   
  2715   2716   2717      1    1.0835e+02    3.2995e+02 ;   H14T - C114   - H14R  
  2715   2716   2718      1    1.0835e+02    3.2995e+02 ;   H14T - C114   - H14S  
  2715   2716   2719      1    1.1005e+02    3.8802e+02 ;   H14T - C114   - C113  
  2716   2719   2720      1    1.1005e+02    3.8802e+02 ;   C114 - C113   - H13R  
  2716   2719   2721      1    1.1005e+02    3.8802e+02 ;   C114 - C113   - H13S  
  2716   2719   2722      1    1.1205e+02    3.9497e+02 ;   C114 - C113   - C112  
  2717   2716   2718      1    1.0835e+02    3.2995e+02 ;   H14R - C114   - H14S  
  2717   2716   2719      1    1.1005e+02    3.8802e+02 ;   H14R - C114   - C113  
  2718   2716   2719      1    1.1005e+02    3.8802e+02 ;   H14S - C114   - C113  
  2719   2722   2723      1    1.1005e+02    3.8802e+02 ;   C113 - C112   - H12R  
  2719   2722   2724      1    1.1005e+02    3.8802e+02 ;   C113 - C112   - H12S  
  2719   2722   2725      1    1.1205e+02    3.9497e+02 ;   C113 - C112   - C111  
  2720   2719   2721      1    1.0835e+02    3.2995e+02 ;   H13R - C113   - H13S  
  2720   2719   2722      1    1.1005e+02    3.8802e+02 ;   H13R - C113   - C112  
  2721   2719   2722      1    1.1005e+02    3.8802e+02 ;   H13S - C113   - C112  
  2722   2725   2726      1    1.1005e+02    3.8802e+02 ;   C112 - C111   - H11R  
  2722   2725   2727      1    1.1005e+02    3.8802e+02 ;   C112 - C111   - H11S  
  2722   2725   2728      1    1.1205e+02    3.9497e+02 ;   C112 - C111   - C110  
  2723   2722   2724      1    1.0835e+02    3.2995e+02 ;   H12R - C112   - H12S  
  2723   2722   2725      1    1.1005e+02    3.8802e+02 ;   H12R - C112   - C111  
  2724   2722   2725      1    1.1005e+02    3.8802e+02 ;   H12S - C112   - C111  
  2725   2728   2729      1    1.1005e+02    3.8802e+02 ;   C111 - C110   - H10R  
  2725   2728   2730      1    1.1005e+02    3.8802e+02 ;   C111 - C110   - H10S  
  2725   2728   2731      1    1.1205e+02    3.9497e+02 ;   C111 - C110   - C19   
  2726   2725   2727      1    1.0835e+02    3.2995e+02 ;   H11R - C111   - H11S  
  2726   2725   2728      1    1.1005e+02    3.8802e+02 ;   H11R - C111   - C110  
  2727   2725   2728      1    1.1005e+02    3.8802e+02 ;   H11S - C111   - C110  
  2728   2731   2732      1    1.1005e+02    3.8802e+02 ;   C110 - C19    - H9R   
  2728   2731   2733      1    1.1005e+02    3.8802e+02 ;   C110 - C19    - H9S   
  2728   2731   2734      1    1.1205e+02    3.9497e+02 ;   C110 - C19    - C18   
  2729   2728   2730      1    1.0835e+02    3.2995e+02 ;   H10R - C110   - H10S  
  2729   2728   2731      1    1.1005e+02    3.8802e+02 ;   H10R - C110   - C19   
  2730   2728   2731      1    1.1005e+02    3.8802e+02 ;   H10S - C110   - C19   
  2731   2734   2735      1    1.1005e+02    3.8802e+02 ;    C19 - C18    - H8R   
  2731   2734   2736      1    1.1005e+02    3.8802e+02 ;    C19 - C18    - H8S   
  2731   2734   2737      1    1.1205e+02    3.9497e+02 ;    C19 - C18    - C17   
  2732   2731   2733      1    1.0835e+02    3.2995e+02 ;    H9R - C19    - H9S   
  2732   2731   2734      1    1.1005e+02    3.8802e+02 ;    H9R - C19    - C18   
  2733   2731   2734      1    1.1005e+02    3.8802e+02 ;    H9S - C19    - C18   
  2734   2737   2738      1    1.1005e+02    3.8802e+02 ;    C18 - C17    - H7R   
  2734   2737   2739      1    1.1005e+02    3.8802e+02 ;    C18 - C17    - H7S   
  2734   2737   2740      1    1.1205e+02    3.9497e+02 ;    C18 - C17    - C16   
  2735   2734   2736      1    1.0835e+02    3.2995e+02 ;    H8R - C18    - H8S   
  2735   2734   2737      1    1.1005e+02    3.8802e+02 ;    H8R - C18    - C17   
  2736   2734   2737      1    1.1005e+02    3.8802e+02 ;    H8S - C18    - C17   
  2737   2740   2741      1    1.1005e+02    3.8802e+02 ;    C17 - C16    - H6R   
  2737   2740   2742      1    1.1005e+02    3.8802e+02 ;    C17 - C16    - H6S   
  2737   2740   2743      1    1.1205e+02    3.9497e+02 ;    C17 - C16    - C15   
  2738   2737   2739      1    1.0835e+02    3.2995e+02 ;    H7R - C17    - H7S   
  2738   2737   2740      1    1.1005e+02    3.8802e+02 ;    H7R - C17    - C16   
  2739   2737   2740      1    1.1005e+02    3.8802e+02 ;    H7S - C17    - C16   
  2740   2743   2744      1    1.1005e+02    3.8802e+02 ;    C16 - C15    - H5R   
  2740   2743   2745      1    1.1005e+02    3.8802e+02 ;    C16 - C15    - H5S   
  2740   2743   2746      1    1.1205e+02    3.9497e+02 ;    C16 - C15    - C14   
  2741   2740   2742      1    1.0835e+02    3.2995e+02 ;    H6R - C16    - H6S   
  2741   2740   2743      1    1.1005e+02    3.8802e+02 ;    H6R - C16    - C15   
  2742   2740   2743      1    1.1005e+02    3.8802e+02 ;    H6S - C16    - C15   
  2743   2746   2747      1    1.1005e+02    3.8802e+02 ;    C15 - C14    - H4R   
  2743   2746   2748      1    1.1005e+02    3.8802e+02 ;    C15 - C14    - H4S   
  2743   2746   2749      1    1.1205e+02    3.9497e+02 ;    C15 - C14    - C13   
  2744   2743   2745      1    1.0835e+02    3.2995e+02 ;    H5R - C15    - H5S   
  2744   2743   2746      1    1.1005e+02    3.8802e+02 ;    H5R - C15    - C14   
  2745   2743   2746      1    1.1005e+02    3.8802e+02 ;    H5S - C15    - C14   
  2746   2749   2750      1    1.1005e+02    3.8802e+02 ;    C14 - C13    - H3R   
  2746   2749   2751      1    1.1005e+02    3.8802e+02 ;    C14 - C13    - H3S   
  2746   2749   2752      1    1.1205e+02    3.9497e+02 ;    C14 - C13    - C12   
  2747   2746   2748      1    1.0835e+02    3.2995e+02 ;    H4R - C14    - H4S   
  2747   2746   2749      1    1.1005e+02    3.8802e+02 ;    H4R - C14    - C13   
  2748   2746   2749      1    1.1005e+02    3.8802e+02 ;    H4S - C14    - C13   
  2749   2752   2753      1    1.1005e+02    3.8802e+02 ;    C13 - C12    - H2R   
  2749   2752   2754      1    1.1005e+02    3.8802e+02 ;    C13 - C12    - H2S   
  2749   2752   2755      1    1.1053e+02    5.3379e+02 ;    C13 - C12    - C11   
  2750   2749   2751      1    1.0835e+02    3.2995e+02 ;    H3R - C13    - H3S   
  2750   2749   2752      1    1.1005e+02    3.8802e+02 ;    H3R - C13    - C12   
  2751   2749   2752      1    1.1005e+02    3.8802e+02 ;    H3S - C13    - C12   
  2752   2755   2756      1    1.2311e+02    5.6928e+02 ;    C12 - C11    - O12   
  2752   2755   2757      1    1.1196e+02    5.7957e+02 ;    C12 - C11    - O11   
  2753   2752   2754      1    1.0835e+02    3.2995e+02 ;    H2R - C12    - H2S   
  2753   2752   2755      1    1.0968e+02    3.9497e+02 ;    H2R - C12    - C11   
  2754   2752   2755      1    1.0968e+02    3.9497e+02 ;    H2S - C12    - C11   
  2755   2757   2758      1    1.1514e+02    5.3246e+02 ;    C11 - O11    - C1    
  2756   2755   2757      1    1.2333e+02    6.3538e+02 ;    O12 - C11    - O11   
  2757   2758   2759      1    1.0882e+02    4.2543e+02 ;    O11 - C1     - HR    
  2757   2758   2760      1    1.0882e+02    4.2543e+02 ;    O11 - C1     - HS    
  2757   2758   2761      1    1.0842e+02    5.6718e+02 ;    O11 - C1     - C2    
  2758   2761   2762      1    1.1007e+02    3.8794e+02 ;     C1 - C2     - HX    
  2758   2761   2763      1    1.1063e+02    5.2894e+02 ;     C1 - C2     - C3    
  2758   2761   2790      1    1.0842e+02    5.6718e+02 ;     C1 - C2     - O21   
  2759   2758   2760      1    1.0955e+02    3.2786e+02 ;     HR - C1     - HS    
  2759   2758   2761      1    1.1007e+02    3.8794e+02 ;     HR - C1     - C2    
  2760   2758   2761      1    1.1007e+02    3.8794e+02 ;     HS - C1     - C2    
  2761   2763   2764      1    1.1007e+02    3.8794e+02 ;     C2 - C3     - HA    
  2761   2763   2765      1    1.1007e+02    3.8794e+02 ;     C2 - C3     - HB    
  2761   2763   2766      1    1.0842e+02    5.6718e+02 ;     C2 - C3     - O31   
  2761   2790   2791      1    1.1514e+02    5.3246e+02 ;     C2 - O21    - C21   
  2762   2761   2763      1    1.1007e+02    3.8794e+02 ;     HX - C2     - C3    
  2762   2761   2790      1    1.0882e+02    4.2543e+02 ;     HX - C2     - O21   
  2763   2761   2790      1    1.0842e+02    5.6718e+02 ;     C3 - C2     - O21   
  2763   2766   2767      1    1.2050e+02    8.3680e+02 ;     C3 - O31    - P31   
  2764   2763   2765      1    1.0955e+02    3.2786e+02 ;     HA - C3     - HB    
  2764   2763   2766      1    1.0882e+02    4.2543e+02 ;     HA - C3     - O31   
  2765   2763   2766      1    1.0882e+02    4.2543e+02 ;     HB - C3     - O31   
  2766   2767   2768      1    1.0260e+02    7.5312e+02 ;    O31 - P31    - O32   
  2766   2767   2788      1    1.0823e+02    8.3680e+02 ;    O31 - P31    - O33   
  2766   2767   2789      1    1.0823e+02    8.3680e+02 ;    O31 - P31    - O34   
  2767   2768   2769      1    1.2050e+02    8.3680e+02 ;    P31 - O32    - C31   
  2768   2767   2788      1    1.0823e+02    8.3680e+02 ;    O32 - P31    - O33   
  2768   2767   2789      1    1.0823e+02    8.3680e+02 ;    O32 - P31    - O34   
  2768   2769   2770      1    1.0882e+02    4.2543e+02 ;    O32 - C31    - H1A   
  2768   2769   2771      1    1.0882e+02    4.2543e+02 ;    O32 - C31    - H1B   
  2768   2769   2772      1    1.0842e+02    5.6718e+02 ;    O32 - C31    - C32   
  2769   2772   2773      1    1.1174e+02    3.8510e+02 ;    C31 - C32    - H2A   
  2769   2772   2774      1    1.1174e+02    3.8510e+02 ;    C31 - C32    - H2B   
  2769   2772   2775      1    1.1432e+02    5.3932e+02 ;    C31 - C32    - N31   
  2770   2769   2771      1    1.0955e+02    3.2786e+02 ;    H1A - C31    - H1B   
  2770   2769   2772      1    1.1007e+02    3.8794e+02 ;    H1A - C31    - C32   
  2771   2769   2772      1    1.1007e+02    3.8794e+02 ;    H1B - C31    - C32   
  2772   2775   2776      1    1.1064e+02    5.2585e+02 ;    C32 - N31    - C33   
  2772   2775   2780      1    1.1064e+02    5.2585e+02 ;    C32 - N31    - C34   
  2772   2775   2784      1    1.1064e+02    5.2585e+02 ;    C32 - N31    - C35   
  2773   2772   2774      1    1.1074e+02    3.2669e+02 ;    H2A - C32    - H2B   
  2773   2772   2775      1    1.0791e+02    4.1020e+02 ;    H2A - C32    - N31   
  2774   2772   2775      1    1.0791e+02    4.1020e+02 ;    H2B - C32    - N31   
  2775   2776   2777      1    1.0791e+02    4.1020e+02 ;    N31 - C33    - H3A   
  2775   2776   2778      1    1.0791e+02    4.1020e+02 ;    N31 - C33    - H3B   
  2775   2776   2779      1    1.0791e+02    4.1020e+02 ;    N31 - C33    - H3C   
  2775   2780   2781      1    1.0791e+02    4.1020e+02 ;    N31 - C34    - H4A   
  2775   2780   2782      1    1.0791e+02    4.1020e+02 ;    N31 - C34    - H4B   
  2775   2780   2783      1    1.0791e+02    4.1020e+02 ;    N31 - C34    - H4C   
  2775   2784   2785      1    1.0791e+02    4.1020e+02 ;    N31 - C35    - H5A   
  2775   2784   2786      1    1.0791e+02    4.1020e+02 ;    N31 - C35    - H5B   
  2775   2784   2787      1    1.0791e+02    4.1020e+02 ;    N31 - C35    - H5C   
  2776   2775   2780      1    1.1064e+02    5.2585e+02 ;    C33 - N31    - C34   
  2776   2775   2784      1    1.1064e+02    5.2585e+02 ;    C33 - N31    - C35   
  2777   2776   2778      1    1.1074e+02    3.2669e+02 ;    H3A - C33    - H3B   
  2777   2776   2779      1    1.1074e+02    3.2669e+02 ;    H3A - C33    - H3C   
  2778   2776   2779      1    1.1074e+02    3.2669e+02 ;    H3B - C33    - H3C   
  2780   2775   2784      1    1.1064e+02    5.2585e+02 ;    C34 - N31    - C35   
  2781   2780   2782      1    1.1074e+02    3.2669e+02 ;    H4A - C34    - H4B   
  2781   2780   2783      1    1.1074e+02    3.2669e+02 ;    H4A - C34    - H4C   
  2782   2780   2783      1    1.1074e+02    3.2669e+02 ;    H4B - C34    - H4C   
  2785   2784   2786      1    1.1074e+02    3.2669e+02 ;    H5A - C35    - H5B   
  2785   2784   2787      1    1.1074e+02    3.2669e+02 ;    H5A - C35    - H5C   
  2786   2784   2787      1    1.1074e+02    3.2669e+02 ;    H5B - C35    - H5C   
  2788   2767   2789      1    1.1990e+02    1.1715e+03 ;    O33 - P31    - O34   
  2790   2791   2792      1    1.2333e+02    6.3538e+02 ;    O21 - C21    - O22   
  2790   2791   2830      1    1.1196e+02    5.7957e+02 ;    O21 - C21    - C12   
  2791   2830   2827      1    1.1053e+02    5.3379e+02 ;    C21 - C12    - C13   
  2791   2830   2831      1    1.0968e+02    3.9497e+02 ;    C21 - C12    - H2R   
  2791   2830   2832      1    1.0968e+02    3.9497e+02 ;    C21 - C12    - H2S   
  2792   2791   2830      1    1.2311e+02    5.6928e+02 ;    O22 - C21    - C12   
  2793   2794   2795      1    1.0835e+02    3.2995e+02 ;   H14T - C114   - H14R  
  2793   2794   2796      1    1.0835e+02    3.2995e+02 ;   H14T - C114   - H14S  
  2793   2794   2797      1    1.1005e+02    3.8802e+02 ;   H14T - C114   - C113  
  2794   2797   2798      1    1.1005e+02    3.8802e+02 ;   C114 - C113   - H13R  
  2794   2797   2799      1    1.1005e+02    3.8802e+02 ;   C114 - C113   - H13S  
  2794   2797   2800      1    1.1205e+02    3.9497e+02 ;   C114 - C113   - C112  
  2795   2794   2796      1    1.0835e+02    3.2995e+02 ;   H14R - C114   - H14S  
  2795   2794   2797      1    1.1005e+02    3.8802e+02 ;   H14R - C114   - C113  
  2796   2794   2797      1    1.1005e+02    3.8802e+02 ;   H14S - C114   - C113  
  2797   2800   2801      1    1.1005e+02    3.8802e+02 ;   C113 - C112   - H12R  
  2797   2800   2802      1    1.1005e+02    3.8802e+02 ;   C113 - C112   - H12S  
  2797   2800   2803      1    1.1205e+02    3.9497e+02 ;   C113 - C112   - C111  
  2798   2797   2799      1    1.0835e+02    3.2995e+02 ;   H13R - C113   - H13S  
  2798   2797   2800      1    1.1005e+02    3.8802e+02 ;   H13R - C113   - C112  
  2799   2797   2800      1    1.1005e+02    3.8802e+02 ;   H13S - C113   - C112  
  2800   2803   2804      1    1.1005e+02    3.8802e+02 ;   C112 - C111   - H11R  
  2800   2803   2805      1    1.1005e+02    3.8802e+02 ;   C112 - C111   - H11S  
  2800   2803   2806      1    1.1205e+02    3.9497e+02 ;   C112 - C111   - C110  
  2801   2800   2802      1    1.0835e+02    3.2995e+02 ;   H12R - C112   - H12S  
  2801   2800   2803      1    1.1005e+02    3.8802e+02 ;   H12R - C112   - C111  
  2802   2800   2803      1    1.1005e+02    3.8802e+02 ;   H12S - C112   - C111  
  2803   2806   2807      1    1.1005e+02    3.8802e+02 ;   C111 - C110   - H10R  
  2803   2806   2808      1    1.1005e+02    3.8802e+02 ;   C111 - C110   - H10S  
  2803   2806   2809      1    1.1205e+02    3.9497e+02 ;   C111 - C110   - C19   
  2804   2803   2805      1    1.0835e+02    3.2995e+02 ;   H11R - C111   - H11S  
  2804   2803   2806      1    1.1005e+02    3.8802e+02 ;   H11R - C111   - C110  
  2805   2803   2806      1    1.1005e+02    3.8802e+02 ;   H11S - C111   - C110  
  2806   2809   2810      1    1.1005e+02    3.8802e+02 ;   C110 - C19    - H9R   
  2806   2809   2811      1    1.1005e+02    3.8802e+02 ;   C110 - C19    - H9S   
  2806   2809   2812      1    1.1205e+02    3.9497e+02 ;   C110 - C19    - C18   
  2807   2806   2808      1    1.0835e+02    3.2995e+02 ;   H10R - C110   - H10S  
  2807   2806   2809      1    1.1005e+02    3.8802e+02 ;   H10R - C110   - C19   
  2808   2806   2809      1    1.1005e+02    3.8802e+02 ;   H10S - C110   - C19   
  2809   2812   2813      1    1.1005e+02    3.8802e+02 ;    C19 - C18    - H8R   
  2809   2812   2814      1    1.1005e+02    3.8802e+02 ;    C19 - C18    - H8S   
  2809   2812   2815      1    1.1205e+02    3.9497e+02 ;    C19 - C18    - C17   
  2810   2809   2811      1    1.0835e+02    3.2995e+02 ;    H9R - C19    - H9S   
  2810   2809   2812      1    1.1005e+02    3.8802e+02 ;    H9R - C19    - C18   
  2811   2809   2812      1    1.1005e+02    3.8802e+02 ;    H9S - C19    - C18   
  2812   2815   2816      1    1.1005e+02    3.8802e+02 ;    C18 - C17    - H7R   
  2812   2815   2817      1    1.1005e+02    3.8802e+02 ;    C18 - C17    - H7S   
  2812   2815   2818      1    1.1205e+02    3.9497e+02 ;    C18 - C17    - C16   
  2813   2812   2814      1    1.0835e+02    3.2995e+02 ;    H8R - C18    - H8S   
  2813   2812   2815      1    1.1005e+02    3.8802e+02 ;    H8R - C18    - C17   
  2814   2812   2815      1    1.1005e+02    3.8802e+02 ;    H8S - C18    - C17   
  2815   2818   2819      1    1.1005e+02    3.8802e+02 ;    C17 - C16    - H6R   
  2815   2818   2820      1    1.1005e+02    3.8802e+02 ;    C17 - C16    - H6S   
  2815   2818   2821      1    1.1205e+02    3.9497e+02 ;    C17 - C16    - C15   
  2816   2815   2817      1    1.0835e+02    3.2995e+02 ;    H7R - C17    - H7S   
  2816   2815   2818      1    1.1005e+02    3.8802e+02 ;    H7R - C17    - C16   
  2817   2815   2818      1    1.1005e+02    3.8802e+02 ;    H7S - C17    - C16   
  2818   2821   2822      1    1.1005e+02    3.8802e+02 ;    C16 - C15    - H5R   
  2818   2821   2823      1    1.1005e+02    3.8802e+02 ;    C16 - C15    - H5S   
  2818   2821   2824      1    1.1205e+02    3.9497e+02 ;    C16 - C15    - C14   
  2819   2818   2820      1    1.0835e+02    3.2995e+02 ;    H6R - C16    - H6S   
  2819   2818   2821      1    1.1005e+02    3.8802e+02 ;    H6R - C16    - C15   
  2820   2818   2821      1    1.1005e+02    3.8802e+02 ;    H6S - C16    - C15   
  2821   2824   2825      1    1.1005e+02    3.8802e+02 ;    C15 - C14    - H4R   
  2821   2824   2826      1    1.1005e+02    3.8802e+02 ;    C15 - C14    - H4S   
  2821   2824   2827      1    1.1205e+02    3.9497e+02 ;    C15 - C14    - C13   
  2822   2821   2823      1    1.0835e+02    3.2995e+02 ;    H5R - C15    - H5S   
  2822   2821   2824      1    1.1005e+02    3.8802e+02 ;    H5R - C15    - C14   
  2823   2821   2824      1    1.1005e+02    3.8802e+02 ;    H5S - C15    - C14   
  2824   2827   2828      1    1.1005e+02    3.8802e+02 ;    C14 - C13    - H3R   
  2824   2827   2829      1    1.1005e+02    3.8802e+02 ;    C14 - C13    - H3S   
  2824   2827   2830      1    1.1205e+02    3.9497e+02 ;    C14 - C13    - C12   
  2825   2824   2826      1    1.0835e+02    3.2995e+02 ;    H4R - C14    - H4S   
  2825   2824   2827      1    1.1005e+02    3.8802e+02 ;    H4R - C14    - C13   
  2826   2824   2827      1    1.1005e+02    3.8802e+02 ;    H4S - C14    - C13   
  2827   2830   2831      1    1.1005e+02    3.8802e+02 ;    C13 - C12    - H2R   
  2827   2830   2832      1    1.1005e+02    3.8802e+02 ;    C13 - C12    - H2S   
  2828   2827   2829      1    1.0835e+02    3.2995e+02 ;    H3R - C13    - H3S   
  2828   2827   2830      1    1.1005e+02    3.8802e+02 ;    H3R - C13    - C12   
  2829   2827   2830      1    1.1005e+02    3.8802e+02 ;    H3S - C13    - C12   
  2831   2830   2832      1    1.0835e+02    3.2995e+02 ;    H2R - C12    - H2S   
  2833   2834   2835      1    1.0835e+02    3.2995e+02 ;   H14T - C114   - H14R  
  2833   2834   2836      1    1.0835e+02    3.2995e+02 ;   H14T - C114   - H14S  
  2833   2834   2837      1    1.1005e+02    3.8802e+02 ;   H14T - C114   - C113  
  2834   2837   2838      1    1.1005e+02    3.8802e+02 ;   C114 - C113   - H13R  
  2834   2837   2839      1    1.1005e+02    3.8802e+02 ;   C114 - C113   - H13S  
  2834   2837   2840      1    1.1205e+02    3.9497e+02 ;   C114 - C113   - C112  
  2835   2834   2836      1    1.0835e+02    3.2995e+02 ;   H14R - C114   - H14S  
  2835   2834   2837      1    1.1005e+02    3.8802e+02 ;   H14R - C114   - C113  
  2836   2834   2837      1    1.1005e+02    3.8802e+02 ;   H14S - C114   - C113  
  2837   2840   2841      1    1.1005e+02    3.8802e+02 ;   C113 - C112   - H12R  
  2837   2840   2842      1    1.1005e+02    3.8802e+02 ;   C113 - C112   - H12S  
  2837   2840   2843      1    1.1205e+02    3.9497e+02 ;   C113 - C112   - C111  
  2838   2837   2839      1    1.0835e+02    3.2995e+02 ;   H13R - C113   - H13S  
  2838   2837   2840      1    1.1005e+02    3.8802e+02 ;   H13R - C113   - C112  
  2839   2837   2840      1    1.1005e+02    3.8802e+02 ;   H13S - C113   - C112  
  2840   2843   2844      1    1.1005e+02    3.8802e+02 ;   C112 - C111   - H11R  
  2840   2843   2845      1    1.1005e+02    3.8802e+02 ;   C112 - C111   - H11S  
  2840   2843   2846      1    1.1205e+02    3.9497e+02 ;   C112 - C111   - C110  
  2841   2840   2842      1    1.0835e+02    3.2995e+02 ;   H12R - C112   - H12S  
  2841   2840   2843      1    1.1005e+02    3.8802e+02 ;   H12R - C112   - C111  
  2842   2840   2843      1    1.1005e+02    3.8802e+02 ;   H12S - C112   - C111  
  2843   2846   2847      1    1.1005e+02    3.8802e+02 ;   C111 - C110   - H10R  
  2843   2846   2848      1    1.1005e+02    3.8802e+02 ;   C111 - C110   - H10S  
  2843   2846   2849      1    1.1205e+02    3.9497e+02 ;   C111 - C110   - C19   
  2844   2843   2845      1    1.0835e+02    3.2995e+02 ;   H11R - C111   - H11S  
  2844   2843   2846      1    1.1005e+02    3.8802e+02 ;   H11R - C111   - C110  
  2845   2843   2846      1    1.1005e+02    3.8802e+02 ;   H11S - C111   - C110  
  2846   2849   2850      1    1.1005e+02    3.8802e+02 ;   C110 - C19    - H9R   
  2846   2849   2851      1    1.1005e+02    3.8802e+02 ;   C110 - C19    - H9S   
  2846   2849   2852      1    1.1205e+02    3.9497e+02 ;   C110 - C19    - C18   
  2847   2846   2848      1    1.0835e+02    3.2995e+02 ;   H10R - C110   - H10S  
  2847   2846   2849      1    1.1005e+02    3.8802e+02 ;   H10R - C110   - C19   
  2848   2846   2849      1    1.1005e+02    3.8802e+02 ;   H10S - C110   - C19   
  2849   2852   2853      1    1.1005e+02    3.8802e+02 ;    C19 - C18    - H8R   
  2849   2852   2854      1    1.1005e+02    3.8802e+02 ;    C19 - C18    - H8S   
  2849   2852   2855      1    1.1205e+02    3.9497e+02 ;    C19 - C18    - C17   
  2850   2849   2851      1    1.0835e+02    3.2995e+02 ;    H9R - C19    - H9S   
  2850   2849   2852      1    1.1005e+02    3.8802e+02 ;    H9R - C19    - C18   
  2851   2849   2852      1    1.1005e+02    3.8802e+02 ;    H9S - C19    - C18   
  2852   2855   2856      1    1.1005e+02    3.8802e+02 ;    C18 - C17    - H7R   
  2852   2855   2857      1    1.1005e+02    3.8802e+02 ;    C18 - C17    - H7S   
  2852   2855   2858      1    1.1205e+02    3.9497e+02 ;    C18 - C17    - C16   
  2853   2852   2854      1    1.0835e+02    3.2995e+02 ;    H8R - C18    - H8S   
  2853   2852   2855      1    1.1005e+02    3.8802e+02 ;    H8R - C18    - C17   
  2854   2852   2855      1    1.1005e+02    3.8802e+02 ;    H8S - C18    - C17   
  2855   2858   2859      1    1.1005e+02    3.8802e+02 ;    C17 - C16    - H6R   
  2855   2858   2860      1    1.1005e+02    3.8802e+02 ;    C17 - C16    - H6S   
  2855   2858   2861      1    1.1205e+02    3.9497e+02 ;    C17 - C16    - C15   
  2856   2855   2857      1    1.0835e+02    3.2995e+02 ;    H7R - C17    - H7S   
  2856   2855   2858      1    1.1005e+02    3.8802e+02 ;    H7R - C17    - C16   
  2857   2855   2858      1    1.1005e+02    3.8802e+02 ;    H7S - C17    - C16   
  2858   2861   2862      1    1.1005e+02    3.8802e+02 ;    C16 - C15    - H5R   
  2858   2861   2863      1    1.1005e+02    3.8802e+02 ;    C16 - C15    - H5S   
  2858   2861   2864      1    1.1205e+02    3.9497e+02 ;    C16 - C15    - C14   
  2859   2858   2860      1    1.0835e+02    3.2995e+02 ;    H6R - C16    - H6S   
  2859   2858   2861      1    1.1005e+02    3.8802e+02 ;    H6R - C16    - C15   
  2860   2858   2861      1    1.1005e+02    3.8802e+02 ;    H6S - C16    - C15   
  2861   2864   2865      1    1.1005e+02    3.8802e+02 ;    C15 - C14    - H4R   
  2861   2864   2866      1    1.1005e+02    3.8802e+02 ;    C15 - C14    - H4S   
  2861   2864   2867      1    1.1205e+02    3.9497e+02 ;    C15 - C14    - C13   
  2862   2861   2863      1    1.0835e+02    3.2995e+02 ;    H5R - C15    - H5S   
  2862   2861   2864      1    1.1005e+02    3.8802e+02 ;    H5R - C15    - C14   
  2863   2861   2864      1    1.1005e+02    3.8802e+02 ;    H5S - C15    - C14   
  2864   2867   2868      1    1.1005e+02    3.8802e+02 ;    C14 - C13    - H3R   
  2864   2867   2869      1    1.1005e+02    3.8802e+02 ;    C14 - C13    - H3S   
  2864   2867   2870      1    1.1205e+02    3.9497e+02 ;    C14 - C13    - C12   
  2865   2864   2866      1    1.0835e+02    3.2995e+02 ;    H4R - C14    - H4S   
  2865   2864   2867      1    1.1005e+02    3.8802e+02 ;    H4R - C14    - C13   
  2866   2864   2867      1    1.1005e+02    3.8802e+02 ;    H4S - C14    - C13   
  2867   2870   2871      1    1.1005e+02    3.8802e+02 ;    C13 - C12    - H2R   
  2867   2870   2872      1    1.1005e+02    3.8802e+02 ;    C13 - C12    - H2S   
  2867   2870   2873      1    1.1053e+02    5.3379e+02 ;    C13 - C12    - C11   
  2868   2867   2869      1    1.0835e+02    3.2995e+02 ;    H3R - C13    - H3S   
  2868   2867   2870      1    1.1005e+02    3.8802e+02 ;    H3R - C13    - C12   
  2869   2867   2870      1    1.1005e+02    3.8802e+02 ;    H3S - C13    - C12   
  2870   2873   2874      1    1.2311e+02    5.6928e+02 ;    C12 - C11    - O12   
  2870   2873   2875      1    1.1196e+02    5.7957e+02 ;    C12 - C11    - O11   
  2871   2870   2872      1    1.0835e+02    3.2995e+02 ;    H2R - C12    - H2S   
  2871   2870   2873      1    1.0968e+02    3.9497e+02 ;    H2R - C12    - C11   
  2872   2870   2873      1    1.0968e+02    3.9497e+02 ;    H2S - C12    - C11   
  2873   2875   2876      1    1.1514e+02    5.3246e+02 ;    C11 - O11    - C1    
  2874   2873   2875      1    1.2333e+02    6.3538e+02 ;    O12 - C11    - O11   
  2875   2876   2877      1    1.0882e+02    4.2543e+02 ;    O11 - C1     - HR    
  2875   2876   2878      1    1.0882e+02    4.2543e+02 ;    O11 - C1     - HS    
  2875   2876   2879      1    1.0842e+02    5.6718e+02 ;    O11 - C1     - C2    
  2876   2879   2880      1    1.1007e+02    3.8794e+02 ;     C1 - C2     - HX    
  2876   2879   2881      1    1.1063e+02    5.2894e+02 ;     C1 - C2     - C3    
  2876   2879   2908      1    1.0842e+02    5.6718e+02 ;     C1 - C2     - O21   
  2877   2876   2878      1    1.0955e+02    3.2786e+02 ;     HR - C1     - HS    
  2877   2876   2879      1    1.1007e+02    3.8794e+02 ;     HR - C1     - C2    
  2878   2876   2879      1    1.1007e+02    3.8794e+02 ;     HS - C1     - C2    
  2879   2881   2882      1    1.1007e+02    3.8794e+02 ;     C2 - C3     - HA    
  2879   2881   2883      1    1.1007e+02    3.8794e+02 ;     C2 - C3     - HB    
  2879   2881   2884      1    1.0842e+02    5.6718e+02 ;     C2 - C3     - O31   
  2879   2908   2909      1    1.1514e+02    5.3246e+02 ;     C2 - O21    - C21   
  2880   2879   2881      1    1.1007e+02    3.8794e+02 ;     HX - C2     - C3    
  2880   2879   2908      1    1.0882e+02    4.2543e+02 ;     HX - C2     - O21   
  2881   2879   2908      1    1.0842e+02    5.6718e+02 ;     C3 - C2     - O21   
  2881   2884   2885      1    1.2050e+02    8.3680e+02 ;     C3 - O31    - P31   
  2882   2881   2883      1    1.0955e+02    3.2786e+02 ;     HA - C3     - HB    
  2882   2881   2884      1    1.0882e+02    4.2543e+02 ;     HA - C3     - O31   
  2883   2881   2884      1    1.0882e+02    4.2543e+02 ;     HB - C3     - O31   
  2884   2885   2886      1    1.0260e+02    7.5312e+02 ;    O31 - P31    - O32   
  2884   2885   2906      1    1.0823e+02    8.3680e+02 ;    O31 - P31    - O33   
  2884   2885   2907      1    1.0823e+02    8.3680e+02 ;    O31 - P31    - O34   
  2885   2886   2887      1    1.2050e+02    8.3680e+02 ;    P31 - O32    - C31   
  2886   2885   2906      1    1.0823e+02    8.3680e+02 ;    O32 - P31    - O33   
  2886   2885   2907      1    1.0823e+02    8.3680e+02 ;    O32 - P31    - O34   
  2886   2887   2888      1    1.0882e+02    4.2543e+02 ;    O32 - C31    - H1A   
  2886   2887   2889      1    1.0882e+02    4.2543e+02 ;    O32 - C31    - H1B   
  2886   2887   2890      1    1.0842e+02    5.6718e+02 ;    O32 - C31    - C32   
  2887   2890   2891      1    1.1174e+02    3.8510e+02 ;    C31 - C32    - H2A   
  2887   2890   2892      1    1.1174e+02    3.8510e+02 ;    C31 - C32    - H2B   
  2887   2890   2893      1    1.1432e+02    5.3932e+02 ;    C31 - C32    - N31   
  2888   2887   2889      1    1.0955e+02    3.2786e+02 ;    H1A - C31    - H1B   
  2888   2887   2890      1    1.1007e+02    3.8794e+02 ;    H1A - C31    - C32   
  2889   2887   2890      1    1.1007e+02    3.8794e+02 ;    H1B - C31    - C32   
  2890   2893   2894      1    1.1064e+02    5.2585e+02 ;    C32 - N31    - C33   
  2890   2893   2898      1    1.1064e+02    5.2585e+02 ;    C32 - N31    - C34   
  2890   2893   2902      1    1.1064e+02    5.2585e+02 ;    C32 - N31    - C35   
  2891   2890   2892      1    1.1074e+02    3.2669e+02 ;    H2A - C32    - H2B   
  2891   2890   2893      1    1.0791e+02    4.1020e+02 ;    H2A - C32    - N31   
  2892   2890   2893      1    1.0791e+02    4.1020e+02 ;    H2B - C32    - N31   
  2893   2894   2895      1    1.0791e+02    4.1020e+02 ;    N31 - C33    - H3A   
  2893   2894   2896      1    1.0791e+02    4.1020e+02 ;    N31 - C33    - H3B   
  2893   2894   2897      1    1.0791e+02    4.1020e+02 ;    N31 - C33    - H3C   
  2893   2898   2899      1    1.0791e+02    4.1020e+02 ;    N31 - C34    - H4A   
  2893   2898   2900      1    1.0791e+02    4.1020e+02 ;    N31 - C34    - H4B   
  2893   2898   2901      1    1.0791e+02    4.1020e+02 ;    N31 - C34    - H4C   
  2893   2902   2903      1    1.0791e+02    4.1020e+02 ;    N31 - C35    - H5A   
  2893   2902   2904      1    1.0791e+02    4.1020e+02 ;    N31 - C35    - H5B   
  2893   2902   2905      1    1.0791e+02    4.1020e+02 ;    N31 - C35    - H5C   
  2894   2893   2898      1    1.1064e+02    5.2585e+02 ;    C33 - N31    - C34   
  2894   2893   2902      1    1.1064e+02    5.2585e+02 ;    C33 - N31    - C35   
  2895   2894   2896      1    1.1074e+02    3.2669e+02 ;    H3A - C33    - H3B   
  2895   2894   2897      1    1.1074e+02    3.2669e+02 ;    H3A - C33    - H3C   
  2896   2894   2897      1    1.1074e+02    3.2669e+02 ;    H3B - C33    - H3C   
  2898   2893   2902      1    1.1064e+02    5.2585e+02 ;    C34 - N31    - C35   
  2899   2898   2900      1    1.1074e+02    3.2669e+02 ;    H4A - C34    - H4B   
  2899   2898   2901      1    1.1074e+02    3.2669e+02 ;    H4A - C34    - H4C   
  2900   2898   2901      1    1.1074e+02    3.2669e+02 ;    H4B - C34    - H4C   
  2903   2902   2904      1    1.1074e+02    3.2669e+02 ;    H5A - C35    - H5B   
  2903   2902   2905      1    1.1074e+02    3.2669e+02 ;    H5A - C35    - H5C   
  2904   2902   2905      1    1.1074e+02    3.2669e+02 ;    H5B - C35    - H5C   
  2906   2885   2907      1    1.1990e+02    1.1715e+03 ;    O33 - P31    - O34   
  2908   2909   2910      1    1.2333e+02    6.3538e+02 ;    O21 - C21    - O22   
  2908   2909   2948      1    1.1196e+02    5.7957e+02 ;    O21 - C21    - C12   
  2909   2948   2945      1    1.1053e+02    5.3379e+02 ;    C21 - C12    - C13   
  2909   2948   2949      1    1.0968e+02    3.9497e+02 ;    C21 - C12    - H2R   
  2909   2948   2950      1    1.0968e+02    3.9497e+02 ;    C21 - C12    - H2S   
  2910   2909   2948      1    1.2311e+02    5.6928e+02 ;    O22 - C21    - C12   
  2911   2912   2913      1    1.0835e+02    3.2995e+02 ;   H14T - C114   - H14R  
  2911   2912   2914      1    1.0835e+02    3.2995e+02 ;   H14T - C114   - H14S  
  2911   2912   2915      1    1.1005e+02    3.8802e+02 ;   H14T - C114   - C113  
  2912   2915   2916      1    1.1005e+02    3.8802e+02 ;   C114 - C113   - H13R  
  2912   2915   2917      1    1.1005e+02    3.8802e+02 ;   C114 - C113   - H13S  
  2912   2915   2918      1    1.1205e+02    3.9497e+02 ;   C114 - C113   - C112  
  2913   2912   2914      1    1.0835e+02    3.2995e+02 ;   H14R - C114   - H14S  
  2913   2912   2915      1    1.1005e+02    3.8802e+02 ;   H14R - C114   - C113  
  2914   2912   2915      1    1.1005e+02    3.8802e+02 ;   H14S - C114   - C113  
  2915   2918   2919      1    1.1005e+02    3.8802e+02 ;   C113 - C112   - H12R  
  2915   2918   2920      1    1.1005e+02    3.8802e+02 ;   C113 - C112   - H12S  
  2915   2918   2921      1    1.1205e+02    3.9497e+02 ;   C113 - C112   - C111  
  2916   2915   2917      1    1.0835e+02    3.2995e+02 ;   H13R - C113   - H13S  
  2916   2915   2918      1    1.1005e+02    3.8802e+02 ;   H13R - C113   - C112  
  2917   2915   2918      1    1.1005e+02    3.8802e+02 ;   H13S - C113   - C112  
  2918   2921   2922      1    1.1005e+02    3.8802e+02 ;   C112 - C111   - H11R  
  2918   2921   2923      1    1.1005e+02    3.8802e+02 ;   C112 - C111   - H11S  
  2918   2921   2924      1    1.1205e+02    3.9497e+02 ;   C112 - C111   - C110  
  2919   2918   2920      1    1.0835e+02    3.2995e+02 ;   H12R - C112   - H12S  
  2919   2918   2921      1    1.1005e+02    3.8802e+02 ;   H12R - C112   - C111  
  2920   2918   2921      1    1.1005e+02    3.8802e+02 ;   H12S - C112   - C111  
  2921   2924   2925      1    1.1005e+02    3.8802e+02 ;   C111 - C110   - H10R  
  2921   2924   2926      1    1.1005e+02    3.8802e+02 ;   C111 - C110   - H10S  
  2921   2924   2927      1    1.1205e+02    3.9497e+02 ;   C111 - C110   - C19   
  2922   2921   2923      1    1.0835e+02    3.2995e+02 ;   H11R - C111   - H11S  
  2922   2921   2924      1    1.1005e+02    3.8802e+02 ;   H11R - C111   - C110  
  2923   2921   2924      1    1.1005e+02    3.8802e+02 ;   H11S - C111   - C110  
  2924   2927   2928      1    1.1005e+02    3.8802e+02 ;   C110 - C19    - H9R   
  2924   2927   2929      1    1.1005e+02    3.8802e+02 ;   C110 - C19    - H9S   
  2924   2927   2930      1    1.1205e+02    3.9497e+02 ;   C110 - C19    - C18   
  2925   2924   2926      1    1.0835e+02    3.2995e+02 ;   H10R - C110   - H10S  
  2925   2924   2927      1    1.1005e+02    3.8802e+02 ;   H10R - C110   - C19   
  2926   2924   2927      1    1.1005e+02    3.8802e+02 ;   H10S - C110   - C19   
  2927   2930   2931      1    1.1005e+02    3.8802e+02 ;    C19 - C18    - H8R   
  2927   2930   2932      1    1.1005e+02    3.8802e+02 ;    C19 - C18    - H8S   
  2927   2930   2933      1    1.1205e+02    3.9497e+02 ;    C19 - C18    - C17   
  2928   2927   2929      1    1.0835e+02    3.2995e+02 ;    H9R - C19    - H9S   
  2928   2927   2930      1    1.1005e+02    3.8802e+02 ;    H9R - C19    - C18   
  2929   2927   2930      1    1.1005e+02    3.8802e+02 ;    H9S - C19    - C18   
  2930   2933   2934      1    1.1005e+02    3.8802e+02 ;    C18 - C17    - H7R   
  2930   2933   2935      1    1.1005e+02    3.8802e+02 ;    C18 - C17    - H7S   
  2930   2933   2936      1    1.1205e+02    3.9497e+02 ;    C18 - C17    - C16   
  2931   2930   2932      1    1.0835e+02    3.2995e+02 ;    H8R - C18    - H8S   
  2931   2930   2933      1    1.1005e+02    3.8802e+02 ;    H8R - C18    - C17   
  2932   2930   2933      1    1.1005e+02    3.8802e+02 ;    H8S - C18    - C17   
  2933   2936   2937      1    1.1005e+02    3.8802e+02 ;    C17 - C16    - H6R   
  2933   2936   2938      1    1.1005e+02    3.8802e+02 ;    C17 - C16    - H6S   
  2933   2936   2939      1    1.1205e+02    3.9497e+02 ;    C17 - C16    - C15   
  2934   2933   2935      1    1.0835e+02    3.2995e+02 ;    H7R - C17    - H7S   
  2934   2933   2936      1    1.1005e+02    3.8802e+02 ;    H7R - C17    - C16   
  2935   2933   2936      1    1.1005e+02    3.8802e+02 ;    H7S - C17    - C16   
  2936   2939   2940      1    1.1005e+02    3.8802e+02 ;    C16 - C15    - H5R   
  2936   2939   2941      1    1.1005e+02    3.8802e+02 ;    C16 - C15    - H5S   
  2936   2939   2942      1    1.1205e+02    3.9497e+02 ;    C16 - C15    - C14   
  2937   2936   2938      1    1.0835e+02    3.2995e+02 ;    H6R - C16    - H6S   
  2937   2936   2939      1    1.1005e+02    3.8802e+02 ;    H6R - C16    - C15   
  2938   2936   2939      1    1.1005e+02    3.8802e+02 ;    H6S - C16    - C15   
  2939   2942   2943      1    1.1005e+02    3.8802e+02 ;    C15 - C14    - H4R   
  2939   2942   2944      1    1.1005e+02    3.8802e+02 ;    C15 - C14    - H4S   
  2939   2942   2945      1    1.1205e+02    3.9497e+02 ;    C15 - C14    - C13   
  2940   2939   2941      1    1.0835e+02    3.2995e+02 ;    H5R - C15    - H5S   
  2940   2939   2942      1    1.1005e+02    3.8802e+02 ;    H5R - C15    - C14   
  2941   2939   2942      1    1.1005e+02    3.8802e+02 ;    H5S - C15    - C14   
  2942   2945   2946      1    1.1005e+02    3.8802e+02 ;    C14 - C13    - H3R   
  2942   2945   2947      1    1.1005e+02    3.8802e+02 ;    C14 - C13    - H3S   
  2942   2945   2948      1    1.1205e+02    3.9497e+02 ;    C14 - C13    - C12   
  2943   2942   2944      1    1.0835e+02    3.2995e+02 ;    H4R - C14    - H4S   
  2943   2942   2945      1    1.1005e+02    3.8802e+02 ;    H4R - C14    - C13   
  2944   2942   2945      1    1.1005e+02    3.8802e+02 ;    H4S - C14    - C13   
  2945   2948   2949      1    1.1005e+02    3.8802e+02 ;    C13 - C12    - H2R   
  2945   2948   2950      1    1.1005e+02    3.8802e+02 ;    C13 - C12    - H2S   
  2946   2945   2947      1    1.0835e+02    3.2995e+02 ;    H3R - C13    - H3S   
  2946   2945   2948      1    1.1005e+02    3.8802e+02 ;    H3R - C13    - C12   
  2947   2945   2948      1    1.1005e+02    3.8802e+02 ;    H3S - C13    - C12   
  2949   2948   2950      1    1.0835e+02    3.2995e+02 ;    H2R - C12    - H2S   
  2951   2952   2953      1    1.0835e+02    3.2995e+02 ;   H14T - C114   - H14R  
  2951   2952   2954      1    1.0835e+02    3.2995e+02 ;   H14T - C114   - H14S  
  2951   2952   2955      1    1.1005e+02    3.8802e+02 ;   H14T - C114   - C113  
  2952   2955   2956      1    1.1005e+02    3.8802e+02 ;   C114 - C113   - H13R  
  2952   2955   2957      1    1.1005e+02    3.8802e+02 ;   C114 - C113   - H13S  
  2952   2955   2958      1    1.1205e+02    3.9497e+02 ;   C114 - C113   - C112  
  2953   2952   2954      1    1.0835e+02    3.2995e+02 ;   H14R - C114   - H14S  
  2953   2952   2955      1    1.1005e+02    3.8802e+02 ;   H14R - C114   - C113  
  2954   2952   2955      1    1.1005e+02    3.8802e+02 ;   H14S - C114   - C113  
  2955   2958   2959      1    1.1005e+02    3.8802e+02 ;   C113 - C112   - H12R  
  2955   2958   2960      1    1.1005e+02    3.8802e+02 ;   C113 - C112   - H12S  
  2955   2958   2961      1    1.1205e+02    3.9497e+02 ;   C113 - C112   - C111  
  2956   2955   2957      1    1.0835e+02    3.2995e+02 ;   H13R - C113   - H13S  
  2956   2955   2958      1    1.1005e+02    3.8802e+02 ;   H13R - C113   - C112  
  2957   2955   2958      1    1.1005e+02    3.8802e+02 ;   H13S - C113   - C112  
  2958   2961   2962      1    1.1005e+02    3.8802e+02 ;   C112 - C111   - H11R  
  2958   2961   2963      1    1.1005e+02    3.8802e+02 ;   C112 - C111   - H11S  
  2958   2961   2964      1    1.1205e+02    3.9497e+02 ;   C112 - C111   - C110  
  2959   2958   2960      1    1.0835e+02    3.2995e+02 ;   H12R - C112   - H12S  
  2959   2958   2961      1    1.1005e+02    3.8802e+02 ;   H12R - C112   - C111  
  2960   2958   2961      1    1.1005e+02    3.8802e+02 ;   H12S - C112   - C111  
  2961   2964   2965      1    1.1005e+02    3.8802e+02 ;   C111 - C110   - H10R  
  2961   2964   2966      1    1.1005e+02    3.8802e+02 ;   C111 - C110   - H10S  
  2961   2964   2967      1    1.1205e+02    3.9497e+02 ;   C111 - C110   - C19   
  2962   2961   2963      1    1.0835e+02    3.2995e+02 ;   H11R - C111   - H11S  
  2962   2961   2964      1    1.1005e+02    3.8802e+02 ;   H11R - C111   - C110  
  2963   2961   2964      1    1.1005e+02    3.8802e+02 ;   H11S - C111   - C110  
  2964   2967   2968      1    1.1005e+02    3.8802e+02 ;   C110 - C19    - H9R   
  2964   2967   2969      1    1.1005e+02    3.8802e+02 ;   C110 - C19    - H9S   
  2964   2967   2970      1    1.1205e+02    3.9497e+02 ;   C110 - C19    - C18   
  2965   2964   2966      1    1.0835e+02    3.2995e+02 ;   H10R - C110   - H10S  
  2965   2964   2967      1    1.1005e+02    3.8802e+02 ;   H10R - C110   - C19   
  2966   2964   2967      1    1.1005e+02    3.8802e+02 ;   H10S - C110   - C19   
  2967   2970   2971      1    1.1005e+02    3.8802e+02 ;    C19 - C18    - H8R   
  2967   2970   2972      1    1.1005e+02    3.8802e+02 ;    C19 - C18    - H8S   
  2967   2970   2973      1    1.1205e+02    3.9497e+02 ;    C19 - C18    - C17   
  2968   2967   2969      1    1.0835e+02    3.2995e+02 ;    H9R - C19    - H9S   
  2968   2967   2970      1    1.1005e+02    3.8802e+02 ;    H9R - C19    - C18   
  2969   2967   2970      1    1.1005e+02    3.8802e+02 ;    H9S - C19    - C18   
  2970   2973   2974      1    1.1005e+02    3.8802e+02 ;    C18 - C17    - H7R   
  2970   2973   2975      1    1.1005e+02    3.8802e+02 ;    C18 - C17    - H7S   
  2970   2973   2976      1    1.1205e+02    3.9497e+02 ;    C18 - C17    - C16   
  2971   2970   2972      1    1.0835e+02    3.2995e+02 ;    H8R - C18    - H8S   
  2971   2970   2973      1    1.1005e+02    3.8802e+02 ;    H8R - C18    - C17   
  2972   2970   2973      1    1.1005e+02    3.8802e+02 ;    H8S - C18    - C17   
  2973   2976   2977      1    1.1005e+02    3.8802e+02 ;    C17 - C16    - H6R   
  2973   2976   2978      1    1.1005e+02    3.8802e+02 ;    C17 - C16    - H6S   
  2973   2976   2979      1    1.1205e+02    3.9497e+02 ;    C17 - C16    - C15   
  2974   2973   2975      1    1.0835e+02    3.2995e+02 ;    H7R - C17    - H7S   
  2974   2973   2976      1    1.1005e+02    3.8802e+02 ;    H7R - C17    - C16   
  2975   2973   2976      1    1.1005e+02    3.8802e+02 ;    H7S - C17    - C16   
  2976   2979   2980      1    1.1005e+02    3.8802e+02 ;    C16 - C15    - H5R   
  2976   2979   2981      1    1.1005e+02    3.8802e+02 ;    C16 - C15    - H5S   
  2976   2979   2982      1    1.1205e+02    3.9497e+02 ;    C16 - C15    - C14   
  2977   2976   2978      1    1.0835e+02    3.2995e+02 ;    H6R - C16    - H6S   
  2977   2976   2979      1    1.1005e+02    3.8802e+02 ;    H6R - C16    - C15   
  2978   2976   2979      1    1.1005e+02    3.8802e+02 ;    H6S - C16    - C15   
  2979   2982   2983      1    1.1005e+02    3.8802e+02 ;    C15 - C14    - H4R   
  2979   2982   2984      1    1.1005e+02    3.8802e+02 ;    C15 - C14    - H4S   
  2979   2982   2985      1    1.1205e+02    3.9497e+02 ;    C15 - C14    - C13   
  2980   2979   2981      1    1.0835e+02    3.2995e+02 ;    H5R - C15    - H5S   
  2980   2979   2982      1    1.1005e+02    3.8802e+02 ;    H5R - C15    - C14   
  2981   2979   2982      1    1.1005e+02    3.8802e+02 ;    H5S - C15    - C14   
  2982   2985   2986      1    1.1005e+02    3.8802e+02 ;    C14 - C13    - H3R   
  2982   2985   2987      1    1.1005e+02    3.8802e+02 ;    C14 - C13    - H3S   
  2982   2985   2988      1    1.1205e+02    3.9497e+02 ;    C14 - C13    - C12   
  2983   2982   2984      1    1.0835e+02    3.2995e+02 ;    H4R - C14    - H4S   
  2983   2982   2985      1    1.1005e+02    3.8802e+02 ;    H4R - C14    - C13   
  2984   2982   2985      1    1.1005e+02    3.8802e+02 ;    H4S - C14    - C13   
  2985   2988   2989      1    1.1005e+02    3.8802e+02 ;    C13 - C12    - H2R   
  2985   2988   2990      1    1.1005e+02    3.8802e+02 ;    C13 - C12    - H2S   
  2985   2988   2991      1    1.1053e+02    5.3379e+02 ;    C13 - C12    - C11   
  2986   2985   2987      1    1.0835e+02    3.2995e+02 ;    H3R - C13    - H3S   
  2986   2985   2988      1    1.1005e+02    3.8802e+02 ;    H3R - C13    - C12   
  2987   2985   2988      1    1.1005e+02    3.8802e+02 ;    H3S - C13    - C12   
  2988   2991   2992      1    1.2311e+02    5.6928e+02 ;    C12 - C11    - O12   
  2988   2991   2993      1    1.1196e+02    5.7957e+02 ;    C12 - C11    - O11   
  2989   2988   2990      1    1.0835e+02    3.2995e+02 ;    H2R - C12    - H2S   
  2989   2988   2991      1    1.0968e+02    3.9497e+02 ;    H2R - C12    - C11   
  2990   2988   2991      1    1.0968e+02    3.9497e+02 ;    H2S - C12    - C11   
  2991   2993   2994      1    1.1514e+02    5.3246e+02 ;    C11 - O11    - C1    
  2992   2991   2993      1    1.2333e+02    6.3538e+02 ;    O12 - C11    - O11   
  2993   2994   2995      1    1.0882e+02    4.2543e+02 ;    O11 - C1     - HR    
  2993   2994   2996      1    1.0882e+02    4.2543e+02 ;    O11 - C1     - HS    
  2993   2994   2997      1    1.0842e+02    5.6718e+02 ;    O11 - C1     - C2    
  2994   2997   2998      1    1.1007e+02    3.8794e+02 ;     C1 - C2     - HX    
  2994   2997   2999      1    1.1063e+02    5.2894e+02 ;     C1 - C2     - C3    
  2994   2997   3026      1    1.0842e+02    5.6718e+02 ;     C1 - C2     - O21   
  2995   2994   2996      1    1.0955e+02    3.2786e+02 ;     HR - C1     - HS    
  2995   2994   2997      1    1.1007e+02    3.8794e+02 ;     HR - C1     - C2    
  2996   2994   2997      1    1.1007e+02    3.8794e+02 ;     HS - C1     - C2    
  2997   2999   3000      1    1.1007e+02    3.8794e+02 ;     C2 - C3     - HA    
  2997   2999   3001      1    1.1007e+02    3.8794e+02 ;     C2 - C3     - HB    
  2997   2999   3002      1    1.0842e+02    5.6718e+02 ;     C2 - C3     - O31   
  2997   3026   3027      1    1.1514e+02    5.3246e+02 ;     C2 - O21    - C21   
  2998   2997   2999      1    1.1007e+02    3.8794e+02 ;     HX - C2     - C3    
  2998   2997   3026      1    1.0882e+02    4.2543e+02 ;     HX - C2     - O21   
  2999   2997   3026      1    1.0842e+02    5.6718e+02 ;     C3 - C2     - O21   
  2999   3002   3003      1    1.2050e+02    8.3680e+02 ;     C3 - O31    - P31   
  3000   2999   3001      1    1.0955e+02    3.2786e+02 ;     HA - C3     - HB    
  3000   2999   3002      1    1.0882e+02    4.2543e+02 ;     HA - C3     - O31   
  3001   2999   3002      1    1.0882e+02    4.2543e+02 ;     HB - C3     - O31   
  3002   3003   3004      1    1.0260e+02    7.5312e+02 ;    O31 - P31    - O32   
  3002   3003   3024      1    1.0823e+02    8.3680e+02 ;    O31 - P31    - O33   
  3002   3003   3025      1    1.0823e+02    8.3680e+02 ;    O31 - P31    - O34   
  3003   3004   3005      1    1.2050e+02    8.3680e+02 ;    P31 - O32    - C31   
  3004   3003   3024      1    1.0823e+02    8.3680e+02 ;    O32 - P31    - O33   
  3004   3003   3025      1    1.0823e+02    8.3680e+02 ;    O32 - P31    - O34   
  3004   3005   3006      1    1.0882e+02    4.2543e+02 ;    O32 - C31    - H1A   
  3004   3005   3007      1    1.0882e+02    4.2543e+02 ;    O32 - C31    - H1B   
  3004   3005   3008      1    1.0842e+02    5.6718e+02 ;    O32 - C31    - C32   
  3005   3008   3009      1    1.1174e+02    3.8510e+02 ;    C31 - C32    - H2A   
  3005   3008   3010      1    1.1174e+02    3.8510e+02 ;    C31 - C32    - H2B   
  3005   3008   3011      1    1.1432e+02    5.3932e+02 ;    C31 - C32    - N31   
  3006   3005   3007      1    1.0955e+02    3.2786e+02 ;    H1A - C31    - H1B   
  3006   3005   3008      1    1.1007e+02    3.8794e+02 ;    H1A - C31    - C32   
  3007   3005   3008      1    1.1007e+02    3.8794e+02 ;    H1B - C31    - C32   
  3008   3011   3012      1    1.1064e+02    5.2585e+02 ;    C32 - N31    - C33   
  3008   3011   3016      1    1.1064e+02    5.2585e+02 ;    C32 - N31    - C34   
  3008   3011   3020      1    1.1064e+02    5.2585e+02 ;    C32 - N31    - C35   
  3009   3008   3010      1    1.1074e+02    3.2669e+02 ;    H2A - C32    - H2B   
  3009   3008   3011      1    1.0791e+02    4.1020e+02 ;    H2A - C32    - N31   
  3010   3008   3011      1    1.0791e+02    4.1020e+02 ;    H2B - C32    - N31   
  3011   3012   3013      1    1.0791e+02    4.1020e+02 ;    N31 - C33    - H3A   
  3011   3012   3014      1    1.0791e+02    4.1020e+02 ;    N31 - C33    - H3B   
  3011   3012   3015      1    1.0791e+02    4.1020e+02 ;    N31 - C33    - H3C   
  3011   3016   3017      1    1.0791e+02    4.1020e+02 ;    N31 - C34    - H4A   
  3011   3016   3018      1    1.0791e+02    4.1020e+02 ;    N31 - C34    - H4B   
  3011   3016   3019      1    1.0791e+02    4.1020e+02 ;    N31 - C34    - H4C   
  3011   3020   3021      1    1.0791e+02    4.1020e+02 ;    N31 - C35    - H5A   
  3011   3020   3022      1    1.0791e+02    4.1020e+02 ;    N31 - C35    - H5B   
  3011   3020   3023      1    1.0791e+02    4.1020e+02 ;    N31 - C35    - H5C   
  3012   3011   3016      1    1.1064e+02    5.2585e+02 ;    C33 - N31    - C34   
  3012   3011   3020      1    1.1064e+02    5.2585e+02 ;    C33 - N31    - C35   
  3013   3012   3014      1    1.1074e+02    3.2669e+02 ;    H3A - C33    - H3B   
  3013   3012   3015      1    1.1074e+02    3.2669e+02 ;    H3A - C33    - H3C   
  3014   3012   3015      1    1.1074e+02    3.2669e+02 ;    H3B - C33    - H3C   
  3016   3011   3020      1    1.1064e+02    5.2585e+02 ;    C34 - N31    - C35   
  3017   3016   3018      1    1.1074e+02    3.2669e+02 ;    H4A - C34    - H4B   
  3017   3016   3019      1    1.1074e+02    3.2669e+02 ;    H4A - C34    - H4C   
  3018   3016   3019      1    1.1074e+02    3.2669e+02 ;    H4B - C34    - H4C   
  3021   3020   3022      1    1.1074e+02    3.2669e+02 ;    H5A - C35    - H5B   
  3021   3020   3023      1    1.1074e+02    3.2669e+02 ;    H5A - C35    - H5C   
  3022   3020   3023      1    1.1074e+02    3.2669e+02 ;    H5B - C35    - H5C   
  3024   3003   3025      1    1.1990e+02    1.1715e+03 ;    O33 - P31    - O34   
  3026   3027   3028      1    1.2333e+02    6.3538e+02 ;    O21 - C21    - O22   
  3026   3027   3066      1    1.1196e+02    5.7957e+02 ;    O21 - C21    - C12   
  3027   3066   3063      1    1.1053e+02    5.3379e+02 ;    C21 - C12    - C13   
  3027   3066   3067      1    1.0968e+02    3.9497e+02 ;    C21 - C12    - H2R   
  3027   3066   3068      1    1.0968e+02    3.9497e+02 ;    C21 - C12    - H2S   
  3028   3027   3066      1    1.2311e+02    5.6928e+02 ;    O22 - C21    - C12   
  3029   3030   3031      1    1.0835e+02    3.2995e+02 ;   H14T - C114   - H14R  
  3029   3030   3032      1    1.0835e+02    3.2995e+02 ;   H14T - C114   - H14S  
  3029   3030   3033      1    1.1005e+02    3.8802e+02 ;   H14T - C114   - C113  
  3030   3033   3034      1    1.1005e+02    3.8802e+02 ;   C114 - C113   - H13R  
  3030   3033   3035      1    1.1005e+02    3.8802e+02 ;   C114 - C113   - H13S  
  3030   3033   3036      1    1.1205e+02    3.9497e+02 ;   C114 - C113   - C112  
  3031   3030   3032      1    1.0835e+02    3.2995e+02 ;   H14R - C114   - H14S  
  3031   3030   3033      1    1.1005e+02    3.8802e+02 ;   H14R - C114   - C113  
  3032   3030   3033      1    1.1005e+02    3.8802e+02 ;   H14S - C114   - C113  
  3033   3036   3037      1    1.1005e+02    3.8802e+02 ;   C113 - C112   - H12R  
  3033   3036   3038      1    1.1005e+02    3.8802e+02 ;   C113 - C112   - H12S  
  3033   3036   3039      1    1.1205e+02    3.9497e+02 ;   C113 - C112   - C111  
  3034   3033   3035      1    1.0835e+02    3.2995e+02 ;   H13R - C113   - H13S  
  3034   3033   3036      1    1.1005e+02    3.8802e+02 ;   H13R - C113   - C112  
  3035   3033   3036      1    1.1005e+02    3.8802e+02 ;   H13S - C113   - C112  
  3036   3039   3040      1    1.1005e+02    3.8802e+02 ;   C112 - C111   - H11R  
  3036   3039   3041      1    1.1005e+02    3.8802e+02 ;   C112 - C111   - H11S  
  3036   3039   3042      1    1.1205e+02    3.9497e+02 ;   C112 - C111   - C110  
  3037   3036   3038      1    1.0835e+02    3.2995e+02 ;   H12R - C112   - H12S  
  3037   3036   3039      1    1.1005e+02    3.8802e+02 ;   H12R - C112   - C111  
  3038   3036   3039      1    1.1005e+02    3.8802e+02 ;   H12S - C112   - C111  
  3039   3042   3043      1    1.1005e+02    3.8802e+02 ;   C111 - C110   - H10R  
  3039   3042   3044      1    1.1005e+02    3.8802e+02 ;   C111 - C110   - H10S  
  3039   3042   3045      1    1.1205e+02    3.9497e+02 ;   C111 - C110   - C19   
  3040   3039   3041      1    1.0835e+02    3.2995e+02 ;   H11R - C111   - H11S  
  3040   3039   3042      1    1.1005e+02    3.8802e+02 ;   H11R - C111   - C110  
  3041   3039   3042      1    1.1005e+02    3.8802e+02 ;   H11S - C111   - C110  
  3042   3045   3046      1    1.1005e+02    3.8802e+02 ;   C110 - C19    - H9R   
  3042   3045   3047      1    1.1005e+02    3.8802e+02 ;   C110 - C19    - H9S   
  3042   3045   3048      1    1.1205e+02    3.9497e+02 ;   C110 - C19    - C18   
  3043   3042   3044      1    1.0835e+02    3.2995e+02 ;   H10R - C110   - H10S  
  3043   3042   3045      1    1.1005e+02    3.8802e+02 ;   H10R - C110   - C19   
  3044   3042   3045      1    1.1005e+02    3.8802e+02 ;   H10S - C110   - C19   
  3045   3048   3049      1    1.1005e+02    3.8802e+02 ;    C19 - C18    - H8R   
  3045   3048   3050      1    1.1005e+02    3.8802e+02 ;    C19 - C18    - H8S   
  3045   3048   3051      1    1.1205e+02    3.9497e+02 ;    C19 - C18    - C17   
  3046   3045   3047      1    1.0835e+02    3.2995e+02 ;    H9R - C19    - H9S   
  3046   3045   3048      1    1.1005e+02    3.8802e+02 ;    H9R - C19    - C18   
  3047   3045   3048      1    1.1005e+02    3.8802e+02 ;    H9S - C19    - C18   
  3048   3051   3052      1    1.1005e+02    3.8802e+02 ;    C18 - C17    - H7R   
  3048   3051   3053      1    1.1005e+02    3.8802e+02 ;    C18 - C17    - H7S   
  3048   3051   3054      1    1.1205e+02    3.9497e+02 ;    C18 - C17    - C16   
  3049   3048   3050      1    1.0835e+02    3.2995e+02 ;    H8R - C18    - H8S   
  3049   3048   3051      1    1.1005e+02    3.8802e+02 ;    H8R - C18    - C17   
  3050   3048   3051      1    1.1005e+02    3.8802e+02 ;    H8S - C18    - C17   
  3051   3054   3055      1    1.1005e+02    3.8802e+02 ;    C17 - C16    - H6R   
  3051   3054   3056      1    1.1005e+02    3.8802e+02 ;    C17 - C16    - H6S   
  3051   3054   3057      1    1.1205e+02    3.9497e+02 ;    C17 - C16    - C15   
  3052   3051   3053      1    1.0835e+02    3.2995e+02 ;    H7R - C17    - H7S   
  3052   3051   3054      1    1.1005e+02    3.8802e+02 ;    H7R - C17    - C16   
  3053   3051   3054      1    1.1005e+02    3.8802e+02 ;    H7S - C17    - C16   
  3054   3057   3058      1    1.1005e+02    3.8802e+02 ;    C16 - C15    - H5R   
  3054   3057   3059      1    1.1005e+02    3.8802e+02 ;    C16 - C15    - H5S   
  3054   3057   3060      1    1.1205e+02    3.9497e+02 ;    C16 - C15    - C14   
  3055   3054   3056      1    1.0835e+02    3.2995e+02 ;    H6R - C16    - H6S   
  3055   3054   3057      1    1.1005e+02    3.8802e+02 ;    H6R - C16    - C15   
  3056   3054   3057      1    1.1005e+02    3.8802e+02 ;    H6S - C16    - C15   
  3057   3060   3061      1    1.1005e+02    3.8802e+02 ;    C15 - C14    - H4R   
  3057   3060   3062      1    1.1005e+02    3.8802e+02 ;    C15 - C14    - H4S   
  3057   3060   3063      1    1.1205e+02    3.9497e+02 ;    C15 - C14    - C13   
  3058   3057   3059      1    1.0835e+02    3.2995e+02 ;    H5R - C15    - H5S   
  3058   3057   3060      1    1.1005e+02    3.8802e+02 ;    H5R - C15    - C14   
  3059   3057   3060      1    1.1005e+02    3.8802e+02 ;    H5S - C15    - C14   
  3060   3063   3064      1    1.1005e+02    3.8802e+02 ;    C14 - C13    - H3R   
  3060   3063   3065      1    1.1005e+02    3.8802e+02 ;    C14 - C13    - H3S   
  3060   3063   3066      1    1.1205e+02    3.9497e+02 ;    C14 - C13    - C12   
  3061   3060   3062      1    1.0835e+02    3.2995e+02 ;    H4R - C14    - H4S   
  3061   3060   3063      1    1.1005e+02    3.8802e+02 ;    H4R - C14    - C13   
  3062   3060   3063      1    1.1005e+02    3.8802e+02 ;    H4S - C14    - C13   
  3063   3066   3067      1    1.1005e+02    3.8802e+02 ;    C13 - C12    - H2R   
  3063   3066   3068      1    1.1005e+02    3.8802e+02 ;    C13 - C12    - H2S   
  3064   3063   3065      1    1.0835e+02    3.2995e+02 ;    H3R - C13    - H3S   
  3064   3063   3066      1    1.1005e+02    3.8802e+02 ;    H3R - C13    - C12   
  3065   3063   3066      1    1.1005e+02    3.8802e+02 ;    H3S - C13    - C12   
  3067   3066   3068      1    1.0835e+02    3.2995e+02 ;    H2R - C12    - H2S   
  3069   3070   3071      1    1.0835e+02    3.2995e+02 ;   H14T - C114   - H14R  
  3069   3070   3072      1    1.0835e+02    3.2995e+02 ;   H14T - C114   - H14S  
  3069   3070   3073      1    1.1005e+02    3.8802e+02 ;   H14T - C114   - C113  
  3070   3073   3074      1    1.1005e+02    3.8802e+02 ;   C114 - C113   - H13R  
  3070   3073   3075      1    1.1005e+02    3.8802e+02 ;   C114 - C113   - H13S  
  3070   3073   3076      1    1.1205e+02    3.9497e+02 ;   C114 - C113   - C112  
  3071   3070   3072      1    1.0835e+02    3.2995e+02 ;   H14R - C114   - H14S  
  3071   3070   3073      1    1.1005e+02    3.8802e+02 ;   H14R - C114   - C113  
  3072   3070   3073      1    1.1005e+02    3.8802e+02 ;   H14S - C114   - C113  
  3073   3076   3077      1    1.1005e+02    3.8802e+02 ;   C113 - C112   - H12R  
  3073   3076   3078      1    1.1005e+02    3.8802e+02 ;   C113 - C112   - H12S  
  3073   3076   3079      1    1.1205e+02    3.9497e+02 ;   C113 - C112   - C111  
  3074   3073   3075      1    1.0835e+02    3.2995e+02 ;   H13R - C113   - H13S  
  3074   3073   3076      1    1.1005e+02    3.8802e+02 ;   H13R - C113   - C112  
  3075   3073   3076      1    1.1005e+02    3.8802e+02 ;   H13S - C113   - C112  
  3076   3079   3080      1    1.1005e+02    3.8802e+02 ;   C112 - C111   - H11R  
  3076   3079   3081      1    1.1005e+02    3.8802e+02 ;   C112 - C111   - H11S  
  3076   3079   3082      1    1.1205e+02    3.9497e+02 ;   C112 - C111   - C110  
  3077   3076   3078      1    1.0835e+02    3.2995e+02 ;   H12R - C112   - H12S  
  3077   3076   3079      1    1.1005e+02    3.8802e+02 ;   H12R - C112   - C111  
  3078   3076   3079      1    1.1005e+02    3.8802e+02 ;   H12S - C112   - C111  
  3079   3082   3083      1    1.1005e+02    3.8802e+02 ;   C111 - C110   - H10R  
  3079   3082   3084      1    1.1005e+02    3.8802e+02 ;   C111 - C110   - H10S  
  3079   3082   3085      1    1.1205e+02    3.9497e+02 ;   C111 - C110   - C19   
  3080   3079   3081      1    1.0835e+02    3.2995e+02 ;   H11R - C111   - H11S  
  3080   3079   3082      1    1.1005e+02    3.8802e+02 ;   H11R - C111   - C110  
  3081   3079   3082      1    1.1005e+02    3.8802e+02 ;   H11S - C111   - C110  
  3082   3085   3086      1    1.1005e+02    3.8802e+02 ;   C110 - C19    - H9R   
  3082   3085   3087      1    1.1005e+02    3.8802e+02 ;   C110 - C19    - H9S   
  3082   3085   3088      1    1.1205e+02    3.9497e+02 ;   C110 - C19    - C18   
  3083   3082   3084      1    1.0835e+02    3.2995e+02 ;   H10R - C110   - H10S  
  3083   3082   3085      1    1.1005e+02    3.8802e+02 ;   H10R - C110   - C19   
  3084   3082   3085      1    1.1005e+02    3.8802e+02 ;   H10S - C110   - C19   
  3085   3088   3089      1    1.1005e+02    3.8802e+02 ;    C19 - C18    - H8R   
  3085   3088   3090      1    1.1005e+02    3.8802e+02 ;    C19 - C18    - H8S   
  3085   3088   3091      1    1.1205e+02    3.9497e+02 ;    C19 - C18    - C17   
  3086   3085   3087      1    1.0835e+02    3.2995e+02 ;    H9R - C19    - H9S   
  3086   3085   3088      1    1.1005e+02    3.8802e+02 ;    H9R - C19    - C18   
  3087   3085   3088      1    1.1005e+02    3.8802e+02 ;    H9S - C19    - C18   
  3088   3091   3092      1    1.1005e+02    3.8802e+02 ;    C18 - C17    - H7R   
  3088   3091   3093      1    1.1005e+02    3.8802e+02 ;    C18 - C17    - H7S   
  3088   3091   3094      1    1.1205e+02    3.9497e+02 ;    C18 - C17    - C16   
  3089   3088   3090      1    1.0835e+02    3.2995e+02 ;    H8R - C18    - H8S   
  3089   3088   3091      1    1.1005e+02    3.8802e+02 ;    H8R - C18    - C17   
  3090   3088   3091      1    1.1005e+02    3.8802e+02 ;    H8S - C18    - C17   
  3091   3094   3095      1    1.1005e+02    3.8802e+02 ;    C17 - C16    - H6R   
  3091   3094   3096      1    1.1005e+02    3.8802e+02 ;    C17 - C16    - H6S   
  3091   3094   3097      1    1.1205e+02    3.9497e+02 ;    C17 - C16    - C15   
  3092   3091   3093      1    1.0835e+02    3.2995e+02 ;    H7R - C17    - H7S   
  3092   3091   3094      1    1.1005e+02    3.8802e+02 ;    H7R - C17    - C16   
  3093   3091   3094      1    1.1005e+02    3.8802e+02 ;    H7S - C17    - C16   
  3094   3097   3098      1    1.1005e+02    3.8802e+02 ;    C16 - C15    - H5R   
  3094   3097   3099      1    1.1005e+02    3.8802e+02 ;    C16 - C15    - H5S   
  3094   3097   3100      1    1.1205e+02    3.9497e+02 ;    C16 - C15    - C14   
  3095   3094   3096      1    1.0835e+02    3.2995e+02 ;    H6R - C16    - H6S   
  3095   3094   3097      1    1.1005e+02    3.8802e+02 ;    H6R - C16    - C15   
  3096   3094   3097      1    1.1005e+02    3.8802e+02 ;    H6S - C16    - C15   
  3097   3100   3101      1    1.1005e+02    3.8802e+02 ;    C15 - C14    - H4R   
  3097   3100   3102      1    1.1005e+02    3.8802e+02 ;    C15 - C14    - H4S   
  3097   3100   3103      1    1.1205e+02    3.9497e+02 ;    C15 - C14    - C13   
  3098   3097   3099      1    1.0835e+02    3.2995e+02 ;    H5R - C15    - H5S   
  3098   3097   3100      1    1.1005e+02    3.8802e+02 ;    H5R - C15    - C14   
  3099   3097   3100      1    1.1005e+02    3.8802e+02 ;    H5S - C15    - C14   
  3100   3103   3104      1    1.1005e+02    3.8802e+02 ;    C14 - C13    - H3R   
  3100   3103   3105      1    1.1005e+02    3.8802e+02 ;    C14 - C13    - H3S   
  3100   3103   3106      1    1.1205e+02    3.9497e+02 ;    C14 - C13    - C12   
  3101   3100   3102      1    1.0835e+02    3.2995e+02 ;    H4R - C14    - H4S   
  3101   3100   3103      1    1.1005e+02    3.8802e+02 ;    H4R - C14    - C13   
  3102   3100   3103      1    1.1005e+02    3.8802e+02 ;    H4S - C14    - C13   
  3103   3106   3107      1    1.1005e+02    3.8802e+02 ;    C13 - C12    - H2R   
  3103   3106   3108      1    1.1005e+02    3.8802e+02 ;    C13 - C12    - H2S   
  3103   3106   3109      1    1.1053e+02    5.3379e+02 ;    C13 - C12    - C11   
  3104   3103   3105      1    1.0835e+02    3.2995e+02 ;    H3R - C13    - H3S   
  3104   3103   3106      1    1.1005e+02    3.8802e+02 ;    H3R - C13    - C12   
  3105   3103   3106      1    1.1005e+02    3.8802e+02 ;    H3S - C13    - C12   
  3106   3109   3110      1    1.2311e+02    5.6928e+02 ;    C12 - C11    - O12   
  3106   3109   3111      1    1.1196e+02    5.7957e+02 ;    C12 - C11    - O11   
  3107   3106   3108      1    1.0835e+02    3.2995e+02 ;    H2R - C12    - H2S   
  3107   3106   3109      1    1.0968e+02    3.9497e+02 ;    H2R - C12    - C11   
  3108   3106   3109      1    1.0968e+02    3.9497e+02 ;    H2S - C12    - C11   
  3109   3111   3112      1    1.1514e+02    5.3246e+02 ;    C11 - O11    - C1    
  3110   3109   3111      1    1.2333e+02    6.3538e+02 ;    O12 - C11    - O11   
  3111   3112   3113      1    1.0882e+02    4.2543e+02 ;    O11 - C1     - HR    
  3111   3112   3114      1    1.0882e+02    4.2543e+02 ;    O11 - C1     - HS    
  3111   3112   3115      1    1.0842e+02    5.6718e+02 ;    O11 - C1     - C2    
  3112   3115   3116      1    1.1007e+02    3.8794e+02 ;     C1 - C2     - HX    
  3112   3115   3117      1    1.1063e+02    5.2894e+02 ;     C1 - C2     - C3    
  3112   3115   3144      1    1.0842e+02    5.6718e+02 ;     C1 - C2     - O21   
  3113   3112   3114      1    1.0955e+02    3.2786e+02 ;     HR - C1     - HS    
  3113   3112   3115      1    1.1007e+02    3.8794e+02 ;     HR - C1     - C2    
  3114   3112   3115      1    1.1007e+02    3.8794e+02 ;     HS - C1     - C2    
  3115   3117   3118      1    1.1007e+02    3.8794e+02 ;     C2 - C3     - HA    
  3115   3117   3119      1    1.1007e+02    3.8794e+02 ;     C2 - C3     - HB    
  3115   3117   3120      1    1.0842e+02    5.6718e+02 ;     C2 - C3     - O31   
  3115   3144   3145      1    1.1514e+02    5.3246e+02 ;     C2 - O21    - C21   
  3116   3115   3117      1    1.1007e+02    3.8794e+02 ;     HX - C2     - C3    
  3116   3115   3144      1    1.0882e+02    4.2543e+02 ;     HX - C2     - O21   
  3117   3115   3144      1    1.0842e+02    5.6718e+02 ;     C3 - C2     - O21   
  3117   3120   3121      1    1.2050e+02    8.3680e+02 ;     C3 - O31    - P31   
  3118   3117   3119      1    1.0955e+02    3.2786e+02 ;     HA - C3     - HB    
  3118   3117   3120      1    1.0882e+02    4.2543e+02 ;     HA - C3     - O31   
  3119   3117   3120      1    1.0882e+02    4.2543e+02 ;     HB - C3     - O31   
  3120   3121   3122      1    1.0260e+02    7.5312e+02 ;    O31 - P31    - O32   
  3120   3121   3142      1    1.0823e+02    8.3680e+02 ;    O31 - P31    - O33   
  3120   3121   3143      1    1.0823e+02    8.3680e+02 ;    O31 - P31    - O34   
  3121   3122   3123      1    1.2050e+02    8.3680e+02 ;    P31 - O32    - C31   
  3122   3121   3142      1    1.0823e+02    8.3680e+02 ;    O32 - P31    - O33   
  3122   3121   3143      1    1.0823e+02    8.3680e+02 ;    O32 - P31    - O34   
  3122   3123   3124      1    1.0882e+02    4.2543e+02 ;    O32 - C31    - H1A   
  3122   3123   3125      1    1.0882e+02    4.2543e+02 ;    O32 - C31    - H1B   
  3122   3123   3126      1    1.0842e+02    5.6718e+02 ;    O32 - C31    - C32   
  3123   3126   3127      1    1.1174e+02    3.8510e+02 ;    C31 - C32    - H2A   
  3123   3126   3128      1    1.1174e+02    3.8510e+02 ;    C31 - C32    - H2B   
  3123   3126   3129      1    1.1432e+02    5.3932e+02 ;    C31 - C32    - N31   
  3124   3123   3125      1    1.0955e+02    3.2786e+02 ;    H1A - C31    - H1B   
  3124   3123   3126      1    1.1007e+02    3.8794e+02 ;    H1A - C31    - C32   
  3125   3123   3126      1    1.1007e+02    3.8794e+02 ;    H1B - C31    - C32   
  3126   3129   3130      1    1.1064e+02    5.2585e+02 ;    C32 - N31    - C33   
  3126   3129   3134      1    1.1064e+02    5.2585e+02 ;    C32 - N31    - C34   
  3126   3129   3138      1    1.1064e+02    5.2585e+02 ;    C32 - N31    - C35   
  3127   3126   3128      1    1.1074e+02    3.2669e+02 ;    H2A - C32    - H2B   
  3127   3126   3129      1    1.0791e+02    4.1020e+02 ;    H2A - C32    - N31   
  3128   3126   3129      1    1.0791e+02    4.1020e+02 ;    H2B - C32    - N31   
  3129   3130   3131      1    1.0791e+02    4.1020e+02 ;    N31 - C33    - H3A   
  3129   3130   3132      1    1.0791e+02    4.1020e+02 ;    N31 - C33    - H3B   
  3129   3130   3133      1    1.0791e+02    4.1020e+02 ;    N31 - C33    - H3C   
  3129   3134   3135      1    1.0791e+02    4.1020e+02 ;    N31 - C34    - H4A   
  3129   3134   3136      1    1.0791e+02    4.1020e+02 ;    N31 - C34    - H4B   
  3129   3134   3137      1    1.0791e+02    4.1020e+02 ;    N31 - C34    - H4C   
  3129   3138   3139      1    1.0791e+02    4.1020e+02 ;    N31 - C35    - H5A   
  3129   3138   3140      1    1.0791e+02    4.1020e+02 ;    N31 - C35    - H5B   
  3129   3138   3141      1    1.0791e+02    4.1020e+02 ;    N31 - C35    - H5C   
  3130   3129   3134      1    1.1064e+02    5.2585e+02 ;    C33 - N31    - C34   
  3130   3129   3138      1    1.1064e+02    5.2585e+02 ;    C33 - N31    - C35   
  3131   3130   3132      1    1.1074e+02    3.2669e+02 ;    H3A - C33    - H3B   
  3131   3130   3133      1    1.1074e+02    3.2669e+02 ;    H3A - C33    - H3C   
  3132   3130   3133      1    1.1074e+02    3.2669e+02 ;    H3B - C33    - H3C   
  3134   3129   3138      1    1.1064e+02    5.2585e+02 ;    C34 - N31    - C35   
  3135   3134   3136      1    1.1074e+02    3.2669e+02 ;    H4A - C34    - H4B   
  3135   3134   3137      1    1.1074e+02    3.2669e+02 ;    H4A - C34    - H4C   
  3136   3134   3137      1    1.1074e+02    3.2669e+02 ;    H4B - C34    - H4C   
  3139   3138   3140      1    1.1074e+02    3.2669e+02 ;    H5A - C35    - H5B   
  3139   3138   3141      1    1.1074e+02    3.2669e+02 ;    H5A - C35    - H5C   
  3140   3138   3141      1    1.1074e+02    3.2669e+02 ;    H5B - C35    - H5C   
  3142   3121   3143      1    1.1990e+02    1.1715e+03 ;    O33 - P31    - O34   
  3144   3145   3146      1    1.2333e+02    6.3538e+02 ;    O21 - C21    - O22   
  3144   3145   3184      1    1.1196e+02    5.7957e+02 ;    O21 - C21    - C12   
  3145   3184   3181      1    1.1053e+02    5.3379e+02 ;    C21 - C12    - C13   
  3145   3184   3185      1    1.0968e+02    3.9497e+02 ;    C21 - C12    - H2R   
  3145   3184   3186      1    1.0968e+02    3.9497e+02 ;    C21 - C12    - H2S   
  3146   3145   3184      1    1.2311e+02    5.6928e+02 ;    O22 - C21    - C12   
  3147   3148   3149      1    1.0835e+02    3.2995e+02 ;   H14T - C114   - H14R  
  3147   3148   3150      1    1.0835e+02    3.2995e+02 ;   H14T - C114   - H14S  
  3147   3148   3151      1    1.1005e+02    3.8802e+02 ;   H14T - C114   - C113  
  3148   3151   3152      1    1.1005e+02    3.8802e+02 ;   C114 - C113   - H13R  
  3148   3151   3153      1    1.1005e+02    3.8802e+02 ;   C114 - C113   - H13S  
  3148   3151   3154      1    1.1205e+02    3.9497e+02 ;   C114 - C113   - C112  
  3149   3148   3150      1    1.0835e+02    3.2995e+02 ;   H14R - C114   - H14S  
  3149   3148   3151      1    1.1005e+02    3.8802e+02 ;   H14R - C114   - C113  
  3150   3148   3151      1    1.1005e+02    3.8802e+02 ;   H14S - C114   - C113  
  3151   3154   3155      1    1.1005e+02    3.8802e+02 ;   C113 - C112   - H12R  
  3151   3154   3156      1    1.1005e+02    3.8802e+02 ;   C113 - C112   - H12S  
  3151   3154   3157      1    1.1205e+02    3.9497e+02 ;   C113 - C112   - C111  
  3152   3151   3153      1    1.0835e+02    3.2995e+02 ;   H13R - C113   - H13S  
  3152   3151   3154      1    1.1005e+02    3.8802e+02 ;   H13R - C113   - C112  
  3153   3151   3154      1    1.1005e+02    3.8802e+02 ;   H13S - C113   - C112  
  3154   3157   3158      1    1.1005e+02    3.8802e+02 ;   C112 - C111   - H11R  
  3154   3157   3159      1    1.1005e+02    3.8802e+02 ;   C112 - C111   - H11S  
  3154   3157   3160      1    1.1205e+02    3.9497e+02 ;   C112 - C111   - C110  
  3155   3154   3156      1    1.0835e+02    3.2995e+02 ;   H12R - C112   - H12S  
  3155   3154   3157      1    1.1005e+02    3.8802e+02 ;   H12R - C112   - C111  
  3156   3154   3157      1    1.1005e+02    3.8802e+02 ;   H12S - C112   - C111  
  3157   3160   3161      1    1.1005e+02    3.8802e+02 ;   C111 - C110   - H10R  
  3157   3160   3162      1    1.1005e+02    3.8802e+02 ;   C111 - C110   - H10S  
  3157   3160   3163      1    1.1205e+02    3.9497e+02 ;   C111 - C110   - C19   
  3158   3157   3159      1    1.0835e+02    3.2995e+02 ;   H11R - C111   - H11S  
  3158   3157   3160      1    1.1005e+02    3.8802e+02 ;   H11R - C111   - C110  
  3159   3157   3160      1    1.1005e+02    3.8802e+02 ;   H11S - C111   - C110  
  3160   3163   3164      1    1.1005e+02    3.8802e+02 ;   C110 - C19    - H9R   
  3160   3163   3165      1    1.1005e+02    3.8802e+02 ;   C110 - C19    - H9S   
  3160   3163   3166      1    1.1205e+02    3.9497e+02 ;   C110 - C19    - C18   
  3161   3160   3162      1    1.0835e+02    3.2995e+02 ;   H10R - C110   - H10S  
  3161   3160   3163      1    1.1005e+02    3.8802e+02 ;   H10R - C110   - C19   
  3162   3160   3163      1    1.1005e+02    3.8802e+02 ;   H10S - C110   - C19   
  3163   3166   3167      1    1.1005e+02    3.8802e+02 ;    C19 - C18    - H8R   
  3163   3166   3168      1    1.1005e+02    3.8802e+02 ;    C19 - C18    - H8S   
  3163   3166   3169      1    1.1205e+02    3.9497e+02 ;    C19 - C18    - C17   
  3164   3163   3165      1    1.0835e+02    3.2995e+02 ;    H9R - C19    - H9S   
  3164   3163   3166      1    1.1005e+02    3.8802e+02 ;    H9R - C19    - C18   
  3165   3163   3166      1    1.1005e+02    3.8802e+02 ;    H9S - C19    - C18   
  3166   3169   3170      1    1.1005e+02    3.8802e+02 ;    C18 - C17    - H7R   
  3166   3169   3171      1    1.1005e+02    3.8802e+02 ;    C18 - C17    - H7S   
  3166   3169   3172      1    1.1205e+02    3.9497e+02 ;    C18 - C17    - C16   
  3167   3166   3168      1    1.0835e+02    3.2995e+02 ;    H8R - C18    - H8S   
  3167   3166   3169      1    1.1005e+02    3.8802e+02 ;    H8R - C18    - C17   
  3168   3166   3169      1    1.1005e+02    3.8802e+02 ;    H8S - C18    - C17   
  3169   3172   3173      1    1.1005e+02    3.8802e+02 ;    C17 - C16    - H6R   
  3169   3172   3174      1    1.1005e+02    3.8802e+02 ;    C17 - C16    - H6S   
  3169   3172   3175      1    1.1205e+02    3.9497e+02 ;    C17 - C16    - C15   
  3170   3169   3171      1    1.0835e+02    3.2995e+02 ;    H7R - C17    - H7S   
  3170   3169   3172      1    1.1005e+02    3.8802e+02 ;    H7R - C17    - C16   
  3171   3169   3172      1    1.1005e+02    3.8802e+02 ;    H7S - C17    - C16   
  3172   3175   3176      1    1.1005e+02    3.8802e+02 ;    C16 - C15    - H5R   
  3172   3175   3177      1    1.1005e+02    3.8802e+02 ;    C16 - C15    - H5S   
  3172   3175   3178      1    1.1205e+02    3.9497e+02 ;    C16 - C15    - C14   
  3173   3172   3174      1    1.0835e+02    3.2995e+02 ;    H6R - C16    - H6S   
  3173   3172   3175      1    1.1005e+02    3.8802e+02 ;    H6R - C16    - C15   
  3174   3172   3175      1    1.1005e+02    3.8802e+02 ;    H6S - C16    - C15   
  3175   3178   3179      1    1.1005e+02    3.8802e+02 ;    C15 - C14    - H4R   
  3175   3178   3180      1    1.1005e+02    3.8802e+02 ;    C15 - C14    - H4S   
  3175   3178   3181      1    1.1205e+02    3.9497e+02 ;    C15 - C14    - C13   
  3176   3175   3177      1    1.0835e+02    3.2995e+02 ;    H5R - C15    - H5S   
  3176   3175   3178      1    1.1005e+02    3.8802e+02 ;    H5R - C15    - C14   
  3177   3175   3178      1    1.1005e+02    3.8802e+02 ;    H5S - C15    - C14   
  3178   3181   3182      1    1.1005e+02    3.8802e+02 ;    C14 - C13    - H3R   
  3178   3181   3183      1    1.1005e+02    3.8802e+02 ;    C14 - C13    - H3S   
  3178   3181   3184      1    1.1205e+02    3.9497e+02 ;    C14 - C13    - C12   
  3179   3178   3180      1    1.0835e+02    3.2995e+02 ;    H4R - C14    - H4S   
  3179   3178   3181      1    1.1005e+02    3.8802e+02 ;    H4R - C14    - C13   
  3180   3178   3181      1    1.1005e+02    3.8802e+02 ;    H4S - C14    - C13   
  3181   3184   3185      1    1.1005e+02    3.8802e+02 ;    C13 - C12    - H2R   
  3181   3184   3186      1    1.1005e+02    3.8802e+02 ;    C13 - C12    - H2S   
  3182   3181   3183      1    1.0835e+02    3.2995e+02 ;    H3R - C13    - H3S   
  3182   3181   3184      1    1.1005e+02    3.8802e+02 ;    H3R - C13    - C12   
  3183   3181   3184      1    1.1005e+02    3.8802e+02 ;    H3S - C13    - C12   
  3185   3184   3186      1    1.0835e+02    3.2995e+02 ;    H2R - C12    - H2S   
  3187   3188   3189      1    1.0835e+02    3.2995e+02 ;   H14T - C114   - H14R  
  3187   3188   3190      1    1.0835e+02    3.2995e+02 ;   H14T - C114   - H14S  
  3187   3188   3191      1    1.1005e+02    3.8802e+02 ;   H14T - C114   - C113  
  3188   3191   3192      1    1.1005e+02    3.8802e+02 ;   C114 - C113   - H13R  
  3188   3191   3193      1    1.1005e+02    3.8802e+02 ;   C114 - C113   - H13S  
  3188   3191   3194      1    1.1205e+02    3.9497e+02 ;   C114 - C113   - C112  
  3189   3188   3190      1    1.0835e+02    3.2995e+02 ;   H14R - C114   - H14S  
  3189   3188   3191      1    1.1005e+02    3.8802e+02 ;   H14R - C114   - C113  
  3190   3188   3191      1    1.1005e+02    3.8802e+02 ;   H14S - C114   - C113  
  3191   3194   3195      1    1.1005e+02    3.8802e+02 ;   C113 - C112   - H12R  
  3191   3194   3196      1    1.1005e+02    3.8802e+02 ;   C113 - C112   - H12S  
  3191   3194   3197      1    1.1205e+02    3.9497e+02 ;   C113 - C112   - C111  
  3192   3191   3193      1    1.0835e+02    3.2995e+02 ;   H13R - C113   - H13S  
  3192   3191   3194      1    1.1005e+02    3.8802e+02 ;   H13R - C113   - C112  
  3193   3191   3194      1    1.1005e+02    3.8802e+02 ;   H13S - C113   - C112  
  3194   3197   3198      1    1.1005e+02    3.8802e+02 ;   C112 - C111   - H11R  
  3194   3197   3199      1    1.1005e+02    3.8802e+02 ;   C112 - C111   - H11S  
  3194   3197   3200      1    1.1205e+02    3.9497e+02 ;   C112 - C111   - C110  
  3195   3194   3196      1    1.0835e+02    3.2995e+02 ;   H12R - C112   - H12S  
  3195   3194   3197      1    1.1005e+02    3.8802e+02 ;   H12R - C112   - C111  
  3196   3194   3197      1    1.1005e+02    3.8802e+02 ;   H12S - C112   - C111  
  3197   3200   3201      1    1.1005e+02    3.8802e+02 ;   C111 - C110   - H10R  
  3197   3200   3202      1    1.1005e+02    3.8802e+02 ;   C111 - C110   - H10S  
  3197   3200   3203      1    1.1205e+02    3.9497e+02 ;   C111 - C110   - C19   
  3198   3197   3199      1    1.0835e+02    3.2995e+02 ;   H11R - C111   - H11S  
  3198   3197   3200      1    1.1005e+02    3.8802e+02 ;   H11R - C111   - C110  
  3199   3197   3200      1    1.1005e+02    3.8802e+02 ;   H11S - C111   - C110  
  3200   3203   3204      1    1.1005e+02    3.8802e+02 ;   C110 - C19    - H9R   
  3200   3203   3205      1    1.1005e+02    3.8802e+02 ;   C110 - C19    - H9S   
  3200   3203   3206      1    1.1205e+02    3.9497e+02 ;   C110 - C19    - C18   
  3201   3200   3202      1    1.0835e+02    3.2995e+02 ;   H10R - C110   - H10S  
  3201   3200   3203      1    1.1005e+02    3.8802e+02 ;   H10R - C110   - C19   
  3202   3200   3203      1    1.1005e+02    3.8802e+02 ;   H10S - C110   - C19   
  3203   3206   3207      1    1.1005e+02    3.8802e+02 ;    C19 - C18    - H8R   
  3203   3206   3208      1    1.1005e+02    3.8802e+02 ;    C19 - C18    - H8S   
  3203   3206   3209      1    1.1205e+02    3.9497e+02 ;    C19 - C18    - C17   
  3204   3203   3205      1    1.0835e+02    3.2995e+02 ;    H9R - C19    - H9S   
  3204   3203   3206      1    1.1005e+02    3.8802e+02 ;    H9R - C19    - C18   
  3205   3203   3206      1    1.1005e+02    3.8802e+02 ;    H9S - C19    - C18   
  3206   3209   3210      1    1.1005e+02    3.8802e+02 ;    C18 - C17    - H7R   
  3206   3209   3211      1    1.1005e+02    3.8802e+02 ;    C18 - C17    - H7S   
  3206   3209   3212      1    1.1205e+02    3.9497e+02 ;    C18 - C17    - C16   
  3207   3206   3208      1    1.0835e+02    3.2995e+02 ;    H8R - C18    - H8S   
  3207   3206   3209      1    1.1005e+02    3.8802e+02 ;    H8R - C18    - C17   
  3208   3206   3209      1    1.1005e+02    3.8802e+02 ;    H8S - C18    - C17   
  3209   3212   3213      1    1.1005e+02    3.8802e+02 ;    C17 - C16    - H6R   
  3209   3212   3214      1    1.1005e+02    3.8802e+02 ;    C17 - C16    - H6S   
  3209   3212   3215      1    1.1205e+02    3.9497e+02 ;    C17 - C16    - C15   
  3210   3209   3211      1    1.0835e+02    3.2995e+02 ;    H7R - C17    - H7S   
  3210   3209   3212      1    1.1005e+02    3.8802e+02 ;    H7R - C17    - C16   
  3211   3209   3212      1    1.1005e+02    3.8802e+02 ;    H7S - C17    - C16   
  3212   3215   3216      1    1.1005e+02    3.8802e+02 ;    C16 - C15    - H5R   
  3212   3215   3217      1    1.1005e+02    3.8802e+02 ;    C16 - C15    - H5S   
  3212   3215   3218      1    1.1205e+02    3.9497e+02 ;    C16 - C15    - C14   
  3213   3212   3214      1    1.0835e+02    3.2995e+02 ;    H6R - C16    - H6S   
  3213   3212   3215      1    1.1005e+02    3.8802e+02 ;    H6R - C16    - C15   
  3214   3212   3215      1    1.1005e+02    3.8802e+02 ;    H6S - C16    - C15   
  3215   3218   3219      1    1.1005e+02    3.8802e+02 ;    C15 - C14    - H4R   
  3215   3218   3220      1    1.1005e+02    3.8802e+02 ;    C15 - C14    - H4S   
  3215   3218   3221      1    1.1205e+02    3.9497e+02 ;    C15 - C14    - C13   
  3216   3215   3217      1    1.0835e+02    3.2995e+02 ;    H5R - C15    - H5S   
  3216   3215   3218      1    1.1005e+02    3.8802e+02 ;    H5R - C15    - C14   
  3217   3215   3218      1    1.1005e+02    3.8802e+02 ;    H5S - C15    - C14   
  3218   3221   3222      1    1.1005e+02    3.8802e+02 ;    C14 - C13    - H3R   
  3218   3221   3223      1    1.1005e+02    3.8802e+02 ;    C14 - C13    - H3S   
  3218   3221   3224      1    1.1205e+02    3.9497e+02 ;    C14 - C13    - C12   
  3219   3218   3220      1    1.0835e+02    3.2995e+02 ;    H4R - C14    - H4S   
  3219   3218   3221      1    1.1005e+02    3.8802e+02 ;    H4R - C14    - C13   
  3220   3218   3221      1    1.1005e+02    3.8802e+02 ;    H4S - C14    - C13   
  3221   3224   3225      1    1.1005e+02    3.8802e+02 ;    C13 - C12    - H2R   
  3221   3224   3226      1    1.1005e+02    3.8802e+02 ;    C13 - C12    - H2S   
  3221   3224   3227      1    1.1053e+02    5.3379e+02 ;    C13 - C12    - C11   
  3222   3221   3223      1    1.0835e+02    3.2995e+02 ;    H3R - C13    - H3S   
  3222   3221   3224      1    1.1005e+02    3.8802e+02 ;    H3R - C13    - C12   
  3223   3221   3224      1    1.1005e+02    3.8802e+02 ;    H3S - C13    - C12   
  3224   3227   3228      1    1.2311e+02    5.6928e+02 ;    C12 - C11    - O12   
  3224   3227   3229      1    1.1196e+02    5.7957e+02 ;    C12 - C11    - O11   
  3225   3224   3226      1    1.0835e+02    3.2995e+02 ;    H2R - C12    - H2S   
  3225   3224   3227      1    1.0968e+02    3.9497e+02 ;    H2R - C12    - C11   
  3226   3224   3227      1    1.0968e+02    3.9497e+02 ;    H2S - C12    - C11   
  3227   3229   3230      1    1.1514e+02    5.3246e+02 ;    C11 - O11    - C1    
  3228   3227   3229      1    1.2333e+02    6.3538e+02 ;    O12 - C11    - O11   
  3229   3230   3231      1    1.0882e+02    4.2543e+02 ;    O11 - C1     - HR    
  3229   3230   3232      1    1.0882e+02    4.2543e+02 ;    O11 - C1     - HS    
  3229   3230   3233      1    1.0842e+02    5.6718e+02 ;    O11 - C1     - C2    
  3230   3233   3234      1    1.1007e+02    3.8794e+02 ;     C1 - C2     - HX    
  3230   3233   3235      1    1.1063e+02    5.2894e+02 ;     C1 - C2     - C3    
  3230   3233   3262      1    1.0842e+02    5.6718e+02 ;     C1 - C2     - O21   
  3231   3230   3232      1    1.0955e+02    3.2786e+02 ;     HR - C1     - HS    
  3231   3230   3233      1    1.1007e+02    3.8794e+02 ;     HR - C1     - C2    
  3232   3230   3233      1    1.1007e+02    3.8794e+02 ;     HS - C1     - C2    
  3233   3235   3236      1    1.1007e+02    3.8794e+02 ;     C2 - C3     - HA    
  3233   3235   3237      1    1.1007e+02    3.8794e+02 ;     C2 - C3     - HB    
  3233   3235   3238      1    1.0842e+02    5.6718e+02 ;     C2 - C3     - O31   
  3233   3262   3263      1    1.1514e+02    5.3246e+02 ;     C2 - O21    - C21   
  3234   3233   3235      1    1.1007e+02    3.8794e+02 ;     HX - C2     - C3    
  3234   3233   3262      1    1.0882e+02    4.2543e+02 ;     HX - C2     - O21   
  3235   3233   3262      1    1.0842e+02    5.6718e+02 ;     C3 - C2     - O21   
  3235   3238   3239      1    1.2050e+02    8.3680e+02 ;     C3 - O31    - P31   
  3236   3235   3237      1    1.0955e+02    3.2786e+02 ;     HA - C3     - HB    
  3236   3235   3238      1    1.0882e+02    4.2543e+02 ;     HA - C3     - O31   
  3237   3235   3238      1    1.0882e+02    4.2543e+02 ;     HB - C3     - O31   
  3238   3239   3240      1    1.0260e+02    7.5312e+02 ;    O31 - P31    - O32   
  3238   3239   3260      1    1.0823e+02    8.3680e+02 ;    O31 - P31    - O33   
  3238   3239   3261      1    1.0823e+02    8.3680e+02 ;    O31 - P31    - O34   
  3239   3240   3241      1    1.2050e+02    8.3680e+02 ;    P31 - O32    - C31   
  3240   3239   3260      1    1.0823e+02    8.3680e+02 ;    O32 - P31    - O33   
  3240   3239   3261      1    1.0823e+02    8.3680e+02 ;    O32 - P31    - O34   
  3240   3241   3242      1    1.0882e+02    4.2543e+02 ;    O32 - C31    - H1A   
  3240   3241   3243      1    1.0882e+02    4.2543e+02 ;    O32 - C31    - H1B   
  3240   3241   3244      1    1.0842e+02    5.6718e+02 ;    O32 - C31    - C32   
  3241   3244   3245      1    1.1174e+02    3.8510e+02 ;    C31 - C32    - H2A   
  3241   3244   3246      1    1.1174e+02    3.8510e+02 ;    C31 - C32    - H2B   
  3241   3244   3247      1    1.1432e+02    5.3932e+02 ;    C31 - C32    - N31   
  3242   3241   3243      1    1.0955e+02    3.2786e+02 ;    H1A - C31    - H1B   
  3242   3241   3244      1    1.1007e+02    3.8794e+02 ;    H1A - C31    - C32   
  3243   3241   3244      1    1.1007e+02    3.8794e+02 ;    H1B - C31    - C32   
  3244   3247   3248      1    1.1064e+02    5.2585e+02 ;    C32 - N31    - C33   
  3244   3247   3252      1    1.1064e+02    5.2585e+02 ;    C32 - N31    - C34   
  3244   3247   3256      1    1.1064e+02    5.2585e+02 ;    C32 - N31    - C35   
  3245   3244   3246      1    1.1074e+02    3.2669e+02 ;    H2A - C32    - H2B   
  3245   3244   3247      1    1.0791e+02    4.1020e+02 ;    H2A - C32    - N31   
  3246   3244   3247      1    1.0791e+02    4.1020e+02 ;    H2B - C32    - N31   
  3247   3248   3249      1    1.0791e+02    4.1020e+02 ;    N31 - C33    - H3A   
  3247   3248   3250      1    1.0791e+02    4.1020e+02 ;    N31 - C33    - H3B   
  3247   3248   3251      1    1.0791e+02    4.1020e+02 ;    N31 - C33    - H3C   
  3247   3252   3253      1    1.0791e+02    4.1020e+02 ;    N31 - C34    - H4A   
  3247   3252   3254      1    1.0791e+02    4.1020e+02 ;    N31 - C34    - H4B   
  3247   3252   3255      1    1.0791e+02    4.1020e+02 ;    N31 - C34    - H4C   
  3247   3256   3257      1    1.0791e+02    4.1020e+02 ;    N31 - C35    - H5A   
  3247   3256   3258      1    1.0791e+02    4.1020e+02 ;    N31 - C35    - H5B   
  3247   3256   3259      1    1.0791e+02    4.1020e+02 ;    N31 - C35    - H5C   
  3248   3247   3252      1    1.1064e+02    5.2585e+02 ;    C33 - N31    - C34   
  3248   3247   3256      1    1.1064e+02    5.2585e+02 ;    C33 - N31    - C35   
  3249   3248   3250      1    1.1074e+02    3.2669e+02 ;    H3A - C33    - H3B   
  3249   3248   3251      1    1.1074e+02    3.2669e+02 ;    H3A - C33    - H3C   
  3250   3248   3251      1    1.1074e+02    3.2669e+02 ;    H3B - C33    - H3C   
  3252   3247   3256      1    1.1064e+02    5.2585e+02 ;    C34 - N31    - C35   
  3253   3252   3254      1    1.1074e+02    3.2669e+02 ;    H4A - C34    - H4B   
  3253   3252   3255      1    1.1074e+02    3.2669e+02 ;    H4A - C34    - H4C   
  3254   3252   3255      1    1.1074e+02    3.2669e+02 ;    H4B - C34    - H4C   
  3257   3256   3258      1    1.1074e+02    3.2669e+02 ;    H5A - C35    - H5B   
  3257   3256   3259      1    1.1074e+02    3.2669e+02 ;    H5A - C35    - H5C   
  3258   3256   3259      1    1.1074e+02    3.2669e+02 ;    H5B - C35    - H5C   
  3260   3239   3261      1    1.1990e+02    1.1715e+03 ;    O33 - P31    - O34   
  3262   3263   3264      1    1.2333e+02    6.3538e+02 ;    O21 - C21    - O22   
  3262   3263   3302      1    1.1196e+02    5.7957e+02 ;    O21 - C21    - C12   
  3263   3302   3299      1    1.1053e+02    5.3379e+02 ;    C21 - C12    - C13   
  3263   3302   3303      1    1.0968e+02    3.9497e+02 ;    C21 - C12    - H2R   
  3263   3302   3304      1    1.0968e+02    3.9497e+02 ;    C21 - C12    - H2S   
  3264   3263   3302      1    1.2311e+02    5.6928e+02 ;    O22 - C21    - C12   
  3265   3266   3267      1    1.0835e+02    3.2995e+02 ;   H14T - C114   - H14R  
  3265   3266   3268      1    1.0835e+02    3.2995e+02 ;   H14T - C114   - H14S  
  3265   3266   3269      1    1.1005e+02    3.8802e+02 ;   H14T - C114   - C113  
  3266   3269   3270      1    1.1005e+02    3.8802e+02 ;   C114 - C113   - H13R  
  3266   3269   3271      1    1.1005e+02    3.8802e+02 ;   C114 - C113   - H13S  
  3266   3269   3272      1    1.1205e+02    3.9497e+02 ;   C114 - C113   - C112  
  3267   3266   3268      1    1.0835e+02    3.2995e+02 ;   H14R - C114   - H14S  
  3267   3266   3269      1    1.1005e+02    3.8802e+02 ;   H14R - C114   - C113  
  3268   3266   3269      1    1.1005e+02    3.8802e+02 ;   H14S - C114   - C113  
  3269   3272   3273      1    1.1005e+02    3.8802e+02 ;   C113 - C112   - H12R  
  3269   3272   3274      1    1.1005e+02    3.8802e+02 ;   C113 - C112   - H12S  
  3269   3272   3275      1    1.1205e+02    3.9497e+02 ;   C113 - C112   - C111  
  3270   3269   3271      1    1.0835e+02    3.2995e+02 ;   H13R - C113   - H13S  
  3270   3269   3272      1    1.1005e+02    3.8802e+02 ;   H13R - C113   - C112  
  3271   3269   3272      1    1.1005e+02    3.8802e+02 ;   H13S - C113   - C112  
  3272   3275   3276      1    1.1005e+02    3.8802e+02 ;   C112 - C111   - H11R  
  3272   3275   3277      1    1.1005e+02    3.8802e+02 ;   C112 - C111   - H11S  
  3272   3275   3278      1    1.1205e+02    3.9497e+02 ;   C112 - C111   - C110  
  3273   3272   3274      1    1.0835e+02    3.2995e+02 ;   H12R - C112   - H12S  
  3273   3272   3275      1    1.1005e+02    3.8802e+02 ;   H12R - C112   - C111  
  3274   3272   3275      1    1.1005e+02    3.8802e+02 ;   H12S - C112   - C111  
  3275   3278   3279      1    1.1005e+02    3.8802e+02 ;   C111 - C110   - H10R  
  3275   3278   3280      1    1.1005e+02    3.8802e+02 ;   C111 - C110   - H10S  
  3275   3278   3281      1    1.1205e+02    3.9497e+02 ;   C111 - C110   - C19   
  3276   3275   3277      1    1.0835e+02    3.2995e+02 ;   H11R - C111   - H11S  
  3276   3275   3278      1    1.1005e+02    3.8802e+02 ;   H11R - C111   - C110  
  3277   3275   3278      1    1.1005e+02    3.8802e+02 ;   H11S - C111   - C110  
  3278   3281   3282      1    1.1005e+02    3.8802e+02 ;   C110 - C19    - H9R   
  3278   3281   3283      1    1.1005e+02    3.8802e+02 ;   C110 - C19    - H9S   
  3278   3281   3284      1    1.1205e+02    3.9497e+02 ;   C110 - C19    - C18   
  3279   3278   3280      1    1.0835e+02    3.2995e+02 ;   H10R - C110   - H10S  
  3279   3278   3281      1    1.1005e+02    3.8802e+02 ;   H10R - C110   - C19   
  3280   3278   3281      1    1.1005e+02    3.8802e+02 ;   H10S - C110   - C19   
  3281   3284   3285      1    1.1005e+02    3.8802e+02 ;    C19 - C18    - H8R   
  3281   3284   3286      1    1.1005e+02    3.8802e+02 ;    C19 - C18    - H8S   
  3281   3284   3287      1    1.1205e+02    3.9497e+02 ;    C19 - C18    - C17   
  3282   3281   3283      1    1.0835e+02    3.2995e+02 ;    H9R - C19    - H9S   
  3282   3281   3284      1    1.1005e+02    3.8802e+02 ;    H9R - C19    - C18   
  3283   3281   3284      1    1.1005e+02    3.8802e+02 ;    H9S - C19    - C18   
  3284   3287   3288      1    1.1005e+02    3.8802e+02 ;    C18 - C17    - H7R   
  3284   3287   3289      1    1.1005e+02    3.8802e+02 ;    C18 - C17    - H7S   
  3284   3287   3290      1    1.1205e+02    3.9497e+02 ;    C18 - C17    - C16   
  3285   3284   3286      1    1.0835e+02    3.2995e+02 ;    H8R - C18    - H8S   
  3285   3284   3287      1    1.1005e+02    3.8802e+02 ;    H8R - C18    - C17   
  3286   3284   3287      1    1.1005e+02    3.8802e+02 ;    H8S - C18    - C17   
  3287   3290   3291      1    1.1005e+02    3.8802e+02 ;    C17 - C16    - H6R   
  3287   3290   3292      1    1.1005e+02    3.8802e+02 ;    C17 - C16    - H6S   
  3287   3290   3293      1    1.1205e+02    3.9497e+02 ;    C17 - C16    - C15   
  3288   3287   3289      1    1.0835e+02    3.2995e+02 ;    H7R - C17    - H7S   
  3288   3287   3290      1    1.1005e+02    3.8802e+02 ;    H7R - C17    - C16   
  3289   3287   3290      1    1.1005e+02    3.8802e+02 ;    H7S - C17    - C16   
  3290   3293   3294      1    1.1005e+02    3.8802e+02 ;    C16 - C15    - H5R   
  3290   3293   3295      1    1.1005e+02    3.8802e+02 ;    C16 - C15    - H5S   
  3290   3293   3296      1    1.1205e+02    3.9497e+02 ;    C16 - C15    - C14   
  3291   3290   3292      1    1.0835e+02    3.2995e+02 ;    H6R - C16    - H6S   
  3291   3290   3293      1    1.1005e+02    3.8802e+02 ;    H6R - C16    - C15   
  3292   3290   3293      1    1.1005e+02    3.8802e+02 ;    H6S - C16    - C15   
  3293   3296   3297      1    1.1005e+02    3.8802e+02 ;    C15 - C14    - H4R   
  3293   3296   3298      1    1.1005e+02    3.8802e+02 ;    C15 - C14    - H4S   
  3293   3296   3299      1    1.1205e+02    3.9497e+02 ;    C15 - C14    - C13   
  3294   3293   3295      1    1.0835e+02    3.2995e+02 ;    H5R - C15    - H5S   
  3294   3293   3296      1    1.1005e+02    3.8802e+02 ;    H5R - C15    - C14   
  3295   3293   3296      1    1.1005e+02    3.8802e+02 ;    H5S - C15    - C14   
  3296   3299   3300      1    1.1005e+02    3.8802e+02 ;    C14 - C13    - H3R   
  3296   3299   3301      1    1.1005e+02    3.8802e+02 ;    C14 - C13    - H3S   
  3296   3299   3302      1    1.1205e+02    3.9497e+02 ;    C14 - C13    - C12   
  3297   3296   3298      1    1.0835e+02    3.2995e+02 ;    H4R - C14    - H4S   
  3297   3296   3299      1    1.1005e+02    3.8802e+02 ;    H4R - C14    - C13   
  3298   3296   3299      1    1.1005e+02    3.8802e+02 ;    H4S - C14    - C13   
  3299   3302   3303      1    1.1005e+02    3.8802e+02 ;    C13 - C12    - H2R   
  3299   3302   3304      1    1.1005e+02    3.8802e+02 ;    C13 - C12    - H2S   
  3300   3299   3301      1    1.0835e+02    3.2995e+02 ;    H3R - C13    - H3S   
  3300   3299   3302      1    1.1005e+02    3.8802e+02 ;    H3R - C13    - C12   
  3301   3299   3302      1    1.1005e+02    3.8802e+02 ;    H3S - C13    - C12   
  3303   3302   3304      1    1.0835e+02    3.2995e+02 ;    H2R - C12    - H2S   
  3305   3306   3307      1    1.0835e+02    3.2995e+02 ;   H14T - C114   - H14R  
  3305   3306   3308      1    1.0835e+02    3.2995e+02 ;   H14T - C114   - H14S  
  3305   3306   3309      1    1.1005e+02    3.8802e+02 ;   H14T - C114   - C113  
  3306   3309   3310      1    1.1005e+02    3.8802e+02 ;   C114 - C113   - H13R  
  3306   3309   3311      1    1.1005e+02    3.8802e+02 ;   C114 - C113   - H13S  
  3306   3309   3312      1    1.1205e+02    3.9497e+02 ;   C114 - C113   - C112  
  3307   3306   3308      1    1.0835e+02    3.2995e+02 ;   H14R - C114   - H14S  
  3307   3306   3309      1    1.1005e+02    3.8802e+02 ;   H14R - C114   - C113  
  3308   3306   3309      1    1.1005e+02    3.8802e+02 ;   H14S - C114   - C113  
  3309   3312   3313      1    1.1005e+02    3.8802e+02 ;   C113 - C112   - H12R  
  3309   3312   3314      1    1.1005e+02    3.8802e+02 ;   C113 - C112   - H12S  
  3309   3312   3315      1    1.1205e+02    3.9497e+02 ;   C113 - C112   - C111  
  3310   3309   3311      1    1.0835e+02    3.2995e+02 ;   H13R - C113   - H13S  
  3310   3309   3312      1    1.1005e+02    3.8802e+02 ;   H13R - C113   - C112  
  3311   3309   3312      1    1.1005e+02    3.8802e+02 ;   H13S - C113   - C112  
  3312   3315   3316      1    1.1005e+02    3.8802e+02 ;   C112 - C111   - H11R  
  3312   3315   3317      1    1.1005e+02    3.8802e+02 ;   C112 - C111   - H11S  
  3312   3315   3318      1    1.1205e+02    3.9497e+02 ;   C112 - C111   - C110  
  3313   3312   3314      1    1.0835e+02    3.2995e+02 ;   H12R - C112   - H12S  
  3313   3312   3315      1    1.1005e+02    3.8802e+02 ;   H12R - C112   - C111  
  3314   3312   3315      1    1.1005e+02    3.8802e+02 ;   H12S - C112   - C111  
  3315   3318   3319      1    1.1005e+02    3.8802e+02 ;   C111 - C110   - H10R  
  3315   3318   3320      1    1.1005e+02    3.8802e+02 ;   C111 - C110   - H10S  
  3315   3318   3321      1    1.1205e+02    3.9497e+02 ;   C111 - C110   - C19   
  3316   3315   3317      1    1.0835e+02    3.2995e+02 ;   H11R - C111   - H11S  
  3316   3315   3318      1    1.1005e+02    3.8802e+02 ;   H11R - C111   - C110  
  3317   3315   3318      1    1.1005e+02    3.8802e+02 ;   H11S - C111   - C110  
  3318   3321   3322      1    1.1005e+02    3.8802e+02 ;   C110 - C19    - H9R   
  3318   3321   3323      1    1.1005e+02    3.8802e+02 ;   C110 - C19    - H9S   
  3318   3321   3324      1    1.1205e+02    3.9497e+02 ;   C110 - C19    - C18   
  3319   3318   3320      1    1.0835e+02    3.2995e+02 ;   H10R - C110   - H10S  
  3319   3318   3321      1    1.1005e+02    3.8802e+02 ;   H10R - C110   - C19   
  3320   3318   3321      1    1.1005e+02    3.8802e+02 ;   H10S - C110   - C19   
  3321   3324   3325      1    1.1005e+02    3.8802e+02 ;    C19 - C18    - H8R   
  3321   3324   3326      1    1.1005e+02    3.8802e+02 ;    C19 - C18    - H8S   
  3321   3324   3327      1    1.1205e+02    3.9497e+02 ;    C19 - C18    - C17   
  3322   3321   3323      1    1.0835e+02    3.2995e+02 ;    H9R - C19    - H9S   
  3322   3321   3324      1    1.1005e+02    3.8802e+02 ;    H9R - C19    - C18   
  3323   3321   3324      1    1.1005e+02    3.8802e+02 ;    H9S - C19    - C18   
  3324   3327   3328      1    1.1005e+02    3.8802e+02 ;    C18 - C17    - H7R   
  3324   3327   3329      1    1.1005e+02    3.8802e+02 ;    C18 - C17    - H7S   
  3324   3327   3330      1    1.1205e+02    3.9497e+02 ;    C18 - C17    - C16   
  3325   3324   3326      1    1.0835e+02    3.2995e+02 ;    H8R - C18    - H8S   
  3325   3324   3327      1    1.1005e+02    3.8802e+02 ;    H8R - C18    - C17   
  3326   3324   3327      1    1.1005e+02    3.8802e+02 ;    H8S - C18    - C17   
  3327   3330   3331      1    1.1005e+02    3.8802e+02 ;    C17 - C16    - H6R   
  3327   3330   3332      1    1.1005e+02    3.8802e+02 ;    C17 - C16    - H6S   
  3327   3330   3333      1    1.1205e+02    3.9497e+02 ;    C17 - C16    - C15   
  3328   3327   3329      1    1.0835e+02    3.2995e+02 ;    H7R - C17    - H7S   
  3328   3327   3330      1    1.1005e+02    3.8802e+02 ;    H7R - C17    - C16   
  3329   3327   3330      1    1.1005e+02    3.8802e+02 ;    H7S - C17    - C16   
  3330   3333   3334      1    1.1005e+02    3.8802e+02 ;    C16 - C15    - H5R   
  3330   3333   3335      1    1.1005e+02    3.8802e+02 ;    C16 - C15    - H5S   
  3330   3333   3336      1    1.1205e+02    3.9497e+02 ;    C16 - C15    - C14   
  3331   3330   3332      1    1.0835e+02    3.2995e+02 ;    H6R - C16    - H6S   
  3331   3330   3333      1    1.1005e+02    3.8802e+02 ;    H6R - C16    - C15   
  3332   3330   3333      1    1.1005e+02    3.8802e+02 ;    H6S - C16    - C15   
  3333   3336   3337      1    1.1005e+02    3.8802e+02 ;    C15 - C14    - H4R   
  3333   3336   3338      1    1.1005e+02    3.8802e+02 ;    C15 - C14    - H4S   
  3333   3336   3339      1    1.1205e+02    3.9497e+02 ;    C15 - C14    - C13   
  3334   3333   3335      1    1.0835e+02    3.2995e+02 ;    H5R - C15    - H5S   
  3334   3333   3336      1    1.1005e+02    3.8802e+02 ;    H5R - C15    - C14   
  3335   3333   3336      1    1.1005e+02    3.8802e+02 ;    H5S - C15    - C14   
  3336   3339   3340      1    1.1005e+02    3.8802e+02 ;    C14 - C13    - H3R   
  3336   3339   3341      1    1.1005e+02    3.8802e+02 ;    C14 - C13    - H3S   
  3336   3339   3342      1    1.1205e+02    3.9497e+02 ;    C14 - C13    - C12   
  3337   3336   3338      1    1.0835e+02    3.2995e+02 ;    H4R - C14    - H4S   
  3337   3336   3339      1    1.1005e+02    3.8802e+02 ;    H4R - C14    - C13   
  3338   3336   3339      1    1.1005e+02    3.8802e+02 ;    H4S - C14    - C13   
  3339   3342   3343      1    1.1005e+02    3.8802e+02 ;    C13 - C12    - H2R   
  3339   3342   3344      1    1.1005e+02    3.8802e+02 ;    C13 - C12    - H2S   
  3339   3342   3345      1    1.1053e+02    5.3379e+02 ;    C13 - C12    - C11   
  3340   3339   3341      1    1.0835e+02    3.2995e+02 ;    H3R - C13    - H3S   
  3340   3339   3342      1    1.1005e+02    3.8802e+02 ;    H3R - C13    - C12   
  3341   3339   3342      1    1.1005e+02    3.8802e+02 ;    H3S - C13    - C12   
  3342   3345   3346      1    1.2311e+02    5.6928e+02 ;    C12 - C11    - O12   
  3342   3345   3347      1    1.1196e+02    5.7957e+02 ;    C12 - C11    - O11   
  3343   3342   3344      1    1.0835e+02    3.2995e+02 ;    H2R - C12    - H2S   
  3343   3342   3345      1    1.0968e+02    3.9497e+02 ;    H2R - C12    - C11   
  3344   3342   3345      1    1.0968e+02    3.9497e+02 ;    H2S - C12    - C11   
  3345   3347   3348      1    1.1514e+02    5.3246e+02 ;    C11 - O11    - C1    
  3346   3345   3347      1    1.2333e+02    6.3538e+02 ;    O12 - C11    - O11   
  3347   3348   3349      1    1.0882e+02    4.2543e+02 ;    O11 - C1     - HR    
  3347   3348   3350      1    1.0882e+02    4.2543e+02 ;    O11 - C1     - HS    
  3347   3348   3351      1    1.0842e+02    5.6718e+02 ;    O11 - C1     - C2    
  3348   3351   3352      1    1.1007e+02    3.8794e+02 ;     C1 - C2     - HX    
  3348   3351   3353      1    1.1063e+02    5.2894e+02 ;     C1 - C2     - C3    
  3348   3351   3380      1    1.0842e+02    5.6718e+02 ;     C1 - C2     - O21   
  3349   3348   3350      1    1.0955e+02    3.2786e+02 ;     HR - C1     - HS    
  3349   3348   3351      1    1.1007e+02    3.8794e+02 ;     HR - C1     - C2    
  3350   3348   3351      1    1.1007e+02    3.8794e+02 ;     HS - C1     - C2    
  3351   3353   3354      1    1.1007e+02    3.8794e+02 ;     C2 - C3     - HA    
  3351   3353   3355      1    1.1007e+02    3.8794e+02 ;     C2 - C3     - HB    
  3351   3353   3356      1    1.0842e+02    5.6718e+02 ;     C2 - C3     - O31   
  3351   3380   3381      1    1.1514e+02    5.3246e+02 ;     C2 - O21    - C21   
  3352   3351   3353      1    1.1007e+02    3.8794e+02 ;     HX - C2     - C3    
  3352   3351   3380      1    1.0882e+02    4.2543e+02 ;     HX - C2     - O21   
  3353   3351   3380      1    1.0842e+02    5.6718e+02 ;     C3 - C2     - O21   
  3353   3356   3357      1    1.2050e+02    8.3680e+02 ;     C3 - O31    - P31   
  3354   3353   3355      1    1.0955e+02    3.2786e+02 ;     HA - C3     - HB    
  3354   3353   3356      1    1.0882e+02    4.2543e+02 ;     HA - C3     - O31   
  3355   3353   3356      1    1.0882e+02    4.2543e+02 ;     HB - C3     - O31   
  3356   3357   3358      1    1.0260e+02    7.5312e+02 ;    O31 - P31    - O32   
  3356   3357   3378      1    1.0823e+02    8.3680e+02 ;    O31 - P31    - O33   
  3356   3357   3379      1    1.0823e+02    8.3680e+02 ;    O31 - P31    - O34   
  3357   3358   3359      1    1.2050e+02    8.3680e+02 ;    P31 - O32    - C31   
  3358   3357   3378      1    1.0823e+02    8.3680e+02 ;    O32 - P31    - O33   
  3358   3357   3379      1    1.0823e+02    8.3680e+02 ;    O32 - P31    - O34   
  3358   3359   3360      1    1.0882e+02    4.2543e+02 ;    O32 - C31    - H1A   
  3358   3359   3361      1    1.0882e+02    4.2543e+02 ;    O32 - C31    - H1B   
  3358   3359   3362      1    1.0842e+02    5.6718e+02 ;    O32 - C31    - C32   
  3359   3362   3363      1    1.1174e+02    3.8510e+02 ;    C31 - C32    - H2A   
  3359   3362   3364      1    1.1174e+02    3.8510e+02 ;    C31 - C32    - H2B   
  3359   3362   3365      1    1.1432e+02    5.3932e+02 ;    C31 - C32    - N31   
  3360   3359   3361      1    1.0955e+02    3.2786e+02 ;    H1A - C31    - H1B   
  3360   3359   3362      1    1.1007e+02    3.8794e+02 ;    H1A - C31    - C32   
  3361   3359   3362      1    1.1007e+02    3.8794e+02 ;    H1B - C31    - C32   
  3362   3365   3366      1    1.1064e+02    5.2585e+02 ;    C32 - N31    - C33   
  3362   3365   3370      1    1.1064e+02    5.2585e+02 ;    C32 - N31    - C34   
  3362   3365   3374      1    1.1064e+02    5.2585e+02 ;    C32 - N31    - C35   
  3363   3362   3364      1    1.1074e+02    3.2669e+02 ;    H2A - C32    - H2B   
  3363   3362   3365      1    1.0791e+02    4.1020e+02 ;    H2A - C32    - N31   
  3364   3362   3365      1    1.0791e+02    4.1020e+02 ;    H2B - C32    - N31   
  3365   3366   3367      1    1.0791e+02    4.1020e+02 ;    N31 - C33    - H3A   
  3365   3366   3368      1    1.0791e+02    4.1020e+02 ;    N31 - C33    - H3B   
  3365   3366   3369      1    1.0791e+02    4.1020e+02 ;    N31 - C33    - H3C   
  3365   3370   3371      1    1.0791e+02    4.1020e+02 ;    N31 - C34    - H4A   
  3365   3370   3372      1    1.0791e+02    4.1020e+02 ;    N31 - C34    - H4B   
  3365   3370   3373      1    1.0791e+02    4.1020e+02 ;    N31 - C34    - H4C   
  3365   3374   3375      1    1.0791e+02    4.1020e+02 ;    N31 - C35    - H5A   
  3365   3374   3376      1    1.0791e+02    4.1020e+02 ;    N31 - C35    - H5B   
  3365   3374   3377      1    1.0791e+02    4.1020e+02 ;    N31 - C35    - H5C   
  3366   3365   3370      1    1.1064e+02    5.2585e+02 ;    C33 - N31    - C34   
  3366   3365   3374      1    1.1064e+02    5.2585e+02 ;    C33 - N31    - C35   
  3367   3366   3368      1    1.1074e+02    3.2669e+02 ;    H3A - C33    - H3B   
  3367   3366   3369      1    1.1074e+02    3.2669e+02 ;    H3A - C33    - H3C   
  3368   3366   3369      1    1.1074e+02    3.2669e+02 ;    H3B - C33    - H3C   
  3370   3365   3374      1    1.1064e+02    5.2585e+02 ;    C34 - N31    - C35   
  3371   3370   3372      1    1.1074e+02    3.2669e+02 ;    H4A - C34    - H4B   
  3371   3370   3373      1    1.1074e+02    3.2669e+02 ;    H4A - C34    - H4C   
  3372   3370   3373      1    1.1074e+02    3.2669e+02 ;    H4B - C34    - H4C   
  3375   3374   3376      1    1.1074e+02    3.2669e+02 ;    H5A - C35    - H5B   
  3375   3374   3377      1    1.1074e+02    3.2669e+02 ;    H5A - C35    - H5C   
  3376   3374   3377      1    1.1074e+02    3.2669e+02 ;    H5B - C35    - H5C   
  3378   3357   3379      1    1.1990e+02    1.1715e+03 ;    O33 - P31    - O34   
  3380   3381   3382      1    1.2333e+02    6.3538e+02 ;    O21 - C21    - O22   
  3380   3381   3420      1    1.1196e+02    5.7957e+02 ;    O21 - C21    - C12   
  3381   3420   3417      1    1.1053e+02    5.3379e+02 ;    C21 - C12    - C13   
  3381   3420   3421      1    1.0968e+02    3.9497e+02 ;    C21 - C12    - H2R   
  3381   3420   3422      1    1.0968e+02    3.9497e+02 ;    C21 - C12    - H2S   
  3382   3381   3420      1    1.2311e+02    5.6928e+02 ;    O22 - C21    - C12   
  3383   3384   3385      1    1.0835e+02    3.2995e+02 ;   H14T - C114   - H14R  
  3383   3384   3386      1    1.0835e+02    3.2995e+02 ;   H14T - C114   - H14S  
  3383   3384   3387      1    1.1005e+02    3.8802e+02 ;   H14T - C114   - C113  
  3384   3387   3388      1    1.1005e+02    3.8802e+02 ;   C114 - C113   - H13R  
  3384   3387   3389      1    1.1005e+02    3.8802e+02 ;   C114 - C113   - H13S  
  3384   3387   3390      1    1.1205e+02    3.9497e+02 ;   C114 - C113   - C112  
  3385   3384   3386      1    1.0835e+02    3.2995e+02 ;   H14R - C114   - H14S  
  3385   3384   3387      1    1.1005e+02    3.8802e+02 ;   H14R - C114   - C113  
  3386   3384   3387      1    1.1005e+02    3.8802e+02 ;   H14S - C114   - C113  
  3387   3390   3391      1    1.1005e+02    3.8802e+02 ;   C113 - C112   - H12R  
  3387   3390   3392      1    1.1005e+02    3.8802e+02 ;   C113 - C112   - H12S  
  3387   3390   3393      1    1.1205e+02    3.9497e+02 ;   C113 - C112   - C111  
  3388   3387   3389      1    1.0835e+02    3.2995e+02 ;   H13R - C113   - H13S  
  3388   3387   3390      1    1.1005e+02    3.8802e+02 ;   H13R - C113   - C112  
  3389   3387   3390      1    1.1005e+02    3.8802e+02 ;   H13S - C113   - C112  
  3390   3393   3394      1    1.1005e+02    3.8802e+02 ;   C112 - C111   - H11R  
  3390   3393   3395      1    1.1005e+02    3.8802e+02 ;   C112 - C111   - H11S  
  3390   3393   3396      1    1.1205e+02    3.9497e+02 ;   C112 - C111   - C110  
  3391   3390   3392      1    1.0835e+02    3.2995e+02 ;   H12R - C112   - H12S  
  3391   3390   3393      1    1.1005e+02    3.8802e+02 ;   H12R - C112   - C111  
  3392   3390   3393      1    1.1005e+02    3.8802e+02 ;   H12S - C112   - C111  
  3393   3396   3397      1    1.1005e+02    3.8802e+02 ;   C111 - C110   - H10R  
  3393   3396   3398      1    1.1005e+02    3.8802e+02 ;   C111 - C110   - H10S  
  3393   3396   3399      1    1.1205e+02    3.9497e+02 ;   C111 - C110   - C19   
  3394   3393   3395      1    1.0835e+02    3.2995e+02 ;   H11R - C111   - H11S  
  3394   3393   3396      1    1.1005e+02    3.8802e+02 ;   H11R - C111   - C110  
  3395   3393   3396      1    1.1005e+02    3.8802e+02 ;   H11S - C111   - C110  
  3396   3399   3400      1    1.1005e+02    3.8802e+02 ;   C110 - C19    - H9R   
  3396   3399   3401      1    1.1005e+02    3.8802e+02 ;   C110 - C19    - H9S   
  3396   3399   3402      1    1.1205e+02    3.9497e+02 ;   C110 - C19    - C18   
  3397   3396   3398      1    1.0835e+02    3.2995e+02 ;   H10R - C110   - H10S  
  3397   3396   3399      1    1.1005e+02    3.8802e+02 ;   H10R - C110   - C19   
  3398   3396   3399      1    1.1005e+02    3.8802e+02 ;   H10S - C110   - C19   
  3399   3402   3403      1    1.1005e+02    3.8802e+02 ;    C19 - C18    - H8R   
  3399   3402   3404      1    1.1005e+02    3.8802e+02 ;    C19 - C18    - H8S   
  3399   3402   3405      1    1.1205e+02    3.9497e+02 ;    C19 - C18    - C17   
  3400   3399   3401      1    1.0835e+02    3.2995e+02 ;    H9R - C19    - H9S   
  3400   3399   3402      1    1.1005e+02    3.8802e+02 ;    H9R - C19    - C18   
  3401   3399   3402      1    1.1005e+02    3.8802e+02 ;    H9S - C19    - C18   
  3402   3405   3406      1    1.1005e+02    3.8802e+02 ;    C18 - C17    - H7R   
  3402   3405   3407      1    1.1005e+02    3.8802e+02 ;    C18 - C17    - H7S   
  3402   3405   3408      1    1.1205e+02    3.9497e+02 ;    C18 - C17    - C16   
  3403   3402   3404      1    1.0835e+02    3.2995e+02 ;    H8R - C18    - H8S   
  3403   3402   3405      1    1.1005e+02    3.8802e+02 ;    H8R - C18    - C17   
  3404   3402   3405      1    1.1005e+02    3.8802e+02 ;    H8S - C18    - C17   
  3405   3408   3409      1    1.1005e+02    3.8802e+02 ;    C17 - C16    - H6R   
  3405   3408   3410      1    1.1005e+02    3.8802e+02 ;    C17 - C16    - H6S   
  3405   3408   3411      1    1.1205e+02    3.9497e+02 ;    C17 - C16    - C15   
  3406   3405   3407      1    1.0835e+02    3.2995e+02 ;    H7R - C17    - H7S   
  3406   3405   3408      1    1.1005e+02    3.8802e+02 ;    H7R - C17    - C16   
  3407   3405   3408      1    1.1005e+02    3.8802e+02 ;    H7S - C17    - C16   
  3408   3411   3412      1    1.1005e+02    3.8802e+02 ;    C16 - C15    - H5R   
  3408   3411   3413      1    1.1005e+02    3.8802e+02 ;    C16 - C15    - H5S   
  3408   3411   3414      1    1.1205e+02    3.9497e+02 ;    C16 - C15    - C14   
  3409   3408   3410      1    1.0835e+02    3.2995e+02 ;    H6R - C16    - H6S   
  3409   3408   3411      1    1.1005e+02    3.8802e+02 ;    H6R - C16    - C15   
  3410   3408   3411      1    1.1005e+02    3.8802e+02 ;    H6S - C16    - C15   
  3411   3414   3415      1    1.1005e+02    3.8802e+02 ;    C15 - C14    - H4R   
  3411   3414   3416      1    1.1005e+02    3.8802e+02 ;    C15 - C14    - H4S   
  3411   3414   3417      1    1.1205e+02    3.9497e+02 ;    C15 - C14    - C13   
  3412   3411   3413      1    1.0835e+02    3.2995e+02 ;    H5R - C15    - H5S   
  3412   3411   3414      1    1.1005e+02    3.8802e+02 ;    H5R - C15    - C14   
  3413   3411   3414      1    1.1005e+02    3.8802e+02 ;    H5S - C15    - C14   
  3414   3417   3418      1    1.1005e+02    3.8802e+02 ;    C14 - C13    - H3R   
  3414   3417   3419      1    1.1005e+02    3.8802e+02 ;    C14 - C13    - H3S   
  3414   3417   3420      1    1.1205e+02    3.9497e+02 ;    C14 - C13    - C12   
  3415   3414   3416      1    1.0835e+02    3.2995e+02 ;    H4R - C14    - H4S   
  3415   3414   3417      1    1.1005e+02    3.8802e+02 ;    H4R - C14    - C13   
  3416   3414   3417      1    1.1005e+02    3.8802e+02 ;    H4S - C14    - C13   
  3417   3420   3421      1    1.1005e+02    3.8802e+02 ;    C13 - C12    - H2R   
  3417   3420   3422      1    1.1005e+02    3.8802e+02 ;    C13 - C12    - H2S   
  3418   3417   3419      1    1.0835e+02    3.2995e+02 ;    H3R - C13    - H3S   
  3418   3417   3420      1    1.1005e+02    3.8802e+02 ;    H3R - C13    - C12   
  3419   3417   3420      1    1.1005e+02    3.8802e+02 ;    H3S - C13    - C12   
  3421   3420   3422      1    1.0835e+02    3.2995e+02 ;    H2R - C12    - H2S   
  3423   3424   3425      1    1.0835e+02    3.2995e+02 ;   H14T - C114   - H14R  
  3423   3424   3426      1    1.0835e+02    3.2995e+02 ;   H14T - C114   - H14S  
  3423   3424   3427      1    1.1005e+02    3.8802e+02 ;   H14T - C114   - C113  
  3424   3427   3428      1    1.1005e+02    3.8802e+02 ;   C114 - C113   - H13R  
  3424   3427   3429      1    1.1005e+02    3.8802e+02 ;   C114 - C113   - H13S  
  3424   3427   3430      1    1.1205e+02    3.9497e+02 ;   C114 - C113   - C112  
  3425   3424   3426      1    1.0835e+02    3.2995e+02 ;   H14R - C114   - H14S  
  3425   3424   3427      1    1.1005e+02    3.8802e+02 ;   H14R - C114   - C113  
  3426   3424   3427      1    1.1005e+02    3.8802e+02 ;   H14S - C114   - C113  
  3427   3430   3431      1    1.1005e+02    3.8802e+02 ;   C113 - C112   - H12R  
  3427   3430   3432      1    1.1005e+02    3.8802e+02 ;   C113 - C112   - H12S  
  3427   3430   3433      1    1.1205e+02    3.9497e+02 ;   C113 - C112   - C111  
  3428   3427   3429      1    1.0835e+02    3.2995e+02 ;   H13R - C113   - H13S  
  3428   3427   3430      1    1.1005e+02    3.8802e+02 ;   H13R - C113   - C112  
  3429   3427   3430      1    1.1005e+02    3.8802e+02 ;   H13S - C113   - C112  
  3430   3433   3434      1    1.1005e+02    3.8802e+02 ;   C112 - C111   - H11R  
  3430   3433   3435      1    1.1005e+02    3.8802e+02 ;   C112 - C111   - H11S  
  3430   3433   3436      1    1.1205e+02    3.9497e+02 ;   C112 - C111   - C110  
  3431   3430   3432      1    1.0835e+02    3.2995e+02 ;   H12R - C112   - H12S  
  3431   3430   3433      1    1.1005e+02    3.8802e+02 ;   H12R - C112   - C111  
  3432   3430   3433      1    1.1005e+02    3.8802e+02 ;   H12S - C112   - C111  
  3433   3436   3437      1    1.1005e+02    3.8802e+02 ;   C111 - C110   - H10R  
  3433   3436   3438      1    1.1005e+02    3.8802e+02 ;   C111 - C110   - H10S  
  3433   3436   3439      1    1.1205e+02    3.9497e+02 ;   C111 - C110   - C19   
  3434   3433   3435      1    1.0835e+02    3.2995e+02 ;   H11R - C111   - H11S  
  3434   3433   3436      1    1.1005e+02    3.8802e+02 ;   H11R - C111   - C110  
  3435   3433   3436      1    1.1005e+02    3.8802e+02 ;   H11S - C111   - C110  
  3436   3439   3440      1    1.1005e+02    3.8802e+02 ;   C110 - C19    - H9R   
  3436   3439   3441      1    1.1005e+02    3.8802e+02 ;   C110 - C19    - H9S   
  3436   3439   3442      1    1.1205e+02    3.9497e+02 ;   C110 - C19    - C18   
  3437   3436   3438      1    1.0835e+02    3.2995e+02 ;   H10R - C110   - H10S  
  3437   3436   3439      1    1.1005e+02    3.8802e+02 ;   H10R - C110   - C19   
  3438   3436   3439      1    1.1005e+02    3.8802e+02 ;   H10S - C110   - C19   
  3439   3442   3443      1    1.1005e+02    3.8802e+02 ;    C19 - C18    - H8R   
  3439   3442   3444      1    1.1005e+02    3.8802e+02 ;    C19 - C18    - H8S   
  3439   3442   3445      1    1.1205e+02    3.9497e+02 ;    C19 - C18    - C17   
  3440   3439   3441      1    1.0835e+02    3.2995e+02 ;    H9R - C19    - H9S   
  3440   3439   3442      1    1.1005e+02    3.8802e+02 ;    H9R - C19    - C18   
  3441   3439   3442      1    1.1005e+02    3.8802e+02 ;    H9S - C19    - C18   
  3442   3445   3446      1    1.1005e+02    3.8802e+02 ;    C18 - C17    - H7R   
  3442   3445   3447      1    1.1005e+02    3.8802e+02 ;    C18 - C17    - H7S   
  3442   3445   3448      1    1.1205e+02    3.9497e+02 ;    C18 - C17    - C16   
  3443   3442   3444      1    1.0835e+02    3.2995e+02 ;    H8R - C18    - H8S   
  3443   3442   3445      1    1.1005e+02    3.8802e+02 ;    H8R - C18    - C17   
  3444   3442   3445      1    1.1005e+02    3.8802e+02 ;    H8S - C18    - C17   
  3445   3448   3449      1    1.1005e+02    3.8802e+02 ;    C17 - C16    - H6R   
  3445   3448   3450      1    1.1005e+02    3.8802e+02 ;    C17 - C16    - H6S   
  3445   3448   3451      1    1.1205e+02    3.9497e+02 ;    C17 - C16    - C15   
  3446   3445   3447      1    1.0835e+02    3.2995e+02 ;    H7R - C17    - H7S   
  3446   3445   3448      1    1.1005e+02    3.8802e+02 ;    H7R - C17    - C16   
  3447   3445   3448      1    1.1005e+02    3.8802e+02 ;    H7S - C17    - C16   
  3448   3451   3452      1    1.1005e+02    3.8802e+02 ;    C16 - C15    - H5R   
  3448   3451   3453      1    1.1005e+02    3.8802e+02 ;    C16 - C15    - H5S   
  3448   3451   3454      1    1.1205e+02    3.9497e+02 ;    C16 - C15    - C14   
  3449   3448   3450      1    1.0835e+02    3.2995e+02 ;    H6R - C16    - H6S   
  3449   3448   3451      1    1.1005e+02    3.8802e+02 ;    H6R - C16    - C15   
  3450   3448   3451      1    1.1005e+02    3.8802e+02 ;    H6S - C16    - C15   
  3451   3454   3455      1    1.1005e+02    3.8802e+02 ;    C15 - C14    - H4R   
  3451   3454   3456      1    1.1005e+02    3.8802e+02 ;    C15 - C14    - H4S   
  3451   3454   3457      1    1.1205e+02    3.9497e+02 ;    C15 - C14    - C13   
  3452   3451   3453      1    1.0835e+02    3.2995e+02 ;    H5R - C15    - H5S   
  3452   3451   3454      1    1.1005e+02    3.8802e+02 ;    H5R - C15    - C14   
  3453   3451   3454      1    1.1005e+02    3.8802e+02 ;    H5S - C15    - C14   
  3454   3457   3458      1    1.1005e+02    3.8802e+02 ;    C14 - C13    - H3R   
  3454   3457   3459      1    1.1005e+02    3.8802e+02 ;    C14 - C13    - H3S   
  3454   3457   3460      1    1.1205e+02    3.9497e+02 ;    C14 - C13    - C12   
  3455   3454   3456      1    1.0835e+02    3.2995e+02 ;    H4R - C14    - H4S   
  3455   3454   3457      1    1.1005e+02    3.8802e+02 ;    H4R - C14    - C13   
  3456   3454   3457      1    1.1005e+02    3.8802e+02 ;    H4S - C14    - C13   
  3457   3460   3461      1    1.1005e+02    3.8802e+02 ;    C13 - C12    - H2R   
  3457   3460   3462      1    1.1005e+02    3.8802e+02 ;    C13 - C12    - H2S   
  3457   3460   3463      1    1.1053e+02    5.3379e+02 ;    C13 - C12    - C11   
  3458   3457   3459      1    1.0835e+02    3.2995e+02 ;    H3R - C13    - H3S   
  3458   3457   3460      1    1.1005e+02    3.8802e+02 ;    H3R - C13    - C12   
  3459   3457   3460      1    1.1005e+02    3.8802e+02 ;    H3S - C13    - C12   
  3460   3463   3464      1    1.2311e+02    5.6928e+02 ;    C12 - C11    - O12   
  3460   3463   3465      1    1.1196e+02    5.7957e+02 ;    C12 - C11    - O11   
  3461   3460   3462      1    1.0835e+02    3.2995e+02 ;    H2R - C12    - H2S   
  3461   3460   3463      1    1.0968e+02    3.9497e+02 ;    H2R - C12    - C11   
  3462   3460   3463      1    1.0968e+02    3.9497e+02 ;    H2S - C12    - C11   
  3463   3465   3466      1    1.1514e+02    5.3246e+02 ;    C11 - O11    - C1    
  3464   3463   3465      1    1.2333e+02    6.3538e+02 ;    O12 - C11    - O11   
  3465   3466   3467      1    1.0882e+02    4.2543e+02 ;    O11 - C1     - HR    
  3465   3466   3468      1    1.0882e+02    4.2543e+02 ;    O11 - C1     - HS    
  3465   3466   3469      1    1.0842e+02    5.6718e+02 ;    O11 - C1     - C2    
  3466   3469   3470      1    1.1007e+02    3.8794e+02 ;     C1 - C2     - HX    
  3466   3469   3471      1    1.1063e+02    5.2894e+02 ;     C1 - C2     - C3    
  3466   3469   3498      1    1.0842e+02    5.6718e+02 ;     C1 - C2     - O21   
  3467   3466   3468      1    1.0955e+02    3.2786e+02 ;     HR - C1     - HS    
  3467   3466   3469      1    1.1007e+02    3.8794e+02 ;     HR - C1     - C2    
  3468   3466   3469      1    1.1007e+02    3.8794e+02 ;     HS - C1     - C2    
  3469   3471   3472      1    1.1007e+02    3.8794e+02 ;     C2 - C3     - HA    
  3469   3471   3473      1    1.1007e+02    3.8794e+02 ;     C2 - C3     - HB    
  3469   3471   3474      1    1.0842e+02    5.6718e+02 ;     C2 - C3     - O31   
  3469   3498   3499      1    1.1514e+02    5.3246e+02 ;     C2 - O21    - C21   
  3470   3469   3471      1    1.1007e+02    3.8794e+02 ;     HX - C2     - C3    
  3470   3469   3498      1    1.0882e+02    4.2543e+02 ;     HX - C2     - O21   
  3471   3469   3498      1    1.0842e+02    5.6718e+02 ;     C3 - C2     - O21   
  3471   3474   3475      1    1.2050e+02    8.3680e+02 ;     C3 - O31    - P31   
  3472   3471   3473      1    1.0955e+02    3.2786e+02 ;     HA - C3     - HB    
  3472   3471   3474      1    1.0882e+02    4.2543e+02 ;     HA - C3     - O31   
  3473   3471   3474      1    1.0882e+02    4.2543e+02 ;     HB - C3     - O31   
  3474   3475   3476      1    1.0260e+02    7.5312e+02 ;    O31 - P31    - O32   
  3474   3475   3496      1    1.0823e+02    8.3680e+02 ;    O31 - P31    - O33   
  3474   3475   3497      1    1.0823e+02    8.3680e+02 ;    O31 - P31    - O34   
  3475   3476   3477      1    1.2050e+02    8.3680e+02 ;    P31 - O32    - C31   
  3476   3475   3496      1    1.0823e+02    8.3680e+02 ;    O32 - P31    - O33   
  3476   3475   3497      1    1.0823e+02    8.3680e+02 ;    O32 - P31    - O34   
  3476   3477   3478      1    1.0882e+02    4.2543e+02 ;    O32 - C31    - H1A   
  3476   3477   3479      1    1.0882e+02    4.2543e+02 ;    O32 - C31    - H1B   
  3476   3477   3480      1    1.0842e+02    5.6718e+02 ;    O32 - C31    - C32   
  3477   3480   3481      1    1.1174e+02    3.8510e+02 ;    C31 - C32    - H2A   
  3477   3480   3482      1    1.1174e+02    3.8510e+02 ;    C31 - C32    - H2B   
  3477   3480   3483      1    1.1432e+02    5.3932e+02 ;    C31 - C32    - N31   
  3478   3477   3479      1    1.0955e+02    3.2786e+02 ;    H1A - C31    - H1B   
  3478   3477   3480      1    1.1007e+02    3.8794e+02 ;    H1A - C31    - C32   
  3479   3477   3480      1    1.1007e+02    3.8794e+02 ;    H1B - C31    - C32   
  3480   3483   3484      1    1.1064e+02    5.2585e+02 ;    C32 - N31    - C33   
  3480   3483   3488      1    1.1064e+02    5.2585e+02 ;    C32 - N31    - C34   
  3480   3483   3492      1    1.1064e+02    5.2585e+02 ;    C32 - N31    - C35   
  3481   3480   3482      1    1.1074e+02    3.2669e+02 ;    H2A - C32    - H2B   
  3481   3480   3483      1    1.0791e+02    4.1020e+02 ;    H2A - C32    - N31   
  3482   3480   3483      1    1.0791e+02    4.1020e+02 ;    H2B - C32    - N31   
  3483   3484   3485      1    1.0791e+02    4.1020e+02 ;    N31 - C33    - H3A   
  3483   3484   3486      1    1.0791e+02    4.1020e+02 ;    N31 - C33    - H3B   
  3483   3484   3487      1    1.0791e+02    4.1020e+02 ;    N31 - C33    - H3C   
  3483   3488   3489      1    1.0791e+02    4.1020e+02 ;    N31 - C34    - H4A   
  3483   3488   3490      1    1.0791e+02    4.1020e+02 ;    N31 - C34    - H4B   
  3483   3488   3491      1    1.0791e+02    4.1020e+02 ;    N31 - C34    - H4C   
  3483   3492   3493      1    1.0791e+02    4.1020e+02 ;    N31 - C35    - H5A   
  3483   3492   3494      1    1.0791e+02    4.1020e+02 ;    N31 - C35    - H5B   
  3483   3492   3495      1    1.0791e+02    4.1020e+02 ;    N31 - C35    - H5C   
  3484   3483   3488      1    1.1064e+02    5.2585e+02 ;    C33 - N31    - C34   
  3484   3483   3492      1    1.1064e+02    5.2585e+02 ;    C33 - N31    - C35   
  3485   3484   3486      1    1.1074e+02    3.2669e+02 ;    H3A - C33    - H3B   
  3485   3484   3487      1    1.1074e+02    3.2669e+02 ;    H3A - C33    - H3C   
  3486   3484   3487      1    1.1074e+02    3.2669e+02 ;    H3B - C33    - H3C   
  3488   3483   3492      1    1.1064e+02    5.2585e+02 ;    C34 - N31    - C35   
  3489   3488   3490      1    1.1074e+02    3.2669e+02 ;    H4A - C34    - H4B   
  3489   3488   3491      1    1.1074e+02    3.2669e+02 ;    H4A - C34    - H4C   
  3490   3488   3491      1    1.1074e+02    3.2669e+02 ;    H4B - C34    - H4C   
  3493   3492   3494      1    1.1074e+02    3.2669e+02 ;    H5A - C35    - H5B   
  3493   3492   3495      1    1.1074e+02    3.2669e+02 ;    H5A - C35    - H5C   
  3494   3492   3495      1    1.1074e+02    3.2669e+02 ;    H5B - C35    - H5C   
  3496   3475   3497      1    1.1990e+02    1.1715e+03 ;    O33 - P31    - O34   
  3498   3499   3500      1    1.2333e+02    6.3538e+02 ;    O21 - C21    - O22   
  3498   3499   3538      1    1.1196e+02    5.7957e+02 ;    O21 - C21    - C12   
  3499   3538   3535      1    1.1053e+02    5.3379e+02 ;    C21 - C12    - C13   
  3499   3538   3539      1    1.0968e+02    3.9497e+02 ;    C21 - C12    - H2R   
  3499   3538   3540      1    1.0968e+02    3.9497e+02 ;    C21 - C12    - H2S   
  3500   3499   3538      1    1.2311e+02    5.6928e+02 ;    O22 - C21    - C12   
  3501   3502   3503      1    1.0835e+02    3.2995e+02 ;   H14T - C114   - H14R  
  3501   3502   3504      1    1.0835e+02    3.2995e+02 ;   H14T - C114   - H14S  
  3501   3502   3505      1    1.1005e+02    3.8802e+02 ;   H14T - C114   - C113  
  3502   3505   3506      1    1.1005e+02    3.8802e+02 ;   C114 - C113   - H13R  
  3502   3505   3507      1    1.1005e+02    3.8802e+02 ;   C114 - C113   - H13S  
  3502   3505   3508      1    1.1205e+02    3.9497e+02 ;   C114 - C113   - C112  
  3503   3502   3504      1    1.0835e+02    3.2995e+02 ;   H14R - C114   - H14S  
  3503   3502   3505      1    1.1005e+02    3.8802e+02 ;   H14R - C114   - C113  
  3504   3502   3505      1    1.1005e+02    3.8802e+02 ;   H14S - C114   - C113  
  3505   3508   3509      1    1.1005e+02    3.8802e+02 ;   C113 - C112   - H12R  
  3505   3508   3510      1    1.1005e+02    3.8802e+02 ;   C113 - C112   - H12S  
  3505   3508   3511      1    1.1205e+02    3.9497e+02 ;   C113 - C112   - C111  
  3506   3505   3507      1    1.0835e+02    3.2995e+02 ;   H13R - C113   - H13S  
  3506   3505   3508      1    1.1005e+02    3.8802e+02 ;   H13R - C113   - C112  
  3507   3505   3508      1    1.1005e+02    3.8802e+02 ;   H13S - C113   - C112  
  3508   3511   3512      1    1.1005e+02    3.8802e+02 ;   C112 - C111   - H11R  
  3508   3511   3513      1    1.1005e+02    3.8802e+02 ;   C112 - C111   - H11S  
  3508   3511   3514      1    1.1205e+02    3.9497e+02 ;   C112 - C111   - C110  
  3509   3508   3510      1    1.0835e+02    3.2995e+02 ;   H12R - C112   - H12S  
  3509   3508   3511      1    1.1005e+02    3.8802e+02 ;   H12R - C112   - C111  
  3510   3508   3511      1    1.1005e+02    3.8802e+02 ;   H12S - C112   - C111  
  3511   3514   3515      1    1.1005e+02    3.8802e+02 ;   C111 - C110   - H10R  
  3511   3514   3516      1    1.1005e+02    3.8802e+02 ;   C111 - C110   - H10S  
  3511   3514   3517      1    1.1205e+02    3.9497e+02 ;   C111 - C110   - C19   
  3512   3511   3513      1    1.0835e+02    3.2995e+02 ;   H11R - C111   - H11S  
  3512   3511   3514      1    1.1005e+02    3.8802e+02 ;   H11R - C111   - C110  
  3513   3511   3514      1    1.1005e+02    3.8802e+02 ;   H11S - C111   - C110  
  3514   3517   3518      1    1.1005e+02    3.8802e+02 ;   C110 - C19    - H9R   
  3514   3517   3519      1    1.1005e+02    3.8802e+02 ;   C110 - C19    - H9S   
  3514   3517   3520      1    1.1205e+02    3.9497e+02 ;   C110 - C19    - C18   
  3515   3514   3516      1    1.0835e+02    3.2995e+02 ;   H10R - C110   - H10S  
  3515   3514   3517      1    1.1005e+02    3.8802e+02 ;   H10R - C110   - C19   
  3516   3514   3517      1    1.1005e+02    3.8802e+02 ;   H10S - C110   - C19   
  3517   3520   3521      1    1.1005e+02    3.8802e+02 ;    C19 - C18    - H8R   
  3517   3520   3522      1    1.1005e+02    3.8802e+02 ;    C19 - C18    - H8S   
  3517   3520   3523      1    1.1205e+02    3.9497e+02 ;    C19 - C18    - C17   
  3518   3517   3519      1    1.0835e+02    3.2995e+02 ;    H9R - C19    - H9S   
  3518   3517   3520      1    1.1005e+02    3.8802e+02 ;    H9R - C19    - C18   
  3519   3517   3520      1    1.1005e+02    3.8802e+02 ;    H9S - C19    - C18   
  3520   3523   3524      1    1.1005e+02    3.8802e+02 ;    C18 - C17    - H7R   
  3520   3523   3525      1    1.1005e+02    3.8802e+02 ;    C18 - C17    - H7S   
  3520   3523   3526      1    1.1205e+02    3.9497e+02 ;    C18 - C17    - C16   
  3521   3520   3522      1    1.0835e+02    3.2995e+02 ;    H8R - C18    - H8S   
  3521   3520   3523      1    1.1005e+02    3.8802e+02 ;    H8R - C18    - C17   
  3522   3520   3523      1    1.1005e+02    3.8802e+02 ;    H8S - C18    - C17   
  3523   3526   3527      1    1.1005e+02    3.8802e+02 ;    C17 - C16    - H6R   
  3523   3526   3528      1    1.1005e+02    3.8802e+02 ;    C17 - C16    - H6S   
  3523   3526   3529      1    1.1205e+02    3.9497e+02 ;    C17 - C16    - C15   
  3524   3523   3525      1    1.0835e+02    3.2995e+02 ;    H7R - C17    - H7S   
  3524   3523   3526      1    1.1005e+02    3.8802e+02 ;    H7R - C17    - C16   
  3525   3523   3526      1    1.1005e+02    3.8802e+02 ;    H7S - C17    - C16   
  3526   3529   3530      1    1.1005e+02    3.8802e+02 ;    C16 - C15    - H5R   
  3526   3529   3531      1    1.1005e+02    3.8802e+02 ;    C16 - C15    - H5S   
  3526   3529   3532      1    1.1205e+02    3.9497e+02 ;    C16 - C15    - C14   
  3527   3526   3528      1    1.0835e+02    3.2995e+02 ;    H6R - C16    - H6S   
  3527   3526   3529      1    1.1005e+02    3.8802e+02 ;    H6R - C16    - C15   
  3528   3526   3529      1    1.1005e+02    3.8802e+02 ;    H6S - C16    - C15   
  3529   3532   3533      1    1.1005e+02    3.8802e+02 ;    C15 - C14    - H4R   
  3529   3532   3534      1    1.1005e+02    3.8802e+02 ;    C15 - C14    - H4S   
  3529   3532   3535      1    1.1205e+02    3.9497e+02 ;    C15 - C14    - C13   
  3530   3529   3531      1    1.0835e+02    3.2995e+02 ;    H5R - C15    - H5S   
  3530   3529   3532      1    1.1005e+02    3.8802e+02 ;    H5R - C15    - C14   
  3531   3529   3532      1    1.1005e+02    3.8802e+02 ;    H5S - C15    - C14   
  3532   3535   3536      1    1.1005e+02    3.8802e+02 ;    C14 - C13    - H3R   
  3532   3535   3537      1    1.1005e+02    3.8802e+02 ;    C14 - C13    - H3S   
  3532   3535   3538      1    1.1205e+02    3.9497e+02 ;    C14 - C13    - C12   
  3533   3532   3534      1    1.0835e+02    3.2995e+02 ;    H4R - C14    - H4S   
  3533   3532   3535      1    1.1005e+02    3.8802e+02 ;    H4R - C14    - C13   
  3534   3532   3535      1    1.1005e+02    3.8802e+02 ;    H4S - C14    - C13   
  3535   3538   3539      1    1.1005e+02    3.8802e+02 ;    C13 - C12    - H2R   
  3535   3538   3540      1    1.1005e+02    3.8802e+02 ;    C13 - C12    - H2S   
  3536   3535   3537      1    1.0835e+02    3.2995e+02 ;    H3R - C13    - H3S   
  3536   3535   3538      1    1.1005e+02    3.8802e+02 ;    H3R - C13    - C12   
  3537   3535   3538      1    1.1005e+02    3.8802e+02 ;    H3S - C13    - C12   
  3539   3538   3540      1    1.0835e+02    3.2995e+02 ;    H2R - C12    - H2S   
  3541   3542   3543      1    1.0835e+02    3.2995e+02 ;   H14T - C114   - H14R  
  3541   3542   3544      1    1.0835e+02    3.2995e+02 ;   H14T - C114   - H14S  
  3541   3542   3545      1    1.1005e+02    3.8802e+02 ;   H14T - C114   - C113  
  3542   3545   3546      1    1.1005e+02    3.8802e+02 ;   C114 - C113   - H13R  
  3542   3545   3547      1    1.1005e+02    3.8802e+02 ;   C114 - C113   - H13S  
  3542   3545   3548      1    1.1205e+02    3.9497e+02 ;   C114 - C113   - C112  
  3543   3542   3544      1    1.0835e+02    3.2995e+02 ;   H14R - C114   - H14S  
  3543   3542   3545      1    1.1005e+02    3.8802e+02 ;   H14R - C114   - C113  
  3544   3542   3545      1    1.1005e+02    3.8802e+02 ;   H14S - C114   - C113  
  3545   3548   3549      1    1.1005e+02    3.8802e+02 ;   C113 - C112   - H12R  
  3545   3548   3550      1    1.1005e+02    3.8802e+02 ;   C113 - C112   - H12S  
  3545   3548   3551      1    1.1205e+02    3.9497e+02 ;   C113 - C112   - C111  
  3546   3545   3547      1    1.0835e+02    3.2995e+02 ;   H13R - C113   - H13S  
  3546   3545   3548      1    1.1005e+02    3.8802e+02 ;   H13R - C113   - C112  
  3547   3545   3548      1    1.1005e+02    3.8802e+02 ;   H13S - C113   - C112  
  3548   3551   3552      1    1.1005e+02    3.8802e+02 ;   C112 - C111   - H11R  
  3548   3551   3553      1    1.1005e+02    3.8802e+02 ;   C112 - C111   - H11S  
  3548   3551   3554      1    1.1205e+02    3.9497e+02 ;   C112 - C111   - C110  
  3549   3548   3550      1    1.0835e+02    3.2995e+02 ;   H12R - C112   - H12S  
  3549   3548   3551      1    1.1005e+02    3.8802e+02 ;   H12R - C112   - C111  
  3550   3548   3551      1    1.1005e+02    3.8802e+02 ;   H12S - C112   - C111  
  3551   3554   3555      1    1.1005e+02    3.8802e+02 ;   C111 - C110   - H10R  
  3551   3554   3556      1    1.1005e+02    3.8802e+02 ;   C111 - C110   - H10S  
  3551   3554   3557      1    1.1205e+02    3.9497e+02 ;   C111 - C110   - C19   
  3552   3551   3553      1    1.0835e+02    3.2995e+02 ;   H11R - C111   - H11S  
  3552   3551   3554      1    1.1005e+02    3.8802e+02 ;   H11R - C111   - C110  
  3553   3551   3554      1    1.1005e+02    3.8802e+02 ;   H11S - C111   - C110  
  3554   3557   3558      1    1.1005e+02    3.8802e+02 ;   C110 - C19    - H9R   
  3554   3557   3559      1    1.1005e+02    3.8802e+02 ;   C110 - C19    - H9S   
  3554   3557   3560      1    1.1205e+02    3.9497e+02 ;   C110 - C19    - C18   
  3555   3554   3556      1    1.0835e+02    3.2995e+02 ;   H10R - C110   - H10S  
  3555   3554   3557      1    1.1005e+02    3.8802e+02 ;   H10R - C110   - C19   
  3556   3554   3557      1    1.1005e+02    3.8802e+02 ;   H10S - C110   - C19   
  3557   3560   3561      1    1.1005e+02    3.8802e+02 ;    C19 - C18    - H8R   
  3557   3560   3562      1    1.1005e+02    3.8802e+02 ;    C19 - C18    - H8S   
  3557   3560   3563      1    1.1205e+02    3.9497e+02 ;    C19 - C18    - C17   
  3558   3557   3559      1    1.0835e+02    3.2995e+02 ;    H9R - C19    - H9S   
  3558   3557   3560      1    1.1005e+02    3.8802e+02 ;    H9R - C19    - C18   
  3559   3557   3560      1    1.1005e+02    3.8802e+02 ;    H9S - C19    - C18   
  3560   3563   3564      1    1.1005e+02    3.8802e+02 ;    C18 - C17    - H7R   
  3560   3563   3565      1    1.1005e+02    3.8802e+02 ;    C18 - C17    - H7S   
  3560   3563   3566      1    1.1205e+02    3.9497e+02 ;    C18 - C17    - C16   
  3561   3560   3562      1    1.0835e+02    3.2995e+02 ;    H8R - C18    - H8S   
  3561   3560   3563      1    1.1005e+02    3.8802e+02 ;    H8R - C18    - C17   
  3562   3560   3563      1    1.1005e+02    3.8802e+02 ;    H8S - C18    - C17   
  3563   3566   3567      1    1.1005e+02    3.8802e+02 ;    C17 - C16    - H6R   
  3563   3566   3568      1    1.1005e+02    3.8802e+02 ;    C17 - C16    - H6S   
  3563   3566   3569      1    1.1205e+02    3.9497e+02 ;    C17 - C16    - C15   
  3564   3563   3565      1    1.0835e+02    3.2995e+02 ;    H7R - C17    - H7S   
  3564   3563   3566      1    1.1005e+02    3.8802e+02 ;    H7R - C17    - C16   
  3565   3563   3566      1    1.1005e+02    3.8802e+02 ;    H7S - C17    - C16   
  3566   3569   3570      1    1.1005e+02    3.8802e+02 ;    C16 - C15    - H5R   
  3566   3569   3571      1    1.1005e+02    3.8802e+02 ;    C16 - C15    - H5S   
  3566   3569   3572      1    1.1205e+02    3.9497e+02 ;    C16 - C15    - C14   
  3567   3566   3568      1    1.0835e+02    3.2995e+02 ;    H6R - C16    - H6S   
  3567   3566   3569      1    1.1005e+02    3.8802e+02 ;    H6R - C16    - C15   
  3568   3566   3569      1    1.1005e+02    3.8802e+02 ;    H6S - C16    - C15   
  3569   3572   3573      1    1.1005e+02    3.8802e+02 ;    C15 - C14    - H4R   
  3569   3572   3574      1    1.1005e+02    3.8802e+02 ;    C15 - C14    - H4S   
  3569   3572   3575      1    1.1205e+02    3.9497e+02 ;    C15 - C14    - C13   
  3570   3569   3571      1    1.0835e+02    3.2995e+02 ;    H5R - C15    - H5S   
  3570   3569   3572      1    1.1005e+02    3.8802e+02 ;    H5R - C15    - C14   
  3571   3569   3572      1    1.1005e+02    3.8802e+02 ;    H5S - C15    - C14   
  3572   3575   3576      1    1.1005e+02    3.8802e+02 ;    C14 - C13    - H3R   
  3572   3575   3577      1    1.1005e+02    3.8802e+02 ;    C14 - C13    - H3S   
  3572   3575   3578      1    1.1205e+02    3.9497e+02 ;    C14 - C13    - C12   
  3573   3572   3574      1    1.0835e+02    3.2995e+02 ;    H4R - C14    - H4S   
  3573   3572   3575      1    1.1005e+02    3.8802e+02 ;    H4R - C14    - C13   
  3574   3572   3575      1    1.1005e+02    3.8802e+02 ;    H4S - C14    - C13   
  3575   3578   3579      1    1.1005e+02    3.8802e+02 ;    C13 - C12    - H2R   
  3575   3578   3580      1    1.1005e+02    3.8802e+02 ;    C13 - C12    - H2S   
  3575   3578   3581      1    1.1053e+02    5.3379e+02 ;    C13 - C12    - C11   
  3576   3575   3577      1    1.0835e+02    3.2995e+02 ;    H3R - C13    - H3S   
  3576   3575   3578      1    1.1005e+02    3.8802e+02 ;    H3R - C13    - C12   
  3577   3575   3578      1    1.1005e+02    3.8802e+02 ;    H3S - C13    - C12   
  3578   3581   3582      1    1.2311e+02    5.6928e+02 ;    C12 - C11    - O12   
  3578   3581   3583      1    1.1196e+02    5.7957e+02 ;    C12 - C11    - O11   
  3579   3578   3580      1    1.0835e+02    3.2995e+02 ;    H2R - C12    - H2S   
  3579   3578   3581      1    1.0968e+02    3.9497e+02 ;    H2R - C12    - C11   
  3580   3578   3581      1    1.0968e+02    3.9497e+02 ;    H2S - C12    - C11   
  3581   3583   3584      1    1.1514e+02    5.3246e+02 ;    C11 - O11    - C1    
  3582   3581   3583      1    1.2333e+02    6.3538e+02 ;    O12 - C11    - O11   
  3583   3584   3585      1    1.0882e+02    4.2543e+02 ;    O11 - C1     - HR    
  3583   3584   3586      1    1.0882e+02    4.2543e+02 ;    O11 - C1     - HS    
  3583   3584   3587      1    1.0842e+02    5.6718e+02 ;    O11 - C1     - C2    
  3584   3587   3588      1    1.1007e+02    3.8794e+02 ;     C1 - C2     - HX    
  3584   3587   3589      1    1.1063e+02    5.2894e+02 ;     C1 - C2     - C3    
  3584   3587   3616      1    1.0842e+02    5.6718e+02 ;     C1 - C2     - O21   
  3585   3584   3586      1    1.0955e+02    3.2786e+02 ;     HR - C1     - HS    
  3585   3584   3587      1    1.1007e+02    3.8794e+02 ;     HR - C1     - C2    
  3586   3584   3587      1    1.1007e+02    3.8794e+02 ;     HS - C1     - C2    
  3587   3589   3590      1    1.1007e+02    3.8794e+02 ;     C2 - C3     - HA    
  3587   3589   3591      1    1.1007e+02    3.8794e+02 ;     C2 - C3     - HB    
  3587   3589   3592      1    1.0842e+02    5.6718e+02 ;     C2 - C3     - O31   
  3587   3616   3617      1    1.1514e+02    5.3246e+02 ;     C2 - O21    - C21   
  3588   3587   3589      1    1.1007e+02    3.8794e+02 ;     HX - C2     - C3    
  3588   3587   3616      1    1.0882e+02    4.2543e+02 ;     HX - C2     - O21   
  3589   3587   3616      1    1.0842e+02    5.6718e+02 ;     C3 - C2     - O21   
  3589   3592   3593      1    1.2050e+02    8.3680e+02 ;     C3 - O31    - P31   
  3590   3589   3591      1    1.0955e+02    3.2786e+02 ;     HA - C3     - HB    
  3590   3589   3592      1    1.0882e+02    4.2543e+02 ;     HA - C3     - O31   
  3591   3589   3592      1    1.0882e+02    4.2543e+02 ;     HB - C3     - O31   
  3592   3593   3594      1    1.0260e+02    7.5312e+02 ;    O31 - P31    - O32   
  3592   3593   3614      1    1.0823e+02    8.3680e+02 ;    O31 - P31    - O33   
  3592   3593   3615      1    1.0823e+02    8.3680e+02 ;    O31 - P31    - O34   
  3593   3594   3595      1    1.2050e+02    8.3680e+02 ;    P31 - O32    - C31   
  3594   3593   3614      1    1.0823e+02    8.3680e+02 ;    O32 - P31    - O33   
  3594   3593   3615      1    1.0823e+02    8.3680e+02 ;    O32 - P31    - O34   
  3594   3595   3596      1    1.0882e+02    4.2543e+02 ;    O32 - C31    - H1A   
  3594   3595   3597      1    1.0882e+02    4.2543e+02 ;    O32 - C31    - H1B   
  3594   3595   3598      1    1.0842e+02    5.6718e+02 ;    O32 - C31    - C32   
  3595   3598   3599      1    1.1174e+02    3.8510e+02 ;    C31 - C32    - H2A   
  3595   3598   3600      1    1.1174e+02    3.8510e+02 ;    C31 - C32    - H2B   
  3595   3598   3601      1    1.1432e+02    5.3932e+02 ;    C31 - C32    - N31   
  3596   3595   3597      1    1.0955e+02    3.2786e+02 ;    H1A - C31    - H1B   
  3596   3595   3598      1    1.1007e+02    3.8794e+02 ;    H1A - C31    - C32   
  3597   3595   3598      1    1.1007e+02    3.8794e+02 ;    H1B - C31    - C32   
  3598   3601   3602      1    1.1064e+02    5.2585e+02 ;    C32 - N31    - C33   
  3598   3601   3606      1    1.1064e+02    5.2585e+02 ;    C32 - N31    - C34   
  3598   3601   3610      1    1.1064e+02    5.2585e+02 ;    C32 - N31    - C35   
  3599   3598   3600      1    1.1074e+02    3.2669e+02 ;    H2A - C32    - H2B   
  3599   3598   3601      1    1.0791e+02    4.1020e+02 ;    H2A - C32    - N31   
  3600   3598   3601      1    1.0791e+02    4.1020e+02 ;    H2B - C32    - N31   
  3601   3602   3603      1    1.0791e+02    4.1020e+02 ;    N31 - C33    - H3A   
  3601   3602   3604      1    1.0791e+02    4.1020e+02 ;    N31 - C33    - H3B   
  3601   3602   3605      1    1.0791e+02    4.1020e+02 ;    N31 - C33    - H3C   
  3601   3606   3607      1    1.0791e+02    4.1020e+02 ;    N31 - C34    - H4A   
  3601   3606   3608      1    1.0791e+02    4.1020e+02 ;    N31 - C34    - H4B   
  3601   3606   3609      1    1.0791e+02    4.1020e+02 ;    N31 - C34    - H4C   
  3601   3610   3611      1    1.0791e+02    4.1020e+02 ;    N31 - C35    - H5A   
  3601   3610   3612      1    1.0791e+02    4.1020e+02 ;    N31 - C35    - H5B   
  3601   3610   3613      1    1.0791e+02    4.1020e+02 ;    N31 - C35    - H5C   
  3602   3601   3606      1    1.1064e+02    5.2585e+02 ;    C33 - N31    - C34   
  3602   3601   3610      1    1.1064e+02    5.2585e+02 ;    C33 - N31    - C35   
  3603   3602   3604      1    1.1074e+02    3.2669e+02 ;    H3A - C33    - H3B   
  3603   3602   3605      1    1.1074e+02    3.2669e+02 ;    H3A - C33    - H3C   
  3604   3602   3605      1    1.1074e+02    3.2669e+02 ;    H3B - C33    - H3C   
  3606   3601   3610      1    1.1064e+02    5.2585e+02 ;    C34 - N31    - C35   
  3607   3606   3608      1    1.1074e+02    3.2669e+02 ;    H4A - C34    - H4B   
  3607   3606   3609      1    1.1074e+02    3.2669e+02 ;    H4A - C34    - H4C   
  3608   3606   3609      1    1.1074e+02    3.2669e+02 ;    H4B - C34    - H4C   
  3611   3610   3612      1    1.1074e+02    3.2669e+02 ;    H5A - C35    - H5B   
  3611   3610   3613      1    1.1074e+02    3.2669e+02 ;    H5A - C35    - H5C   
  3612   3610   3613      1    1.1074e+02    3.2669e+02 ;    H5B - C35    - H5C   
  3614   3593   3615      1    1.1990e+02    1.1715e+03 ;    O33 - P31    - O34   
  3616   3617   3618      1    1.2333e+02    6.3538e+02 ;    O21 - C21    - O22   
  3616   3617   3656      1    1.1196e+02    5.7957e+02 ;    O21 - C21    - C12   
  3617   3656   3653      1    1.1053e+02    5.3379e+02 ;    C21 - C12    - C13   
  3617   3656   3657      1    1.0968e+02    3.9497e+02 ;    C21 - C12    - H2R   
  3617   3656   3658      1    1.0968e+02    3.9497e+02 ;    C21 - C12    - H2S   
  3618   3617   3656      1    1.2311e+02    5.6928e+02 ;    O22 - C21    - C12   
  3619   3620   3621      1    1.0835e+02    3.2995e+02 ;   H14T - C114   - H14R  
  3619   3620   3622      1    1.0835e+02    3.2995e+02 ;   H14T - C114   - H14S  
  3619   3620   3623      1    1.1005e+02    3.8802e+02 ;   H14T - C114   - C113  
  3620   3623   3624      1    1.1005e+02    3.8802e+02 ;   C114 - C113   - H13R  
  3620   3623   3625      1    1.1005e+02    3.8802e+02 ;   C114 - C113   - H13S  
  3620   3623   3626      1    1.1205e+02    3.9497e+02 ;   C114 - C113   - C112  
  3621   3620   3622      1    1.0835e+02    3.2995e+02 ;   H14R - C114   - H14S  
  3621   3620   3623      1    1.1005e+02    3.8802e+02 ;   H14R - C114   - C113  
  3622   3620   3623      1    1.1005e+02    3.8802e+02 ;   H14S - C114   - C113  
  3623   3626   3627      1    1.1005e+02    3.8802e+02 ;   C113 - C112   - H12R  
  3623   3626   3628      1    1.1005e+02    3.8802e+02 ;   C113 - C112   - H12S  
  3623   3626   3629      1    1.1205e+02    3.9497e+02 ;   C113 - C112   - C111  
  3624   3623   3625      1    1.0835e+02    3.2995e+02 ;   H13R - C113   - H13S  
  3624   3623   3626      1    1.1005e+02    3.8802e+02 ;   H13R - C113   - C112  
  3625   3623   3626      1    1.1005e+02    3.8802e+02 ;   H13S - C113   - C112  
  3626   3629   3630      1    1.1005e+02    3.8802e+02 ;   C112 - C111   - H11R  
  3626   3629   3631      1    1.1005e+02    3.8802e+02 ;   C112 - C111   - H11S  
  3626   3629   3632      1    1.1205e+02    3.9497e+02 ;   C112 - C111   - C110  
  3627   3626   3628      1    1.0835e+02    3.2995e+02 ;   H12R - C112   - H12S  
  3627   3626   3629      1    1.1005e+02    3.8802e+02 ;   H12R - C112   - C111  
  3628   3626   3629      1    1.1005e+02    3.8802e+02 ;   H12S - C112   - C111  
  3629   3632   3633      1    1.1005e+02    3.8802e+02 ;   C111 - C110   - H10R  
  3629   3632   3634      1    1.1005e+02    3.8802e+02 ;   C111 - C110   - H10S  
  3629   3632   3635      1    1.1205e+02    3.9497e+02 ;   C111 - C110   - C19   
  3630   3629   3631      1    1.0835e+02    3.2995e+02 ;   H11R - C111   - H11S  
  3630   3629   3632      1    1.1005e+02    3.8802e+02 ;   H11R - C111   - C110  
  3631   3629   3632      1    1.1005e+02    3.8802e+02 ;   H11S - C111   - C110  
  3632   3635   3636      1    1.1005e+02    3.8802e+02 ;   C110 - C19    - H9R   
  3632   3635   3637      1    1.1005e+02    3.8802e+02 ;   C110 - C19    - H9S   
  3632   3635   3638      1    1.1205e+02    3.9497e+02 ;   C110 - C19    - C18   
  3633   3632   3634      1    1.0835e+02    3.2995e+02 ;   H10R - C110   - H10S  
  3633   3632   3635      1    1.1005e+02    3.8802e+02 ;   H10R - C110   - C19   
  3634   3632   3635      1    1.1005e+02    3.8802e+02 ;   H10S - C110   - C19   
  3635   3638   3639      1    1.1005e+02    3.8802e+02 ;    C19 - C18    - H8R   
  3635   3638   3640      1    1.1005e+02    3.8802e+02 ;    C19 - C18    - H8S   
  3635   3638   3641      1    1.1205e+02    3.9497e+02 ;    C19 - C18    - C17   
  3636   3635   3637      1    1.0835e+02    3.2995e+02 ;    H9R - C19    - H9S   
  3636   3635   3638      1    1.1005e+02    3.8802e+02 ;    H9R - C19    - C18   
  3637   3635   3638      1    1.1005e+02    3.8802e+02 ;    H9S - C19    - C18   
  3638   3641   3642      1    1.1005e+02    3.8802e+02 ;    C18 - C17    - H7R   
  3638   3641   3643      1    1.1005e+02    3.8802e+02 ;    C18 - C17    - H7S   
  3638   3641   3644      1    1.1205e+02    3.9497e+02 ;    C18 - C17    - C16   
  3639   3638   3640      1    1.0835e+02    3.2995e+02 ;    H8R - C18    - H8S   
  3639   3638   3641      1    1.1005e+02    3.8802e+02 ;    H8R - C18    - C17   
  3640   3638   3641      1    1.1005e+02    3.8802e+02 ;    H8S - C18    - C17   
  3641   3644   3645      1    1.1005e+02    3.8802e+02 ;    C17 - C16    - H6R   
  3641   3644   3646      1    1.1005e+02    3.8802e+02 ;    C17 - C16    - H6S   
  3641   3644   3647      1    1.1205e+02    3.9497e+02 ;    C17 - C16    - C15   
  3642   3641   3643      1    1.0835e+02    3.2995e+02 ;    H7R - C17    - H7S   
  3642   3641   3644      1    1.1005e+02    3.8802e+02 ;    H7R - C17    - C16   
  3643   3641   3644      1    1.1005e+02    3.8802e+02 ;    H7S - C17    - C16   
  3644   3647   3648      1    1.1005e+02    3.8802e+02 ;    C16 - C15    - H5R   
  3644   3647   3649      1    1.1005e+02    3.8802e+02 ;    C16 - C15    - H5S   
  3644   3647   3650      1    1.1205e+02    3.9497e+02 ;    C16 - C15    - C14   
  3645   3644   3646      1    1.0835e+02    3.2995e+02 ;    H6R - C16    - H6S   
  3645   3644   3647      1    1.1005e+02    3.8802e+02 ;    H6R - C16    - C15   
  3646   3644   3647      1    1.1005e+02    3.8802e+02 ;    H6S - C16    - C15   
  3647   3650   3651      1    1.1005e+02    3.8802e+02 ;    C15 - C14    - H4R   
  3647   3650   3652      1    1.1005e+02    3.8802e+02 ;    C15 - C14    - H4S   
  3647   3650   3653      1    1.1205e+02    3.9497e+02 ;    C15 - C14    - C13   
  3648   3647   3649      1    1.0835e+02    3.2995e+02 ;    H5R - C15    - H5S   
  3648   3647   3650      1    1.1005e+02    3.8802e+02 ;    H5R - C15    - C14   
  3649   3647   3650      1    1.1005e+02    3.8802e+02 ;    H5S - C15    - C14   
  3650   3653   3654      1    1.1005e+02    3.8802e+02 ;    C14 - C13    - H3R   
  3650   3653   3655      1    1.1005e+02    3.8802e+02 ;    C14 - C13    - H3S   
  3650   3653   3656      1    1.1205e+02    3.9497e+02 ;    C14 - C13    - C12   
  3651   3650   3652      1    1.0835e+02    3.2995e+02 ;    H4R - C14    - H4S   
  3651   3650   3653      1    1.1005e+02    3.8802e+02 ;    H4R - C14    - C13   
  3652   3650   3653      1    1.1005e+02    3.8802e+02 ;    H4S - C14    - C13   
  3653   3656   3657      1    1.1005e+02    3.8802e+02 ;    C13 - C12    - H2R   
  3653   3656   3658      1    1.1005e+02    3.8802e+02 ;    C13 - C12    - H2S   
  3654   3653   3655      1    1.0835e+02    3.2995e+02 ;    H3R - C13    - H3S   
  3654   3653   3656      1    1.1005e+02    3.8802e+02 ;    H3R - C13    - C12   
  3655   3653   3656      1    1.1005e+02    3.8802e+02 ;    H3S - C13    - C12   
  3657   3656   3658      1    1.0835e+02    3.2995e+02 ;    H2R - C12    - H2S   
  3659   3660   3661      1    1.0835e+02    3.2995e+02 ;   H14T - C114   - H14R  
  3659   3660   3662      1    1.0835e+02    3.2995e+02 ;   H14T - C114   - H14S  
  3659   3660   3663      1    1.1005e+02    3.8802e+02 ;   H14T - C114   - C113  
  3660   3663   3664      1    1.1005e+02    3.8802e+02 ;   C114 - C113   - H13R  
  3660   3663   3665      1    1.1005e+02    3.8802e+02 ;   C114 - C113   - H13S  
  3660   3663   3666      1    1.1205e+02    3.9497e+02 ;   C114 - C113   - C112  
  3661   3660   3662      1    1.0835e+02    3.2995e+02 ;   H14R - C114   - H14S  
  3661   3660   3663      1    1.1005e+02    3.8802e+02 ;   H14R - C114   - C113  
  3662   3660   3663      1    1.1005e+02    3.8802e+02 ;   H14S - C114   - C113  
  3663   3666   3667      1    1.1005e+02    3.8802e+02 ;   C113 - C112   - H12R  
  3663   3666   3668      1    1.1005e+02    3.8802e+02 ;   C113 - C112   - H12S  
  3663   3666   3669      1    1.1205e+02    3.9497e+02 ;   C113 - C112   - C111  
  3664   3663   3665      1    1.0835e+02    3.2995e+02 ;   H13R - C113   - H13S  
  3664   3663   3666      1    1.1005e+02    3.8802e+02 ;   H13R - C113   - C112  
  3665   3663   3666      1    1.1005e+02    3.8802e+02 ;   H13S - C113   - C112  
  3666   3669   3670      1    1.1005e+02    3.8802e+02 ;   C112 - C111   - H11R  
  3666   3669   3671      1    1.1005e+02    3.8802e+02 ;   C112 - C111   - H11S  
  3666   3669   3672      1    1.1205e+02    3.9497e+02 ;   C112 - C111   - C110  
  3667   3666   3668      1    1.0835e+02    3.2995e+02 ;   H12R - C112   - H12S  
  3667   3666   3669      1    1.1005e+02    3.8802e+02 ;   H12R - C112   - C111  
  3668   3666   3669      1    1.1005e+02    3.8802e+02 ;   H12S - C112   - C111  
  3669   3672   3673      1    1.1005e+02    3.8802e+02 ;   C111 - C110   - H10R  
  3669   3672   3674      1    1.1005e+02    3.8802e+02 ;   C111 - C110   - H10S  
  3669   3672   3675      1    1.1205e+02    3.9497e+02 ;   C111 - C110   - C19   
  3670   3669   3671      1    1.0835e+02    3.2995e+02 ;   H11R - C111   - H11S  
  3670   3669   3672      1    1.1005e+02    3.8802e+02 ;   H11R - C111   - C110  
  3671   3669   3672      1    1.1005e+02    3.8802e+02 ;   H11S - C111   - C110  
  3672   3675   3676      1    1.1005e+02    3.8802e+02 ;   C110 - C19    - H9R   
  3672   3675   3677      1    1.1005e+02    3.8802e+02 ;   C110 - C19    - H9S   
  3672   3675   3678      1    1.1205e+02    3.9497e+02 ;   C110 - C19    - C18   
  3673   3672   3674      1    1.0835e+02    3.2995e+02 ;   H10R - C110   - H10S  
  3673   3672   3675      1    1.1005e+02    3.8802e+02 ;   H10R - C110   - C19   
  3674   3672   3675      1    1.1005e+02    3.8802e+02 ;   H10S - C110   - C19   
  3675   3678   3679      1    1.1005e+02    3.8802e+02 ;    C19 - C18    - H8R   
  3675   3678   3680      1    1.1005e+02    3.8802e+02 ;    C19 - C18    - H8S   
  3675   3678   3681      1    1.1205e+02    3.9497e+02 ;    C19 - C18    - C17   
  3676   3675   3677      1    1.0835e+02    3.2995e+02 ;    H9R - C19    - H9S   
  3676   3675   3678      1    1.1005e+02    3.8802e+02 ;    H9R - C19    - C18   
  3677   3675   3678      1    1.1005e+02    3.8802e+02 ;    H9S - C19    - C18   
  3678   3681   3682      1    1.1005e+02    3.8802e+02 ;    C18 - C17    - H7R   
  3678   3681   3683      1    1.1005e+02    3.8802e+02 ;    C18 - C17    - H7S   
  3678   3681   3684      1    1.1205e+02    3.9497e+02 ;    C18 - C17    - C16   
  3679   3678   3680      1    1.0835e+02    3.2995e+02 ;    H8R - C18    - H8S   
  3679   3678   3681      1    1.1005e+02    3.8802e+02 ;    H8R - C18    - C17   
  3680   3678   3681      1    1.1005e+02    3.8802e+02 ;    H8S - C18    - C17   
  3681   3684   3685      1    1.1005e+02    3.8802e+02 ;    C17 - C16    - H6R   
  3681   3684   3686      1    1.1005e+02    3.8802e+02 ;    C17 - C16    - H6S   
  3681   3684   3687      1    1.1205e+02    3.9497e+02 ;    C17 - C16    - C15   
  3682   3681   3683      1    1.0835e+02    3.2995e+02 ;    H7R - C17    - H7S   
  3682   3681   3684      1    1.1005e+02    3.8802e+02 ;    H7R - C17    - C16   
  3683   3681   3684      1    1.1005e+02    3.8802e+02 ;    H7S - C17    - C16   
  3684   3687   3688      1    1.1005e+02    3.8802e+02 ;    C16 - C15    - H5R   
  3684   3687   3689      1    1.1005e+02    3.8802e+02 ;    C16 - C15    - H5S   
  3684   3687   3690      1    1.1205e+02    3.9497e+02 ;    C16 - C15    - C14   
  3685   3684   3686      1    1.0835e+02    3.2995e+02 ;    H6R - C16    - H6S   
  3685   3684   3687      1    1.1005e+02    3.8802e+02 ;    H6R - C16    - C15   
  3686   3684   3687      1    1.1005e+02    3.8802e+02 ;    H6S - C16    - C15   
  3687   3690   3691      1    1.1005e+02    3.8802e+02 ;    C15 - C14    - H4R   
  3687   3690   3692      1    1.1005e+02    3.8802e+02 ;    C15 - C14    - H4S   
  3687   3690   3693      1    1.1205e+02    3.9497e+02 ;    C15 - C14    - C13   
  3688   3687   3689      1    1.0835e+02    3.2995e+02 ;    H5R - C15    - H5S   
  3688   3687   3690      1    1.1005e+02    3.8802e+02 ;    H5R - C15    - C14   
  3689   3687   3690      1    1.1005e+02    3.8802e+02 ;    H5S - C15    - C14   
  3690   3693   3694      1    1.1005e+02    3.8802e+02 ;    C14 - C13    - H3R   
  3690   3693   3695      1    1.1005e+02    3.8802e+02 ;    C14 - C13    - H3S   
  3690   3693   3696      1    1.1205e+02    3.9497e+02 ;    C14 - C13    - C12   
  3691   3690   3692      1    1.0835e+02    3.2995e+02 ;    H4R - C14    - H4S   
  3691   3690   3693      1    1.1005e+02    3.8802e+02 ;    H4R - C14    - C13   
  3692   3690   3693      1    1.1005e+02    3.8802e+02 ;    H4S - C14    - C13   
  3693   3696   3697      1    1.1005e+02    3.8802e+02 ;    C13 - C12    - H2R   
  3693   3696   3698      1    1.1005e+02    3.8802e+02 ;    C13 - C12    - H2S   
  3693   3696   3699      1    1.1053e+02    5.3379e+02 ;    C13 - C12    - C11   
  3694   3693   3695      1    1.0835e+02    3.2995e+02 ;    H3R - C13    - H3S   
  3694   3693   3696      1    1.1005e+02    3.8802e+02 ;    H3R - C13    - C12   
  3695   3693   3696      1    1.1005e+02    3.8802e+02 ;    H3S - C13    - C12   
  3696   3699   3700      1    1.2311e+02    5.6928e+02 ;    C12 - C11    - O12   
  3696   3699   3701      1    1.1196e+02    5.7957e+02 ;    C12 - C11    - O11   
  3697   3696   3698      1    1.0835e+02    3.2995e+02 ;    H2R - C12    - H2S   
  3697   3696   3699      1    1.0968e+02    3.9497e+02 ;    H2R - C12    - C11   
  3698   3696   3699      1    1.0968e+02    3.9497e+02 ;    H2S - C12    - C11   
  3699   3701   3702      1    1.1514e+02    5.3246e+02 ;    C11 - O11    - C1    
  3700   3699   3701      1    1.2333e+02    6.3538e+02 ;    O12 - C11    - O11   
  3701   3702   3703      1    1.0882e+02    4.2543e+02 ;    O11 - C1     - HR    
  3701   3702   3704      1    1.0882e+02    4.2543e+02 ;    O11 - C1     - HS    
  3701   3702   3705      1    1.0842e+02    5.6718e+02 ;    O11 - C1     - C2    
  3702   3705   3706      1    1.1007e+02    3.8794e+02 ;     C1 - C2     - HX    
  3702   3705   3707      1    1.1063e+02    5.2894e+02 ;     C1 - C2     - C3    
  3702   3705   3734      1    1.0842e+02    5.6718e+02 ;     C1 - C2     - O21   
  3703   3702   3704      1    1.0955e+02    3.2786e+02 ;     HR - C1     - HS    
  3703   3702   3705      1    1.1007e+02    3.8794e+02 ;     HR - C1     - C2    
  3704   3702   3705      1    1.1007e+02    3.8794e+02 ;     HS - C1     - C2    
  3705   3707   3708      1    1.1007e+02    3.8794e+02 ;     C2 - C3     - HA    
  3705   3707   3709      1    1.1007e+02    3.8794e+02 ;     C2 - C3     - HB    
  3705   3707   3710      1    1.0842e+02    5.6718e+02 ;     C2 - C3     - O31   
  3705   3734   3735      1    1.1514e+02    5.3246e+02 ;     C2 - O21    - C21   
  3706   3705   3707      1    1.1007e+02    3.8794e+02 ;     HX - C2     - C3    
  3706   3705   3734      1    1.0882e+02    4.2543e+02 ;     HX - C2     - O21   
  3707   3705   3734      1    1.0842e+02    5.6718e+02 ;     C3 - C2     - O21   
  3707   3710   3711      1    1.2050e+02    8.3680e+02 ;     C3 - O31    - P31   
  3708   3707   3709      1    1.0955e+02    3.2786e+02 ;     HA - C3     - HB    
  3708   3707   3710      1    1.0882e+02    4.2543e+02 ;     HA - C3     - O31   
  3709   3707   3710      1    1.0882e+02    4.2543e+02 ;     HB - C3     - O31   
  3710   3711   3712      1    1.0260e+02    7.5312e+02 ;    O31 - P31    - O32   
  3710   3711   3732      1    1.0823e+02    8.3680e+02 ;    O31 - P31    - O33   
  3710   3711   3733      1    1.0823e+02    8.3680e+02 ;    O31 - P31    - O34   
  3711   3712   3713      1    1.2050e+02    8.3680e+02 ;    P31 - O32    - C31   
  3712   3711   3732      1    1.0823e+02    8.3680e+02 ;    O32 - P31    - O33   
  3712   3711   3733      1    1.0823e+02    8.3680e+02 ;    O32 - P31    - O34   
  3712   3713   3714      1    1.0882e+02    4.2543e+02 ;    O32 - C31    - H1A   
  3712   3713   3715      1    1.0882e+02    4.2543e+02 ;    O32 - C31    - H1B   
  3712   3713   3716      1    1.0842e+02    5.6718e+02 ;    O32 - C31    - C32   
  3713   3716   3717      1    1.1174e+02    3.8510e+02 ;    C31 - C32    - H2A   
  3713   3716   3718      1    1.1174e+02    3.8510e+02 ;    C31 - C32    - H2B   
  3713   3716   3719      1    1.1432e+02    5.3932e+02 ;    C31 - C32    - N31   
  3714   3713   3715      1    1.0955e+02    3.2786e+02 ;    H1A - C31    - H1B   
  3714   3713   3716      1    1.1007e+02    3.8794e+02 ;    H1A - C31    - C32   
  3715   3713   3716      1    1.1007e+02    3.8794e+02 ;    H1B - C31    - C32   
  3716   3719   3720      1    1.1064e+02    5.2585e+02 ;    C32 - N31    - C33   
  3716   3719   3724      1    1.1064e+02    5.2585e+02 ;    C32 - N31    - C34   
  3716   3719   3728      1    1.1064e+02    5.2585e+02 ;    C32 - N31    - C35   
  3717   3716   3718      1    1.1074e+02    3.2669e+02 ;    H2A - C32    - H2B   
  3717   3716   3719      1    1.0791e+02    4.1020e+02 ;    H2A - C32    - N31   
  3718   3716   3719      1    1.0791e+02    4.1020e+02 ;    H2B - C32    - N31   
  3719   3720   3721      1    1.0791e+02    4.1020e+02 ;    N31 - C33    - H3A   
  3719   3720   3722      1    1.0791e+02    4.1020e+02 ;    N31 - C33    - H3B   
  3719   3720   3723      1    1.0791e+02    4.1020e+02 ;    N31 - C33    - H3C   
  3719   3724   3725      1    1.0791e+02    4.1020e+02 ;    N31 - C34    - H4A   
  3719   3724   3726      1    1.0791e+02    4.1020e+02 ;    N31 - C34    - H4B   
  3719   3724   3727      1    1.0791e+02    4.1020e+02 ;    N31 - C34    - H4C   
  3719   3728   3729      1    1.0791e+02    4.1020e+02 ;    N31 - C35    - H5A   
  3719   3728   3730      1    1.0791e+02    4.1020e+02 ;    N31 - C35    - H5B   
  3719   3728   3731      1    1.0791e+02    4.1020e+02 ;    N31 - C35    - H5C   
  3720   3719   3724      1    1.1064e+02    5.2585e+02 ;    C33 - N31    - C34   
  3720   3719   3728      1    1.1064e+02    5.2585e+02 ;    C33 - N31    - C35   
  3721   3720   3722      1    1.1074e+02    3.2669e+02 ;    H3A - C33    - H3B   
  3721   3720   3723      1    1.1074e+02    3.2669e+02 ;    H3A - C33    - H3C   
  3722   3720   3723      1    1.1074e+02    3.2669e+02 ;    H3B - C33    - H3C   
  3724   3719   3728      1    1.1064e+02    5.2585e+02 ;    C34 - N31    - C35   
  3725   3724   3726      1    1.1074e+02    3.2669e+02 ;    H4A - C34    - H4B   
  3725   3724   3727      1    1.1074e+02    3.2669e+02 ;    H4A - C34    - H4C   
  3726   3724   3727      1    1.1074e+02    3.2669e+02 ;    H4B - C34    - H4C   
  3729   3728   3730      1    1.1074e+02    3.2669e+02 ;    H5A - C35    - H5B   
  3729   3728   3731      1    1.1074e+02    3.2669e+02 ;    H5A - C35    - H5C   
  3730   3728   3731      1    1.1074e+02    3.2669e+02 ;    H5B - C35    - H5C   
  3732   3711   3733      1    1.1990e+02    1.1715e+03 ;    O33 - P31    - O34   
  3734   3735   3736      1    1.2333e+02    6.3538e+02 ;    O21 - C21    - O22   
  3734   3735   3774      1    1.1196e+02    5.7957e+02 ;    O21 - C21    - C12   
  3735   3774   3771      1    1.1053e+02    5.3379e+02 ;    C21 - C12    - C13   
  3735   3774   3775      1    1.0968e+02    3.9497e+02 ;    C21 - C12    - H2R   
  3735   3774   3776      1    1.0968e+02    3.9497e+02 ;    C21 - C12    - H2S   
  3736   3735   3774      1    1.2311e+02    5.6928e+02 ;    O22 - C21    - C12   
  3737   3738   3739      1    1.0835e+02    3.2995e+02 ;   H14T - C114   - H14R  
  3737   3738   3740      1    1.0835e+02    3.2995e+02 ;   H14T - C114   - H14S  
  3737   3738   3741      1    1.1005e+02    3.8802e+02 ;   H14T - C114   - C113  
  3738   3741   3742      1    1.1005e+02    3.8802e+02 ;   C114 - C113   - H13R  
  3738   3741   3743      1    1.1005e+02    3.8802e+02 ;   C114 - C113   - H13S  
  3738   3741   3744      1    1.1205e+02    3.9497e+02 ;   C114 - C113   - C112  
  3739   3738   3740      1    1.0835e+02    3.2995e+02 ;   H14R - C114   - H14S  
  3739   3738   3741      1    1.1005e+02    3.8802e+02 ;   H14R - C114   - C113  
  3740   3738   3741      1    1.1005e+02    3.8802e+02 ;   H14S - C114   - C113  
  3741   3744   3745      1    1.1005e+02    3.8802e+02 ;   C113 - C112   - H12R  
  3741   3744   3746      1    1.1005e+02    3.8802e+02 ;   C113 - C112   - H12S  
  3741   3744   3747      1    1.1205e+02    3.9497e+02 ;   C113 - C112   - C111  
  3742   3741   3743      1    1.0835e+02    3.2995e+02 ;   H13R - C113   - H13S  
  3742   3741   3744      1    1.1005e+02    3.8802e+02 ;   H13R - C113   - C112  
  3743   3741   3744      1    1.1005e+02    3.8802e+02 ;   H13S - C113   - C112  
  3744   3747   3748      1    1.1005e+02    3.8802e+02 ;   C112 - C111   - H11R  
  3744   3747   3749      1    1.1005e+02    3.8802e+02 ;   C112 - C111   - H11S  
  3744   3747   3750      1    1.1205e+02    3.9497e+02 ;   C112 - C111   - C110  
  3745   3744   3746      1    1.0835e+02    3.2995e+02 ;   H12R - C112   - H12S  
  3745   3744   3747      1    1.1005e+02    3.8802e+02 ;   H12R - C112   - C111  
  3746   3744   3747      1    1.1005e+02    3.8802e+02 ;   H12S - C112   - C111  
  3747   3750   3751      1    1.1005e+02    3.8802e+02 ;   C111 - C110   - H10R  
  3747   3750   3752      1    1.1005e+02    3.8802e+02 ;   C111 - C110   - H10S  
  3747   3750   3753      1    1.1205e+02    3.9497e+02 ;   C111 - C110   - C19   
  3748   3747   3749      1    1.0835e+02    3.2995e+02 ;   H11R - C111   - H11S  
  3748   3747   3750      1    1.1005e+02    3.8802e+02 ;   H11R - C111   - C110  
  3749   3747   3750      1    1.1005e+02    3.8802e+02 ;   H11S - C111   - C110  
  3750   3753   3754      1    1.1005e+02    3.8802e+02 ;   C110 - C19    - H9R   
  3750   3753   3755      1    1.1005e+02    3.8802e+02 ;   C110 - C19    - H9S   
  3750   3753   3756      1    1.1205e+02    3.9497e+02 ;   C110 - C19    - C18   
  3751   3750   3752      1    1.0835e+02    3.2995e+02 ;   H10R - C110   - H10S  
  3751   3750   3753      1    1.1005e+02    3.8802e+02 ;   H10R - C110   - C19   
  3752   3750   3753      1    1.1005e+02    3.8802e+02 ;   H10S - C110   - C19   
  3753   3756   3757      1    1.1005e+02    3.8802e+02 ;    C19 - C18    - H8R   
  3753   3756   3758      1    1.1005e+02    3.8802e+02 ;    C19 - C18    - H8S   
  3753   3756   3759      1    1.1205e+02    3.9497e+02 ;    C19 - C18    - C17   
  3754   3753   3755      1    1.0835e+02    3.2995e+02 ;    H9R - C19    - H9S   
  3754   3753   3756      1    1.1005e+02    3.8802e+02 ;    H9R - C19    - C18   
  3755   3753   3756      1    1.1005e+02    3.8802e+02 ;    H9S - C19    - C18   
  3756   3759   3760      1    1.1005e+02    3.8802e+02 ;    C18 - C17    - H7R   
  3756   3759   3761      1    1.1005e+02    3.8802e+02 ;    C18 - C17    - H7S   
  3756   3759   3762      1    1.1205e+02    3.9497e+02 ;    C18 - C17    - C16   
  3757   3756   3758      1    1.0835e+02    3.2995e+02 ;    H8R - C18    - H8S   
  3757   3756   3759      1    1.1005e+02    3.8802e+02 ;    H8R - C18    - C17   
  3758   3756   3759      1    1.1005e+02    3.8802e+02 ;    H8S - C18    - C17   
  3759   3762   3763      1    1.1005e+02    3.8802e+02 ;    C17 - C16    - H6R   
  3759   3762   3764      1    1.1005e+02    3.8802e+02 ;    C17 - C16    - H6S   
  3759   3762   3765      1    1.1205e+02    3.9497e+02 ;    C17 - C16    - C15   
  3760   3759   3761      1    1.0835e+02    3.2995e+02 ;    H7R - C17    - H7S   
  3760   3759   3762      1    1.1005e+02    3.8802e+02 ;    H7R - C17    - C16   
  3761   3759   3762      1    1.1005e+02    3.8802e+02 ;    H7S - C17    - C16   
  3762   3765   3766      1    1.1005e+02    3.8802e+02 ;    C16 - C15    - H5R   
  3762   3765   3767      1    1.1005e+02    3.8802e+02 ;    C16 - C15    - H5S   
  3762   3765   3768      1    1.1205e+02    3.9497e+02 ;    C16 - C15    - C14   
  3763   3762   3764      1    1.0835e+02    3.2995e+02 ;    H6R - C16    - H6S   
  3763   3762   3765      1    1.1005e+02    3.8802e+02 ;    H6R - C16    - C15   
  3764   3762   3765      1    1.1005e+02    3.8802e+02 ;    H6S - C16    - C15   
  3765   3768   3769      1    1.1005e+02    3.8802e+02 ;    C15 - C14    - H4R   
  3765   3768   3770      1    1.1005e+02    3.8802e+02 ;    C15 - C14    - H4S   
  3765   3768   3771      1    1.1205e+02    3.9497e+02 ;    C15 - C14    - C13   
  3766   3765   3767      1    1.0835e+02    3.2995e+02 ;    H5R - C15    - H5S   
  3766   3765   3768      1    1.1005e+02    3.8802e+02 ;    H5R - C15    - C14   
  3767   3765   3768      1    1.1005e+02    3.8802e+02 ;    H5S - C15    - C14   
  3768   3771   3772      1    1.1005e+02    3.8802e+02 ;    C14 - C13    - H3R   
  3768   3771   3773      1    1.1005e+02    3.8802e+02 ;    C14 - C13    - H3S   
  3768   3771   3774      1    1.1205e+02    3.9497e+02 ;    C14 - C13    - C12   
  3769   3768   3770      1    1.0835e+02    3.2995e+02 ;    H4R - C14    - H4S   
  3769   3768   3771      1    1.1005e+02    3.8802e+02 ;    H4R - C14    - C13   
  3770   3768   3771      1    1.1005e+02    3.8802e+02 ;    H4S - C14    - C13   
  3771   3774   3775      1    1.1005e+02    3.8802e+02 ;    C13 - C12    - H2R   
  3771   3774   3776      1    1.1005e+02    3.8802e+02 ;    C13 - C12    - H2S   
  3772   3771   3773      1    1.0835e+02    3.2995e+02 ;    H3R - C13    - H3S   
  3772   3771   3774      1    1.1005e+02    3.8802e+02 ;    H3R - C13    - C12   
  3773   3771   3774      1    1.1005e+02    3.8802e+02 ;    H3S - C13    - C12   
  3775   3774   3776      1    1.0835e+02    3.2995e+02 ;    H2R - C12    - H2S   
  3777   3778   3779      1    1.0835e+02    3.2995e+02 ;   H14T - C114   - H14R  
  3777   3778   3780      1    1.0835e+02    3.2995e+02 ;   H14T - C114   - H14S  
  3777   3778   3781      1    1.1005e+02    3.8802e+02 ;   H14T - C114   - C113  
  3778   3781   3782      1    1.1005e+02    3.8802e+02 ;   C114 - C113   - H13R  
  3778   3781   3783      1    1.1005e+02    3.8802e+02 ;   C114 - C113   - H13S  
  3778   3781   3784      1    1.1205e+02    3.9497e+02 ;   C114 - C113   - C112  
  3779   3778   3780      1    1.0835e+02    3.2995e+02 ;   H14R - C114   - H14S  
  3779   3778   3781      1    1.1005e+02    3.8802e+02 ;   H14R - C114   - C113  
  3780   3778   3781      1    1.1005e+02    3.8802e+02 ;   H14S - C114   - C113  
  3781   3784   3785      1    1.1005e+02    3.8802e+02 ;   C113 - C112   - H12R  
  3781   3784   3786      1    1.1005e+02    3.8802e+02 ;   C113 - C112   - H12S  
  3781   3784   3787      1    1.1205e+02    3.9497e+02 ;   C113 - C112   - C111  
  3782   3781   3783      1    1.0835e+02    3.2995e+02 ;   H13R - C113   - H13S  
  3782   3781   3784      1    1.1005e+02    3.8802e+02 ;   H13R - C113   - C112  
  3783   3781   3784      1    1.1005e+02    3.8802e+02 ;   H13S - C113   - C112  
  3784   3787   3788      1    1.1005e+02    3.8802e+02 ;   C112 - C111   - H11R  
  3784   3787   3789      1    1.1005e+02    3.8802e+02 ;   C112 - C111   - H11S  
  3784   3787   3790      1    1.1205e+02    3.9497e+02 ;   C112 - C111   - C110  
  3785   3784   3786      1    1.0835e+02    3.2995e+02 ;   H12R - C112   - H12S  
  3785   3784   3787      1    1.1005e+02    3.8802e+02 ;   H12R - C112   - C111  
  3786   3784   3787      1    1.1005e+02    3.8802e+02 ;   H12S - C112   - C111  
  3787   3790   3791      1    1.1005e+02    3.8802e+02 ;   C111 - C110   - H10R  
  3787   3790   3792      1    1.1005e+02    3.8802e+02 ;   C111 - C110   - H10S  
  3787   3790   3793      1    1.1205e+02    3.9497e+02 ;   C111 - C110   - C19   
  3788   3787   3789      1    1.0835e+02    3.2995e+02 ;   H11R - C111   - H11S  
  3788   3787   3790      1    1.1005e+02    3.8802e+02 ;   H11R - C111   - C110  
  3789   3787   3790      1    1.1005e+02    3.8802e+02 ;   H11S - C111   - C110  
  3790   3793   3794      1    1.1005e+02    3.8802e+02 ;   C110 - C19    - H9R   
  3790   3793   3795      1    1.1005e+02    3.8802e+02 ;   C110 - C19    - H9S   
  3790   3793   3796      1    1.1205e+02    3.9497e+02 ;   C110 - C19    - C18   
  3791   3790   3792      1    1.0835e+02    3.2995e+02 ;   H10R - C110   - H10S  
  3791   3790   3793      1    1.1005e+02    3.8802e+02 ;   H10R - C110   - C19   
  3792   3790   3793      1    1.1005e+02    3.8802e+02 ;   H10S - C110   - C19   
  3793   3796   3797      1    1.1005e+02    3.8802e+02 ;    C19 - C18    - H8R   
  3793   3796   3798      1    1.1005e+02    3.8802e+02 ;    C19 - C18    - H8S   
  3793   3796   3799      1    1.1205e+02    3.9497e+02 ;    C19 - C18    - C17   
  3794   3793   3795      1    1.0835e+02    3.2995e+02 ;    H9R - C19    - H9S   
  3794   3793   3796      1    1.1005e+02    3.8802e+02 ;    H9R - C19    - C18   
  3795   3793   3796      1    1.1005e+02    3.8802e+02 ;    H9S - C19    - C18   
  3796   3799   3800      1    1.1005e+02    3.8802e+02 ;    C18 - C17    - H7R   
  3796   3799   3801      1    1.1005e+02    3.8802e+02 ;    C18 - C17    - H7S   
  3796   3799   3802      1    1.1205e+02    3.9497e+02 ;    C18 - C17    - C16   
  3797   3796   3798      1    1.0835e+02    3.2995e+02 ;    H8R - C18    - H8S   
  3797   3796   3799      1    1.1005e+02    3.8802e+02 ;    H8R - C18    - C17   
  3798   3796   3799      1    1.1005e+02    3.8802e+02 ;    H8S - C18    - C17   
  3799   3802   3803      1    1.1005e+02    3.8802e+02 ;    C17 - C16    - H6R   
  3799   3802   3804      1    1.1005e+02    3.8802e+02 ;    C17 - C16    - H6S   
  3799   3802   3805      1    1.1205e+02    3.9497e+02 ;    C17 - C16    - C15   
  3800   3799   3801      1    1.0835e+02    3.2995e+02 ;    H7R - C17    - H7S   
  3800   3799   3802      1    1.1005e+02    3.8802e+02 ;    H7R - C17    - C16   
  3801   3799   3802      1    1.1005e+02    3.8802e+02 ;    H7S - C17    - C16   
  3802   3805   3806      1    1.1005e+02    3.8802e+02 ;    C16 - C15    - H5R   
  3802   3805   3807      1    1.1005e+02    3.8802e+02 ;    C16 - C15    - H5S   
  3802   3805   3808      1    1.1205e+02    3.9497e+02 ;    C16 - C15    - C14   
  3803   3802   3804      1    1.0835e+02    3.2995e+02 ;    H6R - C16    - H6S   
  3803   3802   3805      1    1.1005e+02    3.8802e+02 ;    H6R - C16    - C15   
  3804   3802   3805      1    1.1005e+02    3.8802e+02 ;    H6S - C16    - C15   
  3805   3808   3809      1    1.1005e+02    3.8802e+02 ;    C15 - C14    - H4R   
  3805   3808   3810      1    1.1005e+02    3.8802e+02 ;    C15 - C14    - H4S   
  3805   3808   3811      1    1.1205e+02    3.9497e+02 ;    C15 - C14    - C13   
  3806   3805   3807      1    1.0835e+02    3.2995e+02 ;    H5R - C15    - H5S   
  3806   3805   3808      1    1.1005e+02    3.8802e+02 ;    H5R - C15    - C14   
  3807   3805   3808      1    1.1005e+02    3.8802e+02 ;    H5S - C15    - C14   
  3808   3811   3812      1    1.1005e+02    3.8802e+02 ;    C14 - C13    - H3R   
  3808   3811   3813      1    1.1005e+02    3.8802e+02 ;    C14 - C13    - H3S   
  3808   3811   3814      1    1.1205e+02    3.9497e+02 ;    C14 - C13    - C12   
  3809   3808   3810      1    1.0835e+02    3.2995e+02 ;    H4R - C14    - H4S   
  3809   3808   3811      1    1.1005e+02    3.8802e+02 ;    H4R - C14    - C13   
  3810   3808   3811      1    1.1005e+02    3.8802e+02 ;    H4S - C14    - C13   
  3811   3814   3815      1    1.1005e+02    3.8802e+02 ;    C13 - C12    - H2R   
  3811   3814   3816      1    1.1005e+02    3.8802e+02 ;    C13 - C12    - H2S   
  3811   3814   3817      1    1.1053e+02    5.3379e+02 ;    C13 - C12    - C11   
  3812   3811   3813      1    1.0835e+02    3.2995e+02 ;    H3R - C13    - H3S   
  3812   3811   3814      1    1.1005e+02    3.8802e+02 ;    H3R - C13    - C12   
  3813   3811   3814      1    1.1005e+02    3.8802e+02 ;    H3S - C13    - C12   
  3814   3817   3818      1    1.2311e+02    5.6928e+02 ;    C12 - C11    - O12   
  3814   3817   3819      1    1.1196e+02    5.7957e+02 ;    C12 - C11    - O11   
  3815   3814   3816      1    1.0835e+02    3.2995e+02 ;    H2R - C12    - H2S   
  3815   3814   3817      1    1.0968e+02    3.9497e+02 ;    H2R - C12    - C11   
  3816   3814   3817      1    1.0968e+02    3.9497e+02 ;    H2S - C12    - C11   
  3817   3819   3820      1    1.1514e+02    5.3246e+02 ;    C11 - O11    - C1    
  3818   3817   3819      1    1.2333e+02    6.3538e+02 ;    O12 - C11    - O11   
  3819   3820   3821      1    1.0882e+02    4.2543e+02 ;    O11 - C1     - HR    
  3819   3820   3822      1    1.0882e+02    4.2543e+02 ;    O11 - C1     - HS    
  3819   3820   3823      1    1.0842e+02    5.6718e+02 ;    O11 - C1     - C2    
  3820   3823   3824      1    1.1007e+02    3.8794e+02 ;     C1 - C2     - HX    
  3820   3823   3825      1    1.1063e+02    5.2894e+02 ;     C1 - C2     - C3    
  3820   3823   3852      1    1.0842e+02    5.6718e+02 ;     C1 - C2     - O21   
  3821   3820   3822      1    1.0955e+02    3.2786e+02 ;     HR - C1     - HS    
  3821   3820   3823      1    1.1007e+02    3.8794e+02 ;     HR - C1     - C2    
  3822   3820   3823      1    1.1007e+02    3.8794e+02 ;     HS - C1     - C2    
  3823   3825   3826      1    1.1007e+02    3.8794e+02 ;     C2 - C3     - HA    
  3823   3825   3827      1    1.1007e+02    3.8794e+02 ;     C2 - C3     - HB    
  3823   3825   3828      1    1.0842e+02    5.6718e+02 ;     C2 - C3     - O31   
  3823   3852   3853      1    1.1514e+02    5.3246e+02 ;     C2 - O21    - C21   
  3824   3823   3825      1    1.1007e+02    3.8794e+02 ;     HX - C2     - C3    
  3824   3823   3852      1    1.0882e+02    4.2543e+02 ;     HX - C2     - O21   
  3825   3823   3852      1    1.0842e+02    5.6718e+02 ;     C3 - C2     - O21   
  3825   3828   3829      1    1.2050e+02    8.3680e+02 ;     C3 - O31    - P31   
  3826   3825   3827      1    1.0955e+02    3.2786e+02 ;     HA - C3     - HB    
  3826   3825   3828      1    1.0882e+02    4.2543e+02 ;     HA - C3     - O31   
  3827   3825   3828      1    1.0882e+02    4.2543e+02 ;     HB - C3     - O31   
  3828   3829   3830      1    1.0260e+02    7.5312e+02 ;    O31 - P31    - O32   
  3828   3829   3850      1    1.0823e+02    8.3680e+02 ;    O31 - P31    - O33   
  3828   3829   3851      1    1.0823e+02    8.3680e+02 ;    O31 - P31    - O34   
  3829   3830   3831      1    1.2050e+02    8.3680e+02 ;    P31 - O32    - C31   
  3830   3829   3850      1    1.0823e+02    8.3680e+02 ;    O32 - P31    - O33   
  3830   3829   3851      1    1.0823e+02    8.3680e+02 ;    O32 - P31    - O34   
  3830   3831   3832      1    1.0882e+02    4.2543e+02 ;    O32 - C31    - H1A   
  3830   3831   3833      1    1.0882e+02    4.2543e+02 ;    O32 - C31    - H1B   
  3830   3831   3834      1    1.0842e+02    5.6718e+02 ;    O32 - C31    - C32   
  3831   3834   3835      1    1.1174e+02    3.8510e+02 ;    C31 - C32    - H2A   
  3831   3834   3836      1    1.1174e+02    3.8510e+02 ;    C31 - C32    - H2B   
  3831   3834   3837      1    1.1432e+02    5.3932e+02 ;    C31 - C32    - N31   
  3832   3831   3833      1    1.0955e+02    3.2786e+02 ;    H1A - C31    - H1B   
  3832   3831   3834      1    1.1007e+02    3.8794e+02 ;    H1A - C31    - C32   
  3833   3831   3834      1    1.1007e+02    3.8794e+02 ;    H1B - C31    - C32   
  3834   3837   3838      1    1.1064e+02    5.2585e+02 ;    C32 - N31    - C33   
  3834   3837   3842      1    1.1064e+02    5.2585e+02 ;    C32 - N31    - C34   
  3834   3837   3846      1    1.1064e+02    5.2585e+02 ;    C32 - N31    - C35   
  3835   3834   3836      1    1.1074e+02    3.2669e+02 ;    H2A - C32    - H2B   
  3835   3834   3837      1    1.0791e+02    4.1020e+02 ;    H2A - C32    - N31   
  3836   3834   3837      1    1.0791e+02    4.1020e+02 ;    H2B - C32    - N31   
  3837   3838   3839      1    1.0791e+02    4.1020e+02 ;    N31 - C33    - H3A   
  3837   3838   3840      1    1.0791e+02    4.1020e+02 ;    N31 - C33    - H3B   
  3837   3838   3841      1    1.0791e+02    4.1020e+02 ;    N31 - C33    - H3C   
  3837   3842   3843      1    1.0791e+02    4.1020e+02 ;    N31 - C34    - H4A   
  3837   3842   3844      1    1.0791e+02    4.1020e+02 ;    N31 - C34    - H4B   
  3837   3842   3845      1    1.0791e+02    4.1020e+02 ;    N31 - C34    - H4C   
  3837   3846   3847      1    1.0791e+02    4.1020e+02 ;    N31 - C35    - H5A   
  3837   3846   3848      1    1.0791e+02    4.1020e+02 ;    N31 - C35    - H5B   
  3837   3846   3849      1    1.0791e+02    4.1020e+02 ;    N31 - C35    - H5C   
  3838   3837   3842      1    1.1064e+02    5.2585e+02 ;    C33 - N31    - C34   
  3838   3837   3846      1    1.1064e+02    5.2585e+02 ;    C33 - N31    - C35   
  3839   3838   3840      1    1.1074e+02    3.2669e+02 ;    H3A - C33    - H3B   
  3839   3838   3841      1    1.1074e+02    3.2669e+02 ;    H3A - C33    - H3C   
  3840   3838   3841      1    1.1074e+02    3.2669e+02 ;    H3B - C33    - H3C   
  3842   3837   3846      1    1.1064e+02    5.2585e+02 ;    C34 - N31    - C35   
  3843   3842   3844      1    1.1074e+02    3.2669e+02 ;    H4A - C34    - H4B   
  3843   3842   3845      1    1.1074e+02    3.2669e+02 ;    H4A - C34    - H4C   
  3844   3842   3845      1    1.1074e+02    3.2669e+02 ;    H4B - C34    - H4C   
  3847   3846   3848      1    1.1074e+02    3.2669e+02 ;    H5A - C35    - H5B   
  3847   3846   3849      1    1.1074e+02    3.2669e+02 ;    H5A - C35    - H5C   
  3848   3846   3849      1    1.1074e+02    3.2669e+02 ;    H5B - C35    - H5C   
  3850   3829   3851      1    1.1990e+02    1.1715e+03 ;    O33 - P31    - O34   
  3852   3853   3854      1    1.2333e+02    6.3538e+02 ;    O21 - C21    - O22   
  3852   3853   3892      1    1.1196e+02    5.7957e+02 ;    O21 - C21    - C12   
  3853   3892   3889      1    1.1053e+02    5.3379e+02 ;    C21 - C12    - C13   
  3853   3892   3893      1    1.0968e+02    3.9497e+02 ;    C21 - C12    - H2R   
  3853   3892   3894      1    1.0968e+02    3.9497e+02 ;    C21 - C12    - H2S   
  3854   3853   3892      1    1.2311e+02    5.6928e+02 ;    O22 - C21    - C12   
  3855   3856   3857      1    1.0835e+02    3.2995e+02 ;   H14T - C114   - H14R  
  3855   3856   3858      1    1.0835e+02    3.2995e+02 ;   H14T - C114   - H14S  
  3855   3856   3859      1    1.1005e+02    3.8802e+02 ;   H14T - C114   - C113  
  3856   3859   3860      1    1.1005e+02    3.8802e+02 ;   C114 - C113   - H13R  
  3856   3859   3861      1    1.1005e+02    3.8802e+02 ;   C114 - C113   - H13S  
  3856   3859   3862      1    1.1205e+02    3.9497e+02 ;   C114 - C113   - C112  
  3857   3856   3858      1    1.0835e+02    3.2995e+02 ;   H14R - C114   - H14S  
  3857   3856   3859      1    1.1005e+02    3.8802e+02 ;   H14R - C114   - C113  
  3858   3856   3859      1    1.1005e+02    3.8802e+02 ;   H14S - C114   - C113  
  3859   3862   3863      1    1.1005e+02    3.8802e+02 ;   C113 - C112   - H12R  
  3859   3862   3864      1    1.1005e+02    3.8802e+02 ;   C113 - C112   - H12S  
  3859   3862   3865      1    1.1205e+02    3.9497e+02 ;   C113 - C112   - C111  
  3860   3859   3861      1    1.0835e+02    3.2995e+02 ;   H13R - C113   - H13S  
  3860   3859   3862      1    1.1005e+02    3.8802e+02 ;   H13R - C113   - C112  
  3861   3859   3862      1    1.1005e+02    3.8802e+02 ;   H13S - C113   - C112  
  3862   3865   3866      1    1.1005e+02    3.8802e+02 ;   C112 - C111   - H11R  
  3862   3865   3867      1    1.1005e+02    3.8802e+02 ;   C112 - C111   - H11S  
  3862   3865   3868      1    1.1205e+02    3.9497e+02 ;   C112 - C111   - C110  
  3863   3862   3864      1    1.0835e+02    3.2995e+02 ;   H12R - C112   - H12S  
  3863   3862   3865      1    1.1005e+02    3.8802e+02 ;   H12R - C112   - C111  
  3864   3862   3865      1    1.1005e+02    3.8802e+02 ;   H12S - C112   - C111  
  3865   3868   3869      1    1.1005e+02    3.8802e+02 ;   C111 - C110   - H10R  
  3865   3868   3870      1    1.1005e+02    3.8802e+02 ;   C111 - C110   - H10S  
  3865   3868   3871      1    1.1205e+02    3.9497e+02 ;   C111 - C110   - C19   
  3866   3865   3867      1    1.0835e+02    3.2995e+02 ;   H11R - C111   - H11S  
  3866   3865   3868      1    1.1005e+02    3.8802e+02 ;   H11R - C111   - C110  
  3867   3865   3868      1    1.1005e+02    3.8802e+02 ;   H11S - C111   - C110  
  3868   3871   3872      1    1.1005e+02    3.8802e+02 ;   C110 - C19    - H9R   
  3868   3871   3873      1    1.1005e+02    3.8802e+02 ;   C110 - C19    - H9S   
  3868   3871   3874      1    1.1205e+02    3.9497e+02 ;   C110 - C19    - C18   
  3869   3868   3870      1    1.0835e+02    3.2995e+02 ;   H10R - C110   - H10S  
  3869   3868   3871      1    1.1005e+02    3.8802e+02 ;   H10R - C110   - C19   
  3870   3868   3871      1    1.1005e+02    3.8802e+02 ;   H10S - C110   - C19   
  3871   3874   3875      1    1.1005e+02    3.8802e+02 ;    C19 - C18    - H8R   
  3871   3874   3876      1    1.1005e+02    3.8802e+02 ;    C19 - C18    - H8S   
  3871   3874   3877      1    1.1205e+02    3.9497e+02 ;    C19 - C18    - C17   
  3872   3871   3873      1    1.0835e+02    3.2995e+02 ;    H9R - C19    - H9S   
  3872   3871   3874      1    1.1005e+02    3.8802e+02 ;    H9R - C19    - C18   
  3873   3871   3874      1    1.1005e+02    3.8802e+02 ;    H9S - C19    - C18   
  3874   3877   3878      1    1.1005e+02    3.8802e+02 ;    C18 - C17    - H7R   
  3874   3877   3879      1    1.1005e+02    3.8802e+02 ;    C18 - C17    - H7S   
  3874   3877   3880      1    1.1205e+02    3.9497e+02 ;    C18 - C17    - C16   
  3875   3874   3876      1    1.0835e+02    3.2995e+02 ;    H8R - C18    - H8S   
  3875   3874   3877      1    1.1005e+02    3.8802e+02 ;    H8R - C18    - C17   
  3876   3874   3877      1    1.1005e+02    3.8802e+02 ;    H8S - C18    - C17   
  3877   3880   3881      1    1.1005e+02    3.8802e+02 ;    C17 - C16    - H6R   
  3877   3880   3882      1    1.1005e+02    3.8802e+02 ;    C17 - C16    - H6S   
  3877   3880   3883      1    1.1205e+02    3.9497e+02 ;    C17 - C16    - C15   
  3878   3877   3879      1    1.0835e+02    3.2995e+02 ;    H7R - C17    - H7S   
  3878   3877   3880      1    1.1005e+02    3.8802e+02 ;    H7R - C17    - C16   
  3879   3877   3880      1    1.1005e+02    3.8802e+02 ;    H7S - C17    - C16   
  3880   3883   3884      1    1.1005e+02    3.8802e+02 ;    C16 - C15    - H5R   
  3880   3883   3885      1    1.1005e+02    3.8802e+02 ;    C16 - C15    - H5S   
  3880   3883   3886      1    1.1205e+02    3.9497e+02 ;    C16 - C15    - C14   
  3881   3880   3882      1    1.0835e+02    3.2995e+02 ;    H6R - C16    - H6S   
  3881   3880   3883      1    1.1005e+02    3.8802e+02 ;    H6R - C16    - C15   
  3882   3880   3883      1    1.1005e+02    3.8802e+02 ;    H6S - C16    - C15   
  3883   3886   3887      1    1.1005e+02    3.8802e+02 ;    C15 - C14    - H4R   
  3883   3886   3888      1    1.1005e+02    3.8802e+02 ;    C15 - C14    - H4S   
  3883   3886   3889      1    1.1205e+02    3.9497e+02 ;    C15 - C14    - C13   
  3884   3883   3885      1    1.0835e+02    3.2995e+02 ;    H5R - C15    - H5S   
  3884   3883   3886      1    1.1005e+02    3.8802e+02 ;    H5R - C15    - C14   
  3885   3883   3886      1    1.1005e+02    3.8802e+02 ;    H5S - C15    - C14   
  3886   3889   3890      1    1.1005e+02    3.8802e+02 ;    C14 - C13    - H3R   
  3886   3889   3891      1    1.1005e+02    3.8802e+02 ;    C14 - C13    - H3S   
  3886   3889   3892      1    1.1205e+02    3.9497e+02 ;    C14 - C13    - C12   
  3887   3886   3888      1    1.0835e+02    3.2995e+02 ;    H4R - C14    - H4S   
  3887   3886   3889      1    1.1005e+02    3.8802e+02 ;    H4R - C14    - C13   
  3888   3886   3889      1    1.1005e+02    3.8802e+02 ;    H4S - C14    - C13   
  3889   3892   3893      1    1.1005e+02    3.8802e+02 ;    C13 - C12    - H2R   
  3889   3892   3894      1    1.1005e+02    3.8802e+02 ;    C13 - C12    - H2S   
  3890   3889   3891      1    1.0835e+02    3.2995e+02 ;    H3R - C13    - H3S   
  3890   3889   3892      1    1.1005e+02    3.8802e+02 ;    H3R - C13    - C12   
  3891   3889   3892      1    1.1005e+02    3.8802e+02 ;    H3S - C13    - C12   
  3893   3892   3894      1    1.0835e+02    3.2995e+02 ;    H2R - C12    - H2S   
  3895   3896   3897      1    1.0835e+02    3.2995e+02 ;   H14T - C114   - H14R  
  3895   3896   3898      1    1.0835e+02    3.2995e+02 ;   H14T - C114   - H14S  
  3895   3896   3899      1    1.1005e+02    3.8802e+02 ;   H14T - C114   - C113  
  3896   3899   3900      1    1.1005e+02    3.8802e+02 ;   C114 - C113   - H13R  
  3896   3899   3901      1    1.1005e+02    3.8802e+02 ;   C114 - C113   - H13S  
  3896   3899   3902      1    1.1205e+02    3.9497e+02 ;   C114 - C113   - C112  
  3897   3896   3898      1    1.0835e+02    3.2995e+02 ;   H14R - C114   - H14S  
  3897   3896   3899      1    1.1005e+02    3.8802e+02 ;   H14R - C114   - C113  
  3898   3896   3899      1    1.1005e+02    3.8802e+02 ;   H14S - C114   - C113  
  3899   3902   3903      1    1.1005e+02    3.8802e+02 ;   C113 - C112   - H12R  
  3899   3902   3904      1    1.1005e+02    3.8802e+02 ;   C113 - C112   - H12S  
  3899   3902   3905      1    1.1205e+02    3.9497e+02 ;   C113 - C112   - C111  
  3900   3899   3901      1    1.0835e+02    3.2995e+02 ;   H13R - C113   - H13S  
  3900   3899   3902      1    1.1005e+02    3.8802e+02 ;   H13R - C113   - C112  
  3901   3899   3902      1    1.1005e+02    3.8802e+02 ;   H13S - C113   - C112  
  3902   3905   3906      1    1.1005e+02    3.8802e+02 ;   C112 - C111   - H11R  
  3902   3905   3907      1    1.1005e+02    3.8802e+02 ;   C112 - C111   - H11S  
  3902   3905   3908      1    1.1205e+02    3.9497e+02 ;   C112 - C111   - C110  
  3903   3902   3904      1    1.0835e+02    3.2995e+02 ;   H12R - C112   - H12S  
  3903   3902   3905      1    1.1005e+02    3.8802e+02 ;   H12R - C112   - C111  
  3904   3902   3905      1    1.1005e+02    3.8802e+02 ;   H12S - C112   - C111  
  3905   3908   3909      1    1.1005e+02    3.8802e+02 ;   C111 - C110   - H10R  
  3905   3908   3910      1    1.1005e+02    3.8802e+02 ;   C111 - C110   - H10S  
  3905   3908   3911      1    1.1205e+02    3.9497e+02 ;   C111 - C110   - C19   
  3906   3905   3907      1    1.0835e+02    3.2995e+02 ;   H11R - C111   - H11S  
  3906   3905   3908      1    1.1005e+02    3.8802e+02 ;   H11R - C111   - C110  
  3907   3905   3908      1    1.1005e+02    3.8802e+02 ;   H11S - C111   - C110  
  3908   3911   3912      1    1.1005e+02    3.8802e+02 ;   C110 - C19    - H9R   
  3908   3911   3913      1    1.1005e+02    3.8802e+02 ;   C110 - C19    - H9S   
  3908   3911   3914      1    1.1205e+02    3.9497e+02 ;   C110 - C19    - C18   
  3909   3908   3910      1    1.0835e+02    3.2995e+02 ;   H10R - C110   - H10S  
  3909   3908   3911      1    1.1005e+02    3.8802e+02 ;   H10R - C110   - C19   
  3910   3908   3911      1    1.1005e+02    3.8802e+02 ;   H10S - C110   - C19   
  3911   3914   3915      1    1.1005e+02    3.8802e+02 ;    C19 - C18    - H8R   
  3911   3914   3916      1    1.1005e+02    3.8802e+02 ;    C19 - C18    - H8S   
  3911   3914   3917      1    1.1205e+02    3.9497e+02 ;    C19 - C18    - C17   
  3912   3911   3913      1    1.0835e+02    3.2995e+02 ;    H9R - C19    - H9S   
  3912   3911   3914      1    1.1005e+02    3.8802e+02 ;    H9R - C19    - C18   
  3913   3911   3914      1    1.1005e+02    3.8802e+02 ;    H9S - C19    - C18   
  3914   3917   3918      1    1.1005e+02    3.8802e+02 ;    C18 - C17    - H7R   
  3914   3917   3919      1    1.1005e+02    3.8802e+02 ;    C18 - C17    - H7S   
  3914   3917   3920      1    1.1205e+02    3.9497e+02 ;    C18 - C17    - C16   
  3915   3914   3916      1    1.0835e+02    3.2995e+02 ;    H8R - C18    - H8S   
  3915   3914   3917      1    1.1005e+02    3.8802e+02 ;    H8R - C18    - C17   
  3916   3914   3917      1    1.1005e+02    3.8802e+02 ;    H8S - C18    - C17   
  3917   3920   3921      1    1.1005e+02    3.8802e+02 ;    C17 - C16    - H6R   
  3917   3920   3922      1    1.1005e+02    3.8802e+02 ;    C17 - C16    - H6S   
  3917   3920   3923      1    1.1205e+02    3.9497e+02 ;    C17 - C16    - C15   
  3918   3917   3919      1    1.0835e+02    3.2995e+02 ;    H7R - C17    - H7S   
  3918   3917   3920      1    1.1005e+02    3.8802e+02 ;    H7R - C17    - C16   
  3919   3917   3920      1    1.1005e+02    3.8802e+02 ;    H7S - C17    - C16   
  3920   3923   3924      1    1.1005e+02    3.8802e+02 ;    C16 - C15    - H5R   
  3920   3923   3925      1    1.1005e+02    3.8802e+02 ;    C16 - C15    - H5S   
  3920   3923   3926      1    1.1205e+02    3.9497e+02 ;    C16 - C15    - C14   
  3921   3920   3922      1    1.0835e+02    3.2995e+02 ;    H6R - C16    - H6S   
  3921   3920   3923      1    1.1005e+02    3.8802e+02 ;    H6R - C16    - C15   
  3922   3920   3923      1    1.1005e+02    3.8802e+02 ;    H6S - C16    - C15   
  3923   3926   3927      1    1.1005e+02    3.8802e+02 ;    C15 - C14    - H4R   
  3923   3926   3928      1    1.1005e+02    3.8802e+02 ;    C15 - C14    - H4S   
  3923   3926   3929      1    1.1205e+02    3.9497e+02 ;    C15 - C14    - C13   
  3924   3923   3925      1    1.0835e+02    3.2995e+02 ;    H5R - C15    - H5S   
  3924   3923   3926      1    1.1005e+02    3.8802e+02 ;    H5R - C15    - C14   
  3925   3923   3926      1    1.1005e+02    3.8802e+02 ;    H5S - C15    - C14   
  3926   3929   3930      1    1.1005e+02    3.8802e+02 ;    C14 - C13    - H3R   
  3926   3929   3931      1    1.1005e+02    3.8802e+02 ;    C14 - C13    - H3S   
  3926   3929   3932      1    1.1205e+02    3.9497e+02 ;    C14 - C13    - C12   
  3927   3926   3928      1    1.0835e+02    3.2995e+02 ;    H4R - C14    - H4S   
  3927   3926   3929      1    1.1005e+02    3.8802e+02 ;    H4R - C14    - C13   
  3928   3926   3929      1    1.1005e+02    3.8802e+02 ;    H4S - C14    - C13   
  3929   3932   3933      1    1.1005e+02    3.8802e+02 ;    C13 - C12    - H2R   
  3929   3932   3934      1    1.1005e+02    3.8802e+02 ;    C13 - C12    - H2S   
  3929   3932   3935      1    1.1053e+02    5.3379e+02 ;    C13 - C12    - C11   
  3930   3929   3931      1    1.0835e+02    3.2995e+02 ;    H3R - C13    - H3S   
  3930   3929   3932      1    1.1005e+02    3.8802e+02 ;    H3R - C13    - C12   
  3931   3929   3932      1    1.1005e+02    3.8802e+02 ;    H3S - C13    - C12   
  3932   3935   3936      1    1.2311e+02    5.6928e+02 ;    C12 - C11    - O12   
  3932   3935   3937      1    1.1196e+02    5.7957e+02 ;    C12 - C11    - O11   
  3933   3932   3934      1    1.0835e+02    3.2995e+02 ;    H2R - C12    - H2S   
  3933   3932   3935      1    1.0968e+02    3.9497e+02 ;    H2R - C12    - C11   
  3934   3932   3935      1    1.0968e+02    3.9497e+02 ;    H2S - C12    - C11   
  3935   3937   3938      1    1.1514e+02    5.3246e+02 ;    C11 - O11    - C1    
  3936   3935   3937      1    1.2333e+02    6.3538e+02 ;    O12 - C11    - O11   
  3937   3938   3939      1    1.0882e+02    4.2543e+02 ;    O11 - C1     - HR    
  3937   3938   3940      1    1.0882e+02    4.2543e+02 ;    O11 - C1     - HS    
  3937   3938   3941      1    1.0842e+02    5.6718e+02 ;    O11 - C1     - C2    
  3938   3941   3942      1    1.1007e+02    3.8794e+02 ;     C1 - C2     - HX    
  3938   3941   3943      1    1.1063e+02    5.2894e+02 ;     C1 - C2     - C3    
  3938   3941   3970      1    1.0842e+02    5.6718e+02 ;     C1 - C2     - O21   
  3939   3938   3940      1    1.0955e+02    3.2786e+02 ;     HR - C1     - HS    
  3939   3938   3941      1    1.1007e+02    3.8794e+02 ;     HR - C1     - C2    
  3940   3938   3941      1    1.1007e+02    3.8794e+02 ;     HS - C1     - C2    
  3941   3943   3944      1    1.1007e+02    3.8794e+02 ;     C2 - C3     - HA    
  3941   3943   3945      1    1.1007e+02    3.8794e+02 ;     C2 - C3     - HB    
  3941   3943   3946      1    1.0842e+02    5.6718e+02 ;     C2 - C3     - O31   
  3941   3970   3971      1    1.1514e+02    5.3246e+02 ;     C2 - O21    - C21   
  3942   3941   3943      1    1.1007e+02    3.8794e+02 ;     HX - C2     - C3    
  3942   3941   3970      1    1.0882e+02    4.2543e+02 ;     HX - C2     - O21   
  3943   3941   3970      1    1.0842e+02    5.6718e+02 ;     C3 - C2     - O21   
  3943   3946   3947      1    1.2050e+02    8.3680e+02 ;     C3 - O31    - P31   
  3944   3943   3945      1    1.0955e+02    3.2786e+02 ;     HA - C3     - HB    
  3944   3943   3946      1    1.0882e+02    4.2543e+02 ;     HA - C3     - O31   
  3945   3943   3946      1    1.0882e+02    4.2543e+02 ;     HB - C3     - O31   
  3946   3947   3948      1    1.0260e+02    7.5312e+02 ;    O31 - P31    - O32   
  3946   3947   3968      1    1.0823e+02    8.3680e+02 ;    O31 - P31    - O33   
  3946   3947   3969      1    1.0823e+02    8.3680e+02 ;    O31 - P31    - O34   
  3947   3948   3949      1    1.2050e+02    8.3680e+02 ;    P31 - O32    - C31   
  3948   3947   3968      1    1.0823e+02    8.3680e+02 ;    O32 - P31    - O33   
  3948   3947   3969      1    1.0823e+02    8.3680e+02 ;    O32 - P31    - O34   
  3948   3949   3950      1    1.0882e+02    4.2543e+02 ;    O32 - C31    - H1A   
  3948   3949   3951      1    1.0882e+02    4.2543e+02 ;    O32 - C31    - H1B   
  3948   3949   3952      1    1.0842e+02    5.6718e+02 ;    O32 - C31    - C32   
  3949   3952   3953      1    1.1174e+02    3.8510e+02 ;    C31 - C32    - H2A   
  3949   3952   3954      1    1.1174e+02    3.8510e+02 ;    C31 - C32    - H2B   
  3949   3952   3955      1    1.1432e+02    5.3932e+02 ;    C31 - C32    - N31   
  3950   3949   3951      1    1.0955e+02    3.2786e+02 ;    H1A - C31    - H1B   
  3950   3949   3952      1    1.1007e+02    3.8794e+02 ;    H1A - C31    - C32   
  3951   3949   3952      1    1.1007e+02    3.8794e+02 ;    H1B - C31    - C32   
  3952   3955   3956      1    1.1064e+02    5.2585e+02 ;    C32 - N31    - C33   
  3952   3955   3960      1    1.1064e+02    5.2585e+02 ;    C32 - N31    - C34   
  3952   3955   3964      1    1.1064e+02    5.2585e+02 ;    C32 - N31    - C35   
  3953   3952   3954      1    1.1074e+02    3.2669e+02 ;    H2A - C32    - H2B   
  3953   3952   3955      1    1.0791e+02    4.1020e+02 ;    H2A - C32    - N31   
  3954   3952   3955      1    1.0791e+02    4.1020e+02 ;    H2B - C32    - N31   
  3955   3956   3957      1    1.0791e+02    4.1020e+02 ;    N31 - C33    - H3A   
  3955   3956   3958      1    1.0791e+02    4.1020e+02 ;    N31 - C33    - H3B   
  3955   3956   3959      1    1.0791e+02    4.1020e+02 ;    N31 - C33    - H3C   
  3955   3960   3961      1    1.0791e+02    4.1020e+02 ;    N31 - C34    - H4A   
  3955   3960   3962      1    1.0791e+02    4.1020e+02 ;    N31 - C34    - H4B   
  3955   3960   3963      1    1.0791e+02    4.1020e+02 ;    N31 - C34    - H4C   
  3955   3964   3965      1    1.0791e+02    4.1020e+02 ;    N31 - C35    - H5A   
  3955   3964   3966      1    1.0791e+02    4.1020e+02 ;    N31 - C35    - H5B   
  3955   3964   3967      1    1.0791e+02    4.1020e+02 ;    N31 - C35    - H5C   
  3956   3955   3960      1    1.1064e+02    5.2585e+02 ;    C33 - N31    - C34   
  3956   3955   3964      1    1.1064e+02    5.2585e+02 ;    C33 - N31    - C35   
  3957   3956   3958      1    1.1074e+02    3.2669e+02 ;    H3A - C33    - H3B   
  3957   3956   3959      1    1.1074e+02    3.2669e+02 ;    H3A - C33    - H3C   
  3958   3956   3959      1    1.1074e+02    3.2669e+02 ;    H3B - C33    - H3C   
  3960   3955   3964      1    1.1064e+02    5.2585e+02 ;    C34 - N31    - C35   
  3961   3960   3962      1    1.1074e+02    3.2669e+02 ;    H4A - C34    - H4B   
  3961   3960   3963      1    1.1074e+02    3.2669e+02 ;    H4A - C34    - H4C   
  3962   3960   3963      1    1.1074e+02    3.2669e+02 ;    H4B - C34    - H4C   
  3965   3964   3966      1    1.1074e+02    3.2669e+02 ;    H5A - C35    - H5B   
  3965   3964   3967      1    1.1074e+02    3.2669e+02 ;    H5A - C35    - H5C   
  3966   3964   3967      1    1.1074e+02    3.2669e+02 ;    H5B - C35    - H5C   
  3968   3947   3969      1    1.1990e+02    1.1715e+03 ;    O33 - P31    - O34   
  3970   3971   3972      1    1.2333e+02    6.3538e+02 ;    O21 - C21    - O22   
  3970   3971   4010      1    1.1196e+02    5.7957e+02 ;    O21 - C21    - C12   
  3971   4010   4007      1    1.1053e+02    5.3379e+02 ;    C21 - C12    - C13   
  3971   4010   4011      1    1.0968e+02    3.9497e+02 ;    C21 - C12    - H2R   
  3971   4010   4012      1    1.0968e+02    3.9497e+02 ;    C21 - C12    - H2S   
  3972   3971   4010      1    1.2311e+02    5.6928e+02 ;    O22 - C21    - C12   
  3973   3974   3975      1    1.0835e+02    3.2995e+02 ;   H14T - C114   - H14R  
  3973   3974   3976      1    1.0835e+02    3.2995e+02 ;   H14T - C114   - H14S  
  3973   3974   3977      1    1.1005e+02    3.8802e+02 ;   H14T - C114   - C113  
  3974   3977   3978      1    1.1005e+02    3.8802e+02 ;   C114 - C113   - H13R  
  3974   3977   3979      1    1.1005e+02    3.8802e+02 ;   C114 - C113   - H13S  
  3974   3977   3980      1    1.1205e+02    3.9497e+02 ;   C114 - C113   - C112  
  3975   3974   3976      1    1.0835e+02    3.2995e+02 ;   H14R - C114   - H14S  
  3975   3974   3977      1    1.1005e+02    3.8802e+02 ;   H14R - C114   - C113  
  3976   3974   3977      1    1.1005e+02    3.8802e+02 ;   H14S - C114   - C113  
  3977   3980   3981      1    1.1005e+02    3.8802e+02 ;   C113 - C112   - H12R  
  3977   3980   3982      1    1.1005e+02    3.8802e+02 ;   C113 - C112   - H12S  
  3977   3980   3983      1    1.1205e+02    3.9497e+02 ;   C113 - C112   - C111  
  3978   3977   3979      1    1.0835e+02    3.2995e+02 ;   H13R - C113   - H13S  
  3978   3977   3980      1    1.1005e+02    3.8802e+02 ;   H13R - C113   - C112  
  3979   3977   3980      1    1.1005e+02    3.8802e+02 ;   H13S - C113   - C112  
  3980   3983   3984      1    1.1005e+02    3.8802e+02 ;   C112 - C111   - H11R  
  3980   3983   3985      1    1.1005e+02    3.8802e+02 ;   C112 - C111   - H11S  
  3980   3983   3986      1    1.1205e+02    3.9497e+02 ;   C112 - C111   - C110  
  3981   3980   3982      1    1.0835e+02    3.2995e+02 ;   H12R - C112   - H12S  
  3981   3980   3983      1    1.1005e+02    3.8802e+02 ;   H12R - C112   - C111  
  3982   3980   3983      1    1.1005e+02    3.8802e+02 ;   H12S - C112   - C111  
  3983   3986   3987      1    1.1005e+02    3.8802e+02 ;   C111 - C110   - H10R  
  3983   3986   3988      1    1.1005e+02    3.8802e+02 ;   C111 - C110   - H10S  
  3983   3986   3989      1    1.1205e+02    3.9497e+02 ;   C111 - C110   - C19   
  3984   3983   3985      1    1.0835e+02    3.2995e+02 ;   H11R - C111   - H11S  
  3984   3983   3986      1    1.1005e+02    3.8802e+02 ;   H11R - C111   - C110  
  3985   3983   3986      1    1.1005e+02    3.8802e+02 ;   H11S - C111   - C110  
  3986   3989   3990      1    1.1005e+02    3.8802e+02 ;   C110 - C19    - H9R   
  3986   3989   3991      1    1.1005e+02    3.8802e+02 ;   C110 - C19    - H9S   
  3986   3989   3992      1    1.1205e+02    3.9497e+02 ;   C110 - C19    - C18   
  3987   3986   3988      1    1.0835e+02    3.2995e+02 ;   H10R - C110   - H10S  
  3987   3986   3989      1    1.1005e+02    3.8802e+02 ;   H10R - C110   - C19   
  3988   3986   3989      1    1.1005e+02    3.8802e+02 ;   H10S - C110   - C19   
  3989   3992   3993      1    1.1005e+02    3.8802e+02 ;    C19 - C18    - H8R   
  3989   3992   3994      1    1.1005e+02    3.8802e+02 ;    C19 - C18    - H8S   
  3989   3992   3995      1    1.1205e+02    3.9497e+02 ;    C19 - C18    - C17   
  3990   3989   3991      1    1.0835e+02    3.2995e+02 ;    H9R - C19    - H9S   
  3990   3989   3992      1    1.1005e+02    3.8802e+02 ;    H9R - C19    - C18   
  3991   3989   3992      1    1.1005e+02    3.8802e+02 ;    H9S - C19    - C18   
  3992   3995   3996      1    1.1005e+02    3.8802e+02 ;    C18 - C17    - H7R   
  3992   3995   3997      1    1.1005e+02    3.8802e+02 ;    C18 - C17    - H7S   
  3992   3995   3998      1    1.1205e+02    3.9497e+02 ;    C18 - C17    - C16   
  3993   3992   3994      1    1.0835e+02    3.2995e+02 ;    H8R - C18    - H8S   
  3993   3992   3995      1    1.1005e+02    3.8802e+02 ;    H8R - C18    - C17   
  3994   3992   3995      1    1.1005e+02    3.8802e+02 ;    H8S - C18    - C17   
  3995   3998   3999      1    1.1005e+02    3.8802e+02 ;    C17 - C16    - H6R   
  3995   3998   4000      1    1.1005e+02    3.8802e+02 ;    C17 - C16    - H6S   
  3995   3998   4001      1    1.1205e+02    3.9497e+02 ;    C17 - C16    - C15   
  3996   3995   3997      1    1.0835e+02    3.2995e+02 ;    H7R - C17    - H7S   
  3996   3995   3998      1    1.1005e+02    3.8802e+02 ;    H7R - C17    - C16   
  3997   3995   3998      1    1.1005e+02    3.8802e+02 ;    H7S - C17    - C16   
  3998   4001   4002      1    1.1005e+02    3.8802e+02 ;    C16 - C15    - H5R   
  3998   4001   4003      1    1.1005e+02    3.8802e+02 ;    C16 - C15    - H5S   
  3998   4001   4004      1    1.1205e+02    3.9497e+02 ;    C16 - C15    - C14   
  3999   3998   4000      1    1.0835e+02    3.2995e+02 ;    H6R - C16    - H6S   
  3999   3998   4001      1    1.1005e+02    3.8802e+02 ;    H6R - C16    - C15   
  4000   3998   4001      1    1.1005e+02    3.8802e+02 ;    H6S - C16    - C15   
  4001   4004   4005      1    1.1005e+02    3.8802e+02 ;    C15 - C14    - H4R   
  4001   4004   4006      1    1.1005e+02    3.8802e+02 ;    C15 - C14    - H4S   
  4001   4004   4007      1    1.1205e+02    3.9497e+02 ;    C15 - C14    - C13   
  4002   4001   4003      1    1.0835e+02    3.2995e+02 ;    H5R - C15    - H5S   
  4002   4001   4004      1    1.1005e+02    3.8802e+02 ;    H5R - C15    - C14   
  4003   4001   4004      1    1.1005e+02    3.8802e+02 ;    H5S - C15    - C14   
  4004   4007   4008      1    1.1005e+02    3.8802e+02 ;    C14 - C13    - H3R   
  4004   4007   4009      1    1.1005e+02    3.8802e+02 ;    C14 - C13    - H3S   
  4004   4007   4010      1    1.1205e+02    3.9497e+02 ;    C14 - C13    - C12   
  4005   4004   4006      1    1.0835e+02    3.2995e+02 ;    H4R - C14    - H4S   
  4005   4004   4007      1    1.1005e+02    3.8802e+02 ;    H4R - C14    - C13   
  4006   4004   4007      1    1.1005e+02    3.8802e+02 ;    H4S - C14    - C13   
  4007   4010   4011      1    1.1005e+02    3.8802e+02 ;    C13 - C12    - H2R   
  4007   4010   4012      1    1.1005e+02    3.8802e+02 ;    C13 - C12    - H2S   
  4008   4007   4009      1    1.0835e+02    3.2995e+02 ;    H3R - C13    - H3S   
  4008   4007   4010      1    1.1005e+02    3.8802e+02 ;    H3R - C13    - C12   
  4009   4007   4010      1    1.1005e+02    3.8802e+02 ;    H3S - C13    - C12   
  4011   4010   4012      1    1.0835e+02    3.2995e+02 ;    H2R - C12    - H2S   
  4013   4014   4015      1    1.0835e+02    3.2995e+02 ;   H14T - C114   - H14R  
  4013   4014   4016      1    1.0835e+02    3.2995e+02 ;   H14T - C114   - H14S  
  4013   4014   4017      1    1.1005e+02    3.8802e+02 ;   H14T - C114   - C113  
  4014   4017   4018      1    1.1005e+02    3.8802e+02 ;   C114 - C113   - H13R  
  4014   4017   4019      1    1.1005e+02    3.8802e+02 ;   C114 - C113   - H13S  
  4014   4017   4020      1    1.1205e+02    3.9497e+02 ;   C114 - C113   - C112  
  4015   4014   4016      1    1.0835e+02    3.2995e+02 ;   H14R - C114   - H14S  
  4015   4014   4017      1    1.1005e+02    3.8802e+02 ;   H14R - C114   - C113  
  4016   4014   4017      1    1.1005e+02    3.8802e+02 ;   H14S - C114   - C113  
  4017   4020   4021      1    1.1005e+02    3.8802e+02 ;   C113 - C112   - H12R  
  4017   4020   4022      1    1.1005e+02    3.8802e+02 ;   C113 - C112   - H12S  
  4017   4020   4023      1    1.1205e+02    3.9497e+02 ;   C113 - C112   - C111  
  4018   4017   4019      1    1.0835e+02    3.2995e+02 ;   H13R - C113   - H13S  
  4018   4017   4020      1    1.1005e+02    3.8802e+02 ;   H13R - C113   - C112  
  4019   4017   4020      1    1.1005e+02    3.8802e+02 ;   H13S - C113   - C112  
  4020   4023   4024      1    1.1005e+02    3.8802e+02 ;   C112 - C111   - H11R  
  4020   4023   4025      1    1.1005e+02    3.8802e+02 ;   C112 - C111   - H11S  
  4020   4023   4026      1    1.1205e+02    3.9497e+02 ;   C112 - C111   - C110  
  4021   4020   4022      1    1.0835e+02    3.2995e+02 ;   H12R - C112   - H12S  
  4021   4020   4023      1    1.1005e+02    3.8802e+02 ;   H12R - C112   - C111  
  4022   4020   4023      1    1.1005e+02    3.8802e+02 ;   H12S - C112   - C111  
  4023   4026   4027      1    1.1005e+02    3.8802e+02 ;   C111 - C110   - H10R  
  4023   4026   4028      1    1.1005e+02    3.8802e+02 ;   C111 - C110   - H10S  
  4023   4026   4029      1    1.1205e+02    3.9497e+02 ;   C111 - C110   - C19   
  4024   4023   4025      1    1.0835e+02    3.2995e+02 ;   H11R - C111   - H11S  
  4024   4023   4026      1    1.1005e+02    3.8802e+02 ;   H11R - C111   - C110  
  4025   4023   4026      1    1.1005e+02    3.8802e+02 ;   H11S - C111   - C110  
  4026   4029   4030      1    1.1005e+02    3.8802e+02 ;   C110 - C19    - H9R   
  4026   4029   4031      1    1.1005e+02    3.8802e+02 ;   C110 - C19    - H9S   
  4026   4029   4032      1    1.1205e+02    3.9497e+02 ;   C110 - C19    - C18   
  4027   4026   4028      1    1.0835e+02    3.2995e+02 ;   H10R - C110   - H10S  
  4027   4026   4029      1    1.1005e+02    3.8802e+02 ;   H10R - C110   - C19   
  4028   4026   4029      1    1.1005e+02    3.8802e+02 ;   H10S - C110   - C19   
  4029   4032   4033      1    1.1005e+02    3.8802e+02 ;    C19 - C18    - H8R   
  4029   4032   4034      1    1.1005e+02    3.8802e+02 ;    C19 - C18    - H8S   
  4029   4032   4035      1    1.1205e+02    3.9497e+02 ;    C19 - C18    - C17   
  4030   4029   4031      1    1.0835e+02    3.2995e+02 ;    H9R - C19    - H9S   
  4030   4029   4032      1    1.1005e+02    3.8802e+02 ;    H9R - C19    - C18   
  4031   4029   4032      1    1.1005e+02    3.8802e+02 ;    H9S - C19    - C18   
  4032   4035   4036      1    1.1005e+02    3.8802e+02 ;    C18 - C17    - H7R   
  4032   4035   4037      1    1.1005e+02    3.8802e+02 ;    C18 - C17    - H7S   
  4032   4035   4038      1    1.1205e+02    3.9497e+02 ;    C18 - C17    - C16   
  4033   4032   4034      1    1.0835e+02    3.2995e+02 ;    H8R - C18    - H8S   
  4033   4032   4035      1    1.1005e+02    3.8802e+02 ;    H8R - C18    - C17   
  4034   4032   4035      1    1.1005e+02    3.8802e+02 ;    H8S - C18    - C17   
  4035   4038   4039      1    1.1005e+02    3.8802e+02 ;    C17 - C16    - H6R   
  4035   4038   4040      1    1.1005e+02    3.8802e+02 ;    C17 - C16    - H6S   
  4035   4038   4041      1    1.1205e+02    3.9497e+02 ;    C17 - C16    - C15   
  4036   4035   4037      1    1.0835e+02    3.2995e+02 ;    H7R - C17    - H7S   
  4036   4035   4038      1    1.1005e+02    3.8802e+02 ;    H7R - C17    - C16   
  4037   4035   4038      1    1.1005e+02    3.8802e+02 ;    H7S - C17    - C16   
  4038   4041   4042      1    1.1005e+02    3.8802e+02 ;    C16 - C15    - H5R   
  4038   4041   4043      1    1.1005e+02    3.8802e+02 ;    C16 - C15    - H5S   
  4038   4041   4044      1    1.1205e+02    3.9497e+02 ;    C16 - C15    - C14   
  4039   4038   4040      1    1.0835e+02    3.2995e+02 ;    H6R - C16    - H6S   
  4039   4038   4041      1    1.1005e+02    3.8802e+02 ;    H6R - C16    - C15   
  4040   4038   4041      1    1.1005e+02    3.8802e+02 ;    H6S - C16    - C15   
  4041   4044   4045      1    1.1005e+02    3.8802e+02 ;    C15 - C14    - H4R   
  4041   4044   4046      1    1.1005e+02    3.8802e+02 ;    C15 - C14    - H4S   
  4041   4044   4047      1    1.1205e+02    3.9497e+02 ;    C15 - C14    - C13   
  4042   4041   4043      1    1.0835e+02    3.2995e+02 ;    H5R - C15    - H5S   
  4042   4041   4044      1    1.1005e+02    3.8802e+02 ;    H5R - C15    - C14   
  4043   4041   4044      1    1.1005e+02    3.8802e+02 ;    H5S - C15    - C14   
  4044   4047   4048      1    1.1005e+02    3.8802e+02 ;    C14 - C13    - H3R   
  4044   4047   4049      1    1.1005e+02    3.8802e+02 ;    C14 - C13    - H3S   
  4044   4047   4050      1    1.1205e+02    3.9497e+02 ;    C14 - C13    - C12   
  4045   4044   4046      1    1.0835e+02    3.2995e+02 ;    H4R - C14    - H4S   
  4045   4044   4047      1    1.1005e+02    3.8802e+02 ;    H4R - C14    - C13   
  4046   4044   4047      1    1.1005e+02    3.8802e+02 ;    H4S - C14    - C13   
  4047   4050   4051      1    1.1005e+02    3.8802e+02 ;    C13 - C12    - H2R   
  4047   4050   4052      1    1.1005e+02    3.8802e+02 ;    C13 - C12    - H2S   
  4047   4050   4053      1    1.1053e+02    5.3379e+02 ;    C13 - C12    - C11   
  4048   4047   4049      1    1.0835e+02    3.2995e+02 ;    H3R - C13    - H3S   
  4048   4047   4050      1    1.1005e+02    3.8802e+02 ;    H3R - C13    - C12   
  4049   4047   4050      1    1.1005e+02    3.8802e+02 ;    H3S - C13    - C12   
  4050   4053   4054      1    1.2311e+02    5.6928e+02 ;    C12 - C11    - O12   
  4050   4053   4055      1    1.1196e+02    5.7957e+02 ;    C12 - C11    - O11   
  4051   4050   4052      1    1.0835e+02    3.2995e+02 ;    H2R - C12    - H2S   
  4051   4050   4053      1    1.0968e+02    3.9497e+02 ;    H2R - C12    - C11   
  4052   4050   4053      1    1.0968e+02    3.9497e+02 ;    H2S - C12    - C11   
  4053   4055   4056      1    1.1514e+02    5.3246e+02 ;    C11 - O11    - C1    
  4054   4053   4055      1    1.2333e+02    6.3538e+02 ;    O12 - C11    - O11   
  4055   4056   4057      1    1.0882e+02    4.2543e+02 ;    O11 - C1     - HR    
  4055   4056   4058      1    1.0882e+02    4.2543e+02 ;    O11 - C1     - HS    
  4055   4056   4059      1    1.0842e+02    5.6718e+02 ;    O11 - C1     - C2    
  4056   4059   4060      1    1.1007e+02    3.8794e+02 ;     C1 - C2     - HX    
  4056   4059   4061      1    1.1063e+02    5.2894e+02 ;     C1 - C2     - C3    
  4056   4059   4088      1    1.0842e+02    5.6718e+02 ;     C1 - C2     - O21   
  4057   4056   4058      1    1.0955e+02    3.2786e+02 ;     HR - C1     - HS    
  4057   4056   4059      1    1.1007e+02    3.8794e+02 ;     HR - C1     - C2    
  4058   4056   4059      1    1.1007e+02    3.8794e+02 ;     HS - C1     - C2    
  4059   4061   4062      1    1.1007e+02    3.8794e+02 ;     C2 - C3     - HA    
  4059   4061   4063      1    1.1007e+02    3.8794e+02 ;     C2 - C3     - HB    
  4059   4061   4064      1    1.0842e+02    5.6718e+02 ;     C2 - C3     - O31   
  4059   4088   4089      1    1.1514e+02    5.3246e+02 ;     C2 - O21    - C21   
  4060   4059   4061      1    1.1007e+02    3.8794e+02 ;     HX - C2     - C3    
  4060   4059   4088      1    1.0882e+02    4.2543e+02 ;     HX - C2     - O21   
  4061   4059   4088      1    1.0842e+02    5.6718e+02 ;     C3 - C2     - O21   
  4061   4064   4065      1    1.2050e+02    8.3680e+02 ;     C3 - O31    - P31   
  4062   4061   4063      1    1.0955e+02    3.2786e+02 ;     HA - C3     - HB    
  4062   4061   4064      1    1.0882e+02    4.2543e+02 ;     HA - C3     - O31   
  4063   4061   4064      1    1.0882e+02    4.2543e+02 ;     HB - C3     - O31   
  4064   4065   4066      1    1.0260e+02    7.5312e+02 ;    O31 - P31    - O32   
  4064   4065   4086      1    1.0823e+02    8.3680e+02 ;    O31 - P31    - O33   
  4064   4065   4087      1    1.0823e+02    8.3680e+02 ;    O31 - P31    - O34   
  4065   4066   4067      1    1.2050e+02    8.3680e+02 ;    P31 - O32    - C31   
  4066   4065   4086      1    1.0823e+02    8.3680e+02 ;    O32 - P31    - O33   
  4066   4065   4087      1    1.0823e+02    8.3680e+02 ;    O32 - P31    - O34   
  4066   4067   4068      1    1.0882e+02    4.2543e+02 ;    O32 - C31    - H1A   
  4066   4067   4069      1    1.0882e+02    4.2543e+02 ;    O32 - C31    - H1B   
  4066   4067   4070      1    1.0842e+02    5.6718e+02 ;    O32 - C31    - C32   
  4067   4070   4071      1    1.1174e+02    3.8510e+02 ;    C31 - C32    - H2A   
  4067   4070   4072      1    1.1174e+02    3.8510e+02 ;    C31 - C32    - H2B   
  4067   4070   4073      1    1.1432e+02    5.3932e+02 ;    C31 - C32    - N31   
  4068   4067   4069      1    1.0955e+02    3.2786e+02 ;    H1A - C31    - H1B   
  4068   4067   4070      1    1.1007e+02    3.8794e+02 ;    H1A - C31    - C32   
  4069   4067   4070      1    1.1007e+02    3.8794e+02 ;    H1B - C31    - C32   
  4070   4073   4074      1    1.1064e+02    5.2585e+02 ;    C32 - N31    - C33   
  4070   4073   4078      1    1.1064e+02    5.2585e+02 ;    C32 - N31    - C34   
  4070   4073   4082      1    1.1064e+02    5.2585e+02 ;    C32 - N31    - C35   
  4071   4070   4072      1    1.1074e+02    3.2669e+02 ;    H2A - C32    - H2B   
  4071   4070   4073      1    1.0791e+02    4.1020e+02 ;    H2A - C32    - N31   
  4072   4070   4073      1    1.0791e+02    4.1020e+02 ;    H2B - C32    - N31   
  4073   4074   4075      1    1.0791e+02    4.1020e+02 ;    N31 - C33    - H3A   
  4073   4074   4076      1    1.0791e+02    4.1020e+02 ;    N31 - C33    - H3B   
  4073   4074   4077      1    1.0791e+02    4.1020e+02 ;    N31 - C33    - H3C   
  4073   4078   4079      1    1.0791e+02    4.1020e+02 ;    N31 - C34    - H4A   
  4073   4078   4080      1    1.0791e+02    4.1020e+02 ;    N31 - C34    - H4B   
  4073   4078   4081      1    1.0791e+02    4.1020e+02 ;    N31 - C34    - H4C   
  4073   4082   4083      1    1.0791e+02    4.1020e+02 ;    N31 - C35    - H5A   
  4073   4082   4084      1    1.0791e+02    4.1020e+02 ;    N31 - C35    - H5B   
  4073   4082   4085      1    1.0791e+02    4.1020e+02 ;    N31 - C35    - H5C   
  4074   4073   4078      1    1.1064e+02    5.2585e+02 ;    C33 - N31    - C34   
  4074   4073   4082      1    1.1064e+02    5.2585e+02 ;    C33 - N31    - C35   
  4075   4074   4076      1    1.1074e+02    3.2669e+02 ;    H3A - C33    - H3B   
  4075   4074   4077      1    1.1074e+02    3.2669e+02 ;    H3A - C33    - H3C   
  4076   4074   4077      1    1.1074e+02    3.2669e+02 ;    H3B - C33    - H3C   
  4078   4073   4082      1    1.1064e+02    5.2585e+02 ;    C34 - N31    - C35   
  4079   4078   4080      1    1.1074e+02    3.2669e+02 ;    H4A - C34    - H4B   
  4079   4078   4081      1    1.1074e+02    3.2669e+02 ;    H4A - C34    - H4C   
  4080   4078   4081      1    1.1074e+02    3.2669e+02 ;    H4B - C34    - H4C   
  4083   4082   4084      1    1.1074e+02    3.2669e+02 ;    H5A - C35    - H5B   
  4083   4082   4085      1    1.1074e+02    3.2669e+02 ;    H5A - C35    - H5C   
  4084   4082   4085      1    1.1074e+02    3.2669e+02 ;    H5B - C35    - H5C   
  4086   4065   4087      1    1.1990e+02    1.1715e+03 ;    O33 - P31    - O34   
  4088   4089   4090      1    1.2333e+02    6.3538e+02 ;    O21 - C21    - O22   
  4088   4089   4128      1    1.1196e+02    5.7957e+02 ;    O21 - C21    - C12   
  4089   4128   4125      1    1.1053e+02    5.3379e+02 ;    C21 - C12    - C13   
  4089   4128   4129      1    1.0968e+02    3.9497e+02 ;    C21 - C12    - H2R   
  4089   4128   4130      1    1.0968e+02    3.9497e+02 ;    C21 - C12    - H2S   
  4090   4089   4128      1    1.2311e+02    5.6928e+02 ;    O22 - C21    - C12   
  4091   4092   4093      1    1.0835e+02    3.2995e+02 ;   H14T - C114   - H14R  
  4091   4092   4094      1    1.0835e+02    3.2995e+02 ;   H14T - C114   - H14S  
  4091   4092   4095      1    1.1005e+02    3.8802e+02 ;   H14T - C114   - C113  
  4092   4095   4096      1    1.1005e+02    3.8802e+02 ;   C114 - C113   - H13R  
  4092   4095   4097      1    1.1005e+02    3.8802e+02 ;   C114 - C113   - H13S  
  4092   4095   4098      1    1.1205e+02    3.9497e+02 ;   C114 - C113   - C112  
  4093   4092   4094      1    1.0835e+02    3.2995e+02 ;   H14R - C114   - H14S  
  4093   4092   4095      1    1.1005e+02    3.8802e+02 ;   H14R - C114   - C113  
  4094   4092   4095      1    1.1005e+02    3.8802e+02 ;   H14S - C114   - C113  
  4095   4098   4099      1    1.1005e+02    3.8802e+02 ;   C113 - C112   - H12R  
  4095   4098   4100      1    1.1005e+02    3.8802e+02 ;   C113 - C112   - H12S  
  4095   4098   4101      1    1.1205e+02    3.9497e+02 ;   C113 - C112   - C111  
  4096   4095   4097      1    1.0835e+02    3.2995e+02 ;   H13R - C113   - H13S  
  4096   4095   4098      1    1.1005e+02    3.8802e+02 ;   H13R - C113   - C112  
  4097   4095   4098      1    1.1005e+02    3.8802e+02 ;   H13S - C113   - C112  
  4098   4101   4102      1    1.1005e+02    3.8802e+02 ;   C112 - C111   - H11R  
  4098   4101   4103      1    1.1005e+02    3.8802e+02 ;   C112 - C111   - H11S  
  4098   4101   4104      1    1.1205e+02    3.9497e+02 ;   C112 - C111   - C110  
  4099   4098   4100      1    1.0835e+02    3.2995e+02 ;   H12R - C112   - H12S  
  4099   4098   4101      1    1.1005e+02    3.8802e+02 ;   H12R - C112   - C111  
  4100   4098   4101      1    1.1005e+02    3.8802e+02 ;   H12S - C112   - C111  
  4101   4104   4105      1    1.1005e+02    3.8802e+02 ;   C111 - C110   - H10R  
  4101   4104   4106      1    1.1005e+02    3.8802e+02 ;   C111 - C110   - H10S  
  4101   4104   4107      1    1.1205e+02    3.9497e+02 ;   C111 - C110   - C19   
  4102   4101   4103      1    1.0835e+02    3.2995e+02 ;   H11R - C111   - H11S  
  4102   4101   4104      1    1.1005e+02    3.8802e+02 ;   H11R - C111   - C110  
  4103   4101   4104      1    1.1005e+02    3.8802e+02 ;   H11S - C111   - C110  
  4104   4107   4108      1    1.1005e+02    3.8802e+02 ;   C110 - C19    - H9R   
  4104   4107   4109      1    1.1005e+02    3.8802e+02 ;   C110 - C19    - H9S   
  4104   4107   4110      1    1.1205e+02    3.9497e+02 ;   C110 - C19    - C18   
  4105   4104   4106      1    1.0835e+02    3.2995e+02 ;   H10R - C110   - H10S  
  4105   4104   4107      1    1.1005e+02    3.8802e+02 ;   H10R - C110   - C19   
  4106   4104   4107      1    1.1005e+02    3.8802e+02 ;   H10S - C110   - C19   
  4107   4110   4111      1    1.1005e+02    3.8802e+02 ;    C19 - C18    - H8R   
  4107   4110   4112      1    1.1005e+02    3.8802e+02 ;    C19 - C18    - H8S   
  4107   4110   4113      1    1.1205e+02    3.9497e+02 ;    C19 - C18    - C17   
  4108   4107   4109      1    1.0835e+02    3.2995e+02 ;    H9R - C19    - H9S   
  4108   4107   4110      1    1.1005e+02    3.8802e+02 ;    H9R - C19    - C18   
  4109   4107   4110      1    1.1005e+02    3.8802e+02 ;    H9S - C19    - C18   
  4110   4113   4114      1    1.1005e+02    3.8802e+02 ;    C18 - C17    - H7R   
  4110   4113   4115      1    1.1005e+02    3.8802e+02 ;    C18 - C17    - H7S   
  4110   4113   4116      1    1.1205e+02    3.9497e+02 ;    C18 - C17    - C16   
  4111   4110   4112      1    1.0835e+02    3.2995e+02 ;    H8R - C18    - H8S   
  4111   4110   4113      1    1.1005e+02    3.8802e+02 ;    H8R - C18    - C17   
  4112   4110   4113      1    1.1005e+02    3.8802e+02 ;    H8S - C18    - C17   
  4113   4116   4117      1    1.1005e+02    3.8802e+02 ;    C17 - C16    - H6R   
  4113   4116   4118      1    1.1005e+02    3.8802e+02 ;    C17 - C16    - H6S   
  4113   4116   4119      1    1.1205e+02    3.9497e+02 ;    C17 - C16    - C15   
  4114   4113   4115      1    1.0835e+02    3.2995e+02 ;    H7R - C17    - H7S   
  4114   4113   4116      1    1.1005e+02    3.8802e+02 ;    H7R - C17    - C16   
  4115   4113   4116      1    1.1005e+02    3.8802e+02 ;    H7S - C17    - C16   
  4116   4119   4120      1    1.1005e+02    3.8802e+02 ;    C16 - C15    - H5R   
  4116   4119   4121      1    1.1005e+02    3.8802e+02 ;    C16 - C15    - H5S   
  4116   4119   4122      1    1.1205e+02    3.9497e+02 ;    C16 - C15    - C14   
  4117   4116   4118      1    1.0835e+02    3.2995e+02 ;    H6R - C16    - H6S   
  4117   4116   4119      1    1.1005e+02    3.8802e+02 ;    H6R - C16    - C15   
  4118   4116   4119      1    1.1005e+02    3.8802e+02 ;    H6S - C16    - C15   
  4119   4122   4123      1    1.1005e+02    3.8802e+02 ;    C15 - C14    - H4R   
  4119   4122   4124      1    1.1005e+02    3.8802e+02 ;    C15 - C14    - H4S   
  4119   4122   4125      1    1.1205e+02    3.9497e+02 ;    C15 - C14    - C13   
  4120   4119   4121      1    1.0835e+02    3.2995e+02 ;    H5R - C15    - H5S   
  4120   4119   4122      1    1.1005e+02    3.8802e+02 ;    H5R - C15    - C14   
  4121   4119   4122      1    1.1005e+02    3.8802e+02 ;    H5S - C15    - C14   
  4122   4125   4126      1    1.1005e+02    3.8802e+02 ;    C14 - C13    - H3R   
  4122   4125   4127      1    1.1005e+02    3.8802e+02 ;    C14 - C13    - H3S   
  4122   4125   4128      1    1.1205e+02    3.9497e+02 ;    C14 - C13    - C12   
  4123   4122   4124      1    1.0835e+02    3.2995e+02 ;    H4R - C14    - H4S   
  4123   4122   4125      1    1.1005e+02    3.8802e+02 ;    H4R - C14    - C13   
  4124   4122   4125      1    1.1005e+02    3.8802e+02 ;    H4S - C14    - C13   
  4125   4128   4129      1    1.1005e+02    3.8802e+02 ;    C13 - C12    - H2R   
  4125   4128   4130      1    1.1005e+02    3.8802e+02 ;    C13 - C12    - H2S   
  4126   4125   4127      1    1.0835e+02    3.2995e+02 ;    H3R - C13    - H3S   
  4126   4125   4128      1    1.1005e+02    3.8802e+02 ;    H3R - C13    - C12   
  4127   4125   4128      1    1.1005e+02    3.8802e+02 ;    H3S - C13    - C12   
  4129   4128   4130      1    1.0835e+02    3.2995e+02 ;    H2R - C12    - H2S   
  4131   4132   4133      1    1.0835e+02    3.2995e+02 ;   H14T - C114   - H14R  
  4131   4132   4134      1    1.0835e+02    3.2995e+02 ;   H14T - C114   - H14S  
  4131   4132   4135      1    1.1005e+02    3.8802e+02 ;   H14T - C114   - C113  
  4132   4135   4136      1    1.1005e+02    3.8802e+02 ;   C114 - C113   - H13R  
  4132   4135   4137      1    1.1005e+02    3.8802e+02 ;   C114 - C113   - H13S  
  4132   4135   4138      1    1.1205e+02    3.9497e+02 ;   C114 - C113   - C112  
  4133   4132   4134      1    1.0835e+02    3.2995e+02 ;   H14R - C114   - H14S  
  4133   4132   4135      1    1.1005e+02    3.8802e+02 ;   H14R - C114   - C113  
  4134   4132   4135      1    1.1005e+02    3.8802e+02 ;   H14S - C114   - C113  
  4135   4138   4139      1    1.1005e+02    3.8802e+02 ;   C113 - C112   - H12R  
  4135   4138   4140      1    1.1005e+02    3.8802e+02 ;   C113 - C112   - H12S  
  4135   4138   4141      1    1.1205e+02    3.9497e+02 ;   C113 - C112   - C111  
  4136   4135   4137      1    1.0835e+02    3.2995e+02 ;   H13R - C113   - H13S  
  4136   4135   4138      1    1.1005e+02    3.8802e+02 ;   H13R - C113   - C112  
  4137   4135   4138      1    1.1005e+02    3.8802e+02 ;   H13S - C113   - C112  
  4138   4141   4142      1    1.1005e+02    3.8802e+02 ;   C112 - C111   - H11R  
  4138   4141   4143      1    1.1005e+02    3.8802e+02 ;   C112 - C111   - H11S  
  4138   4141   4144      1    1.1205e+02    3.9497e+02 ;   C112 - C111   - C110  
  4139   4138   4140      1    1.0835e+02    3.2995e+02 ;   H12R - C112   - H12S  
  4139   4138   4141      1    1.1005e+02    3.8802e+02 ;   H12R - C112   - C111  
  4140   4138   4141      1    1.1005e+02    3.8802e+02 ;   H12S - C112   - C111  
  4141   4144   4145      1    1.1005e+02    3.8802e+02 ;   C111 - C110   - H10R  
  4141   4144   4146      1    1.1005e+02    3.8802e+02 ;   C111 - C110   - H10S  
  4141   4144   4147      1    1.1205e+02    3.9497e+02 ;   C111 - C110   - C19   
  4142   4141   4143      1    1.0835e+02    3.2995e+02 ;   H11R - C111   - H11S  
  4142   4141   4144      1    1.1005e+02    3.8802e+02 ;   H11R - C111   - C110  
  4143   4141   4144      1    1.1005e+02    3.8802e+02 ;   H11S - C111   - C110  
  4144   4147   4148      1    1.1005e+02    3.8802e+02 ;   C110 - C19    - H9R   
  4144   4147   4149      1    1.1005e+02    3.8802e+02 ;   C110 - C19    - H9S   
  4144   4147   4150      1    1.1205e+02    3.9497e+02 ;   C110 - C19    - C18   
  4145   4144   4146      1    1.0835e+02    3.2995e+02 ;   H10R - C110   - H10S  
  4145   4144   4147      1    1.1005e+02    3.8802e+02 ;   H10R - C110   - C19   
  4146   4144   4147      1    1.1005e+02    3.8802e+02 ;   H10S - C110   - C19   
  4147   4150   4151      1    1.1005e+02    3.8802e+02 ;    C19 - C18    - H8R   
  4147   4150   4152      1    1.1005e+02    3.8802e+02 ;    C19 - C18    - H8S   
  4147   4150   4153      1    1.1205e+02    3.9497e+02 ;    C19 - C18    - C17   
  4148   4147   4149      1    1.0835e+02    3.2995e+02 ;    H9R - C19    - H9S   
  4148   4147   4150      1    1.1005e+02    3.8802e+02 ;    H9R - C19    - C18   
  4149   4147   4150      1    1.1005e+02    3.8802e+02 ;    H9S - C19    - C18   
  4150   4153   4154      1    1.1005e+02    3.8802e+02 ;    C18 - C17    - H7R   
  4150   4153   4155      1    1.1005e+02    3.8802e+02 ;    C18 - C17    - H7S   
  4150   4153   4156      1    1.1205e+02    3.9497e+02 ;    C18 - C17    - C16   
  4151   4150   4152      1    1.0835e+02    3.2995e+02 ;    H8R - C18    - H8S   
  4151   4150   4153      1    1.1005e+02    3.8802e+02 ;    H8R - C18    - C17   
  4152   4150   4153      1    1.1005e+02    3.8802e+02 ;    H8S - C18    - C17   
  4153   4156   4157      1    1.1005e+02    3.8802e+02 ;    C17 - C16    - H6R   
  4153   4156   4158      1    1.1005e+02    3.8802e+02 ;    C17 - C16    - H6S   
  4153   4156   4159      1    1.1205e+02    3.9497e+02 ;    C17 - C16    - C15   
  4154   4153   4155      1    1.0835e+02    3.2995e+02 ;    H7R - C17    - H7S   
  4154   4153   4156      1    1.1005e+02    3.8802e+02 ;    H7R - C17    - C16   
  4155   4153   4156      1    1.1005e+02    3.8802e+02 ;    H7S - C17    - C16   
  4156   4159   4160      1    1.1005e+02    3.8802e+02 ;    C16 - C15    - H5R   
  4156   4159   4161      1    1.1005e+02    3.8802e+02 ;    C16 - C15    - H5S   
  4156   4159   4162      1    1.1205e+02    3.9497e+02 ;    C16 - C15    - C14   
  4157   4156   4158      1    1.0835e+02    3.2995e+02 ;    H6R - C16    - H6S   
  4157   4156   4159      1    1.1005e+02    3.8802e+02 ;    H6R - C16    - C15   
  4158   4156   4159      1    1.1005e+02    3.8802e+02 ;    H6S - C16    - C15   
  4159   4162   4163      1    1.1005e+02    3.8802e+02 ;    C15 - C14    - H4R   
  4159   4162   4164      1    1.1005e+02    3.8802e+02 ;    C15 - C14    - H4S   
  4159   4162   4165      1    1.1205e+02    3.9497e+02 ;    C15 - C14    - C13   
  4160   4159   4161      1    1.0835e+02    3.2995e+02 ;    H5R - C15    - H5S   
  4160   4159   4162      1    1.1005e+02    3.8802e+02 ;    H5R - C15    - C14   
  4161   4159   4162      1    1.1005e+02    3.8802e+02 ;    H5S - C15    - C14   
  4162   4165   4166      1    1.1005e+02    3.8802e+02 ;    C14 - C13    - H3R   
  4162   4165   4167      1    1.1005e+02    3.8802e+02 ;    C14 - C13    - H3S   
  4162   4165   4168      1    1.1205e+02    3.9497e+02 ;    C14 - C13    - C12   
  4163   4162   4164      1    1.0835e+02    3.2995e+02 ;    H4R - C14    - H4S   
  4163   4162   4165      1    1.1005e+02    3.8802e+02 ;    H4R - C14    - C13   
  4164   4162   4165      1    1.1005e+02    3.8802e+02 ;    H4S - C14    - C13   
  4165   4168   4169      1    1.1005e+02    3.8802e+02 ;    C13 - C12    - H2R   
  4165   4168   4170      1    1.1005e+02    3.8802e+02 ;    C13 - C12    - H2S   
  4165   4168   4171      1    1.1053e+02    5.3379e+02 ;    C13 - C12    - C11   
  4166   4165   4167      1    1.0835e+02    3.2995e+02 ;    H3R - C13    - H3S   
  4166   4165   4168      1    1.1005e+02    3.8802e+02 ;    H3R - C13    - C12   
  4167   4165   4168      1    1.1005e+02    3.8802e+02 ;    H3S - C13    - C12   
  4168   4171   4172      1    1.2311e+02    5.6928e+02 ;    C12 - C11    - O12   
  4168   4171   4173      1    1.1196e+02    5.7957e+02 ;    C12 - C11    - O11   
  4169   4168   4170      1    1.0835e+02    3.2995e+02 ;    H2R - C12    - H2S   
  4169   4168   4171      1    1.0968e+02    3.9497e+02 ;    H2R - C12    - C11   
  4170   4168   4171      1    1.0968e+02    3.9497e+02 ;    H2S - C12    - C11   
  4171   4173   4174      1    1.1514e+02    5.3246e+02 ;    C11 - O11    - C1    
  4172   4171   4173      1    1.2333e+02    6.3538e+02 ;    O12 - C11    - O11   
  4173   4174   4175      1    1.0882e+02    4.2543e+02 ;    O11 - C1     - HR    
  4173   4174   4176      1    1.0882e+02    4.2543e+02 ;    O11 - C1     - HS    
  4173   4174   4177      1    1.0842e+02    5.6718e+02 ;    O11 - C1     - C2    
  4174   4177   4178      1    1.1007e+02    3.8794e+02 ;     C1 - C2     - HX    
  4174   4177   4179      1    1.1063e+02    5.2894e+02 ;     C1 - C2     - C3    
  4174   4177   4206      1    1.0842e+02    5.6718e+02 ;     C1 - C2     - O21   
  4175   4174   4176      1    1.0955e+02    3.2786e+02 ;     HR - C1     - HS    
  4175   4174   4177      1    1.1007e+02    3.8794e+02 ;     HR - C1     - C2    
  4176   4174   4177      1    1.1007e+02    3.8794e+02 ;     HS - C1     - C2    
  4177   4179   4180      1    1.1007e+02    3.8794e+02 ;     C2 - C3     - HA    
  4177   4179   4181      1    1.1007e+02    3.8794e+02 ;     C2 - C3     - HB    
  4177   4179   4182      1    1.0842e+02    5.6718e+02 ;     C2 - C3     - O31   
  4177   4206   4207      1    1.1514e+02    5.3246e+02 ;     C2 - O21    - C21   
  4178   4177   4179      1    1.1007e+02    3.8794e+02 ;     HX - C2     - C3    
  4178   4177   4206      1    1.0882e+02    4.2543e+02 ;     HX - C2     - O21   
  4179   4177   4206      1    1.0842e+02    5.6718e+02 ;     C3 - C2     - O21   
  4179   4182   4183      1    1.2050e+02    8.3680e+02 ;     C3 - O31    - P31   
  4180   4179   4181      1    1.0955e+02    3.2786e+02 ;     HA - C3     - HB    
  4180   4179   4182      1    1.0882e+02    4.2543e+02 ;     HA - C3     - O31   
  4181   4179   4182      1    1.0882e+02    4.2543e+02 ;     HB - C3     - O31   
  4182   4183   4184      1    1.0260e+02    7.5312e+02 ;    O31 - P31    - O32   
  4182   4183   4204      1    1.0823e+02    8.3680e+02 ;    O31 - P31    - O33   
  4182   4183   4205      1    1.0823e+02    8.3680e+02 ;    O31 - P31    - O34   
  4183   4184   4185      1    1.2050e+02    8.3680e+02 ;    P31 - O32    - C31   
  4184   4183   4204      1    1.0823e+02    8.3680e+02 ;    O32 - P31    - O33   
  4184   4183   4205      1    1.0823e+02    8.3680e+02 ;    O32 - P31    - O34   
  4184   4185   4186      1    1.0882e+02    4.2543e+02 ;    O32 - C31    - H1A   
  4184   4185   4187      1    1.0882e+02    4.2543e+02 ;    O32 - C31    - H1B   
  4184   4185   4188      1    1.0842e+02    5.6718e+02 ;    O32 - C31    - C32   
  4185   4188   4189      1    1.1174e+02    3.8510e+02 ;    C31 - C32    - H2A   
  4185   4188   4190      1    1.1174e+02    3.8510e+02 ;    C31 - C32    - H2B   
  4185   4188   4191      1    1.1432e+02    5.3932e+02 ;    C31 - C32    - N31   
  4186   4185   4187      1    1.0955e+02    3.2786e+02 ;    H1A - C31    - H1B   
  4186   4185   4188      1    1.1007e+02    3.8794e+02 ;    H1A - C31    - C32   
  4187   4185   4188      1    1.1007e+02    3.8794e+02 ;    H1B - C31    - C32   
  4188   4191   4192      1    1.1064e+02    5.2585e+02 ;    C32 - N31    - C33   
  4188   4191   4196      1    1.1064e+02    5.2585e+02 ;    C32 - N31    - C34   
  4188   4191   4200      1    1.1064e+02    5.2585e+02 ;    C32 - N31    - C35   
  4189   4188   4190      1    1.1074e+02    3.2669e+02 ;    H2A - C32    - H2B   
  4189   4188   4191      1    1.0791e+02    4.1020e+02 ;    H2A - C32    - N31   
  4190   4188   4191      1    1.0791e+02    4.1020e+02 ;    H2B - C32    - N31   
  4191   4192   4193      1    1.0791e+02    4.1020e+02 ;    N31 - C33    - H3A   
  4191   4192   4194      1    1.0791e+02    4.1020e+02 ;    N31 - C33    - H3B   
  4191   4192   4195      1    1.0791e+02    4.1020e+02 ;    N31 - C33    - H3C   
  4191   4196   4197      1    1.0791e+02    4.1020e+02 ;    N31 - C34    - H4A   
  4191   4196   4198      1    1.0791e+02    4.1020e+02 ;    N31 - C34    - H4B   
  4191   4196   4199      1    1.0791e+02    4.1020e+02 ;    N31 - C34    - H4C   
  4191   4200   4201      1    1.0791e+02    4.1020e+02 ;    N31 - C35    - H5A   
  4191   4200   4202      1    1.0791e+02    4.1020e+02 ;    N31 - C35    - H5B   
  4191   4200   4203      1    1.0791e+02    4.1020e+02 ;    N31 - C35    - H5C   
  4192   4191   4196      1    1.1064e+02    5.2585e+02 ;    C33 - N31    - C34   
  4192   4191   4200      1    1.1064e+02    5.2585e+02 ;    C33 - N31    - C35   
  4193   4192   4194      1    1.1074e+02    3.2669e+02 ;    H3A - C33    - H3B   
  4193   4192   4195      1    1.1074e+02    3.2669e+02 ;    H3A - C33    - H3C   
  4194   4192   4195      1    1.1074e+02    3.2669e+02 ;    H3B - C33    - H3C   
  4196   4191   4200      1    1.1064e+02    5.2585e+02 ;    C34 - N31    - C35   
  4197   4196   4198      1    1.1074e+02    3.2669e+02 ;    H4A - C34    - H4B   
  4197   4196   4199      1    1.1074e+02    3.2669e+02 ;    H4A - C34    - H4C   
  4198   4196   4199      1    1.1074e+02    3.2669e+02 ;    H4B - C34    - H4C   
  4201   4200   4202      1    1.1074e+02    3.2669e+02 ;    H5A - C35    - H5B   
  4201   4200   4203      1    1.1074e+02    3.2669e+02 ;    H5A - C35    - H5C   
  4202   4200   4203      1    1.1074e+02    3.2669e+02 ;    H5B - C35    - H5C   
  4204   4183   4205      1    1.1990e+02    1.1715e+03 ;    O33 - P31    - O34   
  4206   4207   4208      1    1.2333e+02    6.3538e+02 ;    O21 - C21    - O22   
  4206   4207   4246      1    1.1196e+02    5.7957e+02 ;    O21 - C21    - C12   
  4207   4246   4243      1    1.1053e+02    5.3379e+02 ;    C21 - C12    - C13   
  4207   4246   4247      1    1.0968e+02    3.9497e+02 ;    C21 - C12    - H2R   
  4207   4246   4248      1    1.0968e+02    3.9497e+02 ;    C21 - C12    - H2S   
  4208   4207   4246      1    1.2311e+02    5.6928e+02 ;    O22 - C21    - C12   
  4209   4210   4211      1    1.0835e+02    3.2995e+02 ;   H14T - C114   - H14R  
  4209   4210   4212      1    1.0835e+02    3.2995e+02 ;   H14T - C114   - H14S  
  4209   4210   4213      1    1.1005e+02    3.8802e+02 ;   H14T - C114   - C113  
  4210   4213   4214      1    1.1005e+02    3.8802e+02 ;   C114 - C113   - H13R  
  4210   4213   4215      1    1.1005e+02    3.8802e+02 ;   C114 - C113   - H13S  
  4210   4213   4216      1    1.1205e+02    3.9497e+02 ;   C114 - C113   - C112  
  4211   4210   4212      1    1.0835e+02    3.2995e+02 ;   H14R - C114   - H14S  
  4211   4210   4213      1    1.1005e+02    3.8802e+02 ;   H14R - C114   - C113  
  4212   4210   4213      1    1.1005e+02    3.8802e+02 ;   H14S - C114   - C113  
  4213   4216   4217      1    1.1005e+02    3.8802e+02 ;   C113 - C112   - H12R  
  4213   4216   4218      1    1.1005e+02    3.8802e+02 ;   C113 - C112   - H12S  
  4213   4216   4219      1    1.1205e+02    3.9497e+02 ;   C113 - C112   - C111  
  4214   4213   4215      1    1.0835e+02    3.2995e+02 ;   H13R - C113   - H13S  
  4214   4213   4216      1    1.1005e+02    3.8802e+02 ;   H13R - C113   - C112  
  4215   4213   4216      1    1.1005e+02    3.8802e+02 ;   H13S - C113   - C112  
  4216   4219   4220      1    1.1005e+02    3.8802e+02 ;   C112 - C111   - H11R  
  4216   4219   4221      1    1.1005e+02    3.8802e+02 ;   C112 - C111   - H11S  
  4216   4219   4222      1    1.1205e+02    3.9497e+02 ;   C112 - C111   - C110  
  4217   4216   4218      1    1.0835e+02    3.2995e+02 ;   H12R - C112   - H12S  
  4217   4216   4219      1    1.1005e+02    3.8802e+02 ;   H12R - C112   - C111  
  4218   4216   4219      1    1.1005e+02    3.8802e+02 ;   H12S - C112   - C111  
  4219   4222   4223      1    1.1005e+02    3.8802e+02 ;   C111 - C110   - H10R  
  4219   4222   4224      1    1.1005e+02    3.8802e+02 ;   C111 - C110   - H10S  
  4219   4222   4225      1    1.1205e+02    3.9497e+02 ;   C111 - C110   - C19   
  4220   4219   4221      1    1.0835e+02    3.2995e+02 ;   H11R - C111   - H11S  
  4220   4219   4222      1    1.1005e+02    3.8802e+02 ;   H11R - C111   - C110  
  4221   4219   4222      1    1.1005e+02    3.8802e+02 ;   H11S - C111   - C110  
  4222   4225   4226      1    1.1005e+02    3.8802e+02 ;   C110 - C19    - H9R   
  4222   4225   4227      1    1.1005e+02    3.8802e+02 ;   C110 - C19    - H9S   
  4222   4225   4228      1    1.1205e+02    3.9497e+02 ;   C110 - C19    - C18   
  4223   4222   4224      1    1.0835e+02    3.2995e+02 ;   H10R - C110   - H10S  
  4223   4222   4225      1    1.1005e+02    3.8802e+02 ;   H10R - C110   - C19   
  4224   4222   4225      1    1.1005e+02    3.8802e+02 ;   H10S - C110   - C19   
  4225   4228   4229      1    1.1005e+02    3.8802e+02 ;    C19 - C18    - H8R   
  4225   4228   4230      1    1.1005e+02    3.8802e+02 ;    C19 - C18    - H8S   
  4225   4228   4231      1    1.1205e+02    3.9497e+02 ;    C19 - C18    - C17   
  4226   4225   4227      1    1.0835e+02    3.2995e+02 ;    H9R - C19    - H9S   
  4226   4225   4228      1    1.1005e+02    3.8802e+02 ;    H9R - C19    - C18   
  4227   4225   4228      1    1.1005e+02    3.8802e+02 ;    H9S - C19    - C18   
  4228   4231   4232      1    1.1005e+02    3.8802e+02 ;    C18 - C17    - H7R   
  4228   4231   4233      1    1.1005e+02    3.8802e+02 ;    C18 - C17    - H7S   
  4228   4231   4234      1    1.1205e+02    3.9497e+02 ;    C18 - C17    - C16   
  4229   4228   4230      1    1.0835e+02    3.2995e+02 ;    H8R - C18    - H8S   
  4229   4228   4231      1    1.1005e+02    3.8802e+02 ;    H8R - C18    - C17   
  4230   4228   4231      1    1.1005e+02    3.8802e+02 ;    H8S - C18    - C17   
  4231   4234   4235      1    1.1005e+02    3.8802e+02 ;    C17 - C16    - H6R   
  4231   4234   4236      1    1.1005e+02    3.8802e+02 ;    C17 - C16    - H6S   
  4231   4234   4237      1    1.1205e+02    3.9497e+02 ;    C17 - C16    - C15   
  4232   4231   4233      1    1.0835e+02    3.2995e+02 ;    H7R - C17    - H7S   
  4232   4231   4234      1    1.1005e+02    3.8802e+02 ;    H7R - C17    - C16   
  4233   4231   4234      1    1.1005e+02    3.8802e+02 ;    H7S - C17    - C16   
  4234   4237   4238      1    1.1005e+02    3.8802e+02 ;    C16 - C15    - H5R   
  4234   4237   4239      1    1.1005e+02    3.8802e+02 ;    C16 - C15    - H5S   
  4234   4237   4240      1    1.1205e+02    3.9497e+02 ;    C16 - C15    - C14   
  4235   4234   4236      1    1.0835e+02    3.2995e+02 ;    H6R - C16    - H6S   
  4235   4234   4237      1    1.1005e+02    3.8802e+02 ;    H6R - C16    - C15   
  4236   4234   4237      1    1.1005e+02    3.8802e+02 ;    H6S - C16    - C15   
  4237   4240   4241      1    1.1005e+02    3.8802e+02 ;    C15 - C14    - H4R   
  4237   4240   4242      1    1.1005e+02    3.8802e+02 ;    C15 - C14    - H4S   
  4237   4240   4243      1    1.1205e+02    3.9497e+02 ;    C15 - C14    - C13   
  4238   4237   4239      1    1.0835e+02    3.2995e+02 ;    H5R - C15    - H5S   
  4238   4237   4240      1    1.1005e+02    3.8802e+02 ;    H5R - C15    - C14   
  4239   4237   4240      1    1.1005e+02    3.8802e+02 ;    H5S - C15    - C14   
  4240   4243   4244      1    1.1005e+02    3.8802e+02 ;    C14 - C13    - H3R   
  4240   4243   4245      1    1.1005e+02    3.8802e+02 ;    C14 - C13    - H3S   
  4240   4243   4246      1    1.1205e+02    3.9497e+02 ;    C14 - C13    - C12   
  4241   4240   4242      1    1.0835e+02    3.2995e+02 ;    H4R - C14    - H4S   
  4241   4240   4243      1    1.1005e+02    3.8802e+02 ;    H4R - C14    - C13   
  4242   4240   4243      1    1.1005e+02    3.8802e+02 ;    H4S - C14    - C13   
  4243   4246   4247      1    1.1005e+02    3.8802e+02 ;    C13 - C12    - H2R   
  4243   4246   4248      1    1.1005e+02    3.8802e+02 ;    C13 - C12    - H2S   
  4244   4243   4245      1    1.0835e+02    3.2995e+02 ;    H3R - C13    - H3S   
  4244   4243   4246      1    1.1005e+02    3.8802e+02 ;    H3R - C13    - C12   
  4245   4243   4246      1    1.1005e+02    3.8802e+02 ;    H3S - C13    - C12   
  4247   4246   4248      1    1.0835e+02    3.2995e+02 ;    H2R - C12    - H2S   
  4249   4250   4251      1    1.0835e+02    3.2995e+02 ;   H14T - C114   - H14R  
  4249   4250   4252      1    1.0835e+02    3.2995e+02 ;   H14T - C114   - H14S  
  4249   4250   4253      1    1.1005e+02    3.8802e+02 ;   H14T - C114   - C113  
  4250   4253   4254      1    1.1005e+02    3.8802e+02 ;   C114 - C113   - H13R  
  4250   4253   4255      1    1.1005e+02    3.8802e+02 ;   C114 - C113   - H13S  
  4250   4253   4256      1    1.1205e+02    3.9497e+02 ;   C114 - C113   - C112  
  4251   4250   4252      1    1.0835e+02    3.2995e+02 ;   H14R - C114   - H14S  
  4251   4250   4253      1    1.1005e+02    3.8802e+02 ;   H14R - C114   - C113  
  4252   4250   4253      1    1.1005e+02    3.8802e+02 ;   H14S - C114   - C113  
  4253   4256   4257      1    1.1005e+02    3.8802e+02 ;   C113 - C112   - H12R  
  4253   4256   4258      1    1.1005e+02    3.8802e+02 ;   C113 - C112   - H12S  
  4253   4256   4259      1    1.1205e+02    3.9497e+02 ;   C113 - C112   - C111  
  4254   4253   4255      1    1.0835e+02    3.2995e+02 ;   H13R - C113   - H13S  
  4254   4253   4256      1    1.1005e+02    3.8802e+02 ;   H13R - C113   - C112  
  4255   4253   4256      1    1.1005e+02    3.8802e+02 ;   H13S - C113   - C112  
  4256   4259   4260      1    1.1005e+02    3.8802e+02 ;   C112 - C111   - H11R  
  4256   4259   4261      1    1.1005e+02    3.8802e+02 ;   C112 - C111   - H11S  
  4256   4259   4262      1    1.1205e+02    3.9497e+02 ;   C112 - C111   - C110  
  4257   4256   4258      1    1.0835e+02    3.2995e+02 ;   H12R - C112   - H12S  
  4257   4256   4259      1    1.1005e+02    3.8802e+02 ;   H12R - C112   - C111  
  4258   4256   4259      1    1.1005e+02    3.8802e+02 ;   H12S - C112   - C111  
  4259   4262   4263      1    1.1005e+02    3.8802e+02 ;   C111 - C110   - H10R  
  4259   4262   4264      1    1.1005e+02    3.8802e+02 ;   C111 - C110   - H10S  
  4259   4262   4265      1    1.1205e+02    3.9497e+02 ;   C111 - C110   - C19   
  4260   4259   4261      1    1.0835e+02    3.2995e+02 ;   H11R - C111   - H11S  
  4260   4259   4262      1    1.1005e+02    3.8802e+02 ;   H11R - C111   - C110  
  4261   4259   4262      1    1.1005e+02    3.8802e+02 ;   H11S - C111   - C110  
  4262   4265   4266      1    1.1005e+02    3.8802e+02 ;   C110 - C19    - H9R   
  4262   4265   4267      1    1.1005e+02    3.8802e+02 ;   C110 - C19    - H9S   
  4262   4265   4268      1    1.1205e+02    3.9497e+02 ;   C110 - C19    - C18   
  4263   4262   4264      1    1.0835e+02    3.2995e+02 ;   H10R - C110   - H10S  
  4263   4262   4265      1    1.1005e+02    3.8802e+02 ;   H10R - C110   - C19   
  4264   4262   4265      1    1.1005e+02    3.8802e+02 ;   H10S - C110   - C19   
  4265   4268   4269      1    1.1005e+02    3.8802e+02 ;    C19 - C18    - H8R   
  4265   4268   4270      1    1.1005e+02    3.8802e+02 ;    C19 - C18    - H8S   
  4265   4268   4271      1    1.1205e+02    3.9497e+02 ;    C19 - C18    - C17   
  4266   4265   4267      1    1.0835e+02    3.2995e+02 ;    H9R - C19    - H9S   
  4266   4265   4268      1    1.1005e+02    3.8802e+02 ;    H9R - C19    - C18   
  4267   4265   4268      1    1.1005e+02    3.8802e+02 ;    H9S - C19    - C18   
  4268   4271   4272      1    1.1005e+02    3.8802e+02 ;    C18 - C17    - H7R   
  4268   4271   4273      1    1.1005e+02    3.8802e+02 ;    C18 - C17    - H7S   
  4268   4271   4274      1    1.1205e+02    3.9497e+02 ;    C18 - C17    - C16   
  4269   4268   4270      1    1.0835e+02    3.2995e+02 ;    H8R - C18    - H8S   
  4269   4268   4271      1    1.1005e+02    3.8802e+02 ;    H8R - C18    - C17   
  4270   4268   4271      1    1.1005e+02    3.8802e+02 ;    H8S - C18    - C17   
  4271   4274   4275      1    1.1005e+02    3.8802e+02 ;    C17 - C16    - H6R   
  4271   4274   4276      1    1.1005e+02    3.8802e+02 ;    C17 - C16    - H6S   
  4271   4274   4277      1    1.1205e+02    3.9497e+02 ;    C17 - C16    - C15   
  4272   4271   4273      1    1.0835e+02    3.2995e+02 ;    H7R - C17    - H7S   
  4272   4271   4274      1    1.1005e+02    3.8802e+02 ;    H7R - C17    - C16   
  4273   4271   4274      1    1.1005e+02    3.8802e+02 ;    H7S - C17    - C16   
  4274   4277   4278      1    1.1005e+02    3.8802e+02 ;    C16 - C15    - H5R   
  4274   4277   4279      1    1.1005e+02    3.8802e+02 ;    C16 - C15    - H5S   
  4274   4277   4280      1    1.1205e+02    3.9497e+02 ;    C16 - C15    - C14   
  4275   4274   4276      1    1.0835e+02    3.2995e+02 ;    H6R - C16    - H6S   
  4275   4274   4277      1    1.1005e+02    3.8802e+02 ;    H6R - C16    - C15   
  4276   4274   4277      1    1.1005e+02    3.8802e+02 ;    H6S - C16    - C15   
  4277   4280   4281      1    1.1005e+02    3.8802e+02 ;    C15 - C14    - H4R   
  4277   4280   4282      1    1.1005e+02    3.8802e+02 ;    C15 - C14    - H4S   
  4277   4280   4283      1    1.1205e+02    3.9497e+02 ;    C15 - C14    - C13   
  4278   4277   4279      1    1.0835e+02    3.2995e+02 ;    H5R - C15    - H5S   
  4278   4277   4280      1    1.1005e+02    3.8802e+02 ;    H5R - C15    - C14   
  4279   4277   4280      1    1.1005e+02    3.8802e+02 ;    H5S - C15    - C14   
  4280   4283   4284      1    1.1005e+02    3.8802e+02 ;    C14 - C13    - H3R   
  4280   4283   4285      1    1.1005e+02    3.8802e+02 ;    C14 - C13    - H3S   
  4280   4283   4286      1    1.1205e+02    3.9497e+02 ;    C14 - C13    - C12   
  4281   4280   4282      1    1.0835e+02    3.2995e+02 ;    H4R - C14    - H4S   
  4281   4280   4283      1    1.1005e+02    3.8802e+02 ;    H4R - C14    - C13   
  4282   4280   4283      1    1.1005e+02    3.8802e+02 ;    H4S - C14    - C13   
  4283   4286   4287      1    1.1005e+02    3.8802e+02 ;    C13 - C12    - H2R   
  4283   4286   4288      1    1.1005e+02    3.8802e+02 ;    C13 - C12    - H2S   
  4283   4286   4289      1    1.1053e+02    5.3379e+02 ;    C13 - C12    - C11   
  4284   4283   4285      1    1.0835e+02    3.2995e+02 ;    H3R - C13    - H3S   
  4284   4283   4286      1    1.1005e+02    3.8802e+02 ;    H3R - C13    - C12   
  4285   4283   4286      1    1.1005e+02    3.8802e+02 ;    H3S - C13    - C12   
  4286   4289   4290      1    1.2311e+02    5.6928e+02 ;    C12 - C11    - O12   
  4286   4289   4291      1    1.1196e+02    5.7957e+02 ;    C12 - C11    - O11   
  4287   4286   4288      1    1.0835e+02    3.2995e+02 ;    H2R - C12    - H2S   
  4287   4286   4289      1    1.0968e+02    3.9497e+02 ;    H2R - C12    - C11   
  4288   4286   4289      1    1.0968e+02    3.9497e+02 ;    H2S - C12    - C11   
  4289   4291   4292      1    1.1514e+02    5.3246e+02 ;    C11 - O11    - C1    
  4290   4289   4291      1    1.2333e+02    6.3538e+02 ;    O12 - C11    - O11   
  4291   4292   4293      1    1.0882e+02    4.2543e+02 ;    O11 - C1     - HR    
  4291   4292   4294      1    1.0882e+02    4.2543e+02 ;    O11 - C1     - HS    
  4291   4292   4295      1    1.0842e+02    5.6718e+02 ;    O11 - C1     - C2    
  4292   4295   4296      1    1.1007e+02    3.8794e+02 ;     C1 - C2     - HX    
  4292   4295   4297      1    1.1063e+02    5.2894e+02 ;     C1 - C2     - C3    
  4292   4295   4324      1    1.0842e+02    5.6718e+02 ;     C1 - C2     - O21   
  4293   4292   4294      1    1.0955e+02    3.2786e+02 ;     HR - C1     - HS    
  4293   4292   4295      1    1.1007e+02    3.8794e+02 ;     HR - C1     - C2    
  4294   4292   4295      1    1.1007e+02    3.8794e+02 ;     HS - C1     - C2    
  4295   4297   4298      1    1.1007e+02    3.8794e+02 ;     C2 - C3     - HA    
  4295   4297   4299      1    1.1007e+02    3.8794e+02 ;     C2 - C3     - HB    
  4295   4297   4300      1    1.0842e+02    5.6718e+02 ;     C2 - C3     - O31   
  4295   4324   4325      1    1.1514e+02    5.3246e+02 ;     C2 - O21    - C21   
  4296   4295   4297      1    1.1007e+02    3.8794e+02 ;     HX - C2     - C3    
  4296   4295   4324      1    1.0882e+02    4.2543e+02 ;     HX - C2     - O21   
  4297   4295   4324      1    1.0842e+02    5.6718e+02 ;     C3 - C2     - O21   
  4297   4300   4301      1    1.2050e+02    8.3680e+02 ;     C3 - O31    - P31   
  4298   4297   4299      1    1.0955e+02    3.2786e+02 ;     HA - C3     - HB    
  4298   4297   4300      1    1.0882e+02    4.2543e+02 ;     HA - C3     - O31   
  4299   4297   4300      1    1.0882e+02    4.2543e+02 ;     HB - C3     - O31   
  4300   4301   4302      1    1.0260e+02    7.5312e+02 ;    O31 - P31    - O32   
  4300   4301   4322      1    1.0823e+02    8.3680e+02 ;    O31 - P31    - O33   
  4300   4301   4323      1    1.0823e+02    8.3680e+02 ;    O31 - P31    - O34   
  4301   4302   4303      1    1.2050e+02    8.3680e+02 ;    P31 - O32    - C31   
  4302   4301   4322      1    1.0823e+02    8.3680e+02 ;    O32 - P31    - O33   
  4302   4301   4323      1    1.0823e+02    8.3680e+02 ;    O32 - P31    - O34   
  4302   4303   4304      1    1.0882e+02    4.2543e+02 ;    O32 - C31    - H1A   
  4302   4303   4305      1    1.0882e+02    4.2543e+02 ;    O32 - C31    - H1B   
  4302   4303   4306      1    1.0842e+02    5.6718e+02 ;    O32 - C31    - C32   
  4303   4306   4307      1    1.1174e+02    3.8510e+02 ;    C31 - C32    - H2A   
  4303   4306   4308      1    1.1174e+02    3.8510e+02 ;    C31 - C32    - H2B   
  4303   4306   4309      1    1.1432e+02    5.3932e+02 ;    C31 - C32    - N31   
  4304   4303   4305      1    1.0955e+02    3.2786e+02 ;    H1A - C31    - H1B   
  4304   4303   4306      1    1.1007e+02    3.8794e+02 ;    H1A - C31    - C32   
  4305   4303   4306      1    1.1007e+02    3.8794e+02 ;    H1B - C31    - C32   
  4306   4309   4310      1    1.1064e+02    5.2585e+02 ;    C32 - N31    - C33   
  4306   4309   4314      1    1.1064e+02    5.2585e+02 ;    C32 - N31    - C34   
  4306   4309   4318      1    1.1064e+02    5.2585e+02 ;    C32 - N31    - C35   
  4307   4306   4308      1    1.1074e+02    3.2669e+02 ;    H2A - C32    - H2B   
  4307   4306   4309      1    1.0791e+02    4.1020e+02 ;    H2A - C32    - N31   
  4308   4306   4309      1    1.0791e+02    4.1020e+02 ;    H2B - C32    - N31   
  4309   4310   4311      1    1.0791e+02    4.1020e+02 ;    N31 - C33    - H3A   
  4309   4310   4312      1    1.0791e+02    4.1020e+02 ;    N31 - C33    - H3B   
  4309   4310   4313      1    1.0791e+02    4.1020e+02 ;    N31 - C33    - H3C   
  4309   4314   4315      1    1.0791e+02    4.1020e+02 ;    N31 - C34    - H4A   
  4309   4314   4316      1    1.0791e+02    4.1020e+02 ;    N31 - C34    - H4B   
  4309   4314   4317      1    1.0791e+02    4.1020e+02 ;    N31 - C34    - H4C   
  4309   4318   4319      1    1.0791e+02    4.1020e+02 ;    N31 - C35    - H5A   
  4309   4318   4320      1    1.0791e+02    4.1020e+02 ;    N31 - C35    - H5B   
  4309   4318   4321      1    1.0791e+02    4.1020e+02 ;    N31 - C35    - H5C   
  4310   4309   4314      1    1.1064e+02    5.2585e+02 ;    C33 - N31    - C34   
  4310   4309   4318      1    1.1064e+02    5.2585e+02 ;    C33 - N31    - C35   
  4311   4310   4312      1    1.1074e+02    3.2669e+02 ;    H3A - C33    - H3B   
  4311   4310   4313      1    1.1074e+02    3.2669e+02 ;    H3A - C33    - H3C   
  4312   4310   4313      1    1.1074e+02    3.2669e+02 ;    H3B - C33    - H3C   
  4314   4309   4318      1    1.1064e+02    5.2585e+02 ;    C34 - N31    - C35   
  4315   4314   4316      1    1.1074e+02    3.2669e+02 ;    H4A - C34    - H4B   
  4315   4314   4317      1    1.1074e+02    3.2669e+02 ;    H4A - C34    - H4C   
  4316   4314   4317      1    1.1074e+02    3.2669e+02 ;    H4B - C34    - H4C   
  4319   4318   4320      1    1.1074e+02    3.2669e+02 ;    H5A - C35    - H5B   
  4319   4318   4321      1    1.1074e+02    3.2669e+02 ;    H5A - C35    - H5C   
  4320   4318   4321      1    1.1074e+02    3.2669e+02 ;    H5B - C35    - H5C   
  4322   4301   4323      1    1.1990e+02    1.1715e+03 ;    O33 - P31    - O34   
  4324   4325   4326      1    1.2333e+02    6.3538e+02 ;    O21 - C21    - O22   
  4324   4325   4364      1    1.1196e+02    5.7957e+02 ;    O21 - C21    - C12   
  4325   4364   4361      1    1.1053e+02    5.3379e+02 ;    C21 - C12    - C13   
  4325   4364   4365      1    1.0968e+02    3.9497e+02 ;    C21 - C12    - H2R   
  4325   4364   4366      1    1.0968e+02    3.9497e+02 ;    C21 - C12    - H2S   
  4326   4325   4364      1    1.2311e+02    5.6928e+02 ;    O22 - C21    - C12   
  4327   4328   4329      1    1.0835e+02    3.2995e+02 ;   H14T - C114   - H14R  
  4327   4328   4330      1    1.0835e+02    3.2995e+02 ;   H14T - C114   - H14S  
  4327   4328   4331      1    1.1005e+02    3.8802e+02 ;   H14T - C114   - C113  
  4328   4331   4332      1    1.1005e+02    3.8802e+02 ;   C114 - C113   - H13R  
  4328   4331   4333      1    1.1005e+02    3.8802e+02 ;   C114 - C113   - H13S  
  4328   4331   4334      1    1.1205e+02    3.9497e+02 ;   C114 - C113   - C112  
  4329   4328   4330      1    1.0835e+02    3.2995e+02 ;   H14R - C114   - H14S  
  4329   4328   4331      1    1.1005e+02    3.8802e+02 ;   H14R - C114   - C113  
  4330   4328   4331      1    1.1005e+02    3.8802e+02 ;   H14S - C114   - C113  
  4331   4334   4335      1    1.1005e+02    3.8802e+02 ;   C113 - C112   - H12R  
  4331   4334   4336      1    1.1005e+02    3.8802e+02 ;   C113 - C112   - H12S  
  4331   4334   4337      1    1.1205e+02    3.9497e+02 ;   C113 - C112   - C111  
  4332   4331   4333      1    1.0835e+02    3.2995e+02 ;   H13R - C113   - H13S  
  4332   4331   4334      1    1.1005e+02    3.8802e+02 ;   H13R - C113   - C112  
  4333   4331   4334      1    1.1005e+02    3.8802e+02 ;   H13S - C113   - C112  
  4334   4337   4338      1    1.1005e+02    3.8802e+02 ;   C112 - C111   - H11R  
  4334   4337   4339      1    1.1005e+02    3.8802e+02 ;   C112 - C111   - H11S  
  4334   4337   4340      1    1.1205e+02    3.9497e+02 ;   C112 - C111   - C110  
  4335   4334   4336      1    1.0835e+02    3.2995e+02 ;   H12R - C112   - H12S  
  4335   4334   4337      1    1.1005e+02    3.8802e+02 ;   H12R - C112   - C111  
  4336   4334   4337      1    1.1005e+02    3.8802e+02 ;   H12S - C112   - C111  
  4337   4340   4341      1    1.1005e+02    3.8802e+02 ;   C111 - C110   - H10R  
  4337   4340   4342      1    1.1005e+02    3.8802e+02 ;   C111 - C110   - H10S  
  4337   4340   4343      1    1.1205e+02    3.9497e+02 ;   C111 - C110   - C19   
  4338   4337   4339      1    1.0835e+02    3.2995e+02 ;   H11R - C111   - H11S  
  4338   4337   4340      1    1.1005e+02    3.8802e+02 ;   H11R - C111   - C110  
  4339   4337   4340      1    1.1005e+02    3.8802e+02 ;   H11S - C111   - C110  
  4340   4343   4344      1    1.1005e+02    3.8802e+02 ;   C110 - C19    - H9R   
  4340   4343   4345      1    1.1005e+02    3.8802e+02 ;   C110 - C19    - H9S   
  4340   4343   4346      1    1.1205e+02    3.9497e+02 ;   C110 - C19    - C18   
  4341   4340   4342      1    1.0835e+02    3.2995e+02 ;   H10R - C110   - H10S  
  4341   4340   4343      1    1.1005e+02    3.8802e+02 ;   H10R - C110   - C19   
  4342   4340   4343      1    1.1005e+02    3.8802e+02 ;   H10S - C110   - C19   
  4343   4346   4347      1    1.1005e+02    3.8802e+02 ;    C19 - C18    - H8R   
  4343   4346   4348      1    1.1005e+02    3.8802e+02 ;    C19 - C18    - H8S   
  4343   4346   4349      1    1.1205e+02    3.9497e+02 ;    C19 - C18    - C17   
  4344   4343   4345      1    1.0835e+02    3.2995e+02 ;    H9R - C19    - H9S   
  4344   4343   4346      1    1.1005e+02    3.8802e+02 ;    H9R - C19    - C18   
  4345   4343   4346      1    1.1005e+02    3.8802e+02 ;    H9S - C19    - C18   
  4346   4349   4350      1    1.1005e+02    3.8802e+02 ;    C18 - C17    - H7R   
  4346   4349   4351      1    1.1005e+02    3.8802e+02 ;    C18 - C17    - H7S   
  4346   4349   4352      1    1.1205e+02    3.9497e+02 ;    C18 - C17    - C16   
  4347   4346   4348      1    1.0835e+02    3.2995e+02 ;    H8R - C18    - H8S   
  4347   4346   4349      1    1.1005e+02    3.8802e+02 ;    H8R - C18    - C17   
  4348   4346   4349      1    1.1005e+02    3.8802e+02 ;    H8S - C18    - C17   
  4349   4352   4353      1    1.1005e+02    3.8802e+02 ;    C17 - C16    - H6R   
  4349   4352   4354      1    1.1005e+02    3.8802e+02 ;    C17 - C16    - H6S   
  4349   4352   4355      1    1.1205e+02    3.9497e+02 ;    C17 - C16    - C15   
  4350   4349   4351      1    1.0835e+02    3.2995e+02 ;    H7R - C17    - H7S   
  4350   4349   4352      1    1.1005e+02    3.8802e+02 ;    H7R - C17    - C16   
  4351   4349   4352      1    1.1005e+02    3.8802e+02 ;    H7S - C17    - C16   
  4352   4355   4356      1    1.1005e+02    3.8802e+02 ;    C16 - C15    - H5R   
  4352   4355   4357      1    1.1005e+02    3.8802e+02 ;    C16 - C15    - H5S   
  4352   4355   4358      1    1.1205e+02    3.9497e+02 ;    C16 - C15    - C14   
  4353   4352   4354      1    1.0835e+02    3.2995e+02 ;    H6R - C16    - H6S   
  4353   4352   4355      1    1.1005e+02    3.8802e+02 ;    H6R - C16    - C15   
  4354   4352   4355      1    1.1005e+02    3.8802e+02 ;    H6S - C16    - C15   
  4355   4358   4359      1    1.1005e+02    3.8802e+02 ;    C15 - C14    - H4R   
  4355   4358   4360      1    1.1005e+02    3.8802e+02 ;    C15 - C14    - H4S   
  4355   4358   4361      1    1.1205e+02    3.9497e+02 ;    C15 - C14    - C13   
  4356   4355   4357      1    1.0835e+02    3.2995e+02 ;    H5R - C15    - H5S   
  4356   4355   4358      1    1.1005e+02    3.8802e+02 ;    H5R - C15    - C14   
  4357   4355   4358      1    1.1005e+02    3.8802e+02 ;    H5S - C15    - C14   
  4358   4361   4362      1    1.1005e+02    3.8802e+02 ;    C14 - C13    - H3R   
  4358   4361   4363      1    1.1005e+02    3.8802e+02 ;    C14 - C13    - H3S   
  4358   4361   4364      1    1.1205e+02    3.9497e+02 ;    C14 - C13    - C12   
  4359   4358   4360      1    1.0835e+02    3.2995e+02 ;    H4R - C14    - H4S   
  4359   4358   4361      1    1.1005e+02    3.8802e+02 ;    H4R - C14    - C13   
  4360   4358   4361      1    1.1005e+02    3.8802e+02 ;    H4S - C14    - C13   
  4361   4364   4365      1    1.1005e+02    3.8802e+02 ;    C13 - C12    - H2R   
  4361   4364   4366      1    1.1005e+02    3.8802e+02 ;    C13 - C12    - H2S   
  4362   4361   4363      1    1.0835e+02    3.2995e+02 ;    H3R - C13    - H3S   
  4362   4361   4364      1    1.1005e+02    3.8802e+02 ;    H3R - C13    - C12   
  4363   4361   4364      1    1.1005e+02    3.8802e+02 ;    H3S - C13    - C12   
  4365   4364   4366      1    1.0835e+02    3.2995e+02 ;    H2R - C12    - H2S   
  4367   4368   4369      1    1.0835e+02    3.2995e+02 ;   H14T - C114   - H14R  
  4367   4368   4370      1    1.0835e+02    3.2995e+02 ;   H14T - C114   - H14S  
  4367   4368   4371      1    1.1005e+02    3.8802e+02 ;   H14T - C114   - C113  
  4368   4371   4372      1    1.1005e+02    3.8802e+02 ;   C114 - C113   - H13R  
  4368   4371   4373      1    1.1005e+02    3.8802e+02 ;   C114 - C113   - H13S  
  4368   4371   4374      1    1.1205e+02    3.9497e+02 ;   C114 - C113   - C112  
  4369   4368   4370      1    1.0835e+02    3.2995e+02 ;   H14R - C114   - H14S  
  4369   4368   4371      1    1.1005e+02    3.8802e+02 ;   H14R - C114   - C113  
  4370   4368   4371      1    1.1005e+02    3.8802e+02 ;   H14S - C114   - C113  
  4371   4374   4375      1    1.1005e+02    3.8802e+02 ;   C113 - C112   - H12R  
  4371   4374   4376      1    1.1005e+02    3.8802e+02 ;   C113 - C112   - H12S  
  4371   4374   4377      1    1.1205e+02    3.9497e+02 ;   C113 - C112   - C111  
  4372   4371   4373      1    1.0835e+02    3.2995e+02 ;   H13R - C113   - H13S  
  4372   4371   4374      1    1.1005e+02    3.8802e+02 ;   H13R - C113   - C112  
  4373   4371   4374      1    1.1005e+02    3.8802e+02 ;   H13S - C113   - C112  
  4374   4377   4378      1    1.1005e+02    3.8802e+02 ;   C112 - C111   - H11R  
  4374   4377   4379      1    1.1005e+02    3.8802e+02 ;   C112 - C111   - H11S  
  4374   4377   4380      1    1.1205e+02    3.9497e+02 ;   C112 - C111   - C110  
  4375   4374   4376      1    1.0835e+02    3.2995e+02 ;   H12R - C112   - H12S  
  4375   4374   4377      1    1.1005e+02    3.8802e+02 ;   H12R - C112   - C111  
  4376   4374   4377      1    1.1005e+02    3.8802e+02 ;   H12S - C112   - C111  
  4377   4380   4381      1    1.1005e+02    3.8802e+02 ;   C111 - C110   - H10R  
  4377   4380   4382      1    1.1005e+02    3.8802e+02 ;   C111 - C110   - H10S  
  4377   4380   4383      1    1.1205e+02    3.9497e+02 ;   C111 - C110   - C19   
  4378   4377   4379      1    1.0835e+02    3.2995e+02 ;   H11R - C111   - H11S  
  4378   4377   4380      1    1.1005e+02    3.8802e+02 ;   H11R - C111   - C110  
  4379   4377   4380      1    1.1005e+02    3.8802e+02 ;   H11S - C111   - C110  
  4380   4383   4384      1    1.1005e+02    3.8802e+02 ;   C110 - C19    - H9R   
  4380   4383   4385      1    1.1005e+02    3.8802e+02 ;   C110 - C19    - H9S   
  4380   4383   4386      1    1.1205e+02    3.9497e+02 ;   C110 - C19    - C18   
  4381   4380   4382      1    1.0835e+02    3.2995e+02 ;   H10R - C110   - H10S  
  4381   4380   4383      1    1.1005e+02    3.8802e+02 ;   H10R - C110   - C19   
  4382   4380   4383      1    1.1005e+02    3.8802e+02 ;   H10S - C110   - C19   
  4383   4386   4387      1    1.1005e+02    3.8802e+02 ;    C19 - C18    - H8R   
  4383   4386   4388      1    1.1005e+02    3.8802e+02 ;    C19 - C18    - H8S   
  4383   4386   4389      1    1.1205e+02    3.9497e+02 ;    C19 - C18    - C17   
  4384   4383   4385      1    1.0835e+02    3.2995e+02 ;    H9R - C19    - H9S   
  4384   4383   4386      1    1.1005e+02    3.8802e+02 ;    H9R - C19    - C18   
  4385   4383   4386      1    1.1005e+02    3.8802e+02 ;    H9S - C19    - C18   
  4386   4389   4390      1    1.1005e+02    3.8802e+02 ;    C18 - C17    - H7R   
  4386   4389   4391      1    1.1005e+02    3.8802e+02 ;    C18 - C17    - H7S   
  4386   4389   4392      1    1.1205e+02    3.9497e+02 ;    C18 - C17    - C16   
  4387   4386   4388      1    1.0835e+02    3.2995e+02 ;    H8R - C18    - H8S   
  4387   4386   4389      1    1.1005e+02    3.8802e+02 ;    H8R - C18    - C17   
  4388   4386   4389      1    1.1005e+02    3.8802e+02 ;    H8S - C18    - C17   
  4389   4392   4393      1    1.1005e+02    3.8802e+02 ;    C17 - C16    - H6R   
  4389   4392   4394      1    1.1005e+02    3.8802e+02 ;    C17 - C16    - H6S   
  4389   4392   4395      1    1.1205e+02    3.9497e+02 ;    C17 - C16    - C15   
  4390   4389   4391      1    1.0835e+02    3.2995e+02 ;    H7R - C17    - H7S   
  4390   4389   4392      1    1.1005e+02    3.8802e+02 ;    H7R - C17    - C16   
  4391   4389   4392      1    1.1005e+02    3.8802e+02 ;    H7S - C17    - C16   
  4392   4395   4396      1    1.1005e+02    3.8802e+02 ;    C16 - C15    - H5R   
  4392   4395   4397      1    1.1005e+02    3.8802e+02 ;    C16 - C15    - H5S   
  4392   4395   4398      1    1.1205e+02    3.9497e+02 ;    C16 - C15    - C14   
  4393   4392   4394      1    1.0835e+02    3.2995e+02 ;    H6R - C16    - H6S   
  4393   4392   4395      1    1.1005e+02    3.8802e+02 ;    H6R - C16    - C15   
  4394   4392   4395      1    1.1005e+02    3.8802e+02 ;    H6S - C16    - C15   
  4395   4398   4399      1    1.1005e+02    3.8802e+02 ;    C15 - C14    - H4R   
  4395   4398   4400      1    1.1005e+02    3.8802e+02 ;    C15 - C14    - H4S   
  4395   4398   4401      1    1.1205e+02    3.9497e+02 ;    C15 - C14    - C13   
  4396   4395   4397      1    1.0835e+02    3.2995e+02 ;    H5R - C15    - H5S   
  4396   4395   4398      1    1.1005e+02    3.8802e+02 ;    H5R - C15    - C14   
  4397   4395   4398      1    1.1005e+02    3.8802e+02 ;    H5S - C15    - C14   
  4398   4401   4402      1    1.1005e+02    3.8802e+02 ;    C14 - C13    - H3R   
  4398   4401   4403      1    1.1005e+02    3.8802e+02 ;    C14 - C13    - H3S   
  4398   4401   4404      1    1.1205e+02    3.9497e+02 ;    C14 - C13    - C12   
  4399   4398   4400      1    1.0835e+02    3.2995e+02 ;    H4R - C14    - H4S   
  4399   4398   4401      1    1.1005e+02    3.8802e+02 ;    H4R - C14    - C13   
  4400   4398   4401      1    1.1005e+02    3.8802e+02 ;    H4S - C14    - C13   
  4401   4404   4405      1    1.1005e+02    3.8802e+02 ;    C13 - C12    - H2R   
  4401   4404   4406      1    1.1005e+02    3.8802e+02 ;    C13 - C12    - H2S   
  4401   4404   4407      1    1.1053e+02    5.3379e+02 ;    C13 - C12    - C11   
  4402   4401   4403      1    1.0835e+02    3.2995e+02 ;    H3R - C13    - H3S   
  4402   4401   4404      1    1.1005e+02    3.8802e+02 ;    H3R - C13    - C12   
  4403   4401   4404      1    1.1005e+02    3.8802e+02 ;    H3S - C13    - C12   
  4404   4407   4408      1    1.2311e+02    5.6928e+02 ;    C12 - C11    - O12   
  4404   4407   4409      1    1.1196e+02    5.7957e+02 ;    C12 - C11    - O11   
  4405   4404   4406      1    1.0835e+02    3.2995e+02 ;    H2R - C12    - H2S   
  4405   4404   4407      1    1.0968e+02    3.9497e+02 ;    H2R - C12    - C11   
  4406   4404   4407      1    1.0968e+02    3.9497e+02 ;    H2S - C12    - C11   
  4407   4409   4410      1    1.1514e+02    5.3246e+02 ;    C11 - O11    - C1    
  4408   4407   4409      1    1.2333e+02    6.3538e+02 ;    O12 - C11    - O11   
  4409   4410   4411      1    1.0882e+02    4.2543e+02 ;    O11 - C1     - HR    
  4409   4410   4412      1    1.0882e+02    4.2543e+02 ;    O11 - C1     - HS    
  4409   4410   4413      1    1.0842e+02    5.6718e+02 ;    O11 - C1     - C2    
  4410   4413   4414      1    1.1007e+02    3.8794e+02 ;     C1 - C2     - HX    
  4410   4413   4415      1    1.1063e+02    5.2894e+02 ;     C1 - C2     - C3    
  4410   4413   4442      1    1.0842e+02    5.6718e+02 ;     C1 - C2     - O21   
  4411   4410   4412      1    1.0955e+02    3.2786e+02 ;     HR - C1     - HS    
  4411   4410   4413      1    1.1007e+02    3.8794e+02 ;     HR - C1     - C2    
  4412   4410   4413      1    1.1007e+02    3.8794e+02 ;     HS - C1     - C2    
  4413   4415   4416      1    1.1007e+02    3.8794e+02 ;     C2 - C3     - HA    
  4413   4415   4417      1    1.1007e+02    3.8794e+02 ;     C2 - C3     - HB    
  4413   4415   4418      1    1.0842e+02    5.6718e+02 ;     C2 - C3     - O31   
  4413   4442   4443      1    1.1514e+02    5.3246e+02 ;     C2 - O21    - C21   
  4414   4413   4415      1    1.1007e+02    3.8794e+02 ;     HX - C2     - C3    
  4414   4413   4442      1    1.0882e+02    4.2543e+02 ;     HX - C2     - O21   
  4415   4413   4442      1    1.0842e+02    5.6718e+02 ;     C3 - C2     - O21   
  4415   4418   4419      1    1.2050e+02    8.3680e+02 ;     C3 - O31    - P31   
  4416   4415   4417      1    1.0955e+02    3.2786e+02 ;     HA - C3     - HB    
  4416   4415   4418      1    1.0882e+02    4.2543e+02 ;     HA - C3     - O31   
  4417   4415   4418      1    1.0882e+02    4.2543e+02 ;     HB - C3     - O31   
  4418   4419   4420      1    1.0260e+02    7.5312e+02 ;    O31 - P31    - O32   
  4418   4419   4440      1    1.0823e+02    8.3680e+02 ;    O31 - P31    - O33   
  4418   4419   4441      1    1.0823e+02    8.3680e+02 ;    O31 - P31    - O34   
  4419   4420   4421      1    1.2050e+02    8.3680e+02 ;    P31 - O32    - C31   
  4420   4419   4440      1    1.0823e+02    8.3680e+02 ;    O32 - P31    - O33   
  4420   4419   4441      1    1.0823e+02    8.3680e+02 ;    O32 - P31    - O34   
  4420   4421   4422      1    1.0882e+02    4.2543e+02 ;    O32 - C31    - H1A   
  4420   4421   4423      1    1.0882e+02    4.2543e+02 ;    O32 - C31    - H1B   
  4420   4421   4424      1    1.0842e+02    5.6718e+02 ;    O32 - C31    - C32   
  4421   4424   4425      1    1.1174e+02    3.8510e+02 ;    C31 - C32    - H2A   
  4421   4424   4426      1    1.1174e+02    3.8510e+02 ;    C31 - C32    - H2B   
  4421   4424   4427      1    1.1432e+02    5.3932e+02 ;    C31 - C32    - N31   
  4422   4421   4423      1    1.0955e+02    3.2786e+02 ;    H1A - C31    - H1B   
  4422   4421   4424      1    1.1007e+02    3.8794e+02 ;    H1A - C31    - C32   
  4423   4421   4424      1    1.1007e+02    3.8794e+02 ;    H1B - C31    - C32   
  4424   4427   4428      1    1.1064e+02    5.2585e+02 ;    C32 - N31    - C33   
  4424   4427   4432      1    1.1064e+02    5.2585e+02 ;    C32 - N31    - C34   
  4424   4427   4436      1    1.1064e+02    5.2585e+02 ;    C32 - N31    - C35   
  4425   4424   4426      1    1.1074e+02    3.2669e+02 ;    H2A - C32    - H2B   
  4425   4424   4427      1    1.0791e+02    4.1020e+02 ;    H2A - C32    - N31   
  4426   4424   4427      1    1.0791e+02    4.1020e+02 ;    H2B - C32    - N31   
  4427   4428   4429      1    1.0791e+02    4.1020e+02 ;    N31 - C33    - H3A   
  4427   4428   4430      1    1.0791e+02    4.1020e+02 ;    N31 - C33    - H3B   
  4427   4428   4431      1    1.0791e+02    4.1020e+02 ;    N31 - C33    - H3C   
  4427   4432   4433      1    1.0791e+02    4.1020e+02 ;    N31 - C34    - H4A   
  4427   4432   4434      1    1.0791e+02    4.1020e+02 ;    N31 - C34    - H4B   
  4427   4432   4435      1    1.0791e+02    4.1020e+02 ;    N31 - C34    - H4C   
  4427   4436   4437      1    1.0791e+02    4.1020e+02 ;    N31 - C35    - H5A   
  4427   4436   4438      1    1.0791e+02    4.1020e+02 ;    N31 - C35    - H5B   
  4427   4436   4439      1    1.0791e+02    4.1020e+02 ;    N31 - C35    - H5C   
  4428   4427   4432      1    1.1064e+02    5.2585e+02 ;    C33 - N31    - C34   
  4428   4427   4436      1    1.1064e+02    5.2585e+02 ;    C33 - N31    - C35   
  4429   4428   4430      1    1.1074e+02    3.2669e+02 ;    H3A - C33    - H3B   
  4429   4428   4431      1    1.1074e+02    3.2669e+02 ;    H3A - C33    - H3C   
  4430   4428   4431      1    1.1074e+02    3.2669e+02 ;    H3B - C33    - H3C   
  4432   4427   4436      1    1.1064e+02    5.2585e+02 ;    C34 - N31    - C35   
  4433   4432   4434      1    1.1074e+02    3.2669e+02 ;    H4A - C34    - H4B   
  4433   4432   4435      1    1.1074e+02    3.2669e+02 ;    H4A - C34    - H4C   
  4434   4432   4435      1    1.1074e+02    3.2669e+02 ;    H4B - C34    - H4C   
  4437   4436   4438      1    1.1074e+02    3.2669e+02 ;    H5A - C35    - H5B   
  4437   4436   4439      1    1.1074e+02    3.2669e+02 ;    H5A - C35    - H5C   
  4438   4436   4439      1    1.1074e+02    3.2669e+02 ;    H5B - C35    - H5C   
  4440   4419   4441      1    1.1990e+02    1.1715e+03 ;    O33 - P31    - O34   
  4442   4443   4444      1    1.2333e+02    6.3538e+02 ;    O21 - C21    - O22   
  4442   4443   4482      1    1.1196e+02    5.7957e+02 ;    O21 - C21    - C12   
  4443   4482   4479      1    1.1053e+02    5.3379e+02 ;    C21 - C12    - C13   
  4443   4482   4483      1    1.0968e+02    3.9497e+02 ;    C21 - C12    - H2R   
  4443   4482   4484      1    1.0968e+02    3.9497e+02 ;    C21 - C12    - H2S   
  4444   4443   4482      1    1.2311e+02    5.6928e+02 ;    O22 - C21    - C12   
  4445   4446   4447      1    1.0835e+02    3.2995e+02 ;   H14T - C114   - H14R  
  4445   4446   4448      1    1.0835e+02    3.2995e+02 ;   H14T - C114   - H14S  
  4445   4446   4449      1    1.1005e+02    3.8802e+02 ;   H14T - C114   - C113  
  4446   4449   4450      1    1.1005e+02    3.8802e+02 ;   C114 - C113   - H13R  
  4446   4449   4451      1    1.1005e+02    3.8802e+02 ;   C114 - C113   - H13S  
  4446   4449   4452      1    1.1205e+02    3.9497e+02 ;   C114 - C113   - C112  
  4447   4446   4448      1    1.0835e+02    3.2995e+02 ;   H14R - C114   - H14S  
  4447   4446   4449      1    1.1005e+02    3.8802e+02 ;   H14R - C114   - C113  
  4448   4446   4449      1    1.1005e+02    3.8802e+02 ;   H14S - C114   - C113  
  4449   4452   4453      1    1.1005e+02    3.8802e+02 ;   C113 - C112   - H12R  
  4449   4452   4454      1    1.1005e+02    3.8802e+02 ;   C113 - C112   - H12S  
  4449   4452   4455      1    1.1205e+02    3.9497e+02 ;   C113 - C112   - C111  
  4450   4449   4451      1    1.0835e+02    3.2995e+02 ;   H13R - C113   - H13S  
  4450   4449   4452      1    1.1005e+02    3.8802e+02 ;   H13R - C113   - C112  
  4451   4449   4452      1    1.1005e+02    3.8802e+02 ;   H13S - C113   - C112  
  4452   4455   4456      1    1.1005e+02    3.8802e+02 ;   C112 - C111   - H11R  
  4452   4455   4457      1    1.1005e+02    3.8802e+02 ;   C112 - C111   - H11S  
  4452   4455   4458      1    1.1205e+02    3.9497e+02 ;   C112 - C111   - C110  
  4453   4452   4454      1    1.0835e+02    3.2995e+02 ;   H12R - C112   - H12S  
  4453   4452   4455      1    1.1005e+02    3.8802e+02 ;   H12R - C112   - C111  
  4454   4452   4455      1    1.1005e+02    3.8802e+02 ;   H12S - C112   - C111  
  4455   4458   4459      1    1.1005e+02    3.8802e+02 ;   C111 - C110   - H10R  
  4455   4458   4460      1    1.1005e+02    3.8802e+02 ;   C111 - C110   - H10S  
  4455   4458   4461      1    1.1205e+02    3.9497e+02 ;   C111 - C110   - C19   
  4456   4455   4457      1    1.0835e+02    3.2995e+02 ;   H11R - C111   - H11S  
  4456   4455   4458      1    1.1005e+02    3.8802e+02 ;   H11R - C111   - C110  
  4457   4455   4458      1    1.1005e+02    3.8802e+02 ;   H11S - C111   - C110  
  4458   4461   4462      1    1.1005e+02    3.8802e+02 ;   C110 - C19    - H9R   
  4458   4461   4463      1    1.1005e+02    3.8802e+02 ;   C110 - C19    - H9S   
  4458   4461   4464      1    1.1205e+02    3.9497e+02 ;   C110 - C19    - C18   
  4459   4458   4460      1    1.0835e+02    3.2995e+02 ;   H10R - C110   - H10S  
  4459   4458   4461      1    1.1005e+02    3.8802e+02 ;   H10R - C110   - C19   
  4460   4458   4461      1    1.1005e+02    3.8802e+02 ;   H10S - C110   - C19   
  4461   4464   4465      1    1.1005e+02    3.8802e+02 ;    C19 - C18    - H8R   
  4461   4464   4466      1    1.1005e+02    3.8802e+02 ;    C19 - C18    - H8S   
  4461   4464   4467      1    1.1205e+02    3.9497e+02 ;    C19 - C18    - C17   
  4462   4461   4463      1    1.0835e+02    3.2995e+02 ;    H9R - C19    - H9S   
  4462   4461   4464      1    1.1005e+02    3.8802e+02 ;    H9R - C19    - C18   
  4463   4461   4464      1    1.1005e+02    3.8802e+02 ;    H9S - C19    - C18   
  4464   4467   4468      1    1.1005e+02    3.8802e+02 ;    C18 - C17    - H7R   
  4464   4467   4469      1    1.1005e+02    3.8802e+02 ;    C18 - C17    - H7S   
  4464   4467   4470      1    1.1205e+02    3.9497e+02 ;    C18 - C17    - C16   
  4465   4464   4466      1    1.0835e+02    3.2995e+02 ;    H8R - C18    - H8S   
  4465   4464   4467      1    1.1005e+02    3.8802e+02 ;    H8R - C18    - C17   
  4466   4464   4467      1    1.1005e+02    3.8802e+02 ;    H8S - C18    - C17   
  4467   4470   4471      1    1.1005e+02    3.8802e+02 ;    C17 - C16    - H6R   
  4467   4470   4472      1    1.1005e+02    3.8802e+02 ;    C17 - C16    - H6S   
  4467   4470   4473      1    1.1205e+02    3.9497e+02 ;    C17 - C16    - C15   
  4468   4467   4469      1    1.0835e+02    3.2995e+02 ;    H7R - C17    - H7S   
  4468   4467   4470      1    1.1005e+02    3.8802e+02 ;    H7R - C17    - C16   
  4469   4467   4470      1    1.1005e+02    3.8802e+02 ;    H7S - C17    - C16   
  4470   4473   4474      1    1.1005e+02    3.8802e+02 ;    C16 - C15    - H5R   
  4470   4473   4475      1    1.1005e+02    3.8802e+02 ;    C16 - C15    - H5S   
  4470   4473   4476      1    1.1205e+02    3.9497e+02 ;    C16 - C15    - C14   
  4471   4470   4472      1    1.0835e+02    3.2995e+02 ;    H6R - C16    - H6S   
  4471   4470   4473      1    1.1005e+02    3.8802e+02 ;    H6R - C16    - C15   
  4472   4470   4473      1    1.1005e+02    3.8802e+02 ;    H6S - C16    - C15   
  4473   4476   4477      1    1.1005e+02    3.8802e+02 ;    C15 - C14    - H4R   
  4473   4476   4478      1    1.1005e+02    3.8802e+02 ;    C15 - C14    - H4S   
  4473   4476   4479      1    1.1205e+02    3.9497e+02 ;    C15 - C14    - C13   
  4474   4473   4475      1    1.0835e+02    3.2995e+02 ;    H5R - C15    - H5S   
  4474   4473   4476      1    1.1005e+02    3.8802e+02 ;    H5R - C15    - C14   
  4475   4473   4476      1    1.1005e+02    3.8802e+02 ;    H5S - C15    - C14   
  4476   4479   4480      1    1.1005e+02    3.8802e+02 ;    C14 - C13    - H3R   
  4476   4479   4481      1    1.1005e+02    3.8802e+02 ;    C14 - C13    - H3S   
  4476   4479   4482      1    1.1205e+02    3.9497e+02 ;    C14 - C13    - C12   
  4477   4476   4478      1    1.0835e+02    3.2995e+02 ;    H4R - C14    - H4S   
  4477   4476   4479      1    1.1005e+02    3.8802e+02 ;    H4R - C14    - C13   
  4478   4476   4479      1    1.1005e+02    3.8802e+02 ;    H4S - C14    - C13   
  4479   4482   4483      1    1.1005e+02    3.8802e+02 ;    C13 - C12    - H2R   
  4479   4482   4484      1    1.1005e+02    3.8802e+02 ;    C13 - C12    - H2S   
  4480   4479   4481      1    1.0835e+02    3.2995e+02 ;    H3R - C13    - H3S   
  4480   4479   4482      1    1.1005e+02    3.8802e+02 ;    H3R - C13    - C12   
  4481   4479   4482      1    1.1005e+02    3.8802e+02 ;    H3S - C13    - C12   
  4483   4482   4484      1    1.0835e+02    3.2995e+02 ;    H2R - C12    - H2S   
  4485   4486   4487      1    1.0835e+02    3.2995e+02 ;   H14T - C114   - H14R  
  4485   4486   4488      1    1.0835e+02    3.2995e+02 ;   H14T - C114   - H14S  
  4485   4486   4489      1    1.1005e+02    3.8802e+02 ;   H14T - C114   - C113  
  4486   4489   4490      1    1.1005e+02    3.8802e+02 ;   C114 - C113   - H13R  
  4486   4489   4491      1    1.1005e+02    3.8802e+02 ;   C114 - C113   - H13S  
  4486   4489   4492      1    1.1205e+02    3.9497e+02 ;   C114 - C113   - C112  
  4487   4486   4488      1    1.0835e+02    3.2995e+02 ;   H14R - C114   - H14S  
  4487   4486   4489      1    1.1005e+02    3.8802e+02 ;   H14R - C114   - C113  
  4488   4486   4489      1    1.1005e+02    3.8802e+02 ;   H14S - C114   - C113  
  4489   4492   4493      1    1.1005e+02    3.8802e+02 ;   C113 - C112   - H12R  
  4489   4492   4494      1    1.1005e+02    3.8802e+02 ;   C113 - C112   - H12S  
  4489   4492   4495      1    1.1205e+02    3.9497e+02 ;   C113 - C112   - C111  
  4490   4489   4491      1    1.0835e+02    3.2995e+02 ;   H13R - C113   - H13S  
  4490   4489   4492      1    1.1005e+02    3.8802e+02 ;   H13R - C113   - C112  
  4491   4489   4492      1    1.1005e+02    3.8802e+02 ;   H13S - C113   - C112  
  4492   4495   4496      1    1.1005e+02    3.8802e+02 ;   C112 - C111   - H11R  
  4492   4495   4497      1    1.1005e+02    3.8802e+02 ;   C112 - C111   - H11S  
  4492   4495   4498      1    1.1205e+02    3.9497e+02 ;   C112 - C111   - C110  
  4493   4492   4494      1    1.0835e+02    3.2995e+02 ;   H12R - C112   - H12S  
  4493   4492   4495      1    1.1005e+02    3.8802e+02 ;   H12R - C112   - C111  
  4494   4492   4495      1    1.1005e+02    3.8802e+02 ;   H12S - C112   - C111  
  4495   4498   4499      1    1.1005e+02    3.8802e+02 ;   C111 - C110   - H10R  
  4495   4498   4500      1    1.1005e+02    3.8802e+02 ;   C111 - C110   - H10S  
  4495   4498   4501      1    1.1205e+02    3.9497e+02 ;   C111 - C110   - C19   
  4496   4495   4497      1    1.0835e+02    3.2995e+02 ;   H11R - C111   - H11S  
  4496   4495   4498      1    1.1005e+02    3.8802e+02 ;   H11R - C111   - C110  
  4497   4495   4498      1    1.1005e+02    3.8802e+02 ;   H11S - C111   - C110  
  4498   4501   4502      1    1.1005e+02    3.8802e+02 ;   C110 - C19    - H9R   
  4498   4501   4503      1    1.1005e+02    3.8802e+02 ;   C110 - C19    - H9S   
  4498   4501   4504      1    1.1205e+02    3.9497e+02 ;   C110 - C19    - C18   
  4499   4498   4500      1    1.0835e+02    3.2995e+02 ;   H10R - C110   - H10S  
  4499   4498   4501      1    1.1005e+02    3.8802e+02 ;   H10R - C110   - C19   
  4500   4498   4501      1    1.1005e+02    3.8802e+02 ;   H10S - C110   - C19   
  4501   4504   4505      1    1.1005e+02    3.8802e+02 ;    C19 - C18    - H8R   
  4501   4504   4506      1    1.1005e+02    3.8802e+02 ;    C19 - C18    - H8S   
  4501   4504   4507      1    1.1205e+02    3.9497e+02 ;    C19 - C18    - C17   
  4502   4501   4503      1    1.0835e+02    3.2995e+02 ;    H9R - C19    - H9S   
  4502   4501   4504      1    1.1005e+02    3.8802e+02 ;    H9R - C19    - C18   
  4503   4501   4504      1    1.1005e+02    3.8802e+02 ;    H9S - C19    - C18   
  4504   4507   4508      1    1.1005e+02    3.8802e+02 ;    C18 - C17    - H7R   
  4504   4507   4509      1    1.1005e+02    3.8802e+02 ;    C18 - C17    - H7S   
  4504   4507   4510      1    1.1205e+02    3.9497e+02 ;    C18 - C17    - C16   
  4505   4504   4506      1    1.0835e+02    3.2995e+02 ;    H8R - C18    - H8S   
  4505   4504   4507      1    1.1005e+02    3.8802e+02 ;    H8R - C18    - C17   
  4506   4504   4507      1    1.1005e+02    3.8802e+02 ;    H8S - C18    - C17   
  4507   4510   4511      1    1.1005e+02    3.8802e+02 ;    C17 - C16    - H6R   
  4507   4510   4512      1    1.1005e+02    3.8802e+02 ;    C17 - C16    - H6S   
  4507   4510   4513      1    1.1205e+02    3.9497e+02 ;    C17 - C16    - C15   
  4508   4507   4509      1    1.0835e+02    3.2995e+02 ;    H7R - C17    - H7S   
  4508   4507   4510      1    1.1005e+02    3.8802e+02 ;    H7R - C17    - C16   
  4509   4507   4510      1    1.1005e+02    3.8802e+02 ;    H7S - C17    - C16   
  4510   4513   4514      1    1.1005e+02    3.8802e+02 ;    C16 - C15    - H5R   
  4510   4513   4515      1    1.1005e+02    3.8802e+02 ;    C16 - C15    - H5S   
  4510   4513   4516      1    1.1205e+02    3.9497e+02 ;    C16 - C15    - C14   
  4511   4510   4512      1    1.0835e+02    3.2995e+02 ;    H6R - C16    - H6S   
  4511   4510   4513      1    1.1005e+02    3.8802e+02 ;    H6R - C16    - C15   
  4512   4510   4513      1    1.1005e+02    3.8802e+02 ;    H6S - C16    - C15   
  4513   4516   4517      1    1.1005e+02    3.8802e+02 ;    C15 - C14    - H4R   
  4513   4516   4518      1    1.1005e+02    3.8802e+02 ;    C15 - C14    - H4S   
  4513   4516   4519      1    1.1205e+02    3.9497e+02 ;    C15 - C14    - C13   
  4514   4513   4515      1    1.0835e+02    3.2995e+02 ;    H5R - C15    - H5S   
  4514   4513   4516      1    1.1005e+02    3.8802e+02 ;    H5R - C15    - C14   
  4515   4513   4516      1    1.1005e+02    3.8802e+02 ;    H5S - C15    - C14   
  4516   4519   4520      1    1.1005e+02    3.8802e+02 ;    C14 - C13    - H3R   
  4516   4519   4521      1    1.1005e+02    3.8802e+02 ;    C14 - C13    - H3S   
  4516   4519   4522      1    1.1205e+02    3.9497e+02 ;    C14 - C13    - C12   
  4517   4516   4518      1    1.0835e+02    3.2995e+02 ;    H4R - C14    - H4S   
  4517   4516   4519      1    1.1005e+02    3.8802e+02 ;    H4R - C14    - C13   
  4518   4516   4519      1    1.1005e+02    3.8802e+02 ;    H4S - C14    - C13   
  4519   4522   4523      1    1.1005e+02    3.8802e+02 ;    C13 - C12    - H2R   
  4519   4522   4524      1    1.1005e+02    3.8802e+02 ;    C13 - C12    - H2S   
  4519   4522   4525      1    1.1053e+02    5.3379e+02 ;    C13 - C12    - C11   
  4520   4519   4521      1    1.0835e+02    3.2995e+02 ;    H3R - C13    - H3S   
  4520   4519   4522      1    1.1005e+02    3.8802e+02 ;    H3R - C13    - C12   
  4521   4519   4522      1    1.1005e+02    3.8802e+02 ;    H3S - C13    - C12   
  4522   4525   4526      1    1.2311e+02    5.6928e+02 ;    C12 - C11    - O12   
  4522   4525   4527      1    1.1196e+02    5.7957e+02 ;    C12 - C11    - O11   
  4523   4522   4524      1    1.0835e+02    3.2995e+02 ;    H2R - C12    - H2S   
  4523   4522   4525      1    1.0968e+02    3.9497e+02 ;    H2R - C12    - C11   
  4524   4522   4525      1    1.0968e+02    3.9497e+02 ;    H2S - C12    - C11   
  4525   4527   4528      1    1.1514e+02    5.3246e+02 ;    C11 - O11    - C1    
  4526   4525   4527      1    1.2333e+02    6.3538e+02 ;    O12 - C11    - O11   
  4527   4528   4529      1    1.0882e+02    4.2543e+02 ;    O11 - C1     - HR    
  4527   4528   4530      1    1.0882e+02    4.2543e+02 ;    O11 - C1     - HS    
  4527   4528   4531      1    1.0842e+02    5.6718e+02 ;    O11 - C1     - C2    
  4528   4531   4532      1    1.1007e+02    3.8794e+02 ;     C1 - C2     - HX    
  4528   4531   4533      1    1.1063e+02    5.2894e+02 ;     C1 - C2     - C3    
  4528   4531   4560      1    1.0842e+02    5.6718e+02 ;     C1 - C2     - O21   
  4529   4528   4530      1    1.0955e+02    3.2786e+02 ;     HR - C1     - HS    
  4529   4528   4531      1    1.1007e+02    3.8794e+02 ;     HR - C1     - C2    
  4530   4528   4531      1    1.1007e+02    3.8794e+02 ;     HS - C1     - C2    
  4531   4533   4534      1    1.1007e+02    3.8794e+02 ;     C2 - C3     - HA    
  4531   4533   4535      1    1.1007e+02    3.8794e+02 ;     C2 - C3     - HB    
  4531   4533   4536      1    1.0842e+02    5.6718e+02 ;     C2 - C3     - O31   
  4531   4560   4561      1    1.1514e+02    5.3246e+02 ;     C2 - O21    - C21   
  4532   4531   4533      1    1.1007e+02    3.8794e+02 ;     HX - C2     - C3    
  4532   4531   4560      1    1.0882e+02    4.2543e+02 ;     HX - C2     - O21   
  4533   4531   4560      1    1.0842e+02    5.6718e+02 ;     C3 - C2     - O21   
  4533   4536   4537      1    1.2050e+02    8.3680e+02 ;     C3 - O31    - P31   
  4534   4533   4535      1    1.0955e+02    3.2786e+02 ;     HA - C3     - HB    
  4534   4533   4536      1    1.0882e+02    4.2543e+02 ;     HA - C3     - O31   
  4535   4533   4536      1    1.0882e+02    4.2543e+02 ;     HB - C3     - O31   
  4536   4537   4538      1    1.0260e+02    7.5312e+02 ;    O31 - P31    - O32   
  4536   4537   4558      1    1.0823e+02    8.3680e+02 ;    O31 - P31    - O33   
  4536   4537   4559      1    1.0823e+02    8.3680e+02 ;    O31 - P31    - O34   
  4537   4538   4539      1    1.2050e+02    8.3680e+02 ;    P31 - O32    - C31   
  4538   4537   4558      1    1.0823e+02    8.3680e+02 ;    O32 - P31    - O33   
  4538   4537   4559      1    1.0823e+02    8.3680e+02 ;    O32 - P31    - O34   
  4538   4539   4540      1    1.0882e+02    4.2543e+02 ;    O32 - C31    - H1A   
  4538   4539   4541      1    1.0882e+02    4.2543e+02 ;    O32 - C31    - H1B   
  4538   4539   4542      1    1.0842e+02    5.6718e+02 ;    O32 - C31    - C32   
  4539   4542   4543      1    1.1174e+02    3.8510e+02 ;    C31 - C32    - H2A   
  4539   4542   4544      1    1.1174e+02    3.8510e+02 ;    C31 - C32    - H2B   
  4539   4542   4545      1    1.1432e+02    5.3932e+02 ;    C31 - C32    - N31   
  4540   4539   4541      1    1.0955e+02    3.2786e+02 ;    H1A - C31    - H1B   
  4540   4539   4542      1    1.1007e+02    3.8794e+02 ;    H1A - C31    - C32   
  4541   4539   4542      1    1.1007e+02    3.8794e+02 ;    H1B - C31    - C32   
  4542   4545   4546      1    1.1064e+02    5.2585e+02 ;    C32 - N31    - C33   
  4542   4545   4550      1    1.1064e+02    5.2585e+02 ;    C32 - N31    - C34   
  4542   4545   4554      1    1.1064e+02    5.2585e+02 ;    C32 - N31    - C35   
  4543   4542   4544      1    1.1074e+02    3.2669e+02 ;    H2A - C32    - H2B   
  4543   4542   4545      1    1.0791e+02    4.1020e+02 ;    H2A - C32    - N31   
  4544   4542   4545      1    1.0791e+02    4.1020e+02 ;    H2B - C32    - N31   
  4545   4546   4547      1    1.0791e+02    4.1020e+02 ;    N31 - C33    - H3A   
  4545   4546   4548      1    1.0791e+02    4.1020e+02 ;    N31 - C33    - H3B   
  4545   4546   4549      1    1.0791e+02    4.1020e+02 ;    N31 - C33    - H3C   
  4545   4550   4551      1    1.0791e+02    4.1020e+02 ;    N31 - C34    - H4A   
  4545   4550   4552      1    1.0791e+02    4.1020e+02 ;    N31 - C34    - H4B   
  4545   4550   4553      1    1.0791e+02    4.1020e+02 ;    N31 - C34    - H4C   
  4545   4554   4555      1    1.0791e+02    4.1020e+02 ;    N31 - C35    - H5A   
  4545   4554   4556      1    1.0791e+02    4.1020e+02 ;    N31 - C35    - H5B   
  4545   4554   4557      1    1.0791e+02    4.1020e+02 ;    N31 - C35    - H5C   
  4546   4545   4550      1    1.1064e+02    5.2585e+02 ;    C33 - N31    - C34   
  4546   4545   4554      1    1.1064e+02    5.2585e+02 ;    C33 - N31    - C35   
  4547   4546   4548      1    1.1074e+02    3.2669e+02 ;    H3A - C33    - H3B   
  4547   4546   4549      1    1.1074e+02    3.2669e+02 ;    H3A - C33    - H3C   
  4548   4546   4549      1    1.1074e+02    3.2669e+02 ;    H3B - C33    - H3C   
  4550   4545   4554      1    1.1064e+02    5.2585e+02 ;    C34 - N31    - C35   
  4551   4550   4552      1    1.1074e+02    3.2669e+02 ;    H4A - C34    - H4B   
  4551   4550   4553      1    1.1074e+02    3.2669e+02 ;    H4A - C34    - H4C   
  4552   4550   4553      1    1.1074e+02    3.2669e+02 ;    H4B - C34    - H4C   
  4555   4554   4556      1    1.1074e+02    3.2669e+02 ;    H5A - C35    - H5B   
  4555   4554   4557      1    1.1074e+02    3.2669e+02 ;    H5A - C35    - H5C   
  4556   4554   4557      1    1.1074e+02    3.2669e+02 ;    H5B - C35    - H5C   
  4558   4537   4559      1    1.1990e+02    1.1715e+03 ;    O33 - P31    - O34   
  4560   4561   4562      1    1.2333e+02    6.3538e+02 ;    O21 - C21    - O22   
  4560   4561   4600      1    1.1196e+02    5.7957e+02 ;    O21 - C21    - C12   
  4561   4600   4597      1    1.1053e+02    5.3379e+02 ;    C21 - C12    - C13   
  4561   4600   4601      1    1.0968e+02    3.9497e+02 ;    C21 - C12    - H2R   
  4561   4600   4602      1    1.0968e+02    3.9497e+02 ;    C21 - C12    - H2S   
  4562   4561   4600      1    1.2311e+02    5.6928e+02 ;    O22 - C21    - C12   
  4563   4564   4565      1    1.0835e+02    3.2995e+02 ;   H14T - C114   - H14R  
  4563   4564   4566      1    1.0835e+02    3.2995e+02 ;   H14T - C114   - H14S  
  4563   4564   4567      1    1.1005e+02    3.8802e+02 ;   H14T - C114   - C113  
  4564   4567   4568      1    1.1005e+02    3.8802e+02 ;   C114 - C113   - H13R  
  4564   4567   4569      1    1.1005e+02    3.8802e+02 ;   C114 - C113   - H13S  
  4564   4567   4570      1    1.1205e+02    3.9497e+02 ;   C114 - C113   - C112  
  4565   4564   4566      1    1.0835e+02    3.2995e+02 ;   H14R - C114   - H14S  
  4565   4564   4567      1    1.1005e+02    3.8802e+02 ;   H14R - C114   - C113  
  4566   4564   4567      1    1.1005e+02    3.8802e+02 ;   H14S - C114   - C113  
  4567   4570   4571      1    1.1005e+02    3.8802e+02 ;   C113 - C112   - H12R  
  4567   4570   4572      1    1.1005e+02    3.8802e+02 ;   C113 - C112   - H12S  
  4567   4570   4573      1    1.1205e+02    3.9497e+02 ;   C113 - C112   - C111  
  4568   4567   4569      1    1.0835e+02    3.2995e+02 ;   H13R - C113   - H13S  
  4568   4567   4570      1    1.1005e+02    3.8802e+02 ;   H13R - C113   - C112  
  4569   4567   4570      1    1.1005e+02    3.8802e+02 ;   H13S - C113   - C112  
  4570   4573   4574      1    1.1005e+02    3.8802e+02 ;   C112 - C111   - H11R  
  4570   4573   4575      1    1.1005e+02    3.8802e+02 ;   C112 - C111   - H11S  
  4570   4573   4576      1    1.1205e+02    3.9497e+02 ;   C112 - C111   - C110  
  4571   4570   4572      1    1.0835e+02    3.2995e+02 ;   H12R - C112   - H12S  
  4571   4570   4573      1    1.1005e+02    3.8802e+02 ;   H12R - C112   - C111  
  4572   4570   4573      1    1.1005e+02    3.8802e+02 ;   H12S - C112   - C111  
  4573   4576   4577      1    1.1005e+02    3.8802e+02 ;   C111 - C110   - H10R  
  4573   4576   4578      1    1.1005e+02    3.8802e+02 ;   C111 - C110   - H10S  
  4573   4576   4579      1    1.1205e+02    3.9497e+02 ;   C111 - C110   - C19   
  4574   4573   4575      1    1.0835e+02    3.2995e+02 ;   H11R - C111   - H11S  
  4574   4573   4576      1    1.1005e+02    3.8802e+02 ;   H11R - C111   - C110  
  4575   4573   4576      1    1.1005e+02    3.8802e+02 ;   H11S - C111   - C110  
  4576   4579   4580      1    1.1005e+02    3.8802e+02 ;   C110 - C19    - H9R   
  4576   4579   4581      1    1.1005e+02    3.8802e+02 ;   C110 - C19    - H9S   
  4576   4579   4582      1    1.1205e+02    3.9497e+02 ;   C110 - C19    - C18   
  4577   4576   4578      1    1.0835e+02    3.2995e+02 ;   H10R - C110   - H10S  
  4577   4576   4579      1    1.1005e+02    3.8802e+02 ;   H10R - C110   - C19   
  4578   4576   4579      1    1.1005e+02    3.8802e+02 ;   H10S - C110   - C19   
  4579   4582   4583      1    1.1005e+02    3.8802e+02 ;    C19 - C18    - H8R   
  4579   4582   4584      1    1.1005e+02    3.8802e+02 ;    C19 - C18    - H8S   
  4579   4582   4585      1    1.1205e+02    3.9497e+02 ;    C19 - C18    - C17   
  4580   4579   4581      1    1.0835e+02    3.2995e+02 ;    H9R - C19    - H9S   
  4580   4579   4582      1    1.1005e+02    3.8802e+02 ;    H9R - C19    - C18   
  4581   4579   4582      1    1.1005e+02    3.8802e+02 ;    H9S - C19    - C18   
  4582   4585   4586      1    1.1005e+02    3.8802e+02 ;    C18 - C17    - H7R   
  4582   4585   4587      1    1.1005e+02    3.8802e+02 ;    C18 - C17    - H7S   
  4582   4585   4588      1    1.1205e+02    3.9497e+02 ;    C18 - C17    - C16   
  4583   4582   4584      1    1.0835e+02    3.2995e+02 ;    H8R - C18    - H8S   
  4583   4582   4585      1    1.1005e+02    3.8802e+02 ;    H8R - C18    - C17   
  4584   4582   4585      1    1.1005e+02    3.8802e+02 ;    H8S - C18    - C17   
  4585   4588   4589      1    1.1005e+02    3.8802e+02 ;    C17 - C16    - H6R   
  4585   4588   4590      1    1.1005e+02    3.8802e+02 ;    C17 - C16    - H6S   
  4585   4588   4591      1    1.1205e+02    3.9497e+02 ;    C17 - C16    - C15   
  4586   4585   4587      1    1.0835e+02    3.2995e+02 ;    H7R - C17    - H7S   
  4586   4585   4588      1    1.1005e+02    3.8802e+02 ;    H7R - C17    - C16   
  4587   4585   4588      1    1.1005e+02    3.8802e+02 ;    H7S - C17    - C16   
  4588   4591   4592      1    1.1005e+02    3.8802e+02 ;    C16 - C15    - H5R   
  4588   4591   4593      1    1.1005e+02    3.8802e+02 ;    C16 - C15    - H5S   
  4588   4591   4594      1    1.1205e+02    3.9497e+02 ;    C16 - C15    - C14   
  4589   4588   4590      1    1.0835e+02    3.2995e+02 ;    H6R - C16    - H6S   
  4589   4588   4591      1    1.1005e+02    3.8802e+02 ;    H6R - C16    - C15   
  4590   4588   4591      1    1.1005e+02    3.8802e+02 ;    H6S - C16    - C15   
  4591   4594   4595      1    1.1005e+02    3.8802e+02 ;    C15 - C14    - H4R   
  4591   4594   4596      1    1.1005e+02    3.8802e+02 ;    C15 - C14    - H4S   
  4591   4594   4597      1    1.1205e+02    3.9497e+02 ;    C15 - C14    - C13   
  4592   4591   4593      1    1.0835e+02    3.2995e+02 ;    H5R - C15    - H5S   
  4592   4591   4594      1    1.1005e+02    3.8802e+02 ;    H5R - C15    - C14   
  4593   4591   4594      1    1.1005e+02    3.8802e+02 ;    H5S - C15    - C14   
  4594   4597   4598      1    1.1005e+02    3.8802e+02 ;    C14 - C13    - H3R   
  4594   4597   4599      1    1.1005e+02    3.8802e+02 ;    C14 - C13    - H3S   
  4594   4597   4600      1    1.1205e+02    3.9497e+02 ;    C14 - C13    - C12   
  4595   4594   4596      1    1.0835e+02    3.2995e+02 ;    H4R - C14    - H4S   
  4595   4594   4597      1    1.1005e+02    3.8802e+02 ;    H4R - C14    - C13   
  4596   4594   4597      1    1.1005e+02    3.8802e+02 ;    H4S - C14    - C13   
  4597   4600   4601      1    1.1005e+02    3.8802e+02 ;    C13 - C12    - H2R   
  4597   4600   4602      1    1.1005e+02    3.8802e+02 ;    C13 - C12    - H2S   
  4598   4597   4599      1    1.0835e+02    3.2995e+02 ;    H3R - C13    - H3S   
  4598   4597   4600      1    1.1005e+02    3.8802e+02 ;    H3R - C13    - C12   
  4599   4597   4600      1    1.1005e+02    3.8802e+02 ;    H3S - C13    - C12   
  4601   4600   4602      1    1.0835e+02    3.2995e+02 ;    H2R - C12    - H2S   
  4603   4604   4605      1    1.0835e+02    3.2995e+02 ;   H14T - C114   - H14R  
  4603   4604   4606      1    1.0835e+02    3.2995e+02 ;   H14T - C114   - H14S  
  4603   4604   4607      1    1.1005e+02    3.8802e+02 ;   H14T - C114   - C113  
  4604   4607   4608      1    1.1005e+02    3.8802e+02 ;   C114 - C113   - H13R  
  4604   4607   4609      1    1.1005e+02    3.8802e+02 ;   C114 - C113   - H13S  
  4604   4607   4610      1    1.1205e+02    3.9497e+02 ;   C114 - C113   - C112  
  4605   4604   4606      1    1.0835e+02    3.2995e+02 ;   H14R - C114   - H14S  
  4605   4604   4607      1    1.1005e+02    3.8802e+02 ;   H14R - C114   - C113  
  4606   4604   4607      1    1.1005e+02    3.8802e+02 ;   H14S - C114   - C113  
  4607   4610   4611      1    1.1005e+02    3.8802e+02 ;   C113 - C112   - H12R  
  4607   4610   4612      1    1.1005e+02    3.8802e+02 ;   C113 - C112   - H12S  
  4607   4610   4613      1    1.1205e+02    3.9497e+02 ;   C113 - C112   - C111  
  4608   4607   4609      1    1.0835e+02    3.2995e+02 ;   H13R - C113   - H13S  
  4608   4607   4610      1    1.1005e+02    3.8802e+02 ;   H13R - C113   - C112  
  4609   4607   4610      1    1.1005e+02    3.8802e+02 ;   H13S - C113   - C112  
  4610   4613   4614      1    1.1005e+02    3.8802e+02 ;   C112 - C111   - H11R  
  4610   4613   4615      1    1.1005e+02    3.8802e+02 ;   C112 - C111   - H11S  
  4610   4613   4616      1    1.1205e+02    3.9497e+02 ;   C112 - C111   - C110  
  4611   4610   4612      1    1.0835e+02    3.2995e+02 ;   H12R - C112   - H12S  
  4611   4610   4613      1    1.1005e+02    3.8802e+02 ;   H12R - C112   - C111  
  4612   4610   4613      1    1.1005e+02    3.8802e+02 ;   H12S - C112   - C111  
  4613   4616   4617      1    1.1005e+02    3.8802e+02 ;   C111 - C110   - H10R  
  4613   4616   4618      1    1.1005e+02    3.8802e+02 ;   C111 - C110   - H10S  
  4613   4616   4619      1    1.1205e+02    3.9497e+02 ;   C111 - C110   - C19   
  4614   4613   4615      1    1.0835e+02    3.2995e+02 ;   H11R - C111   - H11S  
  4614   4613   4616      1    1.1005e+02    3.8802e+02 ;   H11R - C111   - C110  
  4615   4613   4616      1    1.1005e+02    3.8802e+02 ;   H11S - C111   - C110  
  4616   4619   4620      1    1.1005e+02    3.8802e+02 ;   C110 - C19    - H9R   
  4616   4619   4621      1    1.1005e+02    3.8802e+02 ;   C110 - C19    - H9S   
  4616   4619   4622      1    1.1205e+02    3.9497e+02 ;   C110 - C19    - C18   
  4617   4616   4618      1    1.0835e+02    3.2995e+02 ;   H10R - C110   - H10S  
  4617   4616   4619      1    1.1005e+02    3.8802e+02 ;   H10R - C110   - C19   
  4618   4616   4619      1    1.1005e+02    3.8802e+02 ;   H10S - C110   - C19   
  4619   4622   4623      1    1.1005e+02    3.8802e+02 ;    C19 - C18    - H8R   
  4619   4622   4624      1    1.1005e+02    3.8802e+02 ;    C19 - C18    - H8S   
  4619   4622   4625      1    1.1205e+02    3.9497e+02 ;    C19 - C18    - C17   
  4620   4619   4621      1    1.0835e+02    3.2995e+02 ;    H9R - C19    - H9S   
  4620   4619   4622      1    1.1005e+02    3.8802e+02 ;    H9R - C19    - C18   
  4621   4619   4622      1    1.1005e+02    3.8802e+02 ;    H9S - C19    - C18   
  4622   4625   4626      1    1.1005e+02    3.8802e+02 ;    C18 - C17    - H7R   
  4622   4625   4627      1    1.1005e+02    3.8802e+02 ;    C18 - C17    - H7S   
  4622   4625   4628      1    1.1205e+02    3.9497e+02 ;    C18 - C17    - C16   
  4623   4622   4624      1    1.0835e+02    3.2995e+02 ;    H8R - C18    - H8S   
  4623   4622   4625      1    1.1005e+02    3.8802e+02 ;    H8R - C18    - C17   
  4624   4622   4625      1    1.1005e+02    3.8802e+02 ;    H8S - C18    - C17   
  4625   4628   4629      1    1.1005e+02    3.8802e+02 ;    C17 - C16    - H6R   
  4625   4628   4630      1    1.1005e+02    3.8802e+02 ;    C17 - C16    - H6S   
  4625   4628   4631      1    1.1205e+02    3.9497e+02 ;    C17 - C16    - C15   
  4626   4625   4627      1    1.0835e+02    3.2995e+02 ;    H7R - C17    - H7S   
  4626   4625   4628      1    1.1005e+02    3.8802e+02 ;    H7R - C17    - C16   
  4627   4625   4628      1    1.1005e+02    3.8802e+02 ;    H7S - C17    - C16   
  4628   4631   4632      1    1.1005e+02    3.8802e+02 ;    C16 - C15    - H5R   
  4628   4631   4633      1    1.1005e+02    3.8802e+02 ;    C16 - C15    - H5S   
  4628   4631   4634      1    1.1205e+02    3.9497e+02 ;    C16 - C15    - C14   
  4629   4628   4630      1    1.0835e+02    3.2995e+02 ;    H6R - C16    - H6S   
  4629   4628   4631      1    1.1005e+02    3.8802e+02 ;    H6R - C16    - C15   
  4630   4628   4631      1    1.1005e+02    3.8802e+02 ;    H6S - C16    - C15   
  4631   4634   4635      1    1.1005e+02    3.8802e+02 ;    C15 - C14    - H4R   
  4631   4634   4636      1    1.1005e+02    3.8802e+02 ;    C15 - C14    - H4S   
  4631   4634   4637      1    1.1205e+02    3.9497e+02 ;    C15 - C14    - C13   
  4632   4631   4633      1    1.0835e+02    3.2995e+02 ;    H5R - C15    - H5S   
  4632   4631   4634      1    1.1005e+02    3.8802e+02 ;    H5R - C15    - C14   
  4633   4631   4634      1    1.1005e+02    3.8802e+02 ;    H5S - C15    - C14   
  4634   4637   4638      1    1.1005e+02    3.8802e+02 ;    C14 - C13    - H3R   
  4634   4637   4639      1    1.1005e+02    3.8802e+02 ;    C14 - C13    - H3S   
  4634   4637   4640      1    1.1205e+02    3.9497e+02 ;    C14 - C13    - C12   
  4635   4634   4636      1    1.0835e+02    3.2995e+02 ;    H4R - C14    - H4S   
  4635   4634   4637      1    1.1005e+02    3.8802e+02 ;    H4R - C14    - C13   
  4636   4634   4637      1    1.1005e+02    3.8802e+02 ;    H4S - C14    - C13   
  4637   4640   4641      1    1.1005e+02    3.8802e+02 ;    C13 - C12    - H2R   
  4637   4640   4642      1    1.1005e+02    3.8802e+02 ;    C13 - C12    - H2S   
  4637   4640   4643      1    1.1053e+02    5.3379e+02 ;    C13 - C12    - C11   
  4638   4637   4639      1    1.0835e+02    3.2995e+02 ;    H3R - C13    - H3S   
  4638   4637   4640      1    1.1005e+02    3.8802e+02 ;    H3R - C13    - C12   
  4639   4637   4640      1    1.1005e+02    3.8802e+02 ;    H3S - C13    - C12   
  4640   4643   4644      1    1.2311e+02    5.6928e+02 ;    C12 - C11    - O12   
  4640   4643   4645      1    1.1196e+02    5.7957e+02 ;    C12 - C11    - O11   
  4641   4640   4642      1    1.0835e+02    3.2995e+02 ;    H2R - C12    - H2S   
  4641   4640   4643      1    1.0968e+02    3.9497e+02 ;    H2R - C12    - C11   
  4642   4640   4643      1    1.0968e+02    3.9497e+02 ;    H2S - C12    - C11   
  4643   4645   4646      1    1.1514e+02    5.3246e+02 ;    C11 - O11    - C1    
  4644   4643   4645      1    1.2333e+02    6.3538e+02 ;    O12 - C11    - O11   
  4645   4646   4647      1    1.0882e+02    4.2543e+02 ;    O11 - C1     - HR    
  4645   4646   4648      1    1.0882e+02    4.2543e+02 ;    O11 - C1     - HS    
  4645   4646   4649      1    1.0842e+02    5.6718e+02 ;    O11 - C1     - C2    
  4646   4649   4650      1    1.1007e+02    3.8794e+02 ;     C1 - C2     - HX    
  4646   4649   4651      1    1.1063e+02    5.2894e+02 ;     C1 - C2     - C3    
  4646   4649   4678      1    1.0842e+02    5.6718e+02 ;     C1 - C2     - O21   
  4647   4646   4648      1    1.0955e+02    3.2786e+02 ;     HR - C1     - HS    
  4647   4646   4649      1    1.1007e+02    3.8794e+02 ;     HR - C1     - C2    
  4648   4646   4649      1    1.1007e+02    3.8794e+02 ;     HS - C1     - C2    
  4649   4651   4652      1    1.1007e+02    3.8794e+02 ;     C2 - C3     - HA    
  4649   4651   4653      1    1.1007e+02    3.8794e+02 ;     C2 - C3     - HB    
  4649   4651   4654      1    1.0842e+02    5.6718e+02 ;     C2 - C3     - O31   
  4649   4678   4679      1    1.1514e+02    5.3246e+02 ;     C2 - O21    - C21   
  4650   4649   4651      1    1.1007e+02    3.8794e+02 ;     HX - C2     - C3    
  4650   4649   4678      1    1.0882e+02    4.2543e+02 ;     HX - C2     - O21   
  4651   4649   4678      1    1.0842e+02    5.6718e+02 ;     C3 - C2     - O21   
  4651   4654   4655      1    1.2050e+02    8.3680e+02 ;     C3 - O31    - P31   
  4652   4651   4653      1    1.0955e+02    3.2786e+02 ;     HA - C3     - HB    
  4652   4651   4654      1    1.0882e+02    4.2543e+02 ;     HA - C3     - O31   
  4653   4651   4654      1    1.0882e+02    4.2543e+02 ;     HB - C3     - O31   
  4654   4655   4656      1    1.0260e+02    7.5312e+02 ;    O31 - P31    - O32   
  4654   4655   4676      1    1.0823e+02    8.3680e+02 ;    O31 - P31    - O33   
  4654   4655   4677      1    1.0823e+02    8.3680e+02 ;    O31 - P31    - O34   
  4655   4656   4657      1    1.2050e+02    8.3680e+02 ;    P31 - O32    - C31   
  4656   4655   4676      1    1.0823e+02    8.3680e+02 ;    O32 - P31    - O33   
  4656   4655   4677      1    1.0823e+02    8.3680e+02 ;    O32 - P31    - O34   
  4656   4657   4658      1    1.0882e+02    4.2543e+02 ;    O32 - C31    - H1A   
  4656   4657   4659      1    1.0882e+02    4.2543e+02 ;    O32 - C31    - H1B   
  4656   4657   4660      1    1.0842e+02    5.6718e+02 ;    O32 - C31    - C32   
  4657   4660   4661      1    1.1174e+02    3.8510e+02 ;    C31 - C32    - H2A   
  4657   4660   4662      1    1.1174e+02    3.8510e+02 ;    C31 - C32    - H2B   
  4657   4660   4663      1    1.1432e+02    5.3932e+02 ;    C31 - C32    - N31   
  4658   4657   4659      1    1.0955e+02    3.2786e+02 ;    H1A - C31    - H1B   
  4658   4657   4660      1    1.1007e+02    3.8794e+02 ;    H1A - C31    - C32   
  4659   4657   4660      1    1.1007e+02    3.8794e+02 ;    H1B - C31    - C32   
  4660   4663   4664      1    1.1064e+02    5.2585e+02 ;    C32 - N31    - C33   
  4660   4663   4668      1    1.1064e+02    5.2585e+02 ;    C32 - N31    - C34   
  4660   4663   4672      1    1.1064e+02    5.2585e+02 ;    C32 - N31    - C35   
  4661   4660   4662      1    1.1074e+02    3.2669e+02 ;    H2A - C32    - H2B   
  4661   4660   4663      1    1.0791e+02    4.1020e+02 ;    H2A - C32    - N31   
  4662   4660   4663      1    1.0791e+02    4.1020e+02 ;    H2B - C32    - N31   
  4663   4664   4665      1    1.0791e+02    4.1020e+02 ;    N31 - C33    - H3A   
  4663   4664   4666      1    1.0791e+02    4.1020e+02 ;    N31 - C33    - H3B   
  4663   4664   4667      1    1.0791e+02    4.1020e+02 ;    N31 - C33    - H3C   
  4663   4668   4669      1    1.0791e+02    4.1020e+02 ;    N31 - C34    - H4A   
  4663   4668   4670      1    1.0791e+02    4.1020e+02 ;    N31 - C34    - H4B   
  4663   4668   4671      1    1.0791e+02    4.1020e+02 ;    N31 - C34    - H4C   
  4663   4672   4673      1    1.0791e+02    4.1020e+02 ;    N31 - C35    - H5A   
  4663   4672   4674      1    1.0791e+02    4.1020e+02 ;    N31 - C35    - H5B   
  4663   4672   4675      1    1.0791e+02    4.1020e+02 ;    N31 - C35    - H5C   
  4664   4663   4668      1    1.1064e+02    5.2585e+02 ;    C33 - N31    - C34   
  4664   4663   4672      1    1.1064e+02    5.2585e+02 ;    C33 - N31    - C35   
  4665   4664   4666      1    1.1074e+02    3.2669e+02 ;    H3A - C33    - H3B   
  4665   4664   4667      1    1.1074e+02    3.2669e+02 ;    H3A - C33    - H3C   
  4666   4664   4667      1    1.1074e+02    3.2669e+02 ;    H3B - C33    - H3C   
  4668   4663   4672      1    1.1064e+02    5.2585e+02 ;    C34 - N31    - C35   
  4669   4668   4670      1    1.1074e+02    3.2669e+02 ;    H4A - C34    - H4B   
  4669   4668   4671      1    1.1074e+02    3.2669e+02 ;    H4A - C34    - H4C   
  4670   4668   4671      1    1.1074e+02    3.2669e+02 ;    H4B - C34    - H4C   
  4673   4672   4674      1    1.1074e+02    3.2669e+02 ;    H5A - C35    - H5B   
  4673   4672   4675      1    1.1074e+02    3.2669e+02 ;    H5A - C35    - H5C   
  4674   4672   4675      1    1.1074e+02    3.2669e+02 ;    H5B - C35    - H5C   
  4676   4655   4677      1    1.1990e+02    1.1715e+03 ;    O33 - P31    - O34   
  4678   4679   4680      1    1.2333e+02    6.3538e+02 ;    O21 - C21    - O22   
  4678   4679   4718      1    1.1196e+02    5.7957e+02 ;    O21 - C21    - C12   
  4679   4718   4715      1    1.1053e+02    5.3379e+02 ;    C21 - C12    - C13   
  4679   4718   4719      1    1.0968e+02    3.9497e+02 ;    C21 - C12    - H2R   
  4679   4718   4720      1    1.0968e+02    3.9497e+02 ;    C21 - C12    - H2S   
  4680   4679   4718      1    1.2311e+02    5.6928e+02 ;    O22 - C21    - C12   
  4681   4682   4683      1    1.0835e+02    3.2995e+02 ;   H14T - C114   - H14R  
  4681   4682   4684      1    1.0835e+02    3.2995e+02 ;   H14T - C114   - H14S  
  4681   4682   4685      1    1.1005e+02    3.8802e+02 ;   H14T - C114   - C113  
  4682   4685   4686      1    1.1005e+02    3.8802e+02 ;   C114 - C113   - H13R  
  4682   4685   4687      1    1.1005e+02    3.8802e+02 ;   C114 - C113   - H13S  
  4682   4685   4688      1    1.1205e+02    3.9497e+02 ;   C114 - C113   - C112  
  4683   4682   4684      1    1.0835e+02    3.2995e+02 ;   H14R - C114   - H14S  
  4683   4682   4685      1    1.1005e+02    3.8802e+02 ;   H14R - C114   - C113  
  4684   4682   4685      1    1.1005e+02    3.8802e+02 ;   H14S - C114   - C113  
  4685   4688   4689      1    1.1005e+02    3.8802e+02 ;   C113 - C112   - H12R  
  4685   4688   4690      1    1.1005e+02    3.8802e+02 ;   C113 - C112   - H12S  
  4685   4688   4691      1    1.1205e+02    3.9497e+02 ;   C113 - C112   - C111  
  4686   4685   4687      1    1.0835e+02    3.2995e+02 ;   H13R - C113   - H13S  
  4686   4685   4688      1    1.1005e+02    3.8802e+02 ;   H13R - C113   - C112  
  4687   4685   4688      1    1.1005e+02    3.8802e+02 ;   H13S - C113   - C112  
  4688   4691   4692      1    1.1005e+02    3.8802e+02 ;   C112 - C111   - H11R  
  4688   4691   4693      1    1.1005e+02    3.8802e+02 ;   C112 - C111   - H11S  
  4688   4691   4694      1    1.1205e+02    3.9497e+02 ;   C112 - C111   - C110  
  4689   4688   4690      1    1.0835e+02    3.2995e+02 ;   H12R - C112   - H12S  
  4689   4688   4691      1    1.1005e+02    3.8802e+02 ;   H12R - C112   - C111  
  4690   4688   4691      1    1.1005e+02    3.8802e+02 ;   H12S - C112   - C111  
  4691   4694   4695      1    1.1005e+02    3.8802e+02 ;   C111 - C110   - H10R  
  4691   4694   4696      1    1.1005e+02    3.8802e+02 ;   C111 - C110   - H10S  
  4691   4694   4697      1    1.1205e+02    3.9497e+02 ;   C111 - C110   - C19   
  4692   4691   4693      1    1.0835e+02    3.2995e+02 ;   H11R - C111   - H11S  
  4692   4691   4694      1    1.1005e+02    3.8802e+02 ;   H11R - C111   - C110  
  4693   4691   4694      1    1.1005e+02    3.8802e+02 ;   H11S - C111   - C110  
  4694   4697   4698      1    1.1005e+02    3.8802e+02 ;   C110 - C19    - H9R   
  4694   4697   4699      1    1.1005e+02    3.8802e+02 ;   C110 - C19    - H9S   
  4694   4697   4700      1    1.1205e+02    3.9497e+02 ;   C110 - C19    - C18   
  4695   4694   4696      1    1.0835e+02    3.2995e+02 ;   H10R - C110   - H10S  
  4695   4694   4697      1    1.1005e+02    3.8802e+02 ;   H10R - C110   - C19   
  4696   4694   4697      1    1.1005e+02    3.8802e+02 ;   H10S - C110   - C19   
  4697   4700   4701      1    1.1005e+02    3.8802e+02 ;    C19 - C18    - H8R   
  4697   4700   4702      1    1.1005e+02    3.8802e+02 ;    C19 - C18    - H8S   
  4697   4700   4703      1    1.1205e+02    3.9497e+02 ;    C19 - C18    - C17   
  4698   4697   4699      1    1.0835e+02    3.2995e+02 ;    H9R - C19    - H9S   
  4698   4697   4700      1    1.1005e+02    3.8802e+02 ;    H9R - C19    - C18   
  4699   4697   4700      1    1.1005e+02    3.8802e+02 ;    H9S - C19    - C18   
  4700   4703   4704      1    1.1005e+02    3.8802e+02 ;    C18 - C17    - H7R   
  4700   4703   4705      1    1.1005e+02    3.8802e+02 ;    C18 - C17    - H7S   
  4700   4703   4706      1    1.1205e+02    3.9497e+02 ;    C18 - C17    - C16   
  4701   4700   4702      1    1.0835e+02    3.2995e+02 ;    H8R - C18    - H8S   
  4701   4700   4703      1    1.1005e+02    3.8802e+02 ;    H8R - C18    - C17   
  4702   4700   4703      1    1.1005e+02    3.8802e+02 ;    H8S - C18    - C17   
  4703   4706   4707      1    1.1005e+02    3.8802e+02 ;    C17 - C16    - H6R   
  4703   4706   4708      1    1.1005e+02    3.8802e+02 ;    C17 - C16    - H6S   
  4703   4706   4709      1    1.1205e+02    3.9497e+02 ;    C17 - C16    - C15   
  4704   4703   4705      1    1.0835e+02    3.2995e+02 ;    H7R - C17    - H7S   
  4704   4703   4706      1    1.1005e+02    3.8802e+02 ;    H7R - C17    - C16   
  4705   4703   4706      1    1.1005e+02    3.8802e+02 ;    H7S - C17    - C16   
  4706   4709   4710      1    1.1005e+02    3.8802e+02 ;    C16 - C15    - H5R   
  4706   4709   4711      1    1.1005e+02    3.8802e+02 ;    C16 - C15    - H5S   
  4706   4709   4712      1    1.1205e+02    3.9497e+02 ;    C16 - C15    - C14   
  4707   4706   4708      1    1.0835e+02    3.2995e+02 ;    H6R - C16    - H6S   
  4707   4706   4709      1    1.1005e+02    3.8802e+02 ;    H6R - C16    - C15   
  4708   4706   4709      1    1.1005e+02    3.8802e+02 ;    H6S - C16    - C15   
  4709   4712   4713      1    1.1005e+02    3.8802e+02 ;    C15 - C14    - H4R   
  4709   4712   4714      1    1.1005e+02    3.8802e+02 ;    C15 - C14    - H4S   
  4709   4712   4715      1    1.1205e+02    3.9497e+02 ;    C15 - C14    - C13   
  4710   4709   4711      1    1.0835e+02    3.2995e+02 ;    H5R - C15    - H5S   
  4710   4709   4712      1    1.1005e+02    3.8802e+02 ;    H5R - C15    - C14   
  4711   4709   4712      1    1.1005e+02    3.8802e+02 ;    H5S - C15    - C14   
  4712   4715   4716      1    1.1005e+02    3.8802e+02 ;    C14 - C13    - H3R   
  4712   4715   4717      1    1.1005e+02    3.8802e+02 ;    C14 - C13    - H3S   
  4712   4715   4718      1    1.1205e+02    3.9497e+02 ;    C14 - C13    - C12   
  4713   4712   4714      1    1.0835e+02    3.2995e+02 ;    H4R - C14    - H4S   
  4713   4712   4715      1    1.1005e+02    3.8802e+02 ;    H4R - C14    - C13   
  4714   4712   4715      1    1.1005e+02    3.8802e+02 ;    H4S - C14    - C13   
  4715   4718   4719      1    1.1005e+02    3.8802e+02 ;    C13 - C12    - H2R   
  4715   4718   4720      1    1.1005e+02    3.8802e+02 ;    C13 - C12    - H2S   
  4716   4715   4717      1    1.0835e+02    3.2995e+02 ;    H3R - C13    - H3S   
  4716   4715   4718      1    1.1005e+02    3.8802e+02 ;    H3R - C13    - C12   
  4717   4715   4718      1    1.1005e+02    3.8802e+02 ;    H3S - C13    - C12   
  4719   4718   4720      1    1.0835e+02    3.2995e+02 ;    H2R - C12    - H2S   
  4721   4722   4723      1    1.0835e+02    3.2995e+02 ;   H14T - C114   - H14R  
  4721   4722   4724      1    1.0835e+02    3.2995e+02 ;   H14T - C114   - H14S  
  4721   4722   4725      1    1.1005e+02    3.8802e+02 ;   H14T - C114   - C113  
  4722   4725   4726      1    1.1005e+02    3.8802e+02 ;   C114 - C113   - H13R  
  4722   4725   4727      1    1.1005e+02    3.8802e+02 ;   C114 - C113   - H13S  
  4722   4725   4728      1    1.1205e+02    3.9497e+02 ;   C114 - C113   - C112  
  4723   4722   4724      1    1.0835e+02    3.2995e+02 ;   H14R - C114   - H14S  
  4723   4722   4725      1    1.1005e+02    3.8802e+02 ;   H14R - C114   - C113  
  4724   4722   4725      1    1.1005e+02    3.8802e+02 ;   H14S - C114   - C113  
  4725   4728   4729      1    1.1005e+02    3.8802e+02 ;   C113 - C112   - H12R  
  4725   4728   4730      1    1.1005e+02    3.8802e+02 ;   C113 - C112   - H12S  
  4725   4728   4731      1    1.1205e+02    3.9497e+02 ;   C113 - C112   - C111  
  4726   4725   4727      1    1.0835e+02    3.2995e+02 ;   H13R - C113   - H13S  
  4726   4725   4728      1    1.1005e+02    3.8802e+02 ;   H13R - C113   - C112  
  4727   4725   4728      1    1.1005e+02    3.8802e+02 ;   H13S - C113   - C112  
  4728   4731   4732      1    1.1005e+02    3.8802e+02 ;   C112 - C111   - H11R  
  4728   4731   4733      1    1.1005e+02    3.8802e+02 ;   C112 - C111   - H11S  
  4728   4731   4734      1    1.1205e+02    3.9497e+02 ;   C112 - C111   - C110  
  4729   4728   4730      1    1.0835e+02    3.2995e+02 ;   H12R - C112   - H12S  
  4729   4728   4731      1    1.1005e+02    3.8802e+02 ;   H12R - C112   - C111  
  4730   4728   4731      1    1.1005e+02    3.8802e+02 ;   H12S - C112   - C111  
  4731   4734   4735      1    1.1005e+02    3.8802e+02 ;   C111 - C110   - H10R  
  4731   4734   4736      1    1.1005e+02    3.8802e+02 ;   C111 - C110   - H10S  
  4731   4734   4737      1    1.1205e+02    3.9497e+02 ;   C111 - C110   - C19   
  4732   4731   4733      1    1.0835e+02    3.2995e+02 ;   H11R - C111   - H11S  
  4732   4731   4734      1    1.1005e+02    3.8802e+02 ;   H11R - C111   - C110  
  4733   4731   4734      1    1.1005e+02    3.8802e+02 ;   H11S - C111   - C110  
  4734   4737   4738      1    1.1005e+02    3.8802e+02 ;   C110 - C19    - H9R   
  4734   4737   4739      1    1.1005e+02    3.8802e+02 ;   C110 - C19    - H9S   
  4734   4737   4740      1    1.1205e+02    3.9497e+02 ;   C110 - C19    - C18   
  4735   4734   4736      1    1.0835e+02    3.2995e+02 ;   H10R - C110   - H10S  
  4735   4734   4737      1    1.1005e+02    3.8802e+02 ;   H10R - C110   - C19   
  4736   4734   4737      1    1.1005e+02    3.8802e+02 ;   H10S - C110   - C19   
  4737   4740   4741      1    1.1005e+02    3.8802e+02 ;    C19 - C18    - H8R   
  4737   4740   4742      1    1.1005e+02    3.8802e+02 ;    C19 - C18    - H8S   
  4737   4740   4743      1    1.1205e+02    3.9497e+02 ;    C19 - C18    - C17   
  4738   4737   4739      1    1.0835e+02    3.2995e+02 ;    H9R - C19    - H9S   
  4738   4737   4740      1    1.1005e+02    3.8802e+02 ;    H9R - C19    - C18   
  4739   4737   4740      1    1.1005e+02    3.8802e+02 ;    H9S - C19    - C18   
  4740   4743   4744      1    1.1005e+02    3.8802e+02 ;    C18 - C17    - H7R   
  4740   4743   4745      1    1.1005e+02    3.8802e+02 ;    C18 - C17    - H7S   
  4740   4743   4746      1    1.1205e+02    3.9497e+02 ;    C18 - C17    - C16   
  4741   4740   4742      1    1.0835e+02    3.2995e+02 ;    H8R - C18    - H8S   
  4741   4740   4743      1    1.1005e+02    3.8802e+02 ;    H8R - C18    - C17   
  4742   4740   4743      1    1.1005e+02    3.8802e+02 ;    H8S - C18    - C17   
  4743   4746   4747      1    1.1005e+02    3.8802e+02 ;    C17 - C16    - H6R   
  4743   4746   4748      1    1.1005e+02    3.8802e+02 ;    C17 - C16    - H6S   
  4743   4746   4749      1    1.1205e+02    3.9497e+02 ;    C17 - C16    - C15   
  4744   4743   4745      1    1.0835e+02    3.2995e+02 ;    H7R - C17    - H7S   
  4744   4743   4746      1    1.1005e+02    3.8802e+02 ;    H7R - C17    - C16   
  4745   4743   4746      1    1.1005e+02    3.8802e+02 ;    H7S - C17    - C16   
  4746   4749   4750      1    1.1005e+02    3.8802e+02 ;    C16 - C15    - H5R   
  4746   4749   4751      1    1.1005e+02    3.8802e+02 ;    C16 - C15    - H5S   
  4746   4749   4752      1    1.1205e+02    3.9497e+02 ;    C16 - C15    - C14   
  4747   4746   4748      1    1.0835e+02    3.2995e+02 ;    H6R - C16    - H6S   
  4747   4746   4749      1    1.1005e+02    3.8802e+02 ;    H6R - C16    - C15   
  4748   4746   4749      1    1.1005e+02    3.8802e+02 ;    H6S - C16    - C15   
  4749   4752   4753      1    1.1005e+02    3.8802e+02 ;    C15 - C14    - H4R   
  4749   4752   4754      1    1.1005e+02    3.8802e+02 ;    C15 - C14    - H4S   
  4749   4752   4755      1    1.1205e+02    3.9497e+02 ;    C15 - C14    - C13   
  4750   4749   4751      1    1.0835e+02    3.2995e+02 ;    H5R - C15    - H5S   
  4750   4749   4752      1    1.1005e+02    3.8802e+02 ;    H5R - C15    - C14   
  4751   4749   4752      1    1.1005e+02    3.8802e+02 ;    H5S - C15    - C14   
  4752   4755   4756      1    1.1005e+02    3.8802e+02 ;    C14 - C13    - H3R   
  4752   4755   4757      1    1.1005e+02    3.8802e+02 ;    C14 - C13    - H3S   
  4752   4755   4758      1    1.1205e+02    3.9497e+02 ;    C14 - C13    - C12   
  4753   4752   4754      1    1.0835e+02    3.2995e+02 ;    H4R - C14    - H4S   
  4753   4752   4755      1    1.1005e+02    3.8802e+02 ;    H4R - C14    - C13   
  4754   4752   4755      1    1.1005e+02    3.8802e+02 ;    H4S - C14    - C13   
  4755   4758   4759      1    1.1005e+02    3.8802e+02 ;    C13 - C12    - H2R   
  4755   4758   4760      1    1.1005e+02    3.8802e+02 ;    C13 - C12    - H2S   
  4755   4758   4761      1    1.1053e+02    5.3379e+02 ;    C13 - C12    - C11   
  4756   4755   4757      1    1.0835e+02    3.2995e+02 ;    H3R - C13    - H3S   
  4756   4755   4758      1    1.1005e+02    3.8802e+02 ;    H3R - C13    - C12   
  4757   4755   4758      1    1.1005e+02    3.8802e+02 ;    H3S - C13    - C12   
  4758   4761   4762      1    1.2311e+02    5.6928e+02 ;    C12 - C11    - O12   
  4758   4761   4763      1    1.1196e+02    5.7957e+02 ;    C12 - C11    - O11   
  4759   4758   4760      1    1.0835e+02    3.2995e+02 ;    H2R - C12    - H2S   
  4759   4758   4761      1    1.0968e+02    3.9497e+02 ;    H2R - C12    - C11   
  4760   4758   4761      1    1.0968e+02    3.9497e+02 ;    H2S - C12    - C11   
  4761   4763   4764      1    1.1514e+02    5.3246e+02 ;    C11 - O11    - C1    
  4762   4761   4763      1    1.2333e+02    6.3538e+02 ;    O12 - C11    - O11   
  4763   4764   4765      1    1.0882e+02    4.2543e+02 ;    O11 - C1     - HR    
  4763   4764   4766      1    1.0882e+02    4.2543e+02 ;    O11 - C1     - HS    
  4763   4764   4767      1    1.0842e+02    5.6718e+02 ;    O11 - C1     - C2    
  4764   4767   4768      1    1.1007e+02    3.8794e+02 ;     C1 - C2     - HX    
  4764   4767   4769      1    1.1063e+02    5.2894e+02 ;     C1 - C2     - C3    
  4764   4767   4796      1    1.0842e+02    5.6718e+02 ;     C1 - C2     - O21   
  4765   4764   4766      1    1.0955e+02    3.2786e+02 ;     HR - C1     - HS    
  4765   4764   4767      1    1.1007e+02    3.8794e+02 ;     HR - C1     - C2    
  4766   4764   4767      1    1.1007e+02    3.8794e+02 ;     HS - C1     - C2    
  4767   4769   4770      1    1.1007e+02    3.8794e+02 ;     C2 - C3     - HA    
  4767   4769   4771      1    1.1007e+02    3.8794e+02 ;     C2 - C3     - HB    
  4767   4769   4772      1    1.0842e+02    5.6718e+02 ;     C2 - C3     - O31   
  4767   4796   4797      1    1.1514e+02    5.3246e+02 ;     C2 - O21    - C21   
  4768   4767   4769      1    1.1007e+02    3.8794e+02 ;     HX - C2     - C3    
  4768   4767   4796      1    1.0882e+02    4.2543e+02 ;     HX - C2     - O21   
  4769   4767   4796      1    1.0842e+02    5.6718e+02 ;     C3 - C2     - O21   
  4769   4772   4773      1    1.2050e+02    8.3680e+02 ;     C3 - O31    - P31   
  4770   4769   4771      1    1.0955e+02    3.2786e+02 ;     HA - C3     - HB    
  4770   4769   4772      1    1.0882e+02    4.2543e+02 ;     HA - C3     - O31   
  4771   4769   4772      1    1.0882e+02    4.2543e+02 ;     HB - C3     - O31   
  4772   4773   4774      1    1.0260e+02    7.5312e+02 ;    O31 - P31    - O32   
  4772   4773   4794      1    1.0823e+02    8.3680e+02 ;    O31 - P31    - O33   
  4772   4773   4795      1    1.0823e+02    8.3680e+02 ;    O31 - P31    - O34   
  4773   4774   4775      1    1.2050e+02    8.3680e+02 ;    P31 - O32    - C31   
  4774   4773   4794      1    1.0823e+02    8.3680e+02 ;    O32 - P31    - O33   
  4774   4773   4795      1    1.0823e+02    8.3680e+02 ;    O32 - P31    - O34   
  4774   4775   4776      1    1.0882e+02    4.2543e+02 ;    O32 - C31    - H1A   
  4774   4775   4777      1    1.0882e+02    4.2543e+02 ;    O32 - C31    - H1B   
  4774   4775   4778      1    1.0842e+02    5.6718e+02 ;    O32 - C31    - C32   
  4775   4778   4779      1    1.1174e+02    3.8510e+02 ;    C31 - C32    - H2A   
  4775   4778   4780      1    1.1174e+02    3.8510e+02 ;    C31 - C32    - H2B   
  4775   4778   4781      1    1.1432e+02    5.3932e+02 ;    C31 - C32    - N31   
  4776   4775   4777      1    1.0955e+02    3.2786e+02 ;    H1A - C31    - H1B   
  4776   4775   4778      1    1.1007e+02    3.8794e+02 ;    H1A - C31    - C32   
  4777   4775   4778      1    1.1007e+02    3.8794e+02 ;    H1B - C31    - C32   
  4778   4781   4782      1    1.1064e+02    5.2585e+02 ;    C32 - N31    - C33   
  4778   4781   4786      1    1.1064e+02    5.2585e+02 ;    C32 - N31    - C34   
  4778   4781   4790      1    1.1064e+02    5.2585e+02 ;    C32 - N31    - C35   
  4779   4778   4780      1    1.1074e+02    3.2669e+02 ;    H2A - C32    - H2B   
  4779   4778   4781      1    1.0791e+02    4.1020e+02 ;    H2A - C32    - N31   
  4780   4778   4781      1    1.0791e+02    4.1020e+02 ;    H2B - C32    - N31   
  4781   4782   4783      1    1.0791e+02    4.1020e+02 ;    N31 - C33    - H3A   
  4781   4782   4784      1    1.0791e+02    4.1020e+02 ;    N31 - C33    - H3B   
  4781   4782   4785      1    1.0791e+02    4.1020e+02 ;    N31 - C33    - H3C   
  4781   4786   4787      1    1.0791e+02    4.1020e+02 ;    N31 - C34    - H4A   
  4781   4786   4788      1    1.0791e+02    4.1020e+02 ;    N31 - C34    - H4B   
  4781   4786   4789      1    1.0791e+02    4.1020e+02 ;    N31 - C34    - H4C   
  4781   4790   4791      1    1.0791e+02    4.1020e+02 ;    N31 - C35    - H5A   
  4781   4790   4792      1    1.0791e+02    4.1020e+02 ;    N31 - C35    - H5B   
  4781   4790   4793      1    1.0791e+02    4.1020e+02 ;    N31 - C35    - H5C   
  4782   4781   4786      1    1.1064e+02    5.2585e+02 ;    C33 - N31    - C34   
  4782   4781   4790      1    1.1064e+02    5.2585e+02 ;    C33 - N31    - C35   
  4783   4782   4784      1    1.1074e+02    3.2669e+02 ;    H3A - C33    - H3B   
  4783   4782   4785      1    1.1074e+02    3.2669e+02 ;    H3A - C33    - H3C   
  4784   4782   4785      1    1.1074e+02    3.2669e+02 ;    H3B - C33    - H3C   
  4786   4781   4790      1    1.1064e+02    5.2585e+02 ;    C34 - N31    - C35   
  4787   4786   4788      1    1.1074e+02    3.2669e+02 ;    H4A - C34    - H4B   
  4787   4786   4789      1    1.1074e+02    3.2669e+02 ;    H4A - C34    - H4C   
  4788   4786   4789      1    1.1074e+02    3.2669e+02 ;    H4B - C34    - H4C   
  4791   4790   4792      1    1.1074e+02    3.2669e+02 ;    H5A - C35    - H5B   
  4791   4790   4793      1    1.1074e+02    3.2669e+02 ;    H5A - C35    - H5C   
  4792   4790   4793      1    1.1074e+02    3.2669e+02 ;    H5B - C35    - H5C   
  4794   4773   4795      1    1.1990e+02    1.1715e+03 ;    O33 - P31    - O34   
  4796   4797   4798      1    1.2333e+02    6.3538e+02 ;    O21 - C21    - O22   
  4796   4797   4836      1    1.1196e+02    5.7957e+02 ;    O21 - C21    - C12   
  4797   4836   4833      1    1.1053e+02    5.3379e+02 ;    C21 - C12    - C13   
  4797   4836   4837      1    1.0968e+02    3.9497e+02 ;    C21 - C12    - H2R   
  4797   4836   4838      1    1.0968e+02    3.9497e+02 ;    C21 - C12    - H2S   
  4798   4797   4836      1    1.2311e+02    5.6928e+02 ;    O22 - C21    - C12   
  4799   4800   4801      1    1.0835e+02    3.2995e+02 ;   H14T - C114   - H14R  
  4799   4800   4802      1    1.0835e+02    3.2995e+02 ;   H14T - C114   - H14S  
  4799   4800   4803      1    1.1005e+02    3.8802e+02 ;   H14T - C114   - C113  
  4800   4803   4804      1    1.1005e+02    3.8802e+02 ;   C114 - C113   - H13R  
  4800   4803   4805      1    1.1005e+02    3.8802e+02 ;   C114 - C113   - H13S  
  4800   4803   4806      1    1.1205e+02    3.9497e+02 ;   C114 - C113   - C112  
  4801   4800   4802      1    1.0835e+02    3.2995e+02 ;   H14R - C114   - H14S  
  4801   4800   4803      1    1.1005e+02    3.8802e+02 ;   H14R - C114   - C113  
  4802   4800   4803      1    1.1005e+02    3.8802e+02 ;   H14S - C114   - C113  
  4803   4806   4807      1    1.1005e+02    3.8802e+02 ;   C113 - C112   - H12R  
  4803   4806   4808      1    1.1005e+02    3.8802e+02 ;   C113 - C112   - H12S  
  4803   4806   4809      1    1.1205e+02    3.9497e+02 ;   C113 - C112   - C111  
  4804   4803   4805      1    1.0835e+02    3.2995e+02 ;   H13R - C113   - H13S  
  4804   4803   4806      1    1.1005e+02    3.8802e+02 ;   H13R - C113   - C112  
  4805   4803   4806      1    1.1005e+02    3.8802e+02 ;   H13S - C113   - C112  
  4806   4809   4810      1    1.1005e+02    3.8802e+02 ;   C112 - C111   - H11R  
  4806   4809   4811      1    1.1005e+02    3.8802e+02 ;   C112 - C111   - H11S  
  4806   4809   4812      1    1.1205e+02    3.9497e+02 ;   C112 - C111   - C110  
  4807   4806   4808      1    1.0835e+02    3.2995e+02 ;   H12R - C112   - H12S  
  4807   4806   4809      1    1.1005e+02    3.8802e+02 ;   H12R - C112   - C111  
  4808   4806   4809      1    1.1005e+02    3.8802e+02 ;   H12S - C112   - C111  
  4809   4812   4813      1    1.1005e+02    3.8802e+02 ;   C111 - C110   - H10R  
  4809   4812   4814      1    1.1005e+02    3.8802e+02 ;   C111 - C110   - H10S  
  4809   4812   4815      1    1.1205e+02    3.9497e+02 ;   C111 - C110   - C19   
  4810   4809   4811      1    1.0835e+02    3.2995e+02 ;   H11R - C111   - H11S  
  4810   4809   4812      1    1.1005e+02    3.8802e+02 ;   H11R - C111   - C110  
  4811   4809   4812      1    1.1005e+02    3.8802e+02 ;   H11S - C111   - C110  
  4812   4815   4816      1    1.1005e+02    3.8802e+02 ;   C110 - C19    - H9R   
  4812   4815   4817      1    1.1005e+02    3.8802e+02 ;   C110 - C19    - H9S   
  4812   4815   4818      1    1.1205e+02    3.9497e+02 ;   C110 - C19    - C18   
  4813   4812   4814      1    1.0835e+02    3.2995e+02 ;   H10R - C110   - H10S  
  4813   4812   4815      1    1.1005e+02    3.8802e+02 ;   H10R - C110   - C19   
  4814   4812   4815      1    1.1005e+02    3.8802e+02 ;   H10S - C110   - C19   
  4815   4818   4819      1    1.1005e+02    3.8802e+02 ;    C19 - C18    - H8R   
  4815   4818   4820      1    1.1005e+02    3.8802e+02 ;    C19 - C18    - H8S   
  4815   4818   4821      1    1.1205e+02    3.9497e+02 ;    C19 - C18    - C17   
  4816   4815   4817      1    1.0835e+02    3.2995e+02 ;    H9R - C19    - H9S   
  4816   4815   4818      1    1.1005e+02    3.8802e+02 ;    H9R - C19    - C18   
  4817   4815   4818      1    1.1005e+02    3.8802e+02 ;    H9S - C19    - C18   
  4818   4821   4822      1    1.1005e+02    3.8802e+02 ;    C18 - C17    - H7R   
  4818   4821   4823      1    1.1005e+02    3.8802e+02 ;    C18 - C17    - H7S   
  4818   4821   4824      1    1.1205e+02    3.9497e+02 ;    C18 - C17    - C16   
  4819   4818   4820      1    1.0835e+02    3.2995e+02 ;    H8R - C18    - H8S   
  4819   4818   4821      1    1.1005e+02    3.8802e+02 ;    H8R - C18    - C17   
  4820   4818   4821      1    1.1005e+02    3.8802e+02 ;    H8S - C18    - C17   
  4821   4824   4825      1    1.1005e+02    3.8802e+02 ;    C17 - C16    - H6R   
  4821   4824   4826      1    1.1005e+02    3.8802e+02 ;    C17 - C16    - H6S   
  4821   4824   4827      1    1.1205e+02    3.9497e+02 ;    C17 - C16    - C15   
  4822   4821   4823      1    1.0835e+02    3.2995e+02 ;    H7R - C17    - H7S   
  4822   4821   4824      1    1.1005e+02    3.8802e+02 ;    H7R - C17    - C16   
  4823   4821   4824      1    1.1005e+02    3.8802e+02 ;    H7S - C17    - C16   
  4824   4827   4828      1    1.1005e+02    3.8802e+02 ;    C16 - C15    - H5R   
  4824   4827   4829      1    1.1005e+02    3.8802e+02 ;    C16 - C15    - H5S   
  4824   4827   4830      1    1.1205e+02    3.9497e+02 ;    C16 - C15    - C14   
  4825   4824   4826      1    1.0835e+02    3.2995e+02 ;    H6R - C16    - H6S   
  4825   4824   4827      1    1.1005e+02    3.8802e+02 ;    H6R - C16    - C15   
  4826   4824   4827      1    1.1005e+02    3.8802e+02 ;    H6S - C16    - C15   
  4827   4830   4831      1    1.1005e+02    3.8802e+02 ;    C15 - C14    - H4R   
  4827   4830   4832      1    1.1005e+02    3.8802e+02 ;    C15 - C14    - H4S   
  4827   4830   4833      1    1.1205e+02    3.9497e+02 ;    C15 - C14    - C13   
  4828   4827   4829      1    1.0835e+02    3.2995e+02 ;    H5R - C15    - H5S   
  4828   4827   4830      1    1.1005e+02    3.8802e+02 ;    H5R - C15    - C14   
  4829   4827   4830      1    1.1005e+02    3.8802e+02 ;    H5S - C15    - C14   
  4830   4833   4834      1    1.1005e+02    3.8802e+02 ;    C14 - C13    - H3R   
  4830   4833   4835      1    1.1005e+02    3.8802e+02 ;    C14 - C13    - H3S   
  4830   4833   4836      1    1.1205e+02    3.9497e+02 ;    C14 - C13    - C12   
  4831   4830   4832      1    1.0835e+02    3.2995e+02 ;    H4R - C14    - H4S   
  4831   4830   4833      1    1.1005e+02    3.8802e+02 ;    H4R - C14    - C13   
  4832   4830   4833      1    1.1005e+02    3.8802e+02 ;    H4S - C14    - C13   
  4833   4836   4837      1    1.1005e+02    3.8802e+02 ;    C13 - C12    - H2R   
  4833   4836   4838      1    1.1005e+02    3.8802e+02 ;    C13 - C12    - H2S   
  4834   4833   4835      1    1.0835e+02    3.2995e+02 ;    H3R - C13    - H3S   
  4834   4833   4836      1    1.1005e+02    3.8802e+02 ;    H3R - C13    - C12   
  4835   4833   4836      1    1.1005e+02    3.8802e+02 ;    H3S - C13    - C12   
  4837   4836   4838      1    1.0835e+02    3.2995e+02 ;    H2R - C12    - H2S   
  4839   4840   4841      1    1.0835e+02    3.2995e+02 ;   H14T - C114   - H14R  
  4839   4840   4842      1    1.0835e+02    3.2995e+02 ;   H14T - C114   - H14S  
  4839   4840   4843      1    1.1005e+02    3.8802e+02 ;   H14T - C114   - C113  
  4840   4843   4844      1    1.1005e+02    3.8802e+02 ;   C114 - C113   - H13R  
  4840   4843   4845      1    1.1005e+02    3.8802e+02 ;   C114 - C113   - H13S  
  4840   4843   4846      1    1.1205e+02    3.9497e+02 ;   C114 - C113   - C112  
  4841   4840   4842      1    1.0835e+02    3.2995e+02 ;   H14R - C114   - H14S  
  4841   4840   4843      1    1.1005e+02    3.8802e+02 ;   H14R - C114   - C113  
  4842   4840   4843      1    1.1005e+02    3.8802e+02 ;   H14S - C114   - C113  
  4843   4846   4847      1    1.1005e+02    3.8802e+02 ;   C113 - C112   - H12R  
  4843   4846   4848      1    1.1005e+02    3.8802e+02 ;   C113 - C112   - H12S  
  4843   4846   4849      1    1.1205e+02    3.9497e+02 ;   C113 - C112   - C111  
  4844   4843   4845      1    1.0835e+02    3.2995e+02 ;   H13R - C113   - H13S  
  4844   4843   4846      1    1.1005e+02    3.8802e+02 ;   H13R - C113   - C112  
  4845   4843   4846      1    1.1005e+02    3.8802e+02 ;   H13S - C113   - C112  
  4846   4849   4850      1    1.1005e+02    3.8802e+02 ;   C112 - C111   - H11R  
  4846   4849   4851      1    1.1005e+02    3.8802e+02 ;   C112 - C111   - H11S  
  4846   4849   4852      1    1.1205e+02    3.9497e+02 ;   C112 - C111   - C110  
  4847   4846   4848      1    1.0835e+02    3.2995e+02 ;   H12R - C112   - H12S  
  4847   4846   4849      1    1.1005e+02    3.8802e+02 ;   H12R - C112   - C111  
  4848   4846   4849      1    1.1005e+02    3.8802e+02 ;   H12S - C112   - C111  
  4849   4852   4853      1    1.1005e+02    3.8802e+02 ;   C111 - C110   - H10R  
  4849   4852   4854      1    1.1005e+02    3.8802e+02 ;   C111 - C110   - H10S  
  4849   4852   4855      1    1.1205e+02    3.9497e+02 ;   C111 - C110   - C19   
  4850   4849   4851      1    1.0835e+02    3.2995e+02 ;   H11R - C111   - H11S  
  4850   4849   4852      1    1.1005e+02    3.8802e+02 ;   H11R - C111   - C110  
  4851   4849   4852      1    1.1005e+02    3.8802e+02 ;   H11S - C111   - C110  
  4852   4855   4856      1    1.1005e+02    3.8802e+02 ;   C110 - C19    - H9R   
  4852   4855   4857      1    1.1005e+02    3.8802e+02 ;   C110 - C19    - H9S   
  4852   4855   4858      1    1.1205e+02    3.9497e+02 ;   C110 - C19    - C18   
  4853   4852   4854      1    1.0835e+02    3.2995e+02 ;   H10R - C110   - H10S  
  4853   4852   4855      1    1.1005e+02    3.8802e+02 ;   H10R - C110   - C19   
  4854   4852   4855      1    1.1005e+02    3.8802e+02 ;   H10S - C110   - C19   
  4855   4858   4859      1    1.1005e+02    3.8802e+02 ;    C19 - C18    - H8R   
  4855   4858   4860      1    1.1005e+02    3.8802e+02 ;    C19 - C18    - H8S   
  4855   4858   4861      1    1.1205e+02    3.9497e+02 ;    C19 - C18    - C17   
  4856   4855   4857      1    1.0835e+02    3.2995e+02 ;    H9R - C19    - H9S   
  4856   4855   4858      1    1.1005e+02    3.8802e+02 ;    H9R - C19    - C18   
  4857   4855   4858      1    1.1005e+02    3.8802e+02 ;    H9S - C19    - C18   
  4858   4861   4862      1    1.1005e+02    3.8802e+02 ;    C18 - C17    - H7R   
  4858   4861   4863      1    1.1005e+02    3.8802e+02 ;    C18 - C17    - H7S   
  4858   4861   4864      1    1.1205e+02    3.9497e+02 ;    C18 - C17    - C16   
  4859   4858   4860      1    1.0835e+02    3.2995e+02 ;    H8R - C18    - H8S   
  4859   4858   4861      1    1.1005e+02    3.8802e+02 ;    H8R - C18    - C17   
  4860   4858   4861      1    1.1005e+02    3.8802e+02 ;    H8S - C18    - C17   
  4861   4864   4865      1    1.1005e+02    3.8802e+02 ;    C17 - C16    - H6R   
  4861   4864   4866      1    1.1005e+02    3.8802e+02 ;    C17 - C16    - H6S   
  4861   4864   4867      1    1.1205e+02    3.9497e+02 ;    C17 - C16    - C15   
  4862   4861   4863      1    1.0835e+02    3.2995e+02 ;    H7R - C17    - H7S   
  4862   4861   4864      1    1.1005e+02    3.8802e+02 ;    H7R - C17    - C16   
  4863   4861   4864      1    1.1005e+02    3.8802e+02 ;    H7S - C17    - C16   
  4864   4867   4868      1    1.1005e+02    3.8802e+02 ;    C16 - C15    - H5R   
  4864   4867   4869      1    1.1005e+02    3.8802e+02 ;    C16 - C15    - H5S   
  4864   4867   4870      1    1.1205e+02    3.9497e+02 ;    C16 - C15    - C14   
  4865   4864   4866      1    1.0835e+02    3.2995e+02 ;    H6R - C16    - H6S   
  4865   4864   4867      1    1.1005e+02    3.8802e+02 ;    H6R - C16    - C15   
  4866   4864   4867      1    1.1005e+02    3.8802e+02 ;    H6S - C16    - C15   
  4867   4870   4871      1    1.1005e+02    3.8802e+02 ;    C15 - C14    - H4R   
  4867   4870   4872      1    1.1005e+02    3.8802e+02 ;    C15 - C14    - H4S   
  4867   4870   4873      1    1.1205e+02    3.9497e+02 ;    C15 - C14    - C13   
  4868   4867   4869      1    1.0835e+02    3.2995e+02 ;    H5R - C15    - H5S   
  4868   4867   4870      1    1.1005e+02    3.8802e+02 ;    H5R - C15    - C14   
  4869   4867   4870      1    1.1005e+02    3.8802e+02 ;    H5S - C15    - C14   
  4870   4873   4874      1    1.1005e+02    3.8802e+02 ;    C14 - C13    - H3R   
  4870   4873   4875      1    1.1005e+02    3.8802e+02 ;    C14 - C13    - H3S   
  4870   4873   4876      1    1.1205e+02    3.9497e+02 ;    C14 - C13    - C12   
  4871   4870   4872      1    1.0835e+02    3.2995e+02 ;    H4R - C14    - H4S   
  4871   4870   4873      1    1.1005e+02    3.8802e+02 ;    H4R - C14    - C13   
  4872   4870   4873      1    1.1005e+02    3.8802e+02 ;    H4S - C14    - C13   
  4873   4876   4877      1    1.1005e+02    3.8802e+02 ;    C13 - C12    - H2R   
  4873   4876   4878      1    1.1005e+02    3.8802e+02 ;    C13 - C12    - H2S   
  4873   4876   4879      1    1.1053e+02    5.3379e+02 ;    C13 - C12    - C11   
  4874   4873   4875      1    1.0835e+02    3.2995e+02 ;    H3R - C13    - H3S   
  4874   4873   4876      1    1.1005e+02    3.8802e+02 ;    H3R - C13    - C12   
  4875   4873   4876      1    1.1005e+02    3.8802e+02 ;    H3S - C13    - C12   
  4876   4879   4880      1    1.2311e+02    5.6928e+02 ;    C12 - C11    - O12   
  4876   4879   4881      1    1.1196e+02    5.7957e+02 ;    C12 - C11    - O11   
  4877   4876   4878      1    1.0835e+02    3.2995e+02 ;    H2R - C12    - H2S   
  4877   4876   4879      1    1.0968e+02    3.9497e+02 ;    H2R - C12    - C11   
  4878   4876   4879      1    1.0968e+02    3.9497e+02 ;    H2S - C12    - C11   
  4879   4881   4882      1    1.1514e+02    5.3246e+02 ;    C11 - O11    - C1    
  4880   4879   4881      1    1.2333e+02    6.3538e+02 ;    O12 - C11    - O11   
  4881   4882   4883      1    1.0882e+02    4.2543e+02 ;    O11 - C1     - HR    
  4881   4882   4884      1    1.0882e+02    4.2543e+02 ;    O11 - C1     - HS    
  4881   4882   4885      1    1.0842e+02    5.6718e+02 ;    O11 - C1     - C2    
  4882   4885   4886      1    1.1007e+02    3.8794e+02 ;     C1 - C2     - HX    
  4882   4885   4887      1    1.1063e+02    5.2894e+02 ;     C1 - C2     - C3    
  4882   4885   4914      1    1.0842e+02    5.6718e+02 ;     C1 - C2     - O21   
  4883   4882   4884      1    1.0955e+02    3.2786e+02 ;     HR - C1     - HS    
  4883   4882   4885      1    1.1007e+02    3.8794e+02 ;     HR - C1     - C2    
  4884   4882   4885      1    1.1007e+02    3.8794e+02 ;     HS - C1     - C2    
  4885   4887   4888      1    1.1007e+02    3.8794e+02 ;     C2 - C3     - HA    
  4885   4887   4889      1    1.1007e+02    3.8794e+02 ;     C2 - C3     - HB    
  4885   4887   4890      1    1.0842e+02    5.6718e+02 ;     C2 - C3     - O31   
  4885   4914   4915      1    1.1514e+02    5.3246e+02 ;     C2 - O21    - C21   
  4886   4885   4887      1    1.1007e+02    3.8794e+02 ;     HX - C2     - C3    
  4886   4885   4914      1    1.0882e+02    4.2543e+02 ;     HX - C2     - O21   
  4887   4885   4914      1    1.0842e+02    5.6718e+02 ;     C3 - C2     - O21   
  4887   4890   4891      1    1.2050e+02    8.3680e+02 ;     C3 - O31    - P31   
  4888   4887   4889      1    1.0955e+02    3.2786e+02 ;     HA - C3     - HB    
  4888   4887   4890      1    1.0882e+02    4.2543e+02 ;     HA - C3     - O31   
  4889   4887   4890      1    1.0882e+02    4.2543e+02 ;     HB - C3     - O31   
  4890   4891   4892      1    1.0260e+02    7.5312e+02 ;    O31 - P31    - O32   
  4890   4891   4912      1    1.0823e+02    8.3680e+02 ;    O31 - P31    - O33   
  4890   4891   4913      1    1.0823e+02    8.3680e+02 ;    O31 - P31    - O34   
  4891   4892   4893      1    1.2050e+02    8.3680e+02 ;    P31 - O32    - C31   
  4892   4891   4912      1    1.0823e+02    8.3680e+02 ;    O32 - P31    - O33   
  4892   4891   4913      1    1.0823e+02    8.3680e+02 ;    O32 - P31    - O34   
  4892   4893   4894      1    1.0882e+02    4.2543e+02 ;    O32 - C31    - H1A   
  4892   4893   4895      1    1.0882e+02    4.2543e+02 ;    O32 - C31    - H1B   
  4892   4893   4896      1    1.0842e+02    5.6718e+02 ;    O32 - C31    - C32   
  4893   4896   4897      1    1.1174e+02    3.8510e+02 ;    C31 - C32    - H2A   
  4893   4896   4898      1    1.1174e+02    3.8510e+02 ;    C31 - C32    - H2B   
  4893   4896   4899      1    1.1432e+02    5.3932e+02 ;    C31 - C32    - N31   
  4894   4893   4895      1    1.0955e+02    3.2786e+02 ;    H1A - C31    - H1B   
  4894   4893   4896      1    1.1007e+02    3.8794e+02 ;    H1A - C31    - C32   
  4895   4893   4896      1    1.1007e+02    3.8794e+02 ;    H1B - C31    - C32   
  4896   4899   4900      1    1.1064e+02    5.2585e+02 ;    C32 - N31    - C33   
  4896   4899   4904      1    1.1064e+02    5.2585e+02 ;    C32 - N31    - C34   
  4896   4899   4908      1    1.1064e+02    5.2585e+02 ;    C32 - N31    - C35   
  4897   4896   4898      1    1.1074e+02    3.2669e+02 ;    H2A - C32    - H2B   
  4897   4896   4899      1    1.0791e+02    4.1020e+02 ;    H2A - C32    - N31   
  4898   4896   4899      1    1.0791e+02    4.1020e+02 ;    H2B - C32    - N31   
  4899   4900   4901      1    1.0791e+02    4.1020e+02 ;    N31 - C33    - H3A   
  4899   4900   4902      1    1.0791e+02    4.1020e+02 ;    N31 - C33    - H3B   
  4899   4900   4903      1    1.0791e+02    4.1020e+02 ;    N31 - C33    - H3C   
  4899   4904   4905      1    1.0791e+02    4.1020e+02 ;    N31 - C34    - H4A   
  4899   4904   4906      1    1.0791e+02    4.1020e+02 ;    N31 - C34    - H4B   
  4899   4904   4907      1    1.0791e+02    4.1020e+02 ;    N31 - C34    - H4C   
  4899   4908   4909      1    1.0791e+02    4.1020e+02 ;    N31 - C35    - H5A   
  4899   4908   4910      1    1.0791e+02    4.1020e+02 ;    N31 - C35    - H5B   
  4899   4908   4911      1    1.0791e+02    4.1020e+02 ;    N31 - C35    - H5C   
  4900   4899   4904      1    1.1064e+02    5.2585e+02 ;    C33 - N31    - C34   
  4900   4899   4908      1    1.1064e+02    5.2585e+02 ;    C33 - N31    - C35   
  4901   4900   4902      1    1.1074e+02    3.2669e+02 ;    H3A - C33    - H3B   
  4901   4900   4903      1    1.1074e+02    3.2669e+02 ;    H3A - C33    - H3C   
  4902   4900   4903      1    1.1074e+02    3.2669e+02 ;    H3B - C33    - H3C   
  4904   4899   4908      1    1.1064e+02    5.2585e+02 ;    C34 - N31    - C35   
  4905   4904   4906      1    1.1074e+02    3.2669e+02 ;    H4A - C34    - H4B   
  4905   4904   4907      1    1.1074e+02    3.2669e+02 ;    H4A - C34    - H4C   
  4906   4904   4907      1    1.1074e+02    3.2669e+02 ;    H4B - C34    - H4C   
  4909   4908   4910      1    1.1074e+02    3.2669e+02 ;    H5A - C35    - H5B   
  4909   4908   4911      1    1.1074e+02    3.2669e+02 ;    H5A - C35    - H5C   
  4910   4908   4911      1    1.1074e+02    3.2669e+02 ;    H5B - C35    - H5C   
  4912   4891   4913      1    1.1990e+02    1.1715e+03 ;    O33 - P31    - O34   
  4914   4915   4916      1    1.2333e+02    6.3538e+02 ;    O21 - C21    - O22   
  4914   4915   4954      1    1.1196e+02    5.7957e+02 ;    O21 - C21    - C12   
  4915   4954   4951      1    1.1053e+02    5.3379e+02 ;    C21 - C12    - C13   
  4915   4954   4955      1    1.0968e+02    3.9497e+02 ;    C21 - C12    - H2R   
  4915   4954   4956      1    1.0968e+02    3.9497e+02 ;    C21 - C12    - H2S   
  4916   4915   4954      1    1.2311e+02    5.6928e+02 ;    O22 - C21    - C12   
  4917   4918   4919      1    1.0835e+02    3.2995e+02 ;   H14T - C114   - H14R  
  4917   4918   4920      1    1.0835e+02    3.2995e+02 ;   H14T - C114   - H14S  
  4917   4918   4921      1    1.1005e+02    3.8802e+02 ;   H14T - C114   - C113  
  4918   4921   4922      1    1.1005e+02    3.8802e+02 ;   C114 - C113   - H13R  
  4918   4921   4923      1    1.1005e+02    3.8802e+02 ;   C114 - C113   - H13S  
  4918   4921   4924      1    1.1205e+02    3.9497e+02 ;   C114 - C113   - C112  
  4919   4918   4920      1    1.0835e+02    3.2995e+02 ;   H14R - C114   - H14S  
  4919   4918   4921      1    1.1005e+02    3.8802e+02 ;   H14R - C114   - C113  
  4920   4918   4921      1    1.1005e+02    3.8802e+02 ;   H14S - C114   - C113  
  4921   4924   4925      1    1.1005e+02    3.8802e+02 ;   C113 - C112   - H12R  
  4921   4924   4926      1    1.1005e+02    3.8802e+02 ;   C113 - C112   - H12S  
  4921   4924   4927      1    1.1205e+02    3.9497e+02 ;   C113 - C112   - C111  
  4922   4921   4923      1    1.0835e+02    3.2995e+02 ;   H13R - C113   - H13S  
  4922   4921   4924      1    1.1005e+02    3.8802e+02 ;   H13R - C113   - C112  
  4923   4921   4924      1    1.1005e+02    3.8802e+02 ;   H13S - C113   - C112  
  4924   4927   4928      1    1.1005e+02    3.8802e+02 ;   C112 - C111   - H11R  
  4924   4927   4929      1    1.1005e+02    3.8802e+02 ;   C112 - C111   - H11S  
  4924   4927   4930      1    1.1205e+02    3.9497e+02 ;   C112 - C111   - C110  
  4925   4924   4926      1    1.0835e+02    3.2995e+02 ;   H12R - C112   - H12S  
  4925   4924   4927      1    1.1005e+02    3.8802e+02 ;   H12R - C112   - C111  
  4926   4924   4927      1    1.1005e+02    3.8802e+02 ;   H12S - C112   - C111  
  4927   4930   4931      1    1.1005e+02    3.8802e+02 ;   C111 - C110   - H10R  
  4927   4930   4932      1    1.1005e+02    3.8802e+02 ;   C111 - C110   - H10S  
  4927   4930   4933      1    1.1205e+02    3.9497e+02 ;   C111 - C110   - C19   
  4928   4927   4929      1    1.0835e+02    3.2995e+02 ;   H11R - C111   - H11S  
  4928   4927   4930      1    1.1005e+02    3.8802e+02 ;   H11R - C111   - C110  
  4929   4927   4930      1    1.1005e+02    3.8802e+02 ;   H11S - C111   - C110  
  4930   4933   4934      1    1.1005e+02    3.8802e+02 ;   C110 - C19    - H9R   
  4930   4933   4935      1    1.1005e+02    3.8802e+02 ;   C110 - C19    - H9S   
  4930   4933   4936      1    1.1205e+02    3.9497e+02 ;   C110 - C19    - C18   
  4931   4930   4932      1    1.0835e+02    3.2995e+02 ;   H10R - C110   - H10S  
  4931   4930   4933      1    1.1005e+02    3.8802e+02 ;   H10R - C110   - C19   
  4932   4930   4933      1    1.1005e+02    3.8802e+02 ;   H10S - C110   - C19   
  4933   4936   4937      1    1.1005e+02    3.8802e+02 ;    C19 - C18    - H8R   
  4933   4936   4938      1    1.1005e+02    3.8802e+02 ;    C19 - C18    - H8S   
  4933   4936   4939      1    1.1205e+02    3.9497e+02 ;    C19 - C18    - C17   
  4934   4933   4935      1    1.0835e+02    3.2995e+02 ;    H9R - C19    - H9S   
  4934   4933   4936      1    1.1005e+02    3.8802e+02 ;    H9R - C19    - C18   
  4935   4933   4936      1    1.1005e+02    3.8802e+02 ;    H9S - C19    - C18   
  4936   4939   4940      1    1.1005e+02    3.8802e+02 ;    C18 - C17    - H7R   
  4936   4939   4941      1    1.1005e+02    3.8802e+02 ;    C18 - C17    - H7S   
  4936   4939   4942      1    1.1205e+02    3.9497e+02 ;    C18 - C17    - C16   
  4937   4936   4938      1    1.0835e+02    3.2995e+02 ;    H8R - C18    - H8S   
  4937   4936   4939      1    1.1005e+02    3.8802e+02 ;    H8R - C18    - C17   
  4938   4936   4939      1    1.1005e+02    3.8802e+02 ;    H8S - C18    - C17   
  4939   4942   4943      1    1.1005e+02    3.8802e+02 ;    C17 - C16    - H6R   
  4939   4942   4944      1    1.1005e+02    3.8802e+02 ;    C17 - C16    - H6S   
  4939   4942   4945      1    1.1205e+02    3.9497e+02 ;    C17 - C16    - C15   
  4940   4939   4941      1    1.0835e+02    3.2995e+02 ;    H7R - C17    - H7S   
  4940   4939   4942      1    1.1005e+02    3.8802e+02 ;    H7R - C17    - C16   
  4941   4939   4942      1    1.1005e+02    3.8802e+02 ;    H7S - C17    - C16   
  4942   4945   4946      1    1.1005e+02    3.8802e+02 ;    C16 - C15    - H5R   
  4942   4945   4947      1    1.1005e+02    3.8802e+02 ;    C16 - C15    - H5S   
  4942   4945   4948      1    1.1205e+02    3.9497e+02 ;    C16 - C15    - C14   
  4943   4942   4944      1    1.0835e+02    3.2995e+02 ;    H6R - C16    - H6S   
  4943   4942   4945      1    1.1005e+02    3.8802e+02 ;    H6R - C16    - C15   
  4944   4942   4945      1    1.1005e+02    3.8802e+02 ;    H6S - C16    - C15   
  4945   4948   4949      1    1.1005e+02    3.8802e+02 ;    C15 - C14    - H4R   
  4945   4948   4950      1    1.1005e+02    3.8802e+02 ;    C15 - C14    - H4S   
  4945   4948   4951      1    1.1205e+02    3.9497e+02 ;    C15 - C14    - C13   
  4946   4945   4947      1    1.0835e+02    3.2995e+02 ;    H5R - C15    - H5S   
  4946   4945   4948      1    1.1005e+02    3.8802e+02 ;    H5R - C15    - C14   
  4947   4945   4948      1    1.1005e+02    3.8802e+02 ;    H5S - C15    - C14   
  4948   4951   4952      1    1.1005e+02    3.8802e+02 ;    C14 - C13    - H3R   
  4948   4951   4953      1    1.1005e+02    3.8802e+02 ;    C14 - C13    - H3S   
  4948   4951   4954      1    1.1205e+02    3.9497e+02 ;    C14 - C13    - C12   
  4949   4948   4950      1    1.0835e+02    3.2995e+02 ;    H4R - C14    - H4S   
  4949   4948   4951      1    1.1005e+02    3.8802e+02 ;    H4R - C14    - C13   
  4950   4948   4951      1    1.1005e+02    3.8802e+02 ;    H4S - C14    - C13   
  4951   4954   4955      1    1.1005e+02    3.8802e+02 ;    C13 - C12    - H2R   
  4951   4954   4956      1    1.1005e+02    3.8802e+02 ;    C13 - C12    - H2S   
  4952   4951   4953      1    1.0835e+02    3.2995e+02 ;    H3R - C13    - H3S   
  4952   4951   4954      1    1.1005e+02    3.8802e+02 ;    H3R - C13    - C12   
  4953   4951   4954      1    1.1005e+02    3.8802e+02 ;    H3S - C13    - C12   
  4955   4954   4956      1    1.0835e+02    3.2995e+02 ;    H2R - C12    - H2S   
  4957   4958   4959      1    1.0835e+02    3.2995e+02 ;   H14T - C114   - H14R  
  4957   4958   4960      1    1.0835e+02    3.2995e+02 ;   H14T - C114   - H14S  
  4957   4958   4961      1    1.1005e+02    3.8802e+02 ;   H14T - C114   - C113  
  4958   4961   4962      1    1.1005e+02    3.8802e+02 ;   C114 - C113   - H13R  
  4958   4961   4963      1    1.1005e+02    3.8802e+02 ;   C114 - C113   - H13S  
  4958   4961   4964      1    1.1205e+02    3.9497e+02 ;   C114 - C113   - C112  
  4959   4958   4960      1    1.0835e+02    3.2995e+02 ;   H14R - C114   - H14S  
  4959   4958   4961      1    1.1005e+02    3.8802e+02 ;   H14R - C114   - C113  
  4960   4958   4961      1    1.1005e+02    3.8802e+02 ;   H14S - C114   - C113  
  4961   4964   4965      1    1.1005e+02    3.8802e+02 ;   C113 - C112   - H12R  
  4961   4964   4966      1    1.1005e+02    3.8802e+02 ;   C113 - C112   - H12S  
  4961   4964   4967      1    1.1205e+02    3.9497e+02 ;   C113 - C112   - C111  
  4962   4961   4963      1    1.0835e+02    3.2995e+02 ;   H13R - C113   - H13S  
  4962   4961   4964      1    1.1005e+02    3.8802e+02 ;   H13R - C113   - C112  
  4963   4961   4964      1    1.1005e+02    3.8802e+02 ;   H13S - C113   - C112  
  4964   4967   4968      1    1.1005e+02    3.8802e+02 ;   C112 - C111   - H11R  
  4964   4967   4969      1    1.1005e+02    3.8802e+02 ;   C112 - C111   - H11S  
  4964   4967   4970      1    1.1205e+02    3.9497e+02 ;   C112 - C111   - C110  
  4965   4964   4966      1    1.0835e+02    3.2995e+02 ;   H12R - C112   - H12S  
  4965   4964   4967      1    1.1005e+02    3.8802e+02 ;   H12R - C112   - C111  
  4966   4964   4967      1    1.1005e+02    3.8802e+02 ;   H12S - C112   - C111  
  4967   4970   4971      1    1.1005e+02    3.8802e+02 ;   C111 - C110   - H10R  
  4967   4970   4972      1    1.1005e+02    3.8802e+02 ;   C111 - C110   - H10S  
  4967   4970   4973      1    1.1205e+02    3.9497e+02 ;   C111 - C110   - C19   
  4968   4967   4969      1    1.0835e+02    3.2995e+02 ;   H11R - C111   - H11S  
  4968   4967   4970      1    1.1005e+02    3.8802e+02 ;   H11R - C111   - C110  
  4969   4967   4970      1    1.1005e+02    3.8802e+02 ;   H11S - C111   - C110  
  4970   4973   4974      1    1.1005e+02    3.8802e+02 ;   C110 - C19    - H9R   
  4970   4973   4975      1    1.1005e+02    3.8802e+02 ;   C110 - C19    - H9S   
  4970   4973   4976      1    1.1205e+02    3.9497e+02 ;   C110 - C19    - C18   
  4971   4970   4972      1    1.0835e+02    3.2995e+02 ;   H10R - C110   - H10S  
  4971   4970   4973      1    1.1005e+02    3.8802e+02 ;   H10R - C110   - C19   
  4972   4970   4973      1    1.1005e+02    3.8802e+02 ;   H10S - C110   - C19   
  4973   4976   4977      1    1.1005e+02    3.8802e+02 ;    C19 - C18    - H8R   
  4973   4976   4978      1    1.1005e+02    3.8802e+02 ;    C19 - C18    - H8S   
  4973   4976   4979      1    1.1205e+02    3.9497e+02 ;    C19 - C18    - C17   
  4974   4973   4975      1    1.0835e+02    3.2995e+02 ;    H9R - C19    - H9S   
  4974   4973   4976      1    1.1005e+02    3.8802e+02 ;    H9R - C19    - C18   
  4975   4973   4976      1    1.1005e+02    3.8802e+02 ;    H9S - C19    - C18   
  4976   4979   4980      1    1.1005e+02    3.8802e+02 ;    C18 - C17    - H7R   
  4976   4979   4981      1    1.1005e+02    3.8802e+02 ;    C18 - C17    - H7S   
  4976   4979   4982      1    1.1205e+02    3.9497e+02 ;    C18 - C17    - C16   
  4977   4976   4978      1    1.0835e+02    3.2995e+02 ;    H8R - C18    - H8S   
  4977   4976   4979      1    1.1005e+02    3.8802e+02 ;    H8R - C18    - C17   
  4978   4976   4979      1    1.1005e+02    3.8802e+02 ;    H8S - C18    - C17   
  4979   4982   4983      1    1.1005e+02    3.8802e+02 ;    C17 - C16    - H6R   
  4979   4982   4984      1    1.1005e+02    3.8802e+02 ;    C17 - C16    - H6S   
  4979   4982   4985      1    1.1205e+02    3.9497e+02 ;    C17 - C16    - C15   
  4980   4979   4981      1    1.0835e+02    3.2995e+02 ;    H7R - C17    - H7S   
  4980   4979   4982      1    1.1005e+02    3.8802e+02 ;    H7R - C17    - C16   
  4981   4979   4982      1    1.1005e+02    3.8802e+02 ;    H7S - C17    - C16   
  4982   4985   4986      1    1.1005e+02    3.8802e+02 ;    C16 - C15    - H5R   
  4982   4985   4987      1    1.1005e+02    3.8802e+02 ;    C16 - C15    - H5S   
  4982   4985   4988      1    1.1205e+02    3.9497e+02 ;    C16 - C15    - C14   
  4983   4982   4984      1    1.0835e+02    3.2995e+02 ;    H6R - C16    - H6S   
  4983   4982   4985      1    1.1005e+02    3.8802e+02 ;    H6R - C16    - C15   
  4984   4982   4985      1    1.1005e+02    3.8802e+02 ;    H6S - C16    - C15   
  4985   4988   4989      1    1.1005e+02    3.8802e+02 ;    C15 - C14    - H4R   
  4985   4988   4990      1    1.1005e+02    3.8802e+02 ;    C15 - C14    - H4S   
  4985   4988   4991      1    1.1205e+02    3.9497e+02 ;    C15 - C14    - C13   
  4986   4985   4987      1    1.0835e+02    3.2995e+02 ;    H5R - C15    - H5S   
  4986   4985   4988      1    1.1005e+02    3.8802e+02 ;    H5R - C15    - C14   
  4987   4985   4988      1    1.1005e+02    3.8802e+02 ;    H5S - C15    - C14   
  4988   4991   4992      1    1.1005e+02    3.8802e+02 ;    C14 - C13    - H3R   
  4988   4991   4993      1    1.1005e+02    3.8802e+02 ;    C14 - C13    - H3S   
  4988   4991   4994      1    1.1205e+02    3.9497e+02 ;    C14 - C13    - C12   
  4989   4988   4990      1    1.0835e+02    3.2995e+02 ;    H4R - C14    - H4S   
  4989   4988   4991      1    1.1005e+02    3.8802e+02 ;    H4R - C14    - C13   
  4990   4988   4991      1    1.1005e+02    3.8802e+02 ;    H4S - C14    - C13   
  4991   4994   4995      1    1.1005e+02    3.8802e+02 ;    C13 - C12    - H2R   
  4991   4994   4996      1    1.1005e+02    3.8802e+02 ;    C13 - C12    - H2S   
  4991   4994   4997      1    1.1053e+02    5.3379e+02 ;    C13 - C12    - C11   
  4992   4991   4993      1    1.0835e+02    3.2995e+02 ;    H3R - C13    - H3S   
  4992   4991   4994      1    1.1005e+02    3.8802e+02 ;    H3R - C13    - C12   
  4993   4991   4994      1    1.1005e+02    3.8802e+02 ;    H3S - C13    - C12   
  4994   4997   4998      1    1.2311e+02    5.6928e+02 ;    C12 - C11    - O12   
  4994   4997   4999      1    1.1196e+02    5.7957e+02 ;    C12 - C11    - O11   
  4995   4994   4996      1    1.0835e+02    3.2995e+02 ;    H2R - C12    - H2S   
  4995   4994   4997      1    1.0968e+02    3.9497e+02 ;    H2R - C12    - C11   
  4996   4994   4997      1    1.0968e+02    3.9497e+02 ;    H2S - C12    - C11   
  4997   4999   5000      1    1.1514e+02    5.3246e+02 ;    C11 - O11    - C1    
  4998   4997   4999      1    1.2333e+02    6.3538e+02 ;    O12 - C11    - O11   
  4999   5000   5001      1    1.0882e+02    4.2543e+02 ;    O11 - C1     - HR    
  4999   5000   5002      1    1.0882e+02    4.2543e+02 ;    O11 - C1     - HS    
  4999   5000   5003      1    1.0842e+02    5.6718e+02 ;    O11 - C1     - C2    
  5000   5003   5004      1    1.1007e+02    3.8794e+02 ;     C1 - C2     - HX    
  5000   5003   5005      1    1.1063e+02    5.2894e+02 ;     C1 - C2     - C3    
  5000   5003   5032      1    1.0842e+02    5.6718e+02 ;     C1 - C2     - O21   
  5001   5000   5002      1    1.0955e+02    3.2786e+02 ;     HR - C1     - HS    
  5001   5000   5003      1    1.1007e+02    3.8794e+02 ;     HR - C1     - C2    
  5002   5000   5003      1    1.1007e+02    3.8794e+02 ;     HS - C1     - C2    
  5003   5005   5006      1    1.1007e+02    3.8794e+02 ;     C2 - C3     - HA    
  5003   5005   5007      1    1.1007e+02    3.8794e+02 ;     C2 - C3     - HB    
  5003   5005   5008      1    1.0842e+02    5.6718e+02 ;     C2 - C3     - O31   
  5003   5032   5033      1    1.1514e+02    5.3246e+02 ;     C2 - O21    - C21   
  5004   5003   5005      1    1.1007e+02    3.8794e+02 ;     HX - C2     - C3    
  5004   5003   5032      1    1.0882e+02    4.2543e+02 ;     HX - C2     - O21   
  5005   5003   5032      1    1.0842e+02    5.6718e+02 ;     C3 - C2     - O21   
  5005   5008   5009      1    1.2050e+02    8.3680e+02 ;     C3 - O31    - P31   
  5006   5005   5007      1    1.0955e+02    3.2786e+02 ;     HA - C3     - HB    
  5006   5005   5008      1    1.0882e+02    4.2543e+02 ;     HA - C3     - O31   
  5007   5005   5008      1    1.0882e+02    4.2543e+02 ;     HB - C3     - O31   
  5008   5009   5010      1    1.0260e+02    7.5312e+02 ;    O31 - P31    - O32   
  5008   5009   5030      1    1.0823e+02    8.3680e+02 ;    O31 - P31    - O33   
  5008   5009   5031      1    1.0823e+02    8.3680e+02 ;    O31 - P31    - O34   
  5009   5010   5011      1    1.2050e+02    8.3680e+02 ;    P31 - O32    - C31   
  5010   5009   5030      1    1.0823e+02    8.3680e+02 ;    O32 - P31    - O33   
  5010   5009   5031      1    1.0823e+02    8.3680e+02 ;    O32 - P31    - O34   
  5010   5011   5012      1    1.0882e+02    4.2543e+02 ;    O32 - C31    - H1A   
  5010   5011   5013      1    1.0882e+02    4.2543e+02 ;    O32 - C31    - H1B   
  5010   5011   5014      1    1.0842e+02    5.6718e+02 ;    O32 - C31    - C32   
  5011   5014   5015      1    1.1174e+02    3.8510e+02 ;    C31 - C32    - H2A   
  5011   5014   5016      1    1.1174e+02    3.8510e+02 ;    C31 - C32    - H2B   
  5011   5014   5017      1    1.1432e+02    5.3932e+02 ;    C31 - C32    - N31   
  5012   5011   5013      1    1.0955e+02    3.2786e+02 ;    H1A - C31    - H1B   
  5012   5011   5014      1    1.1007e+02    3.8794e+02 ;    H1A - C31    - C32   
  5013   5011   5014      1    1.1007e+02    3.8794e+02 ;    H1B - C31    - C32   
  5014   5017   5018      1    1.1064e+02    5.2585e+02 ;    C32 - N31    - C33   
  5014   5017   5022      1    1.1064e+02    5.2585e+02 ;    C32 - N31    - C34   
  5014   5017   5026      1    1.1064e+02    5.2585e+02 ;    C32 - N31    - C35   
  5015   5014   5016      1    1.1074e+02    3.2669e+02 ;    H2A - C32    - H2B   
  5015   5014   5017      1    1.0791e+02    4.1020e+02 ;    H2A - C32    - N31   
  5016   5014   5017      1    1.0791e+02    4.1020e+02 ;    H2B - C32    - N31   
  5017   5018   5019      1    1.0791e+02    4.1020e+02 ;    N31 - C33    - H3A   
  5017   5018   5020      1    1.0791e+02    4.1020e+02 ;    N31 - C33    - H3B   
  5017   5018   5021      1    1.0791e+02    4.1020e+02 ;    N31 - C33    - H3C   
  5017   5022   5023      1    1.0791e+02    4.1020e+02 ;    N31 - C34    - H4A   
  5017   5022   5024      1    1.0791e+02    4.1020e+02 ;    N31 - C34    - H4B   
  5017   5022   5025      1    1.0791e+02    4.1020e+02 ;    N31 - C34    - H4C   
  5017   5026   5027      1    1.0791e+02    4.1020e+02 ;    N31 - C35    - H5A   
  5017   5026   5028      1    1.0791e+02    4.1020e+02 ;    N31 - C35    - H5B   
  5017   5026   5029      1    1.0791e+02    4.1020e+02 ;    N31 - C35    - H5C   
  5018   5017   5022      1    1.1064e+02    5.2585e+02 ;    C33 - N31    - C34   
  5018   5017   5026      1    1.1064e+02    5.2585e+02 ;    C33 - N31    - C35   
  5019   5018   5020      1    1.1074e+02    3.2669e+02 ;    H3A - C33    - H3B   
  5019   5018   5021      1    1.1074e+02    3.2669e+02 ;    H3A - C33    - H3C   
  5020   5018   5021      1    1.1074e+02    3.2669e+02 ;    H3B - C33    - H3C   
  5022   5017   5026      1    1.1064e+02    5.2585e+02 ;    C34 - N31    - C35   
  5023   5022   5024      1    1.1074e+02    3.2669e+02 ;    H4A - C34    - H4B   
  5023   5022   5025      1    1.1074e+02    3.2669e+02 ;    H4A - C34    - H4C   
  5024   5022   5025      1    1.1074e+02    3.2669e+02 ;    H4B - C34    - H4C   
  5027   5026   5028      1    1.1074e+02    3.2669e+02 ;    H5A - C35    - H5B   
  5027   5026   5029      1    1.1074e+02    3.2669e+02 ;    H5A - C35    - H5C   
  5028   5026   5029      1    1.1074e+02    3.2669e+02 ;    H5B - C35    - H5C   
  5030   5009   5031      1    1.1990e+02    1.1715e+03 ;    O33 - P31    - O34   
  5032   5033   5034      1    1.2333e+02    6.3538e+02 ;    O21 - C21    - O22   
  5032   5033   5072      1    1.1196e+02    5.7957e+02 ;    O21 - C21    - C12   
  5033   5072   5069      1    1.1053e+02    5.3379e+02 ;    C21 - C12    - C13   
  5033   5072   5073      1    1.0968e+02    3.9497e+02 ;    C21 - C12    - H2R   
  5033   5072   5074      1    1.0968e+02    3.9497e+02 ;    C21 - C12    - H2S   
  5034   5033   5072      1    1.2311e+02    5.6928e+02 ;    O22 - C21    - C12   
  5035   5036   5037      1    1.0835e+02    3.2995e+02 ;   H14T - C114   - H14R  
  5035   5036   5038      1    1.0835e+02    3.2995e+02 ;   H14T - C114   - H14S  
  5035   5036   5039      1    1.1005e+02    3.8802e+02 ;   H14T - C114   - C113  
  5036   5039   5040      1    1.1005e+02    3.8802e+02 ;   C114 - C113   - H13R  
  5036   5039   5041      1    1.1005e+02    3.8802e+02 ;   C114 - C113   - H13S  
  5036   5039   5042      1    1.1205e+02    3.9497e+02 ;   C114 - C113   - C112  
  5037   5036   5038      1    1.0835e+02    3.2995e+02 ;   H14R - C114   - H14S  
  5037   5036   5039      1    1.1005e+02    3.8802e+02 ;   H14R - C114   - C113  
  5038   5036   5039      1    1.1005e+02    3.8802e+02 ;   H14S - C114   - C113  
  5039   5042   5043      1    1.1005e+02    3.8802e+02 ;   C113 - C112   - H12R  
  5039   5042   5044      1    1.1005e+02    3.8802e+02 ;   C113 - C112   - H12S  
  5039   5042   5045      1    1.1205e+02    3.9497e+02 ;   C113 - C112   - C111  
  5040   5039   5041      1    1.0835e+02    3.2995e+02 ;   H13R - C113   - H13S  
  5040   5039   5042      1    1.1005e+02    3.8802e+02 ;   H13R - C113   - C112  
  5041   5039   5042      1    1.1005e+02    3.8802e+02 ;   H13S - C113   - C112  
  5042   5045   5046      1    1.1005e+02    3.8802e+02 ;   C112 - C111   - H11R  
  5042   5045   5047      1    1.1005e+02    3.8802e+02 ;   C112 - C111   - H11S  
  5042   5045   5048      1    1.1205e+02    3.9497e+02 ;   C112 - C111   - C110  
  5043   5042   5044      1    1.0835e+02    3.2995e+02 ;   H12R - C112   - H12S  
  5043   5042   5045      1    1.1005e+02    3.8802e+02 ;   H12R - C112   - C111  
  5044   5042   5045      1    1.1005e+02    3.8802e+02 ;   H12S - C112   - C111  
  5045   5048   5049      1    1.1005e+02    3.8802e+02 ;   C111 - C110   - H10R  
  5045   5048   5050      1    1.1005e+02    3.8802e+02 ;   C111 - C110   - H10S  
  5045   5048   5051      1    1.1205e+02    3.9497e+02 ;   C111 - C110   - C19   
  5046   5045   5047      1    1.0835e+02    3.2995e+02 ;   H11R - C111   - H11S  
  5046   5045   5048      1    1.1005e+02    3.8802e+02 ;   H11R - C111   - C110  
  5047   5045   5048      1    1.1005e+02    3.8802e+02 ;   H11S - C111   - C110  
  5048   5051   5052      1    1.1005e+02    3.8802e+02 ;   C110 - C19    - H9R   
  5048   5051   5053      1    1.1005e+02    3.8802e+02 ;   C110 - C19    - H9S   
  5048   5051   5054      1    1.1205e+02    3.9497e+02 ;   C110 - C19    - C18   
  5049   5048   5050      1    1.0835e+02    3.2995e+02 ;   H10R - C110   - H10S  
  5049   5048   5051      1    1.1005e+02    3.8802e+02 ;   H10R - C110   - C19   
  5050   5048   5051      1    1.1005e+02    3.8802e+02 ;   H10S - C110   - C19   
  5051   5054   5055      1    1.1005e+02    3.8802e+02 ;    C19 - C18    - H8R   
  5051   5054   5056      1    1.1005e+02    3.8802e+02 ;    C19 - C18    - H8S   
  5051   5054   5057      1    1.1205e+02    3.9497e+02 ;    C19 - C18    - C17   
  5052   5051   5053      1    1.0835e+02    3.2995e+02 ;    H9R - C19    - H9S   
  5052   5051   5054      1    1.1005e+02    3.8802e+02 ;    H9R - C19    - C18   
  5053   5051   5054      1    1.1005e+02    3.8802e+02 ;    H9S - C19    - C18   
  5054   5057   5058      1    1.1005e+02    3.8802e+02 ;    C18 - C17    - H7R   
  5054   5057   5059      1    1.1005e+02    3.8802e+02 ;    C18 - C17    - H7S   
  5054   5057   5060      1    1.1205e+02    3.9497e+02 ;    C18 - C17    - C16   
  5055   5054   5056      1    1.0835e+02    3.2995e+02 ;    H8R - C18    - H8S   
  5055   5054   5057      1    1.1005e+02    3.8802e+02 ;    H8R - C18    - C17   
  5056   5054   5057      1    1.1005e+02    3.8802e+02 ;    H8S - C18    - C17   
  5057   5060   5061      1    1.1005e+02    3.8802e+02 ;    C17 - C16    - H6R   
  5057   5060   5062      1    1.1005e+02    3.8802e+02 ;    C17 - C16    - H6S   
  5057   5060   5063      1    1.1205e+02    3.9497e+02 ;    C17 - C16    - C15   
  5058   5057   5059      1    1.0835e+02    3.2995e+02 ;    H7R - C17    - H7S   
  5058   5057   5060      1    1.1005e+02    3.8802e+02 ;    H7R - C17    - C16   
  5059   5057   5060      1    1.1005e+02    3.8802e+02 ;    H7S - C17    - C16   
  5060   5063   5064      1    1.1005e+02    3.8802e+02 ;    C16 - C15    - H5R   
  5060   5063   5065      1    1.1005e+02    3.8802e+02 ;    C16 - C15    - H5S   
  5060   5063   5066      1    1.1205e+02    3.9497e+02 ;    C16 - C15    - C14   
  5061   5060   5062      1    1.0835e+02    3.2995e+02 ;    H6R - C16    - H6S   
  5061   5060   5063      1    1.1005e+02    3.8802e+02 ;    H6R - C16    - C15   
  5062   5060   5063      1    1.1005e+02    3.8802e+02 ;    H6S - C16    - C15   
  5063   5066   5067      1    1.1005e+02    3.8802e+02 ;    C15 - C14    - H4R   
  5063   5066   5068      1    1.1005e+02    3.8802e+02 ;    C15 - C14    - H4S   
  5063   5066   5069      1    1.1205e+02    3.9497e+02 ;    C15 - C14    - C13   
  5064   5063   5065      1    1.0835e+02    3.2995e+02 ;    H5R - C15    - H5S   
  5064   5063   5066      1    1.1005e+02    3.8802e+02 ;    H5R - C15    - C14   
  5065   5063   5066      1    1.1005e+02    3.8802e+02 ;    H5S - C15    - C14   
  5066   5069   5070      1    1.1005e+02    3.8802e+02 ;    C14 - C13    - H3R   
  5066   5069   5071      1    1.1005e+02    3.8802e+02 ;    C14 - C13    - H3S   
  5066   5069   5072      1    1.1205e+02    3.9497e+02 ;    C14 - C13    - C12   
  5067   5066   5068      1    1.0835e+02    3.2995e+02 ;    H4R - C14    - H4S   
  5067   5066   5069      1    1.1005e+02    3.8802e+02 ;    H4R - C14    - C13   
  5068   5066   5069      1    1.1005e+02    3.8802e+02 ;    H4S - C14    - C13   
  5069   5072   5073      1    1.1005e+02    3.8802e+02 ;    C13 - C12    - H2R   
  5069   5072   5074      1    1.1005e+02    3.8802e+02 ;    C13 - C12    - H2S   
  5070   5069   5071      1    1.0835e+02    3.2995e+02 ;    H3R - C13    - H3S   
  5070   5069   5072      1    1.1005e+02    3.8802e+02 ;    H3R - C13    - C12   
  5071   5069   5072      1    1.1005e+02    3.8802e+02 ;    H3S - C13    - C12   
  5073   5072   5074      1    1.0835e+02    3.2995e+02 ;    H2R - C12    - H2S   
  5075   5076   5077      1    1.0835e+02    3.2995e+02 ;   H14T - C114   - H14R  
  5075   5076   5078      1    1.0835e+02    3.2995e+02 ;   H14T - C114   - H14S  
  5075   5076   5079      1    1.1005e+02    3.8802e+02 ;   H14T - C114   - C113  
  5076   5079   5080      1    1.1005e+02    3.8802e+02 ;   C114 - C113   - H13R  
  5076   5079   5081      1    1.1005e+02    3.8802e+02 ;   C114 - C113   - H13S  
  5076   5079   5082      1    1.1205e+02    3.9497e+02 ;   C114 - C113   - C112  
  5077   5076   5078      1    1.0835e+02    3.2995e+02 ;   H14R - C114   - H14S  
  5077   5076   5079      1    1.1005e+02    3.8802e+02 ;   H14R - C114   - C113  
  5078   5076   5079      1    1.1005e+02    3.8802e+02 ;   H14S - C114   - C113  
  5079   5082   5083      1    1.1005e+02    3.8802e+02 ;   C113 - C112   - H12R  
  5079   5082   5084      1    1.1005e+02    3.8802e+02 ;   C113 - C112   - H12S  
  5079   5082   5085      1    1.1205e+02    3.9497e+02 ;   C113 - C112   - C111  
  5080   5079   5081      1    1.0835e+02    3.2995e+02 ;   H13R - C113   - H13S  
  5080   5079   5082      1    1.1005e+02    3.8802e+02 ;   H13R - C113   - C112  
  5081   5079   5082      1    1.1005e+02    3.8802e+02 ;   H13S - C113   - C112  
  5082   5085   5086      1    1.1005e+02    3.8802e+02 ;   C112 - C111   - H11R  
  5082   5085   5087      1    1.1005e+02    3.8802e+02 ;   C112 - C111   - H11S  
  5082   5085   5088      1    1.1205e+02    3.9497e+02 ;   C112 - C111   - C110  
  5083   5082   5084      1    1.0835e+02    3.2995e+02 ;   H12R - C112   - H12S  
  5083   5082   5085      1    1.1005e+02    3.8802e+02 ;   H12R - C112   - C111  
  5084   5082   5085      1    1.1005e+02    3.8802e+02 ;   H12S - C112   - C111  
  5085   5088   5089      1    1.1005e+02    3.8802e+02 ;   C111 - C110   - H10R  
  5085   5088   5090      1    1.1005e+02    3.8802e+02 ;   C111 - C110   - H10S  
  5085   5088   5091      1    1.1205e+02    3.9497e+02 ;   C111 - C110   - C19   
  5086   5085   5087      1    1.0835e+02    3.2995e+02 ;   H11R - C111   - H11S  
  5086   5085   5088      1    1.1005e+02    3.8802e+02 ;   H11R - C111   - C110  
  5087   5085   5088      1    1.1005e+02    3.8802e+02 ;   H11S - C111   - C110  
  5088   5091   5092      1    1.1005e+02    3.8802e+02 ;   C110 - C19    - H9R   
  5088   5091   5093      1    1.1005e+02    3.8802e+02 ;   C110 - C19    - H9S   
  5088   5091   5094      1    1.1205e+02    3.9497e+02 ;   C110 - C19    - C18   
  5089   5088   5090      1    1.0835e+02    3.2995e+02 ;   H10R - C110   - H10S  
  5089   5088   5091      1    1.1005e+02    3.8802e+02 ;   H10R - C110   - C19   
  5090   5088   5091      1    1.1005e+02    3.8802e+02 ;   H10S - C110   - C19   
  5091   5094   5095      1    1.1005e+02    3.8802e+02 ;    C19 - C18    - H8R   
  5091   5094   5096      1    1.1005e+02    3.8802e+02 ;    C19 - C18    - H8S   
  5091   5094   5097      1    1.1205e+02    3.9497e+02 ;    C19 - C18    - C17   
  5092   5091   5093      1    1.0835e+02    3.2995e+02 ;    H9R - C19    - H9S   
  5092   5091   5094      1    1.1005e+02    3.8802e+02 ;    H9R - C19    - C18   
  5093   5091   5094      1    1.1005e+02    3.8802e+02 ;    H9S - C19    - C18   
  5094   5097   5098      1    1.1005e+02    3.8802e+02 ;    C18 - C17    - H7R   
  5094   5097   5099      1    1.1005e+02    3.8802e+02 ;    C18 - C17    - H7S   
  5094   5097   5100      1    1.1205e+02    3.9497e+02 ;    C18 - C17    - C16   
  5095   5094   5096      1    1.0835e+02    3.2995e+02 ;    H8R - C18    - H8S   
  5095   5094   5097      1    1.1005e+02    3.8802e+02 ;    H8R - C18    - C17   
  5096   5094   5097      1    1.1005e+02    3.8802e+02 ;    H8S - C18    - C17   
  5097   5100   5101      1    1.1005e+02    3.8802e+02 ;    C17 - C16    - H6R   
  5097   5100   5102      1    1.1005e+02    3.8802e+02 ;    C17 - C16    - H6S   
  5097   5100   5103      1    1.1205e+02    3.9497e+02 ;    C17 - C16    - C15   
  5098   5097   5099      1    1.0835e+02    3.2995e+02 ;    H7R - C17    - H7S   
  5098   5097   5100      1    1.1005e+02    3.8802e+02 ;    H7R - C17    - C16   
  5099   5097   5100      1    1.1005e+02    3.8802e+02 ;    H7S - C17    - C16   
  5100   5103   5104      1    1.1005e+02    3.8802e+02 ;    C16 - C15    - H5R   
  5100   5103   5105      1    1.1005e+02    3.8802e+02 ;    C16 - C15    - H5S   
  5100   5103   5106      1    1.1205e+02    3.9497e+02 ;    C16 - C15    - C14   
  5101   5100   5102      1    1.0835e+02    3.2995e+02 ;    H6R - C16    - H6S   
  5101   5100   5103      1    1.1005e+02    3.8802e+02 ;    H6R - C16    - C15   
  5102   5100   5103      1    1.1005e+02    3.8802e+02 ;    H6S - C16    - C15   
  5103   5106   5107      1    1.1005e+02    3.8802e+02 ;    C15 - C14    - H4R   
  5103   5106   5108      1    1.1005e+02    3.8802e+02 ;    C15 - C14    - H4S   
  5103   5106   5109      1    1.1205e+02    3.9497e+02 ;    C15 - C14    - C13   
  5104   5103   5105      1    1.0835e+02    3.2995e+02 ;    H5R - C15    - H5S   
  5104   5103   5106      1    1.1005e+02    3.8802e+02 ;    H5R - C15    - C14   
  5105   5103   5106      1    1.1005e+02    3.8802e+02 ;    H5S - C15    - C14   
  5106   5109   5110      1    1.1005e+02    3.8802e+02 ;    C14 - C13    - H3R   
  5106   5109   5111      1    1.1005e+02    3.8802e+02 ;    C14 - C13    - H3S   
  5106   5109   5112      1    1.1205e+02    3.9497e+02 ;    C14 - C13    - C12   
  5107   5106   5108      1    1.0835e+02    3.2995e+02 ;    H4R - C14    - H4S   
  5107   5106   5109      1    1.1005e+02    3.8802e+02 ;    H4R - C14    - C13   
  5108   5106   5109      1    1.1005e+02    3.8802e+02 ;    H4S - C14    - C13   
  5109   5112   5113      1    1.1005e+02    3.8802e+02 ;    C13 - C12    - H2R   
  5109   5112   5114      1    1.1005e+02    3.8802e+02 ;    C13 - C12    - H2S   
  5109   5112   5115      1    1.1053e+02    5.3379e+02 ;    C13 - C12    - C11   
  5110   5109   5111      1    1.0835e+02    3.2995e+02 ;    H3R - C13    - H3S   
  5110   5109   5112      1    1.1005e+02    3.8802e+02 ;    H3R - C13    - C12   
  5111   5109   5112      1    1.1005e+02    3.8802e+02 ;    H3S - C13    - C12   
  5112   5115   5116      1    1.2311e+02    5.6928e+02 ;    C12 - C11    - O12   
  5112   5115   5117      1    1.1196e+02    5.7957e+02 ;    C12 - C11    - O11   
  5113   5112   5114      1    1.0835e+02    3.2995e+02 ;    H2R - C12    - H2S   
  5113   5112   5115      1    1.0968e+02    3.9497e+02 ;    H2R - C12    - C11   
  5114   5112   5115      1    1.0968e+02    3.9497e+02 ;    H2S - C12    - C11   
  5115   5117   5118      1    1.1514e+02    5.3246e+02 ;    C11 - O11    - C1    
  5116   5115   5117      1    1.2333e+02    6.3538e+02 ;    O12 - C11    - O11   
  5117   5118   5119      1    1.0882e+02    4.2543e+02 ;    O11 - C1     - HR    
  5117   5118   5120      1    1.0882e+02    4.2543e+02 ;    O11 - C1     - HS    
  5117   5118   5121      1    1.0842e+02    5.6718e+02 ;    O11 - C1     - C2    
  5118   5121   5122      1    1.1007e+02    3.8794e+02 ;     C1 - C2     - HX    
  5118   5121   5123      1    1.1063e+02    5.2894e+02 ;     C1 - C2     - C3    
  5118   5121   5150      1    1.0842e+02    5.6718e+02 ;     C1 - C2     - O21   
  5119   5118   5120      1    1.0955e+02    3.2786e+02 ;     HR - C1     - HS    
  5119   5118   5121      1    1.1007e+02    3.8794e+02 ;     HR - C1     - C2    
  5120   5118   5121      1    1.1007e+02    3.8794e+02 ;     HS - C1     - C2    
  5121   5123   5124      1    1.1007e+02    3.8794e+02 ;     C2 - C3     - HA    
  5121   5123   5125      1    1.1007e+02    3.8794e+02 ;     C2 - C3     - HB    
  5121   5123   5126      1    1.0842e+02    5.6718e+02 ;     C2 - C3     - O31   
  5121   5150   5151      1    1.1514e+02    5.3246e+02 ;     C2 - O21    - C21   
  5122   5121   5123      1    1.1007e+02    3.8794e+02 ;     HX - C2     - C3    
  5122   5121   5150      1    1.0882e+02    4.2543e+02 ;     HX - C2     - O21   
  5123   5121   5150      1    1.0842e+02    5.6718e+02 ;     C3 - C2     - O21   
  5123   5126   5127      1    1.2050e+02    8.3680e+02 ;     C3 - O31    - P31   
  5124   5123   5125      1    1.0955e+02    3.2786e+02 ;     HA - C3     - HB    
  5124   5123   5126      1    1.0882e+02    4.2543e+02 ;     HA - C3     - O31   
  5125   5123   5126      1    1.0882e+02    4.2543e+02 ;     HB - C3     - O31   
  5126   5127   5128      1    1.0260e+02    7.5312e+02 ;    O31 - P31    - O32   
  5126   5127   5148      1    1.0823e+02    8.3680e+02 ;    O31 - P31    - O33   
  5126   5127   5149      1    1.0823e+02    8.3680e+02 ;    O31 - P31    - O34   
  5127   5128   5129      1    1.2050e+02    8.3680e+02 ;    P31 - O32    - C31   
  5128   5127   5148      1    1.0823e+02    8.3680e+02 ;    O32 - P31    - O33   
  5128   5127   5149      1    1.0823e+02    8.3680e+02 ;    O32 - P31    - O34   
  5128   5129   5130      1    1.0882e+02    4.2543e+02 ;    O32 - C31    - H1A   
  5128   5129   5131      1    1.0882e+02    4.2543e+02 ;    O32 - C31    - H1B   
  5128   5129   5132      1    1.0842e+02    5.6718e+02 ;    O32 - C31    - C32   
  5129   5132   5133      1    1.1174e+02    3.8510e+02 ;    C31 - C32    - H2A   
  5129   5132   5134      1    1.1174e+02    3.8510e+02 ;    C31 - C32    - H2B   
  5129   5132   5135      1    1.1432e+02    5.3932e+02 ;    C31 - C32    - N31   
  5130   5129   5131      1    1.0955e+02    3.2786e+02 ;    H1A - C31    - H1B   
  5130   5129   5132      1    1.1007e+02    3.8794e+02 ;    H1A - C31    - C32   
  5131   5129   5132      1    1.1007e+02    3.8794e+02 ;    H1B - C31    - C32   
  5132   5135   5136      1    1.1064e+02    5.2585e+02 ;    C32 - N31    - C33   
  5132   5135   5140      1    1.1064e+02    5.2585e+02 ;    C32 - N31    - C34   
  5132   5135   5144      1    1.1064e+02    5.2585e+02 ;    C32 - N31    - C35   
  5133   5132   5134      1    1.1074e+02    3.2669e+02 ;    H2A - C32    - H2B   
  5133   5132   5135      1    1.0791e+02    4.1020e+02 ;    H2A - C32    - N31   
  5134   5132   5135      1    1.0791e+02    4.1020e+02 ;    H2B - C32    - N31   
  5135   5136   5137      1    1.0791e+02    4.1020e+02 ;    N31 - C33    - H3A   
  5135   5136   5138      1    1.0791e+02    4.1020e+02 ;    N31 - C33    - H3B   
  5135   5136   5139      1    1.0791e+02    4.1020e+02 ;    N31 - C33    - H3C   
  5135   5140   5141      1    1.0791e+02    4.1020e+02 ;    N31 - C34    - H4A   
  5135   5140   5142      1    1.0791e+02    4.1020e+02 ;    N31 - C34    - H4B   
  5135   5140   5143      1    1.0791e+02    4.1020e+02 ;    N31 - C34    - H4C   
  5135   5144   5145      1    1.0791e+02    4.1020e+02 ;    N31 - C35    - H5A   
  5135   5144   5146      1    1.0791e+02    4.1020e+02 ;    N31 - C35    - H5B   
  5135   5144   5147      1    1.0791e+02    4.1020e+02 ;    N31 - C35    - H5C   
  5136   5135   5140      1    1.1064e+02    5.2585e+02 ;    C33 - N31    - C34   
  5136   5135   5144      1    1.1064e+02    5.2585e+02 ;    C33 - N31    - C35   
  5137   5136   5138      1    1.1074e+02    3.2669e+02 ;    H3A - C33    - H3B   
  5137   5136   5139      1    1.1074e+02    3.2669e+02 ;    H3A - C33    - H3C   
  5138   5136   5139      1    1.1074e+02    3.2669e+02 ;    H3B - C33    - H3C   
  5140   5135   5144      1    1.1064e+02    5.2585e+02 ;    C34 - N31    - C35   
  5141   5140   5142      1    1.1074e+02    3.2669e+02 ;    H4A - C34    - H4B   
  5141   5140   5143      1    1.1074e+02    3.2669e+02 ;    H4A - C34    - H4C   
  5142   5140   5143      1    1.1074e+02    3.2669e+02 ;    H4B - C34    - H4C   
  5145   5144   5146      1    1.1074e+02    3.2669e+02 ;    H5A - C35    - H5B   
  5145   5144   5147      1    1.1074e+02    3.2669e+02 ;    H5A - C35    - H5C   
  5146   5144   5147      1    1.1074e+02    3.2669e+02 ;    H5B - C35    - H5C   
  5148   5127   5149      1    1.1990e+02    1.1715e+03 ;    O33 - P31    - O34   
  5150   5151   5152      1    1.2333e+02    6.3538e+02 ;    O21 - C21    - O22   
  5150   5151   5190      1    1.1196e+02    5.7957e+02 ;    O21 - C21    - C12   
  5151   5190   5187      1    1.1053e+02    5.3379e+02 ;    C21 - C12    - C13   
  5151   5190   5191      1    1.0968e+02    3.9497e+02 ;    C21 - C12    - H2R   
  5151   5190   5192      1    1.0968e+02    3.9497e+02 ;    C21 - C12    - H2S   
  5152   5151   5190      1    1.2311e+02    5.6928e+02 ;    O22 - C21    - C12   
  5153   5154   5155      1    1.0835e+02    3.2995e+02 ;   H14T - C114   - H14R  
  5153   5154   5156      1    1.0835e+02    3.2995e+02 ;   H14T - C114   - H14S  
  5153   5154   5157      1    1.1005e+02    3.8802e+02 ;   H14T - C114   - C113  
  5154   5157   5158      1    1.1005e+02    3.8802e+02 ;   C114 - C113   - H13R  
  5154   5157   5159      1    1.1005e+02    3.8802e+02 ;   C114 - C113   - H13S  
  5154   5157   5160      1    1.1205e+02    3.9497e+02 ;   C114 - C113   - C112  
  5155   5154   5156      1    1.0835e+02    3.2995e+02 ;   H14R - C114   - H14S  
  5155   5154   5157      1    1.1005e+02    3.8802e+02 ;   H14R - C114   - C113  
  5156   5154   5157      1    1.1005e+02    3.8802e+02 ;   H14S - C114   - C113  
  5157   5160   5161      1    1.1005e+02    3.8802e+02 ;   C113 - C112   - H12R  
  5157   5160   5162      1    1.1005e+02    3.8802e+02 ;   C113 - C112   - H12S  
  5157   5160   5163      1    1.1205e+02    3.9497e+02 ;   C113 - C112   - C111  
  5158   5157   5159      1    1.0835e+02    3.2995e+02 ;   H13R - C113   - H13S  
  5158   5157   5160      1    1.1005e+02    3.8802e+02 ;   H13R - C113   - C112  
  5159   5157   5160      1    1.1005e+02    3.8802e+02 ;   H13S - C113   - C112  
  5160   5163   5164      1    1.1005e+02    3.8802e+02 ;   C112 - C111   - H11R  
  5160   5163   5165      1    1.1005e+02    3.8802e+02 ;   C112 - C111   - H11S  
  5160   5163   5166      1    1.1205e+02    3.9497e+02 ;   C112 - C111   - C110  
  5161   5160   5162      1    1.0835e+02    3.2995e+02 ;   H12R - C112   - H12S  
  5161   5160   5163      1    1.1005e+02    3.8802e+02 ;   H12R - C112   - C111  
  5162   5160   5163      1    1.1005e+02    3.8802e+02 ;   H12S - C112   - C111  
  5163   5166   5167      1    1.1005e+02    3.8802e+02 ;   C111 - C110   - H10R  
  5163   5166   5168      1    1.1005e+02    3.8802e+02 ;   C111 - C110   - H10S  
  5163   5166   5169      1    1.1205e+02    3.9497e+02 ;   C111 - C110   - C19   
  5164   5163   5165      1    1.0835e+02    3.2995e+02 ;   H11R - C111   - H11S  
  5164   5163   5166      1    1.1005e+02    3.8802e+02 ;   H11R - C111   - C110  
  5165   5163   5166      1    1.1005e+02    3.8802e+02 ;   H11S - C111   - C110  
  5166   5169   5170      1    1.1005e+02    3.8802e+02 ;   C110 - C19    - H9R   
  5166   5169   5171      1    1.1005e+02    3.8802e+02 ;   C110 - C19    - H9S   
  5166   5169   5172      1    1.1205e+02    3.9497e+02 ;   C110 - C19    - C18   
  5167   5166   5168      1    1.0835e+02    3.2995e+02 ;   H10R - C110   - H10S  
  5167   5166   5169      1    1.1005e+02    3.8802e+02 ;   H10R - C110   - C19   
  5168   5166   5169      1    1.1005e+02    3.8802e+02 ;   H10S - C110   - C19   
  5169   5172   5173      1    1.1005e+02    3.8802e+02 ;    C19 - C18    - H8R   
  5169   5172   5174      1    1.1005e+02    3.8802e+02 ;    C19 - C18    - H8S   
  5169   5172   5175      1    1.1205e+02    3.9497e+02 ;    C19 - C18    - C17   
  5170   5169   5171      1    1.0835e+02    3.2995e+02 ;    H9R - C19    - H9S   
  5170   5169   5172      1    1.1005e+02    3.8802e+02 ;    H9R - C19    - C18   
  5171   5169   5172      1    1.1005e+02    3.8802e+02 ;    H9S - C19    - C18   
  5172   5175   5176      1    1.1005e+02    3.8802e+02 ;    C18 - C17    - H7R   
  5172   5175   5177      1    1.1005e+02    3.8802e+02 ;    C18 - C17    - H7S   
  5172   5175   5178      1    1.1205e+02    3.9497e+02 ;    C18 - C17    - C16   
  5173   5172   5174      1    1.0835e+02    3.2995e+02 ;    H8R - C18    - H8S   
  5173   5172   5175      1    1.1005e+02    3.8802e+02 ;    H8R - C18    - C17   
  5174   5172   5175      1    1.1005e+02    3.8802e+02 ;    H8S - C18    - C17   
  5175   5178   5179      1    1.1005e+02    3.8802e+02 ;    C17 - C16    - H6R   
  5175   5178   5180      1    1.1005e+02    3.8802e+02 ;    C17 - C16    - H6S   
  5175   5178   5181      1    1.1205e+02    3.9497e+02 ;    C17 - C16    - C15   
  5176   5175   5177      1    1.0835e+02    3.2995e+02 ;    H7R - C17    - H7S   
  5176   5175   5178      1    1.1005e+02    3.8802e+02 ;    H7R - C17    - C16   
  5177   5175   5178      1    1.1005e+02    3.8802e+02 ;    H7S - C17    - C16   
  5178   5181   5182      1    1.1005e+02    3.8802e+02 ;    C16 - C15    - H5R   
  5178   5181   5183      1    1.1005e+02    3.8802e+02 ;    C16 - C15    - H5S   
  5178   5181   5184      1    1.1205e+02    3.9497e+02 ;    C16 - C15    - C14   
  5179   5178   5180      1    1.0835e+02    3.2995e+02 ;    H6R - C16    - H6S   
  5179   5178   5181      1    1.1005e+02    3.8802e+02 ;    H6R - C16    - C15   
  5180   5178   5181      1    1.1005e+02    3.8802e+02 ;    H6S - C16    - C15   
  5181   5184   5185      1    1.1005e+02    3.8802e+02 ;    C15 - C14    - H4R   
  5181   5184   5186      1    1.1005e+02    3.8802e+02 ;    C15 - C14    - H4S   
  5181   5184   5187      1    1.1205e+02    3.9497e+02 ;    C15 - C14    - C13   
  5182   5181   5183      1    1.0835e+02    3.2995e+02 ;    H5R - C15    - H5S   
  5182   5181   5184      1    1.1005e+02    3.8802e+02 ;    H5R - C15    - C14   
  5183   5181   5184      1    1.1005e+02    3.8802e+02 ;    H5S - C15    - C14   
  5184   5187   5188      1    1.1005e+02    3.8802e+02 ;    C14 - C13    - H3R   
  5184   5187   5189      1    1.1005e+02    3.8802e+02 ;    C14 - C13    - H3S   
  5184   5187   5190      1    1.1205e+02    3.9497e+02 ;    C14 - C13    - C12   
  5185   5184   5186      1    1.0835e+02    3.2995e+02 ;    H4R - C14    - H4S   
  5185   5184   5187      1    1.1005e+02    3.8802e+02 ;    H4R - C14    - C13   
  5186   5184   5187      1    1.1005e+02    3.8802e+02 ;    H4S - C14    - C13   
  5187   5190   5191      1    1.1005e+02    3.8802e+02 ;    C13 - C12    - H2R   
  5187   5190   5192      1    1.1005e+02    3.8802e+02 ;    C13 - C12    - H2S   
  5188   5187   5189      1    1.0835e+02    3.2995e+02 ;    H3R - C13    - H3S   
  5188   5187   5190      1    1.1005e+02    3.8802e+02 ;    H3R - C13    - C12   
  5189   5187   5190      1    1.1005e+02    3.8802e+02 ;    H3S - C13    - C12   
  5191   5190   5192      1    1.0835e+02    3.2995e+02 ;    H2R - C12    - H2S   
  5193   5194   5195      1    1.0835e+02    3.2995e+02 ;   H14T - C114   - H14R  
  5193   5194   5196      1    1.0835e+02    3.2995e+02 ;   H14T - C114   - H14S  
  5193   5194   5197      1    1.1005e+02    3.8802e+02 ;   H14T - C114   - C113  
  5194   5197   5198      1    1.1005e+02    3.8802e+02 ;   C114 - C113   - H13R  
  5194   5197   5199      1    1.1005e+02    3.8802e+02 ;   C114 - C113   - H13S  
  5194   5197   5200      1    1.1205e+02    3.9497e+02 ;   C114 - C113   - C112  
  5195   5194   5196      1    1.0835e+02    3.2995e+02 ;   H14R - C114   - H14S  
  5195   5194   5197      1    1.1005e+02    3.8802e+02 ;   H14R - C114   - C113  
  5196   5194   5197      1    1.1005e+02    3.8802e+02 ;   H14S - C114   - C113  
  5197   5200   5201      1    1.1005e+02    3.8802e+02 ;   C113 - C112   - H12R  
  5197   5200   5202      1    1.1005e+02    3.8802e+02 ;   C113 - C112   - H12S  
  5197   5200   5203      1    1.1205e+02    3.9497e+02 ;   C113 - C112   - C111  
  5198   5197   5199      1    1.0835e+02    3.2995e+02 ;   H13R - C113   - H13S  
  5198   5197   5200      1    1.1005e+02    3.8802e+02 ;   H13R - C113   - C112  
  5199   5197   5200      1    1.1005e+02    3.8802e+02 ;   H13S - C113   - C112  
  5200   5203   5204      1    1.1005e+02    3.8802e+02 ;   C112 - C111   - H11R  
  5200   5203   5205      1    1.1005e+02    3.8802e+02 ;   C112 - C111   - H11S  
  5200   5203   5206      1    1.1205e+02    3.9497e+02 ;   C112 - C111   - C110  
  5201   5200   5202      1    1.0835e+02    3.2995e+02 ;   H12R - C112   - H12S  
  5201   5200   5203      1    1.1005e+02    3.8802e+02 ;   H12R - C112   - C111  
  5202   5200   5203      1    1.1005e+02    3.8802e+02 ;   H12S - C112   - C111  
  5203   5206   5207      1    1.1005e+02    3.8802e+02 ;   C111 - C110   - H10R  
  5203   5206   5208      1    1.1005e+02    3.8802e+02 ;   C111 - C110   - H10S  
  5203   5206   5209      1    1.1205e+02    3.9497e+02 ;   C111 - C110   - C19   
  5204   5203   5205      1    1.0835e+02    3.2995e+02 ;   H11R - C111   - H11S  
  5204   5203   5206      1    1.1005e+02    3.8802e+02 ;   H11R - C111   - C110  
  5205   5203   5206      1    1.1005e+02    3.8802e+02 ;   H11S - C111   - C110  
  5206   5209   5210      1    1.1005e+02    3.8802e+02 ;   C110 - C19    - H9R   
  5206   5209   5211      1    1.1005e+02    3.8802e+02 ;   C110 - C19    - H9S   
  5206   5209   5212      1    1.1205e+02    3.9497e+02 ;   C110 - C19    - C18   
  5207   5206   5208      1    1.0835e+02    3.2995e+02 ;   H10R - C110   - H10S  
  5207   5206   5209      1    1.1005e+02    3.8802e+02 ;   H10R - C110   - C19   
  5208   5206   5209      1    1.1005e+02    3.8802e+02 ;   H10S - C110   - C19   
  5209   5212   5213      1    1.1005e+02    3.8802e+02 ;    C19 - C18    - H8R   
  5209   5212   5214      1    1.1005e+02    3.8802e+02 ;    C19 - C18    - H8S   
  5209   5212   5215      1    1.1205e+02    3.9497e+02 ;    C19 - C18    - C17   
  5210   5209   5211      1    1.0835e+02    3.2995e+02 ;    H9R - C19    - H9S   
  5210   5209   5212      1    1.1005e+02    3.8802e+02 ;    H9R - C19    - C18   
  5211   5209   5212      1    1.1005e+02    3.8802e+02 ;    H9S - C19    - C18   
  5212   5215   5216      1    1.1005e+02    3.8802e+02 ;    C18 - C17    - H7R   
  5212   5215   5217      1    1.1005e+02    3.8802e+02 ;    C18 - C17    - H7S   
  5212   5215   5218      1    1.1205e+02    3.9497e+02 ;    C18 - C17    - C16   
  5213   5212   5214      1    1.0835e+02    3.2995e+02 ;    H8R - C18    - H8S   
  5213   5212   5215      1    1.1005e+02    3.8802e+02 ;    H8R - C18    - C17   
  5214   5212   5215      1    1.1005e+02    3.8802e+02 ;    H8S - C18    - C17   
  5215   5218   5219      1    1.1005e+02    3.8802e+02 ;    C17 - C16    - H6R   
  5215   5218   5220      1    1.1005e+02    3.8802e+02 ;    C17 - C16    - H6S   
  5215   5218   5221      1    1.1205e+02    3.9497e+02 ;    C17 - C16    - C15   
  5216   5215   5217      1    1.0835e+02    3.2995e+02 ;    H7R - C17    - H7S   
  5216   5215   5218      1    1.1005e+02    3.8802e+02 ;    H7R - C17    - C16   
  5217   5215   5218      1    1.1005e+02    3.8802e+02 ;    H7S - C17    - C16   
  5218   5221   5222      1    1.1005e+02    3.8802e+02 ;    C16 - C15    - H5R   
  5218   5221   5223      1    1.1005e+02    3.8802e+02 ;    C16 - C15    - H5S   
  5218   5221   5224      1    1.1205e+02    3.9497e+02 ;    C16 - C15    - C14   
  5219   5218   5220      1    1.0835e+02    3.2995e+02 ;    H6R - C16    - H6S   
  5219   5218   5221      1    1.1005e+02    3.8802e+02 ;    H6R - C16    - C15   
  5220   5218   5221      1    1.1005e+02    3.8802e+02 ;    H6S - C16    - C15   
  5221   5224   5225      1    1.1005e+02    3.8802e+02 ;    C15 - C14    - H4R   
  5221   5224   5226      1    1.1005e+02    3.8802e+02 ;    C15 - C14    - H4S   
  5221   5224   5227      1    1.1205e+02    3.9497e+02 ;    C15 - C14    - C13   
  5222   5221   5223      1    1.0835e+02    3.2995e+02 ;    H5R - C15    - H5S   
  5222   5221   5224      1    1.1005e+02    3.8802e+02 ;    H5R - C15    - C14   
  5223   5221   5224      1    1.1005e+02    3.8802e+02 ;    H5S - C15    - C14   
  5224   5227   5228      1    1.1005e+02    3.8802e+02 ;    C14 - C13    - H3R   
  5224   5227   5229      1    1.1005e+02    3.8802e+02 ;    C14 - C13    - H3S   
  5224   5227   5230      1    1.1205e+02    3.9497e+02 ;    C14 - C13    - C12   
  5225   5224   5226      1    1.0835e+02    3.2995e+02 ;    H4R - C14    - H4S   
  5225   5224   5227      1    1.1005e+02    3.8802e+02 ;    H4R - C14    - C13   
  5226   5224   5227      1    1.1005e+02    3.8802e+02 ;    H4S - C14    - C13   
  5227   5230   5231      1    1.1005e+02    3.8802e+02 ;    C13 - C12    - H2R   
  5227   5230   5232      1    1.1005e+02    3.8802e+02 ;    C13 - C12    - H2S   
  5227   5230   5233      1    1.1053e+02    5.3379e+02 ;    C13 - C12    - C11   
  5228   5227   5229      1    1.0835e+02    3.2995e+02 ;    H3R - C13    - H3S   
  5228   5227   5230      1    1.1005e+02    3.8802e+02 ;    H3R - C13    - C12   
  5229   5227   5230      1    1.1005e+02    3.8802e+02 ;    H3S - C13    - C12   
  5230   5233   5234      1    1.2311e+02    5.6928e+02 ;    C12 - C11    - O12   
  5230   5233   5235      1    1.1196e+02    5.7957e+02 ;    C12 - C11    - O11   
  5231   5230   5232      1    1.0835e+02    3.2995e+02 ;    H2R - C12    - H2S   
  5231   5230   5233      1    1.0968e+02    3.9497e+02 ;    H2R - C12    - C11   
  5232   5230   5233      1    1.0968e+02    3.9497e+02 ;    H2S - C12    - C11   
  5233   5235   5236      1    1.1514e+02    5.3246e+02 ;    C11 - O11    - C1    
  5234   5233   5235      1    1.2333e+02    6.3538e+02 ;    O12 - C11    - O11   
  5235   5236   5237      1    1.0882e+02    4.2543e+02 ;    O11 - C1     - HR    
  5235   5236   5238      1    1.0882e+02    4.2543e+02 ;    O11 - C1     - HS    
  5235   5236   5239      1    1.0842e+02    5.6718e+02 ;    O11 - C1     - C2    
  5236   5239   5240      1    1.1007e+02    3.8794e+02 ;     C1 - C2     - HX    
  5236   5239   5241      1    1.1063e+02    5.2894e+02 ;     C1 - C2     - C3    
  5236   5239   5268      1    1.0842e+02    5.6718e+02 ;     C1 - C2     - O21   
  5237   5236   5238      1    1.0955e+02    3.2786e+02 ;     HR - C1     - HS    
  5237   5236   5239      1    1.1007e+02    3.8794e+02 ;     HR - C1     - C2    
  5238   5236   5239      1    1.1007e+02    3.8794e+02 ;     HS - C1     - C2    
  5239   5241   5242      1    1.1007e+02    3.8794e+02 ;     C2 - C3     - HA    
  5239   5241   5243      1    1.1007e+02    3.8794e+02 ;     C2 - C3     - HB    
  5239   5241   5244      1    1.0842e+02    5.6718e+02 ;     C2 - C3     - O31   
  5239   5268   5269      1    1.1514e+02    5.3246e+02 ;     C2 - O21    - C21   
  5240   5239   5241      1    1.1007e+02    3.8794e+02 ;     HX - C2     - C3    
  5240   5239   5268      1    1.0882e+02    4.2543e+02 ;     HX - C2     - O21   
  5241   5239   5268      1    1.0842e+02    5.6718e+02 ;     C3 - C2     - O21   
  5241   5244   5245      1    1.2050e+02    8.3680e+02 ;     C3 - O31    - P31   
  5242   5241   5243      1    1.0955e+02    3.2786e+02 ;     HA - C3     - HB    
  5242   5241   5244      1    1.0882e+02    4.2543e+02 ;     HA - C3     - O31   
  5243   5241   5244      1    1.0882e+02    4.2543e+02 ;     HB - C3     - O31   
  5244   5245   5246      1    1.0260e+02    7.5312e+02 ;    O31 - P31    - O32   
  5244   5245   5266      1    1.0823e+02    8.3680e+02 ;    O31 - P31    - O33   
  5244   5245   5267      1    1.0823e+02    8.3680e+02 ;    O31 - P31    - O34   
  5245   5246   5247      1    1.2050e+02    8.3680e+02 ;    P31 - O32    - C31   
  5246   5245   5266      1    1.0823e+02    8.3680e+02 ;    O32 - P31    - O33   
  5246   5245   5267      1    1.0823e+02    8.3680e+02 ;    O32 - P31    - O34   
  5246   5247   5248      1    1.0882e+02    4.2543e+02 ;    O32 - C31    - H1A   
  5246   5247   5249      1    1.0882e+02    4.2543e+02 ;    O32 - C31    - H1B   
  5246   5247   5250      1    1.0842e+02    5.6718e+02 ;    O32 - C31    - C32   
  5247   5250   5251      1    1.1174e+02    3.8510e+02 ;    C31 - C32    - H2A   
  5247   5250   5252      1    1.1174e+02    3.8510e+02 ;    C31 - C32    - H2B   
  5247   5250   5253      1    1.1432e+02    5.3932e+02 ;    C31 - C32    - N31   
  5248   5247   5249      1    1.0955e+02    3.2786e+02 ;    H1A - C31    - H1B   
  5248   5247   5250      1    1.1007e+02    3.8794e+02 ;    H1A - C31    - C32   
  5249   5247   5250      1    1.1007e+02    3.8794e+02 ;    H1B - C31    - C32   
  5250   5253   5254      1    1.1064e+02    5.2585e+02 ;    C32 - N31    - C33   
  5250   5253   5258      1    1.1064e+02    5.2585e+02 ;    C32 - N31    - C34   
  5250   5253   5262      1    1.1064e+02    5.2585e+02 ;    C32 - N31    - C35   
  5251   5250   5252      1    1.1074e+02    3.2669e+02 ;    H2A - C32    - H2B   
  5251   5250   5253      1    1.0791e+02    4.1020e+02 ;    H2A - C32    - N31   
  5252   5250   5253      1    1.0791e+02    4.1020e+02 ;    H2B - C32    - N31   
  5253   5254   5255      1    1.0791e+02    4.1020e+02 ;    N31 - C33    - H3A   
  5253   5254   5256      1    1.0791e+02    4.1020e+02 ;    N31 - C33    - H3B   
  5253   5254   5257      1    1.0791e+02    4.1020e+02 ;    N31 - C33    - H3C   
  5253   5258   5259      1    1.0791e+02    4.1020e+02 ;    N31 - C34    - H4A   
  5253   5258   5260      1    1.0791e+02    4.1020e+02 ;    N31 - C34    - H4B   
  5253   5258   5261      1    1.0791e+02    4.1020e+02 ;    N31 - C34    - H4C   
  5253   5262   5263      1    1.0791e+02    4.1020e+02 ;    N31 - C35    - H5A   
  5253   5262   5264      1    1.0791e+02    4.1020e+02 ;    N31 - C35    - H5B   
  5253   5262   5265      1    1.0791e+02    4.1020e+02 ;    N31 - C35    - H5C   
  5254   5253   5258      1    1.1064e+02    5.2585e+02 ;    C33 - N31    - C34   
  5254   5253   5262      1    1.1064e+02    5.2585e+02 ;    C33 - N31    - C35   
  5255   5254   5256      1    1.1074e+02    3.2669e+02 ;    H3A - C33    - H3B   
  5255   5254   5257      1    1.1074e+02    3.2669e+02 ;    H3A - C33    - H3C   
  5256   5254   5257      1    1.1074e+02    3.2669e+02 ;    H3B - C33    - H3C   
  5258   5253   5262      1    1.1064e+02    5.2585e+02 ;    C34 - N31    - C35   
  5259   5258   5260      1    1.1074e+02    3.2669e+02 ;    H4A - C34    - H4B   
  5259   5258   5261      1    1.1074e+02    3.2669e+02 ;    H4A - C34    - H4C   
  5260   5258   5261      1    1.1074e+02    3.2669e+02 ;    H4B - C34    - H4C   
  5263   5262   5264      1    1.1074e+02    3.2669e+02 ;    H5A - C35    - H5B   
  5263   5262   5265      1    1.1074e+02    3.2669e+02 ;    H5A - C35    - H5C   
  5264   5262   5265      1    1.1074e+02    3.2669e+02 ;    H5B - C35    - H5C   
  5266   5245   5267      1    1.1990e+02    1.1715e+03 ;    O33 - P31    - O34   
  5268   5269   5270      1    1.2333e+02    6.3538e+02 ;    O21 - C21    - O22   
  5268   5269   5308      1    1.1196e+02    5.7957e+02 ;    O21 - C21    - C12   
  5269   5308   5305      1    1.1053e+02    5.3379e+02 ;    C21 - C12    - C13   
  5269   5308   5309      1    1.0968e+02    3.9497e+02 ;    C21 - C12    - H2R   
  5269   5308   5310      1    1.0968e+02    3.9497e+02 ;    C21 - C12    - H2S   
  5270   5269   5308      1    1.2311e+02    5.6928e+02 ;    O22 - C21    - C12   
  5271   5272   5273      1    1.0835e+02    3.2995e+02 ;   H14T - C114   - H14R  
  5271   5272   5274      1    1.0835e+02    3.2995e+02 ;   H14T - C114   - H14S  
  5271   5272   5275      1    1.1005e+02    3.8802e+02 ;   H14T - C114   - C113  
  5272   5275   5276      1    1.1005e+02    3.8802e+02 ;   C114 - C113   - H13R  
  5272   5275   5277      1    1.1005e+02    3.8802e+02 ;   C114 - C113   - H13S  
  5272   5275   5278      1    1.1205e+02    3.9497e+02 ;   C114 - C113   - C112  
  5273   5272   5274      1    1.0835e+02    3.2995e+02 ;   H14R - C114   - H14S  
  5273   5272   5275      1    1.1005e+02    3.8802e+02 ;   H14R - C114   - C113  
  5274   5272   5275      1    1.1005e+02    3.8802e+02 ;   H14S - C114   - C113  
  5275   5278   5279      1    1.1005e+02    3.8802e+02 ;   C113 - C112   - H12R  
  5275   5278   5280      1    1.1005e+02    3.8802e+02 ;   C113 - C112   - H12S  
  5275   5278   5281      1    1.1205e+02    3.9497e+02 ;   C113 - C112   - C111  
  5276   5275   5277      1    1.0835e+02    3.2995e+02 ;   H13R - C113   - H13S  
  5276   5275   5278      1    1.1005e+02    3.8802e+02 ;   H13R - C113   - C112  
  5277   5275   5278      1    1.1005e+02    3.8802e+02 ;   H13S - C113   - C112  
  5278   5281   5282      1    1.1005e+02    3.8802e+02 ;   C112 - C111   - H11R  
  5278   5281   5283      1    1.1005e+02    3.8802e+02 ;   C112 - C111   - H11S  
  5278   5281   5284      1    1.1205e+02    3.9497e+02 ;   C112 - C111   - C110  
  5279   5278   5280      1    1.0835e+02    3.2995e+02 ;   H12R - C112   - H12S  
  5279   5278   5281      1    1.1005e+02    3.8802e+02 ;   H12R - C112   - C111  
  5280   5278   5281      1    1.1005e+02    3.8802e+02 ;   H12S - C112   - C111  
  5281   5284   5285      1    1.1005e+02    3.8802e+02 ;   C111 - C110   - H10R  
  5281   5284   5286      1    1.1005e+02    3.8802e+02 ;   C111 - C110   - H10S  
  5281   5284   5287      1    1.1205e+02    3.9497e+02 ;   C111 - C110   - C19   
  5282   5281   5283      1    1.0835e+02    3.2995e+02 ;   H11R - C111   - H11S  
  5282   5281   5284      1    1.1005e+02    3.8802e+02 ;   H11R - C111   - C110  
  5283   5281   5284      1    1.1005e+02    3.8802e+02 ;   H11S - C111   - C110  
  5284   5287   5288      1    1.1005e+02    3.8802e+02 ;   C110 - C19    - H9R   
  5284   5287   5289      1    1.1005e+02    3.8802e+02 ;   C110 - C19    - H9S   
  5284   5287   5290      1    1.1205e+02    3.9497e+02 ;   C110 - C19    - C18   
  5285   5284   5286      1    1.0835e+02    3.2995e+02 ;   H10R - C110   - H10S  
  5285   5284   5287      1    1.1005e+02    3.8802e+02 ;   H10R - C110   - C19   
  5286   5284   5287      1    1.1005e+02    3.8802e+02 ;   H10S - C110   - C19   
  5287   5290   5291      1    1.1005e+02    3.8802e+02 ;    C19 - C18    - H8R   
  5287   5290   5292      1    1.1005e+02    3.8802e+02 ;    C19 - C18    - H8S   
  5287   5290   5293      1    1.1205e+02    3.9497e+02 ;    C19 - C18    - C17   
  5288   5287   5289      1    1.0835e+02    3.2995e+02 ;    H9R - C19    - H9S   
  5288   5287   5290      1    1.1005e+02    3.8802e+02 ;    H9R - C19    - C18   
  5289   5287   5290      1    1.1005e+02    3.8802e+02 ;    H9S - C19    - C18   
  5290   5293   5294      1    1.1005e+02    3.8802e+02 ;    C18 - C17    - H7R   
  5290   5293   5295      1    1.1005e+02    3.8802e+02 ;    C18 - C17    - H7S   
  5290   5293   5296      1    1.1205e+02    3.9497e+02 ;    C18 - C17    - C16   
  5291   5290   5292      1    1.0835e+02    3.2995e+02 ;    H8R - C18    - H8S   
  5291   5290   5293      1    1.1005e+02    3.8802e+02 ;    H8R - C18    - C17   
  5292   5290   5293      1    1.1005e+02    3.8802e+02 ;    H8S - C18    - C17   
  5293   5296   5297      1    1.1005e+02    3.8802e+02 ;    C17 - C16    - H6R   
  5293   5296   5298      1    1.1005e+02    3.8802e+02 ;    C17 - C16    - H6S   
  5293   5296   5299      1    1.1205e+02    3.9497e+02 ;    C17 - C16    - C15   
  5294   5293   5295      1    1.0835e+02    3.2995e+02 ;    H7R - C17    - H7S   
  5294   5293   5296      1    1.1005e+02    3.8802e+02 ;    H7R - C17    - C16   
  5295   5293   5296      1    1.1005e+02    3.8802e+02 ;    H7S - C17    - C16   
  5296   5299   5300      1    1.1005e+02    3.8802e+02 ;    C16 - C15    - H5R   
  5296   5299   5301      1    1.1005e+02    3.8802e+02 ;    C16 - C15    - H5S   
  5296   5299   5302      1    1.1205e+02    3.9497e+02 ;    C16 - C15    - C14   
  5297   5296   5298      1    1.0835e+02    3.2995e+02 ;    H6R - C16    - H6S   
  5297   5296   5299      1    1.1005e+02    3.8802e+02 ;    H6R - C16    - C15   
  5298   5296   5299      1    1.1005e+02    3.8802e+02 ;    H6S - C16    - C15   
  5299   5302   5303      1    1.1005e+02    3.8802e+02 ;    C15 - C14    - H4R   
  5299   5302   5304      1    1.1005e+02    3.8802e+02 ;    C15 - C14    - H4S   
  5299   5302   5305      1    1.1205e+02    3.9497e+02 ;    C15 - C14    - C13   
  5300   5299   5301      1    1.0835e+02    3.2995e+02 ;    H5R - C15    - H5S   
  5300   5299   5302      1    1.1005e+02    3.8802e+02 ;    H5R - C15    - C14   
  5301   5299   5302      1    1.1005e+02    3.8802e+02 ;    H5S - C15    - C14   
  5302   5305   5306      1    1.1005e+02    3.8802e+02 ;    C14 - C13    - H3R   
  5302   5305   5307      1    1.1005e+02    3.8802e+02 ;    C14 - C13    - H3S   
  5302   5305   5308      1    1.1205e+02    3.9497e+02 ;    C14 - C13    - C12   
  5303   5302   5304      1    1.0835e+02    3.2995e+02 ;    H4R - C14    - H4S   
  5303   5302   5305      1    1.1005e+02    3.8802e+02 ;    H4R - C14    - C13   
  5304   5302   5305      1    1.1005e+02    3.8802e+02 ;    H4S - C14    - C13   
  5305   5308   5309      1    1.1005e+02    3.8802e+02 ;    C13 - C12    - H2R   
  5305   5308   5310      1    1.1005e+02    3.8802e+02 ;    C13 - C12    - H2S   
  5306   5305   5307      1    1.0835e+02    3.2995e+02 ;    H3R - C13    - H3S   
  5306   5305   5308      1    1.1005e+02    3.8802e+02 ;    H3R - C13    - C12   
  5307   5305   5308      1    1.1005e+02    3.8802e+02 ;    H3S - C13    - C12   
  5309   5308   5310      1    1.0835e+02    3.2995e+02 ;    H2R - C12    - H2S   
  5311   5312   5313      1    1.0835e+02    3.2995e+02 ;   H14T - C114   - H14R  
  5311   5312   5314      1    1.0835e+02    3.2995e+02 ;   H14T - C114   - H14S  
  5311   5312   5315      1    1.1005e+02    3.8802e+02 ;   H14T - C114   - C113  
  5312   5315   5316      1    1.1005e+02    3.8802e+02 ;   C114 - C113   - H13R  
  5312   5315   5317      1    1.1005e+02    3.8802e+02 ;   C114 - C113   - H13S  
  5312   5315   5318      1    1.1205e+02    3.9497e+02 ;   C114 - C113   - C112  
  5313   5312   5314      1    1.0835e+02    3.2995e+02 ;   H14R - C114   - H14S  
  5313   5312   5315      1    1.1005e+02    3.8802e+02 ;   H14R - C114   - C113  
  5314   5312   5315      1    1.1005e+02    3.8802e+02 ;   H14S - C114   - C113  
  5315   5318   5319      1    1.1005e+02    3.8802e+02 ;   C113 - C112   - H12R  
  5315   5318   5320      1    1.1005e+02    3.8802e+02 ;   C113 - C112   - H12S  
  5315   5318   5321      1    1.1205e+02    3.9497e+02 ;   C113 - C112   - C111  
  5316   5315   5317      1    1.0835e+02    3.2995e+02 ;   H13R - C113   - H13S  
  5316   5315   5318      1    1.1005e+02    3.8802e+02 ;   H13R - C113   - C112  
  5317   5315   5318      1    1.1005e+02    3.8802e+02 ;   H13S - C113   - C112  
  5318   5321   5322      1    1.1005e+02    3.8802e+02 ;   C112 - C111   - H11R  
  5318   5321   5323      1    1.1005e+02    3.8802e+02 ;   C112 - C111   - H11S  
  5318   5321   5324      1    1.1205e+02    3.9497e+02 ;   C112 - C111   - C110  
  5319   5318   5320      1    1.0835e+02    3.2995e+02 ;   H12R - C112   - H12S  
  5319   5318   5321      1    1.1005e+02    3.8802e+02 ;   H12R - C112   - C111  
  5320   5318   5321      1    1.1005e+02    3.8802e+02 ;   H12S - C112   - C111  
  5321   5324   5325      1    1.1005e+02    3.8802e+02 ;   C111 - C110   - H10R  
  5321   5324   5326      1    1.1005e+02    3.8802e+02 ;   C111 - C110   - H10S  
  5321   5324   5327      1    1.1205e+02    3.9497e+02 ;   C111 - C110   - C19   
  5322   5321   5323      1    1.0835e+02    3.2995e+02 ;   H11R - C111   - H11S  
  5322   5321   5324      1    1.1005e+02    3.8802e+02 ;   H11R - C111   - C110  
  5323   5321   5324      1    1.1005e+02    3.8802e+02 ;   H11S - C111   - C110  
  5324   5327   5328      1    1.1005e+02    3.8802e+02 ;   C110 - C19    - H9R   
  5324   5327   5329      1    1.1005e+02    3.8802e+02 ;   C110 - C19    - H9S   
  5324   5327   5330      1    1.1205e+02    3.9497e+02 ;   C110 - C19    - C18   
  5325   5324   5326      1    1.0835e+02    3.2995e+02 ;   H10R - C110   - H10S  
  5325   5324   5327      1    1.1005e+02    3.8802e+02 ;   H10R - C110   - C19   
  5326   5324   5327      1    1.1005e+02    3.8802e+02 ;   H10S - C110   - C19   
  5327   5330   5331      1    1.1005e+02    3.8802e+02 ;    C19 - C18    - H8R   
  5327   5330   5332      1    1.1005e+02    3.8802e+02 ;    C19 - C18    - H8S   
  5327   5330   5333      1    1.1205e+02    3.9497e+02 ;    C19 - C18    - C17   
  5328   5327   5329      1    1.0835e+02    3.2995e+02 ;    H9R - C19    - H9S   
  5328   5327   5330      1    1.1005e+02    3.8802e+02 ;    H9R - C19    - C18   
  5329   5327   5330      1    1.1005e+02    3.8802e+02 ;    H9S - C19    - C18   
  5330   5333   5334      1    1.1005e+02    3.8802e+02 ;    C18 - C17    - H7R   
  5330   5333   5335      1    1.1005e+02    3.8802e+02 ;    C18 - C17    - H7S   
  5330   5333   5336      1    1.1205e+02    3.9497e+02 ;    C18 - C17    - C16   
  5331   5330   5332      1    1.0835e+02    3.2995e+02 ;    H8R - C18    - H8S   
  5331   5330   5333      1    1.1005e+02    3.8802e+02 ;    H8R - C18    - C17   
  5332   5330   5333      1    1.1005e+02    3.8802e+02 ;    H8S - C18    - C17   
  5333   5336   5337      1    1.1005e+02    3.8802e+02 ;    C17 - C16    - H6R   
  5333   5336   5338      1    1.1005e+02    3.8802e+02 ;    C17 - C16    - H6S   
  5333   5336   5339      1    1.1205e+02    3.9497e+02 ;    C17 - C16    - C15   
  5334   5333   5335      1    1.0835e+02    3.2995e+02 ;    H7R - C17    - H7S   
  5334   5333   5336      1    1.1005e+02    3.8802e+02 ;    H7R - C17    - C16   
  5335   5333   5336      1    1.1005e+02    3.8802e+02 ;    H7S - C17    - C16   
  5336   5339   5340      1    1.1005e+02    3.8802e+02 ;    C16 - C15    - H5R   
  5336   5339   5341      1    1.1005e+02    3.8802e+02 ;    C16 - C15    - H5S   
  5336   5339   5342      1    1.1205e+02    3.9497e+02 ;    C16 - C15    - C14   
  5337   5336   5338      1    1.0835e+02    3.2995e+02 ;    H6R - C16    - H6S   
  5337   5336   5339      1    1.1005e+02    3.8802e+02 ;    H6R - C16    - C15   
  5338   5336   5339      1    1.1005e+02    3.8802e+02 ;    H6S - C16    - C15   
  5339   5342   5343      1    1.1005e+02    3.8802e+02 ;    C15 - C14    - H4R   
  5339   5342   5344      1    1.1005e+02    3.8802e+02 ;    C15 - C14    - H4S   
  5339   5342   5345      1    1.1205e+02    3.9497e+02 ;    C15 - C14    - C13   
  5340   5339   5341      1    1.0835e+02    3.2995e+02 ;    H5R - C15    - H5S   
  5340   5339   5342      1    1.1005e+02    3.8802e+02 ;    H5R - C15    - C14   
  5341   5339   5342      1    1.1005e+02    3.8802e+02 ;    H5S - C15    - C14   
  5342   5345   5346      1    1.1005e+02    3.8802e+02 ;    C14 - C13    - H3R   
  5342   5345   5347      1    1.1005e+02    3.8802e+02 ;    C14 - C13    - H3S   
  5342   5345   5348      1    1.1205e+02    3.9497e+02 ;    C14 - C13    - C12   
  5343   5342   5344      1    1.0835e+02    3.2995e+02 ;    H4R - C14    - H4S   
  5343   5342   5345      1    1.1005e+02    3.8802e+02 ;    H4R - C14    - C13   
  5344   5342   5345      1    1.1005e+02    3.8802e+02 ;    H4S - C14    - C13   
  5345   5348   5349      1    1.1005e+02    3.8802e+02 ;    C13 - C12    - H2R   
  5345   5348   5350      1    1.1005e+02    3.8802e+02 ;    C13 - C12    - H2S   
  5345   5348   5351      1    1.1053e+02    5.3379e+02 ;    C13 - C12    - C11   
  5346   5345   5347      1    1.0835e+02    3.2995e+02 ;    H3R - C13    - H3S   
  5346   5345   5348      1    1.1005e+02    3.8802e+02 ;    H3R - C13    - C12   
  5347   5345   5348      1    1.1005e+02    3.8802e+02 ;    H3S - C13    - C12   
  5348   5351   5352      1    1.2311e+02    5.6928e+02 ;    C12 - C11    - O12   
  5348   5351   5353      1    1.1196e+02    5.7957e+02 ;    C12 - C11    - O11   
  5349   5348   5350      1    1.0835e+02    3.2995e+02 ;    H2R - C12    - H2S   
  5349   5348   5351      1    1.0968e+02    3.9497e+02 ;    H2R - C12    - C11   
  5350   5348   5351      1    1.0968e+02    3.9497e+02 ;    H2S - C12    - C11   
  5351   5353   5354      1    1.1514e+02    5.3246e+02 ;    C11 - O11    - C1    
  5352   5351   5353      1    1.2333e+02    6.3538e+02 ;    O12 - C11    - O11   
  5353   5354   5355      1    1.0882e+02    4.2543e+02 ;    O11 - C1     - HR    
  5353   5354   5356      1    1.0882e+02    4.2543e+02 ;    O11 - C1     - HS    
  5353   5354   5357      1    1.0842e+02    5.6718e+02 ;    O11 - C1     - C2    
  5354   5357   5358      1    1.1007e+02    3.8794e+02 ;     C1 - C2     - HX    
  5354   5357   5359      1    1.1063e+02    5.2894e+02 ;     C1 - C2     - C3    
  5354   5357   5386      1    1.0842e+02    5.6718e+02 ;     C1 - C2     - O21   
  5355   5354   5356      1    1.0955e+02    3.2786e+02 ;     HR - C1     - HS    
  5355   5354   5357      1    1.1007e+02    3.8794e+02 ;     HR - C1     - C2    
  5356   5354   5357      1    1.1007e+02    3.8794e+02 ;     HS - C1     - C2    
  5357   5359   5360      1    1.1007e+02    3.8794e+02 ;     C2 - C3     - HA    
  5357   5359   5361      1    1.1007e+02    3.8794e+02 ;     C2 - C3     - HB    
  5357   5359   5362      1    1.0842e+02    5.6718e+02 ;     C2 - C3     - O31   
  5357   5386   5387      1    1.1514e+02    5.3246e+02 ;     C2 - O21    - C21   
  5358   5357   5359      1    1.1007e+02    3.8794e+02 ;     HX - C2     - C3    
  5358   5357   5386      1    1.0882e+02    4.2543e+02 ;     HX - C2     - O21   
  5359   5357   5386      1    1.0842e+02    5.6718e+02 ;     C3 - C2     - O21   
  5359   5362   5363      1    1.2050e+02    8.3680e+02 ;     C3 - O31    - P31   
  5360   5359   5361      1    1.0955e+02    3.2786e+02 ;     HA - C3     - HB    
  5360   5359   5362      1    1.0882e+02    4.2543e+02 ;     HA - C3     - O31   
  5361   5359   5362      1    1.0882e+02    4.2543e+02 ;     HB - C3     - O31   
  5362   5363   5364      1    1.0260e+02    7.5312e+02 ;    O31 - P31    - O32   
  5362   5363   5384      1    1.0823e+02    8.3680e+02 ;    O31 - P31    - O33   
  5362   5363   5385      1    1.0823e+02    8.3680e+02 ;    O31 - P31    - O34   
  5363   5364   5365      1    1.2050e+02    8.3680e+02 ;    P31 - O32    - C31   
  5364   5363   5384      1    1.0823e+02    8.3680e+02 ;    O32 - P31    - O33   
  5364   5363   5385      1    1.0823e+02    8.3680e+02 ;    O32 - P31    - O34   
  5364   5365   5366      1    1.0882e+02    4.2543e+02 ;    O32 - C31    - H1A   
  5364   5365   5367      1    1.0882e+02    4.2543e+02 ;    O32 - C31    - H1B   
  5364   5365   5368      1    1.0842e+02    5.6718e+02 ;    O32 - C31    - C32   
  5365   5368   5369      1    1.1174e+02    3.8510e+02 ;    C31 - C32    - H2A   
  5365   5368   5370      1    1.1174e+02    3.8510e+02 ;    C31 - C32    - H2B   
  5365   5368   5371      1    1.1432e+02    5.3932e+02 ;    C31 - C32    - N31   
  5366   5365   5367      1    1.0955e+02    3.2786e+02 ;    H1A - C31    - H1B   
  5366   5365   5368      1    1.1007e+02    3.8794e+02 ;    H1A - C31    - C32   
  5367   5365   5368      1    1.1007e+02    3.8794e+02 ;    H1B - C31    - C32   
  5368   5371   5372      1    1.1064e+02    5.2585e+02 ;    C32 - N31    - C33   
  5368   5371   5376      1    1.1064e+02    5.2585e+02 ;    C32 - N31    - C34   
  5368   5371   5380      1    1.1064e+02    5.2585e+02 ;    C32 - N31    - C35   
  5369   5368   5370      1    1.1074e+02    3.2669e+02 ;    H2A - C32    - H2B   
  5369   5368   5371      1    1.0791e+02    4.1020e+02 ;    H2A - C32    - N31   
  5370   5368   5371      1    1.0791e+02    4.1020e+02 ;    H2B - C32    - N31   
  5371   5372   5373      1    1.0791e+02    4.1020e+02 ;    N31 - C33    - H3A   
  5371   5372   5374      1    1.0791e+02    4.1020e+02 ;    N31 - C33    - H3B   
  5371   5372   5375      1    1.0791e+02    4.1020e+02 ;    N31 - C33    - H3C   
  5371   5376   5377      1    1.0791e+02    4.1020e+02 ;    N31 - C34    - H4A   
  5371   5376   5378      1    1.0791e+02    4.1020e+02 ;    N31 - C34    - H4B   
  5371   5376   5379      1    1.0791e+02    4.1020e+02 ;    N31 - C34    - H4C   
  5371   5380   5381      1    1.0791e+02    4.1020e+02 ;    N31 - C35    - H5A   
  5371   5380   5382      1    1.0791e+02    4.1020e+02 ;    N31 - C35    - H5B   
  5371   5380   5383      1    1.0791e+02    4.1020e+02 ;    N31 - C35    - H5C   
  5372   5371   5376      1    1.1064e+02    5.2585e+02 ;    C33 - N31    - C34   
  5372   5371   5380      1    1.1064e+02    5.2585e+02 ;    C33 - N31    - C35   
  5373   5372   5374      1    1.1074e+02    3.2669e+02 ;    H3A - C33    - H3B   
  5373   5372   5375      1    1.1074e+02    3.2669e+02 ;    H3A - C33    - H3C   
  5374   5372   5375      1    1.1074e+02    3.2669e+02 ;    H3B - C33    - H3C   
  5376   5371   5380      1    1.1064e+02    5.2585e+02 ;    C34 - N31    - C35   
  5377   5376   5378      1    1.1074e+02    3.2669e+02 ;    H4A - C34    - H4B   
  5377   5376   5379      1    1.1074e+02    3.2669e+02 ;    H4A - C34    - H4C   
  5378   5376   5379      1    1.1074e+02    3.2669e+02 ;    H4B - C34    - H4C   
  5381   5380   5382      1    1.1074e+02    3.2669e+02 ;    H5A - C35    - H5B   
  5381   5380   5383      1    1.1074e+02    3.2669e+02 ;    H5A - C35    - H5C   
  5382   5380   5383      1    1.1074e+02    3.2669e+02 ;    H5B - C35    - H5C   
  5384   5363   5385      1    1.1990e+02    1.1715e+03 ;    O33 - P31    - O34   
  5386   5387   5388      1    1.2333e+02    6.3538e+02 ;    O21 - C21    - O22   
  5386   5387   5426      1    1.1196e+02    5.7957e+02 ;    O21 - C21    - C12   
  5387   5426   5423      1    1.1053e+02    5.3379e+02 ;    C21 - C12    - C13   
  5387   5426   5427      1    1.0968e+02    3.9497e+02 ;    C21 - C12    - H2R   
  5387   5426   5428      1    1.0968e+02    3.9497e+02 ;    C21 - C12    - H2S   
  5388   5387   5426      1    1.2311e+02    5.6928e+02 ;    O22 - C21    - C12   
  5389   5390   5391      1    1.0835e+02    3.2995e+02 ;   H14T - C114   - H14R  
  5389   5390   5392      1    1.0835e+02    3.2995e+02 ;   H14T - C114   - H14S  
  5389   5390   5393      1    1.1005e+02    3.8802e+02 ;   H14T - C114   - C113  
  5390   5393   5394      1    1.1005e+02    3.8802e+02 ;   C114 - C113   - H13R  
  5390   5393   5395      1    1.1005e+02    3.8802e+02 ;   C114 - C113   - H13S  
  5390   5393   5396      1    1.1205e+02    3.9497e+02 ;   C114 - C113   - C112  
  5391   5390   5392      1    1.0835e+02    3.2995e+02 ;   H14R - C114   - H14S  
  5391   5390   5393      1    1.1005e+02    3.8802e+02 ;   H14R - C114   - C113  
  5392   5390   5393      1    1.1005e+02    3.8802e+02 ;   H14S - C114   - C113  
  5393   5396   5397      1    1.1005e+02    3.8802e+02 ;   C113 - C112   - H12R  
  5393   5396   5398      1    1.1005e+02    3.8802e+02 ;   C113 - C112   - H12S  
  5393   5396   5399      1    1.1205e+02    3.9497e+02 ;   C113 - C112   - C111  
  5394   5393   5395      1    1.0835e+02    3.2995e+02 ;   H13R - C113   - H13S  
  5394   5393   5396      1    1.1005e+02    3.8802e+02 ;   H13R - C113   - C112  
  5395   5393   5396      1    1.1005e+02    3.8802e+02 ;   H13S - C113   - C112  
  5396   5399   5400      1    1.1005e+02    3.8802e+02 ;   C112 - C111   - H11R  
  5396   5399   5401      1    1.1005e+02    3.8802e+02 ;   C112 - C111   - H11S  
  5396   5399   5402      1    1.1205e+02    3.9497e+02 ;   C112 - C111   - C110  
  5397   5396   5398      1    1.0835e+02    3.2995e+02 ;   H12R - C112   - H12S  
  5397   5396   5399      1    1.1005e+02    3.8802e+02 ;   H12R - C112   - C111  
  5398   5396   5399      1    1.1005e+02    3.8802e+02 ;   H12S - C112   - C111  
  5399   5402   5403      1    1.1005e+02    3.8802e+02 ;   C111 - C110   - H10R  
  5399   5402   5404      1    1.1005e+02    3.8802e+02 ;   C111 - C110   - H10S  
  5399   5402   5405      1    1.1205e+02    3.9497e+02 ;   C111 - C110   - C19   
  5400   5399   5401      1    1.0835e+02    3.2995e+02 ;   H11R - C111   - H11S  
  5400   5399   5402      1    1.1005e+02    3.8802e+02 ;   H11R - C111   - C110  
  5401   5399   5402      1    1.1005e+02    3.8802e+02 ;   H11S - C111   - C110  
  5402   5405   5406      1    1.1005e+02    3.8802e+02 ;   C110 - C19    - H9R   
  5402   5405   5407      1    1.1005e+02    3.8802e+02 ;   C110 - C19    - H9S   
  5402   5405   5408      1    1.1205e+02    3.9497e+02 ;   C110 - C19    - C18   
  5403   5402   5404      1    1.0835e+02    3.2995e+02 ;   H10R - C110   - H10S  
  5403   5402   5405      1    1.1005e+02    3.8802e+02 ;   H10R - C110   - C19   
  5404   5402   5405      1    1.1005e+02    3.8802e+02 ;   H10S - C110   - C19   
  5405   5408   5409      1    1.1005e+02    3.8802e+02 ;    C19 - C18    - H8R   
  5405   5408   5410      1    1.1005e+02    3.8802e+02 ;    C19 - C18    - H8S   
  5405   5408   5411      1    1.1205e+02    3.9497e+02 ;    C19 - C18    - C17   
  5406   5405   5407      1    1.0835e+02    3.2995e+02 ;    H9R - C19    - H9S   
  5406   5405   5408      1    1.1005e+02    3.8802e+02 ;    H9R - C19    - C18   
  5407   5405   5408      1    1.1005e+02    3.8802e+02 ;    H9S - C19    - C18   
  5408   5411   5412      1    1.1005e+02    3.8802e+02 ;    C18 - C17    - H7R   
  5408   5411   5413      1    1.1005e+02    3.8802e+02 ;    C18 - C17    - H7S   
  5408   5411   5414      1    1.1205e+02    3.9497e+02 ;    C18 - C17    - C16   
  5409   5408   5410      1    1.0835e+02    3.2995e+02 ;    H8R - C18    - H8S   
  5409   5408   5411      1    1.1005e+02    3.8802e+02 ;    H8R - C18    - C17   
  5410   5408   5411      1    1.1005e+02    3.8802e+02 ;    H8S - C18    - C17   
  5411   5414   5415      1    1.1005e+02    3.8802e+02 ;    C17 - C16    - H6R   
  5411   5414   5416      1    1.1005e+02    3.8802e+02 ;    C17 - C16    - H6S   
  5411   5414   5417      1    1.1205e+02    3.9497e+02 ;    C17 - C16    - C15   
  5412   5411   5413      1    1.0835e+02    3.2995e+02 ;    H7R - C17    - H7S   
  5412   5411   5414      1    1.1005e+02    3.8802e+02 ;    H7R - C17    - C16   
  5413   5411   5414      1    1.1005e+02    3.8802e+02 ;    H7S - C17    - C16   
  5414   5417   5418      1    1.1005e+02    3.8802e+02 ;    C16 - C15    - H5R   
  5414   5417   5419      1    1.1005e+02    3.8802e+02 ;    C16 - C15    - H5S   
  5414   5417   5420      1    1.1205e+02    3.9497e+02 ;    C16 - C15    - C14   
  5415   5414   5416      1    1.0835e+02    3.2995e+02 ;    H6R - C16    - H6S   
  5415   5414   5417      1    1.1005e+02    3.8802e+02 ;    H6R - C16    - C15   
  5416   5414   5417      1    1.1005e+02    3.8802e+02 ;    H6S - C16    - C15   
  5417   5420   5421      1    1.1005e+02    3.8802e+02 ;    C15 - C14    - H4R   
  5417   5420   5422      1    1.1005e+02    3.8802e+02 ;    C15 - C14    - H4S   
  5417   5420   5423      1    1.1205e+02    3.9497e+02 ;    C15 - C14    - C13   
  5418   5417   5419      1    1.0835e+02    3.2995e+02 ;    H5R - C15    - H5S   
  5418   5417   5420      1    1.1005e+02    3.8802e+02 ;    H5R - C15    - C14   
  5419   5417   5420      1    1.1005e+02    3.8802e+02 ;    H5S - C15    - C14   
  5420   5423   5424      1    1.1005e+02    3.8802e+02 ;    C14 - C13    - H3R   
  5420   5423   5425      1    1.1005e+02    3.8802e+02 ;    C14 - C13    - H3S   
  5420   5423   5426      1    1.1205e+02    3.9497e+02 ;    C14 - C13    - C12   
  5421   5420   5422      1    1.0835e+02    3.2995e+02 ;    H4R - C14    - H4S   
  5421   5420   5423      1    1.1005e+02    3.8802e+02 ;    H4R - C14    - C13   
  5422   5420   5423      1    1.1005e+02    3.8802e+02 ;    H4S - C14    - C13   
  5423   5426   5427      1    1.1005e+02    3.8802e+02 ;    C13 - C12    - H2R   
  5423   5426   5428      1    1.1005e+02    3.8802e+02 ;    C13 - C12    - H2S   
  5424   5423   5425      1    1.0835e+02    3.2995e+02 ;    H3R - C13    - H3S   
  5424   5423   5426      1    1.1005e+02    3.8802e+02 ;    H3R - C13    - C12   
  5425   5423   5426      1    1.1005e+02    3.8802e+02 ;    H3S - C13    - C12   
  5427   5426   5428      1    1.0835e+02    3.2995e+02 ;    H2R - C12    - H2S   
  5429   5430   5431      1    1.0835e+02    3.2995e+02 ;   H14T - C114   - H14R  
  5429   5430   5432      1    1.0835e+02    3.2995e+02 ;   H14T - C114   - H14S  
  5429   5430   5433      1    1.1005e+02    3.8802e+02 ;   H14T - C114   - C113  
  5430   5433   5434      1    1.1005e+02    3.8802e+02 ;   C114 - C113   - H13R  
  5430   5433   5435      1    1.1005e+02    3.8802e+02 ;   C114 - C113   - H13S  
  5430   5433   5436      1    1.1205e+02    3.9497e+02 ;   C114 - C113   - C112  
  5431   5430   5432      1    1.0835e+02    3.2995e+02 ;   H14R - C114   - H14S  
  5431   5430   5433      1    1.1005e+02    3.8802e+02 ;   H14R - C114   - C113  
  5432   5430   5433      1    1.1005e+02    3.8802e+02 ;   H14S - C114   - C113  
  5433   5436   5437      1    1.1005e+02    3.8802e+02 ;   C113 - C112   - H12R  
  5433   5436   5438      1    1.1005e+02    3.8802e+02 ;   C113 - C112   - H12S  
  5433   5436   5439      1    1.1205e+02    3.9497e+02 ;   C113 - C112   - C111  
  5434   5433   5435      1    1.0835e+02    3.2995e+02 ;   H13R - C113   - H13S  
  5434   5433   5436      1    1.1005e+02    3.8802e+02 ;   H13R - C113   - C112  
  5435   5433   5436      1    1.1005e+02    3.8802e+02 ;   H13S - C113   - C112  
  5436   5439   5440      1    1.1005e+02    3.8802e+02 ;   C112 - C111   - H11R  
  5436   5439   5441      1    1.1005e+02    3.8802e+02 ;   C112 - C111   - H11S  
  5436   5439   5442      1    1.1205e+02    3.9497e+02 ;   C112 - C111   - C110  
  5437   5436   5438      1    1.0835e+02    3.2995e+02 ;   H12R - C112   - H12S  
  5437   5436   5439      1    1.1005e+02    3.8802e+02 ;   H12R - C112   - C111  
  5438   5436   5439      1    1.1005e+02    3.8802e+02 ;   H12S - C112   - C111  
  5439   5442   5443      1    1.1005e+02    3.8802e+02 ;   C111 - C110   - H10R  
  5439   5442   5444      1    1.1005e+02    3.8802e+02 ;   C111 - C110   - H10S  
  5439   5442   5445      1    1.1205e+02    3.9497e+02 ;   C111 - C110   - C19   
  5440   5439   5441      1    1.0835e+02    3.2995e+02 ;   H11R - C111   - H11S  
  5440   5439   5442      1    1.1005e+02    3.8802e+02 ;   H11R - C111   - C110  
  5441   5439   5442      1    1.1005e+02    3.8802e+02 ;   H11S - C111   - C110  
  5442   5445   5446      1    1.1005e+02    3.8802e+02 ;   C110 - C19    - H9R   
  5442   5445   5447      1    1.1005e+02    3.8802e+02 ;   C110 - C19    - H9S   
  5442   5445   5448      1    1.1205e+02    3.9497e+02 ;   C110 - C19    - C18   
  5443   5442   5444      1    1.0835e+02    3.2995e+02 ;   H10R - C110   - H10S  
  5443   5442   5445      1    1.1005e+02    3.8802e+02 ;   H10R - C110   - C19   
  5444   5442   5445      1    1.1005e+02    3.8802e+02 ;   H10S - C110   - C19   
  5445   5448   5449      1    1.1005e+02    3.8802e+02 ;    C19 - C18    - H8R   
  5445   5448   5450      1    1.1005e+02    3.8802e+02 ;    C19 - C18    - H8S   
  5445   5448   5451      1    1.1205e+02    3.9497e+02 ;    C19 - C18    - C17   
  5446   5445   5447      1    1.0835e+02    3.2995e+02 ;    H9R - C19    - H9S   
  5446   5445   5448      1    1.1005e+02    3.8802e+02 ;    H9R - C19    - C18   
  5447   5445   5448      1    1.1005e+02    3.8802e+02 ;    H9S - C19    - C18   
  5448   5451   5452      1    1.1005e+02    3.8802e+02 ;    C18 - C17    - H7R   
  5448   5451   5453      1    1.1005e+02    3.8802e+02 ;    C18 - C17    - H7S   
  5448   5451   5454      1    1.1205e+02    3.9497e+02 ;    C18 - C17    - C16   
  5449   5448   5450      1    1.0835e+02    3.2995e+02 ;    H8R - C18    - H8S   
  5449   5448   5451      1    1.1005e+02    3.8802e+02 ;    H8R - C18    - C17   
  5450   5448   5451      1    1.1005e+02    3.8802e+02 ;    H8S - C18    - C17   
  5451   5454   5455      1    1.1005e+02    3.8802e+02 ;    C17 - C16    - H6R   
  5451   5454   5456      1    1.1005e+02    3.8802e+02 ;    C17 - C16    - H6S   
  5451   5454   5457      1    1.1205e+02    3.9497e+02 ;    C17 - C16    - C15   
  5452   5451   5453      1    1.0835e+02    3.2995e+02 ;    H7R - C17    - H7S   
  5452   5451   5454      1    1.1005e+02    3.8802e+02 ;    H7R - C17    - C16   
  5453   5451   5454      1    1.1005e+02    3.8802e+02 ;    H7S - C17    - C16   
  5454   5457   5458      1    1.1005e+02    3.8802e+02 ;    C16 - C15    - H5R   
  5454   5457   5459      1    1.1005e+02    3.8802e+02 ;    C16 - C15    - H5S   
  5454   5457   5460      1    1.1205e+02    3.9497e+02 ;    C16 - C15    - C14   
  5455   5454   5456      1    1.0835e+02    3.2995e+02 ;    H6R - C16    - H6S   
  5455   5454   5457      1    1.1005e+02    3.8802e+02 ;    H6R - C16    - C15   
  5456   5454   5457      1    1.1005e+02    3.8802e+02 ;    H6S - C16    - C15   
  5457   5460   5461      1    1.1005e+02    3.8802e+02 ;    C15 - C14    - H4R   
  5457   5460   5462      1    1.1005e+02    3.8802e+02 ;    C15 - C14    - H4S   
  5457   5460   5463      1    1.1205e+02    3.9497e+02 ;    C15 - C14    - C13   
  5458   5457   5459      1    1.0835e+02    3.2995e+02 ;    H5R - C15    - H5S   
  5458   5457   5460      1    1.1005e+02    3.8802e+02 ;    H5R - C15    - C14   
  5459   5457   5460      1    1.1005e+02    3.8802e+02 ;    H5S - C15    - C14   
  5460   5463   5464      1    1.1005e+02    3.8802e+02 ;    C14 - C13    - H3R   
  5460   5463   5465      1    1.1005e+02    3.8802e+02 ;    C14 - C13    - H3S   
  5460   5463   5466      1    1.1205e+02    3.9497e+02 ;    C14 - C13    - C12   
  5461   5460   5462      1    1.0835e+02    3.2995e+02 ;    H4R - C14    - H4S   
  5461   5460   5463      1    1.1005e+02    3.8802e+02 ;    H4R - C14    - C13   
  5462   5460   5463      1    1.1005e+02    3.8802e+02 ;    H4S - C14    - C13   
  5463   5466   5467      1    1.1005e+02    3.8802e+02 ;    C13 - C12    - H2R   
  5463   5466   5468      1    1.1005e+02    3.8802e+02 ;    C13 - C12    - H2S   
  5463   5466   5469      1    1.1053e+02    5.3379e+02 ;    C13 - C12    - C11   
  5464   5463   5465      1    1.0835e+02    3.2995e+02 ;    H3R - C13    - H3S   
  5464   5463   5466      1    1.1005e+02    3.8802e+02 ;    H3R - C13    - C12   
  5465   5463   5466      1    1.1005e+02    3.8802e+02 ;    H3S - C13    - C12   
  5466   5469   5470      1    1.2311e+02    5.6928e+02 ;    C12 - C11    - O12   
  5466   5469   5471      1    1.1196e+02    5.7957e+02 ;    C12 - C11    - O11   
  5467   5466   5468      1    1.0835e+02    3.2995e+02 ;    H2R - C12    - H2S   
  5467   5466   5469      1    1.0968e+02    3.9497e+02 ;    H2R - C12    - C11   
  5468   5466   5469      1    1.0968e+02    3.9497e+02 ;    H2S - C12    - C11   
  5469   5471   5472      1    1.1514e+02    5.3246e+02 ;    C11 - O11    - C1    
  5470   5469   5471      1    1.2333e+02    6.3538e+02 ;    O12 - C11    - O11   
  5471   5472   5473      1    1.0882e+02    4.2543e+02 ;    O11 - C1     - HR    
  5471   5472   5474      1    1.0882e+02    4.2543e+02 ;    O11 - C1     - HS    
  5471   5472   5475      1    1.0842e+02    5.6718e+02 ;    O11 - C1     - C2    
  5472   5475   5476      1    1.1007e+02    3.8794e+02 ;     C1 - C2     - HX    
  5472   5475   5477      1    1.1063e+02    5.2894e+02 ;     C1 - C2     - C3    
  5472   5475   5504      1    1.0842e+02    5.6718e+02 ;     C1 - C2     - O21   
  5473   5472   5474      1    1.0955e+02    3.2786e+02 ;     HR - C1     - HS    
  5473   5472   5475      1    1.1007e+02    3.8794e+02 ;     HR - C1     - C2    
  5474   5472   5475      1    1.1007e+02    3.8794e+02 ;     HS - C1     - C2    
  5475   5477   5478      1    1.1007e+02    3.8794e+02 ;     C2 - C3     - HA    
  5475   5477   5479      1    1.1007e+02    3.8794e+02 ;     C2 - C3     - HB    
  5475   5477   5480      1    1.0842e+02    5.6718e+02 ;     C2 - C3     - O31   
  5475   5504   5505      1    1.1514e+02    5.3246e+02 ;     C2 - O21    - C21   
  5476   5475   5477      1    1.1007e+02    3.8794e+02 ;     HX - C2     - C3    
  5476   5475   5504      1    1.0882e+02    4.2543e+02 ;     HX - C2     - O21   
  5477   5475   5504      1    1.0842e+02    5.6718e+02 ;     C3 - C2     - O21   
  5477   5480   5481      1    1.2050e+02    8.3680e+02 ;     C3 - O31    - P31   
  5478   5477   5479      1    1.0955e+02    3.2786e+02 ;     HA - C3     - HB    
  5478   5477   5480      1    1.0882e+02    4.2543e+02 ;     HA - C3     - O31   
  5479   5477   5480      1    1.0882e+02    4.2543e+02 ;     HB - C3     - O31   
  5480   5481   5482      1    1.0260e+02    7.5312e+02 ;    O31 - P31    - O32   
  5480   5481   5502      1    1.0823e+02    8.3680e+02 ;    O31 - P31    - O33   
  5480   5481   5503      1    1.0823e+02    8.3680e+02 ;    O31 - P31    - O34   
  5481   5482   5483      1    1.2050e+02    8.3680e+02 ;    P31 - O32    - C31   
  5482   5481   5502      1    1.0823e+02    8.3680e+02 ;    O32 - P31    - O33   
  5482   5481   5503      1    1.0823e+02    8.3680e+02 ;    O32 - P31    - O34   
  5482   5483   5484      1    1.0882e+02    4.2543e+02 ;    O32 - C31    - H1A   
  5482   5483   5485      1    1.0882e+02    4.2543e+02 ;    O32 - C31    - H1B   
  5482   5483   5486      1    1.0842e+02    5.6718e+02 ;    O32 - C31    - C32   
  5483   5486   5487      1    1.1174e+02    3.8510e+02 ;    C31 - C32    - H2A   
  5483   5486   5488      1    1.1174e+02    3.8510e+02 ;    C31 - C32    - H2B   
  5483   5486   5489      1    1.1432e+02    5.3932e+02 ;    C31 - C32    - N31   
  5484   5483   5485      1    1.0955e+02    3.2786e+02 ;    H1A - C31    - H1B   
  5484   5483   5486      1    1.1007e+02    3.8794e+02 ;    H1A - C31    - C32   
  5485   5483   5486      1    1.1007e+02    3.8794e+02 ;    H1B - C31    - C32   
  5486   5489   5490      1    1.1064e+02    5.2585e+02 ;    C32 - N31    - C33   
  5486   5489   5494      1    1.1064e+02    5.2585e+02 ;    C32 - N31    - C34   
  5486   5489   5498      1    1.1064e+02    5.2585e+02 ;    C32 - N31    - C35   
  5487   5486   5488      1    1.1074e+02    3.2669e+02 ;    H2A - C32    - H2B   
  5487   5486   5489      1    1.0791e+02    4.1020e+02 ;    H2A - C32    - N31   
  5488   5486   5489      1    1.0791e+02    4.1020e+02 ;    H2B - C32    - N31   
  5489   5490   5491      1    1.0791e+02    4.1020e+02 ;    N31 - C33    - H3A   
  5489   5490   5492      1    1.0791e+02    4.1020e+02 ;    N31 - C33    - H3B   
  5489   5490   5493      1    1.0791e+02    4.1020e+02 ;    N31 - C33    - H3C   
  5489   5494   5495      1    1.0791e+02    4.1020e+02 ;    N31 - C34    - H4A   
  5489   5494   5496      1    1.0791e+02    4.1020e+02 ;    N31 - C34    - H4B   
  5489   5494   5497      1    1.0791e+02    4.1020e+02 ;    N31 - C34    - H4C   
  5489   5498   5499      1    1.0791e+02    4.1020e+02 ;    N31 - C35    - H5A   
  5489   5498   5500      1    1.0791e+02    4.1020e+02 ;    N31 - C35    - H5B   
  5489   5498   5501      1    1.0791e+02    4.1020e+02 ;    N31 - C35    - H5C   
  5490   5489   5494      1    1.1064e+02    5.2585e+02 ;    C33 - N31    - C34   
  5490   5489   5498      1    1.1064e+02    5.2585e+02 ;    C33 - N31    - C35   
  5491   5490   5492      1    1.1074e+02    3.2669e+02 ;    H3A - C33    - H3B   
  5491   5490   5493      1    1.1074e+02    3.2669e+02 ;    H3A - C33    - H3C   
  5492   5490   5493      1    1.1074e+02    3.2669e+02 ;    H3B - C33    - H3C   
  5494   5489   5498      1    1.1064e+02    5.2585e+02 ;    C34 - N31    - C35   
  5495   5494   5496      1    1.1074e+02    3.2669e+02 ;    H4A - C34    - H4B   
  5495   5494   5497      1    1.1074e+02    3.2669e+02 ;    H4A - C34    - H4C   
  5496   5494   5497      1    1.1074e+02    3.2669e+02 ;    H4B - C34    - H4C   
  5499   5498   5500      1    1.1074e+02    3.2669e+02 ;    H5A - C35    - H5B   
  5499   5498   5501      1    1.1074e+02    3.2669e+02 ;    H5A - C35    - H5C   
  5500   5498   5501      1    1.1074e+02    3.2669e+02 ;    H5B - C35    - H5C   
  5502   5481   5503      1    1.1990e+02    1.1715e+03 ;    O33 - P31    - O34   
  5504   5505   5506      1    1.2333e+02    6.3538e+02 ;    O21 - C21    - O22   
  5504   5505   5544      1    1.1196e+02    5.7957e+02 ;    O21 - C21    - C12   
  5505   5544   5541      1    1.1053e+02    5.3379e+02 ;    C21 - C12    - C13   
  5505   5544   5545      1    1.0968e+02    3.9497e+02 ;    C21 - C12    - H2R   
  5505   5544   5546      1    1.0968e+02    3.9497e+02 ;    C21 - C12    - H2S   
  5506   5505   5544      1    1.2311e+02    5.6928e+02 ;    O22 - C21    - C12   
  5507   5508   5509      1    1.0835e+02    3.2995e+02 ;   H14T - C114   - H14R  
  5507   5508   5510      1    1.0835e+02    3.2995e+02 ;   H14T - C114   - H14S  
  5507   5508   5511      1    1.1005e+02    3.8802e+02 ;   H14T - C114   - C113  
  5508   5511   5512      1    1.1005e+02    3.8802e+02 ;   C114 - C113   - H13R  
  5508   5511   5513      1    1.1005e+02    3.8802e+02 ;   C114 - C113   - H13S  
  5508   5511   5514      1    1.1205e+02    3.9497e+02 ;   C114 - C113   - C112  
  5509   5508   5510      1    1.0835e+02    3.2995e+02 ;   H14R - C114   - H14S  
  5509   5508   5511      1    1.1005e+02    3.8802e+02 ;   H14R - C114   - C113  
  5510   5508   5511      1    1.1005e+02    3.8802e+02 ;   H14S - C114   - C113  
  5511   5514   5515      1    1.1005e+02    3.8802e+02 ;   C113 - C112   - H12R  
  5511   5514   5516      1    1.1005e+02    3.8802e+02 ;   C113 - C112   - H12S  
  5511   5514   5517      1    1.1205e+02    3.9497e+02 ;   C113 - C112   - C111  
  5512   5511   5513      1    1.0835e+02    3.2995e+02 ;   H13R - C113   - H13S  
  5512   5511   5514      1    1.1005e+02    3.8802e+02 ;   H13R - C113   - C112  
  5513   5511   5514      1    1.1005e+02    3.8802e+02 ;   H13S - C113   - C112  
  5514   5517   5518      1    1.1005e+02    3.8802e+02 ;   C112 - C111   - H11R  
  5514   5517   5519      1    1.1005e+02    3.8802e+02 ;   C112 - C111   - H11S  
  5514   5517   5520      1    1.1205e+02    3.9497e+02 ;   C112 - C111   - C110  
  5515   5514   5516      1    1.0835e+02    3.2995e+02 ;   H12R - C112   - H12S  
  5515   5514   5517      1    1.1005e+02    3.8802e+02 ;   H12R - C112   - C111  
  5516   5514   5517      1    1.1005e+02    3.8802e+02 ;   H12S - C112   - C111  
  5517   5520   5521      1    1.1005e+02    3.8802e+02 ;   C111 - C110   - H10R  
  5517   5520   5522      1    1.1005e+02    3.8802e+02 ;   C111 - C110   - H10S  
  5517   5520   5523      1    1.1205e+02    3.9497e+02 ;   C111 - C110   - C19   
  5518   5517   5519      1    1.0835e+02    3.2995e+02 ;   H11R - C111   - H11S  
  5518   5517   5520      1    1.1005e+02    3.8802e+02 ;   H11R - C111   - C110  
  5519   5517   5520      1    1.1005e+02    3.8802e+02 ;   H11S - C111   - C110  
  5520   5523   5524      1    1.1005e+02    3.8802e+02 ;   C110 - C19    - H9R   
  5520   5523   5525      1    1.1005e+02    3.8802e+02 ;   C110 - C19    - H9S   
  5520   5523   5526      1    1.1205e+02    3.9497e+02 ;   C110 - C19    - C18   
  5521   5520   5522      1    1.0835e+02    3.2995e+02 ;   H10R - C110   - H10S  
  5521   5520   5523      1    1.1005e+02    3.8802e+02 ;   H10R - C110   - C19   
  5522   5520   5523      1    1.1005e+02    3.8802e+02 ;   H10S - C110   - C19   
  5523   5526   5527      1    1.1005e+02    3.8802e+02 ;    C19 - C18    - H8R   
  5523   5526   5528      1    1.1005e+02    3.8802e+02 ;    C19 - C18    - H8S   
  5523   5526   5529      1    1.1205e+02    3.9497e+02 ;    C19 - C18    - C17   
  5524   5523   5525      1    1.0835e+02    3.2995e+02 ;    H9R - C19    - H9S   
  5524   5523   5526      1    1.1005e+02    3.8802e+02 ;    H9R - C19    - C18   
  5525   5523   5526      1    1.1005e+02    3.8802e+02 ;    H9S - C19    - C18   
  5526   5529   5530      1    1.1005e+02    3.8802e+02 ;    C18 - C17    - H7R   
  5526   5529   5531      1    1.1005e+02    3.8802e+02 ;    C18 - C17    - H7S   
  5526   5529   5532      1    1.1205e+02    3.9497e+02 ;    C18 - C17    - C16   
  5527   5526   5528      1    1.0835e+02    3.2995e+02 ;    H8R - C18    - H8S   
  5527   5526   5529      1    1.1005e+02    3.8802e+02 ;    H8R - C18    - C17   
  5528   5526   5529      1    1.1005e+02    3.8802e+02 ;    H8S - C18    - C17   
  5529   5532   5533      1    1.1005e+02    3.8802e+02 ;    C17 - C16    - H6R   
  5529   5532   5534      1    1.1005e+02    3.8802e+02 ;    C17 - C16    - H6S   
  5529   5532   5535      1    1.1205e+02    3.9497e+02 ;    C17 - C16    - C15   
  5530   5529   5531      1    1.0835e+02    3.2995e+02 ;    H7R - C17    - H7S   
  5530   5529   5532      1    1.1005e+02    3.8802e+02 ;    H7R - C17    - C16   
  5531   5529   5532      1    1.1005e+02    3.8802e+02 ;    H7S - C17    - C16   
  5532   5535   5536      1    1.1005e+02    3.8802e+02 ;    C16 - C15    - H5R   
  5532   5535   5537      1    1.1005e+02    3.8802e+02 ;    C16 - C15    - H5S   
  5532   5535   5538      1    1.1205e+02    3.9497e+02 ;    C16 - C15    - C14   
  5533   5532   5534      1    1.0835e+02    3.2995e+02 ;    H6R - C16    - H6S   
  5533   5532   5535      1    1.1005e+02    3.8802e+02 ;    H6R - C16    - C15   
  5534   5532   5535      1    1.1005e+02    3.8802e+02 ;    H6S - C16    - C15   
  5535   5538   5539      1    1.1005e+02    3.8802e+02 ;    C15 - C14    - H4R   
  5535   5538   5540      1    1.1005e+02    3.8802e+02 ;    C15 - C14    - H4S   
  5535   5538   5541      1    1.1205e+02    3.9497e+02 ;    C15 - C14    - C13   
  5536   5535   5537      1    1.0835e+02    3.2995e+02 ;    H5R - C15    - H5S   
  5536   5535   5538      1    1.1005e+02    3.8802e+02 ;    H5R - C15    - C14   
  5537   5535   5538      1    1.1005e+02    3.8802e+02 ;    H5S - C15    - C14   
  5538   5541   5542      1    1.1005e+02    3.8802e+02 ;    C14 - C13    - H3R   
  5538   5541   5543      1    1.1005e+02    3.8802e+02 ;    C14 - C13    - H3S   
  5538   5541   5544      1    1.1205e+02    3.9497e+02 ;    C14 - C13    - C12   
  5539   5538   5540      1    1.0835e+02    3.2995e+02 ;    H4R - C14    - H4S   
  5539   5538   5541      1    1.1005e+02    3.8802e+02 ;    H4R - C14    - C13   
  5540   5538   5541      1    1.1005e+02    3.8802e+02 ;    H4S - C14    - C13   
  5541   5544   5545      1    1.1005e+02    3.8802e+02 ;    C13 - C12    - H2R   
  5541   5544   5546      1    1.1005e+02    3.8802e+02 ;    C13 - C12    - H2S   
  5542   5541   5543      1    1.0835e+02    3.2995e+02 ;    H3R - C13    - H3S   
  5542   5541   5544      1    1.1005e+02    3.8802e+02 ;    H3R - C13    - C12   
  5543   5541   5544      1    1.1005e+02    3.8802e+02 ;    H3S - C13    - C12   
  5545   5544   5546      1    1.0835e+02    3.2995e+02 ;    H2R - C12    - H2S   
  5547   5548   5549      1    1.0835e+02    3.2995e+02 ;   H14T - C114   - H14R  
  5547   5548   5550      1    1.0835e+02    3.2995e+02 ;   H14T - C114   - H14S  
  5547   5548   5551      1    1.1005e+02    3.8802e+02 ;   H14T - C114   - C113  
  5548   5551   5552      1    1.1005e+02    3.8802e+02 ;   C114 - C113   - H13R  
  5548   5551   5553      1    1.1005e+02    3.8802e+02 ;   C114 - C113   - H13S  
  5548   5551   5554      1    1.1205e+02    3.9497e+02 ;   C114 - C113   - C112  
  5549   5548   5550      1    1.0835e+02    3.2995e+02 ;   H14R - C114   - H14S  
  5549   5548   5551      1    1.1005e+02    3.8802e+02 ;   H14R - C114   - C113  
  5550   5548   5551      1    1.1005e+02    3.8802e+02 ;   H14S - C114   - C113  
  5551   5554   5555      1    1.1005e+02    3.8802e+02 ;   C113 - C112   - H12R  
  5551   5554   5556      1    1.1005e+02    3.8802e+02 ;   C113 - C112   - H12S  
  5551   5554   5557      1    1.1205e+02    3.9497e+02 ;   C113 - C112   - C111  
  5552   5551   5553      1    1.0835e+02    3.2995e+02 ;   H13R - C113   - H13S  
  5552   5551   5554      1    1.1005e+02    3.8802e+02 ;   H13R - C113   - C112  
  5553   5551   5554      1    1.1005e+02    3.8802e+02 ;   H13S - C113   - C112  
  5554   5557   5558      1    1.1005e+02    3.8802e+02 ;   C112 - C111   - H11R  
  5554   5557   5559      1    1.1005e+02    3.8802e+02 ;   C112 - C111   - H11S  
  5554   5557   5560      1    1.1205e+02    3.9497e+02 ;   C112 - C111   - C110  
  5555   5554   5556      1    1.0835e+02    3.2995e+02 ;   H12R - C112   - H12S  
  5555   5554   5557      1    1.1005e+02    3.8802e+02 ;   H12R - C112   - C111  
  5556   5554   5557      1    1.1005e+02    3.8802e+02 ;   H12S - C112   - C111  
  5557   5560   5561      1    1.1005e+02    3.8802e+02 ;   C111 - C110   - H10R  
  5557   5560   5562      1    1.1005e+02    3.8802e+02 ;   C111 - C110   - H10S  
  5557   5560   5563      1    1.1205e+02    3.9497e+02 ;   C111 - C110   - C19   
  5558   5557   5559      1    1.0835e+02    3.2995e+02 ;   H11R - C111   - H11S  
  5558   5557   5560      1    1.1005e+02    3.8802e+02 ;   H11R - C111   - C110  
  5559   5557   5560      1    1.1005e+02    3.8802e+02 ;   H11S - C111   - C110  
  5560   5563   5564      1    1.1005e+02    3.8802e+02 ;   C110 - C19    - H9R   
  5560   5563   5565      1    1.1005e+02    3.8802e+02 ;   C110 - C19    - H9S   
  5560   5563   5566      1    1.1205e+02    3.9497e+02 ;   C110 - C19    - C18   
  5561   5560   5562      1    1.0835e+02    3.2995e+02 ;   H10R - C110   - H10S  
  5561   5560   5563      1    1.1005e+02    3.8802e+02 ;   H10R - C110   - C19   
  5562   5560   5563      1    1.1005e+02    3.8802e+02 ;   H10S - C110   - C19   
  5563   5566   5567      1    1.1005e+02    3.8802e+02 ;    C19 - C18    - H8R   
  5563   5566   5568      1    1.1005e+02    3.8802e+02 ;    C19 - C18    - H8S   
  5563   5566   5569      1    1.1205e+02    3.9497e+02 ;    C19 - C18    - C17   
  5564   5563   5565      1    1.0835e+02    3.2995e+02 ;    H9R - C19    - H9S   
  5564   5563   5566      1    1.1005e+02    3.8802e+02 ;    H9R - C19    - C18   
  5565   5563   5566      1    1.1005e+02    3.8802e+02 ;    H9S - C19    - C18   
  5566   5569   5570      1    1.1005e+02    3.8802e+02 ;    C18 - C17    - H7R   
  5566   5569   5571      1    1.1005e+02    3.8802e+02 ;    C18 - C17    - H7S   
  5566   5569   5572      1    1.1205e+02    3.9497e+02 ;    C18 - C17    - C16   
  5567   5566   5568      1    1.0835e+02    3.2995e+02 ;    H8R - C18    - H8S   
  5567   5566   5569      1    1.1005e+02    3.8802e+02 ;    H8R - C18    - C17   
  5568   5566   5569      1    1.1005e+02    3.8802e+02 ;    H8S - C18    - C17   
  5569   5572   5573      1    1.1005e+02    3.8802e+02 ;    C17 - C16    - H6R   
  5569   5572   5574      1    1.1005e+02    3.8802e+02 ;    C17 - C16    - H6S   
  5569   5572   5575      1    1.1205e+02    3.9497e+02 ;    C17 - C16    - C15   
  5570   5569   5571      1    1.0835e+02    3.2995e+02 ;    H7R - C17    - H7S   
  5570   5569   5572      1    1.1005e+02    3.8802e+02 ;    H7R - C17    - C16   
  5571   5569   5572      1    1.1005e+02    3.8802e+02 ;    H7S - C17    - C16   
  5572   5575   5576      1    1.1005e+02    3.8802e+02 ;    C16 - C15    - H5R   
  5572   5575   5577      1    1.1005e+02    3.8802e+02 ;    C16 - C15    - H5S   
  5572   5575   5578      1    1.1205e+02    3.9497e+02 ;    C16 - C15    - C14   
  5573   5572   5574      1    1.0835e+02    3.2995e+02 ;    H6R - C16    - H6S   
  5573   5572   5575      1    1.1005e+02    3.8802e+02 ;    H6R - C16    - C15   
  5574   5572   5575      1    1.1005e+02    3.8802e+02 ;    H6S - C16    - C15   
  5575   5578   5579      1    1.1005e+02    3.8802e+02 ;    C15 - C14    - H4R   
  5575   5578   5580      1    1.1005e+02    3.8802e+02 ;    C15 - C14    - H4S   
  5575   5578   5581      1    1.1205e+02    3.9497e+02 ;    C15 - C14    - C13   
  5576   5575   5577      1    1.0835e+02    3.2995e+02 ;    H5R - C15    - H5S   
  5576   5575   5578      1    1.1005e+02    3.8802e+02 ;    H5R - C15    - C14   
  5577   5575   5578      1    1.1005e+02    3.8802e+02 ;    H5S - C15    - C14   
  5578   5581   5582      1    1.1005e+02    3.8802e+02 ;    C14 - C13    - H3R   
  5578   5581   5583      1    1.1005e+02    3.8802e+02 ;    C14 - C13    - H3S   
  5578   5581   5584      1    1.1205e+02    3.9497e+02 ;    C14 - C13    - C12   
  5579   5578   5580      1    1.0835e+02    3.2995e+02 ;    H4R - C14    - H4S   
  5579   5578   5581      1    1.1005e+02    3.8802e+02 ;    H4R - C14    - C13   
  5580   5578   5581      1    1.1005e+02    3.8802e+02 ;    H4S - C14    - C13   
  5581   5584   5585      1    1.1005e+02    3.8802e+02 ;    C13 - C12    - H2R   
  5581   5584   5586      1    1.1005e+02    3.8802e+02 ;    C13 - C12    - H2S   
  5581   5584   5587      1    1.1053e+02    5.3379e+02 ;    C13 - C12    - C11   
  5582   5581   5583      1    1.0835e+02    3.2995e+02 ;    H3R - C13    - H3S   
  5582   5581   5584      1    1.1005e+02    3.8802e+02 ;    H3R - C13    - C12   
  5583   5581   5584      1    1.1005e+02    3.8802e+02 ;    H3S - C13    - C12   
  5584   5587   5588      1    1.2311e+02    5.6928e+02 ;    C12 - C11    - O12   
  5584   5587   5589      1    1.1196e+02    5.7957e+02 ;    C12 - C11    - O11   
  5585   5584   5586      1    1.0835e+02    3.2995e+02 ;    H2R - C12    - H2S   
  5585   5584   5587      1    1.0968e+02    3.9497e+02 ;    H2R - C12    - C11   
  5586   5584   5587      1    1.0968e+02    3.9497e+02 ;    H2S - C12    - C11   
  5587   5589   5590      1    1.1514e+02    5.3246e+02 ;    C11 - O11    - C1    
  5588   5587   5589      1    1.2333e+02    6.3538e+02 ;    O12 - C11    - O11   
  5589   5590   5591      1    1.0882e+02    4.2543e+02 ;    O11 - C1     - HR    
  5589   5590   5592      1    1.0882e+02    4.2543e+02 ;    O11 - C1     - HS    
  5589   5590   5593      1    1.0842e+02    5.6718e+02 ;    O11 - C1     - C2    
  5590   5593   5594      1    1.1007e+02    3.8794e+02 ;     C1 - C2     - HX    
  5590   5593   5595      1    1.1063e+02    5.2894e+02 ;     C1 - C2     - C3    
  5590   5593   5622      1    1.0842e+02    5.6718e+02 ;     C1 - C2     - O21   
  5591   5590   5592      1    1.0955e+02    3.2786e+02 ;     HR - C1     - HS    
  5591   5590   5593      1    1.1007e+02    3.8794e+02 ;     HR - C1     - C2    
  5592   5590   5593      1    1.1007e+02    3.8794e+02 ;     HS - C1     - C2    
  5593   5595   5596      1    1.1007e+02    3.8794e+02 ;     C2 - C3     - HA    
  5593   5595   5597      1    1.1007e+02    3.8794e+02 ;     C2 - C3     - HB    
  5593   5595   5598      1    1.0842e+02    5.6718e+02 ;     C2 - C3     - O31   
  5593   5622   5623      1    1.1514e+02    5.3246e+02 ;     C2 - O21    - C21   
  5594   5593   5595      1    1.1007e+02    3.8794e+02 ;     HX - C2     - C3    
  5594   5593   5622      1    1.0882e+02    4.2543e+02 ;     HX - C2     - O21   
  5595   5593   5622      1    1.0842e+02    5.6718e+02 ;     C3 - C2     - O21   
  5595   5598   5599      1    1.2050e+02    8.3680e+02 ;     C3 - O31    - P31   
  5596   5595   5597      1    1.0955e+02    3.2786e+02 ;     HA - C3     - HB    
  5596   5595   5598      1    1.0882e+02    4.2543e+02 ;     HA - C3     - O31   
  5597   5595   5598      1    1.0882e+02    4.2543e+02 ;     HB - C3     - O31   
  5598   5599   5600      1    1.0260e+02    7.5312e+02 ;    O31 - P31    - O32   
  5598   5599   5620      1    1.0823e+02    8.3680e+02 ;    O31 - P31    - O33   
  5598   5599   5621      1    1.0823e+02    8.3680e+02 ;    O31 - P31    - O34   
  5599   5600   5601      1    1.2050e+02    8.3680e+02 ;    P31 - O32    - C31   
  5600   5599   5620      1    1.0823e+02    8.3680e+02 ;    O32 - P31    - O33   
  5600   5599   5621      1    1.0823e+02    8.3680e+02 ;    O32 - P31    - O34   
  5600   5601   5602      1    1.0882e+02    4.2543e+02 ;    O32 - C31    - H1A   
  5600   5601   5603      1    1.0882e+02    4.2543e+02 ;    O32 - C31    - H1B   
  5600   5601   5604      1    1.0842e+02    5.6718e+02 ;    O32 - C31    - C32   
  5601   5604   5605      1    1.1174e+02    3.8510e+02 ;    C31 - C32    - H2A   
  5601   5604   5606      1    1.1174e+02    3.8510e+02 ;    C31 - C32    - H2B   
  5601   5604   5607      1    1.1432e+02    5.3932e+02 ;    C31 - C32    - N31   
  5602   5601   5603      1    1.0955e+02    3.2786e+02 ;    H1A - C31    - H1B   
  5602   5601   5604      1    1.1007e+02    3.8794e+02 ;    H1A - C31    - C32   
  5603   5601   5604      1    1.1007e+02    3.8794e+02 ;    H1B - C31    - C32   
  5604   5607   5608      1    1.1064e+02    5.2585e+02 ;    C32 - N31    - C33   
  5604   5607   5612      1    1.1064e+02    5.2585e+02 ;    C32 - N31    - C34   
  5604   5607   5616      1    1.1064e+02    5.2585e+02 ;    C32 - N31    - C35   
  5605   5604   5606      1    1.1074e+02    3.2669e+02 ;    H2A - C32    - H2B   
  5605   5604   5607      1    1.0791e+02    4.1020e+02 ;    H2A - C32    - N31   
  5606   5604   5607      1    1.0791e+02    4.1020e+02 ;    H2B - C32    - N31   
  5607   5608   5609      1    1.0791e+02    4.1020e+02 ;    N31 - C33    - H3A   
  5607   5608   5610      1    1.0791e+02    4.1020e+02 ;    N31 - C33    - H3B   
  5607   5608   5611      1    1.0791e+02    4.1020e+02 ;    N31 - C33    - H3C   
  5607   5612   5613      1    1.0791e+02    4.1020e+02 ;    N31 - C34    - H4A   
  5607   5612   5614      1    1.0791e+02    4.1020e+02 ;    N31 - C34    - H4B   
  5607   5612   5615      1    1.0791e+02    4.1020e+02 ;    N31 - C34    - H4C   
  5607   5616   5617      1    1.0791e+02    4.1020e+02 ;    N31 - C35    - H5A   
  5607   5616   5618      1    1.0791e+02    4.1020e+02 ;    N31 - C35    - H5B   
  5607   5616   5619      1    1.0791e+02    4.1020e+02 ;    N31 - C35    - H5C   
  5608   5607   5612      1    1.1064e+02    5.2585e+02 ;    C33 - N31    - C34   
  5608   5607   5616      1    1.1064e+02    5.2585e+02 ;    C33 - N31    - C35   
  5609   5608   5610      1    1.1074e+02    3.2669e+02 ;    H3A - C33    - H3B   
  5609   5608   5611      1    1.1074e+02    3.2669e+02 ;    H3A - C33    - H3C   
  5610   5608   5611      1    1.1074e+02    3.2669e+02 ;    H3B - C33    - H3C   
  5612   5607   5616      1    1.1064e+02    5.2585e+02 ;    C34 - N31    - C35   
  5613   5612   5614      1    1.1074e+02    3.2669e+02 ;    H4A - C34    - H4B   
  5613   5612   5615      1    1.1074e+02    3.2669e+02 ;    H4A - C34    - H4C   
  5614   5612   5615      1    1.1074e+02    3.2669e+02 ;    H4B - C34    - H4C   
  5617   5616   5618      1    1.1074e+02    3.2669e+02 ;    H5A - C35    - H5B   
  5617   5616   5619      1    1.1074e+02    3.2669e+02 ;    H5A - C35    - H5C   
  5618   5616   5619      1    1.1074e+02    3.2669e+02 ;    H5B - C35    - H5C   
  5620   5599   5621      1    1.1990e+02    1.1715e+03 ;    O33 - P31    - O34   
  5622   5623   5624      1    1.2333e+02    6.3538e+02 ;    O21 - C21    - O22   
  5622   5623   5662      1    1.1196e+02    5.7957e+02 ;    O21 - C21    - C12   
  5623   5662   5659      1    1.1053e+02    5.3379e+02 ;    C21 - C12    - C13   
  5623   5662   5663      1    1.0968e+02    3.9497e+02 ;    C21 - C12    - H2R   
  5623   5662   5664      1    1.0968e+02    3.9497e+02 ;    C21 - C12    - H2S   
  5624   5623   5662      1    1.2311e+02    5.6928e+02 ;    O22 - C21    - C12   
  5625   5626   5627      1    1.0835e+02    3.2995e+02 ;   H14T - C114   - H14R  
  5625   5626   5628      1    1.0835e+02    3.2995e+02 ;   H14T - C114   - H14S  
  5625   5626   5629      1    1.1005e+02    3.8802e+02 ;   H14T - C114   - C113  
  5626   5629   5630      1    1.1005e+02    3.8802e+02 ;   C114 - C113   - H13R  
  5626   5629   5631      1    1.1005e+02    3.8802e+02 ;   C114 - C113   - H13S  
  5626   5629   5632      1    1.1205e+02    3.9497e+02 ;   C114 - C113   - C112  
  5627   5626   5628      1    1.0835e+02    3.2995e+02 ;   H14R - C114   - H14S  
  5627   5626   5629      1    1.1005e+02    3.8802e+02 ;   H14R - C114   - C113  
  5628   5626   5629      1    1.1005e+02    3.8802e+02 ;   H14S - C114   - C113  
  5629   5632   5633      1    1.1005e+02    3.8802e+02 ;   C113 - C112   - H12R  
  5629   5632   5634      1    1.1005e+02    3.8802e+02 ;   C113 - C112   - H12S  
  5629   5632   5635      1    1.1205e+02    3.9497e+02 ;   C113 - C112   - C111  
  5630   5629   5631      1    1.0835e+02    3.2995e+02 ;   H13R - C113   - H13S  
  5630   5629   5632      1    1.1005e+02    3.8802e+02 ;   H13R - C113   - C112  
  5631   5629   5632      1    1.1005e+02    3.8802e+02 ;   H13S - C113   - C112  
  5632   5635   5636      1    1.1005e+02    3.8802e+02 ;   C112 - C111   - H11R  
  5632   5635   5637      1    1.1005e+02    3.8802e+02 ;   C112 - C111   - H11S  
  5632   5635   5638      1    1.1205e+02    3.9497e+02 ;   C112 - C111   - C110  
  5633   5632   5634      1    1.0835e+02    3.2995e+02 ;   H12R - C112   - H12S  
  5633   5632   5635      1    1.1005e+02    3.8802e+02 ;   H12R - C112   - C111  
  5634   5632   5635      1    1.1005e+02    3.8802e+02 ;   H12S - C112   - C111  
  5635   5638   5639      1    1.1005e+02    3.8802e+02 ;   C111 - C110   - H10R  
  5635   5638   5640      1    1.1005e+02    3.8802e+02 ;   C111 - C110   - H10S  
  5635   5638   5641      1    1.1205e+02    3.9497e+02 ;   C111 - C110   - C19   
  5636   5635   5637      1    1.0835e+02    3.2995e+02 ;   H11R - C111   - H11S  
  5636   5635   5638      1    1.1005e+02    3.8802e+02 ;   H11R - C111   - C110  
  5637   5635   5638      1    1.1005e+02    3.8802e+02 ;   H11S - C111   - C110  
  5638   5641   5642      1    1.1005e+02    3.8802e+02 ;   C110 - C19    - H9R   
  5638   5641   5643      1    1.1005e+02    3.8802e+02 ;   C110 - C19    - H9S   
  5638   5641   5644      1    1.1205e+02    3.9497e+02 ;   C110 - C19    - C18   
  5639   5638   5640      1    1.0835e+02    3.2995e+02 ;   H10R - C110   - H10S  
  5639   5638   5641      1    1.1005e+02    3.8802e+02 ;   H10R - C110   - C19   
  5640   5638   5641      1    1.1005e+02    3.8802e+02 ;   H10S - C110   - C19   
  5641   5644   5645      1    1.1005e+02    3.8802e+02 ;    C19 - C18    - H8R   
  5641   5644   5646      1    1.1005e+02    3.8802e+02 ;    C19 - C18    - H8S   
  5641   5644   5647      1    1.1205e+02    3.9497e+02 ;    C19 - C18    - C17   
  5642   5641   5643      1    1.0835e+02    3.2995e+02 ;    H9R - C19    - H9S   
  5642   5641   5644      1    1.1005e+02    3.8802e+02 ;    H9R - C19    - C18   
  5643   5641   5644      1    1.1005e+02    3.8802e+02 ;    H9S - C19    - C18   
  5644   5647   5648      1    1.1005e+02    3.8802e+02 ;    C18 - C17    - H7R   
  5644   5647   5649      1    1.1005e+02    3.8802e+02 ;    C18 - C17    - H7S   
  5644   5647   5650      1    1.1205e+02    3.9497e+02 ;    C18 - C17    - C16   
  5645   5644   5646      1    1.0835e+02    3.2995e+02 ;    H8R - C18    - H8S   
  5645   5644   5647      1    1.1005e+02    3.8802e+02 ;    H8R - C18    - C17   
  5646   5644   5647      1    1.1005e+02    3.8802e+02 ;    H8S - C18    - C17   
  5647   5650   5651      1    1.1005e+02    3.8802e+02 ;    C17 - C16    - H6R   
  5647   5650   5652      1    1.1005e+02    3.8802e+02 ;    C17 - C16    - H6S   
  5647   5650   5653      1    1.1205e+02    3.9497e+02 ;    C17 - C16    - C15   
  5648   5647   5649      1    1.0835e+02    3.2995e+02 ;    H7R - C17    - H7S   
  5648   5647   5650      1    1.1005e+02    3.8802e+02 ;    H7R - C17    - C16   
  5649   5647   5650      1    1.1005e+02    3.8802e+02 ;    H7S - C17    - C16   
  5650   5653   5654      1    1.1005e+02    3.8802e+02 ;    C16 - C15    - H5R   
  5650   5653   5655      1    1.1005e+02    3.8802e+02 ;    C16 - C15    - H5S   
  5650   5653   5656      1    1.1205e+02    3.9497e+02 ;    C16 - C15    - C14   
  5651   5650   5652      1    1.0835e+02    3.2995e+02 ;    H6R - C16    - H6S   
  5651   5650   5653      1    1.1005e+02    3.8802e+02 ;    H6R - C16    - C15   
  5652   5650   5653      1    1.1005e+02    3.8802e+02 ;    H6S - C16    - C15   
  5653   5656   5657      1    1.1005e+02    3.8802e+02 ;    C15 - C14    - H4R   
  5653   5656   5658      1    1.1005e+02    3.8802e+02 ;    C15 - C14    - H4S   
  5653   5656   5659      1    1.1205e+02    3.9497e+02 ;    C15 - C14    - C13   
  5654   5653   5655      1    1.0835e+02    3.2995e+02 ;    H5R - C15    - H5S   
  5654   5653   5656      1    1.1005e+02    3.8802e+02 ;    H5R - C15    - C14   
  5655   5653   5656      1    1.1005e+02    3.8802e+02 ;    H5S - C15    - C14   
  5656   5659   5660      1    1.1005e+02    3.8802e+02 ;    C14 - C13    - H3R   
  5656   5659   5661      1    1.1005e+02    3.8802e+02 ;    C14 - C13    - H3S   
  5656   5659   5662      1    1.1205e+02    3.9497e+02 ;    C14 - C13    - C12   
  5657   5656   5658      1    1.0835e+02    3.2995e+02 ;    H4R - C14    - H4S   
  5657   5656   5659      1    1.1005e+02    3.8802e+02 ;    H4R - C14    - C13   
  5658   5656   5659      1    1.1005e+02    3.8802e+02 ;    H4S - C14    - C13   
  5659   5662   5663      1    1.1005e+02    3.8802e+02 ;    C13 - C12    - H2R   
  5659   5662   5664      1    1.1005e+02    3.8802e+02 ;    C13 - C12    - H2S   
  5660   5659   5661      1    1.0835e+02    3.2995e+02 ;    H3R - C13    - H3S   
  5660   5659   5662      1    1.1005e+02    3.8802e+02 ;    H3R - C13    - C12   
  5661   5659   5662      1    1.1005e+02    3.8802e+02 ;    H3S - C13    - C12   
  5663   5662   5664      1    1.0835e+02    3.2995e+02 ;    H2R - C12    - H2S   
  5665   5666   5667      1    1.0835e+02    3.2995e+02 ;   H14T - C114   - H14R  
  5665   5666   5668      1    1.0835e+02    3.2995e+02 ;   H14T - C114   - H14S  
  5665   5666   5669      1    1.1005e+02    3.8802e+02 ;   H14T - C114   - C113  
  5666   5669   5670      1    1.1005e+02    3.8802e+02 ;   C114 - C113   - H13R  
  5666   5669   5671      1    1.1005e+02    3.8802e+02 ;   C114 - C113   - H13S  
  5666   5669   5672      1    1.1205e+02    3.9497e+02 ;   C114 - C113   - C112  
  5667   5666   5668      1    1.0835e+02    3.2995e+02 ;   H14R - C114   - H14S  
  5667   5666   5669      1    1.1005e+02    3.8802e+02 ;   H14R - C114   - C113  
  5668   5666   5669      1    1.1005e+02    3.8802e+02 ;   H14S - C114   - C113  
  5669   5672   5673      1    1.1005e+02    3.8802e+02 ;   C113 - C112   - H12R  
  5669   5672   5674      1    1.1005e+02    3.8802e+02 ;   C113 - C112   - H12S  
  5669   5672   5675      1    1.1205e+02    3.9497e+02 ;   C113 - C112   - C111  
  5670   5669   5671      1    1.0835e+02    3.2995e+02 ;   H13R - C113   - H13S  
  5670   5669   5672      1    1.1005e+02    3.8802e+02 ;   H13R - C113   - C112  
  5671   5669   5672      1    1.1005e+02    3.8802e+02 ;   H13S - C113   - C112  
  5672   5675   5676      1    1.1005e+02    3.8802e+02 ;   C112 - C111   - H11R  
  5672   5675   5677      1    1.1005e+02    3.8802e+02 ;   C112 - C111   - H11S  
  5672   5675   5678      1    1.1205e+02    3.9497e+02 ;   C112 - C111   - C110  
  5673   5672   5674      1    1.0835e+02    3.2995e+02 ;   H12R - C112   - H12S  
  5673   5672   5675      1    1.1005e+02    3.8802e+02 ;   H12R - C112   - C111  
  5674   5672   5675      1    1.1005e+02    3.8802e+02 ;   H12S - C112   - C111  
  5675   5678   5679      1    1.1005e+02    3.8802e+02 ;   C111 - C110   - H10R  
  5675   5678   5680      1    1.1005e+02    3.8802e+02 ;   C111 - C110   - H10S  
  5675   5678   5681      1    1.1205e+02    3.9497e+02 ;   C111 - C110   - C19   
  5676   5675   5677      1    1.0835e+02    3.2995e+02 ;   H11R - C111   - H11S  
  5676   5675   5678      1    1.1005e+02    3.8802e+02 ;   H11R - C111   - C110  
  5677   5675   5678      1    1.1005e+02    3.8802e+02 ;   H11S - C111   - C110  
  5678   5681   5682      1    1.1005e+02    3.8802e+02 ;   C110 - C19    - H9R   
  5678   5681   5683      1    1.1005e+02    3.8802e+02 ;   C110 - C19    - H9S   
  5678   5681   5684      1    1.1205e+02    3.9497e+02 ;   C110 - C19    - C18   
  5679   5678   5680      1    1.0835e+02    3.2995e+02 ;   H10R - C110   - H10S  
  5679   5678   5681      1    1.1005e+02    3.8802e+02 ;   H10R - C110   - C19   
  5680   5678   5681      1    1.1005e+02    3.8802e+02 ;   H10S - C110   - C19   
  5681   5684   5685      1    1.1005e+02    3.8802e+02 ;    C19 - C18    - H8R   
  5681   5684   5686      1    1.1005e+02    3.8802e+02 ;    C19 - C18    - H8S   
  5681   5684   5687      1    1.1205e+02    3.9497e+02 ;    C19 - C18    - C17   
  5682   5681   5683      1    1.0835e+02    3.2995e+02 ;    H9R - C19    - H9S   
  5682   5681   5684      1    1.1005e+02    3.8802e+02 ;    H9R - C19    - C18   
  5683   5681   5684      1    1.1005e+02    3.8802e+02 ;    H9S - C19    - C18   
  5684   5687   5688      1    1.1005e+02    3.8802e+02 ;    C18 - C17    - H7R   
  5684   5687   5689      1    1.1005e+02    3.8802e+02 ;    C18 - C17    - H7S   
  5684   5687   5690      1    1.1205e+02    3.9497e+02 ;    C18 - C17    - C16   
  5685   5684   5686      1    1.0835e+02    3.2995e+02 ;    H8R - C18    - H8S   
  5685   5684   5687      1    1.1005e+02    3.8802e+02 ;    H8R - C18    - C17   
  5686   5684   5687      1    1.1005e+02    3.8802e+02 ;    H8S - C18    - C17   
  5687   5690   5691      1    1.1005e+02    3.8802e+02 ;    C17 - C16    - H6R   
  5687   5690   5692      1    1.1005e+02    3.8802e+02 ;    C17 - C16    - H6S   
  5687   5690   5693      1    1.1205e+02    3.9497e+02 ;    C17 - C16    - C15   
  5688   5687   5689      1    1.0835e+02    3.2995e+02 ;    H7R - C17    - H7S   
  5688   5687   5690      1    1.1005e+02    3.8802e+02 ;    H7R - C17    - C16   
  5689   5687   5690      1    1.1005e+02    3.8802e+02 ;    H7S - C17    - C16   
  5690   5693   5694      1    1.1005e+02    3.8802e+02 ;    C16 - C15    - H5R   
  5690   5693   5695      1    1.1005e+02    3.8802e+02 ;    C16 - C15    - H5S   
  5690   5693   5696      1    1.1205e+02    3.9497e+02 ;    C16 - C15    - C14   
  5691   5690   5692      1    1.0835e+02    3.2995e+02 ;    H6R - C16    - H6S   
  5691   5690   5693      1    1.1005e+02    3.8802e+02 ;    H6R - C16    - C15   
  5692   5690   5693      1    1.1005e+02    3.8802e+02 ;    H6S - C16    - C15   
  5693   5696   5697      1    1.1005e+02    3.8802e+02 ;    C15 - C14    - H4R   
  5693   5696   5698      1    1.1005e+02    3.8802e+02 ;    C15 - C14    - H4S   
  5693   5696   5699      1    1.1205e+02    3.9497e+02 ;    C15 - C14    - C13   
  5694   5693   5695      1    1.0835e+02    3.2995e+02 ;    H5R - C15    - H5S   
  5694   5693   5696      1    1.1005e+02    3.8802e+02 ;    H5R - C15    - C14   
  5695   5693   5696      1    1.1005e+02    3.8802e+02 ;    H5S - C15    - C14   
  5696   5699   5700      1    1.1005e+02    3.8802e+02 ;    C14 - C13    - H3R   
  5696   5699   5701      1    1.1005e+02    3.8802e+02 ;    C14 - C13    - H3S   
  5696   5699   5702      1    1.1205e+02    3.9497e+02 ;    C14 - C13    - C12   
  5697   5696   5698      1    1.0835e+02    3.2995e+02 ;    H4R - C14    - H4S   
  5697   5696   5699      1    1.1005e+02    3.8802e+02 ;    H4R - C14    - C13   
  5698   5696   5699      1    1.1005e+02    3.8802e+02 ;    H4S - C14    - C13   
  5699   5702   5703      1    1.1005e+02    3.8802e+02 ;    C13 - C12    - H2R   
  5699   5702   5704      1    1.1005e+02    3.8802e+02 ;    C13 - C12    - H2S   
  5699   5702   5705      1    1.1053e+02    5.3379e+02 ;    C13 - C12    - C11   
  5700   5699   5701      1    1.0835e+02    3.2995e+02 ;    H3R - C13    - H3S   
  5700   5699   5702      1    1.1005e+02    3.8802e+02 ;    H3R - C13    - C12   
  5701   5699   5702      1    1.1005e+02    3.8802e+02 ;    H3S - C13    - C12   
  5702   5705   5706      1    1.2311e+02    5.6928e+02 ;    C12 - C11    - O12   
  5702   5705   5707      1    1.1196e+02    5.7957e+02 ;    C12 - C11    - O11   
  5703   5702   5704      1    1.0835e+02    3.2995e+02 ;    H2R - C12    - H2S   
  5703   5702   5705      1    1.0968e+02    3.9497e+02 ;    H2R - C12    - C11   
  5704   5702   5705      1    1.0968e+02    3.9497e+02 ;    H2S - C12    - C11   
  5705   5707   5708      1    1.1514e+02    5.3246e+02 ;    C11 - O11    - C1    
  5706   5705   5707      1    1.2333e+02    6.3538e+02 ;    O12 - C11    - O11   
  5707   5708   5709      1    1.0882e+02    4.2543e+02 ;    O11 - C1     - HR    
  5707   5708   5710      1    1.0882e+02    4.2543e+02 ;    O11 - C1     - HS    
  5707   5708   5711      1    1.0842e+02    5.6718e+02 ;    O11 - C1     - C2    
  5708   5711   5712      1    1.1007e+02    3.8794e+02 ;     C1 - C2     - HX    
  5708   5711   5713      1    1.1063e+02    5.2894e+02 ;     C1 - C2     - C3    
  5708   5711   5740      1    1.0842e+02    5.6718e+02 ;     C1 - C2     - O21   
  5709   5708   5710      1    1.0955e+02    3.2786e+02 ;     HR - C1     - HS    
  5709   5708   5711      1    1.1007e+02    3.8794e+02 ;     HR - C1     - C2    
  5710   5708   5711      1    1.1007e+02    3.8794e+02 ;     HS - C1     - C2    
  5711   5713   5714      1    1.1007e+02    3.8794e+02 ;     C2 - C3     - HA    
  5711   5713   5715      1    1.1007e+02    3.8794e+02 ;     C2 - C3     - HB    
  5711   5713   5716      1    1.0842e+02    5.6718e+02 ;     C2 - C3     - O31   
  5711   5740   5741      1    1.1514e+02    5.3246e+02 ;     C2 - O21    - C21   
  5712   5711   5713      1    1.1007e+02    3.8794e+02 ;     HX - C2     - C3    
  5712   5711   5740      1    1.0882e+02    4.2543e+02 ;     HX - C2     - O21   
  5713   5711   5740      1    1.0842e+02    5.6718e+02 ;     C3 - C2     - O21   
  5713   5716   5717      1    1.2050e+02    8.3680e+02 ;     C3 - O31    - P31   
  5714   5713   5715      1    1.0955e+02    3.2786e+02 ;     HA - C3     - HB    
  5714   5713   5716      1    1.0882e+02    4.2543e+02 ;     HA - C3     - O31   
  5715   5713   5716      1    1.0882e+02    4.2543e+02 ;     HB - C3     - O31   
  5716   5717   5718      1    1.0260e+02    7.5312e+02 ;    O31 - P31    - O32   
  5716   5717   5738      1    1.0823e+02    8.3680e+02 ;    O31 - P31    - O33   
  5716   5717   5739      1    1.0823e+02    8.3680e+02 ;    O31 - P31    - O34   
  5717   5718   5719      1    1.2050e+02    8.3680e+02 ;    P31 - O32    - C31   
  5718   5717   5738      1    1.0823e+02    8.3680e+02 ;    O32 - P31    - O33   
  5718   5717   5739      1    1.0823e+02    8.3680e+02 ;    O32 - P31    - O34   
  5718   5719   5720      1    1.0882e+02    4.2543e+02 ;    O32 - C31    - H1A   
  5718   5719   5721      1    1.0882e+02    4.2543e+02 ;    O32 - C31    - H1B   
  5718   5719   5722      1    1.0842e+02    5.6718e+02 ;    O32 - C31    - C32   
  5719   5722   5723      1    1.1174e+02    3.8510e+02 ;    C31 - C32    - H2A   
  5719   5722   5724      1    1.1174e+02    3.8510e+02 ;    C31 - C32    - H2B   
  5719   5722   5725      1    1.1432e+02    5.3932e+02 ;    C31 - C32    - N31   
  5720   5719   5721      1    1.0955e+02    3.2786e+02 ;    H1A - C31    - H1B   
  5720   5719   5722      1    1.1007e+02    3.8794e+02 ;    H1A - C31    - C32   
  5721   5719   5722      1    1.1007e+02    3.8794e+02 ;    H1B - C31    - C32   
  5722   5725   5726      1    1.1064e+02    5.2585e+02 ;    C32 - N31    - C33   
  5722   5725   5730      1    1.1064e+02    5.2585e+02 ;    C32 - N31    - C34   
  5722   5725   5734      1    1.1064e+02    5.2585e+02 ;    C32 - N31    - C35   
  5723   5722   5724      1    1.1074e+02    3.2669e+02 ;    H2A - C32    - H2B   
  5723   5722   5725      1    1.0791e+02    4.1020e+02 ;    H2A - C32    - N31   
  5724   5722   5725      1    1.0791e+02    4.1020e+02 ;    H2B - C32    - N31   
  5725   5726   5727      1    1.0791e+02    4.1020e+02 ;    N31 - C33    - H3A   
  5725   5726   5728      1    1.0791e+02    4.1020e+02 ;    N31 - C33    - H3B   
  5725   5726   5729      1    1.0791e+02    4.1020e+02 ;    N31 - C33    - H3C   
  5725   5730   5731      1    1.0791e+02    4.1020e+02 ;    N31 - C34    - H4A   
  5725   5730   5732      1    1.0791e+02    4.1020e+02 ;    N31 - C34    - H4B   
  5725   5730   5733      1    1.0791e+02    4.1020e+02 ;    N31 - C34    - H4C   
  5725   5734   5735      1    1.0791e+02    4.1020e+02 ;    N31 - C35    - H5A   
  5725   5734   5736      1    1.0791e+02    4.1020e+02 ;    N31 - C35    - H5B   
  5725   5734   5737      1    1.0791e+02    4.1020e+02 ;    N31 - C35    - H5C   
  5726   5725   5730      1    1.1064e+02    5.2585e+02 ;    C33 - N31    - C34   
  5726   5725   5734      1    1.1064e+02    5.2585e+02 ;    C33 - N31    - C35   
  5727   5726   5728      1    1.1074e+02    3.2669e+02 ;    H3A - C33    - H3B   
  5727   5726   5729      1    1.1074e+02    3.2669e+02 ;    H3A - C33    - H3C   
  5728   5726   5729      1    1.1074e+02    3.2669e+02 ;    H3B - C33    - H3C   
  5730   5725   5734      1    1.1064e+02    5.2585e+02 ;    C34 - N31    - C35   
  5731   5730   5732      1    1.1074e+02    3.2669e+02 ;    H4A - C34    - H4B   
  5731   5730   5733      1    1.1074e+02    3.2669e+02 ;    H4A - C34    - H4C   
  5732   5730   5733      1    1.1074e+02    3.2669e+02 ;    H4B - C34    - H4C   
  5735   5734   5736      1    1.1074e+02    3.2669e+02 ;    H5A - C35    - H5B   
  5735   5734   5737      1    1.1074e+02    3.2669e+02 ;    H5A - C35    - H5C   
  5736   5734   5737      1    1.1074e+02    3.2669e+02 ;    H5B - C35    - H5C   
  5738   5717   5739      1    1.1990e+02    1.1715e+03 ;    O33 - P31    - O34   
  5740   5741   5742      1    1.2333e+02    6.3538e+02 ;    O21 - C21    - O22   
  5740   5741   5780      1    1.1196e+02    5.7957e+02 ;    O21 - C21    - C12   
  5741   5780   5777      1    1.1053e+02    5.3379e+02 ;    C21 - C12    - C13   
  5741   5780   5781      1    1.0968e+02    3.9497e+02 ;    C21 - C12    - H2R   
  5741   5780   5782      1    1.0968e+02    3.9497e+02 ;    C21 - C12    - H2S   
  5742   5741   5780      1    1.2311e+02    5.6928e+02 ;    O22 - C21    - C12   
  5743   5744   5745      1    1.0835e+02    3.2995e+02 ;   H14T - C114   - H14R  
  5743   5744   5746      1    1.0835e+02    3.2995e+02 ;   H14T - C114   - H14S  
  5743   5744   5747      1    1.1005e+02    3.8802e+02 ;   H14T - C114   - C113  
  5744   5747   5748      1    1.1005e+02    3.8802e+02 ;   C114 - C113   - H13R  
  5744   5747   5749      1    1.1005e+02    3.8802e+02 ;   C114 - C113   - H13S  
  5744   5747   5750      1    1.1205e+02    3.9497e+02 ;   C114 - C113   - C112  
  5745   5744   5746      1    1.0835e+02    3.2995e+02 ;   H14R - C114   - H14S  
  5745   5744   5747      1    1.1005e+02    3.8802e+02 ;   H14R - C114   - C113  
  5746   5744   5747      1    1.1005e+02    3.8802e+02 ;   H14S - C114   - C113  
  5747   5750   5751      1    1.1005e+02    3.8802e+02 ;   C113 - C112   - H12R  
  5747   5750   5752      1    1.1005e+02    3.8802e+02 ;   C113 - C112   - H12S  
  5747   5750   5753      1    1.1205e+02    3.9497e+02 ;   C113 - C112   - C111  
  5748   5747   5749      1    1.0835e+02    3.2995e+02 ;   H13R - C113   - H13S  
  5748   5747   5750      1    1.1005e+02    3.8802e+02 ;   H13R - C113   - C112  
  5749   5747   5750      1    1.1005e+02    3.8802e+02 ;   H13S - C113   - C112  
  5750   5753   5754      1    1.1005e+02    3.8802e+02 ;   C112 - C111   - H11R  
  5750   5753   5755      1    1.1005e+02    3.8802e+02 ;   C112 - C111   - H11S  
  5750   5753   5756      1    1.1205e+02    3.9497e+02 ;   C112 - C111   - C110  
  5751   5750   5752      1    1.0835e+02    3.2995e+02 ;   H12R - C112   - H12S  
  5751   5750   5753      1    1.1005e+02    3.8802e+02 ;   H12R - C112   - C111  
  5752   5750   5753      1    1.1005e+02    3.8802e+02 ;   H12S - C112   - C111  
  5753   5756   5757      1    1.1005e+02    3.8802e+02 ;   C111 - C110   - H10R  
  5753   5756   5758      1    1.1005e+02    3.8802e+02 ;   C111 - C110   - H10S  
  5753   5756   5759      1    1.1205e+02    3.9497e+02 ;   C111 - C110   - C19   
  5754   5753   5755      1    1.0835e+02    3.2995e+02 ;   H11R - C111   - H11S  
  5754   5753   5756      1    1.1005e+02    3.8802e+02 ;   H11R - C111   - C110  
  5755   5753   5756      1    1.1005e+02    3.8802e+02 ;   H11S - C111   - C110  
  5756   5759   5760      1    1.1005e+02    3.8802e+02 ;   C110 - C19    - H9R   
  5756   5759   5761      1    1.1005e+02    3.8802e+02 ;   C110 - C19    - H9S   
  5756   5759   5762      1    1.1205e+02    3.9497e+02 ;   C110 - C19    - C18   
  5757   5756   5758      1    1.0835e+02    3.2995e+02 ;   H10R - C110   - H10S  
  5757   5756   5759      1    1.1005e+02    3.8802e+02 ;   H10R - C110   - C19   
  5758   5756   5759      1    1.1005e+02    3.8802e+02 ;   H10S - C110   - C19   
  5759   5762   5763      1    1.1005e+02    3.8802e+02 ;    C19 - C18    - H8R   
  5759   5762   5764      1    1.1005e+02    3.8802e+02 ;    C19 - C18    - H8S   
  5759   5762   5765      1    1.1205e+02    3.9497e+02 ;    C19 - C18    - C17   
  5760   5759   5761      1    1.0835e+02    3.2995e+02 ;    H9R - C19    - H9S   
  5760   5759   5762      1    1.1005e+02    3.8802e+02 ;    H9R - C19    - C18   
  5761   5759   5762      1    1.1005e+02    3.8802e+02 ;    H9S - C19    - C18   
  5762   5765   5766      1    1.1005e+02    3.8802e+02 ;    C18 - C17    - H7R   
  5762   5765   5767      1    1.1005e+02    3.8802e+02 ;    C18 - C17    - H7S   
  5762   5765   5768      1    1.1205e+02    3.9497e+02 ;    C18 - C17    - C16   
  5763   5762   5764      1    1.0835e+02    3.2995e+02 ;    H8R - C18    - H8S   
  5763   5762   5765      1    1.1005e+02    3.8802e+02 ;    H8R - C18    - C17   
  5764   5762   5765      1    1.1005e+02    3.8802e+02 ;    H8S - C18    - C17   
  5765   5768   5769      1    1.1005e+02    3.8802e+02 ;    C17 - C16    - H6R   
  5765   5768   5770      1    1.1005e+02    3.8802e+02 ;    C17 - C16    - H6S   
  5765   5768   5771      1    1.1205e+02    3.9497e+02 ;    C17 - C16    - C15   
  5766   5765   5767      1    1.0835e+02    3.2995e+02 ;    H7R - C17    - H7S   
  5766   5765   5768      1    1.1005e+02    3.8802e+02 ;    H7R - C17    - C16   
  5767   5765   5768      1    1.1005e+02    3.8802e+02 ;    H7S - C17    - C16   
  5768   5771   5772      1    1.1005e+02    3.8802e+02 ;    C16 - C15    - H5R   
  5768   5771   5773      1    1.1005e+02    3.8802e+02 ;    C16 - C15    - H5S   
  5768   5771   5774      1    1.1205e+02    3.9497e+02 ;    C16 - C15    - C14   
  5769   5768   5770      1    1.0835e+02    3.2995e+02 ;    H6R - C16    - H6S   
  5769   5768   5771      1    1.1005e+02    3.8802e+02 ;    H6R - C16    - C15   
  5770   5768   5771      1    1.1005e+02    3.8802e+02 ;    H6S - C16    - C15   
  5771   5774   5775      1    1.1005e+02    3.8802e+02 ;    C15 - C14    - H4R   
  5771   5774   5776      1    1.1005e+02    3.8802e+02 ;    C15 - C14    - H4S   
  5771   5774   5777      1    1.1205e+02    3.9497e+02 ;    C15 - C14    - C13   
  5772   5771   5773      1    1.0835e+02    3.2995e+02 ;    H5R - C15    - H5S   
  5772   5771   5774      1    1.1005e+02    3.8802e+02 ;    H5R - C15    - C14   
  5773   5771   5774      1    1.1005e+02    3.8802e+02 ;    H5S - C15    - C14   
  5774   5777   5778      1    1.1005e+02    3.8802e+02 ;    C14 - C13    - H3R   
  5774   5777   5779      1    1.1005e+02    3.8802e+02 ;    C14 - C13    - H3S   
  5774   5777   5780      1    1.1205e+02    3.9497e+02 ;    C14 - C13    - C12   
  5775   5774   5776      1    1.0835e+02    3.2995e+02 ;    H4R - C14    - H4S   
  5775   5774   5777      1    1.1005e+02    3.8802e+02 ;    H4R - C14    - C13   
  5776   5774   5777      1    1.1005e+02    3.8802e+02 ;    H4S - C14    - C13   
  5777   5780   5781      1    1.1005e+02    3.8802e+02 ;    C13 - C12    - H2R   
  5777   5780   5782      1    1.1005e+02    3.8802e+02 ;    C13 - C12    - H2S   
  5778   5777   5779      1    1.0835e+02    3.2995e+02 ;    H3R - C13    - H3S   
  5778   5777   5780      1    1.1005e+02    3.8802e+02 ;    H3R - C13    - C12   
  5779   5777   5780      1    1.1005e+02    3.8802e+02 ;    H3S - C13    - C12   
  5781   5780   5782      1    1.0835e+02    3.2995e+02 ;    H2R - C12    - H2S   
  5783   5784   5785      1    1.0835e+02    3.2995e+02 ;   H14T - C114   - H14R  
  5783   5784   5786      1    1.0835e+02    3.2995e+02 ;   H14T - C114   - H14S  
  5783   5784   5787      1    1.1005e+02    3.8802e+02 ;   H14T - C114   - C113  
  5784   5787   5788      1    1.1005e+02    3.8802e+02 ;   C114 - C113   - H13R  
  5784   5787   5789      1    1.1005e+02    3.8802e+02 ;   C114 - C113   - H13S  
  5784   5787   5790      1    1.1205e+02    3.9497e+02 ;   C114 - C113   - C112  
  5785   5784   5786      1    1.0835e+02    3.2995e+02 ;   H14R - C114   - H14S  
  5785   5784   5787      1    1.1005e+02    3.8802e+02 ;   H14R - C114   - C113  
  5786   5784   5787      1    1.1005e+02    3.8802e+02 ;   H14S - C114   - C113  
  5787   5790   5791      1    1.1005e+02    3.8802e+02 ;   C113 - C112   - H12R  
  5787   5790   5792      1    1.1005e+02    3.8802e+02 ;   C113 - C112   - H12S  
  5787   5790   5793      1    1.1205e+02    3.9497e+02 ;   C113 - C112   - C111  
  5788   5787   5789      1    1.0835e+02    3.2995e+02 ;   H13R - C113   - H13S  
  5788   5787   5790      1    1.1005e+02    3.8802e+02 ;   H13R - C113   - C112  
  5789   5787   5790      1    1.1005e+02    3.8802e+02 ;   H13S - C113   - C112  
  5790   5793   5794      1    1.1005e+02    3.8802e+02 ;   C112 - C111   - H11R  
  5790   5793   5795      1    1.1005e+02    3.8802e+02 ;   C112 - C111   - H11S  
  5790   5793   5796      1    1.1205e+02    3.9497e+02 ;   C112 - C111   - C110  
  5791   5790   5792      1    1.0835e+02    3.2995e+02 ;   H12R - C112   - H12S  
  5791   5790   5793      1    1.1005e+02    3.8802e+02 ;   H12R - C112   - C111  
  5792   5790   5793      1    1.1005e+02    3.8802e+02 ;   H12S - C112   - C111  
  5793   5796   5797      1    1.1005e+02    3.8802e+02 ;   C111 - C110   - H10R  
  5793   5796   5798      1    1.1005e+02    3.8802e+02 ;   C111 - C110   - H10S  
  5793   5796   5799      1    1.1205e+02    3.9497e+02 ;   C111 - C110   - C19   
  5794   5793   5795      1    1.0835e+02    3.2995e+02 ;   H11R - C111   - H11S  
  5794   5793   5796      1    1.1005e+02    3.8802e+02 ;   H11R - C111   - C110  
  5795   5793   5796      1    1.1005e+02    3.8802e+02 ;   H11S - C111   - C110  
  5796   5799   5800      1    1.1005e+02    3.8802e+02 ;   C110 - C19    - H9R   
  5796   5799   5801      1    1.1005e+02    3.8802e+02 ;   C110 - C19    - H9S   
  5796   5799   5802      1    1.1205e+02    3.9497e+02 ;   C110 - C19    - C18   
  5797   5796   5798      1    1.0835e+02    3.2995e+02 ;   H10R - C110   - H10S  
  5797   5796   5799      1    1.1005e+02    3.8802e+02 ;   H10R - C110   - C19   
  5798   5796   5799      1    1.1005e+02    3.8802e+02 ;   H10S - C110   - C19   
  5799   5802   5803      1    1.1005e+02    3.8802e+02 ;    C19 - C18    - H8R   
  5799   5802   5804      1    1.1005e+02    3.8802e+02 ;    C19 - C18    - H8S   
  5799   5802   5805      1    1.1205e+02    3.9497e+02 ;    C19 - C18    - C17   
  5800   5799   5801      1    1.0835e+02    3.2995e+02 ;    H9R - C19    - H9S   
  5800   5799   5802      1    1.1005e+02    3.8802e+02 ;    H9R - C19    - C18   
  5801   5799   5802      1    1.1005e+02    3.8802e+02 ;    H9S - C19    - C18   
  5802   5805   5806      1    1.1005e+02    3.8802e+02 ;    C18 - C17    - H7R   
  5802   5805   5807      1    1.1005e+02    3.8802e+02 ;    C18 - C17    - H7S   
  5802   5805   5808      1    1.1205e+02    3.9497e+02 ;    C18 - C17    - C16   
  5803   5802   5804      1    1.0835e+02    3.2995e+02 ;    H8R - C18    - H8S   
  5803   5802   5805      1    1.1005e+02    3.8802e+02 ;    H8R - C18    - C17   
  5804   5802   5805      1    1.1005e+02    3.8802e+02 ;    H8S - C18    - C17   
  5805   5808   5809      1    1.1005e+02    3.8802e+02 ;    C17 - C16    - H6R   
  5805   5808   5810      1    1.1005e+02    3.8802e+02 ;    C17 - C16    - H6S   
  5805   5808   5811      1    1.1205e+02    3.9497e+02 ;    C17 - C16    - C15   
  5806   5805   5807      1    1.0835e+02    3.2995e+02 ;    H7R - C17    - H7S   
  5806   5805   5808      1    1.1005e+02    3.8802e+02 ;    H7R - C17    - C16   
  5807   5805   5808      1    1.1005e+02    3.8802e+02 ;    H7S - C17    - C16   
  5808   5811   5812      1    1.1005e+02    3.8802e+02 ;    C16 - C15    - H5R   
  5808   5811   5813      1    1.1005e+02    3.8802e+02 ;    C16 - C15    - H5S   
  5808   5811   5814      1    1.1205e+02    3.9497e+02 ;    C16 - C15    - C14   
  5809   5808   5810      1    1.0835e+02    3.2995e+02 ;    H6R - C16    - H6S   
  5809   5808   5811      1    1.1005e+02    3.8802e+02 ;    H6R - C16    - C15   
  5810   5808   5811      1    1.1005e+02    3.8802e+02 ;    H6S - C16    - C15   
  5811   5814   5815      1    1.1005e+02    3.8802e+02 ;    C15 - C14    - H4R   
  5811   5814   5816      1    1.1005e+02    3.8802e+02 ;    C15 - C14    - H4S   
  5811   5814   5817      1    1.1205e+02    3.9497e+02 ;    C15 - C14    - C13   
  5812   5811   5813      1    1.0835e+02    3.2995e+02 ;    H5R - C15    - H5S   
  5812   5811   5814      1    1.1005e+02    3.8802e+02 ;    H5R - C15    - C14   
  5813   5811   5814      1    1.1005e+02    3.8802e+02 ;    H5S - C15    - C14   
  5814   5817   5818      1    1.1005e+02    3.8802e+02 ;    C14 - C13    - H3R   
  5814   5817   5819      1    1.1005e+02    3.8802e+02 ;    C14 - C13    - H3S   
  5814   5817   5820      1    1.1205e+02    3.9497e+02 ;    C14 - C13    - C12   
  5815   5814   5816      1    1.0835e+02    3.2995e+02 ;    H4R - C14    - H4S   
  5815   5814   5817      1    1.1005e+02    3.8802e+02 ;    H4R - C14    - C13   
  5816   5814   5817      1    1.1005e+02    3.8802e+02 ;    H4S - C14    - C13   
  5817   5820   5821      1    1.1005e+02    3.8802e+02 ;    C13 - C12    - H2R   
  5817   5820   5822      1    1.1005e+02    3.8802e+02 ;    C13 - C12    - H2S   
  5817   5820   5823      1    1.1053e+02    5.3379e+02 ;    C13 - C12    - C11   
  5818   5817   5819      1    1.0835e+02    3.2995e+02 ;    H3R - C13    - H3S   
  5818   5817   5820      1    1.1005e+02    3.8802e+02 ;    H3R - C13    - C12   
  5819   5817   5820      1    1.1005e+02    3.8802e+02 ;    H3S - C13    - C12   
  5820   5823   5824      1    1.2311e+02    5.6928e+02 ;    C12 - C11    - O12   
  5820   5823   5825      1    1.1196e+02    5.7957e+02 ;    C12 - C11    - O11   
  5821   5820   5822      1    1.0835e+02    3.2995e+02 ;    H2R - C12    - H2S   
  5821   5820   5823      1    1.0968e+02    3.9497e+02 ;    H2R - C12    - C11   
  5822   5820   5823      1    1.0968e+02    3.9497e+02 ;    H2S - C12    - C11   
  5823   5825   5826      1    1.1514e+02    5.3246e+02 ;    C11 - O11    - C1    
  5824   5823   5825      1    1.2333e+02    6.3538e+02 ;    O12 - C11    - O11   
  5825   5826   5827      1    1.0882e+02    4.2543e+02 ;    O11 - C1     - HR    
  5825   5826   5828      1    1.0882e+02    4.2543e+02 ;    O11 - C1     - HS    
  5825   5826   5829      1    1.0842e+02    5.6718e+02 ;    O11 - C1     - C2    
  5826   5829   5830      1    1.1007e+02    3.8794e+02 ;     C1 - C2     - HX    
  5826   5829   5831      1    1.1063e+02    5.2894e+02 ;     C1 - C2     - C3    
  5826   5829   5858      1    1.0842e+02    5.6718e+02 ;     C1 - C2     - O21   
  5827   5826   5828      1    1.0955e+02    3.2786e+02 ;     HR - C1     - HS    
  5827   5826   5829      1    1.1007e+02    3.8794e+02 ;     HR - C1     - C2    
  5828   5826   5829      1    1.1007e+02    3.8794e+02 ;     HS - C1     - C2    
  5829   5831   5832      1    1.1007e+02    3.8794e+02 ;     C2 - C3     - HA    
  5829   5831   5833      1    1.1007e+02    3.8794e+02 ;     C2 - C3     - HB    
  5829   5831   5834      1    1.0842e+02    5.6718e+02 ;     C2 - C3     - O31   
  5829   5858   5859      1    1.1514e+02    5.3246e+02 ;     C2 - O21    - C21   
  5830   5829   5831      1    1.1007e+02    3.8794e+02 ;     HX - C2     - C3    
  5830   5829   5858      1    1.0882e+02    4.2543e+02 ;     HX - C2     - O21   
  5831   5829   5858      1    1.0842e+02    5.6718e+02 ;     C3 - C2     - O21   
  5831   5834   5835      1    1.2050e+02    8.3680e+02 ;     C3 - O31    - P31   
  5832   5831   5833      1    1.0955e+02    3.2786e+02 ;     HA - C3     - HB    
  5832   5831   5834      1    1.0882e+02    4.2543e+02 ;     HA - C3     - O31   
  5833   5831   5834      1    1.0882e+02    4.2543e+02 ;     HB - C3     - O31   
  5834   5835   5836      1    1.0260e+02    7.5312e+02 ;    O31 - P31    - O32   
  5834   5835   5856      1    1.0823e+02    8.3680e+02 ;    O31 - P31    - O33   
  5834   5835   5857      1    1.0823e+02    8.3680e+02 ;    O31 - P31    - O34   
  5835   5836   5837      1    1.2050e+02    8.3680e+02 ;    P31 - O32    - C31   
  5836   5835   5856      1    1.0823e+02    8.3680e+02 ;    O32 - P31    - O33   
  5836   5835   5857      1    1.0823e+02    8.3680e+02 ;    O32 - P31    - O34   
  5836   5837   5838      1    1.0882e+02    4.2543e+02 ;    O32 - C31    - H1A   
  5836   5837   5839      1    1.0882e+02    4.2543e+02 ;    O32 - C31    - H1B   
  5836   5837   5840      1    1.0842e+02    5.6718e+02 ;    O32 - C31    - C32   
  5837   5840   5841      1    1.1174e+02    3.8510e+02 ;    C31 - C32    - H2A   
  5837   5840   5842      1    1.1174e+02    3.8510e+02 ;    C31 - C32    - H2B   
  5837   5840   5843      1    1.1432e+02    5.3932e+02 ;    C31 - C32    - N31   
  5838   5837   5839      1    1.0955e+02    3.2786e+02 ;    H1A - C31    - H1B   
  5838   5837   5840      1    1.1007e+02    3.8794e+02 ;    H1A - C31    - C32   
  5839   5837   5840      1    1.1007e+02    3.8794e+02 ;    H1B - C31    - C32   
  5840   5843   5844      1    1.1064e+02    5.2585e+02 ;    C32 - N31    - C33   
  5840   5843   5848      1    1.1064e+02    5.2585e+02 ;    C32 - N31    - C34   
  5840   5843   5852      1    1.1064e+02    5.2585e+02 ;    C32 - N31    - C35   
  5841   5840   5842      1    1.1074e+02    3.2669e+02 ;    H2A - C32    - H2B   
  5841   5840   5843      1    1.0791e+02    4.1020e+02 ;    H2A - C32    - N31   
  5842   5840   5843      1    1.0791e+02    4.1020e+02 ;    H2B - C32    - N31   
  5843   5844   5845      1    1.0791e+02    4.1020e+02 ;    N31 - C33    - H3A   
  5843   5844   5846      1    1.0791e+02    4.1020e+02 ;    N31 - C33    - H3B   
  5843   5844   5847      1    1.0791e+02    4.1020e+02 ;    N31 - C33    - H3C   
  5843   5848   5849      1    1.0791e+02    4.1020e+02 ;    N31 - C34    - H4A   
  5843   5848   5850      1    1.0791e+02    4.1020e+02 ;    N31 - C34    - H4B   
  5843   5848   5851      1    1.0791e+02    4.1020e+02 ;    N31 - C34    - H4C   
  5843   5852   5853      1    1.0791e+02    4.1020e+02 ;    N31 - C35    - H5A   
  5843   5852   5854      1    1.0791e+02    4.1020e+02 ;    N31 - C35    - H5B   
  5843   5852   5855      1    1.0791e+02    4.1020e+02 ;    N31 - C35    - H5C   
  5844   5843   5848      1    1.1064e+02    5.2585e+02 ;    C33 - N31    - C34   
  5844   5843   5852      1    1.1064e+02    5.2585e+02 ;    C33 - N31    - C35   
  5845   5844   5846      1    1.1074e+02    3.2669e+02 ;    H3A - C33    - H3B   
  5845   5844   5847      1    1.1074e+02    3.2669e+02 ;    H3A - C33    - H3C   
  5846   5844   5847      1    1.1074e+02    3.2669e+02 ;    H3B - C33    - H3C   
  5848   5843   5852      1    1.1064e+02    5.2585e+02 ;    C34 - N31    - C35   
  5849   5848   5850      1    1.1074e+02    3.2669e+02 ;    H4A - C34    - H4B   
  5849   5848   5851      1    1.1074e+02    3.2669e+02 ;    H4A - C34    - H4C   
  5850   5848   5851      1    1.1074e+02    3.2669e+02 ;    H4B - C34    - H4C   
  5853   5852   5854      1    1.1074e+02    3.2669e+02 ;    H5A - C35    - H5B   
  5853   5852   5855      1    1.1074e+02    3.2669e+02 ;    H5A - C35    - H5C   
  5854   5852   5855      1    1.1074e+02    3.2669e+02 ;    H5B - C35    - H5C   
  5856   5835   5857      1    1.1990e+02    1.1715e+03 ;    O33 - P31    - O34   
  5858   5859   5860      1    1.2333e+02    6.3538e+02 ;    O21 - C21    - O22   
  5858   5859   5898      1    1.1196e+02    5.7957e+02 ;    O21 - C21    - C12   
  5859   5898   5895      1    1.1053e+02    5.3379e+02 ;    C21 - C12    - C13   
  5859   5898   5899      1    1.0968e+02    3.9497e+02 ;    C21 - C12    - H2R   
  5859   5898   5900      1    1.0968e+02    3.9497e+02 ;    C21 - C12    - H2S   
  5860   5859   5898      1    1.2311e+02    5.6928e+02 ;    O22 - C21    - C12   
  5861   5862   5863      1    1.0835e+02    3.2995e+02 ;   H14T - C114   - H14R  
  5861   5862   5864      1    1.0835e+02    3.2995e+02 ;   H14T - C114   - H14S  
  5861   5862   5865      1    1.1005e+02    3.8802e+02 ;   H14T - C114   - C113  
  5862   5865   5866      1    1.1005e+02    3.8802e+02 ;   C114 - C113   - H13R  
  5862   5865   5867      1    1.1005e+02    3.8802e+02 ;   C114 - C113   - H13S  
  5862   5865   5868      1    1.1205e+02    3.9497e+02 ;   C114 - C113   - C112  
  5863   5862   5864      1    1.0835e+02    3.2995e+02 ;   H14R - C114   - H14S  
  5863   5862   5865      1    1.1005e+02    3.8802e+02 ;   H14R - C114   - C113  
  5864   5862   5865      1    1.1005e+02    3.8802e+02 ;   H14S - C114   - C113  
  5865   5868   5869      1    1.1005e+02    3.8802e+02 ;   C113 - C112   - H12R  
  5865   5868   5870      1    1.1005e+02    3.8802e+02 ;   C113 - C112   - H12S  
  5865   5868   5871      1    1.1205e+02    3.9497e+02 ;   C113 - C112   - C111  
  5866   5865   5867      1    1.0835e+02    3.2995e+02 ;   H13R - C113   - H13S  
  5866   5865   5868      1    1.1005e+02    3.8802e+02 ;   H13R - C113   - C112  
  5867   5865   5868      1    1.1005e+02    3.8802e+02 ;   H13S - C113   - C112  
  5868   5871   5872      1    1.1005e+02    3.8802e+02 ;   C112 - C111   - H11R  
  5868   5871   5873      1    1.1005e+02    3.8802e+02 ;   C112 - C111   - H11S  
  5868   5871   5874      1    1.1205e+02    3.9497e+02 ;   C112 - C111   - C110  
  5869   5868   5870      1    1.0835e+02    3.2995e+02 ;   H12R - C112   - H12S  
  5869   5868   5871      1    1.1005e+02    3.8802e+02 ;   H12R - C112   - C111  
  5870   5868   5871      1    1.1005e+02    3.8802e+02 ;   H12S - C112   - C111  
  5871   5874   5875      1    1.1005e+02    3.8802e+02 ;   C111 - C110   - H10R  
  5871   5874   5876      1    1.1005e+02    3.8802e+02 ;   C111 - C110   - H10S  
  5871   5874   5877      1    1.1205e+02    3.9497e+02 ;   C111 - C110   - C19   
  5872   5871   5873      1    1.0835e+02    3.2995e+02 ;   H11R - C111   - H11S  
  5872   5871   5874      1    1.1005e+02    3.8802e+02 ;   H11R - C111   - C110  
  5873   5871   5874      1    1.1005e+02    3.8802e+02 ;   H11S - C111   - C110  
  5874   5877   5878      1    1.1005e+02    3.8802e+02 ;   C110 - C19    - H9R   
  5874   5877   5879      1    1.1005e+02    3.8802e+02 ;   C110 - C19    - H9S   
  5874   5877   5880      1    1.1205e+02    3.9497e+02 ;   C110 - C19    - C18   
  5875   5874   5876      1    1.0835e+02    3.2995e+02 ;   H10R - C110   - H10S  
  5875   5874   5877      1    1.1005e+02    3.8802e+02 ;   H10R - C110   - C19   
  5876   5874   5877      1    1.1005e+02    3.8802e+02 ;   H10S - C110   - C19   
  5877   5880   5881      1    1.1005e+02    3.8802e+02 ;    C19 - C18    - H8R   
  5877   5880   5882      1    1.1005e+02    3.8802e+02 ;    C19 - C18    - H8S   
  5877   5880   5883      1    1.1205e+02    3.9497e+02 ;    C19 - C18    - C17   
  5878   5877   5879      1    1.0835e+02    3.2995e+02 ;    H9R - C19    - H9S   
  5878   5877   5880      1    1.1005e+02    3.8802e+02 ;    H9R - C19    - C18   
  5879   5877   5880      1    1.1005e+02    3.8802e+02 ;    H9S - C19    - C18   
  5880   5883   5884      1    1.1005e+02    3.8802e+02 ;    C18 - C17    - H7R   
  5880   5883   5885      1    1.1005e+02    3.8802e+02 ;    C18 - C17    - H7S   
  5880   5883   5886      1    1.1205e+02    3.9497e+02 ;    C18 - C17    - C16   
  5881   5880   5882      1    1.0835e+02    3.2995e+02 ;    H8R - C18    - H8S   
  5881   5880   5883      1    1.1005e+02    3.8802e+02 ;    H8R - C18    - C17   
  5882   5880   5883      1    1.1005e+02    3.8802e+02 ;    H8S - C18    - C17   
  5883   5886   5887      1    1.1005e+02    3.8802e+02 ;    C17 - C16    - H6R   
  5883   5886   5888      1    1.1005e+02    3.8802e+02 ;    C17 - C16    - H6S   
  5883   5886   5889      1    1.1205e+02    3.9497e+02 ;    C17 - C16    - C15   
  5884   5883   5885      1    1.0835e+02    3.2995e+02 ;    H7R - C17    - H7S   
  5884   5883   5886      1    1.1005e+02    3.8802e+02 ;    H7R - C17    - C16   
  5885   5883   5886      1    1.1005e+02    3.8802e+02 ;    H7S - C17    - C16   
  5886   5889   5890      1    1.1005e+02    3.8802e+02 ;    C16 - C15    - H5R   
  5886   5889   5891      1    1.1005e+02    3.8802e+02 ;    C16 - C15    - H5S   
  5886   5889   5892      1    1.1205e+02    3.9497e+02 ;    C16 - C15    - C14   
  5887   5886   5888      1    1.0835e+02    3.2995e+02 ;    H6R - C16    - H6S   
  5887   5886   5889      1    1.1005e+02    3.8802e+02 ;    H6R - C16    - C15   
  5888   5886   5889      1    1.1005e+02    3.8802e+02 ;    H6S - C16    - C15   
  5889   5892   5893      1    1.1005e+02    3.8802e+02 ;    C15 - C14    - H4R   
  5889   5892   5894      1    1.1005e+02    3.8802e+02 ;    C15 - C14    - H4S   
  5889   5892   5895      1    1.1205e+02    3.9497e+02 ;    C15 - C14    - C13   
  5890   5889   5891      1    1.0835e+02    3.2995e+02 ;    H5R - C15    - H5S   
  5890   5889   5892      1    1.1005e+02    3.8802e+02 ;    H5R - C15    - C14   
  5891   5889   5892      1    1.1005e+02    3.8802e+02 ;    H5S - C15    - C14   
  5892   5895   5896      1    1.1005e+02    3.8802e+02 ;    C14 - C13    - H3R   
  5892   5895   5897      1    1.1005e+02    3.8802e+02 ;    C14 - C13    - H3S   
  5892   5895   5898      1    1.1205e+02    3.9497e+02 ;    C14 - C13    - C12   
  5893   5892   5894      1    1.0835e+02    3.2995e+02 ;    H4R - C14    - H4S   
  5893   5892   5895      1    1.1005e+02    3.8802e+02 ;    H4R - C14    - C13   
  5894   5892   5895      1    1.1005e+02    3.8802e+02 ;    H4S - C14    - C13   
  5895   5898   5899      1    1.1005e+02    3.8802e+02 ;    C13 - C12    - H2R   
  5895   5898   5900      1    1.1005e+02    3.8802e+02 ;    C13 - C12    - H2S   
  5896   5895   5897      1    1.0835e+02    3.2995e+02 ;    H3R - C13    - H3S   
  5896   5895   5898      1    1.1005e+02    3.8802e+02 ;    H3R - C13    - C12   
  5897   5895   5898      1    1.1005e+02    3.8802e+02 ;    H3S - C13    - C12   
  5899   5898   5900      1    1.0835e+02    3.2995e+02 ;    H2R - C12    - H2S   
  5901   5902   5903      1    1.0835e+02    3.2995e+02 ;   H14T - C114   - H14R  
  5901   5902   5904      1    1.0835e+02    3.2995e+02 ;   H14T - C114   - H14S  
  5901   5902   5905      1    1.1005e+02    3.8802e+02 ;   H14T - C114   - C113  
  5902   5905   5906      1    1.1005e+02    3.8802e+02 ;   C114 - C113   - H13R  
  5902   5905   5907      1    1.1005e+02    3.8802e+02 ;   C114 - C113   - H13S  
  5902   5905   5908      1    1.1205e+02    3.9497e+02 ;   C114 - C113   - C112  
  5903   5902   5904      1    1.0835e+02    3.2995e+02 ;   H14R - C114   - H14S  
  5903   5902   5905      1    1.1005e+02    3.8802e+02 ;   H14R - C114   - C113  
  5904   5902   5905      1    1.1005e+02    3.8802e+02 ;   H14S - C114   - C113  
  5905   5908   5909      1    1.1005e+02    3.8802e+02 ;   C113 - C112   - H12R  
  5905   5908   5910      1    1.1005e+02    3.8802e+02 ;   C113 - C112   - H12S  
  5905   5908   5911      1    1.1205e+02    3.9497e+02 ;   C113 - C112   - C111  
  5906   5905   5907      1    1.0835e+02    3.2995e+02 ;   H13R - C113   - H13S  
  5906   5905   5908      1    1.1005e+02    3.8802e+02 ;   H13R - C113   - C112  
  5907   5905   5908      1    1.1005e+02    3.8802e+02 ;   H13S - C113   - C112  
  5908   5911   5912      1    1.1005e+02    3.8802e+02 ;   C112 - C111   - H11R  
  5908   5911   5913      1    1.1005e+02    3.8802e+02 ;   C112 - C111   - H11S  
  5908   5911   5914      1    1.1205e+02    3.9497e+02 ;   C112 - C111   - C110  
  5909   5908   5910      1    1.0835e+02    3.2995e+02 ;   H12R - C112   - H12S  
  5909   5908   5911      1    1.1005e+02    3.8802e+02 ;   H12R - C112   - C111  
  5910   5908   5911      1    1.1005e+02    3.8802e+02 ;   H12S - C112   - C111  
  5911   5914   5915      1    1.1005e+02    3.8802e+02 ;   C111 - C110   - H10R  
  5911   5914   5916      1    1.1005e+02    3.8802e+02 ;   C111 - C110   - H10S  
  5911   5914   5917      1    1.1205e+02    3.9497e+02 ;   C111 - C110   - C19   
  5912   5911   5913      1    1.0835e+02    3.2995e+02 ;   H11R - C111   - H11S  
  5912   5911   5914      1    1.1005e+02    3.8802e+02 ;   H11R - C111   - C110  
  5913   5911   5914      1    1.1005e+02    3.8802e+02 ;   H11S - C111   - C110  
  5914   5917   5918      1    1.1005e+02    3.8802e+02 ;   C110 - C19    - H9R   
  5914   5917   5919      1    1.1005e+02    3.8802e+02 ;   C110 - C19    - H9S   
  5914   5917   5920      1    1.1205e+02    3.9497e+02 ;   C110 - C19    - C18   
  5915   5914   5916      1    1.0835e+02    3.2995e+02 ;   H10R - C110   - H10S  
  5915   5914   5917      1    1.1005e+02    3.8802e+02 ;   H10R - C110   - C19   
  5916   5914   5917      1    1.1005e+02    3.8802e+02 ;   H10S - C110   - C19   
  5917   5920   5921      1    1.1005e+02    3.8802e+02 ;    C19 - C18    - H8R   
  5917   5920   5922      1    1.1005e+02    3.8802e+02 ;    C19 - C18    - H8S   
  5917   5920   5923      1    1.1205e+02    3.9497e+02 ;    C19 - C18    - C17   
  5918   5917   5919      1    1.0835e+02    3.2995e+02 ;    H9R - C19    - H9S   
  5918   5917   5920      1    1.1005e+02    3.8802e+02 ;    H9R - C19    - C18   
  5919   5917   5920      1    1.1005e+02    3.8802e+02 ;    H9S - C19    - C18   
  5920   5923   5924      1    1.1005e+02    3.8802e+02 ;    C18 - C17    - H7R   
  5920   5923   5925      1    1.1005e+02    3.8802e+02 ;    C18 - C17    - H7S   
  5920   5923   5926      1    1.1205e+02    3.9497e+02 ;    C18 - C17    - C16   
  5921   5920   5922      1    1.0835e+02    3.2995e+02 ;    H8R - C18    - H8S   
  5921   5920   5923      1    1.1005e+02    3.8802e+02 ;    H8R - C18    - C17   
  5922   5920   5923      1    1.1005e+02    3.8802e+02 ;    H8S - C18    - C17   
  5923   5926   5927      1    1.1005e+02    3.8802e+02 ;    C17 - C16    - H6R   
  5923   5926   5928      1    1.1005e+02    3.8802e+02 ;    C17 - C16    - H6S   
  5923   5926   5929      1    1.1205e+02    3.9497e+02 ;    C17 - C16    - C15   
  5924   5923   5925      1    1.0835e+02    3.2995e+02 ;    H7R - C17    - H7S   
  5924   5923   5926      1    1.1005e+02    3.8802e+02 ;    H7R - C17    - C16   
  5925   5923   5926      1    1.1005e+02    3.8802e+02 ;    H7S - C17    - C16   
  5926   5929   5930      1    1.1005e+02    3.8802e+02 ;    C16 - C15    - H5R   
  5926   5929   5931      1    1.1005e+02    3.8802e+02 ;    C16 - C15    - H5S   
  5926   5929   5932      1    1.1205e+02    3.9497e+02 ;    C16 - C15    - C14   
  5927   5926   5928      1    1.0835e+02    3.2995e+02 ;    H6R - C16    - H6S   
  5927   5926   5929      1    1.1005e+02    3.8802e+02 ;    H6R - C16    - C15   
  5928   5926   5929      1    1.1005e+02    3.8802e+02 ;    H6S - C16    - C15   
  5929   5932   5933      1    1.1005e+02    3.8802e+02 ;    C15 - C14    - H4R   
  5929   5932   5934      1    1.1005e+02    3.8802e+02 ;    C15 - C14    - H4S   
  5929   5932   5935      1    1.1205e+02    3.9497e+02 ;    C15 - C14    - C13   
  5930   5929   5931      1    1.0835e+02    3.2995e+02 ;    H5R - C15    - H5S   
  5930   5929   5932      1    1.1005e+02    3.8802e+02 ;    H5R - C15    - C14   
  5931   5929   5932      1    1.1005e+02    3.8802e+02 ;    H5S - C15    - C14   
  5932   5935   5936      1    1.1005e+02    3.8802e+02 ;    C14 - C13    - H3R   
  5932   5935   5937      1    1.1005e+02    3.8802e+02 ;    C14 - C13    - H3S   
  5932   5935   5938      1    1.1205e+02    3.9497e+02 ;    C14 - C13    - C12   
  5933   5932   5934      1    1.0835e+02    3.2995e+02 ;    H4R - C14    - H4S   
  5933   5932   5935      1    1.1005e+02    3.8802e+02 ;    H4R - C14    - C13   
  5934   5932   5935      1    1.1005e+02    3.8802e+02 ;    H4S - C14    - C13   
  5935   5938   5939      1    1.1005e+02    3.8802e+02 ;    C13 - C12    - H2R   
  5935   5938   5940      1    1.1005e+02    3.8802e+02 ;    C13 - C12    - H2S   
  5935   5938   5941      1    1.1053e+02    5.3379e+02 ;    C13 - C12    - C11   
  5936   5935   5937      1    1.0835e+02    3.2995e+02 ;    H3R - C13    - H3S   
  5936   5935   5938      1    1.1005e+02    3.8802e+02 ;    H3R - C13    - C12   
  5937   5935   5938      1    1.1005e+02    3.8802e+02 ;    H3S - C13    - C12   
  5938   5941   5942      1    1.2311e+02    5.6928e+02 ;    C12 - C11    - O12   
  5938   5941   5943      1    1.1196e+02    5.7957e+02 ;    C12 - C11    - O11   
  5939   5938   5940      1    1.0835e+02    3.2995e+02 ;    H2R - C12    - H2S   
  5939   5938   5941      1    1.0968e+02    3.9497e+02 ;    H2R - C12    - C11   
  5940   5938   5941      1    1.0968e+02    3.9497e+02 ;    H2S - C12    - C11   
  5941   5943   5944      1    1.1514e+02    5.3246e+02 ;    C11 - O11    - C1    
  5942   5941   5943      1    1.2333e+02    6.3538e+02 ;    O12 - C11    - O11   
  5943   5944   5945      1    1.0882e+02    4.2543e+02 ;    O11 - C1     - HR    
  5943   5944   5946      1    1.0882e+02    4.2543e+02 ;    O11 - C1     - HS    
  5943   5944   5947      1    1.0842e+02    5.6718e+02 ;    O11 - C1     - C2    
  5944   5947   5948      1    1.1007e+02    3.8794e+02 ;     C1 - C2     - HX    
  5944   5947   5949      1    1.1063e+02    5.2894e+02 ;     C1 - C2     - C3    
  5944   5947   5976      1    1.0842e+02    5.6718e+02 ;     C1 - C2     - O21   
  5945   5944   5946      1    1.0955e+02    3.2786e+02 ;     HR - C1     - HS    
  5945   5944   5947      1    1.1007e+02    3.8794e+02 ;     HR - C1     - C2    
  5946   5944   5947      1    1.1007e+02    3.8794e+02 ;     HS - C1     - C2    
  5947   5949   5950      1    1.1007e+02    3.8794e+02 ;     C2 - C3     - HA    
  5947   5949   5951      1    1.1007e+02    3.8794e+02 ;     C2 - C3     - HB    
  5947   5949   5952      1    1.0842e+02    5.6718e+02 ;     C2 - C3     - O31   
  5947   5976   5977      1    1.1514e+02    5.3246e+02 ;     C2 - O21    - C21   
  5948   5947   5949      1    1.1007e+02    3.8794e+02 ;     HX - C2     - C3    
  5948   5947   5976      1    1.0882e+02    4.2543e+02 ;     HX - C2     - O21   
  5949   5947   5976      1    1.0842e+02    5.6718e+02 ;     C3 - C2     - O21   
  5949   5952   5953      1    1.2050e+02    8.3680e+02 ;     C3 - O31    - P31   
  5950   5949   5951      1    1.0955e+02    3.2786e+02 ;     HA - C3     - HB    
  5950   5949   5952      1    1.0882e+02    4.2543e+02 ;     HA - C3     - O31   
  5951   5949   5952      1    1.0882e+02    4.2543e+02 ;     HB - C3     - O31   
  5952   5953   5954      1    1.0260e+02    7.5312e+02 ;    O31 - P31    - O32   
  5952   5953   5974      1    1.0823e+02    8.3680e+02 ;    O31 - P31    - O33   
  5952   5953   5975      1    1.0823e+02    8.3680e+02 ;    O31 - P31    - O34   
  5953   5954   5955      1    1.2050e+02    8.3680e+02 ;    P31 - O32    - C31   
  5954   5953   5974      1    1.0823e+02    8.3680e+02 ;    O32 - P31    - O33   
  5954   5953   5975      1    1.0823e+02    8.3680e+02 ;    O32 - P31    - O34   
  5954   5955   5956      1    1.0882e+02    4.2543e+02 ;    O32 - C31    - H1A   
  5954   5955   5957      1    1.0882e+02    4.2543e+02 ;    O32 - C31    - H1B   
  5954   5955   5958      1    1.0842e+02    5.6718e+02 ;    O32 - C31    - C32   
  5955   5958   5959      1    1.1174e+02    3.8510e+02 ;    C31 - C32    - H2A   
  5955   5958   5960      1    1.1174e+02    3.8510e+02 ;    C31 - C32    - H2B   
  5955   5958   5961      1    1.1432e+02    5.3932e+02 ;    C31 - C32    - N31   
  5956   5955   5957      1    1.0955e+02    3.2786e+02 ;    H1A - C31    - H1B   
  5956   5955   5958      1    1.1007e+02    3.8794e+02 ;    H1A - C31    - C32   
  5957   5955   5958      1    1.1007e+02    3.8794e+02 ;    H1B - C31    - C32   
  5958   5961   5962      1    1.1064e+02    5.2585e+02 ;    C32 - N31    - C33   
  5958   5961   5966      1    1.1064e+02    5.2585e+02 ;    C32 - N31    - C34   
  5958   5961   5970      1    1.1064e+02    5.2585e+02 ;    C32 - N31    - C35   
  5959   5958   5960      1    1.1074e+02    3.2669e+02 ;    H2A - C32    - H2B   
  5959   5958   5961      1    1.0791e+02    4.1020e+02 ;    H2A - C32    - N31   
  5960   5958   5961      1    1.0791e+02    4.1020e+02 ;    H2B - C32    - N31   
  5961   5962   5963      1    1.0791e+02    4.1020e+02 ;    N31 - C33    - H3A   
  5961   5962   5964      1    1.0791e+02    4.1020e+02 ;    N31 - C33    - H3B   
  5961   5962   5965      1    1.0791e+02    4.1020e+02 ;    N31 - C33    - H3C   
  5961   5966   5967      1    1.0791e+02    4.1020e+02 ;    N31 - C34    - H4A   
  5961   5966   5968      1    1.0791e+02    4.1020e+02 ;    N31 - C34    - H4B   
  5961   5966   5969      1    1.0791e+02    4.1020e+02 ;    N31 - C34    - H4C   
  5961   5970   5971      1    1.0791e+02    4.1020e+02 ;    N31 - C35    - H5A   
  5961   5970   5972      1    1.0791e+02    4.1020e+02 ;    N31 - C35    - H5B   
  5961   5970   5973      1    1.0791e+02    4.1020e+02 ;    N31 - C35    - H5C   
  5962   5961   5966      1    1.1064e+02    5.2585e+02 ;    C33 - N31    - C34   
  5962   5961   5970      1    1.1064e+02    5.2585e+02 ;    C33 - N31    - C35   
  5963   5962   5964      1    1.1074e+02    3.2669e+02 ;    H3A - C33    - H3B   
  5963   5962   5965      1    1.1074e+02    3.2669e+02 ;    H3A - C33    - H3C   
  5964   5962   5965      1    1.1074e+02    3.2669e+02 ;    H3B - C33    - H3C   
  5966   5961   5970      1    1.1064e+02    5.2585e+02 ;    C34 - N31    - C35   
  5967   5966   5968      1    1.1074e+02    3.2669e+02 ;    H4A - C34    - H4B   
  5967   5966   5969      1    1.1074e+02    3.2669e+02 ;    H4A - C34    - H4C   
  5968   5966   5969      1    1.1074e+02    3.2669e+02 ;    H4B - C34    - H4C   
  5971   5970   5972      1    1.1074e+02    3.2669e+02 ;    H5A - C35    - H5B   
  5971   5970   5973      1    1.1074e+02    3.2669e+02 ;    H5A - C35    - H5C   
  5972   5970   5973      1    1.1074e+02    3.2669e+02 ;    H5B - C35    - H5C   
  5974   5953   5975      1    1.1990e+02    1.1715e+03 ;    O33 - P31    - O34   
  5976   5977   5978      1    1.2333e+02    6.3538e+02 ;    O21 - C21    - O22   
  5976   5977   6016      1    1.1196e+02    5.7957e+02 ;    O21 - C21    - C12   
  5977   6016   6013      1    1.1053e+02    5.3379e+02 ;    C21 - C12    - C13   
  5977   6016   6017      1    1.0968e+02    3.9497e+02 ;    C21 - C12    - H2R   
  5977   6016   6018      1    1.0968e+02    3.9497e+02 ;    C21 - C12    - H2S   
  5978   5977   6016      1    1.2311e+02    5.6928e+02 ;    O22 - C21    - C12   
  5979   5980   5981      1    1.0835e+02    3.2995e+02 ;   H14T - C114   - H14R  
  5979   5980   5982      1    1.0835e+02    3.2995e+02 ;   H14T - C114   - H14S  
  5979   5980   5983      1    1.1005e+02    3.8802e+02 ;   H14T - C114   - C113  
  5980   5983   5984      1    1.1005e+02    3.8802e+02 ;   C114 - C113   - H13R  
  5980   5983   5985      1    1.1005e+02    3.8802e+02 ;   C114 - C113   - H13S  
  5980   5983   5986      1    1.1205e+02    3.9497e+02 ;   C114 - C113   - C112  
  5981   5980   5982      1    1.0835e+02    3.2995e+02 ;   H14R - C114   - H14S  
  5981   5980   5983      1    1.1005e+02    3.8802e+02 ;   H14R - C114   - C113  
  5982   5980   5983      1    1.1005e+02    3.8802e+02 ;   H14S - C114   - C113  
  5983   5986   5987      1    1.1005e+02    3.8802e+02 ;   C113 - C112   - H12R  
  5983   5986   5988      1    1.1005e+02    3.8802e+02 ;   C113 - C112   - H12S  
  5983   5986   5989      1    1.1205e+02    3.9497e+02 ;   C113 - C112   - C111  
  5984   5983   5985      1    1.0835e+02    3.2995e+02 ;   H13R - C113   - H13S  
  5984   5983   5986      1    1.1005e+02    3.8802e+02 ;   H13R - C113   - C112  
  5985   5983   5986      1    1.1005e+02    3.8802e+02 ;   H13S - C113   - C112  
  5986   5989   5990      1    1.1005e+02    3.8802e+02 ;   C112 - C111   - H11R  
  5986   5989   5991      1    1.1005e+02    3.8802e+02 ;   C112 - C111   - H11S  
  5986   5989   5992      1    1.1205e+02    3.9497e+02 ;   C112 - C111   - C110  
  5987   5986   5988      1    1.0835e+02    3.2995e+02 ;   H12R - C112   - H12S  
  5987   5986   5989      1    1.1005e+02    3.8802e+02 ;   H12R - C112   - C111  
  5988   5986   5989      1    1.1005e+02    3.8802e+02 ;   H12S - C112   - C111  
  5989   5992   5993      1    1.1005e+02    3.8802e+02 ;   C111 - C110   - H10R  
  5989   5992   5994      1    1.1005e+02    3.8802e+02 ;   C111 - C110   - H10S  
  5989   5992   5995      1    1.1205e+02    3.9497e+02 ;   C111 - C110   - C19   
  5990   5989   5991      1    1.0835e+02    3.2995e+02 ;   H11R - C111   - H11S  
  5990   5989   5992      1    1.1005e+02    3.8802e+02 ;   H11R - C111   - C110  
  5991   5989   5992      1    1.1005e+02    3.8802e+02 ;   H11S - C111   - C110  
  5992   5995   5996      1    1.1005e+02    3.8802e+02 ;   C110 - C19    - H9R   
  5992   5995   5997      1    1.1005e+02    3.8802e+02 ;   C110 - C19    - H9S   
  5992   5995   5998      1    1.1205e+02    3.9497e+02 ;   C110 - C19    - C18   
  5993   5992   5994      1    1.0835e+02    3.2995e+02 ;   H10R - C110   - H10S  
  5993   5992   5995      1    1.1005e+02    3.8802e+02 ;   H10R - C110   - C19   
  5994   5992   5995      1    1.1005e+02    3.8802e+02 ;   H10S - C110   - C19   
  5995   5998   5999      1    1.1005e+02    3.8802e+02 ;    C19 - C18    - H8R   
  5995   5998   6000      1    1.1005e+02    3.8802e+02 ;    C19 - C18    - H8S   
  5995   5998   6001      1    1.1205e+02    3.9497e+02 ;    C19 - C18    - C17   
  5996   5995   5997      1    1.0835e+02    3.2995e+02 ;    H9R - C19    - H9S   
  5996   5995   5998      1    1.1005e+02    3.8802e+02 ;    H9R - C19    - C18   
  5997   5995   5998      1    1.1005e+02    3.8802e+02 ;    H9S - C19    - C18   
  5998   6001   6002      1    1.1005e+02    3.8802e+02 ;    C18 - C17    - H7R   
  5998   6001   6003      1    1.1005e+02    3.8802e+02 ;    C18 - C17    - H7S   
  5998   6001   6004      1    1.1205e+02    3.9497e+02 ;    C18 - C17    - C16   
  5999   5998   6000      1    1.0835e+02    3.2995e+02 ;    H8R - C18    - H8S   
  5999   5998   6001      1    1.1005e+02    3.8802e+02 ;    H8R - C18    - C17   
  6000   5998   6001      1    1.1005e+02    3.8802e+02 ;    H8S - C18    - C17   
  6001   6004   6005      1    1.1005e+02    3.8802e+02 ;    C17 - C16    - H6R   
  6001   6004   6006      1    1.1005e+02    3.8802e+02 ;    C17 - C16    - H6S   
  6001   6004   6007      1    1.1205e+02    3.9497e+02 ;    C17 - C16    - C15   
  6002   6001   6003      1    1.0835e+02    3.2995e+02 ;    H7R - C17    - H7S   
  6002   6001   6004      1    1.1005e+02    3.8802e+02 ;    H7R - C17    - C16   
  6003   6001   6004      1    1.1005e+02    3.8802e+02 ;    H7S - C17    - C16   
  6004   6007   6008      1    1.1005e+02    3.8802e+02 ;    C16 - C15    - H5R   
  6004   6007   6009      1    1.1005e+02    3.8802e+02 ;    C16 - C15    - H5S   
  6004   6007   6010      1    1.1205e+02    3.9497e+02 ;    C16 - C15    - C14   
  6005   6004   6006      1    1.0835e+02    3.2995e+02 ;    H6R - C16    - H6S   
  6005   6004   6007      1    1.1005e+02    3.8802e+02 ;    H6R - C16    - C15   
  6006   6004   6007      1    1.1005e+02    3.8802e+02 ;    H6S - C16    - C15   
  6007   6010   6011      1    1.1005e+02    3.8802e+02 ;    C15 - C14    - H4R   
  6007   6010   6012      1    1.1005e+02    3.8802e+02 ;    C15 - C14    - H4S   
  6007   6010   6013      1    1.1205e+02    3.9497e+02 ;    C15 - C14    - C13   
  6008   6007   6009      1    1.0835e+02    3.2995e+02 ;    H5R - C15    - H5S   
  6008   6007   6010      1    1.1005e+02    3.8802e+02 ;    H5R - C15    - C14   
  6009   6007   6010      1    1.1005e+02    3.8802e+02 ;    H5S - C15    - C14   
  6010   6013   6014      1    1.1005e+02    3.8802e+02 ;    C14 - C13    - H3R   
  6010   6013   6015      1    1.1005e+02    3.8802e+02 ;    C14 - C13    - H3S   
  6010   6013   6016      1    1.1205e+02    3.9497e+02 ;    C14 - C13    - C12   
  6011   6010   6012      1    1.0835e+02    3.2995e+02 ;    H4R - C14    - H4S   
  6011   6010   6013      1    1.1005e+02    3.8802e+02 ;    H4R - C14    - C13   
  6012   6010   6013      1    1.1005e+02    3.8802e+02 ;    H4S - C14    - C13   
  6013   6016   6017      1    1.1005e+02    3.8802e+02 ;    C13 - C12    - H2R   
  6013   6016   6018      1    1.1005e+02    3.8802e+02 ;    C13 - C12    - H2S   
  6014   6013   6015      1    1.0835e+02    3.2995e+02 ;    H3R - C13    - H3S   
  6014   6013   6016      1    1.1005e+02    3.8802e+02 ;    H3R - C13    - C12   
  6015   6013   6016      1    1.1005e+02    3.8802e+02 ;    H3S - C13    - C12   
  6017   6016   6018      1    1.0835e+02    3.2995e+02 ;    H2R - C12    - H2S   
  6019   6020   6021      1    1.0835e+02    3.2995e+02 ;   H14T - C114   - H14R  
  6019   6020   6022      1    1.0835e+02    3.2995e+02 ;   H14T - C114   - H14S  
  6019   6020   6023      1    1.1005e+02    3.8802e+02 ;   H14T - C114   - C113  
  6020   6023   6024      1    1.1005e+02    3.8802e+02 ;   C114 - C113   - H13R  
  6020   6023   6025      1    1.1005e+02    3.8802e+02 ;   C114 - C113   - H13S  
  6020   6023   6026      1    1.1205e+02    3.9497e+02 ;   C114 - C113   - C112  
  6021   6020   6022      1    1.0835e+02    3.2995e+02 ;   H14R - C114   - H14S  
  6021   6020   6023      1    1.1005e+02    3.8802e+02 ;   H14R - C114   - C113  
  6022   6020   6023      1    1.1005e+02    3.8802e+02 ;   H14S - C114   - C113  
  6023   6026   6027      1    1.1005e+02    3.8802e+02 ;   C113 - C112   - H12R  
  6023   6026   6028      1    1.1005e+02    3.8802e+02 ;   C113 - C112   - H12S  
  6023   6026   6029      1    1.1205e+02    3.9497e+02 ;   C113 - C112   - C111  
  6024   6023   6025      1    1.0835e+02    3.2995e+02 ;   H13R - C113   - H13S  
  6024   6023   6026      1    1.1005e+02    3.8802e+02 ;   H13R - C113   - C112  
  6025   6023   6026      1    1.1005e+02    3.8802e+02 ;   H13S - C113   - C112  
  6026   6029   6030      1    1.1005e+02    3.8802e+02 ;   C112 - C111   - H11R  
  6026   6029   6031      1    1.1005e+02    3.8802e+02 ;   C112 - C111   - H11S  
  6026   6029   6032      1    1.1205e+02    3.9497e+02 ;   C112 - C111   - C110  
  6027   6026   6028      1    1.0835e+02    3.2995e+02 ;   H12R - C112   - H12S  
  6027   6026   6029      1    1.1005e+02    3.8802e+02 ;   H12R - C112   - C111  
  6028   6026   6029      1    1.1005e+02    3.8802e+02 ;   H12S - C112   - C111  
  6029   6032   6033      1    1.1005e+02    3.8802e+02 ;   C111 - C110   - H10R  
  6029   6032   6034      1    1.1005e+02    3.8802e+02 ;   C111 - C110   - H10S  
  6029   6032   6035      1    1.1205e+02    3.9497e+02 ;   C111 - C110   - C19   
  6030   6029   6031      1    1.0835e+02    3.2995e+02 ;   H11R - C111   - H11S  
  6030   6029   6032      1    1.1005e+02    3.8802e+02 ;   H11R - C111   - C110  
  6031   6029   6032      1    1.1005e+02    3.8802e+02 ;   H11S - C111   - C110  
  6032   6035   6036      1    1.1005e+02    3.8802e+02 ;   C110 - C19    - H9R   
  6032   6035   6037      1    1.1005e+02    3.8802e+02 ;   C110 - C19    - H9S   
  6032   6035   6038      1    1.1205e+02    3.9497e+02 ;   C110 - C19    - C18   
  6033   6032   6034      1    1.0835e+02    3.2995e+02 ;   H10R - C110   - H10S  
  6033   6032   6035      1    1.1005e+02    3.8802e+02 ;   H10R - C110   - C19   
  6034   6032   6035      1    1.1005e+02    3.8802e+02 ;   H10S - C110   - C19   
  6035   6038   6039      1    1.1005e+02    3.8802e+02 ;    C19 - C18    - H8R   
  6035   6038   6040      1    1.1005e+02    3.8802e+02 ;    C19 - C18    - H8S   
  6035   6038   6041      1    1.1205e+02    3.9497e+02 ;    C19 - C18    - C17   
  6036   6035   6037      1    1.0835e+02    3.2995e+02 ;    H9R - C19    - H9S   
  6036   6035   6038      1    1.1005e+02    3.8802e+02 ;    H9R - C19    - C18   
  6037   6035   6038      1    1.1005e+02    3.8802e+02 ;    H9S - C19    - C18   
  6038   6041   6042      1    1.1005e+02    3.8802e+02 ;    C18 - C17    - H7R   
  6038   6041   6043      1    1.1005e+02    3.8802e+02 ;    C18 - C17    - H7S   
  6038   6041   6044      1    1.1205e+02    3.9497e+02 ;    C18 - C17    - C16   
  6039   6038   6040      1    1.0835e+02    3.2995e+02 ;    H8R - C18    - H8S   
  6039   6038   6041      1    1.1005e+02    3.8802e+02 ;    H8R - C18    - C17   
  6040   6038   6041      1    1.1005e+02    3.8802e+02 ;    H8S - C18    - C17   
  6041   6044   6045      1    1.1005e+02    3.8802e+02 ;    C17 - C16    - H6R   
  6041   6044   6046      1    1.1005e+02    3.8802e+02 ;    C17 - C16    - H6S   
  6041   6044   6047      1    1.1205e+02    3.9497e+02 ;    C17 - C16    - C15   
  6042   6041   6043      1    1.0835e+02    3.2995e+02 ;    H7R - C17    - H7S   
  6042   6041   6044      1    1.1005e+02    3.8802e+02 ;    H7R - C17    - C16   
  6043   6041   6044      1    1.1005e+02    3.8802e+02 ;    H7S - C17    - C16   
  6044   6047   6048      1    1.1005e+02    3.8802e+02 ;    C16 - C15    - H5R   
  6044   6047   6049      1    1.1005e+02    3.8802e+02 ;    C16 - C15    - H5S   
  6044   6047   6050      1    1.1205e+02    3.9497e+02 ;    C16 - C15    - C14   
  6045   6044   6046      1    1.0835e+02    3.2995e+02 ;    H6R - C16    - H6S   
  6045   6044   6047      1    1.1005e+02    3.8802e+02 ;    H6R - C16    - C15   
  6046   6044   6047      1    1.1005e+02    3.8802e+02 ;    H6S - C16    - C15   
  6047   6050   6051      1    1.1005e+02    3.8802e+02 ;    C15 - C14    - H4R   
  6047   6050   6052      1    1.1005e+02    3.8802e+02 ;    C15 - C14    - H4S   
  6047   6050   6053      1    1.1205e+02    3.9497e+02 ;    C15 - C14    - C13   
  6048   6047   6049      1    1.0835e+02    3.2995e+02 ;    H5R - C15    - H5S   
  6048   6047   6050      1    1.1005e+02    3.8802e+02 ;    H5R - C15    - C14   
  6049   6047   6050      1    1.1005e+02    3.8802e+02 ;    H5S - C15    - C14   
  6050   6053   6054      1    1.1005e+02    3.8802e+02 ;    C14 - C13    - H3R   
  6050   6053   6055      1    1.1005e+02    3.8802e+02 ;    C14 - C13    - H3S   
  6050   6053   6056      1    1.1205e+02    3.9497e+02 ;    C14 - C13    - C12   
  6051   6050   6052      1    1.0835e+02    3.2995e+02 ;    H4R - C14    - H4S   
  6051   6050   6053      1    1.1005e+02    3.8802e+02 ;    H4R - C14    - C13   
  6052   6050   6053      1    1.1005e+02    3.8802e+02 ;    H4S - C14    - C13   
  6053   6056   6057      1    1.1005e+02    3.8802e+02 ;    C13 - C12    - H2R   
  6053   6056   6058      1    1.1005e+02    3.8802e+02 ;    C13 - C12    - H2S   
  6053   6056   6059      1    1.1053e+02    5.3379e+02 ;    C13 - C12    - C11   
  6054   6053   6055      1    1.0835e+02    3.2995e+02 ;    H3R - C13    - H3S   
  6054   6053   6056      1    1.1005e+02    3.8802e+02 ;    H3R - C13    - C12   
  6055   6053   6056      1    1.1005e+02    3.8802e+02 ;    H3S - C13    - C12   
  6056   6059   6060      1    1.2311e+02    5.6928e+02 ;    C12 - C11    - O12   
  6056   6059   6061      1    1.1196e+02    5.7957e+02 ;    C12 - C11    - O11   
  6057   6056   6058      1    1.0835e+02    3.2995e+02 ;    H2R - C12    - H2S   
  6057   6056   6059      1    1.0968e+02    3.9497e+02 ;    H2R - C12    - C11   
  6058   6056   6059      1    1.0968e+02    3.9497e+02 ;    H2S - C12    - C11   
  6059   6061   6062      1    1.1514e+02    5.3246e+02 ;    C11 - O11    - C1    
  6060   6059   6061      1    1.2333e+02    6.3538e+02 ;    O12 - C11    - O11   
  6061   6062   6063      1    1.0882e+02    4.2543e+02 ;    O11 - C1     - HR    
  6061   6062   6064      1    1.0882e+02    4.2543e+02 ;    O11 - C1     - HS    
  6061   6062   6065      1    1.0842e+02    5.6718e+02 ;    O11 - C1     - C2    
  6062   6065   6066      1    1.1007e+02    3.8794e+02 ;     C1 - C2     - HX    
  6062   6065   6067      1    1.1063e+02    5.2894e+02 ;     C1 - C2     - C3    
  6062   6065   6094      1    1.0842e+02    5.6718e+02 ;     C1 - C2     - O21   
  6063   6062   6064      1    1.0955e+02    3.2786e+02 ;     HR - C1     - HS    
  6063   6062   6065      1    1.1007e+02    3.8794e+02 ;     HR - C1     - C2    
  6064   6062   6065      1    1.1007e+02    3.8794e+02 ;     HS - C1     - C2    
  6065   6067   6068      1    1.1007e+02    3.8794e+02 ;     C2 - C3     - HA    
  6065   6067   6069      1    1.1007e+02    3.8794e+02 ;     C2 - C3     - HB    
  6065   6067   6070      1    1.0842e+02    5.6718e+02 ;     C2 - C3     - O31   
  6065   6094   6095      1    1.1514e+02    5.3246e+02 ;     C2 - O21    - C21   
  6066   6065   6067      1    1.1007e+02    3.8794e+02 ;     HX - C2     - C3    
  6066   6065   6094      1    1.0882e+02    4.2543e+02 ;     HX - C2     - O21   
  6067   6065   6094      1    1.0842e+02    5.6718e+02 ;     C3 - C2     - O21   
  6067   6070   6071      1    1.2050e+02    8.3680e+02 ;     C3 - O31    - P31   
  6068   6067   6069      1    1.0955e+02    3.2786e+02 ;     HA - C3     - HB    
  6068   6067   6070      1    1.0882e+02    4.2543e+02 ;     HA - C3     - O31   
  6069   6067   6070      1    1.0882e+02    4.2543e+02 ;     HB - C3     - O31   
  6070   6071   6072      1    1.0260e+02    7.5312e+02 ;    O31 - P31    - O32   
  6070   6071   6092      1    1.0823e+02    8.3680e+02 ;    O31 - P31    - O33   
  6070   6071   6093      1    1.0823e+02    8.3680e+02 ;    O31 - P31    - O34   
  6071   6072   6073      1    1.2050e+02    8.3680e+02 ;    P31 - O32    - C31   
  6072   6071   6092      1    1.0823e+02    8.3680e+02 ;    O32 - P31    - O33   
  6072   6071   6093      1    1.0823e+02    8.3680e+02 ;    O32 - P31    - O34   
  6072   6073   6074      1    1.0882e+02    4.2543e+02 ;    O32 - C31    - H1A   
  6072   6073   6075      1    1.0882e+02    4.2543e+02 ;    O32 - C31    - H1B   
  6072   6073   6076      1    1.0842e+02    5.6718e+02 ;    O32 - C31    - C32   
  6073   6076   6077      1    1.1174e+02    3.8510e+02 ;    C31 - C32    - H2A   
  6073   6076   6078      1    1.1174e+02    3.8510e+02 ;    C31 - C32    - H2B   
  6073   6076   6079      1    1.1432e+02    5.3932e+02 ;    C31 - C32    - N31   
  6074   6073   6075      1    1.0955e+02    3.2786e+02 ;    H1A - C31    - H1B   
  6074   6073   6076      1    1.1007e+02    3.8794e+02 ;    H1A - C31    - C32   
  6075   6073   6076      1    1.1007e+02    3.8794e+02 ;    H1B - C31    - C32   
  6076   6079   6080      1    1.1064e+02    5.2585e+02 ;    C32 - N31    - C33   
  6076   6079   6084      1    1.1064e+02    5.2585e+02 ;    C32 - N31    - C34   
  6076   6079   6088      1    1.1064e+02    5.2585e+02 ;    C32 - N31    - C35   
  6077   6076   6078      1    1.1074e+02    3.2669e+02 ;    H2A - C32    - H2B   
  6077   6076   6079      1    1.0791e+02    4.1020e+02 ;    H2A - C32    - N31   
  6078   6076   6079      1    1.0791e+02    4.1020e+02 ;    H2B - C32    - N31   
  6079   6080   6081      1    1.0791e+02    4.1020e+02 ;    N31 - C33    - H3A   
  6079   6080   6082      1    1.0791e+02    4.1020e+02 ;    N31 - C33    - H3B   
  6079   6080   6083      1    1.0791e+02    4.1020e+02 ;    N31 - C33    - H3C   
  6079   6084   6085      1    1.0791e+02    4.1020e+02 ;    N31 - C34    - H4A   
  6079   6084   6086      1    1.0791e+02    4.1020e+02 ;    N31 - C34    - H4B   
  6079   6084   6087      1    1.0791e+02    4.1020e+02 ;    N31 - C34    - H4C   
  6079   6088   6089      1    1.0791e+02    4.1020e+02 ;    N31 - C35    - H5A   
  6079   6088   6090      1    1.0791e+02    4.1020e+02 ;    N31 - C35    - H5B   
  6079   6088   6091      1    1.0791e+02    4.1020e+02 ;    N31 - C35    - H5C   
  6080   6079   6084      1    1.1064e+02    5.2585e+02 ;    C33 - N31    - C34   
  6080   6079   6088      1    1.1064e+02    5.2585e+02 ;    C33 - N31    - C35   
  6081   6080   6082      1    1.1074e+02    3.2669e+02 ;    H3A - C33    - H3B   
  6081   6080   6083      1    1.1074e+02    3.2669e+02 ;    H3A - C33    - H3C   
  6082   6080   6083      1    1.1074e+02    3.2669e+02 ;    H3B - C33    - H3C   
  6084   6079   6088      1    1.1064e+02    5.2585e+02 ;    C34 - N31    - C35   
  6085   6084   6086      1    1.1074e+02    3.2669e+02 ;    H4A - C34    - H4B   
  6085   6084   6087      1    1.1074e+02    3.2669e+02 ;    H4A - C34    - H4C   
  6086   6084   6087      1    1.1074e+02    3.2669e+02 ;    H4B - C34    - H4C   
  6089   6088   6090      1    1.1074e+02    3.2669e+02 ;    H5A - C35    - H5B   
  6089   6088   6091      1    1.1074e+02    3.2669e+02 ;    H5A - C35    - H5C   
  6090   6088   6091      1    1.1074e+02    3.2669e+02 ;    H5B - C35    - H5C   
  6092   6071   6093      1    1.1990e+02    1.1715e+03 ;    O33 - P31    - O34   
  6094   6095   6096      1    1.2333e+02    6.3538e+02 ;    O21 - C21    - O22   
  6094   6095   6134      1    1.1196e+02    5.7957e+02 ;    O21 - C21    - C12   
  6095   6134   6131      1    1.1053e+02    5.3379e+02 ;    C21 - C12    - C13   
  6095   6134   6135      1    1.0968e+02    3.9497e+02 ;    C21 - C12    - H2R   
  6095   6134   6136      1    1.0968e+02    3.9497e+02 ;    C21 - C12    - H2S   
  6096   6095   6134      1    1.2311e+02    5.6928e+02 ;    O22 - C21    - C12   
  6097   6098   6099      1    1.0835e+02    3.2995e+02 ;   H14T - C114   - H14R  
  6097   6098   6100      1    1.0835e+02    3.2995e+02 ;   H14T - C114   - H14S  
  6097   6098   6101      1    1.1005e+02    3.8802e+02 ;   H14T - C114   - C113  
  6098   6101   6102      1    1.1005e+02    3.8802e+02 ;   C114 - C113   - H13R  
  6098   6101   6103      1    1.1005e+02    3.8802e+02 ;   C114 - C113   - H13S  
  6098   6101   6104      1    1.1205e+02    3.9497e+02 ;   C114 - C113   - C112  
  6099   6098   6100      1    1.0835e+02    3.2995e+02 ;   H14R - C114   - H14S  
  6099   6098   6101      1    1.1005e+02    3.8802e+02 ;   H14R - C114   - C113  
  6100   6098   6101      1    1.1005e+02    3.8802e+02 ;   H14S - C114   - C113  
  6101   6104   6105      1    1.1005e+02    3.8802e+02 ;   C113 - C112   - H12R  
  6101   6104   6106      1    1.1005e+02    3.8802e+02 ;   C113 - C112   - H12S  
  6101   6104   6107      1    1.1205e+02    3.9497e+02 ;   C113 - C112   - C111  
  6102   6101   6103      1    1.0835e+02    3.2995e+02 ;   H13R - C113   - H13S  
  6102   6101   6104      1    1.1005e+02    3.8802e+02 ;   H13R - C113   - C112  
  6103   6101   6104      1    1.1005e+02    3.8802e+02 ;   H13S - C113   - C112  
  6104   6107   6108      1    1.1005e+02    3.8802e+02 ;   C112 - C111   - H11R  
  6104   6107   6109      1    1.1005e+02    3.8802e+02 ;   C112 - C111   - H11S  
  6104   6107   6110      1    1.1205e+02    3.9497e+02 ;   C112 - C111   - C110  
  6105   6104   6106      1    1.0835e+02    3.2995e+02 ;   H12R - C112   - H12S  
  6105   6104   6107      1    1.1005e+02    3.8802e+02 ;   H12R - C112   - C111  
  6106   6104   6107      1    1.1005e+02    3.8802e+02 ;   H12S - C112   - C111  
  6107   6110   6111      1    1.1005e+02    3.8802e+02 ;   C111 - C110   - H10R  
  6107   6110   6112      1    1.1005e+02    3.8802e+02 ;   C111 - C110   - H10S  
  6107   6110   6113      1    1.1205e+02    3.9497e+02 ;   C111 - C110   - C19   
  6108   6107   6109      1    1.0835e+02    3.2995e+02 ;   H11R - C111   - H11S  
  6108   6107   6110      1    1.1005e+02    3.8802e+02 ;   H11R - C111   - C110  
  6109   6107   6110      1    1.1005e+02    3.8802e+02 ;   H11S - C111   - C110  
  6110   6113   6114      1    1.1005e+02    3.8802e+02 ;   C110 - C19    - H9R   
  6110   6113   6115      1    1.1005e+02    3.8802e+02 ;   C110 - C19    - H9S   
  6110   6113   6116      1    1.1205e+02    3.9497e+02 ;   C110 - C19    - C18   
  6111   6110   6112      1    1.0835e+02    3.2995e+02 ;   H10R - C110   - H10S  
  6111   6110   6113      1    1.1005e+02    3.8802e+02 ;   H10R - C110   - C19   
  6112   6110   6113      1    1.1005e+02    3.8802e+02 ;   H10S - C110   - C19   
  6113   6116   6117      1    1.1005e+02    3.8802e+02 ;    C19 - C18    - H8R   
  6113   6116   6118      1    1.1005e+02    3.8802e+02 ;    C19 - C18    - H8S   
  6113   6116   6119      1    1.1205e+02    3.9497e+02 ;    C19 - C18    - C17   
  6114   6113   6115      1    1.0835e+02    3.2995e+02 ;    H9R - C19    - H9S   
  6114   6113   6116      1    1.1005e+02    3.8802e+02 ;    H9R - C19    - C18   
  6115   6113   6116      1    1.1005e+02    3.8802e+02 ;    H9S - C19    - C18   
  6116   6119   6120      1    1.1005e+02    3.8802e+02 ;    C18 - C17    - H7R   
  6116   6119   6121      1    1.1005e+02    3.8802e+02 ;    C18 - C17    - H7S   
  6116   6119   6122      1    1.1205e+02    3.9497e+02 ;    C18 - C17    - C16   
  6117   6116   6118      1    1.0835e+02    3.2995e+02 ;    H8R - C18    - H8S   
  6117   6116   6119      1    1.1005e+02    3.8802e+02 ;    H8R - C18    - C17   
  6118   6116   6119      1    1.1005e+02    3.8802e+02 ;    H8S - C18    - C17   
  6119   6122   6123      1    1.1005e+02    3.8802e+02 ;    C17 - C16    - H6R   
  6119   6122   6124      1    1.1005e+02    3.8802e+02 ;    C17 - C16    - H6S   
  6119   6122   6125      1    1.1205e+02    3.9497e+02 ;    C17 - C16    - C15   
  6120   6119   6121      1    1.0835e+02    3.2995e+02 ;    H7R - C17    - H7S   
  6120   6119   6122      1    1.1005e+02    3.8802e+02 ;    H7R - C17    - C16   
  6121   6119   6122      1    1.1005e+02    3.8802e+02 ;    H7S - C17    - C16   
  6122   6125   6126      1    1.1005e+02    3.8802e+02 ;    C16 - C15    - H5R   
  6122   6125   6127      1    1.1005e+02    3.8802e+02 ;    C16 - C15    - H5S   
  6122   6125   6128      1    1.1205e+02    3.9497e+02 ;    C16 - C15    - C14   
  6123   6122   6124      1    1.0835e+02    3.2995e+02 ;    H6R - C16    - H6S   
  6123   6122   6125      1    1.1005e+02    3.8802e+02 ;    H6R - C16    - C15   
  6124   6122   6125      1    1.1005e+02    3.8802e+02 ;    H6S - C16    - C15   
  6125   6128   6129      1    1.1005e+02    3.8802e+02 ;    C15 - C14    - H4R   
  6125   6128   6130      1    1.1005e+02    3.8802e+02 ;    C15 - C14    - H4S   
  6125   6128   6131      1    1.1205e+02    3.9497e+02 ;    C15 - C14    - C13   
  6126   6125   6127      1    1.0835e+02    3.2995e+02 ;    H5R - C15    - H5S   
  6126   6125   6128      1    1.1005e+02    3.8802e+02 ;    H5R - C15    - C14   
  6127   6125   6128      1    1.1005e+02    3.8802e+02 ;    H5S - C15    - C14   
  6128   6131   6132      1    1.1005e+02    3.8802e+02 ;    C14 - C13    - H3R   
  6128   6131   6133      1    1.1005e+02    3.8802e+02 ;    C14 - C13    - H3S   
  6128   6131   6134      1    1.1205e+02    3.9497e+02 ;    C14 - C13    - C12   
  6129   6128   6130      1    1.0835e+02    3.2995e+02 ;    H4R - C14    - H4S   
  6129   6128   6131      1    1.1005e+02    3.8802e+02 ;    H4R - C14    - C13   
  6130   6128   6131      1    1.1005e+02    3.8802e+02 ;    H4S - C14    - C13   
  6131   6134   6135      1    1.1005e+02    3.8802e+02 ;    C13 - C12    - H2R   
  6131   6134   6136      1    1.1005e+02    3.8802e+02 ;    C13 - C12    - H2S   
  6132   6131   6133      1    1.0835e+02    3.2995e+02 ;    H3R - C13    - H3S   
  6132   6131   6134      1    1.1005e+02    3.8802e+02 ;    H3R - C13    - C12   
  6133   6131   6134      1    1.1005e+02    3.8802e+02 ;    H3S - C13    - C12   
  6135   6134   6136      1    1.0835e+02    3.2995e+02 ;    H2R - C12    - H2S   
  6137   6138   6139      1    1.0835e+02    3.2995e+02 ;   H14T - C114   - H14R  
  6137   6138   6140      1    1.0835e+02    3.2995e+02 ;   H14T - C114   - H14S  
  6137   6138   6141      1    1.1005e+02    3.8802e+02 ;   H14T - C114   - C113  
  6138   6141   6142      1    1.1005e+02    3.8802e+02 ;   C114 - C113   - H13R  
  6138   6141   6143      1    1.1005e+02    3.8802e+02 ;   C114 - C113   - H13S  
  6138   6141   6144      1    1.1205e+02    3.9497e+02 ;   C114 - C113   - C112  
  6139   6138   6140      1    1.0835e+02    3.2995e+02 ;   H14R - C114   - H14S  
  6139   6138   6141      1    1.1005e+02    3.8802e+02 ;   H14R - C114   - C113  
  6140   6138   6141      1    1.1005e+02    3.8802e+02 ;   H14S - C114   - C113  
  6141   6144   6145      1    1.1005e+02    3.8802e+02 ;   C113 - C112   - H12R  
  6141   6144   6146      1    1.1005e+02    3.8802e+02 ;   C113 - C112   - H12S  
  6141   6144   6147      1    1.1205e+02    3.9497e+02 ;   C113 - C112   - C111  
  6142   6141   6143      1    1.0835e+02    3.2995e+02 ;   H13R - C113   - H13S  
  6142   6141   6144      1    1.1005e+02    3.8802e+02 ;   H13R - C113   - C112  
  6143   6141   6144      1    1.1005e+02    3.8802e+02 ;   H13S - C113   - C112  
  6144   6147   6148      1    1.1005e+02    3.8802e+02 ;   C112 - C111   - H11R  
  6144   6147   6149      1    1.1005e+02    3.8802e+02 ;   C112 - C111   - H11S  
  6144   6147   6150      1    1.1205e+02    3.9497e+02 ;   C112 - C111   - C110  
  6145   6144   6146      1    1.0835e+02    3.2995e+02 ;   H12R - C112   - H12S  
  6145   6144   6147      1    1.1005e+02    3.8802e+02 ;   H12R - C112   - C111  
  6146   6144   6147      1    1.1005e+02    3.8802e+02 ;   H12S - C112   - C111  
  6147   6150   6151      1    1.1005e+02    3.8802e+02 ;   C111 - C110   - H10R  
  6147   6150   6152      1    1.1005e+02    3.8802e+02 ;   C111 - C110   - H10S  
  6147   6150   6153      1    1.1205e+02    3.9497e+02 ;   C111 - C110   - C19   
  6148   6147   6149      1    1.0835e+02    3.2995e+02 ;   H11R - C111   - H11S  
  6148   6147   6150      1    1.1005e+02    3.8802e+02 ;   H11R - C111   - C110  
  6149   6147   6150      1    1.1005e+02    3.8802e+02 ;   H11S - C111   - C110  
  6150   6153   6154      1    1.1005e+02    3.8802e+02 ;   C110 - C19    - H9R   
  6150   6153   6155      1    1.1005e+02    3.8802e+02 ;   C110 - C19    - H9S   
  6150   6153   6156      1    1.1205e+02    3.9497e+02 ;   C110 - C19    - C18   
  6151   6150   6152      1    1.0835e+02    3.2995e+02 ;   H10R - C110   - H10S  
  6151   6150   6153      1    1.1005e+02    3.8802e+02 ;   H10R - C110   - C19   
  6152   6150   6153      1    1.1005e+02    3.8802e+02 ;   H10S - C110   - C19   
  6153   6156   6157      1    1.1005e+02    3.8802e+02 ;    C19 - C18    - H8R   
  6153   6156   6158      1    1.1005e+02    3.8802e+02 ;    C19 - C18    - H8S   
  6153   6156   6159      1    1.1205e+02    3.9497e+02 ;    C19 - C18    - C17   
  6154   6153   6155      1    1.0835e+02    3.2995e+02 ;    H9R - C19    - H9S   
  6154   6153   6156      1    1.1005e+02    3.8802e+02 ;    H9R - C19    - C18   
  6155   6153   6156      1    1.1005e+02    3.8802e+02 ;    H9S - C19    - C18   
  6156   6159   6160      1    1.1005e+02    3.8802e+02 ;    C18 - C17    - H7R   
  6156   6159   6161      1    1.1005e+02    3.8802e+02 ;    C18 - C17    - H7S   
  6156   6159   6162      1    1.1205e+02    3.9497e+02 ;    C18 - C17    - C16   
  6157   6156   6158      1    1.0835e+02    3.2995e+02 ;    H8R - C18    - H8S   
  6157   6156   6159      1    1.1005e+02    3.8802e+02 ;    H8R - C18    - C17   
  6158   6156   6159      1    1.1005e+02    3.8802e+02 ;    H8S - C18    - C17   
  6159   6162   6163      1    1.1005e+02    3.8802e+02 ;    C17 - C16    - H6R   
  6159   6162   6164      1    1.1005e+02    3.8802e+02 ;    C17 - C16    - H6S   
  6159   6162   6165      1    1.1205e+02    3.9497e+02 ;    C17 - C16    - C15   
  6160   6159   6161      1    1.0835e+02    3.2995e+02 ;    H7R - C17    - H7S   
  6160   6159   6162      1    1.1005e+02    3.8802e+02 ;    H7R - C17    - C16   
  6161   6159   6162      1    1.1005e+02    3.8802e+02 ;    H7S - C17    - C16   
  6162   6165   6166      1    1.1005e+02    3.8802e+02 ;    C16 - C15    - H5R   
  6162   6165   6167      1    1.1005e+02    3.8802e+02 ;    C16 - C15    - H5S   
  6162   6165   6168      1    1.1205e+02    3.9497e+02 ;    C16 - C15    - C14   
  6163   6162   6164      1    1.0835e+02    3.2995e+02 ;    H6R - C16    - H6S   
  6163   6162   6165      1    1.1005e+02    3.8802e+02 ;    H6R - C16    - C15   
  6164   6162   6165      1    1.1005e+02    3.8802e+02 ;    H6S - C16    - C15   
  6165   6168   6169      1    1.1005e+02    3.8802e+02 ;    C15 - C14    - H4R   
  6165   6168   6170      1    1.1005e+02    3.8802e+02 ;    C15 - C14    - H4S   
  6165   6168   6171      1    1.1205e+02    3.9497e+02 ;    C15 - C14    - C13   
  6166   6165   6167      1    1.0835e+02    3.2995e+02 ;    H5R - C15    - H5S   
  6166   6165   6168      1    1.1005e+02    3.8802e+02 ;    H5R - C15    - C14   
  6167   6165   6168      1    1.1005e+02    3.8802e+02 ;    H5S - C15    - C14   
  6168   6171   6172      1    1.1005e+02    3.8802e+02 ;    C14 - C13    - H3R   
  6168   6171   6173      1    1.1005e+02    3.8802e+02 ;    C14 - C13    - H3S   
  6168   6171   6174      1    1.1205e+02    3.9497e+02 ;    C14 - C13    - C12   
  6169   6168   6170      1    1.0835e+02    3.2995e+02 ;    H4R - C14    - H4S   
  6169   6168   6171      1    1.1005e+02    3.8802e+02 ;    H4R - C14    - C13   
  6170   6168   6171      1    1.1005e+02    3.8802e+02 ;    H4S - C14    - C13   
  6171   6174   6175      1    1.1005e+02    3.8802e+02 ;    C13 - C12    - H2R   
  6171   6174   6176      1    1.1005e+02    3.8802e+02 ;    C13 - C12    - H2S   
  6171   6174   6177      1    1.1053e+02    5.3379e+02 ;    C13 - C12    - C11   
  6172   6171   6173      1    1.0835e+02    3.2995e+02 ;    H3R - C13    - H3S   
  6172   6171   6174      1    1.1005e+02    3.8802e+02 ;    H3R - C13    - C12   
  6173   6171   6174      1    1.1005e+02    3.8802e+02 ;    H3S - C13    - C12   
  6174   6177   6178      1    1.2311e+02    5.6928e+02 ;    C12 - C11    - O12   
  6174   6177   6179      1    1.1196e+02    5.7957e+02 ;    C12 - C11    - O11   
  6175   6174   6176      1    1.0835e+02    3.2995e+02 ;    H2R - C12    - H2S   
  6175   6174   6177      1    1.0968e+02    3.9497e+02 ;    H2R - C12    - C11   
  6176   6174   6177      1    1.0968e+02    3.9497e+02 ;    H2S - C12    - C11   
  6177   6179   6180      1    1.1514e+02    5.3246e+02 ;    C11 - O11    - C1    
  6178   6177   6179      1    1.2333e+02    6.3538e+02 ;    O12 - C11    - O11   
  6179   6180   6181      1    1.0882e+02    4.2543e+02 ;    O11 - C1     - HR    
  6179   6180   6182      1    1.0882e+02    4.2543e+02 ;    O11 - C1     - HS    
  6179   6180   6183      1    1.0842e+02    5.6718e+02 ;    O11 - C1     - C2    
  6180   6183   6184      1    1.1007e+02    3.8794e+02 ;     C1 - C2     - HX    
  6180   6183   6185      1    1.1063e+02    5.2894e+02 ;     C1 - C2     - C3    
  6180   6183   6212      1    1.0842e+02    5.6718e+02 ;     C1 - C2     - O21   
  6181   6180   6182      1    1.0955e+02    3.2786e+02 ;     HR - C1     - HS    
  6181   6180   6183      1    1.1007e+02    3.8794e+02 ;     HR - C1     - C2    
  6182   6180   6183      1    1.1007e+02    3.8794e+02 ;     HS - C1     - C2    
  6183   6185   6186      1    1.1007e+02    3.8794e+02 ;     C2 - C3     - HA    
  6183   6185   6187      1    1.1007e+02    3.8794e+02 ;     C2 - C3     - HB    
  6183   6185   6188      1    1.0842e+02    5.6718e+02 ;     C2 - C3     - O31   
  6183   6212   6213      1    1.1514e+02    5.3246e+02 ;     C2 - O21    - C21   
  6184   6183   6185      1    1.1007e+02    3.8794e+02 ;     HX - C2     - C3    
  6184   6183   6212      1    1.0882e+02    4.2543e+02 ;     HX - C2     - O21   
  6185   6183   6212      1    1.0842e+02    5.6718e+02 ;     C3 - C2     - O21   
  6185   6188   6189      1    1.2050e+02    8.3680e+02 ;     C3 - O31    - P31   
  6186   6185   6187      1    1.0955e+02    3.2786e+02 ;     HA - C3     - HB    
  6186   6185   6188      1    1.0882e+02    4.2543e+02 ;     HA - C3     - O31   
  6187   6185   6188      1    1.0882e+02    4.2543e+02 ;     HB - C3     - O31   
  6188   6189   6190      1    1.0260e+02    7.5312e+02 ;    O31 - P31    - O32   
  6188   6189   6210      1    1.0823e+02    8.3680e+02 ;    O31 - P31    - O33   
  6188   6189   6211      1    1.0823e+02    8.3680e+02 ;    O31 - P31    - O34   
  6189   6190   6191      1    1.2050e+02    8.3680e+02 ;    P31 - O32    - C31   
  6190   6189   6210      1    1.0823e+02    8.3680e+02 ;    O32 - P31    - O33   
  6190   6189   6211      1    1.0823e+02    8.3680e+02 ;    O32 - P31    - O34   
  6190   6191   6192      1    1.0882e+02    4.2543e+02 ;    O32 - C31    - H1A   
  6190   6191   6193      1    1.0882e+02    4.2543e+02 ;    O32 - C31    - H1B   
  6190   6191   6194      1    1.0842e+02    5.6718e+02 ;    O32 - C31    - C32   
  6191   6194   6195      1    1.1174e+02    3.8510e+02 ;    C31 - C32    - H2A   
  6191   6194   6196      1    1.1174e+02    3.8510e+02 ;    C31 - C32    - H2B   
  6191   6194   6197      1    1.1432e+02    5.3932e+02 ;    C31 - C32    - N31   
  6192   6191   6193      1    1.0955e+02    3.2786e+02 ;    H1A - C31    - H1B   
  6192   6191   6194      1    1.1007e+02    3.8794e+02 ;    H1A - C31    - C32   
  6193   6191   6194      1    1.1007e+02    3.8794e+02 ;    H1B - C31    - C32   
  6194   6197   6198      1    1.1064e+02    5.2585e+02 ;    C32 - N31    - C33   
  6194   6197   6202      1    1.1064e+02    5.2585e+02 ;    C32 - N31    - C34   
  6194   6197   6206      1    1.1064e+02    5.2585e+02 ;    C32 - N31    - C35   
  6195   6194   6196      1    1.1074e+02    3.2669e+02 ;    H2A - C32    - H2B   
  6195   6194   6197      1    1.0791e+02    4.1020e+02 ;    H2A - C32    - N31   
  6196   6194   6197      1    1.0791e+02    4.1020e+02 ;    H2B - C32    - N31   
  6197   6198   6199      1    1.0791e+02    4.1020e+02 ;    N31 - C33    - H3A   
  6197   6198   6200      1    1.0791e+02    4.1020e+02 ;    N31 - C33    - H3B   
  6197   6198   6201      1    1.0791e+02    4.1020e+02 ;    N31 - C33    - H3C   
  6197   6202   6203      1    1.0791e+02    4.1020e+02 ;    N31 - C34    - H4A   
  6197   6202   6204      1    1.0791e+02    4.1020e+02 ;    N31 - C34    - H4B   
  6197   6202   6205      1    1.0791e+02    4.1020e+02 ;    N31 - C34    - H4C   
  6197   6206   6207      1    1.0791e+02    4.1020e+02 ;    N31 - C35    - H5A   
  6197   6206   6208      1    1.0791e+02    4.1020e+02 ;    N31 - C35    - H5B   
  6197   6206   6209      1    1.0791e+02    4.1020e+02 ;    N31 - C35    - H5C   
  6198   6197   6202      1    1.1064e+02    5.2585e+02 ;    C33 - N31    - C34   
  6198   6197   6206      1    1.1064e+02    5.2585e+02 ;    C33 - N31    - C35   
  6199   6198   6200      1    1.1074e+02    3.2669e+02 ;    H3A - C33    - H3B   
  6199   6198   6201      1    1.1074e+02    3.2669e+02 ;    H3A - C33    - H3C   
  6200   6198   6201      1    1.1074e+02    3.2669e+02 ;    H3B - C33    - H3C   
  6202   6197   6206      1    1.1064e+02    5.2585e+02 ;    C34 - N31    - C35   
  6203   6202   6204      1    1.1074e+02    3.2669e+02 ;    H4A - C34    - H4B   
  6203   6202   6205      1    1.1074e+02    3.2669e+02 ;    H4A - C34    - H4C   
  6204   6202   6205      1    1.1074e+02    3.2669e+02 ;    H4B - C34    - H4C   
  6207   6206   6208      1    1.1074e+02    3.2669e+02 ;    H5A - C35    - H5B   
  6207   6206   6209      1    1.1074e+02    3.2669e+02 ;    H5A - C35    - H5C   
  6208   6206   6209      1    1.1074e+02    3.2669e+02 ;    H5B - C35    - H5C   
  6210   6189   6211      1    1.1990e+02    1.1715e+03 ;    O33 - P31    - O34   
  6212   6213   6214      1    1.2333e+02    6.3538e+02 ;    O21 - C21    - O22   
  6212   6213   6252      1    1.1196e+02    5.7957e+02 ;    O21 - C21    - C12   
  6213   6252   6249      1    1.1053e+02    5.3379e+02 ;    C21 - C12    - C13   
  6213   6252   6253      1    1.0968e+02    3.9497e+02 ;    C21 - C12    - H2R   
  6213   6252   6254      1    1.0968e+02    3.9497e+02 ;    C21 - C12    - H2S   
  6214   6213   6252      1    1.2311e+02    5.6928e+02 ;    O22 - C21    - C12   
  6215   6216   6217      1    1.0835e+02    3.2995e+02 ;   H14T - C114   - H14R  
  6215   6216   6218      1    1.0835e+02    3.2995e+02 ;   H14T - C114   - H14S  
  6215   6216   6219      1    1.1005e+02    3.8802e+02 ;   H14T - C114   - C113  
  6216   6219   6220      1    1.1005e+02    3.8802e+02 ;   C114 - C113   - H13R  
  6216   6219   6221      1    1.1005e+02    3.8802e+02 ;   C114 - C113   - H13S  
  6216   6219   6222      1    1.1205e+02    3.9497e+02 ;   C114 - C113   - C112  
  6217   6216   6218      1    1.0835e+02    3.2995e+02 ;   H14R - C114   - H14S  
  6217   6216   6219      1    1.1005e+02    3.8802e+02 ;   H14R - C114   - C113  
  6218   6216   6219      1    1.1005e+02    3.8802e+02 ;   H14S - C114   - C113  
  6219   6222   6223      1    1.1005e+02    3.8802e+02 ;   C113 - C112   - H12R  
  6219   6222   6224      1    1.1005e+02    3.8802e+02 ;   C113 - C112   - H12S  
  6219   6222   6225      1    1.1205e+02    3.9497e+02 ;   C113 - C112   - C111  
  6220   6219   6221      1    1.0835e+02    3.2995e+02 ;   H13R - C113   - H13S  
  6220   6219   6222      1    1.1005e+02    3.8802e+02 ;   H13R - C113   - C112  
  6221   6219   6222      1    1.1005e+02    3.8802e+02 ;   H13S - C113   - C112  
  6222   6225   6226      1    1.1005e+02    3.8802e+02 ;   C112 - C111   - H11R  
  6222   6225   6227      1    1.1005e+02    3.8802e+02 ;   C112 - C111   - H11S  
  6222   6225   6228      1    1.1205e+02    3.9497e+02 ;   C112 - C111   - C110  
  6223   6222   6224      1    1.0835e+02    3.2995e+02 ;   H12R - C112   - H12S  
  6223   6222   6225      1    1.1005e+02    3.8802e+02 ;   H12R - C112   - C111  
  6224   6222   6225      1    1.1005e+02    3.8802e+02 ;   H12S - C112   - C111  
  6225   6228   6229      1    1.1005e+02    3.8802e+02 ;   C111 - C110   - H10R  
  6225   6228   6230      1    1.1005e+02    3.8802e+02 ;   C111 - C110   - H10S  
  6225   6228   6231      1    1.1205e+02    3.9497e+02 ;   C111 - C110   - C19   
  6226   6225   6227      1    1.0835e+02    3.2995e+02 ;   H11R - C111   - H11S  
  6226   6225   6228      1    1.1005e+02    3.8802e+02 ;   H11R - C111   - C110  
  6227   6225   6228      1    1.1005e+02    3.8802e+02 ;   H11S - C111   - C110  
  6228   6231   6232      1    1.1005e+02    3.8802e+02 ;   C110 - C19    - H9R   
  6228   6231   6233      1    1.1005e+02    3.8802e+02 ;   C110 - C19    - H9S   
  6228   6231   6234      1    1.1205e+02    3.9497e+02 ;   C110 - C19    - C18   
  6229   6228   6230      1    1.0835e+02    3.2995e+02 ;   H10R - C110   - H10S  
  6229   6228   6231      1    1.1005e+02    3.8802e+02 ;   H10R - C110   - C19   
  6230   6228   6231      1    1.1005e+02    3.8802e+02 ;   H10S - C110   - C19   
  6231   6234   6235      1    1.1005e+02    3.8802e+02 ;    C19 - C18    - H8R   
  6231   6234   6236      1    1.1005e+02    3.8802e+02 ;    C19 - C18    - H8S   
  6231   6234   6237      1    1.1205e+02    3.9497e+02 ;    C19 - C18    - C17   
  6232   6231   6233      1    1.0835e+02    3.2995e+02 ;    H9R - C19    - H9S   
  6232   6231   6234      1    1.1005e+02    3.8802e+02 ;    H9R - C19    - C18   
  6233   6231   6234      1    1.1005e+02    3.8802e+02 ;    H9S - C19    - C18   
  6234   6237   6238      1    1.1005e+02    3.8802e+02 ;    C18 - C17    - H7R   
  6234   6237   6239      1    1.1005e+02    3.8802e+02 ;    C18 - C17    - H7S   
  6234   6237   6240      1    1.1205e+02    3.9497e+02 ;    C18 - C17    - C16   
  6235   6234   6236      1    1.0835e+02    3.2995e+02 ;    H8R - C18    - H8S   
  6235   6234   6237      1    1.1005e+02    3.8802e+02 ;    H8R - C18    - C17   
  6236   6234   6237      1    1.1005e+02    3.8802e+02 ;    H8S - C18    - C17   
  6237   6240   6241      1    1.1005e+02    3.8802e+02 ;    C17 - C16    - H6R   
  6237   6240   6242      1    1.1005e+02    3.8802e+02 ;    C17 - C16    - H6S   
  6237   6240   6243      1    1.1205e+02    3.9497e+02 ;    C17 - C16    - C15   
  6238   6237   6239      1    1.0835e+02    3.2995e+02 ;    H7R - C17    - H7S   
  6238   6237   6240      1    1.1005e+02    3.8802e+02 ;    H7R - C17    - C16   
  6239   6237   6240      1    1.1005e+02    3.8802e+02 ;    H7S - C17    - C16   
  6240   6243   6244      1    1.1005e+02    3.8802e+02 ;    C16 - C15    - H5R   
  6240   6243   6245      1    1.1005e+02    3.8802e+02 ;    C16 - C15    - H5S   
  6240   6243   6246      1    1.1205e+02    3.9497e+02 ;    C16 - C15    - C14   
  6241   6240   6242      1    1.0835e+02    3.2995e+02 ;    H6R - C16    - H6S   
  6241   6240   6243      1    1.1005e+02    3.8802e+02 ;    H6R - C16    - C15   
  6242   6240   6243      1    1.1005e+02    3.8802e+02 ;    H6S - C16    - C15   
  6243   6246   6247      1    1.1005e+02    3.8802e+02 ;    C15 - C14    - H4R   
  6243   6246   6248      1    1.1005e+02    3.8802e+02 ;    C15 - C14    - H4S   
  6243   6246   6249      1    1.1205e+02    3.9497e+02 ;    C15 - C14    - C13   
  6244   6243   6245      1    1.0835e+02    3.2995e+02 ;    H5R - C15    - H5S   
  6244   6243   6246      1    1.1005e+02    3.8802e+02 ;    H5R - C15    - C14   
  6245   6243   6246      1    1.1005e+02    3.8802e+02 ;    H5S - C15    - C14   
  6246   6249   6250      1    1.1005e+02    3.8802e+02 ;    C14 - C13    - H3R   
  6246   6249   6251      1    1.1005e+02    3.8802e+02 ;    C14 - C13    - H3S   
  6246   6249   6252      1    1.1205e+02    3.9497e+02 ;    C14 - C13    - C12   
  6247   6246   6248      1    1.0835e+02    3.2995e+02 ;    H4R - C14    - H4S   
  6247   6246   6249      1    1.1005e+02    3.8802e+02 ;    H4R - C14    - C13   
  6248   6246   6249      1    1.1005e+02    3.8802e+02 ;    H4S - C14    - C13   
  6249   6252   6253      1    1.1005e+02    3.8802e+02 ;    C13 - C12    - H2R   
  6249   6252   6254      1    1.1005e+02    3.8802e+02 ;    C13 - C12    - H2S   
  6250   6249   6251      1    1.0835e+02    3.2995e+02 ;    H3R - C13    - H3S   
  6250   6249   6252      1    1.1005e+02    3.8802e+02 ;    H3R - C13    - C12   
  6251   6249   6252      1    1.1005e+02    3.8802e+02 ;    H3S - C13    - C12   
  6253   6252   6254      1    1.0835e+02    3.2995e+02 ;    H2R - C12    - H2S   
  6255   6256   6257      1    1.0835e+02    3.2995e+02 ;   H14T - C114   - H14R  
  6255   6256   6258      1    1.0835e+02    3.2995e+02 ;   H14T - C114   - H14S  
  6255   6256   6259      1    1.1005e+02    3.8802e+02 ;   H14T - C114   - C113  
  6256   6259   6260      1    1.1005e+02    3.8802e+02 ;   C114 - C113   - H13R  
  6256   6259   6261      1    1.1005e+02    3.8802e+02 ;   C114 - C113   - H13S  
  6256   6259   6262      1    1.1205e+02    3.9497e+02 ;   C114 - C113   - C112  
  6257   6256   6258      1    1.0835e+02    3.2995e+02 ;   H14R - C114   - H14S  
  6257   6256   6259      1    1.1005e+02    3.8802e+02 ;   H14R - C114   - C113  
  6258   6256   6259      1    1.1005e+02    3.8802e+02 ;   H14S - C114   - C113  
  6259   6262   6263      1    1.1005e+02    3.8802e+02 ;   C113 - C112   - H12R  
  6259   6262   6264      1    1.1005e+02    3.8802e+02 ;   C113 - C112   - H12S  
  6259   6262   6265      1    1.1205e+02    3.9497e+02 ;   C113 - C112   - C111  
  6260   6259   6261      1    1.0835e+02    3.2995e+02 ;   H13R - C113   - H13S  
  6260   6259   6262      1    1.1005e+02    3.8802e+02 ;   H13R - C113   - C112  
  6261   6259   6262      1    1.1005e+02    3.8802e+02 ;   H13S - C113   - C112  
  6262   6265   6266      1    1.1005e+02    3.8802e+02 ;   C112 - C111   - H11R  
  6262   6265   6267      1    1.1005e+02    3.8802e+02 ;   C112 - C111   - H11S  
  6262   6265   6268      1    1.1205e+02    3.9497e+02 ;   C112 - C111   - C110  
  6263   6262   6264      1    1.0835e+02    3.2995e+02 ;   H12R - C112   - H12S  
  6263   6262   6265      1    1.1005e+02    3.8802e+02 ;   H12R - C112   - C111  
  6264   6262   6265      1    1.1005e+02    3.8802e+02 ;   H12S - C112   - C111  
  6265   6268   6269      1    1.1005e+02    3.8802e+02 ;   C111 - C110   - H10R  
  6265   6268   6270      1    1.1005e+02    3.8802e+02 ;   C111 - C110   - H10S  
  6265   6268   6271      1    1.1205e+02    3.9497e+02 ;   C111 - C110   - C19   
  6266   6265   6267      1    1.0835e+02    3.2995e+02 ;   H11R - C111   - H11S  
  6266   6265   6268      1    1.1005e+02    3.8802e+02 ;   H11R - C111   - C110  
  6267   6265   6268      1    1.1005e+02    3.8802e+02 ;   H11S - C111   - C110  
  6268   6271   6272      1    1.1005e+02    3.8802e+02 ;   C110 - C19    - H9R   
  6268   6271   6273      1    1.1005e+02    3.8802e+02 ;   C110 - C19    - H9S   
  6268   6271   6274      1    1.1205e+02    3.9497e+02 ;   C110 - C19    - C18   
  6269   6268   6270      1    1.0835e+02    3.2995e+02 ;   H10R - C110   - H10S  
  6269   6268   6271      1    1.1005e+02    3.8802e+02 ;   H10R - C110   - C19   
  6270   6268   6271      1    1.1005e+02    3.8802e+02 ;   H10S - C110   - C19   
  6271   6274   6275      1    1.1005e+02    3.8802e+02 ;    C19 - C18    - H8R   
  6271   6274   6276      1    1.1005e+02    3.8802e+02 ;    C19 - C18    - H8S   
  6271   6274   6277      1    1.1205e+02    3.9497e+02 ;    C19 - C18    - C17   
  6272   6271   6273      1    1.0835e+02    3.2995e+02 ;    H9R - C19    - H9S   
  6272   6271   6274      1    1.1005e+02    3.8802e+02 ;    H9R - C19    - C18   
  6273   6271   6274      1    1.1005e+02    3.8802e+02 ;    H9S - C19    - C18   
  6274   6277   6278      1    1.1005e+02    3.8802e+02 ;    C18 - C17    - H7R   
  6274   6277   6279      1    1.1005e+02    3.8802e+02 ;    C18 - C17    - H7S   
  6274   6277   6280      1    1.1205e+02    3.9497e+02 ;    C18 - C17    - C16   
  6275   6274   6276      1    1.0835e+02    3.2995e+02 ;    H8R - C18    - H8S   
  6275   6274   6277      1    1.1005e+02    3.8802e+02 ;    H8R - C18    - C17   
  6276   6274   6277      1    1.1005e+02    3.8802e+02 ;    H8S - C18    - C17   
  6277   6280   6281      1    1.1005e+02    3.8802e+02 ;    C17 - C16    - H6R   
  6277   6280   6282      1    1.1005e+02    3.8802e+02 ;    C17 - C16    - H6S   
  6277   6280   6283      1    1.1205e+02    3.9497e+02 ;    C17 - C16    - C15   
  6278   6277   6279      1    1.0835e+02    3.2995e+02 ;    H7R - C17    - H7S   
  6278   6277   6280      1    1.1005e+02    3.8802e+02 ;    H7R - C17    - C16   
  6279   6277   6280      1    1.1005e+02    3.8802e+02 ;    H7S - C17    - C16   
  6280   6283   6284      1    1.1005e+02    3.8802e+02 ;    C16 - C15    - H5R   
  6280   6283   6285      1    1.1005e+02    3.8802e+02 ;    C16 - C15    - H5S   
  6280   6283   6286      1    1.1205e+02    3.9497e+02 ;    C16 - C15    - C14   
  6281   6280   6282      1    1.0835e+02    3.2995e+02 ;    H6R - C16    - H6S   
  6281   6280   6283      1    1.1005e+02    3.8802e+02 ;    H6R - C16    - C15   
  6282   6280   6283      1    1.1005e+02    3.8802e+02 ;    H6S - C16    - C15   
  6283   6286   6287      1    1.1005e+02    3.8802e+02 ;    C15 - C14    - H4R   
  6283   6286   6288      1    1.1005e+02    3.8802e+02 ;    C15 - C14    - H4S   
  6283   6286   6289      1    1.1205e+02    3.9497e+02 ;    C15 - C14    - C13   
  6284   6283   6285      1    1.0835e+02    3.2995e+02 ;    H5R - C15    - H5S   
  6284   6283   6286      1    1.1005e+02    3.8802e+02 ;    H5R - C15    - C14   
  6285   6283   6286      1    1.1005e+02    3.8802e+02 ;    H5S - C15    - C14   
  6286   6289   6290      1    1.1005e+02    3.8802e+02 ;    C14 - C13    - H3R   
  6286   6289   6291      1    1.1005e+02    3.8802e+02 ;    C14 - C13    - H3S   
  6286   6289   6292      1    1.1205e+02    3.9497e+02 ;    C14 - C13    - C12   
  6287   6286   6288      1    1.0835e+02    3.2995e+02 ;    H4R - C14    - H4S   
  6287   6286   6289      1    1.1005e+02    3.8802e+02 ;    H4R - C14    - C13   
  6288   6286   6289      1    1.1005e+02    3.8802e+02 ;    H4S - C14    - C13   
  6289   6292   6293      1    1.1005e+02    3.8802e+02 ;    C13 - C12    - H2R   
  6289   6292   6294      1    1.1005e+02    3.8802e+02 ;    C13 - C12    - H2S   
  6289   6292   6295      1    1.1053e+02    5.3379e+02 ;    C13 - C12    - C11   
  6290   6289   6291      1    1.0835e+02    3.2995e+02 ;    H3R - C13    - H3S   
  6290   6289   6292      1    1.1005e+02    3.8802e+02 ;    H3R - C13    - C12   
  6291   6289   6292      1    1.1005e+02    3.8802e+02 ;    H3S - C13    - C12   
  6292   6295   6296      1    1.2311e+02    5.6928e+02 ;    C12 - C11    - O12   
  6292   6295   6297      1    1.1196e+02    5.7957e+02 ;    C12 - C11    - O11   
  6293   6292   6294      1    1.0835e+02    3.2995e+02 ;    H2R - C12    - H2S   
  6293   6292   6295      1    1.0968e+02    3.9497e+02 ;    H2R - C12    - C11   
  6294   6292   6295      1    1.0968e+02    3.9497e+02 ;    H2S - C12    - C11   
  6295   6297   6298      1    1.1514e+02    5.3246e+02 ;    C11 - O11    - C1    
  6296   6295   6297      1    1.2333e+02    6.3538e+02 ;    O12 - C11    - O11   
  6297   6298   6299      1    1.0882e+02    4.2543e+02 ;    O11 - C1     - HR    
  6297   6298   6300      1    1.0882e+02    4.2543e+02 ;    O11 - C1     - HS    
  6297   6298   6301      1    1.0842e+02    5.6718e+02 ;    O11 - C1     - C2    
  6298   6301   6302      1    1.1007e+02    3.8794e+02 ;     C1 - C2     - HX    
  6298   6301   6303      1    1.1063e+02    5.2894e+02 ;     C1 - C2     - C3    
  6298   6301   6330      1    1.0842e+02    5.6718e+02 ;     C1 - C2     - O21   
  6299   6298   6300      1    1.0955e+02    3.2786e+02 ;     HR - C1     - HS    
  6299   6298   6301      1    1.1007e+02    3.8794e+02 ;     HR - C1     - C2    
  6300   6298   6301      1    1.1007e+02    3.8794e+02 ;     HS - C1     - C2    
  6301   6303   6304      1    1.1007e+02    3.8794e+02 ;     C2 - C3     - HA    
  6301   6303   6305      1    1.1007e+02    3.8794e+02 ;     C2 - C3     - HB    
  6301   6303   6306      1    1.0842e+02    5.6718e+02 ;     C2 - C3     - O31   
  6301   6330   6331      1    1.1514e+02    5.3246e+02 ;     C2 - O21    - C21   
  6302   6301   6303      1    1.1007e+02    3.8794e+02 ;     HX - C2     - C3    
  6302   6301   6330      1    1.0882e+02    4.2543e+02 ;     HX - C2     - O21   
  6303   6301   6330      1    1.0842e+02    5.6718e+02 ;     C3 - C2     - O21   
  6303   6306   6307      1    1.2050e+02    8.3680e+02 ;     C3 - O31    - P31   
  6304   6303   6305      1    1.0955e+02    3.2786e+02 ;     HA - C3     - HB    
  6304   6303   6306      1    1.0882e+02    4.2543e+02 ;     HA - C3     - O31   
  6305   6303   6306      1    1.0882e+02    4.2543e+02 ;     HB - C3     - O31   
  6306   6307   6308      1    1.0260e+02    7.5312e+02 ;    O31 - P31    - O32   
  6306   6307   6328      1    1.0823e+02    8.3680e+02 ;    O31 - P31    - O33   
  6306   6307   6329      1    1.0823e+02    8.3680e+02 ;    O31 - P31    - O34   
  6307   6308   6309      1    1.2050e+02    8.3680e+02 ;    P31 - O32    - C31   
  6308   6307   6328      1    1.0823e+02    8.3680e+02 ;    O32 - P31    - O33   
  6308   6307   6329      1    1.0823e+02    8.3680e+02 ;    O32 - P31    - O34   
  6308   6309   6310      1    1.0882e+02    4.2543e+02 ;    O32 - C31    - H1A   
  6308   6309   6311      1    1.0882e+02    4.2543e+02 ;    O32 - C31    - H1B   
  6308   6309   6312      1    1.0842e+02    5.6718e+02 ;    O32 - C31    - C32   
  6309   6312   6313      1    1.1174e+02    3.8510e+02 ;    C31 - C32    - H2A   
  6309   6312   6314      1    1.1174e+02    3.8510e+02 ;    C31 - C32    - H2B   
  6309   6312   6315      1    1.1432e+02    5.3932e+02 ;    C31 - C32    - N31   
  6310   6309   6311      1    1.0955e+02    3.2786e+02 ;    H1A - C31    - H1B   
  6310   6309   6312      1    1.1007e+02    3.8794e+02 ;    H1A - C31    - C32   
  6311   6309   6312      1    1.1007e+02    3.8794e+02 ;    H1B - C31    - C32   
  6312   6315   6316      1    1.1064e+02    5.2585e+02 ;    C32 - N31    - C33   
  6312   6315   6320      1    1.1064e+02    5.2585e+02 ;    C32 - N31    - C34   
  6312   6315   6324      1    1.1064e+02    5.2585e+02 ;    C32 - N31    - C35   
  6313   6312   6314      1    1.1074e+02    3.2669e+02 ;    H2A - C32    - H2B   
  6313   6312   6315      1    1.0791e+02    4.1020e+02 ;    H2A - C32    - N31   
  6314   6312   6315      1    1.0791e+02    4.1020e+02 ;    H2B - C32    - N31   
  6315   6316   6317      1    1.0791e+02    4.1020e+02 ;    N31 - C33    - H3A   
  6315   6316   6318      1    1.0791e+02    4.1020e+02 ;    N31 - C33    - H3B   
  6315   6316   6319      1    1.0791e+02    4.1020e+02 ;    N31 - C33    - H3C   
  6315   6320   6321      1    1.0791e+02    4.1020e+02 ;    N31 - C34    - H4A   
  6315   6320   6322      1    1.0791e+02    4.1020e+02 ;    N31 - C34    - H4B   
  6315   6320   6323      1    1.0791e+02    4.1020e+02 ;    N31 - C34    - H4C   
  6315   6324   6325      1    1.0791e+02    4.1020e+02 ;    N31 - C35    - H5A   
  6315   6324   6326      1    1.0791e+02    4.1020e+02 ;    N31 - C35    - H5B   
  6315   6324   6327      1    1.0791e+02    4.1020e+02 ;    N31 - C35    - H5C   
  6316   6315   6320      1    1.1064e+02    5.2585e+02 ;    C33 - N31    - C34   
  6316   6315   6324      1    1.1064e+02    5.2585e+02 ;    C33 - N31    - C35   
  6317   6316   6318      1    1.1074e+02    3.2669e+02 ;    H3A - C33    - H3B   
  6317   6316   6319      1    1.1074e+02    3.2669e+02 ;    H3A - C33    - H3C   
  6318   6316   6319      1    1.1074e+02    3.2669e+02 ;    H3B - C33    - H3C   
  6320   6315   6324      1    1.1064e+02    5.2585e+02 ;    C34 - N31    - C35   
  6321   6320   6322      1    1.1074e+02    3.2669e+02 ;    H4A - C34    - H4B   
  6321   6320   6323      1    1.1074e+02    3.2669e+02 ;    H4A - C34    - H4C   
  6322   6320   6323      1    1.1074e+02    3.2669e+02 ;    H4B - C34    - H4C   
  6325   6324   6326      1    1.1074e+02    3.2669e+02 ;    H5A - C35    - H5B   
  6325   6324   6327      1    1.1074e+02    3.2669e+02 ;    H5A - C35    - H5C   
  6326   6324   6327      1    1.1074e+02    3.2669e+02 ;    H5B - C35    - H5C   
  6328   6307   6329      1    1.1990e+02    1.1715e+03 ;    O33 - P31    - O34   
  6330   6331   6332      1    1.2333e+02    6.3538e+02 ;    O21 - C21    - O22   
  6330   6331   6370      1    1.1196e+02    5.7957e+02 ;    O21 - C21    - C12   
  6331   6370   6367      1    1.1053e+02    5.3379e+02 ;    C21 - C12    - C13   
  6331   6370   6371      1    1.0968e+02    3.9497e+02 ;    C21 - C12    - H2R   
  6331   6370   6372      1    1.0968e+02    3.9497e+02 ;    C21 - C12    - H2S   
  6332   6331   6370      1    1.2311e+02    5.6928e+02 ;    O22 - C21    - C12   
  6333   6334   6335      1    1.0835e+02    3.2995e+02 ;   H14T - C114   - H14R  
  6333   6334   6336      1    1.0835e+02    3.2995e+02 ;   H14T - C114   - H14S  
  6333   6334   6337      1    1.1005e+02    3.8802e+02 ;   H14T - C114   - C113  
  6334   6337   6338      1    1.1005e+02    3.8802e+02 ;   C114 - C113   - H13R  
  6334   6337   6339      1    1.1005e+02    3.8802e+02 ;   C114 - C113   - H13S  
  6334   6337   6340      1    1.1205e+02    3.9497e+02 ;   C114 - C113   - C112  
  6335   6334   6336      1    1.0835e+02    3.2995e+02 ;   H14R - C114   - H14S  
  6335   6334   6337      1    1.1005e+02    3.8802e+02 ;   H14R - C114   - C113  
  6336   6334   6337      1    1.1005e+02    3.8802e+02 ;   H14S - C114   - C113  
  6337   6340   6341      1    1.1005e+02    3.8802e+02 ;   C113 - C112   - H12R  
  6337   6340   6342      1    1.1005e+02    3.8802e+02 ;   C113 - C112   - H12S  
  6337   6340   6343      1    1.1205e+02    3.9497e+02 ;   C113 - C112   - C111  
  6338   6337   6339      1    1.0835e+02    3.2995e+02 ;   H13R - C113   - H13S  
  6338   6337   6340      1    1.1005e+02    3.8802e+02 ;   H13R - C113   - C112  
  6339   6337   6340      1    1.1005e+02    3.8802e+02 ;   H13S - C113   - C112  
  6340   6343   6344      1    1.1005e+02    3.8802e+02 ;   C112 - C111   - H11R  
  6340   6343   6345      1    1.1005e+02    3.8802e+02 ;   C112 - C111   - H11S  
  6340   6343   6346      1    1.1205e+02    3.9497e+02 ;   C112 - C111   - C110  
  6341   6340   6342      1    1.0835e+02    3.2995e+02 ;   H12R - C112   - H12S  
  6341   6340   6343      1    1.1005e+02    3.8802e+02 ;   H12R - C112   - C111  
  6342   6340   6343      1    1.1005e+02    3.8802e+02 ;   H12S - C112   - C111  
  6343   6346   6347      1    1.1005e+02    3.8802e+02 ;   C111 - C110   - H10R  
  6343   6346   6348      1    1.1005e+02    3.8802e+02 ;   C111 - C110   - H10S  
  6343   6346   6349      1    1.1205e+02    3.9497e+02 ;   C111 - C110   - C19   
  6344   6343   6345      1    1.0835e+02    3.2995e+02 ;   H11R - C111   - H11S  
  6344   6343   6346      1    1.1005e+02    3.8802e+02 ;   H11R - C111   - C110  
  6345   6343   6346      1    1.1005e+02    3.8802e+02 ;   H11S - C111   - C110  
  6346   6349   6350      1    1.1005e+02    3.8802e+02 ;   C110 - C19    - H9R   
  6346   6349   6351      1    1.1005e+02    3.8802e+02 ;   C110 - C19    - H9S   
  6346   6349   6352      1    1.1205e+02    3.9497e+02 ;   C110 - C19    - C18   
  6347   6346   6348      1    1.0835e+02    3.2995e+02 ;   H10R - C110   - H10S  
  6347   6346   6349      1    1.1005e+02    3.8802e+02 ;   H10R - C110   - C19   
  6348   6346   6349      1    1.1005e+02    3.8802e+02 ;   H10S - C110   - C19   
  6349   6352   6353      1    1.1005e+02    3.8802e+02 ;    C19 - C18    - H8R   
  6349   6352   6354      1    1.1005e+02    3.8802e+02 ;    C19 - C18    - H8S   
  6349   6352   6355      1    1.1205e+02    3.9497e+02 ;    C19 - C18    - C17   
  6350   6349   6351      1    1.0835e+02    3.2995e+02 ;    H9R - C19    - H9S   
  6350   6349   6352      1    1.1005e+02    3.8802e+02 ;    H9R - C19    - C18   
  6351   6349   6352      1    1.1005e+02    3.8802e+02 ;    H9S - C19    - C18   
  6352   6355   6356      1    1.1005e+02    3.8802e+02 ;    C18 - C17    - H7R   
  6352   6355   6357      1    1.1005e+02    3.8802e+02 ;    C18 - C17    - H7S   
  6352   6355   6358      1    1.1205e+02    3.9497e+02 ;    C18 - C17    - C16   
  6353   6352   6354      1    1.0835e+02    3.2995e+02 ;    H8R - C18    - H8S   
  6353   6352   6355      1    1.1005e+02    3.8802e+02 ;    H8R - C18    - C17   
  6354   6352   6355      1    1.1005e+02    3.8802e+02 ;    H8S - C18    - C17   
  6355   6358   6359      1    1.1005e+02    3.8802e+02 ;    C17 - C16    - H6R   
  6355   6358   6360      1    1.1005e+02    3.8802e+02 ;    C17 - C16    - H6S   
  6355   6358   6361      1    1.1205e+02    3.9497e+02 ;    C17 - C16    - C15   
  6356   6355   6357      1    1.0835e+02    3.2995e+02 ;    H7R - C17    - H7S   
  6356   6355   6358      1    1.1005e+02    3.8802e+02 ;    H7R - C17    - C16   
  6357   6355   6358      1    1.1005e+02    3.8802e+02 ;    H7S - C17    - C16   
  6358   6361   6362      1    1.1005e+02    3.8802e+02 ;    C16 - C15    - H5R   
  6358   6361   6363      1    1.1005e+02    3.8802e+02 ;    C16 - C15    - H5S   
  6358   6361   6364      1    1.1205e+02    3.9497e+02 ;    C16 - C15    - C14   
  6359   6358   6360      1    1.0835e+02    3.2995e+02 ;    H6R - C16    - H6S   
  6359   6358   6361      1    1.1005e+02    3.8802e+02 ;    H6R - C16    - C15   
  6360   6358   6361      1    1.1005e+02    3.8802e+02 ;    H6S - C16    - C15   
  6361   6364   6365      1    1.1005e+02    3.8802e+02 ;    C15 - C14    - H4R   
  6361   6364   6366      1    1.1005e+02    3.8802e+02 ;    C15 - C14    - H4S   
  6361   6364   6367      1    1.1205e+02    3.9497e+02 ;    C15 - C14    - C13   
  6362   6361   6363      1    1.0835e+02    3.2995e+02 ;    H5R - C15    - H5S   
  6362   6361   6364      1    1.1005e+02    3.8802e+02 ;    H5R - C15    - C14   
  6363   6361   6364      1    1.1005e+02    3.8802e+02 ;    H5S - C15    - C14   
  6364   6367   6368      1    1.1005e+02    3.8802e+02 ;    C14 - C13    - H3R   
  6364   6367   6369      1    1.1005e+02    3.8802e+02 ;    C14 - C13    - H3S   
  6364   6367   6370      1    1.1205e+02    3.9497e+02 ;    C14 - C13    - C12   
  6365   6364   6366      1    1.0835e+02    3.2995e+02 ;    H4R - C14    - H4S   
  6365   6364   6367      1    1.1005e+02    3.8802e+02 ;    H4R - C14    - C13   
  6366   6364   6367      1    1.1005e+02    3.8802e+02 ;    H4S - C14    - C13   
  6367   6370   6371      1    1.1005e+02    3.8802e+02 ;    C13 - C12    - H2R   
  6367   6370   6372      1    1.1005e+02    3.8802e+02 ;    C13 - C12    - H2S   
  6368   6367   6369      1    1.0835e+02    3.2995e+02 ;    H3R - C13    - H3S   
  6368   6367   6370      1    1.1005e+02    3.8802e+02 ;    H3R - C13    - C12   
  6369   6367   6370      1    1.1005e+02    3.8802e+02 ;    H3S - C13    - C12   
  6371   6370   6372      1    1.0835e+02    3.2995e+02 ;    H2R - C12    - H2S   
  6373   6374   6375      1    1.0835e+02    3.2995e+02 ;   H14T - C114   - H14R  
  6373   6374   6376      1    1.0835e+02    3.2995e+02 ;   H14T - C114   - H14S  
  6373   6374   6377      1    1.1005e+02    3.8802e+02 ;   H14T - C114   - C113  
  6374   6377   6378      1    1.1005e+02    3.8802e+02 ;   C114 - C113   - H13R  
  6374   6377   6379      1    1.1005e+02    3.8802e+02 ;   C114 - C113   - H13S  
  6374   6377   6380      1    1.1205e+02    3.9497e+02 ;   C114 - C113   - C112  
  6375   6374   6376      1    1.0835e+02    3.2995e+02 ;   H14R - C114   - H14S  
  6375   6374   6377      1    1.1005e+02    3.8802e+02 ;   H14R - C114   - C113  
  6376   6374   6377      1    1.1005e+02    3.8802e+02 ;   H14S - C114   - C113  
  6377   6380   6381      1    1.1005e+02    3.8802e+02 ;   C113 - C112   - H12R  
  6377   6380   6382      1    1.1005e+02    3.8802e+02 ;   C113 - C112   - H12S  
  6377   6380   6383      1    1.1205e+02    3.9497e+02 ;   C113 - C112   - C111  
  6378   6377   6379      1    1.0835e+02    3.2995e+02 ;   H13R - C113   - H13S  
  6378   6377   6380      1    1.1005e+02    3.8802e+02 ;   H13R - C113   - C112  
  6379   6377   6380      1    1.1005e+02    3.8802e+02 ;   H13S - C113   - C112  
  6380   6383   6384      1    1.1005e+02    3.8802e+02 ;   C112 - C111   - H11R  
  6380   6383   6385      1    1.1005e+02    3.8802e+02 ;   C112 - C111   - H11S  
  6380   6383   6386      1    1.1205e+02    3.9497e+02 ;   C112 - C111   - C110  
  6381   6380   6382      1    1.0835e+02    3.2995e+02 ;   H12R - C112   - H12S  
  6381   6380   6383      1    1.1005e+02    3.8802e+02 ;   H12R - C112   - C111  
  6382   6380   6383      1    1.1005e+02    3.8802e+02 ;   H12S - C112   - C111  
  6383   6386   6387      1    1.1005e+02    3.8802e+02 ;   C111 - C110   - H10R  
  6383   6386   6388      1    1.1005e+02    3.8802e+02 ;   C111 - C110   - H10S  
  6383   6386   6389      1    1.1205e+02    3.9497e+02 ;   C111 - C110   - C19   
  6384   6383   6385      1    1.0835e+02    3.2995e+02 ;   H11R - C111   - H11S  
  6384   6383   6386      1    1.1005e+02    3.8802e+02 ;   H11R - C111   - C110  
  6385   6383   6386      1    1.1005e+02    3.8802e+02 ;   H11S - C111   - C110  
  6386   6389   6390      1    1.1005e+02    3.8802e+02 ;   C110 - C19    - H9R   
  6386   6389   6391      1    1.1005e+02    3.8802e+02 ;   C110 - C19    - H9S   
  6386   6389   6392      1    1.1205e+02    3.9497e+02 ;   C110 - C19    - C18   
  6387   6386   6388      1    1.0835e+02    3.2995e+02 ;   H10R - C110   - H10S  
  6387   6386   6389      1    1.1005e+02    3.8802e+02 ;   H10R - C110   - C19   
  6388   6386   6389      1    1.1005e+02    3.8802e+02 ;   H10S - C110   - C19   
  6389   6392   6393      1    1.1005e+02    3.8802e+02 ;    C19 - C18    - H8R   
  6389   6392   6394      1    1.1005e+02    3.8802e+02 ;    C19 - C18    - H8S   
  6389   6392   6395      1    1.1205e+02    3.9497e+02 ;    C19 - C18    - C17   
  6390   6389   6391      1    1.0835e+02    3.2995e+02 ;    H9R - C19    - H9S   
  6390   6389   6392      1    1.1005e+02    3.8802e+02 ;    H9R - C19    - C18   
  6391   6389   6392      1    1.1005e+02    3.8802e+02 ;    H9S - C19    - C18   
  6392   6395   6396      1    1.1005e+02    3.8802e+02 ;    C18 - C17    - H7R   
  6392   6395   6397      1    1.1005e+02    3.8802e+02 ;    C18 - C17    - H7S   
  6392   6395   6398      1    1.1205e+02    3.9497e+02 ;    C18 - C17    - C16   
  6393   6392   6394      1    1.0835e+02    3.2995e+02 ;    H8R - C18    - H8S   
  6393   6392   6395      1    1.1005e+02    3.8802e+02 ;    H8R - C18    - C17   
  6394   6392   6395      1    1.1005e+02    3.8802e+02 ;    H8S - C18    - C17   
  6395   6398   6399      1    1.1005e+02    3.8802e+02 ;    C17 - C16    - H6R   
  6395   6398   6400      1    1.1005e+02    3.8802e+02 ;    C17 - C16    - H6S   
  6395   6398   6401      1    1.1205e+02    3.9497e+02 ;    C17 - C16    - C15   
  6396   6395   6397      1    1.0835e+02    3.2995e+02 ;    H7R - C17    - H7S   
  6396   6395   6398      1    1.1005e+02    3.8802e+02 ;    H7R - C17    - C16   
  6397   6395   6398      1    1.1005e+02    3.8802e+02 ;    H7S - C17    - C16   
  6398   6401   6402      1    1.1005e+02    3.8802e+02 ;    C16 - C15    - H5R   
  6398   6401   6403      1    1.1005e+02    3.8802e+02 ;    C16 - C15    - H5S   
  6398   6401   6404      1    1.1205e+02    3.9497e+02 ;    C16 - C15    - C14   
  6399   6398   6400      1    1.0835e+02    3.2995e+02 ;    H6R - C16    - H6S   
  6399   6398   6401      1    1.1005e+02    3.8802e+02 ;    H6R - C16    - C15   
  6400   6398   6401      1    1.1005e+02    3.8802e+02 ;    H6S - C16    - C15   
  6401   6404   6405      1    1.1005e+02    3.8802e+02 ;    C15 - C14    - H4R   
  6401   6404   6406      1    1.1005e+02    3.8802e+02 ;    C15 - C14    - H4S   
  6401   6404   6407      1    1.1205e+02    3.9497e+02 ;    C15 - C14    - C13   
  6402   6401   6403      1    1.0835e+02    3.2995e+02 ;    H5R - C15    - H5S   
  6402   6401   6404      1    1.1005e+02    3.8802e+02 ;    H5R - C15    - C14   
  6403   6401   6404      1    1.1005e+02    3.8802e+02 ;    H5S - C15    - C14   
  6404   6407   6408      1    1.1005e+02    3.8802e+02 ;    C14 - C13    - H3R   
  6404   6407   6409      1    1.1005e+02    3.8802e+02 ;    C14 - C13    - H3S   
  6404   6407   6410      1    1.1205e+02    3.9497e+02 ;    C14 - C13    - C12   
  6405   6404   6406      1    1.0835e+02    3.2995e+02 ;    H4R - C14    - H4S   
  6405   6404   6407      1    1.1005e+02    3.8802e+02 ;    H4R - C14    - C13   
  6406   6404   6407      1    1.1005e+02    3.8802e+02 ;    H4S - C14    - C13   
  6407   6410   6411      1    1.1005e+02    3.8802e+02 ;    C13 - C12    - H2R   
  6407   6410   6412      1    1.1005e+02    3.8802e+02 ;    C13 - C12    - H2S   
  6407   6410   6413      1    1.1053e+02    5.3379e+02 ;    C13 - C12    - C11   
  6408   6407   6409      1    1.0835e+02    3.2995e+02 ;    H3R - C13    - H3S   
  6408   6407   6410      1    1.1005e+02    3.8802e+02 ;    H3R - C13    - C12   
  6409   6407   6410      1    1.1005e+02    3.8802e+02 ;    H3S - C13    - C12   
  6410   6413   6414      1    1.2311e+02    5.6928e+02 ;    C12 - C11    - O12   
  6410   6413   6415      1    1.1196e+02    5.7957e+02 ;    C12 - C11    - O11   
  6411   6410   6412      1    1.0835e+02    3.2995e+02 ;    H2R - C12    - H2S   
  6411   6410   6413      1    1.0968e+02    3.9497e+02 ;    H2R - C12    - C11   
  6412   6410   6413      1    1.0968e+02    3.9497e+02 ;    H2S - C12    - C11   
  6413   6415   6416      1    1.1514e+02    5.3246e+02 ;    C11 - O11    - C1    
  6414   6413   6415      1    1.2333e+02    6.3538e+02 ;    O12 - C11    - O11   
  6415   6416   6417      1    1.0882e+02    4.2543e+02 ;    O11 - C1     - HR    
  6415   6416   6418      1    1.0882e+02    4.2543e+02 ;    O11 - C1     - HS    
  6415   6416   6419      1    1.0842e+02    5.6718e+02 ;    O11 - C1     - C2    
  6416   6419   6420      1    1.1007e+02    3.8794e+02 ;     C1 - C2     - HX    
  6416   6419   6421      1    1.1063e+02    5.2894e+02 ;     C1 - C2     - C3    
  6416   6419   6448      1    1.0842e+02    5.6718e+02 ;     C1 - C2     - O21   
  6417   6416   6418      1    1.0955e+02    3.2786e+02 ;     HR - C1     - HS    
  6417   6416   6419      1    1.1007e+02    3.8794e+02 ;     HR - C1     - C2    
  6418   6416   6419      1    1.1007e+02    3.8794e+02 ;     HS - C1     - C2    
  6419   6421   6422      1    1.1007e+02    3.8794e+02 ;     C2 - C3     - HA    
  6419   6421   6423      1    1.1007e+02    3.8794e+02 ;     C2 - C3     - HB    
  6419   6421   6424      1    1.0842e+02    5.6718e+02 ;     C2 - C3     - O31   
  6419   6448   6449      1    1.1514e+02    5.3246e+02 ;     C2 - O21    - C21   
  6420   6419   6421      1    1.1007e+02    3.8794e+02 ;     HX - C2     - C3    
  6420   6419   6448      1    1.0882e+02    4.2543e+02 ;     HX - C2     - O21   
  6421   6419   6448      1    1.0842e+02    5.6718e+02 ;     C3 - C2     - O21   
  6421   6424   6425      1    1.2050e+02    8.3680e+02 ;     C3 - O31    - P31   
  6422   6421   6423      1    1.0955e+02    3.2786e+02 ;     HA - C3     - HB    
  6422   6421   6424      1    1.0882e+02    4.2543e+02 ;     HA - C3     - O31   
  6423   6421   6424      1    1.0882e+02    4.2543e+02 ;     HB - C3     - O31   
  6424   6425   6426      1    1.0260e+02    7.5312e+02 ;    O31 - P31    - O32   
  6424   6425   6446      1    1.0823e+02    8.3680e+02 ;    O31 - P31    - O33   
  6424   6425   6447      1    1.0823e+02    8.3680e+02 ;    O31 - P31    - O34   
  6425   6426   6427      1    1.2050e+02    8.3680e+02 ;    P31 - O32    - C31   
  6426   6425   6446      1    1.0823e+02    8.3680e+02 ;    O32 - P31    - O33   
  6426   6425   6447      1    1.0823e+02    8.3680e+02 ;    O32 - P31    - O34   
  6426   6427   6428      1    1.0882e+02    4.2543e+02 ;    O32 - C31    - H1A   
  6426   6427   6429      1    1.0882e+02    4.2543e+02 ;    O32 - C31    - H1B   
  6426   6427   6430      1    1.0842e+02    5.6718e+02 ;    O32 - C31    - C32   
  6427   6430   6431      1    1.1174e+02    3.8510e+02 ;    C31 - C32    - H2A   
  6427   6430   6432      1    1.1174e+02    3.8510e+02 ;    C31 - C32    - H2B   
  6427   6430   6433      1    1.1432e+02    5.3932e+02 ;    C31 - C32    - N31   
  6428   6427   6429      1    1.0955e+02    3.2786e+02 ;    H1A - C31    - H1B   
  6428   6427   6430      1    1.1007e+02    3.8794e+02 ;    H1A - C31    - C32   
  6429   6427   6430      1    1.1007e+02    3.8794e+02 ;    H1B - C31    - C32   
  6430   6433   6434      1    1.1064e+02    5.2585e+02 ;    C32 - N31    - C33   
  6430   6433   6438      1    1.1064e+02    5.2585e+02 ;    C32 - N31    - C34   
  6430   6433   6442      1    1.1064e+02    5.2585e+02 ;    C32 - N31    - C35   
  6431   6430   6432      1    1.1074e+02    3.2669e+02 ;    H2A - C32    - H2B   
  6431   6430   6433      1    1.0791e+02    4.1020e+02 ;    H2A - C32    - N31   
  6432   6430   6433      1    1.0791e+02    4.1020e+02 ;    H2B - C32    - N31   
  6433   6434   6435      1    1.0791e+02    4.1020e+02 ;    N31 - C33    - H3A   
  6433   6434   6436      1    1.0791e+02    4.1020e+02 ;    N31 - C33    - H3B   
  6433   6434   6437      1    1.0791e+02    4.1020e+02 ;    N31 - C33    - H3C   
  6433   6438   6439      1    1.0791e+02    4.1020e+02 ;    N31 - C34    - H4A   
  6433   6438   6440      1    1.0791e+02    4.1020e+02 ;    N31 - C34    - H4B   
  6433   6438   6441      1    1.0791e+02    4.1020e+02 ;    N31 - C34    - H4C   
  6433   6442   6443      1    1.0791e+02    4.1020e+02 ;    N31 - C35    - H5A   
  6433   6442   6444      1    1.0791e+02    4.1020e+02 ;    N31 - C35    - H5B   
  6433   6442   6445      1    1.0791e+02    4.1020e+02 ;    N31 - C35    - H5C   
  6434   6433   6438      1    1.1064e+02    5.2585e+02 ;    C33 - N31    - C34   
  6434   6433   6442      1    1.1064e+02    5.2585e+02 ;    C33 - N31    - C35   
  6435   6434   6436      1    1.1074e+02    3.2669e+02 ;    H3A - C33    - H3B   
  6435   6434   6437      1    1.1074e+02    3.2669e+02 ;    H3A - C33    - H3C   
  6436   6434   6437      1    1.1074e+02    3.2669e+02 ;    H3B - C33    - H3C   
  6438   6433   6442      1    1.1064e+02    5.2585e+02 ;    C34 - N31    - C35   
  6439   6438   6440      1    1.1074e+02    3.2669e+02 ;    H4A - C34    - H4B   
  6439   6438   6441      1    1.1074e+02    3.2669e+02 ;    H4A - C34    - H4C   
  6440   6438   6441      1    1.1074e+02    3.2669e+02 ;    H4B - C34    - H4C   
  6443   6442   6444      1    1.1074e+02    3.2669e+02 ;    H5A - C35    - H5B   
  6443   6442   6445      1    1.1074e+02    3.2669e+02 ;    H5A - C35    - H5C   
  6444   6442   6445      1    1.1074e+02    3.2669e+02 ;    H5B - C35    - H5C   
  6446   6425   6447      1    1.1990e+02    1.1715e+03 ;    O33 - P31    - O34   
  6448   6449   6450      1    1.2333e+02    6.3538e+02 ;    O21 - C21    - O22   
  6448   6449   6488      1    1.1196e+02    5.7957e+02 ;    O21 - C21    - C12   
  6449   6488   6485      1    1.1053e+02    5.3379e+02 ;    C21 - C12    - C13   
  6449   6488   6489      1    1.0968e+02    3.9497e+02 ;    C21 - C12    - H2R   
  6449   6488   6490      1    1.0968e+02    3.9497e+02 ;    C21 - C12    - H2S   
  6450   6449   6488      1    1.2311e+02    5.6928e+02 ;    O22 - C21    - C12   
  6451   6452   6453      1    1.0835e+02    3.2995e+02 ;   H14T - C114   - H14R  
  6451   6452   6454      1    1.0835e+02    3.2995e+02 ;   H14T - C114   - H14S  
  6451   6452   6455      1    1.1005e+02    3.8802e+02 ;   H14T - C114   - C113  
  6452   6455   6456      1    1.1005e+02    3.8802e+02 ;   C114 - C113   - H13R  
  6452   6455   6457      1    1.1005e+02    3.8802e+02 ;   C114 - C113   - H13S  
  6452   6455   6458      1    1.1205e+02    3.9497e+02 ;   C114 - C113   - C112  
  6453   6452   6454      1    1.0835e+02    3.2995e+02 ;   H14R - C114   - H14S  
  6453   6452   6455      1    1.1005e+02    3.8802e+02 ;   H14R - C114   - C113  
  6454   6452   6455      1    1.1005e+02    3.8802e+02 ;   H14S - C114   - C113  
  6455   6458   6459      1    1.1005e+02    3.8802e+02 ;   C113 - C112   - H12R  
  6455   6458   6460      1    1.1005e+02    3.8802e+02 ;   C113 - C112   - H12S  
  6455   6458   6461      1    1.1205e+02    3.9497e+02 ;   C113 - C112   - C111  
  6456   6455   6457      1    1.0835e+02    3.2995e+02 ;   H13R - C113   - H13S  
  6456   6455   6458      1    1.1005e+02    3.8802e+02 ;   H13R - C113   - C112  
  6457   6455   6458      1    1.1005e+02    3.8802e+02 ;   H13S - C113   - C112  
  6458   6461   6462      1    1.1005e+02    3.8802e+02 ;   C112 - C111   - H11R  
  6458   6461   6463      1    1.1005e+02    3.8802e+02 ;   C112 - C111   - H11S  
  6458   6461   6464      1    1.1205e+02    3.9497e+02 ;   C112 - C111   - C110  
  6459   6458   6460      1    1.0835e+02    3.2995e+02 ;   H12R - C112   - H12S  
  6459   6458   6461      1    1.1005e+02    3.8802e+02 ;   H12R - C112   - C111  
  6460   6458   6461      1    1.1005e+02    3.8802e+02 ;   H12S - C112   - C111  
  6461   6464   6465      1    1.1005e+02    3.8802e+02 ;   C111 - C110   - H10R  
  6461   6464   6466      1    1.1005e+02    3.8802e+02 ;   C111 - C110   - H10S  
  6461   6464   6467      1    1.1205e+02    3.9497e+02 ;   C111 - C110   - C19   
  6462   6461   6463      1    1.0835e+02    3.2995e+02 ;   H11R - C111   - H11S  
  6462   6461   6464      1    1.1005e+02    3.8802e+02 ;   H11R - C111   - C110  
  6463   6461   6464      1    1.1005e+02    3.8802e+02 ;   H11S - C111   - C110  
  6464   6467   6468      1    1.1005e+02    3.8802e+02 ;   C110 - C19    - H9R   
  6464   6467   6469      1    1.1005e+02    3.8802e+02 ;   C110 - C19    - H9S   
  6464   6467   6470      1    1.1205e+02    3.9497e+02 ;   C110 - C19    - C18   
  6465   6464   6466      1    1.0835e+02    3.2995e+02 ;   H10R - C110   - H10S  
  6465   6464   6467      1    1.1005e+02    3.8802e+02 ;   H10R - C110   - C19   
  6466   6464   6467      1    1.1005e+02    3.8802e+02 ;   H10S - C110   - C19   
  6467   6470   6471      1    1.1005e+02    3.8802e+02 ;    C19 - C18    - H8R   
  6467   6470   6472      1    1.1005e+02    3.8802e+02 ;    C19 - C18    - H8S   
  6467   6470   6473      1    1.1205e+02    3.9497e+02 ;    C19 - C18    - C17   
  6468   6467   6469      1    1.0835e+02    3.2995e+02 ;    H9R - C19    - H9S   
  6468   6467   6470      1    1.1005e+02    3.8802e+02 ;    H9R - C19    - C18   
  6469   6467   6470      1    1.1005e+02    3.8802e+02 ;    H9S - C19    - C18   
  6470   6473   6474      1    1.1005e+02    3.8802e+02 ;    C18 - C17    - H7R   
  6470   6473   6475      1    1.1005e+02    3.8802e+02 ;    C18 - C17    - H7S   
  6470   6473   6476      1    1.1205e+02    3.9497e+02 ;    C18 - C17    - C16   
  6471   6470   6472      1    1.0835e+02    3.2995e+02 ;    H8R - C18    - H8S   
  6471   6470   6473      1    1.1005e+02    3.8802e+02 ;    H8R - C18    - C17   
  6472   6470   6473      1    1.1005e+02    3.8802e+02 ;    H8S - C18    - C17   
  6473   6476   6477      1    1.1005e+02    3.8802e+02 ;    C17 - C16    - H6R   
  6473   6476   6478      1    1.1005e+02    3.8802e+02 ;    C17 - C16    - H6S   
  6473   6476   6479      1    1.1205e+02    3.9497e+02 ;    C17 - C16    - C15   
  6474   6473   6475      1    1.0835e+02    3.2995e+02 ;    H7R - C17    - H7S   
  6474   6473   6476      1    1.1005e+02    3.8802e+02 ;    H7R - C17    - C16   
  6475   6473   6476      1    1.1005e+02    3.8802e+02 ;    H7S - C17    - C16   
  6476   6479   6480      1    1.1005e+02    3.8802e+02 ;    C16 - C15    - H5R   
  6476   6479   6481      1    1.1005e+02    3.8802e+02 ;    C16 - C15    - H5S   
  6476   6479   6482      1    1.1205e+02    3.9497e+02 ;    C16 - C15    - C14   
  6477   6476   6478      1    1.0835e+02    3.2995e+02 ;    H6R - C16    - H6S   
  6477   6476   6479      1    1.1005e+02    3.8802e+02 ;    H6R - C16    - C15   
  6478   6476   6479      1    1.1005e+02    3.8802e+02 ;    H6S - C16    - C15   
  6479   6482   6483      1    1.1005e+02    3.8802e+02 ;    C15 - C14    - H4R   
  6479   6482   6484      1    1.1005e+02    3.8802e+02 ;    C15 - C14    - H4S   
  6479   6482   6485      1    1.1205e+02    3.9497e+02 ;    C15 - C14    - C13   
  6480   6479   6481      1    1.0835e+02    3.2995e+02 ;    H5R - C15    - H5S   
  6480   6479   6482      1    1.1005e+02    3.8802e+02 ;    H5R - C15    - C14   
  6481   6479   6482      1    1.1005e+02    3.8802e+02 ;    H5S - C15    - C14   
  6482   6485   6486      1    1.1005e+02    3.8802e+02 ;    C14 - C13    - H3R   
  6482   6485   6487      1    1.1005e+02    3.8802e+02 ;    C14 - C13    - H3S   
  6482   6485   6488      1    1.1205e+02    3.9497e+02 ;    C14 - C13    - C12   
  6483   6482   6484      1    1.0835e+02    3.2995e+02 ;    H4R - C14    - H4S   
  6483   6482   6485      1    1.1005e+02    3.8802e+02 ;    H4R - C14    - C13   
  6484   6482   6485      1    1.1005e+02    3.8802e+02 ;    H4S - C14    - C13   
  6485   6488   6489      1    1.1005e+02    3.8802e+02 ;    C13 - C12    - H2R   
  6485   6488   6490      1    1.1005e+02    3.8802e+02 ;    C13 - C12    - H2S   
  6486   6485   6487      1    1.0835e+02    3.2995e+02 ;    H3R - C13    - H3S   
  6486   6485   6488      1    1.1005e+02    3.8802e+02 ;    H3R - C13    - C12   
  6487   6485   6488      1    1.1005e+02    3.8802e+02 ;    H3S - C13    - C12   
  6489   6488   6490      1    1.0835e+02    3.2995e+02 ;    H2R - C12    - H2S   
  6491   6492   6493      1    1.0835e+02    3.2995e+02 ;   H14T - C114   - H14R  
  6491   6492   6494      1    1.0835e+02    3.2995e+02 ;   H14T - C114   - H14S  
  6491   6492   6495      1    1.1005e+02    3.8802e+02 ;   H14T - C114   - C113  
  6492   6495   6496      1    1.1005e+02    3.8802e+02 ;   C114 - C113   - H13R  
  6492   6495   6497      1    1.1005e+02    3.8802e+02 ;   C114 - C113   - H13S  
  6492   6495   6498      1    1.1205e+02    3.9497e+02 ;   C114 - C113   - C112  
  6493   6492   6494      1    1.0835e+02    3.2995e+02 ;   H14R - C114   - H14S  
  6493   6492   6495      1    1.1005e+02    3.8802e+02 ;   H14R - C114   - C113  
  6494   6492   6495      1    1.1005e+02    3.8802e+02 ;   H14S - C114   - C113  
  6495   6498   6499      1    1.1005e+02    3.8802e+02 ;   C113 - C112   - H12R  
  6495   6498   6500      1    1.1005e+02    3.8802e+02 ;   C113 - C112   - H12S  
  6495   6498   6501      1    1.1205e+02    3.9497e+02 ;   C113 - C112   - C111  
  6496   6495   6497      1    1.0835e+02    3.2995e+02 ;   H13R - C113   - H13S  
  6496   6495   6498      1    1.1005e+02    3.8802e+02 ;   H13R - C113   - C112  
  6497   6495   6498      1    1.1005e+02    3.8802e+02 ;   H13S - C113   - C112  
  6498   6501   6502      1    1.1005e+02    3.8802e+02 ;   C112 - C111   - H11R  
  6498   6501   6503      1    1.1005e+02    3.8802e+02 ;   C112 - C111   - H11S  
  6498   6501   6504      1    1.1205e+02    3.9497e+02 ;   C112 - C111   - C110  
  6499   6498   6500      1    1.0835e+02    3.2995e+02 ;   H12R - C112   - H12S  
  6499   6498   6501      1    1.1005e+02    3.8802e+02 ;   H12R - C112   - C111  
  6500   6498   6501      1    1.1005e+02    3.8802e+02 ;   H12S - C112   - C111  
  6501   6504   6505      1    1.1005e+02    3.8802e+02 ;   C111 - C110   - H10R  
  6501   6504   6506      1    1.1005e+02    3.8802e+02 ;   C111 - C110   - H10S  
  6501   6504   6507      1    1.1205e+02    3.9497e+02 ;   C111 - C110   - C19   
  6502   6501   6503      1    1.0835e+02    3.2995e+02 ;   H11R - C111   - H11S  
  6502   6501   6504      1    1.1005e+02    3.8802e+02 ;   H11R - C111   - C110  
  6503   6501   6504      1    1.1005e+02    3.8802e+02 ;   H11S - C111   - C110  
  6504   6507   6508      1    1.1005e+02    3.8802e+02 ;   C110 - C19    - H9R   
  6504   6507   6509      1    1.1005e+02    3.8802e+02 ;   C110 - C19    - H9S   
  6504   6507   6510      1    1.1205e+02    3.9497e+02 ;   C110 - C19    - C18   
  6505   6504   6506      1    1.0835e+02    3.2995e+02 ;   H10R - C110   - H10S  
  6505   6504   6507      1    1.1005e+02    3.8802e+02 ;   H10R - C110   - C19   
  6506   6504   6507      1    1.1005e+02    3.8802e+02 ;   H10S - C110   - C19   
  6507   6510   6511      1    1.1005e+02    3.8802e+02 ;    C19 - C18    - H8R   
  6507   6510   6512      1    1.1005e+02    3.8802e+02 ;    C19 - C18    - H8S   
  6507   6510   6513      1    1.1205e+02    3.9497e+02 ;    C19 - C18    - C17   
  6508   6507   6509      1    1.0835e+02    3.2995e+02 ;    H9R - C19    - H9S   
  6508   6507   6510      1    1.1005e+02    3.8802e+02 ;    H9R - C19    - C18   
  6509   6507   6510      1    1.1005e+02    3.8802e+02 ;    H9S - C19    - C18   
  6510   6513   6514      1    1.1005e+02    3.8802e+02 ;    C18 - C17    - H7R   
  6510   6513   6515      1    1.1005e+02    3.8802e+02 ;    C18 - C17    - H7S   
  6510   6513   6516      1    1.1205e+02    3.9497e+02 ;    C18 - C17    - C16   
  6511   6510   6512      1    1.0835e+02    3.2995e+02 ;    H8R - C18    - H8S   
  6511   6510   6513      1    1.1005e+02    3.8802e+02 ;    H8R - C18    - C17   
  6512   6510   6513      1    1.1005e+02    3.8802e+02 ;    H8S - C18    - C17   
  6513   6516   6517      1    1.1005e+02    3.8802e+02 ;    C17 - C16    - H6R   
  6513   6516   6518      1    1.1005e+02    3.8802e+02 ;    C17 - C16    - H6S   
  6513   6516   6519      1    1.1205e+02    3.9497e+02 ;    C17 - C16    - C15   
  6514   6513   6515      1    1.0835e+02    3.2995e+02 ;    H7R - C17    - H7S   
  6514   6513   6516      1    1.1005e+02    3.8802e+02 ;    H7R - C17    - C16   
  6515   6513   6516      1    1.1005e+02    3.8802e+02 ;    H7S - C17    - C16   
  6516   6519   6520      1    1.1005e+02    3.8802e+02 ;    C16 - C15    - H5R   
  6516   6519   6521      1    1.1005e+02    3.8802e+02 ;    C16 - C15    - H5S   
  6516   6519   6522      1    1.1205e+02    3.9497e+02 ;    C16 - C15    - C14   
  6517   6516   6518      1    1.0835e+02    3.2995e+02 ;    H6R - C16    - H6S   
  6517   6516   6519      1    1.1005e+02    3.8802e+02 ;    H6R - C16    - C15   
  6518   6516   6519      1    1.1005e+02    3.8802e+02 ;    H6S - C16    - C15   
  6519   6522   6523      1    1.1005e+02    3.8802e+02 ;    C15 - C14    - H4R   
  6519   6522   6524      1    1.1005e+02    3.8802e+02 ;    C15 - C14    - H4S   
  6519   6522   6525      1    1.1205e+02    3.9497e+02 ;    C15 - C14    - C13   
  6520   6519   6521      1    1.0835e+02    3.2995e+02 ;    H5R - C15    - H5S   
  6520   6519   6522      1    1.1005e+02    3.8802e+02 ;    H5R - C15    - C14   
  6521   6519   6522      1    1.1005e+02    3.8802e+02 ;    H5S - C15    - C14   
  6522   6525   6526      1    1.1005e+02    3.8802e+02 ;    C14 - C13    - H3R   
  6522   6525   6527      1    1.1005e+02    3.8802e+02 ;    C14 - C13    - H3S   
  6522   6525   6528      1    1.1205e+02    3.9497e+02 ;    C14 - C13    - C12   
  6523   6522   6524      1    1.0835e+02    3.2995e+02 ;    H4R - C14    - H4S   
  6523   6522   6525      1    1.1005e+02    3.8802e+02 ;    H4R - C14    - C13   
  6524   6522   6525      1    1.1005e+02    3.8802e+02 ;    H4S - C14    - C13   
  6525   6528   6529      1    1.1005e+02    3.8802e+02 ;    C13 - C12    - H2R   
  6525   6528   6530      1    1.1005e+02    3.8802e+02 ;    C13 - C12    - H2S   
  6525   6528   6531      1    1.1053e+02    5.3379e+02 ;    C13 - C12    - C11   
  6526   6525   6527      1    1.0835e+02    3.2995e+02 ;    H3R - C13    - H3S   
  6526   6525   6528      1    1.1005e+02    3.8802e+02 ;    H3R - C13    - C12   
  6527   6525   6528      1    1.1005e+02    3.8802e+02 ;    H3S - C13    - C12   
  6528   6531   6532      1    1.2311e+02    5.6928e+02 ;    C12 - C11    - O12   
  6528   6531   6533      1    1.1196e+02    5.7957e+02 ;    C12 - C11    - O11   
  6529   6528   6530      1    1.0835e+02    3.2995e+02 ;    H2R - C12    - H2S   
  6529   6528   6531      1    1.0968e+02    3.9497e+02 ;    H2R - C12    - C11   
  6530   6528   6531      1    1.0968e+02    3.9497e+02 ;    H2S - C12    - C11   
  6531   6533   6534      1    1.1514e+02    5.3246e+02 ;    C11 - O11    - C1    
  6532   6531   6533      1    1.2333e+02    6.3538e+02 ;    O12 - C11    - O11   
  6533   6534   6535      1    1.0882e+02    4.2543e+02 ;    O11 - C1     - HR    
  6533   6534   6536      1    1.0882e+02    4.2543e+02 ;    O11 - C1     - HS    
  6533   6534   6537      1    1.0842e+02    5.6718e+02 ;    O11 - C1     - C2    
  6534   6537   6538      1    1.1007e+02    3.8794e+02 ;     C1 - C2     - HX    
  6534   6537   6539      1    1.1063e+02    5.2894e+02 ;     C1 - C2     - C3    
  6534   6537   6566      1    1.0842e+02    5.6718e+02 ;     C1 - C2     - O21   
  6535   6534   6536      1    1.0955e+02    3.2786e+02 ;     HR - C1     - HS    
  6535   6534   6537      1    1.1007e+02    3.8794e+02 ;     HR - C1     - C2    
  6536   6534   6537      1    1.1007e+02    3.8794e+02 ;     HS - C1     - C2    
  6537   6539   6540      1    1.1007e+02    3.8794e+02 ;     C2 - C3     - HA    
  6537   6539   6541      1    1.1007e+02    3.8794e+02 ;     C2 - C3     - HB    
  6537   6539   6542      1    1.0842e+02    5.6718e+02 ;     C2 - C3     - O31   
  6537   6566   6567      1    1.1514e+02    5.3246e+02 ;     C2 - O21    - C21   
  6538   6537   6539      1    1.1007e+02    3.8794e+02 ;     HX - C2     - C3    
  6538   6537   6566      1    1.0882e+02    4.2543e+02 ;     HX - C2     - O21   
  6539   6537   6566      1    1.0842e+02    5.6718e+02 ;     C3 - C2     - O21   
  6539   6542   6543      1    1.2050e+02    8.3680e+02 ;     C3 - O31    - P31   
  6540   6539   6541      1    1.0955e+02    3.2786e+02 ;     HA - C3     - HB    
  6540   6539   6542      1    1.0882e+02    4.2543e+02 ;     HA - C3     - O31   
  6541   6539   6542      1    1.0882e+02    4.2543e+02 ;     HB - C3     - O31   
  6542   6543   6544      1    1.0260e+02    7.5312e+02 ;    O31 - P31    - O32   
  6542   6543   6564      1    1.0823e+02    8.3680e+02 ;    O31 - P31    - O33   
  6542   6543   6565      1    1.0823e+02    8.3680e+02 ;    O31 - P31    - O34   
  6543   6544   6545      1    1.2050e+02    8.3680e+02 ;    P31 - O32    - C31   
  6544   6543   6564      1    1.0823e+02    8.3680e+02 ;    O32 - P31    - O33   
  6544   6543   6565      1    1.0823e+02    8.3680e+02 ;    O32 - P31    - O34   
  6544   6545   6546      1    1.0882e+02    4.2543e+02 ;    O32 - C31    - H1A   
  6544   6545   6547      1    1.0882e+02    4.2543e+02 ;    O32 - C31    - H1B   
  6544   6545   6548      1    1.0842e+02    5.6718e+02 ;    O32 - C31    - C32   
  6545   6548   6549      1    1.1174e+02    3.8510e+02 ;    C31 - C32    - H2A   
  6545   6548   6550      1    1.1174e+02    3.8510e+02 ;    C31 - C32    - H2B   
  6545   6548   6551      1    1.1432e+02    5.3932e+02 ;    C31 - C32    - N31   
  6546   6545   6547      1    1.0955e+02    3.2786e+02 ;    H1A - C31    - H1B   
  6546   6545   6548      1    1.1007e+02    3.8794e+02 ;    H1A - C31    - C32   
  6547   6545   6548      1    1.1007e+02    3.8794e+02 ;    H1B - C31    - C32   
  6548   6551   6552      1    1.1064e+02    5.2585e+02 ;    C32 - N31    - C33   
  6548   6551   6556      1    1.1064e+02    5.2585e+02 ;    C32 - N31    - C34   
  6548   6551   6560      1    1.1064e+02    5.2585e+02 ;    C32 - N31    - C35   
  6549   6548   6550      1    1.1074e+02    3.2669e+02 ;    H2A - C32    - H2B   
  6549   6548   6551      1    1.0791e+02    4.1020e+02 ;    H2A - C32    - N31   
  6550   6548   6551      1    1.0791e+02    4.1020e+02 ;    H2B - C32    - N31   
  6551   6552   6553      1    1.0791e+02    4.1020e+02 ;    N31 - C33    - H3A   
  6551   6552   6554      1    1.0791e+02    4.1020e+02 ;    N31 - C33    - H3B   
  6551   6552   6555      1    1.0791e+02    4.1020e+02 ;    N31 - C33    - H3C   
  6551   6556   6557      1    1.0791e+02    4.1020e+02 ;    N31 - C34    - H4A   
  6551   6556   6558      1    1.0791e+02    4.1020e+02 ;    N31 - C34    - H4B   
  6551   6556   6559      1    1.0791e+02    4.1020e+02 ;    N31 - C34    - H4C   
  6551   6560   6561      1    1.0791e+02    4.1020e+02 ;    N31 - C35    - H5A   
  6551   6560   6562      1    1.0791e+02    4.1020e+02 ;    N31 - C35    - H5B   
  6551   6560   6563      1    1.0791e+02    4.1020e+02 ;    N31 - C35    - H5C   
  6552   6551   6556      1    1.1064e+02    5.2585e+02 ;    C33 - N31    - C34   
  6552   6551   6560      1    1.1064e+02    5.2585e+02 ;    C33 - N31    - C35   
  6553   6552   6554      1    1.1074e+02    3.2669e+02 ;    H3A - C33    - H3B   
  6553   6552   6555      1    1.1074e+02    3.2669e+02 ;    H3A - C33    - H3C   
  6554   6552   6555      1    1.1074e+02    3.2669e+02 ;    H3B - C33    - H3C   
  6556   6551   6560      1    1.1064e+02    5.2585e+02 ;    C34 - N31    - C35   
  6557   6556   6558      1    1.1074e+02    3.2669e+02 ;    H4A - C34    - H4B   
  6557   6556   6559      1    1.1074e+02    3.2669e+02 ;    H4A - C34    - H4C   
  6558   6556   6559      1    1.1074e+02    3.2669e+02 ;    H4B - C34    - H4C   
  6561   6560   6562      1    1.1074e+02    3.2669e+02 ;    H5A - C35    - H5B   
  6561   6560   6563      1    1.1074e+02    3.2669e+02 ;    H5A - C35    - H5C   
  6562   6560   6563      1    1.1074e+02    3.2669e+02 ;    H5B - C35    - H5C   
  6564   6543   6565      1    1.1990e+02    1.1715e+03 ;    O33 - P31    - O34   
  6566   6567   6568      1    1.2333e+02    6.3538e+02 ;    O21 - C21    - O22   
  6566   6567   6606      1    1.1196e+02    5.7957e+02 ;    O21 - C21    - C12   
  6567   6606   6603      1    1.1053e+02    5.3379e+02 ;    C21 - C12    - C13   
  6567   6606   6607      1    1.0968e+02    3.9497e+02 ;    C21 - C12    - H2R   
  6567   6606   6608      1    1.0968e+02    3.9497e+02 ;    C21 - C12    - H2S   
  6568   6567   6606      1    1.2311e+02    5.6928e+02 ;    O22 - C21    - C12   
  6569   6570   6571      1    1.0835e+02    3.2995e+02 ;   H14T - C114   - H14R  
  6569   6570   6572      1    1.0835e+02    3.2995e+02 ;   H14T - C114   - H14S  
  6569   6570   6573      1    1.1005e+02    3.8802e+02 ;   H14T - C114   - C113  
  6570   6573   6574      1    1.1005e+02    3.8802e+02 ;   C114 - C113   - H13R  
  6570   6573   6575      1    1.1005e+02    3.8802e+02 ;   C114 - C113   - H13S  
  6570   6573   6576      1    1.1205e+02    3.9497e+02 ;   C114 - C113   - C112  
  6571   6570   6572      1    1.0835e+02    3.2995e+02 ;   H14R - C114   - H14S  
  6571   6570   6573      1    1.1005e+02    3.8802e+02 ;   H14R - C114   - C113  
  6572   6570   6573      1    1.1005e+02    3.8802e+02 ;   H14S - C114   - C113  
  6573   6576   6577      1    1.1005e+02    3.8802e+02 ;   C113 - C112   - H12R  
  6573   6576   6578      1    1.1005e+02    3.8802e+02 ;   C113 - C112   - H12S  
  6573   6576   6579      1    1.1205e+02    3.9497e+02 ;   C113 - C112   - C111  
  6574   6573   6575      1    1.0835e+02    3.2995e+02 ;   H13R - C113   - H13S  
  6574   6573   6576      1    1.1005e+02    3.8802e+02 ;   H13R - C113   - C112  
  6575   6573   6576      1    1.1005e+02    3.8802e+02 ;   H13S - C113   - C112  
  6576   6579   6580      1    1.1005e+02    3.8802e+02 ;   C112 - C111   - H11R  
  6576   6579   6581      1    1.1005e+02    3.8802e+02 ;   C112 - C111   - H11S  
  6576   6579   6582      1    1.1205e+02    3.9497e+02 ;   C112 - C111   - C110  
  6577   6576   6578      1    1.0835e+02    3.2995e+02 ;   H12R - C112   - H12S  
  6577   6576   6579      1    1.1005e+02    3.8802e+02 ;   H12R - C112   - C111  
  6578   6576   6579      1    1.1005e+02    3.8802e+02 ;   H12S - C112   - C111  
  6579   6582   6583      1    1.1005e+02    3.8802e+02 ;   C111 - C110   - H10R  
  6579   6582   6584      1    1.1005e+02    3.8802e+02 ;   C111 - C110   - H10S  
  6579   6582   6585      1    1.1205e+02    3.9497e+02 ;   C111 - C110   - C19   
  6580   6579   6581      1    1.0835e+02    3.2995e+02 ;   H11R - C111   - H11S  
  6580   6579   6582      1    1.1005e+02    3.8802e+02 ;   H11R - C111   - C110  
  6581   6579   6582      1    1.1005e+02    3.8802e+02 ;   H11S - C111   - C110  
  6582   6585   6586      1    1.1005e+02    3.8802e+02 ;   C110 - C19    - H9R   
  6582   6585   6587      1    1.1005e+02    3.8802e+02 ;   C110 - C19    - H9S   
  6582   6585   6588      1    1.1205e+02    3.9497e+02 ;   C110 - C19    - C18   
  6583   6582   6584      1    1.0835e+02    3.2995e+02 ;   H10R - C110   - H10S  
  6583   6582   6585      1    1.1005e+02    3.8802e+02 ;   H10R - C110   - C19   
  6584   6582   6585      1    1.1005e+02    3.8802e+02 ;   H10S - C110   - C19   
  6585   6588   6589      1    1.1005e+02    3.8802e+02 ;    C19 - C18    - H8R   
  6585   6588   6590      1    1.1005e+02    3.8802e+02 ;    C19 - C18    - H8S   
  6585   6588   6591      1    1.1205e+02    3.9497e+02 ;    C19 - C18    - C17   
  6586   6585   6587      1    1.0835e+02    3.2995e+02 ;    H9R - C19    - H9S   
  6586   6585   6588      1    1.1005e+02    3.8802e+02 ;    H9R - C19    - C18   
  6587   6585   6588      1    1.1005e+02    3.8802e+02 ;    H9S - C19    - C18   
  6588   6591   6592      1    1.1005e+02    3.8802e+02 ;    C18 - C17    - H7R   
  6588   6591   6593      1    1.1005e+02    3.8802e+02 ;    C18 - C17    - H7S   
  6588   6591   6594      1    1.1205e+02    3.9497e+02 ;    C18 - C17    - C16   
  6589   6588   6590      1    1.0835e+02    3.2995e+02 ;    H8R - C18    - H8S   
  6589   6588   6591      1    1.1005e+02    3.8802e+02 ;    H8R - C18    - C17   
  6590   6588   6591      1    1.1005e+02    3.8802e+02 ;    H8S - C18    - C17   
  6591   6594   6595      1    1.1005e+02    3.8802e+02 ;    C17 - C16    - H6R   
  6591   6594   6596      1    1.1005e+02    3.8802e+02 ;    C17 - C16    - H6S   
  6591   6594   6597      1    1.1205e+02    3.9497e+02 ;    C17 - C16    - C15   
  6592   6591   6593      1    1.0835e+02    3.2995e+02 ;    H7R - C17    - H7S   
  6592   6591   6594      1    1.1005e+02    3.8802e+02 ;    H7R - C17    - C16   
  6593   6591   6594      1    1.1005e+02    3.8802e+02 ;    H7S - C17    - C16   
  6594   6597   6598      1    1.1005e+02    3.8802e+02 ;    C16 - C15    - H5R   
  6594   6597   6599      1    1.1005e+02    3.8802e+02 ;    C16 - C15    - H5S   
  6594   6597   6600      1    1.1205e+02    3.9497e+02 ;    C16 - C15    - C14   
  6595   6594   6596      1    1.0835e+02    3.2995e+02 ;    H6R - C16    - H6S   
  6595   6594   6597      1    1.1005e+02    3.8802e+02 ;    H6R - C16    - C15   
  6596   6594   6597      1    1.1005e+02    3.8802e+02 ;    H6S - C16    - C15   
  6597   6600   6601      1    1.1005e+02    3.8802e+02 ;    C15 - C14    - H4R   
  6597   6600   6602      1    1.1005e+02    3.8802e+02 ;    C15 - C14    - H4S   
  6597   6600   6603      1    1.1205e+02    3.9497e+02 ;    C15 - C14    - C13   
  6598   6597   6599      1    1.0835e+02    3.2995e+02 ;    H5R - C15    - H5S   
  6598   6597   6600      1    1.1005e+02    3.8802e+02 ;    H5R - C15    - C14   
  6599   6597   6600      1    1.1005e+02    3.8802e+02 ;    H5S - C15    - C14   
  6600   6603   6604      1    1.1005e+02    3.8802e+02 ;    C14 - C13    - H3R   
  6600   6603   6605      1    1.1005e+02    3.8802e+02 ;    C14 - C13    - H3S   
  6600   6603   6606      1    1.1205e+02    3.9497e+02 ;    C14 - C13    - C12   
  6601   6600   6602      1    1.0835e+02    3.2995e+02 ;    H4R - C14    - H4S   
  6601   6600   6603      1    1.1005e+02    3.8802e+02 ;    H4R - C14    - C13   
  6602   6600   6603      1    1.1005e+02    3.8802e+02 ;    H4S - C14    - C13   
  6603   6606   6607      1    1.1005e+02    3.8802e+02 ;    C13 - C12    - H2R   
  6603   6606   6608      1    1.1005e+02    3.8802e+02 ;    C13 - C12    - H2S   
  6604   6603   6605      1    1.0835e+02    3.2995e+02 ;    H3R - C13    - H3S   
  6604   6603   6606      1    1.1005e+02    3.8802e+02 ;    H3R - C13    - C12   
  6605   6603   6606      1    1.1005e+02    3.8802e+02 ;    H3S - C13    - C12   
  6607   6606   6608      1    1.0835e+02    3.2995e+02 ;    H2R - C12    - H2S   
  6609   6610   6611      1    1.0835e+02    3.2995e+02 ;   H14T - C114   - H14R  
  6609   6610   6612      1    1.0835e+02    3.2995e+02 ;   H14T - C114   - H14S  
  6609   6610   6613      1    1.1005e+02    3.8802e+02 ;   H14T - C114   - C113  
  6610   6613   6614      1    1.1005e+02    3.8802e+02 ;   C114 - C113   - H13R  
  6610   6613   6615      1    1.1005e+02    3.8802e+02 ;   C114 - C113   - H13S  
  6610   6613   6616      1    1.1205e+02    3.9497e+02 ;   C114 - C113   - C112  
  6611   6610   6612      1    1.0835e+02    3.2995e+02 ;   H14R - C114   - H14S  
  6611   6610   6613      1    1.1005e+02    3.8802e+02 ;   H14R - C114   - C113  
  6612   6610   6613      1    1.1005e+02    3.8802e+02 ;   H14S - C114   - C113  
  6613   6616   6617      1    1.1005e+02    3.8802e+02 ;   C113 - C112   - H12R  
  6613   6616   6618      1    1.1005e+02    3.8802e+02 ;   C113 - C112   - H12S  
  6613   6616   6619      1    1.1205e+02    3.9497e+02 ;   C113 - C112   - C111  
  6614   6613   6615      1    1.0835e+02    3.2995e+02 ;   H13R - C113   - H13S  
  6614   6613   6616      1    1.1005e+02    3.8802e+02 ;   H13R - C113   - C112  
  6615   6613   6616      1    1.1005e+02    3.8802e+02 ;   H13S - C113   - C112  
  6616   6619   6620      1    1.1005e+02    3.8802e+02 ;   C112 - C111   - H11R  
  6616   6619   6621      1    1.1005e+02    3.8802e+02 ;   C112 - C111   - H11S  
  6616   6619   6622      1    1.1205e+02    3.9497e+02 ;   C112 - C111   - C110  
  6617   6616   6618      1    1.0835e+02    3.2995e+02 ;   H12R - C112   - H12S  
  6617   6616   6619      1    1.1005e+02    3.8802e+02 ;   H12R - C112   - C111  
  6618   6616   6619      1    1.1005e+02    3.8802e+02 ;   H12S - C112   - C111  
  6619   6622   6623      1    1.1005e+02    3.8802e+02 ;   C111 - C110   - H10R  
  6619   6622   6624      1    1.1005e+02    3.8802e+02 ;   C111 - C110   - H10S  
  6619   6622   6625      1    1.1205e+02    3.9497e+02 ;   C111 - C110   - C19   
  6620   6619   6621      1    1.0835e+02    3.2995e+02 ;   H11R - C111   - H11S  
  6620   6619   6622      1    1.1005e+02    3.8802e+02 ;   H11R - C111   - C110  
  6621   6619   6622      1    1.1005e+02    3.8802e+02 ;   H11S - C111   - C110  
  6622   6625   6626      1    1.1005e+02    3.8802e+02 ;   C110 - C19    - H9R   
  6622   6625   6627      1    1.1005e+02    3.8802e+02 ;   C110 - C19    - H9S   
  6622   6625   6628      1    1.1205e+02    3.9497e+02 ;   C110 - C19    - C18   
  6623   6622   6624      1    1.0835e+02    3.2995e+02 ;   H10R - C110   - H10S  
  6623   6622   6625      1    1.1005e+02    3.8802e+02 ;   H10R - C110   - C19   
  6624   6622   6625      1    1.1005e+02    3.8802e+02 ;   H10S - C110   - C19   
  6625   6628   6629      1    1.1005e+02    3.8802e+02 ;    C19 - C18    - H8R   
  6625   6628   6630      1    1.1005e+02    3.8802e+02 ;    C19 - C18    - H8S   
  6625   6628   6631      1    1.1205e+02    3.9497e+02 ;    C19 - C18    - C17   
  6626   6625   6627      1    1.0835e+02    3.2995e+02 ;    H9R - C19    - H9S   
  6626   6625   6628      1    1.1005e+02    3.8802e+02 ;    H9R - C19    - C18   
  6627   6625   6628      1    1.1005e+02    3.8802e+02 ;    H9S - C19    - C18   
  6628   6631   6632      1    1.1005e+02    3.8802e+02 ;    C18 - C17    - H7R   
  6628   6631   6633      1    1.1005e+02    3.8802e+02 ;    C18 - C17    - H7S   
  6628   6631   6634      1    1.1205e+02    3.9497e+02 ;    C18 - C17    - C16   
  6629   6628   6630      1    1.0835e+02    3.2995e+02 ;    H8R - C18    - H8S   
  6629   6628   6631      1    1.1005e+02    3.8802e+02 ;    H8R - C18    - C17   
  6630   6628   6631      1    1.1005e+02    3.8802e+02 ;    H8S - C18    - C17   
  6631   6634   6635      1    1.1005e+02    3.8802e+02 ;    C17 - C16    - H6R   
  6631   6634   6636      1    1.1005e+02    3.8802e+02 ;    C17 - C16    - H6S   
  6631   6634   6637      1    1.1205e+02    3.9497e+02 ;    C17 - C16    - C15   
  6632   6631   6633      1    1.0835e+02    3.2995e+02 ;    H7R - C17    - H7S   
  6632   6631   6634      1    1.1005e+02    3.8802e+02 ;    H7R - C17    - C16   
  6633   6631   6634      1    1.1005e+02    3.8802e+02 ;    H7S - C17    - C16   
  6634   6637   6638      1    1.1005e+02    3.8802e+02 ;    C16 - C15    - H5R   
  6634   6637   6639      1    1.1005e+02    3.8802e+02 ;    C16 - C15    - H5S   
  6634   6637   6640      1    1.1205e+02    3.9497e+02 ;    C16 - C15    - C14   
  6635   6634   6636      1    1.0835e+02    3.2995e+02 ;    H6R - C16    - H6S   
  6635   6634   6637      1    1.1005e+02    3.8802e+02 ;    H6R - C16    - C15   
  6636   6634   6637      1    1.1005e+02    3.8802e+02 ;    H6S - C16    - C15   
  6637   6640   6641      1    1.1005e+02    3.8802e+02 ;    C15 - C14    - H4R   
  6637   6640   6642      1    1.1005e+02    3.8802e+02 ;    C15 - C14    - H4S   
  6637   6640   6643      1    1.1205e+02    3.9497e+02 ;    C15 - C14    - C13   
  6638   6637   6639      1    1.0835e+02    3.2995e+02 ;    H5R - C15    - H5S   
  6638   6637   6640      1    1.1005e+02    3.8802e+02 ;    H5R - C15    - C14   
  6639   6637   6640      1    1.1005e+02    3.8802e+02 ;    H5S - C15    - C14   
  6640   6643   6644      1    1.1005e+02    3.8802e+02 ;    C14 - C13    - H3R   
  6640   6643   6645      1    1.1005e+02    3.8802e+02 ;    C14 - C13    - H3S   
  6640   6643   6646      1    1.1205e+02    3.9497e+02 ;    C14 - C13    - C12   
  6641   6640   6642      1    1.0835e+02    3.2995e+02 ;    H4R - C14    - H4S   
  6641   6640   6643      1    1.1005e+02    3.8802e+02 ;    H4R - C14    - C13   
  6642   6640   6643      1    1.1005e+02    3.8802e+02 ;    H4S - C14    - C13   
  6643   6646   6647      1    1.1005e+02    3.8802e+02 ;    C13 - C12    - H2R   
  6643   6646   6648      1    1.1005e+02    3.8802e+02 ;    C13 - C12    - H2S   
  6643   6646   6649      1    1.1053e+02    5.3379e+02 ;    C13 - C12    - C11   
  6644   6643   6645      1    1.0835e+02    3.2995e+02 ;    H3R - C13    - H3S   
  6644   6643   6646      1    1.1005e+02    3.8802e+02 ;    H3R - C13    - C12   
  6645   6643   6646      1    1.1005e+02    3.8802e+02 ;    H3S - C13    - C12   
  6646   6649   6650      1    1.2311e+02    5.6928e+02 ;    C12 - C11    - O12   
  6646   6649   6651      1    1.1196e+02    5.7957e+02 ;    C12 - C11    - O11   
  6647   6646   6648      1    1.0835e+02    3.2995e+02 ;    H2R - C12    - H2S   
  6647   6646   6649      1    1.0968e+02    3.9497e+02 ;    H2R - C12    - C11   
  6648   6646   6649      1    1.0968e+02    3.9497e+02 ;    H2S - C12    - C11   
  6649   6651   6652      1    1.1514e+02    5.3246e+02 ;    C11 - O11    - C1    
  6650   6649   6651      1    1.2333e+02    6.3538e+02 ;    O12 - C11    - O11   
  6651   6652   6653      1    1.0882e+02    4.2543e+02 ;    O11 - C1     - HR    
  6651   6652   6654      1    1.0882e+02    4.2543e+02 ;    O11 - C1     - HS    
  6651   6652   6655      1    1.0842e+02    5.6718e+02 ;    O11 - C1     - C2    
  6652   6655   6656      1    1.1007e+02    3.8794e+02 ;     C1 - C2     - HX    
  6652   6655   6657      1    1.1063e+02    5.2894e+02 ;     C1 - C2     - C3    
  6652   6655   6684      1    1.0842e+02    5.6718e+02 ;     C1 - C2     - O21   
  6653   6652   6654      1    1.0955e+02    3.2786e+02 ;     HR - C1     - HS    
  6653   6652   6655      1    1.1007e+02    3.8794e+02 ;     HR - C1     - C2    
  6654   6652   6655      1    1.1007e+02    3.8794e+02 ;     HS - C1     - C2    
  6655   6657   6658      1    1.1007e+02    3.8794e+02 ;     C2 - C3     - HA    
  6655   6657   6659      1    1.1007e+02    3.8794e+02 ;     C2 - C3     - HB    
  6655   6657   6660      1    1.0842e+02    5.6718e+02 ;     C2 - C3     - O31   
  6655   6684   6685      1    1.1514e+02    5.3246e+02 ;     C2 - O21    - C21   
  6656   6655   6657      1    1.1007e+02    3.8794e+02 ;     HX - C2     - C3    
  6656   6655   6684      1    1.0882e+02    4.2543e+02 ;     HX - C2     - O21   
  6657   6655   6684      1    1.0842e+02    5.6718e+02 ;     C3 - C2     - O21   
  6657   6660   6661      1    1.2050e+02    8.3680e+02 ;     C3 - O31    - P31   
  6658   6657   6659      1    1.0955e+02    3.2786e+02 ;     HA - C3     - HB    
  6658   6657   6660      1    1.0882e+02    4.2543e+02 ;     HA - C3     - O31   
  6659   6657   6660      1    1.0882e+02    4.2543e+02 ;     HB - C3     - O31   
  6660   6661   6662      1    1.0260e+02    7.5312e+02 ;    O31 - P31    - O32   
  6660   6661   6682      1    1.0823e+02    8.3680e+02 ;    O31 - P31    - O33   
  6660   6661   6683      1    1.0823e+02    8.3680e+02 ;    O31 - P31    - O34   
  6661   6662   6663      1    1.2050e+02    8.3680e+02 ;    P31 - O32    - C31   
  6662   6661   6682      1    1.0823e+02    8.3680e+02 ;    O32 - P31    - O33   
  6662   6661   6683      1    1.0823e+02    8.3680e+02 ;    O32 - P31    - O34   
  6662   6663   6664      1    1.0882e+02    4.2543e+02 ;    O32 - C31    - H1A   
  6662   6663   6665      1    1.0882e+02    4.2543e+02 ;    O32 - C31    - H1B   
  6662   6663   6666      1    1.0842e+02    5.6718e+02 ;    O32 - C31    - C32   
  6663   6666   6667      1    1.1174e+02    3.8510e+02 ;    C31 - C32    - H2A   
  6663   6666   6668      1    1.1174e+02    3.8510e+02 ;    C31 - C32    - H2B   
  6663   6666   6669      1    1.1432e+02    5.3932e+02 ;    C31 - C32    - N31   
  6664   6663   6665      1    1.0955e+02    3.2786e+02 ;    H1A - C31    - H1B   
  6664   6663   6666      1    1.1007e+02    3.8794e+02 ;    H1A - C31    - C32   
  6665   6663   6666      1    1.1007e+02    3.8794e+02 ;    H1B - C31    - C32   
  6666   6669   6670      1    1.1064e+02    5.2585e+02 ;    C32 - N31    - C33   
  6666   6669   6674      1    1.1064e+02    5.2585e+02 ;    C32 - N31    - C34   
  6666   6669   6678      1    1.1064e+02    5.2585e+02 ;    C32 - N31    - C35   
  6667   6666   6668      1    1.1074e+02    3.2669e+02 ;    H2A - C32    - H2B   
  6667   6666   6669      1    1.0791e+02    4.1020e+02 ;    H2A - C32    - N31   
  6668   6666   6669      1    1.0791e+02    4.1020e+02 ;    H2B - C32    - N31   
  6669   6670   6671      1    1.0791e+02    4.1020e+02 ;    N31 - C33    - H3A   
  6669   6670   6672      1    1.0791e+02    4.1020e+02 ;    N31 - C33    - H3B   
  6669   6670   6673      1    1.0791e+02    4.1020e+02 ;    N31 - C33    - H3C   
  6669   6674   6675      1    1.0791e+02    4.1020e+02 ;    N31 - C34    - H4A   
  6669   6674   6676      1    1.0791e+02    4.1020e+02 ;    N31 - C34    - H4B   
  6669   6674   6677      1    1.0791e+02    4.1020e+02 ;    N31 - C34    - H4C   
  6669   6678   6679      1    1.0791e+02    4.1020e+02 ;    N31 - C35    - H5A   
  6669   6678   6680      1    1.0791e+02    4.1020e+02 ;    N31 - C35    - H5B   
  6669   6678   6681      1    1.0791e+02    4.1020e+02 ;    N31 - C35    - H5C   
  6670   6669   6674      1    1.1064e+02    5.2585e+02 ;    C33 - N31    - C34   
  6670   6669   6678      1    1.1064e+02    5.2585e+02 ;    C33 - N31    - C35   
  6671   6670   6672      1    1.1074e+02    3.2669e+02 ;    H3A - C33    - H3B   
  6671   6670   6673      1    1.1074e+02    3.2669e+02 ;    H3A - C33    - H3C   
  6672   6670   6673      1    1.1074e+02    3.2669e+02 ;    H3B - C33    - H3C   
  6674   6669   6678      1    1.1064e+02    5.2585e+02 ;    C34 - N31    - C35   
  6675   6674   6676      1    1.1074e+02    3.2669e+02 ;    H4A - C34    - H4B   
  6675   6674   6677      1    1.1074e+02    3.2669e+02 ;    H4A - C34    - H4C   
  6676   6674   6677      1    1.1074e+02    3.2669e+02 ;    H4B - C34    - H4C   
  6679   6678   6680      1    1.1074e+02    3.2669e+02 ;    H5A - C35    - H5B   
  6679   6678   6681      1    1.1074e+02    3.2669e+02 ;    H5A - C35    - H5C   
  6680   6678   6681      1    1.1074e+02    3.2669e+02 ;    H5B - C35    - H5C   
  6682   6661   6683      1    1.1990e+02    1.1715e+03 ;    O33 - P31    - O34   
  6684   6685   6686      1    1.2333e+02    6.3538e+02 ;    O21 - C21    - O22   
  6684   6685   6724      1    1.1196e+02    5.7957e+02 ;    O21 - C21    - C12   
  6685   6724   6721      1    1.1053e+02    5.3379e+02 ;    C21 - C12    - C13   
  6685   6724   6725      1    1.0968e+02    3.9497e+02 ;    C21 - C12    - H2R   
  6685   6724   6726      1    1.0968e+02    3.9497e+02 ;    C21 - C12    - H2S   
  6686   6685   6724      1    1.2311e+02    5.6928e+02 ;    O22 - C21    - C12   
  6687   6688   6689      1    1.0835e+02    3.2995e+02 ;   H14T - C114   - H14R  
  6687   6688   6690      1    1.0835e+02    3.2995e+02 ;   H14T - C114   - H14S  
  6687   6688   6691      1    1.1005e+02    3.8802e+02 ;   H14T - C114   - C113  
  6688   6691   6692      1    1.1005e+02    3.8802e+02 ;   C114 - C113   - H13R  
  6688   6691   6693      1    1.1005e+02    3.8802e+02 ;   C114 - C113   - H13S  
  6688   6691   6694      1    1.1205e+02    3.9497e+02 ;   C114 - C113   - C112  
  6689   6688   6690      1    1.0835e+02    3.2995e+02 ;   H14R - C114   - H14S  
  6689   6688   6691      1    1.1005e+02    3.8802e+02 ;   H14R - C114   - C113  
  6690   6688   6691      1    1.1005e+02    3.8802e+02 ;   H14S - C114   - C113  
  6691   6694   6695      1    1.1005e+02    3.8802e+02 ;   C113 - C112   - H12R  
  6691   6694   6696      1    1.1005e+02    3.8802e+02 ;   C113 - C112   - H12S  
  6691   6694   6697      1    1.1205e+02    3.9497e+02 ;   C113 - C112   - C111  
  6692   6691   6693      1    1.0835e+02    3.2995e+02 ;   H13R - C113   - H13S  
  6692   6691   6694      1    1.1005e+02    3.8802e+02 ;   H13R - C113   - C112  
  6693   6691   6694      1    1.1005e+02    3.8802e+02 ;   H13S - C113   - C112  
  6694   6697   6698      1    1.1005e+02    3.8802e+02 ;   C112 - C111   - H11R  
  6694   6697   6699      1    1.1005e+02    3.8802e+02 ;   C112 - C111   - H11S  
  6694   6697   6700      1    1.1205e+02    3.9497e+02 ;   C112 - C111   - C110  
  6695   6694   6696      1    1.0835e+02    3.2995e+02 ;   H12R - C112   - H12S  
  6695   6694   6697      1    1.1005e+02    3.8802e+02 ;   H12R - C112   - C111  
  6696   6694   6697      1    1.1005e+02    3.8802e+02 ;   H12S - C112   - C111  
  6697   6700   6701      1    1.1005e+02    3.8802e+02 ;   C111 - C110   - H10R  
  6697   6700   6702      1    1.1005e+02    3.8802e+02 ;   C111 - C110   - H10S  
  6697   6700   6703      1    1.1205e+02    3.9497e+02 ;   C111 - C110   - C19   
  6698   6697   6699      1    1.0835e+02    3.2995e+02 ;   H11R - C111   - H11S  
  6698   6697   6700      1    1.1005e+02    3.8802e+02 ;   H11R - C111   - C110  
  6699   6697   6700      1    1.1005e+02    3.8802e+02 ;   H11S - C111   - C110  
  6700   6703   6704      1    1.1005e+02    3.8802e+02 ;   C110 - C19    - H9R   
  6700   6703   6705      1    1.1005e+02    3.8802e+02 ;   C110 - C19    - H9S   
  6700   6703   6706      1    1.1205e+02    3.9497e+02 ;   C110 - C19    - C18   
  6701   6700   6702      1    1.0835e+02    3.2995e+02 ;   H10R - C110   - H10S  
  6701   6700   6703      1    1.1005e+02    3.8802e+02 ;   H10R - C110   - C19   
  6702   6700   6703      1    1.1005e+02    3.8802e+02 ;   H10S - C110   - C19   
  6703   6706   6707      1    1.1005e+02    3.8802e+02 ;    C19 - C18    - H8R   
  6703   6706   6708      1    1.1005e+02    3.8802e+02 ;    C19 - C18    - H8S   
  6703   6706   6709      1    1.1205e+02    3.9497e+02 ;    C19 - C18    - C17   
  6704   6703   6705      1    1.0835e+02    3.2995e+02 ;    H9R - C19    - H9S   
  6704   6703   6706      1    1.1005e+02    3.8802e+02 ;    H9R - C19    - C18   
  6705   6703   6706      1    1.1005e+02    3.8802e+02 ;    H9S - C19    - C18   
  6706   6709   6710      1    1.1005e+02    3.8802e+02 ;    C18 - C17    - H7R   
  6706   6709   6711      1    1.1005e+02    3.8802e+02 ;    C18 - C17    - H7S   
  6706   6709   6712      1    1.1205e+02    3.9497e+02 ;    C18 - C17    - C16   
  6707   6706   6708      1    1.0835e+02    3.2995e+02 ;    H8R - C18    - H8S   
  6707   6706   6709      1    1.1005e+02    3.8802e+02 ;    H8R - C18    - C17   
  6708   6706   6709      1    1.1005e+02    3.8802e+02 ;    H8S - C18    - C17   
  6709   6712   6713      1    1.1005e+02    3.8802e+02 ;    C17 - C16    - H6R   
  6709   6712   6714      1    1.1005e+02    3.8802e+02 ;    C17 - C16    - H6S   
  6709   6712   6715      1    1.1205e+02    3.9497e+02 ;    C17 - C16    - C15   
  6710   6709   6711      1    1.0835e+02    3.2995e+02 ;    H7R - C17    - H7S   
  6710   6709   6712      1    1.1005e+02    3.8802e+02 ;    H7R - C17    - C16   
  6711   6709   6712      1    1.1005e+02    3.8802e+02 ;    H7S - C17    - C16   
  6712   6715   6716      1    1.1005e+02    3.8802e+02 ;    C16 - C15    - H5R   
  6712   6715   6717      1    1.1005e+02    3.8802e+02 ;    C16 - C15    - H5S   
  6712   6715   6718      1    1.1205e+02    3.9497e+02 ;    C16 - C15    - C14   
  6713   6712   6714      1    1.0835e+02    3.2995e+02 ;    H6R - C16    - H6S   
  6713   6712   6715      1    1.1005e+02    3.8802e+02 ;    H6R - C16    - C15   
  6714   6712   6715      1    1.1005e+02    3.8802e+02 ;    H6S - C16    - C15   
  6715   6718   6719      1    1.1005e+02    3.8802e+02 ;    C15 - C14    - H4R   
  6715   6718   6720      1    1.1005e+02    3.8802e+02 ;    C15 - C14    - H4S   
  6715   6718   6721      1    1.1205e+02    3.9497e+02 ;    C15 - C14    - C13   
  6716   6715   6717      1    1.0835e+02    3.2995e+02 ;    H5R - C15    - H5S   
  6716   6715   6718      1    1.1005e+02    3.8802e+02 ;    H5R - C15    - C14   
  6717   6715   6718      1    1.1005e+02    3.8802e+02 ;    H5S - C15    - C14   
  6718   6721   6722      1    1.1005e+02    3.8802e+02 ;    C14 - C13    - H3R   
  6718   6721   6723      1    1.1005e+02    3.8802e+02 ;    C14 - C13    - H3S   
  6718   6721   6724      1    1.1205e+02    3.9497e+02 ;    C14 - C13    - C12   
  6719   6718   6720      1    1.0835e+02    3.2995e+02 ;    H4R - C14    - H4S   
  6719   6718   6721      1    1.1005e+02    3.8802e+02 ;    H4R - C14    - C13   
  6720   6718   6721      1    1.1005e+02    3.8802e+02 ;    H4S - C14    - C13   
  6721   6724   6725      1    1.1005e+02    3.8802e+02 ;    C13 - C12    - H2R   
  6721   6724   6726      1    1.1005e+02    3.8802e+02 ;    C13 - C12    - H2S   
  6722   6721   6723      1    1.0835e+02    3.2995e+02 ;    H3R - C13    - H3S   
  6722   6721   6724      1    1.1005e+02    3.8802e+02 ;    H3R - C13    - C12   
  6723   6721   6724      1    1.1005e+02    3.8802e+02 ;    H3S - C13    - C12   
  6725   6724   6726      1    1.0835e+02    3.2995e+02 ;    H2R - C12    - H2S   
  6727   6728   6729      1    1.0835e+02    3.2995e+02 ;   H14T - C114   - H14R  
  6727   6728   6730      1    1.0835e+02    3.2995e+02 ;   H14T - C114   - H14S  
  6727   6728   6731      1    1.1005e+02    3.8802e+02 ;   H14T - C114   - C113  
  6728   6731   6732      1    1.1005e+02    3.8802e+02 ;   C114 - C113   - H13R  
  6728   6731   6733      1    1.1005e+02    3.8802e+02 ;   C114 - C113   - H13S  
  6728   6731   6734      1    1.1205e+02    3.9497e+02 ;   C114 - C113   - C112  
  6729   6728   6730      1    1.0835e+02    3.2995e+02 ;   H14R - C114   - H14S  
  6729   6728   6731      1    1.1005e+02    3.8802e+02 ;   H14R - C114   - C113  
  6730   6728   6731      1    1.1005e+02    3.8802e+02 ;   H14S - C114   - C113  
  6731   6734   6735      1    1.1005e+02    3.8802e+02 ;   C113 - C112   - H12R  
  6731   6734   6736      1    1.1005e+02    3.8802e+02 ;   C113 - C112   - H12S  
  6731   6734   6737      1    1.1205e+02    3.9497e+02 ;   C113 - C112   - C111  
  6732   6731   6733      1    1.0835e+02    3.2995e+02 ;   H13R - C113   - H13S  
  6732   6731   6734      1    1.1005e+02    3.8802e+02 ;   H13R - C113   - C112  
  6733   6731   6734      1    1.1005e+02    3.8802e+02 ;   H13S - C113   - C112  
  6734   6737   6738      1    1.1005e+02    3.8802e+02 ;   C112 - C111   - H11R  
  6734   6737   6739      1    1.1005e+02    3.8802e+02 ;   C112 - C111   - H11S  
  6734   6737   6740      1    1.1205e+02    3.9497e+02 ;   C112 - C111   - C110  
  6735   6734   6736      1    1.0835e+02    3.2995e+02 ;   H12R - C112   - H12S  
  6735   6734   6737      1    1.1005e+02    3.8802e+02 ;   H12R - C112   - C111  
  6736   6734   6737      1    1.1005e+02    3.8802e+02 ;   H12S - C112   - C111  
  6737   6740   6741      1    1.1005e+02    3.8802e+02 ;   C111 - C110   - H10R  
  6737   6740   6742      1    1.1005e+02    3.8802e+02 ;   C111 - C110   - H10S  
  6737   6740   6743      1    1.1205e+02    3.9497e+02 ;   C111 - C110   - C19   
  6738   6737   6739      1    1.0835e+02    3.2995e+02 ;   H11R - C111   - H11S  
  6738   6737   6740      1    1.1005e+02    3.8802e+02 ;   H11R - C111   - C110  
  6739   6737   6740      1    1.1005e+02    3.8802e+02 ;   H11S - C111   - C110  
  6740   6743   6744      1    1.1005e+02    3.8802e+02 ;   C110 - C19    - H9R   
  6740   6743   6745      1    1.1005e+02    3.8802e+02 ;   C110 - C19    - H9S   
  6740   6743   6746      1    1.1205e+02    3.9497e+02 ;   C110 - C19    - C18   
  6741   6740   6742      1    1.0835e+02    3.2995e+02 ;   H10R - C110   - H10S  
  6741   6740   6743      1    1.1005e+02    3.8802e+02 ;   H10R - C110   - C19   
  6742   6740   6743      1    1.1005e+02    3.8802e+02 ;   H10S - C110   - C19   
  6743   6746   6747      1    1.1005e+02    3.8802e+02 ;    C19 - C18    - H8R   
  6743   6746   6748      1    1.1005e+02    3.8802e+02 ;    C19 - C18    - H8S   
  6743   6746   6749      1    1.1205e+02    3.9497e+02 ;    C19 - C18    - C17   
  6744   6743   6745      1    1.0835e+02    3.2995e+02 ;    H9R - C19    - H9S   
  6744   6743   6746      1    1.1005e+02    3.8802e+02 ;    H9R - C19    - C18   
  6745   6743   6746      1    1.1005e+02    3.8802e+02 ;    H9S - C19    - C18   
  6746   6749   6750      1    1.1005e+02    3.8802e+02 ;    C18 - C17    - H7R   
  6746   6749   6751      1    1.1005e+02    3.8802e+02 ;    C18 - C17    - H7S   
  6746   6749   6752      1    1.1205e+02    3.9497e+02 ;    C18 - C17    - C16   
  6747   6746   6748      1    1.0835e+02    3.2995e+02 ;    H8R - C18    - H8S   
  6747   6746   6749      1    1.1005e+02    3.8802e+02 ;    H8R - C18    - C17   
  6748   6746   6749      1    1.1005e+02    3.8802e+02 ;    H8S - C18    - C17   
  6749   6752   6753      1    1.1005e+02    3.8802e+02 ;    C17 - C16    - H6R   
  6749   6752   6754      1    1.1005e+02    3.8802e+02 ;    C17 - C16    - H6S   
  6749   6752   6755      1    1.1205e+02    3.9497e+02 ;    C17 - C16    - C15   
  6750   6749   6751      1    1.0835e+02    3.2995e+02 ;    H7R - C17    - H7S   
  6750   6749   6752      1    1.1005e+02    3.8802e+02 ;    H7R - C17    - C16   
  6751   6749   6752      1    1.1005e+02    3.8802e+02 ;    H7S - C17    - C16   
  6752   6755   6756      1    1.1005e+02    3.8802e+02 ;    C16 - C15    - H5R   
  6752   6755   6757      1    1.1005e+02    3.8802e+02 ;    C16 - C15    - H5S   
  6752   6755   6758      1    1.1205e+02    3.9497e+02 ;    C16 - C15    - C14   
  6753   6752   6754      1    1.0835e+02    3.2995e+02 ;    H6R - C16    - H6S   
  6753   6752   6755      1    1.1005e+02    3.8802e+02 ;    H6R - C16    - C15   
  6754   6752   6755      1    1.1005e+02    3.8802e+02 ;    H6S - C16    - C15   
  6755   6758   6759      1    1.1005e+02    3.8802e+02 ;    C15 - C14    - H4R   
  6755   6758   6760      1    1.1005e+02    3.8802e+02 ;    C15 - C14    - H4S   
  6755   6758   6761      1    1.1205e+02    3.9497e+02 ;    C15 - C14    - C13   
  6756   6755   6757      1    1.0835e+02    3.2995e+02 ;    H5R - C15    - H5S   
  6756   6755   6758      1    1.1005e+02    3.8802e+02 ;    H5R - C15    - C14   
  6757   6755   6758      1    1.1005e+02    3.8802e+02 ;    H5S - C15    - C14   
  6758   6761   6762      1    1.1005e+02    3.8802e+02 ;    C14 - C13    - H3R   
  6758   6761   6763      1    1.1005e+02    3.8802e+02 ;    C14 - C13    - H3S   
  6758   6761   6764      1    1.1205e+02    3.9497e+02 ;    C14 - C13    - C12   
  6759   6758   6760      1    1.0835e+02    3.2995e+02 ;    H4R - C14    - H4S   
  6759   6758   6761      1    1.1005e+02    3.8802e+02 ;    H4R - C14    - C13   
  6760   6758   6761      1    1.1005e+02    3.8802e+02 ;    H4S - C14    - C13   
  6761   6764   6765      1    1.1005e+02    3.8802e+02 ;    C13 - C12    - H2R   
  6761   6764   6766      1    1.1005e+02    3.8802e+02 ;    C13 - C12    - H2S   
  6761   6764   6767      1    1.1053e+02    5.3379e+02 ;    C13 - C12    - C11   
  6762   6761   6763      1    1.0835e+02    3.2995e+02 ;    H3R - C13    - H3S   
  6762   6761   6764      1    1.1005e+02    3.8802e+02 ;    H3R - C13    - C12   
  6763   6761   6764      1    1.1005e+02    3.8802e+02 ;    H3S - C13    - C12   
  6764   6767   6768      1    1.2311e+02    5.6928e+02 ;    C12 - C11    - O12   
  6764   6767   6769      1    1.1196e+02    5.7957e+02 ;    C12 - C11    - O11   
  6765   6764   6766      1    1.0835e+02    3.2995e+02 ;    H2R - C12    - H2S   
  6765   6764   6767      1    1.0968e+02    3.9497e+02 ;    H2R - C12    - C11   
  6766   6764   6767      1    1.0968e+02    3.9497e+02 ;    H2S - C12    - C11   
  6767   6769   6770      1    1.1514e+02    5.3246e+02 ;    C11 - O11    - C1    
  6768   6767   6769      1    1.2333e+02    6.3538e+02 ;    O12 - C11    - O11   
  6769   6770   6771      1    1.0882e+02    4.2543e+02 ;    O11 - C1     - HR    
  6769   6770   6772      1    1.0882e+02    4.2543e+02 ;    O11 - C1     - HS    
  6769   6770   6773      1    1.0842e+02    5.6718e+02 ;    O11 - C1     - C2    
  6770   6773   6774      1    1.1007e+02    3.8794e+02 ;     C1 - C2     - HX    
  6770   6773   6775      1    1.1063e+02    5.2894e+02 ;     C1 - C2     - C3    
  6770   6773   6802      1    1.0842e+02    5.6718e+02 ;     C1 - C2     - O21   
  6771   6770   6772      1    1.0955e+02    3.2786e+02 ;     HR - C1     - HS    
  6771   6770   6773      1    1.1007e+02    3.8794e+02 ;     HR - C1     - C2    
  6772   6770   6773      1    1.1007e+02    3.8794e+02 ;     HS - C1     - C2    
  6773   6775   6776      1    1.1007e+02    3.8794e+02 ;     C2 - C3     - HA    
  6773   6775   6777      1    1.1007e+02    3.8794e+02 ;     C2 - C3     - HB    
  6773   6775   6778      1    1.0842e+02    5.6718e+02 ;     C2 - C3     - O31   
  6773   6802   6803      1    1.1514e+02    5.3246e+02 ;     C2 - O21    - C21   
  6774   6773   6775      1    1.1007e+02    3.8794e+02 ;     HX - C2     - C3    
  6774   6773   6802      1    1.0882e+02    4.2543e+02 ;     HX - C2     - O21   
  6775   6773   6802      1    1.0842e+02    5.6718e+02 ;     C3 - C2     - O21   
  6775   6778   6779      1    1.2050e+02    8.3680e+02 ;     C3 - O31    - P31   
  6776   6775   6777      1    1.0955e+02    3.2786e+02 ;     HA - C3     - HB    
  6776   6775   6778      1    1.0882e+02    4.2543e+02 ;     HA - C3     - O31   
  6777   6775   6778      1    1.0882e+02    4.2543e+02 ;     HB - C3     - O31   
  6778   6779   6780      1    1.0260e+02    7.5312e+02 ;    O31 - P31    - O32   
  6778   6779   6800      1    1.0823e+02    8.3680e+02 ;    O31 - P31    - O33   
  6778   6779   6801      1    1.0823e+02    8.3680e+02 ;    O31 - P31    - O34   
  6779   6780   6781      1    1.2050e+02    8.3680e+02 ;    P31 - O32    - C31   
  6780   6779   6800      1    1.0823e+02    8.3680e+02 ;    O32 - P31    - O33   
  6780   6779   6801      1    1.0823e+02    8.3680e+02 ;    O32 - P31    - O34   
  6780   6781   6782      1    1.0882e+02    4.2543e+02 ;    O32 - C31    - H1A   
  6780   6781   6783      1    1.0882e+02    4.2543e+02 ;    O32 - C31    - H1B   
  6780   6781   6784      1    1.0842e+02    5.6718e+02 ;    O32 - C31    - C32   
  6781   6784   6785      1    1.1174e+02    3.8510e+02 ;    C31 - C32    - H2A   
  6781   6784   6786      1    1.1174e+02    3.8510e+02 ;    C31 - C32    - H2B   
  6781   6784   6787      1    1.1432e+02    5.3932e+02 ;    C31 - C32    - N31   
  6782   6781   6783      1    1.0955e+02    3.2786e+02 ;    H1A - C31    - H1B   
  6782   6781   6784      1    1.1007e+02    3.8794e+02 ;    H1A - C31    - C32   
  6783   6781   6784      1    1.1007e+02    3.8794e+02 ;    H1B - C31    - C32   
  6784   6787   6788      1    1.1064e+02    5.2585e+02 ;    C32 - N31    - C33   
  6784   6787   6792      1    1.1064e+02    5.2585e+02 ;    C32 - N31    - C34   
  6784   6787   6796      1    1.1064e+02    5.2585e+02 ;    C32 - N31    - C35   
  6785   6784   6786      1    1.1074e+02    3.2669e+02 ;    H2A - C32    - H2B   
  6785   6784   6787      1    1.0791e+02    4.1020e+02 ;    H2A - C32    - N31   
  6786   6784   6787      1    1.0791e+02    4.1020e+02 ;    H2B - C32    - N31   
  6787   6788   6789      1    1.0791e+02    4.1020e+02 ;    N31 - C33    - H3A   
  6787   6788   6790      1    1.0791e+02    4.1020e+02 ;    N31 - C33    - H3B   
  6787   6788   6791      1    1.0791e+02    4.1020e+02 ;    N31 - C33    - H3C   
  6787   6792   6793      1    1.0791e+02    4.1020e+02 ;    N31 - C34    - H4A   
  6787   6792   6794      1    1.0791e+02    4.1020e+02 ;    N31 - C34    - H4B   
  6787   6792   6795      1    1.0791e+02    4.1020e+02 ;    N31 - C34    - H4C   
  6787   6796   6797      1    1.0791e+02    4.1020e+02 ;    N31 - C35    - H5A   
  6787   6796   6798      1    1.0791e+02    4.1020e+02 ;    N31 - C35    - H5B   
  6787   6796   6799      1    1.0791e+02    4.1020e+02 ;    N31 - C35    - H5C   
  6788   6787   6792      1    1.1064e+02    5.2585e+02 ;    C33 - N31    - C34   
  6788   6787   6796      1    1.1064e+02    5.2585e+02 ;    C33 - N31    - C35   
  6789   6788   6790      1    1.1074e+02    3.2669e+02 ;    H3A - C33    - H3B   
  6789   6788   6791      1    1.1074e+02    3.2669e+02 ;    H3A - C33    - H3C   
  6790   6788   6791      1    1.1074e+02    3.2669e+02 ;    H3B - C33    - H3C   
  6792   6787   6796      1    1.1064e+02    5.2585e+02 ;    C34 - N31    - C35   
  6793   6792   6794      1    1.1074e+02    3.2669e+02 ;    H4A - C34    - H4B   
  6793   6792   6795      1    1.1074e+02    3.2669e+02 ;    H4A - C34    - H4C   
  6794   6792   6795      1    1.1074e+02    3.2669e+02 ;    H4B - C34    - H4C   
  6797   6796   6798      1    1.1074e+02    3.2669e+02 ;    H5A - C35    - H5B   
  6797   6796   6799      1    1.1074e+02    3.2669e+02 ;    H5A - C35    - H5C   
  6798   6796   6799      1    1.1074e+02    3.2669e+02 ;    H5B - C35    - H5C   
  6800   6779   6801      1    1.1990e+02    1.1715e+03 ;    O33 - P31    - O34   
  6802   6803   6804      1    1.2333e+02    6.3538e+02 ;    O21 - C21    - O22   
  6802   6803   6842      1    1.1196e+02    5.7957e+02 ;    O21 - C21    - C12   
  6803   6842   6839      1    1.1053e+02    5.3379e+02 ;    C21 - C12    - C13   
  6803   6842   6843      1    1.0968e+02    3.9497e+02 ;    C21 - C12    - H2R   
  6803   6842   6844      1    1.0968e+02    3.9497e+02 ;    C21 - C12    - H2S   
  6804   6803   6842      1    1.2311e+02    5.6928e+02 ;    O22 - C21    - C12   
  6805   6806   6807      1    1.0835e+02    3.2995e+02 ;   H14T - C114   - H14R  
  6805   6806   6808      1    1.0835e+02    3.2995e+02 ;   H14T - C114   - H14S  
  6805   6806   6809      1    1.1005e+02    3.8802e+02 ;   H14T - C114   - C113  
  6806   6809   6810      1    1.1005e+02    3.8802e+02 ;   C114 - C113   - H13R  
  6806   6809   6811      1    1.1005e+02    3.8802e+02 ;   C114 - C113   - H13S  
  6806   6809   6812      1    1.1205e+02    3.9497e+02 ;   C114 - C113   - C112  
  6807   6806   6808      1    1.0835e+02    3.2995e+02 ;   H14R - C114   - H14S  
  6807   6806   6809      1    1.1005e+02    3.8802e+02 ;   H14R - C114   - C113  
  6808   6806   6809      1    1.1005e+02    3.8802e+02 ;   H14S - C114   - C113  
  6809   6812   6813      1    1.1005e+02    3.8802e+02 ;   C113 - C112   - H12R  
  6809   6812   6814      1    1.1005e+02    3.8802e+02 ;   C113 - C112   - H12S  
  6809   6812   6815      1    1.1205e+02    3.9497e+02 ;   C113 - C112   - C111  
  6810   6809   6811      1    1.0835e+02    3.2995e+02 ;   H13R - C113   - H13S  
  6810   6809   6812      1    1.1005e+02    3.8802e+02 ;   H13R - C113   - C112  
  6811   6809   6812      1    1.1005e+02    3.8802e+02 ;   H13S - C113   - C112  
  6812   6815   6816      1    1.1005e+02    3.8802e+02 ;   C112 - C111   - H11R  
  6812   6815   6817      1    1.1005e+02    3.8802e+02 ;   C112 - C111   - H11S  
  6812   6815   6818      1    1.1205e+02    3.9497e+02 ;   C112 - C111   - C110  
  6813   6812   6814      1    1.0835e+02    3.2995e+02 ;   H12R - C112   - H12S  
  6813   6812   6815      1    1.1005e+02    3.8802e+02 ;   H12R - C112   - C111  
  6814   6812   6815      1    1.1005e+02    3.8802e+02 ;   H12S - C112   - C111  
  6815   6818   6819      1    1.1005e+02    3.8802e+02 ;   C111 - C110   - H10R  
  6815   6818   6820      1    1.1005e+02    3.8802e+02 ;   C111 - C110   - H10S  
  6815   6818   6821      1    1.1205e+02    3.9497e+02 ;   C111 - C110   - C19   
  6816   6815   6817      1    1.0835e+02    3.2995e+02 ;   H11R - C111   - H11S  
  6816   6815   6818      1    1.1005e+02    3.8802e+02 ;   H11R - C111   - C110  
  6817   6815   6818      1    1.1005e+02    3.8802e+02 ;   H11S - C111   - C110  
  6818   6821   6822      1    1.1005e+02    3.8802e+02 ;   C110 - C19    - H9R   
  6818   6821   6823      1    1.1005e+02    3.8802e+02 ;   C110 - C19    - H9S   
  6818   6821   6824      1    1.1205e+02    3.9497e+02 ;   C110 - C19    - C18   
  6819   6818   6820      1    1.0835e+02    3.2995e+02 ;   H10R - C110   - H10S  
  6819   6818   6821      1    1.1005e+02    3.8802e+02 ;   H10R - C110   - C19   
  6820   6818   6821      1    1.1005e+02    3.8802e+02 ;   H10S - C110   - C19   
  6821   6824   6825      1    1.1005e+02    3.8802e+02 ;    C19 - C18    - H8R   
  6821   6824   6826      1    1.1005e+02    3.8802e+02 ;    C19 - C18    - H8S   
  6821   6824   6827      1    1.1205e+02    3.9497e+02 ;    C19 - C18    - C17   
  6822   6821   6823      1    1.0835e+02    3.2995e+02 ;    H9R - C19    - H9S   
  6822   6821   6824      1    1.1005e+02    3.8802e+02 ;    H9R - C19    - C18   
  6823   6821   6824      1    1.1005e+02    3.8802e+02 ;    H9S - C19    - C18   
  6824   6827   6828      1    1.1005e+02    3.8802e+02 ;    C18 - C17    - H7R   
  6824   6827   6829      1    1.1005e+02    3.8802e+02 ;    C18 - C17    - H7S   
  6824   6827   6830      1    1.1205e+02    3.9497e+02 ;    C18 - C17    - C16   
  6825   6824   6826      1    1.0835e+02    3.2995e+02 ;    H8R - C18    - H8S   
  6825   6824   6827      1    1.1005e+02    3.8802e+02 ;    H8R - C18    - C17   
  6826   6824   6827      1    1.1005e+02    3.8802e+02 ;    H8S - C18    - C17   
  6827   6830   6831      1    1.1005e+02    3.8802e+02 ;    C17 - C16    - H6R   
  6827   6830   6832      1    1.1005e+02    3.8802e+02 ;    C17 - C16    - H6S   
  6827   6830   6833      1    1.1205e+02    3.9497e+02 ;    C17 - C16    - C15   
  6828   6827   6829      1    1.0835e+02    3.2995e+02 ;    H7R - C17    - H7S   
  6828   6827   6830      1    1.1005e+02    3.8802e+02 ;    H7R - C17    - C16   
  6829   6827   6830      1    1.1005e+02    3.8802e+02 ;    H7S - C17    - C16   
  6830   6833   6834      1    1.1005e+02    3.8802e+02 ;    C16 - C15    - H5R   
  6830   6833   6835      1    1.1005e+02    3.8802e+02 ;    C16 - C15    - H5S   
  6830   6833   6836      1    1.1205e+02    3.9497e+02 ;    C16 - C15    - C14   
  6831   6830   6832      1    1.0835e+02    3.2995e+02 ;    H6R - C16    - H6S   
  6831   6830   6833      1    1.1005e+02    3.8802e+02 ;    H6R - C16    - C15   
  6832   6830   6833      1    1.1005e+02    3.8802e+02 ;    H6S - C16    - C15   
  6833   6836   6837      1    1.1005e+02    3.8802e+02 ;    C15 - C14    - H4R   
  6833   6836   6838      1    1.1005e+02    3.8802e+02 ;    C15 - C14    - H4S   
  6833   6836   6839      1    1.1205e+02    3.9497e+02 ;    C15 - C14    - C13   
  6834   6833   6835      1    1.0835e+02    3.2995e+02 ;    H5R - C15    - H5S   
  6834   6833   6836      1    1.1005e+02    3.8802e+02 ;    H5R - C15    - C14   
  6835   6833   6836      1    1.1005e+02    3.8802e+02 ;    H5S - C15    - C14   
  6836   6839   6840      1    1.1005e+02    3.8802e+02 ;    C14 - C13    - H3R   
  6836   6839   6841      1    1.1005e+02    3.8802e+02 ;    C14 - C13    - H3S   
  6836   6839   6842      1    1.1205e+02    3.9497e+02 ;    C14 - C13    - C12   
  6837   6836   6838      1    1.0835e+02    3.2995e+02 ;    H4R - C14    - H4S   
  6837   6836   6839      1    1.1005e+02    3.8802e+02 ;    H4R - C14    - C13   
  6838   6836   6839      1    1.1005e+02    3.8802e+02 ;    H4S - C14    - C13   
  6839   6842   6843      1    1.1005e+02    3.8802e+02 ;    C13 - C12    - H2R   
  6839   6842   6844      1    1.1005e+02    3.8802e+02 ;    C13 - C12    - H2S   
  6840   6839   6841      1    1.0835e+02    3.2995e+02 ;    H3R - C13    - H3S   
  6840   6839   6842      1    1.1005e+02    3.8802e+02 ;    H3R - C13    - C12   
  6841   6839   6842      1    1.1005e+02    3.8802e+02 ;    H3S - C13    - C12   
  6843   6842   6844      1    1.0835e+02    3.2995e+02 ;    H2R - C12    - H2S   
  6845   6846   6847      1    1.0835e+02    3.2995e+02 ;   H14T - C114   - H14R  
  6845   6846   6848      1    1.0835e+02    3.2995e+02 ;   H14T - C114   - H14S  
  6845   6846   6849      1    1.1005e+02    3.8802e+02 ;   H14T - C114   - C113  
  6846   6849   6850      1    1.1005e+02    3.8802e+02 ;   C114 - C113   - H13R  
  6846   6849   6851      1    1.1005e+02    3.8802e+02 ;   C114 - C113   - H13S  
  6846   6849   6852      1    1.1205e+02    3.9497e+02 ;   C114 - C113   - C112  
  6847   6846   6848      1    1.0835e+02    3.2995e+02 ;   H14R - C114   - H14S  
  6847   6846   6849      1    1.1005e+02    3.8802e+02 ;   H14R - C114   - C113  
  6848   6846   6849      1    1.1005e+02    3.8802e+02 ;   H14S - C114   - C113  
  6849   6852   6853      1    1.1005e+02    3.8802e+02 ;   C113 - C112   - H12R  
  6849   6852   6854      1    1.1005e+02    3.8802e+02 ;   C113 - C112   - H12S  
  6849   6852   6855      1    1.1205e+02    3.9497e+02 ;   C113 - C112   - C111  
  6850   6849   6851      1    1.0835e+02    3.2995e+02 ;   H13R - C113   - H13S  
  6850   6849   6852      1    1.1005e+02    3.8802e+02 ;   H13R - C113   - C112  
  6851   6849   6852      1    1.1005e+02    3.8802e+02 ;   H13S - C113   - C112  
  6852   6855   6856      1    1.1005e+02    3.8802e+02 ;   C112 - C111   - H11R  
  6852   6855   6857      1    1.1005e+02    3.8802e+02 ;   C112 - C111   - H11S  
  6852   6855   6858      1    1.1205e+02    3.9497e+02 ;   C112 - C111   - C110  
  6853   6852   6854      1    1.0835e+02    3.2995e+02 ;   H12R - C112   - H12S  
  6853   6852   6855      1    1.1005e+02    3.8802e+02 ;   H12R - C112   - C111  
  6854   6852   6855      1    1.1005e+02    3.8802e+02 ;   H12S - C112   - C111  
  6855   6858   6859      1    1.1005e+02    3.8802e+02 ;   C111 - C110   - H10R  
  6855   6858   6860      1    1.1005e+02    3.8802e+02 ;   C111 - C110   - H10S  
  6855   6858   6861      1    1.1205e+02    3.9497e+02 ;   C111 - C110   - C19   
  6856   6855   6857      1    1.0835e+02    3.2995e+02 ;   H11R - C111   - H11S  
  6856   6855   6858      1    1.1005e+02    3.8802e+02 ;   H11R - C111   - C110  
  6857   6855   6858      1    1.1005e+02    3.8802e+02 ;   H11S - C111   - C110  
  6858   6861   6862      1    1.1005e+02    3.8802e+02 ;   C110 - C19    - H9R   
  6858   6861   6863      1    1.1005e+02    3.8802e+02 ;   C110 - C19    - H9S   
  6858   6861   6864      1    1.1205e+02    3.9497e+02 ;   C110 - C19    - C18   
  6859   6858   6860      1    1.0835e+02    3.2995e+02 ;   H10R - C110   - H10S  
  6859   6858   6861      1    1.1005e+02    3.8802e+02 ;   H10R - C110   - C19   
  6860   6858   6861      1    1.1005e+02    3.8802e+02 ;   H10S - C110   - C19   
  6861   6864   6865      1    1.1005e+02    3.8802e+02 ;    C19 - C18    - H8R   
  6861   6864   6866      1    1.1005e+02    3.8802e+02 ;    C19 - C18    - H8S   
  6861   6864   6867      1    1.1205e+02    3.9497e+02 ;    C19 - C18    - C17   
  6862   6861   6863      1    1.0835e+02    3.2995e+02 ;    H9R - C19    - H9S   
  6862   6861   6864      1    1.1005e+02    3.8802e+02 ;    H9R - C19    - C18   
  6863   6861   6864      1    1.1005e+02    3.8802e+02 ;    H9S - C19    - C18   
  6864   6867   6868      1    1.1005e+02    3.8802e+02 ;    C18 - C17    - H7R   
  6864   6867   6869      1    1.1005e+02    3.8802e+02 ;    C18 - C17    - H7S   
  6864   6867   6870      1    1.1205e+02    3.9497e+02 ;    C18 - C17    - C16   
  6865   6864   6866      1    1.0835e+02    3.2995e+02 ;    H8R - C18    - H8S   
  6865   6864   6867      1    1.1005e+02    3.8802e+02 ;    H8R - C18    - C17   
  6866   6864   6867      1    1.1005e+02    3.8802e+02 ;    H8S - C18    - C17   
  6867   6870   6871      1    1.1005e+02    3.8802e+02 ;    C17 - C16    - H6R   
  6867   6870   6872      1    1.1005e+02    3.8802e+02 ;    C17 - C16    - H6S   
  6867   6870   6873      1    1.1205e+02    3.9497e+02 ;    C17 - C16    - C15   
  6868   6867   6869      1    1.0835e+02    3.2995e+02 ;    H7R - C17    - H7S   
  6868   6867   6870      1    1.1005e+02    3.8802e+02 ;    H7R - C17    - C16   
  6869   6867   6870      1    1.1005e+02    3.8802e+02 ;    H7S - C17    - C16   
  6870   6873   6874      1    1.1005e+02    3.8802e+02 ;    C16 - C15    - H5R   
  6870   6873   6875      1    1.1005e+02    3.8802e+02 ;    C16 - C15    - H5S   
  6870   6873   6876      1    1.1205e+02    3.9497e+02 ;    C16 - C15    - C14   
  6871   6870   6872      1    1.0835e+02    3.2995e+02 ;    H6R - C16    - H6S   
  6871   6870   6873      1    1.1005e+02    3.8802e+02 ;    H6R - C16    - C15   
  6872   6870   6873      1    1.1005e+02    3.8802e+02 ;    H6S - C16    - C15   
  6873   6876   6877      1    1.1005e+02    3.8802e+02 ;    C15 - C14    - H4R   
  6873   6876   6878      1    1.1005e+02    3.8802e+02 ;    C15 - C14    - H4S   
  6873   6876   6879      1    1.1205e+02    3.9497e+02 ;    C15 - C14    - C13   
  6874   6873   6875      1    1.0835e+02    3.2995e+02 ;    H5R - C15    - H5S   
  6874   6873   6876      1    1.1005e+02    3.8802e+02 ;    H5R - C15    - C14   
  6875   6873   6876      1    1.1005e+02    3.8802e+02 ;    H5S - C15    - C14   
  6876   6879   6880      1    1.1005e+02    3.8802e+02 ;    C14 - C13    - H3R   
  6876   6879   6881      1    1.1005e+02    3.8802e+02 ;    C14 - C13    - H3S   
  6876   6879   6882      1    1.1205e+02    3.9497e+02 ;    C14 - C13    - C12   
  6877   6876   6878      1    1.0835e+02    3.2995e+02 ;    H4R - C14    - H4S   
  6877   6876   6879      1    1.1005e+02    3.8802e+02 ;    H4R - C14    - C13   
  6878   6876   6879      1    1.1005e+02    3.8802e+02 ;    H4S - C14    - C13   
  6879   6882   6883      1    1.1005e+02    3.8802e+02 ;    C13 - C12    - H2R   
  6879   6882   6884      1    1.1005e+02    3.8802e+02 ;    C13 - C12    - H2S   
  6879   6882   6885      1    1.1053e+02    5.3379e+02 ;    C13 - C12    - C11   
  6880   6879   6881      1    1.0835e+02    3.2995e+02 ;    H3R - C13    - H3S   
  6880   6879   6882      1    1.1005e+02    3.8802e+02 ;    H3R - C13    - C12   
  6881   6879   6882      1    1.1005e+02    3.8802e+02 ;    H3S - C13    - C12   
  6882   6885   6886      1    1.2311e+02    5.6928e+02 ;    C12 - C11    - O12   
  6882   6885   6887      1    1.1196e+02    5.7957e+02 ;    C12 - C11    - O11   
  6883   6882   6884      1    1.0835e+02    3.2995e+02 ;    H2R - C12    - H2S   
  6883   6882   6885      1    1.0968e+02    3.9497e+02 ;    H2R - C12    - C11   
  6884   6882   6885      1    1.0968e+02    3.9497e+02 ;    H2S - C12    - C11   
  6885   6887   6888      1    1.1514e+02    5.3246e+02 ;    C11 - O11    - C1    
  6886   6885   6887      1    1.2333e+02    6.3538e+02 ;    O12 - C11    - O11   
  6887   6888   6889      1    1.0882e+02    4.2543e+02 ;    O11 - C1     - HR    
  6887   6888   6890      1    1.0882e+02    4.2543e+02 ;    O11 - C1     - HS    
  6887   6888   6891      1    1.0842e+02    5.6718e+02 ;    O11 - C1     - C2    
  6888   6891   6892      1    1.1007e+02    3.8794e+02 ;     C1 - C2     - HX    
  6888   6891   6893      1    1.1063e+02    5.2894e+02 ;     C1 - C2     - C3    
  6888   6891   6920      1    1.0842e+02    5.6718e+02 ;     C1 - C2     - O21   
  6889   6888   6890      1    1.0955e+02    3.2786e+02 ;     HR - C1     - HS    
  6889   6888   6891      1    1.1007e+02    3.8794e+02 ;     HR - C1     - C2    
  6890   6888   6891      1    1.1007e+02    3.8794e+02 ;     HS - C1     - C2    
  6891   6893   6894      1    1.1007e+02    3.8794e+02 ;     C2 - C3     - HA    
  6891   6893   6895      1    1.1007e+02    3.8794e+02 ;     C2 - C3     - HB    
  6891   6893   6896      1    1.0842e+02    5.6718e+02 ;     C2 - C3     - O31   
  6891   6920   6921      1    1.1514e+02    5.3246e+02 ;     C2 - O21    - C21   
  6892   6891   6893      1    1.1007e+02    3.8794e+02 ;     HX - C2     - C3    
  6892   6891   6920      1    1.0882e+02    4.2543e+02 ;     HX - C2     - O21   
  6893   6891   6920      1    1.0842e+02    5.6718e+02 ;     C3 - C2     - O21   
  6893   6896   6897      1    1.2050e+02    8.3680e+02 ;     C3 - O31    - P31   
  6894   6893   6895      1    1.0955e+02    3.2786e+02 ;     HA - C3     - HB    
  6894   6893   6896      1    1.0882e+02    4.2543e+02 ;     HA - C3     - O31   
  6895   6893   6896      1    1.0882e+02    4.2543e+02 ;     HB - C3     - O31   
  6896   6897   6898      1    1.0260e+02    7.5312e+02 ;    O31 - P31    - O32   
  6896   6897   6918      1    1.0823e+02    8.3680e+02 ;    O31 - P31    - O33   
  6896   6897   6919      1    1.0823e+02    8.3680e+02 ;    O31 - P31    - O34   
  6897   6898   6899      1    1.2050e+02    8.3680e+02 ;    P31 - O32    - C31   
  6898   6897   6918      1    1.0823e+02    8.3680e+02 ;    O32 - P31    - O33   
  6898   6897   6919      1    1.0823e+02    8.3680e+02 ;    O32 - P31    - O34   
  6898   6899   6900      1    1.0882e+02    4.2543e+02 ;    O32 - C31    - H1A   
  6898   6899   6901      1    1.0882e+02    4.2543e+02 ;    O32 - C31    - H1B   
  6898   6899   6902      1    1.0842e+02    5.6718e+02 ;    O32 - C31    - C32   
  6899   6902   6903      1    1.1174e+02    3.8510e+02 ;    C31 - C32    - H2A   
  6899   6902   6904      1    1.1174e+02    3.8510e+02 ;    C31 - C32    - H2B   
  6899   6902   6905      1    1.1432e+02    5.3932e+02 ;    C31 - C32    - N31   
  6900   6899   6901      1    1.0955e+02    3.2786e+02 ;    H1A - C31    - H1B   
  6900   6899   6902      1    1.1007e+02    3.8794e+02 ;    H1A - C31    - C32   
  6901   6899   6902      1    1.1007e+02    3.8794e+02 ;    H1B - C31    - C32   
  6902   6905   6906      1    1.1064e+02    5.2585e+02 ;    C32 - N31    - C33   
  6902   6905   6910      1    1.1064e+02    5.2585e+02 ;    C32 - N31    - C34   
  6902   6905   6914      1    1.1064e+02    5.2585e+02 ;    C32 - N31    - C35   
  6903   6902   6904      1    1.1074e+02    3.2669e+02 ;    H2A - C32    - H2B   
  6903   6902   6905      1    1.0791e+02    4.1020e+02 ;    H2A - C32    - N31   
  6904   6902   6905      1    1.0791e+02    4.1020e+02 ;    H2B - C32    - N31   
  6905   6906   6907      1    1.0791e+02    4.1020e+02 ;    N31 - C33    - H3A   
  6905   6906   6908      1    1.0791e+02    4.1020e+02 ;    N31 - C33    - H3B   
  6905   6906   6909      1    1.0791e+02    4.1020e+02 ;    N31 - C33    - H3C   
  6905   6910   6911      1    1.0791e+02    4.1020e+02 ;    N31 - C34    - H4A   
  6905   6910   6912      1    1.0791e+02    4.1020e+02 ;    N31 - C34    - H4B   
  6905   6910   6913      1    1.0791e+02    4.1020e+02 ;    N31 - C34    - H4C   
  6905   6914   6915      1    1.0791e+02    4.1020e+02 ;    N31 - C35    - H5A   
  6905   6914   6916      1    1.0791e+02    4.1020e+02 ;    N31 - C35    - H5B   
  6905   6914   6917      1    1.0791e+02    4.1020e+02 ;    N31 - C35    - H5C   
  6906   6905   6910      1    1.1064e+02    5.2585e+02 ;    C33 - N31    - C34   
  6906   6905   6914      1    1.1064e+02    5.2585e+02 ;    C33 - N31    - C35   
  6907   6906   6908      1    1.1074e+02    3.2669e+02 ;    H3A - C33    - H3B   
  6907   6906   6909      1    1.1074e+02    3.2669e+02 ;    H3A - C33    - H3C   
  6908   6906   6909      1    1.1074e+02    3.2669e+02 ;    H3B - C33    - H3C   
  6910   6905   6914      1    1.1064e+02    5.2585e+02 ;    C34 - N31    - C35   
  6911   6910   6912      1    1.1074e+02    3.2669e+02 ;    H4A - C34    - H4B   
  6911   6910   6913      1    1.1074e+02    3.2669e+02 ;    H4A - C34    - H4C   
  6912   6910   6913      1    1.1074e+02    3.2669e+02 ;    H4B - C34    - H4C   
  6915   6914   6916      1    1.1074e+02    3.2669e+02 ;    H5A - C35    - H5B   
  6915   6914   6917      1    1.1074e+02    3.2669e+02 ;    H5A - C35    - H5C   
  6916   6914   6917      1    1.1074e+02    3.2669e+02 ;    H5B - C35    - H5C   
  6918   6897   6919      1    1.1990e+02    1.1715e+03 ;    O33 - P31    - O34   
  6920   6921   6922      1    1.2333e+02    6.3538e+02 ;    O21 - C21    - O22   
  6920   6921   6960      1    1.1196e+02    5.7957e+02 ;    O21 - C21    - C12   
  6921   6960   6957      1    1.1053e+02    5.3379e+02 ;    C21 - C12    - C13   
  6921   6960   6961      1    1.0968e+02    3.9497e+02 ;    C21 - C12    - H2R   
  6921   6960   6962      1    1.0968e+02    3.9497e+02 ;    C21 - C12    - H2S   
  6922   6921   6960      1    1.2311e+02    5.6928e+02 ;    O22 - C21    - C12   
  6923   6924   6925      1    1.0835e+02    3.2995e+02 ;   H14T - C114   - H14R  
  6923   6924   6926      1    1.0835e+02    3.2995e+02 ;   H14T - C114   - H14S  
  6923   6924   6927      1    1.1005e+02    3.8802e+02 ;   H14T - C114   - C113  
  6924   6927   6928      1    1.1005e+02    3.8802e+02 ;   C114 - C113   - H13R  
  6924   6927   6929      1    1.1005e+02    3.8802e+02 ;   C114 - C113   - H13S  
  6924   6927   6930      1    1.1205e+02    3.9497e+02 ;   C114 - C113   - C112  
  6925   6924   6926      1    1.0835e+02    3.2995e+02 ;   H14R - C114   - H14S  
  6925   6924   6927      1    1.1005e+02    3.8802e+02 ;   H14R - C114   - C113  
  6926   6924   6927      1    1.1005e+02    3.8802e+02 ;   H14S - C114   - C113  
  6927   6930   6931      1    1.1005e+02    3.8802e+02 ;   C113 - C112   - H12R  
  6927   6930   6932      1    1.1005e+02    3.8802e+02 ;   C113 - C112   - H12S  
  6927   6930   6933      1    1.1205e+02    3.9497e+02 ;   C113 - C112   - C111  
  6928   6927   6929      1    1.0835e+02    3.2995e+02 ;   H13R - C113   - H13S  
  6928   6927   6930      1    1.1005e+02    3.8802e+02 ;   H13R - C113   - C112  
  6929   6927   6930      1    1.1005e+02    3.8802e+02 ;   H13S - C113   - C112  
  6930   6933   6934      1    1.1005e+02    3.8802e+02 ;   C112 - C111   - H11R  
  6930   6933   6935      1    1.1005e+02    3.8802e+02 ;   C112 - C111   - H11S  
  6930   6933   6936      1    1.1205e+02    3.9497e+02 ;   C112 - C111   - C110  
  6931   6930   6932      1    1.0835e+02    3.2995e+02 ;   H12R - C112   - H12S  
  6931   6930   6933      1    1.1005e+02    3.8802e+02 ;   H12R - C112   - C111  
  6932   6930   6933      1    1.1005e+02    3.8802e+02 ;   H12S - C112   - C111  
  6933   6936   6937      1    1.1005e+02    3.8802e+02 ;   C111 - C110   - H10R  
  6933   6936   6938      1    1.1005e+02    3.8802e+02 ;   C111 - C110   - H10S  
  6933   6936   6939      1    1.1205e+02    3.9497e+02 ;   C111 - C110   - C19   
  6934   6933   6935      1    1.0835e+02    3.2995e+02 ;   H11R - C111   - H11S  
  6934   6933   6936      1    1.1005e+02    3.8802e+02 ;   H11R - C111   - C110  
  6935   6933   6936      1    1.1005e+02    3.8802e+02 ;   H11S - C111   - C110  
  6936   6939   6940      1    1.1005e+02    3.8802e+02 ;   C110 - C19    - H9R   
  6936   6939   6941      1    1.1005e+02    3.8802e+02 ;   C110 - C19    - H9S   
  6936   6939   6942      1    1.1205e+02    3.9497e+02 ;   C110 - C19    - C18   
  6937   6936   6938      1    1.0835e+02    3.2995e+02 ;   H10R - C110   - H10S  
  6937   6936   6939      1    1.1005e+02    3.8802e+02 ;   H10R - C110   - C19   
  6938   6936   6939      1    1.1005e+02    3.8802e+02 ;   H10S - C110   - C19   
  6939   6942   6943      1    1.1005e+02    3.8802e+02 ;    C19 - C18    - H8R   
  6939   6942   6944      1    1.1005e+02    3.8802e+02 ;    C19 - C18    - H8S   
  6939   6942   6945      1    1.1205e+02    3.9497e+02 ;    C19 - C18    - C17   
  6940   6939   6941      1    1.0835e+02    3.2995e+02 ;    H9R - C19    - H9S   
  6940   6939   6942      1    1.1005e+02    3.8802e+02 ;    H9R - C19    - C18   
  6941   6939   6942      1    1.1005e+02    3.8802e+02 ;    H9S - C19    - C18   
  6942   6945   6946      1    1.1005e+02    3.8802e+02 ;    C18 - C17    - H7R   
  6942   6945   6947      1    1.1005e+02    3.8802e+02 ;    C18 - C17    - H7S   
  6942   6945   6948      1    1.1205e+02    3.9497e+02 ;    C18 - C17    - C16   
  6943   6942   6944      1    1.0835e+02    3.2995e+02 ;    H8R - C18    - H8S   
  6943   6942   6945      1    1.1005e+02    3.8802e+02 ;    H8R - C18    - C17   
  6944   6942   6945      1    1.1005e+02    3.8802e+02 ;    H8S - C18    - C17   
  6945   6948   6949      1    1.1005e+02    3.8802e+02 ;    C17 - C16    - H6R   
  6945   6948   6950      1    1.1005e+02    3.8802e+02 ;    C17 - C16    - H6S   
  6945   6948   6951      1    1.1205e+02    3.9497e+02 ;    C17 - C16    - C15   
  6946   6945   6947      1    1.0835e+02    3.2995e+02 ;    H7R - C17    - H7S   
  6946   6945   6948      1    1.1005e+02    3.8802e+02 ;    H7R - C17    - C16   
  6947   6945   6948      1    1.1005e+02    3.8802e+02 ;    H7S - C17    - C16   
  6948   6951   6952      1    1.1005e+02    3.8802e+02 ;    C16 - C15    - H5R   
  6948   6951   6953      1    1.1005e+02    3.8802e+02 ;    C16 - C15    - H5S   
  6948   6951   6954      1    1.1205e+02    3.9497e+02 ;    C16 - C15    - C14   
  6949   6948   6950      1    1.0835e+02    3.2995e+02 ;    H6R - C16    - H6S   
  6949   6948   6951      1    1.1005e+02    3.8802e+02 ;    H6R - C16    - C15   
  6950   6948   6951      1    1.1005e+02    3.8802e+02 ;    H6S - C16    - C15   
  6951   6954   6955      1    1.1005e+02    3.8802e+02 ;    C15 - C14    - H4R   
  6951   6954   6956      1    1.1005e+02    3.8802e+02 ;    C15 - C14    - H4S   
  6951   6954   6957      1    1.1205e+02    3.9497e+02 ;    C15 - C14    - C13   
  6952   6951   6953      1    1.0835e+02    3.2995e+02 ;    H5R - C15    - H5S   
  6952   6951   6954      1    1.1005e+02    3.8802e+02 ;    H5R - C15    - C14   
  6953   6951   6954      1    1.1005e+02    3.8802e+02 ;    H5S - C15    - C14   
  6954   6957   6958      1    1.1005e+02    3.8802e+02 ;    C14 - C13    - H3R   
  6954   6957   6959      1    1.1005e+02    3.8802e+02 ;    C14 - C13    - H3S   
  6954   6957   6960      1    1.1205e+02    3.9497e+02 ;    C14 - C13    - C12   
  6955   6954   6956      1    1.0835e+02    3.2995e+02 ;    H4R - C14    - H4S   
  6955   6954   6957      1    1.1005e+02    3.8802e+02 ;    H4R - C14    - C13   
  6956   6954   6957      1    1.1005e+02    3.8802e+02 ;    H4S - C14    - C13   
  6957   6960   6961      1    1.1005e+02    3.8802e+02 ;    C13 - C12    - H2R   
  6957   6960   6962      1    1.1005e+02    3.8802e+02 ;    C13 - C12    - H2S   
  6958   6957   6959      1    1.0835e+02    3.2995e+02 ;    H3R - C13    - H3S   
  6958   6957   6960      1    1.1005e+02    3.8802e+02 ;    H3R - C13    - C12   
  6959   6957   6960      1    1.1005e+02    3.8802e+02 ;    H3S - C13    - C12   
  6961   6960   6962      1    1.0835e+02    3.2995e+02 ;    H2R - C12    - H2S   
  6963   6964   6965      1    1.0835e+02    3.2995e+02 ;   H14T - C114   - H14R  
  6963   6964   6966      1    1.0835e+02    3.2995e+02 ;   H14T - C114   - H14S  
  6963   6964   6967      1    1.1005e+02    3.8802e+02 ;   H14T - C114   - C113  
  6964   6967   6968      1    1.1005e+02    3.8802e+02 ;   C114 - C113   - H13R  
  6964   6967   6969      1    1.1005e+02    3.8802e+02 ;   C114 - C113   - H13S  
  6964   6967   6970      1    1.1205e+02    3.9497e+02 ;   C114 - C113   - C112  
  6965   6964   6966      1    1.0835e+02    3.2995e+02 ;   H14R - C114   - H14S  
  6965   6964   6967      1    1.1005e+02    3.8802e+02 ;   H14R - C114   - C113  
  6966   6964   6967      1    1.1005e+02    3.8802e+02 ;   H14S - C114   - C113  
  6967   6970   6971      1    1.1005e+02    3.8802e+02 ;   C113 - C112   - H12R  
  6967   6970   6972      1    1.1005e+02    3.8802e+02 ;   C113 - C112   - H12S  
  6967   6970   6973      1    1.1205e+02    3.9497e+02 ;   C113 - C112   - C111  
  6968   6967   6969      1    1.0835e+02    3.2995e+02 ;   H13R - C113   - H13S  
  6968   6967   6970      1    1.1005e+02    3.8802e+02 ;   H13R - C113   - C112  
  6969   6967   6970      1    1.1005e+02    3.8802e+02 ;   H13S - C113   - C112  
  6970   6973   6974      1    1.1005e+02    3.8802e+02 ;   C112 - C111   - H11R  
  6970   6973   6975      1    1.1005e+02    3.8802e+02 ;   C112 - C111   - H11S  
  6970   6973   6976      1    1.1205e+02    3.9497e+02 ;   C112 - C111   - C110  
  6971   6970   6972      1    1.0835e+02    3.2995e+02 ;   H12R - C112   - H12S  
  6971   6970   6973      1    1.1005e+02    3.8802e+02 ;   H12R - C112   - C111  
  6972   6970   6973      1    1.1005e+02    3.8802e+02 ;   H12S - C112   - C111  
  6973   6976   6977      1    1.1005e+02    3.8802e+02 ;   C111 - C110   - H10R  
  6973   6976   6978      1    1.1005e+02    3.8802e+02 ;   C111 - C110   - H10S  
  6973   6976   6979      1    1.1205e+02    3.9497e+02 ;   C111 - C110   - C19   
  6974   6973   6975      1    1.0835e+02    3.2995e+02 ;   H11R - C111   - H11S  
  6974   6973   6976      1    1.1005e+02    3.8802e+02 ;   H11R - C111   - C110  
  6975   6973   6976      1    1.1005e+02    3.8802e+02 ;   H11S - C111   - C110  
  6976   6979   6980      1    1.1005e+02    3.8802e+02 ;   C110 - C19    - H9R   
  6976   6979   6981      1    1.1005e+02    3.8802e+02 ;   C110 - C19    - H9S   
  6976   6979   6982      1    1.1205e+02    3.9497e+02 ;   C110 - C19    - C18   
  6977   6976   6978      1    1.0835e+02    3.2995e+02 ;   H10R - C110   - H10S  
  6977   6976   6979      1    1.1005e+02    3.8802e+02 ;   H10R - C110   - C19   
  6978   6976   6979      1    1.1005e+02    3.8802e+02 ;   H10S - C110   - C19   
  6979   6982   6983      1    1.1005e+02    3.8802e+02 ;    C19 - C18    - H8R   
  6979   6982   6984      1    1.1005e+02    3.8802e+02 ;    C19 - C18    - H8S   
  6979   6982   6985      1    1.1205e+02    3.9497e+02 ;    C19 - C18    - C17   
  6980   6979   6981      1    1.0835e+02    3.2995e+02 ;    H9R - C19    - H9S   
  6980   6979   6982      1    1.1005e+02    3.8802e+02 ;    H9R - C19    - C18   
  6981   6979   6982      1    1.1005e+02    3.8802e+02 ;    H9S - C19    - C18   
  6982   6985   6986      1    1.1005e+02    3.8802e+02 ;    C18 - C17    - H7R   
  6982   6985   6987      1    1.1005e+02    3.8802e+02 ;    C18 - C17    - H7S   
  6982   6985   6988      1    1.1205e+02    3.9497e+02 ;    C18 - C17    - C16   
  6983   6982   6984      1    1.0835e+02    3.2995e+02 ;    H8R - C18    - H8S   
  6983   6982   6985      1    1.1005e+02    3.8802e+02 ;    H8R - C18    - C17   
  6984   6982   6985      1    1.1005e+02    3.8802e+02 ;    H8S - C18    - C17   
  6985   6988   6989      1    1.1005e+02    3.8802e+02 ;    C17 - C16    - H6R   
  6985   6988   6990      1    1.1005e+02    3.8802e+02 ;    C17 - C16    - H6S   
  6985   6988   6991      1    1.1205e+02    3.9497e+02 ;    C17 - C16    - C15   
  6986   6985   6987      1    1.0835e+02    3.2995e+02 ;    H7R - C17    - H7S   
  6986   6985   6988      1    1.1005e+02    3.8802e+02 ;    H7R - C17    - C16   
  6987   6985   6988      1    1.1005e+02    3.8802e+02 ;    H7S - C17    - C16   
  6988   6991   6992      1    1.1005e+02    3.8802e+02 ;    C16 - C15    - H5R   
  6988   6991   6993      1    1.1005e+02    3.8802e+02 ;    C16 - C15    - H5S   
  6988   6991   6994      1    1.1205e+02    3.9497e+02 ;    C16 - C15    - C14   
  6989   6988   6990      1    1.0835e+02    3.2995e+02 ;    H6R - C16    - H6S   
  6989   6988   6991      1    1.1005e+02    3.8802e+02 ;    H6R - C16    - C15   
  6990   6988   6991      1    1.1005e+02    3.8802e+02 ;    H6S - C16    - C15   
  6991   6994   6995      1    1.1005e+02    3.8802e+02 ;    C15 - C14    - H4R   
  6991   6994   6996      1    1.1005e+02    3.8802e+02 ;    C15 - C14    - H4S   
  6991   6994   6997      1    1.1205e+02    3.9497e+02 ;    C15 - C14    - C13   
  6992   6991   6993      1    1.0835e+02    3.2995e+02 ;    H5R - C15    - H5S   
  6992   6991   6994      1    1.1005e+02    3.8802e+02 ;    H5R - C15    - C14   
  6993   6991   6994      1    1.1005e+02    3.8802e+02 ;    H5S - C15    - C14   
  6994   6997   6998      1    1.1005e+02    3.8802e+02 ;    C14 - C13    - H3R   
  6994   6997   6999      1    1.1005e+02    3.8802e+02 ;    C14 - C13    - H3S   
  6994   6997   7000      1    1.1205e+02    3.9497e+02 ;    C14 - C13    - C12   
  6995   6994   6996      1    1.0835e+02    3.2995e+02 ;    H4R - C14    - H4S   
  6995   6994   6997      1    1.1005e+02    3.8802e+02 ;    H4R - C14    - C13   
  6996   6994   6997      1    1.1005e+02    3.8802e+02 ;    H4S - C14    - C13   
  6997   7000   7001      1    1.1005e+02    3.8802e+02 ;    C13 - C12    - H2R   
  6997   7000   7002      1    1.1005e+02    3.8802e+02 ;    C13 - C12    - H2S   
  6997   7000   7003      1    1.1053e+02    5.3379e+02 ;    C13 - C12    - C11   
  6998   6997   6999      1    1.0835e+02    3.2995e+02 ;    H3R - C13    - H3S   
  6998   6997   7000      1    1.1005e+02    3.8802e+02 ;    H3R - C13    - C12   
  6999   6997   7000      1    1.1005e+02    3.8802e+02 ;    H3S - C13    - C12   
  7000   7003   7004      1    1.2311e+02    5.6928e+02 ;    C12 - C11    - O12   
  7000   7003   7005      1    1.1196e+02    5.7957e+02 ;    C12 - C11    - O11   
  7001   7000   7002      1    1.0835e+02    3.2995e+02 ;    H2R - C12    - H2S   
  7001   7000   7003      1    1.0968e+02    3.9497e+02 ;    H2R - C12    - C11   
  7002   7000   7003      1    1.0968e+02    3.9497e+02 ;    H2S - C12    - C11   
  7003   7005   7006      1    1.1514e+02    5.3246e+02 ;    C11 - O11    - C1    
  7004   7003   7005      1    1.2333e+02    6.3538e+02 ;    O12 - C11    - O11   
  7005   7006   7007      1    1.0882e+02    4.2543e+02 ;    O11 - C1     - HR    
  7005   7006   7008      1    1.0882e+02    4.2543e+02 ;    O11 - C1     - HS    
  7005   7006   7009      1    1.0842e+02    5.6718e+02 ;    O11 - C1     - C2    
  7006   7009   7010      1    1.1007e+02    3.8794e+02 ;     C1 - C2     - HX    
  7006   7009   7011      1    1.1063e+02    5.2894e+02 ;     C1 - C2     - C3    
  7006   7009   7038      1    1.0842e+02    5.6718e+02 ;     C1 - C2     - O21   
  7007   7006   7008      1    1.0955e+02    3.2786e+02 ;     HR - C1     - HS    
  7007   7006   7009      1    1.1007e+02    3.8794e+02 ;     HR - C1     - C2    
  7008   7006   7009      1    1.1007e+02    3.8794e+02 ;     HS - C1     - C2    
  7009   7011   7012      1    1.1007e+02    3.8794e+02 ;     C2 - C3     - HA    
  7009   7011   7013      1    1.1007e+02    3.8794e+02 ;     C2 - C3     - HB    
  7009   7011   7014      1    1.0842e+02    5.6718e+02 ;     C2 - C3     - O31   
  7009   7038   7039      1    1.1514e+02    5.3246e+02 ;     C2 - O21    - C21   
  7010   7009   7011      1    1.1007e+02    3.8794e+02 ;     HX - C2     - C3    
  7010   7009   7038      1    1.0882e+02    4.2543e+02 ;     HX - C2     - O21   
  7011   7009   7038      1    1.0842e+02    5.6718e+02 ;     C3 - C2     - O21   
  7011   7014   7015      1    1.2050e+02    8.3680e+02 ;     C3 - O31    - P31   
  7012   7011   7013      1    1.0955e+02    3.2786e+02 ;     HA - C3     - HB    
  7012   7011   7014      1    1.0882e+02    4.2543e+02 ;     HA - C3     - O31   
  7013   7011   7014      1    1.0882e+02    4.2543e+02 ;     HB - C3     - O31   
  7014   7015   7016      1    1.0260e+02    7.5312e+02 ;    O31 - P31    - O32   
  7014   7015   7036      1    1.0823e+02    8.3680e+02 ;    O31 - P31    - O33   
  7014   7015   7037      1    1.0823e+02    8.3680e+02 ;    O31 - P31    - O34   
  7015   7016   7017      1    1.2050e+02    8.3680e+02 ;    P31 - O32    - C31   
  7016   7015   7036      1    1.0823e+02    8.3680e+02 ;    O32 - P31    - O33   
  7016   7015   7037      1    1.0823e+02    8.3680e+02 ;    O32 - P31    - O34   
  7016   7017   7018      1    1.0882e+02    4.2543e+02 ;    O32 - C31    - H1A   
  7016   7017   7019      1    1.0882e+02    4.2543e+02 ;    O32 - C31    - H1B   
  7016   7017   7020      1    1.0842e+02    5.6718e+02 ;    O32 - C31    - C32   
  7017   7020   7021      1    1.1174e+02    3.8510e+02 ;    C31 - C32    - H2A   
  7017   7020   7022      1    1.1174e+02    3.8510e+02 ;    C31 - C32    - H2B   
  7017   7020   7023      1    1.1432e+02    5.3932e+02 ;    C31 - C32    - N31   
  7018   7017   7019      1    1.0955e+02    3.2786e+02 ;    H1A - C31    - H1B   
  7018   7017   7020      1    1.1007e+02    3.8794e+02 ;    H1A - C31    - C32   
  7019   7017   7020      1    1.1007e+02    3.8794e+02 ;    H1B - C31    - C32   
  7020   7023   7024      1    1.1064e+02    5.2585e+02 ;    C32 - N31    - C33   
  7020   7023   7028      1    1.1064e+02    5.2585e+02 ;    C32 - N31    - C34   
  7020   7023   7032      1    1.1064e+02    5.2585e+02 ;    C32 - N31    - C35   
  7021   7020   7022      1    1.1074e+02    3.2669e+02 ;    H2A - C32    - H2B   
  7021   7020   7023      1    1.0791e+02    4.1020e+02 ;    H2A - C32    - N31   
  7022   7020   7023      1    1.0791e+02    4.1020e+02 ;    H2B - C32    - N31   
  7023   7024   7025      1    1.0791e+02    4.1020e+02 ;    N31 - C33    - H3A   
  7023   7024   7026      1    1.0791e+02    4.1020e+02 ;    N31 - C33    - H3B   
  7023   7024   7027      1    1.0791e+02    4.1020e+02 ;    N31 - C33    - H3C   
  7023   7028   7029      1    1.0791e+02    4.1020e+02 ;    N31 - C34    - H4A   
  7023   7028   7030      1    1.0791e+02    4.1020e+02 ;    N31 - C34    - H4B   
  7023   7028   7031      1    1.0791e+02    4.1020e+02 ;    N31 - C34    - H4C   
  7023   7032   7033      1    1.0791e+02    4.1020e+02 ;    N31 - C35    - H5A   
  7023   7032   7034      1    1.0791e+02    4.1020e+02 ;    N31 - C35    - H5B   
  7023   7032   7035      1    1.0791e+02    4.1020e+02 ;    N31 - C35    - H5C   
  7024   7023   7028      1    1.1064e+02    5.2585e+02 ;    C33 - N31    - C34   
  7024   7023   7032      1    1.1064e+02    5.2585e+02 ;    C33 - N31    - C35   
  7025   7024   7026      1    1.1074e+02    3.2669e+02 ;    H3A - C33    - H3B   
  7025   7024   7027      1    1.1074e+02    3.2669e+02 ;    H3A - C33    - H3C   
  7026   7024   7027      1    1.1074e+02    3.2669e+02 ;    H3B - C33    - H3C   
  7028   7023   7032      1    1.1064e+02    5.2585e+02 ;    C34 - N31    - C35   
  7029   7028   7030      1    1.1074e+02    3.2669e+02 ;    H4A - C34    - H4B   
  7029   7028   7031      1    1.1074e+02    3.2669e+02 ;    H4A - C34    - H4C   
  7030   7028   7031      1    1.1074e+02    3.2669e+02 ;    H4B - C34    - H4C   
  7033   7032   7034      1    1.1074e+02    3.2669e+02 ;    H5A - C35    - H5B   
  7033   7032   7035      1    1.1074e+02    3.2669e+02 ;    H5A - C35    - H5C   
  7034   7032   7035      1    1.1074e+02    3.2669e+02 ;    H5B - C35    - H5C   
  7036   7015   7037      1    1.1990e+02    1.1715e+03 ;    O33 - P31    - O34   
  7038   7039   7040      1    1.2333e+02    6.3538e+02 ;    O21 - C21    - O22   
  7038   7039   7078      1    1.1196e+02    5.7957e+02 ;    O21 - C21    - C12   
  7039   7078   7075      1    1.1053e+02    5.3379e+02 ;    C21 - C12    - C13   
  7039   7078   7079      1    1.0968e+02    3.9497e+02 ;    C21 - C12    - H2R   
  7039   7078   7080      1    1.0968e+02    3.9497e+02 ;    C21 - C12    - H2S   
  7040   7039   7078      1    1.2311e+02    5.6928e+02 ;    O22 - C21    - C12   
  7041   7042   7043      1    1.0835e+02    3.2995e+02 ;   H14T - C114   - H14R  
  7041   7042   7044      1    1.0835e+02    3.2995e+02 ;   H14T - C114   - H14S  
  7041   7042   7045      1    1.1005e+02    3.8802e+02 ;   H14T - C114   - C113  
  7042   7045   7046      1    1.1005e+02    3.8802e+02 ;   C114 - C113   - H13R  
  7042   7045   7047      1    1.1005e+02    3.8802e+02 ;   C114 - C113   - H13S  
  7042   7045   7048      1    1.1205e+02    3.9497e+02 ;   C114 - C113   - C112  
  7043   7042   7044      1    1.0835e+02    3.2995e+02 ;   H14R - C114   - H14S  
  7043   7042   7045      1    1.1005e+02    3.8802e+02 ;   H14R - C114   - C113  
  7044   7042   7045      1    1.1005e+02    3.8802e+02 ;   H14S - C114   - C113  
  7045   7048   7049      1    1.1005e+02    3.8802e+02 ;   C113 - C112   - H12R  
  7045   7048   7050      1    1.1005e+02    3.8802e+02 ;   C113 - C112   - H12S  
  7045   7048   7051      1    1.1205e+02    3.9497e+02 ;   C113 - C112   - C111  
  7046   7045   7047      1    1.0835e+02    3.2995e+02 ;   H13R - C113   - H13S  
  7046   7045   7048      1    1.1005e+02    3.8802e+02 ;   H13R - C113   - C112  
  7047   7045   7048      1    1.1005e+02    3.8802e+02 ;   H13S - C113   - C112  
  7048   7051   7052      1    1.1005e+02    3.8802e+02 ;   C112 - C111   - H11R  
  7048   7051   7053      1    1.1005e+02    3.8802e+02 ;   C112 - C111   - H11S  
  7048   7051   7054      1    1.1205e+02    3.9497e+02 ;   C112 - C111   - C110  
  7049   7048   7050      1    1.0835e+02    3.2995e+02 ;   H12R - C112   - H12S  
  7049   7048   7051      1    1.1005e+02    3.8802e+02 ;   H12R - C112   - C111  
  7050   7048   7051      1    1.1005e+02    3.8802e+02 ;   H12S - C112   - C111  
  7051   7054   7055      1    1.1005e+02    3.8802e+02 ;   C111 - C110   - H10R  
  7051   7054   7056      1    1.1005e+02    3.8802e+02 ;   C111 - C110   - H10S  
  7051   7054   7057      1    1.1205e+02    3.9497e+02 ;   C111 - C110   - C19   
  7052   7051   7053      1    1.0835e+02    3.2995e+02 ;   H11R - C111   - H11S  
  7052   7051   7054      1    1.1005e+02    3.8802e+02 ;   H11R - C111   - C110  
  7053   7051   7054      1    1.1005e+02    3.8802e+02 ;   H11S - C111   - C110  
  7054   7057   7058      1    1.1005e+02    3.8802e+02 ;   C110 - C19    - H9R   
  7054   7057   7059      1    1.1005e+02    3.8802e+02 ;   C110 - C19    - H9S   
  7054   7057   7060      1    1.1205e+02    3.9497e+02 ;   C110 - C19    - C18   
  7055   7054   7056      1    1.0835e+02    3.2995e+02 ;   H10R - C110   - H10S  
  7055   7054   7057      1    1.1005e+02    3.8802e+02 ;   H10R - C110   - C19   
  7056   7054   7057      1    1.1005e+02    3.8802e+02 ;   H10S - C110   - C19   
  7057   7060   7061      1    1.1005e+02    3.8802e+02 ;    C19 - C18    - H8R   
  7057   7060   7062      1    1.1005e+02    3.8802e+02 ;    C19 - C18    - H8S   
  7057   7060   7063      1    1.1205e+02    3.9497e+02 ;    C19 - C18    - C17   
  7058   7057   7059      1    1.0835e+02    3.2995e+02 ;    H9R - C19    - H9S   
  7058   7057   7060      1    1.1005e+02    3.8802e+02 ;    H9R - C19    - C18   
  7059   7057   7060      1    1.1005e+02    3.8802e+02 ;    H9S - C19    - C18   
  7060   7063   7064      1    1.1005e+02    3.8802e+02 ;    C18 - C17    - H7R   
  7060   7063   7065      1    1.1005e+02    3.8802e+02 ;    C18 - C17    - H7S   
  7060   7063   7066      1    1.1205e+02    3.9497e+02 ;    C18 - C17    - C16   
  7061   7060   7062      1    1.0835e+02    3.2995e+02 ;    H8R - C18    - H8S   
  7061   7060   7063      1    1.1005e+02    3.8802e+02 ;    H8R - C18    - C17   
  7062   7060   7063      1    1.1005e+02    3.8802e+02 ;    H8S - C18    - C17   
  7063   7066   7067      1    1.1005e+02    3.8802e+02 ;    C17 - C16    - H6R   
  7063   7066   7068      1    1.1005e+02    3.8802e+02 ;    C17 - C16    - H6S   
  7063   7066   7069      1    1.1205e+02    3.9497e+02 ;    C17 - C16    - C15   
  7064   7063   7065      1    1.0835e+02    3.2995e+02 ;    H7R - C17    - H7S   
  7064   7063   7066      1    1.1005e+02    3.8802e+02 ;    H7R - C17    - C16   
  7065   7063   7066      1    1.1005e+02    3.8802e+02 ;    H7S - C17    - C16   
  7066   7069   7070      1    1.1005e+02    3.8802e+02 ;    C16 - C15    - H5R   
  7066   7069   7071      1    1.1005e+02    3.8802e+02 ;    C16 - C15    - H5S   
  7066   7069   7072      1    1.1205e+02    3.9497e+02 ;    C16 - C15    - C14   
  7067   7066   7068      1    1.0835e+02    3.2995e+02 ;    H6R - C16    - H6S   
  7067   7066   7069      1    1.1005e+02    3.8802e+02 ;    H6R - C16    - C15   
  7068   7066   7069      1    1.1005e+02    3.8802e+02 ;    H6S - C16    - C15   
  7069   7072   7073      1    1.1005e+02    3.8802e+02 ;    C15 - C14    - H4R   
  7069   7072   7074      1    1.1005e+02    3.8802e+02 ;    C15 - C14    - H4S   
  7069   7072   7075      1    1.1205e+02    3.9497e+02 ;    C15 - C14    - C13   
  7070   7069   7071      1    1.0835e+02    3.2995e+02 ;    H5R - C15    - H5S   
  7070   7069   7072      1    1.1005e+02    3.8802e+02 ;    H5R - C15    - C14   
  7071   7069   7072      1    1.1005e+02    3.8802e+02 ;    H5S - C15    - C14   
  7072   7075   7076      1    1.1005e+02    3.8802e+02 ;    C14 - C13    - H3R   
  7072   7075   7077      1    1.1005e+02    3.8802e+02 ;    C14 - C13    - H3S   
  7072   7075   7078      1    1.1205e+02    3.9497e+02 ;    C14 - C13    - C12   
  7073   7072   7074      1    1.0835e+02    3.2995e+02 ;    H4R - C14    - H4S   
  7073   7072   7075      1    1.1005e+02    3.8802e+02 ;    H4R - C14    - C13   
  7074   7072   7075      1    1.1005e+02    3.8802e+02 ;    H4S - C14    - C13   
  7075   7078   7079      1    1.1005e+02    3.8802e+02 ;    C13 - C12    - H2R   
  7075   7078   7080      1    1.1005e+02    3.8802e+02 ;    C13 - C12    - H2S   
  7076   7075   7077      1    1.0835e+02    3.2995e+02 ;    H3R - C13    - H3S   
  7076   7075   7078      1    1.1005e+02    3.8802e+02 ;    H3R - C13    - C12   
  7077   7075   7078      1    1.1005e+02    3.8802e+02 ;    H3S - C13    - C12   
  7079   7078   7080      1    1.0835e+02    3.2995e+02 ;    H2R - C12    - H2S   
  7081   7082   7083      1    1.0835e+02    3.2995e+02 ;   H14T - C114   - H14R  
  7081   7082   7084      1    1.0835e+02    3.2995e+02 ;   H14T - C114   - H14S  
  7081   7082   7085      1    1.1005e+02    3.8802e+02 ;   H14T - C114   - C113  
  7082   7085   7086      1    1.1005e+02    3.8802e+02 ;   C114 - C113   - H13R  
  7082   7085   7087      1    1.1005e+02    3.8802e+02 ;   C114 - C113   - H13S  
  7082   7085   7088      1    1.1205e+02    3.9497e+02 ;   C114 - C113   - C112  
  7083   7082   7084      1    1.0835e+02    3.2995e+02 ;   H14R - C114   - H14S  
  7083   7082   7085      1    1.1005e+02    3.8802e+02 ;   H14R - C114   - C113  
  7084   7082   7085      1    1.1005e+02    3.8802e+02 ;   H14S - C114   - C113  
  7085   7088   7089      1    1.1005e+02    3.8802e+02 ;   C113 - C112   - H12R  
  7085   7088   7090      1    1.1005e+02    3.8802e+02 ;   C113 - C112   - H12S  
  7085   7088   7091      1    1.1205e+02    3.9497e+02 ;   C113 - C112   - C111  
  7086   7085   7087      1    1.0835e+02    3.2995e+02 ;   H13R - C113   - H13S  
  7086   7085   7088      1    1.1005e+02    3.8802e+02 ;   H13R - C113   - C112  
  7087   7085   7088      1    1.1005e+02    3.8802e+02 ;   H13S - C113   - C112  
  7088   7091   7092      1    1.1005e+02    3.8802e+02 ;   C112 - C111   - H11R  
  7088   7091   7093      1    1.1005e+02    3.8802e+02 ;   C112 - C111   - H11S  
  7088   7091   7094      1    1.1205e+02    3.9497e+02 ;   C112 - C111   - C110  
  7089   7088   7090      1    1.0835e+02    3.2995e+02 ;   H12R - C112   - H12S  
  7089   7088   7091      1    1.1005e+02    3.8802e+02 ;   H12R - C112   - C111  
  7090   7088   7091      1    1.1005e+02    3.8802e+02 ;   H12S - C112   - C111  
  7091   7094   7095      1    1.1005e+02    3.8802e+02 ;   C111 - C110   - H10R  
  7091   7094   7096      1    1.1005e+02    3.8802e+02 ;   C111 - C110   - H10S  
  7091   7094   7097      1    1.1205e+02    3.9497e+02 ;   C111 - C110   - C19   
  7092   7091   7093      1    1.0835e+02    3.2995e+02 ;   H11R - C111   - H11S  
  7092   7091   7094      1    1.1005e+02    3.8802e+02 ;   H11R - C111   - C110  
  7093   7091   7094      1    1.1005e+02    3.8802e+02 ;   H11S - C111   - C110  
  7094   7097   7098      1    1.1005e+02    3.8802e+02 ;   C110 - C19    - H9R   
  7094   7097   7099      1    1.1005e+02    3.8802e+02 ;   C110 - C19    - H9S   
  7094   7097   7100      1    1.1205e+02    3.9497e+02 ;   C110 - C19    - C18   
  7095   7094   7096      1    1.0835e+02    3.2995e+02 ;   H10R - C110   - H10S  
  7095   7094   7097      1    1.1005e+02    3.8802e+02 ;   H10R - C110   - C19   
  7096   7094   7097      1    1.1005e+02    3.8802e+02 ;   H10S - C110   - C19   
  7097   7100   7101      1    1.1005e+02    3.8802e+02 ;    C19 - C18    - H8R   
  7097   7100   7102      1    1.1005e+02    3.8802e+02 ;    C19 - C18    - H8S   
  7097   7100   7103      1    1.1205e+02    3.9497e+02 ;    C19 - C18    - C17   
  7098   7097   7099      1    1.0835e+02    3.2995e+02 ;    H9R - C19    - H9S   
  7098   7097   7100      1    1.1005e+02    3.8802e+02 ;    H9R - C19    - C18   
  7099   7097   7100      1    1.1005e+02    3.8802e+02 ;    H9S - C19    - C18   
  7100   7103   7104      1    1.1005e+02    3.8802e+02 ;    C18 - C17    - H7R   
  7100   7103   7105      1    1.1005e+02    3.8802e+02 ;    C18 - C17    - H7S   
  7100   7103   7106      1    1.1205e+02    3.9497e+02 ;    C18 - C17    - C16   
  7101   7100   7102      1    1.0835e+02    3.2995e+02 ;    H8R - C18    - H8S   
  7101   7100   7103      1    1.1005e+02    3.8802e+02 ;    H8R - C18    - C17   
  7102   7100   7103      1    1.1005e+02    3.8802e+02 ;    H8S - C18    - C17   
  7103   7106   7107      1    1.1005e+02    3.8802e+02 ;    C17 - C16    - H6R   
  7103   7106   7108      1    1.1005e+02    3.8802e+02 ;    C17 - C16    - H6S   
  7103   7106   7109      1    1.1205e+02    3.9497e+02 ;    C17 - C16    - C15   
  7104   7103   7105      1    1.0835e+02    3.2995e+02 ;    H7R - C17    - H7S   
  7104   7103   7106      1    1.1005e+02    3.8802e+02 ;    H7R - C17    - C16   
  7105   7103   7106      1    1.1005e+02    3.8802e+02 ;    H7S - C17    - C16   
  7106   7109   7110      1    1.1005e+02    3.8802e+02 ;    C16 - C15    - H5R   
  7106   7109   7111      1    1.1005e+02    3.8802e+02 ;    C16 - C15    - H5S   
  7106   7109   7112      1    1.1205e+02    3.9497e+02 ;    C16 - C15    - C14   
  7107   7106   7108      1    1.0835e+02    3.2995e+02 ;    H6R - C16    - H6S   
  7107   7106   7109      1    1.1005e+02    3.8802e+02 ;    H6R - C16    - C15   
  7108   7106   7109      1    1.1005e+02    3.8802e+02 ;    H6S - C16    - C15   
  7109   7112   7113      1    1.1005e+02    3.8802e+02 ;    C15 - C14    - H4R   
  7109   7112   7114      1    1.1005e+02    3.8802e+02 ;    C15 - C14    - H4S   
  7109   7112   7115      1    1.1205e+02    3.9497e+02 ;    C15 - C14    - C13   
  7110   7109   7111      1    1.0835e+02    3.2995e+02 ;    H5R - C15    - H5S   
  7110   7109   7112      1    1.1005e+02    3.8802e+02 ;    H5R - C15    - C14   
  7111   7109   7112      1    1.1005e+02    3.8802e+02 ;    H5S - C15    - C14   
  7112   7115   7116      1    1.1005e+02    3.8802e+02 ;    C14 - C13    - H3R   
  7112   7115   7117      1    1.1005e+02    3.8802e+02 ;    C14 - C13    - H3S   
  7112   7115   7118      1    1.1205e+02    3.9497e+02 ;    C14 - C13    - C12   
  7113   7112   7114      1    1.0835e+02    3.2995e+02 ;    H4R - C14    - H4S   
  7113   7112   7115      1    1.1005e+02    3.8802e+02 ;    H4R - C14    - C13   
  7114   7112   7115      1    1.1005e+02    3.8802e+02 ;    H4S - C14    - C13   
  7115   7118   7119      1    1.1005e+02    3.8802e+02 ;    C13 - C12    - H2R   
  7115   7118   7120      1    1.1005e+02    3.8802e+02 ;    C13 - C12    - H2S   
  7115   7118   7121      1    1.1053e+02    5.3379e+02 ;    C13 - C12    - C11   
  7116   7115   7117      1    1.0835e+02    3.2995e+02 ;    H3R - C13    - H3S   
  7116   7115   7118      1    1.1005e+02    3.8802e+02 ;    H3R - C13    - C12   
  7117   7115   7118      1    1.1005e+02    3.8802e+02 ;    H3S - C13    - C12   
  7118   7121   7122      1    1.2311e+02    5.6928e+02 ;    C12 - C11    - O12   
  7118   7121   7123      1    1.1196e+02    5.7957e+02 ;    C12 - C11    - O11   
  7119   7118   7120      1    1.0835e+02    3.2995e+02 ;    H2R - C12    - H2S   
  7119   7118   7121      1    1.0968e+02    3.9497e+02 ;    H2R - C12    - C11   
  7120   7118   7121      1    1.0968e+02    3.9497e+02 ;    H2S - C12    - C11   
  7121   7123   7124      1    1.1514e+02    5.3246e+02 ;    C11 - O11    - C1    
  7122   7121   7123      1    1.2333e+02    6.3538e+02 ;    O12 - C11    - O11   
  7123   7124   7125      1    1.0882e+02    4.2543e+02 ;    O11 - C1     - HR    
  7123   7124   7126      1    1.0882e+02    4.2543e+02 ;    O11 - C1     - HS    
  7123   7124   7127      1    1.0842e+02    5.6718e+02 ;    O11 - C1     - C2    
  7124   7127   7128      1    1.1007e+02    3.8794e+02 ;     C1 - C2     - HX    
  7124   7127   7129      1    1.1063e+02    5.2894e+02 ;     C1 - C2     - C3    
  7124   7127   7156      1    1.0842e+02    5.6718e+02 ;     C1 - C2     - O21   
  7125   7124   7126      1    1.0955e+02    3.2786e+02 ;     HR - C1     - HS    
  7125   7124   7127      1    1.1007e+02    3.8794e+02 ;     HR - C1     - C2    
  7126   7124   7127      1    1.1007e+02    3.8794e+02 ;     HS - C1     - C2    
  7127   7129   7130      1    1.1007e+02    3.8794e+02 ;     C2 - C3     - HA    
  7127   7129   7131      1    1.1007e+02    3.8794e+02 ;     C2 - C3     - HB    
  7127   7129   7132      1    1.0842e+02    5.6718e+02 ;     C2 - C3     - O31   
  7127   7156   7157      1    1.1514e+02    5.3246e+02 ;     C2 - O21    - C21   
  7128   7127   7129      1    1.1007e+02    3.8794e+02 ;     HX - C2     - C3    
  7128   7127   7156      1    1.0882e+02    4.2543e+02 ;     HX - C2     - O21   
  7129   7127   7156      1    1.0842e+02    5.6718e+02 ;     C3 - C2     - O21   
  7129   7132   7133      1    1.2050e+02    8.3680e+02 ;     C3 - O31    - P31   
  7130   7129   7131      1    1.0955e+02    3.2786e+02 ;     HA - C3     - HB    
  7130   7129   7132      1    1.0882e+02    4.2543e+02 ;     HA - C3     - O31   
  7131   7129   7132      1    1.0882e+02    4.2543e+02 ;     HB - C3     - O31   
  7132   7133   7134      1    1.0260e+02    7.5312e+02 ;    O31 - P31    - O32   
  7132   7133   7154      1    1.0823e+02    8.3680e+02 ;    O31 - P31    - O33   
  7132   7133   7155      1    1.0823e+02    8.3680e+02 ;    O31 - P31    - O34   
  7133   7134   7135      1    1.2050e+02    8.3680e+02 ;    P31 - O32    - C31   
  7134   7133   7154      1    1.0823e+02    8.3680e+02 ;    O32 - P31    - O33   
  7134   7133   7155      1    1.0823e+02    8.3680e+02 ;    O32 - P31    - O34   
  7134   7135   7136      1    1.0882e+02    4.2543e+02 ;    O32 - C31    - H1A   
  7134   7135   7137      1    1.0882e+02    4.2543e+02 ;    O32 - C31    - H1B   
  7134   7135   7138      1    1.0842e+02    5.6718e+02 ;    O32 - C31    - C32   
  7135   7138   7139      1    1.1174e+02    3.8510e+02 ;    C31 - C32    - H2A   
  7135   7138   7140      1    1.1174e+02    3.8510e+02 ;    C31 - C32    - H2B   
  7135   7138   7141      1    1.1432e+02    5.3932e+02 ;    C31 - C32    - N31   
  7136   7135   7137      1    1.0955e+02    3.2786e+02 ;    H1A - C31    - H1B   
  7136   7135   7138      1    1.1007e+02    3.8794e+02 ;    H1A - C31    - C32   
  7137   7135   7138      1    1.1007e+02    3.8794e+02 ;    H1B - C31    - C32   
  7138   7141   7142      1    1.1064e+02    5.2585e+02 ;    C32 - N31    - C33   
  7138   7141   7146      1    1.1064e+02    5.2585e+02 ;    C32 - N31    - C34   
  7138   7141   7150      1    1.1064e+02    5.2585e+02 ;    C32 - N31    - C35   
  7139   7138   7140      1    1.1074e+02    3.2669e+02 ;    H2A - C32    - H2B   
  7139   7138   7141      1    1.0791e+02    4.1020e+02 ;    H2A - C32    - N31   
  7140   7138   7141      1    1.0791e+02    4.1020e+02 ;    H2B - C32    - N31   
  7141   7142   7143      1    1.0791e+02    4.1020e+02 ;    N31 - C33    - H3A   
  7141   7142   7144      1    1.0791e+02    4.1020e+02 ;    N31 - C33    - H3B   
  7141   7142   7145      1    1.0791e+02    4.1020e+02 ;    N31 - C33    - H3C   
  7141   7146   7147      1    1.0791e+02    4.1020e+02 ;    N31 - C34    - H4A   
  7141   7146   7148      1    1.0791e+02    4.1020e+02 ;    N31 - C34    - H4B   
  7141   7146   7149      1    1.0791e+02    4.1020e+02 ;    N31 - C34    - H4C   
  7141   7150   7151      1    1.0791e+02    4.1020e+02 ;    N31 - C35    - H5A   
  7141   7150   7152      1    1.0791e+02    4.1020e+02 ;    N31 - C35    - H5B   
  7141   7150   7153      1    1.0791e+02    4.1020e+02 ;    N31 - C35    - H5C   
  7142   7141   7146      1    1.1064e+02    5.2585e+02 ;    C33 - N31    - C34   
  7142   7141   7150      1    1.1064e+02    5.2585e+02 ;    C33 - N31    - C35   
  7143   7142   7144      1    1.1074e+02    3.2669e+02 ;    H3A - C33    - H3B   
  7143   7142   7145      1    1.1074e+02    3.2669e+02 ;    H3A - C33    - H3C   
  7144   7142   7145      1    1.1074e+02    3.2669e+02 ;    H3B - C33    - H3C   
  7146   7141   7150      1    1.1064e+02    5.2585e+02 ;    C34 - N31    - C35   
  7147   7146   7148      1    1.1074e+02    3.2669e+02 ;    H4A - C34    - H4B   
  7147   7146   7149      1    1.1074e+02    3.2669e+02 ;    H4A - C34    - H4C   
  7148   7146   7149      1    1.1074e+02    3.2669e+02 ;    H4B - C34    - H4C   
  7151   7150   7152      1    1.1074e+02    3.2669e+02 ;    H5A - C35    - H5B   
  7151   7150   7153      1    1.1074e+02    3.2669e+02 ;    H5A - C35    - H5C   
  7152   7150   7153      1    1.1074e+02    3.2669e+02 ;    H5B - C35    - H5C   
  7154   7133   7155      1    1.1990e+02    1.1715e+03 ;    O33 - P31    - O34   
  7156   7157   7158      1    1.2333e+02    6.3538e+02 ;    O21 - C21    - O22   
  7156   7157   7196      1    1.1196e+02    5.7957e+02 ;    O21 - C21    - C12   
  7157   7196   7193      1    1.1053e+02    5.3379e+02 ;    C21 - C12    - C13   
  7157   7196   7197      1    1.0968e+02    3.9497e+02 ;    C21 - C12    - H2R   
  7157   7196   7198      1    1.0968e+02    3.9497e+02 ;    C21 - C12    - H2S   
  7158   7157   7196      1    1.2311e+02    5.6928e+02 ;    O22 - C21    - C12   
  7159   7160   7161      1    1.0835e+02    3.2995e+02 ;   H14T - C114   - H14R  
  7159   7160   7162      1    1.0835e+02    3.2995e+02 ;   H14T - C114   - H14S  
  7159   7160   7163      1    1.1005e+02    3.8802e+02 ;   H14T - C114   - C113  
  7160   7163   7164      1    1.1005e+02    3.8802e+02 ;   C114 - C113   - H13R  
  7160   7163   7165      1    1.1005e+02    3.8802e+02 ;   C114 - C113   - H13S  
  7160   7163   7166      1    1.1205e+02    3.9497e+02 ;   C114 - C113   - C112  
  7161   7160   7162      1    1.0835e+02    3.2995e+02 ;   H14R - C114   - H14S  
  7161   7160   7163      1    1.1005e+02    3.8802e+02 ;   H14R - C114   - C113  
  7162   7160   7163      1    1.1005e+02    3.8802e+02 ;   H14S - C114   - C113  
  7163   7166   7167      1    1.1005e+02    3.8802e+02 ;   C113 - C112   - H12R  
  7163   7166   7168      1    1.1005e+02    3.8802e+02 ;   C113 - C112   - H12S  
  7163   7166   7169      1    1.1205e+02    3.9497e+02 ;   C113 - C112   - C111  
  7164   7163   7165      1    1.0835e+02    3.2995e+02 ;   H13R - C113   - H13S  
  7164   7163   7166      1    1.1005e+02    3.8802e+02 ;   H13R - C113   - C112  
  7165   7163   7166      1    1.1005e+02    3.8802e+02 ;   H13S - C113   - C112  
  7166   7169   7170      1    1.1005e+02    3.8802e+02 ;   C112 - C111   - H11R  
  7166   7169   7171      1    1.1005e+02    3.8802e+02 ;   C112 - C111   - H11S  
  7166   7169   7172      1    1.1205e+02    3.9497e+02 ;   C112 - C111   - C110  
  7167   7166   7168      1    1.0835e+02    3.2995e+02 ;   H12R - C112   - H12S  
  7167   7166   7169      1    1.1005e+02    3.8802e+02 ;   H12R - C112   - C111  
  7168   7166   7169      1    1.1005e+02    3.8802e+02 ;   H12S - C112   - C111  
  7169   7172   7173      1    1.1005e+02    3.8802e+02 ;   C111 - C110   - H10R  
  7169   7172   7174      1    1.1005e+02    3.8802e+02 ;   C111 - C110   - H10S  
  7169   7172   7175      1    1.1205e+02    3.9497e+02 ;   C111 - C110   - C19   
  7170   7169   7171      1    1.0835e+02    3.2995e+02 ;   H11R - C111   - H11S  
  7170   7169   7172      1    1.1005e+02    3.8802e+02 ;   H11R - C111   - C110  
  7171   7169   7172      1    1.1005e+02    3.8802e+02 ;   H11S - C111   - C110  
  7172   7175   7176      1    1.1005e+02    3.8802e+02 ;   C110 - C19    - H9R   
  7172   7175   7177      1    1.1005e+02    3.8802e+02 ;   C110 - C19    - H9S   
  7172   7175   7178      1    1.1205e+02    3.9497e+02 ;   C110 - C19    - C18   
  7173   7172   7174      1    1.0835e+02    3.2995e+02 ;   H10R - C110   - H10S  
  7173   7172   7175      1    1.1005e+02    3.8802e+02 ;   H10R - C110   - C19   
  7174   7172   7175      1    1.1005e+02    3.8802e+02 ;   H10S - C110   - C19   
  7175   7178   7179      1    1.1005e+02    3.8802e+02 ;    C19 - C18    - H8R   
  7175   7178   7180      1    1.1005e+02    3.8802e+02 ;    C19 - C18    - H8S   
  7175   7178   7181      1    1.1205e+02    3.9497e+02 ;    C19 - C18    - C17   
  7176   7175   7177      1    1.0835e+02    3.2995e+02 ;    H9R - C19    - H9S   
  7176   7175   7178      1    1.1005e+02    3.8802e+02 ;    H9R - C19    - C18   
  7177   7175   7178      1    1.1005e+02    3.8802e+02 ;    H9S - C19    - C18   
  7178   7181   7182      1    1.1005e+02    3.8802e+02 ;    C18 - C17    - H7R   
  7178   7181   7183      1    1.1005e+02    3.8802e+02 ;    C18 - C17    - H7S   
  7178   7181   7184      1    1.1205e+02    3.9497e+02 ;    C18 - C17    - C16   
  7179   7178   7180      1    1.0835e+02    3.2995e+02 ;    H8R - C18    - H8S   
  7179   7178   7181      1    1.1005e+02    3.8802e+02 ;    H8R - C18    - C17   
  7180   7178   7181      1    1.1005e+02    3.8802e+02 ;    H8S - C18    - C17   
  7181   7184   7185      1    1.1005e+02    3.8802e+02 ;    C17 - C16    - H6R   
  7181   7184   7186      1    1.1005e+02    3.8802e+02 ;    C17 - C16    - H6S   
  7181   7184   7187      1    1.1205e+02    3.9497e+02 ;    C17 - C16    - C15   
  7182   7181   7183      1    1.0835e+02    3.2995e+02 ;    H7R - C17    - H7S   
  7182   7181   7184      1    1.1005e+02    3.8802e+02 ;    H7R - C17    - C16   
  7183   7181   7184      1    1.1005e+02    3.8802e+02 ;    H7S - C17    - C16   
  7184   7187   7188      1    1.1005e+02    3.8802e+02 ;    C16 - C15    - H5R   
  7184   7187   7189      1    1.1005e+02    3.8802e+02 ;    C16 - C15    - H5S   
  7184   7187   7190      1    1.1205e+02    3.9497e+02 ;    C16 - C15    - C14   
  7185   7184   7186      1    1.0835e+02    3.2995e+02 ;    H6R - C16    - H6S   
  7185   7184   7187      1    1.1005e+02    3.8802e+02 ;    H6R - C16    - C15   
  7186   7184   7187      1    1.1005e+02    3.8802e+02 ;    H6S - C16    - C15   
  7187   7190   7191      1    1.1005e+02    3.8802e+02 ;    C15 - C14    - H4R   
  7187   7190   7192      1    1.1005e+02    3.8802e+02 ;    C15 - C14    - H4S   
  7187   7190   7193      1    1.1205e+02    3.9497e+02 ;    C15 - C14    - C13   
  7188   7187   7189      1    1.0835e+02    3.2995e+02 ;    H5R - C15    - H5S   
  7188   7187   7190      1    1.1005e+02    3.8802e+02 ;    H5R - C15    - C14   
  7189   7187   7190      1    1.1005e+02    3.8802e+02 ;    H5S - C15    - C14   
  7190   7193   7194      1    1.1005e+02    3.8802e+02 ;    C14 - C13    - H3R   
  7190   7193   7195      1    1.1005e+02    3.8802e+02 ;    C14 - C13    - H3S   
  7190   7193   7196      1    1.1205e+02    3.9497e+02 ;    C14 - C13    - C12   
  7191   7190   7192      1    1.0835e+02    3.2995e+02 ;    H4R - C14    - H4S   
  7191   7190   7193      1    1.1005e+02    3.8802e+02 ;    H4R - C14    - C13   
  7192   7190   7193      1    1.1005e+02    3.8802e+02 ;    H4S - C14    - C13   
  7193   7196   7197      1    1.1005e+02    3.8802e+02 ;    C13 - C12    - H2R   
  7193   7196   7198      1    1.1005e+02    3.8802e+02 ;    C13 - C12    - H2S   
  7194   7193   7195      1    1.0835e+02    3.2995e+02 ;    H3R - C13    - H3S   
  7194   7193   7196      1    1.1005e+02    3.8802e+02 ;    H3R - C13    - C12   
  7195   7193   7196      1    1.1005e+02    3.8802e+02 ;    H3S - C13    - C12   
  7197   7196   7198      1    1.0835e+02    3.2995e+02 ;    H2R - C12    - H2S   
  7199   7200   7201      1    1.0835e+02    3.2995e+02 ;   H14T - C114   - H14R  
  7199   7200   7202      1    1.0835e+02    3.2995e+02 ;   H14T - C114   - H14S  
  7199   7200   7203      1    1.1005e+02    3.8802e+02 ;   H14T - C114   - C113  
  7200   7203   7204      1    1.1005e+02    3.8802e+02 ;   C114 - C113   - H13R  
  7200   7203   7205      1    1.1005e+02    3.8802e+02 ;   C114 - C113   - H13S  
  7200   7203   7206      1    1.1205e+02    3.9497e+02 ;   C114 - C113   - C112  
  7201   7200   7202      1    1.0835e+02    3.2995e+02 ;   H14R - C114   - H14S  
  7201   7200   7203      1    1.1005e+02    3.8802e+02 ;   H14R - C114   - C113  
  7202   7200   7203      1    1.1005e+02    3.8802e+02 ;   H14S - C114   - C113  
  7203   7206   7207      1    1.1005e+02    3.8802e+02 ;   C113 - C112   - H12R  
  7203   7206   7208      1    1.1005e+02    3.8802e+02 ;   C113 - C112   - H12S  
  7203   7206   7209      1    1.1205e+02    3.9497e+02 ;   C113 - C112   - C111  
  7204   7203   7205      1    1.0835e+02    3.2995e+02 ;   H13R - C113   - H13S  
  7204   7203   7206      1    1.1005e+02    3.8802e+02 ;   H13R - C113   - C112  
  7205   7203   7206      1    1.1005e+02    3.8802e+02 ;   H13S - C113   - C112  
  7206   7209   7210      1    1.1005e+02    3.8802e+02 ;   C112 - C111   - H11R  
  7206   7209   7211      1    1.1005e+02    3.8802e+02 ;   C112 - C111   - H11S  
  7206   7209   7212      1    1.1205e+02    3.9497e+02 ;   C112 - C111   - C110  
  7207   7206   7208      1    1.0835e+02    3.2995e+02 ;   H12R - C112   - H12S  
  7207   7206   7209      1    1.1005e+02    3.8802e+02 ;   H12R - C112   - C111  
  7208   7206   7209      1    1.1005e+02    3.8802e+02 ;   H12S - C112   - C111  
  7209   7212   7213      1    1.1005e+02    3.8802e+02 ;   C111 - C110   - H10R  
  7209   7212   7214      1    1.1005e+02    3.8802e+02 ;   C111 - C110   - H10S  
  7209   7212   7215      1    1.1205e+02    3.9497e+02 ;   C111 - C110   - C19   
  7210   7209   7211      1    1.0835e+02    3.2995e+02 ;   H11R - C111   - H11S  
  7210   7209   7212      1    1.1005e+02    3.8802e+02 ;   H11R - C111   - C110  
  7211   7209   7212      1    1.1005e+02    3.8802e+02 ;   H11S - C111   - C110  
  7212   7215   7216      1    1.1005e+02    3.8802e+02 ;   C110 - C19    - H9R   
  7212   7215   7217      1    1.1005e+02    3.8802e+02 ;   C110 - C19    - H9S   
  7212   7215   7218      1    1.1205e+02    3.9497e+02 ;   C110 - C19    - C18   
  7213   7212   7214      1    1.0835e+02    3.2995e+02 ;   H10R - C110   - H10S  
  7213   7212   7215      1    1.1005e+02    3.8802e+02 ;   H10R - C110   - C19   
  7214   7212   7215      1    1.1005e+02    3.8802e+02 ;   H10S - C110   - C19   
  7215   7218   7219      1    1.1005e+02    3.8802e+02 ;    C19 - C18    - H8R   
  7215   7218   7220      1    1.1005e+02    3.8802e+02 ;    C19 - C18    - H8S   
  7215   7218   7221      1    1.1205e+02    3.9497e+02 ;    C19 - C18    - C17   
  7216   7215   7217      1    1.0835e+02    3.2995e+02 ;    H9R - C19    - H9S   
  7216   7215   7218      1    1.1005e+02    3.8802e+02 ;    H9R - C19    - C18   
  7217   7215   7218      1    1.1005e+02    3.8802e+02 ;    H9S - C19    - C18   
  7218   7221   7222      1    1.1005e+02    3.8802e+02 ;    C18 - C17    - H7R   
  7218   7221   7223      1    1.1005e+02    3.8802e+02 ;    C18 - C17    - H7S   
  7218   7221   7224      1    1.1205e+02    3.9497e+02 ;    C18 - C17    - C16   
  7219   7218   7220      1    1.0835e+02    3.2995e+02 ;    H8R - C18    - H8S   
  7219   7218   7221      1    1.1005e+02    3.8802e+02 ;    H8R - C18    - C17   
  7220   7218   7221      1    1.1005e+02    3.8802e+02 ;    H8S - C18    - C17   
  7221   7224   7225      1    1.1005e+02    3.8802e+02 ;    C17 - C16    - H6R   
  7221   7224   7226      1    1.1005e+02    3.8802e+02 ;    C17 - C16    - H6S   
  7221   7224   7227      1    1.1205e+02    3.9497e+02 ;    C17 - C16    - C15   
  7222   7221   7223      1    1.0835e+02    3.2995e+02 ;    H7R - C17    - H7S   
  7222   7221   7224      1    1.1005e+02    3.8802e+02 ;    H7R - C17    - C16   
  7223   7221   7224      1    1.1005e+02    3.8802e+02 ;    H7S - C17    - C16   
  7224   7227   7228      1    1.1005e+02    3.8802e+02 ;    C16 - C15    - H5R   
  7224   7227   7229      1    1.1005e+02    3.8802e+02 ;    C16 - C15    - H5S   
  7224   7227   7230      1    1.1205e+02    3.9497e+02 ;    C16 - C15    - C14   
  7225   7224   7226      1    1.0835e+02    3.2995e+02 ;    H6R - C16    - H6S   
  7225   7224   7227      1    1.1005e+02    3.8802e+02 ;    H6R - C16    - C15   
  7226   7224   7227      1    1.1005e+02    3.8802e+02 ;    H6S - C16    - C15   
  7227   7230   7231      1    1.1005e+02    3.8802e+02 ;    C15 - C14    - H4R   
  7227   7230   7232      1    1.1005e+02    3.8802e+02 ;    C15 - C14    - H4S   
  7227   7230   7233      1    1.1205e+02    3.9497e+02 ;    C15 - C14    - C13   
  7228   7227   7229      1    1.0835e+02    3.2995e+02 ;    H5R - C15    - H5S   
  7228   7227   7230      1    1.1005e+02    3.8802e+02 ;    H5R - C15    - C14   
  7229   7227   7230      1    1.1005e+02    3.8802e+02 ;    H5S - C15    - C14   
  7230   7233   7234      1    1.1005e+02    3.8802e+02 ;    C14 - C13    - H3R   
  7230   7233   7235      1    1.1005e+02    3.8802e+02 ;    C14 - C13    - H3S   
  7230   7233   7236      1    1.1205e+02    3.9497e+02 ;    C14 - C13    - C12   
  7231   7230   7232      1    1.0835e+02    3.2995e+02 ;    H4R - C14    - H4S   
  7231   7230   7233      1    1.1005e+02    3.8802e+02 ;    H4R - C14    - C13   
  7232   7230   7233      1    1.1005e+02    3.8802e+02 ;    H4S - C14    - C13   
  7233   7236   7237      1    1.1005e+02    3.8802e+02 ;    C13 - C12    - H2R   
  7233   7236   7238      1    1.1005e+02    3.8802e+02 ;    C13 - C12    - H2S   
  7233   7236   7239      1    1.1053e+02    5.3379e+02 ;    C13 - C12    - C11   
  7234   7233   7235      1    1.0835e+02    3.2995e+02 ;    H3R - C13    - H3S   
  7234   7233   7236      1    1.1005e+02    3.8802e+02 ;    H3R - C13    - C12   
  7235   7233   7236      1    1.1005e+02    3.8802e+02 ;    H3S - C13    - C12   
  7236   7239   7240      1    1.2311e+02    5.6928e+02 ;    C12 - C11    - O12   
  7236   7239   7241      1    1.1196e+02    5.7957e+02 ;    C12 - C11    - O11   
  7237   7236   7238      1    1.0835e+02    3.2995e+02 ;    H2R - C12    - H2S   
  7237   7236   7239      1    1.0968e+02    3.9497e+02 ;    H2R - C12    - C11   
  7238   7236   7239      1    1.0968e+02    3.9497e+02 ;    H2S - C12    - C11   
  7239   7241   7242      1    1.1514e+02    5.3246e+02 ;    C11 - O11    - C1    
  7240   7239   7241      1    1.2333e+02    6.3538e+02 ;    O12 - C11    - O11   
  7241   7242   7243      1    1.0882e+02    4.2543e+02 ;    O11 - C1     - HR    
  7241   7242   7244      1    1.0882e+02    4.2543e+02 ;    O11 - C1     - HS    
  7241   7242   7245      1    1.0842e+02    5.6718e+02 ;    O11 - C1     - C2    
  7242   7245   7246      1    1.1007e+02    3.8794e+02 ;     C1 - C2     - HX    
  7242   7245   7247      1    1.1063e+02    5.2894e+02 ;     C1 - C2     - C3    
  7242   7245   7274      1    1.0842e+02    5.6718e+02 ;     C1 - C2     - O21   
  7243   7242   7244      1    1.0955e+02    3.2786e+02 ;     HR - C1     - HS    
  7243   7242   7245      1    1.1007e+02    3.8794e+02 ;     HR - C1     - C2    
  7244   7242   7245      1    1.1007e+02    3.8794e+02 ;     HS - C1     - C2    
  7245   7247   7248      1    1.1007e+02    3.8794e+02 ;     C2 - C3     - HA    
  7245   7247   7249      1    1.1007e+02    3.8794e+02 ;     C2 - C3     - HB    
  7245   7247   7250      1    1.0842e+02    5.6718e+02 ;     C2 - C3     - O31   
  7245   7274   7275      1    1.1514e+02    5.3246e+02 ;     C2 - O21    - C21   
  7246   7245   7247      1    1.1007e+02    3.8794e+02 ;     HX - C2     - C3    
  7246   7245   7274      1    1.0882e+02    4.2543e+02 ;     HX - C2     - O21   
  7247   7245   7274      1    1.0842e+02    5.6718e+02 ;     C3 - C2     - O21   
  7247   7250   7251      1    1.2050e+02    8.3680e+02 ;     C3 - O31    - P31   
  7248   7247   7249      1    1.0955e+02    3.2786e+02 ;     HA - C3     - HB    
  7248   7247   7250      1    1.0882e+02    4.2543e+02 ;     HA - C3     - O31   
  7249   7247   7250      1    1.0882e+02    4.2543e+02 ;     HB - C3     - O31   
  7250   7251   7252      1    1.0260e+02    7.5312e+02 ;    O31 - P31    - O32   
  7250   7251   7272      1    1.0823e+02    8.3680e+02 ;    O31 - P31    - O33   
  7250   7251   7273      1    1.0823e+02    8.3680e+02 ;    O31 - P31    - O34   
  7251   7252   7253      1    1.2050e+02    8.3680e+02 ;    P31 - O32    - C31   
  7252   7251   7272      1    1.0823e+02    8.3680e+02 ;    O32 - P31    - O33   
  7252   7251   7273      1    1.0823e+02    8.3680e+02 ;    O32 - P31    - O34   
  7252   7253   7254      1    1.0882e+02    4.2543e+02 ;    O32 - C31    - H1A   
  7252   7253   7255      1    1.0882e+02    4.2543e+02 ;    O32 - C31    - H1B   
  7252   7253   7256      1    1.0842e+02    5.6718e+02 ;    O32 - C31    - C32   
  7253   7256   7257      1    1.1174e+02    3.8510e+02 ;    C31 - C32    - H2A   
  7253   7256   7258      1    1.1174e+02    3.8510e+02 ;    C31 - C32    - H2B   
  7253   7256   7259      1    1.1432e+02    5.3932e+02 ;    C31 - C32    - N31   
  7254   7253   7255      1    1.0955e+02    3.2786e+02 ;    H1A - C31    - H1B   
  7254   7253   7256      1    1.1007e+02    3.8794e+02 ;    H1A - C31    - C32   
  7255   7253   7256      1    1.1007e+02    3.8794e+02 ;    H1B - C31    - C32   
  7256   7259   7260      1    1.1064e+02    5.2585e+02 ;    C32 - N31    - C33   
  7256   7259   7264      1    1.1064e+02    5.2585e+02 ;    C32 - N31    - C34   
  7256   7259   7268      1    1.1064e+02    5.2585e+02 ;    C32 - N31    - C35   
  7257   7256   7258      1    1.1074e+02    3.2669e+02 ;    H2A - C32    - H2B   
  7257   7256   7259      1    1.0791e+02    4.1020e+02 ;    H2A - C32    - N31   
  7258   7256   7259      1    1.0791e+02    4.1020e+02 ;    H2B - C32    - N31   
  7259   7260   7261      1    1.0791e+02    4.1020e+02 ;    N31 - C33    - H3A   
  7259   7260   7262      1    1.0791e+02    4.1020e+02 ;    N31 - C33    - H3B   
  7259   7260   7263      1    1.0791e+02    4.1020e+02 ;    N31 - C33    - H3C   
  7259   7264   7265      1    1.0791e+02    4.1020e+02 ;    N31 - C34    - H4A   
  7259   7264   7266      1    1.0791e+02    4.1020e+02 ;    N31 - C34    - H4B   
  7259   7264   7267      1    1.0791e+02    4.1020e+02 ;    N31 - C34    - H4C   
  7259   7268   7269      1    1.0791e+02    4.1020e+02 ;    N31 - C35    - H5A   
  7259   7268   7270      1    1.0791e+02    4.1020e+02 ;    N31 - C35    - H5B   
  7259   7268   7271      1    1.0791e+02    4.1020e+02 ;    N31 - C35    - H5C   
  7260   7259   7264      1    1.1064e+02    5.2585e+02 ;    C33 - N31    - C34   
  7260   7259   7268      1    1.1064e+02    5.2585e+02 ;    C33 - N31    - C35   
  7261   7260   7262      1    1.1074e+02    3.2669e+02 ;    H3A - C33    - H3B   
  7261   7260   7263      1    1.1074e+02    3.2669e+02 ;    H3A - C33    - H3C   
  7262   7260   7263      1    1.1074e+02    3.2669e+02 ;    H3B - C33    - H3C   
  7264   7259   7268      1    1.1064e+02    5.2585e+02 ;    C34 - N31    - C35   
  7265   7264   7266      1    1.1074e+02    3.2669e+02 ;    H4A - C34    - H4B   
  7265   7264   7267      1    1.1074e+02    3.2669e+02 ;    H4A - C34    - H4C   
  7266   7264   7267      1    1.1074e+02    3.2669e+02 ;    H4B - C34    - H4C   
  7269   7268   7270      1    1.1074e+02    3.2669e+02 ;    H5A - C35    - H5B   
  7269   7268   7271      1    1.1074e+02    3.2669e+02 ;    H5A - C35    - H5C   
  7270   7268   7271      1    1.1074e+02    3.2669e+02 ;    H5B - C35    - H5C   
  7272   7251   7273      1    1.1990e+02    1.1715e+03 ;    O33 - P31    - O34   
  7274   7275   7276      1    1.2333e+02    6.3538e+02 ;    O21 - C21    - O22   
  7274   7275   7314      1    1.1196e+02    5.7957e+02 ;    O21 - C21    - C12   
  7275   7314   7311      1    1.1053e+02    5.3379e+02 ;    C21 - C12    - C13   
  7275   7314   7315      1    1.0968e+02    3.9497e+02 ;    C21 - C12    - H2R   
  7275   7314   7316      1    1.0968e+02    3.9497e+02 ;    C21 - C12    - H2S   
  7276   7275   7314      1    1.2311e+02    5.6928e+02 ;    O22 - C21    - C12   
  7277   7278   7279      1    1.0835e+02    3.2995e+02 ;   H14T - C114   - H14R  
  7277   7278   7280      1    1.0835e+02    3.2995e+02 ;   H14T - C114   - H14S  
  7277   7278   7281      1    1.1005e+02    3.8802e+02 ;   H14T - C114   - C113  
  7278   7281   7282      1    1.1005e+02    3.8802e+02 ;   C114 - C113   - H13R  
  7278   7281   7283      1    1.1005e+02    3.8802e+02 ;   C114 - C113   - H13S  
  7278   7281   7284      1    1.1205e+02    3.9497e+02 ;   C114 - C113   - C112  
  7279   7278   7280      1    1.0835e+02    3.2995e+02 ;   H14R - C114   - H14S  
  7279   7278   7281      1    1.1005e+02    3.8802e+02 ;   H14R - C114   - C113  
  7280   7278   7281      1    1.1005e+02    3.8802e+02 ;   H14S - C114   - C113  
  7281   7284   7285      1    1.1005e+02    3.8802e+02 ;   C113 - C112   - H12R  
  7281   7284   7286      1    1.1005e+02    3.8802e+02 ;   C113 - C112   - H12S  
  7281   7284   7287      1    1.1205e+02    3.9497e+02 ;   C113 - C112   - C111  
  7282   7281   7283      1    1.0835e+02    3.2995e+02 ;   H13R - C113   - H13S  
  7282   7281   7284      1    1.1005e+02    3.8802e+02 ;   H13R - C113   - C112  
  7283   7281   7284      1    1.1005e+02    3.8802e+02 ;   H13S - C113   - C112  
  7284   7287   7288      1    1.1005e+02    3.8802e+02 ;   C112 - C111   - H11R  
  7284   7287   7289      1    1.1005e+02    3.8802e+02 ;   C112 - C111   - H11S  
  7284   7287   7290      1    1.1205e+02    3.9497e+02 ;   C112 - C111   - C110  
  7285   7284   7286      1    1.0835e+02    3.2995e+02 ;   H12R - C112   - H12S  
  7285   7284   7287      1    1.1005e+02    3.8802e+02 ;   H12R - C112   - C111  
  7286   7284   7287      1    1.1005e+02    3.8802e+02 ;   H12S - C112   - C111  
  7287   7290   7291      1    1.1005e+02    3.8802e+02 ;   C111 - C110   - H10R  
  7287   7290   7292      1    1.1005e+02    3.8802e+02 ;   C111 - C110   - H10S  
  7287   7290   7293      1    1.1205e+02    3.9497e+02 ;   C111 - C110   - C19   
  7288   7287   7289      1    1.0835e+02    3.2995e+02 ;   H11R - C111   - H11S  
  7288   7287   7290      1    1.1005e+02    3.8802e+02 ;   H11R - C111   - C110  
  7289   7287   7290      1    1.1005e+02    3.8802e+02 ;   H11S - C111   - C110  
  7290   7293   7294      1    1.1005e+02    3.8802e+02 ;   C110 - C19    - H9R   
  7290   7293   7295      1    1.1005e+02    3.8802e+02 ;   C110 - C19    - H9S   
  7290   7293   7296      1    1.1205e+02    3.9497e+02 ;   C110 - C19    - C18   
  7291   7290   7292      1    1.0835e+02    3.2995e+02 ;   H10R - C110   - H10S  
  7291   7290   7293      1    1.1005e+02    3.8802e+02 ;   H10R - C110   - C19   
  7292   7290   7293      1    1.1005e+02    3.8802e+02 ;   H10S - C110   - C19   
  7293   7296   7297      1    1.1005e+02    3.8802e+02 ;    C19 - C18    - H8R   
  7293   7296   7298      1    1.1005e+02    3.8802e+02 ;    C19 - C18    - H8S   
  7293   7296   7299      1    1.1205e+02    3.9497e+02 ;    C19 - C18    - C17   
  7294   7293   7295      1    1.0835e+02    3.2995e+02 ;    H9R - C19    - H9S   
  7294   7293   7296      1    1.1005e+02    3.8802e+02 ;    H9R - C19    - C18   
  7295   7293   7296      1    1.1005e+02    3.8802e+02 ;    H9S - C19    - C18   
  7296   7299   7300      1    1.1005e+02    3.8802e+02 ;    C18 - C17    - H7R   
  7296   7299   7301      1    1.1005e+02    3.8802e+02 ;    C18 - C17    - H7S   
  7296   7299   7302      1    1.1205e+02    3.9497e+02 ;    C18 - C17    - C16   
  7297   7296   7298      1    1.0835e+02    3.2995e+02 ;    H8R - C18    - H8S   
  7297   7296   7299      1    1.1005e+02    3.8802e+02 ;    H8R - C18    - C17   
  7298   7296   7299      1    1.1005e+02    3.8802e+02 ;    H8S - C18    - C17   
  7299   7302   7303      1    1.1005e+02    3.8802e+02 ;    C17 - C16    - H6R   
  7299   7302   7304      1    1.1005e+02    3.8802e+02 ;    C17 - C16    - H6S   
  7299   7302   7305      1    1.1205e+02    3.9497e+02 ;    C17 - C16    - C15   
  7300   7299   7301      1    1.0835e+02    3.2995e+02 ;    H7R - C17    - H7S   
  7300   7299   7302      1    1.1005e+02    3.8802e+02 ;    H7R - C17    - C16   
  7301   7299   7302      1    1.1005e+02    3.8802e+02 ;    H7S - C17    - C16   
  7302   7305   7306      1    1.1005e+02    3.8802e+02 ;    C16 - C15    - H5R   
  7302   7305   7307      1    1.1005e+02    3.8802e+02 ;    C16 - C15    - H5S   
  7302   7305   7308      1    1.1205e+02    3.9497e+02 ;    C16 - C15    - C14   
  7303   7302   7304      1    1.0835e+02    3.2995e+02 ;    H6R - C16    - H6S   
  7303   7302   7305      1    1.1005e+02    3.8802e+02 ;    H6R - C16    - C15   
  7304   7302   7305      1    1.1005e+02    3.8802e+02 ;    H6S - C16    - C15   
  7305   7308   7309      1    1.1005e+02    3.8802e+02 ;    C15 - C14    - H4R   
  7305   7308   7310      1    1.1005e+02    3.8802e+02 ;    C15 - C14    - H4S   
  7305   7308   7311      1    1.1205e+02    3.9497e+02 ;    C15 - C14    - C13   
  7306   7305   7307      1    1.0835e+02    3.2995e+02 ;    H5R - C15    - H5S   
  7306   7305   7308      1    1.1005e+02    3.8802e+02 ;    H5R - C15    - C14   
  7307   7305   7308      1    1.1005e+02    3.8802e+02 ;    H5S - C15    - C14   
  7308   7311   7312      1    1.1005e+02    3.8802e+02 ;    C14 - C13    - H3R   
  7308   7311   7313      1    1.1005e+02    3.8802e+02 ;    C14 - C13    - H3S   
  7308   7311   7314      1    1.1205e+02    3.9497e+02 ;    C14 - C13    - C12   
  7309   7308   7310      1    1.0835e+02    3.2995e+02 ;    H4R - C14    - H4S   
  7309   7308   7311      1    1.1005e+02    3.8802e+02 ;    H4R - C14    - C13   
  7310   7308   7311      1    1.1005e+02    3.8802e+02 ;    H4S - C14    - C13   
  7311   7314   7315      1    1.1005e+02    3.8802e+02 ;    C13 - C12    - H2R   
  7311   7314   7316      1    1.1005e+02    3.8802e+02 ;    C13 - C12    - H2S   
  7312   7311   7313      1    1.0835e+02    3.2995e+02 ;    H3R - C13    - H3S   
  7312   7311   7314      1    1.1005e+02    3.8802e+02 ;    H3R - C13    - C12   
  7313   7311   7314      1    1.1005e+02    3.8802e+02 ;    H3S - C13    - C12   
  7315   7314   7316      1    1.0835e+02    3.2995e+02 ;    H2R - C12    - H2S   
  7317   7318   7319      1    1.0835e+02    3.2995e+02 ;   H14T - C114   - H14R  
  7317   7318   7320      1    1.0835e+02    3.2995e+02 ;   H14T - C114   - H14S  
  7317   7318   7321      1    1.1005e+02    3.8802e+02 ;   H14T - C114   - C113  
  7318   7321   7322      1    1.1005e+02    3.8802e+02 ;   C114 - C113   - H13R  
  7318   7321   7323      1    1.1005e+02    3.8802e+02 ;   C114 - C113   - H13S  
  7318   7321   7324      1    1.1205e+02    3.9497e+02 ;   C114 - C113   - C112  
  7319   7318   7320      1    1.0835e+02    3.2995e+02 ;   H14R - C114   - H14S  
  7319   7318   7321      1    1.1005e+02    3.8802e+02 ;   H14R - C114   - C113  
  7320   7318   7321      1    1.1005e+02    3.8802e+02 ;   H14S - C114   - C113  
  7321   7324   7325      1    1.1005e+02    3.8802e+02 ;   C113 - C112   - H12R  
  7321   7324   7326      1    1.1005e+02    3.8802e+02 ;   C113 - C112   - H12S  
  7321   7324   7327      1    1.1205e+02    3.9497e+02 ;   C113 - C112   - C111  
  7322   7321   7323      1    1.0835e+02    3.2995e+02 ;   H13R - C113   - H13S  
  7322   7321   7324      1    1.1005e+02    3.8802e+02 ;   H13R - C113   - C112  
  7323   7321   7324      1    1.1005e+02    3.8802e+02 ;   H13S - C113   - C112  
  7324   7327   7328      1    1.1005e+02    3.8802e+02 ;   C112 - C111   - H11R  
  7324   7327   7329      1    1.1005e+02    3.8802e+02 ;   C112 - C111   - H11S  
  7324   7327   7330      1    1.1205e+02    3.9497e+02 ;   C112 - C111   - C110  
  7325   7324   7326      1    1.0835e+02    3.2995e+02 ;   H12R - C112   - H12S  
  7325   7324   7327      1    1.1005e+02    3.8802e+02 ;   H12R - C112   - C111  
  7326   7324   7327      1    1.1005e+02    3.8802e+02 ;   H12S - C112   - C111  
  7327   7330   7331      1    1.1005e+02    3.8802e+02 ;   C111 - C110   - H10R  
  7327   7330   7332      1    1.1005e+02    3.8802e+02 ;   C111 - C110   - H10S  
  7327   7330   7333      1    1.1205e+02    3.9497e+02 ;   C111 - C110   - C19   
  7328   7327   7329      1    1.0835e+02    3.2995e+02 ;   H11R - C111   - H11S  
  7328   7327   7330      1    1.1005e+02    3.8802e+02 ;   H11R - C111   - C110  
  7329   7327   7330      1    1.1005e+02    3.8802e+02 ;   H11S - C111   - C110  
  7330   7333   7334      1    1.1005e+02    3.8802e+02 ;   C110 - C19    - H9R   
  7330   7333   7335      1    1.1005e+02    3.8802e+02 ;   C110 - C19    - H9S   
  7330   7333   7336      1    1.1205e+02    3.9497e+02 ;   C110 - C19    - C18   
  7331   7330   7332      1    1.0835e+02    3.2995e+02 ;   H10R - C110   - H10S  
  7331   7330   7333      1    1.1005e+02    3.8802e+02 ;   H10R - C110   - C19   
  7332   7330   7333      1    1.1005e+02    3.8802e+02 ;   H10S - C110   - C19   
  7333   7336   7337      1    1.1005e+02    3.8802e+02 ;    C19 - C18    - H8R   
  7333   7336   7338      1    1.1005e+02    3.8802e+02 ;    C19 - C18    - H8S   
  7333   7336   7339      1    1.1205e+02    3.9497e+02 ;    C19 - C18    - C17   
  7334   7333   7335      1    1.0835e+02    3.2995e+02 ;    H9R - C19    - H9S   
  7334   7333   7336      1    1.1005e+02    3.8802e+02 ;    H9R - C19    - C18   
  7335   7333   7336      1    1.1005e+02    3.8802e+02 ;    H9S - C19    - C18   
  7336   7339   7340      1    1.1005e+02    3.8802e+02 ;    C18 - C17    - H7R   
  7336   7339   7341      1    1.1005e+02    3.8802e+02 ;    C18 - C17    - H7S   
  7336   7339   7342      1    1.1205e+02    3.9497e+02 ;    C18 - C17    - C16   
  7337   7336   7338      1    1.0835e+02    3.2995e+02 ;    H8R - C18    - H8S   
  7337   7336   7339      1    1.1005e+02    3.8802e+02 ;    H8R - C18    - C17   
  7338   7336   7339      1    1.1005e+02    3.8802e+02 ;    H8S - C18    - C17   
  7339   7342   7343      1    1.1005e+02    3.8802e+02 ;    C17 - C16    - H6R   
  7339   7342   7344      1    1.1005e+02    3.8802e+02 ;    C17 - C16    - H6S   
  7339   7342   7345      1    1.1205e+02    3.9497e+02 ;    C17 - C16    - C15   
  7340   7339   7341      1    1.0835e+02    3.2995e+02 ;    H7R - C17    - H7S   
  7340   7339   7342      1    1.1005e+02    3.8802e+02 ;    H7R - C17    - C16   
  7341   7339   7342      1    1.1005e+02    3.8802e+02 ;    H7S - C17    - C16   
  7342   7345   7346      1    1.1005e+02    3.8802e+02 ;    C16 - C15    - H5R   
  7342   7345   7347      1    1.1005e+02    3.8802e+02 ;    C16 - C15    - H5S   
  7342   7345   7348      1    1.1205e+02    3.9497e+02 ;    C16 - C15    - C14   
  7343   7342   7344      1    1.0835e+02    3.2995e+02 ;    H6R - C16    - H6S   
  7343   7342   7345      1    1.1005e+02    3.8802e+02 ;    H6R - C16    - C15   
  7344   7342   7345      1    1.1005e+02    3.8802e+02 ;    H6S - C16    - C15   
  7345   7348   7349      1    1.1005e+02    3.8802e+02 ;    C15 - C14    - H4R   
  7345   7348   7350      1    1.1005e+02    3.8802e+02 ;    C15 - C14    - H4S   
  7345   7348   7351      1    1.1205e+02    3.9497e+02 ;    C15 - C14    - C13   
  7346   7345   7347      1    1.0835e+02    3.2995e+02 ;    H5R - C15    - H5S   
  7346   7345   7348      1    1.1005e+02    3.8802e+02 ;    H5R - C15    - C14   
  7347   7345   7348      1    1.1005e+02    3.8802e+02 ;    H5S - C15    - C14   
  7348   7351   7352      1    1.1005e+02    3.8802e+02 ;    C14 - C13    - H3R   
  7348   7351   7353      1    1.1005e+02    3.8802e+02 ;    C14 - C13    - H3S   
  7348   7351   7354      1    1.1205e+02    3.9497e+02 ;    C14 - C13    - C12   
  7349   7348   7350      1    1.0835e+02    3.2995e+02 ;    H4R - C14    - H4S   
  7349   7348   7351      1    1.1005e+02    3.8802e+02 ;    H4R - C14    - C13   
  7350   7348   7351      1    1.1005e+02    3.8802e+02 ;    H4S - C14    - C13   
  7351   7354   7355      1    1.1005e+02    3.8802e+02 ;    C13 - C12    - H2R   
  7351   7354   7356      1    1.1005e+02    3.8802e+02 ;    C13 - C12    - H2S   
  7351   7354   7357      1    1.1053e+02    5.3379e+02 ;    C13 - C12    - C11   
  7352   7351   7353      1    1.0835e+02    3.2995e+02 ;    H3R - C13    - H3S   
  7352   7351   7354      1    1.1005e+02    3.8802e+02 ;    H3R - C13    - C12   
  7353   7351   7354      1    1.1005e+02    3.8802e+02 ;    H3S - C13    - C12   
  7354   7357   7358      1    1.2311e+02    5.6928e+02 ;    C12 - C11    - O12   
  7354   7357   7359      1    1.1196e+02    5.7957e+02 ;    C12 - C11    - O11   
  7355   7354   7356      1    1.0835e+02    3.2995e+02 ;    H2R - C12    - H2S   
  7355   7354   7357      1    1.0968e+02    3.9497e+02 ;    H2R - C12    - C11   
  7356   7354   7357      1    1.0968e+02    3.9497e+02 ;    H2S - C12    - C11   
  7357   7359   7360      1    1.1514e+02    5.3246e+02 ;    C11 - O11    - C1    
  7358   7357   7359      1    1.2333e+02    6.3538e+02 ;    O12 - C11    - O11   
  7359   7360   7361      1    1.0882e+02    4.2543e+02 ;    O11 - C1     - HR    
  7359   7360   7362      1    1.0882e+02    4.2543e+02 ;    O11 - C1     - HS    
  7359   7360   7363      1    1.0842e+02    5.6718e+02 ;    O11 - C1     - C2    
  7360   7363   7364      1    1.1007e+02    3.8794e+02 ;     C1 - C2     - HX    
  7360   7363   7365      1    1.1063e+02    5.2894e+02 ;     C1 - C2     - C3    
  7360   7363   7392      1    1.0842e+02    5.6718e+02 ;     C1 - C2     - O21   
  7361   7360   7362      1    1.0955e+02    3.2786e+02 ;     HR - C1     - HS    
  7361   7360   7363      1    1.1007e+02    3.8794e+02 ;     HR - C1     - C2    
  7362   7360   7363      1    1.1007e+02    3.8794e+02 ;     HS - C1     - C2    
  7363   7365   7366      1    1.1007e+02    3.8794e+02 ;     C2 - C3     - HA    
  7363   7365   7367      1    1.1007e+02    3.8794e+02 ;     C2 - C3     - HB    
  7363   7365   7368      1    1.0842e+02    5.6718e+02 ;     C2 - C3     - O31   
  7363   7392   7393      1    1.1514e+02    5.3246e+02 ;     C2 - O21    - C21   
  7364   7363   7365      1    1.1007e+02    3.8794e+02 ;     HX - C2     - C3    
  7364   7363   7392      1    1.0882e+02    4.2543e+02 ;     HX - C2     - O21   
  7365   7363   7392      1    1.0842e+02    5.6718e+02 ;     C3 - C2     - O21   
  7365   7368   7369      1    1.2050e+02    8.3680e+02 ;     C3 - O31    - P31   
  7366   7365   7367      1    1.0955e+02    3.2786e+02 ;     HA - C3     - HB    
  7366   7365   7368      1    1.0882e+02    4.2543e+02 ;     HA - C3     - O31   
  7367   7365   7368      1    1.0882e+02    4.2543e+02 ;     HB - C3     - O31   
  7368   7369   7370      1    1.0260e+02    7.5312e+02 ;    O31 - P31    - O32   
  7368   7369   7390      1    1.0823e+02    8.3680e+02 ;    O31 - P31    - O33   
  7368   7369   7391      1    1.0823e+02    8.3680e+02 ;    O31 - P31    - O34   
  7369   7370   7371      1    1.2050e+02    8.3680e+02 ;    P31 - O32    - C31   
  7370   7369   7390      1    1.0823e+02    8.3680e+02 ;    O32 - P31    - O33   
  7370   7369   7391      1    1.0823e+02    8.3680e+02 ;    O32 - P31    - O34   
  7370   7371   7372      1    1.0882e+02    4.2543e+02 ;    O32 - C31    - H1A   
  7370   7371   7373      1    1.0882e+02    4.2543e+02 ;    O32 - C31    - H1B   
  7370   7371   7374      1    1.0842e+02    5.6718e+02 ;    O32 - C31    - C32   
  7371   7374   7375      1    1.1174e+02    3.8510e+02 ;    C31 - C32    - H2A   
  7371   7374   7376      1    1.1174e+02    3.8510e+02 ;    C31 - C32    - H2B   
  7371   7374   7377      1    1.1432e+02    5.3932e+02 ;    C31 - C32    - N31   
  7372   7371   7373      1    1.0955e+02    3.2786e+02 ;    H1A - C31    - H1B   
  7372   7371   7374      1    1.1007e+02    3.8794e+02 ;    H1A - C31    - C32   
  7373   7371   7374      1    1.1007e+02    3.8794e+02 ;    H1B - C31    - C32   
  7374   7377   7378      1    1.1064e+02    5.2585e+02 ;    C32 - N31    - C33   
  7374   7377   7382      1    1.1064e+02    5.2585e+02 ;    C32 - N31    - C34   
  7374   7377   7386      1    1.1064e+02    5.2585e+02 ;    C32 - N31    - C35   
  7375   7374   7376      1    1.1074e+02    3.2669e+02 ;    H2A - C32    - H2B   
  7375   7374   7377      1    1.0791e+02    4.1020e+02 ;    H2A - C32    - N31   
  7376   7374   7377      1    1.0791e+02    4.1020e+02 ;    H2B - C32    - N31   
  7377   7378   7379      1    1.0791e+02    4.1020e+02 ;    N31 - C33    - H3A   
  7377   7378   7380      1    1.0791e+02    4.1020e+02 ;    N31 - C33    - H3B   
  7377   7378   7381      1    1.0791e+02    4.1020e+02 ;    N31 - C33    - H3C   
  7377   7382   7383      1    1.0791e+02    4.1020e+02 ;    N31 - C34    - H4A   
  7377   7382   7384      1    1.0791e+02    4.1020e+02 ;    N31 - C34    - H4B   
  7377   7382   7385      1    1.0791e+02    4.1020e+02 ;    N31 - C34    - H4C   
  7377   7386   7387      1    1.0791e+02    4.1020e+02 ;    N31 - C35    - H5A   
  7377   7386   7388      1    1.0791e+02    4.1020e+02 ;    N31 - C35    - H5B   
  7377   7386   7389      1    1.0791e+02    4.1020e+02 ;    N31 - C35    - H5C   
  7378   7377   7382      1    1.1064e+02    5.2585e+02 ;    C33 - N31    - C34   
  7378   7377   7386      1    1.1064e+02    5.2585e+02 ;    C33 - N31    - C35   
  7379   7378   7380      1    1.1074e+02    3.2669e+02 ;    H3A - C33    - H3B   
  7379   7378   7381      1    1.1074e+02    3.2669e+02 ;    H3A - C33    - H3C   
  7380   7378   7381      1    1.1074e+02    3.2669e+02 ;    H3B - C33    - H3C   
  7382   7377   7386      1    1.1064e+02    5.2585e+02 ;    C34 - N31    - C35   
  7383   7382   7384      1    1.1074e+02    3.2669e+02 ;    H4A - C34    - H4B   
  7383   7382   7385      1    1.1074e+02    3.2669e+02 ;    H4A - C34    - H4C   
  7384   7382   7385      1    1.1074e+02    3.2669e+02 ;    H4B - C34    - H4C   
  7387   7386   7388      1    1.1074e+02    3.2669e+02 ;    H5A - C35    - H5B   
  7387   7386   7389      1    1.1074e+02    3.2669e+02 ;    H5A - C35    - H5C   
  7388   7386   7389      1    1.1074e+02    3.2669e+02 ;    H5B - C35    - H5C   
  7390   7369   7391      1    1.1990e+02    1.1715e+03 ;    O33 - P31    - O34   
  7392   7393   7394      1    1.2333e+02    6.3538e+02 ;    O21 - C21    - O22   
  7392   7393   7432      1    1.1196e+02    5.7957e+02 ;    O21 - C21    - C12   
  7393   7432   7429      1    1.1053e+02    5.3379e+02 ;    C21 - C12    - C13   
  7393   7432   7433      1    1.0968e+02    3.9497e+02 ;    C21 - C12    - H2R   
  7393   7432   7434      1    1.0968e+02    3.9497e+02 ;    C21 - C12    - H2S   
  7394   7393   7432      1    1.2311e+02    5.6928e+02 ;    O22 - C21    - C12   
  7395   7396   7397      1    1.0835e+02    3.2995e+02 ;   H14T - C114   - H14R  
  7395   7396   7398      1    1.0835e+02    3.2995e+02 ;   H14T - C114   - H14S  
  7395   7396   7399      1    1.1005e+02    3.8802e+02 ;   H14T - C114   - C113  
  7396   7399   7400      1    1.1005e+02    3.8802e+02 ;   C114 - C113   - H13R  
  7396   7399   7401      1    1.1005e+02    3.8802e+02 ;   C114 - C113   - H13S  
  7396   7399   7402      1    1.1205e+02    3.9497e+02 ;   C114 - C113   - C112  
  7397   7396   7398      1    1.0835e+02    3.2995e+02 ;   H14R - C114   - H14S  
  7397   7396   7399      1    1.1005e+02    3.8802e+02 ;   H14R - C114   - C113  
  7398   7396   7399      1    1.1005e+02    3.8802e+02 ;   H14S - C114   - C113  
  7399   7402   7403      1    1.1005e+02    3.8802e+02 ;   C113 - C112   - H12R  
  7399   7402   7404      1    1.1005e+02    3.8802e+02 ;   C113 - C112   - H12S  
  7399   7402   7405      1    1.1205e+02    3.9497e+02 ;   C113 - C112   - C111  
  7400   7399   7401      1    1.0835e+02    3.2995e+02 ;   H13R - C113   - H13S  
  7400   7399   7402      1    1.1005e+02    3.8802e+02 ;   H13R - C113   - C112  
  7401   7399   7402      1    1.1005e+02    3.8802e+02 ;   H13S - C113   - C112  
  7402   7405   7406      1    1.1005e+02    3.8802e+02 ;   C112 - C111   - H11R  
  7402   7405   7407      1    1.1005e+02    3.8802e+02 ;   C112 - C111   - H11S  
  7402   7405   7408      1    1.1205e+02    3.9497e+02 ;   C112 - C111   - C110  
  7403   7402   7404      1    1.0835e+02    3.2995e+02 ;   H12R - C112   - H12S  
  7403   7402   7405      1    1.1005e+02    3.8802e+02 ;   H12R - C112   - C111  
  7404   7402   7405      1    1.1005e+02    3.8802e+02 ;   H12S - C112   - C111  
  7405   7408   7409      1    1.1005e+02    3.8802e+02 ;   C111 - C110   - H10R  
  7405   7408   7410      1    1.1005e+02    3.8802e+02 ;   C111 - C110   - H10S  
  7405   7408   7411      1    1.1205e+02    3.9497e+02 ;   C111 - C110   - C19   
  7406   7405   7407      1    1.0835e+02    3.2995e+02 ;   H11R - C111   - H11S  
  7406   7405   7408      1    1.1005e+02    3.8802e+02 ;   H11R - C111   - C110  
  7407   7405   7408      1    1.1005e+02    3.8802e+02 ;   H11S - C111   - C110  
  7408   7411   7412      1    1.1005e+02    3.8802e+02 ;   C110 - C19    - H9R   
  7408   7411   7413      1    1.1005e+02    3.8802e+02 ;   C110 - C19    - H9S   
  7408   7411   7414      1    1.1205e+02    3.9497e+02 ;   C110 - C19    - C18   
  7409   7408   7410      1    1.0835e+02    3.2995e+02 ;   H10R - C110   - H10S  
  7409   7408   7411      1    1.1005e+02    3.8802e+02 ;   H10R - C110   - C19   
  7410   7408   7411      1    1.1005e+02    3.8802e+02 ;   H10S - C110   - C19   
  7411   7414   7415      1    1.1005e+02    3.8802e+02 ;    C19 - C18    - H8R   
  7411   7414   7416      1    1.1005e+02    3.8802e+02 ;    C19 - C18    - H8S   
  7411   7414   7417      1    1.1205e+02    3.9497e+02 ;    C19 - C18    - C17   
  7412   7411   7413      1    1.0835e+02    3.2995e+02 ;    H9R - C19    - H9S   
  7412   7411   7414      1    1.1005e+02    3.8802e+02 ;    H9R - C19    - C18   
  7413   7411   7414      1    1.1005e+02    3.8802e+02 ;    H9S - C19    - C18   
  7414   7417   7418      1    1.1005e+02    3.8802e+02 ;    C18 - C17    - H7R   
  7414   7417   7419      1    1.1005e+02    3.8802e+02 ;    C18 - C17    - H7S   
  7414   7417   7420      1    1.1205e+02    3.9497e+02 ;    C18 - C17    - C16   
  7415   7414   7416      1    1.0835e+02    3.2995e+02 ;    H8R - C18    - H8S   
  7415   7414   7417      1    1.1005e+02    3.8802e+02 ;    H8R - C18    - C17   
  7416   7414   7417      1    1.1005e+02    3.8802e+02 ;    H8S - C18    - C17   
  7417   7420   7421      1    1.1005e+02    3.8802e+02 ;    C17 - C16    - H6R   
  7417   7420   7422      1    1.1005e+02    3.8802e+02 ;    C17 - C16    - H6S   
  7417   7420   7423      1    1.1205e+02    3.9497e+02 ;    C17 - C16    - C15   
  7418   7417   7419      1    1.0835e+02    3.2995e+02 ;    H7R - C17    - H7S   
  7418   7417   7420      1    1.1005e+02    3.8802e+02 ;    H7R - C17    - C16   
  7419   7417   7420      1    1.1005e+02    3.8802e+02 ;    H7S - C17    - C16   
  7420   7423   7424      1    1.1005e+02    3.8802e+02 ;    C16 - C15    - H5R   
  7420   7423   7425      1    1.1005e+02    3.8802e+02 ;    C16 - C15    - H5S   
  7420   7423   7426      1    1.1205e+02    3.9497e+02 ;    C16 - C15    - C14   
  7421   7420   7422      1    1.0835e+02    3.2995e+02 ;    H6R - C16    - H6S   
  7421   7420   7423      1    1.1005e+02    3.8802e+02 ;    H6R - C16    - C15   
  7422   7420   7423      1    1.1005e+02    3.8802e+02 ;    H6S - C16    - C15   
  7423   7426   7427      1    1.1005e+02    3.8802e+02 ;    C15 - C14    - H4R   
  7423   7426   7428      1    1.1005e+02    3.8802e+02 ;    C15 - C14    - H4S   
  7423   7426   7429      1    1.1205e+02    3.9497e+02 ;    C15 - C14    - C13   
  7424   7423   7425      1    1.0835e+02    3.2995e+02 ;    H5R - C15    - H5S   
  7424   7423   7426      1    1.1005e+02    3.8802e+02 ;    H5R - C15    - C14   
  7425   7423   7426      1    1.1005e+02    3.8802e+02 ;    H5S - C15    - C14   
  7426   7429   7430      1    1.1005e+02    3.8802e+02 ;    C14 - C13    - H3R   
  7426   7429   7431      1    1.1005e+02    3.8802e+02 ;    C14 - C13    - H3S   
  7426   7429   7432      1    1.1205e+02    3.9497e+02 ;    C14 - C13    - C12   
  7427   7426   7428      1    1.0835e+02    3.2995e+02 ;    H4R - C14    - H4S   
  7427   7426   7429      1    1.1005e+02    3.8802e+02 ;    H4R - C14    - C13   
  7428   7426   7429      1    1.1005e+02    3.8802e+02 ;    H4S - C14    - C13   
  7429   7432   7433      1    1.1005e+02    3.8802e+02 ;    C13 - C12    - H2R   
  7429   7432   7434      1    1.1005e+02    3.8802e+02 ;    C13 - C12    - H2S   
  7430   7429   7431      1    1.0835e+02    3.2995e+02 ;    H3R - C13    - H3S   
  7430   7429   7432      1    1.1005e+02    3.8802e+02 ;    H3R - C13    - C12   
  7431   7429   7432      1    1.1005e+02    3.8802e+02 ;    H3S - C13    - C12   
  7433   7432   7434      1    1.0835e+02    3.2995e+02 ;    H2R - C12    - H2S   
  7435   7436   7437      1    1.0835e+02    3.2995e+02 ;   H14T - C114   - H14R  
  7435   7436   7438      1    1.0835e+02    3.2995e+02 ;   H14T - C114   - H14S  
  7435   7436   7439      1    1.1005e+02    3.8802e+02 ;   H14T - C114   - C113  
  7436   7439   7440      1    1.1005e+02    3.8802e+02 ;   C114 - C113   - H13R  
  7436   7439   7441      1    1.1005e+02    3.8802e+02 ;   C114 - C113   - H13S  
  7436   7439   7442      1    1.1205e+02    3.9497e+02 ;   C114 - C113   - C112  
  7437   7436   7438      1    1.0835e+02    3.2995e+02 ;   H14R - C114   - H14S  
  7437   7436   7439      1    1.1005e+02    3.8802e+02 ;   H14R - C114   - C113  
  7438   7436   7439      1    1.1005e+02    3.8802e+02 ;   H14S - C114   - C113  
  7439   7442   7443      1    1.1005e+02    3.8802e+02 ;   C113 - C112   - H12R  
  7439   7442   7444      1    1.1005e+02    3.8802e+02 ;   C113 - C112   - H12S  
  7439   7442   7445      1    1.1205e+02    3.9497e+02 ;   C113 - C112   - C111  
  7440   7439   7441      1    1.0835e+02    3.2995e+02 ;   H13R - C113   - H13S  
  7440   7439   7442      1    1.1005e+02    3.8802e+02 ;   H13R - C113   - C112  
  7441   7439   7442      1    1.1005e+02    3.8802e+02 ;   H13S - C113   - C112  
  7442   7445   7446      1    1.1005e+02    3.8802e+02 ;   C112 - C111   - H11R  
  7442   7445   7447      1    1.1005e+02    3.8802e+02 ;   C112 - C111   - H11S  
  7442   7445   7448      1    1.1205e+02    3.9497e+02 ;   C112 - C111   - C110  
  7443   7442   7444      1    1.0835e+02    3.2995e+02 ;   H12R - C112   - H12S  
  7443   7442   7445      1    1.1005e+02    3.8802e+02 ;   H12R - C112   - C111  
  7444   7442   7445      1    1.1005e+02    3.8802e+02 ;   H12S - C112   - C111  
  7445   7448   7449      1    1.1005e+02    3.8802e+02 ;   C111 - C110   - H10R  
  7445   7448   7450      1    1.1005e+02    3.8802e+02 ;   C111 - C110   - H10S  
  7445   7448   7451      1    1.1205e+02    3.9497e+02 ;   C111 - C110   - C19   
  7446   7445   7447      1    1.0835e+02    3.2995e+02 ;   H11R - C111   - H11S  
  7446   7445   7448      1    1.1005e+02    3.8802e+02 ;   H11R - C111   - C110  
  7447   7445   7448      1    1.1005e+02    3.8802e+02 ;   H11S - C111   - C110  
  7448   7451   7452      1    1.1005e+02    3.8802e+02 ;   C110 - C19    - H9R   
  7448   7451   7453      1    1.1005e+02    3.8802e+02 ;   C110 - C19    - H9S   
  7448   7451   7454      1    1.1205e+02    3.9497e+02 ;   C110 - C19    - C18   
  7449   7448   7450      1    1.0835e+02    3.2995e+02 ;   H10R - C110   - H10S  
  7449   7448   7451      1    1.1005e+02    3.8802e+02 ;   H10R - C110   - C19   
  7450   7448   7451      1    1.1005e+02    3.8802e+02 ;   H10S - C110   - C19   
  7451   7454   7455      1    1.1005e+02    3.8802e+02 ;    C19 - C18    - H8R   
  7451   7454   7456      1    1.1005e+02    3.8802e+02 ;    C19 - C18    - H8S   
  7451   7454   7457      1    1.1205e+02    3.9497e+02 ;    C19 - C18    - C17   
  7452   7451   7453      1    1.0835e+02    3.2995e+02 ;    H9R - C19    - H9S   
  7452   7451   7454      1    1.1005e+02    3.8802e+02 ;    H9R - C19    - C18   
  7453   7451   7454      1    1.1005e+02    3.8802e+02 ;    H9S - C19    - C18   
  7454   7457   7458      1    1.1005e+02    3.8802e+02 ;    C18 - C17    - H7R   
  7454   7457   7459      1    1.1005e+02    3.8802e+02 ;    C18 - C17    - H7S   
  7454   7457   7460      1    1.1205e+02    3.9497e+02 ;    C18 - C17    - C16   
  7455   7454   7456      1    1.0835e+02    3.2995e+02 ;    H8R - C18    - H8S   
  7455   7454   7457      1    1.1005e+02    3.8802e+02 ;    H8R - C18    - C17   
  7456   7454   7457      1    1.1005e+02    3.8802e+02 ;    H8S - C18    - C17   
  7457   7460   7461      1    1.1005e+02    3.8802e+02 ;    C17 - C16    - H6R   
  7457   7460   7462      1    1.1005e+02    3.8802e+02 ;    C17 - C16    - H6S   
  7457   7460   7463      1    1.1205e+02    3.9497e+02 ;    C17 - C16    - C15   
  7458   7457   7459      1    1.0835e+02    3.2995e+02 ;    H7R - C17    - H7S   
  7458   7457   7460      1    1.1005e+02    3.8802e+02 ;    H7R - C17    - C16   
  7459   7457   7460      1    1.1005e+02    3.8802e+02 ;    H7S - C17    - C16   
  7460   7463   7464      1    1.1005e+02    3.8802e+02 ;    C16 - C15    - H5R   
  7460   7463   7465      1    1.1005e+02    3.8802e+02 ;    C16 - C15    - H5S   
  7460   7463   7466      1    1.1205e+02    3.9497e+02 ;    C16 - C15    - C14   
  7461   7460   7462      1    1.0835e+02    3.2995e+02 ;    H6R - C16    - H6S   
  7461   7460   7463      1    1.1005e+02    3.8802e+02 ;    H6R - C16    - C15   
  7462   7460   7463      1    1.1005e+02    3.8802e+02 ;    H6S - C16    - C15   
  7463   7466   7467      1    1.1005e+02    3.8802e+02 ;    C15 - C14    - H4R   
  7463   7466   7468      1    1.1005e+02    3.8802e+02 ;    C15 - C14    - H4S   
  7463   7466   7469      1    1.1205e+02    3.9497e+02 ;    C15 - C14    - C13   
  7464   7463   7465      1    1.0835e+02    3.2995e+02 ;    H5R - C15    - H5S   
  7464   7463   7466      1    1.1005e+02    3.8802e+02 ;    H5R - C15    - C14   
  7465   7463   7466      1    1.1005e+02    3.8802e+02 ;    H5S - C15    - C14   
  7466   7469   7470      1    1.1005e+02    3.8802e+02 ;    C14 - C13    - H3R   
  7466   7469   7471      1    1.1005e+02    3.8802e+02 ;    C14 - C13    - H3S   
  7466   7469   7472      1    1.1205e+02    3.9497e+02 ;    C14 - C13    - C12   
  7467   7466   7468      1    1.0835e+02    3.2995e+02 ;    H4R - C14    - H4S   
  7467   7466   7469      1    1.1005e+02    3.8802e+02 ;    H4R - C14    - C13   
  7468   7466   7469      1    1.1005e+02    3.8802e+02 ;    H4S - C14    - C13   
  7469   7472   7473      1    1.1005e+02    3.8802e+02 ;    C13 - C12    - H2R   
  7469   7472   7474      1    1.1005e+02    3.8802e+02 ;    C13 - C12    - H2S   
  7469   7472   7475      1    1.1053e+02    5.3379e+02 ;    C13 - C12    - C11   
  7470   7469   7471      1    1.0835e+02    3.2995e+02 ;    H3R - C13    - H3S   
  7470   7469   7472      1    1.1005e+02    3.8802e+02 ;    H3R - C13    - C12   
  7471   7469   7472      1    1.1005e+02    3.8802e+02 ;    H3S - C13    - C12   
  7472   7475   7476      1    1.2311e+02    5.6928e+02 ;    C12 - C11    - O12   
  7472   7475   7477      1    1.1196e+02    5.7957e+02 ;    C12 - C11    - O11   
  7473   7472   7474      1    1.0835e+02    3.2995e+02 ;    H2R - C12    - H2S   
  7473   7472   7475      1    1.0968e+02    3.9497e+02 ;    H2R - C12    - C11   
  7474   7472   7475      1    1.0968e+02    3.9497e+02 ;    H2S - C12    - C11   
  7475   7477   7478      1    1.1514e+02    5.3246e+02 ;    C11 - O11    - C1    
  7476   7475   7477      1    1.2333e+02    6.3538e+02 ;    O12 - C11    - O11   
  7477   7478   7479      1    1.0882e+02    4.2543e+02 ;    O11 - C1     - HR    
  7477   7478   7480      1    1.0882e+02    4.2543e+02 ;    O11 - C1     - HS    
  7477   7478   7481      1    1.0842e+02    5.6718e+02 ;    O11 - C1     - C2    
  7478   7481   7482      1    1.1007e+02    3.8794e+02 ;     C1 - C2     - HX    
  7478   7481   7483      1    1.1063e+02    5.2894e+02 ;     C1 - C2     - C3    
  7478   7481   7510      1    1.0842e+02    5.6718e+02 ;     C1 - C2     - O21   
  7479   7478   7480      1    1.0955e+02    3.2786e+02 ;     HR - C1     - HS    
  7479   7478   7481      1    1.1007e+02    3.8794e+02 ;     HR - C1     - C2    
  7480   7478   7481      1    1.1007e+02    3.8794e+02 ;     HS - C1     - C2    
  7481   7483   7484      1    1.1007e+02    3.8794e+02 ;     C2 - C3     - HA    
  7481   7483   7485      1    1.1007e+02    3.8794e+02 ;     C2 - C3     - HB    
  7481   7483   7486      1    1.0842e+02    5.6718e+02 ;     C2 - C3     - O31   
  7481   7510   7511      1    1.1514e+02    5.3246e+02 ;     C2 - O21    - C21   
  7482   7481   7483      1    1.1007e+02    3.8794e+02 ;     HX - C2     - C3    
  7482   7481   7510      1    1.0882e+02    4.2543e+02 ;     HX - C2     - O21   
  7483   7481   7510      1    1.0842e+02    5.6718e+02 ;     C3 - C2     - O21   
  7483   7486   7487      1    1.2050e+02    8.3680e+02 ;     C3 - O31    - P31   
  7484   7483   7485      1    1.0955e+02    3.2786e+02 ;     HA - C3     - HB    
  7484   7483   7486      1    1.0882e+02    4.2543e+02 ;     HA - C3     - O31   
  7485   7483   7486      1    1.0882e+02    4.2543e+02 ;     HB - C3     - O31   
  7486   7487   7488      1    1.0260e+02    7.5312e+02 ;    O31 - P31    - O32   
  7486   7487   7508      1    1.0823e+02    8.3680e+02 ;    O31 - P31    - O33   
  7486   7487   7509      1    1.0823e+02    8.3680e+02 ;    O31 - P31    - O34   
  7487   7488   7489      1    1.2050e+02    8.3680e+02 ;    P31 - O32    - C31   
  7488   7487   7508      1    1.0823e+02    8.3680e+02 ;    O32 - P31    - O33   
  7488   7487   7509      1    1.0823e+02    8.3680e+02 ;    O32 - P31    - O34   
  7488   7489   7490      1    1.0882e+02    4.2543e+02 ;    O32 - C31    - H1A   
  7488   7489   7491      1    1.0882e+02    4.2543e+02 ;    O32 - C31    - H1B   
  7488   7489   7492      1    1.0842e+02    5.6718e+02 ;    O32 - C31    - C32   
  7489   7492   7493      1    1.1174e+02    3.8510e+02 ;    C31 - C32    - H2A   
  7489   7492   7494      1    1.1174e+02    3.8510e+02 ;    C31 - C32    - H2B   
  7489   7492   7495      1    1.1432e+02    5.3932e+02 ;    C31 - C32    - N31   
  7490   7489   7491      1    1.0955e+02    3.2786e+02 ;    H1A - C31    - H1B   
  7490   7489   7492      1    1.1007e+02    3.8794e+02 ;    H1A - C31    - C32   
  7491   7489   7492      1    1.1007e+02    3.8794e+02 ;    H1B - C31    - C32   
  7492   7495   7496      1    1.1064e+02    5.2585e+02 ;    C32 - N31    - C33   
  7492   7495   7500      1    1.1064e+02    5.2585e+02 ;    C32 - N31    - C34   
  7492   7495   7504      1    1.1064e+02    5.2585e+02 ;    C32 - N31    - C35   
  7493   7492   7494      1    1.1074e+02    3.2669e+02 ;    H2A - C32    - H2B   
  7493   7492   7495      1    1.0791e+02    4.1020e+02 ;    H2A - C32    - N31   
  7494   7492   7495      1    1.0791e+02    4.1020e+02 ;    H2B - C32    - N31   
  7495   7496   7497      1    1.0791e+02    4.1020e+02 ;    N31 - C33    - H3A   
  7495   7496   7498      1    1.0791e+02    4.1020e+02 ;    N31 - C33    - H3B   
  7495   7496   7499      1    1.0791e+02    4.1020e+02 ;    N31 - C33    - H3C   
  7495   7500   7501      1    1.0791e+02    4.1020e+02 ;    N31 - C34    - H4A   
  7495   7500   7502      1    1.0791e+02    4.1020e+02 ;    N31 - C34    - H4B   
  7495   7500   7503      1    1.0791e+02    4.1020e+02 ;    N31 - C34    - H4C   
  7495   7504   7505      1    1.0791e+02    4.1020e+02 ;    N31 - C35    - H5A   
  7495   7504   7506      1    1.0791e+02    4.1020e+02 ;    N31 - C35    - H5B   
  7495   7504   7507      1    1.0791e+02    4.1020e+02 ;    N31 - C35    - H5C   
  7496   7495   7500      1    1.1064e+02    5.2585e+02 ;    C33 - N31    - C34   
  7496   7495   7504      1    1.1064e+02    5.2585e+02 ;    C33 - N31    - C35   
  7497   7496   7498      1    1.1074e+02    3.2669e+02 ;    H3A - C33    - H3B   
  7497   7496   7499      1    1.1074e+02    3.2669e+02 ;    H3A - C33    - H3C   
  7498   7496   7499      1    1.1074e+02    3.2669e+02 ;    H3B - C33    - H3C   
  7500   7495   7504      1    1.1064e+02    5.2585e+02 ;    C34 - N31    - C35   
  7501   7500   7502      1    1.1074e+02    3.2669e+02 ;    H4A - C34    - H4B   
  7501   7500   7503      1    1.1074e+02    3.2669e+02 ;    H4A - C34    - H4C   
  7502   7500   7503      1    1.1074e+02    3.2669e+02 ;    H4B - C34    - H4C   
  7505   7504   7506      1    1.1074e+02    3.2669e+02 ;    H5A - C35    - H5B   
  7505   7504   7507      1    1.1074e+02    3.2669e+02 ;    H5A - C35    - H5C   
  7506   7504   7507      1    1.1074e+02    3.2669e+02 ;    H5B - C35    - H5C   
  7508   7487   7509      1    1.1990e+02    1.1715e+03 ;    O33 - P31    - O34   
  7510   7511   7512      1    1.2333e+02    6.3538e+02 ;    O21 - C21    - O22   
  7510   7511   7550      1    1.1196e+02    5.7957e+02 ;    O21 - C21    - C12   
  7511   7550   7547      1    1.1053e+02    5.3379e+02 ;    C21 - C12    - C13   
  7511   7550   7551      1    1.0968e+02    3.9497e+02 ;    C21 - C12    - H2R   
  7511   7550   7552      1    1.0968e+02    3.9497e+02 ;    C21 - C12    - H2S   
  7512   7511   7550      1    1.2311e+02    5.6928e+02 ;    O22 - C21    - C12   
  7513   7514   7515      1    1.0835e+02    3.2995e+02 ;   H14T - C114   - H14R  
  7513   7514   7516      1    1.0835e+02    3.2995e+02 ;   H14T - C114   - H14S  
  7513   7514   7517      1    1.1005e+02    3.8802e+02 ;   H14T - C114   - C113  
  7514   7517   7518      1    1.1005e+02    3.8802e+02 ;   C114 - C113   - H13R  
  7514   7517   7519      1    1.1005e+02    3.8802e+02 ;   C114 - C113   - H13S  
  7514   7517   7520      1    1.1205e+02    3.9497e+02 ;   C114 - C113   - C112  
  7515   7514   7516      1    1.0835e+02    3.2995e+02 ;   H14R - C114   - H14S  
  7515   7514   7517      1    1.1005e+02    3.8802e+02 ;   H14R - C114   - C113  
  7516   7514   7517      1    1.1005e+02    3.8802e+02 ;   H14S - C114   - C113  
  7517   7520   7521      1    1.1005e+02    3.8802e+02 ;   C113 - C112   - H12R  
  7517   7520   7522      1    1.1005e+02    3.8802e+02 ;   C113 - C112   - H12S  
  7517   7520   7523      1    1.1205e+02    3.9497e+02 ;   C113 - C112   - C111  
  7518   7517   7519      1    1.0835e+02    3.2995e+02 ;   H13R - C113   - H13S  
  7518   7517   7520      1    1.1005e+02    3.8802e+02 ;   H13R - C113   - C112  
  7519   7517   7520      1    1.1005e+02    3.8802e+02 ;   H13S - C113   - C112  
  7520   7523   7524      1    1.1005e+02    3.8802e+02 ;   C112 - C111   - H11R  
  7520   7523   7525      1    1.1005e+02    3.8802e+02 ;   C112 - C111   - H11S  
  7520   7523   7526      1    1.1205e+02    3.9497e+02 ;   C112 - C111   - C110  
  7521   7520   7522      1    1.0835e+02    3.2995e+02 ;   H12R - C112   - H12S  
  7521   7520   7523      1    1.1005e+02    3.8802e+02 ;   H12R - C112   - C111  
  7522   7520   7523      1    1.1005e+02    3.8802e+02 ;   H12S - C112   - C111  
  7523   7526   7527      1    1.1005e+02    3.8802e+02 ;   C111 - C110   - H10R  
  7523   7526   7528      1    1.1005e+02    3.8802e+02 ;   C111 - C110   - H10S  
  7523   7526   7529      1    1.1205e+02    3.9497e+02 ;   C111 - C110   - C19   
  7524   7523   7525      1    1.0835e+02    3.2995e+02 ;   H11R - C111   - H11S  
  7524   7523   7526      1    1.1005e+02    3.8802e+02 ;   H11R - C111   - C110  
  7525   7523   7526      1    1.1005e+02    3.8802e+02 ;   H11S - C111   - C110  
  7526   7529   7530      1    1.1005e+02    3.8802e+02 ;   C110 - C19    - H9R   
  7526   7529   7531      1    1.1005e+02    3.8802e+02 ;   C110 - C19    - H9S   
  7526   7529   7532      1    1.1205e+02    3.9497e+02 ;   C110 - C19    - C18   
  7527   7526   7528      1    1.0835e+02    3.2995e+02 ;   H10R - C110   - H10S  
  7527   7526   7529      1    1.1005e+02    3.8802e+02 ;   H10R - C110   - C19   
  7528   7526   7529      1    1.1005e+02    3.8802e+02 ;   H10S - C110   - C19   
  7529   7532   7533      1    1.1005e+02    3.8802e+02 ;    C19 - C18    - H8R   
  7529   7532   7534      1    1.1005e+02    3.8802e+02 ;    C19 - C18    - H8S   
  7529   7532   7535      1    1.1205e+02    3.9497e+02 ;    C19 - C18    - C17   
  7530   7529   7531      1    1.0835e+02    3.2995e+02 ;    H9R - C19    - H9S   
  7530   7529   7532      1    1.1005e+02    3.8802e+02 ;    H9R - C19    - C18   
  7531   7529   7532      1    1.1005e+02    3.8802e+02 ;    H9S - C19    - C18   
  7532   7535   7536      1    1.1005e+02    3.8802e+02 ;    C18 - C17    - H7R   
  7532   7535   7537      1    1.1005e+02    3.8802e+02 ;    C18 - C17    - H7S   
  7532   7535   7538      1    1.1205e+02    3.9497e+02 ;    C18 - C17    - C16   
  7533   7532   7534      1    1.0835e+02    3.2995e+02 ;    H8R - C18    - H8S   
  7533   7532   7535      1    1.1005e+02    3.8802e+02 ;    H8R - C18    - C17   
  7534   7532   7535      1    1.1005e+02    3.8802e+02 ;    H8S - C18    - C17   
  7535   7538   7539      1    1.1005e+02    3.8802e+02 ;    C17 - C16    - H6R   
  7535   7538   7540      1    1.1005e+02    3.8802e+02 ;    C17 - C16    - H6S   
  7535   7538   7541      1    1.1205e+02    3.9497e+02 ;    C17 - C16    - C15   
  7536   7535   7537      1    1.0835e+02    3.2995e+02 ;    H7R - C17    - H7S   
  7536   7535   7538      1    1.1005e+02    3.8802e+02 ;    H7R - C17    - C16   
  7537   7535   7538      1    1.1005e+02    3.8802e+02 ;    H7S - C17    - C16   
  7538   7541   7542      1    1.1005e+02    3.8802e+02 ;    C16 - C15    - H5R   
  7538   7541   7543      1    1.1005e+02    3.8802e+02 ;    C16 - C15    - H5S   
  7538   7541   7544      1    1.1205e+02    3.9497e+02 ;    C16 - C15    - C14   
  7539   7538   7540      1    1.0835e+02    3.2995e+02 ;    H6R - C16    - H6S   
  7539   7538   7541      1    1.1005e+02    3.8802e+02 ;    H6R - C16    - C15   
  7540   7538   7541      1    1.1005e+02    3.8802e+02 ;    H6S - C16    - C15   
  7541   7544   7545      1    1.1005e+02    3.8802e+02 ;    C15 - C14    - H4R   
  7541   7544   7546      1    1.1005e+02    3.8802e+02 ;    C15 - C14    - H4S   
  7541   7544   7547      1    1.1205e+02    3.9497e+02 ;    C15 - C14    - C13   
  7542   7541   7543      1    1.0835e+02    3.2995e+02 ;    H5R - C15    - H5S   
  7542   7541   7544      1    1.1005e+02    3.8802e+02 ;    H5R - C15    - C14   
  7543   7541   7544      1    1.1005e+02    3.8802e+02 ;    H5S - C15    - C14   
  7544   7547   7548      1    1.1005e+02    3.8802e+02 ;    C14 - C13    - H3R   
  7544   7547   7549      1    1.1005e+02    3.8802e+02 ;    C14 - C13    - H3S   
  7544   7547   7550      1    1.1205e+02    3.9497e+02 ;    C14 - C13    - C12   
  7545   7544   7546      1    1.0835e+02    3.2995e+02 ;    H4R - C14    - H4S   
  7545   7544   7547      1    1.1005e+02    3.8802e+02 ;    H4R - C14    - C13   
  7546   7544   7547      1    1.1005e+02    3.8802e+02 ;    H4S - C14    - C13   
  7547   7550   7551      1    1.1005e+02    3.8802e+02 ;    C13 - C12    - H2R   
  7547   7550   7552      1    1.1005e+02    3.8802e+02 ;    C13 - C12    - H2S   
  7548   7547   7549      1    1.0835e+02    3.2995e+02 ;    H3R - C13    - H3S   
  7548   7547   7550      1    1.1005e+02    3.8802e+02 ;    H3R - C13    - C12   
  7549   7547   7550      1    1.1005e+02    3.8802e+02 ;    H3S - C13    - C12   
  7551   7550   7552      1    1.0835e+02    3.2995e+02 ;    H2R - C12    - H2S   
  7553   7554   7555      1    1.0835e+02    3.2995e+02 ;   H14T - C114   - H14R  
  7553   7554   7556      1    1.0835e+02    3.2995e+02 ;   H14T - C114   - H14S  
  7553   7554   7557      1    1.1005e+02    3.8802e+02 ;   H14T - C114   - C113  
  7554   7557   7558      1    1.1005e+02    3.8802e+02 ;   C114 - C113   - H13R  
  7554   7557   7559      1    1.1005e+02    3.8802e+02 ;   C114 - C113   - H13S  
  7554   7557   7560      1    1.1205e+02    3.9497e+02 ;   C114 - C113   - C112  
  7555   7554   7556      1    1.0835e+02    3.2995e+02 ;   H14R - C114   - H14S  
  7555   7554   7557      1    1.1005e+02    3.8802e+02 ;   H14R - C114   - C113  
  7556   7554   7557      1    1.1005e+02    3.8802e+02 ;   H14S - C114   - C113  
  7557   7560   7561      1    1.1005e+02    3.8802e+02 ;   C113 - C112   - H12R  
  7557   7560   7562      1    1.1005e+02    3.8802e+02 ;   C113 - C112   - H12S  
  7557   7560   7563      1    1.1205e+02    3.9497e+02 ;   C113 - C112   - C111  
  7558   7557   7559      1    1.0835e+02    3.2995e+02 ;   H13R - C113   - H13S  
  7558   7557   7560      1    1.1005e+02    3.8802e+02 ;   H13R - C113   - C112  
  7559   7557   7560      1    1.1005e+02    3.8802e+02 ;   H13S - C113   - C112  
  7560   7563   7564      1    1.1005e+02    3.8802e+02 ;   C112 - C111   - H11R  
  7560   7563   7565      1    1.1005e+02    3.8802e+02 ;   C112 - C111   - H11S  
  7560   7563   7566      1    1.1205e+02    3.9497e+02 ;   C112 - C111   - C110  
  7561   7560   7562      1    1.0835e+02    3.2995e+02 ;   H12R - C112   - H12S  
  7561   7560   7563      1    1.1005e+02    3.8802e+02 ;   H12R - C112   - C111  
  7562   7560   7563      1    1.1005e+02    3.8802e+02 ;   H12S - C112   - C111  
  7563   7566   7567      1    1.1005e+02    3.8802e+02 ;   C111 - C110   - H10R  
  7563   7566   7568      1    1.1005e+02    3.8802e+02 ;   C111 - C110   - H10S  
  7563   7566   7569      1    1.1205e+02    3.9497e+02 ;   C111 - C110   - C19   
  7564   7563   7565      1    1.0835e+02    3.2995e+02 ;   H11R - C111   - H11S  
  7564   7563   7566      1    1.1005e+02    3.8802e+02 ;   H11R - C111   - C110  
  7565   7563   7566      1    1.1005e+02    3.8802e+02 ;   H11S - C111   - C110  
  7566   7569   7570      1    1.1005e+02    3.8802e+02 ;   C110 - C19    - H9R   
  7566   7569   7571      1    1.1005e+02    3.8802e+02 ;   C110 - C19    - H9S   
  7566   7569   7572      1    1.1205e+02    3.9497e+02 ;   C110 - C19    - C18   
  7567   7566   7568      1    1.0835e+02    3.2995e+02 ;   H10R - C110   - H10S  
  7567   7566   7569      1    1.1005e+02    3.8802e+02 ;   H10R - C110   - C19   
  7568   7566   7569      1    1.1005e+02    3.8802e+02 ;   H10S - C110   - C19   
  7569   7572   7573      1    1.1005e+02    3.8802e+02 ;    C19 - C18    - H8R   
  7569   7572   7574      1    1.1005e+02    3.8802e+02 ;    C19 - C18    - H8S   
  7569   7572   7575      1    1.1205e+02    3.9497e+02 ;    C19 - C18    - C17   
  7570   7569   7571      1    1.0835e+02    3.2995e+02 ;    H9R - C19    - H9S   
  7570   7569   7572      1    1.1005e+02    3.8802e+02 ;    H9R - C19    - C18   
  7571   7569   7572      1    1.1005e+02    3.8802e+02 ;    H9S - C19    - C18   
  7572   7575   7576      1    1.1005e+02    3.8802e+02 ;    C18 - C17    - H7R   
  7572   7575   7577      1    1.1005e+02    3.8802e+02 ;    C18 - C17    - H7S   
  7572   7575   7578      1    1.1205e+02    3.9497e+02 ;    C18 - C17    - C16   
  7573   7572   7574      1    1.0835e+02    3.2995e+02 ;    H8R - C18    - H8S   
  7573   7572   7575      1    1.1005e+02    3.8802e+02 ;    H8R - C18    - C17   
  7574   7572   7575      1    1.1005e+02    3.8802e+02 ;    H8S - C18    - C17   
  7575   7578   7579      1    1.1005e+02    3.8802e+02 ;    C17 - C16    - H6R   
  7575   7578   7580      1    1.1005e+02    3.8802e+02 ;    C17 - C16    - H6S   
  7575   7578   7581      1    1.1205e+02    3.9497e+02 ;    C17 - C16    - C15   
  7576   7575   7577      1    1.0835e+02    3.2995e+02 ;    H7R - C17    - H7S   
  7576   7575   7578      1    1.1005e+02    3.8802e+02 ;    H7R - C17    - C16   
  7577   7575   7578      1    1.1005e+02    3.8802e+02 ;    H7S - C17    - C16   
  7578   7581   7582      1    1.1005e+02    3.8802e+02 ;    C16 - C15    - H5R   
  7578   7581   7583      1    1.1005e+02    3.8802e+02 ;    C16 - C15    - H5S   
  7578   7581   7584      1    1.1205e+02    3.9497e+02 ;    C16 - C15    - C14   
  7579   7578   7580      1    1.0835e+02    3.2995e+02 ;    H6R - C16    - H6S   
  7579   7578   7581      1    1.1005e+02    3.8802e+02 ;    H6R - C16    - C15   
  7580   7578   7581      1    1.1005e+02    3.8802e+02 ;    H6S - C16    - C15   
  7581   7584   7585      1    1.1005e+02    3.8802e+02 ;    C15 - C14    - H4R   
  7581   7584   7586      1    1.1005e+02    3.8802e+02 ;    C15 - C14    - H4S   
  7581   7584   7587      1    1.1205e+02    3.9497e+02 ;    C15 - C14    - C13   
  7582   7581   7583      1    1.0835e+02    3.2995e+02 ;    H5R - C15    - H5S   
  7582   7581   7584      1    1.1005e+02    3.8802e+02 ;    H5R - C15    - C14   
  7583   7581   7584      1    1.1005e+02    3.8802e+02 ;    H5S - C15    - C14   
  7584   7587   7588      1    1.1005e+02    3.8802e+02 ;    C14 - C13    - H3R   
  7584   7587   7589      1    1.1005e+02    3.8802e+02 ;    C14 - C13    - H3S   
  7584   7587   7590      1    1.1205e+02    3.9497e+02 ;    C14 - C13    - C12   
  7585   7584   7586      1    1.0835e+02    3.2995e+02 ;    H4R - C14    - H4S   
  7585   7584   7587      1    1.1005e+02    3.8802e+02 ;    H4R - C14    - C13   
  7586   7584   7587      1    1.1005e+02    3.8802e+02 ;    H4S - C14    - C13   
  7587   7590   7591      1    1.1005e+02    3.8802e+02 ;    C13 - C12    - H2R   
  7587   7590   7592      1    1.1005e+02    3.8802e+02 ;    C13 - C12    - H2S   
  7587   7590   7593      1    1.1053e+02    5.3379e+02 ;    C13 - C12    - C11   
  7588   7587   7589      1    1.0835e+02    3.2995e+02 ;    H3R - C13    - H3S   
  7588   7587   7590      1    1.1005e+02    3.8802e+02 ;    H3R - C13    - C12   
  7589   7587   7590      1    1.1005e+02    3.8802e+02 ;    H3S - C13    - C12   
  7590   7593   7594      1    1.2311e+02    5.6928e+02 ;    C12 - C11    - O12   
  7590   7593   7595      1    1.1196e+02    5.7957e+02 ;    C12 - C11    - O11   
  7591   7590   7592      1    1.0835e+02    3.2995e+02 ;    H2R - C12    - H2S   
  7591   7590   7593      1    1.0968e+02    3.9497e+02 ;    H2R - C12    - C11   
  7592   7590   7593      1    1.0968e+02    3.9497e+02 ;    H2S - C12    - C11   
  7593   7595   7596      1    1.1514e+02    5.3246e+02 ;    C11 - O11    - C1    
  7594   7593   7595      1    1.2333e+02    6.3538e+02 ;    O12 - C11    - O11   
  7595   7596   7597      1    1.0882e+02    4.2543e+02 ;    O11 - C1     - HR    
  7595   7596   7598      1    1.0882e+02    4.2543e+02 ;    O11 - C1     - HS    
  7595   7596   7599      1    1.0842e+02    5.6718e+02 ;    O11 - C1     - C2    
  7596   7599   7600      1    1.1007e+02    3.8794e+02 ;     C1 - C2     - HX    
  7596   7599   7601      1    1.1063e+02    5.2894e+02 ;     C1 - C2     - C3    
  7596   7599   7628      1    1.0842e+02    5.6718e+02 ;     C1 - C2     - O21   
  7597   7596   7598      1    1.0955e+02    3.2786e+02 ;     HR - C1     - HS    
  7597   7596   7599      1    1.1007e+02    3.8794e+02 ;     HR - C1     - C2    
  7598   7596   7599      1    1.1007e+02    3.8794e+02 ;     HS - C1     - C2    
  7599   7601   7602      1    1.1007e+02    3.8794e+02 ;     C2 - C3     - HA    
  7599   7601   7603      1    1.1007e+02    3.8794e+02 ;     C2 - C3     - HB    
  7599   7601   7604      1    1.0842e+02    5.6718e+02 ;     C2 - C3     - O31   
  7599   7628   7629      1    1.1514e+02    5.3246e+02 ;     C2 - O21    - C21   
  7600   7599   7601      1    1.1007e+02    3.8794e+02 ;     HX - C2     - C3    
  7600   7599   7628      1    1.0882e+02    4.2543e+02 ;     HX - C2     - O21   
  7601   7599   7628      1    1.0842e+02    5.6718e+02 ;     C3 - C2     - O21   
  7601   7604   7605      1    1.2050e+02    8.3680e+02 ;     C3 - O31    - P31   
  7602   7601   7603      1    1.0955e+02    3.2786e+02 ;     HA - C3     - HB    
  7602   7601   7604      1    1.0882e+02    4.2543e+02 ;     HA - C3     - O31   
  7603   7601   7604      1    1.0882e+02    4.2543e+02 ;     HB - C3     - O31   
  7604   7605   7606      1    1.0260e+02    7.5312e+02 ;    O31 - P31    - O32   
  7604   7605   7626      1    1.0823e+02    8.3680e+02 ;    O31 - P31    - O33   
  7604   7605   7627      1    1.0823e+02    8.3680e+02 ;    O31 - P31    - O34   
  7605   7606   7607      1    1.2050e+02    8.3680e+02 ;    P31 - O32    - C31   
  7606   7605   7626      1    1.0823e+02    8.3680e+02 ;    O32 - P31    - O33   
  7606   7605   7627      1    1.0823e+02    8.3680e+02 ;    O32 - P31    - O34   
  7606   7607   7608      1    1.0882e+02    4.2543e+02 ;    O32 - C31    - H1A   
  7606   7607   7609      1    1.0882e+02    4.2543e+02 ;    O32 - C31    - H1B   
  7606   7607   7610      1    1.0842e+02    5.6718e+02 ;    O32 - C31    - C32   
  7607   7610   7611      1    1.1174e+02    3.8510e+02 ;    C31 - C32    - H2A   
  7607   7610   7612      1    1.1174e+02    3.8510e+02 ;    C31 - C32    - H2B   
  7607   7610   7613      1    1.1432e+02    5.3932e+02 ;    C31 - C32    - N31   
  7608   7607   7609      1    1.0955e+02    3.2786e+02 ;    H1A - C31    - H1B   
  7608   7607   7610      1    1.1007e+02    3.8794e+02 ;    H1A - C31    - C32   
  7609   7607   7610      1    1.1007e+02    3.8794e+02 ;    H1B - C31    - C32   
  7610   7613   7614      1    1.1064e+02    5.2585e+02 ;    C32 - N31    - C33   
  7610   7613   7618      1    1.1064e+02    5.2585e+02 ;    C32 - N31    - C34   
  7610   7613   7622      1    1.1064e+02    5.2585e+02 ;    C32 - N31    - C35   
  7611   7610   7612      1    1.1074e+02    3.2669e+02 ;    H2A - C32    - H2B   
  7611   7610   7613      1    1.0791e+02    4.1020e+02 ;    H2A - C32    - N31   
  7612   7610   7613      1    1.0791e+02    4.1020e+02 ;    H2B - C32    - N31   
  7613   7614   7615      1    1.0791e+02    4.1020e+02 ;    N31 - C33    - H3A   
  7613   7614   7616      1    1.0791e+02    4.1020e+02 ;    N31 - C33    - H3B   
  7613   7614   7617      1    1.0791e+02    4.1020e+02 ;    N31 - C33    - H3C   
  7613   7618   7619      1    1.0791e+02    4.1020e+02 ;    N31 - C34    - H4A   
  7613   7618   7620      1    1.0791e+02    4.1020e+02 ;    N31 - C34    - H4B   
  7613   7618   7621      1    1.0791e+02    4.1020e+02 ;    N31 - C34    - H4C   
  7613   7622   7623      1    1.0791e+02    4.1020e+02 ;    N31 - C35    - H5A   
  7613   7622   7624      1    1.0791e+02    4.1020e+02 ;    N31 - C35    - H5B   
  7613   7622   7625      1    1.0791e+02    4.1020e+02 ;    N31 - C35    - H5C   
  7614   7613   7618      1    1.1064e+02    5.2585e+02 ;    C33 - N31    - C34   
  7614   7613   7622      1    1.1064e+02    5.2585e+02 ;    C33 - N31    - C35   
  7615   7614   7616      1    1.1074e+02    3.2669e+02 ;    H3A - C33    - H3B   
  7615   7614   7617      1    1.1074e+02    3.2669e+02 ;    H3A - C33    - H3C   
  7616   7614   7617      1    1.1074e+02    3.2669e+02 ;    H3B - C33    - H3C   
  7618   7613   7622      1    1.1064e+02    5.2585e+02 ;    C34 - N31    - C35   
  7619   7618   7620      1    1.1074e+02    3.2669e+02 ;    H4A - C34    - H4B   
  7619   7618   7621      1    1.1074e+02    3.2669e+02 ;    H4A - C34    - H4C   
  7620   7618   7621      1    1.1074e+02    3.2669e+02 ;    H4B - C34    - H4C   
  7623   7622   7624      1    1.1074e+02    3.2669e+02 ;    H5A - C35    - H5B   
  7623   7622   7625      1    1.1074e+02    3.2669e+02 ;    H5A - C35    - H5C   
  7624   7622   7625      1    1.1074e+02    3.2669e+02 ;    H5B - C35    - H5C   
  7626   7605   7627      1    1.1990e+02    1.1715e+03 ;    O33 - P31    - O34   
  7628   7629   7630      1    1.2333e+02    6.3538e+02 ;    O21 - C21    - O22   
  7628   7629   7668      1    1.1196e+02    5.7957e+02 ;    O21 - C21    - C12   
  7629   7668   7665      1    1.1053e+02    5.3379e+02 ;    C21 - C12    - C13   
  7629   7668   7669      1    1.0968e+02    3.9497e+02 ;    C21 - C12    - H2R   
  7629   7668   7670      1    1.0968e+02    3.9497e+02 ;    C21 - C12    - H2S   
  7630   7629   7668      1    1.2311e+02    5.6928e+02 ;    O22 - C21    - C12   
  7631   7632   7633      1    1.0835e+02    3.2995e+02 ;   H14T - C114   - H14R  
  7631   7632   7634      1    1.0835e+02    3.2995e+02 ;   H14T - C114   - H14S  
  7631   7632   7635      1    1.1005e+02    3.8802e+02 ;   H14T - C114   - C113  
  7632   7635   7636      1    1.1005e+02    3.8802e+02 ;   C114 - C113   - H13R  
  7632   7635   7637      1    1.1005e+02    3.8802e+02 ;   C114 - C113   - H13S  
  7632   7635   7638      1    1.1205e+02    3.9497e+02 ;   C114 - C113   - C112  
  7633   7632   7634      1    1.0835e+02    3.2995e+02 ;   H14R - C114   - H14S  
  7633   7632   7635      1    1.1005e+02    3.8802e+02 ;   H14R - C114   - C113  
  7634   7632   7635      1    1.1005e+02    3.8802e+02 ;   H14S - C114   - C113  
  7635   7638   7639      1    1.1005e+02    3.8802e+02 ;   C113 - C112   - H12R  
  7635   7638   7640      1    1.1005e+02    3.8802e+02 ;   C113 - C112   - H12S  
  7635   7638   7641      1    1.1205e+02    3.9497e+02 ;   C113 - C112   - C111  
  7636   7635   7637      1    1.0835e+02    3.2995e+02 ;   H13R - C113   - H13S  
  7636   7635   7638      1    1.1005e+02    3.8802e+02 ;   H13R - C113   - C112  
  7637   7635   7638      1    1.1005e+02    3.8802e+02 ;   H13S - C113   - C112  
  7638   7641   7642      1    1.1005e+02    3.8802e+02 ;   C112 - C111   - H11R  
  7638   7641   7643      1    1.1005e+02    3.8802e+02 ;   C112 - C111   - H11S  
  7638   7641   7644      1    1.1205e+02    3.9497e+02 ;   C112 - C111   - C110  
  7639   7638   7640      1    1.0835e+02    3.2995e+02 ;   H12R - C112   - H12S  
  7639   7638   7641      1    1.1005e+02    3.8802e+02 ;   H12R - C112   - C111  
  7640   7638   7641      1    1.1005e+02    3.8802e+02 ;   H12S - C112   - C111  
  7641   7644   7645      1    1.1005e+02    3.8802e+02 ;   C111 - C110   - H10R  
  7641   7644   7646      1    1.1005e+02    3.8802e+02 ;   C111 - C110   - H10S  
  7641   7644   7647      1    1.1205e+02    3.9497e+02 ;   C111 - C110   - C19   
  7642   7641   7643      1    1.0835e+02    3.2995e+02 ;   H11R - C111   - H11S  
  7642   7641   7644      1    1.1005e+02    3.8802e+02 ;   H11R - C111   - C110  
  7643   7641   7644      1    1.1005e+02    3.8802e+02 ;   H11S - C111   - C110  
  7644   7647   7648      1    1.1005e+02    3.8802e+02 ;   C110 - C19    - H9R   
  7644   7647   7649      1    1.1005e+02    3.8802e+02 ;   C110 - C19    - H9S   
  7644   7647   7650      1    1.1205e+02    3.9497e+02 ;   C110 - C19    - C18   
  7645   7644   7646      1    1.0835e+02    3.2995e+02 ;   H10R - C110   - H10S  
  7645   7644   7647      1    1.1005e+02    3.8802e+02 ;   H10R - C110   - C19   
  7646   7644   7647      1    1.1005e+02    3.8802e+02 ;   H10S - C110   - C19   
  7647   7650   7651      1    1.1005e+02    3.8802e+02 ;    C19 - C18    - H8R   
  7647   7650   7652      1    1.1005e+02    3.8802e+02 ;    C19 - C18    - H8S   
  7647   7650   7653      1    1.1205e+02    3.9497e+02 ;    C19 - C18    - C17   
  7648   7647   7649      1    1.0835e+02    3.2995e+02 ;    H9R - C19    - H9S   
  7648   7647   7650      1    1.1005e+02    3.8802e+02 ;    H9R - C19    - C18   
  7649   7647   7650      1    1.1005e+02    3.8802e+02 ;    H9S - C19    - C18   
  7650   7653   7654      1    1.1005e+02    3.8802e+02 ;    C18 - C17    - H7R   
  7650   7653   7655      1    1.1005e+02    3.8802e+02 ;    C18 - C17    - H7S   
  7650   7653   7656      1    1.1205e+02    3.9497e+02 ;    C18 - C17    - C16   
  7651   7650   7652      1    1.0835e+02    3.2995e+02 ;    H8R - C18    - H8S   
  7651   7650   7653      1    1.1005e+02    3.8802e+02 ;    H8R - C18    - C17   
  7652   7650   7653      1    1.1005e+02    3.8802e+02 ;    H8S - C18    - C17   
  7653   7656   7657      1    1.1005e+02    3.8802e+02 ;    C17 - C16    - H6R   
  7653   7656   7658      1    1.1005e+02    3.8802e+02 ;    C17 - C16    - H6S   
  7653   7656   7659      1    1.1205e+02    3.9497e+02 ;    C17 - C16    - C15   
  7654   7653   7655      1    1.0835e+02    3.2995e+02 ;    H7R - C17    - H7S   
  7654   7653   7656      1    1.1005e+02    3.8802e+02 ;    H7R - C17    - C16   
  7655   7653   7656      1    1.1005e+02    3.8802e+02 ;    H7S - C17    - C16   
  7656   7659   7660      1    1.1005e+02    3.8802e+02 ;    C16 - C15    - H5R   
  7656   7659   7661      1    1.1005e+02    3.8802e+02 ;    C16 - C15    - H5S   
  7656   7659   7662      1    1.1205e+02    3.9497e+02 ;    C16 - C15    - C14   
  7657   7656   7658      1    1.0835e+02    3.2995e+02 ;    H6R - C16    - H6S   
  7657   7656   7659      1    1.1005e+02    3.8802e+02 ;    H6R - C16    - C15   
  7658   7656   7659      1    1.1005e+02    3.8802e+02 ;    H6S - C16    - C15   
  7659   7662   7663      1    1.1005e+02    3.8802e+02 ;    C15 - C14    - H4R   
  7659   7662   7664      1    1.1005e+02    3.8802e+02 ;    C15 - C14    - H4S   
  7659   7662   7665      1    1.1205e+02    3.9497e+02 ;    C15 - C14    - C13   
  7660   7659   7661      1    1.0835e+02    3.2995e+02 ;    H5R - C15    - H5S   
  7660   7659   7662      1    1.1005e+02    3.8802e+02 ;    H5R - C15    - C14   
  7661   7659   7662      1    1.1005e+02    3.8802e+02 ;    H5S - C15    - C14   
  7662   7665   7666      1    1.1005e+02    3.8802e+02 ;    C14 - C13    - H3R   
  7662   7665   7667      1    1.1005e+02    3.8802e+02 ;    C14 - C13    - H3S   
  7662   7665   7668      1    1.1205e+02    3.9497e+02 ;    C14 - C13    - C12   
  7663   7662   7664      1    1.0835e+02    3.2995e+02 ;    H4R - C14    - H4S   
  7663   7662   7665      1    1.1005e+02    3.8802e+02 ;    H4R - C14    - C13   
  7664   7662   7665      1    1.1005e+02    3.8802e+02 ;    H4S - C14    - C13   
  7665   7668   7669      1    1.1005e+02    3.8802e+02 ;    C13 - C12    - H2R   
  7665   7668   7670      1    1.1005e+02    3.8802e+02 ;    C13 - C12    - H2S   
  7666   7665   7667      1    1.0835e+02    3.2995e+02 ;    H3R - C13    - H3S   
  7666   7665   7668      1    1.1005e+02    3.8802e+02 ;    H3R - C13    - C12   
  7667   7665   7668      1    1.1005e+02    3.8802e+02 ;    H3S - C13    - C12   
  7669   7668   7670      1    1.0835e+02    3.2995e+02 ;    H2R - C12    - H2S   
  7671   7672   7673      1    1.0835e+02    3.2995e+02 ;   H14T - C114   - H14R  
  7671   7672   7674      1    1.0835e+02    3.2995e+02 ;   H14T - C114   - H14S  
  7671   7672   7675      1    1.1005e+02    3.8802e+02 ;   H14T - C114   - C113  
  7672   7675   7676      1    1.1005e+02    3.8802e+02 ;   C114 - C113   - H13R  
  7672   7675   7677      1    1.1005e+02    3.8802e+02 ;   C114 - C113   - H13S  
  7672   7675   7678      1    1.1205e+02    3.9497e+02 ;   C114 - C113   - C112  
  7673   7672   7674      1    1.0835e+02    3.2995e+02 ;   H14R - C114   - H14S  
  7673   7672   7675      1    1.1005e+02    3.8802e+02 ;   H14R - C114   - C113  
  7674   7672   7675      1    1.1005e+02    3.8802e+02 ;   H14S - C114   - C113  
  7675   7678   7679      1    1.1005e+02    3.8802e+02 ;   C113 - C112   - H12R  
  7675   7678   7680      1    1.1005e+02    3.8802e+02 ;   C113 - C112   - H12S  
  7675   7678   7681      1    1.1205e+02    3.9497e+02 ;   C113 - C112   - C111  
  7676   7675   7677      1    1.0835e+02    3.2995e+02 ;   H13R - C113   - H13S  
  7676   7675   7678      1    1.1005e+02    3.8802e+02 ;   H13R - C113   - C112  
  7677   7675   7678      1    1.1005e+02    3.8802e+02 ;   H13S - C113   - C112  
  7678   7681   7682      1    1.1005e+02    3.8802e+02 ;   C112 - C111   - H11R  
  7678   7681   7683      1    1.1005e+02    3.8802e+02 ;   C112 - C111   - H11S  
  7678   7681   7684      1    1.1205e+02    3.9497e+02 ;   C112 - C111   - C110  
  7679   7678   7680      1    1.0835e+02    3.2995e+02 ;   H12R - C112   - H12S  
  7679   7678   7681      1    1.1005e+02    3.8802e+02 ;   H12R - C112   - C111  
  7680   7678   7681      1    1.1005e+02    3.8802e+02 ;   H12S - C112   - C111  
  7681   7684   7685      1    1.1005e+02    3.8802e+02 ;   C111 - C110   - H10R  
  7681   7684   7686      1    1.1005e+02    3.8802e+02 ;   C111 - C110   - H10S  
  7681   7684   7687      1    1.1205e+02    3.9497e+02 ;   C111 - C110   - C19   
  7682   7681   7683      1    1.0835e+02    3.2995e+02 ;   H11R - C111   - H11S  
  7682   7681   7684      1    1.1005e+02    3.8802e+02 ;   H11R - C111   - C110  
  7683   7681   7684      1    1.1005e+02    3.8802e+02 ;   H11S - C111   - C110  
  7684   7687   7688      1    1.1005e+02    3.8802e+02 ;   C110 - C19    - H9R   
  7684   7687   7689      1    1.1005e+02    3.8802e+02 ;   C110 - C19    - H9S   
  7684   7687   7690      1    1.1205e+02    3.9497e+02 ;   C110 - C19    - C18   
  7685   7684   7686      1    1.0835e+02    3.2995e+02 ;   H10R - C110   - H10S  
  7685   7684   7687      1    1.1005e+02    3.8802e+02 ;   H10R - C110   - C19   
  7686   7684   7687      1    1.1005e+02    3.8802e+02 ;   H10S - C110   - C19   
  7687   7690   7691      1    1.1005e+02    3.8802e+02 ;    C19 - C18    - H8R   
  7687   7690   7692      1    1.1005e+02    3.8802e+02 ;    C19 - C18    - H8S   
  7687   7690   7693      1    1.1205e+02    3.9497e+02 ;    C19 - C18    - C17   
  7688   7687   7689      1    1.0835e+02    3.2995e+02 ;    H9R - C19    - H9S   
  7688   7687   7690      1    1.1005e+02    3.8802e+02 ;    H9R - C19    - C18   
  7689   7687   7690      1    1.1005e+02    3.8802e+02 ;    H9S - C19    - C18   
  7690   7693   7694      1    1.1005e+02    3.8802e+02 ;    C18 - C17    - H7R   
  7690   7693   7695      1    1.1005e+02    3.8802e+02 ;    C18 - C17    - H7S   
  7690   7693   7696      1    1.1205e+02    3.9497e+02 ;    C18 - C17    - C16   
  7691   7690   7692      1    1.0835e+02    3.2995e+02 ;    H8R - C18    - H8S   
  7691   7690   7693      1    1.1005e+02    3.8802e+02 ;    H8R - C18    - C17   
  7692   7690   7693      1    1.1005e+02    3.8802e+02 ;    H8S - C18    - C17   
  7693   7696   7697      1    1.1005e+02    3.8802e+02 ;    C17 - C16    - H6R   
  7693   7696   7698      1    1.1005e+02    3.8802e+02 ;    C17 - C16    - H6S   
  7693   7696   7699      1    1.1205e+02    3.9497e+02 ;    C17 - C16    - C15   
  7694   7693   7695      1    1.0835e+02    3.2995e+02 ;    H7R - C17    - H7S   
  7694   7693   7696      1    1.1005e+02    3.8802e+02 ;    H7R - C17    - C16   
  7695   7693   7696      1    1.1005e+02    3.8802e+02 ;    H7S - C17    - C16   
  7696   7699   7700      1    1.1005e+02    3.8802e+02 ;    C16 - C15    - H5R   
  7696   7699   7701      1    1.1005e+02    3.8802e+02 ;    C16 - C15    - H5S   
  7696   7699   7702      1    1.1205e+02    3.9497e+02 ;    C16 - C15    - C14   
  7697   7696   7698      1    1.0835e+02    3.2995e+02 ;    H6R - C16    - H6S   
  7697   7696   7699      1    1.1005e+02    3.8802e+02 ;    H6R - C16    - C15   
  7698   7696   7699      1    1.1005e+02    3.8802e+02 ;    H6S - C16    - C15   
  7699   7702   7703      1    1.1005e+02    3.8802e+02 ;    C15 - C14    - H4R   
  7699   7702   7704      1    1.1005e+02    3.8802e+02 ;    C15 - C14    - H4S   
  7699   7702   7705      1    1.1205e+02    3.9497e+02 ;    C15 - C14    - C13   
  7700   7699   7701      1    1.0835e+02    3.2995e+02 ;    H5R - C15    - H5S   
  7700   7699   7702      1    1.1005e+02    3.8802e+02 ;    H5R - C15    - C14   
  7701   7699   7702      1    1.1005e+02    3.8802e+02 ;    H5S - C15    - C14   
  7702   7705   7706      1    1.1005e+02    3.8802e+02 ;    C14 - C13    - H3R   
  7702   7705   7707      1    1.1005e+02    3.8802e+02 ;    C14 - C13    - H3S   
  7702   7705   7708      1    1.1205e+02    3.9497e+02 ;    C14 - C13    - C12   
  7703   7702   7704      1    1.0835e+02    3.2995e+02 ;    H4R - C14    - H4S   
  7703   7702   7705      1    1.1005e+02    3.8802e+02 ;    H4R - C14    - C13   
  7704   7702   7705      1    1.1005e+02    3.8802e+02 ;    H4S - C14    - C13   
  7705   7708   7709      1    1.1005e+02    3.8802e+02 ;    C13 - C12    - H2R   
  7705   7708   7710      1    1.1005e+02    3.8802e+02 ;    C13 - C12    - H2S   
  7705   7708   7711      1    1.1053e+02    5.3379e+02 ;    C13 - C12    - C11   
  7706   7705   7707      1    1.0835e+02    3.2995e+02 ;    H3R - C13    - H3S   
  7706   7705   7708      1    1.1005e+02    3.8802e+02 ;    H3R - C13    - C12   
  7707   7705   7708      1    1.1005e+02    3.8802e+02 ;    H3S - C13    - C12   
  7708   7711   7712      1    1.2311e+02    5.6928e+02 ;    C12 - C11    - O12   
  7708   7711   7713      1    1.1196e+02    5.7957e+02 ;    C12 - C11    - O11   
  7709   7708   7710      1    1.0835e+02    3.2995e+02 ;    H2R - C12    - H2S   
  7709   7708   7711      1    1.0968e+02    3.9497e+02 ;    H2R - C12    - C11   
  7710   7708   7711      1    1.0968e+02    3.9497e+02 ;    H2S - C12    - C11   
  7711   7713   7714      1    1.1514e+02    5.3246e+02 ;    C11 - O11    - C1    
  7712   7711   7713      1    1.2333e+02    6.3538e+02 ;    O12 - C11    - O11   
  7713   7714   7715      1    1.0882e+02    4.2543e+02 ;    O11 - C1     - HR    
  7713   7714   7716      1    1.0882e+02    4.2543e+02 ;    O11 - C1     - HS    
  7713   7714   7717      1    1.0842e+02    5.6718e+02 ;    O11 - C1     - C2    
  7714   7717   7718      1    1.1007e+02    3.8794e+02 ;     C1 - C2     - HX    
  7714   7717   7719      1    1.1063e+02    5.2894e+02 ;     C1 - C2     - C3    
  7714   7717   7746      1    1.0842e+02    5.6718e+02 ;     C1 - C2     - O21   
  7715   7714   7716      1    1.0955e+02    3.2786e+02 ;     HR - C1     - HS    
  7715   7714   7717      1    1.1007e+02    3.8794e+02 ;     HR - C1     - C2    
  7716   7714   7717      1    1.1007e+02    3.8794e+02 ;     HS - C1     - C2    
  7717   7719   7720      1    1.1007e+02    3.8794e+02 ;     C2 - C3     - HA    
  7717   7719   7721      1    1.1007e+02    3.8794e+02 ;     C2 - C3     - HB    
  7717   7719   7722      1    1.0842e+02    5.6718e+02 ;     C2 - C3     - O31   
  7717   7746   7747      1    1.1514e+02    5.3246e+02 ;     C2 - O21    - C21   
  7718   7717   7719      1    1.1007e+02    3.8794e+02 ;     HX - C2     - C3    
  7718   7717   7746      1    1.0882e+02    4.2543e+02 ;     HX - C2     - O21   
  7719   7717   7746      1    1.0842e+02    5.6718e+02 ;     C3 - C2     - O21   
  7719   7722   7723      1    1.2050e+02    8.3680e+02 ;     C3 - O31    - P31   
  7720   7719   7721      1    1.0955e+02    3.2786e+02 ;     HA - C3     - HB    
  7720   7719   7722      1    1.0882e+02    4.2543e+02 ;     HA - C3     - O31   
  7721   7719   7722      1    1.0882e+02    4.2543e+02 ;     HB - C3     - O31   
  7722   7723   7724      1    1.0260e+02    7.5312e+02 ;    O31 - P31    - O32   
  7722   7723   7744      1    1.0823e+02    8.3680e+02 ;    O31 - P31    - O33   
  7722   7723   7745      1    1.0823e+02    8.3680e+02 ;    O31 - P31    - O34   
  7723   7724   7725      1    1.2050e+02    8.3680e+02 ;    P31 - O32    - C31   
  7724   7723   7744      1    1.0823e+02    8.3680e+02 ;    O32 - P31    - O33   
  7724   7723   7745      1    1.0823e+02    8.3680e+02 ;    O32 - P31    - O34   
  7724   7725   7726      1    1.0882e+02    4.2543e+02 ;    O32 - C31    - H1A   
  7724   7725   7727      1    1.0882e+02    4.2543e+02 ;    O32 - C31    - H1B   
  7724   7725   7728      1    1.0842e+02    5.6718e+02 ;    O32 - C31    - C32   
  7725   7728   7729      1    1.1174e+02    3.8510e+02 ;    C31 - C32    - H2A   
  7725   7728   7730      1    1.1174e+02    3.8510e+02 ;    C31 - C32    - H2B   
  7725   7728   7731      1    1.1432e+02    5.3932e+02 ;    C31 - C32    - N31   
  7726   7725   7727      1    1.0955e+02    3.2786e+02 ;    H1A - C31    - H1B   
  7726   7725   7728      1    1.1007e+02    3.8794e+02 ;    H1A - C31    - C32   
  7727   7725   7728      1    1.1007e+02    3.8794e+02 ;    H1B - C31    - C32   
  7728   7731   7732      1    1.1064e+02    5.2585e+02 ;    C32 - N31    - C33   
  7728   7731   7736      1    1.1064e+02    5.2585e+02 ;    C32 - N31    - C34   
  7728   7731   7740      1    1.1064e+02    5.2585e+02 ;    C32 - N31    - C35   
  7729   7728   7730      1    1.1074e+02    3.2669e+02 ;    H2A - C32    - H2B   
  7729   7728   7731      1    1.0791e+02    4.1020e+02 ;    H2A - C32    - N31   
  7730   7728   7731      1    1.0791e+02    4.1020e+02 ;    H2B - C32    - N31   
  7731   7732   7733      1    1.0791e+02    4.1020e+02 ;    N31 - C33    - H3A   
  7731   7732   7734      1    1.0791e+02    4.1020e+02 ;    N31 - C33    - H3B   
  7731   7732   7735      1    1.0791e+02    4.1020e+02 ;    N31 - C33    - H3C   
  7731   7736   7737      1    1.0791e+02    4.1020e+02 ;    N31 - C34    - H4A   
  7731   7736   7738      1    1.0791e+02    4.1020e+02 ;    N31 - C34    - H4B   
  7731   7736   7739      1    1.0791e+02    4.1020e+02 ;    N31 - C34    - H4C   
  7731   7740   7741      1    1.0791e+02    4.1020e+02 ;    N31 - C35    - H5A   
  7731   7740   7742      1    1.0791e+02    4.1020e+02 ;    N31 - C35    - H5B   
  7731   7740   7743      1    1.0791e+02    4.1020e+02 ;    N31 - C35    - H5C   
  7732   7731   7736      1    1.1064e+02    5.2585e+02 ;    C33 - N31    - C34   
  7732   7731   7740      1    1.1064e+02    5.2585e+02 ;    C33 - N31    - C35   
  7733   7732   7734      1    1.1074e+02    3.2669e+02 ;    H3A - C33    - H3B   
  7733   7732   7735      1    1.1074e+02    3.2669e+02 ;    H3A - C33    - H3C   
  7734   7732   7735      1    1.1074e+02    3.2669e+02 ;    H3B - C33    - H3C   
  7736   7731   7740      1    1.1064e+02    5.2585e+02 ;    C34 - N31    - C35   
  7737   7736   7738      1    1.1074e+02    3.2669e+02 ;    H4A - C34    - H4B   
  7737   7736   7739      1    1.1074e+02    3.2669e+02 ;    H4A - C34    - H4C   
  7738   7736   7739      1    1.1074e+02    3.2669e+02 ;    H4B - C34    - H4C   
  7741   7740   7742      1    1.1074e+02    3.2669e+02 ;    H5A - C35    - H5B   
  7741   7740   7743      1    1.1074e+02    3.2669e+02 ;    H5A - C35    - H5C   
  7742   7740   7743      1    1.1074e+02    3.2669e+02 ;    H5B - C35    - H5C   
  7744   7723   7745      1    1.1990e+02    1.1715e+03 ;    O33 - P31    - O34   
  7746   7747   7748      1    1.2333e+02    6.3538e+02 ;    O21 - C21    - O22   
  7746   7747   7786      1    1.1196e+02    5.7957e+02 ;    O21 - C21    - C12   
  7747   7786   7783      1    1.1053e+02    5.3379e+02 ;    C21 - C12    - C13   
  7747   7786   7787      1    1.0968e+02    3.9497e+02 ;    C21 - C12    - H2R   
  7747   7786   7788      1    1.0968e+02    3.9497e+02 ;    C21 - C12    - H2S   
  7748   7747   7786      1    1.2311e+02    5.6928e+02 ;    O22 - C21    - C12   
  7749   7750   7751      1    1.0835e+02    3.2995e+02 ;   H14T - C114   - H14R  
  7749   7750   7752      1    1.0835e+02    3.2995e+02 ;   H14T - C114   - H14S  
  7749   7750   7753      1    1.1005e+02    3.8802e+02 ;   H14T - C114   - C113  
  7750   7753   7754      1    1.1005e+02    3.8802e+02 ;   C114 - C113   - H13R  
  7750   7753   7755      1    1.1005e+02    3.8802e+02 ;   C114 - C113   - H13S  
  7750   7753   7756      1    1.1205e+02    3.9497e+02 ;   C114 - C113   - C112  
  7751   7750   7752      1    1.0835e+02    3.2995e+02 ;   H14R - C114   - H14S  
  7751   7750   7753      1    1.1005e+02    3.8802e+02 ;   H14R - C114   - C113  
  7752   7750   7753      1    1.1005e+02    3.8802e+02 ;   H14S - C114   - C113  
  7753   7756   7757      1    1.1005e+02    3.8802e+02 ;   C113 - C112   - H12R  
  7753   7756   7758      1    1.1005e+02    3.8802e+02 ;   C113 - C112   - H12S  
  7753   7756   7759      1    1.1205e+02    3.9497e+02 ;   C113 - C112   - C111  
  7754   7753   7755      1    1.0835e+02    3.2995e+02 ;   H13R - C113   - H13S  
  7754   7753   7756      1    1.1005e+02    3.8802e+02 ;   H13R - C113   - C112  
  7755   7753   7756      1    1.1005e+02    3.8802e+02 ;   H13S - C113   - C112  
  7756   7759   7760      1    1.1005e+02    3.8802e+02 ;   C112 - C111   - H11R  
  7756   7759   7761      1    1.1005e+02    3.8802e+02 ;   C112 - C111   - H11S  
  7756   7759   7762      1    1.1205e+02    3.9497e+02 ;   C112 - C111   - C110  
  7757   7756   7758      1    1.0835e+02    3.2995e+02 ;   H12R - C112   - H12S  
  7757   7756   7759      1    1.1005e+02    3.8802e+02 ;   H12R - C112   - C111  
  7758   7756   7759      1    1.1005e+02    3.8802e+02 ;   H12S - C112   - C111  
  7759   7762   7763      1    1.1005e+02    3.8802e+02 ;   C111 - C110   - H10R  
  7759   7762   7764      1    1.1005e+02    3.8802e+02 ;   C111 - C110   - H10S  
  7759   7762   7765      1    1.1205e+02    3.9497e+02 ;   C111 - C110   - C19   
  7760   7759   7761      1    1.0835e+02    3.2995e+02 ;   H11R - C111   - H11S  
  7760   7759   7762      1    1.1005e+02    3.8802e+02 ;   H11R - C111   - C110  
  7761   7759   7762      1    1.1005e+02    3.8802e+02 ;   H11S - C111   - C110  
  7762   7765   7766      1    1.1005e+02    3.8802e+02 ;   C110 - C19    - H9R   
  7762   7765   7767      1    1.1005e+02    3.8802e+02 ;   C110 - C19    - H9S   
  7762   7765   7768      1    1.1205e+02    3.9497e+02 ;   C110 - C19    - C18   
  7763   7762   7764      1    1.0835e+02    3.2995e+02 ;   H10R - C110   - H10S  
  7763   7762   7765      1    1.1005e+02    3.8802e+02 ;   H10R - C110   - C19   
  7764   7762   7765      1    1.1005e+02    3.8802e+02 ;   H10S - C110   - C19   
  7765   7768   7769      1    1.1005e+02    3.8802e+02 ;    C19 - C18    - H8R   
  7765   7768   7770      1    1.1005e+02    3.8802e+02 ;    C19 - C18    - H8S   
  7765   7768   7771      1    1.1205e+02    3.9497e+02 ;    C19 - C18    - C17   
  7766   7765   7767      1    1.0835e+02    3.2995e+02 ;    H9R - C19    - H9S   
  7766   7765   7768      1    1.1005e+02    3.8802e+02 ;    H9R - C19    - C18   
  7767   7765   7768      1    1.1005e+02    3.8802e+02 ;    H9S - C19    - C18   
  7768   7771   7772      1    1.1005e+02    3.8802e+02 ;    C18 - C17    - H7R   
  7768   7771   7773      1    1.1005e+02    3.8802e+02 ;    C18 - C17    - H7S   
  7768   7771   7774      1    1.1205e+02    3.9497e+02 ;    C18 - C17    - C16   
  7769   7768   7770      1    1.0835e+02    3.2995e+02 ;    H8R - C18    - H8S   
  7769   7768   7771      1    1.1005e+02    3.8802e+02 ;    H8R - C18    - C17   
  7770   7768   7771      1    1.1005e+02    3.8802e+02 ;    H8S - C18    - C17   
  7771   7774   7775      1    1.1005e+02    3.8802e+02 ;    C17 - C16    - H6R   
  7771   7774   7776      1    1.1005e+02    3.8802e+02 ;    C17 - C16    - H6S   
  7771   7774   7777      1    1.1205e+02    3.9497e+02 ;    C17 - C16    - C15   
  7772   7771   7773      1    1.0835e+02    3.2995e+02 ;    H7R - C17    - H7S   
  7772   7771   7774      1    1.1005e+02    3.8802e+02 ;    H7R - C17    - C16   
  7773   7771   7774      1    1.1005e+02    3.8802e+02 ;    H7S - C17    - C16   
  7774   7777   7778      1    1.1005e+02    3.8802e+02 ;    C16 - C15    - H5R   
  7774   7777   7779      1    1.1005e+02    3.8802e+02 ;    C16 - C15    - H5S   
  7774   7777   7780      1    1.1205e+02    3.9497e+02 ;    C16 - C15    - C14   
  7775   7774   7776      1    1.0835e+02    3.2995e+02 ;    H6R - C16    - H6S   
  7775   7774   7777      1    1.1005e+02    3.8802e+02 ;    H6R - C16    - C15   
  7776   7774   7777      1    1.1005e+02    3.8802e+02 ;    H6S - C16    - C15   
  7777   7780   7781      1    1.1005e+02    3.8802e+02 ;    C15 - C14    - H4R   
  7777   7780   7782      1    1.1005e+02    3.8802e+02 ;    C15 - C14    - H4S   
  7777   7780   7783      1    1.1205e+02    3.9497e+02 ;    C15 - C14    - C13   
  7778   7777   7779      1    1.0835e+02    3.2995e+02 ;    H5R - C15    - H5S   
  7778   7777   7780      1    1.1005e+02    3.8802e+02 ;    H5R - C15    - C14   
  7779   7777   7780      1    1.1005e+02    3.8802e+02 ;    H5S - C15    - C14   
  7780   7783   7784      1    1.1005e+02    3.8802e+02 ;    C14 - C13    - H3R   
  7780   7783   7785      1    1.1005e+02    3.8802e+02 ;    C14 - C13    - H3S   
  7780   7783   7786      1    1.1205e+02    3.9497e+02 ;    C14 - C13    - C12   
  7781   7780   7782      1    1.0835e+02    3.2995e+02 ;    H4R - C14    - H4S   
  7781   7780   7783      1    1.1005e+02    3.8802e+02 ;    H4R - C14    - C13   
  7782   7780   7783      1    1.1005e+02    3.8802e+02 ;    H4S - C14    - C13   
  7783   7786   7787      1    1.1005e+02    3.8802e+02 ;    C13 - C12    - H2R   
  7783   7786   7788      1    1.1005e+02    3.8802e+02 ;    C13 - C12    - H2S   
  7784   7783   7785      1    1.0835e+02    3.2995e+02 ;    H3R - C13    - H3S   
  7784   7783   7786      1    1.1005e+02    3.8802e+02 ;    H3R - C13    - C12   
  7785   7783   7786      1    1.1005e+02    3.8802e+02 ;    H3S - C13    - C12   
  7787   7786   7788      1    1.0835e+02    3.2995e+02 ;    H2R - C12    - H2S   
  7789   7790   7791      1    1.0835e+02    3.2995e+02 ;   H14T - C114   - H14R  
  7789   7790   7792      1    1.0835e+02    3.2995e+02 ;   H14T - C114   - H14S  
  7789   7790   7793      1    1.1005e+02    3.8802e+02 ;   H14T - C114   - C113  
  7790   7793   7794      1    1.1005e+02    3.8802e+02 ;   C114 - C113   - H13R  
  7790   7793   7795      1    1.1005e+02    3.8802e+02 ;   C114 - C113   - H13S  
  7790   7793   7796      1    1.1205e+02    3.9497e+02 ;   C114 - C113   - C112  
  7791   7790   7792      1    1.0835e+02    3.2995e+02 ;   H14R - C114   - H14S  
  7791   7790   7793      1    1.1005e+02    3.8802e+02 ;   H14R - C114   - C113  
  7792   7790   7793      1    1.1005e+02    3.8802e+02 ;   H14S - C114   - C113  
  7793   7796   7797      1    1.1005e+02    3.8802e+02 ;   C113 - C112   - H12R  
  7793   7796   7798      1    1.1005e+02    3.8802e+02 ;   C113 - C112   - H12S  
  7793   7796   7799      1    1.1205e+02    3.9497e+02 ;   C113 - C112   - C111  
  7794   7793   7795      1    1.0835e+02    3.2995e+02 ;   H13R - C113   - H13S  
  7794   7793   7796      1    1.1005e+02    3.8802e+02 ;   H13R - C113   - C112  
  7795   7793   7796      1    1.1005e+02    3.8802e+02 ;   H13S - C113   - C112  
  7796   7799   7800      1    1.1005e+02    3.8802e+02 ;   C112 - C111   - H11R  
  7796   7799   7801      1    1.1005e+02    3.8802e+02 ;   C112 - C111   - H11S  
  7796   7799   7802      1    1.1205e+02    3.9497e+02 ;   C112 - C111   - C110  
  7797   7796   7798      1    1.0835e+02    3.2995e+02 ;   H12R - C112   - H12S  
  7797   7796   7799      1    1.1005e+02    3.8802e+02 ;   H12R - C112   - C111  
  7798   7796   7799      1    1.1005e+02    3.8802e+02 ;   H12S - C112   - C111  
  7799   7802   7803      1    1.1005e+02    3.8802e+02 ;   C111 - C110   - H10R  
  7799   7802   7804      1    1.1005e+02    3.8802e+02 ;   C111 - C110   - H10S  
  7799   7802   7805      1    1.1205e+02    3.9497e+02 ;   C111 - C110   - C19   
  7800   7799   7801      1    1.0835e+02    3.2995e+02 ;   H11R - C111   - H11S  
  7800   7799   7802      1    1.1005e+02    3.8802e+02 ;   H11R - C111   - C110  
  7801   7799   7802      1    1.1005e+02    3.8802e+02 ;   H11S - C111   - C110  
  7802   7805   7806      1    1.1005e+02    3.8802e+02 ;   C110 - C19    - H9R   
  7802   7805   7807      1    1.1005e+02    3.8802e+02 ;   C110 - C19    - H9S   
  7802   7805   7808      1    1.1205e+02    3.9497e+02 ;   C110 - C19    - C18   
  7803   7802   7804      1    1.0835e+02    3.2995e+02 ;   H10R - C110   - H10S  
  7803   7802   7805      1    1.1005e+02    3.8802e+02 ;   H10R - C110   - C19   
  7804   7802   7805      1    1.1005e+02    3.8802e+02 ;   H10S - C110   - C19   
  7805   7808   7809      1    1.1005e+02    3.8802e+02 ;    C19 - C18    - H8R   
  7805   7808   7810      1    1.1005e+02    3.8802e+02 ;    C19 - C18    - H8S   
  7805   7808   7811      1    1.1205e+02    3.9497e+02 ;    C19 - C18    - C17   
  7806   7805   7807      1    1.0835e+02    3.2995e+02 ;    H9R - C19    - H9S   
  7806   7805   7808      1    1.1005e+02    3.8802e+02 ;    H9R - C19    - C18   
  7807   7805   7808      1    1.1005e+02    3.8802e+02 ;    H9S - C19    - C18   
  7808   7811   7812      1    1.1005e+02    3.8802e+02 ;    C18 - C17    - H7R   
  7808   7811   7813      1    1.1005e+02    3.8802e+02 ;    C18 - C17    - H7S   
  7808   7811   7814      1    1.1205e+02    3.9497e+02 ;    C18 - C17    - C16   
  7809   7808   7810      1    1.0835e+02    3.2995e+02 ;    H8R - C18    - H8S   
  7809   7808   7811      1    1.1005e+02    3.8802e+02 ;    H8R - C18    - C17   
  7810   7808   7811      1    1.1005e+02    3.8802e+02 ;    H8S - C18    - C17   
  7811   7814   7815      1    1.1005e+02    3.8802e+02 ;    C17 - C16    - H6R   
  7811   7814   7816      1    1.1005e+02    3.8802e+02 ;    C17 - C16    - H6S   
  7811   7814   7817      1    1.1205e+02    3.9497e+02 ;    C17 - C16    - C15   
  7812   7811   7813      1    1.0835e+02    3.2995e+02 ;    H7R - C17    - H7S   
  7812   7811   7814      1    1.1005e+02    3.8802e+02 ;    H7R - C17    - C16   
  7813   7811   7814      1    1.1005e+02    3.8802e+02 ;    H7S - C17    - C16   
  7814   7817   7818      1    1.1005e+02    3.8802e+02 ;    C16 - C15    - H5R   
  7814   7817   7819      1    1.1005e+02    3.8802e+02 ;    C16 - C15    - H5S   
  7814   7817   7820      1    1.1205e+02    3.9497e+02 ;    C16 - C15    - C14   
  7815   7814   7816      1    1.0835e+02    3.2995e+02 ;    H6R - C16    - H6S   
  7815   7814   7817      1    1.1005e+02    3.8802e+02 ;    H6R - C16    - C15   
  7816   7814   7817      1    1.1005e+02    3.8802e+02 ;    H6S - C16    - C15   
  7817   7820   7821      1    1.1005e+02    3.8802e+02 ;    C15 - C14    - H4R   
  7817   7820   7822      1    1.1005e+02    3.8802e+02 ;    C15 - C14    - H4S   
  7817   7820   7823      1    1.1205e+02    3.9497e+02 ;    C15 - C14    - C13   
  7818   7817   7819      1    1.0835e+02    3.2995e+02 ;    H5R - C15    - H5S   
  7818   7817   7820      1    1.1005e+02    3.8802e+02 ;    H5R - C15    - C14   
  7819   7817   7820      1    1.1005e+02    3.8802e+02 ;    H5S - C15    - C14   
  7820   7823   7824      1    1.1005e+02    3.8802e+02 ;    C14 - C13    - H3R   
  7820   7823   7825      1    1.1005e+02    3.8802e+02 ;    C14 - C13    - H3S   
  7820   7823   7826      1    1.1205e+02    3.9497e+02 ;    C14 - C13    - C12   
  7821   7820   7822      1    1.0835e+02    3.2995e+02 ;    H4R - C14    - H4S   
  7821   7820   7823      1    1.1005e+02    3.8802e+02 ;    H4R - C14    - C13   
  7822   7820   7823      1    1.1005e+02    3.8802e+02 ;    H4S - C14    - C13   
  7823   7826   7827      1    1.1005e+02    3.8802e+02 ;    C13 - C12    - H2R   
  7823   7826   7828      1    1.1005e+02    3.8802e+02 ;    C13 - C12    - H2S   
  7823   7826   7829      1    1.1053e+02    5.3379e+02 ;    C13 - C12    - C11   
  7824   7823   7825      1    1.0835e+02    3.2995e+02 ;    H3R - C13    - H3S   
  7824   7823   7826      1    1.1005e+02    3.8802e+02 ;    H3R - C13    - C12   
  7825   7823   7826      1    1.1005e+02    3.8802e+02 ;    H3S - C13    - C12   
  7826   7829   7830      1    1.2311e+02    5.6928e+02 ;    C12 - C11    - O12   
  7826   7829   7831      1    1.1196e+02    5.7957e+02 ;    C12 - C11    - O11   
  7827   7826   7828      1    1.0835e+02    3.2995e+02 ;    H2R - C12    - H2S   
  7827   7826   7829      1    1.0968e+02    3.9497e+02 ;    H2R - C12    - C11   
  7828   7826   7829      1    1.0968e+02    3.9497e+02 ;    H2S - C12    - C11   
  7829   7831   7832      1    1.1514e+02    5.3246e+02 ;    C11 - O11    - C1    
  7830   7829   7831      1    1.2333e+02    6.3538e+02 ;    O12 - C11    - O11   
  7831   7832   7833      1    1.0882e+02    4.2543e+02 ;    O11 - C1     - HR    
  7831   7832   7834      1    1.0882e+02    4.2543e+02 ;    O11 - C1     - HS    
  7831   7832   7835      1    1.0842e+02    5.6718e+02 ;    O11 - C1     - C2    
  7832   7835   7836      1    1.1007e+02    3.8794e+02 ;     C1 - C2     - HX    
  7832   7835   7837      1    1.1063e+02    5.2894e+02 ;     C1 - C2     - C3    
  7832   7835   7864      1    1.0842e+02    5.6718e+02 ;     C1 - C2     - O21   
  7833   7832   7834      1    1.0955e+02    3.2786e+02 ;     HR - C1     - HS    
  7833   7832   7835      1    1.1007e+02    3.8794e+02 ;     HR - C1     - C2    
  7834   7832   7835      1    1.1007e+02    3.8794e+02 ;     HS - C1     - C2    
  7835   7837   7838      1    1.1007e+02    3.8794e+02 ;     C2 - C3     - HA    
  7835   7837   7839      1    1.1007e+02    3.8794e+02 ;     C2 - C3     - HB    
  7835   7837   7840      1    1.0842e+02    5.6718e+02 ;     C2 - C3     - O31   
  7835   7864   7865      1    1.1514e+02    5.3246e+02 ;     C2 - O21    - C21   
  7836   7835   7837      1    1.1007e+02    3.8794e+02 ;     HX - C2     - C3    
  7836   7835   7864      1    1.0882e+02    4.2543e+02 ;     HX - C2     - O21   
  7837   7835   7864      1    1.0842e+02    5.6718e+02 ;     C3 - C2     - O21   
  7837   7840   7841      1    1.2050e+02    8.3680e+02 ;     C3 - O31    - P31   
  7838   7837   7839      1    1.0955e+02    3.2786e+02 ;     HA - C3     - HB    
  7838   7837   7840      1    1.0882e+02    4.2543e+02 ;     HA - C3     - O31   
  7839   7837   7840      1    1.0882e+02    4.2543e+02 ;     HB - C3     - O31   
  7840   7841   7842      1    1.0260e+02    7.5312e+02 ;    O31 - P31    - O32   
  7840   7841   7862      1    1.0823e+02    8.3680e+02 ;    O31 - P31    - O33   
  7840   7841   7863      1    1.0823e+02    8.3680e+02 ;    O31 - P31    - O34   
  7841   7842   7843      1    1.2050e+02    8.3680e+02 ;    P31 - O32    - C31   
  7842   7841   7862      1    1.0823e+02    8.3680e+02 ;    O32 - P31    - O33   
  7842   7841   7863      1    1.0823e+02    8.3680e+02 ;    O32 - P31    - O34   
  7842   7843   7844      1    1.0882e+02    4.2543e+02 ;    O32 - C31    - H1A   
  7842   7843   7845      1    1.0882e+02    4.2543e+02 ;    O32 - C31    - H1B   
  7842   7843   7846      1    1.0842e+02    5.6718e+02 ;    O32 - C31    - C32   
  7843   7846   7847      1    1.1174e+02    3.8510e+02 ;    C31 - C32    - H2A   
  7843   7846   7848      1    1.1174e+02    3.8510e+02 ;    C31 - C32    - H2B   
  7843   7846   7849      1    1.1432e+02    5.3932e+02 ;    C31 - C32    - N31   
  7844   7843   7845      1    1.0955e+02    3.2786e+02 ;    H1A - C31    - H1B   
  7844   7843   7846      1    1.1007e+02    3.8794e+02 ;    H1A - C31    - C32   
  7845   7843   7846      1    1.1007e+02    3.8794e+02 ;    H1B - C31    - C32   
  7846   7849   7850      1    1.1064e+02    5.2585e+02 ;    C32 - N31    - C33   
  7846   7849   7854      1    1.1064e+02    5.2585e+02 ;    C32 - N31    - C34   
  7846   7849   7858      1    1.1064e+02    5.2585e+02 ;    C32 - N31    - C35   
  7847   7846   7848      1    1.1074e+02    3.2669e+02 ;    H2A - C32    - H2B   
  7847   7846   7849      1    1.0791e+02    4.1020e+02 ;    H2A - C32    - N31   
  7848   7846   7849      1    1.0791e+02    4.1020e+02 ;    H2B - C32    - N31   
  7849   7850   7851      1    1.0791e+02    4.1020e+02 ;    N31 - C33    - H3A   
  7849   7850   7852      1    1.0791e+02    4.1020e+02 ;    N31 - C33    - H3B   
  7849   7850   7853      1    1.0791e+02    4.1020e+02 ;    N31 - C33    - H3C   
  7849   7854   7855      1    1.0791e+02    4.1020e+02 ;    N31 - C34    - H4A   
  7849   7854   7856      1    1.0791e+02    4.1020e+02 ;    N31 - C34    - H4B   
  7849   7854   7857      1    1.0791e+02    4.1020e+02 ;    N31 - C34    - H4C   
  7849   7858   7859      1    1.0791e+02    4.1020e+02 ;    N31 - C35    - H5A   
  7849   7858   7860      1    1.0791e+02    4.1020e+02 ;    N31 - C35    - H5B   
  7849   7858   7861      1    1.0791e+02    4.1020e+02 ;    N31 - C35    - H5C   
  7850   7849   7854      1    1.1064e+02    5.2585e+02 ;    C33 - N31    - C34   
  7850   7849   7858      1    1.1064e+02    5.2585e+02 ;    C33 - N31    - C35   
  7851   7850   7852      1    1.1074e+02    3.2669e+02 ;    H3A - C33    - H3B   
  7851   7850   7853      1    1.1074e+02    3.2669e+02 ;    H3A - C33    - H3C   
  7852   7850   7853      1    1.1074e+02    3.2669e+02 ;    H3B - C33    - H3C   
  7854   7849   7858      1    1.1064e+02    5.2585e+02 ;    C34 - N31    - C35   
  7855   7854   7856      1    1.1074e+02    3.2669e+02 ;    H4A - C34    - H4B   
  7855   7854   7857      1    1.1074e+02    3.2669e+02 ;    H4A - C34    - H4C   
  7856   7854   7857      1    1.1074e+02    3.2669e+02 ;    H4B - C34    - H4C   
  7859   7858   7860      1    1.1074e+02    3.2669e+02 ;    H5A - C35    - H5B   
  7859   7858   7861      1    1.1074e+02    3.2669e+02 ;    H5A - C35    - H5C   
  7860   7858   7861      1    1.1074e+02    3.2669e+02 ;    H5B - C35    - H5C   
  7862   7841   7863      1    1.1990e+02    1.1715e+03 ;    O33 - P31    - O34   
  7864   7865   7866      1    1.2333e+02    6.3538e+02 ;    O21 - C21    - O22   
  7864   7865   7904      1    1.1196e+02    5.7957e+02 ;    O21 - C21    - C12   
  7865   7904   7901      1    1.1053e+02    5.3379e+02 ;    C21 - C12    - C13   
  7865   7904   7905      1    1.0968e+02    3.9497e+02 ;    C21 - C12    - H2R   
  7865   7904   7906      1    1.0968e+02    3.9497e+02 ;    C21 - C12    - H2S   
  7866   7865   7904      1    1.2311e+02    5.6928e+02 ;    O22 - C21    - C12   
  7867   7868   7869      1    1.0835e+02    3.2995e+02 ;   H14T - C114   - H14R  
  7867   7868   7870      1    1.0835e+02    3.2995e+02 ;   H14T - C114   - H14S  
  7867   7868   7871      1    1.1005e+02    3.8802e+02 ;   H14T - C114   - C113  
  7868   7871   7872      1    1.1005e+02    3.8802e+02 ;   C114 - C113   - H13R  
  7868   7871   7873      1    1.1005e+02    3.8802e+02 ;   C114 - C113   - H13S  
  7868   7871   7874      1    1.1205e+02    3.9497e+02 ;   C114 - C113   - C112  
  7869   7868   7870      1    1.0835e+02    3.2995e+02 ;   H14R - C114   - H14S  
  7869   7868   7871      1    1.1005e+02    3.8802e+02 ;   H14R - C114   - C113  
  7870   7868   7871      1    1.1005e+02    3.8802e+02 ;   H14S - C114   - C113  
  7871   7874   7875      1    1.1005e+02    3.8802e+02 ;   C113 - C112   - H12R  
  7871   7874   7876      1    1.1005e+02    3.8802e+02 ;   C113 - C112   - H12S  
  7871   7874   7877      1    1.1205e+02    3.9497e+02 ;   C113 - C112   - C111  
  7872   7871   7873      1    1.0835e+02    3.2995e+02 ;   H13R - C113   - H13S  
  7872   7871   7874      1    1.1005e+02    3.8802e+02 ;   H13R - C113   - C112  
  7873   7871   7874      1    1.1005e+02    3.8802e+02 ;   H13S - C113   - C112  
  7874   7877   7878      1    1.1005e+02    3.8802e+02 ;   C112 - C111   - H11R  
  7874   7877   7879      1    1.1005e+02    3.8802e+02 ;   C112 - C111   - H11S  
  7874   7877   7880      1    1.1205e+02    3.9497e+02 ;   C112 - C111   - C110  
  7875   7874   7876      1    1.0835e+02    3.2995e+02 ;   H12R - C112   - H12S  
  7875   7874   7877      1    1.1005e+02    3.8802e+02 ;   H12R - C112   - C111  
  7876   7874   7877      1    1.1005e+02    3.8802e+02 ;   H12S - C112   - C111  
  7877   7880   7881      1    1.1005e+02    3.8802e+02 ;   C111 - C110   - H10R  
  7877   7880   7882      1    1.1005e+02    3.8802e+02 ;   C111 - C110   - H10S  
  7877   7880   7883      1    1.1205e+02    3.9497e+02 ;   C111 - C110   - C19   
  7878   7877   7879      1    1.0835e+02    3.2995e+02 ;   H11R - C111   - H11S  
  7878   7877   7880      1    1.1005e+02    3.8802e+02 ;   H11R - C111   - C110  
  7879   7877   7880      1    1.1005e+02    3.8802e+02 ;   H11S - C111   - C110  
  7880   7883   7884      1    1.1005e+02    3.8802e+02 ;   C110 - C19    - H9R   
  7880   7883   7885      1    1.1005e+02    3.8802e+02 ;   C110 - C19    - H9S   
  7880   7883   7886      1    1.1205e+02    3.9497e+02 ;   C110 - C19    - C18   
  7881   7880   7882      1    1.0835e+02    3.2995e+02 ;   H10R - C110   - H10S  
  7881   7880   7883      1    1.1005e+02    3.8802e+02 ;   H10R - C110   - C19   
  7882   7880   7883      1    1.1005e+02    3.8802e+02 ;   H10S - C110   - C19   
  7883   7886   7887      1    1.1005e+02    3.8802e+02 ;    C19 - C18    - H8R   
  7883   7886   7888      1    1.1005e+02    3.8802e+02 ;    C19 - C18    - H8S   
  7883   7886   7889      1    1.1205e+02    3.9497e+02 ;    C19 - C18    - C17   
  7884   7883   7885      1    1.0835e+02    3.2995e+02 ;    H9R - C19    - H9S   
  7884   7883   7886      1    1.1005e+02    3.8802e+02 ;    H9R - C19    - C18   
  7885   7883   7886      1    1.1005e+02    3.8802e+02 ;    H9S - C19    - C18   
  7886   7889   7890      1    1.1005e+02    3.8802e+02 ;    C18 - C17    - H7R   
  7886   7889   7891      1    1.1005e+02    3.8802e+02 ;    C18 - C17    - H7S   
  7886   7889   7892      1    1.1205e+02    3.9497e+02 ;    C18 - C17    - C16   
  7887   7886   7888      1    1.0835e+02    3.2995e+02 ;    H8R - C18    - H8S   
  7887   7886   7889      1    1.1005e+02    3.8802e+02 ;    H8R - C18    - C17   
  7888   7886   7889      1    1.1005e+02    3.8802e+02 ;    H8S - C18    - C17   
  7889   7892   7893      1    1.1005e+02    3.8802e+02 ;    C17 - C16    - H6R   
  7889   7892   7894      1    1.1005e+02    3.8802e+02 ;    C17 - C16    - H6S   
  7889   7892   7895      1    1.1205e+02    3.9497e+02 ;    C17 - C16    - C15   
  7890   7889   7891      1    1.0835e+02    3.2995e+02 ;    H7R - C17    - H7S   
  7890   7889   7892      1    1.1005e+02    3.8802e+02 ;    H7R - C17    - C16   
  7891   7889   7892      1    1.1005e+02    3.8802e+02 ;    H7S - C17    - C16   
  7892   7895   7896      1    1.1005e+02    3.8802e+02 ;    C16 - C15    - H5R   
  7892   7895   7897      1    1.1005e+02    3.8802e+02 ;    C16 - C15    - H5S   
  7892   7895   7898      1    1.1205e+02    3.9497e+02 ;    C16 - C15    - C14   
  7893   7892   7894      1    1.0835e+02    3.2995e+02 ;    H6R - C16    - H6S   
  7893   7892   7895      1    1.1005e+02    3.8802e+02 ;    H6R - C16    - C15   
  7894   7892   7895      1    1.1005e+02    3.8802e+02 ;    H6S - C16    - C15   
  7895   7898   7899      1    1.1005e+02    3.8802e+02 ;    C15 - C14    - H4R   
  7895   7898   7900      1    1.1005e+02    3.8802e+02 ;    C15 - C14    - H4S   
  7895   7898   7901      1    1.1205e+02    3.9497e+02 ;    C15 - C14    - C13   
  7896   7895   7897      1    1.0835e+02    3.2995e+02 ;    H5R - C15    - H5S   
  7896   7895   7898      1    1.1005e+02    3.8802e+02 ;    H5R - C15    - C14   
  7897   7895   7898      1    1.1005e+02    3.8802e+02 ;    H5S - C15    - C14   
  7898   7901   7902      1    1.1005e+02    3.8802e+02 ;    C14 - C13    - H3R   
  7898   7901   7903      1    1.1005e+02    3.8802e+02 ;    C14 - C13    - H3S   
  7898   7901   7904      1    1.1205e+02    3.9497e+02 ;    C14 - C13    - C12   
  7899   7898   7900      1    1.0835e+02    3.2995e+02 ;    H4R - C14    - H4S   
  7899   7898   7901      1    1.1005e+02    3.8802e+02 ;    H4R - C14    - C13   
  7900   7898   7901      1    1.1005e+02    3.8802e+02 ;    H4S - C14    - C13   
  7901   7904   7905      1    1.1005e+02    3.8802e+02 ;    C13 - C12    - H2R   
  7901   7904   7906      1    1.1005e+02    3.8802e+02 ;    C13 - C12    - H2S   
  7902   7901   7903      1    1.0835e+02    3.2995e+02 ;    H3R - C13    - H3S   
  7902   7901   7904      1    1.1005e+02    3.8802e+02 ;    H3R - C13    - C12   
  7903   7901   7904      1    1.1005e+02    3.8802e+02 ;    H3S - C13    - C12   
  7905   7904   7906      1    1.0835e+02    3.2995e+02 ;    H2R - C12    - H2S   
  7907   7908   7909      1    1.0835e+02    3.2995e+02 ;   H14T - C114   - H14R  
  7907   7908   7910      1    1.0835e+02    3.2995e+02 ;   H14T - C114   - H14S  
  7907   7908   7911      1    1.1005e+02    3.8802e+02 ;   H14T - C114   - C113  
  7908   7911   7912      1    1.1005e+02    3.8802e+02 ;   C114 - C113   - H13R  
  7908   7911   7913      1    1.1005e+02    3.8802e+02 ;   C114 - C113   - H13S  
  7908   7911   7914      1    1.1205e+02    3.9497e+02 ;   C114 - C113   - C112  
  7909   7908   7910      1    1.0835e+02    3.2995e+02 ;   H14R - C114   - H14S  
  7909   7908   7911      1    1.1005e+02    3.8802e+02 ;   H14R - C114   - C113  
  7910   7908   7911      1    1.1005e+02    3.8802e+02 ;   H14S - C114   - C113  
  7911   7914   7915      1    1.1005e+02    3.8802e+02 ;   C113 - C112   - H12R  
  7911   7914   7916      1    1.1005e+02    3.8802e+02 ;   C113 - C112   - H12S  
  7911   7914   7917      1    1.1205e+02    3.9497e+02 ;   C113 - C112   - C111  
  7912   7911   7913      1    1.0835e+02    3.2995e+02 ;   H13R - C113   - H13S  
  7912   7911   7914      1    1.1005e+02    3.8802e+02 ;   H13R - C113   - C112  
  7913   7911   7914      1    1.1005e+02    3.8802e+02 ;   H13S - C113   - C112  
  7914   7917   7918      1    1.1005e+02    3.8802e+02 ;   C112 - C111   - H11R  
  7914   7917   7919      1    1.1005e+02    3.8802e+02 ;   C112 - C111   - H11S  
  7914   7917   7920      1    1.1205e+02    3.9497e+02 ;   C112 - C111   - C110  
  7915   7914   7916      1    1.0835e+02    3.2995e+02 ;   H12R - C112   - H12S  
  7915   7914   7917      1    1.1005e+02    3.8802e+02 ;   H12R - C112   - C111  
  7916   7914   7917      1    1.1005e+02    3.8802e+02 ;   H12S - C112   - C111  
  7917   7920   7921      1    1.1005e+02    3.8802e+02 ;   C111 - C110   - H10R  
  7917   7920   7922      1    1.1005e+02    3.8802e+02 ;   C111 - C110   - H10S  
  7917   7920   7923      1    1.1205e+02    3.9497e+02 ;   C111 - C110   - C19   
  7918   7917   7919      1    1.0835e+02    3.2995e+02 ;   H11R - C111   - H11S  
  7918   7917   7920      1    1.1005e+02    3.8802e+02 ;   H11R - C111   - C110  
  7919   7917   7920      1    1.1005e+02    3.8802e+02 ;   H11S - C111   - C110  
  7920   7923   7924      1    1.1005e+02    3.8802e+02 ;   C110 - C19    - H9R   
  7920   7923   7925      1    1.1005e+02    3.8802e+02 ;   C110 - C19    - H9S   
  7920   7923   7926      1    1.1205e+02    3.9497e+02 ;   C110 - C19    - C18   
  7921   7920   7922      1    1.0835e+02    3.2995e+02 ;   H10R - C110   - H10S  
  7921   7920   7923      1    1.1005e+02    3.8802e+02 ;   H10R - C110   - C19   
  7922   7920   7923      1    1.1005e+02    3.8802e+02 ;   H10S - C110   - C19   
  7923   7926   7927      1    1.1005e+02    3.8802e+02 ;    C19 - C18    - H8R   
  7923   7926   7928      1    1.1005e+02    3.8802e+02 ;    C19 - C18    - H8S   
  7923   7926   7929      1    1.1205e+02    3.9497e+02 ;    C19 - C18    - C17   
  7924   7923   7925      1    1.0835e+02    3.2995e+02 ;    H9R - C19    - H9S   
  7924   7923   7926      1    1.1005e+02    3.8802e+02 ;    H9R - C19    - C18   
  7925   7923   7926      1    1.1005e+02    3.8802e+02 ;    H9S - C19    - C18   
  7926   7929   7930      1    1.1005e+02    3.8802e+02 ;    C18 - C17    - H7R   
  7926   7929   7931      1    1.1005e+02    3.8802e+02 ;    C18 - C17    - H7S   
  7926   7929   7932      1    1.1205e+02    3.9497e+02 ;    C18 - C17    - C16   
  7927   7926   7928      1    1.0835e+02    3.2995e+02 ;    H8R - C18    - H8S   
  7927   7926   7929      1    1.1005e+02    3.8802e+02 ;    H8R - C18    - C17   
  7928   7926   7929      1    1.1005e+02    3.8802e+02 ;    H8S - C18    - C17   
  7929   7932   7933      1    1.1005e+02    3.8802e+02 ;    C17 - C16    - H6R   
  7929   7932   7934      1    1.1005e+02    3.8802e+02 ;    C17 - C16    - H6S   
  7929   7932   7935      1    1.1205e+02    3.9497e+02 ;    C17 - C16    - C15   
  7930   7929   7931      1    1.0835e+02    3.2995e+02 ;    H7R - C17    - H7S   
  7930   7929   7932      1    1.1005e+02    3.8802e+02 ;    H7R - C17    - C16   
  7931   7929   7932      1    1.1005e+02    3.8802e+02 ;    H7S - C17    - C16   
  7932   7935   7936      1    1.1005e+02    3.8802e+02 ;    C16 - C15    - H5R   
  7932   7935   7937      1    1.1005e+02    3.8802e+02 ;    C16 - C15    - H5S   
  7932   7935   7938      1    1.1205e+02    3.9497e+02 ;    C16 - C15    - C14   
  7933   7932   7934      1    1.0835e+02    3.2995e+02 ;    H6R - C16    - H6S   
  7933   7932   7935      1    1.1005e+02    3.8802e+02 ;    H6R - C16    - C15   
  7934   7932   7935      1    1.1005e+02    3.8802e+02 ;    H6S - C16    - C15   
  7935   7938   7939      1    1.1005e+02    3.8802e+02 ;    C15 - C14    - H4R   
  7935   7938   7940      1    1.1005e+02    3.8802e+02 ;    C15 - C14    - H4S   
  7935   7938   7941      1    1.1205e+02    3.9497e+02 ;    C15 - C14    - C13   
  7936   7935   7937      1    1.0835e+02    3.2995e+02 ;    H5R - C15    - H5S   
  7936   7935   7938      1    1.1005e+02    3.8802e+02 ;    H5R - C15    - C14   
  7937   7935   7938      1    1.1005e+02    3.8802e+02 ;    H5S - C15    - C14   
  7938   7941   7942      1    1.1005e+02    3.8802e+02 ;    C14 - C13    - H3R   
  7938   7941   7943      1    1.1005e+02    3.8802e+02 ;    C14 - C13    - H3S   
  7938   7941   7944      1    1.1205e+02    3.9497e+02 ;    C14 - C13    - C12   
  7939   7938   7940      1    1.0835e+02    3.2995e+02 ;    H4R - C14    - H4S   
  7939   7938   7941      1    1.1005e+02    3.8802e+02 ;    H4R - C14    - C13   
  7940   7938   7941      1    1.1005e+02    3.8802e+02 ;    H4S - C14    - C13   
  7941   7944   7945      1    1.1005e+02    3.8802e+02 ;    C13 - C12    - H2R   
  7941   7944   7946      1    1.1005e+02    3.8802e+02 ;    C13 - C12    - H2S   
  7941   7944   7947      1    1.1053e+02    5.3379e+02 ;    C13 - C12    - C11   
  7942   7941   7943      1    1.0835e+02    3.2995e+02 ;    H3R - C13    - H3S   
  7942   7941   7944      1    1.1005e+02    3.8802e+02 ;    H3R - C13    - C12   
  7943   7941   7944      1    1.1005e+02    3.8802e+02 ;    H3S - C13    - C12   
  7944   7947   7948      1    1.2311e+02    5.6928e+02 ;    C12 - C11    - O12   
  7944   7947   7949      1    1.1196e+02    5.7957e+02 ;    C12 - C11    - O11   
  7945   7944   7946      1    1.0835e+02    3.2995e+02 ;    H2R - C12    - H2S   
  7945   7944   7947      1    1.0968e+02    3.9497e+02 ;    H2R - C12    - C11   
  7946   7944   7947      1    1.0968e+02    3.9497e+02 ;    H2S - C12    - C11   
  7947   7949   7950      1    1.1514e+02    5.3246e+02 ;    C11 - O11    - C1    
  7948   7947   7949      1    1.2333e+02    6.3538e+02 ;    O12 - C11    - O11   
  7949   7950   7951      1    1.0882e+02    4.2543e+02 ;    O11 - C1     - HR    
  7949   7950   7952      1    1.0882e+02    4.2543e+02 ;    O11 - C1     - HS    
  7949   7950   7953      1    1.0842e+02    5.6718e+02 ;    O11 - C1     - C2    
  7950   7953   7954      1    1.1007e+02    3.8794e+02 ;     C1 - C2     - HX    
  7950   7953   7955      1    1.1063e+02    5.2894e+02 ;     C1 - C2     - C3    
  7950   7953   7982      1    1.0842e+02    5.6718e+02 ;     C1 - C2     - O21   
  7951   7950   7952      1    1.0955e+02    3.2786e+02 ;     HR - C1     - HS    
  7951   7950   7953      1    1.1007e+02    3.8794e+02 ;     HR - C1     - C2    
  7952   7950   7953      1    1.1007e+02    3.8794e+02 ;     HS - C1     - C2    
  7953   7955   7956      1    1.1007e+02    3.8794e+02 ;     C2 - C3     - HA    
  7953   7955   7957      1    1.1007e+02    3.8794e+02 ;     C2 - C3     - HB    
  7953   7955   7958      1    1.0842e+02    5.6718e+02 ;     C2 - C3     - O31   
  7953   7982   7983      1    1.1514e+02    5.3246e+02 ;     C2 - O21    - C21   
  7954   7953   7955      1    1.1007e+02    3.8794e+02 ;     HX - C2     - C3    
  7954   7953   7982      1    1.0882e+02    4.2543e+02 ;     HX - C2     - O21   
  7955   7953   7982      1    1.0842e+02    5.6718e+02 ;     C3 - C2     - O21   
  7955   7958   7959      1    1.2050e+02    8.3680e+02 ;     C3 - O31    - P31   
  7956   7955   7957      1    1.0955e+02    3.2786e+02 ;     HA - C3     - HB    
  7956   7955   7958      1    1.0882e+02    4.2543e+02 ;     HA - C3     - O31   
  7957   7955   7958      1    1.0882e+02    4.2543e+02 ;     HB - C3     - O31   
  7958   7959   7960      1    1.0260e+02    7.5312e+02 ;    O31 - P31    - O32   
  7958   7959   7980      1    1.0823e+02    8.3680e+02 ;    O31 - P31    - O33   
  7958   7959   7981      1    1.0823e+02    8.3680e+02 ;    O31 - P31    - O34   
  7959   7960   7961      1    1.2050e+02    8.3680e+02 ;    P31 - O32    - C31   
  7960   7959   7980      1    1.0823e+02    8.3680e+02 ;    O32 - P31    - O33   
  7960   7959   7981      1    1.0823e+02    8.3680e+02 ;    O32 - P31    - O34   
  7960   7961   7962      1    1.0882e+02    4.2543e+02 ;    O32 - C31    - H1A   
  7960   7961   7963      1    1.0882e+02    4.2543e+02 ;    O32 - C31    - H1B   
  7960   7961   7964      1    1.0842e+02    5.6718e+02 ;    O32 - C31    - C32   
  7961   7964   7965      1    1.1174e+02    3.8510e+02 ;    C31 - C32    - H2A   
  7961   7964   7966      1    1.1174e+02    3.8510e+02 ;    C31 - C32    - H2B   
  7961   7964   7967      1    1.1432e+02    5.3932e+02 ;    C31 - C32    - N31   
  7962   7961   7963      1    1.0955e+02    3.2786e+02 ;    H1A - C31    - H1B   
  7962   7961   7964      1    1.1007e+02    3.8794e+02 ;    H1A - C31    - C32   
  7963   7961   7964      1    1.1007e+02    3.8794e+02 ;    H1B - C31    - C32   
  7964   7967   7968      1    1.1064e+02    5.2585e+02 ;    C32 - N31    - C33   
  7964   7967   7972      1    1.1064e+02    5.2585e+02 ;    C32 - N31    - C34   
  7964   7967   7976      1    1.1064e+02    5.2585e+02 ;    C32 - N31    - C35   
  7965   7964   7966      1    1.1074e+02    3.2669e+02 ;    H2A - C32    - H2B   
  7965   7964   7967      1    1.0791e+02    4.1020e+02 ;    H2A - C32    - N31   
  7966   7964   7967      1    1.0791e+02    4.1020e+02 ;    H2B - C32    - N31   
  7967   7968   7969      1    1.0791e+02    4.1020e+02 ;    N31 - C33    - H3A   
  7967   7968   7970      1    1.0791e+02    4.1020e+02 ;    N31 - C33    - H3B   
  7967   7968   7971      1    1.0791e+02    4.1020e+02 ;    N31 - C33    - H3C   
  7967   7972   7973      1    1.0791e+02    4.1020e+02 ;    N31 - C34    - H4A   
  7967   7972   7974      1    1.0791e+02    4.1020e+02 ;    N31 - C34    - H4B   
  7967   7972   7975      1    1.0791e+02    4.1020e+02 ;    N31 - C34    - H4C   
  7967   7976   7977      1    1.0791e+02    4.1020e+02 ;    N31 - C35    - H5A   
  7967   7976   7978      1    1.0791e+02    4.1020e+02 ;    N31 - C35    - H5B   
  7967   7976   7979      1    1.0791e+02    4.1020e+02 ;    N31 - C35    - H5C   
  7968   7967   7972      1    1.1064e+02    5.2585e+02 ;    C33 - N31    - C34   
  7968   7967   7976      1    1.1064e+02    5.2585e+02 ;    C33 - N31    - C35   
  7969   7968   7970      1    1.1074e+02    3.2669e+02 ;    H3A - C33    - H3B   
  7969   7968   7971      1    1.1074e+02    3.2669e+02 ;    H3A - C33    - H3C   
  7970   7968   7971      1    1.1074e+02    3.2669e+02 ;    H3B - C33    - H3C   
  7972   7967   7976      1    1.1064e+02    5.2585e+02 ;    C34 - N31    - C35   
  7973   7972   7974      1    1.1074e+02    3.2669e+02 ;    H4A - C34    - H4B   
  7973   7972   7975      1    1.1074e+02    3.2669e+02 ;    H4A - C34    - H4C   
  7974   7972   7975      1    1.1074e+02    3.2669e+02 ;    H4B - C34    - H4C   
  7977   7976   7978      1    1.1074e+02    3.2669e+02 ;    H5A - C35    - H5B   
  7977   7976   7979      1    1.1074e+02    3.2669e+02 ;    H5A - C35    - H5C   
  7978   7976   7979      1    1.1074e+02    3.2669e+02 ;    H5B - C35    - H5C   
  7980   7959   7981      1    1.1990e+02    1.1715e+03 ;    O33 - P31    - O34   
  7982   7983   7984      1    1.2333e+02    6.3538e+02 ;    O21 - C21    - O22   
  7982   7983   8022      1    1.1196e+02    5.7957e+02 ;    O21 - C21    - C12   
  7983   8022   8019      1    1.1053e+02    5.3379e+02 ;    C21 - C12    - C13   
  7983   8022   8023      1    1.0968e+02    3.9497e+02 ;    C21 - C12    - H2R   
  7983   8022   8024      1    1.0968e+02    3.9497e+02 ;    C21 - C12    - H2S   
  7984   7983   8022      1    1.2311e+02    5.6928e+02 ;    O22 - C21    - C12   
  7985   7986   7987      1    1.0835e+02    3.2995e+02 ;   H14T - C114   - H14R  
  7985   7986   7988      1    1.0835e+02    3.2995e+02 ;   H14T - C114   - H14S  
  7985   7986   7989      1    1.1005e+02    3.8802e+02 ;   H14T - C114   - C113  
  7986   7989   7990      1    1.1005e+02    3.8802e+02 ;   C114 - C113   - H13R  
  7986   7989   7991      1    1.1005e+02    3.8802e+02 ;   C114 - C113   - H13S  
  7986   7989   7992      1    1.1205e+02    3.9497e+02 ;   C114 - C113   - C112  
  7987   7986   7988      1    1.0835e+02    3.2995e+02 ;   H14R - C114   - H14S  
  7987   7986   7989      1    1.1005e+02    3.8802e+02 ;   H14R - C114   - C113  
  7988   7986   7989      1    1.1005e+02    3.8802e+02 ;   H14S - C114   - C113  
  7989   7992   7993      1    1.1005e+02    3.8802e+02 ;   C113 - C112   - H12R  
  7989   7992   7994      1    1.1005e+02    3.8802e+02 ;   C113 - C112   - H12S  
  7989   7992   7995      1    1.1205e+02    3.9497e+02 ;   C113 - C112   - C111  
  7990   7989   7991      1    1.0835e+02    3.2995e+02 ;   H13R - C113   - H13S  
  7990   7989   7992      1    1.1005e+02    3.8802e+02 ;   H13R - C113   - C112  
  7991   7989   7992      1    1.1005e+02    3.8802e+02 ;   H13S - C113   - C112  
  7992   7995   7996      1    1.1005e+02    3.8802e+02 ;   C112 - C111   - H11R  
  7992   7995   7997      1    1.1005e+02    3.8802e+02 ;   C112 - C111   - H11S  
  7992   7995   7998      1    1.1205e+02    3.9497e+02 ;   C112 - C111   - C110  
  7993   7992   7994      1    1.0835e+02    3.2995e+02 ;   H12R - C112   - H12S  
  7993   7992   7995      1    1.1005e+02    3.8802e+02 ;   H12R - C112   - C111  
  7994   7992   7995      1    1.1005e+02    3.8802e+02 ;   H12S - C112   - C111  
  7995   7998   7999      1    1.1005e+02    3.8802e+02 ;   C111 - C110   - H10R  
  7995   7998   8000      1    1.1005e+02    3.8802e+02 ;   C111 - C110   - H10S  
  7995   7998   8001      1    1.1205e+02    3.9497e+02 ;   C111 - C110   - C19   
  7996   7995   7997      1    1.0835e+02    3.2995e+02 ;   H11R - C111   - H11S  
  7996   7995   7998      1    1.1005e+02    3.8802e+02 ;   H11R - C111   - C110  
  7997   7995   7998      1    1.1005e+02    3.8802e+02 ;   H11S - C111   - C110  
  7998   8001   8002      1    1.1005e+02    3.8802e+02 ;   C110 - C19    - H9R   
  7998   8001   8003      1    1.1005e+02    3.8802e+02 ;   C110 - C19    - H9S   
  7998   8001   8004      1    1.1205e+02    3.9497e+02 ;   C110 - C19    - C18   
  7999   7998   8000      1    1.0835e+02    3.2995e+02 ;   H10R - C110   - H10S  
  7999   7998   8001      1    1.1005e+02    3.8802e+02 ;   H10R - C110   - C19   
  8000   7998   8001      1    1.1005e+02    3.8802e+02 ;   H10S - C110   - C19   
  8001   8004   8005      1    1.1005e+02    3.8802e+02 ;    C19 - C18    - H8R   
  8001   8004   8006      1    1.1005e+02    3.8802e+02 ;    C19 - C18    - H8S   
  8001   8004   8007      1    1.1205e+02    3.9497e+02 ;    C19 - C18    - C17   
  8002   8001   8003      1    1.0835e+02    3.2995e+02 ;    H9R - C19    - H9S   
  8002   8001   8004      1    1.1005e+02    3.8802e+02 ;    H9R - C19    - C18   
  8003   8001   8004      1    1.1005e+02    3.8802e+02 ;    H9S - C19    - C18   
  8004   8007   8008      1    1.1005e+02    3.8802e+02 ;    C18 - C17    - H7R   
  8004   8007   8009      1    1.1005e+02    3.8802e+02 ;    C18 - C17    - H7S   
  8004   8007   8010      1    1.1205e+02    3.9497e+02 ;    C18 - C17    - C16   
  8005   8004   8006      1    1.0835e+02    3.2995e+02 ;    H8R - C18    - H8S   
  8005   8004   8007      1    1.1005e+02    3.8802e+02 ;    H8R - C18    - C17   
  8006   8004   8007      1    1.1005e+02    3.8802e+02 ;    H8S - C18    - C17   
  8007   8010   8011      1    1.1005e+02    3.8802e+02 ;    C17 - C16    - H6R   
  8007   8010   8012      1    1.1005e+02    3.8802e+02 ;    C17 - C16    - H6S   
  8007   8010   8013      1    1.1205e+02    3.9497e+02 ;    C17 - C16    - C15   
  8008   8007   8009      1    1.0835e+02    3.2995e+02 ;    H7R - C17    - H7S   
  8008   8007   8010      1    1.1005e+02    3.8802e+02 ;    H7R - C17    - C16   
  8009   8007   8010      1    1.1005e+02    3.8802e+02 ;    H7S - C17    - C16   
  8010   8013   8014      1    1.1005e+02    3.8802e+02 ;    C16 - C15    - H5R   
  8010   8013   8015      1    1.1005e+02    3.8802e+02 ;    C16 - C15    - H5S   
  8010   8013   8016      1    1.1205e+02    3.9497e+02 ;    C16 - C15    - C14   
  8011   8010   8012      1    1.0835e+02    3.2995e+02 ;    H6R - C16    - H6S   
  8011   8010   8013      1    1.1005e+02    3.8802e+02 ;    H6R - C16    - C15   
  8012   8010   8013      1    1.1005e+02    3.8802e+02 ;    H6S - C16    - C15   
  8013   8016   8017      1    1.1005e+02    3.8802e+02 ;    C15 - C14    - H4R   
  8013   8016   8018      1    1.1005e+02    3.8802e+02 ;    C15 - C14    - H4S   
  8013   8016   8019      1    1.1205e+02    3.9497e+02 ;    C15 - C14    - C13   
  8014   8013   8015      1    1.0835e+02    3.2995e+02 ;    H5R - C15    - H5S   
  8014   8013   8016      1    1.1005e+02    3.8802e+02 ;    H5R - C15    - C14   
  8015   8013   8016      1    1.1005e+02    3.8802e+02 ;    H5S - C15    - C14   
  8016   8019   8020      1    1.1005e+02    3.8802e+02 ;    C14 - C13    - H3R   
  8016   8019   8021      1    1.1005e+02    3.8802e+02 ;    C14 - C13    - H3S   
  8016   8019   8022      1    1.1205e+02    3.9497e+02 ;    C14 - C13    - C12   
  8017   8016   8018      1    1.0835e+02    3.2995e+02 ;    H4R - C14    - H4S   
  8017   8016   8019      1    1.1005e+02    3.8802e+02 ;    H4R - C14    - C13   
  8018   8016   8019      1    1.1005e+02    3.8802e+02 ;    H4S - C14    - C13   
  8019   8022   8023      1    1.1005e+02    3.8802e+02 ;    C13 - C12    - H2R   
  8019   8022   8024      1    1.1005e+02    3.8802e+02 ;    C13 - C12    - H2S   
  8020   8019   8021      1    1.0835e+02    3.2995e+02 ;    H3R - C13    - H3S   
  8020   8019   8022      1    1.1005e+02    3.8802e+02 ;    H3R - C13    - C12   
  8021   8019   8022      1    1.1005e+02    3.8802e+02 ;    H3S - C13    - C12   
  8023   8022   8024      1    1.0835e+02    3.2995e+02 ;    H2R - C12    - H2S   
  8025   8026   8027      1    1.0835e+02    3.2995e+02 ;   H14T - C114   - H14R  
  8025   8026   8028      1    1.0835e+02    3.2995e+02 ;   H14T - C114   - H14S  
  8025   8026   8029      1    1.1005e+02    3.8802e+02 ;   H14T - C114   - C113  
  8026   8029   8030      1    1.1005e+02    3.8802e+02 ;   C114 - C113   - H13R  
  8026   8029   8031      1    1.1005e+02    3.8802e+02 ;   C114 - C113   - H13S  
  8026   8029   8032      1    1.1205e+02    3.9497e+02 ;   C114 - C113   - C112  
  8027   8026   8028      1    1.0835e+02    3.2995e+02 ;   H14R - C114   - H14S  
  8027   8026   8029      1    1.1005e+02    3.8802e+02 ;   H14R - C114   - C113  
  8028   8026   8029      1    1.1005e+02    3.8802e+02 ;   H14S - C114   - C113  
  8029   8032   8033      1    1.1005e+02    3.8802e+02 ;   C113 - C112   - H12R  
  8029   8032   8034      1    1.1005e+02    3.8802e+02 ;   C113 - C112   - H12S  
  8029   8032   8035      1    1.1205e+02    3.9497e+02 ;   C113 - C112   - C111  
  8030   8029   8031      1    1.0835e+02    3.2995e+02 ;   H13R - C113   - H13S  
  8030   8029   8032      1    1.1005e+02    3.8802e+02 ;   H13R - C113   - C112  
  8031   8029   8032      1    1.1005e+02    3.8802e+02 ;   H13S - C113   - C112  
  8032   8035   8036      1    1.1005e+02    3.8802e+02 ;   C112 - C111   - H11R  
  8032   8035   8037      1    1.1005e+02    3.8802e+02 ;   C112 - C111   - H11S  
  8032   8035   8038      1    1.1205e+02    3.9497e+02 ;   C112 - C111   - C110  
  8033   8032   8034      1    1.0835e+02    3.2995e+02 ;   H12R - C112   - H12S  
  8033   8032   8035      1    1.1005e+02    3.8802e+02 ;   H12R - C112   - C111  
  8034   8032   8035      1    1.1005e+02    3.8802e+02 ;   H12S - C112   - C111  
  8035   8038   8039      1    1.1005e+02    3.8802e+02 ;   C111 - C110   - H10R  
  8035   8038   8040      1    1.1005e+02    3.8802e+02 ;   C111 - C110   - H10S  
  8035   8038   8041      1    1.1205e+02    3.9497e+02 ;   C111 - C110   - C19   
  8036   8035   8037      1    1.0835e+02    3.2995e+02 ;   H11R - C111   - H11S  
  8036   8035   8038      1    1.1005e+02    3.8802e+02 ;   H11R - C111   - C110  
  8037   8035   8038      1    1.1005e+02    3.8802e+02 ;   H11S - C111   - C110  
  8038   8041   8042      1    1.1005e+02    3.8802e+02 ;   C110 - C19    - H9R   
  8038   8041   8043      1    1.1005e+02    3.8802e+02 ;   C110 - C19    - H9S   
  8038   8041   8044      1    1.1205e+02    3.9497e+02 ;   C110 - C19    - C18   
  8039   8038   8040      1    1.0835e+02    3.2995e+02 ;   H10R - C110   - H10S  
  8039   8038   8041      1    1.1005e+02    3.8802e+02 ;   H10R - C110   - C19   
  8040   8038   8041      1    1.1005e+02    3.8802e+02 ;   H10S - C110   - C19   
  8041   8044   8045      1    1.1005e+02    3.8802e+02 ;    C19 - C18    - H8R   
  8041   8044   8046      1    1.1005e+02    3.8802e+02 ;    C19 - C18    - H8S   
  8041   8044   8047      1    1.1205e+02    3.9497e+02 ;    C19 - C18    - C17   
  8042   8041   8043      1    1.0835e+02    3.2995e+02 ;    H9R - C19    - H9S   
  8042   8041   8044      1    1.1005e+02    3.8802e+02 ;    H9R - C19    - C18   
  8043   8041   8044      1    1.1005e+02    3.8802e+02 ;    H9S - C19    - C18   
  8044   8047   8048      1    1.1005e+02    3.8802e+02 ;    C18 - C17    - H7R   
  8044   8047   8049      1    1.1005e+02    3.8802e+02 ;    C18 - C17    - H7S   
  8044   8047   8050      1    1.1205e+02    3.9497e+02 ;    C18 - C17    - C16   
  8045   8044   8046      1    1.0835e+02    3.2995e+02 ;    H8R - C18    - H8S   
  8045   8044   8047      1    1.1005e+02    3.8802e+02 ;    H8R - C18    - C17   
  8046   8044   8047      1    1.1005e+02    3.8802e+02 ;    H8S - C18    - C17   
  8047   8050   8051      1    1.1005e+02    3.8802e+02 ;    C17 - C16    - H6R   
  8047   8050   8052      1    1.1005e+02    3.8802e+02 ;    C17 - C16    - H6S   
  8047   8050   8053      1    1.1205e+02    3.9497e+02 ;    C17 - C16    - C15   
  8048   8047   8049      1    1.0835e+02    3.2995e+02 ;    H7R - C17    - H7S   
  8048   8047   8050      1    1.1005e+02    3.8802e+02 ;    H7R - C17    - C16   
  8049   8047   8050      1    1.1005e+02    3.8802e+02 ;    H7S - C17    - C16   
  8050   8053   8054      1    1.1005e+02    3.8802e+02 ;    C16 - C15    - H5R   
  8050   8053   8055      1    1.1005e+02    3.8802e+02 ;    C16 - C15    - H5S   
  8050   8053   8056      1    1.1205e+02    3.9497e+02 ;    C16 - C15    - C14   
  8051   8050   8052      1    1.0835e+02    3.2995e+02 ;    H6R - C16    - H6S   
  8051   8050   8053      1    1.1005e+02    3.8802e+02 ;    H6R - C16    - C15   
  8052   8050   8053      1    1.1005e+02    3.8802e+02 ;    H6S - C16    - C15   
  8053   8056   8057      1    1.1005e+02    3.8802e+02 ;    C15 - C14    - H4R   
  8053   8056   8058      1    1.1005e+02    3.8802e+02 ;    C15 - C14    - H4S   
  8053   8056   8059      1    1.1205e+02    3.9497e+02 ;    C15 - C14    - C13   
  8054   8053   8055      1    1.0835e+02    3.2995e+02 ;    H5R - C15    - H5S   
  8054   8053   8056      1    1.1005e+02    3.8802e+02 ;    H5R - C15    - C14   
  8055   8053   8056      1    1.1005e+02    3.8802e+02 ;    H5S - C15    - C14   
  8056   8059   8060      1    1.1005e+02    3.8802e+02 ;    C14 - C13    - H3R   
  8056   8059   8061      1    1.1005e+02    3.8802e+02 ;    C14 - C13    - H3S   
  8056   8059   8062      1    1.1205e+02    3.9497e+02 ;    C14 - C13    - C12   
  8057   8056   8058      1    1.0835e+02    3.2995e+02 ;    H4R - C14    - H4S   
  8057   8056   8059      1    1.1005e+02    3.8802e+02 ;    H4R - C14    - C13   
  8058   8056   8059      1    1.1005e+02    3.8802e+02 ;    H4S - C14    - C13   
  8059   8062   8063      1    1.1005e+02    3.8802e+02 ;    C13 - C12    - H2R   
  8059   8062   8064      1    1.1005e+02    3.8802e+02 ;    C13 - C12    - H2S   
  8059   8062   8065      1    1.1053e+02    5.3379e+02 ;    C13 - C12    - C11   
  8060   8059   8061      1    1.0835e+02    3.2995e+02 ;    H3R - C13    - H3S   
  8060   8059   8062      1    1.1005e+02    3.8802e+02 ;    H3R - C13    - C12   
  8061   8059   8062      1    1.1005e+02    3.8802e+02 ;    H3S - C13    - C12   
  8062   8065   8066      1    1.2311e+02    5.6928e+02 ;    C12 - C11    - O12   
  8062   8065   8067      1    1.1196e+02    5.7957e+02 ;    C12 - C11    - O11   
  8063   8062   8064      1    1.0835e+02    3.2995e+02 ;    H2R - C12    - H2S   
  8063   8062   8065      1    1.0968e+02    3.9497e+02 ;    H2R - C12    - C11   
  8064   8062   8065      1    1.0968e+02    3.9497e+02 ;    H2S - C12    - C11   
  8065   8067   8068      1    1.1514e+02    5.3246e+02 ;    C11 - O11    - C1    
  8066   8065   8067      1    1.2333e+02    6.3538e+02 ;    O12 - C11    - O11   
  8067   8068   8069      1    1.0882e+02    4.2543e+02 ;    O11 - C1     - HR    
  8067   8068   8070      1    1.0882e+02    4.2543e+02 ;    O11 - C1     - HS    
  8067   8068   8071      1    1.0842e+02    5.6718e+02 ;    O11 - C1     - C2    
  8068   8071   8072      1    1.1007e+02    3.8794e+02 ;     C1 - C2     - HX    
  8068   8071   8073      1    1.1063e+02    5.2894e+02 ;     C1 - C2     - C3    
  8068   8071   8100      1    1.0842e+02    5.6718e+02 ;     C1 - C2     - O21   
  8069   8068   8070      1    1.0955e+02    3.2786e+02 ;     HR - C1     - HS    
  8069   8068   8071      1    1.1007e+02    3.8794e+02 ;     HR - C1     - C2    
  8070   8068   8071      1    1.1007e+02    3.8794e+02 ;     HS - C1     - C2    
  8071   8073   8074      1    1.1007e+02    3.8794e+02 ;     C2 - C3     - HA    
  8071   8073   8075      1    1.1007e+02    3.8794e+02 ;     C2 - C3     - HB    
  8071   8073   8076      1    1.0842e+02    5.6718e+02 ;     C2 - C3     - O31   
  8071   8100   8101      1    1.1514e+02    5.3246e+02 ;     C2 - O21    - C21   
  8072   8071   8073      1    1.1007e+02    3.8794e+02 ;     HX - C2     - C3    
  8072   8071   8100      1    1.0882e+02    4.2543e+02 ;     HX - C2     - O21   
  8073   8071   8100      1    1.0842e+02    5.6718e+02 ;     C3 - C2     - O21   
  8073   8076   8077      1    1.2050e+02    8.3680e+02 ;     C3 - O31    - P31   
  8074   8073   8075      1    1.0955e+02    3.2786e+02 ;     HA - C3     - HB    
  8074   8073   8076      1    1.0882e+02    4.2543e+02 ;     HA - C3     - O31   
  8075   8073   8076      1    1.0882e+02    4.2543e+02 ;     HB - C3     - O31   
  8076   8077   8078      1    1.0260e+02    7.5312e+02 ;    O31 - P31    - O32   
  8076   8077   8098      1    1.0823e+02    8.3680e+02 ;    O31 - P31    - O33   
  8076   8077   8099      1    1.0823e+02    8.3680e+02 ;    O31 - P31    - O34   
  8077   8078   8079      1    1.2050e+02    8.3680e+02 ;    P31 - O32    - C31   
  8078   8077   8098      1    1.0823e+02    8.3680e+02 ;    O32 - P31    - O33   
  8078   8077   8099      1    1.0823e+02    8.3680e+02 ;    O32 - P31    - O34   
  8078   8079   8080      1    1.0882e+02    4.2543e+02 ;    O32 - C31    - H1A   
  8078   8079   8081      1    1.0882e+02    4.2543e+02 ;    O32 - C31    - H1B   
  8078   8079   8082      1    1.0842e+02    5.6718e+02 ;    O32 - C31    - C32   
  8079   8082   8083      1    1.1174e+02    3.8510e+02 ;    C31 - C32    - H2A   
  8079   8082   8084      1    1.1174e+02    3.8510e+02 ;    C31 - C32    - H2B   
  8079   8082   8085      1    1.1432e+02    5.3932e+02 ;    C31 - C32    - N31   
  8080   8079   8081      1    1.0955e+02    3.2786e+02 ;    H1A - C31    - H1B   
  8080   8079   8082      1    1.1007e+02    3.8794e+02 ;    H1A - C31    - C32   
  8081   8079   8082      1    1.1007e+02    3.8794e+02 ;    H1B - C31    - C32   
  8082   8085   8086      1    1.1064e+02    5.2585e+02 ;    C32 - N31    - C33   
  8082   8085   8090      1    1.1064e+02    5.2585e+02 ;    C32 - N31    - C34   
  8082   8085   8094      1    1.1064e+02    5.2585e+02 ;    C32 - N31    - C35   
  8083   8082   8084      1    1.1074e+02    3.2669e+02 ;    H2A - C32    - H2B   
  8083   8082   8085      1    1.0791e+02    4.1020e+02 ;    H2A - C32    - N31   
  8084   8082   8085      1    1.0791e+02    4.1020e+02 ;    H2B - C32    - N31   
  8085   8086   8087      1    1.0791e+02    4.1020e+02 ;    N31 - C33    - H3A   
  8085   8086   8088      1    1.0791e+02    4.1020e+02 ;    N31 - C33    - H3B   
  8085   8086   8089      1    1.0791e+02    4.1020e+02 ;    N31 - C33    - H3C   
  8085   8090   8091      1    1.0791e+02    4.1020e+02 ;    N31 - C34    - H4A   
  8085   8090   8092      1    1.0791e+02    4.1020e+02 ;    N31 - C34    - H4B   
  8085   8090   8093      1    1.0791e+02    4.1020e+02 ;    N31 - C34    - H4C   
  8085   8094   8095      1    1.0791e+02    4.1020e+02 ;    N31 - C35    - H5A   
  8085   8094   8096      1    1.0791e+02    4.1020e+02 ;    N31 - C35    - H5B   
  8085   8094   8097      1    1.0791e+02    4.1020e+02 ;    N31 - C35    - H5C   
  8086   8085   8090      1    1.1064e+02    5.2585e+02 ;    C33 - N31    - C34   
  8086   8085   8094      1    1.1064e+02    5.2585e+02 ;    C33 - N31    - C35   
  8087   8086   8088      1    1.1074e+02    3.2669e+02 ;    H3A - C33    - H3B   
  8087   8086   8089      1    1.1074e+02    3.2669e+02 ;    H3A - C33    - H3C   
  8088   8086   8089      1    1.1074e+02    3.2669e+02 ;    H3B - C33    - H3C   
  8090   8085   8094      1    1.1064e+02    5.2585e+02 ;    C34 - N31    - C35   
  8091   8090   8092      1    1.1074e+02    3.2669e+02 ;    H4A - C34    - H4B   
  8091   8090   8093      1    1.1074e+02    3.2669e+02 ;    H4A - C34    - H4C   
  8092   8090   8093      1    1.1074e+02    3.2669e+02 ;    H4B - C34    - H4C   
  8095   8094   8096      1    1.1074e+02    3.2669e+02 ;    H5A - C35    - H5B   
  8095   8094   8097      1    1.1074e+02    3.2669e+02 ;    H5A - C35    - H5C   
  8096   8094   8097      1    1.1074e+02    3.2669e+02 ;    H5B - C35    - H5C   
  8098   8077   8099      1    1.1990e+02    1.1715e+03 ;    O33 - P31    - O34   
  8100   8101   8102      1    1.2333e+02    6.3538e+02 ;    O21 - C21    - O22   
  8100   8101   8140      1    1.1196e+02    5.7957e+02 ;    O21 - C21    - C12   
  8101   8140   8137      1    1.1053e+02    5.3379e+02 ;    C21 - C12    - C13   
  8101   8140   8141      1    1.0968e+02    3.9497e+02 ;    C21 - C12    - H2R   
  8101   8140   8142      1    1.0968e+02    3.9497e+02 ;    C21 - C12    - H2S   
  8102   8101   8140      1    1.2311e+02    5.6928e+02 ;    O22 - C21    - C12   
  8103   8104   8105      1    1.0835e+02    3.2995e+02 ;   H14T - C114   - H14R  
  8103   8104   8106      1    1.0835e+02    3.2995e+02 ;   H14T - C114   - H14S  
  8103   8104   8107      1    1.1005e+02    3.8802e+02 ;   H14T - C114   - C113  
  8104   8107   8108      1    1.1005e+02    3.8802e+02 ;   C114 - C113   - H13R  
  8104   8107   8109      1    1.1005e+02    3.8802e+02 ;   C114 - C113   - H13S  
  8104   8107   8110      1    1.1205e+02    3.9497e+02 ;   C114 - C113   - C112  
  8105   8104   8106      1    1.0835e+02    3.2995e+02 ;   H14R - C114   - H14S  
  8105   8104   8107      1    1.1005e+02    3.8802e+02 ;   H14R - C114   - C113  
  8106   8104   8107      1    1.1005e+02    3.8802e+02 ;   H14S - C114   - C113  
  8107   8110   8111      1    1.1005e+02    3.8802e+02 ;   C113 - C112   - H12R  
  8107   8110   8112      1    1.1005e+02    3.8802e+02 ;   C113 - C112   - H12S  
  8107   8110   8113      1    1.1205e+02    3.9497e+02 ;   C113 - C112   - C111  
  8108   8107   8109      1    1.0835e+02    3.2995e+02 ;   H13R - C113   - H13S  
  8108   8107   8110      1    1.1005e+02    3.8802e+02 ;   H13R - C113   - C112  
  8109   8107   8110      1    1.1005e+02    3.8802e+02 ;   H13S - C113   - C112  
  8110   8113   8114      1    1.1005e+02    3.8802e+02 ;   C112 - C111   - H11R  
  8110   8113   8115      1    1.1005e+02    3.8802e+02 ;   C112 - C111   - H11S  
  8110   8113   8116      1    1.1205e+02    3.9497e+02 ;   C112 - C111   - C110  
  8111   8110   8112      1    1.0835e+02    3.2995e+02 ;   H12R - C112   - H12S  
  8111   8110   8113      1    1.1005e+02    3.8802e+02 ;   H12R - C112   - C111  
  8112   8110   8113      1    1.1005e+02    3.8802e+02 ;   H12S - C112   - C111  
  8113   8116   8117      1    1.1005e+02    3.8802e+02 ;   C111 - C110   - H10R  
  8113   8116   8118      1    1.1005e+02    3.8802e+02 ;   C111 - C110   - H10S  
  8113   8116   8119      1    1.1205e+02    3.9497e+02 ;   C111 - C110   - C19   
  8114   8113   8115      1    1.0835e+02    3.2995e+02 ;   H11R - C111   - H11S  
  8114   8113   8116      1    1.1005e+02    3.8802e+02 ;   H11R - C111   - C110  
  8115   8113   8116      1    1.1005e+02    3.8802e+02 ;   H11S - C111   - C110  
  8116   8119   8120      1    1.1005e+02    3.8802e+02 ;   C110 - C19    - H9R   
  8116   8119   8121      1    1.1005e+02    3.8802e+02 ;   C110 - C19    - H9S   
  8116   8119   8122      1    1.1205e+02    3.9497e+02 ;   C110 - C19    - C18   
  8117   8116   8118      1    1.0835e+02    3.2995e+02 ;   H10R - C110   - H10S  
  8117   8116   8119      1    1.1005e+02    3.8802e+02 ;   H10R - C110   - C19   
  8118   8116   8119      1    1.1005e+02    3.8802e+02 ;   H10S - C110   - C19   
  8119   8122   8123      1    1.1005e+02    3.8802e+02 ;    C19 - C18    - H8R   
  8119   8122   8124      1    1.1005e+02    3.8802e+02 ;    C19 - C18    - H8S   
  8119   8122   8125      1    1.1205e+02    3.9497e+02 ;    C19 - C18    - C17   
  8120   8119   8121      1    1.0835e+02    3.2995e+02 ;    H9R - C19    - H9S   
  8120   8119   8122      1    1.1005e+02    3.8802e+02 ;    H9R - C19    - C18   
  8121   8119   8122      1    1.1005e+02    3.8802e+02 ;    H9S - C19    - C18   
  8122   8125   8126      1    1.1005e+02    3.8802e+02 ;    C18 - C17    - H7R   
  8122   8125   8127      1    1.1005e+02    3.8802e+02 ;    C18 - C17    - H7S   
  8122   8125   8128      1    1.1205e+02    3.9497e+02 ;    C18 - C17    - C16   
  8123   8122   8124      1    1.0835e+02    3.2995e+02 ;    H8R - C18    - H8S   
  8123   8122   8125      1    1.1005e+02    3.8802e+02 ;    H8R - C18    - C17   
  8124   8122   8125      1    1.1005e+02    3.8802e+02 ;    H8S - C18    - C17   
  8125   8128   8129      1    1.1005e+02    3.8802e+02 ;    C17 - C16    - H6R   
  8125   8128   8130      1    1.1005e+02    3.8802e+02 ;    C17 - C16    - H6S   
  8125   8128   8131      1    1.1205e+02    3.9497e+02 ;    C17 - C16    - C15   
  8126   8125   8127      1    1.0835e+02    3.2995e+02 ;    H7R - C17    - H7S   
  8126   8125   8128      1    1.1005e+02    3.8802e+02 ;    H7R - C17    - C16   
  8127   8125   8128      1    1.1005e+02    3.8802e+02 ;    H7S - C17    - C16   
  8128   8131   8132      1    1.1005e+02    3.8802e+02 ;    C16 - C15    - H5R   
  8128   8131   8133      1    1.1005e+02    3.8802e+02 ;    C16 - C15    - H5S   
  8128   8131   8134      1    1.1205e+02    3.9497e+02 ;    C16 - C15    - C14   
  8129   8128   8130      1    1.0835e+02    3.2995e+02 ;    H6R - C16    - H6S   
  8129   8128   8131      1    1.1005e+02    3.8802e+02 ;    H6R - C16    - C15   
  8130   8128   8131      1    1.1005e+02    3.8802e+02 ;    H6S - C16    - C15   
  8131   8134   8135      1    1.1005e+02    3.8802e+02 ;    C15 - C14    - H4R   
  8131   8134   8136      1    1.1005e+02    3.8802e+02 ;    C15 - C14    - H4S   
  8131   8134   8137      1    1.1205e+02    3.9497e+02 ;    C15 - C14    - C13   
  8132   8131   8133      1    1.0835e+02    3.2995e+02 ;    H5R - C15    - H5S   
  8132   8131   8134      1    1.1005e+02    3.8802e+02 ;    H5R - C15    - C14   
  8133   8131   8134      1    1.1005e+02    3.8802e+02 ;    H5S - C15    - C14   
  8134   8137   8138      1    1.1005e+02    3.8802e+02 ;    C14 - C13    - H3R   
  8134   8137   8139      1    1.1005e+02    3.8802e+02 ;    C14 - C13    - H3S   
  8134   8137   8140      1    1.1205e+02    3.9497e+02 ;    C14 - C13    - C12   
  8135   8134   8136      1    1.0835e+02    3.2995e+02 ;    H4R - C14    - H4S   
  8135   8134   8137      1    1.1005e+02    3.8802e+02 ;    H4R - C14    - C13   
  8136   8134   8137      1    1.1005e+02    3.8802e+02 ;    H4S - C14    - C13   
  8137   8140   8141      1    1.1005e+02    3.8802e+02 ;    C13 - C12    - H2R   
  8137   8140   8142      1    1.1005e+02    3.8802e+02 ;    C13 - C12    - H2S   
  8138   8137   8139      1    1.0835e+02    3.2995e+02 ;    H3R - C13    - H3S   
  8138   8137   8140      1    1.1005e+02    3.8802e+02 ;    H3R - C13    - C12   
  8139   8137   8140      1    1.1005e+02    3.8802e+02 ;    H3S - C13    - C12   
  8141   8140   8142      1    1.0835e+02    3.2995e+02 ;    H2R - C12    - H2S   
  8143   8144   8145      1    1.0835e+02    3.2995e+02 ;   H14T - C114   - H14R  
  8143   8144   8146      1    1.0835e+02    3.2995e+02 ;   H14T - C114   - H14S  
  8143   8144   8147      1    1.1005e+02    3.8802e+02 ;   H14T - C114   - C113  
  8144   8147   8148      1    1.1005e+02    3.8802e+02 ;   C114 - C113   - H13R  
  8144   8147   8149      1    1.1005e+02    3.8802e+02 ;   C114 - C113   - H13S  
  8144   8147   8150      1    1.1205e+02    3.9497e+02 ;   C114 - C113   - C112  
  8145   8144   8146      1    1.0835e+02    3.2995e+02 ;   H14R - C114   - H14S  
  8145   8144   8147      1    1.1005e+02    3.8802e+02 ;   H14R - C114   - C113  
  8146   8144   8147      1    1.1005e+02    3.8802e+02 ;   H14S - C114   - C113  
  8147   8150   8151      1    1.1005e+02    3.8802e+02 ;   C113 - C112   - H12R  
  8147   8150   8152      1    1.1005e+02    3.8802e+02 ;   C113 - C112   - H12S  
  8147   8150   8153      1    1.1205e+02    3.9497e+02 ;   C113 - C112   - C111  
  8148   8147   8149      1    1.0835e+02    3.2995e+02 ;   H13R - C113   - H13S  
  8148   8147   8150      1    1.1005e+02    3.8802e+02 ;   H13R - C113   - C112  
  8149   8147   8150      1    1.1005e+02    3.8802e+02 ;   H13S - C113   - C112  
  8150   8153   8154      1    1.1005e+02    3.8802e+02 ;   C112 - C111   - H11R  
  8150   8153   8155      1    1.1005e+02    3.8802e+02 ;   C112 - C111   - H11S  
  8150   8153   8156      1    1.1205e+02    3.9497e+02 ;   C112 - C111   - C110  
  8151   8150   8152      1    1.0835e+02    3.2995e+02 ;   H12R - C112   - H12S  
  8151   8150   8153      1    1.1005e+02    3.8802e+02 ;   H12R - C112   - C111  
  8152   8150   8153      1    1.1005e+02    3.8802e+02 ;   H12S - C112   - C111  
  8153   8156   8157      1    1.1005e+02    3.8802e+02 ;   C111 - C110   - H10R  
  8153   8156   8158      1    1.1005e+02    3.8802e+02 ;   C111 - C110   - H10S  
  8153   8156   8159      1    1.1205e+02    3.9497e+02 ;   C111 - C110   - C19   
  8154   8153   8155      1    1.0835e+02    3.2995e+02 ;   H11R - C111   - H11S  
  8154   8153   8156      1    1.1005e+02    3.8802e+02 ;   H11R - C111   - C110  
  8155   8153   8156      1    1.1005e+02    3.8802e+02 ;   H11S - C111   - C110  
  8156   8159   8160      1    1.1005e+02    3.8802e+02 ;   C110 - C19    - H9R   
  8156   8159   8161      1    1.1005e+02    3.8802e+02 ;   C110 - C19    - H9S   
  8156   8159   8162      1    1.1205e+02    3.9497e+02 ;   C110 - C19    - C18   
  8157   8156   8158      1    1.0835e+02    3.2995e+02 ;   H10R - C110   - H10S  
  8157   8156   8159      1    1.1005e+02    3.8802e+02 ;   H10R - C110   - C19   
  8158   8156   8159      1    1.1005e+02    3.8802e+02 ;   H10S - C110   - C19   
  8159   8162   8163      1    1.1005e+02    3.8802e+02 ;    C19 - C18    - H8R   
  8159   8162   8164      1    1.1005e+02    3.8802e+02 ;    C19 - C18    - H8S   
  8159   8162   8165      1    1.1205e+02    3.9497e+02 ;    C19 - C18    - C17   
  8160   8159   8161      1    1.0835e+02    3.2995e+02 ;    H9R - C19    - H9S   
  8160   8159   8162      1    1.1005e+02    3.8802e+02 ;    H9R - C19    - C18   
  8161   8159   8162      1    1.1005e+02    3.8802e+02 ;    H9S - C19    - C18   
  8162   8165   8166      1    1.1005e+02    3.8802e+02 ;    C18 - C17    - H7R   
  8162   8165   8167      1    1.1005e+02    3.8802e+02 ;    C18 - C17    - H7S   
  8162   8165   8168      1    1.1205e+02    3.9497e+02 ;    C18 - C17    - C16   
  8163   8162   8164      1    1.0835e+02    3.2995e+02 ;    H8R - C18    - H8S   
  8163   8162   8165      1    1.1005e+02    3.8802e+02 ;    H8R - C18    - C17   
  8164   8162   8165      1    1.1005e+02    3.8802e+02 ;    H8S - C18    - C17   
  8165   8168   8169      1    1.1005e+02    3.8802e+02 ;    C17 - C16    - H6R   
  8165   8168   8170      1    1.1005e+02    3.8802e+02 ;    C17 - C16    - H6S   
  8165   8168   8171      1    1.1205e+02    3.9497e+02 ;    C17 - C16    - C15   
  8166   8165   8167      1    1.0835e+02    3.2995e+02 ;    H7R - C17    - H7S   
  8166   8165   8168      1    1.1005e+02    3.8802e+02 ;    H7R - C17    - C16   
  8167   8165   8168      1    1.1005e+02    3.8802e+02 ;    H7S - C17    - C16   
  8168   8171   8172      1    1.1005e+02    3.8802e+02 ;    C16 - C15    - H5R   
  8168   8171   8173      1    1.1005e+02    3.8802e+02 ;    C16 - C15    - H5S   
  8168   8171   8174      1    1.1205e+02    3.9497e+02 ;    C16 - C15    - C14   
  8169   8168   8170      1    1.0835e+02    3.2995e+02 ;    H6R - C16    - H6S   
  8169   8168   8171      1    1.1005e+02    3.8802e+02 ;    H6R - C16    - C15   
  8170   8168   8171      1    1.1005e+02    3.8802e+02 ;    H6S - C16    - C15   
  8171   8174   8175      1    1.1005e+02    3.8802e+02 ;    C15 - C14    - H4R   
  8171   8174   8176      1    1.1005e+02    3.8802e+02 ;    C15 - C14    - H4S   
  8171   8174   8177      1    1.1205e+02    3.9497e+02 ;    C15 - C14    - C13   
  8172   8171   8173      1    1.0835e+02    3.2995e+02 ;    H5R - C15    - H5S   
  8172   8171   8174      1    1.1005e+02    3.8802e+02 ;    H5R - C15    - C14   
  8173   8171   8174      1    1.1005e+02    3.8802e+02 ;    H5S - C15    - C14   
  8174   8177   8178      1    1.1005e+02    3.8802e+02 ;    C14 - C13    - H3R   
  8174   8177   8179      1    1.1005e+02    3.8802e+02 ;    C14 - C13    - H3S   
  8174   8177   8180      1    1.1205e+02    3.9497e+02 ;    C14 - C13    - C12   
  8175   8174   8176      1    1.0835e+02    3.2995e+02 ;    H4R - C14    - H4S   
  8175   8174   8177      1    1.1005e+02    3.8802e+02 ;    H4R - C14    - C13   
  8176   8174   8177      1    1.1005e+02    3.8802e+02 ;    H4S - C14    - C13   
  8177   8180   8181      1    1.1005e+02    3.8802e+02 ;    C13 - C12    - H2R   
  8177   8180   8182      1    1.1005e+02    3.8802e+02 ;    C13 - C12    - H2S   
  8177   8180   8183      1    1.1053e+02    5.3379e+02 ;    C13 - C12    - C11   
  8178   8177   8179      1    1.0835e+02    3.2995e+02 ;    H3R - C13    - H3S   
  8178   8177   8180      1    1.1005e+02    3.8802e+02 ;    H3R - C13    - C12   
  8179   8177   8180      1    1.1005e+02    3.8802e+02 ;    H3S - C13    - C12   
  8180   8183   8184      1    1.2311e+02    5.6928e+02 ;    C12 - C11    - O12   
  8180   8183   8185      1    1.1196e+02    5.7957e+02 ;    C12 - C11    - O11   
  8181   8180   8182      1    1.0835e+02    3.2995e+02 ;    H2R - C12    - H2S   
  8181   8180   8183      1    1.0968e+02    3.9497e+02 ;    H2R - C12    - C11   
  8182   8180   8183      1    1.0968e+02    3.9497e+02 ;    H2S - C12    - C11   
  8183   8185   8186      1    1.1514e+02    5.3246e+02 ;    C11 - O11    - C1    
  8184   8183   8185      1    1.2333e+02    6.3538e+02 ;    O12 - C11    - O11   
  8185   8186   8187      1    1.0882e+02    4.2543e+02 ;    O11 - C1     - HR    
  8185   8186   8188      1    1.0882e+02    4.2543e+02 ;    O11 - C1     - HS    
  8185   8186   8189      1    1.0842e+02    5.6718e+02 ;    O11 - C1     - C2    
  8186   8189   8190      1    1.1007e+02    3.8794e+02 ;     C1 - C2     - HX    
  8186   8189   8191      1    1.1063e+02    5.2894e+02 ;     C1 - C2     - C3    
  8186   8189   8218      1    1.0842e+02    5.6718e+02 ;     C1 - C2     - O21   
  8187   8186   8188      1    1.0955e+02    3.2786e+02 ;     HR - C1     - HS    
  8187   8186   8189      1    1.1007e+02    3.8794e+02 ;     HR - C1     - C2    
  8188   8186   8189      1    1.1007e+02    3.8794e+02 ;     HS - C1     - C2    
  8189   8191   8192      1    1.1007e+02    3.8794e+02 ;     C2 - C3     - HA    
  8189   8191   8193      1    1.1007e+02    3.8794e+02 ;     C2 - C3     - HB    
  8189   8191   8194      1    1.0842e+02    5.6718e+02 ;     C2 - C3     - O31   
  8189   8218   8219      1    1.1514e+02    5.3246e+02 ;     C2 - O21    - C21   
  8190   8189   8191      1    1.1007e+02    3.8794e+02 ;     HX - C2     - C3    
  8190   8189   8218      1    1.0882e+02    4.2543e+02 ;     HX - C2     - O21   
  8191   8189   8218      1    1.0842e+02    5.6718e+02 ;     C3 - C2     - O21   
  8191   8194   8195      1    1.2050e+02    8.3680e+02 ;     C3 - O31    - P31   
  8192   8191   8193      1    1.0955e+02    3.2786e+02 ;     HA - C3     - HB    
  8192   8191   8194      1    1.0882e+02    4.2543e+02 ;     HA - C3     - O31   
  8193   8191   8194      1    1.0882e+02    4.2543e+02 ;     HB - C3     - O31   
  8194   8195   8196      1    1.0260e+02    7.5312e+02 ;    O31 - P31    - O32   
  8194   8195   8216      1    1.0823e+02    8.3680e+02 ;    O31 - P31    - O33   
  8194   8195   8217      1    1.0823e+02    8.3680e+02 ;    O31 - P31    - O34   
  8195   8196   8197      1    1.2050e+02    8.3680e+02 ;    P31 - O32    - C31   
  8196   8195   8216      1    1.0823e+02    8.3680e+02 ;    O32 - P31    - O33   
  8196   8195   8217      1    1.0823e+02    8.3680e+02 ;    O32 - P31    - O34   
  8196   8197   8198      1    1.0882e+02    4.2543e+02 ;    O32 - C31    - H1A   
  8196   8197   8199      1    1.0882e+02    4.2543e+02 ;    O32 - C31    - H1B   
  8196   8197   8200      1    1.0842e+02    5.6718e+02 ;    O32 - C31    - C32   
  8197   8200   8201      1    1.1174e+02    3.8510e+02 ;    C31 - C32    - H2A   
  8197   8200   8202      1    1.1174e+02    3.8510e+02 ;    C31 - C32    - H2B   
  8197   8200   8203      1    1.1432e+02    5.3932e+02 ;    C31 - C32    - N31   
  8198   8197   8199      1    1.0955e+02    3.2786e+02 ;    H1A - C31    - H1B   
  8198   8197   8200      1    1.1007e+02    3.8794e+02 ;    H1A - C31    - C32   
  8199   8197   8200      1    1.1007e+02    3.8794e+02 ;    H1B - C31    - C32   
  8200   8203   8204      1    1.1064e+02    5.2585e+02 ;    C32 - N31    - C33   
  8200   8203   8208      1    1.1064e+02    5.2585e+02 ;    C32 - N31    - C34   
  8200   8203   8212      1    1.1064e+02    5.2585e+02 ;    C32 - N31    - C35   
  8201   8200   8202      1    1.1074e+02    3.2669e+02 ;    H2A - C32    - H2B   
  8201   8200   8203      1    1.0791e+02    4.1020e+02 ;    H2A - C32    - N31   
  8202   8200   8203      1    1.0791e+02    4.1020e+02 ;    H2B - C32    - N31   
  8203   8204   8205      1    1.0791e+02    4.1020e+02 ;    N31 - C33    - H3A   
  8203   8204   8206      1    1.0791e+02    4.1020e+02 ;    N31 - C33    - H3B   
  8203   8204   8207      1    1.0791e+02    4.1020e+02 ;    N31 - C33    - H3C   
  8203   8208   8209      1    1.0791e+02    4.1020e+02 ;    N31 - C34    - H4A   
  8203   8208   8210      1    1.0791e+02    4.1020e+02 ;    N31 - C34    - H4B   
  8203   8208   8211      1    1.0791e+02    4.1020e+02 ;    N31 - C34    - H4C   
  8203   8212   8213      1    1.0791e+02    4.1020e+02 ;    N31 - C35    - H5A   
  8203   8212   8214      1    1.0791e+02    4.1020e+02 ;    N31 - C35    - H5B   
  8203   8212   8215      1    1.0791e+02    4.1020e+02 ;    N31 - C35    - H5C   
  8204   8203   8208      1    1.1064e+02    5.2585e+02 ;    C33 - N31    - C34   
  8204   8203   8212      1    1.1064e+02    5.2585e+02 ;    C33 - N31    - C35   
  8205   8204   8206      1    1.1074e+02    3.2669e+02 ;    H3A - C33    - H3B   
  8205   8204   8207      1    1.1074e+02    3.2669e+02 ;    H3A - C33    - H3C   
  8206   8204   8207      1    1.1074e+02    3.2669e+02 ;    H3B - C33    - H3C   
  8208   8203   8212      1    1.1064e+02    5.2585e+02 ;    C34 - N31    - C35   
  8209   8208   8210      1    1.1074e+02    3.2669e+02 ;    H4A - C34    - H4B   
  8209   8208   8211      1    1.1074e+02    3.2669e+02 ;    H4A - C34    - H4C   
  8210   8208   8211      1    1.1074e+02    3.2669e+02 ;    H4B - C34    - H4C   
  8213   8212   8214      1    1.1074e+02    3.2669e+02 ;    H5A - C35    - H5B   
  8213   8212   8215      1    1.1074e+02    3.2669e+02 ;    H5A - C35    - H5C   
  8214   8212   8215      1    1.1074e+02    3.2669e+02 ;    H5B - C35    - H5C   
  8216   8195   8217      1    1.1990e+02    1.1715e+03 ;    O33 - P31    - O34   
  8218   8219   8220      1    1.2333e+02    6.3538e+02 ;    O21 - C21    - O22   
  8218   8219   8258      1    1.1196e+02    5.7957e+02 ;    O21 - C21    - C12   
  8219   8258   8255      1    1.1053e+02    5.3379e+02 ;    C21 - C12    - C13   
  8219   8258   8259      1    1.0968e+02    3.9497e+02 ;    C21 - C12    - H2R   
  8219   8258   8260      1    1.0968e+02    3.9497e+02 ;    C21 - C12    - H2S   
  8220   8219   8258      1    1.2311e+02    5.6928e+02 ;    O22 - C21    - C12   
  8221   8222   8223      1    1.0835e+02    3.2995e+02 ;   H14T - C114   - H14R  
  8221   8222   8224      1    1.0835e+02    3.2995e+02 ;   H14T - C114   - H14S  
  8221   8222   8225      1    1.1005e+02    3.8802e+02 ;   H14T - C114   - C113  
  8222   8225   8226      1    1.1005e+02    3.8802e+02 ;   C114 - C113   - H13R  
  8222   8225   8227      1    1.1005e+02    3.8802e+02 ;   C114 - C113   - H13S  
  8222   8225   8228      1    1.1205e+02    3.9497e+02 ;   C114 - C113   - C112  
  8223   8222   8224      1    1.0835e+02    3.2995e+02 ;   H14R - C114   - H14S  
  8223   8222   8225      1    1.1005e+02    3.8802e+02 ;   H14R - C114   - C113  
  8224   8222   8225      1    1.1005e+02    3.8802e+02 ;   H14S - C114   - C113  
  8225   8228   8229      1    1.1005e+02    3.8802e+02 ;   C113 - C112   - H12R  
  8225   8228   8230      1    1.1005e+02    3.8802e+02 ;   C113 - C112   - H12S  
  8225   8228   8231      1    1.1205e+02    3.9497e+02 ;   C113 - C112   - C111  
  8226   8225   8227      1    1.0835e+02    3.2995e+02 ;   H13R - C113   - H13S  
  8226   8225   8228      1    1.1005e+02    3.8802e+02 ;   H13R - C113   - C112  
  8227   8225   8228      1    1.1005e+02    3.8802e+02 ;   H13S - C113   - C112  
  8228   8231   8232      1    1.1005e+02    3.8802e+02 ;   C112 - C111   - H11R  
  8228   8231   8233      1    1.1005e+02    3.8802e+02 ;   C112 - C111   - H11S  
  8228   8231   8234      1    1.1205e+02    3.9497e+02 ;   C112 - C111   - C110  
  8229   8228   8230      1    1.0835e+02    3.2995e+02 ;   H12R - C112   - H12S  
  8229   8228   8231      1    1.1005e+02    3.8802e+02 ;   H12R - C112   - C111  
  8230   8228   8231      1    1.1005e+02    3.8802e+02 ;   H12S - C112   - C111  
  8231   8234   8235      1    1.1005e+02    3.8802e+02 ;   C111 - C110   - H10R  
  8231   8234   8236      1    1.1005e+02    3.8802e+02 ;   C111 - C110   - H10S  
  8231   8234   8237      1    1.1205e+02    3.9497e+02 ;   C111 - C110   - C19   
  8232   8231   8233      1    1.0835e+02    3.2995e+02 ;   H11R - C111   - H11S  
  8232   8231   8234      1    1.1005e+02    3.8802e+02 ;   H11R - C111   - C110  
  8233   8231   8234      1    1.1005e+02    3.8802e+02 ;   H11S - C111   - C110  
  8234   8237   8238      1    1.1005e+02    3.8802e+02 ;   C110 - C19    - H9R   
  8234   8237   8239      1    1.1005e+02    3.8802e+02 ;   C110 - C19    - H9S   
  8234   8237   8240      1    1.1205e+02    3.9497e+02 ;   C110 - C19    - C18   
  8235   8234   8236      1    1.0835e+02    3.2995e+02 ;   H10R - C110   - H10S  
  8235   8234   8237      1    1.1005e+02    3.8802e+02 ;   H10R - C110   - C19   
  8236   8234   8237      1    1.1005e+02    3.8802e+02 ;   H10S - C110   - C19   
  8237   8240   8241      1    1.1005e+02    3.8802e+02 ;    C19 - C18    - H8R   
  8237   8240   8242      1    1.1005e+02    3.8802e+02 ;    C19 - C18    - H8S   
  8237   8240   8243      1    1.1205e+02    3.9497e+02 ;    C19 - C18    - C17   
  8238   8237   8239      1    1.0835e+02    3.2995e+02 ;    H9R - C19    - H9S   
  8238   8237   8240      1    1.1005e+02    3.8802e+02 ;    H9R - C19    - C18   
  8239   8237   8240      1    1.1005e+02    3.8802e+02 ;    H9S - C19    - C18   
  8240   8243   8244      1    1.1005e+02    3.8802e+02 ;    C18 - C17    - H7R   
  8240   8243   8245      1    1.1005e+02    3.8802e+02 ;    C18 - C17    - H7S   
  8240   8243   8246      1    1.1205e+02    3.9497e+02 ;    C18 - C17    - C16   
  8241   8240   8242      1    1.0835e+02    3.2995e+02 ;    H8R - C18    - H8S   
  8241   8240   8243      1    1.1005e+02    3.8802e+02 ;    H8R - C18    - C17   
  8242   8240   8243      1    1.1005e+02    3.8802e+02 ;    H8S - C18    - C17   
  8243   8246   8247      1    1.1005e+02    3.8802e+02 ;    C17 - C16    - H6R   
  8243   8246   8248      1    1.1005e+02    3.8802e+02 ;    C17 - C16    - H6S   
  8243   8246   8249      1    1.1205e+02    3.9497e+02 ;    C17 - C16    - C15   
  8244   8243   8245      1    1.0835e+02    3.2995e+02 ;    H7R - C17    - H7S   
  8244   8243   8246      1    1.1005e+02    3.8802e+02 ;    H7R - C17    - C16   
  8245   8243   8246      1    1.1005e+02    3.8802e+02 ;    H7S - C17    - C16   
  8246   8249   8250      1    1.1005e+02    3.8802e+02 ;    C16 - C15    - H5R   
  8246   8249   8251      1    1.1005e+02    3.8802e+02 ;    C16 - C15    - H5S   
  8246   8249   8252      1    1.1205e+02    3.9497e+02 ;    C16 - C15    - C14   
  8247   8246   8248      1    1.0835e+02    3.2995e+02 ;    H6R - C16    - H6S   
  8247   8246   8249      1    1.1005e+02    3.8802e+02 ;    H6R - C16    - C15   
  8248   8246   8249      1    1.1005e+02    3.8802e+02 ;    H6S - C16    - C15   
  8249   8252   8253      1    1.1005e+02    3.8802e+02 ;    C15 - C14    - H4R   
  8249   8252   8254      1    1.1005e+02    3.8802e+02 ;    C15 - C14    - H4S   
  8249   8252   8255      1    1.1205e+02    3.9497e+02 ;    C15 - C14    - C13   
  8250   8249   8251      1    1.0835e+02    3.2995e+02 ;    H5R - C15    - H5S   
  8250   8249   8252      1    1.1005e+02    3.8802e+02 ;    H5R - C15    - C14   
  8251   8249   8252      1    1.1005e+02    3.8802e+02 ;    H5S - C15    - C14   
  8252   8255   8256      1    1.1005e+02    3.8802e+02 ;    C14 - C13    - H3R   
  8252   8255   8257      1    1.1005e+02    3.8802e+02 ;    C14 - C13    - H3S   
  8252   8255   8258      1    1.1205e+02    3.9497e+02 ;    C14 - C13    - C12   
  8253   8252   8254      1    1.0835e+02    3.2995e+02 ;    H4R - C14    - H4S   
  8253   8252   8255      1    1.1005e+02    3.8802e+02 ;    H4R - C14    - C13   
  8254   8252   8255      1    1.1005e+02    3.8802e+02 ;    H4S - C14    - C13   
  8255   8258   8259      1    1.1005e+02    3.8802e+02 ;    C13 - C12    - H2R   
  8255   8258   8260      1    1.1005e+02    3.8802e+02 ;    C13 - C12    - H2S   
  8256   8255   8257      1    1.0835e+02    3.2995e+02 ;    H3R - C13    - H3S   
  8256   8255   8258      1    1.1005e+02    3.8802e+02 ;    H3R - C13    - C12   
  8257   8255   8258      1    1.1005e+02    3.8802e+02 ;    H3S - C13    - C12   
  8259   8258   8260      1    1.0835e+02    3.2995e+02 ;    H2R - C12    - H2S   
  8261   8262   8263      1    1.0835e+02    3.2995e+02 ;   H14T - C114   - H14R  
  8261   8262   8264      1    1.0835e+02    3.2995e+02 ;   H14T - C114   - H14S  
  8261   8262   8265      1    1.1005e+02    3.8802e+02 ;   H14T - C114   - C113  
  8262   8265   8266      1    1.1005e+02    3.8802e+02 ;   C114 - C113   - H13R  
  8262   8265   8267      1    1.1005e+02    3.8802e+02 ;   C114 - C113   - H13S  
  8262   8265   8268      1    1.1205e+02    3.9497e+02 ;   C114 - C113   - C112  
  8263   8262   8264      1    1.0835e+02    3.2995e+02 ;   H14R - C114   - H14S  
  8263   8262   8265      1    1.1005e+02    3.8802e+02 ;   H14R - C114   - C113  
  8264   8262   8265      1    1.1005e+02    3.8802e+02 ;   H14S - C114   - C113  
  8265   8268   8269      1    1.1005e+02    3.8802e+02 ;   C113 - C112   - H12R  
  8265   8268   8270      1    1.1005e+02    3.8802e+02 ;   C113 - C112   - H12S  
  8265   8268   8271      1    1.1205e+02    3.9497e+02 ;   C113 - C112   - C111  
  8266   8265   8267      1    1.0835e+02    3.2995e+02 ;   H13R - C113   - H13S  
  8266   8265   8268      1    1.1005e+02    3.8802e+02 ;   H13R - C113   - C112  
  8267   8265   8268      1    1.1005e+02    3.8802e+02 ;   H13S - C113   - C112  
  8268   8271   8272      1    1.1005e+02    3.8802e+02 ;   C112 - C111   - H11R  
  8268   8271   8273      1    1.1005e+02    3.8802e+02 ;   C112 - C111   - H11S  
  8268   8271   8274      1    1.1205e+02    3.9497e+02 ;   C112 - C111   - C110  
  8269   8268   8270      1    1.0835e+02    3.2995e+02 ;   H12R - C112   - H12S  
  8269   8268   8271      1    1.1005e+02    3.8802e+02 ;   H12R - C112   - C111  
  8270   8268   8271      1    1.1005e+02    3.8802e+02 ;   H12S - C112   - C111  
  8271   8274   8275      1    1.1005e+02    3.8802e+02 ;   C111 - C110   - H10R  
  8271   8274   8276      1    1.1005e+02    3.8802e+02 ;   C111 - C110   - H10S  
  8271   8274   8277      1    1.1205e+02    3.9497e+02 ;   C111 - C110   - C19   
  8272   8271   8273      1    1.0835e+02    3.2995e+02 ;   H11R - C111   - H11S  
  8272   8271   8274      1    1.1005e+02    3.8802e+02 ;   H11R - C111   - C110  
  8273   8271   8274      1    1.1005e+02    3.8802e+02 ;   H11S - C111   - C110  
  8274   8277   8278      1    1.1005e+02    3.8802e+02 ;   C110 - C19    - H9R   
  8274   8277   8279      1    1.1005e+02    3.8802e+02 ;   C110 - C19    - H9S   
  8274   8277   8280      1    1.1205e+02    3.9497e+02 ;   C110 - C19    - C18   
  8275   8274   8276      1    1.0835e+02    3.2995e+02 ;   H10R - C110   - H10S  
  8275   8274   8277      1    1.1005e+02    3.8802e+02 ;   H10R - C110   - C19   
  8276   8274   8277      1    1.1005e+02    3.8802e+02 ;   H10S - C110   - C19   
  8277   8280   8281      1    1.1005e+02    3.8802e+02 ;    C19 - C18    - H8R   
  8277   8280   8282      1    1.1005e+02    3.8802e+02 ;    C19 - C18    - H8S   
  8277   8280   8283      1    1.1205e+02    3.9497e+02 ;    C19 - C18    - C17   
  8278   8277   8279      1    1.0835e+02    3.2995e+02 ;    H9R - C19    - H9S   
  8278   8277   8280      1    1.1005e+02    3.8802e+02 ;    H9R - C19    - C18   
  8279   8277   8280      1    1.1005e+02    3.8802e+02 ;    H9S - C19    - C18   
  8280   8283   8284      1    1.1005e+02    3.8802e+02 ;    C18 - C17    - H7R   
  8280   8283   8285      1    1.1005e+02    3.8802e+02 ;    C18 - C17    - H7S   
  8280   8283   8286      1    1.1205e+02    3.9497e+02 ;    C18 - C17    - C16   
  8281   8280   8282      1    1.0835e+02    3.2995e+02 ;    H8R - C18    - H8S   
  8281   8280   8283      1    1.1005e+02    3.8802e+02 ;    H8R - C18    - C17   
  8282   8280   8283      1    1.1005e+02    3.8802e+02 ;    H8S - C18    - C17   
  8283   8286   8287      1    1.1005e+02    3.8802e+02 ;    C17 - C16    - H6R   
  8283   8286   8288      1    1.1005e+02    3.8802e+02 ;    C17 - C16    - H6S   
  8283   8286   8289      1    1.1205e+02    3.9497e+02 ;    C17 - C16    - C15   
  8284   8283   8285      1    1.0835e+02    3.2995e+02 ;    H7R - C17    - H7S   
  8284   8283   8286      1    1.1005e+02    3.8802e+02 ;    H7R - C17    - C16   
  8285   8283   8286      1    1.1005e+02    3.8802e+02 ;    H7S - C17    - C16   
  8286   8289   8290      1    1.1005e+02    3.8802e+02 ;    C16 - C15    - H5R   
  8286   8289   8291      1    1.1005e+02    3.8802e+02 ;    C16 - C15    - H5S   
  8286   8289   8292      1    1.1205e+02    3.9497e+02 ;    C16 - C15    - C14   
  8287   8286   8288      1    1.0835e+02    3.2995e+02 ;    H6R - C16    - H6S   
  8287   8286   8289      1    1.1005e+02    3.8802e+02 ;    H6R - C16    - C15   
  8288   8286   8289      1    1.1005e+02    3.8802e+02 ;    H6S - C16    - C15   
  8289   8292   8293      1    1.1005e+02    3.8802e+02 ;    C15 - C14    - H4R   
  8289   8292   8294      1    1.1005e+02    3.8802e+02 ;    C15 - C14    - H4S   
  8289   8292   8295      1    1.1205e+02    3.9497e+02 ;    C15 - C14    - C13   
  8290   8289   8291      1    1.0835e+02    3.2995e+02 ;    H5R - C15    - H5S   
  8290   8289   8292      1    1.1005e+02    3.8802e+02 ;    H5R - C15    - C14   
  8291   8289   8292      1    1.1005e+02    3.8802e+02 ;    H5S - C15    - C14   
  8292   8295   8296      1    1.1005e+02    3.8802e+02 ;    C14 - C13    - H3R   
  8292   8295   8297      1    1.1005e+02    3.8802e+02 ;    C14 - C13    - H3S   
  8292   8295   8298      1    1.1205e+02    3.9497e+02 ;    C14 - C13    - C12   
  8293   8292   8294      1    1.0835e+02    3.2995e+02 ;    H4R - C14    - H4S   
  8293   8292   8295      1    1.1005e+02    3.8802e+02 ;    H4R - C14    - C13   
  8294   8292   8295      1    1.1005e+02    3.8802e+02 ;    H4S - C14    - C13   
  8295   8298   8299      1    1.1005e+02    3.8802e+02 ;    C13 - C12    - H2R   
  8295   8298   8300      1    1.1005e+02    3.8802e+02 ;    C13 - C12    - H2S   
  8295   8298   8301      1    1.1053e+02    5.3379e+02 ;    C13 - C12    - C11   
  8296   8295   8297      1    1.0835e+02    3.2995e+02 ;    H3R - C13    - H3S   
  8296   8295   8298      1    1.1005e+02    3.8802e+02 ;    H3R - C13    - C12   
  8297   8295   8298      1    1.1005e+02    3.8802e+02 ;    H3S - C13    - C12   
  8298   8301   8302      1    1.2311e+02    5.6928e+02 ;    C12 - C11    - O12   
  8298   8301   8303      1    1.1196e+02    5.7957e+02 ;    C12 - C11    - O11   
  8299   8298   8300      1    1.0835e+02    3.2995e+02 ;    H2R - C12    - H2S   
  8299   8298   8301      1    1.0968e+02    3.9497e+02 ;    H2R - C12    - C11   
  8300   8298   8301      1    1.0968e+02    3.9497e+02 ;    H2S - C12    - C11   
  8301   8303   8304      1    1.1514e+02    5.3246e+02 ;    C11 - O11    - C1    
  8302   8301   8303      1    1.2333e+02    6.3538e+02 ;    O12 - C11    - O11   
  8303   8304   8305      1    1.0882e+02    4.2543e+02 ;    O11 - C1     - HR    
  8303   8304   8306      1    1.0882e+02    4.2543e+02 ;    O11 - C1     - HS    
  8303   8304   8307      1    1.0842e+02    5.6718e+02 ;    O11 - C1     - C2    
  8304   8307   8308      1    1.1007e+02    3.8794e+02 ;     C1 - C2     - HX    
  8304   8307   8309      1    1.1063e+02    5.2894e+02 ;     C1 - C2     - C3    
  8304   8307   8336      1    1.0842e+02    5.6718e+02 ;     C1 - C2     - O21   
  8305   8304   8306      1    1.0955e+02    3.2786e+02 ;     HR - C1     - HS    
  8305   8304   8307      1    1.1007e+02    3.8794e+02 ;     HR - C1     - C2    
  8306   8304   8307      1    1.1007e+02    3.8794e+02 ;     HS - C1     - C2    
  8307   8309   8310      1    1.1007e+02    3.8794e+02 ;     C2 - C3     - HA    
  8307   8309   8311      1    1.1007e+02    3.8794e+02 ;     C2 - C3     - HB    
  8307   8309   8312      1    1.0842e+02    5.6718e+02 ;     C2 - C3     - O31   
  8307   8336   8337      1    1.1514e+02    5.3246e+02 ;     C2 - O21    - C21   
  8308   8307   8309      1    1.1007e+02    3.8794e+02 ;     HX - C2     - C3    
  8308   8307   8336      1    1.0882e+02    4.2543e+02 ;     HX - C2     - O21   
  8309   8307   8336      1    1.0842e+02    5.6718e+02 ;     C3 - C2     - O21   
  8309   8312   8313      1    1.2050e+02    8.3680e+02 ;     C3 - O31    - P31   
  8310   8309   8311      1    1.0955e+02    3.2786e+02 ;     HA - C3     - HB    
  8310   8309   8312      1    1.0882e+02    4.2543e+02 ;     HA - C3     - O31   
  8311   8309   8312      1    1.0882e+02    4.2543e+02 ;     HB - C3     - O31   
  8312   8313   8314      1    1.0260e+02    7.5312e+02 ;    O31 - P31    - O32   
  8312   8313   8334      1    1.0823e+02    8.3680e+02 ;    O31 - P31    - O33   
  8312   8313   8335      1    1.0823e+02    8.3680e+02 ;    O31 - P31    - O34   
  8313   8314   8315      1    1.2050e+02    8.3680e+02 ;    P31 - O32    - C31   
  8314   8313   8334      1    1.0823e+02    8.3680e+02 ;    O32 - P31    - O33   
  8314   8313   8335      1    1.0823e+02    8.3680e+02 ;    O32 - P31    - O34   
  8314   8315   8316      1    1.0882e+02    4.2543e+02 ;    O32 - C31    - H1A   
  8314   8315   8317      1    1.0882e+02    4.2543e+02 ;    O32 - C31    - H1B   
  8314   8315   8318      1    1.0842e+02    5.6718e+02 ;    O32 - C31    - C32   
  8315   8318   8319      1    1.1174e+02    3.8510e+02 ;    C31 - C32    - H2A   
  8315   8318   8320      1    1.1174e+02    3.8510e+02 ;    C31 - C32    - H2B   
  8315   8318   8321      1    1.1432e+02    5.3932e+02 ;    C31 - C32    - N31   
  8316   8315   8317      1    1.0955e+02    3.2786e+02 ;    H1A - C31    - H1B   
  8316   8315   8318      1    1.1007e+02    3.8794e+02 ;    H1A - C31    - C32   
  8317   8315   8318      1    1.1007e+02    3.8794e+02 ;    H1B - C31    - C32   
  8318   8321   8322      1    1.1064e+02    5.2585e+02 ;    C32 - N31    - C33   
  8318   8321   8326      1    1.1064e+02    5.2585e+02 ;    C32 - N31    - C34   
  8318   8321   8330      1    1.1064e+02    5.2585e+02 ;    C32 - N31    - C35   
  8319   8318   8320      1    1.1074e+02    3.2669e+02 ;    H2A - C32    - H2B   
  8319   8318   8321      1    1.0791e+02    4.1020e+02 ;    H2A - C32    - N31   
  8320   8318   8321      1    1.0791e+02    4.1020e+02 ;    H2B - C32    - N31   
  8321   8322   8323      1    1.0791e+02    4.1020e+02 ;    N31 - C33    - H3A   
  8321   8322   8324      1    1.0791e+02    4.1020e+02 ;    N31 - C33    - H3B   
  8321   8322   8325      1    1.0791e+02    4.1020e+02 ;    N31 - C33    - H3C   
  8321   8326   8327      1    1.0791e+02    4.1020e+02 ;    N31 - C34    - H4A   
  8321   8326   8328      1    1.0791e+02    4.1020e+02 ;    N31 - C34    - H4B   
  8321   8326   8329      1    1.0791e+02    4.1020e+02 ;    N31 - C34    - H4C   
  8321   8330   8331      1    1.0791e+02    4.1020e+02 ;    N31 - C35    - H5A   
  8321   8330   8332      1    1.0791e+02    4.1020e+02 ;    N31 - C35    - H5B   
  8321   8330   8333      1    1.0791e+02    4.1020e+02 ;    N31 - C35    - H5C   
  8322   8321   8326      1    1.1064e+02    5.2585e+02 ;    C33 - N31    - C34   
  8322   8321   8330      1    1.1064e+02    5.2585e+02 ;    C33 - N31    - C35   
  8323   8322   8324      1    1.1074e+02    3.2669e+02 ;    H3A - C33    - H3B   
  8323   8322   8325      1    1.1074e+02    3.2669e+02 ;    H3A - C33    - H3C   
  8324   8322   8325      1    1.1074e+02    3.2669e+02 ;    H3B - C33    - H3C   
  8326   8321   8330      1    1.1064e+02    5.2585e+02 ;    C34 - N31    - C35   
  8327   8326   8328      1    1.1074e+02    3.2669e+02 ;    H4A - C34    - H4B   
  8327   8326   8329      1    1.1074e+02    3.2669e+02 ;    H4A - C34    - H4C   
  8328   8326   8329      1    1.1074e+02    3.2669e+02 ;    H4B - C34    - H4C   
  8331   8330   8332      1    1.1074e+02    3.2669e+02 ;    H5A - C35    - H5B   
  8331   8330   8333      1    1.1074e+02    3.2669e+02 ;    H5A - C35    - H5C   
  8332   8330   8333      1    1.1074e+02    3.2669e+02 ;    H5B - C35    - H5C   
  8334   8313   8335      1    1.1990e+02    1.1715e+03 ;    O33 - P31    - O34   
  8336   8337   8338      1    1.2333e+02    6.3538e+02 ;    O21 - C21    - O22   
  8336   8337   8376      1    1.1196e+02    5.7957e+02 ;    O21 - C21    - C12   
  8337   8376   8373      1    1.1053e+02    5.3379e+02 ;    C21 - C12    - C13   
  8337   8376   8377      1    1.0968e+02    3.9497e+02 ;    C21 - C12    - H2R   
  8337   8376   8378      1    1.0968e+02    3.9497e+02 ;    C21 - C12    - H2S   
  8338   8337   8376      1    1.2311e+02    5.6928e+02 ;    O22 - C21    - C12   
  8339   8340   8341      1    1.0835e+02    3.2995e+02 ;   H14T - C114   - H14R  
  8339   8340   8342      1    1.0835e+02    3.2995e+02 ;   H14T - C114   - H14S  
  8339   8340   8343      1    1.1005e+02    3.8802e+02 ;   H14T - C114   - C113  
  8340   8343   8344      1    1.1005e+02    3.8802e+02 ;   C114 - C113   - H13R  
  8340   8343   8345      1    1.1005e+02    3.8802e+02 ;   C114 - C113   - H13S  
  8340   8343   8346      1    1.1205e+02    3.9497e+02 ;   C114 - C113   - C112  
  8341   8340   8342      1    1.0835e+02    3.2995e+02 ;   H14R - C114   - H14S  
  8341   8340   8343      1    1.1005e+02    3.8802e+02 ;   H14R - C114   - C113  
  8342   8340   8343      1    1.1005e+02    3.8802e+02 ;   H14S - C114   - C113  
  8343   8346   8347      1    1.1005e+02    3.8802e+02 ;   C113 - C112   - H12R  
  8343   8346   8348      1    1.1005e+02    3.8802e+02 ;   C113 - C112   - H12S  
  8343   8346   8349      1    1.1205e+02    3.9497e+02 ;   C113 - C112   - C111  
  8344   8343   8345      1    1.0835e+02    3.2995e+02 ;   H13R - C113   - H13S  
  8344   8343   8346      1    1.1005e+02    3.8802e+02 ;   H13R - C113   - C112  
  8345   8343   8346      1    1.1005e+02    3.8802e+02 ;   H13S - C113   - C112  
  8346   8349   8350      1    1.1005e+02    3.8802e+02 ;   C112 - C111   - H11R  
  8346   8349   8351      1    1.1005e+02    3.8802e+02 ;   C112 - C111   - H11S  
  8346   8349   8352      1    1.1205e+02    3.9497e+02 ;   C112 - C111   - C110  
  8347   8346   8348      1    1.0835e+02    3.2995e+02 ;   H12R - C112   - H12S  
  8347   8346   8349      1    1.1005e+02    3.8802e+02 ;   H12R - C112   - C111  
  8348   8346   8349      1    1.1005e+02    3.8802e+02 ;   H12S - C112   - C111  
  8349   8352   8353      1    1.1005e+02    3.8802e+02 ;   C111 - C110   - H10R  
  8349   8352   8354      1    1.1005e+02    3.8802e+02 ;   C111 - C110   - H10S  
  8349   8352   8355      1    1.1205e+02    3.9497e+02 ;   C111 - C110   - C19   
  8350   8349   8351      1    1.0835e+02    3.2995e+02 ;   H11R - C111   - H11S  
  8350   8349   8352      1    1.1005e+02    3.8802e+02 ;   H11R - C111   - C110  
  8351   8349   8352      1    1.1005e+02    3.8802e+02 ;   H11S - C111   - C110  
  8352   8355   8356      1    1.1005e+02    3.8802e+02 ;   C110 - C19    - H9R   
  8352   8355   8357      1    1.1005e+02    3.8802e+02 ;   C110 - C19    - H9S   
  8352   8355   8358      1    1.1205e+02    3.9497e+02 ;   C110 - C19    - C18   
  8353   8352   8354      1    1.0835e+02    3.2995e+02 ;   H10R - C110   - H10S  
  8353   8352   8355      1    1.1005e+02    3.8802e+02 ;   H10R - C110   - C19   
  8354   8352   8355      1    1.1005e+02    3.8802e+02 ;   H10S - C110   - C19   
  8355   8358   8359      1    1.1005e+02    3.8802e+02 ;    C19 - C18    - H8R   
  8355   8358   8360      1    1.1005e+02    3.8802e+02 ;    C19 - C18    - H8S   
  8355   8358   8361      1    1.1205e+02    3.9497e+02 ;    C19 - C18    - C17   
  8356   8355   8357      1    1.0835e+02    3.2995e+02 ;    H9R - C19    - H9S   
  8356   8355   8358      1    1.1005e+02    3.8802e+02 ;    H9R - C19    - C18   
  8357   8355   8358      1    1.1005e+02    3.8802e+02 ;    H9S - C19    - C18   
  8358   8361   8362      1    1.1005e+02    3.8802e+02 ;    C18 - C17    - H7R   
  8358   8361   8363      1    1.1005e+02    3.8802e+02 ;    C18 - C17    - H7S   
  8358   8361   8364      1    1.1205e+02    3.9497e+02 ;    C18 - C17    - C16   
  8359   8358   8360      1    1.0835e+02    3.2995e+02 ;    H8R - C18    - H8S   
  8359   8358   8361      1    1.1005e+02    3.8802e+02 ;    H8R - C18    - C17   
  8360   8358   8361      1    1.1005e+02    3.8802e+02 ;    H8S - C18    - C17   
  8361   8364   8365      1    1.1005e+02    3.8802e+02 ;    C17 - C16    - H6R   
  8361   8364   8366      1    1.1005e+02    3.8802e+02 ;    C17 - C16    - H6S   
  8361   8364   8367      1    1.1205e+02    3.9497e+02 ;    C17 - C16    - C15   
  8362   8361   8363      1    1.0835e+02    3.2995e+02 ;    H7R - C17    - H7S   
  8362   8361   8364      1    1.1005e+02    3.8802e+02 ;    H7R - C17    - C16   
  8363   8361   8364      1    1.1005e+02    3.8802e+02 ;    H7S - C17    - C16   
  8364   8367   8368      1    1.1005e+02    3.8802e+02 ;    C16 - C15    - H5R   
  8364   8367   8369      1    1.1005e+02    3.8802e+02 ;    C16 - C15    - H5S   
  8364   8367   8370      1    1.1205e+02    3.9497e+02 ;    C16 - C15    - C14   
  8365   8364   8366      1    1.0835e+02    3.2995e+02 ;    H6R - C16    - H6S   
  8365   8364   8367      1    1.1005e+02    3.8802e+02 ;    H6R - C16    - C15   
  8366   8364   8367      1    1.1005e+02    3.8802e+02 ;    H6S - C16    - C15   
  8367   8370   8371      1    1.1005e+02    3.8802e+02 ;    C15 - C14    - H4R   
  8367   8370   8372      1    1.1005e+02    3.8802e+02 ;    C15 - C14    - H4S   
  8367   8370   8373      1    1.1205e+02    3.9497e+02 ;    C15 - C14    - C13   
  8368   8367   8369      1    1.0835e+02    3.2995e+02 ;    H5R - C15    - H5S   
  8368   8367   8370      1    1.1005e+02    3.8802e+02 ;    H5R - C15    - C14   
  8369   8367   8370      1    1.1005e+02    3.8802e+02 ;    H5S - C15    - C14   
  8370   8373   8374      1    1.1005e+02    3.8802e+02 ;    C14 - C13    - H3R   
  8370   8373   8375      1    1.1005e+02    3.8802e+02 ;    C14 - C13    - H3S   
  8370   8373   8376      1    1.1205e+02    3.9497e+02 ;    C14 - C13    - C12   
  8371   8370   8372      1    1.0835e+02    3.2995e+02 ;    H4R - C14    - H4S   
  8371   8370   8373      1    1.1005e+02    3.8802e+02 ;    H4R - C14    - C13   
  8372   8370   8373      1    1.1005e+02    3.8802e+02 ;    H4S - C14    - C13   
  8373   8376   8377      1    1.1005e+02    3.8802e+02 ;    C13 - C12    - H2R   
  8373   8376   8378      1    1.1005e+02    3.8802e+02 ;    C13 - C12    - H2S   
  8374   8373   8375      1    1.0835e+02    3.2995e+02 ;    H3R - C13    - H3S   
  8374   8373   8376      1    1.1005e+02    3.8802e+02 ;    H3R - C13    - C12   
  8375   8373   8376      1    1.1005e+02    3.8802e+02 ;    H3S - C13    - C12   
  8377   8376   8378      1    1.0835e+02    3.2995e+02 ;    H2R - C12    - H2S   
  8379   8380   8381      1    1.0835e+02    3.2995e+02 ;   H14T - C114   - H14R  
  8379   8380   8382      1    1.0835e+02    3.2995e+02 ;   H14T - C114   - H14S  
  8379   8380   8383      1    1.1005e+02    3.8802e+02 ;   H14T - C114   - C113  
  8380   8383   8384      1    1.1005e+02    3.8802e+02 ;   C114 - C113   - H13R  
  8380   8383   8385      1    1.1005e+02    3.8802e+02 ;   C114 - C113   - H13S  
  8380   8383   8386      1    1.1205e+02    3.9497e+02 ;   C114 - C113   - C112  
  8381   8380   8382      1    1.0835e+02    3.2995e+02 ;   H14R - C114   - H14S  
  8381   8380   8383      1    1.1005e+02    3.8802e+02 ;   H14R - C114   - C113  
  8382   8380   8383      1    1.1005e+02    3.8802e+02 ;   H14S - C114   - C113  
  8383   8386   8387      1    1.1005e+02    3.8802e+02 ;   C113 - C112   - H12R  
  8383   8386   8388      1    1.1005e+02    3.8802e+02 ;   C113 - C112   - H12S  
  8383   8386   8389      1    1.1205e+02    3.9497e+02 ;   C113 - C112   - C111  
  8384   8383   8385      1    1.0835e+02    3.2995e+02 ;   H13R - C113   - H13S  
  8384   8383   8386      1    1.1005e+02    3.8802e+02 ;   H13R - C113   - C112  
  8385   8383   8386      1    1.1005e+02    3.8802e+02 ;   H13S - C113   - C112  
  8386   8389   8390      1    1.1005e+02    3.8802e+02 ;   C112 - C111   - H11R  
  8386   8389   8391      1    1.1005e+02    3.8802e+02 ;   C112 - C111   - H11S  
  8386   8389   8392      1    1.1205e+02    3.9497e+02 ;   C112 - C111   - C110  
  8387   8386   8388      1    1.0835e+02    3.2995e+02 ;   H12R - C112   - H12S  
  8387   8386   8389      1    1.1005e+02    3.8802e+02 ;   H12R - C112   - C111  
  8388   8386   8389      1    1.1005e+02    3.8802e+02 ;   H12S - C112   - C111  
  8389   8392   8393      1    1.1005e+02    3.8802e+02 ;   C111 - C110   - H10R  
  8389   8392   8394      1    1.1005e+02    3.8802e+02 ;   C111 - C110   - H10S  
  8389   8392   8395      1    1.1205e+02    3.9497e+02 ;   C111 - C110   - C19   
  8390   8389   8391      1    1.0835e+02    3.2995e+02 ;   H11R - C111   - H11S  
  8390   8389   8392      1    1.1005e+02    3.8802e+02 ;   H11R - C111   - C110  
  8391   8389   8392      1    1.1005e+02    3.8802e+02 ;   H11S - C111   - C110  
  8392   8395   8396      1    1.1005e+02    3.8802e+02 ;   C110 - C19    - H9R   
  8392   8395   8397      1    1.1005e+02    3.8802e+02 ;   C110 - C19    - H9S   
  8392   8395   8398      1    1.1205e+02    3.9497e+02 ;   C110 - C19    - C18   
  8393   8392   8394      1    1.0835e+02    3.2995e+02 ;   H10R - C110   - H10S  
  8393   8392   8395      1    1.1005e+02    3.8802e+02 ;   H10R - C110   - C19   
  8394   8392   8395      1    1.1005e+02    3.8802e+02 ;   H10S - C110   - C19   
  8395   8398   8399      1    1.1005e+02    3.8802e+02 ;    C19 - C18    - H8R   
  8395   8398   8400      1    1.1005e+02    3.8802e+02 ;    C19 - C18    - H8S   
  8395   8398   8401      1    1.1205e+02    3.9497e+02 ;    C19 - C18    - C17   
  8396   8395   8397      1    1.0835e+02    3.2995e+02 ;    H9R - C19    - H9S   
  8396   8395   8398      1    1.1005e+02    3.8802e+02 ;    H9R - C19    - C18   
  8397   8395   8398      1    1.1005e+02    3.8802e+02 ;    H9S - C19    - C18   
  8398   8401   8402      1    1.1005e+02    3.8802e+02 ;    C18 - C17    - H7R   
  8398   8401   8403      1    1.1005e+02    3.8802e+02 ;    C18 - C17    - H7S   
  8398   8401   8404      1    1.1205e+02    3.9497e+02 ;    C18 - C17    - C16   
  8399   8398   8400      1    1.0835e+02    3.2995e+02 ;    H8R - C18    - H8S   
  8399   8398   8401      1    1.1005e+02    3.8802e+02 ;    H8R - C18    - C17   
  8400   8398   8401      1    1.1005e+02    3.8802e+02 ;    H8S - C18    - C17   
  8401   8404   8405      1    1.1005e+02    3.8802e+02 ;    C17 - C16    - H6R   
  8401   8404   8406      1    1.1005e+02    3.8802e+02 ;    C17 - C16    - H6S   
  8401   8404   8407      1    1.1205e+02    3.9497e+02 ;    C17 - C16    - C15   
  8402   8401   8403      1    1.0835e+02    3.2995e+02 ;    H7R - C17    - H7S   
  8402   8401   8404      1    1.1005e+02    3.8802e+02 ;    H7R - C17    - C16   
  8403   8401   8404      1    1.1005e+02    3.8802e+02 ;    H7S - C17    - C16   
  8404   8407   8408      1    1.1005e+02    3.8802e+02 ;    C16 - C15    - H5R   
  8404   8407   8409      1    1.1005e+02    3.8802e+02 ;    C16 - C15    - H5S   
  8404   8407   8410      1    1.1205e+02    3.9497e+02 ;    C16 - C15    - C14   
  8405   8404   8406      1    1.0835e+02    3.2995e+02 ;    H6R - C16    - H6S   
  8405   8404   8407      1    1.1005e+02    3.8802e+02 ;    H6R - C16    - C15   
  8406   8404   8407      1    1.1005e+02    3.8802e+02 ;    H6S - C16    - C15   
  8407   8410   8411      1    1.1005e+02    3.8802e+02 ;    C15 - C14    - H4R   
  8407   8410   8412      1    1.1005e+02    3.8802e+02 ;    C15 - C14    - H4S   
  8407   8410   8413      1    1.1205e+02    3.9497e+02 ;    C15 - C14    - C13   
  8408   8407   8409      1    1.0835e+02    3.2995e+02 ;    H5R - C15    - H5S   
  8408   8407   8410      1    1.1005e+02    3.8802e+02 ;    H5R - C15    - C14   
  8409   8407   8410      1    1.1005e+02    3.8802e+02 ;    H5S - C15    - C14   
  8410   8413   8414      1    1.1005e+02    3.8802e+02 ;    C14 - C13    - H3R   
  8410   8413   8415      1    1.1005e+02    3.8802e+02 ;    C14 - C13    - H3S   
  8410   8413   8416      1    1.1205e+02    3.9497e+02 ;    C14 - C13    - C12   
  8411   8410   8412      1    1.0835e+02    3.2995e+02 ;    H4R - C14    - H4S   
  8411   8410   8413      1    1.1005e+02    3.8802e+02 ;    H4R - C14    - C13   
  8412   8410   8413      1    1.1005e+02    3.8802e+02 ;    H4S - C14    - C13   
  8413   8416   8417      1    1.1005e+02    3.8802e+02 ;    C13 - C12    - H2R   
  8413   8416   8418      1    1.1005e+02    3.8802e+02 ;    C13 - C12    - H2S   
  8413   8416   8419      1    1.1053e+02    5.3379e+02 ;    C13 - C12    - C11   
  8414   8413   8415      1    1.0835e+02    3.2995e+02 ;    H3R - C13    - H3S   
  8414   8413   8416      1    1.1005e+02    3.8802e+02 ;    H3R - C13    - C12   
  8415   8413   8416      1    1.1005e+02    3.8802e+02 ;    H3S - C13    - C12   
  8416   8419   8420      1    1.2311e+02    5.6928e+02 ;    C12 - C11    - O12   
  8416   8419   8421      1    1.1196e+02    5.7957e+02 ;    C12 - C11    - O11   
  8417   8416   8418      1    1.0835e+02    3.2995e+02 ;    H2R - C12    - H2S   
  8417   8416   8419      1    1.0968e+02    3.9497e+02 ;    H2R - C12    - C11   
  8418   8416   8419      1    1.0968e+02    3.9497e+02 ;    H2S - C12    - C11   
  8419   8421   8422      1    1.1514e+02    5.3246e+02 ;    C11 - O11    - C1    
  8420   8419   8421      1    1.2333e+02    6.3538e+02 ;    O12 - C11    - O11   
  8421   8422   8423      1    1.0882e+02    4.2543e+02 ;    O11 - C1     - HR    
  8421   8422   8424      1    1.0882e+02    4.2543e+02 ;    O11 - C1     - HS    
  8421   8422   8425      1    1.0842e+02    5.6718e+02 ;    O11 - C1     - C2    
  8422   8425   8426      1    1.1007e+02    3.8794e+02 ;     C1 - C2     - HX    
  8422   8425   8427      1    1.1063e+02    5.2894e+02 ;     C1 - C2     - C3    
  8422   8425   8454      1    1.0842e+02    5.6718e+02 ;     C1 - C2     - O21   
  8423   8422   8424      1    1.0955e+02    3.2786e+02 ;     HR - C1     - HS    
  8423   8422   8425      1    1.1007e+02    3.8794e+02 ;     HR - C1     - C2    
  8424   8422   8425      1    1.1007e+02    3.8794e+02 ;     HS - C1     - C2    
  8425   8427   8428      1    1.1007e+02    3.8794e+02 ;     C2 - C3     - HA    
  8425   8427   8429      1    1.1007e+02    3.8794e+02 ;     C2 - C3     - HB    
  8425   8427   8430      1    1.0842e+02    5.6718e+02 ;     C2 - C3     - O31   
  8425   8454   8455      1    1.1514e+02    5.3246e+02 ;     C2 - O21    - C21   
  8426   8425   8427      1    1.1007e+02    3.8794e+02 ;     HX - C2     - C3    
  8426   8425   8454      1    1.0882e+02    4.2543e+02 ;     HX - C2     - O21   
  8427   8425   8454      1    1.0842e+02    5.6718e+02 ;     C3 - C2     - O21   
  8427   8430   8431      1    1.2050e+02    8.3680e+02 ;     C3 - O31    - P31   
  8428   8427   8429      1    1.0955e+02    3.2786e+02 ;     HA - C3     - HB    
  8428   8427   8430      1    1.0882e+02    4.2543e+02 ;     HA - C3     - O31   
  8429   8427   8430      1    1.0882e+02    4.2543e+02 ;     HB - C3     - O31   
  8430   8431   8432      1    1.0260e+02    7.5312e+02 ;    O31 - P31    - O32   
  8430   8431   8452      1    1.0823e+02    8.3680e+02 ;    O31 - P31    - O33   
  8430   8431   8453      1    1.0823e+02    8.3680e+02 ;    O31 - P31    - O34   
  8431   8432   8433      1    1.2050e+02    8.3680e+02 ;    P31 - O32    - C31   
  8432   8431   8452      1    1.0823e+02    8.3680e+02 ;    O32 - P31    - O33   
  8432   8431   8453      1    1.0823e+02    8.3680e+02 ;    O32 - P31    - O34   
  8432   8433   8434      1    1.0882e+02    4.2543e+02 ;    O32 - C31    - H1A   
  8432   8433   8435      1    1.0882e+02    4.2543e+02 ;    O32 - C31    - H1B   
  8432   8433   8436      1    1.0842e+02    5.6718e+02 ;    O32 - C31    - C32   
  8433   8436   8437      1    1.1174e+02    3.8510e+02 ;    C31 - C32    - H2A   
  8433   8436   8438      1    1.1174e+02    3.8510e+02 ;    C31 - C32    - H2B   
  8433   8436   8439      1    1.1432e+02    5.3932e+02 ;    C31 - C32    - N31   
  8434   8433   8435      1    1.0955e+02    3.2786e+02 ;    H1A - C31    - H1B   
  8434   8433   8436      1    1.1007e+02    3.8794e+02 ;    H1A - C31    - C32   
  8435   8433   8436      1    1.1007e+02    3.8794e+02 ;    H1B - C31    - C32   
  8436   8439   8440      1    1.1064e+02    5.2585e+02 ;    C32 - N31    - C33   
  8436   8439   8444      1    1.1064e+02    5.2585e+02 ;    C32 - N31    - C34   
  8436   8439   8448      1    1.1064e+02    5.2585e+02 ;    C32 - N31    - C35   
  8437   8436   8438      1    1.1074e+02    3.2669e+02 ;    H2A - C32    - H2B   
  8437   8436   8439      1    1.0791e+02    4.1020e+02 ;    H2A - C32    - N31   
  8438   8436   8439      1    1.0791e+02    4.1020e+02 ;    H2B - C32    - N31   
  8439   8440   8441      1    1.0791e+02    4.1020e+02 ;    N31 - C33    - H3A   
  8439   8440   8442      1    1.0791e+02    4.1020e+02 ;    N31 - C33    - H3B   
  8439   8440   8443      1    1.0791e+02    4.1020e+02 ;    N31 - C33    - H3C   
  8439   8444   8445      1    1.0791e+02    4.1020e+02 ;    N31 - C34    - H4A   
  8439   8444   8446      1    1.0791e+02    4.1020e+02 ;    N31 - C34    - H4B   
  8439   8444   8447      1    1.0791e+02    4.1020e+02 ;    N31 - C34    - H4C   
  8439   8448   8449      1    1.0791e+02    4.1020e+02 ;    N31 - C35    - H5A   
  8439   8448   8450      1    1.0791e+02    4.1020e+02 ;    N31 - C35    - H5B   
  8439   8448   8451      1    1.0791e+02    4.1020e+02 ;    N31 - C35    - H5C   
  8440   8439   8444      1    1.1064e+02    5.2585e+02 ;    C33 - N31    - C34   
  8440   8439   8448      1    1.1064e+02    5.2585e+02 ;    C33 - N31    - C35   
  8441   8440   8442      1    1.1074e+02    3.2669e+02 ;    H3A - C33    - H3B   
  8441   8440   8443      1    1.1074e+02    3.2669e+02 ;    H3A - C33    - H3C   
  8442   8440   8443      1    1.1074e+02    3.2669e+02 ;    H3B - C33    - H3C   
  8444   8439   8448      1    1.1064e+02    5.2585e+02 ;    C34 - N31    - C35   
  8445   8444   8446      1    1.1074e+02    3.2669e+02 ;    H4A - C34    - H4B   
  8445   8444   8447      1    1.1074e+02    3.2669e+02 ;    H4A - C34    - H4C   
  8446   8444   8447      1    1.1074e+02    3.2669e+02 ;    H4B - C34    - H4C   
  8449   8448   8450      1    1.1074e+02    3.2669e+02 ;    H5A - C35    - H5B   
  8449   8448   8451      1    1.1074e+02    3.2669e+02 ;    H5A - C35    - H5C   
  8450   8448   8451      1    1.1074e+02    3.2669e+02 ;    H5B - C35    - H5C   
  8452   8431   8453      1    1.1990e+02    1.1715e+03 ;    O33 - P31    - O34   
  8454   8455   8456      1    1.2333e+02    6.3538e+02 ;    O21 - C21    - O22   
  8454   8455   8494      1    1.1196e+02    5.7957e+02 ;    O21 - C21    - C12   
  8455   8494   8491      1    1.1053e+02    5.3379e+02 ;    C21 - C12    - C13   
  8455   8494   8495      1    1.0968e+02    3.9497e+02 ;    C21 - C12    - H2R   
  8455   8494   8496      1    1.0968e+02    3.9497e+02 ;    C21 - C12    - H2S   
  8456   8455   8494      1    1.2311e+02    5.6928e+02 ;    O22 - C21    - C12   
  8457   8458   8459      1    1.0835e+02    3.2995e+02 ;   H14T - C114   - H14R  
  8457   8458   8460      1    1.0835e+02    3.2995e+02 ;   H14T - C114   - H14S  
  8457   8458   8461      1    1.1005e+02    3.8802e+02 ;   H14T - C114   - C113  
  8458   8461   8462      1    1.1005e+02    3.8802e+02 ;   C114 - C113   - H13R  
  8458   8461   8463      1    1.1005e+02    3.8802e+02 ;   C114 - C113   - H13S  
  8458   8461   8464      1    1.1205e+02    3.9497e+02 ;   C114 - C113   - C112  
  8459   8458   8460      1    1.0835e+02    3.2995e+02 ;   H14R - C114   - H14S  
  8459   8458   8461      1    1.1005e+02    3.8802e+02 ;   H14R - C114   - C113  
  8460   8458   8461      1    1.1005e+02    3.8802e+02 ;   H14S - C114   - C113  
  8461   8464   8465      1    1.1005e+02    3.8802e+02 ;   C113 - C112   - H12R  
  8461   8464   8466      1    1.1005e+02    3.8802e+02 ;   C113 - C112   - H12S  
  8461   8464   8467      1    1.1205e+02    3.9497e+02 ;   C113 - C112   - C111  
  8462   8461   8463      1    1.0835e+02    3.2995e+02 ;   H13R - C113   - H13S  
  8462   8461   8464      1    1.1005e+02    3.8802e+02 ;   H13R - C113   - C112  
  8463   8461   8464      1    1.1005e+02    3.8802e+02 ;   H13S - C113   - C112  
  8464   8467   8468      1    1.1005e+02    3.8802e+02 ;   C112 - C111   - H11R  
  8464   8467   8469      1    1.1005e+02    3.8802e+02 ;   C112 - C111   - H11S  
  8464   8467   8470      1    1.1205e+02    3.9497e+02 ;   C112 - C111   - C110  
  8465   8464   8466      1    1.0835e+02    3.2995e+02 ;   H12R - C112   - H12S  
  8465   8464   8467      1    1.1005e+02    3.8802e+02 ;   H12R - C112   - C111  
  8466   8464   8467      1    1.1005e+02    3.8802e+02 ;   H12S - C112   - C111  
  8467   8470   8471      1    1.1005e+02    3.8802e+02 ;   C111 - C110   - H10R  
  8467   8470   8472      1    1.1005e+02    3.8802e+02 ;   C111 - C110   - H10S  
  8467   8470   8473      1    1.1205e+02    3.9497e+02 ;   C111 - C110   - C19   
  8468   8467   8469      1    1.0835e+02    3.2995e+02 ;   H11R - C111   - H11S  
  8468   8467   8470      1    1.1005e+02    3.8802e+02 ;   H11R - C111   - C110  
  8469   8467   8470      1    1.1005e+02    3.8802e+02 ;   H11S - C111   - C110  
  8470   8473   8474      1    1.1005e+02    3.8802e+02 ;   C110 - C19    - H9R   
  8470   8473   8475      1    1.1005e+02    3.8802e+02 ;   C110 - C19    - H9S   
  8470   8473   8476      1    1.1205e+02    3.9497e+02 ;   C110 - C19    - C18   
  8471   8470   8472      1    1.0835e+02    3.2995e+02 ;   H10R - C110   - H10S  
  8471   8470   8473      1    1.1005e+02    3.8802e+02 ;   H10R - C110   - C19   
  8472   8470   8473      1    1.1005e+02    3.8802e+02 ;   H10S - C110   - C19   
  8473   8476   8477      1    1.1005e+02    3.8802e+02 ;    C19 - C18    - H8R   
  8473   8476   8478      1    1.1005e+02    3.8802e+02 ;    C19 - C18    - H8S   
  8473   8476   8479      1    1.1205e+02    3.9497e+02 ;    C19 - C18    - C17   
  8474   8473   8475      1    1.0835e+02    3.2995e+02 ;    H9R - C19    - H9S   
  8474   8473   8476      1    1.1005e+02    3.8802e+02 ;    H9R - C19    - C18   
  8475   8473   8476      1    1.1005e+02    3.8802e+02 ;    H9S - C19    - C18   
  8476   8479   8480      1    1.1005e+02    3.8802e+02 ;    C18 - C17    - H7R   
  8476   8479   8481      1    1.1005e+02    3.8802e+02 ;    C18 - C17    - H7S   
  8476   8479   8482      1    1.1205e+02    3.9497e+02 ;    C18 - C17    - C16   
  8477   8476   8478      1    1.0835e+02    3.2995e+02 ;    H8R - C18    - H8S   
  8477   8476   8479      1    1.1005e+02    3.8802e+02 ;    H8R - C18    - C17   
  8478   8476   8479      1    1.1005e+02    3.8802e+02 ;    H8S - C18    - C17   
  8479   8482   8483      1    1.1005e+02    3.8802e+02 ;    C17 - C16    - H6R   
  8479   8482   8484      1    1.1005e+02    3.8802e+02 ;    C17 - C16    - H6S   
  8479   8482   8485      1    1.1205e+02    3.9497e+02 ;    C17 - C16    - C15   
  8480   8479   8481      1    1.0835e+02    3.2995e+02 ;    H7R - C17    - H7S   
  8480   8479   8482      1    1.1005e+02    3.8802e+02 ;    H7R - C17    - C16   
  8481   8479   8482      1    1.1005e+02    3.8802e+02 ;    H7S - C17    - C16   
  8482   8485   8486      1    1.1005e+02    3.8802e+02 ;    C16 - C15    - H5R   
  8482   8485   8487      1    1.1005e+02    3.8802e+02 ;    C16 - C15    - H5S   
  8482   8485   8488      1    1.1205e+02    3.9497e+02 ;    C16 - C15    - C14   
  8483   8482   8484      1    1.0835e+02    3.2995e+02 ;    H6R - C16    - H6S   
  8483   8482   8485      1    1.1005e+02    3.8802e+02 ;    H6R - C16    - C15   
  8484   8482   8485      1    1.1005e+02    3.8802e+02 ;    H6S - C16    - C15   
  8485   8488   8489      1    1.1005e+02    3.8802e+02 ;    C15 - C14    - H4R   
  8485   8488   8490      1    1.1005e+02    3.8802e+02 ;    C15 - C14    - H4S   
  8485   8488   8491      1    1.1205e+02    3.9497e+02 ;    C15 - C14    - C13   
  8486   8485   8487      1    1.0835e+02    3.2995e+02 ;    H5R - C15    - H5S   
  8486   8485   8488      1    1.1005e+02    3.8802e+02 ;    H5R - C15    - C14   
  8487   8485   8488      1    1.1005e+02    3.8802e+02 ;    H5S - C15    - C14   
  8488   8491   8492      1    1.1005e+02    3.8802e+02 ;    C14 - C13    - H3R   
  8488   8491   8493      1    1.1005e+02    3.8802e+02 ;    C14 - C13    - H3S   
  8488   8491   8494      1    1.1205e+02    3.9497e+02 ;    C14 - C13    - C12   
  8489   8488   8490      1    1.0835e+02    3.2995e+02 ;    H4R - C14    - H4S   
  8489   8488   8491      1    1.1005e+02    3.8802e+02 ;    H4R - C14    - C13   
  8490   8488   8491      1    1.1005e+02    3.8802e+02 ;    H4S - C14    - C13   
  8491   8494   8495      1    1.1005e+02    3.8802e+02 ;    C13 - C12    - H2R   
  8491   8494   8496      1    1.1005e+02    3.8802e+02 ;    C13 - C12    - H2S   
  8492   8491   8493      1    1.0835e+02    3.2995e+02 ;    H3R - C13    - H3S   
  8492   8491   8494      1    1.1005e+02    3.8802e+02 ;    H3R - C13    - C12   
  8493   8491   8494      1    1.1005e+02    3.8802e+02 ;    H3S - C13    - C12   
  8495   8494   8496      1    1.0835e+02    3.2995e+02 ;    H2R - C12    - H2S   
  8497   8498   8499      1    1.0835e+02    3.2995e+02 ;   H14T - C114   - H14R  
  8497   8498   8500      1    1.0835e+02    3.2995e+02 ;   H14T - C114   - H14S  
  8497   8498   8501      1    1.1005e+02    3.8802e+02 ;   H14T - C114   - C113  
  8498   8501   8502      1    1.1005e+02    3.8802e+02 ;   C114 - C113   - H13R  
  8498   8501   8503      1    1.1005e+02    3.8802e+02 ;   C114 - C113   - H13S  
  8498   8501   8504      1    1.1205e+02    3.9497e+02 ;   C114 - C113   - C112  
  8499   8498   8500      1    1.0835e+02    3.2995e+02 ;   H14R - C114   - H14S  
  8499   8498   8501      1    1.1005e+02    3.8802e+02 ;   H14R - C114   - C113  
  8500   8498   8501      1    1.1005e+02    3.8802e+02 ;   H14S - C114   - C113  
  8501   8504   8505      1    1.1005e+02    3.8802e+02 ;   C113 - C112   - H12R  
  8501   8504   8506      1    1.1005e+02    3.8802e+02 ;   C113 - C112   - H12S  
  8501   8504   8507      1    1.1205e+02    3.9497e+02 ;   C113 - C112   - C111  
  8502   8501   8503      1    1.0835e+02    3.2995e+02 ;   H13R - C113   - H13S  
  8502   8501   8504      1    1.1005e+02    3.8802e+02 ;   H13R - C113   - C112  
  8503   8501   8504      1    1.1005e+02    3.8802e+02 ;   H13S - C113   - C112  
  8504   8507   8508      1    1.1005e+02    3.8802e+02 ;   C112 - C111   - H11R  
  8504   8507   8509      1    1.1005e+02    3.8802e+02 ;   C112 - C111   - H11S  
  8504   8507   8510      1    1.1205e+02    3.9497e+02 ;   C112 - C111   - C110  
  8505   8504   8506      1    1.0835e+02    3.2995e+02 ;   H12R - C112   - H12S  
  8505   8504   8507      1    1.1005e+02    3.8802e+02 ;   H12R - C112   - C111  
  8506   8504   8507      1    1.1005e+02    3.8802e+02 ;   H12S - C112   - C111  
  8507   8510   8511      1    1.1005e+02    3.8802e+02 ;   C111 - C110   - H10R  
  8507   8510   8512      1    1.1005e+02    3.8802e+02 ;   C111 - C110   - H10S  
  8507   8510   8513      1    1.1205e+02    3.9497e+02 ;   C111 - C110   - C19   
  8508   8507   8509      1    1.0835e+02    3.2995e+02 ;   H11R - C111   - H11S  
  8508   8507   8510      1    1.1005e+02    3.8802e+02 ;   H11R - C111   - C110  
  8509   8507   8510      1    1.1005e+02    3.8802e+02 ;   H11S - C111   - C110  
  8510   8513   8514      1    1.1005e+02    3.8802e+02 ;   C110 - C19    - H9R   
  8510   8513   8515      1    1.1005e+02    3.8802e+02 ;   C110 - C19    - H9S   
  8510   8513   8516      1    1.1205e+02    3.9497e+02 ;   C110 - C19    - C18   
  8511   8510   8512      1    1.0835e+02    3.2995e+02 ;   H10R - C110   - H10S  
  8511   8510   8513      1    1.1005e+02    3.8802e+02 ;   H10R - C110   - C19   
  8512   8510   8513      1    1.1005e+02    3.8802e+02 ;   H10S - C110   - C19   
  8513   8516   8517      1    1.1005e+02    3.8802e+02 ;    C19 - C18    - H8R   
  8513   8516   8518      1    1.1005e+02    3.8802e+02 ;    C19 - C18    - H8S   
  8513   8516   8519      1    1.1205e+02    3.9497e+02 ;    C19 - C18    - C17   
  8514   8513   8515      1    1.0835e+02    3.2995e+02 ;    H9R - C19    - H9S   
  8514   8513   8516      1    1.1005e+02    3.8802e+02 ;    H9R - C19    - C18   
  8515   8513   8516      1    1.1005e+02    3.8802e+02 ;    H9S - C19    - C18   
  8516   8519   8520      1    1.1005e+02    3.8802e+02 ;    C18 - C17    - H7R   
  8516   8519   8521      1    1.1005e+02    3.8802e+02 ;    C18 - C17    - H7S   
  8516   8519   8522      1    1.1205e+02    3.9497e+02 ;    C18 - C17    - C16   
  8517   8516   8518      1    1.0835e+02    3.2995e+02 ;    H8R - C18    - H8S   
  8517   8516   8519      1    1.1005e+02    3.8802e+02 ;    H8R - C18    - C17   
  8518   8516   8519      1    1.1005e+02    3.8802e+02 ;    H8S - C18    - C17   
  8519   8522   8523      1    1.1005e+02    3.8802e+02 ;    C17 - C16    - H6R   
  8519   8522   8524      1    1.1005e+02    3.8802e+02 ;    C17 - C16    - H6S   
  8519   8522   8525      1    1.1205e+02    3.9497e+02 ;    C17 - C16    - C15   
  8520   8519   8521      1    1.0835e+02    3.2995e+02 ;    H7R - C17    - H7S   
  8520   8519   8522      1    1.1005e+02    3.8802e+02 ;    H7R - C17    - C16   
  8521   8519   8522      1    1.1005e+02    3.8802e+02 ;    H7S - C17    - C16   
  8522   8525   8526      1    1.1005e+02    3.8802e+02 ;    C16 - C15    - H5R   
  8522   8525   8527      1    1.1005e+02    3.8802e+02 ;    C16 - C15    - H5S   
  8522   8525   8528      1    1.1205e+02    3.9497e+02 ;    C16 - C15    - C14   
  8523   8522   8524      1    1.0835e+02    3.2995e+02 ;    H6R - C16    - H6S   
  8523   8522   8525      1    1.1005e+02    3.8802e+02 ;    H6R - C16    - C15   
  8524   8522   8525      1    1.1005e+02    3.8802e+02 ;    H6S - C16    - C15   
  8525   8528   8529      1    1.1005e+02    3.8802e+02 ;    C15 - C14    - H4R   
  8525   8528   8530      1    1.1005e+02    3.8802e+02 ;    C15 - C14    - H4S   
  8525   8528   8531      1    1.1205e+02    3.9497e+02 ;    C15 - C14    - C13   
  8526   8525   8527      1    1.0835e+02    3.2995e+02 ;    H5R - C15    - H5S   
  8526   8525   8528      1    1.1005e+02    3.8802e+02 ;    H5R - C15    - C14   
  8527   8525   8528      1    1.1005e+02    3.8802e+02 ;    H5S - C15    - C14   
  8528   8531   8532      1    1.1005e+02    3.8802e+02 ;    C14 - C13    - H3R   
  8528   8531   8533      1    1.1005e+02    3.8802e+02 ;    C14 - C13    - H3S   
  8528   8531   8534      1    1.1205e+02    3.9497e+02 ;    C14 - C13    - C12   
  8529   8528   8530      1    1.0835e+02    3.2995e+02 ;    H4R - C14    - H4S   
  8529   8528   8531      1    1.1005e+02    3.8802e+02 ;    H4R - C14    - C13   
  8530   8528   8531      1    1.1005e+02    3.8802e+02 ;    H4S - C14    - C13   
  8531   8534   8535      1    1.1005e+02    3.8802e+02 ;    C13 - C12    - H2R   
  8531   8534   8536      1    1.1005e+02    3.8802e+02 ;    C13 - C12    - H2S   
  8531   8534   8537      1    1.1053e+02    5.3379e+02 ;    C13 - C12    - C11   
  8532   8531   8533      1    1.0835e+02    3.2995e+02 ;    H3R - C13    - H3S   
  8532   8531   8534      1    1.1005e+02    3.8802e+02 ;    H3R - C13    - C12   
  8533   8531   8534      1    1.1005e+02    3.8802e+02 ;    H3S - C13    - C12   
  8534   8537   8538      1    1.2311e+02    5.6928e+02 ;    C12 - C11    - O12   
  8534   8537   8539      1    1.1196e+02    5.7957e+02 ;    C12 - C11    - O11   
  8535   8534   8536      1    1.0835e+02    3.2995e+02 ;    H2R - C12    - H2S   
  8535   8534   8537      1    1.0968e+02    3.9497e+02 ;    H2R - C12    - C11   
  8536   8534   8537      1    1.0968e+02    3.9497e+02 ;    H2S - C12    - C11   
  8537   8539   8540      1    1.1514e+02    5.3246e+02 ;    C11 - O11    - C1    
  8538   8537   8539      1    1.2333e+02    6.3538e+02 ;    O12 - C11    - O11   
  8539   8540   8541      1    1.0882e+02    4.2543e+02 ;    O11 - C1     - HR    
  8539   8540   8542      1    1.0882e+02    4.2543e+02 ;    O11 - C1     - HS    
  8539   8540   8543      1    1.0842e+02    5.6718e+02 ;    O11 - C1     - C2    
  8540   8543   8544      1    1.1007e+02    3.8794e+02 ;     C1 - C2     - HX    
  8540   8543   8545      1    1.1063e+02    5.2894e+02 ;     C1 - C2     - C3    
  8540   8543   8572      1    1.0842e+02    5.6718e+02 ;     C1 - C2     - O21   
  8541   8540   8542      1    1.0955e+02    3.2786e+02 ;     HR - C1     - HS    
  8541   8540   8543      1    1.1007e+02    3.8794e+02 ;     HR - C1     - C2    
  8542   8540   8543      1    1.1007e+02    3.8794e+02 ;     HS - C1     - C2    
  8543   8545   8546      1    1.1007e+02    3.8794e+02 ;     C2 - C3     - HA    
  8543   8545   8547      1    1.1007e+02    3.8794e+02 ;     C2 - C3     - HB    
  8543   8545   8548      1    1.0842e+02    5.6718e+02 ;     C2 - C3     - O31   
  8543   8572   8573      1    1.1514e+02    5.3246e+02 ;     C2 - O21    - C21   
  8544   8543   8545      1    1.1007e+02    3.8794e+02 ;     HX - C2     - C3    
  8544   8543   8572      1    1.0882e+02    4.2543e+02 ;     HX - C2     - O21   
  8545   8543   8572      1    1.0842e+02    5.6718e+02 ;     C3 - C2     - O21   
  8545   8548   8549      1    1.2050e+02    8.3680e+02 ;     C3 - O31    - P31   
  8546   8545   8547      1    1.0955e+02    3.2786e+02 ;     HA - C3     - HB    
  8546   8545   8548      1    1.0882e+02    4.2543e+02 ;     HA - C3     - O31   
  8547   8545   8548      1    1.0882e+02    4.2543e+02 ;     HB - C3     - O31   
  8548   8549   8550      1    1.0260e+02    7.5312e+02 ;    O31 - P31    - O32   
  8548   8549   8570      1    1.0823e+02    8.3680e+02 ;    O31 - P31    - O33   
  8548   8549   8571      1    1.0823e+02    8.3680e+02 ;    O31 - P31    - O34   
  8549   8550   8551      1    1.2050e+02    8.3680e+02 ;    P31 - O32    - C31   
  8550   8549   8570      1    1.0823e+02    8.3680e+02 ;    O32 - P31    - O33   
  8550   8549   8571      1    1.0823e+02    8.3680e+02 ;    O32 - P31    - O34   
  8550   8551   8552      1    1.0882e+02    4.2543e+02 ;    O32 - C31    - H1A   
  8550   8551   8553      1    1.0882e+02    4.2543e+02 ;    O32 - C31    - H1B   
  8550   8551   8554      1    1.0842e+02    5.6718e+02 ;    O32 - C31    - C32   
  8551   8554   8555      1    1.1174e+02    3.8510e+02 ;    C31 - C32    - H2A   
  8551   8554   8556      1    1.1174e+02    3.8510e+02 ;    C31 - C32    - H2B   
  8551   8554   8557      1    1.1432e+02    5.3932e+02 ;    C31 - C32    - N31   
  8552   8551   8553      1    1.0955e+02    3.2786e+02 ;    H1A - C31    - H1B   
  8552   8551   8554      1    1.1007e+02    3.8794e+02 ;    H1A - C31    - C32   
  8553   8551   8554      1    1.1007e+02    3.8794e+02 ;    H1B - C31    - C32   
  8554   8557   8558      1    1.1064e+02    5.2585e+02 ;    C32 - N31    - C33   
  8554   8557   8562      1    1.1064e+02    5.2585e+02 ;    C32 - N31    - C34   
  8554   8557   8566      1    1.1064e+02    5.2585e+02 ;    C32 - N31    - C35   
  8555   8554   8556      1    1.1074e+02    3.2669e+02 ;    H2A - C32    - H2B   
  8555   8554   8557      1    1.0791e+02    4.1020e+02 ;    H2A - C32    - N31   
  8556   8554   8557      1    1.0791e+02    4.1020e+02 ;    H2B - C32    - N31   
  8557   8558   8559      1    1.0791e+02    4.1020e+02 ;    N31 - C33    - H3A   
  8557   8558   8560      1    1.0791e+02    4.1020e+02 ;    N31 - C33    - H3B   
  8557   8558   8561      1    1.0791e+02    4.1020e+02 ;    N31 - C33    - H3C   
  8557   8562   8563      1    1.0791e+02    4.1020e+02 ;    N31 - C34    - H4A   
  8557   8562   8564      1    1.0791e+02    4.1020e+02 ;    N31 - C34    - H4B   
  8557   8562   8565      1    1.0791e+02    4.1020e+02 ;    N31 - C34    - H4C   
  8557   8566   8567      1    1.0791e+02    4.1020e+02 ;    N31 - C35    - H5A   
  8557   8566   8568      1    1.0791e+02    4.1020e+02 ;    N31 - C35    - H5B   
  8557   8566   8569      1    1.0791e+02    4.1020e+02 ;    N31 - C35    - H5C   
  8558   8557   8562      1    1.1064e+02    5.2585e+02 ;    C33 - N31    - C34   
  8558   8557   8566      1    1.1064e+02    5.2585e+02 ;    C33 - N31    - C35   
  8559   8558   8560      1    1.1074e+02    3.2669e+02 ;    H3A - C33    - H3B   
  8559   8558   8561      1    1.1074e+02    3.2669e+02 ;    H3A - C33    - H3C   
  8560   8558   8561      1    1.1074e+02    3.2669e+02 ;    H3B - C33    - H3C   
  8562   8557   8566      1    1.1064e+02    5.2585e+02 ;    C34 - N31    - C35   
  8563   8562   8564      1    1.1074e+02    3.2669e+02 ;    H4A - C34    - H4B   
  8563   8562   8565      1    1.1074e+02    3.2669e+02 ;    H4A - C34    - H4C   
  8564   8562   8565      1    1.1074e+02    3.2669e+02 ;    H4B - C34    - H4C   
  8567   8566   8568      1    1.1074e+02    3.2669e+02 ;    H5A - C35    - H5B   
  8567   8566   8569      1    1.1074e+02    3.2669e+02 ;    H5A - C35    - H5C   
  8568   8566   8569      1    1.1074e+02    3.2669e+02 ;    H5B - C35    - H5C   
  8570   8549   8571      1    1.1990e+02    1.1715e+03 ;    O33 - P31    - O34   
  8572   8573   8574      1    1.2333e+02    6.3538e+02 ;    O21 - C21    - O22   
  8572   8573   8612      1    1.1196e+02    5.7957e+02 ;    O21 - C21    - C12   
  8573   8612   8609      1    1.1053e+02    5.3379e+02 ;    C21 - C12    - C13   
  8573   8612   8613      1    1.0968e+02    3.9497e+02 ;    C21 - C12    - H2R   
  8573   8612   8614      1    1.0968e+02    3.9497e+02 ;    C21 - C12    - H2S   
  8574   8573   8612      1    1.2311e+02    5.6928e+02 ;    O22 - C21    - C12   
  8575   8576   8577      1    1.0835e+02    3.2995e+02 ;   H14T - C114   - H14R  
  8575   8576   8578      1    1.0835e+02    3.2995e+02 ;   H14T - C114   - H14S  
  8575   8576   8579      1    1.1005e+02    3.8802e+02 ;   H14T - C114   - C113  
  8576   8579   8580      1    1.1005e+02    3.8802e+02 ;   C114 - C113   - H13R  
  8576   8579   8581      1    1.1005e+02    3.8802e+02 ;   C114 - C113   - H13S  
  8576   8579   8582      1    1.1205e+02    3.9497e+02 ;   C114 - C113   - C112  
  8577   8576   8578      1    1.0835e+02    3.2995e+02 ;   H14R - C114   - H14S  
  8577   8576   8579      1    1.1005e+02    3.8802e+02 ;   H14R - C114   - C113  
  8578   8576   8579      1    1.1005e+02    3.8802e+02 ;   H14S - C114   - C113  
  8579   8582   8583      1    1.1005e+02    3.8802e+02 ;   C113 - C112   - H12R  
  8579   8582   8584      1    1.1005e+02    3.8802e+02 ;   C113 - C112   - H12S  
  8579   8582   8585      1    1.1205e+02    3.9497e+02 ;   C113 - C112   - C111  
  8580   8579   8581      1    1.0835e+02    3.2995e+02 ;   H13R - C113   - H13S  
  8580   8579   8582      1    1.1005e+02    3.8802e+02 ;   H13R - C113   - C112  
  8581   8579   8582      1    1.1005e+02    3.8802e+02 ;   H13S - C113   - C112  
  8582   8585   8586      1    1.1005e+02    3.8802e+02 ;   C112 - C111   - H11R  
  8582   8585   8587      1    1.1005e+02    3.8802e+02 ;   C112 - C111   - H11S  
  8582   8585   8588      1    1.1205e+02    3.9497e+02 ;   C112 - C111   - C110  
  8583   8582   8584      1    1.0835e+02    3.2995e+02 ;   H12R - C112   - H12S  
  8583   8582   8585      1    1.1005e+02    3.8802e+02 ;   H12R - C112   - C111  
  8584   8582   8585      1    1.1005e+02    3.8802e+02 ;   H12S - C112   - C111  
  8585   8588   8589      1    1.1005e+02    3.8802e+02 ;   C111 - C110   - H10R  
  8585   8588   8590      1    1.1005e+02    3.8802e+02 ;   C111 - C110   - H10S  
  8585   8588   8591      1    1.1205e+02    3.9497e+02 ;   C111 - C110   - C19   
  8586   8585   8587      1    1.0835e+02    3.2995e+02 ;   H11R - C111   - H11S  
  8586   8585   8588      1    1.1005e+02    3.8802e+02 ;   H11R - C111   - C110  
  8587   8585   8588      1    1.1005e+02    3.8802e+02 ;   H11S - C111   - C110  
  8588   8591   8592      1    1.1005e+02    3.8802e+02 ;   C110 - C19    - H9R   
  8588   8591   8593      1    1.1005e+02    3.8802e+02 ;   C110 - C19    - H9S   
  8588   8591   8594      1    1.1205e+02    3.9497e+02 ;   C110 - C19    - C18   
  8589   8588   8590      1    1.0835e+02    3.2995e+02 ;   H10R - C110   - H10S  
  8589   8588   8591      1    1.1005e+02    3.8802e+02 ;   H10R - C110   - C19   
  8590   8588   8591      1    1.1005e+02    3.8802e+02 ;   H10S - C110   - C19   
  8591   8594   8595      1    1.1005e+02    3.8802e+02 ;    C19 - C18    - H8R   
  8591   8594   8596      1    1.1005e+02    3.8802e+02 ;    C19 - C18    - H8S   
  8591   8594   8597      1    1.1205e+02    3.9497e+02 ;    C19 - C18    - C17   
  8592   8591   8593      1    1.0835e+02    3.2995e+02 ;    H9R - C19    - H9S   
  8592   8591   8594      1    1.1005e+02    3.8802e+02 ;    H9R - C19    - C18   
  8593   8591   8594      1    1.1005e+02    3.8802e+02 ;    H9S - C19    - C18   
  8594   8597   8598      1    1.1005e+02    3.8802e+02 ;    C18 - C17    - H7R   
  8594   8597   8599      1    1.1005e+02    3.8802e+02 ;    C18 - C17    - H7S   
  8594   8597   8600      1    1.1205e+02    3.9497e+02 ;    C18 - C17    - C16   
  8595   8594   8596      1    1.0835e+02    3.2995e+02 ;    H8R - C18    - H8S   
  8595   8594   8597      1    1.1005e+02    3.8802e+02 ;    H8R - C18    - C17   
  8596   8594   8597      1    1.1005e+02    3.8802e+02 ;    H8S - C18    - C17   
  8597   8600   8601      1    1.1005e+02    3.8802e+02 ;    C17 - C16    - H6R   
  8597   8600   8602      1    1.1005e+02    3.8802e+02 ;    C17 - C16    - H6S   
  8597   8600   8603      1    1.1205e+02    3.9497e+02 ;    C17 - C16    - C15   
  8598   8597   8599      1    1.0835e+02    3.2995e+02 ;    H7R - C17    - H7S   
  8598   8597   8600      1    1.1005e+02    3.8802e+02 ;    H7R - C17    - C16   
  8599   8597   8600      1    1.1005e+02    3.8802e+02 ;    H7S - C17    - C16   
  8600   8603   8604      1    1.1005e+02    3.8802e+02 ;    C16 - C15    - H5R   
  8600   8603   8605      1    1.1005e+02    3.8802e+02 ;    C16 - C15    - H5S   
  8600   8603   8606      1    1.1205e+02    3.9497e+02 ;    C16 - C15    - C14   
  8601   8600   8602      1    1.0835e+02    3.2995e+02 ;    H6R - C16    - H6S   
  8601   8600   8603      1    1.1005e+02    3.8802e+02 ;    H6R - C16    - C15   
  8602   8600   8603      1    1.1005e+02    3.8802e+02 ;    H6S - C16    - C15   
  8603   8606   8607      1    1.1005e+02    3.8802e+02 ;    C15 - C14    - H4R   
  8603   8606   8608      1    1.1005e+02    3.8802e+02 ;    C15 - C14    - H4S   
  8603   8606   8609      1    1.1205e+02    3.9497e+02 ;    C15 - C14    - C13   
  8604   8603   8605      1    1.0835e+02    3.2995e+02 ;    H5R - C15    - H5S   
  8604   8603   8606      1    1.1005e+02    3.8802e+02 ;    H5R - C15    - C14   
  8605   8603   8606      1    1.1005e+02    3.8802e+02 ;    H5S - C15    - C14   
  8606   8609   8610      1    1.1005e+02    3.8802e+02 ;    C14 - C13    - H3R   
  8606   8609   8611      1    1.1005e+02    3.8802e+02 ;    C14 - C13    - H3S   
  8606   8609   8612      1    1.1205e+02    3.9497e+02 ;    C14 - C13    - C12   
  8607   8606   8608      1    1.0835e+02    3.2995e+02 ;    H4R - C14    - H4S   
  8607   8606   8609      1    1.1005e+02    3.8802e+02 ;    H4R - C14    - C13   
  8608   8606   8609      1    1.1005e+02    3.8802e+02 ;    H4S - C14    - C13   
  8609   8612   8613      1    1.1005e+02    3.8802e+02 ;    C13 - C12    - H2R   
  8609   8612   8614      1    1.1005e+02    3.8802e+02 ;    C13 - C12    - H2S   
  8610   8609   8611      1    1.0835e+02    3.2995e+02 ;    H3R - C13    - H3S   
  8610   8609   8612      1    1.1005e+02    3.8802e+02 ;    H3R - C13    - C12   
  8611   8609   8612      1    1.1005e+02    3.8802e+02 ;    H3S - C13    - C12   
  8613   8612   8614      1    1.0835e+02    3.2995e+02 ;    H2R - C12    - H2S   
  8615   8616   8617      1    1.0835e+02    3.2995e+02 ;   H14T - C114   - H14R  
  8615   8616   8618      1    1.0835e+02    3.2995e+02 ;   H14T - C114   - H14S  
  8615   8616   8619      1    1.1005e+02    3.8802e+02 ;   H14T - C114   - C113  
  8616   8619   8620      1    1.1005e+02    3.8802e+02 ;   C114 - C113   - H13R  
  8616   8619   8621      1    1.1005e+02    3.8802e+02 ;   C114 - C113   - H13S  
  8616   8619   8622      1    1.1205e+02    3.9497e+02 ;   C114 - C113   - C112  
  8617   8616   8618      1    1.0835e+02    3.2995e+02 ;   H14R - C114   - H14S  
  8617   8616   8619      1    1.1005e+02    3.8802e+02 ;   H14R - C114   - C113  
  8618   8616   8619      1    1.1005e+02    3.8802e+02 ;   H14S - C114   - C113  
  8619   8622   8623      1    1.1005e+02    3.8802e+02 ;   C113 - C112   - H12R  
  8619   8622   8624      1    1.1005e+02    3.8802e+02 ;   C113 - C112   - H12S  
  8619   8622   8625      1    1.1205e+02    3.9497e+02 ;   C113 - C112   - C111  
  8620   8619   8621      1    1.0835e+02    3.2995e+02 ;   H13R - C113   - H13S  
  8620   8619   8622      1    1.1005e+02    3.8802e+02 ;   H13R - C113   - C112  
  8621   8619   8622      1    1.1005e+02    3.8802e+02 ;   H13S - C113   - C112  
  8622   8625   8626      1    1.1005e+02    3.8802e+02 ;   C112 - C111   - H11R  
  8622   8625   8627      1    1.1005e+02    3.8802e+02 ;   C112 - C111   - H11S  
  8622   8625   8628      1    1.1205e+02    3.9497e+02 ;   C112 - C111   - C110  
  8623   8622   8624      1    1.0835e+02    3.2995e+02 ;   H12R - C112   - H12S  
  8623   8622   8625      1    1.1005e+02    3.8802e+02 ;   H12R - C112   - C111  
  8624   8622   8625      1    1.1005e+02    3.8802e+02 ;   H12S - C112   - C111  
  8625   8628   8629      1    1.1005e+02    3.8802e+02 ;   C111 - C110   - H10R  
  8625   8628   8630      1    1.1005e+02    3.8802e+02 ;   C111 - C110   - H10S  
  8625   8628   8631      1    1.1205e+02    3.9497e+02 ;   C111 - C110   - C19   
  8626   8625   8627      1    1.0835e+02    3.2995e+02 ;   H11R - C111   - H11S  
  8626   8625   8628      1    1.1005e+02    3.8802e+02 ;   H11R - C111   - C110  
  8627   8625   8628      1    1.1005e+02    3.8802e+02 ;   H11S - C111   - C110  
  8628   8631   8632      1    1.1005e+02    3.8802e+02 ;   C110 - C19    - H9R   
  8628   8631   8633      1    1.1005e+02    3.8802e+02 ;   C110 - C19    - H9S   
  8628   8631   8634      1    1.1205e+02    3.9497e+02 ;   C110 - C19    - C18   
  8629   8628   8630      1    1.0835e+02    3.2995e+02 ;   H10R - C110   - H10S  
  8629   8628   8631      1    1.1005e+02    3.8802e+02 ;   H10R - C110   - C19   
  8630   8628   8631      1    1.1005e+02    3.8802e+02 ;   H10S - C110   - C19   
  8631   8634   8635      1    1.1005e+02    3.8802e+02 ;    C19 - C18    - H8R   
  8631   8634   8636      1    1.1005e+02    3.8802e+02 ;    C19 - C18    - H8S   
  8631   8634   8637      1    1.1205e+02    3.9497e+02 ;    C19 - C18    - C17   
  8632   8631   8633      1    1.0835e+02    3.2995e+02 ;    H9R - C19    - H9S   
  8632   8631   8634      1    1.1005e+02    3.8802e+02 ;    H9R - C19    - C18   
  8633   8631   8634      1    1.1005e+02    3.8802e+02 ;    H9S - C19    - C18   
  8634   8637   8638      1    1.1005e+02    3.8802e+02 ;    C18 - C17    - H7R   
  8634   8637   8639      1    1.1005e+02    3.8802e+02 ;    C18 - C17    - H7S   
  8634   8637   8640      1    1.1205e+02    3.9497e+02 ;    C18 - C17    - C16   
  8635   8634   8636      1    1.0835e+02    3.2995e+02 ;    H8R - C18    - H8S   
  8635   8634   8637      1    1.1005e+02    3.8802e+02 ;    H8R - C18    - C17   
  8636   8634   8637      1    1.1005e+02    3.8802e+02 ;    H8S - C18    - C17   
  8637   8640   8641      1    1.1005e+02    3.8802e+02 ;    C17 - C16    - H6R   
  8637   8640   8642      1    1.1005e+02    3.8802e+02 ;    C17 - C16    - H6S   
  8637   8640   8643      1    1.1205e+02    3.9497e+02 ;    C17 - C16    - C15   
  8638   8637   8639      1    1.0835e+02    3.2995e+02 ;    H7R - C17    - H7S   
  8638   8637   8640      1    1.1005e+02    3.8802e+02 ;    H7R - C17    - C16   
  8639   8637   8640      1    1.1005e+02    3.8802e+02 ;    H7S - C17    - C16   
  8640   8643   8644      1    1.1005e+02    3.8802e+02 ;    C16 - C15    - H5R   
  8640   8643   8645      1    1.1005e+02    3.8802e+02 ;    C16 - C15    - H5S   
  8640   8643   8646      1    1.1205e+02    3.9497e+02 ;    C16 - C15    - C14   
  8641   8640   8642      1    1.0835e+02    3.2995e+02 ;    H6R - C16    - H6S   
  8641   8640   8643      1    1.1005e+02    3.8802e+02 ;    H6R - C16    - C15   
  8642   8640   8643      1    1.1005e+02    3.8802e+02 ;    H6S - C16    - C15   
  8643   8646   8647      1    1.1005e+02    3.8802e+02 ;    C15 - C14    - H4R   
  8643   8646   8648      1    1.1005e+02    3.8802e+02 ;    C15 - C14    - H4S   
  8643   8646   8649      1    1.1205e+02    3.9497e+02 ;    C15 - C14    - C13   
  8644   8643   8645      1    1.0835e+02    3.2995e+02 ;    H5R - C15    - H5S   
  8644   8643   8646      1    1.1005e+02    3.8802e+02 ;    H5R - C15    - C14   
  8645   8643   8646      1    1.1005e+02    3.8802e+02 ;    H5S - C15    - C14   
  8646   8649   8650      1    1.1005e+02    3.8802e+02 ;    C14 - C13    - H3R   
  8646   8649   8651      1    1.1005e+02    3.8802e+02 ;    C14 - C13    - H3S   
  8646   8649   8652      1    1.1205e+02    3.9497e+02 ;    C14 - C13    - C12   
  8647   8646   8648      1    1.0835e+02    3.2995e+02 ;    H4R - C14    - H4S   
  8647   8646   8649      1    1.1005e+02    3.8802e+02 ;    H4R - C14    - C13   
  8648   8646   8649      1    1.1005e+02    3.8802e+02 ;    H4S - C14    - C13   
  8649   8652   8653      1    1.1005e+02    3.8802e+02 ;    C13 - C12    - H2R   
  8649   8652   8654      1    1.1005e+02    3.8802e+02 ;    C13 - C12    - H2S   
  8649   8652   8655      1    1.1053e+02    5.3379e+02 ;    C13 - C12    - C11   
  8650   8649   8651      1    1.0835e+02    3.2995e+02 ;    H3R - C13    - H3S   
  8650   8649   8652      1    1.1005e+02    3.8802e+02 ;    H3R - C13    - C12   
  8651   8649   8652      1    1.1005e+02    3.8802e+02 ;    H3S - C13    - C12   
  8652   8655   8656      1    1.2311e+02    5.6928e+02 ;    C12 - C11    - O12   
  8652   8655   8657      1    1.1196e+02    5.7957e+02 ;    C12 - C11    - O11   
  8653   8652   8654      1    1.0835e+02    3.2995e+02 ;    H2R - C12    - H2S   
  8653   8652   8655      1    1.0968e+02    3.9497e+02 ;    H2R - C12    - C11   
  8654   8652   8655      1    1.0968e+02    3.9497e+02 ;    H2S - C12    - C11   
  8655   8657   8658      1    1.1514e+02    5.3246e+02 ;    C11 - O11    - C1    
  8656   8655   8657      1    1.2333e+02    6.3538e+02 ;    O12 - C11    - O11   
  8657   8658   8659      1    1.0882e+02    4.2543e+02 ;    O11 - C1     - HR    
  8657   8658   8660      1    1.0882e+02    4.2543e+02 ;    O11 - C1     - HS    
  8657   8658   8661      1    1.0842e+02    5.6718e+02 ;    O11 - C1     - C2    
  8658   8661   8662      1    1.1007e+02    3.8794e+02 ;     C1 - C2     - HX    
  8658   8661   8663      1    1.1063e+02    5.2894e+02 ;     C1 - C2     - C3    
  8658   8661   8690      1    1.0842e+02    5.6718e+02 ;     C1 - C2     - O21   
  8659   8658   8660      1    1.0955e+02    3.2786e+02 ;     HR - C1     - HS    
  8659   8658   8661      1    1.1007e+02    3.8794e+02 ;     HR - C1     - C2    
  8660   8658   8661      1    1.1007e+02    3.8794e+02 ;     HS - C1     - C2    
  8661   8663   8664      1    1.1007e+02    3.8794e+02 ;     C2 - C3     - HA    
  8661   8663   8665      1    1.1007e+02    3.8794e+02 ;     C2 - C3     - HB    
  8661   8663   8666      1    1.0842e+02    5.6718e+02 ;     C2 - C3     - O31   
  8661   8690   8691      1    1.1514e+02    5.3246e+02 ;     C2 - O21    - C21   
  8662   8661   8663      1    1.1007e+02    3.8794e+02 ;     HX - C2     - C3    
  8662   8661   8690      1    1.0882e+02    4.2543e+02 ;     HX - C2     - O21   
  8663   8661   8690      1    1.0842e+02    5.6718e+02 ;     C3 - C2     - O21   
  8663   8666   8667      1    1.2050e+02    8.3680e+02 ;     C3 - O31    - P31   
  8664   8663   8665      1    1.0955e+02    3.2786e+02 ;     HA - C3     - HB    
  8664   8663   8666      1    1.0882e+02    4.2543e+02 ;     HA - C3     - O31   
  8665   8663   8666      1    1.0882e+02    4.2543e+02 ;     HB - C3     - O31   
  8666   8667   8668      1    1.0260e+02    7.5312e+02 ;    O31 - P31    - O32   
  8666   8667   8688      1    1.0823e+02    8.3680e+02 ;    O31 - P31    - O33   
  8666   8667   8689      1    1.0823e+02    8.3680e+02 ;    O31 - P31    - O34   
  8667   8668   8669      1    1.2050e+02    8.3680e+02 ;    P31 - O32    - C31   
  8668   8667   8688      1    1.0823e+02    8.3680e+02 ;    O32 - P31    - O33   
  8668   8667   8689      1    1.0823e+02    8.3680e+02 ;    O32 - P31    - O34   
  8668   8669   8670      1    1.0882e+02    4.2543e+02 ;    O32 - C31    - H1A   
  8668   8669   8671      1    1.0882e+02    4.2543e+02 ;    O32 - C31    - H1B   
  8668   8669   8672      1    1.0842e+02    5.6718e+02 ;    O32 - C31    - C32   
  8669   8672   8673      1    1.1174e+02    3.8510e+02 ;    C31 - C32    - H2A   
  8669   8672   8674      1    1.1174e+02    3.8510e+02 ;    C31 - C32    - H2B   
  8669   8672   8675      1    1.1432e+02    5.3932e+02 ;    C31 - C32    - N31   
  8670   8669   8671      1    1.0955e+02    3.2786e+02 ;    H1A - C31    - H1B   
  8670   8669   8672      1    1.1007e+02    3.8794e+02 ;    H1A - C31    - C32   
  8671   8669   8672      1    1.1007e+02    3.8794e+02 ;    H1B - C31    - C32   
  8672   8675   8676      1    1.1064e+02    5.2585e+02 ;    C32 - N31    - C33   
  8672   8675   8680      1    1.1064e+02    5.2585e+02 ;    C32 - N31    - C34   
  8672   8675   8684      1    1.1064e+02    5.2585e+02 ;    C32 - N31    - C35   
  8673   8672   8674      1    1.1074e+02    3.2669e+02 ;    H2A - C32    - H2B   
  8673   8672   8675      1    1.0791e+02    4.1020e+02 ;    H2A - C32    - N31   
  8674   8672   8675      1    1.0791e+02    4.1020e+02 ;    H2B - C32    - N31   
  8675   8676   8677      1    1.0791e+02    4.1020e+02 ;    N31 - C33    - H3A   
  8675   8676   8678      1    1.0791e+02    4.1020e+02 ;    N31 - C33    - H3B   
  8675   8676   8679      1    1.0791e+02    4.1020e+02 ;    N31 - C33    - H3C   
  8675   8680   8681      1    1.0791e+02    4.1020e+02 ;    N31 - C34    - H4A   
  8675   8680   8682      1    1.0791e+02    4.1020e+02 ;    N31 - C34    - H4B   
  8675   8680   8683      1    1.0791e+02    4.1020e+02 ;    N31 - C34    - H4C   
  8675   8684   8685      1    1.0791e+02    4.1020e+02 ;    N31 - C35    - H5A   
  8675   8684   8686      1    1.0791e+02    4.1020e+02 ;    N31 - C35    - H5B   
  8675   8684   8687      1    1.0791e+02    4.1020e+02 ;    N31 - C35    - H5C   
  8676   8675   8680      1    1.1064e+02    5.2585e+02 ;    C33 - N31    - C34   
  8676   8675   8684      1    1.1064e+02    5.2585e+02 ;    C33 - N31    - C35   
  8677   8676   8678      1    1.1074e+02    3.2669e+02 ;    H3A - C33    - H3B   
  8677   8676   8679      1    1.1074e+02    3.2669e+02 ;    H3A - C33    - H3C   
  8678   8676   8679      1    1.1074e+02    3.2669e+02 ;    H3B - C33    - H3C   
  8680   8675   8684      1    1.1064e+02    5.2585e+02 ;    C34 - N31    - C35   
  8681   8680   8682      1    1.1074e+02    3.2669e+02 ;    H4A - C34    - H4B   
  8681   8680   8683      1    1.1074e+02    3.2669e+02 ;    H4A - C34    - H4C   
  8682   8680   8683      1    1.1074e+02    3.2669e+02 ;    H4B - C34    - H4C   
  8685   8684   8686      1    1.1074e+02    3.2669e+02 ;    H5A - C35    - H5B   
  8685   8684   8687      1    1.1074e+02    3.2669e+02 ;    H5A - C35    - H5C   
  8686   8684   8687      1    1.1074e+02    3.2669e+02 ;    H5B - C35    - H5C   
  8688   8667   8689      1    1.1990e+02    1.1715e+03 ;    O33 - P31    - O34   
  8690   8691   8692      1    1.2333e+02    6.3538e+02 ;    O21 - C21    - O22   
  8690   8691   8730      1    1.1196e+02    5.7957e+02 ;    O21 - C21    - C12   
  8691   8730   8727      1    1.1053e+02    5.3379e+02 ;    C21 - C12    - C13   
  8691   8730   8731      1    1.0968e+02    3.9497e+02 ;    C21 - C12    - H2R   
  8691   8730   8732      1    1.0968e+02    3.9497e+02 ;    C21 - C12    - H2S   
  8692   8691   8730      1    1.2311e+02    5.6928e+02 ;    O22 - C21    - C12   
  8693   8694   8695      1    1.0835e+02    3.2995e+02 ;   H14T - C114   - H14R  
  8693   8694   8696      1    1.0835e+02    3.2995e+02 ;   H14T - C114   - H14S  
  8693   8694   8697      1    1.1005e+02    3.8802e+02 ;   H14T - C114   - C113  
  8694   8697   8698      1    1.1005e+02    3.8802e+02 ;   C114 - C113   - H13R  
  8694   8697   8699      1    1.1005e+02    3.8802e+02 ;   C114 - C113   - H13S  
  8694   8697   8700      1    1.1205e+02    3.9497e+02 ;   C114 - C113   - C112  
  8695   8694   8696      1    1.0835e+02    3.2995e+02 ;   H14R - C114   - H14S  
  8695   8694   8697      1    1.1005e+02    3.8802e+02 ;   H14R - C114   - C113  
  8696   8694   8697      1    1.1005e+02    3.8802e+02 ;   H14S - C114   - C113  
  8697   8700   8701      1    1.1005e+02    3.8802e+02 ;   C113 - C112   - H12R  
  8697   8700   8702      1    1.1005e+02    3.8802e+02 ;   C113 - C112   - H12S  
  8697   8700   8703      1    1.1205e+02    3.9497e+02 ;   C113 - C112   - C111  
  8698   8697   8699      1    1.0835e+02    3.2995e+02 ;   H13R - C113   - H13S  
  8698   8697   8700      1    1.1005e+02    3.8802e+02 ;   H13R - C113   - C112  
  8699   8697   8700      1    1.1005e+02    3.8802e+02 ;   H13S - C113   - C112  
  8700   8703   8704      1    1.1005e+02    3.8802e+02 ;   C112 - C111   - H11R  
  8700   8703   8705      1    1.1005e+02    3.8802e+02 ;   C112 - C111   - H11S  
  8700   8703   8706      1    1.1205e+02    3.9497e+02 ;   C112 - C111   - C110  
  8701   8700   8702      1    1.0835e+02    3.2995e+02 ;   H12R - C112   - H12S  
  8701   8700   8703      1    1.1005e+02    3.8802e+02 ;   H12R - C112   - C111  
  8702   8700   8703      1    1.1005e+02    3.8802e+02 ;   H12S - C112   - C111  
  8703   8706   8707      1    1.1005e+02    3.8802e+02 ;   C111 - C110   - H10R  
  8703   8706   8708      1    1.1005e+02    3.8802e+02 ;   C111 - C110   - H10S  
  8703   8706   8709      1    1.1205e+02    3.9497e+02 ;   C111 - C110   - C19   
  8704   8703   8705      1    1.0835e+02    3.2995e+02 ;   H11R - C111   - H11S  
  8704   8703   8706      1    1.1005e+02    3.8802e+02 ;   H11R - C111   - C110  
  8705   8703   8706      1    1.1005e+02    3.8802e+02 ;   H11S - C111   - C110  
  8706   8709   8710      1    1.1005e+02    3.8802e+02 ;   C110 - C19    - H9R   
  8706   8709   8711      1    1.1005e+02    3.8802e+02 ;   C110 - C19    - H9S   
  8706   8709   8712      1    1.1205e+02    3.9497e+02 ;   C110 - C19    - C18   
  8707   8706   8708      1    1.0835e+02    3.2995e+02 ;   H10R - C110   - H10S  
  8707   8706   8709      1    1.1005e+02    3.8802e+02 ;   H10R - C110   - C19   
  8708   8706   8709      1    1.1005e+02    3.8802e+02 ;   H10S - C110   - C19   
  8709   8712   8713      1    1.1005e+02    3.8802e+02 ;    C19 - C18    - H8R   
  8709   8712   8714      1    1.1005e+02    3.8802e+02 ;    C19 - C18    - H8S   
  8709   8712   8715      1    1.1205e+02    3.9497e+02 ;    C19 - C18    - C17   
  8710   8709   8711      1    1.0835e+02    3.2995e+02 ;    H9R - C19    - H9S   
  8710   8709   8712      1    1.1005e+02    3.8802e+02 ;    H9R - C19    - C18   
  8711   8709   8712      1    1.1005e+02    3.8802e+02 ;    H9S - C19    - C18   
  8712   8715   8716      1    1.1005e+02    3.8802e+02 ;    C18 - C17    - H7R   
  8712   8715   8717      1    1.1005e+02    3.8802e+02 ;    C18 - C17    - H7S   
  8712   8715   8718      1    1.1205e+02    3.9497e+02 ;    C18 - C17    - C16   
  8713   8712   8714      1    1.0835e+02    3.2995e+02 ;    H8R - C18    - H8S   
  8713   8712   8715      1    1.1005e+02    3.8802e+02 ;    H8R - C18    - C17   
  8714   8712   8715      1    1.1005e+02    3.8802e+02 ;    H8S - C18    - C17   
  8715   8718   8719      1    1.1005e+02    3.8802e+02 ;    C17 - C16    - H6R   
  8715   8718   8720      1    1.1005e+02    3.8802e+02 ;    C17 - C16    - H6S   
  8715   8718   8721      1    1.1205e+02    3.9497e+02 ;    C17 - C16    - C15   
  8716   8715   8717      1    1.0835e+02    3.2995e+02 ;    H7R - C17    - H7S   
  8716   8715   8718      1    1.1005e+02    3.8802e+02 ;    H7R - C17    - C16   
  8717   8715   8718      1    1.1005e+02    3.8802e+02 ;    H7S - C17    - C16   
  8718   8721   8722      1    1.1005e+02    3.8802e+02 ;    C16 - C15    - H5R   
  8718   8721   8723      1    1.1005e+02    3.8802e+02 ;    C16 - C15    - H5S   
  8718   8721   8724      1    1.1205e+02    3.9497e+02 ;    C16 - C15    - C14   
  8719   8718   8720      1    1.0835e+02    3.2995e+02 ;    H6R - C16    - H6S   
  8719   8718   8721      1    1.1005e+02    3.8802e+02 ;    H6R - C16    - C15   
  8720   8718   8721      1    1.1005e+02    3.8802e+02 ;    H6S - C16    - C15   
  8721   8724   8725      1    1.1005e+02    3.8802e+02 ;    C15 - C14    - H4R   
  8721   8724   8726      1    1.1005e+02    3.8802e+02 ;    C15 - C14    - H4S   
  8721   8724   8727      1    1.1205e+02    3.9497e+02 ;    C15 - C14    - C13   
  8722   8721   8723      1    1.0835e+02    3.2995e+02 ;    H5R - C15    - H5S   
  8722   8721   8724      1    1.1005e+02    3.8802e+02 ;    H5R - C15    - C14   
  8723   8721   8724      1    1.1005e+02    3.8802e+02 ;    H5S - C15    - C14   
  8724   8727   8728      1    1.1005e+02    3.8802e+02 ;    C14 - C13    - H3R   
  8724   8727   8729      1    1.1005e+02    3.8802e+02 ;    C14 - C13    - H3S   
  8724   8727   8730      1    1.1205e+02    3.9497e+02 ;    C14 - C13    - C12   
  8725   8724   8726      1    1.0835e+02    3.2995e+02 ;    H4R - C14    - H4S   
  8725   8724   8727      1    1.1005e+02    3.8802e+02 ;    H4R - C14    - C13   
  8726   8724   8727      1    1.1005e+02    3.8802e+02 ;    H4S - C14    - C13   
  8727   8730   8731      1    1.1005e+02    3.8802e+02 ;    C13 - C12    - H2R   
  8727   8730   8732      1    1.1005e+02    3.8802e+02 ;    C13 - C12    - H2S   
  8728   8727   8729      1    1.0835e+02    3.2995e+02 ;    H3R - C13    - H3S   
  8728   8727   8730      1    1.1005e+02    3.8802e+02 ;    H3R - C13    - C12   
  8729   8727   8730      1    1.1005e+02    3.8802e+02 ;    H3S - C13    - C12   
  8731   8730   8732      1    1.0835e+02    3.2995e+02 ;    H2R - C12    - H2S   
  8733   8734   8735      1    1.0835e+02    3.2995e+02 ;   H14T - C114   - H14R  
  8733   8734   8736      1    1.0835e+02    3.2995e+02 ;   H14T - C114   - H14S  
  8733   8734   8737      1    1.1005e+02    3.8802e+02 ;   H14T - C114   - C113  
  8734   8737   8738      1    1.1005e+02    3.8802e+02 ;   C114 - C113   - H13R  
  8734   8737   8739      1    1.1005e+02    3.8802e+02 ;   C114 - C113   - H13S  
  8734   8737   8740      1    1.1205e+02    3.9497e+02 ;   C114 - C113   - C112  
  8735   8734   8736      1    1.0835e+02    3.2995e+02 ;   H14R - C114   - H14S  
  8735   8734   8737      1    1.1005e+02    3.8802e+02 ;   H14R - C114   - C113  
  8736   8734   8737      1    1.1005e+02    3.8802e+02 ;   H14S - C114   - C113  
  8737   8740   8741      1    1.1005e+02    3.8802e+02 ;   C113 - C112   - H12R  
  8737   8740   8742      1    1.1005e+02    3.8802e+02 ;   C113 - C112   - H12S  
  8737   8740   8743      1    1.1205e+02    3.9497e+02 ;   C113 - C112   - C111  
  8738   8737   8739      1    1.0835e+02    3.2995e+02 ;   H13R - C113   - H13S  
  8738   8737   8740      1    1.1005e+02    3.8802e+02 ;   H13R - C113   - C112  
  8739   8737   8740      1    1.1005e+02    3.8802e+02 ;   H13S - C113   - C112  
  8740   8743   8744      1    1.1005e+02    3.8802e+02 ;   C112 - C111   - H11R  
  8740   8743   8745      1    1.1005e+02    3.8802e+02 ;   C112 - C111   - H11S  
  8740   8743   8746      1    1.1205e+02    3.9497e+02 ;   C112 - C111   - C110  
  8741   8740   8742      1    1.0835e+02    3.2995e+02 ;   H12R - C112   - H12S  
  8741   8740   8743      1    1.1005e+02    3.8802e+02 ;   H12R - C112   - C111  
  8742   8740   8743      1    1.1005e+02    3.8802e+02 ;   H12S - C112   - C111  
  8743   8746   8747      1    1.1005e+02    3.8802e+02 ;   C111 - C110   - H10R  
  8743   8746   8748      1    1.1005e+02    3.8802e+02 ;   C111 - C110   - H10S  
  8743   8746   8749      1    1.1205e+02    3.9497e+02 ;   C111 - C110   - C19   
  8744   8743   8745      1    1.0835e+02    3.2995e+02 ;   H11R - C111   - H11S  
  8744   8743   8746      1    1.1005e+02    3.8802e+02 ;   H11R - C111   - C110  
  8745   8743   8746      1    1.1005e+02    3.8802e+02 ;   H11S - C111   - C110  
  8746   8749   8750      1    1.1005e+02    3.8802e+02 ;   C110 - C19    - H9R   
  8746   8749   8751      1    1.1005e+02    3.8802e+02 ;   C110 - C19    - H9S   
  8746   8749   8752      1    1.1205e+02    3.9497e+02 ;   C110 - C19    - C18   
  8747   8746   8748      1    1.0835e+02    3.2995e+02 ;   H10R - C110   - H10S  
  8747   8746   8749      1    1.1005e+02    3.8802e+02 ;   H10R - C110   - C19   
  8748   8746   8749      1    1.1005e+02    3.8802e+02 ;   H10S - C110   - C19   
  8749   8752   8753      1    1.1005e+02    3.8802e+02 ;    C19 - C18    - H8R   
  8749   8752   8754      1    1.1005e+02    3.8802e+02 ;    C19 - C18    - H8S   
  8749   8752   8755      1    1.1205e+02    3.9497e+02 ;    C19 - C18    - C17   
  8750   8749   8751      1    1.0835e+02    3.2995e+02 ;    H9R - C19    - H9S   
  8750   8749   8752      1    1.1005e+02    3.8802e+02 ;    H9R - C19    - C18   
  8751   8749   8752      1    1.1005e+02    3.8802e+02 ;    H9S - C19    - C18   
  8752   8755   8756      1    1.1005e+02    3.8802e+02 ;    C18 - C17    - H7R   
  8752   8755   8757      1    1.1005e+02    3.8802e+02 ;    C18 - C17    - H7S   
  8752   8755   8758      1    1.1205e+02    3.9497e+02 ;    C18 - C17    - C16   
  8753   8752   8754      1    1.0835e+02    3.2995e+02 ;    H8R - C18    - H8S   
  8753   8752   8755      1    1.1005e+02    3.8802e+02 ;    H8R - C18    - C17   
  8754   8752   8755      1    1.1005e+02    3.8802e+02 ;    H8S - C18    - C17   
  8755   8758   8759      1    1.1005e+02    3.8802e+02 ;    C17 - C16    - H6R   
  8755   8758   8760      1    1.1005e+02    3.8802e+02 ;    C17 - C16    - H6S   
  8755   8758   8761      1    1.1205e+02    3.9497e+02 ;    C17 - C16    - C15   
  8756   8755   8757      1    1.0835e+02    3.2995e+02 ;    H7R - C17    - H7S   
  8756   8755   8758      1    1.1005e+02    3.8802e+02 ;    H7R - C17    - C16   
  8757   8755   8758      1    1.1005e+02    3.8802e+02 ;    H7S - C17    - C16   
  8758   8761   8762      1    1.1005e+02    3.8802e+02 ;    C16 - C15    - H5R   
  8758   8761   8763      1    1.1005e+02    3.8802e+02 ;    C16 - C15    - H5S   
  8758   8761   8764      1    1.1205e+02    3.9497e+02 ;    C16 - C15    - C14   
  8759   8758   8760      1    1.0835e+02    3.2995e+02 ;    H6R - C16    - H6S   
  8759   8758   8761      1    1.1005e+02    3.8802e+02 ;    H6R - C16    - C15   
  8760   8758   8761      1    1.1005e+02    3.8802e+02 ;    H6S - C16    - C15   
  8761   8764   8765      1    1.1005e+02    3.8802e+02 ;    C15 - C14    - H4R   
  8761   8764   8766      1    1.1005e+02    3.8802e+02 ;    C15 - C14    - H4S   
  8761   8764   8767      1    1.1205e+02    3.9497e+02 ;    C15 - C14    - C13   
  8762   8761   8763      1    1.0835e+02    3.2995e+02 ;    H5R - C15    - H5S   
  8762   8761   8764      1    1.1005e+02    3.8802e+02 ;    H5R - C15    - C14   
  8763   8761   8764      1    1.1005e+02    3.8802e+02 ;    H5S - C15    - C14   
  8764   8767   8768      1    1.1005e+02    3.8802e+02 ;    C14 - C13    - H3R   
  8764   8767   8769      1    1.1005e+02    3.8802e+02 ;    C14 - C13    - H3S   
  8764   8767   8770      1    1.1205e+02    3.9497e+02 ;    C14 - C13    - C12   
  8765   8764   8766      1    1.0835e+02    3.2995e+02 ;    H4R - C14    - H4S   
  8765   8764   8767      1    1.1005e+02    3.8802e+02 ;    H4R - C14    - C13   
  8766   8764   8767      1    1.1005e+02    3.8802e+02 ;    H4S - C14    - C13   
  8767   8770   8771      1    1.1005e+02    3.8802e+02 ;    C13 - C12    - H2R   
  8767   8770   8772      1    1.1005e+02    3.8802e+02 ;    C13 - C12    - H2S   
  8767   8770   8773      1    1.1053e+02    5.3379e+02 ;    C13 - C12    - C11   
  8768   8767   8769      1    1.0835e+02    3.2995e+02 ;    H3R - C13    - H3S   
  8768   8767   8770      1    1.1005e+02    3.8802e+02 ;    H3R - C13    - C12   
  8769   8767   8770      1    1.1005e+02    3.8802e+02 ;    H3S - C13    - C12   
  8770   8773   8774      1    1.2311e+02    5.6928e+02 ;    C12 - C11    - O12   
  8770   8773   8775      1    1.1196e+02    5.7957e+02 ;    C12 - C11    - O11   
  8771   8770   8772      1    1.0835e+02    3.2995e+02 ;    H2R - C12    - H2S   
  8771   8770   8773      1    1.0968e+02    3.9497e+02 ;    H2R - C12    - C11   
  8772   8770   8773      1    1.0968e+02    3.9497e+02 ;    H2S - C12    - C11   
  8773   8775   8776      1    1.1514e+02    5.3246e+02 ;    C11 - O11    - C1    
  8774   8773   8775      1    1.2333e+02    6.3538e+02 ;    O12 - C11    - O11   
  8775   8776   8777      1    1.0882e+02    4.2543e+02 ;    O11 - C1     - HR    
  8775   8776   8778      1    1.0882e+02    4.2543e+02 ;    O11 - C1     - HS    
  8775   8776   8779      1    1.0842e+02    5.6718e+02 ;    O11 - C1     - C2    
  8776   8779   8780      1    1.1007e+02    3.8794e+02 ;     C1 - C2     - HX    
  8776   8779   8781      1    1.1063e+02    5.2894e+02 ;     C1 - C2     - C3    
  8776   8779   8808      1    1.0842e+02    5.6718e+02 ;     C1 - C2     - O21   
  8777   8776   8778      1    1.0955e+02    3.2786e+02 ;     HR - C1     - HS    
  8777   8776   8779      1    1.1007e+02    3.8794e+02 ;     HR - C1     - C2    
  8778   8776   8779      1    1.1007e+02    3.8794e+02 ;     HS - C1     - C2    
  8779   8781   8782      1    1.1007e+02    3.8794e+02 ;     C2 - C3     - HA    
  8779   8781   8783      1    1.1007e+02    3.8794e+02 ;     C2 - C3     - HB    
  8779   8781   8784      1    1.0842e+02    5.6718e+02 ;     C2 - C3     - O31   
  8779   8808   8809      1    1.1514e+02    5.3246e+02 ;     C2 - O21    - C21   
  8780   8779   8781      1    1.1007e+02    3.8794e+02 ;     HX - C2     - C3    
  8780   8779   8808      1    1.0882e+02    4.2543e+02 ;     HX - C2     - O21   
  8781   8779   8808      1    1.0842e+02    5.6718e+02 ;     C3 - C2     - O21   
  8781   8784   8785      1    1.2050e+02    8.3680e+02 ;     C3 - O31    - P31   
  8782   8781   8783      1    1.0955e+02    3.2786e+02 ;     HA - C3     - HB    
  8782   8781   8784      1    1.0882e+02    4.2543e+02 ;     HA - C3     - O31   
  8783   8781   8784      1    1.0882e+02    4.2543e+02 ;     HB - C3     - O31   
  8784   8785   8786      1    1.0260e+02    7.5312e+02 ;    O31 - P31    - O32   
  8784   8785   8806      1    1.0823e+02    8.3680e+02 ;    O31 - P31    - O33   
  8784   8785   8807      1    1.0823e+02    8.3680e+02 ;    O31 - P31    - O34   
  8785   8786   8787      1    1.2050e+02    8.3680e+02 ;    P31 - O32    - C31   
  8786   8785   8806      1    1.0823e+02    8.3680e+02 ;    O32 - P31    - O33   
  8786   8785   8807      1    1.0823e+02    8.3680e+02 ;    O32 - P31    - O34   
  8786   8787   8788      1    1.0882e+02    4.2543e+02 ;    O32 - C31    - H1A   
  8786   8787   8789      1    1.0882e+02    4.2543e+02 ;    O32 - C31    - H1B   
  8786   8787   8790      1    1.0842e+02    5.6718e+02 ;    O32 - C31    - C32   
  8787   8790   8791      1    1.1174e+02    3.8510e+02 ;    C31 - C32    - H2A   
  8787   8790   8792      1    1.1174e+02    3.8510e+02 ;    C31 - C32    - H2B   
  8787   8790   8793      1    1.1432e+02    5.3932e+02 ;    C31 - C32    - N31   
  8788   8787   8789      1    1.0955e+02    3.2786e+02 ;    H1A - C31    - H1B   
  8788   8787   8790      1    1.1007e+02    3.8794e+02 ;    H1A - C31    - C32   
  8789   8787   8790      1    1.1007e+02    3.8794e+02 ;    H1B - C31    - C32   
  8790   8793   8794      1    1.1064e+02    5.2585e+02 ;    C32 - N31    - C33   
  8790   8793   8798      1    1.1064e+02    5.2585e+02 ;    C32 - N31    - C34   
  8790   8793   8802      1    1.1064e+02    5.2585e+02 ;    C32 - N31    - C35   
  8791   8790   8792      1    1.1074e+02    3.2669e+02 ;    H2A - C32    - H2B   
  8791   8790   8793      1    1.0791e+02    4.1020e+02 ;    H2A - C32    - N31   
  8792   8790   8793      1    1.0791e+02    4.1020e+02 ;    H2B - C32    - N31   
  8793   8794   8795      1    1.0791e+02    4.1020e+02 ;    N31 - C33    - H3A   
  8793   8794   8796      1    1.0791e+02    4.1020e+02 ;    N31 - C33    - H3B   
  8793   8794   8797      1    1.0791e+02    4.1020e+02 ;    N31 - C33    - H3C   
  8793   8798   8799      1    1.0791e+02    4.1020e+02 ;    N31 - C34    - H4A   
  8793   8798   8800      1    1.0791e+02    4.1020e+02 ;    N31 - C34    - H4B   
  8793   8798   8801      1    1.0791e+02    4.1020e+02 ;    N31 - C34    - H4C   
  8793   8802   8803      1    1.0791e+02    4.1020e+02 ;    N31 - C35    - H5A   
  8793   8802   8804      1    1.0791e+02    4.1020e+02 ;    N31 - C35    - H5B   
  8793   8802   8805      1    1.0791e+02    4.1020e+02 ;    N31 - C35    - H5C   
  8794   8793   8798      1    1.1064e+02    5.2585e+02 ;    C33 - N31    - C34   
  8794   8793   8802      1    1.1064e+02    5.2585e+02 ;    C33 - N31    - C35   
  8795   8794   8796      1    1.1074e+02    3.2669e+02 ;    H3A - C33    - H3B   
  8795   8794   8797      1    1.1074e+02    3.2669e+02 ;    H3A - C33    - H3C   
  8796   8794   8797      1    1.1074e+02    3.2669e+02 ;    H3B - C33    - H3C   
  8798   8793   8802      1    1.1064e+02    5.2585e+02 ;    C34 - N31    - C35   
  8799   8798   8800      1    1.1074e+02    3.2669e+02 ;    H4A - C34    - H4B   
  8799   8798   8801      1    1.1074e+02    3.2669e+02 ;    H4A - C34    - H4C   
  8800   8798   8801      1    1.1074e+02    3.2669e+02 ;    H4B - C34    - H4C   
  8803   8802   8804      1    1.1074e+02    3.2669e+02 ;    H5A - C35    - H5B   
  8803   8802   8805      1    1.1074e+02    3.2669e+02 ;    H5A - C35    - H5C   
  8804   8802   8805      1    1.1074e+02    3.2669e+02 ;    H5B - C35    - H5C   
  8806   8785   8807      1    1.1990e+02    1.1715e+03 ;    O33 - P31    - O34   
  8808   8809   8810      1    1.2333e+02    6.3538e+02 ;    O21 - C21    - O22   
  8808   8809   8848      1    1.1196e+02    5.7957e+02 ;    O21 - C21    - C12   
  8809   8848   8845      1    1.1053e+02    5.3379e+02 ;    C21 - C12    - C13   
  8809   8848   8849      1    1.0968e+02    3.9497e+02 ;    C21 - C12    - H2R   
  8809   8848   8850      1    1.0968e+02    3.9497e+02 ;    C21 - C12    - H2S   
  8810   8809   8848      1    1.2311e+02    5.6928e+02 ;    O22 - C21    - C12   
  8811   8812   8813      1    1.0835e+02    3.2995e+02 ;   H14T - C114   - H14R  
  8811   8812   8814      1    1.0835e+02    3.2995e+02 ;   H14T - C114   - H14S  
  8811   8812   8815      1    1.1005e+02    3.8802e+02 ;   H14T - C114   - C113  
  8812   8815   8816      1    1.1005e+02    3.8802e+02 ;   C114 - C113   - H13R  
  8812   8815   8817      1    1.1005e+02    3.8802e+02 ;   C114 - C113   - H13S  
  8812   8815   8818      1    1.1205e+02    3.9497e+02 ;   C114 - C113   - C112  
  8813   8812   8814      1    1.0835e+02    3.2995e+02 ;   H14R - C114   - H14S  
  8813   8812   8815      1    1.1005e+02    3.8802e+02 ;   H14R - C114   - C113  
  8814   8812   8815      1    1.1005e+02    3.8802e+02 ;   H14S - C114   - C113  
  8815   8818   8819      1    1.1005e+02    3.8802e+02 ;   C113 - C112   - H12R  
  8815   8818   8820      1    1.1005e+02    3.8802e+02 ;   C113 - C112   - H12S  
  8815   8818   8821      1    1.1205e+02    3.9497e+02 ;   C113 - C112   - C111  
  8816   8815   8817      1    1.0835e+02    3.2995e+02 ;   H13R - C113   - H13S  
  8816   8815   8818      1    1.1005e+02    3.8802e+02 ;   H13R - C113   - C112  
  8817   8815   8818      1    1.1005e+02    3.8802e+02 ;   H13S - C113   - C112  
  8818   8821   8822      1    1.1005e+02    3.8802e+02 ;   C112 - C111   - H11R  
  8818   8821   8823      1    1.1005e+02    3.8802e+02 ;   C112 - C111   - H11S  
  8818   8821   8824      1    1.1205e+02    3.9497e+02 ;   C112 - C111   - C110  
  8819   8818   8820      1    1.0835e+02    3.2995e+02 ;   H12R - C112   - H12S  
  8819   8818   8821      1    1.1005e+02    3.8802e+02 ;   H12R - C112   - C111  
  8820   8818   8821      1    1.1005e+02    3.8802e+02 ;   H12S - C112   - C111  
  8821   8824   8825      1    1.1005e+02    3.8802e+02 ;   C111 - C110   - H10R  
  8821   8824   8826      1    1.1005e+02    3.8802e+02 ;   C111 - C110   - H10S  
  8821   8824   8827      1    1.1205e+02    3.9497e+02 ;   C111 - C110   - C19   
  8822   8821   8823      1    1.0835e+02    3.2995e+02 ;   H11R - C111   - H11S  
  8822   8821   8824      1    1.1005e+02    3.8802e+02 ;   H11R - C111   - C110  
  8823   8821   8824      1    1.1005e+02    3.8802e+02 ;   H11S - C111   - C110  
  8824   8827   8828      1    1.1005e+02    3.8802e+02 ;   C110 - C19    - H9R   
  8824   8827   8829      1    1.1005e+02    3.8802e+02 ;   C110 - C19    - H9S   
  8824   8827   8830      1    1.1205e+02    3.9497e+02 ;   C110 - C19    - C18   
  8825   8824   8826      1    1.0835e+02    3.2995e+02 ;   H10R - C110   - H10S  
  8825   8824   8827      1    1.1005e+02    3.8802e+02 ;   H10R - C110   - C19   
  8826   8824   8827      1    1.1005e+02    3.8802e+02 ;   H10S - C110   - C19   
  8827   8830   8831      1    1.1005e+02    3.8802e+02 ;    C19 - C18    - H8R   
  8827   8830   8832      1    1.1005e+02    3.8802e+02 ;    C19 - C18    - H8S   
  8827   8830   8833      1    1.1205e+02    3.9497e+02 ;    C19 - C18    - C17   
  8828   8827   8829      1    1.0835e+02    3.2995e+02 ;    H9R - C19    - H9S   
  8828   8827   8830      1    1.1005e+02    3.8802e+02 ;    H9R - C19    - C18   
  8829   8827   8830      1    1.1005e+02    3.8802e+02 ;    H9S - C19    - C18   
  8830   8833   8834      1    1.1005e+02    3.8802e+02 ;    C18 - C17    - H7R   
  8830   8833   8835      1    1.1005e+02    3.8802e+02 ;    C18 - C17    - H7S   
  8830   8833   8836      1    1.1205e+02    3.9497e+02 ;    C18 - C17    - C16   
  8831   8830   8832      1    1.0835e+02    3.2995e+02 ;    H8R - C18    - H8S   
  8831   8830   8833      1    1.1005e+02    3.8802e+02 ;    H8R - C18    - C17   
  8832   8830   8833      1    1.1005e+02    3.8802e+02 ;    H8S - C18    - C17   
  8833   8836   8837      1    1.1005e+02    3.8802e+02 ;    C17 - C16    - H6R   
  8833   8836   8838      1    1.1005e+02    3.8802e+02 ;    C17 - C16    - H6S   
  8833   8836   8839      1    1.1205e+02    3.9497e+02 ;    C17 - C16    - C15   
  8834   8833   8835      1    1.0835e+02    3.2995e+02 ;    H7R - C17    - H7S   
  8834   8833   8836      1    1.1005e+02    3.8802e+02 ;    H7R - C17    - C16   
  8835   8833   8836      1    1.1005e+02    3.8802e+02 ;    H7S - C17    - C16   
  8836   8839   8840      1    1.1005e+02    3.8802e+02 ;    C16 - C15    - H5R   
  8836   8839   8841      1    1.1005e+02    3.8802e+02 ;    C16 - C15    - H5S   
  8836   8839   8842      1    1.1205e+02    3.9497e+02 ;    C16 - C15    - C14   
  8837   8836   8838      1    1.0835e+02    3.2995e+02 ;    H6R - C16    - H6S   
  8837   8836   8839      1    1.1005e+02    3.8802e+02 ;    H6R - C16    - C15   
  8838   8836   8839      1    1.1005e+02    3.8802e+02 ;    H6S - C16    - C15   
  8839   8842   8843      1    1.1005e+02    3.8802e+02 ;    C15 - C14    - H4R   
  8839   8842   8844      1    1.1005e+02    3.8802e+02 ;    C15 - C14    - H4S   
  8839   8842   8845      1    1.1205e+02    3.9497e+02 ;    C15 - C14    - C13   
  8840   8839   8841      1    1.0835e+02    3.2995e+02 ;    H5R - C15    - H5S   
  8840   8839   8842      1    1.1005e+02    3.8802e+02 ;    H5R - C15    - C14   
  8841   8839   8842      1    1.1005e+02    3.8802e+02 ;    H5S - C15    - C14   
  8842   8845   8846      1    1.1005e+02    3.8802e+02 ;    C14 - C13    - H3R   
  8842   8845   8847      1    1.1005e+02    3.8802e+02 ;    C14 - C13    - H3S   
  8842   8845   8848      1    1.1205e+02    3.9497e+02 ;    C14 - C13    - C12   
  8843   8842   8844      1    1.0835e+02    3.2995e+02 ;    H4R - C14    - H4S   
  8843   8842   8845      1    1.1005e+02    3.8802e+02 ;    H4R - C14    - C13   
  8844   8842   8845      1    1.1005e+02    3.8802e+02 ;    H4S - C14    - C13   
  8845   8848   8849      1    1.1005e+02    3.8802e+02 ;    C13 - C12    - H2R   
  8845   8848   8850      1    1.1005e+02    3.8802e+02 ;    C13 - C12    - H2S   
  8846   8845   8847      1    1.0835e+02    3.2995e+02 ;    H3R - C13    - H3S   
  8846   8845   8848      1    1.1005e+02    3.8802e+02 ;    H3R - C13    - C12   
  8847   8845   8848      1    1.1005e+02    3.8802e+02 ;    H3S - C13    - C12   
  8849   8848   8850      1    1.0835e+02    3.2995e+02 ;    H2R - C12    - H2S   
  8851   8852   8853      1    1.0835e+02    3.2995e+02 ;   H14T - C114   - H14R  
  8851   8852   8854      1    1.0835e+02    3.2995e+02 ;   H14T - C114   - H14S  
  8851   8852   8855      1    1.1005e+02    3.8802e+02 ;   H14T - C114   - C113  
  8852   8855   8856      1    1.1005e+02    3.8802e+02 ;   C114 - C113   - H13R  
  8852   8855   8857      1    1.1005e+02    3.8802e+02 ;   C114 - C113   - H13S  
  8852   8855   8858      1    1.1205e+02    3.9497e+02 ;   C114 - C113   - C112  
  8853   8852   8854      1    1.0835e+02    3.2995e+02 ;   H14R - C114   - H14S  
  8853   8852   8855      1    1.1005e+02    3.8802e+02 ;   H14R - C114   - C113  
  8854   8852   8855      1    1.1005e+02    3.8802e+02 ;   H14S - C114   - C113  
  8855   8858   8859      1    1.1005e+02    3.8802e+02 ;   C113 - C112   - H12R  
  8855   8858   8860      1    1.1005e+02    3.8802e+02 ;   C113 - C112   - H12S  
  8855   8858   8861      1    1.1205e+02    3.9497e+02 ;   C113 - C112   - C111  
  8856   8855   8857      1    1.0835e+02    3.2995e+02 ;   H13R - C113   - H13S  
  8856   8855   8858      1    1.1005e+02    3.8802e+02 ;   H13R - C113   - C112  
  8857   8855   8858      1    1.1005e+02    3.8802e+02 ;   H13S - C113   - C112  
  8858   8861   8862      1    1.1005e+02    3.8802e+02 ;   C112 - C111   - H11R  
  8858   8861   8863      1    1.1005e+02    3.8802e+02 ;   C112 - C111   - H11S  
  8858   8861   8864      1    1.1205e+02    3.9497e+02 ;   C112 - C111   - C110  
  8859   8858   8860      1    1.0835e+02    3.2995e+02 ;   H12R - C112   - H12S  
  8859   8858   8861      1    1.1005e+02    3.8802e+02 ;   H12R - C112   - C111  
  8860   8858   8861      1    1.1005e+02    3.8802e+02 ;   H12S - C112   - C111  
  8861   8864   8865      1    1.1005e+02    3.8802e+02 ;   C111 - C110   - H10R  
  8861   8864   8866      1    1.1005e+02    3.8802e+02 ;   C111 - C110   - H10S  
  8861   8864   8867      1    1.1205e+02    3.9497e+02 ;   C111 - C110   - C19   
  8862   8861   8863      1    1.0835e+02    3.2995e+02 ;   H11R - C111   - H11S  
  8862   8861   8864      1    1.1005e+02    3.8802e+02 ;   H11R - C111   - C110  
  8863   8861   8864      1    1.1005e+02    3.8802e+02 ;   H11S - C111   - C110  
  8864   8867   8868      1    1.1005e+02    3.8802e+02 ;   C110 - C19    - H9R   
  8864   8867   8869      1    1.1005e+02    3.8802e+02 ;   C110 - C19    - H9S   
  8864   8867   8870      1    1.1205e+02    3.9497e+02 ;   C110 - C19    - C18   
  8865   8864   8866      1    1.0835e+02    3.2995e+02 ;   H10R - C110   - H10S  
  8865   8864   8867      1    1.1005e+02    3.8802e+02 ;   H10R - C110   - C19   
  8866   8864   8867      1    1.1005e+02    3.8802e+02 ;   H10S - C110   - C19   
  8867   8870   8871      1    1.1005e+02    3.8802e+02 ;    C19 - C18    - H8R   
  8867   8870   8872      1    1.1005e+02    3.8802e+02 ;    C19 - C18    - H8S   
  8867   8870   8873      1    1.1205e+02    3.9497e+02 ;    C19 - C18    - C17   
  8868   8867   8869      1    1.0835e+02    3.2995e+02 ;    H9R - C19    - H9S   
  8868   8867   8870      1    1.1005e+02    3.8802e+02 ;    H9R - C19    - C18   
  8869   8867   8870      1    1.1005e+02    3.8802e+02 ;    H9S - C19    - C18   
  8870   8873   8874      1    1.1005e+02    3.8802e+02 ;    C18 - C17    - H7R   
  8870   8873   8875      1    1.1005e+02    3.8802e+02 ;    C18 - C17    - H7S   
  8870   8873   8876      1    1.1205e+02    3.9497e+02 ;    C18 - C17    - C16   
  8871   8870   8872      1    1.0835e+02    3.2995e+02 ;    H8R - C18    - H8S   
  8871   8870   8873      1    1.1005e+02    3.8802e+02 ;    H8R - C18    - C17   
  8872   8870   8873      1    1.1005e+02    3.8802e+02 ;    H8S - C18    - C17   
  8873   8876   8877      1    1.1005e+02    3.8802e+02 ;    C17 - C16    - H6R   
  8873   8876   8878      1    1.1005e+02    3.8802e+02 ;    C17 - C16    - H6S   
  8873   8876   8879      1    1.1205e+02    3.9497e+02 ;    C17 - C16    - C15   
  8874   8873   8875      1    1.0835e+02    3.2995e+02 ;    H7R - C17    - H7S   
  8874   8873   8876      1    1.1005e+02    3.8802e+02 ;    H7R - C17    - C16   
  8875   8873   8876      1    1.1005e+02    3.8802e+02 ;    H7S - C17    - C16   
  8876   8879   8880      1    1.1005e+02    3.8802e+02 ;    C16 - C15    - H5R   
  8876   8879   8881      1    1.1005e+02    3.8802e+02 ;    C16 - C15    - H5S   
  8876   8879   8882      1    1.1205e+02    3.9497e+02 ;    C16 - C15    - C14   
  8877   8876   8878      1    1.0835e+02    3.2995e+02 ;    H6R - C16    - H6S   
  8877   8876   8879      1    1.1005e+02    3.8802e+02 ;    H6R - C16    - C15   
  8878   8876   8879      1    1.1005e+02    3.8802e+02 ;    H6S - C16    - C15   
  8879   8882   8883      1    1.1005e+02    3.8802e+02 ;    C15 - C14    - H4R   
  8879   8882   8884      1    1.1005e+02    3.8802e+02 ;    C15 - C14    - H4S   
  8879   8882   8885      1    1.1205e+02    3.9497e+02 ;    C15 - C14    - C13   
  8880   8879   8881      1    1.0835e+02    3.2995e+02 ;    H5R - C15    - H5S   
  8880   8879   8882      1    1.1005e+02    3.8802e+02 ;    H5R - C15    - C14   
  8881   8879   8882      1    1.1005e+02    3.8802e+02 ;    H5S - C15    - C14   
  8882   8885   8886      1    1.1005e+02    3.8802e+02 ;    C14 - C13    - H3R   
  8882   8885   8887      1    1.1005e+02    3.8802e+02 ;    C14 - C13    - H3S   
  8882   8885   8888      1    1.1205e+02    3.9497e+02 ;    C14 - C13    - C12   
  8883   8882   8884      1    1.0835e+02    3.2995e+02 ;    H4R - C14    - H4S   
  8883   8882   8885      1    1.1005e+02    3.8802e+02 ;    H4R - C14    - C13   
  8884   8882   8885      1    1.1005e+02    3.8802e+02 ;    H4S - C14    - C13   
  8885   8888   8889      1    1.1005e+02    3.8802e+02 ;    C13 - C12    - H2R   
  8885   8888   8890      1    1.1005e+02    3.8802e+02 ;    C13 - C12    - H2S   
  8885   8888   8891      1    1.1053e+02    5.3379e+02 ;    C13 - C12    - C11   
  8886   8885   8887      1    1.0835e+02    3.2995e+02 ;    H3R - C13    - H3S   
  8886   8885   8888      1    1.1005e+02    3.8802e+02 ;    H3R - C13    - C12   
  8887   8885   8888      1    1.1005e+02    3.8802e+02 ;    H3S - C13    - C12   
  8888   8891   8892      1    1.2311e+02    5.6928e+02 ;    C12 - C11    - O12   
  8888   8891   8893      1    1.1196e+02    5.7957e+02 ;    C12 - C11    - O11   
  8889   8888   8890      1    1.0835e+02    3.2995e+02 ;    H2R - C12    - H2S   
  8889   8888   8891      1    1.0968e+02    3.9497e+02 ;    H2R - C12    - C11   
  8890   8888   8891      1    1.0968e+02    3.9497e+02 ;    H2S - C12    - C11   
  8891   8893   8894      1    1.1514e+02    5.3246e+02 ;    C11 - O11    - C1    
  8892   8891   8893      1    1.2333e+02    6.3538e+02 ;    O12 - C11    - O11   
  8893   8894   8895      1    1.0882e+02    4.2543e+02 ;    O11 - C1     - HR    
  8893   8894   8896      1    1.0882e+02    4.2543e+02 ;    O11 - C1     - HS    
  8893   8894   8897      1    1.0842e+02    5.6718e+02 ;    O11 - C1     - C2    
  8894   8897   8898      1    1.1007e+02    3.8794e+02 ;     C1 - C2     - HX    
  8894   8897   8899      1    1.1063e+02    5.2894e+02 ;     C1 - C2     - C3    
  8894   8897   8926      1    1.0842e+02    5.6718e+02 ;     C1 - C2     - O21   
  8895   8894   8896      1    1.0955e+02    3.2786e+02 ;     HR - C1     - HS    
  8895   8894   8897      1    1.1007e+02    3.8794e+02 ;     HR - C1     - C2    
  8896   8894   8897      1    1.1007e+02    3.8794e+02 ;     HS - C1     - C2    
  8897   8899   8900      1    1.1007e+02    3.8794e+02 ;     C2 - C3     - HA    
  8897   8899   8901      1    1.1007e+02    3.8794e+02 ;     C2 - C3     - HB    
  8897   8899   8902      1    1.0842e+02    5.6718e+02 ;     C2 - C3     - O31   
  8897   8926   8927      1    1.1514e+02    5.3246e+02 ;     C2 - O21    - C21   
  8898   8897   8899      1    1.1007e+02    3.8794e+02 ;     HX - C2     - C3    
  8898   8897   8926      1    1.0882e+02    4.2543e+02 ;     HX - C2     - O21   
  8899   8897   8926      1    1.0842e+02    5.6718e+02 ;     C3 - C2     - O21   
  8899   8902   8903      1    1.2050e+02    8.3680e+02 ;     C3 - O31    - P31   
  8900   8899   8901      1    1.0955e+02    3.2786e+02 ;     HA - C3     - HB    
  8900   8899   8902      1    1.0882e+02    4.2543e+02 ;     HA - C3     - O31   
  8901   8899   8902      1    1.0882e+02    4.2543e+02 ;     HB - C3     - O31   
  8902   8903   8904      1    1.0260e+02    7.5312e+02 ;    O31 - P31    - O32   
  8902   8903   8924      1    1.0823e+02    8.3680e+02 ;    O31 - P31    - O33   
  8902   8903   8925      1    1.0823e+02    8.3680e+02 ;    O31 - P31    - O34   
  8903   8904   8905      1    1.2050e+02    8.3680e+02 ;    P31 - O32    - C31   
  8904   8903   8924      1    1.0823e+02    8.3680e+02 ;    O32 - P31    - O33   
  8904   8903   8925      1    1.0823e+02    8.3680e+02 ;    O32 - P31    - O34   
  8904   8905   8906      1    1.0882e+02    4.2543e+02 ;    O32 - C31    - H1A   
  8904   8905   8907      1    1.0882e+02    4.2543e+02 ;    O32 - C31    - H1B   
  8904   8905   8908      1    1.0842e+02    5.6718e+02 ;    O32 - C31    - C32   
  8905   8908   8909      1    1.1174e+02    3.8510e+02 ;    C31 - C32    - H2A   
  8905   8908   8910      1    1.1174e+02    3.8510e+02 ;    C31 - C32    - H2B   
  8905   8908   8911      1    1.1432e+02    5.3932e+02 ;    C31 - C32    - N31   
  8906   8905   8907      1    1.0955e+02    3.2786e+02 ;    H1A - C31    - H1B   
  8906   8905   8908      1    1.1007e+02    3.8794e+02 ;    H1A - C31    - C32   
  8907   8905   8908      1    1.1007e+02    3.8794e+02 ;    H1B - C31    - C32   
  8908   8911   8912      1    1.1064e+02    5.2585e+02 ;    C32 - N31    - C33   
  8908   8911   8916      1    1.1064e+02    5.2585e+02 ;    C32 - N31    - C34   
  8908   8911   8920      1    1.1064e+02    5.2585e+02 ;    C32 - N31    - C35   
  8909   8908   8910      1    1.1074e+02    3.2669e+02 ;    H2A - C32    - H2B   
  8909   8908   8911      1    1.0791e+02    4.1020e+02 ;    H2A - C32    - N31   
  8910   8908   8911      1    1.0791e+02    4.1020e+02 ;    H2B - C32    - N31   
  8911   8912   8913      1    1.0791e+02    4.1020e+02 ;    N31 - C33    - H3A   
  8911   8912   8914      1    1.0791e+02    4.1020e+02 ;    N31 - C33    - H3B   
  8911   8912   8915      1    1.0791e+02    4.1020e+02 ;    N31 - C33    - H3C   
  8911   8916   8917      1    1.0791e+02    4.1020e+02 ;    N31 - C34    - H4A   
  8911   8916   8918      1    1.0791e+02    4.1020e+02 ;    N31 - C34    - H4B   
  8911   8916   8919      1    1.0791e+02    4.1020e+02 ;    N31 - C34    - H4C   
  8911   8920   8921      1    1.0791e+02    4.1020e+02 ;    N31 - C35    - H5A   
  8911   8920   8922      1    1.0791e+02    4.1020e+02 ;    N31 - C35    - H5B   
  8911   8920   8923      1    1.0791e+02    4.1020e+02 ;    N31 - C35    - H5C   
  8912   8911   8916      1    1.1064e+02    5.2585e+02 ;    C33 - N31    - C34   
  8912   8911   8920      1    1.1064e+02    5.2585e+02 ;    C33 - N31    - C35   
  8913   8912   8914      1    1.1074e+02    3.2669e+02 ;    H3A - C33    - H3B   
  8913   8912   8915      1    1.1074e+02    3.2669e+02 ;    H3A - C33    - H3C   
  8914   8912   8915      1    1.1074e+02    3.2669e+02 ;    H3B - C33    - H3C   
  8916   8911   8920      1    1.1064e+02    5.2585e+02 ;    C34 - N31    - C35   
  8917   8916   8918      1    1.1074e+02    3.2669e+02 ;    H4A - C34    - H4B   
  8917   8916   8919      1    1.1074e+02    3.2669e+02 ;    H4A - C34    - H4C   
  8918   8916   8919      1    1.1074e+02    3.2669e+02 ;    H4B - C34    - H4C   
  8921   8920   8922      1    1.1074e+02    3.2669e+02 ;    H5A - C35    - H5B   
  8921   8920   8923      1    1.1074e+02    3.2669e+02 ;    H5A - C35    - H5C   
  8922   8920   8923      1    1.1074e+02    3.2669e+02 ;    H5B - C35    - H5C   
  8924   8903   8925      1    1.1990e+02    1.1715e+03 ;    O33 - P31    - O34   
  8926   8927   8928      1    1.2333e+02    6.3538e+02 ;    O21 - C21    - O22   
  8926   8927   8966      1    1.1196e+02    5.7957e+02 ;    O21 - C21    - C12   
  8927   8966   8963      1    1.1053e+02    5.3379e+02 ;    C21 - C12    - C13   
  8927   8966   8967      1    1.0968e+02    3.9497e+02 ;    C21 - C12    - H2R   
  8927   8966   8968      1    1.0968e+02    3.9497e+02 ;    C21 - C12    - H2S   
  8928   8927   8966      1    1.2311e+02    5.6928e+02 ;    O22 - C21    - C12   
  8929   8930   8931      1    1.0835e+02    3.2995e+02 ;   H14T - C114   - H14R  
  8929   8930   8932      1    1.0835e+02    3.2995e+02 ;   H14T - C114   - H14S  
  8929   8930   8933      1    1.1005e+02    3.8802e+02 ;   H14T - C114   - C113  
  8930   8933   8934      1    1.1005e+02    3.8802e+02 ;   C114 - C113   - H13R  
  8930   8933   8935      1    1.1005e+02    3.8802e+02 ;   C114 - C113   - H13S  
  8930   8933   8936      1    1.1205e+02    3.9497e+02 ;   C114 - C113   - C112  
  8931   8930   8932      1    1.0835e+02    3.2995e+02 ;   H14R - C114   - H14S  
  8931   8930   8933      1    1.1005e+02    3.8802e+02 ;   H14R - C114   - C113  
  8932   8930   8933      1    1.1005e+02    3.8802e+02 ;   H14S - C114   - C113  
  8933   8936   8937      1    1.1005e+02    3.8802e+02 ;   C113 - C112   - H12R  
  8933   8936   8938      1    1.1005e+02    3.8802e+02 ;   C113 - C112   - H12S  
  8933   8936   8939      1    1.1205e+02    3.9497e+02 ;   C113 - C112   - C111  
  8934   8933   8935      1    1.0835e+02    3.2995e+02 ;   H13R - C113   - H13S  
  8934   8933   8936      1    1.1005e+02    3.8802e+02 ;   H13R - C113   - C112  
  8935   8933   8936      1    1.1005e+02    3.8802e+02 ;   H13S - C113   - C112  
  8936   8939   8940      1    1.1005e+02    3.8802e+02 ;   C112 - C111   - H11R  
  8936   8939   8941      1    1.1005e+02    3.8802e+02 ;   C112 - C111   - H11S  
  8936   8939   8942      1    1.1205e+02    3.9497e+02 ;   C112 - C111   - C110  
  8937   8936   8938      1    1.0835e+02    3.2995e+02 ;   H12R - C112   - H12S  
  8937   8936   8939      1    1.1005e+02    3.8802e+02 ;   H12R - C112   - C111  
  8938   8936   8939      1    1.1005e+02    3.8802e+02 ;   H12S - C112   - C111  
  8939   8942   8943      1    1.1005e+02    3.8802e+02 ;   C111 - C110   - H10R  
  8939   8942   8944      1    1.1005e+02    3.8802e+02 ;   C111 - C110   - H10S  
  8939   8942   8945      1    1.1205e+02    3.9497e+02 ;   C111 - C110   - C19   
  8940   8939   8941      1    1.0835e+02    3.2995e+02 ;   H11R - C111   - H11S  
  8940   8939   8942      1    1.1005e+02    3.8802e+02 ;   H11R - C111   - C110  
  8941   8939   8942      1    1.1005e+02    3.8802e+02 ;   H11S - C111   - C110  
  8942   8945   8946      1    1.1005e+02    3.8802e+02 ;   C110 - C19    - H9R   
  8942   8945   8947      1    1.1005e+02    3.8802e+02 ;   C110 - C19    - H9S   
  8942   8945   8948      1    1.1205e+02    3.9497e+02 ;   C110 - C19    - C18   
  8943   8942   8944      1    1.0835e+02    3.2995e+02 ;   H10R - C110   - H10S  
  8943   8942   8945      1    1.1005e+02    3.8802e+02 ;   H10R - C110   - C19   
  8944   8942   8945      1    1.1005e+02    3.8802e+02 ;   H10S - C110   - C19   
  8945   8948   8949      1    1.1005e+02    3.8802e+02 ;    C19 - C18    - H8R   
  8945   8948   8950      1    1.1005e+02    3.8802e+02 ;    C19 - C18    - H8S   
  8945   8948   8951      1    1.1205e+02    3.9497e+02 ;    C19 - C18    - C17   
  8946   8945   8947      1    1.0835e+02    3.2995e+02 ;    H9R - C19    - H9S   
  8946   8945   8948      1    1.1005e+02    3.8802e+02 ;    H9R - C19    - C18   
  8947   8945   8948      1    1.1005e+02    3.8802e+02 ;    H9S - C19    - C18   
  8948   8951   8952      1    1.1005e+02    3.8802e+02 ;    C18 - C17    - H7R   
  8948   8951   8953      1    1.1005e+02    3.8802e+02 ;    C18 - C17    - H7S   
  8948   8951   8954      1    1.1205e+02    3.9497e+02 ;    C18 - C17    - C16   
  8949   8948   8950      1    1.0835e+02    3.2995e+02 ;    H8R - C18    - H8S   
  8949   8948   8951      1    1.1005e+02    3.8802e+02 ;    H8R - C18    - C17   
  8950   8948   8951      1    1.1005e+02    3.8802e+02 ;    H8S - C18    - C17   
  8951   8954   8955      1    1.1005e+02    3.8802e+02 ;    C17 - C16    - H6R   
  8951   8954   8956      1    1.1005e+02    3.8802e+02 ;    C17 - C16    - H6S   
  8951   8954   8957      1    1.1205e+02    3.9497e+02 ;    C17 - C16    - C15   
  8952   8951   8953      1    1.0835e+02    3.2995e+02 ;    H7R - C17    - H7S   
  8952   8951   8954      1    1.1005e+02    3.8802e+02 ;    H7R - C17    - C16   
  8953   8951   8954      1    1.1005e+02    3.8802e+02 ;    H7S - C17    - C16   
  8954   8957   8958      1    1.1005e+02    3.8802e+02 ;    C16 - C15    - H5R   
  8954   8957   8959      1    1.1005e+02    3.8802e+02 ;    C16 - C15    - H5S   
  8954   8957   8960      1    1.1205e+02    3.9497e+02 ;    C16 - C15    - C14   
  8955   8954   8956      1    1.0835e+02    3.2995e+02 ;    H6R - C16    - H6S   
  8955   8954   8957      1    1.1005e+02    3.8802e+02 ;    H6R - C16    - C15   
  8956   8954   8957      1    1.1005e+02    3.8802e+02 ;    H6S - C16    - C15   
  8957   8960   8961      1    1.1005e+02    3.8802e+02 ;    C15 - C14    - H4R   
  8957   8960   8962      1    1.1005e+02    3.8802e+02 ;    C15 - C14    - H4S   
  8957   8960   8963      1    1.1205e+02    3.9497e+02 ;    C15 - C14    - C13   
  8958   8957   8959      1    1.0835e+02    3.2995e+02 ;    H5R - C15    - H5S   
  8958   8957   8960      1    1.1005e+02    3.8802e+02 ;    H5R - C15    - C14   
  8959   8957   8960      1    1.1005e+02    3.8802e+02 ;    H5S - C15    - C14   
  8960   8963   8964      1    1.1005e+02    3.8802e+02 ;    C14 - C13    - H3R   
  8960   8963   8965      1    1.1005e+02    3.8802e+02 ;    C14 - C13    - H3S   
  8960   8963   8966      1    1.1205e+02    3.9497e+02 ;    C14 - C13    - C12   
  8961   8960   8962      1    1.0835e+02    3.2995e+02 ;    H4R - C14    - H4S   
  8961   8960   8963      1    1.1005e+02    3.8802e+02 ;    H4R - C14    - C13   
  8962   8960   8963      1    1.1005e+02    3.8802e+02 ;    H4S - C14    - C13   
  8963   8966   8967      1    1.1005e+02    3.8802e+02 ;    C13 - C12    - H2R   
  8963   8966   8968      1    1.1005e+02    3.8802e+02 ;    C13 - C12    - H2S   
  8964   8963   8965      1    1.0835e+02    3.2995e+02 ;    H3R - C13    - H3S   
  8964   8963   8966      1    1.1005e+02    3.8802e+02 ;    H3R - C13    - C12   
  8965   8963   8966      1    1.1005e+02    3.8802e+02 ;    H3S - C13    - C12   
  8967   8966   8968      1    1.0835e+02    3.2995e+02 ;    H2R - C12    - H2S   
  8969   8970   8971      1    1.0835e+02    3.2995e+02 ;   H14T - C114   - H14R  
  8969   8970   8972      1    1.0835e+02    3.2995e+02 ;   H14T - C114   - H14S  
  8969   8970   8973      1    1.1005e+02    3.8802e+02 ;   H14T - C114   - C113  
  8970   8973   8974      1    1.1005e+02    3.8802e+02 ;   C114 - C113   - H13R  
  8970   8973   8975      1    1.1005e+02    3.8802e+02 ;   C114 - C113   - H13S  
  8970   8973   8976      1    1.1205e+02    3.9497e+02 ;   C114 - C113   - C112  
  8971   8970   8972      1    1.0835e+02    3.2995e+02 ;   H14R - C114   - H14S  
  8971   8970   8973      1    1.1005e+02    3.8802e+02 ;   H14R - C114   - C113  
  8972   8970   8973      1    1.1005e+02    3.8802e+02 ;   H14S - C114   - C113  
  8973   8976   8977      1    1.1005e+02    3.8802e+02 ;   C113 - C112   - H12R  
  8973   8976   8978      1    1.1005e+02    3.8802e+02 ;   C113 - C112   - H12S  
  8973   8976   8979      1    1.1205e+02    3.9497e+02 ;   C113 - C112   - C111  
  8974   8973   8975      1    1.0835e+02    3.2995e+02 ;   H13R - C113   - H13S  
  8974   8973   8976      1    1.1005e+02    3.8802e+02 ;   H13R - C113   - C112  
  8975   8973   8976      1    1.1005e+02    3.8802e+02 ;   H13S - C113   - C112  
  8976   8979   8980      1    1.1005e+02    3.8802e+02 ;   C112 - C111   - H11R  
  8976   8979   8981      1    1.1005e+02    3.8802e+02 ;   C112 - C111   - H11S  
  8976   8979   8982      1    1.1205e+02    3.9497e+02 ;   C112 - C111   - C110  
  8977   8976   8978      1    1.0835e+02    3.2995e+02 ;   H12R - C112   - H12S  
  8977   8976   8979      1    1.1005e+02    3.8802e+02 ;   H12R - C112   - C111  
  8978   8976   8979      1    1.1005e+02    3.8802e+02 ;   H12S - C112   - C111  
  8979   8982   8983      1    1.1005e+02    3.8802e+02 ;   C111 - C110   - H10R  
  8979   8982   8984      1    1.1005e+02    3.8802e+02 ;   C111 - C110   - H10S  
  8979   8982   8985      1    1.1205e+02    3.9497e+02 ;   C111 - C110   - C19   
  8980   8979   8981      1    1.0835e+02    3.2995e+02 ;   H11R - C111   - H11S  
  8980   8979   8982      1    1.1005e+02    3.8802e+02 ;   H11R - C111   - C110  
  8981   8979   8982      1    1.1005e+02    3.8802e+02 ;   H11S - C111   - C110  
  8982   8985   8986      1    1.1005e+02    3.8802e+02 ;   C110 - C19    - H9R   
  8982   8985   8987      1    1.1005e+02    3.8802e+02 ;   C110 - C19    - H9S   
  8982   8985   8988      1    1.1205e+02    3.9497e+02 ;   C110 - C19    - C18   
  8983   8982   8984      1    1.0835e+02    3.2995e+02 ;   H10R - C110   - H10S  
  8983   8982   8985      1    1.1005e+02    3.8802e+02 ;   H10R - C110   - C19   
  8984   8982   8985      1    1.1005e+02    3.8802e+02 ;   H10S - C110   - C19   
  8985   8988   8989      1    1.1005e+02    3.8802e+02 ;    C19 - C18    - H8R   
  8985   8988   8990      1    1.1005e+02    3.8802e+02 ;    C19 - C18    - H8S   
  8985   8988   8991      1    1.1205e+02    3.9497e+02 ;    C19 - C18    - C17   
  8986   8985   8987      1    1.0835e+02    3.2995e+02 ;    H9R - C19    - H9S   
  8986   8985   8988      1    1.1005e+02    3.8802e+02 ;    H9R - C19    - C18   
  8987   8985   8988      1    1.1005e+02    3.8802e+02 ;    H9S - C19    - C18   
  8988   8991   8992      1    1.1005e+02    3.8802e+02 ;    C18 - C17    - H7R   
  8988   8991   8993      1    1.1005e+02    3.8802e+02 ;    C18 - C17    - H7S   
  8988   8991   8994      1    1.1205e+02    3.9497e+02 ;    C18 - C17    - C16   
  8989   8988   8990      1    1.0835e+02    3.2995e+02 ;    H8R - C18    - H8S   
  8989   8988   8991      1    1.1005e+02    3.8802e+02 ;    H8R - C18    - C17   
  8990   8988   8991      1    1.1005e+02    3.8802e+02 ;    H8S - C18    - C17   
  8991   8994   8995      1    1.1005e+02    3.8802e+02 ;    C17 - C16    - H6R   
  8991   8994   8996      1    1.1005e+02    3.8802e+02 ;    C17 - C16    - H6S   
  8991   8994   8997      1    1.1205e+02    3.9497e+02 ;    C17 - C16    - C15   
  8992   8991   8993      1    1.0835e+02    3.2995e+02 ;    H7R - C17    - H7S   
  8992   8991   8994      1    1.1005e+02    3.8802e+02 ;    H7R - C17    - C16   
  8993   8991   8994      1    1.1005e+02    3.8802e+02 ;    H7S - C17    - C16   
  8994   8997   8998      1    1.1005e+02    3.8802e+02 ;    C16 - C15    - H5R   
  8994   8997   8999      1    1.1005e+02    3.8802e+02 ;    C16 - C15    - H5S   
  8994   8997   9000      1    1.1205e+02    3.9497e+02 ;    C16 - C15    - C14   
  8995   8994   8996      1    1.0835e+02    3.2995e+02 ;    H6R - C16    - H6S   
  8995   8994   8997      1    1.1005e+02    3.8802e+02 ;    H6R - C16    - C15   
  8996   8994   8997      1    1.1005e+02    3.8802e+02 ;    H6S - C16    - C15   
  8997   9000   9001      1    1.1005e+02    3.8802e+02 ;    C15 - C14    - H4R   
  8997   9000   9002      1    1.1005e+02    3.8802e+02 ;    C15 - C14    - H4S   
  8997   9000   9003      1    1.1205e+02    3.9497e+02 ;    C15 - C14    - C13   
  8998   8997   8999      1    1.0835e+02    3.2995e+02 ;    H5R - C15    - H5S   
  8998   8997   9000      1    1.1005e+02    3.8802e+02 ;    H5R - C15    - C14   
  8999   8997   9000      1    1.1005e+02    3.8802e+02 ;    H5S - C15    - C14   
  9000   9003   9004      1    1.1005e+02    3.8802e+02 ;    C14 - C13    - H3R   
  9000   9003   9005      1    1.1005e+02    3.8802e+02 ;    C14 - C13    - H3S   
  9000   9003   9006      1    1.1205e+02    3.9497e+02 ;    C14 - C13    - C12   
  9001   9000   9002      1    1.0835e+02    3.2995e+02 ;    H4R - C14    - H4S   
  9001   9000   9003      1    1.1005e+02    3.8802e+02 ;    H4R - C14    - C13   
  9002   9000   9003      1    1.1005e+02    3.8802e+02 ;    H4S - C14    - C13   
  9003   9006   9007      1    1.1005e+02    3.8802e+02 ;    C13 - C12    - H2R   
  9003   9006   9008      1    1.1005e+02    3.8802e+02 ;    C13 - C12    - H2S   
  9003   9006   9009      1    1.1053e+02    5.3379e+02 ;    C13 - C12    - C11   
  9004   9003   9005      1    1.0835e+02    3.2995e+02 ;    H3R - C13    - H3S   
  9004   9003   9006      1    1.1005e+02    3.8802e+02 ;    H3R - C13    - C12   
  9005   9003   9006      1    1.1005e+02    3.8802e+02 ;    H3S - C13    - C12   
  9006   9009   9010      1    1.2311e+02    5.6928e+02 ;    C12 - C11    - O12   
  9006   9009   9011      1    1.1196e+02    5.7957e+02 ;    C12 - C11    - O11   
  9007   9006   9008      1    1.0835e+02    3.2995e+02 ;    H2R - C12    - H2S   
  9007   9006   9009      1    1.0968e+02    3.9497e+02 ;    H2R - C12    - C11   
  9008   9006   9009      1    1.0968e+02    3.9497e+02 ;    H2S - C12    - C11   
  9009   9011   9012      1    1.1514e+02    5.3246e+02 ;    C11 - O11    - C1    
  9010   9009   9011      1    1.2333e+02    6.3538e+02 ;    O12 - C11    - O11   
  9011   9012   9013      1    1.0882e+02    4.2543e+02 ;    O11 - C1     - HR    
  9011   9012   9014      1    1.0882e+02    4.2543e+02 ;    O11 - C1     - HS    
  9011   9012   9015      1    1.0842e+02    5.6718e+02 ;    O11 - C1     - C2    
  9012   9015   9016      1    1.1007e+02    3.8794e+02 ;     C1 - C2     - HX    
  9012   9015   9017      1    1.1063e+02    5.2894e+02 ;     C1 - C2     - C3    
  9012   9015   9044      1    1.0842e+02    5.6718e+02 ;     C1 - C2     - O21   
  9013   9012   9014      1    1.0955e+02    3.2786e+02 ;     HR - C1     - HS    
  9013   9012   9015      1    1.1007e+02    3.8794e+02 ;     HR - C1     - C2    
  9014   9012   9015      1    1.1007e+02    3.8794e+02 ;     HS - C1     - C2    
  9015   9017   9018      1    1.1007e+02    3.8794e+02 ;     C2 - C3     - HA    
  9015   9017   9019      1    1.1007e+02    3.8794e+02 ;     C2 - C3     - HB    
  9015   9017   9020      1    1.0842e+02    5.6718e+02 ;     C2 - C3     - O31   
  9015   9044   9045      1    1.1514e+02    5.3246e+02 ;     C2 - O21    - C21   
  9016   9015   9017      1    1.1007e+02    3.8794e+02 ;     HX - C2     - C3    
  9016   9015   9044      1    1.0882e+02    4.2543e+02 ;     HX - C2     - O21   
  9017   9015   9044      1    1.0842e+02    5.6718e+02 ;     C3 - C2     - O21   
  9017   9020   9021      1    1.2050e+02    8.3680e+02 ;     C3 - O31    - P31   
  9018   9017   9019      1    1.0955e+02    3.2786e+02 ;     HA - C3     - HB    
  9018   9017   9020      1    1.0882e+02    4.2543e+02 ;     HA - C3     - O31   
  9019   9017   9020      1    1.0882e+02    4.2543e+02 ;     HB - C3     - O31   
  9020   9021   9022      1    1.0260e+02    7.5312e+02 ;    O31 - P31    - O32   
  9020   9021   9042      1    1.0823e+02    8.3680e+02 ;    O31 - P31    - O33   
  9020   9021   9043      1    1.0823e+02    8.3680e+02 ;    O31 - P31    - O34   
  9021   9022   9023      1    1.2050e+02    8.3680e+02 ;    P31 - O32    - C31   
  9022   9021   9042      1    1.0823e+02    8.3680e+02 ;    O32 - P31    - O33   
  9022   9021   9043      1    1.0823e+02    8.3680e+02 ;    O32 - P31    - O34   
  9022   9023   9024      1    1.0882e+02    4.2543e+02 ;    O32 - C31    - H1A   
  9022   9023   9025      1    1.0882e+02    4.2543e+02 ;    O32 - C31    - H1B   
  9022   9023   9026      1    1.0842e+02    5.6718e+02 ;    O32 - C31    - C32   
  9023   9026   9027      1    1.1174e+02    3.8510e+02 ;    C31 - C32    - H2A   
  9023   9026   9028      1    1.1174e+02    3.8510e+02 ;    C31 - C32    - H2B   
  9023   9026   9029      1    1.1432e+02    5.3932e+02 ;    C31 - C32    - N31   
  9024   9023   9025      1    1.0955e+02    3.2786e+02 ;    H1A - C31    - H1B   
  9024   9023   9026      1    1.1007e+02    3.8794e+02 ;    H1A - C31    - C32   
  9025   9023   9026      1    1.1007e+02    3.8794e+02 ;    H1B - C31    - C32   
  9026   9029   9030      1    1.1064e+02    5.2585e+02 ;    C32 - N31    - C33   
  9026   9029   9034      1    1.1064e+02    5.2585e+02 ;    C32 - N31    - C34   
  9026   9029   9038      1    1.1064e+02    5.2585e+02 ;    C32 - N31    - C35   
  9027   9026   9028      1    1.1074e+02    3.2669e+02 ;    H2A - C32    - H2B   
  9027   9026   9029      1    1.0791e+02    4.1020e+02 ;    H2A - C32    - N31   
  9028   9026   9029      1    1.0791e+02    4.1020e+02 ;    H2B - C32    - N31   
  9029   9030   9031      1    1.0791e+02    4.1020e+02 ;    N31 - C33    - H3A   
  9029   9030   9032      1    1.0791e+02    4.1020e+02 ;    N31 - C33    - H3B   
  9029   9030   9033      1    1.0791e+02    4.1020e+02 ;    N31 - C33    - H3C   
  9029   9034   9035      1    1.0791e+02    4.1020e+02 ;    N31 - C34    - H4A   
  9029   9034   9036      1    1.0791e+02    4.1020e+02 ;    N31 - C34    - H4B   
  9029   9034   9037      1    1.0791e+02    4.1020e+02 ;    N31 - C34    - H4C   
  9029   9038   9039      1    1.0791e+02    4.1020e+02 ;    N31 - C35    - H5A   
  9029   9038   9040      1    1.0791e+02    4.1020e+02 ;    N31 - C35    - H5B   
  9029   9038   9041      1    1.0791e+02    4.1020e+02 ;    N31 - C35    - H5C   
  9030   9029   9034      1    1.1064e+02    5.2585e+02 ;    C33 - N31    - C34   
  9030   9029   9038      1    1.1064e+02    5.2585e+02 ;    C33 - N31    - C35   
  9031   9030   9032      1    1.1074e+02    3.2669e+02 ;    H3A - C33    - H3B   
  9031   9030   9033      1    1.1074e+02    3.2669e+02 ;    H3A - C33    - H3C   
  9032   9030   9033      1    1.1074e+02    3.2669e+02 ;    H3B - C33    - H3C   
  9034   9029   9038      1    1.1064e+02    5.2585e+02 ;    C34 - N31    - C35   
  9035   9034   9036      1    1.1074e+02    3.2669e+02 ;    H4A - C34    - H4B   
  9035   9034   9037      1    1.1074e+02    3.2669e+02 ;    H4A - C34    - H4C   
  9036   9034   9037      1    1.1074e+02    3.2669e+02 ;    H4B - C34    - H4C   
  9039   9038   9040      1    1.1074e+02    3.2669e+02 ;    H5A - C35    - H5B   
  9039   9038   9041      1    1.1074e+02    3.2669e+02 ;    H5A - C35    - H5C   
  9040   9038   9041      1    1.1074e+02    3.2669e+02 ;    H5B - C35    - H5C   
  9042   9021   9043      1    1.1990e+02    1.1715e+03 ;    O33 - P31    - O34   
  9044   9045   9046      1    1.2333e+02    6.3538e+02 ;    O21 - C21    - O22   
  9044   9045   9084      1    1.1196e+02    5.7957e+02 ;    O21 - C21    - C12   
  9045   9084   9081      1    1.1053e+02    5.3379e+02 ;    C21 - C12    - C13   
  9045   9084   9085      1    1.0968e+02    3.9497e+02 ;    C21 - C12    - H2R   
  9045   9084   9086      1    1.0968e+02    3.9497e+02 ;    C21 - C12    - H2S   
  9046   9045   9084      1    1.2311e+02    5.6928e+02 ;    O22 - C21    - C12   
  9047   9048   9049      1    1.0835e+02    3.2995e+02 ;   H14T - C114   - H14R  
  9047   9048   9050      1    1.0835e+02    3.2995e+02 ;   H14T - C114   - H14S  
  9047   9048   9051      1    1.1005e+02    3.8802e+02 ;   H14T - C114   - C113  
  9048   9051   9052      1    1.1005e+02    3.8802e+02 ;   C114 - C113   - H13R  
  9048   9051   9053      1    1.1005e+02    3.8802e+02 ;   C114 - C113   - H13S  
  9048   9051   9054      1    1.1205e+02    3.9497e+02 ;   C114 - C113   - C112  
  9049   9048   9050      1    1.0835e+02    3.2995e+02 ;   H14R - C114   - H14S  
  9049   9048   9051      1    1.1005e+02    3.8802e+02 ;   H14R - C114   - C113  
  9050   9048   9051      1    1.1005e+02    3.8802e+02 ;   H14S - C114   - C113  
  9051   9054   9055      1    1.1005e+02    3.8802e+02 ;   C113 - C112   - H12R  
  9051   9054   9056      1    1.1005e+02    3.8802e+02 ;   C113 - C112   - H12S  
  9051   9054   9057      1    1.1205e+02    3.9497e+02 ;   C113 - C112   - C111  
  9052   9051   9053      1    1.0835e+02    3.2995e+02 ;   H13R - C113   - H13S  
  9052   9051   9054      1    1.1005e+02    3.8802e+02 ;   H13R - C113   - C112  
  9053   9051   9054      1    1.1005e+02    3.8802e+02 ;   H13S - C113   - C112  
  9054   9057   9058      1    1.1005e+02    3.8802e+02 ;   C112 - C111   - H11R  
  9054   9057   9059      1    1.1005e+02    3.8802e+02 ;   C112 - C111   - H11S  
  9054   9057   9060      1    1.1205e+02    3.9497e+02 ;   C112 - C111   - C110  
  9055   9054   9056      1    1.0835e+02    3.2995e+02 ;   H12R - C112   - H12S  
  9055   9054   9057      1    1.1005e+02    3.8802e+02 ;   H12R - C112   - C111  
  9056   9054   9057      1    1.1005e+02    3.8802e+02 ;   H12S - C112   - C111  
  9057   9060   9061      1    1.1005e+02    3.8802e+02 ;   C111 - C110   - H10R  
  9057   9060   9062      1    1.1005e+02    3.8802e+02 ;   C111 - C110   - H10S  
  9057   9060   9063      1    1.1205e+02    3.9497e+02 ;   C111 - C110   - C19   
  9058   9057   9059      1    1.0835e+02    3.2995e+02 ;   H11R - C111   - H11S  
  9058   9057   9060      1    1.1005e+02    3.8802e+02 ;   H11R - C111   - C110  
  9059   9057   9060      1    1.1005e+02    3.8802e+02 ;   H11S - C111   - C110  
  9060   9063   9064      1    1.1005e+02    3.8802e+02 ;   C110 - C19    - H9R   
  9060   9063   9065      1    1.1005e+02    3.8802e+02 ;   C110 - C19    - H9S   
  9060   9063   9066      1    1.1205e+02    3.9497e+02 ;   C110 - C19    - C18   
  9061   9060   9062      1    1.0835e+02    3.2995e+02 ;   H10R - C110   - H10S  
  9061   9060   9063      1    1.1005e+02    3.8802e+02 ;   H10R - C110   - C19   
  9062   9060   9063      1    1.1005e+02    3.8802e+02 ;   H10S - C110   - C19   
  9063   9066   9067      1    1.1005e+02    3.8802e+02 ;    C19 - C18    - H8R   
  9063   9066   9068      1    1.1005e+02    3.8802e+02 ;    C19 - C18    - H8S   
  9063   9066   9069      1    1.1205e+02    3.9497e+02 ;    C19 - C18    - C17   
  9064   9063   9065      1    1.0835e+02    3.2995e+02 ;    H9R - C19    - H9S   
  9064   9063   9066      1    1.1005e+02    3.8802e+02 ;    H9R - C19    - C18   
  9065   9063   9066      1    1.1005e+02    3.8802e+02 ;    H9S - C19    - C18   
  9066   9069   9070      1    1.1005e+02    3.8802e+02 ;    C18 - C17    - H7R   
  9066   9069   9071      1    1.1005e+02    3.8802e+02 ;    C18 - C17    - H7S   
  9066   9069   9072      1    1.1205e+02    3.9497e+02 ;    C18 - C17    - C16   
  9067   9066   9068      1    1.0835e+02    3.2995e+02 ;    H8R - C18    - H8S   
  9067   9066   9069      1    1.1005e+02    3.8802e+02 ;    H8R - C18    - C17   
  9068   9066   9069      1    1.1005e+02    3.8802e+02 ;    H8S - C18    - C17   
  9069   9072   9073      1    1.1005e+02    3.8802e+02 ;    C17 - C16    - H6R   
  9069   9072   9074      1    1.1005e+02    3.8802e+02 ;    C17 - C16    - H6S   
  9069   9072   9075      1    1.1205e+02    3.9497e+02 ;    C17 - C16    - C15   
  9070   9069   9071      1    1.0835e+02    3.2995e+02 ;    H7R - C17    - H7S   
  9070   9069   9072      1    1.1005e+02    3.8802e+02 ;    H7R - C17    - C16   
  9071   9069   9072      1    1.1005e+02    3.8802e+02 ;    H7S - C17    - C16   
  9072   9075   9076      1    1.1005e+02    3.8802e+02 ;    C16 - C15    - H5R   
  9072   9075   9077      1    1.1005e+02    3.8802e+02 ;    C16 - C15    - H5S   
  9072   9075   9078      1    1.1205e+02    3.9497e+02 ;    C16 - C15    - C14   
  9073   9072   9074      1    1.0835e+02    3.2995e+02 ;    H6R - C16    - H6S   
  9073   9072   9075      1    1.1005e+02    3.8802e+02 ;    H6R - C16    - C15   
  9074   9072   9075      1    1.1005e+02    3.8802e+02 ;    H6S - C16    - C15   
  9075   9078   9079      1    1.1005e+02    3.8802e+02 ;    C15 - C14    - H4R   
  9075   9078   9080      1    1.1005e+02    3.8802e+02 ;    C15 - C14    - H4S   
  9075   9078   9081      1    1.1205e+02    3.9497e+02 ;    C15 - C14    - C13   
  9076   9075   9077      1    1.0835e+02    3.2995e+02 ;    H5R - C15    - H5S   
  9076   9075   9078      1    1.1005e+02    3.8802e+02 ;    H5R - C15    - C14   
  9077   9075   9078      1    1.1005e+02    3.8802e+02 ;    H5S - C15    - C14   
  9078   9081   9082      1    1.1005e+02    3.8802e+02 ;    C14 - C13    - H3R   
  9078   9081   9083      1    1.1005e+02    3.8802e+02 ;    C14 - C13    - H3S   
  9078   9081   9084      1    1.1205e+02    3.9497e+02 ;    C14 - C13    - C12   
  9079   9078   9080      1    1.0835e+02    3.2995e+02 ;    H4R - C14    - H4S   
  9079   9078   9081      1    1.1005e+02    3.8802e+02 ;    H4R - C14    - C13   
  9080   9078   9081      1    1.1005e+02    3.8802e+02 ;    H4S - C14    - C13   
  9081   9084   9085      1    1.1005e+02    3.8802e+02 ;    C13 - C12    - H2R   
  9081   9084   9086      1    1.1005e+02    3.8802e+02 ;    C13 - C12    - H2S   
  9082   9081   9083      1    1.0835e+02    3.2995e+02 ;    H3R - C13    - H3S   
  9082   9081   9084      1    1.1005e+02    3.8802e+02 ;    H3R - C13    - C12   
  9083   9081   9084      1    1.1005e+02    3.8802e+02 ;    H3S - C13    - C12   
  9085   9084   9086      1    1.0835e+02    3.2995e+02 ;    H2R - C12    - H2S   
  9087   9088   9089      1    1.0835e+02    3.2995e+02 ;   H14T - C114   - H14R  
  9087   9088   9090      1    1.0835e+02    3.2995e+02 ;   H14T - C114   - H14S  
  9087   9088   9091      1    1.1005e+02    3.8802e+02 ;   H14T - C114   - C113  
  9088   9091   9092      1    1.1005e+02    3.8802e+02 ;   C114 - C113   - H13R  
  9088   9091   9093      1    1.1005e+02    3.8802e+02 ;   C114 - C113   - H13S  
  9088   9091   9094      1    1.1205e+02    3.9497e+02 ;   C114 - C113   - C112  
  9089   9088   9090      1    1.0835e+02    3.2995e+02 ;   H14R - C114   - H14S  
  9089   9088   9091      1    1.1005e+02    3.8802e+02 ;   H14R - C114   - C113  
  9090   9088   9091      1    1.1005e+02    3.8802e+02 ;   H14S - C114   - C113  
  9091   9094   9095      1    1.1005e+02    3.8802e+02 ;   C113 - C112   - H12R  
  9091   9094   9096      1    1.1005e+02    3.8802e+02 ;   C113 - C112   - H12S  
  9091   9094   9097      1    1.1205e+02    3.9497e+02 ;   C113 - C112   - C111  
  9092   9091   9093      1    1.0835e+02    3.2995e+02 ;   H13R - C113   - H13S  
  9092   9091   9094      1    1.1005e+02    3.8802e+02 ;   H13R - C113   - C112  
  9093   9091   9094      1    1.1005e+02    3.8802e+02 ;   H13S - C113   - C112  
  9094   9097   9098      1    1.1005e+02    3.8802e+02 ;   C112 - C111   - H11R  
  9094   9097   9099      1    1.1005e+02    3.8802e+02 ;   C112 - C111   - H11S  
  9094   9097   9100      1    1.1205e+02    3.9497e+02 ;   C112 - C111   - C110  
  9095   9094   9096      1    1.0835e+02    3.2995e+02 ;   H12R - C112   - H12S  
  9095   9094   9097      1    1.1005e+02    3.8802e+02 ;   H12R - C112   - C111  
  9096   9094   9097      1    1.1005e+02    3.8802e+02 ;   H12S - C112   - C111  
  9097   9100   9101      1    1.1005e+02    3.8802e+02 ;   C111 - C110   - H10R  
  9097   9100   9102      1    1.1005e+02    3.8802e+02 ;   C111 - C110   - H10S  
  9097   9100   9103      1    1.1205e+02    3.9497e+02 ;   C111 - C110   - C19   
  9098   9097   9099      1    1.0835e+02    3.2995e+02 ;   H11R - C111   - H11S  
  9098   9097   9100      1    1.1005e+02    3.8802e+02 ;   H11R - C111   - C110  
  9099   9097   9100      1    1.1005e+02    3.8802e+02 ;   H11S - C111   - C110  
  9100   9103   9104      1    1.1005e+02    3.8802e+02 ;   C110 - C19    - H9R   
  9100   9103   9105      1    1.1005e+02    3.8802e+02 ;   C110 - C19    - H9S   
  9100   9103   9106      1    1.1205e+02    3.9497e+02 ;   C110 - C19    - C18   
  9101   9100   9102      1    1.0835e+02    3.2995e+02 ;   H10R - C110   - H10S  
  9101   9100   9103      1    1.1005e+02    3.8802e+02 ;   H10R - C110   - C19   
  9102   9100   9103      1    1.1005e+02    3.8802e+02 ;   H10S - C110   - C19   
  9103   9106   9107      1    1.1005e+02    3.8802e+02 ;    C19 - C18    - H8R   
  9103   9106   9108      1    1.1005e+02    3.8802e+02 ;    C19 - C18    - H8S   
  9103   9106   9109      1    1.1205e+02    3.9497e+02 ;    C19 - C18    - C17   
  9104   9103   9105      1    1.0835e+02    3.2995e+02 ;    H9R - C19    - H9S   
  9104   9103   9106      1    1.1005e+02    3.8802e+02 ;    H9R - C19    - C18   
  9105   9103   9106      1    1.1005e+02    3.8802e+02 ;    H9S - C19    - C18   
  9106   9109   9110      1    1.1005e+02    3.8802e+02 ;    C18 - C17    - H7R   
  9106   9109   9111      1    1.1005e+02    3.8802e+02 ;    C18 - C17    - H7S   
  9106   9109   9112      1    1.1205e+02    3.9497e+02 ;    C18 - C17    - C16   
  9107   9106   9108      1    1.0835e+02    3.2995e+02 ;    H8R - C18    - H8S   
  9107   9106   9109      1    1.1005e+02    3.8802e+02 ;    H8R - C18    - C17   
  9108   9106   9109      1    1.1005e+02    3.8802e+02 ;    H8S - C18    - C17   
  9109   9112   9113      1    1.1005e+02    3.8802e+02 ;    C17 - C16    - H6R   
  9109   9112   9114      1    1.1005e+02    3.8802e+02 ;    C17 - C16    - H6S   
  9109   9112   9115      1    1.1205e+02    3.9497e+02 ;    C17 - C16    - C15   
  9110   9109   9111      1    1.0835e+02    3.2995e+02 ;    H7R - C17    - H7S   
  9110   9109   9112      1    1.1005e+02    3.8802e+02 ;    H7R - C17    - C16   
  9111   9109   9112      1    1.1005e+02    3.8802e+02 ;    H7S - C17    - C16   
  9112   9115   9116      1    1.1005e+02    3.8802e+02 ;    C16 - C15    - H5R   
  9112   9115   9117      1    1.1005e+02    3.8802e+02 ;    C16 - C15    - H5S   
  9112   9115   9118      1    1.1205e+02    3.9497e+02 ;    C16 - C15    - C14   
  9113   9112   9114      1    1.0835e+02    3.2995e+02 ;    H6R - C16    - H6S   
  9113   9112   9115      1    1.1005e+02    3.8802e+02 ;    H6R - C16    - C15   
  9114   9112   9115      1    1.1005e+02    3.8802e+02 ;    H6S - C16    - C15   
  9115   9118   9119      1    1.1005e+02    3.8802e+02 ;    C15 - C14    - H4R   
  9115   9118   9120      1    1.1005e+02    3.8802e+02 ;    C15 - C14    - H4S   
  9115   9118   9121      1    1.1205e+02    3.9497e+02 ;    C15 - C14    - C13   
  9116   9115   9117      1    1.0835e+02    3.2995e+02 ;    H5R - C15    - H5S   
  9116   9115   9118      1    1.1005e+02    3.8802e+02 ;    H5R - C15    - C14   
  9117   9115   9118      1    1.1005e+02    3.8802e+02 ;    H5S - C15    - C14   
  9118   9121   9122      1    1.1005e+02    3.8802e+02 ;    C14 - C13    - H3R   
  9118   9121   9123      1    1.1005e+02    3.8802e+02 ;    C14 - C13    - H3S   
  9118   9121   9124      1    1.1205e+02    3.9497e+02 ;    C14 - C13    - C12   
  9119   9118   9120      1    1.0835e+02    3.2995e+02 ;    H4R - C14    - H4S   
  9119   9118   9121      1    1.1005e+02    3.8802e+02 ;    H4R - C14    - C13   
  9120   9118   9121      1    1.1005e+02    3.8802e+02 ;    H4S - C14    - C13   
  9121   9124   9125      1    1.1005e+02    3.8802e+02 ;    C13 - C12    - H2R   
  9121   9124   9126      1    1.1005e+02    3.8802e+02 ;    C13 - C12    - H2S   
  9121   9124   9127      1    1.1053e+02    5.3379e+02 ;    C13 - C12    - C11   
  9122   9121   9123      1    1.0835e+02    3.2995e+02 ;    H3R - C13    - H3S   
  9122   9121   9124      1    1.1005e+02    3.8802e+02 ;    H3R - C13    - C12   
  9123   9121   9124      1    1.1005e+02    3.8802e+02 ;    H3S - C13    - C12   
  9124   9127   9128      1    1.2311e+02    5.6928e+02 ;    C12 - C11    - O12   
  9124   9127   9129      1    1.1196e+02    5.7957e+02 ;    C12 - C11    - O11   
  9125   9124   9126      1    1.0835e+02    3.2995e+02 ;    H2R - C12    - H2S   
  9125   9124   9127      1    1.0968e+02    3.9497e+02 ;    H2R - C12    - C11   
  9126   9124   9127      1    1.0968e+02    3.9497e+02 ;    H2S - C12    - C11   
  9127   9129   9130      1    1.1514e+02    5.3246e+02 ;    C11 - O11    - C1    
  9128   9127   9129      1    1.2333e+02    6.3538e+02 ;    O12 - C11    - O11   
  9129   9130   9131      1    1.0882e+02    4.2543e+02 ;    O11 - C1     - HR    
  9129   9130   9132      1    1.0882e+02    4.2543e+02 ;    O11 - C1     - HS    
  9129   9130   9133      1    1.0842e+02    5.6718e+02 ;    O11 - C1     - C2    
  9130   9133   9134      1    1.1007e+02    3.8794e+02 ;     C1 - C2     - HX    
  9130   9133   9135      1    1.1063e+02    5.2894e+02 ;     C1 - C2     - C3    
  9130   9133   9162      1    1.0842e+02    5.6718e+02 ;     C1 - C2     - O21   
  9131   9130   9132      1    1.0955e+02    3.2786e+02 ;     HR - C1     - HS    
  9131   9130   9133      1    1.1007e+02    3.8794e+02 ;     HR - C1     - C2    
  9132   9130   9133      1    1.1007e+02    3.8794e+02 ;     HS - C1     - C2    
  9133   9135   9136      1    1.1007e+02    3.8794e+02 ;     C2 - C3     - HA    
  9133   9135   9137      1    1.1007e+02    3.8794e+02 ;     C2 - C3     - HB    
  9133   9135   9138      1    1.0842e+02    5.6718e+02 ;     C2 - C3     - O31   
  9133   9162   9163      1    1.1514e+02    5.3246e+02 ;     C2 - O21    - C21   
  9134   9133   9135      1    1.1007e+02    3.8794e+02 ;     HX - C2     - C3    
  9134   9133   9162      1    1.0882e+02    4.2543e+02 ;     HX - C2     - O21   
  9135   9133   9162      1    1.0842e+02    5.6718e+02 ;     C3 - C2     - O21   
  9135   9138   9139      1    1.2050e+02    8.3680e+02 ;     C3 - O31    - P31   
  9136   9135   9137      1    1.0955e+02    3.2786e+02 ;     HA - C3     - HB    
  9136   9135   9138      1    1.0882e+02    4.2543e+02 ;     HA - C3     - O31   
  9137   9135   9138      1    1.0882e+02    4.2543e+02 ;     HB - C3     - O31   
  9138   9139   9140      1    1.0260e+02    7.5312e+02 ;    O31 - P31    - O32   
  9138   9139   9160      1    1.0823e+02    8.3680e+02 ;    O31 - P31    - O33   
  9138   9139   9161      1    1.0823e+02    8.3680e+02 ;    O31 - P31    - O34   
  9139   9140   9141      1    1.2050e+02    8.3680e+02 ;    P31 - O32    - C31   
  9140   9139   9160      1    1.0823e+02    8.3680e+02 ;    O32 - P31    - O33   
  9140   9139   9161      1    1.0823e+02    8.3680e+02 ;    O32 - P31    - O34   
  9140   9141   9142      1    1.0882e+02    4.2543e+02 ;    O32 - C31    - H1A   
  9140   9141   9143      1    1.0882e+02    4.2543e+02 ;    O32 - C31    - H1B   
  9140   9141   9144      1    1.0842e+02    5.6718e+02 ;    O32 - C31    - C32   
  9141   9144   9145      1    1.1174e+02    3.8510e+02 ;    C31 - C32    - H2A   
  9141   9144   9146      1    1.1174e+02    3.8510e+02 ;    C31 - C32    - H2B   
  9141   9144   9147      1    1.1432e+02    5.3932e+02 ;    C31 - C32    - N31   
  9142   9141   9143      1    1.0955e+02    3.2786e+02 ;    H1A - C31    - H1B   
  9142   9141   9144      1    1.1007e+02    3.8794e+02 ;    H1A - C31    - C32   
  9143   9141   9144      1    1.1007e+02    3.8794e+02 ;    H1B - C31    - C32   
  9144   9147   9148      1    1.1064e+02    5.2585e+02 ;    C32 - N31    - C33   
  9144   9147   9152      1    1.1064e+02    5.2585e+02 ;    C32 - N31    - C34   
  9144   9147   9156      1    1.1064e+02    5.2585e+02 ;    C32 - N31    - C35   
  9145   9144   9146      1    1.1074e+02    3.2669e+02 ;    H2A - C32    - H2B   
  9145   9144   9147      1    1.0791e+02    4.1020e+02 ;    H2A - C32    - N31   
  9146   9144   9147      1    1.0791e+02    4.1020e+02 ;    H2B - C32    - N31   
  9147   9148   9149      1    1.0791e+02    4.1020e+02 ;    N31 - C33    - H3A   
  9147   9148   9150      1    1.0791e+02    4.1020e+02 ;    N31 - C33    - H3B   
  9147   9148   9151      1    1.0791e+02    4.1020e+02 ;    N31 - C33    - H3C   
  9147   9152   9153      1    1.0791e+02    4.1020e+02 ;    N31 - C34    - H4A   
  9147   9152   9154      1    1.0791e+02    4.1020e+02 ;    N31 - C34    - H4B   
  9147   9152   9155      1    1.0791e+02    4.1020e+02 ;    N31 - C34    - H4C   
  9147   9156   9157      1    1.0791e+02    4.1020e+02 ;    N31 - C35    - H5A   
  9147   9156   9158      1    1.0791e+02    4.1020e+02 ;    N31 - C35    - H5B   
  9147   9156   9159      1    1.0791e+02    4.1020e+02 ;    N31 - C35    - H5C   
  9148   9147   9152      1    1.1064e+02    5.2585e+02 ;    C33 - N31    - C34   
  9148   9147   9156      1    1.1064e+02    5.2585e+02 ;    C33 - N31    - C35   
  9149   9148   9150      1    1.1074e+02    3.2669e+02 ;    H3A - C33    - H3B   
  9149   9148   9151      1    1.1074e+02    3.2669e+02 ;    H3A - C33    - H3C   
  9150   9148   9151      1    1.1074e+02    3.2669e+02 ;    H3B - C33    - H3C   
  9152   9147   9156      1    1.1064e+02    5.2585e+02 ;    C34 - N31    - C35   
  9153   9152   9154      1    1.1074e+02    3.2669e+02 ;    H4A - C34    - H4B   
  9153   9152   9155      1    1.1074e+02    3.2669e+02 ;    H4A - C34    - H4C   
  9154   9152   9155      1    1.1074e+02    3.2669e+02 ;    H4B - C34    - H4C   
  9157   9156   9158      1    1.1074e+02    3.2669e+02 ;    H5A - C35    - H5B   
  9157   9156   9159      1    1.1074e+02    3.2669e+02 ;    H5A - C35    - H5C   
  9158   9156   9159      1    1.1074e+02    3.2669e+02 ;    H5B - C35    - H5C   
  9160   9139   9161      1    1.1990e+02    1.1715e+03 ;    O33 - P31    - O34   
  9162   9163   9164      1    1.2333e+02    6.3538e+02 ;    O21 - C21    - O22   
  9162   9163   9202      1    1.1196e+02    5.7957e+02 ;    O21 - C21    - C12   
  9163   9202   9199      1    1.1053e+02    5.3379e+02 ;    C21 - C12    - C13   
  9163   9202   9203      1    1.0968e+02    3.9497e+02 ;    C21 - C12    - H2R   
  9163   9202   9204      1    1.0968e+02    3.9497e+02 ;    C21 - C12    - H2S   
  9164   9163   9202      1    1.2311e+02    5.6928e+02 ;    O22 - C21    - C12   
  9165   9166   9167      1    1.0835e+02    3.2995e+02 ;   H14T - C114   - H14R  
  9165   9166   9168      1    1.0835e+02    3.2995e+02 ;   H14T - C114   - H14S  
  9165   9166   9169      1    1.1005e+02    3.8802e+02 ;   H14T - C114   - C113  
  9166   9169   9170      1    1.1005e+02    3.8802e+02 ;   C114 - C113   - H13R  
  9166   9169   9171      1    1.1005e+02    3.8802e+02 ;   C114 - C113   - H13S  
  9166   9169   9172      1    1.1205e+02    3.9497e+02 ;   C114 - C113   - C112  
  9167   9166   9168      1    1.0835e+02    3.2995e+02 ;   H14R - C114   - H14S  
  9167   9166   9169      1    1.1005e+02    3.8802e+02 ;   H14R - C114   - C113  
  9168   9166   9169      1    1.1005e+02    3.8802e+02 ;   H14S - C114   - C113  
  9169   9172   9173      1    1.1005e+02    3.8802e+02 ;   C113 - C112   - H12R  
  9169   9172   9174      1    1.1005e+02    3.8802e+02 ;   C113 - C112   - H12S  
  9169   9172   9175      1    1.1205e+02    3.9497e+02 ;   C113 - C112   - C111  
  9170   9169   9171      1    1.0835e+02    3.2995e+02 ;   H13R - C113   - H13S  
  9170   9169   9172      1    1.1005e+02    3.8802e+02 ;   H13R - C113   - C112  
  9171   9169   9172      1    1.1005e+02    3.8802e+02 ;   H13S - C113   - C112  
  9172   9175   9176      1    1.1005e+02    3.8802e+02 ;   C112 - C111   - H11R  
  9172   9175   9177      1    1.1005e+02    3.8802e+02 ;   C112 - C111   - H11S  
  9172   9175   9178      1    1.1205e+02    3.9497e+02 ;   C112 - C111   - C110  
  9173   9172   9174      1    1.0835e+02    3.2995e+02 ;   H12R - C112   - H12S  
  9173   9172   9175      1    1.1005e+02    3.8802e+02 ;   H12R - C112   - C111  
  9174   9172   9175      1    1.1005e+02    3.8802e+02 ;   H12S - C112   - C111  
  9175   9178   9179      1    1.1005e+02    3.8802e+02 ;   C111 - C110   - H10R  
  9175   9178   9180      1    1.1005e+02    3.8802e+02 ;   C111 - C110   - H10S  
  9175   9178   9181      1    1.1205e+02    3.9497e+02 ;   C111 - C110   - C19   
  9176   9175   9177      1    1.0835e+02    3.2995e+02 ;   H11R - C111   - H11S  
  9176   9175   9178      1    1.1005e+02    3.8802e+02 ;   H11R - C111   - C110  
  9177   9175   9178      1    1.1005e+02    3.8802e+02 ;   H11S - C111   - C110  
  9178   9181   9182      1    1.1005e+02    3.8802e+02 ;   C110 - C19    - H9R   
  9178   9181   9183      1    1.1005e+02    3.8802e+02 ;   C110 - C19    - H9S   
  9178   9181   9184      1    1.1205e+02    3.9497e+02 ;   C110 - C19    - C18   
  9179   9178   9180      1    1.0835e+02    3.2995e+02 ;   H10R - C110   - H10S  
  9179   9178   9181      1    1.1005e+02    3.8802e+02 ;   H10R - C110   - C19   
  9180   9178   9181      1    1.1005e+02    3.8802e+02 ;   H10S - C110   - C19   
  9181   9184   9185      1    1.1005e+02    3.8802e+02 ;    C19 - C18    - H8R   
  9181   9184   9186      1    1.1005e+02    3.8802e+02 ;    C19 - C18    - H8S   
  9181   9184   9187      1    1.1205e+02    3.9497e+02 ;    C19 - C18    - C17   
  9182   9181   9183      1    1.0835e+02    3.2995e+02 ;    H9R - C19    - H9S   
  9182   9181   9184      1    1.1005e+02    3.8802e+02 ;    H9R - C19    - C18   
  9183   9181   9184      1    1.1005e+02    3.8802e+02 ;    H9S - C19    - C18   
  9184   9187   9188      1    1.1005e+02    3.8802e+02 ;    C18 - C17    - H7R   
  9184   9187   9189      1    1.1005e+02    3.8802e+02 ;    C18 - C17    - H7S   
  9184   9187   9190      1    1.1205e+02    3.9497e+02 ;    C18 - C17    - C16   
  9185   9184   9186      1    1.0835e+02    3.2995e+02 ;    H8R - C18    - H8S   
  9185   9184   9187      1    1.1005e+02    3.8802e+02 ;    H8R - C18    - C17   
  9186   9184   9187      1    1.1005e+02    3.8802e+02 ;    H8S - C18    - C17   
  9187   9190   9191      1    1.1005e+02    3.8802e+02 ;    C17 - C16    - H6R   
  9187   9190   9192      1    1.1005e+02    3.8802e+02 ;    C17 - C16    - H6S   
  9187   9190   9193      1    1.1205e+02    3.9497e+02 ;    C17 - C16    - C15   
  9188   9187   9189      1    1.0835e+02    3.2995e+02 ;    H7R - C17    - H7S   
  9188   9187   9190      1    1.1005e+02    3.8802e+02 ;    H7R - C17    - C16   
  9189   9187   9190      1    1.1005e+02    3.8802e+02 ;    H7S - C17    - C16   
  9190   9193   9194      1    1.1005e+02    3.8802e+02 ;    C16 - C15    - H5R   
  9190   9193   9195      1    1.1005e+02    3.8802e+02 ;    C16 - C15    - H5S   
  9190   9193   9196      1    1.1205e+02    3.9497e+02 ;    C16 - C15    - C14   
  9191   9190   9192      1    1.0835e+02    3.2995e+02 ;    H6R - C16    - H6S   
  9191   9190   9193      1    1.1005e+02    3.8802e+02 ;    H6R - C16    - C15   
  9192   9190   9193      1    1.1005e+02    3.8802e+02 ;    H6S - C16    - C15   
  9193   9196   9197      1    1.1005e+02    3.8802e+02 ;    C15 - C14    - H4R   
  9193   9196   9198      1    1.1005e+02    3.8802e+02 ;    C15 - C14    - H4S   
  9193   9196   9199      1    1.1205e+02    3.9497e+02 ;    C15 - C14    - C13   
  9194   9193   9195      1    1.0835e+02    3.2995e+02 ;    H5R - C15    - H5S   
  9194   9193   9196      1    1.1005e+02    3.8802e+02 ;    H5R - C15    - C14   
  9195   9193   9196      1    1.1005e+02    3.8802e+02 ;    H5S - C15    - C14   
  9196   9199   9200      1    1.1005e+02    3.8802e+02 ;    C14 - C13    - H3R   
  9196   9199   9201      1    1.1005e+02    3.8802e+02 ;    C14 - C13    - H3S   
  9196   9199   9202      1    1.1205e+02    3.9497e+02 ;    C14 - C13    - C12   
  9197   9196   9198      1    1.0835e+02    3.2995e+02 ;    H4R - C14    - H4S   
  9197   9196   9199      1    1.1005e+02    3.8802e+02 ;    H4R - C14    - C13   
  9198   9196   9199      1    1.1005e+02    3.8802e+02 ;    H4S - C14    - C13   
  9199   9202   9203      1    1.1005e+02    3.8802e+02 ;    C13 - C12    - H2R   
  9199   9202   9204      1    1.1005e+02    3.8802e+02 ;    C13 - C12    - H2S   
  9200   9199   9201      1    1.0835e+02    3.2995e+02 ;    H3R - C13    - H3S   
  9200   9199   9202      1    1.1005e+02    3.8802e+02 ;    H3R - C13    - C12   
  9201   9199   9202      1    1.1005e+02    3.8802e+02 ;    H3S - C13    - C12   
  9203   9202   9204      1    1.0835e+02    3.2995e+02 ;    H2R - C12    - H2S   
  9205   9206   9207      1    1.0835e+02    3.2995e+02 ;   H14T - C114   - H14R  
  9205   9206   9208      1    1.0835e+02    3.2995e+02 ;   H14T - C114   - H14S  
  9205   9206   9209      1    1.1005e+02    3.8802e+02 ;   H14T - C114   - C113  
  9206   9209   9210      1    1.1005e+02    3.8802e+02 ;   C114 - C113   - H13R  
  9206   9209   9211      1    1.1005e+02    3.8802e+02 ;   C114 - C113   - H13S  
  9206   9209   9212      1    1.1205e+02    3.9497e+02 ;   C114 - C113   - C112  
  9207   9206   9208      1    1.0835e+02    3.2995e+02 ;   H14R - C114   - H14S  
  9207   9206   9209      1    1.1005e+02    3.8802e+02 ;   H14R - C114   - C113  
  9208   9206   9209      1    1.1005e+02    3.8802e+02 ;   H14S - C114   - C113  
  9209   9212   9213      1    1.1005e+02    3.8802e+02 ;   C113 - C112   - H12R  
  9209   9212   9214      1    1.1005e+02    3.8802e+02 ;   C113 - C112   - H12S  
  9209   9212   9215      1    1.1205e+02    3.9497e+02 ;   C113 - C112   - C111  
  9210   9209   9211      1    1.0835e+02    3.2995e+02 ;   H13R - C113   - H13S  
  9210   9209   9212      1    1.1005e+02    3.8802e+02 ;   H13R - C113   - C112  
  9211   9209   9212      1    1.1005e+02    3.8802e+02 ;   H13S - C113   - C112  
  9212   9215   9216      1    1.1005e+02    3.8802e+02 ;   C112 - C111   - H11R  
  9212   9215   9217      1    1.1005e+02    3.8802e+02 ;   C112 - C111   - H11S  
  9212   9215   9218      1    1.1205e+02    3.9497e+02 ;   C112 - C111   - C110  
  9213   9212   9214      1    1.0835e+02    3.2995e+02 ;   H12R - C112   - H12S  
  9213   9212   9215      1    1.1005e+02    3.8802e+02 ;   H12R - C112   - C111  
  9214   9212   9215      1    1.1005e+02    3.8802e+02 ;   H12S - C112   - C111  
  9215   9218   9219      1    1.1005e+02    3.8802e+02 ;   C111 - C110   - H10R  
  9215   9218   9220      1    1.1005e+02    3.8802e+02 ;   C111 - C110   - H10S  
  9215   9218   9221      1    1.1205e+02    3.9497e+02 ;   C111 - C110   - C19   
  9216   9215   9217      1    1.0835e+02    3.2995e+02 ;   H11R - C111   - H11S  
  9216   9215   9218      1    1.1005e+02    3.8802e+02 ;   H11R - C111   - C110  
  9217   9215   9218      1    1.1005e+02    3.8802e+02 ;   H11S - C111   - C110  
  9218   9221   9222      1    1.1005e+02    3.8802e+02 ;   C110 - C19    - H9R   
  9218   9221   9223      1    1.1005e+02    3.8802e+02 ;   C110 - C19    - H9S   
  9218   9221   9224      1    1.1205e+02    3.9497e+02 ;   C110 - C19    - C18   
  9219   9218   9220      1    1.0835e+02    3.2995e+02 ;   H10R - C110   - H10S  
  9219   9218   9221      1    1.1005e+02    3.8802e+02 ;   H10R - C110   - C19   
  9220   9218   9221      1    1.1005e+02    3.8802e+02 ;   H10S - C110   - C19   
  9221   9224   9225      1    1.1005e+02    3.8802e+02 ;    C19 - C18    - H8R   
  9221   9224   9226      1    1.1005e+02    3.8802e+02 ;    C19 - C18    - H8S   
  9221   9224   9227      1    1.1205e+02    3.9497e+02 ;    C19 - C18    - C17   
  9222   9221   9223      1    1.0835e+02    3.2995e+02 ;    H9R - C19    - H9S   
  9222   9221   9224      1    1.1005e+02    3.8802e+02 ;    H9R - C19    - C18   
  9223   9221   9224      1    1.1005e+02    3.8802e+02 ;    H9S - C19    - C18   
  9224   9227   9228      1    1.1005e+02    3.8802e+02 ;    C18 - C17    - H7R   
  9224   9227   9229      1    1.1005e+02    3.8802e+02 ;    C18 - C17    - H7S   
  9224   9227   9230      1    1.1205e+02    3.9497e+02 ;    C18 - C17    - C16   
  9225   9224   9226      1    1.0835e+02    3.2995e+02 ;    H8R - C18    - H8S   
  9225   9224   9227      1    1.1005e+02    3.8802e+02 ;    H8R - C18    - C17   
  9226   9224   9227      1    1.1005e+02    3.8802e+02 ;    H8S - C18    - C17   
  9227   9230   9231      1    1.1005e+02    3.8802e+02 ;    C17 - C16    - H6R   
  9227   9230   9232      1    1.1005e+02    3.8802e+02 ;    C17 - C16    - H6S   
  9227   9230   9233      1    1.1205e+02    3.9497e+02 ;    C17 - C16    - C15   
  9228   9227   9229      1    1.0835e+02    3.2995e+02 ;    H7R - C17    - H7S   
  9228   9227   9230      1    1.1005e+02    3.8802e+02 ;    H7R - C17    - C16   
  9229   9227   9230      1    1.1005e+02    3.8802e+02 ;    H7S - C17    - C16   
  9230   9233   9234      1    1.1005e+02    3.8802e+02 ;    C16 - C15    - H5R   
  9230   9233   9235      1    1.1005e+02    3.8802e+02 ;    C16 - C15    - H5S   
  9230   9233   9236      1    1.1205e+02    3.9497e+02 ;    C16 - C15    - C14   
  9231   9230   9232      1    1.0835e+02    3.2995e+02 ;    H6R - C16    - H6S   
  9231   9230   9233      1    1.1005e+02    3.8802e+02 ;    H6R - C16    - C15   
  9232   9230   9233      1    1.1005e+02    3.8802e+02 ;    H6S - C16    - C15   
  9233   9236   9237      1    1.1005e+02    3.8802e+02 ;    C15 - C14    - H4R   
  9233   9236   9238      1    1.1005e+02    3.8802e+02 ;    C15 - C14    - H4S   
  9233   9236   9239      1    1.1205e+02    3.9497e+02 ;    C15 - C14    - C13   
  9234   9233   9235      1    1.0835e+02    3.2995e+02 ;    H5R - C15    - H5S   
  9234   9233   9236      1    1.1005e+02    3.8802e+02 ;    H5R - C15    - C14   
  9235   9233   9236      1    1.1005e+02    3.8802e+02 ;    H5S - C15    - C14   
  9236   9239   9240      1    1.1005e+02    3.8802e+02 ;    C14 - C13    - H3R   
  9236   9239   9241      1    1.1005e+02    3.8802e+02 ;    C14 - C13    - H3S   
  9236   9239   9242      1    1.1205e+02    3.9497e+02 ;    C14 - C13    - C12   
  9237   9236   9238      1    1.0835e+02    3.2995e+02 ;    H4R - C14    - H4S   
  9237   9236   9239      1    1.1005e+02    3.8802e+02 ;    H4R - C14    - C13   
  9238   9236   9239      1    1.1005e+02    3.8802e+02 ;    H4S - C14    - C13   
  9239   9242   9243      1    1.1005e+02    3.8802e+02 ;    C13 - C12    - H2R   
  9239   9242   9244      1    1.1005e+02    3.8802e+02 ;    C13 - C12    - H2S   
  9239   9242   9245      1    1.1053e+02    5.3379e+02 ;    C13 - C12    - C11   
  9240   9239   9241      1    1.0835e+02    3.2995e+02 ;    H3R - C13    - H3S   
  9240   9239   9242      1    1.1005e+02    3.8802e+02 ;    H3R - C13    - C12   
  9241   9239   9242      1    1.1005e+02    3.8802e+02 ;    H3S - C13    - C12   
  9242   9245   9246      1    1.2311e+02    5.6928e+02 ;    C12 - C11    - O12   
  9242   9245   9247      1    1.1196e+02    5.7957e+02 ;    C12 - C11    - O11   
  9243   9242   9244      1    1.0835e+02    3.2995e+02 ;    H2R - C12    - H2S   
  9243   9242   9245      1    1.0968e+02    3.9497e+02 ;    H2R - C12    - C11   
  9244   9242   9245      1    1.0968e+02    3.9497e+02 ;    H2S - C12    - C11   
  9245   9247   9248      1    1.1514e+02    5.3246e+02 ;    C11 - O11    - C1    
  9246   9245   9247      1    1.2333e+02    6.3538e+02 ;    O12 - C11    - O11   
  9247   9248   9249      1    1.0882e+02    4.2543e+02 ;    O11 - C1     - HR    
  9247   9248   9250      1    1.0882e+02    4.2543e+02 ;    O11 - C1     - HS    
  9247   9248   9251      1    1.0842e+02    5.6718e+02 ;    O11 - C1     - C2    
  9248   9251   9252      1    1.1007e+02    3.8794e+02 ;     C1 - C2     - HX    
  9248   9251   9253      1    1.1063e+02    5.2894e+02 ;     C1 - C2     - C3    
  9248   9251   9280      1    1.0842e+02    5.6718e+02 ;     C1 - C2     - O21   
  9249   9248   9250      1    1.0955e+02    3.2786e+02 ;     HR - C1     - HS    
  9249   9248   9251      1    1.1007e+02    3.8794e+02 ;     HR - C1     - C2    
  9250   9248   9251      1    1.1007e+02    3.8794e+02 ;     HS - C1     - C2    
  9251   9253   9254      1    1.1007e+02    3.8794e+02 ;     C2 - C3     - HA    
  9251   9253   9255      1    1.1007e+02    3.8794e+02 ;     C2 - C3     - HB    
  9251   9253   9256      1    1.0842e+02    5.6718e+02 ;     C2 - C3     - O31   
  9251   9280   9281      1    1.1514e+02    5.3246e+02 ;     C2 - O21    - C21   
  9252   9251   9253      1    1.1007e+02    3.8794e+02 ;     HX - C2     - C3    
  9252   9251   9280      1    1.0882e+02    4.2543e+02 ;     HX - C2     - O21   
  9253   9251   9280      1    1.0842e+02    5.6718e+02 ;     C3 - C2     - O21   
  9253   9256   9257      1    1.2050e+02    8.3680e+02 ;     C3 - O31    - P31   
  9254   9253   9255      1    1.0955e+02    3.2786e+02 ;     HA - C3     - HB    
  9254   9253   9256      1    1.0882e+02    4.2543e+02 ;     HA - C3     - O31   
  9255   9253   9256      1    1.0882e+02    4.2543e+02 ;     HB - C3     - O31   
  9256   9257   9258      1    1.0260e+02    7.5312e+02 ;    O31 - P31    - O32   
  9256   9257   9278      1    1.0823e+02    8.3680e+02 ;    O31 - P31    - O33   
  9256   9257   9279      1    1.0823e+02    8.3680e+02 ;    O31 - P31    - O34   
  9257   9258   9259      1    1.2050e+02    8.3680e+02 ;    P31 - O32    - C31   
  9258   9257   9278      1    1.0823e+02    8.3680e+02 ;    O32 - P31    - O33   
  9258   9257   9279      1    1.0823e+02    8.3680e+02 ;    O32 - P31    - O34   
  9258   9259   9260      1    1.0882e+02    4.2543e+02 ;    O32 - C31    - H1A   
  9258   9259   9261      1    1.0882e+02    4.2543e+02 ;    O32 - C31    - H1B   
  9258   9259   9262      1    1.0842e+02    5.6718e+02 ;    O32 - C31    - C32   
  9259   9262   9263      1    1.1174e+02    3.8510e+02 ;    C31 - C32    - H2A   
  9259   9262   9264      1    1.1174e+02    3.8510e+02 ;    C31 - C32    - H2B   
  9259   9262   9265      1    1.1432e+02    5.3932e+02 ;    C31 - C32    - N31   
  9260   9259   9261      1    1.0955e+02    3.2786e+02 ;    H1A - C31    - H1B   
  9260   9259   9262      1    1.1007e+02    3.8794e+02 ;    H1A - C31    - C32   
  9261   9259   9262      1    1.1007e+02    3.8794e+02 ;    H1B - C31    - C32   
  9262   9265   9266      1    1.1064e+02    5.2585e+02 ;    C32 - N31    - C33   
  9262   9265   9270      1    1.1064e+02    5.2585e+02 ;    C32 - N31    - C34   
  9262   9265   9274      1    1.1064e+02    5.2585e+02 ;    C32 - N31    - C35   
  9263   9262   9264      1    1.1074e+02    3.2669e+02 ;    H2A - C32    - H2B   
  9263   9262   9265      1    1.0791e+02    4.1020e+02 ;    H2A - C32    - N31   
  9264   9262   9265      1    1.0791e+02    4.1020e+02 ;    H2B - C32    - N31   
  9265   9266   9267      1    1.0791e+02    4.1020e+02 ;    N31 - C33    - H3A   
  9265   9266   9268      1    1.0791e+02    4.1020e+02 ;    N31 - C33    - H3B   
  9265   9266   9269      1    1.0791e+02    4.1020e+02 ;    N31 - C33    - H3C   
  9265   9270   9271      1    1.0791e+02    4.1020e+02 ;    N31 - C34    - H4A   
  9265   9270   9272      1    1.0791e+02    4.1020e+02 ;    N31 - C34    - H4B   
  9265   9270   9273      1    1.0791e+02    4.1020e+02 ;    N31 - C34    - H4C   
  9265   9274   9275      1    1.0791e+02    4.1020e+02 ;    N31 - C35    - H5A   
  9265   9274   9276      1    1.0791e+02    4.1020e+02 ;    N31 - C35    - H5B   
  9265   9274   9277      1    1.0791e+02    4.1020e+02 ;    N31 - C35    - H5C   
  9266   9265   9270      1    1.1064e+02    5.2585e+02 ;    C33 - N31    - C34   
  9266   9265   9274      1    1.1064e+02    5.2585e+02 ;    C33 - N31    - C35   
  9267   9266   9268      1    1.1074e+02    3.2669e+02 ;    H3A - C33    - H3B   
  9267   9266   9269      1    1.1074e+02    3.2669e+02 ;    H3A - C33    - H3C   
  9268   9266   9269      1    1.1074e+02    3.2669e+02 ;    H3B - C33    - H3C   
  9270   9265   9274      1    1.1064e+02    5.2585e+02 ;    C34 - N31    - C35   
  9271   9270   9272      1    1.1074e+02    3.2669e+02 ;    H4A - C34    - H4B   
  9271   9270   9273      1    1.1074e+02    3.2669e+02 ;    H4A - C34    - H4C   
  9272   9270   9273      1    1.1074e+02    3.2669e+02 ;    H4B - C34    - H4C   
  9275   9274   9276      1    1.1074e+02    3.2669e+02 ;    H5A - C35    - H5B   
  9275   9274   9277      1    1.1074e+02    3.2669e+02 ;    H5A - C35    - H5C   
  9276   9274   9277      1    1.1074e+02    3.2669e+02 ;    H5B - C35    - H5C   
  9278   9257   9279      1    1.1990e+02    1.1715e+03 ;    O33 - P31    - O34   
  9280   9281   9282      1    1.2333e+02    6.3538e+02 ;    O21 - C21    - O22   
  9280   9281   9320      1    1.1196e+02    5.7957e+02 ;    O21 - C21    - C12   
  9281   9320   9317      1    1.1053e+02    5.3379e+02 ;    C21 - C12    - C13   
  9281   9320   9321      1    1.0968e+02    3.9497e+02 ;    C21 - C12    - H2R   
  9281   9320   9322      1    1.0968e+02    3.9497e+02 ;    C21 - C12    - H2S   
  9282   9281   9320      1    1.2311e+02    5.6928e+02 ;    O22 - C21    - C12   
  9283   9284   9285      1    1.0835e+02    3.2995e+02 ;   H14T - C114   - H14R  
  9283   9284   9286      1    1.0835e+02    3.2995e+02 ;   H14T - C114   - H14S  
  9283   9284   9287      1    1.1005e+02    3.8802e+02 ;   H14T - C114   - C113  
  9284   9287   9288      1    1.1005e+02    3.8802e+02 ;   C114 - C113   - H13R  
  9284   9287   9289      1    1.1005e+02    3.8802e+02 ;   C114 - C113   - H13S  
  9284   9287   9290      1    1.1205e+02    3.9497e+02 ;   C114 - C113   - C112  
  9285   9284   9286      1    1.0835e+02    3.2995e+02 ;   H14R - C114   - H14S  
  9285   9284   9287      1    1.1005e+02    3.8802e+02 ;   H14R - C114   - C113  
  9286   9284   9287      1    1.1005e+02    3.8802e+02 ;   H14S - C114   - C113  
  9287   9290   9291      1    1.1005e+02    3.8802e+02 ;   C113 - C112   - H12R  
  9287   9290   9292      1    1.1005e+02    3.8802e+02 ;   C113 - C112   - H12S  
  9287   9290   9293      1    1.1205e+02    3.9497e+02 ;   C113 - C112   - C111  
  9288   9287   9289      1    1.0835e+02    3.2995e+02 ;   H13R - C113   - H13S  
  9288   9287   9290      1    1.1005e+02    3.8802e+02 ;   H13R - C113   - C112  
  9289   9287   9290      1    1.1005e+02    3.8802e+02 ;   H13S - C113   - C112  
  9290   9293   9294      1    1.1005e+02    3.8802e+02 ;   C112 - C111   - H11R  
  9290   9293   9295      1    1.1005e+02    3.8802e+02 ;   C112 - C111   - H11S  
  9290   9293   9296      1    1.1205e+02    3.9497e+02 ;   C112 - C111   - C110  
  9291   9290   9292      1    1.0835e+02    3.2995e+02 ;   H12R - C112   - H12S  
  9291   9290   9293      1    1.1005e+02    3.8802e+02 ;   H12R - C112   - C111  
  9292   9290   9293      1    1.1005e+02    3.8802e+02 ;   H12S - C112   - C111  
  9293   9296   9297      1    1.1005e+02    3.8802e+02 ;   C111 - C110   - H10R  
  9293   9296   9298      1    1.1005e+02    3.8802e+02 ;   C111 - C110   - H10S  
  9293   9296   9299      1    1.1205e+02    3.9497e+02 ;   C111 - C110   - C19   
  9294   9293   9295      1    1.0835e+02    3.2995e+02 ;   H11R - C111   - H11S  
  9294   9293   9296      1    1.1005e+02    3.8802e+02 ;   H11R - C111   - C110  
  9295   9293   9296      1    1.1005e+02    3.8802e+02 ;   H11S - C111   - C110  
  9296   9299   9300      1    1.1005e+02    3.8802e+02 ;   C110 - C19    - H9R   
  9296   9299   9301      1    1.1005e+02    3.8802e+02 ;   C110 - C19    - H9S   
  9296   9299   9302      1    1.1205e+02    3.9497e+02 ;   C110 - C19    - C18   
  9297   9296   9298      1    1.0835e+02    3.2995e+02 ;   H10R - C110   - H10S  
  9297   9296   9299      1    1.1005e+02    3.8802e+02 ;   H10R - C110   - C19   
  9298   9296   9299      1    1.1005e+02    3.8802e+02 ;   H10S - C110   - C19   
  9299   9302   9303      1    1.1005e+02    3.8802e+02 ;    C19 - C18    - H8R   
  9299   9302   9304      1    1.1005e+02    3.8802e+02 ;    C19 - C18    - H8S   
  9299   9302   9305      1    1.1205e+02    3.9497e+02 ;    C19 - C18    - C17   
  9300   9299   9301      1    1.0835e+02    3.2995e+02 ;    H9R - C19    - H9S   
  9300   9299   9302      1    1.1005e+02    3.8802e+02 ;    H9R - C19    - C18   
  9301   9299   9302      1    1.1005e+02    3.8802e+02 ;    H9S - C19    - C18   
  9302   9305   9306      1    1.1005e+02    3.8802e+02 ;    C18 - C17    - H7R   
  9302   9305   9307      1    1.1005e+02    3.8802e+02 ;    C18 - C17    - H7S   
  9302   9305   9308      1    1.1205e+02    3.9497e+02 ;    C18 - C17    - C16   
  9303   9302   9304      1    1.0835e+02    3.2995e+02 ;    H8R - C18    - H8S   
  9303   9302   9305      1    1.1005e+02    3.8802e+02 ;    H8R - C18    - C17   
  9304   9302   9305      1    1.1005e+02    3.8802e+02 ;    H8S - C18    - C17   
  9305   9308   9309      1    1.1005e+02    3.8802e+02 ;    C17 - C16    - H6R   
  9305   9308   9310      1    1.1005e+02    3.8802e+02 ;    C17 - C16    - H6S   
  9305   9308   9311      1    1.1205e+02    3.9497e+02 ;    C17 - C16    - C15   
  9306   9305   9307      1    1.0835e+02    3.2995e+02 ;    H7R - C17    - H7S   
  9306   9305   9308      1    1.1005e+02    3.8802e+02 ;    H7R - C17    - C16   
  9307   9305   9308      1    1.1005e+02    3.8802e+02 ;    H7S - C17    - C16   
  9308   9311   9312      1    1.1005e+02    3.8802e+02 ;    C16 - C15    - H5R   
  9308   9311   9313      1    1.1005e+02    3.8802e+02 ;    C16 - C15    - H5S   
  9308   9311   9314      1    1.1205e+02    3.9497e+02 ;    C16 - C15    - C14   
  9309   9308   9310      1    1.0835e+02    3.2995e+02 ;    H6R - C16    - H6S   
  9309   9308   9311      1    1.1005e+02    3.8802e+02 ;    H6R - C16    - C15   
  9310   9308   9311      1    1.1005e+02    3.8802e+02 ;    H6S - C16    - C15   
  9311   9314   9315      1    1.1005e+02    3.8802e+02 ;    C15 - C14    - H4R   
  9311   9314   9316      1    1.1005e+02    3.8802e+02 ;    C15 - C14    - H4S   
  9311   9314   9317      1    1.1205e+02    3.9497e+02 ;    C15 - C14    - C13   
  9312   9311   9313      1    1.0835e+02    3.2995e+02 ;    H5R - C15    - H5S   
  9312   9311   9314      1    1.1005e+02    3.8802e+02 ;    H5R - C15    - C14   
  9313   9311   9314      1    1.1005e+02    3.8802e+02 ;    H5S - C15    - C14   
  9314   9317   9318      1    1.1005e+02    3.8802e+02 ;    C14 - C13    - H3R   
  9314   9317   9319      1    1.1005e+02    3.8802e+02 ;    C14 - C13    - H3S   
  9314   9317   9320      1    1.1205e+02    3.9497e+02 ;    C14 - C13    - C12   
  9315   9314   9316      1    1.0835e+02    3.2995e+02 ;    H4R - C14    - H4S   
  9315   9314   9317      1    1.1005e+02    3.8802e+02 ;    H4R - C14    - C13   
  9316   9314   9317      1    1.1005e+02    3.8802e+02 ;    H4S - C14    - C13   
  9317   9320   9321      1    1.1005e+02    3.8802e+02 ;    C13 - C12    - H2R   
  9317   9320   9322      1    1.1005e+02    3.8802e+02 ;    C13 - C12    - H2S   
  9318   9317   9319      1    1.0835e+02    3.2995e+02 ;    H3R - C13    - H3S   
  9318   9317   9320      1    1.1005e+02    3.8802e+02 ;    H3R - C13    - C12   
  9319   9317   9320      1    1.1005e+02    3.8802e+02 ;    H3S - C13    - C12   
  9321   9320   9322      1    1.0835e+02    3.2995e+02 ;    H2R - C12    - H2S   
  9323   9324   9325      1    1.0835e+02    3.2995e+02 ;   H14T - C114   - H14R  
  9323   9324   9326      1    1.0835e+02    3.2995e+02 ;   H14T - C114   - H14S  
  9323   9324   9327      1    1.1005e+02    3.8802e+02 ;   H14T - C114   - C113  
  9324   9327   9328      1    1.1005e+02    3.8802e+02 ;   C114 - C113   - H13R  
  9324   9327   9329      1    1.1005e+02    3.8802e+02 ;   C114 - C113   - H13S  
  9324   9327   9330      1    1.1205e+02    3.9497e+02 ;   C114 - C113   - C112  
  9325   9324   9326      1    1.0835e+02    3.2995e+02 ;   H14R - C114   - H14S  
  9325   9324   9327      1    1.1005e+02    3.8802e+02 ;   H14R - C114   - C113  
  9326   9324   9327      1    1.1005e+02    3.8802e+02 ;   H14S - C114   - C113  
  9327   9330   9331      1    1.1005e+02    3.8802e+02 ;   C113 - C112   - H12R  
  9327   9330   9332      1    1.1005e+02    3.8802e+02 ;   C113 - C112   - H12S  
  9327   9330   9333      1    1.1205e+02    3.9497e+02 ;   C113 - C112   - C111  
  9328   9327   9329      1    1.0835e+02    3.2995e+02 ;   H13R - C113   - H13S  
  9328   9327   9330      1    1.1005e+02    3.8802e+02 ;   H13R - C113   - C112  
  9329   9327   9330      1    1.1005e+02    3.8802e+02 ;   H13S - C113   - C112  
  9330   9333   9334      1    1.1005e+02    3.8802e+02 ;   C112 - C111   - H11R  
  9330   9333   9335      1    1.1005e+02    3.8802e+02 ;   C112 - C111   - H11S  
  9330   9333   9336      1    1.1205e+02    3.9497e+02 ;   C112 - C111   - C110  
  9331   9330   9332      1    1.0835e+02    3.2995e+02 ;   H12R - C112   - H12S  
  9331   9330   9333      1    1.1005e+02    3.8802e+02 ;   H12R - C112   - C111  
  9332   9330   9333      1    1.1005e+02    3.8802e+02 ;   H12S - C112   - C111  
  9333   9336   9337      1    1.1005e+02    3.8802e+02 ;   C111 - C110   - H10R  
  9333   9336   9338      1    1.1005e+02    3.8802e+02 ;   C111 - C110   - H10S  
  9333   9336   9339      1    1.1205e+02    3.9497e+02 ;   C111 - C110   - C19   
  9334   9333   9335      1    1.0835e+02    3.2995e+02 ;   H11R - C111   - H11S  
  9334   9333   9336      1    1.1005e+02    3.8802e+02 ;   H11R - C111   - C110  
  9335   9333   9336      1    1.1005e+02    3.8802e+02 ;   H11S - C111   - C110  
  9336   9339   9340      1    1.1005e+02    3.8802e+02 ;   C110 - C19    - H9R   
  9336   9339   9341      1    1.1005e+02    3.8802e+02 ;   C110 - C19    - H9S   
  9336   9339   9342      1    1.1205e+02    3.9497e+02 ;   C110 - C19    - C18   
  9337   9336   9338      1    1.0835e+02    3.2995e+02 ;   H10R - C110   - H10S  
  9337   9336   9339      1    1.1005e+02    3.8802e+02 ;   H10R - C110   - C19   
  9338   9336   9339      1    1.1005e+02    3.8802e+02 ;   H10S - C110   - C19   
  9339   9342   9343      1    1.1005e+02    3.8802e+02 ;    C19 - C18    - H8R   
  9339   9342   9344      1    1.1005e+02    3.8802e+02 ;    C19 - C18    - H8S   
  9339   9342   9345      1    1.1205e+02    3.9497e+02 ;    C19 - C18    - C17   
  9340   9339   9341      1    1.0835e+02    3.2995e+02 ;    H9R - C19    - H9S   
  9340   9339   9342      1    1.1005e+02    3.8802e+02 ;    H9R - C19    - C18   
  9341   9339   9342      1    1.1005e+02    3.8802e+02 ;    H9S - C19    - C18   
  9342   9345   9346      1    1.1005e+02    3.8802e+02 ;    C18 - C17    - H7R   
  9342   9345   9347      1    1.1005e+02    3.8802e+02 ;    C18 - C17    - H7S   
  9342   9345   9348      1    1.1205e+02    3.9497e+02 ;    C18 - C17    - C16   
  9343   9342   9344      1    1.0835e+02    3.2995e+02 ;    H8R - C18    - H8S   
  9343   9342   9345      1    1.1005e+02    3.8802e+02 ;    H8R - C18    - C17   
  9344   9342   9345      1    1.1005e+02    3.8802e+02 ;    H8S - C18    - C17   
  9345   9348   9349      1    1.1005e+02    3.8802e+02 ;    C17 - C16    - H6R   
  9345   9348   9350      1    1.1005e+02    3.8802e+02 ;    C17 - C16    - H6S   
  9345   9348   9351      1    1.1205e+02    3.9497e+02 ;    C17 - C16    - C15   
  9346   9345   9347      1    1.0835e+02    3.2995e+02 ;    H7R - C17    - H7S   
  9346   9345   9348      1    1.1005e+02    3.8802e+02 ;    H7R - C17    - C16   
  9347   9345   9348      1    1.1005e+02    3.8802e+02 ;    H7S - C17    - C16   
  9348   9351   9352      1    1.1005e+02    3.8802e+02 ;    C16 - C15    - H5R   
  9348   9351   9353      1    1.1005e+02    3.8802e+02 ;    C16 - C15    - H5S   
  9348   9351   9354      1    1.1205e+02    3.9497e+02 ;    C16 - C15    - C14   
  9349   9348   9350      1    1.0835e+02    3.2995e+02 ;    H6R - C16    - H6S   
  9349   9348   9351      1    1.1005e+02    3.8802e+02 ;    H6R - C16    - C15   
  9350   9348   9351      1    1.1005e+02    3.8802e+02 ;    H6S - C16    - C15   
  9351   9354   9355      1    1.1005e+02    3.8802e+02 ;    C15 - C14    - H4R   
  9351   9354   9356      1    1.1005e+02    3.8802e+02 ;    C15 - C14    - H4S   
  9351   9354   9357      1    1.1205e+02    3.9497e+02 ;    C15 - C14    - C13   
  9352   9351   9353      1    1.0835e+02    3.2995e+02 ;    H5R - C15    - H5S   
  9352   9351   9354      1    1.1005e+02    3.8802e+02 ;    H5R - C15    - C14   
  9353   9351   9354      1    1.1005e+02    3.8802e+02 ;    H5S - C15    - C14   
  9354   9357   9358      1    1.1005e+02    3.8802e+02 ;    C14 - C13    - H3R   
  9354   9357   9359      1    1.1005e+02    3.8802e+02 ;    C14 - C13    - H3S   
  9354   9357   9360      1    1.1205e+02    3.9497e+02 ;    C14 - C13    - C12   
  9355   9354   9356      1    1.0835e+02    3.2995e+02 ;    H4R - C14    - H4S   
  9355   9354   9357      1    1.1005e+02    3.8802e+02 ;    H4R - C14    - C13   
  9356   9354   9357      1    1.1005e+02    3.8802e+02 ;    H4S - C14    - C13   
  9357   9360   9361      1    1.1005e+02    3.8802e+02 ;    C13 - C12    - H2R   
  9357   9360   9362      1    1.1005e+02    3.8802e+02 ;    C13 - C12    - H2S   
  9357   9360   9363      1    1.1053e+02    5.3379e+02 ;    C13 - C12    - C11   
  9358   9357   9359      1    1.0835e+02    3.2995e+02 ;    H3R - C13    - H3S   
  9358   9357   9360      1    1.1005e+02    3.8802e+02 ;    H3R - C13    - C12   
  9359   9357   9360      1    1.1005e+02    3.8802e+02 ;    H3S - C13    - C12   
  9360   9363   9364      1    1.2311e+02    5.6928e+02 ;    C12 - C11    - O12   
  9360   9363   9365      1    1.1196e+02    5.7957e+02 ;    C12 - C11    - O11   
  9361   9360   9362      1    1.0835e+02    3.2995e+02 ;    H2R - C12    - H2S   
  9361   9360   9363      1    1.0968e+02    3.9497e+02 ;    H2R - C12    - C11   
  9362   9360   9363      1    1.0968e+02    3.9497e+02 ;    H2S - C12    - C11   
  9363   9365   9366      1    1.1514e+02    5.3246e+02 ;    C11 - O11    - C1    
  9364   9363   9365      1    1.2333e+02    6.3538e+02 ;    O12 - C11    - O11   
  9365   9366   9367      1    1.0882e+02    4.2543e+02 ;    O11 - C1     - HR    
  9365   9366   9368      1    1.0882e+02    4.2543e+02 ;    O11 - C1     - HS    
  9365   9366   9369      1    1.0842e+02    5.6718e+02 ;    O11 - C1     - C2    
  9366   9369   9370      1    1.1007e+02    3.8794e+02 ;     C1 - C2     - HX    
  9366   9369   9371      1    1.1063e+02    5.2894e+02 ;     C1 - C2     - C3    
  9366   9369   9398      1    1.0842e+02    5.6718e+02 ;     C1 - C2     - O21   
  9367   9366   9368      1    1.0955e+02    3.2786e+02 ;     HR - C1     - HS    
  9367   9366   9369      1    1.1007e+02    3.8794e+02 ;     HR - C1     - C2    
  9368   9366   9369      1    1.1007e+02    3.8794e+02 ;     HS - C1     - C2    
  9369   9371   9372      1    1.1007e+02    3.8794e+02 ;     C2 - C3     - HA    
  9369   9371   9373      1    1.1007e+02    3.8794e+02 ;     C2 - C3     - HB    
  9369   9371   9374      1    1.0842e+02    5.6718e+02 ;     C2 - C3     - O31   
  9369   9398   9399      1    1.1514e+02    5.3246e+02 ;     C2 - O21    - C21   
  9370   9369   9371      1    1.1007e+02    3.8794e+02 ;     HX - C2     - C3    
  9370   9369   9398      1    1.0882e+02    4.2543e+02 ;     HX - C2     - O21   
  9371   9369   9398      1    1.0842e+02    5.6718e+02 ;     C3 - C2     - O21   
  9371   9374   9375      1    1.2050e+02    8.3680e+02 ;     C3 - O31    - P31   
  9372   9371   9373      1    1.0955e+02    3.2786e+02 ;     HA - C3     - HB    
  9372   9371   9374      1    1.0882e+02    4.2543e+02 ;     HA - C3     - O31   
  9373   9371   9374      1    1.0882e+02    4.2543e+02 ;     HB - C3     - O31   
  9374   9375   9376      1    1.0260e+02    7.5312e+02 ;    O31 - P31    - O32   
  9374   9375   9396      1    1.0823e+02    8.3680e+02 ;    O31 - P31    - O33   
  9374   9375   9397      1    1.0823e+02    8.3680e+02 ;    O31 - P31    - O34   
  9375   9376   9377      1    1.2050e+02    8.3680e+02 ;    P31 - O32    - C31   
  9376   9375   9396      1    1.0823e+02    8.3680e+02 ;    O32 - P31    - O33   
  9376   9375   9397      1    1.0823e+02    8.3680e+02 ;    O32 - P31    - O34   
  9376   9377   9378      1    1.0882e+02    4.2543e+02 ;    O32 - C31    - H1A   
  9376   9377   9379      1    1.0882e+02    4.2543e+02 ;    O32 - C31    - H1B   
  9376   9377   9380      1    1.0842e+02    5.6718e+02 ;    O32 - C31    - C32   
  9377   9380   9381      1    1.1174e+02    3.8510e+02 ;    C31 - C32    - H2A   
  9377   9380   9382      1    1.1174e+02    3.8510e+02 ;    C31 - C32    - H2B   
  9377   9380   9383      1    1.1432e+02    5.3932e+02 ;    C31 - C32    - N31   
  9378   9377   9379      1    1.0955e+02    3.2786e+02 ;    H1A - C31    - H1B   
  9378   9377   9380      1    1.1007e+02    3.8794e+02 ;    H1A - C31    - C32   
  9379   9377   9380      1    1.1007e+02    3.8794e+02 ;    H1B - C31    - C32   
  9380   9383   9384      1    1.1064e+02    5.2585e+02 ;    C32 - N31    - C33   
  9380   9383   9388      1    1.1064e+02    5.2585e+02 ;    C32 - N31    - C34   
  9380   9383   9392      1    1.1064e+02    5.2585e+02 ;    C32 - N31    - C35   
  9381   9380   9382      1    1.1074e+02    3.2669e+02 ;    H2A - C32    - H2B   
  9381   9380   9383      1    1.0791e+02    4.1020e+02 ;    H2A - C32    - N31   
  9382   9380   9383      1    1.0791e+02    4.1020e+02 ;    H2B - C32    - N31   
  9383   9384   9385      1    1.0791e+02    4.1020e+02 ;    N31 - C33    - H3A   
  9383   9384   9386      1    1.0791e+02    4.1020e+02 ;    N31 - C33    - H3B   
  9383   9384   9387      1    1.0791e+02    4.1020e+02 ;    N31 - C33    - H3C   
  9383   9388   9389      1    1.0791e+02    4.1020e+02 ;    N31 - C34    - H4A   
  9383   9388   9390      1    1.0791e+02    4.1020e+02 ;    N31 - C34    - H4B   
  9383   9388   9391      1    1.0791e+02    4.1020e+02 ;    N31 - C34    - H4C   
  9383   9392   9393      1    1.0791e+02    4.1020e+02 ;    N31 - C35    - H5A   
  9383   9392   9394      1    1.0791e+02    4.1020e+02 ;    N31 - C35    - H5B   
  9383   9392   9395      1    1.0791e+02    4.1020e+02 ;    N31 - C35    - H5C   
  9384   9383   9388      1    1.1064e+02    5.2585e+02 ;    C33 - N31    - C34   
  9384   9383   9392      1    1.1064e+02    5.2585e+02 ;    C33 - N31    - C35   
  9385   9384   9386      1    1.1074e+02    3.2669e+02 ;    H3A - C33    - H3B   
  9385   9384   9387      1    1.1074e+02    3.2669e+02 ;    H3A - C33    - H3C   
  9386   9384   9387      1    1.1074e+02    3.2669e+02 ;    H3B - C33    - H3C   
  9388   9383   9392      1    1.1064e+02    5.2585e+02 ;    C34 - N31    - C35   
  9389   9388   9390      1    1.1074e+02    3.2669e+02 ;    H4A - C34    - H4B   
  9389   9388   9391      1    1.1074e+02    3.2669e+02 ;    H4A - C34    - H4C   
  9390   9388   9391      1    1.1074e+02    3.2669e+02 ;    H4B - C34    - H4C   
  9393   9392   9394      1    1.1074e+02    3.2669e+02 ;    H5A - C35    - H5B   
  9393   9392   9395      1    1.1074e+02    3.2669e+02 ;    H5A - C35    - H5C   
  9394   9392   9395      1    1.1074e+02    3.2669e+02 ;    H5B - C35    - H5C   
  9396   9375   9397      1    1.1990e+02    1.1715e+03 ;    O33 - P31    - O34   
  9398   9399   9400      1    1.2333e+02    6.3538e+02 ;    O21 - C21    - O22   
  9398   9399   9438      1    1.1196e+02    5.7957e+02 ;    O21 - C21    - C12   
  9399   9438   9435      1    1.1053e+02    5.3379e+02 ;    C21 - C12    - C13   
  9399   9438   9439      1    1.0968e+02    3.9497e+02 ;    C21 - C12    - H2R   
  9399   9438   9440      1    1.0968e+02    3.9497e+02 ;    C21 - C12    - H2S   
  9400   9399   9438      1    1.2311e+02    5.6928e+02 ;    O22 - C21    - C12   
  9401   9402   9403      1    1.0835e+02    3.2995e+02 ;   H14T - C114   - H14R  
  9401   9402   9404      1    1.0835e+02    3.2995e+02 ;   H14T - C114   - H14S  
  9401   9402   9405      1    1.1005e+02    3.8802e+02 ;   H14T - C114   - C113  
  9402   9405   9406      1    1.1005e+02    3.8802e+02 ;   C114 - C113   - H13R  
  9402   9405   9407      1    1.1005e+02    3.8802e+02 ;   C114 - C113   - H13S  
  9402   9405   9408      1    1.1205e+02    3.9497e+02 ;   C114 - C113   - C112  
  9403   9402   9404      1    1.0835e+02    3.2995e+02 ;   H14R - C114   - H14S  
  9403   9402   9405      1    1.1005e+02    3.8802e+02 ;   H14R - C114   - C113  
  9404   9402   9405      1    1.1005e+02    3.8802e+02 ;   H14S - C114   - C113  
  9405   9408   9409      1    1.1005e+02    3.8802e+02 ;   C113 - C112   - H12R  
  9405   9408   9410      1    1.1005e+02    3.8802e+02 ;   C113 - C112   - H12S  
  9405   9408   9411      1    1.1205e+02    3.9497e+02 ;   C113 - C112   - C111  
  9406   9405   9407      1    1.0835e+02    3.2995e+02 ;   H13R - C113   - H13S  
  9406   9405   9408      1    1.1005e+02    3.8802e+02 ;   H13R - C113   - C112  
  9407   9405   9408      1    1.1005e+02    3.8802e+02 ;   H13S - C113   - C112  
  9408   9411   9412      1    1.1005e+02    3.8802e+02 ;   C112 - C111   - H11R  
  9408   9411   9413      1    1.1005e+02    3.8802e+02 ;   C112 - C111   - H11S  
  9408   9411   9414      1    1.1205e+02    3.9497e+02 ;   C112 - C111   - C110  
  9409   9408   9410      1    1.0835e+02    3.2995e+02 ;   H12R - C112   - H12S  
  9409   9408   9411      1    1.1005e+02    3.8802e+02 ;   H12R - C112   - C111  
  9410   9408   9411      1    1.1005e+02    3.8802e+02 ;   H12S - C112   - C111  
  9411   9414   9415      1    1.1005e+02    3.8802e+02 ;   C111 - C110   - H10R  
  9411   9414   9416      1    1.1005e+02    3.8802e+02 ;   C111 - C110   - H10S  
  9411   9414   9417      1    1.1205e+02    3.9497e+02 ;   C111 - C110   - C19   
  9412   9411   9413      1    1.0835e+02    3.2995e+02 ;   H11R - C111   - H11S  
  9412   9411   9414      1    1.1005e+02    3.8802e+02 ;   H11R - C111   - C110  
  9413   9411   9414      1    1.1005e+02    3.8802e+02 ;   H11S - C111   - C110  
  9414   9417   9418      1    1.1005e+02    3.8802e+02 ;   C110 - C19    - H9R   
  9414   9417   9419      1    1.1005e+02    3.8802e+02 ;   C110 - C19    - H9S   
  9414   9417   9420      1    1.1205e+02    3.9497e+02 ;   C110 - C19    - C18   
  9415   9414   9416      1    1.0835e+02    3.2995e+02 ;   H10R - C110   - H10S  
  9415   9414   9417      1    1.1005e+02    3.8802e+02 ;   H10R - C110   - C19   
  9416   9414   9417      1    1.1005e+02    3.8802e+02 ;   H10S - C110   - C19   
  9417   9420   9421      1    1.1005e+02    3.8802e+02 ;    C19 - C18    - H8R   
  9417   9420   9422      1    1.1005e+02    3.8802e+02 ;    C19 - C18    - H8S   
  9417   9420   9423      1    1.1205e+02    3.9497e+02 ;    C19 - C18    - C17   
  9418   9417   9419      1    1.0835e+02    3.2995e+02 ;    H9R - C19    - H9S   
  9418   9417   9420      1    1.1005e+02    3.8802e+02 ;    H9R - C19    - C18   
  9419   9417   9420      1    1.1005e+02    3.8802e+02 ;    H9S - C19    - C18   
  9420   9423   9424      1    1.1005e+02    3.8802e+02 ;    C18 - C17    - H7R   
  9420   9423   9425      1    1.1005e+02    3.8802e+02 ;    C18 - C17    - H7S   
  9420   9423   9426      1    1.1205e+02    3.9497e+02 ;    C18 - C17    - C16   
  9421   9420   9422      1    1.0835e+02    3.2995e+02 ;    H8R - C18    - H8S   
  9421   9420   9423      1    1.1005e+02    3.8802e+02 ;    H8R - C18    - C17   
  9422   9420   9423      1    1.1005e+02    3.8802e+02 ;    H8S - C18    - C17   
  9423   9426   9427      1    1.1005e+02    3.8802e+02 ;    C17 - C16    - H6R   
  9423   9426   9428      1    1.1005e+02    3.8802e+02 ;    C17 - C16    - H6S   
  9423   9426   9429      1    1.1205e+02    3.9497e+02 ;    C17 - C16    - C15   
  9424   9423   9425      1    1.0835e+02    3.2995e+02 ;    H7R - C17    - H7S   
  9424   9423   9426      1    1.1005e+02    3.8802e+02 ;    H7R - C17    - C16   
  9425   9423   9426      1    1.1005e+02    3.8802e+02 ;    H7S - C17    - C16   
  9426   9429   9430      1    1.1005e+02    3.8802e+02 ;    C16 - C15    - H5R   
  9426   9429   9431      1    1.1005e+02    3.8802e+02 ;    C16 - C15    - H5S   
  9426   9429   9432      1    1.1205e+02    3.9497e+02 ;    C16 - C15    - C14   
  9427   9426   9428      1    1.0835e+02    3.2995e+02 ;    H6R - C16    - H6S   
  9427   9426   9429      1    1.1005e+02    3.8802e+02 ;    H6R - C16    - C15   
  9428   9426   9429      1    1.1005e+02    3.8802e+02 ;    H6S - C16    - C15   
  9429   9432   9433      1    1.1005e+02    3.8802e+02 ;    C15 - C14    - H4R   
  9429   9432   9434      1    1.1005e+02    3.8802e+02 ;    C15 - C14    - H4S   
  9429   9432   9435      1    1.1205e+02    3.9497e+02 ;    C15 - C14    - C13   
  9430   9429   9431      1    1.0835e+02    3.2995e+02 ;    H5R - C15    - H5S   
  9430   9429   9432      1    1.1005e+02    3.8802e+02 ;    H5R - C15    - C14   
  9431   9429   9432      1    1.1005e+02    3.8802e+02 ;    H5S - C15    - C14   
  9432   9435   9436      1    1.1005e+02    3.8802e+02 ;    C14 - C13    - H3R   
  9432   9435   9437      1    1.1005e+02    3.8802e+02 ;    C14 - C13    - H3S   
  9432   9435   9438      1    1.1205e+02    3.9497e+02 ;    C14 - C13    - C12   
  9433   9432   9434      1    1.0835e+02    3.2995e+02 ;    H4R - C14    - H4S   
  9433   9432   9435      1    1.1005e+02    3.8802e+02 ;    H4R - C14    - C13   
  9434   9432   9435      1    1.1005e+02    3.8802e+02 ;    H4S - C14    - C13   
  9435   9438   9439      1    1.1005e+02    3.8802e+02 ;    C13 - C12    - H2R   
  9435   9438   9440      1    1.1005e+02    3.8802e+02 ;    C13 - C12    - H2S   
  9436   9435   9437      1    1.0835e+02    3.2995e+02 ;    H3R - C13    - H3S   
  9436   9435   9438      1    1.1005e+02    3.8802e+02 ;    H3R - C13    - C12   
  9437   9435   9438      1    1.1005e+02    3.8802e+02 ;    H3S - C13    - C12   
  9439   9438   9440      1    1.0835e+02    3.2995e+02 ;    H2R - C12    - H2S   
  9441   9442   9443      1    1.0835e+02    3.2995e+02 ;   H14T - C114   - H14R  
  9441   9442   9444      1    1.0835e+02    3.2995e+02 ;   H14T - C114   - H14S  
  9441   9442   9445      1    1.1005e+02    3.8802e+02 ;   H14T - C114   - C113  
  9442   9445   9446      1    1.1005e+02    3.8802e+02 ;   C114 - C113   - H13R  
  9442   9445   9447      1    1.1005e+02    3.8802e+02 ;   C114 - C113   - H13S  
  9442   9445   9448      1    1.1205e+02    3.9497e+02 ;   C114 - C113   - C112  
  9443   9442   9444      1    1.0835e+02    3.2995e+02 ;   H14R - C114   - H14S  
  9443   9442   9445      1    1.1005e+02    3.8802e+02 ;   H14R - C114   - C113  
  9444   9442   9445      1    1.1005e+02    3.8802e+02 ;   H14S - C114   - C113  
  9445   9448   9449      1    1.1005e+02    3.8802e+02 ;   C113 - C112   - H12R  
  9445   9448   9450      1    1.1005e+02    3.8802e+02 ;   C113 - C112   - H12S  
  9445   9448   9451      1    1.1205e+02    3.9497e+02 ;   C113 - C112   - C111  
  9446   9445   9447      1    1.0835e+02    3.2995e+02 ;   H13R - C113   - H13S  
  9446   9445   9448      1    1.1005e+02    3.8802e+02 ;   H13R - C113   - C112  
  9447   9445   9448      1    1.1005e+02    3.8802e+02 ;   H13S - C113   - C112  
  9448   9451   9452      1    1.1005e+02    3.8802e+02 ;   C112 - C111   - H11R  
  9448   9451   9453      1    1.1005e+02    3.8802e+02 ;   C112 - C111   - H11S  
  9448   9451   9454      1    1.1205e+02    3.9497e+02 ;   C112 - C111   - C110  
  9449   9448   9450      1    1.0835e+02    3.2995e+02 ;   H12R - C112   - H12S  
  9449   9448   9451      1    1.1005e+02    3.8802e+02 ;   H12R - C112   - C111  
  9450   9448   9451      1    1.1005e+02    3.8802e+02 ;   H12S - C112   - C111  
  9451   9454   9455      1    1.1005e+02    3.8802e+02 ;   C111 - C110   - H10R  
  9451   9454   9456      1    1.1005e+02    3.8802e+02 ;   C111 - C110   - H10S  
  9451   9454   9457      1    1.1205e+02    3.9497e+02 ;   C111 - C110   - C19   
  9452   9451   9453      1    1.0835e+02    3.2995e+02 ;   H11R - C111   - H11S  
  9452   9451   9454      1    1.1005e+02    3.8802e+02 ;   H11R - C111   - C110  
  9453   9451   9454      1    1.1005e+02    3.8802e+02 ;   H11S - C111   - C110  
  9454   9457   9458      1    1.1005e+02    3.8802e+02 ;   C110 - C19    - H9R   
  9454   9457   9459      1    1.1005e+02    3.8802e+02 ;   C110 - C19    - H9S   
  9454   9457   9460      1    1.1205e+02    3.9497e+02 ;   C110 - C19    - C18   
  9455   9454   9456      1    1.0835e+02    3.2995e+02 ;   H10R - C110   - H10S  
  9455   9454   9457      1    1.1005e+02    3.8802e+02 ;   H10R - C110   - C19   
  9456   9454   9457      1    1.1005e+02    3.8802e+02 ;   H10S - C110   - C19   
  9457   9460   9461      1    1.1005e+02    3.8802e+02 ;    C19 - C18    - H8R   
  9457   9460   9462      1    1.1005e+02    3.8802e+02 ;    C19 - C18    - H8S   
  9457   9460   9463      1    1.1205e+02    3.9497e+02 ;    C19 - C18    - C17   
  9458   9457   9459      1    1.0835e+02    3.2995e+02 ;    H9R - C19    - H9S   
  9458   9457   9460      1    1.1005e+02    3.8802e+02 ;    H9R - C19    - C18   
  9459   9457   9460      1    1.1005e+02    3.8802e+02 ;    H9S - C19    - C18   
  9460   9463   9464      1    1.1005e+02    3.8802e+02 ;    C18 - C17    - H7R   
  9460   9463   9465      1    1.1005e+02    3.8802e+02 ;    C18 - C17    - H7S   
  9460   9463   9466      1    1.1205e+02    3.9497e+02 ;    C18 - C17    - C16   
  9461   9460   9462      1    1.0835e+02    3.2995e+02 ;    H8R - C18    - H8S   
  9461   9460   9463      1    1.1005e+02    3.8802e+02 ;    H8R - C18    - C17   
  9462   9460   9463      1    1.1005e+02    3.8802e+02 ;    H8S - C18    - C17   
  9463   9466   9467      1    1.1005e+02    3.8802e+02 ;    C17 - C16    - H6R   
  9463   9466   9468      1    1.1005e+02    3.8802e+02 ;    C17 - C16    - H6S   
  9463   9466   9469      1    1.1205e+02    3.9497e+02 ;    C17 - C16    - C15   
  9464   9463   9465      1    1.0835e+02    3.2995e+02 ;    H7R - C17    - H7S   
  9464   9463   9466      1    1.1005e+02    3.8802e+02 ;    H7R - C17    - C16   
  9465   9463   9466      1    1.1005e+02    3.8802e+02 ;    H7S - C17    - C16   
  9466   9469   9470      1    1.1005e+02    3.8802e+02 ;    C16 - C15    - H5R   
  9466   9469   9471      1    1.1005e+02    3.8802e+02 ;    C16 - C15    - H5S   
  9466   9469   9472      1    1.1205e+02    3.9497e+02 ;    C16 - C15    - C14   
  9467   9466   9468      1    1.0835e+02    3.2995e+02 ;    H6R - C16    - H6S   
  9467   9466   9469      1    1.1005e+02    3.8802e+02 ;    H6R - C16    - C15   
  9468   9466   9469      1    1.1005e+02    3.8802e+02 ;    H6S - C16    - C15   
  9469   9472   9473      1    1.1005e+02    3.8802e+02 ;    C15 - C14    - H4R   
  9469   9472   9474      1    1.1005e+02    3.8802e+02 ;    C15 - C14    - H4S   
  9469   9472   9475      1    1.1205e+02    3.9497e+02 ;    C15 - C14    - C13   
  9470   9469   9471      1    1.0835e+02    3.2995e+02 ;    H5R - C15    - H5S   
  9470   9469   9472      1    1.1005e+02    3.8802e+02 ;    H5R - C15    - C14   
  9471   9469   9472      1    1.1005e+02    3.8802e+02 ;    H5S - C15    - C14   
  9472   9475   9476      1    1.1005e+02    3.8802e+02 ;    C14 - C13    - H3R   
  9472   9475   9477      1    1.1005e+02    3.8802e+02 ;    C14 - C13    - H3S   
  9472   9475   9478      1    1.1205e+02    3.9497e+02 ;    C14 - C13    - C12   
  9473   9472   9474      1    1.0835e+02    3.2995e+02 ;    H4R - C14    - H4S   
  9473   9472   9475      1    1.1005e+02    3.8802e+02 ;    H4R - C14    - C13   
  9474   9472   9475      1    1.1005e+02    3.8802e+02 ;    H4S - C14    - C13   
  9475   9478   9479      1    1.1005e+02    3.8802e+02 ;    C13 - C12    - H2R   
  9475   9478   9480      1    1.1005e+02    3.8802e+02 ;    C13 - C12    - H2S   
  9475   9478   9481      1    1.1053e+02    5.3379e+02 ;    C13 - C12    - C11   
  9476   9475   9477      1    1.0835e+02    3.2995e+02 ;    H3R - C13    - H3S   
  9476   9475   9478      1    1.1005e+02    3.8802e+02 ;    H3R - C13    - C12   
  9477   9475   9478      1    1.1005e+02    3.8802e+02 ;    H3S - C13    - C12   
  9478   9481   9482      1    1.2311e+02    5.6928e+02 ;    C12 - C11    - O12   
  9478   9481   9483      1    1.1196e+02    5.7957e+02 ;    C12 - C11    - O11   
  9479   9478   9480      1    1.0835e+02    3.2995e+02 ;    H2R - C12    - H2S   
  9479   9478   9481      1    1.0968e+02    3.9497e+02 ;    H2R - C12    - C11   
  9480   9478   9481      1    1.0968e+02    3.9497e+02 ;    H2S - C12    - C11   
  9481   9483   9484      1    1.1514e+02    5.3246e+02 ;    C11 - O11    - C1    
  9482   9481   9483      1    1.2333e+02    6.3538e+02 ;    O12 - C11    - O11   
  9483   9484   9485      1    1.0882e+02    4.2543e+02 ;    O11 - C1     - HR    
  9483   9484   9486      1    1.0882e+02    4.2543e+02 ;    O11 - C1     - HS    
  9483   9484   9487      1    1.0842e+02    5.6718e+02 ;    O11 - C1     - C2    
  9484   9487   9488      1    1.1007e+02    3.8794e+02 ;     C1 - C2     - HX    
  9484   9487   9489      1    1.1063e+02    5.2894e+02 ;     C1 - C2     - C3    
  9484   9487   9516      1    1.0842e+02    5.6718e+02 ;     C1 - C2     - O21   
  9485   9484   9486      1    1.0955e+02    3.2786e+02 ;     HR - C1     - HS    
  9485   9484   9487      1    1.1007e+02    3.8794e+02 ;     HR - C1     - C2    
  9486   9484   9487      1    1.1007e+02    3.8794e+02 ;     HS - C1     - C2    
  9487   9489   9490      1    1.1007e+02    3.8794e+02 ;     C2 - C3     - HA    
  9487   9489   9491      1    1.1007e+02    3.8794e+02 ;     C2 - C3     - HB    
  9487   9489   9492      1    1.0842e+02    5.6718e+02 ;     C2 - C3     - O31   
  9487   9516   9517      1    1.1514e+02    5.3246e+02 ;     C2 - O21    - C21   
  9488   9487   9489      1    1.1007e+02    3.8794e+02 ;     HX - C2     - C3    
  9488   9487   9516      1    1.0882e+02    4.2543e+02 ;     HX - C2     - O21   
  9489   9487   9516      1    1.0842e+02    5.6718e+02 ;     C3 - C2     - O21   
  9489   9492   9493      1    1.2050e+02    8.3680e+02 ;     C3 - O31    - P31   
  9490   9489   9491      1    1.0955e+02    3.2786e+02 ;     HA - C3     - HB    
  9490   9489   9492      1    1.0882e+02    4.2543e+02 ;     HA - C3     - O31   
  9491   9489   9492      1    1.0882e+02    4.2543e+02 ;     HB - C3     - O31   
  9492   9493   9494      1    1.0260e+02    7.5312e+02 ;    O31 - P31    - O32   
  9492   9493   9514      1    1.0823e+02    8.3680e+02 ;    O31 - P31    - O33   
  9492   9493   9515      1    1.0823e+02    8.3680e+02 ;    O31 - P31    - O34   
  9493   9494   9495      1    1.2050e+02    8.3680e+02 ;    P31 - O32    - C31   
  9494   9493   9514      1    1.0823e+02    8.3680e+02 ;    O32 - P31    - O33   
  9494   9493   9515      1    1.0823e+02    8.3680e+02 ;    O32 - P31    - O34   
  9494   9495   9496      1    1.0882e+02    4.2543e+02 ;    O32 - C31    - H1A   
  9494   9495   9497      1    1.0882e+02    4.2543e+02 ;    O32 - C31    - H1B   
  9494   9495   9498      1    1.0842e+02    5.6718e+02 ;    O32 - C31    - C32   
  9495   9498   9499      1    1.1174e+02    3.8510e+02 ;    C31 - C32    - H2A   
  9495   9498   9500      1    1.1174e+02    3.8510e+02 ;    C31 - C32    - H2B   
  9495   9498   9501      1    1.1432e+02    5.3932e+02 ;    C31 - C32    - N31   
  9496   9495   9497      1    1.0955e+02    3.2786e+02 ;    H1A - C31    - H1B   
  9496   9495   9498      1    1.1007e+02    3.8794e+02 ;    H1A - C31    - C32   
  9497   9495   9498      1    1.1007e+02    3.8794e+02 ;    H1B - C31    - C32   
  9498   9501   9502      1    1.1064e+02    5.2585e+02 ;    C32 - N31    - C33   
  9498   9501   9506      1    1.1064e+02    5.2585e+02 ;    C32 - N31    - C34   
  9498   9501   9510      1    1.1064e+02    5.2585e+02 ;    C32 - N31    - C35   
  9499   9498   9500      1    1.1074e+02    3.2669e+02 ;    H2A - C32    - H2B   
  9499   9498   9501      1    1.0791e+02    4.1020e+02 ;    H2A - C32    - N31   
  9500   9498   9501      1    1.0791e+02    4.1020e+02 ;    H2B - C32    - N31   
  9501   9502   9503      1    1.0791e+02    4.1020e+02 ;    N31 - C33    - H3A   
  9501   9502   9504      1    1.0791e+02    4.1020e+02 ;    N31 - C33    - H3B   
  9501   9502   9505      1    1.0791e+02    4.1020e+02 ;    N31 - C33    - H3C   
  9501   9506   9507      1    1.0791e+02    4.1020e+02 ;    N31 - C34    - H4A   
  9501   9506   9508      1    1.0791e+02    4.1020e+02 ;    N31 - C34    - H4B   
  9501   9506   9509      1    1.0791e+02    4.1020e+02 ;    N31 - C34    - H4C   
  9501   9510   9511      1    1.0791e+02    4.1020e+02 ;    N31 - C35    - H5A   
  9501   9510   9512      1    1.0791e+02    4.1020e+02 ;    N31 - C35    - H5B   
  9501   9510   9513      1    1.0791e+02    4.1020e+02 ;    N31 - C35    - H5C   
  9502   9501   9506      1    1.1064e+02    5.2585e+02 ;    C33 - N31    - C34   
  9502   9501   9510      1    1.1064e+02    5.2585e+02 ;    C33 - N31    - C35   
  9503   9502   9504      1    1.1074e+02    3.2669e+02 ;    H3A - C33    - H3B   
  9503   9502   9505      1    1.1074e+02    3.2669e+02 ;    H3A - C33    - H3C   
  9504   9502   9505      1    1.1074e+02    3.2669e+02 ;    H3B - C33    - H3C   
  9506   9501   9510      1    1.1064e+02    5.2585e+02 ;    C34 - N31    - C35   
  9507   9506   9508      1    1.1074e+02    3.2669e+02 ;    H4A - C34    - H4B   
  9507   9506   9509      1    1.1074e+02    3.2669e+02 ;    H4A - C34    - H4C   
  9508   9506   9509      1    1.1074e+02    3.2669e+02 ;    H4B - C34    - H4C   
  9511   9510   9512      1    1.1074e+02    3.2669e+02 ;    H5A - C35    - H5B   
  9511   9510   9513      1    1.1074e+02    3.2669e+02 ;    H5A - C35    - H5C   
  9512   9510   9513      1    1.1074e+02    3.2669e+02 ;    H5B - C35    - H5C   
  9514   9493   9515      1    1.1990e+02    1.1715e+03 ;    O33 - P31    - O34   
  9516   9517   9518      1    1.2333e+02    6.3538e+02 ;    O21 - C21    - O22   
  9516   9517   9556      1    1.1196e+02    5.7957e+02 ;    O21 - C21    - C12   
  9517   9556   9553      1    1.1053e+02    5.3379e+02 ;    C21 - C12    - C13   
  9517   9556   9557      1    1.0968e+02    3.9497e+02 ;    C21 - C12    - H2R   
  9517   9556   9558      1    1.0968e+02    3.9497e+02 ;    C21 - C12    - H2S   
  9518   9517   9556      1    1.2311e+02    5.6928e+02 ;    O22 - C21    - C12   
  9519   9520   9521      1    1.0835e+02    3.2995e+02 ;   H14T - C114   - H14R  
  9519   9520   9522      1    1.0835e+02    3.2995e+02 ;   H14T - C114   - H14S  
  9519   9520   9523      1    1.1005e+02    3.8802e+02 ;   H14T - C114   - C113  
  9520   9523   9524      1    1.1005e+02    3.8802e+02 ;   C114 - C113   - H13R  
  9520   9523   9525      1    1.1005e+02    3.8802e+02 ;   C114 - C113   - H13S  
  9520   9523   9526      1    1.1205e+02    3.9497e+02 ;   C114 - C113   - C112  
  9521   9520   9522      1    1.0835e+02    3.2995e+02 ;   H14R - C114   - H14S  
  9521   9520   9523      1    1.1005e+02    3.8802e+02 ;   H14R - C114   - C113  
  9522   9520   9523      1    1.1005e+02    3.8802e+02 ;   H14S - C114   - C113  
  9523   9526   9527      1    1.1005e+02    3.8802e+02 ;   C113 - C112   - H12R  
  9523   9526   9528      1    1.1005e+02    3.8802e+02 ;   C113 - C112   - H12S  
  9523   9526   9529      1    1.1205e+02    3.9497e+02 ;   C113 - C112   - C111  
  9524   9523   9525      1    1.0835e+02    3.2995e+02 ;   H13R - C113   - H13S  
  9524   9523   9526      1    1.1005e+02    3.8802e+02 ;   H13R - C113   - C112  
  9525   9523   9526      1    1.1005e+02    3.8802e+02 ;   H13S - C113   - C112  
  9526   9529   9530      1    1.1005e+02    3.8802e+02 ;   C112 - C111   - H11R  
  9526   9529   9531      1    1.1005e+02    3.8802e+02 ;   C112 - C111   - H11S  
  9526   9529   9532      1    1.1205e+02    3.9497e+02 ;   C112 - C111   - C110  
  9527   9526   9528      1    1.0835e+02    3.2995e+02 ;   H12R - C112   - H12S  
  9527   9526   9529      1    1.1005e+02    3.8802e+02 ;   H12R - C112   - C111  
  9528   9526   9529      1    1.1005e+02    3.8802e+02 ;   H12S - C112   - C111  
  9529   9532   9533      1    1.1005e+02    3.8802e+02 ;   C111 - C110   - H10R  
  9529   9532   9534      1    1.1005e+02    3.8802e+02 ;   C111 - C110   - H10S  
  9529   9532   9535      1    1.1205e+02    3.9497e+02 ;   C111 - C110   - C19   
  9530   9529   9531      1    1.0835e+02    3.2995e+02 ;   H11R - C111   - H11S  
  9530   9529   9532      1    1.1005e+02    3.8802e+02 ;   H11R - C111   - C110  
  9531   9529   9532      1    1.1005e+02    3.8802e+02 ;   H11S - C111   - C110  
  9532   9535   9536      1    1.1005e+02    3.8802e+02 ;   C110 - C19    - H9R   
  9532   9535   9537      1    1.1005e+02    3.8802e+02 ;   C110 - C19    - H9S   
  9532   9535   9538      1    1.1205e+02    3.9497e+02 ;   C110 - C19    - C18   
  9533   9532   9534      1    1.0835e+02    3.2995e+02 ;   H10R - C110   - H10S  
  9533   9532   9535      1    1.1005e+02    3.8802e+02 ;   H10R - C110   - C19   
  9534   9532   9535      1    1.1005e+02    3.8802e+02 ;   H10S - C110   - C19   
  9535   9538   9539      1    1.1005e+02    3.8802e+02 ;    C19 - C18    - H8R   
  9535   9538   9540      1    1.1005e+02    3.8802e+02 ;    C19 - C18    - H8S   
  9535   9538   9541      1    1.1205e+02    3.9497e+02 ;    C19 - C18    - C17   
  9536   9535   9537      1    1.0835e+02    3.2995e+02 ;    H9R - C19    - H9S   
  9536   9535   9538      1    1.1005e+02    3.8802e+02 ;    H9R - C19    - C18   
  9537   9535   9538      1    1.1005e+02    3.8802e+02 ;    H9S - C19    - C18   
  9538   9541   9542      1    1.1005e+02    3.8802e+02 ;    C18 - C17    - H7R   
  9538   9541   9543      1    1.1005e+02    3.8802e+02 ;    C18 - C17    - H7S   
  9538   9541   9544      1    1.1205e+02    3.9497e+02 ;    C18 - C17    - C16   
  9539   9538   9540      1    1.0835e+02    3.2995e+02 ;    H8R - C18    - H8S   
  9539   9538   9541      1    1.1005e+02    3.8802e+02 ;    H8R - C18    - C17   
  9540   9538   9541      1    1.1005e+02    3.8802e+02 ;    H8S - C18    - C17   
  9541   9544   9545      1    1.1005e+02    3.8802e+02 ;    C17 - C16    - H6R   
  9541   9544   9546      1    1.1005e+02    3.8802e+02 ;    C17 - C16    - H6S   
  9541   9544   9547      1    1.1205e+02    3.9497e+02 ;    C17 - C16    - C15   
  9542   9541   9543      1    1.0835e+02    3.2995e+02 ;    H7R - C17    - H7S   
  9542   9541   9544      1    1.1005e+02    3.8802e+02 ;    H7R - C17    - C16   
  9543   9541   9544      1    1.1005e+02    3.8802e+02 ;    H7S - C17    - C16   
  9544   9547   9548      1    1.1005e+02    3.8802e+02 ;    C16 - C15    - H5R   
  9544   9547   9549      1    1.1005e+02    3.8802e+02 ;    C16 - C15    - H5S   
  9544   9547   9550      1    1.1205e+02    3.9497e+02 ;    C16 - C15    - C14   
  9545   9544   9546      1    1.0835e+02    3.2995e+02 ;    H6R - C16    - H6S   
  9545   9544   9547      1    1.1005e+02    3.8802e+02 ;    H6R - C16    - C15   
  9546   9544   9547      1    1.1005e+02    3.8802e+02 ;    H6S - C16    - C15   
  9547   9550   9551      1    1.1005e+02    3.8802e+02 ;    C15 - C14    - H4R   
  9547   9550   9552      1    1.1005e+02    3.8802e+02 ;    C15 - C14    - H4S   
  9547   9550   9553      1    1.1205e+02    3.9497e+02 ;    C15 - C14    - C13   
  9548   9547   9549      1    1.0835e+02    3.2995e+02 ;    H5R - C15    - H5S   
  9548   9547   9550      1    1.1005e+02    3.8802e+02 ;    H5R - C15    - C14   
  9549   9547   9550      1    1.1005e+02    3.8802e+02 ;    H5S - C15    - C14   
  9550   9553   9554      1    1.1005e+02    3.8802e+02 ;    C14 - C13    - H3R   
  9550   9553   9555      1    1.1005e+02    3.8802e+02 ;    C14 - C13    - H3S   
  9550   9553   9556      1    1.1205e+02    3.9497e+02 ;    C14 - C13    - C12   
  9551   9550   9552      1    1.0835e+02    3.2995e+02 ;    H4R - C14    - H4S   
  9551   9550   9553      1    1.1005e+02    3.8802e+02 ;    H4R - C14    - C13   
  9552   9550   9553      1    1.1005e+02    3.8802e+02 ;    H4S - C14    - C13   
  9553   9556   9557      1    1.1005e+02    3.8802e+02 ;    C13 - C12    - H2R   
  9553   9556   9558      1    1.1005e+02    3.8802e+02 ;    C13 - C12    - H2S   
  9554   9553   9555      1    1.0835e+02    3.2995e+02 ;    H3R - C13    - H3S   
  9554   9553   9556      1    1.1005e+02    3.8802e+02 ;    H3R - C13    - C12   
  9555   9553   9556      1    1.1005e+02    3.8802e+02 ;    H3S - C13    - C12   
  9557   9556   9558      1    1.0835e+02    3.2995e+02 ;    H2R - C12    - H2S   
  9559   9560   9561      1    1.0835e+02    3.2995e+02 ;   H14T - C114   - H14R  
  9559   9560   9562      1    1.0835e+02    3.2995e+02 ;   H14T - C114   - H14S  
  9559   9560   9563      1    1.1005e+02    3.8802e+02 ;   H14T - C114   - C113  
  9560   9563   9564      1    1.1005e+02    3.8802e+02 ;   C114 - C113   - H13R  
  9560   9563   9565      1    1.1005e+02    3.8802e+02 ;   C114 - C113   - H13S  
  9560   9563   9566      1    1.1205e+02    3.9497e+02 ;   C114 - C113   - C112  
  9561   9560   9562      1    1.0835e+02    3.2995e+02 ;   H14R - C114   - H14S  
  9561   9560   9563      1    1.1005e+02    3.8802e+02 ;   H14R - C114   - C113  
  9562   9560   9563      1    1.1005e+02    3.8802e+02 ;   H14S - C114   - C113  
  9563   9566   9567      1    1.1005e+02    3.8802e+02 ;   C113 - C112   - H12R  
  9563   9566   9568      1    1.1005e+02    3.8802e+02 ;   C113 - C112   - H12S  
  9563   9566   9569      1    1.1205e+02    3.9497e+02 ;   C113 - C112   - C111  
  9564   9563   9565      1    1.0835e+02    3.2995e+02 ;   H13R - C113   - H13S  
  9564   9563   9566      1    1.1005e+02    3.8802e+02 ;   H13R - C113   - C112  
  9565   9563   9566      1    1.1005e+02    3.8802e+02 ;   H13S - C113   - C112  
  9566   9569   9570      1    1.1005e+02    3.8802e+02 ;   C112 - C111   - H11R  
  9566   9569   9571      1    1.1005e+02    3.8802e+02 ;   C112 - C111   - H11S  
  9566   9569   9572      1    1.1205e+02    3.9497e+02 ;   C112 - C111   - C110  
  9567   9566   9568      1    1.0835e+02    3.2995e+02 ;   H12R - C112   - H12S  
  9567   9566   9569      1    1.1005e+02    3.8802e+02 ;   H12R - C112   - C111  
  9568   9566   9569      1    1.1005e+02    3.8802e+02 ;   H12S - C112   - C111  
  9569   9572   9573      1    1.1005e+02    3.8802e+02 ;   C111 - C110   - H10R  
  9569   9572   9574      1    1.1005e+02    3.8802e+02 ;   C111 - C110   - H10S  
  9569   9572   9575      1    1.1205e+02    3.9497e+02 ;   C111 - C110   - C19   
  9570   9569   9571      1    1.0835e+02    3.2995e+02 ;   H11R - C111   - H11S  
  9570   9569   9572      1    1.1005e+02    3.8802e+02 ;   H11R - C111   - C110  
  9571   9569   9572      1    1.1005e+02    3.8802e+02 ;   H11S - C111   - C110  
  9572   9575   9576      1    1.1005e+02    3.8802e+02 ;   C110 - C19    - H9R   
  9572   9575   9577      1    1.1005e+02    3.8802e+02 ;   C110 - C19    - H9S   
  9572   9575   9578      1    1.1205e+02    3.9497e+02 ;   C110 - C19    - C18   
  9573   9572   9574      1    1.0835e+02    3.2995e+02 ;   H10R - C110   - H10S  
  9573   9572   9575      1    1.1005e+02    3.8802e+02 ;   H10R - C110   - C19   
  9574   9572   9575      1    1.1005e+02    3.8802e+02 ;   H10S - C110   - C19   
  9575   9578   9579      1    1.1005e+02    3.8802e+02 ;    C19 - C18    - H8R   
  9575   9578   9580      1    1.1005e+02    3.8802e+02 ;    C19 - C18    - H8S   
  9575   9578   9581      1    1.1205e+02    3.9497e+02 ;    C19 - C18    - C17   
  9576   9575   9577      1    1.0835e+02    3.2995e+02 ;    H9R - C19    - H9S   
  9576   9575   9578      1    1.1005e+02    3.8802e+02 ;    H9R - C19    - C18   
  9577   9575   9578      1    1.1005e+02    3.8802e+02 ;    H9S - C19    - C18   
  9578   9581   9582      1    1.1005e+02    3.8802e+02 ;    C18 - C17    - H7R   
  9578   9581   9583      1    1.1005e+02    3.8802e+02 ;    C18 - C17    - H7S   
  9578   9581   9584      1    1.1205e+02    3.9497e+02 ;    C18 - C17    - C16   
  9579   9578   9580      1    1.0835e+02    3.2995e+02 ;    H8R - C18    - H8S   
  9579   9578   9581      1    1.1005e+02    3.8802e+02 ;    H8R - C18    - C17   
  9580   9578   9581      1    1.1005e+02    3.8802e+02 ;    H8S - C18    - C17   
  9581   9584   9585      1    1.1005e+02    3.8802e+02 ;    C17 - C16    - H6R   
  9581   9584   9586      1    1.1005e+02    3.8802e+02 ;    C17 - C16    - H6S   
  9581   9584   9587      1    1.1205e+02    3.9497e+02 ;    C17 - C16    - C15   
  9582   9581   9583      1    1.0835e+02    3.2995e+02 ;    H7R - C17    - H7S   
  9582   9581   9584      1    1.1005e+02    3.8802e+02 ;    H7R - C17    - C16   
  9583   9581   9584      1    1.1005e+02    3.8802e+02 ;    H7S - C17    - C16   
  9584   9587   9588      1    1.1005e+02    3.8802e+02 ;    C16 - C15    - H5R   
  9584   9587   9589      1    1.1005e+02    3.8802e+02 ;    C16 - C15    - H5S   
  9584   9587   9590      1    1.1205e+02    3.9497e+02 ;    C16 - C15    - C14   
  9585   9584   9586      1    1.0835e+02    3.2995e+02 ;    H6R - C16    - H6S   
  9585   9584   9587      1    1.1005e+02    3.8802e+02 ;    H6R - C16    - C15   
  9586   9584   9587      1    1.1005e+02    3.8802e+02 ;    H6S - C16    - C15   
  9587   9590   9591      1    1.1005e+02    3.8802e+02 ;    C15 - C14    - H4R   
  9587   9590   9592      1    1.1005e+02    3.8802e+02 ;    C15 - C14    - H4S   
  9587   9590   9593      1    1.1205e+02    3.9497e+02 ;    C15 - C14    - C13   
  9588   9587   9589      1    1.0835e+02    3.2995e+02 ;    H5R - C15    - H5S   
  9588   9587   9590      1    1.1005e+02    3.8802e+02 ;    H5R - C15    - C14   
  9589   9587   9590      1    1.1005e+02    3.8802e+02 ;    H5S - C15    - C14   
  9590   9593   9594      1    1.1005e+02    3.8802e+02 ;    C14 - C13    - H3R   
  9590   9593   9595      1    1.1005e+02    3.8802e+02 ;    C14 - C13    - H3S   
  9590   9593   9596      1    1.1205e+02    3.9497e+02 ;    C14 - C13    - C12   
  9591   9590   9592      1    1.0835e+02    3.2995e+02 ;    H4R - C14    - H4S   
  9591   9590   9593      1    1.1005e+02    3.8802e+02 ;    H4R - C14    - C13   
  9592   9590   9593      1    1.1005e+02    3.8802e+02 ;    H4S - C14    - C13   
  9593   9596   9597      1    1.1005e+02    3.8802e+02 ;    C13 - C12    - H2R   
  9593   9596   9598      1    1.1005e+02    3.8802e+02 ;    C13 - C12    - H2S   
  9593   9596   9599      1    1.1053e+02    5.3379e+02 ;    C13 - C12    - C11   
  9594   9593   9595      1    1.0835e+02    3.2995e+02 ;    H3R - C13    - H3S   
  9594   9593   9596      1    1.1005e+02    3.8802e+02 ;    H3R - C13    - C12   
  9595   9593   9596      1    1.1005e+02    3.8802e+02 ;    H3S - C13    - C12   
  9596   9599   9600      1    1.2311e+02    5.6928e+02 ;    C12 - C11    - O12   
  9596   9599   9601      1    1.1196e+02    5.7957e+02 ;    C12 - C11    - O11   
  9597   9596   9598      1    1.0835e+02    3.2995e+02 ;    H2R - C12    - H2S   
  9597   9596   9599      1    1.0968e+02    3.9497e+02 ;    H2R - C12    - C11   
  9598   9596   9599      1    1.0968e+02    3.9497e+02 ;    H2S - C12    - C11   
  9599   9601   9602      1    1.1514e+02    5.3246e+02 ;    C11 - O11    - C1    
  9600   9599   9601      1    1.2333e+02    6.3538e+02 ;    O12 - C11    - O11   
  9601   9602   9603      1    1.0882e+02    4.2543e+02 ;    O11 - C1     - HR    
  9601   9602   9604      1    1.0882e+02    4.2543e+02 ;    O11 - C1     - HS    
  9601   9602   9605      1    1.0842e+02    5.6718e+02 ;    O11 - C1     - C2    
  9602   9605   9606      1    1.1007e+02    3.8794e+02 ;     C1 - C2     - HX    
  9602   9605   9607      1    1.1063e+02    5.2894e+02 ;     C1 - C2     - C3    
  9602   9605   9634      1    1.0842e+02    5.6718e+02 ;     C1 - C2     - O21   
  9603   9602   9604      1    1.0955e+02    3.2786e+02 ;     HR - C1     - HS    
  9603   9602   9605      1    1.1007e+02    3.8794e+02 ;     HR - C1     - C2    
  9604   9602   9605      1    1.1007e+02    3.8794e+02 ;     HS - C1     - C2    
  9605   9607   9608      1    1.1007e+02    3.8794e+02 ;     C2 - C3     - HA    
  9605   9607   9609      1    1.1007e+02    3.8794e+02 ;     C2 - C3     - HB    
  9605   9607   9610      1    1.0842e+02    5.6718e+02 ;     C2 - C3     - O31   
  9605   9634   9635      1    1.1514e+02    5.3246e+02 ;     C2 - O21    - C21   
  9606   9605   9607      1    1.1007e+02    3.8794e+02 ;     HX - C2     - C3    
  9606   9605   9634      1    1.0882e+02    4.2543e+02 ;     HX - C2     - O21   
  9607   9605   9634      1    1.0842e+02    5.6718e+02 ;     C3 - C2     - O21   
  9607   9610   9611      1    1.2050e+02    8.3680e+02 ;     C3 - O31    - P31   
  9608   9607   9609      1    1.0955e+02    3.2786e+02 ;     HA - C3     - HB    
  9608   9607   9610      1    1.0882e+02    4.2543e+02 ;     HA - C3     - O31   
  9609   9607   9610      1    1.0882e+02    4.2543e+02 ;     HB - C3     - O31   
  9610   9611   9612      1    1.0260e+02    7.5312e+02 ;    O31 - P31    - O32   
  9610   9611   9632      1    1.0823e+02    8.3680e+02 ;    O31 - P31    - O33   
  9610   9611   9633      1    1.0823e+02    8.3680e+02 ;    O31 - P31    - O34   
  9611   9612   9613      1    1.2050e+02    8.3680e+02 ;    P31 - O32    - C31   
  9612   9611   9632      1    1.0823e+02    8.3680e+02 ;    O32 - P31    - O33   
  9612   9611   9633      1    1.0823e+02    8.3680e+02 ;    O32 - P31    - O34   
  9612   9613   9614      1    1.0882e+02    4.2543e+02 ;    O32 - C31    - H1A   
  9612   9613   9615      1    1.0882e+02    4.2543e+02 ;    O32 - C31    - H1B   
  9612   9613   9616      1    1.0842e+02    5.6718e+02 ;    O32 - C31    - C32   
  9613   9616   9617      1    1.1174e+02    3.8510e+02 ;    C31 - C32    - H2A   
  9613   9616   9618      1    1.1174e+02    3.8510e+02 ;    C31 - C32    - H2B   
  9613   9616   9619      1    1.1432e+02    5.3932e+02 ;    C31 - C32    - N31   
  9614   9613   9615      1    1.0955e+02    3.2786e+02 ;    H1A - C31    - H1B   
  9614   9613   9616      1    1.1007e+02    3.8794e+02 ;    H1A - C31    - C32   
  9615   9613   9616      1    1.1007e+02    3.8794e+02 ;    H1B - C31    - C32   
  9616   9619   9620      1    1.1064e+02    5.2585e+02 ;    C32 - N31    - C33   
  9616   9619   9624      1    1.1064e+02    5.2585e+02 ;    C32 - N31    - C34   
  9616   9619   9628      1    1.1064e+02    5.2585e+02 ;    C32 - N31    - C35   
  9617   9616   9618      1    1.1074e+02    3.2669e+02 ;    H2A - C32    - H2B   
  9617   9616   9619      1    1.0791e+02    4.1020e+02 ;    H2A - C32    - N31   
  9618   9616   9619      1    1.0791e+02    4.1020e+02 ;    H2B - C32    - N31   
  9619   9620   9621      1    1.0791e+02    4.1020e+02 ;    N31 - C33    - H3A   
  9619   9620   9622      1    1.0791e+02    4.1020e+02 ;    N31 - C33    - H3B   
  9619   9620   9623      1    1.0791e+02    4.1020e+02 ;    N31 - C33    - H3C   
  9619   9624   9625      1    1.0791e+02    4.1020e+02 ;    N31 - C34    - H4A   
  9619   9624   9626      1    1.0791e+02    4.1020e+02 ;    N31 - C34    - H4B   
  9619   9624   9627      1    1.0791e+02    4.1020e+02 ;    N31 - C34    - H4C   
  9619   9628   9629      1    1.0791e+02    4.1020e+02 ;    N31 - C35    - H5A   
  9619   9628   9630      1    1.0791e+02    4.1020e+02 ;    N31 - C35    - H5B   
  9619   9628   9631      1    1.0791e+02    4.1020e+02 ;    N31 - C35    - H5C   
  9620   9619   9624      1    1.1064e+02    5.2585e+02 ;    C33 - N31    - C34   
  9620   9619   9628      1    1.1064e+02    5.2585e+02 ;    C33 - N31    - C35   
  9621   9620   9622      1    1.1074e+02    3.2669e+02 ;    H3A - C33    - H3B   
  9621   9620   9623      1    1.1074e+02    3.2669e+02 ;    H3A - C33    - H3C   
  9622   9620   9623      1    1.1074e+02    3.2669e+02 ;    H3B - C33    - H3C   
  9624   9619   9628      1    1.1064e+02    5.2585e+02 ;    C34 - N31    - C35   
  9625   9624   9626      1    1.1074e+02    3.2669e+02 ;    H4A - C34    - H4B   
  9625   9624   9627      1    1.1074e+02    3.2669e+02 ;    H4A - C34    - H4C   
  9626   9624   9627      1    1.1074e+02    3.2669e+02 ;    H4B - C34    - H4C   
  9629   9628   9630      1    1.1074e+02    3.2669e+02 ;    H5A - C35    - H5B   
  9629   9628   9631      1    1.1074e+02    3.2669e+02 ;    H5A - C35    - H5C   
  9630   9628   9631      1    1.1074e+02    3.2669e+02 ;    H5B - C35    - H5C   
  9632   9611   9633      1    1.1990e+02    1.1715e+03 ;    O33 - P31    - O34   
  9634   9635   9636      1    1.2333e+02    6.3538e+02 ;    O21 - C21    - O22   
  9634   9635   9674      1    1.1196e+02    5.7957e+02 ;    O21 - C21    - C12   
  9635   9674   9671      1    1.1053e+02    5.3379e+02 ;    C21 - C12    - C13   
  9635   9674   9675      1    1.0968e+02    3.9497e+02 ;    C21 - C12    - H2R   
  9635   9674   9676      1    1.0968e+02    3.9497e+02 ;    C21 - C12    - H2S   
  9636   9635   9674      1    1.2311e+02    5.6928e+02 ;    O22 - C21    - C12   
  9637   9638   9639      1    1.0835e+02    3.2995e+02 ;   H14T - C114   - H14R  
  9637   9638   9640      1    1.0835e+02    3.2995e+02 ;   H14T - C114   - H14S  
  9637   9638   9641      1    1.1005e+02    3.8802e+02 ;   H14T - C114   - C113  
  9638   9641   9642      1    1.1005e+02    3.8802e+02 ;   C114 - C113   - H13R  
  9638   9641   9643      1    1.1005e+02    3.8802e+02 ;   C114 - C113   - H13S  
  9638   9641   9644      1    1.1205e+02    3.9497e+02 ;   C114 - C113   - C112  
  9639   9638   9640      1    1.0835e+02    3.2995e+02 ;   H14R - C114   - H14S  
  9639   9638   9641      1    1.1005e+02    3.8802e+02 ;   H14R - C114   - C113  
  9640   9638   9641      1    1.1005e+02    3.8802e+02 ;   H14S - C114   - C113  
  9641   9644   9645      1    1.1005e+02    3.8802e+02 ;   C113 - C112   - H12R  
  9641   9644   9646      1    1.1005e+02    3.8802e+02 ;   C113 - C112   - H12S  
  9641   9644   9647      1    1.1205e+02    3.9497e+02 ;   C113 - C112   - C111  
  9642   9641   9643      1    1.0835e+02    3.2995e+02 ;   H13R - C113   - H13S  
  9642   9641   9644      1    1.1005e+02    3.8802e+02 ;   H13R - C113   - C112  
  9643   9641   9644      1    1.1005e+02    3.8802e+02 ;   H13S - C113   - C112  
  9644   9647   9648      1    1.1005e+02    3.8802e+02 ;   C112 - C111   - H11R  
  9644   9647   9649      1    1.1005e+02    3.8802e+02 ;   C112 - C111   - H11S  
  9644   9647   9650      1    1.1205e+02    3.9497e+02 ;   C112 - C111   - C110  
  9645   9644   9646      1    1.0835e+02    3.2995e+02 ;   H12R - C112   - H12S  
  9645   9644   9647      1    1.1005e+02    3.8802e+02 ;   H12R - C112   - C111  
  9646   9644   9647      1    1.1005e+02    3.8802e+02 ;   H12S - C112   - C111  
  9647   9650   9651      1    1.1005e+02    3.8802e+02 ;   C111 - C110   - H10R  
  9647   9650   9652      1    1.1005e+02    3.8802e+02 ;   C111 - C110   - H10S  
  9647   9650   9653      1    1.1205e+02    3.9497e+02 ;   C111 - C110   - C19   
  9648   9647   9649      1    1.0835e+02    3.2995e+02 ;   H11R - C111   - H11S  
  9648   9647   9650      1    1.1005e+02    3.8802e+02 ;   H11R - C111   - C110  
  9649   9647   9650      1    1.1005e+02    3.8802e+02 ;   H11S - C111   - C110  
  9650   9653   9654      1    1.1005e+02    3.8802e+02 ;   C110 - C19    - H9R   
  9650   9653   9655      1    1.1005e+02    3.8802e+02 ;   C110 - C19    - H9S   
  9650   9653   9656      1    1.1205e+02    3.9497e+02 ;   C110 - C19    - C18   
  9651   9650   9652      1    1.0835e+02    3.2995e+02 ;   H10R - C110   - H10S  
  9651   9650   9653      1    1.1005e+02    3.8802e+02 ;   H10R - C110   - C19   
  9652   9650   9653      1    1.1005e+02    3.8802e+02 ;   H10S - C110   - C19   
  9653   9656   9657      1    1.1005e+02    3.8802e+02 ;    C19 - C18    - H8R   
  9653   9656   9658      1    1.1005e+02    3.8802e+02 ;    C19 - C18    - H8S   
  9653   9656   9659      1    1.1205e+02    3.9497e+02 ;    C19 - C18    - C17   
  9654   9653   9655      1    1.0835e+02    3.2995e+02 ;    H9R - C19    - H9S   
  9654   9653   9656      1    1.1005e+02    3.8802e+02 ;    H9R - C19    - C18   
  9655   9653   9656      1    1.1005e+02    3.8802e+02 ;    H9S - C19    - C18   
  9656   9659   9660      1    1.1005e+02    3.8802e+02 ;    C18 - C17    - H7R   
  9656   9659   9661      1    1.1005e+02    3.8802e+02 ;    C18 - C17    - H7S   
  9656   9659   9662      1    1.1205e+02    3.9497e+02 ;    C18 - C17    - C16   
  9657   9656   9658      1    1.0835e+02    3.2995e+02 ;    H8R - C18    - H8S   
  9657   9656   9659      1    1.1005e+02    3.8802e+02 ;    H8R - C18    - C17   
  9658   9656   9659      1    1.1005e+02    3.8802e+02 ;    H8S - C18    - C17   
  9659   9662   9663      1    1.1005e+02    3.8802e+02 ;    C17 - C16    - H6R   
  9659   9662   9664      1    1.1005e+02    3.8802e+02 ;    C17 - C16    - H6S   
  9659   9662   9665      1    1.1205e+02    3.9497e+02 ;    C17 - C16    - C15   
  9660   9659   9661      1    1.0835e+02    3.2995e+02 ;    H7R - C17    - H7S   
  9660   9659   9662      1    1.1005e+02    3.8802e+02 ;    H7R - C17    - C16   
  9661   9659   9662      1    1.1005e+02    3.8802e+02 ;    H7S - C17    - C16   
  9662   9665   9666      1    1.1005e+02    3.8802e+02 ;    C16 - C15    - H5R   
  9662   9665   9667      1    1.1005e+02    3.8802e+02 ;    C16 - C15    - H5S   
  9662   9665   9668      1    1.1205e+02    3.9497e+02 ;    C16 - C15    - C14   
  9663   9662   9664      1    1.0835e+02    3.2995e+02 ;    H6R - C16    - H6S   
  9663   9662   9665      1    1.1005e+02    3.8802e+02 ;    H6R - C16    - C15   
  9664   9662   9665      1    1.1005e+02    3.8802e+02 ;    H6S - C16    - C15   
  9665   9668   9669      1    1.1005e+02    3.8802e+02 ;    C15 - C14    - H4R   
  9665   9668   9670      1    1.1005e+02    3.8802e+02 ;    C15 - C14    - H4S   
  9665   9668   9671      1    1.1205e+02    3.9497e+02 ;    C15 - C14    - C13   
  9666   9665   9667      1    1.0835e+02    3.2995e+02 ;    H5R - C15    - H5S   
  9666   9665   9668      1    1.1005e+02    3.8802e+02 ;    H5R - C15    - C14   
  9667   9665   9668      1    1.1005e+02    3.8802e+02 ;    H5S - C15    - C14   
  9668   9671   9672      1    1.1005e+02    3.8802e+02 ;    C14 - C13    - H3R   
  9668   9671   9673      1    1.1005e+02    3.8802e+02 ;    C14 - C13    - H3S   
  9668   9671   9674      1    1.1205e+02    3.9497e+02 ;    C14 - C13    - C12   
  9669   9668   9670      1    1.0835e+02    3.2995e+02 ;    H4R - C14    - H4S   
  9669   9668   9671      1    1.1005e+02    3.8802e+02 ;    H4R - C14    - C13   
  9670   9668   9671      1    1.1005e+02    3.8802e+02 ;    H4S - C14    - C13   
  9671   9674   9675      1    1.1005e+02    3.8802e+02 ;    C13 - C12    - H2R   
  9671   9674   9676      1    1.1005e+02    3.8802e+02 ;    C13 - C12    - H2S   
  9672   9671   9673      1    1.0835e+02    3.2995e+02 ;    H3R - C13    - H3S   
  9672   9671   9674      1    1.1005e+02    3.8802e+02 ;    H3R - C13    - C12   
  9673   9671   9674      1    1.1005e+02    3.8802e+02 ;    H3S - C13    - C12   
  9675   9674   9676      1    1.0835e+02    3.2995e+02 ;    H2R - C12    - H2S   
  9677   9678   9679      1    1.0835e+02    3.2995e+02 ;   H14T - C114   - H14R  
  9677   9678   9680      1    1.0835e+02    3.2995e+02 ;   H14T - C114   - H14S  
  9677   9678   9681      1    1.1005e+02    3.8802e+02 ;   H14T - C114   - C113  
  9678   9681   9682      1    1.1005e+02    3.8802e+02 ;   C114 - C113   - H13R  
  9678   9681   9683      1    1.1005e+02    3.8802e+02 ;   C114 - C113   - H13S  
  9678   9681   9684      1    1.1205e+02    3.9497e+02 ;   C114 - C113   - C112  
  9679   9678   9680      1    1.0835e+02    3.2995e+02 ;   H14R - C114   - H14S  
  9679   9678   9681      1    1.1005e+02    3.8802e+02 ;   H14R - C114   - C113  
  9680   9678   9681      1    1.1005e+02    3.8802e+02 ;   H14S - C114   - C113  
  9681   9684   9685      1    1.1005e+02    3.8802e+02 ;   C113 - C112   - H12R  
  9681   9684   9686      1    1.1005e+02    3.8802e+02 ;   C113 - C112   - H12S  
  9681   9684   9687      1    1.1205e+02    3.9497e+02 ;   C113 - C112   - C111  
  9682   9681   9683      1    1.0835e+02    3.2995e+02 ;   H13R - C113   - H13S  
  9682   9681   9684      1    1.1005e+02    3.8802e+02 ;   H13R - C113   - C112  
  9683   9681   9684      1    1.1005e+02    3.8802e+02 ;   H13S - C113   - C112  
  9684   9687   9688      1    1.1005e+02    3.8802e+02 ;   C112 - C111   - H11R  
  9684   9687   9689      1    1.1005e+02    3.8802e+02 ;   C112 - C111   - H11S  
  9684   9687   9690      1    1.1205e+02    3.9497e+02 ;   C112 - C111   - C110  
  9685   9684   9686      1    1.0835e+02    3.2995e+02 ;   H12R - C112   - H12S  
  9685   9684   9687      1    1.1005e+02    3.8802e+02 ;   H12R - C112   - C111  
  9686   9684   9687      1    1.1005e+02    3.8802e+02 ;   H12S - C112   - C111  
  9687   9690   9691      1    1.1005e+02    3.8802e+02 ;   C111 - C110   - H10R  
  9687   9690   9692      1    1.1005e+02    3.8802e+02 ;   C111 - C110   - H10S  
  9687   9690   9693      1    1.1205e+02    3.9497e+02 ;   C111 - C110   - C19   
  9688   9687   9689      1    1.0835e+02    3.2995e+02 ;   H11R - C111   - H11S  
  9688   9687   9690      1    1.1005e+02    3.8802e+02 ;   H11R - C111   - C110  
  9689   9687   9690      1    1.1005e+02    3.8802e+02 ;   H11S - C111   - C110  
  9690   9693   9694      1    1.1005e+02    3.8802e+02 ;   C110 - C19    - H9R   
  9690   9693   9695      1    1.1005e+02    3.8802e+02 ;   C110 - C19    - H9S   
  9690   9693   9696      1    1.1205e+02    3.9497e+02 ;   C110 - C19    - C18   
  9691   9690   9692      1    1.0835e+02    3.2995e+02 ;   H10R - C110   - H10S  
  9691   9690   9693      1    1.1005e+02    3.8802e+02 ;   H10R - C110   - C19   
  9692   9690   9693      1    1.1005e+02    3.8802e+02 ;   H10S - C110   - C19   
  9693   9696   9697      1    1.1005e+02    3.8802e+02 ;    C19 - C18    - H8R   
  9693   9696   9698      1    1.1005e+02    3.8802e+02 ;    C19 - C18    - H8S   
  9693   9696   9699      1    1.1205e+02    3.9497e+02 ;    C19 - C18    - C17   
  9694   9693   9695      1    1.0835e+02    3.2995e+02 ;    H9R - C19    - H9S   
  9694   9693   9696      1    1.1005e+02    3.8802e+02 ;    H9R - C19    - C18   
  9695   9693   9696      1    1.1005e+02    3.8802e+02 ;    H9S - C19    - C18   
  9696   9699   9700      1    1.1005e+02    3.8802e+02 ;    C18 - C17    - H7R   
  9696   9699   9701      1    1.1005e+02    3.8802e+02 ;    C18 - C17    - H7S   
  9696   9699   9702      1    1.1205e+02    3.9497e+02 ;    C18 - C17    - C16   
  9697   9696   9698      1    1.0835e+02    3.2995e+02 ;    H8R - C18    - H8S   
  9697   9696   9699      1    1.1005e+02    3.8802e+02 ;    H8R - C18    - C17   
  9698   9696   9699      1    1.1005e+02    3.8802e+02 ;    H8S - C18    - C17   
  9699   9702   9703      1    1.1005e+02    3.8802e+02 ;    C17 - C16    - H6R   
  9699   9702   9704      1    1.1005e+02    3.8802e+02 ;    C17 - C16    - H6S   
  9699   9702   9705      1    1.1205e+02    3.9497e+02 ;    C17 - C16    - C15   
  9700   9699   9701      1    1.0835e+02    3.2995e+02 ;    H7R - C17    - H7S   
  9700   9699   9702      1    1.1005e+02    3.8802e+02 ;    H7R - C17    - C16   
  9701   9699   9702      1    1.1005e+02    3.8802e+02 ;    H7S - C17    - C16   
  9702   9705   9706      1    1.1005e+02    3.8802e+02 ;    C16 - C15    - H5R   
  9702   9705   9707      1    1.1005e+02    3.8802e+02 ;    C16 - C15    - H5S   
  9702   9705   9708      1    1.1205e+02    3.9497e+02 ;    C16 - C15    - C14   
  9703   9702   9704      1    1.0835e+02    3.2995e+02 ;    H6R - C16    - H6S   
  9703   9702   9705      1    1.1005e+02    3.8802e+02 ;    H6R - C16    - C15   
  9704   9702   9705      1    1.1005e+02    3.8802e+02 ;    H6S - C16    - C15   
  9705   9708   9709      1    1.1005e+02    3.8802e+02 ;    C15 - C14    - H4R   
  9705   9708   9710      1    1.1005e+02    3.8802e+02 ;    C15 - C14    - H4S   
  9705   9708   9711      1    1.1205e+02    3.9497e+02 ;    C15 - C14    - C13   
  9706   9705   9707      1    1.0835e+02    3.2995e+02 ;    H5R - C15    - H5S   
  9706   9705   9708      1    1.1005e+02    3.8802e+02 ;    H5R - C15    - C14   
  9707   9705   9708      1    1.1005e+02    3.8802e+02 ;    H5S - C15    - C14   
  9708   9711   9712      1    1.1005e+02    3.8802e+02 ;    C14 - C13    - H3R   
  9708   9711   9713      1    1.1005e+02    3.8802e+02 ;    C14 - C13    - H3S   
  9708   9711   9714      1    1.1205e+02    3.9497e+02 ;    C14 - C13    - C12   
  9709   9708   9710      1    1.0835e+02    3.2995e+02 ;    H4R - C14    - H4S   
  9709   9708   9711      1    1.1005e+02    3.8802e+02 ;    H4R - C14    - C13   
  9710   9708   9711      1    1.1005e+02    3.8802e+02 ;    H4S - C14    - C13   
  9711   9714   9715      1    1.1005e+02    3.8802e+02 ;    C13 - C12    - H2R   
  9711   9714   9716      1    1.1005e+02    3.8802e+02 ;    C13 - C12    - H2S   
  9711   9714   9717      1    1.1053e+02    5.3379e+02 ;    C13 - C12    - C11   
  9712   9711   9713      1    1.0835e+02    3.2995e+02 ;    H3R - C13    - H3S   
  9712   9711   9714      1    1.1005e+02    3.8802e+02 ;    H3R - C13    - C12   
  9713   9711   9714      1    1.1005e+02    3.8802e+02 ;    H3S - C13    - C12   
  9714   9717   9718      1    1.2311e+02    5.6928e+02 ;    C12 - C11    - O12   
  9714   9717   9719      1    1.1196e+02    5.7957e+02 ;    C12 - C11    - O11   
  9715   9714   9716      1    1.0835e+02    3.2995e+02 ;    H2R - C12    - H2S   
  9715   9714   9717      1    1.0968e+02    3.9497e+02 ;    H2R - C12    - C11   
  9716   9714   9717      1    1.0968e+02    3.9497e+02 ;    H2S - C12    - C11   
  9717   9719   9720      1    1.1514e+02    5.3246e+02 ;    C11 - O11    - C1    
  9718   9717   9719      1    1.2333e+02    6.3538e+02 ;    O12 - C11    - O11   
  9719   9720   9721      1    1.0882e+02    4.2543e+02 ;    O11 - C1     - HR    
  9719   9720   9722      1    1.0882e+02    4.2543e+02 ;    O11 - C1     - HS    
  9719   9720   9723      1    1.0842e+02    5.6718e+02 ;    O11 - C1     - C2    
  9720   9723   9724      1    1.1007e+02    3.8794e+02 ;     C1 - C2     - HX    
  9720   9723   9725      1    1.1063e+02    5.2894e+02 ;     C1 - C2     - C3    
  9720   9723   9752      1    1.0842e+02    5.6718e+02 ;     C1 - C2     - O21   
  9721   9720   9722      1    1.0955e+02    3.2786e+02 ;     HR - C1     - HS    
  9721   9720   9723      1    1.1007e+02    3.8794e+02 ;     HR - C1     - C2    
  9722   9720   9723      1    1.1007e+02    3.8794e+02 ;     HS - C1     - C2    
  9723   9725   9726      1    1.1007e+02    3.8794e+02 ;     C2 - C3     - HA    
  9723   9725   9727      1    1.1007e+02    3.8794e+02 ;     C2 - C3     - HB    
  9723   9725   9728      1    1.0842e+02    5.6718e+02 ;     C2 - C3     - O31   
  9723   9752   9753      1    1.1514e+02    5.3246e+02 ;     C2 - O21    - C21   
  9724   9723   9725      1    1.1007e+02    3.8794e+02 ;     HX - C2     - C3    
  9724   9723   9752      1    1.0882e+02    4.2543e+02 ;     HX - C2     - O21   
  9725   9723   9752      1    1.0842e+02    5.6718e+02 ;     C3 - C2     - O21   
  9725   9728   9729      1    1.2050e+02    8.3680e+02 ;     C3 - O31    - P31   
  9726   9725   9727      1    1.0955e+02    3.2786e+02 ;     HA - C3     - HB    
  9726   9725   9728      1    1.0882e+02    4.2543e+02 ;     HA - C3     - O31   
  9727   9725   9728      1    1.0882e+02    4.2543e+02 ;     HB - C3     - O31   
  9728   9729   9730      1    1.0260e+02    7.5312e+02 ;    O31 - P31    - O32   
  9728   9729   9750      1    1.0823e+02    8.3680e+02 ;    O31 - P31    - O33   
  9728   9729   9751      1    1.0823e+02    8.3680e+02 ;    O31 - P31    - O34   
  9729   9730   9731      1    1.2050e+02    8.3680e+02 ;    P31 - O32    - C31   
  9730   9729   9750      1    1.0823e+02    8.3680e+02 ;    O32 - P31    - O33   
  9730   9729   9751      1    1.0823e+02    8.3680e+02 ;    O32 - P31    - O34   
  9730   9731   9732      1    1.0882e+02    4.2543e+02 ;    O32 - C31    - H1A   
  9730   9731   9733      1    1.0882e+02    4.2543e+02 ;    O32 - C31    - H1B   
  9730   9731   9734      1    1.0842e+02    5.6718e+02 ;    O32 - C31    - C32   
  9731   9734   9735      1    1.1174e+02    3.8510e+02 ;    C31 - C32    - H2A   
  9731   9734   9736      1    1.1174e+02    3.8510e+02 ;    C31 - C32    - H2B   
  9731   9734   9737      1    1.1432e+02    5.3932e+02 ;    C31 - C32    - N31   
  9732   9731   9733      1    1.0955e+02    3.2786e+02 ;    H1A - C31    - H1B   
  9732   9731   9734      1    1.1007e+02    3.8794e+02 ;    H1A - C31    - C32   
  9733   9731   9734      1    1.1007e+02    3.8794e+02 ;    H1B - C31    - C32   
  9734   9737   9738      1    1.1064e+02    5.2585e+02 ;    C32 - N31    - C33   
  9734   9737   9742      1    1.1064e+02    5.2585e+02 ;    C32 - N31    - C34   
  9734   9737   9746      1    1.1064e+02    5.2585e+02 ;    C32 - N31    - C35   
  9735   9734   9736      1    1.1074e+02    3.2669e+02 ;    H2A - C32    - H2B   
  9735   9734   9737      1    1.0791e+02    4.1020e+02 ;    H2A - C32    - N31   
  9736   9734   9737      1    1.0791e+02    4.1020e+02 ;    H2B - C32    - N31   
  9737   9738   9739      1    1.0791e+02    4.1020e+02 ;    N31 - C33    - H3A   
  9737   9738   9740      1    1.0791e+02    4.1020e+02 ;    N31 - C33    - H3B   
  9737   9738   9741      1    1.0791e+02    4.1020e+02 ;    N31 - C33    - H3C   
  9737   9742   9743      1    1.0791e+02    4.1020e+02 ;    N31 - C34    - H4A   
  9737   9742   9744      1    1.0791e+02    4.1020e+02 ;    N31 - C34    - H4B   
  9737   9742   9745      1    1.0791e+02    4.1020e+02 ;    N31 - C34    - H4C   
  9737   9746   9747      1    1.0791e+02    4.1020e+02 ;    N31 - C35    - H5A   
  9737   9746   9748      1    1.0791e+02    4.1020e+02 ;    N31 - C35    - H5B   
  9737   9746   9749      1    1.0791e+02    4.1020e+02 ;    N31 - C35    - H5C   
  9738   9737   9742      1    1.1064e+02    5.2585e+02 ;    C33 - N31    - C34   
  9738   9737   9746      1    1.1064e+02    5.2585e+02 ;    C33 - N31    - C35   
  9739   9738   9740      1    1.1074e+02    3.2669e+02 ;    H3A - C33    - H3B   
  9739   9738   9741      1    1.1074e+02    3.2669e+02 ;    H3A - C33    - H3C   
  9740   9738   9741      1    1.1074e+02    3.2669e+02 ;    H3B - C33    - H3C   
  9742   9737   9746      1    1.1064e+02    5.2585e+02 ;    C34 - N31    - C35   
  9743   9742   9744      1    1.1074e+02    3.2669e+02 ;    H4A - C34    - H4B   
  9743   9742   9745      1    1.1074e+02    3.2669e+02 ;    H4A - C34    - H4C   
  9744   9742   9745      1    1.1074e+02    3.2669e+02 ;    H4B - C34    - H4C   
  9747   9746   9748      1    1.1074e+02    3.2669e+02 ;    H5A - C35    - H5B   
  9747   9746   9749      1    1.1074e+02    3.2669e+02 ;    H5A - C35    - H5C   
  9748   9746   9749      1    1.1074e+02    3.2669e+02 ;    H5B - C35    - H5C   
  9750   9729   9751      1    1.1990e+02    1.1715e+03 ;    O33 - P31    - O34   
  9752   9753   9754      1    1.2333e+02    6.3538e+02 ;    O21 - C21    - O22   
  9752   9753   9792      1    1.1196e+02    5.7957e+02 ;    O21 - C21    - C12   
  9753   9792   9789      1    1.1053e+02    5.3379e+02 ;    C21 - C12    - C13   
  9753   9792   9793      1    1.0968e+02    3.9497e+02 ;    C21 - C12    - H2R   
  9753   9792   9794      1    1.0968e+02    3.9497e+02 ;    C21 - C12    - H2S   
  9754   9753   9792      1    1.2311e+02    5.6928e+02 ;    O22 - C21    - C12   
  9755   9756   9757      1    1.0835e+02    3.2995e+02 ;   H14T - C114   - H14R  
  9755   9756   9758      1    1.0835e+02    3.2995e+02 ;   H14T - C114   - H14S  
  9755   9756   9759      1    1.1005e+02    3.8802e+02 ;   H14T - C114   - C113  
  9756   9759   9760      1    1.1005e+02    3.8802e+02 ;   C114 - C113   - H13R  
  9756   9759   9761      1    1.1005e+02    3.8802e+02 ;   C114 - C113   - H13S  
  9756   9759   9762      1    1.1205e+02    3.9497e+02 ;   C114 - C113   - C112  
  9757   9756   9758      1    1.0835e+02    3.2995e+02 ;   H14R - C114   - H14S  
  9757   9756   9759      1    1.1005e+02    3.8802e+02 ;   H14R - C114   - C113  
  9758   9756   9759      1    1.1005e+02    3.8802e+02 ;   H14S - C114   - C113  
  9759   9762   9763      1    1.1005e+02    3.8802e+02 ;   C113 - C112   - H12R  
  9759   9762   9764      1    1.1005e+02    3.8802e+02 ;   C113 - C112   - H12S  
  9759   9762   9765      1    1.1205e+02    3.9497e+02 ;   C113 - C112   - C111  
  9760   9759   9761      1    1.0835e+02    3.2995e+02 ;   H13R - C113   - H13S  
  9760   9759   9762      1    1.1005e+02    3.8802e+02 ;   H13R - C113   - C112  
  9761   9759   9762      1    1.1005e+02    3.8802e+02 ;   H13S - C113   - C112  
  9762   9765   9766      1    1.1005e+02    3.8802e+02 ;   C112 - C111   - H11R  
  9762   9765   9767      1    1.1005e+02    3.8802e+02 ;   C112 - C111   - H11S  
  9762   9765   9768      1    1.1205e+02    3.9497e+02 ;   C112 - C111   - C110  
  9763   9762   9764      1    1.0835e+02    3.2995e+02 ;   H12R - C112   - H12S  
  9763   9762   9765      1    1.1005e+02    3.8802e+02 ;   H12R - C112   - C111  
  9764   9762   9765      1    1.1005e+02    3.8802e+02 ;   H12S - C112   - C111  
  9765   9768   9769      1    1.1005e+02    3.8802e+02 ;   C111 - C110   - H10R  
  9765   9768   9770      1    1.1005e+02    3.8802e+02 ;   C111 - C110   - H10S  
  9765   9768   9771      1    1.1205e+02    3.9497e+02 ;   C111 - C110   - C19   
  9766   9765   9767      1    1.0835e+02    3.2995e+02 ;   H11R - C111   - H11S  
  9766   9765   9768      1    1.1005e+02    3.8802e+02 ;   H11R - C111   - C110  
  9767   9765   9768      1    1.1005e+02    3.8802e+02 ;   H11S - C111   - C110  
  9768   9771   9772      1    1.1005e+02    3.8802e+02 ;   C110 - C19    - H9R   
  9768   9771   9773      1    1.1005e+02    3.8802e+02 ;   C110 - C19    - H9S   
  9768   9771   9774      1    1.1205e+02    3.9497e+02 ;   C110 - C19    - C18   
  9769   9768   9770      1    1.0835e+02    3.2995e+02 ;   H10R - C110   - H10S  
  9769   9768   9771      1    1.1005e+02    3.8802e+02 ;   H10R - C110   - C19   
  9770   9768   9771      1    1.1005e+02    3.8802e+02 ;   H10S - C110   - C19   
  9771   9774   9775      1    1.1005e+02    3.8802e+02 ;    C19 - C18    - H8R   
  9771   9774   9776      1    1.1005e+02    3.8802e+02 ;    C19 - C18    - H8S   
  9771   9774   9777      1    1.1205e+02    3.9497e+02 ;    C19 - C18    - C17   
  9772   9771   9773      1    1.0835e+02    3.2995e+02 ;    H9R - C19    - H9S   
  9772   9771   9774      1    1.1005e+02    3.8802e+02 ;    H9R - C19    - C18   
  9773   9771   9774      1    1.1005e+02    3.8802e+02 ;    H9S - C19    - C18   
  9774   9777   9778      1    1.1005e+02    3.8802e+02 ;    C18 - C17    - H7R   
  9774   9777   9779      1    1.1005e+02    3.8802e+02 ;    C18 - C17    - H7S   
  9774   9777   9780      1    1.1205e+02    3.9497e+02 ;    C18 - C17    - C16   
  9775   9774   9776      1    1.0835e+02    3.2995e+02 ;    H8R - C18    - H8S   
  9775   9774   9777      1    1.1005e+02    3.8802e+02 ;    H8R - C18    - C17   
  9776   9774   9777      1    1.1005e+02    3.8802e+02 ;    H8S - C18    - C17   
  9777   9780   9781      1    1.1005e+02    3.8802e+02 ;    C17 - C16    - H6R   
  9777   9780   9782      1    1.1005e+02    3.8802e+02 ;    C17 - C16    - H6S   
  9777   9780   9783      1    1.1205e+02    3.9497e+02 ;    C17 - C16    - C15   
  9778   9777   9779      1    1.0835e+02    3.2995e+02 ;    H7R - C17    - H7S   
  9778   9777   9780      1    1.1005e+02    3.8802e+02 ;    H7R - C17    - C16   
  9779   9777   9780      1    1.1005e+02    3.8802e+02 ;    H7S - C17    - C16   
  9780   9783   9784      1    1.1005e+02    3.8802e+02 ;    C16 - C15    - H5R   
  9780   9783   9785      1    1.1005e+02    3.8802e+02 ;    C16 - C15    - H5S   
  9780   9783   9786      1    1.1205e+02    3.9497e+02 ;    C16 - C15    - C14   
  9781   9780   9782      1    1.0835e+02    3.2995e+02 ;    H6R - C16    - H6S   
  9781   9780   9783      1    1.1005e+02    3.8802e+02 ;    H6R - C16    - C15   
  9782   9780   9783      1    1.1005e+02    3.8802e+02 ;    H6S - C16    - C15   
  9783   9786   9787      1    1.1005e+02    3.8802e+02 ;    C15 - C14    - H4R   
  9783   9786   9788      1    1.1005e+02    3.8802e+02 ;    C15 - C14    - H4S   
  9783   9786   9789      1    1.1205e+02    3.9497e+02 ;    C15 - C14    - C13   
  9784   9783   9785      1    1.0835e+02    3.2995e+02 ;    H5R - C15    - H5S   
  9784   9783   9786      1    1.1005e+02    3.8802e+02 ;    H5R - C15    - C14   
  9785   9783   9786      1    1.1005e+02    3.8802e+02 ;    H5S - C15    - C14   
  9786   9789   9790      1    1.1005e+02    3.8802e+02 ;    C14 - C13    - H3R   
  9786   9789   9791      1    1.1005e+02    3.8802e+02 ;    C14 - C13    - H3S   
  9786   9789   9792      1    1.1205e+02    3.9497e+02 ;    C14 - C13    - C12   
  9787   9786   9788      1    1.0835e+02    3.2995e+02 ;    H4R - C14    - H4S   
  9787   9786   9789      1    1.1005e+02    3.8802e+02 ;    H4R - C14    - C13   
  9788   9786   9789      1    1.1005e+02    3.8802e+02 ;    H4S - C14    - C13   
  9789   9792   9793      1    1.1005e+02    3.8802e+02 ;    C13 - C12    - H2R   
  9789   9792   9794      1    1.1005e+02    3.8802e+02 ;    C13 - C12    - H2S   
  9790   9789   9791      1    1.0835e+02    3.2995e+02 ;    H3R - C13    - H3S   
  9790   9789   9792      1    1.1005e+02    3.8802e+02 ;    H3R - C13    - C12   
  9791   9789   9792      1    1.1005e+02    3.8802e+02 ;    H3S - C13    - C12   
  9793   9792   9794      1    1.0835e+02    3.2995e+02 ;    H2R - C12    - H2S   
  9795   9796   9797      1    1.0835e+02    3.2995e+02 ;   H14T - C114   - H14R  
  9795   9796   9798      1    1.0835e+02    3.2995e+02 ;   H14T - C114   - H14S  
  9795   9796   9799      1    1.1005e+02    3.8802e+02 ;   H14T - C114   - C113  
  9796   9799   9800      1    1.1005e+02    3.8802e+02 ;   C114 - C113   - H13R  
  9796   9799   9801      1    1.1005e+02    3.8802e+02 ;   C114 - C113   - H13S  
  9796   9799   9802      1    1.1205e+02    3.9497e+02 ;   C114 - C113   - C112  
  9797   9796   9798      1    1.0835e+02    3.2995e+02 ;   H14R - C114   - H14S  
  9797   9796   9799      1    1.1005e+02    3.8802e+02 ;   H14R - C114   - C113  
  9798   9796   9799      1    1.1005e+02    3.8802e+02 ;   H14S - C114   - C113  
  9799   9802   9803      1    1.1005e+02    3.8802e+02 ;   C113 - C112   - H12R  
  9799   9802   9804      1    1.1005e+02    3.8802e+02 ;   C113 - C112   - H12S  
  9799   9802   9805      1    1.1205e+02    3.9497e+02 ;   C113 - C112   - C111  
  9800   9799   9801      1    1.0835e+02    3.2995e+02 ;   H13R - C113   - H13S  
  9800   9799   9802      1    1.1005e+02    3.8802e+02 ;   H13R - C113   - C112  
  9801   9799   9802      1    1.1005e+02    3.8802e+02 ;   H13S - C113   - C112  
  9802   9805   9806      1    1.1005e+02    3.8802e+02 ;   C112 - C111   - H11R  
  9802   9805   9807      1    1.1005e+02    3.8802e+02 ;   C112 - C111   - H11S  
  9802   9805   9808      1    1.1205e+02    3.9497e+02 ;   C112 - C111   - C110  
  9803   9802   9804      1    1.0835e+02    3.2995e+02 ;   H12R - C112   - H12S  
  9803   9802   9805      1    1.1005e+02    3.8802e+02 ;   H12R - C112   - C111  
  9804   9802   9805      1    1.1005e+02    3.8802e+02 ;   H12S - C112   - C111  
  9805   9808   9809      1    1.1005e+02    3.8802e+02 ;   C111 - C110   - H10R  
  9805   9808   9810      1    1.1005e+02    3.8802e+02 ;   C111 - C110   - H10S  
  9805   9808   9811      1    1.1205e+02    3.9497e+02 ;   C111 - C110   - C19   
  9806   9805   9807      1    1.0835e+02    3.2995e+02 ;   H11R - C111   - H11S  
  9806   9805   9808      1    1.1005e+02    3.8802e+02 ;   H11R - C111   - C110  
  9807   9805   9808      1    1.1005e+02    3.8802e+02 ;   H11S - C111   - C110  
  9808   9811   9812      1    1.1005e+02    3.8802e+02 ;   C110 - C19    - H9R   
  9808   9811   9813      1    1.1005e+02    3.8802e+02 ;   C110 - C19    - H9S   
  9808   9811   9814      1    1.1205e+02    3.9497e+02 ;   C110 - C19    - C18   
  9809   9808   9810      1    1.0835e+02    3.2995e+02 ;   H10R - C110   - H10S  
  9809   9808   9811      1    1.1005e+02    3.8802e+02 ;   H10R - C110   - C19   
  9810   9808   9811      1    1.1005e+02    3.8802e+02 ;   H10S - C110   - C19   
  9811   9814   9815      1    1.1005e+02    3.8802e+02 ;    C19 - C18    - H8R   
  9811   9814   9816      1    1.1005e+02    3.8802e+02 ;    C19 - C18    - H8S   
  9811   9814   9817      1    1.1205e+02    3.9497e+02 ;    C19 - C18    - C17   
  9812   9811   9813      1    1.0835e+02    3.2995e+02 ;    H9R - C19    - H9S   
  9812   9811   9814      1    1.1005e+02    3.8802e+02 ;    H9R - C19    - C18   
  9813   9811   9814      1    1.1005e+02    3.8802e+02 ;    H9S - C19    - C18   
  9814   9817   9818      1    1.1005e+02    3.8802e+02 ;    C18 - C17    - H7R   
  9814   9817   9819      1    1.1005e+02    3.8802e+02 ;    C18 - C17    - H7S   
  9814   9817   9820      1    1.1205e+02    3.9497e+02 ;    C18 - C17    - C16   
  9815   9814   9816      1    1.0835e+02    3.2995e+02 ;    H8R - C18    - H8S   
  9815   9814   9817      1    1.1005e+02    3.8802e+02 ;    H8R - C18    - C17   
  9816   9814   9817      1    1.1005e+02    3.8802e+02 ;    H8S - C18    - C17   
  9817   9820   9821      1    1.1005e+02    3.8802e+02 ;    C17 - C16    - H6R   
  9817   9820   9822      1    1.1005e+02    3.8802e+02 ;    C17 - C16    - H6S   
  9817   9820   9823      1    1.1205e+02    3.9497e+02 ;    C17 - C16    - C15   
  9818   9817   9819      1    1.0835e+02    3.2995e+02 ;    H7R - C17    - H7S   
  9818   9817   9820      1    1.1005e+02    3.8802e+02 ;    H7R - C17    - C16   
  9819   9817   9820      1    1.1005e+02    3.8802e+02 ;    H7S - C17    - C16   
  9820   9823   9824      1    1.1005e+02    3.8802e+02 ;    C16 - C15    - H5R   
  9820   9823   9825      1    1.1005e+02    3.8802e+02 ;    C16 - C15    - H5S   
  9820   9823   9826      1    1.1205e+02    3.9497e+02 ;    C16 - C15    - C14   
  9821   9820   9822      1    1.0835e+02    3.2995e+02 ;    H6R - C16    - H6S   
  9821   9820   9823      1    1.1005e+02    3.8802e+02 ;    H6R - C16    - C15   
  9822   9820   9823      1    1.1005e+02    3.8802e+02 ;    H6S - C16    - C15   
  9823   9826   9827      1    1.1005e+02    3.8802e+02 ;    C15 - C14    - H4R   
  9823   9826   9828      1    1.1005e+02    3.8802e+02 ;    C15 - C14    - H4S   
  9823   9826   9829      1    1.1205e+02    3.9497e+02 ;    C15 - C14    - C13   
  9824   9823   9825      1    1.0835e+02    3.2995e+02 ;    H5R - C15    - H5S   
  9824   9823   9826      1    1.1005e+02    3.8802e+02 ;    H5R - C15    - C14   
  9825   9823   9826      1    1.1005e+02    3.8802e+02 ;    H5S - C15    - C14   
  9826   9829   9830      1    1.1005e+02    3.8802e+02 ;    C14 - C13    - H3R   
  9826   9829   9831      1    1.1005e+02    3.8802e+02 ;    C14 - C13    - H3S   
  9826   9829   9832      1    1.1205e+02    3.9497e+02 ;    C14 - C13    - C12   
  9827   9826   9828      1    1.0835e+02    3.2995e+02 ;    H4R - C14    - H4S   
  9827   9826   9829      1    1.1005e+02    3.8802e+02 ;    H4R - C14    - C13   
  9828   9826   9829      1    1.1005e+02    3.8802e+02 ;    H4S - C14    - C13   
  9829   9832   9833      1    1.1005e+02    3.8802e+02 ;    C13 - C12    - H2R   
  9829   9832   9834      1    1.1005e+02    3.8802e+02 ;    C13 - C12    - H2S   
  9829   9832   9835      1    1.1053e+02    5.3379e+02 ;    C13 - C12    - C11   
  9830   9829   9831      1    1.0835e+02    3.2995e+02 ;    H3R - C13    - H3S   
  9830   9829   9832      1    1.1005e+02    3.8802e+02 ;    H3R - C13    - C12   
  9831   9829   9832      1    1.1005e+02    3.8802e+02 ;    H3S - C13    - C12   
  9832   9835   9836      1    1.2311e+02    5.6928e+02 ;    C12 - C11    - O12   
  9832   9835   9837      1    1.1196e+02    5.7957e+02 ;    C12 - C11    - O11   
  9833   9832   9834      1    1.0835e+02    3.2995e+02 ;    H2R - C12    - H2S   
  9833   9832   9835      1    1.0968e+02    3.9497e+02 ;    H2R - C12    - C11   
  9834   9832   9835      1    1.0968e+02    3.9497e+02 ;    H2S - C12    - C11   
  9835   9837   9838      1    1.1514e+02    5.3246e+02 ;    C11 - O11    - C1    
  9836   9835   9837      1    1.2333e+02    6.3538e+02 ;    O12 - C11    - O11   
  9837   9838   9839      1    1.0882e+02    4.2543e+02 ;    O11 - C1     - HR    
  9837   9838   9840      1    1.0882e+02    4.2543e+02 ;    O11 - C1     - HS    
  9837   9838   9841      1    1.0842e+02    5.6718e+02 ;    O11 - C1     - C2    
  9838   9841   9842      1    1.1007e+02    3.8794e+02 ;     C1 - C2     - HX    
  9838   9841   9843      1    1.1063e+02    5.2894e+02 ;     C1 - C2     - C3    
  9838   9841   9870      1    1.0842e+02    5.6718e+02 ;     C1 - C2     - O21   
  9839   9838   9840      1    1.0955e+02    3.2786e+02 ;     HR - C1     - HS    
  9839   9838   9841      1    1.1007e+02    3.8794e+02 ;     HR - C1     - C2    
  9840   9838   9841      1    1.1007e+02    3.8794e+02 ;     HS - C1     - C2    
  9841   9843   9844      1    1.1007e+02    3.8794e+02 ;     C2 - C3     - HA    
  9841   9843   9845      1    1.1007e+02    3.8794e+02 ;     C2 - C3     - HB    
  9841   9843   9846      1    1.0842e+02    5.6718e+02 ;     C2 - C3     - O31   
  9841   9870   9871      1    1.1514e+02    5.3246e+02 ;     C2 - O21    - C21   
  9842   9841   9843      1    1.1007e+02    3.8794e+02 ;     HX - C2     - C3    
  9842   9841   9870      1    1.0882e+02    4.2543e+02 ;     HX - C2     - O21   
  9843   9841   9870      1    1.0842e+02    5.6718e+02 ;     C3 - C2     - O21   
  9843   9846   9847      1    1.2050e+02    8.3680e+02 ;     C3 - O31    - P31   
  9844   9843   9845      1    1.0955e+02    3.2786e+02 ;     HA - C3     - HB    
  9844   9843   9846      1    1.0882e+02    4.2543e+02 ;     HA - C3     - O31   
  9845   9843   9846      1    1.0882e+02    4.2543e+02 ;     HB - C3     - O31   
  9846   9847   9848      1    1.0260e+02    7.5312e+02 ;    O31 - P31    - O32   
  9846   9847   9868      1    1.0823e+02    8.3680e+02 ;    O31 - P31    - O33   
  9846   9847   9869      1    1.0823e+02    8.3680e+02 ;    O31 - P31    - O34   
  9847   9848   9849      1    1.2050e+02    8.3680e+02 ;    P31 - O32    - C31   
  9848   9847   9868      1    1.0823e+02    8.3680e+02 ;    O32 - P31    - O33   
  9848   9847   9869      1    1.0823e+02    8.3680e+02 ;    O32 - P31    - O34   
  9848   9849   9850      1    1.0882e+02    4.2543e+02 ;    O32 - C31    - H1A   
  9848   9849   9851      1    1.0882e+02    4.2543e+02 ;    O32 - C31    - H1B   
  9848   9849   9852      1    1.0842e+02    5.6718e+02 ;    O32 - C31    - C32   
  9849   9852   9853      1    1.1174e+02    3.8510e+02 ;    C31 - C32    - H2A   
  9849   9852   9854      1    1.1174e+02    3.8510e+02 ;    C31 - C32    - H2B   
  9849   9852   9855      1    1.1432e+02    5.3932e+02 ;    C31 - C32    - N31   
  9850   9849   9851      1    1.0955e+02    3.2786e+02 ;    H1A - C31    - H1B   
  9850   9849   9852      1    1.1007e+02    3.8794e+02 ;    H1A - C31    - C32   
  9851   9849   9852      1    1.1007e+02    3.8794e+02 ;    H1B - C31    - C32   
  9852   9855   9856      1    1.1064e+02    5.2585e+02 ;    C32 - N31    - C33   
  9852   9855   9860      1    1.1064e+02    5.2585e+02 ;    C32 - N31    - C34   
  9852   9855   9864      1    1.1064e+02    5.2585e+02 ;    C32 - N31    - C35   
  9853   9852   9854      1    1.1074e+02    3.2669e+02 ;    H2A - C32    - H2B   
  9853   9852   9855      1    1.0791e+02    4.1020e+02 ;    H2A - C32    - N31   
  9854   9852   9855      1    1.0791e+02    4.1020e+02 ;    H2B - C32    - N31   
  9855   9856   9857      1    1.0791e+02    4.1020e+02 ;    N31 - C33    - H3A   
  9855   9856   9858      1    1.0791e+02    4.1020e+02 ;    N31 - C33    - H3B   
  9855   9856   9859      1    1.0791e+02    4.1020e+02 ;    N31 - C33    - H3C   
  9855   9860   9861      1    1.0791e+02    4.1020e+02 ;    N31 - C34    - H4A   
  9855   9860   9862      1    1.0791e+02    4.1020e+02 ;    N31 - C34    - H4B   
  9855   9860   9863      1    1.0791e+02    4.1020e+02 ;    N31 - C34    - H4C   
  9855   9864   9865      1    1.0791e+02    4.1020e+02 ;    N31 - C35    - H5A   
  9855   9864   9866      1    1.0791e+02    4.1020e+02 ;    N31 - C35    - H5B   
  9855   9864   9867      1    1.0791e+02    4.1020e+02 ;    N31 - C35    - H5C   
  9856   9855   9860      1    1.1064e+02    5.2585e+02 ;    C33 - N31    - C34   
  9856   9855   9864      1    1.1064e+02    5.2585e+02 ;    C33 - N31    - C35   
  9857   9856   9858      1    1.1074e+02    3.2669e+02 ;    H3A - C33    - H3B   
  9857   9856   9859      1    1.1074e+02    3.2669e+02 ;    H3A - C33    - H3C   
  9858   9856   9859      1    1.1074e+02    3.2669e+02 ;    H3B - C33    - H3C   
  9860   9855   9864      1    1.1064e+02    5.2585e+02 ;    C34 - N31    - C35   
  9861   9860   9862      1    1.1074e+02    3.2669e+02 ;    H4A - C34    - H4B   
  9861   9860   9863      1    1.1074e+02    3.2669e+02 ;    H4A - C34    - H4C   
  9862   9860   9863      1    1.1074e+02    3.2669e+02 ;    H4B - C34    - H4C   
  9865   9864   9866      1    1.1074e+02    3.2669e+02 ;    H5A - C35    - H5B   
  9865   9864   9867      1    1.1074e+02    3.2669e+02 ;    H5A - C35    - H5C   
  9866   9864   9867      1    1.1074e+02    3.2669e+02 ;    H5B - C35    - H5C   
  9868   9847   9869      1    1.1990e+02    1.1715e+03 ;    O33 - P31    - O34   
  9870   9871   9872      1    1.2333e+02    6.3538e+02 ;    O21 - C21    - O22   
  9870   9871   9910      1    1.1196e+02    5.7957e+02 ;    O21 - C21    - C12   
  9871   9910   9907      1    1.1053e+02    5.3379e+02 ;    C21 - C12    - C13   
  9871   9910   9911      1    1.0968e+02    3.9497e+02 ;    C21 - C12    - H2R   
  9871   9910   9912      1    1.0968e+02    3.9497e+02 ;    C21 - C12    - H2S   
  9872   9871   9910      1    1.2311e+02    5.6928e+02 ;    O22 - C21    - C12   
  9873   9874   9875      1    1.0835e+02    3.2995e+02 ;   H14T - C114   - H14R  
  9873   9874   9876      1    1.0835e+02    3.2995e+02 ;   H14T - C114   - H14S  
  9873   9874   9877      1    1.1005e+02    3.8802e+02 ;   H14T - C114   - C113  
  9874   9877   9878      1    1.1005e+02    3.8802e+02 ;   C114 - C113   - H13R  
  9874   9877   9879      1    1.1005e+02    3.8802e+02 ;   C114 - C113   - H13S  
  9874   9877   9880      1    1.1205e+02    3.9497e+02 ;   C114 - C113   - C112  
  9875   9874   9876      1    1.0835e+02    3.2995e+02 ;   H14R - C114   - H14S  
  9875   9874   9877      1    1.1005e+02    3.8802e+02 ;   H14R - C114   - C113  
  9876   9874   9877      1    1.1005e+02    3.8802e+02 ;   H14S - C114   - C113  
  9877   9880   9881      1    1.1005e+02    3.8802e+02 ;   C113 - C112   - H12R  
  9877   9880   9882      1    1.1005e+02    3.8802e+02 ;   C113 - C112   - H12S  
  9877   9880   9883      1    1.1205e+02    3.9497e+02 ;   C113 - C112   - C111  
  9878   9877   9879      1    1.0835e+02    3.2995e+02 ;   H13R - C113   - H13S  
  9878   9877   9880      1    1.1005e+02    3.8802e+02 ;   H13R - C113   - C112  
  9879   9877   9880      1    1.1005e+02    3.8802e+02 ;   H13S - C113   - C112  
  9880   9883   9884      1    1.1005e+02    3.8802e+02 ;   C112 - C111   - H11R  
  9880   9883   9885      1    1.1005e+02    3.8802e+02 ;   C112 - C111   - H11S  
  9880   9883   9886      1    1.1205e+02    3.9497e+02 ;   C112 - C111   - C110  
  9881   9880   9882      1    1.0835e+02    3.2995e+02 ;   H12R - C112   - H12S  
  9881   9880   9883      1    1.1005e+02    3.8802e+02 ;   H12R - C112   - C111  
  9882   9880   9883      1    1.1005e+02    3.8802e+02 ;   H12S - C112   - C111  
  9883   9886   9887      1    1.1005e+02    3.8802e+02 ;   C111 - C110   - H10R  
  9883   9886   9888      1    1.1005e+02    3.8802e+02 ;   C111 - C110   - H10S  
  9883   9886   9889      1    1.1205e+02    3.9497e+02 ;   C111 - C110   - C19   
  9884   9883   9885      1    1.0835e+02    3.2995e+02 ;   H11R - C111   - H11S  
  9884   9883   9886      1    1.1005e+02    3.8802e+02 ;   H11R - C111   - C110  
  9885   9883   9886      1    1.1005e+02    3.8802e+02 ;   H11S - C111   - C110  
  9886   9889   9890      1    1.1005e+02    3.8802e+02 ;   C110 - C19    - H9R   
  9886   9889   9891      1    1.1005e+02    3.8802e+02 ;   C110 - C19    - H9S   
  9886   9889   9892      1    1.1205e+02    3.9497e+02 ;   C110 - C19    - C18   
  9887   9886   9888      1    1.0835e+02    3.2995e+02 ;   H10R - C110   - H10S  
  9887   9886   9889      1    1.1005e+02    3.8802e+02 ;   H10R - C110   - C19   
  9888   9886   9889      1    1.1005e+02    3.8802e+02 ;   H10S - C110   - C19   
  9889   9892   9893      1    1.1005e+02    3.8802e+02 ;    C19 - C18    - H8R   
  9889   9892   9894      1    1.1005e+02    3.8802e+02 ;    C19 - C18    - H8S   
  9889   9892   9895      1    1.1205e+02    3.9497e+02 ;    C19 - C18    - C17   
  9890   9889   9891      1    1.0835e+02    3.2995e+02 ;    H9R - C19    - H9S   
  9890   9889   9892      1    1.1005e+02    3.8802e+02 ;    H9R - C19    - C18   
  9891   9889   9892      1    1.1005e+02    3.8802e+02 ;    H9S - C19    - C18   
  9892   9895   9896      1    1.1005e+02    3.8802e+02 ;    C18 - C17    - H7R   
  9892   9895   9897      1    1.1005e+02    3.8802e+02 ;    C18 - C17    - H7S   
  9892   9895   9898      1    1.1205e+02    3.9497e+02 ;    C18 - C17    - C16   
  9893   9892   9894      1    1.0835e+02    3.2995e+02 ;    H8R - C18    - H8S   
  9893   9892   9895      1    1.1005e+02    3.8802e+02 ;    H8R - C18    - C17   
  9894   9892   9895      1    1.1005e+02    3.8802e+02 ;    H8S - C18    - C17   
  9895   9898   9899      1    1.1005e+02    3.8802e+02 ;    C17 - C16    - H6R   
  9895   9898   9900      1    1.1005e+02    3.8802e+02 ;    C17 - C16    - H6S   
  9895   9898   9901      1    1.1205e+02    3.9497e+02 ;    C17 - C16    - C15   
  9896   9895   9897      1    1.0835e+02    3.2995e+02 ;    H7R - C17    - H7S   
  9896   9895   9898      1    1.1005e+02    3.8802e+02 ;    H7R - C17    - C16   
  9897   9895   9898      1    1.1005e+02    3.8802e+02 ;    H7S - C17    - C16   
  9898   9901   9902      1    1.1005e+02    3.8802e+02 ;    C16 - C15    - H5R   
  9898   9901   9903      1    1.1005e+02    3.8802e+02 ;    C16 - C15    - H5S   
  9898   9901   9904      1    1.1205e+02    3.9497e+02 ;    C16 - C15    - C14   
  9899   9898   9900      1    1.0835e+02    3.2995e+02 ;    H6R - C16    - H6S   
  9899   9898   9901      1    1.1005e+02    3.8802e+02 ;    H6R - C16    - C15   
  9900   9898   9901      1    1.1005e+02    3.8802e+02 ;    H6S - C16    - C15   
  9901   9904   9905      1    1.1005e+02    3.8802e+02 ;    C15 - C14    - H4R   
  9901   9904   9906      1    1.1005e+02    3.8802e+02 ;    C15 - C14    - H4S   
  9901   9904   9907      1    1.1205e+02    3.9497e+02 ;    C15 - C14    - C13   
  9902   9901   9903      1    1.0835e+02    3.2995e+02 ;    H5R - C15    - H5S   
  9902   9901   9904      1    1.1005e+02    3.8802e+02 ;    H5R - C15    - C14   
  9903   9901   9904      1    1.1005e+02    3.8802e+02 ;    H5S - C15    - C14   
  9904   9907   9908      1    1.1005e+02    3.8802e+02 ;    C14 - C13    - H3R   
  9904   9907   9909      1    1.1005e+02    3.8802e+02 ;    C14 - C13    - H3S   
  9904   9907   9910      1    1.1205e+02    3.9497e+02 ;    C14 - C13    - C12   
  9905   9904   9906      1    1.0835e+02    3.2995e+02 ;    H4R - C14    - H4S   
  9905   9904   9907      1    1.1005e+02    3.8802e+02 ;    H4R - C14    - C13   
  9906   9904   9907      1    1.1005e+02    3.8802e+02 ;    H4S - C14    - C13   
  9907   9910   9911      1    1.1005e+02    3.8802e+02 ;    C13 - C12    - H2R   
  9907   9910   9912      1    1.1005e+02    3.8802e+02 ;    C13 - C12    - H2S   
  9908   9907   9909      1    1.0835e+02    3.2995e+02 ;    H3R - C13    - H3S   
  9908   9907   9910      1    1.1005e+02    3.8802e+02 ;    H3R - C13    - C12   
  9909   9907   9910      1    1.1005e+02    3.8802e+02 ;    H3S - C13    - C12   
  9911   9910   9912      1    1.0835e+02    3.2995e+02 ;    H2R - C12    - H2S   
  9913   9914   9915      1    1.0835e+02    3.2995e+02 ;   H14T - C114   - H14R  
  9913   9914   9916      1    1.0835e+02    3.2995e+02 ;   H14T - C114   - H14S  
  9913   9914   9917      1    1.1005e+02    3.8802e+02 ;   H14T - C114   - C113  
  9914   9917   9918      1    1.1005e+02    3.8802e+02 ;   C114 - C113   - H13R  
  9914   9917   9919      1    1.1005e+02    3.8802e+02 ;   C114 - C113   - H13S  
  9914   9917   9920      1    1.1205e+02    3.9497e+02 ;   C114 - C113   - C112  
  9915   9914   9916      1    1.0835e+02    3.2995e+02 ;   H14R - C114   - H14S  
  9915   9914   9917      1    1.1005e+02    3.8802e+02 ;   H14R - C114   - C113  
  9916   9914   9917      1    1.1005e+02    3.8802e+02 ;   H14S - C114   - C113  
  9917   9920   9921      1    1.1005e+02    3.8802e+02 ;   C113 - C112   - H12R  
  9917   9920   9922      1    1.1005e+02    3.8802e+02 ;   C113 - C112   - H12S  
  9917   9920   9923      1    1.1205e+02    3.9497e+02 ;   C113 - C112   - C111  
  9918   9917   9919      1    1.0835e+02    3.2995e+02 ;   H13R - C113   - H13S  
  9918   9917   9920      1    1.1005e+02    3.8802e+02 ;   H13R - C113   - C112  
  9919   9917   9920      1    1.1005e+02    3.8802e+02 ;   H13S - C113   - C112  
  9920   9923   9924      1    1.1005e+02    3.8802e+02 ;   C112 - C111   - H11R  
  9920   9923   9925      1    1.1005e+02    3.8802e+02 ;   C112 - C111   - H11S  
  9920   9923   9926      1    1.1205e+02    3.9497e+02 ;   C112 - C111   - C110  
  9921   9920   9922      1    1.0835e+02    3.2995e+02 ;   H12R - C112   - H12S  
  9921   9920   9923      1    1.1005e+02    3.8802e+02 ;   H12R - C112   - C111  
  9922   9920   9923      1    1.1005e+02    3.8802e+02 ;   H12S - C112   - C111  
  9923   9926   9927      1    1.1005e+02    3.8802e+02 ;   C111 - C110   - H10R  
  9923   9926   9928      1    1.1005e+02    3.8802e+02 ;   C111 - C110   - H10S  
  9923   9926   9929      1    1.1205e+02    3.9497e+02 ;   C111 - C110   - C19   
  9924   9923   9925      1    1.0835e+02    3.2995e+02 ;   H11R - C111   - H11S  
  9924   9923   9926      1    1.1005e+02    3.8802e+02 ;   H11R - C111   - C110  
  9925   9923   9926      1    1.1005e+02    3.8802e+02 ;   H11S - C111   - C110  
  9926   9929   9930      1    1.1005e+02    3.8802e+02 ;   C110 - C19    - H9R   
  9926   9929   9931      1    1.1005e+02    3.8802e+02 ;   C110 - C19    - H9S   
  9926   9929   9932      1    1.1205e+02    3.9497e+02 ;   C110 - C19    - C18   
  9927   9926   9928      1    1.0835e+02    3.2995e+02 ;   H10R - C110   - H10S  
  9927   9926   9929      1    1.1005e+02    3.8802e+02 ;   H10R - C110   - C19   
  9928   9926   9929      1    1.1005e+02    3.8802e+02 ;   H10S - C110   - C19   
  9929   9932   9933      1    1.1005e+02    3.8802e+02 ;    C19 - C18    - H8R   
  9929   9932   9934      1    1.1005e+02    3.8802e+02 ;    C19 - C18    - H8S   
  9929   9932   9935      1    1.1205e+02    3.9497e+02 ;    C19 - C18    - C17   
  9930   9929   9931      1    1.0835e+02    3.2995e+02 ;    H9R - C19    - H9S   
  9930   9929   9932      1    1.1005e+02    3.8802e+02 ;    H9R - C19    - C18   
  9931   9929   9932      1    1.1005e+02    3.8802e+02 ;    H9S - C19    - C18   
  9932   9935   9936      1    1.1005e+02    3.8802e+02 ;    C18 - C17    - H7R   
  9932   9935   9937      1    1.1005e+02    3.8802e+02 ;    C18 - C17    - H7S   
  9932   9935   9938      1    1.1205e+02    3.9497e+02 ;    C18 - C17    - C16   
  9933   9932   9934      1    1.0835e+02    3.2995e+02 ;    H8R - C18    - H8S   
  9933   9932   9935      1    1.1005e+02    3.8802e+02 ;    H8R - C18    - C17   
  9934   9932   9935      1    1.1005e+02    3.8802e+02 ;    H8S - C18    - C17   
  9935   9938   9939      1    1.1005e+02    3.8802e+02 ;    C17 - C16    - H6R   
  9935   9938   9940      1    1.1005e+02    3.8802e+02 ;    C17 - C16    - H6S   
  9935   9938   9941      1    1.1205e+02    3.9497e+02 ;    C17 - C16    - C15   
  9936   9935   9937      1    1.0835e+02    3.2995e+02 ;    H7R - C17    - H7S   
  9936   9935   9938      1    1.1005e+02    3.8802e+02 ;    H7R - C17    - C16   
  9937   9935   9938      1    1.1005e+02    3.8802e+02 ;    H7S - C17    - C16   
  9938   9941   9942      1    1.1005e+02    3.8802e+02 ;    C16 - C15    - H5R   
  9938   9941   9943      1    1.1005e+02    3.8802e+02 ;    C16 - C15    - H5S   
  9938   9941   9944      1    1.1205e+02    3.9497e+02 ;    C16 - C15    - C14   
  9939   9938   9940      1    1.0835e+02    3.2995e+02 ;    H6R - C16    - H6S   
  9939   9938   9941      1    1.1005e+02    3.8802e+02 ;    H6R - C16    - C15   
  9940   9938   9941      1    1.1005e+02    3.8802e+02 ;    H6S - C16    - C15   
  9941   9944   9945      1    1.1005e+02    3.8802e+02 ;    C15 - C14    - H4R   
  9941   9944   9946      1    1.1005e+02    3.8802e+02 ;    C15 - C14    - H4S   
  9941   9944   9947      1    1.1205e+02    3.9497e+02 ;    C15 - C14    - C13   
  9942   9941   9943      1    1.0835e+02    3.2995e+02 ;    H5R - C15    - H5S   
  9942   9941   9944      1    1.1005e+02    3.8802e+02 ;    H5R - C15    - C14   
  9943   9941   9944      1    1.1005e+02    3.8802e+02 ;    H5S - C15    - C14   
  9944   9947   9948      1    1.1005e+02    3.8802e+02 ;    C14 - C13    - H3R   
  9944   9947   9949      1    1.1005e+02    3.8802e+02 ;    C14 - C13    - H3S   
  9944   9947   9950      1    1.1205e+02    3.9497e+02 ;    C14 - C13    - C12   
  9945   9944   9946      1    1.0835e+02    3.2995e+02 ;    H4R - C14    - H4S   
  9945   9944   9947      1    1.1005e+02    3.8802e+02 ;    H4R - C14    - C13   
  9946   9944   9947      1    1.1005e+02    3.8802e+02 ;    H4S - C14    - C13   
  9947   9950   9951      1    1.1005e+02    3.8802e+02 ;    C13 - C12    - H2R   
  9947   9950   9952      1    1.1005e+02    3.8802e+02 ;    C13 - C12    - H2S   
  9947   9950   9953      1    1.1053e+02    5.3379e+02 ;    C13 - C12    - C11   
  9948   9947   9949      1    1.0835e+02    3.2995e+02 ;    H3R - C13    - H3S   
  9948   9947   9950      1    1.1005e+02    3.8802e+02 ;    H3R - C13    - C12   
  9949   9947   9950      1    1.1005e+02    3.8802e+02 ;    H3S - C13    - C12   
  9950   9953   9954      1    1.2311e+02    5.6928e+02 ;    C12 - C11    - O12   
  9950   9953   9955      1    1.1196e+02    5.7957e+02 ;    C12 - C11    - O11   
  9951   9950   9952      1    1.0835e+02    3.2995e+02 ;    H2R - C12    - H2S   
  9951   9950   9953      1    1.0968e+02    3.9497e+02 ;    H2R - C12    - C11   
  9952   9950   9953      1    1.0968e+02    3.9497e+02 ;    H2S - C12    - C11   
  9953   9955   9956      1    1.1514e+02    5.3246e+02 ;    C11 - O11    - C1    
  9954   9953   9955      1    1.2333e+02    6.3538e+02 ;    O12 - C11    - O11   
  9955   9956   9957      1    1.0882e+02    4.2543e+02 ;    O11 - C1     - HR    
  9955   9956   9958      1    1.0882e+02    4.2543e+02 ;    O11 - C1     - HS    
  9955   9956   9959      1    1.0842e+02    5.6718e+02 ;    O11 - C1     - C2    
  9956   9959   9960      1    1.1007e+02    3.8794e+02 ;     C1 - C2     - HX    
  9956   9959   9961      1    1.1063e+02    5.2894e+02 ;     C1 - C2     - C3    
  9956   9959   9988      1    1.0842e+02    5.6718e+02 ;     C1 - C2     - O21   
  9957   9956   9958      1    1.0955e+02    3.2786e+02 ;     HR - C1     - HS    
  9957   9956   9959      1    1.1007e+02    3.8794e+02 ;     HR - C1     - C2    
  9958   9956   9959      1    1.1007e+02    3.8794e+02 ;     HS - C1     - C2    
  9959   9961   9962      1    1.1007e+02    3.8794e+02 ;     C2 - C3     - HA    
  9959   9961   9963      1    1.1007e+02    3.8794e+02 ;     C2 - C3     - HB    
  9959   9961   9964      1    1.0842e+02    5.6718e+02 ;     C2 - C3     - O31   
  9959   9988   9989      1    1.1514e+02    5.3246e+02 ;     C2 - O21    - C21   
  9960   9959   9961      1    1.1007e+02    3.8794e+02 ;     HX - C2     - C3    
  9960   9959   9988      1    1.0882e+02    4.2543e+02 ;     HX - C2     - O21   
  9961   9959   9988      1    1.0842e+02    5.6718e+02 ;     C3 - C2     - O21   
  9961   9964   9965      1    1.2050e+02    8.3680e+02 ;     C3 - O31    - P31   
  9962   9961   9963      1    1.0955e+02    3.2786e+02 ;     HA - C3     - HB    
  9962   9961   9964      1    1.0882e+02    4.2543e+02 ;     HA - C3     - O31   
  9963   9961   9964      1    1.0882e+02    4.2543e+02 ;     HB - C3     - O31   
  9964   9965   9966      1    1.0260e+02    7.5312e+02 ;    O31 - P31    - O32   
  9964   9965   9986      1    1.0823e+02    8.3680e+02 ;    O31 - P31    - O33   
  9964   9965   9987      1    1.0823e+02    8.3680e+02 ;    O31 - P31    - O34   
  9965   9966   9967      1    1.2050e+02    8.3680e+02 ;    P31 - O32    - C31   
  9966   9965   9986      1    1.0823e+02    8.3680e+02 ;    O32 - P31    - O33   
  9966   9965   9987      1    1.0823e+02    8.3680e+02 ;    O32 - P31    - O34   
  9966   9967   9968      1    1.0882e+02    4.2543e+02 ;    O32 - C31    - H1A   
  9966   9967   9969      1    1.0882e+02    4.2543e+02 ;    O32 - C31    - H1B   
  9966   9967   9970      1    1.0842e+02    5.6718e+02 ;    O32 - C31    - C32   
  9967   9970   9971      1    1.1174e+02    3.8510e+02 ;    C31 - C32    - H2A   
  9967   9970   9972      1    1.1174e+02    3.8510e+02 ;    C31 - C32    - H2B   
  9967   9970   9973      1    1.1432e+02    5.3932e+02 ;    C31 - C32    - N31   
  9968   9967   9969      1    1.0955e+02    3.2786e+02 ;    H1A - C31    - H1B   
  9968   9967   9970      1    1.1007e+02    3.8794e+02 ;    H1A - C31    - C32   
  9969   9967   9970      1    1.1007e+02    3.8794e+02 ;    H1B - C31    - C32   
  9970   9973   9974      1    1.1064e+02    5.2585e+02 ;    C32 - N31    - C33   
  9970   9973   9978      1    1.1064e+02    5.2585e+02 ;    C32 - N31    - C34   
  9970   9973   9982      1    1.1064e+02    5.2585e+02 ;    C32 - N31    - C35   
  9971   9970   9972      1    1.1074e+02    3.2669e+02 ;    H2A - C32    - H2B   
  9971   9970   9973      1    1.0791e+02    4.1020e+02 ;    H2A - C32    - N31   
  9972   9970   9973      1    1.0791e+02    4.1020e+02 ;    H2B - C32    - N31   
  9973   9974   9975      1    1.0791e+02    4.1020e+02 ;    N31 - C33    - H3A   
  9973   9974   9976      1    1.0791e+02    4.1020e+02 ;    N31 - C33    - H3B   
  9973   9974   9977      1    1.0791e+02    4.1020e+02 ;    N31 - C33    - H3C   
  9973   9978   9979      1    1.0791e+02    4.1020e+02 ;    N31 - C34    - H4A   
  9973   9978   9980      1    1.0791e+02    4.1020e+02 ;    N31 - C34    - H4B   
  9973   9978   9981      1    1.0791e+02    4.1020e+02 ;    N31 - C34    - H4C   
  9973   9982   9983      1    1.0791e+02    4.1020e+02 ;    N31 - C35    - H5A   
  9973   9982   9984      1    1.0791e+02    4.1020e+02 ;    N31 - C35    - H5B   
  9973   9982   9985      1    1.0791e+02    4.1020e+02 ;    N31 - C35    - H5C   
  9974   9973   9978      1    1.1064e+02    5.2585e+02 ;    C33 - N31    - C34   
  9974   9973   9982      1    1.1064e+02    5.2585e+02 ;    C33 - N31    - C35   
  9975   9974   9976      1    1.1074e+02    3.2669e+02 ;    H3A - C33    - H3B   
  9975   9974   9977      1    1.1074e+02    3.2669e+02 ;    H3A - C33    - H3C   
  9976   9974   9977      1    1.1074e+02    3.2669e+02 ;    H3B - C33    - H3C   
  9978   9973   9982      1    1.1064e+02    5.2585e+02 ;    C34 - N31    - C35   
  9979   9978   9980      1    1.1074e+02    3.2669e+02 ;    H4A - C34    - H4B   
  9979   9978   9981      1    1.1074e+02    3.2669e+02 ;    H4A - C34    - H4C   
  9980   9978   9981      1    1.1074e+02    3.2669e+02 ;    H4B - C34    - H4C   
  9983   9982   9984      1    1.1074e+02    3.2669e+02 ;    H5A - C35    - H5B   
  9983   9982   9985      1    1.1074e+02    3.2669e+02 ;    H5A - C35    - H5C   
  9984   9982   9985      1    1.1074e+02    3.2669e+02 ;    H5B - C35    - H5C   
  9986   9965   9987      1    1.1990e+02    1.1715e+03 ;    O33 - P31    - O34   
  9988   9989   9990      1    1.2333e+02    6.3538e+02 ;    O21 - C21    - O22   
  9988   9989  10028      1    1.1196e+02    5.7957e+02 ;    O21 - C21    - C12   
  9989  10028  10025      1    1.1053e+02    5.3379e+02 ;    C21 - C12    - C13   
  9989  10028  10029      1    1.0968e+02    3.9497e+02 ;    C21 - C12    - H2R   
  9989  10028  10030      1    1.0968e+02    3.9497e+02 ;    C21 - C12    - H2S   
  9990   9989  10028      1    1.2311e+02    5.6928e+02 ;    O22 - C21    - C12   
  9991   9992   9993      1    1.0835e+02    3.2995e+02 ;   H14T - C114   - H14R  
  9991   9992   9994      1    1.0835e+02    3.2995e+02 ;   H14T - C114   - H14S  
  9991   9992   9995      1    1.1005e+02    3.8802e+02 ;   H14T - C114   - C113  
  9992   9995   9996      1    1.1005e+02    3.8802e+02 ;   C114 - C113   - H13R  
  9992   9995   9997      1    1.1005e+02    3.8802e+02 ;   C114 - C113   - H13S  
  9992   9995   9998      1    1.1205e+02    3.9497e+02 ;   C114 - C113   - C112  
  9993   9992   9994      1    1.0835e+02    3.2995e+02 ;   H14R - C114   - H14S  
  9993   9992   9995      1    1.1005e+02    3.8802e+02 ;   H14R - C114   - C113  
  9994   9992   9995      1    1.1005e+02    3.8802e+02 ;   H14S - C114   - C113  
  9995   9998   9999      1    1.1005e+02    3.8802e+02 ;   C113 - C112   - H12R  
  9995   9998  10000      1    1.1005e+02    3.8802e+02 ;   C113 - C112   - H12S  
  9995   9998  10001      1    1.1205e+02    3.9497e+02 ;   C113 - C112   - C111  
  9996   9995   9997      1    1.0835e+02    3.2995e+02 ;   H13R - C113   - H13S  
  9996   9995   9998      1    1.1005e+02    3.8802e+02 ;   H13R - C113   - C112  
  9997   9995   9998      1    1.1005e+02    3.8802e+02 ;   H13S - C113   - C112  
  9998  10001  10002      1    1.1005e+02    3.8802e+02 ;   C112 - C111   - H11R  
  9998  10001  10003      1    1.1005e+02    3.8802e+02 ;   C112 - C111   - H11S  
  9998  10001  10004      1    1.1205e+02    3.9497e+02 ;   C112 - C111   - C110  
  9999   9998  10000      1    1.0835e+02    3.2995e+02 ;   H12R - C112   - H12S  
  9999   9998  10001      1    1.1005e+02    3.8802e+02 ;   H12R - C112   - C111  
 10000   9998  10001      1    1.1005e+02    3.8802e+02 ;   H12S - C112   - C111  
 10001  10004  10005      1    1.1005e+02    3.8802e+02 ;   C111 - C110   - H10R  
 10001  10004  10006      1    1.1005e+02    3.8802e+02 ;   C111 - C110   - H10S  
 10001  10004  10007      1    1.1205e+02    3.9497e+02 ;   C111 - C110   - C19   
 10002  10001  10003      1    1.0835e+02    3.2995e+02 ;   H11R - C111   - H11S  
 10002  10001  10004      1    1.1005e+02    3.8802e+02 ;   H11R - C111   - C110  
 10003  10001  10004      1    1.1005e+02    3.8802e+02 ;   H11S - C111   - C110  
 10004  10007  10008      1    1.1005e+02    3.8802e+02 ;   C110 - C19    - H9R   
 10004  10007  10009      1    1.1005e+02    3.8802e+02 ;   C110 - C19    - H9S   
 10004  10007  10010      1    1.1205e+02    3.9497e+02 ;   C110 - C19    - C18   
 10005  10004  10006      1    1.0835e+02    3.2995e+02 ;   H10R - C110   - H10S  
 10005  10004  10007      1    1.1005e+02    3.8802e+02 ;   H10R - C110   - C19   
 10006  10004  10007      1    1.1005e+02    3.8802e+02 ;   H10S - C110   - C19   
 10007  10010  10011      1    1.1005e+02    3.8802e+02 ;    C19 - C18    - H8R   
 10007  10010  10012      1    1.1005e+02    3.8802e+02 ;    C19 - C18    - H8S   
 10007  10010  10013      1    1.1205e+02    3.9497e+02 ;    C19 - C18    - C17   
 10008  10007  10009      1    1.0835e+02    3.2995e+02 ;    H9R - C19    - H9S   
 10008  10007  10010      1    1.1005e+02    3.8802e+02 ;    H9R - C19    - C18   
 10009  10007  10010      1    1.1005e+02    3.8802e+02 ;    H9S - C19    - C18   
 10010  10013  10014      1    1.1005e+02    3.8802e+02 ;    C18 - C17    - H7R   
 10010  10013  10015      1    1.1005e+02    3.8802e+02 ;    C18 - C17    - H7S   
 10010  10013  10016      1    1.1205e+02    3.9497e+02 ;    C18 - C17    - C16   
 10011  10010  10012      1    1.0835e+02    3.2995e+02 ;    H8R - C18    - H8S   
 10011  10010  10013      1    1.1005e+02    3.8802e+02 ;    H8R - C18    - C17   
 10012  10010  10013      1    1.1005e+02    3.8802e+02 ;    H8S - C18    - C17   
 10013  10016  10017      1    1.1005e+02    3.8802e+02 ;    C17 - C16    - H6R   
 10013  10016  10018      1    1.1005e+02    3.8802e+02 ;    C17 - C16    - H6S   
 10013  10016  10019      1    1.1205e+02    3.9497e+02 ;    C17 - C16    - C15   
 10014  10013  10015      1    1.0835e+02    3.2995e+02 ;    H7R - C17    - H7S   
 10014  10013  10016      1    1.1005e+02    3.8802e+02 ;    H7R - C17    - C16   
 10015  10013  10016      1    1.1005e+02    3.8802e+02 ;    H7S - C17    - C16   
 10016  10019  10020      1    1.1005e+02    3.8802e+02 ;    C16 - C15    - H5R   
 10016  10019  10021      1    1.1005e+02    3.8802e+02 ;    C16 - C15    - H5S   
 10016  10019  10022      1    1.1205e+02    3.9497e+02 ;    C16 - C15    - C14   
 10017  10016  10018      1    1.0835e+02    3.2995e+02 ;    H6R - C16    - H6S   
 10017  10016  10019      1    1.1005e+02    3.8802e+02 ;    H6R - C16    - C15   
 10018  10016  10019      1    1.1005e+02    3.8802e+02 ;    H6S - C16    - C15   
 10019  10022  10023      1    1.1005e+02    3.8802e+02 ;    C15 - C14    - H4R   
 10019  10022  10024      1    1.1005e+02    3.8802e+02 ;    C15 - C14    - H4S   
 10019  10022  10025      1    1.1205e+02    3.9497e+02 ;    C15 - C14    - C13   
 10020  10019  10021      1    1.0835e+02    3.2995e+02 ;    H5R - C15    - H5S   
 10020  10019  10022      1    1.1005e+02    3.8802e+02 ;    H5R - C15    - C14   
 10021  10019  10022      1    1.1005e+02    3.8802e+02 ;    H5S - C15    - C14   
 10022  10025  10026      1    1.1005e+02    3.8802e+02 ;    C14 - C13    - H3R   
 10022  10025  10027      1    1.1005e+02    3.8802e+02 ;    C14 - C13    - H3S   
 10022  10025  10028      1    1.1205e+02    3.9497e+02 ;    C14 - C13    - C12   
 10023  10022  10024      1    1.0835e+02    3.2995e+02 ;    H4R - C14    - H4S   
 10023  10022  10025      1    1.1005e+02    3.8802e+02 ;    H4R - C14    - C13   
 10024  10022  10025      1    1.1005e+02    3.8802e+02 ;    H4S - C14    - C13   
 10025  10028  10029      1    1.1005e+02    3.8802e+02 ;    C13 - C12    - H2R   
 10025  10028  10030      1    1.1005e+02    3.8802e+02 ;    C13 - C12    - H2S   
 10026  10025  10027      1    1.0835e+02    3.2995e+02 ;    H3R - C13    - H3S   
 10026  10025  10028      1    1.1005e+02    3.8802e+02 ;    H3R - C13    - C12   
 10027  10025  10028      1    1.1005e+02    3.8802e+02 ;    H3S - C13    - C12   
 10029  10028  10030      1    1.0835e+02    3.2995e+02 ;    H2R - C12    - H2S   
 10031  10032  10033      1    1.0835e+02    3.2995e+02 ;   H14T - C114   - H14R  
 10031  10032  10034      1    1.0835e+02    3.2995e+02 ;   H14T - C114   - H14S  
 10031  10032  10035      1    1.1005e+02    3.8802e+02 ;   H14T - C114   - C113  
 10032  10035  10036      1    1.1005e+02    3.8802e+02 ;   C114 - C113   - H13R  
 10032  10035  10037      1    1.1005e+02    3.8802e+02 ;   C114 - C113   - H13S  
 10032  10035  10038      1    1.1205e+02    3.9497e+02 ;   C114 - C113   - C112  
 10033  10032  10034      1    1.0835e+02    3.2995e+02 ;   H14R - C114   - H14S  
 10033  10032  10035      1    1.1005e+02    3.8802e+02 ;   H14R - C114   - C113  
 10034  10032  10035      1    1.1005e+02    3.8802e+02 ;   H14S - C114   - C113  
 10035  10038  10039      1    1.1005e+02    3.8802e+02 ;   C113 - C112   - H12R  
 10035  10038  10040      1    1.1005e+02    3.8802e+02 ;   C113 - C112   - H12S  
 10035  10038  10041      1    1.1205e+02    3.9497e+02 ;   C113 - C112   - C111  
 10036  10035  10037      1    1.0835e+02    3.2995e+02 ;   H13R - C113   - H13S  
 10036  10035  10038      1    1.1005e+02    3.8802e+02 ;   H13R - C113   - C112  
 10037  10035  10038      1    1.1005e+02    3.8802e+02 ;   H13S - C113   - C112  
 10038  10041  10042      1    1.1005e+02    3.8802e+02 ;   C112 - C111   - H11R  
 10038  10041  10043      1    1.1005e+02    3.8802e+02 ;   C112 - C111   - H11S  
 10038  10041  10044      1    1.1205e+02    3.9497e+02 ;   C112 - C111   - C110  
 10039  10038  10040      1    1.0835e+02    3.2995e+02 ;   H12R - C112   - H12S  
 10039  10038  10041      1    1.1005e+02    3.8802e+02 ;   H12R - C112   - C111  
 10040  10038  10041      1    1.1005e+02    3.8802e+02 ;   H12S - C112   - C111  
 10041  10044  10045      1    1.1005e+02    3.8802e+02 ;   C111 - C110   - H10R  
 10041  10044  10046      1    1.1005e+02    3.8802e+02 ;   C111 - C110   - H10S  
 10041  10044  10047      1    1.1205e+02    3.9497e+02 ;   C111 - C110   - C19   
 10042  10041  10043      1    1.0835e+02    3.2995e+02 ;   H11R - C111   - H11S  
 10042  10041  10044      1    1.1005e+02    3.8802e+02 ;   H11R - C111   - C110  
 10043  10041  10044      1    1.1005e+02    3.8802e+02 ;   H11S - C111   - C110  
 10044  10047  10048      1    1.1005e+02    3.8802e+02 ;   C110 - C19    - H9R   
 10044  10047  10049      1    1.1005e+02    3.8802e+02 ;   C110 - C19    - H9S   
 10044  10047  10050      1    1.1205e+02    3.9497e+02 ;   C110 - C19    - C18   
 10045  10044  10046      1    1.0835e+02    3.2995e+02 ;   H10R - C110   - H10S  
 10045  10044  10047      1    1.1005e+02    3.8802e+02 ;   H10R - C110   - C19   
 10046  10044  10047      1    1.1005e+02    3.8802e+02 ;   H10S - C110   - C19   
 10047  10050  10051      1    1.1005e+02    3.8802e+02 ;    C19 - C18    - H8R   
 10047  10050  10052      1    1.1005e+02    3.8802e+02 ;    C19 - C18    - H8S   
 10047  10050  10053      1    1.1205e+02    3.9497e+02 ;    C19 - C18    - C17   
 10048  10047  10049      1    1.0835e+02    3.2995e+02 ;    H9R - C19    - H9S   
 10048  10047  10050      1    1.1005e+02    3.8802e+02 ;    H9R - C19    - C18   
 10049  10047  10050      1    1.1005e+02    3.8802e+02 ;    H9S - C19    - C18   
 10050  10053  10054      1    1.1005e+02    3.8802e+02 ;    C18 - C17    - H7R   
 10050  10053  10055      1    1.1005e+02    3.8802e+02 ;    C18 - C17    - H7S   
 10050  10053  10056      1    1.1205e+02    3.9497e+02 ;    C18 - C17    - C16   
 10051  10050  10052      1    1.0835e+02    3.2995e+02 ;    H8R - C18    - H8S   
 10051  10050  10053      1    1.1005e+02    3.8802e+02 ;    H8R - C18    - C17   
 10052  10050  10053      1    1.1005e+02    3.8802e+02 ;    H8S - C18    - C17   
 10053  10056  10057      1    1.1005e+02    3.8802e+02 ;    C17 - C16    - H6R   
 10053  10056  10058      1    1.1005e+02    3.8802e+02 ;    C17 - C16    - H6S   
 10053  10056  10059      1    1.1205e+02    3.9497e+02 ;    C17 - C16    - C15   
 10054  10053  10055      1    1.0835e+02    3.2995e+02 ;    H7R - C17    - H7S   
 10054  10053  10056      1    1.1005e+02    3.8802e+02 ;    H7R - C17    - C16   
 10055  10053  10056      1    1.1005e+02    3.8802e+02 ;    H7S - C17    - C16   
 10056  10059  10060      1    1.1005e+02    3.8802e+02 ;    C16 - C15    - H5R   
 10056  10059  10061      1    1.1005e+02    3.8802e+02 ;    C16 - C15    - H5S   
 10056  10059  10062      1    1.1205e+02    3.9497e+02 ;    C16 - C15    - C14   
 10057  10056  10058      1    1.0835e+02    3.2995e+02 ;    H6R - C16    - H6S   
 10057  10056  10059      1    1.1005e+02    3.8802e+02 ;    H6R - C16    - C15   
 10058  10056  10059      1    1.1005e+02    3.8802e+02 ;    H6S - C16    - C15   
 10059  10062  10063      1    1.1005e+02    3.8802e+02 ;    C15 - C14    - H4R   
 10059  10062  10064      1    1.1005e+02    3.8802e+02 ;    C15 - C14    - H4S   
 10059  10062  10065      1    1.1205e+02    3.9497e+02 ;    C15 - C14    - C13   
 10060  10059  10061      1    1.0835e+02    3.2995e+02 ;    H5R - C15    - H5S   
 10060  10059  10062      1    1.1005e+02    3.8802e+02 ;    H5R - C15    - C14   
 10061  10059  10062      1    1.1005e+02    3.8802e+02 ;    H5S - C15    - C14   
 10062  10065  10066      1    1.1005e+02    3.8802e+02 ;    C14 - C13    - H3R   
 10062  10065  10067      1    1.1005e+02    3.8802e+02 ;    C14 - C13    - H3S   
 10062  10065  10068      1    1.1205e+02    3.9497e+02 ;    C14 - C13    - C12   
 10063  10062  10064      1    1.0835e+02    3.2995e+02 ;    H4R - C14    - H4S   
 10063  10062  10065      1    1.1005e+02    3.8802e+02 ;    H4R - C14    - C13   
 10064  10062  10065      1    1.1005e+02    3.8802e+02 ;    H4S - C14    - C13   
 10065  10068  10069      1    1.1005e+02    3.8802e+02 ;    C13 - C12    - H2R   
 10065  10068  10070      1    1.1005e+02    3.8802e+02 ;    C13 - C12    - H2S   
 10065  10068  10071      1    1.1053e+02    5.3379e+02 ;    C13 - C12    - C11   
 10066  10065  10067      1    1.0835e+02    3.2995e+02 ;    H3R - C13    - H3S   
 10066  10065  10068      1    1.1005e+02    3.8802e+02 ;    H3R - C13    - C12   
 10067  10065  10068      1    1.1005e+02    3.8802e+02 ;    H3S - C13    - C12   
 10068  10071  10072      1    1.2311e+02    5.6928e+02 ;    C12 - C11    - O12   
 10068  10071  10073      1    1.1196e+02    5.7957e+02 ;    C12 - C11    - O11   
 10069  10068  10070      1    1.0835e+02    3.2995e+02 ;    H2R - C12    - H2S   
 10069  10068  10071      1    1.0968e+02    3.9497e+02 ;    H2R - C12    - C11   
 10070  10068  10071      1    1.0968e+02    3.9497e+02 ;    H2S - C12    - C11   
 10071  10073  10074      1    1.1514e+02    5.3246e+02 ;    C11 - O11    - C1    
 10072  10071  10073      1    1.2333e+02    6.3538e+02 ;    O12 - C11    - O11   
 10073  10074  10075      1    1.0882e+02    4.2543e+02 ;    O11 - C1     - HR    
 10073  10074  10076      1    1.0882e+02    4.2543e+02 ;    O11 - C1     - HS    
 10073  10074  10077      1    1.0842e+02    5.6718e+02 ;    O11 - C1     - C2    
 10074  10077  10078      1    1.1007e+02    3.8794e+02 ;     C1 - C2     - HX    
 10074  10077  10079      1    1.1063e+02    5.2894e+02 ;     C1 - C2     - C3    
 10074  10077  10106      1    1.0842e+02    5.6718e+02 ;     C1 - C2     - O21   
 10075  10074  10076      1    1.0955e+02    3.2786e+02 ;     HR - C1     - HS    
 10075  10074  10077      1    1.1007e+02    3.8794e+02 ;     HR - C1     - C2    
 10076  10074  10077      1    1.1007e+02    3.8794e+02 ;     HS - C1     - C2    
 10077  10079  10080      1    1.1007e+02    3.8794e+02 ;     C2 - C3     - HA    
 10077  10079  10081      1    1.1007e+02    3.8794e+02 ;     C2 - C3     - HB    
 10077  10079  10082      1    1.0842e+02    5.6718e+02 ;     C2 - C3     - O31   
 10077  10106  10107      1    1.1514e+02    5.3246e+02 ;     C2 - O21    - C21   
 10078  10077  10079      1    1.1007e+02    3.8794e+02 ;     HX - C2     - C3    
 10078  10077  10106      1    1.0882e+02    4.2543e+02 ;     HX - C2     - O21   
 10079  10077  10106      1    1.0842e+02    5.6718e+02 ;     C3 - C2     - O21   
 10079  10082  10083      1    1.2050e+02    8.3680e+02 ;     C3 - O31    - P31   
 10080  10079  10081      1    1.0955e+02    3.2786e+02 ;     HA - C3     - HB    
 10080  10079  10082      1    1.0882e+02    4.2543e+02 ;     HA - C3     - O31   
 10081  10079  10082      1    1.0882e+02    4.2543e+02 ;     HB - C3     - O31   
 10082  10083  10084      1    1.0260e+02    7.5312e+02 ;    O31 - P31    - O32   
 10082  10083  10104      1    1.0823e+02    8.3680e+02 ;    O31 - P31    - O33   
 10082  10083  10105      1    1.0823e+02    8.3680e+02 ;    O31 - P31    - O34   
 10083  10084  10085      1    1.2050e+02    8.3680e+02 ;    P31 - O32    - C31   
 10084  10083  10104      1    1.0823e+02    8.3680e+02 ;    O32 - P31    - O33   
 10084  10083  10105      1    1.0823e+02    8.3680e+02 ;    O32 - P31    - O34   
 10084  10085  10086      1    1.0882e+02    4.2543e+02 ;    O32 - C31    - H1A   
 10084  10085  10087      1    1.0882e+02    4.2543e+02 ;    O32 - C31    - H1B   
 10084  10085  10088      1    1.0842e+02    5.6718e+02 ;    O32 - C31    - C32   
 10085  10088  10089      1    1.1174e+02    3.8510e+02 ;    C31 - C32    - H2A   
 10085  10088  10090      1    1.1174e+02    3.8510e+02 ;    C31 - C32    - H2B   
 10085  10088  10091      1    1.1432e+02    5.3932e+02 ;    C31 - C32    - N31   
 10086  10085  10087      1    1.0955e+02    3.2786e+02 ;    H1A - C31    - H1B   
 10086  10085  10088      1    1.1007e+02    3.8794e+02 ;    H1A - C31    - C32   
 10087  10085  10088      1    1.1007e+02    3.8794e+02 ;    H1B - C31    - C32   
 10088  10091  10092      1    1.1064e+02    5.2585e+02 ;    C32 - N31    - C33   
 10088  10091  10096      1    1.1064e+02    5.2585e+02 ;    C32 - N31    - C34   
 10088  10091  10100      1    1.1064e+02    5.2585e+02 ;    C32 - N31    - C35   
 10089  10088  10090      1    1.1074e+02    3.2669e+02 ;    H2A - C32    - H2B   
 10089  10088  10091      1    1.0791e+02    4.1020e+02 ;    H2A - C32    - N31   
 10090  10088  10091      1    1.0791e+02    4.1020e+02 ;    H2B - C32    - N31   
 10091  10092  10093      1    1.0791e+02    4.1020e+02 ;    N31 - C33    - H3A   
 10091  10092  10094      1    1.0791e+02    4.1020e+02 ;    N31 - C33    - H3B   
 10091  10092  10095      1    1.0791e+02    4.1020e+02 ;    N31 - C33    - H3C   
 10091  10096  10097      1    1.0791e+02    4.1020e+02 ;    N31 - C34    - H4A   
 10091  10096  10098      1    1.0791e+02    4.1020e+02 ;    N31 - C34    - H4B   
 10091  10096  10099      1    1.0791e+02    4.1020e+02 ;    N31 - C34    - H4C   
 10091  10100  10101      1    1.0791e+02    4.1020e+02 ;    N31 - C35    - H5A   
 10091  10100  10102      1    1.0791e+02    4.1020e+02 ;    N31 - C35    - H5B   
 10091  10100  10103      1    1.0791e+02    4.1020e+02 ;    N31 - C35    - H5C   
 10092  10091  10096      1    1.1064e+02    5.2585e+02 ;    C33 - N31    - C34   
 10092  10091  10100      1    1.1064e+02    5.2585e+02 ;    C33 - N31    - C35   
 10093  10092  10094      1    1.1074e+02    3.2669e+02 ;    H3A - C33    - H3B   
 10093  10092  10095      1    1.1074e+02    3.2669e+02 ;    H3A - C33    - H3C   
 10094  10092  10095      1    1.1074e+02    3.2669e+02 ;    H3B - C33    - H3C   
 10096  10091  10100      1    1.1064e+02    5.2585e+02 ;    C34 - N31    - C35   
 10097  10096  10098      1    1.1074e+02    3.2669e+02 ;    H4A - C34    - H4B   
 10097  10096  10099      1    1.1074e+02    3.2669e+02 ;    H4A - C34    - H4C   
 10098  10096  10099      1    1.1074e+02    3.2669e+02 ;    H4B - C34    - H4C   
 10101  10100  10102      1    1.1074e+02    3.2669e+02 ;    H5A - C35    - H5B   
 10101  10100  10103      1    1.1074e+02    3.2669e+02 ;    H5A - C35    - H5C   
 10102  10100  10103      1    1.1074e+02    3.2669e+02 ;    H5B - C35    - H5C   
 10104  10083  10105      1    1.1990e+02    1.1715e+03 ;    O33 - P31    - O34   
 10106  10107  10108      1    1.2333e+02    6.3538e+02 ;    O21 - C21    - O22   
 10106  10107  10146      1    1.1196e+02    5.7957e+02 ;    O21 - C21    - C12   
 10107  10146  10143      1    1.1053e+02    5.3379e+02 ;    C21 - C12    - C13   
 10107  10146  10147      1    1.0968e+02    3.9497e+02 ;    C21 - C12    - H2R   
 10107  10146  10148      1    1.0968e+02    3.9497e+02 ;    C21 - C12    - H2S   
 10108  10107  10146      1    1.2311e+02    5.6928e+02 ;    O22 - C21    - C12   
 10109  10110  10111      1    1.0835e+02    3.2995e+02 ;   H14T - C114   - H14R  
 10109  10110  10112      1    1.0835e+02    3.2995e+02 ;   H14T - C114   - H14S  
 10109  10110  10113      1    1.1005e+02    3.8802e+02 ;   H14T - C114   - C113  
 10110  10113  10114      1    1.1005e+02    3.8802e+02 ;   C114 - C113   - H13R  
 10110  10113  10115      1    1.1005e+02    3.8802e+02 ;   C114 - C113   - H13S  
 10110  10113  10116      1    1.1205e+02    3.9497e+02 ;   C114 - C113   - C112  
 10111  10110  10112      1    1.0835e+02    3.2995e+02 ;   H14R - C114   - H14S  
 10111  10110  10113      1    1.1005e+02    3.8802e+02 ;   H14R - C114   - C113  
 10112  10110  10113      1    1.1005e+02    3.8802e+02 ;   H14S - C114   - C113  
 10113  10116  10117      1    1.1005e+02    3.8802e+02 ;   C113 - C112   - H12R  
 10113  10116  10118      1    1.1005e+02    3.8802e+02 ;   C113 - C112   - H12S  
 10113  10116  10119      1    1.1205e+02    3.9497e+02 ;   C113 - C112   - C111  
 10114  10113  10115      1    1.0835e+02    3.2995e+02 ;   H13R - C113   - H13S  
 10114  10113  10116      1    1.1005e+02    3.8802e+02 ;   H13R - C113   - C112  
 10115  10113  10116      1    1.1005e+02    3.8802e+02 ;   H13S - C113   - C112  
 10116  10119  10120      1    1.1005e+02    3.8802e+02 ;   C112 - C111   - H11R  
 10116  10119  10121      1    1.1005e+02    3.8802e+02 ;   C112 - C111   - H11S  
 10116  10119  10122      1    1.1205e+02    3.9497e+02 ;   C112 - C111   - C110  
 10117  10116  10118      1    1.0835e+02    3.2995e+02 ;   H12R - C112   - H12S  
 10117  10116  10119      1    1.1005e+02    3.8802e+02 ;   H12R - C112   - C111  
 10118  10116  10119      1    1.1005e+02    3.8802e+02 ;   H12S - C112   - C111  
 10119  10122  10123      1    1.1005e+02    3.8802e+02 ;   C111 - C110   - H10R  
 10119  10122  10124      1    1.1005e+02    3.8802e+02 ;   C111 - C110   - H10S  
 10119  10122  10125      1    1.1205e+02    3.9497e+02 ;   C111 - C110   - C19   
 10120  10119  10121      1    1.0835e+02    3.2995e+02 ;   H11R - C111   - H11S  
 10120  10119  10122      1    1.1005e+02    3.8802e+02 ;   H11R - C111   - C110  
 10121  10119  10122      1    1.1005e+02    3.8802e+02 ;   H11S - C111   - C110  
 10122  10125  10126      1    1.1005e+02    3.8802e+02 ;   C110 - C19    - H9R   
 10122  10125  10127      1    1.1005e+02    3.8802e+02 ;   C110 - C19    - H9S   
 10122  10125  10128      1    1.1205e+02    3.9497e+02 ;   C110 - C19    - C18   
 10123  10122  10124      1    1.0835e+02    3.2995e+02 ;   H10R - C110   - H10S  
 10123  10122  10125      1    1.1005e+02    3.8802e+02 ;   H10R - C110   - C19   
 10124  10122  10125      1    1.1005e+02    3.8802e+02 ;   H10S - C110   - C19   
 10125  10128  10129      1    1.1005e+02    3.8802e+02 ;    C19 - C18    - H8R   
 10125  10128  10130      1    1.1005e+02    3.8802e+02 ;    C19 - C18    - H8S   
 10125  10128  10131      1    1.1205e+02    3.9497e+02 ;    C19 - C18    - C17   
 10126  10125  10127      1    1.0835e+02    3.2995e+02 ;    H9R - C19    - H9S   
 10126  10125  10128      1    1.1005e+02    3.8802e+02 ;    H9R - C19    - C18   
 10127  10125  10128      1    1.1005e+02    3.8802e+02 ;    H9S - C19    - C18   
 10128  10131  10132      1    1.1005e+02    3.8802e+02 ;    C18 - C17    - H7R   
 10128  10131  10133      1    1.1005e+02    3.8802e+02 ;    C18 - C17    - H7S   
 10128  10131  10134      1    1.1205e+02    3.9497e+02 ;    C18 - C17    - C16   
 10129  10128  10130      1    1.0835e+02    3.2995e+02 ;    H8R - C18    - H8S   
 10129  10128  10131      1    1.1005e+02    3.8802e+02 ;    H8R - C18    - C17   
 10130  10128  10131      1    1.1005e+02    3.8802e+02 ;    H8S - C18    - C17   
 10131  10134  10135      1    1.1005e+02    3.8802e+02 ;    C17 - C16    - H6R   
 10131  10134  10136      1    1.1005e+02    3.8802e+02 ;    C17 - C16    - H6S   
 10131  10134  10137      1    1.1205e+02    3.9497e+02 ;    C17 - C16    - C15   
 10132  10131  10133      1    1.0835e+02    3.2995e+02 ;    H7R - C17    - H7S   
 10132  10131  10134      1    1.1005e+02    3.8802e+02 ;    H7R - C17    - C16   
 10133  10131  10134      1    1.1005e+02    3.8802e+02 ;    H7S - C17    - C16   
 10134  10137  10138      1    1.1005e+02    3.8802e+02 ;    C16 - C15    - H5R   
 10134  10137  10139      1    1.1005e+02    3.8802e+02 ;    C16 - C15    - H5S   
 10134  10137  10140      1    1.1205e+02    3.9497e+02 ;    C16 - C15    - C14   
 10135  10134  10136      1    1.0835e+02    3.2995e+02 ;    H6R - C16    - H6S   
 10135  10134  10137      1    1.1005e+02    3.8802e+02 ;    H6R - C16    - C15   
 10136  10134  10137      1    1.1005e+02    3.8802e+02 ;    H6S - C16    - C15   
 10137  10140  10141      1    1.1005e+02    3.8802e+02 ;    C15 - C14    - H4R   
 10137  10140  10142      1    1.1005e+02    3.8802e+02 ;    C15 - C14    - H4S   
 10137  10140  10143      1    1.1205e+02    3.9497e+02 ;    C15 - C14    - C13   
 10138  10137  10139      1    1.0835e+02    3.2995e+02 ;    H5R - C15    - H5S   
 10138  10137  10140      1    1.1005e+02    3.8802e+02 ;    H5R - C15    - C14   
 10139  10137  10140      1    1.1005e+02    3.8802e+02 ;    H5S - C15    - C14   
 10140  10143  10144      1    1.1005e+02    3.8802e+02 ;    C14 - C13    - H3R   
 10140  10143  10145      1    1.1005e+02    3.8802e+02 ;    C14 - C13    - H3S   
 10140  10143  10146      1    1.1205e+02    3.9497e+02 ;    C14 - C13    - C12   
 10141  10140  10142      1    1.0835e+02    3.2995e+02 ;    H4R - C14    - H4S   
 10141  10140  10143      1    1.1005e+02    3.8802e+02 ;    H4R - C14    - C13   
 10142  10140  10143      1    1.1005e+02    3.8802e+02 ;    H4S - C14    - C13   
 10143  10146  10147      1    1.1005e+02    3.8802e+02 ;    C13 - C12    - H2R   
 10143  10146  10148      1    1.1005e+02    3.8802e+02 ;    C13 - C12    - H2S   
 10144  10143  10145      1    1.0835e+02    3.2995e+02 ;    H3R - C13    - H3S   
 10144  10143  10146      1    1.1005e+02    3.8802e+02 ;    H3R - C13    - C12   
 10145  10143  10146      1    1.1005e+02    3.8802e+02 ;    H3S - C13    - C12   
 10147  10146  10148      1    1.0835e+02    3.2995e+02 ;    H2R - C12    - H2S   
 10149  10150  10151      1    1.0835e+02    3.2995e+02 ;   H14T - C114   - H14R  
 10149  10150  10152      1    1.0835e+02    3.2995e+02 ;   H14T - C114   - H14S  
 10149  10150  10153      1    1.1005e+02    3.8802e+02 ;   H14T - C114   - C113  
 10150  10153  10154      1    1.1005e+02    3.8802e+02 ;   C114 - C113   - H13R  
 10150  10153  10155      1    1.1005e+02    3.8802e+02 ;   C114 - C113   - H13S  
 10150  10153  10156      1    1.1205e+02    3.9497e+02 ;   C114 - C113   - C112  
 10151  10150  10152      1    1.0835e+02    3.2995e+02 ;   H14R - C114   - H14S  
 10151  10150  10153      1    1.1005e+02    3.8802e+02 ;   H14R - C114   - C113  
 10152  10150  10153      1    1.1005e+02    3.8802e+02 ;   H14S - C114   - C113  
 10153  10156  10157      1    1.1005e+02    3.8802e+02 ;   C113 - C112   - H12R  
 10153  10156  10158      1    1.1005e+02    3.8802e+02 ;   C113 - C112   - H12S  
 10153  10156  10159      1    1.1205e+02    3.9497e+02 ;   C113 - C112   - C111  
 10154  10153  10155      1    1.0835e+02    3.2995e+02 ;   H13R - C113   - H13S  
 10154  10153  10156      1    1.1005e+02    3.8802e+02 ;   H13R - C113   - C112  
 10155  10153  10156      1    1.1005e+02    3.8802e+02 ;   H13S - C113   - C112  
 10156  10159  10160      1    1.1005e+02    3.8802e+02 ;   C112 - C111   - H11R  
 10156  10159  10161      1    1.1005e+02    3.8802e+02 ;   C112 - C111   - H11S  
 10156  10159  10162      1    1.1205e+02    3.9497e+02 ;   C112 - C111   - C110  
 10157  10156  10158      1    1.0835e+02    3.2995e+02 ;   H12R - C112   - H12S  
 10157  10156  10159      1    1.1005e+02    3.8802e+02 ;   H12R - C112   - C111  
 10158  10156  10159      1    1.1005e+02    3.8802e+02 ;   H12S - C112   - C111  
 10159  10162  10163      1    1.1005e+02    3.8802e+02 ;   C111 - C110   - H10R  
 10159  10162  10164      1    1.1005e+02    3.8802e+02 ;   C111 - C110   - H10S  
 10159  10162  10165      1    1.1205e+02    3.9497e+02 ;   C111 - C110   - C19   
 10160  10159  10161      1    1.0835e+02    3.2995e+02 ;   H11R - C111   - H11S  
 10160  10159  10162      1    1.1005e+02    3.8802e+02 ;   H11R - C111   - C110  
 10161  10159  10162      1    1.1005e+02    3.8802e+02 ;   H11S - C111   - C110  
 10162  10165  10166      1    1.1005e+02    3.8802e+02 ;   C110 - C19    - H9R   
 10162  10165  10167      1    1.1005e+02    3.8802e+02 ;   C110 - C19    - H9S   
 10162  10165  10168      1    1.1205e+02    3.9497e+02 ;   C110 - C19    - C18   
 10163  10162  10164      1    1.0835e+02    3.2995e+02 ;   H10R - C110   - H10S  
 10163  10162  10165      1    1.1005e+02    3.8802e+02 ;   H10R - C110   - C19   
 10164  10162  10165      1    1.1005e+02    3.8802e+02 ;   H10S - C110   - C19   
 10165  10168  10169      1    1.1005e+02    3.8802e+02 ;    C19 - C18    - H8R   
 10165  10168  10170      1    1.1005e+02    3.8802e+02 ;    C19 - C18    - H8S   
 10165  10168  10171      1    1.1205e+02    3.9497e+02 ;    C19 - C18    - C17   
 10166  10165  10167      1    1.0835e+02    3.2995e+02 ;    H9R - C19    - H9S   
 10166  10165  10168      1    1.1005e+02    3.8802e+02 ;    H9R - C19    - C18   
 10167  10165  10168      1    1.1005e+02    3.8802e+02 ;    H9S - C19    - C18   
 10168  10171  10172      1    1.1005e+02    3.8802e+02 ;    C18 - C17    - H7R   
 10168  10171  10173      1    1.1005e+02    3.8802e+02 ;    C18 - C17    - H7S   
 10168  10171  10174      1    1.1205e+02    3.9497e+02 ;    C18 - C17    - C16   
 10169  10168  10170      1    1.0835e+02    3.2995e+02 ;    H8R - C18    - H8S   
 10169  10168  10171      1    1.1005e+02    3.8802e+02 ;    H8R - C18    - C17   
 10170  10168  10171      1    1.1005e+02    3.8802e+02 ;    H8S - C18    - C17   
 10171  10174  10175      1    1.1005e+02    3.8802e+02 ;    C17 - C16    - H6R   
 10171  10174  10176      1    1.1005e+02    3.8802e+02 ;    C17 - C16    - H6S   
 10171  10174  10177      1    1.1205e+02    3.9497e+02 ;    C17 - C16    - C15   
 10172  10171  10173      1    1.0835e+02    3.2995e+02 ;    H7R - C17    - H7S   
 10172  10171  10174      1    1.1005e+02    3.8802e+02 ;    H7R - C17    - C16   
 10173  10171  10174      1    1.1005e+02    3.8802e+02 ;    H7S - C17    - C16   
 10174  10177  10178      1    1.1005e+02    3.8802e+02 ;    C16 - C15    - H5R   
 10174  10177  10179      1    1.1005e+02    3.8802e+02 ;    C16 - C15    - H5S   
 10174  10177  10180      1    1.1205e+02    3.9497e+02 ;    C16 - C15    - C14   
 10175  10174  10176      1    1.0835e+02    3.2995e+02 ;    H6R - C16    - H6S   
 10175  10174  10177      1    1.1005e+02    3.8802e+02 ;    H6R - C16    - C15   
 10176  10174  10177      1    1.1005e+02    3.8802e+02 ;    H6S - C16    - C15   
 10177  10180  10181      1    1.1005e+02    3.8802e+02 ;    C15 - C14    - H4R   
 10177  10180  10182      1    1.1005e+02    3.8802e+02 ;    C15 - C14    - H4S   
 10177  10180  10183      1    1.1205e+02    3.9497e+02 ;    C15 - C14    - C13   
 10178  10177  10179      1    1.0835e+02    3.2995e+02 ;    H5R - C15    - H5S   
 10178  10177  10180      1    1.1005e+02    3.8802e+02 ;    H5R - C15    - C14   
 10179  10177  10180      1    1.1005e+02    3.8802e+02 ;    H5S - C15    - C14   
 10180  10183  10184      1    1.1005e+02    3.8802e+02 ;    C14 - C13    - H3R   
 10180  10183  10185      1    1.1005e+02    3.8802e+02 ;    C14 - C13    - H3S   
 10180  10183  10186      1    1.1205e+02    3.9497e+02 ;    C14 - C13    - C12   
 10181  10180  10182      1    1.0835e+02    3.2995e+02 ;    H4R - C14    - H4S   
 10181  10180  10183      1    1.1005e+02    3.8802e+02 ;    H4R - C14    - C13   
 10182  10180  10183      1    1.1005e+02    3.8802e+02 ;    H4S - C14    - C13   
 10183  10186  10187      1    1.1005e+02    3.8802e+02 ;    C13 - C12    - H2R   
 10183  10186  10188      1    1.1005e+02    3.8802e+02 ;    C13 - C12    - H2S   
 10183  10186  10189      1    1.1053e+02    5.3379e+02 ;    C13 - C12    - C11   
 10184  10183  10185      1    1.0835e+02    3.2995e+02 ;    H3R - C13    - H3S   
 10184  10183  10186      1    1.1005e+02    3.8802e+02 ;    H3R - C13    - C12   
 10185  10183  10186      1    1.1005e+02    3.8802e+02 ;    H3S - C13    - C12   
 10186  10189  10190      1    1.2311e+02    5.6928e+02 ;    C12 - C11    - O12   
 10186  10189  10191      1    1.1196e+02    5.7957e+02 ;    C12 - C11    - O11   
 10187  10186  10188      1    1.0835e+02    3.2995e+02 ;    H2R - C12    - H2S   
 10187  10186  10189      1    1.0968e+02    3.9497e+02 ;    H2R - C12    - C11   
 10188  10186  10189      1    1.0968e+02    3.9497e+02 ;    H2S - C12    - C11   
 10189  10191  10192      1    1.1514e+02    5.3246e+02 ;    C11 - O11    - C1    
 10190  10189  10191      1    1.2333e+02    6.3538e+02 ;    O12 - C11    - O11   
 10191  10192  10193      1    1.0882e+02    4.2543e+02 ;    O11 - C1     - HR    
 10191  10192  10194      1    1.0882e+02    4.2543e+02 ;    O11 - C1     - HS    
 10191  10192  10195      1    1.0842e+02    5.6718e+02 ;    O11 - C1     - C2    
 10192  10195  10196      1    1.1007e+02    3.8794e+02 ;     C1 - C2     - HX    
 10192  10195  10197      1    1.1063e+02    5.2894e+02 ;     C1 - C2     - C3    
 10192  10195  10224      1    1.0842e+02    5.6718e+02 ;     C1 - C2     - O21   
 10193  10192  10194      1    1.0955e+02    3.2786e+02 ;     HR - C1     - HS    
 10193  10192  10195      1    1.1007e+02    3.8794e+02 ;     HR - C1     - C2    
 10194  10192  10195      1    1.1007e+02    3.8794e+02 ;     HS - C1     - C2    
 10195  10197  10198      1    1.1007e+02    3.8794e+02 ;     C2 - C3     - HA    
 10195  10197  10199      1    1.1007e+02    3.8794e+02 ;     C2 - C3     - HB    
 10195  10197  10200      1    1.0842e+02    5.6718e+02 ;     C2 - C3     - O31   
 10195  10224  10225      1    1.1514e+02    5.3246e+02 ;     C2 - O21    - C21   
 10196  10195  10197      1    1.1007e+02    3.8794e+02 ;     HX - C2     - C3    
 10196  10195  10224      1    1.0882e+02    4.2543e+02 ;     HX - C2     - O21   
 10197  10195  10224      1    1.0842e+02    5.6718e+02 ;     C3 - C2     - O21   
 10197  10200  10201      1    1.2050e+02    8.3680e+02 ;     C3 - O31    - P31   
 10198  10197  10199      1    1.0955e+02    3.2786e+02 ;     HA - C3     - HB    
 10198  10197  10200      1    1.0882e+02    4.2543e+02 ;     HA - C3     - O31   
 10199  10197  10200      1    1.0882e+02    4.2543e+02 ;     HB - C3     - O31   
 10200  10201  10202      1    1.0260e+02    7.5312e+02 ;    O31 - P31    - O32   
 10200  10201  10222      1    1.0823e+02    8.3680e+02 ;    O31 - P31    - O33   
 10200  10201  10223      1    1.0823e+02    8.3680e+02 ;    O31 - P31    - O34   
 10201  10202  10203      1    1.2050e+02    8.3680e+02 ;    P31 - O32    - C31   
 10202  10201  10222      1    1.0823e+02    8.3680e+02 ;    O32 - P31    - O33   
 10202  10201  10223      1    1.0823e+02    8.3680e+02 ;    O32 - P31    - O34   
 10202  10203  10204      1    1.0882e+02    4.2543e+02 ;    O32 - C31    - H1A   
 10202  10203  10205      1    1.0882e+02    4.2543e+02 ;    O32 - C31    - H1B   
 10202  10203  10206      1    1.0842e+02    5.6718e+02 ;    O32 - C31    - C32   
 10203  10206  10207      1    1.1174e+02    3.8510e+02 ;    C31 - C32    - H2A   
 10203  10206  10208      1    1.1174e+02    3.8510e+02 ;    C31 - C32    - H2B   
 10203  10206  10209      1    1.1432e+02    5.3932e+02 ;    C31 - C32    - N31   
 10204  10203  10205      1    1.0955e+02    3.2786e+02 ;    H1A - C31    - H1B   
 10204  10203  10206      1    1.1007e+02    3.8794e+02 ;    H1A - C31    - C32   
 10205  10203  10206      1    1.1007e+02    3.8794e+02 ;    H1B - C31    - C32   
 10206  10209  10210      1    1.1064e+02    5.2585e+02 ;    C32 - N31    - C33   
 10206  10209  10214      1    1.1064e+02    5.2585e+02 ;    C32 - N31    - C34   
 10206  10209  10218      1    1.1064e+02    5.2585e+02 ;    C32 - N31    - C35   
 10207  10206  10208      1    1.1074e+02    3.2669e+02 ;    H2A - C32    - H2B   
 10207  10206  10209      1    1.0791e+02    4.1020e+02 ;    H2A - C32    - N31   
 10208  10206  10209      1    1.0791e+02    4.1020e+02 ;    H2B - C32    - N31   
 10209  10210  10211      1    1.0791e+02    4.1020e+02 ;    N31 - C33    - H3A   
 10209  10210  10212      1    1.0791e+02    4.1020e+02 ;    N31 - C33    - H3B   
 10209  10210  10213      1    1.0791e+02    4.1020e+02 ;    N31 - C33    - H3C   
 10209  10214  10215      1    1.0791e+02    4.1020e+02 ;    N31 - C34    - H4A   
 10209  10214  10216      1    1.0791e+02    4.1020e+02 ;    N31 - C34    - H4B   
 10209  10214  10217      1    1.0791e+02    4.1020e+02 ;    N31 - C34    - H4C   
 10209  10218  10219      1    1.0791e+02    4.1020e+02 ;    N31 - C35    - H5A   
 10209  10218  10220      1    1.0791e+02    4.1020e+02 ;    N31 - C35    - H5B   
 10209  10218  10221      1    1.0791e+02    4.1020e+02 ;    N31 - C35    - H5C   
 10210  10209  10214      1    1.1064e+02    5.2585e+02 ;    C33 - N31    - C34   
 10210  10209  10218      1    1.1064e+02    5.2585e+02 ;    C33 - N31    - C35   
 10211  10210  10212      1    1.1074e+02    3.2669e+02 ;    H3A - C33    - H3B   
 10211  10210  10213      1    1.1074e+02    3.2669e+02 ;    H3A - C33    - H3C   
 10212  10210  10213      1    1.1074e+02    3.2669e+02 ;    H3B - C33    - H3C   
 10214  10209  10218      1    1.1064e+02    5.2585e+02 ;    C34 - N31    - C35   
 10215  10214  10216      1    1.1074e+02    3.2669e+02 ;    H4A - C34    - H4B   
 10215  10214  10217      1    1.1074e+02    3.2669e+02 ;    H4A - C34    - H4C   
 10216  10214  10217      1    1.1074e+02    3.2669e+02 ;    H4B - C34    - H4C   
 10219  10218  10220      1    1.1074e+02    3.2669e+02 ;    H5A - C35    - H5B   
 10219  10218  10221      1    1.1074e+02    3.2669e+02 ;    H5A - C35    - H5C   
 10220  10218  10221      1    1.1074e+02    3.2669e+02 ;    H5B - C35    - H5C   
 10222  10201  10223      1    1.1990e+02    1.1715e+03 ;    O33 - P31    - O34   
 10224  10225  10226      1    1.2333e+02    6.3538e+02 ;    O21 - C21    - O22   
 10224  10225  10264      1    1.1196e+02    5.7957e+02 ;    O21 - C21    - C12   
 10225  10264  10261      1    1.1053e+02    5.3379e+02 ;    C21 - C12    - C13   
 10225  10264  10265      1    1.0968e+02    3.9497e+02 ;    C21 - C12    - H2R   
 10225  10264  10266      1    1.0968e+02    3.9497e+02 ;    C21 - C12    - H2S   
 10226  10225  10264      1    1.2311e+02    5.6928e+02 ;    O22 - C21    - C12   
 10227  10228  10229      1    1.0835e+02    3.2995e+02 ;   H14T - C114   - H14R  
 10227  10228  10230      1    1.0835e+02    3.2995e+02 ;   H14T - C114   - H14S  
 10227  10228  10231      1    1.1005e+02    3.8802e+02 ;   H14T - C114   - C113  
 10228  10231  10232      1    1.1005e+02    3.8802e+02 ;   C114 - C113   - H13R  
 10228  10231  10233      1    1.1005e+02    3.8802e+02 ;   C114 - C113   - H13S  
 10228  10231  10234      1    1.1205e+02    3.9497e+02 ;   C114 - C113   - C112  
 10229  10228  10230      1    1.0835e+02    3.2995e+02 ;   H14R - C114   - H14S  
 10229  10228  10231      1    1.1005e+02    3.8802e+02 ;   H14R - C114   - C113  
 10230  10228  10231      1    1.1005e+02    3.8802e+02 ;   H14S - C114   - C113  
 10231  10234  10235      1    1.1005e+02    3.8802e+02 ;   C113 - C112   - H12R  
 10231  10234  10236      1    1.1005e+02    3.8802e+02 ;   C113 - C112   - H12S  
 10231  10234  10237      1    1.1205e+02    3.9497e+02 ;   C113 - C112   - C111  
 10232  10231  10233      1    1.0835e+02    3.2995e+02 ;   H13R - C113   - H13S  
 10232  10231  10234      1    1.1005e+02    3.8802e+02 ;   H13R - C113   - C112  
 10233  10231  10234      1    1.1005e+02    3.8802e+02 ;   H13S - C113   - C112  
 10234  10237  10238      1    1.1005e+02    3.8802e+02 ;   C112 - C111   - H11R  
 10234  10237  10239      1    1.1005e+02    3.8802e+02 ;   C112 - C111   - H11S  
 10234  10237  10240      1    1.1205e+02    3.9497e+02 ;   C112 - C111   - C110  
 10235  10234  10236      1    1.0835e+02    3.2995e+02 ;   H12R - C112   - H12S  
 10235  10234  10237      1    1.1005e+02    3.8802e+02 ;   H12R - C112   - C111  
 10236  10234  10237      1    1.1005e+02    3.8802e+02 ;   H12S - C112   - C111  
 10237  10240  10241      1    1.1005e+02    3.8802e+02 ;   C111 - C110   - H10R  
 10237  10240  10242      1    1.1005e+02    3.8802e+02 ;   C111 - C110   - H10S  
 10237  10240  10243      1    1.1205e+02    3.9497e+02 ;   C111 - C110   - C19   
 10238  10237  10239      1    1.0835e+02    3.2995e+02 ;   H11R - C111   - H11S  
 10238  10237  10240      1    1.1005e+02    3.8802e+02 ;   H11R - C111   - C110  
 10239  10237  10240      1    1.1005e+02    3.8802e+02 ;   H11S - C111   - C110  
 10240  10243  10244      1    1.1005e+02    3.8802e+02 ;   C110 - C19    - H9R   
 10240  10243  10245      1    1.1005e+02    3.8802e+02 ;   C110 - C19    - H9S   
 10240  10243  10246      1    1.1205e+02    3.9497e+02 ;   C110 - C19    - C18   
 10241  10240  10242      1    1.0835e+02    3.2995e+02 ;   H10R - C110   - H10S  
 10241  10240  10243      1    1.1005e+02    3.8802e+02 ;   H10R - C110   - C19   
 10242  10240  10243      1    1.1005e+02    3.8802e+02 ;   H10S - C110   - C19   
 10243  10246  10247      1    1.1005e+02    3.8802e+02 ;    C19 - C18    - H8R   
 10243  10246  10248      1    1.1005e+02    3.8802e+02 ;    C19 - C18    - H8S   
 10243  10246  10249      1    1.1205e+02    3.9497e+02 ;    C19 - C18    - C17   
 10244  10243  10245      1    1.0835e+02    3.2995e+02 ;    H9R - C19    - H9S   
 10244  10243  10246      1    1.1005e+02    3.8802e+02 ;    H9R - C19    - C18   
 10245  10243  10246      1    1.1005e+02    3.8802e+02 ;    H9S - C19    - C18   
 10246  10249  10250      1    1.1005e+02    3.8802e+02 ;    C18 - C17    - H7R   
 10246  10249  10251      1    1.1005e+02    3.8802e+02 ;    C18 - C17    - H7S   
 10246  10249  10252      1    1.1205e+02    3.9497e+02 ;    C18 - C17    - C16   
 10247  10246  10248      1    1.0835e+02    3.2995e+02 ;    H8R - C18    - H8S   
 10247  10246  10249      1    1.1005e+02    3.8802e+02 ;    H8R - C18    - C17   
 10248  10246  10249      1    1.1005e+02    3.8802e+02 ;    H8S - C18    - C17   
 10249  10252  10253      1    1.1005e+02    3.8802e+02 ;    C17 - C16    - H6R   
 10249  10252  10254      1    1.1005e+02    3.8802e+02 ;    C17 - C16    - H6S   
 10249  10252  10255      1    1.1205e+02    3.9497e+02 ;    C17 - C16    - C15   
 10250  10249  10251      1    1.0835e+02    3.2995e+02 ;    H7R - C17    - H7S   
 10250  10249  10252      1    1.1005e+02    3.8802e+02 ;    H7R - C17    - C16   
 10251  10249  10252      1    1.1005e+02    3.8802e+02 ;    H7S - C17    - C16   
 10252  10255  10256      1    1.1005e+02    3.8802e+02 ;    C16 - C15    - H5R   
 10252  10255  10257      1    1.1005e+02    3.8802e+02 ;    C16 - C15    - H5S   
 10252  10255  10258      1    1.1205e+02    3.9497e+02 ;    C16 - C15    - C14   
 10253  10252  10254      1    1.0835e+02    3.2995e+02 ;    H6R - C16    - H6S   
 10253  10252  10255      1    1.1005e+02    3.8802e+02 ;    H6R - C16    - C15   
 10254  10252  10255      1    1.1005e+02    3.8802e+02 ;    H6S - C16    - C15   
 10255  10258  10259      1    1.1005e+02    3.8802e+02 ;    C15 - C14    - H4R   
 10255  10258  10260      1    1.1005e+02    3.8802e+02 ;    C15 - C14    - H4S   
 10255  10258  10261      1    1.1205e+02    3.9497e+02 ;    C15 - C14    - C13   
 10256  10255  10257      1    1.0835e+02    3.2995e+02 ;    H5R - C15    - H5S   
 10256  10255  10258      1    1.1005e+02    3.8802e+02 ;    H5R - C15    - C14   
 10257  10255  10258      1    1.1005e+02    3.8802e+02 ;    H5S - C15    - C14   
 10258  10261  10262      1    1.1005e+02    3.8802e+02 ;    C14 - C13    - H3R   
 10258  10261  10263      1    1.1005e+02    3.8802e+02 ;    C14 - C13    - H3S   
 10258  10261  10264      1    1.1205e+02    3.9497e+02 ;    C14 - C13    - C12   
 10259  10258  10260      1    1.0835e+02    3.2995e+02 ;    H4R - C14    - H4S   
 10259  10258  10261      1    1.1005e+02    3.8802e+02 ;    H4R - C14    - C13   
 10260  10258  10261      1    1.1005e+02    3.8802e+02 ;    H4S - C14    - C13   
 10261  10264  10265      1    1.1005e+02    3.8802e+02 ;    C13 - C12    - H2R   
 10261  10264  10266      1    1.1005e+02    3.8802e+02 ;    C13 - C12    - H2S   
 10262  10261  10263      1    1.0835e+02    3.2995e+02 ;    H3R - C13    - H3S   
 10262  10261  10264      1    1.1005e+02    3.8802e+02 ;    H3R - C13    - C12   
 10263  10261  10264      1    1.1005e+02    3.8802e+02 ;    H3S - C13    - C12   
 10265  10264  10266      1    1.0835e+02    3.2995e+02 ;    H2R - C12    - H2S   
 10267  10268  10269      1    1.0835e+02    3.2995e+02 ;   H14T - C114   - H14R  
 10267  10268  10270      1    1.0835e+02    3.2995e+02 ;   H14T - C114   - H14S  
 10267  10268  10271      1    1.1005e+02    3.8802e+02 ;   H14T - C114   - C113  
 10268  10271  10272      1    1.1005e+02    3.8802e+02 ;   C114 - C113   - H13R  
 10268  10271  10273      1    1.1005e+02    3.8802e+02 ;   C114 - C113   - H13S  
 10268  10271  10274      1    1.1205e+02    3.9497e+02 ;   C114 - C113   - C112  
 10269  10268  10270      1    1.0835e+02    3.2995e+02 ;   H14R - C114   - H14S  
 10269  10268  10271      1    1.1005e+02    3.8802e+02 ;   H14R - C114   - C113  
 10270  10268  10271      1    1.1005e+02    3.8802e+02 ;   H14S - C114   - C113  
 10271  10274  10275      1    1.1005e+02    3.8802e+02 ;   C113 - C112   - H12R  
 10271  10274  10276      1    1.1005e+02    3.8802e+02 ;   C113 - C112   - H12S  
 10271  10274  10277      1    1.1205e+02    3.9497e+02 ;   C113 - C112   - C111  
 10272  10271  10273      1    1.0835e+02    3.2995e+02 ;   H13R - C113   - H13S  
 10272  10271  10274      1    1.1005e+02    3.8802e+02 ;   H13R - C113   - C112  
 10273  10271  10274      1    1.1005e+02    3.8802e+02 ;   H13S - C113   - C112  
 10274  10277  10278      1    1.1005e+02    3.8802e+02 ;   C112 - C111   - H11R  
 10274  10277  10279      1    1.1005e+02    3.8802e+02 ;   C112 - C111   - H11S  
 10274  10277  10280      1    1.1205e+02    3.9497e+02 ;   C112 - C111   - C110  
 10275  10274  10276      1    1.0835e+02    3.2995e+02 ;   H12R - C112   - H12S  
 10275  10274  10277      1    1.1005e+02    3.8802e+02 ;   H12R - C112   - C111  
 10276  10274  10277      1    1.1005e+02    3.8802e+02 ;   H12S - C112   - C111  
 10277  10280  10281      1    1.1005e+02    3.8802e+02 ;   C111 - C110   - H10R  
 10277  10280  10282      1    1.1005e+02    3.8802e+02 ;   C111 - C110   - H10S  
 10277  10280  10283      1    1.1205e+02    3.9497e+02 ;   C111 - C110   - C19   
 10278  10277  10279      1    1.0835e+02    3.2995e+02 ;   H11R - C111   - H11S  
 10278  10277  10280      1    1.1005e+02    3.8802e+02 ;   H11R - C111   - C110  
 10279  10277  10280      1    1.1005e+02    3.8802e+02 ;   H11S - C111   - C110  
 10280  10283  10284      1    1.1005e+02    3.8802e+02 ;   C110 - C19    - H9R   
 10280  10283  10285      1    1.1005e+02    3.8802e+02 ;   C110 - C19    - H9S   
 10280  10283  10286      1    1.1205e+02    3.9497e+02 ;   C110 - C19    - C18   
 10281  10280  10282      1    1.0835e+02    3.2995e+02 ;   H10R - C110   - H10S  
 10281  10280  10283      1    1.1005e+02    3.8802e+02 ;   H10R - C110   - C19   
 10282  10280  10283      1    1.1005e+02    3.8802e+02 ;   H10S - C110   - C19   
 10283  10286  10287      1    1.1005e+02    3.8802e+02 ;    C19 - C18    - H8R   
 10283  10286  10288      1    1.1005e+02    3.8802e+02 ;    C19 - C18    - H8S   
 10283  10286  10289      1    1.1205e+02    3.9497e+02 ;    C19 - C18    - C17   
 10284  10283  10285      1    1.0835e+02    3.2995e+02 ;    H9R - C19    - H9S   
 10284  10283  10286      1    1.1005e+02    3.8802e+02 ;    H9R - C19    - C18   
 10285  10283  10286      1    1.1005e+02    3.8802e+02 ;    H9S - C19    - C18   
 10286  10289  10290      1    1.1005e+02    3.8802e+02 ;    C18 - C17    - H7R   
 10286  10289  10291      1    1.1005e+02    3.8802e+02 ;    C18 - C17    - H7S   
 10286  10289  10292      1    1.1205e+02    3.9497e+02 ;    C18 - C17    - C16   
 10287  10286  10288      1    1.0835e+02    3.2995e+02 ;    H8R - C18    - H8S   
 10287  10286  10289      1    1.1005e+02    3.8802e+02 ;    H8R - C18    - C17   
 10288  10286  10289      1    1.1005e+02    3.8802e+02 ;    H8S - C18    - C17   
 10289  10292  10293      1    1.1005e+02    3.8802e+02 ;    C17 - C16    - H6R   
 10289  10292  10294      1    1.1005e+02    3.8802e+02 ;    C17 - C16    - H6S   
 10289  10292  10295      1    1.1205e+02    3.9497e+02 ;    C17 - C16    - C15   
 10290  10289  10291      1    1.0835e+02    3.2995e+02 ;    H7R - C17    - H7S   
 10290  10289  10292      1    1.1005e+02    3.8802e+02 ;    H7R - C17    - C16   
 10291  10289  10292      1    1.1005e+02    3.8802e+02 ;    H7S - C17    - C16   
 10292  10295  10296      1    1.1005e+02    3.8802e+02 ;    C16 - C15    - H5R   
 10292  10295  10297      1    1.1005e+02    3.8802e+02 ;    C16 - C15    - H5S   
 10292  10295  10298      1    1.1205e+02    3.9497e+02 ;    C16 - C15    - C14   
 10293  10292  10294      1    1.0835e+02    3.2995e+02 ;    H6R - C16    - H6S   
 10293  10292  10295      1    1.1005e+02    3.8802e+02 ;    H6R - C16    - C15   
 10294  10292  10295      1    1.1005e+02    3.8802e+02 ;    H6S - C16    - C15   
 10295  10298  10299      1    1.1005e+02    3.8802e+02 ;    C15 - C14    - H4R   
 10295  10298  10300      1    1.1005e+02    3.8802e+02 ;    C15 - C14    - H4S   
 10295  10298  10301      1    1.1205e+02    3.9497e+02 ;    C15 - C14    - C13   
 10296  10295  10297      1    1.0835e+02    3.2995e+02 ;    H5R - C15    - H5S   
 10296  10295  10298      1    1.1005e+02    3.8802e+02 ;    H5R - C15    - C14   
 10297  10295  10298      1    1.1005e+02    3.8802e+02 ;    H5S - C15    - C14   
 10298  10301  10302      1    1.1005e+02    3.8802e+02 ;    C14 - C13    - H3R   
 10298  10301  10303      1    1.1005e+02    3.8802e+02 ;    C14 - C13    - H3S   
 10298  10301  10304      1    1.1205e+02    3.9497e+02 ;    C14 - C13    - C12   
 10299  10298  10300      1    1.0835e+02    3.2995e+02 ;    H4R - C14    - H4S   
 10299  10298  10301      1    1.1005e+02    3.8802e+02 ;    H4R - C14    - C13   
 10300  10298  10301      1    1.1005e+02    3.8802e+02 ;    H4S - C14    - C13   
 10301  10304  10305      1    1.1005e+02    3.8802e+02 ;    C13 - C12    - H2R   
 10301  10304  10306      1    1.1005e+02    3.8802e+02 ;    C13 - C12    - H2S   
 10301  10304  10307      1    1.1053e+02    5.3379e+02 ;    C13 - C12    - C11   
 10302  10301  10303      1    1.0835e+02    3.2995e+02 ;    H3R - C13    - H3S   
 10302  10301  10304      1    1.1005e+02    3.8802e+02 ;    H3R - C13    - C12   
 10303  10301  10304      1    1.1005e+02    3.8802e+02 ;    H3S - C13    - C12   
 10304  10307  10308      1    1.2311e+02    5.6928e+02 ;    C12 - C11    - O12   
 10304  10307  10309      1    1.1196e+02    5.7957e+02 ;    C12 - C11    - O11   
 10305  10304  10306      1    1.0835e+02    3.2995e+02 ;    H2R - C12    - H2S   
 10305  10304  10307      1    1.0968e+02    3.9497e+02 ;    H2R - C12    - C11   
 10306  10304  10307      1    1.0968e+02    3.9497e+02 ;    H2S - C12    - C11   
 10307  10309  10310      1    1.1514e+02    5.3246e+02 ;    C11 - O11    - C1    
 10308  10307  10309      1    1.2333e+02    6.3538e+02 ;    O12 - C11    - O11   
 10309  10310  10311      1    1.0882e+02    4.2543e+02 ;    O11 - C1     - HR    
 10309  10310  10312      1    1.0882e+02    4.2543e+02 ;    O11 - C1     - HS    
 10309  10310  10313      1    1.0842e+02    5.6718e+02 ;    O11 - C1     - C2    
 10310  10313  10314      1    1.1007e+02    3.8794e+02 ;     C1 - C2     - HX    
 10310  10313  10315      1    1.1063e+02    5.2894e+02 ;     C1 - C2     - C3    
 10310  10313  10342      1    1.0842e+02    5.6718e+02 ;     C1 - C2     - O21   
 10311  10310  10312      1    1.0955e+02    3.2786e+02 ;     HR - C1     - HS    
 10311  10310  10313      1    1.1007e+02    3.8794e+02 ;     HR - C1     - C2    
 10312  10310  10313      1    1.1007e+02    3.8794e+02 ;     HS - C1     - C2    
 10313  10315  10316      1    1.1007e+02    3.8794e+02 ;     C2 - C3     - HA    
 10313  10315  10317      1    1.1007e+02    3.8794e+02 ;     C2 - C3     - HB    
 10313  10315  10318      1    1.0842e+02    5.6718e+02 ;     C2 - C3     - O31   
 10313  10342  10343      1    1.1514e+02    5.3246e+02 ;     C2 - O21    - C21   
 10314  10313  10315      1    1.1007e+02    3.8794e+02 ;     HX - C2     - C3    
 10314  10313  10342      1    1.0882e+02    4.2543e+02 ;     HX - C2     - O21   
 10315  10313  10342      1    1.0842e+02    5.6718e+02 ;     C3 - C2     - O21   
 10315  10318  10319      1    1.2050e+02    8.3680e+02 ;     C3 - O31    - P31   
 10316  10315  10317      1    1.0955e+02    3.2786e+02 ;     HA - C3     - HB    
 10316  10315  10318      1    1.0882e+02    4.2543e+02 ;     HA - C3     - O31   
 10317  10315  10318      1    1.0882e+02    4.2543e+02 ;     HB - C3     - O31   
 10318  10319  10320      1    1.0260e+02    7.5312e+02 ;    O31 - P31    - O32   
 10318  10319  10340      1    1.0823e+02    8.3680e+02 ;    O31 - P31    - O33   
 10318  10319  10341      1    1.0823e+02    8.3680e+02 ;    O31 - P31    - O34   
 10319  10320  10321      1    1.2050e+02    8.3680e+02 ;    P31 - O32    - C31   
 10320  10319  10340      1    1.0823e+02    8.3680e+02 ;    O32 - P31    - O33   
 10320  10319  10341      1    1.0823e+02    8.3680e+02 ;    O32 - P31    - O34   
 10320  10321  10322      1    1.0882e+02    4.2543e+02 ;    O32 - C31    - H1A   
 10320  10321  10323      1    1.0882e+02    4.2543e+02 ;    O32 - C31    - H1B   
 10320  10321  10324      1    1.0842e+02    5.6718e+02 ;    O32 - C31    - C32   
 10321  10324  10325      1    1.1174e+02    3.8510e+02 ;    C31 - C32    - H2A   
 10321  10324  10326      1    1.1174e+02    3.8510e+02 ;    C31 - C32    - H2B   
 10321  10324  10327      1    1.1432e+02    5.3932e+02 ;    C31 - C32    - N31   
 10322  10321  10323      1    1.0955e+02    3.2786e+02 ;    H1A - C31    - H1B   
 10322  10321  10324      1    1.1007e+02    3.8794e+02 ;    H1A - C31    - C32   
 10323  10321  10324      1    1.1007e+02    3.8794e+02 ;    H1B - C31    - C32   
 10324  10327  10328      1    1.1064e+02    5.2585e+02 ;    C32 - N31    - C33   
 10324  10327  10332      1    1.1064e+02    5.2585e+02 ;    C32 - N31    - C34   
 10324  10327  10336      1    1.1064e+02    5.2585e+02 ;    C32 - N31    - C35   
 10325  10324  10326      1    1.1074e+02    3.2669e+02 ;    H2A - C32    - H2B   
 10325  10324  10327      1    1.0791e+02    4.1020e+02 ;    H2A - C32    - N31   
 10326  10324  10327      1    1.0791e+02    4.1020e+02 ;    H2B - C32    - N31   
 10327  10328  10329      1    1.0791e+02    4.1020e+02 ;    N31 - C33    - H3A   
 10327  10328  10330      1    1.0791e+02    4.1020e+02 ;    N31 - C33    - H3B   
 10327  10328  10331      1    1.0791e+02    4.1020e+02 ;    N31 - C33    - H3C   
 10327  10332  10333      1    1.0791e+02    4.1020e+02 ;    N31 - C34    - H4A   
 10327  10332  10334      1    1.0791e+02    4.1020e+02 ;    N31 - C34    - H4B   
 10327  10332  10335      1    1.0791e+02    4.1020e+02 ;    N31 - C34    - H4C   
 10327  10336  10337      1    1.0791e+02    4.1020e+02 ;    N31 - C35    - H5A   
 10327  10336  10338      1    1.0791e+02    4.1020e+02 ;    N31 - C35    - H5B   
 10327  10336  10339      1    1.0791e+02    4.1020e+02 ;    N31 - C35    - H5C   
 10328  10327  10332      1    1.1064e+02    5.2585e+02 ;    C33 - N31    - C34   
 10328  10327  10336      1    1.1064e+02    5.2585e+02 ;    C33 - N31    - C35   
 10329  10328  10330      1    1.1074e+02    3.2669e+02 ;    H3A - C33    - H3B   
 10329  10328  10331      1    1.1074e+02    3.2669e+02 ;    H3A - C33    - H3C   
 10330  10328  10331      1    1.1074e+02    3.2669e+02 ;    H3B - C33    - H3C   
 10332  10327  10336      1    1.1064e+02    5.2585e+02 ;    C34 - N31    - C35   
 10333  10332  10334      1    1.1074e+02    3.2669e+02 ;    H4A - C34    - H4B   
 10333  10332  10335      1    1.1074e+02    3.2669e+02 ;    H4A - C34    - H4C   
 10334  10332  10335      1    1.1074e+02    3.2669e+02 ;    H4B - C34    - H4C   
 10337  10336  10338      1    1.1074e+02    3.2669e+02 ;    H5A - C35    - H5B   
 10337  10336  10339      1    1.1074e+02    3.2669e+02 ;    H5A - C35    - H5C   
 10338  10336  10339      1    1.1074e+02    3.2669e+02 ;    H5B - C35    - H5C   
 10340  10319  10341      1    1.1990e+02    1.1715e+03 ;    O33 - P31    - O34   
 10342  10343  10344      1    1.2333e+02    6.3538e+02 ;    O21 - C21    - O22   
 10342  10343  10382      1    1.1196e+02    5.7957e+02 ;    O21 - C21    - C12   
 10343  10382  10379      1    1.1053e+02    5.3379e+02 ;    C21 - C12    - C13   
 10343  10382  10383      1    1.0968e+02    3.9497e+02 ;    C21 - C12    - H2R   
 10343  10382  10384      1    1.0968e+02    3.9497e+02 ;    C21 - C12    - H2S   
 10344  10343  10382      1    1.2311e+02    5.6928e+02 ;    O22 - C21    - C12   
 10345  10346  10347      1    1.0835e+02    3.2995e+02 ;   H14T - C114   - H14R  
 10345  10346  10348      1    1.0835e+02    3.2995e+02 ;   H14T - C114   - H14S  
 10345  10346  10349      1    1.1005e+02    3.8802e+02 ;   H14T - C114   - C113  
 10346  10349  10350      1    1.1005e+02    3.8802e+02 ;   C114 - C113   - H13R  
 10346  10349  10351      1    1.1005e+02    3.8802e+02 ;   C114 - C113   - H13S  
 10346  10349  10352      1    1.1205e+02    3.9497e+02 ;   C114 - C113   - C112  
 10347  10346  10348      1    1.0835e+02    3.2995e+02 ;   H14R - C114   - H14S  
 10347  10346  10349      1    1.1005e+02    3.8802e+02 ;   H14R - C114   - C113  
 10348  10346  10349      1    1.1005e+02    3.8802e+02 ;   H14S - C114   - C113  
 10349  10352  10353      1    1.1005e+02    3.8802e+02 ;   C113 - C112   - H12R  
 10349  10352  10354      1    1.1005e+02    3.8802e+02 ;   C113 - C112   - H12S  
 10349  10352  10355      1    1.1205e+02    3.9497e+02 ;   C113 - C112   - C111  
 10350  10349  10351      1    1.0835e+02    3.2995e+02 ;   H13R - C113   - H13S  
 10350  10349  10352      1    1.1005e+02    3.8802e+02 ;   H13R - C113   - C112  
 10351  10349  10352      1    1.1005e+02    3.8802e+02 ;   H13S - C113   - C112  
 10352  10355  10356      1    1.1005e+02    3.8802e+02 ;   C112 - C111   - H11R  
 10352  10355  10357      1    1.1005e+02    3.8802e+02 ;   C112 - C111   - H11S  
 10352  10355  10358      1    1.1205e+02    3.9497e+02 ;   C112 - C111   - C110  
 10353  10352  10354      1    1.0835e+02    3.2995e+02 ;   H12R - C112   - H12S  
 10353  10352  10355      1    1.1005e+02    3.8802e+02 ;   H12R - C112   - C111  
 10354  10352  10355      1    1.1005e+02    3.8802e+02 ;   H12S - C112   - C111  
 10355  10358  10359      1    1.1005e+02    3.8802e+02 ;   C111 - C110   - H10R  
 10355  10358  10360      1    1.1005e+02    3.8802e+02 ;   C111 - C110   - H10S  
 10355  10358  10361      1    1.1205e+02    3.9497e+02 ;   C111 - C110   - C19   
 10356  10355  10357      1    1.0835e+02    3.2995e+02 ;   H11R - C111   - H11S  
 10356  10355  10358      1    1.1005e+02    3.8802e+02 ;   H11R - C111   - C110  
 10357  10355  10358      1    1.1005e+02    3.8802e+02 ;   H11S - C111   - C110  
 10358  10361  10362      1    1.1005e+02    3.8802e+02 ;   C110 - C19    - H9R   
 10358  10361  10363      1    1.1005e+02    3.8802e+02 ;   C110 - C19    - H9S   
 10358  10361  10364      1    1.1205e+02    3.9497e+02 ;   C110 - C19    - C18   
 10359  10358  10360      1    1.0835e+02    3.2995e+02 ;   H10R - C110   - H10S  
 10359  10358  10361      1    1.1005e+02    3.8802e+02 ;   H10R - C110   - C19   
 10360  10358  10361      1    1.1005e+02    3.8802e+02 ;   H10S - C110   - C19   
 10361  10364  10365      1    1.1005e+02    3.8802e+02 ;    C19 - C18    - H8R   
 10361  10364  10366      1    1.1005e+02    3.8802e+02 ;    C19 - C18    - H8S   
 10361  10364  10367      1    1.1205e+02    3.9497e+02 ;    C19 - C18    - C17   
 10362  10361  10363      1    1.0835e+02    3.2995e+02 ;    H9R - C19    - H9S   
 10362  10361  10364      1    1.1005e+02    3.8802e+02 ;    H9R - C19    - C18   
 10363  10361  10364      1    1.1005e+02    3.8802e+02 ;    H9S - C19    - C18   
 10364  10367  10368      1    1.1005e+02    3.8802e+02 ;    C18 - C17    - H7R   
 10364  10367  10369      1    1.1005e+02    3.8802e+02 ;    C18 - C17    - H7S   
 10364  10367  10370      1    1.1205e+02    3.9497e+02 ;    C18 - C17    - C16   
 10365  10364  10366      1    1.0835e+02    3.2995e+02 ;    H8R - C18    - H8S   
 10365  10364  10367      1    1.1005e+02    3.8802e+02 ;    H8R - C18    - C17   
 10366  10364  10367      1    1.1005e+02    3.8802e+02 ;    H8S - C18    - C17   
 10367  10370  10371      1    1.1005e+02    3.8802e+02 ;    C17 - C16    - H6R   
 10367  10370  10372      1    1.1005e+02    3.8802e+02 ;    C17 - C16    - H6S   
 10367  10370  10373      1    1.1205e+02    3.9497e+02 ;    C17 - C16    - C15   
 10368  10367  10369      1    1.0835e+02    3.2995e+02 ;    H7R - C17    - H7S   
 10368  10367  10370      1    1.1005e+02    3.8802e+02 ;    H7R - C17    - C16   
 10369  10367  10370      1    1.1005e+02    3.8802e+02 ;    H7S - C17    - C16   
 10370  10373  10374      1    1.1005e+02    3.8802e+02 ;    C16 - C15    - H5R   
 10370  10373  10375      1    1.1005e+02    3.8802e+02 ;    C16 - C15    - H5S   
 10370  10373  10376      1    1.1205e+02    3.9497e+02 ;    C16 - C15    - C14   
 10371  10370  10372      1    1.0835e+02    3.2995e+02 ;    H6R - C16    - H6S   
 10371  10370  10373      1    1.1005e+02    3.8802e+02 ;    H6R - C16    - C15   
 10372  10370  10373      1    1.1005e+02    3.8802e+02 ;    H6S - C16    - C15   
 10373  10376  10377      1    1.1005e+02    3.8802e+02 ;    C15 - C14    - H4R   
 10373  10376  10378      1    1.1005e+02    3.8802e+02 ;    C15 - C14    - H4S   
 10373  10376  10379      1    1.1205e+02    3.9497e+02 ;    C15 - C14    - C13   
 10374  10373  10375      1    1.0835e+02    3.2995e+02 ;    H5R - C15    - H5S   
 10374  10373  10376      1    1.1005e+02    3.8802e+02 ;    H5R - C15    - C14   
 10375  10373  10376      1    1.1005e+02    3.8802e+02 ;    H5S - C15    - C14   
 10376  10379  10380      1    1.1005e+02    3.8802e+02 ;    C14 - C13    - H3R   
 10376  10379  10381      1    1.1005e+02    3.8802e+02 ;    C14 - C13    - H3S   
 10376  10379  10382      1    1.1205e+02    3.9497e+02 ;    C14 - C13    - C12   
 10377  10376  10378      1    1.0835e+02    3.2995e+02 ;    H4R - C14    - H4S   
 10377  10376  10379      1    1.1005e+02    3.8802e+02 ;    H4R - C14    - C13   
 10378  10376  10379      1    1.1005e+02    3.8802e+02 ;    H4S - C14    - C13   
 10379  10382  10383      1    1.1005e+02    3.8802e+02 ;    C13 - C12    - H2R   
 10379  10382  10384      1    1.1005e+02    3.8802e+02 ;    C13 - C12    - H2S   
 10380  10379  10381      1    1.0835e+02    3.2995e+02 ;    H3R - C13    - H3S   
 10380  10379  10382      1    1.1005e+02    3.8802e+02 ;    H3R - C13    - C12   
 10381  10379  10382      1    1.1005e+02    3.8802e+02 ;    H3S - C13    - C12   
 10383  10382  10384      1    1.0835e+02    3.2995e+02 ;    H2R - C12    - H2S   
 10385  10386  10387      1    1.0835e+02    3.2995e+02 ;   H14T - C114   - H14R  
 10385  10386  10388      1    1.0835e+02    3.2995e+02 ;   H14T - C114   - H14S  
 10385  10386  10389      1    1.1005e+02    3.8802e+02 ;   H14T - C114   - C113  
 10386  10389  10390      1    1.1005e+02    3.8802e+02 ;   C114 - C113   - H13R  
 10386  10389  10391      1    1.1005e+02    3.8802e+02 ;   C114 - C113   - H13S  
 10386  10389  10392      1    1.1205e+02    3.9497e+02 ;   C114 - C113   - C112  
 10387  10386  10388      1    1.0835e+02    3.2995e+02 ;   H14R - C114   - H14S  
 10387  10386  10389      1    1.1005e+02    3.8802e+02 ;   H14R - C114   - C113  
 10388  10386  10389      1    1.1005e+02    3.8802e+02 ;   H14S - C114   - C113  
 10389  10392  10393      1    1.1005e+02    3.8802e+02 ;   C113 - C112   - H12R  
 10389  10392  10394      1    1.1005e+02    3.8802e+02 ;   C113 - C112   - H12S  
 10389  10392  10395      1    1.1205e+02    3.9497e+02 ;   C113 - C112   - C111  
 10390  10389  10391      1    1.0835e+02    3.2995e+02 ;   H13R - C113   - H13S  
 10390  10389  10392      1    1.1005e+02    3.8802e+02 ;   H13R - C113   - C112  
 10391  10389  10392      1    1.1005e+02    3.8802e+02 ;   H13S - C113   - C112  
 10392  10395  10396      1    1.1005e+02    3.8802e+02 ;   C112 - C111   - H11R  
 10392  10395  10397      1    1.1005e+02    3.8802e+02 ;   C112 - C111   - H11S  
 10392  10395  10398      1    1.1205e+02    3.9497e+02 ;   C112 - C111   - C110  
 10393  10392  10394      1    1.0835e+02    3.2995e+02 ;   H12R - C112   - H12S  
 10393  10392  10395      1    1.1005e+02    3.8802e+02 ;   H12R - C112   - C111  
 10394  10392  10395      1    1.1005e+02    3.8802e+02 ;   H12S - C112   - C111  
 10395  10398  10399      1    1.1005e+02    3.8802e+02 ;   C111 - C110   - H10R  
 10395  10398  10400      1    1.1005e+02    3.8802e+02 ;   C111 - C110   - H10S  
 10395  10398  10401      1    1.1205e+02    3.9497e+02 ;   C111 - C110   - C19   
 10396  10395  10397      1    1.0835e+02    3.2995e+02 ;   H11R - C111   - H11S  
 10396  10395  10398      1    1.1005e+02    3.8802e+02 ;   H11R - C111   - C110  
 10397  10395  10398      1    1.1005e+02    3.8802e+02 ;   H11S - C111   - C110  
 10398  10401  10402      1    1.1005e+02    3.8802e+02 ;   C110 - C19    - H9R   
 10398  10401  10403      1    1.1005e+02    3.8802e+02 ;   C110 - C19    - H9S   
 10398  10401  10404      1    1.1205e+02    3.9497e+02 ;   C110 - C19    - C18   
 10399  10398  10400      1    1.0835e+02    3.2995e+02 ;   H10R - C110   - H10S  
 10399  10398  10401      1    1.1005e+02    3.8802e+02 ;   H10R - C110   - C19   
 10400  10398  10401      1    1.1005e+02    3.8802e+02 ;   H10S - C110   - C19   
 10401  10404  10405      1    1.1005e+02    3.8802e+02 ;    C19 - C18    - H8R   
 10401  10404  10406      1    1.1005e+02    3.8802e+02 ;    C19 - C18    - H8S   
 10401  10404  10407      1    1.1205e+02    3.9497e+02 ;    C19 - C18    - C17   
 10402  10401  10403      1    1.0835e+02    3.2995e+02 ;    H9R - C19    - H9S   
 10402  10401  10404      1    1.1005e+02    3.8802e+02 ;    H9R - C19    - C18   
 10403  10401  10404      1    1.1005e+02    3.8802e+02 ;    H9S - C19    - C18   
 10404  10407  10408      1    1.1005e+02    3.8802e+02 ;    C18 - C17    - H7R   
 10404  10407  10409      1    1.1005e+02    3.8802e+02 ;    C18 - C17    - H7S   
 10404  10407  10410      1    1.1205e+02    3.9497e+02 ;    C18 - C17    - C16   
 10405  10404  10406      1    1.0835e+02    3.2995e+02 ;    H8R - C18    - H8S   
 10405  10404  10407      1    1.1005e+02    3.8802e+02 ;    H8R - C18    - C17   
 10406  10404  10407      1    1.1005e+02    3.8802e+02 ;    H8S - C18    - C17   
 10407  10410  10411      1    1.1005e+02    3.8802e+02 ;    C17 - C16    - H6R   
 10407  10410  10412      1    1.1005e+02    3.8802e+02 ;    C17 - C16    - H6S   
 10407  10410  10413      1    1.1205e+02    3.9497e+02 ;    C17 - C16    - C15   
 10408  10407  10409      1    1.0835e+02    3.2995e+02 ;    H7R - C17    - H7S   
 10408  10407  10410      1    1.1005e+02    3.8802e+02 ;    H7R - C17    - C16   
 10409  10407  10410      1    1.1005e+02    3.8802e+02 ;    H7S - C17    - C16   
 10410  10413  10414      1    1.1005e+02    3.8802e+02 ;    C16 - C15    - H5R   
 10410  10413  10415      1    1.1005e+02    3.8802e+02 ;    C16 - C15    - H5S   
 10410  10413  10416      1    1.1205e+02    3.9497e+02 ;    C16 - C15    - C14   
 10411  10410  10412      1    1.0835e+02    3.2995e+02 ;    H6R - C16    - H6S   
 10411  10410  10413      1    1.1005e+02    3.8802e+02 ;    H6R - C16    - C15   
 10412  10410  10413      1    1.1005e+02    3.8802e+02 ;    H6S - C16    - C15   
 10413  10416  10417      1    1.1005e+02    3.8802e+02 ;    C15 - C14    - H4R   
 10413  10416  10418      1    1.1005e+02    3.8802e+02 ;    C15 - C14    - H4S   
 10413  10416  10419      1    1.1205e+02    3.9497e+02 ;    C15 - C14    - C13   
 10414  10413  10415      1    1.0835e+02    3.2995e+02 ;    H5R - C15    - H5S   
 10414  10413  10416      1    1.1005e+02    3.8802e+02 ;    H5R - C15    - C14   
 10415  10413  10416      1    1.1005e+02    3.8802e+02 ;    H5S - C15    - C14   
 10416  10419  10420      1    1.1005e+02    3.8802e+02 ;    C14 - C13    - H3R   
 10416  10419  10421      1    1.1005e+02    3.8802e+02 ;    C14 - C13    - H3S   
 10416  10419  10422      1    1.1205e+02    3.9497e+02 ;    C14 - C13    - C12   
 10417  10416  10418      1    1.0835e+02    3.2995e+02 ;    H4R - C14    - H4S   
 10417  10416  10419      1    1.1005e+02    3.8802e+02 ;    H4R - C14    - C13   
 10418  10416  10419      1    1.1005e+02    3.8802e+02 ;    H4S - C14    - C13   
 10419  10422  10423      1    1.1005e+02    3.8802e+02 ;    C13 - C12    - H2R   
 10419  10422  10424      1    1.1005e+02    3.8802e+02 ;    C13 - C12    - H2S   
 10419  10422  10425      1    1.1053e+02    5.3379e+02 ;    C13 - C12    - C11   
 10420  10419  10421      1    1.0835e+02    3.2995e+02 ;    H3R - C13    - H3S   
 10420  10419  10422      1    1.1005e+02    3.8802e+02 ;    H3R - C13    - C12   
 10421  10419  10422      1    1.1005e+02    3.8802e+02 ;    H3S - C13    - C12   
 10422  10425  10426      1    1.2311e+02    5.6928e+02 ;    C12 - C11    - O12   
 10422  10425  10427      1    1.1196e+02    5.7957e+02 ;    C12 - C11    - O11   
 10423  10422  10424      1    1.0835e+02    3.2995e+02 ;    H2R - C12    - H2S   
 10423  10422  10425      1    1.0968e+02    3.9497e+02 ;    H2R - C12    - C11   
 10424  10422  10425      1    1.0968e+02    3.9497e+02 ;    H2S - C12    - C11   
 10425  10427  10428      1    1.1514e+02    5.3246e+02 ;    C11 - O11    - C1    
 10426  10425  10427      1    1.2333e+02    6.3538e+02 ;    O12 - C11    - O11   
 10427  10428  10429      1    1.0882e+02    4.2543e+02 ;    O11 - C1     - HR    
 10427  10428  10430      1    1.0882e+02    4.2543e+02 ;    O11 - C1     - HS    
 10427  10428  10431      1    1.0842e+02    5.6718e+02 ;    O11 - C1     - C2    
 10428  10431  10432      1    1.1007e+02    3.8794e+02 ;     C1 - C2     - HX    
 10428  10431  10433      1    1.1063e+02    5.2894e+02 ;     C1 - C2     - C3    
 10428  10431  10460      1    1.0842e+02    5.6718e+02 ;     C1 - C2     - O21   
 10429  10428  10430      1    1.0955e+02    3.2786e+02 ;     HR - C1     - HS    
 10429  10428  10431      1    1.1007e+02    3.8794e+02 ;     HR - C1     - C2    
 10430  10428  10431      1    1.1007e+02    3.8794e+02 ;     HS - C1     - C2    
 10431  10433  10434      1    1.1007e+02    3.8794e+02 ;     C2 - C3     - HA    
 10431  10433  10435      1    1.1007e+02    3.8794e+02 ;     C2 - C3     - HB    
 10431  10433  10436      1    1.0842e+02    5.6718e+02 ;     C2 - C3     - O31   
 10431  10460  10461      1    1.1514e+02    5.3246e+02 ;     C2 - O21    - C21   
 10432  10431  10433      1    1.1007e+02    3.8794e+02 ;     HX - C2     - C3    
 10432  10431  10460      1    1.0882e+02    4.2543e+02 ;     HX - C2     - O21   
 10433  10431  10460      1    1.0842e+02    5.6718e+02 ;     C3 - C2     - O21   
 10433  10436  10437      1    1.2050e+02    8.3680e+02 ;     C3 - O31    - P31   
 10434  10433  10435      1    1.0955e+02    3.2786e+02 ;     HA - C3     - HB    
 10434  10433  10436      1    1.0882e+02    4.2543e+02 ;     HA - C3     - O31   
 10435  10433  10436      1    1.0882e+02    4.2543e+02 ;     HB - C3     - O31   
 10436  10437  10438      1    1.0260e+02    7.5312e+02 ;    O31 - P31    - O32   
 10436  10437  10458      1    1.0823e+02    8.3680e+02 ;    O31 - P31    - O33   
 10436  10437  10459      1    1.0823e+02    8.3680e+02 ;    O31 - P31    - O34   
 10437  10438  10439      1    1.2050e+02    8.3680e+02 ;    P31 - O32    - C31   
 10438  10437  10458      1    1.0823e+02    8.3680e+02 ;    O32 - P31    - O33   
 10438  10437  10459      1    1.0823e+02    8.3680e+02 ;    O32 - P31    - O34   
 10438  10439  10440      1    1.0882e+02    4.2543e+02 ;    O32 - C31    - H1A   
 10438  10439  10441      1    1.0882e+02    4.2543e+02 ;    O32 - C31    - H1B   
 10438  10439  10442      1    1.0842e+02    5.6718e+02 ;    O32 - C31    - C32   
 10439  10442  10443      1    1.1174e+02    3.8510e+02 ;    C31 - C32    - H2A   
 10439  10442  10444      1    1.1174e+02    3.8510e+02 ;    C31 - C32    - H2B   
 10439  10442  10445      1    1.1432e+02    5.3932e+02 ;    C31 - C32    - N31   
 10440  10439  10441      1    1.0955e+02    3.2786e+02 ;    H1A - C31    - H1B   
 10440  10439  10442      1    1.1007e+02    3.8794e+02 ;    H1A - C31    - C32   
 10441  10439  10442      1    1.1007e+02    3.8794e+02 ;    H1B - C31    - C32   
 10442  10445  10446      1    1.1064e+02    5.2585e+02 ;    C32 - N31    - C33   
 10442  10445  10450      1    1.1064e+02    5.2585e+02 ;    C32 - N31    - C34   
 10442  10445  10454      1    1.1064e+02    5.2585e+02 ;    C32 - N31    - C35   
 10443  10442  10444      1    1.1074e+02    3.2669e+02 ;    H2A - C32    - H2B   
 10443  10442  10445      1    1.0791e+02    4.1020e+02 ;    H2A - C32    - N31   
 10444  10442  10445      1    1.0791e+02    4.1020e+02 ;    H2B - C32    - N31   
 10445  10446  10447      1    1.0791e+02    4.1020e+02 ;    N31 - C33    - H3A   
 10445  10446  10448      1    1.0791e+02    4.1020e+02 ;    N31 - C33    - H3B   
 10445  10446  10449      1    1.0791e+02    4.1020e+02 ;    N31 - C33    - H3C   
 10445  10450  10451      1    1.0791e+02    4.1020e+02 ;    N31 - C34    - H4A   
 10445  10450  10452      1    1.0791e+02    4.1020e+02 ;    N31 - C34    - H4B   
 10445  10450  10453      1    1.0791e+02    4.1020e+02 ;    N31 - C34    - H4C   
 10445  10454  10455      1    1.0791e+02    4.1020e+02 ;    N31 - C35    - H5A   
 10445  10454  10456      1    1.0791e+02    4.1020e+02 ;    N31 - C35    - H5B   
 10445  10454  10457      1    1.0791e+02    4.1020e+02 ;    N31 - C35    - H5C   
 10446  10445  10450      1    1.1064e+02    5.2585e+02 ;    C33 - N31    - C34   
 10446  10445  10454      1    1.1064e+02    5.2585e+02 ;    C33 - N31    - C35   
 10447  10446  10448      1    1.1074e+02    3.2669e+02 ;    H3A - C33    - H3B   
 10447  10446  10449      1    1.1074e+02    3.2669e+02 ;    H3A - C33    - H3C   
 10448  10446  10449      1    1.1074e+02    3.2669e+02 ;    H3B - C33    - H3C   
 10450  10445  10454      1    1.1064e+02    5.2585e+02 ;    C34 - N31    - C35   
 10451  10450  10452      1    1.1074e+02    3.2669e+02 ;    H4A - C34    - H4B   
 10451  10450  10453      1    1.1074e+02    3.2669e+02 ;    H4A - C34    - H4C   
 10452  10450  10453      1    1.1074e+02    3.2669e+02 ;    H4B - C34    - H4C   
 10455  10454  10456      1    1.1074e+02    3.2669e+02 ;    H5A - C35    - H5B   
 10455  10454  10457      1    1.1074e+02    3.2669e+02 ;    H5A - C35    - H5C   
 10456  10454  10457      1    1.1074e+02    3.2669e+02 ;    H5B - C35    - H5C   
 10458  10437  10459      1    1.1990e+02    1.1715e+03 ;    O33 - P31    - O34   
 10460  10461  10462      1    1.2333e+02    6.3538e+02 ;    O21 - C21    - O22   
 10460  10461  10500      1    1.1196e+02    5.7957e+02 ;    O21 - C21    - C12   
 10461  10500  10497      1    1.1053e+02    5.3379e+02 ;    C21 - C12    - C13   
 10461  10500  10501      1    1.0968e+02    3.9497e+02 ;    C21 - C12    - H2R   
 10461  10500  10502      1    1.0968e+02    3.9497e+02 ;    C21 - C12    - H2S   
 10462  10461  10500      1    1.2311e+02    5.6928e+02 ;    O22 - C21    - C12   
 10463  10464  10465      1    1.0835e+02    3.2995e+02 ;   H14T - C114   - H14R  
 10463  10464  10466      1    1.0835e+02    3.2995e+02 ;   H14T - C114   - H14S  
 10463  10464  10467      1    1.1005e+02    3.8802e+02 ;   H14T - C114   - C113  
 10464  10467  10468      1    1.1005e+02    3.8802e+02 ;   C114 - C113   - H13R  
 10464  10467  10469      1    1.1005e+02    3.8802e+02 ;   C114 - C113   - H13S  
 10464  10467  10470      1    1.1205e+02    3.9497e+02 ;   C114 - C113   - C112  
 10465  10464  10466      1    1.0835e+02    3.2995e+02 ;   H14R - C114   - H14S  
 10465  10464  10467      1    1.1005e+02    3.8802e+02 ;   H14R - C114   - C113  
 10466  10464  10467      1    1.1005e+02    3.8802e+02 ;   H14S - C114   - C113  
 10467  10470  10471      1    1.1005e+02    3.8802e+02 ;   C113 - C112   - H12R  
 10467  10470  10472      1    1.1005e+02    3.8802e+02 ;   C113 - C112   - H12S  
 10467  10470  10473      1    1.1205e+02    3.9497e+02 ;   C113 - C112   - C111  
 10468  10467  10469      1    1.0835e+02    3.2995e+02 ;   H13R - C113   - H13S  
 10468  10467  10470      1    1.1005e+02    3.8802e+02 ;   H13R - C113   - C112  
 10469  10467  10470      1    1.1005e+02    3.8802e+02 ;   H13S - C113   - C112  
 10470  10473  10474      1    1.1005e+02    3.8802e+02 ;   C112 - C111   - H11R  
 10470  10473  10475      1    1.1005e+02    3.8802e+02 ;   C112 - C111   - H11S  
 10470  10473  10476      1    1.1205e+02    3.9497e+02 ;   C112 - C111   - C110  
 10471  10470  10472      1    1.0835e+02    3.2995e+02 ;   H12R - C112   - H12S  
 10471  10470  10473      1    1.1005e+02    3.8802e+02 ;   H12R - C112   - C111  
 10472  10470  10473      1    1.1005e+02    3.8802e+02 ;   H12S - C112   - C111  
 10473  10476  10477      1    1.1005e+02    3.8802e+02 ;   C111 - C110   - H10R  
 10473  10476  10478      1    1.1005e+02    3.8802e+02 ;   C111 - C110   - H10S  
 10473  10476  10479      1    1.1205e+02    3.9497e+02 ;   C111 - C110   - C19   
 10474  10473  10475      1    1.0835e+02    3.2995e+02 ;   H11R - C111   - H11S  
 10474  10473  10476      1    1.1005e+02    3.8802e+02 ;   H11R - C111   - C110  
 10475  10473  10476      1    1.1005e+02    3.8802e+02 ;   H11S - C111   - C110  
 10476  10479  10480      1    1.1005e+02    3.8802e+02 ;   C110 - C19    - H9R   
 10476  10479  10481      1    1.1005e+02    3.8802e+02 ;   C110 - C19    - H9S   
 10476  10479  10482      1    1.1205e+02    3.9497e+02 ;   C110 - C19    - C18   
 10477  10476  10478      1    1.0835e+02    3.2995e+02 ;   H10R - C110   - H10S  
 10477  10476  10479      1    1.1005e+02    3.8802e+02 ;   H10R - C110   - C19   
 10478  10476  10479      1    1.1005e+02    3.8802e+02 ;   H10S - C110   - C19   
 10479  10482  10483      1    1.1005e+02    3.8802e+02 ;    C19 - C18    - H8R   
 10479  10482  10484      1    1.1005e+02    3.8802e+02 ;    C19 - C18    - H8S   
 10479  10482  10485      1    1.1205e+02    3.9497e+02 ;    C19 - C18    - C17   
 10480  10479  10481      1    1.0835e+02    3.2995e+02 ;    H9R - C19    - H9S   
 10480  10479  10482      1    1.1005e+02    3.8802e+02 ;    H9R - C19    - C18   
 10481  10479  10482      1    1.1005e+02    3.8802e+02 ;    H9S - C19    - C18   
 10482  10485  10486      1    1.1005e+02    3.8802e+02 ;    C18 - C17    - H7R   
 10482  10485  10487      1    1.1005e+02    3.8802e+02 ;    C18 - C17    - H7S   
 10482  10485  10488      1    1.1205e+02    3.9497e+02 ;    C18 - C17    - C16   
 10483  10482  10484      1    1.0835e+02    3.2995e+02 ;    H8R - C18    - H8S   
 10483  10482  10485      1    1.1005e+02    3.8802e+02 ;    H8R - C18    - C17   
 10484  10482  10485      1    1.1005e+02    3.8802e+02 ;    H8S - C18    - C17   
 10485  10488  10489      1    1.1005e+02    3.8802e+02 ;    C17 - C16    - H6R   
 10485  10488  10490      1    1.1005e+02    3.8802e+02 ;    C17 - C16    - H6S   
 10485  10488  10491      1    1.1205e+02    3.9497e+02 ;    C17 - C16    - C15   
 10486  10485  10487      1    1.0835e+02    3.2995e+02 ;    H7R - C17    - H7S   
 10486  10485  10488      1    1.1005e+02    3.8802e+02 ;    H7R - C17    - C16   
 10487  10485  10488      1    1.1005e+02    3.8802e+02 ;    H7S - C17    - C16   
 10488  10491  10492      1    1.1005e+02    3.8802e+02 ;    C16 - C15    - H5R   
 10488  10491  10493      1    1.1005e+02    3.8802e+02 ;    C16 - C15    - H5S   
 10488  10491  10494      1    1.1205e+02    3.9497e+02 ;    C16 - C15    - C14   
 10489  10488  10490      1    1.0835e+02    3.2995e+02 ;    H6R - C16    - H6S   
 10489  10488  10491      1    1.1005e+02    3.8802e+02 ;    H6R - C16    - C15   
 10490  10488  10491      1    1.1005e+02    3.8802e+02 ;    H6S - C16    - C15   
 10491  10494  10495      1    1.1005e+02    3.8802e+02 ;    C15 - C14    - H4R   
 10491  10494  10496      1    1.1005e+02    3.8802e+02 ;    C15 - C14    - H4S   
 10491  10494  10497      1    1.1205e+02    3.9497e+02 ;    C15 - C14    - C13   
 10492  10491  10493      1    1.0835e+02    3.2995e+02 ;    H5R - C15    - H5S   
 10492  10491  10494      1    1.1005e+02    3.8802e+02 ;    H5R - C15    - C14   
 10493  10491  10494      1    1.1005e+02    3.8802e+02 ;    H5S - C15    - C14   
 10494  10497  10498      1    1.1005e+02    3.8802e+02 ;    C14 - C13    - H3R   
 10494  10497  10499      1    1.1005e+02    3.8802e+02 ;    C14 - C13    - H3S   
 10494  10497  10500      1    1.1205e+02    3.9497e+02 ;    C14 - C13    - C12   
 10495  10494  10496      1    1.0835e+02    3.2995e+02 ;    H4R - C14    - H4S   
 10495  10494  10497      1    1.1005e+02    3.8802e+02 ;    H4R - C14    - C13   
 10496  10494  10497      1    1.1005e+02    3.8802e+02 ;    H4S - C14    - C13   
 10497  10500  10501      1    1.1005e+02    3.8802e+02 ;    C13 - C12    - H2R   
 10497  10500  10502      1    1.1005e+02    3.8802e+02 ;    C13 - C12    - H2S   
 10498  10497  10499      1    1.0835e+02    3.2995e+02 ;    H3R - C13    - H3S   
 10498  10497  10500      1    1.1005e+02    3.8802e+02 ;    H3R - C13    - C12   
 10499  10497  10500      1    1.1005e+02    3.8802e+02 ;    H3S - C13    - C12   
 10501  10500  10502      1    1.0835e+02    3.2995e+02 ;    H2R - C12    - H2S   
 10503  10504  10505      1    1.0835e+02    3.2995e+02 ;   H14T - C114   - H14R  
 10503  10504  10506      1    1.0835e+02    3.2995e+02 ;   H14T - C114   - H14S  
 10503  10504  10507      1    1.1005e+02    3.8802e+02 ;   H14T - C114   - C113  
 10504  10507  10508      1    1.1005e+02    3.8802e+02 ;   C114 - C113   - H13R  
 10504  10507  10509      1    1.1005e+02    3.8802e+02 ;   C114 - C113   - H13S  
 10504  10507  10510      1    1.1205e+02    3.9497e+02 ;   C114 - C113   - C112  
 10505  10504  10506      1    1.0835e+02    3.2995e+02 ;   H14R - C114   - H14S  
 10505  10504  10507      1    1.1005e+02    3.8802e+02 ;   H14R - C114   - C113  
 10506  10504  10507      1    1.1005e+02    3.8802e+02 ;   H14S - C114   - C113  
 10507  10510  10511      1    1.1005e+02    3.8802e+02 ;   C113 - C112   - H12R  
 10507  10510  10512      1    1.1005e+02    3.8802e+02 ;   C113 - C112   - H12S  
 10507  10510  10513      1    1.1205e+02    3.9497e+02 ;   C113 - C112   - C111  
 10508  10507  10509      1    1.0835e+02    3.2995e+02 ;   H13R - C113   - H13S  
 10508  10507  10510      1    1.1005e+02    3.8802e+02 ;   H13R - C113   - C112  
 10509  10507  10510      1    1.1005e+02    3.8802e+02 ;   H13S - C113   - C112  
 10510  10513  10514      1    1.1005e+02    3.8802e+02 ;   C112 - C111   - H11R  
 10510  10513  10515      1    1.1005e+02    3.8802e+02 ;   C112 - C111   - H11S  
 10510  10513  10516      1    1.1205e+02    3.9497e+02 ;   C112 - C111   - C110  
 10511  10510  10512      1    1.0835e+02    3.2995e+02 ;   H12R - C112   - H12S  
 10511  10510  10513      1    1.1005e+02    3.8802e+02 ;   H12R - C112   - C111  
 10512  10510  10513      1    1.1005e+02    3.8802e+02 ;   H12S - C112   - C111  
 10513  10516  10517      1    1.1005e+02    3.8802e+02 ;   C111 - C110   - H10R  
 10513  10516  10518      1    1.1005e+02    3.8802e+02 ;   C111 - C110   - H10S  
 10513  10516  10519      1    1.1205e+02    3.9497e+02 ;   C111 - C110   - C19   
 10514  10513  10515      1    1.0835e+02    3.2995e+02 ;   H11R - C111   - H11S  
 10514  10513  10516      1    1.1005e+02    3.8802e+02 ;   H11R - C111   - C110  
 10515  10513  10516      1    1.1005e+02    3.8802e+02 ;   H11S - C111   - C110  
 10516  10519  10520      1    1.1005e+02    3.8802e+02 ;   C110 - C19    - H9R   
 10516  10519  10521      1    1.1005e+02    3.8802e+02 ;   C110 - C19    - H9S   
 10516  10519  10522      1    1.1205e+02    3.9497e+02 ;   C110 - C19    - C18   
 10517  10516  10518      1    1.0835e+02    3.2995e+02 ;   H10R - C110   - H10S  
 10517  10516  10519      1    1.1005e+02    3.8802e+02 ;   H10R - C110   - C19   
 10518  10516  10519      1    1.1005e+02    3.8802e+02 ;   H10S - C110   - C19   
 10519  10522  10523      1    1.1005e+02    3.8802e+02 ;    C19 - C18    - H8R   
 10519  10522  10524      1    1.1005e+02    3.8802e+02 ;    C19 - C18    - H8S   
 10519  10522  10525      1    1.1205e+02    3.9497e+02 ;    C19 - C18    - C17   
 10520  10519  10521      1    1.0835e+02    3.2995e+02 ;    H9R - C19    - H9S   
 10520  10519  10522      1    1.1005e+02    3.8802e+02 ;    H9R - C19    - C18   
 10521  10519  10522      1    1.1005e+02    3.8802e+02 ;    H9S - C19    - C18   
 10522  10525  10526      1    1.1005e+02    3.8802e+02 ;    C18 - C17    - H7R   
 10522  10525  10527      1    1.1005e+02    3.8802e+02 ;    C18 - C17    - H7S   
 10522  10525  10528      1    1.1205e+02    3.9497e+02 ;    C18 - C17    - C16   
 10523  10522  10524      1    1.0835e+02    3.2995e+02 ;    H8R - C18    - H8S   
 10523  10522  10525      1    1.1005e+02    3.8802e+02 ;    H8R - C18    - C17   
 10524  10522  10525      1    1.1005e+02    3.8802e+02 ;    H8S - C18    - C17   
 10525  10528  10529      1    1.1005e+02    3.8802e+02 ;    C17 - C16    - H6R   
 10525  10528  10530      1    1.1005e+02    3.8802e+02 ;    C17 - C16    - H6S   
 10525  10528  10531      1    1.1205e+02    3.9497e+02 ;    C17 - C16    - C15   
 10526  10525  10527      1    1.0835e+02    3.2995e+02 ;    H7R - C17    - H7S   
 10526  10525  10528      1    1.1005e+02    3.8802e+02 ;    H7R - C17    - C16   
 10527  10525  10528      1    1.1005e+02    3.8802e+02 ;    H7S - C17    - C16   
 10528  10531  10532      1    1.1005e+02    3.8802e+02 ;    C16 - C15    - H5R   
 10528  10531  10533      1    1.1005e+02    3.8802e+02 ;    C16 - C15    - H5S   
 10528  10531  10534      1    1.1205e+02    3.9497e+02 ;    C16 - C15    - C14   
 10529  10528  10530      1    1.0835e+02    3.2995e+02 ;    H6R - C16    - H6S   
 10529  10528  10531      1    1.1005e+02    3.8802e+02 ;    H6R - C16    - C15   
 10530  10528  10531      1    1.1005e+02    3.8802e+02 ;    H6S - C16    - C15   
 10531  10534  10535      1    1.1005e+02    3.8802e+02 ;    C15 - C14    - H4R   
 10531  10534  10536      1    1.1005e+02    3.8802e+02 ;    C15 - C14    - H4S   
 10531  10534  10537      1    1.1205e+02    3.9497e+02 ;    C15 - C14    - C13   
 10532  10531  10533      1    1.0835e+02    3.2995e+02 ;    H5R - C15    - H5S   
 10532  10531  10534      1    1.1005e+02    3.8802e+02 ;    H5R - C15    - C14   
 10533  10531  10534      1    1.1005e+02    3.8802e+02 ;    H5S - C15    - C14   
 10534  10537  10538      1    1.1005e+02    3.8802e+02 ;    C14 - C13    - H3R   
 10534  10537  10539      1    1.1005e+02    3.8802e+02 ;    C14 - C13    - H3S   
 10534  10537  10540      1    1.1205e+02    3.9497e+02 ;    C14 - C13    - C12   
 10535  10534  10536      1    1.0835e+02    3.2995e+02 ;    H4R - C14    - H4S   
 10535  10534  10537      1    1.1005e+02    3.8802e+02 ;    H4R - C14    - C13   
 10536  10534  10537      1    1.1005e+02    3.8802e+02 ;    H4S - C14    - C13   
 10537  10540  10541      1    1.1005e+02    3.8802e+02 ;    C13 - C12    - H2R   
 10537  10540  10542      1    1.1005e+02    3.8802e+02 ;    C13 - C12    - H2S   
 10537  10540  10543      1    1.1053e+02    5.3379e+02 ;    C13 - C12    - C11   
 10538  10537  10539      1    1.0835e+02    3.2995e+02 ;    H3R - C13    - H3S   
 10538  10537  10540      1    1.1005e+02    3.8802e+02 ;    H3R - C13    - C12   
 10539  10537  10540      1    1.1005e+02    3.8802e+02 ;    H3S - C13    - C12   
 10540  10543  10544      1    1.2311e+02    5.6928e+02 ;    C12 - C11    - O12   
 10540  10543  10545      1    1.1196e+02    5.7957e+02 ;    C12 - C11    - O11   
 10541  10540  10542      1    1.0835e+02    3.2995e+02 ;    H2R - C12    - H2S   
 10541  10540  10543      1    1.0968e+02    3.9497e+02 ;    H2R - C12    - C11   
 10542  10540  10543      1    1.0968e+02    3.9497e+02 ;    H2S - C12    - C11   
 10543  10545  10546      1    1.1514e+02    5.3246e+02 ;    C11 - O11    - C1    
 10544  10543  10545      1    1.2333e+02    6.3538e+02 ;    O12 - C11    - O11   
 10545  10546  10547      1    1.0882e+02    4.2543e+02 ;    O11 - C1     - HR    
 10545  10546  10548      1    1.0882e+02    4.2543e+02 ;    O11 - C1     - HS    
 10545  10546  10549      1    1.0842e+02    5.6718e+02 ;    O11 - C1     - C2    
 10546  10549  10550      1    1.1007e+02    3.8794e+02 ;     C1 - C2     - HX    
 10546  10549  10551      1    1.1063e+02    5.2894e+02 ;     C1 - C2     - C3    
 10546  10549  10578      1    1.0842e+02    5.6718e+02 ;     C1 - C2     - O21   
 10547  10546  10548      1    1.0955e+02    3.2786e+02 ;     HR - C1     - HS    
 10547  10546  10549      1    1.1007e+02    3.8794e+02 ;     HR - C1     - C2    
 10548  10546  10549      1    1.1007e+02    3.8794e+02 ;     HS - C1     - C2    
 10549  10551  10552      1    1.1007e+02    3.8794e+02 ;     C2 - C3     - HA    
 10549  10551  10553      1    1.1007e+02    3.8794e+02 ;     C2 - C3     - HB    
 10549  10551  10554      1    1.0842e+02    5.6718e+02 ;     C2 - C3     - O31   
 10549  10578  10579      1    1.1514e+02    5.3246e+02 ;     C2 - O21    - C21   
 10550  10549  10551      1    1.1007e+02    3.8794e+02 ;     HX - C2     - C3    
 10550  10549  10578      1    1.0882e+02    4.2543e+02 ;     HX - C2     - O21   
 10551  10549  10578      1    1.0842e+02    5.6718e+02 ;     C3 - C2     - O21   
 10551  10554  10555      1    1.2050e+02    8.3680e+02 ;     C3 - O31    - P31   
 10552  10551  10553      1    1.0955e+02    3.2786e+02 ;     HA - C3     - HB    
 10552  10551  10554      1    1.0882e+02    4.2543e+02 ;     HA - C3     - O31   
 10553  10551  10554      1    1.0882e+02    4.2543e+02 ;     HB - C3     - O31   
 10554  10555  10556      1    1.0260e+02    7.5312e+02 ;    O31 - P31    - O32   
 10554  10555  10576      1    1.0823e+02    8.3680e+02 ;    O31 - P31    - O33   
 10554  10555  10577      1    1.0823e+02    8.3680e+02 ;    O31 - P31    - O34   
 10555  10556  10557      1    1.2050e+02    8.3680e+02 ;    P31 - O32    - C31   
 10556  10555  10576      1    1.0823e+02    8.3680e+02 ;    O32 - P31    - O33   
 10556  10555  10577      1    1.0823e+02    8.3680e+02 ;    O32 - P31    - O34   
 10556  10557  10558      1    1.0882e+02    4.2543e+02 ;    O32 - C31    - H1A   
 10556  10557  10559      1    1.0882e+02    4.2543e+02 ;    O32 - C31    - H1B   
 10556  10557  10560      1    1.0842e+02    5.6718e+02 ;    O32 - C31    - C32   
 10557  10560  10561      1    1.1174e+02    3.8510e+02 ;    C31 - C32    - H2A   
 10557  10560  10562      1    1.1174e+02    3.8510e+02 ;    C31 - C32    - H2B   
 10557  10560  10563      1    1.1432e+02    5.3932e+02 ;    C31 - C32    - N31   
 10558  10557  10559      1    1.0955e+02    3.2786e+02 ;    H1A - C31    - H1B   
 10558  10557  10560      1    1.1007e+02    3.8794e+02 ;    H1A - C31    - C32   
 10559  10557  10560      1    1.1007e+02    3.8794e+02 ;    H1B - C31    - C32   
 10560  10563  10564      1    1.1064e+02    5.2585e+02 ;    C32 - N31    - C33   
 10560  10563  10568      1    1.1064e+02    5.2585e+02 ;    C32 - N31    - C34   
 10560  10563  10572      1    1.1064e+02    5.2585e+02 ;    C32 - N31    - C35   
 10561  10560  10562      1    1.1074e+02    3.2669e+02 ;    H2A - C32    - H2B   
 10561  10560  10563      1    1.0791e+02    4.1020e+02 ;    H2A - C32    - N31   
 10562  10560  10563      1    1.0791e+02    4.1020e+02 ;    H2B - C32    - N31   
 10563  10564  10565      1    1.0791e+02    4.1020e+02 ;    N31 - C33    - H3A   
 10563  10564  10566      1    1.0791e+02    4.1020e+02 ;    N31 - C33    - H3B   
 10563  10564  10567      1    1.0791e+02    4.1020e+02 ;    N31 - C33    - H3C   
 10563  10568  10569      1    1.0791e+02    4.1020e+02 ;    N31 - C34    - H4A   
 10563  10568  10570      1    1.0791e+02    4.1020e+02 ;    N31 - C34    - H4B   
 10563  10568  10571      1    1.0791e+02    4.1020e+02 ;    N31 - C34    - H4C   
 10563  10572  10573      1    1.0791e+02    4.1020e+02 ;    N31 - C35    - H5A   
 10563  10572  10574      1    1.0791e+02    4.1020e+02 ;    N31 - C35    - H5B   
 10563  10572  10575      1    1.0791e+02    4.1020e+02 ;    N31 - C35    - H5C   
 10564  10563  10568      1    1.1064e+02    5.2585e+02 ;    C33 - N31    - C34   
 10564  10563  10572      1    1.1064e+02    5.2585e+02 ;    C33 - N31    - C35   
 10565  10564  10566      1    1.1074e+02    3.2669e+02 ;    H3A - C33    - H3B   
 10565  10564  10567      1    1.1074e+02    3.2669e+02 ;    H3A - C33    - H3C   
 10566  10564  10567      1    1.1074e+02    3.2669e+02 ;    H3B - C33    - H3C   
 10568  10563  10572      1    1.1064e+02    5.2585e+02 ;    C34 - N31    - C35   
 10569  10568  10570      1    1.1074e+02    3.2669e+02 ;    H4A - C34    - H4B   
 10569  10568  10571      1    1.1074e+02    3.2669e+02 ;    H4A - C34    - H4C   
 10570  10568  10571      1    1.1074e+02    3.2669e+02 ;    H4B - C34    - H4C   
 10573  10572  10574      1    1.1074e+02    3.2669e+02 ;    H5A - C35    - H5B   
 10573  10572  10575      1    1.1074e+02    3.2669e+02 ;    H5A - C35    - H5C   
 10574  10572  10575      1    1.1074e+02    3.2669e+02 ;    H5B - C35    - H5C   
 10576  10555  10577      1    1.1990e+02    1.1715e+03 ;    O33 - P31    - O34   
 10578  10579  10580      1    1.2333e+02    6.3538e+02 ;    O21 - C21    - O22   
 10578  10579  10618      1    1.1196e+02    5.7957e+02 ;    O21 - C21    - C12   
 10579  10618  10615      1    1.1053e+02    5.3379e+02 ;    C21 - C12    - C13   
 10579  10618  10619      1    1.0968e+02    3.9497e+02 ;    C21 - C12    - H2R   
 10579  10618  10620      1    1.0968e+02    3.9497e+02 ;    C21 - C12    - H2S   
 10580  10579  10618      1    1.2311e+02    5.6928e+02 ;    O22 - C21    - C12   
 10581  10582  10583      1    1.0835e+02    3.2995e+02 ;   H14T - C114   - H14R  
 10581  10582  10584      1    1.0835e+02    3.2995e+02 ;   H14T - C114   - H14S  
 10581  10582  10585      1    1.1005e+02    3.8802e+02 ;   H14T - C114   - C113  
 10582  10585  10586      1    1.1005e+02    3.8802e+02 ;   C114 - C113   - H13R  
 10582  10585  10587      1    1.1005e+02    3.8802e+02 ;   C114 - C113   - H13S  
 10582  10585  10588      1    1.1205e+02    3.9497e+02 ;   C114 - C113   - C112  
 10583  10582  10584      1    1.0835e+02    3.2995e+02 ;   H14R - C114   - H14S  
 10583  10582  10585      1    1.1005e+02    3.8802e+02 ;   H14R - C114   - C113  
 10584  10582  10585      1    1.1005e+02    3.8802e+02 ;   H14S - C114   - C113  
 10585  10588  10589      1    1.1005e+02    3.8802e+02 ;   C113 - C112   - H12R  
 10585  10588  10590      1    1.1005e+02    3.8802e+02 ;   C113 - C112   - H12S  
 10585  10588  10591      1    1.1205e+02    3.9497e+02 ;   C113 - C112   - C111  
 10586  10585  10587      1    1.0835e+02    3.2995e+02 ;   H13R - C113   - H13S  
 10586  10585  10588      1    1.1005e+02    3.8802e+02 ;   H13R - C113   - C112  
 10587  10585  10588      1    1.1005e+02    3.8802e+02 ;   H13S - C113   - C112  
 10588  10591  10592      1    1.1005e+02    3.8802e+02 ;   C112 - C111   - H11R  
 10588  10591  10593      1    1.1005e+02    3.8802e+02 ;   C112 - C111   - H11S  
 10588  10591  10594      1    1.1205e+02    3.9497e+02 ;   C112 - C111   - C110  
 10589  10588  10590      1    1.0835e+02    3.2995e+02 ;   H12R - C112   - H12S  
 10589  10588  10591      1    1.1005e+02    3.8802e+02 ;   H12R - C112   - C111  
 10590  10588  10591      1    1.1005e+02    3.8802e+02 ;   H12S - C112   - C111  
 10591  10594  10595      1    1.1005e+02    3.8802e+02 ;   C111 - C110   - H10R  
 10591  10594  10596      1    1.1005e+02    3.8802e+02 ;   C111 - C110   - H10S  
 10591  10594  10597      1    1.1205e+02    3.9497e+02 ;   C111 - C110   - C19   
 10592  10591  10593      1    1.0835e+02    3.2995e+02 ;   H11R - C111   - H11S  
 10592  10591  10594      1    1.1005e+02    3.8802e+02 ;   H11R - C111   - C110  
 10593  10591  10594      1    1.1005e+02    3.8802e+02 ;   H11S - C111   - C110  
 10594  10597  10598      1    1.1005e+02    3.8802e+02 ;   C110 - C19    - H9R   
 10594  10597  10599      1    1.1005e+02    3.8802e+02 ;   C110 - C19    - H9S   
 10594  10597  10600      1    1.1205e+02    3.9497e+02 ;   C110 - C19    - C18   
 10595  10594  10596      1    1.0835e+02    3.2995e+02 ;   H10R - C110   - H10S  
 10595  10594  10597      1    1.1005e+02    3.8802e+02 ;   H10R - C110   - C19   
 10596  10594  10597      1    1.1005e+02    3.8802e+02 ;   H10S - C110   - C19   
 10597  10600  10601      1    1.1005e+02    3.8802e+02 ;    C19 - C18    - H8R   
 10597  10600  10602      1    1.1005e+02    3.8802e+02 ;    C19 - C18    - H8S   
 10597  10600  10603      1    1.1205e+02    3.9497e+02 ;    C19 - C18    - C17   
 10598  10597  10599      1    1.0835e+02    3.2995e+02 ;    H9R - C19    - H9S   
 10598  10597  10600      1    1.1005e+02    3.8802e+02 ;    H9R - C19    - C18   
 10599  10597  10600      1    1.1005e+02    3.8802e+02 ;    H9S - C19    - C18   
 10600  10603  10604      1    1.1005e+02    3.8802e+02 ;    C18 - C17    - H7R   
 10600  10603  10605      1    1.1005e+02    3.8802e+02 ;    C18 - C17    - H7S   
 10600  10603  10606      1    1.1205e+02    3.9497e+02 ;    C18 - C17    - C16   
 10601  10600  10602      1    1.0835e+02    3.2995e+02 ;    H8R - C18    - H8S   
 10601  10600  10603      1    1.1005e+02    3.8802e+02 ;    H8R - C18    - C17   
 10602  10600  10603      1    1.1005e+02    3.8802e+02 ;    H8S - C18    - C17   
 10603  10606  10607      1    1.1005e+02    3.8802e+02 ;    C17 - C16    - H6R   
 10603  10606  10608      1    1.1005e+02    3.8802e+02 ;    C17 - C16    - H6S   
 10603  10606  10609      1    1.1205e+02    3.9497e+02 ;    C17 - C16    - C15   
 10604  10603  10605      1    1.0835e+02    3.2995e+02 ;    H7R - C17    - H7S   
 10604  10603  10606      1    1.1005e+02    3.8802e+02 ;    H7R - C17    - C16   
 10605  10603  10606      1    1.1005e+02    3.8802e+02 ;    H7S - C17    - C16   
 10606  10609  10610      1    1.1005e+02    3.8802e+02 ;    C16 - C15    - H5R   
 10606  10609  10611      1    1.1005e+02    3.8802e+02 ;    C16 - C15    - H5S   
 10606  10609  10612      1    1.1205e+02    3.9497e+02 ;    C16 - C15    - C14   
 10607  10606  10608      1    1.0835e+02    3.2995e+02 ;    H6R - C16    - H6S   
 10607  10606  10609      1    1.1005e+02    3.8802e+02 ;    H6R - C16    - C15   
 10608  10606  10609      1    1.1005e+02    3.8802e+02 ;    H6S - C16    - C15   
 10609  10612  10613      1    1.1005e+02    3.8802e+02 ;    C15 - C14    - H4R   
 10609  10612  10614      1    1.1005e+02    3.8802e+02 ;    C15 - C14    - H4S   
 10609  10612  10615      1    1.1205e+02    3.9497e+02 ;    C15 - C14    - C13   
 10610  10609  10611      1    1.0835e+02    3.2995e+02 ;    H5R - C15    - H5S   
 10610  10609  10612      1    1.1005e+02    3.8802e+02 ;    H5R - C15    - C14   
 10611  10609  10612      1    1.1005e+02    3.8802e+02 ;    H5S - C15    - C14   
 10612  10615  10616      1    1.1005e+02    3.8802e+02 ;    C14 - C13    - H3R   
 10612  10615  10617      1    1.1005e+02    3.8802e+02 ;    C14 - C13    - H3S   
 10612  10615  10618      1    1.1205e+02    3.9497e+02 ;    C14 - C13    - C12   
 10613  10612  10614      1    1.0835e+02    3.2995e+02 ;    H4R - C14    - H4S   
 10613  10612  10615      1    1.1005e+02    3.8802e+02 ;    H4R - C14    - C13   
 10614  10612  10615      1    1.1005e+02    3.8802e+02 ;    H4S - C14    - C13   
 10615  10618  10619      1    1.1005e+02    3.8802e+02 ;    C13 - C12    - H2R   
 10615  10618  10620      1    1.1005e+02    3.8802e+02 ;    C13 - C12    - H2S   
 10616  10615  10617      1    1.0835e+02    3.2995e+02 ;    H3R - C13    - H3S   
 10616  10615  10618      1    1.1005e+02    3.8802e+02 ;    H3R - C13    - C12   
 10617  10615  10618      1    1.1005e+02    3.8802e+02 ;    H3S - C13    - C12   
 10619  10618  10620      1    1.0835e+02    3.2995e+02 ;    H2R - C12    - H2S   
 10621  10622  10623      1    1.0835e+02    3.2995e+02 ;   H14T - C114   - H14R  
 10621  10622  10624      1    1.0835e+02    3.2995e+02 ;   H14T - C114   - H14S  
 10621  10622  10625      1    1.1005e+02    3.8802e+02 ;   H14T - C114   - C113  
 10622  10625  10626      1    1.1005e+02    3.8802e+02 ;   C114 - C113   - H13R  
 10622  10625  10627      1    1.1005e+02    3.8802e+02 ;   C114 - C113   - H13S  
 10622  10625  10628      1    1.1205e+02    3.9497e+02 ;   C114 - C113   - C112  
 10623  10622  10624      1    1.0835e+02    3.2995e+02 ;   H14R - C114   - H14S  
 10623  10622  10625      1    1.1005e+02    3.8802e+02 ;   H14R - C114   - C113  
 10624  10622  10625      1    1.1005e+02    3.8802e+02 ;   H14S - C114   - C113  
 10625  10628  10629      1    1.1005e+02    3.8802e+02 ;   C113 - C112   - H12R  
 10625  10628  10630      1    1.1005e+02    3.8802e+02 ;   C113 - C112   - H12S  
 10625  10628  10631      1    1.1205e+02    3.9497e+02 ;   C113 - C112   - C111  
 10626  10625  10627      1    1.0835e+02    3.2995e+02 ;   H13R - C113   - H13S  
 10626  10625  10628      1    1.1005e+02    3.8802e+02 ;   H13R - C113   - C112  
 10627  10625  10628      1    1.1005e+02    3.8802e+02 ;   H13S - C113   - C112  
 10628  10631  10632      1    1.1005e+02    3.8802e+02 ;   C112 - C111   - H11R  
 10628  10631  10633      1    1.1005e+02    3.8802e+02 ;   C112 - C111   - H11S  
 10628  10631  10634      1    1.1205e+02    3.9497e+02 ;   C112 - C111   - C110  
 10629  10628  10630      1    1.0835e+02    3.2995e+02 ;   H12R - C112   - H12S  
 10629  10628  10631      1    1.1005e+02    3.8802e+02 ;   H12R - C112   - C111  
 10630  10628  10631      1    1.1005e+02    3.8802e+02 ;   H12S - C112   - C111  
 10631  10634  10635      1    1.1005e+02    3.8802e+02 ;   C111 - C110   - H10R  
 10631  10634  10636      1    1.1005e+02    3.8802e+02 ;   C111 - C110   - H10S  
 10631  10634  10637      1    1.1205e+02    3.9497e+02 ;   C111 - C110   - C19   
 10632  10631  10633      1    1.0835e+02    3.2995e+02 ;   H11R - C111   - H11S  
 10632  10631  10634      1    1.1005e+02    3.8802e+02 ;   H11R - C111   - C110  
 10633  10631  10634      1    1.1005e+02    3.8802e+02 ;   H11S - C111   - C110  
 10634  10637  10638      1    1.1005e+02    3.8802e+02 ;   C110 - C19    - H9R   
 10634  10637  10639      1    1.1005e+02    3.8802e+02 ;   C110 - C19    - H9S   
 10634  10637  10640      1    1.1205e+02    3.9497e+02 ;   C110 - C19    - C18   
 10635  10634  10636      1    1.0835e+02    3.2995e+02 ;   H10R - C110   - H10S  
 10635  10634  10637      1    1.1005e+02    3.8802e+02 ;   H10R - C110   - C19   
 10636  10634  10637      1    1.1005e+02    3.8802e+02 ;   H10S - C110   - C19   
 10637  10640  10641      1    1.1005e+02    3.8802e+02 ;    C19 - C18    - H8R   
 10637  10640  10642      1    1.1005e+02    3.8802e+02 ;    C19 - C18    - H8S   
 10637  10640  10643      1    1.1205e+02    3.9497e+02 ;    C19 - C18    - C17   
 10638  10637  10639      1    1.0835e+02    3.2995e+02 ;    H9R - C19    - H9S   
 10638  10637  10640      1    1.1005e+02    3.8802e+02 ;    H9R - C19    - C18   
 10639  10637  10640      1    1.1005e+02    3.8802e+02 ;    H9S - C19    - C18   
 10640  10643  10644      1    1.1005e+02    3.8802e+02 ;    C18 - C17    - H7R   
 10640  10643  10645      1    1.1005e+02    3.8802e+02 ;    C18 - C17    - H7S   
 10640  10643  10646      1    1.1205e+02    3.9497e+02 ;    C18 - C17    - C16   
 10641  10640  10642      1    1.0835e+02    3.2995e+02 ;    H8R - C18    - H8S   
 10641  10640  10643      1    1.1005e+02    3.8802e+02 ;    H8R - C18    - C17   
 10642  10640  10643      1    1.1005e+02    3.8802e+02 ;    H8S - C18    - C17   
 10643  10646  10647      1    1.1005e+02    3.8802e+02 ;    C17 - C16    - H6R   
 10643  10646  10648      1    1.1005e+02    3.8802e+02 ;    C17 - C16    - H6S   
 10643  10646  10649      1    1.1205e+02    3.9497e+02 ;    C17 - C16    - C15   
 10644  10643  10645      1    1.0835e+02    3.2995e+02 ;    H7R - C17    - H7S   
 10644  10643  10646      1    1.1005e+02    3.8802e+02 ;    H7R - C17    - C16   
 10645  10643  10646      1    1.1005e+02    3.8802e+02 ;    H7S - C17    - C16   
 10646  10649  10650      1    1.1005e+02    3.8802e+02 ;    C16 - C15    - H5R   
 10646  10649  10651      1    1.1005e+02    3.8802e+02 ;    C16 - C15    - H5S   
 10646  10649  10652      1    1.1205e+02    3.9497e+02 ;    C16 - C15    - C14   
 10647  10646  10648      1    1.0835e+02    3.2995e+02 ;    H6R - C16    - H6S   
 10647  10646  10649      1    1.1005e+02    3.8802e+02 ;    H6R - C16    - C15   
 10648  10646  10649      1    1.1005e+02    3.8802e+02 ;    H6S - C16    - C15   
 10649  10652  10653      1    1.1005e+02    3.8802e+02 ;    C15 - C14    - H4R   
 10649  10652  10654      1    1.1005e+02    3.8802e+02 ;    C15 - C14    - H4S   
 10649  10652  10655      1    1.1205e+02    3.9497e+02 ;    C15 - C14    - C13   
 10650  10649  10651      1    1.0835e+02    3.2995e+02 ;    H5R - C15    - H5S   
 10650  10649  10652      1    1.1005e+02    3.8802e+02 ;    H5R - C15    - C14   
 10651  10649  10652      1    1.1005e+02    3.8802e+02 ;    H5S - C15    - C14   
 10652  10655  10656      1    1.1005e+02    3.8802e+02 ;    C14 - C13    - H3R   
 10652  10655  10657      1    1.1005e+02    3.8802e+02 ;    C14 - C13    - H3S   
 10652  10655  10658      1    1.1205e+02    3.9497e+02 ;    C14 - C13    - C12   
 10653  10652  10654      1    1.0835e+02    3.2995e+02 ;    H4R - C14    - H4S   
 10653  10652  10655      1    1.1005e+02    3.8802e+02 ;    H4R - C14    - C13   
 10654  10652  10655      1    1.1005e+02    3.8802e+02 ;    H4S - C14    - C13   
 10655  10658  10659      1    1.1005e+02    3.8802e+02 ;    C13 - C12    - H2R   
 10655  10658  10660      1    1.1005e+02    3.8802e+02 ;    C13 - C12    - H2S   
 10655  10658  10661      1    1.1053e+02    5.3379e+02 ;    C13 - C12    - C11   
 10656  10655  10657      1    1.0835e+02    3.2995e+02 ;    H3R - C13    - H3S   
 10656  10655  10658      1    1.1005e+02    3.8802e+02 ;    H3R - C13    - C12   
 10657  10655  10658      1    1.1005e+02    3.8802e+02 ;    H3S - C13    - C12   
 10658  10661  10662      1    1.2311e+02    5.6928e+02 ;    C12 - C11    - O12   
 10658  10661  10663      1    1.1196e+02    5.7957e+02 ;    C12 - C11    - O11   
 10659  10658  10660      1    1.0835e+02    3.2995e+02 ;    H2R - C12    - H2S   
 10659  10658  10661      1    1.0968e+02    3.9497e+02 ;    H2R - C12    - C11   
 10660  10658  10661      1    1.0968e+02    3.9497e+02 ;    H2S - C12    - C11   
 10661  10663  10664      1    1.1514e+02    5.3246e+02 ;    C11 - O11    - C1    
 10662  10661  10663      1    1.2333e+02    6.3538e+02 ;    O12 - C11    - O11   
 10663  10664  10665      1    1.0882e+02    4.2543e+02 ;    O11 - C1     - HR    
 10663  10664  10666      1    1.0882e+02    4.2543e+02 ;    O11 - C1     - HS    
 10663  10664  10667      1    1.0842e+02    5.6718e+02 ;    O11 - C1     - C2    
 10664  10667  10668      1    1.1007e+02    3.8794e+02 ;     C1 - C2     - HX    
 10664  10667  10669      1    1.1063e+02    5.2894e+02 ;     C1 - C2     - C3    
 10664  10667  10696      1    1.0842e+02    5.6718e+02 ;     C1 - C2     - O21   
 10665  10664  10666      1    1.0955e+02    3.2786e+02 ;     HR - C1     - HS    
 10665  10664  10667      1    1.1007e+02    3.8794e+02 ;     HR - C1     - C2    
 10666  10664  10667      1    1.1007e+02    3.8794e+02 ;     HS - C1     - C2    
 10667  10669  10670      1    1.1007e+02    3.8794e+02 ;     C2 - C3     - HA    
 10667  10669  10671      1    1.1007e+02    3.8794e+02 ;     C2 - C3     - HB    
 10667  10669  10672      1    1.0842e+02    5.6718e+02 ;     C2 - C3     - O31   
 10667  10696  10697      1    1.1514e+02    5.3246e+02 ;     C2 - O21    - C21   
 10668  10667  10669      1    1.1007e+02    3.8794e+02 ;     HX - C2     - C3    
 10668  10667  10696      1    1.0882e+02    4.2543e+02 ;     HX - C2     - O21   
 10669  10667  10696      1    1.0842e+02    5.6718e+02 ;     C3 - C2     - O21   
 10669  10672  10673      1    1.2050e+02    8.3680e+02 ;     C3 - O31    - P31   
 10670  10669  10671      1    1.0955e+02    3.2786e+02 ;     HA - C3     - HB    
 10670  10669  10672      1    1.0882e+02    4.2543e+02 ;     HA - C3     - O31   
 10671  10669  10672      1    1.0882e+02    4.2543e+02 ;     HB - C3     - O31   
 10672  10673  10674      1    1.0260e+02    7.5312e+02 ;    O31 - P31    - O32   
 10672  10673  10694      1    1.0823e+02    8.3680e+02 ;    O31 - P31    - O33   
 10672  10673  10695      1    1.0823e+02    8.3680e+02 ;    O31 - P31    - O34   
 10673  10674  10675      1    1.2050e+02    8.3680e+02 ;    P31 - O32    - C31   
 10674  10673  10694      1    1.0823e+02    8.3680e+02 ;    O32 - P31    - O33   
 10674  10673  10695      1    1.0823e+02    8.3680e+02 ;    O32 - P31    - O34   
 10674  10675  10676      1    1.0882e+02    4.2543e+02 ;    O32 - C31    - H1A   
 10674  10675  10677      1    1.0882e+02    4.2543e+02 ;    O32 - C31    - H1B   
 10674  10675  10678      1    1.0842e+02    5.6718e+02 ;    O32 - C31    - C32   
 10675  10678  10679      1    1.1174e+02    3.8510e+02 ;    C31 - C32    - H2A   
 10675  10678  10680      1    1.1174e+02    3.8510e+02 ;    C31 - C32    - H2B   
 10675  10678  10681      1    1.1432e+02    5.3932e+02 ;    C31 - C32    - N31   
 10676  10675  10677      1    1.0955e+02    3.2786e+02 ;    H1A - C31    - H1B   
 10676  10675  10678      1    1.1007e+02    3.8794e+02 ;    H1A - C31    - C32   
 10677  10675  10678      1    1.1007e+02    3.8794e+02 ;    H1B - C31    - C32   
 10678  10681  10682      1    1.1064e+02    5.2585e+02 ;    C32 - N31    - C33   
 10678  10681  10686      1    1.1064e+02    5.2585e+02 ;    C32 - N31    - C34   
 10678  10681  10690      1    1.1064e+02    5.2585e+02 ;    C32 - N31    - C35   
 10679  10678  10680      1    1.1074e+02    3.2669e+02 ;    H2A - C32    - H2B   
 10679  10678  10681      1    1.0791e+02    4.1020e+02 ;    H2A - C32    - N31   
 10680  10678  10681      1    1.0791e+02    4.1020e+02 ;    H2B - C32    - N31   
 10681  10682  10683      1    1.0791e+02    4.1020e+02 ;    N31 - C33    - H3A   
 10681  10682  10684      1    1.0791e+02    4.1020e+02 ;    N31 - C33    - H3B   
 10681  10682  10685      1    1.0791e+02    4.1020e+02 ;    N31 - C33    - H3C   
 10681  10686  10687      1    1.0791e+02    4.1020e+02 ;    N31 - C34    - H4A   
 10681  10686  10688      1    1.0791e+02    4.1020e+02 ;    N31 - C34    - H4B   
 10681  10686  10689      1    1.0791e+02    4.1020e+02 ;    N31 - C34    - H4C   
 10681  10690  10691      1    1.0791e+02    4.1020e+02 ;    N31 - C35    - H5A   
 10681  10690  10692      1    1.0791e+02    4.1020e+02 ;    N31 - C35    - H5B   
 10681  10690  10693      1    1.0791e+02    4.1020e+02 ;    N31 - C35    - H5C   
 10682  10681  10686      1    1.1064e+02    5.2585e+02 ;    C33 - N31    - C34   
 10682  10681  10690      1    1.1064e+02    5.2585e+02 ;    C33 - N31    - C35   
 10683  10682  10684      1    1.1074e+02    3.2669e+02 ;    H3A - C33    - H3B   
 10683  10682  10685      1    1.1074e+02    3.2669e+02 ;    H3A - C33    - H3C   
 10684  10682  10685      1    1.1074e+02    3.2669e+02 ;    H3B - C33    - H3C   
 10686  10681  10690      1    1.1064e+02    5.2585e+02 ;    C34 - N31    - C35   
 10687  10686  10688      1    1.1074e+02    3.2669e+02 ;    H4A - C34    - H4B   
 10687  10686  10689      1    1.1074e+02    3.2669e+02 ;    H4A - C34    - H4C   
 10688  10686  10689      1    1.1074e+02    3.2669e+02 ;    H4B - C34    - H4C   
 10691  10690  10692      1    1.1074e+02    3.2669e+02 ;    H5A - C35    - H5B   
 10691  10690  10693      1    1.1074e+02    3.2669e+02 ;    H5A - C35    - H5C   
 10692  10690  10693      1    1.1074e+02    3.2669e+02 ;    H5B - C35    - H5C   
 10694  10673  10695      1    1.1990e+02    1.1715e+03 ;    O33 - P31    - O34   
 10696  10697  10698      1    1.2333e+02    6.3538e+02 ;    O21 - C21    - O22   
 10696  10697  10736      1    1.1196e+02    5.7957e+02 ;    O21 - C21    - C12   
 10697  10736  10733      1    1.1053e+02    5.3379e+02 ;    C21 - C12    - C13   
 10697  10736  10737      1    1.0968e+02    3.9497e+02 ;    C21 - C12    - H2R   
 10697  10736  10738      1    1.0968e+02    3.9497e+02 ;    C21 - C12    - H2S   
 10698  10697  10736      1    1.2311e+02    5.6928e+02 ;    O22 - C21    - C12   
 10699  10700  10701      1    1.0835e+02    3.2995e+02 ;   H14T - C114   - H14R  
 10699  10700  10702      1    1.0835e+02    3.2995e+02 ;   H14T - C114   - H14S  
 10699  10700  10703      1    1.1005e+02    3.8802e+02 ;   H14T - C114   - C113  
 10700  10703  10704      1    1.1005e+02    3.8802e+02 ;   C114 - C113   - H13R  
 10700  10703  10705      1    1.1005e+02    3.8802e+02 ;   C114 - C113   - H13S  
 10700  10703  10706      1    1.1205e+02    3.9497e+02 ;   C114 - C113   - C112  
 10701  10700  10702      1    1.0835e+02    3.2995e+02 ;   H14R - C114   - H14S  
 10701  10700  10703      1    1.1005e+02    3.8802e+02 ;   H14R - C114   - C113  
 10702  10700  10703      1    1.1005e+02    3.8802e+02 ;   H14S - C114   - C113  
 10703  10706  10707      1    1.1005e+02    3.8802e+02 ;   C113 - C112   - H12R  
 10703  10706  10708      1    1.1005e+02    3.8802e+02 ;   C113 - C112   - H12S  
 10703  10706  10709      1    1.1205e+02    3.9497e+02 ;   C113 - C112   - C111  
 10704  10703  10705      1    1.0835e+02    3.2995e+02 ;   H13R - C113   - H13S  
 10704  10703  10706      1    1.1005e+02    3.8802e+02 ;   H13R - C113   - C112  
 10705  10703  10706      1    1.1005e+02    3.8802e+02 ;   H13S - C113   - C112  
 10706  10709  10710      1    1.1005e+02    3.8802e+02 ;   C112 - C111   - H11R  
 10706  10709  10711      1    1.1005e+02    3.8802e+02 ;   C112 - C111   - H11S  
 10706  10709  10712      1    1.1205e+02    3.9497e+02 ;   C112 - C111   - C110  
 10707  10706  10708      1    1.0835e+02    3.2995e+02 ;   H12R - C112   - H12S  
 10707  10706  10709      1    1.1005e+02    3.8802e+02 ;   H12R - C112   - C111  
 10708  10706  10709      1    1.1005e+02    3.8802e+02 ;   H12S - C112   - C111  
 10709  10712  10713      1    1.1005e+02    3.8802e+02 ;   C111 - C110   - H10R  
 10709  10712  10714      1    1.1005e+02    3.8802e+02 ;   C111 - C110   - H10S  
 10709  10712  10715      1    1.1205e+02    3.9497e+02 ;   C111 - C110   - C19   
 10710  10709  10711      1    1.0835e+02    3.2995e+02 ;   H11R - C111   - H11S  
 10710  10709  10712      1    1.1005e+02    3.8802e+02 ;   H11R - C111   - C110  
 10711  10709  10712      1    1.1005e+02    3.8802e+02 ;   H11S - C111   - C110  
 10712  10715  10716      1    1.1005e+02    3.8802e+02 ;   C110 - C19    - H9R   
 10712  10715  10717      1    1.1005e+02    3.8802e+02 ;   C110 - C19    - H9S   
 10712  10715  10718      1    1.1205e+02    3.9497e+02 ;   C110 - C19    - C18   
 10713  10712  10714      1    1.0835e+02    3.2995e+02 ;   H10R - C110   - H10S  
 10713  10712  10715      1    1.1005e+02    3.8802e+02 ;   H10R - C110   - C19   
 10714  10712  10715      1    1.1005e+02    3.8802e+02 ;   H10S - C110   - C19   
 10715  10718  10719      1    1.1005e+02    3.8802e+02 ;    C19 - C18    - H8R   
 10715  10718  10720      1    1.1005e+02    3.8802e+02 ;    C19 - C18    - H8S   
 10715  10718  10721      1    1.1205e+02    3.9497e+02 ;    C19 - C18    - C17   
 10716  10715  10717      1    1.0835e+02    3.2995e+02 ;    H9R - C19    - H9S   
 10716  10715  10718      1    1.1005e+02    3.8802e+02 ;    H9R - C19    - C18   
 10717  10715  10718      1    1.1005e+02    3.8802e+02 ;    H9S - C19    - C18   
 10718  10721  10722      1    1.1005e+02    3.8802e+02 ;    C18 - C17    - H7R   
 10718  10721  10723      1    1.1005e+02    3.8802e+02 ;    C18 - C17    - H7S   
 10718  10721  10724      1    1.1205e+02    3.9497e+02 ;    C18 - C17    - C16   
 10719  10718  10720      1    1.0835e+02    3.2995e+02 ;    H8R - C18    - H8S   
 10719  10718  10721      1    1.1005e+02    3.8802e+02 ;    H8R - C18    - C17   
 10720  10718  10721      1    1.1005e+02    3.8802e+02 ;    H8S - C18    - C17   
 10721  10724  10725      1    1.1005e+02    3.8802e+02 ;    C17 - C16    - H6R   
 10721  10724  10726      1    1.1005e+02    3.8802e+02 ;    C17 - C16    - H6S   
 10721  10724  10727      1    1.1205e+02    3.9497e+02 ;    C17 - C16    - C15   
 10722  10721  10723      1    1.0835e+02    3.2995e+02 ;    H7R - C17    - H7S   
 10722  10721  10724      1    1.1005e+02    3.8802e+02 ;    H7R - C17    - C16   
 10723  10721  10724      1    1.1005e+02    3.8802e+02 ;    H7S - C17    - C16   
 10724  10727  10728      1    1.1005e+02    3.8802e+02 ;    C16 - C15    - H5R   
 10724  10727  10729      1    1.1005e+02    3.8802e+02 ;    C16 - C15    - H5S   
 10724  10727  10730      1    1.1205e+02    3.9497e+02 ;    C16 - C15    - C14   
 10725  10724  10726      1    1.0835e+02    3.2995e+02 ;    H6R - C16    - H6S   
 10725  10724  10727      1    1.1005e+02    3.8802e+02 ;    H6R - C16    - C15   
 10726  10724  10727      1    1.1005e+02    3.8802e+02 ;    H6S - C16    - C15   
 10727  10730  10731      1    1.1005e+02    3.8802e+02 ;    C15 - C14    - H4R   
 10727  10730  10732      1    1.1005e+02    3.8802e+02 ;    C15 - C14    - H4S   
 10727  10730  10733      1    1.1205e+02    3.9497e+02 ;    C15 - C14    - C13   
 10728  10727  10729      1    1.0835e+02    3.2995e+02 ;    H5R - C15    - H5S   
 10728  10727  10730      1    1.1005e+02    3.8802e+02 ;    H5R - C15    - C14   
 10729  10727  10730      1    1.1005e+02    3.8802e+02 ;    H5S - C15    - C14   
 10730  10733  10734      1    1.1005e+02    3.8802e+02 ;    C14 - C13    - H3R   
 10730  10733  10735      1    1.1005e+02    3.8802e+02 ;    C14 - C13    - H3S   
 10730  10733  10736      1    1.1205e+02    3.9497e+02 ;    C14 - C13    - C12   
 10731  10730  10732      1    1.0835e+02    3.2995e+02 ;    H4R - C14    - H4S   
 10731  10730  10733      1    1.1005e+02    3.8802e+02 ;    H4R - C14    - C13   
 10732  10730  10733      1    1.1005e+02    3.8802e+02 ;    H4S - C14    - C13   
 10733  10736  10737      1    1.1005e+02    3.8802e+02 ;    C13 - C12    - H2R   
 10733  10736  10738      1    1.1005e+02    3.8802e+02 ;    C13 - C12    - H2S   
 10734  10733  10735      1    1.0835e+02    3.2995e+02 ;    H3R - C13    - H3S   
 10734  10733  10736      1    1.1005e+02    3.8802e+02 ;    H3R - C13    - C12   
 10735  10733  10736      1    1.1005e+02    3.8802e+02 ;    H3S - C13    - C12   
 10737  10736  10738      1    1.0835e+02    3.2995e+02 ;    H2R - C12    - H2S   
 10739  10740  10741      1    1.0835e+02    3.2995e+02 ;   H14T - C114   - H14R  
 10739  10740  10742      1    1.0835e+02    3.2995e+02 ;   H14T - C114   - H14S  
 10739  10740  10743      1    1.1005e+02    3.8802e+02 ;   H14T - C114   - C113  
 10740  10743  10744      1    1.1005e+02    3.8802e+02 ;   C114 - C113   - H13R  
 10740  10743  10745      1    1.1005e+02    3.8802e+02 ;   C114 - C113   - H13S  
 10740  10743  10746      1    1.1205e+02    3.9497e+02 ;   C114 - C113   - C112  
 10741  10740  10742      1    1.0835e+02    3.2995e+02 ;   H14R - C114   - H14S  
 10741  10740  10743      1    1.1005e+02    3.8802e+02 ;   H14R - C114   - C113  
 10742  10740  10743      1    1.1005e+02    3.8802e+02 ;   H14S - C114   - C113  
 10743  10746  10747      1    1.1005e+02    3.8802e+02 ;   C113 - C112   - H12R  
 10743  10746  10748      1    1.1005e+02    3.8802e+02 ;   C113 - C112   - H12S  
 10743  10746  10749      1    1.1205e+02    3.9497e+02 ;   C113 - C112   - C111  
 10744  10743  10745      1    1.0835e+02    3.2995e+02 ;   H13R - C113   - H13S  
 10744  10743  10746      1    1.1005e+02    3.8802e+02 ;   H13R - C113   - C112  
 10745  10743  10746      1    1.1005e+02    3.8802e+02 ;   H13S - C113   - C112  
 10746  10749  10750      1    1.1005e+02    3.8802e+02 ;   C112 - C111   - H11R  
 10746  10749  10751      1    1.1005e+02    3.8802e+02 ;   C112 - C111   - H11S  
 10746  10749  10752      1    1.1205e+02    3.9497e+02 ;   C112 - C111   - C110  
 10747  10746  10748      1    1.0835e+02    3.2995e+02 ;   H12R - C112   - H12S  
 10747  10746  10749      1    1.1005e+02    3.8802e+02 ;   H12R - C112   - C111  
 10748  10746  10749      1    1.1005e+02    3.8802e+02 ;   H12S - C112   - C111  
 10749  10752  10753      1    1.1005e+02    3.8802e+02 ;   C111 - C110   - H10R  
 10749  10752  10754      1    1.1005e+02    3.8802e+02 ;   C111 - C110   - H10S  
 10749  10752  10755      1    1.1205e+02    3.9497e+02 ;   C111 - C110   - C19   
 10750  10749  10751      1    1.0835e+02    3.2995e+02 ;   H11R - C111   - H11S  
 10750  10749  10752      1    1.1005e+02    3.8802e+02 ;   H11R - C111   - C110  
 10751  10749  10752      1    1.1005e+02    3.8802e+02 ;   H11S - C111   - C110  
 10752  10755  10756      1    1.1005e+02    3.8802e+02 ;   C110 - C19    - H9R   
 10752  10755  10757      1    1.1005e+02    3.8802e+02 ;   C110 - C19    - H9S   
 10752  10755  10758      1    1.1205e+02    3.9497e+02 ;   C110 - C19    - C18   
 10753  10752  10754      1    1.0835e+02    3.2995e+02 ;   H10R - C110   - H10S  
 10753  10752  10755      1    1.1005e+02    3.8802e+02 ;   H10R - C110   - C19   
 10754  10752  10755      1    1.1005e+02    3.8802e+02 ;   H10S - C110   - C19   
 10755  10758  10759      1    1.1005e+02    3.8802e+02 ;    C19 - C18    - H8R   
 10755  10758  10760      1    1.1005e+02    3.8802e+02 ;    C19 - C18    - H8S   
 10755  10758  10761      1    1.1205e+02    3.9497e+02 ;    C19 - C18    - C17   
 10756  10755  10757      1    1.0835e+02    3.2995e+02 ;    H9R - C19    - H9S   
 10756  10755  10758      1    1.1005e+02    3.8802e+02 ;    H9R - C19    - C18   
 10757  10755  10758      1    1.1005e+02    3.8802e+02 ;    H9S - C19    - C18   
 10758  10761  10762      1    1.1005e+02    3.8802e+02 ;    C18 - C17    - H7R   
 10758  10761  10763      1    1.1005e+02    3.8802e+02 ;    C18 - C17    - H7S   
 10758  10761  10764      1    1.1205e+02    3.9497e+02 ;    C18 - C17    - C16   
 10759  10758  10760      1    1.0835e+02    3.2995e+02 ;    H8R - C18    - H8S   
 10759  10758  10761      1    1.1005e+02    3.8802e+02 ;    H8R - C18    - C17   
 10760  10758  10761      1    1.1005e+02    3.8802e+02 ;    H8S - C18    - C17   
 10761  10764  10765      1    1.1005e+02    3.8802e+02 ;    C17 - C16    - H6R   
 10761  10764  10766      1    1.1005e+02    3.8802e+02 ;    C17 - C16    - H6S   
 10761  10764  10767      1    1.1205e+02    3.9497e+02 ;    C17 - C16    - C15   
 10762  10761  10763      1    1.0835e+02    3.2995e+02 ;    H7R - C17    - H7S   
 10762  10761  10764      1    1.1005e+02    3.8802e+02 ;    H7R - C17    - C16   
 10763  10761  10764      1    1.1005e+02    3.8802e+02 ;    H7S - C17    - C16   
 10764  10767  10768      1    1.1005e+02    3.8802e+02 ;    C16 - C15    - H5R   
 10764  10767  10769      1    1.1005e+02    3.8802e+02 ;    C16 - C15    - H5S   
 10764  10767  10770      1    1.1205e+02    3.9497e+02 ;    C16 - C15    - C14   
 10765  10764  10766      1    1.0835e+02    3.2995e+02 ;    H6R - C16    - H6S   
 10765  10764  10767      1    1.1005e+02    3.8802e+02 ;    H6R - C16    - C15   
 10766  10764  10767      1    1.1005e+02    3.8802e+02 ;    H6S - C16    - C15   
 10767  10770  10771      1    1.1005e+02    3.8802e+02 ;    C15 - C14    - H4R   
 10767  10770  10772      1    1.1005e+02    3.8802e+02 ;    C15 - C14    - H4S   
 10767  10770  10773      1    1.1205e+02    3.9497e+02 ;    C15 - C14    - C13   
 10768  10767  10769      1    1.0835e+02    3.2995e+02 ;    H5R - C15    - H5S   
 10768  10767  10770      1    1.1005e+02    3.8802e+02 ;    H5R - C15    - C14   
 10769  10767  10770      1    1.1005e+02    3.8802e+02 ;    H5S - C15    - C14   
 10770  10773  10774      1    1.1005e+02    3.8802e+02 ;    C14 - C13    - H3R   
 10770  10773  10775      1    1.1005e+02    3.8802e+02 ;    C14 - C13    - H3S   
 10770  10773  10776      1    1.1205e+02    3.9497e+02 ;    C14 - C13    - C12   
 10771  10770  10772      1    1.0835e+02    3.2995e+02 ;    H4R - C14    - H4S   
 10771  10770  10773      1    1.1005e+02    3.8802e+02 ;    H4R - C14    - C13   
 10772  10770  10773      1    1.1005e+02    3.8802e+02 ;    H4S - C14    - C13   
 10773  10776  10777      1    1.1005e+02    3.8802e+02 ;    C13 - C12    - H2R   
 10773  10776  10778      1    1.1005e+02    3.8802e+02 ;    C13 - C12    - H2S   
 10773  10776  10779      1    1.1053e+02    5.3379e+02 ;    C13 - C12    - C11   
 10774  10773  10775      1    1.0835e+02    3.2995e+02 ;    H3R - C13    - H3S   
 10774  10773  10776      1    1.1005e+02    3.8802e+02 ;    H3R - C13    - C12   
 10775  10773  10776      1    1.1005e+02    3.8802e+02 ;    H3S - C13    - C12   
 10776  10779  10780      1    1.2311e+02    5.6928e+02 ;    C12 - C11    - O12   
 10776  10779  10781      1    1.1196e+02    5.7957e+02 ;    C12 - C11    - O11   
 10777  10776  10778      1    1.0835e+02    3.2995e+02 ;    H2R - C12    - H2S   
 10777  10776  10779      1    1.0968e+02    3.9497e+02 ;    H2R - C12    - C11   
 10778  10776  10779      1    1.0968e+02    3.9497e+02 ;    H2S - C12    - C11   
 10779  10781  10782      1    1.1514e+02    5.3246e+02 ;    C11 - O11    - C1    
 10780  10779  10781      1    1.2333e+02    6.3538e+02 ;    O12 - C11    - O11   
 10781  10782  10783      1    1.0882e+02    4.2543e+02 ;    O11 - C1     - HR    
 10781  10782  10784      1    1.0882e+02    4.2543e+02 ;    O11 - C1     - HS    
 10781  10782  10785      1    1.0842e+02    5.6718e+02 ;    O11 - C1     - C2    
 10782  10785  10786      1    1.1007e+02    3.8794e+02 ;     C1 - C2     - HX    
 10782  10785  10787      1    1.1063e+02    5.2894e+02 ;     C1 - C2     - C3    
 10782  10785  10814      1    1.0842e+02    5.6718e+02 ;     C1 - C2     - O21   
 10783  10782  10784      1    1.0955e+02    3.2786e+02 ;     HR - C1     - HS    
 10783  10782  10785      1    1.1007e+02    3.8794e+02 ;     HR - C1     - C2    
 10784  10782  10785      1    1.1007e+02    3.8794e+02 ;     HS - C1     - C2    
 10785  10787  10788      1    1.1007e+02    3.8794e+02 ;     C2 - C3     - HA    
 10785  10787  10789      1    1.1007e+02    3.8794e+02 ;     C2 - C3     - HB    
 10785  10787  10790      1    1.0842e+02    5.6718e+02 ;     C2 - C3     - O31   
 10785  10814  10815      1    1.1514e+02    5.3246e+02 ;     C2 - O21    - C21   
 10786  10785  10787      1    1.1007e+02    3.8794e+02 ;     HX - C2     - C3    
 10786  10785  10814      1    1.0882e+02    4.2543e+02 ;     HX - C2     - O21   
 10787  10785  10814      1    1.0842e+02    5.6718e+02 ;     C3 - C2     - O21   
 10787  10790  10791      1    1.2050e+02    8.3680e+02 ;     C3 - O31    - P31   
 10788  10787  10789      1    1.0955e+02    3.2786e+02 ;     HA - C3     - HB    
 10788  10787  10790      1    1.0882e+02    4.2543e+02 ;     HA - C3     - O31   
 10789  10787  10790      1    1.0882e+02    4.2543e+02 ;     HB - C3     - O31   
 10790  10791  10792      1    1.0260e+02    7.5312e+02 ;    O31 - P31    - O32   
 10790  10791  10812      1    1.0823e+02    8.3680e+02 ;    O31 - P31    - O33   
 10790  10791  10813      1    1.0823e+02    8.3680e+02 ;    O31 - P31    - O34   
 10791  10792  10793      1    1.2050e+02    8.3680e+02 ;    P31 - O32    - C31   
 10792  10791  10812      1    1.0823e+02    8.3680e+02 ;    O32 - P31    - O33   
 10792  10791  10813      1    1.0823e+02    8.3680e+02 ;    O32 - P31    - O34   
 10792  10793  10794      1    1.0882e+02    4.2543e+02 ;    O32 - C31    - H1A   
 10792  10793  10795      1    1.0882e+02    4.2543e+02 ;    O32 - C31    - H1B   
 10792  10793  10796      1    1.0842e+02    5.6718e+02 ;    O32 - C31    - C32   
 10793  10796  10797      1    1.1174e+02    3.8510e+02 ;    C31 - C32    - H2A   
 10793  10796  10798      1    1.1174e+02    3.8510e+02 ;    C31 - C32    - H2B   
 10793  10796  10799      1    1.1432e+02    5.3932e+02 ;    C31 - C32    - N31   
 10794  10793  10795      1    1.0955e+02    3.2786e+02 ;    H1A - C31    - H1B   
 10794  10793  10796      1    1.1007e+02    3.8794e+02 ;    H1A - C31    - C32   
 10795  10793  10796      1    1.1007e+02    3.8794e+02 ;    H1B - C31    - C32   
 10796  10799  10800      1    1.1064e+02    5.2585e+02 ;    C32 - N31    - C33   
 10796  10799  10804      1    1.1064e+02    5.2585e+02 ;    C32 - N31    - C34   
 10796  10799  10808      1    1.1064e+02    5.2585e+02 ;    C32 - N31    - C35   
 10797  10796  10798      1    1.1074e+02    3.2669e+02 ;    H2A - C32    - H2B   
 10797  10796  10799      1    1.0791e+02    4.1020e+02 ;    H2A - C32    - N31   
 10798  10796  10799      1    1.0791e+02    4.1020e+02 ;    H2B - C32    - N31   
 10799  10800  10801      1    1.0791e+02    4.1020e+02 ;    N31 - C33    - H3A   
 10799  10800  10802      1    1.0791e+02    4.1020e+02 ;    N31 - C33    - H3B   
 10799  10800  10803      1    1.0791e+02    4.1020e+02 ;    N31 - C33    - H3C   
 10799  10804  10805      1    1.0791e+02    4.1020e+02 ;    N31 - C34    - H4A   
 10799  10804  10806      1    1.0791e+02    4.1020e+02 ;    N31 - C34    - H4B   
 10799  10804  10807      1    1.0791e+02    4.1020e+02 ;    N31 - C34    - H4C   
 10799  10808  10809      1    1.0791e+02    4.1020e+02 ;    N31 - C35    - H5A   
 10799  10808  10810      1    1.0791e+02    4.1020e+02 ;    N31 - C35    - H5B   
 10799  10808  10811      1    1.0791e+02    4.1020e+02 ;    N31 - C35    - H5C   
 10800  10799  10804      1    1.1064e+02    5.2585e+02 ;    C33 - N31    - C34   
 10800  10799  10808      1    1.1064e+02    5.2585e+02 ;    C33 - N31    - C35   
 10801  10800  10802      1    1.1074e+02    3.2669e+02 ;    H3A - C33    - H3B   
 10801  10800  10803      1    1.1074e+02    3.2669e+02 ;    H3A - C33    - H3C   
 10802  10800  10803      1    1.1074e+02    3.2669e+02 ;    H3B - C33    - H3C   
 10804  10799  10808      1    1.1064e+02    5.2585e+02 ;    C34 - N31    - C35   
 10805  10804  10806      1    1.1074e+02    3.2669e+02 ;    H4A - C34    - H4B   
 10805  10804  10807      1    1.1074e+02    3.2669e+02 ;    H4A - C34    - H4C   
 10806  10804  10807      1    1.1074e+02    3.2669e+02 ;    H4B - C34    - H4C   
 10809  10808  10810      1    1.1074e+02    3.2669e+02 ;    H5A - C35    - H5B   
 10809  10808  10811      1    1.1074e+02    3.2669e+02 ;    H5A - C35    - H5C   
 10810  10808  10811      1    1.1074e+02    3.2669e+02 ;    H5B - C35    - H5C   
 10812  10791  10813      1    1.1990e+02    1.1715e+03 ;    O33 - P31    - O34   
 10814  10815  10816      1    1.2333e+02    6.3538e+02 ;    O21 - C21    - O22   
 10814  10815  10854      1    1.1196e+02    5.7957e+02 ;    O21 - C21    - C12   
 10815  10854  10851      1    1.1053e+02    5.3379e+02 ;    C21 - C12    - C13   
 10815  10854  10855      1    1.0968e+02    3.9497e+02 ;    C21 - C12    - H2R   
 10815  10854  10856      1    1.0968e+02    3.9497e+02 ;    C21 - C12    - H2S   
 10816  10815  10854      1    1.2311e+02    5.6928e+02 ;    O22 - C21    - C12   
 10817  10818  10819      1    1.0835e+02    3.2995e+02 ;   H14T - C114   - H14R  
 10817  10818  10820      1    1.0835e+02    3.2995e+02 ;   H14T - C114   - H14S  
 10817  10818  10821      1    1.1005e+02    3.8802e+02 ;   H14T - C114   - C113  
 10818  10821  10822      1    1.1005e+02    3.8802e+02 ;   C114 - C113   - H13R  
 10818  10821  10823      1    1.1005e+02    3.8802e+02 ;   C114 - C113   - H13S  
 10818  10821  10824      1    1.1205e+02    3.9497e+02 ;   C114 - C113   - C112  
 10819  10818  10820      1    1.0835e+02    3.2995e+02 ;   H14R - C114   - H14S  
 10819  10818  10821      1    1.1005e+02    3.8802e+02 ;   H14R - C114   - C113  
 10820  10818  10821      1    1.1005e+02    3.8802e+02 ;   H14S - C114   - C113  
 10821  10824  10825      1    1.1005e+02    3.8802e+02 ;   C113 - C112   - H12R  
 10821  10824  10826      1    1.1005e+02    3.8802e+02 ;   C113 - C112   - H12S  
 10821  10824  10827      1    1.1205e+02    3.9497e+02 ;   C113 - C112   - C111  
 10822  10821  10823      1    1.0835e+02    3.2995e+02 ;   H13R - C113   - H13S  
 10822  10821  10824      1    1.1005e+02    3.8802e+02 ;   H13R - C113   - C112  
 10823  10821  10824      1    1.1005e+02    3.8802e+02 ;   H13S - C113   - C112  
 10824  10827  10828      1    1.1005e+02    3.8802e+02 ;   C112 - C111   - H11R  
 10824  10827  10829      1    1.1005e+02    3.8802e+02 ;   C112 - C111   - H11S  
 10824  10827  10830      1    1.1205e+02    3.9497e+02 ;   C112 - C111   - C110  
 10825  10824  10826      1    1.0835e+02    3.2995e+02 ;   H12R - C112   - H12S  
 10825  10824  10827      1    1.1005e+02    3.8802e+02 ;   H12R - C112   - C111  
 10826  10824  10827      1    1.1005e+02    3.8802e+02 ;   H12S - C112   - C111  
 10827  10830  10831      1    1.1005e+02    3.8802e+02 ;   C111 - C110   - H10R  
 10827  10830  10832      1    1.1005e+02    3.8802e+02 ;   C111 - C110   - H10S  
 10827  10830  10833      1    1.1205e+02    3.9497e+02 ;   C111 - C110   - C19   
 10828  10827  10829      1    1.0835e+02    3.2995e+02 ;   H11R - C111   - H11S  
 10828  10827  10830      1    1.1005e+02    3.8802e+02 ;   H11R - C111   - C110  
 10829  10827  10830      1    1.1005e+02    3.8802e+02 ;   H11S - C111   - C110  
 10830  10833  10834      1    1.1005e+02    3.8802e+02 ;   C110 - C19    - H9R   
 10830  10833  10835      1    1.1005e+02    3.8802e+02 ;   C110 - C19    - H9S   
 10830  10833  10836      1    1.1205e+02    3.9497e+02 ;   C110 - C19    - C18   
 10831  10830  10832      1    1.0835e+02    3.2995e+02 ;   H10R - C110   - H10S  
 10831  10830  10833      1    1.1005e+02    3.8802e+02 ;   H10R - C110   - C19   
 10832  10830  10833      1    1.1005e+02    3.8802e+02 ;   H10S - C110   - C19   
 10833  10836  10837      1    1.1005e+02    3.8802e+02 ;    C19 - C18    - H8R   
 10833  10836  10838      1    1.1005e+02    3.8802e+02 ;    C19 - C18    - H8S   
 10833  10836  10839      1    1.1205e+02    3.9497e+02 ;    C19 - C18    - C17   
 10834  10833  10835      1    1.0835e+02    3.2995e+02 ;    H9R - C19    - H9S   
 10834  10833  10836      1    1.1005e+02    3.8802e+02 ;    H9R - C19    - C18   
 10835  10833  10836      1    1.1005e+02    3.8802e+02 ;    H9S - C19    - C18   
 10836  10839  10840      1    1.1005e+02    3.8802e+02 ;    C18 - C17    - H7R   
 10836  10839  10841      1    1.1005e+02    3.8802e+02 ;    C18 - C17    - H7S   
 10836  10839  10842      1    1.1205e+02    3.9497e+02 ;    C18 - C17    - C16   
 10837  10836  10838      1    1.0835e+02    3.2995e+02 ;    H8R - C18    - H8S   
 10837  10836  10839      1    1.1005e+02    3.8802e+02 ;    H8R - C18    - C17   
 10838  10836  10839      1    1.1005e+02    3.8802e+02 ;    H8S - C18    - C17   
 10839  10842  10843      1    1.1005e+02    3.8802e+02 ;    C17 - C16    - H6R   
 10839  10842  10844      1    1.1005e+02    3.8802e+02 ;    C17 - C16    - H6S   
 10839  10842  10845      1    1.1205e+02    3.9497e+02 ;    C17 - C16    - C15   
 10840  10839  10841      1    1.0835e+02    3.2995e+02 ;    H7R - C17    - H7S   
 10840  10839  10842      1    1.1005e+02    3.8802e+02 ;    H7R - C17    - C16   
 10841  10839  10842      1    1.1005e+02    3.8802e+02 ;    H7S - C17    - C16   
 10842  10845  10846      1    1.1005e+02    3.8802e+02 ;    C16 - C15    - H5R   
 10842  10845  10847      1    1.1005e+02    3.8802e+02 ;    C16 - C15    - H5S   
 10842  10845  10848      1    1.1205e+02    3.9497e+02 ;    C16 - C15    - C14   
 10843  10842  10844      1    1.0835e+02    3.2995e+02 ;    H6R - C16    - H6S   
 10843  10842  10845      1    1.1005e+02    3.8802e+02 ;    H6R - C16    - C15   
 10844  10842  10845      1    1.1005e+02    3.8802e+02 ;    H6S - C16    - C15   
 10845  10848  10849      1    1.1005e+02    3.8802e+02 ;    C15 - C14    - H4R   
 10845  10848  10850      1    1.1005e+02    3.8802e+02 ;    C15 - C14    - H4S   
 10845  10848  10851      1    1.1205e+02    3.9497e+02 ;    C15 - C14    - C13   
 10846  10845  10847      1    1.0835e+02    3.2995e+02 ;    H5R - C15    - H5S   
 10846  10845  10848      1    1.1005e+02    3.8802e+02 ;    H5R - C15    - C14   
 10847  10845  10848      1    1.1005e+02    3.8802e+02 ;    H5S - C15    - C14   
 10848  10851  10852      1    1.1005e+02    3.8802e+02 ;    C14 - C13    - H3R   
 10848  10851  10853      1    1.1005e+02    3.8802e+02 ;    C14 - C13    - H3S   
 10848  10851  10854      1    1.1205e+02    3.9497e+02 ;    C14 - C13    - C12   
 10849  10848  10850      1    1.0835e+02    3.2995e+02 ;    H4R - C14    - H4S   
 10849  10848  10851      1    1.1005e+02    3.8802e+02 ;    H4R - C14    - C13   
 10850  10848  10851      1    1.1005e+02    3.8802e+02 ;    H4S - C14    - C13   
 10851  10854  10855      1    1.1005e+02    3.8802e+02 ;    C13 - C12    - H2R   
 10851  10854  10856      1    1.1005e+02    3.8802e+02 ;    C13 - C12    - H2S   
 10852  10851  10853      1    1.0835e+02    3.2995e+02 ;    H3R - C13    - H3S   
 10852  10851  10854      1    1.1005e+02    3.8802e+02 ;    H3R - C13    - C12   
 10853  10851  10854      1    1.1005e+02    3.8802e+02 ;    H3S - C13    - C12   
 10855  10854  10856      1    1.0835e+02    3.2995e+02 ;    H2R - C12    - H2S   
 10857  10858  10859      1    1.0835e+02    3.2995e+02 ;   H14T - C114   - H14R  
 10857  10858  10860      1    1.0835e+02    3.2995e+02 ;   H14T - C114   - H14S  
 10857  10858  10861      1    1.1005e+02    3.8802e+02 ;   H14T - C114   - C113  
 10858  10861  10862      1    1.1005e+02    3.8802e+02 ;   C114 - C113   - H13R  
 10858  10861  10863      1    1.1005e+02    3.8802e+02 ;   C114 - C113   - H13S  
 10858  10861  10864      1    1.1205e+02    3.9497e+02 ;   C114 - C113   - C112  
 10859  10858  10860      1    1.0835e+02    3.2995e+02 ;   H14R - C114   - H14S  
 10859  10858  10861      1    1.1005e+02    3.8802e+02 ;   H14R - C114   - C113  
 10860  10858  10861      1    1.1005e+02    3.8802e+02 ;   H14S - C114   - C113  
 10861  10864  10865      1    1.1005e+02    3.8802e+02 ;   C113 - C112   - H12R  
 10861  10864  10866      1    1.1005e+02    3.8802e+02 ;   C113 - C112   - H12S  
 10861  10864  10867      1    1.1205e+02    3.9497e+02 ;   C113 - C112   - C111  
 10862  10861  10863      1    1.0835e+02    3.2995e+02 ;   H13R - C113   - H13S  
 10862  10861  10864      1    1.1005e+02    3.8802e+02 ;   H13R - C113   - C112  
 10863  10861  10864      1    1.1005e+02    3.8802e+02 ;   H13S - C113   - C112  
 10864  10867  10868      1    1.1005e+02    3.8802e+02 ;   C112 - C111   - H11R  
 10864  10867  10869      1    1.1005e+02    3.8802e+02 ;   C112 - C111   - H11S  
 10864  10867  10870      1    1.1205e+02    3.9497e+02 ;   C112 - C111   - C110  
 10865  10864  10866      1    1.0835e+02    3.2995e+02 ;   H12R - C112   - H12S  
 10865  10864  10867      1    1.1005e+02    3.8802e+02 ;   H12R - C112   - C111  
 10866  10864  10867      1    1.1005e+02    3.8802e+02 ;   H12S - C112   - C111  
 10867  10870  10871      1    1.1005e+02    3.8802e+02 ;   C111 - C110   - H10R  
 10867  10870  10872      1    1.1005e+02    3.8802e+02 ;   C111 - C110   - H10S  
 10867  10870  10873      1    1.1205e+02    3.9497e+02 ;   C111 - C110   - C19   
 10868  10867  10869      1    1.0835e+02    3.2995e+02 ;   H11R - C111   - H11S  
 10868  10867  10870      1    1.1005e+02    3.8802e+02 ;   H11R - C111   - C110  
 10869  10867  10870      1    1.1005e+02    3.8802e+02 ;   H11S - C111   - C110  
 10870  10873  10874      1    1.1005e+02    3.8802e+02 ;   C110 - C19    - H9R   
 10870  10873  10875      1    1.1005e+02    3.8802e+02 ;   C110 - C19    - H9S   
 10870  10873  10876      1    1.1205e+02    3.9497e+02 ;   C110 - C19    - C18   
 10871  10870  10872      1    1.0835e+02    3.2995e+02 ;   H10R - C110   - H10S  
 10871  10870  10873      1    1.1005e+02    3.8802e+02 ;   H10R - C110   - C19   
 10872  10870  10873      1    1.1005e+02    3.8802e+02 ;   H10S - C110   - C19   
 10873  10876  10877      1    1.1005e+02    3.8802e+02 ;    C19 - C18    - H8R   
 10873  10876  10878      1    1.1005e+02    3.8802e+02 ;    C19 - C18    - H8S   
 10873  10876  10879      1    1.1205e+02    3.9497e+02 ;    C19 - C18    - C17   
 10874  10873  10875      1    1.0835e+02    3.2995e+02 ;    H9R - C19    - H9S   
 10874  10873  10876      1    1.1005e+02    3.8802e+02 ;    H9R - C19    - C18   
 10875  10873  10876      1    1.1005e+02    3.8802e+02 ;    H9S - C19    - C18   
 10876  10879  10880      1    1.1005e+02    3.8802e+02 ;    C18 - C17    - H7R   
 10876  10879  10881      1    1.1005e+02    3.8802e+02 ;    C18 - C17    - H7S   
 10876  10879  10882      1    1.1205e+02    3.9497e+02 ;    C18 - C17    - C16   
 10877  10876  10878      1    1.0835e+02    3.2995e+02 ;    H8R - C18    - H8S   
 10877  10876  10879      1    1.1005e+02    3.8802e+02 ;    H8R - C18    - C17   
 10878  10876  10879      1    1.1005e+02    3.8802e+02 ;    H8S - C18    - C17   
 10879  10882  10883      1    1.1005e+02    3.8802e+02 ;    C17 - C16    - H6R   
 10879  10882  10884      1    1.1005e+02    3.8802e+02 ;    C17 - C16    - H6S   
 10879  10882  10885      1    1.1205e+02    3.9497e+02 ;    C17 - C16    - C15   
 10880  10879  10881      1    1.0835e+02    3.2995e+02 ;    H7R - C17    - H7S   
 10880  10879  10882      1    1.1005e+02    3.8802e+02 ;    H7R - C17    - C16   
 10881  10879  10882      1    1.1005e+02    3.8802e+02 ;    H7S - C17    - C16   
 10882  10885  10886      1    1.1005e+02    3.8802e+02 ;    C16 - C15    - H5R   
 10882  10885  10887      1    1.1005e+02    3.8802e+02 ;    C16 - C15    - H5S   
 10882  10885  10888      1    1.1205e+02    3.9497e+02 ;    C16 - C15    - C14   
 10883  10882  10884      1    1.0835e+02    3.2995e+02 ;    H6R - C16    - H6S   
 10883  10882  10885      1    1.1005e+02    3.8802e+02 ;    H6R - C16    - C15   
 10884  10882  10885      1    1.1005e+02    3.8802e+02 ;    H6S - C16    - C15   
 10885  10888  10889      1    1.1005e+02    3.8802e+02 ;    C15 - C14    - H4R   
 10885  10888  10890      1    1.1005e+02    3.8802e+02 ;    C15 - C14    - H4S   
 10885  10888  10891      1    1.1205e+02    3.9497e+02 ;    C15 - C14    - C13   
 10886  10885  10887      1    1.0835e+02    3.2995e+02 ;    H5R - C15    - H5S   
 10886  10885  10888      1    1.1005e+02    3.8802e+02 ;    H5R - C15    - C14   
 10887  10885  10888      1    1.1005e+02    3.8802e+02 ;    H5S - C15    - C14   
 10888  10891  10892      1    1.1005e+02    3.8802e+02 ;    C14 - C13    - H3R   
 10888  10891  10893      1    1.1005e+02    3.8802e+02 ;    C14 - C13    - H3S   
 10888  10891  10894      1    1.1205e+02    3.9497e+02 ;    C14 - C13    - C12   
 10889  10888  10890      1    1.0835e+02    3.2995e+02 ;    H4R - C14    - H4S   
 10889  10888  10891      1    1.1005e+02    3.8802e+02 ;    H4R - C14    - C13   
 10890  10888  10891      1    1.1005e+02    3.8802e+02 ;    H4S - C14    - C13   
 10891  10894  10895      1    1.1005e+02    3.8802e+02 ;    C13 - C12    - H2R   
 10891  10894  10896      1    1.1005e+02    3.8802e+02 ;    C13 - C12    - H2S   
 10891  10894  10897      1    1.1053e+02    5.3379e+02 ;    C13 - C12    - C11   
 10892  10891  10893      1    1.0835e+02    3.2995e+02 ;    H3R - C13    - H3S   
 10892  10891  10894      1    1.1005e+02    3.8802e+02 ;    H3R - C13    - C12   
 10893  10891  10894      1    1.1005e+02    3.8802e+02 ;    H3S - C13    - C12   
 10894  10897  10898      1    1.2311e+02    5.6928e+02 ;    C12 - C11    - O12   
 10894  10897  10899      1    1.1196e+02    5.7957e+02 ;    C12 - C11    - O11   
 10895  10894  10896      1    1.0835e+02    3.2995e+02 ;    H2R - C12    - H2S   
 10895  10894  10897      1    1.0968e+02    3.9497e+02 ;    H2R - C12    - C11   
 10896  10894  10897      1    1.0968e+02    3.9497e+02 ;    H2S - C12    - C11   
 10897  10899  10900      1    1.1514e+02    5.3246e+02 ;    C11 - O11    - C1    
 10898  10897  10899      1    1.2333e+02    6.3538e+02 ;    O12 - C11    - O11   
 10899  10900  10901      1    1.0882e+02    4.2543e+02 ;    O11 - C1     - HR    
 10899  10900  10902      1    1.0882e+02    4.2543e+02 ;    O11 - C1     - HS    
 10899  10900  10903      1    1.0842e+02    5.6718e+02 ;    O11 - C1     - C2    
 10900  10903  10904      1    1.1007e+02    3.8794e+02 ;     C1 - C2     - HX    
 10900  10903  10905      1    1.1063e+02    5.2894e+02 ;     C1 - C2     - C3    
 10900  10903  10932      1    1.0842e+02    5.6718e+02 ;     C1 - C2     - O21   
 10901  10900  10902      1    1.0955e+02    3.2786e+02 ;     HR - C1     - HS    
 10901  10900  10903      1    1.1007e+02    3.8794e+02 ;     HR - C1     - C2    
 10902  10900  10903      1    1.1007e+02    3.8794e+02 ;     HS - C1     - C2    
 10903  10905  10906      1    1.1007e+02    3.8794e+02 ;     C2 - C3     - HA    
 10903  10905  10907      1    1.1007e+02    3.8794e+02 ;     C2 - C3     - HB    
 10903  10905  10908      1    1.0842e+02    5.6718e+02 ;     C2 - C3     - O31   
 10903  10932  10933      1    1.1514e+02    5.3246e+02 ;     C2 - O21    - C21   
 10904  10903  10905      1    1.1007e+02    3.8794e+02 ;     HX - C2     - C3    
 10904  10903  10932      1    1.0882e+02    4.2543e+02 ;     HX - C2     - O21   
 10905  10903  10932      1    1.0842e+02    5.6718e+02 ;     C3 - C2     - O21   
 10905  10908  10909      1    1.2050e+02    8.3680e+02 ;     C3 - O31    - P31   
 10906  10905  10907      1    1.0955e+02    3.2786e+02 ;     HA - C3     - HB    
 10906  10905  10908      1    1.0882e+02    4.2543e+02 ;     HA - C3     - O31   
 10907  10905  10908      1    1.0882e+02    4.2543e+02 ;     HB - C3     - O31   
 10908  10909  10910      1    1.0260e+02    7.5312e+02 ;    O31 - P31    - O32   
 10908  10909  10930      1    1.0823e+02    8.3680e+02 ;    O31 - P31    - O33   
 10908  10909  10931      1    1.0823e+02    8.3680e+02 ;    O31 - P31    - O34   
 10909  10910  10911      1    1.2050e+02    8.3680e+02 ;    P31 - O32    - C31   
 10910  10909  10930      1    1.0823e+02    8.3680e+02 ;    O32 - P31    - O33   
 10910  10909  10931      1    1.0823e+02    8.3680e+02 ;    O32 - P31    - O34   
 10910  10911  10912      1    1.0882e+02    4.2543e+02 ;    O32 - C31    - H1A   
 10910  10911  10913      1    1.0882e+02    4.2543e+02 ;    O32 - C31    - H1B   
 10910  10911  10914      1    1.0842e+02    5.6718e+02 ;    O32 - C31    - C32   
 10911  10914  10915      1    1.1174e+02    3.8510e+02 ;    C31 - C32    - H2A   
 10911  10914  10916      1    1.1174e+02    3.8510e+02 ;    C31 - C32    - H2B   
 10911  10914  10917      1    1.1432e+02    5.3932e+02 ;    C31 - C32    - N31   
 10912  10911  10913      1    1.0955e+02    3.2786e+02 ;    H1A - C31    - H1B   
 10912  10911  10914      1    1.1007e+02    3.8794e+02 ;    H1A - C31    - C32   
 10913  10911  10914      1    1.1007e+02    3.8794e+02 ;    H1B - C31    - C32   
 10914  10917  10918      1    1.1064e+02    5.2585e+02 ;    C32 - N31    - C33   
 10914  10917  10922      1    1.1064e+02    5.2585e+02 ;    C32 - N31    - C34   
 10914  10917  10926      1    1.1064e+02    5.2585e+02 ;    C32 - N31    - C35   
 10915  10914  10916      1    1.1074e+02    3.2669e+02 ;    H2A - C32    - H2B   
 10915  10914  10917      1    1.0791e+02    4.1020e+02 ;    H2A - C32    - N31   
 10916  10914  10917      1    1.0791e+02    4.1020e+02 ;    H2B - C32    - N31   
 10917  10918  10919      1    1.0791e+02    4.1020e+02 ;    N31 - C33    - H3A   
 10917  10918  10920      1    1.0791e+02    4.1020e+02 ;    N31 - C33    - H3B   
 10917  10918  10921      1    1.0791e+02    4.1020e+02 ;    N31 - C33    - H3C   
 10917  10922  10923      1    1.0791e+02    4.1020e+02 ;    N31 - C34    - H4A   
 10917  10922  10924      1    1.0791e+02    4.1020e+02 ;    N31 - C34    - H4B   
 10917  10922  10925      1    1.0791e+02    4.1020e+02 ;    N31 - C34    - H4C   
 10917  10926  10927      1    1.0791e+02    4.1020e+02 ;    N31 - C35    - H5A   
 10917  10926  10928      1    1.0791e+02    4.1020e+02 ;    N31 - C35    - H5B   
 10917  10926  10929      1    1.0791e+02    4.1020e+02 ;    N31 - C35    - H5C   
 10918  10917  10922      1    1.1064e+02    5.2585e+02 ;    C33 - N31    - C34   
 10918  10917  10926      1    1.1064e+02    5.2585e+02 ;    C33 - N31    - C35   
 10919  10918  10920      1    1.1074e+02    3.2669e+02 ;    H3A - C33    - H3B   
 10919  10918  10921      1    1.1074e+02    3.2669e+02 ;    H3A - C33    - H3C   
 10920  10918  10921      1    1.1074e+02    3.2669e+02 ;    H3B - C33    - H3C   
 10922  10917  10926      1    1.1064e+02    5.2585e+02 ;    C34 - N31    - C35   
 10923  10922  10924      1    1.1074e+02    3.2669e+02 ;    H4A - C34    - H4B   
 10923  10922  10925      1    1.1074e+02    3.2669e+02 ;    H4A - C34    - H4C   
 10924  10922  10925      1    1.1074e+02    3.2669e+02 ;    H4B - C34    - H4C   
 10927  10926  10928      1    1.1074e+02    3.2669e+02 ;    H5A - C35    - H5B   
 10927  10926  10929      1    1.1074e+02    3.2669e+02 ;    H5A - C35    - H5C   
 10928  10926  10929      1    1.1074e+02    3.2669e+02 ;    H5B - C35    - H5C   
 10930  10909  10931      1    1.1990e+02    1.1715e+03 ;    O33 - P31    - O34   
 10932  10933  10934      1    1.2333e+02    6.3538e+02 ;    O21 - C21    - O22   
 10932  10933  10972      1    1.1196e+02    5.7957e+02 ;    O21 - C21    - C12   
 10933  10972  10969      1    1.1053e+02    5.3379e+02 ;    C21 - C12    - C13   
 10933  10972  10973      1    1.0968e+02    3.9497e+02 ;    C21 - C12    - H2R   
 10933  10972  10974      1    1.0968e+02    3.9497e+02 ;    C21 - C12    - H2S   
 10934  10933  10972      1    1.2311e+02    5.6928e+02 ;    O22 - C21    - C12   
 10935  10936  10937      1    1.0835e+02    3.2995e+02 ;   H14T - C114   - H14R  
 10935  10936  10938      1    1.0835e+02    3.2995e+02 ;   H14T - C114   - H14S  
 10935  10936  10939      1    1.1005e+02    3.8802e+02 ;   H14T - C114   - C113  
 10936  10939  10940      1    1.1005e+02    3.8802e+02 ;   C114 - C113   - H13R  
 10936  10939  10941      1    1.1005e+02    3.8802e+02 ;   C114 - C113   - H13S  
 10936  10939  10942      1    1.1205e+02    3.9497e+02 ;   C114 - C113   - C112  
 10937  10936  10938      1    1.0835e+02    3.2995e+02 ;   H14R - C114   - H14S  
 10937  10936  10939      1    1.1005e+02    3.8802e+02 ;   H14R - C114   - C113  
 10938  10936  10939      1    1.1005e+02    3.8802e+02 ;   H14S - C114   - C113  
 10939  10942  10943      1    1.1005e+02    3.8802e+02 ;   C113 - C112   - H12R  
 10939  10942  10944      1    1.1005e+02    3.8802e+02 ;   C113 - C112   - H12S  
 10939  10942  10945      1    1.1205e+02    3.9497e+02 ;   C113 - C112   - C111  
 10940  10939  10941      1    1.0835e+02    3.2995e+02 ;   H13R - C113   - H13S  
 10940  10939  10942      1    1.1005e+02    3.8802e+02 ;   H13R - C113   - C112  
 10941  10939  10942      1    1.1005e+02    3.8802e+02 ;   H13S - C113   - C112  
 10942  10945  10946      1    1.1005e+02    3.8802e+02 ;   C112 - C111   - H11R  
 10942  10945  10947      1    1.1005e+02    3.8802e+02 ;   C112 - C111   - H11S  
 10942  10945  10948      1    1.1205e+02    3.9497e+02 ;   C112 - C111   - C110  
 10943  10942  10944      1    1.0835e+02    3.2995e+02 ;   H12R - C112   - H12S  
 10943  10942  10945      1    1.1005e+02    3.8802e+02 ;   H12R - C112   - C111  
 10944  10942  10945      1    1.1005e+02    3.8802e+02 ;   H12S - C112   - C111  
 10945  10948  10949      1    1.1005e+02    3.8802e+02 ;   C111 - C110   - H10R  
 10945  10948  10950      1    1.1005e+02    3.8802e+02 ;   C111 - C110   - H10S  
 10945  10948  10951      1    1.1205e+02    3.9497e+02 ;   C111 - C110   - C19   
 10946  10945  10947      1    1.0835e+02    3.2995e+02 ;   H11R - C111   - H11S  
 10946  10945  10948      1    1.1005e+02    3.8802e+02 ;   H11R - C111   - C110  
 10947  10945  10948      1    1.1005e+02    3.8802e+02 ;   H11S - C111   - C110  
 10948  10951  10952      1    1.1005e+02    3.8802e+02 ;   C110 - C19    - H9R   
 10948  10951  10953      1    1.1005e+02    3.8802e+02 ;   C110 - C19    - H9S   
 10948  10951  10954      1    1.1205e+02    3.9497e+02 ;   C110 - C19    - C18   
 10949  10948  10950      1    1.0835e+02    3.2995e+02 ;   H10R - C110   - H10S  
 10949  10948  10951      1    1.1005e+02    3.8802e+02 ;   H10R - C110   - C19   
 10950  10948  10951      1    1.1005e+02    3.8802e+02 ;   H10S - C110   - C19   
 10951  10954  10955      1    1.1005e+02    3.8802e+02 ;    C19 - C18    - H8R   
 10951  10954  10956      1    1.1005e+02    3.8802e+02 ;    C19 - C18    - H8S   
 10951  10954  10957      1    1.1205e+02    3.9497e+02 ;    C19 - C18    - C17   
 10952  10951  10953      1    1.0835e+02    3.2995e+02 ;    H9R - C19    - H9S   
 10952  10951  10954      1    1.1005e+02    3.8802e+02 ;    H9R - C19    - C18   
 10953  10951  10954      1    1.1005e+02    3.8802e+02 ;    H9S - C19    - C18   
 10954  10957  10958      1    1.1005e+02    3.8802e+02 ;    C18 - C17    - H7R   
 10954  10957  10959      1    1.1005e+02    3.8802e+02 ;    C18 - C17    - H7S   
 10954  10957  10960      1    1.1205e+02    3.9497e+02 ;    C18 - C17    - C16   
 10955  10954  10956      1    1.0835e+02    3.2995e+02 ;    H8R - C18    - H8S   
 10955  10954  10957      1    1.1005e+02    3.8802e+02 ;    H8R - C18    - C17   
 10956  10954  10957      1    1.1005e+02    3.8802e+02 ;    H8S - C18    - C17   
 10957  10960  10961      1    1.1005e+02    3.8802e+02 ;    C17 - C16    - H6R   
 10957  10960  10962      1    1.1005e+02    3.8802e+02 ;    C17 - C16    - H6S   
 10957  10960  10963      1    1.1205e+02    3.9497e+02 ;    C17 - C16    - C15   
 10958  10957  10959      1    1.0835e+02    3.2995e+02 ;    H7R - C17    - H7S   
 10958  10957  10960      1    1.1005e+02    3.8802e+02 ;    H7R - C17    - C16   
 10959  10957  10960      1    1.1005e+02    3.8802e+02 ;    H7S - C17    - C16   
 10960  10963  10964      1    1.1005e+02    3.8802e+02 ;    C16 - C15    - H5R   
 10960  10963  10965      1    1.1005e+02    3.8802e+02 ;    C16 - C15    - H5S   
 10960  10963  10966      1    1.1205e+02    3.9497e+02 ;    C16 - C15    - C14   
 10961  10960  10962      1    1.0835e+02    3.2995e+02 ;    H6R - C16    - H6S   
 10961  10960  10963      1    1.1005e+02    3.8802e+02 ;    H6R - C16    - C15   
 10962  10960  10963      1    1.1005e+02    3.8802e+02 ;    H6S - C16    - C15   
 10963  10966  10967      1    1.1005e+02    3.8802e+02 ;    C15 - C14    - H4R   
 10963  10966  10968      1    1.1005e+02    3.8802e+02 ;    C15 - C14    - H4S   
 10963  10966  10969      1    1.1205e+02    3.9497e+02 ;    C15 - C14    - C13   
 10964  10963  10965      1    1.0835e+02    3.2995e+02 ;    H5R - C15    - H5S   
 10964  10963  10966      1    1.1005e+02    3.8802e+02 ;    H5R - C15    - C14   
 10965  10963  10966      1    1.1005e+02    3.8802e+02 ;    H5S - C15    - C14   
 10966  10969  10970      1    1.1005e+02    3.8802e+02 ;    C14 - C13    - H3R   
 10966  10969  10971      1    1.1005e+02    3.8802e+02 ;    C14 - C13    - H3S   
 10966  10969  10972      1    1.1205e+02    3.9497e+02 ;    C14 - C13    - C12   
 10967  10966  10968      1    1.0835e+02    3.2995e+02 ;    H4R - C14    - H4S   
 10967  10966  10969      1    1.1005e+02    3.8802e+02 ;    H4R - C14    - C13   
 10968  10966  10969      1    1.1005e+02    3.8802e+02 ;    H4S - C14    - C13   
 10969  10972  10973      1    1.1005e+02    3.8802e+02 ;    C13 - C12    - H2R   
 10969  10972  10974      1    1.1005e+02    3.8802e+02 ;    C13 - C12    - H2S   
 10970  10969  10971      1    1.0835e+02    3.2995e+02 ;    H3R - C13    - H3S   
 10970  10969  10972      1    1.1005e+02    3.8802e+02 ;    H3R - C13    - C12   
 10971  10969  10972      1    1.1005e+02    3.8802e+02 ;    H3S - C13    - C12   
 10973  10972  10974      1    1.0835e+02    3.2995e+02 ;    H2R - C12    - H2S   
 10975  10976  10977      1    1.0835e+02    3.2995e+02 ;   H14T - C114   - H14R  
 10975  10976  10978      1    1.0835e+02    3.2995e+02 ;   H14T - C114   - H14S  
 10975  10976  10979      1    1.1005e+02    3.8802e+02 ;   H14T - C114   - C113  
 10976  10979  10980      1    1.1005e+02    3.8802e+02 ;   C114 - C113   - H13R  
 10976  10979  10981      1    1.1005e+02    3.8802e+02 ;   C114 - C113   - H13S  
 10976  10979  10982      1    1.1205e+02    3.9497e+02 ;   C114 - C113   - C112  
 10977  10976  10978      1    1.0835e+02    3.2995e+02 ;   H14R - C114   - H14S  
 10977  10976  10979      1    1.1005e+02    3.8802e+02 ;   H14R - C114   - C113  
 10978  10976  10979      1    1.1005e+02    3.8802e+02 ;   H14S - C114   - C113  
 10979  10982  10983      1    1.1005e+02    3.8802e+02 ;   C113 - C112   - H12R  
 10979  10982  10984      1    1.1005e+02    3.8802e+02 ;   C113 - C112   - H12S  
 10979  10982  10985      1    1.1205e+02    3.9497e+02 ;   C113 - C112   - C111  
 10980  10979  10981      1    1.0835e+02    3.2995e+02 ;   H13R - C113   - H13S  
 10980  10979  10982      1    1.1005e+02    3.8802e+02 ;   H13R - C113   - C112  
 10981  10979  10982      1    1.1005e+02    3.8802e+02 ;   H13S - C113   - C112  
 10982  10985  10986      1    1.1005e+02    3.8802e+02 ;   C112 - C111   - H11R  
 10982  10985  10987      1    1.1005e+02    3.8802e+02 ;   C112 - C111   - H11S  
 10982  10985  10988      1    1.1205e+02    3.9497e+02 ;   C112 - C111   - C110  
 10983  10982  10984      1    1.0835e+02    3.2995e+02 ;   H12R - C112   - H12S  
 10983  10982  10985      1    1.1005e+02    3.8802e+02 ;   H12R - C112   - C111  
 10984  10982  10985      1    1.1005e+02    3.8802e+02 ;   H12S - C112   - C111  
 10985  10988  10989      1    1.1005e+02    3.8802e+02 ;   C111 - C110   - H10R  
 10985  10988  10990      1    1.1005e+02    3.8802e+02 ;   C111 - C110   - H10S  
 10985  10988  10991      1    1.1205e+02    3.9497e+02 ;   C111 - C110   - C19   
 10986  10985  10987      1    1.0835e+02    3.2995e+02 ;   H11R - C111   - H11S  
 10986  10985  10988      1    1.1005e+02    3.8802e+02 ;   H11R - C111   - C110  
 10987  10985  10988      1    1.1005e+02    3.8802e+02 ;   H11S - C111   - C110  
 10988  10991  10992      1    1.1005e+02    3.8802e+02 ;   C110 - C19    - H9R   
 10988  10991  10993      1    1.1005e+02    3.8802e+02 ;   C110 - C19    - H9S   
 10988  10991  10994      1    1.1205e+02    3.9497e+02 ;   C110 - C19    - C18   
 10989  10988  10990      1    1.0835e+02    3.2995e+02 ;   H10R - C110   - H10S  
 10989  10988  10991      1    1.1005e+02    3.8802e+02 ;   H10R - C110   - C19   
 10990  10988  10991      1    1.1005e+02    3.8802e+02 ;   H10S - C110   - C19   
 10991  10994  10995      1    1.1005e+02    3.8802e+02 ;    C19 - C18    - H8R   
 10991  10994  10996      1    1.1005e+02    3.8802e+02 ;    C19 - C18    - H8S   
 10991  10994  10997      1    1.1205e+02    3.9497e+02 ;    C19 - C18    - C17   
 10992  10991  10993      1    1.0835e+02    3.2995e+02 ;    H9R - C19    - H9S   
 10992  10991  10994      1    1.1005e+02    3.8802e+02 ;    H9R - C19    - C18   
 10993  10991  10994      1    1.1005e+02    3.8802e+02 ;    H9S - C19    - C18   
 10994  10997  10998      1    1.1005e+02    3.8802e+02 ;    C18 - C17    - H7R   
 10994  10997  10999      1    1.1005e+02    3.8802e+02 ;    C18 - C17    - H7S   
 10994  10997  11000      1    1.1205e+02    3.9497e+02 ;    C18 - C17    - C16   
 10995  10994  10996      1    1.0835e+02    3.2995e+02 ;    H8R - C18    - H8S   
 10995  10994  10997      1    1.1005e+02    3.8802e+02 ;    H8R - C18    - C17   
 10996  10994  10997      1    1.1005e+02    3.8802e+02 ;    H8S - C18    - C17   
 10997  11000  11001      1    1.1005e+02    3.8802e+02 ;    C17 - C16    - H6R   
 10997  11000  11002      1    1.1005e+02    3.8802e+02 ;    C17 - C16    - H6S   
 10997  11000  11003      1    1.1205e+02    3.9497e+02 ;    C17 - C16    - C15   
 10998  10997  10999      1    1.0835e+02    3.2995e+02 ;    H7R - C17    - H7S   
 10998  10997  11000      1    1.1005e+02    3.8802e+02 ;    H7R - C17    - C16   
 10999  10997  11000      1    1.1005e+02    3.8802e+02 ;    H7S - C17    - C16   
 11000  11003  11004      1    1.1005e+02    3.8802e+02 ;    C16 - C15    - H5R   
 11000  11003  11005      1    1.1005e+02    3.8802e+02 ;    C16 - C15    - H5S   
 11000  11003  11006      1    1.1205e+02    3.9497e+02 ;    C16 - C15    - C14   
 11001  11000  11002      1    1.0835e+02    3.2995e+02 ;    H6R - C16    - H6S   
 11001  11000  11003      1    1.1005e+02    3.8802e+02 ;    H6R - C16    - C15   
 11002  11000  11003      1    1.1005e+02    3.8802e+02 ;    H6S - C16    - C15   
 11003  11006  11007      1    1.1005e+02    3.8802e+02 ;    C15 - C14    - H4R   
 11003  11006  11008      1    1.1005e+02    3.8802e+02 ;    C15 - C14    - H4S   
 11003  11006  11009      1    1.1205e+02    3.9497e+02 ;    C15 - C14    - C13   
 11004  11003  11005      1    1.0835e+02    3.2995e+02 ;    H5R - C15    - H5S   
 11004  11003  11006      1    1.1005e+02    3.8802e+02 ;    H5R - C15    - C14   
 11005  11003  11006      1    1.1005e+02    3.8802e+02 ;    H5S - C15    - C14   
 11006  11009  11010      1    1.1005e+02    3.8802e+02 ;    C14 - C13    - H3R   
 11006  11009  11011      1    1.1005e+02    3.8802e+02 ;    C14 - C13    - H3S   
 11006  11009  11012      1    1.1205e+02    3.9497e+02 ;    C14 - C13    - C12   
 11007  11006  11008      1    1.0835e+02    3.2995e+02 ;    H4R - C14    - H4S   
 11007  11006  11009      1    1.1005e+02    3.8802e+02 ;    H4R - C14    - C13   
 11008  11006  11009      1    1.1005e+02    3.8802e+02 ;    H4S - C14    - C13   
 11009  11012  11013      1    1.1005e+02    3.8802e+02 ;    C13 - C12    - H2R   
 11009  11012  11014      1    1.1005e+02    3.8802e+02 ;    C13 - C12    - H2S   
 11009  11012  11015      1    1.1053e+02    5.3379e+02 ;    C13 - C12    - C11   
 11010  11009  11011      1    1.0835e+02    3.2995e+02 ;    H3R - C13    - H3S   
 11010  11009  11012      1    1.1005e+02    3.8802e+02 ;    H3R - C13    - C12   
 11011  11009  11012      1    1.1005e+02    3.8802e+02 ;    H3S - C13    - C12   
 11012  11015  11016      1    1.2311e+02    5.6928e+02 ;    C12 - C11    - O12   
 11012  11015  11017      1    1.1196e+02    5.7957e+02 ;    C12 - C11    - O11   
 11013  11012  11014      1    1.0835e+02    3.2995e+02 ;    H2R - C12    - H2S   
 11013  11012  11015      1    1.0968e+02    3.9497e+02 ;    H2R - C12    - C11   
 11014  11012  11015      1    1.0968e+02    3.9497e+02 ;    H2S - C12    - C11   
 11015  11017  11018      1    1.1514e+02    5.3246e+02 ;    C11 - O11    - C1    
 11016  11015  11017      1    1.2333e+02    6.3538e+02 ;    O12 - C11    - O11   
 11017  11018  11019      1    1.0882e+02    4.2543e+02 ;    O11 - C1     - HR    
 11017  11018  11020      1    1.0882e+02    4.2543e+02 ;    O11 - C1     - HS    
 11017  11018  11021      1    1.0842e+02    5.6718e+02 ;    O11 - C1     - C2    
 11018  11021  11022      1    1.1007e+02    3.8794e+02 ;     C1 - C2     - HX    
 11018  11021  11023      1    1.1063e+02    5.2894e+02 ;     C1 - C2     - C3    
 11018  11021  11050      1    1.0842e+02    5.6718e+02 ;     C1 - C2     - O21   
 11019  11018  11020      1    1.0955e+02    3.2786e+02 ;     HR - C1     - HS    
 11019  11018  11021      1    1.1007e+02    3.8794e+02 ;     HR - C1     - C2    
 11020  11018  11021      1    1.1007e+02    3.8794e+02 ;     HS - C1     - C2    
 11021  11023  11024      1    1.1007e+02    3.8794e+02 ;     C2 - C3     - HA    
 11021  11023  11025      1    1.1007e+02    3.8794e+02 ;     C2 - C3     - HB    
 11021  11023  11026      1    1.0842e+02    5.6718e+02 ;     C2 - C3     - O31   
 11021  11050  11051      1    1.1514e+02    5.3246e+02 ;     C2 - O21    - C21   
 11022  11021  11023      1    1.1007e+02    3.8794e+02 ;     HX - C2     - C3    
 11022  11021  11050      1    1.0882e+02    4.2543e+02 ;     HX - C2     - O21   
 11023  11021  11050      1    1.0842e+02    5.6718e+02 ;     C3 - C2     - O21   
 11023  11026  11027      1    1.2050e+02    8.3680e+02 ;     C3 - O31    - P31   
 11024  11023  11025      1    1.0955e+02    3.2786e+02 ;     HA - C3     - HB    
 11024  11023  11026      1    1.0882e+02    4.2543e+02 ;     HA - C3     - O31   
 11025  11023  11026      1    1.0882e+02    4.2543e+02 ;     HB - C3     - O31   
 11026  11027  11028      1    1.0260e+02    7.5312e+02 ;    O31 - P31    - O32   
 11026  11027  11048      1    1.0823e+02    8.3680e+02 ;    O31 - P31    - O33   
 11026  11027  11049      1    1.0823e+02    8.3680e+02 ;    O31 - P31    - O34   
 11027  11028  11029      1    1.2050e+02    8.3680e+02 ;    P31 - O32    - C31   
 11028  11027  11048      1    1.0823e+02    8.3680e+02 ;    O32 - P31    - O33   
 11028  11027  11049      1    1.0823e+02    8.3680e+02 ;    O32 - P31    - O34   
 11028  11029  11030      1    1.0882e+02    4.2543e+02 ;    O32 - C31    - H1A   
 11028  11029  11031      1    1.0882e+02    4.2543e+02 ;    O32 - C31    - H1B   
 11028  11029  11032      1    1.0842e+02    5.6718e+02 ;    O32 - C31    - C32   
 11029  11032  11033      1    1.1174e+02    3.8510e+02 ;    C31 - C32    - H2A   
 11029  11032  11034      1    1.1174e+02    3.8510e+02 ;    C31 - C32    - H2B   
 11029  11032  11035      1    1.1432e+02    5.3932e+02 ;    C31 - C32    - N31   
 11030  11029  11031      1    1.0955e+02    3.2786e+02 ;    H1A - C31    - H1B   
 11030  11029  11032      1    1.1007e+02    3.8794e+02 ;    H1A - C31    - C32   
 11031  11029  11032      1    1.1007e+02    3.8794e+02 ;    H1B - C31    - C32   
 11032  11035  11036      1    1.1064e+02    5.2585e+02 ;    C32 - N31    - C33   
 11032  11035  11040      1    1.1064e+02    5.2585e+02 ;    C32 - N31    - C34   
 11032  11035  11044      1    1.1064e+02    5.2585e+02 ;    C32 - N31    - C35   
 11033  11032  11034      1    1.1074e+02    3.2669e+02 ;    H2A - C32    - H2B   
 11033  11032  11035      1    1.0791e+02    4.1020e+02 ;    H2A - C32    - N31   
 11034  11032  11035      1    1.0791e+02    4.1020e+02 ;    H2B - C32    - N31   
 11035  11036  11037      1    1.0791e+02    4.1020e+02 ;    N31 - C33    - H3A   
 11035  11036  11038      1    1.0791e+02    4.1020e+02 ;    N31 - C33    - H3B   
 11035  11036  11039      1    1.0791e+02    4.1020e+02 ;    N31 - C33    - H3C   
 11035  11040  11041      1    1.0791e+02    4.1020e+02 ;    N31 - C34    - H4A   
 11035  11040  11042      1    1.0791e+02    4.1020e+02 ;    N31 - C34    - H4B   
 11035  11040  11043      1    1.0791e+02    4.1020e+02 ;    N31 - C34    - H4C   
 11035  11044  11045      1    1.0791e+02    4.1020e+02 ;    N31 - C35    - H5A   
 11035  11044  11046      1    1.0791e+02    4.1020e+02 ;    N31 - C35    - H5B   
 11035  11044  11047      1    1.0791e+02    4.1020e+02 ;    N31 - C35    - H5C   
 11036  11035  11040      1    1.1064e+02    5.2585e+02 ;    C33 - N31    - C34   
 11036  11035  11044      1    1.1064e+02    5.2585e+02 ;    C33 - N31    - C35   
 11037  11036  11038      1    1.1074e+02    3.2669e+02 ;    H3A - C33    - H3B   
 11037  11036  11039      1    1.1074e+02    3.2669e+02 ;    H3A - C33    - H3C   
 11038  11036  11039      1    1.1074e+02    3.2669e+02 ;    H3B - C33    - H3C   
 11040  11035  11044      1    1.1064e+02    5.2585e+02 ;    C34 - N31    - C35   
 11041  11040  11042      1    1.1074e+02    3.2669e+02 ;    H4A - C34    - H4B   
 11041  11040  11043      1    1.1074e+02    3.2669e+02 ;    H4A - C34    - H4C   
 11042  11040  11043      1    1.1074e+02    3.2669e+02 ;    H4B - C34    - H4C   
 11045  11044  11046      1    1.1074e+02    3.2669e+02 ;    H5A - C35    - H5B   
 11045  11044  11047      1    1.1074e+02    3.2669e+02 ;    H5A - C35    - H5C   
 11046  11044  11047      1    1.1074e+02    3.2669e+02 ;    H5B - C35    - H5C   
 11048  11027  11049      1    1.1990e+02    1.1715e+03 ;    O33 - P31    - O34   
 11050  11051  11052      1    1.2333e+02    6.3538e+02 ;    O21 - C21    - O22   
 11050  11051  11090      1    1.1196e+02    5.7957e+02 ;    O21 - C21    - C12   
 11051  11090  11087      1    1.1053e+02    5.3379e+02 ;    C21 - C12    - C13   
 11051  11090  11091      1    1.0968e+02    3.9497e+02 ;    C21 - C12    - H2R   
 11051  11090  11092      1    1.0968e+02    3.9497e+02 ;    C21 - C12    - H2S   
 11052  11051  11090      1    1.2311e+02    5.6928e+02 ;    O22 - C21    - C12   
 11053  11054  11055      1    1.0835e+02    3.2995e+02 ;   H14T - C114   - H14R  
 11053  11054  11056      1    1.0835e+02    3.2995e+02 ;   H14T - C114   - H14S  
 11053  11054  11057      1    1.1005e+02    3.8802e+02 ;   H14T - C114   - C113  
 11054  11057  11058      1    1.1005e+02    3.8802e+02 ;   C114 - C113   - H13R  
 11054  11057  11059      1    1.1005e+02    3.8802e+02 ;   C114 - C113   - H13S  
 11054  11057  11060      1    1.1205e+02    3.9497e+02 ;   C114 - C113   - C112  
 11055  11054  11056      1    1.0835e+02    3.2995e+02 ;   H14R - C114   - H14S  
 11055  11054  11057      1    1.1005e+02    3.8802e+02 ;   H14R - C114   - C113  
 11056  11054  11057      1    1.1005e+02    3.8802e+02 ;   H14S - C114   - C113  
 11057  11060  11061      1    1.1005e+02    3.8802e+02 ;   C113 - C112   - H12R  
 11057  11060  11062      1    1.1005e+02    3.8802e+02 ;   C113 - C112   - H12S  
 11057  11060  11063      1    1.1205e+02    3.9497e+02 ;   C113 - C112   - C111  
 11058  11057  11059      1    1.0835e+02    3.2995e+02 ;   H13R - C113   - H13S  
 11058  11057  11060      1    1.1005e+02    3.8802e+02 ;   H13R - C113   - C112  
 11059  11057  11060      1    1.1005e+02    3.8802e+02 ;   H13S - C113   - C112  
 11060  11063  11064      1    1.1005e+02    3.8802e+02 ;   C112 - C111   - H11R  
 11060  11063  11065      1    1.1005e+02    3.8802e+02 ;   C112 - C111   - H11S  
 11060  11063  11066      1    1.1205e+02    3.9497e+02 ;   C112 - C111   - C110  
 11061  11060  11062      1    1.0835e+02    3.2995e+02 ;   H12R - C112   - H12S  
 11061  11060  11063      1    1.1005e+02    3.8802e+02 ;   H12R - C112   - C111  
 11062  11060  11063      1    1.1005e+02    3.8802e+02 ;   H12S - C112   - C111  
 11063  11066  11067      1    1.1005e+02    3.8802e+02 ;   C111 - C110   - H10R  
 11063  11066  11068      1    1.1005e+02    3.8802e+02 ;   C111 - C110   - H10S  
 11063  11066  11069      1    1.1205e+02    3.9497e+02 ;   C111 - C110   - C19   
 11064  11063  11065      1    1.0835e+02    3.2995e+02 ;   H11R - C111   - H11S  
 11064  11063  11066      1    1.1005e+02    3.8802e+02 ;   H11R - C111   - C110  
 11065  11063  11066      1    1.1005e+02    3.8802e+02 ;   H11S - C111   - C110  
 11066  11069  11070      1    1.1005e+02    3.8802e+02 ;   C110 - C19    - H9R   
 11066  11069  11071      1    1.1005e+02    3.8802e+02 ;   C110 - C19    - H9S   
 11066  11069  11072      1    1.1205e+02    3.9497e+02 ;   C110 - C19    - C18   
 11067  11066  11068      1    1.0835e+02    3.2995e+02 ;   H10R - C110   - H10S  
 11067  11066  11069      1    1.1005e+02    3.8802e+02 ;   H10R - C110   - C19   
 11068  11066  11069      1    1.1005e+02    3.8802e+02 ;   H10S - C110   - C19   
 11069  11072  11073      1    1.1005e+02    3.8802e+02 ;    C19 - C18    - H8R   
 11069  11072  11074      1    1.1005e+02    3.8802e+02 ;    C19 - C18    - H8S   
 11069  11072  11075      1    1.1205e+02    3.9497e+02 ;    C19 - C18    - C17   
 11070  11069  11071      1    1.0835e+02    3.2995e+02 ;    H9R - C19    - H9S   
 11070  11069  11072      1    1.1005e+02    3.8802e+02 ;    H9R - C19    - C18   
 11071  11069  11072      1    1.1005e+02    3.8802e+02 ;    H9S - C19    - C18   
 11072  11075  11076      1    1.1005e+02    3.8802e+02 ;    C18 - C17    - H7R   
 11072  11075  11077      1    1.1005e+02    3.8802e+02 ;    C18 - C17    - H7S   
 11072  11075  11078      1    1.1205e+02    3.9497e+02 ;    C18 - C17    - C16   
 11073  11072  11074      1    1.0835e+02    3.2995e+02 ;    H8R - C18    - H8S   
 11073  11072  11075      1    1.1005e+02    3.8802e+02 ;    H8R - C18    - C17   
 11074  11072  11075      1    1.1005e+02    3.8802e+02 ;    H8S - C18    - C17   
 11075  11078  11079      1    1.1005e+02    3.8802e+02 ;    C17 - C16    - H6R   
 11075  11078  11080      1    1.1005e+02    3.8802e+02 ;    C17 - C16    - H6S   
 11075  11078  11081      1    1.1205e+02    3.9497e+02 ;    C17 - C16    - C15   
 11076  11075  11077      1    1.0835e+02    3.2995e+02 ;    H7R - C17    - H7S   
 11076  11075  11078      1    1.1005e+02    3.8802e+02 ;    H7R - C17    - C16   
 11077  11075  11078      1    1.1005e+02    3.8802e+02 ;    H7S - C17    - C16   
 11078  11081  11082      1    1.1005e+02    3.8802e+02 ;    C16 - C15    - H5R   
 11078  11081  11083      1    1.1005e+02    3.8802e+02 ;    C16 - C15    - H5S   
 11078  11081  11084      1    1.1205e+02    3.9497e+02 ;    C16 - C15    - C14   
 11079  11078  11080      1    1.0835e+02    3.2995e+02 ;    H6R - C16    - H6S   
 11079  11078  11081      1    1.1005e+02    3.8802e+02 ;    H6R - C16    - C15   
 11080  11078  11081      1    1.1005e+02    3.8802e+02 ;    H6S - C16    - C15   
 11081  11084  11085      1    1.1005e+02    3.8802e+02 ;    C15 - C14    - H4R   
 11081  11084  11086      1    1.1005e+02    3.8802e+02 ;    C15 - C14    - H4S   
 11081  11084  11087      1    1.1205e+02    3.9497e+02 ;    C15 - C14    - C13   
 11082  11081  11083      1    1.0835e+02    3.2995e+02 ;    H5R - C15    - H5S   
 11082  11081  11084      1    1.1005e+02    3.8802e+02 ;    H5R - C15    - C14   
 11083  11081  11084      1    1.1005e+02    3.8802e+02 ;    H5S - C15    - C14   
 11084  11087  11088      1    1.1005e+02    3.8802e+02 ;    C14 - C13    - H3R   
 11084  11087  11089      1    1.1005e+02    3.8802e+02 ;    C14 - C13    - H3S   
 11084  11087  11090      1    1.1205e+02    3.9497e+02 ;    C14 - C13    - C12   
 11085  11084  11086      1    1.0835e+02    3.2995e+02 ;    H4R - C14    - H4S   
 11085  11084  11087      1    1.1005e+02    3.8802e+02 ;    H4R - C14    - C13   
 11086  11084  11087      1    1.1005e+02    3.8802e+02 ;    H4S - C14    - C13   
 11087  11090  11091      1    1.1005e+02    3.8802e+02 ;    C13 - C12    - H2R   
 11087  11090  11092      1    1.1005e+02    3.8802e+02 ;    C13 - C12    - H2S   
 11088  11087  11089      1    1.0835e+02    3.2995e+02 ;    H3R - C13    - H3S   
 11088  11087  11090      1    1.1005e+02    3.8802e+02 ;    H3R - C13    - C12   
 11089  11087  11090      1    1.1005e+02    3.8802e+02 ;    H3S - C13    - C12   
 11091  11090  11092      1    1.0835e+02    3.2995e+02 ;    H2R - C12    - H2S   
 11093  11094  11095      1    1.0835e+02    3.2995e+02 ;   H14T - C114   - H14R  
 11093  11094  11096      1    1.0835e+02    3.2995e+02 ;   H14T - C114   - H14S  
 11093  11094  11097      1    1.1005e+02    3.8802e+02 ;   H14T - C114   - C113  
 11094  11097  11098      1    1.1005e+02    3.8802e+02 ;   C114 - C113   - H13R  
 11094  11097  11099      1    1.1005e+02    3.8802e+02 ;   C114 - C113   - H13S  
 11094  11097  11100      1    1.1205e+02    3.9497e+02 ;   C114 - C113   - C112  
 11095  11094  11096      1    1.0835e+02    3.2995e+02 ;   H14R - C114   - H14S  
 11095  11094  11097      1    1.1005e+02    3.8802e+02 ;   H14R - C114   - C113  
 11096  11094  11097      1    1.1005e+02    3.8802e+02 ;   H14S - C114   - C113  
 11097  11100  11101      1    1.1005e+02    3.8802e+02 ;   C113 - C112   - H12R  
 11097  11100  11102      1    1.1005e+02    3.8802e+02 ;   C113 - C112   - H12S  
 11097  11100  11103      1    1.1205e+02    3.9497e+02 ;   C113 - C112   - C111  
 11098  11097  11099      1    1.0835e+02    3.2995e+02 ;   H13R - C113   - H13S  
 11098  11097  11100      1    1.1005e+02    3.8802e+02 ;   H13R - C113   - C112  
 11099  11097  11100      1    1.1005e+02    3.8802e+02 ;   H13S - C113   - C112  
 11100  11103  11104      1    1.1005e+02    3.8802e+02 ;   C112 - C111   - H11R  
 11100  11103  11105      1    1.1005e+02    3.8802e+02 ;   C112 - C111   - H11S  
 11100  11103  11106      1    1.1205e+02    3.9497e+02 ;   C112 - C111   - C110  
 11101  11100  11102      1    1.0835e+02    3.2995e+02 ;   H12R - C112   - H12S  
 11101  11100  11103      1    1.1005e+02    3.8802e+02 ;   H12R - C112   - C111  
 11102  11100  11103      1    1.1005e+02    3.8802e+02 ;   H12S - C112   - C111  
 11103  11106  11107      1    1.1005e+02    3.8802e+02 ;   C111 - C110   - H10R  
 11103  11106  11108      1    1.1005e+02    3.8802e+02 ;   C111 - C110   - H10S  
 11103  11106  11109      1    1.1205e+02    3.9497e+02 ;   C111 - C110   - C19   
 11104  11103  11105      1    1.0835e+02    3.2995e+02 ;   H11R - C111   - H11S  
 11104  11103  11106      1    1.1005e+02    3.8802e+02 ;   H11R - C111   - C110  
 11105  11103  11106      1    1.1005e+02    3.8802e+02 ;   H11S - C111   - C110  
 11106  11109  11110      1    1.1005e+02    3.8802e+02 ;   C110 - C19    - H9R   
 11106  11109  11111      1    1.1005e+02    3.8802e+02 ;   C110 - C19    - H9S   
 11106  11109  11112      1    1.1205e+02    3.9497e+02 ;   C110 - C19    - C18   
 11107  11106  11108      1    1.0835e+02    3.2995e+02 ;   H10R - C110   - H10S  
 11107  11106  11109      1    1.1005e+02    3.8802e+02 ;   H10R - C110   - C19   
 11108  11106  11109      1    1.1005e+02    3.8802e+02 ;   H10S - C110   - C19   
 11109  11112  11113      1    1.1005e+02    3.8802e+02 ;    C19 - C18    - H8R   
 11109  11112  11114      1    1.1005e+02    3.8802e+02 ;    C19 - C18    - H8S   
 11109  11112  11115      1    1.1205e+02    3.9497e+02 ;    C19 - C18    - C17   
 11110  11109  11111      1    1.0835e+02    3.2995e+02 ;    H9R - C19    - H9S   
 11110  11109  11112      1    1.1005e+02    3.8802e+02 ;    H9R - C19    - C18   
 11111  11109  11112      1    1.1005e+02    3.8802e+02 ;    H9S - C19    - C18   
 11112  11115  11116      1    1.1005e+02    3.8802e+02 ;    C18 - C17    - H7R   
 11112  11115  11117      1    1.1005e+02    3.8802e+02 ;    C18 - C17    - H7S   
 11112  11115  11118      1    1.1205e+02    3.9497e+02 ;    C18 - C17    - C16   
 11113  11112  11114      1    1.0835e+02    3.2995e+02 ;    H8R - C18    - H8S   
 11113  11112  11115      1    1.1005e+02    3.8802e+02 ;    H8R - C18    - C17   
 11114  11112  11115      1    1.1005e+02    3.8802e+02 ;    H8S - C18    - C17   
 11115  11118  11119      1    1.1005e+02    3.8802e+02 ;    C17 - C16    - H6R   
 11115  11118  11120      1    1.1005e+02    3.8802e+02 ;    C17 - C16    - H6S   
 11115  11118  11121      1    1.1205e+02    3.9497e+02 ;    C17 - C16    - C15   
 11116  11115  11117      1    1.0835e+02    3.2995e+02 ;    H7R - C17    - H7S   
 11116  11115  11118      1    1.1005e+02    3.8802e+02 ;    H7R - C17    - C16   
 11117  11115  11118      1    1.1005e+02    3.8802e+02 ;    H7S - C17    - C16   
 11118  11121  11122      1    1.1005e+02    3.8802e+02 ;    C16 - C15    - H5R   
 11118  11121  11123      1    1.1005e+02    3.8802e+02 ;    C16 - C15    - H5S   
 11118  11121  11124      1    1.1205e+02    3.9497e+02 ;    C16 - C15    - C14   
 11119  11118  11120      1    1.0835e+02    3.2995e+02 ;    H6R - C16    - H6S   
 11119  11118  11121      1    1.1005e+02    3.8802e+02 ;    H6R - C16    - C15   
 11120  11118  11121      1    1.1005e+02    3.8802e+02 ;    H6S - C16    - C15   
 11121  11124  11125      1    1.1005e+02    3.8802e+02 ;    C15 - C14    - H4R   
 11121  11124  11126      1    1.1005e+02    3.8802e+02 ;    C15 - C14    - H4S   
 11121  11124  11127      1    1.1205e+02    3.9497e+02 ;    C15 - C14    - C13   
 11122  11121  11123      1    1.0835e+02    3.2995e+02 ;    H5R - C15    - H5S   
 11122  11121  11124      1    1.1005e+02    3.8802e+02 ;    H5R - C15    - C14   
 11123  11121  11124      1    1.1005e+02    3.8802e+02 ;    H5S - C15    - C14   
 11124  11127  11128      1    1.1005e+02    3.8802e+02 ;    C14 - C13    - H3R   
 11124  11127  11129      1    1.1005e+02    3.8802e+02 ;    C14 - C13    - H3S   
 11124  11127  11130      1    1.1205e+02    3.9497e+02 ;    C14 - C13    - C12   
 11125  11124  11126      1    1.0835e+02    3.2995e+02 ;    H4R - C14    - H4S   
 11125  11124  11127      1    1.1005e+02    3.8802e+02 ;    H4R - C14    - C13   
 11126  11124  11127      1    1.1005e+02    3.8802e+02 ;    H4S - C14    - C13   
 11127  11130  11131      1    1.1005e+02    3.8802e+02 ;    C13 - C12    - H2R   
 11127  11130  11132      1    1.1005e+02    3.8802e+02 ;    C13 - C12    - H2S   
 11127  11130  11133      1    1.1053e+02    5.3379e+02 ;    C13 - C12    - C11   
 11128  11127  11129      1    1.0835e+02    3.2995e+02 ;    H3R - C13    - H3S   
 11128  11127  11130      1    1.1005e+02    3.8802e+02 ;    H3R - C13    - C12   
 11129  11127  11130      1    1.1005e+02    3.8802e+02 ;    H3S - C13    - C12   
 11130  11133  11134      1    1.2311e+02    5.6928e+02 ;    C12 - C11    - O12   
 11130  11133  11135      1    1.1196e+02    5.7957e+02 ;    C12 - C11    - O11   
 11131  11130  11132      1    1.0835e+02    3.2995e+02 ;    H2R - C12    - H2S   
 11131  11130  11133      1    1.0968e+02    3.9497e+02 ;    H2R - C12    - C11   
 11132  11130  11133      1    1.0968e+02    3.9497e+02 ;    H2S - C12    - C11   
 11133  11135  11136      1    1.1514e+02    5.3246e+02 ;    C11 - O11    - C1    
 11134  11133  11135      1    1.2333e+02    6.3538e+02 ;    O12 - C11    - O11   
 11135  11136  11137      1    1.0882e+02    4.2543e+02 ;    O11 - C1     - HR    
 11135  11136  11138      1    1.0882e+02    4.2543e+02 ;    O11 - C1     - HS    
 11135  11136  11139      1    1.0842e+02    5.6718e+02 ;    O11 - C1     - C2    
 11136  11139  11140      1    1.1007e+02    3.8794e+02 ;     C1 - C2     - HX    
 11136  11139  11141      1    1.1063e+02    5.2894e+02 ;     C1 - C2     - C3    
 11136  11139  11168      1    1.0842e+02    5.6718e+02 ;     C1 - C2     - O21   
 11137  11136  11138      1    1.0955e+02    3.2786e+02 ;     HR - C1     - HS    
 11137  11136  11139      1    1.1007e+02    3.8794e+02 ;     HR - C1     - C2    
 11138  11136  11139      1    1.1007e+02    3.8794e+02 ;     HS - C1     - C2    
 11139  11141  11142      1    1.1007e+02    3.8794e+02 ;     C2 - C3     - HA    
 11139  11141  11143      1    1.1007e+02    3.8794e+02 ;     C2 - C3     - HB    
 11139  11141  11144      1    1.0842e+02    5.6718e+02 ;     C2 - C3     - O31   
 11139  11168  11169      1    1.1514e+02    5.3246e+02 ;     C2 - O21    - C21   
 11140  11139  11141      1    1.1007e+02    3.8794e+02 ;     HX - C2     - C3    
 11140  11139  11168      1    1.0882e+02    4.2543e+02 ;     HX - C2     - O21   
 11141  11139  11168      1    1.0842e+02    5.6718e+02 ;     C3 - C2     - O21   
 11141  11144  11145      1    1.2050e+02    8.3680e+02 ;     C3 - O31    - P31   
 11142  11141  11143      1    1.0955e+02    3.2786e+02 ;     HA - C3     - HB    
 11142  11141  11144      1    1.0882e+02    4.2543e+02 ;     HA - C3     - O31   
 11143  11141  11144      1    1.0882e+02    4.2543e+02 ;     HB - C3     - O31   
 11144  11145  11146      1    1.0260e+02    7.5312e+02 ;    O31 - P31    - O32   
 11144  11145  11166      1    1.0823e+02    8.3680e+02 ;    O31 - P31    - O33   
 11144  11145  11167      1    1.0823e+02    8.3680e+02 ;    O31 - P31    - O34   
 11145  11146  11147      1    1.2050e+02    8.3680e+02 ;    P31 - O32    - C31   
 11146  11145  11166      1    1.0823e+02    8.3680e+02 ;    O32 - P31    - O33   
 11146  11145  11167      1    1.0823e+02    8.3680e+02 ;    O32 - P31    - O34   
 11146  11147  11148      1    1.0882e+02    4.2543e+02 ;    O32 - C31    - H1A   
 11146  11147  11149      1    1.0882e+02    4.2543e+02 ;    O32 - C31    - H1B   
 11146  11147  11150      1    1.0842e+02    5.6718e+02 ;    O32 - C31    - C32   
 11147  11150  11151      1    1.1174e+02    3.8510e+02 ;    C31 - C32    - H2A   
 11147  11150  11152      1    1.1174e+02    3.8510e+02 ;    C31 - C32    - H2B   
 11147  11150  11153      1    1.1432e+02    5.3932e+02 ;    C31 - C32    - N31   
 11148  11147  11149      1    1.0955e+02    3.2786e+02 ;    H1A - C31    - H1B   
 11148  11147  11150      1    1.1007e+02    3.8794e+02 ;    H1A - C31    - C32   
 11149  11147  11150      1    1.1007e+02    3.8794e+02 ;    H1B - C31    - C32   
 11150  11153  11154      1    1.1064e+02    5.2585e+02 ;    C32 - N31    - C33   
 11150  11153  11158      1    1.1064e+02    5.2585e+02 ;    C32 - N31    - C34   
 11150  11153  11162      1    1.1064e+02    5.2585e+02 ;    C32 - N31    - C35   
 11151  11150  11152      1    1.1074e+02    3.2669e+02 ;    H2A - C32    - H2B   
 11151  11150  11153      1    1.0791e+02    4.1020e+02 ;    H2A - C32    - N31   
 11152  11150  11153      1    1.0791e+02    4.1020e+02 ;    H2B - C32    - N31   
 11153  11154  11155      1    1.0791e+02    4.1020e+02 ;    N31 - C33    - H3A   
 11153  11154  11156      1    1.0791e+02    4.1020e+02 ;    N31 - C33    - H3B   
 11153  11154  11157      1    1.0791e+02    4.1020e+02 ;    N31 - C33    - H3C   
 11153  11158  11159      1    1.0791e+02    4.1020e+02 ;    N31 - C34    - H4A   
 11153  11158  11160      1    1.0791e+02    4.1020e+02 ;    N31 - C34    - H4B   
 11153  11158  11161      1    1.0791e+02    4.1020e+02 ;    N31 - C34    - H4C   
 11153  11162  11163      1    1.0791e+02    4.1020e+02 ;    N31 - C35    - H5A   
 11153  11162  11164      1    1.0791e+02    4.1020e+02 ;    N31 - C35    - H5B   
 11153  11162  11165      1    1.0791e+02    4.1020e+02 ;    N31 - C35    - H5C   
 11154  11153  11158      1    1.1064e+02    5.2585e+02 ;    C33 - N31    - C34   
 11154  11153  11162      1    1.1064e+02    5.2585e+02 ;    C33 - N31    - C35   
 11155  11154  11156      1    1.1074e+02    3.2669e+02 ;    H3A - C33    - H3B   
 11155  11154  11157      1    1.1074e+02    3.2669e+02 ;    H3A - C33    - H3C   
 11156  11154  11157      1    1.1074e+02    3.2669e+02 ;    H3B - C33    - H3C   
 11158  11153  11162      1    1.1064e+02    5.2585e+02 ;    C34 - N31    - C35   
 11159  11158  11160      1    1.1074e+02    3.2669e+02 ;    H4A - C34    - H4B   
 11159  11158  11161      1    1.1074e+02    3.2669e+02 ;    H4A - C34    - H4C   
 11160  11158  11161      1    1.1074e+02    3.2669e+02 ;    H4B - C34    - H4C   
 11163  11162  11164      1    1.1074e+02    3.2669e+02 ;    H5A - C35    - H5B   
 11163  11162  11165      1    1.1074e+02    3.2669e+02 ;    H5A - C35    - H5C   
 11164  11162  11165      1    1.1074e+02    3.2669e+02 ;    H5B - C35    - H5C   
 11166  11145  11167      1    1.1990e+02    1.1715e+03 ;    O33 - P31    - O34   
 11168  11169  11170      1    1.2333e+02    6.3538e+02 ;    O21 - C21    - O22   
 11168  11169  11208      1    1.1196e+02    5.7957e+02 ;    O21 - C21    - C12   
 11169  11208  11205      1    1.1053e+02    5.3379e+02 ;    C21 - C12    - C13   
 11169  11208  11209      1    1.0968e+02    3.9497e+02 ;    C21 - C12    - H2R   
 11169  11208  11210      1    1.0968e+02    3.9497e+02 ;    C21 - C12    - H2S   
 11170  11169  11208      1    1.2311e+02    5.6928e+02 ;    O22 - C21    - C12   
 11171  11172  11173      1    1.0835e+02    3.2995e+02 ;   H14T - C114   - H14R  
 11171  11172  11174      1    1.0835e+02    3.2995e+02 ;   H14T - C114   - H14S  
 11171  11172  11175      1    1.1005e+02    3.8802e+02 ;   H14T - C114   - C113  
 11172  11175  11176      1    1.1005e+02    3.8802e+02 ;   C114 - C113   - H13R  
 11172  11175  11177      1    1.1005e+02    3.8802e+02 ;   C114 - C113   - H13S  
 11172  11175  11178      1    1.1205e+02    3.9497e+02 ;   C114 - C113   - C112  
 11173  11172  11174      1    1.0835e+02    3.2995e+02 ;   H14R - C114   - H14S  
 11173  11172  11175      1    1.1005e+02    3.8802e+02 ;   H14R - C114   - C113  
 11174  11172  11175      1    1.1005e+02    3.8802e+02 ;   H14S - C114   - C113  
 11175  11178  11179      1    1.1005e+02    3.8802e+02 ;   C113 - C112   - H12R  
 11175  11178  11180      1    1.1005e+02    3.8802e+02 ;   C113 - C112   - H12S  
 11175  11178  11181      1    1.1205e+02    3.9497e+02 ;   C113 - C112   - C111  
 11176  11175  11177      1    1.0835e+02    3.2995e+02 ;   H13R - C113   - H13S  
 11176  11175  11178      1    1.1005e+02    3.8802e+02 ;   H13R - C113   - C112  
 11177  11175  11178      1    1.1005e+02    3.8802e+02 ;   H13S - C113   - C112  
 11178  11181  11182      1    1.1005e+02    3.8802e+02 ;   C112 - C111   - H11R  
 11178  11181  11183      1    1.1005e+02    3.8802e+02 ;   C112 - C111   - H11S  
 11178  11181  11184      1    1.1205e+02    3.9497e+02 ;   C112 - C111   - C110  
 11179  11178  11180      1    1.0835e+02    3.2995e+02 ;   H12R - C112   - H12S  
 11179  11178  11181      1    1.1005e+02    3.8802e+02 ;   H12R - C112   - C111  
 11180  11178  11181      1    1.1005e+02    3.8802e+02 ;   H12S - C112   - C111  
 11181  11184  11185      1    1.1005e+02    3.8802e+02 ;   C111 - C110   - H10R  
 11181  11184  11186      1    1.1005e+02    3.8802e+02 ;   C111 - C110   - H10S  
 11181  11184  11187      1    1.1205e+02    3.9497e+02 ;   C111 - C110   - C19   
 11182  11181  11183      1    1.0835e+02    3.2995e+02 ;   H11R - C111   - H11S  
 11182  11181  11184      1    1.1005e+02    3.8802e+02 ;   H11R - C111   - C110  
 11183  11181  11184      1    1.1005e+02    3.8802e+02 ;   H11S - C111   - C110  
 11184  11187  11188      1    1.1005e+02    3.8802e+02 ;   C110 - C19    - H9R   
 11184  11187  11189      1    1.1005e+02    3.8802e+02 ;   C110 - C19    - H9S   
 11184  11187  11190      1    1.1205e+02    3.9497e+02 ;   C110 - C19    - C18   
 11185  11184  11186      1    1.0835e+02    3.2995e+02 ;   H10R - C110   - H10S  
 11185  11184  11187      1    1.1005e+02    3.8802e+02 ;   H10R - C110   - C19   
 11186  11184  11187      1    1.1005e+02    3.8802e+02 ;   H10S - C110   - C19   
 11187  11190  11191      1    1.1005e+02    3.8802e+02 ;    C19 - C18    - H8R   
 11187  11190  11192      1    1.1005e+02    3.8802e+02 ;    C19 - C18    - H8S   
 11187  11190  11193      1    1.1205e+02    3.9497e+02 ;    C19 - C18    - C17   
 11188  11187  11189      1    1.0835e+02    3.2995e+02 ;    H9R - C19    - H9S   
 11188  11187  11190      1    1.1005e+02    3.8802e+02 ;    H9R - C19    - C18   
 11189  11187  11190      1    1.1005e+02    3.8802e+02 ;    H9S - C19    - C18   
 11190  11193  11194      1    1.1005e+02    3.8802e+02 ;    C18 - C17    - H7R   
 11190  11193  11195      1    1.1005e+02    3.8802e+02 ;    C18 - C17    - H7S   
 11190  11193  11196      1    1.1205e+02    3.9497e+02 ;    C18 - C17    - C16   
 11191  11190  11192      1    1.0835e+02    3.2995e+02 ;    H8R - C18    - H8S   
 11191  11190  11193      1    1.1005e+02    3.8802e+02 ;    H8R - C18    - C17   
 11192  11190  11193      1    1.1005e+02    3.8802e+02 ;    H8S - C18    - C17   
 11193  11196  11197      1    1.1005e+02    3.8802e+02 ;    C17 - C16    - H6R   
 11193  11196  11198      1    1.1005e+02    3.8802e+02 ;    C17 - C16    - H6S   
 11193  11196  11199      1    1.1205e+02    3.9497e+02 ;    C17 - C16    - C15   
 11194  11193  11195      1    1.0835e+02    3.2995e+02 ;    H7R - C17    - H7S   
 11194  11193  11196      1    1.1005e+02    3.8802e+02 ;    H7R - C17    - C16   
 11195  11193  11196      1    1.1005e+02    3.8802e+02 ;    H7S - C17    - C16   
 11196  11199  11200      1    1.1005e+02    3.8802e+02 ;    C16 - C15    - H5R   
 11196  11199  11201      1    1.1005e+02    3.8802e+02 ;    C16 - C15    - H5S   
 11196  11199  11202      1    1.1205e+02    3.9497e+02 ;    C16 - C15    - C14   
 11197  11196  11198      1    1.0835e+02    3.2995e+02 ;    H6R - C16    - H6S   
 11197  11196  11199      1    1.1005e+02    3.8802e+02 ;    H6R - C16    - C15   
 11198  11196  11199      1    1.1005e+02    3.8802e+02 ;    H6S - C16    - C15   
 11199  11202  11203      1    1.1005e+02    3.8802e+02 ;    C15 - C14    - H4R   
 11199  11202  11204      1    1.1005e+02    3.8802e+02 ;    C15 - C14    - H4S   
 11199  11202  11205      1    1.1205e+02    3.9497e+02 ;    C15 - C14    - C13   
 11200  11199  11201      1    1.0835e+02    3.2995e+02 ;    H5R - C15    - H5S   
 11200  11199  11202      1    1.1005e+02    3.8802e+02 ;    H5R - C15    - C14   
 11201  11199  11202      1    1.1005e+02    3.8802e+02 ;    H5S - C15    - C14   
 11202  11205  11206      1    1.1005e+02    3.8802e+02 ;    C14 - C13    - H3R   
 11202  11205  11207      1    1.1005e+02    3.8802e+02 ;    C14 - C13    - H3S   
 11202  11205  11208      1    1.1205e+02    3.9497e+02 ;    C14 - C13    - C12   
 11203  11202  11204      1    1.0835e+02    3.2995e+02 ;    H4R - C14    - H4S   
 11203  11202  11205      1    1.1005e+02    3.8802e+02 ;    H4R - C14    - C13   
 11204  11202  11205      1    1.1005e+02    3.8802e+02 ;    H4S - C14    - C13   
 11205  11208  11209      1    1.1005e+02    3.8802e+02 ;    C13 - C12    - H2R   
 11205  11208  11210      1    1.1005e+02    3.8802e+02 ;    C13 - C12    - H2S   
 11206  11205  11207      1    1.0835e+02    3.2995e+02 ;    H3R - C13    - H3S   
 11206  11205  11208      1    1.1005e+02    3.8802e+02 ;    H3R - C13    - C12   
 11207  11205  11208      1    1.1005e+02    3.8802e+02 ;    H3S - C13    - C12   
 11209  11208  11210      1    1.0835e+02    3.2995e+02 ;    H2R - C12    - H2S   
 11211  11212  11213      1    1.0835e+02    3.2995e+02 ;   H14T - C114   - H14R  
 11211  11212  11214      1    1.0835e+02    3.2995e+02 ;   H14T - C114   - H14S  
 11211  11212  11215      1    1.1005e+02    3.8802e+02 ;   H14T - C114   - C113  
 11212  11215  11216      1    1.1005e+02    3.8802e+02 ;   C114 - C113   - H13R  
 11212  11215  11217      1    1.1005e+02    3.8802e+02 ;   C114 - C113   - H13S  
 11212  11215  11218      1    1.1205e+02    3.9497e+02 ;   C114 - C113   - C112  
 11213  11212  11214      1    1.0835e+02    3.2995e+02 ;   H14R - C114   - H14S  
 11213  11212  11215      1    1.1005e+02    3.8802e+02 ;   H14R - C114   - C113  
 11214  11212  11215      1    1.1005e+02    3.8802e+02 ;   H14S - C114   - C113  
 11215  11218  11219      1    1.1005e+02    3.8802e+02 ;   C113 - C112   - H12R  
 11215  11218  11220      1    1.1005e+02    3.8802e+02 ;   C113 - C112   - H12S  
 11215  11218  11221      1    1.1205e+02    3.9497e+02 ;   C113 - C112   - C111  
 11216  11215  11217      1    1.0835e+02    3.2995e+02 ;   H13R - C113   - H13S  
 11216  11215  11218      1    1.1005e+02    3.8802e+02 ;   H13R - C113   - C112  
 11217  11215  11218      1    1.1005e+02    3.8802e+02 ;   H13S - C113   - C112  
 11218  11221  11222      1    1.1005e+02    3.8802e+02 ;   C112 - C111   - H11R  
 11218  11221  11223      1    1.1005e+02    3.8802e+02 ;   C112 - C111   - H11S  
 11218  11221  11224      1    1.1205e+02    3.9497e+02 ;   C112 - C111   - C110  
 11219  11218  11220      1    1.0835e+02    3.2995e+02 ;   H12R - C112   - H12S  
 11219  11218  11221      1    1.1005e+02    3.8802e+02 ;   H12R - C112   - C111  
 11220  11218  11221      1    1.1005e+02    3.8802e+02 ;   H12S - C112   - C111  
 11221  11224  11225      1    1.1005e+02    3.8802e+02 ;   C111 - C110   - H10R  
 11221  11224  11226      1    1.1005e+02    3.8802e+02 ;   C111 - C110   - H10S  
 11221  11224  11227      1    1.1205e+02    3.9497e+02 ;   C111 - C110   - C19   
 11222  11221  11223      1    1.0835e+02    3.2995e+02 ;   H11R - C111   - H11S  
 11222  11221  11224      1    1.1005e+02    3.8802e+02 ;   H11R - C111   - C110  
 11223  11221  11224      1    1.1005e+02    3.8802e+02 ;   H11S - C111   - C110  
 11224  11227  11228      1    1.1005e+02    3.8802e+02 ;   C110 - C19    - H9R   
 11224  11227  11229      1    1.1005e+02    3.8802e+02 ;   C110 - C19    - H9S   
 11224  11227  11230      1    1.1205e+02    3.9497e+02 ;   C110 - C19    - C18   
 11225  11224  11226      1    1.0835e+02    3.2995e+02 ;   H10R - C110   - H10S  
 11225  11224  11227      1    1.1005e+02    3.8802e+02 ;   H10R - C110   - C19   
 11226  11224  11227      1    1.1005e+02    3.8802e+02 ;   H10S - C110   - C19   
 11227  11230  11231      1    1.1005e+02    3.8802e+02 ;    C19 - C18    - H8R   
 11227  11230  11232      1    1.1005e+02    3.8802e+02 ;    C19 - C18    - H8S   
 11227  11230  11233      1    1.1205e+02    3.9497e+02 ;    C19 - C18    - C17   
 11228  11227  11229      1    1.0835e+02    3.2995e+02 ;    H9R - C19    - H9S   
 11228  11227  11230      1    1.1005e+02    3.8802e+02 ;    H9R - C19    - C18   
 11229  11227  11230      1    1.1005e+02    3.8802e+02 ;    H9S - C19    - C18   
 11230  11233  11234      1    1.1005e+02    3.8802e+02 ;    C18 - C17    - H7R   
 11230  11233  11235      1    1.1005e+02    3.8802e+02 ;    C18 - C17    - H7S   
 11230  11233  11236      1    1.1205e+02    3.9497e+02 ;    C18 - C17    - C16   
 11231  11230  11232      1    1.0835e+02    3.2995e+02 ;    H8R - C18    - H8S   
 11231  11230  11233      1    1.1005e+02    3.8802e+02 ;    H8R - C18    - C17   
 11232  11230  11233      1    1.1005e+02    3.8802e+02 ;    H8S - C18    - C17   
 11233  11236  11237      1    1.1005e+02    3.8802e+02 ;    C17 - C16    - H6R   
 11233  11236  11238      1    1.1005e+02    3.8802e+02 ;    C17 - C16    - H6S   
 11233  11236  11239      1    1.1205e+02    3.9497e+02 ;    C17 - C16    - C15   
 11234  11233  11235      1    1.0835e+02    3.2995e+02 ;    H7R - C17    - H7S   
 11234  11233  11236      1    1.1005e+02    3.8802e+02 ;    H7R - C17    - C16   
 11235  11233  11236      1    1.1005e+02    3.8802e+02 ;    H7S - C17    - C16   
 11236  11239  11240      1    1.1005e+02    3.8802e+02 ;    C16 - C15    - H5R   
 11236  11239  11241      1    1.1005e+02    3.8802e+02 ;    C16 - C15    - H5S   
 11236  11239  11242      1    1.1205e+02    3.9497e+02 ;    C16 - C15    - C14   
 11237  11236  11238      1    1.0835e+02    3.2995e+02 ;    H6R - C16    - H6S   
 11237  11236  11239      1    1.1005e+02    3.8802e+02 ;    H6R - C16    - C15   
 11238  11236  11239      1    1.1005e+02    3.8802e+02 ;    H6S - C16    - C15   
 11239  11242  11243      1    1.1005e+02    3.8802e+02 ;    C15 - C14    - H4R   
 11239  11242  11244      1    1.1005e+02    3.8802e+02 ;    C15 - C14    - H4S   
 11239  11242  11245      1    1.1205e+02    3.9497e+02 ;    C15 - C14    - C13   
 11240  11239  11241      1    1.0835e+02    3.2995e+02 ;    H5R - C15    - H5S   
 11240  11239  11242      1    1.1005e+02    3.8802e+02 ;    H5R - C15    - C14   
 11241  11239  11242      1    1.1005e+02    3.8802e+02 ;    H5S - C15    - C14   
 11242  11245  11246      1    1.1005e+02    3.8802e+02 ;    C14 - C13    - H3R   
 11242  11245  11247      1    1.1005e+02    3.8802e+02 ;    C14 - C13    - H3S   
 11242  11245  11248      1    1.1205e+02    3.9497e+02 ;    C14 - C13    - C12   
 11243  11242  11244      1    1.0835e+02    3.2995e+02 ;    H4R - C14    - H4S   
 11243  11242  11245      1    1.1005e+02    3.8802e+02 ;    H4R - C14    - C13   
 11244  11242  11245      1    1.1005e+02    3.8802e+02 ;    H4S - C14    - C13   
 11245  11248  11249      1    1.1005e+02    3.8802e+02 ;    C13 - C12    - H2R   
 11245  11248  11250      1    1.1005e+02    3.8802e+02 ;    C13 - C12    - H2S   
 11245  11248  11251      1    1.1053e+02    5.3379e+02 ;    C13 - C12    - C11   
 11246  11245  11247      1    1.0835e+02    3.2995e+02 ;    H3R - C13    - H3S   
 11246  11245  11248      1    1.1005e+02    3.8802e+02 ;    H3R - C13    - C12   
 11247  11245  11248      1    1.1005e+02    3.8802e+02 ;    H3S - C13    - C12   
 11248  11251  11252      1    1.2311e+02    5.6928e+02 ;    C12 - C11    - O12   
 11248  11251  11253      1    1.1196e+02    5.7957e+02 ;    C12 - C11    - O11   
 11249  11248  11250      1    1.0835e+02    3.2995e+02 ;    H2R - C12    - H2S   
 11249  11248  11251      1    1.0968e+02    3.9497e+02 ;    H2R - C12    - C11   
 11250  11248  11251      1    1.0968e+02    3.9497e+02 ;    H2S - C12    - C11   
 11251  11253  11254      1    1.1514e+02    5.3246e+02 ;    C11 - O11    - C1    
 11252  11251  11253      1    1.2333e+02    6.3538e+02 ;    O12 - C11    - O11   
 11253  11254  11255      1    1.0882e+02    4.2543e+02 ;    O11 - C1     - HR    
 11253  11254  11256      1    1.0882e+02    4.2543e+02 ;    O11 - C1     - HS    
 11253  11254  11257      1    1.0842e+02    5.6718e+02 ;    O11 - C1     - C2    
 11254  11257  11258      1    1.1007e+02    3.8794e+02 ;     C1 - C2     - HX    
 11254  11257  11259      1    1.1063e+02    5.2894e+02 ;     C1 - C2     - C3    
 11254  11257  11286      1    1.0842e+02    5.6718e+02 ;     C1 - C2     - O21   
 11255  11254  11256      1    1.0955e+02    3.2786e+02 ;     HR - C1     - HS    
 11255  11254  11257      1    1.1007e+02    3.8794e+02 ;     HR - C1     - C2    
 11256  11254  11257      1    1.1007e+02    3.8794e+02 ;     HS - C1     - C2    
 11257  11259  11260      1    1.1007e+02    3.8794e+02 ;     C2 - C3     - HA    
 11257  11259  11261      1    1.1007e+02    3.8794e+02 ;     C2 - C3     - HB    
 11257  11259  11262      1    1.0842e+02    5.6718e+02 ;     C2 - C3     - O31   
 11257  11286  11287      1    1.1514e+02    5.3246e+02 ;     C2 - O21    - C21   
 11258  11257  11259      1    1.1007e+02    3.8794e+02 ;     HX - C2     - C3    
 11258  11257  11286      1    1.0882e+02    4.2543e+02 ;     HX - C2     - O21   
 11259  11257  11286      1    1.0842e+02    5.6718e+02 ;     C3 - C2     - O21   
 11259  11262  11263      1    1.2050e+02    8.3680e+02 ;     C3 - O31    - P31   
 11260  11259  11261      1    1.0955e+02    3.2786e+02 ;     HA - C3     - HB    
 11260  11259  11262      1    1.0882e+02    4.2543e+02 ;     HA - C3     - O31   
 11261  11259  11262      1    1.0882e+02    4.2543e+02 ;     HB - C3     - O31   
 11262  11263  11264      1    1.0260e+02    7.5312e+02 ;    O31 - P31    - O32   
 11262  11263  11284      1    1.0823e+02    8.3680e+02 ;    O31 - P31    - O33   
 11262  11263  11285      1    1.0823e+02    8.3680e+02 ;    O31 - P31    - O34   
 11263  11264  11265      1    1.2050e+02    8.3680e+02 ;    P31 - O32    - C31   
 11264  11263  11284      1    1.0823e+02    8.3680e+02 ;    O32 - P31    - O33   
 11264  11263  11285      1    1.0823e+02    8.3680e+02 ;    O32 - P31    - O34   
 11264  11265  11266      1    1.0882e+02    4.2543e+02 ;    O32 - C31    - H1A   
 11264  11265  11267      1    1.0882e+02    4.2543e+02 ;    O32 - C31    - H1B   
 11264  11265  11268      1    1.0842e+02    5.6718e+02 ;    O32 - C31    - C32   
 11265  11268  11269      1    1.1174e+02    3.8510e+02 ;    C31 - C32    - H2A   
 11265  11268  11270      1    1.1174e+02    3.8510e+02 ;    C31 - C32    - H2B   
 11265  11268  11271      1    1.1432e+02    5.3932e+02 ;    C31 - C32    - N31   
 11266  11265  11267      1    1.0955e+02    3.2786e+02 ;    H1A - C31    - H1B   
 11266  11265  11268      1    1.1007e+02    3.8794e+02 ;    H1A - C31    - C32   
 11267  11265  11268      1    1.1007e+02    3.8794e+02 ;    H1B - C31    - C32   
 11268  11271  11272      1    1.1064e+02    5.2585e+02 ;    C32 - N31    - C33   
 11268  11271  11276      1    1.1064e+02    5.2585e+02 ;    C32 - N31    - C34   
 11268  11271  11280      1    1.1064e+02    5.2585e+02 ;    C32 - N31    - C35   
 11269  11268  11270      1    1.1074e+02    3.2669e+02 ;    H2A - C32    - H2B   
 11269  11268  11271      1    1.0791e+02    4.1020e+02 ;    H2A - C32    - N31   
 11270  11268  11271      1    1.0791e+02    4.1020e+02 ;    H2B - C32    - N31   
 11271  11272  11273      1    1.0791e+02    4.1020e+02 ;    N31 - C33    - H3A   
 11271  11272  11274      1    1.0791e+02    4.1020e+02 ;    N31 - C33    - H3B   
 11271  11272  11275      1    1.0791e+02    4.1020e+02 ;    N31 - C33    - H3C   
 11271  11276  11277      1    1.0791e+02    4.1020e+02 ;    N31 - C34    - H4A   
 11271  11276  11278      1    1.0791e+02    4.1020e+02 ;    N31 - C34    - H4B   
 11271  11276  11279      1    1.0791e+02    4.1020e+02 ;    N31 - C34    - H4C   
 11271  11280  11281      1    1.0791e+02    4.1020e+02 ;    N31 - C35    - H5A   
 11271  11280  11282      1    1.0791e+02    4.1020e+02 ;    N31 - C35    - H5B   
 11271  11280  11283      1    1.0791e+02    4.1020e+02 ;    N31 - C35    - H5C   
 11272  11271  11276      1    1.1064e+02    5.2585e+02 ;    C33 - N31    - C34   
 11272  11271  11280      1    1.1064e+02    5.2585e+02 ;    C33 - N31    - C35   
 11273  11272  11274      1    1.1074e+02    3.2669e+02 ;    H3A - C33    - H3B   
 11273  11272  11275      1    1.1074e+02    3.2669e+02 ;    H3A - C33    - H3C   
 11274  11272  11275      1    1.1074e+02    3.2669e+02 ;    H3B - C33    - H3C   
 11276  11271  11280      1    1.1064e+02    5.2585e+02 ;    C34 - N31    - C35   
 11277  11276  11278      1    1.1074e+02    3.2669e+02 ;    H4A - C34    - H4B   
 11277  11276  11279      1    1.1074e+02    3.2669e+02 ;    H4A - C34    - H4C   
 11278  11276  11279      1    1.1074e+02    3.2669e+02 ;    H4B - C34    - H4C   
 11281  11280  11282      1    1.1074e+02    3.2669e+02 ;    H5A - C35    - H5B   
 11281  11280  11283      1    1.1074e+02    3.2669e+02 ;    H5A - C35    - H5C   
 11282  11280  11283      1    1.1074e+02    3.2669e+02 ;    H5B - C35    - H5C   
 11284  11263  11285      1    1.1990e+02    1.1715e+03 ;    O33 - P31    - O34   
 11286  11287  11288      1    1.2333e+02    6.3538e+02 ;    O21 - C21    - O22   
 11286  11287  11326      1    1.1196e+02    5.7957e+02 ;    O21 - C21    - C12   
 11287  11326  11323      1    1.1053e+02    5.3379e+02 ;    C21 - C12    - C13   
 11287  11326  11327      1    1.0968e+02    3.9497e+02 ;    C21 - C12    - H2R   
 11287  11326  11328      1    1.0968e+02    3.9497e+02 ;    C21 - C12    - H2S   
 11288  11287  11326      1    1.2311e+02    5.6928e+02 ;    O22 - C21    - C12   
 11289  11290  11291      1    1.0835e+02    3.2995e+02 ;   H14T - C114   - H14R  
 11289  11290  11292      1    1.0835e+02    3.2995e+02 ;   H14T - C114   - H14S  
 11289  11290  11293      1    1.1005e+02    3.8802e+02 ;   H14T - C114   - C113  
 11290  11293  11294      1    1.1005e+02    3.8802e+02 ;   C114 - C113   - H13R  
 11290  11293  11295      1    1.1005e+02    3.8802e+02 ;   C114 - C113   - H13S  
 11290  11293  11296      1    1.1205e+02    3.9497e+02 ;   C114 - C113   - C112  
 11291  11290  11292      1    1.0835e+02    3.2995e+02 ;   H14R - C114   - H14S  
 11291  11290  11293      1    1.1005e+02    3.8802e+02 ;   H14R - C114   - C113  
 11292  11290  11293      1    1.1005e+02    3.8802e+02 ;   H14S - C114   - C113  
 11293  11296  11297      1    1.1005e+02    3.8802e+02 ;   C113 - C112   - H12R  
 11293  11296  11298      1    1.1005e+02    3.8802e+02 ;   C113 - C112   - H12S  
 11293  11296  11299      1    1.1205e+02    3.9497e+02 ;   C113 - C112   - C111  
 11294  11293  11295      1    1.0835e+02    3.2995e+02 ;   H13R - C113   - H13S  
 11294  11293  11296      1    1.1005e+02    3.8802e+02 ;   H13R - C113   - C112  
 11295  11293  11296      1    1.1005e+02    3.8802e+02 ;   H13S - C113   - C112  
 11296  11299  11300      1    1.1005e+02    3.8802e+02 ;   C112 - C111   - H11R  
 11296  11299  11301      1    1.1005e+02    3.8802e+02 ;   C112 - C111   - H11S  
 11296  11299  11302      1    1.1205e+02    3.9497e+02 ;   C112 - C111   - C110  
 11297  11296  11298      1    1.0835e+02    3.2995e+02 ;   H12R - C112   - H12S  
 11297  11296  11299      1    1.1005e+02    3.8802e+02 ;   H12R - C112   - C111  
 11298  11296  11299      1    1.1005e+02    3.8802e+02 ;   H12S - C112   - C111  
 11299  11302  11303      1    1.1005e+02    3.8802e+02 ;   C111 - C110   - H10R  
 11299  11302  11304      1    1.1005e+02    3.8802e+02 ;   C111 - C110   - H10S  
 11299  11302  11305      1    1.1205e+02    3.9497e+02 ;   C111 - C110   - C19   
 11300  11299  11301      1    1.0835e+02    3.2995e+02 ;   H11R - C111   - H11S  
 11300  11299  11302      1    1.1005e+02    3.8802e+02 ;   H11R - C111   - C110  
 11301  11299  11302      1    1.1005e+02    3.8802e+02 ;   H11S - C111   - C110  
 11302  11305  11306      1    1.1005e+02    3.8802e+02 ;   C110 - C19    - H9R   
 11302  11305  11307      1    1.1005e+02    3.8802e+02 ;   C110 - C19    - H9S   
 11302  11305  11308      1    1.1205e+02    3.9497e+02 ;   C110 - C19    - C18   
 11303  11302  11304      1    1.0835e+02    3.2995e+02 ;   H10R - C110   - H10S  
 11303  11302  11305      1    1.1005e+02    3.8802e+02 ;   H10R - C110   - C19   
 11304  11302  11305      1    1.1005e+02    3.8802e+02 ;   H10S - C110   - C19   
 11305  11308  11309      1    1.1005e+02    3.8802e+02 ;    C19 - C18    - H8R   
 11305  11308  11310      1    1.1005e+02    3.8802e+02 ;    C19 - C18    - H8S   
 11305  11308  11311      1    1.1205e+02    3.9497e+02 ;    C19 - C18    - C17   
 11306  11305  11307      1    1.0835e+02    3.2995e+02 ;    H9R - C19    - H9S   
 11306  11305  11308      1    1.1005e+02    3.8802e+02 ;    H9R - C19    - C18   
 11307  11305  11308      1    1.1005e+02    3.8802e+02 ;    H9S - C19    - C18   
 11308  11311  11312      1    1.1005e+02    3.8802e+02 ;    C18 - C17    - H7R   
 11308  11311  11313      1    1.1005e+02    3.8802e+02 ;    C18 - C17    - H7S   
 11308  11311  11314      1    1.1205e+02    3.9497e+02 ;    C18 - C17    - C16   
 11309  11308  11310      1    1.0835e+02    3.2995e+02 ;    H8R - C18    - H8S   
 11309  11308  11311      1    1.1005e+02    3.8802e+02 ;    H8R - C18    - C17   
 11310  11308  11311      1    1.1005e+02    3.8802e+02 ;    H8S - C18    - C17   
 11311  11314  11315      1    1.1005e+02    3.8802e+02 ;    C17 - C16    - H6R   
 11311  11314  11316      1    1.1005e+02    3.8802e+02 ;    C17 - C16    - H6S   
 11311  11314  11317      1    1.1205e+02    3.9497e+02 ;    C17 - C16    - C15   
 11312  11311  11313      1    1.0835e+02    3.2995e+02 ;    H7R - C17    - H7S   
 11312  11311  11314      1    1.1005e+02    3.8802e+02 ;    H7R - C17    - C16   
 11313  11311  11314      1    1.1005e+02    3.8802e+02 ;    H7S - C17    - C16   
 11314  11317  11318      1    1.1005e+02    3.8802e+02 ;    C16 - C15    - H5R   
 11314  11317  11319      1    1.1005e+02    3.8802e+02 ;    C16 - C15    - H5S   
 11314  11317  11320      1    1.1205e+02    3.9497e+02 ;    C16 - C15    - C14   
 11315  11314  11316      1    1.0835e+02    3.2995e+02 ;    H6R - C16    - H6S   
 11315  11314  11317      1    1.1005e+02    3.8802e+02 ;    H6R - C16    - C15   
 11316  11314  11317      1    1.1005e+02    3.8802e+02 ;    H6S - C16    - C15   
 11317  11320  11321      1    1.1005e+02    3.8802e+02 ;    C15 - C14    - H4R   
 11317  11320  11322      1    1.1005e+02    3.8802e+02 ;    C15 - C14    - H4S   
 11317  11320  11323      1    1.1205e+02    3.9497e+02 ;    C15 - C14    - C13   
 11318  11317  11319      1    1.0835e+02    3.2995e+02 ;    H5R - C15    - H5S   
 11318  11317  11320      1    1.1005e+02    3.8802e+02 ;    H5R - C15    - C14   
 11319  11317  11320      1    1.1005e+02    3.8802e+02 ;    H5S - C15    - C14   
 11320  11323  11324      1    1.1005e+02    3.8802e+02 ;    C14 - C13    - H3R   
 11320  11323  11325      1    1.1005e+02    3.8802e+02 ;    C14 - C13    - H3S   
 11320  11323  11326      1    1.1205e+02    3.9497e+02 ;    C14 - C13    - C12   
 11321  11320  11322      1    1.0835e+02    3.2995e+02 ;    H4R - C14    - H4S   
 11321  11320  11323      1    1.1005e+02    3.8802e+02 ;    H4R - C14    - C13   
 11322  11320  11323      1    1.1005e+02    3.8802e+02 ;    H4S - C14    - C13   
 11323  11326  11327      1    1.1005e+02    3.8802e+02 ;    C13 - C12    - H2R   
 11323  11326  11328      1    1.1005e+02    3.8802e+02 ;    C13 - C12    - H2S   
 11324  11323  11325      1    1.0835e+02    3.2995e+02 ;    H3R - C13    - H3S   
 11324  11323  11326      1    1.1005e+02    3.8802e+02 ;    H3R - C13    - C12   
 11325  11323  11326      1    1.1005e+02    3.8802e+02 ;    H3S - C13    - C12   
 11327  11326  11328      1    1.0835e+02    3.2995e+02 ;    H2R - C12    - H2S   
 11329  11330  11331      1    1.0835e+02    3.2995e+02 ;   H14T - C114   - H14R  
 11329  11330  11332      1    1.0835e+02    3.2995e+02 ;   H14T - C114   - H14S  
 11329  11330  11333      1    1.1005e+02    3.8802e+02 ;   H14T - C114   - C113  
 11330  11333  11334      1    1.1005e+02    3.8802e+02 ;   C114 - C113   - H13R  
 11330  11333  11335      1    1.1005e+02    3.8802e+02 ;   C114 - C113   - H13S  
 11330  11333  11336      1    1.1205e+02    3.9497e+02 ;   C114 - C113   - C112  
 11331  11330  11332      1    1.0835e+02    3.2995e+02 ;   H14R - C114   - H14S  
 11331  11330  11333      1    1.1005e+02    3.8802e+02 ;   H14R - C114   - C113  
 11332  11330  11333      1    1.1005e+02    3.8802e+02 ;   H14S - C114   - C113  
 11333  11336  11337      1    1.1005e+02    3.8802e+02 ;   C113 - C112   - H12R  
 11333  11336  11338      1    1.1005e+02    3.8802e+02 ;   C113 - C112   - H12S  
 11333  11336  11339      1    1.1205e+02    3.9497e+02 ;   C113 - C112   - C111  
 11334  11333  11335      1    1.0835e+02    3.2995e+02 ;   H13R - C113   - H13S  
 11334  11333  11336      1    1.1005e+02    3.8802e+02 ;   H13R - C113   - C112  
 11335  11333  11336      1    1.1005e+02    3.8802e+02 ;   H13S - C113   - C112  
 11336  11339  11340      1    1.1005e+02    3.8802e+02 ;   C112 - C111   - H11R  
 11336  11339  11341      1    1.1005e+02    3.8802e+02 ;   C112 - C111   - H11S  
 11336  11339  11342      1    1.1205e+02    3.9497e+02 ;   C112 - C111   - C110  
 11337  11336  11338      1    1.0835e+02    3.2995e+02 ;   H12R - C112   - H12S  
 11337  11336  11339      1    1.1005e+02    3.8802e+02 ;   H12R - C112   - C111  
 11338  11336  11339      1    1.1005e+02    3.8802e+02 ;   H12S - C112   - C111  
 11339  11342  11343      1    1.1005e+02    3.8802e+02 ;   C111 - C110   - H10R  
 11339  11342  11344      1    1.1005e+02    3.8802e+02 ;   C111 - C110   - H10S  
 11339  11342  11345      1    1.1205e+02    3.9497e+02 ;   C111 - C110   - C19   
 11340  11339  11341      1    1.0835e+02    3.2995e+02 ;   H11R - C111   - H11S  
 11340  11339  11342      1    1.1005e+02    3.8802e+02 ;   H11R - C111   - C110  
 11341  11339  11342      1    1.1005e+02    3.8802e+02 ;   H11S - C111   - C110  
 11342  11345  11346      1    1.1005e+02    3.8802e+02 ;   C110 - C19    - H9R   
 11342  11345  11347      1    1.1005e+02    3.8802e+02 ;   C110 - C19    - H9S   
 11342  11345  11348      1    1.1205e+02    3.9497e+02 ;   C110 - C19    - C18   
 11343  11342  11344      1    1.0835e+02    3.2995e+02 ;   H10R - C110   - H10S  
 11343  11342  11345      1    1.1005e+02    3.8802e+02 ;   H10R - C110   - C19   
 11344  11342  11345      1    1.1005e+02    3.8802e+02 ;   H10S - C110   - C19   
 11345  11348  11349      1    1.1005e+02    3.8802e+02 ;    C19 - C18    - H8R   
 11345  11348  11350      1    1.1005e+02    3.8802e+02 ;    C19 - C18    - H8S   
 11345  11348  11351      1    1.1205e+02    3.9497e+02 ;    C19 - C18    - C17   
 11346  11345  11347      1    1.0835e+02    3.2995e+02 ;    H9R - C19    - H9S   
 11346  11345  11348      1    1.1005e+02    3.8802e+02 ;    H9R - C19    - C18   
 11347  11345  11348      1    1.1005e+02    3.8802e+02 ;    H9S - C19    - C18   
 11348  11351  11352      1    1.1005e+02    3.8802e+02 ;    C18 - C17    - H7R   
 11348  11351  11353      1    1.1005e+02    3.8802e+02 ;    C18 - C17    - H7S   
 11348  11351  11354      1    1.1205e+02    3.9497e+02 ;    C18 - C17    - C16   
 11349  11348  11350      1    1.0835e+02    3.2995e+02 ;    H8R - C18    - H8S   
 11349  11348  11351      1    1.1005e+02    3.8802e+02 ;    H8R - C18    - C17   
 11350  11348  11351      1    1.1005e+02    3.8802e+02 ;    H8S - C18    - C17   
 11351  11354  11355      1    1.1005e+02    3.8802e+02 ;    C17 - C16    - H6R   
 11351  11354  11356      1    1.1005e+02    3.8802e+02 ;    C17 - C16    - H6S   
 11351  11354  11357      1    1.1205e+02    3.9497e+02 ;    C17 - C16    - C15   
 11352  11351  11353      1    1.0835e+02    3.2995e+02 ;    H7R - C17    - H7S   
 11352  11351  11354      1    1.1005e+02    3.8802e+02 ;    H7R - C17    - C16   
 11353  11351  11354      1    1.1005e+02    3.8802e+02 ;    H7S - C17    - C16   
 11354  11357  11358      1    1.1005e+02    3.8802e+02 ;    C16 - C15    - H5R   
 11354  11357  11359      1    1.1005e+02    3.8802e+02 ;    C16 - C15    - H5S   
 11354  11357  11360      1    1.1205e+02    3.9497e+02 ;    C16 - C15    - C14   
 11355  11354  11356      1    1.0835e+02    3.2995e+02 ;    H6R - C16    - H6S   
 11355  11354  11357      1    1.1005e+02    3.8802e+02 ;    H6R - C16    - C15   
 11356  11354  11357      1    1.1005e+02    3.8802e+02 ;    H6S - C16    - C15   
 11357  11360  11361      1    1.1005e+02    3.8802e+02 ;    C15 - C14    - H4R   
 11357  11360  11362      1    1.1005e+02    3.8802e+02 ;    C15 - C14    - H4S   
 11357  11360  11363      1    1.1205e+02    3.9497e+02 ;    C15 - C14    - C13   
 11358  11357  11359      1    1.0835e+02    3.2995e+02 ;    H5R - C15    - H5S   
 11358  11357  11360      1    1.1005e+02    3.8802e+02 ;    H5R - C15    - C14   
 11359  11357  11360      1    1.1005e+02    3.8802e+02 ;    H5S - C15    - C14   
 11360  11363  11364      1    1.1005e+02    3.8802e+02 ;    C14 - C13    - H3R   
 11360  11363  11365      1    1.1005e+02    3.8802e+02 ;    C14 - C13    - H3S   
 11360  11363  11366      1    1.1205e+02    3.9497e+02 ;    C14 - C13    - C12   
 11361  11360  11362      1    1.0835e+02    3.2995e+02 ;    H4R - C14    - H4S   
 11361  11360  11363      1    1.1005e+02    3.8802e+02 ;    H4R - C14    - C13   
 11362  11360  11363      1    1.1005e+02    3.8802e+02 ;    H4S - C14    - C13   
 11363  11366  11367      1    1.1005e+02    3.8802e+02 ;    C13 - C12    - H2R   
 11363  11366  11368      1    1.1005e+02    3.8802e+02 ;    C13 - C12    - H2S   
 11363  11366  11369      1    1.1053e+02    5.3379e+02 ;    C13 - C12    - C11   
 11364  11363  11365      1    1.0835e+02    3.2995e+02 ;    H3R - C13    - H3S   
 11364  11363  11366      1    1.1005e+02    3.8802e+02 ;    H3R - C13    - C12   
 11365  11363  11366      1    1.1005e+02    3.8802e+02 ;    H3S - C13    - C12   
 11366  11369  11370      1    1.2311e+02    5.6928e+02 ;    C12 - C11    - O12   
 11366  11369  11371      1    1.1196e+02    5.7957e+02 ;    C12 - C11    - O11   
 11367  11366  11368      1    1.0835e+02    3.2995e+02 ;    H2R - C12    - H2S   
 11367  11366  11369      1    1.0968e+02    3.9497e+02 ;    H2R - C12    - C11   
 11368  11366  11369      1    1.0968e+02    3.9497e+02 ;    H2S - C12    - C11   
 11369  11371  11372      1    1.1514e+02    5.3246e+02 ;    C11 - O11    - C1    
 11370  11369  11371      1    1.2333e+02    6.3538e+02 ;    O12 - C11    - O11   
 11371  11372  11373      1    1.0882e+02    4.2543e+02 ;    O11 - C1     - HR    
 11371  11372  11374      1    1.0882e+02    4.2543e+02 ;    O11 - C1     - HS    
 11371  11372  11375      1    1.0842e+02    5.6718e+02 ;    O11 - C1     - C2    
 11372  11375  11376      1    1.1007e+02    3.8794e+02 ;     C1 - C2     - HX    
 11372  11375  11377      1    1.1063e+02    5.2894e+02 ;     C1 - C2     - C3    
 11372  11375  11404      1    1.0842e+02    5.6718e+02 ;     C1 - C2     - O21   
 11373  11372  11374      1    1.0955e+02    3.2786e+02 ;     HR - C1     - HS    
 11373  11372  11375      1    1.1007e+02    3.8794e+02 ;     HR - C1     - C2    
 11374  11372  11375      1    1.1007e+02    3.8794e+02 ;     HS - C1     - C2    
 11375  11377  11378      1    1.1007e+02    3.8794e+02 ;     C2 - C3     - HA    
 11375  11377  11379      1    1.1007e+02    3.8794e+02 ;     C2 - C3     - HB    
 11375  11377  11380      1    1.0842e+02    5.6718e+02 ;     C2 - C3     - O31   
 11375  11404  11405      1    1.1514e+02    5.3246e+02 ;     C2 - O21    - C21   
 11376  11375  11377      1    1.1007e+02    3.8794e+02 ;     HX - C2     - C3    
 11376  11375  11404      1    1.0882e+02    4.2543e+02 ;     HX - C2     - O21   
 11377  11375  11404      1    1.0842e+02    5.6718e+02 ;     C3 - C2     - O21   
 11377  11380  11381      1    1.2050e+02    8.3680e+02 ;     C3 - O31    - P31   
 11378  11377  11379      1    1.0955e+02    3.2786e+02 ;     HA - C3     - HB    
 11378  11377  11380      1    1.0882e+02    4.2543e+02 ;     HA - C3     - O31   
 11379  11377  11380      1    1.0882e+02    4.2543e+02 ;     HB - C3     - O31   
 11380  11381  11382      1    1.0260e+02    7.5312e+02 ;    O31 - P31    - O32   
 11380  11381  11402      1    1.0823e+02    8.3680e+02 ;    O31 - P31    - O33   
 11380  11381  11403      1    1.0823e+02    8.3680e+02 ;    O31 - P31    - O34   
 11381  11382  11383      1    1.2050e+02    8.3680e+02 ;    P31 - O32    - C31   
 11382  11381  11402      1    1.0823e+02    8.3680e+02 ;    O32 - P31    - O33   
 11382  11381  11403      1    1.0823e+02    8.3680e+02 ;    O32 - P31    - O34   
 11382  11383  11384      1    1.0882e+02    4.2543e+02 ;    O32 - C31    - H1A   
 11382  11383  11385      1    1.0882e+02    4.2543e+02 ;    O32 - C31    - H1B   
 11382  11383  11386      1    1.0842e+02    5.6718e+02 ;    O32 - C31    - C32   
 11383  11386  11387      1    1.1174e+02    3.8510e+02 ;    C31 - C32    - H2A   
 11383  11386  11388      1    1.1174e+02    3.8510e+02 ;    C31 - C32    - H2B   
 11383  11386  11389      1    1.1432e+02    5.3932e+02 ;    C31 - C32    - N31   
 11384  11383  11385      1    1.0955e+02    3.2786e+02 ;    H1A - C31    - H1B   
 11384  11383  11386      1    1.1007e+02    3.8794e+02 ;    H1A - C31    - C32   
 11385  11383  11386      1    1.1007e+02    3.8794e+02 ;    H1B - C31    - C32   
 11386  11389  11390      1    1.1064e+02    5.2585e+02 ;    C32 - N31    - C33   
 11386  11389  11394      1    1.1064e+02    5.2585e+02 ;    C32 - N31    - C34   
 11386  11389  11398      1    1.1064e+02    5.2585e+02 ;    C32 - N31    - C35   
 11387  11386  11388      1    1.1074e+02    3.2669e+02 ;    H2A - C32    - H2B   
 11387  11386  11389      1    1.0791e+02    4.1020e+02 ;    H2A - C32    - N31   
 11388  11386  11389      1    1.0791e+02    4.1020e+02 ;    H2B - C32    - N31   
 11389  11390  11391      1    1.0791e+02    4.1020e+02 ;    N31 - C33    - H3A   
 11389  11390  11392      1    1.0791e+02    4.1020e+02 ;    N31 - C33    - H3B   
 11389  11390  11393      1    1.0791e+02    4.1020e+02 ;    N31 - C33    - H3C   
 11389  11394  11395      1    1.0791e+02    4.1020e+02 ;    N31 - C34    - H4A   
 11389  11394  11396      1    1.0791e+02    4.1020e+02 ;    N31 - C34    - H4B   
 11389  11394  11397      1    1.0791e+02    4.1020e+02 ;    N31 - C34    - H4C   
 11389  11398  11399      1    1.0791e+02    4.1020e+02 ;    N31 - C35    - H5A   
 11389  11398  11400      1    1.0791e+02    4.1020e+02 ;    N31 - C35    - H5B   
 11389  11398  11401      1    1.0791e+02    4.1020e+02 ;    N31 - C35    - H5C   
 11390  11389  11394      1    1.1064e+02    5.2585e+02 ;    C33 - N31    - C34   
 11390  11389  11398      1    1.1064e+02    5.2585e+02 ;    C33 - N31    - C35   
 11391  11390  11392      1    1.1074e+02    3.2669e+02 ;    H3A - C33    - H3B   
 11391  11390  11393      1    1.1074e+02    3.2669e+02 ;    H3A - C33    - H3C   
 11392  11390  11393      1    1.1074e+02    3.2669e+02 ;    H3B - C33    - H3C   
 11394  11389  11398      1    1.1064e+02    5.2585e+02 ;    C34 - N31    - C35   
 11395  11394  11396      1    1.1074e+02    3.2669e+02 ;    H4A - C34    - H4B   
 11395  11394  11397      1    1.1074e+02    3.2669e+02 ;    H4A - C34    - H4C   
 11396  11394  11397      1    1.1074e+02    3.2669e+02 ;    H4B - C34    - H4C   
 11399  11398  11400      1    1.1074e+02    3.2669e+02 ;    H5A - C35    - H5B   
 11399  11398  11401      1    1.1074e+02    3.2669e+02 ;    H5A - C35    - H5C   
 11400  11398  11401      1    1.1074e+02    3.2669e+02 ;    H5B - C35    - H5C   
 11402  11381  11403      1    1.1990e+02    1.1715e+03 ;    O33 - P31    - O34   
 11404  11405  11406      1    1.2333e+02    6.3538e+02 ;    O21 - C21    - O22   
 11404  11405  11444      1    1.1196e+02    5.7957e+02 ;    O21 - C21    - C12   
 11405  11444  11441      1    1.1053e+02    5.3379e+02 ;    C21 - C12    - C13   
 11405  11444  11445      1    1.0968e+02    3.9497e+02 ;    C21 - C12    - H2R   
 11405  11444  11446      1    1.0968e+02    3.9497e+02 ;    C21 - C12    - H2S   
 11406  11405  11444      1    1.2311e+02    5.6928e+02 ;    O22 - C21    - C12   
 11407  11408  11409      1    1.0835e+02    3.2995e+02 ;   H14T - C114   - H14R  
 11407  11408  11410      1    1.0835e+02    3.2995e+02 ;   H14T - C114   - H14S  
 11407  11408  11411      1    1.1005e+02    3.8802e+02 ;   H14T - C114   - C113  
 11408  11411  11412      1    1.1005e+02    3.8802e+02 ;   C114 - C113   - H13R  
 11408  11411  11413      1    1.1005e+02    3.8802e+02 ;   C114 - C113   - H13S  
 11408  11411  11414      1    1.1205e+02    3.9497e+02 ;   C114 - C113   - C112  
 11409  11408  11410      1    1.0835e+02    3.2995e+02 ;   H14R - C114   - H14S  
 11409  11408  11411      1    1.1005e+02    3.8802e+02 ;   H14R - C114   - C113  
 11410  11408  11411      1    1.1005e+02    3.8802e+02 ;   H14S - C114   - C113  
 11411  11414  11415      1    1.1005e+02    3.8802e+02 ;   C113 - C112   - H12R  
 11411  11414  11416      1    1.1005e+02    3.8802e+02 ;   C113 - C112   - H12S  
 11411  11414  11417      1    1.1205e+02    3.9497e+02 ;   C113 - C112   - C111  
 11412  11411  11413      1    1.0835e+02    3.2995e+02 ;   H13R - C113   - H13S  
 11412  11411  11414      1    1.1005e+02    3.8802e+02 ;   H13R - C113   - C112  
 11413  11411  11414      1    1.1005e+02    3.8802e+02 ;   H13S - C113   - C112  
 11414  11417  11418      1    1.1005e+02    3.8802e+02 ;   C112 - C111   - H11R  
 11414  11417  11419      1    1.1005e+02    3.8802e+02 ;   C112 - C111   - H11S  
 11414  11417  11420      1    1.1205e+02    3.9497e+02 ;   C112 - C111   - C110  
 11415  11414  11416      1    1.0835e+02    3.2995e+02 ;   H12R - C112   - H12S  
 11415  11414  11417      1    1.1005e+02    3.8802e+02 ;   H12R - C112   - C111  
 11416  11414  11417      1    1.1005e+02    3.8802e+02 ;   H12S - C112   - C111  
 11417  11420  11421      1    1.1005e+02    3.8802e+02 ;   C111 - C110   - H10R  
 11417  11420  11422      1    1.1005e+02    3.8802e+02 ;   C111 - C110   - H10S  
 11417  11420  11423      1    1.1205e+02    3.9497e+02 ;   C111 - C110   - C19   
 11418  11417  11419      1    1.0835e+02    3.2995e+02 ;   H11R - C111   - H11S  
 11418  11417  11420      1    1.1005e+02    3.8802e+02 ;   H11R - C111   - C110  
 11419  11417  11420      1    1.1005e+02    3.8802e+02 ;   H11S - C111   - C110  
 11420  11423  11424      1    1.1005e+02    3.8802e+02 ;   C110 - C19    - H9R   
 11420  11423  11425      1    1.1005e+02    3.8802e+02 ;   C110 - C19    - H9S   
 11420  11423  11426      1    1.1205e+02    3.9497e+02 ;   C110 - C19    - C18   
 11421  11420  11422      1    1.0835e+02    3.2995e+02 ;   H10R - C110   - H10S  
 11421  11420  11423      1    1.1005e+02    3.8802e+02 ;   H10R - C110   - C19   
 11422  11420  11423      1    1.1005e+02    3.8802e+02 ;   H10S - C110   - C19   
 11423  11426  11427      1    1.1005e+02    3.8802e+02 ;    C19 - C18    - H8R   
 11423  11426  11428      1    1.1005e+02    3.8802e+02 ;    C19 - C18    - H8S   
 11423  11426  11429      1    1.1205e+02    3.9497e+02 ;    C19 - C18    - C17   
 11424  11423  11425      1    1.0835e+02    3.2995e+02 ;    H9R - C19    - H9S   
 11424  11423  11426      1    1.1005e+02    3.8802e+02 ;    H9R - C19    - C18   
 11425  11423  11426      1    1.1005e+02    3.8802e+02 ;    H9S - C19    - C18   
 11426  11429  11430      1    1.1005e+02    3.8802e+02 ;    C18 - C17    - H7R   
 11426  11429  11431      1    1.1005e+02    3.8802e+02 ;    C18 - C17    - H7S   
 11426  11429  11432      1    1.1205e+02    3.9497e+02 ;    C18 - C17    - C16   
 11427  11426  11428      1    1.0835e+02    3.2995e+02 ;    H8R - C18    - H8S   
 11427  11426  11429      1    1.1005e+02    3.8802e+02 ;    H8R - C18    - C17   
 11428  11426  11429      1    1.1005e+02    3.8802e+02 ;    H8S - C18    - C17   
 11429  11432  11433      1    1.1005e+02    3.8802e+02 ;    C17 - C16    - H6R   
 11429  11432  11434      1    1.1005e+02    3.8802e+02 ;    C17 - C16    - H6S   
 11429  11432  11435      1    1.1205e+02    3.9497e+02 ;    C17 - C16    - C15   
 11430  11429  11431      1    1.0835e+02    3.2995e+02 ;    H7R - C17    - H7S   
 11430  11429  11432      1    1.1005e+02    3.8802e+02 ;    H7R - C17    - C16   
 11431  11429  11432      1    1.1005e+02    3.8802e+02 ;    H7S - C17    - C16   
 11432  11435  11436      1    1.1005e+02    3.8802e+02 ;    C16 - C15    - H5R   
 11432  11435  11437      1    1.1005e+02    3.8802e+02 ;    C16 - C15    - H5S   
 11432  11435  11438      1    1.1205e+02    3.9497e+02 ;    C16 - C15    - C14   
 11433  11432  11434      1    1.0835e+02    3.2995e+02 ;    H6R - C16    - H6S   
 11433  11432  11435      1    1.1005e+02    3.8802e+02 ;    H6R - C16    - C15   
 11434  11432  11435      1    1.1005e+02    3.8802e+02 ;    H6S - C16    - C15   
 11435  11438  11439      1    1.1005e+02    3.8802e+02 ;    C15 - C14    - H4R   
 11435  11438  11440      1    1.1005e+02    3.8802e+02 ;    C15 - C14    - H4S   
 11435  11438  11441      1    1.1205e+02    3.9497e+02 ;    C15 - C14    - C13   
 11436  11435  11437      1    1.0835e+02    3.2995e+02 ;    H5R - C15    - H5S   
 11436  11435  11438      1    1.1005e+02    3.8802e+02 ;    H5R - C15    - C14   
 11437  11435  11438      1    1.1005e+02    3.8802e+02 ;    H5S - C15    - C14   
 11438  11441  11442      1    1.1005e+02    3.8802e+02 ;    C14 - C13    - H3R   
 11438  11441  11443      1    1.1005e+02    3.8802e+02 ;    C14 - C13    - H3S   
 11438  11441  11444      1    1.1205e+02    3.9497e+02 ;    C14 - C13    - C12   
 11439  11438  11440      1    1.0835e+02    3.2995e+02 ;    H4R - C14    - H4S   
 11439  11438  11441      1    1.1005e+02    3.8802e+02 ;    H4R - C14    - C13   
 11440  11438  11441      1    1.1005e+02    3.8802e+02 ;    H4S - C14    - C13   
 11441  11444  11445      1    1.1005e+02    3.8802e+02 ;    C13 - C12    - H2R   
 11441  11444  11446      1    1.1005e+02    3.8802e+02 ;    C13 - C12    - H2S   
 11442  11441  11443      1    1.0835e+02    3.2995e+02 ;    H3R - C13    - H3S   
 11442  11441  11444      1    1.1005e+02    3.8802e+02 ;    H3R - C13    - C12   
 11443  11441  11444      1    1.1005e+02    3.8802e+02 ;    H3S - C13    - C12   
 11445  11444  11446      1    1.0835e+02    3.2995e+02 ;    H2R - C12    - H2S   
 11447  11448  11449      1    1.0835e+02    3.2995e+02 ;   H14T - C114   - H14R  
 11447  11448  11450      1    1.0835e+02    3.2995e+02 ;   H14T - C114   - H14S  
 11447  11448  11451      1    1.1005e+02    3.8802e+02 ;   H14T - C114   - C113  
 11448  11451  11452      1    1.1005e+02    3.8802e+02 ;   C114 - C113   - H13R  
 11448  11451  11453      1    1.1005e+02    3.8802e+02 ;   C114 - C113   - H13S  
 11448  11451  11454      1    1.1205e+02    3.9497e+02 ;   C114 - C113   - C112  
 11449  11448  11450      1    1.0835e+02    3.2995e+02 ;   H14R - C114   - H14S  
 11449  11448  11451      1    1.1005e+02    3.8802e+02 ;   H14R - C114   - C113  
 11450  11448  11451      1    1.1005e+02    3.8802e+02 ;   H14S - C114   - C113  
 11451  11454  11455      1    1.1005e+02    3.8802e+02 ;   C113 - C112   - H12R  
 11451  11454  11456      1    1.1005e+02    3.8802e+02 ;   C113 - C112   - H12S  
 11451  11454  11457      1    1.1205e+02    3.9497e+02 ;   C113 - C112   - C111  
 11452  11451  11453      1    1.0835e+02    3.2995e+02 ;   H13R - C113   - H13S  
 11452  11451  11454      1    1.1005e+02    3.8802e+02 ;   H13R - C113   - C112  
 11453  11451  11454      1    1.1005e+02    3.8802e+02 ;   H13S - C113   - C112  
 11454  11457  11458      1    1.1005e+02    3.8802e+02 ;   C112 - C111   - H11R  
 11454  11457  11459      1    1.1005e+02    3.8802e+02 ;   C112 - C111   - H11S  
 11454  11457  11460      1    1.1205e+02    3.9497e+02 ;   C112 - C111   - C110  
 11455  11454  11456      1    1.0835e+02    3.2995e+02 ;   H12R - C112   - H12S  
 11455  11454  11457      1    1.1005e+02    3.8802e+02 ;   H12R - C112   - C111  
 11456  11454  11457      1    1.1005e+02    3.8802e+02 ;   H12S - C112   - C111  
 11457  11460  11461      1    1.1005e+02    3.8802e+02 ;   C111 - C110   - H10R  
 11457  11460  11462      1    1.1005e+02    3.8802e+02 ;   C111 - C110   - H10S  
 11457  11460  11463      1    1.1205e+02    3.9497e+02 ;   C111 - C110   - C19   
 11458  11457  11459      1    1.0835e+02    3.2995e+02 ;   H11R - C111   - H11S  
 11458  11457  11460      1    1.1005e+02    3.8802e+02 ;   H11R - C111   - C110  
 11459  11457  11460      1    1.1005e+02    3.8802e+02 ;   H11S - C111   - C110  
 11460  11463  11464      1    1.1005e+02    3.8802e+02 ;   C110 - C19    - H9R   
 11460  11463  11465      1    1.1005e+02    3.8802e+02 ;   C110 - C19    - H9S   
 11460  11463  11466      1    1.1205e+02    3.9497e+02 ;   C110 - C19    - C18   
 11461  11460  11462      1    1.0835e+02    3.2995e+02 ;   H10R - C110   - H10S  
 11461  11460  11463      1    1.1005e+02    3.8802e+02 ;   H10R - C110   - C19   
 11462  11460  11463      1    1.1005e+02    3.8802e+02 ;   H10S - C110   - C19   
 11463  11466  11467      1    1.1005e+02    3.8802e+02 ;    C19 - C18    - H8R   
 11463  11466  11468      1    1.1005e+02    3.8802e+02 ;    C19 - C18    - H8S   
 11463  11466  11469      1    1.1205e+02    3.9497e+02 ;    C19 - C18    - C17   
 11464  11463  11465      1    1.0835e+02    3.2995e+02 ;    H9R - C19    - H9S   
 11464  11463  11466      1    1.1005e+02    3.8802e+02 ;    H9R - C19    - C18   
 11465  11463  11466      1    1.1005e+02    3.8802e+02 ;    H9S - C19    - C18   
 11466  11469  11470      1    1.1005e+02    3.8802e+02 ;    C18 - C17    - H7R   
 11466  11469  11471      1    1.1005e+02    3.8802e+02 ;    C18 - C17    - H7S   
 11466  11469  11472      1    1.1205e+02    3.9497e+02 ;    C18 - C17    - C16   
 11467  11466  11468      1    1.0835e+02    3.2995e+02 ;    H8R - C18    - H8S   
 11467  11466  11469      1    1.1005e+02    3.8802e+02 ;    H8R - C18    - C17   
 11468  11466  11469      1    1.1005e+02    3.8802e+02 ;    H8S - C18    - C17   
 11469  11472  11473      1    1.1005e+02    3.8802e+02 ;    C17 - C16    - H6R   
 11469  11472  11474      1    1.1005e+02    3.8802e+02 ;    C17 - C16    - H6S   
 11469  11472  11475      1    1.1205e+02    3.9497e+02 ;    C17 - C16    - C15   
 11470  11469  11471      1    1.0835e+02    3.2995e+02 ;    H7R - C17    - H7S   
 11470  11469  11472      1    1.1005e+02    3.8802e+02 ;    H7R - C17    - C16   
 11471  11469  11472      1    1.1005e+02    3.8802e+02 ;    H7S - C17    - C16   
 11472  11475  11476      1    1.1005e+02    3.8802e+02 ;    C16 - C15    - H5R   
 11472  11475  11477      1    1.1005e+02    3.8802e+02 ;    C16 - C15    - H5S   
 11472  11475  11478      1    1.1205e+02    3.9497e+02 ;    C16 - C15    - C14   
 11473  11472  11474      1    1.0835e+02    3.2995e+02 ;    H6R - C16    - H6S   
 11473  11472  11475      1    1.1005e+02    3.8802e+02 ;    H6R - C16    - C15   
 11474  11472  11475      1    1.1005e+02    3.8802e+02 ;    H6S - C16    - C15   
 11475  11478  11479      1    1.1005e+02    3.8802e+02 ;    C15 - C14    - H4R   
 11475  11478  11480      1    1.1005e+02    3.8802e+02 ;    C15 - C14    - H4S   
 11475  11478  11481      1    1.1205e+02    3.9497e+02 ;    C15 - C14    - C13   
 11476  11475  11477      1    1.0835e+02    3.2995e+02 ;    H5R - C15    - H5S   
 11476  11475  11478      1    1.1005e+02    3.8802e+02 ;    H5R - C15    - C14   
 11477  11475  11478      1    1.1005e+02    3.8802e+02 ;    H5S - C15    - C14   
 11478  11481  11482      1    1.1005e+02    3.8802e+02 ;    C14 - C13    - H3R   
 11478  11481  11483      1    1.1005e+02    3.8802e+02 ;    C14 - C13    - H3S   
 11478  11481  11484      1    1.1205e+02    3.9497e+02 ;    C14 - C13    - C12   
 11479  11478  11480      1    1.0835e+02    3.2995e+02 ;    H4R - C14    - H4S   
 11479  11478  11481      1    1.1005e+02    3.8802e+02 ;    H4R - C14    - C13   
 11480  11478  11481      1    1.1005e+02    3.8802e+02 ;    H4S - C14    - C13   
 11481  11484  11485      1    1.1005e+02    3.8802e+02 ;    C13 - C12    - H2R   
 11481  11484  11486      1    1.1005e+02    3.8802e+02 ;    C13 - C12    - H2S   
 11481  11484  11487      1    1.1053e+02    5.3379e+02 ;    C13 - C12    - C11   
 11482  11481  11483      1    1.0835e+02    3.2995e+02 ;    H3R - C13    - H3S   
 11482  11481  11484      1    1.1005e+02    3.8802e+02 ;    H3R - C13    - C12   
 11483  11481  11484      1    1.1005e+02    3.8802e+02 ;    H3S - C13    - C12   
 11484  11487  11488      1    1.2311e+02    5.6928e+02 ;    C12 - C11    - O12   
 11484  11487  11489      1    1.1196e+02    5.7957e+02 ;    C12 - C11    - O11   
 11485  11484  11486      1    1.0835e+02    3.2995e+02 ;    H2R - C12    - H2S   
 11485  11484  11487      1    1.0968e+02    3.9497e+02 ;    H2R - C12    - C11   
 11486  11484  11487      1    1.0968e+02    3.9497e+02 ;    H2S - C12    - C11   
 11487  11489  11490      1    1.1514e+02    5.3246e+02 ;    C11 - O11    - C1    
 11488  11487  11489      1    1.2333e+02    6.3538e+02 ;    O12 - C11    - O11   
 11489  11490  11491      1    1.0882e+02    4.2543e+02 ;    O11 - C1     - HR    
 11489  11490  11492      1    1.0882e+02    4.2543e+02 ;    O11 - C1     - HS    
 11489  11490  11493      1    1.0842e+02    5.6718e+02 ;    O11 - C1     - C2    
 11490  11493  11494      1    1.1007e+02    3.8794e+02 ;     C1 - C2     - HX    
 11490  11493  11495      1    1.1063e+02    5.2894e+02 ;     C1 - C2     - C3    
 11490  11493  11522      1    1.0842e+02    5.6718e+02 ;     C1 - C2     - O21   
 11491  11490  11492      1    1.0955e+02    3.2786e+02 ;     HR - C1     - HS    
 11491  11490  11493      1    1.1007e+02    3.8794e+02 ;     HR - C1     - C2    
 11492  11490  11493      1    1.1007e+02    3.8794e+02 ;     HS - C1     - C2    
 11493  11495  11496      1    1.1007e+02    3.8794e+02 ;     C2 - C3     - HA    
 11493  11495  11497      1    1.1007e+02    3.8794e+02 ;     C2 - C3     - HB    
 11493  11495  11498      1    1.0842e+02    5.6718e+02 ;     C2 - C3     - O31   
 11493  11522  11523      1    1.1514e+02    5.3246e+02 ;     C2 - O21    - C21   
 11494  11493  11495      1    1.1007e+02    3.8794e+02 ;     HX - C2     - C3    
 11494  11493  11522      1    1.0882e+02    4.2543e+02 ;     HX - C2     - O21   
 11495  11493  11522      1    1.0842e+02    5.6718e+02 ;     C3 - C2     - O21   
 11495  11498  11499      1    1.2050e+02    8.3680e+02 ;     C3 - O31    - P31   
 11496  11495  11497      1    1.0955e+02    3.2786e+02 ;     HA - C3     - HB    
 11496  11495  11498      1    1.0882e+02    4.2543e+02 ;     HA - C3     - O31   
 11497  11495  11498      1    1.0882e+02    4.2543e+02 ;     HB - C3     - O31   
 11498  11499  11500      1    1.0260e+02    7.5312e+02 ;    O31 - P31    - O32   
 11498  11499  11520      1    1.0823e+02    8.3680e+02 ;    O31 - P31    - O33   
 11498  11499  11521      1    1.0823e+02    8.3680e+02 ;    O31 - P31    - O34   
 11499  11500  11501      1    1.2050e+02    8.3680e+02 ;    P31 - O32    - C31   
 11500  11499  11520      1    1.0823e+02    8.3680e+02 ;    O32 - P31    - O33   
 11500  11499  11521      1    1.0823e+02    8.3680e+02 ;    O32 - P31    - O34   
 11500  11501  11502      1    1.0882e+02    4.2543e+02 ;    O32 - C31    - H1A   
 11500  11501  11503      1    1.0882e+02    4.2543e+02 ;    O32 - C31    - H1B   
 11500  11501  11504      1    1.0842e+02    5.6718e+02 ;    O32 - C31    - C32   
 11501  11504  11505      1    1.1174e+02    3.8510e+02 ;    C31 - C32    - H2A   
 11501  11504  11506      1    1.1174e+02    3.8510e+02 ;    C31 - C32    - H2B   
 11501  11504  11507      1    1.1432e+02    5.3932e+02 ;    C31 - C32    - N31   
 11502  11501  11503      1    1.0955e+02    3.2786e+02 ;    H1A - C31    - H1B   
 11502  11501  11504      1    1.1007e+02    3.8794e+02 ;    H1A - C31    - C32   
 11503  11501  11504      1    1.1007e+02    3.8794e+02 ;    H1B - C31    - C32   
 11504  11507  11508      1    1.1064e+02    5.2585e+02 ;    C32 - N31    - C33   
 11504  11507  11512      1    1.1064e+02    5.2585e+02 ;    C32 - N31    - C34   
 11504  11507  11516      1    1.1064e+02    5.2585e+02 ;    C32 - N31    - C35   
 11505  11504  11506      1    1.1074e+02    3.2669e+02 ;    H2A - C32    - H2B   
 11505  11504  11507      1    1.0791e+02    4.1020e+02 ;    H2A - C32    - N31   
 11506  11504  11507      1    1.0791e+02    4.1020e+02 ;    H2B - C32    - N31   
 11507  11508  11509      1    1.0791e+02    4.1020e+02 ;    N31 - C33    - H3A   
 11507  11508  11510      1    1.0791e+02    4.1020e+02 ;    N31 - C33    - H3B   
 11507  11508  11511      1    1.0791e+02    4.1020e+02 ;    N31 - C33    - H3C   
 11507  11512  11513      1    1.0791e+02    4.1020e+02 ;    N31 - C34    - H4A   
 11507  11512  11514      1    1.0791e+02    4.1020e+02 ;    N31 - C34    - H4B   
 11507  11512  11515      1    1.0791e+02    4.1020e+02 ;    N31 - C34    - H4C   
 11507  11516  11517      1    1.0791e+02    4.1020e+02 ;    N31 - C35    - H5A   
 11507  11516  11518      1    1.0791e+02    4.1020e+02 ;    N31 - C35    - H5B   
 11507  11516  11519      1    1.0791e+02    4.1020e+02 ;    N31 - C35    - H5C   
 11508  11507  11512      1    1.1064e+02    5.2585e+02 ;    C33 - N31    - C34   
 11508  11507  11516      1    1.1064e+02    5.2585e+02 ;    C33 - N31    - C35   
 11509  11508  11510      1    1.1074e+02    3.2669e+02 ;    H3A - C33    - H3B   
 11509  11508  11511      1    1.1074e+02    3.2669e+02 ;    H3A - C33    - H3C   
 11510  11508  11511      1    1.1074e+02    3.2669e+02 ;    H3B - C33    - H3C   
 11512  11507  11516      1    1.1064e+02    5.2585e+02 ;    C34 - N31    - C35   
 11513  11512  11514      1    1.1074e+02    3.2669e+02 ;    H4A - C34    - H4B   
 11513  11512  11515      1    1.1074e+02    3.2669e+02 ;    H4A - C34    - H4C   
 11514  11512  11515      1    1.1074e+02    3.2669e+02 ;    H4B - C34    - H4C   
 11517  11516  11518      1    1.1074e+02    3.2669e+02 ;    H5A - C35    - H5B   
 11517  11516  11519      1    1.1074e+02    3.2669e+02 ;    H5A - C35    - H5C   
 11518  11516  11519      1    1.1074e+02    3.2669e+02 ;    H5B - C35    - H5C   
 11520  11499  11521      1    1.1990e+02    1.1715e+03 ;    O33 - P31    - O34   
 11522  11523  11524      1    1.2333e+02    6.3538e+02 ;    O21 - C21    - O22   
 11522  11523  11562      1    1.1196e+02    5.7957e+02 ;    O21 - C21    - C12   
 11523  11562  11559      1    1.1053e+02    5.3379e+02 ;    C21 - C12    - C13   
 11523  11562  11563      1    1.0968e+02    3.9497e+02 ;    C21 - C12    - H2R   
 11523  11562  11564      1    1.0968e+02    3.9497e+02 ;    C21 - C12    - H2S   
 11524  11523  11562      1    1.2311e+02    5.6928e+02 ;    O22 - C21    - C12   
 11525  11526  11527      1    1.0835e+02    3.2995e+02 ;   H14T - C114   - H14R  
 11525  11526  11528      1    1.0835e+02    3.2995e+02 ;   H14T - C114   - H14S  
 11525  11526  11529      1    1.1005e+02    3.8802e+02 ;   H14T - C114   - C113  
 11526  11529  11530      1    1.1005e+02    3.8802e+02 ;   C114 - C113   - H13R  
 11526  11529  11531      1    1.1005e+02    3.8802e+02 ;   C114 - C113   - H13S  
 11526  11529  11532      1    1.1205e+02    3.9497e+02 ;   C114 - C113   - C112  
 11527  11526  11528      1    1.0835e+02    3.2995e+02 ;   H14R - C114   - H14S  
 11527  11526  11529      1    1.1005e+02    3.8802e+02 ;   H14R - C114   - C113  
 11528  11526  11529      1    1.1005e+02    3.8802e+02 ;   H14S - C114   - C113  
 11529  11532  11533      1    1.1005e+02    3.8802e+02 ;   C113 - C112   - H12R  
 11529  11532  11534      1    1.1005e+02    3.8802e+02 ;   C113 - C112   - H12S  
 11529  11532  11535      1    1.1205e+02    3.9497e+02 ;   C113 - C112   - C111  
 11530  11529  11531      1    1.0835e+02    3.2995e+02 ;   H13R - C113   - H13S  
 11530  11529  11532      1    1.1005e+02    3.8802e+02 ;   H13R - C113   - C112  
 11531  11529  11532      1    1.1005e+02    3.8802e+02 ;   H13S - C113   - C112  
 11532  11535  11536      1    1.1005e+02    3.8802e+02 ;   C112 - C111   - H11R  
 11532  11535  11537      1    1.1005e+02    3.8802e+02 ;   C112 - C111   - H11S  
 11532  11535  11538      1    1.1205e+02    3.9497e+02 ;   C112 - C111   - C110  
 11533  11532  11534      1    1.0835e+02    3.2995e+02 ;   H12R - C112   - H12S  
 11533  11532  11535      1    1.1005e+02    3.8802e+02 ;   H12R - C112   - C111  
 11534  11532  11535      1    1.1005e+02    3.8802e+02 ;   H12S - C112   - C111  
 11535  11538  11539      1    1.1005e+02    3.8802e+02 ;   C111 - C110   - H10R  
 11535  11538  11540      1    1.1005e+02    3.8802e+02 ;   C111 - C110   - H10S  
 11535  11538  11541      1    1.1205e+02    3.9497e+02 ;   C111 - C110   - C19   
 11536  11535  11537      1    1.0835e+02    3.2995e+02 ;   H11R - C111   - H11S  
 11536  11535  11538      1    1.1005e+02    3.8802e+02 ;   H11R - C111   - C110  
 11537  11535  11538      1    1.1005e+02    3.8802e+02 ;   H11S - C111   - C110  
 11538  11541  11542      1    1.1005e+02    3.8802e+02 ;   C110 - C19    - H9R   
 11538  11541  11543      1    1.1005e+02    3.8802e+02 ;   C110 - C19    - H9S   
 11538  11541  11544      1    1.1205e+02    3.9497e+02 ;   C110 - C19    - C18   
 11539  11538  11540      1    1.0835e+02    3.2995e+02 ;   H10R - C110   - H10S  
 11539  11538  11541      1    1.1005e+02    3.8802e+02 ;   H10R - C110   - C19   
 11540  11538  11541      1    1.1005e+02    3.8802e+02 ;   H10S - C110   - C19   
 11541  11544  11545      1    1.1005e+02    3.8802e+02 ;    C19 - C18    - H8R   
 11541  11544  11546      1    1.1005e+02    3.8802e+02 ;    C19 - C18    - H8S   
 11541  11544  11547      1    1.1205e+02    3.9497e+02 ;    C19 - C18    - C17   
 11542  11541  11543      1    1.0835e+02    3.2995e+02 ;    H9R - C19    - H9S   
 11542  11541  11544      1    1.1005e+02    3.8802e+02 ;    H9R - C19    - C18   
 11543  11541  11544      1    1.1005e+02    3.8802e+02 ;    H9S - C19    - C18   
 11544  11547  11548      1    1.1005e+02    3.8802e+02 ;    C18 - C17    - H7R   
 11544  11547  11549      1    1.1005e+02    3.8802e+02 ;    C18 - C17    - H7S   
 11544  11547  11550      1    1.1205e+02    3.9497e+02 ;    C18 - C17    - C16   
 11545  11544  11546      1    1.0835e+02    3.2995e+02 ;    H8R - C18    - H8S   
 11545  11544  11547      1    1.1005e+02    3.8802e+02 ;    H8R - C18    - C17   
 11546  11544  11547      1    1.1005e+02    3.8802e+02 ;    H8S - C18    - C17   
 11547  11550  11551      1    1.1005e+02    3.8802e+02 ;    C17 - C16    - H6R   
 11547  11550  11552      1    1.1005e+02    3.8802e+02 ;    C17 - C16    - H6S   
 11547  11550  11553      1    1.1205e+02    3.9497e+02 ;    C17 - C16    - C15   
 11548  11547  11549      1    1.0835e+02    3.2995e+02 ;    H7R - C17    - H7S   
 11548  11547  11550      1    1.1005e+02    3.8802e+02 ;    H7R - C17    - C16   
 11549  11547  11550      1    1.1005e+02    3.8802e+02 ;    H7S - C17    - C16   
 11550  11553  11554      1    1.1005e+02    3.8802e+02 ;    C16 - C15    - H5R   
 11550  11553  11555      1    1.1005e+02    3.8802e+02 ;    C16 - C15    - H5S   
 11550  11553  11556      1    1.1205e+02    3.9497e+02 ;    C16 - C15    - C14   
 11551  11550  11552      1    1.0835e+02    3.2995e+02 ;    H6R - C16    - H6S   
 11551  11550  11553      1    1.1005e+02    3.8802e+02 ;    H6R - C16    - C15   
 11552  11550  11553      1    1.1005e+02    3.8802e+02 ;    H6S - C16    - C15   
 11553  11556  11557      1    1.1005e+02    3.8802e+02 ;    C15 - C14    - H4R   
 11553  11556  11558      1    1.1005e+02    3.8802e+02 ;    C15 - C14    - H4S   
 11553  11556  11559      1    1.1205e+02    3.9497e+02 ;    C15 - C14    - C13   
 11554  11553  11555      1    1.0835e+02    3.2995e+02 ;    H5R - C15    - H5S   
 11554  11553  11556      1    1.1005e+02    3.8802e+02 ;    H5R - C15    - C14   
 11555  11553  11556      1    1.1005e+02    3.8802e+02 ;    H5S - C15    - C14   
 11556  11559  11560      1    1.1005e+02    3.8802e+02 ;    C14 - C13    - H3R   
 11556  11559  11561      1    1.1005e+02    3.8802e+02 ;    C14 - C13    - H3S   
 11556  11559  11562      1    1.1205e+02    3.9497e+02 ;    C14 - C13    - C12   
 11557  11556  11558      1    1.0835e+02    3.2995e+02 ;    H4R - C14    - H4S   
 11557  11556  11559      1    1.1005e+02    3.8802e+02 ;    H4R - C14    - C13   
 11558  11556  11559      1    1.1005e+02    3.8802e+02 ;    H4S - C14    - C13   
 11559  11562  11563      1    1.1005e+02    3.8802e+02 ;    C13 - C12    - H2R   
 11559  11562  11564      1    1.1005e+02    3.8802e+02 ;    C13 - C12    - H2S   
 11560  11559  11561      1    1.0835e+02    3.2995e+02 ;    H3R - C13    - H3S   
 11560  11559  11562      1    1.1005e+02    3.8802e+02 ;    H3R - C13    - C12   
 11561  11559  11562      1    1.1005e+02    3.8802e+02 ;    H3S - C13    - C12   
 11563  11562  11564      1    1.0835e+02    3.2995e+02 ;    H2R - C12    - H2S   
 11565  11566  11567      1    1.0835e+02    3.2995e+02 ;   H14T - C114   - H14R  
 11565  11566  11568      1    1.0835e+02    3.2995e+02 ;   H14T - C114   - H14S  
 11565  11566  11569      1    1.1005e+02    3.8802e+02 ;   H14T - C114   - C113  
 11566  11569  11570      1    1.1005e+02    3.8802e+02 ;   C114 - C113   - H13R  
 11566  11569  11571      1    1.1005e+02    3.8802e+02 ;   C114 - C113   - H13S  
 11566  11569  11572      1    1.1205e+02    3.9497e+02 ;   C114 - C113   - C112  
 11567  11566  11568      1    1.0835e+02    3.2995e+02 ;   H14R - C114   - H14S  
 11567  11566  11569      1    1.1005e+02    3.8802e+02 ;   H14R - C114   - C113  
 11568  11566  11569      1    1.1005e+02    3.8802e+02 ;   H14S - C114   - C113  
 11569  11572  11573      1    1.1005e+02    3.8802e+02 ;   C113 - C112   - H12R  
 11569  11572  11574      1    1.1005e+02    3.8802e+02 ;   C113 - C112   - H12S  
 11569  11572  11575      1    1.1205e+02    3.9497e+02 ;   C113 - C112   - C111  
 11570  11569  11571      1    1.0835e+02    3.2995e+02 ;   H13R - C113   - H13S  
 11570  11569  11572      1    1.1005e+02    3.8802e+02 ;   H13R - C113   - C112  
 11571  11569  11572      1    1.1005e+02    3.8802e+02 ;   H13S - C113   - C112  
 11572  11575  11576      1    1.1005e+02    3.8802e+02 ;   C112 - C111   - H11R  
 11572  11575  11577      1    1.1005e+02    3.8802e+02 ;   C112 - C111   - H11S  
 11572  11575  11578      1    1.1205e+02    3.9497e+02 ;   C112 - C111   - C110  
 11573  11572  11574      1    1.0835e+02    3.2995e+02 ;   H12R - C112   - H12S  
 11573  11572  11575      1    1.1005e+02    3.8802e+02 ;   H12R - C112   - C111  
 11574  11572  11575      1    1.1005e+02    3.8802e+02 ;   H12S - C112   - C111  
 11575  11578  11579      1    1.1005e+02    3.8802e+02 ;   C111 - C110   - H10R  
 11575  11578  11580      1    1.1005e+02    3.8802e+02 ;   C111 - C110   - H10S  
 11575  11578  11581      1    1.1205e+02    3.9497e+02 ;   C111 - C110   - C19   
 11576  11575  11577      1    1.0835e+02    3.2995e+02 ;   H11R - C111   - H11S  
 11576  11575  11578      1    1.1005e+02    3.8802e+02 ;   H11R - C111   - C110  
 11577  11575  11578      1    1.1005e+02    3.8802e+02 ;   H11S - C111   - C110  
 11578  11581  11582      1    1.1005e+02    3.8802e+02 ;   C110 - C19    - H9R   
 11578  11581  11583      1    1.1005e+02    3.8802e+02 ;   C110 - C19    - H9S   
 11578  11581  11584      1    1.1205e+02    3.9497e+02 ;   C110 - C19    - C18   
 11579  11578  11580      1    1.0835e+02    3.2995e+02 ;   H10R - C110   - H10S  
 11579  11578  11581      1    1.1005e+02    3.8802e+02 ;   H10R - C110   - C19   
 11580  11578  11581      1    1.1005e+02    3.8802e+02 ;   H10S - C110   - C19   
 11581  11584  11585      1    1.1005e+02    3.8802e+02 ;    C19 - C18    - H8R   
 11581  11584  11586      1    1.1005e+02    3.8802e+02 ;    C19 - C18    - H8S   
 11581  11584  11587      1    1.1205e+02    3.9497e+02 ;    C19 - C18    - C17   
 11582  11581  11583      1    1.0835e+02    3.2995e+02 ;    H9R - C19    - H9S   
 11582  11581  11584      1    1.1005e+02    3.8802e+02 ;    H9R - C19    - C18   
 11583  11581  11584      1    1.1005e+02    3.8802e+02 ;    H9S - C19    - C18   
 11584  11587  11588      1    1.1005e+02    3.8802e+02 ;    C18 - C17    - H7R   
 11584  11587  11589      1    1.1005e+02    3.8802e+02 ;    C18 - C17    - H7S   
 11584  11587  11590      1    1.1205e+02    3.9497e+02 ;    C18 - C17    - C16   
 11585  11584  11586      1    1.0835e+02    3.2995e+02 ;    H8R - C18    - H8S   
 11585  11584  11587      1    1.1005e+02    3.8802e+02 ;    H8R - C18    - C17   
 11586  11584  11587      1    1.1005e+02    3.8802e+02 ;    H8S - C18    - C17   
 11587  11590  11591      1    1.1005e+02    3.8802e+02 ;    C17 - C16    - H6R   
 11587  11590  11592      1    1.1005e+02    3.8802e+02 ;    C17 - C16    - H6S   
 11587  11590  11593      1    1.1205e+02    3.9497e+02 ;    C17 - C16    - C15   
 11588  11587  11589      1    1.0835e+02    3.2995e+02 ;    H7R - C17    - H7S   
 11588  11587  11590      1    1.1005e+02    3.8802e+02 ;    H7R - C17    - C16   
 11589  11587  11590      1    1.1005e+02    3.8802e+02 ;    H7S - C17    - C16   
 11590  11593  11594      1    1.1005e+02    3.8802e+02 ;    C16 - C15    - H5R   
 11590  11593  11595      1    1.1005e+02    3.8802e+02 ;    C16 - C15    - H5S   
 11590  11593  11596      1    1.1205e+02    3.9497e+02 ;    C16 - C15    - C14   
 11591  11590  11592      1    1.0835e+02    3.2995e+02 ;    H6R - C16    - H6S   
 11591  11590  11593      1    1.1005e+02    3.8802e+02 ;    H6R - C16    - C15   
 11592  11590  11593      1    1.1005e+02    3.8802e+02 ;    H6S - C16    - C15   
 11593  11596  11597      1    1.1005e+02    3.8802e+02 ;    C15 - C14    - H4R   
 11593  11596  11598      1    1.1005e+02    3.8802e+02 ;    C15 - C14    - H4S   
 11593  11596  11599      1    1.1205e+02    3.9497e+02 ;    C15 - C14    - C13   
 11594  11593  11595      1    1.0835e+02    3.2995e+02 ;    H5R - C15    - H5S   
 11594  11593  11596      1    1.1005e+02    3.8802e+02 ;    H5R - C15    - C14   
 11595  11593  11596      1    1.1005e+02    3.8802e+02 ;    H5S - C15    - C14   
 11596  11599  11600      1    1.1005e+02    3.8802e+02 ;    C14 - C13    - H3R   
 11596  11599  11601      1    1.1005e+02    3.8802e+02 ;    C14 - C13    - H3S   
 11596  11599  11602      1    1.1205e+02    3.9497e+02 ;    C14 - C13    - C12   
 11597  11596  11598      1    1.0835e+02    3.2995e+02 ;    H4R - C14    - H4S   
 11597  11596  11599      1    1.1005e+02    3.8802e+02 ;    H4R - C14    - C13   
 11598  11596  11599      1    1.1005e+02    3.8802e+02 ;    H4S - C14    - C13   
 11599  11602  11603      1    1.1005e+02    3.8802e+02 ;    C13 - C12    - H2R   
 11599  11602  11604      1    1.1005e+02    3.8802e+02 ;    C13 - C12    - H2S   
 11599  11602  11605      1    1.1053e+02    5.3379e+02 ;    C13 - C12    - C11   
 11600  11599  11601      1    1.0835e+02    3.2995e+02 ;    H3R - C13    - H3S   
 11600  11599  11602      1    1.1005e+02    3.8802e+02 ;    H3R - C13    - C12   
 11601  11599  11602      1    1.1005e+02    3.8802e+02 ;    H3S - C13    - C12   
 11602  11605  11606      1    1.2311e+02    5.6928e+02 ;    C12 - C11    - O12   
 11602  11605  11607      1    1.1196e+02    5.7957e+02 ;    C12 - C11    - O11   
 11603  11602  11604      1    1.0835e+02    3.2995e+02 ;    H2R - C12    - H2S   
 11603  11602  11605      1    1.0968e+02    3.9497e+02 ;    H2R - C12    - C11   
 11604  11602  11605      1    1.0968e+02    3.9497e+02 ;    H2S - C12    - C11   
 11605  11607  11608      1    1.1514e+02    5.3246e+02 ;    C11 - O11    - C1    
 11606  11605  11607      1    1.2333e+02    6.3538e+02 ;    O12 - C11    - O11   
 11607  11608  11609      1    1.0882e+02    4.2543e+02 ;    O11 - C1     - HR    
 11607  11608  11610      1    1.0882e+02    4.2543e+02 ;    O11 - C1     - HS    
 11607  11608  11611      1    1.0842e+02    5.6718e+02 ;    O11 - C1     - C2    
 11608  11611  11612      1    1.1007e+02    3.8794e+02 ;     C1 - C2     - HX    
 11608  11611  11613      1    1.1063e+02    5.2894e+02 ;     C1 - C2     - C3    
 11608  11611  11640      1    1.0842e+02    5.6718e+02 ;     C1 - C2     - O21   
 11609  11608  11610      1    1.0955e+02    3.2786e+02 ;     HR - C1     - HS    
 11609  11608  11611      1    1.1007e+02    3.8794e+02 ;     HR - C1     - C2    
 11610  11608  11611      1    1.1007e+02    3.8794e+02 ;     HS - C1     - C2    
 11611  11613  11614      1    1.1007e+02    3.8794e+02 ;     C2 - C3     - HA    
 11611  11613  11615      1    1.1007e+02    3.8794e+02 ;     C2 - C3     - HB    
 11611  11613  11616      1    1.0842e+02    5.6718e+02 ;     C2 - C3     - O31   
 11611  11640  11641      1    1.1514e+02    5.3246e+02 ;     C2 - O21    - C21   
 11612  11611  11613      1    1.1007e+02    3.8794e+02 ;     HX - C2     - C3    
 11612  11611  11640      1    1.0882e+02    4.2543e+02 ;     HX - C2     - O21   
 11613  11611  11640      1    1.0842e+02    5.6718e+02 ;     C3 - C2     - O21   
 11613  11616  11617      1    1.2050e+02    8.3680e+02 ;     C3 - O31    - P31   
 11614  11613  11615      1    1.0955e+02    3.2786e+02 ;     HA - C3     - HB    
 11614  11613  11616      1    1.0882e+02    4.2543e+02 ;     HA - C3     - O31   
 11615  11613  11616      1    1.0882e+02    4.2543e+02 ;     HB - C3     - O31   
 11616  11617  11618      1    1.0260e+02    7.5312e+02 ;    O31 - P31    - O32   
 11616  11617  11638      1    1.0823e+02    8.3680e+02 ;    O31 - P31    - O33   
 11616  11617  11639      1    1.0823e+02    8.3680e+02 ;    O31 - P31    - O34   
 11617  11618  11619      1    1.2050e+02    8.3680e+02 ;    P31 - O32    - C31   
 11618  11617  11638      1    1.0823e+02    8.3680e+02 ;    O32 - P31    - O33   
 11618  11617  11639      1    1.0823e+02    8.3680e+02 ;    O32 - P31    - O34   
 11618  11619  11620      1    1.0882e+02    4.2543e+02 ;    O32 - C31    - H1A   
 11618  11619  11621      1    1.0882e+02    4.2543e+02 ;    O32 - C31    - H1B   
 11618  11619  11622      1    1.0842e+02    5.6718e+02 ;    O32 - C31    - C32   
 11619  11622  11623      1    1.1174e+02    3.8510e+02 ;    C31 - C32    - H2A   
 11619  11622  11624      1    1.1174e+02    3.8510e+02 ;    C31 - C32    - H2B   
 11619  11622  11625      1    1.1432e+02    5.3932e+02 ;    C31 - C32    - N31   
 11620  11619  11621      1    1.0955e+02    3.2786e+02 ;    H1A - C31    - H1B   
 11620  11619  11622      1    1.1007e+02    3.8794e+02 ;    H1A - C31    - C32   
 11621  11619  11622      1    1.1007e+02    3.8794e+02 ;    H1B - C31    - C32   
 11622  11625  11626      1    1.1064e+02    5.2585e+02 ;    C32 - N31    - C33   
 11622  11625  11630      1    1.1064e+02    5.2585e+02 ;    C32 - N31    - C34   
 11622  11625  11634      1    1.1064e+02    5.2585e+02 ;    C32 - N31    - C35   
 11623  11622  11624      1    1.1074e+02    3.2669e+02 ;    H2A - C32    - H2B   
 11623  11622  11625      1    1.0791e+02    4.1020e+02 ;    H2A - C32    - N31   
 11624  11622  11625      1    1.0791e+02    4.1020e+02 ;    H2B - C32    - N31   
 11625  11626  11627      1    1.0791e+02    4.1020e+02 ;    N31 - C33    - H3A   
 11625  11626  11628      1    1.0791e+02    4.1020e+02 ;    N31 - C33    - H3B   
 11625  11626  11629      1    1.0791e+02    4.1020e+02 ;    N31 - C33    - H3C   
 11625  11630  11631      1    1.0791e+02    4.1020e+02 ;    N31 - C34    - H4A   
 11625  11630  11632      1    1.0791e+02    4.1020e+02 ;    N31 - C34    - H4B   
 11625  11630  11633      1    1.0791e+02    4.1020e+02 ;    N31 - C34    - H4C   
 11625  11634  11635      1    1.0791e+02    4.1020e+02 ;    N31 - C35    - H5A   
 11625  11634  11636      1    1.0791e+02    4.1020e+02 ;    N31 - C35    - H5B   
 11625  11634  11637      1    1.0791e+02    4.1020e+02 ;    N31 - C35    - H5C   
 11626  11625  11630      1    1.1064e+02    5.2585e+02 ;    C33 - N31    - C34   
 11626  11625  11634      1    1.1064e+02    5.2585e+02 ;    C33 - N31    - C35   
 11627  11626  11628      1    1.1074e+02    3.2669e+02 ;    H3A - C33    - H3B   
 11627  11626  11629      1    1.1074e+02    3.2669e+02 ;    H3A - C33    - H3C   
 11628  11626  11629      1    1.1074e+02    3.2669e+02 ;    H3B - C33    - H3C   
 11630  11625  11634      1    1.1064e+02    5.2585e+02 ;    C34 - N31    - C35   
 11631  11630  11632      1    1.1074e+02    3.2669e+02 ;    H4A - C34    - H4B   
 11631  11630  11633      1    1.1074e+02    3.2669e+02 ;    H4A - C34    - H4C   
 11632  11630  11633      1    1.1074e+02    3.2669e+02 ;    H4B - C34    - H4C   
 11635  11634  11636      1    1.1074e+02    3.2669e+02 ;    H5A - C35    - H5B   
 11635  11634  11637      1    1.1074e+02    3.2669e+02 ;    H5A - C35    - H5C   
 11636  11634  11637      1    1.1074e+02    3.2669e+02 ;    H5B - C35    - H5C   
 11638  11617  11639      1    1.1990e+02    1.1715e+03 ;    O33 - P31    - O34   
 11640  11641  11642      1    1.2333e+02    6.3538e+02 ;    O21 - C21    - O22   
 11640  11641  11680      1    1.1196e+02    5.7957e+02 ;    O21 - C21    - C12   
 11641  11680  11677      1    1.1053e+02    5.3379e+02 ;    C21 - C12    - C13   
 11641  11680  11681      1    1.0968e+02    3.9497e+02 ;    C21 - C12    - H2R   
 11641  11680  11682      1    1.0968e+02    3.9497e+02 ;    C21 - C12    - H2S   
 11642  11641  11680      1    1.2311e+02    5.6928e+02 ;    O22 - C21    - C12   
 11643  11644  11645      1    1.0835e+02    3.2995e+02 ;   H14T - C114   - H14R  
 11643  11644  11646      1    1.0835e+02    3.2995e+02 ;   H14T - C114   - H14S  
 11643  11644  11647      1    1.1005e+02    3.8802e+02 ;   H14T - C114   - C113  
 11644  11647  11648      1    1.1005e+02    3.8802e+02 ;   C114 - C113   - H13R  
 11644  11647  11649      1    1.1005e+02    3.8802e+02 ;   C114 - C113   - H13S  
 11644  11647  11650      1    1.1205e+02    3.9497e+02 ;   C114 - C113   - C112  
 11645  11644  11646      1    1.0835e+02    3.2995e+02 ;   H14R - C114   - H14S  
 11645  11644  11647      1    1.1005e+02    3.8802e+02 ;   H14R - C114   - C113  
 11646  11644  11647      1    1.1005e+02    3.8802e+02 ;   H14S - C114   - C113  
 11647  11650  11651      1    1.1005e+02    3.8802e+02 ;   C113 - C112   - H12R  
 11647  11650  11652      1    1.1005e+02    3.8802e+02 ;   C113 - C112   - H12S  
 11647  11650  11653      1    1.1205e+02    3.9497e+02 ;   C113 - C112   - C111  
 11648  11647  11649      1    1.0835e+02    3.2995e+02 ;   H13R - C113   - H13S  
 11648  11647  11650      1    1.1005e+02    3.8802e+02 ;   H13R - C113   - C112  
 11649  11647  11650      1    1.1005e+02    3.8802e+02 ;   H13S - C113   - C112  
 11650  11653  11654      1    1.1005e+02    3.8802e+02 ;   C112 - C111   - H11R  
 11650  11653  11655      1    1.1005e+02    3.8802e+02 ;   C112 - C111   - H11S  
 11650  11653  11656      1    1.1205e+02    3.9497e+02 ;   C112 - C111   - C110  
 11651  11650  11652      1    1.0835e+02    3.2995e+02 ;   H12R - C112   - H12S  
 11651  11650  11653      1    1.1005e+02    3.8802e+02 ;   H12R - C112   - C111  
 11652  11650  11653      1    1.1005e+02    3.8802e+02 ;   H12S - C112   - C111  
 11653  11656  11657      1    1.1005e+02    3.8802e+02 ;   C111 - C110   - H10R  
 11653  11656  11658      1    1.1005e+02    3.8802e+02 ;   C111 - C110   - H10S  
 11653  11656  11659      1    1.1205e+02    3.9497e+02 ;   C111 - C110   - C19   
 11654  11653  11655      1    1.0835e+02    3.2995e+02 ;   H11R - C111   - H11S  
 11654  11653  11656      1    1.1005e+02    3.8802e+02 ;   H11R - C111   - C110  
 11655  11653  11656      1    1.1005e+02    3.8802e+02 ;   H11S - C111   - C110  
 11656  11659  11660      1    1.1005e+02    3.8802e+02 ;   C110 - C19    - H9R   
 11656  11659  11661      1    1.1005e+02    3.8802e+02 ;   C110 - C19    - H9S   
 11656  11659  11662      1    1.1205e+02    3.9497e+02 ;   C110 - C19    - C18   
 11657  11656  11658      1    1.0835e+02    3.2995e+02 ;   H10R - C110   - H10S  
 11657  11656  11659      1    1.1005e+02    3.8802e+02 ;   H10R - C110   - C19   
 11658  11656  11659      1    1.1005e+02    3.8802e+02 ;   H10S - C110   - C19   
 11659  11662  11663      1    1.1005e+02    3.8802e+02 ;    C19 - C18    - H8R   
 11659  11662  11664      1    1.1005e+02    3.8802e+02 ;    C19 - C18    - H8S   
 11659  11662  11665      1    1.1205e+02    3.9497e+02 ;    C19 - C18    - C17   
 11660  11659  11661      1    1.0835e+02    3.2995e+02 ;    H9R - C19    - H9S   
 11660  11659  11662      1    1.1005e+02    3.8802e+02 ;    H9R - C19    - C18   
 11661  11659  11662      1    1.1005e+02    3.8802e+02 ;    H9S - C19    - C18   
 11662  11665  11666      1    1.1005e+02    3.8802e+02 ;    C18 - C17    - H7R   
 11662  11665  11667      1    1.1005e+02    3.8802e+02 ;    C18 - C17    - H7S   
 11662  11665  11668      1    1.1205e+02    3.9497e+02 ;    C18 - C17    - C16   
 11663  11662  11664      1    1.0835e+02    3.2995e+02 ;    H8R - C18    - H8S   
 11663  11662  11665      1    1.1005e+02    3.8802e+02 ;    H8R - C18    - C17   
 11664  11662  11665      1    1.1005e+02    3.8802e+02 ;    H8S - C18    - C17   
 11665  11668  11669      1    1.1005e+02    3.8802e+02 ;    C17 - C16    - H6R   
 11665  11668  11670      1    1.1005e+02    3.8802e+02 ;    C17 - C16    - H6S   
 11665  11668  11671      1    1.1205e+02    3.9497e+02 ;    C17 - C16    - C15   
 11666  11665  11667      1    1.0835e+02    3.2995e+02 ;    H7R - C17    - H7S   
 11666  11665  11668      1    1.1005e+02    3.8802e+02 ;    H7R - C17    - C16   
 11667  11665  11668      1    1.1005e+02    3.8802e+02 ;    H7S - C17    - C16   
 11668  11671  11672      1    1.1005e+02    3.8802e+02 ;    C16 - C15    - H5R   
 11668  11671  11673      1    1.1005e+02    3.8802e+02 ;    C16 - C15    - H5S   
 11668  11671  11674      1    1.1205e+02    3.9497e+02 ;    C16 - C15    - C14   
 11669  11668  11670      1    1.0835e+02    3.2995e+02 ;    H6R - C16    - H6S   
 11669  11668  11671      1    1.1005e+02    3.8802e+02 ;    H6R - C16    - C15   
 11670  11668  11671      1    1.1005e+02    3.8802e+02 ;    H6S - C16    - C15   
 11671  11674  11675      1    1.1005e+02    3.8802e+02 ;    C15 - C14    - H4R   
 11671  11674  11676      1    1.1005e+02    3.8802e+02 ;    C15 - C14    - H4S   
 11671  11674  11677      1    1.1205e+02    3.9497e+02 ;    C15 - C14    - C13   
 11672  11671  11673      1    1.0835e+02    3.2995e+02 ;    H5R - C15    - H5S   
 11672  11671  11674      1    1.1005e+02    3.8802e+02 ;    H5R - C15    - C14   
 11673  11671  11674      1    1.1005e+02    3.8802e+02 ;    H5S - C15    - C14   
 11674  11677  11678      1    1.1005e+02    3.8802e+02 ;    C14 - C13    - H3R   
 11674  11677  11679      1    1.1005e+02    3.8802e+02 ;    C14 - C13    - H3S   
 11674  11677  11680      1    1.1205e+02    3.9497e+02 ;    C14 - C13    - C12   
 11675  11674  11676      1    1.0835e+02    3.2995e+02 ;    H4R - C14    - H4S   
 11675  11674  11677      1    1.1005e+02    3.8802e+02 ;    H4R - C14    - C13   
 11676  11674  11677      1    1.1005e+02    3.8802e+02 ;    H4S - C14    - C13   
 11677  11680  11681      1    1.1005e+02    3.8802e+02 ;    C13 - C12    - H2R   
 11677  11680  11682      1    1.1005e+02    3.8802e+02 ;    C13 - C12    - H2S   
 11678  11677  11679      1    1.0835e+02    3.2995e+02 ;    H3R - C13    - H3S   
 11678  11677  11680      1    1.1005e+02    3.8802e+02 ;    H3R - C13    - C12   
 11679  11677  11680      1    1.1005e+02    3.8802e+02 ;    H3S - C13    - C12   
 11681  11680  11682      1    1.0835e+02    3.2995e+02 ;    H2R - C12    - H2S   
 11683  11684  11685      1    1.0835e+02    3.2995e+02 ;   H14T - C114   - H14R  
 11683  11684  11686      1    1.0835e+02    3.2995e+02 ;   H14T - C114   - H14S  
 11683  11684  11687      1    1.1005e+02    3.8802e+02 ;   H14T - C114   - C113  
 11684  11687  11688      1    1.1005e+02    3.8802e+02 ;   C114 - C113   - H13R  
 11684  11687  11689      1    1.1005e+02    3.8802e+02 ;   C114 - C113   - H13S  
 11684  11687  11690      1    1.1205e+02    3.9497e+02 ;   C114 - C113   - C112  
 11685  11684  11686      1    1.0835e+02    3.2995e+02 ;   H14R - C114   - H14S  
 11685  11684  11687      1    1.1005e+02    3.8802e+02 ;   H14R - C114   - C113  
 11686  11684  11687      1    1.1005e+02    3.8802e+02 ;   H14S - C114   - C113  
 11687  11690  11691      1    1.1005e+02    3.8802e+02 ;   C113 - C112   - H12R  
 11687  11690  11692      1    1.1005e+02    3.8802e+02 ;   C113 - C112   - H12S  
 11687  11690  11693      1    1.1205e+02    3.9497e+02 ;   C113 - C112   - C111  
 11688  11687  11689      1    1.0835e+02    3.2995e+02 ;   H13R - C113   - H13S  
 11688  11687  11690      1    1.1005e+02    3.8802e+02 ;   H13R - C113   - C112  
 11689  11687  11690      1    1.1005e+02    3.8802e+02 ;   H13S - C113   - C112  
 11690  11693  11694      1    1.1005e+02    3.8802e+02 ;   C112 - C111   - H11R  
 11690  11693  11695      1    1.1005e+02    3.8802e+02 ;   C112 - C111   - H11S  
 11690  11693  11696      1    1.1205e+02    3.9497e+02 ;   C112 - C111   - C110  
 11691  11690  11692      1    1.0835e+02    3.2995e+02 ;   H12R - C112   - H12S  
 11691  11690  11693      1    1.1005e+02    3.8802e+02 ;   H12R - C112   - C111  
 11692  11690  11693      1    1.1005e+02    3.8802e+02 ;   H12S - C112   - C111  
 11693  11696  11697      1    1.1005e+02    3.8802e+02 ;   C111 - C110   - H10R  
 11693  11696  11698      1    1.1005e+02    3.8802e+02 ;   C111 - C110   - H10S  
 11693  11696  11699      1    1.1205e+02    3.9497e+02 ;   C111 - C110   - C19   
 11694  11693  11695      1    1.0835e+02    3.2995e+02 ;   H11R - C111   - H11S  
 11694  11693  11696      1    1.1005e+02    3.8802e+02 ;   H11R - C111   - C110  
 11695  11693  11696      1    1.1005e+02    3.8802e+02 ;   H11S - C111   - C110  
 11696  11699  11700      1    1.1005e+02    3.8802e+02 ;   C110 - C19    - H9R   
 11696  11699  11701      1    1.1005e+02    3.8802e+02 ;   C110 - C19    - H9S   
 11696  11699  11702      1    1.1205e+02    3.9497e+02 ;   C110 - C19    - C18   
 11697  11696  11698      1    1.0835e+02    3.2995e+02 ;   H10R - C110   - H10S  
 11697  11696  11699      1    1.1005e+02    3.8802e+02 ;   H10R - C110   - C19   
 11698  11696  11699      1    1.1005e+02    3.8802e+02 ;   H10S - C110   - C19   
 11699  11702  11703      1    1.1005e+02    3.8802e+02 ;    C19 - C18    - H8R   
 11699  11702  11704      1    1.1005e+02    3.8802e+02 ;    C19 - C18    - H8S   
 11699  11702  11705      1    1.1205e+02    3.9497e+02 ;    C19 - C18    - C17   
 11700  11699  11701      1    1.0835e+02    3.2995e+02 ;    H9R - C19    - H9S   
 11700  11699  11702      1    1.1005e+02    3.8802e+02 ;    H9R - C19    - C18   
 11701  11699  11702      1    1.1005e+02    3.8802e+02 ;    H9S - C19    - C18   
 11702  11705  11706      1    1.1005e+02    3.8802e+02 ;    C18 - C17    - H7R   
 11702  11705  11707      1    1.1005e+02    3.8802e+02 ;    C18 - C17    - H7S   
 11702  11705  11708      1    1.1205e+02    3.9497e+02 ;    C18 - C17    - C16   
 11703  11702  11704      1    1.0835e+02    3.2995e+02 ;    H8R - C18    - H8S   
 11703  11702  11705      1    1.1005e+02    3.8802e+02 ;    H8R - C18    - C17   
 11704  11702  11705      1    1.1005e+02    3.8802e+02 ;    H8S - C18    - C17   
 11705  11708  11709      1    1.1005e+02    3.8802e+02 ;    C17 - C16    - H6R   
 11705  11708  11710      1    1.1005e+02    3.8802e+02 ;    C17 - C16    - H6S   
 11705  11708  11711      1    1.1205e+02    3.9497e+02 ;    C17 - C16    - C15   
 11706  11705  11707      1    1.0835e+02    3.2995e+02 ;    H7R - C17    - H7S   
 11706  11705  11708      1    1.1005e+02    3.8802e+02 ;    H7R - C17    - C16   
 11707  11705  11708      1    1.1005e+02    3.8802e+02 ;    H7S - C17    - C16   
 11708  11711  11712      1    1.1005e+02    3.8802e+02 ;    C16 - C15    - H5R   
 11708  11711  11713      1    1.1005e+02    3.8802e+02 ;    C16 - C15    - H5S   
 11708  11711  11714      1    1.1205e+02    3.9497e+02 ;    C16 - C15    - C14   
 11709  11708  11710      1    1.0835e+02    3.2995e+02 ;    H6R - C16    - H6S   
 11709  11708  11711      1    1.1005e+02    3.8802e+02 ;    H6R - C16    - C15   
 11710  11708  11711      1    1.1005e+02    3.8802e+02 ;    H6S - C16    - C15   
 11711  11714  11715      1    1.1005e+02    3.8802e+02 ;    C15 - C14    - H4R   
 11711  11714  11716      1    1.1005e+02    3.8802e+02 ;    C15 - C14    - H4S   
 11711  11714  11717      1    1.1205e+02    3.9497e+02 ;    C15 - C14    - C13   
 11712  11711  11713      1    1.0835e+02    3.2995e+02 ;    H5R - C15    - H5S   
 11712  11711  11714      1    1.1005e+02    3.8802e+02 ;    H5R - C15    - C14   
 11713  11711  11714      1    1.1005e+02    3.8802e+02 ;    H5S - C15    - C14   
 11714  11717  11718      1    1.1005e+02    3.8802e+02 ;    C14 - C13    - H3R   
 11714  11717  11719      1    1.1005e+02    3.8802e+02 ;    C14 - C13    - H3S   
 11714  11717  11720      1    1.1205e+02    3.9497e+02 ;    C14 - C13    - C12   
 11715  11714  11716      1    1.0835e+02    3.2995e+02 ;    H4R - C14    - H4S   
 11715  11714  11717      1    1.1005e+02    3.8802e+02 ;    H4R - C14    - C13   
 11716  11714  11717      1    1.1005e+02    3.8802e+02 ;    H4S - C14    - C13   
 11717  11720  11721      1    1.1005e+02    3.8802e+02 ;    C13 - C12    - H2R   
 11717  11720  11722      1    1.1005e+02    3.8802e+02 ;    C13 - C12    - H2S   
 11717  11720  11723      1    1.1053e+02    5.3379e+02 ;    C13 - C12    - C11   
 11718  11717  11719      1    1.0835e+02    3.2995e+02 ;    H3R - C13    - H3S   
 11718  11717  11720      1    1.1005e+02    3.8802e+02 ;    H3R - C13    - C12   
 11719  11717  11720      1    1.1005e+02    3.8802e+02 ;    H3S - C13    - C12   
 11720  11723  11724      1    1.2311e+02    5.6928e+02 ;    C12 - C11    - O12   
 11720  11723  11725      1    1.1196e+02    5.7957e+02 ;    C12 - C11    - O11   
 11721  11720  11722      1    1.0835e+02    3.2995e+02 ;    H2R - C12    - H2S   
 11721  11720  11723      1    1.0968e+02    3.9497e+02 ;    H2R - C12    - C11   
 11722  11720  11723      1    1.0968e+02    3.9497e+02 ;    H2S - C12    - C11   
 11723  11725  11726      1    1.1514e+02    5.3246e+02 ;    C11 - O11    - C1    
 11724  11723  11725      1    1.2333e+02    6.3538e+02 ;    O12 - C11    - O11   
 11725  11726  11727      1    1.0882e+02    4.2543e+02 ;    O11 - C1     - HR    
 11725  11726  11728      1    1.0882e+02    4.2543e+02 ;    O11 - C1     - HS    
 11725  11726  11729      1    1.0842e+02    5.6718e+02 ;    O11 - C1     - C2    
 11726  11729  11730      1    1.1007e+02    3.8794e+02 ;     C1 - C2     - HX    
 11726  11729  11731      1    1.1063e+02    5.2894e+02 ;     C1 - C2     - C3    
 11726  11729  11758      1    1.0842e+02    5.6718e+02 ;     C1 - C2     - O21   
 11727  11726  11728      1    1.0955e+02    3.2786e+02 ;     HR - C1     - HS    
 11727  11726  11729      1    1.1007e+02    3.8794e+02 ;     HR - C1     - C2    
 11728  11726  11729      1    1.1007e+02    3.8794e+02 ;     HS - C1     - C2    
 11729  11731  11732      1    1.1007e+02    3.8794e+02 ;     C2 - C3     - HA    
 11729  11731  11733      1    1.1007e+02    3.8794e+02 ;     C2 - C3     - HB    
 11729  11731  11734      1    1.0842e+02    5.6718e+02 ;     C2 - C3     - O31   
 11729  11758  11759      1    1.1514e+02    5.3246e+02 ;     C2 - O21    - C21   
 11730  11729  11731      1    1.1007e+02    3.8794e+02 ;     HX - C2     - C3    
 11730  11729  11758      1    1.0882e+02    4.2543e+02 ;     HX - C2     - O21   
 11731  11729  11758      1    1.0842e+02    5.6718e+02 ;     C3 - C2     - O21   
 11731  11734  11735      1    1.2050e+02    8.3680e+02 ;     C3 - O31    - P31   
 11732  11731  11733      1    1.0955e+02    3.2786e+02 ;     HA - C3     - HB    
 11732  11731  11734      1    1.0882e+02    4.2543e+02 ;     HA - C3     - O31   
 11733  11731  11734      1    1.0882e+02    4.2543e+02 ;     HB - C3     - O31   
 11734  11735  11736      1    1.0260e+02    7.5312e+02 ;    O31 - P31    - O32   
 11734  11735  11756      1    1.0823e+02    8.3680e+02 ;    O31 - P31    - O33   
 11734  11735  11757      1    1.0823e+02    8.3680e+02 ;    O31 - P31    - O34   
 11735  11736  11737      1    1.2050e+02    8.3680e+02 ;    P31 - O32    - C31   
 11736  11735  11756      1    1.0823e+02    8.3680e+02 ;    O32 - P31    - O33   
 11736  11735  11757      1    1.0823e+02    8.3680e+02 ;    O32 - P31    - O34   
 11736  11737  11738      1    1.0882e+02    4.2543e+02 ;    O32 - C31    - H1A   
 11736  11737  11739      1    1.0882e+02    4.2543e+02 ;    O32 - C31    - H1B   
 11736  11737  11740      1    1.0842e+02    5.6718e+02 ;    O32 - C31    - C32   
 11737  11740  11741      1    1.1174e+02    3.8510e+02 ;    C31 - C32    - H2A   
 11737  11740  11742      1    1.1174e+02    3.8510e+02 ;    C31 - C32    - H2B   
 11737  11740  11743      1    1.1432e+02    5.3932e+02 ;    C31 - C32    - N31   
 11738  11737  11739      1    1.0955e+02    3.2786e+02 ;    H1A - C31    - H1B   
 11738  11737  11740      1    1.1007e+02    3.8794e+02 ;    H1A - C31    - C32   
 11739  11737  11740      1    1.1007e+02    3.8794e+02 ;    H1B - C31    - C32   
 11740  11743  11744      1    1.1064e+02    5.2585e+02 ;    C32 - N31    - C33   
 11740  11743  11748      1    1.1064e+02    5.2585e+02 ;    C32 - N31    - C34   
 11740  11743  11752      1    1.1064e+02    5.2585e+02 ;    C32 - N31    - C35   
 11741  11740  11742      1    1.1074e+02    3.2669e+02 ;    H2A - C32    - H2B   
 11741  11740  11743      1    1.0791e+02    4.1020e+02 ;    H2A - C32    - N31   
 11742  11740  11743      1    1.0791e+02    4.1020e+02 ;    H2B - C32    - N31   
 11743  11744  11745      1    1.0791e+02    4.1020e+02 ;    N31 - C33    - H3A   
 11743  11744  11746      1    1.0791e+02    4.1020e+02 ;    N31 - C33    - H3B   
 11743  11744  11747      1    1.0791e+02    4.1020e+02 ;    N31 - C33    - H3C   
 11743  11748  11749      1    1.0791e+02    4.1020e+02 ;    N31 - C34    - H4A   
 11743  11748  11750      1    1.0791e+02    4.1020e+02 ;    N31 - C34    - H4B   
 11743  11748  11751      1    1.0791e+02    4.1020e+02 ;    N31 - C34    - H4C   
 11743  11752  11753      1    1.0791e+02    4.1020e+02 ;    N31 - C35    - H5A   
 11743  11752  11754      1    1.0791e+02    4.1020e+02 ;    N31 - C35    - H5B   
 11743  11752  11755      1    1.0791e+02    4.1020e+02 ;    N31 - C35    - H5C   
 11744  11743  11748      1    1.1064e+02    5.2585e+02 ;    C33 - N31    - C34   
 11744  11743  11752      1    1.1064e+02    5.2585e+02 ;    C33 - N31    - C35   
 11745  11744  11746      1    1.1074e+02    3.2669e+02 ;    H3A - C33    - H3B   
 11745  11744  11747      1    1.1074e+02    3.2669e+02 ;    H3A - C33    - H3C   
 11746  11744  11747      1    1.1074e+02    3.2669e+02 ;    H3B - C33    - H3C   
 11748  11743  11752      1    1.1064e+02    5.2585e+02 ;    C34 - N31    - C35   
 11749  11748  11750      1    1.1074e+02    3.2669e+02 ;    H4A - C34    - H4B   
 11749  11748  11751      1    1.1074e+02    3.2669e+02 ;    H4A - C34    - H4C   
 11750  11748  11751      1    1.1074e+02    3.2669e+02 ;    H4B - C34    - H4C   
 11753  11752  11754      1    1.1074e+02    3.2669e+02 ;    H5A - C35    - H5B   
 11753  11752  11755      1    1.1074e+02    3.2669e+02 ;    H5A - C35    - H5C   
 11754  11752  11755      1    1.1074e+02    3.2669e+02 ;    H5B - C35    - H5C   
 11756  11735  11757      1    1.1990e+02    1.1715e+03 ;    O33 - P31    - O34   
 11758  11759  11760      1    1.2333e+02    6.3538e+02 ;    O21 - C21    - O22   
 11758  11759  11798      1    1.1196e+02    5.7957e+02 ;    O21 - C21    - C12   
 11759  11798  11795      1    1.1053e+02    5.3379e+02 ;    C21 - C12    - C13   
 11759  11798  11799      1    1.0968e+02    3.9497e+02 ;    C21 - C12    - H2R   
 11759  11798  11800      1    1.0968e+02    3.9497e+02 ;    C21 - C12    - H2S   
 11760  11759  11798      1    1.2311e+02    5.6928e+02 ;    O22 - C21    - C12   
 11761  11762  11763      1    1.0835e+02    3.2995e+02 ;   H14T - C114   - H14R  
 11761  11762  11764      1    1.0835e+02    3.2995e+02 ;   H14T - C114   - H14S  
 11761  11762  11765      1    1.1005e+02    3.8802e+02 ;   H14T - C114   - C113  
 11762  11765  11766      1    1.1005e+02    3.8802e+02 ;   C114 - C113   - H13R  
 11762  11765  11767      1    1.1005e+02    3.8802e+02 ;   C114 - C113   - H13S  
 11762  11765  11768      1    1.1205e+02    3.9497e+02 ;   C114 - C113   - C112  
 11763  11762  11764      1    1.0835e+02    3.2995e+02 ;   H14R - C114   - H14S  
 11763  11762  11765      1    1.1005e+02    3.8802e+02 ;   H14R - C114   - C113  
 11764  11762  11765      1    1.1005e+02    3.8802e+02 ;   H14S - C114   - C113  
 11765  11768  11769      1    1.1005e+02    3.8802e+02 ;   C113 - C112   - H12R  
 11765  11768  11770      1    1.1005e+02    3.8802e+02 ;   C113 - C112   - H12S  
 11765  11768  11771      1    1.1205e+02    3.9497e+02 ;   C113 - C112   - C111  
 11766  11765  11767      1    1.0835e+02    3.2995e+02 ;   H13R - C113   - H13S  
 11766  11765  11768      1    1.1005e+02    3.8802e+02 ;   H13R - C113   - C112  
 11767  11765  11768      1    1.1005e+02    3.8802e+02 ;   H13S - C113   - C112  
 11768  11771  11772      1    1.1005e+02    3.8802e+02 ;   C112 - C111   - H11R  
 11768  11771  11773      1    1.1005e+02    3.8802e+02 ;   C112 - C111   - H11S  
 11768  11771  11774      1    1.1205e+02    3.9497e+02 ;   C112 - C111   - C110  
 11769  11768  11770      1    1.0835e+02    3.2995e+02 ;   H12R - C112   - H12S  
 11769  11768  11771      1    1.1005e+02    3.8802e+02 ;   H12R - C112   - C111  
 11770  11768  11771      1    1.1005e+02    3.8802e+02 ;   H12S - C112   - C111  
 11771  11774  11775      1    1.1005e+02    3.8802e+02 ;   C111 - C110   - H10R  
 11771  11774  11776      1    1.1005e+02    3.8802e+02 ;   C111 - C110   - H10S  
 11771  11774  11777      1    1.1205e+02    3.9497e+02 ;   C111 - C110   - C19   
 11772  11771  11773      1    1.0835e+02    3.2995e+02 ;   H11R - C111   - H11S  
 11772  11771  11774      1    1.1005e+02    3.8802e+02 ;   H11R - C111   - C110  
 11773  11771  11774      1    1.1005e+02    3.8802e+02 ;   H11S - C111   - C110  
 11774  11777  11778      1    1.1005e+02    3.8802e+02 ;   C110 - C19    - H9R   
 11774  11777  11779      1    1.1005e+02    3.8802e+02 ;   C110 - C19    - H9S   
 11774  11777  11780      1    1.1205e+02    3.9497e+02 ;   C110 - C19    - C18   
 11775  11774  11776      1    1.0835e+02    3.2995e+02 ;   H10R - C110   - H10S  
 11775  11774  11777      1    1.1005e+02    3.8802e+02 ;   H10R - C110   - C19   
 11776  11774  11777      1    1.1005e+02    3.8802e+02 ;   H10S - C110   - C19   
 11777  11780  11781      1    1.1005e+02    3.8802e+02 ;    C19 - C18    - H8R   
 11777  11780  11782      1    1.1005e+02    3.8802e+02 ;    C19 - C18    - H8S   
 11777  11780  11783      1    1.1205e+02    3.9497e+02 ;    C19 - C18    - C17   
 11778  11777  11779      1    1.0835e+02    3.2995e+02 ;    H9R - C19    - H9S   
 11778  11777  11780      1    1.1005e+02    3.8802e+02 ;    H9R - C19    - C18   
 11779  11777  11780      1    1.1005e+02    3.8802e+02 ;    H9S - C19    - C18   
 11780  11783  11784      1    1.1005e+02    3.8802e+02 ;    C18 - C17    - H7R   
 11780  11783  11785      1    1.1005e+02    3.8802e+02 ;    C18 - C17    - H7S   
 11780  11783  11786      1    1.1205e+02    3.9497e+02 ;    C18 - C17    - C16   
 11781  11780  11782      1    1.0835e+02    3.2995e+02 ;    H8R - C18    - H8S   
 11781  11780  11783      1    1.1005e+02    3.8802e+02 ;    H8R - C18    - C17   
 11782  11780  11783      1    1.1005e+02    3.8802e+02 ;    H8S - C18    - C17   
 11783  11786  11787      1    1.1005e+02    3.8802e+02 ;    C17 - C16    - H6R   
 11783  11786  11788      1    1.1005e+02    3.8802e+02 ;    C17 - C16    - H6S   
 11783  11786  11789      1    1.1205e+02    3.9497e+02 ;    C17 - C16    - C15   
 11784  11783  11785      1    1.0835e+02    3.2995e+02 ;    H7R - C17    - H7S   
 11784  11783  11786      1    1.1005e+02    3.8802e+02 ;    H7R - C17    - C16   
 11785  11783  11786      1    1.1005e+02    3.8802e+02 ;    H7S - C17    - C16   
 11786  11789  11790      1    1.1005e+02    3.8802e+02 ;    C16 - C15    - H5R   
 11786  11789  11791      1    1.1005e+02    3.8802e+02 ;    C16 - C15    - H5S   
 11786  11789  11792      1    1.1205e+02    3.9497e+02 ;    C16 - C15    - C14   
 11787  11786  11788      1    1.0835e+02    3.2995e+02 ;    H6R - C16    - H6S   
 11787  11786  11789      1    1.1005e+02    3.8802e+02 ;    H6R - C16    - C15   
 11788  11786  11789      1    1.1005e+02    3.8802e+02 ;    H6S - C16    - C15   
 11789  11792  11793      1    1.1005e+02    3.8802e+02 ;    C15 - C14    - H4R   
 11789  11792  11794      1    1.1005e+02    3.8802e+02 ;    C15 - C14    - H4S   
 11789  11792  11795      1    1.1205e+02    3.9497e+02 ;    C15 - C14    - C13   
 11790  11789  11791      1    1.0835e+02    3.2995e+02 ;    H5R - C15    - H5S   
 11790  11789  11792      1    1.1005e+02    3.8802e+02 ;    H5R - C15    - C14   
 11791  11789  11792      1    1.1005e+02    3.8802e+02 ;    H5S - C15    - C14   
 11792  11795  11796      1    1.1005e+02    3.8802e+02 ;    C14 - C13    - H3R   
 11792  11795  11797      1    1.1005e+02    3.8802e+02 ;    C14 - C13    - H3S   
 11792  11795  11798      1    1.1205e+02    3.9497e+02 ;    C14 - C13    - C12   
 11793  11792  11794      1    1.0835e+02    3.2995e+02 ;    H4R - C14    - H4S   
 11793  11792  11795      1    1.1005e+02    3.8802e+02 ;    H4R - C14    - C13   
 11794  11792  11795      1    1.1005e+02    3.8802e+02 ;    H4S - C14    - C13   
 11795  11798  11799      1    1.1005e+02    3.8802e+02 ;    C13 - C12    - H2R   
 11795  11798  11800      1    1.1005e+02    3.8802e+02 ;    C13 - C12    - H2S   
 11796  11795  11797      1    1.0835e+02    3.2995e+02 ;    H3R - C13    - H3S   
 11796  11795  11798      1    1.1005e+02    3.8802e+02 ;    H3R - C13    - C12   
 11797  11795  11798      1    1.1005e+02    3.8802e+02 ;    H3S - C13    - C12   
 11799  11798  11800      1    1.0835e+02    3.2995e+02 ;    H2R - C12    - H2S   
 11801  11802  11803      1    1.0835e+02    3.2995e+02 ;   H14T - C114   - H14R  
 11801  11802  11804      1    1.0835e+02    3.2995e+02 ;   H14T - C114   - H14S  
 11801  11802  11805      1    1.1005e+02    3.8802e+02 ;   H14T - C114   - C113  
 11802  11805  11806      1    1.1005e+02    3.8802e+02 ;   C114 - C113   - H13R  
 11802  11805  11807      1    1.1005e+02    3.8802e+02 ;   C114 - C113   - H13S  
 11802  11805  11808      1    1.1205e+02    3.9497e+02 ;   C114 - C113   - C112  
 11803  11802  11804      1    1.0835e+02    3.2995e+02 ;   H14R - C114   - H14S  
 11803  11802  11805      1    1.1005e+02    3.8802e+02 ;   H14R - C114   - C113  
 11804  11802  11805      1    1.1005e+02    3.8802e+02 ;   H14S - C114   - C113  
 11805  11808  11809      1    1.1005e+02    3.8802e+02 ;   C113 - C112   - H12R  
 11805  11808  11810      1    1.1005e+02    3.8802e+02 ;   C113 - C112   - H12S  
 11805  11808  11811      1    1.1205e+02    3.9497e+02 ;   C113 - C112   - C111  
 11806  11805  11807      1    1.0835e+02    3.2995e+02 ;   H13R - C113   - H13S  
 11806  11805  11808      1    1.1005e+02    3.8802e+02 ;   H13R - C113   - C112  
 11807  11805  11808      1    1.1005e+02    3.8802e+02 ;   H13S - C113   - C112  
 11808  11811  11812      1    1.1005e+02    3.8802e+02 ;   C112 - C111   - H11R  
 11808  11811  11813      1    1.1005e+02    3.8802e+02 ;   C112 - C111   - H11S  
 11808  11811  11814      1    1.1205e+02    3.9497e+02 ;   C112 - C111   - C110  
 11809  11808  11810      1    1.0835e+02    3.2995e+02 ;   H12R - C112   - H12S  
 11809  11808  11811      1    1.1005e+02    3.8802e+02 ;   H12R - C112   - C111  
 11810  11808  11811      1    1.1005e+02    3.8802e+02 ;   H12S - C112   - C111  
 11811  11814  11815      1    1.1005e+02    3.8802e+02 ;   C111 - C110   - H10R  
 11811  11814  11816      1    1.1005e+02    3.8802e+02 ;   C111 - C110   - H10S  
 11811  11814  11817      1    1.1205e+02    3.9497e+02 ;   C111 - C110   - C19   
 11812  11811  11813      1    1.0835e+02    3.2995e+02 ;   H11R - C111   - H11S  
 11812  11811  11814      1    1.1005e+02    3.8802e+02 ;   H11R - C111   - C110  
 11813  11811  11814      1    1.1005e+02    3.8802e+02 ;   H11S - C111   - C110  
 11814  11817  11818      1    1.1005e+02    3.8802e+02 ;   C110 - C19    - H9R   
 11814  11817  11819      1    1.1005e+02    3.8802e+02 ;   C110 - C19    - H9S   
 11814  11817  11820      1    1.1205e+02    3.9497e+02 ;   C110 - C19    - C18   
 11815  11814  11816      1    1.0835e+02    3.2995e+02 ;   H10R - C110   - H10S  
 11815  11814  11817      1    1.1005e+02    3.8802e+02 ;   H10R - C110   - C19   
 11816  11814  11817      1    1.1005e+02    3.8802e+02 ;   H10S - C110   - C19   
 11817  11820  11821      1    1.1005e+02    3.8802e+02 ;    C19 - C18    - H8R   
 11817  11820  11822      1    1.1005e+02    3.8802e+02 ;    C19 - C18    - H8S   
 11817  11820  11823      1    1.1205e+02    3.9497e+02 ;    C19 - C18    - C17   
 11818  11817  11819      1    1.0835e+02    3.2995e+02 ;    H9R - C19    - H9S   
 11818  11817  11820      1    1.1005e+02    3.8802e+02 ;    H9R - C19    - C18   
 11819  11817  11820      1    1.1005e+02    3.8802e+02 ;    H9S - C19    - C18   
 11820  11823  11824      1    1.1005e+02    3.8802e+02 ;    C18 - C17    - H7R   
 11820  11823  11825      1    1.1005e+02    3.8802e+02 ;    C18 - C17    - H7S   
 11820  11823  11826      1    1.1205e+02    3.9497e+02 ;    C18 - C17    - C16   
 11821  11820  11822      1    1.0835e+02    3.2995e+02 ;    H8R - C18    - H8S   
 11821  11820  11823      1    1.1005e+02    3.8802e+02 ;    H8R - C18    - C17   
 11822  11820  11823      1    1.1005e+02    3.8802e+02 ;    H8S - C18    - C17   
 11823  11826  11827      1    1.1005e+02    3.8802e+02 ;    C17 - C16    - H6R   
 11823  11826  11828      1    1.1005e+02    3.8802e+02 ;    C17 - C16    - H6S   
 11823  11826  11829      1    1.1205e+02    3.9497e+02 ;    C17 - C16    - C15   
 11824  11823  11825      1    1.0835e+02    3.2995e+02 ;    H7R - C17    - H7S   
 11824  11823  11826      1    1.1005e+02    3.8802e+02 ;    H7R - C17    - C16   
 11825  11823  11826      1    1.1005e+02    3.8802e+02 ;    H7S - C17    - C16   
 11826  11829  11830      1    1.1005e+02    3.8802e+02 ;    C16 - C15    - H5R   
 11826  11829  11831      1    1.1005e+02    3.8802e+02 ;    C16 - C15    - H5S   
 11826  11829  11832      1    1.1205e+02    3.9497e+02 ;    C16 - C15    - C14   
 11827  11826  11828      1    1.0835e+02    3.2995e+02 ;    H6R - C16    - H6S   
 11827  11826  11829      1    1.1005e+02    3.8802e+02 ;    H6R - C16    - C15   
 11828  11826  11829      1    1.1005e+02    3.8802e+02 ;    H6S - C16    - C15   
 11829  11832  11833      1    1.1005e+02    3.8802e+02 ;    C15 - C14    - H4R   
 11829  11832  11834      1    1.1005e+02    3.8802e+02 ;    C15 - C14    - H4S   
 11829  11832  11835      1    1.1205e+02    3.9497e+02 ;    C15 - C14    - C13   
 11830  11829  11831      1    1.0835e+02    3.2995e+02 ;    H5R - C15    - H5S   
 11830  11829  11832      1    1.1005e+02    3.8802e+02 ;    H5R - C15    - C14   
 11831  11829  11832      1    1.1005e+02    3.8802e+02 ;    H5S - C15    - C14   
 11832  11835  11836      1    1.1005e+02    3.8802e+02 ;    C14 - C13    - H3R   
 11832  11835  11837      1    1.1005e+02    3.8802e+02 ;    C14 - C13    - H3S   
 11832  11835  11838      1    1.1205e+02    3.9497e+02 ;    C14 - C13    - C12   
 11833  11832  11834      1    1.0835e+02    3.2995e+02 ;    H4R - C14    - H4S   
 11833  11832  11835      1    1.1005e+02    3.8802e+02 ;    H4R - C14    - C13   
 11834  11832  11835      1    1.1005e+02    3.8802e+02 ;    H4S - C14    - C13   
 11835  11838  11839      1    1.1005e+02    3.8802e+02 ;    C13 - C12    - H2R   
 11835  11838  11840      1    1.1005e+02    3.8802e+02 ;    C13 - C12    - H2S   
 11835  11838  11841      1    1.1053e+02    5.3379e+02 ;    C13 - C12    - C11   
 11836  11835  11837      1    1.0835e+02    3.2995e+02 ;    H3R - C13    - H3S   
 11836  11835  11838      1    1.1005e+02    3.8802e+02 ;    H3R - C13    - C12   
 11837  11835  11838      1    1.1005e+02    3.8802e+02 ;    H3S - C13    - C12   
 11838  11841  11842      1    1.2311e+02    5.6928e+02 ;    C12 - C11    - O12   
 11838  11841  11843      1    1.1196e+02    5.7957e+02 ;    C12 - C11    - O11   
 11839  11838  11840      1    1.0835e+02    3.2995e+02 ;    H2R - C12    - H2S   
 11839  11838  11841      1    1.0968e+02    3.9497e+02 ;    H2R - C12    - C11   
 11840  11838  11841      1    1.0968e+02    3.9497e+02 ;    H2S - C12    - C11   
 11841  11843  11844      1    1.1514e+02    5.3246e+02 ;    C11 - O11    - C1    
 11842  11841  11843      1    1.2333e+02    6.3538e+02 ;    O12 - C11    - O11   
 11843  11844  11845      1    1.0882e+02    4.2543e+02 ;    O11 - C1     - HR    
 11843  11844  11846      1    1.0882e+02    4.2543e+02 ;    O11 - C1     - HS    
 11843  11844  11847      1    1.0842e+02    5.6718e+02 ;    O11 - C1     - C2    
 11844  11847  11848      1    1.1007e+02    3.8794e+02 ;     C1 - C2     - HX    
 11844  11847  11849      1    1.1063e+02    5.2894e+02 ;     C1 - C2     - C3    
 11844  11847  11876      1    1.0842e+02    5.6718e+02 ;     C1 - C2     - O21   
 11845  11844  11846      1    1.0955e+02    3.2786e+02 ;     HR - C1     - HS    
 11845  11844  11847      1    1.1007e+02    3.8794e+02 ;     HR - C1     - C2    
 11846  11844  11847      1    1.1007e+02    3.8794e+02 ;     HS - C1     - C2    
 11847  11849  11850      1    1.1007e+02    3.8794e+02 ;     C2 - C3     - HA    
 11847  11849  11851      1    1.1007e+02    3.8794e+02 ;     C2 - C3     - HB    
 11847  11849  11852      1    1.0842e+02    5.6718e+02 ;     C2 - C3     - O31   
 11847  11876  11877      1    1.1514e+02    5.3246e+02 ;     C2 - O21    - C21   
 11848  11847  11849      1    1.1007e+02    3.8794e+02 ;     HX - C2     - C3    
 11848  11847  11876      1    1.0882e+02    4.2543e+02 ;     HX - C2     - O21   
 11849  11847  11876      1    1.0842e+02    5.6718e+02 ;     C3 - C2     - O21   
 11849  11852  11853      1    1.2050e+02    8.3680e+02 ;     C3 - O31    - P31   
 11850  11849  11851      1    1.0955e+02    3.2786e+02 ;     HA - C3     - HB    
 11850  11849  11852      1    1.0882e+02    4.2543e+02 ;     HA - C3     - O31   
 11851  11849  11852      1    1.0882e+02    4.2543e+02 ;     HB - C3     - O31   
 11852  11853  11854      1    1.0260e+02    7.5312e+02 ;    O31 - P31    - O32   
 11852  11853  11874      1    1.0823e+02    8.3680e+02 ;    O31 - P31    - O33   
 11852  11853  11875      1    1.0823e+02    8.3680e+02 ;    O31 - P31    - O34   
 11853  11854  11855      1    1.2050e+02    8.3680e+02 ;    P31 - O32    - C31   
 11854  11853  11874      1    1.0823e+02    8.3680e+02 ;    O32 - P31    - O33   
 11854  11853  11875      1    1.0823e+02    8.3680e+02 ;    O32 - P31    - O34   
 11854  11855  11856      1    1.0882e+02    4.2543e+02 ;    O32 - C31    - H1A   
 11854  11855  11857      1    1.0882e+02    4.2543e+02 ;    O32 - C31    - H1B   
 11854  11855  11858      1    1.0842e+02    5.6718e+02 ;    O32 - C31    - C32   
 11855  11858  11859      1    1.1174e+02    3.8510e+02 ;    C31 - C32    - H2A   
 11855  11858  11860      1    1.1174e+02    3.8510e+02 ;    C31 - C32    - H2B   
 11855  11858  11861      1    1.1432e+02    5.3932e+02 ;    C31 - C32    - N31   
 11856  11855  11857      1    1.0955e+02    3.2786e+02 ;    H1A - C31    - H1B   
 11856  11855  11858      1    1.1007e+02    3.8794e+02 ;    H1A - C31    - C32   
 11857  11855  11858      1    1.1007e+02    3.8794e+02 ;    H1B - C31    - C32   
 11858  11861  11862      1    1.1064e+02    5.2585e+02 ;    C32 - N31    - C33   
 11858  11861  11866      1    1.1064e+02    5.2585e+02 ;    C32 - N31    - C34   
 11858  11861  11870      1    1.1064e+02    5.2585e+02 ;    C32 - N31    - C35   
 11859  11858  11860      1    1.1074e+02    3.2669e+02 ;    H2A - C32    - H2B   
 11859  11858  11861      1    1.0791e+02    4.1020e+02 ;    H2A - C32    - N31   
 11860  11858  11861      1    1.0791e+02    4.1020e+02 ;    H2B - C32    - N31   
 11861  11862  11863      1    1.0791e+02    4.1020e+02 ;    N31 - C33    - H3A   
 11861  11862  11864      1    1.0791e+02    4.1020e+02 ;    N31 - C33    - H3B   
 11861  11862  11865      1    1.0791e+02    4.1020e+02 ;    N31 - C33    - H3C   
 11861  11866  11867      1    1.0791e+02    4.1020e+02 ;    N31 - C34    - H4A   
 11861  11866  11868      1    1.0791e+02    4.1020e+02 ;    N31 - C34    - H4B   
 11861  11866  11869      1    1.0791e+02    4.1020e+02 ;    N31 - C34    - H4C   
 11861  11870  11871      1    1.0791e+02    4.1020e+02 ;    N31 - C35    - H5A   
 11861  11870  11872      1    1.0791e+02    4.1020e+02 ;    N31 - C35    - H5B   
 11861  11870  11873      1    1.0791e+02    4.1020e+02 ;    N31 - C35    - H5C   
 11862  11861  11866      1    1.1064e+02    5.2585e+02 ;    C33 - N31    - C34   
 11862  11861  11870      1    1.1064e+02    5.2585e+02 ;    C33 - N31    - C35   
 11863  11862  11864      1    1.1074e+02    3.2669e+02 ;    H3A - C33    - H3B   
 11863  11862  11865      1    1.1074e+02    3.2669e+02 ;    H3A - C33    - H3C   
 11864  11862  11865      1    1.1074e+02    3.2669e+02 ;    H3B - C33    - H3C   
 11866  11861  11870      1    1.1064e+02    5.2585e+02 ;    C34 - N31    - C35   
 11867  11866  11868      1    1.1074e+02    3.2669e+02 ;    H4A - C34    - H4B   
 11867  11866  11869      1    1.1074e+02    3.2669e+02 ;    H4A - C34    - H4C   
 11868  11866  11869      1    1.1074e+02    3.2669e+02 ;    H4B - C34    - H4C   
 11871  11870  11872      1    1.1074e+02    3.2669e+02 ;    H5A - C35    - H5B   
 11871  11870  11873      1    1.1074e+02    3.2669e+02 ;    H5A - C35    - H5C   
 11872  11870  11873      1    1.1074e+02    3.2669e+02 ;    H5B - C35    - H5C   
 11874  11853  11875      1    1.1990e+02    1.1715e+03 ;    O33 - P31    - O34   
 11876  11877  11878      1    1.2333e+02    6.3538e+02 ;    O21 - C21    - O22   
 11876  11877  11916      1    1.1196e+02    5.7957e+02 ;    O21 - C21    - C12   
 11877  11916  11913      1    1.1053e+02    5.3379e+02 ;    C21 - C12    - C13   
 11877  11916  11917      1    1.0968e+02    3.9497e+02 ;    C21 - C12    - H2R   
 11877  11916  11918      1    1.0968e+02    3.9497e+02 ;    C21 - C12    - H2S   
 11878  11877  11916      1    1.2311e+02    5.6928e+02 ;    O22 - C21    - C12   
 11879  11880  11881      1    1.0835e+02    3.2995e+02 ;   H14T - C114   - H14R  
 11879  11880  11882      1    1.0835e+02    3.2995e+02 ;   H14T - C114   - H14S  
 11879  11880  11883      1    1.1005e+02    3.8802e+02 ;   H14T - C114   - C113  
 11880  11883  11884      1    1.1005e+02    3.8802e+02 ;   C114 - C113   - H13R  
 11880  11883  11885      1    1.1005e+02    3.8802e+02 ;   C114 - C113   - H13S  
 11880  11883  11886      1    1.1205e+02    3.9497e+02 ;   C114 - C113   - C112  
 11881  11880  11882      1    1.0835e+02    3.2995e+02 ;   H14R - C114   - H14S  
 11881  11880  11883      1    1.1005e+02    3.8802e+02 ;   H14R - C114   - C113  
 11882  11880  11883      1    1.1005e+02    3.8802e+02 ;   H14S - C114   - C113  
 11883  11886  11887      1    1.1005e+02    3.8802e+02 ;   C113 - C112   - H12R  
 11883  11886  11888      1    1.1005e+02    3.8802e+02 ;   C113 - C112   - H12S  
 11883  11886  11889      1    1.1205e+02    3.9497e+02 ;   C113 - C112   - C111  
 11884  11883  11885      1    1.0835e+02    3.2995e+02 ;   H13R - C113   - H13S  
 11884  11883  11886      1    1.1005e+02    3.8802e+02 ;   H13R - C113   - C112  
 11885  11883  11886      1    1.1005e+02    3.8802e+02 ;   H13S - C113   - C112  
 11886  11889  11890      1    1.1005e+02    3.8802e+02 ;   C112 - C111   - H11R  
 11886  11889  11891      1    1.1005e+02    3.8802e+02 ;   C112 - C111   - H11S  
 11886  11889  11892      1    1.1205e+02    3.9497e+02 ;   C112 - C111   - C110  
 11887  11886  11888      1    1.0835e+02    3.2995e+02 ;   H12R - C112   - H12S  
 11887  11886  11889      1    1.1005e+02    3.8802e+02 ;   H12R - C112   - C111  
 11888  11886  11889      1    1.1005e+02    3.8802e+02 ;   H12S - C112   - C111  
 11889  11892  11893      1    1.1005e+02    3.8802e+02 ;   C111 - C110   - H10R  
 11889  11892  11894      1    1.1005e+02    3.8802e+02 ;   C111 - C110   - H10S  
 11889  11892  11895      1    1.1205e+02    3.9497e+02 ;   C111 - C110   - C19   
 11890  11889  11891      1    1.0835e+02    3.2995e+02 ;   H11R - C111   - H11S  
 11890  11889  11892      1    1.1005e+02    3.8802e+02 ;   H11R - C111   - C110  
 11891  11889  11892      1    1.1005e+02    3.8802e+02 ;   H11S - C111   - C110  
 11892  11895  11896      1    1.1005e+02    3.8802e+02 ;   C110 - C19    - H9R   
 11892  11895  11897      1    1.1005e+02    3.8802e+02 ;   C110 - C19    - H9S   
 11892  11895  11898      1    1.1205e+02    3.9497e+02 ;   C110 - C19    - C18   
 11893  11892  11894      1    1.0835e+02    3.2995e+02 ;   H10R - C110   - H10S  
 11893  11892  11895      1    1.1005e+02    3.8802e+02 ;   H10R - C110   - C19   
 11894  11892  11895      1    1.1005e+02    3.8802e+02 ;   H10S - C110   - C19   
 11895  11898  11899      1    1.1005e+02    3.8802e+02 ;    C19 - C18    - H8R   
 11895  11898  11900      1    1.1005e+02    3.8802e+02 ;    C19 - C18    - H8S   
 11895  11898  11901      1    1.1205e+02    3.9497e+02 ;    C19 - C18    - C17   
 11896  11895  11897      1    1.0835e+02    3.2995e+02 ;    H9R - C19    - H9S   
 11896  11895  11898      1    1.1005e+02    3.8802e+02 ;    H9R - C19    - C18   
 11897  11895  11898      1    1.1005e+02    3.8802e+02 ;    H9S - C19    - C18   
 11898  11901  11902      1    1.1005e+02    3.8802e+02 ;    C18 - C17    - H7R   
 11898  11901  11903      1    1.1005e+02    3.8802e+02 ;    C18 - C17    - H7S   
 11898  11901  11904      1    1.1205e+02    3.9497e+02 ;    C18 - C17    - C16   
 11899  11898  11900      1    1.0835e+02    3.2995e+02 ;    H8R - C18    - H8S   
 11899  11898  11901      1    1.1005e+02    3.8802e+02 ;    H8R - C18    - C17   
 11900  11898  11901      1    1.1005e+02    3.8802e+02 ;    H8S - C18    - C17   
 11901  11904  11905      1    1.1005e+02    3.8802e+02 ;    C17 - C16    - H6R   
 11901  11904  11906      1    1.1005e+02    3.8802e+02 ;    C17 - C16    - H6S   
 11901  11904  11907      1    1.1205e+02    3.9497e+02 ;    C17 - C16    - C15   
 11902  11901  11903      1    1.0835e+02    3.2995e+02 ;    H7R - C17    - H7S   
 11902  11901  11904      1    1.1005e+02    3.8802e+02 ;    H7R - C17    - C16   
 11903  11901  11904      1    1.1005e+02    3.8802e+02 ;    H7S - C17    - C16   
 11904  11907  11908      1    1.1005e+02    3.8802e+02 ;    C16 - C15    - H5R   
 11904  11907  11909      1    1.1005e+02    3.8802e+02 ;    C16 - C15    - H5S   
 11904  11907  11910      1    1.1205e+02    3.9497e+02 ;    C16 - C15    - C14   
 11905  11904  11906      1    1.0835e+02    3.2995e+02 ;    H6R - C16    - H6S   
 11905  11904  11907      1    1.1005e+02    3.8802e+02 ;    H6R - C16    - C15   
 11906  11904  11907      1    1.1005e+02    3.8802e+02 ;    H6S - C16    - C15   
 11907  11910  11911      1    1.1005e+02    3.8802e+02 ;    C15 - C14    - H4R   
 11907  11910  11912      1    1.1005e+02    3.8802e+02 ;    C15 - C14    - H4S   
 11907  11910  11913      1    1.1205e+02    3.9497e+02 ;    C15 - C14    - C13   
 11908  11907  11909      1    1.0835e+02    3.2995e+02 ;    H5R - C15    - H5S   
 11908  11907  11910      1    1.1005e+02    3.8802e+02 ;    H5R - C15    - C14   
 11909  11907  11910      1    1.1005e+02    3.8802e+02 ;    H5S - C15    - C14   
 11910  11913  11914      1    1.1005e+02    3.8802e+02 ;    C14 - C13    - H3R   
 11910  11913  11915      1    1.1005e+02    3.8802e+02 ;    C14 - C13    - H3S   
 11910  11913  11916      1    1.1205e+02    3.9497e+02 ;    C14 - C13    - C12   
 11911  11910  11912      1    1.0835e+02    3.2995e+02 ;    H4R - C14    - H4S   
 11911  11910  11913      1    1.1005e+02    3.8802e+02 ;    H4R - C14    - C13   
 11912  11910  11913      1    1.1005e+02    3.8802e+02 ;    H4S - C14    - C13   
 11913  11916  11917      1    1.1005e+02    3.8802e+02 ;    C13 - C12    - H2R   
 11913  11916  11918      1    1.1005e+02    3.8802e+02 ;    C13 - C12    - H2S   
 11914  11913  11915      1    1.0835e+02    3.2995e+02 ;    H3R - C13    - H3S   
 11914  11913  11916      1    1.1005e+02    3.8802e+02 ;    H3R - C13    - C12   
 11915  11913  11916      1    1.1005e+02    3.8802e+02 ;    H3S - C13    - C12   
 11917  11916  11918      1    1.0835e+02    3.2995e+02 ;    H2R - C12    - H2S   
 11919  11920  11921      1    1.0835e+02    3.2995e+02 ;   H14T - C114   - H14R  
 11919  11920  11922      1    1.0835e+02    3.2995e+02 ;   H14T - C114   - H14S  
 11919  11920  11923      1    1.1005e+02    3.8802e+02 ;   H14T - C114   - C113  
 11920  11923  11924      1    1.1005e+02    3.8802e+02 ;   C114 - C113   - H13R  
 11920  11923  11925      1    1.1005e+02    3.8802e+02 ;   C114 - C113   - H13S  
 11920  11923  11926      1    1.1205e+02    3.9497e+02 ;   C114 - C113   - C112  
 11921  11920  11922      1    1.0835e+02    3.2995e+02 ;   H14R - C114   - H14S  
 11921  11920  11923      1    1.1005e+02    3.8802e+02 ;   H14R - C114   - C113  
 11922  11920  11923      1    1.1005e+02    3.8802e+02 ;   H14S - C114   - C113  
 11923  11926  11927      1    1.1005e+02    3.8802e+02 ;   C113 - C112   - H12R  
 11923  11926  11928      1    1.1005e+02    3.8802e+02 ;   C113 - C112   - H12S  
 11923  11926  11929      1    1.1205e+02    3.9497e+02 ;   C113 - C112   - C111  
 11924  11923  11925      1    1.0835e+02    3.2995e+02 ;   H13R - C113   - H13S  
 11924  11923  11926      1    1.1005e+02    3.8802e+02 ;   H13R - C113   - C112  
 11925  11923  11926      1    1.1005e+02    3.8802e+02 ;   H13S - C113   - C112  
 11926  11929  11930      1    1.1005e+02    3.8802e+02 ;   C112 - C111   - H11R  
 11926  11929  11931      1    1.1005e+02    3.8802e+02 ;   C112 - C111   - H11S  
 11926  11929  11932      1    1.1205e+02    3.9497e+02 ;   C112 - C111   - C110  
 11927  11926  11928      1    1.0835e+02    3.2995e+02 ;   H12R - C112   - H12S  
 11927  11926  11929      1    1.1005e+02    3.8802e+02 ;   H12R - C112   - C111  
 11928  11926  11929      1    1.1005e+02    3.8802e+02 ;   H12S - C112   - C111  
 11929  11932  11933      1    1.1005e+02    3.8802e+02 ;   C111 - C110   - H10R  
 11929  11932  11934      1    1.1005e+02    3.8802e+02 ;   C111 - C110   - H10S  
 11929  11932  11935      1    1.1205e+02    3.9497e+02 ;   C111 - C110   - C19   
 11930  11929  11931      1    1.0835e+02    3.2995e+02 ;   H11R - C111   - H11S  
 11930  11929  11932      1    1.1005e+02    3.8802e+02 ;   H11R - C111   - C110  
 11931  11929  11932      1    1.1005e+02    3.8802e+02 ;   H11S - C111   - C110  
 11932  11935  11936      1    1.1005e+02    3.8802e+02 ;   C110 - C19    - H9R   
 11932  11935  11937      1    1.1005e+02    3.8802e+02 ;   C110 - C19    - H9S   
 11932  11935  11938      1    1.1205e+02    3.9497e+02 ;   C110 - C19    - C18   
 11933  11932  11934      1    1.0835e+02    3.2995e+02 ;   H10R - C110   - H10S  
 11933  11932  11935      1    1.1005e+02    3.8802e+02 ;   H10R - C110   - C19   
 11934  11932  11935      1    1.1005e+02    3.8802e+02 ;   H10S - C110   - C19   
 11935  11938  11939      1    1.1005e+02    3.8802e+02 ;    C19 - C18    - H8R   
 11935  11938  11940      1    1.1005e+02    3.8802e+02 ;    C19 - C18    - H8S   
 11935  11938  11941      1    1.1205e+02    3.9497e+02 ;    C19 - C18    - C17   
 11936  11935  11937      1    1.0835e+02    3.2995e+02 ;    H9R - C19    - H9S   
 11936  11935  11938      1    1.1005e+02    3.8802e+02 ;    H9R - C19    - C18   
 11937  11935  11938      1    1.1005e+02    3.8802e+02 ;    H9S - C19    - C18   
 11938  11941  11942      1    1.1005e+02    3.8802e+02 ;    C18 - C17    - H7R   
 11938  11941  11943      1    1.1005e+02    3.8802e+02 ;    C18 - C17    - H7S   
 11938  11941  11944      1    1.1205e+02    3.9497e+02 ;    C18 - C17    - C16   
 11939  11938  11940      1    1.0835e+02    3.2995e+02 ;    H8R - C18    - H8S   
 11939  11938  11941      1    1.1005e+02    3.8802e+02 ;    H8R - C18    - C17   
 11940  11938  11941      1    1.1005e+02    3.8802e+02 ;    H8S - C18    - C17   
 11941  11944  11945      1    1.1005e+02    3.8802e+02 ;    C17 - C16    - H6R   
 11941  11944  11946      1    1.1005e+02    3.8802e+02 ;    C17 - C16    - H6S   
 11941  11944  11947      1    1.1205e+02    3.9497e+02 ;    C17 - C16    - C15   
 11942  11941  11943      1    1.0835e+02    3.2995e+02 ;    H7R - C17    - H7S   
 11942  11941  11944      1    1.1005e+02    3.8802e+02 ;    H7R - C17    - C16   
 11943  11941  11944      1    1.1005e+02    3.8802e+02 ;    H7S - C17    - C16   
 11944  11947  11948      1    1.1005e+02    3.8802e+02 ;    C16 - C15    - H5R   
 11944  11947  11949      1    1.1005e+02    3.8802e+02 ;    C16 - C15    - H5S   
 11944  11947  11950      1    1.1205e+02    3.9497e+02 ;    C16 - C15    - C14   
 11945  11944  11946      1    1.0835e+02    3.2995e+02 ;    H6R - C16    - H6S   
 11945  11944  11947      1    1.1005e+02    3.8802e+02 ;    H6R - C16    - C15   
 11946  11944  11947      1    1.1005e+02    3.8802e+02 ;    H6S - C16    - C15   
 11947  11950  11951      1    1.1005e+02    3.8802e+02 ;    C15 - C14    - H4R   
 11947  11950  11952      1    1.1005e+02    3.8802e+02 ;    C15 - C14    - H4S   
 11947  11950  11953      1    1.1205e+02    3.9497e+02 ;    C15 - C14    - C13   
 11948  11947  11949      1    1.0835e+02    3.2995e+02 ;    H5R - C15    - H5S   
 11948  11947  11950      1    1.1005e+02    3.8802e+02 ;    H5R - C15    - C14   
 11949  11947  11950      1    1.1005e+02    3.8802e+02 ;    H5S - C15    - C14   
 11950  11953  11954      1    1.1005e+02    3.8802e+02 ;    C14 - C13    - H3R   
 11950  11953  11955      1    1.1005e+02    3.8802e+02 ;    C14 - C13    - H3S   
 11950  11953  11956      1    1.1205e+02    3.9497e+02 ;    C14 - C13    - C12   
 11951  11950  11952      1    1.0835e+02    3.2995e+02 ;    H4R - C14    - H4S   
 11951  11950  11953      1    1.1005e+02    3.8802e+02 ;    H4R - C14    - C13   
 11952  11950  11953      1    1.1005e+02    3.8802e+02 ;    H4S - C14    - C13   
 11953  11956  11957      1    1.1005e+02    3.8802e+02 ;    C13 - C12    - H2R   
 11953  11956  11958      1    1.1005e+02    3.8802e+02 ;    C13 - C12    - H2S   
 11953  11956  11959      1    1.1053e+02    5.3379e+02 ;    C13 - C12    - C11   
 11954  11953  11955      1    1.0835e+02    3.2995e+02 ;    H3R - C13    - H3S   
 11954  11953  11956      1    1.1005e+02    3.8802e+02 ;    H3R - C13    - C12   
 11955  11953  11956      1    1.1005e+02    3.8802e+02 ;    H3S - C13    - C12   
 11956  11959  11960      1    1.2311e+02    5.6928e+02 ;    C12 - C11    - O12   
 11956  11959  11961      1    1.1196e+02    5.7957e+02 ;    C12 - C11    - O11   
 11957  11956  11958      1    1.0835e+02    3.2995e+02 ;    H2R - C12    - H2S   
 11957  11956  11959      1    1.0968e+02    3.9497e+02 ;    H2R - C12    - C11   
 11958  11956  11959      1    1.0968e+02    3.9497e+02 ;    H2S - C12    - C11   
 11959  11961  11962      1    1.1514e+02    5.3246e+02 ;    C11 - O11    - C1    
 11960  11959  11961      1    1.2333e+02    6.3538e+02 ;    O12 - C11    - O11   
 11961  11962  11963      1    1.0882e+02    4.2543e+02 ;    O11 - C1     - HR    
 11961  11962  11964      1    1.0882e+02    4.2543e+02 ;    O11 - C1     - HS    
 11961  11962  11965      1    1.0842e+02    5.6718e+02 ;    O11 - C1     - C2    
 11962  11965  11966      1    1.1007e+02    3.8794e+02 ;     C1 - C2     - HX    
 11962  11965  11967      1    1.1063e+02    5.2894e+02 ;     C1 - C2     - C3    
 11962  11965  11994      1    1.0842e+02    5.6718e+02 ;     C1 - C2     - O21   
 11963  11962  11964      1    1.0955e+02    3.2786e+02 ;     HR - C1     - HS    
 11963  11962  11965      1    1.1007e+02    3.8794e+02 ;     HR - C1     - C2    
 11964  11962  11965      1    1.1007e+02    3.8794e+02 ;     HS - C1     - C2    
 11965  11967  11968      1    1.1007e+02    3.8794e+02 ;     C2 - C3     - HA    
 11965  11967  11969      1    1.1007e+02    3.8794e+02 ;     C2 - C3     - HB    
 11965  11967  11970      1    1.0842e+02    5.6718e+02 ;     C2 - C3     - O31   
 11965  11994  11995      1    1.1514e+02    5.3246e+02 ;     C2 - O21    - C21   
 11966  11965  11967      1    1.1007e+02    3.8794e+02 ;     HX - C2     - C3    
 11966  11965  11994      1    1.0882e+02    4.2543e+02 ;     HX - C2     - O21   
 11967  11965  11994      1    1.0842e+02    5.6718e+02 ;     C3 - C2     - O21   
 11967  11970  11971      1    1.2050e+02    8.3680e+02 ;     C3 - O31    - P31   
 11968  11967  11969      1    1.0955e+02    3.2786e+02 ;     HA - C3     - HB    
 11968  11967  11970      1    1.0882e+02    4.2543e+02 ;     HA - C3     - O31   
 11969  11967  11970      1    1.0882e+02    4.2543e+02 ;     HB - C3     - O31   
 11970  11971  11972      1    1.0260e+02    7.5312e+02 ;    O31 - P31    - O32   
 11970  11971  11992      1    1.0823e+02    8.3680e+02 ;    O31 - P31    - O33   
 11970  11971  11993      1    1.0823e+02    8.3680e+02 ;    O31 - P31    - O34   
 11971  11972  11973      1    1.2050e+02    8.3680e+02 ;    P31 - O32    - C31   
 11972  11971  11992      1    1.0823e+02    8.3680e+02 ;    O32 - P31    - O33   
 11972  11971  11993      1    1.0823e+02    8.3680e+02 ;    O32 - P31    - O34   
 11972  11973  11974      1    1.0882e+02    4.2543e+02 ;    O32 - C31    - H1A   
 11972  11973  11975      1    1.0882e+02    4.2543e+02 ;    O32 - C31    - H1B   
 11972  11973  11976      1    1.0842e+02    5.6718e+02 ;    O32 - C31    - C32   
 11973  11976  11977      1    1.1174e+02    3.8510e+02 ;    C31 - C32    - H2A   
 11973  11976  11978      1    1.1174e+02    3.8510e+02 ;    C31 - C32    - H2B   
 11973  11976  11979      1    1.1432e+02    5.3932e+02 ;    C31 - C32    - N31   
 11974  11973  11975      1    1.0955e+02    3.2786e+02 ;    H1A - C31    - H1B   
 11974  11973  11976      1    1.1007e+02    3.8794e+02 ;    H1A - C31    - C32   
 11975  11973  11976      1    1.1007e+02    3.8794e+02 ;    H1B - C31    - C32   
 11976  11979  11980      1    1.1064e+02    5.2585e+02 ;    C32 - N31    - C33   
 11976  11979  11984      1    1.1064e+02    5.2585e+02 ;    C32 - N31    - C34   
 11976  11979  11988      1    1.1064e+02    5.2585e+02 ;    C32 - N31    - C35   
 11977  11976  11978      1    1.1074e+02    3.2669e+02 ;    H2A - C32    - H2B   
 11977  11976  11979      1    1.0791e+02    4.1020e+02 ;    H2A - C32    - N31   
 11978  11976  11979      1    1.0791e+02    4.1020e+02 ;    H2B - C32    - N31   
 11979  11980  11981      1    1.0791e+02    4.1020e+02 ;    N31 - C33    - H3A   
 11979  11980  11982      1    1.0791e+02    4.1020e+02 ;    N31 - C33    - H3B   
 11979  11980  11983      1    1.0791e+02    4.1020e+02 ;    N31 - C33    - H3C   
 11979  11984  11985      1    1.0791e+02    4.1020e+02 ;    N31 - C34    - H4A   
 11979  11984  11986      1    1.0791e+02    4.1020e+02 ;    N31 - C34    - H4B   
 11979  11984  11987      1    1.0791e+02    4.1020e+02 ;    N31 - C34    - H4C   
 11979  11988  11989      1    1.0791e+02    4.1020e+02 ;    N31 - C35    - H5A   
 11979  11988  11990      1    1.0791e+02    4.1020e+02 ;    N31 - C35    - H5B   
 11979  11988  11991      1    1.0791e+02    4.1020e+02 ;    N31 - C35    - H5C   
 11980  11979  11984      1    1.1064e+02    5.2585e+02 ;    C33 - N31    - C34   
 11980  11979  11988      1    1.1064e+02    5.2585e+02 ;    C33 - N31    - C35   
 11981  11980  11982      1    1.1074e+02    3.2669e+02 ;    H3A - C33    - H3B   
 11981  11980  11983      1    1.1074e+02    3.2669e+02 ;    H3A - C33    - H3C   
 11982  11980  11983      1    1.1074e+02    3.2669e+02 ;    H3B - C33    - H3C   
 11984  11979  11988      1    1.1064e+02    5.2585e+02 ;    C34 - N31    - C35   
 11985  11984  11986      1    1.1074e+02    3.2669e+02 ;    H4A - C34    - H4B   
 11985  11984  11987      1    1.1074e+02    3.2669e+02 ;    H4A - C34    - H4C   
 11986  11984  11987      1    1.1074e+02    3.2669e+02 ;    H4B - C34    - H4C   
 11989  11988  11990      1    1.1074e+02    3.2669e+02 ;    H5A - C35    - H5B   
 11989  11988  11991      1    1.1074e+02    3.2669e+02 ;    H5A - C35    - H5C   
 11990  11988  11991      1    1.1074e+02    3.2669e+02 ;    H5B - C35    - H5C   
 11992  11971  11993      1    1.1990e+02    1.1715e+03 ;    O33 - P31    - O34   
 11994  11995  11996      1    1.2333e+02    6.3538e+02 ;    O21 - C21    - O22   
 11994  11995  12034      1    1.1196e+02    5.7957e+02 ;    O21 - C21    - C12   
 11995  12034  12031      1    1.1053e+02    5.3379e+02 ;    C21 - C12    - C13   
 11995  12034  12035      1    1.0968e+02    3.9497e+02 ;    C21 - C12    - H2R   
 11995  12034  12036      1    1.0968e+02    3.9497e+02 ;    C21 - C12    - H2S   
 11996  11995  12034      1    1.2311e+02    5.6928e+02 ;    O22 - C21    - C12   
 11997  11998  11999      1    1.0835e+02    3.2995e+02 ;   H14T - C114   - H14R  
 11997  11998  12000      1    1.0835e+02    3.2995e+02 ;   H14T - C114   - H14S  
 11997  11998  12001      1    1.1005e+02    3.8802e+02 ;   H14T - C114   - C113  
 11998  12001  12002      1    1.1005e+02    3.8802e+02 ;   C114 - C113   - H13R  
 11998  12001  12003      1    1.1005e+02    3.8802e+02 ;   C114 - C113   - H13S  
 11998  12001  12004      1    1.1205e+02    3.9497e+02 ;   C114 - C113   - C112  
 11999  11998  12000      1    1.0835e+02    3.2995e+02 ;   H14R - C114   - H14S  
 11999  11998  12001      1    1.1005e+02    3.8802e+02 ;   H14R - C114   - C113  
 12000  11998  12001      1    1.1005e+02    3.8802e+02 ;   H14S - C114   - C113  
 12001  12004  12005      1    1.1005e+02    3.8802e+02 ;   C113 - C112   - H12R  
 12001  12004  12006      1    1.1005e+02    3.8802e+02 ;   C113 - C112   - H12S  
 12001  12004  12007      1    1.1205e+02    3.9497e+02 ;   C113 - C112   - C111  
 12002  12001  12003      1    1.0835e+02    3.2995e+02 ;   H13R - C113   - H13S  
 12002  12001  12004      1    1.1005e+02    3.8802e+02 ;   H13R - C113   - C112  
 12003  12001  12004      1    1.1005e+02    3.8802e+02 ;   H13S - C113   - C112  
 12004  12007  12008      1    1.1005e+02    3.8802e+02 ;   C112 - C111   - H11R  
 12004  12007  12009      1    1.1005e+02    3.8802e+02 ;   C112 - C111   - H11S  
 12004  12007  12010      1    1.1205e+02    3.9497e+02 ;   C112 - C111   - C110  
 12005  12004  12006      1    1.0835e+02    3.2995e+02 ;   H12R - C112   - H12S  
 12005  12004  12007      1    1.1005e+02    3.8802e+02 ;   H12R - C112   - C111  
 12006  12004  12007      1    1.1005e+02    3.8802e+02 ;   H12S - C112   - C111  
 12007  12010  12011      1    1.1005e+02    3.8802e+02 ;   C111 - C110   - H10R  
 12007  12010  12012      1    1.1005e+02    3.8802e+02 ;   C111 - C110   - H10S  
 12007  12010  12013      1    1.1205e+02    3.9497e+02 ;   C111 - C110   - C19   
 12008  12007  12009      1    1.0835e+02    3.2995e+02 ;   H11R - C111   - H11S  
 12008  12007  12010      1    1.1005e+02    3.8802e+02 ;   H11R - C111   - C110  
 12009  12007  12010      1    1.1005e+02    3.8802e+02 ;   H11S - C111   - C110  
 12010  12013  12014      1    1.1005e+02    3.8802e+02 ;   C110 - C19    - H9R   
 12010  12013  12015      1    1.1005e+02    3.8802e+02 ;   C110 - C19    - H9S   
 12010  12013  12016      1    1.1205e+02    3.9497e+02 ;   C110 - C19    - C18   
 12011  12010  12012      1    1.0835e+02    3.2995e+02 ;   H10R - C110   - H10S  
 12011  12010  12013      1    1.1005e+02    3.8802e+02 ;   H10R - C110   - C19   
 12012  12010  12013      1    1.1005e+02    3.8802e+02 ;   H10S - C110   - C19   
 12013  12016  12017      1    1.1005e+02    3.8802e+02 ;    C19 - C18    - H8R   
 12013  12016  12018      1    1.1005e+02    3.8802e+02 ;    C19 - C18    - H8S   
 12013  12016  12019      1    1.1205e+02    3.9497e+02 ;    C19 - C18    - C17   
 12014  12013  12015      1    1.0835e+02    3.2995e+02 ;    H9R - C19    - H9S   
 12014  12013  12016      1    1.1005e+02    3.8802e+02 ;    H9R - C19    - C18   
 12015  12013  12016      1    1.1005e+02    3.8802e+02 ;    H9S - C19    - C18   
 12016  12019  12020      1    1.1005e+02    3.8802e+02 ;    C18 - C17    - H7R   
 12016  12019  12021      1    1.1005e+02    3.8802e+02 ;    C18 - C17    - H7S   
 12016  12019  12022      1    1.1205e+02    3.9497e+02 ;    C18 - C17    - C16   
 12017  12016  12018      1    1.0835e+02    3.2995e+02 ;    H8R - C18    - H8S   
 12017  12016  12019      1    1.1005e+02    3.8802e+02 ;    H8R - C18    - C17   
 12018  12016  12019      1    1.1005e+02    3.8802e+02 ;    H8S - C18    - C17   
 12019  12022  12023      1    1.1005e+02    3.8802e+02 ;    C17 - C16    - H6R   
 12019  12022  12024      1    1.1005e+02    3.8802e+02 ;    C17 - C16    - H6S   
 12019  12022  12025      1    1.1205e+02    3.9497e+02 ;    C17 - C16    - C15   
 12020  12019  12021      1    1.0835e+02    3.2995e+02 ;    H7R - C17    - H7S   
 12020  12019  12022      1    1.1005e+02    3.8802e+02 ;    H7R - C17    - C16   
 12021  12019  12022      1    1.1005e+02    3.8802e+02 ;    H7S - C17    - C16   
 12022  12025  12026      1    1.1005e+02    3.8802e+02 ;    C16 - C15    - H5R   
 12022  12025  12027      1    1.1005e+02    3.8802e+02 ;    C16 - C15    - H5S   
 12022  12025  12028      1    1.1205e+02    3.9497e+02 ;    C16 - C15    - C14   
 12023  12022  12024      1    1.0835e+02    3.2995e+02 ;    H6R - C16    - H6S   
 12023  12022  12025      1    1.1005e+02    3.8802e+02 ;    H6R - C16    - C15   
 12024  12022  12025      1    1.1005e+02    3.8802e+02 ;    H6S - C16    - C15   
 12025  12028  12029      1    1.1005e+02    3.8802e+02 ;    C15 - C14    - H4R   
 12025  12028  12030      1    1.1005e+02    3.8802e+02 ;    C15 - C14    - H4S   
 12025  12028  12031      1    1.1205e+02    3.9497e+02 ;    C15 - C14    - C13   
 12026  12025  12027      1    1.0835e+02    3.2995e+02 ;    H5R - C15    - H5S   
 12026  12025  12028      1    1.1005e+02    3.8802e+02 ;    H5R - C15    - C14   
 12027  12025  12028      1    1.1005e+02    3.8802e+02 ;    H5S - C15    - C14   
 12028  12031  12032      1    1.1005e+02    3.8802e+02 ;    C14 - C13    - H3R   
 12028  12031  12033      1    1.1005e+02    3.8802e+02 ;    C14 - C13    - H3S   
 12028  12031  12034      1    1.1205e+02    3.9497e+02 ;    C14 - C13    - C12   
 12029  12028  12030      1    1.0835e+02    3.2995e+02 ;    H4R - C14    - H4S   
 12029  12028  12031      1    1.1005e+02    3.8802e+02 ;    H4R - C14    - C13   
 12030  12028  12031      1    1.1005e+02    3.8802e+02 ;    H4S - C14    - C13   
 12031  12034  12035      1    1.1005e+02    3.8802e+02 ;    C13 - C12    - H2R   
 12031  12034  12036      1    1.1005e+02    3.8802e+02 ;    C13 - C12    - H2S   
 12032  12031  12033      1    1.0835e+02    3.2995e+02 ;    H3R - C13    - H3S   
 12032  12031  12034      1    1.1005e+02    3.8802e+02 ;    H3R - C13    - C12   
 12033  12031  12034      1    1.1005e+02    3.8802e+02 ;    H3S - C13    - C12   
 12035  12034  12036      1    1.0835e+02    3.2995e+02 ;    H2R - C12    - H2S   
 12037  12038  12039      1    1.0835e+02    3.2995e+02 ;   H14T - C114   - H14R  
 12037  12038  12040      1    1.0835e+02    3.2995e+02 ;   H14T - C114   - H14S  
 12037  12038  12041      1    1.1005e+02    3.8802e+02 ;   H14T - C114   - C113  
 12038  12041  12042      1    1.1005e+02    3.8802e+02 ;   C114 - C113   - H13R  
 12038  12041  12043      1    1.1005e+02    3.8802e+02 ;   C114 - C113   - H13S  
 12038  12041  12044      1    1.1205e+02    3.9497e+02 ;   C114 - C113   - C112  
 12039  12038  12040      1    1.0835e+02    3.2995e+02 ;   H14R - C114   - H14S  
 12039  12038  12041      1    1.1005e+02    3.8802e+02 ;   H14R - C114   - C113  
 12040  12038  12041      1    1.1005e+02    3.8802e+02 ;   H14S - C114   - C113  
 12041  12044  12045      1    1.1005e+02    3.8802e+02 ;   C113 - C112   - H12R  
 12041  12044  12046      1    1.1005e+02    3.8802e+02 ;   C113 - C112   - H12S  
 12041  12044  12047      1    1.1205e+02    3.9497e+02 ;   C113 - C112   - C111  
 12042  12041  12043      1    1.0835e+02    3.2995e+02 ;   H13R - C113   - H13S  
 12042  12041  12044      1    1.1005e+02    3.8802e+02 ;   H13R - C113   - C112  
 12043  12041  12044      1    1.1005e+02    3.8802e+02 ;   H13S - C113   - C112  
 12044  12047  12048      1    1.1005e+02    3.8802e+02 ;   C112 - C111   - H11R  
 12044  12047  12049      1    1.1005e+02    3.8802e+02 ;   C112 - C111   - H11S  
 12044  12047  12050      1    1.1205e+02    3.9497e+02 ;   C112 - C111   - C110  
 12045  12044  12046      1    1.0835e+02    3.2995e+02 ;   H12R - C112   - H12S  
 12045  12044  12047      1    1.1005e+02    3.8802e+02 ;   H12R - C112   - C111  
 12046  12044  12047      1    1.1005e+02    3.8802e+02 ;   H12S - C112   - C111  
 12047  12050  12051      1    1.1005e+02    3.8802e+02 ;   C111 - C110   - H10R  
 12047  12050  12052      1    1.1005e+02    3.8802e+02 ;   C111 - C110   - H10S  
 12047  12050  12053      1    1.1205e+02    3.9497e+02 ;   C111 - C110   - C19   
 12048  12047  12049      1    1.0835e+02    3.2995e+02 ;   H11R - C111   - H11S  
 12048  12047  12050      1    1.1005e+02    3.8802e+02 ;   H11R - C111   - C110  
 12049  12047  12050      1    1.1005e+02    3.8802e+02 ;   H11S - C111   - C110  
 12050  12053  12054      1    1.1005e+02    3.8802e+02 ;   C110 - C19    - H9R   
 12050  12053  12055      1    1.1005e+02    3.8802e+02 ;   C110 - C19    - H9S   
 12050  12053  12056      1    1.1205e+02    3.9497e+02 ;   C110 - C19    - C18   
 12051  12050  12052      1    1.0835e+02    3.2995e+02 ;   H10R - C110   - H10S  
 12051  12050  12053      1    1.1005e+02    3.8802e+02 ;   H10R - C110   - C19   
 12052  12050  12053      1    1.1005e+02    3.8802e+02 ;   H10S - C110   - C19   
 12053  12056  12057      1    1.1005e+02    3.8802e+02 ;    C19 - C18    - H8R   
 12053  12056  12058      1    1.1005e+02    3.8802e+02 ;    C19 - C18    - H8S   
 12053  12056  12059      1    1.1205e+02    3.9497e+02 ;    C19 - C18    - C17   
 12054  12053  12055      1    1.0835e+02    3.2995e+02 ;    H9R - C19    - H9S   
 12054  12053  12056      1    1.1005e+02    3.8802e+02 ;    H9R - C19    - C18   
 12055  12053  12056      1    1.1005e+02    3.8802e+02 ;    H9S - C19    - C18   
 12056  12059  12060      1    1.1005e+02    3.8802e+02 ;    C18 - C17    - H7R   
 12056  12059  12061      1    1.1005e+02    3.8802e+02 ;    C18 - C17    - H7S   
 12056  12059  12062      1    1.1205e+02    3.9497e+02 ;    C18 - C17    - C16   
 12057  12056  12058      1    1.0835e+02    3.2995e+02 ;    H8R - C18    - H8S   
 12057  12056  12059      1    1.1005e+02    3.8802e+02 ;    H8R - C18    - C17   
 12058  12056  12059      1    1.1005e+02    3.8802e+02 ;    H8S - C18    - C17   
 12059  12062  12063      1    1.1005e+02    3.8802e+02 ;    C17 - C16    - H6R   
 12059  12062  12064      1    1.1005e+02    3.8802e+02 ;    C17 - C16    - H6S   
 12059  12062  12065      1    1.1205e+02    3.9497e+02 ;    C17 - C16    - C15   
 12060  12059  12061      1    1.0835e+02    3.2995e+02 ;    H7R - C17    - H7S   
 12060  12059  12062      1    1.1005e+02    3.8802e+02 ;    H7R - C17    - C16   
 12061  12059  12062      1    1.1005e+02    3.8802e+02 ;    H7S - C17    - C16   
 12062  12065  12066      1    1.1005e+02    3.8802e+02 ;    C16 - C15    - H5R   
 12062  12065  12067      1    1.1005e+02    3.8802e+02 ;    C16 - C15    - H5S   
 12062  12065  12068      1    1.1205e+02    3.9497e+02 ;    C16 - C15    - C14   
 12063  12062  12064      1    1.0835e+02    3.2995e+02 ;    H6R - C16    - H6S   
 12063  12062  12065      1    1.1005e+02    3.8802e+02 ;    H6R - C16    - C15   
 12064  12062  12065      1    1.1005e+02    3.8802e+02 ;    H6S - C16    - C15   
 12065  12068  12069      1    1.1005e+02    3.8802e+02 ;    C15 - C14    - H4R   
 12065  12068  12070      1    1.1005e+02    3.8802e+02 ;    C15 - C14    - H4S   
 12065  12068  12071      1    1.1205e+02    3.9497e+02 ;    C15 - C14    - C13   
 12066  12065  12067      1    1.0835e+02    3.2995e+02 ;    H5R - C15    - H5S   
 12066  12065  12068      1    1.1005e+02    3.8802e+02 ;    H5R - C15    - C14   
 12067  12065  12068      1    1.1005e+02    3.8802e+02 ;    H5S - C15    - C14   
 12068  12071  12072      1    1.1005e+02    3.8802e+02 ;    C14 - C13    - H3R   
 12068  12071  12073      1    1.1005e+02    3.8802e+02 ;    C14 - C13    - H3S   
 12068  12071  12074      1    1.1205e+02    3.9497e+02 ;    C14 - C13    - C12   
 12069  12068  12070      1    1.0835e+02    3.2995e+02 ;    H4R - C14    - H4S   
 12069  12068  12071      1    1.1005e+02    3.8802e+02 ;    H4R - C14    - C13   
 12070  12068  12071      1    1.1005e+02    3.8802e+02 ;    H4S - C14    - C13   
 12071  12074  12075      1    1.1005e+02    3.8802e+02 ;    C13 - C12    - H2R   
 12071  12074  12076      1    1.1005e+02    3.8802e+02 ;    C13 - C12    - H2S   
 12071  12074  12077      1    1.1053e+02    5.3379e+02 ;    C13 - C12    - C11   
 12072  12071  12073      1    1.0835e+02    3.2995e+02 ;    H3R - C13    - H3S   
 12072  12071  12074      1    1.1005e+02    3.8802e+02 ;    H3R - C13    - C12   
 12073  12071  12074      1    1.1005e+02    3.8802e+02 ;    H3S - C13    - C12   
 12074  12077  12078      1    1.2311e+02    5.6928e+02 ;    C12 - C11    - O12   
 12074  12077  12079      1    1.1196e+02    5.7957e+02 ;    C12 - C11    - O11   
 12075  12074  12076      1    1.0835e+02    3.2995e+02 ;    H2R - C12    - H2S   
 12075  12074  12077      1    1.0968e+02    3.9497e+02 ;    H2R - C12    - C11   
 12076  12074  12077      1    1.0968e+02    3.9497e+02 ;    H2S - C12    - C11   
 12077  12079  12080      1    1.1514e+02    5.3246e+02 ;    C11 - O11    - C1    
 12078  12077  12079      1    1.2333e+02    6.3538e+02 ;    O12 - C11    - O11   
 12079  12080  12081      1    1.0882e+02    4.2543e+02 ;    O11 - C1     - HR    
 12079  12080  12082      1    1.0882e+02    4.2543e+02 ;    O11 - C1     - HS    
 12079  12080  12083      1    1.0842e+02    5.6718e+02 ;    O11 - C1     - C2    
 12080  12083  12084      1    1.1007e+02    3.8794e+02 ;     C1 - C2     - HX    
 12080  12083  12085      1    1.1063e+02    5.2894e+02 ;     C1 - C2     - C3    
 12080  12083  12112      1    1.0842e+02    5.6718e+02 ;     C1 - C2     - O21   
 12081  12080  12082      1    1.0955e+02    3.2786e+02 ;     HR - C1     - HS    
 12081  12080  12083      1    1.1007e+02    3.8794e+02 ;     HR - C1     - C2    
 12082  12080  12083      1    1.1007e+02    3.8794e+02 ;     HS - C1     - C2    
 12083  12085  12086      1    1.1007e+02    3.8794e+02 ;     C2 - C3     - HA    
 12083  12085  12087      1    1.1007e+02    3.8794e+02 ;     C2 - C3     - HB    
 12083  12085  12088      1    1.0842e+02    5.6718e+02 ;     C2 - C3     - O31   
 12083  12112  12113      1    1.1514e+02    5.3246e+02 ;     C2 - O21    - C21   
 12084  12083  12085      1    1.1007e+02    3.8794e+02 ;     HX - C2     - C3    
 12084  12083  12112      1    1.0882e+02    4.2543e+02 ;     HX - C2     - O21   
 12085  12083  12112      1    1.0842e+02    5.6718e+02 ;     C3 - C2     - O21   
 12085  12088  12089      1    1.2050e+02    8.3680e+02 ;     C3 - O31    - P31   
 12086  12085  12087      1    1.0955e+02    3.2786e+02 ;     HA - C3     - HB    
 12086  12085  12088      1    1.0882e+02    4.2543e+02 ;     HA - C3     - O31   
 12087  12085  12088      1    1.0882e+02    4.2543e+02 ;     HB - C3     - O31   
 12088  12089  12090      1    1.0260e+02    7.5312e+02 ;    O31 - P31    - O32   
 12088  12089  12110      1    1.0823e+02    8.3680e+02 ;    O31 - P31    - O33   
 12088  12089  12111      1    1.0823e+02    8.3680e+02 ;    O31 - P31    - O34   
 12089  12090  12091      1    1.2050e+02    8.3680e+02 ;    P31 - O32    - C31   
 12090  12089  12110      1    1.0823e+02    8.3680e+02 ;    O32 - P31    - O33   
 12090  12089  12111      1    1.0823e+02    8.3680e+02 ;    O32 - P31    - O34   
 12090  12091  12092      1    1.0882e+02    4.2543e+02 ;    O32 - C31    - H1A   
 12090  12091  12093      1    1.0882e+02    4.2543e+02 ;    O32 - C31    - H1B   
 12090  12091  12094      1    1.0842e+02    5.6718e+02 ;    O32 - C31    - C32   
 12091  12094  12095      1    1.1174e+02    3.8510e+02 ;    C31 - C32    - H2A   
 12091  12094  12096      1    1.1174e+02    3.8510e+02 ;    C31 - C32    - H2B   
 12091  12094  12097      1    1.1432e+02    5.3932e+02 ;    C31 - C32    - N31   
 12092  12091  12093      1    1.0955e+02    3.2786e+02 ;    H1A - C31    - H1B   
 12092  12091  12094      1    1.1007e+02    3.8794e+02 ;    H1A - C31    - C32   
 12093  12091  12094      1    1.1007e+02    3.8794e+02 ;    H1B - C31    - C32   
 12094  12097  12098      1    1.1064e+02    5.2585e+02 ;    C32 - N31    - C33   
 12094  12097  12102      1    1.1064e+02    5.2585e+02 ;    C32 - N31    - C34   
 12094  12097  12106      1    1.1064e+02    5.2585e+02 ;    C32 - N31    - C35   
 12095  12094  12096      1    1.1074e+02    3.2669e+02 ;    H2A - C32    - H2B   
 12095  12094  12097      1    1.0791e+02    4.1020e+02 ;    H2A - C32    - N31   
 12096  12094  12097      1    1.0791e+02    4.1020e+02 ;    H2B - C32    - N31   
 12097  12098  12099      1    1.0791e+02    4.1020e+02 ;    N31 - C33    - H3A   
 12097  12098  12100      1    1.0791e+02    4.1020e+02 ;    N31 - C33    - H3B   
 12097  12098  12101      1    1.0791e+02    4.1020e+02 ;    N31 - C33    - H3C   
 12097  12102  12103      1    1.0791e+02    4.1020e+02 ;    N31 - C34    - H4A   
 12097  12102  12104      1    1.0791e+02    4.1020e+02 ;    N31 - C34    - H4B   
 12097  12102  12105      1    1.0791e+02    4.1020e+02 ;    N31 - C34    - H4C   
 12097  12106  12107      1    1.0791e+02    4.1020e+02 ;    N31 - C35    - H5A   
 12097  12106  12108      1    1.0791e+02    4.1020e+02 ;    N31 - C35    - H5B   
 12097  12106  12109      1    1.0791e+02    4.1020e+02 ;    N31 - C35    - H5C   
 12098  12097  12102      1    1.1064e+02    5.2585e+02 ;    C33 - N31    - C34   
 12098  12097  12106      1    1.1064e+02    5.2585e+02 ;    C33 - N31    - C35   
 12099  12098  12100      1    1.1074e+02    3.2669e+02 ;    H3A - C33    - H3B   
 12099  12098  12101      1    1.1074e+02    3.2669e+02 ;    H3A - C33    - H3C   
 12100  12098  12101      1    1.1074e+02    3.2669e+02 ;    H3B - C33    - H3C   
 12102  12097  12106      1    1.1064e+02    5.2585e+02 ;    C34 - N31    - C35   
 12103  12102  12104      1    1.1074e+02    3.2669e+02 ;    H4A - C34    - H4B   
 12103  12102  12105      1    1.1074e+02    3.2669e+02 ;    H4A - C34    - H4C   
 12104  12102  12105      1    1.1074e+02    3.2669e+02 ;    H4B - C34    - H4C   
 12107  12106  12108      1    1.1074e+02    3.2669e+02 ;    H5A - C35    - H5B   
 12107  12106  12109      1    1.1074e+02    3.2669e+02 ;    H5A - C35    - H5C   
 12108  12106  12109      1    1.1074e+02    3.2669e+02 ;    H5B - C35    - H5C   
 12110  12089  12111      1    1.1990e+02    1.1715e+03 ;    O33 - P31    - O34   
 12112  12113  12114      1    1.2333e+02    6.3538e+02 ;    O21 - C21    - O22   
 12112  12113  12152      1    1.1196e+02    5.7957e+02 ;    O21 - C21    - C12   
 12113  12152  12149      1    1.1053e+02    5.3379e+02 ;    C21 - C12    - C13   
 12113  12152  12153      1    1.0968e+02    3.9497e+02 ;    C21 - C12    - H2R   
 12113  12152  12154      1    1.0968e+02    3.9497e+02 ;    C21 - C12    - H2S   
 12114  12113  12152      1    1.2311e+02    5.6928e+02 ;    O22 - C21    - C12   
 12115  12116  12117      1    1.0835e+02    3.2995e+02 ;   H14T - C114   - H14R  
 12115  12116  12118      1    1.0835e+02    3.2995e+02 ;   H14T - C114   - H14S  
 12115  12116  12119      1    1.1005e+02    3.8802e+02 ;   H14T - C114   - C113  
 12116  12119  12120      1    1.1005e+02    3.8802e+02 ;   C114 - C113   - H13R  
 12116  12119  12121      1    1.1005e+02    3.8802e+02 ;   C114 - C113   - H13S  
 12116  12119  12122      1    1.1205e+02    3.9497e+02 ;   C114 - C113   - C112  
 12117  12116  12118      1    1.0835e+02    3.2995e+02 ;   H14R - C114   - H14S  
 12117  12116  12119      1    1.1005e+02    3.8802e+02 ;   H14R - C114   - C113  
 12118  12116  12119      1    1.1005e+02    3.8802e+02 ;   H14S - C114   - C113  
 12119  12122  12123      1    1.1005e+02    3.8802e+02 ;   C113 - C112   - H12R  
 12119  12122  12124      1    1.1005e+02    3.8802e+02 ;   C113 - C112   - H12S  
 12119  12122  12125      1    1.1205e+02    3.9497e+02 ;   C113 - C112   - C111  
 12120  12119  12121      1    1.0835e+02    3.2995e+02 ;   H13R - C113   - H13S  
 12120  12119  12122      1    1.1005e+02    3.8802e+02 ;   H13R - C113   - C112  
 12121  12119  12122      1    1.1005e+02    3.8802e+02 ;   H13S - C113   - C112  
 12122  12125  12126      1    1.1005e+02    3.8802e+02 ;   C112 - C111   - H11R  
 12122  12125  12127      1    1.1005e+02    3.8802e+02 ;   C112 - C111   - H11S  
 12122  12125  12128      1    1.1205e+02    3.9497e+02 ;   C112 - C111   - C110  
 12123  12122  12124      1    1.0835e+02    3.2995e+02 ;   H12R - C112   - H12S  
 12123  12122  12125      1    1.1005e+02    3.8802e+02 ;   H12R - C112   - C111  
 12124  12122  12125      1    1.1005e+02    3.8802e+02 ;   H12S - C112   - C111  
 12125  12128  12129      1    1.1005e+02    3.8802e+02 ;   C111 - C110   - H10R  
 12125  12128  12130      1    1.1005e+02    3.8802e+02 ;   C111 - C110   - H10S  
 12125  12128  12131      1    1.1205e+02    3.9497e+02 ;   C111 - C110   - C19   
 12126  12125  12127      1    1.0835e+02    3.2995e+02 ;   H11R - C111   - H11S  
 12126  12125  12128      1    1.1005e+02    3.8802e+02 ;   H11R - C111   - C110  
 12127  12125  12128      1    1.1005e+02    3.8802e+02 ;   H11S - C111   - C110  
 12128  12131  12132      1    1.1005e+02    3.8802e+02 ;   C110 - C19    - H9R   
 12128  12131  12133      1    1.1005e+02    3.8802e+02 ;   C110 - C19    - H9S   
 12128  12131  12134      1    1.1205e+02    3.9497e+02 ;   C110 - C19    - C18   
 12129  12128  12130      1    1.0835e+02    3.2995e+02 ;   H10R - C110   - H10S  
 12129  12128  12131      1    1.1005e+02    3.8802e+02 ;   H10R - C110   - C19   
 12130  12128  12131      1    1.1005e+02    3.8802e+02 ;   H10S - C110   - C19   
 12131  12134  12135      1    1.1005e+02    3.8802e+02 ;    C19 - C18    - H8R   
 12131  12134  12136      1    1.1005e+02    3.8802e+02 ;    C19 - C18    - H8S   
 12131  12134  12137      1    1.1205e+02    3.9497e+02 ;    C19 - C18    - C17   
 12132  12131  12133      1    1.0835e+02    3.2995e+02 ;    H9R - C19    - H9S   
 12132  12131  12134      1    1.1005e+02    3.8802e+02 ;    H9R - C19    - C18   
 12133  12131  12134      1    1.1005e+02    3.8802e+02 ;    H9S - C19    - C18   
 12134  12137  12138      1    1.1005e+02    3.8802e+02 ;    C18 - C17    - H7R   
 12134  12137  12139      1    1.1005e+02    3.8802e+02 ;    C18 - C17    - H7S   
 12134  12137  12140      1    1.1205e+02    3.9497e+02 ;    C18 - C17    - C16   
 12135  12134  12136      1    1.0835e+02    3.2995e+02 ;    H8R - C18    - H8S   
 12135  12134  12137      1    1.1005e+02    3.8802e+02 ;    H8R - C18    - C17   
 12136  12134  12137      1    1.1005e+02    3.8802e+02 ;    H8S - C18    - C17   
 12137  12140  12141      1    1.1005e+02    3.8802e+02 ;    C17 - C16    - H6R   
 12137  12140  12142      1    1.1005e+02    3.8802e+02 ;    C17 - C16    - H6S   
 12137  12140  12143      1    1.1205e+02    3.9497e+02 ;    C17 - C16    - C15   
 12138  12137  12139      1    1.0835e+02    3.2995e+02 ;    H7R - C17    - H7S   
 12138  12137  12140      1    1.1005e+02    3.8802e+02 ;    H7R - C17    - C16   
 12139  12137  12140      1    1.1005e+02    3.8802e+02 ;    H7S - C17    - C16   
 12140  12143  12144      1    1.1005e+02    3.8802e+02 ;    C16 - C15    - H5R   
 12140  12143  12145      1    1.1005e+02    3.8802e+02 ;    C16 - C15    - H5S   
 12140  12143  12146      1    1.1205e+02    3.9497e+02 ;    C16 - C15    - C14   
 12141  12140  12142      1    1.0835e+02    3.2995e+02 ;    H6R - C16    - H6S   
 12141  12140  12143      1    1.1005e+02    3.8802e+02 ;    H6R - C16    - C15   
 12142  12140  12143      1    1.1005e+02    3.8802e+02 ;    H6S - C16    - C15   
 12143  12146  12147      1    1.1005e+02    3.8802e+02 ;    C15 - C14    - H4R   
 12143  12146  12148      1    1.1005e+02    3.8802e+02 ;    C15 - C14    - H4S   
 12143  12146  12149      1    1.1205e+02    3.9497e+02 ;    C15 - C14    - C13   
 12144  12143  12145      1    1.0835e+02    3.2995e+02 ;    H5R - C15    - H5S   
 12144  12143  12146      1    1.1005e+02    3.8802e+02 ;    H5R - C15    - C14   
 12145  12143  12146      1    1.1005e+02    3.8802e+02 ;    H5S - C15    - C14   
 12146  12149  12150      1    1.1005e+02    3.8802e+02 ;    C14 - C13    - H3R   
 12146  12149  12151      1    1.1005e+02    3.8802e+02 ;    C14 - C13    - H3S   
 12146  12149  12152      1    1.1205e+02    3.9497e+02 ;    C14 - C13    - C12   
 12147  12146  12148      1    1.0835e+02    3.2995e+02 ;    H4R - C14    - H4S   
 12147  12146  12149      1    1.1005e+02    3.8802e+02 ;    H4R - C14    - C13   
 12148  12146  12149      1    1.1005e+02    3.8802e+02 ;    H4S - C14    - C13   
 12149  12152  12153      1    1.1005e+02    3.8802e+02 ;    C13 - C12    - H2R   
 12149  12152  12154      1    1.1005e+02    3.8802e+02 ;    C13 - C12    - H2S   
 12150  12149  12151      1    1.0835e+02    3.2995e+02 ;    H3R - C13    - H3S   
 12150  12149  12152      1    1.1005e+02    3.8802e+02 ;    H3R - C13    - C12   
 12151  12149  12152      1    1.1005e+02    3.8802e+02 ;    H3S - C13    - C12   
 12153  12152  12154      1    1.0835e+02    3.2995e+02 ;    H2R - C12    - H2S   
 12155  12156  12157      1    1.0835e+02    3.2995e+02 ;   H14T - C114   - H14R  
 12155  12156  12158      1    1.0835e+02    3.2995e+02 ;   H14T - C114   - H14S  
 12155  12156  12159      1    1.1005e+02    3.8802e+02 ;   H14T - C114   - C113  
 12156  12159  12160      1    1.1005e+02    3.8802e+02 ;   C114 - C113   - H13R  
 12156  12159  12161      1    1.1005e+02    3.8802e+02 ;   C114 - C113   - H13S  
 12156  12159  12162      1    1.1205e+02    3.9497e+02 ;   C114 - C113   - C112  
 12157  12156  12158      1    1.0835e+02    3.2995e+02 ;   H14R - C114   - H14S  
 12157  12156  12159      1    1.1005e+02    3.8802e+02 ;   H14R - C114   - C113  
 12158  12156  12159      1    1.1005e+02    3.8802e+02 ;   H14S - C114   - C113  
 12159  12162  12163      1    1.1005e+02    3.8802e+02 ;   C113 - C112   - H12R  
 12159  12162  12164      1    1.1005e+02    3.8802e+02 ;   C113 - C112   - H12S  
 12159  12162  12165      1    1.1205e+02    3.9497e+02 ;   C113 - C112   - C111  
 12160  12159  12161      1    1.0835e+02    3.2995e+02 ;   H13R - C113   - H13S  
 12160  12159  12162      1    1.1005e+02    3.8802e+02 ;   H13R - C113   - C112  
 12161  12159  12162      1    1.1005e+02    3.8802e+02 ;   H13S - C113   - C112  
 12162  12165  12166      1    1.1005e+02    3.8802e+02 ;   C112 - C111   - H11R  
 12162  12165  12167      1    1.1005e+02    3.8802e+02 ;   C112 - C111   - H11S  
 12162  12165  12168      1    1.1205e+02    3.9497e+02 ;   C112 - C111   - C110  
 12163  12162  12164      1    1.0835e+02    3.2995e+02 ;   H12R - C112   - H12S  
 12163  12162  12165      1    1.1005e+02    3.8802e+02 ;   H12R - C112   - C111  
 12164  12162  12165      1    1.1005e+02    3.8802e+02 ;   H12S - C112   - C111  
 12165  12168  12169      1    1.1005e+02    3.8802e+02 ;   C111 - C110   - H10R  
 12165  12168  12170      1    1.1005e+02    3.8802e+02 ;   C111 - C110   - H10S  
 12165  12168  12171      1    1.1205e+02    3.9497e+02 ;   C111 - C110   - C19   
 12166  12165  12167      1    1.0835e+02    3.2995e+02 ;   H11R - C111   - H11S  
 12166  12165  12168      1    1.1005e+02    3.8802e+02 ;   H11R - C111   - C110  
 12167  12165  12168      1    1.1005e+02    3.8802e+02 ;   H11S - C111   - C110  
 12168  12171  12172      1    1.1005e+02    3.8802e+02 ;   C110 - C19    - H9R   
 12168  12171  12173      1    1.1005e+02    3.8802e+02 ;   C110 - C19    - H9S   
 12168  12171  12174      1    1.1205e+02    3.9497e+02 ;   C110 - C19    - C18   
 12169  12168  12170      1    1.0835e+02    3.2995e+02 ;   H10R - C110   - H10S  
 12169  12168  12171      1    1.1005e+02    3.8802e+02 ;   H10R - C110   - C19   
 12170  12168  12171      1    1.1005e+02    3.8802e+02 ;   H10S - C110   - C19   
 12171  12174  12175      1    1.1005e+02    3.8802e+02 ;    C19 - C18    - H8R   
 12171  12174  12176      1    1.1005e+02    3.8802e+02 ;    C19 - C18    - H8S   
 12171  12174  12177      1    1.1205e+02    3.9497e+02 ;    C19 - C18    - C17   
 12172  12171  12173      1    1.0835e+02    3.2995e+02 ;    H9R - C19    - H9S   
 12172  12171  12174      1    1.1005e+02    3.8802e+02 ;    H9R - C19    - C18   
 12173  12171  12174      1    1.1005e+02    3.8802e+02 ;    H9S - C19    - C18   
 12174  12177  12178      1    1.1005e+02    3.8802e+02 ;    C18 - C17    - H7R   
 12174  12177  12179      1    1.1005e+02    3.8802e+02 ;    C18 - C17    - H7S   
 12174  12177  12180      1    1.1205e+02    3.9497e+02 ;    C18 - C17    - C16   
 12175  12174  12176      1    1.0835e+02    3.2995e+02 ;    H8R - C18    - H8S   
 12175  12174  12177      1    1.1005e+02    3.8802e+02 ;    H8R - C18    - C17   
 12176  12174  12177      1    1.1005e+02    3.8802e+02 ;    H8S - C18    - C17   
 12177  12180  12181      1    1.1005e+02    3.8802e+02 ;    C17 - C16    - H6R   
 12177  12180  12182      1    1.1005e+02    3.8802e+02 ;    C17 - C16    - H6S   
 12177  12180  12183      1    1.1205e+02    3.9497e+02 ;    C17 - C16    - C15   
 12178  12177  12179      1    1.0835e+02    3.2995e+02 ;    H7R - C17    - H7S   
 12178  12177  12180      1    1.1005e+02    3.8802e+02 ;    H7R - C17    - C16   
 12179  12177  12180      1    1.1005e+02    3.8802e+02 ;    H7S - C17    - C16   
 12180  12183  12184      1    1.1005e+02    3.8802e+02 ;    C16 - C15    - H5R   
 12180  12183  12185      1    1.1005e+02    3.8802e+02 ;    C16 - C15    - H5S   
 12180  12183  12186      1    1.1205e+02    3.9497e+02 ;    C16 - C15    - C14   
 12181  12180  12182      1    1.0835e+02    3.2995e+02 ;    H6R - C16    - H6S   
 12181  12180  12183      1    1.1005e+02    3.8802e+02 ;    H6R - C16    - C15   
 12182  12180  12183      1    1.1005e+02    3.8802e+02 ;    H6S - C16    - C15   
 12183  12186  12187      1    1.1005e+02    3.8802e+02 ;    C15 - C14    - H4R   
 12183  12186  12188      1    1.1005e+02    3.8802e+02 ;    C15 - C14    - H4S   
 12183  12186  12189      1    1.1205e+02    3.9497e+02 ;    C15 - C14    - C13   
 12184  12183  12185      1    1.0835e+02    3.2995e+02 ;    H5R - C15    - H5S   
 12184  12183  12186      1    1.1005e+02    3.8802e+02 ;    H5R - C15    - C14   
 12185  12183  12186      1    1.1005e+02    3.8802e+02 ;    H5S - C15    - C14   
 12186  12189  12190      1    1.1005e+02    3.8802e+02 ;    C14 - C13    - H3R   
 12186  12189  12191      1    1.1005e+02    3.8802e+02 ;    C14 - C13    - H3S   
 12186  12189  12192      1    1.1205e+02    3.9497e+02 ;    C14 - C13    - C12   
 12187  12186  12188      1    1.0835e+02    3.2995e+02 ;    H4R - C14    - H4S   
 12187  12186  12189      1    1.1005e+02    3.8802e+02 ;    H4R - C14    - C13   
 12188  12186  12189      1    1.1005e+02    3.8802e+02 ;    H4S - C14    - C13   
 12189  12192  12193      1    1.1005e+02    3.8802e+02 ;    C13 - C12    - H2R   
 12189  12192  12194      1    1.1005e+02    3.8802e+02 ;    C13 - C12    - H2S   
 12189  12192  12195      1    1.1053e+02    5.3379e+02 ;    C13 - C12    - C11   
 12190  12189  12191      1    1.0835e+02    3.2995e+02 ;    H3R - C13    - H3S   
 12190  12189  12192      1    1.1005e+02    3.8802e+02 ;    H3R - C13    - C12   
 12191  12189  12192      1    1.1005e+02    3.8802e+02 ;    H3S - C13    - C12   
 12192  12195  12196      1    1.2311e+02    5.6928e+02 ;    C12 - C11    - O12   
 12192  12195  12197      1    1.1196e+02    5.7957e+02 ;    C12 - C11    - O11   
 12193  12192  12194      1    1.0835e+02    3.2995e+02 ;    H2R - C12    - H2S   
 12193  12192  12195      1    1.0968e+02    3.9497e+02 ;    H2R - C12    - C11   
 12194  12192  12195      1    1.0968e+02    3.9497e+02 ;    H2S - C12    - C11   
 12195  12197  12198      1    1.1514e+02    5.3246e+02 ;    C11 - O11    - C1    
 12196  12195  12197      1    1.2333e+02    6.3538e+02 ;    O12 - C11    - O11   
 12197  12198  12199      1    1.0882e+02    4.2543e+02 ;    O11 - C1     - HR    
 12197  12198  12200      1    1.0882e+02    4.2543e+02 ;    O11 - C1     - HS    
 12197  12198  12201      1    1.0842e+02    5.6718e+02 ;    O11 - C1     - C2    
 12198  12201  12202      1    1.1007e+02    3.8794e+02 ;     C1 - C2     - HX    
 12198  12201  12203      1    1.1063e+02    5.2894e+02 ;     C1 - C2     - C3    
 12198  12201  12230      1    1.0842e+02    5.6718e+02 ;     C1 - C2     - O21   
 12199  12198  12200      1    1.0955e+02    3.2786e+02 ;     HR - C1     - HS    
 12199  12198  12201      1    1.1007e+02    3.8794e+02 ;     HR - C1     - C2    
 12200  12198  12201      1    1.1007e+02    3.8794e+02 ;     HS - C1     - C2    
 12201  12203  12204      1    1.1007e+02    3.8794e+02 ;     C2 - C3     - HA    
 12201  12203  12205      1    1.1007e+02    3.8794e+02 ;     C2 - C3     - HB    
 12201  12203  12206      1    1.0842e+02    5.6718e+02 ;     C2 - C3     - O31   
 12201  12230  12231      1    1.1514e+02    5.3246e+02 ;     C2 - O21    - C21   
 12202  12201  12203      1    1.1007e+02    3.8794e+02 ;     HX - C2     - C3    
 12202  12201  12230      1    1.0882e+02    4.2543e+02 ;     HX - C2     - O21   
 12203  12201  12230      1    1.0842e+02    5.6718e+02 ;     C3 - C2     - O21   
 12203  12206  12207      1    1.2050e+02    8.3680e+02 ;     C3 - O31    - P31   
 12204  12203  12205      1    1.0955e+02    3.2786e+02 ;     HA - C3     - HB    
 12204  12203  12206      1    1.0882e+02    4.2543e+02 ;     HA - C3     - O31   
 12205  12203  12206      1    1.0882e+02    4.2543e+02 ;     HB - C3     - O31   
 12206  12207  12208      1    1.0260e+02    7.5312e+02 ;    O31 - P31    - O32   
 12206  12207  12228      1    1.0823e+02    8.3680e+02 ;    O31 - P31    - O33   
 12206  12207  12229      1    1.0823e+02    8.3680e+02 ;    O31 - P31    - O34   
 12207  12208  12209      1    1.2050e+02    8.3680e+02 ;    P31 - O32    - C31   
 12208  12207  12228      1    1.0823e+02    8.3680e+02 ;    O32 - P31    - O33   
 12208  12207  12229      1    1.0823e+02    8.3680e+02 ;    O32 - P31    - O34   
 12208  12209  12210      1    1.0882e+02    4.2543e+02 ;    O32 - C31    - H1A   
 12208  12209  12211      1    1.0882e+02    4.2543e+02 ;    O32 - C31    - H1B   
 12208  12209  12212      1    1.0842e+02    5.6718e+02 ;    O32 - C31    - C32   
 12209  12212  12213      1    1.1174e+02    3.8510e+02 ;    C31 - C32    - H2A   
 12209  12212  12214      1    1.1174e+02    3.8510e+02 ;    C31 - C32    - H2B   
 12209  12212  12215      1    1.1432e+02    5.3932e+02 ;    C31 - C32    - N31   
 12210  12209  12211      1    1.0955e+02    3.2786e+02 ;    H1A - C31    - H1B   
 12210  12209  12212      1    1.1007e+02    3.8794e+02 ;    H1A - C31    - C32   
 12211  12209  12212      1    1.1007e+02    3.8794e+02 ;    H1B - C31    - C32   
 12212  12215  12216      1    1.1064e+02    5.2585e+02 ;    C32 - N31    - C33   
 12212  12215  12220      1    1.1064e+02    5.2585e+02 ;    C32 - N31    - C34   
 12212  12215  12224      1    1.1064e+02    5.2585e+02 ;    C32 - N31    - C35   
 12213  12212  12214      1    1.1074e+02    3.2669e+02 ;    H2A - C32    - H2B   
 12213  12212  12215      1    1.0791e+02    4.1020e+02 ;    H2A - C32    - N31   
 12214  12212  12215      1    1.0791e+02    4.1020e+02 ;    H2B - C32    - N31   
 12215  12216  12217      1    1.0791e+02    4.1020e+02 ;    N31 - C33    - H3A   
 12215  12216  12218      1    1.0791e+02    4.1020e+02 ;    N31 - C33    - H3B   
 12215  12216  12219      1    1.0791e+02    4.1020e+02 ;    N31 - C33    - H3C   
 12215  12220  12221      1    1.0791e+02    4.1020e+02 ;    N31 - C34    - H4A   
 12215  12220  12222      1    1.0791e+02    4.1020e+02 ;    N31 - C34    - H4B   
 12215  12220  12223      1    1.0791e+02    4.1020e+02 ;    N31 - C34    - H4C   
 12215  12224  12225      1    1.0791e+02    4.1020e+02 ;    N31 - C35    - H5A   
 12215  12224  12226      1    1.0791e+02    4.1020e+02 ;    N31 - C35    - H5B   
 12215  12224  12227      1    1.0791e+02    4.1020e+02 ;    N31 - C35    - H5C   
 12216  12215  12220      1    1.1064e+02    5.2585e+02 ;    C33 - N31    - C34   
 12216  12215  12224      1    1.1064e+02    5.2585e+02 ;    C33 - N31    - C35   
 12217  12216  12218      1    1.1074e+02    3.2669e+02 ;    H3A - C33    - H3B   
 12217  12216  12219      1    1.1074e+02    3.2669e+02 ;    H3A - C33    - H3C   
 12218  12216  12219      1    1.1074e+02    3.2669e+02 ;    H3B - C33    - H3C   
 12220  12215  12224      1    1.1064e+02    5.2585e+02 ;    C34 - N31    - C35   
 12221  12220  12222      1    1.1074e+02    3.2669e+02 ;    H4A - C34    - H4B   
 12221  12220  12223      1    1.1074e+02    3.2669e+02 ;    H4A - C34    - H4C   
 12222  12220  12223      1    1.1074e+02    3.2669e+02 ;    H4B - C34    - H4C   
 12225  12224  12226      1    1.1074e+02    3.2669e+02 ;    H5A - C35    - H5B   
 12225  12224  12227      1    1.1074e+02    3.2669e+02 ;    H5A - C35    - H5C   
 12226  12224  12227      1    1.1074e+02    3.2669e+02 ;    H5B - C35    - H5C   
 12228  12207  12229      1    1.1990e+02    1.1715e+03 ;    O33 - P31    - O34   
 12230  12231  12232      1    1.2333e+02    6.3538e+02 ;    O21 - C21    - O22   
 12230  12231  12270      1    1.1196e+02    5.7957e+02 ;    O21 - C21    - C12   
 12231  12270  12267      1    1.1053e+02    5.3379e+02 ;    C21 - C12    - C13   
 12231  12270  12271      1    1.0968e+02    3.9497e+02 ;    C21 - C12    - H2R   
 12231  12270  12272      1    1.0968e+02    3.9497e+02 ;    C21 - C12    - H2S   
 12232  12231  12270      1    1.2311e+02    5.6928e+02 ;    O22 - C21    - C12   
 12233  12234  12235      1    1.0835e+02    3.2995e+02 ;   H14T - C114   - H14R  
 12233  12234  12236      1    1.0835e+02    3.2995e+02 ;   H14T - C114   - H14S  
 12233  12234  12237      1    1.1005e+02    3.8802e+02 ;   H14T - C114   - C113  
 12234  12237  12238      1    1.1005e+02    3.8802e+02 ;   C114 - C113   - H13R  
 12234  12237  12239      1    1.1005e+02    3.8802e+02 ;   C114 - C113   - H13S  
 12234  12237  12240      1    1.1205e+02    3.9497e+02 ;   C114 - C113   - C112  
 12235  12234  12236      1    1.0835e+02    3.2995e+02 ;   H14R - C114   - H14S  
 12235  12234  12237      1    1.1005e+02    3.8802e+02 ;   H14R - C114   - C113  
 12236  12234  12237      1    1.1005e+02    3.8802e+02 ;   H14S - C114   - C113  
 12237  12240  12241      1    1.1005e+02    3.8802e+02 ;   C113 - C112   - H12R  
 12237  12240  12242      1    1.1005e+02    3.8802e+02 ;   C113 - C112   - H12S  
 12237  12240  12243      1    1.1205e+02    3.9497e+02 ;   C113 - C112   - C111  
 12238  12237  12239      1    1.0835e+02    3.2995e+02 ;   H13R - C113   - H13S  
 12238  12237  12240      1    1.1005e+02    3.8802e+02 ;   H13R - C113   - C112  
 12239  12237  12240      1    1.1005e+02    3.8802e+02 ;   H13S - C113   - C112  
 12240  12243  12244      1    1.1005e+02    3.8802e+02 ;   C112 - C111   - H11R  
 12240  12243  12245      1    1.1005e+02    3.8802e+02 ;   C112 - C111   - H11S  
 12240  12243  12246      1    1.1205e+02    3.9497e+02 ;   C112 - C111   - C110  
 12241  12240  12242      1    1.0835e+02    3.2995e+02 ;   H12R - C112   - H12S  
 12241  12240  12243      1    1.1005e+02    3.8802e+02 ;   H12R - C112   - C111  
 12242  12240  12243      1    1.1005e+02    3.8802e+02 ;   H12S - C112   - C111  
 12243  12246  12247      1    1.1005e+02    3.8802e+02 ;   C111 - C110   - H10R  
 12243  12246  12248      1    1.1005e+02    3.8802e+02 ;   C111 - C110   - H10S  
 12243  12246  12249      1    1.1205e+02    3.9497e+02 ;   C111 - C110   - C19   
 12244  12243  12245      1    1.0835e+02    3.2995e+02 ;   H11R - C111   - H11S  
 12244  12243  12246      1    1.1005e+02    3.8802e+02 ;   H11R - C111   - C110  
 12245  12243  12246      1    1.1005e+02    3.8802e+02 ;   H11S - C111   - C110  
 12246  12249  12250      1    1.1005e+02    3.8802e+02 ;   C110 - C19    - H9R   
 12246  12249  12251      1    1.1005e+02    3.8802e+02 ;   C110 - C19    - H9S   
 12246  12249  12252      1    1.1205e+02    3.9497e+02 ;   C110 - C19    - C18   
 12247  12246  12248      1    1.0835e+02    3.2995e+02 ;   H10R - C110   - H10S  
 12247  12246  12249      1    1.1005e+02    3.8802e+02 ;   H10R - C110   - C19   
 12248  12246  12249      1    1.1005e+02    3.8802e+02 ;   H10S - C110   - C19   
 12249  12252  12253      1    1.1005e+02    3.8802e+02 ;    C19 - C18    - H8R   
 12249  12252  12254      1    1.1005e+02    3.8802e+02 ;    C19 - C18    - H8S   
 12249  12252  12255      1    1.1205e+02    3.9497e+02 ;    C19 - C18    - C17   
 12250  12249  12251      1    1.0835e+02    3.2995e+02 ;    H9R - C19    - H9S   
 12250  12249  12252      1    1.1005e+02    3.8802e+02 ;    H9R - C19    - C18   
 12251  12249  12252      1    1.1005e+02    3.8802e+02 ;    H9S - C19    - C18   
 12252  12255  12256      1    1.1005e+02    3.8802e+02 ;    C18 - C17    - H7R   
 12252  12255  12257      1    1.1005e+02    3.8802e+02 ;    C18 - C17    - H7S   
 12252  12255  12258      1    1.1205e+02    3.9497e+02 ;    C18 - C17    - C16   
 12253  12252  12254      1    1.0835e+02    3.2995e+02 ;    H8R - C18    - H8S   
 12253  12252  12255      1    1.1005e+02    3.8802e+02 ;    H8R - C18    - C17   
 12254  12252  12255      1    1.1005e+02    3.8802e+02 ;    H8S - C18    - C17   
 12255  12258  12259      1    1.1005e+02    3.8802e+02 ;    C17 - C16    - H6R   
 12255  12258  12260      1    1.1005e+02    3.8802e+02 ;    C17 - C16    - H6S   
 12255  12258  12261      1    1.1205e+02    3.9497e+02 ;    C17 - C16    - C15   
 12256  12255  12257      1    1.0835e+02    3.2995e+02 ;    H7R - C17    - H7S   
 12256  12255  12258      1    1.1005e+02    3.8802e+02 ;    H7R - C17    - C16   
 12257  12255  12258      1    1.1005e+02    3.8802e+02 ;    H7S - C17    - C16   
 12258  12261  12262      1    1.1005e+02    3.8802e+02 ;    C16 - C15    - H5R   
 12258  12261  12263      1    1.1005e+02    3.8802e+02 ;    C16 - C15    - H5S   
 12258  12261  12264      1    1.1205e+02    3.9497e+02 ;    C16 - C15    - C14   
 12259  12258  12260      1    1.0835e+02    3.2995e+02 ;    H6R - C16    - H6S   
 12259  12258  12261      1    1.1005e+02    3.8802e+02 ;    H6R - C16    - C15   
 12260  12258  12261      1    1.1005e+02    3.8802e+02 ;    H6S - C16    - C15   
 12261  12264  12265      1    1.1005e+02    3.8802e+02 ;    C15 - C14    - H4R   
 12261  12264  12266      1    1.1005e+02    3.8802e+02 ;    C15 - C14    - H4S   
 12261  12264  12267      1    1.1205e+02    3.9497e+02 ;    C15 - C14    - C13   
 12262  12261  12263      1    1.0835e+02    3.2995e+02 ;    H5R - C15    - H5S   
 12262  12261  12264      1    1.1005e+02    3.8802e+02 ;    H5R - C15    - C14   
 12263  12261  12264      1    1.1005e+02    3.8802e+02 ;    H5S - C15    - C14   
 12264  12267  12268      1    1.1005e+02    3.8802e+02 ;    C14 - C13    - H3R   
 12264  12267  12269      1    1.1005e+02    3.8802e+02 ;    C14 - C13    - H3S   
 12264  12267  12270      1    1.1205e+02    3.9497e+02 ;    C14 - C13    - C12   
 12265  12264  12266      1    1.0835e+02    3.2995e+02 ;    H4R - C14    - H4S   
 12265  12264  12267      1    1.1005e+02    3.8802e+02 ;    H4R - C14    - C13   
 12266  12264  12267      1    1.1005e+02    3.8802e+02 ;    H4S - C14    - C13   
 12267  12270  12271      1    1.1005e+02    3.8802e+02 ;    C13 - C12    - H2R   
 12267  12270  12272      1    1.1005e+02    3.8802e+02 ;    C13 - C12    - H2S   
 12268  12267  12269      1    1.0835e+02    3.2995e+02 ;    H3R - C13    - H3S   
 12268  12267  12270      1    1.1005e+02    3.8802e+02 ;    H3R - C13    - C12   
 12269  12267  12270      1    1.1005e+02    3.8802e+02 ;    H3S - C13    - C12   
 12271  12270  12272      1    1.0835e+02    3.2995e+02 ;    H2R - C12    - H2S   
 12273  12274  12275      1    1.0835e+02    3.2995e+02 ;   H14T - C114   - H14R  
 12273  12274  12276      1    1.0835e+02    3.2995e+02 ;   H14T - C114   - H14S  
 12273  12274  12277      1    1.1005e+02    3.8802e+02 ;   H14T - C114   - C113  
 12274  12277  12278      1    1.1005e+02    3.8802e+02 ;   C114 - C113   - H13R  
 12274  12277  12279      1    1.1005e+02    3.8802e+02 ;   C114 - C113   - H13S  
 12274  12277  12280      1    1.1205e+02    3.9497e+02 ;   C114 - C113   - C112  
 12275  12274  12276      1    1.0835e+02    3.2995e+02 ;   H14R - C114   - H14S  
 12275  12274  12277      1    1.1005e+02    3.8802e+02 ;   H14R - C114   - C113  
 12276  12274  12277      1    1.1005e+02    3.8802e+02 ;   H14S - C114   - C113  
 12277  12280  12281      1    1.1005e+02    3.8802e+02 ;   C113 - C112   - H12R  
 12277  12280  12282      1    1.1005e+02    3.8802e+02 ;   C113 - C112   - H12S  
 12277  12280  12283      1    1.1205e+02    3.9497e+02 ;   C113 - C112   - C111  
 12278  12277  12279      1    1.0835e+02    3.2995e+02 ;   H13R - C113   - H13S  
 12278  12277  12280      1    1.1005e+02    3.8802e+02 ;   H13R - C113   - C112  
 12279  12277  12280      1    1.1005e+02    3.8802e+02 ;   H13S - C113   - C112  
 12280  12283  12284      1    1.1005e+02    3.8802e+02 ;   C112 - C111   - H11R  
 12280  12283  12285      1    1.1005e+02    3.8802e+02 ;   C112 - C111   - H11S  
 12280  12283  12286      1    1.1205e+02    3.9497e+02 ;   C112 - C111   - C110  
 12281  12280  12282      1    1.0835e+02    3.2995e+02 ;   H12R - C112   - H12S  
 12281  12280  12283      1    1.1005e+02    3.8802e+02 ;   H12R - C112   - C111  
 12282  12280  12283      1    1.1005e+02    3.8802e+02 ;   H12S - C112   - C111  
 12283  12286  12287      1    1.1005e+02    3.8802e+02 ;   C111 - C110   - H10R  
 12283  12286  12288      1    1.1005e+02    3.8802e+02 ;   C111 - C110   - H10S  
 12283  12286  12289      1    1.1205e+02    3.9497e+02 ;   C111 - C110   - C19   
 12284  12283  12285      1    1.0835e+02    3.2995e+02 ;   H11R - C111   - H11S  
 12284  12283  12286      1    1.1005e+02    3.8802e+02 ;   H11R - C111   - C110  
 12285  12283  12286      1    1.1005e+02    3.8802e+02 ;   H11S - C111   - C110  
 12286  12289  12290      1    1.1005e+02    3.8802e+02 ;   C110 - C19    - H9R   
 12286  12289  12291      1    1.1005e+02    3.8802e+02 ;   C110 - C19    - H9S   
 12286  12289  12292      1    1.1205e+02    3.9497e+02 ;   C110 - C19    - C18   
 12287  12286  12288      1    1.0835e+02    3.2995e+02 ;   H10R - C110   - H10S  
 12287  12286  12289      1    1.1005e+02    3.8802e+02 ;   H10R - C110   - C19   
 12288  12286  12289      1    1.1005e+02    3.8802e+02 ;   H10S - C110   - C19   
 12289  12292  12293      1    1.1005e+02    3.8802e+02 ;    C19 - C18    - H8R   
 12289  12292  12294      1    1.1005e+02    3.8802e+02 ;    C19 - C18    - H8S   
 12289  12292  12295      1    1.1205e+02    3.9497e+02 ;    C19 - C18    - C17   
 12290  12289  12291      1    1.0835e+02    3.2995e+02 ;    H9R - C19    - H9S   
 12290  12289  12292      1    1.1005e+02    3.8802e+02 ;    H9R - C19    - C18   
 12291  12289  12292      1    1.1005e+02    3.8802e+02 ;    H9S - C19    - C18   
 12292  12295  12296      1    1.1005e+02    3.8802e+02 ;    C18 - C17    - H7R   
 12292  12295  12297      1    1.1005e+02    3.8802e+02 ;    C18 - C17    - H7S   
 12292  12295  12298      1    1.1205e+02    3.9497e+02 ;    C18 - C17    - C16   
 12293  12292  12294      1    1.0835e+02    3.2995e+02 ;    H8R - C18    - H8S   
 12293  12292  12295      1    1.1005e+02    3.8802e+02 ;    H8R - C18    - C17   
 12294  12292  12295      1    1.1005e+02    3.8802e+02 ;    H8S - C18    - C17   
 12295  12298  12299      1    1.1005e+02    3.8802e+02 ;    C17 - C16    - H6R   
 12295  12298  12300      1    1.1005e+02    3.8802e+02 ;    C17 - C16    - H6S   
 12295  12298  12301      1    1.1205e+02    3.9497e+02 ;    C17 - C16    - C15   
 12296  12295  12297      1    1.0835e+02    3.2995e+02 ;    H7R - C17    - H7S   
 12296  12295  12298      1    1.1005e+02    3.8802e+02 ;    H7R - C17    - C16   
 12297  12295  12298      1    1.1005e+02    3.8802e+02 ;    H7S - C17    - C16   
 12298  12301  12302      1    1.1005e+02    3.8802e+02 ;    C16 - C15    - H5R   
 12298  12301  12303      1    1.1005e+02    3.8802e+02 ;    C16 - C15    - H5S   
 12298  12301  12304      1    1.1205e+02    3.9497e+02 ;    C16 - C15    - C14   
 12299  12298  12300      1    1.0835e+02    3.2995e+02 ;    H6R - C16    - H6S   
 12299  12298  12301      1    1.1005e+02    3.8802e+02 ;    H6R - C16    - C15   
 12300  12298  12301      1    1.1005e+02    3.8802e+02 ;    H6S - C16    - C15   
 12301  12304  12305      1    1.1005e+02    3.8802e+02 ;    C15 - C14    - H4R   
 12301  12304  12306      1    1.1005e+02    3.8802e+02 ;    C15 - C14    - H4S   
 12301  12304  12307      1    1.1205e+02    3.9497e+02 ;    C15 - C14    - C13   
 12302  12301  12303      1    1.0835e+02    3.2995e+02 ;    H5R - C15    - H5S   
 12302  12301  12304      1    1.1005e+02    3.8802e+02 ;    H5R - C15    - C14   
 12303  12301  12304      1    1.1005e+02    3.8802e+02 ;    H5S - C15    - C14   
 12304  12307  12308      1    1.1005e+02    3.8802e+02 ;    C14 - C13    - H3R   
 12304  12307  12309      1    1.1005e+02    3.8802e+02 ;    C14 - C13    - H3S   
 12304  12307  12310      1    1.1205e+02    3.9497e+02 ;    C14 - C13    - C12   
 12305  12304  12306      1    1.0835e+02    3.2995e+02 ;    H4R - C14    - H4S   
 12305  12304  12307      1    1.1005e+02    3.8802e+02 ;    H4R - C14    - C13   
 12306  12304  12307      1    1.1005e+02    3.8802e+02 ;    H4S - C14    - C13   
 12307  12310  12311      1    1.1005e+02    3.8802e+02 ;    C13 - C12    - H2R   
 12307  12310  12312      1    1.1005e+02    3.8802e+02 ;    C13 - C12    - H2S   
 12307  12310  12313      1    1.1053e+02    5.3379e+02 ;    C13 - C12    - C11   
 12308  12307  12309      1    1.0835e+02    3.2995e+02 ;    H3R - C13    - H3S   
 12308  12307  12310      1    1.1005e+02    3.8802e+02 ;    H3R - C13    - C12   
 12309  12307  12310      1    1.1005e+02    3.8802e+02 ;    H3S - C13    - C12   
 12310  12313  12314      1    1.2311e+02    5.6928e+02 ;    C12 - C11    - O12   
 12310  12313  12315      1    1.1196e+02    5.7957e+02 ;    C12 - C11    - O11   
 12311  12310  12312      1    1.0835e+02    3.2995e+02 ;    H2R - C12    - H2S   
 12311  12310  12313      1    1.0968e+02    3.9497e+02 ;    H2R - C12    - C11   
 12312  12310  12313      1    1.0968e+02    3.9497e+02 ;    H2S - C12    - C11   
 12313  12315  12316      1    1.1514e+02    5.3246e+02 ;    C11 - O11    - C1    
 12314  12313  12315      1    1.2333e+02    6.3538e+02 ;    O12 - C11    - O11   
 12315  12316  12317      1    1.0882e+02    4.2543e+02 ;    O11 - C1     - HR    
 12315  12316  12318      1    1.0882e+02    4.2543e+02 ;    O11 - C1     - HS    
 12315  12316  12319      1    1.0842e+02    5.6718e+02 ;    O11 - C1     - C2    
 12316  12319  12320      1    1.1007e+02    3.8794e+02 ;     C1 - C2     - HX    
 12316  12319  12321      1    1.1063e+02    5.2894e+02 ;     C1 - C2     - C3    
 12316  12319  12348      1    1.0842e+02    5.6718e+02 ;     C1 - C2     - O21   
 12317  12316  12318      1    1.0955e+02    3.2786e+02 ;     HR - C1     - HS    
 12317  12316  12319      1    1.1007e+02    3.8794e+02 ;     HR - C1     - C2    
 12318  12316  12319      1    1.1007e+02    3.8794e+02 ;     HS - C1     - C2    
 12319  12321  12322      1    1.1007e+02    3.8794e+02 ;     C2 - C3     - HA    
 12319  12321  12323      1    1.1007e+02    3.8794e+02 ;     C2 - C3     - HB    
 12319  12321  12324      1    1.0842e+02    5.6718e+02 ;     C2 - C3     - O31   
 12319  12348  12349      1    1.1514e+02    5.3246e+02 ;     C2 - O21    - C21   
 12320  12319  12321      1    1.1007e+02    3.8794e+02 ;     HX - C2     - C3    
 12320  12319  12348      1    1.0882e+02    4.2543e+02 ;     HX - C2     - O21   
 12321  12319  12348      1    1.0842e+02    5.6718e+02 ;     C3 - C2     - O21   
 12321  12324  12325      1    1.2050e+02    8.3680e+02 ;     C3 - O31    - P31   
 12322  12321  12323      1    1.0955e+02    3.2786e+02 ;     HA - C3     - HB    
 12322  12321  12324      1    1.0882e+02    4.2543e+02 ;     HA - C3     - O31   
 12323  12321  12324      1    1.0882e+02    4.2543e+02 ;     HB - C3     - O31   
 12324  12325  12326      1    1.0260e+02    7.5312e+02 ;    O31 - P31    - O32   
 12324  12325  12346      1    1.0823e+02    8.3680e+02 ;    O31 - P31    - O33   
 12324  12325  12347      1    1.0823e+02    8.3680e+02 ;    O31 - P31    - O34   
 12325  12326  12327      1    1.2050e+02    8.3680e+02 ;    P31 - O32    - C31   
 12326  12325  12346      1    1.0823e+02    8.3680e+02 ;    O32 - P31    - O33   
 12326  12325  12347      1    1.0823e+02    8.3680e+02 ;    O32 - P31    - O34   
 12326  12327  12328      1    1.0882e+02    4.2543e+02 ;    O32 - C31    - H1A   
 12326  12327  12329      1    1.0882e+02    4.2543e+02 ;    O32 - C31    - H1B   
 12326  12327  12330      1    1.0842e+02    5.6718e+02 ;    O32 - C31    - C32   
 12327  12330  12331      1    1.1174e+02    3.8510e+02 ;    C31 - C32    - H2A   
 12327  12330  12332      1    1.1174e+02    3.8510e+02 ;    C31 - C32    - H2B   
 12327  12330  12333      1    1.1432e+02    5.3932e+02 ;    C31 - C32    - N31   
 12328  12327  12329      1    1.0955e+02    3.2786e+02 ;    H1A - C31    - H1B   
 12328  12327  12330      1    1.1007e+02    3.8794e+02 ;    H1A - C31    - C32   
 12329  12327  12330      1    1.1007e+02    3.8794e+02 ;    H1B - C31    - C32   
 12330  12333  12334      1    1.1064e+02    5.2585e+02 ;    C32 - N31    - C33   
 12330  12333  12338      1    1.1064e+02    5.2585e+02 ;    C32 - N31    - C34   
 12330  12333  12342      1    1.1064e+02    5.2585e+02 ;    C32 - N31    - C35   
 12331  12330  12332      1    1.1074e+02    3.2669e+02 ;    H2A - C32    - H2B   
 12331  12330  12333      1    1.0791e+02    4.1020e+02 ;    H2A - C32    - N31   
 12332  12330  12333      1    1.0791e+02    4.1020e+02 ;    H2B - C32    - N31   
 12333  12334  12335      1    1.0791e+02    4.1020e+02 ;    N31 - C33    - H3A   
 12333  12334  12336      1    1.0791e+02    4.1020e+02 ;    N31 - C33    - H3B   
 12333  12334  12337      1    1.0791e+02    4.1020e+02 ;    N31 - C33    - H3C   
 12333  12338  12339      1    1.0791e+02    4.1020e+02 ;    N31 - C34    - H4A   
 12333  12338  12340      1    1.0791e+02    4.1020e+02 ;    N31 - C34    - H4B   
 12333  12338  12341      1    1.0791e+02    4.1020e+02 ;    N31 - C34    - H4C   
 12333  12342  12343      1    1.0791e+02    4.1020e+02 ;    N31 - C35    - H5A   
 12333  12342  12344      1    1.0791e+02    4.1020e+02 ;    N31 - C35    - H5B   
 12333  12342  12345      1    1.0791e+02    4.1020e+02 ;    N31 - C35    - H5C   
 12334  12333  12338      1    1.1064e+02    5.2585e+02 ;    C33 - N31    - C34   
 12334  12333  12342      1    1.1064e+02    5.2585e+02 ;    C33 - N31    - C35   
 12335  12334  12336      1    1.1074e+02    3.2669e+02 ;    H3A - C33    - H3B   
 12335  12334  12337      1    1.1074e+02    3.2669e+02 ;    H3A - C33    - H3C   
 12336  12334  12337      1    1.1074e+02    3.2669e+02 ;    H3B - C33    - H3C   
 12338  12333  12342      1    1.1064e+02    5.2585e+02 ;    C34 - N31    - C35   
 12339  12338  12340      1    1.1074e+02    3.2669e+02 ;    H4A - C34    - H4B   
 12339  12338  12341      1    1.1074e+02    3.2669e+02 ;    H4A - C34    - H4C   
 12340  12338  12341      1    1.1074e+02    3.2669e+02 ;    H4B - C34    - H4C   
 12343  12342  12344      1    1.1074e+02    3.2669e+02 ;    H5A - C35    - H5B   
 12343  12342  12345      1    1.1074e+02    3.2669e+02 ;    H5A - C35    - H5C   
 12344  12342  12345      1    1.1074e+02    3.2669e+02 ;    H5B - C35    - H5C   
 12346  12325  12347      1    1.1990e+02    1.1715e+03 ;    O33 - P31    - O34   
 12348  12349  12350      1    1.2333e+02    6.3538e+02 ;    O21 - C21    - O22   
 12348  12349  12388      1    1.1196e+02    5.7957e+02 ;    O21 - C21    - C12   
 12349  12388  12385      1    1.1053e+02    5.3379e+02 ;    C21 - C12    - C13   
 12349  12388  12389      1    1.0968e+02    3.9497e+02 ;    C21 - C12    - H2R   
 12349  12388  12390      1    1.0968e+02    3.9497e+02 ;    C21 - C12    - H2S   
 12350  12349  12388      1    1.2311e+02    5.6928e+02 ;    O22 - C21    - C12   
 12351  12352  12353      1    1.0835e+02    3.2995e+02 ;   H14T - C114   - H14R  
 12351  12352  12354      1    1.0835e+02    3.2995e+02 ;   H14T - C114   - H14S  
 12351  12352  12355      1    1.1005e+02    3.8802e+02 ;   H14T - C114   - C113  
 12352  12355  12356      1    1.1005e+02    3.8802e+02 ;   C114 - C113   - H13R  
 12352  12355  12357      1    1.1005e+02    3.8802e+02 ;   C114 - C113   - H13S  
 12352  12355  12358      1    1.1205e+02    3.9497e+02 ;   C114 - C113   - C112  
 12353  12352  12354      1    1.0835e+02    3.2995e+02 ;   H14R - C114   - H14S  
 12353  12352  12355      1    1.1005e+02    3.8802e+02 ;   H14R - C114   - C113  
 12354  12352  12355      1    1.1005e+02    3.8802e+02 ;   H14S - C114   - C113  
 12355  12358  12359      1    1.1005e+02    3.8802e+02 ;   C113 - C112   - H12R  
 12355  12358  12360      1    1.1005e+02    3.8802e+02 ;   C113 - C112   - H12S  
 12355  12358  12361      1    1.1205e+02    3.9497e+02 ;   C113 - C112   - C111  
 12356  12355  12357      1    1.0835e+02    3.2995e+02 ;   H13R - C113   - H13S  
 12356  12355  12358      1    1.1005e+02    3.8802e+02 ;   H13R - C113   - C112  
 12357  12355  12358      1    1.1005e+02    3.8802e+02 ;   H13S - C113   - C112  
 12358  12361  12362      1    1.1005e+02    3.8802e+02 ;   C112 - C111   - H11R  
 12358  12361  12363      1    1.1005e+02    3.8802e+02 ;   C112 - C111   - H11S  
 12358  12361  12364      1    1.1205e+02    3.9497e+02 ;   C112 - C111   - C110  
 12359  12358  12360      1    1.0835e+02    3.2995e+02 ;   H12R - C112   - H12S  
 12359  12358  12361      1    1.1005e+02    3.8802e+02 ;   H12R - C112   - C111  
 12360  12358  12361      1    1.1005e+02    3.8802e+02 ;   H12S - C112   - C111  
 12361  12364  12365      1    1.1005e+02    3.8802e+02 ;   C111 - C110   - H10R  
 12361  12364  12366      1    1.1005e+02    3.8802e+02 ;   C111 - C110   - H10S  
 12361  12364  12367      1    1.1205e+02    3.9497e+02 ;   C111 - C110   - C19   
 12362  12361  12363      1    1.0835e+02    3.2995e+02 ;   H11R - C111   - H11S  
 12362  12361  12364      1    1.1005e+02    3.8802e+02 ;   H11R - C111   - C110  
 12363  12361  12364      1    1.1005e+02    3.8802e+02 ;   H11S - C111   - C110  
 12364  12367  12368      1    1.1005e+02    3.8802e+02 ;   C110 - C19    - H9R   
 12364  12367  12369      1    1.1005e+02    3.8802e+02 ;   C110 - C19    - H9S   
 12364  12367  12370      1    1.1205e+02    3.9497e+02 ;   C110 - C19    - C18   
 12365  12364  12366      1    1.0835e+02    3.2995e+02 ;   H10R - C110   - H10S  
 12365  12364  12367      1    1.1005e+02    3.8802e+02 ;   H10R - C110   - C19   
 12366  12364  12367      1    1.1005e+02    3.8802e+02 ;   H10S - C110   - C19   
 12367  12370  12371      1    1.1005e+02    3.8802e+02 ;    C19 - C18    - H8R   
 12367  12370  12372      1    1.1005e+02    3.8802e+02 ;    C19 - C18    - H8S   
 12367  12370  12373      1    1.1205e+02    3.9497e+02 ;    C19 - C18    - C17   
 12368  12367  12369      1    1.0835e+02    3.2995e+02 ;    H9R - C19    - H9S   
 12368  12367  12370      1    1.1005e+02    3.8802e+02 ;    H9R - C19    - C18   
 12369  12367  12370      1    1.1005e+02    3.8802e+02 ;    H9S - C19    - C18   
 12370  12373  12374      1    1.1005e+02    3.8802e+02 ;    C18 - C17    - H7R   
 12370  12373  12375      1    1.1005e+02    3.8802e+02 ;    C18 - C17    - H7S   
 12370  12373  12376      1    1.1205e+02    3.9497e+02 ;    C18 - C17    - C16   
 12371  12370  12372      1    1.0835e+02    3.2995e+02 ;    H8R - C18    - H8S   
 12371  12370  12373      1    1.1005e+02    3.8802e+02 ;    H8R - C18    - C17   
 12372  12370  12373      1    1.1005e+02    3.8802e+02 ;    H8S - C18    - C17   
 12373  12376  12377      1    1.1005e+02    3.8802e+02 ;    C17 - C16    - H6R   
 12373  12376  12378      1    1.1005e+02    3.8802e+02 ;    C17 - C16    - H6S   
 12373  12376  12379      1    1.1205e+02    3.9497e+02 ;    C17 - C16    - C15   
 12374  12373  12375      1    1.0835e+02    3.2995e+02 ;    H7R - C17    - H7S   
 12374  12373  12376      1    1.1005e+02    3.8802e+02 ;    H7R - C17    - C16   
 12375  12373  12376      1    1.1005e+02    3.8802e+02 ;    H7S - C17    - C16   
 12376  12379  12380      1    1.1005e+02    3.8802e+02 ;    C16 - C15    - H5R   
 12376  12379  12381      1    1.1005e+02    3.8802e+02 ;    C16 - C15    - H5S   
 12376  12379  12382      1    1.1205e+02    3.9497e+02 ;    C16 - C15    - C14   
 12377  12376  12378      1    1.0835e+02    3.2995e+02 ;    H6R - C16    - H6S   
 12377  12376  12379      1    1.1005e+02    3.8802e+02 ;    H6R - C16    - C15   
 12378  12376  12379      1    1.1005e+02    3.8802e+02 ;    H6S - C16    - C15   
 12379  12382  12383      1    1.1005e+02    3.8802e+02 ;    C15 - C14    - H4R   
 12379  12382  12384      1    1.1005e+02    3.8802e+02 ;    C15 - C14    - H4S   
 12379  12382  12385      1    1.1205e+02    3.9497e+02 ;    C15 - C14    - C13   
 12380  12379  12381      1    1.0835e+02    3.2995e+02 ;    H5R - C15    - H5S   
 12380  12379  12382      1    1.1005e+02    3.8802e+02 ;    H5R - C15    - C14   
 12381  12379  12382      1    1.1005e+02    3.8802e+02 ;    H5S - C15    - C14   
 12382  12385  12386      1    1.1005e+02    3.8802e+02 ;    C14 - C13    - H3R   
 12382  12385  12387      1    1.1005e+02    3.8802e+02 ;    C14 - C13    - H3S   
 12382  12385  12388      1    1.1205e+02    3.9497e+02 ;    C14 - C13    - C12   
 12383  12382  12384      1    1.0835e+02    3.2995e+02 ;    H4R - C14    - H4S   
 12383  12382  12385      1    1.1005e+02    3.8802e+02 ;    H4R - C14    - C13   
 12384  12382  12385      1    1.1005e+02    3.8802e+02 ;    H4S - C14    - C13   
 12385  12388  12389      1    1.1005e+02    3.8802e+02 ;    C13 - C12    - H2R   
 12385  12388  12390      1    1.1005e+02    3.8802e+02 ;    C13 - C12    - H2S   
 12386  12385  12387      1    1.0835e+02    3.2995e+02 ;    H3R - C13    - H3S   
 12386  12385  12388      1    1.1005e+02    3.8802e+02 ;    H3R - C13    - C12   
 12387  12385  12388      1    1.1005e+02    3.8802e+02 ;    H3S - C13    - C12   
 12389  12388  12390      1    1.0835e+02    3.2995e+02 ;    H2R - C12    - H2S   
 12391  12392  12393      1    1.0835e+02    3.2995e+02 ;   H14T - C114   - H14R  
 12391  12392  12394      1    1.0835e+02    3.2995e+02 ;   H14T - C114   - H14S  
 12391  12392  12395      1    1.1005e+02    3.8802e+02 ;   H14T - C114   - C113  
 12392  12395  12396      1    1.1005e+02    3.8802e+02 ;   C114 - C113   - H13R  
 12392  12395  12397      1    1.1005e+02    3.8802e+02 ;   C114 - C113   - H13S  
 12392  12395  12398      1    1.1205e+02    3.9497e+02 ;   C114 - C113   - C112  
 12393  12392  12394      1    1.0835e+02    3.2995e+02 ;   H14R - C114   - H14S  
 12393  12392  12395      1    1.1005e+02    3.8802e+02 ;   H14R - C114   - C113  
 12394  12392  12395      1    1.1005e+02    3.8802e+02 ;   H14S - C114   - C113  
 12395  12398  12399      1    1.1005e+02    3.8802e+02 ;   C113 - C112   - H12R  
 12395  12398  12400      1    1.1005e+02    3.8802e+02 ;   C113 - C112   - H12S  
 12395  12398  12401      1    1.1205e+02    3.9497e+02 ;   C113 - C112   - C111  
 12396  12395  12397      1    1.0835e+02    3.2995e+02 ;   H13R - C113   - H13S  
 12396  12395  12398      1    1.1005e+02    3.8802e+02 ;   H13R - C113   - C112  
 12397  12395  12398      1    1.1005e+02    3.8802e+02 ;   H13S - C113   - C112  
 12398  12401  12402      1    1.1005e+02    3.8802e+02 ;   C112 - C111   - H11R  
 12398  12401  12403      1    1.1005e+02    3.8802e+02 ;   C112 - C111   - H11S  
 12398  12401  12404      1    1.1205e+02    3.9497e+02 ;   C112 - C111   - C110  
 12399  12398  12400      1    1.0835e+02    3.2995e+02 ;   H12R - C112   - H12S  
 12399  12398  12401      1    1.1005e+02    3.8802e+02 ;   H12R - C112   - C111  
 12400  12398  12401      1    1.1005e+02    3.8802e+02 ;   H12S - C112   - C111  
 12401  12404  12405      1    1.1005e+02    3.8802e+02 ;   C111 - C110   - H10R  
 12401  12404  12406      1    1.1005e+02    3.8802e+02 ;   C111 - C110   - H10S  
 12401  12404  12407      1    1.1205e+02    3.9497e+02 ;   C111 - C110   - C19   
 12402  12401  12403      1    1.0835e+02    3.2995e+02 ;   H11R - C111   - H11S  
 12402  12401  12404      1    1.1005e+02    3.8802e+02 ;   H11R - C111   - C110  
 12403  12401  12404      1    1.1005e+02    3.8802e+02 ;   H11S - C111   - C110  
 12404  12407  12408      1    1.1005e+02    3.8802e+02 ;   C110 - C19    - H9R   
 12404  12407  12409      1    1.1005e+02    3.8802e+02 ;   C110 - C19    - H9S   
 12404  12407  12410      1    1.1205e+02    3.9497e+02 ;   C110 - C19    - C18   
 12405  12404  12406      1    1.0835e+02    3.2995e+02 ;   H10R - C110   - H10S  
 12405  12404  12407      1    1.1005e+02    3.8802e+02 ;   H10R - C110   - C19   
 12406  12404  12407      1    1.1005e+02    3.8802e+02 ;   H10S - C110   - C19   
 12407  12410  12411      1    1.1005e+02    3.8802e+02 ;    C19 - C18    - H8R   
 12407  12410  12412      1    1.1005e+02    3.8802e+02 ;    C19 - C18    - H8S   
 12407  12410  12413      1    1.1205e+02    3.9497e+02 ;    C19 - C18    - C17   
 12408  12407  12409      1    1.0835e+02    3.2995e+02 ;    H9R - C19    - H9S   
 12408  12407  12410      1    1.1005e+02    3.8802e+02 ;    H9R - C19    - C18   
 12409  12407  12410      1    1.1005e+02    3.8802e+02 ;    H9S - C19    - C18   
 12410  12413  12414      1    1.1005e+02    3.8802e+02 ;    C18 - C17    - H7R   
 12410  12413  12415      1    1.1005e+02    3.8802e+02 ;    C18 - C17    - H7S   
 12410  12413  12416      1    1.1205e+02    3.9497e+02 ;    C18 - C17    - C16   
 12411  12410  12412      1    1.0835e+02    3.2995e+02 ;    H8R - C18    - H8S   
 12411  12410  12413      1    1.1005e+02    3.8802e+02 ;    H8R - C18    - C17   
 12412  12410  12413      1    1.1005e+02    3.8802e+02 ;    H8S - C18    - C17   
 12413  12416  12417      1    1.1005e+02    3.8802e+02 ;    C17 - C16    - H6R   
 12413  12416  12418      1    1.1005e+02    3.8802e+02 ;    C17 - C16    - H6S   
 12413  12416  12419      1    1.1205e+02    3.9497e+02 ;    C17 - C16    - C15   
 12414  12413  12415      1    1.0835e+02    3.2995e+02 ;    H7R - C17    - H7S   
 12414  12413  12416      1    1.1005e+02    3.8802e+02 ;    H7R - C17    - C16   
 12415  12413  12416      1    1.1005e+02    3.8802e+02 ;    H7S - C17    - C16   
 12416  12419  12420      1    1.1005e+02    3.8802e+02 ;    C16 - C15    - H5R   
 12416  12419  12421      1    1.1005e+02    3.8802e+02 ;    C16 - C15    - H5S   
 12416  12419  12422      1    1.1205e+02    3.9497e+02 ;    C16 - C15    - C14   
 12417  12416  12418      1    1.0835e+02    3.2995e+02 ;    H6R - C16    - H6S   
 12417  12416  12419      1    1.1005e+02    3.8802e+02 ;    H6R - C16    - C15   
 12418  12416  12419      1    1.1005e+02    3.8802e+02 ;    H6S - C16    - C15   
 12419  12422  12423      1    1.1005e+02    3.8802e+02 ;    C15 - C14    - H4R   
 12419  12422  12424      1    1.1005e+02    3.8802e+02 ;    C15 - C14    - H4S   
 12419  12422  12425      1    1.1205e+02    3.9497e+02 ;    C15 - C14    - C13   
 12420  12419  12421      1    1.0835e+02    3.2995e+02 ;    H5R - C15    - H5S   
 12420  12419  12422      1    1.1005e+02    3.8802e+02 ;    H5R - C15    - C14   
 12421  12419  12422      1    1.1005e+02    3.8802e+02 ;    H5S - C15    - C14   
 12422  12425  12426      1    1.1005e+02    3.8802e+02 ;    C14 - C13    - H3R   
 12422  12425  12427      1    1.1005e+02    3.8802e+02 ;    C14 - C13    - H3S   
 12422  12425  12428      1    1.1205e+02    3.9497e+02 ;    C14 - C13    - C12   
 12423  12422  12424      1    1.0835e+02    3.2995e+02 ;    H4R - C14    - H4S   
 12423  12422  12425      1    1.1005e+02    3.8802e+02 ;    H4R - C14    - C13   
 12424  12422  12425      1    1.1005e+02    3.8802e+02 ;    H4S - C14    - C13   
 12425  12428  12429      1    1.1005e+02    3.8802e+02 ;    C13 - C12    - H2R   
 12425  12428  12430      1    1.1005e+02    3.8802e+02 ;    C13 - C12    - H2S   
 12425  12428  12431      1    1.1053e+02    5.3379e+02 ;    C13 - C12    - C11   
 12426  12425  12427      1    1.0835e+02    3.2995e+02 ;    H3R - C13    - H3S   
 12426  12425  12428      1    1.1005e+02    3.8802e+02 ;    H3R - C13    - C12   
 12427  12425  12428      1    1.1005e+02    3.8802e+02 ;    H3S - C13    - C12   
 12428  12431  12432      1    1.2311e+02    5.6928e+02 ;    C12 - C11    - O12   
 12428  12431  12433      1    1.1196e+02    5.7957e+02 ;    C12 - C11    - O11   
 12429  12428  12430      1    1.0835e+02    3.2995e+02 ;    H2R - C12    - H2S   
 12429  12428  12431      1    1.0968e+02    3.9497e+02 ;    H2R - C12    - C11   
 12430  12428  12431      1    1.0968e+02    3.9497e+02 ;    H2S - C12    - C11   
 12431  12433  12434      1    1.1514e+02    5.3246e+02 ;    C11 - O11    - C1    
 12432  12431  12433      1    1.2333e+02    6.3538e+02 ;    O12 - C11    - O11   
 12433  12434  12435      1    1.0882e+02    4.2543e+02 ;    O11 - C1     - HR    
 12433  12434  12436      1    1.0882e+02    4.2543e+02 ;    O11 - C1     - HS    
 12433  12434  12437      1    1.0842e+02    5.6718e+02 ;    O11 - C1     - C2    
 12434  12437  12438      1    1.1007e+02    3.8794e+02 ;     C1 - C2     - HX    
 12434  12437  12439      1    1.1063e+02    5.2894e+02 ;     C1 - C2     - C3    
 12434  12437  12466      1    1.0842e+02    5.6718e+02 ;     C1 - C2     - O21   
 12435  12434  12436      1    1.0955e+02    3.2786e+02 ;     HR - C1     - HS    
 12435  12434  12437      1    1.1007e+02    3.8794e+02 ;     HR - C1     - C2    
 12436  12434  12437      1    1.1007e+02    3.8794e+02 ;     HS - C1     - C2    
 12437  12439  12440      1    1.1007e+02    3.8794e+02 ;     C2 - C3     - HA    
 12437  12439  12441      1    1.1007e+02    3.8794e+02 ;     C2 - C3     - HB    
 12437  12439  12442      1    1.0842e+02    5.6718e+02 ;     C2 - C3     - O31   
 12437  12466  12467      1    1.1514e+02    5.3246e+02 ;     C2 - O21    - C21   
 12438  12437  12439      1    1.1007e+02    3.8794e+02 ;     HX - C2     - C3    
 12438  12437  12466      1    1.0882e+02    4.2543e+02 ;     HX - C2     - O21   
 12439  12437  12466      1    1.0842e+02    5.6718e+02 ;     C3 - C2     - O21   
 12439  12442  12443      1    1.2050e+02    8.3680e+02 ;     C3 - O31    - P31   
 12440  12439  12441      1    1.0955e+02    3.2786e+02 ;     HA - C3     - HB    
 12440  12439  12442      1    1.0882e+02    4.2543e+02 ;     HA - C3     - O31   
 12441  12439  12442      1    1.0882e+02    4.2543e+02 ;     HB - C3     - O31   
 12442  12443  12444      1    1.0260e+02    7.5312e+02 ;    O31 - P31    - O32   
 12442  12443  12464      1    1.0823e+02    8.3680e+02 ;    O31 - P31    - O33   
 12442  12443  12465      1    1.0823e+02    8.3680e+02 ;    O31 - P31    - O34   
 12443  12444  12445      1    1.2050e+02    8.3680e+02 ;    P31 - O32    - C31   
 12444  12443  12464      1    1.0823e+02    8.3680e+02 ;    O32 - P31    - O33   
 12444  12443  12465      1    1.0823e+02    8.3680e+02 ;    O32 - P31    - O34   
 12444  12445  12446      1    1.0882e+02    4.2543e+02 ;    O32 - C31    - H1A   
 12444  12445  12447      1    1.0882e+02    4.2543e+02 ;    O32 - C31    - H1B   
 12444  12445  12448      1    1.0842e+02    5.6718e+02 ;    O32 - C31    - C32   
 12445  12448  12449      1    1.1174e+02    3.8510e+02 ;    C31 - C32    - H2A   
 12445  12448  12450      1    1.1174e+02    3.8510e+02 ;    C31 - C32    - H2B   
 12445  12448  12451      1    1.1432e+02    5.3932e+02 ;    C31 - C32    - N31   
 12446  12445  12447      1    1.0955e+02    3.2786e+02 ;    H1A - C31    - H1B   
 12446  12445  12448      1    1.1007e+02    3.8794e+02 ;    H1A - C31    - C32   
 12447  12445  12448      1    1.1007e+02    3.8794e+02 ;    H1B - C31    - C32   
 12448  12451  12452      1    1.1064e+02    5.2585e+02 ;    C32 - N31    - C33   
 12448  12451  12456      1    1.1064e+02    5.2585e+02 ;    C32 - N31    - C34   
 12448  12451  12460      1    1.1064e+02    5.2585e+02 ;    C32 - N31    - C35   
 12449  12448  12450      1    1.1074e+02    3.2669e+02 ;    H2A - C32    - H2B   
 12449  12448  12451      1    1.0791e+02    4.1020e+02 ;    H2A - C32    - N31   
 12450  12448  12451      1    1.0791e+02    4.1020e+02 ;    H2B - C32    - N31   
 12451  12452  12453      1    1.0791e+02    4.1020e+02 ;    N31 - C33    - H3A   
 12451  12452  12454      1    1.0791e+02    4.1020e+02 ;    N31 - C33    - H3B   
 12451  12452  12455      1    1.0791e+02    4.1020e+02 ;    N31 - C33    - H3C   
 12451  12456  12457      1    1.0791e+02    4.1020e+02 ;    N31 - C34    - H4A   
 12451  12456  12458      1    1.0791e+02    4.1020e+02 ;    N31 - C34    - H4B   
 12451  12456  12459      1    1.0791e+02    4.1020e+02 ;    N31 - C34    - H4C   
 12451  12460  12461      1    1.0791e+02    4.1020e+02 ;    N31 - C35    - H5A   
 12451  12460  12462      1    1.0791e+02    4.1020e+02 ;    N31 - C35    - H5B   
 12451  12460  12463      1    1.0791e+02    4.1020e+02 ;    N31 - C35    - H5C   
 12452  12451  12456      1    1.1064e+02    5.2585e+02 ;    C33 - N31    - C34   
 12452  12451  12460      1    1.1064e+02    5.2585e+02 ;    C33 - N31    - C35   
 12453  12452  12454      1    1.1074e+02    3.2669e+02 ;    H3A - C33    - H3B   
 12453  12452  12455      1    1.1074e+02    3.2669e+02 ;    H3A - C33    - H3C   
 12454  12452  12455      1    1.1074e+02    3.2669e+02 ;    H3B - C33    - H3C   
 12456  12451  12460      1    1.1064e+02    5.2585e+02 ;    C34 - N31    - C35   
 12457  12456  12458      1    1.1074e+02    3.2669e+02 ;    H4A - C34    - H4B   
 12457  12456  12459      1    1.1074e+02    3.2669e+02 ;    H4A - C34    - H4C   
 12458  12456  12459      1    1.1074e+02    3.2669e+02 ;    H4B - C34    - H4C   
 12461  12460  12462      1    1.1074e+02    3.2669e+02 ;    H5A - C35    - H5B   
 12461  12460  12463      1    1.1074e+02    3.2669e+02 ;    H5A - C35    - H5C   
 12462  12460  12463      1    1.1074e+02    3.2669e+02 ;    H5B - C35    - H5C   
 12464  12443  12465      1    1.1990e+02    1.1715e+03 ;    O33 - P31    - O34   
 12466  12467  12468      1    1.2333e+02    6.3538e+02 ;    O21 - C21    - O22   
 12466  12467  12506      1    1.1196e+02    5.7957e+02 ;    O21 - C21    - C12   
 12467  12506  12503      1    1.1053e+02    5.3379e+02 ;    C21 - C12    - C13   
 12467  12506  12507      1    1.0968e+02    3.9497e+02 ;    C21 - C12    - H2R   
 12467  12506  12508      1    1.0968e+02    3.9497e+02 ;    C21 - C12    - H2S   
 12468  12467  12506      1    1.2311e+02    5.6928e+02 ;    O22 - C21    - C12   
 12469  12470  12471      1    1.0835e+02    3.2995e+02 ;   H14T - C114   - H14R  
 12469  12470  12472      1    1.0835e+02    3.2995e+02 ;   H14T - C114   - H14S  
 12469  12470  12473      1    1.1005e+02    3.8802e+02 ;   H14T - C114   - C113  
 12470  12473  12474      1    1.1005e+02    3.8802e+02 ;   C114 - C113   - H13R  
 12470  12473  12475      1    1.1005e+02    3.8802e+02 ;   C114 - C113   - H13S  
 12470  12473  12476      1    1.1205e+02    3.9497e+02 ;   C114 - C113   - C112  
 12471  12470  12472      1    1.0835e+02    3.2995e+02 ;   H14R - C114   - H14S  
 12471  12470  12473      1    1.1005e+02    3.8802e+02 ;   H14R - C114   - C113  
 12472  12470  12473      1    1.1005e+02    3.8802e+02 ;   H14S - C114   - C113  
 12473  12476  12477      1    1.1005e+02    3.8802e+02 ;   C113 - C112   - H12R  
 12473  12476  12478      1    1.1005e+02    3.8802e+02 ;   C113 - C112   - H12S  
 12473  12476  12479      1    1.1205e+02    3.9497e+02 ;   C113 - C112   - C111  
 12474  12473  12475      1    1.0835e+02    3.2995e+02 ;   H13R - C113   - H13S  
 12474  12473  12476      1    1.1005e+02    3.8802e+02 ;   H13R - C113   - C112  
 12475  12473  12476      1    1.1005e+02    3.8802e+02 ;   H13S - C113   - C112  
 12476  12479  12480      1    1.1005e+02    3.8802e+02 ;   C112 - C111   - H11R  
 12476  12479  12481      1    1.1005e+02    3.8802e+02 ;   C112 - C111   - H11S  
 12476  12479  12482      1    1.1205e+02    3.9497e+02 ;   C112 - C111   - C110  
 12477  12476  12478      1    1.0835e+02    3.2995e+02 ;   H12R - C112   - H12S  
 12477  12476  12479      1    1.1005e+02    3.8802e+02 ;   H12R - C112   - C111  
 12478  12476  12479      1    1.1005e+02    3.8802e+02 ;   H12S - C112   - C111  
 12479  12482  12483      1    1.1005e+02    3.8802e+02 ;   C111 - C110   - H10R  
 12479  12482  12484      1    1.1005e+02    3.8802e+02 ;   C111 - C110   - H10S  
 12479  12482  12485      1    1.1205e+02    3.9497e+02 ;   C111 - C110   - C19   
 12480  12479  12481      1    1.0835e+02    3.2995e+02 ;   H11R - C111   - H11S  
 12480  12479  12482      1    1.1005e+02    3.8802e+02 ;   H11R - C111   - C110  
 12481  12479  12482      1    1.1005e+02    3.8802e+02 ;   H11S - C111   - C110  
 12482  12485  12486      1    1.1005e+02    3.8802e+02 ;   C110 - C19    - H9R   
 12482  12485  12487      1    1.1005e+02    3.8802e+02 ;   C110 - C19    - H9S   
 12482  12485  12488      1    1.1205e+02    3.9497e+02 ;   C110 - C19    - C18   
 12483  12482  12484      1    1.0835e+02    3.2995e+02 ;   H10R - C110   - H10S  
 12483  12482  12485      1    1.1005e+02    3.8802e+02 ;   H10R - C110   - C19   
 12484  12482  12485      1    1.1005e+02    3.8802e+02 ;   H10S - C110   - C19   
 12485  12488  12489      1    1.1005e+02    3.8802e+02 ;    C19 - C18    - H8R   
 12485  12488  12490      1    1.1005e+02    3.8802e+02 ;    C19 - C18    - H8S   
 12485  12488  12491      1    1.1205e+02    3.9497e+02 ;    C19 - C18    - C17   
 12486  12485  12487      1    1.0835e+02    3.2995e+02 ;    H9R - C19    - H9S   
 12486  12485  12488      1    1.1005e+02    3.8802e+02 ;    H9R - C19    - C18   
 12487  12485  12488      1    1.1005e+02    3.8802e+02 ;    H9S - C19    - C18   
 12488  12491  12492      1    1.1005e+02    3.8802e+02 ;    C18 - C17    - H7R   
 12488  12491  12493      1    1.1005e+02    3.8802e+02 ;    C18 - C17    - H7S   
 12488  12491  12494      1    1.1205e+02    3.9497e+02 ;    C18 - C17    - C16   
 12489  12488  12490      1    1.0835e+02    3.2995e+02 ;    H8R - C18    - H8S   
 12489  12488  12491      1    1.1005e+02    3.8802e+02 ;    H8R - C18    - C17   
 12490  12488  12491      1    1.1005e+02    3.8802e+02 ;    H8S - C18    - C17   
 12491  12494  12495      1    1.1005e+02    3.8802e+02 ;    C17 - C16    - H6R   
 12491  12494  12496      1    1.1005e+02    3.8802e+02 ;    C17 - C16    - H6S   
 12491  12494  12497      1    1.1205e+02    3.9497e+02 ;    C17 - C16    - C15   
 12492  12491  12493      1    1.0835e+02    3.2995e+02 ;    H7R - C17    - H7S   
 12492  12491  12494      1    1.1005e+02    3.8802e+02 ;    H7R - C17    - C16   
 12493  12491  12494      1    1.1005e+02    3.8802e+02 ;    H7S - C17    - C16   
 12494  12497  12498      1    1.1005e+02    3.8802e+02 ;    C16 - C15    - H5R   
 12494  12497  12499      1    1.1005e+02    3.8802e+02 ;    C16 - C15    - H5S   
 12494  12497  12500      1    1.1205e+02    3.9497e+02 ;    C16 - C15    - C14   
 12495  12494  12496      1    1.0835e+02    3.2995e+02 ;    H6R - C16    - H6S   
 12495  12494  12497      1    1.1005e+02    3.8802e+02 ;    H6R - C16    - C15   
 12496  12494  12497      1    1.1005e+02    3.8802e+02 ;    H6S - C16    - C15   
 12497  12500  12501      1    1.1005e+02    3.8802e+02 ;    C15 - C14    - H4R   
 12497  12500  12502      1    1.1005e+02    3.8802e+02 ;    C15 - C14    - H4S   
 12497  12500  12503      1    1.1205e+02    3.9497e+02 ;    C15 - C14    - C13   
 12498  12497  12499      1    1.0835e+02    3.2995e+02 ;    H5R - C15    - H5S   
 12498  12497  12500      1    1.1005e+02    3.8802e+02 ;    H5R - C15    - C14   
 12499  12497  12500      1    1.1005e+02    3.8802e+02 ;    H5S - C15    - C14   
 12500  12503  12504      1    1.1005e+02    3.8802e+02 ;    C14 - C13    - H3R   
 12500  12503  12505      1    1.1005e+02    3.8802e+02 ;    C14 - C13    - H3S   
 12500  12503  12506      1    1.1205e+02    3.9497e+02 ;    C14 - C13    - C12   
 12501  12500  12502      1    1.0835e+02    3.2995e+02 ;    H4R - C14    - H4S   
 12501  12500  12503      1    1.1005e+02    3.8802e+02 ;    H4R - C14    - C13   
 12502  12500  12503      1    1.1005e+02    3.8802e+02 ;    H4S - C14    - C13   
 12503  12506  12507      1    1.1005e+02    3.8802e+02 ;    C13 - C12    - H2R   
 12503  12506  12508      1    1.1005e+02    3.8802e+02 ;    C13 - C12    - H2S   
 12504  12503  12505      1    1.0835e+02    3.2995e+02 ;    H3R - C13    - H3S   
 12504  12503  12506      1    1.1005e+02    3.8802e+02 ;    H3R - C13    - C12   
 12505  12503  12506      1    1.1005e+02    3.8802e+02 ;    H3S - C13    - C12   
 12507  12506  12508      1    1.0835e+02    3.2995e+02 ;    H2R - C12    - H2S   
 12509  12510  12511      1    1.0835e+02    3.2995e+02 ;   H14T - C114   - H14R  
 12509  12510  12512      1    1.0835e+02    3.2995e+02 ;   H14T - C114   - H14S  
 12509  12510  12513      1    1.1005e+02    3.8802e+02 ;   H14T - C114   - C113  
 12510  12513  12514      1    1.1005e+02    3.8802e+02 ;   C114 - C113   - H13R  
 12510  12513  12515      1    1.1005e+02    3.8802e+02 ;   C114 - C113   - H13S  
 12510  12513  12516      1    1.1205e+02    3.9497e+02 ;   C114 - C113   - C112  
 12511  12510  12512      1    1.0835e+02    3.2995e+02 ;   H14R - C114   - H14S  
 12511  12510  12513      1    1.1005e+02    3.8802e+02 ;   H14R - C114   - C113  
 12512  12510  12513      1    1.1005e+02    3.8802e+02 ;   H14S - C114   - C113  
 12513  12516  12517      1    1.1005e+02    3.8802e+02 ;   C113 - C112   - H12R  
 12513  12516  12518      1    1.1005e+02    3.8802e+02 ;   C113 - C112   - H12S  
 12513  12516  12519      1    1.1205e+02    3.9497e+02 ;   C113 - C112   - C111  
 12514  12513  12515      1    1.0835e+02    3.2995e+02 ;   H13R - C113   - H13S  
 12514  12513  12516      1    1.1005e+02    3.8802e+02 ;   H13R - C113   - C112  
 12515  12513  12516      1    1.1005e+02    3.8802e+02 ;   H13S - C113   - C112  
 12516  12519  12520      1    1.1005e+02    3.8802e+02 ;   C112 - C111   - H11R  
 12516  12519  12521      1    1.1005e+02    3.8802e+02 ;   C112 - C111   - H11S  
 12516  12519  12522      1    1.1205e+02    3.9497e+02 ;   C112 - C111   - C110  
 12517  12516  12518      1    1.0835e+02    3.2995e+02 ;   H12R - C112   - H12S  
 12517  12516  12519      1    1.1005e+02    3.8802e+02 ;   H12R - C112   - C111  
 12518  12516  12519      1    1.1005e+02    3.8802e+02 ;   H12S - C112   - C111  
 12519  12522  12523      1    1.1005e+02    3.8802e+02 ;   C111 - C110   - H10R  
 12519  12522  12524      1    1.1005e+02    3.8802e+02 ;   C111 - C110   - H10S  
 12519  12522  12525      1    1.1205e+02    3.9497e+02 ;   C111 - C110   - C19   
 12520  12519  12521      1    1.0835e+02    3.2995e+02 ;   H11R - C111   - H11S  
 12520  12519  12522      1    1.1005e+02    3.8802e+02 ;   H11R - C111   - C110  
 12521  12519  12522      1    1.1005e+02    3.8802e+02 ;   H11S - C111   - C110  
 12522  12525  12526      1    1.1005e+02    3.8802e+02 ;   C110 - C19    - H9R   
 12522  12525  12527      1    1.1005e+02    3.8802e+02 ;   C110 - C19    - H9S   
 12522  12525  12528      1    1.1205e+02    3.9497e+02 ;   C110 - C19    - C18   
 12523  12522  12524      1    1.0835e+02    3.2995e+02 ;   H10R - C110   - H10S  
 12523  12522  12525      1    1.1005e+02    3.8802e+02 ;   H10R - C110   - C19   
 12524  12522  12525      1    1.1005e+02    3.8802e+02 ;   H10S - C110   - C19   
 12525  12528  12529      1    1.1005e+02    3.8802e+02 ;    C19 - C18    - H8R   
 12525  12528  12530      1    1.1005e+02    3.8802e+02 ;    C19 - C18    - H8S   
 12525  12528  12531      1    1.1205e+02    3.9497e+02 ;    C19 - C18    - C17   
 12526  12525  12527      1    1.0835e+02    3.2995e+02 ;    H9R - C19    - H9S   
 12526  12525  12528      1    1.1005e+02    3.8802e+02 ;    H9R - C19    - C18   
 12527  12525  12528      1    1.1005e+02    3.8802e+02 ;    H9S - C19    - C18   
 12528  12531  12532      1    1.1005e+02    3.8802e+02 ;    C18 - C17    - H7R   
 12528  12531  12533      1    1.1005e+02    3.8802e+02 ;    C18 - C17    - H7S   
 12528  12531  12534      1    1.1205e+02    3.9497e+02 ;    C18 - C17    - C16   
 12529  12528  12530      1    1.0835e+02    3.2995e+02 ;    H8R - C18    - H8S   
 12529  12528  12531      1    1.1005e+02    3.8802e+02 ;    H8R - C18    - C17   
 12530  12528  12531      1    1.1005e+02    3.8802e+02 ;    H8S - C18    - C17   
 12531  12534  12535      1    1.1005e+02    3.8802e+02 ;    C17 - C16    - H6R   
 12531  12534  12536      1    1.1005e+02    3.8802e+02 ;    C17 - C16    - H6S   
 12531  12534  12537      1    1.1205e+02    3.9497e+02 ;    C17 - C16    - C15   
 12532  12531  12533      1    1.0835e+02    3.2995e+02 ;    H7R - C17    - H7S   
 12532  12531  12534      1    1.1005e+02    3.8802e+02 ;    H7R - C17    - C16   
 12533  12531  12534      1    1.1005e+02    3.8802e+02 ;    H7S - C17    - C16   
 12534  12537  12538      1    1.1005e+02    3.8802e+02 ;    C16 - C15    - H5R   
 12534  12537  12539      1    1.1005e+02    3.8802e+02 ;    C16 - C15    - H5S   
 12534  12537  12540      1    1.1205e+02    3.9497e+02 ;    C16 - C15    - C14   
 12535  12534  12536      1    1.0835e+02    3.2995e+02 ;    H6R - C16    - H6S   
 12535  12534  12537      1    1.1005e+02    3.8802e+02 ;    H6R - C16    - C15   
 12536  12534  12537      1    1.1005e+02    3.8802e+02 ;    H6S - C16    - C15   
 12537  12540  12541      1    1.1005e+02    3.8802e+02 ;    C15 - C14    - H4R   
 12537  12540  12542      1    1.1005e+02    3.8802e+02 ;    C15 - C14    - H4S   
 12537  12540  12543      1    1.1205e+02    3.9497e+02 ;    C15 - C14    - C13   
 12538  12537  12539      1    1.0835e+02    3.2995e+02 ;    H5R - C15    - H5S   
 12538  12537  12540      1    1.1005e+02    3.8802e+02 ;    H5R - C15    - C14   
 12539  12537  12540      1    1.1005e+02    3.8802e+02 ;    H5S - C15    - C14   
 12540  12543  12544      1    1.1005e+02    3.8802e+02 ;    C14 - C13    - H3R   
 12540  12543  12545      1    1.1005e+02    3.8802e+02 ;    C14 - C13    - H3S   
 12540  12543  12546      1    1.1205e+02    3.9497e+02 ;    C14 - C13    - C12   
 12541  12540  12542      1    1.0835e+02    3.2995e+02 ;    H4R - C14    - H4S   
 12541  12540  12543      1    1.1005e+02    3.8802e+02 ;    H4R - C14    - C13   
 12542  12540  12543      1    1.1005e+02    3.8802e+02 ;    H4S - C14    - C13   
 12543  12546  12547      1    1.1005e+02    3.8802e+02 ;    C13 - C12    - H2R   
 12543  12546  12548      1    1.1005e+02    3.8802e+02 ;    C13 - C12    - H2S   
 12543  12546  12549      1    1.1053e+02    5.3379e+02 ;    C13 - C12    - C11   
 12544  12543  12545      1    1.0835e+02    3.2995e+02 ;    H3R - C13    - H3S   
 12544  12543  12546      1    1.1005e+02    3.8802e+02 ;    H3R - C13    - C12   
 12545  12543  12546      1    1.1005e+02    3.8802e+02 ;    H3S - C13    - C12   
 12546  12549  12550      1    1.2311e+02    5.6928e+02 ;    C12 - C11    - O12   
 12546  12549  12551      1    1.1196e+02    5.7957e+02 ;    C12 - C11    - O11   
 12547  12546  12548      1    1.0835e+02    3.2995e+02 ;    H2R - C12    - H2S   
 12547  12546  12549      1    1.0968e+02    3.9497e+02 ;    H2R - C12    - C11   
 12548  12546  12549      1    1.0968e+02    3.9497e+02 ;    H2S - C12    - C11   
 12549  12551  12552      1    1.1514e+02    5.3246e+02 ;    C11 - O11    - C1    
 12550  12549  12551      1    1.2333e+02    6.3538e+02 ;    O12 - C11    - O11   
 12551  12552  12553      1    1.0882e+02    4.2543e+02 ;    O11 - C1     - HR    
 12551  12552  12554      1    1.0882e+02    4.2543e+02 ;    O11 - C1     - HS    
 12551  12552  12555      1    1.0842e+02    5.6718e+02 ;    O11 - C1     - C2    
 12552  12555  12556      1    1.1007e+02    3.8794e+02 ;     C1 - C2     - HX    
 12552  12555  12557      1    1.1063e+02    5.2894e+02 ;     C1 - C2     - C3    
 12552  12555  12584      1    1.0842e+02    5.6718e+02 ;     C1 - C2     - O21   
 12553  12552  12554      1    1.0955e+02    3.2786e+02 ;     HR - C1     - HS    
 12553  12552  12555      1    1.1007e+02    3.8794e+02 ;     HR - C1     - C2    
 12554  12552  12555      1    1.1007e+02    3.8794e+02 ;     HS - C1     - C2    
 12555  12557  12558      1    1.1007e+02    3.8794e+02 ;     C2 - C3     - HA    
 12555  12557  12559      1    1.1007e+02    3.8794e+02 ;     C2 - C3     - HB    
 12555  12557  12560      1    1.0842e+02    5.6718e+02 ;     C2 - C3     - O31   
 12555  12584  12585      1    1.1514e+02    5.3246e+02 ;     C2 - O21    - C21   
 12556  12555  12557      1    1.1007e+02    3.8794e+02 ;     HX - C2     - C3    
 12556  12555  12584      1    1.0882e+02    4.2543e+02 ;     HX - C2     - O21   
 12557  12555  12584      1    1.0842e+02    5.6718e+02 ;     C3 - C2     - O21   
 12557  12560  12561      1    1.2050e+02    8.3680e+02 ;     C3 - O31    - P31   
 12558  12557  12559      1    1.0955e+02    3.2786e+02 ;     HA - C3     - HB    
 12558  12557  12560      1    1.0882e+02    4.2543e+02 ;     HA - C3     - O31   
 12559  12557  12560      1    1.0882e+02    4.2543e+02 ;     HB - C3     - O31   
 12560  12561  12562      1    1.0260e+02    7.5312e+02 ;    O31 - P31    - O32   
 12560  12561  12582      1    1.0823e+02    8.3680e+02 ;    O31 - P31    - O33   
 12560  12561  12583      1    1.0823e+02    8.3680e+02 ;    O31 - P31    - O34   
 12561  12562  12563      1    1.2050e+02    8.3680e+02 ;    P31 - O32    - C31   
 12562  12561  12582      1    1.0823e+02    8.3680e+02 ;    O32 - P31    - O33   
 12562  12561  12583      1    1.0823e+02    8.3680e+02 ;    O32 - P31    - O34   
 12562  12563  12564      1    1.0882e+02    4.2543e+02 ;    O32 - C31    - H1A   
 12562  12563  12565      1    1.0882e+02    4.2543e+02 ;    O32 - C31    - H1B   
 12562  12563  12566      1    1.0842e+02    5.6718e+02 ;    O32 - C31    - C32   
 12563  12566  12567      1    1.1174e+02    3.8510e+02 ;    C31 - C32    - H2A   
 12563  12566  12568      1    1.1174e+02    3.8510e+02 ;    C31 - C32    - H2B   
 12563  12566  12569      1    1.1432e+02    5.3932e+02 ;    C31 - C32    - N31   
 12564  12563  12565      1    1.0955e+02    3.2786e+02 ;    H1A - C31    - H1B   
 12564  12563  12566      1    1.1007e+02    3.8794e+02 ;    H1A - C31    - C32   
 12565  12563  12566      1    1.1007e+02    3.8794e+02 ;    H1B - C31    - C32   
 12566  12569  12570      1    1.1064e+02    5.2585e+02 ;    C32 - N31    - C33   
 12566  12569  12574      1    1.1064e+02    5.2585e+02 ;    C32 - N31    - C34   
 12566  12569  12578      1    1.1064e+02    5.2585e+02 ;    C32 - N31    - C35   
 12567  12566  12568      1    1.1074e+02    3.2669e+02 ;    H2A - C32    - H2B   
 12567  12566  12569      1    1.0791e+02    4.1020e+02 ;    H2A - C32    - N31   
 12568  12566  12569      1    1.0791e+02    4.1020e+02 ;    H2B - C32    - N31   
 12569  12570  12571      1    1.0791e+02    4.1020e+02 ;    N31 - C33    - H3A   
 12569  12570  12572      1    1.0791e+02    4.1020e+02 ;    N31 - C33    - H3B   
 12569  12570  12573      1    1.0791e+02    4.1020e+02 ;    N31 - C33    - H3C   
 12569  12574  12575      1    1.0791e+02    4.1020e+02 ;    N31 - C34    - H4A   
 12569  12574  12576      1    1.0791e+02    4.1020e+02 ;    N31 - C34    - H4B   
 12569  12574  12577      1    1.0791e+02    4.1020e+02 ;    N31 - C34    - H4C   
 12569  12578  12579      1    1.0791e+02    4.1020e+02 ;    N31 - C35    - H5A   
 12569  12578  12580      1    1.0791e+02    4.1020e+02 ;    N31 - C35    - H5B   
 12569  12578  12581      1    1.0791e+02    4.1020e+02 ;    N31 - C35    - H5C   
 12570  12569  12574      1    1.1064e+02    5.2585e+02 ;    C33 - N31    - C34   
 12570  12569  12578      1    1.1064e+02    5.2585e+02 ;    C33 - N31    - C35   
 12571  12570  12572      1    1.1074e+02    3.2669e+02 ;    H3A - C33    - H3B   
 12571  12570  12573      1    1.1074e+02    3.2669e+02 ;    H3A - C33    - H3C   
 12572  12570  12573      1    1.1074e+02    3.2669e+02 ;    H3B - C33    - H3C   
 12574  12569  12578      1    1.1064e+02    5.2585e+02 ;    C34 - N31    - C35   
 12575  12574  12576      1    1.1074e+02    3.2669e+02 ;    H4A - C34    - H4B   
 12575  12574  12577      1    1.1074e+02    3.2669e+02 ;    H4A - C34    - H4C   
 12576  12574  12577      1    1.1074e+02    3.2669e+02 ;    H4B - C34    - H4C   
 12579  12578  12580      1    1.1074e+02    3.2669e+02 ;    H5A - C35    - H5B   
 12579  12578  12581      1    1.1074e+02    3.2669e+02 ;    H5A - C35    - H5C   
 12580  12578  12581      1    1.1074e+02    3.2669e+02 ;    H5B - C35    - H5C   
 12582  12561  12583      1    1.1990e+02    1.1715e+03 ;    O33 - P31    - O34   
 12584  12585  12586      1    1.2333e+02    6.3538e+02 ;    O21 - C21    - O22   
 12584  12585  12624      1    1.1196e+02    5.7957e+02 ;    O21 - C21    - C12   
 12585  12624  12621      1    1.1053e+02    5.3379e+02 ;    C21 - C12    - C13   
 12585  12624  12625      1    1.0968e+02    3.9497e+02 ;    C21 - C12    - H2R   
 12585  12624  12626      1    1.0968e+02    3.9497e+02 ;    C21 - C12    - H2S   
 12586  12585  12624      1    1.2311e+02    5.6928e+02 ;    O22 - C21    - C12   
 12587  12588  12589      1    1.0835e+02    3.2995e+02 ;   H14T - C114   - H14R  
 12587  12588  12590      1    1.0835e+02    3.2995e+02 ;   H14T - C114   - H14S  
 12587  12588  12591      1    1.1005e+02    3.8802e+02 ;   H14T - C114   - C113  
 12588  12591  12592      1    1.1005e+02    3.8802e+02 ;   C114 - C113   - H13R  
 12588  12591  12593      1    1.1005e+02    3.8802e+02 ;   C114 - C113   - H13S  
 12588  12591  12594      1    1.1205e+02    3.9497e+02 ;   C114 - C113   - C112  
 12589  12588  12590      1    1.0835e+02    3.2995e+02 ;   H14R - C114   - H14S  
 12589  12588  12591      1    1.1005e+02    3.8802e+02 ;   H14R - C114   - C113  
 12590  12588  12591      1    1.1005e+02    3.8802e+02 ;   H14S - C114   - C113  
 12591  12594  12595      1    1.1005e+02    3.8802e+02 ;   C113 - C112   - H12R  
 12591  12594  12596      1    1.1005e+02    3.8802e+02 ;   C113 - C112   - H12S  
 12591  12594  12597      1    1.1205e+02    3.9497e+02 ;   C113 - C112   - C111  
 12592  12591  12593      1    1.0835e+02    3.2995e+02 ;   H13R - C113   - H13S  
 12592  12591  12594      1    1.1005e+02    3.8802e+02 ;   H13R - C113   - C112  
 12593  12591  12594      1    1.1005e+02    3.8802e+02 ;   H13S - C113   - C112  
 12594  12597  12598      1    1.1005e+02    3.8802e+02 ;   C112 - C111   - H11R  
 12594  12597  12599      1    1.1005e+02    3.8802e+02 ;   C112 - C111   - H11S  
 12594  12597  12600      1    1.1205e+02    3.9497e+02 ;   C112 - C111   - C110  
 12595  12594  12596      1    1.0835e+02    3.2995e+02 ;   H12R - C112   - H12S  
 12595  12594  12597      1    1.1005e+02    3.8802e+02 ;   H12R - C112   - C111  
 12596  12594  12597      1    1.1005e+02    3.8802e+02 ;   H12S - C112   - C111  
 12597  12600  12601      1    1.1005e+02    3.8802e+02 ;   C111 - C110   - H10R  
 12597  12600  12602      1    1.1005e+02    3.8802e+02 ;   C111 - C110   - H10S  
 12597  12600  12603      1    1.1205e+02    3.9497e+02 ;   C111 - C110   - C19   
 12598  12597  12599      1    1.0835e+02    3.2995e+02 ;   H11R - C111   - H11S  
 12598  12597  12600      1    1.1005e+02    3.8802e+02 ;   H11R - C111   - C110  
 12599  12597  12600      1    1.1005e+02    3.8802e+02 ;   H11S - C111   - C110  
 12600  12603  12604      1    1.1005e+02    3.8802e+02 ;   C110 - C19    - H9R   
 12600  12603  12605      1    1.1005e+02    3.8802e+02 ;   C110 - C19    - H9S   
 12600  12603  12606      1    1.1205e+02    3.9497e+02 ;   C110 - C19    - C18   
 12601  12600  12602      1    1.0835e+02    3.2995e+02 ;   H10R - C110   - H10S  
 12601  12600  12603      1    1.1005e+02    3.8802e+02 ;   H10R - C110   - C19   
 12602  12600  12603      1    1.1005e+02    3.8802e+02 ;   H10S - C110   - C19   
 12603  12606  12607      1    1.1005e+02    3.8802e+02 ;    C19 - C18    - H8R   
 12603  12606  12608      1    1.1005e+02    3.8802e+02 ;    C19 - C18    - H8S   
 12603  12606  12609      1    1.1205e+02    3.9497e+02 ;    C19 - C18    - C17   
 12604  12603  12605      1    1.0835e+02    3.2995e+02 ;    H9R - C19    - H9S   
 12604  12603  12606      1    1.1005e+02    3.8802e+02 ;    H9R - C19    - C18   
 12605  12603  12606      1    1.1005e+02    3.8802e+02 ;    H9S - C19    - C18   
 12606  12609  12610      1    1.1005e+02    3.8802e+02 ;    C18 - C17    - H7R   
 12606  12609  12611      1    1.1005e+02    3.8802e+02 ;    C18 - C17    - H7S   
 12606  12609  12612      1    1.1205e+02    3.9497e+02 ;    C18 - C17    - C16   
 12607  12606  12608      1    1.0835e+02    3.2995e+02 ;    H8R - C18    - H8S   
 12607  12606  12609      1    1.1005e+02    3.8802e+02 ;    H8R - C18    - C17   
 12608  12606  12609      1    1.1005e+02    3.8802e+02 ;    H8S - C18    - C17   
 12609  12612  12613      1    1.1005e+02    3.8802e+02 ;    C17 - C16    - H6R   
 12609  12612  12614      1    1.1005e+02    3.8802e+02 ;    C17 - C16    - H6S   
 12609  12612  12615      1    1.1205e+02    3.9497e+02 ;    C17 - C16    - C15   
 12610  12609  12611      1    1.0835e+02    3.2995e+02 ;    H7R - C17    - H7S   
 12610  12609  12612      1    1.1005e+02    3.8802e+02 ;    H7R - C17    - C16   
 12611  12609  12612      1    1.1005e+02    3.8802e+02 ;    H7S - C17    - C16   
 12612  12615  12616      1    1.1005e+02    3.8802e+02 ;    C16 - C15    - H5R   
 12612  12615  12617      1    1.1005e+02    3.8802e+02 ;    C16 - C15    - H5S   
 12612  12615  12618      1    1.1205e+02    3.9497e+02 ;    C16 - C15    - C14   
 12613  12612  12614      1    1.0835e+02    3.2995e+02 ;    H6R - C16    - H6S   
 12613  12612  12615      1    1.1005e+02    3.8802e+02 ;    H6R - C16    - C15   
 12614  12612  12615      1    1.1005e+02    3.8802e+02 ;    H6S - C16    - C15   
 12615  12618  12619      1    1.1005e+02    3.8802e+02 ;    C15 - C14    - H4R   
 12615  12618  12620      1    1.1005e+02    3.8802e+02 ;    C15 - C14    - H4S   
 12615  12618  12621      1    1.1205e+02    3.9497e+02 ;    C15 - C14    - C13   
 12616  12615  12617      1    1.0835e+02    3.2995e+02 ;    H5R - C15    - H5S   
 12616  12615  12618      1    1.1005e+02    3.8802e+02 ;    H5R - C15    - C14   
 12617  12615  12618      1    1.1005e+02    3.8802e+02 ;    H5S - C15    - C14   
 12618  12621  12622      1    1.1005e+02    3.8802e+02 ;    C14 - C13    - H3R   
 12618  12621  12623      1    1.1005e+02    3.8802e+02 ;    C14 - C13    - H3S   
 12618  12621  12624      1    1.1205e+02    3.9497e+02 ;    C14 - C13    - C12   
 12619  12618  12620      1    1.0835e+02    3.2995e+02 ;    H4R - C14    - H4S   
 12619  12618  12621      1    1.1005e+02    3.8802e+02 ;    H4R - C14    - C13   
 12620  12618  12621      1    1.1005e+02    3.8802e+02 ;    H4S - C14    - C13   
 12621  12624  12625      1    1.1005e+02    3.8802e+02 ;    C13 - C12    - H2R   
 12621  12624  12626      1    1.1005e+02    3.8802e+02 ;    C13 - C12    - H2S   
 12622  12621  12623      1    1.0835e+02    3.2995e+02 ;    H3R - C13    - H3S   
 12622  12621  12624      1    1.1005e+02    3.8802e+02 ;    H3R - C13    - C12   
 12623  12621  12624      1    1.1005e+02    3.8802e+02 ;    H3S - C13    - C12   
 12625  12624  12626      1    1.0835e+02    3.2995e+02 ;    H2R - C12    - H2S   
 12627  12628  12629      1    1.0835e+02    3.2995e+02 ;   H14T - C114   - H14R  
 12627  12628  12630      1    1.0835e+02    3.2995e+02 ;   H14T - C114   - H14S  
 12627  12628  12631      1    1.1005e+02    3.8802e+02 ;   H14T - C114   - C113  
 12628  12631  12632      1    1.1005e+02    3.8802e+02 ;   C114 - C113   - H13R  
 12628  12631  12633      1    1.1005e+02    3.8802e+02 ;   C114 - C113   - H13S  
 12628  12631  12634      1    1.1205e+02    3.9497e+02 ;   C114 - C113   - C112  
 12629  12628  12630      1    1.0835e+02    3.2995e+02 ;   H14R - C114   - H14S  
 12629  12628  12631      1    1.1005e+02    3.8802e+02 ;   H14R - C114   - C113  
 12630  12628  12631      1    1.1005e+02    3.8802e+02 ;   H14S - C114   - C113  
 12631  12634  12635      1    1.1005e+02    3.8802e+02 ;   C113 - C112   - H12R  
 12631  12634  12636      1    1.1005e+02    3.8802e+02 ;   C113 - C112   - H12S  
 12631  12634  12637      1    1.1205e+02    3.9497e+02 ;   C113 - C112   - C111  
 12632  12631  12633      1    1.0835e+02    3.2995e+02 ;   H13R - C113   - H13S  
 12632  12631  12634      1    1.1005e+02    3.8802e+02 ;   H13R - C113   - C112  
 12633  12631  12634      1    1.1005e+02    3.8802e+02 ;   H13S - C113   - C112  
 12634  12637  12638      1    1.1005e+02    3.8802e+02 ;   C112 - C111   - H11R  
 12634  12637  12639      1    1.1005e+02    3.8802e+02 ;   C112 - C111   - H11S  
 12634  12637  12640      1    1.1205e+02    3.9497e+02 ;   C112 - C111   - C110  
 12635  12634  12636      1    1.0835e+02    3.2995e+02 ;   H12R - C112   - H12S  
 12635  12634  12637      1    1.1005e+02    3.8802e+02 ;   H12R - C112   - C111  
 12636  12634  12637      1    1.1005e+02    3.8802e+02 ;   H12S - C112   - C111  
 12637  12640  12641      1    1.1005e+02    3.8802e+02 ;   C111 - C110   - H10R  
 12637  12640  12642      1    1.1005e+02    3.8802e+02 ;   C111 - C110   - H10S  
 12637  12640  12643      1    1.1205e+02    3.9497e+02 ;   C111 - C110   - C19   
 12638  12637  12639      1    1.0835e+02    3.2995e+02 ;   H11R - C111   - H11S  
 12638  12637  12640      1    1.1005e+02    3.8802e+02 ;   H11R - C111   - C110  
 12639  12637  12640      1    1.1005e+02    3.8802e+02 ;   H11S - C111   - C110  
 12640  12643  12644      1    1.1005e+02    3.8802e+02 ;   C110 - C19    - H9R   
 12640  12643  12645      1    1.1005e+02    3.8802e+02 ;   C110 - C19    - H9S   
 12640  12643  12646      1    1.1205e+02    3.9497e+02 ;   C110 - C19    - C18   
 12641  12640  12642      1    1.0835e+02    3.2995e+02 ;   H10R - C110   - H10S  
 12641  12640  12643      1    1.1005e+02    3.8802e+02 ;   H10R - C110   - C19   
 12642  12640  12643      1    1.1005e+02    3.8802e+02 ;   H10S - C110   - C19   
 12643  12646  12647      1    1.1005e+02    3.8802e+02 ;    C19 - C18    - H8R   
 12643  12646  12648      1    1.1005e+02    3.8802e+02 ;    C19 - C18    - H8S   
 12643  12646  12649      1    1.1205e+02    3.9497e+02 ;    C19 - C18    - C17   
 12644  12643  12645      1    1.0835e+02    3.2995e+02 ;    H9R - C19    - H9S   
 12644  12643  12646      1    1.1005e+02    3.8802e+02 ;    H9R - C19    - C18   
 12645  12643  12646      1    1.1005e+02    3.8802e+02 ;    H9S - C19    - C18   
 12646  12649  12650      1    1.1005e+02    3.8802e+02 ;    C18 - C17    - H7R   
 12646  12649  12651      1    1.1005e+02    3.8802e+02 ;    C18 - C17    - H7S   
 12646  12649  12652      1    1.1205e+02    3.9497e+02 ;    C18 - C17    - C16   
 12647  12646  12648      1    1.0835e+02    3.2995e+02 ;    H8R - C18    - H8S   
 12647  12646  12649      1    1.1005e+02    3.8802e+02 ;    H8R - C18    - C17   
 12648  12646  12649      1    1.1005e+02    3.8802e+02 ;    H8S - C18    - C17   
 12649  12652  12653      1    1.1005e+02    3.8802e+02 ;    C17 - C16    - H6R   
 12649  12652  12654      1    1.1005e+02    3.8802e+02 ;    C17 - C16    - H6S   
 12649  12652  12655      1    1.1205e+02    3.9497e+02 ;    C17 - C16    - C15   
 12650  12649  12651      1    1.0835e+02    3.2995e+02 ;    H7R - C17    - H7S   
 12650  12649  12652      1    1.1005e+02    3.8802e+02 ;    H7R - C17    - C16   
 12651  12649  12652      1    1.1005e+02    3.8802e+02 ;    H7S - C17    - C16   
 12652  12655  12656      1    1.1005e+02    3.8802e+02 ;    C16 - C15    - H5R   
 12652  12655  12657      1    1.1005e+02    3.8802e+02 ;    C16 - C15    - H5S   
 12652  12655  12658      1    1.1205e+02    3.9497e+02 ;    C16 - C15    - C14   
 12653  12652  12654      1    1.0835e+02    3.2995e+02 ;    H6R - C16    - H6S   
 12653  12652  12655      1    1.1005e+02    3.8802e+02 ;    H6R - C16    - C15   
 12654  12652  12655      1    1.1005e+02    3.8802e+02 ;    H6S - C16    - C15   
 12655  12658  12659      1    1.1005e+02    3.8802e+02 ;    C15 - C14    - H4R   
 12655  12658  12660      1    1.1005e+02    3.8802e+02 ;    C15 - C14    - H4S   
 12655  12658  12661      1    1.1205e+02    3.9497e+02 ;    C15 - C14    - C13   
 12656  12655  12657      1    1.0835e+02    3.2995e+02 ;    H5R - C15    - H5S   
 12656  12655  12658      1    1.1005e+02    3.8802e+02 ;    H5R - C15    - C14   
 12657  12655  12658      1    1.1005e+02    3.8802e+02 ;    H5S - C15    - C14   
 12658  12661  12662      1    1.1005e+02    3.8802e+02 ;    C14 - C13    - H3R   
 12658  12661  12663      1    1.1005e+02    3.8802e+02 ;    C14 - C13    - H3S   
 12658  12661  12664      1    1.1205e+02    3.9497e+02 ;    C14 - C13    - C12   
 12659  12658  12660      1    1.0835e+02    3.2995e+02 ;    H4R - C14    - H4S   
 12659  12658  12661      1    1.1005e+02    3.8802e+02 ;    H4R - C14    - C13   
 12660  12658  12661      1    1.1005e+02    3.8802e+02 ;    H4S - C14    - C13   
 12661  12664  12665      1    1.1005e+02    3.8802e+02 ;    C13 - C12    - H2R   
 12661  12664  12666      1    1.1005e+02    3.8802e+02 ;    C13 - C12    - H2S   
 12661  12664  12667      1    1.1053e+02    5.3379e+02 ;    C13 - C12    - C11   
 12662  12661  12663      1    1.0835e+02    3.2995e+02 ;    H3R - C13    - H3S   
 12662  12661  12664      1    1.1005e+02    3.8802e+02 ;    H3R - C13    - C12   
 12663  12661  12664      1    1.1005e+02    3.8802e+02 ;    H3S - C13    - C12   
 12664  12667  12668      1    1.2311e+02    5.6928e+02 ;    C12 - C11    - O12   
 12664  12667  12669      1    1.1196e+02    5.7957e+02 ;    C12 - C11    - O11   
 12665  12664  12666      1    1.0835e+02    3.2995e+02 ;    H2R - C12    - H2S   
 12665  12664  12667      1    1.0968e+02    3.9497e+02 ;    H2R - C12    - C11   
 12666  12664  12667      1    1.0968e+02    3.9497e+02 ;    H2S - C12    - C11   
 12667  12669  12670      1    1.1514e+02    5.3246e+02 ;    C11 - O11    - C1    
 12668  12667  12669      1    1.2333e+02    6.3538e+02 ;    O12 - C11    - O11   
 12669  12670  12671      1    1.0882e+02    4.2543e+02 ;    O11 - C1     - HR    
 12669  12670  12672      1    1.0882e+02    4.2543e+02 ;    O11 - C1     - HS    
 12669  12670  12673      1    1.0842e+02    5.6718e+02 ;    O11 - C1     - C2    
 12670  12673  12674      1    1.1007e+02    3.8794e+02 ;     C1 - C2     - HX    
 12670  12673  12675      1    1.1063e+02    5.2894e+02 ;     C1 - C2     - C3    
 12670  12673  12702      1    1.0842e+02    5.6718e+02 ;     C1 - C2     - O21   
 12671  12670  12672      1    1.0955e+02    3.2786e+02 ;     HR - C1     - HS    
 12671  12670  12673      1    1.1007e+02    3.8794e+02 ;     HR - C1     - C2    
 12672  12670  12673      1    1.1007e+02    3.8794e+02 ;     HS - C1     - C2    
 12673  12675  12676      1    1.1007e+02    3.8794e+02 ;     C2 - C3     - HA    
 12673  12675  12677      1    1.1007e+02    3.8794e+02 ;     C2 - C3     - HB    
 12673  12675  12678      1    1.0842e+02    5.6718e+02 ;     C2 - C3     - O31   
 12673  12702  12703      1    1.1514e+02    5.3246e+02 ;     C2 - O21    - C21   
 12674  12673  12675      1    1.1007e+02    3.8794e+02 ;     HX - C2     - C3    
 12674  12673  12702      1    1.0882e+02    4.2543e+02 ;     HX - C2     - O21   
 12675  12673  12702      1    1.0842e+02    5.6718e+02 ;     C3 - C2     - O21   
 12675  12678  12679      1    1.2050e+02    8.3680e+02 ;     C3 - O31    - P31   
 12676  12675  12677      1    1.0955e+02    3.2786e+02 ;     HA - C3     - HB    
 12676  12675  12678      1    1.0882e+02    4.2543e+02 ;     HA - C3     - O31   
 12677  12675  12678      1    1.0882e+02    4.2543e+02 ;     HB - C3     - O31   
 12678  12679  12680      1    1.0260e+02    7.5312e+02 ;    O31 - P31    - O32   
 12678  12679  12700      1    1.0823e+02    8.3680e+02 ;    O31 - P31    - O33   
 12678  12679  12701      1    1.0823e+02    8.3680e+02 ;    O31 - P31    - O34   
 12679  12680  12681      1    1.2050e+02    8.3680e+02 ;    P31 - O32    - C31   
 12680  12679  12700      1    1.0823e+02    8.3680e+02 ;    O32 - P31    - O33   
 12680  12679  12701      1    1.0823e+02    8.3680e+02 ;    O32 - P31    - O34   
 12680  12681  12682      1    1.0882e+02    4.2543e+02 ;    O32 - C31    - H1A   
 12680  12681  12683      1    1.0882e+02    4.2543e+02 ;    O32 - C31    - H1B   
 12680  12681  12684      1    1.0842e+02    5.6718e+02 ;    O32 - C31    - C32   
 12681  12684  12685      1    1.1174e+02    3.8510e+02 ;    C31 - C32    - H2A   
 12681  12684  12686      1    1.1174e+02    3.8510e+02 ;    C31 - C32    - H2B   
 12681  12684  12687      1    1.1432e+02    5.3932e+02 ;    C31 - C32    - N31   
 12682  12681  12683      1    1.0955e+02    3.2786e+02 ;    H1A - C31    - H1B   
 12682  12681  12684      1    1.1007e+02    3.8794e+02 ;    H1A - C31    - C32   
 12683  12681  12684      1    1.1007e+02    3.8794e+02 ;    H1B - C31    - C32   
 12684  12687  12688      1    1.1064e+02    5.2585e+02 ;    C32 - N31    - C33   
 12684  12687  12692      1    1.1064e+02    5.2585e+02 ;    C32 - N31    - C34   
 12684  12687  12696      1    1.1064e+02    5.2585e+02 ;    C32 - N31    - C35   
 12685  12684  12686      1    1.1074e+02    3.2669e+02 ;    H2A - C32    - H2B   
 12685  12684  12687      1    1.0791e+02    4.1020e+02 ;    H2A - C32    - N31   
 12686  12684  12687      1    1.0791e+02    4.1020e+02 ;    H2B - C32    - N31   
 12687  12688  12689      1    1.0791e+02    4.1020e+02 ;    N31 - C33    - H3A   
 12687  12688  12690      1    1.0791e+02    4.1020e+02 ;    N31 - C33    - H3B   
 12687  12688  12691      1    1.0791e+02    4.1020e+02 ;    N31 - C33    - H3C   
 12687  12692  12693      1    1.0791e+02    4.1020e+02 ;    N31 - C34    - H4A   
 12687  12692  12694      1    1.0791e+02    4.1020e+02 ;    N31 - C34    - H4B   
 12687  12692  12695      1    1.0791e+02    4.1020e+02 ;    N31 - C34    - H4C   
 12687  12696  12697      1    1.0791e+02    4.1020e+02 ;    N31 - C35    - H5A   
 12687  12696  12698      1    1.0791e+02    4.1020e+02 ;    N31 - C35    - H5B   
 12687  12696  12699      1    1.0791e+02    4.1020e+02 ;    N31 - C35    - H5C   
 12688  12687  12692      1    1.1064e+02    5.2585e+02 ;    C33 - N31    - C34   
 12688  12687  12696      1    1.1064e+02    5.2585e+02 ;    C33 - N31    - C35   
 12689  12688  12690      1    1.1074e+02    3.2669e+02 ;    H3A - C33    - H3B   
 12689  12688  12691      1    1.1074e+02    3.2669e+02 ;    H3A - C33    - H3C   
 12690  12688  12691      1    1.1074e+02    3.2669e+02 ;    H3B - C33    - H3C   
 12692  12687  12696      1    1.1064e+02    5.2585e+02 ;    C34 - N31    - C35   
 12693  12692  12694      1    1.1074e+02    3.2669e+02 ;    H4A - C34    - H4B   
 12693  12692  12695      1    1.1074e+02    3.2669e+02 ;    H4A - C34    - H4C   
 12694  12692  12695      1    1.1074e+02    3.2669e+02 ;    H4B - C34    - H4C   
 12697  12696  12698      1    1.1074e+02    3.2669e+02 ;    H5A - C35    - H5B   
 12697  12696  12699      1    1.1074e+02    3.2669e+02 ;    H5A - C35    - H5C   
 12698  12696  12699      1    1.1074e+02    3.2669e+02 ;    H5B - C35    - H5C   
 12700  12679  12701      1    1.1990e+02    1.1715e+03 ;    O33 - P31    - O34   
 12702  12703  12704      1    1.2333e+02    6.3538e+02 ;    O21 - C21    - O22   
 12702  12703  12742      1    1.1196e+02    5.7957e+02 ;    O21 - C21    - C12   
 12703  12742  12739      1    1.1053e+02    5.3379e+02 ;    C21 - C12    - C13   
 12703  12742  12743      1    1.0968e+02    3.9497e+02 ;    C21 - C12    - H2R   
 12703  12742  12744      1    1.0968e+02    3.9497e+02 ;    C21 - C12    - H2S   
 12704  12703  12742      1    1.2311e+02    5.6928e+02 ;    O22 - C21    - C12   
 12705  12706  12707      1    1.0835e+02    3.2995e+02 ;   H14T - C114   - H14R  
 12705  12706  12708      1    1.0835e+02    3.2995e+02 ;   H14T - C114   - H14S  
 12705  12706  12709      1    1.1005e+02    3.8802e+02 ;   H14T - C114   - C113  
 12706  12709  12710      1    1.1005e+02    3.8802e+02 ;   C114 - C113   - H13R  
 12706  12709  12711      1    1.1005e+02    3.8802e+02 ;   C114 - C113   - H13S  
 12706  12709  12712      1    1.1205e+02    3.9497e+02 ;   C114 - C113   - C112  
 12707  12706  12708      1    1.0835e+02    3.2995e+02 ;   H14R - C114   - H14S  
 12707  12706  12709      1    1.1005e+02    3.8802e+02 ;   H14R - C114   - C113  
 12708  12706  12709      1    1.1005e+02    3.8802e+02 ;   H14S - C114   - C113  
 12709  12712  12713      1    1.1005e+02    3.8802e+02 ;   C113 - C112   - H12R  
 12709  12712  12714      1    1.1005e+02    3.8802e+02 ;   C113 - C112   - H12S  
 12709  12712  12715      1    1.1205e+02    3.9497e+02 ;   C113 - C112   - C111  
 12710  12709  12711      1    1.0835e+02    3.2995e+02 ;   H13R - C113   - H13S  
 12710  12709  12712      1    1.1005e+02    3.8802e+02 ;   H13R - C113   - C112  
 12711  12709  12712      1    1.1005e+02    3.8802e+02 ;   H13S - C113   - C112  
 12712  12715  12716      1    1.1005e+02    3.8802e+02 ;   C112 - C111   - H11R  
 12712  12715  12717      1    1.1005e+02    3.8802e+02 ;   C112 - C111   - H11S  
 12712  12715  12718      1    1.1205e+02    3.9497e+02 ;   C112 - C111   - C110  
 12713  12712  12714      1    1.0835e+02    3.2995e+02 ;   H12R - C112   - H12S  
 12713  12712  12715      1    1.1005e+02    3.8802e+02 ;   H12R - C112   - C111  
 12714  12712  12715      1    1.1005e+02    3.8802e+02 ;   H12S - C112   - C111  
 12715  12718  12719      1    1.1005e+02    3.8802e+02 ;   C111 - C110   - H10R  
 12715  12718  12720      1    1.1005e+02    3.8802e+02 ;   C111 - C110   - H10S  
 12715  12718  12721      1    1.1205e+02    3.9497e+02 ;   C111 - C110   - C19   
 12716  12715  12717      1    1.0835e+02    3.2995e+02 ;   H11R - C111   - H11S  
 12716  12715  12718      1    1.1005e+02    3.8802e+02 ;   H11R - C111   - C110  
 12717  12715  12718      1    1.1005e+02    3.8802e+02 ;   H11S - C111   - C110  
 12718  12721  12722      1    1.1005e+02    3.8802e+02 ;   C110 - C19    - H9R   
 12718  12721  12723      1    1.1005e+02    3.8802e+02 ;   C110 - C19    - H9S   
 12718  12721  12724      1    1.1205e+02    3.9497e+02 ;   C110 - C19    - C18   
 12719  12718  12720      1    1.0835e+02    3.2995e+02 ;   H10R - C110   - H10S  
 12719  12718  12721      1    1.1005e+02    3.8802e+02 ;   H10R - C110   - C19   
 12720  12718  12721      1    1.1005e+02    3.8802e+02 ;   H10S - C110   - C19   
 12721  12724  12725      1    1.1005e+02    3.8802e+02 ;    C19 - C18    - H8R   
 12721  12724  12726      1    1.1005e+02    3.8802e+02 ;    C19 - C18    - H8S   
 12721  12724  12727      1    1.1205e+02    3.9497e+02 ;    C19 - C18    - C17   
 12722  12721  12723      1    1.0835e+02    3.2995e+02 ;    H9R - C19    - H9S   
 12722  12721  12724      1    1.1005e+02    3.8802e+02 ;    H9R - C19    - C18   
 12723  12721  12724      1    1.1005e+02    3.8802e+02 ;    H9S - C19    - C18   
 12724  12727  12728      1    1.1005e+02    3.8802e+02 ;    C18 - C17    - H7R   
 12724  12727  12729      1    1.1005e+02    3.8802e+02 ;    C18 - C17    - H7S   
 12724  12727  12730      1    1.1205e+02    3.9497e+02 ;    C18 - C17    - C16   
 12725  12724  12726      1    1.0835e+02    3.2995e+02 ;    H8R - C18    - H8S   
 12725  12724  12727      1    1.1005e+02    3.8802e+02 ;    H8R - C18    - C17   
 12726  12724  12727      1    1.1005e+02    3.8802e+02 ;    H8S - C18    - C17   
 12727  12730  12731      1    1.1005e+02    3.8802e+02 ;    C17 - C16    - H6R   
 12727  12730  12732      1    1.1005e+02    3.8802e+02 ;    C17 - C16    - H6S   
 12727  12730  12733      1    1.1205e+02    3.9497e+02 ;    C17 - C16    - C15   
 12728  12727  12729      1    1.0835e+02    3.2995e+02 ;    H7R - C17    - H7S   
 12728  12727  12730      1    1.1005e+02    3.8802e+02 ;    H7R - C17    - C16   
 12729  12727  12730      1    1.1005e+02    3.8802e+02 ;    H7S - C17    - C16   
 12730  12733  12734      1    1.1005e+02    3.8802e+02 ;    C16 - C15    - H5R   
 12730  12733  12735      1    1.1005e+02    3.8802e+02 ;    C16 - C15    - H5S   
 12730  12733  12736      1    1.1205e+02    3.9497e+02 ;    C16 - C15    - C14   
 12731  12730  12732      1    1.0835e+02    3.2995e+02 ;    H6R - C16    - H6S   
 12731  12730  12733      1    1.1005e+02    3.8802e+02 ;    H6R - C16    - C15   
 12732  12730  12733      1    1.1005e+02    3.8802e+02 ;    H6S - C16    - C15   
 12733  12736  12737      1    1.1005e+02    3.8802e+02 ;    C15 - C14    - H4R   
 12733  12736  12738      1    1.1005e+02    3.8802e+02 ;    C15 - C14    - H4S   
 12733  12736  12739      1    1.1205e+02    3.9497e+02 ;    C15 - C14    - C13   
 12734  12733  12735      1    1.0835e+02    3.2995e+02 ;    H5R - C15    - H5S   
 12734  12733  12736      1    1.1005e+02    3.8802e+02 ;    H5R - C15    - C14   
 12735  12733  12736      1    1.1005e+02    3.8802e+02 ;    H5S - C15    - C14   
 12736  12739  12740      1    1.1005e+02    3.8802e+02 ;    C14 - C13    - H3R   
 12736  12739  12741      1    1.1005e+02    3.8802e+02 ;    C14 - C13    - H3S   
 12736  12739  12742      1    1.1205e+02    3.9497e+02 ;    C14 - C13    - C12   
 12737  12736  12738      1    1.0835e+02    3.2995e+02 ;    H4R - C14    - H4S   
 12737  12736  12739      1    1.1005e+02    3.8802e+02 ;    H4R - C14    - C13   
 12738  12736  12739      1    1.1005e+02    3.8802e+02 ;    H4S - C14    - C13   
 12739  12742  12743      1    1.1005e+02    3.8802e+02 ;    C13 - C12    - H2R   
 12739  12742  12744      1    1.1005e+02    3.8802e+02 ;    C13 - C12    - H2S   
 12740  12739  12741      1    1.0835e+02    3.2995e+02 ;    H3R - C13    - H3S   
 12740  12739  12742      1    1.1005e+02    3.8802e+02 ;    H3R - C13    - C12   
 12741  12739  12742      1    1.1005e+02    3.8802e+02 ;    H3S - C13    - C12   
 12743  12742  12744      1    1.0835e+02    3.2995e+02 ;    H2R - C12    - H2S   
 12745  12746  12747      1    1.0835e+02    3.2995e+02 ;   H14T - C114   - H14R  
 12745  12746  12748      1    1.0835e+02    3.2995e+02 ;   H14T - C114   - H14S  
 12745  12746  12749      1    1.1005e+02    3.8802e+02 ;   H14T - C114   - C113  
 12746  12749  12750      1    1.1005e+02    3.8802e+02 ;   C114 - C113   - H13R  
 12746  12749  12751      1    1.1005e+02    3.8802e+02 ;   C114 - C113   - H13S  
 12746  12749  12752      1    1.1205e+02    3.9497e+02 ;   C114 - C113   - C112  
 12747  12746  12748      1    1.0835e+02    3.2995e+02 ;   H14R - C114   - H14S  
 12747  12746  12749      1    1.1005e+02    3.8802e+02 ;   H14R - C114   - C113  
 12748  12746  12749      1    1.1005e+02    3.8802e+02 ;   H14S - C114   - C113  
 12749  12752  12753      1    1.1005e+02    3.8802e+02 ;   C113 - C112   - H12R  
 12749  12752  12754      1    1.1005e+02    3.8802e+02 ;   C113 - C112   - H12S  
 12749  12752  12755      1    1.1205e+02    3.9497e+02 ;   C113 - C112   - C111  
 12750  12749  12751      1    1.0835e+02    3.2995e+02 ;   H13R - C113   - H13S  
 12750  12749  12752      1    1.1005e+02    3.8802e+02 ;   H13R - C113   - C112  
 12751  12749  12752      1    1.1005e+02    3.8802e+02 ;   H13S - C113   - C112  
 12752  12755  12756      1    1.1005e+02    3.8802e+02 ;   C112 - C111   - H11R  
 12752  12755  12757      1    1.1005e+02    3.8802e+02 ;   C112 - C111   - H11S  
 12752  12755  12758      1    1.1205e+02    3.9497e+02 ;   C112 - C111   - C110  
 12753  12752  12754      1    1.0835e+02    3.2995e+02 ;   H12R - C112   - H12S  
 12753  12752  12755      1    1.1005e+02    3.8802e+02 ;   H12R - C112   - C111  
 12754  12752  12755      1    1.1005e+02    3.8802e+02 ;   H12S - C112   - C111  
 12755  12758  12759      1    1.1005e+02    3.8802e+02 ;   C111 - C110   - H10R  
 12755  12758  12760      1    1.1005e+02    3.8802e+02 ;   C111 - C110   - H10S  
 12755  12758  12761      1    1.1205e+02    3.9497e+02 ;   C111 - C110   - C19   
 12756  12755  12757      1    1.0835e+02    3.2995e+02 ;   H11R - C111   - H11S  
 12756  12755  12758      1    1.1005e+02    3.8802e+02 ;   H11R - C111   - C110  
 12757  12755  12758      1    1.1005e+02    3.8802e+02 ;   H11S - C111   - C110  
 12758  12761  12762      1    1.1005e+02    3.8802e+02 ;   C110 - C19    - H9R   
 12758  12761  12763      1    1.1005e+02    3.8802e+02 ;   C110 - C19    - H9S   
 12758  12761  12764      1    1.1205e+02    3.9497e+02 ;   C110 - C19    - C18   
 12759  12758  12760      1    1.0835e+02    3.2995e+02 ;   H10R - C110   - H10S  
 12759  12758  12761      1    1.1005e+02    3.8802e+02 ;   H10R - C110   - C19   
 12760  12758  12761      1    1.1005e+02    3.8802e+02 ;   H10S - C110   - C19   
 12761  12764  12765      1    1.1005e+02    3.8802e+02 ;    C19 - C18    - H8R   
 12761  12764  12766      1    1.1005e+02    3.8802e+02 ;    C19 - C18    - H8S   
 12761  12764  12767      1    1.1205e+02    3.9497e+02 ;    C19 - C18    - C17   
 12762  12761  12763      1    1.0835e+02    3.2995e+02 ;    H9R - C19    - H9S   
 12762  12761  12764      1    1.1005e+02    3.8802e+02 ;    H9R - C19    - C18   
 12763  12761  12764      1    1.1005e+02    3.8802e+02 ;    H9S - C19    - C18   
 12764  12767  12768      1    1.1005e+02    3.8802e+02 ;    C18 - C17    - H7R   
 12764  12767  12769      1    1.1005e+02    3.8802e+02 ;    C18 - C17    - H7S   
 12764  12767  12770      1    1.1205e+02    3.9497e+02 ;    C18 - C17    - C16   
 12765  12764  12766      1    1.0835e+02    3.2995e+02 ;    H8R - C18    - H8S   
 12765  12764  12767      1    1.1005e+02    3.8802e+02 ;    H8R - C18    - C17   
 12766  12764  12767      1    1.1005e+02    3.8802e+02 ;    H8S - C18    - C17   
 12767  12770  12771      1    1.1005e+02    3.8802e+02 ;    C17 - C16    - H6R   
 12767  12770  12772      1    1.1005e+02    3.8802e+02 ;    C17 - C16    - H6S   
 12767  12770  12773      1    1.1205e+02    3.9497e+02 ;    C17 - C16    - C15   
 12768  12767  12769      1    1.0835e+02    3.2995e+02 ;    H7R - C17    - H7S   
 12768  12767  12770      1    1.1005e+02    3.8802e+02 ;    H7R - C17    - C16   
 12769  12767  12770      1    1.1005e+02    3.8802e+02 ;    H7S - C17    - C16   
 12770  12773  12774      1    1.1005e+02    3.8802e+02 ;    C16 - C15    - H5R   
 12770  12773  12775      1    1.1005e+02    3.8802e+02 ;    C16 - C15    - H5S   
 12770  12773  12776      1    1.1205e+02    3.9497e+02 ;    C16 - C15    - C14   
 12771  12770  12772      1    1.0835e+02    3.2995e+02 ;    H6R - C16    - H6S   
 12771  12770  12773      1    1.1005e+02    3.8802e+02 ;    H6R - C16    - C15   
 12772  12770  12773      1    1.1005e+02    3.8802e+02 ;    H6S - C16    - C15   
 12773  12776  12777      1    1.1005e+02    3.8802e+02 ;    C15 - C14    - H4R   
 12773  12776  12778      1    1.1005e+02    3.8802e+02 ;    C15 - C14    - H4S   
 12773  12776  12779      1    1.1205e+02    3.9497e+02 ;    C15 - C14    - C13   
 12774  12773  12775      1    1.0835e+02    3.2995e+02 ;    H5R - C15    - H5S   
 12774  12773  12776      1    1.1005e+02    3.8802e+02 ;    H5R - C15    - C14   
 12775  12773  12776      1    1.1005e+02    3.8802e+02 ;    H5S - C15    - C14   
 12776  12779  12780      1    1.1005e+02    3.8802e+02 ;    C14 - C13    - H3R   
 12776  12779  12781      1    1.1005e+02    3.8802e+02 ;    C14 - C13    - H3S   
 12776  12779  12782      1    1.1205e+02    3.9497e+02 ;    C14 - C13    - C12   
 12777  12776  12778      1    1.0835e+02    3.2995e+02 ;    H4R - C14    - H4S   
 12777  12776  12779      1    1.1005e+02    3.8802e+02 ;    H4R - C14    - C13   
 12778  12776  12779      1    1.1005e+02    3.8802e+02 ;    H4S - C14    - C13   
 12779  12782  12783      1    1.1005e+02    3.8802e+02 ;    C13 - C12    - H2R   
 12779  12782  12784      1    1.1005e+02    3.8802e+02 ;    C13 - C12    - H2S   
 12779  12782  12785      1    1.1053e+02    5.3379e+02 ;    C13 - C12    - C11   
 12780  12779  12781      1    1.0835e+02    3.2995e+02 ;    H3R - C13    - H3S   
 12780  12779  12782      1    1.1005e+02    3.8802e+02 ;    H3R - C13    - C12   
 12781  12779  12782      1    1.1005e+02    3.8802e+02 ;    H3S - C13    - C12   
 12782  12785  12786      1    1.2311e+02    5.6928e+02 ;    C12 - C11    - O12   
 12782  12785  12787      1    1.1196e+02    5.7957e+02 ;    C12 - C11    - O11   
 12783  12782  12784      1    1.0835e+02    3.2995e+02 ;    H2R - C12    - H2S   
 12783  12782  12785      1    1.0968e+02    3.9497e+02 ;    H2R - C12    - C11   
 12784  12782  12785      1    1.0968e+02    3.9497e+02 ;    H2S - C12    - C11   
 12785  12787  12788      1    1.1514e+02    5.3246e+02 ;    C11 - O11    - C1    
 12786  12785  12787      1    1.2333e+02    6.3538e+02 ;    O12 - C11    - O11   
 12787  12788  12789      1    1.0882e+02    4.2543e+02 ;    O11 - C1     - HR    
 12787  12788  12790      1    1.0882e+02    4.2543e+02 ;    O11 - C1     - HS    
 12787  12788  12791      1    1.0842e+02    5.6718e+02 ;    O11 - C1     - C2    
 12788  12791  12792      1    1.1007e+02    3.8794e+02 ;     C1 - C2     - HX    
 12788  12791  12793      1    1.1063e+02    5.2894e+02 ;     C1 - C2     - C3    
 12788  12791  12820      1    1.0842e+02    5.6718e+02 ;     C1 - C2     - O21   
 12789  12788  12790      1    1.0955e+02    3.2786e+02 ;     HR - C1     - HS    
 12789  12788  12791      1    1.1007e+02    3.8794e+02 ;     HR - C1     - C2    
 12790  12788  12791      1    1.1007e+02    3.8794e+02 ;     HS - C1     - C2    
 12791  12793  12794      1    1.1007e+02    3.8794e+02 ;     C2 - C3     - HA    
 12791  12793  12795      1    1.1007e+02    3.8794e+02 ;     C2 - C3     - HB    
 12791  12793  12796      1    1.0842e+02    5.6718e+02 ;     C2 - C3     - O31   
 12791  12820  12821      1    1.1514e+02    5.3246e+02 ;     C2 - O21    - C21   
 12792  12791  12793      1    1.1007e+02    3.8794e+02 ;     HX - C2     - C3    
 12792  12791  12820      1    1.0882e+02    4.2543e+02 ;     HX - C2     - O21   
 12793  12791  12820      1    1.0842e+02    5.6718e+02 ;     C3 - C2     - O21   
 12793  12796  12797      1    1.2050e+02    8.3680e+02 ;     C3 - O31    - P31   
 12794  12793  12795      1    1.0955e+02    3.2786e+02 ;     HA - C3     - HB    
 12794  12793  12796      1    1.0882e+02    4.2543e+02 ;     HA - C3     - O31   
 12795  12793  12796      1    1.0882e+02    4.2543e+02 ;     HB - C3     - O31   
 12796  12797  12798      1    1.0260e+02    7.5312e+02 ;    O31 - P31    - O32   
 12796  12797  12818      1    1.0823e+02    8.3680e+02 ;    O31 - P31    - O33   
 12796  12797  12819      1    1.0823e+02    8.3680e+02 ;    O31 - P31    - O34   
 12797  12798  12799      1    1.2050e+02    8.3680e+02 ;    P31 - O32    - C31   
 12798  12797  12818      1    1.0823e+02    8.3680e+02 ;    O32 - P31    - O33   
 12798  12797  12819      1    1.0823e+02    8.3680e+02 ;    O32 - P31    - O34   
 12798  12799  12800      1    1.0882e+02    4.2543e+02 ;    O32 - C31    - H1A   
 12798  12799  12801      1    1.0882e+02    4.2543e+02 ;    O32 - C31    - H1B   
 12798  12799  12802      1    1.0842e+02    5.6718e+02 ;    O32 - C31    - C32   
 12799  12802  12803      1    1.1174e+02    3.8510e+02 ;    C31 - C32    - H2A   
 12799  12802  12804      1    1.1174e+02    3.8510e+02 ;    C31 - C32    - H2B   
 12799  12802  12805      1    1.1432e+02    5.3932e+02 ;    C31 - C32    - N31   
 12800  12799  12801      1    1.0955e+02    3.2786e+02 ;    H1A - C31    - H1B   
 12800  12799  12802      1    1.1007e+02    3.8794e+02 ;    H1A - C31    - C32   
 12801  12799  12802      1    1.1007e+02    3.8794e+02 ;    H1B - C31    - C32   
 12802  12805  12806      1    1.1064e+02    5.2585e+02 ;    C32 - N31    - C33   
 12802  12805  12810      1    1.1064e+02    5.2585e+02 ;    C32 - N31    - C34   
 12802  12805  12814      1    1.1064e+02    5.2585e+02 ;    C32 - N31    - C35   
 12803  12802  12804      1    1.1074e+02    3.2669e+02 ;    H2A - C32    - H2B   
 12803  12802  12805      1    1.0791e+02    4.1020e+02 ;    H2A - C32    - N31   
 12804  12802  12805      1    1.0791e+02    4.1020e+02 ;    H2B - C32    - N31   
 12805  12806  12807      1    1.0791e+02    4.1020e+02 ;    N31 - C33    - H3A   
 12805  12806  12808      1    1.0791e+02    4.1020e+02 ;    N31 - C33    - H3B   
 12805  12806  12809      1    1.0791e+02    4.1020e+02 ;    N31 - C33    - H3C   
 12805  12810  12811      1    1.0791e+02    4.1020e+02 ;    N31 - C34    - H4A   
 12805  12810  12812      1    1.0791e+02    4.1020e+02 ;    N31 - C34    - H4B   
 12805  12810  12813      1    1.0791e+02    4.1020e+02 ;    N31 - C34    - H4C   
 12805  12814  12815      1    1.0791e+02    4.1020e+02 ;    N31 - C35    - H5A   
 12805  12814  12816      1    1.0791e+02    4.1020e+02 ;    N31 - C35    - H5B   
 12805  12814  12817      1    1.0791e+02    4.1020e+02 ;    N31 - C35    - H5C   
 12806  12805  12810      1    1.1064e+02    5.2585e+02 ;    C33 - N31    - C34   
 12806  12805  12814      1    1.1064e+02    5.2585e+02 ;    C33 - N31    - C35   
 12807  12806  12808      1    1.1074e+02    3.2669e+02 ;    H3A - C33    - H3B   
 12807  12806  12809      1    1.1074e+02    3.2669e+02 ;    H3A - C33    - H3C   
 12808  12806  12809      1    1.1074e+02    3.2669e+02 ;    H3B - C33    - H3C   
 12810  12805  12814      1    1.1064e+02    5.2585e+02 ;    C34 - N31    - C35   
 12811  12810  12812      1    1.1074e+02    3.2669e+02 ;    H4A - C34    - H4B   
 12811  12810  12813      1    1.1074e+02    3.2669e+02 ;    H4A - C34    - H4C   
 12812  12810  12813      1    1.1074e+02    3.2669e+02 ;    H4B - C34    - H4C   
 12815  12814  12816      1    1.1074e+02    3.2669e+02 ;    H5A - C35    - H5B   
 12815  12814  12817      1    1.1074e+02    3.2669e+02 ;    H5A - C35    - H5C   
 12816  12814  12817      1    1.1074e+02    3.2669e+02 ;    H5B - C35    - H5C   
 12818  12797  12819      1    1.1990e+02    1.1715e+03 ;    O33 - P31    - O34   
 12820  12821  12822      1    1.2333e+02    6.3538e+02 ;    O21 - C21    - O22   
 12820  12821  12860      1    1.1196e+02    5.7957e+02 ;    O21 - C21    - C12   
 12821  12860  12857      1    1.1053e+02    5.3379e+02 ;    C21 - C12    - C13   
 12821  12860  12861      1    1.0968e+02    3.9497e+02 ;    C21 - C12    - H2R   
 12821  12860  12862      1    1.0968e+02    3.9497e+02 ;    C21 - C12    - H2S   
 12822  12821  12860      1    1.2311e+02    5.6928e+02 ;    O22 - C21    - C12   
 12823  12824  12825      1    1.0835e+02    3.2995e+02 ;   H14T - C114   - H14R  
 12823  12824  12826      1    1.0835e+02    3.2995e+02 ;   H14T - C114   - H14S  
 12823  12824  12827      1    1.1005e+02    3.8802e+02 ;   H14T - C114   - C113  
 12824  12827  12828      1    1.1005e+02    3.8802e+02 ;   C114 - C113   - H13R  
 12824  12827  12829      1    1.1005e+02    3.8802e+02 ;   C114 - C113   - H13S  
 12824  12827  12830      1    1.1205e+02    3.9497e+02 ;   C114 - C113   - C112  
 12825  12824  12826      1    1.0835e+02    3.2995e+02 ;   H14R - C114   - H14S  
 12825  12824  12827      1    1.1005e+02    3.8802e+02 ;   H14R - C114   - C113  
 12826  12824  12827      1    1.1005e+02    3.8802e+02 ;   H14S - C114   - C113  
 12827  12830  12831      1    1.1005e+02    3.8802e+02 ;   C113 - C112   - H12R  
 12827  12830  12832      1    1.1005e+02    3.8802e+02 ;   C113 - C112   - H12S  
 12827  12830  12833      1    1.1205e+02    3.9497e+02 ;   C113 - C112   - C111  
 12828  12827  12829      1    1.0835e+02    3.2995e+02 ;   H13R - C113   - H13S  
 12828  12827  12830      1    1.1005e+02    3.8802e+02 ;   H13R - C113   - C112  
 12829  12827  12830      1    1.1005e+02    3.8802e+02 ;   H13S - C113   - C112  
 12830  12833  12834      1    1.1005e+02    3.8802e+02 ;   C112 - C111   - H11R  
 12830  12833  12835      1    1.1005e+02    3.8802e+02 ;   C112 - C111   - H11S  
 12830  12833  12836      1    1.1205e+02    3.9497e+02 ;   C112 - C111   - C110  
 12831  12830  12832      1    1.0835e+02    3.2995e+02 ;   H12R - C112   - H12S  
 12831  12830  12833      1    1.1005e+02    3.8802e+02 ;   H12R - C112   - C111  
 12832  12830  12833      1    1.1005e+02    3.8802e+02 ;   H12S - C112   - C111  
 12833  12836  12837      1    1.1005e+02    3.8802e+02 ;   C111 - C110   - H10R  
 12833  12836  12838      1    1.1005e+02    3.8802e+02 ;   C111 - C110   - H10S  
 12833  12836  12839      1    1.1205e+02    3.9497e+02 ;   C111 - C110   - C19   
 12834  12833  12835      1    1.0835e+02    3.2995e+02 ;   H11R - C111   - H11S  
 12834  12833  12836      1    1.1005e+02    3.8802e+02 ;   H11R - C111   - C110  
 12835  12833  12836      1    1.1005e+02    3.8802e+02 ;   H11S - C111   - C110  
 12836  12839  12840      1    1.1005e+02    3.8802e+02 ;   C110 - C19    - H9R   
 12836  12839  12841      1    1.1005e+02    3.8802e+02 ;   C110 - C19    - H9S   
 12836  12839  12842      1    1.1205e+02    3.9497e+02 ;   C110 - C19    - C18   
 12837  12836  12838      1    1.0835e+02    3.2995e+02 ;   H10R - C110   - H10S  
 12837  12836  12839      1    1.1005e+02    3.8802e+02 ;   H10R - C110   - C19   
 12838  12836  12839      1    1.1005e+02    3.8802e+02 ;   H10S - C110   - C19   
 12839  12842  12843      1    1.1005e+02    3.8802e+02 ;    C19 - C18    - H8R   
 12839  12842  12844      1    1.1005e+02    3.8802e+02 ;    C19 - C18    - H8S   
 12839  12842  12845      1    1.1205e+02    3.9497e+02 ;    C19 - C18    - C17   
 12840  12839  12841      1    1.0835e+02    3.2995e+02 ;    H9R - C19    - H9S   
 12840  12839  12842      1    1.1005e+02    3.8802e+02 ;    H9R - C19    - C18   
 12841  12839  12842      1    1.1005e+02    3.8802e+02 ;    H9S - C19    - C18   
 12842  12845  12846      1    1.1005e+02    3.8802e+02 ;    C18 - C17    - H7R   
 12842  12845  12847      1    1.1005e+02    3.8802e+02 ;    C18 - C17    - H7S   
 12842  12845  12848      1    1.1205e+02    3.9497e+02 ;    C18 - C17    - C16   
 12843  12842  12844      1    1.0835e+02    3.2995e+02 ;    H8R - C18    - H8S   
 12843  12842  12845      1    1.1005e+02    3.8802e+02 ;    H8R - C18    - C17   
 12844  12842  12845      1    1.1005e+02    3.8802e+02 ;    H8S - C18    - C17   
 12845  12848  12849      1    1.1005e+02    3.8802e+02 ;    C17 - C16    - H6R   
 12845  12848  12850      1    1.1005e+02    3.8802e+02 ;    C17 - C16    - H6S   
 12845  12848  12851      1    1.1205e+02    3.9497e+02 ;    C17 - C16    - C15   
 12846  12845  12847      1    1.0835e+02    3.2995e+02 ;    H7R - C17    - H7S   
 12846  12845  12848      1    1.1005e+02    3.8802e+02 ;    H7R - C17    - C16   
 12847  12845  12848      1    1.1005e+02    3.8802e+02 ;    H7S - C17    - C16   
 12848  12851  12852      1    1.1005e+02    3.8802e+02 ;    C16 - C15    - H5R   
 12848  12851  12853      1    1.1005e+02    3.8802e+02 ;    C16 - C15    - H5S   
 12848  12851  12854      1    1.1205e+02    3.9497e+02 ;    C16 - C15    - C14   
 12849  12848  12850      1    1.0835e+02    3.2995e+02 ;    H6R - C16    - H6S   
 12849  12848  12851      1    1.1005e+02    3.8802e+02 ;    H6R - C16    - C15   
 12850  12848  12851      1    1.1005e+02    3.8802e+02 ;    H6S - C16    - C15   
 12851  12854  12855      1    1.1005e+02    3.8802e+02 ;    C15 - C14    - H4R   
 12851  12854  12856      1    1.1005e+02    3.8802e+02 ;    C15 - C14    - H4S   
 12851  12854  12857      1    1.1205e+02    3.9497e+02 ;    C15 - C14    - C13   
 12852  12851  12853      1    1.0835e+02    3.2995e+02 ;    H5R - C15    - H5S   
 12852  12851  12854      1    1.1005e+02    3.8802e+02 ;    H5R - C15    - C14   
 12853  12851  12854      1    1.1005e+02    3.8802e+02 ;    H5S - C15    - C14   
 12854  12857  12858      1    1.1005e+02    3.8802e+02 ;    C14 - C13    - H3R   
 12854  12857  12859      1    1.1005e+02    3.8802e+02 ;    C14 - C13    - H3S   
 12854  12857  12860      1    1.1205e+02    3.9497e+02 ;    C14 - C13    - C12   
 12855  12854  12856      1    1.0835e+02    3.2995e+02 ;    H4R - C14    - H4S   
 12855  12854  12857      1    1.1005e+02    3.8802e+02 ;    H4R - C14    - C13   
 12856  12854  12857      1    1.1005e+02    3.8802e+02 ;    H4S - C14    - C13   
 12857  12860  12861      1    1.1005e+02    3.8802e+02 ;    C13 - C12    - H2R   
 12857  12860  12862      1    1.1005e+02    3.8802e+02 ;    C13 - C12    - H2S   
 12858  12857  12859      1    1.0835e+02    3.2995e+02 ;    H3R - C13    - H3S   
 12858  12857  12860      1    1.1005e+02    3.8802e+02 ;    H3R - C13    - C12   
 12859  12857  12860      1    1.1005e+02    3.8802e+02 ;    H3S - C13    - C12   
 12861  12860  12862      1    1.0835e+02    3.2995e+02 ;    H2R - C12    - H2S   
 12863  12864  12865      1    1.0835e+02    3.2995e+02 ;   H14T - C114   - H14R  
 12863  12864  12866      1    1.0835e+02    3.2995e+02 ;   H14T - C114   - H14S  
 12863  12864  12867      1    1.1005e+02    3.8802e+02 ;   H14T - C114   - C113  
 12864  12867  12868      1    1.1005e+02    3.8802e+02 ;   C114 - C113   - H13R  
 12864  12867  12869      1    1.1005e+02    3.8802e+02 ;   C114 - C113   - H13S  
 12864  12867  12870      1    1.1205e+02    3.9497e+02 ;   C114 - C113   - C112  
 12865  12864  12866      1    1.0835e+02    3.2995e+02 ;   H14R - C114   - H14S  
 12865  12864  12867      1    1.1005e+02    3.8802e+02 ;   H14R - C114   - C113  
 12866  12864  12867      1    1.1005e+02    3.8802e+02 ;   H14S - C114   - C113  
 12867  12870  12871      1    1.1005e+02    3.8802e+02 ;   C113 - C112   - H12R  
 12867  12870  12872      1    1.1005e+02    3.8802e+02 ;   C113 - C112   - H12S  
 12867  12870  12873      1    1.1205e+02    3.9497e+02 ;   C113 - C112   - C111  
 12868  12867  12869      1    1.0835e+02    3.2995e+02 ;   H13R - C113   - H13S  
 12868  12867  12870      1    1.1005e+02    3.8802e+02 ;   H13R - C113   - C112  
 12869  12867  12870      1    1.1005e+02    3.8802e+02 ;   H13S - C113   - C112  
 12870  12873  12874      1    1.1005e+02    3.8802e+02 ;   C112 - C111   - H11R  
 12870  12873  12875      1    1.1005e+02    3.8802e+02 ;   C112 - C111   - H11S  
 12870  12873  12876      1    1.1205e+02    3.9497e+02 ;   C112 - C111   - C110  
 12871  12870  12872      1    1.0835e+02    3.2995e+02 ;   H12R - C112   - H12S  
 12871  12870  12873      1    1.1005e+02    3.8802e+02 ;   H12R - C112   - C111  
 12872  12870  12873      1    1.1005e+02    3.8802e+02 ;   H12S - C112   - C111  
 12873  12876  12877      1    1.1005e+02    3.8802e+02 ;   C111 - C110   - H10R  
 12873  12876  12878      1    1.1005e+02    3.8802e+02 ;   C111 - C110   - H10S  
 12873  12876  12879      1    1.1205e+02    3.9497e+02 ;   C111 - C110   - C19   
 12874  12873  12875      1    1.0835e+02    3.2995e+02 ;   H11R - C111   - H11S  
 12874  12873  12876      1    1.1005e+02    3.8802e+02 ;   H11R - C111   - C110  
 12875  12873  12876      1    1.1005e+02    3.8802e+02 ;   H11S - C111   - C110  
 12876  12879  12880      1    1.1005e+02    3.8802e+02 ;   C110 - C19    - H9R   
 12876  12879  12881      1    1.1005e+02    3.8802e+02 ;   C110 - C19    - H9S   
 12876  12879  12882      1    1.1205e+02    3.9497e+02 ;   C110 - C19    - C18   
 12877  12876  12878      1    1.0835e+02    3.2995e+02 ;   H10R - C110   - H10S  
 12877  12876  12879      1    1.1005e+02    3.8802e+02 ;   H10R - C110   - C19   
 12878  12876  12879      1    1.1005e+02    3.8802e+02 ;   H10S - C110   - C19   
 12879  12882  12883      1    1.1005e+02    3.8802e+02 ;    C19 - C18    - H8R   
 12879  12882  12884      1    1.1005e+02    3.8802e+02 ;    C19 - C18    - H8S   
 12879  12882  12885      1    1.1205e+02    3.9497e+02 ;    C19 - C18    - C17   
 12880  12879  12881      1    1.0835e+02    3.2995e+02 ;    H9R - C19    - H9S   
 12880  12879  12882      1    1.1005e+02    3.8802e+02 ;    H9R - C19    - C18   
 12881  12879  12882      1    1.1005e+02    3.8802e+02 ;    H9S - C19    - C18   
 12882  12885  12886      1    1.1005e+02    3.8802e+02 ;    C18 - C17    - H7R   
 12882  12885  12887      1    1.1005e+02    3.8802e+02 ;    C18 - C17    - H7S   
 12882  12885  12888      1    1.1205e+02    3.9497e+02 ;    C18 - C17    - C16   
 12883  12882  12884      1    1.0835e+02    3.2995e+02 ;    H8R - C18    - H8S   
 12883  12882  12885      1    1.1005e+02    3.8802e+02 ;    H8R - C18    - C17   
 12884  12882  12885      1    1.1005e+02    3.8802e+02 ;    H8S - C18    - C17   
 12885  12888  12889      1    1.1005e+02    3.8802e+02 ;    C17 - C16    - H6R   
 12885  12888  12890      1    1.1005e+02    3.8802e+02 ;    C17 - C16    - H6S   
 12885  12888  12891      1    1.1205e+02    3.9497e+02 ;    C17 - C16    - C15   
 12886  12885  12887      1    1.0835e+02    3.2995e+02 ;    H7R - C17    - H7S   
 12886  12885  12888      1    1.1005e+02    3.8802e+02 ;    H7R - C17    - C16   
 12887  12885  12888      1    1.1005e+02    3.8802e+02 ;    H7S - C17    - C16   
 12888  12891  12892      1    1.1005e+02    3.8802e+02 ;    C16 - C15    - H5R   
 12888  12891  12893      1    1.1005e+02    3.8802e+02 ;    C16 - C15    - H5S   
 12888  12891  12894      1    1.1205e+02    3.9497e+02 ;    C16 - C15    - C14   
 12889  12888  12890      1    1.0835e+02    3.2995e+02 ;    H6R - C16    - H6S   
 12889  12888  12891      1    1.1005e+02    3.8802e+02 ;    H6R - C16    - C15   
 12890  12888  12891      1    1.1005e+02    3.8802e+02 ;    H6S - C16    - C15   
 12891  12894  12895      1    1.1005e+02    3.8802e+02 ;    C15 - C14    - H4R   
 12891  12894  12896      1    1.1005e+02    3.8802e+02 ;    C15 - C14    - H4S   
 12891  12894  12897      1    1.1205e+02    3.9497e+02 ;    C15 - C14    - C13   
 12892  12891  12893      1    1.0835e+02    3.2995e+02 ;    H5R - C15    - H5S   
 12892  12891  12894      1    1.1005e+02    3.8802e+02 ;    H5R - C15    - C14   
 12893  12891  12894      1    1.1005e+02    3.8802e+02 ;    H5S - C15    - C14   
 12894  12897  12898      1    1.1005e+02    3.8802e+02 ;    C14 - C13    - H3R   
 12894  12897  12899      1    1.1005e+02    3.8802e+02 ;    C14 - C13    - H3S   
 12894  12897  12900      1    1.1205e+02    3.9497e+02 ;    C14 - C13    - C12   
 12895  12894  12896      1    1.0835e+02    3.2995e+02 ;    H4R - C14    - H4S   
 12895  12894  12897      1    1.1005e+02    3.8802e+02 ;    H4R - C14    - C13   
 12896  12894  12897      1    1.1005e+02    3.8802e+02 ;    H4S - C14    - C13   
 12897  12900  12901      1    1.1005e+02    3.8802e+02 ;    C13 - C12    - H2R   
 12897  12900  12902      1    1.1005e+02    3.8802e+02 ;    C13 - C12    - H2S   
 12897  12900  12903      1    1.1053e+02    5.3379e+02 ;    C13 - C12    - C11   
 12898  12897  12899      1    1.0835e+02    3.2995e+02 ;    H3R - C13    - H3S   
 12898  12897  12900      1    1.1005e+02    3.8802e+02 ;    H3R - C13    - C12   
 12899  12897  12900      1    1.1005e+02    3.8802e+02 ;    H3S - C13    - C12   
 12900  12903  12904      1    1.2311e+02    5.6928e+02 ;    C12 - C11    - O12   
 12900  12903  12905      1    1.1196e+02    5.7957e+02 ;    C12 - C11    - O11   
 12901  12900  12902      1    1.0835e+02    3.2995e+02 ;    H2R - C12    - H2S   
 12901  12900  12903      1    1.0968e+02    3.9497e+02 ;    H2R - C12    - C11   
 12902  12900  12903      1    1.0968e+02    3.9497e+02 ;    H2S - C12    - C11   
 12903  12905  12906      1    1.1514e+02    5.3246e+02 ;    C11 - O11    - C1    
 12904  12903  12905      1    1.2333e+02    6.3538e+02 ;    O12 - C11    - O11   
 12905  12906  12907      1    1.0882e+02    4.2543e+02 ;    O11 - C1     - HR    
 12905  12906  12908      1    1.0882e+02    4.2543e+02 ;    O11 - C1     - HS    
 12905  12906  12909      1    1.0842e+02    5.6718e+02 ;    O11 - C1     - C2    
 12906  12909  12910      1    1.1007e+02    3.8794e+02 ;     C1 - C2     - HX    
 12906  12909  12911      1    1.1063e+02    5.2894e+02 ;     C1 - C2     - C3    
 12906  12909  12938      1    1.0842e+02    5.6718e+02 ;     C1 - C2     - O21   
 12907  12906  12908      1    1.0955e+02    3.2786e+02 ;     HR - C1     - HS    
 12907  12906  12909      1    1.1007e+02    3.8794e+02 ;     HR - C1     - C2    
 12908  12906  12909      1    1.1007e+02    3.8794e+02 ;     HS - C1     - C2    
 12909  12911  12912      1    1.1007e+02    3.8794e+02 ;     C2 - C3     - HA    
 12909  12911  12913      1    1.1007e+02    3.8794e+02 ;     C2 - C3     - HB    
 12909  12911  12914      1    1.0842e+02    5.6718e+02 ;     C2 - C3     - O31   
 12909  12938  12939      1    1.1514e+02    5.3246e+02 ;     C2 - O21    - C21   
 12910  12909  12911      1    1.1007e+02    3.8794e+02 ;     HX - C2     - C3    
 12910  12909  12938      1    1.0882e+02    4.2543e+02 ;     HX - C2     - O21   
 12911  12909  12938      1    1.0842e+02    5.6718e+02 ;     C3 - C2     - O21   
 12911  12914  12915      1    1.2050e+02    8.3680e+02 ;     C3 - O31    - P31   
 12912  12911  12913      1    1.0955e+02    3.2786e+02 ;     HA - C3     - HB    
 12912  12911  12914      1    1.0882e+02    4.2543e+02 ;     HA - C3     - O31   
 12913  12911  12914      1    1.0882e+02    4.2543e+02 ;     HB - C3     - O31   
 12914  12915  12916      1    1.0260e+02    7.5312e+02 ;    O31 - P31    - O32   
 12914  12915  12936      1    1.0823e+02    8.3680e+02 ;    O31 - P31    - O33   
 12914  12915  12937      1    1.0823e+02    8.3680e+02 ;    O31 - P31    - O34   
 12915  12916  12917      1    1.2050e+02    8.3680e+02 ;    P31 - O32    - C31   
 12916  12915  12936      1    1.0823e+02    8.3680e+02 ;    O32 - P31    - O33   
 12916  12915  12937      1    1.0823e+02    8.3680e+02 ;    O32 - P31    - O34   
 12916  12917  12918      1    1.0882e+02    4.2543e+02 ;    O32 - C31    - H1A   
 12916  12917  12919      1    1.0882e+02    4.2543e+02 ;    O32 - C31    - H1B   
 12916  12917  12920      1    1.0842e+02    5.6718e+02 ;    O32 - C31    - C32   
 12917  12920  12921      1    1.1174e+02    3.8510e+02 ;    C31 - C32    - H2A   
 12917  12920  12922      1    1.1174e+02    3.8510e+02 ;    C31 - C32    - H2B   
 12917  12920  12923      1    1.1432e+02    5.3932e+02 ;    C31 - C32    - N31   
 12918  12917  12919      1    1.0955e+02    3.2786e+02 ;    H1A - C31    - H1B   
 12918  12917  12920      1    1.1007e+02    3.8794e+02 ;    H1A - C31    - C32   
 12919  12917  12920      1    1.1007e+02    3.8794e+02 ;    H1B - C31    - C32   
 12920  12923  12924      1    1.1064e+02    5.2585e+02 ;    C32 - N31    - C33   
 12920  12923  12928      1    1.1064e+02    5.2585e+02 ;    C32 - N31    - C34   
 12920  12923  12932      1    1.1064e+02    5.2585e+02 ;    C32 - N31    - C35   
 12921  12920  12922      1    1.1074e+02    3.2669e+02 ;    H2A - C32    - H2B   
 12921  12920  12923      1    1.0791e+02    4.1020e+02 ;    H2A - C32    - N31   
 12922  12920  12923      1    1.0791e+02    4.1020e+02 ;    H2B - C32    - N31   
 12923  12924  12925      1    1.0791e+02    4.1020e+02 ;    N31 - C33    - H3A   
 12923  12924  12926      1    1.0791e+02    4.1020e+02 ;    N31 - C33    - H3B   
 12923  12924  12927      1    1.0791e+02    4.1020e+02 ;    N31 - C33    - H3C   
 12923  12928  12929      1    1.0791e+02    4.1020e+02 ;    N31 - C34    - H4A   
 12923  12928  12930      1    1.0791e+02    4.1020e+02 ;    N31 - C34    - H4B   
 12923  12928  12931      1    1.0791e+02    4.1020e+02 ;    N31 - C34    - H4C   
 12923  12932  12933      1    1.0791e+02    4.1020e+02 ;    N31 - C35    - H5A   
 12923  12932  12934      1    1.0791e+02    4.1020e+02 ;    N31 - C35    - H5B   
 12923  12932  12935      1    1.0791e+02    4.1020e+02 ;    N31 - C35    - H5C   
 12924  12923  12928      1    1.1064e+02    5.2585e+02 ;    C33 - N31    - C34   
 12924  12923  12932      1    1.1064e+02    5.2585e+02 ;    C33 - N31    - C35   
 12925  12924  12926      1    1.1074e+02    3.2669e+02 ;    H3A - C33    - H3B   
 12925  12924  12927      1    1.1074e+02    3.2669e+02 ;    H3A - C33    - H3C   
 12926  12924  12927      1    1.1074e+02    3.2669e+02 ;    H3B - C33    - H3C   
 12928  12923  12932      1    1.1064e+02    5.2585e+02 ;    C34 - N31    - C35   
 12929  12928  12930      1    1.1074e+02    3.2669e+02 ;    H4A - C34    - H4B   
 12929  12928  12931      1    1.1074e+02    3.2669e+02 ;    H4A - C34    - H4C   
 12930  12928  12931      1    1.1074e+02    3.2669e+02 ;    H4B - C34    - H4C   
 12933  12932  12934      1    1.1074e+02    3.2669e+02 ;    H5A - C35    - H5B   
 12933  12932  12935      1    1.1074e+02    3.2669e+02 ;    H5A - C35    - H5C   
 12934  12932  12935      1    1.1074e+02    3.2669e+02 ;    H5B - C35    - H5C   
 12936  12915  12937      1    1.1990e+02    1.1715e+03 ;    O33 - P31    - O34   
 12938  12939  12940      1    1.2333e+02    6.3538e+02 ;    O21 - C21    - O22   
 12938  12939  12978      1    1.1196e+02    5.7957e+02 ;    O21 - C21    - C12   
 12939  12978  12975      1    1.1053e+02    5.3379e+02 ;    C21 - C12    - C13   
 12939  12978  12979      1    1.0968e+02    3.9497e+02 ;    C21 - C12    - H2R   
 12939  12978  12980      1    1.0968e+02    3.9497e+02 ;    C21 - C12    - H2S   
 12940  12939  12978      1    1.2311e+02    5.6928e+02 ;    O22 - C21    - C12   
 12941  12942  12943      1    1.0835e+02    3.2995e+02 ;   H14T - C114   - H14R  
 12941  12942  12944      1    1.0835e+02    3.2995e+02 ;   H14T - C114   - H14S  
 12941  12942  12945      1    1.1005e+02    3.8802e+02 ;   H14T - C114   - C113  
 12942  12945  12946      1    1.1005e+02    3.8802e+02 ;   C114 - C113   - H13R  
 12942  12945  12947      1    1.1005e+02    3.8802e+02 ;   C114 - C113   - H13S  
 12942  12945  12948      1    1.1205e+02    3.9497e+02 ;   C114 - C113   - C112  
 12943  12942  12944      1    1.0835e+02    3.2995e+02 ;   H14R - C114   - H14S  
 12943  12942  12945      1    1.1005e+02    3.8802e+02 ;   H14R - C114   - C113  
 12944  12942  12945      1    1.1005e+02    3.8802e+02 ;   H14S - C114   - C113  
 12945  12948  12949      1    1.1005e+02    3.8802e+02 ;   C113 - C112   - H12R  
 12945  12948  12950      1    1.1005e+02    3.8802e+02 ;   C113 - C112   - H12S  
 12945  12948  12951      1    1.1205e+02    3.9497e+02 ;   C113 - C112   - C111  
 12946  12945  12947      1    1.0835e+02    3.2995e+02 ;   H13R - C113   - H13S  
 12946  12945  12948      1    1.1005e+02    3.8802e+02 ;   H13R - C113   - C112  
 12947  12945  12948      1    1.1005e+02    3.8802e+02 ;   H13S - C113   - C112  
 12948  12951  12952      1    1.1005e+02    3.8802e+02 ;   C112 - C111   - H11R  
 12948  12951  12953      1    1.1005e+02    3.8802e+02 ;   C112 - C111   - H11S  
 12948  12951  12954      1    1.1205e+02    3.9497e+02 ;   C112 - C111   - C110  
 12949  12948  12950      1    1.0835e+02    3.2995e+02 ;   H12R - C112   - H12S  
 12949  12948  12951      1    1.1005e+02    3.8802e+02 ;   H12R - C112   - C111  
 12950  12948  12951      1    1.1005e+02    3.8802e+02 ;   H12S - C112   - C111  
 12951  12954  12955      1    1.1005e+02    3.8802e+02 ;   C111 - C110   - H10R  
 12951  12954  12956      1    1.1005e+02    3.8802e+02 ;   C111 - C110   - H10S  
 12951  12954  12957      1    1.1205e+02    3.9497e+02 ;   C111 - C110   - C19   
 12952  12951  12953      1    1.0835e+02    3.2995e+02 ;   H11R - C111   - H11S  
 12952  12951  12954      1    1.1005e+02    3.8802e+02 ;   H11R - C111   - C110  
 12953  12951  12954      1    1.1005e+02    3.8802e+02 ;   H11S - C111   - C110  
 12954  12957  12958      1    1.1005e+02    3.8802e+02 ;   C110 - C19    - H9R   
 12954  12957  12959      1    1.1005e+02    3.8802e+02 ;   C110 - C19    - H9S   
 12954  12957  12960      1    1.1205e+02    3.9497e+02 ;   C110 - C19    - C18   
 12955  12954  12956      1    1.0835e+02    3.2995e+02 ;   H10R - C110   - H10S  
 12955  12954  12957      1    1.1005e+02    3.8802e+02 ;   H10R - C110   - C19   
 12956  12954  12957      1    1.1005e+02    3.8802e+02 ;   H10S - C110   - C19   
 12957  12960  12961      1    1.1005e+02    3.8802e+02 ;    C19 - C18    - H8R   
 12957  12960  12962      1    1.1005e+02    3.8802e+02 ;    C19 - C18    - H8S   
 12957  12960  12963      1    1.1205e+02    3.9497e+02 ;    C19 - C18    - C17   
 12958  12957  12959      1    1.0835e+02    3.2995e+02 ;    H9R - C19    - H9S   
 12958  12957  12960      1    1.1005e+02    3.8802e+02 ;    H9R - C19    - C18   
 12959  12957  12960      1    1.1005e+02    3.8802e+02 ;    H9S - C19    - C18   
 12960  12963  12964      1    1.1005e+02    3.8802e+02 ;    C18 - C17    - H7R   
 12960  12963  12965      1    1.1005e+02    3.8802e+02 ;    C18 - C17    - H7S   
 12960  12963  12966      1    1.1205e+02    3.9497e+02 ;    C18 - C17    - C16   
 12961  12960  12962      1    1.0835e+02    3.2995e+02 ;    H8R - C18    - H8S   
 12961  12960  12963      1    1.1005e+02    3.8802e+02 ;    H8R - C18    - C17   
 12962  12960  12963      1    1.1005e+02    3.8802e+02 ;    H8S - C18    - C17   
 12963  12966  12967      1    1.1005e+02    3.8802e+02 ;    C17 - C16    - H6R   
 12963  12966  12968      1    1.1005e+02    3.8802e+02 ;    C17 - C16    - H6S   
 12963  12966  12969      1    1.1205e+02    3.9497e+02 ;    C17 - C16    - C15   
 12964  12963  12965      1    1.0835e+02    3.2995e+02 ;    H7R - C17    - H7S   
 12964  12963  12966      1    1.1005e+02    3.8802e+02 ;    H7R - C17    - C16   
 12965  12963  12966      1    1.1005e+02    3.8802e+02 ;    H7S - C17    - C16   
 12966  12969  12970      1    1.1005e+02    3.8802e+02 ;    C16 - C15    - H5R   
 12966  12969  12971      1    1.1005e+02    3.8802e+02 ;    C16 - C15    - H5S   
 12966  12969  12972      1    1.1205e+02    3.9497e+02 ;    C16 - C15    - C14   
 12967  12966  12968      1    1.0835e+02    3.2995e+02 ;    H6R - C16    - H6S   
 12967  12966  12969      1    1.1005e+02    3.8802e+02 ;    H6R - C16    - C15   
 12968  12966  12969      1    1.1005e+02    3.8802e+02 ;    H6S - C16    - C15   
 12969  12972  12973      1    1.1005e+02    3.8802e+02 ;    C15 - C14    - H4R   
 12969  12972  12974      1    1.1005e+02    3.8802e+02 ;    C15 - C14    - H4S   
 12969  12972  12975      1    1.1205e+02    3.9497e+02 ;    C15 - C14    - C13   
 12970  12969  12971      1    1.0835e+02    3.2995e+02 ;    H5R - C15    - H5S   
 12970  12969  12972      1    1.1005e+02    3.8802e+02 ;    H5R - C15    - C14   
 12971  12969  12972      1    1.1005e+02    3.8802e+02 ;    H5S - C15    - C14   
 12972  12975  12976      1    1.1005e+02    3.8802e+02 ;    C14 - C13    - H3R   
 12972  12975  12977      1    1.1005e+02    3.8802e+02 ;    C14 - C13    - H3S   
 12972  12975  12978      1    1.1205e+02    3.9497e+02 ;    C14 - C13    - C12   
 12973  12972  12974      1    1.0835e+02    3.2995e+02 ;    H4R - C14    - H4S   
 12973  12972  12975      1    1.1005e+02    3.8802e+02 ;    H4R - C14    - C13   
 12974  12972  12975      1    1.1005e+02    3.8802e+02 ;    H4S - C14    - C13   
 12975  12978  12979      1    1.1005e+02    3.8802e+02 ;    C13 - C12    - H2R   
 12975  12978  12980      1    1.1005e+02    3.8802e+02 ;    C13 - C12    - H2S   
 12976  12975  12977      1    1.0835e+02    3.2995e+02 ;    H3R - C13    - H3S   
 12976  12975  12978      1    1.1005e+02    3.8802e+02 ;    H3R - C13    - C12   
 12977  12975  12978      1    1.1005e+02    3.8802e+02 ;    H3S - C13    - C12   
 12979  12978  12980      1    1.0835e+02    3.2995e+02 ;    H2R - C12    - H2S   
 12981  12982  12983      1    1.0835e+02    3.2995e+02 ;   H14T - C114   - H14R  
 12981  12982  12984      1    1.0835e+02    3.2995e+02 ;   H14T - C114   - H14S  
 12981  12982  12985      1    1.1005e+02    3.8802e+02 ;   H14T - C114   - C113  
 12982  12985  12986      1    1.1005e+02    3.8802e+02 ;   C114 - C113   - H13R  
 12982  12985  12987      1    1.1005e+02    3.8802e+02 ;   C114 - C113   - H13S  
 12982  12985  12988      1    1.1205e+02    3.9497e+02 ;   C114 - C113   - C112  
 12983  12982  12984      1    1.0835e+02    3.2995e+02 ;   H14R - C114   - H14S  
 12983  12982  12985      1    1.1005e+02    3.8802e+02 ;   H14R - C114   - C113  
 12984  12982  12985      1    1.1005e+02    3.8802e+02 ;   H14S - C114   - C113  
 12985  12988  12989      1    1.1005e+02    3.8802e+02 ;   C113 - C112   - H12R  
 12985  12988  12990      1    1.1005e+02    3.8802e+02 ;   C113 - C112   - H12S  
 12985  12988  12991      1    1.1205e+02    3.9497e+02 ;   C113 - C112   - C111  
 12986  12985  12987      1    1.0835e+02    3.2995e+02 ;   H13R - C113   - H13S  
 12986  12985  12988      1    1.1005e+02    3.8802e+02 ;   H13R - C113   - C112  
 12987  12985  12988      1    1.1005e+02    3.8802e+02 ;   H13S - C113   - C112  
 12988  12991  12992      1    1.1005e+02    3.8802e+02 ;   C112 - C111   - H11R  
 12988  12991  12993      1    1.1005e+02    3.8802e+02 ;   C112 - C111   - H11S  
 12988  12991  12994      1    1.1205e+02    3.9497e+02 ;   C112 - C111   - C110  
 12989  12988  12990      1    1.0835e+02    3.2995e+02 ;   H12R - C112   - H12S  
 12989  12988  12991      1    1.1005e+02    3.8802e+02 ;   H12R - C112   - C111  
 12990  12988  12991      1    1.1005e+02    3.8802e+02 ;   H12S - C112   - C111  
 12991  12994  12995      1    1.1005e+02    3.8802e+02 ;   C111 - C110   - H10R  
 12991  12994  12996      1    1.1005e+02    3.8802e+02 ;   C111 - C110   - H10S  
 12991  12994  12997      1    1.1205e+02    3.9497e+02 ;   C111 - C110   - C19   
 12992  12991  12993      1    1.0835e+02    3.2995e+02 ;   H11R - C111   - H11S  
 12992  12991  12994      1    1.1005e+02    3.8802e+02 ;   H11R - C111   - C110  
 12993  12991  12994      1    1.1005e+02    3.8802e+02 ;   H11S - C111   - C110  
 12994  12997  12998      1    1.1005e+02    3.8802e+02 ;   C110 - C19    - H9R   
 12994  12997  12999      1    1.1005e+02    3.8802e+02 ;   C110 - C19    - H9S   
 12994  12997  13000      1    1.1205e+02    3.9497e+02 ;   C110 - C19    - C18   
 12995  12994  12996      1    1.0835e+02    3.2995e+02 ;   H10R - C110   - H10S  
 12995  12994  12997      1    1.1005e+02    3.8802e+02 ;   H10R - C110   - C19   
 12996  12994  12997      1    1.1005e+02    3.8802e+02 ;   H10S - C110   - C19   
 12997  13000  13001      1    1.1005e+02    3.8802e+02 ;    C19 - C18    - H8R   
 12997  13000  13002      1    1.1005e+02    3.8802e+02 ;    C19 - C18    - H8S   
 12997  13000  13003      1    1.1205e+02    3.9497e+02 ;    C19 - C18    - C17   
 12998  12997  12999      1    1.0835e+02    3.2995e+02 ;    H9R - C19    - H9S   
 12998  12997  13000      1    1.1005e+02    3.8802e+02 ;    H9R - C19    - C18   
 12999  12997  13000      1    1.1005e+02    3.8802e+02 ;    H9S - C19    - C18   
 13000  13003  13004      1    1.1005e+02    3.8802e+02 ;    C18 - C17    - H7R   
 13000  13003  13005      1    1.1005e+02    3.8802e+02 ;    C18 - C17    - H7S   
 13000  13003  13006      1    1.1205e+02    3.9497e+02 ;    C18 - C17    - C16   
 13001  13000  13002      1    1.0835e+02    3.2995e+02 ;    H8R - C18    - H8S   
 13001  13000  13003      1    1.1005e+02    3.8802e+02 ;    H8R - C18    - C17   
 13002  13000  13003      1    1.1005e+02    3.8802e+02 ;    H8S - C18    - C17   
 13003  13006  13007      1    1.1005e+02    3.8802e+02 ;    C17 - C16    - H6R   
 13003  13006  13008      1    1.1005e+02    3.8802e+02 ;    C17 - C16    - H6S   
 13003  13006  13009      1    1.1205e+02    3.9497e+02 ;    C17 - C16    - C15   
 13004  13003  13005      1    1.0835e+02    3.2995e+02 ;    H7R - C17    - H7S   
 13004  13003  13006      1    1.1005e+02    3.8802e+02 ;    H7R - C17    - C16   
 13005  13003  13006      1    1.1005e+02    3.8802e+02 ;    H7S - C17    - C16   
 13006  13009  13010      1    1.1005e+02    3.8802e+02 ;    C16 - C15    - H5R   
 13006  13009  13011      1    1.1005e+02    3.8802e+02 ;    C16 - C15    - H5S   
 13006  13009  13012      1    1.1205e+02    3.9497e+02 ;    C16 - C15    - C14   
 13007  13006  13008      1    1.0835e+02    3.2995e+02 ;    H6R - C16    - H6S   
 13007  13006  13009      1    1.1005e+02    3.8802e+02 ;    H6R - C16    - C15   
 13008  13006  13009      1    1.1005e+02    3.8802e+02 ;    H6S - C16    - C15   
 13009  13012  13013      1    1.1005e+02    3.8802e+02 ;    C15 - C14    - H4R   
 13009  13012  13014      1    1.1005e+02    3.8802e+02 ;    C15 - C14    - H4S   
 13009  13012  13015      1    1.1205e+02    3.9497e+02 ;    C15 - C14    - C13   
 13010  13009  13011      1    1.0835e+02    3.2995e+02 ;    H5R - C15    - H5S   
 13010  13009  13012      1    1.1005e+02    3.8802e+02 ;    H5R - C15    - C14   
 13011  13009  13012      1    1.1005e+02    3.8802e+02 ;    H5S - C15    - C14   
 13012  13015  13016      1    1.1005e+02    3.8802e+02 ;    C14 - C13    - H3R   
 13012  13015  13017      1    1.1005e+02    3.8802e+02 ;    C14 - C13    - H3S   
 13012  13015  13018      1    1.1205e+02    3.9497e+02 ;    C14 - C13    - C12   
 13013  13012  13014      1    1.0835e+02    3.2995e+02 ;    H4R - C14    - H4S   
 13013  13012  13015      1    1.1005e+02    3.8802e+02 ;    H4R - C14    - C13   
 13014  13012  13015      1    1.1005e+02    3.8802e+02 ;    H4S - C14    - C13   
 13015  13018  13019      1    1.1005e+02    3.8802e+02 ;    C13 - C12    - H2R   
 13015  13018  13020      1    1.1005e+02    3.8802e+02 ;    C13 - C12    - H2S   
 13015  13018  13021      1    1.1053e+02    5.3379e+02 ;    C13 - C12    - C11   
 13016  13015  13017      1    1.0835e+02    3.2995e+02 ;    H3R - C13    - H3S   
 13016  13015  13018      1    1.1005e+02    3.8802e+02 ;    H3R - C13    - C12   
 13017  13015  13018      1    1.1005e+02    3.8802e+02 ;    H3S - C13    - C12   
 13018  13021  13022      1    1.2311e+02    5.6928e+02 ;    C12 - C11    - O12   
 13018  13021  13023      1    1.1196e+02    5.7957e+02 ;    C12 - C11    - O11   
 13019  13018  13020      1    1.0835e+02    3.2995e+02 ;    H2R - C12    - H2S   
 13019  13018  13021      1    1.0968e+02    3.9497e+02 ;    H2R - C12    - C11   
 13020  13018  13021      1    1.0968e+02    3.9497e+02 ;    H2S - C12    - C11   
 13021  13023  13024      1    1.1514e+02    5.3246e+02 ;    C11 - O11    - C1    
 13022  13021  13023      1    1.2333e+02    6.3538e+02 ;    O12 - C11    - O11   
 13023  13024  13025      1    1.0882e+02    4.2543e+02 ;    O11 - C1     - HR    
 13023  13024  13026      1    1.0882e+02    4.2543e+02 ;    O11 - C1     - HS    
 13023  13024  13027      1    1.0842e+02    5.6718e+02 ;    O11 - C1     - C2    
 13024  13027  13028      1    1.1007e+02    3.8794e+02 ;     C1 - C2     - HX    
 13024  13027  13029      1    1.1063e+02    5.2894e+02 ;     C1 - C2     - C3    
 13024  13027  13056      1    1.0842e+02    5.6718e+02 ;     C1 - C2     - O21   
 13025  13024  13026      1    1.0955e+02    3.2786e+02 ;     HR - C1     - HS    
 13025  13024  13027      1    1.1007e+02    3.8794e+02 ;     HR - C1     - C2    
 13026  13024  13027      1    1.1007e+02    3.8794e+02 ;     HS - C1     - C2    
 13027  13029  13030      1    1.1007e+02    3.8794e+02 ;     C2 - C3     - HA    
 13027  13029  13031      1    1.1007e+02    3.8794e+02 ;     C2 - C3     - HB    
 13027  13029  13032      1    1.0842e+02    5.6718e+02 ;     C2 - C3     - O31   
 13027  13056  13057      1    1.1514e+02    5.3246e+02 ;     C2 - O21    - C21   
 13028  13027  13029      1    1.1007e+02    3.8794e+02 ;     HX - C2     - C3    
 13028  13027  13056      1    1.0882e+02    4.2543e+02 ;     HX - C2     - O21   
 13029  13027  13056      1    1.0842e+02    5.6718e+02 ;     C3 - C2     - O21   
 13029  13032  13033      1    1.2050e+02    8.3680e+02 ;     C3 - O31    - P31   
 13030  13029  13031      1    1.0955e+02    3.2786e+02 ;     HA - C3     - HB    
 13030  13029  13032      1    1.0882e+02    4.2543e+02 ;     HA - C3     - O31   
 13031  13029  13032      1    1.0882e+02    4.2543e+02 ;     HB - C3     - O31   
 13032  13033  13034      1    1.0260e+02    7.5312e+02 ;    O31 - P31    - O32   
 13032  13033  13054      1    1.0823e+02    8.3680e+02 ;    O31 - P31    - O33   
 13032  13033  13055      1    1.0823e+02    8.3680e+02 ;    O31 - P31    - O34   
 13033  13034  13035      1    1.2050e+02    8.3680e+02 ;    P31 - O32    - C31   
 13034  13033  13054      1    1.0823e+02    8.3680e+02 ;    O32 - P31    - O33   
 13034  13033  13055      1    1.0823e+02    8.3680e+02 ;    O32 - P31    - O34   
 13034  13035  13036      1    1.0882e+02    4.2543e+02 ;    O32 - C31    - H1A   
 13034  13035  13037      1    1.0882e+02    4.2543e+02 ;    O32 - C31    - H1B   
 13034  13035  13038      1    1.0842e+02    5.6718e+02 ;    O32 - C31    - C32   
 13035  13038  13039      1    1.1174e+02    3.8510e+02 ;    C31 - C32    - H2A   
 13035  13038  13040      1    1.1174e+02    3.8510e+02 ;    C31 - C32    - H2B   
 13035  13038  13041      1    1.1432e+02    5.3932e+02 ;    C31 - C32    - N31   
 13036  13035  13037      1    1.0955e+02    3.2786e+02 ;    H1A - C31    - H1B   
 13036  13035  13038      1    1.1007e+02    3.8794e+02 ;    H1A - C31    - C32   
 13037  13035  13038      1    1.1007e+02    3.8794e+02 ;    H1B - C31    - C32   
 13038  13041  13042      1    1.1064e+02    5.2585e+02 ;    C32 - N31    - C33   
 13038  13041  13046      1    1.1064e+02    5.2585e+02 ;    C32 - N31    - C34   
 13038  13041  13050      1    1.1064e+02    5.2585e+02 ;    C32 - N31    - C35   
 13039  13038  13040      1    1.1074e+02    3.2669e+02 ;    H2A - C32    - H2B   
 13039  13038  13041      1    1.0791e+02    4.1020e+02 ;    H2A - C32    - N31   
 13040  13038  13041      1    1.0791e+02    4.1020e+02 ;    H2B - C32    - N31   
 13041  13042  13043      1    1.0791e+02    4.1020e+02 ;    N31 - C33    - H3A   
 13041  13042  13044      1    1.0791e+02    4.1020e+02 ;    N31 - C33    - H3B   
 13041  13042  13045      1    1.0791e+02    4.1020e+02 ;    N31 - C33    - H3C   
 13041  13046  13047      1    1.0791e+02    4.1020e+02 ;    N31 - C34    - H4A   
 13041  13046  13048      1    1.0791e+02    4.1020e+02 ;    N31 - C34    - H4B   
 13041  13046  13049      1    1.0791e+02    4.1020e+02 ;    N31 - C34    - H4C   
 13041  13050  13051      1    1.0791e+02    4.1020e+02 ;    N31 - C35    - H5A   
 13041  13050  13052      1    1.0791e+02    4.1020e+02 ;    N31 - C35    - H5B   
 13041  13050  13053      1    1.0791e+02    4.1020e+02 ;    N31 - C35    - H5C   
 13042  13041  13046      1    1.1064e+02    5.2585e+02 ;    C33 - N31    - C34   
 13042  13041  13050      1    1.1064e+02    5.2585e+02 ;    C33 - N31    - C35   
 13043  13042  13044      1    1.1074e+02    3.2669e+02 ;    H3A - C33    - H3B   
 13043  13042  13045      1    1.1074e+02    3.2669e+02 ;    H3A - C33    - H3C   
 13044  13042  13045      1    1.1074e+02    3.2669e+02 ;    H3B - C33    - H3C   
 13046  13041  13050      1    1.1064e+02    5.2585e+02 ;    C34 - N31    - C35   
 13047  13046  13048      1    1.1074e+02    3.2669e+02 ;    H4A - C34    - H4B   
 13047  13046  13049      1    1.1074e+02    3.2669e+02 ;    H4A - C34    - H4C   
 13048  13046  13049      1    1.1074e+02    3.2669e+02 ;    H4B - C34    - H4C   
 13051  13050  13052      1    1.1074e+02    3.2669e+02 ;    H5A - C35    - H5B   
 13051  13050  13053      1    1.1074e+02    3.2669e+02 ;    H5A - C35    - H5C   
 13052  13050  13053      1    1.1074e+02    3.2669e+02 ;    H5B - C35    - H5C   
 13054  13033  13055      1    1.1990e+02    1.1715e+03 ;    O33 - P31    - O34   
 13056  13057  13058      1    1.2333e+02    6.3538e+02 ;    O21 - C21    - O22   
 13056  13057  13096      1    1.1196e+02    5.7957e+02 ;    O21 - C21    - C12   
 13057  13096  13093      1    1.1053e+02    5.3379e+02 ;    C21 - C12    - C13   
 13057  13096  13097      1    1.0968e+02    3.9497e+02 ;    C21 - C12    - H2R   
 13057  13096  13098      1    1.0968e+02    3.9497e+02 ;    C21 - C12    - H2S   
 13058  13057  13096      1    1.2311e+02    5.6928e+02 ;    O22 - C21    - C12   
 13059  13060  13061      1    1.0835e+02    3.2995e+02 ;   H14T - C114   - H14R  
 13059  13060  13062      1    1.0835e+02    3.2995e+02 ;   H14T - C114   - H14S  
 13059  13060  13063      1    1.1005e+02    3.8802e+02 ;   H14T - C114   - C113  
 13060  13063  13064      1    1.1005e+02    3.8802e+02 ;   C114 - C113   - H13R  
 13060  13063  13065      1    1.1005e+02    3.8802e+02 ;   C114 - C113   - H13S  
 13060  13063  13066      1    1.1205e+02    3.9497e+02 ;   C114 - C113   - C112  
 13061  13060  13062      1    1.0835e+02    3.2995e+02 ;   H14R - C114   - H14S  
 13061  13060  13063      1    1.1005e+02    3.8802e+02 ;   H14R - C114   - C113  
 13062  13060  13063      1    1.1005e+02    3.8802e+02 ;   H14S - C114   - C113  
 13063  13066  13067      1    1.1005e+02    3.8802e+02 ;   C113 - C112   - H12R  
 13063  13066  13068      1    1.1005e+02    3.8802e+02 ;   C113 - C112   - H12S  
 13063  13066  13069      1    1.1205e+02    3.9497e+02 ;   C113 - C112   - C111  
 13064  13063  13065      1    1.0835e+02    3.2995e+02 ;   H13R - C113   - H13S  
 13064  13063  13066      1    1.1005e+02    3.8802e+02 ;   H13R - C113   - C112  
 13065  13063  13066      1    1.1005e+02    3.8802e+02 ;   H13S - C113   - C112  
 13066  13069  13070      1    1.1005e+02    3.8802e+02 ;   C112 - C111   - H11R  
 13066  13069  13071      1    1.1005e+02    3.8802e+02 ;   C112 - C111   - H11S  
 13066  13069  13072      1    1.1205e+02    3.9497e+02 ;   C112 - C111   - C110  
 13067  13066  13068      1    1.0835e+02    3.2995e+02 ;   H12R - C112   - H12S  
 13067  13066  13069      1    1.1005e+02    3.8802e+02 ;   H12R - C112   - C111  
 13068  13066  13069      1    1.1005e+02    3.8802e+02 ;   H12S - C112   - C111  
 13069  13072  13073      1    1.1005e+02    3.8802e+02 ;   C111 - C110   - H10R  
 13069  13072  13074      1    1.1005e+02    3.8802e+02 ;   C111 - C110   - H10S  
 13069  13072  13075      1    1.1205e+02    3.9497e+02 ;   C111 - C110   - C19   
 13070  13069  13071      1    1.0835e+02    3.2995e+02 ;   H11R - C111   - H11S  
 13070  13069  13072      1    1.1005e+02    3.8802e+02 ;   H11R - C111   - C110  
 13071  13069  13072      1    1.1005e+02    3.8802e+02 ;   H11S - C111   - C110  
 13072  13075  13076      1    1.1005e+02    3.8802e+02 ;   C110 - C19    - H9R   
 13072  13075  13077      1    1.1005e+02    3.8802e+02 ;   C110 - C19    - H9S   
 13072  13075  13078      1    1.1205e+02    3.9497e+02 ;   C110 - C19    - C18   
 13073  13072  13074      1    1.0835e+02    3.2995e+02 ;   H10R - C110   - H10S  
 13073  13072  13075      1    1.1005e+02    3.8802e+02 ;   H10R - C110   - C19   
 13074  13072  13075      1    1.1005e+02    3.8802e+02 ;   H10S - C110   - C19   
 13075  13078  13079      1    1.1005e+02    3.8802e+02 ;    C19 - C18    - H8R   
 13075  13078  13080      1    1.1005e+02    3.8802e+02 ;    C19 - C18    - H8S   
 13075  13078  13081      1    1.1205e+02    3.9497e+02 ;    C19 - C18    - C17   
 13076  13075  13077      1    1.0835e+02    3.2995e+02 ;    H9R - C19    - H9S   
 13076  13075  13078      1    1.1005e+02    3.8802e+02 ;    H9R - C19    - C18   
 13077  13075  13078      1    1.1005e+02    3.8802e+02 ;    H9S - C19    - C18   
 13078  13081  13082      1    1.1005e+02    3.8802e+02 ;    C18 - C17    - H7R   
 13078  13081  13083      1    1.1005e+02    3.8802e+02 ;    C18 - C17    - H7S   
 13078  13081  13084      1    1.1205e+02    3.9497e+02 ;    C18 - C17    - C16   
 13079  13078  13080      1    1.0835e+02    3.2995e+02 ;    H8R - C18    - H8S   
 13079  13078  13081      1    1.1005e+02    3.8802e+02 ;    H8R - C18    - C17   
 13080  13078  13081      1    1.1005e+02    3.8802e+02 ;    H8S - C18    - C17   
 13081  13084  13085      1    1.1005e+02    3.8802e+02 ;    C17 - C16    - H6R   
 13081  13084  13086      1    1.1005e+02    3.8802e+02 ;    C17 - C16    - H6S   
 13081  13084  13087      1    1.1205e+02    3.9497e+02 ;    C17 - C16    - C15   
 13082  13081  13083      1    1.0835e+02    3.2995e+02 ;    H7R - C17    - H7S   
 13082  13081  13084      1    1.1005e+02    3.8802e+02 ;    H7R - C17    - C16   
 13083  13081  13084      1    1.1005e+02    3.8802e+02 ;    H7S - C17    - C16   
 13084  13087  13088      1    1.1005e+02    3.8802e+02 ;    C16 - C15    - H5R   
 13084  13087  13089      1    1.1005e+02    3.8802e+02 ;    C16 - C15    - H5S   
 13084  13087  13090      1    1.1205e+02    3.9497e+02 ;    C16 - C15    - C14   
 13085  13084  13086      1    1.0835e+02    3.2995e+02 ;    H6R - C16    - H6S   
 13085  13084  13087      1    1.1005e+02    3.8802e+02 ;    H6R - C16    - C15   
 13086  13084  13087      1    1.1005e+02    3.8802e+02 ;    H6S - C16    - C15   
 13087  13090  13091      1    1.1005e+02    3.8802e+02 ;    C15 - C14    - H4R   
 13087  13090  13092      1    1.1005e+02    3.8802e+02 ;    C15 - C14    - H4S   
 13087  13090  13093      1    1.1205e+02    3.9497e+02 ;    C15 - C14    - C13   
 13088  13087  13089      1    1.0835e+02    3.2995e+02 ;    H5R - C15    - H5S   
 13088  13087  13090      1    1.1005e+02    3.8802e+02 ;    H5R - C15    - C14   
 13089  13087  13090      1    1.1005e+02    3.8802e+02 ;    H5S - C15    - C14   
 13090  13093  13094      1    1.1005e+02    3.8802e+02 ;    C14 - C13    - H3R   
 13090  13093  13095      1    1.1005e+02    3.8802e+02 ;    C14 - C13    - H3S   
 13090  13093  13096      1    1.1205e+02    3.9497e+02 ;    C14 - C13    - C12   
 13091  13090  13092      1    1.0835e+02    3.2995e+02 ;    H4R - C14    - H4S   
 13091  13090  13093      1    1.1005e+02    3.8802e+02 ;    H4R - C14    - C13   
 13092  13090  13093      1    1.1005e+02    3.8802e+02 ;    H4S - C14    - C13   
 13093  13096  13097      1    1.1005e+02    3.8802e+02 ;    C13 - C12    - H2R   
 13093  13096  13098      1    1.1005e+02    3.8802e+02 ;    C13 - C12    - H2S   
 13094  13093  13095      1    1.0835e+02    3.2995e+02 ;    H3R - C13    - H3S   
 13094  13093  13096      1    1.1005e+02    3.8802e+02 ;    H3R - C13    - C12   
 13095  13093  13096      1    1.1005e+02    3.8802e+02 ;    H3S - C13    - C12   
 13097  13096  13098      1    1.0835e+02    3.2995e+02 ;    H2R - C12    - H2S   
 13099  13100  13101      1    1.0835e+02    3.2995e+02 ;   H14T - C114   - H14R  
 13099  13100  13102      1    1.0835e+02    3.2995e+02 ;   H14T - C114   - H14S  
 13099  13100  13103      1    1.1005e+02    3.8802e+02 ;   H14T - C114   - C113  
 13100  13103  13104      1    1.1005e+02    3.8802e+02 ;   C114 - C113   - H13R  
 13100  13103  13105      1    1.1005e+02    3.8802e+02 ;   C114 - C113   - H13S  
 13100  13103  13106      1    1.1205e+02    3.9497e+02 ;   C114 - C113   - C112  
 13101  13100  13102      1    1.0835e+02    3.2995e+02 ;   H14R - C114   - H14S  
 13101  13100  13103      1    1.1005e+02    3.8802e+02 ;   H14R - C114   - C113  
 13102  13100  13103      1    1.1005e+02    3.8802e+02 ;   H14S - C114   - C113  
 13103  13106  13107      1    1.1005e+02    3.8802e+02 ;   C113 - C112   - H12R  
 13103  13106  13108      1    1.1005e+02    3.8802e+02 ;   C113 - C112   - H12S  
 13103  13106  13109      1    1.1205e+02    3.9497e+02 ;   C113 - C112   - C111  
 13104  13103  13105      1    1.0835e+02    3.2995e+02 ;   H13R - C113   - H13S  
 13104  13103  13106      1    1.1005e+02    3.8802e+02 ;   H13R - C113   - C112  
 13105  13103  13106      1    1.1005e+02    3.8802e+02 ;   H13S - C113   - C112  
 13106  13109  13110      1    1.1005e+02    3.8802e+02 ;   C112 - C111   - H11R  
 13106  13109  13111      1    1.1005e+02    3.8802e+02 ;   C112 - C111   - H11S  
 13106  13109  13112      1    1.1205e+02    3.9497e+02 ;   C112 - C111   - C110  
 13107  13106  13108      1    1.0835e+02    3.2995e+02 ;   H12R - C112   - H12S  
 13107  13106  13109      1    1.1005e+02    3.8802e+02 ;   H12R - C112   - C111  
 13108  13106  13109      1    1.1005e+02    3.8802e+02 ;   H12S - C112   - C111  
 13109  13112  13113      1    1.1005e+02    3.8802e+02 ;   C111 - C110   - H10R  
 13109  13112  13114      1    1.1005e+02    3.8802e+02 ;   C111 - C110   - H10S  
 13109  13112  13115      1    1.1205e+02    3.9497e+02 ;   C111 - C110   - C19   
 13110  13109  13111      1    1.0835e+02    3.2995e+02 ;   H11R - C111   - H11S  
 13110  13109  13112      1    1.1005e+02    3.8802e+02 ;   H11R - C111   - C110  
 13111  13109  13112      1    1.1005e+02    3.8802e+02 ;   H11S - C111   - C110  
 13112  13115  13116      1    1.1005e+02    3.8802e+02 ;   C110 - C19    - H9R   
 13112  13115  13117      1    1.1005e+02    3.8802e+02 ;   C110 - C19    - H9S   
 13112  13115  13118      1    1.1205e+02    3.9497e+02 ;   C110 - C19    - C18   
 13113  13112  13114      1    1.0835e+02    3.2995e+02 ;   H10R - C110   - H10S  
 13113  13112  13115      1    1.1005e+02    3.8802e+02 ;   H10R - C110   - C19   
 13114  13112  13115      1    1.1005e+02    3.8802e+02 ;   H10S - C110   - C19   
 13115  13118  13119      1    1.1005e+02    3.8802e+02 ;    C19 - C18    - H8R   
 13115  13118  13120      1    1.1005e+02    3.8802e+02 ;    C19 - C18    - H8S   
 13115  13118  13121      1    1.1205e+02    3.9497e+02 ;    C19 - C18    - C17   
 13116  13115  13117      1    1.0835e+02    3.2995e+02 ;    H9R - C19    - H9S   
 13116  13115  13118      1    1.1005e+02    3.8802e+02 ;    H9R - C19    - C18   
 13117  13115  13118      1    1.1005e+02    3.8802e+02 ;    H9S - C19    - C18   
 13118  13121  13122      1    1.1005e+02    3.8802e+02 ;    C18 - C17    - H7R   
 13118  13121  13123      1    1.1005e+02    3.8802e+02 ;    C18 - C17    - H7S   
 13118  13121  13124      1    1.1205e+02    3.9497e+02 ;    C18 - C17    - C16   
 13119  13118  13120      1    1.0835e+02    3.2995e+02 ;    H8R - C18    - H8S   
 13119  13118  13121      1    1.1005e+02    3.8802e+02 ;    H8R - C18    - C17   
 13120  13118  13121      1    1.1005e+02    3.8802e+02 ;    H8S - C18    - C17   
 13121  13124  13125      1    1.1005e+02    3.8802e+02 ;    C17 - C16    - H6R   
 13121  13124  13126      1    1.1005e+02    3.8802e+02 ;    C17 - C16    - H6S   
 13121  13124  13127      1    1.1205e+02    3.9497e+02 ;    C17 - C16    - C15   
 13122  13121  13123      1    1.0835e+02    3.2995e+02 ;    H7R - C17    - H7S   
 13122  13121  13124      1    1.1005e+02    3.8802e+02 ;    H7R - C17    - C16   
 13123  13121  13124      1    1.1005e+02    3.8802e+02 ;    H7S - C17    - C16   
 13124  13127  13128      1    1.1005e+02    3.8802e+02 ;    C16 - C15    - H5R   
 13124  13127  13129      1    1.1005e+02    3.8802e+02 ;    C16 - C15    - H5S   
 13124  13127  13130      1    1.1205e+02    3.9497e+02 ;    C16 - C15    - C14   
 13125  13124  13126      1    1.0835e+02    3.2995e+02 ;    H6R - C16    - H6S   
 13125  13124  13127      1    1.1005e+02    3.8802e+02 ;    H6R - C16    - C15   
 13126  13124  13127      1    1.1005e+02    3.8802e+02 ;    H6S - C16    - C15   
 13127  13130  13131      1    1.1005e+02    3.8802e+02 ;    C15 - C14    - H4R   
 13127  13130  13132      1    1.1005e+02    3.8802e+02 ;    C15 - C14    - H4S   
 13127  13130  13133      1    1.1205e+02    3.9497e+02 ;    C15 - C14    - C13   
 13128  13127  13129      1    1.0835e+02    3.2995e+02 ;    H5R - C15    - H5S   
 13128  13127  13130      1    1.1005e+02    3.8802e+02 ;    H5R - C15    - C14   
 13129  13127  13130      1    1.1005e+02    3.8802e+02 ;    H5S - C15    - C14   
 13130  13133  13134      1    1.1005e+02    3.8802e+02 ;    C14 - C13    - H3R   
 13130  13133  13135      1    1.1005e+02    3.8802e+02 ;    C14 - C13    - H3S   
 13130  13133  13136      1    1.1205e+02    3.9497e+02 ;    C14 - C13    - C12   
 13131  13130  13132      1    1.0835e+02    3.2995e+02 ;    H4R - C14    - H4S   
 13131  13130  13133      1    1.1005e+02    3.8802e+02 ;    H4R - C14    - C13   
 13132  13130  13133      1    1.1005e+02    3.8802e+02 ;    H4S - C14    - C13   
 13133  13136  13137      1    1.1005e+02    3.8802e+02 ;    C13 - C12    - H2R   
 13133  13136  13138      1    1.1005e+02    3.8802e+02 ;    C13 - C12    - H2S   
 13133  13136  13139      1    1.1053e+02    5.3379e+02 ;    C13 - C12    - C11   
 13134  13133  13135      1    1.0835e+02    3.2995e+02 ;    H3R - C13    - H3S   
 13134  13133  13136      1    1.1005e+02    3.8802e+02 ;    H3R - C13    - C12   
 13135  13133  13136      1    1.1005e+02    3.8802e+02 ;    H3S - C13    - C12   
 13136  13139  13140      1    1.2311e+02    5.6928e+02 ;    C12 - C11    - O12   
 13136  13139  13141      1    1.1196e+02    5.7957e+02 ;    C12 - C11    - O11   
 13137  13136  13138      1    1.0835e+02    3.2995e+02 ;    H2R - C12    - H2S   
 13137  13136  13139      1    1.0968e+02    3.9497e+02 ;    H2R - C12    - C11   
 13138  13136  13139      1    1.0968e+02    3.9497e+02 ;    H2S - C12    - C11   
 13139  13141  13142      1    1.1514e+02    5.3246e+02 ;    C11 - O11    - C1    
 13140  13139  13141      1    1.2333e+02    6.3538e+02 ;    O12 - C11    - O11   
 13141  13142  13143      1    1.0882e+02    4.2543e+02 ;    O11 - C1     - HR    
 13141  13142  13144      1    1.0882e+02    4.2543e+02 ;    O11 - C1     - HS    
 13141  13142  13145      1    1.0842e+02    5.6718e+02 ;    O11 - C1     - C2    
 13142  13145  13146      1    1.1007e+02    3.8794e+02 ;     C1 - C2     - HX    
 13142  13145  13147      1    1.1063e+02    5.2894e+02 ;     C1 - C2     - C3    
 13142  13145  13174      1    1.0842e+02    5.6718e+02 ;     C1 - C2     - O21   
 13143  13142  13144      1    1.0955e+02    3.2786e+02 ;     HR - C1     - HS    
 13143  13142  13145      1    1.1007e+02    3.8794e+02 ;     HR - C1     - C2    
 13144  13142  13145      1    1.1007e+02    3.8794e+02 ;     HS - C1     - C2    
 13145  13147  13148      1    1.1007e+02    3.8794e+02 ;     C2 - C3     - HA    
 13145  13147  13149      1    1.1007e+02    3.8794e+02 ;     C2 - C3     - HB    
 13145  13147  13150      1    1.0842e+02    5.6718e+02 ;     C2 - C3     - O31   
 13145  13174  13175      1    1.1514e+02    5.3246e+02 ;     C2 - O21    - C21   
 13146  13145  13147      1    1.1007e+02    3.8794e+02 ;     HX - C2     - C3    
 13146  13145  13174      1    1.0882e+02    4.2543e+02 ;     HX - C2     - O21   
 13147  13145  13174      1    1.0842e+02    5.6718e+02 ;     C3 - C2     - O21   
 13147  13150  13151      1    1.2050e+02    8.3680e+02 ;     C3 - O31    - P31   
 13148  13147  13149      1    1.0955e+02    3.2786e+02 ;     HA - C3     - HB    
 13148  13147  13150      1    1.0882e+02    4.2543e+02 ;     HA - C3     - O31   
 13149  13147  13150      1    1.0882e+02    4.2543e+02 ;     HB - C3     - O31   
 13150  13151  13152      1    1.0260e+02    7.5312e+02 ;    O31 - P31    - O32   
 13150  13151  13172      1    1.0823e+02    8.3680e+02 ;    O31 - P31    - O33   
 13150  13151  13173      1    1.0823e+02    8.3680e+02 ;    O31 - P31    - O34   
 13151  13152  13153      1    1.2050e+02    8.3680e+02 ;    P31 - O32    - C31   
 13152  13151  13172      1    1.0823e+02    8.3680e+02 ;    O32 - P31    - O33   
 13152  13151  13173      1    1.0823e+02    8.3680e+02 ;    O32 - P31    - O34   
 13152  13153  13154      1    1.0882e+02    4.2543e+02 ;    O32 - C31    - H1A   
 13152  13153  13155      1    1.0882e+02    4.2543e+02 ;    O32 - C31    - H1B   
 13152  13153  13156      1    1.0842e+02    5.6718e+02 ;    O32 - C31    - C32   
 13153  13156  13157      1    1.1174e+02    3.8510e+02 ;    C31 - C32    - H2A   
 13153  13156  13158      1    1.1174e+02    3.8510e+02 ;    C31 - C32    - H2B   
 13153  13156  13159      1    1.1432e+02    5.3932e+02 ;    C31 - C32    - N31   
 13154  13153  13155      1    1.0955e+02    3.2786e+02 ;    H1A - C31    - H1B   
 13154  13153  13156      1    1.1007e+02    3.8794e+02 ;    H1A - C31    - C32   
 13155  13153  13156      1    1.1007e+02    3.8794e+02 ;    H1B - C31    - C32   
 13156  13159  13160      1    1.1064e+02    5.2585e+02 ;    C32 - N31    - C33   
 13156  13159  13164      1    1.1064e+02    5.2585e+02 ;    C32 - N31    - C34   
 13156  13159  13168      1    1.1064e+02    5.2585e+02 ;    C32 - N31    - C35   
 13157  13156  13158      1    1.1074e+02    3.2669e+02 ;    H2A - C32    - H2B   
 13157  13156  13159      1    1.0791e+02    4.1020e+02 ;    H2A - C32    - N31   
 13158  13156  13159      1    1.0791e+02    4.1020e+02 ;    H2B - C32    - N31   
 13159  13160  13161      1    1.0791e+02    4.1020e+02 ;    N31 - C33    - H3A   
 13159  13160  13162      1    1.0791e+02    4.1020e+02 ;    N31 - C33    - H3B   
 13159  13160  13163      1    1.0791e+02    4.1020e+02 ;    N31 - C33    - H3C   
 13159  13164  13165      1    1.0791e+02    4.1020e+02 ;    N31 - C34    - H4A   
 13159  13164  13166      1    1.0791e+02    4.1020e+02 ;    N31 - C34    - H4B   
 13159  13164  13167      1    1.0791e+02    4.1020e+02 ;    N31 - C34    - H4C   
 13159  13168  13169      1    1.0791e+02    4.1020e+02 ;    N31 - C35    - H5A   
 13159  13168  13170      1    1.0791e+02    4.1020e+02 ;    N31 - C35    - H5B   
 13159  13168  13171      1    1.0791e+02    4.1020e+02 ;    N31 - C35    - H5C   
 13160  13159  13164      1    1.1064e+02    5.2585e+02 ;    C33 - N31    - C34   
 13160  13159  13168      1    1.1064e+02    5.2585e+02 ;    C33 - N31    - C35   
 13161  13160  13162      1    1.1074e+02    3.2669e+02 ;    H3A - C33    - H3B   
 13161  13160  13163      1    1.1074e+02    3.2669e+02 ;    H3A - C33    - H3C   
 13162  13160  13163      1    1.1074e+02    3.2669e+02 ;    H3B - C33    - H3C   
 13164  13159  13168      1    1.1064e+02    5.2585e+02 ;    C34 - N31    - C35   
 13165  13164  13166      1    1.1074e+02    3.2669e+02 ;    H4A - C34    - H4B   
 13165  13164  13167      1    1.1074e+02    3.2669e+02 ;    H4A - C34    - H4C   
 13166  13164  13167      1    1.1074e+02    3.2669e+02 ;    H4B - C34    - H4C   
 13169  13168  13170      1    1.1074e+02    3.2669e+02 ;    H5A - C35    - H5B   
 13169  13168  13171      1    1.1074e+02    3.2669e+02 ;    H5A - C35    - H5C   
 13170  13168  13171      1    1.1074e+02    3.2669e+02 ;    H5B - C35    - H5C   
 13172  13151  13173      1    1.1990e+02    1.1715e+03 ;    O33 - P31    - O34   
 13174  13175  13176      1    1.2333e+02    6.3538e+02 ;    O21 - C21    - O22   
 13174  13175  13214      1    1.1196e+02    5.7957e+02 ;    O21 - C21    - C12   
 13175  13214  13211      1    1.1053e+02    5.3379e+02 ;    C21 - C12    - C13   
 13175  13214  13215      1    1.0968e+02    3.9497e+02 ;    C21 - C12    - H2R   
 13175  13214  13216      1    1.0968e+02    3.9497e+02 ;    C21 - C12    - H2S   
 13176  13175  13214      1    1.2311e+02    5.6928e+02 ;    O22 - C21    - C12   
 13177  13178  13179      1    1.0835e+02    3.2995e+02 ;   H14T - C114   - H14R  
 13177  13178  13180      1    1.0835e+02    3.2995e+02 ;   H14T - C114   - H14S  
 13177  13178  13181      1    1.1005e+02    3.8802e+02 ;   H14T - C114   - C113  
 13178  13181  13182      1    1.1005e+02    3.8802e+02 ;   C114 - C113   - H13R  
 13178  13181  13183      1    1.1005e+02    3.8802e+02 ;   C114 - C113   - H13S  
 13178  13181  13184      1    1.1205e+02    3.9497e+02 ;   C114 - C113   - C112  
 13179  13178  13180      1    1.0835e+02    3.2995e+02 ;   H14R - C114   - H14S  
 13179  13178  13181      1    1.1005e+02    3.8802e+02 ;   H14R - C114   - C113  
 13180  13178  13181      1    1.1005e+02    3.8802e+02 ;   H14S - C114   - C113  
 13181  13184  13185      1    1.1005e+02    3.8802e+02 ;   C113 - C112   - H12R  
 13181  13184  13186      1    1.1005e+02    3.8802e+02 ;   C113 - C112   - H12S  
 13181  13184  13187      1    1.1205e+02    3.9497e+02 ;   C113 - C112   - C111  
 13182  13181  13183      1    1.0835e+02    3.2995e+02 ;   H13R - C113   - H13S  
 13182  13181  13184      1    1.1005e+02    3.8802e+02 ;   H13R - C113   - C112  
 13183  13181  13184      1    1.1005e+02    3.8802e+02 ;   H13S - C113   - C112  
 13184  13187  13188      1    1.1005e+02    3.8802e+02 ;   C112 - C111   - H11R  
 13184  13187  13189      1    1.1005e+02    3.8802e+02 ;   C112 - C111   - H11S  
 13184  13187  13190      1    1.1205e+02    3.9497e+02 ;   C112 - C111   - C110  
 13185  13184  13186      1    1.0835e+02    3.2995e+02 ;   H12R - C112   - H12S  
 13185  13184  13187      1    1.1005e+02    3.8802e+02 ;   H12R - C112   - C111  
 13186  13184  13187      1    1.1005e+02    3.8802e+02 ;   H12S - C112   - C111  
 13187  13190  13191      1    1.1005e+02    3.8802e+02 ;   C111 - C110   - H10R  
 13187  13190  13192      1    1.1005e+02    3.8802e+02 ;   C111 - C110   - H10S  
 13187  13190  13193      1    1.1205e+02    3.9497e+02 ;   C111 - C110   - C19   
 13188  13187  13189      1    1.0835e+02    3.2995e+02 ;   H11R - C111   - H11S  
 13188  13187  13190      1    1.1005e+02    3.8802e+02 ;   H11R - C111   - C110  
 13189  13187  13190      1    1.1005e+02    3.8802e+02 ;   H11S - C111   - C110  
 13190  13193  13194      1    1.1005e+02    3.8802e+02 ;   C110 - C19    - H9R   
 13190  13193  13195      1    1.1005e+02    3.8802e+02 ;   C110 - C19    - H9S   
 13190  13193  13196      1    1.1205e+02    3.9497e+02 ;   C110 - C19    - C18   
 13191  13190  13192      1    1.0835e+02    3.2995e+02 ;   H10R - C110   - H10S  
 13191  13190  13193      1    1.1005e+02    3.8802e+02 ;   H10R - C110   - C19   
 13192  13190  13193      1    1.1005e+02    3.8802e+02 ;   H10S - C110   - C19   
 13193  13196  13197      1    1.1005e+02    3.8802e+02 ;    C19 - C18    - H8R   
 13193  13196  13198      1    1.1005e+02    3.8802e+02 ;    C19 - C18    - H8S   
 13193  13196  13199      1    1.1205e+02    3.9497e+02 ;    C19 - C18    - C17   
 13194  13193  13195      1    1.0835e+02    3.2995e+02 ;    H9R - C19    - H9S   
 13194  13193  13196      1    1.1005e+02    3.8802e+02 ;    H9R - C19    - C18   
 13195  13193  13196      1    1.1005e+02    3.8802e+02 ;    H9S - C19    - C18   
 13196  13199  13200      1    1.1005e+02    3.8802e+02 ;    C18 - C17    - H7R   
 13196  13199  13201      1    1.1005e+02    3.8802e+02 ;    C18 - C17    - H7S   
 13196  13199  13202      1    1.1205e+02    3.9497e+02 ;    C18 - C17    - C16   
 13197  13196  13198      1    1.0835e+02    3.2995e+02 ;    H8R - C18    - H8S   
 13197  13196  13199      1    1.1005e+02    3.8802e+02 ;    H8R - C18    - C17   
 13198  13196  13199      1    1.1005e+02    3.8802e+02 ;    H8S - C18    - C17   
 13199  13202  13203      1    1.1005e+02    3.8802e+02 ;    C17 - C16    - H6R   
 13199  13202  13204      1    1.1005e+02    3.8802e+02 ;    C17 - C16    - H6S   
 13199  13202  13205      1    1.1205e+02    3.9497e+02 ;    C17 - C16    - C15   
 13200  13199  13201      1    1.0835e+02    3.2995e+02 ;    H7R - C17    - H7S   
 13200  13199  13202      1    1.1005e+02    3.8802e+02 ;    H7R - C17    - C16   
 13201  13199  13202      1    1.1005e+02    3.8802e+02 ;    H7S - C17    - C16   
 13202  13205  13206      1    1.1005e+02    3.8802e+02 ;    C16 - C15    - H5R   
 13202  13205  13207      1    1.1005e+02    3.8802e+02 ;    C16 - C15    - H5S   
 13202  13205  13208      1    1.1205e+02    3.9497e+02 ;    C16 - C15    - C14   
 13203  13202  13204      1    1.0835e+02    3.2995e+02 ;    H6R - C16    - H6S   
 13203  13202  13205      1    1.1005e+02    3.8802e+02 ;    H6R - C16    - C15   
 13204  13202  13205      1    1.1005e+02    3.8802e+02 ;    H6S - C16    - C15   
 13205  13208  13209      1    1.1005e+02    3.8802e+02 ;    C15 - C14    - H4R   
 13205  13208  13210      1    1.1005e+02    3.8802e+02 ;    C15 - C14    - H4S   
 13205  13208  13211      1    1.1205e+02    3.9497e+02 ;    C15 - C14    - C13   
 13206  13205  13207      1    1.0835e+02    3.2995e+02 ;    H5R - C15    - H5S   
 13206  13205  13208      1    1.1005e+02    3.8802e+02 ;    H5R - C15    - C14   
 13207  13205  13208      1    1.1005e+02    3.8802e+02 ;    H5S - C15    - C14   
 13208  13211  13212      1    1.1005e+02    3.8802e+02 ;    C14 - C13    - H3R   
 13208  13211  13213      1    1.1005e+02    3.8802e+02 ;    C14 - C13    - H3S   
 13208  13211  13214      1    1.1205e+02    3.9497e+02 ;    C14 - C13    - C12   
 13209  13208  13210      1    1.0835e+02    3.2995e+02 ;    H4R - C14    - H4S   
 13209  13208  13211      1    1.1005e+02    3.8802e+02 ;    H4R - C14    - C13   
 13210  13208  13211      1    1.1005e+02    3.8802e+02 ;    H4S - C14    - C13   
 13211  13214  13215      1    1.1005e+02    3.8802e+02 ;    C13 - C12    - H2R   
 13211  13214  13216      1    1.1005e+02    3.8802e+02 ;    C13 - C12    - H2S   
 13212  13211  13213      1    1.0835e+02    3.2995e+02 ;    H3R - C13    - H3S   
 13212  13211  13214      1    1.1005e+02    3.8802e+02 ;    H3R - C13    - C12   
 13213  13211  13214      1    1.1005e+02    3.8802e+02 ;    H3S - C13    - C12   
 13215  13214  13216      1    1.0835e+02    3.2995e+02 ;    H2R - C12    - H2S   
 13217  13218  13219      1    1.0835e+02    3.2995e+02 ;   H14T - C114   - H14R  
 13217  13218  13220      1    1.0835e+02    3.2995e+02 ;   H14T - C114   - H14S  
 13217  13218  13221      1    1.1005e+02    3.8802e+02 ;   H14T - C114   - C113  
 13218  13221  13222      1    1.1005e+02    3.8802e+02 ;   C114 - C113   - H13R  
 13218  13221  13223      1    1.1005e+02    3.8802e+02 ;   C114 - C113   - H13S  
 13218  13221  13224      1    1.1205e+02    3.9497e+02 ;   C114 - C113   - C112  
 13219  13218  13220      1    1.0835e+02    3.2995e+02 ;   H14R - C114   - H14S  
 13219  13218  13221      1    1.1005e+02    3.8802e+02 ;   H14R - C114   - C113  
 13220  13218  13221      1    1.1005e+02    3.8802e+02 ;   H14S - C114   - C113  
 13221  13224  13225      1    1.1005e+02    3.8802e+02 ;   C113 - C112   - H12R  
 13221  13224  13226      1    1.1005e+02    3.8802e+02 ;   C113 - C112   - H12S  
 13221  13224  13227      1    1.1205e+02    3.9497e+02 ;   C113 - C112   - C111  
 13222  13221  13223      1    1.0835e+02    3.2995e+02 ;   H13R - C113   - H13S  
 13222  13221  13224      1    1.1005e+02    3.8802e+02 ;   H13R - C113   - C112  
 13223  13221  13224      1    1.1005e+02    3.8802e+02 ;   H13S - C113   - C112  
 13224  13227  13228      1    1.1005e+02    3.8802e+02 ;   C112 - C111   - H11R  
 13224  13227  13229      1    1.1005e+02    3.8802e+02 ;   C112 - C111   - H11S  
 13224  13227  13230      1    1.1205e+02    3.9497e+02 ;   C112 - C111   - C110  
 13225  13224  13226      1    1.0835e+02    3.2995e+02 ;   H12R - C112   - H12S  
 13225  13224  13227      1    1.1005e+02    3.8802e+02 ;   H12R - C112   - C111  
 13226  13224  13227      1    1.1005e+02    3.8802e+02 ;   H12S - C112   - C111  
 13227  13230  13231      1    1.1005e+02    3.8802e+02 ;   C111 - C110   - H10R  
 13227  13230  13232      1    1.1005e+02    3.8802e+02 ;   C111 - C110   - H10S  
 13227  13230  13233      1    1.1205e+02    3.9497e+02 ;   C111 - C110   - C19   
 13228  13227  13229      1    1.0835e+02    3.2995e+02 ;   H11R - C111   - H11S  
 13228  13227  13230      1    1.1005e+02    3.8802e+02 ;   H11R - C111   - C110  
 13229  13227  13230      1    1.1005e+02    3.8802e+02 ;   H11S - C111   - C110  
 13230  13233  13234      1    1.1005e+02    3.8802e+02 ;   C110 - C19    - H9R   
 13230  13233  13235      1    1.1005e+02    3.8802e+02 ;   C110 - C19    - H9S   
 13230  13233  13236      1    1.1205e+02    3.9497e+02 ;   C110 - C19    - C18   
 13231  13230  13232      1    1.0835e+02    3.2995e+02 ;   H10R - C110   - H10S  
 13231  13230  13233      1    1.1005e+02    3.8802e+02 ;   H10R - C110   - C19   
 13232  13230  13233      1    1.1005e+02    3.8802e+02 ;   H10S - C110   - C19   
 13233  13236  13237      1    1.1005e+02    3.8802e+02 ;    C19 - C18    - H8R   
 13233  13236  13238      1    1.1005e+02    3.8802e+02 ;    C19 - C18    - H8S   
 13233  13236  13239      1    1.1205e+02    3.9497e+02 ;    C19 - C18    - C17   
 13234  13233  13235      1    1.0835e+02    3.2995e+02 ;    H9R - C19    - H9S   
 13234  13233  13236      1    1.1005e+02    3.8802e+02 ;    H9R - C19    - C18   
 13235  13233  13236      1    1.1005e+02    3.8802e+02 ;    H9S - C19    - C18   
 13236  13239  13240      1    1.1005e+02    3.8802e+02 ;    C18 - C17    - H7R   
 13236  13239  13241      1    1.1005e+02    3.8802e+02 ;    C18 - C17    - H7S   
 13236  13239  13242      1    1.1205e+02    3.9497e+02 ;    C18 - C17    - C16   
 13237  13236  13238      1    1.0835e+02    3.2995e+02 ;    H8R - C18    - H8S   
 13237  13236  13239      1    1.1005e+02    3.8802e+02 ;    H8R - C18    - C17   
 13238  13236  13239      1    1.1005e+02    3.8802e+02 ;    H8S - C18    - C17   
 13239  13242  13243      1    1.1005e+02    3.8802e+02 ;    C17 - C16    - H6R   
 13239  13242  13244      1    1.1005e+02    3.8802e+02 ;    C17 - C16    - H6S   
 13239  13242  13245      1    1.1205e+02    3.9497e+02 ;    C17 - C16    - C15   
 13240  13239  13241      1    1.0835e+02    3.2995e+02 ;    H7R - C17    - H7S   
 13240  13239  13242      1    1.1005e+02    3.8802e+02 ;    H7R - C17    - C16   
 13241  13239  13242      1    1.1005e+02    3.8802e+02 ;    H7S - C17    - C16   
 13242  13245  13246      1    1.1005e+02    3.8802e+02 ;    C16 - C15    - H5R   
 13242  13245  13247      1    1.1005e+02    3.8802e+02 ;    C16 - C15    - H5S   
 13242  13245  13248      1    1.1205e+02    3.9497e+02 ;    C16 - C15    - C14   
 13243  13242  13244      1    1.0835e+02    3.2995e+02 ;    H6R - C16    - H6S   
 13243  13242  13245      1    1.1005e+02    3.8802e+02 ;    H6R - C16    - C15   
 13244  13242  13245      1    1.1005e+02    3.8802e+02 ;    H6S - C16    - C15   
 13245  13248  13249      1    1.1005e+02    3.8802e+02 ;    C15 - C14    - H4R   
 13245  13248  13250      1    1.1005e+02    3.8802e+02 ;    C15 - C14    - H4S   
 13245  13248  13251      1    1.1205e+02    3.9497e+02 ;    C15 - C14    - C13   
 13246  13245  13247      1    1.0835e+02    3.2995e+02 ;    H5R - C15    - H5S   
 13246  13245  13248      1    1.1005e+02    3.8802e+02 ;    H5R - C15    - C14   
 13247  13245  13248      1    1.1005e+02    3.8802e+02 ;    H5S - C15    - C14   
 13248  13251  13252      1    1.1005e+02    3.8802e+02 ;    C14 - C13    - H3R   
 13248  13251  13253      1    1.1005e+02    3.8802e+02 ;    C14 - C13    - H3S   
 13248  13251  13254      1    1.1205e+02    3.9497e+02 ;    C14 - C13    - C12   
 13249  13248  13250      1    1.0835e+02    3.2995e+02 ;    H4R - C14    - H4S   
 13249  13248  13251      1    1.1005e+02    3.8802e+02 ;    H4R - C14    - C13   
 13250  13248  13251      1    1.1005e+02    3.8802e+02 ;    H4S - C14    - C13   
 13251  13254  13255      1    1.1005e+02    3.8802e+02 ;    C13 - C12    - H2R   
 13251  13254  13256      1    1.1005e+02    3.8802e+02 ;    C13 - C12    - H2S   
 13251  13254  13257      1    1.1053e+02    5.3379e+02 ;    C13 - C12    - C11   
 13252  13251  13253      1    1.0835e+02    3.2995e+02 ;    H3R - C13    - H3S   
 13252  13251  13254      1    1.1005e+02    3.8802e+02 ;    H3R - C13    - C12   
 13253  13251  13254      1    1.1005e+02    3.8802e+02 ;    H3S - C13    - C12   
 13254  13257  13258      1    1.2311e+02    5.6928e+02 ;    C12 - C11    - O12   
 13254  13257  13259      1    1.1196e+02    5.7957e+02 ;    C12 - C11    - O11   
 13255  13254  13256      1    1.0835e+02    3.2995e+02 ;    H2R - C12    - H2S   
 13255  13254  13257      1    1.0968e+02    3.9497e+02 ;    H2R - C12    - C11   
 13256  13254  13257      1    1.0968e+02    3.9497e+02 ;    H2S - C12    - C11   
 13257  13259  13260      1    1.1514e+02    5.3246e+02 ;    C11 - O11    - C1    
 13258  13257  13259      1    1.2333e+02    6.3538e+02 ;    O12 - C11    - O11   
 13259  13260  13261      1    1.0882e+02    4.2543e+02 ;    O11 - C1     - HR    
 13259  13260  13262      1    1.0882e+02    4.2543e+02 ;    O11 - C1     - HS    
 13259  13260  13263      1    1.0842e+02    5.6718e+02 ;    O11 - C1     - C2    
 13260  13263  13264      1    1.1007e+02    3.8794e+02 ;     C1 - C2     - HX    
 13260  13263  13265      1    1.1063e+02    5.2894e+02 ;     C1 - C2     - C3    
 13260  13263  13292      1    1.0842e+02    5.6718e+02 ;     C1 - C2     - O21   
 13261  13260  13262      1    1.0955e+02    3.2786e+02 ;     HR - C1     - HS    
 13261  13260  13263      1    1.1007e+02    3.8794e+02 ;     HR - C1     - C2    
 13262  13260  13263      1    1.1007e+02    3.8794e+02 ;     HS - C1     - C2    
 13263  13265  13266      1    1.1007e+02    3.8794e+02 ;     C2 - C3     - HA    
 13263  13265  13267      1    1.1007e+02    3.8794e+02 ;     C2 - C3     - HB    
 13263  13265  13268      1    1.0842e+02    5.6718e+02 ;     C2 - C3     - O31   
 13263  13292  13293      1    1.1514e+02    5.3246e+02 ;     C2 - O21    - C21   
 13264  13263  13265      1    1.1007e+02    3.8794e+02 ;     HX - C2     - C3    
 13264  13263  13292      1    1.0882e+02    4.2543e+02 ;     HX - C2     - O21   
 13265  13263  13292      1    1.0842e+02    5.6718e+02 ;     C3 - C2     - O21   
 13265  13268  13269      1    1.2050e+02    8.3680e+02 ;     C3 - O31    - P31   
 13266  13265  13267      1    1.0955e+02    3.2786e+02 ;     HA - C3     - HB    
 13266  13265  13268      1    1.0882e+02    4.2543e+02 ;     HA - C3     - O31   
 13267  13265  13268      1    1.0882e+02    4.2543e+02 ;     HB - C3     - O31   
 13268  13269  13270      1    1.0260e+02    7.5312e+02 ;    O31 - P31    - O32   
 13268  13269  13290      1    1.0823e+02    8.3680e+02 ;    O31 - P31    - O33   
 13268  13269  13291      1    1.0823e+02    8.3680e+02 ;    O31 - P31    - O34   
 13269  13270  13271      1    1.2050e+02    8.3680e+02 ;    P31 - O32    - C31   
 13270  13269  13290      1    1.0823e+02    8.3680e+02 ;    O32 - P31    - O33   
 13270  13269  13291      1    1.0823e+02    8.3680e+02 ;    O32 - P31    - O34   
 13270  13271  13272      1    1.0882e+02    4.2543e+02 ;    O32 - C31    - H1A   
 13270  13271  13273      1    1.0882e+02    4.2543e+02 ;    O32 - C31    - H1B   
 13270  13271  13274      1    1.0842e+02    5.6718e+02 ;    O32 - C31    - C32   
 13271  13274  13275      1    1.1174e+02    3.8510e+02 ;    C31 - C32    - H2A   
 13271  13274  13276      1    1.1174e+02    3.8510e+02 ;    C31 - C32    - H2B   
 13271  13274  13277      1    1.1432e+02    5.3932e+02 ;    C31 - C32    - N31   
 13272  13271  13273      1    1.0955e+02    3.2786e+02 ;    H1A - C31    - H1B   
 13272  13271  13274      1    1.1007e+02    3.8794e+02 ;    H1A - C31    - C32   
 13273  13271  13274      1    1.1007e+02    3.8794e+02 ;    H1B - C31    - C32   
 13274  13277  13278      1    1.1064e+02    5.2585e+02 ;    C32 - N31    - C33   
 13274  13277  13282      1    1.1064e+02    5.2585e+02 ;    C32 - N31    - C34   
 13274  13277  13286      1    1.1064e+02    5.2585e+02 ;    C32 - N31    - C35   
 13275  13274  13276      1    1.1074e+02    3.2669e+02 ;    H2A - C32    - H2B   
 13275  13274  13277      1    1.0791e+02    4.1020e+02 ;    H2A - C32    - N31   
 13276  13274  13277      1    1.0791e+02    4.1020e+02 ;    H2B - C32    - N31   
 13277  13278  13279      1    1.0791e+02    4.1020e+02 ;    N31 - C33    - H3A   
 13277  13278  13280      1    1.0791e+02    4.1020e+02 ;    N31 - C33    - H3B   
 13277  13278  13281      1    1.0791e+02    4.1020e+02 ;    N31 - C33    - H3C   
 13277  13282  13283      1    1.0791e+02    4.1020e+02 ;    N31 - C34    - H4A   
 13277  13282  13284      1    1.0791e+02    4.1020e+02 ;    N31 - C34    - H4B   
 13277  13282  13285      1    1.0791e+02    4.1020e+02 ;    N31 - C34    - H4C   
 13277  13286  13287      1    1.0791e+02    4.1020e+02 ;    N31 - C35    - H5A   
 13277  13286  13288      1    1.0791e+02    4.1020e+02 ;    N31 - C35    - H5B   
 13277  13286  13289      1    1.0791e+02    4.1020e+02 ;    N31 - C35    - H5C   
 13278  13277  13282      1    1.1064e+02    5.2585e+02 ;    C33 - N31    - C34   
 13278  13277  13286      1    1.1064e+02    5.2585e+02 ;    C33 - N31    - C35   
 13279  13278  13280      1    1.1074e+02    3.2669e+02 ;    H3A - C33    - H3B   
 13279  13278  13281      1    1.1074e+02    3.2669e+02 ;    H3A - C33    - H3C   
 13280  13278  13281      1    1.1074e+02    3.2669e+02 ;    H3B - C33    - H3C   
 13282  13277  13286      1    1.1064e+02    5.2585e+02 ;    C34 - N31    - C35   
 13283  13282  13284      1    1.1074e+02    3.2669e+02 ;    H4A - C34    - H4B   
 13283  13282  13285      1    1.1074e+02    3.2669e+02 ;    H4A - C34    - H4C   
 13284  13282  13285      1    1.1074e+02    3.2669e+02 ;    H4B - C34    - H4C   
 13287  13286  13288      1    1.1074e+02    3.2669e+02 ;    H5A - C35    - H5B   
 13287  13286  13289      1    1.1074e+02    3.2669e+02 ;    H5A - C35    - H5C   
 13288  13286  13289      1    1.1074e+02    3.2669e+02 ;    H5B - C35    - H5C   
 13290  13269  13291      1    1.1990e+02    1.1715e+03 ;    O33 - P31    - O34   
 13292  13293  13294      1    1.2333e+02    6.3538e+02 ;    O21 - C21    - O22   
 13292  13293  13332      1    1.1196e+02    5.7957e+02 ;    O21 - C21    - C12   
 13293  13332  13329      1    1.1053e+02    5.3379e+02 ;    C21 - C12    - C13   
 13293  13332  13333      1    1.0968e+02    3.9497e+02 ;    C21 - C12    - H2R   
 13293  13332  13334      1    1.0968e+02    3.9497e+02 ;    C21 - C12    - H2S   
 13294  13293  13332      1    1.2311e+02    5.6928e+02 ;    O22 - C21    - C12   
 13295  13296  13297      1    1.0835e+02    3.2995e+02 ;   H14T - C114   - H14R  
 13295  13296  13298      1    1.0835e+02    3.2995e+02 ;   H14T - C114   - H14S  
 13295  13296  13299      1    1.1005e+02    3.8802e+02 ;   H14T - C114   - C113  
 13296  13299  13300      1    1.1005e+02    3.8802e+02 ;   C114 - C113   - H13R  
 13296  13299  13301      1    1.1005e+02    3.8802e+02 ;   C114 - C113   - H13S  
 13296  13299  13302      1    1.1205e+02    3.9497e+02 ;   C114 - C113   - C112  
 13297  13296  13298      1    1.0835e+02    3.2995e+02 ;   H14R - C114   - H14S  
 13297  13296  13299      1    1.1005e+02    3.8802e+02 ;   H14R - C114   - C113  
 13298  13296  13299      1    1.1005e+02    3.8802e+02 ;   H14S - C114   - C113  
 13299  13302  13303      1    1.1005e+02    3.8802e+02 ;   C113 - C112   - H12R  
 13299  13302  13304      1    1.1005e+02    3.8802e+02 ;   C113 - C112   - H12S  
 13299  13302  13305      1    1.1205e+02    3.9497e+02 ;   C113 - C112   - C111  
 13300  13299  13301      1    1.0835e+02    3.2995e+02 ;   H13R - C113   - H13S  
 13300  13299  13302      1    1.1005e+02    3.8802e+02 ;   H13R - C113   - C112  
 13301  13299  13302      1    1.1005e+02    3.8802e+02 ;   H13S - C113   - C112  
 13302  13305  13306      1    1.1005e+02    3.8802e+02 ;   C112 - C111   - H11R  
 13302  13305  13307      1    1.1005e+02    3.8802e+02 ;   C112 - C111   - H11S  
 13302  13305  13308      1    1.1205e+02    3.9497e+02 ;   C112 - C111   - C110  
 13303  13302  13304      1    1.0835e+02    3.2995e+02 ;   H12R - C112   - H12S  
 13303  13302  13305      1    1.1005e+02    3.8802e+02 ;   H12R - C112   - C111  
 13304  13302  13305      1    1.1005e+02    3.8802e+02 ;   H12S - C112   - C111  
 13305  13308  13309      1    1.1005e+02    3.8802e+02 ;   C111 - C110   - H10R  
 13305  13308  13310      1    1.1005e+02    3.8802e+02 ;   C111 - C110   - H10S  
 13305  13308  13311      1    1.1205e+02    3.9497e+02 ;   C111 - C110   - C19   
 13306  13305  13307      1    1.0835e+02    3.2995e+02 ;   H11R - C111   - H11S  
 13306  13305  13308      1    1.1005e+02    3.8802e+02 ;   H11R - C111   - C110  
 13307  13305  13308      1    1.1005e+02    3.8802e+02 ;   H11S - C111   - C110  
 13308  13311  13312      1    1.1005e+02    3.8802e+02 ;   C110 - C19    - H9R   
 13308  13311  13313      1    1.1005e+02    3.8802e+02 ;   C110 - C19    - H9S   
 13308  13311  13314      1    1.1205e+02    3.9497e+02 ;   C110 - C19    - C18   
 13309  13308  13310      1    1.0835e+02    3.2995e+02 ;   H10R - C110   - H10S  
 13309  13308  13311      1    1.1005e+02    3.8802e+02 ;   H10R - C110   - C19   
 13310  13308  13311      1    1.1005e+02    3.8802e+02 ;   H10S - C110   - C19   
 13311  13314  13315      1    1.1005e+02    3.8802e+02 ;    C19 - C18    - H8R   
 13311  13314  13316      1    1.1005e+02    3.8802e+02 ;    C19 - C18    - H8S   
 13311  13314  13317      1    1.1205e+02    3.9497e+02 ;    C19 - C18    - C17   
 13312  13311  13313      1    1.0835e+02    3.2995e+02 ;    H9R - C19    - H9S   
 13312  13311  13314      1    1.1005e+02    3.8802e+02 ;    H9R - C19    - C18   
 13313  13311  13314      1    1.1005e+02    3.8802e+02 ;    H9S - C19    - C18   
 13314  13317  13318      1    1.1005e+02    3.8802e+02 ;    C18 - C17    - H7R   
 13314  13317  13319      1    1.1005e+02    3.8802e+02 ;    C18 - C17    - H7S   
 13314  13317  13320      1    1.1205e+02    3.9497e+02 ;    C18 - C17    - C16   
 13315  13314  13316      1    1.0835e+02    3.2995e+02 ;    H8R - C18    - H8S   
 13315  13314  13317      1    1.1005e+02    3.8802e+02 ;    H8R - C18    - C17   
 13316  13314  13317      1    1.1005e+02    3.8802e+02 ;    H8S - C18    - C17   
 13317  13320  13321      1    1.1005e+02    3.8802e+02 ;    C17 - C16    - H6R   
 13317  13320  13322      1    1.1005e+02    3.8802e+02 ;    C17 - C16    - H6S   
 13317  13320  13323      1    1.1205e+02    3.9497e+02 ;    C17 - C16    - C15   
 13318  13317  13319      1    1.0835e+02    3.2995e+02 ;    H7R - C17    - H7S   
 13318  13317  13320      1    1.1005e+02    3.8802e+02 ;    H7R - C17    - C16   
 13319  13317  13320      1    1.1005e+02    3.8802e+02 ;    H7S - C17    - C16   
 13320  13323  13324      1    1.1005e+02    3.8802e+02 ;    C16 - C15    - H5R   
 13320  13323  13325      1    1.1005e+02    3.8802e+02 ;    C16 - C15    - H5S   
 13320  13323  13326      1    1.1205e+02    3.9497e+02 ;    C16 - C15    - C14   
 13321  13320  13322      1    1.0835e+02    3.2995e+02 ;    H6R - C16    - H6S   
 13321  13320  13323      1    1.1005e+02    3.8802e+02 ;    H6R - C16    - C15   
 13322  13320  13323      1    1.1005e+02    3.8802e+02 ;    H6S - C16    - C15   
 13323  13326  13327      1    1.1005e+02    3.8802e+02 ;    C15 - C14    - H4R   
 13323  13326  13328      1    1.1005e+02    3.8802e+02 ;    C15 - C14    - H4S   
 13323  13326  13329      1    1.1205e+02    3.9497e+02 ;    C15 - C14    - C13   
 13324  13323  13325      1    1.0835e+02    3.2995e+02 ;    H5R - C15    - H5S   
 13324  13323  13326      1    1.1005e+02    3.8802e+02 ;    H5R - C15    - C14   
 13325  13323  13326      1    1.1005e+02    3.8802e+02 ;    H5S - C15    - C14   
 13326  13329  13330      1    1.1005e+02    3.8802e+02 ;    C14 - C13    - H3R   
 13326  13329  13331      1    1.1005e+02    3.8802e+02 ;    C14 - C13    - H3S   
 13326  13329  13332      1    1.1205e+02    3.9497e+02 ;    C14 - C13    - C12   
 13327  13326  13328      1    1.0835e+02    3.2995e+02 ;    H4R - C14    - H4S   
 13327  13326  13329      1    1.1005e+02    3.8802e+02 ;    H4R - C14    - C13   
 13328  13326  13329      1    1.1005e+02    3.8802e+02 ;    H4S - C14    - C13   
 13329  13332  13333      1    1.1005e+02    3.8802e+02 ;    C13 - C12    - H2R   
 13329  13332  13334      1    1.1005e+02    3.8802e+02 ;    C13 - C12    - H2S   
 13330  13329  13331      1    1.0835e+02    3.2995e+02 ;    H3R - C13    - H3S   
 13330  13329  13332      1    1.1005e+02    3.8802e+02 ;    H3R - C13    - C12   
 13331  13329  13332      1    1.1005e+02    3.8802e+02 ;    H3S - C13    - C12   
 13333  13332  13334      1    1.0835e+02    3.2995e+02 ;    H2R - C12    - H2S   
 13335  13336  13337      1    1.0835e+02    3.2995e+02 ;   H14T - C114   - H14R  
 13335  13336  13338      1    1.0835e+02    3.2995e+02 ;   H14T - C114   - H14S  
 13335  13336  13339      1    1.1005e+02    3.8802e+02 ;   H14T - C114   - C113  
 13336  13339  13340      1    1.1005e+02    3.8802e+02 ;   C114 - C113   - H13R  
 13336  13339  13341      1    1.1005e+02    3.8802e+02 ;   C114 - C113   - H13S  
 13336  13339  13342      1    1.1205e+02    3.9497e+02 ;   C114 - C113   - C112  
 13337  13336  13338      1    1.0835e+02    3.2995e+02 ;   H14R - C114   - H14S  
 13337  13336  13339      1    1.1005e+02    3.8802e+02 ;   H14R - C114   - C113  
 13338  13336  13339      1    1.1005e+02    3.8802e+02 ;   H14S - C114   - C113  
 13339  13342  13343      1    1.1005e+02    3.8802e+02 ;   C113 - C112   - H12R  
 13339  13342  13344      1    1.1005e+02    3.8802e+02 ;   C113 - C112   - H12S  
 13339  13342  13345      1    1.1205e+02    3.9497e+02 ;   C113 - C112   - C111  
 13340  13339  13341      1    1.0835e+02    3.2995e+02 ;   H13R - C113   - H13S  
 13340  13339  13342      1    1.1005e+02    3.8802e+02 ;   H13R - C113   - C112  
 13341  13339  13342      1    1.1005e+02    3.8802e+02 ;   H13S - C113   - C112  
 13342  13345  13346      1    1.1005e+02    3.8802e+02 ;   C112 - C111   - H11R  
 13342  13345  13347      1    1.1005e+02    3.8802e+02 ;   C112 - C111   - H11S  
 13342  13345  13348      1    1.1205e+02    3.9497e+02 ;   C112 - C111   - C110  
 13343  13342  13344      1    1.0835e+02    3.2995e+02 ;   H12R - C112   - H12S  
 13343  13342  13345      1    1.1005e+02    3.8802e+02 ;   H12R - C112   - C111  
 13344  13342  13345      1    1.1005e+02    3.8802e+02 ;   H12S - C112   - C111  
 13345  13348  13349      1    1.1005e+02    3.8802e+02 ;   C111 - C110   - H10R  
 13345  13348  13350      1    1.1005e+02    3.8802e+02 ;   C111 - C110   - H10S  
 13345  13348  13351      1    1.1205e+02    3.9497e+02 ;   C111 - C110   - C19   
 13346  13345  13347      1    1.0835e+02    3.2995e+02 ;   H11R - C111   - H11S  
 13346  13345  13348      1    1.1005e+02    3.8802e+02 ;   H11R - C111   - C110  
 13347  13345  13348      1    1.1005e+02    3.8802e+02 ;   H11S - C111   - C110  
 13348  13351  13352      1    1.1005e+02    3.8802e+02 ;   C110 - C19    - H9R   
 13348  13351  13353      1    1.1005e+02    3.8802e+02 ;   C110 - C19    - H9S   
 13348  13351  13354      1    1.1205e+02    3.9497e+02 ;   C110 - C19    - C18   
 13349  13348  13350      1    1.0835e+02    3.2995e+02 ;   H10R - C110   - H10S  
 13349  13348  13351      1    1.1005e+02    3.8802e+02 ;   H10R - C110   - C19   
 13350  13348  13351      1    1.1005e+02    3.8802e+02 ;   H10S - C110   - C19   
 13351  13354  13355      1    1.1005e+02    3.8802e+02 ;    C19 - C18    - H8R   
 13351  13354  13356      1    1.1005e+02    3.8802e+02 ;    C19 - C18    - H8S   
 13351  13354  13357      1    1.1205e+02    3.9497e+02 ;    C19 - C18    - C17   
 13352  13351  13353      1    1.0835e+02    3.2995e+02 ;    H9R - C19    - H9S   
 13352  13351  13354      1    1.1005e+02    3.8802e+02 ;    H9R - C19    - C18   
 13353  13351  13354      1    1.1005e+02    3.8802e+02 ;    H9S - C19    - C18   
 13354  13357  13358      1    1.1005e+02    3.8802e+02 ;    C18 - C17    - H7R   
 13354  13357  13359      1    1.1005e+02    3.8802e+02 ;    C18 - C17    - H7S   
 13354  13357  13360      1    1.1205e+02    3.9497e+02 ;    C18 - C17    - C16   
 13355  13354  13356      1    1.0835e+02    3.2995e+02 ;    H8R - C18    - H8S   
 13355  13354  13357      1    1.1005e+02    3.8802e+02 ;    H8R - C18    - C17   
 13356  13354  13357      1    1.1005e+02    3.8802e+02 ;    H8S - C18    - C17   
 13357  13360  13361      1    1.1005e+02    3.8802e+02 ;    C17 - C16    - H6R   
 13357  13360  13362      1    1.1005e+02    3.8802e+02 ;    C17 - C16    - H6S   
 13357  13360  13363      1    1.1205e+02    3.9497e+02 ;    C17 - C16    - C15   
 13358  13357  13359      1    1.0835e+02    3.2995e+02 ;    H7R - C17    - H7S   
 13358  13357  13360      1    1.1005e+02    3.8802e+02 ;    H7R - C17    - C16   
 13359  13357  13360      1    1.1005e+02    3.8802e+02 ;    H7S - C17    - C16   
 13360  13363  13364      1    1.1005e+02    3.8802e+02 ;    C16 - C15    - H5R   
 13360  13363  13365      1    1.1005e+02    3.8802e+02 ;    C16 - C15    - H5S   
 13360  13363  13366      1    1.1205e+02    3.9497e+02 ;    C16 - C15    - C14   
 13361  13360  13362      1    1.0835e+02    3.2995e+02 ;    H6R - C16    - H6S   
 13361  13360  13363      1    1.1005e+02    3.8802e+02 ;    H6R - C16    - C15   
 13362  13360  13363      1    1.1005e+02    3.8802e+02 ;    H6S - C16    - C15   
 13363  13366  13367      1    1.1005e+02    3.8802e+02 ;    C15 - C14    - H4R   
 13363  13366  13368      1    1.1005e+02    3.8802e+02 ;    C15 - C14    - H4S   
 13363  13366  13369      1    1.1205e+02    3.9497e+02 ;    C15 - C14    - C13   
 13364  13363  13365      1    1.0835e+02    3.2995e+02 ;    H5R - C15    - H5S   
 13364  13363  13366      1    1.1005e+02    3.8802e+02 ;    H5R - C15    - C14   
 13365  13363  13366      1    1.1005e+02    3.8802e+02 ;    H5S - C15    - C14   
 13366  13369  13370      1    1.1005e+02    3.8802e+02 ;    C14 - C13    - H3R   
 13366  13369  13371      1    1.1005e+02    3.8802e+02 ;    C14 - C13    - H3S   
 13366  13369  13372      1    1.1205e+02    3.9497e+02 ;    C14 - C13    - C12   
 13367  13366  13368      1    1.0835e+02    3.2995e+02 ;    H4R - C14    - H4S   
 13367  13366  13369      1    1.1005e+02    3.8802e+02 ;    H4R - C14    - C13   
 13368  13366  13369      1    1.1005e+02    3.8802e+02 ;    H4S - C14    - C13   
 13369  13372  13373      1    1.1005e+02    3.8802e+02 ;    C13 - C12    - H2R   
 13369  13372  13374      1    1.1005e+02    3.8802e+02 ;    C13 - C12    - H2S   
 13369  13372  13375      1    1.1053e+02    5.3379e+02 ;    C13 - C12    - C11   
 13370  13369  13371      1    1.0835e+02    3.2995e+02 ;    H3R - C13    - H3S   
 13370  13369  13372      1    1.1005e+02    3.8802e+02 ;    H3R - C13    - C12   
 13371  13369  13372      1    1.1005e+02    3.8802e+02 ;    H3S - C13    - C12   
 13372  13375  13376      1    1.2311e+02    5.6928e+02 ;    C12 - C11    - O12   
 13372  13375  13377      1    1.1196e+02    5.7957e+02 ;    C12 - C11    - O11   
 13373  13372  13374      1    1.0835e+02    3.2995e+02 ;    H2R - C12    - H2S   
 13373  13372  13375      1    1.0968e+02    3.9497e+02 ;    H2R - C12    - C11   
 13374  13372  13375      1    1.0968e+02    3.9497e+02 ;    H2S - C12    - C11   
 13375  13377  13378      1    1.1514e+02    5.3246e+02 ;    C11 - O11    - C1    
 13376  13375  13377      1    1.2333e+02    6.3538e+02 ;    O12 - C11    - O11   
 13377  13378  13379      1    1.0882e+02    4.2543e+02 ;    O11 - C1     - HR    
 13377  13378  13380      1    1.0882e+02    4.2543e+02 ;    O11 - C1     - HS    
 13377  13378  13381      1    1.0842e+02    5.6718e+02 ;    O11 - C1     - C2    
 13378  13381  13382      1    1.1007e+02    3.8794e+02 ;     C1 - C2     - HX    
 13378  13381  13383      1    1.1063e+02    5.2894e+02 ;     C1 - C2     - C3    
 13378  13381  13410      1    1.0842e+02    5.6718e+02 ;     C1 - C2     - O21   
 13379  13378  13380      1    1.0955e+02    3.2786e+02 ;     HR - C1     - HS    
 13379  13378  13381      1    1.1007e+02    3.8794e+02 ;     HR - C1     - C2    
 13380  13378  13381      1    1.1007e+02    3.8794e+02 ;     HS - C1     - C2    
 13381  13383  13384      1    1.1007e+02    3.8794e+02 ;     C2 - C3     - HA    
 13381  13383  13385      1    1.1007e+02    3.8794e+02 ;     C2 - C3     - HB    
 13381  13383  13386      1    1.0842e+02    5.6718e+02 ;     C2 - C3     - O31   
 13381  13410  13411      1    1.1514e+02    5.3246e+02 ;     C2 - O21    - C21   
 13382  13381  13383      1    1.1007e+02    3.8794e+02 ;     HX - C2     - C3    
 13382  13381  13410      1    1.0882e+02    4.2543e+02 ;     HX - C2     - O21   
 13383  13381  13410      1    1.0842e+02    5.6718e+02 ;     C3 - C2     - O21   
 13383  13386  13387      1    1.2050e+02    8.3680e+02 ;     C3 - O31    - P31   
 13384  13383  13385      1    1.0955e+02    3.2786e+02 ;     HA - C3     - HB    
 13384  13383  13386      1    1.0882e+02    4.2543e+02 ;     HA - C3     - O31   
 13385  13383  13386      1    1.0882e+02    4.2543e+02 ;     HB - C3     - O31   
 13386  13387  13388      1    1.0260e+02    7.5312e+02 ;    O31 - P31    - O32   
 13386  13387  13408      1    1.0823e+02    8.3680e+02 ;    O31 - P31    - O33   
 13386  13387  13409      1    1.0823e+02    8.3680e+02 ;    O31 - P31    - O34   
 13387  13388  13389      1    1.2050e+02    8.3680e+02 ;    P31 - O32    - C31   
 13388  13387  13408      1    1.0823e+02    8.3680e+02 ;    O32 - P31    - O33   
 13388  13387  13409      1    1.0823e+02    8.3680e+02 ;    O32 - P31    - O34   
 13388  13389  13390      1    1.0882e+02    4.2543e+02 ;    O32 - C31    - H1A   
 13388  13389  13391      1    1.0882e+02    4.2543e+02 ;    O32 - C31    - H1B   
 13388  13389  13392      1    1.0842e+02    5.6718e+02 ;    O32 - C31    - C32   
 13389  13392  13393      1    1.1174e+02    3.8510e+02 ;    C31 - C32    - H2A   
 13389  13392  13394      1    1.1174e+02    3.8510e+02 ;    C31 - C32    - H2B   
 13389  13392  13395      1    1.1432e+02    5.3932e+02 ;    C31 - C32    - N31   
 13390  13389  13391      1    1.0955e+02    3.2786e+02 ;    H1A - C31    - H1B   
 13390  13389  13392      1    1.1007e+02    3.8794e+02 ;    H1A - C31    - C32   
 13391  13389  13392      1    1.1007e+02    3.8794e+02 ;    H1B - C31    - C32   
 13392  13395  13396      1    1.1064e+02    5.2585e+02 ;    C32 - N31    - C33   
 13392  13395  13400      1    1.1064e+02    5.2585e+02 ;    C32 - N31    - C34   
 13392  13395  13404      1    1.1064e+02    5.2585e+02 ;    C32 - N31    - C35   
 13393  13392  13394      1    1.1074e+02    3.2669e+02 ;    H2A - C32    - H2B   
 13393  13392  13395      1    1.0791e+02    4.1020e+02 ;    H2A - C32    - N31   
 13394  13392  13395      1    1.0791e+02    4.1020e+02 ;    H2B - C32    - N31   
 13395  13396  13397      1    1.0791e+02    4.1020e+02 ;    N31 - C33    - H3A   
 13395  13396  13398      1    1.0791e+02    4.1020e+02 ;    N31 - C33    - H3B   
 13395  13396  13399      1    1.0791e+02    4.1020e+02 ;    N31 - C33    - H3C   
 13395  13400  13401      1    1.0791e+02    4.1020e+02 ;    N31 - C34    - H4A   
 13395  13400  13402      1    1.0791e+02    4.1020e+02 ;    N31 - C34    - H4B   
 13395  13400  13403      1    1.0791e+02    4.1020e+02 ;    N31 - C34    - H4C   
 13395  13404  13405      1    1.0791e+02    4.1020e+02 ;    N31 - C35    - H5A   
 13395  13404  13406      1    1.0791e+02    4.1020e+02 ;    N31 - C35    - H5B   
 13395  13404  13407      1    1.0791e+02    4.1020e+02 ;    N31 - C35    - H5C   
 13396  13395  13400      1    1.1064e+02    5.2585e+02 ;    C33 - N31    - C34   
 13396  13395  13404      1    1.1064e+02    5.2585e+02 ;    C33 - N31    - C35   
 13397  13396  13398      1    1.1074e+02    3.2669e+02 ;    H3A - C33    - H3B   
 13397  13396  13399      1    1.1074e+02    3.2669e+02 ;    H3A - C33    - H3C   
 13398  13396  13399      1    1.1074e+02    3.2669e+02 ;    H3B - C33    - H3C   
 13400  13395  13404      1    1.1064e+02    5.2585e+02 ;    C34 - N31    - C35   
 13401  13400  13402      1    1.1074e+02    3.2669e+02 ;    H4A - C34    - H4B   
 13401  13400  13403      1    1.1074e+02    3.2669e+02 ;    H4A - C34    - H4C   
 13402  13400  13403      1    1.1074e+02    3.2669e+02 ;    H4B - C34    - H4C   
 13405  13404  13406      1    1.1074e+02    3.2669e+02 ;    H5A - C35    - H5B   
 13405  13404  13407      1    1.1074e+02    3.2669e+02 ;    H5A - C35    - H5C   
 13406  13404  13407      1    1.1074e+02    3.2669e+02 ;    H5B - C35    - H5C   
 13408  13387  13409      1    1.1990e+02    1.1715e+03 ;    O33 - P31    - O34   
 13410  13411  13412      1    1.2333e+02    6.3538e+02 ;    O21 - C21    - O22   
 13410  13411  13450      1    1.1196e+02    5.7957e+02 ;    O21 - C21    - C12   
 13411  13450  13447      1    1.1053e+02    5.3379e+02 ;    C21 - C12    - C13   
 13411  13450  13451      1    1.0968e+02    3.9497e+02 ;    C21 - C12    - H2R   
 13411  13450  13452      1    1.0968e+02    3.9497e+02 ;    C21 - C12    - H2S   
 13412  13411  13450      1    1.2311e+02    5.6928e+02 ;    O22 - C21    - C12   
 13413  13414  13415      1    1.0835e+02    3.2995e+02 ;   H14T - C114   - H14R  
 13413  13414  13416      1    1.0835e+02    3.2995e+02 ;   H14T - C114   - H14S  
 13413  13414  13417      1    1.1005e+02    3.8802e+02 ;   H14T - C114   - C113  
 13414  13417  13418      1    1.1005e+02    3.8802e+02 ;   C114 - C113   - H13R  
 13414  13417  13419      1    1.1005e+02    3.8802e+02 ;   C114 - C113   - H13S  
 13414  13417  13420      1    1.1205e+02    3.9497e+02 ;   C114 - C113   - C112  
 13415  13414  13416      1    1.0835e+02    3.2995e+02 ;   H14R - C114   - H14S  
 13415  13414  13417      1    1.1005e+02    3.8802e+02 ;   H14R - C114   - C113  
 13416  13414  13417      1    1.1005e+02    3.8802e+02 ;   H14S - C114   - C113  
 13417  13420  13421      1    1.1005e+02    3.8802e+02 ;   C113 - C112   - H12R  
 13417  13420  13422      1    1.1005e+02    3.8802e+02 ;   C113 - C112   - H12S  
 13417  13420  13423      1    1.1205e+02    3.9497e+02 ;   C113 - C112   - C111  
 13418  13417  13419      1    1.0835e+02    3.2995e+02 ;   H13R - C113   - H13S  
 13418  13417  13420      1    1.1005e+02    3.8802e+02 ;   H13R - C113   - C112  
 13419  13417  13420      1    1.1005e+02    3.8802e+02 ;   H13S - C113   - C112  
 13420  13423  13424      1    1.1005e+02    3.8802e+02 ;   C112 - C111   - H11R  
 13420  13423  13425      1    1.1005e+02    3.8802e+02 ;   C112 - C111   - H11S  
 13420  13423  13426      1    1.1205e+02    3.9497e+02 ;   C112 - C111   - C110  
 13421  13420  13422      1    1.0835e+02    3.2995e+02 ;   H12R - C112   - H12S  
 13421  13420  13423      1    1.1005e+02    3.8802e+02 ;   H12R - C112   - C111  
 13422  13420  13423      1    1.1005e+02    3.8802e+02 ;   H12S - C112   - C111  
 13423  13426  13427      1    1.1005e+02    3.8802e+02 ;   C111 - C110   - H10R  
 13423  13426  13428      1    1.1005e+02    3.8802e+02 ;   C111 - C110   - H10S  
 13423  13426  13429      1    1.1205e+02    3.9497e+02 ;   C111 - C110   - C19   
 13424  13423  13425      1    1.0835e+02    3.2995e+02 ;   H11R - C111   - H11S  
 13424  13423  13426      1    1.1005e+02    3.8802e+02 ;   H11R - C111   - C110  
 13425  13423  13426      1    1.1005e+02    3.8802e+02 ;   H11S - C111   - C110  
 13426  13429  13430      1    1.1005e+02    3.8802e+02 ;   C110 - C19    - H9R   
 13426  13429  13431      1    1.1005e+02    3.8802e+02 ;   C110 - C19    - H9S   
 13426  13429  13432      1    1.1205e+02    3.9497e+02 ;   C110 - C19    - C18   
 13427  13426  13428      1    1.0835e+02    3.2995e+02 ;   H10R - C110   - H10S  
 13427  13426  13429      1    1.1005e+02    3.8802e+02 ;   H10R - C110   - C19   
 13428  13426  13429      1    1.1005e+02    3.8802e+02 ;   H10S - C110   - C19   
 13429  13432  13433      1    1.1005e+02    3.8802e+02 ;    C19 - C18    - H8R   
 13429  13432  13434      1    1.1005e+02    3.8802e+02 ;    C19 - C18    - H8S   
 13429  13432  13435      1    1.1205e+02    3.9497e+02 ;    C19 - C18    - C17   
 13430  13429  13431      1    1.0835e+02    3.2995e+02 ;    H9R - C19    - H9S   
 13430  13429  13432      1    1.1005e+02    3.8802e+02 ;    H9R - C19    - C18   
 13431  13429  13432      1    1.1005e+02    3.8802e+02 ;    H9S - C19    - C18   
 13432  13435  13436      1    1.1005e+02    3.8802e+02 ;    C18 - C17    - H7R   
 13432  13435  13437      1    1.1005e+02    3.8802e+02 ;    C18 - C17    - H7S   
 13432  13435  13438      1    1.1205e+02    3.9497e+02 ;    C18 - C17    - C16   
 13433  13432  13434      1    1.0835e+02    3.2995e+02 ;    H8R - C18    - H8S   
 13433  13432  13435      1    1.1005e+02    3.8802e+02 ;    H8R - C18    - C17   
 13434  13432  13435      1    1.1005e+02    3.8802e+02 ;    H8S - C18    - C17   
 13435  13438  13439      1    1.1005e+02    3.8802e+02 ;    C17 - C16    - H6R   
 13435  13438  13440      1    1.1005e+02    3.8802e+02 ;    C17 - C16    - H6S   
 13435  13438  13441      1    1.1205e+02    3.9497e+02 ;    C17 - C16    - C15   
 13436  13435  13437      1    1.0835e+02    3.2995e+02 ;    H7R - C17    - H7S   
 13436  13435  13438      1    1.1005e+02    3.8802e+02 ;    H7R - C17    - C16   
 13437  13435  13438      1    1.1005e+02    3.8802e+02 ;    H7S - C17    - C16   
 13438  13441  13442      1    1.1005e+02    3.8802e+02 ;    C16 - C15    - H5R   
 13438  13441  13443      1    1.1005e+02    3.8802e+02 ;    C16 - C15    - H5S   
 13438  13441  13444      1    1.1205e+02    3.9497e+02 ;    C16 - C15    - C14   
 13439  13438  13440      1    1.0835e+02    3.2995e+02 ;    H6R - C16    - H6S   
 13439  13438  13441      1    1.1005e+02    3.8802e+02 ;    H6R - C16    - C15   
 13440  13438  13441      1    1.1005e+02    3.8802e+02 ;    H6S - C16    - C15   
 13441  13444  13445      1    1.1005e+02    3.8802e+02 ;    C15 - C14    - H4R   
 13441  13444  13446      1    1.1005e+02    3.8802e+02 ;    C15 - C14    - H4S   
 13441  13444  13447      1    1.1205e+02    3.9497e+02 ;    C15 - C14    - C13   
 13442  13441  13443      1    1.0835e+02    3.2995e+02 ;    H5R - C15    - H5S   
 13442  13441  13444      1    1.1005e+02    3.8802e+02 ;    H5R - C15    - C14   
 13443  13441  13444      1    1.1005e+02    3.8802e+02 ;    H5S - C15    - C14   
 13444  13447  13448      1    1.1005e+02    3.8802e+02 ;    C14 - C13    - H3R   
 13444  13447  13449      1    1.1005e+02    3.8802e+02 ;    C14 - C13    - H3S   
 13444  13447  13450      1    1.1205e+02    3.9497e+02 ;    C14 - C13    - C12   
 13445  13444  13446      1    1.0835e+02    3.2995e+02 ;    H4R - C14    - H4S   
 13445  13444  13447      1    1.1005e+02    3.8802e+02 ;    H4R - C14    - C13   
 13446  13444  13447      1    1.1005e+02    3.8802e+02 ;    H4S - C14    - C13   
 13447  13450  13451      1    1.1005e+02    3.8802e+02 ;    C13 - C12    - H2R   
 13447  13450  13452      1    1.1005e+02    3.8802e+02 ;    C13 - C12    - H2S   
 13448  13447  13449      1    1.0835e+02    3.2995e+02 ;    H3R - C13    - H3S   
 13448  13447  13450      1    1.1005e+02    3.8802e+02 ;    H3R - C13    - C12   
 13449  13447  13450      1    1.1005e+02    3.8802e+02 ;    H3S - C13    - C12   
 13451  13450  13452      1    1.0835e+02    3.2995e+02 ;    H2R - C12    - H2S   
 13453  13454  13455      1    1.0835e+02    3.2995e+02 ;   H14T - C114   - H14R  
 13453  13454  13456      1    1.0835e+02    3.2995e+02 ;   H14T - C114   - H14S  
 13453  13454  13457      1    1.1005e+02    3.8802e+02 ;   H14T - C114   - C113  
 13454  13457  13458      1    1.1005e+02    3.8802e+02 ;   C114 - C113   - H13R  
 13454  13457  13459      1    1.1005e+02    3.8802e+02 ;   C114 - C113   - H13S  
 13454  13457  13460      1    1.1205e+02    3.9497e+02 ;   C114 - C113   - C112  
 13455  13454  13456      1    1.0835e+02    3.2995e+02 ;   H14R - C114   - H14S  
 13455  13454  13457      1    1.1005e+02    3.8802e+02 ;   H14R - C114   - C113  
 13456  13454  13457      1    1.1005e+02    3.8802e+02 ;   H14S - C114   - C113  
 13457  13460  13461      1    1.1005e+02    3.8802e+02 ;   C113 - C112   - H12R  
 13457  13460  13462      1    1.1005e+02    3.8802e+02 ;   C113 - C112   - H12S  
 13457  13460  13463      1    1.1205e+02    3.9497e+02 ;   C113 - C112   - C111  
 13458  13457  13459      1    1.0835e+02    3.2995e+02 ;   H13R - C113   - H13S  
 13458  13457  13460      1    1.1005e+02    3.8802e+02 ;   H13R - C113   - C112  
 13459  13457  13460      1    1.1005e+02    3.8802e+02 ;   H13S - C113   - C112  
 13460  13463  13464      1    1.1005e+02    3.8802e+02 ;   C112 - C111   - H11R  
 13460  13463  13465      1    1.1005e+02    3.8802e+02 ;   C112 - C111   - H11S  
 13460  13463  13466      1    1.1205e+02    3.9497e+02 ;   C112 - C111   - C110  
 13461  13460  13462      1    1.0835e+02    3.2995e+02 ;   H12R - C112   - H12S  
 13461  13460  13463      1    1.1005e+02    3.8802e+02 ;   H12R - C112   - C111  
 13462  13460  13463      1    1.1005e+02    3.8802e+02 ;   H12S - C112   - C111  
 13463  13466  13467      1    1.1005e+02    3.8802e+02 ;   C111 - C110   - H10R  
 13463  13466  13468      1    1.1005e+02    3.8802e+02 ;   C111 - C110   - H10S  
 13463  13466  13469      1    1.1205e+02    3.9497e+02 ;   C111 - C110   - C19   
 13464  13463  13465      1    1.0835e+02    3.2995e+02 ;   H11R - C111   - H11S  
 13464  13463  13466      1    1.1005e+02    3.8802e+02 ;   H11R - C111   - C110  
 13465  13463  13466      1    1.1005e+02    3.8802e+02 ;   H11S - C111   - C110  
 13466  13469  13470      1    1.1005e+02    3.8802e+02 ;   C110 - C19    - H9R   
 13466  13469  13471      1    1.1005e+02    3.8802e+02 ;   C110 - C19    - H9S   
 13466  13469  13472      1    1.1205e+02    3.9497e+02 ;   C110 - C19    - C18   
 13467  13466  13468      1    1.0835e+02    3.2995e+02 ;   H10R - C110   - H10S  
 13467  13466  13469      1    1.1005e+02    3.8802e+02 ;   H10R - C110   - C19   
 13468  13466  13469      1    1.1005e+02    3.8802e+02 ;   H10S - C110   - C19   
 13469  13472  13473      1    1.1005e+02    3.8802e+02 ;    C19 - C18    - H8R   
 13469  13472  13474      1    1.1005e+02    3.8802e+02 ;    C19 - C18    - H8S   
 13469  13472  13475      1    1.1205e+02    3.9497e+02 ;    C19 - C18    - C17   
 13470  13469  13471      1    1.0835e+02    3.2995e+02 ;    H9R - C19    - H9S   
 13470  13469  13472      1    1.1005e+02    3.8802e+02 ;    H9R - C19    - C18   
 13471  13469  13472      1    1.1005e+02    3.8802e+02 ;    H9S - C19    - C18   
 13472  13475  13476      1    1.1005e+02    3.8802e+02 ;    C18 - C17    - H7R   
 13472  13475  13477      1    1.1005e+02    3.8802e+02 ;    C18 - C17    - H7S   
 13472  13475  13478      1    1.1205e+02    3.9497e+02 ;    C18 - C17    - C16   
 13473  13472  13474      1    1.0835e+02    3.2995e+02 ;    H8R - C18    - H8S   
 13473  13472  13475      1    1.1005e+02    3.8802e+02 ;    H8R - C18    - C17   
 13474  13472  13475      1    1.1005e+02    3.8802e+02 ;    H8S - C18    - C17   
 13475  13478  13479      1    1.1005e+02    3.8802e+02 ;    C17 - C16    - H6R   
 13475  13478  13480      1    1.1005e+02    3.8802e+02 ;    C17 - C16    - H6S   
 13475  13478  13481      1    1.1205e+02    3.9497e+02 ;    C17 - C16    - C15   
 13476  13475  13477      1    1.0835e+02    3.2995e+02 ;    H7R - C17    - H7S   
 13476  13475  13478      1    1.1005e+02    3.8802e+02 ;    H7R - C17    - C16   
 13477  13475  13478      1    1.1005e+02    3.8802e+02 ;    H7S - C17    - C16   
 13478  13481  13482      1    1.1005e+02    3.8802e+02 ;    C16 - C15    - H5R   
 13478  13481  13483      1    1.1005e+02    3.8802e+02 ;    C16 - C15    - H5S   
 13478  13481  13484      1    1.1205e+02    3.9497e+02 ;    C16 - C15    - C14   
 13479  13478  13480      1    1.0835e+02    3.2995e+02 ;    H6R - C16    - H6S   
 13479  13478  13481      1    1.1005e+02    3.8802e+02 ;    H6R - C16    - C15   
 13480  13478  13481      1    1.1005e+02    3.8802e+02 ;    H6S - C16    - C15   
 13481  13484  13485      1    1.1005e+02    3.8802e+02 ;    C15 - C14    - H4R   
 13481  13484  13486      1    1.1005e+02    3.8802e+02 ;    C15 - C14    - H4S   
 13481  13484  13487      1    1.1205e+02    3.9497e+02 ;    C15 - C14    - C13   
 13482  13481  13483      1    1.0835e+02    3.2995e+02 ;    H5R - C15    - H5S   
 13482  13481  13484      1    1.1005e+02    3.8802e+02 ;    H5R - C15    - C14   
 13483  13481  13484      1    1.1005e+02    3.8802e+02 ;    H5S - C15    - C14   
 13484  13487  13488      1    1.1005e+02    3.8802e+02 ;    C14 - C13    - H3R   
 13484  13487  13489      1    1.1005e+02    3.8802e+02 ;    C14 - C13    - H3S   
 13484  13487  13490      1    1.1205e+02    3.9497e+02 ;    C14 - C13    - C12   
 13485  13484  13486      1    1.0835e+02    3.2995e+02 ;    H4R - C14    - H4S   
 13485  13484  13487      1    1.1005e+02    3.8802e+02 ;    H4R - C14    - C13   
 13486  13484  13487      1    1.1005e+02    3.8802e+02 ;    H4S - C14    - C13   
 13487  13490  13491      1    1.1005e+02    3.8802e+02 ;    C13 - C12    - H2R   
 13487  13490  13492      1    1.1005e+02    3.8802e+02 ;    C13 - C12    - H2S   
 13487  13490  13493      1    1.1053e+02    5.3379e+02 ;    C13 - C12    - C11   
 13488  13487  13489      1    1.0835e+02    3.2995e+02 ;    H3R - C13    - H3S   
 13488  13487  13490      1    1.1005e+02    3.8802e+02 ;    H3R - C13    - C12   
 13489  13487  13490      1    1.1005e+02    3.8802e+02 ;    H3S - C13    - C12   
 13490  13493  13494      1    1.2311e+02    5.6928e+02 ;    C12 - C11    - O12   
 13490  13493  13495      1    1.1196e+02    5.7957e+02 ;    C12 - C11    - O11   
 13491  13490  13492      1    1.0835e+02    3.2995e+02 ;    H2R - C12    - H2S   
 13491  13490  13493      1    1.0968e+02    3.9497e+02 ;    H2R - C12    - C11   
 13492  13490  13493      1    1.0968e+02    3.9497e+02 ;    H2S - C12    - C11   
 13493  13495  13496      1    1.1514e+02    5.3246e+02 ;    C11 - O11    - C1    
 13494  13493  13495      1    1.2333e+02    6.3538e+02 ;    O12 - C11    - O11   
 13495  13496  13497      1    1.0882e+02    4.2543e+02 ;    O11 - C1     - HR    
 13495  13496  13498      1    1.0882e+02    4.2543e+02 ;    O11 - C1     - HS    
 13495  13496  13499      1    1.0842e+02    5.6718e+02 ;    O11 - C1     - C2    
 13496  13499  13500      1    1.1007e+02    3.8794e+02 ;     C1 - C2     - HX    
 13496  13499  13501      1    1.1063e+02    5.2894e+02 ;     C1 - C2     - C3    
 13496  13499  13528      1    1.0842e+02    5.6718e+02 ;     C1 - C2     - O21   
 13497  13496  13498      1    1.0955e+02    3.2786e+02 ;     HR - C1     - HS    
 13497  13496  13499      1    1.1007e+02    3.8794e+02 ;     HR - C1     - C2    
 13498  13496  13499      1    1.1007e+02    3.8794e+02 ;     HS - C1     - C2    
 13499  13501  13502      1    1.1007e+02    3.8794e+02 ;     C2 - C3     - HA    
 13499  13501  13503      1    1.1007e+02    3.8794e+02 ;     C2 - C3     - HB    
 13499  13501  13504      1    1.0842e+02    5.6718e+02 ;     C2 - C3     - O31   
 13499  13528  13529      1    1.1514e+02    5.3246e+02 ;     C2 - O21    - C21   
 13500  13499  13501      1    1.1007e+02    3.8794e+02 ;     HX - C2     - C3    
 13500  13499  13528      1    1.0882e+02    4.2543e+02 ;     HX - C2     - O21   
 13501  13499  13528      1    1.0842e+02    5.6718e+02 ;     C3 - C2     - O21   
 13501  13504  13505      1    1.2050e+02    8.3680e+02 ;     C3 - O31    - P31   
 13502  13501  13503      1    1.0955e+02    3.2786e+02 ;     HA - C3     - HB    
 13502  13501  13504      1    1.0882e+02    4.2543e+02 ;     HA - C3     - O31   
 13503  13501  13504      1    1.0882e+02    4.2543e+02 ;     HB - C3     - O31   
 13504  13505  13506      1    1.0260e+02    7.5312e+02 ;    O31 - P31    - O32   
 13504  13505  13526      1    1.0823e+02    8.3680e+02 ;    O31 - P31    - O33   
 13504  13505  13527      1    1.0823e+02    8.3680e+02 ;    O31 - P31    - O34   
 13505  13506  13507      1    1.2050e+02    8.3680e+02 ;    P31 - O32    - C31   
 13506  13505  13526      1    1.0823e+02    8.3680e+02 ;    O32 - P31    - O33   
 13506  13505  13527      1    1.0823e+02    8.3680e+02 ;    O32 - P31    - O34   
 13506  13507  13508      1    1.0882e+02    4.2543e+02 ;    O32 - C31    - H1A   
 13506  13507  13509      1    1.0882e+02    4.2543e+02 ;    O32 - C31    - H1B   
 13506  13507  13510      1    1.0842e+02    5.6718e+02 ;    O32 - C31    - C32   
 13507  13510  13511      1    1.1174e+02    3.8510e+02 ;    C31 - C32    - H2A   
 13507  13510  13512      1    1.1174e+02    3.8510e+02 ;    C31 - C32    - H2B   
 13507  13510  13513      1    1.1432e+02    5.3932e+02 ;    C31 - C32    - N31   
 13508  13507  13509      1    1.0955e+02    3.2786e+02 ;    H1A - C31    - H1B   
 13508  13507  13510      1    1.1007e+02    3.8794e+02 ;    H1A - C31    - C32   
 13509  13507  13510      1    1.1007e+02    3.8794e+02 ;    H1B - C31    - C32   
 13510  13513  13514      1    1.1064e+02    5.2585e+02 ;    C32 - N31    - C33   
 13510  13513  13518      1    1.1064e+02    5.2585e+02 ;    C32 - N31    - C34   
 13510  13513  13522      1    1.1064e+02    5.2585e+02 ;    C32 - N31    - C35   
 13511  13510  13512      1    1.1074e+02    3.2669e+02 ;    H2A - C32    - H2B   
 13511  13510  13513      1    1.0791e+02    4.1020e+02 ;    H2A - C32    - N31   
 13512  13510  13513      1    1.0791e+02    4.1020e+02 ;    H2B - C32    - N31   
 13513  13514  13515      1    1.0791e+02    4.1020e+02 ;    N31 - C33    - H3A   
 13513  13514  13516      1    1.0791e+02    4.1020e+02 ;    N31 - C33    - H3B   
 13513  13514  13517      1    1.0791e+02    4.1020e+02 ;    N31 - C33    - H3C   
 13513  13518  13519      1    1.0791e+02    4.1020e+02 ;    N31 - C34    - H4A   
 13513  13518  13520      1    1.0791e+02    4.1020e+02 ;    N31 - C34    - H4B   
 13513  13518  13521      1    1.0791e+02    4.1020e+02 ;    N31 - C34    - H4C   
 13513  13522  13523      1    1.0791e+02    4.1020e+02 ;    N31 - C35    - H5A   
 13513  13522  13524      1    1.0791e+02    4.1020e+02 ;    N31 - C35    - H5B   
 13513  13522  13525      1    1.0791e+02    4.1020e+02 ;    N31 - C35    - H5C   
 13514  13513  13518      1    1.1064e+02    5.2585e+02 ;    C33 - N31    - C34   
 13514  13513  13522      1    1.1064e+02    5.2585e+02 ;    C33 - N31    - C35   
 13515  13514  13516      1    1.1074e+02    3.2669e+02 ;    H3A - C33    - H3B   
 13515  13514  13517      1    1.1074e+02    3.2669e+02 ;    H3A - C33    - H3C   
 13516  13514  13517      1    1.1074e+02    3.2669e+02 ;    H3B - C33    - H3C   
 13518  13513  13522      1    1.1064e+02    5.2585e+02 ;    C34 - N31    - C35   
 13519  13518  13520      1    1.1074e+02    3.2669e+02 ;    H4A - C34    - H4B   
 13519  13518  13521      1    1.1074e+02    3.2669e+02 ;    H4A - C34    - H4C   
 13520  13518  13521      1    1.1074e+02    3.2669e+02 ;    H4B - C34    - H4C   
 13523  13522  13524      1    1.1074e+02    3.2669e+02 ;    H5A - C35    - H5B   
 13523  13522  13525      1    1.1074e+02    3.2669e+02 ;    H5A - C35    - H5C   
 13524  13522  13525      1    1.1074e+02    3.2669e+02 ;    H5B - C35    - H5C   
 13526  13505  13527      1    1.1990e+02    1.1715e+03 ;    O33 - P31    - O34   
 13528  13529  13530      1    1.2333e+02    6.3538e+02 ;    O21 - C21    - O22   
 13528  13529  13568      1    1.1196e+02    5.7957e+02 ;    O21 - C21    - C12   
 13529  13568  13565      1    1.1053e+02    5.3379e+02 ;    C21 - C12    - C13   
 13529  13568  13569      1    1.0968e+02    3.9497e+02 ;    C21 - C12    - H2R   
 13529  13568  13570      1    1.0968e+02    3.9497e+02 ;    C21 - C12    - H2S   
 13530  13529  13568      1    1.2311e+02    5.6928e+02 ;    O22 - C21    - C12   
 13531  13532  13533      1    1.0835e+02    3.2995e+02 ;   H14T - C114   - H14R  
 13531  13532  13534      1    1.0835e+02    3.2995e+02 ;   H14T - C114   - H14S  
 13531  13532  13535      1    1.1005e+02    3.8802e+02 ;   H14T - C114   - C113  
 13532  13535  13536      1    1.1005e+02    3.8802e+02 ;   C114 - C113   - H13R  
 13532  13535  13537      1    1.1005e+02    3.8802e+02 ;   C114 - C113   - H13S  
 13532  13535  13538      1    1.1205e+02    3.9497e+02 ;   C114 - C113   - C112  
 13533  13532  13534      1    1.0835e+02    3.2995e+02 ;   H14R - C114   - H14S  
 13533  13532  13535      1    1.1005e+02    3.8802e+02 ;   H14R - C114   - C113  
 13534  13532  13535      1    1.1005e+02    3.8802e+02 ;   H14S - C114   - C113  
 13535  13538  13539      1    1.1005e+02    3.8802e+02 ;   C113 - C112   - H12R  
 13535  13538  13540      1    1.1005e+02    3.8802e+02 ;   C113 - C112   - H12S  
 13535  13538  13541      1    1.1205e+02    3.9497e+02 ;   C113 - C112   - C111  
 13536  13535  13537      1    1.0835e+02    3.2995e+02 ;   H13R - C113   - H13S  
 13536  13535  13538      1    1.1005e+02    3.8802e+02 ;   H13R - C113   - C112  
 13537  13535  13538      1    1.1005e+02    3.8802e+02 ;   H13S - C113   - C112  
 13538  13541  13542      1    1.1005e+02    3.8802e+02 ;   C112 - C111   - H11R  
 13538  13541  13543      1    1.1005e+02    3.8802e+02 ;   C112 - C111   - H11S  
 13538  13541  13544      1    1.1205e+02    3.9497e+02 ;   C112 - C111   - C110  
 13539  13538  13540      1    1.0835e+02    3.2995e+02 ;   H12R - C112   - H12S  
 13539  13538  13541      1    1.1005e+02    3.8802e+02 ;   H12R - C112   - C111  
 13540  13538  13541      1    1.1005e+02    3.8802e+02 ;   H12S - C112   - C111  
 13541  13544  13545      1    1.1005e+02    3.8802e+02 ;   C111 - C110   - H10R  
 13541  13544  13546      1    1.1005e+02    3.8802e+02 ;   C111 - C110   - H10S  
 13541  13544  13547      1    1.1205e+02    3.9497e+02 ;   C111 - C110   - C19   
 13542  13541  13543      1    1.0835e+02    3.2995e+02 ;   H11R - C111   - H11S  
 13542  13541  13544      1    1.1005e+02    3.8802e+02 ;   H11R - C111   - C110  
 13543  13541  13544      1    1.1005e+02    3.8802e+02 ;   H11S - C111   - C110  
 13544  13547  13548      1    1.1005e+02    3.8802e+02 ;   C110 - C19    - H9R   
 13544  13547  13549      1    1.1005e+02    3.8802e+02 ;   C110 - C19    - H9S   
 13544  13547  13550      1    1.1205e+02    3.9497e+02 ;   C110 - C19    - C18   
 13545  13544  13546      1    1.0835e+02    3.2995e+02 ;   H10R - C110   - H10S  
 13545  13544  13547      1    1.1005e+02    3.8802e+02 ;   H10R - C110   - C19   
 13546  13544  13547      1    1.1005e+02    3.8802e+02 ;   H10S - C110   - C19   
 13547  13550  13551      1    1.1005e+02    3.8802e+02 ;    C19 - C18    - H8R   
 13547  13550  13552      1    1.1005e+02    3.8802e+02 ;    C19 - C18    - H8S   
 13547  13550  13553      1    1.1205e+02    3.9497e+02 ;    C19 - C18    - C17   
 13548  13547  13549      1    1.0835e+02    3.2995e+02 ;    H9R - C19    - H9S   
 13548  13547  13550      1    1.1005e+02    3.8802e+02 ;    H9R - C19    - C18   
 13549  13547  13550      1    1.1005e+02    3.8802e+02 ;    H9S - C19    - C18   
 13550  13553  13554      1    1.1005e+02    3.8802e+02 ;    C18 - C17    - H7R   
 13550  13553  13555      1    1.1005e+02    3.8802e+02 ;    C18 - C17    - H7S   
 13550  13553  13556      1    1.1205e+02    3.9497e+02 ;    C18 - C17    - C16   
 13551  13550  13552      1    1.0835e+02    3.2995e+02 ;    H8R - C18    - H8S   
 13551  13550  13553      1    1.1005e+02    3.8802e+02 ;    H8R - C18    - C17   
 13552  13550  13553      1    1.1005e+02    3.8802e+02 ;    H8S - C18    - C17   
 13553  13556  13557      1    1.1005e+02    3.8802e+02 ;    C17 - C16    - H6R   
 13553  13556  13558      1    1.1005e+02    3.8802e+02 ;    C17 - C16    - H6S   
 13553  13556  13559      1    1.1205e+02    3.9497e+02 ;    C17 - C16    - C15   
 13554  13553  13555      1    1.0835e+02    3.2995e+02 ;    H7R - C17    - H7S   
 13554  13553  13556      1    1.1005e+02    3.8802e+02 ;    H7R - C17    - C16   
 13555  13553  13556      1    1.1005e+02    3.8802e+02 ;    H7S - C17    - C16   
 13556  13559  13560      1    1.1005e+02    3.8802e+02 ;    C16 - C15    - H5R   
 13556  13559  13561      1    1.1005e+02    3.8802e+02 ;    C16 - C15    - H5S   
 13556  13559  13562      1    1.1205e+02    3.9497e+02 ;    C16 - C15    - C14   
 13557  13556  13558      1    1.0835e+02    3.2995e+02 ;    H6R - C16    - H6S   
 13557  13556  13559      1    1.1005e+02    3.8802e+02 ;    H6R - C16    - C15   
 13558  13556  13559      1    1.1005e+02    3.8802e+02 ;    H6S - C16    - C15   
 13559  13562  13563      1    1.1005e+02    3.8802e+02 ;    C15 - C14    - H4R   
 13559  13562  13564      1    1.1005e+02    3.8802e+02 ;    C15 - C14    - H4S   
 13559  13562  13565      1    1.1205e+02    3.9497e+02 ;    C15 - C14    - C13   
 13560  13559  13561      1    1.0835e+02    3.2995e+02 ;    H5R - C15    - H5S   
 13560  13559  13562      1    1.1005e+02    3.8802e+02 ;    H5R - C15    - C14   
 13561  13559  13562      1    1.1005e+02    3.8802e+02 ;    H5S - C15    - C14   
 13562  13565  13566      1    1.1005e+02    3.8802e+02 ;    C14 - C13    - H3R   
 13562  13565  13567      1    1.1005e+02    3.8802e+02 ;    C14 - C13    - H3S   
 13562  13565  13568      1    1.1205e+02    3.9497e+02 ;    C14 - C13    - C12   
 13563  13562  13564      1    1.0835e+02    3.2995e+02 ;    H4R - C14    - H4S   
 13563  13562  13565      1    1.1005e+02    3.8802e+02 ;    H4R - C14    - C13   
 13564  13562  13565      1    1.1005e+02    3.8802e+02 ;    H4S - C14    - C13   
 13565  13568  13569      1    1.1005e+02    3.8802e+02 ;    C13 - C12    - H2R   
 13565  13568  13570      1    1.1005e+02    3.8802e+02 ;    C13 - C12    - H2S   
 13566  13565  13567      1    1.0835e+02    3.2995e+02 ;    H3R - C13    - H3S   
 13566  13565  13568      1    1.1005e+02    3.8802e+02 ;    H3R - C13    - C12   
 13567  13565  13568      1    1.1005e+02    3.8802e+02 ;    H3S - C13    - C12   
 13569  13568  13570      1    1.0835e+02    3.2995e+02 ;    H2R - C12    - H2S   
 13571  13572  13573      1    1.0835e+02    3.2995e+02 ;   H14T - C114   - H14R  
 13571  13572  13574      1    1.0835e+02    3.2995e+02 ;   H14T - C114   - H14S  
 13571  13572  13575      1    1.1005e+02    3.8802e+02 ;   H14T - C114   - C113  
 13572  13575  13576      1    1.1005e+02    3.8802e+02 ;   C114 - C113   - H13R  
 13572  13575  13577      1    1.1005e+02    3.8802e+02 ;   C114 - C113   - H13S  
 13572  13575  13578      1    1.1205e+02    3.9497e+02 ;   C114 - C113   - C112  
 13573  13572  13574      1    1.0835e+02    3.2995e+02 ;   H14R - C114   - H14S  
 13573  13572  13575      1    1.1005e+02    3.8802e+02 ;   H14R - C114   - C113  
 13574  13572  13575      1    1.1005e+02    3.8802e+02 ;   H14S - C114   - C113  
 13575  13578  13579      1    1.1005e+02    3.8802e+02 ;   C113 - C112   - H12R  
 13575  13578  13580      1    1.1005e+02    3.8802e+02 ;   C113 - C112   - H12S  
 13575  13578  13581      1    1.1205e+02    3.9497e+02 ;   C113 - C112   - C111  
 13576  13575  13577      1    1.0835e+02    3.2995e+02 ;   H13R - C113   - H13S  
 13576  13575  13578      1    1.1005e+02    3.8802e+02 ;   H13R - C113   - C112  
 13577  13575  13578      1    1.1005e+02    3.8802e+02 ;   H13S - C113   - C112  
 13578  13581  13582      1    1.1005e+02    3.8802e+02 ;   C112 - C111   - H11R  
 13578  13581  13583      1    1.1005e+02    3.8802e+02 ;   C112 - C111   - H11S  
 13578  13581  13584      1    1.1205e+02    3.9497e+02 ;   C112 - C111   - C110  
 13579  13578  13580      1    1.0835e+02    3.2995e+02 ;   H12R - C112   - H12S  
 13579  13578  13581      1    1.1005e+02    3.8802e+02 ;   H12R - C112   - C111  
 13580  13578  13581      1    1.1005e+02    3.8802e+02 ;   H12S - C112   - C111  
 13581  13584  13585      1    1.1005e+02    3.8802e+02 ;   C111 - C110   - H10R  
 13581  13584  13586      1    1.1005e+02    3.8802e+02 ;   C111 - C110   - H10S  
 13581  13584  13587      1    1.1205e+02    3.9497e+02 ;   C111 - C110   - C19   
 13582  13581  13583      1    1.0835e+02    3.2995e+02 ;   H11R - C111   - H11S  
 13582  13581  13584      1    1.1005e+02    3.8802e+02 ;   H11R - C111   - C110  
 13583  13581  13584      1    1.1005e+02    3.8802e+02 ;   H11S - C111   - C110  
 13584  13587  13588      1    1.1005e+02    3.8802e+02 ;   C110 - C19    - H9R   
 13584  13587  13589      1    1.1005e+02    3.8802e+02 ;   C110 - C19    - H9S   
 13584  13587  13590      1    1.1205e+02    3.9497e+02 ;   C110 - C19    - C18   
 13585  13584  13586      1    1.0835e+02    3.2995e+02 ;   H10R - C110   - H10S  
 13585  13584  13587      1    1.1005e+02    3.8802e+02 ;   H10R - C110   - C19   
 13586  13584  13587      1    1.1005e+02    3.8802e+02 ;   H10S - C110   - C19   
 13587  13590  13591      1    1.1005e+02    3.8802e+02 ;    C19 - C18    - H8R   
 13587  13590  13592      1    1.1005e+02    3.8802e+02 ;    C19 - C18    - H8S   
 13587  13590  13593      1    1.1205e+02    3.9497e+02 ;    C19 - C18    - C17   
 13588  13587  13589      1    1.0835e+02    3.2995e+02 ;    H9R - C19    - H9S   
 13588  13587  13590      1    1.1005e+02    3.8802e+02 ;    H9R - C19    - C18   
 13589  13587  13590      1    1.1005e+02    3.8802e+02 ;    H9S - C19    - C18   
 13590  13593  13594      1    1.1005e+02    3.8802e+02 ;    C18 - C17    - H7R   
 13590  13593  13595      1    1.1005e+02    3.8802e+02 ;    C18 - C17    - H7S   
 13590  13593  13596      1    1.1205e+02    3.9497e+02 ;    C18 - C17    - C16   
 13591  13590  13592      1    1.0835e+02    3.2995e+02 ;    H8R - C18    - H8S   
 13591  13590  13593      1    1.1005e+02    3.8802e+02 ;    H8R - C18    - C17   
 13592  13590  13593      1    1.1005e+02    3.8802e+02 ;    H8S - C18    - C17   
 13593  13596  13597      1    1.1005e+02    3.8802e+02 ;    C17 - C16    - H6R   
 13593  13596  13598      1    1.1005e+02    3.8802e+02 ;    C17 - C16    - H6S   
 13593  13596  13599      1    1.1205e+02    3.9497e+02 ;    C17 - C16    - C15   
 13594  13593  13595      1    1.0835e+02    3.2995e+02 ;    H7R - C17    - H7S   
 13594  13593  13596      1    1.1005e+02    3.8802e+02 ;    H7R - C17    - C16   
 13595  13593  13596      1    1.1005e+02    3.8802e+02 ;    H7S - C17    - C16   
 13596  13599  13600      1    1.1005e+02    3.8802e+02 ;    C16 - C15    - H5R   
 13596  13599  13601      1    1.1005e+02    3.8802e+02 ;    C16 - C15    - H5S   
 13596  13599  13602      1    1.1205e+02    3.9497e+02 ;    C16 - C15    - C14   
 13597  13596  13598      1    1.0835e+02    3.2995e+02 ;    H6R - C16    - H6S   
 13597  13596  13599      1    1.1005e+02    3.8802e+02 ;    H6R - C16    - C15   
 13598  13596  13599      1    1.1005e+02    3.8802e+02 ;    H6S - C16    - C15   
 13599  13602  13603      1    1.1005e+02    3.8802e+02 ;    C15 - C14    - H4R   
 13599  13602  13604      1    1.1005e+02    3.8802e+02 ;    C15 - C14    - H4S   
 13599  13602  13605      1    1.1205e+02    3.9497e+02 ;    C15 - C14    - C13   
 13600  13599  13601      1    1.0835e+02    3.2995e+02 ;    H5R - C15    - H5S   
 13600  13599  13602      1    1.1005e+02    3.8802e+02 ;    H5R - C15    - C14   
 13601  13599  13602      1    1.1005e+02    3.8802e+02 ;    H5S - C15    - C14   
 13602  13605  13606      1    1.1005e+02    3.8802e+02 ;    C14 - C13    - H3R   
 13602  13605  13607      1    1.1005e+02    3.8802e+02 ;    C14 - C13    - H3S   
 13602  13605  13608      1    1.1205e+02    3.9497e+02 ;    C14 - C13    - C12   
 13603  13602  13604      1    1.0835e+02    3.2995e+02 ;    H4R - C14    - H4S   
 13603  13602  13605      1    1.1005e+02    3.8802e+02 ;    H4R - C14    - C13   
 13604  13602  13605      1    1.1005e+02    3.8802e+02 ;    H4S - C14    - C13   
 13605  13608  13609      1    1.1005e+02    3.8802e+02 ;    C13 - C12    - H2R   
 13605  13608  13610      1    1.1005e+02    3.8802e+02 ;    C13 - C12    - H2S   
 13605  13608  13611      1    1.1053e+02    5.3379e+02 ;    C13 - C12    - C11   
 13606  13605  13607      1    1.0835e+02    3.2995e+02 ;    H3R - C13    - H3S   
 13606  13605  13608      1    1.1005e+02    3.8802e+02 ;    H3R - C13    - C12   
 13607  13605  13608      1    1.1005e+02    3.8802e+02 ;    H3S - C13    - C12   
 13608  13611  13612      1    1.2311e+02    5.6928e+02 ;    C12 - C11    - O12   
 13608  13611  13613      1    1.1196e+02    5.7957e+02 ;    C12 - C11    - O11   
 13609  13608  13610      1    1.0835e+02    3.2995e+02 ;    H2R - C12    - H2S   
 13609  13608  13611      1    1.0968e+02    3.9497e+02 ;    H2R - C12    - C11   
 13610  13608  13611      1    1.0968e+02    3.9497e+02 ;    H2S - C12    - C11   
 13611  13613  13614      1    1.1514e+02    5.3246e+02 ;    C11 - O11    - C1    
 13612  13611  13613      1    1.2333e+02    6.3538e+02 ;    O12 - C11    - O11   
 13613  13614  13615      1    1.0882e+02    4.2543e+02 ;    O11 - C1     - HR    
 13613  13614  13616      1    1.0882e+02    4.2543e+02 ;    O11 - C1     - HS    
 13613  13614  13617      1    1.0842e+02    5.6718e+02 ;    O11 - C1     - C2    
 13614  13617  13618      1    1.1007e+02    3.8794e+02 ;     C1 - C2     - HX    
 13614  13617  13619      1    1.1063e+02    5.2894e+02 ;     C1 - C2     - C3    
 13614  13617  13646      1    1.0842e+02    5.6718e+02 ;     C1 - C2     - O21   
 13615  13614  13616      1    1.0955e+02    3.2786e+02 ;     HR - C1     - HS    
 13615  13614  13617      1    1.1007e+02    3.8794e+02 ;     HR - C1     - C2    
 13616  13614  13617      1    1.1007e+02    3.8794e+02 ;     HS - C1     - C2    
 13617  13619  13620      1    1.1007e+02    3.8794e+02 ;     C2 - C3     - HA    
 13617  13619  13621      1    1.1007e+02    3.8794e+02 ;     C2 - C3     - HB    
 13617  13619  13622      1    1.0842e+02    5.6718e+02 ;     C2 - C3     - O31   
 13617  13646  13647      1    1.1514e+02    5.3246e+02 ;     C2 - O21    - C21   
 13618  13617  13619      1    1.1007e+02    3.8794e+02 ;     HX - C2     - C3    
 13618  13617  13646      1    1.0882e+02    4.2543e+02 ;     HX - C2     - O21   
 13619  13617  13646      1    1.0842e+02    5.6718e+02 ;     C3 - C2     - O21   
 13619  13622  13623      1    1.2050e+02    8.3680e+02 ;     C3 - O31    - P31   
 13620  13619  13621      1    1.0955e+02    3.2786e+02 ;     HA - C3     - HB    
 13620  13619  13622      1    1.0882e+02    4.2543e+02 ;     HA - C3     - O31   
 13621  13619  13622      1    1.0882e+02    4.2543e+02 ;     HB - C3     - O31   
 13622  13623  13624      1    1.0260e+02    7.5312e+02 ;    O31 - P31    - O32   
 13622  13623  13644      1    1.0823e+02    8.3680e+02 ;    O31 - P31    - O33   
 13622  13623  13645      1    1.0823e+02    8.3680e+02 ;    O31 - P31    - O34   
 13623  13624  13625      1    1.2050e+02    8.3680e+02 ;    P31 - O32    - C31   
 13624  13623  13644      1    1.0823e+02    8.3680e+02 ;    O32 - P31    - O33   
 13624  13623  13645      1    1.0823e+02    8.3680e+02 ;    O32 - P31    - O34   
 13624  13625  13626      1    1.0882e+02    4.2543e+02 ;    O32 - C31    - H1A   
 13624  13625  13627      1    1.0882e+02    4.2543e+02 ;    O32 - C31    - H1B   
 13624  13625  13628      1    1.0842e+02    5.6718e+02 ;    O32 - C31    - C32   
 13625  13628  13629      1    1.1174e+02    3.8510e+02 ;    C31 - C32    - H2A   
 13625  13628  13630      1    1.1174e+02    3.8510e+02 ;    C31 - C32    - H2B   
 13625  13628  13631      1    1.1432e+02    5.3932e+02 ;    C31 - C32    - N31   
 13626  13625  13627      1    1.0955e+02    3.2786e+02 ;    H1A - C31    - H1B   
 13626  13625  13628      1    1.1007e+02    3.8794e+02 ;    H1A - C31    - C32   
 13627  13625  13628      1    1.1007e+02    3.8794e+02 ;    H1B - C31    - C32   
 13628  13631  13632      1    1.1064e+02    5.2585e+02 ;    C32 - N31    - C33   
 13628  13631  13636      1    1.1064e+02    5.2585e+02 ;    C32 - N31    - C34   
 13628  13631  13640      1    1.1064e+02    5.2585e+02 ;    C32 - N31    - C35   
 13629  13628  13630      1    1.1074e+02    3.2669e+02 ;    H2A - C32    - H2B   
 13629  13628  13631      1    1.0791e+02    4.1020e+02 ;    H2A - C32    - N31   
 13630  13628  13631      1    1.0791e+02    4.1020e+02 ;    H2B - C32    - N31   
 13631  13632  13633      1    1.0791e+02    4.1020e+02 ;    N31 - C33    - H3A   
 13631  13632  13634      1    1.0791e+02    4.1020e+02 ;    N31 - C33    - H3B   
 13631  13632  13635      1    1.0791e+02    4.1020e+02 ;    N31 - C33    - H3C   
 13631  13636  13637      1    1.0791e+02    4.1020e+02 ;    N31 - C34    - H4A   
 13631  13636  13638      1    1.0791e+02    4.1020e+02 ;    N31 - C34    - H4B   
 13631  13636  13639      1    1.0791e+02    4.1020e+02 ;    N31 - C34    - H4C   
 13631  13640  13641      1    1.0791e+02    4.1020e+02 ;    N31 - C35    - H5A   
 13631  13640  13642      1    1.0791e+02    4.1020e+02 ;    N31 - C35    - H5B   
 13631  13640  13643      1    1.0791e+02    4.1020e+02 ;    N31 - C35    - H5C   
 13632  13631  13636      1    1.1064e+02    5.2585e+02 ;    C33 - N31    - C34   
 13632  13631  13640      1    1.1064e+02    5.2585e+02 ;    C33 - N31    - C35   
 13633  13632  13634      1    1.1074e+02    3.2669e+02 ;    H3A - C33    - H3B   
 13633  13632  13635      1    1.1074e+02    3.2669e+02 ;    H3A - C33    - H3C   
 13634  13632  13635      1    1.1074e+02    3.2669e+02 ;    H3B - C33    - H3C   
 13636  13631  13640      1    1.1064e+02    5.2585e+02 ;    C34 - N31    - C35   
 13637  13636  13638      1    1.1074e+02    3.2669e+02 ;    H4A - C34    - H4B   
 13637  13636  13639      1    1.1074e+02    3.2669e+02 ;    H4A - C34    - H4C   
 13638  13636  13639      1    1.1074e+02    3.2669e+02 ;    H4B - C34    - H4C   
 13641  13640  13642      1    1.1074e+02    3.2669e+02 ;    H5A - C35    - H5B   
 13641  13640  13643      1    1.1074e+02    3.2669e+02 ;    H5A - C35    - H5C   
 13642  13640  13643      1    1.1074e+02    3.2669e+02 ;    H5B - C35    - H5C   
 13644  13623  13645      1    1.1990e+02    1.1715e+03 ;    O33 - P31    - O34   
 13646  13647  13648      1    1.2333e+02    6.3538e+02 ;    O21 - C21    - O22   
 13646  13647  13686      1    1.1196e+02    5.7957e+02 ;    O21 - C21    - C12   
 13647  13686  13683      1    1.1053e+02    5.3379e+02 ;    C21 - C12    - C13   
 13647  13686  13687      1    1.0968e+02    3.9497e+02 ;    C21 - C12    - H2R   
 13647  13686  13688      1    1.0968e+02    3.9497e+02 ;    C21 - C12    - H2S   
 13648  13647  13686      1    1.2311e+02    5.6928e+02 ;    O22 - C21    - C12   
 13649  13650  13651      1    1.0835e+02    3.2995e+02 ;   H14T - C114   - H14R  
 13649  13650  13652      1    1.0835e+02    3.2995e+02 ;   H14T - C114   - H14S  
 13649  13650  13653      1    1.1005e+02    3.8802e+02 ;   H14T - C114   - C113  
 13650  13653  13654      1    1.1005e+02    3.8802e+02 ;   C114 - C113   - H13R  
 13650  13653  13655      1    1.1005e+02    3.8802e+02 ;   C114 - C113   - H13S  
 13650  13653  13656      1    1.1205e+02    3.9497e+02 ;   C114 - C113   - C112  
 13651  13650  13652      1    1.0835e+02    3.2995e+02 ;   H14R - C114   - H14S  
 13651  13650  13653      1    1.1005e+02    3.8802e+02 ;   H14R - C114   - C113  
 13652  13650  13653      1    1.1005e+02    3.8802e+02 ;   H14S - C114   - C113  
 13653  13656  13657      1    1.1005e+02    3.8802e+02 ;   C113 - C112   - H12R  
 13653  13656  13658      1    1.1005e+02    3.8802e+02 ;   C113 - C112   - H12S  
 13653  13656  13659      1    1.1205e+02    3.9497e+02 ;   C113 - C112   - C111  
 13654  13653  13655      1    1.0835e+02    3.2995e+02 ;   H13R - C113   - H13S  
 13654  13653  13656      1    1.1005e+02    3.8802e+02 ;   H13R - C113   - C112  
 13655  13653  13656      1    1.1005e+02    3.8802e+02 ;   H13S - C113   - C112  
 13656  13659  13660      1    1.1005e+02    3.8802e+02 ;   C112 - C111   - H11R  
 13656  13659  13661      1    1.1005e+02    3.8802e+02 ;   C112 - C111   - H11S  
 13656  13659  13662      1    1.1205e+02    3.9497e+02 ;   C112 - C111   - C110  
 13657  13656  13658      1    1.0835e+02    3.2995e+02 ;   H12R - C112   - H12S  
 13657  13656  13659      1    1.1005e+02    3.8802e+02 ;   H12R - C112   - C111  
 13658  13656  13659      1    1.1005e+02    3.8802e+02 ;   H12S - C112   - C111  
 13659  13662  13663      1    1.1005e+02    3.8802e+02 ;   C111 - C110   - H10R  
 13659  13662  13664      1    1.1005e+02    3.8802e+02 ;   C111 - C110   - H10S  
 13659  13662  13665      1    1.1205e+02    3.9497e+02 ;   C111 - C110   - C19   
 13660  13659  13661      1    1.0835e+02    3.2995e+02 ;   H11R - C111   - H11S  
 13660  13659  13662      1    1.1005e+02    3.8802e+02 ;   H11R - C111   - C110  
 13661  13659  13662      1    1.1005e+02    3.8802e+02 ;   H11S - C111   - C110  
 13662  13665  13666      1    1.1005e+02    3.8802e+02 ;   C110 - C19    - H9R   
 13662  13665  13667      1    1.1005e+02    3.8802e+02 ;   C110 - C19    - H9S   
 13662  13665  13668      1    1.1205e+02    3.9497e+02 ;   C110 - C19    - C18   
 13663  13662  13664      1    1.0835e+02    3.2995e+02 ;   H10R - C110   - H10S  
 13663  13662  13665      1    1.1005e+02    3.8802e+02 ;   H10R - C110   - C19   
 13664  13662  13665      1    1.1005e+02    3.8802e+02 ;   H10S - C110   - C19   
 13665  13668  13669      1    1.1005e+02    3.8802e+02 ;    C19 - C18    - H8R   
 13665  13668  13670      1    1.1005e+02    3.8802e+02 ;    C19 - C18    - H8S   
 13665  13668  13671      1    1.1205e+02    3.9497e+02 ;    C19 - C18    - C17   
 13666  13665  13667      1    1.0835e+02    3.2995e+02 ;    H9R - C19    - H9S   
 13666  13665  13668      1    1.1005e+02    3.8802e+02 ;    H9R - C19    - C18   
 13667  13665  13668      1    1.1005e+02    3.8802e+02 ;    H9S - C19    - C18   
 13668  13671  13672      1    1.1005e+02    3.8802e+02 ;    C18 - C17    - H7R   
 13668  13671  13673      1    1.1005e+02    3.8802e+02 ;    C18 - C17    - H7S   
 13668  13671  13674      1    1.1205e+02    3.9497e+02 ;    C18 - C17    - C16   
 13669  13668  13670      1    1.0835e+02    3.2995e+02 ;    H8R - C18    - H8S   
 13669  13668  13671      1    1.1005e+02    3.8802e+02 ;    H8R - C18    - C17   
 13670  13668  13671      1    1.1005e+02    3.8802e+02 ;    H8S - C18    - C17   
 13671  13674  13675      1    1.1005e+02    3.8802e+02 ;    C17 - C16    - H6R   
 13671  13674  13676      1    1.1005e+02    3.8802e+02 ;    C17 - C16    - H6S   
 13671  13674  13677      1    1.1205e+02    3.9497e+02 ;    C17 - C16    - C15   
 13672  13671  13673      1    1.0835e+02    3.2995e+02 ;    H7R - C17    - H7S   
 13672  13671  13674      1    1.1005e+02    3.8802e+02 ;    H7R - C17    - C16   
 13673  13671  13674      1    1.1005e+02    3.8802e+02 ;    H7S - C17    - C16   
 13674  13677  13678      1    1.1005e+02    3.8802e+02 ;    C16 - C15    - H5R   
 13674  13677  13679      1    1.1005e+02    3.8802e+02 ;    C16 - C15    - H5S   
 13674  13677  13680      1    1.1205e+02    3.9497e+02 ;    C16 - C15    - C14   
 13675  13674  13676      1    1.0835e+02    3.2995e+02 ;    H6R - C16    - H6S   
 13675  13674  13677      1    1.1005e+02    3.8802e+02 ;    H6R - C16    - C15   
 13676  13674  13677      1    1.1005e+02    3.8802e+02 ;    H6S - C16    - C15   
 13677  13680  13681      1    1.1005e+02    3.8802e+02 ;    C15 - C14    - H4R   
 13677  13680  13682      1    1.1005e+02    3.8802e+02 ;    C15 - C14    - H4S   
 13677  13680  13683      1    1.1205e+02    3.9497e+02 ;    C15 - C14    - C13   
 13678  13677  13679      1    1.0835e+02    3.2995e+02 ;    H5R - C15    - H5S   
 13678  13677  13680      1    1.1005e+02    3.8802e+02 ;    H5R - C15    - C14   
 13679  13677  13680      1    1.1005e+02    3.8802e+02 ;    H5S - C15    - C14   
 13680  13683  13684      1    1.1005e+02    3.8802e+02 ;    C14 - C13    - H3R   
 13680  13683  13685      1    1.1005e+02    3.8802e+02 ;    C14 - C13    - H3S   
 13680  13683  13686      1    1.1205e+02    3.9497e+02 ;    C14 - C13    - C12   
 13681  13680  13682      1    1.0835e+02    3.2995e+02 ;    H4R - C14    - H4S   
 13681  13680  13683      1    1.1005e+02    3.8802e+02 ;    H4R - C14    - C13   
 13682  13680  13683      1    1.1005e+02    3.8802e+02 ;    H4S - C14    - C13   
 13683  13686  13687      1    1.1005e+02    3.8802e+02 ;    C13 - C12    - H2R   
 13683  13686  13688      1    1.1005e+02    3.8802e+02 ;    C13 - C12    - H2S   
 13684  13683  13685      1    1.0835e+02    3.2995e+02 ;    H3R - C13    - H3S   
 13684  13683  13686      1    1.1005e+02    3.8802e+02 ;    H3R - C13    - C12   
 13685  13683  13686      1    1.1005e+02    3.8802e+02 ;    H3S - C13    - C12   
 13687  13686  13688      1    1.0835e+02    3.2995e+02 ;    H2R - C12    - H2S   
 13689  13690  13691      1    1.0835e+02    3.2995e+02 ;   H14T - C114   - H14R  
 13689  13690  13692      1    1.0835e+02    3.2995e+02 ;   H14T - C114   - H14S  
 13689  13690  13693      1    1.1005e+02    3.8802e+02 ;   H14T - C114   - C113  
 13690  13693  13694      1    1.1005e+02    3.8802e+02 ;   C114 - C113   - H13R  
 13690  13693  13695      1    1.1005e+02    3.8802e+02 ;   C114 - C113   - H13S  
 13690  13693  13696      1    1.1205e+02    3.9497e+02 ;   C114 - C113   - C112  
 13691  13690  13692      1    1.0835e+02    3.2995e+02 ;   H14R - C114   - H14S  
 13691  13690  13693      1    1.1005e+02    3.8802e+02 ;   H14R - C114   - C113  
 13692  13690  13693      1    1.1005e+02    3.8802e+02 ;   H14S - C114   - C113  
 13693  13696  13697      1    1.1005e+02    3.8802e+02 ;   C113 - C112   - H12R  
 13693  13696  13698      1    1.1005e+02    3.8802e+02 ;   C113 - C112   - H12S  
 13693  13696  13699      1    1.1205e+02    3.9497e+02 ;   C113 - C112   - C111  
 13694  13693  13695      1    1.0835e+02    3.2995e+02 ;   H13R - C113   - H13S  
 13694  13693  13696      1    1.1005e+02    3.8802e+02 ;   H13R - C113   - C112  
 13695  13693  13696      1    1.1005e+02    3.8802e+02 ;   H13S - C113   - C112  
 13696  13699  13700      1    1.1005e+02    3.8802e+02 ;   C112 - C111   - H11R  
 13696  13699  13701      1    1.1005e+02    3.8802e+02 ;   C112 - C111   - H11S  
 13696  13699  13702      1    1.1205e+02    3.9497e+02 ;   C112 - C111   - C110  
 13697  13696  13698      1    1.0835e+02    3.2995e+02 ;   H12R - C112   - H12S  
 13697  13696  13699      1    1.1005e+02    3.8802e+02 ;   H12R - C112   - C111  
 13698  13696  13699      1    1.1005e+02    3.8802e+02 ;   H12S - C112   - C111  
 13699  13702  13703      1    1.1005e+02    3.8802e+02 ;   C111 - C110   - H10R  
 13699  13702  13704      1    1.1005e+02    3.8802e+02 ;   C111 - C110   - H10S  
 13699  13702  13705      1    1.1205e+02    3.9497e+02 ;   C111 - C110   - C19   
 13700  13699  13701      1    1.0835e+02    3.2995e+02 ;   H11R - C111   - H11S  
 13700  13699  13702      1    1.1005e+02    3.8802e+02 ;   H11R - C111   - C110  
 13701  13699  13702      1    1.1005e+02    3.8802e+02 ;   H11S - C111   - C110  
 13702  13705  13706      1    1.1005e+02    3.8802e+02 ;   C110 - C19    - H9R   
 13702  13705  13707      1    1.1005e+02    3.8802e+02 ;   C110 - C19    - H9S   
 13702  13705  13708      1    1.1205e+02    3.9497e+02 ;   C110 - C19    - C18   
 13703  13702  13704      1    1.0835e+02    3.2995e+02 ;   H10R - C110   - H10S  
 13703  13702  13705      1    1.1005e+02    3.8802e+02 ;   H10R - C110   - C19   
 13704  13702  13705      1    1.1005e+02    3.8802e+02 ;   H10S - C110   - C19   
 13705  13708  13709      1    1.1005e+02    3.8802e+02 ;    C19 - C18    - H8R   
 13705  13708  13710      1    1.1005e+02    3.8802e+02 ;    C19 - C18    - H8S   
 13705  13708  13711      1    1.1205e+02    3.9497e+02 ;    C19 - C18    - C17   
 13706  13705  13707      1    1.0835e+02    3.2995e+02 ;    H9R - C19    - H9S   
 13706  13705  13708      1    1.1005e+02    3.8802e+02 ;    H9R - C19    - C18   
 13707  13705  13708      1    1.1005e+02    3.8802e+02 ;    H9S - C19    - C18   
 13708  13711  13712      1    1.1005e+02    3.8802e+02 ;    C18 - C17    - H7R   
 13708  13711  13713      1    1.1005e+02    3.8802e+02 ;    C18 - C17    - H7S   
 13708  13711  13714      1    1.1205e+02    3.9497e+02 ;    C18 - C17    - C16   
 13709  13708  13710      1    1.0835e+02    3.2995e+02 ;    H8R - C18    - H8S   
 13709  13708  13711      1    1.1005e+02    3.8802e+02 ;    H8R - C18    - C17   
 13710  13708  13711      1    1.1005e+02    3.8802e+02 ;    H8S - C18    - C17   
 13711  13714  13715      1    1.1005e+02    3.8802e+02 ;    C17 - C16    - H6R   
 13711  13714  13716      1    1.1005e+02    3.8802e+02 ;    C17 - C16    - H6S   
 13711  13714  13717      1    1.1205e+02    3.9497e+02 ;    C17 - C16    - C15   
 13712  13711  13713      1    1.0835e+02    3.2995e+02 ;    H7R - C17    - H7S   
 13712  13711  13714      1    1.1005e+02    3.8802e+02 ;    H7R - C17    - C16   
 13713  13711  13714      1    1.1005e+02    3.8802e+02 ;    H7S - C17    - C16   
 13714  13717  13718      1    1.1005e+02    3.8802e+02 ;    C16 - C15    - H5R   
 13714  13717  13719      1    1.1005e+02    3.8802e+02 ;    C16 - C15    - H5S   
 13714  13717  13720      1    1.1205e+02    3.9497e+02 ;    C16 - C15    - C14   
 13715  13714  13716      1    1.0835e+02    3.2995e+02 ;    H6R - C16    - H6S   
 13715  13714  13717      1    1.1005e+02    3.8802e+02 ;    H6R - C16    - C15   
 13716  13714  13717      1    1.1005e+02    3.8802e+02 ;    H6S - C16    - C15   
 13717  13720  13721      1    1.1005e+02    3.8802e+02 ;    C15 - C14    - H4R   
 13717  13720  13722      1    1.1005e+02    3.8802e+02 ;    C15 - C14    - H4S   
 13717  13720  13723      1    1.1205e+02    3.9497e+02 ;    C15 - C14    - C13   
 13718  13717  13719      1    1.0835e+02    3.2995e+02 ;    H5R - C15    - H5S   
 13718  13717  13720      1    1.1005e+02    3.8802e+02 ;    H5R - C15    - C14   
 13719  13717  13720      1    1.1005e+02    3.8802e+02 ;    H5S - C15    - C14   
 13720  13723  13724      1    1.1005e+02    3.8802e+02 ;    C14 - C13    - H3R   
 13720  13723  13725      1    1.1005e+02    3.8802e+02 ;    C14 - C13    - H3S   
 13720  13723  13726      1    1.1205e+02    3.9497e+02 ;    C14 - C13    - C12   
 13721  13720  13722      1    1.0835e+02    3.2995e+02 ;    H4R - C14    - H4S   
 13721  13720  13723      1    1.1005e+02    3.8802e+02 ;    H4R - C14    - C13   
 13722  13720  13723      1    1.1005e+02    3.8802e+02 ;    H4S - C14    - C13   
 13723  13726  13727      1    1.1005e+02    3.8802e+02 ;    C13 - C12    - H2R   
 13723  13726  13728      1    1.1005e+02    3.8802e+02 ;    C13 - C12    - H2S   
 13723  13726  13729      1    1.1053e+02    5.3379e+02 ;    C13 - C12    - C11   
 13724  13723  13725      1    1.0835e+02    3.2995e+02 ;    H3R - C13    - H3S   
 13724  13723  13726      1    1.1005e+02    3.8802e+02 ;    H3R - C13    - C12   
 13725  13723  13726      1    1.1005e+02    3.8802e+02 ;    H3S - C13    - C12   
 13726  13729  13730      1    1.2311e+02    5.6928e+02 ;    C12 - C11    - O12   
 13726  13729  13731      1    1.1196e+02    5.7957e+02 ;    C12 - C11    - O11   
 13727  13726  13728      1    1.0835e+02    3.2995e+02 ;    H2R - C12    - H2S   
 13727  13726  13729      1    1.0968e+02    3.9497e+02 ;    H2R - C12    - C11   
 13728  13726  13729      1    1.0968e+02    3.9497e+02 ;    H2S - C12    - C11   
 13729  13731  13732      1    1.1514e+02    5.3246e+02 ;    C11 - O11    - C1    
 13730  13729  13731      1    1.2333e+02    6.3538e+02 ;    O12 - C11    - O11   
 13731  13732  13733      1    1.0882e+02    4.2543e+02 ;    O11 - C1     - HR    
 13731  13732  13734      1    1.0882e+02    4.2543e+02 ;    O11 - C1     - HS    
 13731  13732  13735      1    1.0842e+02    5.6718e+02 ;    O11 - C1     - C2    
 13732  13735  13736      1    1.1007e+02    3.8794e+02 ;     C1 - C2     - HX    
 13732  13735  13737      1    1.1063e+02    5.2894e+02 ;     C1 - C2     - C3    
 13732  13735  13764      1    1.0842e+02    5.6718e+02 ;     C1 - C2     - O21   
 13733  13732  13734      1    1.0955e+02    3.2786e+02 ;     HR - C1     - HS    
 13733  13732  13735      1    1.1007e+02    3.8794e+02 ;     HR - C1     - C2    
 13734  13732  13735      1    1.1007e+02    3.8794e+02 ;     HS - C1     - C2    
 13735  13737  13738      1    1.1007e+02    3.8794e+02 ;     C2 - C3     - HA    
 13735  13737  13739      1    1.1007e+02    3.8794e+02 ;     C2 - C3     - HB    
 13735  13737  13740      1    1.0842e+02    5.6718e+02 ;     C2 - C3     - O31   
 13735  13764  13765      1    1.1514e+02    5.3246e+02 ;     C2 - O21    - C21   
 13736  13735  13737      1    1.1007e+02    3.8794e+02 ;     HX - C2     - C3    
 13736  13735  13764      1    1.0882e+02    4.2543e+02 ;     HX - C2     - O21   
 13737  13735  13764      1    1.0842e+02    5.6718e+02 ;     C3 - C2     - O21   
 13737  13740  13741      1    1.2050e+02    8.3680e+02 ;     C3 - O31    - P31   
 13738  13737  13739      1    1.0955e+02    3.2786e+02 ;     HA - C3     - HB    
 13738  13737  13740      1    1.0882e+02    4.2543e+02 ;     HA - C3     - O31   
 13739  13737  13740      1    1.0882e+02    4.2543e+02 ;     HB - C3     - O31   
 13740  13741  13742      1    1.0260e+02    7.5312e+02 ;    O31 - P31    - O32   
 13740  13741  13762      1    1.0823e+02    8.3680e+02 ;    O31 - P31    - O33   
 13740  13741  13763      1    1.0823e+02    8.3680e+02 ;    O31 - P31    - O34   
 13741  13742  13743      1    1.2050e+02    8.3680e+02 ;    P31 - O32    - C31   
 13742  13741  13762      1    1.0823e+02    8.3680e+02 ;    O32 - P31    - O33   
 13742  13741  13763      1    1.0823e+02    8.3680e+02 ;    O32 - P31    - O34   
 13742  13743  13744      1    1.0882e+02    4.2543e+02 ;    O32 - C31    - H1A   
 13742  13743  13745      1    1.0882e+02    4.2543e+02 ;    O32 - C31    - H1B   
 13742  13743  13746      1    1.0842e+02    5.6718e+02 ;    O32 - C31    - C32   
 13743  13746  13747      1    1.1174e+02    3.8510e+02 ;    C31 - C32    - H2A   
 13743  13746  13748      1    1.1174e+02    3.8510e+02 ;    C31 - C32    - H2B   
 13743  13746  13749      1    1.1432e+02    5.3932e+02 ;    C31 - C32    - N31   
 13744  13743  13745      1    1.0955e+02    3.2786e+02 ;    H1A - C31    - H1B   
 13744  13743  13746      1    1.1007e+02    3.8794e+02 ;    H1A - C31    - C32   
 13745  13743  13746      1    1.1007e+02    3.8794e+02 ;    H1B - C31    - C32   
 13746  13749  13750      1    1.1064e+02    5.2585e+02 ;    C32 - N31    - C33   
 13746  13749  13754      1    1.1064e+02    5.2585e+02 ;    C32 - N31    - C34   
 13746  13749  13758      1    1.1064e+02    5.2585e+02 ;    C32 - N31    - C35   
 13747  13746  13748      1    1.1074e+02    3.2669e+02 ;    H2A - C32    - H2B   
 13747  13746  13749      1    1.0791e+02    4.1020e+02 ;    H2A - C32    - N31   
 13748  13746  13749      1    1.0791e+02    4.1020e+02 ;    H2B - C32    - N31   
 13749  13750  13751      1    1.0791e+02    4.1020e+02 ;    N31 - C33    - H3A   
 13749  13750  13752      1    1.0791e+02    4.1020e+02 ;    N31 - C33    - H3B   
 13749  13750  13753      1    1.0791e+02    4.1020e+02 ;    N31 - C33    - H3C   
 13749  13754  13755      1    1.0791e+02    4.1020e+02 ;    N31 - C34    - H4A   
 13749  13754  13756      1    1.0791e+02    4.1020e+02 ;    N31 - C34    - H4B   
 13749  13754  13757      1    1.0791e+02    4.1020e+02 ;    N31 - C34    - H4C   
 13749  13758  13759      1    1.0791e+02    4.1020e+02 ;    N31 - C35    - H5A   
 13749  13758  13760      1    1.0791e+02    4.1020e+02 ;    N31 - C35    - H5B   
 13749  13758  13761      1    1.0791e+02    4.1020e+02 ;    N31 - C35    - H5C   
 13750  13749  13754      1    1.1064e+02    5.2585e+02 ;    C33 - N31    - C34   
 13750  13749  13758      1    1.1064e+02    5.2585e+02 ;    C33 - N31    - C35   
 13751  13750  13752      1    1.1074e+02    3.2669e+02 ;    H3A - C33    - H3B   
 13751  13750  13753      1    1.1074e+02    3.2669e+02 ;    H3A - C33    - H3C   
 13752  13750  13753      1    1.1074e+02    3.2669e+02 ;    H3B - C33    - H3C   
 13754  13749  13758      1    1.1064e+02    5.2585e+02 ;    C34 - N31    - C35   
 13755  13754  13756      1    1.1074e+02    3.2669e+02 ;    H4A - C34    - H4B   
 13755  13754  13757      1    1.1074e+02    3.2669e+02 ;    H4A - C34    - H4C   
 13756  13754  13757      1    1.1074e+02    3.2669e+02 ;    H4B - C34    - H4C   
 13759  13758  13760      1    1.1074e+02    3.2669e+02 ;    H5A - C35    - H5B   
 13759  13758  13761      1    1.1074e+02    3.2669e+02 ;    H5A - C35    - H5C   
 13760  13758  13761      1    1.1074e+02    3.2669e+02 ;    H5B - C35    - H5C   
 13762  13741  13763      1    1.1990e+02    1.1715e+03 ;    O33 - P31    - O34   
 13764  13765  13766      1    1.2333e+02    6.3538e+02 ;    O21 - C21    - O22   
 13764  13765  13804      1    1.1196e+02    5.7957e+02 ;    O21 - C21    - C12   
 13765  13804  13801      1    1.1053e+02    5.3379e+02 ;    C21 - C12    - C13   
 13765  13804  13805      1    1.0968e+02    3.9497e+02 ;    C21 - C12    - H2R   
 13765  13804  13806      1    1.0968e+02    3.9497e+02 ;    C21 - C12    - H2S   
 13766  13765  13804      1    1.2311e+02    5.6928e+02 ;    O22 - C21    - C12   
 13767  13768  13769      1    1.0835e+02    3.2995e+02 ;   H14T - C114   - H14R  
 13767  13768  13770      1    1.0835e+02    3.2995e+02 ;   H14T - C114   - H14S  
 13767  13768  13771      1    1.1005e+02    3.8802e+02 ;   H14T - C114   - C113  
 13768  13771  13772      1    1.1005e+02    3.8802e+02 ;   C114 - C113   - H13R  
 13768  13771  13773      1    1.1005e+02    3.8802e+02 ;   C114 - C113   - H13S  
 13768  13771  13774      1    1.1205e+02    3.9497e+02 ;   C114 - C113   - C112  
 13769  13768  13770      1    1.0835e+02    3.2995e+02 ;   H14R - C114   - H14S  
 13769  13768  13771      1    1.1005e+02    3.8802e+02 ;   H14R - C114   - C113  
 13770  13768  13771      1    1.1005e+02    3.8802e+02 ;   H14S - C114   - C113  
 13771  13774  13775      1    1.1005e+02    3.8802e+02 ;   C113 - C112   - H12R  
 13771  13774  13776      1    1.1005e+02    3.8802e+02 ;   C113 - C112   - H12S  
 13771  13774  13777      1    1.1205e+02    3.9497e+02 ;   C113 - C112   - C111  
 13772  13771  13773      1    1.0835e+02    3.2995e+02 ;   H13R - C113   - H13S  
 13772  13771  13774      1    1.1005e+02    3.8802e+02 ;   H13R - C113   - C112  
 13773  13771  13774      1    1.1005e+02    3.8802e+02 ;   H13S - C113   - C112  
 13774  13777  13778      1    1.1005e+02    3.8802e+02 ;   C112 - C111   - H11R  
 13774  13777  13779      1    1.1005e+02    3.8802e+02 ;   C112 - C111   - H11S  
 13774  13777  13780      1    1.1205e+02    3.9497e+02 ;   C112 - C111   - C110  
 13775  13774  13776      1    1.0835e+02    3.2995e+02 ;   H12R - C112   - H12S  
 13775  13774  13777      1    1.1005e+02    3.8802e+02 ;   H12R - C112   - C111  
 13776  13774  13777      1    1.1005e+02    3.8802e+02 ;   H12S - C112   - C111  
 13777  13780  13781      1    1.1005e+02    3.8802e+02 ;   C111 - C110   - H10R  
 13777  13780  13782      1    1.1005e+02    3.8802e+02 ;   C111 - C110   - H10S  
 13777  13780  13783      1    1.1205e+02    3.9497e+02 ;   C111 - C110   - C19   
 13778  13777  13779      1    1.0835e+02    3.2995e+02 ;   H11R - C111   - H11S  
 13778  13777  13780      1    1.1005e+02    3.8802e+02 ;   H11R - C111   - C110  
 13779  13777  13780      1    1.1005e+02    3.8802e+02 ;   H11S - C111   - C110  
 13780  13783  13784      1    1.1005e+02    3.8802e+02 ;   C110 - C19    - H9R   
 13780  13783  13785      1    1.1005e+02    3.8802e+02 ;   C110 - C19    - H9S   
 13780  13783  13786      1    1.1205e+02    3.9497e+02 ;   C110 - C19    - C18   
 13781  13780  13782      1    1.0835e+02    3.2995e+02 ;   H10R - C110   - H10S  
 13781  13780  13783      1    1.1005e+02    3.8802e+02 ;   H10R - C110   - C19   
 13782  13780  13783      1    1.1005e+02    3.8802e+02 ;   H10S - C110   - C19   
 13783  13786  13787      1    1.1005e+02    3.8802e+02 ;    C19 - C18    - H8R   
 13783  13786  13788      1    1.1005e+02    3.8802e+02 ;    C19 - C18    - H8S   
 13783  13786  13789      1    1.1205e+02    3.9497e+02 ;    C19 - C18    - C17   
 13784  13783  13785      1    1.0835e+02    3.2995e+02 ;    H9R - C19    - H9S   
 13784  13783  13786      1    1.1005e+02    3.8802e+02 ;    H9R - C19    - C18   
 13785  13783  13786      1    1.1005e+02    3.8802e+02 ;    H9S - C19    - C18   
 13786  13789  13790      1    1.1005e+02    3.8802e+02 ;    C18 - C17    - H7R   
 13786  13789  13791      1    1.1005e+02    3.8802e+02 ;    C18 - C17    - H7S   
 13786  13789  13792      1    1.1205e+02    3.9497e+02 ;    C18 - C17    - C16   
 13787  13786  13788      1    1.0835e+02    3.2995e+02 ;    H8R - C18    - H8S   
 13787  13786  13789      1    1.1005e+02    3.8802e+02 ;    H8R - C18    - C17   
 13788  13786  13789      1    1.1005e+02    3.8802e+02 ;    H8S - C18    - C17   
 13789  13792  13793      1    1.1005e+02    3.8802e+02 ;    C17 - C16    - H6R   
 13789  13792  13794      1    1.1005e+02    3.8802e+02 ;    C17 - C16    - H6S   
 13789  13792  13795      1    1.1205e+02    3.9497e+02 ;    C17 - C16    - C15   
 13790  13789  13791      1    1.0835e+02    3.2995e+02 ;    H7R - C17    - H7S   
 13790  13789  13792      1    1.1005e+02    3.8802e+02 ;    H7R - C17    - C16   
 13791  13789  13792      1    1.1005e+02    3.8802e+02 ;    H7S - C17    - C16   
 13792  13795  13796      1    1.1005e+02    3.8802e+02 ;    C16 - C15    - H5R   
 13792  13795  13797      1    1.1005e+02    3.8802e+02 ;    C16 - C15    - H5S   
 13792  13795  13798      1    1.1205e+02    3.9497e+02 ;    C16 - C15    - C14   
 13793  13792  13794      1    1.0835e+02    3.2995e+02 ;    H6R - C16    - H6S   
 13793  13792  13795      1    1.1005e+02    3.8802e+02 ;    H6R - C16    - C15   
 13794  13792  13795      1    1.1005e+02    3.8802e+02 ;    H6S - C16    - C15   
 13795  13798  13799      1    1.1005e+02    3.8802e+02 ;    C15 - C14    - H4R   
 13795  13798  13800      1    1.1005e+02    3.8802e+02 ;    C15 - C14    - H4S   
 13795  13798  13801      1    1.1205e+02    3.9497e+02 ;    C15 - C14    - C13   
 13796  13795  13797      1    1.0835e+02    3.2995e+02 ;    H5R - C15    - H5S   
 13796  13795  13798      1    1.1005e+02    3.8802e+02 ;    H5R - C15    - C14   
 13797  13795  13798      1    1.1005e+02    3.8802e+02 ;    H5S - C15    - C14   
 13798  13801  13802      1    1.1005e+02    3.8802e+02 ;    C14 - C13    - H3R   
 13798  13801  13803      1    1.1005e+02    3.8802e+02 ;    C14 - C13    - H3S   
 13798  13801  13804      1    1.1205e+02    3.9497e+02 ;    C14 - C13    - C12   
 13799  13798  13800      1    1.0835e+02    3.2995e+02 ;    H4R - C14    - H4S   
 13799  13798  13801      1    1.1005e+02    3.8802e+02 ;    H4R - C14    - C13   
 13800  13798  13801      1    1.1005e+02    3.8802e+02 ;    H4S - C14    - C13   
 13801  13804  13805      1    1.1005e+02    3.8802e+02 ;    C13 - C12    - H2R   
 13801  13804  13806      1    1.1005e+02    3.8802e+02 ;    C13 - C12    - H2S   
 13802  13801  13803      1    1.0835e+02    3.2995e+02 ;    H3R - C13    - H3S   
 13802  13801  13804      1    1.1005e+02    3.8802e+02 ;    H3R - C13    - C12   
 13803  13801  13804      1    1.1005e+02    3.8802e+02 ;    H3S - C13    - C12   
 13805  13804  13806      1    1.0835e+02    3.2995e+02 ;    H2R - C12    - H2S   
 13807  13808  13809      1    1.0835e+02    3.2995e+02 ;   H14T - C114   - H14R  
 13807  13808  13810      1    1.0835e+02    3.2995e+02 ;   H14T - C114   - H14S  
 13807  13808  13811      1    1.1005e+02    3.8802e+02 ;   H14T - C114   - C113  
 13808  13811  13812      1    1.1005e+02    3.8802e+02 ;   C114 - C113   - H13R  
 13808  13811  13813      1    1.1005e+02    3.8802e+02 ;   C114 - C113   - H13S  
 13808  13811  13814      1    1.1205e+02    3.9497e+02 ;   C114 - C113   - C112  
 13809  13808  13810      1    1.0835e+02    3.2995e+02 ;   H14R - C114   - H14S  
 13809  13808  13811      1    1.1005e+02    3.8802e+02 ;   H14R - C114   - C113  
 13810  13808  13811      1    1.1005e+02    3.8802e+02 ;   H14S - C114   - C113  
 13811  13814  13815      1    1.1005e+02    3.8802e+02 ;   C113 - C112   - H12R  
 13811  13814  13816      1    1.1005e+02    3.8802e+02 ;   C113 - C112   - H12S  
 13811  13814  13817      1    1.1205e+02    3.9497e+02 ;   C113 - C112   - C111  
 13812  13811  13813      1    1.0835e+02    3.2995e+02 ;   H13R - C113   - H13S  
 13812  13811  13814      1    1.1005e+02    3.8802e+02 ;   H13R - C113   - C112  
 13813  13811  13814      1    1.1005e+02    3.8802e+02 ;   H13S - C113   - C112  
 13814  13817  13818      1    1.1005e+02    3.8802e+02 ;   C112 - C111   - H11R  
 13814  13817  13819      1    1.1005e+02    3.8802e+02 ;   C112 - C111   - H11S  
 13814  13817  13820      1    1.1205e+02    3.9497e+02 ;   C112 - C111   - C110  
 13815  13814  13816      1    1.0835e+02    3.2995e+02 ;   H12R - C112   - H12S  
 13815  13814  13817      1    1.1005e+02    3.8802e+02 ;   H12R - C112   - C111  
 13816  13814  13817      1    1.1005e+02    3.8802e+02 ;   H12S - C112   - C111  
 13817  13820  13821      1    1.1005e+02    3.8802e+02 ;   C111 - C110   - H10R  
 13817  13820  13822      1    1.1005e+02    3.8802e+02 ;   C111 - C110   - H10S  
 13817  13820  13823      1    1.1205e+02    3.9497e+02 ;   C111 - C110   - C19   
 13818  13817  13819      1    1.0835e+02    3.2995e+02 ;   H11R - C111   - H11S  
 13818  13817  13820      1    1.1005e+02    3.8802e+02 ;   H11R - C111   - C110  
 13819  13817  13820      1    1.1005e+02    3.8802e+02 ;   H11S - C111   - C110  
 13820  13823  13824      1    1.1005e+02    3.8802e+02 ;   C110 - C19    - H9R   
 13820  13823  13825      1    1.1005e+02    3.8802e+02 ;   C110 - C19    - H9S   
 13820  13823  13826      1    1.1205e+02    3.9497e+02 ;   C110 - C19    - C18   
 13821  13820  13822      1    1.0835e+02    3.2995e+02 ;   H10R - C110   - H10S  
 13821  13820  13823      1    1.1005e+02    3.8802e+02 ;   H10R - C110   - C19   
 13822  13820  13823      1    1.1005e+02    3.8802e+02 ;   H10S - C110   - C19   
 13823  13826  13827      1    1.1005e+02    3.8802e+02 ;    C19 - C18    - H8R   
 13823  13826  13828      1    1.1005e+02    3.8802e+02 ;    C19 - C18    - H8S   
 13823  13826  13829      1    1.1205e+02    3.9497e+02 ;    C19 - C18    - C17   
 13824  13823  13825      1    1.0835e+02    3.2995e+02 ;    H9R - C19    - H9S   
 13824  13823  13826      1    1.1005e+02    3.8802e+02 ;    H9R - C19    - C18   
 13825  13823  13826      1    1.1005e+02    3.8802e+02 ;    H9S - C19    - C18   
 13826  13829  13830      1    1.1005e+02    3.8802e+02 ;    C18 - C17    - H7R   
 13826  13829  13831      1    1.1005e+02    3.8802e+02 ;    C18 - C17    - H7S   
 13826  13829  13832      1    1.1205e+02    3.9497e+02 ;    C18 - C17    - C16   
 13827  13826  13828      1    1.0835e+02    3.2995e+02 ;    H8R - C18    - H8S   
 13827  13826  13829      1    1.1005e+02    3.8802e+02 ;    H8R - C18    - C17   
 13828  13826  13829      1    1.1005e+02    3.8802e+02 ;    H8S - C18    - C17   
 13829  13832  13833      1    1.1005e+02    3.8802e+02 ;    C17 - C16    - H6R   
 13829  13832  13834      1    1.1005e+02    3.8802e+02 ;    C17 - C16    - H6S   
 13829  13832  13835      1    1.1205e+02    3.9497e+02 ;    C17 - C16    - C15   
 13830  13829  13831      1    1.0835e+02    3.2995e+02 ;    H7R - C17    - H7S   
 13830  13829  13832      1    1.1005e+02    3.8802e+02 ;    H7R - C17    - C16   
 13831  13829  13832      1    1.1005e+02    3.8802e+02 ;    H7S - C17    - C16   
 13832  13835  13836      1    1.1005e+02    3.8802e+02 ;    C16 - C15    - H5R   
 13832  13835  13837      1    1.1005e+02    3.8802e+02 ;    C16 - C15    - H5S   
 13832  13835  13838      1    1.1205e+02    3.9497e+02 ;    C16 - C15    - C14   
 13833  13832  13834      1    1.0835e+02    3.2995e+02 ;    H6R - C16    - H6S   
 13833  13832  13835      1    1.1005e+02    3.8802e+02 ;    H6R - C16    - C15   
 13834  13832  13835      1    1.1005e+02    3.8802e+02 ;    H6S - C16    - C15   
 13835  13838  13839      1    1.1005e+02    3.8802e+02 ;    C15 - C14    - H4R   
 13835  13838  13840      1    1.1005e+02    3.8802e+02 ;    C15 - C14    - H4S   
 13835  13838  13841      1    1.1205e+02    3.9497e+02 ;    C15 - C14    - C13   
 13836  13835  13837      1    1.0835e+02    3.2995e+02 ;    H5R - C15    - H5S   
 13836  13835  13838      1    1.1005e+02    3.8802e+02 ;    H5R - C15    - C14   
 13837  13835  13838      1    1.1005e+02    3.8802e+02 ;    H5S - C15    - C14   
 13838  13841  13842      1    1.1005e+02    3.8802e+02 ;    C14 - C13    - H3R   
 13838  13841  13843      1    1.1005e+02    3.8802e+02 ;    C14 - C13    - H3S   
 13838  13841  13844      1    1.1205e+02    3.9497e+02 ;    C14 - C13    - C12   
 13839  13838  13840      1    1.0835e+02    3.2995e+02 ;    H4R - C14    - H4S   
 13839  13838  13841      1    1.1005e+02    3.8802e+02 ;    H4R - C14    - C13   
 13840  13838  13841      1    1.1005e+02    3.8802e+02 ;    H4S - C14    - C13   
 13841  13844  13845      1    1.1005e+02    3.8802e+02 ;    C13 - C12    - H2R   
 13841  13844  13846      1    1.1005e+02    3.8802e+02 ;    C13 - C12    - H2S   
 13841  13844  13847      1    1.1053e+02    5.3379e+02 ;    C13 - C12    - C11   
 13842  13841  13843      1    1.0835e+02    3.2995e+02 ;    H3R - C13    - H3S   
 13842  13841  13844      1    1.1005e+02    3.8802e+02 ;    H3R - C13    - C12   
 13843  13841  13844      1    1.1005e+02    3.8802e+02 ;    H3S - C13    - C12   
 13844  13847  13848      1    1.2311e+02    5.6928e+02 ;    C12 - C11    - O12   
 13844  13847  13849      1    1.1196e+02    5.7957e+02 ;    C12 - C11    - O11   
 13845  13844  13846      1    1.0835e+02    3.2995e+02 ;    H2R - C12    - H2S   
 13845  13844  13847      1    1.0968e+02    3.9497e+02 ;    H2R - C12    - C11   
 13846  13844  13847      1    1.0968e+02    3.9497e+02 ;    H2S - C12    - C11   
 13847  13849  13850      1    1.1514e+02    5.3246e+02 ;    C11 - O11    - C1    
 13848  13847  13849      1    1.2333e+02    6.3538e+02 ;    O12 - C11    - O11   
 13849  13850  13851      1    1.0882e+02    4.2543e+02 ;    O11 - C1     - HR    
 13849  13850  13852      1    1.0882e+02    4.2543e+02 ;    O11 - C1     - HS    
 13849  13850  13853      1    1.0842e+02    5.6718e+02 ;    O11 - C1     - C2    
 13850  13853  13854      1    1.1007e+02    3.8794e+02 ;     C1 - C2     - HX    
 13850  13853  13855      1    1.1063e+02    5.2894e+02 ;     C1 - C2     - C3    
 13850  13853  13882      1    1.0842e+02    5.6718e+02 ;     C1 - C2     - O21   
 13851  13850  13852      1    1.0955e+02    3.2786e+02 ;     HR - C1     - HS    
 13851  13850  13853      1    1.1007e+02    3.8794e+02 ;     HR - C1     - C2    
 13852  13850  13853      1    1.1007e+02    3.8794e+02 ;     HS - C1     - C2    
 13853  13855  13856      1    1.1007e+02    3.8794e+02 ;     C2 - C3     - HA    
 13853  13855  13857      1    1.1007e+02    3.8794e+02 ;     C2 - C3     - HB    
 13853  13855  13858      1    1.0842e+02    5.6718e+02 ;     C2 - C3     - O31   
 13853  13882  13883      1    1.1514e+02    5.3246e+02 ;     C2 - O21    - C21   
 13854  13853  13855      1    1.1007e+02    3.8794e+02 ;     HX - C2     - C3    
 13854  13853  13882      1    1.0882e+02    4.2543e+02 ;     HX - C2     - O21   
 13855  13853  13882      1    1.0842e+02    5.6718e+02 ;     C3 - C2     - O21   
 13855  13858  13859      1    1.2050e+02    8.3680e+02 ;     C3 - O31    - P31   
 13856  13855  13857      1    1.0955e+02    3.2786e+02 ;     HA - C3     - HB    
 13856  13855  13858      1    1.0882e+02    4.2543e+02 ;     HA - C3     - O31   
 13857  13855  13858      1    1.0882e+02    4.2543e+02 ;     HB - C3     - O31   
 13858  13859  13860      1    1.0260e+02    7.5312e+02 ;    O31 - P31    - O32   
 13858  13859  13880      1    1.0823e+02    8.3680e+02 ;    O31 - P31    - O33   
 13858  13859  13881      1    1.0823e+02    8.3680e+02 ;    O31 - P31    - O34   
 13859  13860  13861      1    1.2050e+02    8.3680e+02 ;    P31 - O32    - C31   
 13860  13859  13880      1    1.0823e+02    8.3680e+02 ;    O32 - P31    - O33   
 13860  13859  13881      1    1.0823e+02    8.3680e+02 ;    O32 - P31    - O34   
 13860  13861  13862      1    1.0882e+02    4.2543e+02 ;    O32 - C31    - H1A   
 13860  13861  13863      1    1.0882e+02    4.2543e+02 ;    O32 - C31    - H1B   
 13860  13861  13864      1    1.0842e+02    5.6718e+02 ;    O32 - C31    - C32   
 13861  13864  13865      1    1.1174e+02    3.8510e+02 ;    C31 - C32    - H2A   
 13861  13864  13866      1    1.1174e+02    3.8510e+02 ;    C31 - C32    - H2B   
 13861  13864  13867      1    1.1432e+02    5.3932e+02 ;    C31 - C32    - N31   
 13862  13861  13863      1    1.0955e+02    3.2786e+02 ;    H1A - C31    - H1B   
 13862  13861  13864      1    1.1007e+02    3.8794e+02 ;    H1A - C31    - C32   
 13863  13861  13864      1    1.1007e+02    3.8794e+02 ;    H1B - C31    - C32   
 13864  13867  13868      1    1.1064e+02    5.2585e+02 ;    C32 - N31    - C33   
 13864  13867  13872      1    1.1064e+02    5.2585e+02 ;    C32 - N31    - C34   
 13864  13867  13876      1    1.1064e+02    5.2585e+02 ;    C32 - N31    - C35   
 13865  13864  13866      1    1.1074e+02    3.2669e+02 ;    H2A - C32    - H2B   
 13865  13864  13867      1    1.0791e+02    4.1020e+02 ;    H2A - C32    - N31   
 13866  13864  13867      1    1.0791e+02    4.1020e+02 ;    H2B - C32    - N31   
 13867  13868  13869      1    1.0791e+02    4.1020e+02 ;    N31 - C33    - H3A   
 13867  13868  13870      1    1.0791e+02    4.1020e+02 ;    N31 - C33    - H3B   
 13867  13868  13871      1    1.0791e+02    4.1020e+02 ;    N31 - C33    - H3C   
 13867  13872  13873      1    1.0791e+02    4.1020e+02 ;    N31 - C34    - H4A   
 13867  13872  13874      1    1.0791e+02    4.1020e+02 ;    N31 - C34    - H4B   
 13867  13872  13875      1    1.0791e+02    4.1020e+02 ;    N31 - C34    - H4C   
 13867  13876  13877      1    1.0791e+02    4.1020e+02 ;    N31 - C35    - H5A   
 13867  13876  13878      1    1.0791e+02    4.1020e+02 ;    N31 - C35    - H5B   
 13867  13876  13879      1    1.0791e+02    4.1020e+02 ;    N31 - C35    - H5C   
 13868  13867  13872      1    1.1064e+02    5.2585e+02 ;    C33 - N31    - C34   
 13868  13867  13876      1    1.1064e+02    5.2585e+02 ;    C33 - N31    - C35   
 13869  13868  13870      1    1.1074e+02    3.2669e+02 ;    H3A - C33    - H3B   
 13869  13868  13871      1    1.1074e+02    3.2669e+02 ;    H3A - C33    - H3C   
 13870  13868  13871      1    1.1074e+02    3.2669e+02 ;    H3B - C33    - H3C   
 13872  13867  13876      1    1.1064e+02    5.2585e+02 ;    C34 - N31    - C35   
 13873  13872  13874      1    1.1074e+02    3.2669e+02 ;    H4A - C34    - H4B   
 13873  13872  13875      1    1.1074e+02    3.2669e+02 ;    H4A - C34    - H4C   
 13874  13872  13875      1    1.1074e+02    3.2669e+02 ;    H4B - C34    - H4C   
 13877  13876  13878      1    1.1074e+02    3.2669e+02 ;    H5A - C35    - H5B   
 13877  13876  13879      1    1.1074e+02    3.2669e+02 ;    H5A - C35    - H5C   
 13878  13876  13879      1    1.1074e+02    3.2669e+02 ;    H5B - C35    - H5C   
 13880  13859  13881      1    1.1990e+02    1.1715e+03 ;    O33 - P31    - O34   
 13882  13883  13884      1    1.2333e+02    6.3538e+02 ;    O21 - C21    - O22   
 13882  13883  13922      1    1.1196e+02    5.7957e+02 ;    O21 - C21    - C12   
 13883  13922  13919      1    1.1053e+02    5.3379e+02 ;    C21 - C12    - C13   
 13883  13922  13923      1    1.0968e+02    3.9497e+02 ;    C21 - C12    - H2R   
 13883  13922  13924      1    1.0968e+02    3.9497e+02 ;    C21 - C12    - H2S   
 13884  13883  13922      1    1.2311e+02    5.6928e+02 ;    O22 - C21    - C12   
 13885  13886  13887      1    1.0835e+02    3.2995e+02 ;   H14T - C114   - H14R  
 13885  13886  13888      1    1.0835e+02    3.2995e+02 ;   H14T - C114   - H14S  
 13885  13886  13889      1    1.1005e+02    3.8802e+02 ;   H14T - C114   - C113  
 13886  13889  13890      1    1.1005e+02    3.8802e+02 ;   C114 - C113   - H13R  
 13886  13889  13891      1    1.1005e+02    3.8802e+02 ;   C114 - C113   - H13S  
 13886  13889  13892      1    1.1205e+02    3.9497e+02 ;   C114 - C113   - C112  
 13887  13886  13888      1    1.0835e+02    3.2995e+02 ;   H14R - C114   - H14S  
 13887  13886  13889      1    1.1005e+02    3.8802e+02 ;   H14R - C114   - C113  
 13888  13886  13889      1    1.1005e+02    3.8802e+02 ;   H14S - C114   - C113  
 13889  13892  13893      1    1.1005e+02    3.8802e+02 ;   C113 - C112   - H12R  
 13889  13892  13894      1    1.1005e+02    3.8802e+02 ;   C113 - C112   - H12S  
 13889  13892  13895      1    1.1205e+02    3.9497e+02 ;   C113 - C112   - C111  
 13890  13889  13891      1    1.0835e+02    3.2995e+02 ;   H13R - C113   - H13S  
 13890  13889  13892      1    1.1005e+02    3.8802e+02 ;   H13R - C113   - C112  
 13891  13889  13892      1    1.1005e+02    3.8802e+02 ;   H13S - C113   - C112  
 13892  13895  13896      1    1.1005e+02    3.8802e+02 ;   C112 - C111   - H11R  
 13892  13895  13897      1    1.1005e+02    3.8802e+02 ;   C112 - C111   - H11S  
 13892  13895  13898      1    1.1205e+02    3.9497e+02 ;   C112 - C111   - C110  
 13893  13892  13894      1    1.0835e+02    3.2995e+02 ;   H12R - C112   - H12S  
 13893  13892  13895      1    1.1005e+02    3.8802e+02 ;   H12R - C112   - C111  
 13894  13892  13895      1    1.1005e+02    3.8802e+02 ;   H12S - C112   - C111  
 13895  13898  13899      1    1.1005e+02    3.8802e+02 ;   C111 - C110   - H10R  
 13895  13898  13900      1    1.1005e+02    3.8802e+02 ;   C111 - C110   - H10S  
 13895  13898  13901      1    1.1205e+02    3.9497e+02 ;   C111 - C110   - C19   
 13896  13895  13897      1    1.0835e+02    3.2995e+02 ;   H11R - C111   - H11S  
 13896  13895  13898      1    1.1005e+02    3.8802e+02 ;   H11R - C111   - C110  
 13897  13895  13898      1    1.1005e+02    3.8802e+02 ;   H11S - C111   - C110  
 13898  13901  13902      1    1.1005e+02    3.8802e+02 ;   C110 - C19    - H9R   
 13898  13901  13903      1    1.1005e+02    3.8802e+02 ;   C110 - C19    - H9S   
 13898  13901  13904      1    1.1205e+02    3.9497e+02 ;   C110 - C19    - C18   
 13899  13898  13900      1    1.0835e+02    3.2995e+02 ;   H10R - C110   - H10S  
 13899  13898  13901      1    1.1005e+02    3.8802e+02 ;   H10R - C110   - C19   
 13900  13898  13901      1    1.1005e+02    3.8802e+02 ;   H10S - C110   - C19   
 13901  13904  13905      1    1.1005e+02    3.8802e+02 ;    C19 - C18    - H8R   
 13901  13904  13906      1    1.1005e+02    3.8802e+02 ;    C19 - C18    - H8S   
 13901  13904  13907      1    1.1205e+02    3.9497e+02 ;    C19 - C18    - C17   
 13902  13901  13903      1    1.0835e+02    3.2995e+02 ;    H9R - C19    - H9S   
 13902  13901  13904      1    1.1005e+02    3.8802e+02 ;    H9R - C19    - C18   
 13903  13901  13904      1    1.1005e+02    3.8802e+02 ;    H9S - C19    - C18   
 13904  13907  13908      1    1.1005e+02    3.8802e+02 ;    C18 - C17    - H7R   
 13904  13907  13909      1    1.1005e+02    3.8802e+02 ;    C18 - C17    - H7S   
 13904  13907  13910      1    1.1205e+02    3.9497e+02 ;    C18 - C17    - C16   
 13905  13904  13906      1    1.0835e+02    3.2995e+02 ;    H8R - C18    - H8S   
 13905  13904  13907      1    1.1005e+02    3.8802e+02 ;    H8R - C18    - C17   
 13906  13904  13907      1    1.1005e+02    3.8802e+02 ;    H8S - C18    - C17   
 13907  13910  13911      1    1.1005e+02    3.8802e+02 ;    C17 - C16    - H6R   
 13907  13910  13912      1    1.1005e+02    3.8802e+02 ;    C17 - C16    - H6S   
 13907  13910  13913      1    1.1205e+02    3.9497e+02 ;    C17 - C16    - C15   
 13908  13907  13909      1    1.0835e+02    3.2995e+02 ;    H7R - C17    - H7S   
 13908  13907  13910      1    1.1005e+02    3.8802e+02 ;    H7R - C17    - C16   
 13909  13907  13910      1    1.1005e+02    3.8802e+02 ;    H7S - C17    - C16   
 13910  13913  13914      1    1.1005e+02    3.8802e+02 ;    C16 - C15    - H5R   
 13910  13913  13915      1    1.1005e+02    3.8802e+02 ;    C16 - C15    - H5S   
 13910  13913  13916      1    1.1205e+02    3.9497e+02 ;    C16 - C15    - C14   
 13911  13910  13912      1    1.0835e+02    3.2995e+02 ;    H6R - C16    - H6S   
 13911  13910  13913      1    1.1005e+02    3.8802e+02 ;    H6R - C16    - C15   
 13912  13910  13913      1    1.1005e+02    3.8802e+02 ;    H6S - C16    - C15   
 13913  13916  13917      1    1.1005e+02    3.8802e+02 ;    C15 - C14    - H4R   
 13913  13916  13918      1    1.1005e+02    3.8802e+02 ;    C15 - C14    - H4S   
 13913  13916  13919      1    1.1205e+02    3.9497e+02 ;    C15 - C14    - C13   
 13914  13913  13915      1    1.0835e+02    3.2995e+02 ;    H5R - C15    - H5S   
 13914  13913  13916      1    1.1005e+02    3.8802e+02 ;    H5R - C15    - C14   
 13915  13913  13916      1    1.1005e+02    3.8802e+02 ;    H5S - C15    - C14   
 13916  13919  13920      1    1.1005e+02    3.8802e+02 ;    C14 - C13    - H3R   
 13916  13919  13921      1    1.1005e+02    3.8802e+02 ;    C14 - C13    - H3S   
 13916  13919  13922      1    1.1205e+02    3.9497e+02 ;    C14 - C13    - C12   
 13917  13916  13918      1    1.0835e+02    3.2995e+02 ;    H4R - C14    - H4S   
 13917  13916  13919      1    1.1005e+02    3.8802e+02 ;    H4R - C14    - C13   
 13918  13916  13919      1    1.1005e+02    3.8802e+02 ;    H4S - C14    - C13   
 13919  13922  13923      1    1.1005e+02    3.8802e+02 ;    C13 - C12    - H2R   
 13919  13922  13924      1    1.1005e+02    3.8802e+02 ;    C13 - C12    - H2S   
 13920  13919  13921      1    1.0835e+02    3.2995e+02 ;    H3R - C13    - H3S   
 13920  13919  13922      1    1.1005e+02    3.8802e+02 ;    H3R - C13    - C12   
 13921  13919  13922      1    1.1005e+02    3.8802e+02 ;    H3S - C13    - C12   
 13923  13922  13924      1    1.0835e+02    3.2995e+02 ;    H2R - C12    - H2S   
 13925  13926  13927      1    1.0835e+02    3.2995e+02 ;   H14T - C114   - H14R  
 13925  13926  13928      1    1.0835e+02    3.2995e+02 ;   H14T - C114   - H14S  
 13925  13926  13929      1    1.1005e+02    3.8802e+02 ;   H14T - C114   - C113  
 13926  13929  13930      1    1.1005e+02    3.8802e+02 ;   C114 - C113   - H13R  
 13926  13929  13931      1    1.1005e+02    3.8802e+02 ;   C114 - C113   - H13S  
 13926  13929  13932      1    1.1205e+02    3.9497e+02 ;   C114 - C113   - C112  
 13927  13926  13928      1    1.0835e+02    3.2995e+02 ;   H14R - C114   - H14S  
 13927  13926  13929      1    1.1005e+02    3.8802e+02 ;   H14R - C114   - C113  
 13928  13926  13929      1    1.1005e+02    3.8802e+02 ;   H14S - C114   - C113  
 13929  13932  13933      1    1.1005e+02    3.8802e+02 ;   C113 - C112   - H12R  
 13929  13932  13934      1    1.1005e+02    3.8802e+02 ;   C113 - C112   - H12S  
 13929  13932  13935      1    1.1205e+02    3.9497e+02 ;   C113 - C112   - C111  
 13930  13929  13931      1    1.0835e+02    3.2995e+02 ;   H13R - C113   - H13S  
 13930  13929  13932      1    1.1005e+02    3.8802e+02 ;   H13R - C113   - C112  
 13931  13929  13932      1    1.1005e+02    3.8802e+02 ;   H13S - C113   - C112  
 13932  13935  13936      1    1.1005e+02    3.8802e+02 ;   C112 - C111   - H11R  
 13932  13935  13937      1    1.1005e+02    3.8802e+02 ;   C112 - C111   - H11S  
 13932  13935  13938      1    1.1205e+02    3.9497e+02 ;   C112 - C111   - C110  
 13933  13932  13934      1    1.0835e+02    3.2995e+02 ;   H12R - C112   - H12S  
 13933  13932  13935      1    1.1005e+02    3.8802e+02 ;   H12R - C112   - C111  
 13934  13932  13935      1    1.1005e+02    3.8802e+02 ;   H12S - C112   - C111  
 13935  13938  13939      1    1.1005e+02    3.8802e+02 ;   C111 - C110   - H10R  
 13935  13938  13940      1    1.1005e+02    3.8802e+02 ;   C111 - C110   - H10S  
 13935  13938  13941      1    1.1205e+02    3.9497e+02 ;   C111 - C110   - C19   
 13936  13935  13937      1    1.0835e+02    3.2995e+02 ;   H11R - C111   - H11S  
 13936  13935  13938      1    1.1005e+02    3.8802e+02 ;   H11R - C111   - C110  
 13937  13935  13938      1    1.1005e+02    3.8802e+02 ;   H11S - C111   - C110  
 13938  13941  13942      1    1.1005e+02    3.8802e+02 ;   C110 - C19    - H9R   
 13938  13941  13943      1    1.1005e+02    3.8802e+02 ;   C110 - C19    - H9S   
 13938  13941  13944      1    1.1205e+02    3.9497e+02 ;   C110 - C19    - C18   
 13939  13938  13940      1    1.0835e+02    3.2995e+02 ;   H10R - C110   - H10S  
 13939  13938  13941      1    1.1005e+02    3.8802e+02 ;   H10R - C110   - C19   
 13940  13938  13941      1    1.1005e+02    3.8802e+02 ;   H10S - C110   - C19   
 13941  13944  13945      1    1.1005e+02    3.8802e+02 ;    C19 - C18    - H8R   
 13941  13944  13946      1    1.1005e+02    3.8802e+02 ;    C19 - C18    - H8S   
 13941  13944  13947      1    1.1205e+02    3.9497e+02 ;    C19 - C18    - C17   
 13942  13941  13943      1    1.0835e+02    3.2995e+02 ;    H9R - C19    - H9S   
 13942  13941  13944      1    1.1005e+02    3.8802e+02 ;    H9R - C19    - C18   
 13943  13941  13944      1    1.1005e+02    3.8802e+02 ;    H9S - C19    - C18   
 13944  13947  13948      1    1.1005e+02    3.8802e+02 ;    C18 - C17    - H7R   
 13944  13947  13949      1    1.1005e+02    3.8802e+02 ;    C18 - C17    - H7S   
 13944  13947  13950      1    1.1205e+02    3.9497e+02 ;    C18 - C17    - C16   
 13945  13944  13946      1    1.0835e+02    3.2995e+02 ;    H8R - C18    - H8S   
 13945  13944  13947      1    1.1005e+02    3.8802e+02 ;    H8R - C18    - C17   
 13946  13944  13947      1    1.1005e+02    3.8802e+02 ;    H8S - C18    - C17   
 13947  13950  13951      1    1.1005e+02    3.8802e+02 ;    C17 - C16    - H6R   
 13947  13950  13952      1    1.1005e+02    3.8802e+02 ;    C17 - C16    - H6S   
 13947  13950  13953      1    1.1205e+02    3.9497e+02 ;    C17 - C16    - C15   
 13948  13947  13949      1    1.0835e+02    3.2995e+02 ;    H7R - C17    - H7S   
 13948  13947  13950      1    1.1005e+02    3.8802e+02 ;    H7R - C17    - C16   
 13949  13947  13950      1    1.1005e+02    3.8802e+02 ;    H7S - C17    - C16   
 13950  13953  13954      1    1.1005e+02    3.8802e+02 ;    C16 - C15    - H5R   
 13950  13953  13955      1    1.1005e+02    3.8802e+02 ;    C16 - C15    - H5S   
 13950  13953  13956      1    1.1205e+02    3.9497e+02 ;    C16 - C15    - C14   
 13951  13950  13952      1    1.0835e+02    3.2995e+02 ;    H6R - C16    - H6S   
 13951  13950  13953      1    1.1005e+02    3.8802e+02 ;    H6R - C16    - C15   
 13952  13950  13953      1    1.1005e+02    3.8802e+02 ;    H6S - C16    - C15   
 13953  13956  13957      1    1.1005e+02    3.8802e+02 ;    C15 - C14    - H4R   
 13953  13956  13958      1    1.1005e+02    3.8802e+02 ;    C15 - C14    - H4S   
 13953  13956  13959      1    1.1205e+02    3.9497e+02 ;    C15 - C14    - C13   
 13954  13953  13955      1    1.0835e+02    3.2995e+02 ;    H5R - C15    - H5S   
 13954  13953  13956      1    1.1005e+02    3.8802e+02 ;    H5R - C15    - C14   
 13955  13953  13956      1    1.1005e+02    3.8802e+02 ;    H5S - C15    - C14   
 13956  13959  13960      1    1.1005e+02    3.8802e+02 ;    C14 - C13    - H3R   
 13956  13959  13961      1    1.1005e+02    3.8802e+02 ;    C14 - C13    - H3S   
 13956  13959  13962      1    1.1205e+02    3.9497e+02 ;    C14 - C13    - C12   
 13957  13956  13958      1    1.0835e+02    3.2995e+02 ;    H4R - C14    - H4S   
 13957  13956  13959      1    1.1005e+02    3.8802e+02 ;    H4R - C14    - C13   
 13958  13956  13959      1    1.1005e+02    3.8802e+02 ;    H4S - C14    - C13   
 13959  13962  13963      1    1.1005e+02    3.8802e+02 ;    C13 - C12    - H2R   
 13959  13962  13964      1    1.1005e+02    3.8802e+02 ;    C13 - C12    - H2S   
 13959  13962  13965      1    1.1053e+02    5.3379e+02 ;    C13 - C12    - C11   
 13960  13959  13961      1    1.0835e+02    3.2995e+02 ;    H3R - C13    - H3S   
 13960  13959  13962      1    1.1005e+02    3.8802e+02 ;    H3R - C13    - C12   
 13961  13959  13962      1    1.1005e+02    3.8802e+02 ;    H3S - C13    - C12   
 13962  13965  13966      1    1.2311e+02    5.6928e+02 ;    C12 - C11    - O12   
 13962  13965  13967      1    1.1196e+02    5.7957e+02 ;    C12 - C11    - O11   
 13963  13962  13964      1    1.0835e+02    3.2995e+02 ;    H2R - C12    - H2S   
 13963  13962  13965      1    1.0968e+02    3.9497e+02 ;    H2R - C12    - C11   
 13964  13962  13965      1    1.0968e+02    3.9497e+02 ;    H2S - C12    - C11   
 13965  13967  13968      1    1.1514e+02    5.3246e+02 ;    C11 - O11    - C1    
 13966  13965  13967      1    1.2333e+02    6.3538e+02 ;    O12 - C11    - O11   
 13967  13968  13969      1    1.0882e+02    4.2543e+02 ;    O11 - C1     - HR    
 13967  13968  13970      1    1.0882e+02    4.2543e+02 ;    O11 - C1     - HS    
 13967  13968  13971      1    1.0842e+02    5.6718e+02 ;    O11 - C1     - C2    
 13968  13971  13972      1    1.1007e+02    3.8794e+02 ;     C1 - C2     - HX    
 13968  13971  13973      1    1.1063e+02    5.2894e+02 ;     C1 - C2     - C3    
 13968  13971  14000      1    1.0842e+02    5.6718e+02 ;     C1 - C2     - O21   
 13969  13968  13970      1    1.0955e+02    3.2786e+02 ;     HR - C1     - HS    
 13969  13968  13971      1    1.1007e+02    3.8794e+02 ;     HR - C1     - C2    
 13970  13968  13971      1    1.1007e+02    3.8794e+02 ;     HS - C1     - C2    
 13971  13973  13974      1    1.1007e+02    3.8794e+02 ;     C2 - C3     - HA    
 13971  13973  13975      1    1.1007e+02    3.8794e+02 ;     C2 - C3     - HB    
 13971  13973  13976      1    1.0842e+02    5.6718e+02 ;     C2 - C3     - O31   
 13971  14000  14001      1    1.1514e+02    5.3246e+02 ;     C2 - O21    - C21   
 13972  13971  13973      1    1.1007e+02    3.8794e+02 ;     HX - C2     - C3    
 13972  13971  14000      1    1.0882e+02    4.2543e+02 ;     HX - C2     - O21   
 13973  13971  14000      1    1.0842e+02    5.6718e+02 ;     C3 - C2     - O21   
 13973  13976  13977      1    1.2050e+02    8.3680e+02 ;     C3 - O31    - P31   
 13974  13973  13975      1    1.0955e+02    3.2786e+02 ;     HA - C3     - HB    
 13974  13973  13976      1    1.0882e+02    4.2543e+02 ;     HA - C3     - O31   
 13975  13973  13976      1    1.0882e+02    4.2543e+02 ;     HB - C3     - O31   
 13976  13977  13978      1    1.0260e+02    7.5312e+02 ;    O31 - P31    - O32   
 13976  13977  13998      1    1.0823e+02    8.3680e+02 ;    O31 - P31    - O33   
 13976  13977  13999      1    1.0823e+02    8.3680e+02 ;    O31 - P31    - O34   
 13977  13978  13979      1    1.2050e+02    8.3680e+02 ;    P31 - O32    - C31   
 13978  13977  13998      1    1.0823e+02    8.3680e+02 ;    O32 - P31    - O33   
 13978  13977  13999      1    1.0823e+02    8.3680e+02 ;    O32 - P31    - O34   
 13978  13979  13980      1    1.0882e+02    4.2543e+02 ;    O32 - C31    - H1A   
 13978  13979  13981      1    1.0882e+02    4.2543e+02 ;    O32 - C31    - H1B   
 13978  13979  13982      1    1.0842e+02    5.6718e+02 ;    O32 - C31    - C32   
 13979  13982  13983      1    1.1174e+02    3.8510e+02 ;    C31 - C32    - H2A   
 13979  13982  13984      1    1.1174e+02    3.8510e+02 ;    C31 - C32    - H2B   
 13979  13982  13985      1    1.1432e+02    5.3932e+02 ;    C31 - C32    - N31   
 13980  13979  13981      1    1.0955e+02    3.2786e+02 ;    H1A - C31    - H1B   
 13980  13979  13982      1    1.1007e+02    3.8794e+02 ;    H1A - C31    - C32   
 13981  13979  13982      1    1.1007e+02    3.8794e+02 ;    H1B - C31    - C32   
 13982  13985  13986      1    1.1064e+02    5.2585e+02 ;    C32 - N31    - C33   
 13982  13985  13990      1    1.1064e+02    5.2585e+02 ;    C32 - N31    - C34   
 13982  13985  13994      1    1.1064e+02    5.2585e+02 ;    C32 - N31    - C35   
 13983  13982  13984      1    1.1074e+02    3.2669e+02 ;    H2A - C32    - H2B   
 13983  13982  13985      1    1.0791e+02    4.1020e+02 ;    H2A - C32    - N31   
 13984  13982  13985      1    1.0791e+02    4.1020e+02 ;    H2B - C32    - N31   
 13985  13986  13987      1    1.0791e+02    4.1020e+02 ;    N31 - C33    - H3A   
 13985  13986  13988      1    1.0791e+02    4.1020e+02 ;    N31 - C33    - H3B   
 13985  13986  13989      1    1.0791e+02    4.1020e+02 ;    N31 - C33    - H3C   
 13985  13990  13991      1    1.0791e+02    4.1020e+02 ;    N31 - C34    - H4A   
 13985  13990  13992      1    1.0791e+02    4.1020e+02 ;    N31 - C34    - H4B   
 13985  13990  13993      1    1.0791e+02    4.1020e+02 ;    N31 - C34    - H4C   
 13985  13994  13995      1    1.0791e+02    4.1020e+02 ;    N31 - C35    - H5A   
 13985  13994  13996      1    1.0791e+02    4.1020e+02 ;    N31 - C35    - H5B   
 13985  13994  13997      1    1.0791e+02    4.1020e+02 ;    N31 - C35    - H5C   
 13986  13985  13990      1    1.1064e+02    5.2585e+02 ;    C33 - N31    - C34   
 13986  13985  13994      1    1.1064e+02    5.2585e+02 ;    C33 - N31    - C35   
 13987  13986  13988      1    1.1074e+02    3.2669e+02 ;    H3A - C33    - H3B   
 13987  13986  13989      1    1.1074e+02    3.2669e+02 ;    H3A - C33    - H3C   
 13988  13986  13989      1    1.1074e+02    3.2669e+02 ;    H3B - C33    - H3C   
 13990  13985  13994      1    1.1064e+02    5.2585e+02 ;    C34 - N31    - C35   
 13991  13990  13992      1    1.1074e+02    3.2669e+02 ;    H4A - C34    - H4B   
 13991  13990  13993      1    1.1074e+02    3.2669e+02 ;    H4A - C34    - H4C   
 13992  13990  13993      1    1.1074e+02    3.2669e+02 ;    H4B - C34    - H4C   
 13995  13994  13996      1    1.1074e+02    3.2669e+02 ;    H5A - C35    - H5B   
 13995  13994  13997      1    1.1074e+02    3.2669e+02 ;    H5A - C35    - H5C   
 13996  13994  13997      1    1.1074e+02    3.2669e+02 ;    H5B - C35    - H5C   
 13998  13977  13999      1    1.1990e+02    1.1715e+03 ;    O33 - P31    - O34   
 14000  14001  14002      1    1.2333e+02    6.3538e+02 ;    O21 - C21    - O22   
 14000  14001  14040      1    1.1196e+02    5.7957e+02 ;    O21 - C21    - C12   
 14001  14040  14037      1    1.1053e+02    5.3379e+02 ;    C21 - C12    - C13   
 14001  14040  14041      1    1.0968e+02    3.9497e+02 ;    C21 - C12    - H2R   
 14001  14040  14042      1    1.0968e+02    3.9497e+02 ;    C21 - C12    - H2S   
 14002  14001  14040      1    1.2311e+02    5.6928e+02 ;    O22 - C21    - C12   
 14003  14004  14005      1    1.0835e+02    3.2995e+02 ;   H14T - C114   - H14R  
 14003  14004  14006      1    1.0835e+02    3.2995e+02 ;   H14T - C114   - H14S  
 14003  14004  14007      1    1.1005e+02    3.8802e+02 ;   H14T - C114   - C113  
 14004  14007  14008      1    1.1005e+02    3.8802e+02 ;   C114 - C113   - H13R  
 14004  14007  14009      1    1.1005e+02    3.8802e+02 ;   C114 - C113   - H13S  
 14004  14007  14010      1    1.1205e+02    3.9497e+02 ;   C114 - C113   - C112  
 14005  14004  14006      1    1.0835e+02    3.2995e+02 ;   H14R - C114   - H14S  
 14005  14004  14007      1    1.1005e+02    3.8802e+02 ;   H14R - C114   - C113  
 14006  14004  14007      1    1.1005e+02    3.8802e+02 ;   H14S - C114   - C113  
 14007  14010  14011      1    1.1005e+02    3.8802e+02 ;   C113 - C112   - H12R  
 14007  14010  14012      1    1.1005e+02    3.8802e+02 ;   C113 - C112   - H12S  
 14007  14010  14013      1    1.1205e+02    3.9497e+02 ;   C113 - C112   - C111  
 14008  14007  14009      1    1.0835e+02    3.2995e+02 ;   H13R - C113   - H13S  
 14008  14007  14010      1    1.1005e+02    3.8802e+02 ;   H13R - C113   - C112  
 14009  14007  14010      1    1.1005e+02    3.8802e+02 ;   H13S - C113   - C112  
 14010  14013  14014      1    1.1005e+02    3.8802e+02 ;   C112 - C111   - H11R  
 14010  14013  14015      1    1.1005e+02    3.8802e+02 ;   C112 - C111   - H11S  
 14010  14013  14016      1    1.1205e+02    3.9497e+02 ;   C112 - C111   - C110  
 14011  14010  14012      1    1.0835e+02    3.2995e+02 ;   H12R - C112   - H12S  
 14011  14010  14013      1    1.1005e+02    3.8802e+02 ;   H12R - C112   - C111  
 14012  14010  14013      1    1.1005e+02    3.8802e+02 ;   H12S - C112   - C111  
 14013  14016  14017      1    1.1005e+02    3.8802e+02 ;   C111 - C110   - H10R  
 14013  14016  14018      1    1.1005e+02    3.8802e+02 ;   C111 - C110   - H10S  
 14013  14016  14019      1    1.1205e+02    3.9497e+02 ;   C111 - C110   - C19   
 14014  14013  14015      1    1.0835e+02    3.2995e+02 ;   H11R - C111   - H11S  
 14014  14013  14016      1    1.1005e+02    3.8802e+02 ;   H11R - C111   - C110  
 14015  14013  14016      1    1.1005e+02    3.8802e+02 ;   H11S - C111   - C110  
 14016  14019  14020      1    1.1005e+02    3.8802e+02 ;   C110 - C19    - H9R   
 14016  14019  14021      1    1.1005e+02    3.8802e+02 ;   C110 - C19    - H9S   
 14016  14019  14022      1    1.1205e+02    3.9497e+02 ;   C110 - C19    - C18   
 14017  14016  14018      1    1.0835e+02    3.2995e+02 ;   H10R - C110   - H10S  
 14017  14016  14019      1    1.1005e+02    3.8802e+02 ;   H10R - C110   - C19   
 14018  14016  14019      1    1.1005e+02    3.8802e+02 ;   H10S - C110   - C19   
 14019  14022  14023      1    1.1005e+02    3.8802e+02 ;    C19 - C18    - H8R   
 14019  14022  14024      1    1.1005e+02    3.8802e+02 ;    C19 - C18    - H8S   
 14019  14022  14025      1    1.1205e+02    3.9497e+02 ;    C19 - C18    - C17   
 14020  14019  14021      1    1.0835e+02    3.2995e+02 ;    H9R - C19    - H9S   
 14020  14019  14022      1    1.1005e+02    3.8802e+02 ;    H9R - C19    - C18   
 14021  14019  14022      1    1.1005e+02    3.8802e+02 ;    H9S - C19    - C18   
 14022  14025  14026      1    1.1005e+02    3.8802e+02 ;    C18 - C17    - H7R   
 14022  14025  14027      1    1.1005e+02    3.8802e+02 ;    C18 - C17    - H7S   
 14022  14025  14028      1    1.1205e+02    3.9497e+02 ;    C18 - C17    - C16   
 14023  14022  14024      1    1.0835e+02    3.2995e+02 ;    H8R - C18    - H8S   
 14023  14022  14025      1    1.1005e+02    3.8802e+02 ;    H8R - C18    - C17   
 14024  14022  14025      1    1.1005e+02    3.8802e+02 ;    H8S - C18    - C17   
 14025  14028  14029      1    1.1005e+02    3.8802e+02 ;    C17 - C16    - H6R   
 14025  14028  14030      1    1.1005e+02    3.8802e+02 ;    C17 - C16    - H6S   
 14025  14028  14031      1    1.1205e+02    3.9497e+02 ;    C17 - C16    - C15   
 14026  14025  14027      1    1.0835e+02    3.2995e+02 ;    H7R - C17    - H7S   
 14026  14025  14028      1    1.1005e+02    3.8802e+02 ;    H7R - C17    - C16   
 14027  14025  14028      1    1.1005e+02    3.8802e+02 ;    H7S - C17    - C16   
 14028  14031  14032      1    1.1005e+02    3.8802e+02 ;    C16 - C15    - H5R   
 14028  14031  14033      1    1.1005e+02    3.8802e+02 ;    C16 - C15    - H5S   
 14028  14031  14034      1    1.1205e+02    3.9497e+02 ;    C16 - C15    - C14   
 14029  14028  14030      1    1.0835e+02    3.2995e+02 ;    H6R - C16    - H6S   
 14029  14028  14031      1    1.1005e+02    3.8802e+02 ;    H6R - C16    - C15   
 14030  14028  14031      1    1.1005e+02    3.8802e+02 ;    H6S - C16    - C15   
 14031  14034  14035      1    1.1005e+02    3.8802e+02 ;    C15 - C14    - H4R   
 14031  14034  14036      1    1.1005e+02    3.8802e+02 ;    C15 - C14    - H4S   
 14031  14034  14037      1    1.1205e+02    3.9497e+02 ;    C15 - C14    - C13   
 14032  14031  14033      1    1.0835e+02    3.2995e+02 ;    H5R - C15    - H5S   
 14032  14031  14034      1    1.1005e+02    3.8802e+02 ;    H5R - C15    - C14   
 14033  14031  14034      1    1.1005e+02    3.8802e+02 ;    H5S - C15    - C14   
 14034  14037  14038      1    1.1005e+02    3.8802e+02 ;    C14 - C13    - H3R   
 14034  14037  14039      1    1.1005e+02    3.8802e+02 ;    C14 - C13    - H3S   
 14034  14037  14040      1    1.1205e+02    3.9497e+02 ;    C14 - C13    - C12   
 14035  14034  14036      1    1.0835e+02    3.2995e+02 ;    H4R - C14    - H4S   
 14035  14034  14037      1    1.1005e+02    3.8802e+02 ;    H4R - C14    - C13   
 14036  14034  14037      1    1.1005e+02    3.8802e+02 ;    H4S - C14    - C13   
 14037  14040  14041      1    1.1005e+02    3.8802e+02 ;    C13 - C12    - H2R   
 14037  14040  14042      1    1.1005e+02    3.8802e+02 ;    C13 - C12    - H2S   
 14038  14037  14039      1    1.0835e+02    3.2995e+02 ;    H3R - C13    - H3S   
 14038  14037  14040      1    1.1005e+02    3.8802e+02 ;    H3R - C13    - C12   
 14039  14037  14040      1    1.1005e+02    3.8802e+02 ;    H3S - C13    - C12   
 14041  14040  14042      1    1.0835e+02    3.2995e+02 ;    H2R - C12    - H2S   
 14043  14044  14045      1    1.0835e+02    3.2995e+02 ;   H14T - C114   - H14R  
 14043  14044  14046      1    1.0835e+02    3.2995e+02 ;   H14T - C114   - H14S  
 14043  14044  14047      1    1.1005e+02    3.8802e+02 ;   H14T - C114   - C113  
 14044  14047  14048      1    1.1005e+02    3.8802e+02 ;   C114 - C113   - H13R  
 14044  14047  14049      1    1.1005e+02    3.8802e+02 ;   C114 - C113   - H13S  
 14044  14047  14050      1    1.1205e+02    3.9497e+02 ;   C114 - C113   - C112  
 14045  14044  14046      1    1.0835e+02    3.2995e+02 ;   H14R - C114   - H14S  
 14045  14044  14047      1    1.1005e+02    3.8802e+02 ;   H14R - C114   - C113  
 14046  14044  14047      1    1.1005e+02    3.8802e+02 ;   H14S - C114   - C113  
 14047  14050  14051      1    1.1005e+02    3.8802e+02 ;   C113 - C112   - H12R  
 14047  14050  14052      1    1.1005e+02    3.8802e+02 ;   C113 - C112   - H12S  
 14047  14050  14053      1    1.1205e+02    3.9497e+02 ;   C113 - C112   - C111  
 14048  14047  14049      1    1.0835e+02    3.2995e+02 ;   H13R - C113   - H13S  
 14048  14047  14050      1    1.1005e+02    3.8802e+02 ;   H13R - C113   - C112  
 14049  14047  14050      1    1.1005e+02    3.8802e+02 ;   H13S - C113   - C112  
 14050  14053  14054      1    1.1005e+02    3.8802e+02 ;   C112 - C111   - H11R  
 14050  14053  14055      1    1.1005e+02    3.8802e+02 ;   C112 - C111   - H11S  
 14050  14053  14056      1    1.1205e+02    3.9497e+02 ;   C112 - C111   - C110  
 14051  14050  14052      1    1.0835e+02    3.2995e+02 ;   H12R - C112   - H12S  
 14051  14050  14053      1    1.1005e+02    3.8802e+02 ;   H12R - C112   - C111  
 14052  14050  14053      1    1.1005e+02    3.8802e+02 ;   H12S - C112   - C111  
 14053  14056  14057      1    1.1005e+02    3.8802e+02 ;   C111 - C110   - H10R  
 14053  14056  14058      1    1.1005e+02    3.8802e+02 ;   C111 - C110   - H10S  
 14053  14056  14059      1    1.1205e+02    3.9497e+02 ;   C111 - C110   - C19   
 14054  14053  14055      1    1.0835e+02    3.2995e+02 ;   H11R - C111   - H11S  
 14054  14053  14056      1    1.1005e+02    3.8802e+02 ;   H11R - C111   - C110  
 14055  14053  14056      1    1.1005e+02    3.8802e+02 ;   H11S - C111   - C110  
 14056  14059  14060      1    1.1005e+02    3.8802e+02 ;   C110 - C19    - H9R   
 14056  14059  14061      1    1.1005e+02    3.8802e+02 ;   C110 - C19    - H9S   
 14056  14059  14062      1    1.1205e+02    3.9497e+02 ;   C110 - C19    - C18   
 14057  14056  14058      1    1.0835e+02    3.2995e+02 ;   H10R - C110   - H10S  
 14057  14056  14059      1    1.1005e+02    3.8802e+02 ;   H10R - C110   - C19   
 14058  14056  14059      1    1.1005e+02    3.8802e+02 ;   H10S - C110   - C19   
 14059  14062  14063      1    1.1005e+02    3.8802e+02 ;    C19 - C18    - H8R   
 14059  14062  14064      1    1.1005e+02    3.8802e+02 ;    C19 - C18    - H8S   
 14059  14062  14065      1    1.1205e+02    3.9497e+02 ;    C19 - C18    - C17   
 14060  14059  14061      1    1.0835e+02    3.2995e+02 ;    H9R - C19    - H9S   
 14060  14059  14062      1    1.1005e+02    3.8802e+02 ;    H9R - C19    - C18   
 14061  14059  14062      1    1.1005e+02    3.8802e+02 ;    H9S - C19    - C18   
 14062  14065  14066      1    1.1005e+02    3.8802e+02 ;    C18 - C17    - H7R   
 14062  14065  14067      1    1.1005e+02    3.8802e+02 ;    C18 - C17    - H7S   
 14062  14065  14068      1    1.1205e+02    3.9497e+02 ;    C18 - C17    - C16   
 14063  14062  14064      1    1.0835e+02    3.2995e+02 ;    H8R - C18    - H8S   
 14063  14062  14065      1    1.1005e+02    3.8802e+02 ;    H8R - C18    - C17   
 14064  14062  14065      1    1.1005e+02    3.8802e+02 ;    H8S - C18    - C17   
 14065  14068  14069      1    1.1005e+02    3.8802e+02 ;    C17 - C16    - H6R   
 14065  14068  14070      1    1.1005e+02    3.8802e+02 ;    C17 - C16    - H6S   
 14065  14068  14071      1    1.1205e+02    3.9497e+02 ;    C17 - C16    - C15   
 14066  14065  14067      1    1.0835e+02    3.2995e+02 ;    H7R - C17    - H7S   
 14066  14065  14068      1    1.1005e+02    3.8802e+02 ;    H7R - C17    - C16   
 14067  14065  14068      1    1.1005e+02    3.8802e+02 ;    H7S - C17    - C16   
 14068  14071  14072      1    1.1005e+02    3.8802e+02 ;    C16 - C15    - H5R   
 14068  14071  14073      1    1.1005e+02    3.8802e+02 ;    C16 - C15    - H5S   
 14068  14071  14074      1    1.1205e+02    3.9497e+02 ;    C16 - C15    - C14   
 14069  14068  14070      1    1.0835e+02    3.2995e+02 ;    H6R - C16    - H6S   
 14069  14068  14071      1    1.1005e+02    3.8802e+02 ;    H6R - C16    - C15   
 14070  14068  14071      1    1.1005e+02    3.8802e+02 ;    H6S - C16    - C15   
 14071  14074  14075      1    1.1005e+02    3.8802e+02 ;    C15 - C14    - H4R   
 14071  14074  14076      1    1.1005e+02    3.8802e+02 ;    C15 - C14    - H4S   
 14071  14074  14077      1    1.1205e+02    3.9497e+02 ;    C15 - C14    - C13   
 14072  14071  14073      1    1.0835e+02    3.2995e+02 ;    H5R - C15    - H5S   
 14072  14071  14074      1    1.1005e+02    3.8802e+02 ;    H5R - C15    - C14   
 14073  14071  14074      1    1.1005e+02    3.8802e+02 ;    H5S - C15    - C14   
 14074  14077  14078      1    1.1005e+02    3.8802e+02 ;    C14 - C13    - H3R   
 14074  14077  14079      1    1.1005e+02    3.8802e+02 ;    C14 - C13    - H3S   
 14074  14077  14080      1    1.1205e+02    3.9497e+02 ;    C14 - C13    - C12   
 14075  14074  14076      1    1.0835e+02    3.2995e+02 ;    H4R - C14    - H4S   
 14075  14074  14077      1    1.1005e+02    3.8802e+02 ;    H4R - C14    - C13   
 14076  14074  14077      1    1.1005e+02    3.8802e+02 ;    H4S - C14    - C13   
 14077  14080  14081      1    1.1005e+02    3.8802e+02 ;    C13 - C12    - H2R   
 14077  14080  14082      1    1.1005e+02    3.8802e+02 ;    C13 - C12    - H2S   
 14077  14080  14083      1    1.1053e+02    5.3379e+02 ;    C13 - C12    - C11   
 14078  14077  14079      1    1.0835e+02    3.2995e+02 ;    H3R - C13    - H3S   
 14078  14077  14080      1    1.1005e+02    3.8802e+02 ;    H3R - C13    - C12   
 14079  14077  14080      1    1.1005e+02    3.8802e+02 ;    H3S - C13    - C12   
 14080  14083  14084      1    1.2311e+02    5.6928e+02 ;    C12 - C11    - O12   
 14080  14083  14085      1    1.1196e+02    5.7957e+02 ;    C12 - C11    - O11   
 14081  14080  14082      1    1.0835e+02    3.2995e+02 ;    H2R - C12    - H2S   
 14081  14080  14083      1    1.0968e+02    3.9497e+02 ;    H2R - C12    - C11   
 14082  14080  14083      1    1.0968e+02    3.9497e+02 ;    H2S - C12    - C11   
 14083  14085  14086      1    1.1514e+02    5.3246e+02 ;    C11 - O11    - C1    
 14084  14083  14085      1    1.2333e+02    6.3538e+02 ;    O12 - C11    - O11   
 14085  14086  14087      1    1.0882e+02    4.2543e+02 ;    O11 - C1     - HR    
 14085  14086  14088      1    1.0882e+02    4.2543e+02 ;    O11 - C1     - HS    
 14085  14086  14089      1    1.0842e+02    5.6718e+02 ;    O11 - C1     - C2    
 14086  14089  14090      1    1.1007e+02    3.8794e+02 ;     C1 - C2     - HX    
 14086  14089  14091      1    1.1063e+02    5.2894e+02 ;     C1 - C2     - C3    
 14086  14089  14118      1    1.0842e+02    5.6718e+02 ;     C1 - C2     - O21   
 14087  14086  14088      1    1.0955e+02    3.2786e+02 ;     HR - C1     - HS    
 14087  14086  14089      1    1.1007e+02    3.8794e+02 ;     HR - C1     - C2    
 14088  14086  14089      1    1.1007e+02    3.8794e+02 ;     HS - C1     - C2    
 14089  14091  14092      1    1.1007e+02    3.8794e+02 ;     C2 - C3     - HA    
 14089  14091  14093      1    1.1007e+02    3.8794e+02 ;     C2 - C3     - HB    
 14089  14091  14094      1    1.0842e+02    5.6718e+02 ;     C2 - C3     - O31   
 14089  14118  14119      1    1.1514e+02    5.3246e+02 ;     C2 - O21    - C21   
 14090  14089  14091      1    1.1007e+02    3.8794e+02 ;     HX - C2     - C3    
 14090  14089  14118      1    1.0882e+02    4.2543e+02 ;     HX - C2     - O21   
 14091  14089  14118      1    1.0842e+02    5.6718e+02 ;     C3 - C2     - O21   
 14091  14094  14095      1    1.2050e+02    8.3680e+02 ;     C3 - O31    - P31   
 14092  14091  14093      1    1.0955e+02    3.2786e+02 ;     HA - C3     - HB    
 14092  14091  14094      1    1.0882e+02    4.2543e+02 ;     HA - C3     - O31   
 14093  14091  14094      1    1.0882e+02    4.2543e+02 ;     HB - C3     - O31   
 14094  14095  14096      1    1.0260e+02    7.5312e+02 ;    O31 - P31    - O32   
 14094  14095  14116      1    1.0823e+02    8.3680e+02 ;    O31 - P31    - O33   
 14094  14095  14117      1    1.0823e+02    8.3680e+02 ;    O31 - P31    - O34   
 14095  14096  14097      1    1.2050e+02    8.3680e+02 ;    P31 - O32    - C31   
 14096  14095  14116      1    1.0823e+02    8.3680e+02 ;    O32 - P31    - O33   
 14096  14095  14117      1    1.0823e+02    8.3680e+02 ;    O32 - P31    - O34   
 14096  14097  14098      1    1.0882e+02    4.2543e+02 ;    O32 - C31    - H1A   
 14096  14097  14099      1    1.0882e+02    4.2543e+02 ;    O32 - C31    - H1B   
 14096  14097  14100      1    1.0842e+02    5.6718e+02 ;    O32 - C31    - C32   
 14097  14100  14101      1    1.1174e+02    3.8510e+02 ;    C31 - C32    - H2A   
 14097  14100  14102      1    1.1174e+02    3.8510e+02 ;    C31 - C32    - H2B   
 14097  14100  14103      1    1.1432e+02    5.3932e+02 ;    C31 - C32    - N31   
 14098  14097  14099      1    1.0955e+02    3.2786e+02 ;    H1A - C31    - H1B   
 14098  14097  14100      1    1.1007e+02    3.8794e+02 ;    H1A - C31    - C32   
 14099  14097  14100      1    1.1007e+02    3.8794e+02 ;    H1B - C31    - C32   
 14100  14103  14104      1    1.1064e+02    5.2585e+02 ;    C32 - N31    - C33   
 14100  14103  14108      1    1.1064e+02    5.2585e+02 ;    C32 - N31    - C34   
 14100  14103  14112      1    1.1064e+02    5.2585e+02 ;    C32 - N31    - C35   
 14101  14100  14102      1    1.1074e+02    3.2669e+02 ;    H2A - C32    - H2B   
 14101  14100  14103      1    1.0791e+02    4.1020e+02 ;    H2A - C32    - N31   
 14102  14100  14103      1    1.0791e+02    4.1020e+02 ;    H2B - C32    - N31   
 14103  14104  14105      1    1.0791e+02    4.1020e+02 ;    N31 - C33    - H3A   
 14103  14104  14106      1    1.0791e+02    4.1020e+02 ;    N31 - C33    - H3B   
 14103  14104  14107      1    1.0791e+02    4.1020e+02 ;    N31 - C33    - H3C   
 14103  14108  14109      1    1.0791e+02    4.1020e+02 ;    N31 - C34    - H4A   
 14103  14108  14110      1    1.0791e+02    4.1020e+02 ;    N31 - C34    - H4B   
 14103  14108  14111      1    1.0791e+02    4.1020e+02 ;    N31 - C34    - H4C   
 14103  14112  14113      1    1.0791e+02    4.1020e+02 ;    N31 - C35    - H5A   
 14103  14112  14114      1    1.0791e+02    4.1020e+02 ;    N31 - C35    - H5B   
 14103  14112  14115      1    1.0791e+02    4.1020e+02 ;    N31 - C35    - H5C   
 14104  14103  14108      1    1.1064e+02    5.2585e+02 ;    C33 - N31    - C34   
 14104  14103  14112      1    1.1064e+02    5.2585e+02 ;    C33 - N31    - C35   
 14105  14104  14106      1    1.1074e+02    3.2669e+02 ;    H3A - C33    - H3B   
 14105  14104  14107      1    1.1074e+02    3.2669e+02 ;    H3A - C33    - H3C   
 14106  14104  14107      1    1.1074e+02    3.2669e+02 ;    H3B - C33    - H3C   
 14108  14103  14112      1    1.1064e+02    5.2585e+02 ;    C34 - N31    - C35   
 14109  14108  14110      1    1.1074e+02    3.2669e+02 ;    H4A - C34    - H4B   
 14109  14108  14111      1    1.1074e+02    3.2669e+02 ;    H4A - C34    - H4C   
 14110  14108  14111      1    1.1074e+02    3.2669e+02 ;    H4B - C34    - H4C   
 14113  14112  14114      1    1.1074e+02    3.2669e+02 ;    H5A - C35    - H5B   
 14113  14112  14115      1    1.1074e+02    3.2669e+02 ;    H5A - C35    - H5C   
 14114  14112  14115      1    1.1074e+02    3.2669e+02 ;    H5B - C35    - H5C   
 14116  14095  14117      1    1.1990e+02    1.1715e+03 ;    O33 - P31    - O34   
 14118  14119  14120      1    1.2333e+02    6.3538e+02 ;    O21 - C21    - O22   
 14118  14119  14158      1    1.1196e+02    5.7957e+02 ;    O21 - C21    - C12   
 14119  14158  14155      1    1.1053e+02    5.3379e+02 ;    C21 - C12    - C13   
 14119  14158  14159      1    1.0968e+02    3.9497e+02 ;    C21 - C12    - H2R   
 14119  14158  14160      1    1.0968e+02    3.9497e+02 ;    C21 - C12    - H2S   
 14120  14119  14158      1    1.2311e+02    5.6928e+02 ;    O22 - C21    - C12   
 14121  14122  14123      1    1.0835e+02    3.2995e+02 ;   H14T - C114   - H14R  
 14121  14122  14124      1    1.0835e+02    3.2995e+02 ;   H14T - C114   - H14S  
 14121  14122  14125      1    1.1005e+02    3.8802e+02 ;   H14T - C114   - C113  
 14122  14125  14126      1    1.1005e+02    3.8802e+02 ;   C114 - C113   - H13R  
 14122  14125  14127      1    1.1005e+02    3.8802e+02 ;   C114 - C113   - H13S  
 14122  14125  14128      1    1.1205e+02    3.9497e+02 ;   C114 - C113   - C112  
 14123  14122  14124      1    1.0835e+02    3.2995e+02 ;   H14R - C114   - H14S  
 14123  14122  14125      1    1.1005e+02    3.8802e+02 ;   H14R - C114   - C113  
 14124  14122  14125      1    1.1005e+02    3.8802e+02 ;   H14S - C114   - C113  
 14125  14128  14129      1    1.1005e+02    3.8802e+02 ;   C113 - C112   - H12R  
 14125  14128  14130      1    1.1005e+02    3.8802e+02 ;   C113 - C112   - H12S  
 14125  14128  14131      1    1.1205e+02    3.9497e+02 ;   C113 - C112   - C111  
 14126  14125  14127      1    1.0835e+02    3.2995e+02 ;   H13R - C113   - H13S  
 14126  14125  14128      1    1.1005e+02    3.8802e+02 ;   H13R - C113   - C112  
 14127  14125  14128      1    1.1005e+02    3.8802e+02 ;   H13S - C113   - C112  
 14128  14131  14132      1    1.1005e+02    3.8802e+02 ;   C112 - C111   - H11R  
 14128  14131  14133      1    1.1005e+02    3.8802e+02 ;   C112 - C111   - H11S  
 14128  14131  14134      1    1.1205e+02    3.9497e+02 ;   C112 - C111   - C110  
 14129  14128  14130      1    1.0835e+02    3.2995e+02 ;   H12R - C112   - H12S  
 14129  14128  14131      1    1.1005e+02    3.8802e+02 ;   H12R - C112   - C111  
 14130  14128  14131      1    1.1005e+02    3.8802e+02 ;   H12S - C112   - C111  
 14131  14134  14135      1    1.1005e+02    3.8802e+02 ;   C111 - C110   - H10R  
 14131  14134  14136      1    1.1005e+02    3.8802e+02 ;   C111 - C110   - H10S  
 14131  14134  14137      1    1.1205e+02    3.9497e+02 ;   C111 - C110   - C19   
 14132  14131  14133      1    1.0835e+02    3.2995e+02 ;   H11R - C111   - H11S  
 14132  14131  14134      1    1.1005e+02    3.8802e+02 ;   H11R - C111   - C110  
 14133  14131  14134      1    1.1005e+02    3.8802e+02 ;   H11S - C111   - C110  
 14134  14137  14138      1    1.1005e+02    3.8802e+02 ;   C110 - C19    - H9R   
 14134  14137  14139      1    1.1005e+02    3.8802e+02 ;   C110 - C19    - H9S   
 14134  14137  14140      1    1.1205e+02    3.9497e+02 ;   C110 - C19    - C18   
 14135  14134  14136      1    1.0835e+02    3.2995e+02 ;   H10R - C110   - H10S  
 14135  14134  14137      1    1.1005e+02    3.8802e+02 ;   H10R - C110   - C19   
 14136  14134  14137      1    1.1005e+02    3.8802e+02 ;   H10S - C110   - C19   
 14137  14140  14141      1    1.1005e+02    3.8802e+02 ;    C19 - C18    - H8R   
 14137  14140  14142      1    1.1005e+02    3.8802e+02 ;    C19 - C18    - H8S   
 14137  14140  14143      1    1.1205e+02    3.9497e+02 ;    C19 - C18    - C17   
 14138  14137  14139      1    1.0835e+02    3.2995e+02 ;    H9R - C19    - H9S   
 14138  14137  14140      1    1.1005e+02    3.8802e+02 ;    H9R - C19    - C18   
 14139  14137  14140      1    1.1005e+02    3.8802e+02 ;    H9S - C19    - C18   
 14140  14143  14144      1    1.1005e+02    3.8802e+02 ;    C18 - C17    - H7R   
 14140  14143  14145      1    1.1005e+02    3.8802e+02 ;    C18 - C17    - H7S   
 14140  14143  14146      1    1.1205e+02    3.9497e+02 ;    C18 - C17    - C16   
 14141  14140  14142      1    1.0835e+02    3.2995e+02 ;    H8R - C18    - H8S   
 14141  14140  14143      1    1.1005e+02    3.8802e+02 ;    H8R - C18    - C17   
 14142  14140  14143      1    1.1005e+02    3.8802e+02 ;    H8S - C18    - C17   
 14143  14146  14147      1    1.1005e+02    3.8802e+02 ;    C17 - C16    - H6R   
 14143  14146  14148      1    1.1005e+02    3.8802e+02 ;    C17 - C16    - H6S   
 14143  14146  14149      1    1.1205e+02    3.9497e+02 ;    C17 - C16    - C15   
 14144  14143  14145      1    1.0835e+02    3.2995e+02 ;    H7R - C17    - H7S   
 14144  14143  14146      1    1.1005e+02    3.8802e+02 ;    H7R - C17    - C16   
 14145  14143  14146      1    1.1005e+02    3.8802e+02 ;    H7S - C17    - C16   
 14146  14149  14150      1    1.1005e+02    3.8802e+02 ;    C16 - C15    - H5R   
 14146  14149  14151      1    1.1005e+02    3.8802e+02 ;    C16 - C15    - H5S   
 14146  14149  14152      1    1.1205e+02    3.9497e+02 ;    C16 - C15    - C14   
 14147  14146  14148      1    1.0835e+02    3.2995e+02 ;    H6R - C16    - H6S   
 14147  14146  14149      1    1.1005e+02    3.8802e+02 ;    H6R - C16    - C15   
 14148  14146  14149      1    1.1005e+02    3.8802e+02 ;    H6S - C16    - C15   
 14149  14152  14153      1    1.1005e+02    3.8802e+02 ;    C15 - C14    - H4R   
 14149  14152  14154      1    1.1005e+02    3.8802e+02 ;    C15 - C14    - H4S   
 14149  14152  14155      1    1.1205e+02    3.9497e+02 ;    C15 - C14    - C13   
 14150  14149  14151      1    1.0835e+02    3.2995e+02 ;    H5R - C15    - H5S   
 14150  14149  14152      1    1.1005e+02    3.8802e+02 ;    H5R - C15    - C14   
 14151  14149  14152      1    1.1005e+02    3.8802e+02 ;    H5S - C15    - C14   
 14152  14155  14156      1    1.1005e+02    3.8802e+02 ;    C14 - C13    - H3R   
 14152  14155  14157      1    1.1005e+02    3.8802e+02 ;    C14 - C13    - H3S   
 14152  14155  14158      1    1.1205e+02    3.9497e+02 ;    C14 - C13    - C12   
 14153  14152  14154      1    1.0835e+02    3.2995e+02 ;    H4R - C14    - H4S   
 14153  14152  14155      1    1.1005e+02    3.8802e+02 ;    H4R - C14    - C13   
 14154  14152  14155      1    1.1005e+02    3.8802e+02 ;    H4S - C14    - C13   
 14155  14158  14159      1    1.1005e+02    3.8802e+02 ;    C13 - C12    - H2R   
 14155  14158  14160      1    1.1005e+02    3.8802e+02 ;    C13 - C12    - H2S   
 14156  14155  14157      1    1.0835e+02    3.2995e+02 ;    H3R - C13    - H3S   
 14156  14155  14158      1    1.1005e+02    3.8802e+02 ;    H3R - C13    - C12   
 14157  14155  14158      1    1.1005e+02    3.8802e+02 ;    H3S - C13    - C12   
 14159  14158  14160      1    1.0835e+02    3.2995e+02 ;    H2R - C12    - H2S   
 14161  14162  14163      1    1.0835e+02    3.2995e+02 ;   H14T - C114   - H14R  
 14161  14162  14164      1    1.0835e+02    3.2995e+02 ;   H14T - C114   - H14S  
 14161  14162  14165      1    1.1005e+02    3.8802e+02 ;   H14T - C114   - C113  
 14162  14165  14166      1    1.1005e+02    3.8802e+02 ;   C114 - C113   - H13R  
 14162  14165  14167      1    1.1005e+02    3.8802e+02 ;   C114 - C113   - H13S  
 14162  14165  14168      1    1.1205e+02    3.9497e+02 ;   C114 - C113   - C112  
 14163  14162  14164      1    1.0835e+02    3.2995e+02 ;   H14R - C114   - H14S  
 14163  14162  14165      1    1.1005e+02    3.8802e+02 ;   H14R - C114   - C113  
 14164  14162  14165      1    1.1005e+02    3.8802e+02 ;   H14S - C114   - C113  
 14165  14168  14169      1    1.1005e+02    3.8802e+02 ;   C113 - C112   - H12R  
 14165  14168  14170      1    1.1005e+02    3.8802e+02 ;   C113 - C112   - H12S  
 14165  14168  14171      1    1.1205e+02    3.9497e+02 ;   C113 - C112   - C111  
 14166  14165  14167      1    1.0835e+02    3.2995e+02 ;   H13R - C113   - H13S  
 14166  14165  14168      1    1.1005e+02    3.8802e+02 ;   H13R - C113   - C112  
 14167  14165  14168      1    1.1005e+02    3.8802e+02 ;   H13S - C113   - C112  
 14168  14171  14172      1    1.1005e+02    3.8802e+02 ;   C112 - C111   - H11R  
 14168  14171  14173      1    1.1005e+02    3.8802e+02 ;   C112 - C111   - H11S  
 14168  14171  14174      1    1.1205e+02    3.9497e+02 ;   C112 - C111   - C110  
 14169  14168  14170      1    1.0835e+02    3.2995e+02 ;   H12R - C112   - H12S  
 14169  14168  14171      1    1.1005e+02    3.8802e+02 ;   H12R - C112   - C111  
 14170  14168  14171      1    1.1005e+02    3.8802e+02 ;   H12S - C112   - C111  
 14171  14174  14175      1    1.1005e+02    3.8802e+02 ;   C111 - C110   - H10R  
 14171  14174  14176      1    1.1005e+02    3.8802e+02 ;   C111 - C110   - H10S  
 14171  14174  14177      1    1.1205e+02    3.9497e+02 ;   C111 - C110   - C19   
 14172  14171  14173      1    1.0835e+02    3.2995e+02 ;   H11R - C111   - H11S  
 14172  14171  14174      1    1.1005e+02    3.8802e+02 ;   H11R - C111   - C110  
 14173  14171  14174      1    1.1005e+02    3.8802e+02 ;   H11S - C111   - C110  
 14174  14177  14178      1    1.1005e+02    3.8802e+02 ;   C110 - C19    - H9R   
 14174  14177  14179      1    1.1005e+02    3.8802e+02 ;   C110 - C19    - H9S   
 14174  14177  14180      1    1.1205e+02    3.9497e+02 ;   C110 - C19    - C18   
 14175  14174  14176      1    1.0835e+02    3.2995e+02 ;   H10R - C110   - H10S  
 14175  14174  14177      1    1.1005e+02    3.8802e+02 ;   H10R - C110   - C19   
 14176  14174  14177      1    1.1005e+02    3.8802e+02 ;   H10S - C110   - C19   
 14177  14180  14181      1    1.1005e+02    3.8802e+02 ;    C19 - C18    - H8R   
 14177  14180  14182      1    1.1005e+02    3.8802e+02 ;    C19 - C18    - H8S   
 14177  14180  14183      1    1.1205e+02    3.9497e+02 ;    C19 - C18    - C17   
 14178  14177  14179      1    1.0835e+02    3.2995e+02 ;    H9R - C19    - H9S   
 14178  14177  14180      1    1.1005e+02    3.8802e+02 ;    H9R - C19    - C18   
 14179  14177  14180      1    1.1005e+02    3.8802e+02 ;    H9S - C19    - C18   
 14180  14183  14184      1    1.1005e+02    3.8802e+02 ;    C18 - C17    - H7R   
 14180  14183  14185      1    1.1005e+02    3.8802e+02 ;    C18 - C17    - H7S   
 14180  14183  14186      1    1.1205e+02    3.9497e+02 ;    C18 - C17    - C16   
 14181  14180  14182      1    1.0835e+02    3.2995e+02 ;    H8R - C18    - H8S   
 14181  14180  14183      1    1.1005e+02    3.8802e+02 ;    H8R - C18    - C17   
 14182  14180  14183      1    1.1005e+02    3.8802e+02 ;    H8S - C18    - C17   
 14183  14186  14187      1    1.1005e+02    3.8802e+02 ;    C17 - C16    - H6R   
 14183  14186  14188      1    1.1005e+02    3.8802e+02 ;    C17 - C16    - H6S   
 14183  14186  14189      1    1.1205e+02    3.9497e+02 ;    C17 - C16    - C15   
 14184  14183  14185      1    1.0835e+02    3.2995e+02 ;    H7R - C17    - H7S   
 14184  14183  14186      1    1.1005e+02    3.8802e+02 ;    H7R - C17    - C16   
 14185  14183  14186      1    1.1005e+02    3.8802e+02 ;    H7S - C17    - C16   
 14186  14189  14190      1    1.1005e+02    3.8802e+02 ;    C16 - C15    - H5R   
 14186  14189  14191      1    1.1005e+02    3.8802e+02 ;    C16 - C15    - H5S   
 14186  14189  14192      1    1.1205e+02    3.9497e+02 ;    C16 - C15    - C14   
 14187  14186  14188      1    1.0835e+02    3.2995e+02 ;    H6R - C16    - H6S   
 14187  14186  14189      1    1.1005e+02    3.8802e+02 ;    H6R - C16    - C15   
 14188  14186  14189      1    1.1005e+02    3.8802e+02 ;    H6S - C16    - C15   
 14189  14192  14193      1    1.1005e+02    3.8802e+02 ;    C15 - C14    - H4R   
 14189  14192  14194      1    1.1005e+02    3.8802e+02 ;    C15 - C14    - H4S   
 14189  14192  14195      1    1.1205e+02    3.9497e+02 ;    C15 - C14    - C13   
 14190  14189  14191      1    1.0835e+02    3.2995e+02 ;    H5R - C15    - H5S   
 14190  14189  14192      1    1.1005e+02    3.8802e+02 ;    H5R - C15    - C14   
 14191  14189  14192      1    1.1005e+02    3.8802e+02 ;    H5S - C15    - C14   
 14192  14195  14196      1    1.1005e+02    3.8802e+02 ;    C14 - C13    - H3R   
 14192  14195  14197      1    1.1005e+02    3.8802e+02 ;    C14 - C13    - H3S   
 14192  14195  14198      1    1.1205e+02    3.9497e+02 ;    C14 - C13    - C12   
 14193  14192  14194      1    1.0835e+02    3.2995e+02 ;    H4R - C14    - H4S   
 14193  14192  14195      1    1.1005e+02    3.8802e+02 ;    H4R - C14    - C13   
 14194  14192  14195      1    1.1005e+02    3.8802e+02 ;    H4S - C14    - C13   
 14195  14198  14199      1    1.1005e+02    3.8802e+02 ;    C13 - C12    - H2R   
 14195  14198  14200      1    1.1005e+02    3.8802e+02 ;    C13 - C12    - H2S   
 14195  14198  14201      1    1.1053e+02    5.3379e+02 ;    C13 - C12    - C11   
 14196  14195  14197      1    1.0835e+02    3.2995e+02 ;    H3R - C13    - H3S   
 14196  14195  14198      1    1.1005e+02    3.8802e+02 ;    H3R - C13    - C12   
 14197  14195  14198      1    1.1005e+02    3.8802e+02 ;    H3S - C13    - C12   
 14198  14201  14202      1    1.2311e+02    5.6928e+02 ;    C12 - C11    - O12   
 14198  14201  14203      1    1.1196e+02    5.7957e+02 ;    C12 - C11    - O11   
 14199  14198  14200      1    1.0835e+02    3.2995e+02 ;    H2R - C12    - H2S   
 14199  14198  14201      1    1.0968e+02    3.9497e+02 ;    H2R - C12    - C11   
 14200  14198  14201      1    1.0968e+02    3.9497e+02 ;    H2S - C12    - C11   
 14201  14203  14204      1    1.1514e+02    5.3246e+02 ;    C11 - O11    - C1    
 14202  14201  14203      1    1.2333e+02    6.3538e+02 ;    O12 - C11    - O11   
 14203  14204  14205      1    1.0882e+02    4.2543e+02 ;    O11 - C1     - HR    
 14203  14204  14206      1    1.0882e+02    4.2543e+02 ;    O11 - C1     - HS    
 14203  14204  14207      1    1.0842e+02    5.6718e+02 ;    O11 - C1     - C2    
 14204  14207  14208      1    1.1007e+02    3.8794e+02 ;     C1 - C2     - HX    
 14204  14207  14209      1    1.1063e+02    5.2894e+02 ;     C1 - C2     - C3    
 14204  14207  14236      1    1.0842e+02    5.6718e+02 ;     C1 - C2     - O21   
 14205  14204  14206      1    1.0955e+02    3.2786e+02 ;     HR - C1     - HS    
 14205  14204  14207      1    1.1007e+02    3.8794e+02 ;     HR - C1     - C2    
 14206  14204  14207      1    1.1007e+02    3.8794e+02 ;     HS - C1     - C2    
 14207  14209  14210      1    1.1007e+02    3.8794e+02 ;     C2 - C3     - HA    
 14207  14209  14211      1    1.1007e+02    3.8794e+02 ;     C2 - C3     - HB    
 14207  14209  14212      1    1.0842e+02    5.6718e+02 ;     C2 - C3     - O31   
 14207  14236  14237      1    1.1514e+02    5.3246e+02 ;     C2 - O21    - C21   
 14208  14207  14209      1    1.1007e+02    3.8794e+02 ;     HX - C2     - C3    
 14208  14207  14236      1    1.0882e+02    4.2543e+02 ;     HX - C2     - O21   
 14209  14207  14236      1    1.0842e+02    5.6718e+02 ;     C3 - C2     - O21   
 14209  14212  14213      1    1.2050e+02    8.3680e+02 ;     C3 - O31    - P31   
 14210  14209  14211      1    1.0955e+02    3.2786e+02 ;     HA - C3     - HB    
 14210  14209  14212      1    1.0882e+02    4.2543e+02 ;     HA - C3     - O31   
 14211  14209  14212      1    1.0882e+02    4.2543e+02 ;     HB - C3     - O31   
 14212  14213  14214      1    1.0260e+02    7.5312e+02 ;    O31 - P31    - O32   
 14212  14213  14234      1    1.0823e+02    8.3680e+02 ;    O31 - P31    - O33   
 14212  14213  14235      1    1.0823e+02    8.3680e+02 ;    O31 - P31    - O34   
 14213  14214  14215      1    1.2050e+02    8.3680e+02 ;    P31 - O32    - C31   
 14214  14213  14234      1    1.0823e+02    8.3680e+02 ;    O32 - P31    - O33   
 14214  14213  14235      1    1.0823e+02    8.3680e+02 ;    O32 - P31    - O34   
 14214  14215  14216      1    1.0882e+02    4.2543e+02 ;    O32 - C31    - H1A   
 14214  14215  14217      1    1.0882e+02    4.2543e+02 ;    O32 - C31    - H1B   
 14214  14215  14218      1    1.0842e+02    5.6718e+02 ;    O32 - C31    - C32   
 14215  14218  14219      1    1.1174e+02    3.8510e+02 ;    C31 - C32    - H2A   
 14215  14218  14220      1    1.1174e+02    3.8510e+02 ;    C31 - C32    - H2B   
 14215  14218  14221      1    1.1432e+02    5.3932e+02 ;    C31 - C32    - N31   
 14216  14215  14217      1    1.0955e+02    3.2786e+02 ;    H1A - C31    - H1B   
 14216  14215  14218      1    1.1007e+02    3.8794e+02 ;    H1A - C31    - C32   
 14217  14215  14218      1    1.1007e+02    3.8794e+02 ;    H1B - C31    - C32   
 14218  14221  14222      1    1.1064e+02    5.2585e+02 ;    C32 - N31    - C33   
 14218  14221  14226      1    1.1064e+02    5.2585e+02 ;    C32 - N31    - C34   
 14218  14221  14230      1    1.1064e+02    5.2585e+02 ;    C32 - N31    - C35   
 14219  14218  14220      1    1.1074e+02    3.2669e+02 ;    H2A - C32    - H2B   
 14219  14218  14221      1    1.0791e+02    4.1020e+02 ;    H2A - C32    - N31   
 14220  14218  14221      1    1.0791e+02    4.1020e+02 ;    H2B - C32    - N31   
 14221  14222  14223      1    1.0791e+02    4.1020e+02 ;    N31 - C33    - H3A   
 14221  14222  14224      1    1.0791e+02    4.1020e+02 ;    N31 - C33    - H3B   
 14221  14222  14225      1    1.0791e+02    4.1020e+02 ;    N31 - C33    - H3C   
 14221  14226  14227      1    1.0791e+02    4.1020e+02 ;    N31 - C34    - H4A   
 14221  14226  14228      1    1.0791e+02    4.1020e+02 ;    N31 - C34    - H4B   
 14221  14226  14229      1    1.0791e+02    4.1020e+02 ;    N31 - C34    - H4C   
 14221  14230  14231      1    1.0791e+02    4.1020e+02 ;    N31 - C35    - H5A   
 14221  14230  14232      1    1.0791e+02    4.1020e+02 ;    N31 - C35    - H5B   
 14221  14230  14233      1    1.0791e+02    4.1020e+02 ;    N31 - C35    - H5C   
 14222  14221  14226      1    1.1064e+02    5.2585e+02 ;    C33 - N31    - C34   
 14222  14221  14230      1    1.1064e+02    5.2585e+02 ;    C33 - N31    - C35   
 14223  14222  14224      1    1.1074e+02    3.2669e+02 ;    H3A - C33    - H3B   
 14223  14222  14225      1    1.1074e+02    3.2669e+02 ;    H3A - C33    - H3C   
 14224  14222  14225      1    1.1074e+02    3.2669e+02 ;    H3B - C33    - H3C   
 14226  14221  14230      1    1.1064e+02    5.2585e+02 ;    C34 - N31    - C35   
 14227  14226  14228      1    1.1074e+02    3.2669e+02 ;    H4A - C34    - H4B   
 14227  14226  14229      1    1.1074e+02    3.2669e+02 ;    H4A - C34    - H4C   
 14228  14226  14229      1    1.1074e+02    3.2669e+02 ;    H4B - C34    - H4C   
 14231  14230  14232      1    1.1074e+02    3.2669e+02 ;    H5A - C35    - H5B   
 14231  14230  14233      1    1.1074e+02    3.2669e+02 ;    H5A - C35    - H5C   
 14232  14230  14233      1    1.1074e+02    3.2669e+02 ;    H5B - C35    - H5C   
 14234  14213  14235      1    1.1990e+02    1.1715e+03 ;    O33 - P31    - O34   
 14236  14237  14238      1    1.2333e+02    6.3538e+02 ;    O21 - C21    - O22   
 14236  14237  14276      1    1.1196e+02    5.7957e+02 ;    O21 - C21    - C12   
 14237  14276  14273      1    1.1053e+02    5.3379e+02 ;    C21 - C12    - C13   
 14237  14276  14277      1    1.0968e+02    3.9497e+02 ;    C21 - C12    - H2R   
 14237  14276  14278      1    1.0968e+02    3.9497e+02 ;    C21 - C12    - H2S   
 14238  14237  14276      1    1.2311e+02    5.6928e+02 ;    O22 - C21    - C12   
 14239  14240  14241      1    1.0835e+02    3.2995e+02 ;   H14T - C114   - H14R  
 14239  14240  14242      1    1.0835e+02    3.2995e+02 ;   H14T - C114   - H14S  
 14239  14240  14243      1    1.1005e+02    3.8802e+02 ;   H14T - C114   - C113  
 14240  14243  14244      1    1.1005e+02    3.8802e+02 ;   C114 - C113   - H13R  
 14240  14243  14245      1    1.1005e+02    3.8802e+02 ;   C114 - C113   - H13S  
 14240  14243  14246      1    1.1205e+02    3.9497e+02 ;   C114 - C113   - C112  
 14241  14240  14242      1    1.0835e+02    3.2995e+02 ;   H14R - C114   - H14S  
 14241  14240  14243      1    1.1005e+02    3.8802e+02 ;   H14R - C114   - C113  
 14242  14240  14243      1    1.1005e+02    3.8802e+02 ;   H14S - C114   - C113  
 14243  14246  14247      1    1.1005e+02    3.8802e+02 ;   C113 - C112   - H12R  
 14243  14246  14248      1    1.1005e+02    3.8802e+02 ;   C113 - C112   - H12S  
 14243  14246  14249      1    1.1205e+02    3.9497e+02 ;   C113 - C112   - C111  
 14244  14243  14245      1    1.0835e+02    3.2995e+02 ;   H13R - C113   - H13S  
 14244  14243  14246      1    1.1005e+02    3.8802e+02 ;   H13R - C113   - C112  
 14245  14243  14246      1    1.1005e+02    3.8802e+02 ;   H13S - C113   - C112  
 14246  14249  14250      1    1.1005e+02    3.8802e+02 ;   C112 - C111   - H11R  
 14246  14249  14251      1    1.1005e+02    3.8802e+02 ;   C112 - C111   - H11S  
 14246  14249  14252      1    1.1205e+02    3.9497e+02 ;   C112 - C111   - C110  
 14247  14246  14248      1    1.0835e+02    3.2995e+02 ;   H12R - C112   - H12S  
 14247  14246  14249      1    1.1005e+02    3.8802e+02 ;   H12R - C112   - C111  
 14248  14246  14249      1    1.1005e+02    3.8802e+02 ;   H12S - C112   - C111  
 14249  14252  14253      1    1.1005e+02    3.8802e+02 ;   C111 - C110   - H10R  
 14249  14252  14254      1    1.1005e+02    3.8802e+02 ;   C111 - C110   - H10S  
 14249  14252  14255      1    1.1205e+02    3.9497e+02 ;   C111 - C110   - C19   
 14250  14249  14251      1    1.0835e+02    3.2995e+02 ;   H11R - C111   - H11S  
 14250  14249  14252      1    1.1005e+02    3.8802e+02 ;   H11R - C111   - C110  
 14251  14249  14252      1    1.1005e+02    3.8802e+02 ;   H11S - C111   - C110  
 14252  14255  14256      1    1.1005e+02    3.8802e+02 ;   C110 - C19    - H9R   
 14252  14255  14257      1    1.1005e+02    3.8802e+02 ;   C110 - C19    - H9S   
 14252  14255  14258      1    1.1205e+02    3.9497e+02 ;   C110 - C19    - C18   
 14253  14252  14254      1    1.0835e+02    3.2995e+02 ;   H10R - C110   - H10S  
 14253  14252  14255      1    1.1005e+02    3.8802e+02 ;   H10R - C110   - C19   
 14254  14252  14255      1    1.1005e+02    3.8802e+02 ;   H10S - C110   - C19   
 14255  14258  14259      1    1.1005e+02    3.8802e+02 ;    C19 - C18    - H8R   
 14255  14258  14260      1    1.1005e+02    3.8802e+02 ;    C19 - C18    - H8S   
 14255  14258  14261      1    1.1205e+02    3.9497e+02 ;    C19 - C18    - C17   
 14256  14255  14257      1    1.0835e+02    3.2995e+02 ;    H9R - C19    - H9S   
 14256  14255  14258      1    1.1005e+02    3.8802e+02 ;    H9R - C19    - C18   
 14257  14255  14258      1    1.1005e+02    3.8802e+02 ;    H9S - C19    - C18   
 14258  14261  14262      1    1.1005e+02    3.8802e+02 ;    C18 - C17    - H7R   
 14258  14261  14263      1    1.1005e+02    3.8802e+02 ;    C18 - C17    - H7S   
 14258  14261  14264      1    1.1205e+02    3.9497e+02 ;    C18 - C17    - C16   
 14259  14258  14260      1    1.0835e+02    3.2995e+02 ;    H8R - C18    - H8S   
 14259  14258  14261      1    1.1005e+02    3.8802e+02 ;    H8R - C18    - C17   
 14260  14258  14261      1    1.1005e+02    3.8802e+02 ;    H8S - C18    - C17   
 14261  14264  14265      1    1.1005e+02    3.8802e+02 ;    C17 - C16    - H6R   
 14261  14264  14266      1    1.1005e+02    3.8802e+02 ;    C17 - C16    - H6S   
 14261  14264  14267      1    1.1205e+02    3.9497e+02 ;    C17 - C16    - C15   
 14262  14261  14263      1    1.0835e+02    3.2995e+02 ;    H7R - C17    - H7S   
 14262  14261  14264      1    1.1005e+02    3.8802e+02 ;    H7R - C17    - C16   
 14263  14261  14264      1    1.1005e+02    3.8802e+02 ;    H7S - C17    - C16   
 14264  14267  14268      1    1.1005e+02    3.8802e+02 ;    C16 - C15    - H5R   
 14264  14267  14269      1    1.1005e+02    3.8802e+02 ;    C16 - C15    - H5S   
 14264  14267  14270      1    1.1205e+02    3.9497e+02 ;    C16 - C15    - C14   
 14265  14264  14266      1    1.0835e+02    3.2995e+02 ;    H6R - C16    - H6S   
 14265  14264  14267      1    1.1005e+02    3.8802e+02 ;    H6R - C16    - C15   
 14266  14264  14267      1    1.1005e+02    3.8802e+02 ;    H6S - C16    - C15   
 14267  14270  14271      1    1.1005e+02    3.8802e+02 ;    C15 - C14    - H4R   
 14267  14270  14272      1    1.1005e+02    3.8802e+02 ;    C15 - C14    - H4S   
 14267  14270  14273      1    1.1205e+02    3.9497e+02 ;    C15 - C14    - C13   
 14268  14267  14269      1    1.0835e+02    3.2995e+02 ;    H5R - C15    - H5S   
 14268  14267  14270      1    1.1005e+02    3.8802e+02 ;    H5R - C15    - C14   
 14269  14267  14270      1    1.1005e+02    3.8802e+02 ;    H5S - C15    - C14   
 14270  14273  14274      1    1.1005e+02    3.8802e+02 ;    C14 - C13    - H3R   
 14270  14273  14275      1    1.1005e+02    3.8802e+02 ;    C14 - C13    - H3S   
 14270  14273  14276      1    1.1205e+02    3.9497e+02 ;    C14 - C13    - C12   
 14271  14270  14272      1    1.0835e+02    3.2995e+02 ;    H4R - C14    - H4S   
 14271  14270  14273      1    1.1005e+02    3.8802e+02 ;    H4R - C14    - C13   
 14272  14270  14273      1    1.1005e+02    3.8802e+02 ;    H4S - C14    - C13   
 14273  14276  14277      1    1.1005e+02    3.8802e+02 ;    C13 - C12    - H2R   
 14273  14276  14278      1    1.1005e+02    3.8802e+02 ;    C13 - C12    - H2S   
 14274  14273  14275      1    1.0835e+02    3.2995e+02 ;    H3R - C13    - H3S   
 14274  14273  14276      1    1.1005e+02    3.8802e+02 ;    H3R - C13    - C12   
 14275  14273  14276      1    1.1005e+02    3.8802e+02 ;    H3S - C13    - C12   
 14277  14276  14278      1    1.0835e+02    3.2995e+02 ;    H2R - C12    - H2S   
 14279  14280  14281      1    1.0835e+02    3.2995e+02 ;   H14T - C114   - H14R  
 14279  14280  14282      1    1.0835e+02    3.2995e+02 ;   H14T - C114   - H14S  
 14279  14280  14283      1    1.1005e+02    3.8802e+02 ;   H14T - C114   - C113  
 14280  14283  14284      1    1.1005e+02    3.8802e+02 ;   C114 - C113   - H13R  
 14280  14283  14285      1    1.1005e+02    3.8802e+02 ;   C114 - C113   - H13S  
 14280  14283  14286      1    1.1205e+02    3.9497e+02 ;   C114 - C113   - C112  
 14281  14280  14282      1    1.0835e+02    3.2995e+02 ;   H14R - C114   - H14S  
 14281  14280  14283      1    1.1005e+02    3.8802e+02 ;   H14R - C114   - C113  
 14282  14280  14283      1    1.1005e+02    3.8802e+02 ;   H14S - C114   - C113  
 14283  14286  14287      1    1.1005e+02    3.8802e+02 ;   C113 - C112   - H12R  
 14283  14286  14288      1    1.1005e+02    3.8802e+02 ;   C113 - C112   - H12S  
 14283  14286  14289      1    1.1205e+02    3.9497e+02 ;   C113 - C112   - C111  
 14284  14283  14285      1    1.0835e+02    3.2995e+02 ;   H13R - C113   - H13S  
 14284  14283  14286      1    1.1005e+02    3.8802e+02 ;   H13R - C113   - C112  
 14285  14283  14286      1    1.1005e+02    3.8802e+02 ;   H13S - C113   - C112  
 14286  14289  14290      1    1.1005e+02    3.8802e+02 ;   C112 - C111   - H11R  
 14286  14289  14291      1    1.1005e+02    3.8802e+02 ;   C112 - C111   - H11S  
 14286  14289  14292      1    1.1205e+02    3.9497e+02 ;   C112 - C111   - C110  
 14287  14286  14288      1    1.0835e+02    3.2995e+02 ;   H12R - C112   - H12S  
 14287  14286  14289      1    1.1005e+02    3.8802e+02 ;   H12R - C112   - C111  
 14288  14286  14289      1    1.1005e+02    3.8802e+02 ;   H12S - C112   - C111  
 14289  14292  14293      1    1.1005e+02    3.8802e+02 ;   C111 - C110   - H10R  
 14289  14292  14294      1    1.1005e+02    3.8802e+02 ;   C111 - C110   - H10S  
 14289  14292  14295      1    1.1205e+02    3.9497e+02 ;   C111 - C110   - C19   
 14290  14289  14291      1    1.0835e+02    3.2995e+02 ;   H11R - C111   - H11S  
 14290  14289  14292      1    1.1005e+02    3.8802e+02 ;   H11R - C111   - C110  
 14291  14289  14292      1    1.1005e+02    3.8802e+02 ;   H11S - C111   - C110  
 14292  14295  14296      1    1.1005e+02    3.8802e+02 ;   C110 - C19    - H9R   
 14292  14295  14297      1    1.1005e+02    3.8802e+02 ;   C110 - C19    - H9S   
 14292  14295  14298      1    1.1205e+02    3.9497e+02 ;   C110 - C19    - C18   
 14293  14292  14294      1    1.0835e+02    3.2995e+02 ;   H10R - C110   - H10S  
 14293  14292  14295      1    1.1005e+02    3.8802e+02 ;   H10R - C110   - C19   
 14294  14292  14295      1    1.1005e+02    3.8802e+02 ;   H10S - C110   - C19   
 14295  14298  14299      1    1.1005e+02    3.8802e+02 ;    C19 - C18    - H8R   
 14295  14298  14300      1    1.1005e+02    3.8802e+02 ;    C19 - C18    - H8S   
 14295  14298  14301      1    1.1205e+02    3.9497e+02 ;    C19 - C18    - C17   
 14296  14295  14297      1    1.0835e+02    3.2995e+02 ;    H9R - C19    - H9S   
 14296  14295  14298      1    1.1005e+02    3.8802e+02 ;    H9R - C19    - C18   
 14297  14295  14298      1    1.1005e+02    3.8802e+02 ;    H9S - C19    - C18   
 14298  14301  14302      1    1.1005e+02    3.8802e+02 ;    C18 - C17    - H7R   
 14298  14301  14303      1    1.1005e+02    3.8802e+02 ;    C18 - C17    - H7S   
 14298  14301  14304      1    1.1205e+02    3.9497e+02 ;    C18 - C17    - C16   
 14299  14298  14300      1    1.0835e+02    3.2995e+02 ;    H8R - C18    - H8S   
 14299  14298  14301      1    1.1005e+02    3.8802e+02 ;    H8R - C18    - C17   
 14300  14298  14301      1    1.1005e+02    3.8802e+02 ;    H8S - C18    - C17   
 14301  14304  14305      1    1.1005e+02    3.8802e+02 ;    C17 - C16    - H6R   
 14301  14304  14306      1    1.1005e+02    3.8802e+02 ;    C17 - C16    - H6S   
 14301  14304  14307      1    1.1205e+02    3.9497e+02 ;    C17 - C16    - C15   
 14302  14301  14303      1    1.0835e+02    3.2995e+02 ;    H7R - C17    - H7S   
 14302  14301  14304      1    1.1005e+02    3.8802e+02 ;    H7R - C17    - C16   
 14303  14301  14304      1    1.1005e+02    3.8802e+02 ;    H7S - C17    - C16   
 14304  14307  14308      1    1.1005e+02    3.8802e+02 ;    C16 - C15    - H5R   
 14304  14307  14309      1    1.1005e+02    3.8802e+02 ;    C16 - C15    - H5S   
 14304  14307  14310      1    1.1205e+02    3.9497e+02 ;    C16 - C15    - C14   
 14305  14304  14306      1    1.0835e+02    3.2995e+02 ;    H6R - C16    - H6S   
 14305  14304  14307      1    1.1005e+02    3.8802e+02 ;    H6R - C16    - C15   
 14306  14304  14307      1    1.1005e+02    3.8802e+02 ;    H6S - C16    - C15   
 14307  14310  14311      1    1.1005e+02    3.8802e+02 ;    C15 - C14    - H4R   
 14307  14310  14312      1    1.1005e+02    3.8802e+02 ;    C15 - C14    - H4S   
 14307  14310  14313      1    1.1205e+02    3.9497e+02 ;    C15 - C14    - C13   
 14308  14307  14309      1    1.0835e+02    3.2995e+02 ;    H5R - C15    - H5S   
 14308  14307  14310      1    1.1005e+02    3.8802e+02 ;    H5R - C15    - C14   
 14309  14307  14310      1    1.1005e+02    3.8802e+02 ;    H5S - C15    - C14   
 14310  14313  14314      1    1.1005e+02    3.8802e+02 ;    C14 - C13    - H3R   
 14310  14313  14315      1    1.1005e+02    3.8802e+02 ;    C14 - C13    - H3S   
 14310  14313  14316      1    1.1205e+02    3.9497e+02 ;    C14 - C13    - C12   
 14311  14310  14312      1    1.0835e+02    3.2995e+02 ;    H4R - C14    - H4S   
 14311  14310  14313      1    1.1005e+02    3.8802e+02 ;    H4R - C14    - C13   
 14312  14310  14313      1    1.1005e+02    3.8802e+02 ;    H4S - C14    - C13   
 14313  14316  14317      1    1.1005e+02    3.8802e+02 ;    C13 - C12    - H2R   
 14313  14316  14318      1    1.1005e+02    3.8802e+02 ;    C13 - C12    - H2S   
 14313  14316  14319      1    1.1053e+02    5.3379e+02 ;    C13 - C12    - C11   
 14314  14313  14315      1    1.0835e+02    3.2995e+02 ;    H3R - C13    - H3S   
 14314  14313  14316      1    1.1005e+02    3.8802e+02 ;    H3R - C13    - C12   
 14315  14313  14316      1    1.1005e+02    3.8802e+02 ;    H3S - C13    - C12   
 14316  14319  14320      1    1.2311e+02    5.6928e+02 ;    C12 - C11    - O12   
 14316  14319  14321      1    1.1196e+02    5.7957e+02 ;    C12 - C11    - O11   
 14317  14316  14318      1    1.0835e+02    3.2995e+02 ;    H2R - C12    - H2S   
 14317  14316  14319      1    1.0968e+02    3.9497e+02 ;    H2R - C12    - C11   
 14318  14316  14319      1    1.0968e+02    3.9497e+02 ;    H2S - C12    - C11   
 14319  14321  14322      1    1.1514e+02    5.3246e+02 ;    C11 - O11    - C1    
 14320  14319  14321      1    1.2333e+02    6.3538e+02 ;    O12 - C11    - O11   
 14321  14322  14323      1    1.0882e+02    4.2543e+02 ;    O11 - C1     - HR    
 14321  14322  14324      1    1.0882e+02    4.2543e+02 ;    O11 - C1     - HS    
 14321  14322  14325      1    1.0842e+02    5.6718e+02 ;    O11 - C1     - C2    
 14322  14325  14326      1    1.1007e+02    3.8794e+02 ;     C1 - C2     - HX    
 14322  14325  14327      1    1.1063e+02    5.2894e+02 ;     C1 - C2     - C3    
 14322  14325  14354      1    1.0842e+02    5.6718e+02 ;     C1 - C2     - O21   
 14323  14322  14324      1    1.0955e+02    3.2786e+02 ;     HR - C1     - HS    
 14323  14322  14325      1    1.1007e+02    3.8794e+02 ;     HR - C1     - C2    
 14324  14322  14325      1    1.1007e+02    3.8794e+02 ;     HS - C1     - C2    
 14325  14327  14328      1    1.1007e+02    3.8794e+02 ;     C2 - C3     - HA    
 14325  14327  14329      1    1.1007e+02    3.8794e+02 ;     C2 - C3     - HB    
 14325  14327  14330      1    1.0842e+02    5.6718e+02 ;     C2 - C3     - O31   
 14325  14354  14355      1    1.1514e+02    5.3246e+02 ;     C2 - O21    - C21   
 14326  14325  14327      1    1.1007e+02    3.8794e+02 ;     HX - C2     - C3    
 14326  14325  14354      1    1.0882e+02    4.2543e+02 ;     HX - C2     - O21   
 14327  14325  14354      1    1.0842e+02    5.6718e+02 ;     C3 - C2     - O21   
 14327  14330  14331      1    1.2050e+02    8.3680e+02 ;     C3 - O31    - P31   
 14328  14327  14329      1    1.0955e+02    3.2786e+02 ;     HA - C3     - HB    
 14328  14327  14330      1    1.0882e+02    4.2543e+02 ;     HA - C3     - O31   
 14329  14327  14330      1    1.0882e+02    4.2543e+02 ;     HB - C3     - O31   
 14330  14331  14332      1    1.0260e+02    7.5312e+02 ;    O31 - P31    - O32   
 14330  14331  14352      1    1.0823e+02    8.3680e+02 ;    O31 - P31    - O33   
 14330  14331  14353      1    1.0823e+02    8.3680e+02 ;    O31 - P31    - O34   
 14331  14332  14333      1    1.2050e+02    8.3680e+02 ;    P31 - O32    - C31   
 14332  14331  14352      1    1.0823e+02    8.3680e+02 ;    O32 - P31    - O33   
 14332  14331  14353      1    1.0823e+02    8.3680e+02 ;    O32 - P31    - O34   
 14332  14333  14334      1    1.0882e+02    4.2543e+02 ;    O32 - C31    - H1A   
 14332  14333  14335      1    1.0882e+02    4.2543e+02 ;    O32 - C31    - H1B   
 14332  14333  14336      1    1.0842e+02    5.6718e+02 ;    O32 - C31    - C32   
 14333  14336  14337      1    1.1174e+02    3.8510e+02 ;    C31 - C32    - H2A   
 14333  14336  14338      1    1.1174e+02    3.8510e+02 ;    C31 - C32    - H2B   
 14333  14336  14339      1    1.1432e+02    5.3932e+02 ;    C31 - C32    - N31   
 14334  14333  14335      1    1.0955e+02    3.2786e+02 ;    H1A - C31    - H1B   
 14334  14333  14336      1    1.1007e+02    3.8794e+02 ;    H1A - C31    - C32   
 14335  14333  14336      1    1.1007e+02    3.8794e+02 ;    H1B - C31    - C32   
 14336  14339  14340      1    1.1064e+02    5.2585e+02 ;    C32 - N31    - C33   
 14336  14339  14344      1    1.1064e+02    5.2585e+02 ;    C32 - N31    - C34   
 14336  14339  14348      1    1.1064e+02    5.2585e+02 ;    C32 - N31    - C35   
 14337  14336  14338      1    1.1074e+02    3.2669e+02 ;    H2A - C32    - H2B   
 14337  14336  14339      1    1.0791e+02    4.1020e+02 ;    H2A - C32    - N31   
 14338  14336  14339      1    1.0791e+02    4.1020e+02 ;    H2B - C32    - N31   
 14339  14340  14341      1    1.0791e+02    4.1020e+02 ;    N31 - C33    - H3A   
 14339  14340  14342      1    1.0791e+02    4.1020e+02 ;    N31 - C33    - H3B   
 14339  14340  14343      1    1.0791e+02    4.1020e+02 ;    N31 - C33    - H3C   
 14339  14344  14345      1    1.0791e+02    4.1020e+02 ;    N31 - C34    - H4A   
 14339  14344  14346      1    1.0791e+02    4.1020e+02 ;    N31 - C34    - H4B   
 14339  14344  14347      1    1.0791e+02    4.1020e+02 ;    N31 - C34    - H4C   
 14339  14348  14349      1    1.0791e+02    4.1020e+02 ;    N31 - C35    - H5A   
 14339  14348  14350      1    1.0791e+02    4.1020e+02 ;    N31 - C35    - H5B   
 14339  14348  14351      1    1.0791e+02    4.1020e+02 ;    N31 - C35    - H5C   
 14340  14339  14344      1    1.1064e+02    5.2585e+02 ;    C33 - N31    - C34   
 14340  14339  14348      1    1.1064e+02    5.2585e+02 ;    C33 - N31    - C35   
 14341  14340  14342      1    1.1074e+02    3.2669e+02 ;    H3A - C33    - H3B   
 14341  14340  14343      1    1.1074e+02    3.2669e+02 ;    H3A - C33    - H3C   
 14342  14340  14343      1    1.1074e+02    3.2669e+02 ;    H3B - C33    - H3C   
 14344  14339  14348      1    1.1064e+02    5.2585e+02 ;    C34 - N31    - C35   
 14345  14344  14346      1    1.1074e+02    3.2669e+02 ;    H4A - C34    - H4B   
 14345  14344  14347      1    1.1074e+02    3.2669e+02 ;    H4A - C34    - H4C   
 14346  14344  14347      1    1.1074e+02    3.2669e+02 ;    H4B - C34    - H4C   
 14349  14348  14350      1    1.1074e+02    3.2669e+02 ;    H5A - C35    - H5B   
 14349  14348  14351      1    1.1074e+02    3.2669e+02 ;    H5A - C35    - H5C   
 14350  14348  14351      1    1.1074e+02    3.2669e+02 ;    H5B - C35    - H5C   
 14352  14331  14353      1    1.1990e+02    1.1715e+03 ;    O33 - P31    - O34   
 14354  14355  14356      1    1.2333e+02    6.3538e+02 ;    O21 - C21    - O22   
 14354  14355  14394      1    1.1196e+02    5.7957e+02 ;    O21 - C21    - C12   
 14355  14394  14391      1    1.1053e+02    5.3379e+02 ;    C21 - C12    - C13   
 14355  14394  14395      1    1.0968e+02    3.9497e+02 ;    C21 - C12    - H2R   
 14355  14394  14396      1    1.0968e+02    3.9497e+02 ;    C21 - C12    - H2S   
 14356  14355  14394      1    1.2311e+02    5.6928e+02 ;    O22 - C21    - C12   
 14357  14358  14359      1    1.0835e+02    3.2995e+02 ;   H14T - C114   - H14R  
 14357  14358  14360      1    1.0835e+02    3.2995e+02 ;   H14T - C114   - H14S  
 14357  14358  14361      1    1.1005e+02    3.8802e+02 ;   H14T - C114   - C113  
 14358  14361  14362      1    1.1005e+02    3.8802e+02 ;   C114 - C113   - H13R  
 14358  14361  14363      1    1.1005e+02    3.8802e+02 ;   C114 - C113   - H13S  
 14358  14361  14364      1    1.1205e+02    3.9497e+02 ;   C114 - C113   - C112  
 14359  14358  14360      1    1.0835e+02    3.2995e+02 ;   H14R - C114   - H14S  
 14359  14358  14361      1    1.1005e+02    3.8802e+02 ;   H14R - C114   - C113  
 14360  14358  14361      1    1.1005e+02    3.8802e+02 ;   H14S - C114   - C113  
 14361  14364  14365      1    1.1005e+02    3.8802e+02 ;   C113 - C112   - H12R  
 14361  14364  14366      1    1.1005e+02    3.8802e+02 ;   C113 - C112   - H12S  
 14361  14364  14367      1    1.1205e+02    3.9497e+02 ;   C113 - C112   - C111  
 14362  14361  14363      1    1.0835e+02    3.2995e+02 ;   H13R - C113   - H13S  
 14362  14361  14364      1    1.1005e+02    3.8802e+02 ;   H13R - C113   - C112  
 14363  14361  14364      1    1.1005e+02    3.8802e+02 ;   H13S - C113   - C112  
 14364  14367  14368      1    1.1005e+02    3.8802e+02 ;   C112 - C111   - H11R  
 14364  14367  14369      1    1.1005e+02    3.8802e+02 ;   C112 - C111   - H11S  
 14364  14367  14370      1    1.1205e+02    3.9497e+02 ;   C112 - C111   - C110  
 14365  14364  14366      1    1.0835e+02    3.2995e+02 ;   H12R - C112   - H12S  
 14365  14364  14367      1    1.1005e+02    3.8802e+02 ;   H12R - C112   - C111  
 14366  14364  14367      1    1.1005e+02    3.8802e+02 ;   H12S - C112   - C111  
 14367  14370  14371      1    1.1005e+02    3.8802e+02 ;   C111 - C110   - H10R  
 14367  14370  14372      1    1.1005e+02    3.8802e+02 ;   C111 - C110   - H10S  
 14367  14370  14373      1    1.1205e+02    3.9497e+02 ;   C111 - C110   - C19   
 14368  14367  14369      1    1.0835e+02    3.2995e+02 ;   H11R - C111   - H11S  
 14368  14367  14370      1    1.1005e+02    3.8802e+02 ;   H11R - C111   - C110  
 14369  14367  14370      1    1.1005e+02    3.8802e+02 ;   H11S - C111   - C110  
 14370  14373  14374      1    1.1005e+02    3.8802e+02 ;   C110 - C19    - H9R   
 14370  14373  14375      1    1.1005e+02    3.8802e+02 ;   C110 - C19    - H9S   
 14370  14373  14376      1    1.1205e+02    3.9497e+02 ;   C110 - C19    - C18   
 14371  14370  14372      1    1.0835e+02    3.2995e+02 ;   H10R - C110   - H10S  
 14371  14370  14373      1    1.1005e+02    3.8802e+02 ;   H10R - C110   - C19   
 14372  14370  14373      1    1.1005e+02    3.8802e+02 ;   H10S - C110   - C19   
 14373  14376  14377      1    1.1005e+02    3.8802e+02 ;    C19 - C18    - H8R   
 14373  14376  14378      1    1.1005e+02    3.8802e+02 ;    C19 - C18    - H8S   
 14373  14376  14379      1    1.1205e+02    3.9497e+02 ;    C19 - C18    - C17   
 14374  14373  14375      1    1.0835e+02    3.2995e+02 ;    H9R - C19    - H9S   
 14374  14373  14376      1    1.1005e+02    3.8802e+02 ;    H9R - C19    - C18   
 14375  14373  14376      1    1.1005e+02    3.8802e+02 ;    H9S - C19    - C18   
 14376  14379  14380      1    1.1005e+02    3.8802e+02 ;    C18 - C17    - H7R   
 14376  14379  14381      1    1.1005e+02    3.8802e+02 ;    C18 - C17    - H7S   
 14376  14379  14382      1    1.1205e+02    3.9497e+02 ;    C18 - C17    - C16   
 14377  14376  14378      1    1.0835e+02    3.2995e+02 ;    H8R - C18    - H8S   
 14377  14376  14379      1    1.1005e+02    3.8802e+02 ;    H8R - C18    - C17   
 14378  14376  14379      1    1.1005e+02    3.8802e+02 ;    H8S - C18    - C17   
 14379  14382  14383      1    1.1005e+02    3.8802e+02 ;    C17 - C16    - H6R   
 14379  14382  14384      1    1.1005e+02    3.8802e+02 ;    C17 - C16    - H6S   
 14379  14382  14385      1    1.1205e+02    3.9497e+02 ;    C17 - C16    - C15   
 14380  14379  14381      1    1.0835e+02    3.2995e+02 ;    H7R - C17    - H7S   
 14380  14379  14382      1    1.1005e+02    3.8802e+02 ;    H7R - C17    - C16   
 14381  14379  14382      1    1.1005e+02    3.8802e+02 ;    H7S - C17    - C16   
 14382  14385  14386      1    1.1005e+02    3.8802e+02 ;    C16 - C15    - H5R   
 14382  14385  14387      1    1.1005e+02    3.8802e+02 ;    C16 - C15    - H5S   
 14382  14385  14388      1    1.1205e+02    3.9497e+02 ;    C16 - C15    - C14   
 14383  14382  14384      1    1.0835e+02    3.2995e+02 ;    H6R - C16    - H6S   
 14383  14382  14385      1    1.1005e+02    3.8802e+02 ;    H6R - C16    - C15   
 14384  14382  14385      1    1.1005e+02    3.8802e+02 ;    H6S - C16    - C15   
 14385  14388  14389      1    1.1005e+02    3.8802e+02 ;    C15 - C14    - H4R   
 14385  14388  14390      1    1.1005e+02    3.8802e+02 ;    C15 - C14    - H4S   
 14385  14388  14391      1    1.1205e+02    3.9497e+02 ;    C15 - C14    - C13   
 14386  14385  14387      1    1.0835e+02    3.2995e+02 ;    H5R - C15    - H5S   
 14386  14385  14388      1    1.1005e+02    3.8802e+02 ;    H5R - C15    - C14   
 14387  14385  14388      1    1.1005e+02    3.8802e+02 ;    H5S - C15    - C14   
 14388  14391  14392      1    1.1005e+02    3.8802e+02 ;    C14 - C13    - H3R   
 14388  14391  14393      1    1.1005e+02    3.8802e+02 ;    C14 - C13    - H3S   
 14388  14391  14394      1    1.1205e+02    3.9497e+02 ;    C14 - C13    - C12   
 14389  14388  14390      1    1.0835e+02    3.2995e+02 ;    H4R - C14    - H4S   
 14389  14388  14391      1    1.1005e+02    3.8802e+02 ;    H4R - C14    - C13   
 14390  14388  14391      1    1.1005e+02    3.8802e+02 ;    H4S - C14    - C13   
 14391  14394  14395      1    1.1005e+02    3.8802e+02 ;    C13 - C12    - H2R   
 14391  14394  14396      1    1.1005e+02    3.8802e+02 ;    C13 - C12    - H2S   
 14392  14391  14393      1    1.0835e+02    3.2995e+02 ;    H3R - C13    - H3S   
 14392  14391  14394      1    1.1005e+02    3.8802e+02 ;    H3R - C13    - C12   
 14393  14391  14394      1    1.1005e+02    3.8802e+02 ;    H3S - C13    - C12   
 14395  14394  14396      1    1.0835e+02    3.2995e+02 ;    H2R - C12    - H2S   
 14397  14398  14399      1    1.0835e+02    3.2995e+02 ;   H14T - C114   - H14R  
 14397  14398  14400      1    1.0835e+02    3.2995e+02 ;   H14T - C114   - H14S  
 14397  14398  14401      1    1.1005e+02    3.8802e+02 ;   H14T - C114   - C113  
 14398  14401  14402      1    1.1005e+02    3.8802e+02 ;   C114 - C113   - H13R  
 14398  14401  14403      1    1.1005e+02    3.8802e+02 ;   C114 - C113   - H13S  
 14398  14401  14404      1    1.1205e+02    3.9497e+02 ;   C114 - C113   - C112  
 14399  14398  14400      1    1.0835e+02    3.2995e+02 ;   H14R - C114   - H14S  
 14399  14398  14401      1    1.1005e+02    3.8802e+02 ;   H14R - C114   - C113  
 14400  14398  14401      1    1.1005e+02    3.8802e+02 ;   H14S - C114   - C113  
 14401  14404  14405      1    1.1005e+02    3.8802e+02 ;   C113 - C112   - H12R  
 14401  14404  14406      1    1.1005e+02    3.8802e+02 ;   C113 - C112   - H12S  
 14401  14404  14407      1    1.1205e+02    3.9497e+02 ;   C113 - C112   - C111  
 14402  14401  14403      1    1.0835e+02    3.2995e+02 ;   H13R - C113   - H13S  
 14402  14401  14404      1    1.1005e+02    3.8802e+02 ;   H13R - C113   - C112  
 14403  14401  14404      1    1.1005e+02    3.8802e+02 ;   H13S - C113   - C112  
 14404  14407  14408      1    1.1005e+02    3.8802e+02 ;   C112 - C111   - H11R  
 14404  14407  14409      1    1.1005e+02    3.8802e+02 ;   C112 - C111   - H11S  
 14404  14407  14410      1    1.1205e+02    3.9497e+02 ;   C112 - C111   - C110  
 14405  14404  14406      1    1.0835e+02    3.2995e+02 ;   H12R - C112   - H12S  
 14405  14404  14407      1    1.1005e+02    3.8802e+02 ;   H12R - C112   - C111  
 14406  14404  14407      1    1.1005e+02    3.8802e+02 ;   H12S - C112   - C111  
 14407  14410  14411      1    1.1005e+02    3.8802e+02 ;   C111 - C110   - H10R  
 14407  14410  14412      1    1.1005e+02    3.8802e+02 ;   C111 - C110   - H10S  
 14407  14410  14413      1    1.1205e+02    3.9497e+02 ;   C111 - C110   - C19   
 14408  14407  14409      1    1.0835e+02    3.2995e+02 ;   H11R - C111   - H11S  
 14408  14407  14410      1    1.1005e+02    3.8802e+02 ;   H11R - C111   - C110  
 14409  14407  14410      1    1.1005e+02    3.8802e+02 ;   H11S - C111   - C110  
 14410  14413  14414      1    1.1005e+02    3.8802e+02 ;   C110 - C19    - H9R   
 14410  14413  14415      1    1.1005e+02    3.8802e+02 ;   C110 - C19    - H9S   
 14410  14413  14416      1    1.1205e+02    3.9497e+02 ;   C110 - C19    - C18   
 14411  14410  14412      1    1.0835e+02    3.2995e+02 ;   H10R - C110   - H10S  
 14411  14410  14413      1    1.1005e+02    3.8802e+02 ;   H10R - C110   - C19   
 14412  14410  14413      1    1.1005e+02    3.8802e+02 ;   H10S - C110   - C19   
 14413  14416  14417      1    1.1005e+02    3.8802e+02 ;    C19 - C18    - H8R   
 14413  14416  14418      1    1.1005e+02    3.8802e+02 ;    C19 - C18    - H8S   
 14413  14416  14419      1    1.1205e+02    3.9497e+02 ;    C19 - C18    - C17   
 14414  14413  14415      1    1.0835e+02    3.2995e+02 ;    H9R - C19    - H9S   
 14414  14413  14416      1    1.1005e+02    3.8802e+02 ;    H9R - C19    - C18   
 14415  14413  14416      1    1.1005e+02    3.8802e+02 ;    H9S - C19    - C18   
 14416  14419  14420      1    1.1005e+02    3.8802e+02 ;    C18 - C17    - H7R   
 14416  14419  14421      1    1.1005e+02    3.8802e+02 ;    C18 - C17    - H7S   
 14416  14419  14422      1    1.1205e+02    3.9497e+02 ;    C18 - C17    - C16   
 14417  14416  14418      1    1.0835e+02    3.2995e+02 ;    H8R - C18    - H8S   
 14417  14416  14419      1    1.1005e+02    3.8802e+02 ;    H8R - C18    - C17   
 14418  14416  14419      1    1.1005e+02    3.8802e+02 ;    H8S - C18    - C17   
 14419  14422  14423      1    1.1005e+02    3.8802e+02 ;    C17 - C16    - H6R   
 14419  14422  14424      1    1.1005e+02    3.8802e+02 ;    C17 - C16    - H6S   
 14419  14422  14425      1    1.1205e+02    3.9497e+02 ;    C17 - C16    - C15   
 14420  14419  14421      1    1.0835e+02    3.2995e+02 ;    H7R - C17    - H7S   
 14420  14419  14422      1    1.1005e+02    3.8802e+02 ;    H7R - C17    - C16   
 14421  14419  14422      1    1.1005e+02    3.8802e+02 ;    H7S - C17    - C16   
 14422  14425  14426      1    1.1005e+02    3.8802e+02 ;    C16 - C15    - H5R   
 14422  14425  14427      1    1.1005e+02    3.8802e+02 ;    C16 - C15    - H5S   
 14422  14425  14428      1    1.1205e+02    3.9497e+02 ;    C16 - C15    - C14   
 14423  14422  14424      1    1.0835e+02    3.2995e+02 ;    H6R - C16    - H6S   
 14423  14422  14425      1    1.1005e+02    3.8802e+02 ;    H6R - C16    - C15   
 14424  14422  14425      1    1.1005e+02    3.8802e+02 ;    H6S - C16    - C15   
 14425  14428  14429      1    1.1005e+02    3.8802e+02 ;    C15 - C14    - H4R   
 14425  14428  14430      1    1.1005e+02    3.8802e+02 ;    C15 - C14    - H4S   
 14425  14428  14431      1    1.1205e+02    3.9497e+02 ;    C15 - C14    - C13   
 14426  14425  14427      1    1.0835e+02    3.2995e+02 ;    H5R - C15    - H5S   
 14426  14425  14428      1    1.1005e+02    3.8802e+02 ;    H5R - C15    - C14   
 14427  14425  14428      1    1.1005e+02    3.8802e+02 ;    H5S - C15    - C14   
 14428  14431  14432      1    1.1005e+02    3.8802e+02 ;    C14 - C13    - H3R   
 14428  14431  14433      1    1.1005e+02    3.8802e+02 ;    C14 - C13    - H3S   
 14428  14431  14434      1    1.1205e+02    3.9497e+02 ;    C14 - C13    - C12   
 14429  14428  14430      1    1.0835e+02    3.2995e+02 ;    H4R - C14    - H4S   
 14429  14428  14431      1    1.1005e+02    3.8802e+02 ;    H4R - C14    - C13   
 14430  14428  14431      1    1.1005e+02    3.8802e+02 ;    H4S - C14    - C13   
 14431  14434  14435      1    1.1005e+02    3.8802e+02 ;    C13 - C12    - H2R   
 14431  14434  14436      1    1.1005e+02    3.8802e+02 ;    C13 - C12    - H2S   
 14431  14434  14437      1    1.1053e+02    5.3379e+02 ;    C13 - C12    - C11   
 14432  14431  14433      1    1.0835e+02    3.2995e+02 ;    H3R - C13    - H3S   
 14432  14431  14434      1    1.1005e+02    3.8802e+02 ;    H3R - C13    - C12   
 14433  14431  14434      1    1.1005e+02    3.8802e+02 ;    H3S - C13    - C12   
 14434  14437  14438      1    1.2311e+02    5.6928e+02 ;    C12 - C11    - O12   
 14434  14437  14439      1    1.1196e+02    5.7957e+02 ;    C12 - C11    - O11   
 14435  14434  14436      1    1.0835e+02    3.2995e+02 ;    H2R - C12    - H2S   
 14435  14434  14437      1    1.0968e+02    3.9497e+02 ;    H2R - C12    - C11   
 14436  14434  14437      1    1.0968e+02    3.9497e+02 ;    H2S - C12    - C11   
 14437  14439  14440      1    1.1514e+02    5.3246e+02 ;    C11 - O11    - C1    
 14438  14437  14439      1    1.2333e+02    6.3538e+02 ;    O12 - C11    - O11   
 14439  14440  14441      1    1.0882e+02    4.2543e+02 ;    O11 - C1     - HR    
 14439  14440  14442      1    1.0882e+02    4.2543e+02 ;    O11 - C1     - HS    
 14439  14440  14443      1    1.0842e+02    5.6718e+02 ;    O11 - C1     - C2    
 14440  14443  14444      1    1.1007e+02    3.8794e+02 ;     C1 - C2     - HX    
 14440  14443  14445      1    1.1063e+02    5.2894e+02 ;     C1 - C2     - C3    
 14440  14443  14472      1    1.0842e+02    5.6718e+02 ;     C1 - C2     - O21   
 14441  14440  14442      1    1.0955e+02    3.2786e+02 ;     HR - C1     - HS    
 14441  14440  14443      1    1.1007e+02    3.8794e+02 ;     HR - C1     - C2    
 14442  14440  14443      1    1.1007e+02    3.8794e+02 ;     HS - C1     - C2    
 14443  14445  14446      1    1.1007e+02    3.8794e+02 ;     C2 - C3     - HA    
 14443  14445  14447      1    1.1007e+02    3.8794e+02 ;     C2 - C3     - HB    
 14443  14445  14448      1    1.0842e+02    5.6718e+02 ;     C2 - C3     - O31   
 14443  14472  14473      1    1.1514e+02    5.3246e+02 ;     C2 - O21    - C21   
 14444  14443  14445      1    1.1007e+02    3.8794e+02 ;     HX - C2     - C3    
 14444  14443  14472      1    1.0882e+02    4.2543e+02 ;     HX - C2     - O21   
 14445  14443  14472      1    1.0842e+02    5.6718e+02 ;     C3 - C2     - O21   
 14445  14448  14449      1    1.2050e+02    8.3680e+02 ;     C3 - O31    - P31   
 14446  14445  14447      1    1.0955e+02    3.2786e+02 ;     HA - C3     - HB    
 14446  14445  14448      1    1.0882e+02    4.2543e+02 ;     HA - C3     - O31   
 14447  14445  14448      1    1.0882e+02    4.2543e+02 ;     HB - C3     - O31   
 14448  14449  14450      1    1.0260e+02    7.5312e+02 ;    O31 - P31    - O32   
 14448  14449  14470      1    1.0823e+02    8.3680e+02 ;    O31 - P31    - O33   
 14448  14449  14471      1    1.0823e+02    8.3680e+02 ;    O31 - P31    - O34   
 14449  14450  14451      1    1.2050e+02    8.3680e+02 ;    P31 - O32    - C31   
 14450  14449  14470      1    1.0823e+02    8.3680e+02 ;    O32 - P31    - O33   
 14450  14449  14471      1    1.0823e+02    8.3680e+02 ;    O32 - P31    - O34   
 14450  14451  14452      1    1.0882e+02    4.2543e+02 ;    O32 - C31    - H1A   
 14450  14451  14453      1    1.0882e+02    4.2543e+02 ;    O32 - C31    - H1B   
 14450  14451  14454      1    1.0842e+02    5.6718e+02 ;    O32 - C31    - C32   
 14451  14454  14455      1    1.1174e+02    3.8510e+02 ;    C31 - C32    - H2A   
 14451  14454  14456      1    1.1174e+02    3.8510e+02 ;    C31 - C32    - H2B   
 14451  14454  14457      1    1.1432e+02    5.3932e+02 ;    C31 - C32    - N31   
 14452  14451  14453      1    1.0955e+02    3.2786e+02 ;    H1A - C31    - H1B   
 14452  14451  14454      1    1.1007e+02    3.8794e+02 ;    H1A - C31    - C32   
 14453  14451  14454      1    1.1007e+02    3.8794e+02 ;    H1B - C31    - C32   
 14454  14457  14458      1    1.1064e+02    5.2585e+02 ;    C32 - N31    - C33   
 14454  14457  14462      1    1.1064e+02    5.2585e+02 ;    C32 - N31    - C34   
 14454  14457  14466      1    1.1064e+02    5.2585e+02 ;    C32 - N31    - C35   
 14455  14454  14456      1    1.1074e+02    3.2669e+02 ;    H2A - C32    - H2B   
 14455  14454  14457      1    1.0791e+02    4.1020e+02 ;    H2A - C32    - N31   
 14456  14454  14457      1    1.0791e+02    4.1020e+02 ;    H2B - C32    - N31   
 14457  14458  14459      1    1.0791e+02    4.1020e+02 ;    N31 - C33    - H3A   
 14457  14458  14460      1    1.0791e+02    4.1020e+02 ;    N31 - C33    - H3B   
 14457  14458  14461      1    1.0791e+02    4.1020e+02 ;    N31 - C33    - H3C   
 14457  14462  14463      1    1.0791e+02    4.1020e+02 ;    N31 - C34    - H4A   
 14457  14462  14464      1    1.0791e+02    4.1020e+02 ;    N31 - C34    - H4B   
 14457  14462  14465      1    1.0791e+02    4.1020e+02 ;    N31 - C34    - H4C   
 14457  14466  14467      1    1.0791e+02    4.1020e+02 ;    N31 - C35    - H5A   
 14457  14466  14468      1    1.0791e+02    4.1020e+02 ;    N31 - C35    - H5B   
 14457  14466  14469      1    1.0791e+02    4.1020e+02 ;    N31 - C35    - H5C   
 14458  14457  14462      1    1.1064e+02    5.2585e+02 ;    C33 - N31    - C34   
 14458  14457  14466      1    1.1064e+02    5.2585e+02 ;    C33 - N31    - C35   
 14459  14458  14460      1    1.1074e+02    3.2669e+02 ;    H3A - C33    - H3B   
 14459  14458  14461      1    1.1074e+02    3.2669e+02 ;    H3A - C33    - H3C   
 14460  14458  14461      1    1.1074e+02    3.2669e+02 ;    H3B - C33    - H3C   
 14462  14457  14466      1    1.1064e+02    5.2585e+02 ;    C34 - N31    - C35   
 14463  14462  14464      1    1.1074e+02    3.2669e+02 ;    H4A - C34    - H4B   
 14463  14462  14465      1    1.1074e+02    3.2669e+02 ;    H4A - C34    - H4C   
 14464  14462  14465      1    1.1074e+02    3.2669e+02 ;    H4B - C34    - H4C   
 14467  14466  14468      1    1.1074e+02    3.2669e+02 ;    H5A - C35    - H5B   
 14467  14466  14469      1    1.1074e+02    3.2669e+02 ;    H5A - C35    - H5C   
 14468  14466  14469      1    1.1074e+02    3.2669e+02 ;    H5B - C35    - H5C   
 14470  14449  14471      1    1.1990e+02    1.1715e+03 ;    O33 - P31    - O34   
 14472  14473  14474      1    1.2333e+02    6.3538e+02 ;    O21 - C21    - O22   
 14472  14473  14512      1    1.1196e+02    5.7957e+02 ;    O21 - C21    - C12   
 14473  14512  14509      1    1.1053e+02    5.3379e+02 ;    C21 - C12    - C13   
 14473  14512  14513      1    1.0968e+02    3.9497e+02 ;    C21 - C12    - H2R   
 14473  14512  14514      1    1.0968e+02    3.9497e+02 ;    C21 - C12    - H2S   
 14474  14473  14512      1    1.2311e+02    5.6928e+02 ;    O22 - C21    - C12   
 14475  14476  14477      1    1.0835e+02    3.2995e+02 ;   H14T - C114   - H14R  
 14475  14476  14478      1    1.0835e+02    3.2995e+02 ;   H14T - C114   - H14S  
 14475  14476  14479      1    1.1005e+02    3.8802e+02 ;   H14T - C114   - C113  
 14476  14479  14480      1    1.1005e+02    3.8802e+02 ;   C114 - C113   - H13R  
 14476  14479  14481      1    1.1005e+02    3.8802e+02 ;   C114 - C113   - H13S  
 14476  14479  14482      1    1.1205e+02    3.9497e+02 ;   C114 - C113   - C112  
 14477  14476  14478      1    1.0835e+02    3.2995e+02 ;   H14R - C114   - H14S  
 14477  14476  14479      1    1.1005e+02    3.8802e+02 ;   H14R - C114   - C113  
 14478  14476  14479      1    1.1005e+02    3.8802e+02 ;   H14S - C114   - C113  
 14479  14482  14483      1    1.1005e+02    3.8802e+02 ;   C113 - C112   - H12R  
 14479  14482  14484      1    1.1005e+02    3.8802e+02 ;   C113 - C112   - H12S  
 14479  14482  14485      1    1.1205e+02    3.9497e+02 ;   C113 - C112   - C111  
 14480  14479  14481      1    1.0835e+02    3.2995e+02 ;   H13R - C113   - H13S  
 14480  14479  14482      1    1.1005e+02    3.8802e+02 ;   H13R - C113   - C112  
 14481  14479  14482      1    1.1005e+02    3.8802e+02 ;   H13S - C113   - C112  
 14482  14485  14486      1    1.1005e+02    3.8802e+02 ;   C112 - C111   - H11R  
 14482  14485  14487      1    1.1005e+02    3.8802e+02 ;   C112 - C111   - H11S  
 14482  14485  14488      1    1.1205e+02    3.9497e+02 ;   C112 - C111   - C110  
 14483  14482  14484      1    1.0835e+02    3.2995e+02 ;   H12R - C112   - H12S  
 14483  14482  14485      1    1.1005e+02    3.8802e+02 ;   H12R - C112   - C111  
 14484  14482  14485      1    1.1005e+02    3.8802e+02 ;   H12S - C112   - C111  
 14485  14488  14489      1    1.1005e+02    3.8802e+02 ;   C111 - C110   - H10R  
 14485  14488  14490      1    1.1005e+02    3.8802e+02 ;   C111 - C110   - H10S  
 14485  14488  14491      1    1.1205e+02    3.9497e+02 ;   C111 - C110   - C19   
 14486  14485  14487      1    1.0835e+02    3.2995e+02 ;   H11R - C111   - H11S  
 14486  14485  14488      1    1.1005e+02    3.8802e+02 ;   H11R - C111   - C110  
 14487  14485  14488      1    1.1005e+02    3.8802e+02 ;   H11S - C111   - C110  
 14488  14491  14492      1    1.1005e+02    3.8802e+02 ;   C110 - C19    - H9R   
 14488  14491  14493      1    1.1005e+02    3.8802e+02 ;   C110 - C19    - H9S   
 14488  14491  14494      1    1.1205e+02    3.9497e+02 ;   C110 - C19    - C18   
 14489  14488  14490      1    1.0835e+02    3.2995e+02 ;   H10R - C110   - H10S  
 14489  14488  14491      1    1.1005e+02    3.8802e+02 ;   H10R - C110   - C19   
 14490  14488  14491      1    1.1005e+02    3.8802e+02 ;   H10S - C110   - C19   
 14491  14494  14495      1    1.1005e+02    3.8802e+02 ;    C19 - C18    - H8R   
 14491  14494  14496      1    1.1005e+02    3.8802e+02 ;    C19 - C18    - H8S   
 14491  14494  14497      1    1.1205e+02    3.9497e+02 ;    C19 - C18    - C17   
 14492  14491  14493      1    1.0835e+02    3.2995e+02 ;    H9R - C19    - H9S   
 14492  14491  14494      1    1.1005e+02    3.8802e+02 ;    H9R - C19    - C18   
 14493  14491  14494      1    1.1005e+02    3.8802e+02 ;    H9S - C19    - C18   
 14494  14497  14498      1    1.1005e+02    3.8802e+02 ;    C18 - C17    - H7R   
 14494  14497  14499      1    1.1005e+02    3.8802e+02 ;    C18 - C17    - H7S   
 14494  14497  14500      1    1.1205e+02    3.9497e+02 ;    C18 - C17    - C16   
 14495  14494  14496      1    1.0835e+02    3.2995e+02 ;    H8R - C18    - H8S   
 14495  14494  14497      1    1.1005e+02    3.8802e+02 ;    H8R - C18    - C17   
 14496  14494  14497      1    1.1005e+02    3.8802e+02 ;    H8S - C18    - C17   
 14497  14500  14501      1    1.1005e+02    3.8802e+02 ;    C17 - C16    - H6R   
 14497  14500  14502      1    1.1005e+02    3.8802e+02 ;    C17 - C16    - H6S   
 14497  14500  14503      1    1.1205e+02    3.9497e+02 ;    C17 - C16    - C15   
 14498  14497  14499      1    1.0835e+02    3.2995e+02 ;    H7R - C17    - H7S   
 14498  14497  14500      1    1.1005e+02    3.8802e+02 ;    H7R - C17    - C16   
 14499  14497  14500      1    1.1005e+02    3.8802e+02 ;    H7S - C17    - C16   
 14500  14503  14504      1    1.1005e+02    3.8802e+02 ;    C16 - C15    - H5R   
 14500  14503  14505      1    1.1005e+02    3.8802e+02 ;    C16 - C15    - H5S   
 14500  14503  14506      1    1.1205e+02    3.9497e+02 ;    C16 - C15    - C14   
 14501  14500  14502      1    1.0835e+02    3.2995e+02 ;    H6R - C16    - H6S   
 14501  14500  14503      1    1.1005e+02    3.8802e+02 ;    H6R - C16    - C15   
 14502  14500  14503      1    1.1005e+02    3.8802e+02 ;    H6S - C16    - C15   
 14503  14506  14507      1    1.1005e+02    3.8802e+02 ;    C15 - C14    - H4R   
 14503  14506  14508      1    1.1005e+02    3.8802e+02 ;    C15 - C14    - H4S   
 14503  14506  14509      1    1.1205e+02    3.9497e+02 ;    C15 - C14    - C13   
 14504  14503  14505      1    1.0835e+02    3.2995e+02 ;    H5R - C15    - H5S   
 14504  14503  14506      1    1.1005e+02    3.8802e+02 ;    H5R - C15    - C14   
 14505  14503  14506      1    1.1005e+02    3.8802e+02 ;    H5S - C15    - C14   
 14506  14509  14510      1    1.1005e+02    3.8802e+02 ;    C14 - C13    - H3R   
 14506  14509  14511      1    1.1005e+02    3.8802e+02 ;    C14 - C13    - H3S   
 14506  14509  14512      1    1.1205e+02    3.9497e+02 ;    C14 - C13    - C12   
 14507  14506  14508      1    1.0835e+02    3.2995e+02 ;    H4R - C14    - H4S   
 14507  14506  14509      1    1.1005e+02    3.8802e+02 ;    H4R - C14    - C13   
 14508  14506  14509      1    1.1005e+02    3.8802e+02 ;    H4S - C14    - C13   
 14509  14512  14513      1    1.1005e+02    3.8802e+02 ;    C13 - C12    - H2R   
 14509  14512  14514      1    1.1005e+02    3.8802e+02 ;    C13 - C12    - H2S   
 14510  14509  14511      1    1.0835e+02    3.2995e+02 ;    H3R - C13    - H3S   
 14510  14509  14512      1    1.1005e+02    3.8802e+02 ;    H3R - C13    - C12   
 14511  14509  14512      1    1.1005e+02    3.8802e+02 ;    H3S - C13    - C12   
 14513  14512  14514      1    1.0835e+02    3.2995e+02 ;    H2R - C12    - H2S   
 14515  14516  14517      1    1.0835e+02    3.2995e+02 ;   H14T - C114   - H14R  
 14515  14516  14518      1    1.0835e+02    3.2995e+02 ;   H14T - C114   - H14S  
 14515  14516  14519      1    1.1005e+02    3.8802e+02 ;   H14T - C114   - C113  
 14516  14519  14520      1    1.1005e+02    3.8802e+02 ;   C114 - C113   - H13R  
 14516  14519  14521      1    1.1005e+02    3.8802e+02 ;   C114 - C113   - H13S  
 14516  14519  14522      1    1.1205e+02    3.9497e+02 ;   C114 - C113   - C112  
 14517  14516  14518      1    1.0835e+02    3.2995e+02 ;   H14R - C114   - H14S  
 14517  14516  14519      1    1.1005e+02    3.8802e+02 ;   H14R - C114   - C113  
 14518  14516  14519      1    1.1005e+02    3.8802e+02 ;   H14S - C114   - C113  
 14519  14522  14523      1    1.1005e+02    3.8802e+02 ;   C113 - C112   - H12R  
 14519  14522  14524      1    1.1005e+02    3.8802e+02 ;   C113 - C112   - H12S  
 14519  14522  14525      1    1.1205e+02    3.9497e+02 ;   C113 - C112   - C111  
 14520  14519  14521      1    1.0835e+02    3.2995e+02 ;   H13R - C113   - H13S  
 14520  14519  14522      1    1.1005e+02    3.8802e+02 ;   H13R - C113   - C112  
 14521  14519  14522      1    1.1005e+02    3.8802e+02 ;   H13S - C113   - C112  
 14522  14525  14526      1    1.1005e+02    3.8802e+02 ;   C112 - C111   - H11R  
 14522  14525  14527      1    1.1005e+02    3.8802e+02 ;   C112 - C111   - H11S  
 14522  14525  14528      1    1.1205e+02    3.9497e+02 ;   C112 - C111   - C110  
 14523  14522  14524      1    1.0835e+02    3.2995e+02 ;   H12R - C112   - H12S  
 14523  14522  14525      1    1.1005e+02    3.8802e+02 ;   H12R - C112   - C111  
 14524  14522  14525      1    1.1005e+02    3.8802e+02 ;   H12S - C112   - C111  
 14525  14528  14529      1    1.1005e+02    3.8802e+02 ;   C111 - C110   - H10R  
 14525  14528  14530      1    1.1005e+02    3.8802e+02 ;   C111 - C110   - H10S  
 14525  14528  14531      1    1.1205e+02    3.9497e+02 ;   C111 - C110   - C19   
 14526  14525  14527      1    1.0835e+02    3.2995e+02 ;   H11R - C111   - H11S  
 14526  14525  14528      1    1.1005e+02    3.8802e+02 ;   H11R - C111   - C110  
 14527  14525  14528      1    1.1005e+02    3.8802e+02 ;   H11S - C111   - C110  
 14528  14531  14532      1    1.1005e+02    3.8802e+02 ;   C110 - C19    - H9R   
 14528  14531  14533      1    1.1005e+02    3.8802e+02 ;   C110 - C19    - H9S   
 14528  14531  14534      1    1.1205e+02    3.9497e+02 ;   C110 - C19    - C18   
 14529  14528  14530      1    1.0835e+02    3.2995e+02 ;   H10R - C110   - H10S  
 14529  14528  14531      1    1.1005e+02    3.8802e+02 ;   H10R - C110   - C19   
 14530  14528  14531      1    1.1005e+02    3.8802e+02 ;   H10S - C110   - C19   
 14531  14534  14535      1    1.1005e+02    3.8802e+02 ;    C19 - C18    - H8R   
 14531  14534  14536      1    1.1005e+02    3.8802e+02 ;    C19 - C18    - H8S   
 14531  14534  14537      1    1.1205e+02    3.9497e+02 ;    C19 - C18    - C17   
 14532  14531  14533      1    1.0835e+02    3.2995e+02 ;    H9R - C19    - H9S   
 14532  14531  14534      1    1.1005e+02    3.8802e+02 ;    H9R - C19    - C18   
 14533  14531  14534      1    1.1005e+02    3.8802e+02 ;    H9S - C19    - C18   
 14534  14537  14538      1    1.1005e+02    3.8802e+02 ;    C18 - C17    - H7R   
 14534  14537  14539      1    1.1005e+02    3.8802e+02 ;    C18 - C17    - H7S   
 14534  14537  14540      1    1.1205e+02    3.9497e+02 ;    C18 - C17    - C16   
 14535  14534  14536      1    1.0835e+02    3.2995e+02 ;    H8R - C18    - H8S   
 14535  14534  14537      1    1.1005e+02    3.8802e+02 ;    H8R - C18    - C17   
 14536  14534  14537      1    1.1005e+02    3.8802e+02 ;    H8S - C18    - C17   
 14537  14540  14541      1    1.1005e+02    3.8802e+02 ;    C17 - C16    - H6R   
 14537  14540  14542      1    1.1005e+02    3.8802e+02 ;    C17 - C16    - H6S   
 14537  14540  14543      1    1.1205e+02    3.9497e+02 ;    C17 - C16    - C15   
 14538  14537  14539      1    1.0835e+02    3.2995e+02 ;    H7R - C17    - H7S   
 14538  14537  14540      1    1.1005e+02    3.8802e+02 ;    H7R - C17    - C16   
 14539  14537  14540      1    1.1005e+02    3.8802e+02 ;    H7S - C17    - C16   
 14540  14543  14544      1    1.1005e+02    3.8802e+02 ;    C16 - C15    - H5R   
 14540  14543  14545      1    1.1005e+02    3.8802e+02 ;    C16 - C15    - H5S   
 14540  14543  14546      1    1.1205e+02    3.9497e+02 ;    C16 - C15    - C14   
 14541  14540  14542      1    1.0835e+02    3.2995e+02 ;    H6R - C16    - H6S   
 14541  14540  14543      1    1.1005e+02    3.8802e+02 ;    H6R - C16    - C15   
 14542  14540  14543      1    1.1005e+02    3.8802e+02 ;    H6S - C16    - C15   
 14543  14546  14547      1    1.1005e+02    3.8802e+02 ;    C15 - C14    - H4R   
 14543  14546  14548      1    1.1005e+02    3.8802e+02 ;    C15 - C14    - H4S   
 14543  14546  14549      1    1.1205e+02    3.9497e+02 ;    C15 - C14    - C13   
 14544  14543  14545      1    1.0835e+02    3.2995e+02 ;    H5R - C15    - H5S   
 14544  14543  14546      1    1.1005e+02    3.8802e+02 ;    H5R - C15    - C14   
 14545  14543  14546      1    1.1005e+02    3.8802e+02 ;    H5S - C15    - C14   
 14546  14549  14550      1    1.1005e+02    3.8802e+02 ;    C14 - C13    - H3R   
 14546  14549  14551      1    1.1005e+02    3.8802e+02 ;    C14 - C13    - H3S   
 14546  14549  14552      1    1.1205e+02    3.9497e+02 ;    C14 - C13    - C12   
 14547  14546  14548      1    1.0835e+02    3.2995e+02 ;    H4R - C14    - H4S   
 14547  14546  14549      1    1.1005e+02    3.8802e+02 ;    H4R - C14    - C13   
 14548  14546  14549      1    1.1005e+02    3.8802e+02 ;    H4S - C14    - C13   
 14549  14552  14553      1    1.1005e+02    3.8802e+02 ;    C13 - C12    - H2R   
 14549  14552  14554      1    1.1005e+02    3.8802e+02 ;    C13 - C12    - H2S   
 14549  14552  14555      1    1.1053e+02    5.3379e+02 ;    C13 - C12    - C11   
 14550  14549  14551      1    1.0835e+02    3.2995e+02 ;    H3R - C13    - H3S   
 14550  14549  14552      1    1.1005e+02    3.8802e+02 ;    H3R - C13    - C12   
 14551  14549  14552      1    1.1005e+02    3.8802e+02 ;    H3S - C13    - C12   
 14552  14555  14556      1    1.2311e+02    5.6928e+02 ;    C12 - C11    - O12   
 14552  14555  14557      1    1.1196e+02    5.7957e+02 ;    C12 - C11    - O11   
 14553  14552  14554      1    1.0835e+02    3.2995e+02 ;    H2R - C12    - H2S   
 14553  14552  14555      1    1.0968e+02    3.9497e+02 ;    H2R - C12    - C11   
 14554  14552  14555      1    1.0968e+02    3.9497e+02 ;    H2S - C12    - C11   
 14555  14557  14558      1    1.1514e+02    5.3246e+02 ;    C11 - O11    - C1    
 14556  14555  14557      1    1.2333e+02    6.3538e+02 ;    O12 - C11    - O11   
 14557  14558  14559      1    1.0882e+02    4.2543e+02 ;    O11 - C1     - HR    
 14557  14558  14560      1    1.0882e+02    4.2543e+02 ;    O11 - C1     - HS    
 14557  14558  14561      1    1.0842e+02    5.6718e+02 ;    O11 - C1     - C2    
 14558  14561  14562      1    1.1007e+02    3.8794e+02 ;     C1 - C2     - HX    
 14558  14561  14563      1    1.1063e+02    5.2894e+02 ;     C1 - C2     - C3    
 14558  14561  14590      1    1.0842e+02    5.6718e+02 ;     C1 - C2     - O21   
 14559  14558  14560      1    1.0955e+02    3.2786e+02 ;     HR - C1     - HS    
 14559  14558  14561      1    1.1007e+02    3.8794e+02 ;     HR - C1     - C2    
 14560  14558  14561      1    1.1007e+02    3.8794e+02 ;     HS - C1     - C2    
 14561  14563  14564      1    1.1007e+02    3.8794e+02 ;     C2 - C3     - HA    
 14561  14563  14565      1    1.1007e+02    3.8794e+02 ;     C2 - C3     - HB    
 14561  14563  14566      1    1.0842e+02    5.6718e+02 ;     C2 - C3     - O31   
 14561  14590  14591      1    1.1514e+02    5.3246e+02 ;     C2 - O21    - C21   
 14562  14561  14563      1    1.1007e+02    3.8794e+02 ;     HX - C2     - C3    
 14562  14561  14590      1    1.0882e+02    4.2543e+02 ;     HX - C2     - O21   
 14563  14561  14590      1    1.0842e+02    5.6718e+02 ;     C3 - C2     - O21   
 14563  14566  14567      1    1.2050e+02    8.3680e+02 ;     C3 - O31    - P31   
 14564  14563  14565      1    1.0955e+02    3.2786e+02 ;     HA - C3     - HB    
 14564  14563  14566      1    1.0882e+02    4.2543e+02 ;     HA - C3     - O31   
 14565  14563  14566      1    1.0882e+02    4.2543e+02 ;     HB - C3     - O31   
 14566  14567  14568      1    1.0260e+02    7.5312e+02 ;    O31 - P31    - O32   
 14566  14567  14588      1    1.0823e+02    8.3680e+02 ;    O31 - P31    - O33   
 14566  14567  14589      1    1.0823e+02    8.3680e+02 ;    O31 - P31    - O34   
 14567  14568  14569      1    1.2050e+02    8.3680e+02 ;    P31 - O32    - C31   
 14568  14567  14588      1    1.0823e+02    8.3680e+02 ;    O32 - P31    - O33   
 14568  14567  14589      1    1.0823e+02    8.3680e+02 ;    O32 - P31    - O34   
 14568  14569  14570      1    1.0882e+02    4.2543e+02 ;    O32 - C31    - H1A   
 14568  14569  14571      1    1.0882e+02    4.2543e+02 ;    O32 - C31    - H1B   
 14568  14569  14572      1    1.0842e+02    5.6718e+02 ;    O32 - C31    - C32   
 14569  14572  14573      1    1.1174e+02    3.8510e+02 ;    C31 - C32    - H2A   
 14569  14572  14574      1    1.1174e+02    3.8510e+02 ;    C31 - C32    - H2B   
 14569  14572  14575      1    1.1432e+02    5.3932e+02 ;    C31 - C32    - N31   
 14570  14569  14571      1    1.0955e+02    3.2786e+02 ;    H1A - C31    - H1B   
 14570  14569  14572      1    1.1007e+02    3.8794e+02 ;    H1A - C31    - C32   
 14571  14569  14572      1    1.1007e+02    3.8794e+02 ;    H1B - C31    - C32   
 14572  14575  14576      1    1.1064e+02    5.2585e+02 ;    C32 - N31    - C33   
 14572  14575  14580      1    1.1064e+02    5.2585e+02 ;    C32 - N31    - C34   
 14572  14575  14584      1    1.1064e+02    5.2585e+02 ;    C32 - N31    - C35   
 14573  14572  14574      1    1.1074e+02    3.2669e+02 ;    H2A - C32    - H2B   
 14573  14572  14575      1    1.0791e+02    4.1020e+02 ;    H2A - C32    - N31   
 14574  14572  14575      1    1.0791e+02    4.1020e+02 ;    H2B - C32    - N31   
 14575  14576  14577      1    1.0791e+02    4.1020e+02 ;    N31 - C33    - H3A   
 14575  14576  14578      1    1.0791e+02    4.1020e+02 ;    N31 - C33    - H3B   
 14575  14576  14579      1    1.0791e+02    4.1020e+02 ;    N31 - C33    - H3C   
 14575  14580  14581      1    1.0791e+02    4.1020e+02 ;    N31 - C34    - H4A   
 14575  14580  14582      1    1.0791e+02    4.1020e+02 ;    N31 - C34    - H4B   
 14575  14580  14583      1    1.0791e+02    4.1020e+02 ;    N31 - C34    - H4C   
 14575  14584  14585      1    1.0791e+02    4.1020e+02 ;    N31 - C35    - H5A   
 14575  14584  14586      1    1.0791e+02    4.1020e+02 ;    N31 - C35    - H5B   
 14575  14584  14587      1    1.0791e+02    4.1020e+02 ;    N31 - C35    - H5C   
 14576  14575  14580      1    1.1064e+02    5.2585e+02 ;    C33 - N31    - C34   
 14576  14575  14584      1    1.1064e+02    5.2585e+02 ;    C33 - N31    - C35   
 14577  14576  14578      1    1.1074e+02    3.2669e+02 ;    H3A - C33    - H3B   
 14577  14576  14579      1    1.1074e+02    3.2669e+02 ;    H3A - C33    - H3C   
 14578  14576  14579      1    1.1074e+02    3.2669e+02 ;    H3B - C33    - H3C   
 14580  14575  14584      1    1.1064e+02    5.2585e+02 ;    C34 - N31    - C35   
 14581  14580  14582      1    1.1074e+02    3.2669e+02 ;    H4A - C34    - H4B   
 14581  14580  14583      1    1.1074e+02    3.2669e+02 ;    H4A - C34    - H4C   
 14582  14580  14583      1    1.1074e+02    3.2669e+02 ;    H4B - C34    - H4C   
 14585  14584  14586      1    1.1074e+02    3.2669e+02 ;    H5A - C35    - H5B   
 14585  14584  14587      1    1.1074e+02    3.2669e+02 ;    H5A - C35    - H5C   
 14586  14584  14587      1    1.1074e+02    3.2669e+02 ;    H5B - C35    - H5C   
 14588  14567  14589      1    1.1990e+02    1.1715e+03 ;    O33 - P31    - O34   
 14590  14591  14592      1    1.2333e+02    6.3538e+02 ;    O21 - C21    - O22   
 14590  14591  14630      1    1.1196e+02    5.7957e+02 ;    O21 - C21    - C12   
 14591  14630  14627      1    1.1053e+02    5.3379e+02 ;    C21 - C12    - C13   
 14591  14630  14631      1    1.0968e+02    3.9497e+02 ;    C21 - C12    - H2R   
 14591  14630  14632      1    1.0968e+02    3.9497e+02 ;    C21 - C12    - H2S   
 14592  14591  14630      1    1.2311e+02    5.6928e+02 ;    O22 - C21    - C12   
 14593  14594  14595      1    1.0835e+02    3.2995e+02 ;   H14T - C114   - H14R  
 14593  14594  14596      1    1.0835e+02    3.2995e+02 ;   H14T - C114   - H14S  
 14593  14594  14597      1    1.1005e+02    3.8802e+02 ;   H14T - C114   - C113  
 14594  14597  14598      1    1.1005e+02    3.8802e+02 ;   C114 - C113   - H13R  
 14594  14597  14599      1    1.1005e+02    3.8802e+02 ;   C114 - C113   - H13S  
 14594  14597  14600      1    1.1205e+02    3.9497e+02 ;   C114 - C113   - C112  
 14595  14594  14596      1    1.0835e+02    3.2995e+02 ;   H14R - C114   - H14S  
 14595  14594  14597      1    1.1005e+02    3.8802e+02 ;   H14R - C114   - C113  
 14596  14594  14597      1    1.1005e+02    3.8802e+02 ;   H14S - C114   - C113  
 14597  14600  14601      1    1.1005e+02    3.8802e+02 ;   C113 - C112   - H12R  
 14597  14600  14602      1    1.1005e+02    3.8802e+02 ;   C113 - C112   - H12S  
 14597  14600  14603      1    1.1205e+02    3.9497e+02 ;   C113 - C112   - C111  
 14598  14597  14599      1    1.0835e+02    3.2995e+02 ;   H13R - C113   - H13S  
 14598  14597  14600      1    1.1005e+02    3.8802e+02 ;   H13R - C113   - C112  
 14599  14597  14600      1    1.1005e+02    3.8802e+02 ;   H13S - C113   - C112  
 14600  14603  14604      1    1.1005e+02    3.8802e+02 ;   C112 - C111   - H11R  
 14600  14603  14605      1    1.1005e+02    3.8802e+02 ;   C112 - C111   - H11S  
 14600  14603  14606      1    1.1205e+02    3.9497e+02 ;   C112 - C111   - C110  
 14601  14600  14602      1    1.0835e+02    3.2995e+02 ;   H12R - C112   - H12S  
 14601  14600  14603      1    1.1005e+02    3.8802e+02 ;   H12R - C112   - C111  
 14602  14600  14603      1    1.1005e+02    3.8802e+02 ;   H12S - C112   - C111  
 14603  14606  14607      1    1.1005e+02    3.8802e+02 ;   C111 - C110   - H10R  
 14603  14606  14608      1    1.1005e+02    3.8802e+02 ;   C111 - C110   - H10S  
 14603  14606  14609      1    1.1205e+02    3.9497e+02 ;   C111 - C110   - C19   
 14604  14603  14605      1    1.0835e+02    3.2995e+02 ;   H11R - C111   - H11S  
 14604  14603  14606      1    1.1005e+02    3.8802e+02 ;   H11R - C111   - C110  
 14605  14603  14606      1    1.1005e+02    3.8802e+02 ;   H11S - C111   - C110  
 14606  14609  14610      1    1.1005e+02    3.8802e+02 ;   C110 - C19    - H9R   
 14606  14609  14611      1    1.1005e+02    3.8802e+02 ;   C110 - C19    - H9S   
 14606  14609  14612      1    1.1205e+02    3.9497e+02 ;   C110 - C19    - C18   
 14607  14606  14608      1    1.0835e+02    3.2995e+02 ;   H10R - C110   - H10S  
 14607  14606  14609      1    1.1005e+02    3.8802e+02 ;   H10R - C110   - C19   
 14608  14606  14609      1    1.1005e+02    3.8802e+02 ;   H10S - C110   - C19   
 14609  14612  14613      1    1.1005e+02    3.8802e+02 ;    C19 - C18    - H8R   
 14609  14612  14614      1    1.1005e+02    3.8802e+02 ;    C19 - C18    - H8S   
 14609  14612  14615      1    1.1205e+02    3.9497e+02 ;    C19 - C18    - C17   
 14610  14609  14611      1    1.0835e+02    3.2995e+02 ;    H9R - C19    - H9S   
 14610  14609  14612      1    1.1005e+02    3.8802e+02 ;    H9R - C19    - C18   
 14611  14609  14612      1    1.1005e+02    3.8802e+02 ;    H9S - C19    - C18   
 14612  14615  14616      1    1.1005e+02    3.8802e+02 ;    C18 - C17    - H7R   
 14612  14615  14617      1    1.1005e+02    3.8802e+02 ;    C18 - C17    - H7S   
 14612  14615  14618      1    1.1205e+02    3.9497e+02 ;    C18 - C17    - C16   
 14613  14612  14614      1    1.0835e+02    3.2995e+02 ;    H8R - C18    - H8S   
 14613  14612  14615      1    1.1005e+02    3.8802e+02 ;    H8R - C18    - C17   
 14614  14612  14615      1    1.1005e+02    3.8802e+02 ;    H8S - C18    - C17   
 14615  14618  14619      1    1.1005e+02    3.8802e+02 ;    C17 - C16    - H6R   
 14615  14618  14620      1    1.1005e+02    3.8802e+02 ;    C17 - C16    - H6S   
 14615  14618  14621      1    1.1205e+02    3.9497e+02 ;    C17 - C16    - C15   
 14616  14615  14617      1    1.0835e+02    3.2995e+02 ;    H7R - C17    - H7S   
 14616  14615  14618      1    1.1005e+02    3.8802e+02 ;    H7R - C17    - C16   
 14617  14615  14618      1    1.1005e+02    3.8802e+02 ;    H7S - C17    - C16   
 14618  14621  14622      1    1.1005e+02    3.8802e+02 ;    C16 - C15    - H5R   
 14618  14621  14623      1    1.1005e+02    3.8802e+02 ;    C16 - C15    - H5S   
 14618  14621  14624      1    1.1205e+02    3.9497e+02 ;    C16 - C15    - C14   
 14619  14618  14620      1    1.0835e+02    3.2995e+02 ;    H6R - C16    - H6S   
 14619  14618  14621      1    1.1005e+02    3.8802e+02 ;    H6R - C16    - C15   
 14620  14618  14621      1    1.1005e+02    3.8802e+02 ;    H6S - C16    - C15   
 14621  14624  14625      1    1.1005e+02    3.8802e+02 ;    C15 - C14    - H4R   
 14621  14624  14626      1    1.1005e+02    3.8802e+02 ;    C15 - C14    - H4S   
 14621  14624  14627      1    1.1205e+02    3.9497e+02 ;    C15 - C14    - C13   
 14622  14621  14623      1    1.0835e+02    3.2995e+02 ;    H5R - C15    - H5S   
 14622  14621  14624      1    1.1005e+02    3.8802e+02 ;    H5R - C15    - C14   
 14623  14621  14624      1    1.1005e+02    3.8802e+02 ;    H5S - C15    - C14   
 14624  14627  14628      1    1.1005e+02    3.8802e+02 ;    C14 - C13    - H3R   
 14624  14627  14629      1    1.1005e+02    3.8802e+02 ;    C14 - C13    - H3S   
 14624  14627  14630      1    1.1205e+02    3.9497e+02 ;    C14 - C13    - C12   
 14625  14624  14626      1    1.0835e+02    3.2995e+02 ;    H4R - C14    - H4S   
 14625  14624  14627      1    1.1005e+02    3.8802e+02 ;    H4R - C14    - C13   
 14626  14624  14627      1    1.1005e+02    3.8802e+02 ;    H4S - C14    - C13   
 14627  14630  14631      1    1.1005e+02    3.8802e+02 ;    C13 - C12    - H2R   
 14627  14630  14632      1    1.1005e+02    3.8802e+02 ;    C13 - C12    - H2S   
 14628  14627  14629      1    1.0835e+02    3.2995e+02 ;    H3R - C13    - H3S   
 14628  14627  14630      1    1.1005e+02    3.8802e+02 ;    H3R - C13    - C12   
 14629  14627  14630      1    1.1005e+02    3.8802e+02 ;    H3S - C13    - C12   
 14631  14630  14632      1    1.0835e+02    3.2995e+02 ;    H2R - C12    - H2S   
 14633  14634  14635      1    1.0835e+02    3.2995e+02 ;   H14T - C114   - H14R  
 14633  14634  14636      1    1.0835e+02    3.2995e+02 ;   H14T - C114   - H14S  
 14633  14634  14637      1    1.1005e+02    3.8802e+02 ;   H14T - C114   - C113  
 14634  14637  14638      1    1.1005e+02    3.8802e+02 ;   C114 - C113   - H13R  
 14634  14637  14639      1    1.1005e+02    3.8802e+02 ;   C114 - C113   - H13S  
 14634  14637  14640      1    1.1205e+02    3.9497e+02 ;   C114 - C113   - C112  
 14635  14634  14636      1    1.0835e+02    3.2995e+02 ;   H14R - C114   - H14S  
 14635  14634  14637      1    1.1005e+02    3.8802e+02 ;   H14R - C114   - C113  
 14636  14634  14637      1    1.1005e+02    3.8802e+02 ;   H14S - C114   - C113  
 14637  14640  14641      1    1.1005e+02    3.8802e+02 ;   C113 - C112   - H12R  
 14637  14640  14642      1    1.1005e+02    3.8802e+02 ;   C113 - C112   - H12S  
 14637  14640  14643      1    1.1205e+02    3.9497e+02 ;   C113 - C112   - C111  
 14638  14637  14639      1    1.0835e+02    3.2995e+02 ;   H13R - C113   - H13S  
 14638  14637  14640      1    1.1005e+02    3.8802e+02 ;   H13R - C113   - C112  
 14639  14637  14640      1    1.1005e+02    3.8802e+02 ;   H13S - C113   - C112  
 14640  14643  14644      1    1.1005e+02    3.8802e+02 ;   C112 - C111   - H11R  
 14640  14643  14645      1    1.1005e+02    3.8802e+02 ;   C112 - C111   - H11S  
 14640  14643  14646      1    1.1205e+02    3.9497e+02 ;   C112 - C111   - C110  
 14641  14640  14642      1    1.0835e+02    3.2995e+02 ;   H12R - C112   - H12S  
 14641  14640  14643      1    1.1005e+02    3.8802e+02 ;   H12R - C112   - C111  
 14642  14640  14643      1    1.1005e+02    3.8802e+02 ;   H12S - C112   - C111  
 14643  14646  14647      1    1.1005e+02    3.8802e+02 ;   C111 - C110   - H10R  
 14643  14646  14648      1    1.1005e+02    3.8802e+02 ;   C111 - C110   - H10S  
 14643  14646  14649      1    1.1205e+02    3.9497e+02 ;   C111 - C110   - C19   
 14644  14643  14645      1    1.0835e+02    3.2995e+02 ;   H11R - C111   - H11S  
 14644  14643  14646      1    1.1005e+02    3.8802e+02 ;   H11R - C111   - C110  
 14645  14643  14646      1    1.1005e+02    3.8802e+02 ;   H11S - C111   - C110  
 14646  14649  14650      1    1.1005e+02    3.8802e+02 ;   C110 - C19    - H9R   
 14646  14649  14651      1    1.1005e+02    3.8802e+02 ;   C110 - C19    - H9S   
 14646  14649  14652      1    1.1205e+02    3.9497e+02 ;   C110 - C19    - C18   
 14647  14646  14648      1    1.0835e+02    3.2995e+02 ;   H10R - C110   - H10S  
 14647  14646  14649      1    1.1005e+02    3.8802e+02 ;   H10R - C110   - C19   
 14648  14646  14649      1    1.1005e+02    3.8802e+02 ;   H10S - C110   - C19   
 14649  14652  14653      1    1.1005e+02    3.8802e+02 ;    C19 - C18    - H8R   
 14649  14652  14654      1    1.1005e+02    3.8802e+02 ;    C19 - C18    - H8S   
 14649  14652  14655      1    1.1205e+02    3.9497e+02 ;    C19 - C18    - C17   
 14650  14649  14651      1    1.0835e+02    3.2995e+02 ;    H9R - C19    - H9S   
 14650  14649  14652      1    1.1005e+02    3.8802e+02 ;    H9R - C19    - C18   
 14651  14649  14652      1    1.1005e+02    3.8802e+02 ;    H9S - C19    - C18   
 14652  14655  14656      1    1.1005e+02    3.8802e+02 ;    C18 - C17    - H7R   
 14652  14655  14657      1    1.1005e+02    3.8802e+02 ;    C18 - C17    - H7S   
 14652  14655  14658      1    1.1205e+02    3.9497e+02 ;    C18 - C17    - C16   
 14653  14652  14654      1    1.0835e+02    3.2995e+02 ;    H8R - C18    - H8S   
 14653  14652  14655      1    1.1005e+02    3.8802e+02 ;    H8R - C18    - C17   
 14654  14652  14655      1    1.1005e+02    3.8802e+02 ;    H8S - C18    - C17   
 14655  14658  14659      1    1.1005e+02    3.8802e+02 ;    C17 - C16    - H6R   
 14655  14658  14660      1    1.1005e+02    3.8802e+02 ;    C17 - C16    - H6S   
 14655  14658  14661      1    1.1205e+02    3.9497e+02 ;    C17 - C16    - C15   
 14656  14655  14657      1    1.0835e+02    3.2995e+02 ;    H7R - C17    - H7S   
 14656  14655  14658      1    1.1005e+02    3.8802e+02 ;    H7R - C17    - C16   
 14657  14655  14658      1    1.1005e+02    3.8802e+02 ;    H7S - C17    - C16   
 14658  14661  14662      1    1.1005e+02    3.8802e+02 ;    C16 - C15    - H5R   
 14658  14661  14663      1    1.1005e+02    3.8802e+02 ;    C16 - C15    - H5S   
 14658  14661  14664      1    1.1205e+02    3.9497e+02 ;    C16 - C15    - C14   
 14659  14658  14660      1    1.0835e+02    3.2995e+02 ;    H6R - C16    - H6S   
 14659  14658  14661      1    1.1005e+02    3.8802e+02 ;    H6R - C16    - C15   
 14660  14658  14661      1    1.1005e+02    3.8802e+02 ;    H6S - C16    - C15   
 14661  14664  14665      1    1.1005e+02    3.8802e+02 ;    C15 - C14    - H4R   
 14661  14664  14666      1    1.1005e+02    3.8802e+02 ;    C15 - C14    - H4S   
 14661  14664  14667      1    1.1205e+02    3.9497e+02 ;    C15 - C14    - C13   
 14662  14661  14663      1    1.0835e+02    3.2995e+02 ;    H5R - C15    - H5S   
 14662  14661  14664      1    1.1005e+02    3.8802e+02 ;    H5R - C15    - C14   
 14663  14661  14664      1    1.1005e+02    3.8802e+02 ;    H5S - C15    - C14   
 14664  14667  14668      1    1.1005e+02    3.8802e+02 ;    C14 - C13    - H3R   
 14664  14667  14669      1    1.1005e+02    3.8802e+02 ;    C14 - C13    - H3S   
 14664  14667  14670      1    1.1205e+02    3.9497e+02 ;    C14 - C13    - C12   
 14665  14664  14666      1    1.0835e+02    3.2995e+02 ;    H4R - C14    - H4S   
 14665  14664  14667      1    1.1005e+02    3.8802e+02 ;    H4R - C14    - C13   
 14666  14664  14667      1    1.1005e+02    3.8802e+02 ;    H4S - C14    - C13   
 14667  14670  14671      1    1.1005e+02    3.8802e+02 ;    C13 - C12    - H2R   
 14667  14670  14672      1    1.1005e+02    3.8802e+02 ;    C13 - C12    - H2S   
 14667  14670  14673      1    1.1053e+02    5.3379e+02 ;    C13 - C12    - C11   
 14668  14667  14669      1    1.0835e+02    3.2995e+02 ;    H3R - C13    - H3S   
 14668  14667  14670      1    1.1005e+02    3.8802e+02 ;    H3R - C13    - C12   
 14669  14667  14670      1    1.1005e+02    3.8802e+02 ;    H3S - C13    - C12   
 14670  14673  14674      1    1.2311e+02    5.6928e+02 ;    C12 - C11    - O12   
 14670  14673  14675      1    1.1196e+02    5.7957e+02 ;    C12 - C11    - O11   
 14671  14670  14672      1    1.0835e+02    3.2995e+02 ;    H2R - C12    - H2S   
 14671  14670  14673      1    1.0968e+02    3.9497e+02 ;    H2R - C12    - C11   
 14672  14670  14673      1    1.0968e+02    3.9497e+02 ;    H2S - C12    - C11   
 14673  14675  14676      1    1.1514e+02    5.3246e+02 ;    C11 - O11    - C1    
 14674  14673  14675      1    1.2333e+02    6.3538e+02 ;    O12 - C11    - O11   
 14675  14676  14677      1    1.0882e+02    4.2543e+02 ;    O11 - C1     - HR    
 14675  14676  14678      1    1.0882e+02    4.2543e+02 ;    O11 - C1     - HS    
 14675  14676  14679      1    1.0842e+02    5.6718e+02 ;    O11 - C1     - C2    
 14676  14679  14680      1    1.1007e+02    3.8794e+02 ;     C1 - C2     - HX    
 14676  14679  14681      1    1.1063e+02    5.2894e+02 ;     C1 - C2     - C3    
 14676  14679  14708      1    1.0842e+02    5.6718e+02 ;     C1 - C2     - O21   
 14677  14676  14678      1    1.0955e+02    3.2786e+02 ;     HR - C1     - HS    
 14677  14676  14679      1    1.1007e+02    3.8794e+02 ;     HR - C1     - C2    
 14678  14676  14679      1    1.1007e+02    3.8794e+02 ;     HS - C1     - C2    
 14679  14681  14682      1    1.1007e+02    3.8794e+02 ;     C2 - C3     - HA    
 14679  14681  14683      1    1.1007e+02    3.8794e+02 ;     C2 - C3     - HB    
 14679  14681  14684      1    1.0842e+02    5.6718e+02 ;     C2 - C3     - O31   
 14679  14708  14709      1    1.1514e+02    5.3246e+02 ;     C2 - O21    - C21   
 14680  14679  14681      1    1.1007e+02    3.8794e+02 ;     HX - C2     - C3    
 14680  14679  14708      1    1.0882e+02    4.2543e+02 ;     HX - C2     - O21   
 14681  14679  14708      1    1.0842e+02    5.6718e+02 ;     C3 - C2     - O21   
 14681  14684  14685      1    1.2050e+02    8.3680e+02 ;     C3 - O31    - P31   
 14682  14681  14683      1    1.0955e+02    3.2786e+02 ;     HA - C3     - HB    
 14682  14681  14684      1    1.0882e+02    4.2543e+02 ;     HA - C3     - O31   
 14683  14681  14684      1    1.0882e+02    4.2543e+02 ;     HB - C3     - O31   
 14684  14685  14686      1    1.0260e+02    7.5312e+02 ;    O31 - P31    - O32   
 14684  14685  14706      1    1.0823e+02    8.3680e+02 ;    O31 - P31    - O33   
 14684  14685  14707      1    1.0823e+02    8.3680e+02 ;    O31 - P31    - O34   
 14685  14686  14687      1    1.2050e+02    8.3680e+02 ;    P31 - O32    - C31   
 14686  14685  14706      1    1.0823e+02    8.3680e+02 ;    O32 - P31    - O33   
 14686  14685  14707      1    1.0823e+02    8.3680e+02 ;    O32 - P31    - O34   
 14686  14687  14688      1    1.0882e+02    4.2543e+02 ;    O32 - C31    - H1A   
 14686  14687  14689      1    1.0882e+02    4.2543e+02 ;    O32 - C31    - H1B   
 14686  14687  14690      1    1.0842e+02    5.6718e+02 ;    O32 - C31    - C32   
 14687  14690  14691      1    1.1174e+02    3.8510e+02 ;    C31 - C32    - H2A   
 14687  14690  14692      1    1.1174e+02    3.8510e+02 ;    C31 - C32    - H2B   
 14687  14690  14693      1    1.1432e+02    5.3932e+02 ;    C31 - C32    - N31   
 14688  14687  14689      1    1.0955e+02    3.2786e+02 ;    H1A - C31    - H1B   
 14688  14687  14690      1    1.1007e+02    3.8794e+02 ;    H1A - C31    - C32   
 14689  14687  14690      1    1.1007e+02    3.8794e+02 ;    H1B - C31    - C32   
 14690  14693  14694      1    1.1064e+02    5.2585e+02 ;    C32 - N31    - C33   
 14690  14693  14698      1    1.1064e+02    5.2585e+02 ;    C32 - N31    - C34   
 14690  14693  14702      1    1.1064e+02    5.2585e+02 ;    C32 - N31    - C35   
 14691  14690  14692      1    1.1074e+02    3.2669e+02 ;    H2A - C32    - H2B   
 14691  14690  14693      1    1.0791e+02    4.1020e+02 ;    H2A - C32    - N31   
 14692  14690  14693      1    1.0791e+02    4.1020e+02 ;    H2B - C32    - N31   
 14693  14694  14695      1    1.0791e+02    4.1020e+02 ;    N31 - C33    - H3A   
 14693  14694  14696      1    1.0791e+02    4.1020e+02 ;    N31 - C33    - H3B   
 14693  14694  14697      1    1.0791e+02    4.1020e+02 ;    N31 - C33    - H3C   
 14693  14698  14699      1    1.0791e+02    4.1020e+02 ;    N31 - C34    - H4A   
 14693  14698  14700      1    1.0791e+02    4.1020e+02 ;    N31 - C34    - H4B   
 14693  14698  14701      1    1.0791e+02    4.1020e+02 ;    N31 - C34    - H4C   
 14693  14702  14703      1    1.0791e+02    4.1020e+02 ;    N31 - C35    - H5A   
 14693  14702  14704      1    1.0791e+02    4.1020e+02 ;    N31 - C35    - H5B   
 14693  14702  14705      1    1.0791e+02    4.1020e+02 ;    N31 - C35    - H5C   
 14694  14693  14698      1    1.1064e+02    5.2585e+02 ;    C33 - N31    - C34   
 14694  14693  14702      1    1.1064e+02    5.2585e+02 ;    C33 - N31    - C35   
 14695  14694  14696      1    1.1074e+02    3.2669e+02 ;    H3A - C33    - H3B   
 14695  14694  14697      1    1.1074e+02    3.2669e+02 ;    H3A - C33    - H3C   
 14696  14694  14697      1    1.1074e+02    3.2669e+02 ;    H3B - C33    - H3C   
 14698  14693  14702      1    1.1064e+02    5.2585e+02 ;    C34 - N31    - C35   
 14699  14698  14700      1    1.1074e+02    3.2669e+02 ;    H4A - C34    - H4B   
 14699  14698  14701      1    1.1074e+02    3.2669e+02 ;    H4A - C34    - H4C   
 14700  14698  14701      1    1.1074e+02    3.2669e+02 ;    H4B - C34    - H4C   
 14703  14702  14704      1    1.1074e+02    3.2669e+02 ;    H5A - C35    - H5B   
 14703  14702  14705      1    1.1074e+02    3.2669e+02 ;    H5A - C35    - H5C   
 14704  14702  14705      1    1.1074e+02    3.2669e+02 ;    H5B - C35    - H5C   
 14706  14685  14707      1    1.1990e+02    1.1715e+03 ;    O33 - P31    - O34   
 14708  14709  14710      1    1.2333e+02    6.3538e+02 ;    O21 - C21    - O22   
 14708  14709  14748      1    1.1196e+02    5.7957e+02 ;    O21 - C21    - C12   
 14709  14748  14745      1    1.1053e+02    5.3379e+02 ;    C21 - C12    - C13   
 14709  14748  14749      1    1.0968e+02    3.9497e+02 ;    C21 - C12    - H2R   
 14709  14748  14750      1    1.0968e+02    3.9497e+02 ;    C21 - C12    - H2S   
 14710  14709  14748      1    1.2311e+02    5.6928e+02 ;    O22 - C21    - C12   
 14711  14712  14713      1    1.0835e+02    3.2995e+02 ;   H14T - C114   - H14R  
 14711  14712  14714      1    1.0835e+02    3.2995e+02 ;   H14T - C114   - H14S  
 14711  14712  14715      1    1.1005e+02    3.8802e+02 ;   H14T - C114   - C113  
 14712  14715  14716      1    1.1005e+02    3.8802e+02 ;   C114 - C113   - H13R  
 14712  14715  14717      1    1.1005e+02    3.8802e+02 ;   C114 - C113   - H13S  
 14712  14715  14718      1    1.1205e+02    3.9497e+02 ;   C114 - C113   - C112  
 14713  14712  14714      1    1.0835e+02    3.2995e+02 ;   H14R - C114   - H14S  
 14713  14712  14715      1    1.1005e+02    3.8802e+02 ;   H14R - C114   - C113  
 14714  14712  14715      1    1.1005e+02    3.8802e+02 ;   H14S - C114   - C113  
 14715  14718  14719      1    1.1005e+02    3.8802e+02 ;   C113 - C112   - H12R  
 14715  14718  14720      1    1.1005e+02    3.8802e+02 ;   C113 - C112   - H12S  
 14715  14718  14721      1    1.1205e+02    3.9497e+02 ;   C113 - C112   - C111  
 14716  14715  14717      1    1.0835e+02    3.2995e+02 ;   H13R - C113   - H13S  
 14716  14715  14718      1    1.1005e+02    3.8802e+02 ;   H13R - C113   - C112  
 14717  14715  14718      1    1.1005e+02    3.8802e+02 ;   H13S - C113   - C112  
 14718  14721  14722      1    1.1005e+02    3.8802e+02 ;   C112 - C111   - H11R  
 14718  14721  14723      1    1.1005e+02    3.8802e+02 ;   C112 - C111   - H11S  
 14718  14721  14724      1    1.1205e+02    3.9497e+02 ;   C112 - C111   - C110  
 14719  14718  14720      1    1.0835e+02    3.2995e+02 ;   H12R - C112   - H12S  
 14719  14718  14721      1    1.1005e+02    3.8802e+02 ;   H12R - C112   - C111  
 14720  14718  14721      1    1.1005e+02    3.8802e+02 ;   H12S - C112   - C111  
 14721  14724  14725      1    1.1005e+02    3.8802e+02 ;   C111 - C110   - H10R  
 14721  14724  14726      1    1.1005e+02    3.8802e+02 ;   C111 - C110   - H10S  
 14721  14724  14727      1    1.1205e+02    3.9497e+02 ;   C111 - C110   - C19   
 14722  14721  14723      1    1.0835e+02    3.2995e+02 ;   H11R - C111   - H11S  
 14722  14721  14724      1    1.1005e+02    3.8802e+02 ;   H11R - C111   - C110  
 14723  14721  14724      1    1.1005e+02    3.8802e+02 ;   H11S - C111   - C110  
 14724  14727  14728      1    1.1005e+02    3.8802e+02 ;   C110 - C19    - H9R   
 14724  14727  14729      1    1.1005e+02    3.8802e+02 ;   C110 - C19    - H9S   
 14724  14727  14730      1    1.1205e+02    3.9497e+02 ;   C110 - C19    - C18   
 14725  14724  14726      1    1.0835e+02    3.2995e+02 ;   H10R - C110   - H10S  
 14725  14724  14727      1    1.1005e+02    3.8802e+02 ;   H10R - C110   - C19   
 14726  14724  14727      1    1.1005e+02    3.8802e+02 ;   H10S - C110   - C19   
 14727  14730  14731      1    1.1005e+02    3.8802e+02 ;    C19 - C18    - H8R   
 14727  14730  14732      1    1.1005e+02    3.8802e+02 ;    C19 - C18    - H8S   
 14727  14730  14733      1    1.1205e+02    3.9497e+02 ;    C19 - C18    - C17   
 14728  14727  14729      1    1.0835e+02    3.2995e+02 ;    H9R - C19    - H9S   
 14728  14727  14730      1    1.1005e+02    3.8802e+02 ;    H9R - C19    - C18   
 14729  14727  14730      1    1.1005e+02    3.8802e+02 ;    H9S - C19    - C18   
 14730  14733  14734      1    1.1005e+02    3.8802e+02 ;    C18 - C17    - H7R   
 14730  14733  14735      1    1.1005e+02    3.8802e+02 ;    C18 - C17    - H7S   
 14730  14733  14736      1    1.1205e+02    3.9497e+02 ;    C18 - C17    - C16   
 14731  14730  14732      1    1.0835e+02    3.2995e+02 ;    H8R - C18    - H8S   
 14731  14730  14733      1    1.1005e+02    3.8802e+02 ;    H8R - C18    - C17   
 14732  14730  14733      1    1.1005e+02    3.8802e+02 ;    H8S - C18    - C17   
 14733  14736  14737      1    1.1005e+02    3.8802e+02 ;    C17 - C16    - H6R   
 14733  14736  14738      1    1.1005e+02    3.8802e+02 ;    C17 - C16    - H6S   
 14733  14736  14739      1    1.1205e+02    3.9497e+02 ;    C17 - C16    - C15   
 14734  14733  14735      1    1.0835e+02    3.2995e+02 ;    H7R - C17    - H7S   
 14734  14733  14736      1    1.1005e+02    3.8802e+02 ;    H7R - C17    - C16   
 14735  14733  14736      1    1.1005e+02    3.8802e+02 ;    H7S - C17    - C16   
 14736  14739  14740      1    1.1005e+02    3.8802e+02 ;    C16 - C15    - H5R   
 14736  14739  14741      1    1.1005e+02    3.8802e+02 ;    C16 - C15    - H5S   
 14736  14739  14742      1    1.1205e+02    3.9497e+02 ;    C16 - C15    - C14   
 14737  14736  14738      1    1.0835e+02    3.2995e+02 ;    H6R - C16    - H6S   
 14737  14736  14739      1    1.1005e+02    3.8802e+02 ;    H6R - C16    - C15   
 14738  14736  14739      1    1.1005e+02    3.8802e+02 ;    H6S - C16    - C15   
 14739  14742  14743      1    1.1005e+02    3.8802e+02 ;    C15 - C14    - H4R   
 14739  14742  14744      1    1.1005e+02    3.8802e+02 ;    C15 - C14    - H4S   
 14739  14742  14745      1    1.1205e+02    3.9497e+02 ;    C15 - C14    - C13   
 14740  14739  14741      1    1.0835e+02    3.2995e+02 ;    H5R - C15    - H5S   
 14740  14739  14742      1    1.1005e+02    3.8802e+02 ;    H5R - C15    - C14   
 14741  14739  14742      1    1.1005e+02    3.8802e+02 ;    H5S - C15    - C14   
 14742  14745  14746      1    1.1005e+02    3.8802e+02 ;    C14 - C13    - H3R   
 14742  14745  14747      1    1.1005e+02    3.8802e+02 ;    C14 - C13    - H3S   
 14742  14745  14748      1    1.1205e+02    3.9497e+02 ;    C14 - C13    - C12   
 14743  14742  14744      1    1.0835e+02    3.2995e+02 ;    H4R - C14    - H4S   
 14743  14742  14745      1    1.1005e+02    3.8802e+02 ;    H4R - C14    - C13   
 14744  14742  14745      1    1.1005e+02    3.8802e+02 ;    H4S - C14    - C13   
 14745  14748  14749      1    1.1005e+02    3.8802e+02 ;    C13 - C12    - H2R   
 14745  14748  14750      1    1.1005e+02    3.8802e+02 ;    C13 - C12    - H2S   
 14746  14745  14747      1    1.0835e+02    3.2995e+02 ;    H3R - C13    - H3S   
 14746  14745  14748      1    1.1005e+02    3.8802e+02 ;    H3R - C13    - C12   
 14747  14745  14748      1    1.1005e+02    3.8802e+02 ;    H3S - C13    - C12   
 14749  14748  14750      1    1.0835e+02    3.2995e+02 ;    H2R - C12    - H2S   
 14751  14752  14753      1    1.0835e+02    3.2995e+02 ;   H14T - C114   - H14R  
 14751  14752  14754      1    1.0835e+02    3.2995e+02 ;   H14T - C114   - H14S  
 14751  14752  14755      1    1.1005e+02    3.8802e+02 ;   H14T - C114   - C113  
 14752  14755  14756      1    1.1005e+02    3.8802e+02 ;   C114 - C113   - H13R  
 14752  14755  14757      1    1.1005e+02    3.8802e+02 ;   C114 - C113   - H13S  
 14752  14755  14758      1    1.1205e+02    3.9497e+02 ;   C114 - C113   - C112  
 14753  14752  14754      1    1.0835e+02    3.2995e+02 ;   H14R - C114   - H14S  
 14753  14752  14755      1    1.1005e+02    3.8802e+02 ;   H14R - C114   - C113  
 14754  14752  14755      1    1.1005e+02    3.8802e+02 ;   H14S - C114   - C113  
 14755  14758  14759      1    1.1005e+02    3.8802e+02 ;   C113 - C112   - H12R  
 14755  14758  14760      1    1.1005e+02    3.8802e+02 ;   C113 - C112   - H12S  
 14755  14758  14761      1    1.1205e+02    3.9497e+02 ;   C113 - C112   - C111  
 14756  14755  14757      1    1.0835e+02    3.2995e+02 ;   H13R - C113   - H13S  
 14756  14755  14758      1    1.1005e+02    3.8802e+02 ;   H13R - C113   - C112  
 14757  14755  14758      1    1.1005e+02    3.8802e+02 ;   H13S - C113   - C112  
 14758  14761  14762      1    1.1005e+02    3.8802e+02 ;   C112 - C111   - H11R  
 14758  14761  14763      1    1.1005e+02    3.8802e+02 ;   C112 - C111   - H11S  
 14758  14761  14764      1    1.1205e+02    3.9497e+02 ;   C112 - C111   - C110  
 14759  14758  14760      1    1.0835e+02    3.2995e+02 ;   H12R - C112   - H12S  
 14759  14758  14761      1    1.1005e+02    3.8802e+02 ;   H12R - C112   - C111  
 14760  14758  14761      1    1.1005e+02    3.8802e+02 ;   H12S - C112   - C111  
 14761  14764  14765      1    1.1005e+02    3.8802e+02 ;   C111 - C110   - H10R  
 14761  14764  14766      1    1.1005e+02    3.8802e+02 ;   C111 - C110   - H10S  
 14761  14764  14767      1    1.1205e+02    3.9497e+02 ;   C111 - C110   - C19   
 14762  14761  14763      1    1.0835e+02    3.2995e+02 ;   H11R - C111   - H11S  
 14762  14761  14764      1    1.1005e+02    3.8802e+02 ;   H11R - C111   - C110  
 14763  14761  14764      1    1.1005e+02    3.8802e+02 ;   H11S - C111   - C110  
 14764  14767  14768      1    1.1005e+02    3.8802e+02 ;   C110 - C19    - H9R   
 14764  14767  14769      1    1.1005e+02    3.8802e+02 ;   C110 - C19    - H9S   
 14764  14767  14770      1    1.1205e+02    3.9497e+02 ;   C110 - C19    - C18   
 14765  14764  14766      1    1.0835e+02    3.2995e+02 ;   H10R - C110   - H10S  
 14765  14764  14767      1    1.1005e+02    3.8802e+02 ;   H10R - C110   - C19   
 14766  14764  14767      1    1.1005e+02    3.8802e+02 ;   H10S - C110   - C19   
 14767  14770  14771      1    1.1005e+02    3.8802e+02 ;    C19 - C18    - H8R   
 14767  14770  14772      1    1.1005e+02    3.8802e+02 ;    C19 - C18    - H8S   
 14767  14770  14773      1    1.1205e+02    3.9497e+02 ;    C19 - C18    - C17   
 14768  14767  14769      1    1.0835e+02    3.2995e+02 ;    H9R - C19    - H9S   
 14768  14767  14770      1    1.1005e+02    3.8802e+02 ;    H9R - C19    - C18   
 14769  14767  14770      1    1.1005e+02    3.8802e+02 ;    H9S - C19    - C18   
 14770  14773  14774      1    1.1005e+02    3.8802e+02 ;    C18 - C17    - H7R   
 14770  14773  14775      1    1.1005e+02    3.8802e+02 ;    C18 - C17    - H7S   
 14770  14773  14776      1    1.1205e+02    3.9497e+02 ;    C18 - C17    - C16   
 14771  14770  14772      1    1.0835e+02    3.2995e+02 ;    H8R - C18    - H8S   
 14771  14770  14773      1    1.1005e+02    3.8802e+02 ;    H8R - C18    - C17   
 14772  14770  14773      1    1.1005e+02    3.8802e+02 ;    H8S - C18    - C17   
 14773  14776  14777      1    1.1005e+02    3.8802e+02 ;    C17 - C16    - H6R   
 14773  14776  14778      1    1.1005e+02    3.8802e+02 ;    C17 - C16    - H6S   
 14773  14776  14779      1    1.1205e+02    3.9497e+02 ;    C17 - C16    - C15   
 14774  14773  14775      1    1.0835e+02    3.2995e+02 ;    H7R - C17    - H7S   
 14774  14773  14776      1    1.1005e+02    3.8802e+02 ;    H7R - C17    - C16   
 14775  14773  14776      1    1.1005e+02    3.8802e+02 ;    H7S - C17    - C16   
 14776  14779  14780      1    1.1005e+02    3.8802e+02 ;    C16 - C15    - H5R   
 14776  14779  14781      1    1.1005e+02    3.8802e+02 ;    C16 - C15    - H5S   
 14776  14779  14782      1    1.1205e+02    3.9497e+02 ;    C16 - C15    - C14   
 14777  14776  14778      1    1.0835e+02    3.2995e+02 ;    H6R - C16    - H6S   
 14777  14776  14779      1    1.1005e+02    3.8802e+02 ;    H6R - C16    - C15   
 14778  14776  14779      1    1.1005e+02    3.8802e+02 ;    H6S - C16    - C15   
 14779  14782  14783      1    1.1005e+02    3.8802e+02 ;    C15 - C14    - H4R   
 14779  14782  14784      1    1.1005e+02    3.8802e+02 ;    C15 - C14    - H4S   
 14779  14782  14785      1    1.1205e+02    3.9497e+02 ;    C15 - C14    - C13   
 14780  14779  14781      1    1.0835e+02    3.2995e+02 ;    H5R - C15    - H5S   
 14780  14779  14782      1    1.1005e+02    3.8802e+02 ;    H5R - C15    - C14   
 14781  14779  14782      1    1.1005e+02    3.8802e+02 ;    H5S - C15    - C14   
 14782  14785  14786      1    1.1005e+02    3.8802e+02 ;    C14 - C13    - H3R   
 14782  14785  14787      1    1.1005e+02    3.8802e+02 ;    C14 - C13    - H3S   
 14782  14785  14788      1    1.1205e+02    3.9497e+02 ;    C14 - C13    - C12   
 14783  14782  14784      1    1.0835e+02    3.2995e+02 ;    H4R - C14    - H4S   
 14783  14782  14785      1    1.1005e+02    3.8802e+02 ;    H4R - C14    - C13   
 14784  14782  14785      1    1.1005e+02    3.8802e+02 ;    H4S - C14    - C13   
 14785  14788  14789      1    1.1005e+02    3.8802e+02 ;    C13 - C12    - H2R   
 14785  14788  14790      1    1.1005e+02    3.8802e+02 ;    C13 - C12    - H2S   
 14785  14788  14791      1    1.1053e+02    5.3379e+02 ;    C13 - C12    - C11   
 14786  14785  14787      1    1.0835e+02    3.2995e+02 ;    H3R - C13    - H3S   
 14786  14785  14788      1    1.1005e+02    3.8802e+02 ;    H3R - C13    - C12   
 14787  14785  14788      1    1.1005e+02    3.8802e+02 ;    H3S - C13    - C12   
 14788  14791  14792      1    1.2311e+02    5.6928e+02 ;    C12 - C11    - O12   
 14788  14791  14793      1    1.1196e+02    5.7957e+02 ;    C12 - C11    - O11   
 14789  14788  14790      1    1.0835e+02    3.2995e+02 ;    H2R - C12    - H2S   
 14789  14788  14791      1    1.0968e+02    3.9497e+02 ;    H2R - C12    - C11   
 14790  14788  14791      1    1.0968e+02    3.9497e+02 ;    H2S - C12    - C11   
 14791  14793  14794      1    1.1514e+02    5.3246e+02 ;    C11 - O11    - C1    
 14792  14791  14793      1    1.2333e+02    6.3538e+02 ;    O12 - C11    - O11   
 14793  14794  14795      1    1.0882e+02    4.2543e+02 ;    O11 - C1     - HR    
 14793  14794  14796      1    1.0882e+02    4.2543e+02 ;    O11 - C1     - HS    
 14793  14794  14797      1    1.0842e+02    5.6718e+02 ;    O11 - C1     - C2    
 14794  14797  14798      1    1.1007e+02    3.8794e+02 ;     C1 - C2     - HX    
 14794  14797  14799      1    1.1063e+02    5.2894e+02 ;     C1 - C2     - C3    
 14794  14797  14826      1    1.0842e+02    5.6718e+02 ;     C1 - C2     - O21   
 14795  14794  14796      1    1.0955e+02    3.2786e+02 ;     HR - C1     - HS    
 14795  14794  14797      1    1.1007e+02    3.8794e+02 ;     HR - C1     - C2    
 14796  14794  14797      1    1.1007e+02    3.8794e+02 ;     HS - C1     - C2    
 14797  14799  14800      1    1.1007e+02    3.8794e+02 ;     C2 - C3     - HA    
 14797  14799  14801      1    1.1007e+02    3.8794e+02 ;     C2 - C3     - HB    
 14797  14799  14802      1    1.0842e+02    5.6718e+02 ;     C2 - C3     - O31   
 14797  14826  14827      1    1.1514e+02    5.3246e+02 ;     C2 - O21    - C21   
 14798  14797  14799      1    1.1007e+02    3.8794e+02 ;     HX - C2     - C3    
 14798  14797  14826      1    1.0882e+02    4.2543e+02 ;     HX - C2     - O21   
 14799  14797  14826      1    1.0842e+02    5.6718e+02 ;     C3 - C2     - O21   
 14799  14802  14803      1    1.2050e+02    8.3680e+02 ;     C3 - O31    - P31   
 14800  14799  14801      1    1.0955e+02    3.2786e+02 ;     HA - C3     - HB    
 14800  14799  14802      1    1.0882e+02    4.2543e+02 ;     HA - C3     - O31   
 14801  14799  14802      1    1.0882e+02    4.2543e+02 ;     HB - C3     - O31   
 14802  14803  14804      1    1.0260e+02    7.5312e+02 ;    O31 - P31    - O32   
 14802  14803  14824      1    1.0823e+02    8.3680e+02 ;    O31 - P31    - O33   
 14802  14803  14825      1    1.0823e+02    8.3680e+02 ;    O31 - P31    - O34   
 14803  14804  14805      1    1.2050e+02    8.3680e+02 ;    P31 - O32    - C31   
 14804  14803  14824      1    1.0823e+02    8.3680e+02 ;    O32 - P31    - O33   
 14804  14803  14825      1    1.0823e+02    8.3680e+02 ;    O32 - P31    - O34   
 14804  14805  14806      1    1.0882e+02    4.2543e+02 ;    O32 - C31    - H1A   
 14804  14805  14807      1    1.0882e+02    4.2543e+02 ;    O32 - C31    - H1B   
 14804  14805  14808      1    1.0842e+02    5.6718e+02 ;    O32 - C31    - C32   
 14805  14808  14809      1    1.1174e+02    3.8510e+02 ;    C31 - C32    - H2A   
 14805  14808  14810      1    1.1174e+02    3.8510e+02 ;    C31 - C32    - H2B   
 14805  14808  14811      1    1.1432e+02    5.3932e+02 ;    C31 - C32    - N31   
 14806  14805  14807      1    1.0955e+02    3.2786e+02 ;    H1A - C31    - H1B   
 14806  14805  14808      1    1.1007e+02    3.8794e+02 ;    H1A - C31    - C32   
 14807  14805  14808      1    1.1007e+02    3.8794e+02 ;    H1B - C31    - C32   
 14808  14811  14812      1    1.1064e+02    5.2585e+02 ;    C32 - N31    - C33   
 14808  14811  14816      1    1.1064e+02    5.2585e+02 ;    C32 - N31    - C34   
 14808  14811  14820      1    1.1064e+02    5.2585e+02 ;    C32 - N31    - C35   
 14809  14808  14810      1    1.1074e+02    3.2669e+02 ;    H2A - C32    - H2B   
 14809  14808  14811      1    1.0791e+02    4.1020e+02 ;    H2A - C32    - N31   
 14810  14808  14811      1    1.0791e+02    4.1020e+02 ;    H2B - C32    - N31   
 14811  14812  14813      1    1.0791e+02    4.1020e+02 ;    N31 - C33    - H3A   
 14811  14812  14814      1    1.0791e+02    4.1020e+02 ;    N31 - C33    - H3B   
 14811  14812  14815      1    1.0791e+02    4.1020e+02 ;    N31 - C33    - H3C   
 14811  14816  14817      1    1.0791e+02    4.1020e+02 ;    N31 - C34    - H4A   
 14811  14816  14818      1    1.0791e+02    4.1020e+02 ;    N31 - C34    - H4B   
 14811  14816  14819      1    1.0791e+02    4.1020e+02 ;    N31 - C34    - H4C   
 14811  14820  14821      1    1.0791e+02    4.1020e+02 ;    N31 - C35    - H5A   
 14811  14820  14822      1    1.0791e+02    4.1020e+02 ;    N31 - C35    - H5B   
 14811  14820  14823      1    1.0791e+02    4.1020e+02 ;    N31 - C35    - H5C   
 14812  14811  14816      1    1.1064e+02    5.2585e+02 ;    C33 - N31    - C34   
 14812  14811  14820      1    1.1064e+02    5.2585e+02 ;    C33 - N31    - C35   
 14813  14812  14814      1    1.1074e+02    3.2669e+02 ;    H3A - C33    - H3B   
 14813  14812  14815      1    1.1074e+02    3.2669e+02 ;    H3A - C33    - H3C   
 14814  14812  14815      1    1.1074e+02    3.2669e+02 ;    H3B - C33    - H3C   
 14816  14811  14820      1    1.1064e+02    5.2585e+02 ;    C34 - N31    - C35   
 14817  14816  14818      1    1.1074e+02    3.2669e+02 ;    H4A - C34    - H4B   
 14817  14816  14819      1    1.1074e+02    3.2669e+02 ;    H4A - C34    - H4C   
 14818  14816  14819      1    1.1074e+02    3.2669e+02 ;    H4B - C34    - H4C   
 14821  14820  14822      1    1.1074e+02    3.2669e+02 ;    H5A - C35    - H5B   
 14821  14820  14823      1    1.1074e+02    3.2669e+02 ;    H5A - C35    - H5C   
 14822  14820  14823      1    1.1074e+02    3.2669e+02 ;    H5B - C35    - H5C   
 14824  14803  14825      1    1.1990e+02    1.1715e+03 ;    O33 - P31    - O34   
 14826  14827  14828      1    1.2333e+02    6.3538e+02 ;    O21 - C21    - O22   
 14826  14827  14866      1    1.1196e+02    5.7957e+02 ;    O21 - C21    - C12   
 14827  14866  14863      1    1.1053e+02    5.3379e+02 ;    C21 - C12    - C13   
 14827  14866  14867      1    1.0968e+02    3.9497e+02 ;    C21 - C12    - H2R   
 14827  14866  14868      1    1.0968e+02    3.9497e+02 ;    C21 - C12    - H2S   
 14828  14827  14866      1    1.2311e+02    5.6928e+02 ;    O22 - C21    - C12   
 14829  14830  14831      1    1.0835e+02    3.2995e+02 ;   H14T - C114   - H14R  
 14829  14830  14832      1    1.0835e+02    3.2995e+02 ;   H14T - C114   - H14S  
 14829  14830  14833      1    1.1005e+02    3.8802e+02 ;   H14T - C114   - C113  
 14830  14833  14834      1    1.1005e+02    3.8802e+02 ;   C114 - C113   - H13R  
 14830  14833  14835      1    1.1005e+02    3.8802e+02 ;   C114 - C113   - H13S  
 14830  14833  14836      1    1.1205e+02    3.9497e+02 ;   C114 - C113   - C112  
 14831  14830  14832      1    1.0835e+02    3.2995e+02 ;   H14R - C114   - H14S  
 14831  14830  14833      1    1.1005e+02    3.8802e+02 ;   H14R - C114   - C113  
 14832  14830  14833      1    1.1005e+02    3.8802e+02 ;   H14S - C114   - C113  
 14833  14836  14837      1    1.1005e+02    3.8802e+02 ;   C113 - C112   - H12R  
 14833  14836  14838      1    1.1005e+02    3.8802e+02 ;   C113 - C112   - H12S  
 14833  14836  14839      1    1.1205e+02    3.9497e+02 ;   C113 - C112   - C111  
 14834  14833  14835      1    1.0835e+02    3.2995e+02 ;   H13R - C113   - H13S  
 14834  14833  14836      1    1.1005e+02    3.8802e+02 ;   H13R - C113   - C112  
 14835  14833  14836      1    1.1005e+02    3.8802e+02 ;   H13S - C113   - C112  
 14836  14839  14840      1    1.1005e+02    3.8802e+02 ;   C112 - C111   - H11R  
 14836  14839  14841      1    1.1005e+02    3.8802e+02 ;   C112 - C111   - H11S  
 14836  14839  14842      1    1.1205e+02    3.9497e+02 ;   C112 - C111   - C110  
 14837  14836  14838      1    1.0835e+02    3.2995e+02 ;   H12R - C112   - H12S  
 14837  14836  14839      1    1.1005e+02    3.8802e+02 ;   H12R - C112   - C111  
 14838  14836  14839      1    1.1005e+02    3.8802e+02 ;   H12S - C112   - C111  
 14839  14842  14843      1    1.1005e+02    3.8802e+02 ;   C111 - C110   - H10R  
 14839  14842  14844      1    1.1005e+02    3.8802e+02 ;   C111 - C110   - H10S  
 14839  14842  14845      1    1.1205e+02    3.9497e+02 ;   C111 - C110   - C19   
 14840  14839  14841      1    1.0835e+02    3.2995e+02 ;   H11R - C111   - H11S  
 14840  14839  14842      1    1.1005e+02    3.8802e+02 ;   H11R - C111   - C110  
 14841  14839  14842      1    1.1005e+02    3.8802e+02 ;   H11S - C111   - C110  
 14842  14845  14846      1    1.1005e+02    3.8802e+02 ;   C110 - C19    - H9R   
 14842  14845  14847      1    1.1005e+02    3.8802e+02 ;   C110 - C19    - H9S   
 14842  14845  14848      1    1.1205e+02    3.9497e+02 ;   C110 - C19    - C18   
 14843  14842  14844      1    1.0835e+02    3.2995e+02 ;   H10R - C110   - H10S  
 14843  14842  14845      1    1.1005e+02    3.8802e+02 ;   H10R - C110   - C19   
 14844  14842  14845      1    1.1005e+02    3.8802e+02 ;   H10S - C110   - C19   
 14845  14848  14849      1    1.1005e+02    3.8802e+02 ;    C19 - C18    - H8R   
 14845  14848  14850      1    1.1005e+02    3.8802e+02 ;    C19 - C18    - H8S   
 14845  14848  14851      1    1.1205e+02    3.9497e+02 ;    C19 - C18    - C17   
 14846  14845  14847      1    1.0835e+02    3.2995e+02 ;    H9R - C19    - H9S   
 14846  14845  14848      1    1.1005e+02    3.8802e+02 ;    H9R - C19    - C18   
 14847  14845  14848      1    1.1005e+02    3.8802e+02 ;    H9S - C19    - C18   
 14848  14851  14852      1    1.1005e+02    3.8802e+02 ;    C18 - C17    - H7R   
 14848  14851  14853      1    1.1005e+02    3.8802e+02 ;    C18 - C17    - H7S   
 14848  14851  14854      1    1.1205e+02    3.9497e+02 ;    C18 - C17    - C16   
 14849  14848  14850      1    1.0835e+02    3.2995e+02 ;    H8R - C18    - H8S   
 14849  14848  14851      1    1.1005e+02    3.8802e+02 ;    H8R - C18    - C17   
 14850  14848  14851      1    1.1005e+02    3.8802e+02 ;    H8S - C18    - C17   
 14851  14854  14855      1    1.1005e+02    3.8802e+02 ;    C17 - C16    - H6R   
 14851  14854  14856      1    1.1005e+02    3.8802e+02 ;    C17 - C16    - H6S   
 14851  14854  14857      1    1.1205e+02    3.9497e+02 ;    C17 - C16    - C15   
 14852  14851  14853      1    1.0835e+02    3.2995e+02 ;    H7R - C17    - H7S   
 14852  14851  14854      1    1.1005e+02    3.8802e+02 ;    H7R - C17    - C16   
 14853  14851  14854      1    1.1005e+02    3.8802e+02 ;    H7S - C17    - C16   
 14854  14857  14858      1    1.1005e+02    3.8802e+02 ;    C16 - C15    - H5R   
 14854  14857  14859      1    1.1005e+02    3.8802e+02 ;    C16 - C15    - H5S   
 14854  14857  14860      1    1.1205e+02    3.9497e+02 ;    C16 - C15    - C14   
 14855  14854  14856      1    1.0835e+02    3.2995e+02 ;    H6R - C16    - H6S   
 14855  14854  14857      1    1.1005e+02    3.8802e+02 ;    H6R - C16    - C15   
 14856  14854  14857      1    1.1005e+02    3.8802e+02 ;    H6S - C16    - C15   
 14857  14860  14861      1    1.1005e+02    3.8802e+02 ;    C15 - C14    - H4R   
 14857  14860  14862      1    1.1005e+02    3.8802e+02 ;    C15 - C14    - H4S   
 14857  14860  14863      1    1.1205e+02    3.9497e+02 ;    C15 - C14    - C13   
 14858  14857  14859      1    1.0835e+02    3.2995e+02 ;    H5R - C15    - H5S   
 14858  14857  14860      1    1.1005e+02    3.8802e+02 ;    H5R - C15    - C14   
 14859  14857  14860      1    1.1005e+02    3.8802e+02 ;    H5S - C15    - C14   
 14860  14863  14864      1    1.1005e+02    3.8802e+02 ;    C14 - C13    - H3R   
 14860  14863  14865      1    1.1005e+02    3.8802e+02 ;    C14 - C13    - H3S   
 14860  14863  14866      1    1.1205e+02    3.9497e+02 ;    C14 - C13    - C12   
 14861  14860  14862      1    1.0835e+02    3.2995e+02 ;    H4R - C14    - H4S   
 14861  14860  14863      1    1.1005e+02    3.8802e+02 ;    H4R - C14    - C13   
 14862  14860  14863      1    1.1005e+02    3.8802e+02 ;    H4S - C14    - C13   
 14863  14866  14867      1    1.1005e+02    3.8802e+02 ;    C13 - C12    - H2R   
 14863  14866  14868      1    1.1005e+02    3.8802e+02 ;    C13 - C12    - H2S   
 14864  14863  14865      1    1.0835e+02    3.2995e+02 ;    H3R - C13    - H3S   
 14864  14863  14866      1    1.1005e+02    3.8802e+02 ;    H3R - C13    - C12   
 14865  14863  14866      1    1.1005e+02    3.8802e+02 ;    H3S - C13    - C12   
 14867  14866  14868      1    1.0835e+02    3.2995e+02 ;    H2R - C12    - H2S   
 14869  14870  14871      1    1.0835e+02    3.2995e+02 ;   H14T - C114   - H14R  
 14869  14870  14872      1    1.0835e+02    3.2995e+02 ;   H14T - C114   - H14S  
 14869  14870  14873      1    1.1005e+02    3.8802e+02 ;   H14T - C114   - C113  
 14870  14873  14874      1    1.1005e+02    3.8802e+02 ;   C114 - C113   - H13R  
 14870  14873  14875      1    1.1005e+02    3.8802e+02 ;   C114 - C113   - H13S  
 14870  14873  14876      1    1.1205e+02    3.9497e+02 ;   C114 - C113   - C112  
 14871  14870  14872      1    1.0835e+02    3.2995e+02 ;   H14R - C114   - H14S  
 14871  14870  14873      1    1.1005e+02    3.8802e+02 ;   H14R - C114   - C113  
 14872  14870  14873      1    1.1005e+02    3.8802e+02 ;   H14S - C114   - C113  
 14873  14876  14877      1    1.1005e+02    3.8802e+02 ;   C113 - C112   - H12R  
 14873  14876  14878      1    1.1005e+02    3.8802e+02 ;   C113 - C112   - H12S  
 14873  14876  14879      1    1.1205e+02    3.9497e+02 ;   C113 - C112   - C111  
 14874  14873  14875      1    1.0835e+02    3.2995e+02 ;   H13R - C113   - H13S  
 14874  14873  14876      1    1.1005e+02    3.8802e+02 ;   H13R - C113   - C112  
 14875  14873  14876      1    1.1005e+02    3.8802e+02 ;   H13S - C113   - C112  
 14876  14879  14880      1    1.1005e+02    3.8802e+02 ;   C112 - C111   - H11R  
 14876  14879  14881      1    1.1005e+02    3.8802e+02 ;   C112 - C111   - H11S  
 14876  14879  14882      1    1.1205e+02    3.9497e+02 ;   C112 - C111   - C110  
 14877  14876  14878      1    1.0835e+02    3.2995e+02 ;   H12R - C112   - H12S  
 14877  14876  14879      1    1.1005e+02    3.8802e+02 ;   H12R - C112   - C111  
 14878  14876  14879      1    1.1005e+02    3.8802e+02 ;   H12S - C112   - C111  
 14879  14882  14883      1    1.1005e+02    3.8802e+02 ;   C111 - C110   - H10R  
 14879  14882  14884      1    1.1005e+02    3.8802e+02 ;   C111 - C110   - H10S  
 14879  14882  14885      1    1.1205e+02    3.9497e+02 ;   C111 - C110   - C19   
 14880  14879  14881      1    1.0835e+02    3.2995e+02 ;   H11R - C111   - H11S  
 14880  14879  14882      1    1.1005e+02    3.8802e+02 ;   H11R - C111   - C110  
 14881  14879  14882      1    1.1005e+02    3.8802e+02 ;   H11S - C111   - C110  
 14882  14885  14886      1    1.1005e+02    3.8802e+02 ;   C110 - C19    - H9R   
 14882  14885  14887      1    1.1005e+02    3.8802e+02 ;   C110 - C19    - H9S   
 14882  14885  14888      1    1.1205e+02    3.9497e+02 ;   C110 - C19    - C18   
 14883  14882  14884      1    1.0835e+02    3.2995e+02 ;   H10R - C110   - H10S  
 14883  14882  14885      1    1.1005e+02    3.8802e+02 ;   H10R - C110   - C19   
 14884  14882  14885      1    1.1005e+02    3.8802e+02 ;   H10S - C110   - C19   
 14885  14888  14889      1    1.1005e+02    3.8802e+02 ;    C19 - C18    - H8R   
 14885  14888  14890      1    1.1005e+02    3.8802e+02 ;    C19 - C18    - H8S   
 14885  14888  14891      1    1.1205e+02    3.9497e+02 ;    C19 - C18    - C17   
 14886  14885  14887      1    1.0835e+02    3.2995e+02 ;    H9R - C19    - H9S   
 14886  14885  14888      1    1.1005e+02    3.8802e+02 ;    H9R - C19    - C18   
 14887  14885  14888      1    1.1005e+02    3.8802e+02 ;    H9S - C19    - C18   
 14888  14891  14892      1    1.1005e+02    3.8802e+02 ;    C18 - C17    - H7R   
 14888  14891  14893      1    1.1005e+02    3.8802e+02 ;    C18 - C17    - H7S   
 14888  14891  14894      1    1.1205e+02    3.9497e+02 ;    C18 - C17    - C16   
 14889  14888  14890      1    1.0835e+02    3.2995e+02 ;    H8R - C18    - H8S   
 14889  14888  14891      1    1.1005e+02    3.8802e+02 ;    H8R - C18    - C17   
 14890  14888  14891      1    1.1005e+02    3.8802e+02 ;    H8S - C18    - C17   
 14891  14894  14895      1    1.1005e+02    3.8802e+02 ;    C17 - C16    - H6R   
 14891  14894  14896      1    1.1005e+02    3.8802e+02 ;    C17 - C16    - H6S   
 14891  14894  14897      1    1.1205e+02    3.9497e+02 ;    C17 - C16    - C15   
 14892  14891  14893      1    1.0835e+02    3.2995e+02 ;    H7R - C17    - H7S   
 14892  14891  14894      1    1.1005e+02    3.8802e+02 ;    H7R - C17    - C16   
 14893  14891  14894      1    1.1005e+02    3.8802e+02 ;    H7S - C17    - C16   
 14894  14897  14898      1    1.1005e+02    3.8802e+02 ;    C16 - C15    - H5R   
 14894  14897  14899      1    1.1005e+02    3.8802e+02 ;    C16 - C15    - H5S   
 14894  14897  14900      1    1.1205e+02    3.9497e+02 ;    C16 - C15    - C14   
 14895  14894  14896      1    1.0835e+02    3.2995e+02 ;    H6R - C16    - H6S   
 14895  14894  14897      1    1.1005e+02    3.8802e+02 ;    H6R - C16    - C15   
 14896  14894  14897      1    1.1005e+02    3.8802e+02 ;    H6S - C16    - C15   
 14897  14900  14901      1    1.1005e+02    3.8802e+02 ;    C15 - C14    - H4R   
 14897  14900  14902      1    1.1005e+02    3.8802e+02 ;    C15 - C14    - H4S   
 14897  14900  14903      1    1.1205e+02    3.9497e+02 ;    C15 - C14    - C13   
 14898  14897  14899      1    1.0835e+02    3.2995e+02 ;    H5R - C15    - H5S   
 14898  14897  14900      1    1.1005e+02    3.8802e+02 ;    H5R - C15    - C14   
 14899  14897  14900      1    1.1005e+02    3.8802e+02 ;    H5S - C15    - C14   
 14900  14903  14904      1    1.1005e+02    3.8802e+02 ;    C14 - C13    - H3R   
 14900  14903  14905      1    1.1005e+02    3.8802e+02 ;    C14 - C13    - H3S   
 14900  14903  14906      1    1.1205e+02    3.9497e+02 ;    C14 - C13    - C12   
 14901  14900  14902      1    1.0835e+02    3.2995e+02 ;    H4R - C14    - H4S   
 14901  14900  14903      1    1.1005e+02    3.8802e+02 ;    H4R - C14    - C13   
 14902  14900  14903      1    1.1005e+02    3.8802e+02 ;    H4S - C14    - C13   
 14903  14906  14907      1    1.1005e+02    3.8802e+02 ;    C13 - C12    - H2R   
 14903  14906  14908      1    1.1005e+02    3.8802e+02 ;    C13 - C12    - H2S   
 14903  14906  14909      1    1.1053e+02    5.3379e+02 ;    C13 - C12    - C11   
 14904  14903  14905      1    1.0835e+02    3.2995e+02 ;    H3R - C13    - H3S   
 14904  14903  14906      1    1.1005e+02    3.8802e+02 ;    H3R - C13    - C12   
 14905  14903  14906      1    1.1005e+02    3.8802e+02 ;    H3S - C13    - C12   
 14906  14909  14910      1    1.2311e+02    5.6928e+02 ;    C12 - C11    - O12   
 14906  14909  14911      1    1.1196e+02    5.7957e+02 ;    C12 - C11    - O11   
 14907  14906  14908      1    1.0835e+02    3.2995e+02 ;    H2R - C12    - H2S   
 14907  14906  14909      1    1.0968e+02    3.9497e+02 ;    H2R - C12    - C11   
 14908  14906  14909      1    1.0968e+02    3.9497e+02 ;    H2S - C12    - C11   
 14909  14911  14912      1    1.1514e+02    5.3246e+02 ;    C11 - O11    - C1    
 14910  14909  14911      1    1.2333e+02    6.3538e+02 ;    O12 - C11    - O11   
 14911  14912  14913      1    1.0882e+02    4.2543e+02 ;    O11 - C1     - HR    
 14911  14912  14914      1    1.0882e+02    4.2543e+02 ;    O11 - C1     - HS    
 14911  14912  14915      1    1.0842e+02    5.6718e+02 ;    O11 - C1     - C2    
 14912  14915  14916      1    1.1007e+02    3.8794e+02 ;     C1 - C2     - HX    
 14912  14915  14917      1    1.1063e+02    5.2894e+02 ;     C1 - C2     - C3    
 14912  14915  14944      1    1.0842e+02    5.6718e+02 ;     C1 - C2     - O21   
 14913  14912  14914      1    1.0955e+02    3.2786e+02 ;     HR - C1     - HS    
 14913  14912  14915      1    1.1007e+02    3.8794e+02 ;     HR - C1     - C2    
 14914  14912  14915      1    1.1007e+02    3.8794e+02 ;     HS - C1     - C2    
 14915  14917  14918      1    1.1007e+02    3.8794e+02 ;     C2 - C3     - HA    
 14915  14917  14919      1    1.1007e+02    3.8794e+02 ;     C2 - C3     - HB    
 14915  14917  14920      1    1.0842e+02    5.6718e+02 ;     C2 - C3     - O31   
 14915  14944  14945      1    1.1514e+02    5.3246e+02 ;     C2 - O21    - C21   
 14916  14915  14917      1    1.1007e+02    3.8794e+02 ;     HX - C2     - C3    
 14916  14915  14944      1    1.0882e+02    4.2543e+02 ;     HX - C2     - O21   
 14917  14915  14944      1    1.0842e+02    5.6718e+02 ;     C3 - C2     - O21   
 14917  14920  14921      1    1.2050e+02    8.3680e+02 ;     C3 - O31    - P31   
 14918  14917  14919      1    1.0955e+02    3.2786e+02 ;     HA - C3     - HB    
 14918  14917  14920      1    1.0882e+02    4.2543e+02 ;     HA - C3     - O31   
 14919  14917  14920      1    1.0882e+02    4.2543e+02 ;     HB - C3     - O31   
 14920  14921  14922      1    1.0260e+02    7.5312e+02 ;    O31 - P31    - O32   
 14920  14921  14942      1    1.0823e+02    8.3680e+02 ;    O31 - P31    - O33   
 14920  14921  14943      1    1.0823e+02    8.3680e+02 ;    O31 - P31    - O34   
 14921  14922  14923      1    1.2050e+02    8.3680e+02 ;    P31 - O32    - C31   
 14922  14921  14942      1    1.0823e+02    8.3680e+02 ;    O32 - P31    - O33   
 14922  14921  14943      1    1.0823e+02    8.3680e+02 ;    O32 - P31    - O34   
 14922  14923  14924      1    1.0882e+02    4.2543e+02 ;    O32 - C31    - H1A   
 14922  14923  14925      1    1.0882e+02    4.2543e+02 ;    O32 - C31    - H1B   
 14922  14923  14926      1    1.0842e+02    5.6718e+02 ;    O32 - C31    - C32   
 14923  14926  14927      1    1.1174e+02    3.8510e+02 ;    C31 - C32    - H2A   
 14923  14926  14928      1    1.1174e+02    3.8510e+02 ;    C31 - C32    - H2B   
 14923  14926  14929      1    1.1432e+02    5.3932e+02 ;    C31 - C32    - N31   
 14924  14923  14925      1    1.0955e+02    3.2786e+02 ;    H1A - C31    - H1B   
 14924  14923  14926      1    1.1007e+02    3.8794e+02 ;    H1A - C31    - C32   
 14925  14923  14926      1    1.1007e+02    3.8794e+02 ;    H1B - C31    - C32   
 14926  14929  14930      1    1.1064e+02    5.2585e+02 ;    C32 - N31    - C33   
 14926  14929  14934      1    1.1064e+02    5.2585e+02 ;    C32 - N31    - C34   
 14926  14929  14938      1    1.1064e+02    5.2585e+02 ;    C32 - N31    - C35   
 14927  14926  14928      1    1.1074e+02    3.2669e+02 ;    H2A - C32    - H2B   
 14927  14926  14929      1    1.0791e+02    4.1020e+02 ;    H2A - C32    - N31   
 14928  14926  14929      1    1.0791e+02    4.1020e+02 ;    H2B - C32    - N31   
 14929  14930  14931      1    1.0791e+02    4.1020e+02 ;    N31 - C33    - H3A   
 14929  14930  14932      1    1.0791e+02    4.1020e+02 ;    N31 - C33    - H3B   
 14929  14930  14933      1    1.0791e+02    4.1020e+02 ;    N31 - C33    - H3C   
 14929  14934  14935      1    1.0791e+02    4.1020e+02 ;    N31 - C34    - H4A   
 14929  14934  14936      1    1.0791e+02    4.1020e+02 ;    N31 - C34    - H4B   
 14929  14934  14937      1    1.0791e+02    4.1020e+02 ;    N31 - C34    - H4C   
 14929  14938  14939      1    1.0791e+02    4.1020e+02 ;    N31 - C35    - H5A   
 14929  14938  14940      1    1.0791e+02    4.1020e+02 ;    N31 - C35    - H5B   
 14929  14938  14941      1    1.0791e+02    4.1020e+02 ;    N31 - C35    - H5C   
 14930  14929  14934      1    1.1064e+02    5.2585e+02 ;    C33 - N31    - C34   
 14930  14929  14938      1    1.1064e+02    5.2585e+02 ;    C33 - N31    - C35   
 14931  14930  14932      1    1.1074e+02    3.2669e+02 ;    H3A - C33    - H3B   
 14931  14930  14933      1    1.1074e+02    3.2669e+02 ;    H3A - C33    - H3C   
 14932  14930  14933      1    1.1074e+02    3.2669e+02 ;    H3B - C33    - H3C   
 14934  14929  14938      1    1.1064e+02    5.2585e+02 ;    C34 - N31    - C35   
 14935  14934  14936      1    1.1074e+02    3.2669e+02 ;    H4A - C34    - H4B   
 14935  14934  14937      1    1.1074e+02    3.2669e+02 ;    H4A - C34    - H4C   
 14936  14934  14937      1    1.1074e+02    3.2669e+02 ;    H4B - C34    - H4C   
 14939  14938  14940      1    1.1074e+02    3.2669e+02 ;    H5A - C35    - H5B   
 14939  14938  14941      1    1.1074e+02    3.2669e+02 ;    H5A - C35    - H5C   
 14940  14938  14941      1    1.1074e+02    3.2669e+02 ;    H5B - C35    - H5C   
 14942  14921  14943      1    1.1990e+02    1.1715e+03 ;    O33 - P31    - O34   
 14944  14945  14946      1    1.2333e+02    6.3538e+02 ;    O21 - C21    - O22   
 14944  14945  14984      1    1.1196e+02    5.7957e+02 ;    O21 - C21    - C12   
 14945  14984  14981      1    1.1053e+02    5.3379e+02 ;    C21 - C12    - C13   
 14945  14984  14985      1    1.0968e+02    3.9497e+02 ;    C21 - C12    - H2R   
 14945  14984  14986      1    1.0968e+02    3.9497e+02 ;    C21 - C12    - H2S   
 14946  14945  14984      1    1.2311e+02    5.6928e+02 ;    O22 - C21    - C12   
 14947  14948  14949      1    1.0835e+02    3.2995e+02 ;   H14T - C114   - H14R  
 14947  14948  14950      1    1.0835e+02    3.2995e+02 ;   H14T - C114   - H14S  
 14947  14948  14951      1    1.1005e+02    3.8802e+02 ;   H14T - C114   - C113  
 14948  14951  14952      1    1.1005e+02    3.8802e+02 ;   C114 - C113   - H13R  
 14948  14951  14953      1    1.1005e+02    3.8802e+02 ;   C114 - C113   - H13S  
 14948  14951  14954      1    1.1205e+02    3.9497e+02 ;   C114 - C113   - C112  
 14949  14948  14950      1    1.0835e+02    3.2995e+02 ;   H14R - C114   - H14S  
 14949  14948  14951      1    1.1005e+02    3.8802e+02 ;   H14R - C114   - C113  
 14950  14948  14951      1    1.1005e+02    3.8802e+02 ;   H14S - C114   - C113  
 14951  14954  14955      1    1.1005e+02    3.8802e+02 ;   C113 - C112   - H12R  
 14951  14954  14956      1    1.1005e+02    3.8802e+02 ;   C113 - C112   - H12S  
 14951  14954  14957      1    1.1205e+02    3.9497e+02 ;   C113 - C112   - C111  
 14952  14951  14953      1    1.0835e+02    3.2995e+02 ;   H13R - C113   - H13S  
 14952  14951  14954      1    1.1005e+02    3.8802e+02 ;   H13R - C113   - C112  
 14953  14951  14954      1    1.1005e+02    3.8802e+02 ;   H13S - C113   - C112  
 14954  14957  14958      1    1.1005e+02    3.8802e+02 ;   C112 - C111   - H11R  
 14954  14957  14959      1    1.1005e+02    3.8802e+02 ;   C112 - C111   - H11S  
 14954  14957  14960      1    1.1205e+02    3.9497e+02 ;   C112 - C111   - C110  
 14955  14954  14956      1    1.0835e+02    3.2995e+02 ;   H12R - C112   - H12S  
 14955  14954  14957      1    1.1005e+02    3.8802e+02 ;   H12R - C112   - C111  
 14956  14954  14957      1    1.1005e+02    3.8802e+02 ;   H12S - C112   - C111  
 14957  14960  14961      1    1.1005e+02    3.8802e+02 ;   C111 - C110   - H10R  
 14957  14960  14962      1    1.1005e+02    3.8802e+02 ;   C111 - C110   - H10S  
 14957  14960  14963      1    1.1205e+02    3.9497e+02 ;   C111 - C110   - C19   
 14958  14957  14959      1    1.0835e+02    3.2995e+02 ;   H11R - C111   - H11S  
 14958  14957  14960      1    1.1005e+02    3.8802e+02 ;   H11R - C111   - C110  
 14959  14957  14960      1    1.1005e+02    3.8802e+02 ;   H11S - C111   - C110  
 14960  14963  14964      1    1.1005e+02    3.8802e+02 ;   C110 - C19    - H9R   
 14960  14963  14965      1    1.1005e+02    3.8802e+02 ;   C110 - C19    - H9S   
 14960  14963  14966      1    1.1205e+02    3.9497e+02 ;   C110 - C19    - C18   
 14961  14960  14962      1    1.0835e+02    3.2995e+02 ;   H10R - C110   - H10S  
 14961  14960  14963      1    1.1005e+02    3.8802e+02 ;   H10R - C110   - C19   
 14962  14960  14963      1    1.1005e+02    3.8802e+02 ;   H10S - C110   - C19   
 14963  14966  14967      1    1.1005e+02    3.8802e+02 ;    C19 - C18    - H8R   
 14963  14966  14968      1    1.1005e+02    3.8802e+02 ;    C19 - C18    - H8S   
 14963  14966  14969      1    1.1205e+02    3.9497e+02 ;    C19 - C18    - C17   
 14964  14963  14965      1    1.0835e+02    3.2995e+02 ;    H9R - C19    - H9S   
 14964  14963  14966      1    1.1005e+02    3.8802e+02 ;    H9R - C19    - C18   
 14965  14963  14966      1    1.1005e+02    3.8802e+02 ;    H9S - C19    - C18   
 14966  14969  14970      1    1.1005e+02    3.8802e+02 ;    C18 - C17    - H7R   
 14966  14969  14971      1    1.1005e+02    3.8802e+02 ;    C18 - C17    - H7S   
 14966  14969  14972      1    1.1205e+02    3.9497e+02 ;    C18 - C17    - C16   
 14967  14966  14968      1    1.0835e+02    3.2995e+02 ;    H8R - C18    - H8S   
 14967  14966  14969      1    1.1005e+02    3.8802e+02 ;    H8R - C18    - C17   
 14968  14966  14969      1    1.1005e+02    3.8802e+02 ;    H8S - C18    - C17   
 14969  14972  14973      1    1.1005e+02    3.8802e+02 ;    C17 - C16    - H6R   
 14969  14972  14974      1    1.1005e+02    3.8802e+02 ;    C17 - C16    - H6S   
 14969  14972  14975      1    1.1205e+02    3.9497e+02 ;    C17 - C16    - C15   
 14970  14969  14971      1    1.0835e+02    3.2995e+02 ;    H7R - C17    - H7S   
 14970  14969  14972      1    1.1005e+02    3.8802e+02 ;    H7R - C17    - C16   
 14971  14969  14972      1    1.1005e+02    3.8802e+02 ;    H7S - C17    - C16   
 14972  14975  14976      1    1.1005e+02    3.8802e+02 ;    C16 - C15    - H5R   
 14972  14975  14977      1    1.1005e+02    3.8802e+02 ;    C16 - C15    - H5S   
 14972  14975  14978      1    1.1205e+02    3.9497e+02 ;    C16 - C15    - C14   
 14973  14972  14974      1    1.0835e+02    3.2995e+02 ;    H6R - C16    - H6S   
 14973  14972  14975      1    1.1005e+02    3.8802e+02 ;    H6R - C16    - C15   
 14974  14972  14975      1    1.1005e+02    3.8802e+02 ;    H6S - C16    - C15   
 14975  14978  14979      1    1.1005e+02    3.8802e+02 ;    C15 - C14    - H4R   
 14975  14978  14980      1    1.1005e+02    3.8802e+02 ;    C15 - C14    - H4S   
 14975  14978  14981      1    1.1205e+02    3.9497e+02 ;    C15 - C14    - C13   
 14976  14975  14977      1    1.0835e+02    3.2995e+02 ;    H5R - C15    - H5S   
 14976  14975  14978      1    1.1005e+02    3.8802e+02 ;    H5R - C15    - C14   
 14977  14975  14978      1    1.1005e+02    3.8802e+02 ;    H5S - C15    - C14   
 14978  14981  14982      1    1.1005e+02    3.8802e+02 ;    C14 - C13    - H3R   
 14978  14981  14983      1    1.1005e+02    3.8802e+02 ;    C14 - C13    - H3S   
 14978  14981  14984      1    1.1205e+02    3.9497e+02 ;    C14 - C13    - C12   
 14979  14978  14980      1    1.0835e+02    3.2995e+02 ;    H4R - C14    - H4S   
 14979  14978  14981      1    1.1005e+02    3.8802e+02 ;    H4R - C14    - C13   
 14980  14978  14981      1    1.1005e+02    3.8802e+02 ;    H4S - C14    - C13   
 14981  14984  14985      1    1.1005e+02    3.8802e+02 ;    C13 - C12    - H2R   
 14981  14984  14986      1    1.1005e+02    3.8802e+02 ;    C13 - C12    - H2S   
 14982  14981  14983      1    1.0835e+02    3.2995e+02 ;    H3R - C13    - H3S   
 14982  14981  14984      1    1.1005e+02    3.8802e+02 ;    H3R - C13    - C12   
 14983  14981  14984      1    1.1005e+02    3.8802e+02 ;    H3S - C13    - C12   
 14985  14984  14986      1    1.0835e+02    3.2995e+02 ;    H2R - C12    - H2S   
 14987  14988  14989      1    1.0835e+02    3.2995e+02 ;   H14T - C114   - H14R  
 14987  14988  14990      1    1.0835e+02    3.2995e+02 ;   H14T - C114   - H14S  
 14987  14988  14991      1    1.1005e+02    3.8802e+02 ;   H14T - C114   - C113  
 14988  14991  14992      1    1.1005e+02    3.8802e+02 ;   C114 - C113   - H13R  
 14988  14991  14993      1    1.1005e+02    3.8802e+02 ;   C114 - C113   - H13S  
 14988  14991  14994      1    1.1205e+02    3.9497e+02 ;   C114 - C113   - C112  
 14989  14988  14990      1    1.0835e+02    3.2995e+02 ;   H14R - C114   - H14S  
 14989  14988  14991      1    1.1005e+02    3.8802e+02 ;   H14R - C114   - C113  
 14990  14988  14991      1    1.1005e+02    3.8802e+02 ;   H14S - C114   - C113  
 14991  14994  14995      1    1.1005e+02    3.8802e+02 ;   C113 - C112   - H12R  
 14991  14994  14996      1    1.1005e+02    3.8802e+02 ;   C113 - C112   - H12S  
 14991  14994  14997      1    1.1205e+02    3.9497e+02 ;   C113 - C112   - C111  
 14992  14991  14993      1    1.0835e+02    3.2995e+02 ;   H13R - C113   - H13S  
 14992  14991  14994      1    1.1005e+02    3.8802e+02 ;   H13R - C113   - C112  
 14993  14991  14994      1    1.1005e+02    3.8802e+02 ;   H13S - C113   - C112  
 14994  14997  14998      1    1.1005e+02    3.8802e+02 ;   C112 - C111   - H11R  
 14994  14997  14999      1    1.1005e+02    3.8802e+02 ;   C112 - C111   - H11S  
 14994  14997  15000      1    1.1205e+02    3.9497e+02 ;   C112 - C111   - C110  
 14995  14994  14996      1    1.0835e+02    3.2995e+02 ;   H12R - C112   - H12S  
 14995  14994  14997      1    1.1005e+02    3.8802e+02 ;   H12R - C112   - C111  
 14996  14994  14997      1    1.1005e+02    3.8802e+02 ;   H12S - C112   - C111  
 14997  15000  15001      1    1.1005e+02    3.8802e+02 ;   C111 - C110   - H10R  
 14997  15000  15002      1    1.1005e+02    3.8802e+02 ;   C111 - C110   - H10S  
 14997  15000  15003      1    1.1205e+02    3.9497e+02 ;   C111 - C110   - C19   
 14998  14997  14999      1    1.0835e+02    3.2995e+02 ;   H11R - C111   - H11S  
 14998  14997  15000      1    1.1005e+02    3.8802e+02 ;   H11R - C111   - C110  
 14999  14997  15000      1    1.1005e+02    3.8802e+02 ;   H11S - C111   - C110  
 15000  15003  15004      1    1.1005e+02    3.8802e+02 ;   C110 - C19    - H9R   
 15000  15003  15005      1    1.1005e+02    3.8802e+02 ;   C110 - C19    - H9S   
 15000  15003  15006      1    1.1205e+02    3.9497e+02 ;   C110 - C19    - C18   
 15001  15000  15002      1    1.0835e+02    3.2995e+02 ;   H10R - C110   - H10S  
 15001  15000  15003      1    1.1005e+02    3.8802e+02 ;   H10R - C110   - C19   
 15002  15000  15003      1    1.1005e+02    3.8802e+02 ;   H10S - C110   - C19   
 15003  15006  15007      1    1.1005e+02    3.8802e+02 ;    C19 - C18    - H8R   
 15003  15006  15008      1    1.1005e+02    3.8802e+02 ;    C19 - C18    - H8S   
 15003  15006  15009      1    1.1205e+02    3.9497e+02 ;    C19 - C18    - C17   
 15004  15003  15005      1    1.0835e+02    3.2995e+02 ;    H9R - C19    - H9S   
 15004  15003  15006      1    1.1005e+02    3.8802e+02 ;    H9R - C19    - C18   
 15005  15003  15006      1    1.1005e+02    3.8802e+02 ;    H9S - C19    - C18   
 15006  15009  15010      1    1.1005e+02    3.8802e+02 ;    C18 - C17    - H7R   
 15006  15009  15011      1    1.1005e+02    3.8802e+02 ;    C18 - C17    - H7S   
 15006  15009  15012      1    1.1205e+02    3.9497e+02 ;    C18 - C17    - C16   
 15007  15006  15008      1    1.0835e+02    3.2995e+02 ;    H8R - C18    - H8S   
 15007  15006  15009      1    1.1005e+02    3.8802e+02 ;    H8R - C18    - C17   
 15008  15006  15009      1    1.1005e+02    3.8802e+02 ;    H8S - C18    - C17   
 15009  15012  15013      1    1.1005e+02    3.8802e+02 ;    C17 - C16    - H6R   
 15009  15012  15014      1    1.1005e+02    3.8802e+02 ;    C17 - C16    - H6S   
 15009  15012  15015      1    1.1205e+02    3.9497e+02 ;    C17 - C16    - C15   
 15010  15009  15011      1    1.0835e+02    3.2995e+02 ;    H7R - C17    - H7S   
 15010  15009  15012      1    1.1005e+02    3.8802e+02 ;    H7R - C17    - C16   
 15011  15009  15012      1    1.1005e+02    3.8802e+02 ;    H7S - C17    - C16   
 15012  15015  15016      1    1.1005e+02    3.8802e+02 ;    C16 - C15    - H5R   
 15012  15015  15017      1    1.1005e+02    3.8802e+02 ;    C16 - C15    - H5S   
 15012  15015  15018      1    1.1205e+02    3.9497e+02 ;    C16 - C15    - C14   
 15013  15012  15014      1    1.0835e+02    3.2995e+02 ;    H6R - C16    - H6S   
 15013  15012  15015      1    1.1005e+02    3.8802e+02 ;    H6R - C16    - C15   
 15014  15012  15015      1    1.1005e+02    3.8802e+02 ;    H6S - C16    - C15   
 15015  15018  15019      1    1.1005e+02    3.8802e+02 ;    C15 - C14    - H4R   
 15015  15018  15020      1    1.1005e+02    3.8802e+02 ;    C15 - C14    - H4S   
 15015  15018  15021      1    1.1205e+02    3.9497e+02 ;    C15 - C14    - C13   
 15016  15015  15017      1    1.0835e+02    3.2995e+02 ;    H5R - C15    - H5S   
 15016  15015  15018      1    1.1005e+02    3.8802e+02 ;    H5R - C15    - C14   
 15017  15015  15018      1    1.1005e+02    3.8802e+02 ;    H5S - C15    - C14   
 15018  15021  15022      1    1.1005e+02    3.8802e+02 ;    C14 - C13    - H3R   
 15018  15021  15023      1    1.1005e+02    3.8802e+02 ;    C14 - C13    - H3S   
 15018  15021  15024      1    1.1205e+02    3.9497e+02 ;    C14 - C13    - C12   
 15019  15018  15020      1    1.0835e+02    3.2995e+02 ;    H4R - C14    - H4S   
 15019  15018  15021      1    1.1005e+02    3.8802e+02 ;    H4R - C14    - C13   
 15020  15018  15021      1    1.1005e+02    3.8802e+02 ;    H4S - C14    - C13   
 15021  15024  15025      1    1.1005e+02    3.8802e+02 ;    C13 - C12    - H2R   
 15021  15024  15026      1    1.1005e+02    3.8802e+02 ;    C13 - C12    - H2S   
 15021  15024  15027      1    1.1053e+02    5.3379e+02 ;    C13 - C12    - C11   
 15022  15021  15023      1    1.0835e+02    3.2995e+02 ;    H3R - C13    - H3S   
 15022  15021  15024      1    1.1005e+02    3.8802e+02 ;    H3R - C13    - C12   
 15023  15021  15024      1    1.1005e+02    3.8802e+02 ;    H3S - C13    - C12   
 15024  15027  15028      1    1.2311e+02    5.6928e+02 ;    C12 - C11    - O12   
 15024  15027  15029      1    1.1196e+02    5.7957e+02 ;    C12 - C11    - O11   
 15025  15024  15026      1    1.0835e+02    3.2995e+02 ;    H2R - C12    - H2S   
 15025  15024  15027      1    1.0968e+02    3.9497e+02 ;    H2R - C12    - C11   
 15026  15024  15027      1    1.0968e+02    3.9497e+02 ;    H2S - C12    - C11   
 15027  15029  15030      1    1.1514e+02    5.3246e+02 ;    C11 - O11    - C1    
 15028  15027  15029      1    1.2333e+02    6.3538e+02 ;    O12 - C11    - O11   
 15029  15030  15031      1    1.0882e+02    4.2543e+02 ;    O11 - C1     - HR    
 15029  15030  15032      1    1.0882e+02    4.2543e+02 ;    O11 - C1     - HS    
 15029  15030  15033      1    1.0842e+02    5.6718e+02 ;    O11 - C1     - C2    
 15030  15033  15034      1    1.1007e+02    3.8794e+02 ;     C1 - C2     - HX    
 15030  15033  15035      1    1.1063e+02    5.2894e+02 ;     C1 - C2     - C3    
 15030  15033  15062      1    1.0842e+02    5.6718e+02 ;     C1 - C2     - O21   
 15031  15030  15032      1    1.0955e+02    3.2786e+02 ;     HR - C1     - HS    
 15031  15030  15033      1    1.1007e+02    3.8794e+02 ;     HR - C1     - C2    
 15032  15030  15033      1    1.1007e+02    3.8794e+02 ;     HS - C1     - C2    
 15033  15035  15036      1    1.1007e+02    3.8794e+02 ;     C2 - C3     - HA    
 15033  15035  15037      1    1.1007e+02    3.8794e+02 ;     C2 - C3     - HB    
 15033  15035  15038      1    1.0842e+02    5.6718e+02 ;     C2 - C3     - O31   
 15033  15062  15063      1    1.1514e+02    5.3246e+02 ;     C2 - O21    - C21   
 15034  15033  15035      1    1.1007e+02    3.8794e+02 ;     HX - C2     - C3    
 15034  15033  15062      1    1.0882e+02    4.2543e+02 ;     HX - C2     - O21   
 15035  15033  15062      1    1.0842e+02    5.6718e+02 ;     C3 - C2     - O21   
 15035  15038  15039      1    1.2050e+02    8.3680e+02 ;     C3 - O31    - P31   
 15036  15035  15037      1    1.0955e+02    3.2786e+02 ;     HA - C3     - HB    
 15036  15035  15038      1    1.0882e+02    4.2543e+02 ;     HA - C3     - O31   
 15037  15035  15038      1    1.0882e+02    4.2543e+02 ;     HB - C3     - O31   
 15038  15039  15040      1    1.0260e+02    7.5312e+02 ;    O31 - P31    - O32   
 15038  15039  15060      1    1.0823e+02    8.3680e+02 ;    O31 - P31    - O33   
 15038  15039  15061      1    1.0823e+02    8.3680e+02 ;    O31 - P31    - O34   
 15039  15040  15041      1    1.2050e+02    8.3680e+02 ;    P31 - O32    - C31   
 15040  15039  15060      1    1.0823e+02    8.3680e+02 ;    O32 - P31    - O33   
 15040  15039  15061      1    1.0823e+02    8.3680e+02 ;    O32 - P31    - O34   
 15040  15041  15042      1    1.0882e+02    4.2543e+02 ;    O32 - C31    - H1A   
 15040  15041  15043      1    1.0882e+02    4.2543e+02 ;    O32 - C31    - H1B   
 15040  15041  15044      1    1.0842e+02    5.6718e+02 ;    O32 - C31    - C32   
 15041  15044  15045      1    1.1174e+02    3.8510e+02 ;    C31 - C32    - H2A   
 15041  15044  15046      1    1.1174e+02    3.8510e+02 ;    C31 - C32    - H2B   
 15041  15044  15047      1    1.1432e+02    5.3932e+02 ;    C31 - C32    - N31   
 15042  15041  15043      1    1.0955e+02    3.2786e+02 ;    H1A - C31    - H1B   
 15042  15041  15044      1    1.1007e+02    3.8794e+02 ;    H1A - C31    - C32   
 15043  15041  15044      1    1.1007e+02    3.8794e+02 ;    H1B - C31    - C32   
 15044  15047  15048      1    1.1064e+02    5.2585e+02 ;    C32 - N31    - C33   
 15044  15047  15052      1    1.1064e+02    5.2585e+02 ;    C32 - N31    - C34   
 15044  15047  15056      1    1.1064e+02    5.2585e+02 ;    C32 - N31    - C35   
 15045  15044  15046      1    1.1074e+02    3.2669e+02 ;    H2A - C32    - H2B   
 15045  15044  15047      1    1.0791e+02    4.1020e+02 ;    H2A - C32    - N31   
 15046  15044  15047      1    1.0791e+02    4.1020e+02 ;    H2B - C32    - N31   
 15047  15048  15049      1    1.0791e+02    4.1020e+02 ;    N31 - C33    - H3A   
 15047  15048  15050      1    1.0791e+02    4.1020e+02 ;    N31 - C33    - H3B   
 15047  15048  15051      1    1.0791e+02    4.1020e+02 ;    N31 - C33    - H3C   
 15047  15052  15053      1    1.0791e+02    4.1020e+02 ;    N31 - C34    - H4A   
 15047  15052  15054      1    1.0791e+02    4.1020e+02 ;    N31 - C34    - H4B   
 15047  15052  15055      1    1.0791e+02    4.1020e+02 ;    N31 - C34    - H4C   
 15047  15056  15057      1    1.0791e+02    4.1020e+02 ;    N31 - C35    - H5A   
 15047  15056  15058      1    1.0791e+02    4.1020e+02 ;    N31 - C35    - H5B   
 15047  15056  15059      1    1.0791e+02    4.1020e+02 ;    N31 - C35    - H5C   
 15048  15047  15052      1    1.1064e+02    5.2585e+02 ;    C33 - N31    - C34   
 15048  15047  15056      1    1.1064e+02    5.2585e+02 ;    C33 - N31    - C35   
 15049  15048  15050      1    1.1074e+02    3.2669e+02 ;    H3A - C33    - H3B   
 15049  15048  15051      1    1.1074e+02    3.2669e+02 ;    H3A - C33    - H3C   
 15050  15048  15051      1    1.1074e+02    3.2669e+02 ;    H3B - C33    - H3C   
 15052  15047  15056      1    1.1064e+02    5.2585e+02 ;    C34 - N31    - C35   
 15053  15052  15054      1    1.1074e+02    3.2669e+02 ;    H4A - C34    - H4B   
 15053  15052  15055      1    1.1074e+02    3.2669e+02 ;    H4A - C34    - H4C   
 15054  15052  15055      1    1.1074e+02    3.2669e+02 ;    H4B - C34    - H4C   
 15057  15056  15058      1    1.1074e+02    3.2669e+02 ;    H5A - C35    - H5B   
 15057  15056  15059      1    1.1074e+02    3.2669e+02 ;    H5A - C35    - H5C   
 15058  15056  15059      1    1.1074e+02    3.2669e+02 ;    H5B - C35    - H5C   
 15060  15039  15061      1    1.1990e+02    1.1715e+03 ;    O33 - P31    - O34   
 15062  15063  15064      1    1.2333e+02    6.3538e+02 ;    O21 - C21    - O22   
 15062  15063  15102      1    1.1196e+02    5.7957e+02 ;    O21 - C21    - C12   
 15063  15102  15099      1    1.1053e+02    5.3379e+02 ;    C21 - C12    - C13   
 15063  15102  15103      1    1.0968e+02    3.9497e+02 ;    C21 - C12    - H2R   
 15063  15102  15104      1    1.0968e+02    3.9497e+02 ;    C21 - C12    - H2S   
 15064  15063  15102      1    1.2311e+02    5.6928e+02 ;    O22 - C21    - C12   
 15065  15066  15067      1    1.0835e+02    3.2995e+02 ;   H14T - C114   - H14R  
 15065  15066  15068      1    1.0835e+02    3.2995e+02 ;   H14T - C114   - H14S  
 15065  15066  15069      1    1.1005e+02    3.8802e+02 ;   H14T - C114   - C113  
 15066  15069  15070      1    1.1005e+02    3.8802e+02 ;   C114 - C113   - H13R  
 15066  15069  15071      1    1.1005e+02    3.8802e+02 ;   C114 - C113   - H13S  
 15066  15069  15072      1    1.1205e+02    3.9497e+02 ;   C114 - C113   - C112  
 15067  15066  15068      1    1.0835e+02    3.2995e+02 ;   H14R - C114   - H14S  
 15067  15066  15069      1    1.1005e+02    3.8802e+02 ;   H14R - C114   - C113  
 15068  15066  15069      1    1.1005e+02    3.8802e+02 ;   H14S - C114   - C113  
 15069  15072  15073      1    1.1005e+02    3.8802e+02 ;   C113 - C112   - H12R  
 15069  15072  15074      1    1.1005e+02    3.8802e+02 ;   C113 - C112   - H12S  
 15069  15072  15075      1    1.1205e+02    3.9497e+02 ;   C113 - C112   - C111  
 15070  15069  15071      1    1.0835e+02    3.2995e+02 ;   H13R - C113   - H13S  
 15070  15069  15072      1    1.1005e+02    3.8802e+02 ;   H13R - C113   - C112  
 15071  15069  15072      1    1.1005e+02    3.8802e+02 ;   H13S - C113   - C112  
 15072  15075  15076      1    1.1005e+02    3.8802e+02 ;   C112 - C111   - H11R  
 15072  15075  15077      1    1.1005e+02    3.8802e+02 ;   C112 - C111   - H11S  
 15072  15075  15078      1    1.1205e+02    3.9497e+02 ;   C112 - C111   - C110  
 15073  15072  15074      1    1.0835e+02    3.2995e+02 ;   H12R - C112   - H12S  
 15073  15072  15075      1    1.1005e+02    3.8802e+02 ;   H12R - C112   - C111  
 15074  15072  15075      1    1.1005e+02    3.8802e+02 ;   H12S - C112   - C111  
 15075  15078  15079      1    1.1005e+02    3.8802e+02 ;   C111 - C110   - H10R  
 15075  15078  15080      1    1.1005e+02    3.8802e+02 ;   C111 - C110   - H10S  
 15075  15078  15081      1    1.1205e+02    3.9497e+02 ;   C111 - C110   - C19   
 15076  15075  15077      1    1.0835e+02    3.2995e+02 ;   H11R - C111   - H11S  
 15076  15075  15078      1    1.1005e+02    3.8802e+02 ;   H11R - C111   - C110  
 15077  15075  15078      1    1.1005e+02    3.8802e+02 ;   H11S - C111   - C110  
 15078  15081  15082      1    1.1005e+02    3.8802e+02 ;   C110 - C19    - H9R   
 15078  15081  15083      1    1.1005e+02    3.8802e+02 ;   C110 - C19    - H9S   
 15078  15081  15084      1    1.1205e+02    3.9497e+02 ;   C110 - C19    - C18   
 15079  15078  15080      1    1.0835e+02    3.2995e+02 ;   H10R - C110   - H10S  
 15079  15078  15081      1    1.1005e+02    3.8802e+02 ;   H10R - C110   - C19   
 15080  15078  15081      1    1.1005e+02    3.8802e+02 ;   H10S - C110   - C19   
 15081  15084  15085      1    1.1005e+02    3.8802e+02 ;    C19 - C18    - H8R   
 15081  15084  15086      1    1.1005e+02    3.8802e+02 ;    C19 - C18    - H8S   
 15081  15084  15087      1    1.1205e+02    3.9497e+02 ;    C19 - C18    - C17   
 15082  15081  15083      1    1.0835e+02    3.2995e+02 ;    H9R - C19    - H9S   
 15082  15081  15084      1    1.1005e+02    3.8802e+02 ;    H9R - C19    - C18   
 15083  15081  15084      1    1.1005e+02    3.8802e+02 ;    H9S - C19    - C18   
 15084  15087  15088      1    1.1005e+02    3.8802e+02 ;    C18 - C17    - H7R   
 15084  15087  15089      1    1.1005e+02    3.8802e+02 ;    C18 - C17    - H7S   
 15084  15087  15090      1    1.1205e+02    3.9497e+02 ;    C18 - C17    - C16   
 15085  15084  15086      1    1.0835e+02    3.2995e+02 ;    H8R - C18    - H8S   
 15085  15084  15087      1    1.1005e+02    3.8802e+02 ;    H8R - C18    - C17   
 15086  15084  15087      1    1.1005e+02    3.8802e+02 ;    H8S - C18    - C17   
 15087  15090  15091      1    1.1005e+02    3.8802e+02 ;    C17 - C16    - H6R   
 15087  15090  15092      1    1.1005e+02    3.8802e+02 ;    C17 - C16    - H6S   
 15087  15090  15093      1    1.1205e+02    3.9497e+02 ;    C17 - C16    - C15   
 15088  15087  15089      1    1.0835e+02    3.2995e+02 ;    H7R - C17    - H7S   
 15088  15087  15090      1    1.1005e+02    3.8802e+02 ;    H7R - C17    - C16   
 15089  15087  15090      1    1.1005e+02    3.8802e+02 ;    H7S - C17    - C16   
 15090  15093  15094      1    1.1005e+02    3.8802e+02 ;    C16 - C15    - H5R   
 15090  15093  15095      1    1.1005e+02    3.8802e+02 ;    C16 - C15    - H5S   
 15090  15093  15096      1    1.1205e+02    3.9497e+02 ;    C16 - C15    - C14   
 15091  15090  15092      1    1.0835e+02    3.2995e+02 ;    H6R - C16    - H6S   
 15091  15090  15093      1    1.1005e+02    3.8802e+02 ;    H6R - C16    - C15   
 15092  15090  15093      1    1.1005e+02    3.8802e+02 ;    H6S - C16    - C15   
 15093  15096  15097      1    1.1005e+02    3.8802e+02 ;    C15 - C14    - H4R   
 15093  15096  15098      1    1.1005e+02    3.8802e+02 ;    C15 - C14    - H4S   
 15093  15096  15099      1    1.1205e+02    3.9497e+02 ;    C15 - C14    - C13   
 15094  15093  15095      1    1.0835e+02    3.2995e+02 ;    H5R - C15    - H5S   
 15094  15093  15096      1    1.1005e+02    3.8802e+02 ;    H5R - C15    - C14   
 15095  15093  15096      1    1.1005e+02    3.8802e+02 ;    H5S - C15    - C14   
 15096  15099  15100      1    1.1005e+02    3.8802e+02 ;    C14 - C13    - H3R   
 15096  15099  15101      1    1.1005e+02    3.8802e+02 ;    C14 - C13    - H3S   
 15096  15099  15102      1    1.1205e+02    3.9497e+02 ;    C14 - C13    - C12   
 15097  15096  15098      1    1.0835e+02    3.2995e+02 ;    H4R - C14    - H4S   
 15097  15096  15099      1    1.1005e+02    3.8802e+02 ;    H4R - C14    - C13   
 15098  15096  15099      1    1.1005e+02    3.8802e+02 ;    H4S - C14    - C13   
 15099  15102  15103      1    1.1005e+02    3.8802e+02 ;    C13 - C12    - H2R   
 15099  15102  15104      1    1.1005e+02    3.8802e+02 ;    C13 - C12    - H2S   
 15100  15099  15101      1    1.0835e+02    3.2995e+02 ;    H3R - C13    - H3S   
 15100  15099  15102      1    1.1005e+02    3.8802e+02 ;    H3R - C13    - C12   
 15101  15099  15102      1    1.1005e+02    3.8802e+02 ;    H3S - C13    - C12   
 15103  15102  15104      1    1.0835e+02    3.2995e+02 ;    H2R - C12    - H2S   

[ dihedrals ] ; propers
; for gromacs 4.5 or higher, using funct 9
;    i      j      k      l   func   phase     kd      pn
     1      2      5      6      9     0.00   0.62760   3 ;   H14T-  C114-  C113-  H13R
     1      2      5      7      9     0.00   0.62760   3 ;   H14T-  C114-  C113-  H13S
     1      2      5      8      9     0.00   0.66944   3 ;   H14T-  C114-  C113-  C112
     2      5      8      9      9     0.00   0.66944   3 ;   C114-  C113-  C112-  H12R
     2      5      8     10      9     0.00   0.66944   3 ;   C114-  C113-  C112-  H12S
     2      5      8     11      9     0.00   0.41840   1 ;   C114-  C113-  C112-  C111
     2      5      8     11      9     0.00   0.41840   2 ;   C114-  C113-  C112-  C111
     2      5      8     11      9     0.00   0.41840   4 ;   C114-  C113-  C112-  C111
     2      5      8     11      9     0.00   0.41840   5 ;   C114-  C113-  C112-  C111
     2      5      8     11      9     0.00   1.25520   3 ;   C114-  C113-  C112-  C111
     3      2      5      6      9     0.00   0.62760   3 ;   H14R-  C114-  C113-  H13R
     3      2      5      7      9     0.00   0.62760   3 ;   H14R-  C114-  C113-  H13S
     3      2      5      8      9     0.00   0.66944   3 ;   H14R-  C114-  C113-  C112
     4      2      5      6      9     0.00   0.62760   3 ;   H14S-  C114-  C113-  H13R
     4      2      5      7      9     0.00   0.62760   3 ;   H14S-  C114-  C113-  H13S
     4      2      5      8      9     0.00   0.66944   3 ;   H14S-  C114-  C113-  C112
     5      8     11     12      9     0.00   0.66944   3 ;   C113-  C112-  C111-  H11R
     5      8     11     13      9     0.00   0.66944   3 ;   C113-  C112-  C111-  H11S
     5      8     11     14      9     0.00   0.41840   1 ;   C113-  C112-  C111-  C110
     5      8     11     14      9     0.00   0.41840   2 ;   C113-  C112-  C111-  C110
     5      8     11     14      9     0.00   0.41840   4 ;   C113-  C112-  C111-  C110
     5      8     11     14      9     0.00   0.41840   5 ;   C113-  C112-  C111-  C110
     5      8     11     14      9     0.00   1.25520   3 ;   C113-  C112-  C111-  C110
     6      5      8      9      9     0.00   0.62760   3 ;   H13R-  C113-  C112-  H12R
     6      5      8     10      9     0.00   0.62760   3 ;   H13R-  C113-  C112-  H12S
     6      5      8     11      9     0.00   0.66944   3 ;   H13R-  C113-  C112-  C111
     7      5      8      9      9     0.00   0.62760   3 ;   H13S-  C113-  C112-  H12R
     7      5      8     10      9     0.00   0.62760   3 ;   H13S-  C113-  C112-  H12S
     7      5      8     11      9     0.00   0.66944   3 ;   H13S-  C113-  C112-  C111
     8     11     14     15      9     0.00   0.66944   3 ;   C112-  C111-  C110-  H10R
     8     11     14     16      9     0.00   0.66944   3 ;   C112-  C111-  C110-  H10S
     8     11     14     17      9     0.00   0.41840   1 ;   C112-  C111-  C110-   C19
     8     11     14     17      9     0.00   0.41840   2 ;   C112-  C111-  C110-   C19
     8     11     14     17      9     0.00   0.41840   4 ;   C112-  C111-  C110-   C19
     8     11     14     17      9     0.00   0.41840   5 ;   C112-  C111-  C110-   C19
     8     11     14     17      9     0.00   1.25520   3 ;   C112-  C111-  C110-   C19
     9      8     11     12      9     0.00   0.62760   3 ;   H12R-  C112-  C111-  H11R
     9      8     11     13      9     0.00   0.62760   3 ;   H12R-  C112-  C111-  H11S
     9      8     11     14      9     0.00   0.66944   3 ;   H12R-  C112-  C111-  C110
    10      8     11     12      9     0.00   0.62760   3 ;   H12S-  C112-  C111-  H11R
    10      8     11     13      9     0.00   0.62760   3 ;   H12S-  C112-  C111-  H11S
    10      8     11     14      9     0.00   0.66944   3 ;   H12S-  C112-  C111-  C110
    11     14     17     18      9     0.00   0.66944   3 ;   C111-  C110-   C19-   H9R
    11     14     17     19      9     0.00   0.66944   3 ;   C111-  C110-   C19-   H9S
    11     14     17     20      9     0.00   0.41840   1 ;   C111-  C110-   C19-   C18
    11     14     17     20      9     0.00   0.41840   2 ;   C111-  C110-   C19-   C18
    11     14     17     20      9     0.00   0.41840   4 ;   C111-  C110-   C19-   C18
    11     14     17     20      9     0.00   0.41840   5 ;   C111-  C110-   C19-   C18
    11     14     17     20      9     0.00   1.25520   3 ;   C111-  C110-   C19-   C18
    12     11     14     15      9     0.00   0.62760   3 ;   H11R-  C111-  C110-  H10R
    12     11     14     16      9     0.00   0.62760   3 ;   H11R-  C111-  C110-  H10S
    12     11     14     17      9     0.00   0.66944   3 ;   H11R-  C111-  C110-   C19
    13     11     14     15      9     0.00   0.62760   3 ;   H11S-  C111-  C110-  H10R
    13     11     14     16      9     0.00   0.62760   3 ;   H11S-  C111-  C110-  H10S
    13     11     14     17      9     0.00   0.66944   3 ;   H11S-  C111-  C110-   C19
    14     17     20     21      9     0.00   0.66944   3 ;   C110-   C19-   C18-   H8R
    14     17     20     22      9     0.00   0.66944   3 ;   C110-   C19-   C18-   H8S
    14     17     20     23      9     0.00   0.41840   1 ;   C110-   C19-   C18-   C17
    14     17     20     23      9     0.00   0.41840   2 ;   C110-   C19-   C18-   C17
    14     17     20     23      9     0.00   0.41840   4 ;   C110-   C19-   C18-   C17
    14     17     20     23      9     0.00   0.41840   5 ;   C110-   C19-   C18-   C17
    14     17     20     23      9     0.00   1.25520   3 ;   C110-   C19-   C18-   C17
    15     14     17     18      9     0.00   0.62760   3 ;   H10R-  C110-   C19-   H9R
    15     14     17     19      9     0.00   0.62760   3 ;   H10R-  C110-   C19-   H9S
    15     14     17     20      9     0.00   0.66944   3 ;   H10R-  C110-   C19-   C18
    16     14     17     18      9     0.00   0.62760   3 ;   H10S-  C110-   C19-   H9R
    16     14     17     19      9     0.00   0.62760   3 ;   H10S-  C110-   C19-   H9S
    16     14     17     20      9     0.00   0.66944   3 ;   H10S-  C110-   C19-   C18
    17     20     23     24      9     0.00   0.66944   3 ;    C19-   C18-   C17-   H7R
    17     20     23     25      9     0.00   0.66944   3 ;    C19-   C18-   C17-   H7S
    17     20     23     26      9     0.00   0.41840   1 ;    C19-   C18-   C17-   C16
    17     20     23     26      9     0.00   0.41840   2 ;    C19-   C18-   C17-   C16
    17     20     23     26      9     0.00   0.41840   4 ;    C19-   C18-   C17-   C16
    17     20     23     26      9     0.00   0.41840   5 ;    C19-   C18-   C17-   C16
    17     20     23     26      9     0.00   1.25520   3 ;    C19-   C18-   C17-   C16
    18     17     20     21      9     0.00   0.62760   3 ;    H9R-   C19-   C18-   H8R
    18     17     20     22      9     0.00   0.62760   3 ;    H9R-   C19-   C18-   H8S
    18     17     20     23      9     0.00   0.66944   3 ;    H9R-   C19-   C18-   C17
    19     17     20     21      9     0.00   0.62760   3 ;    H9S-   C19-   C18-   H8R
    19     17     20     22      9     0.00   0.62760   3 ;    H9S-   C19-   C18-   H8S
    19     17     20     23      9     0.00   0.66944   3 ;    H9S-   C19-   C18-   C17
    20     23     26     27      9     0.00   0.66944   3 ;    C18-   C17-   C16-   H6R
    20     23     26     28      9     0.00   0.66944   3 ;    C18-   C17-   C16-   H6S
    20     23     26     29      9     0.00   0.41840   1 ;    C18-   C17-   C16-   C15
    20     23     26     29      9     0.00   0.41840   2 ;    C18-   C17-   C16-   C15
    20     23     26     29      9     0.00   0.41840   4 ;    C18-   C17-   C16-   C15
    20     23     26     29      9     0.00   0.41840   5 ;    C18-   C17-   C16-   C15
    20     23     26     29      9     0.00   1.25520   3 ;    C18-   C17-   C16-   C15
    21     20     23     24      9     0.00   0.62760   3 ;    H8R-   C18-   C17-   H7R
    21     20     23     25      9     0.00   0.62760   3 ;    H8R-   C18-   C17-   H7S
    21     20     23     26      9     0.00   0.66944   3 ;    H8R-   C18-   C17-   C16
    22     20     23     24      9     0.00   0.62760   3 ;    H8S-   C18-   C17-   H7R
    22     20     23     25      9     0.00   0.62760   3 ;    H8S-   C18-   C17-   H7S
    22     20     23     26      9     0.00   0.66944   3 ;    H8S-   C18-   C17-   C16
    23     26     29     30      9     0.00   0.66944   3 ;    C17-   C16-   C15-   H5R
    23     26     29     31      9     0.00   0.66944   3 ;    C17-   C16-   C15-   H5S
    23     26     29     32      9     0.00   0.41840   1 ;    C17-   C16-   C15-   C14
    23     26     29     32      9     0.00   0.41840   2 ;    C17-   C16-   C15-   C14
    23     26     29     32      9     0.00   0.41840   4 ;    C17-   C16-   C15-   C14
    23     26     29     32      9     0.00   0.41840   5 ;    C17-   C16-   C15-   C14
    23     26     29     32      9     0.00   1.25520   3 ;    C17-   C16-   C15-   C14
    24     23     26     27      9     0.00   0.62760   3 ;    H7R-   C17-   C16-   H6R
    24     23     26     28      9     0.00   0.62760   3 ;    H7R-   C17-   C16-   H6S
    24     23     26     29      9     0.00   0.66944   3 ;    H7R-   C17-   C16-   C15
    25     23     26     27      9     0.00   0.62760   3 ;    H7S-   C17-   C16-   H6R
    25     23     26     28      9     0.00   0.62760   3 ;    H7S-   C17-   C16-   H6S
    25     23     26     29      9     0.00   0.66944   3 ;    H7S-   C17-   C16-   C15
    26     29     32     33      9     0.00   0.66944   3 ;    C16-   C15-   C14-   H4R
    26     29     32     34      9     0.00   0.66944   3 ;    C16-   C15-   C14-   H4S
    26     29     32     35      9     0.00   0.41840   1 ;    C16-   C15-   C14-   C13
    26     29     32     35      9     0.00   0.41840   2 ;    C16-   C15-   C14-   C13
    26     29     32     35      9     0.00   0.41840   4 ;    C16-   C15-   C14-   C13
    26     29     32     35      9     0.00   0.41840   5 ;    C16-   C15-   C14-   C13
    26     29     32     35      9     0.00   1.25520   3 ;    C16-   C15-   C14-   C13
    27     26     29     30      9     0.00   0.62760   3 ;    H6R-   C16-   C15-   H5R
    27     26     29     31      9     0.00   0.62760   3 ;    H6R-   C16-   C15-   H5S
    27     26     29     32      9     0.00   0.66944   3 ;    H6R-   C16-   C15-   C14
    28     26     29     30      9     0.00   0.62760   3 ;    H6S-   C16-   C15-   H5R
    28     26     29     31      9     0.00   0.62760   3 ;    H6S-   C16-   C15-   H5S
    28     26     29     32      9     0.00   0.66944   3 ;    H6S-   C16-   C15-   C14
    29     32     35     36      9     0.00   0.66944   3 ;    C15-   C14-   C13-   H3R
    29     32     35     37      9     0.00   0.66944   3 ;    C15-   C14-   C13-   H3S
    29     32     35     38      9     0.00   0.41840   1 ;    C15-   C14-   C13-   C12
    29     32     35     38      9     0.00   0.41840   2 ;    C15-   C14-   C13-   C12
    29     32     35     38      9     0.00   0.41840   4 ;    C15-   C14-   C13-   C12
    29     32     35     38      9     0.00   0.41840   5 ;    C15-   C14-   C13-   C12
    29     32     35     38      9     0.00   1.25520   3 ;    C15-   C14-   C13-   C12
    30     29     32     33      9     0.00   0.62760   3 ;    H5R-   C15-   C14-   H4R
    30     29     32     34      9     0.00   0.62760   3 ;    H5R-   C15-   C14-   H4S
    30     29     32     35      9     0.00   0.66944   3 ;    H5R-   C15-   C14-   C13
    31     29     32     33      9     0.00   0.62760   3 ;    H5S-   C15-   C14-   H4R
    31     29     32     34      9     0.00   0.62760   3 ;    H5S-   C15-   C14-   H4S
    31     29     32     35      9     0.00   0.66944   3 ;    H5S-   C15-   C14-   C13
    32     35     38     39      9     0.00   0.66944   3 ;    C14-   C13-   C12-   H2R
    32     35     38     40      9     0.00   0.66944   3 ;    C14-   C13-   C12-   H2S
    32     35     38     41      9     0.00   0.65270   3 ;    C14-   C13-   C12-   C11
    33     32     35     36      9     0.00   0.62760   3 ;    H4R-   C14-   C13-   H3R
    33     32     35     37      9     0.00   0.62760   3 ;    H4R-   C14-   C13-   H3S
    33     32     35     38      9     0.00   0.66944   3 ;    H4R-   C14-   C13-   C12
    34     32     35     36      9     0.00   0.62760   3 ;    H4S-   C14-   C13-   H3R
    34     32     35     37      9     0.00   0.62760   3 ;    H4S-   C14-   C13-   H3S
    34     32     35     38      9     0.00   0.66944   3 ;    H4S-   C14-   C13-   C12
    35     38     41     42      9   180.00   0.00000   2 ;    C13-   C12-   C11-   O12
    35     38     41     43      9   180.00   0.00000   2 ;    C13-   C12-   C11-   O11
    36     35     38     39      9     0.00   0.62760   3 ;    H3R-   C13-   C12-   H2R
    36     35     38     40      9     0.00   0.62760   3 ;    H3R-   C13-   C12-   H2S
    36     35     38     41      9     0.00   0.65270   3 ;    H3R-   C13-   C12-   C11
    37     35     38     39      9     0.00   0.62760   3 ;    H3S-   C13-   C12-   H2R
    37     35     38     40      9     0.00   0.62760   3 ;    H3S-   C13-   C12-   H2S
    37     35     38     41      9     0.00   0.65270   3 ;    H3S-   C13-   C12-   C11
    38     41     43     44      9   180.00  11.29680   2 ;    C12-   C11-   O11-    C1
    39     38     41     42      9     0.00   3.34720   1 ;    H2R-   C12-   C11-   O12
    39     38     41     42      9   180.00   0.33472   3 ;    H2R-   C12-   C11-   O12
    39     38     41     43      9   180.00   0.00000   2 ;    H2R-   C12-   C11-   O11
    40     38     41     42      9     0.00   3.34720   1 ;    H2S-   C12-   C11-   O12
    40     38     41     42      9   180.00   0.33472   3 ;    H2S-   C12-   C11-   O12
    40     38     41     43      9   180.00   0.00000   2 ;    H2S-   C12-   C11-   O11
    41     43     44     45      9     0.00   1.60247   3 ;    C11-   O11-    C1-    HR
    41     43     44     46      9     0.00   1.60247   3 ;    C11-   O11-    C1-    HS
    41     43     44     47      9     0.00  -0.41840   1 ;    C11-   O11-    C1-    C2
    42     41     43     44      9   180.00   5.85760   1 ;    O12-   C11-   O11-    C1
    42     41     43     44      9   180.00  11.29680   2 ;    O12-   C11-   O11-    C1
    43     44     47     48      9     0.00   0.00000   0 ;    O11-    C1-    C2-    HX
    43     44     47     48      9     0.00   1.04600   1 ;    O11-    C1-    C2-    HX
    43     44     47     49      9     0.00   0.00000   0 ;    O11-    C1-    C2-    C3
    43     44     47     49      9     0.00   0.00000   0 ;    O11-    C1-    C2-    C3
    43     44     47     49      9     0.00   0.00000   0 ;    O11-    C1-    C2-    C3
    43     44     47     49      9     0.00   0.00000   0 ;    O11-    C1-    C2-    C3
    43     44     47     49      9     0.00   0.00000   0 ;    O11-    C1-    C2-    C3
    43     44     47     76      9     0.00   1.25520   2 ;    O11-    C1-    C2-   O21
    43     44     47     76      9     0.00   4.18400   3 ;    O11-    C1-    C2-   O21
    43     44     47     76      9   180.00  -0.41840   1 ;    O11-    C1-    C2-   O21
    44     47     49     50      9     0.00   0.65270   3 ;     C1-    C2-    C3-    HA
    44     47     49     51      9     0.00   0.65270   3 ;     C1-    C2-    C3-    HB
    44     47     49     52      9   180.00   3.34720   1 ;     C1-    C2-    C3-   O31
    44     47     76     77      9     0.00  -0.41840   1 ;     C1-    C2-   O21-   C21
    45     44     47     48      9     0.00   0.65270   3 ;     HR-    C1-    C2-    HX
    45     44     47     49      9     0.00   0.65270   3 ;     HR-    C1-    C2-    C3
    45     44     47     76      9     0.00   0.00000   0 ;     HR-    C1-    C2-   O21
    45     44     47     76      9     0.00   1.04600   1 ;     HR-    C1-    C2-   O21
    46     44     47     48      9     0.00   0.65270   3 ;     HS-    C1-    C2-    HX
    46     44     47     49      9     0.00   0.65270   3 ;     HS-    C1-    C2-    C3
    46     44     47     76      9     0.00   0.00000   0 ;     HS-    C1-    C2-   O21
    46     44     47     76      9     0.00   1.04600   1 ;     HS-    C1-    C2-   O21
    47     49     52     53      9     0.00   0.00000   0 ;     C2-    C3-   O31-   P31
    47     49     52     53      9   180.00  -3.34720   2 ;     C2-    C3-   O31-   P31
    47     76     77     78      9   180.00   5.85760   1 ;     C2-   O21-   C21-   O22
    47     76     77     78      9   180.00  11.29680   2 ;     C2-   O21-   C21-   O22
    47     76     77    116      9   180.00  11.29680   2 ;     C2-   O21-   C21-   C12
    48     47     49     50      9     0.00   0.65270   3 ;     HX-    C2-    C3-    HA
    48     47     49     51      9     0.00   0.65270   3 ;     HX-    C2-    C3-    HB
    48     47     49     52      9     0.00   0.00000   0 ;     HX-    C2-    C3-   O31
    48     47     49     52      9     0.00   1.04600   1 ;     HX-    C2-    C3-   O31
    48     47     76     77      9     0.00   1.60247   3 ;     HX-    C2-   O21-   C21
    49     47     76     77      9     0.00  -0.41840   1 ;     C3-    C2-   O21-   C21
    49     52     53     54      9     0.00   2.51040   3 ;     C3-   O31-   P31-   O32
    49     52     53     54      9     0.00   9.62320   2 ;     C3-   O31-   P31-   O32
    49     52     53     74      9     0.00   0.00000   0 ;     C3-   O31-   P31-   O33
    49     52     53     74      9     0.00   0.00000   0 ;     C3-   O31-   P31-   O33
    49     52     53     74      9     0.00   0.00000   0 ;     C3-   O31-   P31-   O33
    49     52     53     74      9     0.00   0.00000   0 ;     C3-   O31-   P31-   O33
    49     52     53     74      9     0.00   0.83680   2 ;     C3-   O31-   P31-   O33
    49     52     53     75      9     0.00   0.00000   0 ;     C3-   O31-   P31-   O34
    49     52     53     75      9     0.00   0.00000   0 ;     C3-   O31-   P31-   O34
    49     52     53     75      9     0.00   0.00000   0 ;     C3-   O31-   P31-   O34
    49     52     53     75      9     0.00   0.00000   0 ;     C3-   O31-   P31-   O34
    49     52     53     75      9     0.00   0.83680   2 ;     C3-   O31-   P31-   O34
    50     49     47     76      9     0.00   0.00000   0 ;     HA-    C3-    C2-   O21
    50     49     47     76      9     0.00   1.04600   1 ;     HA-    C3-    C2-   O21
    50     49     52     53      9     0.00   0.00000   0 ;     HA-    C3-   O31-   P31
    50     49     52     53      9     0.00   0.00000   0 ;     HA-    C3-   O31-   P31
    50     49     52     53      9     0.00   0.00000   0 ;     HA-    C3-   O31-   P31
    50     49     52     53      9     0.00   0.00000   0 ;     HA-    C3-   O31-   P31
    50     49     52     53      9     0.00   1.60247   3 ;     HA-    C3-   O31-   P31
    51     49     47     76      9     0.00   0.00000   0 ;     HB-    C3-    C2-   O21
    51     49     47     76      9     0.00   1.04600   1 ;     HB-    C3-    C2-   O21
    51     49     52     53      9     0.00   0.00000   0 ;     HB-    C3-   O31-   P31
    51     49     52     53      9     0.00   0.00000   0 ;     HB-    C3-   O31-   P31
    51     49     52     53      9     0.00   0.00000   0 ;     HB-    C3-   O31-   P31
    51     49     52     53      9     0.00   0.00000   0 ;     HB-    C3-   O31-   P31
    51     49     52     53      9     0.00   1.60247   3 ;     HB-    C3-   O31-   P31
    52     49     47     76      9     0.00   0.00000   0 ;    O31-    C3-    C2-   O21
    52     49     47     76      9     0.00   0.00000   0 ;    O31-    C3-    C2-   O21
    52     49     47     76      9     0.00   0.00000   0 ;    O31-    C3-    C2-   O21
    52     49     47     76      9     0.00   0.00000   0 ;    O31-    C3-    C2-   O21
    52     49     47     76      9     0.00   0.00000   0 ;    O31-    C3-    C2-   O21
    52     53     54     55      9     0.00   2.51040   3 ;    O31-   P31-   O32-   C31
    52     53     54     55      9     0.00   9.62320   2 ;    O31-   P31-   O32-   C31
    53     54     55     56      9     0.00   0.00000   0 ;    P31-   O32-   C31-   H1A
    53     54     55     56      9     0.00   0.00000   0 ;    P31-   O32-   C31-   H1A
    53     54     55     56      9     0.00   0.00000   0 ;    P31-   O32-   C31-   H1A
    53     54     55     56      9     0.00   0.00000   0 ;    P31-   O32-   C31-   H1A
    53     54     55     56      9     0.00   1.60247   3 ;    P31-   O32-   C31-   H1A
    53     54     55     57      9     0.00   0.00000   0 ;    P31-   O32-   C31-   H1B
    53     54     55     57      9     0.00   0.00000   0 ;    P31-   O32-   C31-   H1B
    53     54     55     57      9     0.00   0.00000   0 ;    P31-   O32-   C31-   H1B
    53     54     55     57      9     0.00   0.00000   0 ;    P31-   O32-   C31-   H1B
    53     54     55     57      9     0.00   1.60247   3 ;    P31-   O32-   C31-   H1B
    53     54     55     58      9     0.00   0.00000   0 ;    P31-   O32-   C31-   C32
    53     54     55     58      9   180.00  -3.34720   2 ;    P31-   O32-   C31-   C32
    54     55     58     59      9     0.00   0.65270   3 ;    O32-   C31-   C32-   H2A
    54     55     58     60      9     0.00   0.65270   3 ;    O32-   C31-   C32-   H2B
    54     55     58     61      9     0.00   4.18400   3 ;    O32-   C31-   C32-   N31
    55     54     53     74      9     0.00   0.00000   0 ;    C31-   O32-   P31-   O33
    55     54     53     74      9     0.00   0.00000   0 ;    C31-   O32-   P31-   O33
    55     54     53     74      9     0.00   0.00000   0 ;    C31-   O32-   P31-   O33
    55     54     53     74      9     0.00   0.00000   0 ;    C31-   O32-   P31-   O33
    55     54     53     74      9     0.00   0.83680   2 ;    C31-   O32-   P31-   O33
    55     54     53     75      9     0.00   0.00000   0 ;    C31-   O32-   P31-   O34
    55     54     53     75      9     0.00   0.00000   0 ;    C31-   O32-   P31-   O34
    55     54     53     75      9     0.00   0.00000   0 ;    C31-   O32-   P31-   O34
    55     54     53     75      9     0.00   0.00000   0 ;    C31-   O32-   P31-   O34
    55     54     53     75      9     0.00   0.83680   2 ;    C31-   O32-   P31-   O34
    55     58     61     62      9     0.00   0.65270   3 ;    C31-   C32-   N31-   C33
    55     58     61     66      9     0.00   0.65270   3 ;    C31-   C32-   N31-   C34
    55     58     61     70      9     0.00   0.65270   3 ;    C31-   C32-   N31-   C35
    56     55     58     59      9     0.00   0.65270   3 ;    H1A-   C31-   C32-   H2A
    56     55     58     60      9     0.00   0.65270   3 ;    H1A-   C31-   C32-   H2B
    56     55     58     61      9     0.00   0.65270   3 ;    H1A-   C31-   C32-   N31
    57     55     58     59      9     0.00   0.65270   3 ;    H1B-   C31-   C32-   H2A
    57     55     58     60      9     0.00   0.65270   3 ;    H1B-   C31-   C32-   H2B
    57     55     58     61      9     0.00   0.65270   3 ;    H1B-   C31-   C32-   N31
    58     61     62     63      9     0.00   0.65270   3 ;    C32-   N31-   C33-   H3A
    58     61     62     64      9     0.00   0.65270   3 ;    C32-   N31-   C33-   H3B
    58     61     62     65      9     0.00   0.65270   3 ;    C32-   N31-   C33-   H3C
    58     61     66     67      9     0.00   0.65270   3 ;    C32-   N31-   C34-   H4A
    58     61     66     68      9     0.00   0.65270   3 ;    C32-   N31-   C34-   H4B
    58     61     66     69      9     0.00   0.65270   3 ;    C32-   N31-   C34-   H4C
    58     61     70     71      9     0.00   0.65270   3 ;    C32-   N31-   C35-   H5A
    58     61     70     72      9     0.00   0.65270   3 ;    C32-   N31-   C35-   H5B
    58     61     70     73      9     0.00   0.65270   3 ;    C32-   N31-   C35-   H5C
    59     58     61     62      9     0.00   0.65270   3 ;    H2A-   C32-   N31-   C33
    59     58     61     66      9     0.00   0.65270   3 ;    H2A-   C32-   N31-   C34
    59     58     61     70      9     0.00   0.65270   3 ;    H2A-   C32-   N31-   C35
    60     58     61     62      9     0.00   0.65270   3 ;    H2B-   C32-   N31-   C33
    60     58     61     66      9     0.00   0.65270   3 ;    H2B-   C32-   N31-   C34
    60     58     61     70      9     0.00   0.65270   3 ;    H2B-   C32-   N31-   C35
    62     61     66     67      9     0.00   0.65270   3 ;    C33-   N31-   C34-   H4A
    62     61     66     68      9     0.00   0.65270   3 ;    C33-   N31-   C34-   H4B
    62     61     66     69      9     0.00   0.65270   3 ;    C33-   N31-   C34-   H4C
    62     61     70     71      9     0.00   0.65270   3 ;    C33-   N31-   C35-   H5A
    62     61     70     72      9     0.00   0.65270   3 ;    C33-   N31-   C35-   H5B
    62     61     70     73      9     0.00   0.65270   3 ;    C33-   N31-   C35-   H5C
    63     62     61     66      9     0.00   0.65270   3 ;    H3A-   C33-   N31-   C34
    63     62     61     70      9     0.00   0.65270   3 ;    H3A-   C33-   N31-   C35
    64     62     61     66      9     0.00   0.65270   3 ;    H3B-   C33-   N31-   C34
    64     62     61     70      9     0.00   0.65270   3 ;    H3B-   C33-   N31-   C35
    65     62     61     66      9     0.00   0.65270   3 ;    H3C-   C33-   N31-   C34
    65     62     61     70      9     0.00   0.65270   3 ;    H3C-   C33-   N31-   C35
    66     61     70     71      9     0.00   0.65270   3 ;    C34-   N31-   C35-   H5A
    66     61     70     72      9     0.00   0.65270   3 ;    C34-   N31-   C35-   H5B
    66     61     70     73      9     0.00   0.65270   3 ;    C34-   N31-   C35-   H5C
    67     66     61     70      9     0.00   0.65270   3 ;    H4A-   C34-   N31-   C35
    68     66     61     70      9     0.00   0.65270   3 ;    H4B-   C34-   N31-   C35
    69     66     61     70      9     0.00   0.65270   3 ;    H4C-   C34-   N31-   C35
    76     77    116    113      9   180.00   0.00000   2 ;    O21-   C21-   C12-   C13
    76     77    116    117      9   180.00   0.00000   2 ;    O21-   C21-   C12-   H2R
    76     77    116    118      9   180.00   0.00000   2 ;    O21-   C21-   C12-   H2S
    77    116    113    110      9     0.00   0.65270   3 ;    C21-   C12-   C13-   C14
    77    116    113    114      9     0.00   0.65270   3 ;    C21-   C12-   C13-   H3R
    77    116    113    115      9     0.00   0.65270   3 ;    C21-   C12-   C13-   H3S
    78     77    116    113      9   180.00   0.00000   2 ;    O22-   C21-   C12-   C13
    78     77    116    117      9     0.00   3.34720   1 ;    O22-   C21-   C12-   H2R
    78     77    116    117      9   180.00   0.33472   3 ;    O22-   C21-   C12-   H2R
    78     77    116    118      9     0.00   3.34720   1 ;    O22-   C21-   C12-   H2S
    78     77    116    118      9   180.00   0.33472   3 ;    O22-   C21-   C12-   H2S
    79     80     83     84      9     0.00   0.62760   3 ;   H14T-  C114-  C113-  H13R
    79     80     83     85      9     0.00   0.62760   3 ;   H14T-  C114-  C113-  H13S
    79     80     83     86      9     0.00   0.66944   3 ;   H14T-  C114-  C113-  C112
    80     83     86     87      9     0.00   0.66944   3 ;   C114-  C113-  C112-  H12R
    80     83     86     88      9     0.00   0.66944   3 ;   C114-  C113-  C112-  H12S
    80     83     86     89      9     0.00   0.41840   1 ;   C114-  C113-  C112-  C111
    80     83     86     89      9     0.00   0.41840   2 ;   C114-  C113-  C112-  C111
    80     83     86     89      9     0.00   0.41840   4 ;   C114-  C113-  C112-  C111
    80     83     86     89      9     0.00   0.41840   5 ;   C114-  C113-  C112-  C111
    80     83     86     89      9     0.00   1.25520   3 ;   C114-  C113-  C112-  C111
    81     80     83     84      9     0.00   0.62760   3 ;   H14R-  C114-  C113-  H13R
    81     80     83     85      9     0.00   0.62760   3 ;   H14R-  C114-  C113-  H13S
    81     80     83     86      9     0.00   0.66944   3 ;   H14R-  C114-  C113-  C112
    82     80     83     84      9     0.00   0.62760   3 ;   H14S-  C114-  C113-  H13R
    82     80     83     85      9     0.00   0.62760   3 ;   H14S-  C114-  C113-  H13S
    82     80     83     86      9     0.00   0.66944   3 ;   H14S-  C114-  C113-  C112
    83     86     89     90      9     0.00   0.66944   3 ;   C113-  C112-  C111-  H11R
    83     86     89     91      9     0.00   0.66944   3 ;   C113-  C112-  C111-  H11S
    83     86     89     92      9     0.00   0.41840   1 ;   C113-  C112-  C111-  C110
    83     86     89     92      9     0.00   0.41840   2 ;   C113-  C112-  C111-  C110
    83     86     89     92      9     0.00   0.41840   4 ;   C113-  C112-  C111-  C110
    83     86     89     92      9     0.00   0.41840   5 ;   C113-  C112-  C111-  C110
    83     86     89     92      9     0.00   1.25520   3 ;   C113-  C112-  C111-  C110
    84     83     86     87      9     0.00   0.62760   3 ;   H13R-  C113-  C112-  H12R
    84     83     86     88      9     0.00   0.62760   3 ;   H13R-  C113-  C112-  H12S
    84     83     86     89      9     0.00   0.66944   3 ;   H13R-  C113-  C112-  C111
    85     83     86     87      9     0.00   0.62760   3 ;   H13S-  C113-  C112-  H12R
    85     83     86     88      9     0.00   0.62760   3 ;   H13S-  C113-  C112-  H12S
    85     83     86     89      9     0.00   0.66944   3 ;   H13S-  C113-  C112-  C111
    86     89     92     93      9     0.00   0.66944   3 ;   C112-  C111-  C110-  H10R
    86     89     92     94      9     0.00   0.66944   3 ;   C112-  C111-  C110-  H10S
    86     89     92     95      9     0.00   0.41840   1 ;   C112-  C111-  C110-   C19
    86     89     92     95      9     0.00   0.41840   2 ;   C112-  C111-  C110-   C19
    86     89     92     95      9     0.00   0.41840   4 ;   C112-  C111-  C110-   C19
    86     89     92     95      9     0.00   0.41840   5 ;   C112-  C111-  C110-   C19
    86     89     92     95      9     0.00   1.25520   3 ;   C112-  C111-  C110-   C19
    87     86     89     90      9     0.00   0.62760   3 ;   H12R-  C112-  C111-  H11R
    87     86     89     91      9     0.00   0.62760   3 ;   H12R-  C112-  C111-  H11S
    87     86     89     92      9     0.00   0.66944   3 ;   H12R-  C112-  C111-  C110
    88     86     89     90      9     0.00   0.62760   3 ;   H12S-  C112-  C111-  H11R
    88     86     89     91      9     0.00   0.62760   3 ;   H12S-  C112-  C111-  H11S
    88     86     89     92      9     0.00   0.66944   3 ;   H12S-  C112-  C111-  C110
    89     92     95     96      9     0.00   0.66944   3 ;   C111-  C110-   C19-   H9R
    89     92     95     97      9     0.00   0.66944   3 ;   C111-  C110-   C19-   H9S
    89     92     95     98      9     0.00   0.41840   1 ;   C111-  C110-   C19-   C18
    89     92     95     98      9     0.00   0.41840   2 ;   C111-  C110-   C19-   C18
    89     92     95     98      9     0.00   0.41840   4 ;   C111-  C110-   C19-   C18
    89     92     95     98      9     0.00   0.41840   5 ;   C111-  C110-   C19-   C18
    89     92     95     98      9     0.00   1.25520   3 ;   C111-  C110-   C19-   C18
    90     89     92     93      9     0.00   0.62760   3 ;   H11R-  C111-  C110-  H10R
    90     89     92     94      9     0.00   0.62760   3 ;   H11R-  C111-  C110-  H10S
    90     89     92     95      9     0.00   0.66944   3 ;   H11R-  C111-  C110-   C19
    91     89     92     93      9     0.00   0.62760   3 ;   H11S-  C111-  C110-  H10R
    91     89     92     94      9     0.00   0.62760   3 ;   H11S-  C111-  C110-  H10S
    91     89     92     95      9     0.00   0.66944   3 ;   H11S-  C111-  C110-   C19
    92     95     98     99      9     0.00   0.66944   3 ;   C110-   C19-   C18-   H8R
    92     95     98    100      9     0.00   0.66944   3 ;   C110-   C19-   C18-   H8S
    92     95     98    101      9     0.00   0.41840   1 ;   C110-   C19-   C18-   C17
    92     95     98    101      9     0.00   0.41840   2 ;   C110-   C19-   C18-   C17
    92     95     98    101      9     0.00   0.41840   4 ;   C110-   C19-   C18-   C17
    92     95     98    101      9     0.00   0.41840   5 ;   C110-   C19-   C18-   C17
    92     95     98    101      9     0.00   1.25520   3 ;   C110-   C19-   C18-   C17
    93     92     95     96      9     0.00   0.62760   3 ;   H10R-  C110-   C19-   H9R
    93     92     95     97      9     0.00   0.62760   3 ;   H10R-  C110-   C19-   H9S
    93     92     95     98      9     0.00   0.66944   3 ;   H10R-  C110-   C19-   C18
    94     92     95     96      9     0.00   0.62760   3 ;   H10S-  C110-   C19-   H9R
    94     92     95     97      9     0.00   0.62760   3 ;   H10S-  C110-   C19-   H9S
    94     92     95     98      9     0.00   0.66944   3 ;   H10S-  C110-   C19-   C18
    95     98    101    102      9     0.00   0.66944   3 ;    C19-   C18-   C17-   H7R
    95     98    101    103      9     0.00   0.66944   3 ;    C19-   C18-   C17-   H7S
    95     98    101    104      9     0.00   0.41840   1 ;    C19-   C18-   C17-   C16
    95     98    101    104      9     0.00   0.41840   2 ;    C19-   C18-   C17-   C16
    95     98    101    104      9     0.00   0.41840   4 ;    C19-   C18-   C17-   C16
    95     98    101    104      9     0.00   0.41840   5 ;    C19-   C18-   C17-   C16
    95     98    101    104      9     0.00   1.25520   3 ;    C19-   C18-   C17-   C16
    96     95     98     99      9     0.00   0.62760   3 ;    H9R-   C19-   C18-   H8R
    96     95     98    100      9     0.00   0.62760   3 ;    H9R-   C19-   C18-   H8S
    96     95     98    101      9     0.00   0.66944   3 ;    H9R-   C19-   C18-   C17
    97     95     98     99      9     0.00   0.62760   3 ;    H9S-   C19-   C18-   H8R
    97     95     98    100      9     0.00   0.62760   3 ;    H9S-   C19-   C18-   H8S
    97     95     98    101      9     0.00   0.66944   3 ;    H9S-   C19-   C18-   C17
    98    101    104    105      9     0.00   0.66944   3 ;    C18-   C17-   C16-   H6R
    98    101    104    106      9     0.00   0.66944   3 ;    C18-   C17-   C16-   H6S
    98    101    104    107      9     0.00   0.41840   1 ;    C18-   C17-   C16-   C15
    98    101    104    107      9     0.00   0.41840   2 ;    C18-   C17-   C16-   C15
    98    101    104    107      9     0.00   0.41840   4 ;    C18-   C17-   C16-   C15
    98    101    104    107      9     0.00   0.41840   5 ;    C18-   C17-   C16-   C15
    98    101    104    107      9     0.00   1.25520   3 ;    C18-   C17-   C16-   C15
    99     98    101    102      9     0.00   0.62760   3 ;    H8R-   C18-   C17-   H7R
    99     98    101    103      9     0.00   0.62760   3 ;    H8R-   C18-   C17-   H7S
    99     98    101    104      9     0.00   0.66944   3 ;    H8R-   C18-   C17-   C16
   100     98    101    102      9     0.00   0.62760   3 ;    H8S-   C18-   C17-   H7R
   100     98    101    103      9     0.00   0.62760   3 ;    H8S-   C18-   C17-   H7S
   100     98    101    104      9     0.00   0.66944   3 ;    H8S-   C18-   C17-   C16
   101    104    107    108      9     0.00   0.66944   3 ;    C17-   C16-   C15-   H5R
   101    104    107    109      9     0.00   0.66944   3 ;    C17-   C16-   C15-   H5S
   101    104    107    110      9     0.00   0.41840   1 ;    C17-   C16-   C15-   C14
   101    104    107    110      9     0.00   0.41840   2 ;    C17-   C16-   C15-   C14
   101    104    107    110      9     0.00   0.41840   4 ;    C17-   C16-   C15-   C14
   101    104    107    110      9     0.00   0.41840   5 ;    C17-   C16-   C15-   C14
   101    104    107    110      9     0.00   1.25520   3 ;    C17-   C16-   C15-   C14
   102    101    104    105      9     0.00   0.62760   3 ;    H7R-   C17-   C16-   H6R
   102    101    104    106      9     0.00   0.62760   3 ;    H7R-   C17-   C16-   H6S
   102    101    104    107      9     0.00   0.66944   3 ;    H7R-   C17-   C16-   C15
   103    101    104    105      9     0.00   0.62760   3 ;    H7S-   C17-   C16-   H6R
   103    101    104    106      9     0.00   0.62760   3 ;    H7S-   C17-   C16-   H6S
   103    101    104    107      9     0.00   0.66944   3 ;    H7S-   C17-   C16-   C15
   104    107    110    111      9     0.00   0.66944   3 ;    C16-   C15-   C14-   H4R
   104    107    110    112      9     0.00   0.66944   3 ;    C16-   C15-   C14-   H4S
   104    107    110    113      9     0.00   0.41840   1 ;    C16-   C15-   C14-   C13
   104    107    110    113      9     0.00   0.41840   2 ;    C16-   C15-   C14-   C13
   104    107    110    113      9     0.00   0.41840   4 ;    C16-   C15-   C14-   C13
   104    107    110    113      9     0.00   0.41840   5 ;    C16-   C15-   C14-   C13
   104    107    110    113      9     0.00   1.25520   3 ;    C16-   C15-   C14-   C13
   105    104    107    108      9     0.00   0.62760   3 ;    H6R-   C16-   C15-   H5R
   105    104    107    109      9     0.00   0.62760   3 ;    H6R-   C16-   C15-   H5S
   105    104    107    110      9     0.00   0.66944   3 ;    H6R-   C16-   C15-   C14
   106    104    107    108      9     0.00   0.62760   3 ;    H6S-   C16-   C15-   H5R
   106    104    107    109      9     0.00   0.62760   3 ;    H6S-   C16-   C15-   H5S
   106    104    107    110      9     0.00   0.66944   3 ;    H6S-   C16-   C15-   C14
   107    110    113    114      9     0.00   0.66944   3 ;    C15-   C14-   C13-   H3R
   107    110    113    115      9     0.00   0.66944   3 ;    C15-   C14-   C13-   H3S
   107    110    113    116      9     0.00   0.41840   1 ;    C15-   C14-   C13-   C12
   107    110    113    116      9     0.00   0.41840   2 ;    C15-   C14-   C13-   C12
   107    110    113    116      9     0.00   0.41840   4 ;    C15-   C14-   C13-   C12
   107    110    113    116      9     0.00   0.41840   5 ;    C15-   C14-   C13-   C12
   107    110    113    116      9     0.00   1.25520   3 ;    C15-   C14-   C13-   C12
   108    107    110    111      9     0.00   0.62760   3 ;    H5R-   C15-   C14-   H4R
   108    107    110    112      9     0.00   0.62760   3 ;    H5R-   C15-   C14-   H4S
   108    107    110    113      9     0.00   0.66944   3 ;    H5R-   C15-   C14-   C13
   109    107    110    111      9     0.00   0.62760   3 ;    H5S-   C15-   C14-   H4R
   109    107    110    112      9     0.00   0.62760   3 ;    H5S-   C15-   C14-   H4S
   109    107    110    113      9     0.00   0.66944   3 ;    H5S-   C15-   C14-   C13
   110    113    116    117      9     0.00   0.66944   3 ;    C14-   C13-   C12-   H2R
   110    113    116    118      9     0.00   0.66944   3 ;    C14-   C13-   C12-   H2S
   111    110    113    114      9     0.00   0.62760   3 ;    H4R-   C14-   C13-   H3R
   111    110    113    115      9     0.00   0.62760   3 ;    H4R-   C14-   C13-   H3S
   111    110    113    116      9     0.00   0.66944   3 ;    H4R-   C14-   C13-   C12
   112    110    113    114      9     0.00   0.62760   3 ;    H4S-   C14-   C13-   H3R
   112    110    113    115      9     0.00   0.62760   3 ;    H4S-   C14-   C13-   H3S
   112    110    113    116      9     0.00   0.66944   3 ;    H4S-   C14-   C13-   C12
   114    113    116    117      9     0.00   0.62760   3 ;    H3R-   C13-   C12-   H2R
   114    113    116    118      9     0.00   0.62760   3 ;    H3R-   C13-   C12-   H2S
   115    113    116    117      9     0.00   0.62760   3 ;    H3S-   C13-   C12-   H2R
   115    113    116    118      9     0.00   0.62760   3 ;    H3S-   C13-   C12-   H2S
   119    120    123    124      9     0.00   0.62760   3 ;   H14T-  C114-  C113-  H13R
   119    120    123    125      9     0.00   0.62760   3 ;   H14T-  C114-  C113-  H13S
   119    120    123    126      9     0.00   0.66944   3 ;   H14T-  C114-  C113-  C112
   120    123    126    127      9     0.00   0.66944   3 ;   C114-  C113-  C112-  H12R
   120    123    126    128      9     0.00   0.66944   3 ;   C114-  C113-  C112-  H12S
   120    123    126    129      9     0.00   0.41840   1 ;   C114-  C113-  C112-  C111
   120    123    126    129      9     0.00   0.41840   2 ;   C114-  C113-  C112-  C111
   120    123    126    129      9     0.00   0.41840   4 ;   C114-  C113-  C112-  C111
   120    123    126    129      9     0.00   0.41840   5 ;   C114-  C113-  C112-  C111
   120    123    126    129      9     0.00   1.25520   3 ;   C114-  C113-  C112-  C111
   121    120    123    124      9     0.00   0.62760   3 ;   H14R-  C114-  C113-  H13R
   121    120    123    125      9     0.00   0.62760   3 ;   H14R-  C114-  C113-  H13S
   121    120    123    126      9     0.00   0.66944   3 ;   H14R-  C114-  C113-  C112
   122    120    123    124      9     0.00   0.62760   3 ;   H14S-  C114-  C113-  H13R
   122    120    123    125      9     0.00   0.62760   3 ;   H14S-  C114-  C113-  H13S
   122    120    123    126      9     0.00   0.66944   3 ;   H14S-  C114-  C113-  C112
   123    126    129    130      9     0.00   0.66944   3 ;   C113-  C112-  C111-  H11R
   123    126    129    131      9     0.00   0.66944   3 ;   C113-  C112-  C111-  H11S
   123    126    129    132      9     0.00   0.41840   1 ;   C113-  C112-  C111-  C110
   123    126    129    132      9     0.00   0.41840   2 ;   C113-  C112-  C111-  C110
   123    126    129    132      9     0.00   0.41840   4 ;   C113-  C112-  C111-  C110
   123    126    129    132      9     0.00   0.41840   5 ;   C113-  C112-  C111-  C110
   123    126    129    132      9     0.00   1.25520   3 ;   C113-  C112-  C111-  C110
   124    123    126    127      9     0.00   0.62760   3 ;   H13R-  C113-  C112-  H12R
   124    123    126    128      9     0.00   0.62760   3 ;   H13R-  C113-  C112-  H12S
   124    123    126    129      9     0.00   0.66944   3 ;   H13R-  C113-  C112-  C111
   125    123    126    127      9     0.00   0.62760   3 ;   H13S-  C113-  C112-  H12R
   125    123    126    128      9     0.00   0.62760   3 ;   H13S-  C113-  C112-  H12S
   125    123    126    129      9     0.00   0.66944   3 ;   H13S-  C113-  C112-  C111
   126    129    132    133      9     0.00   0.66944   3 ;   C112-  C111-  C110-  H10R
   126    129    132    134      9     0.00   0.66944   3 ;   C112-  C111-  C110-  H10S
   126    129    132    135      9     0.00   0.41840   1 ;   C112-  C111-  C110-   C19
   126    129    132    135      9     0.00   0.41840   2 ;   C112-  C111-  C110-   C19
   126    129    132    135      9     0.00   0.41840   4 ;   C112-  C111-  C110-   C19
   126    129    132    135      9     0.00   0.41840   5 ;   C112-  C111-  C110-   C19
   126    129    132    135      9     0.00   1.25520   3 ;   C112-  C111-  C110-   C19
   127    126    129    130      9     0.00   0.62760   3 ;   H12R-  C112-  C111-  H11R
   127    126    129    131      9     0.00   0.62760   3 ;   H12R-  C112-  C111-  H11S
   127    126    129    132      9     0.00   0.66944   3 ;   H12R-  C112-  C111-  C110
   128    126    129    130      9     0.00   0.62760   3 ;   H12S-  C112-  C111-  H11R
   128    126    129    131      9     0.00   0.62760   3 ;   H12S-  C112-  C111-  H11S
   128    126    129    132      9     0.00   0.66944   3 ;   H12S-  C112-  C111-  C110
   129    132    135    136      9     0.00   0.66944   3 ;   C111-  C110-   C19-   H9R
   129    132    135    137      9     0.00   0.66944   3 ;   C111-  C110-   C19-   H9S
   129    132    135    138      9     0.00   0.41840   1 ;   C111-  C110-   C19-   C18
   129    132    135    138      9     0.00   0.41840   2 ;   C111-  C110-   C19-   C18
   129    132    135    138      9     0.00   0.41840   4 ;   C111-  C110-   C19-   C18
   129    132    135    138      9     0.00   0.41840   5 ;   C111-  C110-   C19-   C18
   129    132    135    138      9     0.00   1.25520   3 ;   C111-  C110-   C19-   C18
   130    129    132    133      9     0.00   0.62760   3 ;   H11R-  C111-  C110-  H10R
   130    129    132    134      9     0.00   0.62760   3 ;   H11R-  C111-  C110-  H10S
   130    129    132    135      9     0.00   0.66944   3 ;   H11R-  C111-  C110-   C19
   131    129    132    133      9     0.00   0.62760   3 ;   H11S-  C111-  C110-  H10R
   131    129    132    134      9     0.00   0.62760   3 ;   H11S-  C111-  C110-  H10S
   131    129    132    135      9     0.00   0.66944   3 ;   H11S-  C111-  C110-   C19
   132    135    138    139      9     0.00   0.66944   3 ;   C110-   C19-   C18-   H8R
   132    135    138    140      9     0.00   0.66944   3 ;   C110-   C19-   C18-   H8S
   132    135    138    141      9     0.00   0.41840   1 ;   C110-   C19-   C18-   C17
   132    135    138    141      9     0.00   0.41840   2 ;   C110-   C19-   C18-   C17
   132    135    138    141      9     0.00   0.41840   4 ;   C110-   C19-   C18-   C17
   132    135    138    141      9     0.00   0.41840   5 ;   C110-   C19-   C18-   C17
   132    135    138    141      9     0.00   1.25520   3 ;   C110-   C19-   C18-   C17
   133    132    135    136      9     0.00   0.62760   3 ;   H10R-  C110-   C19-   H9R
   133    132    135    137      9     0.00   0.62760   3 ;   H10R-  C110-   C19-   H9S
   133    132    135    138      9     0.00   0.66944   3 ;   H10R-  C110-   C19-   C18
   134    132    135    136      9     0.00   0.62760   3 ;   H10S-  C110-   C19-   H9R
   134    132    135    137      9     0.00   0.62760   3 ;   H10S-  C110-   C19-   H9S
   134    132    135    138      9     0.00   0.66944   3 ;   H10S-  C110-   C19-   C18
   135    138    141    142      9     0.00   0.66944   3 ;    C19-   C18-   C17-   H7R
   135    138    141    143      9     0.00   0.66944   3 ;    C19-   C18-   C17-   H7S
   135    138    141    144      9     0.00   0.41840   1 ;    C19-   C18-   C17-   C16
   135    138    141    144      9     0.00   0.41840   2 ;    C19-   C18-   C17-   C16
   135    138    141    144      9     0.00   0.41840   4 ;    C19-   C18-   C17-   C16
   135    138    141    144      9     0.00   0.41840   5 ;    C19-   C18-   C17-   C16
   135    138    141    144      9     0.00   1.25520   3 ;    C19-   C18-   C17-   C16
   136    135    138    139      9     0.00   0.62760   3 ;    H9R-   C19-   C18-   H8R
   136    135    138    140      9     0.00   0.62760   3 ;    H9R-   C19-   C18-   H8S
   136    135    138    141      9     0.00   0.66944   3 ;    H9R-   C19-   C18-   C17
   137    135    138    139      9     0.00   0.62760   3 ;    H9S-   C19-   C18-   H8R
   137    135    138    140      9     0.00   0.62760   3 ;    H9S-   C19-   C18-   H8S
   137    135    138    141      9     0.00   0.66944   3 ;    H9S-   C19-   C18-   C17
   138    141    144    145      9     0.00   0.66944   3 ;    C18-   C17-   C16-   H6R
   138    141    144    146      9     0.00   0.66944   3 ;    C18-   C17-   C16-   H6S
   138    141    144    147      9     0.00   0.41840   1 ;    C18-   C17-   C16-   C15
   138    141    144    147      9     0.00   0.41840   2 ;    C18-   C17-   C16-   C15
   138    141    144    147      9     0.00   0.41840   4 ;    C18-   C17-   C16-   C15
   138    141    144    147      9     0.00   0.41840   5 ;    C18-   C17-   C16-   C15
   138    141    144    147      9     0.00   1.25520   3 ;    C18-   C17-   C16-   C15
   139    138    141    142      9     0.00   0.62760   3 ;    H8R-   C18-   C17-   H7R
   139    138    141    143      9     0.00   0.62760   3 ;    H8R-   C18-   C17-   H7S
   139    138    141    144      9     0.00   0.66944   3 ;    H8R-   C18-   C17-   C16
   140    138    141    142      9     0.00   0.62760   3 ;    H8S-   C18-   C17-   H7R
   140    138    141    143      9     0.00   0.62760   3 ;    H8S-   C18-   C17-   H7S
   140    138    141    144      9     0.00   0.66944   3 ;    H8S-   C18-   C17-   C16
   141    144    147    148      9     0.00   0.66944   3 ;    C17-   C16-   C15-   H5R
   141    144    147    149      9     0.00   0.66944   3 ;    C17-   C16-   C15-   H5S
   141    144    147    150      9     0.00   0.41840   1 ;    C17-   C16-   C15-   C14
   141    144    147    150      9     0.00   0.41840   2 ;    C17-   C16-   C15-   C14
   141    144    147    150      9     0.00   0.41840   4 ;    C17-   C16-   C15-   C14
   141    144    147    150      9     0.00   0.41840   5 ;    C17-   C16-   C15-   C14
   141    144    147    150      9     0.00   1.25520   3 ;    C17-   C16-   C15-   C14
   142    141    144    145      9     0.00   0.62760   3 ;    H7R-   C17-   C16-   H6R
   142    141    144    146      9     0.00   0.62760   3 ;    H7R-   C17-   C16-   H6S
   142    141    144    147      9     0.00   0.66944   3 ;    H7R-   C17-   C16-   C15
   143    141    144    145      9     0.00   0.62760   3 ;    H7S-   C17-   C16-   H6R
   143    141    144    146      9     0.00   0.62760   3 ;    H7S-   C17-   C16-   H6S
   143    141    144    147      9     0.00   0.66944   3 ;    H7S-   C17-   C16-   C15
   144    147    150    151      9     0.00   0.66944   3 ;    C16-   C15-   C14-   H4R
   144    147    150    152      9     0.00   0.66944   3 ;    C16-   C15-   C14-   H4S
   144    147    150    153      9     0.00   0.41840   1 ;    C16-   C15-   C14-   C13
   144    147    150    153      9     0.00   0.41840   2 ;    C16-   C15-   C14-   C13
   144    147    150    153      9     0.00   0.41840   4 ;    C16-   C15-   C14-   C13
   144    147    150    153      9     0.00   0.41840   5 ;    C16-   C15-   C14-   C13
   144    147    150    153      9     0.00   1.25520   3 ;    C16-   C15-   C14-   C13
   145    144    147    148      9     0.00   0.62760   3 ;    H6R-   C16-   C15-   H5R
   145    144    147    149      9     0.00   0.62760   3 ;    H6R-   C16-   C15-   H5S
   145    144    147    150      9     0.00   0.66944   3 ;    H6R-   C16-   C15-   C14
   146    144    147    148      9     0.00   0.62760   3 ;    H6S-   C16-   C15-   H5R
   146    144    147    149      9     0.00   0.62760   3 ;    H6S-   C16-   C15-   H5S
   146    144    147    150      9     0.00   0.66944   3 ;    H6S-   C16-   C15-   C14
   147    150    153    154      9     0.00   0.66944   3 ;    C15-   C14-   C13-   H3R
   147    150    153    155      9     0.00   0.66944   3 ;    C15-   C14-   C13-   H3S
   147    150    153    156      9     0.00   0.41840   1 ;    C15-   C14-   C13-   C12
   147    150    153    156      9     0.00   0.41840   2 ;    C15-   C14-   C13-   C12
   147    150    153    156      9     0.00   0.41840   4 ;    C15-   C14-   C13-   C12
   147    150    153    156      9     0.00   0.41840   5 ;    C15-   C14-   C13-   C12
   147    150    153    156      9     0.00   1.25520   3 ;    C15-   C14-   C13-   C12
   148    147    150    151      9     0.00   0.62760   3 ;    H5R-   C15-   C14-   H4R
   148    147    150    152      9     0.00   0.62760   3 ;    H5R-   C15-   C14-   H4S
   148    147    150    153      9     0.00   0.66944   3 ;    H5R-   C15-   C14-   C13
   149    147    150    151      9     0.00   0.62760   3 ;    H5S-   C15-   C14-   H4R
   149    147    150    152      9     0.00   0.62760   3 ;    H5S-   C15-   C14-   H4S
   149    147    150    153      9     0.00   0.66944   3 ;    H5S-   C15-   C14-   C13
   150    153    156    157      9     0.00   0.66944   3 ;    C14-   C13-   C12-   H2R
   150    153    156    158      9     0.00   0.66944   3 ;    C14-   C13-   C12-   H2S
   150    153    156    159      9     0.00   0.65270   3 ;    C14-   C13-   C12-   C11
   151    150    153    154      9     0.00   0.62760   3 ;    H4R-   C14-   C13-   H3R
   151    150    153    155      9     0.00   0.62760   3 ;    H4R-   C14-   C13-   H3S
   151    150    153    156      9     0.00   0.66944   3 ;    H4R-   C14-   C13-   C12
   152    150    153    154      9     0.00   0.62760   3 ;    H4S-   C14-   C13-   H3R
   152    150    153    155      9     0.00   0.62760   3 ;    H4S-   C14-   C13-   H3S
   152    150    153    156      9     0.00   0.66944   3 ;    H4S-   C14-   C13-   C12
   153    156    159    160      9   180.00   0.00000   2 ;    C13-   C12-   C11-   O12
   153    156    159    161      9   180.00   0.00000   2 ;    C13-   C12-   C11-   O11
   154    153    156    157      9     0.00   0.62760   3 ;    H3R-   C13-   C12-   H2R
   154    153    156    158      9     0.00   0.62760   3 ;    H3R-   C13-   C12-   H2S
   154    153    156    159      9     0.00   0.65270   3 ;    H3R-   C13-   C12-   C11
   155    153    156    157      9     0.00   0.62760   3 ;    H3S-   C13-   C12-   H2R
   155    153    156    158      9     0.00   0.62760   3 ;    H3S-   C13-   C12-   H2S
   155    153    156    159      9     0.00   0.65270   3 ;    H3S-   C13-   C12-   C11
   156    159    161    162      9   180.00  11.29680   2 ;    C12-   C11-   O11-    C1
   157    156    159    160      9     0.00   3.34720   1 ;    H2R-   C12-   C11-   O12
   157    156    159    160      9   180.00   0.33472   3 ;    H2R-   C12-   C11-   O12
   157    156    159    161      9   180.00   0.00000   2 ;    H2R-   C12-   C11-   O11
   158    156    159    160      9     0.00   3.34720   1 ;    H2S-   C12-   C11-   O12
   158    156    159    160      9   180.00   0.33472   3 ;    H2S-   C12-   C11-   O12
   158    156    159    161      9   180.00   0.00000   2 ;    H2S-   C12-   C11-   O11
   159    161    162    163      9     0.00   1.60247   3 ;    C11-   O11-    C1-    HR
   159    161    162    164      9     0.00   1.60247   3 ;    C11-   O11-    C1-    HS
   159    161    162    165      9     0.00  -0.41840   1 ;    C11-   O11-    C1-    C2
   160    159    161    162      9   180.00   5.85760   1 ;    O12-   C11-   O11-    C1
   160    159    161    162      9   180.00  11.29680   2 ;    O12-   C11-   O11-    C1
   161    162    165    166      9     0.00   0.00000   0 ;    O11-    C1-    C2-    HX
   161    162    165    166      9     0.00   1.04600   1 ;    O11-    C1-    C2-    HX
   161    162    165    167      9     0.00   0.00000   0 ;    O11-    C1-    C2-    C3
   161    162    165    167      9     0.00   0.00000   0 ;    O11-    C1-    C2-    C3
   161    162    165    167      9     0.00   0.00000   0 ;    O11-    C1-    C2-    C3
   161    162    165    167      9     0.00   0.00000   0 ;    O11-    C1-    C2-    C3
   161    162    165    167      9     0.00   0.00000   0 ;    O11-    C1-    C2-    C3
   161    162    165    194      9     0.00   1.25520   2 ;    O11-    C1-    C2-   O21
   161    162    165    194      9     0.00   4.18400   3 ;    O11-    C1-    C2-   O21
   161    162    165    194      9   180.00  -0.41840   1 ;    O11-    C1-    C2-   O21
   162    165    167    168      9     0.00   0.65270   3 ;     C1-    C2-    C3-    HA
   162    165    167    169      9     0.00   0.65270   3 ;     C1-    C2-    C3-    HB
   162    165    167    170      9   180.00   3.34720   1 ;     C1-    C2-    C3-   O31
   162    165    194    195      9     0.00  -0.41840   1 ;     C1-    C2-   O21-   C21
   163    162    165    166      9     0.00   0.65270   3 ;     HR-    C1-    C2-    HX
   163    162    165    167      9     0.00   0.65270   3 ;     HR-    C1-    C2-    C3
   163    162    165    194      9     0.00   0.00000   0 ;     HR-    C1-    C2-   O21
   163    162    165    194      9     0.00   1.04600   1 ;     HR-    C1-    C2-   O21
   164    162    165    166      9     0.00   0.65270   3 ;     HS-    C1-    C2-    HX
   164    162    165    167      9     0.00   0.65270   3 ;     HS-    C1-    C2-    C3
   164    162    165    194      9     0.00   0.00000   0 ;     HS-    C1-    C2-   O21
   164    162    165    194      9     0.00   1.04600   1 ;     HS-    C1-    C2-   O21
   165    167    170    171      9     0.00   0.00000   0 ;     C2-    C3-   O31-   P31
   165    167    170    171      9   180.00  -3.34720   2 ;     C2-    C3-   O31-   P31
   165    194    195    196      9   180.00   5.85760   1 ;     C2-   O21-   C21-   O22
   165    194    195    196      9   180.00  11.29680   2 ;     C2-   O21-   C21-   O22
   165    194    195    234      9   180.00  11.29680   2 ;     C2-   O21-   C21-   C12
   166    165    167    168      9     0.00   0.65270   3 ;     HX-    C2-    C3-    HA
   166    165    167    169      9     0.00   0.65270   3 ;     HX-    C2-    C3-    HB
   166    165    167    170      9     0.00   0.00000   0 ;     HX-    C2-    C3-   O31
   166    165    167    170      9     0.00   1.04600   1 ;     HX-    C2-    C3-   O31
   166    165    194    195      9     0.00   1.60247   3 ;     HX-    C2-   O21-   C21
   167    165    194    195      9     0.00  -0.41840   1 ;     C3-    C2-   O21-   C21
   167    170    171    172      9     0.00   2.51040   3 ;     C3-   O31-   P31-   O32
   167    170    171    172      9     0.00   9.62320   2 ;     C3-   O31-   P31-   O32
   167    170    171    192      9     0.00   0.00000   0 ;     C3-   O31-   P31-   O33
   167    170    171    192      9     0.00   0.00000   0 ;     C3-   O31-   P31-   O33
   167    170    171    192      9     0.00   0.00000   0 ;     C3-   O31-   P31-   O33
   167    170    171    192      9     0.00   0.00000   0 ;     C3-   O31-   P31-   O33
   167    170    171    192      9     0.00   0.83680   2 ;     C3-   O31-   P31-   O33
   167    170    171    193      9     0.00   0.00000   0 ;     C3-   O31-   P31-   O34
   167    170    171    193      9     0.00   0.00000   0 ;     C3-   O31-   P31-   O34
   167    170    171    193      9     0.00   0.00000   0 ;     C3-   O31-   P31-   O34
   167    170    171    193      9     0.00   0.00000   0 ;     C3-   O31-   P31-   O34
   167    170    171    193      9     0.00   0.83680   2 ;     C3-   O31-   P31-   O34
   168    167    165    194      9     0.00   0.00000   0 ;     HA-    C3-    C2-   O21
   168    167    165    194      9     0.00   1.04600   1 ;     HA-    C3-    C2-   O21
   168    167    170    171      9     0.00   0.00000   0 ;     HA-    C3-   O31-   P31
   168    167    170    171      9     0.00   0.00000   0 ;     HA-    C3-   O31-   P31
   168    167    170    171      9     0.00   0.00000   0 ;     HA-    C3-   O31-   P31
   168    167    170    171      9     0.00   0.00000   0 ;     HA-    C3-   O31-   P31
   168    167    170    171      9     0.00   1.60247   3 ;     HA-    C3-   O31-   P31
   169    167    165    194      9     0.00   0.00000   0 ;     HB-    C3-    C2-   O21
   169    167    165    194      9     0.00   1.04600   1 ;     HB-    C3-    C2-   O21
   169    167    170    171      9     0.00   0.00000   0 ;     HB-    C3-   O31-   P31
   169    167    170    171      9     0.00   0.00000   0 ;     HB-    C3-   O31-   P31
   169    167    170    171      9     0.00   0.00000   0 ;     HB-    C3-   O31-   P31
   169    167    170    171      9     0.00   0.00000   0 ;     HB-    C3-   O31-   P31
   169    167    170    171      9     0.00   1.60247   3 ;     HB-    C3-   O31-   P31
   170    167    165    194      9     0.00   0.00000   0 ;    O31-    C3-    C2-   O21
   170    167    165    194      9     0.00   0.00000   0 ;    O31-    C3-    C2-   O21
   170    167    165    194      9     0.00   0.00000   0 ;    O31-    C3-    C2-   O21
   170    167    165    194      9     0.00   0.00000   0 ;    O31-    C3-    C2-   O21
   170    167    165    194      9     0.00   0.00000   0 ;    O31-    C3-    C2-   O21
   170    171    172    173      9     0.00   2.51040   3 ;    O31-   P31-   O32-   C31
   170    171    172    173      9     0.00   9.62320   2 ;    O31-   P31-   O32-   C31
   171    172    173    174      9     0.00   0.00000   0 ;    P31-   O32-   C31-   H1A
   171    172    173    174      9     0.00   0.00000   0 ;    P31-   O32-   C31-   H1A
   171    172    173    174      9     0.00   0.00000   0 ;    P31-   O32-   C31-   H1A
   171    172    173    174      9     0.00   0.00000   0 ;    P31-   O32-   C31-   H1A
   171    172    173    174      9     0.00   1.60247   3 ;    P31-   O32-   C31-   H1A
   171    172    173    175      9     0.00   0.00000   0 ;    P31-   O32-   C31-   H1B
   171    172    173    175      9     0.00   0.00000   0 ;    P31-   O32-   C31-   H1B
   171    172    173    175      9     0.00   0.00000   0 ;    P31-   O32-   C31-   H1B
   171    172    173    175      9     0.00   0.00000   0 ;    P31-   O32-   C31-   H1B
   171    172    173    175      9     0.00   1.60247   3 ;    P31-   O32-   C31-   H1B
   171    172    173    176      9     0.00   0.00000   0 ;    P31-   O32-   C31-   C32
   171    172    173    176      9   180.00  -3.34720   2 ;    P31-   O32-   C31-   C32
   172    173    176    177      9     0.00   0.65270   3 ;    O32-   C31-   C32-   H2A
   172    173    176    178      9     0.00   0.65270   3 ;    O32-   C31-   C32-   H2B
   172    173    176    179      9     0.00   4.18400   3 ;    O32-   C31-   C32-   N31
   173    172    171    192      9     0.00   0.00000   0 ;    C31-   O32-   P31-   O33
   173    172    171    192      9     0.00   0.00000   0 ;    C31-   O32-   P31-   O33
   173    172    171    192      9     0.00   0.00000   0 ;    C31-   O32-   P31-   O33
   173    172    171    192      9     0.00   0.00000   0 ;    C31-   O32-   P31-   O33
   173    172    171    192      9     0.00   0.83680   2 ;    C31-   O32-   P31-   O33
   173    172    171    193      9     0.00   0.00000   0 ;    C31-   O32-   P31-   O34
   173    172    171    193      9     0.00   0.00000   0 ;    C31-   O32-   P31-   O34
   173    172    171    193      9     0.00   0.00000   0 ;    C31-   O32-   P31-   O34
   173    172    171    193      9     0.00   0.00000   0 ;    C31-   O32-   P31-   O34
   173    172    171    193      9     0.00   0.83680   2 ;    C31-   O32-   P31-   O34
   173    176    179    180      9     0.00   0.65270   3 ;    C31-   C32-   N31-   C33
   173    176    179    184      9     0.00   0.65270   3 ;    C31-   C32-   N31-   C34
   173    176    179    188      9     0.00   0.65270   3 ;    C31-   C32-   N31-   C35
   174    173    176    177      9     0.00   0.65270   3 ;    H1A-   C31-   C32-   H2A
   174    173    176    178      9     0.00   0.65270   3 ;    H1A-   C31-   C32-   H2B
   174    173    176    179      9     0.00   0.65270   3 ;    H1A-   C31-   C32-   N31
   175    173    176    177      9     0.00   0.65270   3 ;    H1B-   C31-   C32-   H2A
   175    173    176    178      9     0.00   0.65270   3 ;    H1B-   C31-   C32-   H2B
   175    173    176    179      9     0.00   0.65270   3 ;    H1B-   C31-   C32-   N31
   176    179    180    181      9     0.00   0.65270   3 ;    C32-   N31-   C33-   H3A
   176    179    180    182      9     0.00   0.65270   3 ;    C32-   N31-   C33-   H3B
   176    179    180    183      9     0.00   0.65270   3 ;    C32-   N31-   C33-   H3C
   176    179    184    185      9     0.00   0.65270   3 ;    C32-   N31-   C34-   H4A
   176    179    184    186      9     0.00   0.65270   3 ;    C32-   N31-   C34-   H4B
   176    179    184    187      9     0.00   0.65270   3 ;    C32-   N31-   C34-   H4C
   176    179    188    189      9     0.00   0.65270   3 ;    C32-   N31-   C35-   H5A
   176    179    188    190      9     0.00   0.65270   3 ;    C32-   N31-   C35-   H5B
   176    179    188    191      9     0.00   0.65270   3 ;    C32-   N31-   C35-   H5C
   177    176    179    180      9     0.00   0.65270   3 ;    H2A-   C32-   N31-   C33
   177    176    179    184      9     0.00   0.65270   3 ;    H2A-   C32-   N31-   C34
   177    176    179    188      9     0.00   0.65270   3 ;    H2A-   C32-   N31-   C35
   178    176    179    180      9     0.00   0.65270   3 ;    H2B-   C32-   N31-   C33
   178    176    179    184      9     0.00   0.65270   3 ;    H2B-   C32-   N31-   C34
   178    176    179    188      9     0.00   0.65270   3 ;    H2B-   C32-   N31-   C35
   180    179    184    185      9     0.00   0.65270   3 ;    C33-   N31-   C34-   H4A
   180    179    184    186      9     0.00   0.65270   3 ;    C33-   N31-   C34-   H4B
   180    179    184    187      9     0.00   0.65270   3 ;    C33-   N31-   C34-   H4C
   180    179    188    189      9     0.00   0.65270   3 ;    C33-   N31-   C35-   H5A
   180    179    188    190      9     0.00   0.65270   3 ;    C33-   N31-   C35-   H5B
   180    179    188    191      9     0.00   0.65270   3 ;    C33-   N31-   C35-   H5C
   181    180    179    184      9     0.00   0.65270   3 ;    H3A-   C33-   N31-   C34
   181    180    179    188      9     0.00   0.65270   3 ;    H3A-   C33-   N31-   C35
   182    180    179    184      9     0.00   0.65270   3 ;    H3B-   C33-   N31-   C34
   182    180    179    188      9     0.00   0.65270   3 ;    H3B-   C33-   N31-   C35
   183    180    179    184      9     0.00   0.65270   3 ;    H3C-   C33-   N31-   C34
   183    180    179    188      9     0.00   0.65270   3 ;    H3C-   C33-   N31-   C35
   184    179    188    189      9     0.00   0.65270   3 ;    C34-   N31-   C35-   H5A
   184    179    188    190      9     0.00   0.65270   3 ;    C34-   N31-   C35-   H5B
   184    179    188    191      9     0.00   0.65270   3 ;    C34-   N31-   C35-   H5C
   185    184    179    188      9     0.00   0.65270   3 ;    H4A-   C34-   N31-   C35
   186    184    179    188      9     0.00   0.65270   3 ;    H4B-   C34-   N31-   C35
   187    184    179    188      9     0.00   0.65270   3 ;    H4C-   C34-   N31-   C35
   194    195    234    231      9   180.00   0.00000   2 ;    O21-   C21-   C12-   C13
   194    195    234    235      9   180.00   0.00000   2 ;    O21-   C21-   C12-   H2R
   194    195    234    236      9   180.00   0.00000   2 ;    O21-   C21-   C12-   H2S
   195    234    231    228      9     0.00   0.65270   3 ;    C21-   C12-   C13-   C14
   195    234    231    232      9     0.00   0.65270   3 ;    C21-   C12-   C13-   H3R
   195    234    231    233      9     0.00   0.65270   3 ;    C21-   C12-   C13-   H3S
   196    195    234    231      9   180.00   0.00000   2 ;    O22-   C21-   C12-   C13
   196    195    234    235      9     0.00   3.34720   1 ;    O22-   C21-   C12-   H2R
   196    195    234    235      9   180.00   0.33472   3 ;    O22-   C21-   C12-   H2R
   196    195    234    236      9     0.00   3.34720   1 ;    O22-   C21-   C12-   H2S
   196    195    234    236      9   180.00   0.33472   3 ;    O22-   C21-   C12-   H2S
   197    198    201    202      9     0.00   0.62760   3 ;   H14T-  C114-  C113-  H13R
   197    198    201    203      9     0.00   0.62760   3 ;   H14T-  C114-  C113-  H13S
   197    198    201    204      9     0.00   0.66944   3 ;   H14T-  C114-  C113-  C112
   198    201    204    205      9     0.00   0.66944   3 ;   C114-  C113-  C112-  H12R
   198    201    204    206      9     0.00   0.66944   3 ;   C114-  C113-  C112-  H12S
   198    201    204    207      9     0.00   0.41840   1 ;   C114-  C113-  C112-  C111
   198    201    204    207      9     0.00   0.41840   2 ;   C114-  C113-  C112-  C111
   198    201    204    207      9     0.00   0.41840   4 ;   C114-  C113-  C112-  C111
   198    201    204    207      9     0.00   0.41840   5 ;   C114-  C113-  C112-  C111
   198    201    204    207      9     0.00   1.25520   3 ;   C114-  C113-  C112-  C111
   199    198    201    202      9     0.00   0.62760   3 ;   H14R-  C114-  C113-  H13R
   199    198    201    203      9     0.00   0.62760   3 ;   H14R-  C114-  C113-  H13S
   199    198    201    204      9     0.00   0.66944   3 ;   H14R-  C114-  C113-  C112
   200    198    201    202      9     0.00   0.62760   3 ;   H14S-  C114-  C113-  H13R
   200    198    201    203      9     0.00   0.62760   3 ;   H14S-  C114-  C113-  H13S
   200    198    201    204      9     0.00   0.66944   3 ;   H14S-  C114-  C113-  C112
   201    204    207    208      9     0.00   0.66944   3 ;   C113-  C112-  C111-  H11R
   201    204    207    209      9     0.00   0.66944   3 ;   C113-  C112-  C111-  H11S
   201    204    207    210      9     0.00   0.41840   1 ;   C113-  C112-  C111-  C110
   201    204    207    210      9     0.00   0.41840   2 ;   C113-  C112-  C111-  C110
   201    204    207    210      9     0.00   0.41840   4 ;   C113-  C112-  C111-  C110
   201    204    207    210      9     0.00   0.41840   5 ;   C113-  C112-  C111-  C110
   201    204    207    210      9     0.00   1.25520   3 ;   C113-  C112-  C111-  C110
   202    201    204    205      9     0.00   0.62760   3 ;   H13R-  C113-  C112-  H12R
   202    201    204    206      9     0.00   0.62760   3 ;   H13R-  C113-  C112-  H12S
   202    201    204    207      9     0.00   0.66944   3 ;   H13R-  C113-  C112-  C111
   203    201    204    205      9     0.00   0.62760   3 ;   H13S-  C113-  C112-  H12R
   203    201    204    206      9     0.00   0.62760   3 ;   H13S-  C113-  C112-  H12S
   203    201    204    207      9     0.00   0.66944   3 ;   H13S-  C113-  C112-  C111
   204    207    210    211      9     0.00   0.66944   3 ;   C112-  C111-  C110-  H10R
   204    207    210    212      9     0.00   0.66944   3 ;   C112-  C111-  C110-  H10S
   204    207    210    213      9     0.00   0.41840   1 ;   C112-  C111-  C110-   C19
   204    207    210    213      9     0.00   0.41840   2 ;   C112-  C111-  C110-   C19
   204    207    210    213      9     0.00   0.41840   4 ;   C112-  C111-  C110-   C19
   204    207    210    213      9     0.00   0.41840   5 ;   C112-  C111-  C110-   C19
   204    207    210    213      9     0.00   1.25520   3 ;   C112-  C111-  C110-   C19
   205    204    207    208      9     0.00   0.62760   3 ;   H12R-  C112-  C111-  H11R
   205    204    207    209      9     0.00   0.62760   3 ;   H12R-  C112-  C111-  H11S
   205    204    207    210      9     0.00   0.66944   3 ;   H12R-  C112-  C111-  C110
   206    204    207    208      9     0.00   0.62760   3 ;   H12S-  C112-  C111-  H11R
   206    204    207    209      9     0.00   0.62760   3 ;   H12S-  C112-  C111-  H11S
   206    204    207    210      9     0.00   0.66944   3 ;   H12S-  C112-  C111-  C110
   207    210    213    214      9     0.00   0.66944   3 ;   C111-  C110-   C19-   H9R
   207    210    213    215      9     0.00   0.66944   3 ;   C111-  C110-   C19-   H9S
   207    210    213    216      9     0.00   0.41840   1 ;   C111-  C110-   C19-   C18
   207    210    213    216      9     0.00   0.41840   2 ;   C111-  C110-   C19-   C18
   207    210    213    216      9     0.00   0.41840   4 ;   C111-  C110-   C19-   C18
   207    210    213    216      9     0.00   0.41840   5 ;   C111-  C110-   C19-   C18
   207    210    213    216      9     0.00   1.25520   3 ;   C111-  C110-   C19-   C18
   208    207    210    211      9     0.00   0.62760   3 ;   H11R-  C111-  C110-  H10R
   208    207    210    212      9     0.00   0.62760   3 ;   H11R-  C111-  C110-  H10S
   208    207    210    213      9     0.00   0.66944   3 ;   H11R-  C111-  C110-   C19
   209    207    210    211      9     0.00   0.62760   3 ;   H11S-  C111-  C110-  H10R
   209    207    210    212      9     0.00   0.62760   3 ;   H11S-  C111-  C110-  H10S
   209    207    210    213      9     0.00   0.66944   3 ;   H11S-  C111-  C110-   C19
   210    213    216    217      9     0.00   0.66944   3 ;   C110-   C19-   C18-   H8R
   210    213    216    218      9     0.00   0.66944   3 ;   C110-   C19-   C18-   H8S
   210    213    216    219      9     0.00   0.41840   1 ;   C110-   C19-   C18-   C17
   210    213    216    219      9     0.00   0.41840   2 ;   C110-   C19-   C18-   C17
   210    213    216    219      9     0.00   0.41840   4 ;   C110-   C19-   C18-   C17
   210    213    216    219      9     0.00   0.41840   5 ;   C110-   C19-   C18-   C17
   210    213    216    219      9     0.00   1.25520   3 ;   C110-   C19-   C18-   C17
   211    210    213    214      9     0.00   0.62760   3 ;   H10R-  C110-   C19-   H9R
   211    210    213    215      9     0.00   0.62760   3 ;   H10R-  C110-   C19-   H9S
   211    210    213    216      9     0.00   0.66944   3 ;   H10R-  C110-   C19-   C18
   212    210    213    214      9     0.00   0.62760   3 ;   H10S-  C110-   C19-   H9R
   212    210    213    215      9     0.00   0.62760   3 ;   H10S-  C110-   C19-   H9S
   212    210    213    216      9     0.00   0.66944   3 ;   H10S-  C110-   C19-   C18
   213    216    219    220      9     0.00   0.66944   3 ;    C19-   C18-   C17-   H7R
   213    216    219    221      9     0.00   0.66944   3 ;    C19-   C18-   C17-   H7S
   213    216    219    222      9     0.00   0.41840   1 ;    C19-   C18-   C17-   C16
   213    216    219    222      9     0.00   0.41840   2 ;    C19-   C18-   C17-   C16
   213    216    219    222      9     0.00   0.41840   4 ;    C19-   C18-   C17-   C16
   213    216    219    222      9     0.00   0.41840   5 ;    C19-   C18-   C17-   C16
   213    216    219    222      9     0.00   1.25520   3 ;    C19-   C18-   C17-   C16
   214    213    216    217      9     0.00   0.62760   3 ;    H9R-   C19-   C18-   H8R
   214    213    216    218      9     0.00   0.62760   3 ;    H9R-   C19-   C18-   H8S
   214    213    216    219      9     0.00   0.66944   3 ;    H9R-   C19-   C18-   C17
   215    213    216    217      9     0.00   0.62760   3 ;    H9S-   C19-   C18-   H8R
   215    213    216    218      9     0.00   0.62760   3 ;    H9S-   C19-   C18-   H8S
   215    213    216    219      9     0.00   0.66944   3 ;    H9S-   C19-   C18-   C17
   216    219    222    223      9     0.00   0.66944   3 ;    C18-   C17-   C16-   H6R
   216    219    222    224      9     0.00   0.66944   3 ;    C18-   C17-   C16-   H6S
   216    219    222    225      9     0.00   0.41840   1 ;    C18-   C17-   C16-   C15
   216    219    222    225      9     0.00   0.41840   2 ;    C18-   C17-   C16-   C15
   216    219    222    225      9     0.00   0.41840   4 ;    C18-   C17-   C16-   C15
   216    219    222    225      9     0.00   0.41840   5 ;    C18-   C17-   C16-   C15
   216    219    222    225      9     0.00   1.25520   3 ;    C18-   C17-   C16-   C15
   217    216    219    220      9     0.00   0.62760   3 ;    H8R-   C18-   C17-   H7R
   217    216    219    221      9     0.00   0.62760   3 ;    H8R-   C18-   C17-   H7S
   217    216    219    222      9     0.00   0.66944   3 ;    H8R-   C18-   C17-   C16
   218    216    219    220      9     0.00   0.62760   3 ;    H8S-   C18-   C17-   H7R
   218    216    219    221      9     0.00   0.62760   3 ;    H8S-   C18-   C17-   H7S
   218    216    219    222      9     0.00   0.66944   3 ;    H8S-   C18-   C17-   C16
   219    222    225    226      9     0.00   0.66944   3 ;    C17-   C16-   C15-   H5R
   219    222    225    227      9     0.00   0.66944   3 ;    C17-   C16-   C15-   H5S
   219    222    225    228      9     0.00   0.41840   1 ;    C17-   C16-   C15-   C14
   219    222    225    228      9     0.00   0.41840   2 ;    C17-   C16-   C15-   C14
   219    222    225    228      9     0.00   0.41840   4 ;    C17-   C16-   C15-   C14
   219    222    225    228      9     0.00   0.41840   5 ;    C17-   C16-   C15-   C14
   219    222    225    228      9     0.00   1.25520   3 ;    C17-   C16-   C15-   C14
   220    219    222    223      9     0.00   0.62760   3 ;    H7R-   C17-   C16-   H6R
   220    219    222    224      9     0.00   0.62760   3 ;    H7R-   C17-   C16-   H6S
   220    219    222    225      9     0.00   0.66944   3 ;    H7R-   C17-   C16-   C15
   221    219    222    223      9     0.00   0.62760   3 ;    H7S-   C17-   C16-   H6R
   221    219    222    224      9     0.00   0.62760   3 ;    H7S-   C17-   C16-   H6S
   221    219    222    225      9     0.00   0.66944   3 ;    H7S-   C17-   C16-   C15
   222    225    228    229      9     0.00   0.66944   3 ;    C16-   C15-   C14-   H4R
   222    225    228    230      9     0.00   0.66944   3 ;    C16-   C15-   C14-   H4S
   222    225    228    231      9     0.00   0.41840   1 ;    C16-   C15-   C14-   C13
   222    225    228    231      9     0.00   0.41840   2 ;    C16-   C15-   C14-   C13
   222    225    228    231      9     0.00   0.41840   4 ;    C16-   C15-   C14-   C13
   222    225    228    231      9     0.00   0.41840   5 ;    C16-   C15-   C14-   C13
   222    225    228    231      9     0.00   1.25520   3 ;    C16-   C15-   C14-   C13
   223    222    225    226      9     0.00   0.62760   3 ;    H6R-   C16-   C15-   H5R
   223    222    225    227      9     0.00   0.62760   3 ;    H6R-   C16-   C15-   H5S
   223    222    225    228      9     0.00   0.66944   3 ;    H6R-   C16-   C15-   C14
   224    222    225    226      9     0.00   0.62760   3 ;    H6S-   C16-   C15-   H5R
   224    222    225    227      9     0.00   0.62760   3 ;    H6S-   C16-   C15-   H5S
   224    222    225    228      9     0.00   0.66944   3 ;    H6S-   C16-   C15-   C14
   225    228    231    232      9     0.00   0.66944   3 ;    C15-   C14-   C13-   H3R
   225    228    231    233      9     0.00   0.66944   3 ;    C15-   C14-   C13-   H3S
   225    228    231    234      9     0.00   0.41840   1 ;    C15-   C14-   C13-   C12
   225    228    231    234      9     0.00   0.41840   2 ;    C15-   C14-   C13-   C12
   225    228    231    234      9     0.00   0.41840   4 ;    C15-   C14-   C13-   C12
   225    228    231    234      9     0.00   0.41840   5 ;    C15-   C14-   C13-   C12
   225    228    231    234      9     0.00   1.25520   3 ;    C15-   C14-   C13-   C12
   226    225    228    229      9     0.00   0.62760   3 ;    H5R-   C15-   C14-   H4R
   226    225    228    230      9     0.00   0.62760   3 ;    H5R-   C15-   C14-   H4S
   226    225    228    231      9     0.00   0.66944   3 ;    H5R-   C15-   C14-   C13
   227    225    228    229      9     0.00   0.62760   3 ;    H5S-   C15-   C14-   H4R
   227    225    228    230      9     0.00   0.62760   3 ;    H5S-   C15-   C14-   H4S
   227    225    228    231      9     0.00   0.66944   3 ;    H5S-   C15-   C14-   C13
   228    231    234    235      9     0.00   0.66944   3 ;    C14-   C13-   C12-   H2R
   228    231    234    236      9     0.00   0.66944   3 ;    C14-   C13-   C12-   H2S
   229    228    231    232      9     0.00   0.62760   3 ;    H4R-   C14-   C13-   H3R
   229    228    231    233      9     0.00   0.62760   3 ;    H4R-   C14-   C13-   H3S
   229    228    231    234      9     0.00   0.66944   3 ;    H4R-   C14-   C13-   C12
   230    228    231    232      9     0.00   0.62760   3 ;    H4S-   C14-   C13-   H3R
   230    228    231    233      9     0.00   0.62760   3 ;    H4S-   C14-   C13-   H3S
   230    228    231    234      9     0.00   0.66944   3 ;    H4S-   C14-   C13-   C12
   232    231    234    235      9     0.00   0.62760   3 ;    H3R-   C13-   C12-   H2R
   232    231    234    236      9     0.00   0.62760   3 ;    H3R-   C13-   C12-   H2S
   233    231    234    235      9     0.00   0.62760   3 ;    H3S-   C13-   C12-   H2R
   233    231    234    236      9     0.00   0.62760   3 ;    H3S-   C13-   C12-   H2S
   237    238    241    242      9     0.00   0.62760   3 ;   H14T-  C114-  C113-  H13R
   237    238    241    243      9     0.00   0.62760   3 ;   H14T-  C114-  C113-  H13S
   237    238    241    244      9     0.00   0.66944   3 ;   H14T-  C114-  C113-  C112
   238    241    244    245      9     0.00   0.66944   3 ;   C114-  C113-  C112-  H12R
   238    241    244    246      9     0.00   0.66944   3 ;   C114-  C113-  C112-  H12S
   238    241    244    247      9     0.00   0.41840   1 ;   C114-  C113-  C112-  C111
   238    241    244    247      9     0.00   0.41840   2 ;   C114-  C113-  C112-  C111
   238    241    244    247      9     0.00   0.41840   4 ;   C114-  C113-  C112-  C111
   238    241    244    247      9     0.00   0.41840   5 ;   C114-  C113-  C112-  C111
   238    241    244    247      9     0.00   1.25520   3 ;   C114-  C113-  C112-  C111
   239    238    241    242      9     0.00   0.62760   3 ;   H14R-  C114-  C113-  H13R
   239    238    241    243      9     0.00   0.62760   3 ;   H14R-  C114-  C113-  H13S
   239    238    241    244      9     0.00   0.66944   3 ;   H14R-  C114-  C113-  C112
   240    238    241    242      9     0.00   0.62760   3 ;   H14S-  C114-  C113-  H13R
   240    238    241    243      9     0.00   0.62760   3 ;   H14S-  C114-  C113-  H13S
   240    238    241    244      9     0.00   0.66944   3 ;   H14S-  C114-  C113-  C112
   241    244    247    248      9     0.00   0.66944   3 ;   C113-  C112-  C111-  H11R
   241    244    247    249      9     0.00   0.66944   3 ;   C113-  C112-  C111-  H11S
   241    244    247    250      9     0.00   0.41840   1 ;   C113-  C112-  C111-  C110
   241    244    247    250      9     0.00   0.41840   2 ;   C113-  C112-  C111-  C110
   241    244    247    250      9     0.00   0.41840   4 ;   C113-  C112-  C111-  C110
   241    244    247    250      9     0.00   0.41840   5 ;   C113-  C112-  C111-  C110
   241    244    247    250      9     0.00   1.25520   3 ;   C113-  C112-  C111-  C110
   242    241    244    245      9     0.00   0.62760   3 ;   H13R-  C113-  C112-  H12R
   242    241    244    246      9     0.00   0.62760   3 ;   H13R-  C113-  C112-  H12S
   242    241    244    247      9     0.00   0.66944   3 ;   H13R-  C113-  C112-  C111
   243    241    244    245      9     0.00   0.62760   3 ;   H13S-  C113-  C112-  H12R
   243    241    244    246      9     0.00   0.62760   3 ;   H13S-  C113-  C112-  H12S
   243    241    244    247      9     0.00   0.66944   3 ;   H13S-  C113-  C112-  C111
   244    247    250    251      9     0.00   0.66944   3 ;   C112-  C111-  C110-  H10R
   244    247    250    252      9     0.00   0.66944   3 ;   C112-  C111-  C110-  H10S
   244    247    250    253      9     0.00   0.41840   1 ;   C112-  C111-  C110-   C19
   244    247    250    253      9     0.00   0.41840   2 ;   C112-  C111-  C110-   C19
   244    247    250    253      9     0.00   0.41840   4 ;   C112-  C111-  C110-   C19
   244    247    250    253      9     0.00   0.41840   5 ;   C112-  C111-  C110-   C19
   244    247    250    253      9     0.00   1.25520   3 ;   C112-  C111-  C110-   C19
   245    244    247    248      9     0.00   0.62760   3 ;   H12R-  C112-  C111-  H11R
   245    244    247    249      9     0.00   0.62760   3 ;   H12R-  C112-  C111-  H11S
   245    244    247    250      9     0.00   0.66944   3 ;   H12R-  C112-  C111-  C110
   246    244    247    248      9     0.00   0.62760   3 ;   H12S-  C112-  C111-  H11R
   246    244    247    249      9     0.00   0.62760   3 ;   H12S-  C112-  C111-  H11S
   246    244    247    250      9     0.00   0.66944   3 ;   H12S-  C112-  C111-  C110
   247    250    253    254      9     0.00   0.66944   3 ;   C111-  C110-   C19-   H9R
   247    250    253    255      9     0.00   0.66944   3 ;   C111-  C110-   C19-   H9S
   247    250    253    256      9     0.00   0.41840   1 ;   C111-  C110-   C19-   C18
   247    250    253    256      9     0.00   0.41840   2 ;   C111-  C110-   C19-   C18
   247    250    253    256      9     0.00   0.41840   4 ;   C111-  C110-   C19-   C18
   247    250    253    256      9     0.00   0.41840   5 ;   C111-  C110-   C19-   C18
   247    250    253    256      9     0.00   1.25520   3 ;   C111-  C110-   C19-   C18
   248    247    250    251      9     0.00   0.62760   3 ;   H11R-  C111-  C110-  H10R
   248    247    250    252      9     0.00   0.62760   3 ;   H11R-  C111-  C110-  H10S
   248    247    250    253      9     0.00   0.66944   3 ;   H11R-  C111-  C110-   C19
   249    247    250    251      9     0.00   0.62760   3 ;   H11S-  C111-  C110-  H10R
   249    247    250    252      9     0.00   0.62760   3 ;   H11S-  C111-  C110-  H10S
   249    247    250    253      9     0.00   0.66944   3 ;   H11S-  C111-  C110-   C19
   250    253    256    257      9     0.00   0.66944   3 ;   C110-   C19-   C18-   H8R
   250    253    256    258      9     0.00   0.66944   3 ;   C110-   C19-   C18-   H8S
   250    253    256    259      9     0.00   0.41840   1 ;   C110-   C19-   C18-   C17
   250    253    256    259      9     0.00   0.41840   2 ;   C110-   C19-   C18-   C17
   250    253    256    259      9     0.00   0.41840   4 ;   C110-   C19-   C18-   C17
   250    253    256    259      9     0.00   0.41840   5 ;   C110-   C19-   C18-   C17
   250    253    256    259      9     0.00   1.25520   3 ;   C110-   C19-   C18-   C17
   251    250    253    254      9     0.00   0.62760   3 ;   H10R-  C110-   C19-   H9R
   251    250    253    255      9     0.00   0.62760   3 ;   H10R-  C110-   C19-   H9S
   251    250    253    256      9     0.00   0.66944   3 ;   H10R-  C110-   C19-   C18
   252    250    253    254      9     0.00   0.62760   3 ;   H10S-  C110-   C19-   H9R
   252    250    253    255      9     0.00   0.62760   3 ;   H10S-  C110-   C19-   H9S
   252    250    253    256      9     0.00   0.66944   3 ;   H10S-  C110-   C19-   C18
   253    256    259    260      9     0.00   0.66944   3 ;    C19-   C18-   C17-   H7R
   253    256    259    261      9     0.00   0.66944   3 ;    C19-   C18-   C17-   H7S
   253    256    259    262      9     0.00   0.41840   1 ;    C19-   C18-   C17-   C16
   253    256    259    262      9     0.00   0.41840   2 ;    C19-   C18-   C17-   C16
   253    256    259    262      9     0.00   0.41840   4 ;    C19-   C18-   C17-   C16
   253    256    259    262      9     0.00   0.41840   5 ;    C19-   C18-   C17-   C16
   253    256    259    262      9     0.00   1.25520   3 ;    C19-   C18-   C17-   C16
   254    253    256    257      9     0.00   0.62760   3 ;    H9R-   C19-   C18-   H8R
   254    253    256    258      9     0.00   0.62760   3 ;    H9R-   C19-   C18-   H8S
   254    253    256    259      9     0.00   0.66944   3 ;    H9R-   C19-   C18-   C17
   255    253    256    257      9     0.00   0.62760   3 ;    H9S-   C19-   C18-   H8R
   255    253    256    258      9     0.00   0.62760   3 ;    H9S-   C19-   C18-   H8S
   255    253    256    259      9     0.00   0.66944   3 ;    H9S-   C19-   C18-   C17
   256    259    262    263      9     0.00   0.66944   3 ;    C18-   C17-   C16-   H6R
   256    259    262    264      9     0.00   0.66944   3 ;    C18-   C17-   C16-   H6S
   256    259    262    265      9     0.00   0.41840   1 ;    C18-   C17-   C16-   C15
   256    259    262    265      9     0.00   0.41840   2 ;    C18-   C17-   C16-   C15
   256    259    262    265      9     0.00   0.41840   4 ;    C18-   C17-   C16-   C15
   256    259    262    265      9     0.00   0.41840   5 ;    C18-   C17-   C16-   C15
   256    259    262    265      9     0.00   1.25520   3 ;    C18-   C17-   C16-   C15
   257    256    259    260      9     0.00   0.62760   3 ;    H8R-   C18-   C17-   H7R
   257    256    259    261      9     0.00   0.62760   3 ;    H8R-   C18-   C17-   H7S
   257    256    259    262      9     0.00   0.66944   3 ;    H8R-   C18-   C17-   C16
   258    256    259    260      9     0.00   0.62760   3 ;    H8S-   C18-   C17-   H7R
   258    256    259    261      9     0.00   0.62760   3 ;    H8S-   C18-   C17-   H7S
   258    256    259    262      9     0.00   0.66944   3 ;    H8S-   C18-   C17-   C16
   259    262    265    266      9     0.00   0.66944   3 ;    C17-   C16-   C15-   H5R
   259    262    265    267      9     0.00   0.66944   3 ;    C17-   C16-   C15-   H5S
   259    262    265    268      9     0.00   0.41840   1 ;    C17-   C16-   C15-   C14
   259    262    265    268      9     0.00   0.41840   2 ;    C17-   C16-   C15-   C14
   259    262    265    268      9     0.00   0.41840   4 ;    C17-   C16-   C15-   C14
   259    262    265    268      9     0.00   0.41840   5 ;    C17-   C16-   C15-   C14
   259    262    265    268      9     0.00   1.25520   3 ;    C17-   C16-   C15-   C14
   260    259    262    263      9     0.00   0.62760   3 ;    H7R-   C17-   C16-   H6R
   260    259    262    264      9     0.00   0.62760   3 ;    H7R-   C17-   C16-   H6S
   260    259    262    265      9     0.00   0.66944   3 ;    H7R-   C17-   C16-   C15
   261    259    262    263      9     0.00   0.62760   3 ;    H7S-   C17-   C16-   H6R
   261    259    262    264      9     0.00   0.62760   3 ;    H7S-   C17-   C16-   H6S
   261    259    262    265      9     0.00   0.66944   3 ;    H7S-   C17-   C16-   C15
   262    265    268    269      9     0.00   0.66944   3 ;    C16-   C15-   C14-   H4R
   262    265    268    270      9     0.00   0.66944   3 ;    C16-   C15-   C14-   H4S
   262    265    268    271      9     0.00   0.41840   1 ;    C16-   C15-   C14-   C13
   262    265    268    271      9     0.00   0.41840   2 ;    C16-   C15-   C14-   C13
   262    265    268    271      9     0.00   0.41840   4 ;    C16-   C15-   C14-   C13
   262    265    268    271      9     0.00   0.41840   5 ;    C16-   C15-   C14-   C13
   262    265    268    271      9     0.00   1.25520   3 ;    C16-   C15-   C14-   C13
   263    262    265    266      9     0.00   0.62760   3 ;    H6R-   C16-   C15-   H5R
   263    262    265    267      9     0.00   0.62760   3 ;    H6R-   C16-   C15-   H5S
   263    262    265    268      9     0.00   0.66944   3 ;    H6R-   C16-   C15-   C14
   264    262    265    266      9     0.00   0.62760   3 ;    H6S-   C16-   C15-   H5R
   264    262    265    267      9     0.00   0.62760   3 ;    H6S-   C16-   C15-   H5S
   264    262    265    268      9     0.00   0.66944   3 ;    H6S-   C16-   C15-   C14
   265    268    271    272      9     0.00   0.66944   3 ;    C15-   C14-   C13-   H3R
   265    268    271    273      9     0.00   0.66944   3 ;    C15-   C14-   C13-   H3S
   265    268    271    274      9     0.00   0.41840   1 ;    C15-   C14-   C13-   C12
   265    268    271    274      9     0.00   0.41840   2 ;    C15-   C14-   C13-   C12
   265    268    271    274      9     0.00   0.41840   4 ;    C15-   C14-   C13-   C12
   265    268    271    274      9     0.00   0.41840   5 ;    C15-   C14-   C13-   C12
   265    268    271    274      9     0.00   1.25520   3 ;    C15-   C14-   C13-   C12
   266    265    268    269      9     0.00   0.62760   3 ;    H5R-   C15-   C14-   H4R
   266    265    268    270      9     0.00   0.62760   3 ;    H5R-   C15-   C14-   H4S
   266    265    268    271      9     0.00   0.66944   3 ;    H5R-   C15-   C14-   C13
   267    265    268    269      9     0.00   0.62760   3 ;    H5S-   C15-   C14-   H4R
   267    265    268    270      9     0.00   0.62760   3 ;    H5S-   C15-   C14-   H4S
   267    265    268    271      9     0.00   0.66944   3 ;    H5S-   C15-   C14-   C13
   268    271    274    275      9     0.00   0.66944   3 ;    C14-   C13-   C12-   H2R
   268    271    274    276      9     0.00   0.66944   3 ;    C14-   C13-   C12-   H2S
   268    271    274    277      9     0.00   0.65270   3 ;    C14-   C13-   C12-   C11
   269    268    271    272      9     0.00   0.62760   3 ;    H4R-   C14-   C13-   H3R
   269    268    271    273      9     0.00   0.62760   3 ;    H4R-   C14-   C13-   H3S
   269    268    271    274      9     0.00   0.66944   3 ;    H4R-   C14-   C13-   C12
   270    268    271    272      9     0.00   0.62760   3 ;    H4S-   C14-   C13-   H3R
   270    268    271    273      9     0.00   0.62760   3 ;    H4S-   C14-   C13-   H3S
   270    268    271    274      9     0.00   0.66944   3 ;    H4S-   C14-   C13-   C12
   271    274    277    278      9   180.00   0.00000   2 ;    C13-   C12-   C11-   O12
   271    274    277    279      9   180.00   0.00000   2 ;    C13-   C12-   C11-   O11
   272    271    274    275      9     0.00   0.62760   3 ;    H3R-   C13-   C12-   H2R
   272    271    274    276      9     0.00   0.62760   3 ;    H3R-   C13-   C12-   H2S
   272    271    274    277      9     0.00   0.65270   3 ;    H3R-   C13-   C12-   C11
   273    271    274    275      9     0.00   0.62760   3 ;    H3S-   C13-   C12-   H2R
   273    271    274    276      9     0.00   0.62760   3 ;    H3S-   C13-   C12-   H2S
   273    271    274    277      9     0.00   0.65270   3 ;    H3S-   C13-   C12-   C11
   274    277    279    280      9   180.00  11.29680   2 ;    C12-   C11-   O11-    C1
   275    274    277    278      9     0.00   3.34720   1 ;    H2R-   C12-   C11-   O12
   275    274    277    278      9   180.00   0.33472   3 ;    H2R-   C12-   C11-   O12
   275    274    277    279      9   180.00   0.00000   2 ;    H2R-   C12-   C11-   O11
   276    274    277    278      9     0.00   3.34720   1 ;    H2S-   C12-   C11-   O12
   276    274    277    278      9   180.00   0.33472   3 ;    H2S-   C12-   C11-   O12
   276    274    277    279      9   180.00   0.00000   2 ;    H2S-   C12-   C11-   O11
   277    279    280    281      9     0.00   1.60247   3 ;    C11-   O11-    C1-    HR
   277    279    280    282      9     0.00   1.60247   3 ;    C11-   O11-    C1-    HS
   277    279    280    283      9     0.00  -0.41840   1 ;    C11-   O11-    C1-    C2
   278    277    279    280      9   180.00   5.85760   1 ;    O12-   C11-   O11-    C1
   278    277    279    280      9   180.00  11.29680   2 ;    O12-   C11-   O11-    C1
   279    280    283    284      9     0.00   0.00000   0 ;    O11-    C1-    C2-    HX
   279    280    283    284      9     0.00   1.04600   1 ;    O11-    C1-    C2-    HX
   279    280    283    285      9     0.00   0.00000   0 ;    O11-    C1-    C2-    C3
   279    280    283    285      9     0.00   0.00000   0 ;    O11-    C1-    C2-    C3
   279    280    283    285      9     0.00   0.00000   0 ;    O11-    C1-    C2-    C3
   279    280    283    285      9     0.00   0.00000   0 ;    O11-    C1-    C2-    C3
   279    280    283    285      9     0.00   0.00000   0 ;    O11-    C1-    C2-    C3
   279    280    283    312      9     0.00   1.25520   2 ;    O11-    C1-    C2-   O21
   279    280    283    312      9     0.00   4.18400   3 ;    O11-    C1-    C2-   O21
   279    280    283    312      9   180.00  -0.41840   1 ;    O11-    C1-    C2-   O21
   280    283    285    286      9     0.00   0.65270   3 ;     C1-    C2-    C3-    HA
   280    283    285    287      9     0.00   0.65270   3 ;     C1-    C2-    C3-    HB
   280    283    285    288      9   180.00   3.34720   1 ;     C1-    C2-    C3-   O31
   280    283    312    313      9     0.00  -0.41840   1 ;     C1-    C2-   O21-   C21
   281    280    283    284      9     0.00   0.65270   3 ;     HR-    C1-    C2-    HX
   281    280    283    285      9     0.00   0.65270   3 ;     HR-    C1-    C2-    C3
   281    280    283    312      9     0.00   0.00000   0 ;     HR-    C1-    C2-   O21
   281    280    283    312      9     0.00   1.04600   1 ;     HR-    C1-    C2-   O21
   282    280    283    284      9     0.00   0.65270   3 ;     HS-    C1-    C2-    HX
   282    280    283    285      9     0.00   0.65270   3 ;     HS-    C1-    C2-    C3
   282    280    283    312      9     0.00   0.00000   0 ;     HS-    C1-    C2-   O21
   282    280    283    312      9     0.00   1.04600   1 ;     HS-    C1-    C2-   O21
   283    285    288    289      9     0.00   0.00000   0 ;     C2-    C3-   O31-   P31
   283    285    288    289      9   180.00  -3.34720   2 ;     C2-    C3-   O31-   P31
   283    312    313    314      9   180.00   5.85760   1 ;     C2-   O21-   C21-   O22
   283    312    313    314      9   180.00  11.29680   2 ;     C2-   O21-   C21-   O22
   283    312    313    352      9   180.00  11.29680   2 ;     C2-   O21-   C21-   C12
   284    283    285    286      9     0.00   0.65270   3 ;     HX-    C2-    C3-    HA
   284    283    285    287      9     0.00   0.65270   3 ;     HX-    C2-    C3-    HB
   284    283    285    288      9     0.00   0.00000   0 ;     HX-    C2-    C3-   O31
   284    283    285    288      9     0.00   1.04600   1 ;     HX-    C2-    C3-   O31
   284    283    312    313      9     0.00   1.60247   3 ;     HX-    C2-   O21-   C21
   285    283    312    313      9     0.00  -0.41840   1 ;     C3-    C2-   O21-   C21
   285    288    289    290      9     0.00   2.51040   3 ;     C3-   O31-   P31-   O32
   285    288    289    290      9     0.00   9.62320   2 ;     C3-   O31-   P31-   O32
   285    288    289    310      9     0.00   0.00000   0 ;     C3-   O31-   P31-   O33
   285    288    289    310      9     0.00   0.00000   0 ;     C3-   O31-   P31-   O33
   285    288    289    310      9     0.00   0.00000   0 ;     C3-   O31-   P31-   O33
   285    288    289    310      9     0.00   0.00000   0 ;     C3-   O31-   P31-   O33
   285    288    289    310      9     0.00   0.83680   2 ;     C3-   O31-   P31-   O33
   285    288    289    311      9     0.00   0.00000   0 ;     C3-   O31-   P31-   O34
   285    288    289    311      9     0.00   0.00000   0 ;     C3-   O31-   P31-   O34
   285    288    289    311      9     0.00   0.00000   0 ;     C3-   O31-   P31-   O34
   285    288    289    311      9     0.00   0.00000   0 ;     C3-   O31-   P31-   O34
   285    288    289    311      9     0.00   0.83680   2 ;     C3-   O31-   P31-   O34
   286    285    283    312      9     0.00   0.00000   0 ;     HA-    C3-    C2-   O21
   286    285    283    312      9     0.00   1.04600   1 ;     HA-    C3-    C2-   O21
   286    285    288    289      9     0.00   0.00000   0 ;     HA-    C3-   O31-   P31
   286    285    288    289      9     0.00   0.00000   0 ;     HA-    C3-   O31-   P31
   286    285    288    289      9     0.00   0.00000   0 ;     HA-    C3-   O31-   P31
   286    285    288    289      9     0.00   0.00000   0 ;     HA-    C3-   O31-   P31
   286    285    288    289      9     0.00   1.60247   3 ;     HA-    C3-   O31-   P31
   287    285    283    312      9     0.00   0.00000   0 ;     HB-    C3-    C2-   O21
   287    285    283    312      9     0.00   1.04600   1 ;     HB-    C3-    C2-   O21
   287    285    288    289      9     0.00   0.00000   0 ;     HB-    C3-   O31-   P31
   287    285    288    289      9     0.00   0.00000   0 ;     HB-    C3-   O31-   P31
   287    285    288    289      9     0.00   0.00000   0 ;     HB-    C3-   O31-   P31
   287    285    288    289      9     0.00   0.00000   0 ;     HB-    C3-   O31-   P31
   287    285    288    289      9     0.00   1.60247   3 ;     HB-    C3-   O31-   P31
   288    285    283    312      9     0.00   0.00000   0 ;    O31-    C3-    C2-   O21
   288    285    283    312      9     0.00   0.00000   0 ;    O31-    C3-    C2-   O21
   288    285    283    312      9     0.00   0.00000   0 ;    O31-    C3-    C2-   O21
   288    285    283    312      9     0.00   0.00000   0 ;    O31-    C3-    C2-   O21
   288    285    283    312      9     0.00   0.00000   0 ;    O31-    C3-    C2-   O21
   288    289    290    291      9     0.00   2.51040   3 ;    O31-   P31-   O32-   C31
   288    289    290    291      9     0.00   9.62320   2 ;    O31-   P31-   O32-   C31
   289    290    291    292      9     0.00   0.00000   0 ;    P31-   O32-   C31-   H1A
   289    290    291    292      9     0.00   0.00000   0 ;    P31-   O32-   C31-   H1A
   289    290    291    292      9     0.00   0.00000   0 ;    P31-   O32-   C31-   H1A
   289    290    291    292      9     0.00   0.00000   0 ;    P31-   O32-   C31-   H1A
   289    290    291    292      9     0.00   1.60247   3 ;    P31-   O32-   C31-   H1A
   289    290    291    293      9     0.00   0.00000   0 ;    P31-   O32-   C31-   H1B
   289    290    291    293      9     0.00   0.00000   0 ;    P31-   O32-   C31-   H1B
   289    290    291    293      9     0.00   0.00000   0 ;    P31-   O32-   C31-   H1B
   289    290    291    293      9     0.00   0.00000   0 ;    P31-   O32-   C31-   H1B
   289    290    291    293      9     0.00   1.60247   3 ;    P31-   O32-   C31-   H1B
   289    290    291    294      9     0.00   0.00000   0 ;    P31-   O32-   C31-   C32
   289    290    291    294      9   180.00  -3.34720   2 ;    P31-   O32-   C31-   C32
   290    291    294    295      9     0.00   0.65270   3 ;    O32-   C31-   C32-   H2A
   290    291    294    296      9     0.00   0.65270   3 ;    O32-   C31-   C32-   H2B
   290    291    294    297      9     0.00   4.18400   3 ;    O32-   C31-   C32-   N31
   291    290    289    310      9     0.00   0.00000   0 ;    C31-   O32-   P31-   O33
   291    290    289    310      9     0.00   0.00000   0 ;    C31-   O32-   P31-   O33
   291    290    289    310      9     0.00   0.00000   0 ;    C31-   O32-   P31-   O33
   291    290    289    310      9     0.00   0.00000   0 ;    C31-   O32-   P31-   O33
   291    290    289    310      9     0.00   0.83680   2 ;    C31-   O32-   P31-   O33
   291    290    289    311      9     0.00   0.00000   0 ;    C31-   O32-   P31-   O34
   291    290    289    311      9     0.00   0.00000   0 ;    C31-   O32-   P31-   O34
   291    290    289    311      9     0.00   0.00000   0 ;    C31-   O32-   P31-   O34
   291    290    289    311      9     0.00   0.00000   0 ;    C31-   O32-   P31-   O34
   291    290    289    311      9     0.00   0.83680   2 ;    C31-   O32-   P31-   O34
   291    294    297    298      9     0.00   0.65270   3 ;    C31-   C32-   N31-   C33
   291    294    297    302      9     0.00   0.65270   3 ;    C31-   C32-   N31-   C34
   291    294    297    306      9     0.00   0.65270   3 ;    C31-   C32-   N31-   C35
   292    291    294    295      9     0.00   0.65270   3 ;    H1A-   C31-   C32-   H2A
   292    291    294    296      9     0.00   0.65270   3 ;    H1A-   C31-   C32-   H2B
   292    291    294    297      9     0.00   0.65270   3 ;    H1A-   C31-   C32-   N31
   293    291    294    295      9     0.00   0.65270   3 ;    H1B-   C31-   C32-   H2A
   293    291    294    296      9     0.00   0.65270   3 ;    H1B-   C31-   C32-   H2B
   293    291    294    297      9     0.00   0.65270   3 ;    H1B-   C31-   C32-   N31
   294    297    298    299      9     0.00   0.65270   3 ;    C32-   N31-   C33-   H3A
   294    297    298    300      9     0.00   0.65270   3 ;    C32-   N31-   C33-   H3B
   294    297    298    301      9     0.00   0.65270   3 ;    C32-   N31-   C33-   H3C
   294    297    302    303      9     0.00   0.65270   3 ;    C32-   N31-   C34-   H4A
   294    297    302    304      9     0.00   0.65270   3 ;    C32-   N31-   C34-   H4B
   294    297    302    305      9     0.00   0.65270   3 ;    C32-   N31-   C34-   H4C
   294    297    306    307      9     0.00   0.65270   3 ;    C32-   N31-   C35-   H5A
   294    297    306    308      9     0.00   0.65270   3 ;    C32-   N31-   C35-   H5B
   294    297    306    309      9     0.00   0.65270   3 ;    C32-   N31-   C35-   H5C
   295    294    297    298      9     0.00   0.65270   3 ;    H2A-   C32-   N31-   C33
   295    294    297    302      9     0.00   0.65270   3 ;    H2A-   C32-   N31-   C34
   295    294    297    306      9     0.00   0.65270   3 ;    H2A-   C32-   N31-   C35
   296    294    297    298      9     0.00   0.65270   3 ;    H2B-   C32-   N31-   C33
   296    294    297    302      9     0.00   0.65270   3 ;    H2B-   C32-   N31-   C34
   296    294    297    306      9     0.00   0.65270   3 ;    H2B-   C32-   N31-   C35
   298    297    302    303      9     0.00   0.65270   3 ;    C33-   N31-   C34-   H4A
   298    297    302    304      9     0.00   0.65270   3 ;    C33-   N31-   C34-   H4B
   298    297    302    305      9     0.00   0.65270   3 ;    C33-   N31-   C34-   H4C
   298    297    306    307      9     0.00   0.65270   3 ;    C33-   N31-   C35-   H5A
   298    297    306    308      9     0.00   0.65270   3 ;    C33-   N31-   C35-   H5B
   298    297    306    309      9     0.00   0.65270   3 ;    C33-   N31-   C35-   H5C
   299    298    297    302      9     0.00   0.65270   3 ;    H3A-   C33-   N31-   C34
   299    298    297    306      9     0.00   0.65270   3 ;    H3A-   C33-   N31-   C35
   300    298    297    302      9     0.00   0.65270   3 ;    H3B-   C33-   N31-   C34
   300    298    297    306      9     0.00   0.65270   3 ;    H3B-   C33-   N31-   C35
   301    298    297    302      9     0.00   0.65270   3 ;    H3C-   C33-   N31-   C34
   301    298    297    306      9     0.00   0.65270   3 ;    H3C-   C33-   N31-   C35
   302    297    306    307      9     0.00   0.65270   3 ;    C34-   N31-   C35-   H5A
   302    297    306    308      9     0.00   0.65270   3 ;    C34-   N31-   C35-   H5B
   302    297    306    309      9     0.00   0.65270   3 ;    C34-   N31-   C35-   H5C
   303    302    297    306      9     0.00   0.65270   3 ;    H4A-   C34-   N31-   C35
   304    302    297    306      9     0.00   0.65270   3 ;    H4B-   C34-   N31-   C35
   305    302    297    306      9     0.00   0.65270   3 ;    H4C-   C34-   N31-   C35
   312    313    352    349      9   180.00   0.00000   2 ;    O21-   C21-   C12-   C13
   312    313    352    353      9   180.00   0.00000   2 ;    O21-   C21-   C12-   H2R
   312    313    352    354      9   180.00   0.00000   2 ;    O21-   C21-   C12-   H2S
   313    352    349    346      9     0.00   0.65270   3 ;    C21-   C12-   C13-   C14
   313    352    349    350      9     0.00   0.65270   3 ;    C21-   C12-   C13-   H3R
   313    352    349    351      9     0.00   0.65270   3 ;    C21-   C12-   C13-   H3S
   314    313    352    349      9   180.00   0.00000   2 ;    O22-   C21-   C12-   C13
   314    313    352    353      9     0.00   3.34720   1 ;    O22-   C21-   C12-   H2R
   314    313    352    353      9   180.00   0.33472   3 ;    O22-   C21-   C12-   H2R
   314    313    352    354      9     0.00   3.34720   1 ;    O22-   C21-   C12-   H2S
   314    313    352    354      9   180.00   0.33472   3 ;    O22-   C21-   C12-   H2S
   315    316    319    320      9     0.00   0.62760   3 ;   H14T-  C114-  C113-  H13R
   315    316    319    321      9     0.00   0.62760   3 ;   H14T-  C114-  C113-  H13S
   315    316    319    322      9     0.00   0.66944   3 ;   H14T-  C114-  C113-  C112
   316    319    322    323      9     0.00   0.66944   3 ;   C114-  C113-  C112-  H12R
   316    319    322    324      9     0.00   0.66944   3 ;   C114-  C113-  C112-  H12S
   316    319    322    325      9     0.00   0.41840   1 ;   C114-  C113-  C112-  C111
   316    319    322    325      9     0.00   0.41840   2 ;   C114-  C113-  C112-  C111
   316    319    322    325      9     0.00   0.41840   4 ;   C114-  C113-  C112-  C111
   316    319    322    325      9     0.00   0.41840   5 ;   C114-  C113-  C112-  C111
   316    319    322    325      9     0.00   1.25520   3 ;   C114-  C113-  C112-  C111
   317    316    319    320      9     0.00   0.62760   3 ;   H14R-  C114-  C113-  H13R
   317    316    319    321      9     0.00   0.62760   3 ;   H14R-  C114-  C113-  H13S
   317    316    319    322      9     0.00   0.66944   3 ;   H14R-  C114-  C113-  C112
   318    316    319    320      9     0.00   0.62760   3 ;   H14S-  C114-  C113-  H13R
   318    316    319    321      9     0.00   0.62760   3 ;   H14S-  C114-  C113-  H13S
   318    316    319    322      9     0.00   0.66944   3 ;   H14S-  C114-  C113-  C112
   319    322    325    326      9     0.00   0.66944   3 ;   C113-  C112-  C111-  H11R
   319    322    325    327      9     0.00   0.66944   3 ;   C113-  C112-  C111-  H11S
   319    322    325    328      9     0.00   0.41840   1 ;   C113-  C112-  C111-  C110
   319    322    325    328      9     0.00   0.41840   2 ;   C113-  C112-  C111-  C110
   319    322    325    328      9     0.00   0.41840   4 ;   C113-  C112-  C111-  C110
   319    322    325    328      9     0.00   0.41840   5 ;   C113-  C112-  C111-  C110
   319    322    325    328      9     0.00   1.25520   3 ;   C113-  C112-  C111-  C110
   320    319    322    323      9     0.00   0.62760   3 ;   H13R-  C113-  C112-  H12R
   320    319    322    324      9     0.00   0.62760   3 ;   H13R-  C113-  C112-  H12S
   320    319    322    325      9     0.00   0.66944   3 ;   H13R-  C113-  C112-  C111
   321    319    322    323      9     0.00   0.62760   3 ;   H13S-  C113-  C112-  H12R
   321    319    322    324      9     0.00   0.62760   3 ;   H13S-  C113-  C112-  H12S
   321    319    322    325      9     0.00   0.66944   3 ;   H13S-  C113-  C112-  C111
   322    325    328    329      9     0.00   0.66944   3 ;   C112-  C111-  C110-  H10R
   322    325    328    330      9     0.00   0.66944   3 ;   C112-  C111-  C110-  H10S
   322    325    328    331      9     0.00   0.41840   1 ;   C112-  C111-  C110-   C19
   322    325    328    331      9     0.00   0.41840   2 ;   C112-  C111-  C110-   C19
   322    325    328    331      9     0.00   0.41840   4 ;   C112-  C111-  C110-   C19
   322    325    328    331      9     0.00   0.41840   5 ;   C112-  C111-  C110-   C19
   322    325    328    331      9     0.00   1.25520   3 ;   C112-  C111-  C110-   C19
   323    322    325    326      9     0.00   0.62760   3 ;   H12R-  C112-  C111-  H11R
   323    322    325    327      9     0.00   0.62760   3 ;   H12R-  C112-  C111-  H11S
   323    322    325    328      9     0.00   0.66944   3 ;   H12R-  C112-  C111-  C110
   324    322    325    326      9     0.00   0.62760   3 ;   H12S-  C112-  C111-  H11R
   324    322    325    327      9     0.00   0.62760   3 ;   H12S-  C112-  C111-  H11S
   324    322    325    328      9     0.00   0.66944   3 ;   H12S-  C112-  C111-  C110
   325    328    331    332      9     0.00   0.66944   3 ;   C111-  C110-   C19-   H9R
   325    328    331    333      9     0.00   0.66944   3 ;   C111-  C110-   C19-   H9S
   325    328    331    334      9     0.00   0.41840   1 ;   C111-  C110-   C19-   C18
   325    328    331    334      9     0.00   0.41840   2 ;   C111-  C110-   C19-   C18
   325    328    331    334      9     0.00   0.41840   4 ;   C111-  C110-   C19-   C18
   325    328    331    334      9     0.00   0.41840   5 ;   C111-  C110-   C19-   C18
   325    328    331    334      9     0.00   1.25520   3 ;   C111-  C110-   C19-   C18
   326    325    328    329      9     0.00   0.62760   3 ;   H11R-  C111-  C110-  H10R
   326    325    328    330      9     0.00   0.62760   3 ;   H11R-  C111-  C110-  H10S
   326    325    328    331      9     0.00   0.66944   3 ;   H11R-  C111-  C110-   C19
   327    325    328    329      9     0.00   0.62760   3 ;   H11S-  C111-  C110-  H10R
   327    325    328    330      9     0.00   0.62760   3 ;   H11S-  C111-  C110-  H10S
   327    325    328    331      9     0.00   0.66944   3 ;   H11S-  C111-  C110-   C19
   328    331    334    335      9     0.00   0.66944   3 ;   C110-   C19-   C18-   H8R
   328    331    334    336      9     0.00   0.66944   3 ;   C110-   C19-   C18-   H8S
   328    331    334    337      9     0.00   0.41840   1 ;   C110-   C19-   C18-   C17
   328    331    334    337      9     0.00   0.41840   2 ;   C110-   C19-   C18-   C17
   328    331    334    337      9     0.00   0.41840   4 ;   C110-   C19-   C18-   C17
   328    331    334    337      9     0.00   0.41840   5 ;   C110-   C19-   C18-   C17
   328    331    334    337      9     0.00   1.25520   3 ;   C110-   C19-   C18-   C17
   329    328    331    332      9     0.00   0.62760   3 ;   H10R-  C110-   C19-   H9R
   329    328    331    333      9     0.00   0.62760   3 ;   H10R-  C110-   C19-   H9S
   329    328    331    334      9     0.00   0.66944   3 ;   H10R-  C110-   C19-   C18
   330    328    331    332      9     0.00   0.62760   3 ;   H10S-  C110-   C19-   H9R
   330    328    331    333      9     0.00   0.62760   3 ;   H10S-  C110-   C19-   H9S
   330    328    331    334      9     0.00   0.66944   3 ;   H10S-  C110-   C19-   C18
   331    334    337    338      9     0.00   0.66944   3 ;    C19-   C18-   C17-   H7R
   331    334    337    339      9     0.00   0.66944   3 ;    C19-   C18-   C17-   H7S
   331    334    337    340      9     0.00   0.41840   1 ;    C19-   C18-   C17-   C16
   331    334    337    340      9     0.00   0.41840   2 ;    C19-   C18-   C17-   C16
   331    334    337    340      9     0.00   0.41840   4 ;    C19-   C18-   C17-   C16
   331    334    337    340      9     0.00   0.41840   5 ;    C19-   C18-   C17-   C16
   331    334    337    340      9     0.00   1.25520   3 ;    C19-   C18-   C17-   C16
   332    331    334    335      9     0.00   0.62760   3 ;    H9R-   C19-   C18-   H8R
   332    331    334    336      9     0.00   0.62760   3 ;    H9R-   C19-   C18-   H8S
   332    331    334    337      9     0.00   0.66944   3 ;    H9R-   C19-   C18-   C17
   333    331    334    335      9     0.00   0.62760   3 ;    H9S-   C19-   C18-   H8R
   333    331    334    336      9     0.00   0.62760   3 ;    H9S-   C19-   C18-   H8S
   333    331    334    337      9     0.00   0.66944   3 ;    H9S-   C19-   C18-   C17
   334    337    340    341      9     0.00   0.66944   3 ;    C18-   C17-   C16-   H6R
   334    337    340    342      9     0.00   0.66944   3 ;    C18-   C17-   C16-   H6S
   334    337    340    343      9     0.00   0.41840   1 ;    C18-   C17-   C16-   C15
   334    337    340    343      9     0.00   0.41840   2 ;    C18-   C17-   C16-   C15
   334    337    340    343      9     0.00   0.41840   4 ;    C18-   C17-   C16-   C15
   334    337    340    343      9     0.00   0.41840   5 ;    C18-   C17-   C16-   C15
   334    337    340    343      9     0.00   1.25520   3 ;    C18-   C17-   C16-   C15
   335    334    337    338      9     0.00   0.62760   3 ;    H8R-   C18-   C17-   H7R
   335    334    337    339      9     0.00   0.62760   3 ;    H8R-   C18-   C17-   H7S
   335    334    337    340      9     0.00   0.66944   3 ;    H8R-   C18-   C17-   C16
   336    334    337    338      9     0.00   0.62760   3 ;    H8S-   C18-   C17-   H7R
   336    334    337    339      9     0.00   0.62760   3 ;    H8S-   C18-   C17-   H7S
   336    334    337    340      9     0.00   0.66944   3 ;    H8S-   C18-   C17-   C16
   337    340    343    344      9     0.00   0.66944   3 ;    C17-   C16-   C15-   H5R
   337    340    343    345      9     0.00   0.66944   3 ;    C17-   C16-   C15-   H5S
   337    340    343    346      9     0.00   0.41840   1 ;    C17-   C16-   C15-   C14
   337    340    343    346      9     0.00   0.41840   2 ;    C17-   C16-   C15-   C14
   337    340    343    346      9     0.00   0.41840   4 ;    C17-   C16-   C15-   C14
   337    340    343    346      9     0.00   0.41840   5 ;    C17-   C16-   C15-   C14
   337    340    343    346      9     0.00   1.25520   3 ;    C17-   C16-   C15-   C14
   338    337    340    341      9     0.00   0.62760   3 ;    H7R-   C17-   C16-   H6R
   338    337    340    342      9     0.00   0.62760   3 ;    H7R-   C17-   C16-   H6S
   338    337    340    343      9     0.00   0.66944   3 ;    H7R-   C17-   C16-   C15
   339    337    340    341      9     0.00   0.62760   3 ;    H7S-   C17-   C16-   H6R
   339    337    340    342      9     0.00   0.62760   3 ;    H7S-   C17-   C16-   H6S
   339    337    340    343      9     0.00   0.66944   3 ;    H7S-   C17-   C16-   C15
   340    343    346    347      9     0.00   0.66944   3 ;    C16-   C15-   C14-   H4R
   340    343    346    348      9     0.00   0.66944   3 ;    C16-   C15-   C14-   H4S
   340    343    346    349      9     0.00   0.41840   1 ;    C16-   C15-   C14-   C13
   340    343    346    349      9     0.00   0.41840   2 ;    C16-   C15-   C14-   C13
   340    343    346    349      9     0.00   0.41840   4 ;    C16-   C15-   C14-   C13
   340    343    346    349      9     0.00   0.41840   5 ;    C16-   C15-   C14-   C13
   340    343    346    349      9     0.00   1.25520   3 ;    C16-   C15-   C14-   C13
   341    340    343    344      9     0.00   0.62760   3 ;    H6R-   C16-   C15-   H5R
   341    340    343    345      9     0.00   0.62760   3 ;    H6R-   C16-   C15-   H5S
   341    340    343    346      9     0.00   0.66944   3 ;    H6R-   C16-   C15-   C14
   342    340    343    344      9     0.00   0.62760   3 ;    H6S-   C16-   C15-   H5R
   342    340    343    345      9     0.00   0.62760   3 ;    H6S-   C16-   C15-   H5S
   342    340    343    346      9     0.00   0.66944   3 ;    H6S-   C16-   C15-   C14
   343    346    349    350      9     0.00   0.66944   3 ;    C15-   C14-   C13-   H3R
   343    346    349    351      9     0.00   0.66944   3 ;    C15-   C14-   C13-   H3S
   343    346    349    352      9     0.00   0.41840   1 ;    C15-   C14-   C13-   C12
   343    346    349    352      9     0.00   0.41840   2 ;    C15-   C14-   C13-   C12
   343    346    349    352      9     0.00   0.41840   4 ;    C15-   C14-   C13-   C12
   343    346    349    352      9     0.00   0.41840   5 ;    C15-   C14-   C13-   C12
   343    346    349    352      9     0.00   1.25520   3 ;    C15-   C14-   C13-   C12
   344    343    346    347      9     0.00   0.62760   3 ;    H5R-   C15-   C14-   H4R
   344    343    346    348      9     0.00   0.62760   3 ;    H5R-   C15-   C14-   H4S
   344    343    346    349      9     0.00   0.66944   3 ;    H5R-   C15-   C14-   C13
   345    343    346    347      9     0.00   0.62760   3 ;    H5S-   C15-   C14-   H4R
   345    343    346    348      9     0.00   0.62760   3 ;    H5S-   C15-   C14-   H4S
   345    343    346    349      9     0.00   0.66944   3 ;    H5S-   C15-   C14-   C13
   346    349    352    353      9     0.00   0.66944   3 ;    C14-   C13-   C12-   H2R
   346    349    352    354      9     0.00   0.66944   3 ;    C14-   C13-   C12-   H2S
   347    346    349    350      9     0.00   0.62760   3 ;    H4R-   C14-   C13-   H3R
   347    346    349    351      9     0.00   0.62760   3 ;    H4R-   C14-   C13-   H3S
   347    346    349    352      9     0.00   0.66944   3 ;    H4R-   C14-   C13-   C12
   348    346    349    350      9     0.00   0.62760   3 ;    H4S-   C14-   C13-   H3R
   348    346    349    351      9     0.00   0.62760   3 ;    H4S-   C14-   C13-   H3S
   348    346    349    352      9     0.00   0.66944   3 ;    H4S-   C14-   C13-   C12
   350    349    352    353      9     0.00   0.62760   3 ;    H3R-   C13-   C12-   H2R
   350    349    352    354      9     0.00   0.62760   3 ;    H3R-   C13-   C12-   H2S
   351    349    352    353      9     0.00   0.62760   3 ;    H3S-   C13-   C12-   H2R
   351    349    352    354      9     0.00   0.62760   3 ;    H3S-   C13-   C12-   H2S
   355    356    359    360      9     0.00   0.62760   3 ;   H14T-  C114-  C113-  H13R
   355    356    359    361      9     0.00   0.62760   3 ;   H14T-  C114-  C113-  H13S
   355    356    359    362      9     0.00   0.66944   3 ;   H14T-  C114-  C113-  C112
   356    359    362    363      9     0.00   0.66944   3 ;   C114-  C113-  C112-  H12R
   356    359    362    364      9     0.00   0.66944   3 ;   C114-  C113-  C112-  H12S
   356    359    362    365      9     0.00   0.41840   1 ;   C114-  C113-  C112-  C111
   356    359    362    365      9     0.00   0.41840   2 ;   C114-  C113-  C112-  C111
   356    359    362    365      9     0.00   0.41840   4 ;   C114-  C113-  C112-  C111
   356    359    362    365      9     0.00   0.41840   5 ;   C114-  C113-  C112-  C111
   356    359    362    365      9     0.00   1.25520   3 ;   C114-  C113-  C112-  C111
   357    356    359    360      9     0.00   0.62760   3 ;   H14R-  C114-  C113-  H13R
   357    356    359    361      9     0.00   0.62760   3 ;   H14R-  C114-  C113-  H13S
   357    356    359    362      9     0.00   0.66944   3 ;   H14R-  C114-  C113-  C112
   358    356    359    360      9     0.00   0.62760   3 ;   H14S-  C114-  C113-  H13R
   358    356    359    361      9     0.00   0.62760   3 ;   H14S-  C114-  C113-  H13S
   358    356    359    362      9     0.00   0.66944   3 ;   H14S-  C114-  C113-  C112
   359    362    365    366      9     0.00   0.66944   3 ;   C113-  C112-  C111-  H11R
   359    362    365    367      9     0.00   0.66944   3 ;   C113-  C112-  C111-  H11S
   359    362    365    368      9     0.00   0.41840   1 ;   C113-  C112-  C111-  C110
   359    362    365    368      9     0.00   0.41840   2 ;   C113-  C112-  C111-  C110
   359    362    365    368      9     0.00   0.41840   4 ;   C113-  C112-  C111-  C110
   359    362    365    368      9     0.00   0.41840   5 ;   C113-  C112-  C111-  C110
   359    362    365    368      9     0.00   1.25520   3 ;   C113-  C112-  C111-  C110
   360    359    362    363      9     0.00   0.62760   3 ;   H13R-  C113-  C112-  H12R
   360    359    362    364      9     0.00   0.62760   3 ;   H13R-  C113-  C112-  H12S
   360    359    362    365      9     0.00   0.66944   3 ;   H13R-  C113-  C112-  C111
   361    359    362    363      9     0.00   0.62760   3 ;   H13S-  C113-  C112-  H12R
   361    359    362    364      9     0.00   0.62760   3 ;   H13S-  C113-  C112-  H12S
   361    359    362    365      9     0.00   0.66944   3 ;   H13S-  C113-  C112-  C111
   362    365    368    369      9     0.00   0.66944   3 ;   C112-  C111-  C110-  H10R
   362    365    368    370      9     0.00   0.66944   3 ;   C112-  C111-  C110-  H10S
   362    365    368    371      9     0.00   0.41840   1 ;   C112-  C111-  C110-   C19
   362    365    368    371      9     0.00   0.41840   2 ;   C112-  C111-  C110-   C19
   362    365    368    371      9     0.00   0.41840   4 ;   C112-  C111-  C110-   C19
   362    365    368    371      9     0.00   0.41840   5 ;   C112-  C111-  C110-   C19
   362    365    368    371      9     0.00   1.25520   3 ;   C112-  C111-  C110-   C19
   363    362    365    366      9     0.00   0.62760   3 ;   H12R-  C112-  C111-  H11R
   363    362    365    367      9     0.00   0.62760   3 ;   H12R-  C112-  C111-  H11S
   363    362    365    368      9     0.00   0.66944   3 ;   H12R-  C112-  C111-  C110
   364    362    365    366      9     0.00   0.62760   3 ;   H12S-  C112-  C111-  H11R
   364    362    365    367      9     0.00   0.62760   3 ;   H12S-  C112-  C111-  H11S
   364    362    365    368      9     0.00   0.66944   3 ;   H12S-  C112-  C111-  C110
   365    368    371    372      9     0.00   0.66944   3 ;   C111-  C110-   C19-   H9R
   365    368    371    373      9     0.00   0.66944   3 ;   C111-  C110-   C19-   H9S
   365    368    371    374      9     0.00   0.41840   1 ;   C111-  C110-   C19-   C18
   365    368    371    374      9     0.00   0.41840   2 ;   C111-  C110-   C19-   C18
   365    368    371    374      9     0.00   0.41840   4 ;   C111-  C110-   C19-   C18
   365    368    371    374      9     0.00   0.41840   5 ;   C111-  C110-   C19-   C18
   365    368    371    374      9     0.00   1.25520   3 ;   C111-  C110-   C19-   C18
   366    365    368    369      9     0.00   0.62760   3 ;   H11R-  C111-  C110-  H10R
   366    365    368    370      9     0.00   0.62760   3 ;   H11R-  C111-  C110-  H10S
   366    365    368    371      9     0.00   0.66944   3 ;   H11R-  C111-  C110-   C19
   367    365    368    369      9     0.00   0.62760   3 ;   H11S-  C111-  C110-  H10R
   367    365    368    370      9     0.00   0.62760   3 ;   H11S-  C111-  C110-  H10S
   367    365    368    371      9     0.00   0.66944   3 ;   H11S-  C111-  C110-   C19
   368    371    374    375      9     0.00   0.66944   3 ;   C110-   C19-   C18-   H8R
   368    371    374    376      9     0.00   0.66944   3 ;   C110-   C19-   C18-   H8S
   368    371    374    377      9     0.00   0.41840   1 ;   C110-   C19-   C18-   C17
   368    371    374    377      9     0.00   0.41840   2 ;   C110-   C19-   C18-   C17
   368    371    374    377      9     0.00   0.41840   4 ;   C110-   C19-   C18-   C17
   368    371    374    377      9     0.00   0.41840   5 ;   C110-   C19-   C18-   C17
   368    371    374    377      9     0.00   1.25520   3 ;   C110-   C19-   C18-   C17
   369    368    371    372      9     0.00   0.62760   3 ;   H10R-  C110-   C19-   H9R
   369    368    371    373      9     0.00   0.62760   3 ;   H10R-  C110-   C19-   H9S
   369    368    371    374      9     0.00   0.66944   3 ;   H10R-  C110-   C19-   C18
   370    368    371    372      9     0.00   0.62760   3 ;   H10S-  C110-   C19-   H9R
   370    368    371    373      9     0.00   0.62760   3 ;   H10S-  C110-   C19-   H9S
   370    368    371    374      9     0.00   0.66944   3 ;   H10S-  C110-   C19-   C18
   371    374    377    378      9     0.00   0.66944   3 ;    C19-   C18-   C17-   H7R
   371    374    377    379      9     0.00   0.66944   3 ;    C19-   C18-   C17-   H7S
   371    374    377    380      9     0.00   0.41840   1 ;    C19-   C18-   C17-   C16
   371    374    377    380      9     0.00   0.41840   2 ;    C19-   C18-   C17-   C16
   371    374    377    380      9     0.00   0.41840   4 ;    C19-   C18-   C17-   C16
   371    374    377    380      9     0.00   0.41840   5 ;    C19-   C18-   C17-   C16
   371    374    377    380      9     0.00   1.25520   3 ;    C19-   C18-   C17-   C16
   372    371    374    375      9     0.00   0.62760   3 ;    H9R-   C19-   C18-   H8R
   372    371    374    376      9     0.00   0.62760   3 ;    H9R-   C19-   C18-   H8S
   372    371    374    377      9     0.00   0.66944   3 ;    H9R-   C19-   C18-   C17
   373    371    374    375      9     0.00   0.62760   3 ;    H9S-   C19-   C18-   H8R
   373    371    374    376      9     0.00   0.62760   3 ;    H9S-   C19-   C18-   H8S
   373    371    374    377      9     0.00   0.66944   3 ;    H9S-   C19-   C18-   C17
   374    377    380    381      9     0.00   0.66944   3 ;    C18-   C17-   C16-   H6R
   374    377    380    382      9     0.00   0.66944   3 ;    C18-   C17-   C16-   H6S
   374    377    380    383      9     0.00   0.41840   1 ;    C18-   C17-   C16-   C15
   374    377    380    383      9     0.00   0.41840   2 ;    C18-   C17-   C16-   C15
   374    377    380    383      9     0.00   0.41840   4 ;    C18-   C17-   C16-   C15
   374    377    380    383      9     0.00   0.41840   5 ;    C18-   C17-   C16-   C15
   374    377    380    383      9     0.00   1.25520   3 ;    C18-   C17-   C16-   C15
   375    374    377    378      9     0.00   0.62760   3 ;    H8R-   C18-   C17-   H7R
   375    374    377    379      9     0.00   0.62760   3 ;    H8R-   C18-   C17-   H7S
   375    374    377    380      9     0.00   0.66944   3 ;    H8R-   C18-   C17-   C16
   376    374    377    378      9     0.00   0.62760   3 ;    H8S-   C18-   C17-   H7R
   376    374    377    379      9     0.00   0.62760   3 ;    H8S-   C18-   C17-   H7S
   376    374    377    380      9     0.00   0.66944   3 ;    H8S-   C18-   C17-   C16
   377    380    383    384      9     0.00   0.66944   3 ;    C17-   C16-   C15-   H5R
   377    380    383    385      9     0.00   0.66944   3 ;    C17-   C16-   C15-   H5S
   377    380    383    386      9     0.00   0.41840   1 ;    C17-   C16-   C15-   C14
   377    380    383    386      9     0.00   0.41840   2 ;    C17-   C16-   C15-   C14
   377    380    383    386      9     0.00   0.41840   4 ;    C17-   C16-   C15-   C14
   377    380    383    386      9     0.00   0.41840   5 ;    C17-   C16-   C15-   C14
   377    380    383    386      9     0.00   1.25520   3 ;    C17-   C16-   C15-   C14
   378    377    380    381      9     0.00   0.62760   3 ;    H7R-   C17-   C16-   H6R
   378    377    380    382      9     0.00   0.62760   3 ;    H7R-   C17-   C16-   H6S
   378    377    380    383      9     0.00   0.66944   3 ;    H7R-   C17-   C16-   C15
   379    377    380    381      9     0.00   0.62760   3 ;    H7S-   C17-   C16-   H6R
   379    377    380    382      9     0.00   0.62760   3 ;    H7S-   C17-   C16-   H6S
   379    377    380    383      9     0.00   0.66944   3 ;    H7S-   C17-   C16-   C15
   380    383    386    387      9     0.00   0.66944   3 ;    C16-   C15-   C14-   H4R
   380    383    386    388      9     0.00   0.66944   3 ;    C16-   C15-   C14-   H4S
   380    383    386    389      9     0.00   0.41840   1 ;    C16-   C15-   C14-   C13
   380    383    386    389      9     0.00   0.41840   2 ;    C16-   C15-   C14-   C13
   380    383    386    389      9     0.00   0.41840   4 ;    C16-   C15-   C14-   C13
   380    383    386    389      9     0.00   0.41840   5 ;    C16-   C15-   C14-   C13
   380    383    386    389      9     0.00   1.25520   3 ;    C16-   C15-   C14-   C13
   381    380    383    384      9     0.00   0.62760   3 ;    H6R-   C16-   C15-   H5R
   381    380    383    385      9     0.00   0.62760   3 ;    H6R-   C16-   C15-   H5S
   381    380    383    386      9     0.00   0.66944   3 ;    H6R-   C16-   C15-   C14
   382    380    383    384      9     0.00   0.62760   3 ;    H6S-   C16-   C15-   H5R
   382    380    383    385      9     0.00   0.62760   3 ;    H6S-   C16-   C15-   H5S
   382    380    383    386      9     0.00   0.66944   3 ;    H6S-   C16-   C15-   C14
   383    386    389    390      9     0.00   0.66944   3 ;    C15-   C14-   C13-   H3R
   383    386    389    391      9     0.00   0.66944   3 ;    C15-   C14-   C13-   H3S
   383    386    389    392      9     0.00   0.41840   1 ;    C15-   C14-   C13-   C12
   383    386    389    392      9     0.00   0.41840   2 ;    C15-   C14-   C13-   C12
   383    386    389    392      9     0.00   0.41840   4 ;    C15-   C14-   C13-   C12
   383    386    389    392      9     0.00   0.41840   5 ;    C15-   C14-   C13-   C12
   383    386    389    392      9     0.00   1.25520   3 ;    C15-   C14-   C13-   C12
   384    383    386    387      9     0.00   0.62760   3 ;    H5R-   C15-   C14-   H4R
   384    383    386    388      9     0.00   0.62760   3 ;    H5R-   C15-   C14-   H4S
   384    383    386    389      9     0.00   0.66944   3 ;    H5R-   C15-   C14-   C13
   385    383    386    387      9     0.00   0.62760   3 ;    H5S-   C15-   C14-   H4R
   385    383    386    388      9     0.00   0.62760   3 ;    H5S-   C15-   C14-   H4S
   385    383    386    389      9     0.00   0.66944   3 ;    H5S-   C15-   C14-   C13
   386    389    392    393      9     0.00   0.66944   3 ;    C14-   C13-   C12-   H2R
   386    389    392    394      9     0.00   0.66944   3 ;    C14-   C13-   C12-   H2S
   386    389    392    395      9     0.00   0.65270   3 ;    C14-   C13-   C12-   C11
   387    386    389    390      9     0.00   0.62760   3 ;    H4R-   C14-   C13-   H3R
   387    386    389    391      9     0.00   0.62760   3 ;    H4R-   C14-   C13-   H3S
   387    386    389    392      9     0.00   0.66944   3 ;    H4R-   C14-   C13-   C12
   388    386    389    390      9     0.00   0.62760   3 ;    H4S-   C14-   C13-   H3R
   388    386    389    391      9     0.00   0.62760   3 ;    H4S-   C14-   C13-   H3S
   388    386    389    392      9     0.00   0.66944   3 ;    H4S-   C14-   C13-   C12
   389    392    395    396      9   180.00   0.00000   2 ;    C13-   C12-   C11-   O12
   389    392    395    397      9   180.00   0.00000   2 ;    C13-   C12-   C11-   O11
   390    389    392    393      9     0.00   0.62760   3 ;    H3R-   C13-   C12-   H2R
   390    389    392    394      9     0.00   0.62760   3 ;    H3R-   C13-   C12-   H2S
   390    389    392    395      9     0.00   0.65270   3 ;    H3R-   C13-   C12-   C11
   391    389    392    393      9     0.00   0.62760   3 ;    H3S-   C13-   C12-   H2R
   391    389    392    394      9     0.00   0.62760   3 ;    H3S-   C13-   C12-   H2S
   391    389    392    395      9     0.00   0.65270   3 ;    H3S-   C13-   C12-   C11
   392    395    397    398      9   180.00  11.29680   2 ;    C12-   C11-   O11-    C1
   393    392    395    396      9     0.00   3.34720   1 ;    H2R-   C12-   C11-   O12
   393    392    395    396      9   180.00   0.33472   3 ;    H2R-   C12-   C11-   O12
   393    392    395    397      9   180.00   0.00000   2 ;    H2R-   C12-   C11-   O11
   394    392    395    396      9     0.00   3.34720   1 ;    H2S-   C12-   C11-   O12
   394    392    395    396      9   180.00   0.33472   3 ;    H2S-   C12-   C11-   O12
   394    392    395    397      9   180.00   0.00000   2 ;    H2S-   C12-   C11-   O11
   395    397    398    399      9     0.00   1.60247   3 ;    C11-   O11-    C1-    HR
   395    397    398    400      9     0.00   1.60247   3 ;    C11-   O11-    C1-    HS
   395    397    398    401      9     0.00  -0.41840   1 ;    C11-   O11-    C1-    C2
   396    395    397    398      9   180.00   5.85760   1 ;    O12-   C11-   O11-    C1
   396    395    397    398      9   180.00  11.29680   2 ;    O12-   C11-   O11-    C1
   397    398    401    402      9     0.00   0.00000   0 ;    O11-    C1-    C2-    HX
   397    398    401    402      9     0.00   1.04600   1 ;    O11-    C1-    C2-    HX
   397    398    401    403      9     0.00   0.00000   0 ;    O11-    C1-    C2-    C3
   397    398    401    403      9     0.00   0.00000   0 ;    O11-    C1-    C2-    C3
   397    398    401    403      9     0.00   0.00000   0 ;    O11-    C1-    C2-    C3
   397    398    401    403      9     0.00   0.00000   0 ;    O11-    C1-    C2-    C3
   397    398    401    403      9     0.00   0.00000   0 ;    O11-    C1-    C2-    C3
   397    398    401    430      9     0.00   1.25520   2 ;    O11-    C1-    C2-   O21
   397    398    401    430      9     0.00   4.18400   3 ;    O11-    C1-    C2-   O21
   397    398    401    430      9   180.00  -0.41840   1 ;    O11-    C1-    C2-   O21
   398    401    403    404      9     0.00   0.65270   3 ;     C1-    C2-    C3-    HA
   398    401    403    405      9     0.00   0.65270   3 ;     C1-    C2-    C3-    HB
   398    401    403    406      9   180.00   3.34720   1 ;     C1-    C2-    C3-   O31
   398    401    430    431      9     0.00  -0.41840   1 ;     C1-    C2-   O21-   C21
   399    398    401    402      9     0.00   0.65270   3 ;     HR-    C1-    C2-    HX
   399    398    401    403      9     0.00   0.65270   3 ;     HR-    C1-    C2-    C3
   399    398    401    430      9     0.00   0.00000   0 ;     HR-    C1-    C2-   O21
   399    398    401    430      9     0.00   1.04600   1 ;     HR-    C1-    C2-   O21
   400    398    401    402      9     0.00   0.65270   3 ;     HS-    C1-    C2-    HX
   400    398    401    403      9     0.00   0.65270   3 ;     HS-    C1-    C2-    C3
   400    398    401    430      9     0.00   0.00000   0 ;     HS-    C1-    C2-   O21
   400    398    401    430      9     0.00   1.04600   1 ;     HS-    C1-    C2-   O21
   401    403    406    407      9     0.00   0.00000   0 ;     C2-    C3-   O31-   P31
   401    403    406    407      9   180.00  -3.34720   2 ;     C2-    C3-   O31-   P31
   401    430    431    432      9   180.00   5.85760   1 ;     C2-   O21-   C21-   O22
   401    430    431    432      9   180.00  11.29680   2 ;     C2-   O21-   C21-   O22
   401    430    431    470      9   180.00  11.29680   2 ;     C2-   O21-   C21-   C12
   402    401    403    404      9     0.00   0.65270   3 ;     HX-    C2-    C3-    HA
   402    401    403    405      9     0.00   0.65270   3 ;     HX-    C2-    C3-    HB
   402    401    403    406      9     0.00   0.00000   0 ;     HX-    C2-    C3-   O31
   402    401    403    406      9     0.00   1.04600   1 ;     HX-    C2-    C3-   O31
   402    401    430    431      9     0.00   1.60247   3 ;     HX-    C2-   O21-   C21
   403    401    430    431      9     0.00  -0.41840   1 ;     C3-    C2-   O21-   C21
   403    406    407    408      9     0.00   2.51040   3 ;     C3-   O31-   P31-   O32
   403    406    407    408      9     0.00   9.62320   2 ;     C3-   O31-   P31-   O32
   403    406    407    428      9     0.00   0.00000   0 ;     C3-   O31-   P31-   O33
   403    406    407    428      9     0.00   0.00000   0 ;     C3-   O31-   P31-   O33
   403    406    407    428      9     0.00   0.00000   0 ;     C3-   O31-   P31-   O33
   403    406    407    428      9     0.00   0.00000   0 ;     C3-   O31-   P31-   O33
   403    406    407    428      9     0.00   0.83680   2 ;     C3-   O31-   P31-   O33
   403    406    407    429      9     0.00   0.00000   0 ;     C3-   O31-   P31-   O34
   403    406    407    429      9     0.00   0.00000   0 ;     C3-   O31-   P31-   O34
   403    406    407    429      9     0.00   0.00000   0 ;     C3-   O31-   P31-   O34
   403    406    407    429      9     0.00   0.00000   0 ;     C3-   O31-   P31-   O34
   403    406    407    429      9     0.00   0.83680   2 ;     C3-   O31-   P31-   O34
   404    403    401    430      9     0.00   0.00000   0 ;     HA-    C3-    C2-   O21
   404    403    401    430      9     0.00   1.04600   1 ;     HA-    C3-    C2-   O21
   404    403    406    407      9     0.00   0.00000   0 ;     HA-    C3-   O31-   P31
   404    403    406    407      9     0.00   0.00000   0 ;     HA-    C3-   O31-   P31
   404    403    406    407      9     0.00   0.00000   0 ;     HA-    C3-   O31-   P31
   404    403    406    407      9     0.00   0.00000   0 ;     HA-    C3-   O31-   P31
   404    403    406    407      9     0.00   1.60247   3 ;     HA-    C3-   O31-   P31
   405    403    401    430      9     0.00   0.00000   0 ;     HB-    C3-    C2-   O21
   405    403    401    430      9     0.00   1.04600   1 ;     HB-    C3-    C2-   O21
   405    403    406    407      9     0.00   0.00000   0 ;     HB-    C3-   O31-   P31
   405    403    406    407      9     0.00   0.00000   0 ;     HB-    C3-   O31-   P31
   405    403    406    407      9     0.00   0.00000   0 ;     HB-    C3-   O31-   P31
   405    403    406    407      9     0.00   0.00000   0 ;     HB-    C3-   O31-   P31
   405    403    406    407      9     0.00   1.60247   3 ;     HB-    C3-   O31-   P31
   406    403    401    430      9     0.00   0.00000   0 ;    O31-    C3-    C2-   O21
   406    403    401    430      9     0.00   0.00000   0 ;    O31-    C3-    C2-   O21
   406    403    401    430      9     0.00   0.00000   0 ;    O31-    C3-    C2-   O21
   406    403    401    430      9     0.00   0.00000   0 ;    O31-    C3-    C2-   O21
   406    403    401    430      9     0.00   0.00000   0 ;    O31-    C3-    C2-   O21
   406    407    408    409      9     0.00   2.51040   3 ;    O31-   P31-   O32-   C31
   406    407    408    409      9     0.00   9.62320   2 ;    O31-   P31-   O32-   C31
   407    408    409    410      9     0.00   0.00000   0 ;    P31-   O32-   C31-   H1A
   407    408    409    410      9     0.00   0.00000   0 ;    P31-   O32-   C31-   H1A
   407    408    409    410      9     0.00   0.00000   0 ;    P31-   O32-   C31-   H1A
   407    408    409    410      9     0.00   0.00000   0 ;    P31-   O32-   C31-   H1A
   407    408    409    410      9     0.00   1.60247   3 ;    P31-   O32-   C31-   H1A
   407    408    409    411      9     0.00   0.00000   0 ;    P31-   O32-   C31-   H1B
   407    408    409    411      9     0.00   0.00000   0 ;    P31-   O32-   C31-   H1B
   407    408    409    411      9     0.00   0.00000   0 ;    P31-   O32-   C31-   H1B
   407    408    409    411      9     0.00   0.00000   0 ;    P31-   O32-   C31-   H1B
   407    408    409    411      9     0.00   1.60247   3 ;    P31-   O32-   C31-   H1B
   407    408    409    412      9     0.00   0.00000   0 ;    P31-   O32-   C31-   C32
   407    408    409    412      9   180.00  -3.34720   2 ;    P31-   O32-   C31-   C32
   408    409    412    413      9     0.00   0.65270   3 ;    O32-   C31-   C32-   H2A
   408    409    412    414      9     0.00   0.65270   3 ;    O32-   C31-   C32-   H2B
   408    409    412    415      9     0.00   4.18400   3 ;    O32-   C31-   C32-   N31
   409    408    407    428      9     0.00   0.00000   0 ;    C31-   O32-   P31-   O33
   409    408    407    428      9     0.00   0.00000   0 ;    C31-   O32-   P31-   O33
   409    408    407    428      9     0.00   0.00000   0 ;    C31-   O32-   P31-   O33
   409    408    407    428      9     0.00   0.00000   0 ;    C31-   O32-   P31-   O33
   409    408    407    428      9     0.00   0.83680   2 ;    C31-   O32-   P31-   O33
   409    408    407    429      9     0.00   0.00000   0 ;    C31-   O32-   P31-   O34
   409    408    407    429      9     0.00   0.00000   0 ;    C31-   O32-   P31-   O34
   409    408    407    429      9     0.00   0.00000   0 ;    C31-   O32-   P31-   O34
   409    408    407    429      9     0.00   0.00000   0 ;    C31-   O32-   P31-   O34
   409    408    407    429      9     0.00   0.83680   2 ;    C31-   O32-   P31-   O34
   409    412    415    416      9     0.00   0.65270   3 ;    C31-   C32-   N31-   C33
   409    412    415    420      9     0.00   0.65270   3 ;    C31-   C32-   N31-   C34
   409    412    415    424      9     0.00   0.65270   3 ;    C31-   C32-   N31-   C35
   410    409    412    413      9     0.00   0.65270   3 ;    H1A-   C31-   C32-   H2A
   410    409    412    414      9     0.00   0.65270   3 ;    H1A-   C31-   C32-   H2B
   410    409    412    415      9     0.00   0.65270   3 ;    H1A-   C31-   C32-   N31
   411    409    412    413      9     0.00   0.65270   3 ;    H1B-   C31-   C32-   H2A
   411    409    412    414      9     0.00   0.65270   3 ;    H1B-   C31-   C32-   H2B
   411    409    412    415      9     0.00   0.65270   3 ;    H1B-   C31-   C32-   N31
   412    415    416    417      9     0.00   0.65270   3 ;    C32-   N31-   C33-   H3A
   412    415    416    418      9     0.00   0.65270   3 ;    C32-   N31-   C33-   H3B
   412    415    416    419      9     0.00   0.65270   3 ;    C32-   N31-   C33-   H3C
   412    415    420    421      9     0.00   0.65270   3 ;    C32-   N31-   C34-   H4A
   412    415    420    422      9     0.00   0.65270   3 ;    C32-   N31-   C34-   H4B
   412    415    420    423      9     0.00   0.65270   3 ;    C32-   N31-   C34-   H4C
   412    415    424    425      9     0.00   0.65270   3 ;    C32-   N31-   C35-   H5A
   412    415    424    426      9     0.00   0.65270   3 ;    C32-   N31-   C35-   H5B
   412    415    424    427      9     0.00   0.65270   3 ;    C32-   N31-   C35-   H5C
   413    412    415    416      9     0.00   0.65270   3 ;    H2A-   C32-   N31-   C33
   413    412    415    420      9     0.00   0.65270   3 ;    H2A-   C32-   N31-   C34
   413    412    415    424      9     0.00   0.65270   3 ;    H2A-   C32-   N31-   C35
   414    412    415    416      9     0.00   0.65270   3 ;    H2B-   C32-   N31-   C33
   414    412    415    420      9     0.00   0.65270   3 ;    H2B-   C32-   N31-   C34
   414    412    415    424      9     0.00   0.65270   3 ;    H2B-   C32-   N31-   C35
   416    415    420    421      9     0.00   0.65270   3 ;    C33-   N31-   C34-   H4A
   416    415    420    422      9     0.00   0.65270   3 ;    C33-   N31-   C34-   H4B
   416    415    420    423      9     0.00   0.65270   3 ;    C33-   N31-   C34-   H4C
   416    415    424    425      9     0.00   0.65270   3 ;    C33-   N31-   C35-   H5A
   416    415    424    426      9     0.00   0.65270   3 ;    C33-   N31-   C35-   H5B
   416    415    424    427      9     0.00   0.65270   3 ;    C33-   N31-   C35-   H5C
   417    416    415    420      9     0.00   0.65270   3 ;    H3A-   C33-   N31-   C34
   417    416    415    424      9     0.00   0.65270   3 ;    H3A-   C33-   N31-   C35
   418    416    415    420      9     0.00   0.65270   3 ;    H3B-   C33-   N31-   C34
   418    416    415    424      9     0.00   0.65270   3 ;    H3B-   C33-   N31-   C35
   419    416    415    420      9     0.00   0.65270   3 ;    H3C-   C33-   N31-   C34
   419    416    415    424      9     0.00   0.65270   3 ;    H3C-   C33-   N31-   C35
   420    415    424    425      9     0.00   0.65270   3 ;    C34-   N31-   C35-   H5A
   420    415    424    426      9     0.00   0.65270   3 ;    C34-   N31-   C35-   H5B
   420    415    424    427      9     0.00   0.65270   3 ;    C34-   N31-   C35-   H5C
   421    420    415    424      9     0.00   0.65270   3 ;    H4A-   C34-   N31-   C35
   422    420    415    424      9     0.00   0.65270   3 ;    H4B-   C34-   N31-   C35
   423    420    415    424      9     0.00   0.65270   3 ;    H4C-   C34-   N31-   C35
   430    431    470    467      9   180.00   0.00000   2 ;    O21-   C21-   C12-   C13
   430    431    470    471      9   180.00   0.00000   2 ;    O21-   C21-   C12-   H2R
   430    431    470    472      9   180.00   0.00000   2 ;    O21-   C21-   C12-   H2S
   431    470    467    464      9     0.00   0.65270   3 ;    C21-   C12-   C13-   C14
   431    470    467    468      9     0.00   0.65270   3 ;    C21-   C12-   C13-   H3R
   431    470    467    469      9     0.00   0.65270   3 ;    C21-   C12-   C13-   H3S
   432    431    470    467      9   180.00   0.00000   2 ;    O22-   C21-   C12-   C13
   432    431    470    471      9     0.00   3.34720   1 ;    O22-   C21-   C12-   H2R
   432    431    470    471      9   180.00   0.33472   3 ;    O22-   C21-   C12-   H2R
   432    431    470    472      9     0.00   3.34720   1 ;    O22-   C21-   C12-   H2S
   432    431    470    472      9   180.00   0.33472   3 ;    O22-   C21-   C12-   H2S
   433    434    437    438      9     0.00   0.62760   3 ;   H14T-  C114-  C113-  H13R
   433    434    437    439      9     0.00   0.62760   3 ;   H14T-  C114-  C113-  H13S
   433    434    437    440      9     0.00   0.66944   3 ;   H14T-  C114-  C113-  C112
   434    437    440    441      9     0.00   0.66944   3 ;   C114-  C113-  C112-  H12R
   434    437    440    442      9     0.00   0.66944   3 ;   C114-  C113-  C112-  H12S
   434    437    440    443      9     0.00   0.41840   1 ;   C114-  C113-  C112-  C111
   434    437    440    443      9     0.00   0.41840   2 ;   C114-  C113-  C112-  C111
   434    437    440    443      9     0.00   0.41840   4 ;   C114-  C113-  C112-  C111
   434    437    440    443      9     0.00   0.41840   5 ;   C114-  C113-  C112-  C111
   434    437    440    443      9     0.00   1.25520   3 ;   C114-  C113-  C112-  C111
   435    434    437    438      9     0.00   0.62760   3 ;   H14R-  C114-  C113-  H13R
   435    434    437    439      9     0.00   0.62760   3 ;   H14R-  C114-  C113-  H13S
   435    434    437    440      9     0.00   0.66944   3 ;   H14R-  C114-  C113-  C112
   436    434    437    438      9     0.00   0.62760   3 ;   H14S-  C114-  C113-  H13R
   436    434    437    439      9     0.00   0.62760   3 ;   H14S-  C114-  C113-  H13S
   436    434    437    440      9     0.00   0.66944   3 ;   H14S-  C114-  C113-  C112
   437    440    443    444      9     0.00   0.66944   3 ;   C113-  C112-  C111-  H11R
   437    440    443    445      9     0.00   0.66944   3 ;   C113-  C112-  C111-  H11S
   437    440    443    446      9     0.00   0.41840   1 ;   C113-  C112-  C111-  C110
   437    440    443    446      9     0.00   0.41840   2 ;   C113-  C112-  C111-  C110
   437    440    443    446      9     0.00   0.41840   4 ;   C113-  C112-  C111-  C110
   437    440    443    446      9     0.00   0.41840   5 ;   C113-  C112-  C111-  C110
   437    440    443    446      9     0.00   1.25520   3 ;   C113-  C112-  C111-  C110
   438    437    440    441      9     0.00   0.62760   3 ;   H13R-  C113-  C112-  H12R
   438    437    440    442      9     0.00   0.62760   3 ;   H13R-  C113-  C112-  H12S
   438    437    440    443      9     0.00   0.66944   3 ;   H13R-  C113-  C112-  C111
   439    437    440    441      9     0.00   0.62760   3 ;   H13S-  C113-  C112-  H12R
   439    437    440    442      9     0.00   0.62760   3 ;   H13S-  C113-  C112-  H12S
   439    437    440    443      9     0.00   0.66944   3 ;   H13S-  C113-  C112-  C111
   440    443    446    447      9     0.00   0.66944   3 ;   C112-  C111-  C110-  H10R
   440    443    446    448      9     0.00   0.66944   3 ;   C112-  C111-  C110-  H10S
   440    443    446    449      9     0.00   0.41840   1 ;   C112-  C111-  C110-   C19
   440    443    446    449      9     0.00   0.41840   2 ;   C112-  C111-  C110-   C19
   440    443    446    449      9     0.00   0.41840   4 ;   C112-  C111-  C110-   C19
   440    443    446    449      9     0.00   0.41840   5 ;   C112-  C111-  C110-   C19
   440    443    446    449      9     0.00   1.25520   3 ;   C112-  C111-  C110-   C19
   441    440    443    444      9     0.00   0.62760   3 ;   H12R-  C112-  C111-  H11R
   441    440    443    445      9     0.00   0.62760   3 ;   H12R-  C112-  C111-  H11S
   441    440    443    446      9     0.00   0.66944   3 ;   H12R-  C112-  C111-  C110
   442    440    443    444      9     0.00   0.62760   3 ;   H12S-  C112-  C111-  H11R
   442    440    443    445      9     0.00   0.62760   3 ;   H12S-  C112-  C111-  H11S
   442    440    443    446      9     0.00   0.66944   3 ;   H12S-  C112-  C111-  C110
   443    446    449    450      9     0.00   0.66944   3 ;   C111-  C110-   C19-   H9R
   443    446    449    451      9     0.00   0.66944   3 ;   C111-  C110-   C19-   H9S
   443    446    449    452      9     0.00   0.41840   1 ;   C111-  C110-   C19-   C18
   443    446    449    452      9     0.00   0.41840   2 ;   C111-  C110-   C19-   C18
   443    446    449    452      9     0.00   0.41840   4 ;   C111-  C110-   C19-   C18
   443    446    449    452      9     0.00   0.41840   5 ;   C111-  C110-   C19-   C18
   443    446    449    452      9     0.00   1.25520   3 ;   C111-  C110-   C19-   C18
   444    443    446    447      9     0.00   0.62760   3 ;   H11R-  C111-  C110-  H10R
   444    443    446    448      9     0.00   0.62760   3 ;   H11R-  C111-  C110-  H10S
   444    443    446    449      9     0.00   0.66944   3 ;   H11R-  C111-  C110-   C19
   445    443    446    447      9     0.00   0.62760   3 ;   H11S-  C111-  C110-  H10R
   445    443    446    448      9     0.00   0.62760   3 ;   H11S-  C111-  C110-  H10S
   445    443    446    449      9     0.00   0.66944   3 ;   H11S-  C111-  C110-   C19
   446    449    452    453      9     0.00   0.66944   3 ;   C110-   C19-   C18-   H8R
   446    449    452    454      9     0.00   0.66944   3 ;   C110-   C19-   C18-   H8S
   446    449    452    455      9     0.00   0.41840   1 ;   C110-   C19-   C18-   C17
   446    449    452    455      9     0.00   0.41840   2 ;   C110-   C19-   C18-   C17
   446    449    452    455      9     0.00   0.41840   4 ;   C110-   C19-   C18-   C17
   446    449    452    455      9     0.00   0.41840   5 ;   C110-   C19-   C18-   C17
   446    449    452    455      9     0.00   1.25520   3 ;   C110-   C19-   C18-   C17
   447    446    449    450      9     0.00   0.62760   3 ;   H10R-  C110-   C19-   H9R
   447    446    449    451      9     0.00   0.62760   3 ;   H10R-  C110-   C19-   H9S
   447    446    449    452      9     0.00   0.66944   3 ;   H10R-  C110-   C19-   C18
   448    446    449    450      9     0.00   0.62760   3 ;   H10S-  C110-   C19-   H9R
   448    446    449    451      9     0.00   0.62760   3 ;   H10S-  C110-   C19-   H9S
   448    446    449    452      9     0.00   0.66944   3 ;   H10S-  C110-   C19-   C18
   449    452    455    456      9     0.00   0.66944   3 ;    C19-   C18-   C17-   H7R
   449    452    455    457      9     0.00   0.66944   3 ;    C19-   C18-   C17-   H7S
   449    452    455    458      9     0.00   0.41840   1 ;    C19-   C18-   C17-   C16
   449    452    455    458      9     0.00   0.41840   2 ;    C19-   C18-   C17-   C16
   449    452    455    458      9     0.00   0.41840   4 ;    C19-   C18-   C17-   C16
   449    452    455    458      9     0.00   0.41840   5 ;    C19-   C18-   C17-   C16
   449    452    455    458      9     0.00   1.25520   3 ;    C19-   C18-   C17-   C16
   450    449    452    453      9     0.00   0.62760   3 ;    H9R-   C19-   C18-   H8R
   450    449    452    454      9     0.00   0.62760   3 ;    H9R-   C19-   C18-   H8S
   450    449    452    455      9     0.00   0.66944   3 ;    H9R-   C19-   C18-   C17
   451    449    452    453      9     0.00   0.62760   3 ;    H9S-   C19-   C18-   H8R
   451    449    452    454      9     0.00   0.62760   3 ;    H9S-   C19-   C18-   H8S
   451    449    452    455      9     0.00   0.66944   3 ;    H9S-   C19-   C18-   C17
   452    455    458    459      9     0.00   0.66944   3 ;    C18-   C17-   C16-   H6R
   452    455    458    460      9     0.00   0.66944   3 ;    C18-   C17-   C16-   H6S
   452    455    458    461      9     0.00   0.41840   1 ;    C18-   C17-   C16-   C15
   452    455    458    461      9     0.00   0.41840   2 ;    C18-   C17-   C16-   C15
   452    455    458    461      9     0.00   0.41840   4 ;    C18-   C17-   C16-   C15
   452    455    458    461      9     0.00   0.41840   5 ;    C18-   C17-   C16-   C15
   452    455    458    461      9     0.00   1.25520   3 ;    C18-   C17-   C16-   C15
   453    452    455    456      9     0.00   0.62760   3 ;    H8R-   C18-   C17-   H7R
   453    452    455    457      9     0.00   0.62760   3 ;    H8R-   C18-   C17-   H7S
   453    452    455    458      9     0.00   0.66944   3 ;    H8R-   C18-   C17-   C16
   454    452    455    456      9     0.00   0.62760   3 ;    H8S-   C18-   C17-   H7R
   454    452    455    457      9     0.00   0.62760   3 ;    H8S-   C18-   C17-   H7S
   454    452    455    458      9     0.00   0.66944   3 ;    H8S-   C18-   C17-   C16
   455    458    461    462      9     0.00   0.66944   3 ;    C17-   C16-   C15-   H5R
   455    458    461    463      9     0.00   0.66944   3 ;    C17-   C16-   C15-   H5S
   455    458    461    464      9     0.00   0.41840   1 ;    C17-   C16-   C15-   C14
   455    458    461    464      9     0.00   0.41840   2 ;    C17-   C16-   C15-   C14
   455    458    461    464      9     0.00   0.41840   4 ;    C17-   C16-   C15-   C14
   455    458    461    464      9     0.00   0.41840   5 ;    C17-   C16-   C15-   C14
   455    458    461    464      9     0.00   1.25520   3 ;    C17-   C16-   C15-   C14
   456    455    458    459      9     0.00   0.62760   3 ;    H7R-   C17-   C16-   H6R
   456    455    458    460      9     0.00   0.62760   3 ;    H7R-   C17-   C16-   H6S
   456    455    458    461      9     0.00   0.66944   3 ;    H7R-   C17-   C16-   C15
   457    455    458    459      9     0.00   0.62760   3 ;    H7S-   C17-   C16-   H6R
   457    455    458    460      9     0.00   0.62760   3 ;    H7S-   C17-   C16-   H6S
   457    455    458    461      9     0.00   0.66944   3 ;    H7S-   C17-   C16-   C15
   458    461    464    465      9     0.00   0.66944   3 ;    C16-   C15-   C14-   H4R
   458    461    464    466      9     0.00   0.66944   3 ;    C16-   C15-   C14-   H4S
   458    461    464    467      9     0.00   0.41840   1 ;    C16-   C15-   C14-   C13
   458    461    464    467      9     0.00   0.41840   2 ;    C16-   C15-   C14-   C13
   458    461    464    467      9     0.00   0.41840   4 ;    C16-   C15-   C14-   C13
   458    461    464    467      9     0.00   0.41840   5 ;    C16-   C15-   C14-   C13
   458    461    464    467      9     0.00   1.25520   3 ;    C16-   C15-   C14-   C13
   459    458    461    462      9     0.00   0.62760   3 ;    H6R-   C16-   C15-   H5R
   459    458    461    463      9     0.00   0.62760   3 ;    H6R-   C16-   C15-   H5S
   459    458    461    464      9     0.00   0.66944   3 ;    H6R-   C16-   C15-   C14
   460    458    461    462      9     0.00   0.62760   3 ;    H6S-   C16-   C15-   H5R
   460    458    461    463      9     0.00   0.62760   3 ;    H6S-   C16-   C15-   H5S
   460    458    461    464      9     0.00   0.66944   3 ;    H6S-   C16-   C15-   C14
   461    464    467    468      9     0.00   0.66944   3 ;    C15-   C14-   C13-   H3R
   461    464    467    469      9     0.00   0.66944   3 ;    C15-   C14-   C13-   H3S
   461    464    467    470      9     0.00   0.41840   1 ;    C15-   C14-   C13-   C12
   461    464    467    470      9     0.00   0.41840   2 ;    C15-   C14-   C13-   C12
   461    464    467    470      9     0.00   0.41840   4 ;    C15-   C14-   C13-   C12
   461    464    467    470      9     0.00   0.41840   5 ;    C15-   C14-   C13-   C12
   461    464    467    470      9     0.00   1.25520   3 ;    C15-   C14-   C13-   C12
   462    461    464    465      9     0.00   0.62760   3 ;    H5R-   C15-   C14-   H4R
   462    461    464    466      9     0.00   0.62760   3 ;    H5R-   C15-   C14-   H4S
   462    461    464    467      9     0.00   0.66944   3 ;    H5R-   C15-   C14-   C13
   463    461    464    465      9     0.00   0.62760   3 ;    H5S-   C15-   C14-   H4R
   463    461    464    466      9     0.00   0.62760   3 ;    H5S-   C15-   C14-   H4S
   463    461    464    467      9     0.00   0.66944   3 ;    H5S-   C15-   C14-   C13
   464    467    470    471      9     0.00   0.66944   3 ;    C14-   C13-   C12-   H2R
   464    467    470    472      9     0.00   0.66944   3 ;    C14-   C13-   C12-   H2S
   465    464    467    468      9     0.00   0.62760   3 ;    H4R-   C14-   C13-   H3R
   465    464    467    469      9     0.00   0.62760   3 ;    H4R-   C14-   C13-   H3S
   465    464    467    470      9     0.00   0.66944   3 ;    H4R-   C14-   C13-   C12
   466    464    467    468      9     0.00   0.62760   3 ;    H4S-   C14-   C13-   H3R
   466    464    467    469      9     0.00   0.62760   3 ;    H4S-   C14-   C13-   H3S
   466    464    467    470      9     0.00   0.66944   3 ;    H4S-   C14-   C13-   C12
   468    467    470    471      9     0.00   0.62760   3 ;    H3R-   C13-   C12-   H2R
   468    467    470    472      9     0.00   0.62760   3 ;    H3R-   C13-   C12-   H2S
   469    467    470    471      9     0.00   0.62760   3 ;    H3S-   C13-   C12-   H2R
   469    467    470    472      9     0.00   0.62760   3 ;    H3S-   C13-   C12-   H2S
   473    474    477    478      9     0.00   0.62760   3 ;   H14T-  C114-  C113-  H13R
   473    474    477    479      9     0.00   0.62760   3 ;   H14T-  C114-  C113-  H13S
   473    474    477    480      9     0.00   0.66944   3 ;   H14T-  C114-  C113-  C112
   474    477    480    481      9     0.00   0.66944   3 ;   C114-  C113-  C112-  H12R
   474    477    480    482      9     0.00   0.66944   3 ;   C114-  C113-  C112-  H12S
   474    477    480    483      9     0.00   0.41840   1 ;   C114-  C113-  C112-  C111
   474    477    480    483      9     0.00   0.41840   2 ;   C114-  C113-  C112-  C111
   474    477    480    483      9     0.00   0.41840   4 ;   C114-  C113-  C112-  C111
   474    477    480    483      9     0.00   0.41840   5 ;   C114-  C113-  C112-  C111
   474    477    480    483      9     0.00   1.25520   3 ;   C114-  C113-  C112-  C111
   475    474    477    478      9     0.00   0.62760   3 ;   H14R-  C114-  C113-  H13R
   475    474    477    479      9     0.00   0.62760   3 ;   H14R-  C114-  C113-  H13S
   475    474    477    480      9     0.00   0.66944   3 ;   H14R-  C114-  C113-  C112
   476    474    477    478      9     0.00   0.62760   3 ;   H14S-  C114-  C113-  H13R
   476    474    477    479      9     0.00   0.62760   3 ;   H14S-  C114-  C113-  H13S
   476    474    477    480      9     0.00   0.66944   3 ;   H14S-  C114-  C113-  C112
   477    480    483    484      9     0.00   0.66944   3 ;   C113-  C112-  C111-  H11R
   477    480    483    485      9     0.00   0.66944   3 ;   C113-  C112-  C111-  H11S
   477    480    483    486      9     0.00   0.41840   1 ;   C113-  C112-  C111-  C110
   477    480    483    486      9     0.00   0.41840   2 ;   C113-  C112-  C111-  C110
   477    480    483    486      9     0.00   0.41840   4 ;   C113-  C112-  C111-  C110
   477    480    483    486      9     0.00   0.41840   5 ;   C113-  C112-  C111-  C110
   477    480    483    486      9     0.00   1.25520   3 ;   C113-  C112-  C111-  C110
   478    477    480    481      9     0.00   0.62760   3 ;   H13R-  C113-  C112-  H12R
   478    477    480    482      9     0.00   0.62760   3 ;   H13R-  C113-  C112-  H12S
   478    477    480    483      9     0.00   0.66944   3 ;   H13R-  C113-  C112-  C111
   479    477    480    481      9     0.00   0.62760   3 ;   H13S-  C113-  C112-  H12R
   479    477    480    482      9     0.00   0.62760   3 ;   H13S-  C113-  C112-  H12S
   479    477    480    483      9     0.00   0.66944   3 ;   H13S-  C113-  C112-  C111
   480    483    486    487      9     0.00   0.66944   3 ;   C112-  C111-  C110-  H10R
   480    483    486    488      9     0.00   0.66944   3 ;   C112-  C111-  C110-  H10S
   480    483    486    489      9     0.00   0.41840   1 ;   C112-  C111-  C110-   C19
   480    483    486    489      9     0.00   0.41840   2 ;   C112-  C111-  C110-   C19
   480    483    486    489      9     0.00   0.41840   4 ;   C112-  C111-  C110-   C19
   480    483    486    489      9     0.00   0.41840   5 ;   C112-  C111-  C110-   C19
   480    483    486    489      9     0.00   1.25520   3 ;   C112-  C111-  C110-   C19
   481    480    483    484      9     0.00   0.62760   3 ;   H12R-  C112-  C111-  H11R
   481    480    483    485      9     0.00   0.62760   3 ;   H12R-  C112-  C111-  H11S
   481    480    483    486      9     0.00   0.66944   3 ;   H12R-  C112-  C111-  C110
   482    480    483    484      9     0.00   0.62760   3 ;   H12S-  C112-  C111-  H11R
   482    480    483    485      9     0.00   0.62760   3 ;   H12S-  C112-  C111-  H11S
   482    480    483    486      9     0.00   0.66944   3 ;   H12S-  C112-  C111-  C110
   483    486    489    490      9     0.00   0.66944   3 ;   C111-  C110-   C19-   H9R
   483    486    489    491      9     0.00   0.66944   3 ;   C111-  C110-   C19-   H9S
   483    486    489    492      9     0.00   0.41840   1 ;   C111-  C110-   C19-   C18
   483    486    489    492      9     0.00   0.41840   2 ;   C111-  C110-   C19-   C18
   483    486    489    492      9     0.00   0.41840   4 ;   C111-  C110-   C19-   C18
   483    486    489    492      9     0.00   0.41840   5 ;   C111-  C110-   C19-   C18
   483    486    489    492      9     0.00   1.25520   3 ;   C111-  C110-   C19-   C18
   484    483    486    487      9     0.00   0.62760   3 ;   H11R-  C111-  C110-  H10R
   484    483    486    488      9     0.00   0.62760   3 ;   H11R-  C111-  C110-  H10S
   484    483    486    489      9     0.00   0.66944   3 ;   H11R-  C111-  C110-   C19
   485    483    486    487      9     0.00   0.62760   3 ;   H11S-  C111-  C110-  H10R
   485    483    486    488      9     0.00   0.62760   3 ;   H11S-  C111-  C110-  H10S
   485    483    486    489      9     0.00   0.66944   3 ;   H11S-  C111-  C110-   C19
   486    489    492    493      9     0.00   0.66944   3 ;   C110-   C19-   C18-   H8R
   486    489    492    494      9     0.00   0.66944   3 ;   C110-   C19-   C18-   H8S
   486    489    492    495      9     0.00   0.41840   1 ;   C110-   C19-   C18-   C17
   486    489    492    495      9     0.00   0.41840   2 ;   C110-   C19-   C18-   C17
   486    489    492    495      9     0.00   0.41840   4 ;   C110-   C19-   C18-   C17
   486    489    492    495      9     0.00   0.41840   5 ;   C110-   C19-   C18-   C17
   486    489    492    495      9     0.00   1.25520   3 ;   C110-   C19-   C18-   C17
   487    486    489    490      9     0.00   0.62760   3 ;   H10R-  C110-   C19-   H9R
   487    486    489    491      9     0.00   0.62760   3 ;   H10R-  C110-   C19-   H9S
   487    486    489    492      9     0.00   0.66944   3 ;   H10R-  C110-   C19-   C18
   488    486    489    490      9     0.00   0.62760   3 ;   H10S-  C110-   C19-   H9R
   488    486    489    491      9     0.00   0.62760   3 ;   H10S-  C110-   C19-   H9S
   488    486    489    492      9     0.00   0.66944   3 ;   H10S-  C110-   C19-   C18
   489    492    495    496      9     0.00   0.66944   3 ;    C19-   C18-   C17-   H7R
   489    492    495    497      9     0.00   0.66944   3 ;    C19-   C18-   C17-   H7S
   489    492    495    498      9     0.00   0.41840   1 ;    C19-   C18-   C17-   C16
   489    492    495    498      9     0.00   0.41840   2 ;    C19-   C18-   C17-   C16
   489    492    495    498      9     0.00   0.41840   4 ;    C19-   C18-   C17-   C16
   489    492    495    498      9     0.00   0.41840   5 ;    C19-   C18-   C17-   C16
   489    492    495    498      9     0.00   1.25520   3 ;    C19-   C18-   C17-   C16
   490    489    492    493      9     0.00   0.62760   3 ;    H9R-   C19-   C18-   H8R
   490    489    492    494      9     0.00   0.62760   3 ;    H9R-   C19-   C18-   H8S
   490    489    492    495      9     0.00   0.66944   3 ;    H9R-   C19-   C18-   C17
   491    489    492    493      9     0.00   0.62760   3 ;    H9S-   C19-   C18-   H8R
   491    489    492    494      9     0.00   0.62760   3 ;    H9S-   C19-   C18-   H8S
   491    489    492    495      9     0.00   0.66944   3 ;    H9S-   C19-   C18-   C17
   492    495    498    499      9     0.00   0.66944   3 ;    C18-   C17-   C16-   H6R
   492    495    498    500      9     0.00   0.66944   3 ;    C18-   C17-   C16-   H6S
   492    495    498    501      9     0.00   0.41840   1 ;    C18-   C17-   C16-   C15
   492    495    498    501      9     0.00   0.41840   2 ;    C18-   C17-   C16-   C15
   492    495    498    501      9     0.00   0.41840   4 ;    C18-   C17-   C16-   C15
   492    495    498    501      9     0.00   0.41840   5 ;    C18-   C17-   C16-   C15
   492    495    498    501      9     0.00   1.25520   3 ;    C18-   C17-   C16-   C15
   493    492    495    496      9     0.00   0.62760   3 ;    H8R-   C18-   C17-   H7R
   493    492    495    497      9     0.00   0.62760   3 ;    H8R-   C18-   C17-   H7S
   493    492    495    498      9     0.00   0.66944   3 ;    H8R-   C18-   C17-   C16
   494    492    495    496      9     0.00   0.62760   3 ;    H8S-   C18-   C17-   H7R
   494    492    495    497      9     0.00   0.62760   3 ;    H8S-   C18-   C17-   H7S
   494    492    495    498      9     0.00   0.66944   3 ;    H8S-   C18-   C17-   C16
   495    498    501    502      9     0.00   0.66944   3 ;    C17-   C16-   C15-   H5R
   495    498    501    503      9     0.00   0.66944   3 ;    C17-   C16-   C15-   H5S
   495    498    501    504      9     0.00   0.41840   1 ;    C17-   C16-   C15-   C14
   495    498    501    504      9     0.00   0.41840   2 ;    C17-   C16-   C15-   C14
   495    498    501    504      9     0.00   0.41840   4 ;    C17-   C16-   C15-   C14
   495    498    501    504      9     0.00   0.41840   5 ;    C17-   C16-   C15-   C14
   495    498    501    504      9     0.00   1.25520   3 ;    C17-   C16-   C15-   C14
   496    495    498    499      9     0.00   0.62760   3 ;    H7R-   C17-   C16-   H6R
   496    495    498    500      9     0.00   0.62760   3 ;    H7R-   C17-   C16-   H6S
   496    495    498    501      9     0.00   0.66944   3 ;    H7R-   C17-   C16-   C15
   497    495    498    499      9     0.00   0.62760   3 ;    H7S-   C17-   C16-   H6R
   497    495    498    500      9     0.00   0.62760   3 ;    H7S-   C17-   C16-   H6S
   497    495    498    501      9     0.00   0.66944   3 ;    H7S-   C17-   C16-   C15
   498    501    504    505      9     0.00   0.66944   3 ;    C16-   C15-   C14-   H4R
   498    501    504    506      9     0.00   0.66944   3 ;    C16-   C15-   C14-   H4S
   498    501    504    507      9     0.00   0.41840   1 ;    C16-   C15-   C14-   C13
   498    501    504    507      9     0.00   0.41840   2 ;    C16-   C15-   C14-   C13
   498    501    504    507      9     0.00   0.41840   4 ;    C16-   C15-   C14-   C13
   498    501    504    507      9     0.00   0.41840   5 ;    C16-   C15-   C14-   C13
   498    501    504    507      9     0.00   1.25520   3 ;    C16-   C15-   C14-   C13
   499    498    501    502      9     0.00   0.62760   3 ;    H6R-   C16-   C15-   H5R
   499    498    501    503      9     0.00   0.62760   3 ;    H6R-   C16-   C15-   H5S
   499    498    501    504      9     0.00   0.66944   3 ;    H6R-   C16-   C15-   C14
   500    498    501    502      9     0.00   0.62760   3 ;    H6S-   C16-   C15-   H5R
   500    498    501    503      9     0.00   0.62760   3 ;    H6S-   C16-   C15-   H5S
   500    498    501    504      9     0.00   0.66944   3 ;    H6S-   C16-   C15-   C14
   501    504    507    508      9     0.00   0.66944   3 ;    C15-   C14-   C13-   H3R
   501    504    507    509      9     0.00   0.66944   3 ;    C15-   C14-   C13-   H3S
   501    504    507    510      9     0.00   0.41840   1 ;    C15-   C14-   C13-   C12
   501    504    507    510      9     0.00   0.41840   2 ;    C15-   C14-   C13-   C12
   501    504    507    510      9     0.00   0.41840   4 ;    C15-   C14-   C13-   C12
   501    504    507    510      9     0.00   0.41840   5 ;    C15-   C14-   C13-   C12
   501    504    507    510      9     0.00   1.25520   3 ;    C15-   C14-   C13-   C12
   502    501    504    505      9     0.00   0.62760   3 ;    H5R-   C15-   C14-   H4R
   502    501    504    506      9     0.00   0.62760   3 ;    H5R-   C15-   C14-   H4S
   502    501    504    507      9     0.00   0.66944   3 ;    H5R-   C15-   C14-   C13
   503    501    504    505      9     0.00   0.62760   3 ;    H5S-   C15-   C14-   H4R
   503    501    504    506      9     0.00   0.62760   3 ;    H5S-   C15-   C14-   H4S
   503    501    504    507      9     0.00   0.66944   3 ;    H5S-   C15-   C14-   C13
   504    507    510    511      9     0.00   0.66944   3 ;    C14-   C13-   C12-   H2R
   504    507    510    512      9     0.00   0.66944   3 ;    C14-   C13-   C12-   H2S
   504    507    510    513      9     0.00   0.65270   3 ;    C14-   C13-   C12-   C11
   505    504    507    508      9     0.00   0.62760   3 ;    H4R-   C14-   C13-   H3R
   505    504    507    509      9     0.00   0.62760   3 ;    H4R-   C14-   C13-   H3S
   505    504    507    510      9     0.00   0.66944   3 ;    H4R-   C14-   C13-   C12
   506    504    507    508      9     0.00   0.62760   3 ;    H4S-   C14-   C13-   H3R
   506    504    507    509      9     0.00   0.62760   3 ;    H4S-   C14-   C13-   H3S
   506    504    507    510      9     0.00   0.66944   3 ;    H4S-   C14-   C13-   C12
   507    510    513    514      9   180.00   0.00000   2 ;    C13-   C12-   C11-   O12
   507    510    513    515      9   180.00   0.00000   2 ;    C13-   C12-   C11-   O11
   508    507    510    511      9     0.00   0.62760   3 ;    H3R-   C13-   C12-   H2R
   508    507    510    512      9     0.00   0.62760   3 ;    H3R-   C13-   C12-   H2S
   508    507    510    513      9     0.00   0.65270   3 ;    H3R-   C13-   C12-   C11
   509    507    510    511      9     0.00   0.62760   3 ;    H3S-   C13-   C12-   H2R
   509    507    510    512      9     0.00   0.62760   3 ;    H3S-   C13-   C12-   H2S
   509    507    510    513      9     0.00   0.65270   3 ;    H3S-   C13-   C12-   C11
   510    513    515    516      9   180.00  11.29680   2 ;    C12-   C11-   O11-    C1
   511    510    513    514      9     0.00   3.34720   1 ;    H2R-   C12-   C11-   O12
   511    510    513    514      9   180.00   0.33472   3 ;    H2R-   C12-   C11-   O12
   511    510    513    515      9   180.00   0.00000   2 ;    H2R-   C12-   C11-   O11
   512    510    513    514      9     0.00   3.34720   1 ;    H2S-   C12-   C11-   O12
   512    510    513    514      9   180.00   0.33472   3 ;    H2S-   C12-   C11-   O12
   512    510    513    515      9   180.00   0.00000   2 ;    H2S-   C12-   C11-   O11
   513    515    516    517      9     0.00   1.60247   3 ;    C11-   O11-    C1-    HR
   513    515    516    518      9     0.00   1.60247   3 ;    C11-   O11-    C1-    HS
   513    515    516    519      9     0.00  -0.41840   1 ;    C11-   O11-    C1-    C2
   514    513    515    516      9   180.00   5.85760   1 ;    O12-   C11-   O11-    C1
   514    513    515    516      9   180.00  11.29680   2 ;    O12-   C11-   O11-    C1
   515    516    519    520      9     0.00   0.00000   0 ;    O11-    C1-    C2-    HX
   515    516    519    520      9     0.00   1.04600   1 ;    O11-    C1-    C2-    HX
   515    516    519    521      9     0.00   0.00000   0 ;    O11-    C1-    C2-    C3
   515    516    519    521      9     0.00   0.00000   0 ;    O11-    C1-    C2-    C3
   515    516    519    521      9     0.00   0.00000   0 ;    O11-    C1-    C2-    C3
   515    516    519    521      9     0.00   0.00000   0 ;    O11-    C1-    C2-    C3
   515    516    519    521      9     0.00   0.00000   0 ;    O11-    C1-    C2-    C3
   515    516    519    548      9     0.00   1.25520   2 ;    O11-    C1-    C2-   O21
   515    516    519    548      9     0.00   4.18400   3 ;    O11-    C1-    C2-   O21
   515    516    519    548      9   180.00  -0.41840   1 ;    O11-    C1-    C2-   O21
   516    519    521    522      9     0.00   0.65270   3 ;     C1-    C2-    C3-    HA
   516    519    521    523      9     0.00   0.65270   3 ;     C1-    C2-    C3-    HB
   516    519    521    524      9   180.00   3.34720   1 ;     C1-    C2-    C3-   O31
   516    519    548    549      9     0.00  -0.41840   1 ;     C1-    C2-   O21-   C21
   517    516    519    520      9     0.00   0.65270   3 ;     HR-    C1-    C2-    HX
   517    516    519    521      9     0.00   0.65270   3 ;     HR-    C1-    C2-    C3
   517    516    519    548      9     0.00   0.00000   0 ;     HR-    C1-    C2-   O21
   517    516    519    548      9     0.00   1.04600   1 ;     HR-    C1-    C2-   O21
   518    516    519    520      9     0.00   0.65270   3 ;     HS-    C1-    C2-    HX
   518    516    519    521      9     0.00   0.65270   3 ;     HS-    C1-    C2-    C3
   518    516    519    548      9     0.00   0.00000   0 ;     HS-    C1-    C2-   O21
   518    516    519    548      9     0.00   1.04600   1 ;     HS-    C1-    C2-   O21
   519    521    524    525      9     0.00   0.00000   0 ;     C2-    C3-   O31-   P31
   519    521    524    525      9   180.00  -3.34720   2 ;     C2-    C3-   O31-   P31
   519    548    549    550      9   180.00   5.85760   1 ;     C2-   O21-   C21-   O22
   519    548    549    550      9   180.00  11.29680   2 ;     C2-   O21-   C21-   O22
   519    548    549    588      9   180.00  11.29680   2 ;     C2-   O21-   C21-   C12
   520    519    521    522      9     0.00   0.65270   3 ;     HX-    C2-    C3-    HA
   520    519    521    523      9     0.00   0.65270   3 ;     HX-    C2-    C3-    HB
   520    519    521    524      9     0.00   0.00000   0 ;     HX-    C2-    C3-   O31
   520    519    521    524      9     0.00   1.04600   1 ;     HX-    C2-    C3-   O31
   520    519    548    549      9     0.00   1.60247   3 ;     HX-    C2-   O21-   C21
   521    519    548    549      9     0.00  -0.41840   1 ;     C3-    C2-   O21-   C21
   521    524    525    526      9     0.00   2.51040   3 ;     C3-   O31-   P31-   O32
   521    524    525    526      9     0.00   9.62320   2 ;     C3-   O31-   P31-   O32
   521    524    525    546      9     0.00   0.00000   0 ;     C3-   O31-   P31-   O33
   521    524    525    546      9     0.00   0.00000   0 ;     C3-   O31-   P31-   O33
   521    524    525    546      9     0.00   0.00000   0 ;     C3-   O31-   P31-   O33
   521    524    525    546      9     0.00   0.00000   0 ;     C3-   O31-   P31-   O33
   521    524    525    546      9     0.00   0.83680   2 ;     C3-   O31-   P31-   O33
   521    524    525    547      9     0.00   0.00000   0 ;     C3-   O31-   P31-   O34
   521    524    525    547      9     0.00   0.00000   0 ;     C3-   O31-   P31-   O34
   521    524    525    547      9     0.00   0.00000   0 ;     C3-   O31-   P31-   O34
   521    524    525    547      9     0.00   0.00000   0 ;     C3-   O31-   P31-   O34
   521    524    525    547      9     0.00   0.83680   2 ;     C3-   O31-   P31-   O34
   522    521    519    548      9     0.00   0.00000   0 ;     HA-    C3-    C2-   O21
   522    521    519    548      9     0.00   1.04600   1 ;     HA-    C3-    C2-   O21
   522    521    524    525      9     0.00   0.00000   0 ;     HA-    C3-   O31-   P31
   522    521    524    525      9     0.00   0.00000   0 ;     HA-    C3-   O31-   P31
   522    521    524    525      9     0.00   0.00000   0 ;     HA-    C3-   O31-   P31
   522    521    524    525      9     0.00   0.00000   0 ;     HA-    C3-   O31-   P31
   522    521    524    525      9     0.00   1.60247   3 ;     HA-    C3-   O31-   P31
   523    521    519    548      9     0.00   0.00000   0 ;     HB-    C3-    C2-   O21
   523    521    519    548      9     0.00   1.04600   1 ;     HB-    C3-    C2-   O21
   523    521    524    525      9     0.00   0.00000   0 ;     HB-    C3-   O31-   P31
   523    521    524    525      9     0.00   0.00000   0 ;     HB-    C3-   O31-   P31
   523    521    524    525      9     0.00   0.00000   0 ;     HB-    C3-   O31-   P31
   523    521    524    525      9     0.00   0.00000   0 ;     HB-    C3-   O31-   P31
   523    521    524    525      9     0.00   1.60247   3 ;     HB-    C3-   O31-   P31
   524    521    519    548      9     0.00   0.00000   0 ;    O31-    C3-    C2-   O21
   524    521    519    548      9     0.00   0.00000   0 ;    O31-    C3-    C2-   O21
   524    521    519    548      9     0.00   0.00000   0 ;    O31-    C3-    C2-   O21
   524    521    519    548      9     0.00   0.00000   0 ;    O31-    C3-    C2-   O21
   524    521    519    548      9     0.00   0.00000   0 ;    O31-    C3-    C2-   O21
   524    525    526    527      9     0.00   2.51040   3 ;    O31-   P31-   O32-   C31
   524    525    526    527      9     0.00   9.62320   2 ;    O31-   P31-   O32-   C31
   525    526    527    528      9     0.00   0.00000   0 ;    P31-   O32-   C31-   H1A
   525    526    527    528      9     0.00   0.00000   0 ;    P31-   O32-   C31-   H1A
   525    526    527    528      9     0.00   0.00000   0 ;    P31-   O32-   C31-   H1A
   525    526    527    528      9     0.00   0.00000   0 ;    P31-   O32-   C31-   H1A
   525    526    527    528      9     0.00   1.60247   3 ;    P31-   O32-   C31-   H1A
   525    526    527    529      9     0.00   0.00000   0 ;    P31-   O32-   C31-   H1B
   525    526    527    529      9     0.00   0.00000   0 ;    P31-   O32-   C31-   H1B
   525    526    527    529      9     0.00   0.00000   0 ;    P31-   O32-   C31-   H1B
   525    526    527    529      9     0.00   0.00000   0 ;    P31-   O32-   C31-   H1B
   525    526    527    529      9     0.00   1.60247   3 ;    P31-   O32-   C31-   H1B
   525    526    527    530      9     0.00   0.00000   0 ;    P31-   O32-   C31-   C32
   525    526    527    530      9   180.00  -3.34720   2 ;    P31-   O32-   C31-   C32
   526    527    530    531      9     0.00   0.65270   3 ;    O32-   C31-   C32-   H2A
   526    527    530    532      9     0.00   0.65270   3 ;    O32-   C31-   C32-   H2B
   526    527    530    533      9     0.00   4.18400   3 ;    O32-   C31-   C32-   N31
   527    526    525    546      9     0.00   0.00000   0 ;    C31-   O32-   P31-   O33
   527    526    525    546      9     0.00   0.00000   0 ;    C31-   O32-   P31-   O33
   527    526    525    546      9     0.00   0.00000   0 ;    C31-   O32-   P31-   O33
   527    526    525    546      9     0.00   0.00000   0 ;    C31-   O32-   P31-   O33
   527    526    525    546      9     0.00   0.83680   2 ;    C31-   O32-   P31-   O33
   527    526    525    547      9     0.00   0.00000   0 ;    C31-   O32-   P31-   O34
   527    526    525    547      9     0.00   0.00000   0 ;    C31-   O32-   P31-   O34
   527    526    525    547      9     0.00   0.00000   0 ;    C31-   O32-   P31-   O34
   527    526    525    547      9     0.00   0.00000   0 ;    C31-   O32-   P31-   O34
   527    526    525    547      9     0.00   0.83680   2 ;    C31-   O32-   P31-   O34
   527    530    533    534      9     0.00   0.65270   3 ;    C31-   C32-   N31-   C33
   527    530    533    538      9     0.00   0.65270   3 ;    C31-   C32-   N31-   C34
   527    530    533    542      9     0.00   0.65270   3 ;    C31-   C32-   N31-   C35
   528    527    530    531      9     0.00   0.65270   3 ;    H1A-   C31-   C32-   H2A
   528    527    530    532      9     0.00   0.65270   3 ;    H1A-   C31-   C32-   H2B
   528    527    530    533      9     0.00   0.65270   3 ;    H1A-   C31-   C32-   N31
   529    527    530    531      9     0.00   0.65270   3 ;    H1B-   C31-   C32-   H2A
   529    527    530    532      9     0.00   0.65270   3 ;    H1B-   C31-   C32-   H2B
   529    527    530    533      9     0.00   0.65270   3 ;    H1B-   C31-   C32-   N31
   530    533    534    535      9     0.00   0.65270   3 ;    C32-   N31-   C33-   H3A
   530    533    534    536      9     0.00   0.65270   3 ;    C32-   N31-   C33-   H3B
   530    533    534    537      9     0.00   0.65270   3 ;    C32-   N31-   C33-   H3C
   530    533    538    539      9     0.00   0.65270   3 ;    C32-   N31-   C34-   H4A
   530    533    538    540      9     0.00   0.65270   3 ;    C32-   N31-   C34-   H4B
   530    533    538    541      9     0.00   0.65270   3 ;    C32-   N31-   C34-   H4C
   530    533    542    543      9     0.00   0.65270   3 ;    C32-   N31-   C35-   H5A
   530    533    542    544      9     0.00   0.65270   3 ;    C32-   N31-   C35-   H5B
   530    533    542    545      9     0.00   0.65270   3 ;    C32-   N31-   C35-   H5C
   531    530    533    534      9     0.00   0.65270   3 ;    H2A-   C32-   N31-   C33
   531    530    533    538      9     0.00   0.65270   3 ;    H2A-   C32-   N31-   C34
   531    530    533    542      9     0.00   0.65270   3 ;    H2A-   C32-   N31-   C35
   532    530    533    534      9     0.00   0.65270   3 ;    H2B-   C32-   N31-   C33
   532    530    533    538      9     0.00   0.65270   3 ;    H2B-   C32-   N31-   C34
   532    530    533    542      9     0.00   0.65270   3 ;    H2B-   C32-   N31-   C35
   534    533    538    539      9     0.00   0.65270   3 ;    C33-   N31-   C34-   H4A
   534    533    538    540      9     0.00   0.65270   3 ;    C33-   N31-   C34-   H4B
   534    533    538    541      9     0.00   0.65270   3 ;    C33-   N31-   C34-   H4C
   534    533    542    543      9     0.00   0.65270   3 ;    C33-   N31-   C35-   H5A
   534    533    542    544      9     0.00   0.65270   3 ;    C33-   N31-   C35-   H5B
   534    533    542    545      9     0.00   0.65270   3 ;    C33-   N31-   C35-   H5C
   535    534    533    538      9     0.00   0.65270   3 ;    H3A-   C33-   N31-   C34
   535    534    533    542      9     0.00   0.65270   3 ;    H3A-   C33-   N31-   C35
   536    534    533    538      9     0.00   0.65270   3 ;    H3B-   C33-   N31-   C34
   536    534    533    542      9     0.00   0.65270   3 ;    H3B-   C33-   N31-   C35
   537    534    533    538      9     0.00   0.65270   3 ;    H3C-   C33-   N31-   C34
   537    534    533    542      9     0.00   0.65270   3 ;    H3C-   C33-   N31-   C35
   538    533    542    543      9     0.00   0.65270   3 ;    C34-   N31-   C35-   H5A
   538    533    542    544      9     0.00   0.65270   3 ;    C34-   N31-   C35-   H5B
   538    533    542    545      9     0.00   0.65270   3 ;    C34-   N31-   C35-   H5C
   539    538    533    542      9     0.00   0.65270   3 ;    H4A-   C34-   N31-   C35
   540    538    533    542      9     0.00   0.65270   3 ;    H4B-   C34-   N31-   C35
   541    538    533    542      9     0.00   0.65270   3 ;    H4C-   C34-   N31-   C35
   548    549    588    585      9   180.00   0.00000   2 ;    O21-   C21-   C12-   C13
   548    549    588    589      9   180.00   0.00000   2 ;    O21-   C21-   C12-   H2R
   548    549    588    590      9   180.00   0.00000   2 ;    O21-   C21-   C12-   H2S
   549    588    585    582      9     0.00   0.65270   3 ;    C21-   C12-   C13-   C14
   549    588    585    586      9     0.00   0.65270   3 ;    C21-   C12-   C13-   H3R
   549    588    585    587      9     0.00   0.65270   3 ;    C21-   C12-   C13-   H3S
   550    549    588    585      9   180.00   0.00000   2 ;    O22-   C21-   C12-   C13
   550    549    588    589      9     0.00   3.34720   1 ;    O22-   C21-   C12-   H2R
   550    549    588    589      9   180.00   0.33472   3 ;    O22-   C21-   C12-   H2R
   550    549    588    590      9     0.00   3.34720   1 ;    O22-   C21-   C12-   H2S
   550    549    588    590      9   180.00   0.33472   3 ;    O22-   C21-   C12-   H2S
   551    552    555    556      9     0.00   0.62760   3 ;   H14T-  C114-  C113-  H13R
   551    552    555    557      9     0.00   0.62760   3 ;   H14T-  C114-  C113-  H13S
   551    552    555    558      9     0.00   0.66944   3 ;   H14T-  C114-  C113-  C112
   552    555    558    559      9     0.00   0.66944   3 ;   C114-  C113-  C112-  H12R
   552    555    558    560      9     0.00   0.66944   3 ;   C114-  C113-  C112-  H12S
   552    555    558    561      9     0.00   0.41840   1 ;   C114-  C113-  C112-  C111
   552    555    558    561      9     0.00   0.41840   2 ;   C114-  C113-  C112-  C111
   552    555    558    561      9     0.00   0.41840   4 ;   C114-  C113-  C112-  C111
   552    555    558    561      9     0.00   0.41840   5 ;   C114-  C113-  C112-  C111
   552    555    558    561      9     0.00   1.25520   3 ;   C114-  C113-  C112-  C111
   553    552    555    556      9     0.00   0.62760   3 ;   H14R-  C114-  C113-  H13R
   553    552    555    557      9     0.00   0.62760   3 ;   H14R-  C114-  C113-  H13S
   553    552    555    558      9     0.00   0.66944   3 ;   H14R-  C114-  C113-  C112
   554    552    555    556      9     0.00   0.62760   3 ;   H14S-  C114-  C113-  H13R
   554    552    555    557      9     0.00   0.62760   3 ;   H14S-  C114-  C113-  H13S
   554    552    555    558      9     0.00   0.66944   3 ;   H14S-  C114-  C113-  C112
   555    558    561    562      9     0.00   0.66944   3 ;   C113-  C112-  C111-  H11R
   555    558    561    563      9     0.00   0.66944   3 ;   C113-  C112-  C111-  H11S
   555    558    561    564      9     0.00   0.41840   1 ;   C113-  C112-  C111-  C110
   555    558    561    564      9     0.00   0.41840   2 ;   C113-  C112-  C111-  C110
   555    558    561    564      9     0.00   0.41840   4 ;   C113-  C112-  C111-  C110
   555    558    561    564      9     0.00   0.41840   5 ;   C113-  C112-  C111-  C110
   555    558    561    564      9     0.00   1.25520   3 ;   C113-  C112-  C111-  C110
   556    555    558    559      9     0.00   0.62760   3 ;   H13R-  C113-  C112-  H12R
   556    555    558    560      9     0.00   0.62760   3 ;   H13R-  C113-  C112-  H12S
   556    555    558    561      9     0.00   0.66944   3 ;   H13R-  C113-  C112-  C111
   557    555    558    559      9     0.00   0.62760   3 ;   H13S-  C113-  C112-  H12R
   557    555    558    560      9     0.00   0.62760   3 ;   H13S-  C113-  C112-  H12S
   557    555    558    561      9     0.00   0.66944   3 ;   H13S-  C113-  C112-  C111
   558    561    564    565      9     0.00   0.66944   3 ;   C112-  C111-  C110-  H10R
   558    561    564    566      9     0.00   0.66944   3 ;   C112-  C111-  C110-  H10S
   558    561    564    567      9     0.00   0.41840   1 ;   C112-  C111-  C110-   C19
   558    561    564    567      9     0.00   0.41840   2 ;   C112-  C111-  C110-   C19
   558    561    564    567      9     0.00   0.41840   4 ;   C112-  C111-  C110-   C19
   558    561    564    567      9     0.00   0.41840   5 ;   C112-  C111-  C110-   C19
   558    561    564    567      9     0.00   1.25520   3 ;   C112-  C111-  C110-   C19
   559    558    561    562      9     0.00   0.62760   3 ;   H12R-  C112-  C111-  H11R
   559    558    561    563      9     0.00   0.62760   3 ;   H12R-  C112-  C111-  H11S
   559    558    561    564      9     0.00   0.66944   3 ;   H12R-  C112-  C111-  C110
   560    558    561    562      9     0.00   0.62760   3 ;   H12S-  C112-  C111-  H11R
   560    558    561    563      9     0.00   0.62760   3 ;   H12S-  C112-  C111-  H11S
   560    558    561    564      9     0.00   0.66944   3 ;   H12S-  C112-  C111-  C110
   561    564    567    568      9     0.00   0.66944   3 ;   C111-  C110-   C19-   H9R
   561    564    567    569      9     0.00   0.66944   3 ;   C111-  C110-   C19-   H9S
   561    564    567    570      9     0.00   0.41840   1 ;   C111-  C110-   C19-   C18
   561    564    567    570      9     0.00   0.41840   2 ;   C111-  C110-   C19-   C18
   561    564    567    570      9     0.00   0.41840   4 ;   C111-  C110-   C19-   C18
   561    564    567    570      9     0.00   0.41840   5 ;   C111-  C110-   C19-   C18
   561    564    567    570      9     0.00   1.25520   3 ;   C111-  C110-   C19-   C18
   562    561    564    565      9     0.00   0.62760   3 ;   H11R-  C111-  C110-  H10R
   562    561    564    566      9     0.00   0.62760   3 ;   H11R-  C111-  C110-  H10S
   562    561    564    567      9     0.00   0.66944   3 ;   H11R-  C111-  C110-   C19
   563    561    564    565      9     0.00   0.62760   3 ;   H11S-  C111-  C110-  H10R
   563    561    564    566      9     0.00   0.62760   3 ;   H11S-  C111-  C110-  H10S
   563    561    564    567      9     0.00   0.66944   3 ;   H11S-  C111-  C110-   C19
   564    567    570    571      9     0.00   0.66944   3 ;   C110-   C19-   C18-   H8R
   564    567    570    572      9     0.00   0.66944   3 ;   C110-   C19-   C18-   H8S
   564    567    570    573      9     0.00   0.41840   1 ;   C110-   C19-   C18-   C17
   564    567    570    573      9     0.00   0.41840   2 ;   C110-   C19-   C18-   C17
   564    567    570    573      9     0.00   0.41840   4 ;   C110-   C19-   C18-   C17
   564    567    570    573      9     0.00   0.41840   5 ;   C110-   C19-   C18-   C17
   564    567    570    573      9     0.00   1.25520   3 ;   C110-   C19-   C18-   C17
   565    564    567    568      9     0.00   0.62760   3 ;   H10R-  C110-   C19-   H9R
   565    564    567    569      9     0.00   0.62760   3 ;   H10R-  C110-   C19-   H9S
   565    564    567    570      9     0.00   0.66944   3 ;   H10R-  C110-   C19-   C18
   566    564    567    568      9     0.00   0.62760   3 ;   H10S-  C110-   C19-   H9R
   566    564    567    569      9     0.00   0.62760   3 ;   H10S-  C110-   C19-   H9S
   566    564    567    570      9     0.00   0.66944   3 ;   H10S-  C110-   C19-   C18
   567    570    573    574      9     0.00   0.66944   3 ;    C19-   C18-   C17-   H7R
   567    570    573    575      9     0.00   0.66944   3 ;    C19-   C18-   C17-   H7S
   567    570    573    576      9     0.00   0.41840   1 ;    C19-   C18-   C17-   C16
   567    570    573    576      9     0.00   0.41840   2 ;    C19-   C18-   C17-   C16
   567    570    573    576      9     0.00   0.41840   4 ;    C19-   C18-   C17-   C16
   567    570    573    576      9     0.00   0.41840   5 ;    C19-   C18-   C17-   C16
   567    570    573    576      9     0.00   1.25520   3 ;    C19-   C18-   C17-   C16
   568    567    570    571      9     0.00   0.62760   3 ;    H9R-   C19-   C18-   H8R
   568    567    570    572      9     0.00   0.62760   3 ;    H9R-   C19-   C18-   H8S
   568    567    570    573      9     0.00   0.66944   3 ;    H9R-   C19-   C18-   C17
   569    567    570    571      9     0.00   0.62760   3 ;    H9S-   C19-   C18-   H8R
   569    567    570    572      9     0.00   0.62760   3 ;    H9S-   C19-   C18-   H8S
   569    567    570    573      9     0.00   0.66944   3 ;    H9S-   C19-   C18-   C17
   570    573    576    577      9     0.00   0.66944   3 ;    C18-   C17-   C16-   H6R
   570    573    576    578      9     0.00   0.66944   3 ;    C18-   C17-   C16-   H6S
   570    573    576    579      9     0.00   0.41840   1 ;    C18-   C17-   C16-   C15
   570    573    576    579      9     0.00   0.41840   2 ;    C18-   C17-   C16-   C15
   570    573    576    579      9     0.00   0.41840   4 ;    C18-   C17-   C16-   C15
   570    573    576    579      9     0.00   0.41840   5 ;    C18-   C17-   C16-   C15
   570    573    576    579      9     0.00   1.25520   3 ;    C18-   C17-   C16-   C15
   571    570    573    574      9     0.00   0.62760   3 ;    H8R-   C18-   C17-   H7R
   571    570    573    575      9     0.00   0.62760   3 ;    H8R-   C18-   C17-   H7S
   571    570    573    576      9     0.00   0.66944   3 ;    H8R-   C18-   C17-   C16
   572    570    573    574      9     0.00   0.62760   3 ;    H8S-   C18-   C17-   H7R
   572    570    573    575      9     0.00   0.62760   3 ;    H8S-   C18-   C17-   H7S
   572    570    573    576      9     0.00   0.66944   3 ;    H8S-   C18-   C17-   C16
   573    576    579    580      9     0.00   0.66944   3 ;    C17-   C16-   C15-   H5R
   573    576    579    581      9     0.00   0.66944   3 ;    C17-   C16-   C15-   H5S
   573    576    579    582      9     0.00   0.41840   1 ;    C17-   C16-   C15-   C14
   573    576    579    582      9     0.00   0.41840   2 ;    C17-   C16-   C15-   C14
   573    576    579    582      9     0.00   0.41840   4 ;    C17-   C16-   C15-   C14
   573    576    579    582      9     0.00   0.41840   5 ;    C17-   C16-   C15-   C14
   573    576    579    582      9     0.00   1.25520   3 ;    C17-   C16-   C15-   C14
   574    573    576    577      9     0.00   0.62760   3 ;    H7R-   C17-   C16-   H6R
   574    573    576    578      9     0.00   0.62760   3 ;    H7R-   C17-   C16-   H6S
   574    573    576    579      9     0.00   0.66944   3 ;    H7R-   C17-   C16-   C15
   575    573    576    577      9     0.00   0.62760   3 ;    H7S-   C17-   C16-   H6R
   575    573    576    578      9     0.00   0.62760   3 ;    H7S-   C17-   C16-   H6S
   575    573    576    579      9     0.00   0.66944   3 ;    H7S-   C17-   C16-   C15
   576    579    582    583      9     0.00   0.66944   3 ;    C16-   C15-   C14-   H4R
   576    579    582    584      9     0.00   0.66944   3 ;    C16-   C15-   C14-   H4S
   576    579    582    585      9     0.00   0.41840   1 ;    C16-   C15-   C14-   C13
   576    579    582    585      9     0.00   0.41840   2 ;    C16-   C15-   C14-   C13
   576    579    582    585      9     0.00   0.41840   4 ;    C16-   C15-   C14-   C13
   576    579    582    585      9     0.00   0.41840   5 ;    C16-   C15-   C14-   C13
   576    579    582    585      9     0.00   1.25520   3 ;    C16-   C15-   C14-   C13
   577    576    579    580      9     0.00   0.62760   3 ;    H6R-   C16-   C15-   H5R
   577    576    579    581      9     0.00   0.62760   3 ;    H6R-   C16-   C15-   H5S
   577    576    579    582      9     0.00   0.66944   3 ;    H6R-   C16-   C15-   C14
   578    576    579    580      9     0.00   0.62760   3 ;    H6S-   C16-   C15-   H5R
   578    576    579    581      9     0.00   0.62760   3 ;    H6S-   C16-   C15-   H5S
   578    576    579    582      9     0.00   0.66944   3 ;    H6S-   C16-   C15-   C14
   579    582    585    586      9     0.00   0.66944   3 ;    C15-   C14-   C13-   H3R
   579    582    585    587      9     0.00   0.66944   3 ;    C15-   C14-   C13-   H3S
   579    582    585    588      9     0.00   0.41840   1 ;    C15-   C14-   C13-   C12
   579    582    585    588      9     0.00   0.41840   2 ;    C15-   C14-   C13-   C12
   579    582    585    588      9     0.00   0.41840   4 ;    C15-   C14-   C13-   C12
   579    582    585    588      9     0.00   0.41840   5 ;    C15-   C14-   C13-   C12
   579    582    585    588      9     0.00   1.25520   3 ;    C15-   C14-   C13-   C12
   580    579    582    583      9     0.00   0.62760   3 ;    H5R-   C15-   C14-   H4R
   580    579    582    584      9     0.00   0.62760   3 ;    H5R-   C15-   C14-   H4S
   580    579    582    585      9     0.00   0.66944   3 ;    H5R-   C15-   C14-   C13
   581    579    582    583      9     0.00   0.62760   3 ;    H5S-   C15-   C14-   H4R
   581    579    582    584      9     0.00   0.62760   3 ;    H5S-   C15-   C14-   H4S
   581    579    582    585      9     0.00   0.66944   3 ;    H5S-   C15-   C14-   C13
   582    585    588    589      9     0.00   0.66944   3 ;    C14-   C13-   C12-   H2R
   582    585    588    590      9     0.00   0.66944   3 ;    C14-   C13-   C12-   H2S
   583    582    585    586      9     0.00   0.62760   3 ;    H4R-   C14-   C13-   H3R
   583    582    585    587      9     0.00   0.62760   3 ;    H4R-   C14-   C13-   H3S
   583    582    585    588      9     0.00   0.66944   3 ;    H4R-   C14-   C13-   C12
   584    582    585    586      9     0.00   0.62760   3 ;    H4S-   C14-   C13-   H3R
   584    582    585    587      9     0.00   0.62760   3 ;    H4S-   C14-   C13-   H3S
   584    582    585    588      9     0.00   0.66944   3 ;    H4S-   C14-   C13-   C12
   586    585    588    589      9     0.00   0.62760   3 ;    H3R-   C13-   C12-   H2R
   586    585    588    590      9     0.00   0.62760   3 ;    H3R-   C13-   C12-   H2S
   587    585    588    589      9     0.00   0.62760   3 ;    H3S-   C13-   C12-   H2R
   587    585    588    590      9     0.00   0.62760   3 ;    H3S-   C13-   C12-   H2S
   591    592    595    596      9     0.00   0.62760   3 ;   H14T-  C114-  C113-  H13R
   591    592    595    597      9     0.00   0.62760   3 ;   H14T-  C114-  C113-  H13S
   591    592    595    598      9     0.00   0.66944   3 ;   H14T-  C114-  C113-  C112
   592    595    598    599      9     0.00   0.66944   3 ;   C114-  C113-  C112-  H12R
   592    595    598    600      9     0.00   0.66944   3 ;   C114-  C113-  C112-  H12S
   592    595    598    601      9     0.00   0.41840   1 ;   C114-  C113-  C112-  C111
   592    595    598    601      9     0.00   0.41840   2 ;   C114-  C113-  C112-  C111
   592    595    598    601      9     0.00   0.41840   4 ;   C114-  C113-  C112-  C111
   592    595    598    601      9     0.00   0.41840   5 ;   C114-  C113-  C112-  C111
   592    595    598    601      9     0.00   1.25520   3 ;   C114-  C113-  C112-  C111
   593    592    595    596      9     0.00   0.62760   3 ;   H14R-  C114-  C113-  H13R
   593    592    595    597      9     0.00   0.62760   3 ;   H14R-  C114-  C113-  H13S
   593    592    595    598      9     0.00   0.66944   3 ;   H14R-  C114-  C113-  C112
   594    592    595    596      9     0.00   0.62760   3 ;   H14S-  C114-  C113-  H13R
   594    592    595    597      9     0.00   0.62760   3 ;   H14S-  C114-  C113-  H13S
   594    592    595    598      9     0.00   0.66944   3 ;   H14S-  C114-  C113-  C112
   595    598    601    602      9     0.00   0.66944   3 ;   C113-  C112-  C111-  H11R
   595    598    601    603      9     0.00   0.66944   3 ;   C113-  C112-  C111-  H11S
   595    598    601    604      9     0.00   0.41840   1 ;   C113-  C112-  C111-  C110
   595    598    601    604      9     0.00   0.41840   2 ;   C113-  C112-  C111-  C110
   595    598    601    604      9     0.00   0.41840   4 ;   C113-  C112-  C111-  C110
   595    598    601    604      9     0.00   0.41840   5 ;   C113-  C112-  C111-  C110
   595    598    601    604      9     0.00   1.25520   3 ;   C113-  C112-  C111-  C110
   596    595    598    599      9     0.00   0.62760   3 ;   H13R-  C113-  C112-  H12R
   596    595    598    600      9     0.00   0.62760   3 ;   H13R-  C113-  C112-  H12S
   596    595    598    601      9     0.00   0.66944   3 ;   H13R-  C113-  C112-  C111
   597    595    598    599      9     0.00   0.62760   3 ;   H13S-  C113-  C112-  H12R
   597    595    598    600      9     0.00   0.62760   3 ;   H13S-  C113-  C112-  H12S
   597    595    598    601      9     0.00   0.66944   3 ;   H13S-  C113-  C112-  C111
   598    601    604    605      9     0.00   0.66944   3 ;   C112-  C111-  C110-  H10R
   598    601    604    606      9     0.00   0.66944   3 ;   C112-  C111-  C110-  H10S
   598    601    604    607      9     0.00   0.41840   1 ;   C112-  C111-  C110-   C19
   598    601    604    607      9     0.00   0.41840   2 ;   C112-  C111-  C110-   C19
   598    601    604    607      9     0.00   0.41840   4 ;   C112-  C111-  C110-   C19
   598    601    604    607      9     0.00   0.41840   5 ;   C112-  C111-  C110-   C19
   598    601    604    607      9     0.00   1.25520   3 ;   C112-  C111-  C110-   C19
   599    598    601    602      9     0.00   0.62760   3 ;   H12R-  C112-  C111-  H11R
   599    598    601    603      9     0.00   0.62760   3 ;   H12R-  C112-  C111-  H11S
   599    598    601    604      9     0.00   0.66944   3 ;   H12R-  C112-  C111-  C110
   600    598    601    602      9     0.00   0.62760   3 ;   H12S-  C112-  C111-  H11R
   600    598    601    603      9     0.00   0.62760   3 ;   H12S-  C112-  C111-  H11S
   600    598    601    604      9     0.00   0.66944   3 ;   H12S-  C112-  C111-  C110
   601    604    607    608      9     0.00   0.66944   3 ;   C111-  C110-   C19-   H9R
   601    604    607    609      9     0.00   0.66944   3 ;   C111-  C110-   C19-   H9S
   601    604    607    610      9     0.00   0.41840   1 ;   C111-  C110-   C19-   C18
   601    604    607    610      9     0.00   0.41840   2 ;   C111-  C110-   C19-   C18
   601    604    607    610      9     0.00   0.41840   4 ;   C111-  C110-   C19-   C18
   601    604    607    610      9     0.00   0.41840   5 ;   C111-  C110-   C19-   C18
   601    604    607    610      9     0.00   1.25520   3 ;   C111-  C110-   C19-   C18
   602    601    604    605      9     0.00   0.62760   3 ;   H11R-  C111-  C110-  H10R
   602    601    604    606      9     0.00   0.62760   3 ;   H11R-  C111-  C110-  H10S
   602    601    604    607      9     0.00   0.66944   3 ;   H11R-  C111-  C110-   C19
   603    601    604    605      9     0.00   0.62760   3 ;   H11S-  C111-  C110-  H10R
   603    601    604    606      9     0.00   0.62760   3 ;   H11S-  C111-  C110-  H10S
   603    601    604    607      9     0.00   0.66944   3 ;   H11S-  C111-  C110-   C19
   604    607    610    611      9     0.00   0.66944   3 ;   C110-   C19-   C18-   H8R
   604    607    610    612      9     0.00   0.66944   3 ;   C110-   C19-   C18-   H8S
   604    607    610    613      9     0.00   0.41840   1 ;   C110-   C19-   C18-   C17
   604    607    610    613      9     0.00   0.41840   2 ;   C110-   C19-   C18-   C17
   604    607    610    613      9     0.00   0.41840   4 ;   C110-   C19-   C18-   C17
   604    607    610    613      9     0.00   0.41840   5 ;   C110-   C19-   C18-   C17
   604    607    610    613      9     0.00   1.25520   3 ;   C110-   C19-   C18-   C17
   605    604    607    608      9     0.00   0.62760   3 ;   H10R-  C110-   C19-   H9R
   605    604    607    609      9     0.00   0.62760   3 ;   H10R-  C110-   C19-   H9S
   605    604    607    610      9     0.00   0.66944   3 ;   H10R-  C110-   C19-   C18
   606    604    607    608      9     0.00   0.62760   3 ;   H10S-  C110-   C19-   H9R
   606    604    607    609      9     0.00   0.62760   3 ;   H10S-  C110-   C19-   H9S
   606    604    607    610      9     0.00   0.66944   3 ;   H10S-  C110-   C19-   C18
   607    610    613    614      9     0.00   0.66944   3 ;    C19-   C18-   C17-   H7R
   607    610    613    615      9     0.00   0.66944   3 ;    C19-   C18-   C17-   H7S
   607    610    613    616      9     0.00   0.41840   1 ;    C19-   C18-   C17-   C16
   607    610    613    616      9     0.00   0.41840   2 ;    C19-   C18-   C17-   C16
   607    610    613    616      9     0.00   0.41840   4 ;    C19-   C18-   C17-   C16
   607    610    613    616      9     0.00   0.41840   5 ;    C19-   C18-   C17-   C16
   607    610    613    616      9     0.00   1.25520   3 ;    C19-   C18-   C17-   C16
   608    607    610    611      9     0.00   0.62760   3 ;    H9R-   C19-   C18-   H8R
   608    607    610    612      9     0.00   0.62760   3 ;    H9R-   C19-   C18-   H8S
   608    607    610    613      9     0.00   0.66944   3 ;    H9R-   C19-   C18-   C17
   609    607    610    611      9     0.00   0.62760   3 ;    H9S-   C19-   C18-   H8R
   609    607    610    612      9     0.00   0.62760   3 ;    H9S-   C19-   C18-   H8S
   609    607    610    613      9     0.00   0.66944   3 ;    H9S-   C19-   C18-   C17
   610    613    616    617      9     0.00   0.66944   3 ;    C18-   C17-   C16-   H6R
   610    613    616    618      9     0.00   0.66944   3 ;    C18-   C17-   C16-   H6S
   610    613    616    619      9     0.00   0.41840   1 ;    C18-   C17-   C16-   C15
   610    613    616    619      9     0.00   0.41840   2 ;    C18-   C17-   C16-   C15
   610    613    616    619      9     0.00   0.41840   4 ;    C18-   C17-   C16-   C15
   610    613    616    619      9     0.00   0.41840   5 ;    C18-   C17-   C16-   C15
   610    613    616    619      9     0.00   1.25520   3 ;    C18-   C17-   C16-   C15
   611    610    613    614      9     0.00   0.62760   3 ;    H8R-   C18-   C17-   H7R
   611    610    613    615      9     0.00   0.62760   3 ;    H8R-   C18-   C17-   H7S
   611    610    613    616      9     0.00   0.66944   3 ;    H8R-   C18-   C17-   C16
   612    610    613    614      9     0.00   0.62760   3 ;    H8S-   C18-   C17-   H7R
   612    610    613    615      9     0.00   0.62760   3 ;    H8S-   C18-   C17-   H7S
   612    610    613    616      9     0.00   0.66944   3 ;    H8S-   C18-   C17-   C16
   613    616    619    620      9     0.00   0.66944   3 ;    C17-   C16-   C15-   H5R
   613    616    619    621      9     0.00   0.66944   3 ;    C17-   C16-   C15-   H5S
   613    616    619    622      9     0.00   0.41840   1 ;    C17-   C16-   C15-   C14
   613    616    619    622      9     0.00   0.41840   2 ;    C17-   C16-   C15-   C14
   613    616    619    622      9     0.00   0.41840   4 ;    C17-   C16-   C15-   C14
   613    616    619    622      9     0.00   0.41840   5 ;    C17-   C16-   C15-   C14
   613    616    619    622      9     0.00   1.25520   3 ;    C17-   C16-   C15-   C14
   614    613    616    617      9     0.00   0.62760   3 ;    H7R-   C17-   C16-   H6R
   614    613    616    618      9     0.00   0.62760   3 ;    H7R-   C17-   C16-   H6S
   614    613    616    619      9     0.00   0.66944   3 ;    H7R-   C17-   C16-   C15
   615    613    616    617      9     0.00   0.62760   3 ;    H7S-   C17-   C16-   H6R
   615    613    616    618      9     0.00   0.62760   3 ;    H7S-   C17-   C16-   H6S
   615    613    616    619      9     0.00   0.66944   3 ;    H7S-   C17-   C16-   C15
   616    619    622    623      9     0.00   0.66944   3 ;    C16-   C15-   C14-   H4R
   616    619    622    624      9     0.00   0.66944   3 ;    C16-   C15-   C14-   H4S
   616    619    622    625      9     0.00   0.41840   1 ;    C16-   C15-   C14-   C13
   616    619    622    625      9     0.00   0.41840   2 ;    C16-   C15-   C14-   C13
   616    619    622    625      9     0.00   0.41840   4 ;    C16-   C15-   C14-   C13
   616    619    622    625      9     0.00   0.41840   5 ;    C16-   C15-   C14-   C13
   616    619    622    625      9     0.00   1.25520   3 ;    C16-   C15-   C14-   C13
   617    616    619    620      9     0.00   0.62760   3 ;    H6R-   C16-   C15-   H5R
   617    616    619    621      9     0.00   0.62760   3 ;    H6R-   C16-   C15-   H5S
   617    616    619    622      9     0.00   0.66944   3 ;    H6R-   C16-   C15-   C14
   618    616    619    620      9     0.00   0.62760   3 ;    H6S-   C16-   C15-   H5R
   618    616    619    621      9     0.00   0.62760   3 ;    H6S-   C16-   C15-   H5S
   618    616    619    622      9     0.00   0.66944   3 ;    H6S-   C16-   C15-   C14
   619    622    625    626      9     0.00   0.66944   3 ;    C15-   C14-   C13-   H3R
   619    622    625    627      9     0.00   0.66944   3 ;    C15-   C14-   C13-   H3S
   619    622    625    628      9     0.00   0.41840   1 ;    C15-   C14-   C13-   C12
   619    622    625    628      9     0.00   0.41840   2 ;    C15-   C14-   C13-   C12
   619    622    625    628      9     0.00   0.41840   4 ;    C15-   C14-   C13-   C12
   619    622    625    628      9     0.00   0.41840   5 ;    C15-   C14-   C13-   C12
   619    622    625    628      9     0.00   1.25520   3 ;    C15-   C14-   C13-   C12
   620    619    622    623      9     0.00   0.62760   3 ;    H5R-   C15-   C14-   H4R
   620    619    622    624      9     0.00   0.62760   3 ;    H5R-   C15-   C14-   H4S
   620    619    622    625      9     0.00   0.66944   3 ;    H5R-   C15-   C14-   C13
   621    619    622    623      9     0.00   0.62760   3 ;    H5S-   C15-   C14-   H4R
   621    619    622    624      9     0.00   0.62760   3 ;    H5S-   C15-   C14-   H4S
   621    619    622    625      9     0.00   0.66944   3 ;    H5S-   C15-   C14-   C13
   622    625    628    629      9     0.00   0.66944   3 ;    C14-   C13-   C12-   H2R
   622    625    628    630      9     0.00   0.66944   3 ;    C14-   C13-   C12-   H2S
   622    625    628    631      9     0.00   0.65270   3 ;    C14-   C13-   C12-   C11
   623    622    625    626      9     0.00   0.62760   3 ;    H4R-   C14-   C13-   H3R
   623    622    625    627      9     0.00   0.62760   3 ;    H4R-   C14-   C13-   H3S
   623    622    625    628      9     0.00   0.66944   3 ;    H4R-   C14-   C13-   C12
   624    622    625    626      9     0.00   0.62760   3 ;    H4S-   C14-   C13-   H3R
   624    622    625    627      9     0.00   0.62760   3 ;    H4S-   C14-   C13-   H3S
   624    622    625    628      9     0.00   0.66944   3 ;    H4S-   C14-   C13-   C12
   625    628    631    632      9   180.00   0.00000   2 ;    C13-   C12-   C11-   O12
   625    628    631    633      9   180.00   0.00000   2 ;    C13-   C12-   C11-   O11
   626    625    628    629      9     0.00   0.62760   3 ;    H3R-   C13-   C12-   H2R
   626    625    628    630      9     0.00   0.62760   3 ;    H3R-   C13-   C12-   H2S
   626    625    628    631      9     0.00   0.65270   3 ;    H3R-   C13-   C12-   C11
   627    625    628    629      9     0.00   0.62760   3 ;    H3S-   C13-   C12-   H2R
   627    625    628    630      9     0.00   0.62760   3 ;    H3S-   C13-   C12-   H2S
   627    625    628    631      9     0.00   0.65270   3 ;    H3S-   C13-   C12-   C11
   628    631    633    634      9   180.00  11.29680   2 ;    C12-   C11-   O11-    C1
   629    628    631    632      9     0.00   3.34720   1 ;    H2R-   C12-   C11-   O12
   629    628    631    632      9   180.00   0.33472   3 ;    H2R-   C12-   C11-   O12
   629    628    631    633      9   180.00   0.00000   2 ;    H2R-   C12-   C11-   O11
   630    628    631    632      9     0.00   3.34720   1 ;    H2S-   C12-   C11-   O12
   630    628    631    632      9   180.00   0.33472   3 ;    H2S-   C12-   C11-   O12
   630    628    631    633      9   180.00   0.00000   2 ;    H2S-   C12-   C11-   O11
   631    633    634    635      9     0.00   1.60247   3 ;    C11-   O11-    C1-    HR
   631    633    634    636      9     0.00   1.60247   3 ;    C11-   O11-    C1-    HS
   631    633    634    637      9     0.00  -0.41840   1 ;    C11-   O11-    C1-    C2
   632    631    633    634      9   180.00   5.85760   1 ;    O12-   C11-   O11-    C1
   632    631    633    634      9   180.00  11.29680   2 ;    O12-   C11-   O11-    C1
   633    634    637    638      9     0.00   0.00000   0 ;    O11-    C1-    C2-    HX
   633    634    637    638      9     0.00   1.04600   1 ;    O11-    C1-    C2-    HX
   633    634    637    639      9     0.00   0.00000   0 ;    O11-    C1-    C2-    C3
   633    634    637    639      9     0.00   0.00000   0 ;    O11-    C1-    C2-    C3
   633    634    637    639      9     0.00   0.00000   0 ;    O11-    C1-    C2-    C3
   633    634    637    639      9     0.00   0.00000   0 ;    O11-    C1-    C2-    C3
   633    634    637    639      9     0.00   0.00000   0 ;    O11-    C1-    C2-    C3
   633    634    637    666      9     0.00   1.25520   2 ;    O11-    C1-    C2-   O21
   633    634    637    666      9     0.00   4.18400   3 ;    O11-    C1-    C2-   O21
   633    634    637    666      9   180.00  -0.41840   1 ;    O11-    C1-    C2-   O21
   634    637    639    640      9     0.00   0.65270   3 ;     C1-    C2-    C3-    HA
   634    637    639    641      9     0.00   0.65270   3 ;     C1-    C2-    C3-    HB
   634    637    639    642      9   180.00   3.34720   1 ;     C1-    C2-    C3-   O31
   634    637    666    667      9     0.00  -0.41840   1 ;     C1-    C2-   O21-   C21
   635    634    637    638      9     0.00   0.65270   3 ;     HR-    C1-    C2-    HX
   635    634    637    639      9     0.00   0.65270   3 ;     HR-    C1-    C2-    C3
   635    634    637    666      9     0.00   0.00000   0 ;     HR-    C1-    C2-   O21
   635    634    637    666      9     0.00   1.04600   1 ;     HR-    C1-    C2-   O21
   636    634    637    638      9     0.00   0.65270   3 ;     HS-    C1-    C2-    HX
   636    634    637    639      9     0.00   0.65270   3 ;     HS-    C1-    C2-    C3
   636    634    637    666      9     0.00   0.00000   0 ;     HS-    C1-    C2-   O21
   636    634    637    666      9     0.00   1.04600   1 ;     HS-    C1-    C2-   O21
   637    639    642    643      9     0.00   0.00000   0 ;     C2-    C3-   O31-   P31
   637    639    642    643      9   180.00  -3.34720   2 ;     C2-    C3-   O31-   P31
   637    666    667    668      9   180.00   5.85760   1 ;     C2-   O21-   C21-   O22
   637    666    667    668      9   180.00  11.29680   2 ;     C2-   O21-   C21-   O22
   637    666    667    706      9   180.00  11.29680   2 ;     C2-   O21-   C21-   C12
   638    637    639    640      9     0.00   0.65270   3 ;     HX-    C2-    C3-    HA
   638    637    639    641      9     0.00   0.65270   3 ;     HX-    C2-    C3-    HB
   638    637    639    642      9     0.00   0.00000   0 ;     HX-    C2-    C3-   O31
   638    637    639    642      9     0.00   1.04600   1 ;     HX-    C2-    C3-   O31
   638    637    666    667      9     0.00   1.60247   3 ;     HX-    C2-   O21-   C21
   639    637    666    667      9     0.00  -0.41840   1 ;     C3-    C2-   O21-   C21
   639    642    643    644      9     0.00   2.51040   3 ;     C3-   O31-   P31-   O32
   639    642    643    644      9     0.00   9.62320   2 ;     C3-   O31-   P31-   O32
   639    642    643    664      9     0.00   0.00000   0 ;     C3-   O31-   P31-   O33
   639    642    643    664      9     0.00   0.00000   0 ;     C3-   O31-   P31-   O33
   639    642    643    664      9     0.00   0.00000   0 ;     C3-   O31-   P31-   O33
   639    642    643    664      9     0.00   0.00000   0 ;     C3-   O31-   P31-   O33
   639    642    643    664      9     0.00   0.83680   2 ;     C3-   O31-   P31-   O33
   639    642    643    665      9     0.00   0.00000   0 ;     C3-   O31-   P31-   O34
   639    642    643    665      9     0.00   0.00000   0 ;     C3-   O31-   P31-   O34
   639    642    643    665      9     0.00   0.00000   0 ;     C3-   O31-   P31-   O34
   639    642    643    665      9     0.00   0.00000   0 ;     C3-   O31-   P31-   O34
   639    642    643    665      9     0.00   0.83680   2 ;     C3-   O31-   P31-   O34
   640    639    637    666      9     0.00   0.00000   0 ;     HA-    C3-    C2-   O21
   640    639    637    666      9     0.00   1.04600   1 ;     HA-    C3-    C2-   O21
   640    639    642    643      9     0.00   0.00000   0 ;     HA-    C3-   O31-   P31
   640    639    642    643      9     0.00   0.00000   0 ;     HA-    C3-   O31-   P31
   640    639    642    643      9     0.00   0.00000   0 ;     HA-    C3-   O31-   P31
   640    639    642    643      9     0.00   0.00000   0 ;     HA-    C3-   O31-   P31
   640    639    642    643      9     0.00   1.60247   3 ;     HA-    C3-   O31-   P31
   641    639    637    666      9     0.00   0.00000   0 ;     HB-    C3-    C2-   O21
   641    639    637    666      9     0.00   1.04600   1 ;     HB-    C3-    C2-   O21
   641    639    642    643      9     0.00   0.00000   0 ;     HB-    C3-   O31-   P31
   641    639    642    643      9     0.00   0.00000   0 ;     HB-    C3-   O31-   P31
   641    639    642    643      9     0.00   0.00000   0 ;     HB-    C3-   O31-   P31
   641    639    642    643      9     0.00   0.00000   0 ;     HB-    C3-   O31-   P31
   641    639    642    643      9     0.00   1.60247   3 ;     HB-    C3-   O31-   P31
   642    639    637    666      9     0.00   0.00000   0 ;    O31-    C3-    C2-   O21
   642    639    637    666      9     0.00   0.00000   0 ;    O31-    C3-    C2-   O21
   642    639    637    666      9     0.00   0.00000   0 ;    O31-    C3-    C2-   O21
   642    639    637    666      9     0.00   0.00000   0 ;    O31-    C3-    C2-   O21
   642    639    637    666      9     0.00   0.00000   0 ;    O31-    C3-    C2-   O21
   642    643    644    645      9     0.00   2.51040   3 ;    O31-   P31-   O32-   C31
   642    643    644    645      9     0.00   9.62320   2 ;    O31-   P31-   O32-   C31
   643    644    645    646      9     0.00   0.00000   0 ;    P31-   O32-   C31-   H1A
   643    644    645    646      9     0.00   0.00000   0 ;    P31-   O32-   C31-   H1A
   643    644    645    646      9     0.00   0.00000   0 ;    P31-   O32-   C31-   H1A
   643    644    645    646      9     0.00   0.00000   0 ;    P31-   O32-   C31-   H1A
   643    644    645    646      9     0.00   1.60247   3 ;    P31-   O32-   C31-   H1A
   643    644    645    647      9     0.00   0.00000   0 ;    P31-   O32-   C31-   H1B
   643    644    645    647      9     0.00   0.00000   0 ;    P31-   O32-   C31-   H1B
   643    644    645    647      9     0.00   0.00000   0 ;    P31-   O32-   C31-   H1B
   643    644    645    647      9     0.00   0.00000   0 ;    P31-   O32-   C31-   H1B
   643    644    645    647      9     0.00   1.60247   3 ;    P31-   O32-   C31-   H1B
   643    644    645    648      9     0.00   0.00000   0 ;    P31-   O32-   C31-   C32
   643    644    645    648      9   180.00  -3.34720   2 ;    P31-   O32-   C31-   C32
   644    645    648    649      9     0.00   0.65270   3 ;    O32-   C31-   C32-   H2A
   644    645    648    650      9     0.00   0.65270   3 ;    O32-   C31-   C32-   H2B
   644    645    648    651      9     0.00   4.18400   3 ;    O32-   C31-   C32-   N31
   645    644    643    664      9     0.00   0.00000   0 ;    C31-   O32-   P31-   O33
   645    644    643    664      9     0.00   0.00000   0 ;    C31-   O32-   P31-   O33
   645    644    643    664      9     0.00   0.00000   0 ;    C31-   O32-   P31-   O33
   645    644    643    664      9     0.00   0.00000   0 ;    C31-   O32-   P31-   O33
   645    644    643    664      9     0.00   0.83680   2 ;    C31-   O32-   P31-   O33
   645    644    643    665      9     0.00   0.00000   0 ;    C31-   O32-   P31-   O34
   645    644    643    665      9     0.00   0.00000   0 ;    C31-   O32-   P31-   O34
   645    644    643    665      9     0.00   0.00000   0 ;    C31-   O32-   P31-   O34
   645    644    643    665      9     0.00   0.00000   0 ;    C31-   O32-   P31-   O34
   645    644    643    665      9     0.00   0.83680   2 ;    C31-   O32-   P31-   O34
   645    648    651    652      9     0.00   0.65270   3 ;    C31-   C32-   N31-   C33
   645    648    651    656      9     0.00   0.65270   3 ;    C31-   C32-   N31-   C34
   645    648    651    660      9     0.00   0.65270   3 ;    C31-   C32-   N31-   C35
   646    645    648    649      9     0.00   0.65270   3 ;    H1A-   C31-   C32-   H2A
   646    645    648    650      9     0.00   0.65270   3 ;    H1A-   C31-   C32-   H2B
   646    645    648    651      9     0.00   0.65270   3 ;    H1A-   C31-   C32-   N31
   647    645    648    649      9     0.00   0.65270   3 ;    H1B-   C31-   C32-   H2A
   647    645    648    650      9     0.00   0.65270   3 ;    H1B-   C31-   C32-   H2B
   647    645    648    651      9     0.00   0.65270   3 ;    H1B-   C31-   C32-   N31
   648    651    652    653      9     0.00   0.65270   3 ;    C32-   N31-   C33-   H3A
   648    651    652    654      9     0.00   0.65270   3 ;    C32-   N31-   C33-   H3B
   648    651    652    655      9     0.00   0.65270   3 ;    C32-   N31-   C33-   H3C
   648    651    656    657      9     0.00   0.65270   3 ;    C32-   N31-   C34-   H4A
   648    651    656    658      9     0.00   0.65270   3 ;    C32-   N31-   C34-   H4B
   648    651    656    659      9     0.00   0.65270   3 ;    C32-   N31-   C34-   H4C
   648    651    660    661      9     0.00   0.65270   3 ;    C32-   N31-   C35-   H5A
   648    651    660    662      9     0.00   0.65270   3 ;    C32-   N31-   C35-   H5B
   648    651    660    663      9     0.00   0.65270   3 ;    C32-   N31-   C35-   H5C
   649    648    651    652      9     0.00   0.65270   3 ;    H2A-   C32-   N31-   C33
   649    648    651    656      9     0.00   0.65270   3 ;    H2A-   C32-   N31-   C34
   649    648    651    660      9     0.00   0.65270   3 ;    H2A-   C32-   N31-   C35
   650    648    651    652      9     0.00   0.65270   3 ;    H2B-   C32-   N31-   C33
   650    648    651    656      9     0.00   0.65270   3 ;    H2B-   C32-   N31-   C34
   650    648    651    660      9     0.00   0.65270   3 ;    H2B-   C32-   N31-   C35
   652    651    656    657      9     0.00   0.65270   3 ;    C33-   N31-   C34-   H4A
   652    651    656    658      9     0.00   0.65270   3 ;    C33-   N31-   C34-   H4B
   652    651    656    659      9     0.00   0.65270   3 ;    C33-   N31-   C34-   H4C
   652    651    660    661      9     0.00   0.65270   3 ;    C33-   N31-   C35-   H5A
   652    651    660    662      9     0.00   0.65270   3 ;    C33-   N31-   C35-   H5B
   652    651    660    663      9     0.00   0.65270   3 ;    C33-   N31-   C35-   H5C
   653    652    651    656      9     0.00   0.65270   3 ;    H3A-   C33-   N31-   C34
   653    652    651    660      9     0.00   0.65270   3 ;    H3A-   C33-   N31-   C35
   654    652    651    656      9     0.00   0.65270   3 ;    H3B-   C33-   N31-   C34
   654    652    651    660      9     0.00   0.65270   3 ;    H3B-   C33-   N31-   C35
   655    652    651    656      9     0.00   0.65270   3 ;    H3C-   C33-   N31-   C34
   655    652    651    660      9     0.00   0.65270   3 ;    H3C-   C33-   N31-   C35
   656    651    660    661      9     0.00   0.65270   3 ;    C34-   N31-   C35-   H5A
   656    651    660    662      9     0.00   0.65270   3 ;    C34-   N31-   C35-   H5B
   656    651    660    663      9     0.00   0.65270   3 ;    C34-   N31-   C35-   H5C
   657    656    651    660      9     0.00   0.65270   3 ;    H4A-   C34-   N31-   C35
   658    656    651    660      9     0.00   0.65270   3 ;    H4B-   C34-   N31-   C35
   659    656    651    660      9     0.00   0.65270   3 ;    H4C-   C34-   N31-   C35
   666    667    706    703      9   180.00   0.00000   2 ;    O21-   C21-   C12-   C13
   666    667    706    707      9   180.00   0.00000   2 ;    O21-   C21-   C12-   H2R
   666    667    706    708      9   180.00   0.00000   2 ;    O21-   C21-   C12-   H2S
   667    706    703    700      9     0.00   0.65270   3 ;    C21-   C12-   C13-   C14
   667    706    703    704      9     0.00   0.65270   3 ;    C21-   C12-   C13-   H3R
   667    706    703    705      9     0.00   0.65270   3 ;    C21-   C12-   C13-   H3S
   668    667    706    703      9   180.00   0.00000   2 ;    O22-   C21-   C12-   C13
   668    667    706    707      9     0.00   3.34720   1 ;    O22-   C21-   C12-   H2R
   668    667    706    707      9   180.00   0.33472   3 ;    O22-   C21-   C12-   H2R
   668    667    706    708      9     0.00   3.34720   1 ;    O22-   C21-   C12-   H2S
   668    667    706    708      9   180.00   0.33472   3 ;    O22-   C21-   C12-   H2S
   669    670    673    674      9     0.00   0.62760   3 ;   H14T-  C114-  C113-  H13R
   669    670    673    675      9     0.00   0.62760   3 ;   H14T-  C114-  C113-  H13S
   669    670    673    676      9     0.00   0.66944   3 ;   H14T-  C114-  C113-  C112
   670    673    676    677      9     0.00   0.66944   3 ;   C114-  C113-  C112-  H12R
   670    673    676    678      9     0.00   0.66944   3 ;   C114-  C113-  C112-  H12S
   670    673    676    679      9     0.00   0.41840   1 ;   C114-  C113-  C112-  C111
   670    673    676    679      9     0.00   0.41840   2 ;   C114-  C113-  C112-  C111
   670    673    676    679      9     0.00   0.41840   4 ;   C114-  C113-  C112-  C111
   670    673    676    679      9     0.00   0.41840   5 ;   C114-  C113-  C112-  C111
   670    673    676    679      9     0.00   1.25520   3 ;   C114-  C113-  C112-  C111
   671    670    673    674      9     0.00   0.62760   3 ;   H14R-  C114-  C113-  H13R
   671    670    673    675      9     0.00   0.62760   3 ;   H14R-  C114-  C113-  H13S
   671    670    673    676      9     0.00   0.66944   3 ;   H14R-  C114-  C113-  C112
   672    670    673    674      9     0.00   0.62760   3 ;   H14S-  C114-  C113-  H13R
   672    670    673    675      9     0.00   0.62760   3 ;   H14S-  C114-  C113-  H13S
   672    670    673    676      9     0.00   0.66944   3 ;   H14S-  C114-  C113-  C112
   673    676    679    680      9     0.00   0.66944   3 ;   C113-  C112-  C111-  H11R
   673    676    679    681      9     0.00   0.66944   3 ;   C113-  C112-  C111-  H11S
   673    676    679    682      9     0.00   0.41840   1 ;   C113-  C112-  C111-  C110
   673    676    679    682      9     0.00   0.41840   2 ;   C113-  C112-  C111-  C110
   673    676    679    682      9     0.00   0.41840   4 ;   C113-  C112-  C111-  C110
   673    676    679    682      9     0.00   0.41840   5 ;   C113-  C112-  C111-  C110
   673    676    679    682      9     0.00   1.25520   3 ;   C113-  C112-  C111-  C110
   674    673    676    677      9     0.00   0.62760   3 ;   H13R-  C113-  C112-  H12R
   674    673    676    678      9     0.00   0.62760   3 ;   H13R-  C113-  C112-  H12S
   674    673    676    679      9     0.00   0.66944   3 ;   H13R-  C113-  C112-  C111
   675    673    676    677      9     0.00   0.62760   3 ;   H13S-  C113-  C112-  H12R
   675    673    676    678      9     0.00   0.62760   3 ;   H13S-  C113-  C112-  H12S
   675    673    676    679      9     0.00   0.66944   3 ;   H13S-  C113-  C112-  C111
   676    679    682    683      9     0.00   0.66944   3 ;   C112-  C111-  C110-  H10R
   676    679    682    684      9     0.00   0.66944   3 ;   C112-  C111-  C110-  H10S
   676    679    682    685      9     0.00   0.41840   1 ;   C112-  C111-  C110-   C19
   676    679    682    685      9     0.00   0.41840   2 ;   C112-  C111-  C110-   C19
   676    679    682    685      9     0.00   0.41840   4 ;   C112-  C111-  C110-   C19
   676    679    682    685      9     0.00   0.41840   5 ;   C112-  C111-  C110-   C19
   676    679    682    685      9     0.00   1.25520   3 ;   C112-  C111-  C110-   C19
   677    676    679    680      9     0.00   0.62760   3 ;   H12R-  C112-  C111-  H11R
   677    676    679    681      9     0.00   0.62760   3 ;   H12R-  C112-  C111-  H11S
   677    676    679    682      9     0.00   0.66944   3 ;   H12R-  C112-  C111-  C110
   678    676    679    680      9     0.00   0.62760   3 ;   H12S-  C112-  C111-  H11R
   678    676    679    681      9     0.00   0.62760   3 ;   H12S-  C112-  C111-  H11S
   678    676    679    682      9     0.00   0.66944   3 ;   H12S-  C112-  C111-  C110
   679    682    685    686      9     0.00   0.66944   3 ;   C111-  C110-   C19-   H9R
   679    682    685    687      9     0.00   0.66944   3 ;   C111-  C110-   C19-   H9S
   679    682    685    688      9     0.00   0.41840   1 ;   C111-  C110-   C19-   C18
   679    682    685    688      9     0.00   0.41840   2 ;   C111-  C110-   C19-   C18
   679    682    685    688      9     0.00   0.41840   4 ;   C111-  C110-   C19-   C18
   679    682    685    688      9     0.00   0.41840   5 ;   C111-  C110-   C19-   C18
   679    682    685    688      9     0.00   1.25520   3 ;   C111-  C110-   C19-   C18
   680    679    682    683      9     0.00   0.62760   3 ;   H11R-  C111-  C110-  H10R
   680    679    682    684      9     0.00   0.62760   3 ;   H11R-  C111-  C110-  H10S
   680    679    682    685      9     0.00   0.66944   3 ;   H11R-  C111-  C110-   C19
   681    679    682    683      9     0.00   0.62760   3 ;   H11S-  C111-  C110-  H10R
   681    679    682    684      9     0.00   0.62760   3 ;   H11S-  C111-  C110-  H10S
   681    679    682    685      9     0.00   0.66944   3 ;   H11S-  C111-  C110-   C19
   682    685    688    689      9     0.00   0.66944   3 ;   C110-   C19-   C18-   H8R
   682    685    688    690      9     0.00   0.66944   3 ;   C110-   C19-   C18-   H8S
   682    685    688    691      9     0.00   0.41840   1 ;   C110-   C19-   C18-   C17
   682    685    688    691      9     0.00   0.41840   2 ;   C110-   C19-   C18-   C17
   682    685    688    691      9     0.00   0.41840   4 ;   C110-   C19-   C18-   C17
   682    685    688    691      9     0.00   0.41840   5 ;   C110-   C19-   C18-   C17
   682    685    688    691      9     0.00   1.25520   3 ;   C110-   C19-   C18-   C17
   683    682    685    686      9     0.00   0.62760   3 ;   H10R-  C110-   C19-   H9R
   683    682    685    687      9     0.00   0.62760   3 ;   H10R-  C110-   C19-   H9S
   683    682    685    688      9     0.00   0.66944   3 ;   H10R-  C110-   C19-   C18
   684    682    685    686      9     0.00   0.62760   3 ;   H10S-  C110-   C19-   H9R
   684    682    685    687      9     0.00   0.62760   3 ;   H10S-  C110-   C19-   H9S
   684    682    685    688      9     0.00   0.66944   3 ;   H10S-  C110-   C19-   C18
   685    688    691    692      9     0.00   0.66944   3 ;    C19-   C18-   C17-   H7R
   685    688    691    693      9     0.00   0.66944   3 ;    C19-   C18-   C17-   H7S
   685    688    691    694      9     0.00   0.41840   1 ;    C19-   C18-   C17-   C16
   685    688    691    694      9     0.00   0.41840   2 ;    C19-   C18-   C17-   C16
   685    688    691    694      9     0.00   0.41840   4 ;    C19-   C18-   C17-   C16
   685    688    691    694      9     0.00   0.41840   5 ;    C19-   C18-   C17-   C16
   685    688    691    694      9     0.00   1.25520   3 ;    C19-   C18-   C17-   C16
   686    685    688    689      9     0.00   0.62760   3 ;    H9R-   C19-   C18-   H8R
   686    685    688    690      9     0.00   0.62760   3 ;    H9R-   C19-   C18-   H8S
   686    685    688    691      9     0.00   0.66944   3 ;    H9R-   C19-   C18-   C17
   687    685    688    689      9     0.00   0.62760   3 ;    H9S-   C19-   C18-   H8R
   687    685    688    690      9     0.00   0.62760   3 ;    H9S-   C19-   C18-   H8S
   687    685    688    691      9     0.00   0.66944   3 ;    H9S-   C19-   C18-   C17
   688    691    694    695      9     0.00   0.66944   3 ;    C18-   C17-   C16-   H6R
   688    691    694    696      9     0.00   0.66944   3 ;    C18-   C17-   C16-   H6S
   688    691    694    697      9     0.00   0.41840   1 ;    C18-   C17-   C16-   C15
   688    691    694    697      9     0.00   0.41840   2 ;    C18-   C17-   C16-   C15
   688    691    694    697      9     0.00   0.41840   4 ;    C18-   C17-   C16-   C15
   688    691    694    697      9     0.00   0.41840   5 ;    C18-   C17-   C16-   C15
   688    691    694    697      9     0.00   1.25520   3 ;    C18-   C17-   C16-   C15
   689    688    691    692      9     0.00   0.62760   3 ;    H8R-   C18-   C17-   H7R
   689    688    691    693      9     0.00   0.62760   3 ;    H8R-   C18-   C17-   H7S
   689    688    691    694      9     0.00   0.66944   3 ;    H8R-   C18-   C17-   C16
   690    688    691    692      9     0.00   0.62760   3 ;    H8S-   C18-   C17-   H7R
   690    688    691    693      9     0.00   0.62760   3 ;    H8S-   C18-   C17-   H7S
   690    688    691    694      9     0.00   0.66944   3 ;    H8S-   C18-   C17-   C16
   691    694    697    698      9     0.00   0.66944   3 ;    C17-   C16-   C15-   H5R
   691    694    697    699      9     0.00   0.66944   3 ;    C17-   C16-   C15-   H5S
   691    694    697    700      9     0.00   0.41840   1 ;    C17-   C16-   C15-   C14
   691    694    697    700      9     0.00   0.41840   2 ;    C17-   C16-   C15-   C14
   691    694    697    700      9     0.00   0.41840   4 ;    C17-   C16-   C15-   C14
   691    694    697    700      9     0.00   0.41840   5 ;    C17-   C16-   C15-   C14
   691    694    697    700      9     0.00   1.25520   3 ;    C17-   C16-   C15-   C14
   692    691    694    695      9     0.00   0.62760   3 ;    H7R-   C17-   C16-   H6R
   692    691    694    696      9     0.00   0.62760   3 ;    H7R-   C17-   C16-   H6S
   692    691    694    697      9     0.00   0.66944   3 ;    H7R-   C17-   C16-   C15
   693    691    694    695      9     0.00   0.62760   3 ;    H7S-   C17-   C16-   H6R
   693    691    694    696      9     0.00   0.62760   3 ;    H7S-   C17-   C16-   H6S
   693    691    694    697      9     0.00   0.66944   3 ;    H7S-   C17-   C16-   C15
   694    697    700    701      9     0.00   0.66944   3 ;    C16-   C15-   C14-   H4R
   694    697    700    702      9     0.00   0.66944   3 ;    C16-   C15-   C14-   H4S
   694    697    700    703      9     0.00   0.41840   1 ;    C16-   C15-   C14-   C13
   694    697    700    703      9     0.00   0.41840   2 ;    C16-   C15-   C14-   C13
   694    697    700    703      9     0.00   0.41840   4 ;    C16-   C15-   C14-   C13
   694    697    700    703      9     0.00   0.41840   5 ;    C16-   C15-   C14-   C13
   694    697    700    703      9     0.00   1.25520   3 ;    C16-   C15-   C14-   C13
   695    694    697    698      9     0.00   0.62760   3 ;    H6R-   C16-   C15-   H5R
   695    694    697    699      9     0.00   0.62760   3 ;    H6R-   C16-   C15-   H5S
   695    694    697    700      9     0.00   0.66944   3 ;    H6R-   C16-   C15-   C14
   696    694    697    698      9     0.00   0.62760   3 ;    H6S-   C16-   C15-   H5R
   696    694    697    699      9     0.00   0.62760   3 ;    H6S-   C16-   C15-   H5S
   696    694    697    700      9     0.00   0.66944   3 ;    H6S-   C16-   C15-   C14
   697    700    703    704      9     0.00   0.66944   3 ;    C15-   C14-   C13-   H3R
   697    700    703    705      9     0.00   0.66944   3 ;    C15-   C14-   C13-   H3S
   697    700    703    706      9     0.00   0.41840   1 ;    C15-   C14-   C13-   C12
   697    700    703    706      9     0.00   0.41840   2 ;    C15-   C14-   C13-   C12
   697    700    703    706      9     0.00   0.41840   4 ;    C15-   C14-   C13-   C12
   697    700    703    706      9     0.00   0.41840   5 ;    C15-   C14-   C13-   C12
   697    700    703    706      9     0.00   1.25520   3 ;    C15-   C14-   C13-   C12
   698    697    700    701      9     0.00   0.62760   3 ;    H5R-   C15-   C14-   H4R
   698    697    700    702      9     0.00   0.62760   3 ;    H5R-   C15-   C14-   H4S
   698    697    700    703      9     0.00   0.66944   3 ;    H5R-   C15-   C14-   C13
   699    697    700    701      9     0.00   0.62760   3 ;    H5S-   C15-   C14-   H4R
   699    697    700    702      9     0.00   0.62760   3 ;    H5S-   C15-   C14-   H4S
   699    697    700    703      9     0.00   0.66944   3 ;    H5S-   C15-   C14-   C13
   700    703    706    707      9     0.00   0.66944   3 ;    C14-   C13-   C12-   H2R
   700    703    706    708      9     0.00   0.66944   3 ;    C14-   C13-   C12-   H2S
   701    700    703    704      9     0.00   0.62760   3 ;    H4R-   C14-   C13-   H3R
   701    700    703    705      9     0.00   0.62760   3 ;    H4R-   C14-   C13-   H3S
   701    700    703    706      9     0.00   0.66944   3 ;    H4R-   C14-   C13-   C12
   702    700    703    704      9     0.00   0.62760   3 ;    H4S-   C14-   C13-   H3R
   702    700    703    705      9     0.00   0.62760   3 ;    H4S-   C14-   C13-   H3S
   702    700    703    706      9     0.00   0.66944   3 ;    H4S-   C14-   C13-   C12
   704    703    706    707      9     0.00   0.62760   3 ;    H3R-   C13-   C12-   H2R
   704    703    706    708      9     0.00   0.62760   3 ;    H3R-   C13-   C12-   H2S
   705    703    706    707      9     0.00   0.62760   3 ;    H3S-   C13-   C12-   H2R
   705    703    706    708      9     0.00   0.62760   3 ;    H3S-   C13-   C12-   H2S
   709    710    713    714      9     0.00   0.62760   3 ;   H14T-  C114-  C113-  H13R
   709    710    713    715      9     0.00   0.62760   3 ;   H14T-  C114-  C113-  H13S
   709    710    713    716      9     0.00   0.66944   3 ;   H14T-  C114-  C113-  C112
   710    713    716    717      9     0.00   0.66944   3 ;   C114-  C113-  C112-  H12R
   710    713    716    718      9     0.00   0.66944   3 ;   C114-  C113-  C112-  H12S
   710    713    716    719      9     0.00   0.41840   1 ;   C114-  C113-  C112-  C111
   710    713    716    719      9     0.00   0.41840   2 ;   C114-  C113-  C112-  C111
   710    713    716    719      9     0.00   0.41840   4 ;   C114-  C113-  C112-  C111
   710    713    716    719      9     0.00   0.41840   5 ;   C114-  C113-  C112-  C111
   710    713    716    719      9     0.00   1.25520   3 ;   C114-  C113-  C112-  C111
   711    710    713    714      9     0.00   0.62760   3 ;   H14R-  C114-  C113-  H13R
   711    710    713    715      9     0.00   0.62760   3 ;   H14R-  C114-  C113-  H13S
   711    710    713    716      9     0.00   0.66944   3 ;   H14R-  C114-  C113-  C112
   712    710    713    714      9     0.00   0.62760   3 ;   H14S-  C114-  C113-  H13R
   712    710    713    715      9     0.00   0.62760   3 ;   H14S-  C114-  C113-  H13S
   712    710    713    716      9     0.00   0.66944   3 ;   H14S-  C114-  C113-  C112
   713    716    719    720      9     0.00   0.66944   3 ;   C113-  C112-  C111-  H11R
   713    716    719    721      9     0.00   0.66944   3 ;   C113-  C112-  C111-  H11S
   713    716    719    722      9     0.00   0.41840   1 ;   C113-  C112-  C111-  C110
   713    716    719    722      9     0.00   0.41840   2 ;   C113-  C112-  C111-  C110
   713    716    719    722      9     0.00   0.41840   4 ;   C113-  C112-  C111-  C110
   713    716    719    722      9     0.00   0.41840   5 ;   C113-  C112-  C111-  C110
   713    716    719    722      9     0.00   1.25520   3 ;   C113-  C112-  C111-  C110
   714    713    716    717      9     0.00   0.62760   3 ;   H13R-  C113-  C112-  H12R
   714    713    716    718      9     0.00   0.62760   3 ;   H13R-  C113-  C112-  H12S
   714    713    716    719      9     0.00   0.66944   3 ;   H13R-  C113-  C112-  C111
   715    713    716    717      9     0.00   0.62760   3 ;   H13S-  C113-  C112-  H12R
   715    713    716    718      9     0.00   0.62760   3 ;   H13S-  C113-  C112-  H12S
   715    713    716    719      9     0.00   0.66944   3 ;   H13S-  C113-  C112-  C111
   716    719    722    723      9     0.00   0.66944   3 ;   C112-  C111-  C110-  H10R
   716    719    722    724      9     0.00   0.66944   3 ;   C112-  C111-  C110-  H10S
   716    719    722    725      9     0.00   0.41840   1 ;   C112-  C111-  C110-   C19
   716    719    722    725      9     0.00   0.41840   2 ;   C112-  C111-  C110-   C19
   716    719    722    725      9     0.00   0.41840   4 ;   C112-  C111-  C110-   C19
   716    719    722    725      9     0.00   0.41840   5 ;   C112-  C111-  C110-   C19
   716    719    722    725      9     0.00   1.25520   3 ;   C112-  C111-  C110-   C19
   717    716    719    720      9     0.00   0.62760   3 ;   H12R-  C112-  C111-  H11R
   717    716    719    721      9     0.00   0.62760   3 ;   H12R-  C112-  C111-  H11S
   717    716    719    722      9     0.00   0.66944   3 ;   H12R-  C112-  C111-  C110
   718    716    719    720      9     0.00   0.62760   3 ;   H12S-  C112-  C111-  H11R
   718    716    719    721      9     0.00   0.62760   3 ;   H12S-  C112-  C111-  H11S
   718    716    719    722      9     0.00   0.66944   3 ;   H12S-  C112-  C111-  C110
   719    722    725    726      9     0.00   0.66944   3 ;   C111-  C110-   C19-   H9R
   719    722    725    727      9     0.00   0.66944   3 ;   C111-  C110-   C19-   H9S
   719    722    725    728      9     0.00   0.41840   1 ;   C111-  C110-   C19-   C18
   719    722    725    728      9     0.00   0.41840   2 ;   C111-  C110-   C19-   C18
   719    722    725    728      9     0.00   0.41840   4 ;   C111-  C110-   C19-   C18
   719    722    725    728      9     0.00   0.41840   5 ;   C111-  C110-   C19-   C18
   719    722    725    728      9     0.00   1.25520   3 ;   C111-  C110-   C19-   C18
   720    719    722    723      9     0.00   0.62760   3 ;   H11R-  C111-  C110-  H10R
   720    719    722    724      9     0.00   0.62760   3 ;   H11R-  C111-  C110-  H10S
   720    719    722    725      9     0.00   0.66944   3 ;   H11R-  C111-  C110-   C19
   721    719    722    723      9     0.00   0.62760   3 ;   H11S-  C111-  C110-  H10R
   721    719    722    724      9     0.00   0.62760   3 ;   H11S-  C111-  C110-  H10S
   721    719    722    725      9     0.00   0.66944   3 ;   H11S-  C111-  C110-   C19
   722    725    728    729      9     0.00   0.66944   3 ;   C110-   C19-   C18-   H8R
   722    725    728    730      9     0.00   0.66944   3 ;   C110-   C19-   C18-   H8S
   722    725    728    731      9     0.00   0.41840   1 ;   C110-   C19-   C18-   C17
   722    725    728    731      9     0.00   0.41840   2 ;   C110-   C19-   C18-   C17
   722    725    728    731      9     0.00   0.41840   4 ;   C110-   C19-   C18-   C17
   722    725    728    731      9     0.00   0.41840   5 ;   C110-   C19-   C18-   C17
   722    725    728    731      9     0.00   1.25520   3 ;   C110-   C19-   C18-   C17
   723    722    725    726      9     0.00   0.62760   3 ;   H10R-  C110-   C19-   H9R
   723    722    725    727      9     0.00   0.62760   3 ;   H10R-  C110-   C19-   H9S
   723    722    725    728      9     0.00   0.66944   3 ;   H10R-  C110-   C19-   C18
   724    722    725    726      9     0.00   0.62760   3 ;   H10S-  C110-   C19-   H9R
   724    722    725    727      9     0.00   0.62760   3 ;   H10S-  C110-   C19-   H9S
   724    722    725    728      9     0.00   0.66944   3 ;   H10S-  C110-   C19-   C18
   725    728    731    732      9     0.00   0.66944   3 ;    C19-   C18-   C17-   H7R
   725    728    731    733      9     0.00   0.66944   3 ;    C19-   C18-   C17-   H7S
   725    728    731    734      9     0.00   0.41840   1 ;    C19-   C18-   C17-   C16
   725    728    731    734      9     0.00   0.41840   2 ;    C19-   C18-   C17-   C16
   725    728    731    734      9     0.00   0.41840   4 ;    C19-   C18-   C17-   C16
   725    728    731    734      9     0.00   0.41840   5 ;    C19-   C18-   C17-   C16
   725    728    731    734      9     0.00   1.25520   3 ;    C19-   C18-   C17-   C16
   726    725    728    729      9     0.00   0.62760   3 ;    H9R-   C19-   C18-   H8R
   726    725    728    730      9     0.00   0.62760   3 ;    H9R-   C19-   C18-   H8S
   726    725    728    731      9     0.00   0.66944   3 ;    H9R-   C19-   C18-   C17
   727    725    728    729      9     0.00   0.62760   3 ;    H9S-   C19-   C18-   H8R
   727    725    728    730      9     0.00   0.62760   3 ;    H9S-   C19-   C18-   H8S
   727    725    728    731      9     0.00   0.66944   3 ;    H9S-   C19-   C18-   C17
   728    731    734    735      9     0.00   0.66944   3 ;    C18-   C17-   C16-   H6R
   728    731    734    736      9     0.00   0.66944   3 ;    C18-   C17-   C16-   H6S
   728    731    734    737      9     0.00   0.41840   1 ;    C18-   C17-   C16-   C15
   728    731    734    737      9     0.00   0.41840   2 ;    C18-   C17-   C16-   C15
   728    731    734    737      9     0.00   0.41840   4 ;    C18-   C17-   C16-   C15
   728    731    734    737      9     0.00   0.41840   5 ;    C18-   C17-   C16-   C15
   728    731    734    737      9     0.00   1.25520   3 ;    C18-   C17-   C16-   C15
   729    728    731    732      9     0.00   0.62760   3 ;    H8R-   C18-   C17-   H7R
   729    728    731    733      9     0.00   0.62760   3 ;    H8R-   C18-   C17-   H7S
   729    728    731    734      9     0.00   0.66944   3 ;    H8R-   C18-   C17-   C16
   730    728    731    732      9     0.00   0.62760   3 ;    H8S-   C18-   C17-   H7R
   730    728    731    733      9     0.00   0.62760   3 ;    H8S-   C18-   C17-   H7S
   730    728    731    734      9     0.00   0.66944   3 ;    H8S-   C18-   C17-   C16
   731    734    737    738      9     0.00   0.66944   3 ;    C17-   C16-   C15-   H5R
   731    734    737    739      9     0.00   0.66944   3 ;    C17-   C16-   C15-   H5S
   731    734    737    740      9     0.00   0.41840   1 ;    C17-   C16-   C15-   C14
   731    734    737    740      9     0.00   0.41840   2 ;    C17-   C16-   C15-   C14
   731    734    737    740      9     0.00   0.41840   4 ;    C17-   C16-   C15-   C14
   731    734    737    740      9     0.00   0.41840   5 ;    C17-   C16-   C15-   C14
   731    734    737    740      9     0.00   1.25520   3 ;    C17-   C16-   C15-   C14
   732    731    734    735      9     0.00   0.62760   3 ;    H7R-   C17-   C16-   H6R
   732    731    734    736      9     0.00   0.62760   3 ;    H7R-   C17-   C16-   H6S
   732    731    734    737      9     0.00   0.66944   3 ;    H7R-   C17-   C16-   C15
   733    731    734    735      9     0.00   0.62760   3 ;    H7S-   C17-   C16-   H6R
   733    731    734    736      9     0.00   0.62760   3 ;    H7S-   C17-   C16-   H6S
   733    731    734    737      9     0.00   0.66944   3 ;    H7S-   C17-   C16-   C15
   734    737    740    741      9     0.00   0.66944   3 ;    C16-   C15-   C14-   H4R
   734    737    740    742      9     0.00   0.66944   3 ;    C16-   C15-   C14-   H4S
   734    737    740    743      9     0.00   0.41840   1 ;    C16-   C15-   C14-   C13
   734    737    740    743      9     0.00   0.41840   2 ;    C16-   C15-   C14-   C13
   734    737    740    743      9     0.00   0.41840   4 ;    C16-   C15-   C14-   C13
   734    737    740    743      9     0.00   0.41840   5 ;    C16-   C15-   C14-   C13
   734    737    740    743      9     0.00   1.25520   3 ;    C16-   C15-   C14-   C13
   735    734    737    738      9     0.00   0.62760   3 ;    H6R-   C16-   C15-   H5R
   735    734    737    739      9     0.00   0.62760   3 ;    H6R-   C16-   C15-   H5S
   735    734    737    740      9     0.00   0.66944   3 ;    H6R-   C16-   C15-   C14
   736    734    737    738      9     0.00   0.62760   3 ;    H6S-   C16-   C15-   H5R
   736    734    737    739      9     0.00   0.62760   3 ;    H6S-   C16-   C15-   H5S
   736    734    737    740      9     0.00   0.66944   3 ;    H6S-   C16-   C15-   C14
   737    740    743    744      9     0.00   0.66944   3 ;    C15-   C14-   C13-   H3R
   737    740    743    745      9     0.00   0.66944   3 ;    C15-   C14-   C13-   H3S
   737    740    743    746      9     0.00   0.41840   1 ;    C15-   C14-   C13-   C12
   737    740    743    746      9     0.00   0.41840   2 ;    C15-   C14-   C13-   C12
   737    740    743    746      9     0.00   0.41840   4 ;    C15-   C14-   C13-   C12
   737    740    743    746      9     0.00   0.41840   5 ;    C15-   C14-   C13-   C12
   737    740    743    746      9     0.00   1.25520   3 ;    C15-   C14-   C13-   C12
   738    737    740    741      9     0.00   0.62760   3 ;    H5R-   C15-   C14-   H4R
   738    737    740    742      9     0.00   0.62760   3 ;    H5R-   C15-   C14-   H4S
   738    737    740    743      9     0.00   0.66944   3 ;    H5R-   C15-   C14-   C13
   739    737    740    741      9     0.00   0.62760   3 ;    H5S-   C15-   C14-   H4R
   739    737    740    742      9     0.00   0.62760   3 ;    H5S-   C15-   C14-   H4S
   739    737    740    743      9     0.00   0.66944   3 ;    H5S-   C15-   C14-   C13
   740    743    746    747      9     0.00   0.66944   3 ;    C14-   C13-   C12-   H2R
   740    743    746    748      9     0.00   0.66944   3 ;    C14-   C13-   C12-   H2S
   740    743    746    749      9     0.00   0.65270   3 ;    C14-   C13-   C12-   C11
   741    740    743    744      9     0.00   0.62760   3 ;    H4R-   C14-   C13-   H3R
   741    740    743    745      9     0.00   0.62760   3 ;    H4R-   C14-   C13-   H3S
   741    740    743    746      9     0.00   0.66944   3 ;    H4R-   C14-   C13-   C12
   742    740    743    744      9     0.00   0.62760   3 ;    H4S-   C14-   C13-   H3R
   742    740    743    745      9     0.00   0.62760   3 ;    H4S-   C14-   C13-   H3S
   742    740    743    746      9     0.00   0.66944   3 ;    H4S-   C14-   C13-   C12
   743    746    749    750      9   180.00   0.00000   2 ;    C13-   C12-   C11-   O12
   743    746    749    751      9   180.00   0.00000   2 ;    C13-   C12-   C11-   O11
   744    743    746    747      9     0.00   0.62760   3 ;    H3R-   C13-   C12-   H2R
   744    743    746    748      9     0.00   0.62760   3 ;    H3R-   C13-   C12-   H2S
   744    743    746    749      9     0.00   0.65270   3 ;    H3R-   C13-   C12-   C11
   745    743    746    747      9     0.00   0.62760   3 ;    H3S-   C13-   C12-   H2R
   745    743    746    748      9     0.00   0.62760   3 ;    H3S-   C13-   C12-   H2S
   745    743    746    749      9     0.00   0.65270   3 ;    H3S-   C13-   C12-   C11
   746    749    751    752      9   180.00  11.29680   2 ;    C12-   C11-   O11-    C1
   747    746    749    750      9     0.00   3.34720   1 ;    H2R-   C12-   C11-   O12
   747    746    749    750      9   180.00   0.33472   3 ;    H2R-   C12-   C11-   O12
   747    746    749    751      9   180.00   0.00000   2 ;    H2R-   C12-   C11-   O11
   748    746    749    750      9     0.00   3.34720   1 ;    H2S-   C12-   C11-   O12
   748    746    749    750      9   180.00   0.33472   3 ;    H2S-   C12-   C11-   O12
   748    746    749    751      9   180.00   0.00000   2 ;    H2S-   C12-   C11-   O11
   749    751    752    753      9     0.00   1.60247   3 ;    C11-   O11-    C1-    HR
   749    751    752    754      9     0.00   1.60247   3 ;    C11-   O11-    C1-    HS
   749    751    752    755      9     0.00  -0.41840   1 ;    C11-   O11-    C1-    C2
   750    749    751    752      9   180.00   5.85760   1 ;    O12-   C11-   O11-    C1
   750    749    751    752      9   180.00  11.29680   2 ;    O12-   C11-   O11-    C1
   751    752    755    756      9     0.00   0.00000   0 ;    O11-    C1-    C2-    HX
   751    752    755    756      9     0.00   1.04600   1 ;    O11-    C1-    C2-    HX
   751    752    755    757      9     0.00   0.00000   0 ;    O11-    C1-    C2-    C3
   751    752    755    757      9     0.00   0.00000   0 ;    O11-    C1-    C2-    C3
   751    752    755    757      9     0.00   0.00000   0 ;    O11-    C1-    C2-    C3
   751    752    755    757      9     0.00   0.00000   0 ;    O11-    C1-    C2-    C3
   751    752    755    757      9     0.00   0.00000   0 ;    O11-    C1-    C2-    C3
   751    752    755    784      9     0.00   1.25520   2 ;    O11-    C1-    C2-   O21
   751    752    755    784      9     0.00   4.18400   3 ;    O11-    C1-    C2-   O21
   751    752    755    784      9   180.00  -0.41840   1 ;    O11-    C1-    C2-   O21
   752    755    757    758      9     0.00   0.65270   3 ;     C1-    C2-    C3-    HA
   752    755    757    759      9     0.00   0.65270   3 ;     C1-    C2-    C3-    HB
   752    755    757    760      9   180.00   3.34720   1 ;     C1-    C2-    C3-   O31
   752    755    784    785      9     0.00  -0.41840   1 ;     C1-    C2-   O21-   C21
   753    752    755    756      9     0.00   0.65270   3 ;     HR-    C1-    C2-    HX
   753    752    755    757      9     0.00   0.65270   3 ;     HR-    C1-    C2-    C3
   753    752    755    784      9     0.00   0.00000   0 ;     HR-    C1-    C2-   O21
   753    752    755    784      9     0.00   1.04600   1 ;     HR-    C1-    C2-   O21
   754    752    755    756      9     0.00   0.65270   3 ;     HS-    C1-    C2-    HX
   754    752    755    757      9     0.00   0.65270   3 ;     HS-    C1-    C2-    C3
   754    752    755    784      9     0.00   0.00000   0 ;     HS-    C1-    C2-   O21
   754    752    755    784      9     0.00   1.04600   1 ;     HS-    C1-    C2-   O21
   755    757    760    761      9     0.00   0.00000   0 ;     C2-    C3-   O31-   P31
   755    757    760    761      9   180.00  -3.34720   2 ;     C2-    C3-   O31-   P31
   755    784    785    786      9   180.00   5.85760   1 ;     C2-   O21-   C21-   O22
   755    784    785    786      9   180.00  11.29680   2 ;     C2-   O21-   C21-   O22
   755    784    785    824      9   180.00  11.29680   2 ;     C2-   O21-   C21-   C12
   756    755    757    758      9     0.00   0.65270   3 ;     HX-    C2-    C3-    HA
   756    755    757    759      9     0.00   0.65270   3 ;     HX-    C2-    C3-    HB
   756    755    757    760      9     0.00   0.00000   0 ;     HX-    C2-    C3-   O31
   756    755    757    760      9     0.00   1.04600   1 ;     HX-    C2-    C3-   O31
   756    755    784    785      9     0.00   1.60247   3 ;     HX-    C2-   O21-   C21
   757    755    784    785      9     0.00  -0.41840   1 ;     C3-    C2-   O21-   C21
   757    760    761    762      9     0.00   2.51040   3 ;     C3-   O31-   P31-   O32
   757    760    761    762      9     0.00   9.62320   2 ;     C3-   O31-   P31-   O32
   757    760    761    782      9     0.00   0.00000   0 ;     C3-   O31-   P31-   O33
   757    760    761    782      9     0.00   0.00000   0 ;     C3-   O31-   P31-   O33
   757    760    761    782      9     0.00   0.00000   0 ;     C3-   O31-   P31-   O33
   757    760    761    782      9     0.00   0.00000   0 ;     C3-   O31-   P31-   O33
   757    760    761    782      9     0.00   0.83680   2 ;     C3-   O31-   P31-   O33
   757    760    761    783      9     0.00   0.00000   0 ;     C3-   O31-   P31-   O34
   757    760    761    783      9     0.00   0.00000   0 ;     C3-   O31-   P31-   O34
   757    760    761    783      9     0.00   0.00000   0 ;     C3-   O31-   P31-   O34
   757    760    761    783      9     0.00   0.00000   0 ;     C3-   O31-   P31-   O34
   757    760    761    783      9     0.00   0.83680   2 ;     C3-   O31-   P31-   O34
   758    757    755    784      9     0.00   0.00000   0 ;     HA-    C3-    C2-   O21
   758    757    755    784      9     0.00   1.04600   1 ;     HA-    C3-    C2-   O21
   758    757    760    761      9     0.00   0.00000   0 ;     HA-    C3-   O31-   P31
   758    757    760    761      9     0.00   0.00000   0 ;     HA-    C3-   O31-   P31
   758    757    760    761      9     0.00   0.00000   0 ;     HA-    C3-   O31-   P31
   758    757    760    761      9     0.00   0.00000   0 ;     HA-    C3-   O31-   P31
   758    757    760    761      9     0.00   1.60247   3 ;     HA-    C3-   O31-   P31
   759    757    755    784      9     0.00   0.00000   0 ;     HB-    C3-    C2-   O21
   759    757    755    784      9     0.00   1.04600   1 ;     HB-    C3-    C2-   O21
   759    757    760    761      9     0.00   0.00000   0 ;     HB-    C3-   O31-   P31
   759    757    760    761      9     0.00   0.00000   0 ;     HB-    C3-   O31-   P31
   759    757    760    761      9     0.00   0.00000   0 ;     HB-    C3-   O31-   P31
   759    757    760    761      9     0.00   0.00000   0 ;     HB-    C3-   O31-   P31
   759    757    760    761      9     0.00   1.60247   3 ;     HB-    C3-   O31-   P31
   760    757    755    784      9     0.00   0.00000   0 ;    O31-    C3-    C2-   O21
   760    757    755    784      9     0.00   0.00000   0 ;    O31-    C3-    C2-   O21
   760    757    755    784      9     0.00   0.00000   0 ;    O31-    C3-    C2-   O21
   760    757    755    784      9     0.00   0.00000   0 ;    O31-    C3-    C2-   O21
   760    757    755    784      9     0.00   0.00000   0 ;    O31-    C3-    C2-   O21
   760    761    762    763      9     0.00   2.51040   3 ;    O31-   P31-   O32-   C31
   760    761    762    763      9     0.00   9.62320   2 ;    O31-   P31-   O32-   C31
   761    762    763    764      9     0.00   0.00000   0 ;    P31-   O32-   C31-   H1A
   761    762    763    764      9     0.00   0.00000   0 ;    P31-   O32-   C31-   H1A
   761    762    763    764      9     0.00   0.00000   0 ;    P31-   O32-   C31-   H1A
   761    762    763    764      9     0.00   0.00000   0 ;    P31-   O32-   C31-   H1A
   761    762    763    764      9     0.00   1.60247   3 ;    P31-   O32-   C31-   H1A
   761    762    763    765      9     0.00   0.00000   0 ;    P31-   O32-   C31-   H1B
   761    762    763    765      9     0.00   0.00000   0 ;    P31-   O32-   C31-   H1B
   761    762    763    765      9     0.00   0.00000   0 ;    P31-   O32-   C31-   H1B
   761    762    763    765      9     0.00   0.00000   0 ;    P31-   O32-   C31-   H1B
   761    762    763    765      9     0.00   1.60247   3 ;    P31-   O32-   C31-   H1B
   761    762    763    766      9     0.00   0.00000   0 ;    P31-   O32-   C31-   C32
   761    762    763    766      9   180.00  -3.34720   2 ;    P31-   O32-   C31-   C32
   762    763    766    767      9     0.00   0.65270   3 ;    O32-   C31-   C32-   H2A
   762    763    766    768      9     0.00   0.65270   3 ;    O32-   C31-   C32-   H2B
   762    763    766    769      9     0.00   4.18400   3 ;    O32-   C31-   C32-   N31
   763    762    761    782      9     0.00   0.00000   0 ;    C31-   O32-   P31-   O33
   763    762    761    782      9     0.00   0.00000   0 ;    C31-   O32-   P31-   O33
   763    762    761    782      9     0.00   0.00000   0 ;    C31-   O32-   P31-   O33
   763    762    761    782      9     0.00   0.00000   0 ;    C31-   O32-   P31-   O33
   763    762    761    782      9     0.00   0.83680   2 ;    C31-   O32-   P31-   O33
   763    762    761    783      9     0.00   0.00000   0 ;    C31-   O32-   P31-   O34
   763    762    761    783      9     0.00   0.00000   0 ;    C31-   O32-   P31-   O34
   763    762    761    783      9     0.00   0.00000   0 ;    C31-   O32-   P31-   O34
   763    762    761    783      9     0.00   0.00000   0 ;    C31-   O32-   P31-   O34
   763    762    761    783      9     0.00   0.83680   2 ;    C31-   O32-   P31-   O34
   763    766    769    770      9     0.00   0.65270   3 ;    C31-   C32-   N31-   C33
   763    766    769    774      9     0.00   0.65270   3 ;    C31-   C32-   N31-   C34
   763    766    769    778      9     0.00   0.65270   3 ;    C31-   C32-   N31-   C35
   764    763    766    767      9     0.00   0.65270   3 ;    H1A-   C31-   C32-   H2A
   764    763    766    768      9     0.00   0.65270   3 ;    H1A-   C31-   C32-   H2B
   764    763    766    769      9     0.00   0.65270   3 ;    H1A-   C31-   C32-   N31
   765    763    766    767      9     0.00   0.65270   3 ;    H1B-   C31-   C32-   H2A
   765    763    766    768      9     0.00   0.65270   3 ;    H1B-   C31-   C32-   H2B
   765    763    766    769      9     0.00   0.65270   3 ;    H1B-   C31-   C32-   N31
   766    769    770    771      9     0.00   0.65270   3 ;    C32-   N31-   C33-   H3A
   766    769    770    772      9     0.00   0.65270   3 ;    C32-   N31-   C33-   H3B
   766    769    770    773      9     0.00   0.65270   3 ;    C32-   N31-   C33-   H3C
   766    769    774    775      9     0.00   0.65270   3 ;    C32-   N31-   C34-   H4A
   766    769    774    776      9     0.00   0.65270   3 ;    C32-   N31-   C34-   H4B
   766    769    774    777      9     0.00   0.65270   3 ;    C32-   N31-   C34-   H4C
   766    769    778    779      9     0.00   0.65270   3 ;    C32-   N31-   C35-   H5A
   766    769    778    780      9     0.00   0.65270   3 ;    C32-   N31-   C35-   H5B
   766    769    778    781      9     0.00   0.65270   3 ;    C32-   N31-   C35-   H5C
   767    766    769    770      9     0.00   0.65270   3 ;    H2A-   C32-   N31-   C33
   767    766    769    774      9     0.00   0.65270   3 ;    H2A-   C32-   N31-   C34
   767    766    769    778      9     0.00   0.65270   3 ;    H2A-   C32-   N31-   C35
   768    766    769    770      9     0.00   0.65270   3 ;    H2B-   C32-   N31-   C33
   768    766    769    774      9     0.00   0.65270   3 ;    H2B-   C32-   N31-   C34
   768    766    769    778      9     0.00   0.65270   3 ;    H2B-   C32-   N31-   C35
   770    769    774    775      9     0.00   0.65270   3 ;    C33-   N31-   C34-   H4A
   770    769    774    776      9     0.00   0.65270   3 ;    C33-   N31-   C34-   H4B
   770    769    774    777      9     0.00   0.65270   3 ;    C33-   N31-   C34-   H4C
   770    769    778    779      9     0.00   0.65270   3 ;    C33-   N31-   C35-   H5A
   770    769    778    780      9     0.00   0.65270   3 ;    C33-   N31-   C35-   H5B
   770    769    778    781      9     0.00   0.65270   3 ;    C33-   N31-   C35-   H5C
   771    770    769    774      9     0.00   0.65270   3 ;    H3A-   C33-   N31-   C34
   771    770    769    778      9     0.00   0.65270   3 ;    H3A-   C33-   N31-   C35
   772    770    769    774      9     0.00   0.65270   3 ;    H3B-   C33-   N31-   C34
   772    770    769    778      9     0.00   0.65270   3 ;    H3B-   C33-   N31-   C35
   773    770    769    774      9     0.00   0.65270   3 ;    H3C-   C33-   N31-   C34
   773    770    769    778      9     0.00   0.65270   3 ;    H3C-   C33-   N31-   C35
   774    769    778    779      9     0.00   0.65270   3 ;    C34-   N31-   C35-   H5A
   774    769    778    780      9     0.00   0.65270   3 ;    C34-   N31-   C35-   H5B
   774    769    778    781      9     0.00   0.65270   3 ;    C34-   N31-   C35-   H5C
   775    774    769    778      9     0.00   0.65270   3 ;    H4A-   C34-   N31-   C35
   776    774    769    778      9     0.00   0.65270   3 ;    H4B-   C34-   N31-   C35
   777    774    769    778      9     0.00   0.65270   3 ;    H4C-   C34-   N31-   C35
   784    785    824    821      9   180.00   0.00000   2 ;    O21-   C21-   C12-   C13
   784    785    824    825      9   180.00   0.00000   2 ;    O21-   C21-   C12-   H2R
   784    785    824    826      9   180.00   0.00000   2 ;    O21-   C21-   C12-   H2S
   785    824    821    818      9     0.00   0.65270   3 ;    C21-   C12-   C13-   C14
   785    824    821    822      9     0.00   0.65270   3 ;    C21-   C12-   C13-   H3R
   785    824    821    823      9     0.00   0.65270   3 ;    C21-   C12-   C13-   H3S
   786    785    824    821      9   180.00   0.00000   2 ;    O22-   C21-   C12-   C13
   786    785    824    825      9     0.00   3.34720   1 ;    O22-   C21-   C12-   H2R
   786    785    824    825      9   180.00   0.33472   3 ;    O22-   C21-   C12-   H2R
   786    785    824    826      9     0.00   3.34720   1 ;    O22-   C21-   C12-   H2S
   786    785    824    826      9   180.00   0.33472   3 ;    O22-   C21-   C12-   H2S
   787    788    791    792      9     0.00   0.62760   3 ;   H14T-  C114-  C113-  H13R
   787    788    791    793      9     0.00   0.62760   3 ;   H14T-  C114-  C113-  H13S
   787    788    791    794      9     0.00   0.66944   3 ;   H14T-  C114-  C113-  C112
   788    791    794    795      9     0.00   0.66944   3 ;   C114-  C113-  C112-  H12R
   788    791    794    796      9     0.00   0.66944   3 ;   C114-  C113-  C112-  H12S
   788    791    794    797      9     0.00   0.41840   1 ;   C114-  C113-  C112-  C111
   788    791    794    797      9     0.00   0.41840   2 ;   C114-  C113-  C112-  C111
   788    791    794    797      9     0.00   0.41840   4 ;   C114-  C113-  C112-  C111
   788    791    794    797      9     0.00   0.41840   5 ;   C114-  C113-  C112-  C111
   788    791    794    797      9     0.00   1.25520   3 ;   C114-  C113-  C112-  C111
   789    788    791    792      9     0.00   0.62760   3 ;   H14R-  C114-  C113-  H13R
   789    788    791    793      9     0.00   0.62760   3 ;   H14R-  C114-  C113-  H13S
   789    788    791    794      9     0.00   0.66944   3 ;   H14R-  C114-  C113-  C112
   790    788    791    792      9     0.00   0.62760   3 ;   H14S-  C114-  C113-  H13R
   790    788    791    793      9     0.00   0.62760   3 ;   H14S-  C114-  C113-  H13S
   790    788    791    794      9     0.00   0.66944   3 ;   H14S-  C114-  C113-  C112
   791    794    797    798      9     0.00   0.66944   3 ;   C113-  C112-  C111-  H11R
   791    794    797    799      9     0.00   0.66944   3 ;   C113-  C112-  C111-  H11S
   791    794    797    800      9     0.00   0.41840   1 ;   C113-  C112-  C111-  C110
   791    794    797    800      9     0.00   0.41840   2 ;   C113-  C112-  C111-  C110
   791    794    797    800      9     0.00   0.41840   4 ;   C113-  C112-  C111-  C110
   791    794    797    800      9     0.00   0.41840   5 ;   C113-  C112-  C111-  C110
   791    794    797    800      9     0.00   1.25520   3 ;   C113-  C112-  C111-  C110
   792    791    794    795      9     0.00   0.62760   3 ;   H13R-  C113-  C112-  H12R
   792    791    794    796      9     0.00   0.62760   3 ;   H13R-  C113-  C112-  H12S
   792    791    794    797      9     0.00   0.66944   3 ;   H13R-  C113-  C112-  C111
   793    791    794    795      9     0.00   0.62760   3 ;   H13S-  C113-  C112-  H12R
   793    791    794    796      9     0.00   0.62760   3 ;   H13S-  C113-  C112-  H12S
   793    791    794    797      9     0.00   0.66944   3 ;   H13S-  C113-  C112-  C111
   794    797    800    801      9     0.00   0.66944   3 ;   C112-  C111-  C110-  H10R
   794    797    800    802      9     0.00   0.66944   3 ;   C112-  C111-  C110-  H10S
   794    797    800    803      9     0.00   0.41840   1 ;   C112-  C111-  C110-   C19
   794    797    800    803      9     0.00   0.41840   2 ;   C112-  C111-  C110-   C19
   794    797    800    803      9     0.00   0.41840   4 ;   C112-  C111-  C110-   C19
   794    797    800    803      9     0.00   0.41840   5 ;   C112-  C111-  C110-   C19
   794    797    800    803      9     0.00   1.25520   3 ;   C112-  C111-  C110-   C19
   795    794    797    798      9     0.00   0.62760   3 ;   H12R-  C112-  C111-  H11R
   795    794    797    799      9     0.00   0.62760   3 ;   H12R-  C112-  C111-  H11S
   795    794    797    800      9     0.00   0.66944   3 ;   H12R-  C112-  C111-  C110
   796    794    797    798      9     0.00   0.62760   3 ;   H12S-  C112-  C111-  H11R
   796    794    797    799      9     0.00   0.62760   3 ;   H12S-  C112-  C111-  H11S
   796    794    797    800      9     0.00   0.66944   3 ;   H12S-  C112-  C111-  C110
   797    800    803    804      9     0.00   0.66944   3 ;   C111-  C110-   C19-   H9R
   797    800    803    805      9     0.00   0.66944   3 ;   C111-  C110-   C19-   H9S
   797    800    803    806      9     0.00   0.41840   1 ;   C111-  C110-   C19-   C18
   797    800    803    806      9     0.00   0.41840   2 ;   C111-  C110-   C19-   C18
   797    800    803    806      9     0.00   0.41840   4 ;   C111-  C110-   C19-   C18
   797    800    803    806      9     0.00   0.41840   5 ;   C111-  C110-   C19-   C18
   797    800    803    806      9     0.00   1.25520   3 ;   C111-  C110-   C19-   C18
   798    797    800    801      9     0.00   0.62760   3 ;   H11R-  C111-  C110-  H10R
   798    797    800    802      9     0.00   0.62760   3 ;   H11R-  C111-  C110-  H10S
   798    797    800    803      9     0.00   0.66944   3 ;   H11R-  C111-  C110-   C19
   799    797    800    801      9     0.00   0.62760   3 ;   H11S-  C111-  C110-  H10R
   799    797    800    802      9     0.00   0.62760   3 ;   H11S-  C111-  C110-  H10S
   799    797    800    803      9     0.00   0.66944   3 ;   H11S-  C111-  C110-   C19
   800    803    806    807      9     0.00   0.66944   3 ;   C110-   C19-   C18-   H8R
   800    803    806    808      9     0.00   0.66944   3 ;   C110-   C19-   C18-   H8S
   800    803    806    809      9     0.00   0.41840   1 ;   C110-   C19-   C18-   C17
   800    803    806    809      9     0.00   0.41840   2 ;   C110-   C19-   C18-   C17
   800    803    806    809      9     0.00   0.41840   4 ;   C110-   C19-   C18-   C17
   800    803    806    809      9     0.00   0.41840   5 ;   C110-   C19-   C18-   C17
   800    803    806    809      9     0.00   1.25520   3 ;   C110-   C19-   C18-   C17
   801    800    803    804      9     0.00   0.62760   3 ;   H10R-  C110-   C19-   H9R
   801    800    803    805      9     0.00   0.62760   3 ;   H10R-  C110-   C19-   H9S
   801    800    803    806      9     0.00   0.66944   3 ;   H10R-  C110-   C19-   C18
   802    800    803    804      9     0.00   0.62760   3 ;   H10S-  C110-   C19-   H9R
   802    800    803    805      9     0.00   0.62760   3 ;   H10S-  C110-   C19-   H9S
   802    800    803    806      9     0.00   0.66944   3 ;   H10S-  C110-   C19-   C18
   803    806    809    810      9     0.00   0.66944   3 ;    C19-   C18-   C17-   H7R
   803    806    809    811      9     0.00   0.66944   3 ;    C19-   C18-   C17-   H7S
   803    806    809    812      9     0.00   0.41840   1 ;    C19-   C18-   C17-   C16
   803    806    809    812      9     0.00   0.41840   2 ;    C19-   C18-   C17-   C16
   803    806    809    812      9     0.00   0.41840   4 ;    C19-   C18-   C17-   C16
   803    806    809    812      9     0.00   0.41840   5 ;    C19-   C18-   C17-   C16
   803    806    809    812      9     0.00   1.25520   3 ;    C19-   C18-   C17-   C16
   804    803    806    807      9     0.00   0.62760   3 ;    H9R-   C19-   C18-   H8R
   804    803    806    808      9     0.00   0.62760   3 ;    H9R-   C19-   C18-   H8S
   804    803    806    809      9     0.00   0.66944   3 ;    H9R-   C19-   C18-   C17
   805    803    806    807      9     0.00   0.62760   3 ;    H9S-   C19-   C18-   H8R
   805    803    806    808      9     0.00   0.62760   3 ;    H9S-   C19-   C18-   H8S
   805    803    806    809      9     0.00   0.66944   3 ;    H9S-   C19-   C18-   C17
   806    809    812    813      9     0.00   0.66944   3 ;    C18-   C17-   C16-   H6R
   806    809    812    814      9     0.00   0.66944   3 ;    C18-   C17-   C16-   H6S
   806    809    812    815      9     0.00   0.41840   1 ;    C18-   C17-   C16-   C15
   806    809    812    815      9     0.00   0.41840   2 ;    C18-   C17-   C16-   C15
   806    809    812    815      9     0.00   0.41840   4 ;    C18-   C17-   C16-   C15
   806    809    812    815      9     0.00   0.41840   5 ;    C18-   C17-   C16-   C15
   806    809    812    815      9     0.00   1.25520   3 ;    C18-   C17-   C16-   C15
   807    806    809    810      9     0.00   0.62760   3 ;    H8R-   C18-   C17-   H7R
   807    806    809    811      9     0.00   0.62760   3 ;    H8R-   C18-   C17-   H7S
   807    806    809    812      9     0.00   0.66944   3 ;    H8R-   C18-   C17-   C16
   808    806    809    810      9     0.00   0.62760   3 ;    H8S-   C18-   C17-   H7R
   808    806    809    811      9     0.00   0.62760   3 ;    H8S-   C18-   C17-   H7S
   808    806    809    812      9     0.00   0.66944   3 ;    H8S-   C18-   C17-   C16
   809    812    815    816      9     0.00   0.66944   3 ;    C17-   C16-   C15-   H5R
   809    812    815    817      9     0.00   0.66944   3 ;    C17-   C16-   C15-   H5S
   809    812    815    818      9     0.00   0.41840   1 ;    C17-   C16-   C15-   C14
   809    812    815    818      9     0.00   0.41840   2 ;    C17-   C16-   C15-   C14
   809    812    815    818      9     0.00   0.41840   4 ;    C17-   C16-   C15-   C14
   809    812    815    818      9     0.00   0.41840   5 ;    C17-   C16-   C15-   C14
   809    812    815    818      9     0.00   1.25520   3 ;    C17-   C16-   C15-   C14
   810    809    812    813      9     0.00   0.62760   3 ;    H7R-   C17-   C16-   H6R
   810    809    812    814      9     0.00   0.62760   3 ;    H7R-   C17-   C16-   H6S
   810    809    812    815      9     0.00   0.66944   3 ;    H7R-   C17-   C16-   C15
   811    809    812    813      9     0.00   0.62760   3 ;    H7S-   C17-   C16-   H6R
   811    809    812    814      9     0.00   0.62760   3 ;    H7S-   C17-   C16-   H6S
   811    809    812    815      9     0.00   0.66944   3 ;    H7S-   C17-   C16-   C15
   812    815    818    819      9     0.00   0.66944   3 ;    C16-   C15-   C14-   H4R
   812    815    818    820      9     0.00   0.66944   3 ;    C16-   C15-   C14-   H4S
   812    815    818    821      9     0.00   0.41840   1 ;    C16-   C15-   C14-   C13
   812    815    818    821      9     0.00   0.41840   2 ;    C16-   C15-   C14-   C13
   812    815    818    821      9     0.00   0.41840   4 ;    C16-   C15-   C14-   C13
   812    815    818    821      9     0.00   0.41840   5 ;    C16-   C15-   C14-   C13
   812    815    818    821      9     0.00   1.25520   3 ;    C16-   C15-   C14-   C13
   813    812    815    816      9     0.00   0.62760   3 ;    H6R-   C16-   C15-   H5R
   813    812    815    817      9     0.00   0.62760   3 ;    H6R-   C16-   C15-   H5S
   813    812    815    818      9     0.00   0.66944   3 ;    H6R-   C16-   C15-   C14
   814    812    815    816      9     0.00   0.62760   3 ;    H6S-   C16-   C15-   H5R
   814    812    815    817      9     0.00   0.62760   3 ;    H6S-   C16-   C15-   H5S
   814    812    815    818      9     0.00   0.66944   3 ;    H6S-   C16-   C15-   C14
   815    818    821    822      9     0.00   0.66944   3 ;    C15-   C14-   C13-   H3R
   815    818    821    823      9     0.00   0.66944   3 ;    C15-   C14-   C13-   H3S
   815    818    821    824      9     0.00   0.41840   1 ;    C15-   C14-   C13-   C12
   815    818    821    824      9     0.00   0.41840   2 ;    C15-   C14-   C13-   C12
   815    818    821    824      9     0.00   0.41840   4 ;    C15-   C14-   C13-   C12
   815    818    821    824      9     0.00   0.41840   5 ;    C15-   C14-   C13-   C12
   815    818    821    824      9     0.00   1.25520   3 ;    C15-   C14-   C13-   C12
   816    815    818    819      9     0.00   0.62760   3 ;    H5R-   C15-   C14-   H4R
   816    815    818    820      9     0.00   0.62760   3 ;    H5R-   C15-   C14-   H4S
   816    815    818    821      9     0.00   0.66944   3 ;    H5R-   C15-   C14-   C13
   817    815    818    819      9     0.00   0.62760   3 ;    H5S-   C15-   C14-   H4R
   817    815    818    820      9     0.00   0.62760   3 ;    H5S-   C15-   C14-   H4S
   817    815    818    821      9     0.00   0.66944   3 ;    H5S-   C15-   C14-   C13
   818    821    824    825      9     0.00   0.66944   3 ;    C14-   C13-   C12-   H2R
   818    821    824    826      9     0.00   0.66944   3 ;    C14-   C13-   C12-   H2S
   819    818    821    822      9     0.00   0.62760   3 ;    H4R-   C14-   C13-   H3R
   819    818    821    823      9     0.00   0.62760   3 ;    H4R-   C14-   C13-   H3S
   819    818    821    824      9     0.00   0.66944   3 ;    H4R-   C14-   C13-   C12
   820    818    821    822      9     0.00   0.62760   3 ;    H4S-   C14-   C13-   H3R
   820    818    821    823      9     0.00   0.62760   3 ;    H4S-   C14-   C13-   H3S
   820    818    821    824      9     0.00   0.66944   3 ;    H4S-   C14-   C13-   C12
   822    821    824    825      9     0.00   0.62760   3 ;    H3R-   C13-   C12-   H2R
   822    821    824    826      9     0.00   0.62760   3 ;    H3R-   C13-   C12-   H2S
   823    821    824    825      9     0.00   0.62760   3 ;    H3S-   C13-   C12-   H2R
   823    821    824    826      9     0.00   0.62760   3 ;    H3S-   C13-   C12-   H2S
   827    828    831    832      9     0.00   0.62760   3 ;   H14T-  C114-  C113-  H13R
   827    828    831    833      9     0.00   0.62760   3 ;   H14T-  C114-  C113-  H13S
   827    828    831    834      9     0.00   0.66944   3 ;   H14T-  C114-  C113-  C112
   828    831    834    835      9     0.00   0.66944   3 ;   C114-  C113-  C112-  H12R
   828    831    834    836      9     0.00   0.66944   3 ;   C114-  C113-  C112-  H12S
   828    831    834    837      9     0.00   0.41840   1 ;   C114-  C113-  C112-  C111
   828    831    834    837      9     0.00   0.41840   2 ;   C114-  C113-  C112-  C111
   828    831    834    837      9     0.00   0.41840   4 ;   C114-  C113-  C112-  C111
   828    831    834    837      9     0.00   0.41840   5 ;   C114-  C113-  C112-  C111
   828    831    834    837      9     0.00   1.25520   3 ;   C114-  C113-  C112-  C111
   829    828    831    832      9     0.00   0.62760   3 ;   H14R-  C114-  C113-  H13R
   829    828    831    833      9     0.00   0.62760   3 ;   H14R-  C114-  C113-  H13S
   829    828    831    834      9     0.00   0.66944   3 ;   H14R-  C114-  C113-  C112
   830    828    831    832      9     0.00   0.62760   3 ;   H14S-  C114-  C113-  H13R
   830    828    831    833      9     0.00   0.62760   3 ;   H14S-  C114-  C113-  H13S
   830    828    831    834      9     0.00   0.66944   3 ;   H14S-  C114-  C113-  C112
   831    834    837    838      9     0.00   0.66944   3 ;   C113-  C112-  C111-  H11R
   831    834    837    839      9     0.00   0.66944   3 ;   C113-  C112-  C111-  H11S
   831    834    837    840      9     0.00   0.41840   1 ;   C113-  C112-  C111-  C110
   831    834    837    840      9     0.00   0.41840   2 ;   C113-  C112-  C111-  C110
   831    834    837    840      9     0.00   0.41840   4 ;   C113-  C112-  C111-  C110
   831    834    837    840      9     0.00   0.41840   5 ;   C113-  C112-  C111-  C110
   831    834    837    840      9     0.00   1.25520   3 ;   C113-  C112-  C111-  C110
   832    831    834    835      9     0.00   0.62760   3 ;   H13R-  C113-  C112-  H12R
   832    831    834    836      9     0.00   0.62760   3 ;   H13R-  C113-  C112-  H12S
   832    831    834    837      9     0.00   0.66944   3 ;   H13R-  C113-  C112-  C111
   833    831    834    835      9     0.00   0.62760   3 ;   H13S-  C113-  C112-  H12R
   833    831    834    836      9     0.00   0.62760   3 ;   H13S-  C113-  C112-  H12S
   833    831    834    837      9     0.00   0.66944   3 ;   H13S-  C113-  C112-  C111
   834    837    840    841      9     0.00   0.66944   3 ;   C112-  C111-  C110-  H10R
   834    837    840    842      9     0.00   0.66944   3 ;   C112-  C111-  C110-  H10S
   834    837    840    843      9     0.00   0.41840   1 ;   C112-  C111-  C110-   C19
   834    837    840    843      9     0.00   0.41840   2 ;   C112-  C111-  C110-   C19
   834    837    840    843      9     0.00   0.41840   4 ;   C112-  C111-  C110-   C19
   834    837    840    843      9     0.00   0.41840   5 ;   C112-  C111-  C110-   C19
   834    837    840    843      9     0.00   1.25520   3 ;   C112-  C111-  C110-   C19
   835    834    837    838      9     0.00   0.62760   3 ;   H12R-  C112-  C111-  H11R
   835    834    837    839      9     0.00   0.62760   3 ;   H12R-  C112-  C111-  H11S
   835    834    837    840      9     0.00   0.66944   3 ;   H12R-  C112-  C111-  C110
   836    834    837    838      9     0.00   0.62760   3 ;   H12S-  C112-  C111-  H11R
   836    834    837    839      9     0.00   0.62760   3 ;   H12S-  C112-  C111-  H11S
   836    834    837    840      9     0.00   0.66944   3 ;   H12S-  C112-  C111-  C110
   837    840    843    844      9     0.00   0.66944   3 ;   C111-  C110-   C19-   H9R
   837    840    843    845      9     0.00   0.66944   3 ;   C111-  C110-   C19-   H9S
   837    840    843    846      9     0.00   0.41840   1 ;   C111-  C110-   C19-   C18
   837    840    843    846      9     0.00   0.41840   2 ;   C111-  C110-   C19-   C18
   837    840    843    846      9     0.00   0.41840   4 ;   C111-  C110-   C19-   C18
   837    840    843    846      9     0.00   0.41840   5 ;   C111-  C110-   C19-   C18
   837    840    843    846      9     0.00   1.25520   3 ;   C111-  C110-   C19-   C18
   838    837    840    841      9     0.00   0.62760   3 ;   H11R-  C111-  C110-  H10R
   838    837    840    842      9     0.00   0.62760   3 ;   H11R-  C111-  C110-  H10S
   838    837    840    843      9     0.00   0.66944   3 ;   H11R-  C111-  C110-   C19
   839    837    840    841      9     0.00   0.62760   3 ;   H11S-  C111-  C110-  H10R
   839    837    840    842      9     0.00   0.62760   3 ;   H11S-  C111-  C110-  H10S
   839    837    840    843      9     0.00   0.66944   3 ;   H11S-  C111-  C110-   C19
   840    843    846    847      9     0.00   0.66944   3 ;   C110-   C19-   C18-   H8R
   840    843    846    848      9     0.00   0.66944   3 ;   C110-   C19-   C18-   H8S
   840    843    846    849      9     0.00   0.41840   1 ;   C110-   C19-   C18-   C17
   840    843    846    849      9     0.00   0.41840   2 ;   C110-   C19-   C18-   C17
   840    843    846    849      9     0.00   0.41840   4 ;   C110-   C19-   C18-   C17
   840    843    846    849      9     0.00   0.41840   5 ;   C110-   C19-   C18-   C17
   840    843    846    849      9     0.00   1.25520   3 ;   C110-   C19-   C18-   C17
   841    840    843    844      9     0.00   0.62760   3 ;   H10R-  C110-   C19-   H9R
   841    840    843    845      9     0.00   0.62760   3 ;   H10R-  C110-   C19-   H9S
   841    840    843    846      9     0.00   0.66944   3 ;   H10R-  C110-   C19-   C18
   842    840    843    844      9     0.00   0.62760   3 ;   H10S-  C110-   C19-   H9R
   842    840    843    845      9     0.00   0.62760   3 ;   H10S-  C110-   C19-   H9S
   842    840    843    846      9     0.00   0.66944   3 ;   H10S-  C110-   C19-   C18
   843    846    849    850      9     0.00   0.66944   3 ;    C19-   C18-   C17-   H7R
   843    846    849    851      9     0.00   0.66944   3 ;    C19-   C18-   C17-   H7S
   843    846    849    852      9     0.00   0.41840   1 ;    C19-   C18-   C17-   C16
   843    846    849    852      9     0.00   0.41840   2 ;    C19-   C18-   C17-   C16
   843    846    849    852      9     0.00   0.41840   4 ;    C19-   C18-   C17-   C16
   843    846    849    852      9     0.00   0.41840   5 ;    C19-   C18-   C17-   C16
   843    846    849    852      9     0.00   1.25520   3 ;    C19-   C18-   C17-   C16
   844    843    846    847      9     0.00   0.62760   3 ;    H9R-   C19-   C18-   H8R
   844    843    846    848      9     0.00   0.62760   3 ;    H9R-   C19-   C18-   H8S
   844    843    846    849      9     0.00   0.66944   3 ;    H9R-   C19-   C18-   C17
   845    843    846    847      9     0.00   0.62760   3 ;    H9S-   C19-   C18-   H8R
   845    843    846    848      9     0.00   0.62760   3 ;    H9S-   C19-   C18-   H8S
   845    843    846    849      9     0.00   0.66944   3 ;    H9S-   C19-   C18-   C17
   846    849    852    853      9     0.00   0.66944   3 ;    C18-   C17-   C16-   H6R
   846    849    852    854      9     0.00   0.66944   3 ;    C18-   C17-   C16-   H6S
   846    849    852    855      9     0.00   0.41840   1 ;    C18-   C17-   C16-   C15
   846    849    852    855      9     0.00   0.41840   2 ;    C18-   C17-   C16-   C15
   846    849    852    855      9     0.00   0.41840   4 ;    C18-   C17-   C16-   C15
   846    849    852    855      9     0.00   0.41840   5 ;    C18-   C17-   C16-   C15
   846    849    852    855      9     0.00   1.25520   3 ;    C18-   C17-   C16-   C15
   847    846    849    850      9     0.00   0.62760   3 ;    H8R-   C18-   C17-   H7R
   847    846    849    851      9     0.00   0.62760   3 ;    H8R-   C18-   C17-   H7S
   847    846    849    852      9     0.00   0.66944   3 ;    H8R-   C18-   C17-   C16
   848    846    849    850      9     0.00   0.62760   3 ;    H8S-   C18-   C17-   H7R
   848    846    849    851      9     0.00   0.62760   3 ;    H8S-   C18-   C17-   H7S
   848    846    849    852      9     0.00   0.66944   3 ;    H8S-   C18-   C17-   C16
   849    852    855    856      9     0.00   0.66944   3 ;    C17-   C16-   C15-   H5R
   849    852    855    857      9     0.00   0.66944   3 ;    C17-   C16-   C15-   H5S
   849    852    855    858      9     0.00   0.41840   1 ;    C17-   C16-   C15-   C14
   849    852    855    858      9     0.00   0.41840   2 ;    C17-   C16-   C15-   C14
   849    852    855    858      9     0.00   0.41840   4 ;    C17-   C16-   C15-   C14
   849    852    855    858      9     0.00   0.41840   5 ;    C17-   C16-   C15-   C14
   849    852    855    858      9     0.00   1.25520   3 ;    C17-   C16-   C15-   C14
   850    849    852    853      9     0.00   0.62760   3 ;    H7R-   C17-   C16-   H6R
   850    849    852    854      9     0.00   0.62760   3 ;    H7R-   C17-   C16-   H6S
   850    849    852    855      9     0.00   0.66944   3 ;    H7R-   C17-   C16-   C15
   851    849    852    853      9     0.00   0.62760   3 ;    H7S-   C17-   C16-   H6R
   851    849    852    854      9     0.00   0.62760   3 ;    H7S-   C17-   C16-   H6S
   851    849    852    855      9     0.00   0.66944   3 ;    H7S-   C17-   C16-   C15
   852    855    858    859      9     0.00   0.66944   3 ;    C16-   C15-   C14-   H4R
   852    855    858    860      9     0.00   0.66944   3 ;    C16-   C15-   C14-   H4S
   852    855    858    861      9     0.00   0.41840   1 ;    C16-   C15-   C14-   C13
   852    855    858    861      9     0.00   0.41840   2 ;    C16-   C15-   C14-   C13
   852    855    858    861      9     0.00   0.41840   4 ;    C16-   C15-   C14-   C13
   852    855    858    861      9     0.00   0.41840   5 ;    C16-   C15-   C14-   C13
   852    855    858    861      9     0.00   1.25520   3 ;    C16-   C15-   C14-   C13
   853    852    855    856      9     0.00   0.62760   3 ;    H6R-   C16-   C15-   H5R
   853    852    855    857      9     0.00   0.62760   3 ;    H6R-   C16-   C15-   H5S
   853    852    855    858      9     0.00   0.66944   3 ;    H6R-   C16-   C15-   C14
   854    852    855    856      9     0.00   0.62760   3 ;    H6S-   C16-   C15-   H5R
   854    852    855    857      9     0.00   0.62760   3 ;    H6S-   C16-   C15-   H5S
   854    852    855    858      9     0.00   0.66944   3 ;    H6S-   C16-   C15-   C14
   855    858    861    862      9     0.00   0.66944   3 ;    C15-   C14-   C13-   H3R
   855    858    861    863      9     0.00   0.66944   3 ;    C15-   C14-   C13-   H3S
   855    858    861    864      9     0.00   0.41840   1 ;    C15-   C14-   C13-   C12
   855    858    861    864      9     0.00   0.41840   2 ;    C15-   C14-   C13-   C12
   855    858    861    864      9     0.00   0.41840   4 ;    C15-   C14-   C13-   C12
   855    858    861    864      9     0.00   0.41840   5 ;    C15-   C14-   C13-   C12
   855    858    861    864      9     0.00   1.25520   3 ;    C15-   C14-   C13-   C12
   856    855    858    859      9     0.00   0.62760   3 ;    H5R-   C15-   C14-   H4R
   856    855    858    860      9     0.00   0.62760   3 ;    H5R-   C15-   C14-   H4S
   856    855    858    861      9     0.00   0.66944   3 ;    H5R-   C15-   C14-   C13
   857    855    858    859      9     0.00   0.62760   3 ;    H5S-   C15-   C14-   H4R
   857    855    858    860      9     0.00   0.62760   3 ;    H5S-   C15-   C14-   H4S
   857    855    858    861      9     0.00   0.66944   3 ;    H5S-   C15-   C14-   C13
   858    861    864    865      9     0.00   0.66944   3 ;    C14-   C13-   C12-   H2R
   858    861    864    866      9     0.00   0.66944   3 ;    C14-   C13-   C12-   H2S
   858    861    864    867      9     0.00   0.65270   3 ;    C14-   C13-   C12-   C11
   859    858    861    862      9     0.00   0.62760   3 ;    H4R-   C14-   C13-   H3R
   859    858    861    863      9     0.00   0.62760   3 ;    H4R-   C14-   C13-   H3S
   859    858    861    864      9     0.00   0.66944   3 ;    H4R-   C14-   C13-   C12
   860    858    861    862      9     0.00   0.62760   3 ;    H4S-   C14-   C13-   H3R
   860    858    861    863      9     0.00   0.62760   3 ;    H4S-   C14-   C13-   H3S
   860    858    861    864      9     0.00   0.66944   3 ;    H4S-   C14-   C13-   C12
   861    864    867    868      9   180.00   0.00000   2 ;    C13-   C12-   C11-   O12
   861    864    867    869      9   180.00   0.00000   2 ;    C13-   C12-   C11-   O11
   862    861    864    865      9     0.00   0.62760   3 ;    H3R-   C13-   C12-   H2R
   862    861    864    866      9     0.00   0.62760   3 ;    H3R-   C13-   C12-   H2S
   862    861    864    867      9     0.00   0.65270   3 ;    H3R-   C13-   C12-   C11
   863    861    864    865      9     0.00   0.62760   3 ;    H3S-   C13-   C12-   H2R
   863    861    864    866      9     0.00   0.62760   3 ;    H3S-   C13-   C12-   H2S
   863    861    864    867      9     0.00   0.65270   3 ;    H3S-   C13-   C12-   C11
   864    867    869    870      9   180.00  11.29680   2 ;    C12-   C11-   O11-    C1
   865    864    867    868      9     0.00   3.34720   1 ;    H2R-   C12-   C11-   O12
   865    864    867    868      9   180.00   0.33472   3 ;    H2R-   C12-   C11-   O12
   865    864    867    869      9   180.00   0.00000   2 ;    H2R-   C12-   C11-   O11
   866    864    867    868      9     0.00   3.34720   1 ;    H2S-   C12-   C11-   O12
   866    864    867    868      9   180.00   0.33472   3 ;    H2S-   C12-   C11-   O12
   866    864    867    869      9   180.00   0.00000   2 ;    H2S-   C12-   C11-   O11
   867    869    870    871      9     0.00   1.60247   3 ;    C11-   O11-    C1-    HR
   867    869    870    872      9     0.00   1.60247   3 ;    C11-   O11-    C1-    HS
   867    869    870    873      9     0.00  -0.41840   1 ;    C11-   O11-    C1-    C2
   868    867    869    870      9   180.00   5.85760   1 ;    O12-   C11-   O11-    C1
   868    867    869    870      9   180.00  11.29680   2 ;    O12-   C11-   O11-    C1
   869    870    873    874      9     0.00   0.00000   0 ;    O11-    C1-    C2-    HX
   869    870    873    874      9     0.00   1.04600   1 ;    O11-    C1-    C2-    HX
   869    870    873    875      9     0.00   0.00000   0 ;    O11-    C1-    C2-    C3
   869    870    873    875      9     0.00   0.00000   0 ;    O11-    C1-    C2-    C3
   869    870    873    875      9     0.00   0.00000   0 ;    O11-    C1-    C2-    C3
   869    870    873    875      9     0.00   0.00000   0 ;    O11-    C1-    C2-    C3
   869    870    873    875      9     0.00   0.00000   0 ;    O11-    C1-    C2-    C3
   869    870    873    902      9     0.00   1.25520   2 ;    O11-    C1-    C2-   O21
   869    870    873    902      9     0.00   4.18400   3 ;    O11-    C1-    C2-   O21
   869    870    873    902      9   180.00  -0.41840   1 ;    O11-    C1-    C2-   O21
   870    873    875    876      9     0.00   0.65270   3 ;     C1-    C2-    C3-    HA
   870    873    875    877      9     0.00   0.65270   3 ;     C1-    C2-    C3-    HB
   870    873    875    878      9   180.00   3.34720   1 ;     C1-    C2-    C3-   O31
   870    873    902    903      9     0.00  -0.41840   1 ;     C1-    C2-   O21-   C21
   871    870    873    874      9     0.00   0.65270   3 ;     HR-    C1-    C2-    HX
   871    870    873    875      9     0.00   0.65270   3 ;     HR-    C1-    C2-    C3
   871    870    873    902      9     0.00   0.00000   0 ;     HR-    C1-    C2-   O21
   871    870    873    902      9     0.00   1.04600   1 ;     HR-    C1-    C2-   O21
   872    870    873    874      9     0.00   0.65270   3 ;     HS-    C1-    C2-    HX
   872    870    873    875      9     0.00   0.65270   3 ;     HS-    C1-    C2-    C3
   872    870    873    902      9     0.00   0.00000   0 ;     HS-    C1-    C2-   O21
   872    870    873    902      9     0.00   1.04600   1 ;     HS-    C1-    C2-   O21
   873    875    878    879      9     0.00   0.00000   0 ;     C2-    C3-   O31-   P31
   873    875    878    879      9   180.00  -3.34720   2 ;     C2-    C3-   O31-   P31
   873    902    903    904      9   180.00   5.85760   1 ;     C2-   O21-   C21-   O22
   873    902    903    904      9   180.00  11.29680   2 ;     C2-   O21-   C21-   O22
   873    902    903    942      9   180.00  11.29680   2 ;     C2-   O21-   C21-   C12
   874    873    875    876      9     0.00   0.65270   3 ;     HX-    C2-    C3-    HA
   874    873    875    877      9     0.00   0.65270   3 ;     HX-    C2-    C3-    HB
   874    873    875    878      9     0.00   0.00000   0 ;     HX-    C2-    C3-   O31
   874    873    875    878      9     0.00   1.04600   1 ;     HX-    C2-    C3-   O31
   874    873    902    903      9     0.00   1.60247   3 ;     HX-    C2-   O21-   C21
   875    873    902    903      9     0.00  -0.41840   1 ;     C3-    C2-   O21-   C21
   875    878    879    880      9     0.00   2.51040   3 ;     C3-   O31-   P31-   O32
   875    878    879    880      9     0.00   9.62320   2 ;     C3-   O31-   P31-   O32
   875    878    879    900      9     0.00   0.00000   0 ;     C3-   O31-   P31-   O33
   875    878    879    900      9     0.00   0.00000   0 ;     C3-   O31-   P31-   O33
   875    878    879    900      9     0.00   0.00000   0 ;     C3-   O31-   P31-   O33
   875    878    879    900      9     0.00   0.00000   0 ;     C3-   O31-   P31-   O33
   875    878    879    900      9     0.00   0.83680   2 ;     C3-   O31-   P31-   O33
   875    878    879    901      9     0.00   0.00000   0 ;     C3-   O31-   P31-   O34
   875    878    879    901      9     0.00   0.00000   0 ;     C3-   O31-   P31-   O34
   875    878    879    901      9     0.00   0.00000   0 ;     C3-   O31-   P31-   O34
   875    878    879    901      9     0.00   0.00000   0 ;     C3-   O31-   P31-   O34
   875    878    879    901      9     0.00   0.83680   2 ;     C3-   O31-   P31-   O34
   876    875    873    902      9     0.00   0.00000   0 ;     HA-    C3-    C2-   O21
   876    875    873    902      9     0.00   1.04600   1 ;     HA-    C3-    C2-   O21
   876    875    878    879      9     0.00   0.00000   0 ;     HA-    C3-   O31-   P31
   876    875    878    879      9     0.00   0.00000   0 ;     HA-    C3-   O31-   P31
   876    875    878    879      9     0.00   0.00000   0 ;     HA-    C3-   O31-   P31
   876    875    878    879      9     0.00   0.00000   0 ;     HA-    C3-   O31-   P31
   876    875    878    879      9     0.00   1.60247   3 ;     HA-    C3-   O31-   P31
   877    875    873    902      9     0.00   0.00000   0 ;     HB-    C3-    C2-   O21
   877    875    873    902      9     0.00   1.04600   1 ;     HB-    C3-    C2-   O21
   877    875    878    879      9     0.00   0.00000   0 ;     HB-    C3-   O31-   P31
   877    875    878    879      9     0.00   0.00000   0 ;     HB-    C3-   O31-   P31
   877    875    878    879      9     0.00   0.00000   0 ;     HB-    C3-   O31-   P31
   877    875    878    879      9     0.00   0.00000   0 ;     HB-    C3-   O31-   P31
   877    875    878    879      9     0.00   1.60247   3 ;     HB-    C3-   O31-   P31
   878    875    873    902      9     0.00   0.00000   0 ;    O31-    C3-    C2-   O21
   878    875    873    902      9     0.00   0.00000   0 ;    O31-    C3-    C2-   O21
   878    875    873    902      9     0.00   0.00000   0 ;    O31-    C3-    C2-   O21
   878    875    873    902      9     0.00   0.00000   0 ;    O31-    C3-    C2-   O21
   878    875    873    902      9     0.00   0.00000   0 ;    O31-    C3-    C2-   O21
   878    879    880    881      9     0.00   2.51040   3 ;    O31-   P31-   O32-   C31
   878    879    880    881      9     0.00   9.62320   2 ;    O31-   P31-   O32-   C31
   879    880    881    882      9     0.00   0.00000   0 ;    P31-   O32-   C31-   H1A
   879    880    881    882      9     0.00   0.00000   0 ;    P31-   O32-   C31-   H1A
   879    880    881    882      9     0.00   0.00000   0 ;    P31-   O32-   C31-   H1A
   879    880    881    882      9     0.00   0.00000   0 ;    P31-   O32-   C31-   H1A
   879    880    881    882      9     0.00   1.60247   3 ;    P31-   O32-   C31-   H1A
   879    880    881    883      9     0.00   0.00000   0 ;    P31-   O32-   C31-   H1B
   879    880    881    883      9     0.00   0.00000   0 ;    P31-   O32-   C31-   H1B
   879    880    881    883      9     0.00   0.00000   0 ;    P31-   O32-   C31-   H1B
   879    880    881    883      9     0.00   0.00000   0 ;    P31-   O32-   C31-   H1B
   879    880    881    883      9     0.00   1.60247   3 ;    P31-   O32-   C31-   H1B
   879    880    881    884      9     0.00   0.00000   0 ;    P31-   O32-   C31-   C32
   879    880    881    884      9   180.00  -3.34720   2 ;    P31-   O32-   C31-   C32
   880    881    884    885      9     0.00   0.65270   3 ;    O32-   C31-   C32-   H2A
   880    881    884    886      9     0.00   0.65270   3 ;    O32-   C31-   C32-   H2B
   880    881    884    887      9     0.00   4.18400   3 ;    O32-   C31-   C32-   N31
   881    880    879    900      9     0.00   0.00000   0 ;    C31-   O32-   P31-   O33
   881    880    879    900      9     0.00   0.00000   0 ;    C31-   O32-   P31-   O33
   881    880    879    900      9     0.00   0.00000   0 ;    C31-   O32-   P31-   O33
   881    880    879    900      9     0.00   0.00000   0 ;    C31-   O32-   P31-   O33
   881    880    879    900      9     0.00   0.83680   2 ;    C31-   O32-   P31-   O33
   881    880    879    901      9     0.00   0.00000   0 ;    C31-   O32-   P31-   O34
   881    880    879    901      9     0.00   0.00000   0 ;    C31-   O32-   P31-   O34
   881    880    879    901      9     0.00   0.00000   0 ;    C31-   O32-   P31-   O34
   881    880    879    901      9     0.00   0.00000   0 ;    C31-   O32-   P31-   O34
   881    880    879    901      9     0.00   0.83680   2 ;    C31-   O32-   P31-   O34
   881    884    887    888      9     0.00   0.65270   3 ;    C31-   C32-   N31-   C33
   881    884    887    892      9     0.00   0.65270   3 ;    C31-   C32-   N31-   C34
   881    884    887    896      9     0.00   0.65270   3 ;    C31-   C32-   N31-   C35
   882    881    884    885      9     0.00   0.65270   3 ;    H1A-   C31-   C32-   H2A
   882    881    884    886      9     0.00   0.65270   3 ;    H1A-   C31-   C32-   H2B
   882    881    884    887      9     0.00   0.65270   3 ;    H1A-   C31-   C32-   N31
   883    881    884    885      9     0.00   0.65270   3 ;    H1B-   C31-   C32-   H2A
   883    881    884    886      9     0.00   0.65270   3 ;    H1B-   C31-   C32-   H2B
   883    881    884    887      9     0.00   0.65270   3 ;    H1B-   C31-   C32-   N31
   884    887    888    889      9     0.00   0.65270   3 ;    C32-   N31-   C33-   H3A
   884    887    888    890      9     0.00   0.65270   3 ;    C32-   N31-   C33-   H3B
   884    887    888    891      9     0.00   0.65270   3 ;    C32-   N31-   C33-   H3C
   884    887    892    893      9     0.00   0.65270   3 ;    C32-   N31-   C34-   H4A
   884    887    892    894      9     0.00   0.65270   3 ;    C32-   N31-   C34-   H4B
   884    887    892    895      9     0.00   0.65270   3 ;    C32-   N31-   C34-   H4C
   884    887    896    897      9     0.00   0.65270   3 ;    C32-   N31-   C35-   H5A
   884    887    896    898      9     0.00   0.65270   3 ;    C32-   N31-   C35-   H5B
   884    887    896    899      9     0.00   0.65270   3 ;    C32-   N31-   C35-   H5C
   885    884    887    888      9     0.00   0.65270   3 ;    H2A-   C32-   N31-   C33
   885    884    887    892      9     0.00   0.65270   3 ;    H2A-   C32-   N31-   C34
   885    884    887    896      9     0.00   0.65270   3 ;    H2A-   C32-   N31-   C35
   886    884    887    888      9     0.00   0.65270   3 ;    H2B-   C32-   N31-   C33
   886    884    887    892      9     0.00   0.65270   3 ;    H2B-   C32-   N31-   C34
   886    884    887    896      9     0.00   0.65270   3 ;    H2B-   C32-   N31-   C35
   888    887    892    893      9     0.00   0.65270   3 ;    C33-   N31-   C34-   H4A
   888    887    892    894      9     0.00   0.65270   3 ;    C33-   N31-   C34-   H4B
   888    887    892    895      9     0.00   0.65270   3 ;    C33-   N31-   C34-   H4C
   888    887    896    897      9     0.00   0.65270   3 ;    C33-   N31-   C35-   H5A
   888    887    896    898      9     0.00   0.65270   3 ;    C33-   N31-   C35-   H5B
   888    887    896    899      9     0.00   0.65270   3 ;    C33-   N31-   C35-   H5C
   889    888    887    892      9     0.00   0.65270   3 ;    H3A-   C33-   N31-   C34
   889    888    887    896      9     0.00   0.65270   3 ;    H3A-   C33-   N31-   C35
   890    888    887    892      9     0.00   0.65270   3 ;    H3B-   C33-   N31-   C34
   890    888    887    896      9     0.00   0.65270   3 ;    H3B-   C33-   N31-   C35
   891    888    887    892      9     0.00   0.65270   3 ;    H3C-   C33-   N31-   C34
   891    888    887    896      9     0.00   0.65270   3 ;    H3C-   C33-   N31-   C35
   892    887    896    897      9     0.00   0.65270   3 ;    C34-   N31-   C35-   H5A
   892    887    896    898      9     0.00   0.65270   3 ;    C34-   N31-   C35-   H5B
   892    887    896    899      9     0.00   0.65270   3 ;    C34-   N31-   C35-   H5C
   893    892    887    896      9     0.00   0.65270   3 ;    H4A-   C34-   N31-   C35
   894    892    887    896      9     0.00   0.65270   3 ;    H4B-   C34-   N31-   C35
   895    892    887    896      9     0.00   0.65270   3 ;    H4C-   C34-   N31-   C35
   902    903    942    939      9   180.00   0.00000   2 ;    O21-   C21-   C12-   C13
   902    903    942    943      9   180.00   0.00000   2 ;    O21-   C21-   C12-   H2R
   902    903    942    944      9   180.00   0.00000   2 ;    O21-   C21-   C12-   H2S
   903    942    939    936      9     0.00   0.65270   3 ;    C21-   C12-   C13-   C14
   903    942    939    940      9     0.00   0.65270   3 ;    C21-   C12-   C13-   H3R
   903    942    939    941      9     0.00   0.65270   3 ;    C21-   C12-   C13-   H3S
   904    903    942    939      9   180.00   0.00000   2 ;    O22-   C21-   C12-   C13
   904    903    942    943      9     0.00   3.34720   1 ;    O22-   C21-   C12-   H2R
   904    903    942    943      9   180.00   0.33472   3 ;    O22-   C21-   C12-   H2R
   904    903    942    944      9     0.00   3.34720   1 ;    O22-   C21-   C12-   H2S
   904    903    942    944      9   180.00   0.33472   3 ;    O22-   C21-   C12-   H2S
   905    906    909    910      9     0.00   0.62760   3 ;   H14T-  C114-  C113-  H13R
   905    906    909    911      9     0.00   0.62760   3 ;   H14T-  C114-  C113-  H13S
   905    906    909    912      9     0.00   0.66944   3 ;   H14T-  C114-  C113-  C112
   906    909    912    913      9     0.00   0.66944   3 ;   C114-  C113-  C112-  H12R
   906    909    912    914      9     0.00   0.66944   3 ;   C114-  C113-  C112-  H12S
   906    909    912    915      9     0.00   0.41840   1 ;   C114-  C113-  C112-  C111
   906    909    912    915      9     0.00   0.41840   2 ;   C114-  C113-  C112-  C111
   906    909    912    915      9     0.00   0.41840   4 ;   C114-  C113-  C112-  C111
   906    909    912    915      9     0.00   0.41840   5 ;   C114-  C113-  C112-  C111
   906    909    912    915      9     0.00   1.25520   3 ;   C114-  C113-  C112-  C111
   907    906    909    910      9     0.00   0.62760   3 ;   H14R-  C114-  C113-  H13R
   907    906    909    911      9     0.00   0.62760   3 ;   H14R-  C114-  C113-  H13S
   907    906    909    912      9     0.00   0.66944   3 ;   H14R-  C114-  C113-  C112
   908    906    909    910      9     0.00   0.62760   3 ;   H14S-  C114-  C113-  H13R
   908    906    909    911      9     0.00   0.62760   3 ;   H14S-  C114-  C113-  H13S
   908    906    909    912      9     0.00   0.66944   3 ;   H14S-  C114-  C113-  C112
   909    912    915    916      9     0.00   0.66944   3 ;   C113-  C112-  C111-  H11R
   909    912    915    917      9     0.00   0.66944   3 ;   C113-  C112-  C111-  H11S
   909    912    915    918      9     0.00   0.41840   1 ;   C113-  C112-  C111-  C110
   909    912    915    918      9     0.00   0.41840   2 ;   C113-  C112-  C111-  C110
   909    912    915    918      9     0.00   0.41840   4 ;   C113-  C112-  C111-  C110
   909    912    915    918      9     0.00   0.41840   5 ;   C113-  C112-  C111-  C110
   909    912    915    918      9     0.00   1.25520   3 ;   C113-  C112-  C111-  C110
   910    909    912    913      9     0.00   0.62760   3 ;   H13R-  C113-  C112-  H12R
   910    909    912    914      9     0.00   0.62760   3 ;   H13R-  C113-  C112-  H12S
   910    909    912    915      9     0.00   0.66944   3 ;   H13R-  C113-  C112-  C111
   911    909    912    913      9     0.00   0.62760   3 ;   H13S-  C113-  C112-  H12R
   911    909    912    914      9     0.00   0.62760   3 ;   H13S-  C113-  C112-  H12S
   911    909    912    915      9     0.00   0.66944   3 ;   H13S-  C113-  C112-  C111
   912    915    918    919      9     0.00   0.66944   3 ;   C112-  C111-  C110-  H10R
   912    915    918    920      9     0.00   0.66944   3 ;   C112-  C111-  C110-  H10S
   912    915    918    921      9     0.00   0.41840   1 ;   C112-  C111-  C110-   C19
   912    915    918    921      9     0.00   0.41840   2 ;   C112-  C111-  C110-   C19
   912    915    918    921      9     0.00   0.41840   4 ;   C112-  C111-  C110-   C19
   912    915    918    921      9     0.00   0.41840   5 ;   C112-  C111-  C110-   C19
   912    915    918    921      9     0.00   1.25520   3 ;   C112-  C111-  C110-   C19
   913    912    915    916      9     0.00   0.62760   3 ;   H12R-  C112-  C111-  H11R
   913    912    915    917      9     0.00   0.62760   3 ;   H12R-  C112-  C111-  H11S
   913    912    915    918      9     0.00   0.66944   3 ;   H12R-  C112-  C111-  C110
   914    912    915    916      9     0.00   0.62760   3 ;   H12S-  C112-  C111-  H11R
   914    912    915    917      9     0.00   0.62760   3 ;   H12S-  C112-  C111-  H11S
   914    912    915    918      9     0.00   0.66944   3 ;   H12S-  C112-  C111-  C110
   915    918    921    922      9     0.00   0.66944   3 ;   C111-  C110-   C19-   H9R
   915    918    921    923      9     0.00   0.66944   3 ;   C111-  C110-   C19-   H9S
   915    918    921    924      9     0.00   0.41840   1 ;   C111-  C110-   C19-   C18
   915    918    921    924      9     0.00   0.41840   2 ;   C111-  C110-   C19-   C18
   915    918    921    924      9     0.00   0.41840   4 ;   C111-  C110-   C19-   C18
   915    918    921    924      9     0.00   0.41840   5 ;   C111-  C110-   C19-   C18
   915    918    921    924      9     0.00   1.25520   3 ;   C111-  C110-   C19-   C18
   916    915    918    919      9     0.00   0.62760   3 ;   H11R-  C111-  C110-  H10R
   916    915    918    920      9     0.00   0.62760   3 ;   H11R-  C111-  C110-  H10S
   916    915    918    921      9     0.00   0.66944   3 ;   H11R-  C111-  C110-   C19
   917    915    918    919      9     0.00   0.62760   3 ;   H11S-  C111-  C110-  H10R
   917    915    918    920      9     0.00   0.62760   3 ;   H11S-  C111-  C110-  H10S
   917    915    918    921      9     0.00   0.66944   3 ;   H11S-  C111-  C110-   C19
   918    921    924    925      9     0.00   0.66944   3 ;   C110-   C19-   C18-   H8R
   918    921    924    926      9     0.00   0.66944   3 ;   C110-   C19-   C18-   H8S
   918    921    924    927      9     0.00   0.41840   1 ;   C110-   C19-   C18-   C17
   918    921    924    927      9     0.00   0.41840   2 ;   C110-   C19-   C18-   C17
   918    921    924    927      9     0.00   0.41840   4 ;   C110-   C19-   C18-   C17
   918    921    924    927      9     0.00   0.41840   5 ;   C110-   C19-   C18-   C17
   918    921    924    927      9     0.00   1.25520   3 ;   C110-   C19-   C18-   C17
   919    918    921    922      9     0.00   0.62760   3 ;   H10R-  C110-   C19-   H9R
   919    918    921    923      9     0.00   0.62760   3 ;   H10R-  C110-   C19-   H9S
   919    918    921    924      9     0.00   0.66944   3 ;   H10R-  C110-   C19-   C18
   920    918    921    922      9     0.00   0.62760   3 ;   H10S-  C110-   C19-   H9R
   920    918    921    923      9     0.00   0.62760   3 ;   H10S-  C110-   C19-   H9S
   920    918    921    924      9     0.00   0.66944   3 ;   H10S-  C110-   C19-   C18
   921    924    927    928      9     0.00   0.66944   3 ;    C19-   C18-   C17-   H7R
   921    924    927    929      9     0.00   0.66944   3 ;    C19-   C18-   C17-   H7S
   921    924    927    930      9     0.00   0.41840   1 ;    C19-   C18-   C17-   C16
   921    924    927    930      9     0.00   0.41840   2 ;    C19-   C18-   C17-   C16
   921    924    927    930      9     0.00   0.41840   4 ;    C19-   C18-   C17-   C16
   921    924    927    930      9     0.00   0.41840   5 ;    C19-   C18-   C17-   C16
   921    924    927    930      9     0.00   1.25520   3 ;    C19-   C18-   C17-   C16
   922    921    924    925      9     0.00   0.62760   3 ;    H9R-   C19-   C18-   H8R
   922    921    924    926      9     0.00   0.62760   3 ;    H9R-   C19-   C18-   H8S
   922    921    924    927      9     0.00   0.66944   3 ;    H9R-   C19-   C18-   C17
   923    921    924    925      9     0.00   0.62760   3 ;    H9S-   C19-   C18-   H8R
   923    921    924    926      9     0.00   0.62760   3 ;    H9S-   C19-   C18-   H8S
   923    921    924    927      9     0.00   0.66944   3 ;    H9S-   C19-   C18-   C17
   924    927    930    931      9     0.00   0.66944   3 ;    C18-   C17-   C16-   H6R
   924    927    930    932      9     0.00   0.66944   3 ;    C18-   C17-   C16-   H6S
   924    927    930    933      9     0.00   0.41840   1 ;    C18-   C17-   C16-   C15
   924    927    930    933      9     0.00   0.41840   2 ;    C18-   C17-   C16-   C15
   924    927    930    933      9     0.00   0.41840   4 ;    C18-   C17-   C16-   C15
   924    927    930    933      9     0.00   0.41840   5 ;    C18-   C17-   C16-   C15
   924    927    930    933      9     0.00   1.25520   3 ;    C18-   C17-   C16-   C15
   925    924    927    928      9     0.00   0.62760   3 ;    H8R-   C18-   C17-   H7R
   925    924    927    929      9     0.00   0.62760   3 ;    H8R-   C18-   C17-   H7S
   925    924    927    930      9     0.00   0.66944   3 ;    H8R-   C18-   C17-   C16
   926    924    927    928      9     0.00   0.62760   3 ;    H8S-   C18-   C17-   H7R
   926    924    927    929      9     0.00   0.62760   3 ;    H8S-   C18-   C17-   H7S
   926    924    927    930      9     0.00   0.66944   3 ;    H8S-   C18-   C17-   C16
   927    930    933    934      9     0.00   0.66944   3 ;    C17-   C16-   C15-   H5R
   927    930    933    935      9     0.00   0.66944   3 ;    C17-   C16-   C15-   H5S
   927    930    933    936      9     0.00   0.41840   1 ;    C17-   C16-   C15-   C14
   927    930    933    936      9     0.00   0.41840   2 ;    C17-   C16-   C15-   C14
   927    930    933    936      9     0.00   0.41840   4 ;    C17-   C16-   C15-   C14
   927    930    933    936      9     0.00   0.41840   5 ;    C17-   C16-   C15-   C14
   927    930    933    936      9     0.00   1.25520   3 ;    C17-   C16-   C15-   C14
   928    927    930    931      9     0.00   0.62760   3 ;    H7R-   C17-   C16-   H6R
   928    927    930    932      9     0.00   0.62760   3 ;    H7R-   C17-   C16-   H6S
   928    927    930    933      9     0.00   0.66944   3 ;    H7R-   C17-   C16-   C15
   929    927    930    931      9     0.00   0.62760   3 ;    H7S-   C17-   C16-   H6R
   929    927    930    932      9     0.00   0.62760   3 ;    H7S-   C17-   C16-   H6S
   929    927    930    933      9     0.00   0.66944   3 ;    H7S-   C17-   C16-   C15
   930    933    936    937      9     0.00   0.66944   3 ;    C16-   C15-   C14-   H4R
   930    933    936    938      9     0.00   0.66944   3 ;    C16-   C15-   C14-   H4S
   930    933    936    939      9     0.00   0.41840   1 ;    C16-   C15-   C14-   C13
   930    933    936    939      9     0.00   0.41840   2 ;    C16-   C15-   C14-   C13
   930    933    936    939      9     0.00   0.41840   4 ;    C16-   C15-   C14-   C13
   930    933    936    939      9     0.00   0.41840   5 ;    C16-   C15-   C14-   C13
   930    933    936    939      9     0.00   1.25520   3 ;    C16-   C15-   C14-   C13
   931    930    933    934      9     0.00   0.62760   3 ;    H6R-   C16-   C15-   H5R
   931    930    933    935      9     0.00   0.62760   3 ;    H6R-   C16-   C15-   H5S
   931    930    933    936      9     0.00   0.66944   3 ;    H6R-   C16-   C15-   C14
   932    930    933    934      9     0.00   0.62760   3 ;    H6S-   C16-   C15-   H5R
   932    930    933    935      9     0.00   0.62760   3 ;    H6S-   C16-   C15-   H5S
   932    930    933    936      9     0.00   0.66944   3 ;    H6S-   C16-   C15-   C14
   933    936    939    940      9     0.00   0.66944   3 ;    C15-   C14-   C13-   H3R
   933    936    939    941      9     0.00   0.66944   3 ;    C15-   C14-   C13-   H3S
   933    936    939    942      9     0.00   0.41840   1 ;    C15-   C14-   C13-   C12
   933    936    939    942      9     0.00   0.41840   2 ;    C15-   C14-   C13-   C12
   933    936    939    942      9     0.00   0.41840   4 ;    C15-   C14-   C13-   C12
   933    936    939    942      9     0.00   0.41840   5 ;    C15-   C14-   C13-   C12
   933    936    939    942      9     0.00   1.25520   3 ;    C15-   C14-   C13-   C12
   934    933    936    937      9     0.00   0.62760   3 ;    H5R-   C15-   C14-   H4R
   934    933    936    938      9     0.00   0.62760   3 ;    H5R-   C15-   C14-   H4S
   934    933    936    939      9     0.00   0.66944   3 ;    H5R-   C15-   C14-   C13
   935    933    936    937      9     0.00   0.62760   3 ;    H5S-   C15-   C14-   H4R
   935    933    936    938      9     0.00   0.62760   3 ;    H5S-   C15-   C14-   H4S
   935    933    936    939      9     0.00   0.66944   3 ;    H5S-   C15-   C14-   C13
   936    939    942    943      9     0.00   0.66944   3 ;    C14-   C13-   C12-   H2R
   936    939    942    944      9     0.00   0.66944   3 ;    C14-   C13-   C12-   H2S
   937    936    939    940      9     0.00   0.62760   3 ;    H4R-   C14-   C13-   H3R
   937    936    939    941      9     0.00   0.62760   3 ;    H4R-   C14-   C13-   H3S
   937    936    939    942      9     0.00   0.66944   3 ;    H4R-   C14-   C13-   C12
   938    936    939    940      9     0.00   0.62760   3 ;    H4S-   C14-   C13-   H3R
   938    936    939    941      9     0.00   0.62760   3 ;    H4S-   C14-   C13-   H3S
   938    936    939    942      9     0.00   0.66944   3 ;    H4S-   C14-   C13-   C12
   940    939    942    943      9     0.00   0.62760   3 ;    H3R-   C13-   C12-   H2R
   940    939    942    944      9     0.00   0.62760   3 ;    H3R-   C13-   C12-   H2S
   941    939    942    943      9     0.00   0.62760   3 ;    H3S-   C13-   C12-   H2R
   941    939    942    944      9     0.00   0.62760   3 ;    H3S-   C13-   C12-   H2S
   945    946    949    950      9     0.00   0.62760   3 ;   H14T-  C114-  C113-  H13R
   945    946    949    951      9     0.00   0.62760   3 ;   H14T-  C114-  C113-  H13S
   945    946    949    952      9     0.00   0.66944   3 ;   H14T-  C114-  C113-  C112
   946    949    952    953      9     0.00   0.66944   3 ;   C114-  C113-  C112-  H12R
   946    949    952    954      9     0.00   0.66944   3 ;   C114-  C113-  C112-  H12S
   946    949    952    955      9     0.00   0.41840   1 ;   C114-  C113-  C112-  C111
   946    949    952    955      9     0.00   0.41840   2 ;   C114-  C113-  C112-  C111
   946    949    952    955      9     0.00   0.41840   4 ;   C114-  C113-  C112-  C111
   946    949    952    955      9     0.00   0.41840   5 ;   C114-  C113-  C112-  C111
   946    949    952    955      9     0.00   1.25520   3 ;   C114-  C113-  C112-  C111
   947    946    949    950      9     0.00   0.62760   3 ;   H14R-  C114-  C113-  H13R
   947    946    949    951      9     0.00   0.62760   3 ;   H14R-  C114-  C113-  H13S
   947    946    949    952      9     0.00   0.66944   3 ;   H14R-  C114-  C113-  C112
   948    946    949    950      9     0.00   0.62760   3 ;   H14S-  C114-  C113-  H13R
   948    946    949    951      9     0.00   0.62760   3 ;   H14S-  C114-  C113-  H13S
   948    946    949    952      9     0.00   0.66944   3 ;   H14S-  C114-  C113-  C112
   949    952    955    956      9     0.00   0.66944   3 ;   C113-  C112-  C111-  H11R
   949    952    955    957      9     0.00   0.66944   3 ;   C113-  C112-  C111-  H11S
   949    952    955    958      9     0.00   0.41840   1 ;   C113-  C112-  C111-  C110
   949    952    955    958      9     0.00   0.41840   2 ;   C113-  C112-  C111-  C110
   949    952    955    958      9     0.00   0.41840   4 ;   C113-  C112-  C111-  C110
   949    952    955    958      9     0.00   0.41840   5 ;   C113-  C112-  C111-  C110
   949    952    955    958      9     0.00   1.25520   3 ;   C113-  C112-  C111-  C110
   950    949    952    953      9     0.00   0.62760   3 ;   H13R-  C113-  C112-  H12R
   950    949    952    954      9     0.00   0.62760   3 ;   H13R-  C113-  C112-  H12S
   950    949    952    955      9     0.00   0.66944   3 ;   H13R-  C113-  C112-  C111
   951    949    952    953      9     0.00   0.62760   3 ;   H13S-  C113-  C112-  H12R
   951    949    952    954      9     0.00   0.62760   3 ;   H13S-  C113-  C112-  H12S
   951    949    952    955      9     0.00   0.66944   3 ;   H13S-  C113-  C112-  C111
   952    955    958    959      9     0.00   0.66944   3 ;   C112-  C111-  C110-  H10R
   952    955    958    960      9     0.00   0.66944   3 ;   C112-  C111-  C110-  H10S
   952    955    958    961      9     0.00   0.41840   1 ;   C112-  C111-  C110-   C19
   952    955    958    961      9     0.00   0.41840   2 ;   C112-  C111-  C110-   C19
   952    955    958    961      9     0.00   0.41840   4 ;   C112-  C111-  C110-   C19
   952    955    958    961      9     0.00   0.41840   5 ;   C112-  C111-  C110-   C19
   952    955    958    961      9     0.00   1.25520   3 ;   C112-  C111-  C110-   C19
   953    952    955    956      9     0.00   0.62760   3 ;   H12R-  C112-  C111-  H11R
   953    952    955    957      9     0.00   0.62760   3 ;   H12R-  C112-  C111-  H11S
   953    952    955    958      9     0.00   0.66944   3 ;   H12R-  C112-  C111-  C110
   954    952    955    956      9     0.00   0.62760   3 ;   H12S-  C112-  C111-  H11R
   954    952    955    957      9     0.00   0.62760   3 ;   H12S-  C112-  C111-  H11S
   954    952    955    958      9     0.00   0.66944   3 ;   H12S-  C112-  C111-  C110
   955    958    961    962      9     0.00   0.66944   3 ;   C111-  C110-   C19-   H9R
   955    958    961    963      9     0.00   0.66944   3 ;   C111-  C110-   C19-   H9S
   955    958    961    964      9     0.00   0.41840   1 ;   C111-  C110-   C19-   C18
   955    958    961    964      9     0.00   0.41840   2 ;   C111-  C110-   C19-   C18
   955    958    961    964      9     0.00   0.41840   4 ;   C111-  C110-   C19-   C18
   955    958    961    964      9     0.00   0.41840   5 ;   C111-  C110-   C19-   C18
   955    958    961    964      9     0.00   1.25520   3 ;   C111-  C110-   C19-   C18
   956    955    958    959      9     0.00   0.62760   3 ;   H11R-  C111-  C110-  H10R
   956    955    958    960      9     0.00   0.62760   3 ;   H11R-  C111-  C110-  H10S
   956    955    958    961      9     0.00   0.66944   3 ;   H11R-  C111-  C110-   C19
   957    955    958    959      9     0.00   0.62760   3 ;   H11S-  C111-  C110-  H10R
   957    955    958    960      9     0.00   0.62760   3 ;   H11S-  C111-  C110-  H10S
   957    955    958    961      9     0.00   0.66944   3 ;   H11S-  C111-  C110-   C19
   958    961    964    965      9     0.00   0.66944   3 ;   C110-   C19-   C18-   H8R
   958    961    964    966      9     0.00   0.66944   3 ;   C110-   C19-   C18-   H8S
   958    961    964    967      9     0.00   0.41840   1 ;   C110-   C19-   C18-   C17
   958    961    964    967      9     0.00   0.41840   2 ;   C110-   C19-   C18-   C17
   958    961    964    967      9     0.00   0.41840   4 ;   C110-   C19-   C18-   C17
   958    961    964    967      9     0.00   0.41840   5 ;   C110-   C19-   C18-   C17
   958    961    964    967      9     0.00   1.25520   3 ;   C110-   C19-   C18-   C17
   959    958    961    962      9     0.00   0.62760   3 ;   H10R-  C110-   C19-   H9R
   959    958    961    963      9     0.00   0.62760   3 ;   H10R-  C110-   C19-   H9S
   959    958    961    964      9     0.00   0.66944   3 ;   H10R-  C110-   C19-   C18
   960    958    961    962      9     0.00   0.62760   3 ;   H10S-  C110-   C19-   H9R
   960    958    961    963      9     0.00   0.62760   3 ;   H10S-  C110-   C19-   H9S
   960    958    961    964      9     0.00   0.66944   3 ;   H10S-  C110-   C19-   C18
   961    964    967    968      9     0.00   0.66944   3 ;    C19-   C18-   C17-   H7R
   961    964    967    969      9     0.00   0.66944   3 ;    C19-   C18-   C17-   H7S
   961    964    967    970      9     0.00   0.41840   1 ;    C19-   C18-   C17-   C16
   961    964    967    970      9     0.00   0.41840   2 ;    C19-   C18-   C17-   C16
   961    964    967    970      9     0.00   0.41840   4 ;    C19-   C18-   C17-   C16
   961    964    967    970      9     0.00   0.41840   5 ;    C19-   C18-   C17-   C16
   961    964    967    970      9     0.00   1.25520   3 ;    C19-   C18-   C17-   C16
   962    961    964    965      9     0.00   0.62760   3 ;    H9R-   C19-   C18-   H8R
   962    961    964    966      9     0.00   0.62760   3 ;    H9R-   C19-   C18-   H8S
   962    961    964    967      9     0.00   0.66944   3 ;    H9R-   C19-   C18-   C17
   963    961    964    965      9     0.00   0.62760   3 ;    H9S-   C19-   C18-   H8R
   963    961    964    966      9     0.00   0.62760   3 ;    H9S-   C19-   C18-   H8S
   963    961    964    967      9     0.00   0.66944   3 ;    H9S-   C19-   C18-   C17
   964    967    970    971      9     0.00   0.66944   3 ;    C18-   C17-   C16-   H6R
   964    967    970    972      9     0.00   0.66944   3 ;    C18-   C17-   C16-   H6S
   964    967    970    973      9     0.00   0.41840   1 ;    C18-   C17-   C16-   C15
   964    967    970    973      9     0.00   0.41840   2 ;    C18-   C17-   C16-   C15
   964    967    970    973      9     0.00   0.41840   4 ;    C18-   C17-   C16-   C15
   964    967    970    973      9     0.00   0.41840   5 ;    C18-   C17-   C16-   C15
   964    967    970    973      9     0.00   1.25520   3 ;    C18-   C17-   C16-   C15
   965    964    967    968      9     0.00   0.62760   3 ;    H8R-   C18-   C17-   H7R
   965    964    967    969      9     0.00   0.62760   3 ;    H8R-   C18-   C17-   H7S
   965    964    967    970      9     0.00   0.66944   3 ;    H8R-   C18-   C17-   C16
   966    964    967    968      9     0.00   0.62760   3 ;    H8S-   C18-   C17-   H7R
   966    964    967    969      9     0.00   0.62760   3 ;    H8S-   C18-   C17-   H7S
   966    964    967    970      9     0.00   0.66944   3 ;    H8S-   C18-   C17-   C16
   967    970    973    974      9     0.00   0.66944   3 ;    C17-   C16-   C15-   H5R
   967    970    973    975      9     0.00   0.66944   3 ;    C17-   C16-   C15-   H5S
   967    970    973    976      9     0.00   0.41840   1 ;    C17-   C16-   C15-   C14
   967    970    973    976      9     0.00   0.41840   2 ;    C17-   C16-   C15-   C14
   967    970    973    976      9     0.00   0.41840   4 ;    C17-   C16-   C15-   C14
   967    970    973    976      9     0.00   0.41840   5 ;    C17-   C16-   C15-   C14
   967    970    973    976      9     0.00   1.25520   3 ;    C17-   C16-   C15-   C14
   968    967    970    971      9     0.00   0.62760   3 ;    H7R-   C17-   C16-   H6R
   968    967    970    972      9     0.00   0.62760   3 ;    H7R-   C17-   C16-   H6S
   968    967    970    973      9     0.00   0.66944   3 ;    H7R-   C17-   C16-   C15
   969    967    970    971      9     0.00   0.62760   3 ;    H7S-   C17-   C16-   H6R
   969    967    970    972      9     0.00   0.62760   3 ;    H7S-   C17-   C16-   H6S
   969    967    970    973      9     0.00   0.66944   3 ;    H7S-   C17-   C16-   C15
   970    973    976    977      9     0.00   0.66944   3 ;    C16-   C15-   C14-   H4R
   970    973    976    978      9     0.00   0.66944   3 ;    C16-   C15-   C14-   H4S
   970    973    976    979      9     0.00   0.41840   1 ;    C16-   C15-   C14-   C13
   970    973    976    979      9     0.00   0.41840   2 ;    C16-   C15-   C14-   C13
   970    973    976    979      9     0.00   0.41840   4 ;    C16-   C15-   C14-   C13
   970    973    976    979      9     0.00   0.41840   5 ;    C16-   C15-   C14-   C13
   970    973    976    979      9     0.00   1.25520   3 ;    C16-   C15-   C14-   C13
   971    970    973    974      9     0.00   0.62760   3 ;    H6R-   C16-   C15-   H5R
   971    970    973    975      9     0.00   0.62760   3 ;    H6R-   C16-   C15-   H5S
   971    970    973    976      9     0.00   0.66944   3 ;    H6R-   C16-   C15-   C14
   972    970    973    974      9     0.00   0.62760   3 ;    H6S-   C16-   C15-   H5R
   972    970    973    975      9     0.00   0.62760   3 ;    H6S-   C16-   C15-   H5S
   972    970    973    976      9     0.00   0.66944   3 ;    H6S-   C16-   C15-   C14
   973    976    979    980      9     0.00   0.66944   3 ;    C15-   C14-   C13-   H3R
   973    976    979    981      9     0.00   0.66944   3 ;    C15-   C14-   C13-   H3S
   973    976    979    982      9     0.00   0.41840   1 ;    C15-   C14-   C13-   C12
   973    976    979    982      9     0.00   0.41840   2 ;    C15-   C14-   C13-   C12
   973    976    979    982      9     0.00   0.41840   4 ;    C15-   C14-   C13-   C12
   973    976    979    982      9     0.00   0.41840   5 ;    C15-   C14-   C13-   C12
   973    976    979    982      9     0.00   1.25520   3 ;    C15-   C14-   C13-   C12
   974    973    976    977      9     0.00   0.62760   3 ;    H5R-   C15-   C14-   H4R
   974    973    976    978      9     0.00   0.62760   3 ;    H5R-   C15-   C14-   H4S
   974    973    976    979      9     0.00   0.66944   3 ;    H5R-   C15-   C14-   C13
   975    973    976    977      9     0.00   0.62760   3 ;    H5S-   C15-   C14-   H4R
   975    973    976    978      9     0.00   0.62760   3 ;    H5S-   C15-   C14-   H4S
   975    973    976    979      9     0.00   0.66944   3 ;    H5S-   C15-   C14-   C13
   976    979    982    983      9     0.00   0.66944   3 ;    C14-   C13-   C12-   H2R
   976    979    982    984      9     0.00   0.66944   3 ;    C14-   C13-   C12-   H2S
   976    979    982    985      9     0.00   0.65270   3 ;    C14-   C13-   C12-   C11
   977    976    979    980      9     0.00   0.62760   3 ;    H4R-   C14-   C13-   H3R
   977    976    979    981      9     0.00   0.62760   3 ;    H4R-   C14-   C13-   H3S
   977    976    979    982      9     0.00   0.66944   3 ;    H4R-   C14-   C13-   C12
   978    976    979    980      9     0.00   0.62760   3 ;    H4S-   C14-   C13-   H3R
   978    976    979    981      9     0.00   0.62760   3 ;    H4S-   C14-   C13-   H3S
   978    976    979    982      9     0.00   0.66944   3 ;    H4S-   C14-   C13-   C12
   979    982    985    986      9   180.00   0.00000   2 ;    C13-   C12-   C11-   O12
   979    982    985    987      9   180.00   0.00000   2 ;    C13-   C12-   C11-   O11
   980    979    982    983      9     0.00   0.62760   3 ;    H3R-   C13-   C12-   H2R
   980    979    982    984      9     0.00   0.62760   3 ;    H3R-   C13-   C12-   H2S
   980    979    982    985      9     0.00   0.65270   3 ;    H3R-   C13-   C12-   C11
   981    979    982    983      9     0.00   0.62760   3 ;    H3S-   C13-   C12-   H2R
   981    979    982    984      9     0.00   0.62760   3 ;    H3S-   C13-   C12-   H2S
   981    979    982    985      9     0.00   0.65270   3 ;    H3S-   C13-   C12-   C11
   982    985    987    988      9   180.00  11.29680   2 ;    C12-   C11-   O11-    C1
   983    982    985    986      9     0.00   3.34720   1 ;    H2R-   C12-   C11-   O12
   983    982    985    986      9   180.00   0.33472   3 ;    H2R-   C12-   C11-   O12
   983    982    985    987      9   180.00   0.00000   2 ;    H2R-   C12-   C11-   O11
   984    982    985    986      9     0.00   3.34720   1 ;    H2S-   C12-   C11-   O12
   984    982    985    986      9   180.00   0.33472   3 ;    H2S-   C12-   C11-   O12
   984    982    985    987      9   180.00   0.00000   2 ;    H2S-   C12-   C11-   O11
   985    987    988    989      9     0.00   1.60247   3 ;    C11-   O11-    C1-    HR
   985    987    988    990      9     0.00   1.60247   3 ;    C11-   O11-    C1-    HS
   985    987    988    991      9     0.00  -0.41840   1 ;    C11-   O11-    C1-    C2
   986    985    987    988      9   180.00   5.85760   1 ;    O12-   C11-   O11-    C1
   986    985    987    988      9   180.00  11.29680   2 ;    O12-   C11-   O11-    C1
   987    988    991    992      9     0.00   0.00000   0 ;    O11-    C1-    C2-    HX
   987    988    991    992      9     0.00   1.04600   1 ;    O11-    C1-    C2-    HX
   987    988    991    993      9     0.00   0.00000   0 ;    O11-    C1-    C2-    C3
   987    988    991    993      9     0.00   0.00000   0 ;    O11-    C1-    C2-    C3
   987    988    991    993      9     0.00   0.00000   0 ;    O11-    C1-    C2-    C3
   987    988    991    993      9     0.00   0.00000   0 ;    O11-    C1-    C2-    C3
   987    988    991    993      9     0.00   0.00000   0 ;    O11-    C1-    C2-    C3
   987    988    991   1020      9     0.00   1.25520   2 ;    O11-    C1-    C2-   O21
   987    988    991   1020      9     0.00   4.18400   3 ;    O11-    C1-    C2-   O21
   987    988    991   1020      9   180.00  -0.41840   1 ;    O11-    C1-    C2-   O21
   988    991    993    994      9     0.00   0.65270   3 ;     C1-    C2-    C3-    HA
   988    991    993    995      9     0.00   0.65270   3 ;     C1-    C2-    C3-    HB
   988    991    993    996      9   180.00   3.34720   1 ;     C1-    C2-    C3-   O31
   988    991   1020   1021      9     0.00  -0.41840   1 ;     C1-    C2-   O21-   C21
   989    988    991    992      9     0.00   0.65270   3 ;     HR-    C1-    C2-    HX
   989    988    991    993      9     0.00   0.65270   3 ;     HR-    C1-    C2-    C3
   989    988    991   1020      9     0.00   0.00000   0 ;     HR-    C1-    C2-   O21
   989    988    991   1020      9     0.00   1.04600   1 ;     HR-    C1-    C2-   O21
   990    988    991    992      9     0.00   0.65270   3 ;     HS-    C1-    C2-    HX
   990    988    991    993      9     0.00   0.65270   3 ;     HS-    C1-    C2-    C3
   990    988    991   1020      9     0.00   0.00000   0 ;     HS-    C1-    C2-   O21
   990    988    991   1020      9     0.00   1.04600   1 ;     HS-    C1-    C2-   O21
   991    993    996    997      9     0.00   0.00000   0 ;     C2-    C3-   O31-   P31
   991    993    996    997      9   180.00  -3.34720   2 ;     C2-    C3-   O31-   P31
   991   1020   1021   1022      9   180.00   5.85760   1 ;     C2-   O21-   C21-   O22
   991   1020   1021   1022      9   180.00  11.29680   2 ;     C2-   O21-   C21-   O22
   991   1020   1021   1060      9   180.00  11.29680   2 ;     C2-   O21-   C21-   C12
   992    991    993    994      9     0.00   0.65270   3 ;     HX-    C2-    C3-    HA
   992    991    993    995      9     0.00   0.65270   3 ;     HX-    C2-    C3-    HB
   992    991    993    996      9     0.00   0.00000   0 ;     HX-    C2-    C3-   O31
   992    991    993    996      9     0.00   1.04600   1 ;     HX-    C2-    C3-   O31
   992    991   1020   1021      9     0.00   1.60247   3 ;     HX-    C2-   O21-   C21
   993    991   1020   1021      9     0.00  -0.41840   1 ;     C3-    C2-   O21-   C21
   993    996    997    998      9     0.00   2.51040   3 ;     C3-   O31-   P31-   O32
   993    996    997    998      9     0.00   9.62320   2 ;     C3-   O31-   P31-   O32
   993    996    997   1018      9     0.00   0.00000   0 ;     C3-   O31-   P31-   O33
   993    996    997   1018      9     0.00   0.00000   0 ;     C3-   O31-   P31-   O33
   993    996    997   1018      9     0.00   0.00000   0 ;     C3-   O31-   P31-   O33
   993    996    997   1018      9     0.00   0.00000   0 ;     C3-   O31-   P31-   O33
   993    996    997   1018      9     0.00   0.83680   2 ;     C3-   O31-   P31-   O33
   993    996    997   1019      9     0.00   0.00000   0 ;     C3-   O31-   P31-   O34
   993    996    997   1019      9     0.00   0.00000   0 ;     C3-   O31-   P31-   O34
   993    996    997   1019      9     0.00   0.00000   0 ;     C3-   O31-   P31-   O34
   993    996    997   1019      9     0.00   0.00000   0 ;     C3-   O31-   P31-   O34
   993    996    997   1019      9     0.00   0.83680   2 ;     C3-   O31-   P31-   O34
   994    993    991   1020      9     0.00   0.00000   0 ;     HA-    C3-    C2-   O21
   994    993    991   1020      9     0.00   1.04600   1 ;     HA-    C3-    C2-   O21
   994    993    996    997      9     0.00   0.00000   0 ;     HA-    C3-   O31-   P31
   994    993    996    997      9     0.00   0.00000   0 ;     HA-    C3-   O31-   P31
   994    993    996    997      9     0.00   0.00000   0 ;     HA-    C3-   O31-   P31
   994    993    996    997      9     0.00   0.00000   0 ;     HA-    C3-   O31-   P31
   994    993    996    997      9     0.00   1.60247   3 ;     HA-    C3-   O31-   P31
   995    993    991   1020      9     0.00   0.00000   0 ;     HB-    C3-    C2-   O21
   995    993    991   1020      9     0.00   1.04600   1 ;     HB-    C3-    C2-   O21
   995    993    996    997      9     0.00   0.00000   0 ;     HB-    C3-   O31-   P31
   995    993    996    997      9     0.00   0.00000   0 ;     HB-    C3-   O31-   P31
   995    993    996    997      9     0.00   0.00000   0 ;     HB-    C3-   O31-   P31
   995    993    996    997      9     0.00   0.00000   0 ;     HB-    C3-   O31-   P31
   995    993    996    997      9     0.00   1.60247   3 ;     HB-    C3-   O31-   P31
   996    993    991   1020      9     0.00   0.00000   0 ;    O31-    C3-    C2-   O21
   996    993    991   1020      9     0.00   0.00000   0 ;    O31-    C3-    C2-   O21
   996    993    991   1020      9     0.00   0.00000   0 ;    O31-    C3-    C2-   O21
   996    993    991   1020      9     0.00   0.00000   0 ;    O31-    C3-    C2-   O21
   996    993    991   1020      9     0.00   0.00000   0 ;    O31-    C3-    C2-   O21
   996    997    998    999      9     0.00   2.51040   3 ;    O31-   P31-   O32-   C31
   996    997    998    999      9     0.00   9.62320   2 ;    O31-   P31-   O32-   C31
   997    998    999   1000      9     0.00   0.00000   0 ;    P31-   O32-   C31-   H1A
   997    998    999   1000      9     0.00   0.00000   0 ;    P31-   O32-   C31-   H1A
   997    998    999   1000      9     0.00   0.00000   0 ;    P31-   O32-   C31-   H1A
   997    998    999   1000      9     0.00   0.00000   0 ;    P31-   O32-   C31-   H1A
   997    998    999   1000      9     0.00   1.60247   3 ;    P31-   O32-   C31-   H1A
   997    998    999   1001      9     0.00   0.00000   0 ;    P31-   O32-   C31-   H1B
   997    998    999   1001      9     0.00   0.00000   0 ;    P31-   O32-   C31-   H1B
   997    998    999   1001      9     0.00   0.00000   0 ;    P31-   O32-   C31-   H1B
   997    998    999   1001      9     0.00   0.00000   0 ;    P31-   O32-   C31-   H1B
   997    998    999   1001      9     0.00   1.60247   3 ;    P31-   O32-   C31-   H1B
   997    998    999   1002      9     0.00   0.00000   0 ;    P31-   O32-   C31-   C32
   997    998    999   1002      9   180.00  -3.34720   2 ;    P31-   O32-   C31-   C32
   998    999   1002   1003      9     0.00   0.65270   3 ;    O32-   C31-   C32-   H2A
   998    999   1002   1004      9     0.00   0.65270   3 ;    O32-   C31-   C32-   H2B
   998    999   1002   1005      9     0.00   4.18400   3 ;    O32-   C31-   C32-   N31
   999    998    997   1018      9     0.00   0.00000   0 ;    C31-   O32-   P31-   O33
   999    998    997   1018      9     0.00   0.00000   0 ;    C31-   O32-   P31-   O33
   999    998    997   1018      9     0.00   0.00000   0 ;    C31-   O32-   P31-   O33
   999    998    997   1018      9     0.00   0.00000   0 ;    C31-   O32-   P31-   O33
   999    998    997   1018      9     0.00   0.83680   2 ;    C31-   O32-   P31-   O33
   999    998    997   1019      9     0.00   0.00000   0 ;    C31-   O32-   P31-   O34
   999    998    997   1019      9     0.00   0.00000   0 ;    C31-   O32-   P31-   O34
   999    998    997   1019      9     0.00   0.00000   0 ;    C31-   O32-   P31-   O34
   999    998    997   1019      9     0.00   0.00000   0 ;    C31-   O32-   P31-   O34
   999    998    997   1019      9     0.00   0.83680   2 ;    C31-   O32-   P31-   O34
   999   1002   1005   1006      9     0.00   0.65270   3 ;    C31-   C32-   N31-   C33
   999   1002   1005   1010      9     0.00   0.65270   3 ;    C31-   C32-   N31-   C34
   999   1002   1005   1014      9     0.00   0.65270   3 ;    C31-   C32-   N31-   C35
  1000    999   1002   1003      9     0.00   0.65270   3 ;    H1A-   C31-   C32-   H2A
  1000    999   1002   1004      9     0.00   0.65270   3 ;    H1A-   C31-   C32-   H2B
  1000    999   1002   1005      9     0.00   0.65270   3 ;    H1A-   C31-   C32-   N31
  1001    999   1002   1003      9     0.00   0.65270   3 ;    H1B-   C31-   C32-   H2A
  1001    999   1002   1004      9     0.00   0.65270   3 ;    H1B-   C31-   C32-   H2B
  1001    999   1002   1005      9     0.00   0.65270   3 ;    H1B-   C31-   C32-   N31
  1002   1005   1006   1007      9     0.00   0.65270   3 ;    C32-   N31-   C33-   H3A
  1002   1005   1006   1008      9     0.00   0.65270   3 ;    C32-   N31-   C33-   H3B
  1002   1005   1006   1009      9     0.00   0.65270   3 ;    C32-   N31-   C33-   H3C
  1002   1005   1010   1011      9     0.00   0.65270   3 ;    C32-   N31-   C34-   H4A
  1002   1005   1010   1012      9     0.00   0.65270   3 ;    C32-   N31-   C34-   H4B
  1002   1005   1010   1013      9     0.00   0.65270   3 ;    C32-   N31-   C34-   H4C
  1002   1005   1014   1015      9     0.00   0.65270   3 ;    C32-   N31-   C35-   H5A
  1002   1005   1014   1016      9     0.00   0.65270   3 ;    C32-   N31-   C35-   H5B
  1002   1005   1014   1017      9     0.00   0.65270   3 ;    C32-   N31-   C35-   H5C
  1003   1002   1005   1006      9     0.00   0.65270   3 ;    H2A-   C32-   N31-   C33
  1003   1002   1005   1010      9     0.00   0.65270   3 ;    H2A-   C32-   N31-   C34
  1003   1002   1005   1014      9     0.00   0.65270   3 ;    H2A-   C32-   N31-   C35
  1004   1002   1005   1006      9     0.00   0.65270   3 ;    H2B-   C32-   N31-   C33
  1004   1002   1005   1010      9     0.00   0.65270   3 ;    H2B-   C32-   N31-   C34
  1004   1002   1005   1014      9     0.00   0.65270   3 ;    H2B-   C32-   N31-   C35
  1006   1005   1010   1011      9     0.00   0.65270   3 ;    C33-   N31-   C34-   H4A
  1006   1005   1010   1012      9     0.00   0.65270   3 ;    C33-   N31-   C34-   H4B
  1006   1005   1010   1013      9     0.00   0.65270   3 ;    C33-   N31-   C34-   H4C
  1006   1005   1014   1015      9     0.00   0.65270   3 ;    C33-   N31-   C35-   H5A
  1006   1005   1014   1016      9     0.00   0.65270   3 ;    C33-   N31-   C35-   H5B
  1006   1005   1014   1017      9     0.00   0.65270   3 ;    C33-   N31-   C35-   H5C
  1007   1006   1005   1010      9     0.00   0.65270   3 ;    H3A-   C33-   N31-   C34
  1007   1006   1005   1014      9     0.00   0.65270   3 ;    H3A-   C33-   N31-   C35
  1008   1006   1005   1010      9     0.00   0.65270   3 ;    H3B-   C33-   N31-   C34
  1008   1006   1005   1014      9     0.00   0.65270   3 ;    H3B-   C33-   N31-   C35
  1009   1006   1005   1010      9     0.00   0.65270   3 ;    H3C-   C33-   N31-   C34
  1009   1006   1005   1014      9     0.00   0.65270   3 ;    H3C-   C33-   N31-   C35
  1010   1005   1014   1015      9     0.00   0.65270   3 ;    C34-   N31-   C35-   H5A
  1010   1005   1014   1016      9     0.00   0.65270   3 ;    C34-   N31-   C35-   H5B
  1010   1005   1014   1017      9     0.00   0.65270   3 ;    C34-   N31-   C35-   H5C
  1011   1010   1005   1014      9     0.00   0.65270   3 ;    H4A-   C34-   N31-   C35
  1012   1010   1005   1014      9     0.00   0.65270   3 ;    H4B-   C34-   N31-   C35
  1013   1010   1005   1014      9     0.00   0.65270   3 ;    H4C-   C34-   N31-   C35
  1020   1021   1060   1057      9   180.00   0.00000   2 ;    O21-   C21-   C12-   C13
  1020   1021   1060   1061      9   180.00   0.00000   2 ;    O21-   C21-   C12-   H2R
  1020   1021   1060   1062      9   180.00   0.00000   2 ;    O21-   C21-   C12-   H2S
  1021   1060   1057   1054      9     0.00   0.65270   3 ;    C21-   C12-   C13-   C14
  1021   1060   1057   1058      9     0.00   0.65270   3 ;    C21-   C12-   C13-   H3R
  1021   1060   1057   1059      9     0.00   0.65270   3 ;    C21-   C12-   C13-   H3S
  1022   1021   1060   1057      9   180.00   0.00000   2 ;    O22-   C21-   C12-   C13
  1022   1021   1060   1061      9     0.00   3.34720   1 ;    O22-   C21-   C12-   H2R
  1022   1021   1060   1061      9   180.00   0.33472   3 ;    O22-   C21-   C12-   H2R
  1022   1021   1060   1062      9     0.00   3.34720   1 ;    O22-   C21-   C12-   H2S
  1022   1021   1060   1062      9   180.00   0.33472   3 ;    O22-   C21-   C12-   H2S
  1023   1024   1027   1028      9     0.00   0.62760   3 ;   H14T-  C114-  C113-  H13R
  1023   1024   1027   1029      9     0.00   0.62760   3 ;   H14T-  C114-  C113-  H13S
  1023   1024   1027   1030      9     0.00   0.66944   3 ;   H14T-  C114-  C113-  C112
  1024   1027   1030   1031      9     0.00   0.66944   3 ;   C114-  C113-  C112-  H12R
  1024   1027   1030   1032      9     0.00   0.66944   3 ;   C114-  C113-  C112-  H12S
  1024   1027   1030   1033      9     0.00   0.41840   1 ;   C114-  C113-  C112-  C111
  1024   1027   1030   1033      9     0.00   0.41840   2 ;   C114-  C113-  C112-  C111
  1024   1027   1030   1033      9     0.00   0.41840   4 ;   C114-  C113-  C112-  C111
  1024   1027   1030   1033      9     0.00   0.41840   5 ;   C114-  C113-  C112-  C111
  1024   1027   1030   1033      9     0.00   1.25520   3 ;   C114-  C113-  C112-  C111
  1025   1024   1027   1028      9     0.00   0.62760   3 ;   H14R-  C114-  C113-  H13R
  1025   1024   1027   1029      9     0.00   0.62760   3 ;   H14R-  C114-  C113-  H13S
  1025   1024   1027   1030      9     0.00   0.66944   3 ;   H14R-  C114-  C113-  C112
  1026   1024   1027   1028      9     0.00   0.62760   3 ;   H14S-  C114-  C113-  H13R
  1026   1024   1027   1029      9     0.00   0.62760   3 ;   H14S-  C114-  C113-  H13S
  1026   1024   1027   1030      9     0.00   0.66944   3 ;   H14S-  C114-  C113-  C112
  1027   1030   1033   1034      9     0.00   0.66944   3 ;   C113-  C112-  C111-  H11R
  1027   1030   1033   1035      9     0.00   0.66944   3 ;   C113-  C112-  C111-  H11S
  1027   1030   1033   1036      9     0.00   0.41840   1 ;   C113-  C112-  C111-  C110
  1027   1030   1033   1036      9     0.00   0.41840   2 ;   C113-  C112-  C111-  C110
  1027   1030   1033   1036      9     0.00   0.41840   4 ;   C113-  C112-  C111-  C110
  1027   1030   1033   1036      9     0.00   0.41840   5 ;   C113-  C112-  C111-  C110
  1027   1030   1033   1036      9     0.00   1.25520   3 ;   C113-  C112-  C111-  C110
  1028   1027   1030   1031      9     0.00   0.62760   3 ;   H13R-  C113-  C112-  H12R
  1028   1027   1030   1032      9     0.00   0.62760   3 ;   H13R-  C113-  C112-  H12S
  1028   1027   1030   1033      9     0.00   0.66944   3 ;   H13R-  C113-  C112-  C111
  1029   1027   1030   1031      9     0.00   0.62760   3 ;   H13S-  C113-  C112-  H12R
  1029   1027   1030   1032      9     0.00   0.62760   3 ;   H13S-  C113-  C112-  H12S
  1029   1027   1030   1033      9     0.00   0.66944   3 ;   H13S-  C113-  C112-  C111
  1030   1033   1036   1037      9     0.00   0.66944   3 ;   C112-  C111-  C110-  H10R
  1030   1033   1036   1038      9     0.00   0.66944   3 ;   C112-  C111-  C110-  H10S
  1030   1033   1036   1039      9     0.00   0.41840   1 ;   C112-  C111-  C110-   C19
  1030   1033   1036   1039      9     0.00   0.41840   2 ;   C112-  C111-  C110-   C19
  1030   1033   1036   1039      9     0.00   0.41840   4 ;   C112-  C111-  C110-   C19
  1030   1033   1036   1039      9     0.00   0.41840   5 ;   C112-  C111-  C110-   C19
  1030   1033   1036   1039      9     0.00   1.25520   3 ;   C112-  C111-  C110-   C19
  1031   1030   1033   1034      9     0.00   0.62760   3 ;   H12R-  C112-  C111-  H11R
  1031   1030   1033   1035      9     0.00   0.62760   3 ;   H12R-  C112-  C111-  H11S
  1031   1030   1033   1036      9     0.00   0.66944   3 ;   H12R-  C112-  C111-  C110
  1032   1030   1033   1034      9     0.00   0.62760   3 ;   H12S-  C112-  C111-  H11R
  1032   1030   1033   1035      9     0.00   0.62760   3 ;   H12S-  C112-  C111-  H11S
  1032   1030   1033   1036      9     0.00   0.66944   3 ;   H12S-  C112-  C111-  C110
  1033   1036   1039   1040      9     0.00   0.66944   3 ;   C111-  C110-   C19-   H9R
  1033   1036   1039   1041      9     0.00   0.66944   3 ;   C111-  C110-   C19-   H9S
  1033   1036   1039   1042      9     0.00   0.41840   1 ;   C111-  C110-   C19-   C18
  1033   1036   1039   1042      9     0.00   0.41840   2 ;   C111-  C110-   C19-   C18
  1033   1036   1039   1042      9     0.00   0.41840   4 ;   C111-  C110-   C19-   C18
  1033   1036   1039   1042      9     0.00   0.41840   5 ;   C111-  C110-   C19-   C18
  1033   1036   1039   1042      9     0.00   1.25520   3 ;   C111-  C110-   C19-   C18
  1034   1033   1036   1037      9     0.00   0.62760   3 ;   H11R-  C111-  C110-  H10R
  1034   1033   1036   1038      9     0.00   0.62760   3 ;   H11R-  C111-  C110-  H10S
  1034   1033   1036   1039      9     0.00   0.66944   3 ;   H11R-  C111-  C110-   C19
  1035   1033   1036   1037      9     0.00   0.62760   3 ;   H11S-  C111-  C110-  H10R
  1035   1033   1036   1038      9     0.00   0.62760   3 ;   H11S-  C111-  C110-  H10S
  1035   1033   1036   1039      9     0.00   0.66944   3 ;   H11S-  C111-  C110-   C19
  1036   1039   1042   1043      9     0.00   0.66944   3 ;   C110-   C19-   C18-   H8R
  1036   1039   1042   1044      9     0.00   0.66944   3 ;   C110-   C19-   C18-   H8S
  1036   1039   1042   1045      9     0.00   0.41840   1 ;   C110-   C19-   C18-   C17
  1036   1039   1042   1045      9     0.00   0.41840   2 ;   C110-   C19-   C18-   C17
  1036   1039   1042   1045      9     0.00   0.41840   4 ;   C110-   C19-   C18-   C17
  1036   1039   1042   1045      9     0.00   0.41840   5 ;   C110-   C19-   C18-   C17
  1036   1039   1042   1045      9     0.00   1.25520   3 ;   C110-   C19-   C18-   C17
  1037   1036   1039   1040      9     0.00   0.62760   3 ;   H10R-  C110-   C19-   H9R
  1037   1036   1039   1041      9     0.00   0.62760   3 ;   H10R-  C110-   C19-   H9S
  1037   1036   1039   1042      9     0.00   0.66944   3 ;   H10R-  C110-   C19-   C18
  1038   1036   1039   1040      9     0.00   0.62760   3 ;   H10S-  C110-   C19-   H9R
  1038   1036   1039   1041      9     0.00   0.62760   3 ;   H10S-  C110-   C19-   H9S
  1038   1036   1039   1042      9     0.00   0.66944   3 ;   H10S-  C110-   C19-   C18
  1039   1042   1045   1046      9     0.00   0.66944   3 ;    C19-   C18-   C17-   H7R
  1039   1042   1045   1047      9     0.00   0.66944   3 ;    C19-   C18-   C17-   H7S
  1039   1042   1045   1048      9     0.00   0.41840   1 ;    C19-   C18-   C17-   C16
  1039   1042   1045   1048      9     0.00   0.41840   2 ;    C19-   C18-   C17-   C16
  1039   1042   1045   1048      9     0.00   0.41840   4 ;    C19-   C18-   C17-   C16
  1039   1042   1045   1048      9     0.00   0.41840   5 ;    C19-   C18-   C17-   C16
  1039   1042   1045   1048      9     0.00   1.25520   3 ;    C19-   C18-   C17-   C16
  1040   1039   1042   1043      9     0.00   0.62760   3 ;    H9R-   C19-   C18-   H8R
  1040   1039   1042   1044      9     0.00   0.62760   3 ;    H9R-   C19-   C18-   H8S
  1040   1039   1042   1045      9     0.00   0.66944   3 ;    H9R-   C19-   C18-   C17
  1041   1039   1042   1043      9     0.00   0.62760   3 ;    H9S-   C19-   C18-   H8R
  1041   1039   1042   1044      9     0.00   0.62760   3 ;    H9S-   C19-   C18-   H8S
  1041   1039   1042   1045      9     0.00   0.66944   3 ;    H9S-   C19-   C18-   C17
  1042   1045   1048   1049      9     0.00   0.66944   3 ;    C18-   C17-   C16-   H6R
  1042   1045   1048   1050      9     0.00   0.66944   3 ;    C18-   C17-   C16-   H6S
  1042   1045   1048   1051      9     0.00   0.41840   1 ;    C18-   C17-   C16-   C15
  1042   1045   1048   1051      9     0.00   0.41840   2 ;    C18-   C17-   C16-   C15
  1042   1045   1048   1051      9     0.00   0.41840   4 ;    C18-   C17-   C16-   C15
  1042   1045   1048   1051      9     0.00   0.41840   5 ;    C18-   C17-   C16-   C15
  1042   1045   1048   1051      9     0.00   1.25520   3 ;    C18-   C17-   C16-   C15
  1043   1042   1045   1046      9     0.00   0.62760   3 ;    H8R-   C18-   C17-   H7R
  1043   1042   1045   1047      9     0.00   0.62760   3 ;    H8R-   C18-   C17-   H7S
  1043   1042   1045   1048      9     0.00   0.66944   3 ;    H8R-   C18-   C17-   C16
  1044   1042   1045   1046      9     0.00   0.62760   3 ;    H8S-   C18-   C17-   H7R
  1044   1042   1045   1047      9     0.00   0.62760   3 ;    H8S-   C18-   C17-   H7S
  1044   1042   1045   1048      9     0.00   0.66944   3 ;    H8S-   C18-   C17-   C16
  1045   1048   1051   1052      9     0.00   0.66944   3 ;    C17-   C16-   C15-   H5R
  1045   1048   1051   1053      9     0.00   0.66944   3 ;    C17-   C16-   C15-   H5S
  1045   1048   1051   1054      9     0.00   0.41840   1 ;    C17-   C16-   C15-   C14
  1045   1048   1051   1054      9     0.00   0.41840   2 ;    C17-   C16-   C15-   C14
  1045   1048   1051   1054      9     0.00   0.41840   4 ;    C17-   C16-   C15-   C14
  1045   1048   1051   1054      9     0.00   0.41840   5 ;    C17-   C16-   C15-   C14
  1045   1048   1051   1054      9     0.00   1.25520   3 ;    C17-   C16-   C15-   C14
  1046   1045   1048   1049      9     0.00   0.62760   3 ;    H7R-   C17-   C16-   H6R
  1046   1045   1048   1050      9     0.00   0.62760   3 ;    H7R-   C17-   C16-   H6S
  1046   1045   1048   1051      9     0.00   0.66944   3 ;    H7R-   C17-   C16-   C15
  1047   1045   1048   1049      9     0.00   0.62760   3 ;    H7S-   C17-   C16-   H6R
  1047   1045   1048   1050      9     0.00   0.62760   3 ;    H7S-   C17-   C16-   H6S
  1047   1045   1048   1051      9     0.00   0.66944   3 ;    H7S-   C17-   C16-   C15
  1048   1051   1054   1055      9     0.00   0.66944   3 ;    C16-   C15-   C14-   H4R
  1048   1051   1054   1056      9     0.00   0.66944   3 ;    C16-   C15-   C14-   H4S
  1048   1051   1054   1057      9     0.00   0.41840   1 ;    C16-   C15-   C14-   C13
  1048   1051   1054   1057      9     0.00   0.41840   2 ;    C16-   C15-   C14-   C13
  1048   1051   1054   1057      9     0.00   0.41840   4 ;    C16-   C15-   C14-   C13
  1048   1051   1054   1057      9     0.00   0.41840   5 ;    C16-   C15-   C14-   C13
  1048   1051   1054   1057      9     0.00   1.25520   3 ;    C16-   C15-   C14-   C13
  1049   1048   1051   1052      9     0.00   0.62760   3 ;    H6R-   C16-   C15-   H5R
  1049   1048   1051   1053      9     0.00   0.62760   3 ;    H6R-   C16-   C15-   H5S
  1049   1048   1051   1054      9     0.00   0.66944   3 ;    H6R-   C16-   C15-   C14
  1050   1048   1051   1052      9     0.00   0.62760   3 ;    H6S-   C16-   C15-   H5R
  1050   1048   1051   1053      9     0.00   0.62760   3 ;    H6S-   C16-   C15-   H5S
  1050   1048   1051   1054      9     0.00   0.66944   3 ;    H6S-   C16-   C15-   C14
  1051   1054   1057   1058      9     0.00   0.66944   3 ;    C15-   C14-   C13-   H3R
  1051   1054   1057   1059      9     0.00   0.66944   3 ;    C15-   C14-   C13-   H3S
  1051   1054   1057   1060      9     0.00   0.41840   1 ;    C15-   C14-   C13-   C12
  1051   1054   1057   1060      9     0.00   0.41840   2 ;    C15-   C14-   C13-   C12
  1051   1054   1057   1060      9     0.00   0.41840   4 ;    C15-   C14-   C13-   C12
  1051   1054   1057   1060      9     0.00   0.41840   5 ;    C15-   C14-   C13-   C12
  1051   1054   1057   1060      9     0.00   1.25520   3 ;    C15-   C14-   C13-   C12
  1052   1051   1054   1055      9     0.00   0.62760   3 ;    H5R-   C15-   C14-   H4R
  1052   1051   1054   1056      9     0.00   0.62760   3 ;    H5R-   C15-   C14-   H4S
  1052   1051   1054   1057      9     0.00   0.66944   3 ;    H5R-   C15-   C14-   C13
  1053   1051   1054   1055      9     0.00   0.62760   3 ;    H5S-   C15-   C14-   H4R
  1053   1051   1054   1056      9     0.00   0.62760   3 ;    H5S-   C15-   C14-   H4S
  1053   1051   1054   1057      9     0.00   0.66944   3 ;    H5S-   C15-   C14-   C13
  1054   1057   1060   1061      9     0.00   0.66944   3 ;    C14-   C13-   C12-   H2R
  1054   1057   1060   1062      9     0.00   0.66944   3 ;    C14-   C13-   C12-   H2S
  1055   1054   1057   1058      9     0.00   0.62760   3 ;    H4R-   C14-   C13-   H3R
  1055   1054   1057   1059      9     0.00   0.62760   3 ;    H4R-   C14-   C13-   H3S
  1055   1054   1057   1060      9     0.00   0.66944   3 ;    H4R-   C14-   C13-   C12
  1056   1054   1057   1058      9     0.00   0.62760   3 ;    H4S-   C14-   C13-   H3R
  1056   1054   1057   1059      9     0.00   0.62760   3 ;    H4S-   C14-   C13-   H3S
  1056   1054   1057   1060      9     0.00   0.66944   3 ;    H4S-   C14-   C13-   C12
  1058   1057   1060   1061      9     0.00   0.62760   3 ;    H3R-   C13-   C12-   H2R
  1058   1057   1060   1062      9     0.00   0.62760   3 ;    H3R-   C13-   C12-   H2S
  1059   1057   1060   1061      9     0.00   0.62760   3 ;    H3S-   C13-   C12-   H2R
  1059   1057   1060   1062      9     0.00   0.62760   3 ;    H3S-   C13-   C12-   H2S
  1063   1064   1067   1068      9     0.00   0.62760   3 ;   H14T-  C114-  C113-  H13R
  1063   1064   1067   1069      9     0.00   0.62760   3 ;   H14T-  C114-  C113-  H13S
  1063   1064   1067   1070      9     0.00   0.66944   3 ;   H14T-  C114-  C113-  C112
  1064   1067   1070   1071      9     0.00   0.66944   3 ;   C114-  C113-  C112-  H12R
  1064   1067   1070   1072      9     0.00   0.66944   3 ;   C114-  C113-  C112-  H12S
  1064   1067   1070   1073      9     0.00   0.41840   1 ;   C114-  C113-  C112-  C111
  1064   1067   1070   1073      9     0.00   0.41840   2 ;   C114-  C113-  C112-  C111
  1064   1067   1070   1073      9     0.00   0.41840   4 ;   C114-  C113-  C112-  C111
  1064   1067   1070   1073      9     0.00   0.41840   5 ;   C114-  C113-  C112-  C111
  1064   1067   1070   1073      9     0.00   1.25520   3 ;   C114-  C113-  C112-  C111
  1065   1064   1067   1068      9     0.00   0.62760   3 ;   H14R-  C114-  C113-  H13R
  1065   1064   1067   1069      9     0.00   0.62760   3 ;   H14R-  C114-  C113-  H13S
  1065   1064   1067   1070      9     0.00   0.66944   3 ;   H14R-  C114-  C113-  C112
  1066   1064   1067   1068      9     0.00   0.62760   3 ;   H14S-  C114-  C113-  H13R
  1066   1064   1067   1069      9     0.00   0.62760   3 ;   H14S-  C114-  C113-  H13S
  1066   1064   1067   1070      9     0.00   0.66944   3 ;   H14S-  C114-  C113-  C112
  1067   1070   1073   1074      9     0.00   0.66944   3 ;   C113-  C112-  C111-  H11R
  1067   1070   1073   1075      9     0.00   0.66944   3 ;   C113-  C112-  C111-  H11S
  1067   1070   1073   1076      9     0.00   0.41840   1 ;   C113-  C112-  C111-  C110
  1067   1070   1073   1076      9     0.00   0.41840   2 ;   C113-  C112-  C111-  C110
  1067   1070   1073   1076      9     0.00   0.41840   4 ;   C113-  C112-  C111-  C110
  1067   1070   1073   1076      9     0.00   0.41840   5 ;   C113-  C112-  C111-  C110
  1067   1070   1073   1076      9     0.00   1.25520   3 ;   C113-  C112-  C111-  C110
  1068   1067   1070   1071      9     0.00   0.62760   3 ;   H13R-  C113-  C112-  H12R
  1068   1067   1070   1072      9     0.00   0.62760   3 ;   H13R-  C113-  C112-  H12S
  1068   1067   1070   1073      9     0.00   0.66944   3 ;   H13R-  C113-  C112-  C111
  1069   1067   1070   1071      9     0.00   0.62760   3 ;   H13S-  C113-  C112-  H12R
  1069   1067   1070   1072      9     0.00   0.62760   3 ;   H13S-  C113-  C112-  H12S
  1069   1067   1070   1073      9     0.00   0.66944   3 ;   H13S-  C113-  C112-  C111
  1070   1073   1076   1077      9     0.00   0.66944   3 ;   C112-  C111-  C110-  H10R
  1070   1073   1076   1078      9     0.00   0.66944   3 ;   C112-  C111-  C110-  H10S
  1070   1073   1076   1079      9     0.00   0.41840   1 ;   C112-  C111-  C110-   C19
  1070   1073   1076   1079      9     0.00   0.41840   2 ;   C112-  C111-  C110-   C19
  1070   1073   1076   1079      9     0.00   0.41840   4 ;   C112-  C111-  C110-   C19
  1070   1073   1076   1079      9     0.00   0.41840   5 ;   C112-  C111-  C110-   C19
  1070   1073   1076   1079      9     0.00   1.25520   3 ;   C112-  C111-  C110-   C19
  1071   1070   1073   1074      9     0.00   0.62760   3 ;   H12R-  C112-  C111-  H11R
  1071   1070   1073   1075      9     0.00   0.62760   3 ;   H12R-  C112-  C111-  H11S
  1071   1070   1073   1076      9     0.00   0.66944   3 ;   H12R-  C112-  C111-  C110
  1072   1070   1073   1074      9     0.00   0.62760   3 ;   H12S-  C112-  C111-  H11R
  1072   1070   1073   1075      9     0.00   0.62760   3 ;   H12S-  C112-  C111-  H11S
  1072   1070   1073   1076      9     0.00   0.66944   3 ;   H12S-  C112-  C111-  C110
  1073   1076   1079   1080      9     0.00   0.66944   3 ;   C111-  C110-   C19-   H9R
  1073   1076   1079   1081      9     0.00   0.66944   3 ;   C111-  C110-   C19-   H9S
  1073   1076   1079   1082      9     0.00   0.41840   1 ;   C111-  C110-   C19-   C18
  1073   1076   1079   1082      9     0.00   0.41840   2 ;   C111-  C110-   C19-   C18
  1073   1076   1079   1082      9     0.00   0.41840   4 ;   C111-  C110-   C19-   C18
  1073   1076   1079   1082      9     0.00   0.41840   5 ;   C111-  C110-   C19-   C18
  1073   1076   1079   1082      9     0.00   1.25520   3 ;   C111-  C110-   C19-   C18
  1074   1073   1076   1077      9     0.00   0.62760   3 ;   H11R-  C111-  C110-  H10R
  1074   1073   1076   1078      9     0.00   0.62760   3 ;   H11R-  C111-  C110-  H10S
  1074   1073   1076   1079      9     0.00   0.66944   3 ;   H11R-  C111-  C110-   C19
  1075   1073   1076   1077      9     0.00   0.62760   3 ;   H11S-  C111-  C110-  H10R
  1075   1073   1076   1078      9     0.00   0.62760   3 ;   H11S-  C111-  C110-  H10S
  1075   1073   1076   1079      9     0.00   0.66944   3 ;   H11S-  C111-  C110-   C19
  1076   1079   1082   1083      9     0.00   0.66944   3 ;   C110-   C19-   C18-   H8R
  1076   1079   1082   1084      9     0.00   0.66944   3 ;   C110-   C19-   C18-   H8S
  1076   1079   1082   1085      9     0.00   0.41840   1 ;   C110-   C19-   C18-   C17
  1076   1079   1082   1085      9     0.00   0.41840   2 ;   C110-   C19-   C18-   C17
  1076   1079   1082   1085      9     0.00   0.41840   4 ;   C110-   C19-   C18-   C17
  1076   1079   1082   1085      9     0.00   0.41840   5 ;   C110-   C19-   C18-   C17
  1076   1079   1082   1085      9     0.00   1.25520   3 ;   C110-   C19-   C18-   C17
  1077   1076   1079   1080      9     0.00   0.62760   3 ;   H10R-  C110-   C19-   H9R
  1077   1076   1079   1081      9     0.00   0.62760   3 ;   H10R-  C110-   C19-   H9S
  1077   1076   1079   1082      9     0.00   0.66944   3 ;   H10R-  C110-   C19-   C18
  1078   1076   1079   1080      9     0.00   0.62760   3 ;   H10S-  C110-   C19-   H9R
  1078   1076   1079   1081      9     0.00   0.62760   3 ;   H10S-  C110-   C19-   H9S
  1078   1076   1079   1082      9     0.00   0.66944   3 ;   H10S-  C110-   C19-   C18
  1079   1082   1085   1086      9     0.00   0.66944   3 ;    C19-   C18-   C17-   H7R
  1079   1082   1085   1087      9     0.00   0.66944   3 ;    C19-   C18-   C17-   H7S
  1079   1082   1085   1088      9     0.00   0.41840   1 ;    C19-   C18-   C17-   C16
  1079   1082   1085   1088      9     0.00   0.41840   2 ;    C19-   C18-   C17-   C16
  1079   1082   1085   1088      9     0.00   0.41840   4 ;    C19-   C18-   C17-   C16
  1079   1082   1085   1088      9     0.00   0.41840   5 ;    C19-   C18-   C17-   C16
  1079   1082   1085   1088      9     0.00   1.25520   3 ;    C19-   C18-   C17-   C16
  1080   1079   1082   1083      9     0.00   0.62760   3 ;    H9R-   C19-   C18-   H8R
  1080   1079   1082   1084      9     0.00   0.62760   3 ;    H9R-   C19-   C18-   H8S
  1080   1079   1082   1085      9     0.00   0.66944   3 ;    H9R-   C19-   C18-   C17
  1081   1079   1082   1083      9     0.00   0.62760   3 ;    H9S-   C19-   C18-   H8R
  1081   1079   1082   1084      9     0.00   0.62760   3 ;    H9S-   C19-   C18-   H8S
  1081   1079   1082   1085      9     0.00   0.66944   3 ;    H9S-   C19-   C18-   C17
  1082   1085   1088   1089      9     0.00   0.66944   3 ;    C18-   C17-   C16-   H6R
  1082   1085   1088   1090      9     0.00   0.66944   3 ;    C18-   C17-   C16-   H6S
  1082   1085   1088   1091      9     0.00   0.41840   1 ;    C18-   C17-   C16-   C15
  1082   1085   1088   1091      9     0.00   0.41840   2 ;    C18-   C17-   C16-   C15
  1082   1085   1088   1091      9     0.00   0.41840   4 ;    C18-   C17-   C16-   C15
  1082   1085   1088   1091      9     0.00   0.41840   5 ;    C18-   C17-   C16-   C15
  1082   1085   1088   1091      9     0.00   1.25520   3 ;    C18-   C17-   C16-   C15
  1083   1082   1085   1086      9     0.00   0.62760   3 ;    H8R-   C18-   C17-   H7R
  1083   1082   1085   1087      9     0.00   0.62760   3 ;    H8R-   C18-   C17-   H7S
  1083   1082   1085   1088      9     0.00   0.66944   3 ;    H8R-   C18-   C17-   C16
  1084   1082   1085   1086      9     0.00   0.62760   3 ;    H8S-   C18-   C17-   H7R
  1084   1082   1085   1087      9     0.00   0.62760   3 ;    H8S-   C18-   C17-   H7S
  1084   1082   1085   1088      9     0.00   0.66944   3 ;    H8S-   C18-   C17-   C16
  1085   1088   1091   1092      9     0.00   0.66944   3 ;    C17-   C16-   C15-   H5R
  1085   1088   1091   1093      9     0.00   0.66944   3 ;    C17-   C16-   C15-   H5S
  1085   1088   1091   1094      9     0.00   0.41840   1 ;    C17-   C16-   C15-   C14
  1085   1088   1091   1094      9     0.00   0.41840   2 ;    C17-   C16-   C15-   C14
  1085   1088   1091   1094      9     0.00   0.41840   4 ;    C17-   C16-   C15-   C14
  1085   1088   1091   1094      9     0.00   0.41840   5 ;    C17-   C16-   C15-   C14
  1085   1088   1091   1094      9     0.00   1.25520   3 ;    C17-   C16-   C15-   C14
  1086   1085   1088   1089      9     0.00   0.62760   3 ;    H7R-   C17-   C16-   H6R
  1086   1085   1088   1090      9     0.00   0.62760   3 ;    H7R-   C17-   C16-   H6S
  1086   1085   1088   1091      9     0.00   0.66944   3 ;    H7R-   C17-   C16-   C15
  1087   1085   1088   1089      9     0.00   0.62760   3 ;    H7S-   C17-   C16-   H6R
  1087   1085   1088   1090      9     0.00   0.62760   3 ;    H7S-   C17-   C16-   H6S
  1087   1085   1088   1091      9     0.00   0.66944   3 ;    H7S-   C17-   C16-   C15
  1088   1091   1094   1095      9     0.00   0.66944   3 ;    C16-   C15-   C14-   H4R
  1088   1091   1094   1096      9     0.00   0.66944   3 ;    C16-   C15-   C14-   H4S
  1088   1091   1094   1097      9     0.00   0.41840   1 ;    C16-   C15-   C14-   C13
  1088   1091   1094   1097      9     0.00   0.41840   2 ;    C16-   C15-   C14-   C13
  1088   1091   1094   1097      9     0.00   0.41840   4 ;    C16-   C15-   C14-   C13
  1088   1091   1094   1097      9     0.00   0.41840   5 ;    C16-   C15-   C14-   C13
  1088   1091   1094   1097      9     0.00   1.25520   3 ;    C16-   C15-   C14-   C13
  1089   1088   1091   1092      9     0.00   0.62760   3 ;    H6R-   C16-   C15-   H5R
  1089   1088   1091   1093      9     0.00   0.62760   3 ;    H6R-   C16-   C15-   H5S
  1089   1088   1091   1094      9     0.00   0.66944   3 ;    H6R-   C16-   C15-   C14
  1090   1088   1091   1092      9     0.00   0.62760   3 ;    H6S-   C16-   C15-   H5R
  1090   1088   1091   1093      9     0.00   0.62760   3 ;    H6S-   C16-   C15-   H5S
  1090   1088   1091   1094      9     0.00   0.66944   3 ;    H6S-   C16-   C15-   C14
  1091   1094   1097   1098      9     0.00   0.66944   3 ;    C15-   C14-   C13-   H3R
  1091   1094   1097   1099      9     0.00   0.66944   3 ;    C15-   C14-   C13-   H3S
  1091   1094   1097   1100      9     0.00   0.41840   1 ;    C15-   C14-   C13-   C12
  1091   1094   1097   1100      9     0.00   0.41840   2 ;    C15-   C14-   C13-   C12
  1091   1094   1097   1100      9     0.00   0.41840   4 ;    C15-   C14-   C13-   C12
  1091   1094   1097   1100      9     0.00   0.41840   5 ;    C15-   C14-   C13-   C12
  1091   1094   1097   1100      9     0.00   1.25520   3 ;    C15-   C14-   C13-   C12
  1092   1091   1094   1095      9     0.00   0.62760   3 ;    H5R-   C15-   C14-   H4R
  1092   1091   1094   1096      9     0.00   0.62760   3 ;    H5R-   C15-   C14-   H4S
  1092   1091   1094   1097      9     0.00   0.66944   3 ;    H5R-   C15-   C14-   C13
  1093   1091   1094   1095      9     0.00   0.62760   3 ;    H5S-   C15-   C14-   H4R
  1093   1091   1094   1096      9     0.00   0.62760   3 ;    H5S-   C15-   C14-   H4S
  1093   1091   1094   1097      9     0.00   0.66944   3 ;    H5S-   C15-   C14-   C13
  1094   1097   1100   1101      9     0.00   0.66944   3 ;    C14-   C13-   C12-   H2R
  1094   1097   1100   1102      9     0.00   0.66944   3 ;    C14-   C13-   C12-   H2S
  1094   1097   1100   1103      9     0.00   0.65270   3 ;    C14-   C13-   C12-   C11
  1095   1094   1097   1098      9     0.00   0.62760   3 ;    H4R-   C14-   C13-   H3R
  1095   1094   1097   1099      9     0.00   0.62760   3 ;    H4R-   C14-   C13-   H3S
  1095   1094   1097   1100      9     0.00   0.66944   3 ;    H4R-   C14-   C13-   C12
  1096   1094   1097   1098      9     0.00   0.62760   3 ;    H4S-   C14-   C13-   H3R
  1096   1094   1097   1099      9     0.00   0.62760   3 ;    H4S-   C14-   C13-   H3S
  1096   1094   1097   1100      9     0.00   0.66944   3 ;    H4S-   C14-   C13-   C12
  1097   1100   1103   1104      9   180.00   0.00000   2 ;    C13-   C12-   C11-   O12
  1097   1100   1103   1105      9   180.00   0.00000   2 ;    C13-   C12-   C11-   O11
  1098   1097   1100   1101      9     0.00   0.62760   3 ;    H3R-   C13-   C12-   H2R
  1098   1097   1100   1102      9     0.00   0.62760   3 ;    H3R-   C13-   C12-   H2S
  1098   1097   1100   1103      9     0.00   0.65270   3 ;    H3R-   C13-   C12-   C11
  1099   1097   1100   1101      9     0.00   0.62760   3 ;    H3S-   C13-   C12-   H2R
  1099   1097   1100   1102      9     0.00   0.62760   3 ;    H3S-   C13-   C12-   H2S
  1099   1097   1100   1103      9     0.00   0.65270   3 ;    H3S-   C13-   C12-   C11
  1100   1103   1105   1106      9   180.00  11.29680   2 ;    C12-   C11-   O11-    C1
  1101   1100   1103   1104      9     0.00   3.34720   1 ;    H2R-   C12-   C11-   O12
  1101   1100   1103   1104      9   180.00   0.33472   3 ;    H2R-   C12-   C11-   O12
  1101   1100   1103   1105      9   180.00   0.00000   2 ;    H2R-   C12-   C11-   O11
  1102   1100   1103   1104      9     0.00   3.34720   1 ;    H2S-   C12-   C11-   O12
  1102   1100   1103   1104      9   180.00   0.33472   3 ;    H2S-   C12-   C11-   O12
  1102   1100   1103   1105      9   180.00   0.00000   2 ;    H2S-   C12-   C11-   O11
  1103   1105   1106   1107      9     0.00   1.60247   3 ;    C11-   O11-    C1-    HR
  1103   1105   1106   1108      9     0.00   1.60247   3 ;    C11-   O11-    C1-    HS
  1103   1105   1106   1109      9     0.00  -0.41840   1 ;    C11-   O11-    C1-    C2
  1104   1103   1105   1106      9   180.00   5.85760   1 ;    O12-   C11-   O11-    C1
  1104   1103   1105   1106      9   180.00  11.29680   2 ;    O12-   C11-   O11-    C1
  1105   1106   1109   1110      9     0.00   0.00000   0 ;    O11-    C1-    C2-    HX
  1105   1106   1109   1110      9     0.00   1.04600   1 ;    O11-    C1-    C2-    HX
  1105   1106   1109   1111      9     0.00   0.00000   0 ;    O11-    C1-    C2-    C3
  1105   1106   1109   1111      9     0.00   0.00000   0 ;    O11-    C1-    C2-    C3
  1105   1106   1109   1111      9     0.00   0.00000   0 ;    O11-    C1-    C2-    C3
  1105   1106   1109   1111      9     0.00   0.00000   0 ;    O11-    C1-    C2-    C3
  1105   1106   1109   1111      9     0.00   0.00000   0 ;    O11-    C1-    C2-    C3
  1105   1106   1109   1138      9     0.00   1.25520   2 ;    O11-    C1-    C2-   O21
  1105   1106   1109   1138      9     0.00   4.18400   3 ;    O11-    C1-    C2-   O21
  1105   1106   1109   1138      9   180.00  -0.41840   1 ;    O11-    C1-    C2-   O21
  1106   1109   1111   1112      9     0.00   0.65270   3 ;     C1-    C2-    C3-    HA
  1106   1109   1111   1113      9     0.00   0.65270   3 ;     C1-    C2-    C3-    HB
  1106   1109   1111   1114      9   180.00   3.34720   1 ;     C1-    C2-    C3-   O31
  1106   1109   1138   1139      9     0.00  -0.41840   1 ;     C1-    C2-   O21-   C21
  1107   1106   1109   1110      9     0.00   0.65270   3 ;     HR-    C1-    C2-    HX
  1107   1106   1109   1111      9     0.00   0.65270   3 ;     HR-    C1-    C2-    C3
  1107   1106   1109   1138      9     0.00   0.00000   0 ;     HR-    C1-    C2-   O21
  1107   1106   1109   1138      9     0.00   1.04600   1 ;     HR-    C1-    C2-   O21
  1108   1106   1109   1110      9     0.00   0.65270   3 ;     HS-    C1-    C2-    HX
  1108   1106   1109   1111      9     0.00   0.65270   3 ;     HS-    C1-    C2-    C3
  1108   1106   1109   1138      9     0.00   0.00000   0 ;     HS-    C1-    C2-   O21
  1108   1106   1109   1138      9     0.00   1.04600   1 ;     HS-    C1-    C2-   O21
  1109   1111   1114   1115      9     0.00   0.00000   0 ;     C2-    C3-   O31-   P31
  1109   1111   1114   1115      9   180.00  -3.34720   2 ;     C2-    C3-   O31-   P31
  1109   1138   1139   1140      9   180.00   5.85760   1 ;     C2-   O21-   C21-   O22
  1109   1138   1139   1140      9   180.00  11.29680   2 ;     C2-   O21-   C21-   O22
  1109   1138   1139   1178      9   180.00  11.29680   2 ;     C2-   O21-   C21-   C12
  1110   1109   1111   1112      9     0.00   0.65270   3 ;     HX-    C2-    C3-    HA
  1110   1109   1111   1113      9     0.00   0.65270   3 ;     HX-    C2-    C3-    HB
  1110   1109   1111   1114      9     0.00   0.00000   0 ;     HX-    C2-    C3-   O31
  1110   1109   1111   1114      9     0.00   1.04600   1 ;     HX-    C2-    C3-   O31
  1110   1109   1138   1139      9     0.00   1.60247   3 ;     HX-    C2-   O21-   C21
  1111   1109   1138   1139      9     0.00  -0.41840   1 ;     C3-    C2-   O21-   C21
  1111   1114   1115   1116      9     0.00   2.51040   3 ;     C3-   O31-   P31-   O32
  1111   1114   1115   1116      9     0.00   9.62320   2 ;     C3-   O31-   P31-   O32
  1111   1114   1115   1136      9     0.00   0.00000   0 ;     C3-   O31-   P31-   O33
  1111   1114   1115   1136      9     0.00   0.00000   0 ;     C3-   O31-   P31-   O33
  1111   1114   1115   1136      9     0.00   0.00000   0 ;     C3-   O31-   P31-   O33
  1111   1114   1115   1136      9     0.00   0.00000   0 ;     C3-   O31-   P31-   O33
  1111   1114   1115   1136      9     0.00   0.83680   2 ;     C3-   O31-   P31-   O33
  1111   1114   1115   1137      9     0.00   0.00000   0 ;     C3-   O31-   P31-   O34
  1111   1114   1115   1137      9     0.00   0.00000   0 ;     C3-   O31-   P31-   O34
  1111   1114   1115   1137      9     0.00   0.00000   0 ;     C3-   O31-   P31-   O34
  1111   1114   1115   1137      9     0.00   0.00000   0 ;     C3-   O31-   P31-   O34
  1111   1114   1115   1137      9     0.00   0.83680   2 ;     C3-   O31-   P31-   O34
  1112   1111   1109   1138      9     0.00   0.00000   0 ;     HA-    C3-    C2-   O21
  1112   1111   1109   1138      9     0.00   1.04600   1 ;     HA-    C3-    C2-   O21
  1112   1111   1114   1115      9     0.00   0.00000   0 ;     HA-    C3-   O31-   P31
  1112   1111   1114   1115      9     0.00   0.00000   0 ;     HA-    C3-   O31-   P31
  1112   1111   1114   1115      9     0.00   0.00000   0 ;     HA-    C3-   O31-   P31
  1112   1111   1114   1115      9     0.00   0.00000   0 ;     HA-    C3-   O31-   P31
  1112   1111   1114   1115      9     0.00   1.60247   3 ;     HA-    C3-   O31-   P31
  1113   1111   1109   1138      9     0.00   0.00000   0 ;     HB-    C3-    C2-   O21
  1113   1111   1109   1138      9     0.00   1.04600   1 ;     HB-    C3-    C2-   O21
  1113   1111   1114   1115      9     0.00   0.00000   0 ;     HB-    C3-   O31-   P31
  1113   1111   1114   1115      9     0.00   0.00000   0 ;     HB-    C3-   O31-   P31
  1113   1111   1114   1115      9     0.00   0.00000   0 ;     HB-    C3-   O31-   P31
  1113   1111   1114   1115      9     0.00   0.00000   0 ;     HB-    C3-   O31-   P31
  1113   1111   1114   1115      9     0.00   1.60247   3 ;     HB-    C3-   O31-   P31
  1114   1111   1109   1138      9     0.00   0.00000   0 ;    O31-    C3-    C2-   O21
  1114   1111   1109   1138      9     0.00   0.00000   0 ;    O31-    C3-    C2-   O21
  1114   1111   1109   1138      9     0.00   0.00000   0 ;    O31-    C3-    C2-   O21
  1114   1111   1109   1138      9     0.00   0.00000   0 ;    O31-    C3-    C2-   O21
  1114   1111   1109   1138      9     0.00   0.00000   0 ;    O31-    C3-    C2-   O21
  1114   1115   1116   1117      9     0.00   2.51040   3 ;    O31-   P31-   O32-   C31
  1114   1115   1116   1117      9     0.00   9.62320   2 ;    O31-   P31-   O32-   C31
  1115   1116   1117   1118      9     0.00   0.00000   0 ;    P31-   O32-   C31-   H1A
  1115   1116   1117   1118      9     0.00   0.00000   0 ;    P31-   O32-   C31-   H1A
  1115   1116   1117   1118      9     0.00   0.00000   0 ;    P31-   O32-   C31-   H1A
  1115   1116   1117   1118      9     0.00   0.00000   0 ;    P31-   O32-   C31-   H1A
  1115   1116   1117   1118      9     0.00   1.60247   3 ;    P31-   O32-   C31-   H1A
  1115   1116   1117   1119      9     0.00   0.00000   0 ;    P31-   O32-   C31-   H1B
  1115   1116   1117   1119      9     0.00   0.00000   0 ;    P31-   O32-   C31-   H1B
  1115   1116   1117   1119      9     0.00   0.00000   0 ;    P31-   O32-   C31-   H1B
  1115   1116   1117   1119      9     0.00   0.00000   0 ;    P31-   O32-   C31-   H1B
  1115   1116   1117   1119      9     0.00   1.60247   3 ;    P31-   O32-   C31-   H1B
  1115   1116   1117   1120      9     0.00   0.00000   0 ;    P31-   O32-   C31-   C32
  1115   1116   1117   1120      9   180.00  -3.34720   2 ;    P31-   O32-   C31-   C32
  1116   1117   1120   1121      9     0.00   0.65270   3 ;    O32-   C31-   C32-   H2A
  1116   1117   1120   1122      9     0.00   0.65270   3 ;    O32-   C31-   C32-   H2B
  1116   1117   1120   1123      9     0.00   4.18400   3 ;    O32-   C31-   C32-   N31
  1117   1116   1115   1136      9     0.00   0.00000   0 ;    C31-   O32-   P31-   O33
  1117   1116   1115   1136      9     0.00   0.00000   0 ;    C31-   O32-   P31-   O33
  1117   1116   1115   1136      9     0.00   0.00000   0 ;    C31-   O32-   P31-   O33
  1117   1116   1115   1136      9     0.00   0.00000   0 ;    C31-   O32-   P31-   O33
  1117   1116   1115   1136      9     0.00   0.83680   2 ;    C31-   O32-   P31-   O33
  1117   1116   1115   1137      9     0.00   0.00000   0 ;    C31-   O32-   P31-   O34
  1117   1116   1115   1137      9     0.00   0.00000   0 ;    C31-   O32-   P31-   O34
  1117   1116   1115   1137      9     0.00   0.00000   0 ;    C31-   O32-   P31-   O34
  1117   1116   1115   1137      9     0.00   0.00000   0 ;    C31-   O32-   P31-   O34
  1117   1116   1115   1137      9     0.00   0.83680   2 ;    C31-   O32-   P31-   O34
  1117   1120   1123   1124      9     0.00   0.65270   3 ;    C31-   C32-   N31-   C33
  1117   1120   1123   1128      9     0.00   0.65270   3 ;    C31-   C32-   N31-   C34
  1117   1120   1123   1132      9     0.00   0.65270   3 ;    C31-   C32-   N31-   C35
  1118   1117   1120   1121      9     0.00   0.65270   3 ;    H1A-   C31-   C32-   H2A
  1118   1117   1120   1122      9     0.00   0.65270   3 ;    H1A-   C31-   C32-   H2B
  1118   1117   1120   1123      9     0.00   0.65270   3 ;    H1A-   C31-   C32-   N31
  1119   1117   1120   1121      9     0.00   0.65270   3 ;    H1B-   C31-   C32-   H2A
  1119   1117   1120   1122      9     0.00   0.65270   3 ;    H1B-   C31-   C32-   H2B
  1119   1117   1120   1123      9     0.00   0.65270   3 ;    H1B-   C31-   C32-   N31
  1120   1123   1124   1125      9     0.00   0.65270   3 ;    C32-   N31-   C33-   H3A
  1120   1123   1124   1126      9     0.00   0.65270   3 ;    C32-   N31-   C33-   H3B
  1120   1123   1124   1127      9     0.00   0.65270   3 ;    C32-   N31-   C33-   H3C
  1120   1123   1128   1129      9     0.00   0.65270   3 ;    C32-   N31-   C34-   H4A
  1120   1123   1128   1130      9     0.00   0.65270   3 ;    C32-   N31-   C34-   H4B
  1120   1123   1128   1131      9     0.00   0.65270   3 ;    C32-   N31-   C34-   H4C
  1120   1123   1132   1133      9     0.00   0.65270   3 ;    C32-   N31-   C35-   H5A
  1120   1123   1132   1134      9     0.00   0.65270   3 ;    C32-   N31-   C35-   H5B
  1120   1123   1132   1135      9     0.00   0.65270   3 ;    C32-   N31-   C35-   H5C
  1121   1120   1123   1124      9     0.00   0.65270   3 ;    H2A-   C32-   N31-   C33
  1121   1120   1123   1128      9     0.00   0.65270   3 ;    H2A-   C32-   N31-   C34
  1121   1120   1123   1132      9     0.00   0.65270   3 ;    H2A-   C32-   N31-   C35
  1122   1120   1123   1124      9     0.00   0.65270   3 ;    H2B-   C32-   N31-   C33
  1122   1120   1123   1128      9     0.00   0.65270   3 ;    H2B-   C32-   N31-   C34
  1122   1120   1123   1132      9     0.00   0.65270   3 ;    H2B-   C32-   N31-   C35
  1124   1123   1128   1129      9     0.00   0.65270   3 ;    C33-   N31-   C34-   H4A
  1124   1123   1128   1130      9     0.00   0.65270   3 ;    C33-   N31-   C34-   H4B
  1124   1123   1128   1131      9     0.00   0.65270   3 ;    C33-   N31-   C34-   H4C
  1124   1123   1132   1133      9     0.00   0.65270   3 ;    C33-   N31-   C35-   H5A
  1124   1123   1132   1134      9     0.00   0.65270   3 ;    C33-   N31-   C35-   H5B
  1124   1123   1132   1135      9     0.00   0.65270   3 ;    C33-   N31-   C35-   H5C
  1125   1124   1123   1128      9     0.00   0.65270   3 ;    H3A-   C33-   N31-   C34
  1125   1124   1123   1132      9     0.00   0.65270   3 ;    H3A-   C33-   N31-   C35
  1126   1124   1123   1128      9     0.00   0.65270   3 ;    H3B-   C33-   N31-   C34
  1126   1124   1123   1132      9     0.00   0.65270   3 ;    H3B-   C33-   N31-   C35
  1127   1124   1123   1128      9     0.00   0.65270   3 ;    H3C-   C33-   N31-   C34
  1127   1124   1123   1132      9     0.00   0.65270   3 ;    H3C-   C33-   N31-   C35
  1128   1123   1132   1133      9     0.00   0.65270   3 ;    C34-   N31-   C35-   H5A
  1128   1123   1132   1134      9     0.00   0.65270   3 ;    C34-   N31-   C35-   H5B
  1128   1123   1132   1135      9     0.00   0.65270   3 ;    C34-   N31-   C35-   H5C
  1129   1128   1123   1132      9     0.00   0.65270   3 ;    H4A-   C34-   N31-   C35
  1130   1128   1123   1132      9     0.00   0.65270   3 ;    H4B-   C34-   N31-   C35
  1131   1128   1123   1132      9     0.00   0.65270   3 ;    H4C-   C34-   N31-   C35
  1138   1139   1178   1175      9   180.00   0.00000   2 ;    O21-   C21-   C12-   C13
  1138   1139   1178   1179      9   180.00   0.00000   2 ;    O21-   C21-   C12-   H2R
  1138   1139   1178   1180      9   180.00   0.00000   2 ;    O21-   C21-   C12-   H2S
  1139   1178   1175   1172      9     0.00   0.65270   3 ;    C21-   C12-   C13-   C14
  1139   1178   1175   1176      9     0.00   0.65270   3 ;    C21-   C12-   C13-   H3R
  1139   1178   1175   1177      9     0.00   0.65270   3 ;    C21-   C12-   C13-   H3S
  1140   1139   1178   1175      9   180.00   0.00000   2 ;    O22-   C21-   C12-   C13
  1140   1139   1178   1179      9     0.00   3.34720   1 ;    O22-   C21-   C12-   H2R
  1140   1139   1178   1179      9   180.00   0.33472   3 ;    O22-   C21-   C12-   H2R
  1140   1139   1178   1180      9     0.00   3.34720   1 ;    O22-   C21-   C12-   H2S
  1140   1139   1178   1180      9   180.00   0.33472   3 ;    O22-   C21-   C12-   H2S
  1141   1142   1145   1146      9     0.00   0.62760   3 ;   H14T-  C114-  C113-  H13R
  1141   1142   1145   1147      9     0.00   0.62760   3 ;   H14T-  C114-  C113-  H13S
  1141   1142   1145   1148      9     0.00   0.66944   3 ;   H14T-  C114-  C113-  C112
  1142   1145   1148   1149      9     0.00   0.66944   3 ;   C114-  C113-  C112-  H12R
  1142   1145   1148   1150      9     0.00   0.66944   3 ;   C114-  C113-  C112-  H12S
  1142   1145   1148   1151      9     0.00   0.41840   1 ;   C114-  C113-  C112-  C111
  1142   1145   1148   1151      9     0.00   0.41840   2 ;   C114-  C113-  C112-  C111
  1142   1145   1148   1151      9     0.00   0.41840   4 ;   C114-  C113-  C112-  C111
  1142   1145   1148   1151      9     0.00   0.41840   5 ;   C114-  C113-  C112-  C111
  1142   1145   1148   1151      9     0.00   1.25520   3 ;   C114-  C113-  C112-  C111
  1143   1142   1145   1146      9     0.00   0.62760   3 ;   H14R-  C114-  C113-  H13R
  1143   1142   1145   1147      9     0.00   0.62760   3 ;   H14R-  C114-  C113-  H13S
  1143   1142   1145   1148      9     0.00   0.66944   3 ;   H14R-  C114-  C113-  C112
  1144   1142   1145   1146      9     0.00   0.62760   3 ;   H14S-  C114-  C113-  H13R
  1144   1142   1145   1147      9     0.00   0.62760   3 ;   H14S-  C114-  C113-  H13S
  1144   1142   1145   1148      9     0.00   0.66944   3 ;   H14S-  C114-  C113-  C112
  1145   1148   1151   1152      9     0.00   0.66944   3 ;   C113-  C112-  C111-  H11R
  1145   1148   1151   1153      9     0.00   0.66944   3 ;   C113-  C112-  C111-  H11S
  1145   1148   1151   1154      9     0.00   0.41840   1 ;   C113-  C112-  C111-  C110
  1145   1148   1151   1154      9     0.00   0.41840   2 ;   C113-  C112-  C111-  C110
  1145   1148   1151   1154      9     0.00   0.41840   4 ;   C113-  C112-  C111-  C110
  1145   1148   1151   1154      9     0.00   0.41840   5 ;   C113-  C112-  C111-  C110
  1145   1148   1151   1154      9     0.00   1.25520   3 ;   C113-  C112-  C111-  C110
  1146   1145   1148   1149      9     0.00   0.62760   3 ;   H13R-  C113-  C112-  H12R
  1146   1145   1148   1150      9     0.00   0.62760   3 ;   H13R-  C113-  C112-  H12S
  1146   1145   1148   1151      9     0.00   0.66944   3 ;   H13R-  C113-  C112-  C111
  1147   1145   1148   1149      9     0.00   0.62760   3 ;   H13S-  C113-  C112-  H12R
  1147   1145   1148   1150      9     0.00   0.62760   3 ;   H13S-  C113-  C112-  H12S
  1147   1145   1148   1151      9     0.00   0.66944   3 ;   H13S-  C113-  C112-  C111
  1148   1151   1154   1155      9     0.00   0.66944   3 ;   C112-  C111-  C110-  H10R
  1148   1151   1154   1156      9     0.00   0.66944   3 ;   C112-  C111-  C110-  H10S
  1148   1151   1154   1157      9     0.00   0.41840   1 ;   C112-  C111-  C110-   C19
  1148   1151   1154   1157      9     0.00   0.41840   2 ;   C112-  C111-  C110-   C19
  1148   1151   1154   1157      9     0.00   0.41840   4 ;   C112-  C111-  C110-   C19
  1148   1151   1154   1157      9     0.00   0.41840   5 ;   C112-  C111-  C110-   C19
  1148   1151   1154   1157      9     0.00   1.25520   3 ;   C112-  C111-  C110-   C19
  1149   1148   1151   1152      9     0.00   0.62760   3 ;   H12R-  C112-  C111-  H11R
  1149   1148   1151   1153      9     0.00   0.62760   3 ;   H12R-  C112-  C111-  H11S
  1149   1148   1151   1154      9     0.00   0.66944   3 ;   H12R-  C112-  C111-  C110
  1150   1148   1151   1152      9     0.00   0.62760   3 ;   H12S-  C112-  C111-  H11R
  1150   1148   1151   1153      9     0.00   0.62760   3 ;   H12S-  C112-  C111-  H11S
  1150   1148   1151   1154      9     0.00   0.66944   3 ;   H12S-  C112-  C111-  C110
  1151   1154   1157   1158      9     0.00   0.66944   3 ;   C111-  C110-   C19-   H9R
  1151   1154   1157   1159      9     0.00   0.66944   3 ;   C111-  C110-   C19-   H9S
  1151   1154   1157   1160      9     0.00   0.41840   1 ;   C111-  C110-   C19-   C18
  1151   1154   1157   1160      9     0.00   0.41840   2 ;   C111-  C110-   C19-   C18
  1151   1154   1157   1160      9     0.00   0.41840   4 ;   C111-  C110-   C19-   C18
  1151   1154   1157   1160      9     0.00   0.41840   5 ;   C111-  C110-   C19-   C18
  1151   1154   1157   1160      9     0.00   1.25520   3 ;   C111-  C110-   C19-   C18
  1152   1151   1154   1155      9     0.00   0.62760   3 ;   H11R-  C111-  C110-  H10R
  1152   1151   1154   1156      9     0.00   0.62760   3 ;   H11R-  C111-  C110-  H10S
  1152   1151   1154   1157      9     0.00   0.66944   3 ;   H11R-  C111-  C110-   C19
  1153   1151   1154   1155      9     0.00   0.62760   3 ;   H11S-  C111-  C110-  H10R
  1153   1151   1154   1156      9     0.00   0.62760   3 ;   H11S-  C111-  C110-  H10S
  1153   1151   1154   1157      9     0.00   0.66944   3 ;   H11S-  C111-  C110-   C19
  1154   1157   1160   1161      9     0.00   0.66944   3 ;   C110-   C19-   C18-   H8R
  1154   1157   1160   1162      9     0.00   0.66944   3 ;   C110-   C19-   C18-   H8S
  1154   1157   1160   1163      9     0.00   0.41840   1 ;   C110-   C19-   C18-   C17
  1154   1157   1160   1163      9     0.00   0.41840   2 ;   C110-   C19-   C18-   C17
  1154   1157   1160   1163      9     0.00   0.41840   4 ;   C110-   C19-   C18-   C17
  1154   1157   1160   1163      9     0.00   0.41840   5 ;   C110-   C19-   C18-   C17
  1154   1157   1160   1163      9     0.00   1.25520   3 ;   C110-   C19-   C18-   C17
  1155   1154   1157   1158      9     0.00   0.62760   3 ;   H10R-  C110-   C19-   H9R
  1155   1154   1157   1159      9     0.00   0.62760   3 ;   H10R-  C110-   C19-   H9S
  1155   1154   1157   1160      9     0.00   0.66944   3 ;   H10R-  C110-   C19-   C18
  1156   1154   1157   1158      9     0.00   0.62760   3 ;   H10S-  C110-   C19-   H9R
  1156   1154   1157   1159      9     0.00   0.62760   3 ;   H10S-  C110-   C19-   H9S
  1156   1154   1157   1160      9     0.00   0.66944   3 ;   H10S-  C110-   C19-   C18
  1157   1160   1163   1164      9     0.00   0.66944   3 ;    C19-   C18-   C17-   H7R
  1157   1160   1163   1165      9     0.00   0.66944   3 ;    C19-   C18-   C17-   H7S
  1157   1160   1163   1166      9     0.00   0.41840   1 ;    C19-   C18-   C17-   C16
  1157   1160   1163   1166      9     0.00   0.41840   2 ;    C19-   C18-   C17-   C16
  1157   1160   1163   1166      9     0.00   0.41840   4 ;    C19-   C18-   C17-   C16
  1157   1160   1163   1166      9     0.00   0.41840   5 ;    C19-   C18-   C17-   C16
  1157   1160   1163   1166      9     0.00   1.25520   3 ;    C19-   C18-   C17-   C16
  1158   1157   1160   1161      9     0.00   0.62760   3 ;    H9R-   C19-   C18-   H8R
  1158   1157   1160   1162      9     0.00   0.62760   3 ;    H9R-   C19-   C18-   H8S
  1158   1157   1160   1163      9     0.00   0.66944   3 ;    H9R-   C19-   C18-   C17
  1159   1157   1160   1161      9     0.00   0.62760   3 ;    H9S-   C19-   C18-   H8R
  1159   1157   1160   1162      9     0.00   0.62760   3 ;    H9S-   C19-   C18-   H8S
  1159   1157   1160   1163      9     0.00   0.66944   3 ;    H9S-   C19-   C18-   C17
  1160   1163   1166   1167      9     0.00   0.66944   3 ;    C18-   C17-   C16-   H6R
  1160   1163   1166   1168      9     0.00   0.66944   3 ;    C18-   C17-   C16-   H6S
  1160   1163   1166   1169      9     0.00   0.41840   1 ;    C18-   C17-   C16-   C15
  1160   1163   1166   1169      9     0.00   0.41840   2 ;    C18-   C17-   C16-   C15
  1160   1163   1166   1169      9     0.00   0.41840   4 ;    C18-   C17-   C16-   C15
  1160   1163   1166   1169      9     0.00   0.41840   5 ;    C18-   C17-   C16-   C15
  1160   1163   1166   1169      9     0.00   1.25520   3 ;    C18-   C17-   C16-   C15
  1161   1160   1163   1164      9     0.00   0.62760   3 ;    H8R-   C18-   C17-   H7R
  1161   1160   1163   1165      9     0.00   0.62760   3 ;    H8R-   C18-   C17-   H7S
  1161   1160   1163   1166      9     0.00   0.66944   3 ;    H8R-   C18-   C17-   C16
  1162   1160   1163   1164      9     0.00   0.62760   3 ;    H8S-   C18-   C17-   H7R
  1162   1160   1163   1165      9     0.00   0.62760   3 ;    H8S-   C18-   C17-   H7S
  1162   1160   1163   1166      9     0.00   0.66944   3 ;    H8S-   C18-   C17-   C16
  1163   1166   1169   1170      9     0.00   0.66944   3 ;    C17-   C16-   C15-   H5R
  1163   1166   1169   1171      9     0.00   0.66944   3 ;    C17-   C16-   C15-   H5S
  1163   1166   1169   1172      9     0.00   0.41840   1 ;    C17-   C16-   C15-   C14
  1163   1166   1169   1172      9     0.00   0.41840   2 ;    C17-   C16-   C15-   C14
  1163   1166   1169   1172      9     0.00   0.41840   4 ;    C17-   C16-   C15-   C14
  1163   1166   1169   1172      9     0.00   0.41840   5 ;    C17-   C16-   C15-   C14
  1163   1166   1169   1172      9     0.00   1.25520   3 ;    C17-   C16-   C15-   C14
  1164   1163   1166   1167      9     0.00   0.62760   3 ;    H7R-   C17-   C16-   H6R
  1164   1163   1166   1168      9     0.00   0.62760   3 ;    H7R-   C17-   C16-   H6S
  1164   1163   1166   1169      9     0.00   0.66944   3 ;    H7R-   C17-   C16-   C15
  1165   1163   1166   1167      9     0.00   0.62760   3 ;    H7S-   C17-   C16-   H6R
  1165   1163   1166   1168      9     0.00   0.62760   3 ;    H7S-   C17-   C16-   H6S
  1165   1163   1166   1169      9     0.00   0.66944   3 ;    H7S-   C17-   C16-   C15
  1166   1169   1172   1173      9     0.00   0.66944   3 ;    C16-   C15-   C14-   H4R
  1166   1169   1172   1174      9     0.00   0.66944   3 ;    C16-   C15-   C14-   H4S
  1166   1169   1172   1175      9     0.00   0.41840   1 ;    C16-   C15-   C14-   C13
  1166   1169   1172   1175      9     0.00   0.41840   2 ;    C16-   C15-   C14-   C13
  1166   1169   1172   1175      9     0.00   0.41840   4 ;    C16-   C15-   C14-   C13
  1166   1169   1172   1175      9     0.00   0.41840   5 ;    C16-   C15-   C14-   C13
  1166   1169   1172   1175      9     0.00   1.25520   3 ;    C16-   C15-   C14-   C13
  1167   1166   1169   1170      9     0.00   0.62760   3 ;    H6R-   C16-   C15-   H5R
  1167   1166   1169   1171      9     0.00   0.62760   3 ;    H6R-   C16-   C15-   H5S
  1167   1166   1169   1172      9     0.00   0.66944   3 ;    H6R-   C16-   C15-   C14
  1168   1166   1169   1170      9     0.00   0.62760   3 ;    H6S-   C16-   C15-   H5R
  1168   1166   1169   1171      9     0.00   0.62760   3 ;    H6S-   C16-   C15-   H5S
  1168   1166   1169   1172      9     0.00   0.66944   3 ;    H6S-   C16-   C15-   C14
  1169   1172   1175   1176      9     0.00   0.66944   3 ;    C15-   C14-   C13-   H3R
  1169   1172   1175   1177      9     0.00   0.66944   3 ;    C15-   C14-   C13-   H3S
  1169   1172   1175   1178      9     0.00   0.41840   1 ;    C15-   C14-   C13-   C12
  1169   1172   1175   1178      9     0.00   0.41840   2 ;    C15-   C14-   C13-   C12
  1169   1172   1175   1178      9     0.00   0.41840   4 ;    C15-   C14-   C13-   C12
  1169   1172   1175   1178      9     0.00   0.41840   5 ;    C15-   C14-   C13-   C12
  1169   1172   1175   1178      9     0.00   1.25520   3 ;    C15-   C14-   C13-   C12
  1170   1169   1172   1173      9     0.00   0.62760   3 ;    H5R-   C15-   C14-   H4R
  1170   1169   1172   1174      9     0.00   0.62760   3 ;    H5R-   C15-   C14-   H4S
  1170   1169   1172   1175      9     0.00   0.66944   3 ;    H5R-   C15-   C14-   C13
  1171   1169   1172   1173      9     0.00   0.62760   3 ;    H5S-   C15-   C14-   H4R
  1171   1169   1172   1174      9     0.00   0.62760   3 ;    H5S-   C15-   C14-   H4S
  1171   1169   1172   1175      9     0.00   0.66944   3 ;    H5S-   C15-   C14-   C13
  1172   1175   1178   1179      9     0.00   0.66944   3 ;    C14-   C13-   C12-   H2R
  1172   1175   1178   1180      9     0.00   0.66944   3 ;    C14-   C13-   C12-   H2S
  1173   1172   1175   1176      9     0.00   0.62760   3 ;    H4R-   C14-   C13-   H3R
  1173   1172   1175   1177      9     0.00   0.62760   3 ;    H4R-   C14-   C13-   H3S
  1173   1172   1175   1178      9     0.00   0.66944   3 ;    H4R-   C14-   C13-   C12
  1174   1172   1175   1176      9     0.00   0.62760   3 ;    H4S-   C14-   C13-   H3R
  1174   1172   1175   1177      9     0.00   0.62760   3 ;    H4S-   C14-   C13-   H3S
  1174   1172   1175   1178      9     0.00   0.66944   3 ;    H4S-   C14-   C13-   C12
  1176   1175   1178   1179      9     0.00   0.62760   3 ;    H3R-   C13-   C12-   H2R
  1176   1175   1178   1180      9     0.00   0.62760   3 ;    H3R-   C13-   C12-   H2S
  1177   1175   1178   1179      9     0.00   0.62760   3 ;    H3S-   C13-   C12-   H2R
  1177   1175   1178   1180      9     0.00   0.62760   3 ;    H3S-   C13-   C12-   H2S
  1181   1182   1185   1186      9     0.00   0.62760   3 ;   H14T-  C114-  C113-  H13R
  1181   1182   1185   1187      9     0.00   0.62760   3 ;   H14T-  C114-  C113-  H13S
  1181   1182   1185   1188      9     0.00   0.66944   3 ;   H14T-  C114-  C113-  C112
  1182   1185   1188   1189      9     0.00   0.66944   3 ;   C114-  C113-  C112-  H12R
  1182   1185   1188   1190      9     0.00   0.66944   3 ;   C114-  C113-  C112-  H12S
  1182   1185   1188   1191      9     0.00   0.41840   1 ;   C114-  C113-  C112-  C111
  1182   1185   1188   1191      9     0.00   0.41840   2 ;   C114-  C113-  C112-  C111
  1182   1185   1188   1191      9     0.00   0.41840   4 ;   C114-  C113-  C112-  C111
  1182   1185   1188   1191      9     0.00   0.41840   5 ;   C114-  C113-  C112-  C111
  1182   1185   1188   1191      9     0.00   1.25520   3 ;   C114-  C113-  C112-  C111
  1183   1182   1185   1186      9     0.00   0.62760   3 ;   H14R-  C114-  C113-  H13R
  1183   1182   1185   1187      9     0.00   0.62760   3 ;   H14R-  C114-  C113-  H13S
  1183   1182   1185   1188      9     0.00   0.66944   3 ;   H14R-  C114-  C113-  C112
  1184   1182   1185   1186      9     0.00   0.62760   3 ;   H14S-  C114-  C113-  H13R
  1184   1182   1185   1187      9     0.00   0.62760   3 ;   H14S-  C114-  C113-  H13S
  1184   1182   1185   1188      9     0.00   0.66944   3 ;   H14S-  C114-  C113-  C112
  1185   1188   1191   1192      9     0.00   0.66944   3 ;   C113-  C112-  C111-  H11R
  1185   1188   1191   1193      9     0.00   0.66944   3 ;   C113-  C112-  C111-  H11S
  1185   1188   1191   1194      9     0.00   0.41840   1 ;   C113-  C112-  C111-  C110
  1185   1188   1191   1194      9     0.00   0.41840   2 ;   C113-  C112-  C111-  C110
  1185   1188   1191   1194      9     0.00   0.41840   4 ;   C113-  C112-  C111-  C110
  1185   1188   1191   1194      9     0.00   0.41840   5 ;   C113-  C112-  C111-  C110
  1185   1188   1191   1194      9     0.00   1.25520   3 ;   C113-  C112-  C111-  C110
  1186   1185   1188   1189      9     0.00   0.62760   3 ;   H13R-  C113-  C112-  H12R
  1186   1185   1188   1190      9     0.00   0.62760   3 ;   H13R-  C113-  C112-  H12S
  1186   1185   1188   1191      9     0.00   0.66944   3 ;   H13R-  C113-  C112-  C111
  1187   1185   1188   1189      9     0.00   0.62760   3 ;   H13S-  C113-  C112-  H12R
  1187   1185   1188   1190      9     0.00   0.62760   3 ;   H13S-  C113-  C112-  H12S
  1187   1185   1188   1191      9     0.00   0.66944   3 ;   H13S-  C113-  C112-  C111
  1188   1191   1194   1195      9     0.00   0.66944   3 ;   C112-  C111-  C110-  H10R
  1188   1191   1194   1196      9     0.00   0.66944   3 ;   C112-  C111-  C110-  H10S
  1188   1191   1194   1197      9     0.00   0.41840   1 ;   C112-  C111-  C110-   C19
  1188   1191   1194   1197      9     0.00   0.41840   2 ;   C112-  C111-  C110-   C19
  1188   1191   1194   1197      9     0.00   0.41840   4 ;   C112-  C111-  C110-   C19
  1188   1191   1194   1197      9     0.00   0.41840   5 ;   C112-  C111-  C110-   C19
  1188   1191   1194   1197      9     0.00   1.25520   3 ;   C112-  C111-  C110-   C19
  1189   1188   1191   1192      9     0.00   0.62760   3 ;   H12R-  C112-  C111-  H11R
  1189   1188   1191   1193      9     0.00   0.62760   3 ;   H12R-  C112-  C111-  H11S
  1189   1188   1191   1194      9     0.00   0.66944   3 ;   H12R-  C112-  C111-  C110
  1190   1188   1191   1192      9     0.00   0.62760   3 ;   H12S-  C112-  C111-  H11R
  1190   1188   1191   1193      9     0.00   0.62760   3 ;   H12S-  C112-  C111-  H11S
  1190   1188   1191   1194      9     0.00   0.66944   3 ;   H12S-  C112-  C111-  C110
  1191   1194   1197   1198      9     0.00   0.66944   3 ;   C111-  C110-   C19-   H9R
  1191   1194   1197   1199      9     0.00   0.66944   3 ;   C111-  C110-   C19-   H9S
  1191   1194   1197   1200      9     0.00   0.41840   1 ;   C111-  C110-   C19-   C18
  1191   1194   1197   1200      9     0.00   0.41840   2 ;   C111-  C110-   C19-   C18
  1191   1194   1197   1200      9     0.00   0.41840   4 ;   C111-  C110-   C19-   C18
  1191   1194   1197   1200      9     0.00   0.41840   5 ;   C111-  C110-   C19-   C18
  1191   1194   1197   1200      9     0.00   1.25520   3 ;   C111-  C110-   C19-   C18
  1192   1191   1194   1195      9     0.00   0.62760   3 ;   H11R-  C111-  C110-  H10R
  1192   1191   1194   1196      9     0.00   0.62760   3 ;   H11R-  C111-  C110-  H10S
  1192   1191   1194   1197      9     0.00   0.66944   3 ;   H11R-  C111-  C110-   C19
  1193   1191   1194   1195      9     0.00   0.62760   3 ;   H11S-  C111-  C110-  H10R
  1193   1191   1194   1196      9     0.00   0.62760   3 ;   H11S-  C111-  C110-  H10S
  1193   1191   1194   1197      9     0.00   0.66944   3 ;   H11S-  C111-  C110-   C19
  1194   1197   1200   1201      9     0.00   0.66944   3 ;   C110-   C19-   C18-   H8R
  1194   1197   1200   1202      9     0.00   0.66944   3 ;   C110-   C19-   C18-   H8S
  1194   1197   1200   1203      9     0.00   0.41840   1 ;   C110-   C19-   C18-   C17
  1194   1197   1200   1203      9     0.00   0.41840   2 ;   C110-   C19-   C18-   C17
  1194   1197   1200   1203      9     0.00   0.41840   4 ;   C110-   C19-   C18-   C17
  1194   1197   1200   1203      9     0.00   0.41840   5 ;   C110-   C19-   C18-   C17
  1194   1197   1200   1203      9     0.00   1.25520   3 ;   C110-   C19-   C18-   C17
  1195   1194   1197   1198      9     0.00   0.62760   3 ;   H10R-  C110-   C19-   H9R
  1195   1194   1197   1199      9     0.00   0.62760   3 ;   H10R-  C110-   C19-   H9S
  1195   1194   1197   1200      9     0.00   0.66944   3 ;   H10R-  C110-   C19-   C18
  1196   1194   1197   1198      9     0.00   0.62760   3 ;   H10S-  C110-   C19-   H9R
  1196   1194   1197   1199      9     0.00   0.62760   3 ;   H10S-  C110-   C19-   H9S
  1196   1194   1197   1200      9     0.00   0.66944   3 ;   H10S-  C110-   C19-   C18
  1197   1200   1203   1204      9     0.00   0.66944   3 ;    C19-   C18-   C17-   H7R
  1197   1200   1203   1205      9     0.00   0.66944   3 ;    C19-   C18-   C17-   H7S
  1197   1200   1203   1206      9     0.00   0.41840   1 ;    C19-   C18-   C17-   C16
  1197   1200   1203   1206      9     0.00   0.41840   2 ;    C19-   C18-   C17-   C16
  1197   1200   1203   1206      9     0.00   0.41840   4 ;    C19-   C18-   C17-   C16
  1197   1200   1203   1206      9     0.00   0.41840   5 ;    C19-   C18-   C17-   C16
  1197   1200   1203   1206      9     0.00   1.25520   3 ;    C19-   C18-   C17-   C16
  1198   1197   1200   1201      9     0.00   0.62760   3 ;    H9R-   C19-   C18-   H8R
  1198   1197   1200   1202      9     0.00   0.62760   3 ;    H9R-   C19-   C18-   H8S
  1198   1197   1200   1203      9     0.00   0.66944   3 ;    H9R-   C19-   C18-   C17
  1199   1197   1200   1201      9     0.00   0.62760   3 ;    H9S-   C19-   C18-   H8R
  1199   1197   1200   1202      9     0.00   0.62760   3 ;    H9S-   C19-   C18-   H8S
  1199   1197   1200   1203      9     0.00   0.66944   3 ;    H9S-   C19-   C18-   C17
  1200   1203   1206   1207      9     0.00   0.66944   3 ;    C18-   C17-   C16-   H6R
  1200   1203   1206   1208      9     0.00   0.66944   3 ;    C18-   C17-   C16-   H6S
  1200   1203   1206   1209      9     0.00   0.41840   1 ;    C18-   C17-   C16-   C15
  1200   1203   1206   1209      9     0.00   0.41840   2 ;    C18-   C17-   C16-   C15
  1200   1203   1206   1209      9     0.00   0.41840   4 ;    C18-   C17-   C16-   C15
  1200   1203   1206   1209      9     0.00   0.41840   5 ;    C18-   C17-   C16-   C15
  1200   1203   1206   1209      9     0.00   1.25520   3 ;    C18-   C17-   C16-   C15
  1201   1200   1203   1204      9     0.00   0.62760   3 ;    H8R-   C18-   C17-   H7R
  1201   1200   1203   1205      9     0.00   0.62760   3 ;    H8R-   C18-   C17-   H7S
  1201   1200   1203   1206      9     0.00   0.66944   3 ;    H8R-   C18-   C17-   C16
  1202   1200   1203   1204      9     0.00   0.62760   3 ;    H8S-   C18-   C17-   H7R
  1202   1200   1203   1205      9     0.00   0.62760   3 ;    H8S-   C18-   C17-   H7S
  1202   1200   1203   1206      9     0.00   0.66944   3 ;    H8S-   C18-   C17-   C16
  1203   1206   1209   1210      9     0.00   0.66944   3 ;    C17-   C16-   C15-   H5R
  1203   1206   1209   1211      9     0.00   0.66944   3 ;    C17-   C16-   C15-   H5S
  1203   1206   1209   1212      9     0.00   0.41840   1 ;    C17-   C16-   C15-   C14
  1203   1206   1209   1212      9     0.00   0.41840   2 ;    C17-   C16-   C15-   C14
  1203   1206   1209   1212      9     0.00   0.41840   4 ;    C17-   C16-   C15-   C14
  1203   1206   1209   1212      9     0.00   0.41840   5 ;    C17-   C16-   C15-   C14
  1203   1206   1209   1212      9     0.00   1.25520   3 ;    C17-   C16-   C15-   C14
  1204   1203   1206   1207      9     0.00   0.62760   3 ;    H7R-   C17-   C16-   H6R
  1204   1203   1206   1208      9     0.00   0.62760   3 ;    H7R-   C17-   C16-   H6S
  1204   1203   1206   1209      9     0.00   0.66944   3 ;    H7R-   C17-   C16-   C15
  1205   1203   1206   1207      9     0.00   0.62760   3 ;    H7S-   C17-   C16-   H6R
  1205   1203   1206   1208      9     0.00   0.62760   3 ;    H7S-   C17-   C16-   H6S
  1205   1203   1206   1209      9     0.00   0.66944   3 ;    H7S-   C17-   C16-   C15
  1206   1209   1212   1213      9     0.00   0.66944   3 ;    C16-   C15-   C14-   H4R
  1206   1209   1212   1214      9     0.00   0.66944   3 ;    C16-   C15-   C14-   H4S
  1206   1209   1212   1215      9     0.00   0.41840   1 ;    C16-   C15-   C14-   C13
  1206   1209   1212   1215      9     0.00   0.41840   2 ;    C16-   C15-   C14-   C13
  1206   1209   1212   1215      9     0.00   0.41840   4 ;    C16-   C15-   C14-   C13
  1206   1209   1212   1215      9     0.00   0.41840   5 ;    C16-   C15-   C14-   C13
  1206   1209   1212   1215      9     0.00   1.25520   3 ;    C16-   C15-   C14-   C13
  1207   1206   1209   1210      9     0.00   0.62760   3 ;    H6R-   C16-   C15-   H5R
  1207   1206   1209   1211      9     0.00   0.62760   3 ;    H6R-   C16-   C15-   H5S
  1207   1206   1209   1212      9     0.00   0.66944   3 ;    H6R-   C16-   C15-   C14
  1208   1206   1209   1210      9     0.00   0.62760   3 ;    H6S-   C16-   C15-   H5R
  1208   1206   1209   1211      9     0.00   0.62760   3 ;    H6S-   C16-   C15-   H5S
  1208   1206   1209   1212      9     0.00   0.66944   3 ;    H6S-   C16-   C15-   C14
  1209   1212   1215   1216      9     0.00   0.66944   3 ;    C15-   C14-   C13-   H3R
  1209   1212   1215   1217      9     0.00   0.66944   3 ;    C15-   C14-   C13-   H3S
  1209   1212   1215   1218      9     0.00   0.41840   1 ;    C15-   C14-   C13-   C12
  1209   1212   1215   1218      9     0.00   0.41840   2 ;    C15-   C14-   C13-   C12
  1209   1212   1215   1218      9     0.00   0.41840   4 ;    C15-   C14-   C13-   C12
  1209   1212   1215   1218      9     0.00   0.41840   5 ;    C15-   C14-   C13-   C12
  1209   1212   1215   1218      9     0.00   1.25520   3 ;    C15-   C14-   C13-   C12
  1210   1209   1212   1213      9     0.00   0.62760   3 ;    H5R-   C15-   C14-   H4R
  1210   1209   1212   1214      9     0.00   0.62760   3 ;    H5R-   C15-   C14-   H4S
  1210   1209   1212   1215      9     0.00   0.66944   3 ;    H5R-   C15-   C14-   C13
  1211   1209   1212   1213      9     0.00   0.62760   3 ;    H5S-   C15-   C14-   H4R
  1211   1209   1212   1214      9     0.00   0.62760   3 ;    H5S-   C15-   C14-   H4S
  1211   1209   1212   1215      9     0.00   0.66944   3 ;    H5S-   C15-   C14-   C13
  1212   1215   1218   1219      9     0.00   0.66944   3 ;    C14-   C13-   C12-   H2R
  1212   1215   1218   1220      9     0.00   0.66944   3 ;    C14-   C13-   C12-   H2S
  1212   1215   1218   1221      9     0.00   0.65270   3 ;    C14-   C13-   C12-   C11
  1213   1212   1215   1216      9     0.00   0.62760   3 ;    H4R-   C14-   C13-   H3R
  1213   1212   1215   1217      9     0.00   0.62760   3 ;    H4R-   C14-   C13-   H3S
  1213   1212   1215   1218      9     0.00   0.66944   3 ;    H4R-   C14-   C13-   C12
  1214   1212   1215   1216      9     0.00   0.62760   3 ;    H4S-   C14-   C13-   H3R
  1214   1212   1215   1217      9     0.00   0.62760   3 ;    H4S-   C14-   C13-   H3S
  1214   1212   1215   1218      9     0.00   0.66944   3 ;    H4S-   C14-   C13-   C12
  1215   1218   1221   1222      9   180.00   0.00000   2 ;    C13-   C12-   C11-   O12
  1215   1218   1221   1223      9   180.00   0.00000   2 ;    C13-   C12-   C11-   O11
  1216   1215   1218   1219      9     0.00   0.62760   3 ;    H3R-   C13-   C12-   H2R
  1216   1215   1218   1220      9     0.00   0.62760   3 ;    H3R-   C13-   C12-   H2S
  1216   1215   1218   1221      9     0.00   0.65270   3 ;    H3R-   C13-   C12-   C11
  1217   1215   1218   1219      9     0.00   0.62760   3 ;    H3S-   C13-   C12-   H2R
  1217   1215   1218   1220      9     0.00   0.62760   3 ;    H3S-   C13-   C12-   H2S
  1217   1215   1218   1221      9     0.00   0.65270   3 ;    H3S-   C13-   C12-   C11
  1218   1221   1223   1224      9   180.00  11.29680   2 ;    C12-   C11-   O11-    C1
  1219   1218   1221   1222      9     0.00   3.34720   1 ;    H2R-   C12-   C11-   O12
  1219   1218   1221   1222      9   180.00   0.33472   3 ;    H2R-   C12-   C11-   O12
  1219   1218   1221   1223      9   180.00   0.00000   2 ;    H2R-   C12-   C11-   O11
  1220   1218   1221   1222      9     0.00   3.34720   1 ;    H2S-   C12-   C11-   O12
  1220   1218   1221   1222      9   180.00   0.33472   3 ;    H2S-   C12-   C11-   O12
  1220   1218   1221   1223      9   180.00   0.00000   2 ;    H2S-   C12-   C11-   O11
  1221   1223   1224   1225      9     0.00   1.60247   3 ;    C11-   O11-    C1-    HR
  1221   1223   1224   1226      9     0.00   1.60247   3 ;    C11-   O11-    C1-    HS
  1221   1223   1224   1227      9     0.00  -0.41840   1 ;    C11-   O11-    C1-    C2
  1222   1221   1223   1224      9   180.00   5.85760   1 ;    O12-   C11-   O11-    C1
  1222   1221   1223   1224      9   180.00  11.29680   2 ;    O12-   C11-   O11-    C1
  1223   1224   1227   1228      9     0.00   0.00000   0 ;    O11-    C1-    C2-    HX
  1223   1224   1227   1228      9     0.00   1.04600   1 ;    O11-    C1-    C2-    HX
  1223   1224   1227   1229      9     0.00   0.00000   0 ;    O11-    C1-    C2-    C3
  1223   1224   1227   1229      9     0.00   0.00000   0 ;    O11-    C1-    C2-    C3
  1223   1224   1227   1229      9     0.00   0.00000   0 ;    O11-    C1-    C2-    C3
  1223   1224   1227   1229      9     0.00   0.00000   0 ;    O11-    C1-    C2-    C3
  1223   1224   1227   1229      9     0.00   0.00000   0 ;    O11-    C1-    C2-    C3
  1223   1224   1227   1256      9     0.00   1.25520   2 ;    O11-    C1-    C2-   O21
  1223   1224   1227   1256      9     0.00   4.18400   3 ;    O11-    C1-    C2-   O21
  1223   1224   1227   1256      9   180.00  -0.41840   1 ;    O11-    C1-    C2-   O21
  1224   1227   1229   1230      9     0.00   0.65270   3 ;     C1-    C2-    C3-    HA
  1224   1227   1229   1231      9     0.00   0.65270   3 ;     C1-    C2-    C3-    HB
  1224   1227   1229   1232      9   180.00   3.34720   1 ;     C1-    C2-    C3-   O31
  1224   1227   1256   1257      9     0.00  -0.41840   1 ;     C1-    C2-   O21-   C21
  1225   1224   1227   1228      9     0.00   0.65270   3 ;     HR-    C1-    C2-    HX
  1225   1224   1227   1229      9     0.00   0.65270   3 ;     HR-    C1-    C2-    C3
  1225   1224   1227   1256      9     0.00   0.00000   0 ;     HR-    C1-    C2-   O21
  1225   1224   1227   1256      9     0.00   1.04600   1 ;     HR-    C1-    C2-   O21
  1226   1224   1227   1228      9     0.00   0.65270   3 ;     HS-    C1-    C2-    HX
  1226   1224   1227   1229      9     0.00   0.65270   3 ;     HS-    C1-    C2-    C3
  1226   1224   1227   1256      9     0.00   0.00000   0 ;     HS-    C1-    C2-   O21
  1226   1224   1227   1256      9     0.00   1.04600   1 ;     HS-    C1-    C2-   O21
  1227   1229   1232   1233      9     0.00   0.00000   0 ;     C2-    C3-   O31-   P31
  1227   1229   1232   1233      9   180.00  -3.34720   2 ;     C2-    C3-   O31-   P31
  1227   1256   1257   1258      9   180.00   5.85760   1 ;     C2-   O21-   C21-   O22
  1227   1256   1257   1258      9   180.00  11.29680   2 ;     C2-   O21-   C21-   O22
  1227   1256   1257   1296      9   180.00  11.29680   2 ;     C2-   O21-   C21-   C12
  1228   1227   1229   1230      9     0.00   0.65270   3 ;     HX-    C2-    C3-    HA
  1228   1227   1229   1231      9     0.00   0.65270   3 ;     HX-    C2-    C3-    HB
  1228   1227   1229   1232      9     0.00   0.00000   0 ;     HX-    C2-    C3-   O31
  1228   1227   1229   1232      9     0.00   1.04600   1 ;     HX-    C2-    C3-   O31
  1228   1227   1256   1257      9     0.00   1.60247   3 ;     HX-    C2-   O21-   C21
  1229   1227   1256   1257      9     0.00  -0.41840   1 ;     C3-    C2-   O21-   C21
  1229   1232   1233   1234      9     0.00   2.51040   3 ;     C3-   O31-   P31-   O32
  1229   1232   1233   1234      9     0.00   9.62320   2 ;     C3-   O31-   P31-   O32
  1229   1232   1233   1254      9     0.00   0.00000   0 ;     C3-   O31-   P31-   O33
  1229   1232   1233   1254      9     0.00   0.00000   0 ;     C3-   O31-   P31-   O33
  1229   1232   1233   1254      9     0.00   0.00000   0 ;     C3-   O31-   P31-   O33
  1229   1232   1233   1254      9     0.00   0.00000   0 ;     C3-   O31-   P31-   O33
  1229   1232   1233   1254      9     0.00   0.83680   2 ;     C3-   O31-   P31-   O33
  1229   1232   1233   1255      9     0.00   0.00000   0 ;     C3-   O31-   P31-   O34
  1229   1232   1233   1255      9     0.00   0.00000   0 ;     C3-   O31-   P31-   O34
  1229   1232   1233   1255      9     0.00   0.00000   0 ;     C3-   O31-   P31-   O34
  1229   1232   1233   1255      9     0.00   0.00000   0 ;     C3-   O31-   P31-   O34
  1229   1232   1233   1255      9     0.00   0.83680   2 ;     C3-   O31-   P31-   O34
  1230   1229   1227   1256      9     0.00   0.00000   0 ;     HA-    C3-    C2-   O21
  1230   1229   1227   1256      9     0.00   1.04600   1 ;     HA-    C3-    C2-   O21
  1230   1229   1232   1233      9     0.00   0.00000   0 ;     HA-    C3-   O31-   P31
  1230   1229   1232   1233      9     0.00   0.00000   0 ;     HA-    C3-   O31-   P31
  1230   1229   1232   1233      9     0.00   0.00000   0 ;     HA-    C3-   O31-   P31
  1230   1229   1232   1233      9     0.00   0.00000   0 ;     HA-    C3-   O31-   P31
  1230   1229   1232   1233      9     0.00   1.60247   3 ;     HA-    C3-   O31-   P31
  1231   1229   1227   1256      9     0.00   0.00000   0 ;     HB-    C3-    C2-   O21
  1231   1229   1227   1256      9     0.00   1.04600   1 ;     HB-    C3-    C2-   O21
  1231   1229   1232   1233      9     0.00   0.00000   0 ;     HB-    C3-   O31-   P31
  1231   1229   1232   1233      9     0.00   0.00000   0 ;     HB-    C3-   O31-   P31
  1231   1229   1232   1233      9     0.00   0.00000   0 ;     HB-    C3-   O31-   P31
  1231   1229   1232   1233      9     0.00   0.00000   0 ;     HB-    C3-   O31-   P31
  1231   1229   1232   1233      9     0.00   1.60247   3 ;     HB-    C3-   O31-   P31
  1232   1229   1227   1256      9     0.00   0.00000   0 ;    O31-    C3-    C2-   O21
  1232   1229   1227   1256      9     0.00   0.00000   0 ;    O31-    C3-    C2-   O21
  1232   1229   1227   1256      9     0.00   0.00000   0 ;    O31-    C3-    C2-   O21
  1232   1229   1227   1256      9     0.00   0.00000   0 ;    O31-    C3-    C2-   O21
  1232   1229   1227   1256      9     0.00   0.00000   0 ;    O31-    C3-    C2-   O21
  1232   1233   1234   1235      9     0.00   2.51040   3 ;    O31-   P31-   O32-   C31
  1232   1233   1234   1235      9     0.00   9.62320   2 ;    O31-   P31-   O32-   C31
  1233   1234   1235   1236      9     0.00   0.00000   0 ;    P31-   O32-   C31-   H1A
  1233   1234   1235   1236      9     0.00   0.00000   0 ;    P31-   O32-   C31-   H1A
  1233   1234   1235   1236      9     0.00   0.00000   0 ;    P31-   O32-   C31-   H1A
  1233   1234   1235   1236      9     0.00   0.00000   0 ;    P31-   O32-   C31-   H1A
  1233   1234   1235   1236      9     0.00   1.60247   3 ;    P31-   O32-   C31-   H1A
  1233   1234   1235   1237      9     0.00   0.00000   0 ;    P31-   O32-   C31-   H1B
  1233   1234   1235   1237      9     0.00   0.00000   0 ;    P31-   O32-   C31-   H1B
  1233   1234   1235   1237      9     0.00   0.00000   0 ;    P31-   O32-   C31-   H1B
  1233   1234   1235   1237      9     0.00   0.00000   0 ;    P31-   O32-   C31-   H1B
  1233   1234   1235   1237      9     0.00   1.60247   3 ;    P31-   O32-   C31-   H1B
  1233   1234   1235   1238      9     0.00   0.00000   0 ;    P31-   O32-   C31-   C32
  1233   1234   1235   1238      9   180.00  -3.34720   2 ;    P31-   O32-   C31-   C32
  1234   1235   1238   1239      9     0.00   0.65270   3 ;    O32-   C31-   C32-   H2A
  1234   1235   1238   1240      9     0.00   0.65270   3 ;    O32-   C31-   C32-   H2B
  1234   1235   1238   1241      9     0.00   4.18400   3 ;    O32-   C31-   C32-   N31
  1235   1234   1233   1254      9     0.00   0.00000   0 ;    C31-   O32-   P31-   O33
  1235   1234   1233   1254      9     0.00   0.00000   0 ;    C31-   O32-   P31-   O33
  1235   1234   1233   1254      9     0.00   0.00000   0 ;    C31-   O32-   P31-   O33
  1235   1234   1233   1254      9     0.00   0.00000   0 ;    C31-   O32-   P31-   O33
  1235   1234   1233   1254      9     0.00   0.83680   2 ;    C31-   O32-   P31-   O33
  1235   1234   1233   1255      9     0.00   0.00000   0 ;    C31-   O32-   P31-   O34
  1235   1234   1233   1255      9     0.00   0.00000   0 ;    C31-   O32-   P31-   O34
  1235   1234   1233   1255      9     0.00   0.00000   0 ;    C31-   O32-   P31-   O34
  1235   1234   1233   1255      9     0.00   0.00000   0 ;    C31-   O32-   P31-   O34
  1235   1234   1233   1255      9     0.00   0.83680   2 ;    C31-   O32-   P31-   O34
  1235   1238   1241   1242      9     0.00   0.65270   3 ;    C31-   C32-   N31-   C33
  1235   1238   1241   1246      9     0.00   0.65270   3 ;    C31-   C32-   N31-   C34
  1235   1238   1241   1250      9     0.00   0.65270   3 ;    C31-   C32-   N31-   C35
  1236   1235   1238   1239      9     0.00   0.65270   3 ;    H1A-   C31-   C32-   H2A
  1236   1235   1238   1240      9     0.00   0.65270   3 ;    H1A-   C31-   C32-   H2B
  1236   1235   1238   1241      9     0.00   0.65270   3 ;    H1A-   C31-   C32-   N31
  1237   1235   1238   1239      9     0.00   0.65270   3 ;    H1B-   C31-   C32-   H2A
  1237   1235   1238   1240      9     0.00   0.65270   3 ;    H1B-   C31-   C32-   H2B
  1237   1235   1238   1241      9     0.00   0.65270   3 ;    H1B-   C31-   C32-   N31
  1238   1241   1242   1243      9     0.00   0.65270   3 ;    C32-   N31-   C33-   H3A
  1238   1241   1242   1244      9     0.00   0.65270   3 ;    C32-   N31-   C33-   H3B
  1238   1241   1242   1245      9     0.00   0.65270   3 ;    C32-   N31-   C33-   H3C
  1238   1241   1246   1247      9     0.00   0.65270   3 ;    C32-   N31-   C34-   H4A
  1238   1241   1246   1248      9     0.00   0.65270   3 ;    C32-   N31-   C34-   H4B
  1238   1241   1246   1249      9     0.00   0.65270   3 ;    C32-   N31-   C34-   H4C
  1238   1241   1250   1251      9     0.00   0.65270   3 ;    C32-   N31-   C35-   H5A
  1238   1241   1250   1252      9     0.00   0.65270   3 ;    C32-   N31-   C35-   H5B
  1238   1241   1250   1253      9     0.00   0.65270   3 ;    C32-   N31-   C35-   H5C
  1239   1238   1241   1242      9     0.00   0.65270   3 ;    H2A-   C32-   N31-   C33
  1239   1238   1241   1246      9     0.00   0.65270   3 ;    H2A-   C32-   N31-   C34
  1239   1238   1241   1250      9     0.00   0.65270   3 ;    H2A-   C32-   N31-   C35
  1240   1238   1241   1242      9     0.00   0.65270   3 ;    H2B-   C32-   N31-   C33
  1240   1238   1241   1246      9     0.00   0.65270   3 ;    H2B-   C32-   N31-   C34
  1240   1238   1241   1250      9     0.00   0.65270   3 ;    H2B-   C32-   N31-   C35
  1242   1241   1246   1247      9     0.00   0.65270   3 ;    C33-   N31-   C34-   H4A
  1242   1241   1246   1248      9     0.00   0.65270   3 ;    C33-   N31-   C34-   H4B
  1242   1241   1246   1249      9     0.00   0.65270   3 ;    C33-   N31-   C34-   H4C
  1242   1241   1250   1251      9     0.00   0.65270   3 ;    C33-   N31-   C35-   H5A
  1242   1241   1250   1252      9     0.00   0.65270   3 ;    C33-   N31-   C35-   H5B
  1242   1241   1250   1253      9     0.00   0.65270   3 ;    C33-   N31-   C35-   H5C
  1243   1242   1241   1246      9     0.00   0.65270   3 ;    H3A-   C33-   N31-   C34
  1243   1242   1241   1250      9     0.00   0.65270   3 ;    H3A-   C33-   N31-   C35
  1244   1242   1241   1246      9     0.00   0.65270   3 ;    H3B-   C33-   N31-   C34
  1244   1242   1241   1250      9     0.00   0.65270   3 ;    H3B-   C33-   N31-   C35
  1245   1242   1241   1246      9     0.00   0.65270   3 ;    H3C-   C33-   N31-   C34
  1245   1242   1241   1250      9     0.00   0.65270   3 ;    H3C-   C33-   N31-   C35
  1246   1241   1250   1251      9     0.00   0.65270   3 ;    C34-   N31-   C35-   H5A
  1246   1241   1250   1252      9     0.00   0.65270   3 ;    C34-   N31-   C35-   H5B
  1246   1241   1250   1253      9     0.00   0.65270   3 ;    C34-   N31-   C35-   H5C
  1247   1246   1241   1250      9     0.00   0.65270   3 ;    H4A-   C34-   N31-   C35
  1248   1246   1241   1250      9     0.00   0.65270   3 ;    H4B-   C34-   N31-   C35
  1249   1246   1241   1250      9     0.00   0.65270   3 ;    H4C-   C34-   N31-   C35
  1256   1257   1296   1293      9   180.00   0.00000   2 ;    O21-   C21-   C12-   C13
  1256   1257   1296   1297      9   180.00   0.00000   2 ;    O21-   C21-   C12-   H2R
  1256   1257   1296   1298      9   180.00   0.00000   2 ;    O21-   C21-   C12-   H2S
  1257   1296   1293   1290      9     0.00   0.65270   3 ;    C21-   C12-   C13-   C14
  1257   1296   1293   1294      9     0.00   0.65270   3 ;    C21-   C12-   C13-   H3R
  1257   1296   1293   1295      9     0.00   0.65270   3 ;    C21-   C12-   C13-   H3S
  1258   1257   1296   1293      9   180.00   0.00000   2 ;    O22-   C21-   C12-   C13
  1258   1257   1296   1297      9     0.00   3.34720   1 ;    O22-   C21-   C12-   H2R
  1258   1257   1296   1297      9   180.00   0.33472   3 ;    O22-   C21-   C12-   H2R
  1258   1257   1296   1298      9     0.00   3.34720   1 ;    O22-   C21-   C12-   H2S
  1258   1257   1296   1298      9   180.00   0.33472   3 ;    O22-   C21-   C12-   H2S
  1259   1260   1263   1264      9     0.00   0.62760   3 ;   H14T-  C114-  C113-  H13R
  1259   1260   1263   1265      9     0.00   0.62760   3 ;   H14T-  C114-  C113-  H13S
  1259   1260   1263   1266      9     0.00   0.66944   3 ;   H14T-  C114-  C113-  C112
  1260   1263   1266   1267      9     0.00   0.66944   3 ;   C114-  C113-  C112-  H12R
  1260   1263   1266   1268      9     0.00   0.66944   3 ;   C114-  C113-  C112-  H12S
  1260   1263   1266   1269      9     0.00   0.41840   1 ;   C114-  C113-  C112-  C111
  1260   1263   1266   1269      9     0.00   0.41840   2 ;   C114-  C113-  C112-  C111
  1260   1263   1266   1269      9     0.00   0.41840   4 ;   C114-  C113-  C112-  C111
  1260   1263   1266   1269      9     0.00   0.41840   5 ;   C114-  C113-  C112-  C111
  1260   1263   1266   1269      9     0.00   1.25520   3 ;   C114-  C113-  C112-  C111
  1261   1260   1263   1264      9     0.00   0.62760   3 ;   H14R-  C114-  C113-  H13R
  1261   1260   1263   1265      9     0.00   0.62760   3 ;   H14R-  C114-  C113-  H13S
  1261   1260   1263   1266      9     0.00   0.66944   3 ;   H14R-  C114-  C113-  C112
  1262   1260   1263   1264      9     0.00   0.62760   3 ;   H14S-  C114-  C113-  H13R
  1262   1260   1263   1265      9     0.00   0.62760   3 ;   H14S-  C114-  C113-  H13S
  1262   1260   1263   1266      9     0.00   0.66944   3 ;   H14S-  C114-  C113-  C112
  1263   1266   1269   1270      9     0.00   0.66944   3 ;   C113-  C112-  C111-  H11R
  1263   1266   1269   1271      9     0.00   0.66944   3 ;   C113-  C112-  C111-  H11S
  1263   1266   1269   1272      9     0.00   0.41840   1 ;   C113-  C112-  C111-  C110
  1263   1266   1269   1272      9     0.00   0.41840   2 ;   C113-  C112-  C111-  C110
  1263   1266   1269   1272      9     0.00   0.41840   4 ;   C113-  C112-  C111-  C110
  1263   1266   1269   1272      9     0.00   0.41840   5 ;   C113-  C112-  C111-  C110
  1263   1266   1269   1272      9     0.00   1.25520   3 ;   C113-  C112-  C111-  C110
  1264   1263   1266   1267      9     0.00   0.62760   3 ;   H13R-  C113-  C112-  H12R
  1264   1263   1266   1268      9     0.00   0.62760   3 ;   H13R-  C113-  C112-  H12S
  1264   1263   1266   1269      9     0.00   0.66944   3 ;   H13R-  C113-  C112-  C111
  1265   1263   1266   1267      9     0.00   0.62760   3 ;   H13S-  C113-  C112-  H12R
  1265   1263   1266   1268      9     0.00   0.62760   3 ;   H13S-  C113-  C112-  H12S
  1265   1263   1266   1269      9     0.00   0.66944   3 ;   H13S-  C113-  C112-  C111
  1266   1269   1272   1273      9     0.00   0.66944   3 ;   C112-  C111-  C110-  H10R
  1266   1269   1272   1274      9     0.00   0.66944   3 ;   C112-  C111-  C110-  H10S
  1266   1269   1272   1275      9     0.00   0.41840   1 ;   C112-  C111-  C110-   C19
  1266   1269   1272   1275      9     0.00   0.41840   2 ;   C112-  C111-  C110-   C19
  1266   1269   1272   1275      9     0.00   0.41840   4 ;   C112-  C111-  C110-   C19
  1266   1269   1272   1275      9     0.00   0.41840   5 ;   C112-  C111-  C110-   C19
  1266   1269   1272   1275      9     0.00   1.25520   3 ;   C112-  C111-  C110-   C19
  1267   1266   1269   1270      9     0.00   0.62760   3 ;   H12R-  C112-  C111-  H11R
  1267   1266   1269   1271      9     0.00   0.62760   3 ;   H12R-  C112-  C111-  H11S
  1267   1266   1269   1272      9     0.00   0.66944   3 ;   H12R-  C112-  C111-  C110
  1268   1266   1269   1270      9     0.00   0.62760   3 ;   H12S-  C112-  C111-  H11R
  1268   1266   1269   1271      9     0.00   0.62760   3 ;   H12S-  C112-  C111-  H11S
  1268   1266   1269   1272      9     0.00   0.66944   3 ;   H12S-  C112-  C111-  C110
  1269   1272   1275   1276      9     0.00   0.66944   3 ;   C111-  C110-   C19-   H9R
  1269   1272   1275   1277      9     0.00   0.66944   3 ;   C111-  C110-   C19-   H9S
  1269   1272   1275   1278      9     0.00   0.41840   1 ;   C111-  C110-   C19-   C18
  1269   1272   1275   1278      9     0.00   0.41840   2 ;   C111-  C110-   C19-   C18
  1269   1272   1275   1278      9     0.00   0.41840   4 ;   C111-  C110-   C19-   C18
  1269   1272   1275   1278      9     0.00   0.41840   5 ;   C111-  C110-   C19-   C18
  1269   1272   1275   1278      9     0.00   1.25520   3 ;   C111-  C110-   C19-   C18
  1270   1269   1272   1273      9     0.00   0.62760   3 ;   H11R-  C111-  C110-  H10R
  1270   1269   1272   1274      9     0.00   0.62760   3 ;   H11R-  C111-  C110-  H10S
  1270   1269   1272   1275      9     0.00   0.66944   3 ;   H11R-  C111-  C110-   C19
  1271   1269   1272   1273      9     0.00   0.62760   3 ;   H11S-  C111-  C110-  H10R
  1271   1269   1272   1274      9     0.00   0.62760   3 ;   H11S-  C111-  C110-  H10S
  1271   1269   1272   1275      9     0.00   0.66944   3 ;   H11S-  C111-  C110-   C19
  1272   1275   1278   1279      9     0.00   0.66944   3 ;   C110-   C19-   C18-   H8R
  1272   1275   1278   1280      9     0.00   0.66944   3 ;   C110-   C19-   C18-   H8S
  1272   1275   1278   1281      9     0.00   0.41840   1 ;   C110-   C19-   C18-   C17
  1272   1275   1278   1281      9     0.00   0.41840   2 ;   C110-   C19-   C18-   C17
  1272   1275   1278   1281      9     0.00   0.41840   4 ;   C110-   C19-   C18-   C17
  1272   1275   1278   1281      9     0.00   0.41840   5 ;   C110-   C19-   C18-   C17
  1272   1275   1278   1281      9     0.00   1.25520   3 ;   C110-   C19-   C18-   C17
  1273   1272   1275   1276      9     0.00   0.62760   3 ;   H10R-  C110-   C19-   H9R
  1273   1272   1275   1277      9     0.00   0.62760   3 ;   H10R-  C110-   C19-   H9S
  1273   1272   1275   1278      9     0.00   0.66944   3 ;   H10R-  C110-   C19-   C18
  1274   1272   1275   1276      9     0.00   0.62760   3 ;   H10S-  C110-   C19-   H9R
  1274   1272   1275   1277      9     0.00   0.62760   3 ;   H10S-  C110-   C19-   H9S
  1274   1272   1275   1278      9     0.00   0.66944   3 ;   H10S-  C110-   C19-   C18
  1275   1278   1281   1282      9     0.00   0.66944   3 ;    C19-   C18-   C17-   H7R
  1275   1278   1281   1283      9     0.00   0.66944   3 ;    C19-   C18-   C17-   H7S
  1275   1278   1281   1284      9     0.00   0.41840   1 ;    C19-   C18-   C17-   C16
  1275   1278   1281   1284      9     0.00   0.41840   2 ;    C19-   C18-   C17-   C16
  1275   1278   1281   1284      9     0.00   0.41840   4 ;    C19-   C18-   C17-   C16
  1275   1278   1281   1284      9     0.00   0.41840   5 ;    C19-   C18-   C17-   C16
  1275   1278   1281   1284      9     0.00   1.25520   3 ;    C19-   C18-   C17-   C16
  1276   1275   1278   1279      9     0.00   0.62760   3 ;    H9R-   C19-   C18-   H8R
  1276   1275   1278   1280      9     0.00   0.62760   3 ;    H9R-   C19-   C18-   H8S
  1276   1275   1278   1281      9     0.00   0.66944   3 ;    H9R-   C19-   C18-   C17
  1277   1275   1278   1279      9     0.00   0.62760   3 ;    H9S-   C19-   C18-   H8R
  1277   1275   1278   1280      9     0.00   0.62760   3 ;    H9S-   C19-   C18-   H8S
  1277   1275   1278   1281      9     0.00   0.66944   3 ;    H9S-   C19-   C18-   C17
  1278   1281   1284   1285      9     0.00   0.66944   3 ;    C18-   C17-   C16-   H6R
  1278   1281   1284   1286      9     0.00   0.66944   3 ;    C18-   C17-   C16-   H6S
  1278   1281   1284   1287      9     0.00   0.41840   1 ;    C18-   C17-   C16-   C15
  1278   1281   1284   1287      9     0.00   0.41840   2 ;    C18-   C17-   C16-   C15
  1278   1281   1284   1287      9     0.00   0.41840   4 ;    C18-   C17-   C16-   C15
  1278   1281   1284   1287      9     0.00   0.41840   5 ;    C18-   C17-   C16-   C15
  1278   1281   1284   1287      9     0.00   1.25520   3 ;    C18-   C17-   C16-   C15
  1279   1278   1281   1282      9     0.00   0.62760   3 ;    H8R-   C18-   C17-   H7R
  1279   1278   1281   1283      9     0.00   0.62760   3 ;    H8R-   C18-   C17-   H7S
  1279   1278   1281   1284      9     0.00   0.66944   3 ;    H8R-   C18-   C17-   C16
  1280   1278   1281   1282      9     0.00   0.62760   3 ;    H8S-   C18-   C17-   H7R
  1280   1278   1281   1283      9     0.00   0.62760   3 ;    H8S-   C18-   C17-   H7S
  1280   1278   1281   1284      9     0.00   0.66944   3 ;    H8S-   C18-   C17-   C16
  1281   1284   1287   1288      9     0.00   0.66944   3 ;    C17-   C16-   C15-   H5R
  1281   1284   1287   1289      9     0.00   0.66944   3 ;    C17-   C16-   C15-   H5S
  1281   1284   1287   1290      9     0.00   0.41840   1 ;    C17-   C16-   C15-   C14
  1281   1284   1287   1290      9     0.00   0.41840   2 ;    C17-   C16-   C15-   C14
  1281   1284   1287   1290      9     0.00   0.41840   4 ;    C17-   C16-   C15-   C14
  1281   1284   1287   1290      9     0.00   0.41840   5 ;    C17-   C16-   C15-   C14
  1281   1284   1287   1290      9     0.00   1.25520   3 ;    C17-   C16-   C15-   C14
  1282   1281   1284   1285      9     0.00   0.62760   3 ;    H7R-   C17-   C16-   H6R
  1282   1281   1284   1286      9     0.00   0.62760   3 ;    H7R-   C17-   C16-   H6S
  1282   1281   1284   1287      9     0.00   0.66944   3 ;    H7R-   C17-   C16-   C15
  1283   1281   1284   1285      9     0.00   0.62760   3 ;    H7S-   C17-   C16-   H6R
  1283   1281   1284   1286      9     0.00   0.62760   3 ;    H7S-   C17-   C16-   H6S
  1283   1281   1284   1287      9     0.00   0.66944   3 ;    H7S-   C17-   C16-   C15
  1284   1287   1290   1291      9     0.00   0.66944   3 ;    C16-   C15-   C14-   H4R
  1284   1287   1290   1292      9     0.00   0.66944   3 ;    C16-   C15-   C14-   H4S
  1284   1287   1290   1293      9     0.00   0.41840   1 ;    C16-   C15-   C14-   C13
  1284   1287   1290   1293      9     0.00   0.41840   2 ;    C16-   C15-   C14-   C13
  1284   1287   1290   1293      9     0.00   0.41840   4 ;    C16-   C15-   C14-   C13
  1284   1287   1290   1293      9     0.00   0.41840   5 ;    C16-   C15-   C14-   C13
  1284   1287   1290   1293      9     0.00   1.25520   3 ;    C16-   C15-   C14-   C13
  1285   1284   1287   1288      9     0.00   0.62760   3 ;    H6R-   C16-   C15-   H5R
  1285   1284   1287   1289      9     0.00   0.62760   3 ;    H6R-   C16-   C15-   H5S
  1285   1284   1287   1290      9     0.00   0.66944   3 ;    H6R-   C16-   C15-   C14
  1286   1284   1287   1288      9     0.00   0.62760   3 ;    H6S-   C16-   C15-   H5R
  1286   1284   1287   1289      9     0.00   0.62760   3 ;    H6S-   C16-   C15-   H5S
  1286   1284   1287   1290      9     0.00   0.66944   3 ;    H6S-   C16-   C15-   C14
  1287   1290   1293   1294      9     0.00   0.66944   3 ;    C15-   C14-   C13-   H3R
  1287   1290   1293   1295      9     0.00   0.66944   3 ;    C15-   C14-   C13-   H3S
  1287   1290   1293   1296      9     0.00   0.41840   1 ;    C15-   C14-   C13-   C12
  1287   1290   1293   1296      9     0.00   0.41840   2 ;    C15-   C14-   C13-   C12
  1287   1290   1293   1296      9     0.00   0.41840   4 ;    C15-   C14-   C13-   C12
  1287   1290   1293   1296      9     0.00   0.41840   5 ;    C15-   C14-   C13-   C12
  1287   1290   1293   1296      9     0.00   1.25520   3 ;    C15-   C14-   C13-   C12
  1288   1287   1290   1291      9     0.00   0.62760   3 ;    H5R-   C15-   C14-   H4R
  1288   1287   1290   1292      9     0.00   0.62760   3 ;    H5R-   C15-   C14-   H4S
  1288   1287   1290   1293      9     0.00   0.66944   3 ;    H5R-   C15-   C14-   C13
  1289   1287   1290   1291      9     0.00   0.62760   3 ;    H5S-   C15-   C14-   H4R
  1289   1287   1290   1292      9     0.00   0.62760   3 ;    H5S-   C15-   C14-   H4S
  1289   1287   1290   1293      9     0.00   0.66944   3 ;    H5S-   C15-   C14-   C13
  1290   1293   1296   1297      9     0.00   0.66944   3 ;    C14-   C13-   C12-   H2R
  1290   1293   1296   1298      9     0.00   0.66944   3 ;    C14-   C13-   C12-   H2S
  1291   1290   1293   1294      9     0.00   0.62760   3 ;    H4R-   C14-   C13-   H3R
  1291   1290   1293   1295      9     0.00   0.62760   3 ;    H4R-   C14-   C13-   H3S
  1291   1290   1293   1296      9     0.00   0.66944   3 ;    H4R-   C14-   C13-   C12
  1292   1290   1293   1294      9     0.00   0.62760   3 ;    H4S-   C14-   C13-   H3R
  1292   1290   1293   1295      9     0.00   0.62760   3 ;    H4S-   C14-   C13-   H3S
  1292   1290   1293   1296      9     0.00   0.66944   3 ;    H4S-   C14-   C13-   C12
  1294   1293   1296   1297      9     0.00   0.62760   3 ;    H3R-   C13-   C12-   H2R
  1294   1293   1296   1298      9     0.00   0.62760   3 ;    H3R-   C13-   C12-   H2S
  1295   1293   1296   1297      9     0.00   0.62760   3 ;    H3S-   C13-   C12-   H2R
  1295   1293   1296   1298      9     0.00   0.62760   3 ;    H3S-   C13-   C12-   H2S
  1299   1300   1303   1304      9     0.00   0.62760   3 ;   H14T-  C114-  C113-  H13R
  1299   1300   1303   1305      9     0.00   0.62760   3 ;   H14T-  C114-  C113-  H13S
  1299   1300   1303   1306      9     0.00   0.66944   3 ;   H14T-  C114-  C113-  C112
  1300   1303   1306   1307      9     0.00   0.66944   3 ;   C114-  C113-  C112-  H12R
  1300   1303   1306   1308      9     0.00   0.66944   3 ;   C114-  C113-  C112-  H12S
  1300   1303   1306   1309      9     0.00   0.41840   1 ;   C114-  C113-  C112-  C111
  1300   1303   1306   1309      9     0.00   0.41840   2 ;   C114-  C113-  C112-  C111
  1300   1303   1306   1309      9     0.00   0.41840   4 ;   C114-  C113-  C112-  C111
  1300   1303   1306   1309      9     0.00   0.41840   5 ;   C114-  C113-  C112-  C111
  1300   1303   1306   1309      9     0.00   1.25520   3 ;   C114-  C113-  C112-  C111
  1301   1300   1303   1304      9     0.00   0.62760   3 ;   H14R-  C114-  C113-  H13R
  1301   1300   1303   1305      9     0.00   0.62760   3 ;   H14R-  C114-  C113-  H13S
  1301   1300   1303   1306      9     0.00   0.66944   3 ;   H14R-  C114-  C113-  C112
  1302   1300   1303   1304      9     0.00   0.62760   3 ;   H14S-  C114-  C113-  H13R
  1302   1300   1303   1305      9     0.00   0.62760   3 ;   H14S-  C114-  C113-  H13S
  1302   1300   1303   1306      9     0.00   0.66944   3 ;   H14S-  C114-  C113-  C112
  1303   1306   1309   1310      9     0.00   0.66944   3 ;   C113-  C112-  C111-  H11R
  1303   1306   1309   1311      9     0.00   0.66944   3 ;   C113-  C112-  C111-  H11S
  1303   1306   1309   1312      9     0.00   0.41840   1 ;   C113-  C112-  C111-  C110
  1303   1306   1309   1312      9     0.00   0.41840   2 ;   C113-  C112-  C111-  C110
  1303   1306   1309   1312      9     0.00   0.41840   4 ;   C113-  C112-  C111-  C110
  1303   1306   1309   1312      9     0.00   0.41840   5 ;   C113-  C112-  C111-  C110
  1303   1306   1309   1312      9     0.00   1.25520   3 ;   C113-  C112-  C111-  C110
  1304   1303   1306   1307      9     0.00   0.62760   3 ;   H13R-  C113-  C112-  H12R
  1304   1303   1306   1308      9     0.00   0.62760   3 ;   H13R-  C113-  C112-  H12S
  1304   1303   1306   1309      9     0.00   0.66944   3 ;   H13R-  C113-  C112-  C111
  1305   1303   1306   1307      9     0.00   0.62760   3 ;   H13S-  C113-  C112-  H12R
  1305   1303   1306   1308      9     0.00   0.62760   3 ;   H13S-  C113-  C112-  H12S
  1305   1303   1306   1309      9     0.00   0.66944   3 ;   H13S-  C113-  C112-  C111
  1306   1309   1312   1313      9     0.00   0.66944   3 ;   C112-  C111-  C110-  H10R
  1306   1309   1312   1314      9     0.00   0.66944   3 ;   C112-  C111-  C110-  H10S
  1306   1309   1312   1315      9     0.00   0.41840   1 ;   C112-  C111-  C110-   C19
  1306   1309   1312   1315      9     0.00   0.41840   2 ;   C112-  C111-  C110-   C19
  1306   1309   1312   1315      9     0.00   0.41840   4 ;   C112-  C111-  C110-   C19
  1306   1309   1312   1315      9     0.00   0.41840   5 ;   C112-  C111-  C110-   C19
  1306   1309   1312   1315      9     0.00   1.25520   3 ;   C112-  C111-  C110-   C19
  1307   1306   1309   1310      9     0.00   0.62760   3 ;   H12R-  C112-  C111-  H11R
  1307   1306   1309   1311      9     0.00   0.62760   3 ;   H12R-  C112-  C111-  H11S
  1307   1306   1309   1312      9     0.00   0.66944   3 ;   H12R-  C112-  C111-  C110
  1308   1306   1309   1310      9     0.00   0.62760   3 ;   H12S-  C112-  C111-  H11R
  1308   1306   1309   1311      9     0.00   0.62760   3 ;   H12S-  C112-  C111-  H11S
  1308   1306   1309   1312      9     0.00   0.66944   3 ;   H12S-  C112-  C111-  C110
  1309   1312   1315   1316      9     0.00   0.66944   3 ;   C111-  C110-   C19-   H9R
  1309   1312   1315   1317      9     0.00   0.66944   3 ;   C111-  C110-   C19-   H9S
  1309   1312   1315   1318      9     0.00   0.41840   1 ;   C111-  C110-   C19-   C18
  1309   1312   1315   1318      9     0.00   0.41840   2 ;   C111-  C110-   C19-   C18
  1309   1312   1315   1318      9     0.00   0.41840   4 ;   C111-  C110-   C19-   C18
  1309   1312   1315   1318      9     0.00   0.41840   5 ;   C111-  C110-   C19-   C18
  1309   1312   1315   1318      9     0.00   1.25520   3 ;   C111-  C110-   C19-   C18
  1310   1309   1312   1313      9     0.00   0.62760   3 ;   H11R-  C111-  C110-  H10R
  1310   1309   1312   1314      9     0.00   0.62760   3 ;   H11R-  C111-  C110-  H10S
  1310   1309   1312   1315      9     0.00   0.66944   3 ;   H11R-  C111-  C110-   C19
  1311   1309   1312   1313      9     0.00   0.62760   3 ;   H11S-  C111-  C110-  H10R
  1311   1309   1312   1314      9     0.00   0.62760   3 ;   H11S-  C111-  C110-  H10S
  1311   1309   1312   1315      9     0.00   0.66944   3 ;   H11S-  C111-  C110-   C19
  1312   1315   1318   1319      9     0.00   0.66944   3 ;   C110-   C19-   C18-   H8R
  1312   1315   1318   1320      9     0.00   0.66944   3 ;   C110-   C19-   C18-   H8S
  1312   1315   1318   1321      9     0.00   0.41840   1 ;   C110-   C19-   C18-   C17
  1312   1315   1318   1321      9     0.00   0.41840   2 ;   C110-   C19-   C18-   C17
  1312   1315   1318   1321      9     0.00   0.41840   4 ;   C110-   C19-   C18-   C17
  1312   1315   1318   1321      9     0.00   0.41840   5 ;   C110-   C19-   C18-   C17
  1312   1315   1318   1321      9     0.00   1.25520   3 ;   C110-   C19-   C18-   C17
  1313   1312   1315   1316      9     0.00   0.62760   3 ;   H10R-  C110-   C19-   H9R
  1313   1312   1315   1317      9     0.00   0.62760   3 ;   H10R-  C110-   C19-   H9S
  1313   1312   1315   1318      9     0.00   0.66944   3 ;   H10R-  C110-   C19-   C18
  1314   1312   1315   1316      9     0.00   0.62760   3 ;   H10S-  C110-   C19-   H9R
  1314   1312   1315   1317      9     0.00   0.62760   3 ;   H10S-  C110-   C19-   H9S
  1314   1312   1315   1318      9     0.00   0.66944   3 ;   H10S-  C110-   C19-   C18
  1315   1318   1321   1322      9     0.00   0.66944   3 ;    C19-   C18-   C17-   H7R
  1315   1318   1321   1323      9     0.00   0.66944   3 ;    C19-   C18-   C17-   H7S
  1315   1318   1321   1324      9     0.00   0.41840   1 ;    C19-   C18-   C17-   C16
  1315   1318   1321   1324      9     0.00   0.41840   2 ;    C19-   C18-   C17-   C16
  1315   1318   1321   1324      9     0.00   0.41840   4 ;    C19-   C18-   C17-   C16
  1315   1318   1321   1324      9     0.00   0.41840   5 ;    C19-   C18-   C17-   C16
  1315   1318   1321   1324      9     0.00   1.25520   3 ;    C19-   C18-   C17-   C16
  1316   1315   1318   1319      9     0.00   0.62760   3 ;    H9R-   C19-   C18-   H8R
  1316   1315   1318   1320      9     0.00   0.62760   3 ;    H9R-   C19-   C18-   H8S
  1316   1315   1318   1321      9     0.00   0.66944   3 ;    H9R-   C19-   C18-   C17
  1317   1315   1318   1319      9     0.00   0.62760   3 ;    H9S-   C19-   C18-   H8R
  1317   1315   1318   1320      9     0.00   0.62760   3 ;    H9S-   C19-   C18-   H8S
  1317   1315   1318   1321      9     0.00   0.66944   3 ;    H9S-   C19-   C18-   C17
  1318   1321   1324   1325      9     0.00   0.66944   3 ;    C18-   C17-   C16-   H6R
  1318   1321   1324   1326      9     0.00   0.66944   3 ;    C18-   C17-   C16-   H6S
  1318   1321   1324   1327      9     0.00   0.41840   1 ;    C18-   C17-   C16-   C15
  1318   1321   1324   1327      9     0.00   0.41840   2 ;    C18-   C17-   C16-   C15
  1318   1321   1324   1327      9     0.00   0.41840   4 ;    C18-   C17-   C16-   C15
  1318   1321   1324   1327      9     0.00   0.41840   5 ;    C18-   C17-   C16-   C15
  1318   1321   1324   1327      9     0.00   1.25520   3 ;    C18-   C17-   C16-   C15
  1319   1318   1321   1322      9     0.00   0.62760   3 ;    H8R-   C18-   C17-   H7R
  1319   1318   1321   1323      9     0.00   0.62760   3 ;    H8R-   C18-   C17-   H7S
  1319   1318   1321   1324      9     0.00   0.66944   3 ;    H8R-   C18-   C17-   C16
  1320   1318   1321   1322      9     0.00   0.62760   3 ;    H8S-   C18-   C17-   H7R
  1320   1318   1321   1323      9     0.00   0.62760   3 ;    H8S-   C18-   C17-   H7S
  1320   1318   1321   1324      9     0.00   0.66944   3 ;    H8S-   C18-   C17-   C16
  1321   1324   1327   1328      9     0.00   0.66944   3 ;    C17-   C16-   C15-   H5R
  1321   1324   1327   1329      9     0.00   0.66944   3 ;    C17-   C16-   C15-   H5S
  1321   1324   1327   1330      9     0.00   0.41840   1 ;    C17-   C16-   C15-   C14
  1321   1324   1327   1330      9     0.00   0.41840   2 ;    C17-   C16-   C15-   C14
  1321   1324   1327   1330      9     0.00   0.41840   4 ;    C17-   C16-   C15-   C14
  1321   1324   1327   1330      9     0.00   0.41840   5 ;    C17-   C16-   C15-   C14
  1321   1324   1327   1330      9     0.00   1.25520   3 ;    C17-   C16-   C15-   C14
  1322   1321   1324   1325      9     0.00   0.62760   3 ;    H7R-   C17-   C16-   H6R
  1322   1321   1324   1326      9     0.00   0.62760   3 ;    H7R-   C17-   C16-   H6S
  1322   1321   1324   1327      9     0.00   0.66944   3 ;    H7R-   C17-   C16-   C15
  1323   1321   1324   1325      9     0.00   0.62760   3 ;    H7S-   C17-   C16-   H6R
  1323   1321   1324   1326      9     0.00   0.62760   3 ;    H7S-   C17-   C16-   H6S
  1323   1321   1324   1327      9     0.00   0.66944   3 ;    H7S-   C17-   C16-   C15
  1324   1327   1330   1331      9     0.00   0.66944   3 ;    C16-   C15-   C14-   H4R
  1324   1327   1330   1332      9     0.00   0.66944   3 ;    C16-   C15-   C14-   H4S
  1324   1327   1330   1333      9     0.00   0.41840   1 ;    C16-   C15-   C14-   C13
  1324   1327   1330   1333      9     0.00   0.41840   2 ;    C16-   C15-   C14-   C13
  1324   1327   1330   1333      9     0.00   0.41840   4 ;    C16-   C15-   C14-   C13
  1324   1327   1330   1333      9     0.00   0.41840   5 ;    C16-   C15-   C14-   C13
  1324   1327   1330   1333      9     0.00   1.25520   3 ;    C16-   C15-   C14-   C13
  1325   1324   1327   1328      9     0.00   0.62760   3 ;    H6R-   C16-   C15-   H5R
  1325   1324   1327   1329      9     0.00   0.62760   3 ;    H6R-   C16-   C15-   H5S
  1325   1324   1327   1330      9     0.00   0.66944   3 ;    H6R-   C16-   C15-   C14
  1326   1324   1327   1328      9     0.00   0.62760   3 ;    H6S-   C16-   C15-   H5R
  1326   1324   1327   1329      9     0.00   0.62760   3 ;    H6S-   C16-   C15-   H5S
  1326   1324   1327   1330      9     0.00   0.66944   3 ;    H6S-   C16-   C15-   C14
  1327   1330   1333   1334      9     0.00   0.66944   3 ;    C15-   C14-   C13-   H3R
  1327   1330   1333   1335      9     0.00   0.66944   3 ;    C15-   C14-   C13-   H3S
  1327   1330   1333   1336      9     0.00   0.41840   1 ;    C15-   C14-   C13-   C12
  1327   1330   1333   1336      9     0.00   0.41840   2 ;    C15-   C14-   C13-   C12
  1327   1330   1333   1336      9     0.00   0.41840   4 ;    C15-   C14-   C13-   C12
  1327   1330   1333   1336      9     0.00   0.41840   5 ;    C15-   C14-   C13-   C12
  1327   1330   1333   1336      9     0.00   1.25520   3 ;    C15-   C14-   C13-   C12
  1328   1327   1330   1331      9     0.00   0.62760   3 ;    H5R-   C15-   C14-   H4R
  1328   1327   1330   1332      9     0.00   0.62760   3 ;    H5R-   C15-   C14-   H4S
  1328   1327   1330   1333      9     0.00   0.66944   3 ;    H5R-   C15-   C14-   C13
  1329   1327   1330   1331      9     0.00   0.62760   3 ;    H5S-   C15-   C14-   H4R
  1329   1327   1330   1332      9     0.00   0.62760   3 ;    H5S-   C15-   C14-   H4S
  1329   1327   1330   1333      9     0.00   0.66944   3 ;    H5S-   C15-   C14-   C13
  1330   1333   1336   1337      9     0.00   0.66944   3 ;    C14-   C13-   C12-   H2R
  1330   1333   1336   1338      9     0.00   0.66944   3 ;    C14-   C13-   C12-   H2S
  1330   1333   1336   1339      9     0.00   0.65270   3 ;    C14-   C13-   C12-   C11
  1331   1330   1333   1334      9     0.00   0.62760   3 ;    H4R-   C14-   C13-   H3R
  1331   1330   1333   1335      9     0.00   0.62760   3 ;    H4R-   C14-   C13-   H3S
  1331   1330   1333   1336      9     0.00   0.66944   3 ;    H4R-   C14-   C13-   C12
  1332   1330   1333   1334      9     0.00   0.62760   3 ;    H4S-   C14-   C13-   H3R
  1332   1330   1333   1335      9     0.00   0.62760   3 ;    H4S-   C14-   C13-   H3S
  1332   1330   1333   1336      9     0.00   0.66944   3 ;    H4S-   C14-   C13-   C12
  1333   1336   1339   1340      9   180.00   0.00000   2 ;    C13-   C12-   C11-   O12
  1333   1336   1339   1341      9   180.00   0.00000   2 ;    C13-   C12-   C11-   O11
  1334   1333   1336   1337      9     0.00   0.62760   3 ;    H3R-   C13-   C12-   H2R
  1334   1333   1336   1338      9     0.00   0.62760   3 ;    H3R-   C13-   C12-   H2S
  1334   1333   1336   1339      9     0.00   0.65270   3 ;    H3R-   C13-   C12-   C11
  1335   1333   1336   1337      9     0.00   0.62760   3 ;    H3S-   C13-   C12-   H2R
  1335   1333   1336   1338      9     0.00   0.62760   3 ;    H3S-   C13-   C12-   H2S
  1335   1333   1336   1339      9     0.00   0.65270   3 ;    H3S-   C13-   C12-   C11
  1336   1339   1341   1342      9   180.00  11.29680   2 ;    C12-   C11-   O11-    C1
  1337   1336   1339   1340      9     0.00   3.34720   1 ;    H2R-   C12-   C11-   O12
  1337   1336   1339   1340      9   180.00   0.33472   3 ;    H2R-   C12-   C11-   O12
  1337   1336   1339   1341      9   180.00   0.00000   2 ;    H2R-   C12-   C11-   O11
  1338   1336   1339   1340      9     0.00   3.34720   1 ;    H2S-   C12-   C11-   O12
  1338   1336   1339   1340      9   180.00   0.33472   3 ;    H2S-   C12-   C11-   O12
  1338   1336   1339   1341      9   180.00   0.00000   2 ;    H2S-   C12-   C11-   O11
  1339   1341   1342   1343      9     0.00   1.60247   3 ;    C11-   O11-    C1-    HR
  1339   1341   1342   1344      9     0.00   1.60247   3 ;    C11-   O11-    C1-    HS
  1339   1341   1342   1345      9     0.00  -0.41840   1 ;    C11-   O11-    C1-    C2
  1340   1339   1341   1342      9   180.00   5.85760   1 ;    O12-   C11-   O11-    C1
  1340   1339   1341   1342      9   180.00  11.29680   2 ;    O12-   C11-   O11-    C1
  1341   1342   1345   1346      9     0.00   0.00000   0 ;    O11-    C1-    C2-    HX
  1341   1342   1345   1346      9     0.00   1.04600   1 ;    O11-    C1-    C2-    HX
  1341   1342   1345   1347      9     0.00   0.00000   0 ;    O11-    C1-    C2-    C3
  1341   1342   1345   1347      9     0.00   0.00000   0 ;    O11-    C1-    C2-    C3
  1341   1342   1345   1347      9     0.00   0.00000   0 ;    O11-    C1-    C2-    C3
  1341   1342   1345   1347      9     0.00   0.00000   0 ;    O11-    C1-    C2-    C3
  1341   1342   1345   1347      9     0.00   0.00000   0 ;    O11-    C1-    C2-    C3
  1341   1342   1345   1374      9     0.00   1.25520   2 ;    O11-    C1-    C2-   O21
  1341   1342   1345   1374      9     0.00   4.18400   3 ;    O11-    C1-    C2-   O21
  1341   1342   1345   1374      9   180.00  -0.41840   1 ;    O11-    C1-    C2-   O21
  1342   1345   1347   1348      9     0.00   0.65270   3 ;     C1-    C2-    C3-    HA
  1342   1345   1347   1349      9     0.00   0.65270   3 ;     C1-    C2-    C3-    HB
  1342   1345   1347   1350      9   180.00   3.34720   1 ;     C1-    C2-    C3-   O31
  1342   1345   1374   1375      9     0.00  -0.41840   1 ;     C1-    C2-   O21-   C21
  1343   1342   1345   1346      9     0.00   0.65270   3 ;     HR-    C1-    C2-    HX
  1343   1342   1345   1347      9     0.00   0.65270   3 ;     HR-    C1-    C2-    C3
  1343   1342   1345   1374      9     0.00   0.00000   0 ;     HR-    C1-    C2-   O21
  1343   1342   1345   1374      9     0.00   1.04600   1 ;     HR-    C1-    C2-   O21
  1344   1342   1345   1346      9     0.00   0.65270   3 ;     HS-    C1-    C2-    HX
  1344   1342   1345   1347      9     0.00   0.65270   3 ;     HS-    C1-    C2-    C3
  1344   1342   1345   1374      9     0.00   0.00000   0 ;     HS-    C1-    C2-   O21
  1344   1342   1345   1374      9     0.00   1.04600   1 ;     HS-    C1-    C2-   O21
  1345   1347   1350   1351      9     0.00   0.00000   0 ;     C2-    C3-   O31-   P31
  1345   1347   1350   1351      9   180.00  -3.34720   2 ;     C2-    C3-   O31-   P31
  1345   1374   1375   1376      9   180.00   5.85760   1 ;     C2-   O21-   C21-   O22
  1345   1374   1375   1376      9   180.00  11.29680   2 ;     C2-   O21-   C21-   O22
  1345   1374   1375   1414      9   180.00  11.29680   2 ;     C2-   O21-   C21-   C12
  1346   1345   1347   1348      9     0.00   0.65270   3 ;     HX-    C2-    C3-    HA
  1346   1345   1347   1349      9     0.00   0.65270   3 ;     HX-    C2-    C3-    HB
  1346   1345   1347   1350      9     0.00   0.00000   0 ;     HX-    C2-    C3-   O31
  1346   1345   1347   1350      9     0.00   1.04600   1 ;     HX-    C2-    C3-   O31
  1346   1345   1374   1375      9     0.00   1.60247   3 ;     HX-    C2-   O21-   C21
  1347   1345   1374   1375      9     0.00  -0.41840   1 ;     C3-    C2-   O21-   C21
  1347   1350   1351   1352      9     0.00   2.51040   3 ;     C3-   O31-   P31-   O32
  1347   1350   1351   1352      9     0.00   9.62320   2 ;     C3-   O31-   P31-   O32
  1347   1350   1351   1372      9     0.00   0.00000   0 ;     C3-   O31-   P31-   O33
  1347   1350   1351   1372      9     0.00   0.00000   0 ;     C3-   O31-   P31-   O33
  1347   1350   1351   1372      9     0.00   0.00000   0 ;     C3-   O31-   P31-   O33
  1347   1350   1351   1372      9     0.00   0.00000   0 ;     C3-   O31-   P31-   O33
  1347   1350   1351   1372      9     0.00   0.83680   2 ;     C3-   O31-   P31-   O33
  1347   1350   1351   1373      9     0.00   0.00000   0 ;     C3-   O31-   P31-   O34
  1347   1350   1351   1373      9     0.00   0.00000   0 ;     C3-   O31-   P31-   O34
  1347   1350   1351   1373      9     0.00   0.00000   0 ;     C3-   O31-   P31-   O34
  1347   1350   1351   1373      9     0.00   0.00000   0 ;     C3-   O31-   P31-   O34
  1347   1350   1351   1373      9     0.00   0.83680   2 ;     C3-   O31-   P31-   O34
  1348   1347   1345   1374      9     0.00   0.00000   0 ;     HA-    C3-    C2-   O21
  1348   1347   1345   1374      9     0.00   1.04600   1 ;     HA-    C3-    C2-   O21
  1348   1347   1350   1351      9     0.00   0.00000   0 ;     HA-    C3-   O31-   P31
  1348   1347   1350   1351      9     0.00   0.00000   0 ;     HA-    C3-   O31-   P31
  1348   1347   1350   1351      9     0.00   0.00000   0 ;     HA-    C3-   O31-   P31
  1348   1347   1350   1351      9     0.00   0.00000   0 ;     HA-    C3-   O31-   P31
  1348   1347   1350   1351      9     0.00   1.60247   3 ;     HA-    C3-   O31-   P31
  1349   1347   1345   1374      9     0.00   0.00000   0 ;     HB-    C3-    C2-   O21
  1349   1347   1345   1374      9     0.00   1.04600   1 ;     HB-    C3-    C2-   O21
  1349   1347   1350   1351      9     0.00   0.00000   0 ;     HB-    C3-   O31-   P31
  1349   1347   1350   1351      9     0.00   0.00000   0 ;     HB-    C3-   O31-   P31
  1349   1347   1350   1351      9     0.00   0.00000   0 ;     HB-    C3-   O31-   P31
  1349   1347   1350   1351      9     0.00   0.00000   0 ;     HB-    C3-   O31-   P31
  1349   1347   1350   1351      9     0.00   1.60247   3 ;     HB-    C3-   O31-   P31
  1350   1347   1345   1374      9     0.00   0.00000   0 ;    O31-    C3-    C2-   O21
  1350   1347   1345   1374      9     0.00   0.00000   0 ;    O31-    C3-    C2-   O21
  1350   1347   1345   1374      9     0.00   0.00000   0 ;    O31-    C3-    C2-   O21
  1350   1347   1345   1374      9     0.00   0.00000   0 ;    O31-    C3-    C2-   O21
  1350   1347   1345   1374      9     0.00   0.00000   0 ;    O31-    C3-    C2-   O21
  1350   1351   1352   1353      9     0.00   2.51040   3 ;    O31-   P31-   O32-   C31
  1350   1351   1352   1353      9     0.00   9.62320   2 ;    O31-   P31-   O32-   C31
  1351   1352   1353   1354      9     0.00   0.00000   0 ;    P31-   O32-   C31-   H1A
  1351   1352   1353   1354      9     0.00   0.00000   0 ;    P31-   O32-   C31-   H1A
  1351   1352   1353   1354      9     0.00   0.00000   0 ;    P31-   O32-   C31-   H1A
  1351   1352   1353   1354      9     0.00   0.00000   0 ;    P31-   O32-   C31-   H1A
  1351   1352   1353   1354      9     0.00   1.60247   3 ;    P31-   O32-   C31-   H1A
  1351   1352   1353   1355      9     0.00   0.00000   0 ;    P31-   O32-   C31-   H1B
  1351   1352   1353   1355      9     0.00   0.00000   0 ;    P31-   O32-   C31-   H1B
  1351   1352   1353   1355      9     0.00   0.00000   0 ;    P31-   O32-   C31-   H1B
  1351   1352   1353   1355      9     0.00   0.00000   0 ;    P31-   O32-   C31-   H1B
  1351   1352   1353   1355      9     0.00   1.60247   3 ;    P31-   O32-   C31-   H1B
  1351   1352   1353   1356      9     0.00   0.00000   0 ;    P31-   O32-   C31-   C32
  1351   1352   1353   1356      9   180.00  -3.34720   2 ;    P31-   O32-   C31-   C32
  1352   1353   1356   1357      9     0.00   0.65270   3 ;    O32-   C31-   C32-   H2A
  1352   1353   1356   1358      9     0.00   0.65270   3 ;    O32-   C31-   C32-   H2B
  1352   1353   1356   1359      9     0.00   4.18400   3 ;    O32-   C31-   C32-   N31
  1353   1352   1351   1372      9     0.00   0.00000   0 ;    C31-   O32-   P31-   O33
  1353   1352   1351   1372      9     0.00   0.00000   0 ;    C31-   O32-   P31-   O33
  1353   1352   1351   1372      9     0.00   0.00000   0 ;    C31-   O32-   P31-   O33
  1353   1352   1351   1372      9     0.00   0.00000   0 ;    C31-   O32-   P31-   O33
  1353   1352   1351   1372      9     0.00   0.83680   2 ;    C31-   O32-   P31-   O33
  1353   1352   1351   1373      9     0.00   0.00000   0 ;    C31-   O32-   P31-   O34
  1353   1352   1351   1373      9     0.00   0.00000   0 ;    C31-   O32-   P31-   O34
  1353   1352   1351   1373      9     0.00   0.00000   0 ;    C31-   O32-   P31-   O34
  1353   1352   1351   1373      9     0.00   0.00000   0 ;    C31-   O32-   P31-   O34
  1353   1352   1351   1373      9     0.00   0.83680   2 ;    C31-   O32-   P31-   O34
  1353   1356   1359   1360      9     0.00   0.65270   3 ;    C31-   C32-   N31-   C33
  1353   1356   1359   1364      9     0.00   0.65270   3 ;    C31-   C32-   N31-   C34
  1353   1356   1359   1368      9     0.00   0.65270   3 ;    C31-   C32-   N31-   C35
  1354   1353   1356   1357      9     0.00   0.65270   3 ;    H1A-   C31-   C32-   H2A
  1354   1353   1356   1358      9     0.00   0.65270   3 ;    H1A-   C31-   C32-   H2B
  1354   1353   1356   1359      9     0.00   0.65270   3 ;    H1A-   C31-   C32-   N31
  1355   1353   1356   1357      9     0.00   0.65270   3 ;    H1B-   C31-   C32-   H2A
  1355   1353   1356   1358      9     0.00   0.65270   3 ;    H1B-   C31-   C32-   H2B
  1355   1353   1356   1359      9     0.00   0.65270   3 ;    H1B-   C31-   C32-   N31
  1356   1359   1360   1361      9     0.00   0.65270   3 ;    C32-   N31-   C33-   H3A
  1356   1359   1360   1362      9     0.00   0.65270   3 ;    C32-   N31-   C33-   H3B
  1356   1359   1360   1363      9     0.00   0.65270   3 ;    C32-   N31-   C33-   H3C
  1356   1359   1364   1365      9     0.00   0.65270   3 ;    C32-   N31-   C34-   H4A
  1356   1359   1364   1366      9     0.00   0.65270   3 ;    C32-   N31-   C34-   H4B
  1356   1359   1364   1367      9     0.00   0.65270   3 ;    C32-   N31-   C34-   H4C
  1356   1359   1368   1369      9     0.00   0.65270   3 ;    C32-   N31-   C35-   H5A
  1356   1359   1368   1370      9     0.00   0.65270   3 ;    C32-   N31-   C35-   H5B
  1356   1359   1368   1371      9     0.00   0.65270   3 ;    C32-   N31-   C35-   H5C
  1357   1356   1359   1360      9     0.00   0.65270   3 ;    H2A-   C32-   N31-   C33
  1357   1356   1359   1364      9     0.00   0.65270   3 ;    H2A-   C32-   N31-   C34
  1357   1356   1359   1368      9     0.00   0.65270   3 ;    H2A-   C32-   N31-   C35
  1358   1356   1359   1360      9     0.00   0.65270   3 ;    H2B-   C32-   N31-   C33
  1358   1356   1359   1364      9     0.00   0.65270   3 ;    H2B-   C32-   N31-   C34
  1358   1356   1359   1368      9     0.00   0.65270   3 ;    H2B-   C32-   N31-   C35
  1360   1359   1364   1365      9     0.00   0.65270   3 ;    C33-   N31-   C34-   H4A
  1360   1359   1364   1366      9     0.00   0.65270   3 ;    C33-   N31-   C34-   H4B
  1360   1359   1364   1367      9     0.00   0.65270   3 ;    C33-   N31-   C34-   H4C
  1360   1359   1368   1369      9     0.00   0.65270   3 ;    C33-   N31-   C35-   H5A
  1360   1359   1368   1370      9     0.00   0.65270   3 ;    C33-   N31-   C35-   H5B
  1360   1359   1368   1371      9     0.00   0.65270   3 ;    C33-   N31-   C35-   H5C
  1361   1360   1359   1364      9     0.00   0.65270   3 ;    H3A-   C33-   N31-   C34
  1361   1360   1359   1368      9     0.00   0.65270   3 ;    H3A-   C33-   N31-   C35
  1362   1360   1359   1364      9     0.00   0.65270   3 ;    H3B-   C33-   N31-   C34
  1362   1360   1359   1368      9     0.00   0.65270   3 ;    H3B-   C33-   N31-   C35
  1363   1360   1359   1364      9     0.00   0.65270   3 ;    H3C-   C33-   N31-   C34
  1363   1360   1359   1368      9     0.00   0.65270   3 ;    H3C-   C33-   N31-   C35
  1364   1359   1368   1369      9     0.00   0.65270   3 ;    C34-   N31-   C35-   H5A
  1364   1359   1368   1370      9     0.00   0.65270   3 ;    C34-   N31-   C35-   H5B
  1364   1359   1368   1371      9     0.00   0.65270   3 ;    C34-   N31-   C35-   H5C
  1365   1364   1359   1368      9     0.00   0.65270   3 ;    H4A-   C34-   N31-   C35
  1366   1364   1359   1368      9     0.00   0.65270   3 ;    H4B-   C34-   N31-   C35
  1367   1364   1359   1368      9     0.00   0.65270   3 ;    H4C-   C34-   N31-   C35
  1374   1375   1414   1411      9   180.00   0.00000   2 ;    O21-   C21-   C12-   C13
  1374   1375   1414   1415      9   180.00   0.00000   2 ;    O21-   C21-   C12-   H2R
  1374   1375   1414   1416      9   180.00   0.00000   2 ;    O21-   C21-   C12-   H2S
  1375   1414   1411   1408      9     0.00   0.65270   3 ;    C21-   C12-   C13-   C14
  1375   1414   1411   1412      9     0.00   0.65270   3 ;    C21-   C12-   C13-   H3R
  1375   1414   1411   1413      9     0.00   0.65270   3 ;    C21-   C12-   C13-   H3S
  1376   1375   1414   1411      9   180.00   0.00000   2 ;    O22-   C21-   C12-   C13
  1376   1375   1414   1415      9     0.00   3.34720   1 ;    O22-   C21-   C12-   H2R
  1376   1375   1414   1415      9   180.00   0.33472   3 ;    O22-   C21-   C12-   H2R
  1376   1375   1414   1416      9     0.00   3.34720   1 ;    O22-   C21-   C12-   H2S
  1376   1375   1414   1416      9   180.00   0.33472   3 ;    O22-   C21-   C12-   H2S
  1377   1378   1381   1382      9     0.00   0.62760   3 ;   H14T-  C114-  C113-  H13R
  1377   1378   1381   1383      9     0.00   0.62760   3 ;   H14T-  C114-  C113-  H13S
  1377   1378   1381   1384      9     0.00   0.66944   3 ;   H14T-  C114-  C113-  C112
  1378   1381   1384   1385      9     0.00   0.66944   3 ;   C114-  C113-  C112-  H12R
  1378   1381   1384   1386      9     0.00   0.66944   3 ;   C114-  C113-  C112-  H12S
  1378   1381   1384   1387      9     0.00   0.41840   1 ;   C114-  C113-  C112-  C111
  1378   1381   1384   1387      9     0.00   0.41840   2 ;   C114-  C113-  C112-  C111
  1378   1381   1384   1387      9     0.00   0.41840   4 ;   C114-  C113-  C112-  C111
  1378   1381   1384   1387      9     0.00   0.41840   5 ;   C114-  C113-  C112-  C111
  1378   1381   1384   1387      9     0.00   1.25520   3 ;   C114-  C113-  C112-  C111
  1379   1378   1381   1382      9     0.00   0.62760   3 ;   H14R-  C114-  C113-  H13R
  1379   1378   1381   1383      9     0.00   0.62760   3 ;   H14R-  C114-  C113-  H13S
  1379   1378   1381   1384      9     0.00   0.66944   3 ;   H14R-  C114-  C113-  C112
  1380   1378   1381   1382      9     0.00   0.62760   3 ;   H14S-  C114-  C113-  H13R
  1380   1378   1381   1383      9     0.00   0.62760   3 ;   H14S-  C114-  C113-  H13S
  1380   1378   1381   1384      9     0.00   0.66944   3 ;   H14S-  C114-  C113-  C112
  1381   1384   1387   1388      9     0.00   0.66944   3 ;   C113-  C112-  C111-  H11R
  1381   1384   1387   1389      9     0.00   0.66944   3 ;   C113-  C112-  C111-  H11S
  1381   1384   1387   1390      9     0.00   0.41840   1 ;   C113-  C112-  C111-  C110
  1381   1384   1387   1390      9     0.00   0.41840   2 ;   C113-  C112-  C111-  C110
  1381   1384   1387   1390      9     0.00   0.41840   4 ;   C113-  C112-  C111-  C110
  1381   1384   1387   1390      9     0.00   0.41840   5 ;   C113-  C112-  C111-  C110
  1381   1384   1387   1390      9     0.00   1.25520   3 ;   C113-  C112-  C111-  C110
  1382   1381   1384   1385      9     0.00   0.62760   3 ;   H13R-  C113-  C112-  H12R
  1382   1381   1384   1386      9     0.00   0.62760   3 ;   H13R-  C113-  C112-  H12S
  1382   1381   1384   1387      9     0.00   0.66944   3 ;   H13R-  C113-  C112-  C111
  1383   1381   1384   1385      9     0.00   0.62760   3 ;   H13S-  C113-  C112-  H12R
  1383   1381   1384   1386      9     0.00   0.62760   3 ;   H13S-  C113-  C112-  H12S
  1383   1381   1384   1387      9     0.00   0.66944   3 ;   H13S-  C113-  C112-  C111
  1384   1387   1390   1391      9     0.00   0.66944   3 ;   C112-  C111-  C110-  H10R
  1384   1387   1390   1392      9     0.00   0.66944   3 ;   C112-  C111-  C110-  H10S
  1384   1387   1390   1393      9     0.00   0.41840   1 ;   C112-  C111-  C110-   C19
  1384   1387   1390   1393      9     0.00   0.41840   2 ;   C112-  C111-  C110-   C19
  1384   1387   1390   1393      9     0.00   0.41840   4 ;   C112-  C111-  C110-   C19
  1384   1387   1390   1393      9     0.00   0.41840   5 ;   C112-  C111-  C110-   C19
  1384   1387   1390   1393      9     0.00   1.25520   3 ;   C112-  C111-  C110-   C19
  1385   1384   1387   1388      9     0.00   0.62760   3 ;   H12R-  C112-  C111-  H11R
  1385   1384   1387   1389      9     0.00   0.62760   3 ;   H12R-  C112-  C111-  H11S
  1385   1384   1387   1390      9     0.00   0.66944   3 ;   H12R-  C112-  C111-  C110
  1386   1384   1387   1388      9     0.00   0.62760   3 ;   H12S-  C112-  C111-  H11R
  1386   1384   1387   1389      9     0.00   0.62760   3 ;   H12S-  C112-  C111-  H11S
  1386   1384   1387   1390      9     0.00   0.66944   3 ;   H12S-  C112-  C111-  C110
  1387   1390   1393   1394      9     0.00   0.66944   3 ;   C111-  C110-   C19-   H9R
  1387   1390   1393   1395      9     0.00   0.66944   3 ;   C111-  C110-   C19-   H9S
  1387   1390   1393   1396      9     0.00   0.41840   1 ;   C111-  C110-   C19-   C18
  1387   1390   1393   1396      9     0.00   0.41840   2 ;   C111-  C110-   C19-   C18
  1387   1390   1393   1396      9     0.00   0.41840   4 ;   C111-  C110-   C19-   C18
  1387   1390   1393   1396      9     0.00   0.41840   5 ;   C111-  C110-   C19-   C18
  1387   1390   1393   1396      9     0.00   1.25520   3 ;   C111-  C110-   C19-   C18
  1388   1387   1390   1391      9     0.00   0.62760   3 ;   H11R-  C111-  C110-  H10R
  1388   1387   1390   1392      9     0.00   0.62760   3 ;   H11R-  C111-  C110-  H10S
  1388   1387   1390   1393      9     0.00   0.66944   3 ;   H11R-  C111-  C110-   C19
  1389   1387   1390   1391      9     0.00   0.62760   3 ;   H11S-  C111-  C110-  H10R
  1389   1387   1390   1392      9     0.00   0.62760   3 ;   H11S-  C111-  C110-  H10S
  1389   1387   1390   1393      9     0.00   0.66944   3 ;   H11S-  C111-  C110-   C19
  1390   1393   1396   1397      9     0.00   0.66944   3 ;   C110-   C19-   C18-   H8R
  1390   1393   1396   1398      9     0.00   0.66944   3 ;   C110-   C19-   C18-   H8S
  1390   1393   1396   1399      9     0.00   0.41840   1 ;   C110-   C19-   C18-   C17
  1390   1393   1396   1399      9     0.00   0.41840   2 ;   C110-   C19-   C18-   C17
  1390   1393   1396   1399      9     0.00   0.41840   4 ;   C110-   C19-   C18-   C17
  1390   1393   1396   1399      9     0.00   0.41840   5 ;   C110-   C19-   C18-   C17
  1390   1393   1396   1399      9     0.00   1.25520   3 ;   C110-   C19-   C18-   C17
  1391   1390   1393   1394      9     0.00   0.62760   3 ;   H10R-  C110-   C19-   H9R
  1391   1390   1393   1395      9     0.00   0.62760   3 ;   H10R-  C110-   C19-   H9S
  1391   1390   1393   1396      9     0.00   0.66944   3 ;   H10R-  C110-   C19-   C18
  1392   1390   1393   1394      9     0.00   0.62760   3 ;   H10S-  C110-   C19-   H9R
  1392   1390   1393   1395      9     0.00   0.62760   3 ;   H10S-  C110-   C19-   H9S
  1392   1390   1393   1396      9     0.00   0.66944   3 ;   H10S-  C110-   C19-   C18
  1393   1396   1399   1400      9     0.00   0.66944   3 ;    C19-   C18-   C17-   H7R
  1393   1396   1399   1401      9     0.00   0.66944   3 ;    C19-   C18-   C17-   H7S
  1393   1396   1399   1402      9     0.00   0.41840   1 ;    C19-   C18-   C17-   C16
  1393   1396   1399   1402      9     0.00   0.41840   2 ;    C19-   C18-   C17-   C16
  1393   1396   1399   1402      9     0.00   0.41840   4 ;    C19-   C18-   C17-   C16
  1393   1396   1399   1402      9     0.00   0.41840   5 ;    C19-   C18-   C17-   C16
  1393   1396   1399   1402      9     0.00   1.25520   3 ;    C19-   C18-   C17-   C16
  1394   1393   1396   1397      9     0.00   0.62760   3 ;    H9R-   C19-   C18-   H8R
  1394   1393   1396   1398      9     0.00   0.62760   3 ;    H9R-   C19-   C18-   H8S
  1394   1393   1396   1399      9     0.00   0.66944   3 ;    H9R-   C19-   C18-   C17
  1395   1393   1396   1397      9     0.00   0.62760   3 ;    H9S-   C19-   C18-   H8R
  1395   1393   1396   1398      9     0.00   0.62760   3 ;    H9S-   C19-   C18-   H8S
  1395   1393   1396   1399      9     0.00   0.66944   3 ;    H9S-   C19-   C18-   C17
  1396   1399   1402   1403      9     0.00   0.66944   3 ;    C18-   C17-   C16-   H6R
  1396   1399   1402   1404      9     0.00   0.66944   3 ;    C18-   C17-   C16-   H6S
  1396   1399   1402   1405      9     0.00   0.41840   1 ;    C18-   C17-   C16-   C15
  1396   1399   1402   1405      9     0.00   0.41840   2 ;    C18-   C17-   C16-   C15
  1396   1399   1402   1405      9     0.00   0.41840   4 ;    C18-   C17-   C16-   C15
  1396   1399   1402   1405      9     0.00   0.41840   5 ;    C18-   C17-   C16-   C15
  1396   1399   1402   1405      9     0.00   1.25520   3 ;    C18-   C17-   C16-   C15
  1397   1396   1399   1400      9     0.00   0.62760   3 ;    H8R-   C18-   C17-   H7R
  1397   1396   1399   1401      9     0.00   0.62760   3 ;    H8R-   C18-   C17-   H7S
  1397   1396   1399   1402      9     0.00   0.66944   3 ;    H8R-   C18-   C17-   C16
  1398   1396   1399   1400      9     0.00   0.62760   3 ;    H8S-   C18-   C17-   H7R
  1398   1396   1399   1401      9     0.00   0.62760   3 ;    H8S-   C18-   C17-   H7S
  1398   1396   1399   1402      9     0.00   0.66944   3 ;    H8S-   C18-   C17-   C16
  1399   1402   1405   1406      9     0.00   0.66944   3 ;    C17-   C16-   C15-   H5R
  1399   1402   1405   1407      9     0.00   0.66944   3 ;    C17-   C16-   C15-   H5S
  1399   1402   1405   1408      9     0.00   0.41840   1 ;    C17-   C16-   C15-   C14
  1399   1402   1405   1408      9     0.00   0.41840   2 ;    C17-   C16-   C15-   C14
  1399   1402   1405   1408      9     0.00   0.41840   4 ;    C17-   C16-   C15-   C14
  1399   1402   1405   1408      9     0.00   0.41840   5 ;    C17-   C16-   C15-   C14
  1399   1402   1405   1408      9     0.00   1.25520   3 ;    C17-   C16-   C15-   C14
  1400   1399   1402   1403      9     0.00   0.62760   3 ;    H7R-   C17-   C16-   H6R
  1400   1399   1402   1404      9     0.00   0.62760   3 ;    H7R-   C17-   C16-   H6S
  1400   1399   1402   1405      9     0.00   0.66944   3 ;    H7R-   C17-   C16-   C15
  1401   1399   1402   1403      9     0.00   0.62760   3 ;    H7S-   C17-   C16-   H6R
  1401   1399   1402   1404      9     0.00   0.62760   3 ;    H7S-   C17-   C16-   H6S
  1401   1399   1402   1405      9     0.00   0.66944   3 ;    H7S-   C17-   C16-   C15
  1402   1405   1408   1409      9     0.00   0.66944   3 ;    C16-   C15-   C14-   H4R
  1402   1405   1408   1410      9     0.00   0.66944   3 ;    C16-   C15-   C14-   H4S
  1402   1405   1408   1411      9     0.00   0.41840   1 ;    C16-   C15-   C14-   C13
  1402   1405   1408   1411      9     0.00   0.41840   2 ;    C16-   C15-   C14-   C13
  1402   1405   1408   1411      9     0.00   0.41840   4 ;    C16-   C15-   C14-   C13
  1402   1405   1408   1411      9     0.00   0.41840   5 ;    C16-   C15-   C14-   C13
  1402   1405   1408   1411      9     0.00   1.25520   3 ;    C16-   C15-   C14-   C13
  1403   1402   1405   1406      9     0.00   0.62760   3 ;    H6R-   C16-   C15-   H5R
  1403   1402   1405   1407      9     0.00   0.62760   3 ;    H6R-   C16-   C15-   H5S
  1403   1402   1405   1408      9     0.00   0.66944   3 ;    H6R-   C16-   C15-   C14
  1404   1402   1405   1406      9     0.00   0.62760   3 ;    H6S-   C16-   C15-   H5R
  1404   1402   1405   1407      9     0.00   0.62760   3 ;    H6S-   C16-   C15-   H5S
  1404   1402   1405   1408      9     0.00   0.66944   3 ;    H6S-   C16-   C15-   C14
  1405   1408   1411   1412      9     0.00   0.66944   3 ;    C15-   C14-   C13-   H3R
  1405   1408   1411   1413      9     0.00   0.66944   3 ;    C15-   C14-   C13-   H3S
  1405   1408   1411   1414      9     0.00   0.41840   1 ;    C15-   C14-   C13-   C12
  1405   1408   1411   1414      9     0.00   0.41840   2 ;    C15-   C14-   C13-   C12
  1405   1408   1411   1414      9     0.00   0.41840   4 ;    C15-   C14-   C13-   C12
  1405   1408   1411   1414      9     0.00   0.41840   5 ;    C15-   C14-   C13-   C12
  1405   1408   1411   1414      9     0.00   1.25520   3 ;    C15-   C14-   C13-   C12
  1406   1405   1408   1409      9     0.00   0.62760   3 ;    H5R-   C15-   C14-   H4R
  1406   1405   1408   1410      9     0.00   0.62760   3 ;    H5R-   C15-   C14-   H4S
  1406   1405   1408   1411      9     0.00   0.66944   3 ;    H5R-   C15-   C14-   C13
  1407   1405   1408   1409      9     0.00   0.62760   3 ;    H5S-   C15-   C14-   H4R
  1407   1405   1408   1410      9     0.00   0.62760   3 ;    H5S-   C15-   C14-   H4S
  1407   1405   1408   1411      9     0.00   0.66944   3 ;    H5S-   C15-   C14-   C13
  1408   1411   1414   1415      9     0.00   0.66944   3 ;    C14-   C13-   C12-   H2R
  1408   1411   1414   1416      9     0.00   0.66944   3 ;    C14-   C13-   C12-   H2S
  1409   1408   1411   1412      9     0.00   0.62760   3 ;    H4R-   C14-   C13-   H3R
  1409   1408   1411   1413      9     0.00   0.62760   3 ;    H4R-   C14-   C13-   H3S
  1409   1408   1411   1414      9     0.00   0.66944   3 ;    H4R-   C14-   C13-   C12
  1410   1408   1411   1412      9     0.00   0.62760   3 ;    H4S-   C14-   C13-   H3R
  1410   1408   1411   1413      9     0.00   0.62760   3 ;    H4S-   C14-   C13-   H3S
  1410   1408   1411   1414      9     0.00   0.66944   3 ;    H4S-   C14-   C13-   C12
  1412   1411   1414   1415      9     0.00   0.62760   3 ;    H3R-   C13-   C12-   H2R
  1412   1411   1414   1416      9     0.00   0.62760   3 ;    H3R-   C13-   C12-   H2S
  1413   1411   1414   1415      9     0.00   0.62760   3 ;    H3S-   C13-   C12-   H2R
  1413   1411   1414   1416      9     0.00   0.62760   3 ;    H3S-   C13-   C12-   H2S
  1417   1418   1421   1422      9     0.00   0.62760   3 ;   H14T-  C114-  C113-  H13R
  1417   1418   1421   1423      9     0.00   0.62760   3 ;   H14T-  C114-  C113-  H13S
  1417   1418   1421   1424      9     0.00   0.66944   3 ;   H14T-  C114-  C113-  C112
  1418   1421   1424   1425      9     0.00   0.66944   3 ;   C114-  C113-  C112-  H12R
  1418   1421   1424   1426      9     0.00   0.66944   3 ;   C114-  C113-  C112-  H12S
  1418   1421   1424   1427      9     0.00   0.41840   1 ;   C114-  C113-  C112-  C111
  1418   1421   1424   1427      9     0.00   0.41840   2 ;   C114-  C113-  C112-  C111
  1418   1421   1424   1427      9     0.00   0.41840   4 ;   C114-  C113-  C112-  C111
  1418   1421   1424   1427      9     0.00   0.41840   5 ;   C114-  C113-  C112-  C111
  1418   1421   1424   1427      9     0.00   1.25520   3 ;   C114-  C113-  C112-  C111
  1419   1418   1421   1422      9     0.00   0.62760   3 ;   H14R-  C114-  C113-  H13R
  1419   1418   1421   1423      9     0.00   0.62760   3 ;   H14R-  C114-  C113-  H13S
  1419   1418   1421   1424      9     0.00   0.66944   3 ;   H14R-  C114-  C113-  C112
  1420   1418   1421   1422      9     0.00   0.62760   3 ;   H14S-  C114-  C113-  H13R
  1420   1418   1421   1423      9     0.00   0.62760   3 ;   H14S-  C114-  C113-  H13S
  1420   1418   1421   1424      9     0.00   0.66944   3 ;   H14S-  C114-  C113-  C112
  1421   1424   1427   1428      9     0.00   0.66944   3 ;   C113-  C112-  C111-  H11R
  1421   1424   1427   1429      9     0.00   0.66944   3 ;   C113-  C112-  C111-  H11S
  1421   1424   1427   1430      9     0.00   0.41840   1 ;   C113-  C112-  C111-  C110
  1421   1424   1427   1430      9     0.00   0.41840   2 ;   C113-  C112-  C111-  C110
  1421   1424   1427   1430      9     0.00   0.41840   4 ;   C113-  C112-  C111-  C110
  1421   1424   1427   1430      9     0.00   0.41840   5 ;   C113-  C112-  C111-  C110
  1421   1424   1427   1430      9     0.00   1.25520   3 ;   C113-  C112-  C111-  C110
  1422   1421   1424   1425      9     0.00   0.62760   3 ;   H13R-  C113-  C112-  H12R
  1422   1421   1424   1426      9     0.00   0.62760   3 ;   H13R-  C113-  C112-  H12S
  1422   1421   1424   1427      9     0.00   0.66944   3 ;   H13R-  C113-  C112-  C111
  1423   1421   1424   1425      9     0.00   0.62760   3 ;   H13S-  C113-  C112-  H12R
  1423   1421   1424   1426      9     0.00   0.62760   3 ;   H13S-  C113-  C112-  H12S
  1423   1421   1424   1427      9     0.00   0.66944   3 ;   H13S-  C113-  C112-  C111
  1424   1427   1430   1431      9     0.00   0.66944   3 ;   C112-  C111-  C110-  H10R
  1424   1427   1430   1432      9     0.00   0.66944   3 ;   C112-  C111-  C110-  H10S
  1424   1427   1430   1433      9     0.00   0.41840   1 ;   C112-  C111-  C110-   C19
  1424   1427   1430   1433      9     0.00   0.41840   2 ;   C112-  C111-  C110-   C19
  1424   1427   1430   1433      9     0.00   0.41840   4 ;   C112-  C111-  C110-   C19
  1424   1427   1430   1433      9     0.00   0.41840   5 ;   C112-  C111-  C110-   C19
  1424   1427   1430   1433      9     0.00   1.25520   3 ;   C112-  C111-  C110-   C19
  1425   1424   1427   1428      9     0.00   0.62760   3 ;   H12R-  C112-  C111-  H11R
  1425   1424   1427   1429      9     0.00   0.62760   3 ;   H12R-  C112-  C111-  H11S
  1425   1424   1427   1430      9     0.00   0.66944   3 ;   H12R-  C112-  C111-  C110
  1426   1424   1427   1428      9     0.00   0.62760   3 ;   H12S-  C112-  C111-  H11R
  1426   1424   1427   1429      9     0.00   0.62760   3 ;   H12S-  C112-  C111-  H11S
  1426   1424   1427   1430      9     0.00   0.66944   3 ;   H12S-  C112-  C111-  C110
  1427   1430   1433   1434      9     0.00   0.66944   3 ;   C111-  C110-   C19-   H9R
  1427   1430   1433   1435      9     0.00   0.66944   3 ;   C111-  C110-   C19-   H9S
  1427   1430   1433   1436      9     0.00   0.41840   1 ;   C111-  C110-   C19-   C18
  1427   1430   1433   1436      9     0.00   0.41840   2 ;   C111-  C110-   C19-   C18
  1427   1430   1433   1436      9     0.00   0.41840   4 ;   C111-  C110-   C19-   C18
  1427   1430   1433   1436      9     0.00   0.41840   5 ;   C111-  C110-   C19-   C18
  1427   1430   1433   1436      9     0.00   1.25520   3 ;   C111-  C110-   C19-   C18
  1428   1427   1430   1431      9     0.00   0.62760   3 ;   H11R-  C111-  C110-  H10R
  1428   1427   1430   1432      9     0.00   0.62760   3 ;   H11R-  C111-  C110-  H10S
  1428   1427   1430   1433      9     0.00   0.66944   3 ;   H11R-  C111-  C110-   C19
  1429   1427   1430   1431      9     0.00   0.62760   3 ;   H11S-  C111-  C110-  H10R
  1429   1427   1430   1432      9     0.00   0.62760   3 ;   H11S-  C111-  C110-  H10S
  1429   1427   1430   1433      9     0.00   0.66944   3 ;   H11S-  C111-  C110-   C19
  1430   1433   1436   1437      9     0.00   0.66944   3 ;   C110-   C19-   C18-   H8R
  1430   1433   1436   1438      9     0.00   0.66944   3 ;   C110-   C19-   C18-   H8S
  1430   1433   1436   1439      9     0.00   0.41840   1 ;   C110-   C19-   C18-   C17
  1430   1433   1436   1439      9     0.00   0.41840   2 ;   C110-   C19-   C18-   C17
  1430   1433   1436   1439      9     0.00   0.41840   4 ;   C110-   C19-   C18-   C17
  1430   1433   1436   1439      9     0.00   0.41840   5 ;   C110-   C19-   C18-   C17
  1430   1433   1436   1439      9     0.00   1.25520   3 ;   C110-   C19-   C18-   C17
  1431   1430   1433   1434      9     0.00   0.62760   3 ;   H10R-  C110-   C19-   H9R
  1431   1430   1433   1435      9     0.00   0.62760   3 ;   H10R-  C110-   C19-   H9S
  1431   1430   1433   1436      9     0.00   0.66944   3 ;   H10R-  C110-   C19-   C18
  1432   1430   1433   1434      9     0.00   0.62760   3 ;   H10S-  C110-   C19-   H9R
  1432   1430   1433   1435      9     0.00   0.62760   3 ;   H10S-  C110-   C19-   H9S
  1432   1430   1433   1436      9     0.00   0.66944   3 ;   H10S-  C110-   C19-   C18
  1433   1436   1439   1440      9     0.00   0.66944   3 ;    C19-   C18-   C17-   H7R
  1433   1436   1439   1441      9     0.00   0.66944   3 ;    C19-   C18-   C17-   H7S
  1433   1436   1439   1442      9     0.00   0.41840   1 ;    C19-   C18-   C17-   C16
  1433   1436   1439   1442      9     0.00   0.41840   2 ;    C19-   C18-   C17-   C16
  1433   1436   1439   1442      9     0.00   0.41840   4 ;    C19-   C18-   C17-   C16
  1433   1436   1439   1442      9     0.00   0.41840   5 ;    C19-   C18-   C17-   C16
  1433   1436   1439   1442      9     0.00   1.25520   3 ;    C19-   C18-   C17-   C16
  1434   1433   1436   1437      9     0.00   0.62760   3 ;    H9R-   C19-   C18-   H8R
  1434   1433   1436   1438      9     0.00   0.62760   3 ;    H9R-   C19-   C18-   H8S
  1434   1433   1436   1439      9     0.00   0.66944   3 ;    H9R-   C19-   C18-   C17
  1435   1433   1436   1437      9     0.00   0.62760   3 ;    H9S-   C19-   C18-   H8R
  1435   1433   1436   1438      9     0.00   0.62760   3 ;    H9S-   C19-   C18-   H8S
  1435   1433   1436   1439      9     0.00   0.66944   3 ;    H9S-   C19-   C18-   C17
  1436   1439   1442   1443      9     0.00   0.66944   3 ;    C18-   C17-   C16-   H6R
  1436   1439   1442   1444      9     0.00   0.66944   3 ;    C18-   C17-   C16-   H6S
  1436   1439   1442   1445      9     0.00   0.41840   1 ;    C18-   C17-   C16-   C15
  1436   1439   1442   1445      9     0.00   0.41840   2 ;    C18-   C17-   C16-   C15
  1436   1439   1442   1445      9     0.00   0.41840   4 ;    C18-   C17-   C16-   C15
  1436   1439   1442   1445      9     0.00   0.41840   5 ;    C18-   C17-   C16-   C15
  1436   1439   1442   1445      9     0.00   1.25520   3 ;    C18-   C17-   C16-   C15
  1437   1436   1439   1440      9     0.00   0.62760   3 ;    H8R-   C18-   C17-   H7R
  1437   1436   1439   1441      9     0.00   0.62760   3 ;    H8R-   C18-   C17-   H7S
  1437   1436   1439   1442      9     0.00   0.66944   3 ;    H8R-   C18-   C17-   C16
  1438   1436   1439   1440      9     0.00   0.62760   3 ;    H8S-   C18-   C17-   H7R
  1438   1436   1439   1441      9     0.00   0.62760   3 ;    H8S-   C18-   C17-   H7S
  1438   1436   1439   1442      9     0.00   0.66944   3 ;    H8S-   C18-   C17-   C16
  1439   1442   1445   1446      9     0.00   0.66944   3 ;    C17-   C16-   C15-   H5R
  1439   1442   1445   1447      9     0.00   0.66944   3 ;    C17-   C16-   C15-   H5S
  1439   1442   1445   1448      9     0.00   0.41840   1 ;    C17-   C16-   C15-   C14
  1439   1442   1445   1448      9     0.00   0.41840   2 ;    C17-   C16-   C15-   C14
  1439   1442   1445   1448      9     0.00   0.41840   4 ;    C17-   C16-   C15-   C14
  1439   1442   1445   1448      9     0.00   0.41840   5 ;    C17-   C16-   C15-   C14
  1439   1442   1445   1448      9     0.00   1.25520   3 ;    C17-   C16-   C15-   C14
  1440   1439   1442   1443      9     0.00   0.62760   3 ;    H7R-   C17-   C16-   H6R
  1440   1439   1442   1444      9     0.00   0.62760   3 ;    H7R-   C17-   C16-   H6S
  1440   1439   1442   1445      9     0.00   0.66944   3 ;    H7R-   C17-   C16-   C15
  1441   1439   1442   1443      9     0.00   0.62760   3 ;    H7S-   C17-   C16-   H6R
  1441   1439   1442   1444      9     0.00   0.62760   3 ;    H7S-   C17-   C16-   H6S
  1441   1439   1442   1445      9     0.00   0.66944   3 ;    H7S-   C17-   C16-   C15
  1442   1445   1448   1449      9     0.00   0.66944   3 ;    C16-   C15-   C14-   H4R
  1442   1445   1448   1450      9     0.00   0.66944   3 ;    C16-   C15-   C14-   H4S
  1442   1445   1448   1451      9     0.00   0.41840   1 ;    C16-   C15-   C14-   C13
  1442   1445   1448   1451      9     0.00   0.41840   2 ;    C16-   C15-   C14-   C13
  1442   1445   1448   1451      9     0.00   0.41840   4 ;    C16-   C15-   C14-   C13
  1442   1445   1448   1451      9     0.00   0.41840   5 ;    C16-   C15-   C14-   C13
  1442   1445   1448   1451      9     0.00   1.25520   3 ;    C16-   C15-   C14-   C13
  1443   1442   1445   1446      9     0.00   0.62760   3 ;    H6R-   C16-   C15-   H5R
  1443   1442   1445   1447      9     0.00   0.62760   3 ;    H6R-   C16-   C15-   H5S
  1443   1442   1445   1448      9     0.00   0.66944   3 ;    H6R-   C16-   C15-   C14
  1444   1442   1445   1446      9     0.00   0.62760   3 ;    H6S-   C16-   C15-   H5R
  1444   1442   1445   1447      9     0.00   0.62760   3 ;    H6S-   C16-   C15-   H5S
  1444   1442   1445   1448      9     0.00   0.66944   3 ;    H6S-   C16-   C15-   C14
  1445   1448   1451   1452      9     0.00   0.66944   3 ;    C15-   C14-   C13-   H3R
  1445   1448   1451   1453      9     0.00   0.66944   3 ;    C15-   C14-   C13-   H3S
  1445   1448   1451   1454      9     0.00   0.41840   1 ;    C15-   C14-   C13-   C12
  1445   1448   1451   1454      9     0.00   0.41840   2 ;    C15-   C14-   C13-   C12
  1445   1448   1451   1454      9     0.00   0.41840   4 ;    C15-   C14-   C13-   C12
  1445   1448   1451   1454      9     0.00   0.41840   5 ;    C15-   C14-   C13-   C12
  1445   1448   1451   1454      9     0.00   1.25520   3 ;    C15-   C14-   C13-   C12
  1446   1445   1448   1449      9     0.00   0.62760   3 ;    H5R-   C15-   C14-   H4R
  1446   1445   1448   1450      9     0.00   0.62760   3 ;    H5R-   C15-   C14-   H4S
  1446   1445   1448   1451      9     0.00   0.66944   3 ;    H5R-   C15-   C14-   C13
  1447   1445   1448   1449      9     0.00   0.62760   3 ;    H5S-   C15-   C14-   H4R
  1447   1445   1448   1450      9     0.00   0.62760   3 ;    H5S-   C15-   C14-   H4S
  1447   1445   1448   1451      9     0.00   0.66944   3 ;    H5S-   C15-   C14-   C13
  1448   1451   1454   1455      9     0.00   0.66944   3 ;    C14-   C13-   C12-   H2R
  1448   1451   1454   1456      9     0.00   0.66944   3 ;    C14-   C13-   C12-   H2S
  1448   1451   1454   1457      9     0.00   0.65270   3 ;    C14-   C13-   C12-   C11
  1449   1448   1451   1452      9     0.00   0.62760   3 ;    H4R-   C14-   C13-   H3R
  1449   1448   1451   1453      9     0.00   0.62760   3 ;    H4R-   C14-   C13-   H3S
  1449   1448   1451   1454      9     0.00   0.66944   3 ;    H4R-   C14-   C13-   C12
  1450   1448   1451   1452      9     0.00   0.62760   3 ;    H4S-   C14-   C13-   H3R
  1450   1448   1451   1453      9     0.00   0.62760   3 ;    H4S-   C14-   C13-   H3S
  1450   1448   1451   1454      9     0.00   0.66944   3 ;    H4S-   C14-   C13-   C12
  1451   1454   1457   1458      9   180.00   0.00000   2 ;    C13-   C12-   C11-   O12
  1451   1454   1457   1459      9   180.00   0.00000   2 ;    C13-   C12-   C11-   O11
  1452   1451   1454   1455      9     0.00   0.62760   3 ;    H3R-   C13-   C12-   H2R
  1452   1451   1454   1456      9     0.00   0.62760   3 ;    H3R-   C13-   C12-   H2S
  1452   1451   1454   1457      9     0.00   0.65270   3 ;    H3R-   C13-   C12-   C11
  1453   1451   1454   1455      9     0.00   0.62760   3 ;    H3S-   C13-   C12-   H2R
  1453   1451   1454   1456      9     0.00   0.62760   3 ;    H3S-   C13-   C12-   H2S
  1453   1451   1454   1457      9     0.00   0.65270   3 ;    H3S-   C13-   C12-   C11
  1454   1457   1459   1460      9   180.00  11.29680   2 ;    C12-   C11-   O11-    C1
  1455   1454   1457   1458      9     0.00   3.34720   1 ;    H2R-   C12-   C11-   O12
  1455   1454   1457   1458      9   180.00   0.33472   3 ;    H2R-   C12-   C11-   O12
  1455   1454   1457   1459      9   180.00   0.00000   2 ;    H2R-   C12-   C11-   O11
  1456   1454   1457   1458      9     0.00   3.34720   1 ;    H2S-   C12-   C11-   O12
  1456   1454   1457   1458      9   180.00   0.33472   3 ;    H2S-   C12-   C11-   O12
  1456   1454   1457   1459      9   180.00   0.00000   2 ;    H2S-   C12-   C11-   O11
  1457   1459   1460   1461      9     0.00   1.60247   3 ;    C11-   O11-    C1-    HR
  1457   1459   1460   1462      9     0.00   1.60247   3 ;    C11-   O11-    C1-    HS
  1457   1459   1460   1463      9     0.00  -0.41840   1 ;    C11-   O11-    C1-    C2
  1458   1457   1459   1460      9   180.00   5.85760   1 ;    O12-   C11-   O11-    C1
  1458   1457   1459   1460      9   180.00  11.29680   2 ;    O12-   C11-   O11-    C1
  1459   1460   1463   1464      9     0.00   0.00000   0 ;    O11-    C1-    C2-    HX
  1459   1460   1463   1464      9     0.00   1.04600   1 ;    O11-    C1-    C2-    HX
  1459   1460   1463   1465      9     0.00   0.00000   0 ;    O11-    C1-    C2-    C3
  1459   1460   1463   1465      9     0.00   0.00000   0 ;    O11-    C1-    C2-    C3
  1459   1460   1463   1465      9     0.00   0.00000   0 ;    O11-    C1-    C2-    C3
  1459   1460   1463   1465      9     0.00   0.00000   0 ;    O11-    C1-    C2-    C3
  1459   1460   1463   1465      9     0.00   0.00000   0 ;    O11-    C1-    C2-    C3
  1459   1460   1463   1492      9     0.00   1.25520   2 ;    O11-    C1-    C2-   O21
  1459   1460   1463   1492      9     0.00   4.18400   3 ;    O11-    C1-    C2-   O21
  1459   1460   1463   1492      9   180.00  -0.41840   1 ;    O11-    C1-    C2-   O21
  1460   1463   1465   1466      9     0.00   0.65270   3 ;     C1-    C2-    C3-    HA
  1460   1463   1465   1467      9     0.00   0.65270   3 ;     C1-    C2-    C3-    HB
  1460   1463   1465   1468      9   180.00   3.34720   1 ;     C1-    C2-    C3-   O31
  1460   1463   1492   1493      9     0.00  -0.41840   1 ;     C1-    C2-   O21-   C21
  1461   1460   1463   1464      9     0.00   0.65270   3 ;     HR-    C1-    C2-    HX
  1461   1460   1463   1465      9     0.00   0.65270   3 ;     HR-    C1-    C2-    C3
  1461   1460   1463   1492      9     0.00   0.00000   0 ;     HR-    C1-    C2-   O21
  1461   1460   1463   1492      9     0.00   1.04600   1 ;     HR-    C1-    C2-   O21
  1462   1460   1463   1464      9     0.00   0.65270   3 ;     HS-    C1-    C2-    HX
  1462   1460   1463   1465      9     0.00   0.65270   3 ;     HS-    C1-    C2-    C3
  1462   1460   1463   1492      9     0.00   0.00000   0 ;     HS-    C1-    C2-   O21
  1462   1460   1463   1492      9     0.00   1.04600   1 ;     HS-    C1-    C2-   O21
  1463   1465   1468   1469      9     0.00   0.00000   0 ;     C2-    C3-   O31-   P31
  1463   1465   1468   1469      9   180.00  -3.34720   2 ;     C2-    C3-   O31-   P31
  1463   1492   1493   1494      9   180.00   5.85760   1 ;     C2-   O21-   C21-   O22
  1463   1492   1493   1494      9   180.00  11.29680   2 ;     C2-   O21-   C21-   O22
  1463   1492   1493   1532      9   180.00  11.29680   2 ;     C2-   O21-   C21-   C12
  1464   1463   1465   1466      9     0.00   0.65270   3 ;     HX-    C2-    C3-    HA
  1464   1463   1465   1467      9     0.00   0.65270   3 ;     HX-    C2-    C3-    HB
  1464   1463   1465   1468      9     0.00   0.00000   0 ;     HX-    C2-    C3-   O31
  1464   1463   1465   1468      9     0.00   1.04600   1 ;     HX-    C2-    C3-   O31
  1464   1463   1492   1493      9     0.00   1.60247   3 ;     HX-    C2-   O21-   C21
  1465   1463   1492   1493      9     0.00  -0.41840   1 ;     C3-    C2-   O21-   C21
  1465   1468   1469   1470      9     0.00   2.51040   3 ;     C3-   O31-   P31-   O32
  1465   1468   1469   1470      9     0.00   9.62320   2 ;     C3-   O31-   P31-   O32
  1465   1468   1469   1490      9     0.00   0.00000   0 ;     C3-   O31-   P31-   O33
  1465   1468   1469   1490      9     0.00   0.00000   0 ;     C3-   O31-   P31-   O33
  1465   1468   1469   1490      9     0.00   0.00000   0 ;     C3-   O31-   P31-   O33
  1465   1468   1469   1490      9     0.00   0.00000   0 ;     C3-   O31-   P31-   O33
  1465   1468   1469   1490      9     0.00   0.83680   2 ;     C3-   O31-   P31-   O33
  1465   1468   1469   1491      9     0.00   0.00000   0 ;     C3-   O31-   P31-   O34
  1465   1468   1469   1491      9     0.00   0.00000   0 ;     C3-   O31-   P31-   O34
  1465   1468   1469   1491      9     0.00   0.00000   0 ;     C3-   O31-   P31-   O34
  1465   1468   1469   1491      9     0.00   0.00000   0 ;     C3-   O31-   P31-   O34
  1465   1468   1469   1491      9     0.00   0.83680   2 ;     C3-   O31-   P31-   O34
  1466   1465   1463   1492      9     0.00   0.00000   0 ;     HA-    C3-    C2-   O21
  1466   1465   1463   1492      9     0.00   1.04600   1 ;     HA-    C3-    C2-   O21
  1466   1465   1468   1469      9     0.00   0.00000   0 ;     HA-    C3-   O31-   P31
  1466   1465   1468   1469      9     0.00   0.00000   0 ;     HA-    C3-   O31-   P31
  1466   1465   1468   1469      9     0.00   0.00000   0 ;     HA-    C3-   O31-   P31
  1466   1465   1468   1469      9     0.00   0.00000   0 ;     HA-    C3-   O31-   P31
  1466   1465   1468   1469      9     0.00   1.60247   3 ;     HA-    C3-   O31-   P31
  1467   1465   1463   1492      9     0.00   0.00000   0 ;     HB-    C3-    C2-   O21
  1467   1465   1463   1492      9     0.00   1.04600   1 ;     HB-    C3-    C2-   O21
  1467   1465   1468   1469      9     0.00   0.00000   0 ;     HB-    C3-   O31-   P31
  1467   1465   1468   1469      9     0.00   0.00000   0 ;     HB-    C3-   O31-   P31
  1467   1465   1468   1469      9     0.00   0.00000   0 ;     HB-    C3-   O31-   P31
  1467   1465   1468   1469      9     0.00   0.00000   0 ;     HB-    C3-   O31-   P31
  1467   1465   1468   1469      9     0.00   1.60247   3 ;     HB-    C3-   O31-   P31
  1468   1465   1463   1492      9     0.00   0.00000   0 ;    O31-    C3-    C2-   O21
  1468   1465   1463   1492      9     0.00   0.00000   0 ;    O31-    C3-    C2-   O21
  1468   1465   1463   1492      9     0.00   0.00000   0 ;    O31-    C3-    C2-   O21
  1468   1465   1463   1492      9     0.00   0.00000   0 ;    O31-    C3-    C2-   O21
  1468   1465   1463   1492      9     0.00   0.00000   0 ;    O31-    C3-    C2-   O21
  1468   1469   1470   1471      9     0.00   2.51040   3 ;    O31-   P31-   O32-   C31
  1468   1469   1470   1471      9     0.00   9.62320   2 ;    O31-   P31-   O32-   C31
  1469   1470   1471   1472      9     0.00   0.00000   0 ;    P31-   O32-   C31-   H1A
  1469   1470   1471   1472      9     0.00   0.00000   0 ;    P31-   O32-   C31-   H1A
  1469   1470   1471   1472      9     0.00   0.00000   0 ;    P31-   O32-   C31-   H1A
  1469   1470   1471   1472      9     0.00   0.00000   0 ;    P31-   O32-   C31-   H1A
  1469   1470   1471   1472      9     0.00   1.60247   3 ;    P31-   O32-   C31-   H1A
  1469   1470   1471   1473      9     0.00   0.00000   0 ;    P31-   O32-   C31-   H1B
  1469   1470   1471   1473      9     0.00   0.00000   0 ;    P31-   O32-   C31-   H1B
  1469   1470   1471   1473      9     0.00   0.00000   0 ;    P31-   O32-   C31-   H1B
  1469   1470   1471   1473      9     0.00   0.00000   0 ;    P31-   O32-   C31-   H1B
  1469   1470   1471   1473      9     0.00   1.60247   3 ;    P31-   O32-   C31-   H1B
  1469   1470   1471   1474      9     0.00   0.00000   0 ;    P31-   O32-   C31-   C32
  1469   1470   1471   1474      9   180.00  -3.34720   2 ;    P31-   O32-   C31-   C32
  1470   1471   1474   1475      9     0.00   0.65270   3 ;    O32-   C31-   C32-   H2A
  1470   1471   1474   1476      9     0.00   0.65270   3 ;    O32-   C31-   C32-   H2B
  1470   1471   1474   1477      9     0.00   4.18400   3 ;    O32-   C31-   C32-   N31
  1471   1470   1469   1490      9     0.00   0.00000   0 ;    C31-   O32-   P31-   O33
  1471   1470   1469   1490      9     0.00   0.00000   0 ;    C31-   O32-   P31-   O33
  1471   1470   1469   1490      9     0.00   0.00000   0 ;    C31-   O32-   P31-   O33
  1471   1470   1469   1490      9     0.00   0.00000   0 ;    C31-   O32-   P31-   O33
  1471   1470   1469   1490      9     0.00   0.83680   2 ;    C31-   O32-   P31-   O33
  1471   1470   1469   1491      9     0.00   0.00000   0 ;    C31-   O32-   P31-   O34
  1471   1470   1469   1491      9     0.00   0.00000   0 ;    C31-   O32-   P31-   O34
  1471   1470   1469   1491      9     0.00   0.00000   0 ;    C31-   O32-   P31-   O34
  1471   1470   1469   1491      9     0.00   0.00000   0 ;    C31-   O32-   P31-   O34
  1471   1470   1469   1491      9     0.00   0.83680   2 ;    C31-   O32-   P31-   O34
  1471   1474   1477   1478      9     0.00   0.65270   3 ;    C31-   C32-   N31-   C33
  1471   1474   1477   1482      9     0.00   0.65270   3 ;    C31-   C32-   N31-   C34
  1471   1474   1477   1486      9     0.00   0.65270   3 ;    C31-   C32-   N31-   C35
  1472   1471   1474   1475      9     0.00   0.65270   3 ;    H1A-   C31-   C32-   H2A
  1472   1471   1474   1476      9     0.00   0.65270   3 ;    H1A-   C31-   C32-   H2B
  1472   1471   1474   1477      9     0.00   0.65270   3 ;    H1A-   C31-   C32-   N31
  1473   1471   1474   1475      9     0.00   0.65270   3 ;    H1B-   C31-   C32-   H2A
  1473   1471   1474   1476      9     0.00   0.65270   3 ;    H1B-   C31-   C32-   H2B
  1473   1471   1474   1477      9     0.00   0.65270   3 ;    H1B-   C31-   C32-   N31
  1474   1477   1478   1479      9     0.00   0.65270   3 ;    C32-   N31-   C33-   H3A
  1474   1477   1478   1480      9     0.00   0.65270   3 ;    C32-   N31-   C33-   H3B
  1474   1477   1478   1481      9     0.00   0.65270   3 ;    C32-   N31-   C33-   H3C
  1474   1477   1482   1483      9     0.00   0.65270   3 ;    C32-   N31-   C34-   H4A
  1474   1477   1482   1484      9     0.00   0.65270   3 ;    C32-   N31-   C34-   H4B
  1474   1477   1482   1485      9     0.00   0.65270   3 ;    C32-   N31-   C34-   H4C
  1474   1477   1486   1487      9     0.00   0.65270   3 ;    C32-   N31-   C35-   H5A
  1474   1477   1486   1488      9     0.00   0.65270   3 ;    C32-   N31-   C35-   H5B
  1474   1477   1486   1489      9     0.00   0.65270   3 ;    C32-   N31-   C35-   H5C
  1475   1474   1477   1478      9     0.00   0.65270   3 ;    H2A-   C32-   N31-   C33
  1475   1474   1477   1482      9     0.00   0.65270   3 ;    H2A-   C32-   N31-   C34
  1475   1474   1477   1486      9     0.00   0.65270   3 ;    H2A-   C32-   N31-   C35
  1476   1474   1477   1478      9     0.00   0.65270   3 ;    H2B-   C32-   N31-   C33
  1476   1474   1477   1482      9     0.00   0.65270   3 ;    H2B-   C32-   N31-   C34
  1476   1474   1477   1486      9     0.00   0.65270   3 ;    H2B-   C32-   N31-   C35
  1478   1477   1482   1483      9     0.00   0.65270   3 ;    C33-   N31-   C34-   H4A
  1478   1477   1482   1484      9     0.00   0.65270   3 ;    C33-   N31-   C34-   H4B
  1478   1477   1482   1485      9     0.00   0.65270   3 ;    C33-   N31-   C34-   H4C
  1478   1477   1486   1487      9     0.00   0.65270   3 ;    C33-   N31-   C35-   H5A
  1478   1477   1486   1488      9     0.00   0.65270   3 ;    C33-   N31-   C35-   H5B
  1478   1477   1486   1489      9     0.00   0.65270   3 ;    C33-   N31-   C35-   H5C
  1479   1478   1477   1482      9     0.00   0.65270   3 ;    H3A-   C33-   N31-   C34
  1479   1478   1477   1486      9     0.00   0.65270   3 ;    H3A-   C33-   N31-   C35
  1480   1478   1477   1482      9     0.00   0.65270   3 ;    H3B-   C33-   N31-   C34
  1480   1478   1477   1486      9     0.00   0.65270   3 ;    H3B-   C33-   N31-   C35
  1481   1478   1477   1482      9     0.00   0.65270   3 ;    H3C-   C33-   N31-   C34
  1481   1478   1477   1486      9     0.00   0.65270   3 ;    H3C-   C33-   N31-   C35
  1482   1477   1486   1487      9     0.00   0.65270   3 ;    C34-   N31-   C35-   H5A
  1482   1477   1486   1488      9     0.00   0.65270   3 ;    C34-   N31-   C35-   H5B
  1482   1477   1486   1489      9     0.00   0.65270   3 ;    C34-   N31-   C35-   H5C
  1483   1482   1477   1486      9     0.00   0.65270   3 ;    H4A-   C34-   N31-   C35
  1484   1482   1477   1486      9     0.00   0.65270   3 ;    H4B-   C34-   N31-   C35
  1485   1482   1477   1486      9     0.00   0.65270   3 ;    H4C-   C34-   N31-   C35
  1492   1493   1532   1529      9   180.00   0.00000   2 ;    O21-   C21-   C12-   C13
  1492   1493   1532   1533      9   180.00   0.00000   2 ;    O21-   C21-   C12-   H2R
  1492   1493   1532   1534      9   180.00   0.00000   2 ;    O21-   C21-   C12-   H2S
  1493   1532   1529   1526      9     0.00   0.65270   3 ;    C21-   C12-   C13-   C14
  1493   1532   1529   1530      9     0.00   0.65270   3 ;    C21-   C12-   C13-   H3R
  1493   1532   1529   1531      9     0.00   0.65270   3 ;    C21-   C12-   C13-   H3S
  1494   1493   1532   1529      9   180.00   0.00000   2 ;    O22-   C21-   C12-   C13
  1494   1493   1532   1533      9     0.00   3.34720   1 ;    O22-   C21-   C12-   H2R
  1494   1493   1532   1533      9   180.00   0.33472   3 ;    O22-   C21-   C12-   H2R
  1494   1493   1532   1534      9     0.00   3.34720   1 ;    O22-   C21-   C12-   H2S
  1494   1493   1532   1534      9   180.00   0.33472   3 ;    O22-   C21-   C12-   H2S
  1495   1496   1499   1500      9     0.00   0.62760   3 ;   H14T-  C114-  C113-  H13R
  1495   1496   1499   1501      9     0.00   0.62760   3 ;   H14T-  C114-  C113-  H13S
  1495   1496   1499   1502      9     0.00   0.66944   3 ;   H14T-  C114-  C113-  C112
  1496   1499   1502   1503      9     0.00   0.66944   3 ;   C114-  C113-  C112-  H12R
  1496   1499   1502   1504      9     0.00   0.66944   3 ;   C114-  C113-  C112-  H12S
  1496   1499   1502   1505      9     0.00   0.41840   1 ;   C114-  C113-  C112-  C111
  1496   1499   1502   1505      9     0.00   0.41840   2 ;   C114-  C113-  C112-  C111
  1496   1499   1502   1505      9     0.00   0.41840   4 ;   C114-  C113-  C112-  C111
  1496   1499   1502   1505      9     0.00   0.41840   5 ;   C114-  C113-  C112-  C111
  1496   1499   1502   1505      9     0.00   1.25520   3 ;   C114-  C113-  C112-  C111
  1497   1496   1499   1500      9     0.00   0.62760   3 ;   H14R-  C114-  C113-  H13R
  1497   1496   1499   1501      9     0.00   0.62760   3 ;   H14R-  C114-  C113-  H13S
  1497   1496   1499   1502      9     0.00   0.66944   3 ;   H14R-  C114-  C113-  C112
  1498   1496   1499   1500      9     0.00   0.62760   3 ;   H14S-  C114-  C113-  H13R
  1498   1496   1499   1501      9     0.00   0.62760   3 ;   H14S-  C114-  C113-  H13S
  1498   1496   1499   1502      9     0.00   0.66944   3 ;   H14S-  C114-  C113-  C112
  1499   1502   1505   1506      9     0.00   0.66944   3 ;   C113-  C112-  C111-  H11R
  1499   1502   1505   1507      9     0.00   0.66944   3 ;   C113-  C112-  C111-  H11S
  1499   1502   1505   1508      9     0.00   0.41840   1 ;   C113-  C112-  C111-  C110
  1499   1502   1505   1508      9     0.00   0.41840   2 ;   C113-  C112-  C111-  C110
  1499   1502   1505   1508      9     0.00   0.41840   4 ;   C113-  C112-  C111-  C110
  1499   1502   1505   1508      9     0.00   0.41840   5 ;   C113-  C112-  C111-  C110
  1499   1502   1505   1508      9     0.00   1.25520   3 ;   C113-  C112-  C111-  C110
  1500   1499   1502   1503      9     0.00   0.62760   3 ;   H13R-  C113-  C112-  H12R
  1500   1499   1502   1504      9     0.00   0.62760   3 ;   H13R-  C113-  C112-  H12S
  1500   1499   1502   1505      9     0.00   0.66944   3 ;   H13R-  C113-  C112-  C111
  1501   1499   1502   1503      9     0.00   0.62760   3 ;   H13S-  C113-  C112-  H12R
  1501   1499   1502   1504      9     0.00   0.62760   3 ;   H13S-  C113-  C112-  H12S
  1501   1499   1502   1505      9     0.00   0.66944   3 ;   H13S-  C113-  C112-  C111
  1502   1505   1508   1509      9     0.00   0.66944   3 ;   C112-  C111-  C110-  H10R
  1502   1505   1508   1510      9     0.00   0.66944   3 ;   C112-  C111-  C110-  H10S
  1502   1505   1508   1511      9     0.00   0.41840   1 ;   C112-  C111-  C110-   C19
  1502   1505   1508   1511      9     0.00   0.41840   2 ;   C112-  C111-  C110-   C19
  1502   1505   1508   1511      9     0.00   0.41840   4 ;   C112-  C111-  C110-   C19
  1502   1505   1508   1511      9     0.00   0.41840   5 ;   C112-  C111-  C110-   C19
  1502   1505   1508   1511      9     0.00   1.25520   3 ;   C112-  C111-  C110-   C19
  1503   1502   1505   1506      9     0.00   0.62760   3 ;   H12R-  C112-  C111-  H11R
  1503   1502   1505   1507      9     0.00   0.62760   3 ;   H12R-  C112-  C111-  H11S
  1503   1502   1505   1508      9     0.00   0.66944   3 ;   H12R-  C112-  C111-  C110
  1504   1502   1505   1506      9     0.00   0.62760   3 ;   H12S-  C112-  C111-  H11R
  1504   1502   1505   1507      9     0.00   0.62760   3 ;   H12S-  C112-  C111-  H11S
  1504   1502   1505   1508      9     0.00   0.66944   3 ;   H12S-  C112-  C111-  C110
  1505   1508   1511   1512      9     0.00   0.66944   3 ;   C111-  C110-   C19-   H9R
  1505   1508   1511   1513      9     0.00   0.66944   3 ;   C111-  C110-   C19-   H9S
  1505   1508   1511   1514      9     0.00   0.41840   1 ;   C111-  C110-   C19-   C18
  1505   1508   1511   1514      9     0.00   0.41840   2 ;   C111-  C110-   C19-   C18
  1505   1508   1511   1514      9     0.00   0.41840   4 ;   C111-  C110-   C19-   C18
  1505   1508   1511   1514      9     0.00   0.41840   5 ;   C111-  C110-   C19-   C18
  1505   1508   1511   1514      9     0.00   1.25520   3 ;   C111-  C110-   C19-   C18
  1506   1505   1508   1509      9     0.00   0.62760   3 ;   H11R-  C111-  C110-  H10R
  1506   1505   1508   1510      9     0.00   0.62760   3 ;   H11R-  C111-  C110-  H10S
  1506   1505   1508   1511      9     0.00   0.66944   3 ;   H11R-  C111-  C110-   C19
  1507   1505   1508   1509      9     0.00   0.62760   3 ;   H11S-  C111-  C110-  H10R
  1507   1505   1508   1510      9     0.00   0.62760   3 ;   H11S-  C111-  C110-  H10S
  1507   1505   1508   1511      9     0.00   0.66944   3 ;   H11S-  C111-  C110-   C19
  1508   1511   1514   1515      9     0.00   0.66944   3 ;   C110-   C19-   C18-   H8R
  1508   1511   1514   1516      9     0.00   0.66944   3 ;   C110-   C19-   C18-   H8S
  1508   1511   1514   1517      9     0.00   0.41840   1 ;   C110-   C19-   C18-   C17
  1508   1511   1514   1517      9     0.00   0.41840   2 ;   C110-   C19-   C18-   C17
  1508   1511   1514   1517      9     0.00   0.41840   4 ;   C110-   C19-   C18-   C17
  1508   1511   1514   1517      9     0.00   0.41840   5 ;   C110-   C19-   C18-   C17
  1508   1511   1514   1517      9     0.00   1.25520   3 ;   C110-   C19-   C18-   C17
  1509   1508   1511   1512      9     0.00   0.62760   3 ;   H10R-  C110-   C19-   H9R
  1509   1508   1511   1513      9     0.00   0.62760   3 ;   H10R-  C110-   C19-   H9S
  1509   1508   1511   1514      9     0.00   0.66944   3 ;   H10R-  C110-   C19-   C18
  1510   1508   1511   1512      9     0.00   0.62760   3 ;   H10S-  C110-   C19-   H9R
  1510   1508   1511   1513      9     0.00   0.62760   3 ;   H10S-  C110-   C19-   H9S
  1510   1508   1511   1514      9     0.00   0.66944   3 ;   H10S-  C110-   C19-   C18
  1511   1514   1517   1518      9     0.00   0.66944   3 ;    C19-   C18-   C17-   H7R
  1511   1514   1517   1519      9     0.00   0.66944   3 ;    C19-   C18-   C17-   H7S
  1511   1514   1517   1520      9     0.00   0.41840   1 ;    C19-   C18-   C17-   C16
  1511   1514   1517   1520      9     0.00   0.41840   2 ;    C19-   C18-   C17-   C16
  1511   1514   1517   1520      9     0.00   0.41840   4 ;    C19-   C18-   C17-   C16
  1511   1514   1517   1520      9     0.00   0.41840   5 ;    C19-   C18-   C17-   C16
  1511   1514   1517   1520      9     0.00   1.25520   3 ;    C19-   C18-   C17-   C16
  1512   1511   1514   1515      9     0.00   0.62760   3 ;    H9R-   C19-   C18-   H8R
  1512   1511   1514   1516      9     0.00   0.62760   3 ;    H9R-   C19-   C18-   H8S
  1512   1511   1514   1517      9     0.00   0.66944   3 ;    H9R-   C19-   C18-   C17
  1513   1511   1514   1515      9     0.00   0.62760   3 ;    H9S-   C19-   C18-   H8R
  1513   1511   1514   1516      9     0.00   0.62760   3 ;    H9S-   C19-   C18-   H8S
  1513   1511   1514   1517      9     0.00   0.66944   3 ;    H9S-   C19-   C18-   C17
  1514   1517   1520   1521      9     0.00   0.66944   3 ;    C18-   C17-   C16-   H6R
  1514   1517   1520   1522      9     0.00   0.66944   3 ;    C18-   C17-   C16-   H6S
  1514   1517   1520   1523      9     0.00   0.41840   1 ;    C18-   C17-   C16-   C15
  1514   1517   1520   1523      9     0.00   0.41840   2 ;    C18-   C17-   C16-   C15
  1514   1517   1520   1523      9     0.00   0.41840   4 ;    C18-   C17-   C16-   C15
  1514   1517   1520   1523      9     0.00   0.41840   5 ;    C18-   C17-   C16-   C15
  1514   1517   1520   1523      9     0.00   1.25520   3 ;    C18-   C17-   C16-   C15
  1515   1514   1517   1518      9     0.00   0.62760   3 ;    H8R-   C18-   C17-   H7R
  1515   1514   1517   1519      9     0.00   0.62760   3 ;    H8R-   C18-   C17-   H7S
  1515   1514   1517   1520      9     0.00   0.66944   3 ;    H8R-   C18-   C17-   C16
  1516   1514   1517   1518      9     0.00   0.62760   3 ;    H8S-   C18-   C17-   H7R
  1516   1514   1517   1519      9     0.00   0.62760   3 ;    H8S-   C18-   C17-   H7S
  1516   1514   1517   1520      9     0.00   0.66944   3 ;    H8S-   C18-   C17-   C16
  1517   1520   1523   1524      9     0.00   0.66944   3 ;    C17-   C16-   C15-   H5R
  1517   1520   1523   1525      9     0.00   0.66944   3 ;    C17-   C16-   C15-   H5S
  1517   1520   1523   1526      9     0.00   0.41840   1 ;    C17-   C16-   C15-   C14
  1517   1520   1523   1526      9     0.00   0.41840   2 ;    C17-   C16-   C15-   C14
  1517   1520   1523   1526      9     0.00   0.41840   4 ;    C17-   C16-   C15-   C14
  1517   1520   1523   1526      9     0.00   0.41840   5 ;    C17-   C16-   C15-   C14
  1517   1520   1523   1526      9     0.00   1.25520   3 ;    C17-   C16-   C15-   C14
  1518   1517   1520   1521      9     0.00   0.62760   3 ;    H7R-   C17-   C16-   H6R
  1518   1517   1520   1522      9     0.00   0.62760   3 ;    H7R-   C17-   C16-   H6S
  1518   1517   1520   1523      9     0.00   0.66944   3 ;    H7R-   C17-   C16-   C15
  1519   1517   1520   1521      9     0.00   0.62760   3 ;    H7S-   C17-   C16-   H6R
  1519   1517   1520   1522      9     0.00   0.62760   3 ;    H7S-   C17-   C16-   H6S
  1519   1517   1520   1523      9     0.00   0.66944   3 ;    H7S-   C17-   C16-   C15
  1520   1523   1526   1527      9     0.00   0.66944   3 ;    C16-   C15-   C14-   H4R
  1520   1523   1526   1528      9     0.00   0.66944   3 ;    C16-   C15-   C14-   H4S
  1520   1523   1526   1529      9     0.00   0.41840   1 ;    C16-   C15-   C14-   C13
  1520   1523   1526   1529      9     0.00   0.41840   2 ;    C16-   C15-   C14-   C13
  1520   1523   1526   1529      9     0.00   0.41840   4 ;    C16-   C15-   C14-   C13
  1520   1523   1526   1529      9     0.00   0.41840   5 ;    C16-   C15-   C14-   C13
  1520   1523   1526   1529      9     0.00   1.25520   3 ;    C16-   C15-   C14-   C13
  1521   1520   1523   1524      9     0.00   0.62760   3 ;    H6R-   C16-   C15-   H5R
  1521   1520   1523   1525      9     0.00   0.62760   3 ;    H6R-   C16-   C15-   H5S
  1521   1520   1523   1526      9     0.00   0.66944   3 ;    H6R-   C16-   C15-   C14
  1522   1520   1523   1524      9     0.00   0.62760   3 ;    H6S-   C16-   C15-   H5R
  1522   1520   1523   1525      9     0.00   0.62760   3 ;    H6S-   C16-   C15-   H5S
  1522   1520   1523   1526      9     0.00   0.66944   3 ;    H6S-   C16-   C15-   C14
  1523   1526   1529   1530      9     0.00   0.66944   3 ;    C15-   C14-   C13-   H3R
  1523   1526   1529   1531      9     0.00   0.66944   3 ;    C15-   C14-   C13-   H3S
  1523   1526   1529   1532      9     0.00   0.41840   1 ;    C15-   C14-   C13-   C12
  1523   1526   1529   1532      9     0.00   0.41840   2 ;    C15-   C14-   C13-   C12
  1523   1526   1529   1532      9     0.00   0.41840   4 ;    C15-   C14-   C13-   C12
  1523   1526   1529   1532      9     0.00   0.41840   5 ;    C15-   C14-   C13-   C12
  1523   1526   1529   1532      9     0.00   1.25520   3 ;    C15-   C14-   C13-   C12
  1524   1523   1526   1527      9     0.00   0.62760   3 ;    H5R-   C15-   C14-   H4R
  1524   1523   1526   1528      9     0.00   0.62760   3 ;    H5R-   C15-   C14-   H4S
  1524   1523   1526   1529      9     0.00   0.66944   3 ;    H5R-   C15-   C14-   C13
  1525   1523   1526   1527      9     0.00   0.62760   3 ;    H5S-   C15-   C14-   H4R
  1525   1523   1526   1528      9     0.00   0.62760   3 ;    H5S-   C15-   C14-   H4S
  1525   1523   1526   1529      9     0.00   0.66944   3 ;    H5S-   C15-   C14-   C13
  1526   1529   1532   1533      9     0.00   0.66944   3 ;    C14-   C13-   C12-   H2R
  1526   1529   1532   1534      9     0.00   0.66944   3 ;    C14-   C13-   C12-   H2S
  1527   1526   1529   1530      9     0.00   0.62760   3 ;    H4R-   C14-   C13-   H3R
  1527   1526   1529   1531      9     0.00   0.62760   3 ;    H4R-   C14-   C13-   H3S
  1527   1526   1529   1532      9     0.00   0.66944   3 ;    H4R-   C14-   C13-   C12
  1528   1526   1529   1530      9     0.00   0.62760   3 ;    H4S-   C14-   C13-   H3R
  1528   1526   1529   1531      9     0.00   0.62760   3 ;    H4S-   C14-   C13-   H3S
  1528   1526   1529   1532      9     0.00   0.66944   3 ;    H4S-   C14-   C13-   C12
  1530   1529   1532   1533      9     0.00   0.62760   3 ;    H3R-   C13-   C12-   H2R
  1530   1529   1532   1534      9     0.00   0.62760   3 ;    H3R-   C13-   C12-   H2S
  1531   1529   1532   1533      9     0.00   0.62760   3 ;    H3S-   C13-   C12-   H2R
  1531   1529   1532   1534      9     0.00   0.62760   3 ;    H3S-   C13-   C12-   H2S
  1535   1536   1539   1540      9     0.00   0.62760   3 ;   H14T-  C114-  C113-  H13R
  1535   1536   1539   1541      9     0.00   0.62760   3 ;   H14T-  C114-  C113-  H13S
  1535   1536   1539   1542      9     0.00   0.66944   3 ;   H14T-  C114-  C113-  C112
  1536   1539   1542   1543      9     0.00   0.66944   3 ;   C114-  C113-  C112-  H12R
  1536   1539   1542   1544      9     0.00   0.66944   3 ;   C114-  C113-  C112-  H12S
  1536   1539   1542   1545      9     0.00   0.41840   1 ;   C114-  C113-  C112-  C111
  1536   1539   1542   1545      9     0.00   0.41840   2 ;   C114-  C113-  C112-  C111
  1536   1539   1542   1545      9     0.00   0.41840   4 ;   C114-  C113-  C112-  C111
  1536   1539   1542   1545      9     0.00   0.41840   5 ;   C114-  C113-  C112-  C111
  1536   1539   1542   1545      9     0.00   1.25520   3 ;   C114-  C113-  C112-  C111
  1537   1536   1539   1540      9     0.00   0.62760   3 ;   H14R-  C114-  C113-  H13R
  1537   1536   1539   1541      9     0.00   0.62760   3 ;   H14R-  C114-  C113-  H13S
  1537   1536   1539   1542      9     0.00   0.66944   3 ;   H14R-  C114-  C113-  C112
  1538   1536   1539   1540      9     0.00   0.62760   3 ;   H14S-  C114-  C113-  H13R
  1538   1536   1539   1541      9     0.00   0.62760   3 ;   H14S-  C114-  C113-  H13S
  1538   1536   1539   1542      9     0.00   0.66944   3 ;   H14S-  C114-  C113-  C112
  1539   1542   1545   1546      9     0.00   0.66944   3 ;   C113-  C112-  C111-  H11R
  1539   1542   1545   1547      9     0.00   0.66944   3 ;   C113-  C112-  C111-  H11S
  1539   1542   1545   1548      9     0.00   0.41840   1 ;   C113-  C112-  C111-  C110
  1539   1542   1545   1548      9     0.00   0.41840   2 ;   C113-  C112-  C111-  C110
  1539   1542   1545   1548      9     0.00   0.41840   4 ;   C113-  C112-  C111-  C110
  1539   1542   1545   1548      9     0.00   0.41840   5 ;   C113-  C112-  C111-  C110
  1539   1542   1545   1548      9     0.00   1.25520   3 ;   C113-  C112-  C111-  C110
  1540   1539   1542   1543      9     0.00   0.62760   3 ;   H13R-  C113-  C112-  H12R
  1540   1539   1542   1544      9     0.00   0.62760   3 ;   H13R-  C113-  C112-  H12S
  1540   1539   1542   1545      9     0.00   0.66944   3 ;   H13R-  C113-  C112-  C111
  1541   1539   1542   1543      9     0.00   0.62760   3 ;   H13S-  C113-  C112-  H12R
  1541   1539   1542   1544      9     0.00   0.62760   3 ;   H13S-  C113-  C112-  H12S
  1541   1539   1542   1545      9     0.00   0.66944   3 ;   H13S-  C113-  C112-  C111
  1542   1545   1548   1549      9     0.00   0.66944   3 ;   C112-  C111-  C110-  H10R
  1542   1545   1548   1550      9     0.00   0.66944   3 ;   C112-  C111-  C110-  H10S
  1542   1545   1548   1551      9     0.00   0.41840   1 ;   C112-  C111-  C110-   C19
  1542   1545   1548   1551      9     0.00   0.41840   2 ;   C112-  C111-  C110-   C19
  1542   1545   1548   1551      9     0.00   0.41840   4 ;   C112-  C111-  C110-   C19
  1542   1545   1548   1551      9     0.00   0.41840   5 ;   C112-  C111-  C110-   C19
  1542   1545   1548   1551      9     0.00   1.25520   3 ;   C112-  C111-  C110-   C19
  1543   1542   1545   1546      9     0.00   0.62760   3 ;   H12R-  C112-  C111-  H11R
  1543   1542   1545   1547      9     0.00   0.62760   3 ;   H12R-  C112-  C111-  H11S
  1543   1542   1545   1548      9     0.00   0.66944   3 ;   H12R-  C112-  C111-  C110
  1544   1542   1545   1546      9     0.00   0.62760   3 ;   H12S-  C112-  C111-  H11R
  1544   1542   1545   1547      9     0.00   0.62760   3 ;   H12S-  C112-  C111-  H11S
  1544   1542   1545   1548      9     0.00   0.66944   3 ;   H12S-  C112-  C111-  C110
  1545   1548   1551   1552      9     0.00   0.66944   3 ;   C111-  C110-   C19-   H9R
  1545   1548   1551   1553      9     0.00   0.66944   3 ;   C111-  C110-   C19-   H9S
  1545   1548   1551   1554      9     0.00   0.41840   1 ;   C111-  C110-   C19-   C18
  1545   1548   1551   1554      9     0.00   0.41840   2 ;   C111-  C110-   C19-   C18
  1545   1548   1551   1554      9     0.00   0.41840   4 ;   C111-  C110-   C19-   C18
  1545   1548   1551   1554      9     0.00   0.41840   5 ;   C111-  C110-   C19-   C18
  1545   1548   1551   1554      9     0.00   1.25520   3 ;   C111-  C110-   C19-   C18
  1546   1545   1548   1549      9     0.00   0.62760   3 ;   H11R-  C111-  C110-  H10R
  1546   1545   1548   1550      9     0.00   0.62760   3 ;   H11R-  C111-  C110-  H10S
  1546   1545   1548   1551      9     0.00   0.66944   3 ;   H11R-  C111-  C110-   C19
  1547   1545   1548   1549      9     0.00   0.62760   3 ;   H11S-  C111-  C110-  H10R
  1547   1545   1548   1550      9     0.00   0.62760   3 ;   H11S-  C111-  C110-  H10S
  1547   1545   1548   1551      9     0.00   0.66944   3 ;   H11S-  C111-  C110-   C19
  1548   1551   1554   1555      9     0.00   0.66944   3 ;   C110-   C19-   C18-   H8R
  1548   1551   1554   1556      9     0.00   0.66944   3 ;   C110-   C19-   C18-   H8S
  1548   1551   1554   1557      9     0.00   0.41840   1 ;   C110-   C19-   C18-   C17
  1548   1551   1554   1557      9     0.00   0.41840   2 ;   C110-   C19-   C18-   C17
  1548   1551   1554   1557      9     0.00   0.41840   4 ;   C110-   C19-   C18-   C17
  1548   1551   1554   1557      9     0.00   0.41840   5 ;   C110-   C19-   C18-   C17
  1548   1551   1554   1557      9     0.00   1.25520   3 ;   C110-   C19-   C18-   C17
  1549   1548   1551   1552      9     0.00   0.62760   3 ;   H10R-  C110-   C19-   H9R
  1549   1548   1551   1553      9     0.00   0.62760   3 ;   H10R-  C110-   C19-   H9S
  1549   1548   1551   1554      9     0.00   0.66944   3 ;   H10R-  C110-   C19-   C18
  1550   1548   1551   1552      9     0.00   0.62760   3 ;   H10S-  C110-   C19-   H9R
  1550   1548   1551   1553      9     0.00   0.62760   3 ;   H10S-  C110-   C19-   H9S
  1550   1548   1551   1554      9     0.00   0.66944   3 ;   H10S-  C110-   C19-   C18
  1551   1554   1557   1558      9     0.00   0.66944   3 ;    C19-   C18-   C17-   H7R
  1551   1554   1557   1559      9     0.00   0.66944   3 ;    C19-   C18-   C17-   H7S
  1551   1554   1557   1560      9     0.00   0.41840   1 ;    C19-   C18-   C17-   C16
  1551   1554   1557   1560      9     0.00   0.41840   2 ;    C19-   C18-   C17-   C16
  1551   1554   1557   1560      9     0.00   0.41840   4 ;    C19-   C18-   C17-   C16
  1551   1554   1557   1560      9     0.00   0.41840   5 ;    C19-   C18-   C17-   C16
  1551   1554   1557   1560      9     0.00   1.25520   3 ;    C19-   C18-   C17-   C16
  1552   1551   1554   1555      9     0.00   0.62760   3 ;    H9R-   C19-   C18-   H8R
  1552   1551   1554   1556      9     0.00   0.62760   3 ;    H9R-   C19-   C18-   H8S
  1552   1551   1554   1557      9     0.00   0.66944   3 ;    H9R-   C19-   C18-   C17
  1553   1551   1554   1555      9     0.00   0.62760   3 ;    H9S-   C19-   C18-   H8R
  1553   1551   1554   1556      9     0.00   0.62760   3 ;    H9S-   C19-   C18-   H8S
  1553   1551   1554   1557      9     0.00   0.66944   3 ;    H9S-   C19-   C18-   C17
  1554   1557   1560   1561      9     0.00   0.66944   3 ;    C18-   C17-   C16-   H6R
  1554   1557   1560   1562      9     0.00   0.66944   3 ;    C18-   C17-   C16-   H6S
  1554   1557   1560   1563      9     0.00   0.41840   1 ;    C18-   C17-   C16-   C15
  1554   1557   1560   1563      9     0.00   0.41840   2 ;    C18-   C17-   C16-   C15
  1554   1557   1560   1563      9     0.00   0.41840   4 ;    C18-   C17-   C16-   C15
  1554   1557   1560   1563      9     0.00   0.41840   5 ;    C18-   C17-   C16-   C15
  1554   1557   1560   1563      9     0.00   1.25520   3 ;    C18-   C17-   C16-   C15
  1555   1554   1557   1558      9     0.00   0.62760   3 ;    H8R-   C18-   C17-   H7R
  1555   1554   1557   1559      9     0.00   0.62760   3 ;    H8R-   C18-   C17-   H7S
  1555   1554   1557   1560      9     0.00   0.66944   3 ;    H8R-   C18-   C17-   C16
  1556   1554   1557   1558      9     0.00   0.62760   3 ;    H8S-   C18-   C17-   H7R
  1556   1554   1557   1559      9     0.00   0.62760   3 ;    H8S-   C18-   C17-   H7S
  1556   1554   1557   1560      9     0.00   0.66944   3 ;    H8S-   C18-   C17-   C16
  1557   1560   1563   1564      9     0.00   0.66944   3 ;    C17-   C16-   C15-   H5R
  1557   1560   1563   1565      9     0.00   0.66944   3 ;    C17-   C16-   C15-   H5S
  1557   1560   1563   1566      9     0.00   0.41840   1 ;    C17-   C16-   C15-   C14
  1557   1560   1563   1566      9     0.00   0.41840   2 ;    C17-   C16-   C15-   C14
  1557   1560   1563   1566      9     0.00   0.41840   4 ;    C17-   C16-   C15-   C14
  1557   1560   1563   1566      9     0.00   0.41840   5 ;    C17-   C16-   C15-   C14
  1557   1560   1563   1566      9     0.00   1.25520   3 ;    C17-   C16-   C15-   C14
  1558   1557   1560   1561      9     0.00   0.62760   3 ;    H7R-   C17-   C16-   H6R
  1558   1557   1560   1562      9     0.00   0.62760   3 ;    H7R-   C17-   C16-   H6S
  1558   1557   1560   1563      9     0.00   0.66944   3 ;    H7R-   C17-   C16-   C15
  1559   1557   1560   1561      9     0.00   0.62760   3 ;    H7S-   C17-   C16-   H6R
  1559   1557   1560   1562      9     0.00   0.62760   3 ;    H7S-   C17-   C16-   H6S
  1559   1557   1560   1563      9     0.00   0.66944   3 ;    H7S-   C17-   C16-   C15
  1560   1563   1566   1567      9     0.00   0.66944   3 ;    C16-   C15-   C14-   H4R
  1560   1563   1566   1568      9     0.00   0.66944   3 ;    C16-   C15-   C14-   H4S
  1560   1563   1566   1569      9     0.00   0.41840   1 ;    C16-   C15-   C14-   C13
  1560   1563   1566   1569      9     0.00   0.41840   2 ;    C16-   C15-   C14-   C13
  1560   1563   1566   1569      9     0.00   0.41840   4 ;    C16-   C15-   C14-   C13
  1560   1563   1566   1569      9     0.00   0.41840   5 ;    C16-   C15-   C14-   C13
  1560   1563   1566   1569      9     0.00   1.25520   3 ;    C16-   C15-   C14-   C13
  1561   1560   1563   1564      9     0.00   0.62760   3 ;    H6R-   C16-   C15-   H5R
  1561   1560   1563   1565      9     0.00   0.62760   3 ;    H6R-   C16-   C15-   H5S
  1561   1560   1563   1566      9     0.00   0.66944   3 ;    H6R-   C16-   C15-   C14
  1562   1560   1563   1564      9     0.00   0.62760   3 ;    H6S-   C16-   C15-   H5R
  1562   1560   1563   1565      9     0.00   0.62760   3 ;    H6S-   C16-   C15-   H5S
  1562   1560   1563   1566      9     0.00   0.66944   3 ;    H6S-   C16-   C15-   C14
  1563   1566   1569   1570      9     0.00   0.66944   3 ;    C15-   C14-   C13-   H3R
  1563   1566   1569   1571      9     0.00   0.66944   3 ;    C15-   C14-   C13-   H3S
  1563   1566   1569   1572      9     0.00   0.41840   1 ;    C15-   C14-   C13-   C12
  1563   1566   1569   1572      9     0.00   0.41840   2 ;    C15-   C14-   C13-   C12
  1563   1566   1569   1572      9     0.00   0.41840   4 ;    C15-   C14-   C13-   C12
  1563   1566   1569   1572      9     0.00   0.41840   5 ;    C15-   C14-   C13-   C12
  1563   1566   1569   1572      9     0.00   1.25520   3 ;    C15-   C14-   C13-   C12
  1564   1563   1566   1567      9     0.00   0.62760   3 ;    H5R-   C15-   C14-   H4R
  1564   1563   1566   1568      9     0.00   0.62760   3 ;    H5R-   C15-   C14-   H4S
  1564   1563   1566   1569      9     0.00   0.66944   3 ;    H5R-   C15-   C14-   C13
  1565   1563   1566   1567      9     0.00   0.62760   3 ;    H5S-   C15-   C14-   H4R
  1565   1563   1566   1568      9     0.00   0.62760   3 ;    H5S-   C15-   C14-   H4S
  1565   1563   1566   1569      9     0.00   0.66944   3 ;    H5S-   C15-   C14-   C13
  1566   1569   1572   1573      9     0.00   0.66944   3 ;    C14-   C13-   C12-   H2R
  1566   1569   1572   1574      9     0.00   0.66944   3 ;    C14-   C13-   C12-   H2S
  1566   1569   1572   1575      9     0.00   0.65270   3 ;    C14-   C13-   C12-   C11
  1567   1566   1569   1570      9     0.00   0.62760   3 ;    H4R-   C14-   C13-   H3R
  1567   1566   1569   1571      9     0.00   0.62760   3 ;    H4R-   C14-   C13-   H3S
  1567   1566   1569   1572      9     0.00   0.66944   3 ;    H4R-   C14-   C13-   C12
  1568   1566   1569   1570      9     0.00   0.62760   3 ;    H4S-   C14-   C13-   H3R
  1568   1566   1569   1571      9     0.00   0.62760   3 ;    H4S-   C14-   C13-   H3S
  1568   1566   1569   1572      9     0.00   0.66944   3 ;    H4S-   C14-   C13-   C12
  1569   1572   1575   1576      9   180.00   0.00000   2 ;    C13-   C12-   C11-   O12
  1569   1572   1575   1577      9   180.00   0.00000   2 ;    C13-   C12-   C11-   O11
  1570   1569   1572   1573      9     0.00   0.62760   3 ;    H3R-   C13-   C12-   H2R
  1570   1569   1572   1574      9     0.00   0.62760   3 ;    H3R-   C13-   C12-   H2S
  1570   1569   1572   1575      9     0.00   0.65270   3 ;    H3R-   C13-   C12-   C11
  1571   1569   1572   1573      9     0.00   0.62760   3 ;    H3S-   C13-   C12-   H2R
  1571   1569   1572   1574      9     0.00   0.62760   3 ;    H3S-   C13-   C12-   H2S
  1571   1569   1572   1575      9     0.00   0.65270   3 ;    H3S-   C13-   C12-   C11
  1572   1575   1577   1578      9   180.00  11.29680   2 ;    C12-   C11-   O11-    C1
  1573   1572   1575   1576      9     0.00   3.34720   1 ;    H2R-   C12-   C11-   O12
  1573   1572   1575   1576      9   180.00   0.33472   3 ;    H2R-   C12-   C11-   O12
  1573   1572   1575   1577      9   180.00   0.00000   2 ;    H2R-   C12-   C11-   O11
  1574   1572   1575   1576      9     0.00   3.34720   1 ;    H2S-   C12-   C11-   O12
  1574   1572   1575   1576      9   180.00   0.33472   3 ;    H2S-   C12-   C11-   O12
  1574   1572   1575   1577      9   180.00   0.00000   2 ;    H2S-   C12-   C11-   O11
  1575   1577   1578   1579      9     0.00   1.60247   3 ;    C11-   O11-    C1-    HR
  1575   1577   1578   1580      9     0.00   1.60247   3 ;    C11-   O11-    C1-    HS
  1575   1577   1578   1581      9     0.00  -0.41840   1 ;    C11-   O11-    C1-    C2
  1576   1575   1577   1578      9   180.00   5.85760   1 ;    O12-   C11-   O11-    C1
  1576   1575   1577   1578      9   180.00  11.29680   2 ;    O12-   C11-   O11-    C1
  1577   1578   1581   1582      9     0.00   0.00000   0 ;    O11-    C1-    C2-    HX
  1577   1578   1581   1582      9     0.00   1.04600   1 ;    O11-    C1-    C2-    HX
  1577   1578   1581   1583      9     0.00   0.00000   0 ;    O11-    C1-    C2-    C3
  1577   1578   1581   1583      9     0.00   0.00000   0 ;    O11-    C1-    C2-    C3
  1577   1578   1581   1583      9     0.00   0.00000   0 ;    O11-    C1-    C2-    C3
  1577   1578   1581   1583      9     0.00   0.00000   0 ;    O11-    C1-    C2-    C3
  1577   1578   1581   1583      9     0.00   0.00000   0 ;    O11-    C1-    C2-    C3
  1577   1578   1581   1610      9     0.00   1.25520   2 ;    O11-    C1-    C2-   O21
  1577   1578   1581   1610      9     0.00   4.18400   3 ;    O11-    C1-    C2-   O21
  1577   1578   1581   1610      9   180.00  -0.41840   1 ;    O11-    C1-    C2-   O21
  1578   1581   1583   1584      9     0.00   0.65270   3 ;     C1-    C2-    C3-    HA
  1578   1581   1583   1585      9     0.00   0.65270   3 ;     C1-    C2-    C3-    HB
  1578   1581   1583   1586      9   180.00   3.34720   1 ;     C1-    C2-    C3-   O31
  1578   1581   1610   1611      9     0.00  -0.41840   1 ;     C1-    C2-   O21-   C21
  1579   1578   1581   1582      9     0.00   0.65270   3 ;     HR-    C1-    C2-    HX
  1579   1578   1581   1583      9     0.00   0.65270   3 ;     HR-    C1-    C2-    C3
  1579   1578   1581   1610      9     0.00   0.00000   0 ;     HR-    C1-    C2-   O21
  1579   1578   1581   1610      9     0.00   1.04600   1 ;     HR-    C1-    C2-   O21
  1580   1578   1581   1582      9     0.00   0.65270   3 ;     HS-    C1-    C2-    HX
  1580   1578   1581   1583      9     0.00   0.65270   3 ;     HS-    C1-    C2-    C3
  1580   1578   1581   1610      9     0.00   0.00000   0 ;     HS-    C1-    C2-   O21
  1580   1578   1581   1610      9     0.00   1.04600   1 ;     HS-    C1-    C2-   O21
  1581   1583   1586   1587      9     0.00   0.00000   0 ;     C2-    C3-   O31-   P31
  1581   1583   1586   1587      9   180.00  -3.34720   2 ;     C2-    C3-   O31-   P31
  1581   1610   1611   1612      9   180.00   5.85760   1 ;     C2-   O21-   C21-   O22
  1581   1610   1611   1612      9   180.00  11.29680   2 ;     C2-   O21-   C21-   O22
  1581   1610   1611   1650      9   180.00  11.29680   2 ;     C2-   O21-   C21-   C12
  1582   1581   1583   1584      9     0.00   0.65270   3 ;     HX-    C2-    C3-    HA
  1582   1581   1583   1585      9     0.00   0.65270   3 ;     HX-    C2-    C3-    HB
  1582   1581   1583   1586      9     0.00   0.00000   0 ;     HX-    C2-    C3-   O31
  1582   1581   1583   1586      9     0.00   1.04600   1 ;     HX-    C2-    C3-   O31
  1582   1581   1610   1611      9     0.00   1.60247   3 ;     HX-    C2-   O21-   C21
  1583   1581   1610   1611      9     0.00  -0.41840   1 ;     C3-    C2-   O21-   C21
  1583   1586   1587   1588      9     0.00   2.51040   3 ;     C3-   O31-   P31-   O32
  1583   1586   1587   1588      9     0.00   9.62320   2 ;     C3-   O31-   P31-   O32
  1583   1586   1587   1608      9     0.00   0.00000   0 ;     C3-   O31-   P31-   O33
  1583   1586   1587   1608      9     0.00   0.00000   0 ;     C3-   O31-   P31-   O33
  1583   1586   1587   1608      9     0.00   0.00000   0 ;     C3-   O31-   P31-   O33
  1583   1586   1587   1608      9     0.00   0.00000   0 ;     C3-   O31-   P31-   O33
  1583   1586   1587   1608      9     0.00   0.83680   2 ;     C3-   O31-   P31-   O33
  1583   1586   1587   1609      9     0.00   0.00000   0 ;     C3-   O31-   P31-   O34
  1583   1586   1587   1609      9     0.00   0.00000   0 ;     C3-   O31-   P31-   O34
  1583   1586   1587   1609      9     0.00   0.00000   0 ;     C3-   O31-   P31-   O34
  1583   1586   1587   1609      9     0.00   0.00000   0 ;     C3-   O31-   P31-   O34
  1583   1586   1587   1609      9     0.00   0.83680   2 ;     C3-   O31-   P31-   O34
  1584   1583   1581   1610      9     0.00   0.00000   0 ;     HA-    C3-    C2-   O21
  1584   1583   1581   1610      9     0.00   1.04600   1 ;     HA-    C3-    C2-   O21
  1584   1583   1586   1587      9     0.00   0.00000   0 ;     HA-    C3-   O31-   P31
  1584   1583   1586   1587      9     0.00   0.00000   0 ;     HA-    C3-   O31-   P31
  1584   1583   1586   1587      9     0.00   0.00000   0 ;     HA-    C3-   O31-   P31
  1584   1583   1586   1587      9     0.00   0.00000   0 ;     HA-    C3-   O31-   P31
  1584   1583   1586   1587      9     0.00   1.60247   3 ;     HA-    C3-   O31-   P31
  1585   1583   1581   1610      9     0.00   0.00000   0 ;     HB-    C3-    C2-   O21
  1585   1583   1581   1610      9     0.00   1.04600   1 ;     HB-    C3-    C2-   O21
  1585   1583   1586   1587      9     0.00   0.00000   0 ;     HB-    C3-   O31-   P31
  1585   1583   1586   1587      9     0.00   0.00000   0 ;     HB-    C3-   O31-   P31
  1585   1583   1586   1587      9     0.00   0.00000   0 ;     HB-    C3-   O31-   P31
  1585   1583   1586   1587      9     0.00   0.00000   0 ;     HB-    C3-   O31-   P31
  1585   1583   1586   1587      9     0.00   1.60247   3 ;     HB-    C3-   O31-   P31
  1586   1583   1581   1610      9     0.00   0.00000   0 ;    O31-    C3-    C2-   O21
  1586   1583   1581   1610      9     0.00   0.00000   0 ;    O31-    C3-    C2-   O21
  1586   1583   1581   1610      9     0.00   0.00000   0 ;    O31-    C3-    C2-   O21
  1586   1583   1581   1610      9     0.00   0.00000   0 ;    O31-    C3-    C2-   O21
  1586   1583   1581   1610      9     0.00   0.00000   0 ;    O31-    C3-    C2-   O21
  1586   1587   1588   1589      9     0.00   2.51040   3 ;    O31-   P31-   O32-   C31
  1586   1587   1588   1589      9     0.00   9.62320   2 ;    O31-   P31-   O32-   C31
  1587   1588   1589   1590      9     0.00   0.00000   0 ;    P31-   O32-   C31-   H1A
  1587   1588   1589   1590      9     0.00   0.00000   0 ;    P31-   O32-   C31-   H1A
  1587   1588   1589   1590      9     0.00   0.00000   0 ;    P31-   O32-   C31-   H1A
  1587   1588   1589   1590      9     0.00   0.00000   0 ;    P31-   O32-   C31-   H1A
  1587   1588   1589   1590      9     0.00   1.60247   3 ;    P31-   O32-   C31-   H1A
  1587   1588   1589   1591      9     0.00   0.00000   0 ;    P31-   O32-   C31-   H1B
  1587   1588   1589   1591      9     0.00   0.00000   0 ;    P31-   O32-   C31-   H1B
  1587   1588   1589   1591      9     0.00   0.00000   0 ;    P31-   O32-   C31-   H1B
  1587   1588   1589   1591      9     0.00   0.00000   0 ;    P31-   O32-   C31-   H1B
  1587   1588   1589   1591      9     0.00   1.60247   3 ;    P31-   O32-   C31-   H1B
  1587   1588   1589   1592      9     0.00   0.00000   0 ;    P31-   O32-   C31-   C32
  1587   1588   1589   1592      9   180.00  -3.34720   2 ;    P31-   O32-   C31-   C32
  1588   1589   1592   1593      9     0.00   0.65270   3 ;    O32-   C31-   C32-   H2A
  1588   1589   1592   1594      9     0.00   0.65270   3 ;    O32-   C31-   C32-   H2B
  1588   1589   1592   1595      9     0.00   4.18400   3 ;    O32-   C31-   C32-   N31
  1589   1588   1587   1608      9     0.00   0.00000   0 ;    C31-   O32-   P31-   O33
  1589   1588   1587   1608      9     0.00   0.00000   0 ;    C31-   O32-   P31-   O33
  1589   1588   1587   1608      9     0.00   0.00000   0 ;    C31-   O32-   P31-   O33
  1589   1588   1587   1608      9     0.00   0.00000   0 ;    C31-   O32-   P31-   O33
  1589   1588   1587   1608      9     0.00   0.83680   2 ;    C31-   O32-   P31-   O33
  1589   1588   1587   1609      9     0.00   0.00000   0 ;    C31-   O32-   P31-   O34
  1589   1588   1587   1609      9     0.00   0.00000   0 ;    C31-   O32-   P31-   O34
  1589   1588   1587   1609      9     0.00   0.00000   0 ;    C31-   O32-   P31-   O34
  1589   1588   1587   1609      9     0.00   0.00000   0 ;    C31-   O32-   P31-   O34
  1589   1588   1587   1609      9     0.00   0.83680   2 ;    C31-   O32-   P31-   O34
  1589   1592   1595   1596      9     0.00   0.65270   3 ;    C31-   C32-   N31-   C33
  1589   1592   1595   1600      9     0.00   0.65270   3 ;    C31-   C32-   N31-   C34
  1589   1592   1595   1604      9     0.00   0.65270   3 ;    C31-   C32-   N31-   C35
  1590   1589   1592   1593      9     0.00   0.65270   3 ;    H1A-   C31-   C32-   H2A
  1590   1589   1592   1594      9     0.00   0.65270   3 ;    H1A-   C31-   C32-   H2B
  1590   1589   1592   1595      9     0.00   0.65270   3 ;    H1A-   C31-   C32-   N31
  1591   1589   1592   1593      9     0.00   0.65270   3 ;    H1B-   C31-   C32-   H2A
  1591   1589   1592   1594      9     0.00   0.65270   3 ;    H1B-   C31-   C32-   H2B
  1591   1589   1592   1595      9     0.00   0.65270   3 ;    H1B-   C31-   C32-   N31
  1592   1595   1596   1597      9     0.00   0.65270   3 ;    C32-   N31-   C33-   H3A
  1592   1595   1596   1598      9     0.00   0.65270   3 ;    C32-   N31-   C33-   H3B
  1592   1595   1596   1599      9     0.00   0.65270   3 ;    C32-   N31-   C33-   H3C
  1592   1595   1600   1601      9     0.00   0.65270   3 ;    C32-   N31-   C34-   H4A
  1592   1595   1600   1602      9     0.00   0.65270   3 ;    C32-   N31-   C34-   H4B
  1592   1595   1600   1603      9     0.00   0.65270   3 ;    C32-   N31-   C34-   H4C
  1592   1595   1604   1605      9     0.00   0.65270   3 ;    C32-   N31-   C35-   H5A
  1592   1595   1604   1606      9     0.00   0.65270   3 ;    C32-   N31-   C35-   H5B
  1592   1595   1604   1607      9     0.00   0.65270   3 ;    C32-   N31-   C35-   H5C
  1593   1592   1595   1596      9     0.00   0.65270   3 ;    H2A-   C32-   N31-   C33
  1593   1592   1595   1600      9     0.00   0.65270   3 ;    H2A-   C32-   N31-   C34
  1593   1592   1595   1604      9     0.00   0.65270   3 ;    H2A-   C32-   N31-   C35
  1594   1592   1595   1596      9     0.00   0.65270   3 ;    H2B-   C32-   N31-   C33
  1594   1592   1595   1600      9     0.00   0.65270   3 ;    H2B-   C32-   N31-   C34
  1594   1592   1595   1604      9     0.00   0.65270   3 ;    H2B-   C32-   N31-   C35
  1596   1595   1600   1601      9     0.00   0.65270   3 ;    C33-   N31-   C34-   H4A
  1596   1595   1600   1602      9     0.00   0.65270   3 ;    C33-   N31-   C34-   H4B
  1596   1595   1600   1603      9     0.00   0.65270   3 ;    C33-   N31-   C34-   H4C
  1596   1595   1604   1605      9     0.00   0.65270   3 ;    C33-   N31-   C35-   H5A
  1596   1595   1604   1606      9     0.00   0.65270   3 ;    C33-   N31-   C35-   H5B
  1596   1595   1604   1607      9     0.00   0.65270   3 ;    C33-   N31-   C35-   H5C
  1597   1596   1595   1600      9     0.00   0.65270   3 ;    H3A-   C33-   N31-   C34
  1597   1596   1595   1604      9     0.00   0.65270   3 ;    H3A-   C33-   N31-   C35
  1598   1596   1595   1600      9     0.00   0.65270   3 ;    H3B-   C33-   N31-   C34
  1598   1596   1595   1604      9     0.00   0.65270   3 ;    H3B-   C33-   N31-   C35
  1599   1596   1595   1600      9     0.00   0.65270   3 ;    H3C-   C33-   N31-   C34
  1599   1596   1595   1604      9     0.00   0.65270   3 ;    H3C-   C33-   N31-   C35
  1600   1595   1604   1605      9     0.00   0.65270   3 ;    C34-   N31-   C35-   H5A
  1600   1595   1604   1606      9     0.00   0.65270   3 ;    C34-   N31-   C35-   H5B
  1600   1595   1604   1607      9     0.00   0.65270   3 ;    C34-   N31-   C35-   H5C
  1601   1600   1595   1604      9     0.00   0.65270   3 ;    H4A-   C34-   N31-   C35
  1602   1600   1595   1604      9     0.00   0.65270   3 ;    H4B-   C34-   N31-   C35
  1603   1600   1595   1604      9     0.00   0.65270   3 ;    H4C-   C34-   N31-   C35
  1610   1611   1650   1647      9   180.00   0.00000   2 ;    O21-   C21-   C12-   C13
  1610   1611   1650   1651      9   180.00   0.00000   2 ;    O21-   C21-   C12-   H2R
  1610   1611   1650   1652      9   180.00   0.00000   2 ;    O21-   C21-   C12-   H2S
  1611   1650   1647   1644      9     0.00   0.65270   3 ;    C21-   C12-   C13-   C14
  1611   1650   1647   1648      9     0.00   0.65270   3 ;    C21-   C12-   C13-   H3R
  1611   1650   1647   1649      9     0.00   0.65270   3 ;    C21-   C12-   C13-   H3S
  1612   1611   1650   1647      9   180.00   0.00000   2 ;    O22-   C21-   C12-   C13
  1612   1611   1650   1651      9     0.00   3.34720   1 ;    O22-   C21-   C12-   H2R
  1612   1611   1650   1651      9   180.00   0.33472   3 ;    O22-   C21-   C12-   H2R
  1612   1611   1650   1652      9     0.00   3.34720   1 ;    O22-   C21-   C12-   H2S
  1612   1611   1650   1652      9   180.00   0.33472   3 ;    O22-   C21-   C12-   H2S
  1613   1614   1617   1618      9     0.00   0.62760   3 ;   H14T-  C114-  C113-  H13R
  1613   1614   1617   1619      9     0.00   0.62760   3 ;   H14T-  C114-  C113-  H13S
  1613   1614   1617   1620      9     0.00   0.66944   3 ;   H14T-  C114-  C113-  C112
  1614   1617   1620   1621      9     0.00   0.66944   3 ;   C114-  C113-  C112-  H12R
  1614   1617   1620   1622      9     0.00   0.66944   3 ;   C114-  C113-  C112-  H12S
  1614   1617   1620   1623      9     0.00   0.41840   1 ;   C114-  C113-  C112-  C111
  1614   1617   1620   1623      9     0.00   0.41840   2 ;   C114-  C113-  C112-  C111
  1614   1617   1620   1623      9     0.00   0.41840   4 ;   C114-  C113-  C112-  C111
  1614   1617   1620   1623      9     0.00   0.41840   5 ;   C114-  C113-  C112-  C111
  1614   1617   1620   1623      9     0.00   1.25520   3 ;   C114-  C113-  C112-  C111
  1615   1614   1617   1618      9     0.00   0.62760   3 ;   H14R-  C114-  C113-  H13R
  1615   1614   1617   1619      9     0.00   0.62760   3 ;   H14R-  C114-  C113-  H13S
  1615   1614   1617   1620      9     0.00   0.66944   3 ;   H14R-  C114-  C113-  C112
  1616   1614   1617   1618      9     0.00   0.62760   3 ;   H14S-  C114-  C113-  H13R
  1616   1614   1617   1619      9     0.00   0.62760   3 ;   H14S-  C114-  C113-  H13S
  1616   1614   1617   1620      9     0.00   0.66944   3 ;   H14S-  C114-  C113-  C112
  1617   1620   1623   1624      9     0.00   0.66944   3 ;   C113-  C112-  C111-  H11R
  1617   1620   1623   1625      9     0.00   0.66944   3 ;   C113-  C112-  C111-  H11S
  1617   1620   1623   1626      9     0.00   0.41840   1 ;   C113-  C112-  C111-  C110
  1617   1620   1623   1626      9     0.00   0.41840   2 ;   C113-  C112-  C111-  C110
  1617   1620   1623   1626      9     0.00   0.41840   4 ;   C113-  C112-  C111-  C110
  1617   1620   1623   1626      9     0.00   0.41840   5 ;   C113-  C112-  C111-  C110
  1617   1620   1623   1626      9     0.00   1.25520   3 ;   C113-  C112-  C111-  C110
  1618   1617   1620   1621      9     0.00   0.62760   3 ;   H13R-  C113-  C112-  H12R
  1618   1617   1620   1622      9     0.00   0.62760   3 ;   H13R-  C113-  C112-  H12S
  1618   1617   1620   1623      9     0.00   0.66944   3 ;   H13R-  C113-  C112-  C111
  1619   1617   1620   1621      9     0.00   0.62760   3 ;   H13S-  C113-  C112-  H12R
  1619   1617   1620   1622      9     0.00   0.62760   3 ;   H13S-  C113-  C112-  H12S
  1619   1617   1620   1623      9     0.00   0.66944   3 ;   H13S-  C113-  C112-  C111
  1620   1623   1626   1627      9     0.00   0.66944   3 ;   C112-  C111-  C110-  H10R
  1620   1623   1626   1628      9     0.00   0.66944   3 ;   C112-  C111-  C110-  H10S
  1620   1623   1626   1629      9     0.00   0.41840   1 ;   C112-  C111-  C110-   C19
  1620   1623   1626   1629      9     0.00   0.41840   2 ;   C112-  C111-  C110-   C19
  1620   1623   1626   1629      9     0.00   0.41840   4 ;   C112-  C111-  C110-   C19
  1620   1623   1626   1629      9     0.00   0.41840   5 ;   C112-  C111-  C110-   C19
  1620   1623   1626   1629      9     0.00   1.25520   3 ;   C112-  C111-  C110-   C19
  1621   1620   1623   1624      9     0.00   0.62760   3 ;   H12R-  C112-  C111-  H11R
  1621   1620   1623   1625      9     0.00   0.62760   3 ;   H12R-  C112-  C111-  H11S
  1621   1620   1623   1626      9     0.00   0.66944   3 ;   H12R-  C112-  C111-  C110
  1622   1620   1623   1624      9     0.00   0.62760   3 ;   H12S-  C112-  C111-  H11R
  1622   1620   1623   1625      9     0.00   0.62760   3 ;   H12S-  C112-  C111-  H11S
  1622   1620   1623   1626      9     0.00   0.66944   3 ;   H12S-  C112-  C111-  C110
  1623   1626   1629   1630      9     0.00   0.66944   3 ;   C111-  C110-   C19-   H9R
  1623   1626   1629   1631      9     0.00   0.66944   3 ;   C111-  C110-   C19-   H9S
  1623   1626   1629   1632      9     0.00   0.41840   1 ;   C111-  C110-   C19-   C18
  1623   1626   1629   1632      9     0.00   0.41840   2 ;   C111-  C110-   C19-   C18
  1623   1626   1629   1632      9     0.00   0.41840   4 ;   C111-  C110-   C19-   C18
  1623   1626   1629   1632      9     0.00   0.41840   5 ;   C111-  C110-   C19-   C18
  1623   1626   1629   1632      9     0.00   1.25520   3 ;   C111-  C110-   C19-   C18
  1624   1623   1626   1627      9     0.00   0.62760   3 ;   H11R-  C111-  C110-  H10R
  1624   1623   1626   1628      9     0.00   0.62760   3 ;   H11R-  C111-  C110-  H10S
  1624   1623   1626   1629      9     0.00   0.66944   3 ;   H11R-  C111-  C110-   C19
  1625   1623   1626   1627      9     0.00   0.62760   3 ;   H11S-  C111-  C110-  H10R
  1625   1623   1626   1628      9     0.00   0.62760   3 ;   H11S-  C111-  C110-  H10S
  1625   1623   1626   1629      9     0.00   0.66944   3 ;   H11S-  C111-  C110-   C19
  1626   1629   1632   1633      9     0.00   0.66944   3 ;   C110-   C19-   C18-   H8R
  1626   1629   1632   1634      9     0.00   0.66944   3 ;   C110-   C19-   C18-   H8S
  1626   1629   1632   1635      9     0.00   0.41840   1 ;   C110-   C19-   C18-   C17
  1626   1629   1632   1635      9     0.00   0.41840   2 ;   C110-   C19-   C18-   C17
  1626   1629   1632   1635      9     0.00   0.41840   4 ;   C110-   C19-   C18-   C17
  1626   1629   1632   1635      9     0.00   0.41840   5 ;   C110-   C19-   C18-   C17
  1626   1629   1632   1635      9     0.00   1.25520   3 ;   C110-   C19-   C18-   C17
  1627   1626   1629   1630      9     0.00   0.62760   3 ;   H10R-  C110-   C19-   H9R
  1627   1626   1629   1631      9     0.00   0.62760   3 ;   H10R-  C110-   C19-   H9S
  1627   1626   1629   1632      9     0.00   0.66944   3 ;   H10R-  C110-   C19-   C18
  1628   1626   1629   1630      9     0.00   0.62760   3 ;   H10S-  C110-   C19-   H9R
  1628   1626   1629   1631      9     0.00   0.62760   3 ;   H10S-  C110-   C19-   H9S
  1628   1626   1629   1632      9     0.00   0.66944   3 ;   H10S-  C110-   C19-   C18
  1629   1632   1635   1636      9     0.00   0.66944   3 ;    C19-   C18-   C17-   H7R
  1629   1632   1635   1637      9     0.00   0.66944   3 ;    C19-   C18-   C17-   H7S
  1629   1632   1635   1638      9     0.00   0.41840   1 ;    C19-   C18-   C17-   C16
  1629   1632   1635   1638      9     0.00   0.41840   2 ;    C19-   C18-   C17-   C16
  1629   1632   1635   1638      9     0.00   0.41840   4 ;    C19-   C18-   C17-   C16
  1629   1632   1635   1638      9     0.00   0.41840   5 ;    C19-   C18-   C17-   C16
  1629   1632   1635   1638      9     0.00   1.25520   3 ;    C19-   C18-   C17-   C16
  1630   1629   1632   1633      9     0.00   0.62760   3 ;    H9R-   C19-   C18-   H8R
  1630   1629   1632   1634      9     0.00   0.62760   3 ;    H9R-   C19-   C18-   H8S
  1630   1629   1632   1635      9     0.00   0.66944   3 ;    H9R-   C19-   C18-   C17
  1631   1629   1632   1633      9     0.00   0.62760   3 ;    H9S-   C19-   C18-   H8R
  1631   1629   1632   1634      9     0.00   0.62760   3 ;    H9S-   C19-   C18-   H8S
  1631   1629   1632   1635      9     0.00   0.66944   3 ;    H9S-   C19-   C18-   C17
  1632   1635   1638   1639      9     0.00   0.66944   3 ;    C18-   C17-   C16-   H6R
  1632   1635   1638   1640      9     0.00   0.66944   3 ;    C18-   C17-   C16-   H6S
  1632   1635   1638   1641      9     0.00   0.41840   1 ;    C18-   C17-   C16-   C15
  1632   1635   1638   1641      9     0.00   0.41840   2 ;    C18-   C17-   C16-   C15
  1632   1635   1638   1641      9     0.00   0.41840   4 ;    C18-   C17-   C16-   C15
  1632   1635   1638   1641      9     0.00   0.41840   5 ;    C18-   C17-   C16-   C15
  1632   1635   1638   1641      9     0.00   1.25520   3 ;    C18-   C17-   C16-   C15
  1633   1632   1635   1636      9     0.00   0.62760   3 ;    H8R-   C18-   C17-   H7R
  1633   1632   1635   1637      9     0.00   0.62760   3 ;    H8R-   C18-   C17-   H7S
  1633   1632   1635   1638      9     0.00   0.66944   3 ;    H8R-   C18-   C17-   C16
  1634   1632   1635   1636      9     0.00   0.62760   3 ;    H8S-   C18-   C17-   H7R
  1634   1632   1635   1637      9     0.00   0.62760   3 ;    H8S-   C18-   C17-   H7S
  1634   1632   1635   1638      9     0.00   0.66944   3 ;    H8S-   C18-   C17-   C16
  1635   1638   1641   1642      9     0.00   0.66944   3 ;    C17-   C16-   C15-   H5R
  1635   1638   1641   1643      9     0.00   0.66944   3 ;    C17-   C16-   C15-   H5S
  1635   1638   1641   1644      9     0.00   0.41840   1 ;    C17-   C16-   C15-   C14
  1635   1638   1641   1644      9     0.00   0.41840   2 ;    C17-   C16-   C15-   C14
  1635   1638   1641   1644      9     0.00   0.41840   4 ;    C17-   C16-   C15-   C14
  1635   1638   1641   1644      9     0.00   0.41840   5 ;    C17-   C16-   C15-   C14
  1635   1638   1641   1644      9     0.00   1.25520   3 ;    C17-   C16-   C15-   C14
  1636   1635   1638   1639      9     0.00   0.62760   3 ;    H7R-   C17-   C16-   H6R
  1636   1635   1638   1640      9     0.00   0.62760   3 ;    H7R-   C17-   C16-   H6S
  1636   1635   1638   1641      9     0.00   0.66944   3 ;    H7R-   C17-   C16-   C15
  1637   1635   1638   1639      9     0.00   0.62760   3 ;    H7S-   C17-   C16-   H6R
  1637   1635   1638   1640      9     0.00   0.62760   3 ;    H7S-   C17-   C16-   H6S
  1637   1635   1638   1641      9     0.00   0.66944   3 ;    H7S-   C17-   C16-   C15
  1638   1641   1644   1645      9     0.00   0.66944   3 ;    C16-   C15-   C14-   H4R
  1638   1641   1644   1646      9     0.00   0.66944   3 ;    C16-   C15-   C14-   H4S
  1638   1641   1644   1647      9     0.00   0.41840   1 ;    C16-   C15-   C14-   C13
  1638   1641   1644   1647      9     0.00   0.41840   2 ;    C16-   C15-   C14-   C13
  1638   1641   1644   1647      9     0.00   0.41840   4 ;    C16-   C15-   C14-   C13
  1638   1641   1644   1647      9     0.00   0.41840   5 ;    C16-   C15-   C14-   C13
  1638   1641   1644   1647      9     0.00   1.25520   3 ;    C16-   C15-   C14-   C13
  1639   1638   1641   1642      9     0.00   0.62760   3 ;    H6R-   C16-   C15-   H5R
  1639   1638   1641   1643      9     0.00   0.62760   3 ;    H6R-   C16-   C15-   H5S
  1639   1638   1641   1644      9     0.00   0.66944   3 ;    H6R-   C16-   C15-   C14
  1640   1638   1641   1642      9     0.00   0.62760   3 ;    H6S-   C16-   C15-   H5R
  1640   1638   1641   1643      9     0.00   0.62760   3 ;    H6S-   C16-   C15-   H5S
  1640   1638   1641   1644      9     0.00   0.66944   3 ;    H6S-   C16-   C15-   C14
  1641   1644   1647   1648      9     0.00   0.66944   3 ;    C15-   C14-   C13-   H3R
  1641   1644   1647   1649      9     0.00   0.66944   3 ;    C15-   C14-   C13-   H3S
  1641   1644   1647   1650      9     0.00   0.41840   1 ;    C15-   C14-   C13-   C12
  1641   1644   1647   1650      9     0.00   0.41840   2 ;    C15-   C14-   C13-   C12
  1641   1644   1647   1650      9     0.00   0.41840   4 ;    C15-   C14-   C13-   C12
  1641   1644   1647   1650      9     0.00   0.41840   5 ;    C15-   C14-   C13-   C12
  1641   1644   1647   1650      9     0.00   1.25520   3 ;    C15-   C14-   C13-   C12
  1642   1641   1644   1645      9     0.00   0.62760   3 ;    H5R-   C15-   C14-   H4R
  1642   1641   1644   1646      9     0.00   0.62760   3 ;    H5R-   C15-   C14-   H4S
  1642   1641   1644   1647      9     0.00   0.66944   3 ;    H5R-   C15-   C14-   C13
  1643   1641   1644   1645      9     0.00   0.62760   3 ;    H5S-   C15-   C14-   H4R
  1643   1641   1644   1646      9     0.00   0.62760   3 ;    H5S-   C15-   C14-   H4S
  1643   1641   1644   1647      9     0.00   0.66944   3 ;    H5S-   C15-   C14-   C13
  1644   1647   1650   1651      9     0.00   0.66944   3 ;    C14-   C13-   C12-   H2R
  1644   1647   1650   1652      9     0.00   0.66944   3 ;    C14-   C13-   C12-   H2S
  1645   1644   1647   1648      9     0.00   0.62760   3 ;    H4R-   C14-   C13-   H3R
  1645   1644   1647   1649      9     0.00   0.62760   3 ;    H4R-   C14-   C13-   H3S
  1645   1644   1647   1650      9     0.00   0.66944   3 ;    H4R-   C14-   C13-   C12
  1646   1644   1647   1648      9     0.00   0.62760   3 ;    H4S-   C14-   C13-   H3R
  1646   1644   1647   1649      9     0.00   0.62760   3 ;    H4S-   C14-   C13-   H3S
  1646   1644   1647   1650      9     0.00   0.66944   3 ;    H4S-   C14-   C13-   C12
  1648   1647   1650   1651      9     0.00   0.62760   3 ;    H3R-   C13-   C12-   H2R
  1648   1647   1650   1652      9     0.00   0.62760   3 ;    H3R-   C13-   C12-   H2S
  1649   1647   1650   1651      9     0.00   0.62760   3 ;    H3S-   C13-   C12-   H2R
  1649   1647   1650   1652      9     0.00   0.62760   3 ;    H3S-   C13-   C12-   H2S
  1653   1654   1657   1658      9     0.00   0.62760   3 ;   H14T-  C114-  C113-  H13R
  1653   1654   1657   1659      9     0.00   0.62760   3 ;   H14T-  C114-  C113-  H13S
  1653   1654   1657   1660      9     0.00   0.66944   3 ;   H14T-  C114-  C113-  C112
  1654   1657   1660   1661      9     0.00   0.66944   3 ;   C114-  C113-  C112-  H12R
  1654   1657   1660   1662      9     0.00   0.66944   3 ;   C114-  C113-  C112-  H12S
  1654   1657   1660   1663      9     0.00   0.41840   1 ;   C114-  C113-  C112-  C111
  1654   1657   1660   1663      9     0.00   0.41840   2 ;   C114-  C113-  C112-  C111
  1654   1657   1660   1663      9     0.00   0.41840   4 ;   C114-  C113-  C112-  C111
  1654   1657   1660   1663      9     0.00   0.41840   5 ;   C114-  C113-  C112-  C111
  1654   1657   1660   1663      9     0.00   1.25520   3 ;   C114-  C113-  C112-  C111
  1655   1654   1657   1658      9     0.00   0.62760   3 ;   H14R-  C114-  C113-  H13R
  1655   1654   1657   1659      9     0.00   0.62760   3 ;   H14R-  C114-  C113-  H13S
  1655   1654   1657   1660      9     0.00   0.66944   3 ;   H14R-  C114-  C113-  C112
  1656   1654   1657   1658      9     0.00   0.62760   3 ;   H14S-  C114-  C113-  H13R
  1656   1654   1657   1659      9     0.00   0.62760   3 ;   H14S-  C114-  C113-  H13S
  1656   1654   1657   1660      9     0.00   0.66944   3 ;   H14S-  C114-  C113-  C112
  1657   1660   1663   1664      9     0.00   0.66944   3 ;   C113-  C112-  C111-  H11R
  1657   1660   1663   1665      9     0.00   0.66944   3 ;   C113-  C112-  C111-  H11S
  1657   1660   1663   1666      9     0.00   0.41840   1 ;   C113-  C112-  C111-  C110
  1657   1660   1663   1666      9     0.00   0.41840   2 ;   C113-  C112-  C111-  C110
  1657   1660   1663   1666      9     0.00   0.41840   4 ;   C113-  C112-  C111-  C110
  1657   1660   1663   1666      9     0.00   0.41840   5 ;   C113-  C112-  C111-  C110
  1657   1660   1663   1666      9     0.00   1.25520   3 ;   C113-  C112-  C111-  C110
  1658   1657   1660   1661      9     0.00   0.62760   3 ;   H13R-  C113-  C112-  H12R
  1658   1657   1660   1662      9     0.00   0.62760   3 ;   H13R-  C113-  C112-  H12S
  1658   1657   1660   1663      9     0.00   0.66944   3 ;   H13R-  C113-  C112-  C111
  1659   1657   1660   1661      9     0.00   0.62760   3 ;   H13S-  C113-  C112-  H12R
  1659   1657   1660   1662      9     0.00   0.62760   3 ;   H13S-  C113-  C112-  H12S
  1659   1657   1660   1663      9     0.00   0.66944   3 ;   H13S-  C113-  C112-  C111
  1660   1663   1666   1667      9     0.00   0.66944   3 ;   C112-  C111-  C110-  H10R
  1660   1663   1666   1668      9     0.00   0.66944   3 ;   C112-  C111-  C110-  H10S
  1660   1663   1666   1669      9     0.00   0.41840   1 ;   C112-  C111-  C110-   C19
  1660   1663   1666   1669      9     0.00   0.41840   2 ;   C112-  C111-  C110-   C19
  1660   1663   1666   1669      9     0.00   0.41840   4 ;   C112-  C111-  C110-   C19
  1660   1663   1666   1669      9     0.00   0.41840   5 ;   C112-  C111-  C110-   C19
  1660   1663   1666   1669      9     0.00   1.25520   3 ;   C112-  C111-  C110-   C19
  1661   1660   1663   1664      9     0.00   0.62760   3 ;   H12R-  C112-  C111-  H11R
  1661   1660   1663   1665      9     0.00   0.62760   3 ;   H12R-  C112-  C111-  H11S
  1661   1660   1663   1666      9     0.00   0.66944   3 ;   H12R-  C112-  C111-  C110
  1662   1660   1663   1664      9     0.00   0.62760   3 ;   H12S-  C112-  C111-  H11R
  1662   1660   1663   1665      9     0.00   0.62760   3 ;   H12S-  C112-  C111-  H11S
  1662   1660   1663   1666      9     0.00   0.66944   3 ;   H12S-  C112-  C111-  C110
  1663   1666   1669   1670      9     0.00   0.66944   3 ;   C111-  C110-   C19-   H9R
  1663   1666   1669   1671      9     0.00   0.66944   3 ;   C111-  C110-   C19-   H9S
  1663   1666   1669   1672      9     0.00   0.41840   1 ;   C111-  C110-   C19-   C18
  1663   1666   1669   1672      9     0.00   0.41840   2 ;   C111-  C110-   C19-   C18
  1663   1666   1669   1672      9     0.00   0.41840   4 ;   C111-  C110-   C19-   C18
  1663   1666   1669   1672      9     0.00   0.41840   5 ;   C111-  C110-   C19-   C18
  1663   1666   1669   1672      9     0.00   1.25520   3 ;   C111-  C110-   C19-   C18
  1664   1663   1666   1667      9     0.00   0.62760   3 ;   H11R-  C111-  C110-  H10R
  1664   1663   1666   1668      9     0.00   0.62760   3 ;   H11R-  C111-  C110-  H10S
  1664   1663   1666   1669      9     0.00   0.66944   3 ;   H11R-  C111-  C110-   C19
  1665   1663   1666   1667      9     0.00   0.62760   3 ;   H11S-  C111-  C110-  H10R
  1665   1663   1666   1668      9     0.00   0.62760   3 ;   H11S-  C111-  C110-  H10S
  1665   1663   1666   1669      9     0.00   0.66944   3 ;   H11S-  C111-  C110-   C19
  1666   1669   1672   1673      9     0.00   0.66944   3 ;   C110-   C19-   C18-   H8R
  1666   1669   1672   1674      9     0.00   0.66944   3 ;   C110-   C19-   C18-   H8S
  1666   1669   1672   1675      9     0.00   0.41840   1 ;   C110-   C19-   C18-   C17
  1666   1669   1672   1675      9     0.00   0.41840   2 ;   C110-   C19-   C18-   C17
  1666   1669   1672   1675      9     0.00   0.41840   4 ;   C110-   C19-   C18-   C17
  1666   1669   1672   1675      9     0.00   0.41840   5 ;   C110-   C19-   C18-   C17
  1666   1669   1672   1675      9     0.00   1.25520   3 ;   C110-   C19-   C18-   C17
  1667   1666   1669   1670      9     0.00   0.62760   3 ;   H10R-  C110-   C19-   H9R
  1667   1666   1669   1671      9     0.00   0.62760   3 ;   H10R-  C110-   C19-   H9S
  1667   1666   1669   1672      9     0.00   0.66944   3 ;   H10R-  C110-   C19-   C18
  1668   1666   1669   1670      9     0.00   0.62760   3 ;   H10S-  C110-   C19-   H9R
  1668   1666   1669   1671      9     0.00   0.62760   3 ;   H10S-  C110-   C19-   H9S
  1668   1666   1669   1672      9     0.00   0.66944   3 ;   H10S-  C110-   C19-   C18
  1669   1672   1675   1676      9     0.00   0.66944   3 ;    C19-   C18-   C17-   H7R
  1669   1672   1675   1677      9     0.00   0.66944   3 ;    C19-   C18-   C17-   H7S
  1669   1672   1675   1678      9     0.00   0.41840   1 ;    C19-   C18-   C17-   C16
  1669   1672   1675   1678      9     0.00   0.41840   2 ;    C19-   C18-   C17-   C16
  1669   1672   1675   1678      9     0.00   0.41840   4 ;    C19-   C18-   C17-   C16
  1669   1672   1675   1678      9     0.00   0.41840   5 ;    C19-   C18-   C17-   C16
  1669   1672   1675   1678      9     0.00   1.25520   3 ;    C19-   C18-   C17-   C16
  1670   1669   1672   1673      9     0.00   0.62760   3 ;    H9R-   C19-   C18-   H8R
  1670   1669   1672   1674      9     0.00   0.62760   3 ;    H9R-   C19-   C18-   H8S
  1670   1669   1672   1675      9     0.00   0.66944   3 ;    H9R-   C19-   C18-   C17
  1671   1669   1672   1673      9     0.00   0.62760   3 ;    H9S-   C19-   C18-   H8R
  1671   1669   1672   1674      9     0.00   0.62760   3 ;    H9S-   C19-   C18-   H8S
  1671   1669   1672   1675      9     0.00   0.66944   3 ;    H9S-   C19-   C18-   C17
  1672   1675   1678   1679      9     0.00   0.66944   3 ;    C18-   C17-   C16-   H6R
  1672   1675   1678   1680      9     0.00   0.66944   3 ;    C18-   C17-   C16-   H6S
  1672   1675   1678   1681      9     0.00   0.41840   1 ;    C18-   C17-   C16-   C15
  1672   1675   1678   1681      9     0.00   0.41840   2 ;    C18-   C17-   C16-   C15
  1672   1675   1678   1681      9     0.00   0.41840   4 ;    C18-   C17-   C16-   C15
  1672   1675   1678   1681      9     0.00   0.41840   5 ;    C18-   C17-   C16-   C15
  1672   1675   1678   1681      9     0.00   1.25520   3 ;    C18-   C17-   C16-   C15
  1673   1672   1675   1676      9     0.00   0.62760   3 ;    H8R-   C18-   C17-   H7R
  1673   1672   1675   1677      9     0.00   0.62760   3 ;    H8R-   C18-   C17-   H7S
  1673   1672   1675   1678      9     0.00   0.66944   3 ;    H8R-   C18-   C17-   C16
  1674   1672   1675   1676      9     0.00   0.62760   3 ;    H8S-   C18-   C17-   H7R
  1674   1672   1675   1677      9     0.00   0.62760   3 ;    H8S-   C18-   C17-   H7S
  1674   1672   1675   1678      9     0.00   0.66944   3 ;    H8S-   C18-   C17-   C16
  1675   1678   1681   1682      9     0.00   0.66944   3 ;    C17-   C16-   C15-   H5R
  1675   1678   1681   1683      9     0.00   0.66944   3 ;    C17-   C16-   C15-   H5S
  1675   1678   1681   1684      9     0.00   0.41840   1 ;    C17-   C16-   C15-   C14
  1675   1678   1681   1684      9     0.00   0.41840   2 ;    C17-   C16-   C15-   C14
  1675   1678   1681   1684      9     0.00   0.41840   4 ;    C17-   C16-   C15-   C14
  1675   1678   1681   1684      9     0.00   0.41840   5 ;    C17-   C16-   C15-   C14
  1675   1678   1681   1684      9     0.00   1.25520   3 ;    C17-   C16-   C15-   C14
  1676   1675   1678   1679      9     0.00   0.62760   3 ;    H7R-   C17-   C16-   H6R
  1676   1675   1678   1680      9     0.00   0.62760   3 ;    H7R-   C17-   C16-   H6S
  1676   1675   1678   1681      9     0.00   0.66944   3 ;    H7R-   C17-   C16-   C15
  1677   1675   1678   1679      9     0.00   0.62760   3 ;    H7S-   C17-   C16-   H6R
  1677   1675   1678   1680      9     0.00   0.62760   3 ;    H7S-   C17-   C16-   H6S
  1677   1675   1678   1681      9     0.00   0.66944   3 ;    H7S-   C17-   C16-   C15
  1678   1681   1684   1685      9     0.00   0.66944   3 ;    C16-   C15-   C14-   H4R
  1678   1681   1684   1686      9     0.00   0.66944   3 ;    C16-   C15-   C14-   H4S
  1678   1681   1684   1687      9     0.00   0.41840   1 ;    C16-   C15-   C14-   C13
  1678   1681   1684   1687      9     0.00   0.41840   2 ;    C16-   C15-   C14-   C13
  1678   1681   1684   1687      9     0.00   0.41840   4 ;    C16-   C15-   C14-   C13
  1678   1681   1684   1687      9     0.00   0.41840   5 ;    C16-   C15-   C14-   C13
  1678   1681   1684   1687      9     0.00   1.25520   3 ;    C16-   C15-   C14-   C13
  1679   1678   1681   1682      9     0.00   0.62760   3 ;    H6R-   C16-   C15-   H5R
  1679   1678   1681   1683      9     0.00   0.62760   3 ;    H6R-   C16-   C15-   H5S
  1679   1678   1681   1684      9     0.00   0.66944   3 ;    H6R-   C16-   C15-   C14
  1680   1678   1681   1682      9     0.00   0.62760   3 ;    H6S-   C16-   C15-   H5R
  1680   1678   1681   1683      9     0.00   0.62760   3 ;    H6S-   C16-   C15-   H5S
  1680   1678   1681   1684      9     0.00   0.66944   3 ;    H6S-   C16-   C15-   C14
  1681   1684   1687   1688      9     0.00   0.66944   3 ;    C15-   C14-   C13-   H3R
  1681   1684   1687   1689      9     0.00   0.66944   3 ;    C15-   C14-   C13-   H3S
  1681   1684   1687   1690      9     0.00   0.41840   1 ;    C15-   C14-   C13-   C12
  1681   1684   1687   1690      9     0.00   0.41840   2 ;    C15-   C14-   C13-   C12
  1681   1684   1687   1690      9     0.00   0.41840   4 ;    C15-   C14-   C13-   C12
  1681   1684   1687   1690      9     0.00   0.41840   5 ;    C15-   C14-   C13-   C12
  1681   1684   1687   1690      9     0.00   1.25520   3 ;    C15-   C14-   C13-   C12
  1682   1681   1684   1685      9     0.00   0.62760   3 ;    H5R-   C15-   C14-   H4R
  1682   1681   1684   1686      9     0.00   0.62760   3 ;    H5R-   C15-   C14-   H4S
  1682   1681   1684   1687      9     0.00   0.66944   3 ;    H5R-   C15-   C14-   C13
  1683   1681   1684   1685      9     0.00   0.62760   3 ;    H5S-   C15-   C14-   H4R
  1683   1681   1684   1686      9     0.00   0.62760   3 ;    H5S-   C15-   C14-   H4S
  1683   1681   1684   1687      9     0.00   0.66944   3 ;    H5S-   C15-   C14-   C13
  1684   1687   1690   1691      9     0.00   0.66944   3 ;    C14-   C13-   C12-   H2R
  1684   1687   1690   1692      9     0.00   0.66944   3 ;    C14-   C13-   C12-   H2S
  1684   1687   1690   1693      9     0.00   0.65270   3 ;    C14-   C13-   C12-   C11
  1685   1684   1687   1688      9     0.00   0.62760   3 ;    H4R-   C14-   C13-   H3R
  1685   1684   1687   1689      9     0.00   0.62760   3 ;    H4R-   C14-   C13-   H3S
  1685   1684   1687   1690      9     0.00   0.66944   3 ;    H4R-   C14-   C13-   C12
  1686   1684   1687   1688      9     0.00   0.62760   3 ;    H4S-   C14-   C13-   H3R
  1686   1684   1687   1689      9     0.00   0.62760   3 ;    H4S-   C14-   C13-   H3S
  1686   1684   1687   1690      9     0.00   0.66944   3 ;    H4S-   C14-   C13-   C12
  1687   1690   1693   1694      9   180.00   0.00000   2 ;    C13-   C12-   C11-   O12
  1687   1690   1693   1695      9   180.00   0.00000   2 ;    C13-   C12-   C11-   O11
  1688   1687   1690   1691      9     0.00   0.62760   3 ;    H3R-   C13-   C12-   H2R
  1688   1687   1690   1692      9     0.00   0.62760   3 ;    H3R-   C13-   C12-   H2S
  1688   1687   1690   1693      9     0.00   0.65270   3 ;    H3R-   C13-   C12-   C11
  1689   1687   1690   1691      9     0.00   0.62760   3 ;    H3S-   C13-   C12-   H2R
  1689   1687   1690   1692      9     0.00   0.62760   3 ;    H3S-   C13-   C12-   H2S
  1689   1687   1690   1693      9     0.00   0.65270   3 ;    H3S-   C13-   C12-   C11
  1690   1693   1695   1696      9   180.00  11.29680   2 ;    C12-   C11-   O11-    C1
  1691   1690   1693   1694      9     0.00   3.34720   1 ;    H2R-   C12-   C11-   O12
  1691   1690   1693   1694      9   180.00   0.33472   3 ;    H2R-   C12-   C11-   O12
  1691   1690   1693   1695      9   180.00   0.00000   2 ;    H2R-   C12-   C11-   O11
  1692   1690   1693   1694      9     0.00   3.34720   1 ;    H2S-   C12-   C11-   O12
  1692   1690   1693   1694      9   180.00   0.33472   3 ;    H2S-   C12-   C11-   O12
  1692   1690   1693   1695      9   180.00   0.00000   2 ;    H2S-   C12-   C11-   O11
  1693   1695   1696   1697      9     0.00   1.60247   3 ;    C11-   O11-    C1-    HR
  1693   1695   1696   1698      9     0.00   1.60247   3 ;    C11-   O11-    C1-    HS
  1693   1695   1696   1699      9     0.00  -0.41840   1 ;    C11-   O11-    C1-    C2
  1694   1693   1695   1696      9   180.00   5.85760   1 ;    O12-   C11-   O11-    C1
  1694   1693   1695   1696      9   180.00  11.29680   2 ;    O12-   C11-   O11-    C1
  1695   1696   1699   1700      9     0.00   0.00000   0 ;    O11-    C1-    C2-    HX
  1695   1696   1699   1700      9     0.00   1.04600   1 ;    O11-    C1-    C2-    HX
  1695   1696   1699   1701      9     0.00   0.00000   0 ;    O11-    C1-    C2-    C3
  1695   1696   1699   1701      9     0.00   0.00000   0 ;    O11-    C1-    C2-    C3
  1695   1696   1699   1701      9     0.00   0.00000   0 ;    O11-    C1-    C2-    C3
  1695   1696   1699   1701      9     0.00   0.00000   0 ;    O11-    C1-    C2-    C3
  1695   1696   1699   1701      9     0.00   0.00000   0 ;    O11-    C1-    C2-    C3
  1695   1696   1699   1728      9     0.00   1.25520   2 ;    O11-    C1-    C2-   O21
  1695   1696   1699   1728      9     0.00   4.18400   3 ;    O11-    C1-    C2-   O21
  1695   1696   1699   1728      9   180.00  -0.41840   1 ;    O11-    C1-    C2-   O21
  1696   1699   1701   1702      9     0.00   0.65270   3 ;     C1-    C2-    C3-    HA
  1696   1699   1701   1703      9     0.00   0.65270   3 ;     C1-    C2-    C3-    HB
  1696   1699   1701   1704      9   180.00   3.34720   1 ;     C1-    C2-    C3-   O31
  1696   1699   1728   1729      9     0.00  -0.41840   1 ;     C1-    C2-   O21-   C21
  1697   1696   1699   1700      9     0.00   0.65270   3 ;     HR-    C1-    C2-    HX
  1697   1696   1699   1701      9     0.00   0.65270   3 ;     HR-    C1-    C2-    C3
  1697   1696   1699   1728      9     0.00   0.00000   0 ;     HR-    C1-    C2-   O21
  1697   1696   1699   1728      9     0.00   1.04600   1 ;     HR-    C1-    C2-   O21
  1698   1696   1699   1700      9     0.00   0.65270   3 ;     HS-    C1-    C2-    HX
  1698   1696   1699   1701      9     0.00   0.65270   3 ;     HS-    C1-    C2-    C3
  1698   1696   1699   1728      9     0.00   0.00000   0 ;     HS-    C1-    C2-   O21
  1698   1696   1699   1728      9     0.00   1.04600   1 ;     HS-    C1-    C2-   O21
  1699   1701   1704   1705      9     0.00   0.00000   0 ;     C2-    C3-   O31-   P31
  1699   1701   1704   1705      9   180.00  -3.34720   2 ;     C2-    C3-   O31-   P31
  1699   1728   1729   1730      9   180.00   5.85760   1 ;     C2-   O21-   C21-   O22
  1699   1728   1729   1730      9   180.00  11.29680   2 ;     C2-   O21-   C21-   O22
  1699   1728   1729   1768      9   180.00  11.29680   2 ;     C2-   O21-   C21-   C12
  1700   1699   1701   1702      9     0.00   0.65270   3 ;     HX-    C2-    C3-    HA
  1700   1699   1701   1703      9     0.00   0.65270   3 ;     HX-    C2-    C3-    HB
  1700   1699   1701   1704      9     0.00   0.00000   0 ;     HX-    C2-    C3-   O31
  1700   1699   1701   1704      9     0.00   1.04600   1 ;     HX-    C2-    C3-   O31
  1700   1699   1728   1729      9     0.00   1.60247   3 ;     HX-    C2-   O21-   C21
  1701   1699   1728   1729      9     0.00  -0.41840   1 ;     C3-    C2-   O21-   C21
  1701   1704   1705   1706      9     0.00   2.51040   3 ;     C3-   O31-   P31-   O32
  1701   1704   1705   1706      9     0.00   9.62320   2 ;     C3-   O31-   P31-   O32
  1701   1704   1705   1726      9     0.00   0.00000   0 ;     C3-   O31-   P31-   O33
  1701   1704   1705   1726      9     0.00   0.00000   0 ;     C3-   O31-   P31-   O33
  1701   1704   1705   1726      9     0.00   0.00000   0 ;     C3-   O31-   P31-   O33
  1701   1704   1705   1726      9     0.00   0.00000   0 ;     C3-   O31-   P31-   O33
  1701   1704   1705   1726      9     0.00   0.83680   2 ;     C3-   O31-   P31-   O33
  1701   1704   1705   1727      9     0.00   0.00000   0 ;     C3-   O31-   P31-   O34
  1701   1704   1705   1727      9     0.00   0.00000   0 ;     C3-   O31-   P31-   O34
  1701   1704   1705   1727      9     0.00   0.00000   0 ;     C3-   O31-   P31-   O34
  1701   1704   1705   1727      9     0.00   0.00000   0 ;     C3-   O31-   P31-   O34
  1701   1704   1705   1727      9     0.00   0.83680   2 ;     C3-   O31-   P31-   O34
  1702   1701   1699   1728      9     0.00   0.00000   0 ;     HA-    C3-    C2-   O21
  1702   1701   1699   1728      9     0.00   1.04600   1 ;     HA-    C3-    C2-   O21
  1702   1701   1704   1705      9     0.00   0.00000   0 ;     HA-    C3-   O31-   P31
  1702   1701   1704   1705      9     0.00   0.00000   0 ;     HA-    C3-   O31-   P31
  1702   1701   1704   1705      9     0.00   0.00000   0 ;     HA-    C3-   O31-   P31
  1702   1701   1704   1705      9     0.00   0.00000   0 ;     HA-    C3-   O31-   P31
  1702   1701   1704   1705      9     0.00   1.60247   3 ;     HA-    C3-   O31-   P31
  1703   1701   1699   1728      9     0.00   0.00000   0 ;     HB-    C3-    C2-   O21
  1703   1701   1699   1728      9     0.00   1.04600   1 ;     HB-    C3-    C2-   O21
  1703   1701   1704   1705      9     0.00   0.00000   0 ;     HB-    C3-   O31-   P31
  1703   1701   1704   1705      9     0.00   0.00000   0 ;     HB-    C3-   O31-   P31
  1703   1701   1704   1705      9     0.00   0.00000   0 ;     HB-    C3-   O31-   P31
  1703   1701   1704   1705      9     0.00   0.00000   0 ;     HB-    C3-   O31-   P31
  1703   1701   1704   1705      9     0.00   1.60247   3 ;     HB-    C3-   O31-   P31
  1704   1701   1699   1728      9     0.00   0.00000   0 ;    O31-    C3-    C2-   O21
  1704   1701   1699   1728      9     0.00   0.00000   0 ;    O31-    C3-    C2-   O21
  1704   1701   1699   1728      9     0.00   0.00000   0 ;    O31-    C3-    C2-   O21
  1704   1701   1699   1728      9     0.00   0.00000   0 ;    O31-    C3-    C2-   O21
  1704   1701   1699   1728      9     0.00   0.00000   0 ;    O31-    C3-    C2-   O21
  1704   1705   1706   1707      9     0.00   2.51040   3 ;    O31-   P31-   O32-   C31
  1704   1705   1706   1707      9     0.00   9.62320   2 ;    O31-   P31-   O32-   C31
  1705   1706   1707   1708      9     0.00   0.00000   0 ;    P31-   O32-   C31-   H1A
  1705   1706   1707   1708      9     0.00   0.00000   0 ;    P31-   O32-   C31-   H1A
  1705   1706   1707   1708      9     0.00   0.00000   0 ;    P31-   O32-   C31-   H1A
  1705   1706   1707   1708      9     0.00   0.00000   0 ;    P31-   O32-   C31-   H1A
  1705   1706   1707   1708      9     0.00   1.60247   3 ;    P31-   O32-   C31-   H1A
  1705   1706   1707   1709      9     0.00   0.00000   0 ;    P31-   O32-   C31-   H1B
  1705   1706   1707   1709      9     0.00   0.00000   0 ;    P31-   O32-   C31-   H1B
  1705   1706   1707   1709      9     0.00   0.00000   0 ;    P31-   O32-   C31-   H1B
  1705   1706   1707   1709      9     0.00   0.00000   0 ;    P31-   O32-   C31-   H1B
  1705   1706   1707   1709      9     0.00   1.60247   3 ;    P31-   O32-   C31-   H1B
  1705   1706   1707   1710      9     0.00   0.00000   0 ;    P31-   O32-   C31-   C32
  1705   1706   1707   1710      9   180.00  -3.34720   2 ;    P31-   O32-   C31-   C32
  1706   1707   1710   1711      9     0.00   0.65270   3 ;    O32-   C31-   C32-   H2A
  1706   1707   1710   1712      9     0.00   0.65270   3 ;    O32-   C31-   C32-   H2B
  1706   1707   1710   1713      9     0.00   4.18400   3 ;    O32-   C31-   C32-   N31
  1707   1706   1705   1726      9     0.00   0.00000   0 ;    C31-   O32-   P31-   O33
  1707   1706   1705   1726      9     0.00   0.00000   0 ;    C31-   O32-   P31-   O33
  1707   1706   1705   1726      9     0.00   0.00000   0 ;    C31-   O32-   P31-   O33
  1707   1706   1705   1726      9     0.00   0.00000   0 ;    C31-   O32-   P31-   O33
  1707   1706   1705   1726      9     0.00   0.83680   2 ;    C31-   O32-   P31-   O33
  1707   1706   1705   1727      9     0.00   0.00000   0 ;    C31-   O32-   P31-   O34
  1707   1706   1705   1727      9     0.00   0.00000   0 ;    C31-   O32-   P31-   O34
  1707   1706   1705   1727      9     0.00   0.00000   0 ;    C31-   O32-   P31-   O34
  1707   1706   1705   1727      9     0.00   0.00000   0 ;    C31-   O32-   P31-   O34
  1707   1706   1705   1727      9     0.00   0.83680   2 ;    C31-   O32-   P31-   O34
  1707   1710   1713   1714      9     0.00   0.65270   3 ;    C31-   C32-   N31-   C33
  1707   1710   1713   1718      9     0.00   0.65270   3 ;    C31-   C32-   N31-   C34
  1707   1710   1713   1722      9     0.00   0.65270   3 ;    C31-   C32-   N31-   C35
  1708   1707   1710   1711      9     0.00   0.65270   3 ;    H1A-   C31-   C32-   H2A
  1708   1707   1710   1712      9     0.00   0.65270   3 ;    H1A-   C31-   C32-   H2B
  1708   1707   1710   1713      9     0.00   0.65270   3 ;    H1A-   C31-   C32-   N31
  1709   1707   1710   1711      9     0.00   0.65270   3 ;    H1B-   C31-   C32-   H2A
  1709   1707   1710   1712      9     0.00   0.65270   3 ;    H1B-   C31-   C32-   H2B
  1709   1707   1710   1713      9     0.00   0.65270   3 ;    H1B-   C31-   C32-   N31
  1710   1713   1714   1715      9     0.00   0.65270   3 ;    C32-   N31-   C33-   H3A
  1710   1713   1714   1716      9     0.00   0.65270   3 ;    C32-   N31-   C33-   H3B
  1710   1713   1714   1717      9     0.00   0.65270   3 ;    C32-   N31-   C33-   H3C
  1710   1713   1718   1719      9     0.00   0.65270   3 ;    C32-   N31-   C34-   H4A
  1710   1713   1718   1720      9     0.00   0.65270   3 ;    C32-   N31-   C34-   H4B
  1710   1713   1718   1721      9     0.00   0.65270   3 ;    C32-   N31-   C34-   H4C
  1710   1713   1722   1723      9     0.00   0.65270   3 ;    C32-   N31-   C35-   H5A
  1710   1713   1722   1724      9     0.00   0.65270   3 ;    C32-   N31-   C35-   H5B
  1710   1713   1722   1725      9     0.00   0.65270   3 ;    C32-   N31-   C35-   H5C
  1711   1710   1713   1714      9     0.00   0.65270   3 ;    H2A-   C32-   N31-   C33
  1711   1710   1713   1718      9     0.00   0.65270   3 ;    H2A-   C32-   N31-   C34
  1711   1710   1713   1722      9     0.00   0.65270   3 ;    H2A-   C32-   N31-   C35
  1712   1710   1713   1714      9     0.00   0.65270   3 ;    H2B-   C32-   N31-   C33
  1712   1710   1713   1718      9     0.00   0.65270   3 ;    H2B-   C32-   N31-   C34
  1712   1710   1713   1722      9     0.00   0.65270   3 ;    H2B-   C32-   N31-   C35
  1714   1713   1718   1719      9     0.00   0.65270   3 ;    C33-   N31-   C34-   H4A
  1714   1713   1718   1720      9     0.00   0.65270   3 ;    C33-   N31-   C34-   H4B
  1714   1713   1718   1721      9     0.00   0.65270   3 ;    C33-   N31-   C34-   H4C
  1714   1713   1722   1723      9     0.00   0.65270   3 ;    C33-   N31-   C35-   H5A
  1714   1713   1722   1724      9     0.00   0.65270   3 ;    C33-   N31-   C35-   H5B
  1714   1713   1722   1725      9     0.00   0.65270   3 ;    C33-   N31-   C35-   H5C
  1715   1714   1713   1718      9     0.00   0.65270   3 ;    H3A-   C33-   N31-   C34
  1715   1714   1713   1722      9     0.00   0.65270   3 ;    H3A-   C33-   N31-   C35
  1716   1714   1713   1718      9     0.00   0.65270   3 ;    H3B-   C33-   N31-   C34
  1716   1714   1713   1722      9     0.00   0.65270   3 ;    H3B-   C33-   N31-   C35
  1717   1714   1713   1718      9     0.00   0.65270   3 ;    H3C-   C33-   N31-   C34
  1717   1714   1713   1722      9     0.00   0.65270   3 ;    H3C-   C33-   N31-   C35
  1718   1713   1722   1723      9     0.00   0.65270   3 ;    C34-   N31-   C35-   H5A
  1718   1713   1722   1724      9     0.00   0.65270   3 ;    C34-   N31-   C35-   H5B
  1718   1713   1722   1725      9     0.00   0.65270   3 ;    C34-   N31-   C35-   H5C
  1719   1718   1713   1722      9     0.00   0.65270   3 ;    H4A-   C34-   N31-   C35
  1720   1718   1713   1722      9     0.00   0.65270   3 ;    H4B-   C34-   N31-   C35
  1721   1718   1713   1722      9     0.00   0.65270   3 ;    H4C-   C34-   N31-   C35
  1728   1729   1768   1765      9   180.00   0.00000   2 ;    O21-   C21-   C12-   C13
  1728   1729   1768   1769      9   180.00   0.00000   2 ;    O21-   C21-   C12-   H2R
  1728   1729   1768   1770      9   180.00   0.00000   2 ;    O21-   C21-   C12-   H2S
  1729   1768   1765   1762      9     0.00   0.65270   3 ;    C21-   C12-   C13-   C14
  1729   1768   1765   1766      9     0.00   0.65270   3 ;    C21-   C12-   C13-   H3R
  1729   1768   1765   1767      9     0.00   0.65270   3 ;    C21-   C12-   C13-   H3S
  1730   1729   1768   1765      9   180.00   0.00000   2 ;    O22-   C21-   C12-   C13
  1730   1729   1768   1769      9     0.00   3.34720   1 ;    O22-   C21-   C12-   H2R
  1730   1729   1768   1769      9   180.00   0.33472   3 ;    O22-   C21-   C12-   H2R
  1730   1729   1768   1770      9     0.00   3.34720   1 ;    O22-   C21-   C12-   H2S
  1730   1729   1768   1770      9   180.00   0.33472   3 ;    O22-   C21-   C12-   H2S
  1731   1732   1735   1736      9     0.00   0.62760   3 ;   H14T-  C114-  C113-  H13R
  1731   1732   1735   1737      9     0.00   0.62760   3 ;   H14T-  C114-  C113-  H13S
  1731   1732   1735   1738      9     0.00   0.66944   3 ;   H14T-  C114-  C113-  C112
  1732   1735   1738   1739      9     0.00   0.66944   3 ;   C114-  C113-  C112-  H12R
  1732   1735   1738   1740      9     0.00   0.66944   3 ;   C114-  C113-  C112-  H12S
  1732   1735   1738   1741      9     0.00   0.41840   1 ;   C114-  C113-  C112-  C111
  1732   1735   1738   1741      9     0.00   0.41840   2 ;   C114-  C113-  C112-  C111
  1732   1735   1738   1741      9     0.00   0.41840   4 ;   C114-  C113-  C112-  C111
  1732   1735   1738   1741      9     0.00   0.41840   5 ;   C114-  C113-  C112-  C111
  1732   1735   1738   1741      9     0.00   1.25520   3 ;   C114-  C113-  C112-  C111
  1733   1732   1735   1736      9     0.00   0.62760   3 ;   H14R-  C114-  C113-  H13R
  1733   1732   1735   1737      9     0.00   0.62760   3 ;   H14R-  C114-  C113-  H13S
  1733   1732   1735   1738      9     0.00   0.66944   3 ;   H14R-  C114-  C113-  C112
  1734   1732   1735   1736      9     0.00   0.62760   3 ;   H14S-  C114-  C113-  H13R
  1734   1732   1735   1737      9     0.00   0.62760   3 ;   H14S-  C114-  C113-  H13S
  1734   1732   1735   1738      9     0.00   0.66944   3 ;   H14S-  C114-  C113-  C112
  1735   1738   1741   1742      9     0.00   0.66944   3 ;   C113-  C112-  C111-  H11R
  1735   1738   1741   1743      9     0.00   0.66944   3 ;   C113-  C112-  C111-  H11S
  1735   1738   1741   1744      9     0.00   0.41840   1 ;   C113-  C112-  C111-  C110
  1735   1738   1741   1744      9     0.00   0.41840   2 ;   C113-  C112-  C111-  C110
  1735   1738   1741   1744      9     0.00   0.41840   4 ;   C113-  C112-  C111-  C110
  1735   1738   1741   1744      9     0.00   0.41840   5 ;   C113-  C112-  C111-  C110
  1735   1738   1741   1744      9     0.00   1.25520   3 ;   C113-  C112-  C111-  C110
  1736   1735   1738   1739      9     0.00   0.62760   3 ;   H13R-  C113-  C112-  H12R
  1736   1735   1738   1740      9     0.00   0.62760   3 ;   H13R-  C113-  C112-  H12S
  1736   1735   1738   1741      9     0.00   0.66944   3 ;   H13R-  C113-  C112-  C111
  1737   1735   1738   1739      9     0.00   0.62760   3 ;   H13S-  C113-  C112-  H12R
  1737   1735   1738   1740      9     0.00   0.62760   3 ;   H13S-  C113-  C112-  H12S
  1737   1735   1738   1741      9     0.00   0.66944   3 ;   H13S-  C113-  C112-  C111
  1738   1741   1744   1745      9     0.00   0.66944   3 ;   C112-  C111-  C110-  H10R
  1738   1741   1744   1746      9     0.00   0.66944   3 ;   C112-  C111-  C110-  H10S
  1738   1741   1744   1747      9     0.00   0.41840   1 ;   C112-  C111-  C110-   C19
  1738   1741   1744   1747      9     0.00   0.41840   2 ;   C112-  C111-  C110-   C19
  1738   1741   1744   1747      9     0.00   0.41840   4 ;   C112-  C111-  C110-   C19
  1738   1741   1744   1747      9     0.00   0.41840   5 ;   C112-  C111-  C110-   C19
  1738   1741   1744   1747      9     0.00   1.25520   3 ;   C112-  C111-  C110-   C19
  1739   1738   1741   1742      9     0.00   0.62760   3 ;   H12R-  C112-  C111-  H11R
  1739   1738   1741   1743      9     0.00   0.62760   3 ;   H12R-  C112-  C111-  H11S
  1739   1738   1741   1744      9     0.00   0.66944   3 ;   H12R-  C112-  C111-  C110
  1740   1738   1741   1742      9     0.00   0.62760   3 ;   H12S-  C112-  C111-  H11R
  1740   1738   1741   1743      9     0.00   0.62760   3 ;   H12S-  C112-  C111-  H11S
  1740   1738   1741   1744      9     0.00   0.66944   3 ;   H12S-  C112-  C111-  C110
  1741   1744   1747   1748      9     0.00   0.66944   3 ;   C111-  C110-   C19-   H9R
  1741   1744   1747   1749      9     0.00   0.66944   3 ;   C111-  C110-   C19-   H9S
  1741   1744   1747   1750      9     0.00   0.41840   1 ;   C111-  C110-   C19-   C18
  1741   1744   1747   1750      9     0.00   0.41840   2 ;   C111-  C110-   C19-   C18
  1741   1744   1747   1750      9     0.00   0.41840   4 ;   C111-  C110-   C19-   C18
  1741   1744   1747   1750      9     0.00   0.41840   5 ;   C111-  C110-   C19-   C18
  1741   1744   1747   1750      9     0.00   1.25520   3 ;   C111-  C110-   C19-   C18
  1742   1741   1744   1745      9     0.00   0.62760   3 ;   H11R-  C111-  C110-  H10R
  1742   1741   1744   1746      9     0.00   0.62760   3 ;   H11R-  C111-  C110-  H10S
  1742   1741   1744   1747      9     0.00   0.66944   3 ;   H11R-  C111-  C110-   C19
  1743   1741   1744   1745      9     0.00   0.62760   3 ;   H11S-  C111-  C110-  H10R
  1743   1741   1744   1746      9     0.00   0.62760   3 ;   H11S-  C111-  C110-  H10S
  1743   1741   1744   1747      9     0.00   0.66944   3 ;   H11S-  C111-  C110-   C19
  1744   1747   1750   1751      9     0.00   0.66944   3 ;   C110-   C19-   C18-   H8R
  1744   1747   1750   1752      9     0.00   0.66944   3 ;   C110-   C19-   C18-   H8S
  1744   1747   1750   1753      9     0.00   0.41840   1 ;   C110-   C19-   C18-   C17
  1744   1747   1750   1753      9     0.00   0.41840   2 ;   C110-   C19-   C18-   C17
  1744   1747   1750   1753      9     0.00   0.41840   4 ;   C110-   C19-   C18-   C17
  1744   1747   1750   1753      9     0.00   0.41840   5 ;   C110-   C19-   C18-   C17
  1744   1747   1750   1753      9     0.00   1.25520   3 ;   C110-   C19-   C18-   C17
  1745   1744   1747   1748      9     0.00   0.62760   3 ;   H10R-  C110-   C19-   H9R
  1745   1744   1747   1749      9     0.00   0.62760   3 ;   H10R-  C110-   C19-   H9S
  1745   1744   1747   1750      9     0.00   0.66944   3 ;   H10R-  C110-   C19-   C18
  1746   1744   1747   1748      9     0.00   0.62760   3 ;   H10S-  C110-   C19-   H9R
  1746   1744   1747   1749      9     0.00   0.62760   3 ;   H10S-  C110-   C19-   H9S
  1746   1744   1747   1750      9     0.00   0.66944   3 ;   H10S-  C110-   C19-   C18
  1747   1750   1753   1754      9     0.00   0.66944   3 ;    C19-   C18-   C17-   H7R
  1747   1750   1753   1755      9     0.00   0.66944   3 ;    C19-   C18-   C17-   H7S
  1747   1750   1753   1756      9     0.00   0.41840   1 ;    C19-   C18-   C17-   C16
  1747   1750   1753   1756      9     0.00   0.41840   2 ;    C19-   C18-   C17-   C16
  1747   1750   1753   1756      9     0.00   0.41840   4 ;    C19-   C18-   C17-   C16
  1747   1750   1753   1756      9     0.00   0.41840   5 ;    C19-   C18-   C17-   C16
  1747   1750   1753   1756      9     0.00   1.25520   3 ;    C19-   C18-   C17-   C16
  1748   1747   1750   1751      9     0.00   0.62760   3 ;    H9R-   C19-   C18-   H8R
  1748   1747   1750   1752      9     0.00   0.62760   3 ;    H9R-   C19-   C18-   H8S
  1748   1747   1750   1753      9     0.00   0.66944   3 ;    H9R-   C19-   C18-   C17
  1749   1747   1750   1751      9     0.00   0.62760   3 ;    H9S-   C19-   C18-   H8R
  1749   1747   1750   1752      9     0.00   0.62760   3 ;    H9S-   C19-   C18-   H8S
  1749   1747   1750   1753      9     0.00   0.66944   3 ;    H9S-   C19-   C18-   C17
  1750   1753   1756   1757      9     0.00   0.66944   3 ;    C18-   C17-   C16-   H6R
  1750   1753   1756   1758      9     0.00   0.66944   3 ;    C18-   C17-   C16-   H6S
  1750   1753   1756   1759      9     0.00   0.41840   1 ;    C18-   C17-   C16-   C15
  1750   1753   1756   1759      9     0.00   0.41840   2 ;    C18-   C17-   C16-   C15
  1750   1753   1756   1759      9     0.00   0.41840   4 ;    C18-   C17-   C16-   C15
  1750   1753   1756   1759      9     0.00   0.41840   5 ;    C18-   C17-   C16-   C15
  1750   1753   1756   1759      9     0.00   1.25520   3 ;    C18-   C17-   C16-   C15
  1751   1750   1753   1754      9     0.00   0.62760   3 ;    H8R-   C18-   C17-   H7R
  1751   1750   1753   1755      9     0.00   0.62760   3 ;    H8R-   C18-   C17-   H7S
  1751   1750   1753   1756      9     0.00   0.66944   3 ;    H8R-   C18-   C17-   C16
  1752   1750   1753   1754      9     0.00   0.62760   3 ;    H8S-   C18-   C17-   H7R
  1752   1750   1753   1755      9     0.00   0.62760   3 ;    H8S-   C18-   C17-   H7S
  1752   1750   1753   1756      9     0.00   0.66944   3 ;    H8S-   C18-   C17-   C16
  1753   1756   1759   1760      9     0.00   0.66944   3 ;    C17-   C16-   C15-   H5R
  1753   1756   1759   1761      9     0.00   0.66944   3 ;    C17-   C16-   C15-   H5S
  1753   1756   1759   1762      9     0.00   0.41840   1 ;    C17-   C16-   C15-   C14
  1753   1756   1759   1762      9     0.00   0.41840   2 ;    C17-   C16-   C15-   C14
  1753   1756   1759   1762      9     0.00   0.41840   4 ;    C17-   C16-   C15-   C14
  1753   1756   1759   1762      9     0.00   0.41840   5 ;    C17-   C16-   C15-   C14
  1753   1756   1759   1762      9     0.00   1.25520   3 ;    C17-   C16-   C15-   C14
  1754   1753   1756   1757      9     0.00   0.62760   3 ;    H7R-   C17-   C16-   H6R
  1754   1753   1756   1758      9     0.00   0.62760   3 ;    H7R-   C17-   C16-   H6S
  1754   1753   1756   1759      9     0.00   0.66944   3 ;    H7R-   C17-   C16-   C15
  1755   1753   1756   1757      9     0.00   0.62760   3 ;    H7S-   C17-   C16-   H6R
  1755   1753   1756   1758      9     0.00   0.62760   3 ;    H7S-   C17-   C16-   H6S
  1755   1753   1756   1759      9     0.00   0.66944   3 ;    H7S-   C17-   C16-   C15
  1756   1759   1762   1763      9     0.00   0.66944   3 ;    C16-   C15-   C14-   H4R
  1756   1759   1762   1764      9     0.00   0.66944   3 ;    C16-   C15-   C14-   H4S
  1756   1759   1762   1765      9     0.00   0.41840   1 ;    C16-   C15-   C14-   C13
  1756   1759   1762   1765      9     0.00   0.41840   2 ;    C16-   C15-   C14-   C13
  1756   1759   1762   1765      9     0.00   0.41840   4 ;    C16-   C15-   C14-   C13
  1756   1759   1762   1765      9     0.00   0.41840   5 ;    C16-   C15-   C14-   C13
  1756   1759   1762   1765      9     0.00   1.25520   3 ;    C16-   C15-   C14-   C13
  1757   1756   1759   1760      9     0.00   0.62760   3 ;    H6R-   C16-   C15-   H5R
  1757   1756   1759   1761      9     0.00   0.62760   3 ;    H6R-   C16-   C15-   H5S
  1757   1756   1759   1762      9     0.00   0.66944   3 ;    H6R-   C16-   C15-   C14
  1758   1756   1759   1760      9     0.00   0.62760   3 ;    H6S-   C16-   C15-   H5R
  1758   1756   1759   1761      9     0.00   0.62760   3 ;    H6S-   C16-   C15-   H5S
  1758   1756   1759   1762      9     0.00   0.66944   3 ;    H6S-   C16-   C15-   C14
  1759   1762   1765   1766      9     0.00   0.66944   3 ;    C15-   C14-   C13-   H3R
  1759   1762   1765   1767      9     0.00   0.66944   3 ;    C15-   C14-   C13-   H3S
  1759   1762   1765   1768      9     0.00   0.41840   1 ;    C15-   C14-   C13-   C12
  1759   1762   1765   1768      9     0.00   0.41840   2 ;    C15-   C14-   C13-   C12
  1759   1762   1765   1768      9     0.00   0.41840   4 ;    C15-   C14-   C13-   C12
  1759   1762   1765   1768      9     0.00   0.41840   5 ;    C15-   C14-   C13-   C12
  1759   1762   1765   1768      9     0.00   1.25520   3 ;    C15-   C14-   C13-   C12
  1760   1759   1762   1763      9     0.00   0.62760   3 ;    H5R-   C15-   C14-   H4R
  1760   1759   1762   1764      9     0.00   0.62760   3 ;    H5R-   C15-   C14-   H4S
  1760   1759   1762   1765      9     0.00   0.66944   3 ;    H5R-   C15-   C14-   C13
  1761   1759   1762   1763      9     0.00   0.62760   3 ;    H5S-   C15-   C14-   H4R
  1761   1759   1762   1764      9     0.00   0.62760   3 ;    H5S-   C15-   C14-   H4S
  1761   1759   1762   1765      9     0.00   0.66944   3 ;    H5S-   C15-   C14-   C13
  1762   1765   1768   1769      9     0.00   0.66944   3 ;    C14-   C13-   C12-   H2R
  1762   1765   1768   1770      9     0.00   0.66944   3 ;    C14-   C13-   C12-   H2S
  1763   1762   1765   1766      9     0.00   0.62760   3 ;    H4R-   C14-   C13-   H3R
  1763   1762   1765   1767      9     0.00   0.62760   3 ;    H4R-   C14-   C13-   H3S
  1763   1762   1765   1768      9     0.00   0.66944   3 ;    H4R-   C14-   C13-   C12
  1764   1762   1765   1766      9     0.00   0.62760   3 ;    H4S-   C14-   C13-   H3R
  1764   1762   1765   1767      9     0.00   0.62760   3 ;    H4S-   C14-   C13-   H3S
  1764   1762   1765   1768      9     0.00   0.66944   3 ;    H4S-   C14-   C13-   C12
  1766   1765   1768   1769      9     0.00   0.62760   3 ;    H3R-   C13-   C12-   H2R
  1766   1765   1768   1770      9     0.00   0.62760   3 ;    H3R-   C13-   C12-   H2S
  1767   1765   1768   1769      9     0.00   0.62760   3 ;    H3S-   C13-   C12-   H2R
  1767   1765   1768   1770      9     0.00   0.62760   3 ;    H3S-   C13-   C12-   H2S
  1771   1772   1775   1776      9     0.00   0.62760   3 ;   H14T-  C114-  C113-  H13R
  1771   1772   1775   1777      9     0.00   0.62760   3 ;   H14T-  C114-  C113-  H13S
  1771   1772   1775   1778      9     0.00   0.66944   3 ;   H14T-  C114-  C113-  C112
  1772   1775   1778   1779      9     0.00   0.66944   3 ;   C114-  C113-  C112-  H12R
  1772   1775   1778   1780      9     0.00   0.66944   3 ;   C114-  C113-  C112-  H12S
  1772   1775   1778   1781      9     0.00   0.41840   1 ;   C114-  C113-  C112-  C111
  1772   1775   1778   1781      9     0.00   0.41840   2 ;   C114-  C113-  C112-  C111
  1772   1775   1778   1781      9     0.00   0.41840   4 ;   C114-  C113-  C112-  C111
  1772   1775   1778   1781      9     0.00   0.41840   5 ;   C114-  C113-  C112-  C111
  1772   1775   1778   1781      9     0.00   1.25520   3 ;   C114-  C113-  C112-  C111
  1773   1772   1775   1776      9     0.00   0.62760   3 ;   H14R-  C114-  C113-  H13R
  1773   1772   1775   1777      9     0.00   0.62760   3 ;   H14R-  C114-  C113-  H13S
  1773   1772   1775   1778      9     0.00   0.66944   3 ;   H14R-  C114-  C113-  C112
  1774   1772   1775   1776      9     0.00   0.62760   3 ;   H14S-  C114-  C113-  H13R
  1774   1772   1775   1777      9     0.00   0.62760   3 ;   H14S-  C114-  C113-  H13S
  1774   1772   1775   1778      9     0.00   0.66944   3 ;   H14S-  C114-  C113-  C112
  1775   1778   1781   1782      9     0.00   0.66944   3 ;   C113-  C112-  C111-  H11R
  1775   1778   1781   1783      9     0.00   0.66944   3 ;   C113-  C112-  C111-  H11S
  1775   1778   1781   1784      9     0.00   0.41840   1 ;   C113-  C112-  C111-  C110
  1775   1778   1781   1784      9     0.00   0.41840   2 ;   C113-  C112-  C111-  C110
  1775   1778   1781   1784      9     0.00   0.41840   4 ;   C113-  C112-  C111-  C110
  1775   1778   1781   1784      9     0.00   0.41840   5 ;   C113-  C112-  C111-  C110
  1775   1778   1781   1784      9     0.00   1.25520   3 ;   C113-  C112-  C111-  C110
  1776   1775   1778   1779      9     0.00   0.62760   3 ;   H13R-  C113-  C112-  H12R
  1776   1775   1778   1780      9     0.00   0.62760   3 ;   H13R-  C113-  C112-  H12S
  1776   1775   1778   1781      9     0.00   0.66944   3 ;   H13R-  C113-  C112-  C111
  1777   1775   1778   1779      9     0.00   0.62760   3 ;   H13S-  C113-  C112-  H12R
  1777   1775   1778   1780      9     0.00   0.62760   3 ;   H13S-  C113-  C112-  H12S
  1777   1775   1778   1781      9     0.00   0.66944   3 ;   H13S-  C113-  C112-  C111
  1778   1781   1784   1785      9     0.00   0.66944   3 ;   C112-  C111-  C110-  H10R
  1778   1781   1784   1786      9     0.00   0.66944   3 ;   C112-  C111-  C110-  H10S
  1778   1781   1784   1787      9     0.00   0.41840   1 ;   C112-  C111-  C110-   C19
  1778   1781   1784   1787      9     0.00   0.41840   2 ;   C112-  C111-  C110-   C19
  1778   1781   1784   1787      9     0.00   0.41840   4 ;   C112-  C111-  C110-   C19
  1778   1781   1784   1787      9     0.00   0.41840   5 ;   C112-  C111-  C110-   C19
  1778   1781   1784   1787      9     0.00   1.25520   3 ;   C112-  C111-  C110-   C19
  1779   1778   1781   1782      9     0.00   0.62760   3 ;   H12R-  C112-  C111-  H11R
  1779   1778   1781   1783      9     0.00   0.62760   3 ;   H12R-  C112-  C111-  H11S
  1779   1778   1781   1784      9     0.00   0.66944   3 ;   H12R-  C112-  C111-  C110
  1780   1778   1781   1782      9     0.00   0.62760   3 ;   H12S-  C112-  C111-  H11R
  1780   1778   1781   1783      9     0.00   0.62760   3 ;   H12S-  C112-  C111-  H11S
  1780   1778   1781   1784      9     0.00   0.66944   3 ;   H12S-  C112-  C111-  C110
  1781   1784   1787   1788      9     0.00   0.66944   3 ;   C111-  C110-   C19-   H9R
  1781   1784   1787   1789      9     0.00   0.66944   3 ;   C111-  C110-   C19-   H9S
  1781   1784   1787   1790      9     0.00   0.41840   1 ;   C111-  C110-   C19-   C18
  1781   1784   1787   1790      9     0.00   0.41840   2 ;   C111-  C110-   C19-   C18
  1781   1784   1787   1790      9     0.00   0.41840   4 ;   C111-  C110-   C19-   C18
  1781   1784   1787   1790      9     0.00   0.41840   5 ;   C111-  C110-   C19-   C18
  1781   1784   1787   1790      9     0.00   1.25520   3 ;   C111-  C110-   C19-   C18
  1782   1781   1784   1785      9     0.00   0.62760   3 ;   H11R-  C111-  C110-  H10R
  1782   1781   1784   1786      9     0.00   0.62760   3 ;   H11R-  C111-  C110-  H10S
  1782   1781   1784   1787      9     0.00   0.66944   3 ;   H11R-  C111-  C110-   C19
  1783   1781   1784   1785      9     0.00   0.62760   3 ;   H11S-  C111-  C110-  H10R
  1783   1781   1784   1786      9     0.00   0.62760   3 ;   H11S-  C111-  C110-  H10S
  1783   1781   1784   1787      9     0.00   0.66944   3 ;   H11S-  C111-  C110-   C19
  1784   1787   1790   1791      9     0.00   0.66944   3 ;   C110-   C19-   C18-   H8R
  1784   1787   1790   1792      9     0.00   0.66944   3 ;   C110-   C19-   C18-   H8S
  1784   1787   1790   1793      9     0.00   0.41840   1 ;   C110-   C19-   C18-   C17
  1784   1787   1790   1793      9     0.00   0.41840   2 ;   C110-   C19-   C18-   C17
  1784   1787   1790   1793      9     0.00   0.41840   4 ;   C110-   C19-   C18-   C17
  1784   1787   1790   1793      9     0.00   0.41840   5 ;   C110-   C19-   C18-   C17
  1784   1787   1790   1793      9     0.00   1.25520   3 ;   C110-   C19-   C18-   C17
  1785   1784   1787   1788      9     0.00   0.62760   3 ;   H10R-  C110-   C19-   H9R
  1785   1784   1787   1789      9     0.00   0.62760   3 ;   H10R-  C110-   C19-   H9S
  1785   1784   1787   1790      9     0.00   0.66944   3 ;   H10R-  C110-   C19-   C18
  1786   1784   1787   1788      9     0.00   0.62760   3 ;   H10S-  C110-   C19-   H9R
  1786   1784   1787   1789      9     0.00   0.62760   3 ;   H10S-  C110-   C19-   H9S
  1786   1784   1787   1790      9     0.00   0.66944   3 ;   H10S-  C110-   C19-   C18
  1787   1790   1793   1794      9     0.00   0.66944   3 ;    C19-   C18-   C17-   H7R
  1787   1790   1793   1795      9     0.00   0.66944   3 ;    C19-   C18-   C17-   H7S
  1787   1790   1793   1796      9     0.00   0.41840   1 ;    C19-   C18-   C17-   C16
  1787   1790   1793   1796      9     0.00   0.41840   2 ;    C19-   C18-   C17-   C16
  1787   1790   1793   1796      9     0.00   0.41840   4 ;    C19-   C18-   C17-   C16
  1787   1790   1793   1796      9     0.00   0.41840   5 ;    C19-   C18-   C17-   C16
  1787   1790   1793   1796      9     0.00   1.25520   3 ;    C19-   C18-   C17-   C16
  1788   1787   1790   1791      9     0.00   0.62760   3 ;    H9R-   C19-   C18-   H8R
  1788   1787   1790   1792      9     0.00   0.62760   3 ;    H9R-   C19-   C18-   H8S
  1788   1787   1790   1793      9     0.00   0.66944   3 ;    H9R-   C19-   C18-   C17
  1789   1787   1790   1791      9     0.00   0.62760   3 ;    H9S-   C19-   C18-   H8R
  1789   1787   1790   1792      9     0.00   0.62760   3 ;    H9S-   C19-   C18-   H8S
  1789   1787   1790   1793      9     0.00   0.66944   3 ;    H9S-   C19-   C18-   C17
  1790   1793   1796   1797      9     0.00   0.66944   3 ;    C18-   C17-   C16-   H6R
  1790   1793   1796   1798      9     0.00   0.66944   3 ;    C18-   C17-   C16-   H6S
  1790   1793   1796   1799      9     0.00   0.41840   1 ;    C18-   C17-   C16-   C15
  1790   1793   1796   1799      9     0.00   0.41840   2 ;    C18-   C17-   C16-   C15
  1790   1793   1796   1799      9     0.00   0.41840   4 ;    C18-   C17-   C16-   C15
  1790   1793   1796   1799      9     0.00   0.41840   5 ;    C18-   C17-   C16-   C15
  1790   1793   1796   1799      9     0.00   1.25520   3 ;    C18-   C17-   C16-   C15
  1791   1790   1793   1794      9     0.00   0.62760   3 ;    H8R-   C18-   C17-   H7R
  1791   1790   1793   1795      9     0.00   0.62760   3 ;    H8R-   C18-   C17-   H7S
  1791   1790   1793   1796      9     0.00   0.66944   3 ;    H8R-   C18-   C17-   C16
  1792   1790   1793   1794      9     0.00   0.62760   3 ;    H8S-   C18-   C17-   H7R
  1792   1790   1793   1795      9     0.00   0.62760   3 ;    H8S-   C18-   C17-   H7S
  1792   1790   1793   1796      9     0.00   0.66944   3 ;    H8S-   C18-   C17-   C16
  1793   1796   1799   1800      9     0.00   0.66944   3 ;    C17-   C16-   C15-   H5R
  1793   1796   1799   1801      9     0.00   0.66944   3 ;    C17-   C16-   C15-   H5S
  1793   1796   1799   1802      9     0.00   0.41840   1 ;    C17-   C16-   C15-   C14
  1793   1796   1799   1802      9     0.00   0.41840   2 ;    C17-   C16-   C15-   C14
  1793   1796   1799   1802      9     0.00   0.41840   4 ;    C17-   C16-   C15-   C14
  1793   1796   1799   1802      9     0.00   0.41840   5 ;    C17-   C16-   C15-   C14
  1793   1796   1799   1802      9     0.00   1.25520   3 ;    C17-   C16-   C15-   C14
  1794   1793   1796   1797      9     0.00   0.62760   3 ;    H7R-   C17-   C16-   H6R
  1794   1793   1796   1798      9     0.00   0.62760   3 ;    H7R-   C17-   C16-   H6S
  1794   1793   1796   1799      9     0.00   0.66944   3 ;    H7R-   C17-   C16-   C15
  1795   1793   1796   1797      9     0.00   0.62760   3 ;    H7S-   C17-   C16-   H6R
  1795   1793   1796   1798      9     0.00   0.62760   3 ;    H7S-   C17-   C16-   H6S
  1795   1793   1796   1799      9     0.00   0.66944   3 ;    H7S-   C17-   C16-   C15
  1796   1799   1802   1803      9     0.00   0.66944   3 ;    C16-   C15-   C14-   H4R
  1796   1799   1802   1804      9     0.00   0.66944   3 ;    C16-   C15-   C14-   H4S
  1796   1799   1802   1805      9     0.00   0.41840   1 ;    C16-   C15-   C14-   C13
  1796   1799   1802   1805      9     0.00   0.41840   2 ;    C16-   C15-   C14-   C13
  1796   1799   1802   1805      9     0.00   0.41840   4 ;    C16-   C15-   C14-   C13
  1796   1799   1802   1805      9     0.00   0.41840   5 ;    C16-   C15-   C14-   C13
  1796   1799   1802   1805      9     0.00   1.25520   3 ;    C16-   C15-   C14-   C13
  1797   1796   1799   1800      9     0.00   0.62760   3 ;    H6R-   C16-   C15-   H5R
  1797   1796   1799   1801      9     0.00   0.62760   3 ;    H6R-   C16-   C15-   H5S
  1797   1796   1799   1802      9     0.00   0.66944   3 ;    H6R-   C16-   C15-   C14
  1798   1796   1799   1800      9     0.00   0.62760   3 ;    H6S-   C16-   C15-   H5R
  1798   1796   1799   1801      9     0.00   0.62760   3 ;    H6S-   C16-   C15-   H5S
  1798   1796   1799   1802      9     0.00   0.66944   3 ;    H6S-   C16-   C15-   C14
  1799   1802   1805   1806      9     0.00   0.66944   3 ;    C15-   C14-   C13-   H3R
  1799   1802   1805   1807      9     0.00   0.66944   3 ;    C15-   C14-   C13-   H3S
  1799   1802   1805   1808      9     0.00   0.41840   1 ;    C15-   C14-   C13-   C12
  1799   1802   1805   1808      9     0.00   0.41840   2 ;    C15-   C14-   C13-   C12
  1799   1802   1805   1808      9     0.00   0.41840   4 ;    C15-   C14-   C13-   C12
  1799   1802   1805   1808      9     0.00   0.41840   5 ;    C15-   C14-   C13-   C12
  1799   1802   1805   1808      9     0.00   1.25520   3 ;    C15-   C14-   C13-   C12
  1800   1799   1802   1803      9     0.00   0.62760   3 ;    H5R-   C15-   C14-   H4R
  1800   1799   1802   1804      9     0.00   0.62760   3 ;    H5R-   C15-   C14-   H4S
  1800   1799   1802   1805      9     0.00   0.66944   3 ;    H5R-   C15-   C14-   C13
  1801   1799   1802   1803      9     0.00   0.62760   3 ;    H5S-   C15-   C14-   H4R
  1801   1799   1802   1804      9     0.00   0.62760   3 ;    H5S-   C15-   C14-   H4S
  1801   1799   1802   1805      9     0.00   0.66944   3 ;    H5S-   C15-   C14-   C13
  1802   1805   1808   1809      9     0.00   0.66944   3 ;    C14-   C13-   C12-   H2R
  1802   1805   1808   1810      9     0.00   0.66944   3 ;    C14-   C13-   C12-   H2S
  1802   1805   1808   1811      9     0.00   0.65270   3 ;    C14-   C13-   C12-   C11
  1803   1802   1805   1806      9     0.00   0.62760   3 ;    H4R-   C14-   C13-   H3R
  1803   1802   1805   1807      9     0.00   0.62760   3 ;    H4R-   C14-   C13-   H3S
  1803   1802   1805   1808      9     0.00   0.66944   3 ;    H4R-   C14-   C13-   C12
  1804   1802   1805   1806      9     0.00   0.62760   3 ;    H4S-   C14-   C13-   H3R
  1804   1802   1805   1807      9     0.00   0.62760   3 ;    H4S-   C14-   C13-   H3S
  1804   1802   1805   1808      9     0.00   0.66944   3 ;    H4S-   C14-   C13-   C12
  1805   1808   1811   1812      9   180.00   0.00000   2 ;    C13-   C12-   C11-   O12
  1805   1808   1811   1813      9   180.00   0.00000   2 ;    C13-   C12-   C11-   O11
  1806   1805   1808   1809      9     0.00   0.62760   3 ;    H3R-   C13-   C12-   H2R
  1806   1805   1808   1810      9     0.00   0.62760   3 ;    H3R-   C13-   C12-   H2S
  1806   1805   1808   1811      9     0.00   0.65270   3 ;    H3R-   C13-   C12-   C11
  1807   1805   1808   1809      9     0.00   0.62760   3 ;    H3S-   C13-   C12-   H2R
  1807   1805   1808   1810      9     0.00   0.62760   3 ;    H3S-   C13-   C12-   H2S
  1807   1805   1808   1811      9     0.00   0.65270   3 ;    H3S-   C13-   C12-   C11
  1808   1811   1813   1814      9   180.00  11.29680   2 ;    C12-   C11-   O11-    C1
  1809   1808   1811   1812      9     0.00   3.34720   1 ;    H2R-   C12-   C11-   O12
  1809   1808   1811   1812      9   180.00   0.33472   3 ;    H2R-   C12-   C11-   O12
  1809   1808   1811   1813      9   180.00   0.00000   2 ;    H2R-   C12-   C11-   O11
  1810   1808   1811   1812      9     0.00   3.34720   1 ;    H2S-   C12-   C11-   O12
  1810   1808   1811   1812      9   180.00   0.33472   3 ;    H2S-   C12-   C11-   O12
  1810   1808   1811   1813      9   180.00   0.00000   2 ;    H2S-   C12-   C11-   O11
  1811   1813   1814   1815      9     0.00   1.60247   3 ;    C11-   O11-    C1-    HR
  1811   1813   1814   1816      9     0.00   1.60247   3 ;    C11-   O11-    C1-    HS
  1811   1813   1814   1817      9     0.00  -0.41840   1 ;    C11-   O11-    C1-    C2
  1812   1811   1813   1814      9   180.00   5.85760   1 ;    O12-   C11-   O11-    C1
  1812   1811   1813   1814      9   180.00  11.29680   2 ;    O12-   C11-   O11-    C1
  1813   1814   1817   1818      9     0.00   0.00000   0 ;    O11-    C1-    C2-    HX
  1813   1814   1817   1818      9     0.00   1.04600   1 ;    O11-    C1-    C2-    HX
  1813   1814   1817   1819      9     0.00   0.00000   0 ;    O11-    C1-    C2-    C3
  1813   1814   1817   1819      9     0.00   0.00000   0 ;    O11-    C1-    C2-    C3
  1813   1814   1817   1819      9     0.00   0.00000   0 ;    O11-    C1-    C2-    C3
  1813   1814   1817   1819      9     0.00   0.00000   0 ;    O11-    C1-    C2-    C3
  1813   1814   1817   1819      9     0.00   0.00000   0 ;    O11-    C1-    C2-    C3
  1813   1814   1817   1846      9     0.00   1.25520   2 ;    O11-    C1-    C2-   O21
  1813   1814   1817   1846      9     0.00   4.18400   3 ;    O11-    C1-    C2-   O21
  1813   1814   1817   1846      9   180.00  -0.41840   1 ;    O11-    C1-    C2-   O21
  1814   1817   1819   1820      9     0.00   0.65270   3 ;     C1-    C2-    C3-    HA
  1814   1817   1819   1821      9     0.00   0.65270   3 ;     C1-    C2-    C3-    HB
  1814   1817   1819   1822      9   180.00   3.34720   1 ;     C1-    C2-    C3-   O31
  1814   1817   1846   1847      9     0.00  -0.41840   1 ;     C1-    C2-   O21-   C21
  1815   1814   1817   1818      9     0.00   0.65270   3 ;     HR-    C1-    C2-    HX
  1815   1814   1817   1819      9     0.00   0.65270   3 ;     HR-    C1-    C2-    C3
  1815   1814   1817   1846      9     0.00   0.00000   0 ;     HR-    C1-    C2-   O21
  1815   1814   1817   1846      9     0.00   1.04600   1 ;     HR-    C1-    C2-   O21
  1816   1814   1817   1818      9     0.00   0.65270   3 ;     HS-    C1-    C2-    HX
  1816   1814   1817   1819      9     0.00   0.65270   3 ;     HS-    C1-    C2-    C3
  1816   1814   1817   1846      9     0.00   0.00000   0 ;     HS-    C1-    C2-   O21
  1816   1814   1817   1846      9     0.00   1.04600   1 ;     HS-    C1-    C2-   O21
  1817   1819   1822   1823      9     0.00   0.00000   0 ;     C2-    C3-   O31-   P31
  1817   1819   1822   1823      9   180.00  -3.34720   2 ;     C2-    C3-   O31-   P31
  1817   1846   1847   1848      9   180.00   5.85760   1 ;     C2-   O21-   C21-   O22
  1817   1846   1847   1848      9   180.00  11.29680   2 ;     C2-   O21-   C21-   O22
  1817   1846   1847   1886      9   180.00  11.29680   2 ;     C2-   O21-   C21-   C12
  1818   1817   1819   1820      9     0.00   0.65270   3 ;     HX-    C2-    C3-    HA
  1818   1817   1819   1821      9     0.00   0.65270   3 ;     HX-    C2-    C3-    HB
  1818   1817   1819   1822      9     0.00   0.00000   0 ;     HX-    C2-    C3-   O31
  1818   1817   1819   1822      9     0.00   1.04600   1 ;     HX-    C2-    C3-   O31
  1818   1817   1846   1847      9     0.00   1.60247   3 ;     HX-    C2-   O21-   C21
  1819   1817   1846   1847      9     0.00  -0.41840   1 ;     C3-    C2-   O21-   C21
  1819   1822   1823   1824      9     0.00   2.51040   3 ;     C3-   O31-   P31-   O32
  1819   1822   1823   1824      9     0.00   9.62320   2 ;     C3-   O31-   P31-   O32
  1819   1822   1823   1844      9     0.00   0.00000   0 ;     C3-   O31-   P31-   O33
  1819   1822   1823   1844      9     0.00   0.00000   0 ;     C3-   O31-   P31-   O33
  1819   1822   1823   1844      9     0.00   0.00000   0 ;     C3-   O31-   P31-   O33
  1819   1822   1823   1844      9     0.00   0.00000   0 ;     C3-   O31-   P31-   O33
  1819   1822   1823   1844      9     0.00   0.83680   2 ;     C3-   O31-   P31-   O33
  1819   1822   1823   1845      9     0.00   0.00000   0 ;     C3-   O31-   P31-   O34
  1819   1822   1823   1845      9     0.00   0.00000   0 ;     C3-   O31-   P31-   O34
  1819   1822   1823   1845      9     0.00   0.00000   0 ;     C3-   O31-   P31-   O34
  1819   1822   1823   1845      9     0.00   0.00000   0 ;     C3-   O31-   P31-   O34
  1819   1822   1823   1845      9     0.00   0.83680   2 ;     C3-   O31-   P31-   O34
  1820   1819   1817   1846      9     0.00   0.00000   0 ;     HA-    C3-    C2-   O21
  1820   1819   1817   1846      9     0.00   1.04600   1 ;     HA-    C3-    C2-   O21
  1820   1819   1822   1823      9     0.00   0.00000   0 ;     HA-    C3-   O31-   P31
  1820   1819   1822   1823      9     0.00   0.00000   0 ;     HA-    C3-   O31-   P31
  1820   1819   1822   1823      9     0.00   0.00000   0 ;     HA-    C3-   O31-   P31
  1820   1819   1822   1823      9     0.00   0.00000   0 ;     HA-    C3-   O31-   P31
  1820   1819   1822   1823      9     0.00   1.60247   3 ;     HA-    C3-   O31-   P31
  1821   1819   1817   1846      9     0.00   0.00000   0 ;     HB-    C3-    C2-   O21
  1821   1819   1817   1846      9     0.00   1.04600   1 ;     HB-    C3-    C2-   O21
  1821   1819   1822   1823      9     0.00   0.00000   0 ;     HB-    C3-   O31-   P31
  1821   1819   1822   1823      9     0.00   0.00000   0 ;     HB-    C3-   O31-   P31
  1821   1819   1822   1823      9     0.00   0.00000   0 ;     HB-    C3-   O31-   P31
  1821   1819   1822   1823      9     0.00   0.00000   0 ;     HB-    C3-   O31-   P31
  1821   1819   1822   1823      9     0.00   1.60247   3 ;     HB-    C3-   O31-   P31
  1822   1819   1817   1846      9     0.00   0.00000   0 ;    O31-    C3-    C2-   O21
  1822   1819   1817   1846      9     0.00   0.00000   0 ;    O31-    C3-    C2-   O21
  1822   1819   1817   1846      9     0.00   0.00000   0 ;    O31-    C3-    C2-   O21
  1822   1819   1817   1846      9     0.00   0.00000   0 ;    O31-    C3-    C2-   O21
  1822   1819   1817   1846      9     0.00   0.00000   0 ;    O31-    C3-    C2-   O21
  1822   1823   1824   1825      9     0.00   2.51040   3 ;    O31-   P31-   O32-   C31
  1822   1823   1824   1825      9     0.00   9.62320   2 ;    O31-   P31-   O32-   C31
  1823   1824   1825   1826      9     0.00   0.00000   0 ;    P31-   O32-   C31-   H1A
  1823   1824   1825   1826      9     0.00   0.00000   0 ;    P31-   O32-   C31-   H1A
  1823   1824   1825   1826      9     0.00   0.00000   0 ;    P31-   O32-   C31-   H1A
  1823   1824   1825   1826      9     0.00   0.00000   0 ;    P31-   O32-   C31-   H1A
  1823   1824   1825   1826      9     0.00   1.60247   3 ;    P31-   O32-   C31-   H1A
  1823   1824   1825   1827      9     0.00   0.00000   0 ;    P31-   O32-   C31-   H1B
  1823   1824   1825   1827      9     0.00   0.00000   0 ;    P31-   O32-   C31-   H1B
  1823   1824   1825   1827      9     0.00   0.00000   0 ;    P31-   O32-   C31-   H1B
  1823   1824   1825   1827      9     0.00   0.00000   0 ;    P31-   O32-   C31-   H1B
  1823   1824   1825   1827      9     0.00   1.60247   3 ;    P31-   O32-   C31-   H1B
  1823   1824   1825   1828      9     0.00   0.00000   0 ;    P31-   O32-   C31-   C32
  1823   1824   1825   1828      9   180.00  -3.34720   2 ;    P31-   O32-   C31-   C32
  1824   1825   1828   1829      9     0.00   0.65270   3 ;    O32-   C31-   C32-   H2A
  1824   1825   1828   1830      9     0.00   0.65270   3 ;    O32-   C31-   C32-   H2B
  1824   1825   1828   1831      9     0.00   4.18400   3 ;    O32-   C31-   C32-   N31
  1825   1824   1823   1844      9     0.00   0.00000   0 ;    C31-   O32-   P31-   O33
  1825   1824   1823   1844      9     0.00   0.00000   0 ;    C31-   O32-   P31-   O33
  1825   1824   1823   1844      9     0.00   0.00000   0 ;    C31-   O32-   P31-   O33
  1825   1824   1823   1844      9     0.00   0.00000   0 ;    C31-   O32-   P31-   O33
  1825   1824   1823   1844      9     0.00   0.83680   2 ;    C31-   O32-   P31-   O33
  1825   1824   1823   1845      9     0.00   0.00000   0 ;    C31-   O32-   P31-   O34
  1825   1824   1823   1845      9     0.00   0.00000   0 ;    C31-   O32-   P31-   O34
  1825   1824   1823   1845      9     0.00   0.00000   0 ;    C31-   O32-   P31-   O34
  1825   1824   1823   1845      9     0.00   0.00000   0 ;    C31-   O32-   P31-   O34
  1825   1824   1823   1845      9     0.00   0.83680   2 ;    C31-   O32-   P31-   O34
  1825   1828   1831   1832      9     0.00   0.65270   3 ;    C31-   C32-   N31-   C33
  1825   1828   1831   1836      9     0.00   0.65270   3 ;    C31-   C32-   N31-   C34
  1825   1828   1831   1840      9     0.00   0.65270   3 ;    C31-   C32-   N31-   C35
  1826   1825   1828   1829      9     0.00   0.65270   3 ;    H1A-   C31-   C32-   H2A
  1826   1825   1828   1830      9     0.00   0.65270   3 ;    H1A-   C31-   C32-   H2B
  1826   1825   1828   1831      9     0.00   0.65270   3 ;    H1A-   C31-   C32-   N31
  1827   1825   1828   1829      9     0.00   0.65270   3 ;    H1B-   C31-   C32-   H2A
  1827   1825   1828   1830      9     0.00   0.65270   3 ;    H1B-   C31-   C32-   H2B
  1827   1825   1828   1831      9     0.00   0.65270   3 ;    H1B-   C31-   C32-   N31
  1828   1831   1832   1833      9     0.00   0.65270   3 ;    C32-   N31-   C33-   H3A
  1828   1831   1832   1834      9     0.00   0.65270   3 ;    C32-   N31-   C33-   H3B
  1828   1831   1832   1835      9     0.00   0.65270   3 ;    C32-   N31-   C33-   H3C
  1828   1831   1836   1837      9     0.00   0.65270   3 ;    C32-   N31-   C34-   H4A
  1828   1831   1836   1838      9     0.00   0.65270   3 ;    C32-   N31-   C34-   H4B
  1828   1831   1836   1839      9     0.00   0.65270   3 ;    C32-   N31-   C34-   H4C
  1828   1831   1840   1841      9     0.00   0.65270   3 ;    C32-   N31-   C35-   H5A
  1828   1831   1840   1842      9     0.00   0.65270   3 ;    C32-   N31-   C35-   H5B
  1828   1831   1840   1843      9     0.00   0.65270   3 ;    C32-   N31-   C35-   H5C
  1829   1828   1831   1832      9     0.00   0.65270   3 ;    H2A-   C32-   N31-   C33
  1829   1828   1831   1836      9     0.00   0.65270   3 ;    H2A-   C32-   N31-   C34
  1829   1828   1831   1840      9     0.00   0.65270   3 ;    H2A-   C32-   N31-   C35
  1830   1828   1831   1832      9     0.00   0.65270   3 ;    H2B-   C32-   N31-   C33
  1830   1828   1831   1836      9     0.00   0.65270   3 ;    H2B-   C32-   N31-   C34
  1830   1828   1831   1840      9     0.00   0.65270   3 ;    H2B-   C32-   N31-   C35
  1832   1831   1836   1837      9     0.00   0.65270   3 ;    C33-   N31-   C34-   H4A
  1832   1831   1836   1838      9     0.00   0.65270   3 ;    C33-   N31-   C34-   H4B
  1832   1831   1836   1839      9     0.00   0.65270   3 ;    C33-   N31-   C34-   H4C
  1832   1831   1840   1841      9     0.00   0.65270   3 ;    C33-   N31-   C35-   H5A
  1832   1831   1840   1842      9     0.00   0.65270   3 ;    C33-   N31-   C35-   H5B
  1832   1831   1840   1843      9     0.00   0.65270   3 ;    C33-   N31-   C35-   H5C
  1833   1832   1831   1836      9     0.00   0.65270   3 ;    H3A-   C33-   N31-   C34
  1833   1832   1831   1840      9     0.00   0.65270   3 ;    H3A-   C33-   N31-   C35
  1834   1832   1831   1836      9     0.00   0.65270   3 ;    H3B-   C33-   N31-   C34
  1834   1832   1831   1840      9     0.00   0.65270   3 ;    H3B-   C33-   N31-   C35
  1835   1832   1831   1836      9     0.00   0.65270   3 ;    H3C-   C33-   N31-   C34
  1835   1832   1831   1840      9     0.00   0.65270   3 ;    H3C-   C33-   N31-   C35
  1836   1831   1840   1841      9     0.00   0.65270   3 ;    C34-   N31-   C35-   H5A
  1836   1831   1840   1842      9     0.00   0.65270   3 ;    C34-   N31-   C35-   H5B
  1836   1831   1840   1843      9     0.00   0.65270   3 ;    C34-   N31-   C35-   H5C
  1837   1836   1831   1840      9     0.00   0.65270   3 ;    H4A-   C34-   N31-   C35
  1838   1836   1831   1840      9     0.00   0.65270   3 ;    H4B-   C34-   N31-   C35
  1839   1836   1831   1840      9     0.00   0.65270   3 ;    H4C-   C34-   N31-   C35
  1846   1847   1886   1883      9   180.00   0.00000   2 ;    O21-   C21-   C12-   C13
  1846   1847   1886   1887      9   180.00   0.00000   2 ;    O21-   C21-   C12-   H2R
  1846   1847   1886   1888      9   180.00   0.00000   2 ;    O21-   C21-   C12-   H2S
  1847   1886   1883   1880      9     0.00   0.65270   3 ;    C21-   C12-   C13-   C14
  1847   1886   1883   1884      9     0.00   0.65270   3 ;    C21-   C12-   C13-   H3R
  1847   1886   1883   1885      9     0.00   0.65270   3 ;    C21-   C12-   C13-   H3S
  1848   1847   1886   1883      9   180.00   0.00000   2 ;    O22-   C21-   C12-   C13
  1848   1847   1886   1887      9     0.00   3.34720   1 ;    O22-   C21-   C12-   H2R
  1848   1847   1886   1887      9   180.00   0.33472   3 ;    O22-   C21-   C12-   H2R
  1848   1847   1886   1888      9     0.00   3.34720   1 ;    O22-   C21-   C12-   H2S
  1848   1847   1886   1888      9   180.00   0.33472   3 ;    O22-   C21-   C12-   H2S
  1849   1850   1853   1854      9     0.00   0.62760   3 ;   H14T-  C114-  C113-  H13R
  1849   1850   1853   1855      9     0.00   0.62760   3 ;   H14T-  C114-  C113-  H13S
  1849   1850   1853   1856      9     0.00   0.66944   3 ;   H14T-  C114-  C113-  C112
  1850   1853   1856   1857      9     0.00   0.66944   3 ;   C114-  C113-  C112-  H12R
  1850   1853   1856   1858      9     0.00   0.66944   3 ;   C114-  C113-  C112-  H12S
  1850   1853   1856   1859      9     0.00   0.41840   1 ;   C114-  C113-  C112-  C111
  1850   1853   1856   1859      9     0.00   0.41840   2 ;   C114-  C113-  C112-  C111
  1850   1853   1856   1859      9     0.00   0.41840   4 ;   C114-  C113-  C112-  C111
  1850   1853   1856   1859      9     0.00   0.41840   5 ;   C114-  C113-  C112-  C111
  1850   1853   1856   1859      9     0.00   1.25520   3 ;   C114-  C113-  C112-  C111
  1851   1850   1853   1854      9     0.00   0.62760   3 ;   H14R-  C114-  C113-  H13R
  1851   1850   1853   1855      9     0.00   0.62760   3 ;   H14R-  C114-  C113-  H13S
  1851   1850   1853   1856      9     0.00   0.66944   3 ;   H14R-  C114-  C113-  C112
  1852   1850   1853   1854      9     0.00   0.62760   3 ;   H14S-  C114-  C113-  H13R
  1852   1850   1853   1855      9     0.00   0.62760   3 ;   H14S-  C114-  C113-  H13S
  1852   1850   1853   1856      9     0.00   0.66944   3 ;   H14S-  C114-  C113-  C112
  1853   1856   1859   1860      9     0.00   0.66944   3 ;   C113-  C112-  C111-  H11R
  1853   1856   1859   1861      9     0.00   0.66944   3 ;   C113-  C112-  C111-  H11S
  1853   1856   1859   1862      9     0.00   0.41840   1 ;   C113-  C112-  C111-  C110
  1853   1856   1859   1862      9     0.00   0.41840   2 ;   C113-  C112-  C111-  C110
  1853   1856   1859   1862      9     0.00   0.41840   4 ;   C113-  C112-  C111-  C110
  1853   1856   1859   1862      9     0.00   0.41840   5 ;   C113-  C112-  C111-  C110
  1853   1856   1859   1862      9     0.00   1.25520   3 ;   C113-  C112-  C111-  C110
  1854   1853   1856   1857      9     0.00   0.62760   3 ;   H13R-  C113-  C112-  H12R
  1854   1853   1856   1858      9     0.00   0.62760   3 ;   H13R-  C113-  C112-  H12S
  1854   1853   1856   1859      9     0.00   0.66944   3 ;   H13R-  C113-  C112-  C111
  1855   1853   1856   1857      9     0.00   0.62760   3 ;   H13S-  C113-  C112-  H12R
  1855   1853   1856   1858      9     0.00   0.62760   3 ;   H13S-  C113-  C112-  H12S
  1855   1853   1856   1859      9     0.00   0.66944   3 ;   H13S-  C113-  C112-  C111
  1856   1859   1862   1863      9     0.00   0.66944   3 ;   C112-  C111-  C110-  H10R
  1856   1859   1862   1864      9     0.00   0.66944   3 ;   C112-  C111-  C110-  H10S
  1856   1859   1862   1865      9     0.00   0.41840   1 ;   C112-  C111-  C110-   C19
  1856   1859   1862   1865      9     0.00   0.41840   2 ;   C112-  C111-  C110-   C19
  1856   1859   1862   1865      9     0.00   0.41840   4 ;   C112-  C111-  C110-   C19
  1856   1859   1862   1865      9     0.00   0.41840   5 ;   C112-  C111-  C110-   C19
  1856   1859   1862   1865      9     0.00   1.25520   3 ;   C112-  C111-  C110-   C19
  1857   1856   1859   1860      9     0.00   0.62760   3 ;   H12R-  C112-  C111-  H11R
  1857   1856   1859   1861      9     0.00   0.62760   3 ;   H12R-  C112-  C111-  H11S
  1857   1856   1859   1862      9     0.00   0.66944   3 ;   H12R-  C112-  C111-  C110
  1858   1856   1859   1860      9     0.00   0.62760   3 ;   H12S-  C112-  C111-  H11R
  1858   1856   1859   1861      9     0.00   0.62760   3 ;   H12S-  C112-  C111-  H11S
  1858   1856   1859   1862      9     0.00   0.66944   3 ;   H12S-  C112-  C111-  C110
  1859   1862   1865   1866      9     0.00   0.66944   3 ;   C111-  C110-   C19-   H9R
  1859   1862   1865   1867      9     0.00   0.66944   3 ;   C111-  C110-   C19-   H9S
  1859   1862   1865   1868      9     0.00   0.41840   1 ;   C111-  C110-   C19-   C18
  1859   1862   1865   1868      9     0.00   0.41840   2 ;   C111-  C110-   C19-   C18
  1859   1862   1865   1868      9     0.00   0.41840   4 ;   C111-  C110-   C19-   C18
  1859   1862   1865   1868      9     0.00   0.41840   5 ;   C111-  C110-   C19-   C18
  1859   1862   1865   1868      9     0.00   1.25520   3 ;   C111-  C110-   C19-   C18
  1860   1859   1862   1863      9     0.00   0.62760   3 ;   H11R-  C111-  C110-  H10R
  1860   1859   1862   1864      9     0.00   0.62760   3 ;   H11R-  C111-  C110-  H10S
  1860   1859   1862   1865      9     0.00   0.66944   3 ;   H11R-  C111-  C110-   C19
  1861   1859   1862   1863      9     0.00   0.62760   3 ;   H11S-  C111-  C110-  H10R
  1861   1859   1862   1864      9     0.00   0.62760   3 ;   H11S-  C111-  C110-  H10S
  1861   1859   1862   1865      9     0.00   0.66944   3 ;   H11S-  C111-  C110-   C19
  1862   1865   1868   1869      9     0.00   0.66944   3 ;   C110-   C19-   C18-   H8R
  1862   1865   1868   1870      9     0.00   0.66944   3 ;   C110-   C19-   C18-   H8S
  1862   1865   1868   1871      9     0.00   0.41840   1 ;   C110-   C19-   C18-   C17
  1862   1865   1868   1871      9     0.00   0.41840   2 ;   C110-   C19-   C18-   C17
  1862   1865   1868   1871      9     0.00   0.41840   4 ;   C110-   C19-   C18-   C17
  1862   1865   1868   1871      9     0.00   0.41840   5 ;   C110-   C19-   C18-   C17
  1862   1865   1868   1871      9     0.00   1.25520   3 ;   C110-   C19-   C18-   C17
  1863   1862   1865   1866      9     0.00   0.62760   3 ;   H10R-  C110-   C19-   H9R
  1863   1862   1865   1867      9     0.00   0.62760   3 ;   H10R-  C110-   C19-   H9S
  1863   1862   1865   1868      9     0.00   0.66944   3 ;   H10R-  C110-   C19-   C18
  1864   1862   1865   1866      9     0.00   0.62760   3 ;   H10S-  C110-   C19-   H9R
  1864   1862   1865   1867      9     0.00   0.62760   3 ;   H10S-  C110-   C19-   H9S
  1864   1862   1865   1868      9     0.00   0.66944   3 ;   H10S-  C110-   C19-   C18
  1865   1868   1871   1872      9     0.00   0.66944   3 ;    C19-   C18-   C17-   H7R
  1865   1868   1871   1873      9     0.00   0.66944   3 ;    C19-   C18-   C17-   H7S
  1865   1868   1871   1874      9     0.00   0.41840   1 ;    C19-   C18-   C17-   C16
  1865   1868   1871   1874      9     0.00   0.41840   2 ;    C19-   C18-   C17-   C16
  1865   1868   1871   1874      9     0.00   0.41840   4 ;    C19-   C18-   C17-   C16
  1865   1868   1871   1874      9     0.00   0.41840   5 ;    C19-   C18-   C17-   C16
  1865   1868   1871   1874      9     0.00   1.25520   3 ;    C19-   C18-   C17-   C16
  1866   1865   1868   1869      9     0.00   0.62760   3 ;    H9R-   C19-   C18-   H8R
  1866   1865   1868   1870      9     0.00   0.62760   3 ;    H9R-   C19-   C18-   H8S
  1866   1865   1868   1871      9     0.00   0.66944   3 ;    H9R-   C19-   C18-   C17
  1867   1865   1868   1869      9     0.00   0.62760   3 ;    H9S-   C19-   C18-   H8R
  1867   1865   1868   1870      9     0.00   0.62760   3 ;    H9S-   C19-   C18-   H8S
  1867   1865   1868   1871      9     0.00   0.66944   3 ;    H9S-   C19-   C18-   C17
  1868   1871   1874   1875      9     0.00   0.66944   3 ;    C18-   C17-   C16-   H6R
  1868   1871   1874   1876      9     0.00   0.66944   3 ;    C18-   C17-   C16-   H6S
  1868   1871   1874   1877      9     0.00   0.41840   1 ;    C18-   C17-   C16-   C15
  1868   1871   1874   1877      9     0.00   0.41840   2 ;    C18-   C17-   C16-   C15
  1868   1871   1874   1877      9     0.00   0.41840   4 ;    C18-   C17-   C16-   C15
  1868   1871   1874   1877      9     0.00   0.41840   5 ;    C18-   C17-   C16-   C15
  1868   1871   1874   1877      9     0.00   1.25520   3 ;    C18-   C17-   C16-   C15
  1869   1868   1871   1872      9     0.00   0.62760   3 ;    H8R-   C18-   C17-   H7R
  1869   1868   1871   1873      9     0.00   0.62760   3 ;    H8R-   C18-   C17-   H7S
  1869   1868   1871   1874      9     0.00   0.66944   3 ;    H8R-   C18-   C17-   C16
  1870   1868   1871   1872      9     0.00   0.62760   3 ;    H8S-   C18-   C17-   H7R
  1870   1868   1871   1873      9     0.00   0.62760   3 ;    H8S-   C18-   C17-   H7S
  1870   1868   1871   1874      9     0.00   0.66944   3 ;    H8S-   C18-   C17-   C16
  1871   1874   1877   1878      9     0.00   0.66944   3 ;    C17-   C16-   C15-   H5R
  1871   1874   1877   1879      9     0.00   0.66944   3 ;    C17-   C16-   C15-   H5S
  1871   1874   1877   1880      9     0.00   0.41840   1 ;    C17-   C16-   C15-   C14
  1871   1874   1877   1880      9     0.00   0.41840   2 ;    C17-   C16-   C15-   C14
  1871   1874   1877   1880      9     0.00   0.41840   4 ;    C17-   C16-   C15-   C14
  1871   1874   1877   1880      9     0.00   0.41840   5 ;    C17-   C16-   C15-   C14
  1871   1874   1877   1880      9     0.00   1.25520   3 ;    C17-   C16-   C15-   C14
  1872   1871   1874   1875      9     0.00   0.62760   3 ;    H7R-   C17-   C16-   H6R
  1872   1871   1874   1876      9     0.00   0.62760   3 ;    H7R-   C17-   C16-   H6S
  1872   1871   1874   1877      9     0.00   0.66944   3 ;    H7R-   C17-   C16-   C15
  1873   1871   1874   1875      9     0.00   0.62760   3 ;    H7S-   C17-   C16-   H6R
  1873   1871   1874   1876      9     0.00   0.62760   3 ;    H7S-   C17-   C16-   H6S
  1873   1871   1874   1877      9     0.00   0.66944   3 ;    H7S-   C17-   C16-   C15
  1874   1877   1880   1881      9     0.00   0.66944   3 ;    C16-   C15-   C14-   H4R
  1874   1877   1880   1882      9     0.00   0.66944   3 ;    C16-   C15-   C14-   H4S
  1874   1877   1880   1883      9     0.00   0.41840   1 ;    C16-   C15-   C14-   C13
  1874   1877   1880   1883      9     0.00   0.41840   2 ;    C16-   C15-   C14-   C13
  1874   1877   1880   1883      9     0.00   0.41840   4 ;    C16-   C15-   C14-   C13
  1874   1877   1880   1883      9     0.00   0.41840   5 ;    C16-   C15-   C14-   C13
  1874   1877   1880   1883      9     0.00   1.25520   3 ;    C16-   C15-   C14-   C13
  1875   1874   1877   1878      9     0.00   0.62760   3 ;    H6R-   C16-   C15-   H5R
  1875   1874   1877   1879      9     0.00   0.62760   3 ;    H6R-   C16-   C15-   H5S
  1875   1874   1877   1880      9     0.00   0.66944   3 ;    H6R-   C16-   C15-   C14
  1876   1874   1877   1878      9     0.00   0.62760   3 ;    H6S-   C16-   C15-   H5R
  1876   1874   1877   1879      9     0.00   0.62760   3 ;    H6S-   C16-   C15-   H5S
  1876   1874   1877   1880      9     0.00   0.66944   3 ;    H6S-   C16-   C15-   C14
  1877   1880   1883   1884      9     0.00   0.66944   3 ;    C15-   C14-   C13-   H3R
  1877   1880   1883   1885      9     0.00   0.66944   3 ;    C15-   C14-   C13-   H3S
  1877   1880   1883   1886      9     0.00   0.41840   1 ;    C15-   C14-   C13-   C12
  1877   1880   1883   1886      9     0.00   0.41840   2 ;    C15-   C14-   C13-   C12
  1877   1880   1883   1886      9     0.00   0.41840   4 ;    C15-   C14-   C13-   C12
  1877   1880   1883   1886      9     0.00   0.41840   5 ;    C15-   C14-   C13-   C12
  1877   1880   1883   1886      9     0.00   1.25520   3 ;    C15-   C14-   C13-   C12
  1878   1877   1880   1881      9     0.00   0.62760   3 ;    H5R-   C15-   C14-   H4R
  1878   1877   1880   1882      9     0.00   0.62760   3 ;    H5R-   C15-   C14-   H4S
  1878   1877   1880   1883      9     0.00   0.66944   3 ;    H5R-   C15-   C14-   C13
  1879   1877   1880   1881      9     0.00   0.62760   3 ;    H5S-   C15-   C14-   H4R
  1879   1877   1880   1882      9     0.00   0.62760   3 ;    H5S-   C15-   C14-   H4S
  1879   1877   1880   1883      9     0.00   0.66944   3 ;    H5S-   C15-   C14-   C13
  1880   1883   1886   1887      9     0.00   0.66944   3 ;    C14-   C13-   C12-   H2R
  1880   1883   1886   1888      9     0.00   0.66944   3 ;    C14-   C13-   C12-   H2S
  1881   1880   1883   1884      9     0.00   0.62760   3 ;    H4R-   C14-   C13-   H3R
  1881   1880   1883   1885      9     0.00   0.62760   3 ;    H4R-   C14-   C13-   H3S
  1881   1880   1883   1886      9     0.00   0.66944   3 ;    H4R-   C14-   C13-   C12
  1882   1880   1883   1884      9     0.00   0.62760   3 ;    H4S-   C14-   C13-   H3R
  1882   1880   1883   1885      9     0.00   0.62760   3 ;    H4S-   C14-   C13-   H3S
  1882   1880   1883   1886      9     0.00   0.66944   3 ;    H4S-   C14-   C13-   C12
  1884   1883   1886   1887      9     0.00   0.62760   3 ;    H3R-   C13-   C12-   H2R
  1884   1883   1886   1888      9     0.00   0.62760   3 ;    H3R-   C13-   C12-   H2S
  1885   1883   1886   1887      9     0.00   0.62760   3 ;    H3S-   C13-   C12-   H2R
  1885   1883   1886   1888      9     0.00   0.62760   3 ;    H3S-   C13-   C12-   H2S
  1889   1890   1893   1894      9     0.00   0.62760   3 ;   H14T-  C114-  C113-  H13R
  1889   1890   1893   1895      9     0.00   0.62760   3 ;   H14T-  C114-  C113-  H13S
  1889   1890   1893   1896      9     0.00   0.66944   3 ;   H14T-  C114-  C113-  C112
  1890   1893   1896   1897      9     0.00   0.66944   3 ;   C114-  C113-  C112-  H12R
  1890   1893   1896   1898      9     0.00   0.66944   3 ;   C114-  C113-  C112-  H12S
  1890   1893   1896   1899      9     0.00   0.41840   1 ;   C114-  C113-  C112-  C111
  1890   1893   1896   1899      9     0.00   0.41840   2 ;   C114-  C113-  C112-  C111
  1890   1893   1896   1899      9     0.00   0.41840   4 ;   C114-  C113-  C112-  C111
  1890   1893   1896   1899      9     0.00   0.41840   5 ;   C114-  C113-  C112-  C111
  1890   1893   1896   1899      9     0.00   1.25520   3 ;   C114-  C113-  C112-  C111
  1891   1890   1893   1894      9     0.00   0.62760   3 ;   H14R-  C114-  C113-  H13R
  1891   1890   1893   1895      9     0.00   0.62760   3 ;   H14R-  C114-  C113-  H13S
  1891   1890   1893   1896      9     0.00   0.66944   3 ;   H14R-  C114-  C113-  C112
  1892   1890   1893   1894      9     0.00   0.62760   3 ;   H14S-  C114-  C113-  H13R
  1892   1890   1893   1895      9     0.00   0.62760   3 ;   H14S-  C114-  C113-  H13S
  1892   1890   1893   1896      9     0.00   0.66944   3 ;   H14S-  C114-  C113-  C112
  1893   1896   1899   1900      9     0.00   0.66944   3 ;   C113-  C112-  C111-  H11R
  1893   1896   1899   1901      9     0.00   0.66944   3 ;   C113-  C112-  C111-  H11S
  1893   1896   1899   1902      9     0.00   0.41840   1 ;   C113-  C112-  C111-  C110
  1893   1896   1899   1902      9     0.00   0.41840   2 ;   C113-  C112-  C111-  C110
  1893   1896   1899   1902      9     0.00   0.41840   4 ;   C113-  C112-  C111-  C110
  1893   1896   1899   1902      9     0.00   0.41840   5 ;   C113-  C112-  C111-  C110
  1893   1896   1899   1902      9     0.00   1.25520   3 ;   C113-  C112-  C111-  C110
  1894   1893   1896   1897      9     0.00   0.62760   3 ;   H13R-  C113-  C112-  H12R
  1894   1893   1896   1898      9     0.00   0.62760   3 ;   H13R-  C113-  C112-  H12S
  1894   1893   1896   1899      9     0.00   0.66944   3 ;   H13R-  C113-  C112-  C111
  1895   1893   1896   1897      9     0.00   0.62760   3 ;   H13S-  C113-  C112-  H12R
  1895   1893   1896   1898      9     0.00   0.62760   3 ;   H13S-  C113-  C112-  H12S
  1895   1893   1896   1899      9     0.00   0.66944   3 ;   H13S-  C113-  C112-  C111
  1896   1899   1902   1903      9     0.00   0.66944   3 ;   C112-  C111-  C110-  H10R
  1896   1899   1902   1904      9     0.00   0.66944   3 ;   C112-  C111-  C110-  H10S
  1896   1899   1902   1905      9     0.00   0.41840   1 ;   C112-  C111-  C110-   C19
  1896   1899   1902   1905      9     0.00   0.41840   2 ;   C112-  C111-  C110-   C19
  1896   1899   1902   1905      9     0.00   0.41840   4 ;   C112-  C111-  C110-   C19
  1896   1899   1902   1905      9     0.00   0.41840   5 ;   C112-  C111-  C110-   C19
  1896   1899   1902   1905      9     0.00   1.25520   3 ;   C112-  C111-  C110-   C19
  1897   1896   1899   1900      9     0.00   0.62760   3 ;   H12R-  C112-  C111-  H11R
  1897   1896   1899   1901      9     0.00   0.62760   3 ;   H12R-  C112-  C111-  H11S
  1897   1896   1899   1902      9     0.00   0.66944   3 ;   H12R-  C112-  C111-  C110
  1898   1896   1899   1900      9     0.00   0.62760   3 ;   H12S-  C112-  C111-  H11R
  1898   1896   1899   1901      9     0.00   0.62760   3 ;   H12S-  C112-  C111-  H11S
  1898   1896   1899   1902      9     0.00   0.66944   3 ;   H12S-  C112-  C111-  C110
  1899   1902   1905   1906      9     0.00   0.66944   3 ;   C111-  C110-   C19-   H9R
  1899   1902   1905   1907      9     0.00   0.66944   3 ;   C111-  C110-   C19-   H9S
  1899   1902   1905   1908      9     0.00   0.41840   1 ;   C111-  C110-   C19-   C18
  1899   1902   1905   1908      9     0.00   0.41840   2 ;   C111-  C110-   C19-   C18
  1899   1902   1905   1908      9     0.00   0.41840   4 ;   C111-  C110-   C19-   C18
  1899   1902   1905   1908      9     0.00   0.41840   5 ;   C111-  C110-   C19-   C18
  1899   1902   1905   1908      9     0.00   1.25520   3 ;   C111-  C110-   C19-   C18
  1900   1899   1902   1903      9     0.00   0.62760   3 ;   H11R-  C111-  C110-  H10R
  1900   1899   1902   1904      9     0.00   0.62760   3 ;   H11R-  C111-  C110-  H10S
  1900   1899   1902   1905      9     0.00   0.66944   3 ;   H11R-  C111-  C110-   C19
  1901   1899   1902   1903      9     0.00   0.62760   3 ;   H11S-  C111-  C110-  H10R
  1901   1899   1902   1904      9     0.00   0.62760   3 ;   H11S-  C111-  C110-  H10S
  1901   1899   1902   1905      9     0.00   0.66944   3 ;   H11S-  C111-  C110-   C19
  1902   1905   1908   1909      9     0.00   0.66944   3 ;   C110-   C19-   C18-   H8R
  1902   1905   1908   1910      9     0.00   0.66944   3 ;   C110-   C19-   C18-   H8S
  1902   1905   1908   1911      9     0.00   0.41840   1 ;   C110-   C19-   C18-   C17
  1902   1905   1908   1911      9     0.00   0.41840   2 ;   C110-   C19-   C18-   C17
  1902   1905   1908   1911      9     0.00   0.41840   4 ;   C110-   C19-   C18-   C17
  1902   1905   1908   1911      9     0.00   0.41840   5 ;   C110-   C19-   C18-   C17
  1902   1905   1908   1911      9     0.00   1.25520   3 ;   C110-   C19-   C18-   C17
  1903   1902   1905   1906      9     0.00   0.62760   3 ;   H10R-  C110-   C19-   H9R
  1903   1902   1905   1907      9     0.00   0.62760   3 ;   H10R-  C110-   C19-   H9S
  1903   1902   1905   1908      9     0.00   0.66944   3 ;   H10R-  C110-   C19-   C18
  1904   1902   1905   1906      9     0.00   0.62760   3 ;   H10S-  C110-   C19-   H9R
  1904   1902   1905   1907      9     0.00   0.62760   3 ;   H10S-  C110-   C19-   H9S
  1904   1902   1905   1908      9     0.00   0.66944   3 ;   H10S-  C110-   C19-   C18
  1905   1908   1911   1912      9     0.00   0.66944   3 ;    C19-   C18-   C17-   H7R
  1905   1908   1911   1913      9     0.00   0.66944   3 ;    C19-   C18-   C17-   H7S
  1905   1908   1911   1914      9     0.00   0.41840   1 ;    C19-   C18-   C17-   C16
  1905   1908   1911   1914      9     0.00   0.41840   2 ;    C19-   C18-   C17-   C16
  1905   1908   1911   1914      9     0.00   0.41840   4 ;    C19-   C18-   C17-   C16
  1905   1908   1911   1914      9     0.00   0.41840   5 ;    C19-   C18-   C17-   C16
  1905   1908   1911   1914      9     0.00   1.25520   3 ;    C19-   C18-   C17-   C16
  1906   1905   1908   1909      9     0.00   0.62760   3 ;    H9R-   C19-   C18-   H8R
  1906   1905   1908   1910      9     0.00   0.62760   3 ;    H9R-   C19-   C18-   H8S
  1906   1905   1908   1911      9     0.00   0.66944   3 ;    H9R-   C19-   C18-   C17
  1907   1905   1908   1909      9     0.00   0.62760   3 ;    H9S-   C19-   C18-   H8R
  1907   1905   1908   1910      9     0.00   0.62760   3 ;    H9S-   C19-   C18-   H8S
  1907   1905   1908   1911      9     0.00   0.66944   3 ;    H9S-   C19-   C18-   C17
  1908   1911   1914   1915      9     0.00   0.66944   3 ;    C18-   C17-   C16-   H6R
  1908   1911   1914   1916      9     0.00   0.66944   3 ;    C18-   C17-   C16-   H6S
  1908   1911   1914   1917      9     0.00   0.41840   1 ;    C18-   C17-   C16-   C15
  1908   1911   1914   1917      9     0.00   0.41840   2 ;    C18-   C17-   C16-   C15
  1908   1911   1914   1917      9     0.00   0.41840   4 ;    C18-   C17-   C16-   C15
  1908   1911   1914   1917      9     0.00   0.41840   5 ;    C18-   C17-   C16-   C15
  1908   1911   1914   1917      9     0.00   1.25520   3 ;    C18-   C17-   C16-   C15
  1909   1908   1911   1912      9     0.00   0.62760   3 ;    H8R-   C18-   C17-   H7R
  1909   1908   1911   1913      9     0.00   0.62760   3 ;    H8R-   C18-   C17-   H7S
  1909   1908   1911   1914      9     0.00   0.66944   3 ;    H8R-   C18-   C17-   C16
  1910   1908   1911   1912      9     0.00   0.62760   3 ;    H8S-   C18-   C17-   H7R
  1910   1908   1911   1913      9     0.00   0.62760   3 ;    H8S-   C18-   C17-   H7S
  1910   1908   1911   1914      9     0.00   0.66944   3 ;    H8S-   C18-   C17-   C16
  1911   1914   1917   1918      9     0.00   0.66944   3 ;    C17-   C16-   C15-   H5R
  1911   1914   1917   1919      9     0.00   0.66944   3 ;    C17-   C16-   C15-   H5S
  1911   1914   1917   1920      9     0.00   0.41840   1 ;    C17-   C16-   C15-   C14
  1911   1914   1917   1920      9     0.00   0.41840   2 ;    C17-   C16-   C15-   C14
  1911   1914   1917   1920      9     0.00   0.41840   4 ;    C17-   C16-   C15-   C14
  1911   1914   1917   1920      9     0.00   0.41840   5 ;    C17-   C16-   C15-   C14
  1911   1914   1917   1920      9     0.00   1.25520   3 ;    C17-   C16-   C15-   C14
  1912   1911   1914   1915      9     0.00   0.62760   3 ;    H7R-   C17-   C16-   H6R
  1912   1911   1914   1916      9     0.00   0.62760   3 ;    H7R-   C17-   C16-   H6S
  1912   1911   1914   1917      9     0.00   0.66944   3 ;    H7R-   C17-   C16-   C15
  1913   1911   1914   1915      9     0.00   0.62760   3 ;    H7S-   C17-   C16-   H6R
  1913   1911   1914   1916      9     0.00   0.62760   3 ;    H7S-   C17-   C16-   H6S
  1913   1911   1914   1917      9     0.00   0.66944   3 ;    H7S-   C17-   C16-   C15
  1914   1917   1920   1921      9     0.00   0.66944   3 ;    C16-   C15-   C14-   H4R
  1914   1917   1920   1922      9     0.00   0.66944   3 ;    C16-   C15-   C14-   H4S
  1914   1917   1920   1923      9     0.00   0.41840   1 ;    C16-   C15-   C14-   C13
  1914   1917   1920   1923      9     0.00   0.41840   2 ;    C16-   C15-   C14-   C13
  1914   1917   1920   1923      9     0.00   0.41840   4 ;    C16-   C15-   C14-   C13
  1914   1917   1920   1923      9     0.00   0.41840   5 ;    C16-   C15-   C14-   C13
  1914   1917   1920   1923      9     0.00   1.25520   3 ;    C16-   C15-   C14-   C13
  1915   1914   1917   1918      9     0.00   0.62760   3 ;    H6R-   C16-   C15-   H5R
  1915   1914   1917   1919      9     0.00   0.62760   3 ;    H6R-   C16-   C15-   H5S
  1915   1914   1917   1920      9     0.00   0.66944   3 ;    H6R-   C16-   C15-   C14
  1916   1914   1917   1918      9     0.00   0.62760   3 ;    H6S-   C16-   C15-   H5R
  1916   1914   1917   1919      9     0.00   0.62760   3 ;    H6S-   C16-   C15-   H5S
  1916   1914   1917   1920      9     0.00   0.66944   3 ;    H6S-   C16-   C15-   C14
  1917   1920   1923   1924      9     0.00   0.66944   3 ;    C15-   C14-   C13-   H3R
  1917   1920   1923   1925      9     0.00   0.66944   3 ;    C15-   C14-   C13-   H3S
  1917   1920   1923   1926      9     0.00   0.41840   1 ;    C15-   C14-   C13-   C12
  1917   1920   1923   1926      9     0.00   0.41840   2 ;    C15-   C14-   C13-   C12
  1917   1920   1923   1926      9     0.00   0.41840   4 ;    C15-   C14-   C13-   C12
  1917   1920   1923   1926      9     0.00   0.41840   5 ;    C15-   C14-   C13-   C12
  1917   1920   1923   1926      9     0.00   1.25520   3 ;    C15-   C14-   C13-   C12
  1918   1917   1920   1921      9     0.00   0.62760   3 ;    H5R-   C15-   C14-   H4R
  1918   1917   1920   1922      9     0.00   0.62760   3 ;    H5R-   C15-   C14-   H4S
  1918   1917   1920   1923      9     0.00   0.66944   3 ;    H5R-   C15-   C14-   C13
  1919   1917   1920   1921      9     0.00   0.62760   3 ;    H5S-   C15-   C14-   H4R
  1919   1917   1920   1922      9     0.00   0.62760   3 ;    H5S-   C15-   C14-   H4S
  1919   1917   1920   1923      9     0.00   0.66944   3 ;    H5S-   C15-   C14-   C13
  1920   1923   1926   1927      9     0.00   0.66944   3 ;    C14-   C13-   C12-   H2R
  1920   1923   1926   1928      9     0.00   0.66944   3 ;    C14-   C13-   C12-   H2S
  1920   1923   1926   1929      9     0.00   0.65270   3 ;    C14-   C13-   C12-   C11
  1921   1920   1923   1924      9     0.00   0.62760   3 ;    H4R-   C14-   C13-   H3R
  1921   1920   1923   1925      9     0.00   0.62760   3 ;    H4R-   C14-   C13-   H3S
  1921   1920   1923   1926      9     0.00   0.66944   3 ;    H4R-   C14-   C13-   C12
  1922   1920   1923   1924      9     0.00   0.62760   3 ;    H4S-   C14-   C13-   H3R
  1922   1920   1923   1925      9     0.00   0.62760   3 ;    H4S-   C14-   C13-   H3S
  1922   1920   1923   1926      9     0.00   0.66944   3 ;    H4S-   C14-   C13-   C12
  1923   1926   1929   1930      9   180.00   0.00000   2 ;    C13-   C12-   C11-   O12
  1923   1926   1929   1931      9   180.00   0.00000   2 ;    C13-   C12-   C11-   O11
  1924   1923   1926   1927      9     0.00   0.62760   3 ;    H3R-   C13-   C12-   H2R
  1924   1923   1926   1928      9     0.00   0.62760   3 ;    H3R-   C13-   C12-   H2S
  1924   1923   1926   1929      9     0.00   0.65270   3 ;    H3R-   C13-   C12-   C11
  1925   1923   1926   1927      9     0.00   0.62760   3 ;    H3S-   C13-   C12-   H2R
  1925   1923   1926   1928      9     0.00   0.62760   3 ;    H3S-   C13-   C12-   H2S
  1925   1923   1926   1929      9     0.00   0.65270   3 ;    H3S-   C13-   C12-   C11
  1926   1929   1931   1932      9   180.00  11.29680   2 ;    C12-   C11-   O11-    C1
  1927   1926   1929   1930      9     0.00   3.34720   1 ;    H2R-   C12-   C11-   O12
  1927   1926   1929   1930      9   180.00   0.33472   3 ;    H2R-   C12-   C11-   O12
  1927   1926   1929   1931      9   180.00   0.00000   2 ;    H2R-   C12-   C11-   O11
  1928   1926   1929   1930      9     0.00   3.34720   1 ;    H2S-   C12-   C11-   O12
  1928   1926   1929   1930      9   180.00   0.33472   3 ;    H2S-   C12-   C11-   O12
  1928   1926   1929   1931      9   180.00   0.00000   2 ;    H2S-   C12-   C11-   O11
  1929   1931   1932   1933      9     0.00   1.60247   3 ;    C11-   O11-    C1-    HR
  1929   1931   1932   1934      9     0.00   1.60247   3 ;    C11-   O11-    C1-    HS
  1929   1931   1932   1935      9     0.00  -0.41840   1 ;    C11-   O11-    C1-    C2
  1930   1929   1931   1932      9   180.00   5.85760   1 ;    O12-   C11-   O11-    C1
  1930   1929   1931   1932      9   180.00  11.29680   2 ;    O12-   C11-   O11-    C1
  1931   1932   1935   1936      9     0.00   0.00000   0 ;    O11-    C1-    C2-    HX
  1931   1932   1935   1936      9     0.00   1.04600   1 ;    O11-    C1-    C2-    HX
  1931   1932   1935   1937      9     0.00   0.00000   0 ;    O11-    C1-    C2-    C3
  1931   1932   1935   1937      9     0.00   0.00000   0 ;    O11-    C1-    C2-    C3
  1931   1932   1935   1937      9     0.00   0.00000   0 ;    O11-    C1-    C2-    C3
  1931   1932   1935   1937      9     0.00   0.00000   0 ;    O11-    C1-    C2-    C3
  1931   1932   1935   1937      9     0.00   0.00000   0 ;    O11-    C1-    C2-    C3
  1931   1932   1935   1964      9     0.00   1.25520   2 ;    O11-    C1-    C2-   O21
  1931   1932   1935   1964      9     0.00   4.18400   3 ;    O11-    C1-    C2-   O21
  1931   1932   1935   1964      9   180.00  -0.41840   1 ;    O11-    C1-    C2-   O21
  1932   1935   1937   1938      9     0.00   0.65270   3 ;     C1-    C2-    C3-    HA
  1932   1935   1937   1939      9     0.00   0.65270   3 ;     C1-    C2-    C3-    HB
  1932   1935   1937   1940      9   180.00   3.34720   1 ;     C1-    C2-    C3-   O31
  1932   1935   1964   1965      9     0.00  -0.41840   1 ;     C1-    C2-   O21-   C21
  1933   1932   1935   1936      9     0.00   0.65270   3 ;     HR-    C1-    C2-    HX
  1933   1932   1935   1937      9     0.00   0.65270   3 ;     HR-    C1-    C2-    C3
  1933   1932   1935   1964      9     0.00   0.00000   0 ;     HR-    C1-    C2-   O21
  1933   1932   1935   1964      9     0.00   1.04600   1 ;     HR-    C1-    C2-   O21
  1934   1932   1935   1936      9     0.00   0.65270   3 ;     HS-    C1-    C2-    HX
  1934   1932   1935   1937      9     0.00   0.65270   3 ;     HS-    C1-    C2-    C3
  1934   1932   1935   1964      9     0.00   0.00000   0 ;     HS-    C1-    C2-   O21
  1934   1932   1935   1964      9     0.00   1.04600   1 ;     HS-    C1-    C2-   O21
  1935   1937   1940   1941      9     0.00   0.00000   0 ;     C2-    C3-   O31-   P31
  1935   1937   1940   1941      9   180.00  -3.34720   2 ;     C2-    C3-   O31-   P31
  1935   1964   1965   1966      9   180.00   5.85760   1 ;     C2-   O21-   C21-   O22
  1935   1964   1965   1966      9   180.00  11.29680   2 ;     C2-   O21-   C21-   O22
  1935   1964   1965   2004      9   180.00  11.29680   2 ;     C2-   O21-   C21-   C12
  1936   1935   1937   1938      9     0.00   0.65270   3 ;     HX-    C2-    C3-    HA
  1936   1935   1937   1939      9     0.00   0.65270   3 ;     HX-    C2-    C3-    HB
  1936   1935   1937   1940      9     0.00   0.00000   0 ;     HX-    C2-    C3-   O31
  1936   1935   1937   1940      9     0.00   1.04600   1 ;     HX-    C2-    C3-   O31
  1936   1935   1964   1965      9     0.00   1.60247   3 ;     HX-    C2-   O21-   C21
  1937   1935   1964   1965      9     0.00  -0.41840   1 ;     C3-    C2-   O21-   C21
  1937   1940   1941   1942      9     0.00   2.51040   3 ;     C3-   O31-   P31-   O32
  1937   1940   1941   1942      9     0.00   9.62320   2 ;     C3-   O31-   P31-   O32
  1937   1940   1941   1962      9     0.00   0.00000   0 ;     C3-   O31-   P31-   O33
  1937   1940   1941   1962      9     0.00   0.00000   0 ;     C3-   O31-   P31-   O33
  1937   1940   1941   1962      9     0.00   0.00000   0 ;     C3-   O31-   P31-   O33
  1937   1940   1941   1962      9     0.00   0.00000   0 ;     C3-   O31-   P31-   O33
  1937   1940   1941   1962      9     0.00   0.83680   2 ;     C3-   O31-   P31-   O33
  1937   1940   1941   1963      9     0.00   0.00000   0 ;     C3-   O31-   P31-   O34
  1937   1940   1941   1963      9     0.00   0.00000   0 ;     C3-   O31-   P31-   O34
  1937   1940   1941   1963      9     0.00   0.00000   0 ;     C3-   O31-   P31-   O34
  1937   1940   1941   1963      9     0.00   0.00000   0 ;     C3-   O31-   P31-   O34
  1937   1940   1941   1963      9     0.00   0.83680   2 ;     C3-   O31-   P31-   O34
  1938   1937   1935   1964      9     0.00   0.00000   0 ;     HA-    C3-    C2-   O21
  1938   1937   1935   1964      9     0.00   1.04600   1 ;     HA-    C3-    C2-   O21
  1938   1937   1940   1941      9     0.00   0.00000   0 ;     HA-    C3-   O31-   P31
  1938   1937   1940   1941      9     0.00   0.00000   0 ;     HA-    C3-   O31-   P31
  1938   1937   1940   1941      9     0.00   0.00000   0 ;     HA-    C3-   O31-   P31
  1938   1937   1940   1941      9     0.00   0.00000   0 ;     HA-    C3-   O31-   P31
  1938   1937   1940   1941      9     0.00   1.60247   3 ;     HA-    C3-   O31-   P31
  1939   1937   1935   1964      9     0.00   0.00000   0 ;     HB-    C3-    C2-   O21
  1939   1937   1935   1964      9     0.00   1.04600   1 ;     HB-    C3-    C2-   O21
  1939   1937   1940   1941      9     0.00   0.00000   0 ;     HB-    C3-   O31-   P31
  1939   1937   1940   1941      9     0.00   0.00000   0 ;     HB-    C3-   O31-   P31
  1939   1937   1940   1941      9     0.00   0.00000   0 ;     HB-    C3-   O31-   P31
  1939   1937   1940   1941      9     0.00   0.00000   0 ;     HB-    C3-   O31-   P31
  1939   1937   1940   1941      9     0.00   1.60247   3 ;     HB-    C3-   O31-   P31
  1940   1937   1935   1964      9     0.00   0.00000   0 ;    O31-    C3-    C2-   O21
  1940   1937   1935   1964      9     0.00   0.00000   0 ;    O31-    C3-    C2-   O21
  1940   1937   1935   1964      9     0.00   0.00000   0 ;    O31-    C3-    C2-   O21
  1940   1937   1935   1964      9     0.00   0.00000   0 ;    O31-    C3-    C2-   O21
  1940   1937   1935   1964      9     0.00   0.00000   0 ;    O31-    C3-    C2-   O21
  1940   1941   1942   1943      9     0.00   2.51040   3 ;    O31-   P31-   O32-   C31
  1940   1941   1942   1943      9     0.00   9.62320   2 ;    O31-   P31-   O32-   C31
  1941   1942   1943   1944      9     0.00   0.00000   0 ;    P31-   O32-   C31-   H1A
  1941   1942   1943   1944      9     0.00   0.00000   0 ;    P31-   O32-   C31-   H1A
  1941   1942   1943   1944      9     0.00   0.00000   0 ;    P31-   O32-   C31-   H1A
  1941   1942   1943   1944      9     0.00   0.00000   0 ;    P31-   O32-   C31-   H1A
  1941   1942   1943   1944      9     0.00   1.60247   3 ;    P31-   O32-   C31-   H1A
  1941   1942   1943   1945      9     0.00   0.00000   0 ;    P31-   O32-   C31-   H1B
  1941   1942   1943   1945      9     0.00   0.00000   0 ;    P31-   O32-   C31-   H1B
  1941   1942   1943   1945      9     0.00   0.00000   0 ;    P31-   O32-   C31-   H1B
  1941   1942   1943   1945      9     0.00   0.00000   0 ;    P31-   O32-   C31-   H1B
  1941   1942   1943   1945      9     0.00   1.60247   3 ;    P31-   O32-   C31-   H1B
  1941   1942   1943   1946      9     0.00   0.00000   0 ;    P31-   O32-   C31-   C32
  1941   1942   1943   1946      9   180.00  -3.34720   2 ;    P31-   O32-   C31-   C32
  1942   1943   1946   1947      9     0.00   0.65270   3 ;    O32-   C31-   C32-   H2A
  1942   1943   1946   1948      9     0.00   0.65270   3 ;    O32-   C31-   C32-   H2B
  1942   1943   1946   1949      9     0.00   4.18400   3 ;    O32-   C31-   C32-   N31
  1943   1942   1941   1962      9     0.00   0.00000   0 ;    C31-   O32-   P31-   O33
  1943   1942   1941   1962      9     0.00   0.00000   0 ;    C31-   O32-   P31-   O33
  1943   1942   1941   1962      9     0.00   0.00000   0 ;    C31-   O32-   P31-   O33
  1943   1942   1941   1962      9     0.00   0.00000   0 ;    C31-   O32-   P31-   O33
  1943   1942   1941   1962      9     0.00   0.83680   2 ;    C31-   O32-   P31-   O33
  1943   1942   1941   1963      9     0.00   0.00000   0 ;    C31-   O32-   P31-   O34
  1943   1942   1941   1963      9     0.00   0.00000   0 ;    C31-   O32-   P31-   O34
  1943   1942   1941   1963      9     0.00   0.00000   0 ;    C31-   O32-   P31-   O34
  1943   1942   1941   1963      9     0.00   0.00000   0 ;    C31-   O32-   P31-   O34
  1943   1942   1941   1963      9     0.00   0.83680   2 ;    C31-   O32-   P31-   O34
  1943   1946   1949   1950      9     0.00   0.65270   3 ;    C31-   C32-   N31-   C33
  1943   1946   1949   1954      9     0.00   0.65270   3 ;    C31-   C32-   N31-   C34
  1943   1946   1949   1958      9     0.00   0.65270   3 ;    C31-   C32-   N31-   C35
  1944   1943   1946   1947      9     0.00   0.65270   3 ;    H1A-   C31-   C32-   H2A
  1944   1943   1946   1948      9     0.00   0.65270   3 ;    H1A-   C31-   C32-   H2B
  1944   1943   1946   1949      9     0.00   0.65270   3 ;    H1A-   C31-   C32-   N31
  1945   1943   1946   1947      9     0.00   0.65270   3 ;    H1B-   C31-   C32-   H2A
  1945   1943   1946   1948      9     0.00   0.65270   3 ;    H1B-   C31-   C32-   H2B
  1945   1943   1946   1949      9     0.00   0.65270   3 ;    H1B-   C31-   C32-   N31
  1946   1949   1950   1951      9     0.00   0.65270   3 ;    C32-   N31-   C33-   H3A
  1946   1949   1950   1952      9     0.00   0.65270   3 ;    C32-   N31-   C33-   H3B
  1946   1949   1950   1953      9     0.00   0.65270   3 ;    C32-   N31-   C33-   H3C
  1946   1949   1954   1955      9     0.00   0.65270   3 ;    C32-   N31-   C34-   H4A
  1946   1949   1954   1956      9     0.00   0.65270   3 ;    C32-   N31-   C34-   H4B
  1946   1949   1954   1957      9     0.00   0.65270   3 ;    C32-   N31-   C34-   H4C
  1946   1949   1958   1959      9     0.00   0.65270   3 ;    C32-   N31-   C35-   H5A
  1946   1949   1958   1960      9     0.00   0.65270   3 ;    C32-   N31-   C35-   H5B
  1946   1949   1958   1961      9     0.00   0.65270   3 ;    C32-   N31-   C35-   H5C
  1947   1946   1949   1950      9     0.00   0.65270   3 ;    H2A-   C32-   N31-   C33
  1947   1946   1949   1954      9     0.00   0.65270   3 ;    H2A-   C32-   N31-   C34
  1947   1946   1949   1958      9     0.00   0.65270   3 ;    H2A-   C32-   N31-   C35
  1948   1946   1949   1950      9     0.00   0.65270   3 ;    H2B-   C32-   N31-   C33
  1948   1946   1949   1954      9     0.00   0.65270   3 ;    H2B-   C32-   N31-   C34
  1948   1946   1949   1958      9     0.00   0.65270   3 ;    H2B-   C32-   N31-   C35
  1950   1949   1954   1955      9     0.00   0.65270   3 ;    C33-   N31-   C34-   H4A
  1950   1949   1954   1956      9     0.00   0.65270   3 ;    C33-   N31-   C34-   H4B
  1950   1949   1954   1957      9     0.00   0.65270   3 ;    C33-   N31-   C34-   H4C
  1950   1949   1958   1959      9     0.00   0.65270   3 ;    C33-   N31-   C35-   H5A
  1950   1949   1958   1960      9     0.00   0.65270   3 ;    C33-   N31-   C35-   H5B
  1950   1949   1958   1961      9     0.00   0.65270   3 ;    C33-   N31-   C35-   H5C
  1951   1950   1949   1954      9     0.00   0.65270   3 ;    H3A-   C33-   N31-   C34
  1951   1950   1949   1958      9     0.00   0.65270   3 ;    H3A-   C33-   N31-   C35
  1952   1950   1949   1954      9     0.00   0.65270   3 ;    H3B-   C33-   N31-   C34
  1952   1950   1949   1958      9     0.00   0.65270   3 ;    H3B-   C33-   N31-   C35
  1953   1950   1949   1954      9     0.00   0.65270   3 ;    H3C-   C33-   N31-   C34
  1953   1950   1949   1958      9     0.00   0.65270   3 ;    H3C-   C33-   N31-   C35
  1954   1949   1958   1959      9     0.00   0.65270   3 ;    C34-   N31-   C35-   H5A
  1954   1949   1958   1960      9     0.00   0.65270   3 ;    C34-   N31-   C35-   H5B
  1954   1949   1958   1961      9     0.00   0.65270   3 ;    C34-   N31-   C35-   H5C
  1955   1954   1949   1958      9     0.00   0.65270   3 ;    H4A-   C34-   N31-   C35
  1956   1954   1949   1958      9     0.00   0.65270   3 ;    H4B-   C34-   N31-   C35
  1957   1954   1949   1958      9     0.00   0.65270   3 ;    H4C-   C34-   N31-   C35
  1964   1965   2004   2001      9   180.00   0.00000   2 ;    O21-   C21-   C12-   C13
  1964   1965   2004   2005      9   180.00   0.00000   2 ;    O21-   C21-   C12-   H2R
  1964   1965   2004   2006      9   180.00   0.00000   2 ;    O21-   C21-   C12-   H2S
  1965   2004   2001   1998      9     0.00   0.65270   3 ;    C21-   C12-   C13-   C14
  1965   2004   2001   2002      9     0.00   0.65270   3 ;    C21-   C12-   C13-   H3R
  1965   2004   2001   2003      9     0.00   0.65270   3 ;    C21-   C12-   C13-   H3S
  1966   1965   2004   2001      9   180.00   0.00000   2 ;    O22-   C21-   C12-   C13
  1966   1965   2004   2005      9     0.00   3.34720   1 ;    O22-   C21-   C12-   H2R
  1966   1965   2004   2005      9   180.00   0.33472   3 ;    O22-   C21-   C12-   H2R
  1966   1965   2004   2006      9     0.00   3.34720   1 ;    O22-   C21-   C12-   H2S
  1966   1965   2004   2006      9   180.00   0.33472   3 ;    O22-   C21-   C12-   H2S
  1967   1968   1971   1972      9     0.00   0.62760   3 ;   H14T-  C114-  C113-  H13R
  1967   1968   1971   1973      9     0.00   0.62760   3 ;   H14T-  C114-  C113-  H13S
  1967   1968   1971   1974      9     0.00   0.66944   3 ;   H14T-  C114-  C113-  C112
  1968   1971   1974   1975      9     0.00   0.66944   3 ;   C114-  C113-  C112-  H12R
  1968   1971   1974   1976      9     0.00   0.66944   3 ;   C114-  C113-  C112-  H12S
  1968   1971   1974   1977      9     0.00   0.41840   1 ;   C114-  C113-  C112-  C111
  1968   1971   1974   1977      9     0.00   0.41840   2 ;   C114-  C113-  C112-  C111
  1968   1971   1974   1977      9     0.00   0.41840   4 ;   C114-  C113-  C112-  C111
  1968   1971   1974   1977      9     0.00   0.41840   5 ;   C114-  C113-  C112-  C111
  1968   1971   1974   1977      9     0.00   1.25520   3 ;   C114-  C113-  C112-  C111
  1969   1968   1971   1972      9     0.00   0.62760   3 ;   H14R-  C114-  C113-  H13R
  1969   1968   1971   1973      9     0.00   0.62760   3 ;   H14R-  C114-  C113-  H13S
  1969   1968   1971   1974      9     0.00   0.66944   3 ;   H14R-  C114-  C113-  C112
  1970   1968   1971   1972      9     0.00   0.62760   3 ;   H14S-  C114-  C113-  H13R
  1970   1968   1971   1973      9     0.00   0.62760   3 ;   H14S-  C114-  C113-  H13S
  1970   1968   1971   1974      9     0.00   0.66944   3 ;   H14S-  C114-  C113-  C112
  1971   1974   1977   1978      9     0.00   0.66944   3 ;   C113-  C112-  C111-  H11R
  1971   1974   1977   1979      9     0.00   0.66944   3 ;   C113-  C112-  C111-  H11S
  1971   1974   1977   1980      9     0.00   0.41840   1 ;   C113-  C112-  C111-  C110
  1971   1974   1977   1980      9     0.00   0.41840   2 ;   C113-  C112-  C111-  C110
  1971   1974   1977   1980      9     0.00   0.41840   4 ;   C113-  C112-  C111-  C110
  1971   1974   1977   1980      9     0.00   0.41840   5 ;   C113-  C112-  C111-  C110
  1971   1974   1977   1980      9     0.00   1.25520   3 ;   C113-  C112-  C111-  C110
  1972   1971   1974   1975      9     0.00   0.62760   3 ;   H13R-  C113-  C112-  H12R
  1972   1971   1974   1976      9     0.00   0.62760   3 ;   H13R-  C113-  C112-  H12S
  1972   1971   1974   1977      9     0.00   0.66944   3 ;   H13R-  C113-  C112-  C111
  1973   1971   1974   1975      9     0.00   0.62760   3 ;   H13S-  C113-  C112-  H12R
  1973   1971   1974   1976      9     0.00   0.62760   3 ;   H13S-  C113-  C112-  H12S
  1973   1971   1974   1977      9     0.00   0.66944   3 ;   H13S-  C113-  C112-  C111
  1974   1977   1980   1981      9     0.00   0.66944   3 ;   C112-  C111-  C110-  H10R
  1974   1977   1980   1982      9     0.00   0.66944   3 ;   C112-  C111-  C110-  H10S
  1974   1977   1980   1983      9     0.00   0.41840   1 ;   C112-  C111-  C110-   C19
  1974   1977   1980   1983      9     0.00   0.41840   2 ;   C112-  C111-  C110-   C19
  1974   1977   1980   1983      9     0.00   0.41840   4 ;   C112-  C111-  C110-   C19
  1974   1977   1980   1983      9     0.00   0.41840   5 ;   C112-  C111-  C110-   C19
  1974   1977   1980   1983      9     0.00   1.25520   3 ;   C112-  C111-  C110-   C19
  1975   1974   1977   1978      9     0.00   0.62760   3 ;   H12R-  C112-  C111-  H11R
  1975   1974   1977   1979      9     0.00   0.62760   3 ;   H12R-  C112-  C111-  H11S
  1975   1974   1977   1980      9     0.00   0.66944   3 ;   H12R-  C112-  C111-  C110
  1976   1974   1977   1978      9     0.00   0.62760   3 ;   H12S-  C112-  C111-  H11R
  1976   1974   1977   1979      9     0.00   0.62760   3 ;   H12S-  C112-  C111-  H11S
  1976   1974   1977   1980      9     0.00   0.66944   3 ;   H12S-  C112-  C111-  C110
  1977   1980   1983   1984      9     0.00   0.66944   3 ;   C111-  C110-   C19-   H9R
  1977   1980   1983   1985      9     0.00   0.66944   3 ;   C111-  C110-   C19-   H9S
  1977   1980   1983   1986      9     0.00   0.41840   1 ;   C111-  C110-   C19-   C18
  1977   1980   1983   1986      9     0.00   0.41840   2 ;   C111-  C110-   C19-   C18
  1977   1980   1983   1986      9     0.00   0.41840   4 ;   C111-  C110-   C19-   C18
  1977   1980   1983   1986      9     0.00   0.41840   5 ;   C111-  C110-   C19-   C18
  1977   1980   1983   1986      9     0.00   1.25520   3 ;   C111-  C110-   C19-   C18
  1978   1977   1980   1981      9     0.00   0.62760   3 ;   H11R-  C111-  C110-  H10R
  1978   1977   1980   1982      9     0.00   0.62760   3 ;   H11R-  C111-  C110-  H10S
  1978   1977   1980   1983      9     0.00   0.66944   3 ;   H11R-  C111-  C110-   C19
  1979   1977   1980   1981      9     0.00   0.62760   3 ;   H11S-  C111-  C110-  H10R
  1979   1977   1980   1982      9     0.00   0.62760   3 ;   H11S-  C111-  C110-  H10S
  1979   1977   1980   1983      9     0.00   0.66944   3 ;   H11S-  C111-  C110-   C19
  1980   1983   1986   1987      9     0.00   0.66944   3 ;   C110-   C19-   C18-   H8R
  1980   1983   1986   1988      9     0.00   0.66944   3 ;   C110-   C19-   C18-   H8S
  1980   1983   1986   1989      9     0.00   0.41840   1 ;   C110-   C19-   C18-   C17
  1980   1983   1986   1989      9     0.00   0.41840   2 ;   C110-   C19-   C18-   C17
  1980   1983   1986   1989      9     0.00   0.41840   4 ;   C110-   C19-   C18-   C17
  1980   1983   1986   1989      9     0.00   0.41840   5 ;   C110-   C19-   C18-   C17
  1980   1983   1986   1989      9     0.00   1.25520   3 ;   C110-   C19-   C18-   C17
  1981   1980   1983   1984      9     0.00   0.62760   3 ;   H10R-  C110-   C19-   H9R
  1981   1980   1983   1985      9     0.00   0.62760   3 ;   H10R-  C110-   C19-   H9S
  1981   1980   1983   1986      9     0.00   0.66944   3 ;   H10R-  C110-   C19-   C18
  1982   1980   1983   1984      9     0.00   0.62760   3 ;   H10S-  C110-   C19-   H9R
  1982   1980   1983   1985      9     0.00   0.62760   3 ;   H10S-  C110-   C19-   H9S
  1982   1980   1983   1986      9     0.00   0.66944   3 ;   H10S-  C110-   C19-   C18
  1983   1986   1989   1990      9     0.00   0.66944   3 ;    C19-   C18-   C17-   H7R
  1983   1986   1989   1991      9     0.00   0.66944   3 ;    C19-   C18-   C17-   H7S
  1983   1986   1989   1992      9     0.00   0.41840   1 ;    C19-   C18-   C17-   C16
  1983   1986   1989   1992      9     0.00   0.41840   2 ;    C19-   C18-   C17-   C16
  1983   1986   1989   1992      9     0.00   0.41840   4 ;    C19-   C18-   C17-   C16
  1983   1986   1989   1992      9     0.00   0.41840   5 ;    C19-   C18-   C17-   C16
  1983   1986   1989   1992      9     0.00   1.25520   3 ;    C19-   C18-   C17-   C16
  1984   1983   1986   1987      9     0.00   0.62760   3 ;    H9R-   C19-   C18-   H8R
  1984   1983   1986   1988      9     0.00   0.62760   3 ;    H9R-   C19-   C18-   H8S
  1984   1983   1986   1989      9     0.00   0.66944   3 ;    H9R-   C19-   C18-   C17
  1985   1983   1986   1987      9     0.00   0.62760   3 ;    H9S-   C19-   C18-   H8R
  1985   1983   1986   1988      9     0.00   0.62760   3 ;    H9S-   C19-   C18-   H8S
  1985   1983   1986   1989      9     0.00   0.66944   3 ;    H9S-   C19-   C18-   C17
  1986   1989   1992   1993      9     0.00   0.66944   3 ;    C18-   C17-   C16-   H6R
  1986   1989   1992   1994      9     0.00   0.66944   3 ;    C18-   C17-   C16-   H6S
  1986   1989   1992   1995      9     0.00   0.41840   1 ;    C18-   C17-   C16-   C15
  1986   1989   1992   1995      9     0.00   0.41840   2 ;    C18-   C17-   C16-   C15
  1986   1989   1992   1995      9     0.00   0.41840   4 ;    C18-   C17-   C16-   C15
  1986   1989   1992   1995      9     0.00   0.41840   5 ;    C18-   C17-   C16-   C15
  1986   1989   1992   1995      9     0.00   1.25520   3 ;    C18-   C17-   C16-   C15
  1987   1986   1989   1990      9     0.00   0.62760   3 ;    H8R-   C18-   C17-   H7R
  1987   1986   1989   1991      9     0.00   0.62760   3 ;    H8R-   C18-   C17-   H7S
  1987   1986   1989   1992      9     0.00   0.66944   3 ;    H8R-   C18-   C17-   C16
  1988   1986   1989   1990      9     0.00   0.62760   3 ;    H8S-   C18-   C17-   H7R
  1988   1986   1989   1991      9     0.00   0.62760   3 ;    H8S-   C18-   C17-   H7S
  1988   1986   1989   1992      9     0.00   0.66944   3 ;    H8S-   C18-   C17-   C16
  1989   1992   1995   1996      9     0.00   0.66944   3 ;    C17-   C16-   C15-   H5R
  1989   1992   1995   1997      9     0.00   0.66944   3 ;    C17-   C16-   C15-   H5S
  1989   1992   1995   1998      9     0.00   0.41840   1 ;    C17-   C16-   C15-   C14
  1989   1992   1995   1998      9     0.00   0.41840   2 ;    C17-   C16-   C15-   C14
  1989   1992   1995   1998      9     0.00   0.41840   4 ;    C17-   C16-   C15-   C14
  1989   1992   1995   1998      9     0.00   0.41840   5 ;    C17-   C16-   C15-   C14
  1989   1992   1995   1998      9     0.00   1.25520   3 ;    C17-   C16-   C15-   C14
  1990   1989   1992   1993      9     0.00   0.62760   3 ;    H7R-   C17-   C16-   H6R
  1990   1989   1992   1994      9     0.00   0.62760   3 ;    H7R-   C17-   C16-   H6S
  1990   1989   1992   1995      9     0.00   0.66944   3 ;    H7R-   C17-   C16-   C15
  1991   1989   1992   1993      9     0.00   0.62760   3 ;    H7S-   C17-   C16-   H6R
  1991   1989   1992   1994      9     0.00   0.62760   3 ;    H7S-   C17-   C16-   H6S
  1991   1989   1992   1995      9     0.00   0.66944   3 ;    H7S-   C17-   C16-   C15
  1992   1995   1998   1999      9     0.00   0.66944   3 ;    C16-   C15-   C14-   H4R
  1992   1995   1998   2000      9     0.00   0.66944   3 ;    C16-   C15-   C14-   H4S
  1992   1995   1998   2001      9     0.00   0.41840   1 ;    C16-   C15-   C14-   C13
  1992   1995   1998   2001      9     0.00   0.41840   2 ;    C16-   C15-   C14-   C13
  1992   1995   1998   2001      9     0.00   0.41840   4 ;    C16-   C15-   C14-   C13
  1992   1995   1998   2001      9     0.00   0.41840   5 ;    C16-   C15-   C14-   C13
  1992   1995   1998   2001      9     0.00   1.25520   3 ;    C16-   C15-   C14-   C13
  1993   1992   1995   1996      9     0.00   0.62760   3 ;    H6R-   C16-   C15-   H5R
  1993   1992   1995   1997      9     0.00   0.62760   3 ;    H6R-   C16-   C15-   H5S
  1993   1992   1995   1998      9     0.00   0.66944   3 ;    H6R-   C16-   C15-   C14
  1994   1992   1995   1996      9     0.00   0.62760   3 ;    H6S-   C16-   C15-   H5R
  1994   1992   1995   1997      9     0.00   0.62760   3 ;    H6S-   C16-   C15-   H5S
  1994   1992   1995   1998      9     0.00   0.66944   3 ;    H6S-   C16-   C15-   C14
  1995   1998   2001   2002      9     0.00   0.66944   3 ;    C15-   C14-   C13-   H3R
  1995   1998   2001   2003      9     0.00   0.66944   3 ;    C15-   C14-   C13-   H3S
  1995   1998   2001   2004      9     0.00   0.41840   1 ;    C15-   C14-   C13-   C12
  1995   1998   2001   2004      9     0.00   0.41840   2 ;    C15-   C14-   C13-   C12
  1995   1998   2001   2004      9     0.00   0.41840   4 ;    C15-   C14-   C13-   C12
  1995   1998   2001   2004      9     0.00   0.41840   5 ;    C15-   C14-   C13-   C12
  1995   1998   2001   2004      9     0.00   1.25520   3 ;    C15-   C14-   C13-   C12
  1996   1995   1998   1999      9     0.00   0.62760   3 ;    H5R-   C15-   C14-   H4R
  1996   1995   1998   2000      9     0.00   0.62760   3 ;    H5R-   C15-   C14-   H4S
  1996   1995   1998   2001      9     0.00   0.66944   3 ;    H5R-   C15-   C14-   C13
  1997   1995   1998   1999      9     0.00   0.62760   3 ;    H5S-   C15-   C14-   H4R
  1997   1995   1998   2000      9     0.00   0.62760   3 ;    H5S-   C15-   C14-   H4S
  1997   1995   1998   2001      9     0.00   0.66944   3 ;    H5S-   C15-   C14-   C13
  1998   2001   2004   2005      9     0.00   0.66944   3 ;    C14-   C13-   C12-   H2R
  1998   2001   2004   2006      9     0.00   0.66944   3 ;    C14-   C13-   C12-   H2S
  1999   1998   2001   2002      9     0.00   0.62760   3 ;    H4R-   C14-   C13-   H3R
  1999   1998   2001   2003      9     0.00   0.62760   3 ;    H4R-   C14-   C13-   H3S
  1999   1998   2001   2004      9     0.00   0.66944   3 ;    H4R-   C14-   C13-   C12
  2000   1998   2001   2002      9     0.00   0.62760   3 ;    H4S-   C14-   C13-   H3R
  2000   1998   2001   2003      9     0.00   0.62760   3 ;    H4S-   C14-   C13-   H3S
  2000   1998   2001   2004      9     0.00   0.66944   3 ;    H4S-   C14-   C13-   C12
  2002   2001   2004   2005      9     0.00   0.62760   3 ;    H3R-   C13-   C12-   H2R
  2002   2001   2004   2006      9     0.00   0.62760   3 ;    H3R-   C13-   C12-   H2S
  2003   2001   2004   2005      9     0.00   0.62760   3 ;    H3S-   C13-   C12-   H2R
  2003   2001   2004   2006      9     0.00   0.62760   3 ;    H3S-   C13-   C12-   H2S
  2007   2008   2011   2012      9     0.00   0.62760   3 ;   H14T-  C114-  C113-  H13R
  2007   2008   2011   2013      9     0.00   0.62760   3 ;   H14T-  C114-  C113-  H13S
  2007   2008   2011   2014      9     0.00   0.66944   3 ;   H14T-  C114-  C113-  C112
  2008   2011   2014   2015      9     0.00   0.66944   3 ;   C114-  C113-  C112-  H12R
  2008   2011   2014   2016      9     0.00   0.66944   3 ;   C114-  C113-  C112-  H12S
  2008   2011   2014   2017      9     0.00   0.41840   1 ;   C114-  C113-  C112-  C111
  2008   2011   2014   2017      9     0.00   0.41840   2 ;   C114-  C113-  C112-  C111
  2008   2011   2014   2017      9     0.00   0.41840   4 ;   C114-  C113-  C112-  C111
  2008   2011   2014   2017      9     0.00   0.41840   5 ;   C114-  C113-  C112-  C111
  2008   2011   2014   2017      9     0.00   1.25520   3 ;   C114-  C113-  C112-  C111
  2009   2008   2011   2012      9     0.00   0.62760   3 ;   H14R-  C114-  C113-  H13R
  2009   2008   2011   2013      9     0.00   0.62760   3 ;   H14R-  C114-  C113-  H13S
  2009   2008   2011   2014      9     0.00   0.66944   3 ;   H14R-  C114-  C113-  C112
  2010   2008   2011   2012      9     0.00   0.62760   3 ;   H14S-  C114-  C113-  H13R
  2010   2008   2011   2013      9     0.00   0.62760   3 ;   H14S-  C114-  C113-  H13S
  2010   2008   2011   2014      9     0.00   0.66944   3 ;   H14S-  C114-  C113-  C112
  2011   2014   2017   2018      9     0.00   0.66944   3 ;   C113-  C112-  C111-  H11R
  2011   2014   2017   2019      9     0.00   0.66944   3 ;   C113-  C112-  C111-  H11S
  2011   2014   2017   2020      9     0.00   0.41840   1 ;   C113-  C112-  C111-  C110
  2011   2014   2017   2020      9     0.00   0.41840   2 ;   C113-  C112-  C111-  C110
  2011   2014   2017   2020      9     0.00   0.41840   4 ;   C113-  C112-  C111-  C110
  2011   2014   2017   2020      9     0.00   0.41840   5 ;   C113-  C112-  C111-  C110
  2011   2014   2017   2020      9     0.00   1.25520   3 ;   C113-  C112-  C111-  C110
  2012   2011   2014   2015      9     0.00   0.62760   3 ;   H13R-  C113-  C112-  H12R
  2012   2011   2014   2016      9     0.00   0.62760   3 ;   H13R-  C113-  C112-  H12S
  2012   2011   2014   2017      9     0.00   0.66944   3 ;   H13R-  C113-  C112-  C111
  2013   2011   2014   2015      9     0.00   0.62760   3 ;   H13S-  C113-  C112-  H12R
  2013   2011   2014   2016      9     0.00   0.62760   3 ;   H13S-  C113-  C112-  H12S
  2013   2011   2014   2017      9     0.00   0.66944   3 ;   H13S-  C113-  C112-  C111
  2014   2017   2020   2021      9     0.00   0.66944   3 ;   C112-  C111-  C110-  H10R
  2014   2017   2020   2022      9     0.00   0.66944   3 ;   C112-  C111-  C110-  H10S
  2014   2017   2020   2023      9     0.00   0.41840   1 ;   C112-  C111-  C110-   C19
  2014   2017   2020   2023      9     0.00   0.41840   2 ;   C112-  C111-  C110-   C19
  2014   2017   2020   2023      9     0.00   0.41840   4 ;   C112-  C111-  C110-   C19
  2014   2017   2020   2023      9     0.00   0.41840   5 ;   C112-  C111-  C110-   C19
  2014   2017   2020   2023      9     0.00   1.25520   3 ;   C112-  C111-  C110-   C19
  2015   2014   2017   2018      9     0.00   0.62760   3 ;   H12R-  C112-  C111-  H11R
  2015   2014   2017   2019      9     0.00   0.62760   3 ;   H12R-  C112-  C111-  H11S
  2015   2014   2017   2020      9     0.00   0.66944   3 ;   H12R-  C112-  C111-  C110
  2016   2014   2017   2018      9     0.00   0.62760   3 ;   H12S-  C112-  C111-  H11R
  2016   2014   2017   2019      9     0.00   0.62760   3 ;   H12S-  C112-  C111-  H11S
  2016   2014   2017   2020      9     0.00   0.66944   3 ;   H12S-  C112-  C111-  C110
  2017   2020   2023   2024      9     0.00   0.66944   3 ;   C111-  C110-   C19-   H9R
  2017   2020   2023   2025      9     0.00   0.66944   3 ;   C111-  C110-   C19-   H9S
  2017   2020   2023   2026      9     0.00   0.41840   1 ;   C111-  C110-   C19-   C18
  2017   2020   2023   2026      9     0.00   0.41840   2 ;   C111-  C110-   C19-   C18
  2017   2020   2023   2026      9     0.00   0.41840   4 ;   C111-  C110-   C19-   C18
  2017   2020   2023   2026      9     0.00   0.41840   5 ;   C111-  C110-   C19-   C18
  2017   2020   2023   2026      9     0.00   1.25520   3 ;   C111-  C110-   C19-   C18
  2018   2017   2020   2021      9     0.00   0.62760   3 ;   H11R-  C111-  C110-  H10R
  2018   2017   2020   2022      9     0.00   0.62760   3 ;   H11R-  C111-  C110-  H10S
  2018   2017   2020   2023      9     0.00   0.66944   3 ;   H11R-  C111-  C110-   C19
  2019   2017   2020   2021      9     0.00   0.62760   3 ;   H11S-  C111-  C110-  H10R
  2019   2017   2020   2022      9     0.00   0.62760   3 ;   H11S-  C111-  C110-  H10S
  2019   2017   2020   2023      9     0.00   0.66944   3 ;   H11S-  C111-  C110-   C19
  2020   2023   2026   2027      9     0.00   0.66944   3 ;   C110-   C19-   C18-   H8R
  2020   2023   2026   2028      9     0.00   0.66944   3 ;   C110-   C19-   C18-   H8S
  2020   2023   2026   2029      9     0.00   0.41840   1 ;   C110-   C19-   C18-   C17
  2020   2023   2026   2029      9     0.00   0.41840   2 ;   C110-   C19-   C18-   C17
  2020   2023   2026   2029      9     0.00   0.41840   4 ;   C110-   C19-   C18-   C17
  2020   2023   2026   2029      9     0.00   0.41840   5 ;   C110-   C19-   C18-   C17
  2020   2023   2026   2029      9     0.00   1.25520   3 ;   C110-   C19-   C18-   C17
  2021   2020   2023   2024      9     0.00   0.62760   3 ;   H10R-  C110-   C19-   H9R
  2021   2020   2023   2025      9     0.00   0.62760   3 ;   H10R-  C110-   C19-   H9S
  2021   2020   2023   2026      9     0.00   0.66944   3 ;   H10R-  C110-   C19-   C18
  2022   2020   2023   2024      9     0.00   0.62760   3 ;   H10S-  C110-   C19-   H9R
  2022   2020   2023   2025      9     0.00   0.62760   3 ;   H10S-  C110-   C19-   H9S
  2022   2020   2023   2026      9     0.00   0.66944   3 ;   H10S-  C110-   C19-   C18
  2023   2026   2029   2030      9     0.00   0.66944   3 ;    C19-   C18-   C17-   H7R
  2023   2026   2029   2031      9     0.00   0.66944   3 ;    C19-   C18-   C17-   H7S
  2023   2026   2029   2032      9     0.00   0.41840   1 ;    C19-   C18-   C17-   C16
  2023   2026   2029   2032      9     0.00   0.41840   2 ;    C19-   C18-   C17-   C16
  2023   2026   2029   2032      9     0.00   0.41840   4 ;    C19-   C18-   C17-   C16
  2023   2026   2029   2032      9     0.00   0.41840   5 ;    C19-   C18-   C17-   C16
  2023   2026   2029   2032      9     0.00   1.25520   3 ;    C19-   C18-   C17-   C16
  2024   2023   2026   2027      9     0.00   0.62760   3 ;    H9R-   C19-   C18-   H8R
  2024   2023   2026   2028      9     0.00   0.62760   3 ;    H9R-   C19-   C18-   H8S
  2024   2023   2026   2029      9     0.00   0.66944   3 ;    H9R-   C19-   C18-   C17
  2025   2023   2026   2027      9     0.00   0.62760   3 ;    H9S-   C19-   C18-   H8R
  2025   2023   2026   2028      9     0.00   0.62760   3 ;    H9S-   C19-   C18-   H8S
  2025   2023   2026   2029      9     0.00   0.66944   3 ;    H9S-   C19-   C18-   C17
  2026   2029   2032   2033      9     0.00   0.66944   3 ;    C18-   C17-   C16-   H6R
  2026   2029   2032   2034      9     0.00   0.66944   3 ;    C18-   C17-   C16-   H6S
  2026   2029   2032   2035      9     0.00   0.41840   1 ;    C18-   C17-   C16-   C15
  2026   2029   2032   2035      9     0.00   0.41840   2 ;    C18-   C17-   C16-   C15
  2026   2029   2032   2035      9     0.00   0.41840   4 ;    C18-   C17-   C16-   C15
  2026   2029   2032   2035      9     0.00   0.41840   5 ;    C18-   C17-   C16-   C15
  2026   2029   2032   2035      9     0.00   1.25520   3 ;    C18-   C17-   C16-   C15
  2027   2026   2029   2030      9     0.00   0.62760   3 ;    H8R-   C18-   C17-   H7R
  2027   2026   2029   2031      9     0.00   0.62760   3 ;    H8R-   C18-   C17-   H7S
  2027   2026   2029   2032      9     0.00   0.66944   3 ;    H8R-   C18-   C17-   C16
  2028   2026   2029   2030      9     0.00   0.62760   3 ;    H8S-   C18-   C17-   H7R
  2028   2026   2029   2031      9     0.00   0.62760   3 ;    H8S-   C18-   C17-   H7S
  2028   2026   2029   2032      9     0.00   0.66944   3 ;    H8S-   C18-   C17-   C16
  2029   2032   2035   2036      9     0.00   0.66944   3 ;    C17-   C16-   C15-   H5R
  2029   2032   2035   2037      9     0.00   0.66944   3 ;    C17-   C16-   C15-   H5S
  2029   2032   2035   2038      9     0.00   0.41840   1 ;    C17-   C16-   C15-   C14
  2029   2032   2035   2038      9     0.00   0.41840   2 ;    C17-   C16-   C15-   C14
  2029   2032   2035   2038      9     0.00   0.41840   4 ;    C17-   C16-   C15-   C14
  2029   2032   2035   2038      9     0.00   0.41840   5 ;    C17-   C16-   C15-   C14
  2029   2032   2035   2038      9     0.00   1.25520   3 ;    C17-   C16-   C15-   C14
  2030   2029   2032   2033      9     0.00   0.62760   3 ;    H7R-   C17-   C16-   H6R
  2030   2029   2032   2034      9     0.00   0.62760   3 ;    H7R-   C17-   C16-   H6S
  2030   2029   2032   2035      9     0.00   0.66944   3 ;    H7R-   C17-   C16-   C15
  2031   2029   2032   2033      9     0.00   0.62760   3 ;    H7S-   C17-   C16-   H6R
  2031   2029   2032   2034      9     0.00   0.62760   3 ;    H7S-   C17-   C16-   H6S
  2031   2029   2032   2035      9     0.00   0.66944   3 ;    H7S-   C17-   C16-   C15
  2032   2035   2038   2039      9     0.00   0.66944   3 ;    C16-   C15-   C14-   H4R
  2032   2035   2038   2040      9     0.00   0.66944   3 ;    C16-   C15-   C14-   H4S
  2032   2035   2038   2041      9     0.00   0.41840   1 ;    C16-   C15-   C14-   C13
  2032   2035   2038   2041      9     0.00   0.41840   2 ;    C16-   C15-   C14-   C13
  2032   2035   2038   2041      9     0.00   0.41840   4 ;    C16-   C15-   C14-   C13
  2032   2035   2038   2041      9     0.00   0.41840   5 ;    C16-   C15-   C14-   C13
  2032   2035   2038   2041      9     0.00   1.25520   3 ;    C16-   C15-   C14-   C13
  2033   2032   2035   2036      9     0.00   0.62760   3 ;    H6R-   C16-   C15-   H5R
  2033   2032   2035   2037      9     0.00   0.62760   3 ;    H6R-   C16-   C15-   H5S
  2033   2032   2035   2038      9     0.00   0.66944   3 ;    H6R-   C16-   C15-   C14
  2034   2032   2035   2036      9     0.00   0.62760   3 ;    H6S-   C16-   C15-   H5R
  2034   2032   2035   2037      9     0.00   0.62760   3 ;    H6S-   C16-   C15-   H5S
  2034   2032   2035   2038      9     0.00   0.66944   3 ;    H6S-   C16-   C15-   C14
  2035   2038   2041   2042      9     0.00   0.66944   3 ;    C15-   C14-   C13-   H3R
  2035   2038   2041   2043      9     0.00   0.66944   3 ;    C15-   C14-   C13-   H3S
  2035   2038   2041   2044      9     0.00   0.41840   1 ;    C15-   C14-   C13-   C12
  2035   2038   2041   2044      9     0.00   0.41840   2 ;    C15-   C14-   C13-   C12
  2035   2038   2041   2044      9     0.00   0.41840   4 ;    C15-   C14-   C13-   C12
  2035   2038   2041   2044      9     0.00   0.41840   5 ;    C15-   C14-   C13-   C12
  2035   2038   2041   2044      9     0.00   1.25520   3 ;    C15-   C14-   C13-   C12
  2036   2035   2038   2039      9     0.00   0.62760   3 ;    H5R-   C15-   C14-   H4R
  2036   2035   2038   2040      9     0.00   0.62760   3 ;    H5R-   C15-   C14-   H4S
  2036   2035   2038   2041      9     0.00   0.66944   3 ;    H5R-   C15-   C14-   C13
  2037   2035   2038   2039      9     0.00   0.62760   3 ;    H5S-   C15-   C14-   H4R
  2037   2035   2038   2040      9     0.00   0.62760   3 ;    H5S-   C15-   C14-   H4S
  2037   2035   2038   2041      9     0.00   0.66944   3 ;    H5S-   C15-   C14-   C13
  2038   2041   2044   2045      9     0.00   0.66944   3 ;    C14-   C13-   C12-   H2R
  2038   2041   2044   2046      9     0.00   0.66944   3 ;    C14-   C13-   C12-   H2S
  2038   2041   2044   2047      9     0.00   0.65270   3 ;    C14-   C13-   C12-   C11
  2039   2038   2041   2042      9     0.00   0.62760   3 ;    H4R-   C14-   C13-   H3R
  2039   2038   2041   2043      9     0.00   0.62760   3 ;    H4R-   C14-   C13-   H3S
  2039   2038   2041   2044      9     0.00   0.66944   3 ;    H4R-   C14-   C13-   C12
  2040   2038   2041   2042      9     0.00   0.62760   3 ;    H4S-   C14-   C13-   H3R
  2040   2038   2041   2043      9     0.00   0.62760   3 ;    H4S-   C14-   C13-   H3S
  2040   2038   2041   2044      9     0.00   0.66944   3 ;    H4S-   C14-   C13-   C12
  2041   2044   2047   2048      9   180.00   0.00000   2 ;    C13-   C12-   C11-   O12
  2041   2044   2047   2049      9   180.00   0.00000   2 ;    C13-   C12-   C11-   O11
  2042   2041   2044   2045      9     0.00   0.62760   3 ;    H3R-   C13-   C12-   H2R
  2042   2041   2044   2046      9     0.00   0.62760   3 ;    H3R-   C13-   C12-   H2S
  2042   2041   2044   2047      9     0.00   0.65270   3 ;    H3R-   C13-   C12-   C11
  2043   2041   2044   2045      9     0.00   0.62760   3 ;    H3S-   C13-   C12-   H2R
  2043   2041   2044   2046      9     0.00   0.62760   3 ;    H3S-   C13-   C12-   H2S
  2043   2041   2044   2047      9     0.00   0.65270   3 ;    H3S-   C13-   C12-   C11
  2044   2047   2049   2050      9   180.00  11.29680   2 ;    C12-   C11-   O11-    C1
  2045   2044   2047   2048      9     0.00   3.34720   1 ;    H2R-   C12-   C11-   O12
  2045   2044   2047   2048      9   180.00   0.33472   3 ;    H2R-   C12-   C11-   O12
  2045   2044   2047   2049      9   180.00   0.00000   2 ;    H2R-   C12-   C11-   O11
  2046   2044   2047   2048      9     0.00   3.34720   1 ;    H2S-   C12-   C11-   O12
  2046   2044   2047   2048      9   180.00   0.33472   3 ;    H2S-   C12-   C11-   O12
  2046   2044   2047   2049      9   180.00   0.00000   2 ;    H2S-   C12-   C11-   O11
  2047   2049   2050   2051      9     0.00   1.60247   3 ;    C11-   O11-    C1-    HR
  2047   2049   2050   2052      9     0.00   1.60247   3 ;    C11-   O11-    C1-    HS
  2047   2049   2050   2053      9     0.00  -0.41840   1 ;    C11-   O11-    C1-    C2
  2048   2047   2049   2050      9   180.00   5.85760   1 ;    O12-   C11-   O11-    C1
  2048   2047   2049   2050      9   180.00  11.29680   2 ;    O12-   C11-   O11-    C1
  2049   2050   2053   2054      9     0.00   0.00000   0 ;    O11-    C1-    C2-    HX
  2049   2050   2053   2054      9     0.00   1.04600   1 ;    O11-    C1-    C2-    HX
  2049   2050   2053   2055      9     0.00   0.00000   0 ;    O11-    C1-    C2-    C3
  2049   2050   2053   2055      9     0.00   0.00000   0 ;    O11-    C1-    C2-    C3
  2049   2050   2053   2055      9     0.00   0.00000   0 ;    O11-    C1-    C2-    C3
  2049   2050   2053   2055      9     0.00   0.00000   0 ;    O11-    C1-    C2-    C3
  2049   2050   2053   2055      9     0.00   0.00000   0 ;    O11-    C1-    C2-    C3
  2049   2050   2053   2082      9     0.00   1.25520   2 ;    O11-    C1-    C2-   O21
  2049   2050   2053   2082      9     0.00   4.18400   3 ;    O11-    C1-    C2-   O21
  2049   2050   2053   2082      9   180.00  -0.41840   1 ;    O11-    C1-    C2-   O21
  2050   2053   2055   2056      9     0.00   0.65270   3 ;     C1-    C2-    C3-    HA
  2050   2053   2055   2057      9     0.00   0.65270   3 ;     C1-    C2-    C3-    HB
  2050   2053   2055   2058      9   180.00   3.34720   1 ;     C1-    C2-    C3-   O31
  2050   2053   2082   2083      9     0.00  -0.41840   1 ;     C1-    C2-   O21-   C21
  2051   2050   2053   2054      9     0.00   0.65270   3 ;     HR-    C1-    C2-    HX
  2051   2050   2053   2055      9     0.00   0.65270   3 ;     HR-    C1-    C2-    C3
  2051   2050   2053   2082      9     0.00   0.00000   0 ;     HR-    C1-    C2-   O21
  2051   2050   2053   2082      9     0.00   1.04600   1 ;     HR-    C1-    C2-   O21
  2052   2050   2053   2054      9     0.00   0.65270   3 ;     HS-    C1-    C2-    HX
  2052   2050   2053   2055      9     0.00   0.65270   3 ;     HS-    C1-    C2-    C3
  2052   2050   2053   2082      9     0.00   0.00000   0 ;     HS-    C1-    C2-   O21
  2052   2050   2053   2082      9     0.00   1.04600   1 ;     HS-    C1-    C2-   O21
  2053   2055   2058   2059      9     0.00   0.00000   0 ;     C2-    C3-   O31-   P31
  2053   2055   2058   2059      9   180.00  -3.34720   2 ;     C2-    C3-   O31-   P31
  2053   2082   2083   2084      9   180.00   5.85760   1 ;     C2-   O21-   C21-   O22
  2053   2082   2083   2084      9   180.00  11.29680   2 ;     C2-   O21-   C21-   O22
  2053   2082   2083   2122      9   180.00  11.29680   2 ;     C2-   O21-   C21-   C12
  2054   2053   2055   2056      9     0.00   0.65270   3 ;     HX-    C2-    C3-    HA
  2054   2053   2055   2057      9     0.00   0.65270   3 ;     HX-    C2-    C3-    HB
  2054   2053   2055   2058      9     0.00   0.00000   0 ;     HX-    C2-    C3-   O31
  2054   2053   2055   2058      9     0.00   1.04600   1 ;     HX-    C2-    C3-   O31
  2054   2053   2082   2083      9     0.00   1.60247   3 ;     HX-    C2-   O21-   C21
  2055   2053   2082   2083      9     0.00  -0.41840   1 ;     C3-    C2-   O21-   C21
  2055   2058   2059   2060      9     0.00   2.51040   3 ;     C3-   O31-   P31-   O32
  2055   2058   2059   2060      9     0.00   9.62320   2 ;     C3-   O31-   P31-   O32
  2055   2058   2059   2080      9     0.00   0.00000   0 ;     C3-   O31-   P31-   O33
  2055   2058   2059   2080      9     0.00   0.00000   0 ;     C3-   O31-   P31-   O33
  2055   2058   2059   2080      9     0.00   0.00000   0 ;     C3-   O31-   P31-   O33
  2055   2058   2059   2080      9     0.00   0.00000   0 ;     C3-   O31-   P31-   O33
  2055   2058   2059   2080      9     0.00   0.83680   2 ;     C3-   O31-   P31-   O33
  2055   2058   2059   2081      9     0.00   0.00000   0 ;     C3-   O31-   P31-   O34
  2055   2058   2059   2081      9     0.00   0.00000   0 ;     C3-   O31-   P31-   O34
  2055   2058   2059   2081      9     0.00   0.00000   0 ;     C3-   O31-   P31-   O34
  2055   2058   2059   2081      9     0.00   0.00000   0 ;     C3-   O31-   P31-   O34
  2055   2058   2059   2081      9     0.00   0.83680   2 ;     C3-   O31-   P31-   O34
  2056   2055   2053   2082      9     0.00   0.00000   0 ;     HA-    C3-    C2-   O21
  2056   2055   2053   2082      9     0.00   1.04600   1 ;     HA-    C3-    C2-   O21
  2056   2055   2058   2059      9     0.00   0.00000   0 ;     HA-    C3-   O31-   P31
  2056   2055   2058   2059      9     0.00   0.00000   0 ;     HA-    C3-   O31-   P31
  2056   2055   2058   2059      9     0.00   0.00000   0 ;     HA-    C3-   O31-   P31
  2056   2055   2058   2059      9     0.00   0.00000   0 ;     HA-    C3-   O31-   P31
  2056   2055   2058   2059      9     0.00   1.60247   3 ;     HA-    C3-   O31-   P31
  2057   2055   2053   2082      9     0.00   0.00000   0 ;     HB-    C3-    C2-   O21
  2057   2055   2053   2082      9     0.00   1.04600   1 ;     HB-    C3-    C2-   O21
  2057   2055   2058   2059      9     0.00   0.00000   0 ;     HB-    C3-   O31-   P31
  2057   2055   2058   2059      9     0.00   0.00000   0 ;     HB-    C3-   O31-   P31
  2057   2055   2058   2059      9     0.00   0.00000   0 ;     HB-    C3-   O31-   P31
  2057   2055   2058   2059      9     0.00   0.00000   0 ;     HB-    C3-   O31-   P31
  2057   2055   2058   2059      9     0.00   1.60247   3 ;     HB-    C3-   O31-   P31
  2058   2055   2053   2082      9     0.00   0.00000   0 ;    O31-    C3-    C2-   O21
  2058   2055   2053   2082      9     0.00   0.00000   0 ;    O31-    C3-    C2-   O21
  2058   2055   2053   2082      9     0.00   0.00000   0 ;    O31-    C3-    C2-   O21
  2058   2055   2053   2082      9     0.00   0.00000   0 ;    O31-    C3-    C2-   O21
  2058   2055   2053   2082      9     0.00   0.00000   0 ;    O31-    C3-    C2-   O21
  2058   2059   2060   2061      9     0.00   2.51040   3 ;    O31-   P31-   O32-   C31
  2058   2059   2060   2061      9     0.00   9.62320   2 ;    O31-   P31-   O32-   C31
  2059   2060   2061   2062      9     0.00   0.00000   0 ;    P31-   O32-   C31-   H1A
  2059   2060   2061   2062      9     0.00   0.00000   0 ;    P31-   O32-   C31-   H1A
  2059   2060   2061   2062      9     0.00   0.00000   0 ;    P31-   O32-   C31-   H1A
  2059   2060   2061   2062      9     0.00   0.00000   0 ;    P31-   O32-   C31-   H1A
  2059   2060   2061   2062      9     0.00   1.60247   3 ;    P31-   O32-   C31-   H1A
  2059   2060   2061   2063      9     0.00   0.00000   0 ;    P31-   O32-   C31-   H1B
  2059   2060   2061   2063      9     0.00   0.00000   0 ;    P31-   O32-   C31-   H1B
  2059   2060   2061   2063      9     0.00   0.00000   0 ;    P31-   O32-   C31-   H1B
  2059   2060   2061   2063      9     0.00   0.00000   0 ;    P31-   O32-   C31-   H1B
  2059   2060   2061   2063      9     0.00   1.60247   3 ;    P31-   O32-   C31-   H1B
  2059   2060   2061   2064      9     0.00   0.00000   0 ;    P31-   O32-   C31-   C32
  2059   2060   2061   2064      9   180.00  -3.34720   2 ;    P31-   O32-   C31-   C32
  2060   2061   2064   2065      9     0.00   0.65270   3 ;    O32-   C31-   C32-   H2A
  2060   2061   2064   2066      9     0.00   0.65270   3 ;    O32-   C31-   C32-   H2B
  2060   2061   2064   2067      9     0.00   4.18400   3 ;    O32-   C31-   C32-   N31
  2061   2060   2059   2080      9     0.00   0.00000   0 ;    C31-   O32-   P31-   O33
  2061   2060   2059   2080      9     0.00   0.00000   0 ;    C31-   O32-   P31-   O33
  2061   2060   2059   2080      9     0.00   0.00000   0 ;    C31-   O32-   P31-   O33
  2061   2060   2059   2080      9     0.00   0.00000   0 ;    C31-   O32-   P31-   O33
  2061   2060   2059   2080      9     0.00   0.83680   2 ;    C31-   O32-   P31-   O33
  2061   2060   2059   2081      9     0.00   0.00000   0 ;    C31-   O32-   P31-   O34
  2061   2060   2059   2081      9     0.00   0.00000   0 ;    C31-   O32-   P31-   O34
  2061   2060   2059   2081      9     0.00   0.00000   0 ;    C31-   O32-   P31-   O34
  2061   2060   2059   2081      9     0.00   0.00000   0 ;    C31-   O32-   P31-   O34
  2061   2060   2059   2081      9     0.00   0.83680   2 ;    C31-   O32-   P31-   O34
  2061   2064   2067   2068      9     0.00   0.65270   3 ;    C31-   C32-   N31-   C33
  2061   2064   2067   2072      9     0.00   0.65270   3 ;    C31-   C32-   N31-   C34
  2061   2064   2067   2076      9     0.00   0.65270   3 ;    C31-   C32-   N31-   C35
  2062   2061   2064   2065      9     0.00   0.65270   3 ;    H1A-   C31-   C32-   H2A
  2062   2061   2064   2066      9     0.00   0.65270   3 ;    H1A-   C31-   C32-   H2B
  2062   2061   2064   2067      9     0.00   0.65270   3 ;    H1A-   C31-   C32-   N31
  2063   2061   2064   2065      9     0.00   0.65270   3 ;    H1B-   C31-   C32-   H2A
  2063   2061   2064   2066      9     0.00   0.65270   3 ;    H1B-   C31-   C32-   H2B
  2063   2061   2064   2067      9     0.00   0.65270   3 ;    H1B-   C31-   C32-   N31
  2064   2067   2068   2069      9     0.00   0.65270   3 ;    C32-   N31-   C33-   H3A
  2064   2067   2068   2070      9     0.00   0.65270   3 ;    C32-   N31-   C33-   H3B
  2064   2067   2068   2071      9     0.00   0.65270   3 ;    C32-   N31-   C33-   H3C
  2064   2067   2072   2073      9     0.00   0.65270   3 ;    C32-   N31-   C34-   H4A
  2064   2067   2072   2074      9     0.00   0.65270   3 ;    C32-   N31-   C34-   H4B
  2064   2067   2072   2075      9     0.00   0.65270   3 ;    C32-   N31-   C34-   H4C
  2064   2067   2076   2077      9     0.00   0.65270   3 ;    C32-   N31-   C35-   H5A
  2064   2067   2076   2078      9     0.00   0.65270   3 ;    C32-   N31-   C35-   H5B
  2064   2067   2076   2079      9     0.00   0.65270   3 ;    C32-   N31-   C35-   H5C
  2065   2064   2067   2068      9     0.00   0.65270   3 ;    H2A-   C32-   N31-   C33
  2065   2064   2067   2072      9     0.00   0.65270   3 ;    H2A-   C32-   N31-   C34
  2065   2064   2067   2076      9     0.00   0.65270   3 ;    H2A-   C32-   N31-   C35
  2066   2064   2067   2068      9     0.00   0.65270   3 ;    H2B-   C32-   N31-   C33
  2066   2064   2067   2072      9     0.00   0.65270   3 ;    H2B-   C32-   N31-   C34
  2066   2064   2067   2076      9     0.00   0.65270   3 ;    H2B-   C32-   N31-   C35
  2068   2067   2072   2073      9     0.00   0.65270   3 ;    C33-   N31-   C34-   H4A
  2068   2067   2072   2074      9     0.00   0.65270   3 ;    C33-   N31-   C34-   H4B
  2068   2067   2072   2075      9     0.00   0.65270   3 ;    C33-   N31-   C34-   H4C
  2068   2067   2076   2077      9     0.00   0.65270   3 ;    C33-   N31-   C35-   H5A
  2068   2067   2076   2078      9     0.00   0.65270   3 ;    C33-   N31-   C35-   H5B
  2068   2067   2076   2079      9     0.00   0.65270   3 ;    C33-   N31-   C35-   H5C
  2069   2068   2067   2072      9     0.00   0.65270   3 ;    H3A-   C33-   N31-   C34
  2069   2068   2067   2076      9     0.00   0.65270   3 ;    H3A-   C33-   N31-   C35
  2070   2068   2067   2072      9     0.00   0.65270   3 ;    H3B-   C33-   N31-   C34
  2070   2068   2067   2076      9     0.00   0.65270   3 ;    H3B-   C33-   N31-   C35
  2071   2068   2067   2072      9     0.00   0.65270   3 ;    H3C-   C33-   N31-   C34
  2071   2068   2067   2076      9     0.00   0.65270   3 ;    H3C-   C33-   N31-   C35
  2072   2067   2076   2077      9     0.00   0.65270   3 ;    C34-   N31-   C35-   H5A
  2072   2067   2076   2078      9     0.00   0.65270   3 ;    C34-   N31-   C35-   H5B
  2072   2067   2076   2079      9     0.00   0.65270   3 ;    C34-   N31-   C35-   H5C
  2073   2072   2067   2076      9     0.00   0.65270   3 ;    H4A-   C34-   N31-   C35
  2074   2072   2067   2076      9     0.00   0.65270   3 ;    H4B-   C34-   N31-   C35
  2075   2072   2067   2076      9     0.00   0.65270   3 ;    H4C-   C34-   N31-   C35
  2082   2083   2122   2119      9   180.00   0.00000   2 ;    O21-   C21-   C12-   C13
  2082   2083   2122   2123      9   180.00   0.00000   2 ;    O21-   C21-   C12-   H2R
  2082   2083   2122   2124      9   180.00   0.00000   2 ;    O21-   C21-   C12-   H2S
  2083   2122   2119   2116      9     0.00   0.65270   3 ;    C21-   C12-   C13-   C14
  2083   2122   2119   2120      9     0.00   0.65270   3 ;    C21-   C12-   C13-   H3R
  2083   2122   2119   2121      9     0.00   0.65270   3 ;    C21-   C12-   C13-   H3S
  2084   2083   2122   2119      9   180.00   0.00000   2 ;    O22-   C21-   C12-   C13
  2084   2083   2122   2123      9     0.00   3.34720   1 ;    O22-   C21-   C12-   H2R
  2084   2083   2122   2123      9   180.00   0.33472   3 ;    O22-   C21-   C12-   H2R
  2084   2083   2122   2124      9     0.00   3.34720   1 ;    O22-   C21-   C12-   H2S
  2084   2083   2122   2124      9   180.00   0.33472   3 ;    O22-   C21-   C12-   H2S
  2085   2086   2089   2090      9     0.00   0.62760   3 ;   H14T-  C114-  C113-  H13R
  2085   2086   2089   2091      9     0.00   0.62760   3 ;   H14T-  C114-  C113-  H13S
  2085   2086   2089   2092      9     0.00   0.66944   3 ;   H14T-  C114-  C113-  C112
  2086   2089   2092   2093      9     0.00   0.66944   3 ;   C114-  C113-  C112-  H12R
  2086   2089   2092   2094      9     0.00   0.66944   3 ;   C114-  C113-  C112-  H12S
  2086   2089   2092   2095      9     0.00   0.41840   1 ;   C114-  C113-  C112-  C111
  2086   2089   2092   2095      9     0.00   0.41840   2 ;   C114-  C113-  C112-  C111
  2086   2089   2092   2095      9     0.00   0.41840   4 ;   C114-  C113-  C112-  C111
  2086   2089   2092   2095      9     0.00   0.41840   5 ;   C114-  C113-  C112-  C111
  2086   2089   2092   2095      9     0.00   1.25520   3 ;   C114-  C113-  C112-  C111
  2087   2086   2089   2090      9     0.00   0.62760   3 ;   H14R-  C114-  C113-  H13R
  2087   2086   2089   2091      9     0.00   0.62760   3 ;   H14R-  C114-  C113-  H13S
  2087   2086   2089   2092      9     0.00   0.66944   3 ;   H14R-  C114-  C113-  C112
  2088   2086   2089   2090      9     0.00   0.62760   3 ;   H14S-  C114-  C113-  H13R
  2088   2086   2089   2091      9     0.00   0.62760   3 ;   H14S-  C114-  C113-  H13S
  2088   2086   2089   2092      9     0.00   0.66944   3 ;   H14S-  C114-  C113-  C112
  2089   2092   2095   2096      9     0.00   0.66944   3 ;   C113-  C112-  C111-  H11R
  2089   2092   2095   2097      9     0.00   0.66944   3 ;   C113-  C112-  C111-  H11S
  2089   2092   2095   2098      9     0.00   0.41840   1 ;   C113-  C112-  C111-  C110
  2089   2092   2095   2098      9     0.00   0.41840   2 ;   C113-  C112-  C111-  C110
  2089   2092   2095   2098      9     0.00   0.41840   4 ;   C113-  C112-  C111-  C110
  2089   2092   2095   2098      9     0.00   0.41840   5 ;   C113-  C112-  C111-  C110
  2089   2092   2095   2098      9     0.00   1.25520   3 ;   C113-  C112-  C111-  C110
  2090   2089   2092   2093      9     0.00   0.62760   3 ;   H13R-  C113-  C112-  H12R
  2090   2089   2092   2094      9     0.00   0.62760   3 ;   H13R-  C113-  C112-  H12S
  2090   2089   2092   2095      9     0.00   0.66944   3 ;   H13R-  C113-  C112-  C111
  2091   2089   2092   2093      9     0.00   0.62760   3 ;   H13S-  C113-  C112-  H12R
  2091   2089   2092   2094      9     0.00   0.62760   3 ;   H13S-  C113-  C112-  H12S
  2091   2089   2092   2095      9     0.00   0.66944   3 ;   H13S-  C113-  C112-  C111
  2092   2095   2098   2099      9     0.00   0.66944   3 ;   C112-  C111-  C110-  H10R
  2092   2095   2098   2100      9     0.00   0.66944   3 ;   C112-  C111-  C110-  H10S
  2092   2095   2098   2101      9     0.00   0.41840   1 ;   C112-  C111-  C110-   C19
  2092   2095   2098   2101      9     0.00   0.41840   2 ;   C112-  C111-  C110-   C19
  2092   2095   2098   2101      9     0.00   0.41840   4 ;   C112-  C111-  C110-   C19
  2092   2095   2098   2101      9     0.00   0.41840   5 ;   C112-  C111-  C110-   C19
  2092   2095   2098   2101      9     0.00   1.25520   3 ;   C112-  C111-  C110-   C19
  2093   2092   2095   2096      9     0.00   0.62760   3 ;   H12R-  C112-  C111-  H11R
  2093   2092   2095   2097      9     0.00   0.62760   3 ;   H12R-  C112-  C111-  H11S
  2093   2092   2095   2098      9     0.00   0.66944   3 ;   H12R-  C112-  C111-  C110
  2094   2092   2095   2096      9     0.00   0.62760   3 ;   H12S-  C112-  C111-  H11R
  2094   2092   2095   2097      9     0.00   0.62760   3 ;   H12S-  C112-  C111-  H11S
  2094   2092   2095   2098      9     0.00   0.66944   3 ;   H12S-  C112-  C111-  C110
  2095   2098   2101   2102      9     0.00   0.66944   3 ;   C111-  C110-   C19-   H9R
  2095   2098   2101   2103      9     0.00   0.66944   3 ;   C111-  C110-   C19-   H9S
  2095   2098   2101   2104      9     0.00   0.41840   1 ;   C111-  C110-   C19-   C18
  2095   2098   2101   2104      9     0.00   0.41840   2 ;   C111-  C110-   C19-   C18
  2095   2098   2101   2104      9     0.00   0.41840   4 ;   C111-  C110-   C19-   C18
  2095   2098   2101   2104      9     0.00   0.41840   5 ;   C111-  C110-   C19-   C18
  2095   2098   2101   2104      9     0.00   1.25520   3 ;   C111-  C110-   C19-   C18
  2096   2095   2098   2099      9     0.00   0.62760   3 ;   H11R-  C111-  C110-  H10R
  2096   2095   2098   2100      9     0.00   0.62760   3 ;   H11R-  C111-  C110-  H10S
  2096   2095   2098   2101      9     0.00   0.66944   3 ;   H11R-  C111-  C110-   C19
  2097   2095   2098   2099      9     0.00   0.62760   3 ;   H11S-  C111-  C110-  H10R
  2097   2095   2098   2100      9     0.00   0.62760   3 ;   H11S-  C111-  C110-  H10S
  2097   2095   2098   2101      9     0.00   0.66944   3 ;   H11S-  C111-  C110-   C19
  2098   2101   2104   2105      9     0.00   0.66944   3 ;   C110-   C19-   C18-   H8R
  2098   2101   2104   2106      9     0.00   0.66944   3 ;   C110-   C19-   C18-   H8S
  2098   2101   2104   2107      9     0.00   0.41840   1 ;   C110-   C19-   C18-   C17
  2098   2101   2104   2107      9     0.00   0.41840   2 ;   C110-   C19-   C18-   C17
  2098   2101   2104   2107      9     0.00   0.41840   4 ;   C110-   C19-   C18-   C17
  2098   2101   2104   2107      9     0.00   0.41840   5 ;   C110-   C19-   C18-   C17
  2098   2101   2104   2107      9     0.00   1.25520   3 ;   C110-   C19-   C18-   C17
  2099   2098   2101   2102      9     0.00   0.62760   3 ;   H10R-  C110-   C19-   H9R
  2099   2098   2101   2103      9     0.00   0.62760   3 ;   H10R-  C110-   C19-   H9S
  2099   2098   2101   2104      9     0.00   0.66944   3 ;   H10R-  C110-   C19-   C18
  2100   2098   2101   2102      9     0.00   0.62760   3 ;   H10S-  C110-   C19-   H9R
  2100   2098   2101   2103      9     0.00   0.62760   3 ;   H10S-  C110-   C19-   H9S
  2100   2098   2101   2104      9     0.00   0.66944   3 ;   H10S-  C110-   C19-   C18
  2101   2104   2107   2108      9     0.00   0.66944   3 ;    C19-   C18-   C17-   H7R
  2101   2104   2107   2109      9     0.00   0.66944   3 ;    C19-   C18-   C17-   H7S
  2101   2104   2107   2110      9     0.00   0.41840   1 ;    C19-   C18-   C17-   C16
  2101   2104   2107   2110      9     0.00   0.41840   2 ;    C19-   C18-   C17-   C16
  2101   2104   2107   2110      9     0.00   0.41840   4 ;    C19-   C18-   C17-   C16
  2101   2104   2107   2110      9     0.00   0.41840   5 ;    C19-   C18-   C17-   C16
  2101   2104   2107   2110      9     0.00   1.25520   3 ;    C19-   C18-   C17-   C16
  2102   2101   2104   2105      9     0.00   0.62760   3 ;    H9R-   C19-   C18-   H8R
  2102   2101   2104   2106      9     0.00   0.62760   3 ;    H9R-   C19-   C18-   H8S
  2102   2101   2104   2107      9     0.00   0.66944   3 ;    H9R-   C19-   C18-   C17
  2103   2101   2104   2105      9     0.00   0.62760   3 ;    H9S-   C19-   C18-   H8R
  2103   2101   2104   2106      9     0.00   0.62760   3 ;    H9S-   C19-   C18-   H8S
  2103   2101   2104   2107      9     0.00   0.66944   3 ;    H9S-   C19-   C18-   C17
  2104   2107   2110   2111      9     0.00   0.66944   3 ;    C18-   C17-   C16-   H6R
  2104   2107   2110   2112      9     0.00   0.66944   3 ;    C18-   C17-   C16-   H6S
  2104   2107   2110   2113      9     0.00   0.41840   1 ;    C18-   C17-   C16-   C15
  2104   2107   2110   2113      9     0.00   0.41840   2 ;    C18-   C17-   C16-   C15
  2104   2107   2110   2113      9     0.00   0.41840   4 ;    C18-   C17-   C16-   C15
  2104   2107   2110   2113      9     0.00   0.41840   5 ;    C18-   C17-   C16-   C15
  2104   2107   2110   2113      9     0.00   1.25520   3 ;    C18-   C17-   C16-   C15
  2105   2104   2107   2108      9     0.00   0.62760   3 ;    H8R-   C18-   C17-   H7R
  2105   2104   2107   2109      9     0.00   0.62760   3 ;    H8R-   C18-   C17-   H7S
  2105   2104   2107   2110      9     0.00   0.66944   3 ;    H8R-   C18-   C17-   C16
  2106   2104   2107   2108      9     0.00   0.62760   3 ;    H8S-   C18-   C17-   H7R
  2106   2104   2107   2109      9     0.00   0.62760   3 ;    H8S-   C18-   C17-   H7S
  2106   2104   2107   2110      9     0.00   0.66944   3 ;    H8S-   C18-   C17-   C16
  2107   2110   2113   2114      9     0.00   0.66944   3 ;    C17-   C16-   C15-   H5R
  2107   2110   2113   2115      9     0.00   0.66944   3 ;    C17-   C16-   C15-   H5S
  2107   2110   2113   2116      9     0.00   0.41840   1 ;    C17-   C16-   C15-   C14
  2107   2110   2113   2116      9     0.00   0.41840   2 ;    C17-   C16-   C15-   C14
  2107   2110   2113   2116      9     0.00   0.41840   4 ;    C17-   C16-   C15-   C14
  2107   2110   2113   2116      9     0.00   0.41840   5 ;    C17-   C16-   C15-   C14
  2107   2110   2113   2116      9     0.00   1.25520   3 ;    C17-   C16-   C15-   C14
  2108   2107   2110   2111      9     0.00   0.62760   3 ;    H7R-   C17-   C16-   H6R
  2108   2107   2110   2112      9     0.00   0.62760   3 ;    H7R-   C17-   C16-   H6S
  2108   2107   2110   2113      9     0.00   0.66944   3 ;    H7R-   C17-   C16-   C15
  2109   2107   2110   2111      9     0.00   0.62760   3 ;    H7S-   C17-   C16-   H6R
  2109   2107   2110   2112      9     0.00   0.62760   3 ;    H7S-   C17-   C16-   H6S
  2109   2107   2110   2113      9     0.00   0.66944   3 ;    H7S-   C17-   C16-   C15
  2110   2113   2116   2117      9     0.00   0.66944   3 ;    C16-   C15-   C14-   H4R
  2110   2113   2116   2118      9     0.00   0.66944   3 ;    C16-   C15-   C14-   H4S
  2110   2113   2116   2119      9     0.00   0.41840   1 ;    C16-   C15-   C14-   C13
  2110   2113   2116   2119      9     0.00   0.41840   2 ;    C16-   C15-   C14-   C13
  2110   2113   2116   2119      9     0.00   0.41840   4 ;    C16-   C15-   C14-   C13
  2110   2113   2116   2119      9     0.00   0.41840   5 ;    C16-   C15-   C14-   C13
  2110   2113   2116   2119      9     0.00   1.25520   3 ;    C16-   C15-   C14-   C13
  2111   2110   2113   2114      9     0.00   0.62760   3 ;    H6R-   C16-   C15-   H5R
  2111   2110   2113   2115      9     0.00   0.62760   3 ;    H6R-   C16-   C15-   H5S
  2111   2110   2113   2116      9     0.00   0.66944   3 ;    H6R-   C16-   C15-   C14
  2112   2110   2113   2114      9     0.00   0.62760   3 ;    H6S-   C16-   C15-   H5R
  2112   2110   2113   2115      9     0.00   0.62760   3 ;    H6S-   C16-   C15-   H5S
  2112   2110   2113   2116      9     0.00   0.66944   3 ;    H6S-   C16-   C15-   C14
  2113   2116   2119   2120      9     0.00   0.66944   3 ;    C15-   C14-   C13-   H3R
  2113   2116   2119   2121      9     0.00   0.66944   3 ;    C15-   C14-   C13-   H3S
  2113   2116   2119   2122      9     0.00   0.41840   1 ;    C15-   C14-   C13-   C12
  2113   2116   2119   2122      9     0.00   0.41840   2 ;    C15-   C14-   C13-   C12
  2113   2116   2119   2122      9     0.00   0.41840   4 ;    C15-   C14-   C13-   C12
  2113   2116   2119   2122      9     0.00   0.41840   5 ;    C15-   C14-   C13-   C12
  2113   2116   2119   2122      9     0.00   1.25520   3 ;    C15-   C14-   C13-   C12
  2114   2113   2116   2117      9     0.00   0.62760   3 ;    H5R-   C15-   C14-   H4R
  2114   2113   2116   2118      9     0.00   0.62760   3 ;    H5R-   C15-   C14-   H4S
  2114   2113   2116   2119      9     0.00   0.66944   3 ;    H5R-   C15-   C14-   C13
  2115   2113   2116   2117      9     0.00   0.62760   3 ;    H5S-   C15-   C14-   H4R
  2115   2113   2116   2118      9     0.00   0.62760   3 ;    H5S-   C15-   C14-   H4S
  2115   2113   2116   2119      9     0.00   0.66944   3 ;    H5S-   C15-   C14-   C13
  2116   2119   2122   2123      9     0.00   0.66944   3 ;    C14-   C13-   C12-   H2R
  2116   2119   2122   2124      9     0.00   0.66944   3 ;    C14-   C13-   C12-   H2S
  2117   2116   2119   2120      9     0.00   0.62760   3 ;    H4R-   C14-   C13-   H3R
  2117   2116   2119   2121      9     0.00   0.62760   3 ;    H4R-   C14-   C13-   H3S
  2117   2116   2119   2122      9     0.00   0.66944   3 ;    H4R-   C14-   C13-   C12
  2118   2116   2119   2120      9     0.00   0.62760   3 ;    H4S-   C14-   C13-   H3R
  2118   2116   2119   2121      9     0.00   0.62760   3 ;    H4S-   C14-   C13-   H3S
  2118   2116   2119   2122      9     0.00   0.66944   3 ;    H4S-   C14-   C13-   C12
  2120   2119   2122   2123      9     0.00   0.62760   3 ;    H3R-   C13-   C12-   H2R
  2120   2119   2122   2124      9     0.00   0.62760   3 ;    H3R-   C13-   C12-   H2S
  2121   2119   2122   2123      9     0.00   0.62760   3 ;    H3S-   C13-   C12-   H2R
  2121   2119   2122   2124      9     0.00   0.62760   3 ;    H3S-   C13-   C12-   H2S
  2125   2126   2129   2130      9     0.00   0.62760   3 ;   H14T-  C114-  C113-  H13R
  2125   2126   2129   2131      9     0.00   0.62760   3 ;   H14T-  C114-  C113-  H13S
  2125   2126   2129   2132      9     0.00   0.66944   3 ;   H14T-  C114-  C113-  C112
  2126   2129   2132   2133      9     0.00   0.66944   3 ;   C114-  C113-  C112-  H12R
  2126   2129   2132   2134      9     0.00   0.66944   3 ;   C114-  C113-  C112-  H12S
  2126   2129   2132   2135      9     0.00   0.41840   1 ;   C114-  C113-  C112-  C111
  2126   2129   2132   2135      9     0.00   0.41840   2 ;   C114-  C113-  C112-  C111
  2126   2129   2132   2135      9     0.00   0.41840   4 ;   C114-  C113-  C112-  C111
  2126   2129   2132   2135      9     0.00   0.41840   5 ;   C114-  C113-  C112-  C111
  2126   2129   2132   2135      9     0.00   1.25520   3 ;   C114-  C113-  C112-  C111
  2127   2126   2129   2130      9     0.00   0.62760   3 ;   H14R-  C114-  C113-  H13R
  2127   2126   2129   2131      9     0.00   0.62760   3 ;   H14R-  C114-  C113-  H13S
  2127   2126   2129   2132      9     0.00   0.66944   3 ;   H14R-  C114-  C113-  C112
  2128   2126   2129   2130      9     0.00   0.62760   3 ;   H14S-  C114-  C113-  H13R
  2128   2126   2129   2131      9     0.00   0.62760   3 ;   H14S-  C114-  C113-  H13S
  2128   2126   2129   2132      9     0.00   0.66944   3 ;   H14S-  C114-  C113-  C112
  2129   2132   2135   2136      9     0.00   0.66944   3 ;   C113-  C112-  C111-  H11R
  2129   2132   2135   2137      9     0.00   0.66944   3 ;   C113-  C112-  C111-  H11S
  2129   2132   2135   2138      9     0.00   0.41840   1 ;   C113-  C112-  C111-  C110
  2129   2132   2135   2138      9     0.00   0.41840   2 ;   C113-  C112-  C111-  C110
  2129   2132   2135   2138      9     0.00   0.41840   4 ;   C113-  C112-  C111-  C110
  2129   2132   2135   2138      9     0.00   0.41840   5 ;   C113-  C112-  C111-  C110
  2129   2132   2135   2138      9     0.00   1.25520   3 ;   C113-  C112-  C111-  C110
  2130   2129   2132   2133      9     0.00   0.62760   3 ;   H13R-  C113-  C112-  H12R
  2130   2129   2132   2134      9     0.00   0.62760   3 ;   H13R-  C113-  C112-  H12S
  2130   2129   2132   2135      9     0.00   0.66944   3 ;   H13R-  C113-  C112-  C111
  2131   2129   2132   2133      9     0.00   0.62760   3 ;   H13S-  C113-  C112-  H12R
  2131   2129   2132   2134      9     0.00   0.62760   3 ;   H13S-  C113-  C112-  H12S
  2131   2129   2132   2135      9     0.00   0.66944   3 ;   H13S-  C113-  C112-  C111
  2132   2135   2138   2139      9     0.00   0.66944   3 ;   C112-  C111-  C110-  H10R
  2132   2135   2138   2140      9     0.00   0.66944   3 ;   C112-  C111-  C110-  H10S
  2132   2135   2138   2141      9     0.00   0.41840   1 ;   C112-  C111-  C110-   C19
  2132   2135   2138   2141      9     0.00   0.41840   2 ;   C112-  C111-  C110-   C19
  2132   2135   2138   2141      9     0.00   0.41840   4 ;   C112-  C111-  C110-   C19
  2132   2135   2138   2141      9     0.00   0.41840   5 ;   C112-  C111-  C110-   C19
  2132   2135   2138   2141      9     0.00   1.25520   3 ;   C112-  C111-  C110-   C19
  2133   2132   2135   2136      9     0.00   0.62760   3 ;   H12R-  C112-  C111-  H11R
  2133   2132   2135   2137      9     0.00   0.62760   3 ;   H12R-  C112-  C111-  H11S
  2133   2132   2135   2138      9     0.00   0.66944   3 ;   H12R-  C112-  C111-  C110
  2134   2132   2135   2136      9     0.00   0.62760   3 ;   H12S-  C112-  C111-  H11R
  2134   2132   2135   2137      9     0.00   0.62760   3 ;   H12S-  C112-  C111-  H11S
  2134   2132   2135   2138      9     0.00   0.66944   3 ;   H12S-  C112-  C111-  C110
  2135   2138   2141   2142      9     0.00   0.66944   3 ;   C111-  C110-   C19-   H9R
  2135   2138   2141   2143      9     0.00   0.66944   3 ;   C111-  C110-   C19-   H9S
  2135   2138   2141   2144      9     0.00   0.41840   1 ;   C111-  C110-   C19-   C18
  2135   2138   2141   2144      9     0.00   0.41840   2 ;   C111-  C110-   C19-   C18
  2135   2138   2141   2144      9     0.00   0.41840   4 ;   C111-  C110-   C19-   C18
  2135   2138   2141   2144      9     0.00   0.41840   5 ;   C111-  C110-   C19-   C18
  2135   2138   2141   2144      9     0.00   1.25520   3 ;   C111-  C110-   C19-   C18
  2136   2135   2138   2139      9     0.00   0.62760   3 ;   H11R-  C111-  C110-  H10R
  2136   2135   2138   2140      9     0.00   0.62760   3 ;   H11R-  C111-  C110-  H10S
  2136   2135   2138   2141      9     0.00   0.66944   3 ;   H11R-  C111-  C110-   C19
  2137   2135   2138   2139      9     0.00   0.62760   3 ;   H11S-  C111-  C110-  H10R
  2137   2135   2138   2140      9     0.00   0.62760   3 ;   H11S-  C111-  C110-  H10S
  2137   2135   2138   2141      9     0.00   0.66944   3 ;   H11S-  C111-  C110-   C19
  2138   2141   2144   2145      9     0.00   0.66944   3 ;   C110-   C19-   C18-   H8R
  2138   2141   2144   2146      9     0.00   0.66944   3 ;   C110-   C19-   C18-   H8S
  2138   2141   2144   2147      9     0.00   0.41840   1 ;   C110-   C19-   C18-   C17
  2138   2141   2144   2147      9     0.00   0.41840   2 ;   C110-   C19-   C18-   C17
  2138   2141   2144   2147      9     0.00   0.41840   4 ;   C110-   C19-   C18-   C17
  2138   2141   2144   2147      9     0.00   0.41840   5 ;   C110-   C19-   C18-   C17
  2138   2141   2144   2147      9     0.00   1.25520   3 ;   C110-   C19-   C18-   C17
  2139   2138   2141   2142      9     0.00   0.62760   3 ;   H10R-  C110-   C19-   H9R
  2139   2138   2141   2143      9     0.00   0.62760   3 ;   H10R-  C110-   C19-   H9S
  2139   2138   2141   2144      9     0.00   0.66944   3 ;   H10R-  C110-   C19-   C18
  2140   2138   2141   2142      9     0.00   0.62760   3 ;   H10S-  C110-   C19-   H9R
  2140   2138   2141   2143      9     0.00   0.62760   3 ;   H10S-  C110-   C19-   H9S
  2140   2138   2141   2144      9     0.00   0.66944   3 ;   H10S-  C110-   C19-   C18
  2141   2144   2147   2148      9     0.00   0.66944   3 ;    C19-   C18-   C17-   H7R
  2141   2144   2147   2149      9     0.00   0.66944   3 ;    C19-   C18-   C17-   H7S
  2141   2144   2147   2150      9     0.00   0.41840   1 ;    C19-   C18-   C17-   C16
  2141   2144   2147   2150      9     0.00   0.41840   2 ;    C19-   C18-   C17-   C16
  2141   2144   2147   2150      9     0.00   0.41840   4 ;    C19-   C18-   C17-   C16
  2141   2144   2147   2150      9     0.00   0.41840   5 ;    C19-   C18-   C17-   C16
  2141   2144   2147   2150      9     0.00   1.25520   3 ;    C19-   C18-   C17-   C16
  2142   2141   2144   2145      9     0.00   0.62760   3 ;    H9R-   C19-   C18-   H8R
  2142   2141   2144   2146      9     0.00   0.62760   3 ;    H9R-   C19-   C18-   H8S
  2142   2141   2144   2147      9     0.00   0.66944   3 ;    H9R-   C19-   C18-   C17
  2143   2141   2144   2145      9     0.00   0.62760   3 ;    H9S-   C19-   C18-   H8R
  2143   2141   2144   2146      9     0.00   0.62760   3 ;    H9S-   C19-   C18-   H8S
  2143   2141   2144   2147      9     0.00   0.66944   3 ;    H9S-   C19-   C18-   C17
  2144   2147   2150   2151      9     0.00   0.66944   3 ;    C18-   C17-   C16-   H6R
  2144   2147   2150   2152      9     0.00   0.66944   3 ;    C18-   C17-   C16-   H6S
  2144   2147   2150   2153      9     0.00   0.41840   1 ;    C18-   C17-   C16-   C15
  2144   2147   2150   2153      9     0.00   0.41840   2 ;    C18-   C17-   C16-   C15
  2144   2147   2150   2153      9     0.00   0.41840   4 ;    C18-   C17-   C16-   C15
  2144   2147   2150   2153      9     0.00   0.41840   5 ;    C18-   C17-   C16-   C15
  2144   2147   2150   2153      9     0.00   1.25520   3 ;    C18-   C17-   C16-   C15
  2145   2144   2147   2148      9     0.00   0.62760   3 ;    H8R-   C18-   C17-   H7R
  2145   2144   2147   2149      9     0.00   0.62760   3 ;    H8R-   C18-   C17-   H7S
  2145   2144   2147   2150      9     0.00   0.66944   3 ;    H8R-   C18-   C17-   C16
  2146   2144   2147   2148      9     0.00   0.62760   3 ;    H8S-   C18-   C17-   H7R
  2146   2144   2147   2149      9     0.00   0.62760   3 ;    H8S-   C18-   C17-   H7S
  2146   2144   2147   2150      9     0.00   0.66944   3 ;    H8S-   C18-   C17-   C16
  2147   2150   2153   2154      9     0.00   0.66944   3 ;    C17-   C16-   C15-   H5R
  2147   2150   2153   2155      9     0.00   0.66944   3 ;    C17-   C16-   C15-   H5S
  2147   2150   2153   2156      9     0.00   0.41840   1 ;    C17-   C16-   C15-   C14
  2147   2150   2153   2156      9     0.00   0.41840   2 ;    C17-   C16-   C15-   C14
  2147   2150   2153   2156      9     0.00   0.41840   4 ;    C17-   C16-   C15-   C14
  2147   2150   2153   2156      9     0.00   0.41840   5 ;    C17-   C16-   C15-   C14
  2147   2150   2153   2156      9     0.00   1.25520   3 ;    C17-   C16-   C15-   C14
  2148   2147   2150   2151      9     0.00   0.62760   3 ;    H7R-   C17-   C16-   H6R
  2148   2147   2150   2152      9     0.00   0.62760   3 ;    H7R-   C17-   C16-   H6S
  2148   2147   2150   2153      9     0.00   0.66944   3 ;    H7R-   C17-   C16-   C15
  2149   2147   2150   2151      9     0.00   0.62760   3 ;    H7S-   C17-   C16-   H6R
  2149   2147   2150   2152      9     0.00   0.62760   3 ;    H7S-   C17-   C16-   H6S
  2149   2147   2150   2153      9     0.00   0.66944   3 ;    H7S-   C17-   C16-   C15
  2150   2153   2156   2157      9     0.00   0.66944   3 ;    C16-   C15-   C14-   H4R
  2150   2153   2156   2158      9     0.00   0.66944   3 ;    C16-   C15-   C14-   H4S
  2150   2153   2156   2159      9     0.00   0.41840   1 ;    C16-   C15-   C14-   C13
  2150   2153   2156   2159      9     0.00   0.41840   2 ;    C16-   C15-   C14-   C13
  2150   2153   2156   2159      9     0.00   0.41840   4 ;    C16-   C15-   C14-   C13
  2150   2153   2156   2159      9     0.00   0.41840   5 ;    C16-   C15-   C14-   C13
  2150   2153   2156   2159      9     0.00   1.25520   3 ;    C16-   C15-   C14-   C13
  2151   2150   2153   2154      9     0.00   0.62760   3 ;    H6R-   C16-   C15-   H5R
  2151   2150   2153   2155      9     0.00   0.62760   3 ;    H6R-   C16-   C15-   H5S
  2151   2150   2153   2156      9     0.00   0.66944   3 ;    H6R-   C16-   C15-   C14
  2152   2150   2153   2154      9     0.00   0.62760   3 ;    H6S-   C16-   C15-   H5R
  2152   2150   2153   2155      9     0.00   0.62760   3 ;    H6S-   C16-   C15-   H5S
  2152   2150   2153   2156      9     0.00   0.66944   3 ;    H6S-   C16-   C15-   C14
  2153   2156   2159   2160      9     0.00   0.66944   3 ;    C15-   C14-   C13-   H3R
  2153   2156   2159   2161      9     0.00   0.66944   3 ;    C15-   C14-   C13-   H3S
  2153   2156   2159   2162      9     0.00   0.41840   1 ;    C15-   C14-   C13-   C12
  2153   2156   2159   2162      9     0.00   0.41840   2 ;    C15-   C14-   C13-   C12
  2153   2156   2159   2162      9     0.00   0.41840   4 ;    C15-   C14-   C13-   C12
  2153   2156   2159   2162      9     0.00   0.41840   5 ;    C15-   C14-   C13-   C12
  2153   2156   2159   2162      9     0.00   1.25520   3 ;    C15-   C14-   C13-   C12
  2154   2153   2156   2157      9     0.00   0.62760   3 ;    H5R-   C15-   C14-   H4R
  2154   2153   2156   2158      9     0.00   0.62760   3 ;    H5R-   C15-   C14-   H4S
  2154   2153   2156   2159      9     0.00   0.66944   3 ;    H5R-   C15-   C14-   C13
  2155   2153   2156   2157      9     0.00   0.62760   3 ;    H5S-   C15-   C14-   H4R
  2155   2153   2156   2158      9     0.00   0.62760   3 ;    H5S-   C15-   C14-   H4S
  2155   2153   2156   2159      9     0.00   0.66944   3 ;    H5S-   C15-   C14-   C13
  2156   2159   2162   2163      9     0.00   0.66944   3 ;    C14-   C13-   C12-   H2R
  2156   2159   2162   2164      9     0.00   0.66944   3 ;    C14-   C13-   C12-   H2S
  2156   2159   2162   2165      9     0.00   0.65270   3 ;    C14-   C13-   C12-   C11
  2157   2156   2159   2160      9     0.00   0.62760   3 ;    H4R-   C14-   C13-   H3R
  2157   2156   2159   2161      9     0.00   0.62760   3 ;    H4R-   C14-   C13-   H3S
  2157   2156   2159   2162      9     0.00   0.66944   3 ;    H4R-   C14-   C13-   C12
  2158   2156   2159   2160      9     0.00   0.62760   3 ;    H4S-   C14-   C13-   H3R
  2158   2156   2159   2161      9     0.00   0.62760   3 ;    H4S-   C14-   C13-   H3S
  2158   2156   2159   2162      9     0.00   0.66944   3 ;    H4S-   C14-   C13-   C12
  2159   2162   2165   2166      9   180.00   0.00000   2 ;    C13-   C12-   C11-   O12
  2159   2162   2165   2167      9   180.00   0.00000   2 ;    C13-   C12-   C11-   O11
  2160   2159   2162   2163      9     0.00   0.62760   3 ;    H3R-   C13-   C12-   H2R
  2160   2159   2162   2164      9     0.00   0.62760   3 ;    H3R-   C13-   C12-   H2S
  2160   2159   2162   2165      9     0.00   0.65270   3 ;    H3R-   C13-   C12-   C11
  2161   2159   2162   2163      9     0.00   0.62760   3 ;    H3S-   C13-   C12-   H2R
  2161   2159   2162   2164      9     0.00   0.62760   3 ;    H3S-   C13-   C12-   H2S
  2161   2159   2162   2165      9     0.00   0.65270   3 ;    H3S-   C13-   C12-   C11
  2162   2165   2167   2168      9   180.00  11.29680   2 ;    C12-   C11-   O11-    C1
  2163   2162   2165   2166      9     0.00   3.34720   1 ;    H2R-   C12-   C11-   O12
  2163   2162   2165   2166      9   180.00   0.33472   3 ;    H2R-   C12-   C11-   O12
  2163   2162   2165   2167      9   180.00   0.00000   2 ;    H2R-   C12-   C11-   O11
  2164   2162   2165   2166      9     0.00   3.34720   1 ;    H2S-   C12-   C11-   O12
  2164   2162   2165   2166      9   180.00   0.33472   3 ;    H2S-   C12-   C11-   O12
  2164   2162   2165   2167      9   180.00   0.00000   2 ;    H2S-   C12-   C11-   O11
  2165   2167   2168   2169      9     0.00   1.60247   3 ;    C11-   O11-    C1-    HR
  2165   2167   2168   2170      9     0.00   1.60247   3 ;    C11-   O11-    C1-    HS
  2165   2167   2168   2171      9     0.00  -0.41840   1 ;    C11-   O11-    C1-    C2
  2166   2165   2167   2168      9   180.00   5.85760   1 ;    O12-   C11-   O11-    C1
  2166   2165   2167   2168      9   180.00  11.29680   2 ;    O12-   C11-   O11-    C1
  2167   2168   2171   2172      9     0.00   0.00000   0 ;    O11-    C1-    C2-    HX
  2167   2168   2171   2172      9     0.00   1.04600   1 ;    O11-    C1-    C2-    HX
  2167   2168   2171   2173      9     0.00   0.00000   0 ;    O11-    C1-    C2-    C3
  2167   2168   2171   2173      9     0.00   0.00000   0 ;    O11-    C1-    C2-    C3
  2167   2168   2171   2173      9     0.00   0.00000   0 ;    O11-    C1-    C2-    C3
  2167   2168   2171   2173      9     0.00   0.00000   0 ;    O11-    C1-    C2-    C3
  2167   2168   2171   2173      9     0.00   0.00000   0 ;    O11-    C1-    C2-    C3
  2167   2168   2171   2200      9     0.00   1.25520   2 ;    O11-    C1-    C2-   O21
  2167   2168   2171   2200      9     0.00   4.18400   3 ;    O11-    C1-    C2-   O21
  2167   2168   2171   2200      9   180.00  -0.41840   1 ;    O11-    C1-    C2-   O21
  2168   2171   2173   2174      9     0.00   0.65270   3 ;     C1-    C2-    C3-    HA
  2168   2171   2173   2175      9     0.00   0.65270   3 ;     C1-    C2-    C3-    HB
  2168   2171   2173   2176      9   180.00   3.34720   1 ;     C1-    C2-    C3-   O31
  2168   2171   2200   2201      9     0.00  -0.41840   1 ;     C1-    C2-   O21-   C21
  2169   2168   2171   2172      9     0.00   0.65270   3 ;     HR-    C1-    C2-    HX
  2169   2168   2171   2173      9     0.00   0.65270   3 ;     HR-    C1-    C2-    C3
  2169   2168   2171   2200      9     0.00   0.00000   0 ;     HR-    C1-    C2-   O21
  2169   2168   2171   2200      9     0.00   1.04600   1 ;     HR-    C1-    C2-   O21
  2170   2168   2171   2172      9     0.00   0.65270   3 ;     HS-    C1-    C2-    HX
  2170   2168   2171   2173      9     0.00   0.65270   3 ;     HS-    C1-    C2-    C3
  2170   2168   2171   2200      9     0.00   0.00000   0 ;     HS-    C1-    C2-   O21
  2170   2168   2171   2200      9     0.00   1.04600   1 ;     HS-    C1-    C2-   O21
  2171   2173   2176   2177      9     0.00   0.00000   0 ;     C2-    C3-   O31-   P31
  2171   2173   2176   2177      9   180.00  -3.34720   2 ;     C2-    C3-   O31-   P31
  2171   2200   2201   2202      9   180.00   5.85760   1 ;     C2-   O21-   C21-   O22
  2171   2200   2201   2202      9   180.00  11.29680   2 ;     C2-   O21-   C21-   O22
  2171   2200   2201   2240      9   180.00  11.29680   2 ;     C2-   O21-   C21-   C12
  2172   2171   2173   2174      9     0.00   0.65270   3 ;     HX-    C2-    C3-    HA
  2172   2171   2173   2175      9     0.00   0.65270   3 ;     HX-    C2-    C3-    HB
  2172   2171   2173   2176      9     0.00   0.00000   0 ;     HX-    C2-    C3-   O31
  2172   2171   2173   2176      9     0.00   1.04600   1 ;     HX-    C2-    C3-   O31
  2172   2171   2200   2201      9     0.00   1.60247   3 ;     HX-    C2-   O21-   C21
  2173   2171   2200   2201      9     0.00  -0.41840   1 ;     C3-    C2-   O21-   C21
  2173   2176   2177   2178      9     0.00   2.51040   3 ;     C3-   O31-   P31-   O32
  2173   2176   2177   2178      9     0.00   9.62320   2 ;     C3-   O31-   P31-   O32
  2173   2176   2177   2198      9     0.00   0.00000   0 ;     C3-   O31-   P31-   O33
  2173   2176   2177   2198      9     0.00   0.00000   0 ;     C3-   O31-   P31-   O33
  2173   2176   2177   2198      9     0.00   0.00000   0 ;     C3-   O31-   P31-   O33
  2173   2176   2177   2198      9     0.00   0.00000   0 ;     C3-   O31-   P31-   O33
  2173   2176   2177   2198      9     0.00   0.83680   2 ;     C3-   O31-   P31-   O33
  2173   2176   2177   2199      9     0.00   0.00000   0 ;     C3-   O31-   P31-   O34
  2173   2176   2177   2199      9     0.00   0.00000   0 ;     C3-   O31-   P31-   O34
  2173   2176   2177   2199      9     0.00   0.00000   0 ;     C3-   O31-   P31-   O34
  2173   2176   2177   2199      9     0.00   0.00000   0 ;     C3-   O31-   P31-   O34
  2173   2176   2177   2199      9     0.00   0.83680   2 ;     C3-   O31-   P31-   O34
  2174   2173   2171   2200      9     0.00   0.00000   0 ;     HA-    C3-    C2-   O21
  2174   2173   2171   2200      9     0.00   1.04600   1 ;     HA-    C3-    C2-   O21
  2174   2173   2176   2177      9     0.00   0.00000   0 ;     HA-    C3-   O31-   P31
  2174   2173   2176   2177      9     0.00   0.00000   0 ;     HA-    C3-   O31-   P31
  2174   2173   2176   2177      9     0.00   0.00000   0 ;     HA-    C3-   O31-   P31
  2174   2173   2176   2177      9     0.00   0.00000   0 ;     HA-    C3-   O31-   P31
  2174   2173   2176   2177      9     0.00   1.60247   3 ;     HA-    C3-   O31-   P31
  2175   2173   2171   2200      9     0.00   0.00000   0 ;     HB-    C3-    C2-   O21
  2175   2173   2171   2200      9     0.00   1.04600   1 ;     HB-    C3-    C2-   O21
  2175   2173   2176   2177      9     0.00   0.00000   0 ;     HB-    C3-   O31-   P31
  2175   2173   2176   2177      9     0.00   0.00000   0 ;     HB-    C3-   O31-   P31
  2175   2173   2176   2177      9     0.00   0.00000   0 ;     HB-    C3-   O31-   P31
  2175   2173   2176   2177      9     0.00   0.00000   0 ;     HB-    C3-   O31-   P31
  2175   2173   2176   2177      9     0.00   1.60247   3 ;     HB-    C3-   O31-   P31
  2176   2173   2171   2200      9     0.00   0.00000   0 ;    O31-    C3-    C2-   O21
  2176   2173   2171   2200      9     0.00   0.00000   0 ;    O31-    C3-    C2-   O21
  2176   2173   2171   2200      9     0.00   0.00000   0 ;    O31-    C3-    C2-   O21
  2176   2173   2171   2200      9     0.00   0.00000   0 ;    O31-    C3-    C2-   O21
  2176   2173   2171   2200      9     0.00   0.00000   0 ;    O31-    C3-    C2-   O21
  2176   2177   2178   2179      9     0.00   2.51040   3 ;    O31-   P31-   O32-   C31
  2176   2177   2178   2179      9     0.00   9.62320   2 ;    O31-   P31-   O32-   C31
  2177   2178   2179   2180      9     0.00   0.00000   0 ;    P31-   O32-   C31-   H1A
  2177   2178   2179   2180      9     0.00   0.00000   0 ;    P31-   O32-   C31-   H1A
  2177   2178   2179   2180      9     0.00   0.00000   0 ;    P31-   O32-   C31-   H1A
  2177   2178   2179   2180      9     0.00   0.00000   0 ;    P31-   O32-   C31-   H1A
  2177   2178   2179   2180      9     0.00   1.60247   3 ;    P31-   O32-   C31-   H1A
  2177   2178   2179   2181      9     0.00   0.00000   0 ;    P31-   O32-   C31-   H1B
  2177   2178   2179   2181      9     0.00   0.00000   0 ;    P31-   O32-   C31-   H1B
  2177   2178   2179   2181      9     0.00   0.00000   0 ;    P31-   O32-   C31-   H1B
  2177   2178   2179   2181      9     0.00   0.00000   0 ;    P31-   O32-   C31-   H1B
  2177   2178   2179   2181      9     0.00   1.60247   3 ;    P31-   O32-   C31-   H1B
  2177   2178   2179   2182      9     0.00   0.00000   0 ;    P31-   O32-   C31-   C32
  2177   2178   2179   2182      9   180.00  -3.34720   2 ;    P31-   O32-   C31-   C32
  2178   2179   2182   2183      9     0.00   0.65270   3 ;    O32-   C31-   C32-   H2A
  2178   2179   2182   2184      9     0.00   0.65270   3 ;    O32-   C31-   C32-   H2B
  2178   2179   2182   2185      9     0.00   4.18400   3 ;    O32-   C31-   C32-   N31
  2179   2178   2177   2198      9     0.00   0.00000   0 ;    C31-   O32-   P31-   O33
  2179   2178   2177   2198      9     0.00   0.00000   0 ;    C31-   O32-   P31-   O33
  2179   2178   2177   2198      9     0.00   0.00000   0 ;    C31-   O32-   P31-   O33
  2179   2178   2177   2198      9     0.00   0.00000   0 ;    C31-   O32-   P31-   O33
  2179   2178   2177   2198      9     0.00   0.83680   2 ;    C31-   O32-   P31-   O33
  2179   2178   2177   2199      9     0.00   0.00000   0 ;    C31-   O32-   P31-   O34
  2179   2178   2177   2199      9     0.00   0.00000   0 ;    C31-   O32-   P31-   O34
  2179   2178   2177   2199      9     0.00   0.00000   0 ;    C31-   O32-   P31-   O34
  2179   2178   2177   2199      9     0.00   0.00000   0 ;    C31-   O32-   P31-   O34
  2179   2178   2177   2199      9     0.00   0.83680   2 ;    C31-   O32-   P31-   O34
  2179   2182   2185   2186      9     0.00   0.65270   3 ;    C31-   C32-   N31-   C33
  2179   2182   2185   2190      9     0.00   0.65270   3 ;    C31-   C32-   N31-   C34
  2179   2182   2185   2194      9     0.00   0.65270   3 ;    C31-   C32-   N31-   C35
  2180   2179   2182   2183      9     0.00   0.65270   3 ;    H1A-   C31-   C32-   H2A
  2180   2179   2182   2184      9     0.00   0.65270   3 ;    H1A-   C31-   C32-   H2B
  2180   2179   2182   2185      9     0.00   0.65270   3 ;    H1A-   C31-   C32-   N31
  2181   2179   2182   2183      9     0.00   0.65270   3 ;    H1B-   C31-   C32-   H2A
  2181   2179   2182   2184      9     0.00   0.65270   3 ;    H1B-   C31-   C32-   H2B
  2181   2179   2182   2185      9     0.00   0.65270   3 ;    H1B-   C31-   C32-   N31
  2182   2185   2186   2187      9     0.00   0.65270   3 ;    C32-   N31-   C33-   H3A
  2182   2185   2186   2188      9     0.00   0.65270   3 ;    C32-   N31-   C33-   H3B
  2182   2185   2186   2189      9     0.00   0.65270   3 ;    C32-   N31-   C33-   H3C
  2182   2185   2190   2191      9     0.00   0.65270   3 ;    C32-   N31-   C34-   H4A
  2182   2185   2190   2192      9     0.00   0.65270   3 ;    C32-   N31-   C34-   H4B
  2182   2185   2190   2193      9     0.00   0.65270   3 ;    C32-   N31-   C34-   H4C
  2182   2185   2194   2195      9     0.00   0.65270   3 ;    C32-   N31-   C35-   H5A
  2182   2185   2194   2196      9     0.00   0.65270   3 ;    C32-   N31-   C35-   H5B
  2182   2185   2194   2197      9     0.00   0.65270   3 ;    C32-   N31-   C35-   H5C
  2183   2182   2185   2186      9     0.00   0.65270   3 ;    H2A-   C32-   N31-   C33
  2183   2182   2185   2190      9     0.00   0.65270   3 ;    H2A-   C32-   N31-   C34
  2183   2182   2185   2194      9     0.00   0.65270   3 ;    H2A-   C32-   N31-   C35
  2184   2182   2185   2186      9     0.00   0.65270   3 ;    H2B-   C32-   N31-   C33
  2184   2182   2185   2190      9     0.00   0.65270   3 ;    H2B-   C32-   N31-   C34
  2184   2182   2185   2194      9     0.00   0.65270   3 ;    H2B-   C32-   N31-   C35
  2186   2185   2190   2191      9     0.00   0.65270   3 ;    C33-   N31-   C34-   H4A
  2186   2185   2190   2192      9     0.00   0.65270   3 ;    C33-   N31-   C34-   H4B
  2186   2185   2190   2193      9     0.00   0.65270   3 ;    C33-   N31-   C34-   H4C
  2186   2185   2194   2195      9     0.00   0.65270   3 ;    C33-   N31-   C35-   H5A
  2186   2185   2194   2196      9     0.00   0.65270   3 ;    C33-   N31-   C35-   H5B
  2186   2185   2194   2197      9     0.00   0.65270   3 ;    C33-   N31-   C35-   H5C
  2187   2186   2185   2190      9     0.00   0.65270   3 ;    H3A-   C33-   N31-   C34
  2187   2186   2185   2194      9     0.00   0.65270   3 ;    H3A-   C33-   N31-   C35
  2188   2186   2185   2190      9     0.00   0.65270   3 ;    H3B-   C33-   N31-   C34
  2188   2186   2185   2194      9     0.00   0.65270   3 ;    H3B-   C33-   N31-   C35
  2189   2186   2185   2190      9     0.00   0.65270   3 ;    H3C-   C33-   N31-   C34
  2189   2186   2185   2194      9     0.00   0.65270   3 ;    H3C-   C33-   N31-   C35
  2190   2185   2194   2195      9     0.00   0.65270   3 ;    C34-   N31-   C35-   H5A
  2190   2185   2194   2196      9     0.00   0.65270   3 ;    C34-   N31-   C35-   H5B
  2190   2185   2194   2197      9     0.00   0.65270   3 ;    C34-   N31-   C35-   H5C
  2191   2190   2185   2194      9     0.00   0.65270   3 ;    H4A-   C34-   N31-   C35
  2192   2190   2185   2194      9     0.00   0.65270   3 ;    H4B-   C34-   N31-   C35
  2193   2190   2185   2194      9     0.00   0.65270   3 ;    H4C-   C34-   N31-   C35
  2200   2201   2240   2237      9   180.00   0.00000   2 ;    O21-   C21-   C12-   C13
  2200   2201   2240   2241      9   180.00   0.00000   2 ;    O21-   C21-   C12-   H2R
  2200   2201   2240   2242      9   180.00   0.00000   2 ;    O21-   C21-   C12-   H2S
  2201   2240   2237   2234      9     0.00   0.65270   3 ;    C21-   C12-   C13-   C14
  2201   2240   2237   2238      9     0.00   0.65270   3 ;    C21-   C12-   C13-   H3R
  2201   2240   2237   2239      9     0.00   0.65270   3 ;    C21-   C12-   C13-   H3S
  2202   2201   2240   2237      9   180.00   0.00000   2 ;    O22-   C21-   C12-   C13
  2202   2201   2240   2241      9     0.00   3.34720   1 ;    O22-   C21-   C12-   H2R
  2202   2201   2240   2241      9   180.00   0.33472   3 ;    O22-   C21-   C12-   H2R
  2202   2201   2240   2242      9     0.00   3.34720   1 ;    O22-   C21-   C12-   H2S
  2202   2201   2240   2242      9   180.00   0.33472   3 ;    O22-   C21-   C12-   H2S
  2203   2204   2207   2208      9     0.00   0.62760   3 ;   H14T-  C114-  C113-  H13R
  2203   2204   2207   2209      9     0.00   0.62760   3 ;   H14T-  C114-  C113-  H13S
  2203   2204   2207   2210      9     0.00   0.66944   3 ;   H14T-  C114-  C113-  C112
  2204   2207   2210   2211      9     0.00   0.66944   3 ;   C114-  C113-  C112-  H12R
  2204   2207   2210   2212      9     0.00   0.66944   3 ;   C114-  C113-  C112-  H12S
  2204   2207   2210   2213      9     0.00   0.41840   1 ;   C114-  C113-  C112-  C111
  2204   2207   2210   2213      9     0.00   0.41840   2 ;   C114-  C113-  C112-  C111
  2204   2207   2210   2213      9     0.00   0.41840   4 ;   C114-  C113-  C112-  C111
  2204   2207   2210   2213      9     0.00   0.41840   5 ;   C114-  C113-  C112-  C111
  2204   2207   2210   2213      9     0.00   1.25520   3 ;   C114-  C113-  C112-  C111
  2205   2204   2207   2208      9     0.00   0.62760   3 ;   H14R-  C114-  C113-  H13R
  2205   2204   2207   2209      9     0.00   0.62760   3 ;   H14R-  C114-  C113-  H13S
  2205   2204   2207   2210      9     0.00   0.66944   3 ;   H14R-  C114-  C113-  C112
  2206   2204   2207   2208      9     0.00   0.62760   3 ;   H14S-  C114-  C113-  H13R
  2206   2204   2207   2209      9     0.00   0.62760   3 ;   H14S-  C114-  C113-  H13S
  2206   2204   2207   2210      9     0.00   0.66944   3 ;   H14S-  C114-  C113-  C112
  2207   2210   2213   2214      9     0.00   0.66944   3 ;   C113-  C112-  C111-  H11R
  2207   2210   2213   2215      9     0.00   0.66944   3 ;   C113-  C112-  C111-  H11S
  2207   2210   2213   2216      9     0.00   0.41840   1 ;   C113-  C112-  C111-  C110
  2207   2210   2213   2216      9     0.00   0.41840   2 ;   C113-  C112-  C111-  C110
  2207   2210   2213   2216      9     0.00   0.41840   4 ;   C113-  C112-  C111-  C110
  2207   2210   2213   2216      9     0.00   0.41840   5 ;   C113-  C112-  C111-  C110
  2207   2210   2213   2216      9     0.00   1.25520   3 ;   C113-  C112-  C111-  C110
  2208   2207   2210   2211      9     0.00   0.62760   3 ;   H13R-  C113-  C112-  H12R
  2208   2207   2210   2212      9     0.00   0.62760   3 ;   H13R-  C113-  C112-  H12S
  2208   2207   2210   2213      9     0.00   0.66944   3 ;   H13R-  C113-  C112-  C111
  2209   2207   2210   2211      9     0.00   0.62760   3 ;   H13S-  C113-  C112-  H12R
  2209   2207   2210   2212      9     0.00   0.62760   3 ;   H13S-  C113-  C112-  H12S
  2209   2207   2210   2213      9     0.00   0.66944   3 ;   H13S-  C113-  C112-  C111
  2210   2213   2216   2217      9     0.00   0.66944   3 ;   C112-  C111-  C110-  H10R
  2210   2213   2216   2218      9     0.00   0.66944   3 ;   C112-  C111-  C110-  H10S
  2210   2213   2216   2219      9     0.00   0.41840   1 ;   C112-  C111-  C110-   C19
  2210   2213   2216   2219      9     0.00   0.41840   2 ;   C112-  C111-  C110-   C19
  2210   2213   2216   2219      9     0.00   0.41840   4 ;   C112-  C111-  C110-   C19
  2210   2213   2216   2219      9     0.00   0.41840   5 ;   C112-  C111-  C110-   C19
  2210   2213   2216   2219      9     0.00   1.25520   3 ;   C112-  C111-  C110-   C19
  2211   2210   2213   2214      9     0.00   0.62760   3 ;   H12R-  C112-  C111-  H11R
  2211   2210   2213   2215      9     0.00   0.62760   3 ;   H12R-  C112-  C111-  H11S
  2211   2210   2213   2216      9     0.00   0.66944   3 ;   H12R-  C112-  C111-  C110
  2212   2210   2213   2214      9     0.00   0.62760   3 ;   H12S-  C112-  C111-  H11R
  2212   2210   2213   2215      9     0.00   0.62760   3 ;   H12S-  C112-  C111-  H11S
  2212   2210   2213   2216      9     0.00   0.66944   3 ;   H12S-  C112-  C111-  C110
  2213   2216   2219   2220      9     0.00   0.66944   3 ;   C111-  C110-   C19-   H9R
  2213   2216   2219   2221      9     0.00   0.66944   3 ;   C111-  C110-   C19-   H9S
  2213   2216   2219   2222      9     0.00   0.41840   1 ;   C111-  C110-   C19-   C18
  2213   2216   2219   2222      9     0.00   0.41840   2 ;   C111-  C110-   C19-   C18
  2213   2216   2219   2222      9     0.00   0.41840   4 ;   C111-  C110-   C19-   C18
  2213   2216   2219   2222      9     0.00   0.41840   5 ;   C111-  C110-   C19-   C18
  2213   2216   2219   2222      9     0.00   1.25520   3 ;   C111-  C110-   C19-   C18
  2214   2213   2216   2217      9     0.00   0.62760   3 ;   H11R-  C111-  C110-  H10R
  2214   2213   2216   2218      9     0.00   0.62760   3 ;   H11R-  C111-  C110-  H10S
  2214   2213   2216   2219      9     0.00   0.66944   3 ;   H11R-  C111-  C110-   C19
  2215   2213   2216   2217      9     0.00   0.62760   3 ;   H11S-  C111-  C110-  H10R
  2215   2213   2216   2218      9     0.00   0.62760   3 ;   H11S-  C111-  C110-  H10S
  2215   2213   2216   2219      9     0.00   0.66944   3 ;   H11S-  C111-  C110-   C19
  2216   2219   2222   2223      9     0.00   0.66944   3 ;   C110-   C19-   C18-   H8R
  2216   2219   2222   2224      9     0.00   0.66944   3 ;   C110-   C19-   C18-   H8S
  2216   2219   2222   2225      9     0.00   0.41840   1 ;   C110-   C19-   C18-   C17
  2216   2219   2222   2225      9     0.00   0.41840   2 ;   C110-   C19-   C18-   C17
  2216   2219   2222   2225      9     0.00   0.41840   4 ;   C110-   C19-   C18-   C17
  2216   2219   2222   2225      9     0.00   0.41840   5 ;   C110-   C19-   C18-   C17
  2216   2219   2222   2225      9     0.00   1.25520   3 ;   C110-   C19-   C18-   C17
  2217   2216   2219   2220      9     0.00   0.62760   3 ;   H10R-  C110-   C19-   H9R
  2217   2216   2219   2221      9     0.00   0.62760   3 ;   H10R-  C110-   C19-   H9S
  2217   2216   2219   2222      9     0.00   0.66944   3 ;   H10R-  C110-   C19-   C18
  2218   2216   2219   2220      9     0.00   0.62760   3 ;   H10S-  C110-   C19-   H9R
  2218   2216   2219   2221      9     0.00   0.62760   3 ;   H10S-  C110-   C19-   H9S
  2218   2216   2219   2222      9     0.00   0.66944   3 ;   H10S-  C110-   C19-   C18
  2219   2222   2225   2226      9     0.00   0.66944   3 ;    C19-   C18-   C17-   H7R
  2219   2222   2225   2227      9     0.00   0.66944   3 ;    C19-   C18-   C17-   H7S
  2219   2222   2225   2228      9     0.00   0.41840   1 ;    C19-   C18-   C17-   C16
  2219   2222   2225   2228      9     0.00   0.41840   2 ;    C19-   C18-   C17-   C16
  2219   2222   2225   2228      9     0.00   0.41840   4 ;    C19-   C18-   C17-   C16
  2219   2222   2225   2228      9     0.00   0.41840   5 ;    C19-   C18-   C17-   C16
  2219   2222   2225   2228      9     0.00   1.25520   3 ;    C19-   C18-   C17-   C16
  2220   2219   2222   2223      9     0.00   0.62760   3 ;    H9R-   C19-   C18-   H8R
  2220   2219   2222   2224      9     0.00   0.62760   3 ;    H9R-   C19-   C18-   H8S
  2220   2219   2222   2225      9     0.00   0.66944   3 ;    H9R-   C19-   C18-   C17
  2221   2219   2222   2223      9     0.00   0.62760   3 ;    H9S-   C19-   C18-   H8R
  2221   2219   2222   2224      9     0.00   0.62760   3 ;    H9S-   C19-   C18-   H8S
  2221   2219   2222   2225      9     0.00   0.66944   3 ;    H9S-   C19-   C18-   C17
  2222   2225   2228   2229      9     0.00   0.66944   3 ;    C18-   C17-   C16-   H6R
  2222   2225   2228   2230      9     0.00   0.66944   3 ;    C18-   C17-   C16-   H6S
  2222   2225   2228   2231      9     0.00   0.41840   1 ;    C18-   C17-   C16-   C15
  2222   2225   2228   2231      9     0.00   0.41840   2 ;    C18-   C17-   C16-   C15
  2222   2225   2228   2231      9     0.00   0.41840   4 ;    C18-   C17-   C16-   C15
  2222   2225   2228   2231      9     0.00   0.41840   5 ;    C18-   C17-   C16-   C15
  2222   2225   2228   2231      9     0.00   1.25520   3 ;    C18-   C17-   C16-   C15
  2223   2222   2225   2226      9     0.00   0.62760   3 ;    H8R-   C18-   C17-   H7R
  2223   2222   2225   2227      9     0.00   0.62760   3 ;    H8R-   C18-   C17-   H7S
  2223   2222   2225   2228      9     0.00   0.66944   3 ;    H8R-   C18-   C17-   C16
  2224   2222   2225   2226      9     0.00   0.62760   3 ;    H8S-   C18-   C17-   H7R
  2224   2222   2225   2227      9     0.00   0.62760   3 ;    H8S-   C18-   C17-   H7S
  2224   2222   2225   2228      9     0.00   0.66944   3 ;    H8S-   C18-   C17-   C16
  2225   2228   2231   2232      9     0.00   0.66944   3 ;    C17-   C16-   C15-   H5R
  2225   2228   2231   2233      9     0.00   0.66944   3 ;    C17-   C16-   C15-   H5S
  2225   2228   2231   2234      9     0.00   0.41840   1 ;    C17-   C16-   C15-   C14
  2225   2228   2231   2234      9     0.00   0.41840   2 ;    C17-   C16-   C15-   C14
  2225   2228   2231   2234      9     0.00   0.41840   4 ;    C17-   C16-   C15-   C14
  2225   2228   2231   2234      9     0.00   0.41840   5 ;    C17-   C16-   C15-   C14
  2225   2228   2231   2234      9     0.00   1.25520   3 ;    C17-   C16-   C15-   C14
  2226   2225   2228   2229      9     0.00   0.62760   3 ;    H7R-   C17-   C16-   H6R
  2226   2225   2228   2230      9     0.00   0.62760   3 ;    H7R-   C17-   C16-   H6S
  2226   2225   2228   2231      9     0.00   0.66944   3 ;    H7R-   C17-   C16-   C15
  2227   2225   2228   2229      9     0.00   0.62760   3 ;    H7S-   C17-   C16-   H6R
  2227   2225   2228   2230      9     0.00   0.62760   3 ;    H7S-   C17-   C16-   H6S
  2227   2225   2228   2231      9     0.00   0.66944   3 ;    H7S-   C17-   C16-   C15
  2228   2231   2234   2235      9     0.00   0.66944   3 ;    C16-   C15-   C14-   H4R
  2228   2231   2234   2236      9     0.00   0.66944   3 ;    C16-   C15-   C14-   H4S
  2228   2231   2234   2237      9     0.00   0.41840   1 ;    C16-   C15-   C14-   C13
  2228   2231   2234   2237      9     0.00   0.41840   2 ;    C16-   C15-   C14-   C13
  2228   2231   2234   2237      9     0.00   0.41840   4 ;    C16-   C15-   C14-   C13
  2228   2231   2234   2237      9     0.00   0.41840   5 ;    C16-   C15-   C14-   C13
  2228   2231   2234   2237      9     0.00   1.25520   3 ;    C16-   C15-   C14-   C13
  2229   2228   2231   2232      9     0.00   0.62760   3 ;    H6R-   C16-   C15-   H5R
  2229   2228   2231   2233      9     0.00   0.62760   3 ;    H6R-   C16-   C15-   H5S
  2229   2228   2231   2234      9     0.00   0.66944   3 ;    H6R-   C16-   C15-   C14
  2230   2228   2231   2232      9     0.00   0.62760   3 ;    H6S-   C16-   C15-   H5R
  2230   2228   2231   2233      9     0.00   0.62760   3 ;    H6S-   C16-   C15-   H5S
  2230   2228   2231   2234      9     0.00   0.66944   3 ;    H6S-   C16-   C15-   C14
  2231   2234   2237   2238      9     0.00   0.66944   3 ;    C15-   C14-   C13-   H3R
  2231   2234   2237   2239      9     0.00   0.66944   3 ;    C15-   C14-   C13-   H3S
  2231   2234   2237   2240      9     0.00   0.41840   1 ;    C15-   C14-   C13-   C12
  2231   2234   2237   2240      9     0.00   0.41840   2 ;    C15-   C14-   C13-   C12
  2231   2234   2237   2240      9     0.00   0.41840   4 ;    C15-   C14-   C13-   C12
  2231   2234   2237   2240      9     0.00   0.41840   5 ;    C15-   C14-   C13-   C12
  2231   2234   2237   2240      9     0.00   1.25520   3 ;    C15-   C14-   C13-   C12
  2232   2231   2234   2235      9     0.00   0.62760   3 ;    H5R-   C15-   C14-   H4R
  2232   2231   2234   2236      9     0.00   0.62760   3 ;    H5R-   C15-   C14-   H4S
  2232   2231   2234   2237      9     0.00   0.66944   3 ;    H5R-   C15-   C14-   C13
  2233   2231   2234   2235      9     0.00   0.62760   3 ;    H5S-   C15-   C14-   H4R
  2233   2231   2234   2236      9     0.00   0.62760   3 ;    H5S-   C15-   C14-   H4S
  2233   2231   2234   2237      9     0.00   0.66944   3 ;    H5S-   C15-   C14-   C13
  2234   2237   2240   2241      9     0.00   0.66944   3 ;    C14-   C13-   C12-   H2R
  2234   2237   2240   2242      9     0.00   0.66944   3 ;    C14-   C13-   C12-   H2S
  2235   2234   2237   2238      9     0.00   0.62760   3 ;    H4R-   C14-   C13-   H3R
  2235   2234   2237   2239      9     0.00   0.62760   3 ;    H4R-   C14-   C13-   H3S
  2235   2234   2237   2240      9     0.00   0.66944   3 ;    H4R-   C14-   C13-   C12
  2236   2234   2237   2238      9     0.00   0.62760   3 ;    H4S-   C14-   C13-   H3R
  2236   2234   2237   2239      9     0.00   0.62760   3 ;    H4S-   C14-   C13-   H3S
  2236   2234   2237   2240      9     0.00   0.66944   3 ;    H4S-   C14-   C13-   C12
  2238   2237   2240   2241      9     0.00   0.62760   3 ;    H3R-   C13-   C12-   H2R
  2238   2237   2240   2242      9     0.00   0.62760   3 ;    H3R-   C13-   C12-   H2S
  2239   2237   2240   2241      9     0.00   0.62760   3 ;    H3S-   C13-   C12-   H2R
  2239   2237   2240   2242      9     0.00   0.62760   3 ;    H3S-   C13-   C12-   H2S
  2243   2244   2247   2248      9     0.00   0.62760   3 ;   H14T-  C114-  C113-  H13R
  2243   2244   2247   2249      9     0.00   0.62760   3 ;   H14T-  C114-  C113-  H13S
  2243   2244   2247   2250      9     0.00   0.66944   3 ;   H14T-  C114-  C113-  C112
  2244   2247   2250   2251      9     0.00   0.66944   3 ;   C114-  C113-  C112-  H12R
  2244   2247   2250   2252      9     0.00   0.66944   3 ;   C114-  C113-  C112-  H12S
  2244   2247   2250   2253      9     0.00   0.41840   1 ;   C114-  C113-  C112-  C111
  2244   2247   2250   2253      9     0.00   0.41840   2 ;   C114-  C113-  C112-  C111
  2244   2247   2250   2253      9     0.00   0.41840   4 ;   C114-  C113-  C112-  C111
  2244   2247   2250   2253      9     0.00   0.41840   5 ;   C114-  C113-  C112-  C111
  2244   2247   2250   2253      9     0.00   1.25520   3 ;   C114-  C113-  C112-  C111
  2245   2244   2247   2248      9     0.00   0.62760   3 ;   H14R-  C114-  C113-  H13R
  2245   2244   2247   2249      9     0.00   0.62760   3 ;   H14R-  C114-  C113-  H13S
  2245   2244   2247   2250      9     0.00   0.66944   3 ;   H14R-  C114-  C113-  C112
  2246   2244   2247   2248      9     0.00   0.62760   3 ;   H14S-  C114-  C113-  H13R
  2246   2244   2247   2249      9     0.00   0.62760   3 ;   H14S-  C114-  C113-  H13S
  2246   2244   2247   2250      9     0.00   0.66944   3 ;   H14S-  C114-  C113-  C112
  2247   2250   2253   2254      9     0.00   0.66944   3 ;   C113-  C112-  C111-  H11R
  2247   2250   2253   2255      9     0.00   0.66944   3 ;   C113-  C112-  C111-  H11S
  2247   2250   2253   2256      9     0.00   0.41840   1 ;   C113-  C112-  C111-  C110
  2247   2250   2253   2256      9     0.00   0.41840   2 ;   C113-  C112-  C111-  C110
  2247   2250   2253   2256      9     0.00   0.41840   4 ;   C113-  C112-  C111-  C110
  2247   2250   2253   2256      9     0.00   0.41840   5 ;   C113-  C112-  C111-  C110
  2247   2250   2253   2256      9     0.00   1.25520   3 ;   C113-  C112-  C111-  C110
  2248   2247   2250   2251      9     0.00   0.62760   3 ;   H13R-  C113-  C112-  H12R
  2248   2247   2250   2252      9     0.00   0.62760   3 ;   H13R-  C113-  C112-  H12S
  2248   2247   2250   2253      9     0.00   0.66944   3 ;   H13R-  C113-  C112-  C111
  2249   2247   2250   2251      9     0.00   0.62760   3 ;   H13S-  C113-  C112-  H12R
  2249   2247   2250   2252      9     0.00   0.62760   3 ;   H13S-  C113-  C112-  H12S
  2249   2247   2250   2253      9     0.00   0.66944   3 ;   H13S-  C113-  C112-  C111
  2250   2253   2256   2257      9     0.00   0.66944   3 ;   C112-  C111-  C110-  H10R
  2250   2253   2256   2258      9     0.00   0.66944   3 ;   C112-  C111-  C110-  H10S
  2250   2253   2256   2259      9     0.00   0.41840   1 ;   C112-  C111-  C110-   C19
  2250   2253   2256   2259      9     0.00   0.41840   2 ;   C112-  C111-  C110-   C19
  2250   2253   2256   2259      9     0.00   0.41840   4 ;   C112-  C111-  C110-   C19
  2250   2253   2256   2259      9     0.00   0.41840   5 ;   C112-  C111-  C110-   C19
  2250   2253   2256   2259      9     0.00   1.25520   3 ;   C112-  C111-  C110-   C19
  2251   2250   2253   2254      9     0.00   0.62760   3 ;   H12R-  C112-  C111-  H11R
  2251   2250   2253   2255      9     0.00   0.62760   3 ;   H12R-  C112-  C111-  H11S
  2251   2250   2253   2256      9     0.00   0.66944   3 ;   H12R-  C112-  C111-  C110
  2252   2250   2253   2254      9     0.00   0.62760   3 ;   H12S-  C112-  C111-  H11R
  2252   2250   2253   2255      9     0.00   0.62760   3 ;   H12S-  C112-  C111-  H11S
  2252   2250   2253   2256      9     0.00   0.66944   3 ;   H12S-  C112-  C111-  C110
  2253   2256   2259   2260      9     0.00   0.66944   3 ;   C111-  C110-   C19-   H9R
  2253   2256   2259   2261      9     0.00   0.66944   3 ;   C111-  C110-   C19-   H9S
  2253   2256   2259   2262      9     0.00   0.41840   1 ;   C111-  C110-   C19-   C18
  2253   2256   2259   2262      9     0.00   0.41840   2 ;   C111-  C110-   C19-   C18
  2253   2256   2259   2262      9     0.00   0.41840   4 ;   C111-  C110-   C19-   C18
  2253   2256   2259   2262      9     0.00   0.41840   5 ;   C111-  C110-   C19-   C18
  2253   2256   2259   2262      9     0.00   1.25520   3 ;   C111-  C110-   C19-   C18
  2254   2253   2256   2257      9     0.00   0.62760   3 ;   H11R-  C111-  C110-  H10R
  2254   2253   2256   2258      9     0.00   0.62760   3 ;   H11R-  C111-  C110-  H10S
  2254   2253   2256   2259      9     0.00   0.66944   3 ;   H11R-  C111-  C110-   C19
  2255   2253   2256   2257      9     0.00   0.62760   3 ;   H11S-  C111-  C110-  H10R
  2255   2253   2256   2258      9     0.00   0.62760   3 ;   H11S-  C111-  C110-  H10S
  2255   2253   2256   2259      9     0.00   0.66944   3 ;   H11S-  C111-  C110-   C19
  2256   2259   2262   2263      9     0.00   0.66944   3 ;   C110-   C19-   C18-   H8R
  2256   2259   2262   2264      9     0.00   0.66944   3 ;   C110-   C19-   C18-   H8S
  2256   2259   2262   2265      9     0.00   0.41840   1 ;   C110-   C19-   C18-   C17
  2256   2259   2262   2265      9     0.00   0.41840   2 ;   C110-   C19-   C18-   C17
  2256   2259   2262   2265      9     0.00   0.41840   4 ;   C110-   C19-   C18-   C17
  2256   2259   2262   2265      9     0.00   0.41840   5 ;   C110-   C19-   C18-   C17
  2256   2259   2262   2265      9     0.00   1.25520   3 ;   C110-   C19-   C18-   C17
  2257   2256   2259   2260      9     0.00   0.62760   3 ;   H10R-  C110-   C19-   H9R
  2257   2256   2259   2261      9     0.00   0.62760   3 ;   H10R-  C110-   C19-   H9S
  2257   2256   2259   2262      9     0.00   0.66944   3 ;   H10R-  C110-   C19-   C18
  2258   2256   2259   2260      9     0.00   0.62760   3 ;   H10S-  C110-   C19-   H9R
  2258   2256   2259   2261      9     0.00   0.62760   3 ;   H10S-  C110-   C19-   H9S
  2258   2256   2259   2262      9     0.00   0.66944   3 ;   H10S-  C110-   C19-   C18
  2259   2262   2265   2266      9     0.00   0.66944   3 ;    C19-   C18-   C17-   H7R
  2259   2262   2265   2267      9     0.00   0.66944   3 ;    C19-   C18-   C17-   H7S
  2259   2262   2265   2268      9     0.00   0.41840   1 ;    C19-   C18-   C17-   C16
  2259   2262   2265   2268      9     0.00   0.41840   2 ;    C19-   C18-   C17-   C16
  2259   2262   2265   2268      9     0.00   0.41840   4 ;    C19-   C18-   C17-   C16
  2259   2262   2265   2268      9     0.00   0.41840   5 ;    C19-   C18-   C17-   C16
  2259   2262   2265   2268      9     0.00   1.25520   3 ;    C19-   C18-   C17-   C16
  2260   2259   2262   2263      9     0.00   0.62760   3 ;    H9R-   C19-   C18-   H8R
  2260   2259   2262   2264      9     0.00   0.62760   3 ;    H9R-   C19-   C18-   H8S
  2260   2259   2262   2265      9     0.00   0.66944   3 ;    H9R-   C19-   C18-   C17
  2261   2259   2262   2263      9     0.00   0.62760   3 ;    H9S-   C19-   C18-   H8R
  2261   2259   2262   2264      9     0.00   0.62760   3 ;    H9S-   C19-   C18-   H8S
  2261   2259   2262   2265      9     0.00   0.66944   3 ;    H9S-   C19-   C18-   C17
  2262   2265   2268   2269      9     0.00   0.66944   3 ;    C18-   C17-   C16-   H6R
  2262   2265   2268   2270      9     0.00   0.66944   3 ;    C18-   C17-   C16-   H6S
  2262   2265   2268   2271      9     0.00   0.41840   1 ;    C18-   C17-   C16-   C15
  2262   2265   2268   2271      9     0.00   0.41840   2 ;    C18-   C17-   C16-   C15
  2262   2265   2268   2271      9     0.00   0.41840   4 ;    C18-   C17-   C16-   C15
  2262   2265   2268   2271      9     0.00   0.41840   5 ;    C18-   C17-   C16-   C15
  2262   2265   2268   2271      9     0.00   1.25520   3 ;    C18-   C17-   C16-   C15
  2263   2262   2265   2266      9     0.00   0.62760   3 ;    H8R-   C18-   C17-   H7R
  2263   2262   2265   2267      9     0.00   0.62760   3 ;    H8R-   C18-   C17-   H7S
  2263   2262   2265   2268      9     0.00   0.66944   3 ;    H8R-   C18-   C17-   C16
  2264   2262   2265   2266      9     0.00   0.62760   3 ;    H8S-   C18-   C17-   H7R
  2264   2262   2265   2267      9     0.00   0.62760   3 ;    H8S-   C18-   C17-   H7S
  2264   2262   2265   2268      9     0.00   0.66944   3 ;    H8S-   C18-   C17-   C16
  2265   2268   2271   2272      9     0.00   0.66944   3 ;    C17-   C16-   C15-   H5R
  2265   2268   2271   2273      9     0.00   0.66944   3 ;    C17-   C16-   C15-   H5S
  2265   2268   2271   2274      9     0.00   0.41840   1 ;    C17-   C16-   C15-   C14
  2265   2268   2271   2274      9     0.00   0.41840   2 ;    C17-   C16-   C15-   C14
  2265   2268   2271   2274      9     0.00   0.41840   4 ;    C17-   C16-   C15-   C14
  2265   2268   2271   2274      9     0.00   0.41840   5 ;    C17-   C16-   C15-   C14
  2265   2268   2271   2274      9     0.00   1.25520   3 ;    C17-   C16-   C15-   C14
  2266   2265   2268   2269      9     0.00   0.62760   3 ;    H7R-   C17-   C16-   H6R
  2266   2265   2268   2270      9     0.00   0.62760   3 ;    H7R-   C17-   C16-   H6S
  2266   2265   2268   2271      9     0.00   0.66944   3 ;    H7R-   C17-   C16-   C15
  2267   2265   2268   2269      9     0.00   0.62760   3 ;    H7S-   C17-   C16-   H6R
  2267   2265   2268   2270      9     0.00   0.62760   3 ;    H7S-   C17-   C16-   H6S
  2267   2265   2268   2271      9     0.00   0.66944   3 ;    H7S-   C17-   C16-   C15
  2268   2271   2274   2275      9     0.00   0.66944   3 ;    C16-   C15-   C14-   H4R
  2268   2271   2274   2276      9     0.00   0.66944   3 ;    C16-   C15-   C14-   H4S
  2268   2271   2274   2277      9     0.00   0.41840   1 ;    C16-   C15-   C14-   C13
  2268   2271   2274   2277      9     0.00   0.41840   2 ;    C16-   C15-   C14-   C13
  2268   2271   2274   2277      9     0.00   0.41840   4 ;    C16-   C15-   C14-   C13
  2268   2271   2274   2277      9     0.00   0.41840   5 ;    C16-   C15-   C14-   C13
  2268   2271   2274   2277      9     0.00   1.25520   3 ;    C16-   C15-   C14-   C13
  2269   2268   2271   2272      9     0.00   0.62760   3 ;    H6R-   C16-   C15-   H5R
  2269   2268   2271   2273      9     0.00   0.62760   3 ;    H6R-   C16-   C15-   H5S
  2269   2268   2271   2274      9     0.00   0.66944   3 ;    H6R-   C16-   C15-   C14
  2270   2268   2271   2272      9     0.00   0.62760   3 ;    H6S-   C16-   C15-   H5R
  2270   2268   2271   2273      9     0.00   0.62760   3 ;    H6S-   C16-   C15-   H5S
  2270   2268   2271   2274      9     0.00   0.66944   3 ;    H6S-   C16-   C15-   C14
  2271   2274   2277   2278      9     0.00   0.66944   3 ;    C15-   C14-   C13-   H3R
  2271   2274   2277   2279      9     0.00   0.66944   3 ;    C15-   C14-   C13-   H3S
  2271   2274   2277   2280      9     0.00   0.41840   1 ;    C15-   C14-   C13-   C12
  2271   2274   2277   2280      9     0.00   0.41840   2 ;    C15-   C14-   C13-   C12
  2271   2274   2277   2280      9     0.00   0.41840   4 ;    C15-   C14-   C13-   C12
  2271   2274   2277   2280      9     0.00   0.41840   5 ;    C15-   C14-   C13-   C12
  2271   2274   2277   2280      9     0.00   1.25520   3 ;    C15-   C14-   C13-   C12
  2272   2271   2274   2275      9     0.00   0.62760   3 ;    H5R-   C15-   C14-   H4R
  2272   2271   2274   2276      9     0.00   0.62760   3 ;    H5R-   C15-   C14-   H4S
  2272   2271   2274   2277      9     0.00   0.66944   3 ;    H5R-   C15-   C14-   C13
  2273   2271   2274   2275      9     0.00   0.62760   3 ;    H5S-   C15-   C14-   H4R
  2273   2271   2274   2276      9     0.00   0.62760   3 ;    H5S-   C15-   C14-   H4S
  2273   2271   2274   2277      9     0.00   0.66944   3 ;    H5S-   C15-   C14-   C13
  2274   2277   2280   2281      9     0.00   0.66944   3 ;    C14-   C13-   C12-   H2R
  2274   2277   2280   2282      9     0.00   0.66944   3 ;    C14-   C13-   C12-   H2S
  2274   2277   2280   2283      9     0.00   0.65270   3 ;    C14-   C13-   C12-   C11
  2275   2274   2277   2278      9     0.00   0.62760   3 ;    H4R-   C14-   C13-   H3R
  2275   2274   2277   2279      9     0.00   0.62760   3 ;    H4R-   C14-   C13-   H3S
  2275   2274   2277   2280      9     0.00   0.66944   3 ;    H4R-   C14-   C13-   C12
  2276   2274   2277   2278      9     0.00   0.62760   3 ;    H4S-   C14-   C13-   H3R
  2276   2274   2277   2279      9     0.00   0.62760   3 ;    H4S-   C14-   C13-   H3S
  2276   2274   2277   2280      9     0.00   0.66944   3 ;    H4S-   C14-   C13-   C12
  2277   2280   2283   2284      9   180.00   0.00000   2 ;    C13-   C12-   C11-   O12
  2277   2280   2283   2285      9   180.00   0.00000   2 ;    C13-   C12-   C11-   O11
  2278   2277   2280   2281      9     0.00   0.62760   3 ;    H3R-   C13-   C12-   H2R
  2278   2277   2280   2282      9     0.00   0.62760   3 ;    H3R-   C13-   C12-   H2S
  2278   2277   2280   2283      9     0.00   0.65270   3 ;    H3R-   C13-   C12-   C11
  2279   2277   2280   2281      9     0.00   0.62760   3 ;    H3S-   C13-   C12-   H2R
  2279   2277   2280   2282      9     0.00   0.62760   3 ;    H3S-   C13-   C12-   H2S
  2279   2277   2280   2283      9     0.00   0.65270   3 ;    H3S-   C13-   C12-   C11
  2280   2283   2285   2286      9   180.00  11.29680   2 ;    C12-   C11-   O11-    C1
  2281   2280   2283   2284      9     0.00   3.34720   1 ;    H2R-   C12-   C11-   O12
  2281   2280   2283   2284      9   180.00   0.33472   3 ;    H2R-   C12-   C11-   O12
  2281   2280   2283   2285      9   180.00   0.00000   2 ;    H2R-   C12-   C11-   O11
  2282   2280   2283   2284      9     0.00   3.34720   1 ;    H2S-   C12-   C11-   O12
  2282   2280   2283   2284      9   180.00   0.33472   3 ;    H2S-   C12-   C11-   O12
  2282   2280   2283   2285      9   180.00   0.00000   2 ;    H2S-   C12-   C11-   O11
  2283   2285   2286   2287      9     0.00   1.60247   3 ;    C11-   O11-    C1-    HR
  2283   2285   2286   2288      9     0.00   1.60247   3 ;    C11-   O11-    C1-    HS
  2283   2285   2286   2289      9     0.00  -0.41840   1 ;    C11-   O11-    C1-    C2
  2284   2283   2285   2286      9   180.00   5.85760   1 ;    O12-   C11-   O11-    C1
  2284   2283   2285   2286      9   180.00  11.29680   2 ;    O12-   C11-   O11-    C1
  2285   2286   2289   2290      9     0.00   0.00000   0 ;    O11-    C1-    C2-    HX
  2285   2286   2289   2290      9     0.00   1.04600   1 ;    O11-    C1-    C2-    HX
  2285   2286   2289   2291      9     0.00   0.00000   0 ;    O11-    C1-    C2-    C3
  2285   2286   2289   2291      9     0.00   0.00000   0 ;    O11-    C1-    C2-    C3
  2285   2286   2289   2291      9     0.00   0.00000   0 ;    O11-    C1-    C2-    C3
  2285   2286   2289   2291      9     0.00   0.00000   0 ;    O11-    C1-    C2-    C3
  2285   2286   2289   2291      9     0.00   0.00000   0 ;    O11-    C1-    C2-    C3
  2285   2286   2289   2318      9     0.00   1.25520   2 ;    O11-    C1-    C2-   O21
  2285   2286   2289   2318      9     0.00   4.18400   3 ;    O11-    C1-    C2-   O21
  2285   2286   2289   2318      9   180.00  -0.41840   1 ;    O11-    C1-    C2-   O21
  2286   2289   2291   2292      9     0.00   0.65270   3 ;     C1-    C2-    C3-    HA
  2286   2289   2291   2293      9     0.00   0.65270   3 ;     C1-    C2-    C3-    HB
  2286   2289   2291   2294      9   180.00   3.34720   1 ;     C1-    C2-    C3-   O31
  2286   2289   2318   2319      9     0.00  -0.41840   1 ;     C1-    C2-   O21-   C21
  2287   2286   2289   2290      9     0.00   0.65270   3 ;     HR-    C1-    C2-    HX
  2287   2286   2289   2291      9     0.00   0.65270   3 ;     HR-    C1-    C2-    C3
  2287   2286   2289   2318      9     0.00   0.00000   0 ;     HR-    C1-    C2-   O21
  2287   2286   2289   2318      9     0.00   1.04600   1 ;     HR-    C1-    C2-   O21
  2288   2286   2289   2290      9     0.00   0.65270   3 ;     HS-    C1-    C2-    HX
  2288   2286   2289   2291      9     0.00   0.65270   3 ;     HS-    C1-    C2-    C3
  2288   2286   2289   2318      9     0.00   0.00000   0 ;     HS-    C1-    C2-   O21
  2288   2286   2289   2318      9     0.00   1.04600   1 ;     HS-    C1-    C2-   O21
  2289   2291   2294   2295      9     0.00   0.00000   0 ;     C2-    C3-   O31-   P31
  2289   2291   2294   2295      9   180.00  -3.34720   2 ;     C2-    C3-   O31-   P31
  2289   2318   2319   2320      9   180.00   5.85760   1 ;     C2-   O21-   C21-   O22
  2289   2318   2319   2320      9   180.00  11.29680   2 ;     C2-   O21-   C21-   O22
  2289   2318   2319   2358      9   180.00  11.29680   2 ;     C2-   O21-   C21-   C12
  2290   2289   2291   2292      9     0.00   0.65270   3 ;     HX-    C2-    C3-    HA
  2290   2289   2291   2293      9     0.00   0.65270   3 ;     HX-    C2-    C3-    HB
  2290   2289   2291   2294      9     0.00   0.00000   0 ;     HX-    C2-    C3-   O31
  2290   2289   2291   2294      9     0.00   1.04600   1 ;     HX-    C2-    C3-   O31
  2290   2289   2318   2319      9     0.00   1.60247   3 ;     HX-    C2-   O21-   C21
  2291   2289   2318   2319      9     0.00  -0.41840   1 ;     C3-    C2-   O21-   C21
  2291   2294   2295   2296      9     0.00   2.51040   3 ;     C3-   O31-   P31-   O32
  2291   2294   2295   2296      9     0.00   9.62320   2 ;     C3-   O31-   P31-   O32
  2291   2294   2295   2316      9     0.00   0.00000   0 ;     C3-   O31-   P31-   O33
  2291   2294   2295   2316      9     0.00   0.00000   0 ;     C3-   O31-   P31-   O33
  2291   2294   2295   2316      9     0.00   0.00000   0 ;     C3-   O31-   P31-   O33
  2291   2294   2295   2316      9     0.00   0.00000   0 ;     C3-   O31-   P31-   O33
  2291   2294   2295   2316      9     0.00   0.83680   2 ;     C3-   O31-   P31-   O33
  2291   2294   2295   2317      9     0.00   0.00000   0 ;     C3-   O31-   P31-   O34
  2291   2294   2295   2317      9     0.00   0.00000   0 ;     C3-   O31-   P31-   O34
  2291   2294   2295   2317      9     0.00   0.00000   0 ;     C3-   O31-   P31-   O34
  2291   2294   2295   2317      9     0.00   0.00000   0 ;     C3-   O31-   P31-   O34
  2291   2294   2295   2317      9     0.00   0.83680   2 ;     C3-   O31-   P31-   O34
  2292   2291   2289   2318      9     0.00   0.00000   0 ;     HA-    C3-    C2-   O21
  2292   2291   2289   2318      9     0.00   1.04600   1 ;     HA-    C3-    C2-   O21
  2292   2291   2294   2295      9     0.00   0.00000   0 ;     HA-    C3-   O31-   P31
  2292   2291   2294   2295      9     0.00   0.00000   0 ;     HA-    C3-   O31-   P31
  2292   2291   2294   2295      9     0.00   0.00000   0 ;     HA-    C3-   O31-   P31
  2292   2291   2294   2295      9     0.00   0.00000   0 ;     HA-    C3-   O31-   P31
  2292   2291   2294   2295      9     0.00   1.60247   3 ;     HA-    C3-   O31-   P31
  2293   2291   2289   2318      9     0.00   0.00000   0 ;     HB-    C3-    C2-   O21
  2293   2291   2289   2318      9     0.00   1.04600   1 ;     HB-    C3-    C2-   O21
  2293   2291   2294   2295      9     0.00   0.00000   0 ;     HB-    C3-   O31-   P31
  2293   2291   2294   2295      9     0.00   0.00000   0 ;     HB-    C3-   O31-   P31
  2293   2291   2294   2295      9     0.00   0.00000   0 ;     HB-    C3-   O31-   P31
  2293   2291   2294   2295      9     0.00   0.00000   0 ;     HB-    C3-   O31-   P31
  2293   2291   2294   2295      9     0.00   1.60247   3 ;     HB-    C3-   O31-   P31
  2294   2291   2289   2318      9     0.00   0.00000   0 ;    O31-    C3-    C2-   O21
  2294   2291   2289   2318      9     0.00   0.00000   0 ;    O31-    C3-    C2-   O21
  2294   2291   2289   2318      9     0.00   0.00000   0 ;    O31-    C3-    C2-   O21
  2294   2291   2289   2318      9     0.00   0.00000   0 ;    O31-    C3-    C2-   O21
  2294   2291   2289   2318      9     0.00   0.00000   0 ;    O31-    C3-    C2-   O21
  2294   2295   2296   2297      9     0.00   2.51040   3 ;    O31-   P31-   O32-   C31
  2294   2295   2296   2297      9     0.00   9.62320   2 ;    O31-   P31-   O32-   C31
  2295   2296   2297   2298      9     0.00   0.00000   0 ;    P31-   O32-   C31-   H1A
  2295   2296   2297   2298      9     0.00   0.00000   0 ;    P31-   O32-   C31-   H1A
  2295   2296   2297   2298      9     0.00   0.00000   0 ;    P31-   O32-   C31-   H1A
  2295   2296   2297   2298      9     0.00   0.00000   0 ;    P31-   O32-   C31-   H1A
  2295   2296   2297   2298      9     0.00   1.60247   3 ;    P31-   O32-   C31-   H1A
  2295   2296   2297   2299      9     0.00   0.00000   0 ;    P31-   O32-   C31-   H1B
  2295   2296   2297   2299      9     0.00   0.00000   0 ;    P31-   O32-   C31-   H1B
  2295   2296   2297   2299      9     0.00   0.00000   0 ;    P31-   O32-   C31-   H1B
  2295   2296   2297   2299      9     0.00   0.00000   0 ;    P31-   O32-   C31-   H1B
  2295   2296   2297   2299      9     0.00   1.60247   3 ;    P31-   O32-   C31-   H1B
  2295   2296   2297   2300      9     0.00   0.00000   0 ;    P31-   O32-   C31-   C32
  2295   2296   2297   2300      9   180.00  -3.34720   2 ;    P31-   O32-   C31-   C32
  2296   2297   2300   2301      9     0.00   0.65270   3 ;    O32-   C31-   C32-   H2A
  2296   2297   2300   2302      9     0.00   0.65270   3 ;    O32-   C31-   C32-   H2B
  2296   2297   2300   2303      9     0.00   4.18400   3 ;    O32-   C31-   C32-   N31
  2297   2296   2295   2316      9     0.00   0.00000   0 ;    C31-   O32-   P31-   O33
  2297   2296   2295   2316      9     0.00   0.00000   0 ;    C31-   O32-   P31-   O33
  2297   2296   2295   2316      9     0.00   0.00000   0 ;    C31-   O32-   P31-   O33
  2297   2296   2295   2316      9     0.00   0.00000   0 ;    C31-   O32-   P31-   O33
  2297   2296   2295   2316      9     0.00   0.83680   2 ;    C31-   O32-   P31-   O33
  2297   2296   2295   2317      9     0.00   0.00000   0 ;    C31-   O32-   P31-   O34
  2297   2296   2295   2317      9     0.00   0.00000   0 ;    C31-   O32-   P31-   O34
  2297   2296   2295   2317      9     0.00   0.00000   0 ;    C31-   O32-   P31-   O34
  2297   2296   2295   2317      9     0.00   0.00000   0 ;    C31-   O32-   P31-   O34
  2297   2296   2295   2317      9     0.00   0.83680   2 ;    C31-   O32-   P31-   O34
  2297   2300   2303   2304      9     0.00   0.65270   3 ;    C31-   C32-   N31-   C33
  2297   2300   2303   2308      9     0.00   0.65270   3 ;    C31-   C32-   N31-   C34
  2297   2300   2303   2312      9     0.00   0.65270   3 ;    C31-   C32-   N31-   C35
  2298   2297   2300   2301      9     0.00   0.65270   3 ;    H1A-   C31-   C32-   H2A
  2298   2297   2300   2302      9     0.00   0.65270   3 ;    H1A-   C31-   C32-   H2B
  2298   2297   2300   2303      9     0.00   0.65270   3 ;    H1A-   C31-   C32-   N31
  2299   2297   2300   2301      9     0.00   0.65270   3 ;    H1B-   C31-   C32-   H2A
  2299   2297   2300   2302      9     0.00   0.65270   3 ;    H1B-   C31-   C32-   H2B
  2299   2297   2300   2303      9     0.00   0.65270   3 ;    H1B-   C31-   C32-   N31
  2300   2303   2304   2305      9     0.00   0.65270   3 ;    C32-   N31-   C33-   H3A
  2300   2303   2304   2306      9     0.00   0.65270   3 ;    C32-   N31-   C33-   H3B
  2300   2303   2304   2307      9     0.00   0.65270   3 ;    C32-   N31-   C33-   H3C
  2300   2303   2308   2309      9     0.00   0.65270   3 ;    C32-   N31-   C34-   H4A
  2300   2303   2308   2310      9     0.00   0.65270   3 ;    C32-   N31-   C34-   H4B
  2300   2303   2308   2311      9     0.00   0.65270   3 ;    C32-   N31-   C34-   H4C
  2300   2303   2312   2313      9     0.00   0.65270   3 ;    C32-   N31-   C35-   H5A
  2300   2303   2312   2314      9     0.00   0.65270   3 ;    C32-   N31-   C35-   H5B
  2300   2303   2312   2315      9     0.00   0.65270   3 ;    C32-   N31-   C35-   H5C
  2301   2300   2303   2304      9     0.00   0.65270   3 ;    H2A-   C32-   N31-   C33
  2301   2300   2303   2308      9     0.00   0.65270   3 ;    H2A-   C32-   N31-   C34
  2301   2300   2303   2312      9     0.00   0.65270   3 ;    H2A-   C32-   N31-   C35
  2302   2300   2303   2304      9     0.00   0.65270   3 ;    H2B-   C32-   N31-   C33
  2302   2300   2303   2308      9     0.00   0.65270   3 ;    H2B-   C32-   N31-   C34
  2302   2300   2303   2312      9     0.00   0.65270   3 ;    H2B-   C32-   N31-   C35
  2304   2303   2308   2309      9     0.00   0.65270   3 ;    C33-   N31-   C34-   H4A
  2304   2303   2308   2310      9     0.00   0.65270   3 ;    C33-   N31-   C34-   H4B
  2304   2303   2308   2311      9     0.00   0.65270   3 ;    C33-   N31-   C34-   H4C
  2304   2303   2312   2313      9     0.00   0.65270   3 ;    C33-   N31-   C35-   H5A
  2304   2303   2312   2314      9     0.00   0.65270   3 ;    C33-   N31-   C35-   H5B
  2304   2303   2312   2315      9     0.00   0.65270   3 ;    C33-   N31-   C35-   H5C
  2305   2304   2303   2308      9     0.00   0.65270   3 ;    H3A-   C33-   N31-   C34
  2305   2304   2303   2312      9     0.00   0.65270   3 ;    H3A-   C33-   N31-   C35
  2306   2304   2303   2308      9     0.00   0.65270   3 ;    H3B-   C33-   N31-   C34
  2306   2304   2303   2312      9     0.00   0.65270   3 ;    H3B-   C33-   N31-   C35
  2307   2304   2303   2308      9     0.00   0.65270   3 ;    H3C-   C33-   N31-   C34
  2307   2304   2303   2312      9     0.00   0.65270   3 ;    H3C-   C33-   N31-   C35
  2308   2303   2312   2313      9     0.00   0.65270   3 ;    C34-   N31-   C35-   H5A
  2308   2303   2312   2314      9     0.00   0.65270   3 ;    C34-   N31-   C35-   H5B
  2308   2303   2312   2315      9     0.00   0.65270   3 ;    C34-   N31-   C35-   H5C
  2309   2308   2303   2312      9     0.00   0.65270   3 ;    H4A-   C34-   N31-   C35
  2310   2308   2303   2312      9     0.00   0.65270   3 ;    H4B-   C34-   N31-   C35
  2311   2308   2303   2312      9     0.00   0.65270   3 ;    H4C-   C34-   N31-   C35
  2318   2319   2358   2355      9   180.00   0.00000   2 ;    O21-   C21-   C12-   C13
  2318   2319   2358   2359      9   180.00   0.00000   2 ;    O21-   C21-   C12-   H2R
  2318   2319   2358   2360      9   180.00   0.00000   2 ;    O21-   C21-   C12-   H2S
  2319   2358   2355   2352      9     0.00   0.65270   3 ;    C21-   C12-   C13-   C14
  2319   2358   2355   2356      9     0.00   0.65270   3 ;    C21-   C12-   C13-   H3R
  2319   2358   2355   2357      9     0.00   0.65270   3 ;    C21-   C12-   C13-   H3S
  2320   2319   2358   2355      9   180.00   0.00000   2 ;    O22-   C21-   C12-   C13
  2320   2319   2358   2359      9     0.00   3.34720   1 ;    O22-   C21-   C12-   H2R
  2320   2319   2358   2359      9   180.00   0.33472   3 ;    O22-   C21-   C12-   H2R
  2320   2319   2358   2360      9     0.00   3.34720   1 ;    O22-   C21-   C12-   H2S
  2320   2319   2358   2360      9   180.00   0.33472   3 ;    O22-   C21-   C12-   H2S
  2321   2322   2325   2326      9     0.00   0.62760   3 ;   H14T-  C114-  C113-  H13R
  2321   2322   2325   2327      9     0.00   0.62760   3 ;   H14T-  C114-  C113-  H13S
  2321   2322   2325   2328      9     0.00   0.66944   3 ;   H14T-  C114-  C113-  C112
  2322   2325   2328   2329      9     0.00   0.66944   3 ;   C114-  C113-  C112-  H12R
  2322   2325   2328   2330      9     0.00   0.66944   3 ;   C114-  C113-  C112-  H12S
  2322   2325   2328   2331      9     0.00   0.41840   1 ;   C114-  C113-  C112-  C111
  2322   2325   2328   2331      9     0.00   0.41840   2 ;   C114-  C113-  C112-  C111
  2322   2325   2328   2331      9     0.00   0.41840   4 ;   C114-  C113-  C112-  C111
  2322   2325   2328   2331      9     0.00   0.41840   5 ;   C114-  C113-  C112-  C111
  2322   2325   2328   2331      9     0.00   1.25520   3 ;   C114-  C113-  C112-  C111
  2323   2322   2325   2326      9     0.00   0.62760   3 ;   H14R-  C114-  C113-  H13R
  2323   2322   2325   2327      9     0.00   0.62760   3 ;   H14R-  C114-  C113-  H13S
  2323   2322   2325   2328      9     0.00   0.66944   3 ;   H14R-  C114-  C113-  C112
  2324   2322   2325   2326      9     0.00   0.62760   3 ;   H14S-  C114-  C113-  H13R
  2324   2322   2325   2327      9     0.00   0.62760   3 ;   H14S-  C114-  C113-  H13S
  2324   2322   2325   2328      9     0.00   0.66944   3 ;   H14S-  C114-  C113-  C112
  2325   2328   2331   2332      9     0.00   0.66944   3 ;   C113-  C112-  C111-  H11R
  2325   2328   2331   2333      9     0.00   0.66944   3 ;   C113-  C112-  C111-  H11S
  2325   2328   2331   2334      9     0.00   0.41840   1 ;   C113-  C112-  C111-  C110
  2325   2328   2331   2334      9     0.00   0.41840   2 ;   C113-  C112-  C111-  C110
  2325   2328   2331   2334      9     0.00   0.41840   4 ;   C113-  C112-  C111-  C110
  2325   2328   2331   2334      9     0.00   0.41840   5 ;   C113-  C112-  C111-  C110
  2325   2328   2331   2334      9     0.00   1.25520   3 ;   C113-  C112-  C111-  C110
  2326   2325   2328   2329      9     0.00   0.62760   3 ;   H13R-  C113-  C112-  H12R
  2326   2325   2328   2330      9     0.00   0.62760   3 ;   H13R-  C113-  C112-  H12S
  2326   2325   2328   2331      9     0.00   0.66944   3 ;   H13R-  C113-  C112-  C111
  2327   2325   2328   2329      9     0.00   0.62760   3 ;   H13S-  C113-  C112-  H12R
  2327   2325   2328   2330      9     0.00   0.62760   3 ;   H13S-  C113-  C112-  H12S
  2327   2325   2328   2331      9     0.00   0.66944   3 ;   H13S-  C113-  C112-  C111
  2328   2331   2334   2335      9     0.00   0.66944   3 ;   C112-  C111-  C110-  H10R
  2328   2331   2334   2336      9     0.00   0.66944   3 ;   C112-  C111-  C110-  H10S
  2328   2331   2334   2337      9     0.00   0.41840   1 ;   C112-  C111-  C110-   C19
  2328   2331   2334   2337      9     0.00   0.41840   2 ;   C112-  C111-  C110-   C19
  2328   2331   2334   2337      9     0.00   0.41840   4 ;   C112-  C111-  C110-   C19
  2328   2331   2334   2337      9     0.00   0.41840   5 ;   C112-  C111-  C110-   C19
  2328   2331   2334   2337      9     0.00   1.25520   3 ;   C112-  C111-  C110-   C19
  2329   2328   2331   2332      9     0.00   0.62760   3 ;   H12R-  C112-  C111-  H11R
  2329   2328   2331   2333      9     0.00   0.62760   3 ;   H12R-  C112-  C111-  H11S
  2329   2328   2331   2334      9     0.00   0.66944   3 ;   H12R-  C112-  C111-  C110
  2330   2328   2331   2332      9     0.00   0.62760   3 ;   H12S-  C112-  C111-  H11R
  2330   2328   2331   2333      9     0.00   0.62760   3 ;   H12S-  C112-  C111-  H11S
  2330   2328   2331   2334      9     0.00   0.66944   3 ;   H12S-  C112-  C111-  C110
  2331   2334   2337   2338      9     0.00   0.66944   3 ;   C111-  C110-   C19-   H9R
  2331   2334   2337   2339      9     0.00   0.66944   3 ;   C111-  C110-   C19-   H9S
  2331   2334   2337   2340      9     0.00   0.41840   1 ;   C111-  C110-   C19-   C18
  2331   2334   2337   2340      9     0.00   0.41840   2 ;   C111-  C110-   C19-   C18
  2331   2334   2337   2340      9     0.00   0.41840   4 ;   C111-  C110-   C19-   C18
  2331   2334   2337   2340      9     0.00   0.41840   5 ;   C111-  C110-   C19-   C18
  2331   2334   2337   2340      9     0.00   1.25520   3 ;   C111-  C110-   C19-   C18
  2332   2331   2334   2335      9     0.00   0.62760   3 ;   H11R-  C111-  C110-  H10R
  2332   2331   2334   2336      9     0.00   0.62760   3 ;   H11R-  C111-  C110-  H10S
  2332   2331   2334   2337      9     0.00   0.66944   3 ;   H11R-  C111-  C110-   C19
  2333   2331   2334   2335      9     0.00   0.62760   3 ;   H11S-  C111-  C110-  H10R
  2333   2331   2334   2336      9     0.00   0.62760   3 ;   H11S-  C111-  C110-  H10S
  2333   2331   2334   2337      9     0.00   0.66944   3 ;   H11S-  C111-  C110-   C19
  2334   2337   2340   2341      9     0.00   0.66944   3 ;   C110-   C19-   C18-   H8R
  2334   2337   2340   2342      9     0.00   0.66944   3 ;   C110-   C19-   C18-   H8S
  2334   2337   2340   2343      9     0.00   0.41840   1 ;   C110-   C19-   C18-   C17
  2334   2337   2340   2343      9     0.00   0.41840   2 ;   C110-   C19-   C18-   C17
  2334   2337   2340   2343      9     0.00   0.41840   4 ;   C110-   C19-   C18-   C17
  2334   2337   2340   2343      9     0.00   0.41840   5 ;   C110-   C19-   C18-   C17
  2334   2337   2340   2343      9     0.00   1.25520   3 ;   C110-   C19-   C18-   C17
  2335   2334   2337   2338      9     0.00   0.62760   3 ;   H10R-  C110-   C19-   H9R
  2335   2334   2337   2339      9     0.00   0.62760   3 ;   H10R-  C110-   C19-   H9S
  2335   2334   2337   2340      9     0.00   0.66944   3 ;   H10R-  C110-   C19-   C18
  2336   2334   2337   2338      9     0.00   0.62760   3 ;   H10S-  C110-   C19-   H9R
  2336   2334   2337   2339      9     0.00   0.62760   3 ;   H10S-  C110-   C19-   H9S
  2336   2334   2337   2340      9     0.00   0.66944   3 ;   H10S-  C110-   C19-   C18
  2337   2340   2343   2344      9     0.00   0.66944   3 ;    C19-   C18-   C17-   H7R
  2337   2340   2343   2345      9     0.00   0.66944   3 ;    C19-   C18-   C17-   H7S
  2337   2340   2343   2346      9     0.00   0.41840   1 ;    C19-   C18-   C17-   C16
  2337   2340   2343   2346      9     0.00   0.41840   2 ;    C19-   C18-   C17-   C16
  2337   2340   2343   2346      9     0.00   0.41840   4 ;    C19-   C18-   C17-   C16
  2337   2340   2343   2346      9     0.00   0.41840   5 ;    C19-   C18-   C17-   C16
  2337   2340   2343   2346      9     0.00   1.25520   3 ;    C19-   C18-   C17-   C16
  2338   2337   2340   2341      9     0.00   0.62760   3 ;    H9R-   C19-   C18-   H8R
  2338   2337   2340   2342      9     0.00   0.62760   3 ;    H9R-   C19-   C18-   H8S
  2338   2337   2340   2343      9     0.00   0.66944   3 ;    H9R-   C19-   C18-   C17
  2339   2337   2340   2341      9     0.00   0.62760   3 ;    H9S-   C19-   C18-   H8R
  2339   2337   2340   2342      9     0.00   0.62760   3 ;    H9S-   C19-   C18-   H8S
  2339   2337   2340   2343      9     0.00   0.66944   3 ;    H9S-   C19-   C18-   C17
  2340   2343   2346   2347      9     0.00   0.66944   3 ;    C18-   C17-   C16-   H6R
  2340   2343   2346   2348      9     0.00   0.66944   3 ;    C18-   C17-   C16-   H6S
  2340   2343   2346   2349      9     0.00   0.41840   1 ;    C18-   C17-   C16-   C15
  2340   2343   2346   2349      9     0.00   0.41840   2 ;    C18-   C17-   C16-   C15
  2340   2343   2346   2349      9     0.00   0.41840   4 ;    C18-   C17-   C16-   C15
  2340   2343   2346   2349      9     0.00   0.41840   5 ;    C18-   C17-   C16-   C15
  2340   2343   2346   2349      9     0.00   1.25520   3 ;    C18-   C17-   C16-   C15
  2341   2340   2343   2344      9     0.00   0.62760   3 ;    H8R-   C18-   C17-   H7R
  2341   2340   2343   2345      9     0.00   0.62760   3 ;    H8R-   C18-   C17-   H7S
  2341   2340   2343   2346      9     0.00   0.66944   3 ;    H8R-   C18-   C17-   C16
  2342   2340   2343   2344      9     0.00   0.62760   3 ;    H8S-   C18-   C17-   H7R
  2342   2340   2343   2345      9     0.00   0.62760   3 ;    H8S-   C18-   C17-   H7S
  2342   2340   2343   2346      9     0.00   0.66944   3 ;    H8S-   C18-   C17-   C16
  2343   2346   2349   2350      9     0.00   0.66944   3 ;    C17-   C16-   C15-   H5R
  2343   2346   2349   2351      9     0.00   0.66944   3 ;    C17-   C16-   C15-   H5S
  2343   2346   2349   2352      9     0.00   0.41840   1 ;    C17-   C16-   C15-   C14
  2343   2346   2349   2352      9     0.00   0.41840   2 ;    C17-   C16-   C15-   C14
  2343   2346   2349   2352      9     0.00   0.41840   4 ;    C17-   C16-   C15-   C14
  2343   2346   2349   2352      9     0.00   0.41840   5 ;    C17-   C16-   C15-   C14
  2343   2346   2349   2352      9     0.00   1.25520   3 ;    C17-   C16-   C15-   C14
  2344   2343   2346   2347      9     0.00   0.62760   3 ;    H7R-   C17-   C16-   H6R
  2344   2343   2346   2348      9     0.00   0.62760   3 ;    H7R-   C17-   C16-   H6S
  2344   2343   2346   2349      9     0.00   0.66944   3 ;    H7R-   C17-   C16-   C15
  2345   2343   2346   2347      9     0.00   0.62760   3 ;    H7S-   C17-   C16-   H6R
  2345   2343   2346   2348      9     0.00   0.62760   3 ;    H7S-   C17-   C16-   H6S
  2345   2343   2346   2349      9     0.00   0.66944   3 ;    H7S-   C17-   C16-   C15
  2346   2349   2352   2353      9     0.00   0.66944   3 ;    C16-   C15-   C14-   H4R
  2346   2349   2352   2354      9     0.00   0.66944   3 ;    C16-   C15-   C14-   H4S
  2346   2349   2352   2355      9     0.00   0.41840   1 ;    C16-   C15-   C14-   C13
  2346   2349   2352   2355      9     0.00   0.41840   2 ;    C16-   C15-   C14-   C13
  2346   2349   2352   2355      9     0.00   0.41840   4 ;    C16-   C15-   C14-   C13
  2346   2349   2352   2355      9     0.00   0.41840   5 ;    C16-   C15-   C14-   C13
  2346   2349   2352   2355      9     0.00   1.25520   3 ;    C16-   C15-   C14-   C13
  2347   2346   2349   2350      9     0.00   0.62760   3 ;    H6R-   C16-   C15-   H5R
  2347   2346   2349   2351      9     0.00   0.62760   3 ;    H6R-   C16-   C15-   H5S
  2347   2346   2349   2352      9     0.00   0.66944   3 ;    H6R-   C16-   C15-   C14
  2348   2346   2349   2350      9     0.00   0.62760   3 ;    H6S-   C16-   C15-   H5R
  2348   2346   2349   2351      9     0.00   0.62760   3 ;    H6S-   C16-   C15-   H5S
  2348   2346   2349   2352      9     0.00   0.66944   3 ;    H6S-   C16-   C15-   C14
  2349   2352   2355   2356      9     0.00   0.66944   3 ;    C15-   C14-   C13-   H3R
  2349   2352   2355   2357      9     0.00   0.66944   3 ;    C15-   C14-   C13-   H3S
  2349   2352   2355   2358      9     0.00   0.41840   1 ;    C15-   C14-   C13-   C12
  2349   2352   2355   2358      9     0.00   0.41840   2 ;    C15-   C14-   C13-   C12
  2349   2352   2355   2358      9     0.00   0.41840   4 ;    C15-   C14-   C13-   C12
  2349   2352   2355   2358      9     0.00   0.41840   5 ;    C15-   C14-   C13-   C12
  2349   2352   2355   2358      9     0.00   1.25520   3 ;    C15-   C14-   C13-   C12
  2350   2349   2352   2353      9     0.00   0.62760   3 ;    H5R-   C15-   C14-   H4R
  2350   2349   2352   2354      9     0.00   0.62760   3 ;    H5R-   C15-   C14-   H4S
  2350   2349   2352   2355      9     0.00   0.66944   3 ;    H5R-   C15-   C14-   C13
  2351   2349   2352   2353      9     0.00   0.62760   3 ;    H5S-   C15-   C14-   H4R
  2351   2349   2352   2354      9     0.00   0.62760   3 ;    H5S-   C15-   C14-   H4S
  2351   2349   2352   2355      9     0.00   0.66944   3 ;    H5S-   C15-   C14-   C13
  2352   2355   2358   2359      9     0.00   0.66944   3 ;    C14-   C13-   C12-   H2R
  2352   2355   2358   2360      9     0.00   0.66944   3 ;    C14-   C13-   C12-   H2S
  2353   2352   2355   2356      9     0.00   0.62760   3 ;    H4R-   C14-   C13-   H3R
  2353   2352   2355   2357      9     0.00   0.62760   3 ;    H4R-   C14-   C13-   H3S
  2353   2352   2355   2358      9     0.00   0.66944   3 ;    H4R-   C14-   C13-   C12
  2354   2352   2355   2356      9     0.00   0.62760   3 ;    H4S-   C14-   C13-   H3R
  2354   2352   2355   2357      9     0.00   0.62760   3 ;    H4S-   C14-   C13-   H3S
  2354   2352   2355   2358      9     0.00   0.66944   3 ;    H4S-   C14-   C13-   C12
  2356   2355   2358   2359      9     0.00   0.62760   3 ;    H3R-   C13-   C12-   H2R
  2356   2355   2358   2360      9     0.00   0.62760   3 ;    H3R-   C13-   C12-   H2S
  2357   2355   2358   2359      9     0.00   0.62760   3 ;    H3S-   C13-   C12-   H2R
  2357   2355   2358   2360      9     0.00   0.62760   3 ;    H3S-   C13-   C12-   H2S
  2361   2362   2365   2366      9     0.00   0.62760   3 ;   H14T-  C114-  C113-  H13R
  2361   2362   2365   2367      9     0.00   0.62760   3 ;   H14T-  C114-  C113-  H13S
  2361   2362   2365   2368      9     0.00   0.66944   3 ;   H14T-  C114-  C113-  C112
  2362   2365   2368   2369      9     0.00   0.66944   3 ;   C114-  C113-  C112-  H12R
  2362   2365   2368   2370      9     0.00   0.66944   3 ;   C114-  C113-  C112-  H12S
  2362   2365   2368   2371      9     0.00   0.41840   1 ;   C114-  C113-  C112-  C111
  2362   2365   2368   2371      9     0.00   0.41840   2 ;   C114-  C113-  C112-  C111
  2362   2365   2368   2371      9     0.00   0.41840   4 ;   C114-  C113-  C112-  C111
  2362   2365   2368   2371      9     0.00   0.41840   5 ;   C114-  C113-  C112-  C111
  2362   2365   2368   2371      9     0.00   1.25520   3 ;   C114-  C113-  C112-  C111
  2363   2362   2365   2366      9     0.00   0.62760   3 ;   H14R-  C114-  C113-  H13R
  2363   2362   2365   2367      9     0.00   0.62760   3 ;   H14R-  C114-  C113-  H13S
  2363   2362   2365   2368      9     0.00   0.66944   3 ;   H14R-  C114-  C113-  C112
  2364   2362   2365   2366      9     0.00   0.62760   3 ;   H14S-  C114-  C113-  H13R
  2364   2362   2365   2367      9     0.00   0.62760   3 ;   H14S-  C114-  C113-  H13S
  2364   2362   2365   2368      9     0.00   0.66944   3 ;   H14S-  C114-  C113-  C112
  2365   2368   2371   2372      9     0.00   0.66944   3 ;   C113-  C112-  C111-  H11R
  2365   2368   2371   2373      9     0.00   0.66944   3 ;   C113-  C112-  C111-  H11S
  2365   2368   2371   2374      9     0.00   0.41840   1 ;   C113-  C112-  C111-  C110
  2365   2368   2371   2374      9     0.00   0.41840   2 ;   C113-  C112-  C111-  C110
  2365   2368   2371   2374      9     0.00   0.41840   4 ;   C113-  C112-  C111-  C110
  2365   2368   2371   2374      9     0.00   0.41840   5 ;   C113-  C112-  C111-  C110
  2365   2368   2371   2374      9     0.00   1.25520   3 ;   C113-  C112-  C111-  C110
  2366   2365   2368   2369      9     0.00   0.62760   3 ;   H13R-  C113-  C112-  H12R
  2366   2365   2368   2370      9     0.00   0.62760   3 ;   H13R-  C113-  C112-  H12S
  2366   2365   2368   2371      9     0.00   0.66944   3 ;   H13R-  C113-  C112-  C111
  2367   2365   2368   2369      9     0.00   0.62760   3 ;   H13S-  C113-  C112-  H12R
  2367   2365   2368   2370      9     0.00   0.62760   3 ;   H13S-  C113-  C112-  H12S
  2367   2365   2368   2371      9     0.00   0.66944   3 ;   H13S-  C113-  C112-  C111
  2368   2371   2374   2375      9     0.00   0.66944   3 ;   C112-  C111-  C110-  H10R
  2368   2371   2374   2376      9     0.00   0.66944   3 ;   C112-  C111-  C110-  H10S
  2368   2371   2374   2377      9     0.00   0.41840   1 ;   C112-  C111-  C110-   C19
  2368   2371   2374   2377      9     0.00   0.41840   2 ;   C112-  C111-  C110-   C19
  2368   2371   2374   2377      9     0.00   0.41840   4 ;   C112-  C111-  C110-   C19
  2368   2371   2374   2377      9     0.00   0.41840   5 ;   C112-  C111-  C110-   C19
  2368   2371   2374   2377      9     0.00   1.25520   3 ;   C112-  C111-  C110-   C19
  2369   2368   2371   2372      9     0.00   0.62760   3 ;   H12R-  C112-  C111-  H11R
  2369   2368   2371   2373      9     0.00   0.62760   3 ;   H12R-  C112-  C111-  H11S
  2369   2368   2371   2374      9     0.00   0.66944   3 ;   H12R-  C112-  C111-  C110
  2370   2368   2371   2372      9     0.00   0.62760   3 ;   H12S-  C112-  C111-  H11R
  2370   2368   2371   2373      9     0.00   0.62760   3 ;   H12S-  C112-  C111-  H11S
  2370   2368   2371   2374      9     0.00   0.66944   3 ;   H12S-  C112-  C111-  C110
  2371   2374   2377   2378      9     0.00   0.66944   3 ;   C111-  C110-   C19-   H9R
  2371   2374   2377   2379      9     0.00   0.66944   3 ;   C111-  C110-   C19-   H9S
  2371   2374   2377   2380      9     0.00   0.41840   1 ;   C111-  C110-   C19-   C18
  2371   2374   2377   2380      9     0.00   0.41840   2 ;   C111-  C110-   C19-   C18
  2371   2374   2377   2380      9     0.00   0.41840   4 ;   C111-  C110-   C19-   C18
  2371   2374   2377   2380      9     0.00   0.41840   5 ;   C111-  C110-   C19-   C18
  2371   2374   2377   2380      9     0.00   1.25520   3 ;   C111-  C110-   C19-   C18
  2372   2371   2374   2375      9     0.00   0.62760   3 ;   H11R-  C111-  C110-  H10R
  2372   2371   2374   2376      9     0.00   0.62760   3 ;   H11R-  C111-  C110-  H10S
  2372   2371   2374   2377      9     0.00   0.66944   3 ;   H11R-  C111-  C110-   C19
  2373   2371   2374   2375      9     0.00   0.62760   3 ;   H11S-  C111-  C110-  H10R
  2373   2371   2374   2376      9     0.00   0.62760   3 ;   H11S-  C111-  C110-  H10S
  2373   2371   2374   2377      9     0.00   0.66944   3 ;   H11S-  C111-  C110-   C19
  2374   2377   2380   2381      9     0.00   0.66944   3 ;   C110-   C19-   C18-   H8R
  2374   2377   2380   2382      9     0.00   0.66944   3 ;   C110-   C19-   C18-   H8S
  2374   2377   2380   2383      9     0.00   0.41840   1 ;   C110-   C19-   C18-   C17
  2374   2377   2380   2383      9     0.00   0.41840   2 ;   C110-   C19-   C18-   C17
  2374   2377   2380   2383      9     0.00   0.41840   4 ;   C110-   C19-   C18-   C17
  2374   2377   2380   2383      9     0.00   0.41840   5 ;   C110-   C19-   C18-   C17
  2374   2377   2380   2383      9     0.00   1.25520   3 ;   C110-   C19-   C18-   C17
  2375   2374   2377   2378      9     0.00   0.62760   3 ;   H10R-  C110-   C19-   H9R
  2375   2374   2377   2379      9     0.00   0.62760   3 ;   H10R-  C110-   C19-   H9S
  2375   2374   2377   2380      9     0.00   0.66944   3 ;   H10R-  C110-   C19-   C18
  2376   2374   2377   2378      9     0.00   0.62760   3 ;   H10S-  C110-   C19-   H9R
  2376   2374   2377   2379      9     0.00   0.62760   3 ;   H10S-  C110-   C19-   H9S
  2376   2374   2377   2380      9     0.00   0.66944   3 ;   H10S-  C110-   C19-   C18
  2377   2380   2383   2384      9     0.00   0.66944   3 ;    C19-   C18-   C17-   H7R
  2377   2380   2383   2385      9     0.00   0.66944   3 ;    C19-   C18-   C17-   H7S
  2377   2380   2383   2386      9     0.00   0.41840   1 ;    C19-   C18-   C17-   C16
  2377   2380   2383   2386      9     0.00   0.41840   2 ;    C19-   C18-   C17-   C16
  2377   2380   2383   2386      9     0.00   0.41840   4 ;    C19-   C18-   C17-   C16
  2377   2380   2383   2386      9     0.00   0.41840   5 ;    C19-   C18-   C17-   C16
  2377   2380   2383   2386      9     0.00   1.25520   3 ;    C19-   C18-   C17-   C16
  2378   2377   2380   2381      9     0.00   0.62760   3 ;    H9R-   C19-   C18-   H8R
  2378   2377   2380   2382      9     0.00   0.62760   3 ;    H9R-   C19-   C18-   H8S
  2378   2377   2380   2383      9     0.00   0.66944   3 ;    H9R-   C19-   C18-   C17
  2379   2377   2380   2381      9     0.00   0.62760   3 ;    H9S-   C19-   C18-   H8R
  2379   2377   2380   2382      9     0.00   0.62760   3 ;    H9S-   C19-   C18-   H8S
  2379   2377   2380   2383      9     0.00   0.66944   3 ;    H9S-   C19-   C18-   C17
  2380   2383   2386   2387      9     0.00   0.66944   3 ;    C18-   C17-   C16-   H6R
  2380   2383   2386   2388      9     0.00   0.66944   3 ;    C18-   C17-   C16-   H6S
  2380   2383   2386   2389      9     0.00   0.41840   1 ;    C18-   C17-   C16-   C15
  2380   2383   2386   2389      9     0.00   0.41840   2 ;    C18-   C17-   C16-   C15
  2380   2383   2386   2389      9     0.00   0.41840   4 ;    C18-   C17-   C16-   C15
  2380   2383   2386   2389      9     0.00   0.41840   5 ;    C18-   C17-   C16-   C15
  2380   2383   2386   2389      9     0.00   1.25520   3 ;    C18-   C17-   C16-   C15
  2381   2380   2383   2384      9     0.00   0.62760   3 ;    H8R-   C18-   C17-   H7R
  2381   2380   2383   2385      9     0.00   0.62760   3 ;    H8R-   C18-   C17-   H7S
  2381   2380   2383   2386      9     0.00   0.66944   3 ;    H8R-   C18-   C17-   C16
  2382   2380   2383   2384      9     0.00   0.62760   3 ;    H8S-   C18-   C17-   H7R
  2382   2380   2383   2385      9     0.00   0.62760   3 ;    H8S-   C18-   C17-   H7S
  2382   2380   2383   2386      9     0.00   0.66944   3 ;    H8S-   C18-   C17-   C16
  2383   2386   2389   2390      9     0.00   0.66944   3 ;    C17-   C16-   C15-   H5R
  2383   2386   2389   2391      9     0.00   0.66944   3 ;    C17-   C16-   C15-   H5S
  2383   2386   2389   2392      9     0.00   0.41840   1 ;    C17-   C16-   C15-   C14
  2383   2386   2389   2392      9     0.00   0.41840   2 ;    C17-   C16-   C15-   C14
  2383   2386   2389   2392      9     0.00   0.41840   4 ;    C17-   C16-   C15-   C14
  2383   2386   2389   2392      9     0.00   0.41840   5 ;    C17-   C16-   C15-   C14
  2383   2386   2389   2392      9     0.00   1.25520   3 ;    C17-   C16-   C15-   C14
  2384   2383   2386   2387      9     0.00   0.62760   3 ;    H7R-   C17-   C16-   H6R
  2384   2383   2386   2388      9     0.00   0.62760   3 ;    H7R-   C17-   C16-   H6S
  2384   2383   2386   2389      9     0.00   0.66944   3 ;    H7R-   C17-   C16-   C15
  2385   2383   2386   2387      9     0.00   0.62760   3 ;    H7S-   C17-   C16-   H6R
  2385   2383   2386   2388      9     0.00   0.62760   3 ;    H7S-   C17-   C16-   H6S
  2385   2383   2386   2389      9     0.00   0.66944   3 ;    H7S-   C17-   C16-   C15
  2386   2389   2392   2393      9     0.00   0.66944   3 ;    C16-   C15-   C14-   H4R
  2386   2389   2392   2394      9     0.00   0.66944   3 ;    C16-   C15-   C14-   H4S
  2386   2389   2392   2395      9     0.00   0.41840   1 ;    C16-   C15-   C14-   C13
  2386   2389   2392   2395      9     0.00   0.41840   2 ;    C16-   C15-   C14-   C13
  2386   2389   2392   2395      9     0.00   0.41840   4 ;    C16-   C15-   C14-   C13
  2386   2389   2392   2395      9     0.00   0.41840   5 ;    C16-   C15-   C14-   C13
  2386   2389   2392   2395      9     0.00   1.25520   3 ;    C16-   C15-   C14-   C13
  2387   2386   2389   2390      9     0.00   0.62760   3 ;    H6R-   C16-   C15-   H5R
  2387   2386   2389   2391      9     0.00   0.62760   3 ;    H6R-   C16-   C15-   H5S
  2387   2386   2389   2392      9     0.00   0.66944   3 ;    H6R-   C16-   C15-   C14
  2388   2386   2389   2390      9     0.00   0.62760   3 ;    H6S-   C16-   C15-   H5R
  2388   2386   2389   2391      9     0.00   0.62760   3 ;    H6S-   C16-   C15-   H5S
  2388   2386   2389   2392      9     0.00   0.66944   3 ;    H6S-   C16-   C15-   C14
  2389   2392   2395   2396      9     0.00   0.66944   3 ;    C15-   C14-   C13-   H3R
  2389   2392   2395   2397      9     0.00   0.66944   3 ;    C15-   C14-   C13-   H3S
  2389   2392   2395   2398      9     0.00   0.41840   1 ;    C15-   C14-   C13-   C12
  2389   2392   2395   2398      9     0.00   0.41840   2 ;    C15-   C14-   C13-   C12
  2389   2392   2395   2398      9     0.00   0.41840   4 ;    C15-   C14-   C13-   C12
  2389   2392   2395   2398      9     0.00   0.41840   5 ;    C15-   C14-   C13-   C12
  2389   2392   2395   2398      9     0.00   1.25520   3 ;    C15-   C14-   C13-   C12
  2390   2389   2392   2393      9     0.00   0.62760   3 ;    H5R-   C15-   C14-   H4R
  2390   2389   2392   2394      9     0.00   0.62760   3 ;    H5R-   C15-   C14-   H4S
  2390   2389   2392   2395      9     0.00   0.66944   3 ;    H5R-   C15-   C14-   C13
  2391   2389   2392   2393      9     0.00   0.62760   3 ;    H5S-   C15-   C14-   H4R
  2391   2389   2392   2394      9     0.00   0.62760   3 ;    H5S-   C15-   C14-   H4S
  2391   2389   2392   2395      9     0.00   0.66944   3 ;    H5S-   C15-   C14-   C13
  2392   2395   2398   2399      9     0.00   0.66944   3 ;    C14-   C13-   C12-   H2R
  2392   2395   2398   2400      9     0.00   0.66944   3 ;    C14-   C13-   C12-   H2S
  2392   2395   2398   2401      9     0.00   0.65270   3 ;    C14-   C13-   C12-   C11
  2393   2392   2395   2396      9     0.00   0.62760   3 ;    H4R-   C14-   C13-   H3R
  2393   2392   2395   2397      9     0.00   0.62760   3 ;    H4R-   C14-   C13-   H3S
  2393   2392   2395   2398      9     0.00   0.66944   3 ;    H4R-   C14-   C13-   C12
  2394   2392   2395   2396      9     0.00   0.62760   3 ;    H4S-   C14-   C13-   H3R
  2394   2392   2395   2397      9     0.00   0.62760   3 ;    H4S-   C14-   C13-   H3S
  2394   2392   2395   2398      9     0.00   0.66944   3 ;    H4S-   C14-   C13-   C12
  2395   2398   2401   2402      9   180.00   0.00000   2 ;    C13-   C12-   C11-   O12
  2395   2398   2401   2403      9   180.00   0.00000   2 ;    C13-   C12-   C11-   O11
  2396   2395   2398   2399      9     0.00   0.62760   3 ;    H3R-   C13-   C12-   H2R
  2396   2395   2398   2400      9     0.00   0.62760   3 ;    H3R-   C13-   C12-   H2S
  2396   2395   2398   2401      9     0.00   0.65270   3 ;    H3R-   C13-   C12-   C11
  2397   2395   2398   2399      9     0.00   0.62760   3 ;    H3S-   C13-   C12-   H2R
  2397   2395   2398   2400      9     0.00   0.62760   3 ;    H3S-   C13-   C12-   H2S
  2397   2395   2398   2401      9     0.00   0.65270   3 ;    H3S-   C13-   C12-   C11
  2398   2401   2403   2404      9   180.00  11.29680   2 ;    C12-   C11-   O11-    C1
  2399   2398   2401   2402      9     0.00   3.34720   1 ;    H2R-   C12-   C11-   O12
  2399   2398   2401   2402      9   180.00   0.33472   3 ;    H2R-   C12-   C11-   O12
  2399   2398   2401   2403      9   180.00   0.00000   2 ;    H2R-   C12-   C11-   O11
  2400   2398   2401   2402      9     0.00   3.34720   1 ;    H2S-   C12-   C11-   O12
  2400   2398   2401   2402      9   180.00   0.33472   3 ;    H2S-   C12-   C11-   O12
  2400   2398   2401   2403      9   180.00   0.00000   2 ;    H2S-   C12-   C11-   O11
  2401   2403   2404   2405      9     0.00   1.60247   3 ;    C11-   O11-    C1-    HR
  2401   2403   2404   2406      9     0.00   1.60247   3 ;    C11-   O11-    C1-    HS
  2401   2403   2404   2407      9     0.00  -0.41840   1 ;    C11-   O11-    C1-    C2
  2402   2401   2403   2404      9   180.00   5.85760   1 ;    O12-   C11-   O11-    C1
  2402   2401   2403   2404      9   180.00  11.29680   2 ;    O12-   C11-   O11-    C1
  2403   2404   2407   2408      9     0.00   0.00000   0 ;    O11-    C1-    C2-    HX
  2403   2404   2407   2408      9     0.00   1.04600   1 ;    O11-    C1-    C2-    HX
  2403   2404   2407   2409      9     0.00   0.00000   0 ;    O11-    C1-    C2-    C3
  2403   2404   2407   2409      9     0.00   0.00000   0 ;    O11-    C1-    C2-    C3
  2403   2404   2407   2409      9     0.00   0.00000   0 ;    O11-    C1-    C2-    C3
  2403   2404   2407   2409      9     0.00   0.00000   0 ;    O11-    C1-    C2-    C3
  2403   2404   2407   2409      9     0.00   0.00000   0 ;    O11-    C1-    C2-    C3
  2403   2404   2407   2436      9     0.00   1.25520   2 ;    O11-    C1-    C2-   O21
  2403   2404   2407   2436      9     0.00   4.18400   3 ;    O11-    C1-    C2-   O21
  2403   2404   2407   2436      9   180.00  -0.41840   1 ;    O11-    C1-    C2-   O21
  2404   2407   2409   2410      9     0.00   0.65270   3 ;     C1-    C2-    C3-    HA
  2404   2407   2409   2411      9     0.00   0.65270   3 ;     C1-    C2-    C3-    HB
  2404   2407   2409   2412      9   180.00   3.34720   1 ;     C1-    C2-    C3-   O31
  2404   2407   2436   2437      9     0.00  -0.41840   1 ;     C1-    C2-   O21-   C21
  2405   2404   2407   2408      9     0.00   0.65270   3 ;     HR-    C1-    C2-    HX
  2405   2404   2407   2409      9     0.00   0.65270   3 ;     HR-    C1-    C2-    C3
  2405   2404   2407   2436      9     0.00   0.00000   0 ;     HR-    C1-    C2-   O21
  2405   2404   2407   2436      9     0.00   1.04600   1 ;     HR-    C1-    C2-   O21
  2406   2404   2407   2408      9     0.00   0.65270   3 ;     HS-    C1-    C2-    HX
  2406   2404   2407   2409      9     0.00   0.65270   3 ;     HS-    C1-    C2-    C3
  2406   2404   2407   2436      9     0.00   0.00000   0 ;     HS-    C1-    C2-   O21
  2406   2404   2407   2436      9     0.00   1.04600   1 ;     HS-    C1-    C2-   O21
  2407   2409   2412   2413      9     0.00   0.00000   0 ;     C2-    C3-   O31-   P31
  2407   2409   2412   2413      9   180.00  -3.34720   2 ;     C2-    C3-   O31-   P31
  2407   2436   2437   2438      9   180.00   5.85760   1 ;     C2-   O21-   C21-   O22
  2407   2436   2437   2438      9   180.00  11.29680   2 ;     C2-   O21-   C21-   O22
  2407   2436   2437   2476      9   180.00  11.29680   2 ;     C2-   O21-   C21-   C12
  2408   2407   2409   2410      9     0.00   0.65270   3 ;     HX-    C2-    C3-    HA
  2408   2407   2409   2411      9     0.00   0.65270   3 ;     HX-    C2-    C3-    HB
  2408   2407   2409   2412      9     0.00   0.00000   0 ;     HX-    C2-    C3-   O31
  2408   2407   2409   2412      9     0.00   1.04600   1 ;     HX-    C2-    C3-   O31
  2408   2407   2436   2437      9     0.00   1.60247   3 ;     HX-    C2-   O21-   C21
  2409   2407   2436   2437      9     0.00  -0.41840   1 ;     C3-    C2-   O21-   C21
  2409   2412   2413   2414      9     0.00   2.51040   3 ;     C3-   O31-   P31-   O32
  2409   2412   2413   2414      9     0.00   9.62320   2 ;     C3-   O31-   P31-   O32
  2409   2412   2413   2434      9     0.00   0.00000   0 ;     C3-   O31-   P31-   O33
  2409   2412   2413   2434      9     0.00   0.00000   0 ;     C3-   O31-   P31-   O33
  2409   2412   2413   2434      9     0.00   0.00000   0 ;     C3-   O31-   P31-   O33
  2409   2412   2413   2434      9     0.00   0.00000   0 ;     C3-   O31-   P31-   O33
  2409   2412   2413   2434      9     0.00   0.83680   2 ;     C3-   O31-   P31-   O33
  2409   2412   2413   2435      9     0.00   0.00000   0 ;     C3-   O31-   P31-   O34
  2409   2412   2413   2435      9     0.00   0.00000   0 ;     C3-   O31-   P31-   O34
  2409   2412   2413   2435      9     0.00   0.00000   0 ;     C3-   O31-   P31-   O34
  2409   2412   2413   2435      9     0.00   0.00000   0 ;     C3-   O31-   P31-   O34
  2409   2412   2413   2435      9     0.00   0.83680   2 ;     C3-   O31-   P31-   O34
  2410   2409   2407   2436      9     0.00   0.00000   0 ;     HA-    C3-    C2-   O21
  2410   2409   2407   2436      9     0.00   1.04600   1 ;     HA-    C3-    C2-   O21
  2410   2409   2412   2413      9     0.00   0.00000   0 ;     HA-    C3-   O31-   P31
  2410   2409   2412   2413      9     0.00   0.00000   0 ;     HA-    C3-   O31-   P31
  2410   2409   2412   2413      9     0.00   0.00000   0 ;     HA-    C3-   O31-   P31
  2410   2409   2412   2413      9     0.00   0.00000   0 ;     HA-    C3-   O31-   P31
  2410   2409   2412   2413      9     0.00   1.60247   3 ;     HA-    C3-   O31-   P31
  2411   2409   2407   2436      9     0.00   0.00000   0 ;     HB-    C3-    C2-   O21
  2411   2409   2407   2436      9     0.00   1.04600   1 ;     HB-    C3-    C2-   O21
  2411   2409   2412   2413      9     0.00   0.00000   0 ;     HB-    C3-   O31-   P31
  2411   2409   2412   2413      9     0.00   0.00000   0 ;     HB-    C3-   O31-   P31
  2411   2409   2412   2413      9     0.00   0.00000   0 ;     HB-    C3-   O31-   P31
  2411   2409   2412   2413      9     0.00   0.00000   0 ;     HB-    C3-   O31-   P31
  2411   2409   2412   2413      9     0.00   1.60247   3 ;     HB-    C3-   O31-   P31
  2412   2409   2407   2436      9     0.00   0.00000   0 ;    O31-    C3-    C2-   O21
  2412   2409   2407   2436      9     0.00   0.00000   0 ;    O31-    C3-    C2-   O21
  2412   2409   2407   2436      9     0.00   0.00000   0 ;    O31-    C3-    C2-   O21
  2412   2409   2407   2436      9     0.00   0.00000   0 ;    O31-    C3-    C2-   O21
  2412   2409   2407   2436      9     0.00   0.00000   0 ;    O31-    C3-    C2-   O21
  2412   2413   2414   2415      9     0.00   2.51040   3 ;    O31-   P31-   O32-   C31
  2412   2413   2414   2415      9     0.00   9.62320   2 ;    O31-   P31-   O32-   C31
  2413   2414   2415   2416      9     0.00   0.00000   0 ;    P31-   O32-   C31-   H1A
  2413   2414   2415   2416      9     0.00   0.00000   0 ;    P31-   O32-   C31-   H1A
  2413   2414   2415   2416      9     0.00   0.00000   0 ;    P31-   O32-   C31-   H1A
  2413   2414   2415   2416      9     0.00   0.00000   0 ;    P31-   O32-   C31-   H1A
  2413   2414   2415   2416      9     0.00   1.60247   3 ;    P31-   O32-   C31-   H1A
  2413   2414   2415   2417      9     0.00   0.00000   0 ;    P31-   O32-   C31-   H1B
  2413   2414   2415   2417      9     0.00   0.00000   0 ;    P31-   O32-   C31-   H1B
  2413   2414   2415   2417      9     0.00   0.00000   0 ;    P31-   O32-   C31-   H1B
  2413   2414   2415   2417      9     0.00   0.00000   0 ;    P31-   O32-   C31-   H1B
  2413   2414   2415   2417      9     0.00   1.60247   3 ;    P31-   O32-   C31-   H1B
  2413   2414   2415   2418      9     0.00   0.00000   0 ;    P31-   O32-   C31-   C32
  2413   2414   2415   2418      9   180.00  -3.34720   2 ;    P31-   O32-   C31-   C32
  2414   2415   2418   2419      9     0.00   0.65270   3 ;    O32-   C31-   C32-   H2A
  2414   2415   2418   2420      9     0.00   0.65270   3 ;    O32-   C31-   C32-   H2B
  2414   2415   2418   2421      9     0.00   4.18400   3 ;    O32-   C31-   C32-   N31
  2415   2414   2413   2434      9     0.00   0.00000   0 ;    C31-   O32-   P31-   O33
  2415   2414   2413   2434      9     0.00   0.00000   0 ;    C31-   O32-   P31-   O33
  2415   2414   2413   2434      9     0.00   0.00000   0 ;    C31-   O32-   P31-   O33
  2415   2414   2413   2434      9     0.00   0.00000   0 ;    C31-   O32-   P31-   O33
  2415   2414   2413   2434      9     0.00   0.83680   2 ;    C31-   O32-   P31-   O33
  2415   2414   2413   2435      9     0.00   0.00000   0 ;    C31-   O32-   P31-   O34
  2415   2414   2413   2435      9     0.00   0.00000   0 ;    C31-   O32-   P31-   O34
  2415   2414   2413   2435      9     0.00   0.00000   0 ;    C31-   O32-   P31-   O34
  2415   2414   2413   2435      9     0.00   0.00000   0 ;    C31-   O32-   P31-   O34
  2415   2414   2413   2435      9     0.00   0.83680   2 ;    C31-   O32-   P31-   O34
  2415   2418   2421   2422      9     0.00   0.65270   3 ;    C31-   C32-   N31-   C33
  2415   2418   2421   2426      9     0.00   0.65270   3 ;    C31-   C32-   N31-   C34
  2415   2418   2421   2430      9     0.00   0.65270   3 ;    C31-   C32-   N31-   C35
  2416   2415   2418   2419      9     0.00   0.65270   3 ;    H1A-   C31-   C32-   H2A
  2416   2415   2418   2420      9     0.00   0.65270   3 ;    H1A-   C31-   C32-   H2B
  2416   2415   2418   2421      9     0.00   0.65270   3 ;    H1A-   C31-   C32-   N31
  2417   2415   2418   2419      9     0.00   0.65270   3 ;    H1B-   C31-   C32-   H2A
  2417   2415   2418   2420      9     0.00   0.65270   3 ;    H1B-   C31-   C32-   H2B
  2417   2415   2418   2421      9     0.00   0.65270   3 ;    H1B-   C31-   C32-   N31
  2418   2421   2422   2423      9     0.00   0.65270   3 ;    C32-   N31-   C33-   H3A
  2418   2421   2422   2424      9     0.00   0.65270   3 ;    C32-   N31-   C33-   H3B
  2418   2421   2422   2425      9     0.00   0.65270   3 ;    C32-   N31-   C33-   H3C
  2418   2421   2426   2427      9     0.00   0.65270   3 ;    C32-   N31-   C34-   H4A
  2418   2421   2426   2428      9     0.00   0.65270   3 ;    C32-   N31-   C34-   H4B
  2418   2421   2426   2429      9     0.00   0.65270   3 ;    C32-   N31-   C34-   H4C
  2418   2421   2430   2431      9     0.00   0.65270   3 ;    C32-   N31-   C35-   H5A
  2418   2421   2430   2432      9     0.00   0.65270   3 ;    C32-   N31-   C35-   H5B
  2418   2421   2430   2433      9     0.00   0.65270   3 ;    C32-   N31-   C35-   H5C
  2419   2418   2421   2422      9     0.00   0.65270   3 ;    H2A-   C32-   N31-   C33
  2419   2418   2421   2426      9     0.00   0.65270   3 ;    H2A-   C32-   N31-   C34
  2419   2418   2421   2430      9     0.00   0.65270   3 ;    H2A-   C32-   N31-   C35
  2420   2418   2421   2422      9     0.00   0.65270   3 ;    H2B-   C32-   N31-   C33
  2420   2418   2421   2426      9     0.00   0.65270   3 ;    H2B-   C32-   N31-   C34
  2420   2418   2421   2430      9     0.00   0.65270   3 ;    H2B-   C32-   N31-   C35
  2422   2421   2426   2427      9     0.00   0.65270   3 ;    C33-   N31-   C34-   H4A
  2422   2421   2426   2428      9     0.00   0.65270   3 ;    C33-   N31-   C34-   H4B
  2422   2421   2426   2429      9     0.00   0.65270   3 ;    C33-   N31-   C34-   H4C
  2422   2421   2430   2431      9     0.00   0.65270   3 ;    C33-   N31-   C35-   H5A
  2422   2421   2430   2432      9     0.00   0.65270   3 ;    C33-   N31-   C35-   H5B
  2422   2421   2430   2433      9     0.00   0.65270   3 ;    C33-   N31-   C35-   H5C
  2423   2422   2421   2426      9     0.00   0.65270   3 ;    H3A-   C33-   N31-   C34
  2423   2422   2421   2430      9     0.00   0.65270   3 ;    H3A-   C33-   N31-   C35
  2424   2422   2421   2426      9     0.00   0.65270   3 ;    H3B-   C33-   N31-   C34
  2424   2422   2421   2430      9     0.00   0.65270   3 ;    H3B-   C33-   N31-   C35
  2425   2422   2421   2426      9     0.00   0.65270   3 ;    H3C-   C33-   N31-   C34
  2425   2422   2421   2430      9     0.00   0.65270   3 ;    H3C-   C33-   N31-   C35
  2426   2421   2430   2431      9     0.00   0.65270   3 ;    C34-   N31-   C35-   H5A
  2426   2421   2430   2432      9     0.00   0.65270   3 ;    C34-   N31-   C35-   H5B
  2426   2421   2430   2433      9     0.00   0.65270   3 ;    C34-   N31-   C35-   H5C
  2427   2426   2421   2430      9     0.00   0.65270   3 ;    H4A-   C34-   N31-   C35
  2428   2426   2421   2430      9     0.00   0.65270   3 ;    H4B-   C34-   N31-   C35
  2429   2426   2421   2430      9     0.00   0.65270   3 ;    H4C-   C34-   N31-   C35
  2436   2437   2476   2473      9   180.00   0.00000   2 ;    O21-   C21-   C12-   C13
  2436   2437   2476   2477      9   180.00   0.00000   2 ;    O21-   C21-   C12-   H2R
  2436   2437   2476   2478      9   180.00   0.00000   2 ;    O21-   C21-   C12-   H2S
  2437   2476   2473   2470      9     0.00   0.65270   3 ;    C21-   C12-   C13-   C14
  2437   2476   2473   2474      9     0.00   0.65270   3 ;    C21-   C12-   C13-   H3R
  2437   2476   2473   2475      9     0.00   0.65270   3 ;    C21-   C12-   C13-   H3S
  2438   2437   2476   2473      9   180.00   0.00000   2 ;    O22-   C21-   C12-   C13
  2438   2437   2476   2477      9     0.00   3.34720   1 ;    O22-   C21-   C12-   H2R
  2438   2437   2476   2477      9   180.00   0.33472   3 ;    O22-   C21-   C12-   H2R
  2438   2437   2476   2478      9     0.00   3.34720   1 ;    O22-   C21-   C12-   H2S
  2438   2437   2476   2478      9   180.00   0.33472   3 ;    O22-   C21-   C12-   H2S
  2439   2440   2443   2444      9     0.00   0.62760   3 ;   H14T-  C114-  C113-  H13R
  2439   2440   2443   2445      9     0.00   0.62760   3 ;   H14T-  C114-  C113-  H13S
  2439   2440   2443   2446      9     0.00   0.66944   3 ;   H14T-  C114-  C113-  C112
  2440   2443   2446   2447      9     0.00   0.66944   3 ;   C114-  C113-  C112-  H12R
  2440   2443   2446   2448      9     0.00   0.66944   3 ;   C114-  C113-  C112-  H12S
  2440   2443   2446   2449      9     0.00   0.41840   1 ;   C114-  C113-  C112-  C111
  2440   2443   2446   2449      9     0.00   0.41840   2 ;   C114-  C113-  C112-  C111
  2440   2443   2446   2449      9     0.00   0.41840   4 ;   C114-  C113-  C112-  C111
  2440   2443   2446   2449      9     0.00   0.41840   5 ;   C114-  C113-  C112-  C111
  2440   2443   2446   2449      9     0.00   1.25520   3 ;   C114-  C113-  C112-  C111
  2441   2440   2443   2444      9     0.00   0.62760   3 ;   H14R-  C114-  C113-  H13R
  2441   2440   2443   2445      9     0.00   0.62760   3 ;   H14R-  C114-  C113-  H13S
  2441   2440   2443   2446      9     0.00   0.66944   3 ;   H14R-  C114-  C113-  C112
  2442   2440   2443   2444      9     0.00   0.62760   3 ;   H14S-  C114-  C113-  H13R
  2442   2440   2443   2445      9     0.00   0.62760   3 ;   H14S-  C114-  C113-  H13S
  2442   2440   2443   2446      9     0.00   0.66944   3 ;   H14S-  C114-  C113-  C112
  2443   2446   2449   2450      9     0.00   0.66944   3 ;   C113-  C112-  C111-  H11R
  2443   2446   2449   2451      9     0.00   0.66944   3 ;   C113-  C112-  C111-  H11S
  2443   2446   2449   2452      9     0.00   0.41840   1 ;   C113-  C112-  C111-  C110
  2443   2446   2449   2452      9     0.00   0.41840   2 ;   C113-  C112-  C111-  C110
  2443   2446   2449   2452      9     0.00   0.41840   4 ;   C113-  C112-  C111-  C110
  2443   2446   2449   2452      9     0.00   0.41840   5 ;   C113-  C112-  C111-  C110
  2443   2446   2449   2452      9     0.00   1.25520   3 ;   C113-  C112-  C111-  C110
  2444   2443   2446   2447      9     0.00   0.62760   3 ;   H13R-  C113-  C112-  H12R
  2444   2443   2446   2448      9     0.00   0.62760   3 ;   H13R-  C113-  C112-  H12S
  2444   2443   2446   2449      9     0.00   0.66944   3 ;   H13R-  C113-  C112-  C111
  2445   2443   2446   2447      9     0.00   0.62760   3 ;   H13S-  C113-  C112-  H12R
  2445   2443   2446   2448      9     0.00   0.62760   3 ;   H13S-  C113-  C112-  H12S
  2445   2443   2446   2449      9     0.00   0.66944   3 ;   H13S-  C113-  C112-  C111
  2446   2449   2452   2453      9     0.00   0.66944   3 ;   C112-  C111-  C110-  H10R
  2446   2449   2452   2454      9     0.00   0.66944   3 ;   C112-  C111-  C110-  H10S
  2446   2449   2452   2455      9     0.00   0.41840   1 ;   C112-  C111-  C110-   C19
  2446   2449   2452   2455      9     0.00   0.41840   2 ;   C112-  C111-  C110-   C19
  2446   2449   2452   2455      9     0.00   0.41840   4 ;   C112-  C111-  C110-   C19
  2446   2449   2452   2455      9     0.00   0.41840   5 ;   C112-  C111-  C110-   C19
  2446   2449   2452   2455      9     0.00   1.25520   3 ;   C112-  C111-  C110-   C19
  2447   2446   2449   2450      9     0.00   0.62760   3 ;   H12R-  C112-  C111-  H11R
  2447   2446   2449   2451      9     0.00   0.62760   3 ;   H12R-  C112-  C111-  H11S
  2447   2446   2449   2452      9     0.00   0.66944   3 ;   H12R-  C112-  C111-  C110
  2448   2446   2449   2450      9     0.00   0.62760   3 ;   H12S-  C112-  C111-  H11R
  2448   2446   2449   2451      9     0.00   0.62760   3 ;   H12S-  C112-  C111-  H11S
  2448   2446   2449   2452      9     0.00   0.66944   3 ;   H12S-  C112-  C111-  C110
  2449   2452   2455   2456      9     0.00   0.66944   3 ;   C111-  C110-   C19-   H9R
  2449   2452   2455   2457      9     0.00   0.66944   3 ;   C111-  C110-   C19-   H9S
  2449   2452   2455   2458      9     0.00   0.41840   1 ;   C111-  C110-   C19-   C18
  2449   2452   2455   2458      9     0.00   0.41840   2 ;   C111-  C110-   C19-   C18
  2449   2452   2455   2458      9     0.00   0.41840   4 ;   C111-  C110-   C19-   C18
  2449   2452   2455   2458      9     0.00   0.41840   5 ;   C111-  C110-   C19-   C18
  2449   2452   2455   2458      9     0.00   1.25520   3 ;   C111-  C110-   C19-   C18
  2450   2449   2452   2453      9     0.00   0.62760   3 ;   H11R-  C111-  C110-  H10R
  2450   2449   2452   2454      9     0.00   0.62760   3 ;   H11R-  C111-  C110-  H10S
  2450   2449   2452   2455      9     0.00   0.66944   3 ;   H11R-  C111-  C110-   C19
  2451   2449   2452   2453      9     0.00   0.62760   3 ;   H11S-  C111-  C110-  H10R
  2451   2449   2452   2454      9     0.00   0.62760   3 ;   H11S-  C111-  C110-  H10S
  2451   2449   2452   2455      9     0.00   0.66944   3 ;   H11S-  C111-  C110-   C19
  2452   2455   2458   2459      9     0.00   0.66944   3 ;   C110-   C19-   C18-   H8R
  2452   2455   2458   2460      9     0.00   0.66944   3 ;   C110-   C19-   C18-   H8S
  2452   2455   2458   2461      9     0.00   0.41840   1 ;   C110-   C19-   C18-   C17
  2452   2455   2458   2461      9     0.00   0.41840   2 ;   C110-   C19-   C18-   C17
  2452   2455   2458   2461      9     0.00   0.41840   4 ;   C110-   C19-   C18-   C17
  2452   2455   2458   2461      9     0.00   0.41840   5 ;   C110-   C19-   C18-   C17
  2452   2455   2458   2461      9     0.00   1.25520   3 ;   C110-   C19-   C18-   C17
  2453   2452   2455   2456      9     0.00   0.62760   3 ;   H10R-  C110-   C19-   H9R
  2453   2452   2455   2457      9     0.00   0.62760   3 ;   H10R-  C110-   C19-   H9S
  2453   2452   2455   2458      9     0.00   0.66944   3 ;   H10R-  C110-   C19-   C18
  2454   2452   2455   2456      9     0.00   0.62760   3 ;   H10S-  C110-   C19-   H9R
  2454   2452   2455   2457      9     0.00   0.62760   3 ;   H10S-  C110-   C19-   H9S
  2454   2452   2455   2458      9     0.00   0.66944   3 ;   H10S-  C110-   C19-   C18
  2455   2458   2461   2462      9     0.00   0.66944   3 ;    C19-   C18-   C17-   H7R
  2455   2458   2461   2463      9     0.00   0.66944   3 ;    C19-   C18-   C17-   H7S
  2455   2458   2461   2464      9     0.00   0.41840   1 ;    C19-   C18-   C17-   C16
  2455   2458   2461   2464      9     0.00   0.41840   2 ;    C19-   C18-   C17-   C16
  2455   2458   2461   2464      9     0.00   0.41840   4 ;    C19-   C18-   C17-   C16
  2455   2458   2461   2464      9     0.00   0.41840   5 ;    C19-   C18-   C17-   C16
  2455   2458   2461   2464      9     0.00   1.25520   3 ;    C19-   C18-   C17-   C16
  2456   2455   2458   2459      9     0.00   0.62760   3 ;    H9R-   C19-   C18-   H8R
  2456   2455   2458   2460      9     0.00   0.62760   3 ;    H9R-   C19-   C18-   H8S
  2456   2455   2458   2461      9     0.00   0.66944   3 ;    H9R-   C19-   C18-   C17
  2457   2455   2458   2459      9     0.00   0.62760   3 ;    H9S-   C19-   C18-   H8R
  2457   2455   2458   2460      9     0.00   0.62760   3 ;    H9S-   C19-   C18-   H8S
  2457   2455   2458   2461      9     0.00   0.66944   3 ;    H9S-   C19-   C18-   C17
  2458   2461   2464   2465      9     0.00   0.66944   3 ;    C18-   C17-   C16-   H6R
  2458   2461   2464   2466      9     0.00   0.66944   3 ;    C18-   C17-   C16-   H6S
  2458   2461   2464   2467      9     0.00   0.41840   1 ;    C18-   C17-   C16-   C15
  2458   2461   2464   2467      9     0.00   0.41840   2 ;    C18-   C17-   C16-   C15
  2458   2461   2464   2467      9     0.00   0.41840   4 ;    C18-   C17-   C16-   C15
  2458   2461   2464   2467      9     0.00   0.41840   5 ;    C18-   C17-   C16-   C15
  2458   2461   2464   2467      9     0.00   1.25520   3 ;    C18-   C17-   C16-   C15
  2459   2458   2461   2462      9     0.00   0.62760   3 ;    H8R-   C18-   C17-   H7R
  2459   2458   2461   2463      9     0.00   0.62760   3 ;    H8R-   C18-   C17-   H7S
  2459   2458   2461   2464      9     0.00   0.66944   3 ;    H8R-   C18-   C17-   C16
  2460   2458   2461   2462      9     0.00   0.62760   3 ;    H8S-   C18-   C17-   H7R
  2460   2458   2461   2463      9     0.00   0.62760   3 ;    H8S-   C18-   C17-   H7S
  2460   2458   2461   2464      9     0.00   0.66944   3 ;    H8S-   C18-   C17-   C16
  2461   2464   2467   2468      9     0.00   0.66944   3 ;    C17-   C16-   C15-   H5R
  2461   2464   2467   2469      9     0.00   0.66944   3 ;    C17-   C16-   C15-   H5S
  2461   2464   2467   2470      9     0.00   0.41840   1 ;    C17-   C16-   C15-   C14
  2461   2464   2467   2470      9     0.00   0.41840   2 ;    C17-   C16-   C15-   C14
  2461   2464   2467   2470      9     0.00   0.41840   4 ;    C17-   C16-   C15-   C14
  2461   2464   2467   2470      9     0.00   0.41840   5 ;    C17-   C16-   C15-   C14
  2461   2464   2467   2470      9     0.00   1.25520   3 ;    C17-   C16-   C15-   C14
  2462   2461   2464   2465      9     0.00   0.62760   3 ;    H7R-   C17-   C16-   H6R
  2462   2461   2464   2466      9     0.00   0.62760   3 ;    H7R-   C17-   C16-   H6S
  2462   2461   2464   2467      9     0.00   0.66944   3 ;    H7R-   C17-   C16-   C15
  2463   2461   2464   2465      9     0.00   0.62760   3 ;    H7S-   C17-   C16-   H6R
  2463   2461   2464   2466      9     0.00   0.62760   3 ;    H7S-   C17-   C16-   H6S
  2463   2461   2464   2467      9     0.00   0.66944   3 ;    H7S-   C17-   C16-   C15
  2464   2467   2470   2471      9     0.00   0.66944   3 ;    C16-   C15-   C14-   H4R
  2464   2467   2470   2472      9     0.00   0.66944   3 ;    C16-   C15-   C14-   H4S
  2464   2467   2470   2473      9     0.00   0.41840   1 ;    C16-   C15-   C14-   C13
  2464   2467   2470   2473      9     0.00   0.41840   2 ;    C16-   C15-   C14-   C13
  2464   2467   2470   2473      9     0.00   0.41840   4 ;    C16-   C15-   C14-   C13
  2464   2467   2470   2473      9     0.00   0.41840   5 ;    C16-   C15-   C14-   C13
  2464   2467   2470   2473      9     0.00   1.25520   3 ;    C16-   C15-   C14-   C13
  2465   2464   2467   2468      9     0.00   0.62760   3 ;    H6R-   C16-   C15-   H5R
  2465   2464   2467   2469      9     0.00   0.62760   3 ;    H6R-   C16-   C15-   H5S
  2465   2464   2467   2470      9     0.00   0.66944   3 ;    H6R-   C16-   C15-   C14
  2466   2464   2467   2468      9     0.00   0.62760   3 ;    H6S-   C16-   C15-   H5R
  2466   2464   2467   2469      9     0.00   0.62760   3 ;    H6S-   C16-   C15-   H5S
  2466   2464   2467   2470      9     0.00   0.66944   3 ;    H6S-   C16-   C15-   C14
  2467   2470   2473   2474      9     0.00   0.66944   3 ;    C15-   C14-   C13-   H3R
  2467   2470   2473   2475      9     0.00   0.66944   3 ;    C15-   C14-   C13-   H3S
  2467   2470   2473   2476      9     0.00   0.41840   1 ;    C15-   C14-   C13-   C12
  2467   2470   2473   2476      9     0.00   0.41840   2 ;    C15-   C14-   C13-   C12
  2467   2470   2473   2476      9     0.00   0.41840   4 ;    C15-   C14-   C13-   C12
  2467   2470   2473   2476      9     0.00   0.41840   5 ;    C15-   C14-   C13-   C12
  2467   2470   2473   2476      9     0.00   1.25520   3 ;    C15-   C14-   C13-   C12
  2468   2467   2470   2471      9     0.00   0.62760   3 ;    H5R-   C15-   C14-   H4R
  2468   2467   2470   2472      9     0.00   0.62760   3 ;    H5R-   C15-   C14-   H4S
  2468   2467   2470   2473      9     0.00   0.66944   3 ;    H5R-   C15-   C14-   C13
  2469   2467   2470   2471      9     0.00   0.62760   3 ;    H5S-   C15-   C14-   H4R
  2469   2467   2470   2472      9     0.00   0.62760   3 ;    H5S-   C15-   C14-   H4S
  2469   2467   2470   2473      9     0.00   0.66944   3 ;    H5S-   C15-   C14-   C13
  2470   2473   2476   2477      9     0.00   0.66944   3 ;    C14-   C13-   C12-   H2R
  2470   2473   2476   2478      9     0.00   0.66944   3 ;    C14-   C13-   C12-   H2S
  2471   2470   2473   2474      9     0.00   0.62760   3 ;    H4R-   C14-   C13-   H3R
  2471   2470   2473   2475      9     0.00   0.62760   3 ;    H4R-   C14-   C13-   H3S
  2471   2470   2473   2476      9     0.00   0.66944   3 ;    H4R-   C14-   C13-   C12
  2472   2470   2473   2474      9     0.00   0.62760   3 ;    H4S-   C14-   C13-   H3R
  2472   2470   2473   2475      9     0.00   0.62760   3 ;    H4S-   C14-   C13-   H3S
  2472   2470   2473   2476      9     0.00   0.66944   3 ;    H4S-   C14-   C13-   C12
  2474   2473   2476   2477      9     0.00   0.62760   3 ;    H3R-   C13-   C12-   H2R
  2474   2473   2476   2478      9     0.00   0.62760   3 ;    H3R-   C13-   C12-   H2S
  2475   2473   2476   2477      9     0.00   0.62760   3 ;    H3S-   C13-   C12-   H2R
  2475   2473   2476   2478      9     0.00   0.62760   3 ;    H3S-   C13-   C12-   H2S
  2479   2480   2483   2484      9     0.00   0.62760   3 ;   H14T-  C114-  C113-  H13R
  2479   2480   2483   2485      9     0.00   0.62760   3 ;   H14T-  C114-  C113-  H13S
  2479   2480   2483   2486      9     0.00   0.66944   3 ;   H14T-  C114-  C113-  C112
  2480   2483   2486   2487      9     0.00   0.66944   3 ;   C114-  C113-  C112-  H12R
  2480   2483   2486   2488      9     0.00   0.66944   3 ;   C114-  C113-  C112-  H12S
  2480   2483   2486   2489      9     0.00   0.41840   1 ;   C114-  C113-  C112-  C111
  2480   2483   2486   2489      9     0.00   0.41840   2 ;   C114-  C113-  C112-  C111
  2480   2483   2486   2489      9     0.00   0.41840   4 ;   C114-  C113-  C112-  C111
  2480   2483   2486   2489      9     0.00   0.41840   5 ;   C114-  C113-  C112-  C111
  2480   2483   2486   2489      9     0.00   1.25520   3 ;   C114-  C113-  C112-  C111
  2481   2480   2483   2484      9     0.00   0.62760   3 ;   H14R-  C114-  C113-  H13R
  2481   2480   2483   2485      9     0.00   0.62760   3 ;   H14R-  C114-  C113-  H13S
  2481   2480   2483   2486      9     0.00   0.66944   3 ;   H14R-  C114-  C113-  C112
  2482   2480   2483   2484      9     0.00   0.62760   3 ;   H14S-  C114-  C113-  H13R
  2482   2480   2483   2485      9     0.00   0.62760   3 ;   H14S-  C114-  C113-  H13S
  2482   2480   2483   2486      9     0.00   0.66944   3 ;   H14S-  C114-  C113-  C112
  2483   2486   2489   2490      9     0.00   0.66944   3 ;   C113-  C112-  C111-  H11R
  2483   2486   2489   2491      9     0.00   0.66944   3 ;   C113-  C112-  C111-  H11S
  2483   2486   2489   2492      9     0.00   0.41840   1 ;   C113-  C112-  C111-  C110
  2483   2486   2489   2492      9     0.00   0.41840   2 ;   C113-  C112-  C111-  C110
  2483   2486   2489   2492      9     0.00   0.41840   4 ;   C113-  C112-  C111-  C110
  2483   2486   2489   2492      9     0.00   0.41840   5 ;   C113-  C112-  C111-  C110
  2483   2486   2489   2492      9     0.00   1.25520   3 ;   C113-  C112-  C111-  C110
  2484   2483   2486   2487      9     0.00   0.62760   3 ;   H13R-  C113-  C112-  H12R
  2484   2483   2486   2488      9     0.00   0.62760   3 ;   H13R-  C113-  C112-  H12S
  2484   2483   2486   2489      9     0.00   0.66944   3 ;   H13R-  C113-  C112-  C111
  2485   2483   2486   2487      9     0.00   0.62760   3 ;   H13S-  C113-  C112-  H12R
  2485   2483   2486   2488      9     0.00   0.62760   3 ;   H13S-  C113-  C112-  H12S
  2485   2483   2486   2489      9     0.00   0.66944   3 ;   H13S-  C113-  C112-  C111
  2486   2489   2492   2493      9     0.00   0.66944   3 ;   C112-  C111-  C110-  H10R
  2486   2489   2492   2494      9     0.00   0.66944   3 ;   C112-  C111-  C110-  H10S
  2486   2489   2492   2495      9     0.00   0.41840   1 ;   C112-  C111-  C110-   C19
  2486   2489   2492   2495      9     0.00   0.41840   2 ;   C112-  C111-  C110-   C19
  2486   2489   2492   2495      9     0.00   0.41840   4 ;   C112-  C111-  C110-   C19
  2486   2489   2492   2495      9     0.00   0.41840   5 ;   C112-  C111-  C110-   C19
  2486   2489   2492   2495      9     0.00   1.25520   3 ;   C112-  C111-  C110-   C19
  2487   2486   2489   2490      9     0.00   0.62760   3 ;   H12R-  C112-  C111-  H11R
  2487   2486   2489   2491      9     0.00   0.62760   3 ;   H12R-  C112-  C111-  H11S
  2487   2486   2489   2492      9     0.00   0.66944   3 ;   H12R-  C112-  C111-  C110
  2488   2486   2489   2490      9     0.00   0.62760   3 ;   H12S-  C112-  C111-  H11R
  2488   2486   2489   2491      9     0.00   0.62760   3 ;   H12S-  C112-  C111-  H11S
  2488   2486   2489   2492      9     0.00   0.66944   3 ;   H12S-  C112-  C111-  C110
  2489   2492   2495   2496      9     0.00   0.66944   3 ;   C111-  C110-   C19-   H9R
  2489   2492   2495   2497      9     0.00   0.66944   3 ;   C111-  C110-   C19-   H9S
  2489   2492   2495   2498      9     0.00   0.41840   1 ;   C111-  C110-   C19-   C18
  2489   2492   2495   2498      9     0.00   0.41840   2 ;   C111-  C110-   C19-   C18
  2489   2492   2495   2498      9     0.00   0.41840   4 ;   C111-  C110-   C19-   C18
  2489   2492   2495   2498      9     0.00   0.41840   5 ;   C111-  C110-   C19-   C18
  2489   2492   2495   2498      9     0.00   1.25520   3 ;   C111-  C110-   C19-   C18
  2490   2489   2492   2493      9     0.00   0.62760   3 ;   H11R-  C111-  C110-  H10R
  2490   2489   2492   2494      9     0.00   0.62760   3 ;   H11R-  C111-  C110-  H10S
  2490   2489   2492   2495      9     0.00   0.66944   3 ;   H11R-  C111-  C110-   C19
  2491   2489   2492   2493      9     0.00   0.62760   3 ;   H11S-  C111-  C110-  H10R
  2491   2489   2492   2494      9     0.00   0.62760   3 ;   H11S-  C111-  C110-  H10S
  2491   2489   2492   2495      9     0.00   0.66944   3 ;   H11S-  C111-  C110-   C19
  2492   2495   2498   2499      9     0.00   0.66944   3 ;   C110-   C19-   C18-   H8R
  2492   2495   2498   2500      9     0.00   0.66944   3 ;   C110-   C19-   C18-   H8S
  2492   2495   2498   2501      9     0.00   0.41840   1 ;   C110-   C19-   C18-   C17
  2492   2495   2498   2501      9     0.00   0.41840   2 ;   C110-   C19-   C18-   C17
  2492   2495   2498   2501      9     0.00   0.41840   4 ;   C110-   C19-   C18-   C17
  2492   2495   2498   2501      9     0.00   0.41840   5 ;   C110-   C19-   C18-   C17
  2492   2495   2498   2501      9     0.00   1.25520   3 ;   C110-   C19-   C18-   C17
  2493   2492   2495   2496      9     0.00   0.62760   3 ;   H10R-  C110-   C19-   H9R
  2493   2492   2495   2497      9     0.00   0.62760   3 ;   H10R-  C110-   C19-   H9S
  2493   2492   2495   2498      9     0.00   0.66944   3 ;   H10R-  C110-   C19-   C18
  2494   2492   2495   2496      9     0.00   0.62760   3 ;   H10S-  C110-   C19-   H9R
  2494   2492   2495   2497      9     0.00   0.62760   3 ;   H10S-  C110-   C19-   H9S
  2494   2492   2495   2498      9     0.00   0.66944   3 ;   H10S-  C110-   C19-   C18
  2495   2498   2501   2502      9     0.00   0.66944   3 ;    C19-   C18-   C17-   H7R
  2495   2498   2501   2503      9     0.00   0.66944   3 ;    C19-   C18-   C17-   H7S
  2495   2498   2501   2504      9     0.00   0.41840   1 ;    C19-   C18-   C17-   C16
  2495   2498   2501   2504      9     0.00   0.41840   2 ;    C19-   C18-   C17-   C16
  2495   2498   2501   2504      9     0.00   0.41840   4 ;    C19-   C18-   C17-   C16
  2495   2498   2501   2504      9     0.00   0.41840   5 ;    C19-   C18-   C17-   C16
  2495   2498   2501   2504      9     0.00   1.25520   3 ;    C19-   C18-   C17-   C16
  2496   2495   2498   2499      9     0.00   0.62760   3 ;    H9R-   C19-   C18-   H8R
  2496   2495   2498   2500      9     0.00   0.62760   3 ;    H9R-   C19-   C18-   H8S
  2496   2495   2498   2501      9     0.00   0.66944   3 ;    H9R-   C19-   C18-   C17
  2497   2495   2498   2499      9     0.00   0.62760   3 ;    H9S-   C19-   C18-   H8R
  2497   2495   2498   2500      9     0.00   0.62760   3 ;    H9S-   C19-   C18-   H8S
  2497   2495   2498   2501      9     0.00   0.66944   3 ;    H9S-   C19-   C18-   C17
  2498   2501   2504   2505      9     0.00   0.66944   3 ;    C18-   C17-   C16-   H6R
  2498   2501   2504   2506      9     0.00   0.66944   3 ;    C18-   C17-   C16-   H6S
  2498   2501   2504   2507      9     0.00   0.41840   1 ;    C18-   C17-   C16-   C15
  2498   2501   2504   2507      9     0.00   0.41840   2 ;    C18-   C17-   C16-   C15
  2498   2501   2504   2507      9     0.00   0.41840   4 ;    C18-   C17-   C16-   C15
  2498   2501   2504   2507      9     0.00   0.41840   5 ;    C18-   C17-   C16-   C15
  2498   2501   2504   2507      9     0.00   1.25520   3 ;    C18-   C17-   C16-   C15
  2499   2498   2501   2502      9     0.00   0.62760   3 ;    H8R-   C18-   C17-   H7R
  2499   2498   2501   2503      9     0.00   0.62760   3 ;    H8R-   C18-   C17-   H7S
  2499   2498   2501   2504      9     0.00   0.66944   3 ;    H8R-   C18-   C17-   C16
  2500   2498   2501   2502      9     0.00   0.62760   3 ;    H8S-   C18-   C17-   H7R
  2500   2498   2501   2503      9     0.00   0.62760   3 ;    H8S-   C18-   C17-   H7S
  2500   2498   2501   2504      9     0.00   0.66944   3 ;    H8S-   C18-   C17-   C16
  2501   2504   2507   2508      9     0.00   0.66944   3 ;    C17-   C16-   C15-   H5R
  2501   2504   2507   2509      9     0.00   0.66944   3 ;    C17-   C16-   C15-   H5S
  2501   2504   2507   2510      9     0.00   0.41840   1 ;    C17-   C16-   C15-   C14
  2501   2504   2507   2510      9     0.00   0.41840   2 ;    C17-   C16-   C15-   C14
  2501   2504   2507   2510      9     0.00   0.41840   4 ;    C17-   C16-   C15-   C14
  2501   2504   2507   2510      9     0.00   0.41840   5 ;    C17-   C16-   C15-   C14
  2501   2504   2507   2510      9     0.00   1.25520   3 ;    C17-   C16-   C15-   C14
  2502   2501   2504   2505      9     0.00   0.62760   3 ;    H7R-   C17-   C16-   H6R
  2502   2501   2504   2506      9     0.00   0.62760   3 ;    H7R-   C17-   C16-   H6S
  2502   2501   2504   2507      9     0.00   0.66944   3 ;    H7R-   C17-   C16-   C15
  2503   2501   2504   2505      9     0.00   0.62760   3 ;    H7S-   C17-   C16-   H6R
  2503   2501   2504   2506      9     0.00   0.62760   3 ;    H7S-   C17-   C16-   H6S
  2503   2501   2504   2507      9     0.00   0.66944   3 ;    H7S-   C17-   C16-   C15
  2504   2507   2510   2511      9     0.00   0.66944   3 ;    C16-   C15-   C14-   H4R
  2504   2507   2510   2512      9     0.00   0.66944   3 ;    C16-   C15-   C14-   H4S
  2504   2507   2510   2513      9     0.00   0.41840   1 ;    C16-   C15-   C14-   C13
  2504   2507   2510   2513      9     0.00   0.41840   2 ;    C16-   C15-   C14-   C13
  2504   2507   2510   2513      9     0.00   0.41840   4 ;    C16-   C15-   C14-   C13
  2504   2507   2510   2513      9     0.00   0.41840   5 ;    C16-   C15-   C14-   C13
  2504   2507   2510   2513      9     0.00   1.25520   3 ;    C16-   C15-   C14-   C13
  2505   2504   2507   2508      9     0.00   0.62760   3 ;    H6R-   C16-   C15-   H5R
  2505   2504   2507   2509      9     0.00   0.62760   3 ;    H6R-   C16-   C15-   H5S
  2505   2504   2507   2510      9     0.00   0.66944   3 ;    H6R-   C16-   C15-   C14
  2506   2504   2507   2508      9     0.00   0.62760   3 ;    H6S-   C16-   C15-   H5R
  2506   2504   2507   2509      9     0.00   0.62760   3 ;    H6S-   C16-   C15-   H5S
  2506   2504   2507   2510      9     0.00   0.66944   3 ;    H6S-   C16-   C15-   C14
  2507   2510   2513   2514      9     0.00   0.66944   3 ;    C15-   C14-   C13-   H3R
  2507   2510   2513   2515      9     0.00   0.66944   3 ;    C15-   C14-   C13-   H3S
  2507   2510   2513   2516      9     0.00   0.41840   1 ;    C15-   C14-   C13-   C12
  2507   2510   2513   2516      9     0.00   0.41840   2 ;    C15-   C14-   C13-   C12
  2507   2510   2513   2516      9     0.00   0.41840   4 ;    C15-   C14-   C13-   C12
  2507   2510   2513   2516      9     0.00   0.41840   5 ;    C15-   C14-   C13-   C12
  2507   2510   2513   2516      9     0.00   1.25520   3 ;    C15-   C14-   C13-   C12
  2508   2507   2510   2511      9     0.00   0.62760   3 ;    H5R-   C15-   C14-   H4R
  2508   2507   2510   2512      9     0.00   0.62760   3 ;    H5R-   C15-   C14-   H4S
  2508   2507   2510   2513      9     0.00   0.66944   3 ;    H5R-   C15-   C14-   C13
  2509   2507   2510   2511      9     0.00   0.62760   3 ;    H5S-   C15-   C14-   H4R
  2509   2507   2510   2512      9     0.00   0.62760   3 ;    H5S-   C15-   C14-   H4S
  2509   2507   2510   2513      9     0.00   0.66944   3 ;    H5S-   C15-   C14-   C13
  2510   2513   2516   2517      9     0.00   0.66944   3 ;    C14-   C13-   C12-   H2R
  2510   2513   2516   2518      9     0.00   0.66944   3 ;    C14-   C13-   C12-   H2S
  2510   2513   2516   2519      9     0.00   0.65270   3 ;    C14-   C13-   C12-   C11
  2511   2510   2513   2514      9     0.00   0.62760   3 ;    H4R-   C14-   C13-   H3R
  2511   2510   2513   2515      9     0.00   0.62760   3 ;    H4R-   C14-   C13-   H3S
  2511   2510   2513   2516      9     0.00   0.66944   3 ;    H4R-   C14-   C13-   C12
  2512   2510   2513   2514      9     0.00   0.62760   3 ;    H4S-   C14-   C13-   H3R
  2512   2510   2513   2515      9     0.00   0.62760   3 ;    H4S-   C14-   C13-   H3S
  2512   2510   2513   2516      9     0.00   0.66944   3 ;    H4S-   C14-   C13-   C12
  2513   2516   2519   2520      9   180.00   0.00000   2 ;    C13-   C12-   C11-   O12
  2513   2516   2519   2521      9   180.00   0.00000   2 ;    C13-   C12-   C11-   O11
  2514   2513   2516   2517      9     0.00   0.62760   3 ;    H3R-   C13-   C12-   H2R
  2514   2513   2516   2518      9     0.00   0.62760   3 ;    H3R-   C13-   C12-   H2S
  2514   2513   2516   2519      9     0.00   0.65270   3 ;    H3R-   C13-   C12-   C11
  2515   2513   2516   2517      9     0.00   0.62760   3 ;    H3S-   C13-   C12-   H2R
  2515   2513   2516   2518      9     0.00   0.62760   3 ;    H3S-   C13-   C12-   H2S
  2515   2513   2516   2519      9     0.00   0.65270   3 ;    H3S-   C13-   C12-   C11
  2516   2519   2521   2522      9   180.00  11.29680   2 ;    C12-   C11-   O11-    C1
  2517   2516   2519   2520      9     0.00   3.34720   1 ;    H2R-   C12-   C11-   O12
  2517   2516   2519   2520      9   180.00   0.33472   3 ;    H2R-   C12-   C11-   O12
  2517   2516   2519   2521      9   180.00   0.00000   2 ;    H2R-   C12-   C11-   O11
  2518   2516   2519   2520      9     0.00   3.34720   1 ;    H2S-   C12-   C11-   O12
  2518   2516   2519   2520      9   180.00   0.33472   3 ;    H2S-   C12-   C11-   O12
  2518   2516   2519   2521      9   180.00   0.00000   2 ;    H2S-   C12-   C11-   O11
  2519   2521   2522   2523      9     0.00   1.60247   3 ;    C11-   O11-    C1-    HR
  2519   2521   2522   2524      9     0.00   1.60247   3 ;    C11-   O11-    C1-    HS
  2519   2521   2522   2525      9     0.00  -0.41840   1 ;    C11-   O11-    C1-    C2
  2520   2519   2521   2522      9   180.00   5.85760   1 ;    O12-   C11-   O11-    C1
  2520   2519   2521   2522      9   180.00  11.29680   2 ;    O12-   C11-   O11-    C1
  2521   2522   2525   2526      9     0.00   0.00000   0 ;    O11-    C1-    C2-    HX
  2521   2522   2525   2526      9     0.00   1.04600   1 ;    O11-    C1-    C2-    HX
  2521   2522   2525   2527      9     0.00   0.00000   0 ;    O11-    C1-    C2-    C3
  2521   2522   2525   2527      9     0.00   0.00000   0 ;    O11-    C1-    C2-    C3
  2521   2522   2525   2527      9     0.00   0.00000   0 ;    O11-    C1-    C2-    C3
  2521   2522   2525   2527      9     0.00   0.00000   0 ;    O11-    C1-    C2-    C3
  2521   2522   2525   2527      9     0.00   0.00000   0 ;    O11-    C1-    C2-    C3
  2521   2522   2525   2554      9     0.00   1.25520   2 ;    O11-    C1-    C2-   O21
  2521   2522   2525   2554      9     0.00   4.18400   3 ;    O11-    C1-    C2-   O21
  2521   2522   2525   2554      9   180.00  -0.41840   1 ;    O11-    C1-    C2-   O21
  2522   2525   2527   2528      9     0.00   0.65270   3 ;     C1-    C2-    C3-    HA
  2522   2525   2527   2529      9     0.00   0.65270   3 ;     C1-    C2-    C3-    HB
  2522   2525   2527   2530      9   180.00   3.34720   1 ;     C1-    C2-    C3-   O31
  2522   2525   2554   2555      9     0.00  -0.41840   1 ;     C1-    C2-   O21-   C21
  2523   2522   2525   2526      9     0.00   0.65270   3 ;     HR-    C1-    C2-    HX
  2523   2522   2525   2527      9     0.00   0.65270   3 ;     HR-    C1-    C2-    C3
  2523   2522   2525   2554      9     0.00   0.00000   0 ;     HR-    C1-    C2-   O21
  2523   2522   2525   2554      9     0.00   1.04600   1 ;     HR-    C1-    C2-   O21
  2524   2522   2525   2526      9     0.00   0.65270   3 ;     HS-    C1-    C2-    HX
  2524   2522   2525   2527      9     0.00   0.65270   3 ;     HS-    C1-    C2-    C3
  2524   2522   2525   2554      9     0.00   0.00000   0 ;     HS-    C1-    C2-   O21
  2524   2522   2525   2554      9     0.00   1.04600   1 ;     HS-    C1-    C2-   O21
  2525   2527   2530   2531      9     0.00   0.00000   0 ;     C2-    C3-   O31-   P31
  2525   2527   2530   2531      9   180.00  -3.34720   2 ;     C2-    C3-   O31-   P31
  2525   2554   2555   2556      9   180.00   5.85760   1 ;     C2-   O21-   C21-   O22
  2525   2554   2555   2556      9   180.00  11.29680   2 ;     C2-   O21-   C21-   O22
  2525   2554   2555   2594      9   180.00  11.29680   2 ;     C2-   O21-   C21-   C12
  2526   2525   2527   2528      9     0.00   0.65270   3 ;     HX-    C2-    C3-    HA
  2526   2525   2527   2529      9     0.00   0.65270   3 ;     HX-    C2-    C3-    HB
  2526   2525   2527   2530      9     0.00   0.00000   0 ;     HX-    C2-    C3-   O31
  2526   2525   2527   2530      9     0.00   1.04600   1 ;     HX-    C2-    C3-   O31
  2526   2525   2554   2555      9     0.00   1.60247   3 ;     HX-    C2-   O21-   C21
  2527   2525   2554   2555      9     0.00  -0.41840   1 ;     C3-    C2-   O21-   C21
  2527   2530   2531   2532      9     0.00   2.51040   3 ;     C3-   O31-   P31-   O32
  2527   2530   2531   2532      9     0.00   9.62320   2 ;     C3-   O31-   P31-   O32
  2527   2530   2531   2552      9     0.00   0.00000   0 ;     C3-   O31-   P31-   O33
  2527   2530   2531   2552      9     0.00   0.00000   0 ;     C3-   O31-   P31-   O33
  2527   2530   2531   2552      9     0.00   0.00000   0 ;     C3-   O31-   P31-   O33
  2527   2530   2531   2552      9     0.00   0.00000   0 ;     C3-   O31-   P31-   O33
  2527   2530   2531   2552      9     0.00   0.83680   2 ;     C3-   O31-   P31-   O33
  2527   2530   2531   2553      9     0.00   0.00000   0 ;     C3-   O31-   P31-   O34
  2527   2530   2531   2553      9     0.00   0.00000   0 ;     C3-   O31-   P31-   O34
  2527   2530   2531   2553      9     0.00   0.00000   0 ;     C3-   O31-   P31-   O34
  2527   2530   2531   2553      9     0.00   0.00000   0 ;     C3-   O31-   P31-   O34
  2527   2530   2531   2553      9     0.00   0.83680   2 ;     C3-   O31-   P31-   O34
  2528   2527   2525   2554      9     0.00   0.00000   0 ;     HA-    C3-    C2-   O21
  2528   2527   2525   2554      9     0.00   1.04600   1 ;     HA-    C3-    C2-   O21
  2528   2527   2530   2531      9     0.00   0.00000   0 ;     HA-    C3-   O31-   P31
  2528   2527   2530   2531      9     0.00   0.00000   0 ;     HA-    C3-   O31-   P31
  2528   2527   2530   2531      9     0.00   0.00000   0 ;     HA-    C3-   O31-   P31
  2528   2527   2530   2531      9     0.00   0.00000   0 ;     HA-    C3-   O31-   P31
  2528   2527   2530   2531      9     0.00   1.60247   3 ;     HA-    C3-   O31-   P31
  2529   2527   2525   2554      9     0.00   0.00000   0 ;     HB-    C3-    C2-   O21
  2529   2527   2525   2554      9     0.00   1.04600   1 ;     HB-    C3-    C2-   O21
  2529   2527   2530   2531      9     0.00   0.00000   0 ;     HB-    C3-   O31-   P31
  2529   2527   2530   2531      9     0.00   0.00000   0 ;     HB-    C3-   O31-   P31
  2529   2527   2530   2531      9     0.00   0.00000   0 ;     HB-    C3-   O31-   P31
  2529   2527   2530   2531      9     0.00   0.00000   0 ;     HB-    C3-   O31-   P31
  2529   2527   2530   2531      9     0.00   1.60247   3 ;     HB-    C3-   O31-   P31
  2530   2527   2525   2554      9     0.00   0.00000   0 ;    O31-    C3-    C2-   O21
  2530   2527   2525   2554      9     0.00   0.00000   0 ;    O31-    C3-    C2-   O21
  2530   2527   2525   2554      9     0.00   0.00000   0 ;    O31-    C3-    C2-   O21
  2530   2527   2525   2554      9     0.00   0.00000   0 ;    O31-    C3-    C2-   O21
  2530   2527   2525   2554      9     0.00   0.00000   0 ;    O31-    C3-    C2-   O21
  2530   2531   2532   2533      9     0.00   2.51040   3 ;    O31-   P31-   O32-   C31
  2530   2531   2532   2533      9     0.00   9.62320   2 ;    O31-   P31-   O32-   C31
  2531   2532   2533   2534      9     0.00   0.00000   0 ;    P31-   O32-   C31-   H1A
  2531   2532   2533   2534      9     0.00   0.00000   0 ;    P31-   O32-   C31-   H1A
  2531   2532   2533   2534      9     0.00   0.00000   0 ;    P31-   O32-   C31-   H1A
  2531   2532   2533   2534      9     0.00   0.00000   0 ;    P31-   O32-   C31-   H1A
  2531   2532   2533   2534      9     0.00   1.60247   3 ;    P31-   O32-   C31-   H1A
  2531   2532   2533   2535      9     0.00   0.00000   0 ;    P31-   O32-   C31-   H1B
  2531   2532   2533   2535      9     0.00   0.00000   0 ;    P31-   O32-   C31-   H1B
  2531   2532   2533   2535      9     0.00   0.00000   0 ;    P31-   O32-   C31-   H1B
  2531   2532   2533   2535      9     0.00   0.00000   0 ;    P31-   O32-   C31-   H1B
  2531   2532   2533   2535      9     0.00   1.60247   3 ;    P31-   O32-   C31-   H1B
  2531   2532   2533   2536      9     0.00   0.00000   0 ;    P31-   O32-   C31-   C32
  2531   2532   2533   2536      9   180.00  -3.34720   2 ;    P31-   O32-   C31-   C32
  2532   2533   2536   2537      9     0.00   0.65270   3 ;    O32-   C31-   C32-   H2A
  2532   2533   2536   2538      9     0.00   0.65270   3 ;    O32-   C31-   C32-   H2B
  2532   2533   2536   2539      9     0.00   4.18400   3 ;    O32-   C31-   C32-   N31
  2533   2532   2531   2552      9     0.00   0.00000   0 ;    C31-   O32-   P31-   O33
  2533   2532   2531   2552      9     0.00   0.00000   0 ;    C31-   O32-   P31-   O33
  2533   2532   2531   2552      9     0.00   0.00000   0 ;    C31-   O32-   P31-   O33
  2533   2532   2531   2552      9     0.00   0.00000   0 ;    C31-   O32-   P31-   O33
  2533   2532   2531   2552      9     0.00   0.83680   2 ;    C31-   O32-   P31-   O33
  2533   2532   2531   2553      9     0.00   0.00000   0 ;    C31-   O32-   P31-   O34
  2533   2532   2531   2553      9     0.00   0.00000   0 ;    C31-   O32-   P31-   O34
  2533   2532   2531   2553      9     0.00   0.00000   0 ;    C31-   O32-   P31-   O34
  2533   2532   2531   2553      9     0.00   0.00000   0 ;    C31-   O32-   P31-   O34
  2533   2532   2531   2553      9     0.00   0.83680   2 ;    C31-   O32-   P31-   O34
  2533   2536   2539   2540      9     0.00   0.65270   3 ;    C31-   C32-   N31-   C33
  2533   2536   2539   2544      9     0.00   0.65270   3 ;    C31-   C32-   N31-   C34
  2533   2536   2539   2548      9     0.00   0.65270   3 ;    C31-   C32-   N31-   C35
  2534   2533   2536   2537      9     0.00   0.65270   3 ;    H1A-   C31-   C32-   H2A
  2534   2533   2536   2538      9     0.00   0.65270   3 ;    H1A-   C31-   C32-   H2B
  2534   2533   2536   2539      9     0.00   0.65270   3 ;    H1A-   C31-   C32-   N31
  2535   2533   2536   2537      9     0.00   0.65270   3 ;    H1B-   C31-   C32-   H2A
  2535   2533   2536   2538      9     0.00   0.65270   3 ;    H1B-   C31-   C32-   H2B
  2535   2533   2536   2539      9     0.00   0.65270   3 ;    H1B-   C31-   C32-   N31
  2536   2539   2540   2541      9     0.00   0.65270   3 ;    C32-   N31-   C33-   H3A
  2536   2539   2540   2542      9     0.00   0.65270   3 ;    C32-   N31-   C33-   H3B
  2536   2539   2540   2543      9     0.00   0.65270   3 ;    C32-   N31-   C33-   H3C
  2536   2539   2544   2545      9     0.00   0.65270   3 ;    C32-   N31-   C34-   H4A
  2536   2539   2544   2546      9     0.00   0.65270   3 ;    C32-   N31-   C34-   H4B
  2536   2539   2544   2547      9     0.00   0.65270   3 ;    C32-   N31-   C34-   H4C
  2536   2539   2548   2549      9     0.00   0.65270   3 ;    C32-   N31-   C35-   H5A
  2536   2539   2548   2550      9     0.00   0.65270   3 ;    C32-   N31-   C35-   H5B
  2536   2539   2548   2551      9     0.00   0.65270   3 ;    C32-   N31-   C35-   H5C
  2537   2536   2539   2540      9     0.00   0.65270   3 ;    H2A-   C32-   N31-   C33
  2537   2536   2539   2544      9     0.00   0.65270   3 ;    H2A-   C32-   N31-   C34
  2537   2536   2539   2548      9     0.00   0.65270   3 ;    H2A-   C32-   N31-   C35
  2538   2536   2539   2540      9     0.00   0.65270   3 ;    H2B-   C32-   N31-   C33
  2538   2536   2539   2544      9     0.00   0.65270   3 ;    H2B-   C32-   N31-   C34
  2538   2536   2539   2548      9     0.00   0.65270   3 ;    H2B-   C32-   N31-   C35
  2540   2539   2544   2545      9     0.00   0.65270   3 ;    C33-   N31-   C34-   H4A
  2540   2539   2544   2546      9     0.00   0.65270   3 ;    C33-   N31-   C34-   H4B
  2540   2539   2544   2547      9     0.00   0.65270   3 ;    C33-   N31-   C34-   H4C
  2540   2539   2548   2549      9     0.00   0.65270   3 ;    C33-   N31-   C35-   H5A
  2540   2539   2548   2550      9     0.00   0.65270   3 ;    C33-   N31-   C35-   H5B
  2540   2539   2548   2551      9     0.00   0.65270   3 ;    C33-   N31-   C35-   H5C
  2541   2540   2539   2544      9     0.00   0.65270   3 ;    H3A-   C33-   N31-   C34
  2541   2540   2539   2548      9     0.00   0.65270   3 ;    H3A-   C33-   N31-   C35
  2542   2540   2539   2544      9     0.00   0.65270   3 ;    H3B-   C33-   N31-   C34
  2542   2540   2539   2548      9     0.00   0.65270   3 ;    H3B-   C33-   N31-   C35
  2543   2540   2539   2544      9     0.00   0.65270   3 ;    H3C-   C33-   N31-   C34
  2543   2540   2539   2548      9     0.00   0.65270   3 ;    H3C-   C33-   N31-   C35
  2544   2539   2548   2549      9     0.00   0.65270   3 ;    C34-   N31-   C35-   H5A
  2544   2539   2548   2550      9     0.00   0.65270   3 ;    C34-   N31-   C35-   H5B
  2544   2539   2548   2551      9     0.00   0.65270   3 ;    C34-   N31-   C35-   H5C
  2545   2544   2539   2548      9     0.00   0.65270   3 ;    H4A-   C34-   N31-   C35
  2546   2544   2539   2548      9     0.00   0.65270   3 ;    H4B-   C34-   N31-   C35
  2547   2544   2539   2548      9     0.00   0.65270   3 ;    H4C-   C34-   N31-   C35
  2554   2555   2594   2591      9   180.00   0.00000   2 ;    O21-   C21-   C12-   C13
  2554   2555   2594   2595      9   180.00   0.00000   2 ;    O21-   C21-   C12-   H2R
  2554   2555   2594   2596      9   180.00   0.00000   2 ;    O21-   C21-   C12-   H2S
  2555   2594   2591   2588      9     0.00   0.65270   3 ;    C21-   C12-   C13-   C14
  2555   2594   2591   2592      9     0.00   0.65270   3 ;    C21-   C12-   C13-   H3R
  2555   2594   2591   2593      9     0.00   0.65270   3 ;    C21-   C12-   C13-   H3S
  2556   2555   2594   2591      9   180.00   0.00000   2 ;    O22-   C21-   C12-   C13
  2556   2555   2594   2595      9     0.00   3.34720   1 ;    O22-   C21-   C12-   H2R
  2556   2555   2594   2595      9   180.00   0.33472   3 ;    O22-   C21-   C12-   H2R
  2556   2555   2594   2596      9     0.00   3.34720   1 ;    O22-   C21-   C12-   H2S
  2556   2555   2594   2596      9   180.00   0.33472   3 ;    O22-   C21-   C12-   H2S
  2557   2558   2561   2562      9     0.00   0.62760   3 ;   H14T-  C114-  C113-  H13R
  2557   2558   2561   2563      9     0.00   0.62760   3 ;   H14T-  C114-  C113-  H13S
  2557   2558   2561   2564      9     0.00   0.66944   3 ;   H14T-  C114-  C113-  C112
  2558   2561   2564   2565      9     0.00   0.66944   3 ;   C114-  C113-  C112-  H12R
  2558   2561   2564   2566      9     0.00   0.66944   3 ;   C114-  C113-  C112-  H12S
  2558   2561   2564   2567      9     0.00   0.41840   1 ;   C114-  C113-  C112-  C111
  2558   2561   2564   2567      9     0.00   0.41840   2 ;   C114-  C113-  C112-  C111
  2558   2561   2564   2567      9     0.00   0.41840   4 ;   C114-  C113-  C112-  C111
  2558   2561   2564   2567      9     0.00   0.41840   5 ;   C114-  C113-  C112-  C111
  2558   2561   2564   2567      9     0.00   1.25520   3 ;   C114-  C113-  C112-  C111
  2559   2558   2561   2562      9     0.00   0.62760   3 ;   H14R-  C114-  C113-  H13R
  2559   2558   2561   2563      9     0.00   0.62760   3 ;   H14R-  C114-  C113-  H13S
  2559   2558   2561   2564      9     0.00   0.66944   3 ;   H14R-  C114-  C113-  C112
  2560   2558   2561   2562      9     0.00   0.62760   3 ;   H14S-  C114-  C113-  H13R
  2560   2558   2561   2563      9     0.00   0.62760   3 ;   H14S-  C114-  C113-  H13S
  2560   2558   2561   2564      9     0.00   0.66944   3 ;   H14S-  C114-  C113-  C112
  2561   2564   2567   2568      9     0.00   0.66944   3 ;   C113-  C112-  C111-  H11R
  2561   2564   2567   2569      9     0.00   0.66944   3 ;   C113-  C112-  C111-  H11S
  2561   2564   2567   2570      9     0.00   0.41840   1 ;   C113-  C112-  C111-  C110
  2561   2564   2567   2570      9     0.00   0.41840   2 ;   C113-  C112-  C111-  C110
  2561   2564   2567   2570      9     0.00   0.41840   4 ;   C113-  C112-  C111-  C110
  2561   2564   2567   2570      9     0.00   0.41840   5 ;   C113-  C112-  C111-  C110
  2561   2564   2567   2570      9     0.00   1.25520   3 ;   C113-  C112-  C111-  C110
  2562   2561   2564   2565      9     0.00   0.62760   3 ;   H13R-  C113-  C112-  H12R
  2562   2561   2564   2566      9     0.00   0.62760   3 ;   H13R-  C113-  C112-  H12S
  2562   2561   2564   2567      9     0.00   0.66944   3 ;   H13R-  C113-  C112-  C111
  2563   2561   2564   2565      9     0.00   0.62760   3 ;   H13S-  C113-  C112-  H12R
  2563   2561   2564   2566      9     0.00   0.62760   3 ;   H13S-  C113-  C112-  H12S
  2563   2561   2564   2567      9     0.00   0.66944   3 ;   H13S-  C113-  C112-  C111
  2564   2567   2570   2571      9     0.00   0.66944   3 ;   C112-  C111-  C110-  H10R
  2564   2567   2570   2572      9     0.00   0.66944   3 ;   C112-  C111-  C110-  H10S
  2564   2567   2570   2573      9     0.00   0.41840   1 ;   C112-  C111-  C110-   C19
  2564   2567   2570   2573      9     0.00   0.41840   2 ;   C112-  C111-  C110-   C19
  2564   2567   2570   2573      9     0.00   0.41840   4 ;   C112-  C111-  C110-   C19
  2564   2567   2570   2573      9     0.00   0.41840   5 ;   C112-  C111-  C110-   C19
  2564   2567   2570   2573      9     0.00   1.25520   3 ;   C112-  C111-  C110-   C19
  2565   2564   2567   2568      9     0.00   0.62760   3 ;   H12R-  C112-  C111-  H11R
  2565   2564   2567   2569      9     0.00   0.62760   3 ;   H12R-  C112-  C111-  H11S
  2565   2564   2567   2570      9     0.00   0.66944   3 ;   H12R-  C112-  C111-  C110
  2566   2564   2567   2568      9     0.00   0.62760   3 ;   H12S-  C112-  C111-  H11R
  2566   2564   2567   2569      9     0.00   0.62760   3 ;   H12S-  C112-  C111-  H11S
  2566   2564   2567   2570      9     0.00   0.66944   3 ;   H12S-  C112-  C111-  C110
  2567   2570   2573   2574      9     0.00   0.66944   3 ;   C111-  C110-   C19-   H9R
  2567   2570   2573   2575      9     0.00   0.66944   3 ;   C111-  C110-   C19-   H9S
  2567   2570   2573   2576      9     0.00   0.41840   1 ;   C111-  C110-   C19-   C18
  2567   2570   2573   2576      9     0.00   0.41840   2 ;   C111-  C110-   C19-   C18
  2567   2570   2573   2576      9     0.00   0.41840   4 ;   C111-  C110-   C19-   C18
  2567   2570   2573   2576      9     0.00   0.41840   5 ;   C111-  C110-   C19-   C18
  2567   2570   2573   2576      9     0.00   1.25520   3 ;   C111-  C110-   C19-   C18
  2568   2567   2570   2571      9     0.00   0.62760   3 ;   H11R-  C111-  C110-  H10R
  2568   2567   2570   2572      9     0.00   0.62760   3 ;   H11R-  C111-  C110-  H10S
  2568   2567   2570   2573      9     0.00   0.66944   3 ;   H11R-  C111-  C110-   C19
  2569   2567   2570   2571      9     0.00   0.62760   3 ;   H11S-  C111-  C110-  H10R
  2569   2567   2570   2572      9     0.00   0.62760   3 ;   H11S-  C111-  C110-  H10S
  2569   2567   2570   2573      9     0.00   0.66944   3 ;   H11S-  C111-  C110-   C19
  2570   2573   2576   2577      9     0.00   0.66944   3 ;   C110-   C19-   C18-   H8R
  2570   2573   2576   2578      9     0.00   0.66944   3 ;   C110-   C19-   C18-   H8S
  2570   2573   2576   2579      9     0.00   0.41840   1 ;   C110-   C19-   C18-   C17
  2570   2573   2576   2579      9     0.00   0.41840   2 ;   C110-   C19-   C18-   C17
  2570   2573   2576   2579      9     0.00   0.41840   4 ;   C110-   C19-   C18-   C17
  2570   2573   2576   2579      9     0.00   0.41840   5 ;   C110-   C19-   C18-   C17
  2570   2573   2576   2579      9     0.00   1.25520   3 ;   C110-   C19-   C18-   C17
  2571   2570   2573   2574      9     0.00   0.62760   3 ;   H10R-  C110-   C19-   H9R
  2571   2570   2573   2575      9     0.00   0.62760   3 ;   H10R-  C110-   C19-   H9S
  2571   2570   2573   2576      9     0.00   0.66944   3 ;   H10R-  C110-   C19-   C18
  2572   2570   2573   2574      9     0.00   0.62760   3 ;   H10S-  C110-   C19-   H9R
  2572   2570   2573   2575      9     0.00   0.62760   3 ;   H10S-  C110-   C19-   H9S
  2572   2570   2573   2576      9     0.00   0.66944   3 ;   H10S-  C110-   C19-   C18
  2573   2576   2579   2580      9     0.00   0.66944   3 ;    C19-   C18-   C17-   H7R
  2573   2576   2579   2581      9     0.00   0.66944   3 ;    C19-   C18-   C17-   H7S
  2573   2576   2579   2582      9     0.00   0.41840   1 ;    C19-   C18-   C17-   C16
  2573   2576   2579   2582      9     0.00   0.41840   2 ;    C19-   C18-   C17-   C16
  2573   2576   2579   2582      9     0.00   0.41840   4 ;    C19-   C18-   C17-   C16
  2573   2576   2579   2582      9     0.00   0.41840   5 ;    C19-   C18-   C17-   C16
  2573   2576   2579   2582      9     0.00   1.25520   3 ;    C19-   C18-   C17-   C16
  2574   2573   2576   2577      9     0.00   0.62760   3 ;    H9R-   C19-   C18-   H8R
  2574   2573   2576   2578      9     0.00   0.62760   3 ;    H9R-   C19-   C18-   H8S
  2574   2573   2576   2579      9     0.00   0.66944   3 ;    H9R-   C19-   C18-   C17
  2575   2573   2576   2577      9     0.00   0.62760   3 ;    H9S-   C19-   C18-   H8R
  2575   2573   2576   2578      9     0.00   0.62760   3 ;    H9S-   C19-   C18-   H8S
  2575   2573   2576   2579      9     0.00   0.66944   3 ;    H9S-   C19-   C18-   C17
  2576   2579   2582   2583      9     0.00   0.66944   3 ;    C18-   C17-   C16-   H6R
  2576   2579   2582   2584      9     0.00   0.66944   3 ;    C18-   C17-   C16-   H6S
  2576   2579   2582   2585      9     0.00   0.41840   1 ;    C18-   C17-   C16-   C15
  2576   2579   2582   2585      9     0.00   0.41840   2 ;    C18-   C17-   C16-   C15
  2576   2579   2582   2585      9     0.00   0.41840   4 ;    C18-   C17-   C16-   C15
  2576   2579   2582   2585      9     0.00   0.41840   5 ;    C18-   C17-   C16-   C15
  2576   2579   2582   2585      9     0.00   1.25520   3 ;    C18-   C17-   C16-   C15
  2577   2576   2579   2580      9     0.00   0.62760   3 ;    H8R-   C18-   C17-   H7R
  2577   2576   2579   2581      9     0.00   0.62760   3 ;    H8R-   C18-   C17-   H7S
  2577   2576   2579   2582      9     0.00   0.66944   3 ;    H8R-   C18-   C17-   C16
  2578   2576   2579   2580      9     0.00   0.62760   3 ;    H8S-   C18-   C17-   H7R
  2578   2576   2579   2581      9     0.00   0.62760   3 ;    H8S-   C18-   C17-   H7S
  2578   2576   2579   2582      9     0.00   0.66944   3 ;    H8S-   C18-   C17-   C16
  2579   2582   2585   2586      9     0.00   0.66944   3 ;    C17-   C16-   C15-   H5R
  2579   2582   2585   2587      9     0.00   0.66944   3 ;    C17-   C16-   C15-   H5S
  2579   2582   2585   2588      9     0.00   0.41840   1 ;    C17-   C16-   C15-   C14
  2579   2582   2585   2588      9     0.00   0.41840   2 ;    C17-   C16-   C15-   C14
  2579   2582   2585   2588      9     0.00   0.41840   4 ;    C17-   C16-   C15-   C14
  2579   2582   2585   2588      9     0.00   0.41840   5 ;    C17-   C16-   C15-   C14
  2579   2582   2585   2588      9     0.00   1.25520   3 ;    C17-   C16-   C15-   C14
  2580   2579   2582   2583      9     0.00   0.62760   3 ;    H7R-   C17-   C16-   H6R
  2580   2579   2582   2584      9     0.00   0.62760   3 ;    H7R-   C17-   C16-   H6S
  2580   2579   2582   2585      9     0.00   0.66944   3 ;    H7R-   C17-   C16-   C15
  2581   2579   2582   2583      9     0.00   0.62760   3 ;    H7S-   C17-   C16-   H6R
  2581   2579   2582   2584      9     0.00   0.62760   3 ;    H7S-   C17-   C16-   H6S
  2581   2579   2582   2585      9     0.00   0.66944   3 ;    H7S-   C17-   C16-   C15
  2582   2585   2588   2589      9     0.00   0.66944   3 ;    C16-   C15-   C14-   H4R
  2582   2585   2588   2590      9     0.00   0.66944   3 ;    C16-   C15-   C14-   H4S
  2582   2585   2588   2591      9     0.00   0.41840   1 ;    C16-   C15-   C14-   C13
  2582   2585   2588   2591      9     0.00   0.41840   2 ;    C16-   C15-   C14-   C13
  2582   2585   2588   2591      9     0.00   0.41840   4 ;    C16-   C15-   C14-   C13
  2582   2585   2588   2591      9     0.00   0.41840   5 ;    C16-   C15-   C14-   C13
  2582   2585   2588   2591      9     0.00   1.25520   3 ;    C16-   C15-   C14-   C13
  2583   2582   2585   2586      9     0.00   0.62760   3 ;    H6R-   C16-   C15-   H5R
  2583   2582   2585   2587      9     0.00   0.62760   3 ;    H6R-   C16-   C15-   H5S
  2583   2582   2585   2588      9     0.00   0.66944   3 ;    H6R-   C16-   C15-   C14
  2584   2582   2585   2586      9     0.00   0.62760   3 ;    H6S-   C16-   C15-   H5R
  2584   2582   2585   2587      9     0.00   0.62760   3 ;    H6S-   C16-   C15-   H5S
  2584   2582   2585   2588      9     0.00   0.66944   3 ;    H6S-   C16-   C15-   C14
  2585   2588   2591   2592      9     0.00   0.66944   3 ;    C15-   C14-   C13-   H3R
  2585   2588   2591   2593      9     0.00   0.66944   3 ;    C15-   C14-   C13-   H3S
  2585   2588   2591   2594      9     0.00   0.41840   1 ;    C15-   C14-   C13-   C12
  2585   2588   2591   2594      9     0.00   0.41840   2 ;    C15-   C14-   C13-   C12
  2585   2588   2591   2594      9     0.00   0.41840   4 ;    C15-   C14-   C13-   C12
  2585   2588   2591   2594      9     0.00   0.41840   5 ;    C15-   C14-   C13-   C12
  2585   2588   2591   2594      9     0.00   1.25520   3 ;    C15-   C14-   C13-   C12
  2586   2585   2588   2589      9     0.00   0.62760   3 ;    H5R-   C15-   C14-   H4R
  2586   2585   2588   2590      9     0.00   0.62760   3 ;    H5R-   C15-   C14-   H4S
  2586   2585   2588   2591      9     0.00   0.66944   3 ;    H5R-   C15-   C14-   C13
  2587   2585   2588   2589      9     0.00   0.62760   3 ;    H5S-   C15-   C14-   H4R
  2587   2585   2588   2590      9     0.00   0.62760   3 ;    H5S-   C15-   C14-   H4S
  2587   2585   2588   2591      9     0.00   0.66944   3 ;    H5S-   C15-   C14-   C13
  2588   2591   2594   2595      9     0.00   0.66944   3 ;    C14-   C13-   C12-   H2R
  2588   2591   2594   2596      9     0.00   0.66944   3 ;    C14-   C13-   C12-   H2S
  2589   2588   2591   2592      9     0.00   0.62760   3 ;    H4R-   C14-   C13-   H3R
  2589   2588   2591   2593      9     0.00   0.62760   3 ;    H4R-   C14-   C13-   H3S
  2589   2588   2591   2594      9     0.00   0.66944   3 ;    H4R-   C14-   C13-   C12
  2590   2588   2591   2592      9     0.00   0.62760   3 ;    H4S-   C14-   C13-   H3R
  2590   2588   2591   2593      9     0.00   0.62760   3 ;    H4S-   C14-   C13-   H3S
  2590   2588   2591   2594      9     0.00   0.66944   3 ;    H4S-   C14-   C13-   C12
  2592   2591   2594   2595      9     0.00   0.62760   3 ;    H3R-   C13-   C12-   H2R
  2592   2591   2594   2596      9     0.00   0.62760   3 ;    H3R-   C13-   C12-   H2S
  2593   2591   2594   2595      9     0.00   0.62760   3 ;    H3S-   C13-   C12-   H2R
  2593   2591   2594   2596      9     0.00   0.62760   3 ;    H3S-   C13-   C12-   H2S
  2597   2598   2601   2602      9     0.00   0.62760   3 ;   H14T-  C114-  C113-  H13R
  2597   2598   2601   2603      9     0.00   0.62760   3 ;   H14T-  C114-  C113-  H13S
  2597   2598   2601   2604      9     0.00   0.66944   3 ;   H14T-  C114-  C113-  C112
  2598   2601   2604   2605      9     0.00   0.66944   3 ;   C114-  C113-  C112-  H12R
  2598   2601   2604   2606      9     0.00   0.66944   3 ;   C114-  C113-  C112-  H12S
  2598   2601   2604   2607      9     0.00   0.41840   1 ;   C114-  C113-  C112-  C111
  2598   2601   2604   2607      9     0.00   0.41840   2 ;   C114-  C113-  C112-  C111
  2598   2601   2604   2607      9     0.00   0.41840   4 ;   C114-  C113-  C112-  C111
  2598   2601   2604   2607      9     0.00   0.41840   5 ;   C114-  C113-  C112-  C111
  2598   2601   2604   2607      9     0.00   1.25520   3 ;   C114-  C113-  C112-  C111
  2599   2598   2601   2602      9     0.00   0.62760   3 ;   H14R-  C114-  C113-  H13R
  2599   2598   2601   2603      9     0.00   0.62760   3 ;   H14R-  C114-  C113-  H13S
  2599   2598   2601   2604      9     0.00   0.66944   3 ;   H14R-  C114-  C113-  C112
  2600   2598   2601   2602      9     0.00   0.62760   3 ;   H14S-  C114-  C113-  H13R
  2600   2598   2601   2603      9     0.00   0.62760   3 ;   H14S-  C114-  C113-  H13S
  2600   2598   2601   2604      9     0.00   0.66944   3 ;   H14S-  C114-  C113-  C112
  2601   2604   2607   2608      9     0.00   0.66944   3 ;   C113-  C112-  C111-  H11R
  2601   2604   2607   2609      9     0.00   0.66944   3 ;   C113-  C112-  C111-  H11S
  2601   2604   2607   2610      9     0.00   0.41840   1 ;   C113-  C112-  C111-  C110
  2601   2604   2607   2610      9     0.00   0.41840   2 ;   C113-  C112-  C111-  C110
  2601   2604   2607   2610      9     0.00   0.41840   4 ;   C113-  C112-  C111-  C110
  2601   2604   2607   2610      9     0.00   0.41840   5 ;   C113-  C112-  C111-  C110
  2601   2604   2607   2610      9     0.00   1.25520   3 ;   C113-  C112-  C111-  C110
  2602   2601   2604   2605      9     0.00   0.62760   3 ;   H13R-  C113-  C112-  H12R
  2602   2601   2604   2606      9     0.00   0.62760   3 ;   H13R-  C113-  C112-  H12S
  2602   2601   2604   2607      9     0.00   0.66944   3 ;   H13R-  C113-  C112-  C111
  2603   2601   2604   2605      9     0.00   0.62760   3 ;   H13S-  C113-  C112-  H12R
  2603   2601   2604   2606      9     0.00   0.62760   3 ;   H13S-  C113-  C112-  H12S
  2603   2601   2604   2607      9     0.00   0.66944   3 ;   H13S-  C113-  C112-  C111
  2604   2607   2610   2611      9     0.00   0.66944   3 ;   C112-  C111-  C110-  H10R
  2604   2607   2610   2612      9     0.00   0.66944   3 ;   C112-  C111-  C110-  H10S
  2604   2607   2610   2613      9     0.00   0.41840   1 ;   C112-  C111-  C110-   C19
  2604   2607   2610   2613      9     0.00   0.41840   2 ;   C112-  C111-  C110-   C19
  2604   2607   2610   2613      9     0.00   0.41840   4 ;   C112-  C111-  C110-   C19
  2604   2607   2610   2613      9     0.00   0.41840   5 ;   C112-  C111-  C110-   C19
  2604   2607   2610   2613      9     0.00   1.25520   3 ;   C112-  C111-  C110-   C19
  2605   2604   2607   2608      9     0.00   0.62760   3 ;   H12R-  C112-  C111-  H11R
  2605   2604   2607   2609      9     0.00   0.62760   3 ;   H12R-  C112-  C111-  H11S
  2605   2604   2607   2610      9     0.00   0.66944   3 ;   H12R-  C112-  C111-  C110
  2606   2604   2607   2608      9     0.00   0.62760   3 ;   H12S-  C112-  C111-  H11R
  2606   2604   2607   2609      9     0.00   0.62760   3 ;   H12S-  C112-  C111-  H11S
  2606   2604   2607   2610      9     0.00   0.66944   3 ;   H12S-  C112-  C111-  C110
  2607   2610   2613   2614      9     0.00   0.66944   3 ;   C111-  C110-   C19-   H9R
  2607   2610   2613   2615      9     0.00   0.66944   3 ;   C111-  C110-   C19-   H9S
  2607   2610   2613   2616      9     0.00   0.41840   1 ;   C111-  C110-   C19-   C18
  2607   2610   2613   2616      9     0.00   0.41840   2 ;   C111-  C110-   C19-   C18
  2607   2610   2613   2616      9     0.00   0.41840   4 ;   C111-  C110-   C19-   C18
  2607   2610   2613   2616      9     0.00   0.41840   5 ;   C111-  C110-   C19-   C18
  2607   2610   2613   2616      9     0.00   1.25520   3 ;   C111-  C110-   C19-   C18
  2608   2607   2610   2611      9     0.00   0.62760   3 ;   H11R-  C111-  C110-  H10R
  2608   2607   2610   2612      9     0.00   0.62760   3 ;   H11R-  C111-  C110-  H10S
  2608   2607   2610   2613      9     0.00   0.66944   3 ;   H11R-  C111-  C110-   C19
  2609   2607   2610   2611      9     0.00   0.62760   3 ;   H11S-  C111-  C110-  H10R
  2609   2607   2610   2612      9     0.00   0.62760   3 ;   H11S-  C111-  C110-  H10S
  2609   2607   2610   2613      9     0.00   0.66944   3 ;   H11S-  C111-  C110-   C19
  2610   2613   2616   2617      9     0.00   0.66944   3 ;   C110-   C19-   C18-   H8R
  2610   2613   2616   2618      9     0.00   0.66944   3 ;   C110-   C19-   C18-   H8S
  2610   2613   2616   2619      9     0.00   0.41840   1 ;   C110-   C19-   C18-   C17
  2610   2613   2616   2619      9     0.00   0.41840   2 ;   C110-   C19-   C18-   C17
  2610   2613   2616   2619      9     0.00   0.41840   4 ;   C110-   C19-   C18-   C17
  2610   2613   2616   2619      9     0.00   0.41840   5 ;   C110-   C19-   C18-   C17
  2610   2613   2616   2619      9     0.00   1.25520   3 ;   C110-   C19-   C18-   C17
  2611   2610   2613   2614      9     0.00   0.62760   3 ;   H10R-  C110-   C19-   H9R
  2611   2610   2613   2615      9     0.00   0.62760   3 ;   H10R-  C110-   C19-   H9S
  2611   2610   2613   2616      9     0.00   0.66944   3 ;   H10R-  C110-   C19-   C18
  2612   2610   2613   2614      9     0.00   0.62760   3 ;   H10S-  C110-   C19-   H9R
  2612   2610   2613   2615      9     0.00   0.62760   3 ;   H10S-  C110-   C19-   H9S
  2612   2610   2613   2616      9     0.00   0.66944   3 ;   H10S-  C110-   C19-   C18
  2613   2616   2619   2620      9     0.00   0.66944   3 ;    C19-   C18-   C17-   H7R
  2613   2616   2619   2621      9     0.00   0.66944   3 ;    C19-   C18-   C17-   H7S
  2613   2616   2619   2622      9     0.00   0.41840   1 ;    C19-   C18-   C17-   C16
  2613   2616   2619   2622      9     0.00   0.41840   2 ;    C19-   C18-   C17-   C16
  2613   2616   2619   2622      9     0.00   0.41840   4 ;    C19-   C18-   C17-   C16
  2613   2616   2619   2622      9     0.00   0.41840   5 ;    C19-   C18-   C17-   C16
  2613   2616   2619   2622      9     0.00   1.25520   3 ;    C19-   C18-   C17-   C16
  2614   2613   2616   2617      9     0.00   0.62760   3 ;    H9R-   C19-   C18-   H8R
  2614   2613   2616   2618      9     0.00   0.62760   3 ;    H9R-   C19-   C18-   H8S
  2614   2613   2616   2619      9     0.00   0.66944   3 ;    H9R-   C19-   C18-   C17
  2615   2613   2616   2617      9     0.00   0.62760   3 ;    H9S-   C19-   C18-   H8R
  2615   2613   2616   2618      9     0.00   0.62760   3 ;    H9S-   C19-   C18-   H8S
  2615   2613   2616   2619      9     0.00   0.66944   3 ;    H9S-   C19-   C18-   C17
  2616   2619   2622   2623      9     0.00   0.66944   3 ;    C18-   C17-   C16-   H6R
  2616   2619   2622   2624      9     0.00   0.66944   3 ;    C18-   C17-   C16-   H6S
  2616   2619   2622   2625      9     0.00   0.41840   1 ;    C18-   C17-   C16-   C15
  2616   2619   2622   2625      9     0.00   0.41840   2 ;    C18-   C17-   C16-   C15
  2616   2619   2622   2625      9     0.00   0.41840   4 ;    C18-   C17-   C16-   C15
  2616   2619   2622   2625      9     0.00   0.41840   5 ;    C18-   C17-   C16-   C15
  2616   2619   2622   2625      9     0.00   1.25520   3 ;    C18-   C17-   C16-   C15
  2617   2616   2619   2620      9     0.00   0.62760   3 ;    H8R-   C18-   C17-   H7R
  2617   2616   2619   2621      9     0.00   0.62760   3 ;    H8R-   C18-   C17-   H7S
  2617   2616   2619   2622      9     0.00   0.66944   3 ;    H8R-   C18-   C17-   C16
  2618   2616   2619   2620      9     0.00   0.62760   3 ;    H8S-   C18-   C17-   H7R
  2618   2616   2619   2621      9     0.00   0.62760   3 ;    H8S-   C18-   C17-   H7S
  2618   2616   2619   2622      9     0.00   0.66944   3 ;    H8S-   C18-   C17-   C16
  2619   2622   2625   2626      9     0.00   0.66944   3 ;    C17-   C16-   C15-   H5R
  2619   2622   2625   2627      9     0.00   0.66944   3 ;    C17-   C16-   C15-   H5S
  2619   2622   2625   2628      9     0.00   0.41840   1 ;    C17-   C16-   C15-   C14
  2619   2622   2625   2628      9     0.00   0.41840   2 ;    C17-   C16-   C15-   C14
  2619   2622   2625   2628      9     0.00   0.41840   4 ;    C17-   C16-   C15-   C14
  2619   2622   2625   2628      9     0.00   0.41840   5 ;    C17-   C16-   C15-   C14
  2619   2622   2625   2628      9     0.00   1.25520   3 ;    C17-   C16-   C15-   C14
  2620   2619   2622   2623      9     0.00   0.62760   3 ;    H7R-   C17-   C16-   H6R
  2620   2619   2622   2624      9     0.00   0.62760   3 ;    H7R-   C17-   C16-   H6S
  2620   2619   2622   2625      9     0.00   0.66944   3 ;    H7R-   C17-   C16-   C15
  2621   2619   2622   2623      9     0.00   0.62760   3 ;    H7S-   C17-   C16-   H6R
  2621   2619   2622   2624      9     0.00   0.62760   3 ;    H7S-   C17-   C16-   H6S
  2621   2619   2622   2625      9     0.00   0.66944   3 ;    H7S-   C17-   C16-   C15
  2622   2625   2628   2629      9     0.00   0.66944   3 ;    C16-   C15-   C14-   H4R
  2622   2625   2628   2630      9     0.00   0.66944   3 ;    C16-   C15-   C14-   H4S
  2622   2625   2628   2631      9     0.00   0.41840   1 ;    C16-   C15-   C14-   C13
  2622   2625   2628   2631      9     0.00   0.41840   2 ;    C16-   C15-   C14-   C13
  2622   2625   2628   2631      9     0.00   0.41840   4 ;    C16-   C15-   C14-   C13
  2622   2625   2628   2631      9     0.00   0.41840   5 ;    C16-   C15-   C14-   C13
  2622   2625   2628   2631      9     0.00   1.25520   3 ;    C16-   C15-   C14-   C13
  2623   2622   2625   2626      9     0.00   0.62760   3 ;    H6R-   C16-   C15-   H5R
  2623   2622   2625   2627      9     0.00   0.62760   3 ;    H6R-   C16-   C15-   H5S
  2623   2622   2625   2628      9     0.00   0.66944   3 ;    H6R-   C16-   C15-   C14
  2624   2622   2625   2626      9     0.00   0.62760   3 ;    H6S-   C16-   C15-   H5R
  2624   2622   2625   2627      9     0.00   0.62760   3 ;    H6S-   C16-   C15-   H5S
  2624   2622   2625   2628      9     0.00   0.66944   3 ;    H6S-   C16-   C15-   C14
  2625   2628   2631   2632      9     0.00   0.66944   3 ;    C15-   C14-   C13-   H3R
  2625   2628   2631   2633      9     0.00   0.66944   3 ;    C15-   C14-   C13-   H3S
  2625   2628   2631   2634      9     0.00   0.41840   1 ;    C15-   C14-   C13-   C12
  2625   2628   2631   2634      9     0.00   0.41840   2 ;    C15-   C14-   C13-   C12
  2625   2628   2631   2634      9     0.00   0.41840   4 ;    C15-   C14-   C13-   C12
  2625   2628   2631   2634      9     0.00   0.41840   5 ;    C15-   C14-   C13-   C12
  2625   2628   2631   2634      9     0.00   1.25520   3 ;    C15-   C14-   C13-   C12
  2626   2625   2628   2629      9     0.00   0.62760   3 ;    H5R-   C15-   C14-   H4R
  2626   2625   2628   2630      9     0.00   0.62760   3 ;    H5R-   C15-   C14-   H4S
  2626   2625   2628   2631      9     0.00   0.66944   3 ;    H5R-   C15-   C14-   C13
  2627   2625   2628   2629      9     0.00   0.62760   3 ;    H5S-   C15-   C14-   H4R
  2627   2625   2628   2630      9     0.00   0.62760   3 ;    H5S-   C15-   C14-   H4S
  2627   2625   2628   2631      9     0.00   0.66944   3 ;    H5S-   C15-   C14-   C13
  2628   2631   2634   2635      9     0.00   0.66944   3 ;    C14-   C13-   C12-   H2R
  2628   2631   2634   2636      9     0.00   0.66944   3 ;    C14-   C13-   C12-   H2S
  2628   2631   2634   2637      9     0.00   0.65270   3 ;    C14-   C13-   C12-   C11
  2629   2628   2631   2632      9     0.00   0.62760   3 ;    H4R-   C14-   C13-   H3R
  2629   2628   2631   2633      9     0.00   0.62760   3 ;    H4R-   C14-   C13-   H3S
  2629   2628   2631   2634      9     0.00   0.66944   3 ;    H4R-   C14-   C13-   C12
  2630   2628   2631   2632      9     0.00   0.62760   3 ;    H4S-   C14-   C13-   H3R
  2630   2628   2631   2633      9     0.00   0.62760   3 ;    H4S-   C14-   C13-   H3S
  2630   2628   2631   2634      9     0.00   0.66944   3 ;    H4S-   C14-   C13-   C12
  2631   2634   2637   2638      9   180.00   0.00000   2 ;    C13-   C12-   C11-   O12
  2631   2634   2637   2639      9   180.00   0.00000   2 ;    C13-   C12-   C11-   O11
  2632   2631   2634   2635      9     0.00   0.62760   3 ;    H3R-   C13-   C12-   H2R
  2632   2631   2634   2636      9     0.00   0.62760   3 ;    H3R-   C13-   C12-   H2S
  2632   2631   2634   2637      9     0.00   0.65270   3 ;    H3R-   C13-   C12-   C11
  2633   2631   2634   2635      9     0.00   0.62760   3 ;    H3S-   C13-   C12-   H2R
  2633   2631   2634   2636      9     0.00   0.62760   3 ;    H3S-   C13-   C12-   H2S
  2633   2631   2634   2637      9     0.00   0.65270   3 ;    H3S-   C13-   C12-   C11
  2634   2637   2639   2640      9   180.00  11.29680   2 ;    C12-   C11-   O11-    C1
  2635   2634   2637   2638      9     0.00   3.34720   1 ;    H2R-   C12-   C11-   O12
  2635   2634   2637   2638      9   180.00   0.33472   3 ;    H2R-   C12-   C11-   O12
  2635   2634   2637   2639      9   180.00   0.00000   2 ;    H2R-   C12-   C11-   O11
  2636   2634   2637   2638      9     0.00   3.34720   1 ;    H2S-   C12-   C11-   O12
  2636   2634   2637   2638      9   180.00   0.33472   3 ;    H2S-   C12-   C11-   O12
  2636   2634   2637   2639      9   180.00   0.00000   2 ;    H2S-   C12-   C11-   O11
  2637   2639   2640   2641      9     0.00   1.60247   3 ;    C11-   O11-    C1-    HR
  2637   2639   2640   2642      9     0.00   1.60247   3 ;    C11-   O11-    C1-    HS
  2637   2639   2640   2643      9     0.00  -0.41840   1 ;    C11-   O11-    C1-    C2
  2638   2637   2639   2640      9   180.00   5.85760   1 ;    O12-   C11-   O11-    C1
  2638   2637   2639   2640      9   180.00  11.29680   2 ;    O12-   C11-   O11-    C1
  2639   2640   2643   2644      9     0.00   0.00000   0 ;    O11-    C1-    C2-    HX
  2639   2640   2643   2644      9     0.00   1.04600   1 ;    O11-    C1-    C2-    HX
  2639   2640   2643   2645      9     0.00   0.00000   0 ;    O11-    C1-    C2-    C3
  2639   2640   2643   2645      9     0.00   0.00000   0 ;    O11-    C1-    C2-    C3
  2639   2640   2643   2645      9     0.00   0.00000   0 ;    O11-    C1-    C2-    C3
  2639   2640   2643   2645      9     0.00   0.00000   0 ;    O11-    C1-    C2-    C3
  2639   2640   2643   2645      9     0.00   0.00000   0 ;    O11-    C1-    C2-    C3
  2639   2640   2643   2672      9     0.00   1.25520   2 ;    O11-    C1-    C2-   O21
  2639   2640   2643   2672      9     0.00   4.18400   3 ;    O11-    C1-    C2-   O21
  2639   2640   2643   2672      9   180.00  -0.41840   1 ;    O11-    C1-    C2-   O21
  2640   2643   2645   2646      9     0.00   0.65270   3 ;     C1-    C2-    C3-    HA
  2640   2643   2645   2647      9     0.00   0.65270   3 ;     C1-    C2-    C3-    HB
  2640   2643   2645   2648      9   180.00   3.34720   1 ;     C1-    C2-    C3-   O31
  2640   2643   2672   2673      9     0.00  -0.41840   1 ;     C1-    C2-   O21-   C21
  2641   2640   2643   2644      9     0.00   0.65270   3 ;     HR-    C1-    C2-    HX
  2641   2640   2643   2645      9     0.00   0.65270   3 ;     HR-    C1-    C2-    C3
  2641   2640   2643   2672      9     0.00   0.00000   0 ;     HR-    C1-    C2-   O21
  2641   2640   2643   2672      9     0.00   1.04600   1 ;     HR-    C1-    C2-   O21
  2642   2640   2643   2644      9     0.00   0.65270   3 ;     HS-    C1-    C2-    HX
  2642   2640   2643   2645      9     0.00   0.65270   3 ;     HS-    C1-    C2-    C3
  2642   2640   2643   2672      9     0.00   0.00000   0 ;     HS-    C1-    C2-   O21
  2642   2640   2643   2672      9     0.00   1.04600   1 ;     HS-    C1-    C2-   O21
  2643   2645   2648   2649      9     0.00   0.00000   0 ;     C2-    C3-   O31-   P31
  2643   2645   2648   2649      9   180.00  -3.34720   2 ;     C2-    C3-   O31-   P31
  2643   2672   2673   2674      9   180.00   5.85760   1 ;     C2-   O21-   C21-   O22
  2643   2672   2673   2674      9   180.00  11.29680   2 ;     C2-   O21-   C21-   O22
  2643   2672   2673   2712      9   180.00  11.29680   2 ;     C2-   O21-   C21-   C12
  2644   2643   2645   2646      9     0.00   0.65270   3 ;     HX-    C2-    C3-    HA
  2644   2643   2645   2647      9     0.00   0.65270   3 ;     HX-    C2-    C3-    HB
  2644   2643   2645   2648      9     0.00   0.00000   0 ;     HX-    C2-    C3-   O31
  2644   2643   2645   2648      9     0.00   1.04600   1 ;     HX-    C2-    C3-   O31
  2644   2643   2672   2673      9     0.00   1.60247   3 ;     HX-    C2-   O21-   C21
  2645   2643   2672   2673      9     0.00  -0.41840   1 ;     C3-    C2-   O21-   C21
  2645   2648   2649   2650      9     0.00   2.51040   3 ;     C3-   O31-   P31-   O32
  2645   2648   2649   2650      9     0.00   9.62320   2 ;     C3-   O31-   P31-   O32
  2645   2648   2649   2670      9     0.00   0.00000   0 ;     C3-   O31-   P31-   O33
  2645   2648   2649   2670      9     0.00   0.00000   0 ;     C3-   O31-   P31-   O33
  2645   2648   2649   2670      9     0.00   0.00000   0 ;     C3-   O31-   P31-   O33
  2645   2648   2649   2670      9     0.00   0.00000   0 ;     C3-   O31-   P31-   O33
  2645   2648   2649   2670      9     0.00   0.83680   2 ;     C3-   O31-   P31-   O33
  2645   2648   2649   2671      9     0.00   0.00000   0 ;     C3-   O31-   P31-   O34
  2645   2648   2649   2671      9     0.00   0.00000   0 ;     C3-   O31-   P31-   O34
  2645   2648   2649   2671      9     0.00   0.00000   0 ;     C3-   O31-   P31-   O34
  2645   2648   2649   2671      9     0.00   0.00000   0 ;     C3-   O31-   P31-   O34
  2645   2648   2649   2671      9     0.00   0.83680   2 ;     C3-   O31-   P31-   O34
  2646   2645   2643   2672      9     0.00   0.00000   0 ;     HA-    C3-    C2-   O21
  2646   2645   2643   2672      9     0.00   1.04600   1 ;     HA-    C3-    C2-   O21
  2646   2645   2648   2649      9     0.00   0.00000   0 ;     HA-    C3-   O31-   P31
  2646   2645   2648   2649      9     0.00   0.00000   0 ;     HA-    C3-   O31-   P31
  2646   2645   2648   2649      9     0.00   0.00000   0 ;     HA-    C3-   O31-   P31
  2646   2645   2648   2649      9     0.00   0.00000   0 ;     HA-    C3-   O31-   P31
  2646   2645   2648   2649      9     0.00   1.60247   3 ;     HA-    C3-   O31-   P31
  2647   2645   2643   2672      9     0.00   0.00000   0 ;     HB-    C3-    C2-   O21
  2647   2645   2643   2672      9     0.00   1.04600   1 ;     HB-    C3-    C2-   O21
  2647   2645   2648   2649      9     0.00   0.00000   0 ;     HB-    C3-   O31-   P31
  2647   2645   2648   2649      9     0.00   0.00000   0 ;     HB-    C3-   O31-   P31
  2647   2645   2648   2649      9     0.00   0.00000   0 ;     HB-    C3-   O31-   P31
  2647   2645   2648   2649      9     0.00   0.00000   0 ;     HB-    C3-   O31-   P31
  2647   2645   2648   2649      9     0.00   1.60247   3 ;     HB-    C3-   O31-   P31
  2648   2645   2643   2672      9     0.00   0.00000   0 ;    O31-    C3-    C2-   O21
  2648   2645   2643   2672      9     0.00   0.00000   0 ;    O31-    C3-    C2-   O21
  2648   2645   2643   2672      9     0.00   0.00000   0 ;    O31-    C3-    C2-   O21
  2648   2645   2643   2672      9     0.00   0.00000   0 ;    O31-    C3-    C2-   O21
  2648   2645   2643   2672      9     0.00   0.00000   0 ;    O31-    C3-    C2-   O21
  2648   2649   2650   2651      9     0.00   2.51040   3 ;    O31-   P31-   O32-   C31
  2648   2649   2650   2651      9     0.00   9.62320   2 ;    O31-   P31-   O32-   C31
  2649   2650   2651   2652      9     0.00   0.00000   0 ;    P31-   O32-   C31-   H1A
  2649   2650   2651   2652      9     0.00   0.00000   0 ;    P31-   O32-   C31-   H1A
  2649   2650   2651   2652      9     0.00   0.00000   0 ;    P31-   O32-   C31-   H1A
  2649   2650   2651   2652      9     0.00   0.00000   0 ;    P31-   O32-   C31-   H1A
  2649   2650   2651   2652      9     0.00   1.60247   3 ;    P31-   O32-   C31-   H1A
  2649   2650   2651   2653      9     0.00   0.00000   0 ;    P31-   O32-   C31-   H1B
  2649   2650   2651   2653      9     0.00   0.00000   0 ;    P31-   O32-   C31-   H1B
  2649   2650   2651   2653      9     0.00   0.00000   0 ;    P31-   O32-   C31-   H1B
  2649   2650   2651   2653      9     0.00   0.00000   0 ;    P31-   O32-   C31-   H1B
  2649   2650   2651   2653      9     0.00   1.60247   3 ;    P31-   O32-   C31-   H1B
  2649   2650   2651   2654      9     0.00   0.00000   0 ;    P31-   O32-   C31-   C32
  2649   2650   2651   2654      9   180.00  -3.34720   2 ;    P31-   O32-   C31-   C32
  2650   2651   2654   2655      9     0.00   0.65270   3 ;    O32-   C31-   C32-   H2A
  2650   2651   2654   2656      9     0.00   0.65270   3 ;    O32-   C31-   C32-   H2B
  2650   2651   2654   2657      9     0.00   4.18400   3 ;    O32-   C31-   C32-   N31
  2651   2650   2649   2670      9     0.00   0.00000   0 ;    C31-   O32-   P31-   O33
  2651   2650   2649   2670      9     0.00   0.00000   0 ;    C31-   O32-   P31-   O33
  2651   2650   2649   2670      9     0.00   0.00000   0 ;    C31-   O32-   P31-   O33
  2651   2650   2649   2670      9     0.00   0.00000   0 ;    C31-   O32-   P31-   O33
  2651   2650   2649   2670      9     0.00   0.83680   2 ;    C31-   O32-   P31-   O33
  2651   2650   2649   2671      9     0.00   0.00000   0 ;    C31-   O32-   P31-   O34
  2651   2650   2649   2671      9     0.00   0.00000   0 ;    C31-   O32-   P31-   O34
  2651   2650   2649   2671      9     0.00   0.00000   0 ;    C31-   O32-   P31-   O34
  2651   2650   2649   2671      9     0.00   0.00000   0 ;    C31-   O32-   P31-   O34
  2651   2650   2649   2671      9     0.00   0.83680   2 ;    C31-   O32-   P31-   O34
  2651   2654   2657   2658      9     0.00   0.65270   3 ;    C31-   C32-   N31-   C33
  2651   2654   2657   2662      9     0.00   0.65270   3 ;    C31-   C32-   N31-   C34
  2651   2654   2657   2666      9     0.00   0.65270   3 ;    C31-   C32-   N31-   C35
  2652   2651   2654   2655      9     0.00   0.65270   3 ;    H1A-   C31-   C32-   H2A
  2652   2651   2654   2656      9     0.00   0.65270   3 ;    H1A-   C31-   C32-   H2B
  2652   2651   2654   2657      9     0.00   0.65270   3 ;    H1A-   C31-   C32-   N31
  2653   2651   2654   2655      9     0.00   0.65270   3 ;    H1B-   C31-   C32-   H2A
  2653   2651   2654   2656      9     0.00   0.65270   3 ;    H1B-   C31-   C32-   H2B
  2653   2651   2654   2657      9     0.00   0.65270   3 ;    H1B-   C31-   C32-   N31
  2654   2657   2658   2659      9     0.00   0.65270   3 ;    C32-   N31-   C33-   H3A
  2654   2657   2658   2660      9     0.00   0.65270   3 ;    C32-   N31-   C33-   H3B
  2654   2657   2658   2661      9     0.00   0.65270   3 ;    C32-   N31-   C33-   H3C
  2654   2657   2662   2663      9     0.00   0.65270   3 ;    C32-   N31-   C34-   H4A
  2654   2657   2662   2664      9     0.00   0.65270   3 ;    C32-   N31-   C34-   H4B
  2654   2657   2662   2665      9     0.00   0.65270   3 ;    C32-   N31-   C34-   H4C
  2654   2657   2666   2667      9     0.00   0.65270   3 ;    C32-   N31-   C35-   H5A
  2654   2657   2666   2668      9     0.00   0.65270   3 ;    C32-   N31-   C35-   H5B
  2654   2657   2666   2669      9     0.00   0.65270   3 ;    C32-   N31-   C35-   H5C
  2655   2654   2657   2658      9     0.00   0.65270   3 ;    H2A-   C32-   N31-   C33
  2655   2654   2657   2662      9     0.00   0.65270   3 ;    H2A-   C32-   N31-   C34
  2655   2654   2657   2666      9     0.00   0.65270   3 ;    H2A-   C32-   N31-   C35
  2656   2654   2657   2658      9     0.00   0.65270   3 ;    H2B-   C32-   N31-   C33
  2656   2654   2657   2662      9     0.00   0.65270   3 ;    H2B-   C32-   N31-   C34
  2656   2654   2657   2666      9     0.00   0.65270   3 ;    H2B-   C32-   N31-   C35
  2658   2657   2662   2663      9     0.00   0.65270   3 ;    C33-   N31-   C34-   H4A
  2658   2657   2662   2664      9     0.00   0.65270   3 ;    C33-   N31-   C34-   H4B
  2658   2657   2662   2665      9     0.00   0.65270   3 ;    C33-   N31-   C34-   H4C
  2658   2657   2666   2667      9     0.00   0.65270   3 ;    C33-   N31-   C35-   H5A
  2658   2657   2666   2668      9     0.00   0.65270   3 ;    C33-   N31-   C35-   H5B
  2658   2657   2666   2669      9     0.00   0.65270   3 ;    C33-   N31-   C35-   H5C
  2659   2658   2657   2662      9     0.00   0.65270   3 ;    H3A-   C33-   N31-   C34
  2659   2658   2657   2666      9     0.00   0.65270   3 ;    H3A-   C33-   N31-   C35
  2660   2658   2657   2662      9     0.00   0.65270   3 ;    H3B-   C33-   N31-   C34
  2660   2658   2657   2666      9     0.00   0.65270   3 ;    H3B-   C33-   N31-   C35
  2661   2658   2657   2662      9     0.00   0.65270   3 ;    H3C-   C33-   N31-   C34
  2661   2658   2657   2666      9     0.00   0.65270   3 ;    H3C-   C33-   N31-   C35
  2662   2657   2666   2667      9     0.00   0.65270   3 ;    C34-   N31-   C35-   H5A
  2662   2657   2666   2668      9     0.00   0.65270   3 ;    C34-   N31-   C35-   H5B
  2662   2657   2666   2669      9     0.00   0.65270   3 ;    C34-   N31-   C35-   H5C
  2663   2662   2657   2666      9     0.00   0.65270   3 ;    H4A-   C34-   N31-   C35
  2664   2662   2657   2666      9     0.00   0.65270   3 ;    H4B-   C34-   N31-   C35
  2665   2662   2657   2666      9     0.00   0.65270   3 ;    H4C-   C34-   N31-   C35
  2672   2673   2712   2709      9   180.00   0.00000   2 ;    O21-   C21-   C12-   C13
  2672   2673   2712   2713      9   180.00   0.00000   2 ;    O21-   C21-   C12-   H2R
  2672   2673   2712   2714      9   180.00   0.00000   2 ;    O21-   C21-   C12-   H2S
  2673   2712   2709   2706      9     0.00   0.65270   3 ;    C21-   C12-   C13-   C14
  2673   2712   2709   2710      9     0.00   0.65270   3 ;    C21-   C12-   C13-   H3R
  2673   2712   2709   2711      9     0.00   0.65270   3 ;    C21-   C12-   C13-   H3S
  2674   2673   2712   2709      9   180.00   0.00000   2 ;    O22-   C21-   C12-   C13
  2674   2673   2712   2713      9     0.00   3.34720   1 ;    O22-   C21-   C12-   H2R
  2674   2673   2712   2713      9   180.00   0.33472   3 ;    O22-   C21-   C12-   H2R
  2674   2673   2712   2714      9     0.00   3.34720   1 ;    O22-   C21-   C12-   H2S
  2674   2673   2712   2714      9   180.00   0.33472   3 ;    O22-   C21-   C12-   H2S
  2675   2676   2679   2680      9     0.00   0.62760   3 ;   H14T-  C114-  C113-  H13R
  2675   2676   2679   2681      9     0.00   0.62760   3 ;   H14T-  C114-  C113-  H13S
  2675   2676   2679   2682      9     0.00   0.66944   3 ;   H14T-  C114-  C113-  C112
  2676   2679   2682   2683      9     0.00   0.66944   3 ;   C114-  C113-  C112-  H12R
  2676   2679   2682   2684      9     0.00   0.66944   3 ;   C114-  C113-  C112-  H12S
  2676   2679   2682   2685      9     0.00   0.41840   1 ;   C114-  C113-  C112-  C111
  2676   2679   2682   2685      9     0.00   0.41840   2 ;   C114-  C113-  C112-  C111
  2676   2679   2682   2685      9     0.00   0.41840   4 ;   C114-  C113-  C112-  C111
  2676   2679   2682   2685      9     0.00   0.41840   5 ;   C114-  C113-  C112-  C111
  2676   2679   2682   2685      9     0.00   1.25520   3 ;   C114-  C113-  C112-  C111
  2677   2676   2679   2680      9     0.00   0.62760   3 ;   H14R-  C114-  C113-  H13R
  2677   2676   2679   2681      9     0.00   0.62760   3 ;   H14R-  C114-  C113-  H13S
  2677   2676   2679   2682      9     0.00   0.66944   3 ;   H14R-  C114-  C113-  C112
  2678   2676   2679   2680      9     0.00   0.62760   3 ;   H14S-  C114-  C113-  H13R
  2678   2676   2679   2681      9     0.00   0.62760   3 ;   H14S-  C114-  C113-  H13S
  2678   2676   2679   2682      9     0.00   0.66944   3 ;   H14S-  C114-  C113-  C112
  2679   2682   2685   2686      9     0.00   0.66944   3 ;   C113-  C112-  C111-  H11R
  2679   2682   2685   2687      9     0.00   0.66944   3 ;   C113-  C112-  C111-  H11S
  2679   2682   2685   2688      9     0.00   0.41840   1 ;   C113-  C112-  C111-  C110
  2679   2682   2685   2688      9     0.00   0.41840   2 ;   C113-  C112-  C111-  C110
  2679   2682   2685   2688      9     0.00   0.41840   4 ;   C113-  C112-  C111-  C110
  2679   2682   2685   2688      9     0.00   0.41840   5 ;   C113-  C112-  C111-  C110
  2679   2682   2685   2688      9     0.00   1.25520   3 ;   C113-  C112-  C111-  C110
  2680   2679   2682   2683      9     0.00   0.62760   3 ;   H13R-  C113-  C112-  H12R
  2680   2679   2682   2684      9     0.00   0.62760   3 ;   H13R-  C113-  C112-  H12S
  2680   2679   2682   2685      9     0.00   0.66944   3 ;   H13R-  C113-  C112-  C111
  2681   2679   2682   2683      9     0.00   0.62760   3 ;   H13S-  C113-  C112-  H12R
  2681   2679   2682   2684      9     0.00   0.62760   3 ;   H13S-  C113-  C112-  H12S
  2681   2679   2682   2685      9     0.00   0.66944   3 ;   H13S-  C113-  C112-  C111
  2682   2685   2688   2689      9     0.00   0.66944   3 ;   C112-  C111-  C110-  H10R
  2682   2685   2688   2690      9     0.00   0.66944   3 ;   C112-  C111-  C110-  H10S
  2682   2685   2688   2691      9     0.00   0.41840   1 ;   C112-  C111-  C110-   C19
  2682   2685   2688   2691      9     0.00   0.41840   2 ;   C112-  C111-  C110-   C19
  2682   2685   2688   2691      9     0.00   0.41840   4 ;   C112-  C111-  C110-   C19
  2682   2685   2688   2691      9     0.00   0.41840   5 ;   C112-  C111-  C110-   C19
  2682   2685   2688   2691      9     0.00   1.25520   3 ;   C112-  C111-  C110-   C19
  2683   2682   2685   2686      9     0.00   0.62760   3 ;   H12R-  C112-  C111-  H11R
  2683   2682   2685   2687      9     0.00   0.62760   3 ;   H12R-  C112-  C111-  H11S
  2683   2682   2685   2688      9     0.00   0.66944   3 ;   H12R-  C112-  C111-  C110
  2684   2682   2685   2686      9     0.00   0.62760   3 ;   H12S-  C112-  C111-  H11R
  2684   2682   2685   2687      9     0.00   0.62760   3 ;   H12S-  C112-  C111-  H11S
  2684   2682   2685   2688      9     0.00   0.66944   3 ;   H12S-  C112-  C111-  C110
  2685   2688   2691   2692      9     0.00   0.66944   3 ;   C111-  C110-   C19-   H9R
  2685   2688   2691   2693      9     0.00   0.66944   3 ;   C111-  C110-   C19-   H9S
  2685   2688   2691   2694      9     0.00   0.41840   1 ;   C111-  C110-   C19-   C18
  2685   2688   2691   2694      9     0.00   0.41840   2 ;   C111-  C110-   C19-   C18
  2685   2688   2691   2694      9     0.00   0.41840   4 ;   C111-  C110-   C19-   C18
  2685   2688   2691   2694      9     0.00   0.41840   5 ;   C111-  C110-   C19-   C18
  2685   2688   2691   2694      9     0.00   1.25520   3 ;   C111-  C110-   C19-   C18
  2686   2685   2688   2689      9     0.00   0.62760   3 ;   H11R-  C111-  C110-  H10R
  2686   2685   2688   2690      9     0.00   0.62760   3 ;   H11R-  C111-  C110-  H10S
  2686   2685   2688   2691      9     0.00   0.66944   3 ;   H11R-  C111-  C110-   C19
  2687   2685   2688   2689      9     0.00   0.62760   3 ;   H11S-  C111-  C110-  H10R
  2687   2685   2688   2690      9     0.00   0.62760   3 ;   H11S-  C111-  C110-  H10S
  2687   2685   2688   2691      9     0.00   0.66944   3 ;   H11S-  C111-  C110-   C19
  2688   2691   2694   2695      9     0.00   0.66944   3 ;   C110-   C19-   C18-   H8R
  2688   2691   2694   2696      9     0.00   0.66944   3 ;   C110-   C19-   C18-   H8S
  2688   2691   2694   2697      9     0.00   0.41840   1 ;   C110-   C19-   C18-   C17
  2688   2691   2694   2697      9     0.00   0.41840   2 ;   C110-   C19-   C18-   C17
  2688   2691   2694   2697      9     0.00   0.41840   4 ;   C110-   C19-   C18-   C17
  2688   2691   2694   2697      9     0.00   0.41840   5 ;   C110-   C19-   C18-   C17
  2688   2691   2694   2697      9     0.00   1.25520   3 ;   C110-   C19-   C18-   C17
  2689   2688   2691   2692      9     0.00   0.62760   3 ;   H10R-  C110-   C19-   H9R
  2689   2688   2691   2693      9     0.00   0.62760   3 ;   H10R-  C110-   C19-   H9S
  2689   2688   2691   2694      9     0.00   0.66944   3 ;   H10R-  C110-   C19-   C18
  2690   2688   2691   2692      9     0.00   0.62760   3 ;   H10S-  C110-   C19-   H9R
  2690   2688   2691   2693      9     0.00   0.62760   3 ;   H10S-  C110-   C19-   H9S
  2690   2688   2691   2694      9     0.00   0.66944   3 ;   H10S-  C110-   C19-   C18
  2691   2694   2697   2698      9     0.00   0.66944   3 ;    C19-   C18-   C17-   H7R
  2691   2694   2697   2699      9     0.00   0.66944   3 ;    C19-   C18-   C17-   H7S
  2691   2694   2697   2700      9     0.00   0.41840   1 ;    C19-   C18-   C17-   C16
  2691   2694   2697   2700      9     0.00   0.41840   2 ;    C19-   C18-   C17-   C16
  2691   2694   2697   2700      9     0.00   0.41840   4 ;    C19-   C18-   C17-   C16
  2691   2694   2697   2700      9     0.00   0.41840   5 ;    C19-   C18-   C17-   C16
  2691   2694   2697   2700      9     0.00   1.25520   3 ;    C19-   C18-   C17-   C16
  2692   2691   2694   2695      9     0.00   0.62760   3 ;    H9R-   C19-   C18-   H8R
  2692   2691   2694   2696      9     0.00   0.62760   3 ;    H9R-   C19-   C18-   H8S
  2692   2691   2694   2697      9     0.00   0.66944   3 ;    H9R-   C19-   C18-   C17
  2693   2691   2694   2695      9     0.00   0.62760   3 ;    H9S-   C19-   C18-   H8R
  2693   2691   2694   2696      9     0.00   0.62760   3 ;    H9S-   C19-   C18-   H8S
  2693   2691   2694   2697      9     0.00   0.66944   3 ;    H9S-   C19-   C18-   C17
  2694   2697   2700   2701      9     0.00   0.66944   3 ;    C18-   C17-   C16-   H6R
  2694   2697   2700   2702      9     0.00   0.66944   3 ;    C18-   C17-   C16-   H6S
  2694   2697   2700   2703      9     0.00   0.41840   1 ;    C18-   C17-   C16-   C15
  2694   2697   2700   2703      9     0.00   0.41840   2 ;    C18-   C17-   C16-   C15
  2694   2697   2700   2703      9     0.00   0.41840   4 ;    C18-   C17-   C16-   C15
  2694   2697   2700   2703      9     0.00   0.41840   5 ;    C18-   C17-   C16-   C15
  2694   2697   2700   2703      9     0.00   1.25520   3 ;    C18-   C17-   C16-   C15
  2695   2694   2697   2698      9     0.00   0.62760   3 ;    H8R-   C18-   C17-   H7R
  2695   2694   2697   2699      9     0.00   0.62760   3 ;    H8R-   C18-   C17-   H7S
  2695   2694   2697   2700      9     0.00   0.66944   3 ;    H8R-   C18-   C17-   C16
  2696   2694   2697   2698      9     0.00   0.62760   3 ;    H8S-   C18-   C17-   H7R
  2696   2694   2697   2699      9     0.00   0.62760   3 ;    H8S-   C18-   C17-   H7S
  2696   2694   2697   2700      9     0.00   0.66944   3 ;    H8S-   C18-   C17-   C16
  2697   2700   2703   2704      9     0.00   0.66944   3 ;    C17-   C16-   C15-   H5R
  2697   2700   2703   2705      9     0.00   0.66944   3 ;    C17-   C16-   C15-   H5S
  2697   2700   2703   2706      9     0.00   0.41840   1 ;    C17-   C16-   C15-   C14
  2697   2700   2703   2706      9     0.00   0.41840   2 ;    C17-   C16-   C15-   C14
  2697   2700   2703   2706      9     0.00   0.41840   4 ;    C17-   C16-   C15-   C14
  2697   2700   2703   2706      9     0.00   0.41840   5 ;    C17-   C16-   C15-   C14
  2697   2700   2703   2706      9     0.00   1.25520   3 ;    C17-   C16-   C15-   C14
  2698   2697   2700   2701      9     0.00   0.62760   3 ;    H7R-   C17-   C16-   H6R
  2698   2697   2700   2702      9     0.00   0.62760   3 ;    H7R-   C17-   C16-   H6S
  2698   2697   2700   2703      9     0.00   0.66944   3 ;    H7R-   C17-   C16-   C15
  2699   2697   2700   2701      9     0.00   0.62760   3 ;    H7S-   C17-   C16-   H6R
  2699   2697   2700   2702      9     0.00   0.62760   3 ;    H7S-   C17-   C16-   H6S
  2699   2697   2700   2703      9     0.00   0.66944   3 ;    H7S-   C17-   C16-   C15
  2700   2703   2706   2707      9     0.00   0.66944   3 ;    C16-   C15-   C14-   H4R
  2700   2703   2706   2708      9     0.00   0.66944   3 ;    C16-   C15-   C14-   H4S
  2700   2703   2706   2709      9     0.00   0.41840   1 ;    C16-   C15-   C14-   C13
  2700   2703   2706   2709      9     0.00   0.41840   2 ;    C16-   C15-   C14-   C13
  2700   2703   2706   2709      9     0.00   0.41840   4 ;    C16-   C15-   C14-   C13
  2700   2703   2706   2709      9     0.00   0.41840   5 ;    C16-   C15-   C14-   C13
  2700   2703   2706   2709      9     0.00   1.25520   3 ;    C16-   C15-   C14-   C13
  2701   2700   2703   2704      9     0.00   0.62760   3 ;    H6R-   C16-   C15-   H5R
  2701   2700   2703   2705      9     0.00   0.62760   3 ;    H6R-   C16-   C15-   H5S
  2701   2700   2703   2706      9     0.00   0.66944   3 ;    H6R-   C16-   C15-   C14
  2702   2700   2703   2704      9     0.00   0.62760   3 ;    H6S-   C16-   C15-   H5R
  2702   2700   2703   2705      9     0.00   0.62760   3 ;    H6S-   C16-   C15-   H5S
  2702   2700   2703   2706      9     0.00   0.66944   3 ;    H6S-   C16-   C15-   C14
  2703   2706   2709   2710      9     0.00   0.66944   3 ;    C15-   C14-   C13-   H3R
  2703   2706   2709   2711      9     0.00   0.66944   3 ;    C15-   C14-   C13-   H3S
  2703   2706   2709   2712      9     0.00   0.41840   1 ;    C15-   C14-   C13-   C12
  2703   2706   2709   2712      9     0.00   0.41840   2 ;    C15-   C14-   C13-   C12
  2703   2706   2709   2712      9     0.00   0.41840   4 ;    C15-   C14-   C13-   C12
  2703   2706   2709   2712      9     0.00   0.41840   5 ;    C15-   C14-   C13-   C12
  2703   2706   2709   2712      9     0.00   1.25520   3 ;    C15-   C14-   C13-   C12
  2704   2703   2706   2707      9     0.00   0.62760   3 ;    H5R-   C15-   C14-   H4R
  2704   2703   2706   2708      9     0.00   0.62760   3 ;    H5R-   C15-   C14-   H4S
  2704   2703   2706   2709      9     0.00   0.66944   3 ;    H5R-   C15-   C14-   C13
  2705   2703   2706   2707      9     0.00   0.62760   3 ;    H5S-   C15-   C14-   H4R
  2705   2703   2706   2708      9     0.00   0.62760   3 ;    H5S-   C15-   C14-   H4S
  2705   2703   2706   2709      9     0.00   0.66944   3 ;    H5S-   C15-   C14-   C13
  2706   2709   2712   2713      9     0.00   0.66944   3 ;    C14-   C13-   C12-   H2R
  2706   2709   2712   2714      9     0.00   0.66944   3 ;    C14-   C13-   C12-   H2S
  2707   2706   2709   2710      9     0.00   0.62760   3 ;    H4R-   C14-   C13-   H3R
  2707   2706   2709   2711      9     0.00   0.62760   3 ;    H4R-   C14-   C13-   H3S
  2707   2706   2709   2712      9     0.00   0.66944   3 ;    H4R-   C14-   C13-   C12
  2708   2706   2709   2710      9     0.00   0.62760   3 ;    H4S-   C14-   C13-   H3R
  2708   2706   2709   2711      9     0.00   0.62760   3 ;    H4S-   C14-   C13-   H3S
  2708   2706   2709   2712      9     0.00   0.66944   3 ;    H4S-   C14-   C13-   C12
  2710   2709   2712   2713      9     0.00   0.62760   3 ;    H3R-   C13-   C12-   H2R
  2710   2709   2712   2714      9     0.00   0.62760   3 ;    H3R-   C13-   C12-   H2S
  2711   2709   2712   2713      9     0.00   0.62760   3 ;    H3S-   C13-   C12-   H2R
  2711   2709   2712   2714      9     0.00   0.62760   3 ;    H3S-   C13-   C12-   H2S
  2715   2716   2719   2720      9     0.00   0.62760   3 ;   H14T-  C114-  C113-  H13R
  2715   2716   2719   2721      9     0.00   0.62760   3 ;   H14T-  C114-  C113-  H13S
  2715   2716   2719   2722      9     0.00   0.66944   3 ;   H14T-  C114-  C113-  C112
  2716   2719   2722   2723      9     0.00   0.66944   3 ;   C114-  C113-  C112-  H12R
  2716   2719   2722   2724      9     0.00   0.66944   3 ;   C114-  C113-  C112-  H12S
  2716   2719   2722   2725      9     0.00   0.41840   1 ;   C114-  C113-  C112-  C111
  2716   2719   2722   2725      9     0.00   0.41840   2 ;   C114-  C113-  C112-  C111
  2716   2719   2722   2725      9     0.00   0.41840   4 ;   C114-  C113-  C112-  C111
  2716   2719   2722   2725      9     0.00   0.41840   5 ;   C114-  C113-  C112-  C111
  2716   2719   2722   2725      9     0.00   1.25520   3 ;   C114-  C113-  C112-  C111
  2717   2716   2719   2720      9     0.00   0.62760   3 ;   H14R-  C114-  C113-  H13R
  2717   2716   2719   2721      9     0.00   0.62760   3 ;   H14R-  C114-  C113-  H13S
  2717   2716   2719   2722      9     0.00   0.66944   3 ;   H14R-  C114-  C113-  C112
  2718   2716   2719   2720      9     0.00   0.62760   3 ;   H14S-  C114-  C113-  H13R
  2718   2716   2719   2721      9     0.00   0.62760   3 ;   H14S-  C114-  C113-  H13S
  2718   2716   2719   2722      9     0.00   0.66944   3 ;   H14S-  C114-  C113-  C112
  2719   2722   2725   2726      9     0.00   0.66944   3 ;   C113-  C112-  C111-  H11R
  2719   2722   2725   2727      9     0.00   0.66944   3 ;   C113-  C112-  C111-  H11S
  2719   2722   2725   2728      9     0.00   0.41840   1 ;   C113-  C112-  C111-  C110
  2719   2722   2725   2728      9     0.00   0.41840   2 ;   C113-  C112-  C111-  C110
  2719   2722   2725   2728      9     0.00   0.41840   4 ;   C113-  C112-  C111-  C110
  2719   2722   2725   2728      9     0.00   0.41840   5 ;   C113-  C112-  C111-  C110
  2719   2722   2725   2728      9     0.00   1.25520   3 ;   C113-  C112-  C111-  C110
  2720   2719   2722   2723      9     0.00   0.62760   3 ;   H13R-  C113-  C112-  H12R
  2720   2719   2722   2724      9     0.00   0.62760   3 ;   H13R-  C113-  C112-  H12S
  2720   2719   2722   2725      9     0.00   0.66944   3 ;   H13R-  C113-  C112-  C111
  2721   2719   2722   2723      9     0.00   0.62760   3 ;   H13S-  C113-  C112-  H12R
  2721   2719   2722   2724      9     0.00   0.62760   3 ;   H13S-  C113-  C112-  H12S
  2721   2719   2722   2725      9     0.00   0.66944   3 ;   H13S-  C113-  C112-  C111
  2722   2725   2728   2729      9     0.00   0.66944   3 ;   C112-  C111-  C110-  H10R
  2722   2725   2728   2730      9     0.00   0.66944   3 ;   C112-  C111-  C110-  H10S
  2722   2725   2728   2731      9     0.00   0.41840   1 ;   C112-  C111-  C110-   C19
  2722   2725   2728   2731      9     0.00   0.41840   2 ;   C112-  C111-  C110-   C19
  2722   2725   2728   2731      9     0.00   0.41840   4 ;   C112-  C111-  C110-   C19
  2722   2725   2728   2731      9     0.00   0.41840   5 ;   C112-  C111-  C110-   C19
  2722   2725   2728   2731      9     0.00   1.25520   3 ;   C112-  C111-  C110-   C19
  2723   2722   2725   2726      9     0.00   0.62760   3 ;   H12R-  C112-  C111-  H11R
  2723   2722   2725   2727      9     0.00   0.62760   3 ;   H12R-  C112-  C111-  H11S
  2723   2722   2725   2728      9     0.00   0.66944   3 ;   H12R-  C112-  C111-  C110
  2724   2722   2725   2726      9     0.00   0.62760   3 ;   H12S-  C112-  C111-  H11R
  2724   2722   2725   2727      9     0.00   0.62760   3 ;   H12S-  C112-  C111-  H11S
  2724   2722   2725   2728      9     0.00   0.66944   3 ;   H12S-  C112-  C111-  C110
  2725   2728   2731   2732      9     0.00   0.66944   3 ;   C111-  C110-   C19-   H9R
  2725   2728   2731   2733      9     0.00   0.66944   3 ;   C111-  C110-   C19-   H9S
  2725   2728   2731   2734      9     0.00   0.41840   1 ;   C111-  C110-   C19-   C18
  2725   2728   2731   2734      9     0.00   0.41840   2 ;   C111-  C110-   C19-   C18
  2725   2728   2731   2734      9     0.00   0.41840   4 ;   C111-  C110-   C19-   C18
  2725   2728   2731   2734      9     0.00   0.41840   5 ;   C111-  C110-   C19-   C18
  2725   2728   2731   2734      9     0.00   1.25520   3 ;   C111-  C110-   C19-   C18
  2726   2725   2728   2729      9     0.00   0.62760   3 ;   H11R-  C111-  C110-  H10R
  2726   2725   2728   2730      9     0.00   0.62760   3 ;   H11R-  C111-  C110-  H10S
  2726   2725   2728   2731      9     0.00   0.66944   3 ;   H11R-  C111-  C110-   C19
  2727   2725   2728   2729      9     0.00   0.62760   3 ;   H11S-  C111-  C110-  H10R
  2727   2725   2728   2730      9     0.00   0.62760   3 ;   H11S-  C111-  C110-  H10S
  2727   2725   2728   2731      9     0.00   0.66944   3 ;   H11S-  C111-  C110-   C19
  2728   2731   2734   2735      9     0.00   0.66944   3 ;   C110-   C19-   C18-   H8R
  2728   2731   2734   2736      9     0.00   0.66944   3 ;   C110-   C19-   C18-   H8S
  2728   2731   2734   2737      9     0.00   0.41840   1 ;   C110-   C19-   C18-   C17
  2728   2731   2734   2737      9     0.00   0.41840   2 ;   C110-   C19-   C18-   C17
  2728   2731   2734   2737      9     0.00   0.41840   4 ;   C110-   C19-   C18-   C17
  2728   2731   2734   2737      9     0.00   0.41840   5 ;   C110-   C19-   C18-   C17
  2728   2731   2734   2737      9     0.00   1.25520   3 ;   C110-   C19-   C18-   C17
  2729   2728   2731   2732      9     0.00   0.62760   3 ;   H10R-  C110-   C19-   H9R
  2729   2728   2731   2733      9     0.00   0.62760   3 ;   H10R-  C110-   C19-   H9S
  2729   2728   2731   2734      9     0.00   0.66944   3 ;   H10R-  C110-   C19-   C18
  2730   2728   2731   2732      9     0.00   0.62760   3 ;   H10S-  C110-   C19-   H9R
  2730   2728   2731   2733      9     0.00   0.62760   3 ;   H10S-  C110-   C19-   H9S
  2730   2728   2731   2734      9     0.00   0.66944   3 ;   H10S-  C110-   C19-   C18
  2731   2734   2737   2738      9     0.00   0.66944   3 ;    C19-   C18-   C17-   H7R
  2731   2734   2737   2739      9     0.00   0.66944   3 ;    C19-   C18-   C17-   H7S
  2731   2734   2737   2740      9     0.00   0.41840   1 ;    C19-   C18-   C17-   C16
  2731   2734   2737   2740      9     0.00   0.41840   2 ;    C19-   C18-   C17-   C16
  2731   2734   2737   2740      9     0.00   0.41840   4 ;    C19-   C18-   C17-   C16
  2731   2734   2737   2740      9     0.00   0.41840   5 ;    C19-   C18-   C17-   C16
  2731   2734   2737   2740      9     0.00   1.25520   3 ;    C19-   C18-   C17-   C16
  2732   2731   2734   2735      9     0.00   0.62760   3 ;    H9R-   C19-   C18-   H8R
  2732   2731   2734   2736      9     0.00   0.62760   3 ;    H9R-   C19-   C18-   H8S
  2732   2731   2734   2737      9     0.00   0.66944   3 ;    H9R-   C19-   C18-   C17
  2733   2731   2734   2735      9     0.00   0.62760   3 ;    H9S-   C19-   C18-   H8R
  2733   2731   2734   2736      9     0.00   0.62760   3 ;    H9S-   C19-   C18-   H8S
  2733   2731   2734   2737      9     0.00   0.66944   3 ;    H9S-   C19-   C18-   C17
  2734   2737   2740   2741      9     0.00   0.66944   3 ;    C18-   C17-   C16-   H6R
  2734   2737   2740   2742      9     0.00   0.66944   3 ;    C18-   C17-   C16-   H6S
  2734   2737   2740   2743      9     0.00   0.41840   1 ;    C18-   C17-   C16-   C15
  2734   2737   2740   2743      9     0.00   0.41840   2 ;    C18-   C17-   C16-   C15
  2734   2737   2740   2743      9     0.00   0.41840   4 ;    C18-   C17-   C16-   C15
  2734   2737   2740   2743      9     0.00   0.41840   5 ;    C18-   C17-   C16-   C15
  2734   2737   2740   2743      9     0.00   1.25520   3 ;    C18-   C17-   C16-   C15
  2735   2734   2737   2738      9     0.00   0.62760   3 ;    H8R-   C18-   C17-   H7R
  2735   2734   2737   2739      9     0.00   0.62760   3 ;    H8R-   C18-   C17-   H7S
  2735   2734   2737   2740      9     0.00   0.66944   3 ;    H8R-   C18-   C17-   C16
  2736   2734   2737   2738      9     0.00   0.62760   3 ;    H8S-   C18-   C17-   H7R
  2736   2734   2737   2739      9     0.00   0.62760   3 ;    H8S-   C18-   C17-   H7S
  2736   2734   2737   2740      9     0.00   0.66944   3 ;    H8S-   C18-   C17-   C16
  2737   2740   2743   2744      9     0.00   0.66944   3 ;    C17-   C16-   C15-   H5R
  2737   2740   2743   2745      9     0.00   0.66944   3 ;    C17-   C16-   C15-   H5S
  2737   2740   2743   2746      9     0.00   0.41840   1 ;    C17-   C16-   C15-   C14
  2737   2740   2743   2746      9     0.00   0.41840   2 ;    C17-   C16-   C15-   C14
  2737   2740   2743   2746      9     0.00   0.41840   4 ;    C17-   C16-   C15-   C14
  2737   2740   2743   2746      9     0.00   0.41840   5 ;    C17-   C16-   C15-   C14
  2737   2740   2743   2746      9     0.00   1.25520   3 ;    C17-   C16-   C15-   C14
  2738   2737   2740   2741      9     0.00   0.62760   3 ;    H7R-   C17-   C16-   H6R
  2738   2737   2740   2742      9     0.00   0.62760   3 ;    H7R-   C17-   C16-   H6S
  2738   2737   2740   2743      9     0.00   0.66944   3 ;    H7R-   C17-   C16-   C15
  2739   2737   2740   2741      9     0.00   0.62760   3 ;    H7S-   C17-   C16-   H6R
  2739   2737   2740   2742      9     0.00   0.62760   3 ;    H7S-   C17-   C16-   H6S
  2739   2737   2740   2743      9     0.00   0.66944   3 ;    H7S-   C17-   C16-   C15
  2740   2743   2746   2747      9     0.00   0.66944   3 ;    C16-   C15-   C14-   H4R
  2740   2743   2746   2748      9     0.00   0.66944   3 ;    C16-   C15-   C14-   H4S
  2740   2743   2746   2749      9     0.00   0.41840   1 ;    C16-   C15-   C14-   C13
  2740   2743   2746   2749      9     0.00   0.41840   2 ;    C16-   C15-   C14-   C13
  2740   2743   2746   2749      9     0.00   0.41840   4 ;    C16-   C15-   C14-   C13
  2740   2743   2746   2749      9     0.00   0.41840   5 ;    C16-   C15-   C14-   C13
  2740   2743   2746   2749      9     0.00   1.25520   3 ;    C16-   C15-   C14-   C13
  2741   2740   2743   2744      9     0.00   0.62760   3 ;    H6R-   C16-   C15-   H5R
  2741   2740   2743   2745      9     0.00   0.62760   3 ;    H6R-   C16-   C15-   H5S
  2741   2740   2743   2746      9     0.00   0.66944   3 ;    H6R-   C16-   C15-   C14
  2742   2740   2743   2744      9     0.00   0.62760   3 ;    H6S-   C16-   C15-   H5R
  2742   2740   2743   2745      9     0.00   0.62760   3 ;    H6S-   C16-   C15-   H5S
  2742   2740   2743   2746      9     0.00   0.66944   3 ;    H6S-   C16-   C15-   C14
  2743   2746   2749   2750      9     0.00   0.66944   3 ;    C15-   C14-   C13-   H3R
  2743   2746   2749   2751      9     0.00   0.66944   3 ;    C15-   C14-   C13-   H3S
  2743   2746   2749   2752      9     0.00   0.41840   1 ;    C15-   C14-   C13-   C12
  2743   2746   2749   2752      9     0.00   0.41840   2 ;    C15-   C14-   C13-   C12
  2743   2746   2749   2752      9     0.00   0.41840   4 ;    C15-   C14-   C13-   C12
  2743   2746   2749   2752      9     0.00   0.41840   5 ;    C15-   C14-   C13-   C12
  2743   2746   2749   2752      9     0.00   1.25520   3 ;    C15-   C14-   C13-   C12
  2744   2743   2746   2747      9     0.00   0.62760   3 ;    H5R-   C15-   C14-   H4R
  2744   2743   2746   2748      9     0.00   0.62760   3 ;    H5R-   C15-   C14-   H4S
  2744   2743   2746   2749      9     0.00   0.66944   3 ;    H5R-   C15-   C14-   C13
  2745   2743   2746   2747      9     0.00   0.62760   3 ;    H5S-   C15-   C14-   H4R
  2745   2743   2746   2748      9     0.00   0.62760   3 ;    H5S-   C15-   C14-   H4S
  2745   2743   2746   2749      9     0.00   0.66944   3 ;    H5S-   C15-   C14-   C13
  2746   2749   2752   2753      9     0.00   0.66944   3 ;    C14-   C13-   C12-   H2R
  2746   2749   2752   2754      9     0.00   0.66944   3 ;    C14-   C13-   C12-   H2S
  2746   2749   2752   2755      9     0.00   0.65270   3 ;    C14-   C13-   C12-   C11
  2747   2746   2749   2750      9     0.00   0.62760   3 ;    H4R-   C14-   C13-   H3R
  2747   2746   2749   2751      9     0.00   0.62760   3 ;    H4R-   C14-   C13-   H3S
  2747   2746   2749   2752      9     0.00   0.66944   3 ;    H4R-   C14-   C13-   C12
  2748   2746   2749   2750      9     0.00   0.62760   3 ;    H4S-   C14-   C13-   H3R
  2748   2746   2749   2751      9     0.00   0.62760   3 ;    H4S-   C14-   C13-   H3S
  2748   2746   2749   2752      9     0.00   0.66944   3 ;    H4S-   C14-   C13-   C12
  2749   2752   2755   2756      9   180.00   0.00000   2 ;    C13-   C12-   C11-   O12
  2749   2752   2755   2757      9   180.00   0.00000   2 ;    C13-   C12-   C11-   O11
  2750   2749   2752   2753      9     0.00   0.62760   3 ;    H3R-   C13-   C12-   H2R
  2750   2749   2752   2754      9     0.00   0.62760   3 ;    H3R-   C13-   C12-   H2S
  2750   2749   2752   2755      9     0.00   0.65270   3 ;    H3R-   C13-   C12-   C11
  2751   2749   2752   2753      9     0.00   0.62760   3 ;    H3S-   C13-   C12-   H2R
  2751   2749   2752   2754      9     0.00   0.62760   3 ;    H3S-   C13-   C12-   H2S
  2751   2749   2752   2755      9     0.00   0.65270   3 ;    H3S-   C13-   C12-   C11
  2752   2755   2757   2758      9   180.00  11.29680   2 ;    C12-   C11-   O11-    C1
  2753   2752   2755   2756      9     0.00   3.34720   1 ;    H2R-   C12-   C11-   O12
  2753   2752   2755   2756      9   180.00   0.33472   3 ;    H2R-   C12-   C11-   O12
  2753   2752   2755   2757      9   180.00   0.00000   2 ;    H2R-   C12-   C11-   O11
  2754   2752   2755   2756      9     0.00   3.34720   1 ;    H2S-   C12-   C11-   O12
  2754   2752   2755   2756      9   180.00   0.33472   3 ;    H2S-   C12-   C11-   O12
  2754   2752   2755   2757      9   180.00   0.00000   2 ;    H2S-   C12-   C11-   O11
  2755   2757   2758   2759      9     0.00   1.60247   3 ;    C11-   O11-    C1-    HR
  2755   2757   2758   2760      9     0.00   1.60247   3 ;    C11-   O11-    C1-    HS
  2755   2757   2758   2761      9     0.00  -0.41840   1 ;    C11-   O11-    C1-    C2
  2756   2755   2757   2758      9   180.00   5.85760   1 ;    O12-   C11-   O11-    C1
  2756   2755   2757   2758      9   180.00  11.29680   2 ;    O12-   C11-   O11-    C1
  2757   2758   2761   2762      9     0.00   0.00000   0 ;    O11-    C1-    C2-    HX
  2757   2758   2761   2762      9     0.00   1.04600   1 ;    O11-    C1-    C2-    HX
  2757   2758   2761   2763      9     0.00   0.00000   0 ;    O11-    C1-    C2-    C3
  2757   2758   2761   2763      9     0.00   0.00000   0 ;    O11-    C1-    C2-    C3
  2757   2758   2761   2763      9     0.00   0.00000   0 ;    O11-    C1-    C2-    C3
  2757   2758   2761   2763      9     0.00   0.00000   0 ;    O11-    C1-    C2-    C3
  2757   2758   2761   2763      9     0.00   0.00000   0 ;    O11-    C1-    C2-    C3
  2757   2758   2761   2790      9     0.00   1.25520   2 ;    O11-    C1-    C2-   O21
  2757   2758   2761   2790      9     0.00   4.18400   3 ;    O11-    C1-    C2-   O21
  2757   2758   2761   2790      9   180.00  -0.41840   1 ;    O11-    C1-    C2-   O21
  2758   2761   2763   2764      9     0.00   0.65270   3 ;     C1-    C2-    C3-    HA
  2758   2761   2763   2765      9     0.00   0.65270   3 ;     C1-    C2-    C3-    HB
  2758   2761   2763   2766      9   180.00   3.34720   1 ;     C1-    C2-    C3-   O31
  2758   2761   2790   2791      9     0.00  -0.41840   1 ;     C1-    C2-   O21-   C21
  2759   2758   2761   2762      9     0.00   0.65270   3 ;     HR-    C1-    C2-    HX
  2759   2758   2761   2763      9     0.00   0.65270   3 ;     HR-    C1-    C2-    C3
  2759   2758   2761   2790      9     0.00   0.00000   0 ;     HR-    C1-    C2-   O21
  2759   2758   2761   2790      9     0.00   1.04600   1 ;     HR-    C1-    C2-   O21
  2760   2758   2761   2762      9     0.00   0.65270   3 ;     HS-    C1-    C2-    HX
  2760   2758   2761   2763      9     0.00   0.65270   3 ;     HS-    C1-    C2-    C3
  2760   2758   2761   2790      9     0.00   0.00000   0 ;     HS-    C1-    C2-   O21
  2760   2758   2761   2790      9     0.00   1.04600   1 ;     HS-    C1-    C2-   O21
  2761   2763   2766   2767      9     0.00   0.00000   0 ;     C2-    C3-   O31-   P31
  2761   2763   2766   2767      9   180.00  -3.34720   2 ;     C2-    C3-   O31-   P31
  2761   2790   2791   2792      9   180.00   5.85760   1 ;     C2-   O21-   C21-   O22
  2761   2790   2791   2792      9   180.00  11.29680   2 ;     C2-   O21-   C21-   O22
  2761   2790   2791   2830      9   180.00  11.29680   2 ;     C2-   O21-   C21-   C12
  2762   2761   2763   2764      9     0.00   0.65270   3 ;     HX-    C2-    C3-    HA
  2762   2761   2763   2765      9     0.00   0.65270   3 ;     HX-    C2-    C3-    HB
  2762   2761   2763   2766      9     0.00   0.00000   0 ;     HX-    C2-    C3-   O31
  2762   2761   2763   2766      9     0.00   1.04600   1 ;     HX-    C2-    C3-   O31
  2762   2761   2790   2791      9     0.00   1.60247   3 ;     HX-    C2-   O21-   C21
  2763   2761   2790   2791      9     0.00  -0.41840   1 ;     C3-    C2-   O21-   C21
  2763   2766   2767   2768      9     0.00   2.51040   3 ;     C3-   O31-   P31-   O32
  2763   2766   2767   2768      9     0.00   9.62320   2 ;     C3-   O31-   P31-   O32
  2763   2766   2767   2788      9     0.00   0.00000   0 ;     C3-   O31-   P31-   O33
  2763   2766   2767   2788      9     0.00   0.00000   0 ;     C3-   O31-   P31-   O33
  2763   2766   2767   2788      9     0.00   0.00000   0 ;     C3-   O31-   P31-   O33
  2763   2766   2767   2788      9     0.00   0.00000   0 ;     C3-   O31-   P31-   O33
  2763   2766   2767   2788      9     0.00   0.83680   2 ;     C3-   O31-   P31-   O33
  2763   2766   2767   2789      9     0.00   0.00000   0 ;     C3-   O31-   P31-   O34
  2763   2766   2767   2789      9     0.00   0.00000   0 ;     C3-   O31-   P31-   O34
  2763   2766   2767   2789      9     0.00   0.00000   0 ;     C3-   O31-   P31-   O34
  2763   2766   2767   2789      9     0.00   0.00000   0 ;     C3-   O31-   P31-   O34
  2763   2766   2767   2789      9     0.00   0.83680   2 ;     C3-   O31-   P31-   O34
  2764   2763   2761   2790      9     0.00   0.00000   0 ;     HA-    C3-    C2-   O21
  2764   2763   2761   2790      9     0.00   1.04600   1 ;     HA-    C3-    C2-   O21
  2764   2763   2766   2767      9     0.00   0.00000   0 ;     HA-    C3-   O31-   P31
  2764   2763   2766   2767      9     0.00   0.00000   0 ;     HA-    C3-   O31-   P31
  2764   2763   2766   2767      9     0.00   0.00000   0 ;     HA-    C3-   O31-   P31
  2764   2763   2766   2767      9     0.00   0.00000   0 ;     HA-    C3-   O31-   P31
  2764   2763   2766   2767      9     0.00   1.60247   3 ;     HA-    C3-   O31-   P31
  2765   2763   2761   2790      9     0.00   0.00000   0 ;     HB-    C3-    C2-   O21
  2765   2763   2761   2790      9     0.00   1.04600   1 ;     HB-    C3-    C2-   O21
  2765   2763   2766   2767      9     0.00   0.00000   0 ;     HB-    C3-   O31-   P31
  2765   2763   2766   2767      9     0.00   0.00000   0 ;     HB-    C3-   O31-   P31
  2765   2763   2766   2767      9     0.00   0.00000   0 ;     HB-    C3-   O31-   P31
  2765   2763   2766   2767      9     0.00   0.00000   0 ;     HB-    C3-   O31-   P31
  2765   2763   2766   2767      9     0.00   1.60247   3 ;     HB-    C3-   O31-   P31
  2766   2763   2761   2790      9     0.00   0.00000   0 ;    O31-    C3-    C2-   O21
  2766   2763   2761   2790      9     0.00   0.00000   0 ;    O31-    C3-    C2-   O21
  2766   2763   2761   2790      9     0.00   0.00000   0 ;    O31-    C3-    C2-   O21
  2766   2763   2761   2790      9     0.00   0.00000   0 ;    O31-    C3-    C2-   O21
  2766   2763   2761   2790      9     0.00   0.00000   0 ;    O31-    C3-    C2-   O21
  2766   2767   2768   2769      9     0.00   2.51040   3 ;    O31-   P31-   O32-   C31
  2766   2767   2768   2769      9     0.00   9.62320   2 ;    O31-   P31-   O32-   C31
  2767   2768   2769   2770      9     0.00   0.00000   0 ;    P31-   O32-   C31-   H1A
  2767   2768   2769   2770      9     0.00   0.00000   0 ;    P31-   O32-   C31-   H1A
  2767   2768   2769   2770      9     0.00   0.00000   0 ;    P31-   O32-   C31-   H1A
  2767   2768   2769   2770      9     0.00   0.00000   0 ;    P31-   O32-   C31-   H1A
  2767   2768   2769   2770      9     0.00   1.60247   3 ;    P31-   O32-   C31-   H1A
  2767   2768   2769   2771      9     0.00   0.00000   0 ;    P31-   O32-   C31-   H1B
  2767   2768   2769   2771      9     0.00   0.00000   0 ;    P31-   O32-   C31-   H1B
  2767   2768   2769   2771      9     0.00   0.00000   0 ;    P31-   O32-   C31-   H1B
  2767   2768   2769   2771      9     0.00   0.00000   0 ;    P31-   O32-   C31-   H1B
  2767   2768   2769   2771      9     0.00   1.60247   3 ;    P31-   O32-   C31-   H1B
  2767   2768   2769   2772      9     0.00   0.00000   0 ;    P31-   O32-   C31-   C32
  2767   2768   2769   2772      9   180.00  -3.34720   2 ;    P31-   O32-   C31-   C32
  2768   2769   2772   2773      9     0.00   0.65270   3 ;    O32-   C31-   C32-   H2A
  2768   2769   2772   2774      9     0.00   0.65270   3 ;    O32-   C31-   C32-   H2B
  2768   2769   2772   2775      9     0.00   4.18400   3 ;    O32-   C31-   C32-   N31
  2769   2768   2767   2788      9     0.00   0.00000   0 ;    C31-   O32-   P31-   O33
  2769   2768   2767   2788      9     0.00   0.00000   0 ;    C31-   O32-   P31-   O33
  2769   2768   2767   2788      9     0.00   0.00000   0 ;    C31-   O32-   P31-   O33
  2769   2768   2767   2788      9     0.00   0.00000   0 ;    C31-   O32-   P31-   O33
  2769   2768   2767   2788      9     0.00   0.83680   2 ;    C31-   O32-   P31-   O33
  2769   2768   2767   2789      9     0.00   0.00000   0 ;    C31-   O32-   P31-   O34
  2769   2768   2767   2789      9     0.00   0.00000   0 ;    C31-   O32-   P31-   O34
  2769   2768   2767   2789      9     0.00   0.00000   0 ;    C31-   O32-   P31-   O34
  2769   2768   2767   2789      9     0.00   0.00000   0 ;    C31-   O32-   P31-   O34
  2769   2768   2767   2789      9     0.00   0.83680   2 ;    C31-   O32-   P31-   O34
  2769   2772   2775   2776      9     0.00   0.65270   3 ;    C31-   C32-   N31-   C33
  2769   2772   2775   2780      9     0.00   0.65270   3 ;    C31-   C32-   N31-   C34
  2769   2772   2775   2784      9     0.00   0.65270   3 ;    C31-   C32-   N31-   C35
  2770   2769   2772   2773      9     0.00   0.65270   3 ;    H1A-   C31-   C32-   H2A
  2770   2769   2772   2774      9     0.00   0.65270   3 ;    H1A-   C31-   C32-   H2B
  2770   2769   2772   2775      9     0.00   0.65270   3 ;    H1A-   C31-   C32-   N31
  2771   2769   2772   2773      9     0.00   0.65270   3 ;    H1B-   C31-   C32-   H2A
  2771   2769   2772   2774      9     0.00   0.65270   3 ;    H1B-   C31-   C32-   H2B
  2771   2769   2772   2775      9     0.00   0.65270   3 ;    H1B-   C31-   C32-   N31
  2772   2775   2776   2777      9     0.00   0.65270   3 ;    C32-   N31-   C33-   H3A
  2772   2775   2776   2778      9     0.00   0.65270   3 ;    C32-   N31-   C33-   H3B
  2772   2775   2776   2779      9     0.00   0.65270   3 ;    C32-   N31-   C33-   H3C
  2772   2775   2780   2781      9     0.00   0.65270   3 ;    C32-   N31-   C34-   H4A
  2772   2775   2780   2782      9     0.00   0.65270   3 ;    C32-   N31-   C34-   H4B
  2772   2775   2780   2783      9     0.00   0.65270   3 ;    C32-   N31-   C34-   H4C
  2772   2775   2784   2785      9     0.00   0.65270   3 ;    C32-   N31-   C35-   H5A
  2772   2775   2784   2786      9     0.00   0.65270   3 ;    C32-   N31-   C35-   H5B
  2772   2775   2784   2787      9     0.00   0.65270   3 ;    C32-   N31-   C35-   H5C
  2773   2772   2775   2776      9     0.00   0.65270   3 ;    H2A-   C32-   N31-   C33
  2773   2772   2775   2780      9     0.00   0.65270   3 ;    H2A-   C32-   N31-   C34
  2773   2772   2775   2784      9     0.00   0.65270   3 ;    H2A-   C32-   N31-   C35
  2774   2772   2775   2776      9     0.00   0.65270   3 ;    H2B-   C32-   N31-   C33
  2774   2772   2775   2780      9     0.00   0.65270   3 ;    H2B-   C32-   N31-   C34
  2774   2772   2775   2784      9     0.00   0.65270   3 ;    H2B-   C32-   N31-   C35
  2776   2775   2780   2781      9     0.00   0.65270   3 ;    C33-   N31-   C34-   H4A
  2776   2775   2780   2782      9     0.00   0.65270   3 ;    C33-   N31-   C34-   H4B
  2776   2775   2780   2783      9     0.00   0.65270   3 ;    C33-   N31-   C34-   H4C
  2776   2775   2784   2785      9     0.00   0.65270   3 ;    C33-   N31-   C35-   H5A
  2776   2775   2784   2786      9     0.00   0.65270   3 ;    C33-   N31-   C35-   H5B
  2776   2775   2784   2787      9     0.00   0.65270   3 ;    C33-   N31-   C35-   H5C
  2777   2776   2775   2780      9     0.00   0.65270   3 ;    H3A-   C33-   N31-   C34
  2777   2776   2775   2784      9     0.00   0.65270   3 ;    H3A-   C33-   N31-   C35
  2778   2776   2775   2780      9     0.00   0.65270   3 ;    H3B-   C33-   N31-   C34
  2778   2776   2775   2784      9     0.00   0.65270   3 ;    H3B-   C33-   N31-   C35
  2779   2776   2775   2780      9     0.00   0.65270   3 ;    H3C-   C33-   N31-   C34
  2779   2776   2775   2784      9     0.00   0.65270   3 ;    H3C-   C33-   N31-   C35
  2780   2775   2784   2785      9     0.00   0.65270   3 ;    C34-   N31-   C35-   H5A
  2780   2775   2784   2786      9     0.00   0.65270   3 ;    C34-   N31-   C35-   H5B
  2780   2775   2784   2787      9     0.00   0.65270   3 ;    C34-   N31-   C35-   H5C
  2781   2780   2775   2784      9     0.00   0.65270   3 ;    H4A-   C34-   N31-   C35
  2782   2780   2775   2784      9     0.00   0.65270   3 ;    H4B-   C34-   N31-   C35
  2783   2780   2775   2784      9     0.00   0.65270   3 ;    H4C-   C34-   N31-   C35
  2790   2791   2830   2827      9   180.00   0.00000   2 ;    O21-   C21-   C12-   C13
  2790   2791   2830   2831      9   180.00   0.00000   2 ;    O21-   C21-   C12-   H2R
  2790   2791   2830   2832      9   180.00   0.00000   2 ;    O21-   C21-   C12-   H2S
  2791   2830   2827   2824      9     0.00   0.65270   3 ;    C21-   C12-   C13-   C14
  2791   2830   2827   2828      9     0.00   0.65270   3 ;    C21-   C12-   C13-   H3R
  2791   2830   2827   2829      9     0.00   0.65270   3 ;    C21-   C12-   C13-   H3S
  2792   2791   2830   2827      9   180.00   0.00000   2 ;    O22-   C21-   C12-   C13
  2792   2791   2830   2831      9     0.00   3.34720   1 ;    O22-   C21-   C12-   H2R
  2792   2791   2830   2831      9   180.00   0.33472   3 ;    O22-   C21-   C12-   H2R
  2792   2791   2830   2832      9     0.00   3.34720   1 ;    O22-   C21-   C12-   H2S
  2792   2791   2830   2832      9   180.00   0.33472   3 ;    O22-   C21-   C12-   H2S
  2793   2794   2797   2798      9     0.00   0.62760   3 ;   H14T-  C114-  C113-  H13R
  2793   2794   2797   2799      9     0.00   0.62760   3 ;   H14T-  C114-  C113-  H13S
  2793   2794   2797   2800      9     0.00   0.66944   3 ;   H14T-  C114-  C113-  C112
  2794   2797   2800   2801      9     0.00   0.66944   3 ;   C114-  C113-  C112-  H12R
  2794   2797   2800   2802      9     0.00   0.66944   3 ;   C114-  C113-  C112-  H12S
  2794   2797   2800   2803      9     0.00   0.41840   1 ;   C114-  C113-  C112-  C111
  2794   2797   2800   2803      9     0.00   0.41840   2 ;   C114-  C113-  C112-  C111
  2794   2797   2800   2803      9     0.00   0.41840   4 ;   C114-  C113-  C112-  C111
  2794   2797   2800   2803      9     0.00   0.41840   5 ;   C114-  C113-  C112-  C111
  2794   2797   2800   2803      9     0.00   1.25520   3 ;   C114-  C113-  C112-  C111
  2795   2794   2797   2798      9     0.00   0.62760   3 ;   H14R-  C114-  C113-  H13R
  2795   2794   2797   2799      9     0.00   0.62760   3 ;   H14R-  C114-  C113-  H13S
  2795   2794   2797   2800      9     0.00   0.66944   3 ;   H14R-  C114-  C113-  C112
  2796   2794   2797   2798      9     0.00   0.62760   3 ;   H14S-  C114-  C113-  H13R
  2796   2794   2797   2799      9     0.00   0.62760   3 ;   H14S-  C114-  C113-  H13S
  2796   2794   2797   2800      9     0.00   0.66944   3 ;   H14S-  C114-  C113-  C112
  2797   2800   2803   2804      9     0.00   0.66944   3 ;   C113-  C112-  C111-  H11R
  2797   2800   2803   2805      9     0.00   0.66944   3 ;   C113-  C112-  C111-  H11S
  2797   2800   2803   2806      9     0.00   0.41840   1 ;   C113-  C112-  C111-  C110
  2797   2800   2803   2806      9     0.00   0.41840   2 ;   C113-  C112-  C111-  C110
  2797   2800   2803   2806      9     0.00   0.41840   4 ;   C113-  C112-  C111-  C110
  2797   2800   2803   2806      9     0.00   0.41840   5 ;   C113-  C112-  C111-  C110
  2797   2800   2803   2806      9     0.00   1.25520   3 ;   C113-  C112-  C111-  C110
  2798   2797   2800   2801      9     0.00   0.62760   3 ;   H13R-  C113-  C112-  H12R
  2798   2797   2800   2802      9     0.00   0.62760   3 ;   H13R-  C113-  C112-  H12S
  2798   2797   2800   2803      9     0.00   0.66944   3 ;   H13R-  C113-  C112-  C111
  2799   2797   2800   2801      9     0.00   0.62760   3 ;   H13S-  C113-  C112-  H12R
  2799   2797   2800   2802      9     0.00   0.62760   3 ;   H13S-  C113-  C112-  H12S
  2799   2797   2800   2803      9     0.00   0.66944   3 ;   H13S-  C113-  C112-  C111
  2800   2803   2806   2807      9     0.00   0.66944   3 ;   C112-  C111-  C110-  H10R
  2800   2803   2806   2808      9     0.00   0.66944   3 ;   C112-  C111-  C110-  H10S
  2800   2803   2806   2809      9     0.00   0.41840   1 ;   C112-  C111-  C110-   C19
  2800   2803   2806   2809      9     0.00   0.41840   2 ;   C112-  C111-  C110-   C19
  2800   2803   2806   2809      9     0.00   0.41840   4 ;   C112-  C111-  C110-   C19
  2800   2803   2806   2809      9     0.00   0.41840   5 ;   C112-  C111-  C110-   C19
  2800   2803   2806   2809      9     0.00   1.25520   3 ;   C112-  C111-  C110-   C19
  2801   2800   2803   2804      9     0.00   0.62760   3 ;   H12R-  C112-  C111-  H11R
  2801   2800   2803   2805      9     0.00   0.62760   3 ;   H12R-  C112-  C111-  H11S
  2801   2800   2803   2806      9     0.00   0.66944   3 ;   H12R-  C112-  C111-  C110
  2802   2800   2803   2804      9     0.00   0.62760   3 ;   H12S-  C112-  C111-  H11R
  2802   2800   2803   2805      9     0.00   0.62760   3 ;   H12S-  C112-  C111-  H11S
  2802   2800   2803   2806      9     0.00   0.66944   3 ;   H12S-  C112-  C111-  C110
  2803   2806   2809   2810      9     0.00   0.66944   3 ;   C111-  C110-   C19-   H9R
  2803   2806   2809   2811      9     0.00   0.66944   3 ;   C111-  C110-   C19-   H9S
  2803   2806   2809   2812      9     0.00   0.41840   1 ;   C111-  C110-   C19-   C18
  2803   2806   2809   2812      9     0.00   0.41840   2 ;   C111-  C110-   C19-   C18
  2803   2806   2809   2812      9     0.00   0.41840   4 ;   C111-  C110-   C19-   C18
  2803   2806   2809   2812      9     0.00   0.41840   5 ;   C111-  C110-   C19-   C18
  2803   2806   2809   2812      9     0.00   1.25520   3 ;   C111-  C110-   C19-   C18
  2804   2803   2806   2807      9     0.00   0.62760   3 ;   H11R-  C111-  C110-  H10R
  2804   2803   2806   2808      9     0.00   0.62760   3 ;   H11R-  C111-  C110-  H10S
  2804   2803   2806   2809      9     0.00   0.66944   3 ;   H11R-  C111-  C110-   C19
  2805   2803   2806   2807      9     0.00   0.62760   3 ;   H11S-  C111-  C110-  H10R
  2805   2803   2806   2808      9     0.00   0.62760   3 ;   H11S-  C111-  C110-  H10S
  2805   2803   2806   2809      9     0.00   0.66944   3 ;   H11S-  C111-  C110-   C19
  2806   2809   2812   2813      9     0.00   0.66944   3 ;   C110-   C19-   C18-   H8R
  2806   2809   2812   2814      9     0.00   0.66944   3 ;   C110-   C19-   C18-   H8S
  2806   2809   2812   2815      9     0.00   0.41840   1 ;   C110-   C19-   C18-   C17
  2806   2809   2812   2815      9     0.00   0.41840   2 ;   C110-   C19-   C18-   C17
  2806   2809   2812   2815      9     0.00   0.41840   4 ;   C110-   C19-   C18-   C17
  2806   2809   2812   2815      9     0.00   0.41840   5 ;   C110-   C19-   C18-   C17
  2806   2809   2812   2815      9     0.00   1.25520   3 ;   C110-   C19-   C18-   C17
  2807   2806   2809   2810      9     0.00   0.62760   3 ;   H10R-  C110-   C19-   H9R
  2807   2806   2809   2811      9     0.00   0.62760   3 ;   H10R-  C110-   C19-   H9S
  2807   2806   2809   2812      9     0.00   0.66944   3 ;   H10R-  C110-   C19-   C18
  2808   2806   2809   2810      9     0.00   0.62760   3 ;   H10S-  C110-   C19-   H9R
  2808   2806   2809   2811      9     0.00   0.62760   3 ;   H10S-  C110-   C19-   H9S
  2808   2806   2809   2812      9     0.00   0.66944   3 ;   H10S-  C110-   C19-   C18
  2809   2812   2815   2816      9     0.00   0.66944   3 ;    C19-   C18-   C17-   H7R
  2809   2812   2815   2817      9     0.00   0.66944   3 ;    C19-   C18-   C17-   H7S
  2809   2812   2815   2818      9     0.00   0.41840   1 ;    C19-   C18-   C17-   C16
  2809   2812   2815   2818      9     0.00   0.41840   2 ;    C19-   C18-   C17-   C16
  2809   2812   2815   2818      9     0.00   0.41840   4 ;    C19-   C18-   C17-   C16
  2809   2812   2815   2818      9     0.00   0.41840   5 ;    C19-   C18-   C17-   C16
  2809   2812   2815   2818      9     0.00   1.25520   3 ;    C19-   C18-   C17-   C16
  2810   2809   2812   2813      9     0.00   0.62760   3 ;    H9R-   C19-   C18-   H8R
  2810   2809   2812   2814      9     0.00   0.62760   3 ;    H9R-   C19-   C18-   H8S
  2810   2809   2812   2815      9     0.00   0.66944   3 ;    H9R-   C19-   C18-   C17
  2811   2809   2812   2813      9     0.00   0.62760   3 ;    H9S-   C19-   C18-   H8R
  2811   2809   2812   2814      9     0.00   0.62760   3 ;    H9S-   C19-   C18-   H8S
  2811   2809   2812   2815      9     0.00   0.66944   3 ;    H9S-   C19-   C18-   C17
  2812   2815   2818   2819      9     0.00   0.66944   3 ;    C18-   C17-   C16-   H6R
  2812   2815   2818   2820      9     0.00   0.66944   3 ;    C18-   C17-   C16-   H6S
  2812   2815   2818   2821      9     0.00   0.41840   1 ;    C18-   C17-   C16-   C15
  2812   2815   2818   2821      9     0.00   0.41840   2 ;    C18-   C17-   C16-   C15
  2812   2815   2818   2821      9     0.00   0.41840   4 ;    C18-   C17-   C16-   C15
  2812   2815   2818   2821      9     0.00   0.41840   5 ;    C18-   C17-   C16-   C15
  2812   2815   2818   2821      9     0.00   1.25520   3 ;    C18-   C17-   C16-   C15
  2813   2812   2815   2816      9     0.00   0.62760   3 ;    H8R-   C18-   C17-   H7R
  2813   2812   2815   2817      9     0.00   0.62760   3 ;    H8R-   C18-   C17-   H7S
  2813   2812   2815   2818      9     0.00   0.66944   3 ;    H8R-   C18-   C17-   C16
  2814   2812   2815   2816      9     0.00   0.62760   3 ;    H8S-   C18-   C17-   H7R
  2814   2812   2815   2817      9     0.00   0.62760   3 ;    H8S-   C18-   C17-   H7S
  2814   2812   2815   2818      9     0.00   0.66944   3 ;    H8S-   C18-   C17-   C16
  2815   2818   2821   2822      9     0.00   0.66944   3 ;    C17-   C16-   C15-   H5R
  2815   2818   2821   2823      9     0.00   0.66944   3 ;    C17-   C16-   C15-   H5S
  2815   2818   2821   2824      9     0.00   0.41840   1 ;    C17-   C16-   C15-   C14
  2815   2818   2821   2824      9     0.00   0.41840   2 ;    C17-   C16-   C15-   C14
  2815   2818   2821   2824      9     0.00   0.41840   4 ;    C17-   C16-   C15-   C14
  2815   2818   2821   2824      9     0.00   0.41840   5 ;    C17-   C16-   C15-   C14
  2815   2818   2821   2824      9     0.00   1.25520   3 ;    C17-   C16-   C15-   C14
  2816   2815   2818   2819      9     0.00   0.62760   3 ;    H7R-   C17-   C16-   H6R
  2816   2815   2818   2820      9     0.00   0.62760   3 ;    H7R-   C17-   C16-   H6S
  2816   2815   2818   2821      9     0.00   0.66944   3 ;    H7R-   C17-   C16-   C15
  2817   2815   2818   2819      9     0.00   0.62760   3 ;    H7S-   C17-   C16-   H6R
  2817   2815   2818   2820      9     0.00   0.62760   3 ;    H7S-   C17-   C16-   H6S
  2817   2815   2818   2821      9     0.00   0.66944   3 ;    H7S-   C17-   C16-   C15
  2818   2821   2824   2825      9     0.00   0.66944   3 ;    C16-   C15-   C14-   H4R
  2818   2821   2824   2826      9     0.00   0.66944   3 ;    C16-   C15-   C14-   H4S
  2818   2821   2824   2827      9     0.00   0.41840   1 ;    C16-   C15-   C14-   C13
  2818   2821   2824   2827      9     0.00   0.41840   2 ;    C16-   C15-   C14-   C13
  2818   2821   2824   2827      9     0.00   0.41840   4 ;    C16-   C15-   C14-   C13
  2818   2821   2824   2827      9     0.00   0.41840   5 ;    C16-   C15-   C14-   C13
  2818   2821   2824   2827      9     0.00   1.25520   3 ;    C16-   C15-   C14-   C13
  2819   2818   2821   2822      9     0.00   0.62760   3 ;    H6R-   C16-   C15-   H5R
  2819   2818   2821   2823      9     0.00   0.62760   3 ;    H6R-   C16-   C15-   H5S
  2819   2818   2821   2824      9     0.00   0.66944   3 ;    H6R-   C16-   C15-   C14
  2820   2818   2821   2822      9     0.00   0.62760   3 ;    H6S-   C16-   C15-   H5R
  2820   2818   2821   2823      9     0.00   0.62760   3 ;    H6S-   C16-   C15-   H5S
  2820   2818   2821   2824      9     0.00   0.66944   3 ;    H6S-   C16-   C15-   C14
  2821   2824   2827   2828      9     0.00   0.66944   3 ;    C15-   C14-   C13-   H3R
  2821   2824   2827   2829      9     0.00   0.66944   3 ;    C15-   C14-   C13-   H3S
  2821   2824   2827   2830      9     0.00   0.41840   1 ;    C15-   C14-   C13-   C12
  2821   2824   2827   2830      9     0.00   0.41840   2 ;    C15-   C14-   C13-   C12
  2821   2824   2827   2830      9     0.00   0.41840   4 ;    C15-   C14-   C13-   C12
  2821   2824   2827   2830      9     0.00   0.41840   5 ;    C15-   C14-   C13-   C12
  2821   2824   2827   2830      9     0.00   1.25520   3 ;    C15-   C14-   C13-   C12
  2822   2821   2824   2825      9     0.00   0.62760   3 ;    H5R-   C15-   C14-   H4R
  2822   2821   2824   2826      9     0.00   0.62760   3 ;    H5R-   C15-   C14-   H4S
  2822   2821   2824   2827      9     0.00   0.66944   3 ;    H5R-   C15-   C14-   C13
  2823   2821   2824   2825      9     0.00   0.62760   3 ;    H5S-   C15-   C14-   H4R
  2823   2821   2824   2826      9     0.00   0.62760   3 ;    H5S-   C15-   C14-   H4S
  2823   2821   2824   2827      9     0.00   0.66944   3 ;    H5S-   C15-   C14-   C13
  2824   2827   2830   2831      9     0.00   0.66944   3 ;    C14-   C13-   C12-   H2R
  2824   2827   2830   2832      9     0.00   0.66944   3 ;    C14-   C13-   C12-   H2S
  2825   2824   2827   2828      9     0.00   0.62760   3 ;    H4R-   C14-   C13-   H3R
  2825   2824   2827   2829      9     0.00   0.62760   3 ;    H4R-   C14-   C13-   H3S
  2825   2824   2827   2830      9     0.00   0.66944   3 ;    H4R-   C14-   C13-   C12
  2826   2824   2827   2828      9     0.00   0.62760   3 ;    H4S-   C14-   C13-   H3R
  2826   2824   2827   2829      9     0.00   0.62760   3 ;    H4S-   C14-   C13-   H3S
  2826   2824   2827   2830      9     0.00   0.66944   3 ;    H4S-   C14-   C13-   C12
  2828   2827   2830   2831      9     0.00   0.62760   3 ;    H3R-   C13-   C12-   H2R
  2828   2827   2830   2832      9     0.00   0.62760   3 ;    H3R-   C13-   C12-   H2S
  2829   2827   2830   2831      9     0.00   0.62760   3 ;    H3S-   C13-   C12-   H2R
  2829   2827   2830   2832      9     0.00   0.62760   3 ;    H3S-   C13-   C12-   H2S
  2833   2834   2837   2838      9     0.00   0.62760   3 ;   H14T-  C114-  C113-  H13R
  2833   2834   2837   2839      9     0.00   0.62760   3 ;   H14T-  C114-  C113-  H13S
  2833   2834   2837   2840      9     0.00   0.66944   3 ;   H14T-  C114-  C113-  C112
  2834   2837   2840   2841      9     0.00   0.66944   3 ;   C114-  C113-  C112-  H12R
  2834   2837   2840   2842      9     0.00   0.66944   3 ;   C114-  C113-  C112-  H12S
  2834   2837   2840   2843      9     0.00   0.41840   1 ;   C114-  C113-  C112-  C111
  2834   2837   2840   2843      9     0.00   0.41840   2 ;   C114-  C113-  C112-  C111
  2834   2837   2840   2843      9     0.00   0.41840   4 ;   C114-  C113-  C112-  C111
  2834   2837   2840   2843      9     0.00   0.41840   5 ;   C114-  C113-  C112-  C111
  2834   2837   2840   2843      9     0.00   1.25520   3 ;   C114-  C113-  C112-  C111
  2835   2834   2837   2838      9     0.00   0.62760   3 ;   H14R-  C114-  C113-  H13R
  2835   2834   2837   2839      9     0.00   0.62760   3 ;   H14R-  C114-  C113-  H13S
  2835   2834   2837   2840      9     0.00   0.66944   3 ;   H14R-  C114-  C113-  C112
  2836   2834   2837   2838      9     0.00   0.62760   3 ;   H14S-  C114-  C113-  H13R
  2836   2834   2837   2839      9     0.00   0.62760   3 ;   H14S-  C114-  C113-  H13S
  2836   2834   2837   2840      9     0.00   0.66944   3 ;   H14S-  C114-  C113-  C112
  2837   2840   2843   2844      9     0.00   0.66944   3 ;   C113-  C112-  C111-  H11R
  2837   2840   2843   2845      9     0.00   0.66944   3 ;   C113-  C112-  C111-  H11S
  2837   2840   2843   2846      9     0.00   0.41840   1 ;   C113-  C112-  C111-  C110
  2837   2840   2843   2846      9     0.00   0.41840   2 ;   C113-  C112-  C111-  C110
  2837   2840   2843   2846      9     0.00   0.41840   4 ;   C113-  C112-  C111-  C110
  2837   2840   2843   2846      9     0.00   0.41840   5 ;   C113-  C112-  C111-  C110
  2837   2840   2843   2846      9     0.00   1.25520   3 ;   C113-  C112-  C111-  C110
  2838   2837   2840   2841      9     0.00   0.62760   3 ;   H13R-  C113-  C112-  H12R
  2838   2837   2840   2842      9     0.00   0.62760   3 ;   H13R-  C113-  C112-  H12S
  2838   2837   2840   2843      9     0.00   0.66944   3 ;   H13R-  C113-  C112-  C111
  2839   2837   2840   2841      9     0.00   0.62760   3 ;   H13S-  C113-  C112-  H12R
  2839   2837   2840   2842      9     0.00   0.62760   3 ;   H13S-  C113-  C112-  H12S
  2839   2837   2840   2843      9     0.00   0.66944   3 ;   H13S-  C113-  C112-  C111
  2840   2843   2846   2847      9     0.00   0.66944   3 ;   C112-  C111-  C110-  H10R
  2840   2843   2846   2848      9     0.00   0.66944   3 ;   C112-  C111-  C110-  H10S
  2840   2843   2846   2849      9     0.00   0.41840   1 ;   C112-  C111-  C110-   C19
  2840   2843   2846   2849      9     0.00   0.41840   2 ;   C112-  C111-  C110-   C19
  2840   2843   2846   2849      9     0.00   0.41840   4 ;   C112-  C111-  C110-   C19
  2840   2843   2846   2849      9     0.00   0.41840   5 ;   C112-  C111-  C110-   C19
  2840   2843   2846   2849      9     0.00   1.25520   3 ;   C112-  C111-  C110-   C19
  2841   2840   2843   2844      9     0.00   0.62760   3 ;   H12R-  C112-  C111-  H11R
  2841   2840   2843   2845      9     0.00   0.62760   3 ;   H12R-  C112-  C111-  H11S
  2841   2840   2843   2846      9     0.00   0.66944   3 ;   H12R-  C112-  C111-  C110
  2842   2840   2843   2844      9     0.00   0.62760   3 ;   H12S-  C112-  C111-  H11R
  2842   2840   2843   2845      9     0.00   0.62760   3 ;   H12S-  C112-  C111-  H11S
  2842   2840   2843   2846      9     0.00   0.66944   3 ;   H12S-  C112-  C111-  C110
  2843   2846   2849   2850      9     0.00   0.66944   3 ;   C111-  C110-   C19-   H9R
  2843   2846   2849   2851      9     0.00   0.66944   3 ;   C111-  C110-   C19-   H9S
  2843   2846   2849   2852      9     0.00   0.41840   1 ;   C111-  C110-   C19-   C18
  2843   2846   2849   2852      9     0.00   0.41840   2 ;   C111-  C110-   C19-   C18
  2843   2846   2849   2852      9     0.00   0.41840   4 ;   C111-  C110-   C19-   C18
  2843   2846   2849   2852      9     0.00   0.41840   5 ;   C111-  C110-   C19-   C18
  2843   2846   2849   2852      9     0.00   1.25520   3 ;   C111-  C110-   C19-   C18
  2844   2843   2846   2847      9     0.00   0.62760   3 ;   H11R-  C111-  C110-  H10R
  2844   2843   2846   2848      9     0.00   0.62760   3 ;   H11R-  C111-  C110-  H10S
  2844   2843   2846   2849      9     0.00   0.66944   3 ;   H11R-  C111-  C110-   C19
  2845   2843   2846   2847      9     0.00   0.62760   3 ;   H11S-  C111-  C110-  H10R
  2845   2843   2846   2848      9     0.00   0.62760   3 ;   H11S-  C111-  C110-  H10S
  2845   2843   2846   2849      9     0.00   0.66944   3 ;   H11S-  C111-  C110-   C19
  2846   2849   2852   2853      9     0.00   0.66944   3 ;   C110-   C19-   C18-   H8R
  2846   2849   2852   2854      9     0.00   0.66944   3 ;   C110-   C19-   C18-   H8S
  2846   2849   2852   2855      9     0.00   0.41840   1 ;   C110-   C19-   C18-   C17
  2846   2849   2852   2855      9     0.00   0.41840   2 ;   C110-   C19-   C18-   C17
  2846   2849   2852   2855      9     0.00   0.41840   4 ;   C110-   C19-   C18-   C17
  2846   2849   2852   2855      9     0.00   0.41840   5 ;   C110-   C19-   C18-   C17
  2846   2849   2852   2855      9     0.00   1.25520   3 ;   C110-   C19-   C18-   C17
  2847   2846   2849   2850      9     0.00   0.62760   3 ;   H10R-  C110-   C19-   H9R
  2847   2846   2849   2851      9     0.00   0.62760   3 ;   H10R-  C110-   C19-   H9S
  2847   2846   2849   2852      9     0.00   0.66944   3 ;   H10R-  C110-   C19-   C18
  2848   2846   2849   2850      9     0.00   0.62760   3 ;   H10S-  C110-   C19-   H9R
  2848   2846   2849   2851      9     0.00   0.62760   3 ;   H10S-  C110-   C19-   H9S
  2848   2846   2849   2852      9     0.00   0.66944   3 ;   H10S-  C110-   C19-   C18
  2849   2852   2855   2856      9     0.00   0.66944   3 ;    C19-   C18-   C17-   H7R
  2849   2852   2855   2857      9     0.00   0.66944   3 ;    C19-   C18-   C17-   H7S
  2849   2852   2855   2858      9     0.00   0.41840   1 ;    C19-   C18-   C17-   C16
  2849   2852   2855   2858      9     0.00   0.41840   2 ;    C19-   C18-   C17-   C16
  2849   2852   2855   2858      9     0.00   0.41840   4 ;    C19-   C18-   C17-   C16
  2849   2852   2855   2858      9     0.00   0.41840   5 ;    C19-   C18-   C17-   C16
  2849   2852   2855   2858      9     0.00   1.25520   3 ;    C19-   C18-   C17-   C16
  2850   2849   2852   2853      9     0.00   0.62760   3 ;    H9R-   C19-   C18-   H8R
  2850   2849   2852   2854      9     0.00   0.62760   3 ;    H9R-   C19-   C18-   H8S
  2850   2849   2852   2855      9     0.00   0.66944   3 ;    H9R-   C19-   C18-   C17
  2851   2849   2852   2853      9     0.00   0.62760   3 ;    H9S-   C19-   C18-   H8R
  2851   2849   2852   2854      9     0.00   0.62760   3 ;    H9S-   C19-   C18-   H8S
  2851   2849   2852   2855      9     0.00   0.66944   3 ;    H9S-   C19-   C18-   C17
  2852   2855   2858   2859      9     0.00   0.66944   3 ;    C18-   C17-   C16-   H6R
  2852   2855   2858   2860      9     0.00   0.66944   3 ;    C18-   C17-   C16-   H6S
  2852   2855   2858   2861      9     0.00   0.41840   1 ;    C18-   C17-   C16-   C15
  2852   2855   2858   2861      9     0.00   0.41840   2 ;    C18-   C17-   C16-   C15
  2852   2855   2858   2861      9     0.00   0.41840   4 ;    C18-   C17-   C16-   C15
  2852   2855   2858   2861      9     0.00   0.41840   5 ;    C18-   C17-   C16-   C15
  2852   2855   2858   2861      9     0.00   1.25520   3 ;    C18-   C17-   C16-   C15
  2853   2852   2855   2856      9     0.00   0.62760   3 ;    H8R-   C18-   C17-   H7R
  2853   2852   2855   2857      9     0.00   0.62760   3 ;    H8R-   C18-   C17-   H7S
  2853   2852   2855   2858      9     0.00   0.66944   3 ;    H8R-   C18-   C17-   C16
  2854   2852   2855   2856      9     0.00   0.62760   3 ;    H8S-   C18-   C17-   H7R
  2854   2852   2855   2857      9     0.00   0.62760   3 ;    H8S-   C18-   C17-   H7S
  2854   2852   2855   2858      9     0.00   0.66944   3 ;    H8S-   C18-   C17-   C16
  2855   2858   2861   2862      9     0.00   0.66944   3 ;    C17-   C16-   C15-   H5R
  2855   2858   2861   2863      9     0.00   0.66944   3 ;    C17-   C16-   C15-   H5S
  2855   2858   2861   2864      9     0.00   0.41840   1 ;    C17-   C16-   C15-   C14
  2855   2858   2861   2864      9     0.00   0.41840   2 ;    C17-   C16-   C15-   C14
  2855   2858   2861   2864      9     0.00   0.41840   4 ;    C17-   C16-   C15-   C14
  2855   2858   2861   2864      9     0.00   0.41840   5 ;    C17-   C16-   C15-   C14
  2855   2858   2861   2864      9     0.00   1.25520   3 ;    C17-   C16-   C15-   C14
  2856   2855   2858   2859      9     0.00   0.62760   3 ;    H7R-   C17-   C16-   H6R
  2856   2855   2858   2860      9     0.00   0.62760   3 ;    H7R-   C17-   C16-   H6S
  2856   2855   2858   2861      9     0.00   0.66944   3 ;    H7R-   C17-   C16-   C15
  2857   2855   2858   2859      9     0.00   0.62760   3 ;    H7S-   C17-   C16-   H6R
  2857   2855   2858   2860      9     0.00   0.62760   3 ;    H7S-   C17-   C16-   H6S
  2857   2855   2858   2861      9     0.00   0.66944   3 ;    H7S-   C17-   C16-   C15
  2858   2861   2864   2865      9     0.00   0.66944   3 ;    C16-   C15-   C14-   H4R
  2858   2861   2864   2866      9     0.00   0.66944   3 ;    C16-   C15-   C14-   H4S
  2858   2861   2864   2867      9     0.00   0.41840   1 ;    C16-   C15-   C14-   C13
  2858   2861   2864   2867      9     0.00   0.41840   2 ;    C16-   C15-   C14-   C13
  2858   2861   2864   2867      9     0.00   0.41840   4 ;    C16-   C15-   C14-   C13
  2858   2861   2864   2867      9     0.00   0.41840   5 ;    C16-   C15-   C14-   C13
  2858   2861   2864   2867      9     0.00   1.25520   3 ;    C16-   C15-   C14-   C13
  2859   2858   2861   2862      9     0.00   0.62760   3 ;    H6R-   C16-   C15-   H5R
  2859   2858   2861   2863      9     0.00   0.62760   3 ;    H6R-   C16-   C15-   H5S
  2859   2858   2861   2864      9     0.00   0.66944   3 ;    H6R-   C16-   C15-   C14
  2860   2858   2861   2862      9     0.00   0.62760   3 ;    H6S-   C16-   C15-   H5R
  2860   2858   2861   2863      9     0.00   0.62760   3 ;    H6S-   C16-   C15-   H5S
  2860   2858   2861   2864      9     0.00   0.66944   3 ;    H6S-   C16-   C15-   C14
  2861   2864   2867   2868      9     0.00   0.66944   3 ;    C15-   C14-   C13-   H3R
  2861   2864   2867   2869      9     0.00   0.66944   3 ;    C15-   C14-   C13-   H3S
  2861   2864   2867   2870      9     0.00   0.41840   1 ;    C15-   C14-   C13-   C12
  2861   2864   2867   2870      9     0.00   0.41840   2 ;    C15-   C14-   C13-   C12
  2861   2864   2867   2870      9     0.00   0.41840   4 ;    C15-   C14-   C13-   C12
  2861   2864   2867   2870      9     0.00   0.41840   5 ;    C15-   C14-   C13-   C12
  2861   2864   2867   2870      9     0.00   1.25520   3 ;    C15-   C14-   C13-   C12
  2862   2861   2864   2865      9     0.00   0.62760   3 ;    H5R-   C15-   C14-   H4R
  2862   2861   2864   2866      9     0.00   0.62760   3 ;    H5R-   C15-   C14-   H4S
  2862   2861   2864   2867      9     0.00   0.66944   3 ;    H5R-   C15-   C14-   C13
  2863   2861   2864   2865      9     0.00   0.62760   3 ;    H5S-   C15-   C14-   H4R
  2863   2861   2864   2866      9     0.00   0.62760   3 ;    H5S-   C15-   C14-   H4S
  2863   2861   2864   2867      9     0.00   0.66944   3 ;    H5S-   C15-   C14-   C13
  2864   2867   2870   2871      9     0.00   0.66944   3 ;    C14-   C13-   C12-   H2R
  2864   2867   2870   2872      9     0.00   0.66944   3 ;    C14-   C13-   C12-   H2S
  2864   2867   2870   2873      9     0.00   0.65270   3 ;    C14-   C13-   C12-   C11
  2865   2864   2867   2868      9     0.00   0.62760   3 ;    H4R-   C14-   C13-   H3R
  2865   2864   2867   2869      9     0.00   0.62760   3 ;    H4R-   C14-   C13-   H3S
  2865   2864   2867   2870      9     0.00   0.66944   3 ;    H4R-   C14-   C13-   C12
  2866   2864   2867   2868      9     0.00   0.62760   3 ;    H4S-   C14-   C13-   H3R
  2866   2864   2867   2869      9     0.00   0.62760   3 ;    H4S-   C14-   C13-   H3S
  2866   2864   2867   2870      9     0.00   0.66944   3 ;    H4S-   C14-   C13-   C12
  2867   2870   2873   2874      9   180.00   0.00000   2 ;    C13-   C12-   C11-   O12
  2867   2870   2873   2875      9   180.00   0.00000   2 ;    C13-   C12-   C11-   O11
  2868   2867   2870   2871      9     0.00   0.62760   3 ;    H3R-   C13-   C12-   H2R
  2868   2867   2870   2872      9     0.00   0.62760   3 ;    H3R-   C13-   C12-   H2S
  2868   2867   2870   2873      9     0.00   0.65270   3 ;    H3R-   C13-   C12-   C11
  2869   2867   2870   2871      9     0.00   0.62760   3 ;    H3S-   C13-   C12-   H2R
  2869   2867   2870   2872      9     0.00   0.62760   3 ;    H3S-   C13-   C12-   H2S
  2869   2867   2870   2873      9     0.00   0.65270   3 ;    H3S-   C13-   C12-   C11
  2870   2873   2875   2876      9   180.00  11.29680   2 ;    C12-   C11-   O11-    C1
  2871   2870   2873   2874      9     0.00   3.34720   1 ;    H2R-   C12-   C11-   O12
  2871   2870   2873   2874      9   180.00   0.33472   3 ;    H2R-   C12-   C11-   O12
  2871   2870   2873   2875      9   180.00   0.00000   2 ;    H2R-   C12-   C11-   O11
  2872   2870   2873   2874      9     0.00   3.34720   1 ;    H2S-   C12-   C11-   O12
  2872   2870   2873   2874      9   180.00   0.33472   3 ;    H2S-   C12-   C11-   O12
  2872   2870   2873   2875      9   180.00   0.00000   2 ;    H2S-   C12-   C11-   O11
  2873   2875   2876   2877      9     0.00   1.60247   3 ;    C11-   O11-    C1-    HR
  2873   2875   2876   2878      9     0.00   1.60247   3 ;    C11-   O11-    C1-    HS
  2873   2875   2876   2879      9     0.00  -0.41840   1 ;    C11-   O11-    C1-    C2
  2874   2873   2875   2876      9   180.00   5.85760   1 ;    O12-   C11-   O11-    C1
  2874   2873   2875   2876      9   180.00  11.29680   2 ;    O12-   C11-   O11-    C1
  2875   2876   2879   2880      9     0.00   0.00000   0 ;    O11-    C1-    C2-    HX
  2875   2876   2879   2880      9     0.00   1.04600   1 ;    O11-    C1-    C2-    HX
  2875   2876   2879   2881      9     0.00   0.00000   0 ;    O11-    C1-    C2-    C3
  2875   2876   2879   2881      9     0.00   0.00000   0 ;    O11-    C1-    C2-    C3
  2875   2876   2879   2881      9     0.00   0.00000   0 ;    O11-    C1-    C2-    C3
  2875   2876   2879   2881      9     0.00   0.00000   0 ;    O11-    C1-    C2-    C3
  2875   2876   2879   2881      9     0.00   0.00000   0 ;    O11-    C1-    C2-    C3
  2875   2876   2879   2908      9     0.00   1.25520   2 ;    O11-    C1-    C2-   O21
  2875   2876   2879   2908      9     0.00   4.18400   3 ;    O11-    C1-    C2-   O21
  2875   2876   2879   2908      9   180.00  -0.41840   1 ;    O11-    C1-    C2-   O21
  2876   2879   2881   2882      9     0.00   0.65270   3 ;     C1-    C2-    C3-    HA
  2876   2879   2881   2883      9     0.00   0.65270   3 ;     C1-    C2-    C3-    HB
  2876   2879   2881   2884      9   180.00   3.34720   1 ;     C1-    C2-    C3-   O31
  2876   2879   2908   2909      9     0.00  -0.41840   1 ;     C1-    C2-   O21-   C21
  2877   2876   2879   2880      9     0.00   0.65270   3 ;     HR-    C1-    C2-    HX
  2877   2876   2879   2881      9     0.00   0.65270   3 ;     HR-    C1-    C2-    C3
  2877   2876   2879   2908      9     0.00   0.00000   0 ;     HR-    C1-    C2-   O21
  2877   2876   2879   2908      9     0.00   1.04600   1 ;     HR-    C1-    C2-   O21
  2878   2876   2879   2880      9     0.00   0.65270   3 ;     HS-    C1-    C2-    HX
  2878   2876   2879   2881      9     0.00   0.65270   3 ;     HS-    C1-    C2-    C3
  2878   2876   2879   2908      9     0.00   0.00000   0 ;     HS-    C1-    C2-   O21
  2878   2876   2879   2908      9     0.00   1.04600   1 ;     HS-    C1-    C2-   O21
  2879   2881   2884   2885      9     0.00   0.00000   0 ;     C2-    C3-   O31-   P31
  2879   2881   2884   2885      9   180.00  -3.34720   2 ;     C2-    C3-   O31-   P31
  2879   2908   2909   2910      9   180.00   5.85760   1 ;     C2-   O21-   C21-   O22
  2879   2908   2909   2910      9   180.00  11.29680   2 ;     C2-   O21-   C21-   O22
  2879   2908   2909   2948      9   180.00  11.29680   2 ;     C2-   O21-   C21-   C12
  2880   2879   2881   2882      9     0.00   0.65270   3 ;     HX-    C2-    C3-    HA
  2880   2879   2881   2883      9     0.00   0.65270   3 ;     HX-    C2-    C3-    HB
  2880   2879   2881   2884      9     0.00   0.00000   0 ;     HX-    C2-    C3-   O31
  2880   2879   2881   2884      9     0.00   1.04600   1 ;     HX-    C2-    C3-   O31
  2880   2879   2908   2909      9     0.00   1.60247   3 ;     HX-    C2-   O21-   C21
  2881   2879   2908   2909      9     0.00  -0.41840   1 ;     C3-    C2-   O21-   C21
  2881   2884   2885   2886      9     0.00   2.51040   3 ;     C3-   O31-   P31-   O32
  2881   2884   2885   2886      9     0.00   9.62320   2 ;     C3-   O31-   P31-   O32
  2881   2884   2885   2906      9     0.00   0.00000   0 ;     C3-   O31-   P31-   O33
  2881   2884   2885   2906      9     0.00   0.00000   0 ;     C3-   O31-   P31-   O33
  2881   2884   2885   2906      9     0.00   0.00000   0 ;     C3-   O31-   P31-   O33
  2881   2884   2885   2906      9     0.00   0.00000   0 ;     C3-   O31-   P31-   O33
  2881   2884   2885   2906      9     0.00   0.83680   2 ;     C3-   O31-   P31-   O33
  2881   2884   2885   2907      9     0.00   0.00000   0 ;     C3-   O31-   P31-   O34
  2881   2884   2885   2907      9     0.00   0.00000   0 ;     C3-   O31-   P31-   O34
  2881   2884   2885   2907      9     0.00   0.00000   0 ;     C3-   O31-   P31-   O34
  2881   2884   2885   2907      9     0.00   0.00000   0 ;     C3-   O31-   P31-   O34
  2881   2884   2885   2907      9     0.00   0.83680   2 ;     C3-   O31-   P31-   O34
  2882   2881   2879   2908      9     0.00   0.00000   0 ;     HA-    C3-    C2-   O21
  2882   2881   2879   2908      9     0.00   1.04600   1 ;     HA-    C3-    C2-   O21
  2882   2881   2884   2885      9     0.00   0.00000   0 ;     HA-    C3-   O31-   P31
  2882   2881   2884   2885      9     0.00   0.00000   0 ;     HA-    C3-   O31-   P31
  2882   2881   2884   2885      9     0.00   0.00000   0 ;     HA-    C3-   O31-   P31
  2882   2881   2884   2885      9     0.00   0.00000   0 ;     HA-    C3-   O31-   P31
  2882   2881   2884   2885      9     0.00   1.60247   3 ;     HA-    C3-   O31-   P31
  2883   2881   2879   2908      9     0.00   0.00000   0 ;     HB-    C3-    C2-   O21
  2883   2881   2879   2908      9     0.00   1.04600   1 ;     HB-    C3-    C2-   O21
  2883   2881   2884   2885      9     0.00   0.00000   0 ;     HB-    C3-   O31-   P31
  2883   2881   2884   2885      9     0.00   0.00000   0 ;     HB-    C3-   O31-   P31
  2883   2881   2884   2885      9     0.00   0.00000   0 ;     HB-    C3-   O31-   P31
  2883   2881   2884   2885      9     0.00   0.00000   0 ;     HB-    C3-   O31-   P31
  2883   2881   2884   2885      9     0.00   1.60247   3 ;     HB-    C3-   O31-   P31
  2884   2881   2879   2908      9     0.00   0.00000   0 ;    O31-    C3-    C2-   O21
  2884   2881   2879   2908      9     0.00   0.00000   0 ;    O31-    C3-    C2-   O21
  2884   2881   2879   2908      9     0.00   0.00000   0 ;    O31-    C3-    C2-   O21
  2884   2881   2879   2908      9     0.00   0.00000   0 ;    O31-    C3-    C2-   O21
  2884   2881   2879   2908      9     0.00   0.00000   0 ;    O31-    C3-    C2-   O21
  2884   2885   2886   2887      9     0.00   2.51040   3 ;    O31-   P31-   O32-   C31
  2884   2885   2886   2887      9     0.00   9.62320   2 ;    O31-   P31-   O32-   C31
  2885   2886   2887   2888      9     0.00   0.00000   0 ;    P31-   O32-   C31-   H1A
  2885   2886   2887   2888      9     0.00   0.00000   0 ;    P31-   O32-   C31-   H1A
  2885   2886   2887   2888      9     0.00   0.00000   0 ;    P31-   O32-   C31-   H1A
  2885   2886   2887   2888      9     0.00   0.00000   0 ;    P31-   O32-   C31-   H1A
  2885   2886   2887   2888      9     0.00   1.60247   3 ;    P31-   O32-   C31-   H1A
  2885   2886   2887   2889      9     0.00   0.00000   0 ;    P31-   O32-   C31-   H1B
  2885   2886   2887   2889      9     0.00   0.00000   0 ;    P31-   O32-   C31-   H1B
  2885   2886   2887   2889      9     0.00   0.00000   0 ;    P31-   O32-   C31-   H1B
  2885   2886   2887   2889      9     0.00   0.00000   0 ;    P31-   O32-   C31-   H1B
  2885   2886   2887   2889      9     0.00   1.60247   3 ;    P31-   O32-   C31-   H1B
  2885   2886   2887   2890      9     0.00   0.00000   0 ;    P31-   O32-   C31-   C32
  2885   2886   2887   2890      9   180.00  -3.34720   2 ;    P31-   O32-   C31-   C32
  2886   2887   2890   2891      9     0.00   0.65270   3 ;    O32-   C31-   C32-   H2A
  2886   2887   2890   2892      9     0.00   0.65270   3 ;    O32-   C31-   C32-   H2B
  2886   2887   2890   2893      9     0.00   4.18400   3 ;    O32-   C31-   C32-   N31
  2887   2886   2885   2906      9     0.00   0.00000   0 ;    C31-   O32-   P31-   O33
  2887   2886   2885   2906      9     0.00   0.00000   0 ;    C31-   O32-   P31-   O33
  2887   2886   2885   2906      9     0.00   0.00000   0 ;    C31-   O32-   P31-   O33
  2887   2886   2885   2906      9     0.00   0.00000   0 ;    C31-   O32-   P31-   O33
  2887   2886   2885   2906      9     0.00   0.83680   2 ;    C31-   O32-   P31-   O33
  2887   2886   2885   2907      9     0.00   0.00000   0 ;    C31-   O32-   P31-   O34
  2887   2886   2885   2907      9     0.00   0.00000   0 ;    C31-   O32-   P31-   O34
  2887   2886   2885   2907      9     0.00   0.00000   0 ;    C31-   O32-   P31-   O34
  2887   2886   2885   2907      9     0.00   0.00000   0 ;    C31-   O32-   P31-   O34
  2887   2886   2885   2907      9     0.00   0.83680   2 ;    C31-   O32-   P31-   O34
  2887   2890   2893   2894      9     0.00   0.65270   3 ;    C31-   C32-   N31-   C33
  2887   2890   2893   2898      9     0.00   0.65270   3 ;    C31-   C32-   N31-   C34
  2887   2890   2893   2902      9     0.00   0.65270   3 ;    C31-   C32-   N31-   C35
  2888   2887   2890   2891      9     0.00   0.65270   3 ;    H1A-   C31-   C32-   H2A
  2888   2887   2890   2892      9     0.00   0.65270   3 ;    H1A-   C31-   C32-   H2B
  2888   2887   2890   2893      9     0.00   0.65270   3 ;    H1A-   C31-   C32-   N31
  2889   2887   2890   2891      9     0.00   0.65270   3 ;    H1B-   C31-   C32-   H2A
  2889   2887   2890   2892      9     0.00   0.65270   3 ;    H1B-   C31-   C32-   H2B
  2889   2887   2890   2893      9     0.00   0.65270   3 ;    H1B-   C31-   C32-   N31
  2890   2893   2894   2895      9     0.00   0.65270   3 ;    C32-   N31-   C33-   H3A
  2890   2893   2894   2896      9     0.00   0.65270   3 ;    C32-   N31-   C33-   H3B
  2890   2893   2894   2897      9     0.00   0.65270   3 ;    C32-   N31-   C33-   H3C
  2890   2893   2898   2899      9     0.00   0.65270   3 ;    C32-   N31-   C34-   H4A
  2890   2893   2898   2900      9     0.00   0.65270   3 ;    C32-   N31-   C34-   H4B
  2890   2893   2898   2901      9     0.00   0.65270   3 ;    C32-   N31-   C34-   H4C
  2890   2893   2902   2903      9     0.00   0.65270   3 ;    C32-   N31-   C35-   H5A
  2890   2893   2902   2904      9     0.00   0.65270   3 ;    C32-   N31-   C35-   H5B
  2890   2893   2902   2905      9     0.00   0.65270   3 ;    C32-   N31-   C35-   H5C
  2891   2890   2893   2894      9     0.00   0.65270   3 ;    H2A-   C32-   N31-   C33
  2891   2890   2893   2898      9     0.00   0.65270   3 ;    H2A-   C32-   N31-   C34
  2891   2890   2893   2902      9     0.00   0.65270   3 ;    H2A-   C32-   N31-   C35
  2892   2890   2893   2894      9     0.00   0.65270   3 ;    H2B-   C32-   N31-   C33
  2892   2890   2893   2898      9     0.00   0.65270   3 ;    H2B-   C32-   N31-   C34
  2892   2890   2893   2902      9     0.00   0.65270   3 ;    H2B-   C32-   N31-   C35
  2894   2893   2898   2899      9     0.00   0.65270   3 ;    C33-   N31-   C34-   H4A
  2894   2893   2898   2900      9     0.00   0.65270   3 ;    C33-   N31-   C34-   H4B
  2894   2893   2898   2901      9     0.00   0.65270   3 ;    C33-   N31-   C34-   H4C
  2894   2893   2902   2903      9     0.00   0.65270   3 ;    C33-   N31-   C35-   H5A
  2894   2893   2902   2904      9     0.00   0.65270   3 ;    C33-   N31-   C35-   H5B
  2894   2893   2902   2905      9     0.00   0.65270   3 ;    C33-   N31-   C35-   H5C
  2895   2894   2893   2898      9     0.00   0.65270   3 ;    H3A-   C33-   N31-   C34
  2895   2894   2893   2902      9     0.00   0.65270   3 ;    H3A-   C33-   N31-   C35
  2896   2894   2893   2898      9     0.00   0.65270   3 ;    H3B-   C33-   N31-   C34
  2896   2894   2893   2902      9     0.00   0.65270   3 ;    H3B-   C33-   N31-   C35
  2897   2894   2893   2898      9     0.00   0.65270   3 ;    H3C-   C33-   N31-   C34
  2897   2894   2893   2902      9     0.00   0.65270   3 ;    H3C-   C33-   N31-   C35
  2898   2893   2902   2903      9     0.00   0.65270   3 ;    C34-   N31-   C35-   H5A
  2898   2893   2902   2904      9     0.00   0.65270   3 ;    C34-   N31-   C35-   H5B
  2898   2893   2902   2905      9     0.00   0.65270   3 ;    C34-   N31-   C35-   H5C
  2899   2898   2893   2902      9     0.00   0.65270   3 ;    H4A-   C34-   N31-   C35
  2900   2898   2893   2902      9     0.00   0.65270   3 ;    H4B-   C34-   N31-   C35
  2901   2898   2893   2902      9     0.00   0.65270   3 ;    H4C-   C34-   N31-   C35
  2908   2909   2948   2945      9   180.00   0.00000   2 ;    O21-   C21-   C12-   C13
  2908   2909   2948   2949      9   180.00   0.00000   2 ;    O21-   C21-   C12-   H2R
  2908   2909   2948   2950      9   180.00   0.00000   2 ;    O21-   C21-   C12-   H2S
  2909   2948   2945   2942      9     0.00   0.65270   3 ;    C21-   C12-   C13-   C14
  2909   2948   2945   2946      9     0.00   0.65270   3 ;    C21-   C12-   C13-   H3R
  2909   2948   2945   2947      9     0.00   0.65270   3 ;    C21-   C12-   C13-   H3S
  2910   2909   2948   2945      9   180.00   0.00000   2 ;    O22-   C21-   C12-   C13
  2910   2909   2948   2949      9     0.00   3.34720   1 ;    O22-   C21-   C12-   H2R
  2910   2909   2948   2949      9   180.00   0.33472   3 ;    O22-   C21-   C12-   H2R
  2910   2909   2948   2950      9     0.00   3.34720   1 ;    O22-   C21-   C12-   H2S
  2910   2909   2948   2950      9   180.00   0.33472   3 ;    O22-   C21-   C12-   H2S
  2911   2912   2915   2916      9     0.00   0.62760   3 ;   H14T-  C114-  C113-  H13R
  2911   2912   2915   2917      9     0.00   0.62760   3 ;   H14T-  C114-  C113-  H13S
  2911   2912   2915   2918      9     0.00   0.66944   3 ;   H14T-  C114-  C113-  C112
  2912   2915   2918   2919      9     0.00   0.66944   3 ;   C114-  C113-  C112-  H12R
  2912   2915   2918   2920      9     0.00   0.66944   3 ;   C114-  C113-  C112-  H12S
  2912   2915   2918   2921      9     0.00   0.41840   1 ;   C114-  C113-  C112-  C111
  2912   2915   2918   2921      9     0.00   0.41840   2 ;   C114-  C113-  C112-  C111
  2912   2915   2918   2921      9     0.00   0.41840   4 ;   C114-  C113-  C112-  C111
  2912   2915   2918   2921      9     0.00   0.41840   5 ;   C114-  C113-  C112-  C111
  2912   2915   2918   2921      9     0.00   1.25520   3 ;   C114-  C113-  C112-  C111
  2913   2912   2915   2916      9     0.00   0.62760   3 ;   H14R-  C114-  C113-  H13R
  2913   2912   2915   2917      9     0.00   0.62760   3 ;   H14R-  C114-  C113-  H13S
  2913   2912   2915   2918      9     0.00   0.66944   3 ;   H14R-  C114-  C113-  C112
  2914   2912   2915   2916      9     0.00   0.62760   3 ;   H14S-  C114-  C113-  H13R
  2914   2912   2915   2917      9     0.00   0.62760   3 ;   H14S-  C114-  C113-  H13S
  2914   2912   2915   2918      9     0.00   0.66944   3 ;   H14S-  C114-  C113-  C112
  2915   2918   2921   2922      9     0.00   0.66944   3 ;   C113-  C112-  C111-  H11R
  2915   2918   2921   2923      9     0.00   0.66944   3 ;   C113-  C112-  C111-  H11S
  2915   2918   2921   2924      9     0.00   0.41840   1 ;   C113-  C112-  C111-  C110
  2915   2918   2921   2924      9     0.00   0.41840   2 ;   C113-  C112-  C111-  C110
  2915   2918   2921   2924      9     0.00   0.41840   4 ;   C113-  C112-  C111-  C110
  2915   2918   2921   2924      9     0.00   0.41840   5 ;   C113-  C112-  C111-  C110
  2915   2918   2921   2924      9     0.00   1.25520   3 ;   C113-  C112-  C111-  C110
  2916   2915   2918   2919      9     0.00   0.62760   3 ;   H13R-  C113-  C112-  H12R
  2916   2915   2918   2920      9     0.00   0.62760   3 ;   H13R-  C113-  C112-  H12S
  2916   2915   2918   2921      9     0.00   0.66944   3 ;   H13R-  C113-  C112-  C111
  2917   2915   2918   2919      9     0.00   0.62760   3 ;   H13S-  C113-  C112-  H12R
  2917   2915   2918   2920      9     0.00   0.62760   3 ;   H13S-  C113-  C112-  H12S
  2917   2915   2918   2921      9     0.00   0.66944   3 ;   H13S-  C113-  C112-  C111
  2918   2921   2924   2925      9     0.00   0.66944   3 ;   C112-  C111-  C110-  H10R
  2918   2921   2924   2926      9     0.00   0.66944   3 ;   C112-  C111-  C110-  H10S
  2918   2921   2924   2927      9     0.00   0.41840   1 ;   C112-  C111-  C110-   C19
  2918   2921   2924   2927      9     0.00   0.41840   2 ;   C112-  C111-  C110-   C19
  2918   2921   2924   2927      9     0.00   0.41840   4 ;   C112-  C111-  C110-   C19
  2918   2921   2924   2927      9     0.00   0.41840   5 ;   C112-  C111-  C110-   C19
  2918   2921   2924   2927      9     0.00   1.25520   3 ;   C112-  C111-  C110-   C19
  2919   2918   2921   2922      9     0.00   0.62760   3 ;   H12R-  C112-  C111-  H11R
  2919   2918   2921   2923      9     0.00   0.62760   3 ;   H12R-  C112-  C111-  H11S
  2919   2918   2921   2924      9     0.00   0.66944   3 ;   H12R-  C112-  C111-  C110
  2920   2918   2921   2922      9     0.00   0.62760   3 ;   H12S-  C112-  C111-  H11R
  2920   2918   2921   2923      9     0.00   0.62760   3 ;   H12S-  C112-  C111-  H11S
  2920   2918   2921   2924      9     0.00   0.66944   3 ;   H12S-  C112-  C111-  C110
  2921   2924   2927   2928      9     0.00   0.66944   3 ;   C111-  C110-   C19-   H9R
  2921   2924   2927   2929      9     0.00   0.66944   3 ;   C111-  C110-   C19-   H9S
  2921   2924   2927   2930      9     0.00   0.41840   1 ;   C111-  C110-   C19-   C18
  2921   2924   2927   2930      9     0.00   0.41840   2 ;   C111-  C110-   C19-   C18
  2921   2924   2927   2930      9     0.00   0.41840   4 ;   C111-  C110-   C19-   C18
  2921   2924   2927   2930      9     0.00   0.41840   5 ;   C111-  C110-   C19-   C18
  2921   2924   2927   2930      9     0.00   1.25520   3 ;   C111-  C110-   C19-   C18
  2922   2921   2924   2925      9     0.00   0.62760   3 ;   H11R-  C111-  C110-  H10R
  2922   2921   2924   2926      9     0.00   0.62760   3 ;   H11R-  C111-  C110-  H10S
  2922   2921   2924   2927      9     0.00   0.66944   3 ;   H11R-  C111-  C110-   C19
  2923   2921   2924   2925      9     0.00   0.62760   3 ;   H11S-  C111-  C110-  H10R
  2923   2921   2924   2926      9     0.00   0.62760   3 ;   H11S-  C111-  C110-  H10S
  2923   2921   2924   2927      9     0.00   0.66944   3 ;   H11S-  C111-  C110-   C19
  2924   2927   2930   2931      9     0.00   0.66944   3 ;   C110-   C19-   C18-   H8R
  2924   2927   2930   2932      9     0.00   0.66944   3 ;   C110-   C19-   C18-   H8S
  2924   2927   2930   2933      9     0.00   0.41840   1 ;   C110-   C19-   C18-   C17
  2924   2927   2930   2933      9     0.00   0.41840   2 ;   C110-   C19-   C18-   C17
  2924   2927   2930   2933      9     0.00   0.41840   4 ;   C110-   C19-   C18-   C17
  2924   2927   2930   2933      9     0.00   0.41840   5 ;   C110-   C19-   C18-   C17
  2924   2927   2930   2933      9     0.00   1.25520   3 ;   C110-   C19-   C18-   C17
  2925   2924   2927   2928      9     0.00   0.62760   3 ;   H10R-  C110-   C19-   H9R
  2925   2924   2927   2929      9     0.00   0.62760   3 ;   H10R-  C110-   C19-   H9S
  2925   2924   2927   2930      9     0.00   0.66944   3 ;   H10R-  C110-   C19-   C18
  2926   2924   2927   2928      9     0.00   0.62760   3 ;   H10S-  C110-   C19-   H9R
  2926   2924   2927   2929      9     0.00   0.62760   3 ;   H10S-  C110-   C19-   H9S
  2926   2924   2927   2930      9     0.00   0.66944   3 ;   H10S-  C110-   C19-   C18
  2927   2930   2933   2934      9     0.00   0.66944   3 ;    C19-   C18-   C17-   H7R
  2927   2930   2933   2935      9     0.00   0.66944   3 ;    C19-   C18-   C17-   H7S
  2927   2930   2933   2936      9     0.00   0.41840   1 ;    C19-   C18-   C17-   C16
  2927   2930   2933   2936      9     0.00   0.41840   2 ;    C19-   C18-   C17-   C16
  2927   2930   2933   2936      9     0.00   0.41840   4 ;    C19-   C18-   C17-   C16
  2927   2930   2933   2936      9     0.00   0.41840   5 ;    C19-   C18-   C17-   C16
  2927   2930   2933   2936      9     0.00   1.25520   3 ;    C19-   C18-   C17-   C16
  2928   2927   2930   2931      9     0.00   0.62760   3 ;    H9R-   C19-   C18-   H8R
  2928   2927   2930   2932      9     0.00   0.62760   3 ;    H9R-   C19-   C18-   H8S
  2928   2927   2930   2933      9     0.00   0.66944   3 ;    H9R-   C19-   C18-   C17
  2929   2927   2930   2931      9     0.00   0.62760   3 ;    H9S-   C19-   C18-   H8R
  2929   2927   2930   2932      9     0.00   0.62760   3 ;    H9S-   C19-   C18-   H8S
  2929   2927   2930   2933      9     0.00   0.66944   3 ;    H9S-   C19-   C18-   C17
  2930   2933   2936   2937      9     0.00   0.66944   3 ;    C18-   C17-   C16-   H6R
  2930   2933   2936   2938      9     0.00   0.66944   3 ;    C18-   C17-   C16-   H6S
  2930   2933   2936   2939      9     0.00   0.41840   1 ;    C18-   C17-   C16-   C15
  2930   2933   2936   2939      9     0.00   0.41840   2 ;    C18-   C17-   C16-   C15
  2930   2933   2936   2939      9     0.00   0.41840   4 ;    C18-   C17-   C16-   C15
  2930   2933   2936   2939      9     0.00   0.41840   5 ;    C18-   C17-   C16-   C15
  2930   2933   2936   2939      9     0.00   1.25520   3 ;    C18-   C17-   C16-   C15
  2931   2930   2933   2934      9     0.00   0.62760   3 ;    H8R-   C18-   C17-   H7R
  2931   2930   2933   2935      9     0.00   0.62760   3 ;    H8R-   C18-   C17-   H7S
  2931   2930   2933   2936      9     0.00   0.66944   3 ;    H8R-   C18-   C17-   C16
  2932   2930   2933   2934      9     0.00   0.62760   3 ;    H8S-   C18-   C17-   H7R
  2932   2930   2933   2935      9     0.00   0.62760   3 ;    H8S-   C18-   C17-   H7S
  2932   2930   2933   2936      9     0.00   0.66944   3 ;    H8S-   C18-   C17-   C16
  2933   2936   2939   2940      9     0.00   0.66944   3 ;    C17-   C16-   C15-   H5R
  2933   2936   2939   2941      9     0.00   0.66944   3 ;    C17-   C16-   C15-   H5S
  2933   2936   2939   2942      9     0.00   0.41840   1 ;    C17-   C16-   C15-   C14
  2933   2936   2939   2942      9     0.00   0.41840   2 ;    C17-   C16-   C15-   C14
  2933   2936   2939   2942      9     0.00   0.41840   4 ;    C17-   C16-   C15-   C14
  2933   2936   2939   2942      9     0.00   0.41840   5 ;    C17-   C16-   C15-   C14
  2933   2936   2939   2942      9     0.00   1.25520   3 ;    C17-   C16-   C15-   C14
  2934   2933   2936   2937      9     0.00   0.62760   3 ;    H7R-   C17-   C16-   H6R
  2934   2933   2936   2938      9     0.00   0.62760   3 ;    H7R-   C17-   C16-   H6S
  2934   2933   2936   2939      9     0.00   0.66944   3 ;    H7R-   C17-   C16-   C15
  2935   2933   2936   2937      9     0.00   0.62760   3 ;    H7S-   C17-   C16-   H6R
  2935   2933   2936   2938      9     0.00   0.62760   3 ;    H7S-   C17-   C16-   H6S
  2935   2933   2936   2939      9     0.00   0.66944   3 ;    H7S-   C17-   C16-   C15
  2936   2939   2942   2943      9     0.00   0.66944   3 ;    C16-   C15-   C14-   H4R
  2936   2939   2942   2944      9     0.00   0.66944   3 ;    C16-   C15-   C14-   H4S
  2936   2939   2942   2945      9     0.00   0.41840   1 ;    C16-   C15-   C14-   C13
  2936   2939   2942   2945      9     0.00   0.41840   2 ;    C16-   C15-   C14-   C13
  2936   2939   2942   2945      9     0.00   0.41840   4 ;    C16-   C15-   C14-   C13
  2936   2939   2942   2945      9     0.00   0.41840   5 ;    C16-   C15-   C14-   C13
  2936   2939   2942   2945      9     0.00   1.25520   3 ;    C16-   C15-   C14-   C13
  2937   2936   2939   2940      9     0.00   0.62760   3 ;    H6R-   C16-   C15-   H5R
  2937   2936   2939   2941      9     0.00   0.62760   3 ;    H6R-   C16-   C15-   H5S
  2937   2936   2939   2942      9     0.00   0.66944   3 ;    H6R-   C16-   C15-   C14
  2938   2936   2939   2940      9     0.00   0.62760   3 ;    H6S-   C16-   C15-   H5R
  2938   2936   2939   2941      9     0.00   0.62760   3 ;    H6S-   C16-   C15-   H5S
  2938   2936   2939   2942      9     0.00   0.66944   3 ;    H6S-   C16-   C15-   C14
  2939   2942   2945   2946      9     0.00   0.66944   3 ;    C15-   C14-   C13-   H3R
  2939   2942   2945   2947      9     0.00   0.66944   3 ;    C15-   C14-   C13-   H3S
  2939   2942   2945   2948      9     0.00   0.41840   1 ;    C15-   C14-   C13-   C12
  2939   2942   2945   2948      9     0.00   0.41840   2 ;    C15-   C14-   C13-   C12
  2939   2942   2945   2948      9     0.00   0.41840   4 ;    C15-   C14-   C13-   C12
  2939   2942   2945   2948      9     0.00   0.41840   5 ;    C15-   C14-   C13-   C12
  2939   2942   2945   2948      9     0.00   1.25520   3 ;    C15-   C14-   C13-   C12
  2940   2939   2942   2943      9     0.00   0.62760   3 ;    H5R-   C15-   C14-   H4R
  2940   2939   2942   2944      9     0.00   0.62760   3 ;    H5R-   C15-   C14-   H4S
  2940   2939   2942   2945      9     0.00   0.66944   3 ;    H5R-   C15-   C14-   C13
  2941   2939   2942   2943      9     0.00   0.62760   3 ;    H5S-   C15-   C14-   H4R
  2941   2939   2942   2944      9     0.00   0.62760   3 ;    H5S-   C15-   C14-   H4S
  2941   2939   2942   2945      9     0.00   0.66944   3 ;    H5S-   C15-   C14-   C13
  2942   2945   2948   2949      9     0.00   0.66944   3 ;    C14-   C13-   C12-   H2R
  2942   2945   2948   2950      9     0.00   0.66944   3 ;    C14-   C13-   C12-   H2S
  2943   2942   2945   2946      9     0.00   0.62760   3 ;    H4R-   C14-   C13-   H3R
  2943   2942   2945   2947      9     0.00   0.62760   3 ;    H4R-   C14-   C13-   H3S
  2943   2942   2945   2948      9     0.00   0.66944   3 ;    H4R-   C14-   C13-   C12
  2944   2942   2945   2946      9     0.00   0.62760   3 ;    H4S-   C14-   C13-   H3R
  2944   2942   2945   2947      9     0.00   0.62760   3 ;    H4S-   C14-   C13-   H3S
  2944   2942   2945   2948      9     0.00   0.66944   3 ;    H4S-   C14-   C13-   C12
  2946   2945   2948   2949      9     0.00   0.62760   3 ;    H3R-   C13-   C12-   H2R
  2946   2945   2948   2950      9     0.00   0.62760   3 ;    H3R-   C13-   C12-   H2S
  2947   2945   2948   2949      9     0.00   0.62760   3 ;    H3S-   C13-   C12-   H2R
  2947   2945   2948   2950      9     0.00   0.62760   3 ;    H3S-   C13-   C12-   H2S
  2951   2952   2955   2956      9     0.00   0.62760   3 ;   H14T-  C114-  C113-  H13R
  2951   2952   2955   2957      9     0.00   0.62760   3 ;   H14T-  C114-  C113-  H13S
  2951   2952   2955   2958      9     0.00   0.66944   3 ;   H14T-  C114-  C113-  C112
  2952   2955   2958   2959      9     0.00   0.66944   3 ;   C114-  C113-  C112-  H12R
  2952   2955   2958   2960      9     0.00   0.66944   3 ;   C114-  C113-  C112-  H12S
  2952   2955   2958   2961      9     0.00   0.41840   1 ;   C114-  C113-  C112-  C111
  2952   2955   2958   2961      9     0.00   0.41840   2 ;   C114-  C113-  C112-  C111
  2952   2955   2958   2961      9     0.00   0.41840   4 ;   C114-  C113-  C112-  C111
  2952   2955   2958   2961      9     0.00   0.41840   5 ;   C114-  C113-  C112-  C111
  2952   2955   2958   2961      9     0.00   1.25520   3 ;   C114-  C113-  C112-  C111
  2953   2952   2955   2956      9     0.00   0.62760   3 ;   H14R-  C114-  C113-  H13R
  2953   2952   2955   2957      9     0.00   0.62760   3 ;   H14R-  C114-  C113-  H13S
  2953   2952   2955   2958      9     0.00   0.66944   3 ;   H14R-  C114-  C113-  C112
  2954   2952   2955   2956      9     0.00   0.62760   3 ;   H14S-  C114-  C113-  H13R
  2954   2952   2955   2957      9     0.00   0.62760   3 ;   H14S-  C114-  C113-  H13S
  2954   2952   2955   2958      9     0.00   0.66944   3 ;   H14S-  C114-  C113-  C112
  2955   2958   2961   2962      9     0.00   0.66944   3 ;   C113-  C112-  C111-  H11R
  2955   2958   2961   2963      9     0.00   0.66944   3 ;   C113-  C112-  C111-  H11S
  2955   2958   2961   2964      9     0.00   0.41840   1 ;   C113-  C112-  C111-  C110
  2955   2958   2961   2964      9     0.00   0.41840   2 ;   C113-  C112-  C111-  C110
  2955   2958   2961   2964      9     0.00   0.41840   4 ;   C113-  C112-  C111-  C110
  2955   2958   2961   2964      9     0.00   0.41840   5 ;   C113-  C112-  C111-  C110
  2955   2958   2961   2964      9     0.00   1.25520   3 ;   C113-  C112-  C111-  C110
  2956   2955   2958   2959      9     0.00   0.62760   3 ;   H13R-  C113-  C112-  H12R
  2956   2955   2958   2960      9     0.00   0.62760   3 ;   H13R-  C113-  C112-  H12S
  2956   2955   2958   2961      9     0.00   0.66944   3 ;   H13R-  C113-  C112-  C111
  2957   2955   2958   2959      9     0.00   0.62760   3 ;   H13S-  C113-  C112-  H12R
  2957   2955   2958   2960      9     0.00   0.62760   3 ;   H13S-  C113-  C112-  H12S
  2957   2955   2958   2961      9     0.00   0.66944   3 ;   H13S-  C113-  C112-  C111
  2958   2961   2964   2965      9     0.00   0.66944   3 ;   C112-  C111-  C110-  H10R
  2958   2961   2964   2966      9     0.00   0.66944   3 ;   C112-  C111-  C110-  H10S
  2958   2961   2964   2967      9     0.00   0.41840   1 ;   C112-  C111-  C110-   C19
  2958   2961   2964   2967      9     0.00   0.41840   2 ;   C112-  C111-  C110-   C19
  2958   2961   2964   2967      9     0.00   0.41840   4 ;   C112-  C111-  C110-   C19
  2958   2961   2964   2967      9     0.00   0.41840   5 ;   C112-  C111-  C110-   C19
  2958   2961   2964   2967      9     0.00   1.25520   3 ;   C112-  C111-  C110-   C19
  2959   2958   2961   2962      9     0.00   0.62760   3 ;   H12R-  C112-  C111-  H11R
  2959   2958   2961   2963      9     0.00   0.62760   3 ;   H12R-  C112-  C111-  H11S
  2959   2958   2961   2964      9     0.00   0.66944   3 ;   H12R-  C112-  C111-  C110
  2960   2958   2961   2962      9     0.00   0.62760   3 ;   H12S-  C112-  C111-  H11R
  2960   2958   2961   2963      9     0.00   0.62760   3 ;   H12S-  C112-  C111-  H11S
  2960   2958   2961   2964      9     0.00   0.66944   3 ;   H12S-  C112-  C111-  C110
  2961   2964   2967   2968      9     0.00   0.66944   3 ;   C111-  C110-   C19-   H9R
  2961   2964   2967   2969      9     0.00   0.66944   3 ;   C111-  C110-   C19-   H9S
  2961   2964   2967   2970      9     0.00   0.41840   1 ;   C111-  C110-   C19-   C18
  2961   2964   2967   2970      9     0.00   0.41840   2 ;   C111-  C110-   C19-   C18
  2961   2964   2967   2970      9     0.00   0.41840   4 ;   C111-  C110-   C19-   C18
  2961   2964   2967   2970      9     0.00   0.41840   5 ;   C111-  C110-   C19-   C18
  2961   2964   2967   2970      9     0.00   1.25520   3 ;   C111-  C110-   C19-   C18
  2962   2961   2964   2965      9     0.00   0.62760   3 ;   H11R-  C111-  C110-  H10R
  2962   2961   2964   2966      9     0.00   0.62760   3 ;   H11R-  C111-  C110-  H10S
  2962   2961   2964   2967      9     0.00   0.66944   3 ;   H11R-  C111-  C110-   C19
  2963   2961   2964   2965      9     0.00   0.62760   3 ;   H11S-  C111-  C110-  H10R
  2963   2961   2964   2966      9     0.00   0.62760   3 ;   H11S-  C111-  C110-  H10S
  2963   2961   2964   2967      9     0.00   0.66944   3 ;   H11S-  C111-  C110-   C19
  2964   2967   2970   2971      9     0.00   0.66944   3 ;   C110-   C19-   C18-   H8R
  2964   2967   2970   2972      9     0.00   0.66944   3 ;   C110-   C19-   C18-   H8S
  2964   2967   2970   2973      9     0.00   0.41840   1 ;   C110-   C19-   C18-   C17
  2964   2967   2970   2973      9     0.00   0.41840   2 ;   C110-   C19-   C18-   C17
  2964   2967   2970   2973      9     0.00   0.41840   4 ;   C110-   C19-   C18-   C17
  2964   2967   2970   2973      9     0.00   0.41840   5 ;   C110-   C19-   C18-   C17
  2964   2967   2970   2973      9     0.00   1.25520   3 ;   C110-   C19-   C18-   C17
  2965   2964   2967   2968      9     0.00   0.62760   3 ;   H10R-  C110-   C19-   H9R
  2965   2964   2967   2969      9     0.00   0.62760   3 ;   H10R-  C110-   C19-   H9S
  2965   2964   2967   2970      9     0.00   0.66944   3 ;   H10R-  C110-   C19-   C18
  2966   2964   2967   2968      9     0.00   0.62760   3 ;   H10S-  C110-   C19-   H9R
  2966   2964   2967   2969      9     0.00   0.62760   3 ;   H10S-  C110-   C19-   H9S
  2966   2964   2967   2970      9     0.00   0.66944   3 ;   H10S-  C110-   C19-   C18
  2967   2970   2973   2974      9     0.00   0.66944   3 ;    C19-   C18-   C17-   H7R
  2967   2970   2973   2975      9     0.00   0.66944   3 ;    C19-   C18-   C17-   H7S
  2967   2970   2973   2976      9     0.00   0.41840   1 ;    C19-   C18-   C17-   C16
  2967   2970   2973   2976      9     0.00   0.41840   2 ;    C19-   C18-   C17-   C16
  2967   2970   2973   2976      9     0.00   0.41840   4 ;    C19-   C18-   C17-   C16
  2967   2970   2973   2976      9     0.00   0.41840   5 ;    C19-   C18-   C17-   C16
  2967   2970   2973   2976      9     0.00   1.25520   3 ;    C19-   C18-   C17-   C16
  2968   2967   2970   2971      9     0.00   0.62760   3 ;    H9R-   C19-   C18-   H8R
  2968   2967   2970   2972      9     0.00   0.62760   3 ;    H9R-   C19-   C18-   H8S
  2968   2967   2970   2973      9     0.00   0.66944   3 ;    H9R-   C19-   C18-   C17
  2969   2967   2970   2971      9     0.00   0.62760   3 ;    H9S-   C19-   C18-   H8R
  2969   2967   2970   2972      9     0.00   0.62760   3 ;    H9S-   C19-   C18-   H8S
  2969   2967   2970   2973      9     0.00   0.66944   3 ;    H9S-   C19-   C18-   C17
  2970   2973   2976   2977      9     0.00   0.66944   3 ;    C18-   C17-   C16-   H6R
  2970   2973   2976   2978      9     0.00   0.66944   3 ;    C18-   C17-   C16-   H6S
  2970   2973   2976   2979      9     0.00   0.41840   1 ;    C18-   C17-   C16-   C15
  2970   2973   2976   2979      9     0.00   0.41840   2 ;    C18-   C17-   C16-   C15
  2970   2973   2976   2979      9     0.00   0.41840   4 ;    C18-   C17-   C16-   C15
  2970   2973   2976   2979      9     0.00   0.41840   5 ;    C18-   C17-   C16-   C15
  2970   2973   2976   2979      9     0.00   1.25520   3 ;    C18-   C17-   C16-   C15
  2971   2970   2973   2974      9     0.00   0.62760   3 ;    H8R-   C18-   C17-   H7R
  2971   2970   2973   2975      9     0.00   0.62760   3 ;    H8R-   C18-   C17-   H7S
  2971   2970   2973   2976      9     0.00   0.66944   3 ;    H8R-   C18-   C17-   C16
  2972   2970   2973   2974      9     0.00   0.62760   3 ;    H8S-   C18-   C17-   H7R
  2972   2970   2973   2975      9     0.00   0.62760   3 ;    H8S-   C18-   C17-   H7S
  2972   2970   2973   2976      9     0.00   0.66944   3 ;    H8S-   C18-   C17-   C16
  2973   2976   2979   2980      9     0.00   0.66944   3 ;    C17-   C16-   C15-   H5R
  2973   2976   2979   2981      9     0.00   0.66944   3 ;    C17-   C16-   C15-   H5S
  2973   2976   2979   2982      9     0.00   0.41840   1 ;    C17-   C16-   C15-   C14
  2973   2976   2979   2982      9     0.00   0.41840   2 ;    C17-   C16-   C15-   C14
  2973   2976   2979   2982      9     0.00   0.41840   4 ;    C17-   C16-   C15-   C14
  2973   2976   2979   2982      9     0.00   0.41840   5 ;    C17-   C16-   C15-   C14
  2973   2976   2979   2982      9     0.00   1.25520   3 ;    C17-   C16-   C15-   C14
  2974   2973   2976   2977      9     0.00   0.62760   3 ;    H7R-   C17-   C16-   H6R
  2974   2973   2976   2978      9     0.00   0.62760   3 ;    H7R-   C17-   C16-   H6S
  2974   2973   2976   2979      9     0.00   0.66944   3 ;    H7R-   C17-   C16-   C15
  2975   2973   2976   2977      9     0.00   0.62760   3 ;    H7S-   C17-   C16-   H6R
  2975   2973   2976   2978      9     0.00   0.62760   3 ;    H7S-   C17-   C16-   H6S
  2975   2973   2976   2979      9     0.00   0.66944   3 ;    H7S-   C17-   C16-   C15
  2976   2979   2982   2983      9     0.00   0.66944   3 ;    C16-   C15-   C14-   H4R
  2976   2979   2982   2984      9     0.00   0.66944   3 ;    C16-   C15-   C14-   H4S
  2976   2979   2982   2985      9     0.00   0.41840   1 ;    C16-   C15-   C14-   C13
  2976   2979   2982   2985      9     0.00   0.41840   2 ;    C16-   C15-   C14-   C13
  2976   2979   2982   2985      9     0.00   0.41840   4 ;    C16-   C15-   C14-   C13
  2976   2979   2982   2985      9     0.00   0.41840   5 ;    C16-   C15-   C14-   C13
  2976   2979   2982   2985      9     0.00   1.25520   3 ;    C16-   C15-   C14-   C13
  2977   2976   2979   2980      9     0.00   0.62760   3 ;    H6R-   C16-   C15-   H5R
  2977   2976   2979   2981      9     0.00   0.62760   3 ;    H6R-   C16-   C15-   H5S
  2977   2976   2979   2982      9     0.00   0.66944   3 ;    H6R-   C16-   C15-   C14
  2978   2976   2979   2980      9     0.00   0.62760   3 ;    H6S-   C16-   C15-   H5R
  2978   2976   2979   2981      9     0.00   0.62760   3 ;    H6S-   C16-   C15-   H5S
  2978   2976   2979   2982      9     0.00   0.66944   3 ;    H6S-   C16-   C15-   C14
  2979   2982   2985   2986      9     0.00   0.66944   3 ;    C15-   C14-   C13-   H3R
  2979   2982   2985   2987      9     0.00   0.66944   3 ;    C15-   C14-   C13-   H3S
  2979   2982   2985   2988      9     0.00   0.41840   1 ;    C15-   C14-   C13-   C12
  2979   2982   2985   2988      9     0.00   0.41840   2 ;    C15-   C14-   C13-   C12
  2979   2982   2985   2988      9     0.00   0.41840   4 ;    C15-   C14-   C13-   C12
  2979   2982   2985   2988      9     0.00   0.41840   5 ;    C15-   C14-   C13-   C12
  2979   2982   2985   2988      9     0.00   1.25520   3 ;    C15-   C14-   C13-   C12
  2980   2979   2982   2983      9     0.00   0.62760   3 ;    H5R-   C15-   C14-   H4R
  2980   2979   2982   2984      9     0.00   0.62760   3 ;    H5R-   C15-   C14-   H4S
  2980   2979   2982   2985      9     0.00   0.66944   3 ;    H5R-   C15-   C14-   C13
  2981   2979   2982   2983      9     0.00   0.62760   3 ;    H5S-   C15-   C14-   H4R
  2981   2979   2982   2984      9     0.00   0.62760   3 ;    H5S-   C15-   C14-   H4S
  2981   2979   2982   2985      9     0.00   0.66944   3 ;    H5S-   C15-   C14-   C13
  2982   2985   2988   2989      9     0.00   0.66944   3 ;    C14-   C13-   C12-   H2R
  2982   2985   2988   2990      9     0.00   0.66944   3 ;    C14-   C13-   C12-   H2S
  2982   2985   2988   2991      9     0.00   0.65270   3 ;    C14-   C13-   C12-   C11
  2983   2982   2985   2986      9     0.00   0.62760   3 ;    H4R-   C14-   C13-   H3R
  2983   2982   2985   2987      9     0.00   0.62760   3 ;    H4R-   C14-   C13-   H3S
  2983   2982   2985   2988      9     0.00   0.66944   3 ;    H4R-   C14-   C13-   C12
  2984   2982   2985   2986      9     0.00   0.62760   3 ;    H4S-   C14-   C13-   H3R
  2984   2982   2985   2987      9     0.00   0.62760   3 ;    H4S-   C14-   C13-   H3S
  2984   2982   2985   2988      9     0.00   0.66944   3 ;    H4S-   C14-   C13-   C12
  2985   2988   2991   2992      9   180.00   0.00000   2 ;    C13-   C12-   C11-   O12
  2985   2988   2991   2993      9   180.00   0.00000   2 ;    C13-   C12-   C11-   O11
  2986   2985   2988   2989      9     0.00   0.62760   3 ;    H3R-   C13-   C12-   H2R
  2986   2985   2988   2990      9     0.00   0.62760   3 ;    H3R-   C13-   C12-   H2S
  2986   2985   2988   2991      9     0.00   0.65270   3 ;    H3R-   C13-   C12-   C11
  2987   2985   2988   2989      9     0.00   0.62760   3 ;    H3S-   C13-   C12-   H2R
  2987   2985   2988   2990      9     0.00   0.62760   3 ;    H3S-   C13-   C12-   H2S
  2987   2985   2988   2991      9     0.00   0.65270   3 ;    H3S-   C13-   C12-   C11
  2988   2991   2993   2994      9   180.00  11.29680   2 ;    C12-   C11-   O11-    C1
  2989   2988   2991   2992      9     0.00   3.34720   1 ;    H2R-   C12-   C11-   O12
  2989   2988   2991   2992      9   180.00   0.33472   3 ;    H2R-   C12-   C11-   O12
  2989   2988   2991   2993      9   180.00   0.00000   2 ;    H2R-   C12-   C11-   O11
  2990   2988   2991   2992      9     0.00   3.34720   1 ;    H2S-   C12-   C11-   O12
  2990   2988   2991   2992      9   180.00   0.33472   3 ;    H2S-   C12-   C11-   O12
  2990   2988   2991   2993      9   180.00   0.00000   2 ;    H2S-   C12-   C11-   O11
  2991   2993   2994   2995      9     0.00   1.60247   3 ;    C11-   O11-    C1-    HR
  2991   2993   2994   2996      9     0.00   1.60247   3 ;    C11-   O11-    C1-    HS
  2991   2993   2994   2997      9     0.00  -0.41840   1 ;    C11-   O11-    C1-    C2
  2992   2991   2993   2994      9   180.00   5.85760   1 ;    O12-   C11-   O11-    C1
  2992   2991   2993   2994      9   180.00  11.29680   2 ;    O12-   C11-   O11-    C1
  2993   2994   2997   2998      9     0.00   0.00000   0 ;    O11-    C1-    C2-    HX
  2993   2994   2997   2998      9     0.00   1.04600   1 ;    O11-    C1-    C2-    HX
  2993   2994   2997   2999      9     0.00   0.00000   0 ;    O11-    C1-    C2-    C3
  2993   2994   2997   2999      9     0.00   0.00000   0 ;    O11-    C1-    C2-    C3
  2993   2994   2997   2999      9     0.00   0.00000   0 ;    O11-    C1-    C2-    C3
  2993   2994   2997   2999      9     0.00   0.00000   0 ;    O11-    C1-    C2-    C3
  2993   2994   2997   2999      9     0.00   0.00000   0 ;    O11-    C1-    C2-    C3
  2993   2994   2997   3026      9     0.00   1.25520   2 ;    O11-    C1-    C2-   O21
  2993   2994   2997   3026      9     0.00   4.18400   3 ;    O11-    C1-    C2-   O21
  2993   2994   2997   3026      9   180.00  -0.41840   1 ;    O11-    C1-    C2-   O21
  2994   2997   2999   3000      9     0.00   0.65270   3 ;     C1-    C2-    C3-    HA
  2994   2997   2999   3001      9     0.00   0.65270   3 ;     C1-    C2-    C3-    HB
  2994   2997   2999   3002      9   180.00   3.34720   1 ;     C1-    C2-    C3-   O31
  2994   2997   3026   3027      9     0.00  -0.41840   1 ;     C1-    C2-   O21-   C21
  2995   2994   2997   2998      9     0.00   0.65270   3 ;     HR-    C1-    C2-    HX
  2995   2994   2997   2999      9     0.00   0.65270   3 ;     HR-    C1-    C2-    C3
  2995   2994   2997   3026      9     0.00   0.00000   0 ;     HR-    C1-    C2-   O21
  2995   2994   2997   3026      9     0.00   1.04600   1 ;     HR-    C1-    C2-   O21
  2996   2994   2997   2998      9     0.00   0.65270   3 ;     HS-    C1-    C2-    HX
  2996   2994   2997   2999      9     0.00   0.65270   3 ;     HS-    C1-    C2-    C3
  2996   2994   2997   3026      9     0.00   0.00000   0 ;     HS-    C1-    C2-   O21
  2996   2994   2997   3026      9     0.00   1.04600   1 ;     HS-    C1-    C2-   O21
  2997   2999   3002   3003      9     0.00   0.00000   0 ;     C2-    C3-   O31-   P31
  2997   2999   3002   3003      9   180.00  -3.34720   2 ;     C2-    C3-   O31-   P31
  2997   3026   3027   3028      9   180.00   5.85760   1 ;     C2-   O21-   C21-   O22
  2997   3026   3027   3028      9   180.00  11.29680   2 ;     C2-   O21-   C21-   O22
  2997   3026   3027   3066      9   180.00  11.29680   2 ;     C2-   O21-   C21-   C12
  2998   2997   2999   3000      9     0.00   0.65270   3 ;     HX-    C2-    C3-    HA
  2998   2997   2999   3001      9     0.00   0.65270   3 ;     HX-    C2-    C3-    HB
  2998   2997   2999   3002      9     0.00   0.00000   0 ;     HX-    C2-    C3-   O31
  2998   2997   2999   3002      9     0.00   1.04600   1 ;     HX-    C2-    C3-   O31
  2998   2997   3026   3027      9     0.00   1.60247   3 ;     HX-    C2-   O21-   C21
  2999   2997   3026   3027      9     0.00  -0.41840   1 ;     C3-    C2-   O21-   C21
  2999   3002   3003   3004      9     0.00   2.51040   3 ;     C3-   O31-   P31-   O32
  2999   3002   3003   3004      9     0.00   9.62320   2 ;     C3-   O31-   P31-   O32
  2999   3002   3003   3024      9     0.00   0.00000   0 ;     C3-   O31-   P31-   O33
  2999   3002   3003   3024      9     0.00   0.00000   0 ;     C3-   O31-   P31-   O33
  2999   3002   3003   3024      9     0.00   0.00000   0 ;     C3-   O31-   P31-   O33
  2999   3002   3003   3024      9     0.00   0.00000   0 ;     C3-   O31-   P31-   O33
  2999   3002   3003   3024      9     0.00   0.83680   2 ;     C3-   O31-   P31-   O33
  2999   3002   3003   3025      9     0.00   0.00000   0 ;     C3-   O31-   P31-   O34
  2999   3002   3003   3025      9     0.00   0.00000   0 ;     C3-   O31-   P31-   O34
  2999   3002   3003   3025      9     0.00   0.00000   0 ;     C3-   O31-   P31-   O34
  2999   3002   3003   3025      9     0.00   0.00000   0 ;     C3-   O31-   P31-   O34
  2999   3002   3003   3025      9     0.00   0.83680   2 ;     C3-   O31-   P31-   O34
  3000   2999   2997   3026      9     0.00   0.00000   0 ;     HA-    C3-    C2-   O21
  3000   2999   2997   3026      9     0.00   1.04600   1 ;     HA-    C3-    C2-   O21
  3000   2999   3002   3003      9     0.00   0.00000   0 ;     HA-    C3-   O31-   P31
  3000   2999   3002   3003      9     0.00   0.00000   0 ;     HA-    C3-   O31-   P31
  3000   2999   3002   3003      9     0.00   0.00000   0 ;     HA-    C3-   O31-   P31
  3000   2999   3002   3003      9     0.00   0.00000   0 ;     HA-    C3-   O31-   P31
  3000   2999   3002   3003      9     0.00   1.60247   3 ;     HA-    C3-   O31-   P31
  3001   2999   2997   3026      9     0.00   0.00000   0 ;     HB-    C3-    C2-   O21
  3001   2999   2997   3026      9     0.00   1.04600   1 ;     HB-    C3-    C2-   O21
  3001   2999   3002   3003      9     0.00   0.00000   0 ;     HB-    C3-   O31-   P31
  3001   2999   3002   3003      9     0.00   0.00000   0 ;     HB-    C3-   O31-   P31
  3001   2999   3002   3003      9     0.00   0.00000   0 ;     HB-    C3-   O31-   P31
  3001   2999   3002   3003      9     0.00   0.00000   0 ;     HB-    C3-   O31-   P31
  3001   2999   3002   3003      9     0.00   1.60247   3 ;     HB-    C3-   O31-   P31
  3002   2999   2997   3026      9     0.00   0.00000   0 ;    O31-    C3-    C2-   O21
  3002   2999   2997   3026      9     0.00   0.00000   0 ;    O31-    C3-    C2-   O21
  3002   2999   2997   3026      9     0.00   0.00000   0 ;    O31-    C3-    C2-   O21
  3002   2999   2997   3026      9     0.00   0.00000   0 ;    O31-    C3-    C2-   O21
  3002   2999   2997   3026      9     0.00   0.00000   0 ;    O31-    C3-    C2-   O21
  3002   3003   3004   3005      9     0.00   2.51040   3 ;    O31-   P31-   O32-   C31
  3002   3003   3004   3005      9     0.00   9.62320   2 ;    O31-   P31-   O32-   C31
  3003   3004   3005   3006      9     0.00   0.00000   0 ;    P31-   O32-   C31-   H1A
  3003   3004   3005   3006      9     0.00   0.00000   0 ;    P31-   O32-   C31-   H1A
  3003   3004   3005   3006      9     0.00   0.00000   0 ;    P31-   O32-   C31-   H1A
  3003   3004   3005   3006      9     0.00   0.00000   0 ;    P31-   O32-   C31-   H1A
  3003   3004   3005   3006      9     0.00   1.60247   3 ;    P31-   O32-   C31-   H1A
  3003   3004   3005   3007      9     0.00   0.00000   0 ;    P31-   O32-   C31-   H1B
  3003   3004   3005   3007      9     0.00   0.00000   0 ;    P31-   O32-   C31-   H1B
  3003   3004   3005   3007      9     0.00   0.00000   0 ;    P31-   O32-   C31-   H1B
  3003   3004   3005   3007      9     0.00   0.00000   0 ;    P31-   O32-   C31-   H1B
  3003   3004   3005   3007      9     0.00   1.60247   3 ;    P31-   O32-   C31-   H1B
  3003   3004   3005   3008      9     0.00   0.00000   0 ;    P31-   O32-   C31-   C32
  3003   3004   3005   3008      9   180.00  -3.34720   2 ;    P31-   O32-   C31-   C32
  3004   3005   3008   3009      9     0.00   0.65270   3 ;    O32-   C31-   C32-   H2A
  3004   3005   3008   3010      9     0.00   0.65270   3 ;    O32-   C31-   C32-   H2B
  3004   3005   3008   3011      9     0.00   4.18400   3 ;    O32-   C31-   C32-   N31
  3005   3004   3003   3024      9     0.00   0.00000   0 ;    C31-   O32-   P31-   O33
  3005   3004   3003   3024      9     0.00   0.00000   0 ;    C31-   O32-   P31-   O33
  3005   3004   3003   3024      9     0.00   0.00000   0 ;    C31-   O32-   P31-   O33
  3005   3004   3003   3024      9     0.00   0.00000   0 ;    C31-   O32-   P31-   O33
  3005   3004   3003   3024      9     0.00   0.83680   2 ;    C31-   O32-   P31-   O33
  3005   3004   3003   3025      9     0.00   0.00000   0 ;    C31-   O32-   P31-   O34
  3005   3004   3003   3025      9     0.00   0.00000   0 ;    C31-   O32-   P31-   O34
  3005   3004   3003   3025      9     0.00   0.00000   0 ;    C31-   O32-   P31-   O34
  3005   3004   3003   3025      9     0.00   0.00000   0 ;    C31-   O32-   P31-   O34
  3005   3004   3003   3025      9     0.00   0.83680   2 ;    C31-   O32-   P31-   O34
  3005   3008   3011   3012      9     0.00   0.65270   3 ;    C31-   C32-   N31-   C33
  3005   3008   3011   3016      9     0.00   0.65270   3 ;    C31-   C32-   N31-   C34
  3005   3008   3011   3020      9     0.00   0.65270   3 ;    C31-   C32-   N31-   C35
  3006   3005   3008   3009      9     0.00   0.65270   3 ;    H1A-   C31-   C32-   H2A
  3006   3005   3008   3010      9     0.00   0.65270   3 ;    H1A-   C31-   C32-   H2B
  3006   3005   3008   3011      9     0.00   0.65270   3 ;    H1A-   C31-   C32-   N31
  3007   3005   3008   3009      9     0.00   0.65270   3 ;    H1B-   C31-   C32-   H2A
  3007   3005   3008   3010      9     0.00   0.65270   3 ;    H1B-   C31-   C32-   H2B
  3007   3005   3008   3011      9     0.00   0.65270   3 ;    H1B-   C31-   C32-   N31
  3008   3011   3012   3013      9     0.00   0.65270   3 ;    C32-   N31-   C33-   H3A
  3008   3011   3012   3014      9     0.00   0.65270   3 ;    C32-   N31-   C33-   H3B
  3008   3011   3012   3015      9     0.00   0.65270   3 ;    C32-   N31-   C33-   H3C
  3008   3011   3016   3017      9     0.00   0.65270   3 ;    C32-   N31-   C34-   H4A
  3008   3011   3016   3018      9     0.00   0.65270   3 ;    C32-   N31-   C34-   H4B
  3008   3011   3016   3019      9     0.00   0.65270   3 ;    C32-   N31-   C34-   H4C
  3008   3011   3020   3021      9     0.00   0.65270   3 ;    C32-   N31-   C35-   H5A
  3008   3011   3020   3022      9     0.00   0.65270   3 ;    C32-   N31-   C35-   H5B
  3008   3011   3020   3023      9     0.00   0.65270   3 ;    C32-   N31-   C35-   H5C
  3009   3008   3011   3012      9     0.00   0.65270   3 ;    H2A-   C32-   N31-   C33
  3009   3008   3011   3016      9     0.00   0.65270   3 ;    H2A-   C32-   N31-   C34
  3009   3008   3011   3020      9     0.00   0.65270   3 ;    H2A-   C32-   N31-   C35
  3010   3008   3011   3012      9     0.00   0.65270   3 ;    H2B-   C32-   N31-   C33
  3010   3008   3011   3016      9     0.00   0.65270   3 ;    H2B-   C32-   N31-   C34
  3010   3008   3011   3020      9     0.00   0.65270   3 ;    H2B-   C32-   N31-   C35
  3012   3011   3016   3017      9     0.00   0.65270   3 ;    C33-   N31-   C34-   H4A
  3012   3011   3016   3018      9     0.00   0.65270   3 ;    C33-   N31-   C34-   H4B
  3012   3011   3016   3019      9     0.00   0.65270   3 ;    C33-   N31-   C34-   H4C
  3012   3011   3020   3021      9     0.00   0.65270   3 ;    C33-   N31-   C35-   H5A
  3012   3011   3020   3022      9     0.00   0.65270   3 ;    C33-   N31-   C35-   H5B
  3012   3011   3020   3023      9     0.00   0.65270   3 ;    C33-   N31-   C35-   H5C
  3013   3012   3011   3016      9     0.00   0.65270   3 ;    H3A-   C33-   N31-   C34
  3013   3012   3011   3020      9     0.00   0.65270   3 ;    H3A-   C33-   N31-   C35
  3014   3012   3011   3016      9     0.00   0.65270   3 ;    H3B-   C33-   N31-   C34
  3014   3012   3011   3020      9     0.00   0.65270   3 ;    H3B-   C33-   N31-   C35
  3015   3012   3011   3016      9     0.00   0.65270   3 ;    H3C-   C33-   N31-   C34
  3015   3012   3011   3020      9     0.00   0.65270   3 ;    H3C-   C33-   N31-   C35
  3016   3011   3020   3021      9     0.00   0.65270   3 ;    C34-   N31-   C35-   H5A
  3016   3011   3020   3022      9     0.00   0.65270   3 ;    C34-   N31-   C35-   H5B
  3016   3011   3020   3023      9     0.00   0.65270   3 ;    C34-   N31-   C35-   H5C
  3017   3016   3011   3020      9     0.00   0.65270   3 ;    H4A-   C34-   N31-   C35
  3018   3016   3011   3020      9     0.00   0.65270   3 ;    H4B-   C34-   N31-   C35
  3019   3016   3011   3020      9     0.00   0.65270   3 ;    H4C-   C34-   N31-   C35
  3026   3027   3066   3063      9   180.00   0.00000   2 ;    O21-   C21-   C12-   C13
  3026   3027   3066   3067      9   180.00   0.00000   2 ;    O21-   C21-   C12-   H2R
  3026   3027   3066   3068      9   180.00   0.00000   2 ;    O21-   C21-   C12-   H2S
  3027   3066   3063   3060      9     0.00   0.65270   3 ;    C21-   C12-   C13-   C14
  3027   3066   3063   3064      9     0.00   0.65270   3 ;    C21-   C12-   C13-   H3R
  3027   3066   3063   3065      9     0.00   0.65270   3 ;    C21-   C12-   C13-   H3S
  3028   3027   3066   3063      9   180.00   0.00000   2 ;    O22-   C21-   C12-   C13
  3028   3027   3066   3067      9     0.00   3.34720   1 ;    O22-   C21-   C12-   H2R
  3028   3027   3066   3067      9   180.00   0.33472   3 ;    O22-   C21-   C12-   H2R
  3028   3027   3066   3068      9     0.00   3.34720   1 ;    O22-   C21-   C12-   H2S
  3028   3027   3066   3068      9   180.00   0.33472   3 ;    O22-   C21-   C12-   H2S
  3029   3030   3033   3034      9     0.00   0.62760   3 ;   H14T-  C114-  C113-  H13R
  3029   3030   3033   3035      9     0.00   0.62760   3 ;   H14T-  C114-  C113-  H13S
  3029   3030   3033   3036      9     0.00   0.66944   3 ;   H14T-  C114-  C113-  C112
  3030   3033   3036   3037      9     0.00   0.66944   3 ;   C114-  C113-  C112-  H12R
  3030   3033   3036   3038      9     0.00   0.66944   3 ;   C114-  C113-  C112-  H12S
  3030   3033   3036   3039      9     0.00   0.41840   1 ;   C114-  C113-  C112-  C111
  3030   3033   3036   3039      9     0.00   0.41840   2 ;   C114-  C113-  C112-  C111
  3030   3033   3036   3039      9     0.00   0.41840   4 ;   C114-  C113-  C112-  C111
  3030   3033   3036   3039      9     0.00   0.41840   5 ;   C114-  C113-  C112-  C111
  3030   3033   3036   3039      9     0.00   1.25520   3 ;   C114-  C113-  C112-  C111
  3031   3030   3033   3034      9     0.00   0.62760   3 ;   H14R-  C114-  C113-  H13R
  3031   3030   3033   3035      9     0.00   0.62760   3 ;   H14R-  C114-  C113-  H13S
  3031   3030   3033   3036      9     0.00   0.66944   3 ;   H14R-  C114-  C113-  C112
  3032   3030   3033   3034      9     0.00   0.62760   3 ;   H14S-  C114-  C113-  H13R
  3032   3030   3033   3035      9     0.00   0.62760   3 ;   H14S-  C114-  C113-  H13S
  3032   3030   3033   3036      9     0.00   0.66944   3 ;   H14S-  C114-  C113-  C112
  3033   3036   3039   3040      9     0.00   0.66944   3 ;   C113-  C112-  C111-  H11R
  3033   3036   3039   3041      9     0.00   0.66944   3 ;   C113-  C112-  C111-  H11S
  3033   3036   3039   3042      9     0.00   0.41840   1 ;   C113-  C112-  C111-  C110
  3033   3036   3039   3042      9     0.00   0.41840   2 ;   C113-  C112-  C111-  C110
  3033   3036   3039   3042      9     0.00   0.41840   4 ;   C113-  C112-  C111-  C110
  3033   3036   3039   3042      9     0.00   0.41840   5 ;   C113-  C112-  C111-  C110
  3033   3036   3039   3042      9     0.00   1.25520   3 ;   C113-  C112-  C111-  C110
  3034   3033   3036   3037      9     0.00   0.62760   3 ;   H13R-  C113-  C112-  H12R
  3034   3033   3036   3038      9     0.00   0.62760   3 ;   H13R-  C113-  C112-  H12S
  3034   3033   3036   3039      9     0.00   0.66944   3 ;   H13R-  C113-  C112-  C111
  3035   3033   3036   3037      9     0.00   0.62760   3 ;   H13S-  C113-  C112-  H12R
  3035   3033   3036   3038      9     0.00   0.62760   3 ;   H13S-  C113-  C112-  H12S
  3035   3033   3036   3039      9     0.00   0.66944   3 ;   H13S-  C113-  C112-  C111
  3036   3039   3042   3043      9     0.00   0.66944   3 ;   C112-  C111-  C110-  H10R
  3036   3039   3042   3044      9     0.00   0.66944   3 ;   C112-  C111-  C110-  H10S
  3036   3039   3042   3045      9     0.00   0.41840   1 ;   C112-  C111-  C110-   C19
  3036   3039   3042   3045      9     0.00   0.41840   2 ;   C112-  C111-  C110-   C19
  3036   3039   3042   3045      9     0.00   0.41840   4 ;   C112-  C111-  C110-   C19
  3036   3039   3042   3045      9     0.00   0.41840   5 ;   C112-  C111-  C110-   C19
  3036   3039   3042   3045      9     0.00   1.25520   3 ;   C112-  C111-  C110-   C19
  3037   3036   3039   3040      9     0.00   0.62760   3 ;   H12R-  C112-  C111-  H11R
  3037   3036   3039   3041      9     0.00   0.62760   3 ;   H12R-  C112-  C111-  H11S
  3037   3036   3039   3042      9     0.00   0.66944   3 ;   H12R-  C112-  C111-  C110
  3038   3036   3039   3040      9     0.00   0.62760   3 ;   H12S-  C112-  C111-  H11R
  3038   3036   3039   3041      9     0.00   0.62760   3 ;   H12S-  C112-  C111-  H11S
  3038   3036   3039   3042      9     0.00   0.66944   3 ;   H12S-  C112-  C111-  C110
  3039   3042   3045   3046      9     0.00   0.66944   3 ;   C111-  C110-   C19-   H9R
  3039   3042   3045   3047      9     0.00   0.66944   3 ;   C111-  C110-   C19-   H9S
  3039   3042   3045   3048      9     0.00   0.41840   1 ;   C111-  C110-   C19-   C18
  3039   3042   3045   3048      9     0.00   0.41840   2 ;   C111-  C110-   C19-   C18
  3039   3042   3045   3048      9     0.00   0.41840   4 ;   C111-  C110-   C19-   C18
  3039   3042   3045   3048      9     0.00   0.41840   5 ;   C111-  C110-   C19-   C18
  3039   3042   3045   3048      9     0.00   1.25520   3 ;   C111-  C110-   C19-   C18
  3040   3039   3042   3043      9     0.00   0.62760   3 ;   H11R-  C111-  C110-  H10R
  3040   3039   3042   3044      9     0.00   0.62760   3 ;   H11R-  C111-  C110-  H10S
  3040   3039   3042   3045      9     0.00   0.66944   3 ;   H11R-  C111-  C110-   C19
  3041   3039   3042   3043      9     0.00   0.62760   3 ;   H11S-  C111-  C110-  H10R
  3041   3039   3042   3044      9     0.00   0.62760   3 ;   H11S-  C111-  C110-  H10S
  3041   3039   3042   3045      9     0.00   0.66944   3 ;   H11S-  C111-  C110-   C19
  3042   3045   3048   3049      9     0.00   0.66944   3 ;   C110-   C19-   C18-   H8R
  3042   3045   3048   3050      9     0.00   0.66944   3 ;   C110-   C19-   C18-   H8S
  3042   3045   3048   3051      9     0.00   0.41840   1 ;   C110-   C19-   C18-   C17
  3042   3045   3048   3051      9     0.00   0.41840   2 ;   C110-   C19-   C18-   C17
  3042   3045   3048   3051      9     0.00   0.41840   4 ;   C110-   C19-   C18-   C17
  3042   3045   3048   3051      9     0.00   0.41840   5 ;   C110-   C19-   C18-   C17
  3042   3045   3048   3051      9     0.00   1.25520   3 ;   C110-   C19-   C18-   C17
  3043   3042   3045   3046      9     0.00   0.62760   3 ;   H10R-  C110-   C19-   H9R
  3043   3042   3045   3047      9     0.00   0.62760   3 ;   H10R-  C110-   C19-   H9S
  3043   3042   3045   3048      9     0.00   0.66944   3 ;   H10R-  C110-   C19-   C18
  3044   3042   3045   3046      9     0.00   0.62760   3 ;   H10S-  C110-   C19-   H9R
  3044   3042   3045   3047      9     0.00   0.62760   3 ;   H10S-  C110-   C19-   H9S
  3044   3042   3045   3048      9     0.00   0.66944   3 ;   H10S-  C110-   C19-   C18
  3045   3048   3051   3052      9     0.00   0.66944   3 ;    C19-   C18-   C17-   H7R
  3045   3048   3051   3053      9     0.00   0.66944   3 ;    C19-   C18-   C17-   H7S
  3045   3048   3051   3054      9     0.00   0.41840   1 ;    C19-   C18-   C17-   C16
  3045   3048   3051   3054      9     0.00   0.41840   2 ;    C19-   C18-   C17-   C16
  3045   3048   3051   3054      9     0.00   0.41840   4 ;    C19-   C18-   C17-   C16
  3045   3048   3051   3054      9     0.00   0.41840   5 ;    C19-   C18-   C17-   C16
  3045   3048   3051   3054      9     0.00   1.25520   3 ;    C19-   C18-   C17-   C16
  3046   3045   3048   3049      9     0.00   0.62760   3 ;    H9R-   C19-   C18-   H8R
  3046   3045   3048   3050      9     0.00   0.62760   3 ;    H9R-   C19-   C18-   H8S
  3046   3045   3048   3051      9     0.00   0.66944   3 ;    H9R-   C19-   C18-   C17
  3047   3045   3048   3049      9     0.00   0.62760   3 ;    H9S-   C19-   C18-   H8R
  3047   3045   3048   3050      9     0.00   0.62760   3 ;    H9S-   C19-   C18-   H8S
  3047   3045   3048   3051      9     0.00   0.66944   3 ;    H9S-   C19-   C18-   C17
  3048   3051   3054   3055      9     0.00   0.66944   3 ;    C18-   C17-   C16-   H6R
  3048   3051   3054   3056      9     0.00   0.66944   3 ;    C18-   C17-   C16-   H6S
  3048   3051   3054   3057      9     0.00   0.41840   1 ;    C18-   C17-   C16-   C15
  3048   3051   3054   3057      9     0.00   0.41840   2 ;    C18-   C17-   C16-   C15
  3048   3051   3054   3057      9     0.00   0.41840   4 ;    C18-   C17-   C16-   C15
  3048   3051   3054   3057      9     0.00   0.41840   5 ;    C18-   C17-   C16-   C15
  3048   3051   3054   3057      9     0.00   1.25520   3 ;    C18-   C17-   C16-   C15
  3049   3048   3051   3052      9     0.00   0.62760   3 ;    H8R-   C18-   C17-   H7R
  3049   3048   3051   3053      9     0.00   0.62760   3 ;    H8R-   C18-   C17-   H7S
  3049   3048   3051   3054      9     0.00   0.66944   3 ;    H8R-   C18-   C17-   C16
  3050   3048   3051   3052      9     0.00   0.62760   3 ;    H8S-   C18-   C17-   H7R
  3050   3048   3051   3053      9     0.00   0.62760   3 ;    H8S-   C18-   C17-   H7S
  3050   3048   3051   3054      9     0.00   0.66944   3 ;    H8S-   C18-   C17-   C16
  3051   3054   3057   3058      9     0.00   0.66944   3 ;    C17-   C16-   C15-   H5R
  3051   3054   3057   3059      9     0.00   0.66944   3 ;    C17-   C16-   C15-   H5S
  3051   3054   3057   3060      9     0.00   0.41840   1 ;    C17-   C16-   C15-   C14
  3051   3054   3057   3060      9     0.00   0.41840   2 ;    C17-   C16-   C15-   C14
  3051   3054   3057   3060      9     0.00   0.41840   4 ;    C17-   C16-   C15-   C14
  3051   3054   3057   3060      9     0.00   0.41840   5 ;    C17-   C16-   C15-   C14
  3051   3054   3057   3060      9     0.00   1.25520   3 ;    C17-   C16-   C15-   C14
  3052   3051   3054   3055      9     0.00   0.62760   3 ;    H7R-   C17-   C16-   H6R
  3052   3051   3054   3056      9     0.00   0.62760   3 ;    H7R-   C17-   C16-   H6S
  3052   3051   3054   3057      9     0.00   0.66944   3 ;    H7R-   C17-   C16-   C15
  3053   3051   3054   3055      9     0.00   0.62760   3 ;    H7S-   C17-   C16-   H6R
  3053   3051   3054   3056      9     0.00   0.62760   3 ;    H7S-   C17-   C16-   H6S
  3053   3051   3054   3057      9     0.00   0.66944   3 ;    H7S-   C17-   C16-   C15
  3054   3057   3060   3061      9     0.00   0.66944   3 ;    C16-   C15-   C14-   H4R
  3054   3057   3060   3062      9     0.00   0.66944   3 ;    C16-   C15-   C14-   H4S
  3054   3057   3060   3063      9     0.00   0.41840   1 ;    C16-   C15-   C14-   C13
  3054   3057   3060   3063      9     0.00   0.41840   2 ;    C16-   C15-   C14-   C13
  3054   3057   3060   3063      9     0.00   0.41840   4 ;    C16-   C15-   C14-   C13
  3054   3057   3060   3063      9     0.00   0.41840   5 ;    C16-   C15-   C14-   C13
  3054   3057   3060   3063      9     0.00   1.25520   3 ;    C16-   C15-   C14-   C13
  3055   3054   3057   3058      9     0.00   0.62760   3 ;    H6R-   C16-   C15-   H5R
  3055   3054   3057   3059      9     0.00   0.62760   3 ;    H6R-   C16-   C15-   H5S
  3055   3054   3057   3060      9     0.00   0.66944   3 ;    H6R-   C16-   C15-   C14
  3056   3054   3057   3058      9     0.00   0.62760   3 ;    H6S-   C16-   C15-   H5R
  3056   3054   3057   3059      9     0.00   0.62760   3 ;    H6S-   C16-   C15-   H5S
  3056   3054   3057   3060      9     0.00   0.66944   3 ;    H6S-   C16-   C15-   C14
  3057   3060   3063   3064      9     0.00   0.66944   3 ;    C15-   C14-   C13-   H3R
  3057   3060   3063   3065      9     0.00   0.66944   3 ;    C15-   C14-   C13-   H3S
  3057   3060   3063   3066      9     0.00   0.41840   1 ;    C15-   C14-   C13-   C12
  3057   3060   3063   3066      9     0.00   0.41840   2 ;    C15-   C14-   C13-   C12
  3057   3060   3063   3066      9     0.00   0.41840   4 ;    C15-   C14-   C13-   C12
  3057   3060   3063   3066      9     0.00   0.41840   5 ;    C15-   C14-   C13-   C12
  3057   3060   3063   3066      9     0.00   1.25520   3 ;    C15-   C14-   C13-   C12
  3058   3057   3060   3061      9     0.00   0.62760   3 ;    H5R-   C15-   C14-   H4R
  3058   3057   3060   3062      9     0.00   0.62760   3 ;    H5R-   C15-   C14-   H4S
  3058   3057   3060   3063      9     0.00   0.66944   3 ;    H5R-   C15-   C14-   C13
  3059   3057   3060   3061      9     0.00   0.62760   3 ;    H5S-   C15-   C14-   H4R
  3059   3057   3060   3062      9     0.00   0.62760   3 ;    H5S-   C15-   C14-   H4S
  3059   3057   3060   3063      9     0.00   0.66944   3 ;    H5S-   C15-   C14-   C13
  3060   3063   3066   3067      9     0.00   0.66944   3 ;    C14-   C13-   C12-   H2R
  3060   3063   3066   3068      9     0.00   0.66944   3 ;    C14-   C13-   C12-   H2S
  3061   3060   3063   3064      9     0.00   0.62760   3 ;    H4R-   C14-   C13-   H3R
  3061   3060   3063   3065      9     0.00   0.62760   3 ;    H4R-   C14-   C13-   H3S
  3061   3060   3063   3066      9     0.00   0.66944   3 ;    H4R-   C14-   C13-   C12
  3062   3060   3063   3064      9     0.00   0.62760   3 ;    H4S-   C14-   C13-   H3R
  3062   3060   3063   3065      9     0.00   0.62760   3 ;    H4S-   C14-   C13-   H3S
  3062   3060   3063   3066      9     0.00   0.66944   3 ;    H4S-   C14-   C13-   C12
  3064   3063   3066   3067      9     0.00   0.62760   3 ;    H3R-   C13-   C12-   H2R
  3064   3063   3066   3068      9     0.00   0.62760   3 ;    H3R-   C13-   C12-   H2S
  3065   3063   3066   3067      9     0.00   0.62760   3 ;    H3S-   C13-   C12-   H2R
  3065   3063   3066   3068      9     0.00   0.62760   3 ;    H3S-   C13-   C12-   H2S
  3069   3070   3073   3074      9     0.00   0.62760   3 ;   H14T-  C114-  C113-  H13R
  3069   3070   3073   3075      9     0.00   0.62760   3 ;   H14T-  C114-  C113-  H13S
  3069   3070   3073   3076      9     0.00   0.66944   3 ;   H14T-  C114-  C113-  C112
  3070   3073   3076   3077      9     0.00   0.66944   3 ;   C114-  C113-  C112-  H12R
  3070   3073   3076   3078      9     0.00   0.66944   3 ;   C114-  C113-  C112-  H12S
  3070   3073   3076   3079      9     0.00   0.41840   1 ;   C114-  C113-  C112-  C111
  3070   3073   3076   3079      9     0.00   0.41840   2 ;   C114-  C113-  C112-  C111
  3070   3073   3076   3079      9     0.00   0.41840   4 ;   C114-  C113-  C112-  C111
  3070   3073   3076   3079      9     0.00   0.41840   5 ;   C114-  C113-  C112-  C111
  3070   3073   3076   3079      9     0.00   1.25520   3 ;   C114-  C113-  C112-  C111
  3071   3070   3073   3074      9     0.00   0.62760   3 ;   H14R-  C114-  C113-  H13R
  3071   3070   3073   3075      9     0.00   0.62760   3 ;   H14R-  C114-  C113-  H13S
  3071   3070   3073   3076      9     0.00   0.66944   3 ;   H14R-  C114-  C113-  C112
  3072   3070   3073   3074      9     0.00   0.62760   3 ;   H14S-  C114-  C113-  H13R
  3072   3070   3073   3075      9     0.00   0.62760   3 ;   H14S-  C114-  C113-  H13S
  3072   3070   3073   3076      9     0.00   0.66944   3 ;   H14S-  C114-  C113-  C112
  3073   3076   3079   3080      9     0.00   0.66944   3 ;   C113-  C112-  C111-  H11R
  3073   3076   3079   3081      9     0.00   0.66944   3 ;   C113-  C112-  C111-  H11S
  3073   3076   3079   3082      9     0.00   0.41840   1 ;   C113-  C112-  C111-  C110
  3073   3076   3079   3082      9     0.00   0.41840   2 ;   C113-  C112-  C111-  C110
  3073   3076   3079   3082      9     0.00   0.41840   4 ;   C113-  C112-  C111-  C110
  3073   3076   3079   3082      9     0.00   0.41840   5 ;   C113-  C112-  C111-  C110
  3073   3076   3079   3082      9     0.00   1.25520   3 ;   C113-  C112-  C111-  C110
  3074   3073   3076   3077      9     0.00   0.62760   3 ;   H13R-  C113-  C112-  H12R
  3074   3073   3076   3078      9     0.00   0.62760   3 ;   H13R-  C113-  C112-  H12S
  3074   3073   3076   3079      9     0.00   0.66944   3 ;   H13R-  C113-  C112-  C111
  3075   3073   3076   3077      9     0.00   0.62760   3 ;   H13S-  C113-  C112-  H12R
  3075   3073   3076   3078      9     0.00   0.62760   3 ;   H13S-  C113-  C112-  H12S
  3075   3073   3076   3079      9     0.00   0.66944   3 ;   H13S-  C113-  C112-  C111
  3076   3079   3082   3083      9     0.00   0.66944   3 ;   C112-  C111-  C110-  H10R
  3076   3079   3082   3084      9     0.00   0.66944   3 ;   C112-  C111-  C110-  H10S
  3076   3079   3082   3085      9     0.00   0.41840   1 ;   C112-  C111-  C110-   C19
  3076   3079   3082   3085      9     0.00   0.41840   2 ;   C112-  C111-  C110-   C19
  3076   3079   3082   3085      9     0.00   0.41840   4 ;   C112-  C111-  C110-   C19
  3076   3079   3082   3085      9     0.00   0.41840   5 ;   C112-  C111-  C110-   C19
  3076   3079   3082   3085      9     0.00   1.25520   3 ;   C112-  C111-  C110-   C19
  3077   3076   3079   3080      9     0.00   0.62760   3 ;   H12R-  C112-  C111-  H11R
  3077   3076   3079   3081      9     0.00   0.62760   3 ;   H12R-  C112-  C111-  H11S
  3077   3076   3079   3082      9     0.00   0.66944   3 ;   H12R-  C112-  C111-  C110
  3078   3076   3079   3080      9     0.00   0.62760   3 ;   H12S-  C112-  C111-  H11R
  3078   3076   3079   3081      9     0.00   0.62760   3 ;   H12S-  C112-  C111-  H11S
  3078   3076   3079   3082      9     0.00   0.66944   3 ;   H12S-  C112-  C111-  C110
  3079   3082   3085   3086      9     0.00   0.66944   3 ;   C111-  C110-   C19-   H9R
  3079   3082   3085   3087      9     0.00   0.66944   3 ;   C111-  C110-   C19-   H9S
  3079   3082   3085   3088      9     0.00   0.41840   1 ;   C111-  C110-   C19-   C18
  3079   3082   3085   3088      9     0.00   0.41840   2 ;   C111-  C110-   C19-   C18
  3079   3082   3085   3088      9     0.00   0.41840   4 ;   C111-  C110-   C19-   C18
  3079   3082   3085   3088      9     0.00   0.41840   5 ;   C111-  C110-   C19-   C18
  3079   3082   3085   3088      9     0.00   1.25520   3 ;   C111-  C110-   C19-   C18
  3080   3079   3082   3083      9     0.00   0.62760   3 ;   H11R-  C111-  C110-  H10R
  3080   3079   3082   3084      9     0.00   0.62760   3 ;   H11R-  C111-  C110-  H10S
  3080   3079   3082   3085      9     0.00   0.66944   3 ;   H11R-  C111-  C110-   C19
  3081   3079   3082   3083      9     0.00   0.62760   3 ;   H11S-  C111-  C110-  H10R
  3081   3079   3082   3084      9     0.00   0.62760   3 ;   H11S-  C111-  C110-  H10S
  3081   3079   3082   3085      9     0.00   0.66944   3 ;   H11S-  C111-  C110-   C19
  3082   3085   3088   3089      9     0.00   0.66944   3 ;   C110-   C19-   C18-   H8R
  3082   3085   3088   3090      9     0.00   0.66944   3 ;   C110-   C19-   C18-   H8S
  3082   3085   3088   3091      9     0.00   0.41840   1 ;   C110-   C19-   C18-   C17
  3082   3085   3088   3091      9     0.00   0.41840   2 ;   C110-   C19-   C18-   C17
  3082   3085   3088   3091      9     0.00   0.41840   4 ;   C110-   C19-   C18-   C17
  3082   3085   3088   3091      9     0.00   0.41840   5 ;   C110-   C19-   C18-   C17
  3082   3085   3088   3091      9     0.00   1.25520   3 ;   C110-   C19-   C18-   C17
  3083   3082   3085   3086      9     0.00   0.62760   3 ;   H10R-  C110-   C19-   H9R
  3083   3082   3085   3087      9     0.00   0.62760   3 ;   H10R-  C110-   C19-   H9S
  3083   3082   3085   3088      9     0.00   0.66944   3 ;   H10R-  C110-   C19-   C18
  3084   3082   3085   3086      9     0.00   0.62760   3 ;   H10S-  C110-   C19-   H9R
  3084   3082   3085   3087      9     0.00   0.62760   3 ;   H10S-  C110-   C19-   H9S
  3084   3082   3085   3088      9     0.00   0.66944   3 ;   H10S-  C110-   C19-   C18
  3085   3088   3091   3092      9     0.00   0.66944   3 ;    C19-   C18-   C17-   H7R
  3085   3088   3091   3093      9     0.00   0.66944   3 ;    C19-   C18-   C17-   H7S
  3085   3088   3091   3094      9     0.00   0.41840   1 ;    C19-   C18-   C17-   C16
  3085   3088   3091   3094      9     0.00   0.41840   2 ;    C19-   C18-   C17-   C16
  3085   3088   3091   3094      9     0.00   0.41840   4 ;    C19-   C18-   C17-   C16
  3085   3088   3091   3094      9     0.00   0.41840   5 ;    C19-   C18-   C17-   C16
  3085   3088   3091   3094      9     0.00   1.25520   3 ;    C19-   C18-   C17-   C16
  3086   3085   3088   3089      9     0.00   0.62760   3 ;    H9R-   C19-   C18-   H8R
  3086   3085   3088   3090      9     0.00   0.62760   3 ;    H9R-   C19-   C18-   H8S
  3086   3085   3088   3091      9     0.00   0.66944   3 ;    H9R-   C19-   C18-   C17
  3087   3085   3088   3089      9     0.00   0.62760   3 ;    H9S-   C19-   C18-   H8R
  3087   3085   3088   3090      9     0.00   0.62760   3 ;    H9S-   C19-   C18-   H8S
  3087   3085   3088   3091      9     0.00   0.66944   3 ;    H9S-   C19-   C18-   C17
  3088   3091   3094   3095      9     0.00   0.66944   3 ;    C18-   C17-   C16-   H6R
  3088   3091   3094   3096      9     0.00   0.66944   3 ;    C18-   C17-   C16-   H6S
  3088   3091   3094   3097      9     0.00   0.41840   1 ;    C18-   C17-   C16-   C15
  3088   3091   3094   3097      9     0.00   0.41840   2 ;    C18-   C17-   C16-   C15
  3088   3091   3094   3097      9     0.00   0.41840   4 ;    C18-   C17-   C16-   C15
  3088   3091   3094   3097      9     0.00   0.41840   5 ;    C18-   C17-   C16-   C15
  3088   3091   3094   3097      9     0.00   1.25520   3 ;    C18-   C17-   C16-   C15
  3089   3088   3091   3092      9     0.00   0.62760   3 ;    H8R-   C18-   C17-   H7R
  3089   3088   3091   3093      9     0.00   0.62760   3 ;    H8R-   C18-   C17-   H7S
  3089   3088   3091   3094      9     0.00   0.66944   3 ;    H8R-   C18-   C17-   C16
  3090   3088   3091   3092      9     0.00   0.62760   3 ;    H8S-   C18-   C17-   H7R
  3090   3088   3091   3093      9     0.00   0.62760   3 ;    H8S-   C18-   C17-   H7S
  3090   3088   3091   3094      9     0.00   0.66944   3 ;    H8S-   C18-   C17-   C16
  3091   3094   3097   3098      9     0.00   0.66944   3 ;    C17-   C16-   C15-   H5R
  3091   3094   3097   3099      9     0.00   0.66944   3 ;    C17-   C16-   C15-   H5S
  3091   3094   3097   3100      9     0.00   0.41840   1 ;    C17-   C16-   C15-   C14
  3091   3094   3097   3100      9     0.00   0.41840   2 ;    C17-   C16-   C15-   C14
  3091   3094   3097   3100      9     0.00   0.41840   4 ;    C17-   C16-   C15-   C14
  3091   3094   3097   3100      9     0.00   0.41840   5 ;    C17-   C16-   C15-   C14
  3091   3094   3097   3100      9     0.00   1.25520   3 ;    C17-   C16-   C15-   C14
  3092   3091   3094   3095      9     0.00   0.62760   3 ;    H7R-   C17-   C16-   H6R
  3092   3091   3094   3096      9     0.00   0.62760   3 ;    H7R-   C17-   C16-   H6S
  3092   3091   3094   3097      9     0.00   0.66944   3 ;    H7R-   C17-   C16-   C15
  3093   3091   3094   3095      9     0.00   0.62760   3 ;    H7S-   C17-   C16-   H6R
  3093   3091   3094   3096      9     0.00   0.62760   3 ;    H7S-   C17-   C16-   H6S
  3093   3091   3094   3097      9     0.00   0.66944   3 ;    H7S-   C17-   C16-   C15
  3094   3097   3100   3101      9     0.00   0.66944   3 ;    C16-   C15-   C14-   H4R
  3094   3097   3100   3102      9     0.00   0.66944   3 ;    C16-   C15-   C14-   H4S
  3094   3097   3100   3103      9     0.00   0.41840   1 ;    C16-   C15-   C14-   C13
  3094   3097   3100   3103      9     0.00   0.41840   2 ;    C16-   C15-   C14-   C13
  3094   3097   3100   3103      9     0.00   0.41840   4 ;    C16-   C15-   C14-   C13
  3094   3097   3100   3103      9     0.00   0.41840   5 ;    C16-   C15-   C14-   C13
  3094   3097   3100   3103      9     0.00   1.25520   3 ;    C16-   C15-   C14-   C13
  3095   3094   3097   3098      9     0.00   0.62760   3 ;    H6R-   C16-   C15-   H5R
  3095   3094   3097   3099      9     0.00   0.62760   3 ;    H6R-   C16-   C15-   H5S
  3095   3094   3097   3100      9     0.00   0.66944   3 ;    H6R-   C16-   C15-   C14
  3096   3094   3097   3098      9     0.00   0.62760   3 ;    H6S-   C16-   C15-   H5R
  3096   3094   3097   3099      9     0.00   0.62760   3 ;    H6S-   C16-   C15-   H5S
  3096   3094   3097   3100      9     0.00   0.66944   3 ;    H6S-   C16-   C15-   C14
  3097   3100   3103   3104      9     0.00   0.66944   3 ;    C15-   C14-   C13-   H3R
  3097   3100   3103   3105      9     0.00   0.66944   3 ;    C15-   C14-   C13-   H3S
  3097   3100   3103   3106      9     0.00   0.41840   1 ;    C15-   C14-   C13-   C12
  3097   3100   3103   3106      9     0.00   0.41840   2 ;    C15-   C14-   C13-   C12
  3097   3100   3103   3106      9     0.00   0.41840   4 ;    C15-   C14-   C13-   C12
  3097   3100   3103   3106      9     0.00   0.41840   5 ;    C15-   C14-   C13-   C12
  3097   3100   3103   3106      9     0.00   1.25520   3 ;    C15-   C14-   C13-   C12
  3098   3097   3100   3101      9     0.00   0.62760   3 ;    H5R-   C15-   C14-   H4R
  3098   3097   3100   3102      9     0.00   0.62760   3 ;    H5R-   C15-   C14-   H4S
  3098   3097   3100   3103      9     0.00   0.66944   3 ;    H5R-   C15-   C14-   C13
  3099   3097   3100   3101      9     0.00   0.62760   3 ;    H5S-   C15-   C14-   H4R
  3099   3097   3100   3102      9     0.00   0.62760   3 ;    H5S-   C15-   C14-   H4S
  3099   3097   3100   3103      9     0.00   0.66944   3 ;    H5S-   C15-   C14-   C13
  3100   3103   3106   3107      9     0.00   0.66944   3 ;    C14-   C13-   C12-   H2R
  3100   3103   3106   3108      9     0.00   0.66944   3 ;    C14-   C13-   C12-   H2S
  3100   3103   3106   3109      9     0.00   0.65270   3 ;    C14-   C13-   C12-   C11
  3101   3100   3103   3104      9     0.00   0.62760   3 ;    H4R-   C14-   C13-   H3R
  3101   3100   3103   3105      9     0.00   0.62760   3 ;    H4R-   C14-   C13-   H3S
  3101   3100   3103   3106      9     0.00   0.66944   3 ;    H4R-   C14-   C13-   C12
  3102   3100   3103   3104      9     0.00   0.62760   3 ;    H4S-   C14-   C13-   H3R
  3102   3100   3103   3105      9     0.00   0.62760   3 ;    H4S-   C14-   C13-   H3S
  3102   3100   3103   3106      9     0.00   0.66944   3 ;    H4S-   C14-   C13-   C12
  3103   3106   3109   3110      9   180.00   0.00000   2 ;    C13-   C12-   C11-   O12
  3103   3106   3109   3111      9   180.00   0.00000   2 ;    C13-   C12-   C11-   O11
  3104   3103   3106   3107      9     0.00   0.62760   3 ;    H3R-   C13-   C12-   H2R
  3104   3103   3106   3108      9     0.00   0.62760   3 ;    H3R-   C13-   C12-   H2S
  3104   3103   3106   3109      9     0.00   0.65270   3 ;    H3R-   C13-   C12-   C11
  3105   3103   3106   3107      9     0.00   0.62760   3 ;    H3S-   C13-   C12-   H2R
  3105   3103   3106   3108      9     0.00   0.62760   3 ;    H3S-   C13-   C12-   H2S
  3105   3103   3106   3109      9     0.00   0.65270   3 ;    H3S-   C13-   C12-   C11
  3106   3109   3111   3112      9   180.00  11.29680   2 ;    C12-   C11-   O11-    C1
  3107   3106   3109   3110      9     0.00   3.34720   1 ;    H2R-   C12-   C11-   O12
  3107   3106   3109   3110      9   180.00   0.33472   3 ;    H2R-   C12-   C11-   O12
  3107   3106   3109   3111      9   180.00   0.00000   2 ;    H2R-   C12-   C11-   O11
  3108   3106   3109   3110      9     0.00   3.34720   1 ;    H2S-   C12-   C11-   O12
  3108   3106   3109   3110      9   180.00   0.33472   3 ;    H2S-   C12-   C11-   O12
  3108   3106   3109   3111      9   180.00   0.00000   2 ;    H2S-   C12-   C11-   O11
  3109   3111   3112   3113      9     0.00   1.60247   3 ;    C11-   O11-    C1-    HR
  3109   3111   3112   3114      9     0.00   1.60247   3 ;    C11-   O11-    C1-    HS
  3109   3111   3112   3115      9     0.00  -0.41840   1 ;    C11-   O11-    C1-    C2
  3110   3109   3111   3112      9   180.00   5.85760   1 ;    O12-   C11-   O11-    C1
  3110   3109   3111   3112      9   180.00  11.29680   2 ;    O12-   C11-   O11-    C1
  3111   3112   3115   3116      9     0.00   0.00000   0 ;    O11-    C1-    C2-    HX
  3111   3112   3115   3116      9     0.00   1.04600   1 ;    O11-    C1-    C2-    HX
  3111   3112   3115   3117      9     0.00   0.00000   0 ;    O11-    C1-    C2-    C3
  3111   3112   3115   3117      9     0.00   0.00000   0 ;    O11-    C1-    C2-    C3
  3111   3112   3115   3117      9     0.00   0.00000   0 ;    O11-    C1-    C2-    C3
  3111   3112   3115   3117      9     0.00   0.00000   0 ;    O11-    C1-    C2-    C3
  3111   3112   3115   3117      9     0.00   0.00000   0 ;    O11-    C1-    C2-    C3
  3111   3112   3115   3144      9     0.00   1.25520   2 ;    O11-    C1-    C2-   O21
  3111   3112   3115   3144      9     0.00   4.18400   3 ;    O11-    C1-    C2-   O21
  3111   3112   3115   3144      9   180.00  -0.41840   1 ;    O11-    C1-    C2-   O21
  3112   3115   3117   3118      9     0.00   0.65270   3 ;     C1-    C2-    C3-    HA
  3112   3115   3117   3119      9     0.00   0.65270   3 ;     C1-    C2-    C3-    HB
  3112   3115   3117   3120      9   180.00   3.34720   1 ;     C1-    C2-    C3-   O31
  3112   3115   3144   3145      9     0.00  -0.41840   1 ;     C1-    C2-   O21-   C21
  3113   3112   3115   3116      9     0.00   0.65270   3 ;     HR-    C1-    C2-    HX
  3113   3112   3115   3117      9     0.00   0.65270   3 ;     HR-    C1-    C2-    C3
  3113   3112   3115   3144      9     0.00   0.00000   0 ;     HR-    C1-    C2-   O21
  3113   3112   3115   3144      9     0.00   1.04600   1 ;     HR-    C1-    C2-   O21
  3114   3112   3115   3116      9     0.00   0.65270   3 ;     HS-    C1-    C2-    HX
  3114   3112   3115   3117      9     0.00   0.65270   3 ;     HS-    C1-    C2-    C3
  3114   3112   3115   3144      9     0.00   0.00000   0 ;     HS-    C1-    C2-   O21
  3114   3112   3115   3144      9     0.00   1.04600   1 ;     HS-    C1-    C2-   O21
  3115   3117   3120   3121      9     0.00   0.00000   0 ;     C2-    C3-   O31-   P31
  3115   3117   3120   3121      9   180.00  -3.34720   2 ;     C2-    C3-   O31-   P31
  3115   3144   3145   3146      9   180.00   5.85760   1 ;     C2-   O21-   C21-   O22
  3115   3144   3145   3146      9   180.00  11.29680   2 ;     C2-   O21-   C21-   O22
  3115   3144   3145   3184      9   180.00  11.29680   2 ;     C2-   O21-   C21-   C12
  3116   3115   3117   3118      9     0.00   0.65270   3 ;     HX-    C2-    C3-    HA
  3116   3115   3117   3119      9     0.00   0.65270   3 ;     HX-    C2-    C3-    HB
  3116   3115   3117   3120      9     0.00   0.00000   0 ;     HX-    C2-    C3-   O31
  3116   3115   3117   3120      9     0.00   1.04600   1 ;     HX-    C2-    C3-   O31
  3116   3115   3144   3145      9     0.00   1.60247   3 ;     HX-    C2-   O21-   C21
  3117   3115   3144   3145      9     0.00  -0.41840   1 ;     C3-    C2-   O21-   C21
  3117   3120   3121   3122      9     0.00   2.51040   3 ;     C3-   O31-   P31-   O32
  3117   3120   3121   3122      9     0.00   9.62320   2 ;     C3-   O31-   P31-   O32
  3117   3120   3121   3142      9     0.00   0.00000   0 ;     C3-   O31-   P31-   O33
  3117   3120   3121   3142      9     0.00   0.00000   0 ;     C3-   O31-   P31-   O33
  3117   3120   3121   3142      9     0.00   0.00000   0 ;     C3-   O31-   P31-   O33
  3117   3120   3121   3142      9     0.00   0.00000   0 ;     C3-   O31-   P31-   O33
  3117   3120   3121   3142      9     0.00   0.83680   2 ;     C3-   O31-   P31-   O33
  3117   3120   3121   3143      9     0.00   0.00000   0 ;     C3-   O31-   P31-   O34
  3117   3120   3121   3143      9     0.00   0.00000   0 ;     C3-   O31-   P31-   O34
  3117   3120   3121   3143      9     0.00   0.00000   0 ;     C3-   O31-   P31-   O34
  3117   3120   3121   3143      9     0.00   0.00000   0 ;     C3-   O31-   P31-   O34
  3117   3120   3121   3143      9     0.00   0.83680   2 ;     C3-   O31-   P31-   O34
  3118   3117   3115   3144      9     0.00   0.00000   0 ;     HA-    C3-    C2-   O21
  3118   3117   3115   3144      9     0.00   1.04600   1 ;     HA-    C3-    C2-   O21
  3118   3117   3120   3121      9     0.00   0.00000   0 ;     HA-    C3-   O31-   P31
  3118   3117   3120   3121      9     0.00   0.00000   0 ;     HA-    C3-   O31-   P31
  3118   3117   3120   3121      9     0.00   0.00000   0 ;     HA-    C3-   O31-   P31
  3118   3117   3120   3121      9     0.00   0.00000   0 ;     HA-    C3-   O31-   P31
  3118   3117   3120   3121      9     0.00   1.60247   3 ;     HA-    C3-   O31-   P31
  3119   3117   3115   3144      9     0.00   0.00000   0 ;     HB-    C3-    C2-   O21
  3119   3117   3115   3144      9     0.00   1.04600   1 ;     HB-    C3-    C2-   O21
  3119   3117   3120   3121      9     0.00   0.00000   0 ;     HB-    C3-   O31-   P31
  3119   3117   3120   3121      9     0.00   0.00000   0 ;     HB-    C3-   O31-   P31
  3119   3117   3120   3121      9     0.00   0.00000   0 ;     HB-    C3-   O31-   P31
  3119   3117   3120   3121      9     0.00   0.00000   0 ;     HB-    C3-   O31-   P31
  3119   3117   3120   3121      9     0.00   1.60247   3 ;     HB-    C3-   O31-   P31
  3120   3117   3115   3144      9     0.00   0.00000   0 ;    O31-    C3-    C2-   O21
  3120   3117   3115   3144      9     0.00   0.00000   0 ;    O31-    C3-    C2-   O21
  3120   3117   3115   3144      9     0.00   0.00000   0 ;    O31-    C3-    C2-   O21
  3120   3117   3115   3144      9     0.00   0.00000   0 ;    O31-    C3-    C2-   O21
  3120   3117   3115   3144      9     0.00   0.00000   0 ;    O31-    C3-    C2-   O21
  3120   3121   3122   3123      9     0.00   2.51040   3 ;    O31-   P31-   O32-   C31
  3120   3121   3122   3123      9     0.00   9.62320   2 ;    O31-   P31-   O32-   C31
  3121   3122   3123   3124      9     0.00   0.00000   0 ;    P31-   O32-   C31-   H1A
  3121   3122   3123   3124      9     0.00   0.00000   0 ;    P31-   O32-   C31-   H1A
  3121   3122   3123   3124      9     0.00   0.00000   0 ;    P31-   O32-   C31-   H1A
  3121   3122   3123   3124      9     0.00   0.00000   0 ;    P31-   O32-   C31-   H1A
  3121   3122   3123   3124      9     0.00   1.60247   3 ;    P31-   O32-   C31-   H1A
  3121   3122   3123   3125      9     0.00   0.00000   0 ;    P31-   O32-   C31-   H1B
  3121   3122   3123   3125      9     0.00   0.00000   0 ;    P31-   O32-   C31-   H1B
  3121   3122   3123   3125      9     0.00   0.00000   0 ;    P31-   O32-   C31-   H1B
  3121   3122   3123   3125      9     0.00   0.00000   0 ;    P31-   O32-   C31-   H1B
  3121   3122   3123   3125      9     0.00   1.60247   3 ;    P31-   O32-   C31-   H1B
  3121   3122   3123   3126      9     0.00   0.00000   0 ;    P31-   O32-   C31-   C32
  3121   3122   3123   3126      9   180.00  -3.34720   2 ;    P31-   O32-   C31-   C32
  3122   3123   3126   3127      9     0.00   0.65270   3 ;    O32-   C31-   C32-   H2A
  3122   3123   3126   3128      9     0.00   0.65270   3 ;    O32-   C31-   C32-   H2B
  3122   3123   3126   3129      9     0.00   4.18400   3 ;    O32-   C31-   C32-   N31
  3123   3122   3121   3142      9     0.00   0.00000   0 ;    C31-   O32-   P31-   O33
  3123   3122   3121   3142      9     0.00   0.00000   0 ;    C31-   O32-   P31-   O33
  3123   3122   3121   3142      9     0.00   0.00000   0 ;    C31-   O32-   P31-   O33
  3123   3122   3121   3142      9     0.00   0.00000   0 ;    C31-   O32-   P31-   O33
  3123   3122   3121   3142      9     0.00   0.83680   2 ;    C31-   O32-   P31-   O33
  3123   3122   3121   3143      9     0.00   0.00000   0 ;    C31-   O32-   P31-   O34
  3123   3122   3121   3143      9     0.00   0.00000   0 ;    C31-   O32-   P31-   O34
  3123   3122   3121   3143      9     0.00   0.00000   0 ;    C31-   O32-   P31-   O34
  3123   3122   3121   3143      9     0.00   0.00000   0 ;    C31-   O32-   P31-   O34
  3123   3122   3121   3143      9     0.00   0.83680   2 ;    C31-   O32-   P31-   O34
  3123   3126   3129   3130      9     0.00   0.65270   3 ;    C31-   C32-   N31-   C33
  3123   3126   3129   3134      9     0.00   0.65270   3 ;    C31-   C32-   N31-   C34
  3123   3126   3129   3138      9     0.00   0.65270   3 ;    C31-   C32-   N31-   C35
  3124   3123   3126   3127      9     0.00   0.65270   3 ;    H1A-   C31-   C32-   H2A
  3124   3123   3126   3128      9     0.00   0.65270   3 ;    H1A-   C31-   C32-   H2B
  3124   3123   3126   3129      9     0.00   0.65270   3 ;    H1A-   C31-   C32-   N31
  3125   3123   3126   3127      9     0.00   0.65270   3 ;    H1B-   C31-   C32-   H2A
  3125   3123   3126   3128      9     0.00   0.65270   3 ;    H1B-   C31-   C32-   H2B
  3125   3123   3126   3129      9     0.00   0.65270   3 ;    H1B-   C31-   C32-   N31
  3126   3129   3130   3131      9     0.00   0.65270   3 ;    C32-   N31-   C33-   H3A
  3126   3129   3130   3132      9     0.00   0.65270   3 ;    C32-   N31-   C33-   H3B
  3126   3129   3130   3133      9     0.00   0.65270   3 ;    C32-   N31-   C33-   H3C
  3126   3129   3134   3135      9     0.00   0.65270   3 ;    C32-   N31-   C34-   H4A
  3126   3129   3134   3136      9     0.00   0.65270   3 ;    C32-   N31-   C34-   H4B
  3126   3129   3134   3137      9     0.00   0.65270   3 ;    C32-   N31-   C34-   H4C
  3126   3129   3138   3139      9     0.00   0.65270   3 ;    C32-   N31-   C35-   H5A
  3126   3129   3138   3140      9     0.00   0.65270   3 ;    C32-   N31-   C35-   H5B
  3126   3129   3138   3141      9     0.00   0.65270   3 ;    C32-   N31-   C35-   H5C
  3127   3126   3129   3130      9     0.00   0.65270   3 ;    H2A-   C32-   N31-   C33
  3127   3126   3129   3134      9     0.00   0.65270   3 ;    H2A-   C32-   N31-   C34
  3127   3126   3129   3138      9     0.00   0.65270   3 ;    H2A-   C32-   N31-   C35
  3128   3126   3129   3130      9     0.00   0.65270   3 ;    H2B-   C32-   N31-   C33
  3128   3126   3129   3134      9     0.00   0.65270   3 ;    H2B-   C32-   N31-   C34
  3128   3126   3129   3138      9     0.00   0.65270   3 ;    H2B-   C32-   N31-   C35
  3130   3129   3134   3135      9     0.00   0.65270   3 ;    C33-   N31-   C34-   H4A
  3130   3129   3134   3136      9     0.00   0.65270   3 ;    C33-   N31-   C34-   H4B
  3130   3129   3134   3137      9     0.00   0.65270   3 ;    C33-   N31-   C34-   H4C
  3130   3129   3138   3139      9     0.00   0.65270   3 ;    C33-   N31-   C35-   H5A
  3130   3129   3138   3140      9     0.00   0.65270   3 ;    C33-   N31-   C35-   H5B
  3130   3129   3138   3141      9     0.00   0.65270   3 ;    C33-   N31-   C35-   H5C
  3131   3130   3129   3134      9     0.00   0.65270   3 ;    H3A-   C33-   N31-   C34
  3131   3130   3129   3138      9     0.00   0.65270   3 ;    H3A-   C33-   N31-   C35
  3132   3130   3129   3134      9     0.00   0.65270   3 ;    H3B-   C33-   N31-   C34
  3132   3130   3129   3138      9     0.00   0.65270   3 ;    H3B-   C33-   N31-   C35
  3133   3130   3129   3134      9     0.00   0.65270   3 ;    H3C-   C33-   N31-   C34
  3133   3130   3129   3138      9     0.00   0.65270   3 ;    H3C-   C33-   N31-   C35
  3134   3129   3138   3139      9     0.00   0.65270   3 ;    C34-   N31-   C35-   H5A
  3134   3129   3138   3140      9     0.00   0.65270   3 ;    C34-   N31-   C35-   H5B
  3134   3129   3138   3141      9     0.00   0.65270   3 ;    C34-   N31-   C35-   H5C
  3135   3134   3129   3138      9     0.00   0.65270   3 ;    H4A-   C34-   N31-   C35
  3136   3134   3129   3138      9     0.00   0.65270   3 ;    H4B-   C34-   N31-   C35
  3137   3134   3129   3138      9     0.00   0.65270   3 ;    H4C-   C34-   N31-   C35
  3144   3145   3184   3181      9   180.00   0.00000   2 ;    O21-   C21-   C12-   C13
  3144   3145   3184   3185      9   180.00   0.00000   2 ;    O21-   C21-   C12-   H2R
  3144   3145   3184   3186      9   180.00   0.00000   2 ;    O21-   C21-   C12-   H2S
  3145   3184   3181   3178      9     0.00   0.65270   3 ;    C21-   C12-   C13-   C14
  3145   3184   3181   3182      9     0.00   0.65270   3 ;    C21-   C12-   C13-   H3R
  3145   3184   3181   3183      9     0.00   0.65270   3 ;    C21-   C12-   C13-   H3S
  3146   3145   3184   3181      9   180.00   0.00000   2 ;    O22-   C21-   C12-   C13
  3146   3145   3184   3185      9     0.00   3.34720   1 ;    O22-   C21-   C12-   H2R
  3146   3145   3184   3185      9   180.00   0.33472   3 ;    O22-   C21-   C12-   H2R
  3146   3145   3184   3186      9     0.00   3.34720   1 ;    O22-   C21-   C12-   H2S
  3146   3145   3184   3186      9   180.00   0.33472   3 ;    O22-   C21-   C12-   H2S
  3147   3148   3151   3152      9     0.00   0.62760   3 ;   H14T-  C114-  C113-  H13R
  3147   3148   3151   3153      9     0.00   0.62760   3 ;   H14T-  C114-  C113-  H13S
  3147   3148   3151   3154      9     0.00   0.66944   3 ;   H14T-  C114-  C113-  C112
  3148   3151   3154   3155      9     0.00   0.66944   3 ;   C114-  C113-  C112-  H12R
  3148   3151   3154   3156      9     0.00   0.66944   3 ;   C114-  C113-  C112-  H12S
  3148   3151   3154   3157      9     0.00   0.41840   1 ;   C114-  C113-  C112-  C111
  3148   3151   3154   3157      9     0.00   0.41840   2 ;   C114-  C113-  C112-  C111
  3148   3151   3154   3157      9     0.00   0.41840   4 ;   C114-  C113-  C112-  C111
  3148   3151   3154   3157      9     0.00   0.41840   5 ;   C114-  C113-  C112-  C111
  3148   3151   3154   3157      9     0.00   1.25520   3 ;   C114-  C113-  C112-  C111
  3149   3148   3151   3152      9     0.00   0.62760   3 ;   H14R-  C114-  C113-  H13R
  3149   3148   3151   3153      9     0.00   0.62760   3 ;   H14R-  C114-  C113-  H13S
  3149   3148   3151   3154      9     0.00   0.66944   3 ;   H14R-  C114-  C113-  C112
  3150   3148   3151   3152      9     0.00   0.62760   3 ;   H14S-  C114-  C113-  H13R
  3150   3148   3151   3153      9     0.00   0.62760   3 ;   H14S-  C114-  C113-  H13S
  3150   3148   3151   3154      9     0.00   0.66944   3 ;   H14S-  C114-  C113-  C112
  3151   3154   3157   3158      9     0.00   0.66944   3 ;   C113-  C112-  C111-  H11R
  3151   3154   3157   3159      9     0.00   0.66944   3 ;   C113-  C112-  C111-  H11S
  3151   3154   3157   3160      9     0.00   0.41840   1 ;   C113-  C112-  C111-  C110
  3151   3154   3157   3160      9     0.00   0.41840   2 ;   C113-  C112-  C111-  C110
  3151   3154   3157   3160      9     0.00   0.41840   4 ;   C113-  C112-  C111-  C110
  3151   3154   3157   3160      9     0.00   0.41840   5 ;   C113-  C112-  C111-  C110
  3151   3154   3157   3160      9     0.00   1.25520   3 ;   C113-  C112-  C111-  C110
  3152   3151   3154   3155      9     0.00   0.62760   3 ;   H13R-  C113-  C112-  H12R
  3152   3151   3154   3156      9     0.00   0.62760   3 ;   H13R-  C113-  C112-  H12S
  3152   3151   3154   3157      9     0.00   0.66944   3 ;   H13R-  C113-  C112-  C111
  3153   3151   3154   3155      9     0.00   0.62760   3 ;   H13S-  C113-  C112-  H12R
  3153   3151   3154   3156      9     0.00   0.62760   3 ;   H13S-  C113-  C112-  H12S
  3153   3151   3154   3157      9     0.00   0.66944   3 ;   H13S-  C113-  C112-  C111
  3154   3157   3160   3161      9     0.00   0.66944   3 ;   C112-  C111-  C110-  H10R
  3154   3157   3160   3162      9     0.00   0.66944   3 ;   C112-  C111-  C110-  H10S
  3154   3157   3160   3163      9     0.00   0.41840   1 ;   C112-  C111-  C110-   C19
  3154   3157   3160   3163      9     0.00   0.41840   2 ;   C112-  C111-  C110-   C19
  3154   3157   3160   3163      9     0.00   0.41840   4 ;   C112-  C111-  C110-   C19
  3154   3157   3160   3163      9     0.00   0.41840   5 ;   C112-  C111-  C110-   C19
  3154   3157   3160   3163      9     0.00   1.25520   3 ;   C112-  C111-  C110-   C19
  3155   3154   3157   3158      9     0.00   0.62760   3 ;   H12R-  C112-  C111-  H11R
  3155   3154   3157   3159      9     0.00   0.62760   3 ;   H12R-  C112-  C111-  H11S
  3155   3154   3157   3160      9     0.00   0.66944   3 ;   H12R-  C112-  C111-  C110
  3156   3154   3157   3158      9     0.00   0.62760   3 ;   H12S-  C112-  C111-  H11R
  3156   3154   3157   3159      9     0.00   0.62760   3 ;   H12S-  C112-  C111-  H11S
  3156   3154   3157   3160      9     0.00   0.66944   3 ;   H12S-  C112-  C111-  C110
  3157   3160   3163   3164      9     0.00   0.66944   3 ;   C111-  C110-   C19-   H9R
  3157   3160   3163   3165      9     0.00   0.66944   3 ;   C111-  C110-   C19-   H9S
  3157   3160   3163   3166      9     0.00   0.41840   1 ;   C111-  C110-   C19-   C18
  3157   3160   3163   3166      9     0.00   0.41840   2 ;   C111-  C110-   C19-   C18
  3157   3160   3163   3166      9     0.00   0.41840   4 ;   C111-  C110-   C19-   C18
  3157   3160   3163   3166      9     0.00   0.41840   5 ;   C111-  C110-   C19-   C18
  3157   3160   3163   3166      9     0.00   1.25520   3 ;   C111-  C110-   C19-   C18
  3158   3157   3160   3161      9     0.00   0.62760   3 ;   H11R-  C111-  C110-  H10R
  3158   3157   3160   3162      9     0.00   0.62760   3 ;   H11R-  C111-  C110-  H10S
  3158   3157   3160   3163      9     0.00   0.66944   3 ;   H11R-  C111-  C110-   C19
  3159   3157   3160   3161      9     0.00   0.62760   3 ;   H11S-  C111-  C110-  H10R
  3159   3157   3160   3162      9     0.00   0.62760   3 ;   H11S-  C111-  C110-  H10S
  3159   3157   3160   3163      9     0.00   0.66944   3 ;   H11S-  C111-  C110-   C19
  3160   3163   3166   3167      9     0.00   0.66944   3 ;   C110-   C19-   C18-   H8R
  3160   3163   3166   3168      9     0.00   0.66944   3 ;   C110-   C19-   C18-   H8S
  3160   3163   3166   3169      9     0.00   0.41840   1 ;   C110-   C19-   C18-   C17
  3160   3163   3166   3169      9     0.00   0.41840   2 ;   C110-   C19-   C18-   C17
  3160   3163   3166   3169      9     0.00   0.41840   4 ;   C110-   C19-   C18-   C17
  3160   3163   3166   3169      9     0.00   0.41840   5 ;   C110-   C19-   C18-   C17
  3160   3163   3166   3169      9     0.00   1.25520   3 ;   C110-   C19-   C18-   C17
  3161   3160   3163   3164      9     0.00   0.62760   3 ;   H10R-  C110-   C19-   H9R
  3161   3160   3163   3165      9     0.00   0.62760   3 ;   H10R-  C110-   C19-   H9S
  3161   3160   3163   3166      9     0.00   0.66944   3 ;   H10R-  C110-   C19-   C18
  3162   3160   3163   3164      9     0.00   0.62760   3 ;   H10S-  C110-   C19-   H9R
  3162   3160   3163   3165      9     0.00   0.62760   3 ;   H10S-  C110-   C19-   H9S
  3162   3160   3163   3166      9     0.00   0.66944   3 ;   H10S-  C110-   C19-   C18
  3163   3166   3169   3170      9     0.00   0.66944   3 ;    C19-   C18-   C17-   H7R
  3163   3166   3169   3171      9     0.00   0.66944   3 ;    C19-   C18-   C17-   H7S
  3163   3166   3169   3172      9     0.00   0.41840   1 ;    C19-   C18-   C17-   C16
  3163   3166   3169   3172      9     0.00   0.41840   2 ;    C19-   C18-   C17-   C16
  3163   3166   3169   3172      9     0.00   0.41840   4 ;    C19-   C18-   C17-   C16
  3163   3166   3169   3172      9     0.00   0.41840   5 ;    C19-   C18-   C17-   C16
  3163   3166   3169   3172      9     0.00   1.25520   3 ;    C19-   C18-   C17-   C16
  3164   3163   3166   3167      9     0.00   0.62760   3 ;    H9R-   C19-   C18-   H8R
  3164   3163   3166   3168      9     0.00   0.62760   3 ;    H9R-   C19-   C18-   H8S
  3164   3163   3166   3169      9     0.00   0.66944   3 ;    H9R-   C19-   C18-   C17
  3165   3163   3166   3167      9     0.00   0.62760   3 ;    H9S-   C19-   C18-   H8R
  3165   3163   3166   3168      9     0.00   0.62760   3 ;    H9S-   C19-   C18-   H8S
  3165   3163   3166   3169      9     0.00   0.66944   3 ;    H9S-   C19-   C18-   C17
  3166   3169   3172   3173      9     0.00   0.66944   3 ;    C18-   C17-   C16-   H6R
  3166   3169   3172   3174      9     0.00   0.66944   3 ;    C18-   C17-   C16-   H6S
  3166   3169   3172   3175      9     0.00   0.41840   1 ;    C18-   C17-   C16-   C15
  3166   3169   3172   3175      9     0.00   0.41840   2 ;    C18-   C17-   C16-   C15
  3166   3169   3172   3175      9     0.00   0.41840   4 ;    C18-   C17-   C16-   C15
  3166   3169   3172   3175      9     0.00   0.41840   5 ;    C18-   C17-   C16-   C15
  3166   3169   3172   3175      9     0.00   1.25520   3 ;    C18-   C17-   C16-   C15
  3167   3166   3169   3170      9     0.00   0.62760   3 ;    H8R-   C18-   C17-   H7R
  3167   3166   3169   3171      9     0.00   0.62760   3 ;    H8R-   C18-   C17-   H7S
  3167   3166   3169   3172      9     0.00   0.66944   3 ;    H8R-   C18-   C17-   C16
  3168   3166   3169   3170      9     0.00   0.62760   3 ;    H8S-   C18-   C17-   H7R
  3168   3166   3169   3171      9     0.00   0.62760   3 ;    H8S-   C18-   C17-   H7S
  3168   3166   3169   3172      9     0.00   0.66944   3 ;    H8S-   C18-   C17-   C16
  3169   3172   3175   3176      9     0.00   0.66944   3 ;    C17-   C16-   C15-   H5R
  3169   3172   3175   3177      9     0.00   0.66944   3 ;    C17-   C16-   C15-   H5S
  3169   3172   3175   3178      9     0.00   0.41840   1 ;    C17-   C16-   C15-   C14
  3169   3172   3175   3178      9     0.00   0.41840   2 ;    C17-   C16-   C15-   C14
  3169   3172   3175   3178      9     0.00   0.41840   4 ;    C17-   C16-   C15-   C14
  3169   3172   3175   3178      9     0.00   0.41840   5 ;    C17-   C16-   C15-   C14
  3169   3172   3175   3178      9     0.00   1.25520   3 ;    C17-   C16-   C15-   C14
  3170   3169   3172   3173      9     0.00   0.62760   3 ;    H7R-   C17-   C16-   H6R
  3170   3169   3172   3174      9     0.00   0.62760   3 ;    H7R-   C17-   C16-   H6S
  3170   3169   3172   3175      9     0.00   0.66944   3 ;    H7R-   C17-   C16-   C15
  3171   3169   3172   3173      9     0.00   0.62760   3 ;    H7S-   C17-   C16-   H6R
  3171   3169   3172   3174      9     0.00   0.62760   3 ;    H7S-   C17-   C16-   H6S
  3171   3169   3172   3175      9     0.00   0.66944   3 ;    H7S-   C17-   C16-   C15
  3172   3175   3178   3179      9     0.00   0.66944   3 ;    C16-   C15-   C14-   H4R
  3172   3175   3178   3180      9     0.00   0.66944   3 ;    C16-   C15-   C14-   H4S
  3172   3175   3178   3181      9     0.00   0.41840   1 ;    C16-   C15-   C14-   C13
  3172   3175   3178   3181      9     0.00   0.41840   2 ;    C16-   C15-   C14-   C13
  3172   3175   3178   3181      9     0.00   0.41840   4 ;    C16-   C15-   C14-   C13
  3172   3175   3178   3181      9     0.00   0.41840   5 ;    C16-   C15-   C14-   C13
  3172   3175   3178   3181      9     0.00   1.25520   3 ;    C16-   C15-   C14-   C13
  3173   3172   3175   3176      9     0.00   0.62760   3 ;    H6R-   C16-   C15-   H5R
  3173   3172   3175   3177      9     0.00   0.62760   3 ;    H6R-   C16-   C15-   H5S
  3173   3172   3175   3178      9     0.00   0.66944   3 ;    H6R-   C16-   C15-   C14
  3174   3172   3175   3176      9     0.00   0.62760   3 ;    H6S-   C16-   C15-   H5R
  3174   3172   3175   3177      9     0.00   0.62760   3 ;    H6S-   C16-   C15-   H5S
  3174   3172   3175   3178      9     0.00   0.66944   3 ;    H6S-   C16-   C15-   C14
  3175   3178   3181   3182      9     0.00   0.66944   3 ;    C15-   C14-   C13-   H3R
  3175   3178   3181   3183      9     0.00   0.66944   3 ;    C15-   C14-   C13-   H3S
  3175   3178   3181   3184      9     0.00   0.41840   1 ;    C15-   C14-   C13-   C12
  3175   3178   3181   3184      9     0.00   0.41840   2 ;    C15-   C14-   C13-   C12
  3175   3178   3181   3184      9     0.00   0.41840   4 ;    C15-   C14-   C13-   C12
  3175   3178   3181   3184      9     0.00   0.41840   5 ;    C15-   C14-   C13-   C12
  3175   3178   3181   3184      9     0.00   1.25520   3 ;    C15-   C14-   C13-   C12
  3176   3175   3178   3179      9     0.00   0.62760   3 ;    H5R-   C15-   C14-   H4R
  3176   3175   3178   3180      9     0.00   0.62760   3 ;    H5R-   C15-   C14-   H4S
  3176   3175   3178   3181      9     0.00   0.66944   3 ;    H5R-   C15-   C14-   C13
  3177   3175   3178   3179      9     0.00   0.62760   3 ;    H5S-   C15-   C14-   H4R
  3177   3175   3178   3180      9     0.00   0.62760   3 ;    H5S-   C15-   C14-   H4S
  3177   3175   3178   3181      9     0.00   0.66944   3 ;    H5S-   C15-   C14-   C13
  3178   3181   3184   3185      9     0.00   0.66944   3 ;    C14-   C13-   C12-   H2R
  3178   3181   3184   3186      9     0.00   0.66944   3 ;    C14-   C13-   C12-   H2S
  3179   3178   3181   3182      9     0.00   0.62760   3 ;    H4R-   C14-   C13-   H3R
  3179   3178   3181   3183      9     0.00   0.62760   3 ;    H4R-   C14-   C13-   H3S
  3179   3178   3181   3184      9     0.00   0.66944   3 ;    H4R-   C14-   C13-   C12
  3180   3178   3181   3182      9     0.00   0.62760   3 ;    H4S-   C14-   C13-   H3R
  3180   3178   3181   3183      9     0.00   0.62760   3 ;    H4S-   C14-   C13-   H3S
  3180   3178   3181   3184      9     0.00   0.66944   3 ;    H4S-   C14-   C13-   C12
  3182   3181   3184   3185      9     0.00   0.62760   3 ;    H3R-   C13-   C12-   H2R
  3182   3181   3184   3186      9     0.00   0.62760   3 ;    H3R-   C13-   C12-   H2S
  3183   3181   3184   3185      9     0.00   0.62760   3 ;    H3S-   C13-   C12-   H2R
  3183   3181   3184   3186      9     0.00   0.62760   3 ;    H3S-   C13-   C12-   H2S
  3187   3188   3191   3192      9     0.00   0.62760   3 ;   H14T-  C114-  C113-  H13R
  3187   3188   3191   3193      9     0.00   0.62760   3 ;   H14T-  C114-  C113-  H13S
  3187   3188   3191   3194      9     0.00   0.66944   3 ;   H14T-  C114-  C113-  C112
  3188   3191   3194   3195      9     0.00   0.66944   3 ;   C114-  C113-  C112-  H12R
  3188   3191   3194   3196      9     0.00   0.66944   3 ;   C114-  C113-  C112-  H12S
  3188   3191   3194   3197      9     0.00   0.41840   1 ;   C114-  C113-  C112-  C111
  3188   3191   3194   3197      9     0.00   0.41840   2 ;   C114-  C113-  C112-  C111
  3188   3191   3194   3197      9     0.00   0.41840   4 ;   C114-  C113-  C112-  C111
  3188   3191   3194   3197      9     0.00   0.41840   5 ;   C114-  C113-  C112-  C111
  3188   3191   3194   3197      9     0.00   1.25520   3 ;   C114-  C113-  C112-  C111
  3189   3188   3191   3192      9     0.00   0.62760   3 ;   H14R-  C114-  C113-  H13R
  3189   3188   3191   3193      9     0.00   0.62760   3 ;   H14R-  C114-  C113-  H13S
  3189   3188   3191   3194      9     0.00   0.66944   3 ;   H14R-  C114-  C113-  C112
  3190   3188   3191   3192      9     0.00   0.62760   3 ;   H14S-  C114-  C113-  H13R
  3190   3188   3191   3193      9     0.00   0.62760   3 ;   H14S-  C114-  C113-  H13S
  3190   3188   3191   3194      9     0.00   0.66944   3 ;   H14S-  C114-  C113-  C112
  3191   3194   3197   3198      9     0.00   0.66944   3 ;   C113-  C112-  C111-  H11R
  3191   3194   3197   3199      9     0.00   0.66944   3 ;   C113-  C112-  C111-  H11S
  3191   3194   3197   3200      9     0.00   0.41840   1 ;   C113-  C112-  C111-  C110
  3191   3194   3197   3200      9     0.00   0.41840   2 ;   C113-  C112-  C111-  C110
  3191   3194   3197   3200      9     0.00   0.41840   4 ;   C113-  C112-  C111-  C110
  3191   3194   3197   3200      9     0.00   0.41840   5 ;   C113-  C112-  C111-  C110
  3191   3194   3197   3200      9     0.00   1.25520   3 ;   C113-  C112-  C111-  C110
  3192   3191   3194   3195      9     0.00   0.62760   3 ;   H13R-  C113-  C112-  H12R
  3192   3191   3194   3196      9     0.00   0.62760   3 ;   H13R-  C113-  C112-  H12S
  3192   3191   3194   3197      9     0.00   0.66944   3 ;   H13R-  C113-  C112-  C111
  3193   3191   3194   3195      9     0.00   0.62760   3 ;   H13S-  C113-  C112-  H12R
  3193   3191   3194   3196      9     0.00   0.62760   3 ;   H13S-  C113-  C112-  H12S
  3193   3191   3194   3197      9     0.00   0.66944   3 ;   H13S-  C113-  C112-  C111
  3194   3197   3200   3201      9     0.00   0.66944   3 ;   C112-  C111-  C110-  H10R
  3194   3197   3200   3202      9     0.00   0.66944   3 ;   C112-  C111-  C110-  H10S
  3194   3197   3200   3203      9     0.00   0.41840   1 ;   C112-  C111-  C110-   C19
  3194   3197   3200   3203      9     0.00   0.41840   2 ;   C112-  C111-  C110-   C19
  3194   3197   3200   3203      9     0.00   0.41840   4 ;   C112-  C111-  C110-   C19
  3194   3197   3200   3203      9     0.00   0.41840   5 ;   C112-  C111-  C110-   C19
  3194   3197   3200   3203      9     0.00   1.25520   3 ;   C112-  C111-  C110-   C19
  3195   3194   3197   3198      9     0.00   0.62760   3 ;   H12R-  C112-  C111-  H11R
  3195   3194   3197   3199      9     0.00   0.62760   3 ;   H12R-  C112-  C111-  H11S
  3195   3194   3197   3200      9     0.00   0.66944   3 ;   H12R-  C112-  C111-  C110
  3196   3194   3197   3198      9     0.00   0.62760   3 ;   H12S-  C112-  C111-  H11R
  3196   3194   3197   3199      9     0.00   0.62760   3 ;   H12S-  C112-  C111-  H11S
  3196   3194   3197   3200      9     0.00   0.66944   3 ;   H12S-  C112-  C111-  C110
  3197   3200   3203   3204      9     0.00   0.66944   3 ;   C111-  C110-   C19-   H9R
  3197   3200   3203   3205      9     0.00   0.66944   3 ;   C111-  C110-   C19-   H9S
  3197   3200   3203   3206      9     0.00   0.41840   1 ;   C111-  C110-   C19-   C18
  3197   3200   3203   3206      9     0.00   0.41840   2 ;   C111-  C110-   C19-   C18
  3197   3200   3203   3206      9     0.00   0.41840   4 ;   C111-  C110-   C19-   C18
  3197   3200   3203   3206      9     0.00   0.41840   5 ;   C111-  C110-   C19-   C18
  3197   3200   3203   3206      9     0.00   1.25520   3 ;   C111-  C110-   C19-   C18
  3198   3197   3200   3201      9     0.00   0.62760   3 ;   H11R-  C111-  C110-  H10R
  3198   3197   3200   3202      9     0.00   0.62760   3 ;   H11R-  C111-  C110-  H10S
  3198   3197   3200   3203      9     0.00   0.66944   3 ;   H11R-  C111-  C110-   C19
  3199   3197   3200   3201      9     0.00   0.62760   3 ;   H11S-  C111-  C110-  H10R
  3199   3197   3200   3202      9     0.00   0.62760   3 ;   H11S-  C111-  C110-  H10S
  3199   3197   3200   3203      9     0.00   0.66944   3 ;   H11S-  C111-  C110-   C19
  3200   3203   3206   3207      9     0.00   0.66944   3 ;   C110-   C19-   C18-   H8R
  3200   3203   3206   3208      9     0.00   0.66944   3 ;   C110-   C19-   C18-   H8S
  3200   3203   3206   3209      9     0.00   0.41840   1 ;   C110-   C19-   C18-   C17
  3200   3203   3206   3209      9     0.00   0.41840   2 ;   C110-   C19-   C18-   C17
  3200   3203   3206   3209      9     0.00   0.41840   4 ;   C110-   C19-   C18-   C17
  3200   3203   3206   3209      9     0.00   0.41840   5 ;   C110-   C19-   C18-   C17
  3200   3203   3206   3209      9     0.00   1.25520   3 ;   C110-   C19-   C18-   C17
  3201   3200   3203   3204      9     0.00   0.62760   3 ;   H10R-  C110-   C19-   H9R
  3201   3200   3203   3205      9     0.00   0.62760   3 ;   H10R-  C110-   C19-   H9S
  3201   3200   3203   3206      9     0.00   0.66944   3 ;   H10R-  C110-   C19-   C18
  3202   3200   3203   3204      9     0.00   0.62760   3 ;   H10S-  C110-   C19-   H9R
  3202   3200   3203   3205      9     0.00   0.62760   3 ;   H10S-  C110-   C19-   H9S
  3202   3200   3203   3206      9     0.00   0.66944   3 ;   H10S-  C110-   C19-   C18
  3203   3206   3209   3210      9     0.00   0.66944   3 ;    C19-   C18-   C17-   H7R
  3203   3206   3209   3211      9     0.00   0.66944   3 ;    C19-   C18-   C17-   H7S
  3203   3206   3209   3212      9     0.00   0.41840   1 ;    C19-   C18-   C17-   C16
  3203   3206   3209   3212      9     0.00   0.41840   2 ;    C19-   C18-   C17-   C16
  3203   3206   3209   3212      9     0.00   0.41840   4 ;    C19-   C18-   C17-   C16
  3203   3206   3209   3212      9     0.00   0.41840   5 ;    C19-   C18-   C17-   C16
  3203   3206   3209   3212      9     0.00   1.25520   3 ;    C19-   C18-   C17-   C16
  3204   3203   3206   3207      9     0.00   0.62760   3 ;    H9R-   C19-   C18-   H8R
  3204   3203   3206   3208      9     0.00   0.62760   3 ;    H9R-   C19-   C18-   H8S
  3204   3203   3206   3209      9     0.00   0.66944   3 ;    H9R-   C19-   C18-   C17
  3205   3203   3206   3207      9     0.00   0.62760   3 ;    H9S-   C19-   C18-   H8R
  3205   3203   3206   3208      9     0.00   0.62760   3 ;    H9S-   C19-   C18-   H8S
  3205   3203   3206   3209      9     0.00   0.66944   3 ;    H9S-   C19-   C18-   C17
  3206   3209   3212   3213      9     0.00   0.66944   3 ;    C18-   C17-   C16-   H6R
  3206   3209   3212   3214      9     0.00   0.66944   3 ;    C18-   C17-   C16-   H6S
  3206   3209   3212   3215      9     0.00   0.41840   1 ;    C18-   C17-   C16-   C15
  3206   3209   3212   3215      9     0.00   0.41840   2 ;    C18-   C17-   C16-   C15
  3206   3209   3212   3215      9     0.00   0.41840   4 ;    C18-   C17-   C16-   C15
  3206   3209   3212   3215      9     0.00   0.41840   5 ;    C18-   C17-   C16-   C15
  3206   3209   3212   3215      9     0.00   1.25520   3 ;    C18-   C17-   C16-   C15
  3207   3206   3209   3210      9     0.00   0.62760   3 ;    H8R-   C18-   C17-   H7R
  3207   3206   3209   3211      9     0.00   0.62760   3 ;    H8R-   C18-   C17-   H7S
  3207   3206   3209   3212      9     0.00   0.66944   3 ;    H8R-   C18-   C17-   C16
  3208   3206   3209   3210      9     0.00   0.62760   3 ;    H8S-   C18-   C17-   H7R
  3208   3206   3209   3211      9     0.00   0.62760   3 ;    H8S-   C18-   C17-   H7S
  3208   3206   3209   3212      9     0.00   0.66944   3 ;    H8S-   C18-   C17-   C16
  3209   3212   3215   3216      9     0.00   0.66944   3 ;    C17-   C16-   C15-   H5R
  3209   3212   3215   3217      9     0.00   0.66944   3 ;    C17-   C16-   C15-   H5S
  3209   3212   3215   3218      9     0.00   0.41840   1 ;    C17-   C16-   C15-   C14
  3209   3212   3215   3218      9     0.00   0.41840   2 ;    C17-   C16-   C15-   C14
  3209   3212   3215   3218      9     0.00   0.41840   4 ;    C17-   C16-   C15-   C14
  3209   3212   3215   3218      9     0.00   0.41840   5 ;    C17-   C16-   C15-   C14
  3209   3212   3215   3218      9     0.00   1.25520   3 ;    C17-   C16-   C15-   C14
  3210   3209   3212   3213      9     0.00   0.62760   3 ;    H7R-   C17-   C16-   H6R
  3210   3209   3212   3214      9     0.00   0.62760   3 ;    H7R-   C17-   C16-   H6S
  3210   3209   3212   3215      9     0.00   0.66944   3 ;    H7R-   C17-   C16-   C15
  3211   3209   3212   3213      9     0.00   0.62760   3 ;    H7S-   C17-   C16-   H6R
  3211   3209   3212   3214      9     0.00   0.62760   3 ;    H7S-   C17-   C16-   H6S
  3211   3209   3212   3215      9     0.00   0.66944   3 ;    H7S-   C17-   C16-   C15
  3212   3215   3218   3219      9     0.00   0.66944   3 ;    C16-   C15-   C14-   H4R
  3212   3215   3218   3220      9     0.00   0.66944   3 ;    C16-   C15-   C14-   H4S
  3212   3215   3218   3221      9     0.00   0.41840   1 ;    C16-   C15-   C14-   C13
  3212   3215   3218   3221      9     0.00   0.41840   2 ;    C16-   C15-   C14-   C13
  3212   3215   3218   3221      9     0.00   0.41840   4 ;    C16-   C15-   C14-   C13
  3212   3215   3218   3221      9     0.00   0.41840   5 ;    C16-   C15-   C14-   C13
  3212   3215   3218   3221      9     0.00   1.25520   3 ;    C16-   C15-   C14-   C13
  3213   3212   3215   3216      9     0.00   0.62760   3 ;    H6R-   C16-   C15-   H5R
  3213   3212   3215   3217      9     0.00   0.62760   3 ;    H6R-   C16-   C15-   H5S
  3213   3212   3215   3218      9     0.00   0.66944   3 ;    H6R-   C16-   C15-   C14
  3214   3212   3215   3216      9     0.00   0.62760   3 ;    H6S-   C16-   C15-   H5R
  3214   3212   3215   3217      9     0.00   0.62760   3 ;    H6S-   C16-   C15-   H5S
  3214   3212   3215   3218      9     0.00   0.66944   3 ;    H6S-   C16-   C15-   C14
  3215   3218   3221   3222      9     0.00   0.66944   3 ;    C15-   C14-   C13-   H3R
  3215   3218   3221   3223      9     0.00   0.66944   3 ;    C15-   C14-   C13-   H3S
  3215   3218   3221   3224      9     0.00   0.41840   1 ;    C15-   C14-   C13-   C12
  3215   3218   3221   3224      9     0.00   0.41840   2 ;    C15-   C14-   C13-   C12
  3215   3218   3221   3224      9     0.00   0.41840   4 ;    C15-   C14-   C13-   C12
  3215   3218   3221   3224      9     0.00   0.41840   5 ;    C15-   C14-   C13-   C12
  3215   3218   3221   3224      9     0.00   1.25520   3 ;    C15-   C14-   C13-   C12
  3216   3215   3218   3219      9     0.00   0.62760   3 ;    H5R-   C15-   C14-   H4R
  3216   3215   3218   3220      9     0.00   0.62760   3 ;    H5R-   C15-   C14-   H4S
  3216   3215   3218   3221      9     0.00   0.66944   3 ;    H5R-   C15-   C14-   C13
  3217   3215   3218   3219      9     0.00   0.62760   3 ;    H5S-   C15-   C14-   H4R
  3217   3215   3218   3220      9     0.00   0.62760   3 ;    H5S-   C15-   C14-   H4S
  3217   3215   3218   3221      9     0.00   0.66944   3 ;    H5S-   C15-   C14-   C13
  3218   3221   3224   3225      9     0.00   0.66944   3 ;    C14-   C13-   C12-   H2R
  3218   3221   3224   3226      9     0.00   0.66944   3 ;    C14-   C13-   C12-   H2S
  3218   3221   3224   3227      9     0.00   0.65270   3 ;    C14-   C13-   C12-   C11
  3219   3218   3221   3222      9     0.00   0.62760   3 ;    H4R-   C14-   C13-   H3R
  3219   3218   3221   3223      9     0.00   0.62760   3 ;    H4R-   C14-   C13-   H3S
  3219   3218   3221   3224      9     0.00   0.66944   3 ;    H4R-   C14-   C13-   C12
  3220   3218   3221   3222      9     0.00   0.62760   3 ;    H4S-   C14-   C13-   H3R
  3220   3218   3221   3223      9     0.00   0.62760   3 ;    H4S-   C14-   C13-   H3S
  3220   3218   3221   3224      9     0.00   0.66944   3 ;    H4S-   C14-   C13-   C12
  3221   3224   3227   3228      9   180.00   0.00000   2 ;    C13-   C12-   C11-   O12
  3221   3224   3227   3229      9   180.00   0.00000   2 ;    C13-   C12-   C11-   O11
  3222   3221   3224   3225      9     0.00   0.62760   3 ;    H3R-   C13-   C12-   H2R
  3222   3221   3224   3226      9     0.00   0.62760   3 ;    H3R-   C13-   C12-   H2S
  3222   3221   3224   3227      9     0.00   0.65270   3 ;    H3R-   C13-   C12-   C11
  3223   3221   3224   3225      9     0.00   0.62760   3 ;    H3S-   C13-   C12-   H2R
  3223   3221   3224   3226      9     0.00   0.62760   3 ;    H3S-   C13-   C12-   H2S
  3223   3221   3224   3227      9     0.00   0.65270   3 ;    H3S-   C13-   C12-   C11
  3224   3227   3229   3230      9   180.00  11.29680   2 ;    C12-   C11-   O11-    C1
  3225   3224   3227   3228      9     0.00   3.34720   1 ;    H2R-   C12-   C11-   O12
  3225   3224   3227   3228      9   180.00   0.33472   3 ;    H2R-   C12-   C11-   O12
  3225   3224   3227   3229      9   180.00   0.00000   2 ;    H2R-   C12-   C11-   O11
  3226   3224   3227   3228      9     0.00   3.34720   1 ;    H2S-   C12-   C11-   O12
  3226   3224   3227   3228      9   180.00   0.33472   3 ;    H2S-   C12-   C11-   O12
  3226   3224   3227   3229      9   180.00   0.00000   2 ;    H2S-   C12-   C11-   O11
  3227   3229   3230   3231      9     0.00   1.60247   3 ;    C11-   O11-    C1-    HR
  3227   3229   3230   3232      9     0.00   1.60247   3 ;    C11-   O11-    C1-    HS
  3227   3229   3230   3233      9     0.00  -0.41840   1 ;    C11-   O11-    C1-    C2
  3228   3227   3229   3230      9   180.00   5.85760   1 ;    O12-   C11-   O11-    C1
  3228   3227   3229   3230      9   180.00  11.29680   2 ;    O12-   C11-   O11-    C1
  3229   3230   3233   3234      9     0.00   0.00000   0 ;    O11-    C1-    C2-    HX
  3229   3230   3233   3234      9     0.00   1.04600   1 ;    O11-    C1-    C2-    HX
  3229   3230   3233   3235      9     0.00   0.00000   0 ;    O11-    C1-    C2-    C3
  3229   3230   3233   3235      9     0.00   0.00000   0 ;    O11-    C1-    C2-    C3
  3229   3230   3233   3235      9     0.00   0.00000   0 ;    O11-    C1-    C2-    C3
  3229   3230   3233   3235      9     0.00   0.00000   0 ;    O11-    C1-    C2-    C3
  3229   3230   3233   3235      9     0.00   0.00000   0 ;    O11-    C1-    C2-    C3
  3229   3230   3233   3262      9     0.00   1.25520   2 ;    O11-    C1-    C2-   O21
  3229   3230   3233   3262      9     0.00   4.18400   3 ;    O11-    C1-    C2-   O21
  3229   3230   3233   3262      9   180.00  -0.41840   1 ;    O11-    C1-    C2-   O21
  3230   3233   3235   3236      9     0.00   0.65270   3 ;     C1-    C2-    C3-    HA
  3230   3233   3235   3237      9     0.00   0.65270   3 ;     C1-    C2-    C3-    HB
  3230   3233   3235   3238      9   180.00   3.34720   1 ;     C1-    C2-    C3-   O31
  3230   3233   3262   3263      9     0.00  -0.41840   1 ;     C1-    C2-   O21-   C21
  3231   3230   3233   3234      9     0.00   0.65270   3 ;     HR-    C1-    C2-    HX
  3231   3230   3233   3235      9     0.00   0.65270   3 ;     HR-    C1-    C2-    C3
  3231   3230   3233   3262      9     0.00   0.00000   0 ;     HR-    C1-    C2-   O21
  3231   3230   3233   3262      9     0.00   1.04600   1 ;     HR-    C1-    C2-   O21
  3232   3230   3233   3234      9     0.00   0.65270   3 ;     HS-    C1-    C2-    HX
  3232   3230   3233   3235      9     0.00   0.65270   3 ;     HS-    C1-    C2-    C3
  3232   3230   3233   3262      9     0.00   0.00000   0 ;     HS-    C1-    C2-   O21
  3232   3230   3233   3262      9     0.00   1.04600   1 ;     HS-    C1-    C2-   O21
  3233   3235   3238   3239      9     0.00   0.00000   0 ;     C2-    C3-   O31-   P31
  3233   3235   3238   3239      9   180.00  -3.34720   2 ;     C2-    C3-   O31-   P31
  3233   3262   3263   3264      9   180.00   5.85760   1 ;     C2-   O21-   C21-   O22
  3233   3262   3263   3264      9   180.00  11.29680   2 ;     C2-   O21-   C21-   O22
  3233   3262   3263   3302      9   180.00  11.29680   2 ;     C2-   O21-   C21-   C12
  3234   3233   3235   3236      9     0.00   0.65270   3 ;     HX-    C2-    C3-    HA
  3234   3233   3235   3237      9     0.00   0.65270   3 ;     HX-    C2-    C3-    HB
  3234   3233   3235   3238      9     0.00   0.00000   0 ;     HX-    C2-    C3-   O31
  3234   3233   3235   3238      9     0.00   1.04600   1 ;     HX-    C2-    C3-   O31
  3234   3233   3262   3263      9     0.00   1.60247   3 ;     HX-    C2-   O21-   C21
  3235   3233   3262   3263      9     0.00  -0.41840   1 ;     C3-    C2-   O21-   C21
  3235   3238   3239   3240      9     0.00   2.51040   3 ;     C3-   O31-   P31-   O32
  3235   3238   3239   3240      9     0.00   9.62320   2 ;     C3-   O31-   P31-   O32
  3235   3238   3239   3260      9     0.00   0.00000   0 ;     C3-   O31-   P31-   O33
  3235   3238   3239   3260      9     0.00   0.00000   0 ;     C3-   O31-   P31-   O33
  3235   3238   3239   3260      9     0.00   0.00000   0 ;     C3-   O31-   P31-   O33
  3235   3238   3239   3260      9     0.00   0.00000   0 ;     C3-   O31-   P31-   O33
  3235   3238   3239   3260      9     0.00   0.83680   2 ;     C3-   O31-   P31-   O33
  3235   3238   3239   3261      9     0.00   0.00000   0 ;     C3-   O31-   P31-   O34
  3235   3238   3239   3261      9     0.00   0.00000   0 ;     C3-   O31-   P31-   O34
  3235   3238   3239   3261      9     0.00   0.00000   0 ;     C3-   O31-   P31-   O34
  3235   3238   3239   3261      9     0.00   0.00000   0 ;     C3-   O31-   P31-   O34
  3235   3238   3239   3261      9     0.00   0.83680   2 ;     C3-   O31-   P31-   O34
  3236   3235   3233   3262      9     0.00   0.00000   0 ;     HA-    C3-    C2-   O21
  3236   3235   3233   3262      9     0.00   1.04600   1 ;     HA-    C3-    C2-   O21
  3236   3235   3238   3239      9     0.00   0.00000   0 ;     HA-    C3-   O31-   P31
  3236   3235   3238   3239      9     0.00   0.00000   0 ;     HA-    C3-   O31-   P31
  3236   3235   3238   3239      9     0.00   0.00000   0 ;     HA-    C3-   O31-   P31
  3236   3235   3238   3239      9     0.00   0.00000   0 ;     HA-    C3-   O31-   P31
  3236   3235   3238   3239      9     0.00   1.60247   3 ;     HA-    C3-   O31-   P31
  3237   3235   3233   3262      9     0.00   0.00000   0 ;     HB-    C3-    C2-   O21
  3237   3235   3233   3262      9     0.00   1.04600   1 ;     HB-    C3-    C2-   O21
  3237   3235   3238   3239      9     0.00   0.00000   0 ;     HB-    C3-   O31-   P31
  3237   3235   3238   3239      9     0.00   0.00000   0 ;     HB-    C3-   O31-   P31
  3237   3235   3238   3239      9     0.00   0.00000   0 ;     HB-    C3-   O31-   P31
  3237   3235   3238   3239      9     0.00   0.00000   0 ;     HB-    C3-   O31-   P31
  3237   3235   3238   3239      9     0.00   1.60247   3 ;     HB-    C3-   O31-   P31
  3238   3235   3233   3262      9     0.00   0.00000   0 ;    O31-    C3-    C2-   O21
  3238   3235   3233   3262      9     0.00   0.00000   0 ;    O31-    C3-    C2-   O21
  3238   3235   3233   3262      9     0.00   0.00000   0 ;    O31-    C3-    C2-   O21
  3238   3235   3233   3262      9     0.00   0.00000   0 ;    O31-    C3-    C2-   O21
  3238   3235   3233   3262      9     0.00   0.00000   0 ;    O31-    C3-    C2-   O21
  3238   3239   3240   3241      9     0.00   2.51040   3 ;    O31-   P31-   O32-   C31
  3238   3239   3240   3241      9     0.00   9.62320   2 ;    O31-   P31-   O32-   C31
  3239   3240   3241   3242      9     0.00   0.00000   0 ;    P31-   O32-   C31-   H1A
  3239   3240   3241   3242      9     0.00   0.00000   0 ;    P31-   O32-   C31-   H1A
  3239   3240   3241   3242      9     0.00   0.00000   0 ;    P31-   O32-   C31-   H1A
  3239   3240   3241   3242      9     0.00   0.00000   0 ;    P31-   O32-   C31-   H1A
  3239   3240   3241   3242      9     0.00   1.60247   3 ;    P31-   O32-   C31-   H1A
  3239   3240   3241   3243      9     0.00   0.00000   0 ;    P31-   O32-   C31-   H1B
  3239   3240   3241   3243      9     0.00   0.00000   0 ;    P31-   O32-   C31-   H1B
  3239   3240   3241   3243      9     0.00   0.00000   0 ;    P31-   O32-   C31-   H1B
  3239   3240   3241   3243      9     0.00   0.00000   0 ;    P31-   O32-   C31-   H1B
  3239   3240   3241   3243      9     0.00   1.60247   3 ;    P31-   O32-   C31-   H1B
  3239   3240   3241   3244      9     0.00   0.00000   0 ;    P31-   O32-   C31-   C32
  3239   3240   3241   3244      9   180.00  -3.34720   2 ;    P31-   O32-   C31-   C32
  3240   3241   3244   3245      9     0.00   0.65270   3 ;    O32-   C31-   C32-   H2A
  3240   3241   3244   3246      9     0.00   0.65270   3 ;    O32-   C31-   C32-   H2B
  3240   3241   3244   3247      9     0.00   4.18400   3 ;    O32-   C31-   C32-   N31
  3241   3240   3239   3260      9     0.00   0.00000   0 ;    C31-   O32-   P31-   O33
  3241   3240   3239   3260      9     0.00   0.00000   0 ;    C31-   O32-   P31-   O33
  3241   3240   3239   3260      9     0.00   0.00000   0 ;    C31-   O32-   P31-   O33
  3241   3240   3239   3260      9     0.00   0.00000   0 ;    C31-   O32-   P31-   O33
  3241   3240   3239   3260      9     0.00   0.83680   2 ;    C31-   O32-   P31-   O33
  3241   3240   3239   3261      9     0.00   0.00000   0 ;    C31-   O32-   P31-   O34
  3241   3240   3239   3261      9     0.00   0.00000   0 ;    C31-   O32-   P31-   O34
  3241   3240   3239   3261      9     0.00   0.00000   0 ;    C31-   O32-   P31-   O34
  3241   3240   3239   3261      9     0.00   0.00000   0 ;    C31-   O32-   P31-   O34
  3241   3240   3239   3261      9     0.00   0.83680   2 ;    C31-   O32-   P31-   O34
  3241   3244   3247   3248      9     0.00   0.65270   3 ;    C31-   C32-   N31-   C33
  3241   3244   3247   3252      9     0.00   0.65270   3 ;    C31-   C32-   N31-   C34
  3241   3244   3247   3256      9     0.00   0.65270   3 ;    C31-   C32-   N31-   C35
  3242   3241   3244   3245      9     0.00   0.65270   3 ;    H1A-   C31-   C32-   H2A
  3242   3241   3244   3246      9     0.00   0.65270   3 ;    H1A-   C31-   C32-   H2B
  3242   3241   3244   3247      9     0.00   0.65270   3 ;    H1A-   C31-   C32-   N31
  3243   3241   3244   3245      9     0.00   0.65270   3 ;    H1B-   C31-   C32-   H2A
  3243   3241   3244   3246      9     0.00   0.65270   3 ;    H1B-   C31-   C32-   H2B
  3243   3241   3244   3247      9     0.00   0.65270   3 ;    H1B-   C31-   C32-   N31
  3244   3247   3248   3249      9     0.00   0.65270   3 ;    C32-   N31-   C33-   H3A
  3244   3247   3248   3250      9     0.00   0.65270   3 ;    C32-   N31-   C33-   H3B
  3244   3247   3248   3251      9     0.00   0.65270   3 ;    C32-   N31-   C33-   H3C
  3244   3247   3252   3253      9     0.00   0.65270   3 ;    C32-   N31-   C34-   H4A
  3244   3247   3252   3254      9     0.00   0.65270   3 ;    C32-   N31-   C34-   H4B
  3244   3247   3252   3255      9     0.00   0.65270   3 ;    C32-   N31-   C34-   H4C
  3244   3247   3256   3257      9     0.00   0.65270   3 ;    C32-   N31-   C35-   H5A
  3244   3247   3256   3258      9     0.00   0.65270   3 ;    C32-   N31-   C35-   H5B
  3244   3247   3256   3259      9     0.00   0.65270   3 ;    C32-   N31-   C35-   H5C
  3245   3244   3247   3248      9     0.00   0.65270   3 ;    H2A-   C32-   N31-   C33
  3245   3244   3247   3252      9     0.00   0.65270   3 ;    H2A-   C32-   N31-   C34
  3245   3244   3247   3256      9     0.00   0.65270   3 ;    H2A-   C32-   N31-   C35
  3246   3244   3247   3248      9     0.00   0.65270   3 ;    H2B-   C32-   N31-   C33
  3246   3244   3247   3252      9     0.00   0.65270   3 ;    H2B-   C32-   N31-   C34
  3246   3244   3247   3256      9     0.00   0.65270   3 ;    H2B-   C32-   N31-   C35
  3248   3247   3252   3253      9     0.00   0.65270   3 ;    C33-   N31-   C34-   H4A
  3248   3247   3252   3254      9     0.00   0.65270   3 ;    C33-   N31-   C34-   H4B
  3248   3247   3252   3255      9     0.00   0.65270   3 ;    C33-   N31-   C34-   H4C
  3248   3247   3256   3257      9     0.00   0.65270   3 ;    C33-   N31-   C35-   H5A
  3248   3247   3256   3258      9     0.00   0.65270   3 ;    C33-   N31-   C35-   H5B
  3248   3247   3256   3259      9     0.00   0.65270   3 ;    C33-   N31-   C35-   H5C
  3249   3248   3247   3252      9     0.00   0.65270   3 ;    H3A-   C33-   N31-   C34
  3249   3248   3247   3256      9     0.00   0.65270   3 ;    H3A-   C33-   N31-   C35
  3250   3248   3247   3252      9     0.00   0.65270   3 ;    H3B-   C33-   N31-   C34
  3250   3248   3247   3256      9     0.00   0.65270   3 ;    H3B-   C33-   N31-   C35
  3251   3248   3247   3252      9     0.00   0.65270   3 ;    H3C-   C33-   N31-   C34
  3251   3248   3247   3256      9     0.00   0.65270   3 ;    H3C-   C33-   N31-   C35
  3252   3247   3256   3257      9     0.00   0.65270   3 ;    C34-   N31-   C35-   H5A
  3252   3247   3256   3258      9     0.00   0.65270   3 ;    C34-   N31-   C35-   H5B
  3252   3247   3256   3259      9     0.00   0.65270   3 ;    C34-   N31-   C35-   H5C
  3253   3252   3247   3256      9     0.00   0.65270   3 ;    H4A-   C34-   N31-   C35
  3254   3252   3247   3256      9     0.00   0.65270   3 ;    H4B-   C34-   N31-   C35
  3255   3252   3247   3256      9     0.00   0.65270   3 ;    H4C-   C34-   N31-   C35
  3262   3263   3302   3299      9   180.00   0.00000   2 ;    O21-   C21-   C12-   C13
  3262   3263   3302   3303      9   180.00   0.00000   2 ;    O21-   C21-   C12-   H2R
  3262   3263   3302   3304      9   180.00   0.00000   2 ;    O21-   C21-   C12-   H2S
  3263   3302   3299   3296      9     0.00   0.65270   3 ;    C21-   C12-   C13-   C14
  3263   3302   3299   3300      9     0.00   0.65270   3 ;    C21-   C12-   C13-   H3R
  3263   3302   3299   3301      9     0.00   0.65270   3 ;    C21-   C12-   C13-   H3S
  3264   3263   3302   3299      9   180.00   0.00000   2 ;    O22-   C21-   C12-   C13
  3264   3263   3302   3303      9     0.00   3.34720   1 ;    O22-   C21-   C12-   H2R
  3264   3263   3302   3303      9   180.00   0.33472   3 ;    O22-   C21-   C12-   H2R
  3264   3263   3302   3304      9     0.00   3.34720   1 ;    O22-   C21-   C12-   H2S
  3264   3263   3302   3304      9   180.00   0.33472   3 ;    O22-   C21-   C12-   H2S
  3265   3266   3269   3270      9     0.00   0.62760   3 ;   H14T-  C114-  C113-  H13R
  3265   3266   3269   3271      9     0.00   0.62760   3 ;   H14T-  C114-  C113-  H13S
  3265   3266   3269   3272      9     0.00   0.66944   3 ;   H14T-  C114-  C113-  C112
  3266   3269   3272   3273      9     0.00   0.66944   3 ;   C114-  C113-  C112-  H12R
  3266   3269   3272   3274      9     0.00   0.66944   3 ;   C114-  C113-  C112-  H12S
  3266   3269   3272   3275      9     0.00   0.41840   1 ;   C114-  C113-  C112-  C111
  3266   3269   3272   3275      9     0.00   0.41840   2 ;   C114-  C113-  C112-  C111
  3266   3269   3272   3275      9     0.00   0.41840   4 ;   C114-  C113-  C112-  C111
  3266   3269   3272   3275      9     0.00   0.41840   5 ;   C114-  C113-  C112-  C111
  3266   3269   3272   3275      9     0.00   1.25520   3 ;   C114-  C113-  C112-  C111
  3267   3266   3269   3270      9     0.00   0.62760   3 ;   H14R-  C114-  C113-  H13R
  3267   3266   3269   3271      9     0.00   0.62760   3 ;   H14R-  C114-  C113-  H13S
  3267   3266   3269   3272      9     0.00   0.66944   3 ;   H14R-  C114-  C113-  C112
  3268   3266   3269   3270      9     0.00   0.62760   3 ;   H14S-  C114-  C113-  H13R
  3268   3266   3269   3271      9     0.00   0.62760   3 ;   H14S-  C114-  C113-  H13S
  3268   3266   3269   3272      9     0.00   0.66944   3 ;   H14S-  C114-  C113-  C112
  3269   3272   3275   3276      9     0.00   0.66944   3 ;   C113-  C112-  C111-  H11R
  3269   3272   3275   3277      9     0.00   0.66944   3 ;   C113-  C112-  C111-  H11S
  3269   3272   3275   3278      9     0.00   0.41840   1 ;   C113-  C112-  C111-  C110
  3269   3272   3275   3278      9     0.00   0.41840   2 ;   C113-  C112-  C111-  C110
  3269   3272   3275   3278      9     0.00   0.41840   4 ;   C113-  C112-  C111-  C110
  3269   3272   3275   3278      9     0.00   0.41840   5 ;   C113-  C112-  C111-  C110
  3269   3272   3275   3278      9     0.00   1.25520   3 ;   C113-  C112-  C111-  C110
  3270   3269   3272   3273      9     0.00   0.62760   3 ;   H13R-  C113-  C112-  H12R
  3270   3269   3272   3274      9     0.00   0.62760   3 ;   H13R-  C113-  C112-  H12S
  3270   3269   3272   3275      9     0.00   0.66944   3 ;   H13R-  C113-  C112-  C111
  3271   3269   3272   3273      9     0.00   0.62760   3 ;   H13S-  C113-  C112-  H12R
  3271   3269   3272   3274      9     0.00   0.62760   3 ;   H13S-  C113-  C112-  H12S
  3271   3269   3272   3275      9     0.00   0.66944   3 ;   H13S-  C113-  C112-  C111
  3272   3275   3278   3279      9     0.00   0.66944   3 ;   C112-  C111-  C110-  H10R
  3272   3275   3278   3280      9     0.00   0.66944   3 ;   C112-  C111-  C110-  H10S
  3272   3275   3278   3281      9     0.00   0.41840   1 ;   C112-  C111-  C110-   C19
  3272   3275   3278   3281      9     0.00   0.41840   2 ;   C112-  C111-  C110-   C19
  3272   3275   3278   3281      9     0.00   0.41840   4 ;   C112-  C111-  C110-   C19
  3272   3275   3278   3281      9     0.00   0.41840   5 ;   C112-  C111-  C110-   C19
  3272   3275   3278   3281      9     0.00   1.25520   3 ;   C112-  C111-  C110-   C19
  3273   3272   3275   3276      9     0.00   0.62760   3 ;   H12R-  C112-  C111-  H11R
  3273   3272   3275   3277      9     0.00   0.62760   3 ;   H12R-  C112-  C111-  H11S
  3273   3272   3275   3278      9     0.00   0.66944   3 ;   H12R-  C112-  C111-  C110
  3274   3272   3275   3276      9     0.00   0.62760   3 ;   H12S-  C112-  C111-  H11R
  3274   3272   3275   3277      9     0.00   0.62760   3 ;   H12S-  C112-  C111-  H11S
  3274   3272   3275   3278      9     0.00   0.66944   3 ;   H12S-  C112-  C111-  C110
  3275   3278   3281   3282      9     0.00   0.66944   3 ;   C111-  C110-   C19-   H9R
  3275   3278   3281   3283      9     0.00   0.66944   3 ;   C111-  C110-   C19-   H9S
  3275   3278   3281   3284      9     0.00   0.41840   1 ;   C111-  C110-   C19-   C18
  3275   3278   3281   3284      9     0.00   0.41840   2 ;   C111-  C110-   C19-   C18
  3275   3278   3281   3284      9     0.00   0.41840   4 ;   C111-  C110-   C19-   C18
  3275   3278   3281   3284      9     0.00   0.41840   5 ;   C111-  C110-   C19-   C18
  3275   3278   3281   3284      9     0.00   1.25520   3 ;   C111-  C110-   C19-   C18
  3276   3275   3278   3279      9     0.00   0.62760   3 ;   H11R-  C111-  C110-  H10R
  3276   3275   3278   3280      9     0.00   0.62760   3 ;   H11R-  C111-  C110-  H10S
  3276   3275   3278   3281      9     0.00   0.66944   3 ;   H11R-  C111-  C110-   C19
  3277   3275   3278   3279      9     0.00   0.62760   3 ;   H11S-  C111-  C110-  H10R
  3277   3275   3278   3280      9     0.00   0.62760   3 ;   H11S-  C111-  C110-  H10S
  3277   3275   3278   3281      9     0.00   0.66944   3 ;   H11S-  C111-  C110-   C19
  3278   3281   3284   3285      9     0.00   0.66944   3 ;   C110-   C19-   C18-   H8R
  3278   3281   3284   3286      9     0.00   0.66944   3 ;   C110-   C19-   C18-   H8S
  3278   3281   3284   3287      9     0.00   0.41840   1 ;   C110-   C19-   C18-   C17
  3278   3281   3284   3287      9     0.00   0.41840   2 ;   C110-   C19-   C18-   C17
  3278   3281   3284   3287      9     0.00   0.41840   4 ;   C110-   C19-   C18-   C17
  3278   3281   3284   3287      9     0.00   0.41840   5 ;   C110-   C19-   C18-   C17
  3278   3281   3284   3287      9     0.00   1.25520   3 ;   C110-   C19-   C18-   C17
  3279   3278   3281   3282      9     0.00   0.62760   3 ;   H10R-  C110-   C19-   H9R
  3279   3278   3281   3283      9     0.00   0.62760   3 ;   H10R-  C110-   C19-   H9S
  3279   3278   3281   3284      9     0.00   0.66944   3 ;   H10R-  C110-   C19-   C18
  3280   3278   3281   3282      9     0.00   0.62760   3 ;   H10S-  C110-   C19-   H9R
  3280   3278   3281   3283      9     0.00   0.62760   3 ;   H10S-  C110-   C19-   H9S
  3280   3278   3281   3284      9     0.00   0.66944   3 ;   H10S-  C110-   C19-   C18
  3281   3284   3287   3288      9     0.00   0.66944   3 ;    C19-   C18-   C17-   H7R
  3281   3284   3287   3289      9     0.00   0.66944   3 ;    C19-   C18-   C17-   H7S
  3281   3284   3287   3290      9     0.00   0.41840   1 ;    C19-   C18-   C17-   C16
  3281   3284   3287   3290      9     0.00   0.41840   2 ;    C19-   C18-   C17-   C16
  3281   3284   3287   3290      9     0.00   0.41840   4 ;    C19-   C18-   C17-   C16
  3281   3284   3287   3290      9     0.00   0.41840   5 ;    C19-   C18-   C17-   C16
  3281   3284   3287   3290      9     0.00   1.25520   3 ;    C19-   C18-   C17-   C16
  3282   3281   3284   3285      9     0.00   0.62760   3 ;    H9R-   C19-   C18-   H8R
  3282   3281   3284   3286      9     0.00   0.62760   3 ;    H9R-   C19-   C18-   H8S
  3282   3281   3284   3287      9     0.00   0.66944   3 ;    H9R-   C19-   C18-   C17
  3283   3281   3284   3285      9     0.00   0.62760   3 ;    H9S-   C19-   C18-   H8R
  3283   3281   3284   3286      9     0.00   0.62760   3 ;    H9S-   C19-   C18-   H8S
  3283   3281   3284   3287      9     0.00   0.66944   3 ;    H9S-   C19-   C18-   C17
  3284   3287   3290   3291      9     0.00   0.66944   3 ;    C18-   C17-   C16-   H6R
  3284   3287   3290   3292      9     0.00   0.66944   3 ;    C18-   C17-   C16-   H6S
  3284   3287   3290   3293      9     0.00   0.41840   1 ;    C18-   C17-   C16-   C15
  3284   3287   3290   3293      9     0.00   0.41840   2 ;    C18-   C17-   C16-   C15
  3284   3287   3290   3293      9     0.00   0.41840   4 ;    C18-   C17-   C16-   C15
  3284   3287   3290   3293      9     0.00   0.41840   5 ;    C18-   C17-   C16-   C15
  3284   3287   3290   3293      9     0.00   1.25520   3 ;    C18-   C17-   C16-   C15
  3285   3284   3287   3288      9     0.00   0.62760   3 ;    H8R-   C18-   C17-   H7R
  3285   3284   3287   3289      9     0.00   0.62760   3 ;    H8R-   C18-   C17-   H7S
  3285   3284   3287   3290      9     0.00   0.66944   3 ;    H8R-   C18-   C17-   C16
  3286   3284   3287   3288      9     0.00   0.62760   3 ;    H8S-   C18-   C17-   H7R
  3286   3284   3287   3289      9     0.00   0.62760   3 ;    H8S-   C18-   C17-   H7S
  3286   3284   3287   3290      9     0.00   0.66944   3 ;    H8S-   C18-   C17-   C16
  3287   3290   3293   3294      9     0.00   0.66944   3 ;    C17-   C16-   C15-   H5R
  3287   3290   3293   3295      9     0.00   0.66944   3 ;    C17-   C16-   C15-   H5S
  3287   3290   3293   3296      9     0.00   0.41840   1 ;    C17-   C16-   C15-   C14
  3287   3290   3293   3296      9     0.00   0.41840   2 ;    C17-   C16-   C15-   C14
  3287   3290   3293   3296      9     0.00   0.41840   4 ;    C17-   C16-   C15-   C14
  3287   3290   3293   3296      9     0.00   0.41840   5 ;    C17-   C16-   C15-   C14
  3287   3290   3293   3296      9     0.00   1.25520   3 ;    C17-   C16-   C15-   C14
  3288   3287   3290   3291      9     0.00   0.62760   3 ;    H7R-   C17-   C16-   H6R
  3288   3287   3290   3292      9     0.00   0.62760   3 ;    H7R-   C17-   C16-   H6S
  3288   3287   3290   3293      9     0.00   0.66944   3 ;    H7R-   C17-   C16-   C15
  3289   3287   3290   3291      9     0.00   0.62760   3 ;    H7S-   C17-   C16-   H6R
  3289   3287   3290   3292      9     0.00   0.62760   3 ;    H7S-   C17-   C16-   H6S
  3289   3287   3290   3293      9     0.00   0.66944   3 ;    H7S-   C17-   C16-   C15
  3290   3293   3296   3297      9     0.00   0.66944   3 ;    C16-   C15-   C14-   H4R
  3290   3293   3296   3298      9     0.00   0.66944   3 ;    C16-   C15-   C14-   H4S
  3290   3293   3296   3299      9     0.00   0.41840   1 ;    C16-   C15-   C14-   C13
  3290   3293   3296   3299      9     0.00   0.41840   2 ;    C16-   C15-   C14-   C13
  3290   3293   3296   3299      9     0.00   0.41840   4 ;    C16-   C15-   C14-   C13
  3290   3293   3296   3299      9     0.00   0.41840   5 ;    C16-   C15-   C14-   C13
  3290   3293   3296   3299      9     0.00   1.25520   3 ;    C16-   C15-   C14-   C13
  3291   3290   3293   3294      9     0.00   0.62760   3 ;    H6R-   C16-   C15-   H5R
  3291   3290   3293   3295      9     0.00   0.62760   3 ;    H6R-   C16-   C15-   H5S
  3291   3290   3293   3296      9     0.00   0.66944   3 ;    H6R-   C16-   C15-   C14
  3292   3290   3293   3294      9     0.00   0.62760   3 ;    H6S-   C16-   C15-   H5R
  3292   3290   3293   3295      9     0.00   0.62760   3 ;    H6S-   C16-   C15-   H5S
  3292   3290   3293   3296      9     0.00   0.66944   3 ;    H6S-   C16-   C15-   C14
  3293   3296   3299   3300      9     0.00   0.66944   3 ;    C15-   C14-   C13-   H3R
  3293   3296   3299   3301      9     0.00   0.66944   3 ;    C15-   C14-   C13-   H3S
  3293   3296   3299   3302      9     0.00   0.41840   1 ;    C15-   C14-   C13-   C12
  3293   3296   3299   3302      9     0.00   0.41840   2 ;    C15-   C14-   C13-   C12
  3293   3296   3299   3302      9     0.00   0.41840   4 ;    C15-   C14-   C13-   C12
  3293   3296   3299   3302      9     0.00   0.41840   5 ;    C15-   C14-   C13-   C12
  3293   3296   3299   3302      9     0.00   1.25520   3 ;    C15-   C14-   C13-   C12
  3294   3293   3296   3297      9     0.00   0.62760   3 ;    H5R-   C15-   C14-   H4R
  3294   3293   3296   3298      9     0.00   0.62760   3 ;    H5R-   C15-   C14-   H4S
  3294   3293   3296   3299      9     0.00   0.66944   3 ;    H5R-   C15-   C14-   C13
  3295   3293   3296   3297      9     0.00   0.62760   3 ;    H5S-   C15-   C14-   H4R
  3295   3293   3296   3298      9     0.00   0.62760   3 ;    H5S-   C15-   C14-   H4S
  3295   3293   3296   3299      9     0.00   0.66944   3 ;    H5S-   C15-   C14-   C13
  3296   3299   3302   3303      9     0.00   0.66944   3 ;    C14-   C13-   C12-   H2R
  3296   3299   3302   3304      9     0.00   0.66944   3 ;    C14-   C13-   C12-   H2S
  3297   3296   3299   3300      9     0.00   0.62760   3 ;    H4R-   C14-   C13-   H3R
  3297   3296   3299   3301      9     0.00   0.62760   3 ;    H4R-   C14-   C13-   H3S
  3297   3296   3299   3302      9     0.00   0.66944   3 ;    H4R-   C14-   C13-   C12
  3298   3296   3299   3300      9     0.00   0.62760   3 ;    H4S-   C14-   C13-   H3R
  3298   3296   3299   3301      9     0.00   0.62760   3 ;    H4S-   C14-   C13-   H3S
  3298   3296   3299   3302      9     0.00   0.66944   3 ;    H4S-   C14-   C13-   C12
  3300   3299   3302   3303      9     0.00   0.62760   3 ;    H3R-   C13-   C12-   H2R
  3300   3299   3302   3304      9     0.00   0.62760   3 ;    H3R-   C13-   C12-   H2S
  3301   3299   3302   3303      9     0.00   0.62760   3 ;    H3S-   C13-   C12-   H2R
  3301   3299   3302   3304      9     0.00   0.62760   3 ;    H3S-   C13-   C12-   H2S
  3305   3306   3309   3310      9     0.00   0.62760   3 ;   H14T-  C114-  C113-  H13R
  3305   3306   3309   3311      9     0.00   0.62760   3 ;   H14T-  C114-  C113-  H13S
  3305   3306   3309   3312      9     0.00   0.66944   3 ;   H14T-  C114-  C113-  C112
  3306   3309   3312   3313      9     0.00   0.66944   3 ;   C114-  C113-  C112-  H12R
  3306   3309   3312   3314      9     0.00   0.66944   3 ;   C114-  C113-  C112-  H12S
  3306   3309   3312   3315      9     0.00   0.41840   1 ;   C114-  C113-  C112-  C111
  3306   3309   3312   3315      9     0.00   0.41840   2 ;   C114-  C113-  C112-  C111
  3306   3309   3312   3315      9     0.00   0.41840   4 ;   C114-  C113-  C112-  C111
  3306   3309   3312   3315      9     0.00   0.41840   5 ;   C114-  C113-  C112-  C111
  3306   3309   3312   3315      9     0.00   1.25520   3 ;   C114-  C113-  C112-  C111
  3307   3306   3309   3310      9     0.00   0.62760   3 ;   H14R-  C114-  C113-  H13R
  3307   3306   3309   3311      9     0.00   0.62760   3 ;   H14R-  C114-  C113-  H13S
  3307   3306   3309   3312      9     0.00   0.66944   3 ;   H14R-  C114-  C113-  C112
  3308   3306   3309   3310      9     0.00   0.62760   3 ;   H14S-  C114-  C113-  H13R
  3308   3306   3309   3311      9     0.00   0.62760   3 ;   H14S-  C114-  C113-  H13S
  3308   3306   3309   3312      9     0.00   0.66944   3 ;   H14S-  C114-  C113-  C112
  3309   3312   3315   3316      9     0.00   0.66944   3 ;   C113-  C112-  C111-  H11R
  3309   3312   3315   3317      9     0.00   0.66944   3 ;   C113-  C112-  C111-  H11S
  3309   3312   3315   3318      9     0.00   0.41840   1 ;   C113-  C112-  C111-  C110
  3309   3312   3315   3318      9     0.00   0.41840   2 ;   C113-  C112-  C111-  C110
  3309   3312   3315   3318      9     0.00   0.41840   4 ;   C113-  C112-  C111-  C110
  3309   3312   3315   3318      9     0.00   0.41840   5 ;   C113-  C112-  C111-  C110
  3309   3312   3315   3318      9     0.00   1.25520   3 ;   C113-  C112-  C111-  C110
  3310   3309   3312   3313      9     0.00   0.62760   3 ;   H13R-  C113-  C112-  H12R
  3310   3309   3312   3314      9     0.00   0.62760   3 ;   H13R-  C113-  C112-  H12S
  3310   3309   3312   3315      9     0.00   0.66944   3 ;   H13R-  C113-  C112-  C111
  3311   3309   3312   3313      9     0.00   0.62760   3 ;   H13S-  C113-  C112-  H12R
  3311   3309   3312   3314      9     0.00   0.62760   3 ;   H13S-  C113-  C112-  H12S
  3311   3309   3312   3315      9     0.00   0.66944   3 ;   H13S-  C113-  C112-  C111
  3312   3315   3318   3319      9     0.00   0.66944   3 ;   C112-  C111-  C110-  H10R
  3312   3315   3318   3320      9     0.00   0.66944   3 ;   C112-  C111-  C110-  H10S
  3312   3315   3318   3321      9     0.00   0.41840   1 ;   C112-  C111-  C110-   C19
  3312   3315   3318   3321      9     0.00   0.41840   2 ;   C112-  C111-  C110-   C19
  3312   3315   3318   3321      9     0.00   0.41840   4 ;   C112-  C111-  C110-   C19
  3312   3315   3318   3321      9     0.00   0.41840   5 ;   C112-  C111-  C110-   C19
  3312   3315   3318   3321      9     0.00   1.25520   3 ;   C112-  C111-  C110-   C19
  3313   3312   3315   3316      9     0.00   0.62760   3 ;   H12R-  C112-  C111-  H11R
  3313   3312   3315   3317      9     0.00   0.62760   3 ;   H12R-  C112-  C111-  H11S
  3313   3312   3315   3318      9     0.00   0.66944   3 ;   H12R-  C112-  C111-  C110
  3314   3312   3315   3316      9     0.00   0.62760   3 ;   H12S-  C112-  C111-  H11R
  3314   3312   3315   3317      9     0.00   0.62760   3 ;   H12S-  C112-  C111-  H11S
  3314   3312   3315   3318      9     0.00   0.66944   3 ;   H12S-  C112-  C111-  C110
  3315   3318   3321   3322      9     0.00   0.66944   3 ;   C111-  C110-   C19-   H9R
  3315   3318   3321   3323      9     0.00   0.66944   3 ;   C111-  C110-   C19-   H9S
  3315   3318   3321   3324      9     0.00   0.41840   1 ;   C111-  C110-   C19-   C18
  3315   3318   3321   3324      9     0.00   0.41840   2 ;   C111-  C110-   C19-   C18
  3315   3318   3321   3324      9     0.00   0.41840   4 ;   C111-  C110-   C19-   C18
  3315   3318   3321   3324      9     0.00   0.41840   5 ;   C111-  C110-   C19-   C18
  3315   3318   3321   3324      9     0.00   1.25520   3 ;   C111-  C110-   C19-   C18
  3316   3315   3318   3319      9     0.00   0.62760   3 ;   H11R-  C111-  C110-  H10R
  3316   3315   3318   3320      9     0.00   0.62760   3 ;   H11R-  C111-  C110-  H10S
  3316   3315   3318   3321      9     0.00   0.66944   3 ;   H11R-  C111-  C110-   C19
  3317   3315   3318   3319      9     0.00   0.62760   3 ;   H11S-  C111-  C110-  H10R
  3317   3315   3318   3320      9     0.00   0.62760   3 ;   H11S-  C111-  C110-  H10S
  3317   3315   3318   3321      9     0.00   0.66944   3 ;   H11S-  C111-  C110-   C19
  3318   3321   3324   3325      9     0.00   0.66944   3 ;   C110-   C19-   C18-   H8R
  3318   3321   3324   3326      9     0.00   0.66944   3 ;   C110-   C19-   C18-   H8S
  3318   3321   3324   3327      9     0.00   0.41840   1 ;   C110-   C19-   C18-   C17
  3318   3321   3324   3327      9     0.00   0.41840   2 ;   C110-   C19-   C18-   C17
  3318   3321   3324   3327      9     0.00   0.41840   4 ;   C110-   C19-   C18-   C17
  3318   3321   3324   3327      9     0.00   0.41840   5 ;   C110-   C19-   C18-   C17
  3318   3321   3324   3327      9     0.00   1.25520   3 ;   C110-   C19-   C18-   C17
  3319   3318   3321   3322      9     0.00   0.62760   3 ;   H10R-  C110-   C19-   H9R
  3319   3318   3321   3323      9     0.00   0.62760   3 ;   H10R-  C110-   C19-   H9S
  3319   3318   3321   3324      9     0.00   0.66944   3 ;   H10R-  C110-   C19-   C18
  3320   3318   3321   3322      9     0.00   0.62760   3 ;   H10S-  C110-   C19-   H9R
  3320   3318   3321   3323      9     0.00   0.62760   3 ;   H10S-  C110-   C19-   H9S
  3320   3318   3321   3324      9     0.00   0.66944   3 ;   H10S-  C110-   C19-   C18
  3321   3324   3327   3328      9     0.00   0.66944   3 ;    C19-   C18-   C17-   H7R
  3321   3324   3327   3329      9     0.00   0.66944   3 ;    C19-   C18-   C17-   H7S
  3321   3324   3327   3330      9     0.00   0.41840   1 ;    C19-   C18-   C17-   C16
  3321   3324   3327   3330      9     0.00   0.41840   2 ;    C19-   C18-   C17-   C16
  3321   3324   3327   3330      9     0.00   0.41840   4 ;    C19-   C18-   C17-   C16
  3321   3324   3327   3330      9     0.00   0.41840   5 ;    C19-   C18-   C17-   C16
  3321   3324   3327   3330      9     0.00   1.25520   3 ;    C19-   C18-   C17-   C16
  3322   3321   3324   3325      9     0.00   0.62760   3 ;    H9R-   C19-   C18-   H8R
  3322   3321   3324   3326      9     0.00   0.62760   3 ;    H9R-   C19-   C18-   H8S
  3322   3321   3324   3327      9     0.00   0.66944   3 ;    H9R-   C19-   C18-   C17
  3323   3321   3324   3325      9     0.00   0.62760   3 ;    H9S-   C19-   C18-   H8R
  3323   3321   3324   3326      9     0.00   0.62760   3 ;    H9S-   C19-   C18-   H8S
  3323   3321   3324   3327      9     0.00   0.66944   3 ;    H9S-   C19-   C18-   C17
  3324   3327   3330   3331      9     0.00   0.66944   3 ;    C18-   C17-   C16-   H6R
  3324   3327   3330   3332      9     0.00   0.66944   3 ;    C18-   C17-   C16-   H6S
  3324   3327   3330   3333      9     0.00   0.41840   1 ;    C18-   C17-   C16-   C15
  3324   3327   3330   3333      9     0.00   0.41840   2 ;    C18-   C17-   C16-   C15
  3324   3327   3330   3333      9     0.00   0.41840   4 ;    C18-   C17-   C16-   C15
  3324   3327   3330   3333      9     0.00   0.41840   5 ;    C18-   C17-   C16-   C15
  3324   3327   3330   3333      9     0.00   1.25520   3 ;    C18-   C17-   C16-   C15
  3325   3324   3327   3328      9     0.00   0.62760   3 ;    H8R-   C18-   C17-   H7R
  3325   3324   3327   3329      9     0.00   0.62760   3 ;    H8R-   C18-   C17-   H7S
  3325   3324   3327   3330      9     0.00   0.66944   3 ;    H8R-   C18-   C17-   C16
  3326   3324   3327   3328      9     0.00   0.62760   3 ;    H8S-   C18-   C17-   H7R
  3326   3324   3327   3329      9     0.00   0.62760   3 ;    H8S-   C18-   C17-   H7S
  3326   3324   3327   3330      9     0.00   0.66944   3 ;    H8S-   C18-   C17-   C16
  3327   3330   3333   3334      9     0.00   0.66944   3 ;    C17-   C16-   C15-   H5R
  3327   3330   3333   3335      9     0.00   0.66944   3 ;    C17-   C16-   C15-   H5S
  3327   3330   3333   3336      9     0.00   0.41840   1 ;    C17-   C16-   C15-   C14
  3327   3330   3333   3336      9     0.00   0.41840   2 ;    C17-   C16-   C15-   C14
  3327   3330   3333   3336      9     0.00   0.41840   4 ;    C17-   C16-   C15-   C14
  3327   3330   3333   3336      9     0.00   0.41840   5 ;    C17-   C16-   C15-   C14
  3327   3330   3333   3336      9     0.00   1.25520   3 ;    C17-   C16-   C15-   C14
  3328   3327   3330   3331      9     0.00   0.62760   3 ;    H7R-   C17-   C16-   H6R
  3328   3327   3330   3332      9     0.00   0.62760   3 ;    H7R-   C17-   C16-   H6S
  3328   3327   3330   3333      9     0.00   0.66944   3 ;    H7R-   C17-   C16-   C15
  3329   3327   3330   3331      9     0.00   0.62760   3 ;    H7S-   C17-   C16-   H6R
  3329   3327   3330   3332      9     0.00   0.62760   3 ;    H7S-   C17-   C16-   H6S
  3329   3327   3330   3333      9     0.00   0.66944   3 ;    H7S-   C17-   C16-   C15
  3330   3333   3336   3337      9     0.00   0.66944   3 ;    C16-   C15-   C14-   H4R
  3330   3333   3336   3338      9     0.00   0.66944   3 ;    C16-   C15-   C14-   H4S
  3330   3333   3336   3339      9     0.00   0.41840   1 ;    C16-   C15-   C14-   C13
  3330   3333   3336   3339      9     0.00   0.41840   2 ;    C16-   C15-   C14-   C13
  3330   3333   3336   3339      9     0.00   0.41840   4 ;    C16-   C15-   C14-   C13
  3330   3333   3336   3339      9     0.00   0.41840   5 ;    C16-   C15-   C14-   C13
  3330   3333   3336   3339      9     0.00   1.25520   3 ;    C16-   C15-   C14-   C13
  3331   3330   3333   3334      9     0.00   0.62760   3 ;    H6R-   C16-   C15-   H5R
  3331   3330   3333   3335      9     0.00   0.62760   3 ;    H6R-   C16-   C15-   H5S
  3331   3330   3333   3336      9     0.00   0.66944   3 ;    H6R-   C16-   C15-   C14
  3332   3330   3333   3334      9     0.00   0.62760   3 ;    H6S-   C16-   C15-   H5R
  3332   3330   3333   3335      9     0.00   0.62760   3 ;    H6S-   C16-   C15-   H5S
  3332   3330   3333   3336      9     0.00   0.66944   3 ;    H6S-   C16-   C15-   C14
  3333   3336   3339   3340      9     0.00   0.66944   3 ;    C15-   C14-   C13-   H3R
  3333   3336   3339   3341      9     0.00   0.66944   3 ;    C15-   C14-   C13-   H3S
  3333   3336   3339   3342      9     0.00   0.41840   1 ;    C15-   C14-   C13-   C12
  3333   3336   3339   3342      9     0.00   0.41840   2 ;    C15-   C14-   C13-   C12
  3333   3336   3339   3342      9     0.00   0.41840   4 ;    C15-   C14-   C13-   C12
  3333   3336   3339   3342      9     0.00   0.41840   5 ;    C15-   C14-   C13-   C12
  3333   3336   3339   3342      9     0.00   1.25520   3 ;    C15-   C14-   C13-   C12
  3334   3333   3336   3337      9     0.00   0.62760   3 ;    H5R-   C15-   C14-   H4R
  3334   3333   3336   3338      9     0.00   0.62760   3 ;    H5R-   C15-   C14-   H4S
  3334   3333   3336   3339      9     0.00   0.66944   3 ;    H5R-   C15-   C14-   C13
  3335   3333   3336   3337      9     0.00   0.62760   3 ;    H5S-   C15-   C14-   H4R
  3335   3333   3336   3338      9     0.00   0.62760   3 ;    H5S-   C15-   C14-   H4S
  3335   3333   3336   3339      9     0.00   0.66944   3 ;    H5S-   C15-   C14-   C13
  3336   3339   3342   3343      9     0.00   0.66944   3 ;    C14-   C13-   C12-   H2R
  3336   3339   3342   3344      9     0.00   0.66944   3 ;    C14-   C13-   C12-   H2S
  3336   3339   3342   3345      9     0.00   0.65270   3 ;    C14-   C13-   C12-   C11
  3337   3336   3339   3340      9     0.00   0.62760   3 ;    H4R-   C14-   C13-   H3R
  3337   3336   3339   3341      9     0.00   0.62760   3 ;    H4R-   C14-   C13-   H3S
  3337   3336   3339   3342      9     0.00   0.66944   3 ;    H4R-   C14-   C13-   C12
  3338   3336   3339   3340      9     0.00   0.62760   3 ;    H4S-   C14-   C13-   H3R
  3338   3336   3339   3341      9     0.00   0.62760   3 ;    H4S-   C14-   C13-   H3S
  3338   3336   3339   3342      9     0.00   0.66944   3 ;    H4S-   C14-   C13-   C12
  3339   3342   3345   3346      9   180.00   0.00000   2 ;    C13-   C12-   C11-   O12
  3339   3342   3345   3347      9   180.00   0.00000   2 ;    C13-   C12-   C11-   O11
  3340   3339   3342   3343      9     0.00   0.62760   3 ;    H3R-   C13-   C12-   H2R
  3340   3339   3342   3344      9     0.00   0.62760   3 ;    H3R-   C13-   C12-   H2S
  3340   3339   3342   3345      9     0.00   0.65270   3 ;    H3R-   C13-   C12-   C11
  3341   3339   3342   3343      9     0.00   0.62760   3 ;    H3S-   C13-   C12-   H2R
  3341   3339   3342   3344      9     0.00   0.62760   3 ;    H3S-   C13-   C12-   H2S
  3341   3339   3342   3345      9     0.00   0.65270   3 ;    H3S-   C13-   C12-   C11
  3342   3345   3347   3348      9   180.00  11.29680   2 ;    C12-   C11-   O11-    C1
  3343   3342   3345   3346      9     0.00   3.34720   1 ;    H2R-   C12-   C11-   O12
  3343   3342   3345   3346      9   180.00   0.33472   3 ;    H2R-   C12-   C11-   O12
  3343   3342   3345   3347      9   180.00   0.00000   2 ;    H2R-   C12-   C11-   O11
  3344   3342   3345   3346      9     0.00   3.34720   1 ;    H2S-   C12-   C11-   O12
  3344   3342   3345   3346      9   180.00   0.33472   3 ;    H2S-   C12-   C11-   O12
  3344   3342   3345   3347      9   180.00   0.00000   2 ;    H2S-   C12-   C11-   O11
  3345   3347   3348   3349      9     0.00   1.60247   3 ;    C11-   O11-    C1-    HR
  3345   3347   3348   3350      9     0.00   1.60247   3 ;    C11-   O11-    C1-    HS
  3345   3347   3348   3351      9     0.00  -0.41840   1 ;    C11-   O11-    C1-    C2
  3346   3345   3347   3348      9   180.00   5.85760   1 ;    O12-   C11-   O11-    C1
  3346   3345   3347   3348      9   180.00  11.29680   2 ;    O12-   C11-   O11-    C1
  3347   3348   3351   3352      9     0.00   0.00000   0 ;    O11-    C1-    C2-    HX
  3347   3348   3351   3352      9     0.00   1.04600   1 ;    O11-    C1-    C2-    HX
  3347   3348   3351   3353      9     0.00   0.00000   0 ;    O11-    C1-    C2-    C3
  3347   3348   3351   3353      9     0.00   0.00000   0 ;    O11-    C1-    C2-    C3
  3347   3348   3351   3353      9     0.00   0.00000   0 ;    O11-    C1-    C2-    C3
  3347   3348   3351   3353      9     0.00   0.00000   0 ;    O11-    C1-    C2-    C3
  3347   3348   3351   3353      9     0.00   0.00000   0 ;    O11-    C1-    C2-    C3
  3347   3348   3351   3380      9     0.00   1.25520   2 ;    O11-    C1-    C2-   O21
  3347   3348   3351   3380      9     0.00   4.18400   3 ;    O11-    C1-    C2-   O21
  3347   3348   3351   3380      9   180.00  -0.41840   1 ;    O11-    C1-    C2-   O21
  3348   3351   3353   3354      9     0.00   0.65270   3 ;     C1-    C2-    C3-    HA
  3348   3351   3353   3355      9     0.00   0.65270   3 ;     C1-    C2-    C3-    HB
  3348   3351   3353   3356      9   180.00   3.34720   1 ;     C1-    C2-    C3-   O31
  3348   3351   3380   3381      9     0.00  -0.41840   1 ;     C1-    C2-   O21-   C21
  3349   3348   3351   3352      9     0.00   0.65270   3 ;     HR-    C1-    C2-    HX
  3349   3348   3351   3353      9     0.00   0.65270   3 ;     HR-    C1-    C2-    C3
  3349   3348   3351   3380      9     0.00   0.00000   0 ;     HR-    C1-    C2-   O21
  3349   3348   3351   3380      9     0.00   1.04600   1 ;     HR-    C1-    C2-   O21
  3350   3348   3351   3352      9     0.00   0.65270   3 ;     HS-    C1-    C2-    HX
  3350   3348   3351   3353      9     0.00   0.65270   3 ;     HS-    C1-    C2-    C3
  3350   3348   3351   3380      9     0.00   0.00000   0 ;     HS-    C1-    C2-   O21
  3350   3348   3351   3380      9     0.00   1.04600   1 ;     HS-    C1-    C2-   O21
  3351   3353   3356   3357      9     0.00   0.00000   0 ;     C2-    C3-   O31-   P31
  3351   3353   3356   3357      9   180.00  -3.34720   2 ;     C2-    C3-   O31-   P31
  3351   3380   3381   3382      9   180.00   5.85760   1 ;     C2-   O21-   C21-   O22
  3351   3380   3381   3382      9   180.00  11.29680   2 ;     C2-   O21-   C21-   O22
  3351   3380   3381   3420      9   180.00  11.29680   2 ;     C2-   O21-   C21-   C12
  3352   3351   3353   3354      9     0.00   0.65270   3 ;     HX-    C2-    C3-    HA
  3352   3351   3353   3355      9     0.00   0.65270   3 ;     HX-    C2-    C3-    HB
  3352   3351   3353   3356      9     0.00   0.00000   0 ;     HX-    C2-    C3-   O31
  3352   3351   3353   3356      9     0.00   1.04600   1 ;     HX-    C2-    C3-   O31
  3352   3351   3380   3381      9     0.00   1.60247   3 ;     HX-    C2-   O21-   C21
  3353   3351   3380   3381      9     0.00  -0.41840   1 ;     C3-    C2-   O21-   C21
  3353   3356   3357   3358      9     0.00   2.51040   3 ;     C3-   O31-   P31-   O32
  3353   3356   3357   3358      9     0.00   9.62320   2 ;     C3-   O31-   P31-   O32
  3353   3356   3357   3378      9     0.00   0.00000   0 ;     C3-   O31-   P31-   O33
  3353   3356   3357   3378      9     0.00   0.00000   0 ;     C3-   O31-   P31-   O33
  3353   3356   3357   3378      9     0.00   0.00000   0 ;     C3-   O31-   P31-   O33
  3353   3356   3357   3378      9     0.00   0.00000   0 ;     C3-   O31-   P31-   O33
  3353   3356   3357   3378      9     0.00   0.83680   2 ;     C3-   O31-   P31-   O33
  3353   3356   3357   3379      9     0.00   0.00000   0 ;     C3-   O31-   P31-   O34
  3353   3356   3357   3379      9     0.00   0.00000   0 ;     C3-   O31-   P31-   O34
  3353   3356   3357   3379      9     0.00   0.00000   0 ;     C3-   O31-   P31-   O34
  3353   3356   3357   3379      9     0.00   0.00000   0 ;     C3-   O31-   P31-   O34
  3353   3356   3357   3379      9     0.00   0.83680   2 ;     C3-   O31-   P31-   O34
  3354   3353   3351   3380      9     0.00   0.00000   0 ;     HA-    C3-    C2-   O21
  3354   3353   3351   3380      9     0.00   1.04600   1 ;     HA-    C3-    C2-   O21
  3354   3353   3356   3357      9     0.00   0.00000   0 ;     HA-    C3-   O31-   P31
  3354   3353   3356   3357      9     0.00   0.00000   0 ;     HA-    C3-   O31-   P31
  3354   3353   3356   3357      9     0.00   0.00000   0 ;     HA-    C3-   O31-   P31
  3354   3353   3356   3357      9     0.00   0.00000   0 ;     HA-    C3-   O31-   P31
  3354   3353   3356   3357      9     0.00   1.60247   3 ;     HA-    C3-   O31-   P31
  3355   3353   3351   3380      9     0.00   0.00000   0 ;     HB-    C3-    C2-   O21
  3355   3353   3351   3380      9     0.00   1.04600   1 ;     HB-    C3-    C2-   O21
  3355   3353   3356   3357      9     0.00   0.00000   0 ;     HB-    C3-   O31-   P31
  3355   3353   3356   3357      9     0.00   0.00000   0 ;     HB-    C3-   O31-   P31
  3355   3353   3356   3357      9     0.00   0.00000   0 ;     HB-    C3-   O31-   P31
  3355   3353   3356   3357      9     0.00   0.00000   0 ;     HB-    C3-   O31-   P31
  3355   3353   3356   3357      9     0.00   1.60247   3 ;     HB-    C3-   O31-   P31
  3356   3353   3351   3380      9     0.00   0.00000   0 ;    O31-    C3-    C2-   O21
  3356   3353   3351   3380      9     0.00   0.00000   0 ;    O31-    C3-    C2-   O21
  3356   3353   3351   3380      9     0.00   0.00000   0 ;    O31-    C3-    C2-   O21
  3356   3353   3351   3380      9     0.00   0.00000   0 ;    O31-    C3-    C2-   O21
  3356   3353   3351   3380      9     0.00   0.00000   0 ;    O31-    C3-    C2-   O21
  3356   3357   3358   3359      9     0.00   2.51040   3 ;    O31-   P31-   O32-   C31
  3356   3357   3358   3359      9     0.00   9.62320   2 ;    O31-   P31-   O32-   C31
  3357   3358   3359   3360      9     0.00   0.00000   0 ;    P31-   O32-   C31-   H1A
  3357   3358   3359   3360      9     0.00   0.00000   0 ;    P31-   O32-   C31-   H1A
  3357   3358   3359   3360      9     0.00   0.00000   0 ;    P31-   O32-   C31-   H1A
  3357   3358   3359   3360      9     0.00   0.00000   0 ;    P31-   O32-   C31-   H1A
  3357   3358   3359   3360      9     0.00   1.60247   3 ;    P31-   O32-   C31-   H1A
  3357   3358   3359   3361      9     0.00   0.00000   0 ;    P31-   O32-   C31-   H1B
  3357   3358   3359   3361      9     0.00   0.00000   0 ;    P31-   O32-   C31-   H1B
  3357   3358   3359   3361      9     0.00   0.00000   0 ;    P31-   O32-   C31-   H1B
  3357   3358   3359   3361      9     0.00   0.00000   0 ;    P31-   O32-   C31-   H1B
  3357   3358   3359   3361      9     0.00   1.60247   3 ;    P31-   O32-   C31-   H1B
  3357   3358   3359   3362      9     0.00   0.00000   0 ;    P31-   O32-   C31-   C32
  3357   3358   3359   3362      9   180.00  -3.34720   2 ;    P31-   O32-   C31-   C32
  3358   3359   3362   3363      9     0.00   0.65270   3 ;    O32-   C31-   C32-   H2A
  3358   3359   3362   3364      9     0.00   0.65270   3 ;    O32-   C31-   C32-   H2B
  3358   3359   3362   3365      9     0.00   4.18400   3 ;    O32-   C31-   C32-   N31
  3359   3358   3357   3378      9     0.00   0.00000   0 ;    C31-   O32-   P31-   O33
  3359   3358   3357   3378      9     0.00   0.00000   0 ;    C31-   O32-   P31-   O33
  3359   3358   3357   3378      9     0.00   0.00000   0 ;    C31-   O32-   P31-   O33
  3359   3358   3357   3378      9     0.00   0.00000   0 ;    C31-   O32-   P31-   O33
  3359   3358   3357   3378      9     0.00   0.83680   2 ;    C31-   O32-   P31-   O33
  3359   3358   3357   3379      9     0.00   0.00000   0 ;    C31-   O32-   P31-   O34
  3359   3358   3357   3379      9     0.00   0.00000   0 ;    C31-   O32-   P31-   O34
  3359   3358   3357   3379      9     0.00   0.00000   0 ;    C31-   O32-   P31-   O34
  3359   3358   3357   3379      9     0.00   0.00000   0 ;    C31-   O32-   P31-   O34
  3359   3358   3357   3379      9     0.00   0.83680   2 ;    C31-   O32-   P31-   O34
  3359   3362   3365   3366      9     0.00   0.65270   3 ;    C31-   C32-   N31-   C33
  3359   3362   3365   3370      9     0.00   0.65270   3 ;    C31-   C32-   N31-   C34
  3359   3362   3365   3374      9     0.00   0.65270   3 ;    C31-   C32-   N31-   C35
  3360   3359   3362   3363      9     0.00   0.65270   3 ;    H1A-   C31-   C32-   H2A
  3360   3359   3362   3364      9     0.00   0.65270   3 ;    H1A-   C31-   C32-   H2B
  3360   3359   3362   3365      9     0.00   0.65270   3 ;    H1A-   C31-   C32-   N31
  3361   3359   3362   3363      9     0.00   0.65270   3 ;    H1B-   C31-   C32-   H2A
  3361   3359   3362   3364      9     0.00   0.65270   3 ;    H1B-   C31-   C32-   H2B
  3361   3359   3362   3365      9     0.00   0.65270   3 ;    H1B-   C31-   C32-   N31
  3362   3365   3366   3367      9     0.00   0.65270   3 ;    C32-   N31-   C33-   H3A
  3362   3365   3366   3368      9     0.00   0.65270   3 ;    C32-   N31-   C33-   H3B
  3362   3365   3366   3369      9     0.00   0.65270   3 ;    C32-   N31-   C33-   H3C
  3362   3365   3370   3371      9     0.00   0.65270   3 ;    C32-   N31-   C34-   H4A
  3362   3365   3370   3372      9     0.00   0.65270   3 ;    C32-   N31-   C34-   H4B
  3362   3365   3370   3373      9     0.00   0.65270   3 ;    C32-   N31-   C34-   H4C
  3362   3365   3374   3375      9     0.00   0.65270   3 ;    C32-   N31-   C35-   H5A
  3362   3365   3374   3376      9     0.00   0.65270   3 ;    C32-   N31-   C35-   H5B
  3362   3365   3374   3377      9     0.00   0.65270   3 ;    C32-   N31-   C35-   H5C
  3363   3362   3365   3366      9     0.00   0.65270   3 ;    H2A-   C32-   N31-   C33
  3363   3362   3365   3370      9     0.00   0.65270   3 ;    H2A-   C32-   N31-   C34
  3363   3362   3365   3374      9     0.00   0.65270   3 ;    H2A-   C32-   N31-   C35
  3364   3362   3365   3366      9     0.00   0.65270   3 ;    H2B-   C32-   N31-   C33
  3364   3362   3365   3370      9     0.00   0.65270   3 ;    H2B-   C32-   N31-   C34
  3364   3362   3365   3374      9     0.00   0.65270   3 ;    H2B-   C32-   N31-   C35
  3366   3365   3370   3371      9     0.00   0.65270   3 ;    C33-   N31-   C34-   H4A
  3366   3365   3370   3372      9     0.00   0.65270   3 ;    C33-   N31-   C34-   H4B
  3366   3365   3370   3373      9     0.00   0.65270   3 ;    C33-   N31-   C34-   H4C
  3366   3365   3374   3375      9     0.00   0.65270   3 ;    C33-   N31-   C35-   H5A
  3366   3365   3374   3376      9     0.00   0.65270   3 ;    C33-   N31-   C35-   H5B
  3366   3365   3374   3377      9     0.00   0.65270   3 ;    C33-   N31-   C35-   H5C
  3367   3366   3365   3370      9     0.00   0.65270   3 ;    H3A-   C33-   N31-   C34
  3367   3366   3365   3374      9     0.00   0.65270   3 ;    H3A-   C33-   N31-   C35
  3368   3366   3365   3370      9     0.00   0.65270   3 ;    H3B-   C33-   N31-   C34
  3368   3366   3365   3374      9     0.00   0.65270   3 ;    H3B-   C33-   N31-   C35
  3369   3366   3365   3370      9     0.00   0.65270   3 ;    H3C-   C33-   N31-   C34
  3369   3366   3365   3374      9     0.00   0.65270   3 ;    H3C-   C33-   N31-   C35
  3370   3365   3374   3375      9     0.00   0.65270   3 ;    C34-   N31-   C35-   H5A
  3370   3365   3374   3376      9     0.00   0.65270   3 ;    C34-   N31-   C35-   H5B
  3370   3365   3374   3377      9     0.00   0.65270   3 ;    C34-   N31-   C35-   H5C
  3371   3370   3365   3374      9     0.00   0.65270   3 ;    H4A-   C34-   N31-   C35
  3372   3370   3365   3374      9     0.00   0.65270   3 ;    H4B-   C34-   N31-   C35
  3373   3370   3365   3374      9     0.00   0.65270   3 ;    H4C-   C34-   N31-   C35
  3380   3381   3420   3417      9   180.00   0.00000   2 ;    O21-   C21-   C12-   C13
  3380   3381   3420   3421      9   180.00   0.00000   2 ;    O21-   C21-   C12-   H2R
  3380   3381   3420   3422      9   180.00   0.00000   2 ;    O21-   C21-   C12-   H2S
  3381   3420   3417   3414      9     0.00   0.65270   3 ;    C21-   C12-   C13-   C14
  3381   3420   3417   3418      9     0.00   0.65270   3 ;    C21-   C12-   C13-   H3R
  3381   3420   3417   3419      9     0.00   0.65270   3 ;    C21-   C12-   C13-   H3S
  3382   3381   3420   3417      9   180.00   0.00000   2 ;    O22-   C21-   C12-   C13
  3382   3381   3420   3421      9     0.00   3.34720   1 ;    O22-   C21-   C12-   H2R
  3382   3381   3420   3421      9   180.00   0.33472   3 ;    O22-   C21-   C12-   H2R
  3382   3381   3420   3422      9     0.00   3.34720   1 ;    O22-   C21-   C12-   H2S
  3382   3381   3420   3422      9   180.00   0.33472   3 ;    O22-   C21-   C12-   H2S
  3383   3384   3387   3388      9     0.00   0.62760   3 ;   H14T-  C114-  C113-  H13R
  3383   3384   3387   3389      9     0.00   0.62760   3 ;   H14T-  C114-  C113-  H13S
  3383   3384   3387   3390      9     0.00   0.66944   3 ;   H14T-  C114-  C113-  C112
  3384   3387   3390   3391      9     0.00   0.66944   3 ;   C114-  C113-  C112-  H12R
  3384   3387   3390   3392      9     0.00   0.66944   3 ;   C114-  C113-  C112-  H12S
  3384   3387   3390   3393      9     0.00   0.41840   1 ;   C114-  C113-  C112-  C111
  3384   3387   3390   3393      9     0.00   0.41840   2 ;   C114-  C113-  C112-  C111
  3384   3387   3390   3393      9     0.00   0.41840   4 ;   C114-  C113-  C112-  C111
  3384   3387   3390   3393      9     0.00   0.41840   5 ;   C114-  C113-  C112-  C111
  3384   3387   3390   3393      9     0.00   1.25520   3 ;   C114-  C113-  C112-  C111
  3385   3384   3387   3388      9     0.00   0.62760   3 ;   H14R-  C114-  C113-  H13R
  3385   3384   3387   3389      9     0.00   0.62760   3 ;   H14R-  C114-  C113-  H13S
  3385   3384   3387   3390      9     0.00   0.66944   3 ;   H14R-  C114-  C113-  C112
  3386   3384   3387   3388      9     0.00   0.62760   3 ;   H14S-  C114-  C113-  H13R
  3386   3384   3387   3389      9     0.00   0.62760   3 ;   H14S-  C114-  C113-  H13S
  3386   3384   3387   3390      9     0.00   0.66944   3 ;   H14S-  C114-  C113-  C112
  3387   3390   3393   3394      9     0.00   0.66944   3 ;   C113-  C112-  C111-  H11R
  3387   3390   3393   3395      9     0.00   0.66944   3 ;   C113-  C112-  C111-  H11S
  3387   3390   3393   3396      9     0.00   0.41840   1 ;   C113-  C112-  C111-  C110
  3387   3390   3393   3396      9     0.00   0.41840   2 ;   C113-  C112-  C111-  C110
  3387   3390   3393   3396      9     0.00   0.41840   4 ;   C113-  C112-  C111-  C110
  3387   3390   3393   3396      9     0.00   0.41840   5 ;   C113-  C112-  C111-  C110
  3387   3390   3393   3396      9     0.00   1.25520   3 ;   C113-  C112-  C111-  C110
  3388   3387   3390   3391      9     0.00   0.62760   3 ;   H13R-  C113-  C112-  H12R
  3388   3387   3390   3392      9     0.00   0.62760   3 ;   H13R-  C113-  C112-  H12S
  3388   3387   3390   3393      9     0.00   0.66944   3 ;   H13R-  C113-  C112-  C111
  3389   3387   3390   3391      9     0.00   0.62760   3 ;   H13S-  C113-  C112-  H12R
  3389   3387   3390   3392      9     0.00   0.62760   3 ;   H13S-  C113-  C112-  H12S
  3389   3387   3390   3393      9     0.00   0.66944   3 ;   H13S-  C113-  C112-  C111
  3390   3393   3396   3397      9     0.00   0.66944   3 ;   C112-  C111-  C110-  H10R
  3390   3393   3396   3398      9     0.00   0.66944   3 ;   C112-  C111-  C110-  H10S
  3390   3393   3396   3399      9     0.00   0.41840   1 ;   C112-  C111-  C110-   C19
  3390   3393   3396   3399      9     0.00   0.41840   2 ;   C112-  C111-  C110-   C19
  3390   3393   3396   3399      9     0.00   0.41840   4 ;   C112-  C111-  C110-   C19
  3390   3393   3396   3399      9     0.00   0.41840   5 ;   C112-  C111-  C110-   C19
  3390   3393   3396   3399      9     0.00   1.25520   3 ;   C112-  C111-  C110-   C19
  3391   3390   3393   3394      9     0.00   0.62760   3 ;   H12R-  C112-  C111-  H11R
  3391   3390   3393   3395      9     0.00   0.62760   3 ;   H12R-  C112-  C111-  H11S
  3391   3390   3393   3396      9     0.00   0.66944   3 ;   H12R-  C112-  C111-  C110
  3392   3390   3393   3394      9     0.00   0.62760   3 ;   H12S-  C112-  C111-  H11R
  3392   3390   3393   3395      9     0.00   0.62760   3 ;   H12S-  C112-  C111-  H11S
  3392   3390   3393   3396      9     0.00   0.66944   3 ;   H12S-  C112-  C111-  C110
  3393   3396   3399   3400      9     0.00   0.66944   3 ;   C111-  C110-   C19-   H9R
  3393   3396   3399   3401      9     0.00   0.66944   3 ;   C111-  C110-   C19-   H9S
  3393   3396   3399   3402      9     0.00   0.41840   1 ;   C111-  C110-   C19-   C18
  3393   3396   3399   3402      9     0.00   0.41840   2 ;   C111-  C110-   C19-   C18
  3393   3396   3399   3402      9     0.00   0.41840   4 ;   C111-  C110-   C19-   C18
  3393   3396   3399   3402      9     0.00   0.41840   5 ;   C111-  C110-   C19-   C18
  3393   3396   3399   3402      9     0.00   1.25520   3 ;   C111-  C110-   C19-   C18
  3394   3393   3396   3397      9     0.00   0.62760   3 ;   H11R-  C111-  C110-  H10R
  3394   3393   3396   3398      9     0.00   0.62760   3 ;   H11R-  C111-  C110-  H10S
  3394   3393   3396   3399      9     0.00   0.66944   3 ;   H11R-  C111-  C110-   C19
  3395   3393   3396   3397      9     0.00   0.62760   3 ;   H11S-  C111-  C110-  H10R
  3395   3393   3396   3398      9     0.00   0.62760   3 ;   H11S-  C111-  C110-  H10S
  3395   3393   3396   3399      9     0.00   0.66944   3 ;   H11S-  C111-  C110-   C19
  3396   3399   3402   3403      9     0.00   0.66944   3 ;   C110-   C19-   C18-   H8R
  3396   3399   3402   3404      9     0.00   0.66944   3 ;   C110-   C19-   C18-   H8S
  3396   3399   3402   3405      9     0.00   0.41840   1 ;   C110-   C19-   C18-   C17
  3396   3399   3402   3405      9     0.00   0.41840   2 ;   C110-   C19-   C18-   C17
  3396   3399   3402   3405      9     0.00   0.41840   4 ;   C110-   C19-   C18-   C17
  3396   3399   3402   3405      9     0.00   0.41840   5 ;   C110-   C19-   C18-   C17
  3396   3399   3402   3405      9     0.00   1.25520   3 ;   C110-   C19-   C18-   C17
  3397   3396   3399   3400      9     0.00   0.62760   3 ;   H10R-  C110-   C19-   H9R
  3397   3396   3399   3401      9     0.00   0.62760   3 ;   H10R-  C110-   C19-   H9S
  3397   3396   3399   3402      9     0.00   0.66944   3 ;   H10R-  C110-   C19-   C18
  3398   3396   3399   3400      9     0.00   0.62760   3 ;   H10S-  C110-   C19-   H9R
  3398   3396   3399   3401      9     0.00   0.62760   3 ;   H10S-  C110-   C19-   H9S
  3398   3396   3399   3402      9     0.00   0.66944   3 ;   H10S-  C110-   C19-   C18
  3399   3402   3405   3406      9     0.00   0.66944   3 ;    C19-   C18-   C17-   H7R
  3399   3402   3405   3407      9     0.00   0.66944   3 ;    C19-   C18-   C17-   H7S
  3399   3402   3405   3408      9     0.00   0.41840   1 ;    C19-   C18-   C17-   C16
  3399   3402   3405   3408      9     0.00   0.41840   2 ;    C19-   C18-   C17-   C16
  3399   3402   3405   3408      9     0.00   0.41840   4 ;    C19-   C18-   C17-   C16
  3399   3402   3405   3408      9     0.00   0.41840   5 ;    C19-   C18-   C17-   C16
  3399   3402   3405   3408      9     0.00   1.25520   3 ;    C19-   C18-   C17-   C16
  3400   3399   3402   3403      9     0.00   0.62760   3 ;    H9R-   C19-   C18-   H8R
  3400   3399   3402   3404      9     0.00   0.62760   3 ;    H9R-   C19-   C18-   H8S
  3400   3399   3402   3405      9     0.00   0.66944   3 ;    H9R-   C19-   C18-   C17
  3401   3399   3402   3403      9     0.00   0.62760   3 ;    H9S-   C19-   C18-   H8R
  3401   3399   3402   3404      9     0.00   0.62760   3 ;    H9S-   C19-   C18-   H8S
  3401   3399   3402   3405      9     0.00   0.66944   3 ;    H9S-   C19-   C18-   C17
  3402   3405   3408   3409      9     0.00   0.66944   3 ;    C18-   C17-   C16-   H6R
  3402   3405   3408   3410      9     0.00   0.66944   3 ;    C18-   C17-   C16-   H6S
  3402   3405   3408   3411      9     0.00   0.41840   1 ;    C18-   C17-   C16-   C15
  3402   3405   3408   3411      9     0.00   0.41840   2 ;    C18-   C17-   C16-   C15
  3402   3405   3408   3411      9     0.00   0.41840   4 ;    C18-   C17-   C16-   C15
  3402   3405   3408   3411      9     0.00   0.41840   5 ;    C18-   C17-   C16-   C15
  3402   3405   3408   3411      9     0.00   1.25520   3 ;    C18-   C17-   C16-   C15
  3403   3402   3405   3406      9     0.00   0.62760   3 ;    H8R-   C18-   C17-   H7R
  3403   3402   3405   3407      9     0.00   0.62760   3 ;    H8R-   C18-   C17-   H7S
  3403   3402   3405   3408      9     0.00   0.66944   3 ;    H8R-   C18-   C17-   C16
  3404   3402   3405   3406      9     0.00   0.62760   3 ;    H8S-   C18-   C17-   H7R
  3404   3402   3405   3407      9     0.00   0.62760   3 ;    H8S-   C18-   C17-   H7S
  3404   3402   3405   3408      9     0.00   0.66944   3 ;    H8S-   C18-   C17-   C16
  3405   3408   3411   3412      9     0.00   0.66944   3 ;    C17-   C16-   C15-   H5R
  3405   3408   3411   3413      9     0.00   0.66944   3 ;    C17-   C16-   C15-   H5S
  3405   3408   3411   3414      9     0.00   0.41840   1 ;    C17-   C16-   C15-   C14
  3405   3408   3411   3414      9     0.00   0.41840   2 ;    C17-   C16-   C15-   C14
  3405   3408   3411   3414      9     0.00   0.41840   4 ;    C17-   C16-   C15-   C14
  3405   3408   3411   3414      9     0.00   0.41840   5 ;    C17-   C16-   C15-   C14
  3405   3408   3411   3414      9     0.00   1.25520   3 ;    C17-   C16-   C15-   C14
  3406   3405   3408   3409      9     0.00   0.62760   3 ;    H7R-   C17-   C16-   H6R
  3406   3405   3408   3410      9     0.00   0.62760   3 ;    H7R-   C17-   C16-   H6S
  3406   3405   3408   3411      9     0.00   0.66944   3 ;    H7R-   C17-   C16-   C15
  3407   3405   3408   3409      9     0.00   0.62760   3 ;    H7S-   C17-   C16-   H6R
  3407   3405   3408   3410      9     0.00   0.62760   3 ;    H7S-   C17-   C16-   H6S
  3407   3405   3408   3411      9     0.00   0.66944   3 ;    H7S-   C17-   C16-   C15
  3408   3411   3414   3415      9     0.00   0.66944   3 ;    C16-   C15-   C14-   H4R
  3408   3411   3414   3416      9     0.00   0.66944   3 ;    C16-   C15-   C14-   H4S
  3408   3411   3414   3417      9     0.00   0.41840   1 ;    C16-   C15-   C14-   C13
  3408   3411   3414   3417      9     0.00   0.41840   2 ;    C16-   C15-   C14-   C13
  3408   3411   3414   3417      9     0.00   0.41840   4 ;    C16-   C15-   C14-   C13
  3408   3411   3414   3417      9     0.00   0.41840   5 ;    C16-   C15-   C14-   C13
  3408   3411   3414   3417      9     0.00   1.25520   3 ;    C16-   C15-   C14-   C13
  3409   3408   3411   3412      9     0.00   0.62760   3 ;    H6R-   C16-   C15-   H5R
  3409   3408   3411   3413      9     0.00   0.62760   3 ;    H6R-   C16-   C15-   H5S
  3409   3408   3411   3414      9     0.00   0.66944   3 ;    H6R-   C16-   C15-   C14
  3410   3408   3411   3412      9     0.00   0.62760   3 ;    H6S-   C16-   C15-   H5R
  3410   3408   3411   3413      9     0.00   0.62760   3 ;    H6S-   C16-   C15-   H5S
  3410   3408   3411   3414      9     0.00   0.66944   3 ;    H6S-   C16-   C15-   C14
  3411   3414   3417   3418      9     0.00   0.66944   3 ;    C15-   C14-   C13-   H3R
  3411   3414   3417   3419      9     0.00   0.66944   3 ;    C15-   C14-   C13-   H3S
  3411   3414   3417   3420      9     0.00   0.41840   1 ;    C15-   C14-   C13-   C12
  3411   3414   3417   3420      9     0.00   0.41840   2 ;    C15-   C14-   C13-   C12
  3411   3414   3417   3420      9     0.00   0.41840   4 ;    C15-   C14-   C13-   C12
  3411   3414   3417   3420      9     0.00   0.41840   5 ;    C15-   C14-   C13-   C12
  3411   3414   3417   3420      9     0.00   1.25520   3 ;    C15-   C14-   C13-   C12
  3412   3411   3414   3415      9     0.00   0.62760   3 ;    H5R-   C15-   C14-   H4R
  3412   3411   3414   3416      9     0.00   0.62760   3 ;    H5R-   C15-   C14-   H4S
  3412   3411   3414   3417      9     0.00   0.66944   3 ;    H5R-   C15-   C14-   C13
  3413   3411   3414   3415      9     0.00   0.62760   3 ;    H5S-   C15-   C14-   H4R
  3413   3411   3414   3416      9     0.00   0.62760   3 ;    H5S-   C15-   C14-   H4S
  3413   3411   3414   3417      9     0.00   0.66944   3 ;    H5S-   C15-   C14-   C13
  3414   3417   3420   3421      9     0.00   0.66944   3 ;    C14-   C13-   C12-   H2R
  3414   3417   3420   3422      9     0.00   0.66944   3 ;    C14-   C13-   C12-   H2S
  3415   3414   3417   3418      9     0.00   0.62760   3 ;    H4R-   C14-   C13-   H3R
  3415   3414   3417   3419      9     0.00   0.62760   3 ;    H4R-   C14-   C13-   H3S
  3415   3414   3417   3420      9     0.00   0.66944   3 ;    H4R-   C14-   C13-   C12
  3416   3414   3417   3418      9     0.00   0.62760   3 ;    H4S-   C14-   C13-   H3R
  3416   3414   3417   3419      9     0.00   0.62760   3 ;    H4S-   C14-   C13-   H3S
  3416   3414   3417   3420      9     0.00   0.66944   3 ;    H4S-   C14-   C13-   C12
  3418   3417   3420   3421      9     0.00   0.62760   3 ;    H3R-   C13-   C12-   H2R
  3418   3417   3420   3422      9     0.00   0.62760   3 ;    H3R-   C13-   C12-   H2S
  3419   3417   3420   3421      9     0.00   0.62760   3 ;    H3S-   C13-   C12-   H2R
  3419   3417   3420   3422      9     0.00   0.62760   3 ;    H3S-   C13-   C12-   H2S
  3423   3424   3427   3428      9     0.00   0.62760   3 ;   H14T-  C114-  C113-  H13R
  3423   3424   3427   3429      9     0.00   0.62760   3 ;   H14T-  C114-  C113-  H13S
  3423   3424   3427   3430      9     0.00   0.66944   3 ;   H14T-  C114-  C113-  C112
  3424   3427   3430   3431      9     0.00   0.66944   3 ;   C114-  C113-  C112-  H12R
  3424   3427   3430   3432      9     0.00   0.66944   3 ;   C114-  C113-  C112-  H12S
  3424   3427   3430   3433      9     0.00   0.41840   1 ;   C114-  C113-  C112-  C111
  3424   3427   3430   3433      9     0.00   0.41840   2 ;   C114-  C113-  C112-  C111
  3424   3427   3430   3433      9     0.00   0.41840   4 ;   C114-  C113-  C112-  C111
  3424   3427   3430   3433      9     0.00   0.41840   5 ;   C114-  C113-  C112-  C111
  3424   3427   3430   3433      9     0.00   1.25520   3 ;   C114-  C113-  C112-  C111
  3425   3424   3427   3428      9     0.00   0.62760   3 ;   H14R-  C114-  C113-  H13R
  3425   3424   3427   3429      9     0.00   0.62760   3 ;   H14R-  C114-  C113-  H13S
  3425   3424   3427   3430      9     0.00   0.66944   3 ;   H14R-  C114-  C113-  C112
  3426   3424   3427   3428      9     0.00   0.62760   3 ;   H14S-  C114-  C113-  H13R
  3426   3424   3427   3429      9     0.00   0.62760   3 ;   H14S-  C114-  C113-  H13S
  3426   3424   3427   3430      9     0.00   0.66944   3 ;   H14S-  C114-  C113-  C112
  3427   3430   3433   3434      9     0.00   0.66944   3 ;   C113-  C112-  C111-  H11R
  3427   3430   3433   3435      9     0.00   0.66944   3 ;   C113-  C112-  C111-  H11S
  3427   3430   3433   3436      9     0.00   0.41840   1 ;   C113-  C112-  C111-  C110
  3427   3430   3433   3436      9     0.00   0.41840   2 ;   C113-  C112-  C111-  C110
  3427   3430   3433   3436      9     0.00   0.41840   4 ;   C113-  C112-  C111-  C110
  3427   3430   3433   3436      9     0.00   0.41840   5 ;   C113-  C112-  C111-  C110
  3427   3430   3433   3436      9     0.00   1.25520   3 ;   C113-  C112-  C111-  C110
  3428   3427   3430   3431      9     0.00   0.62760   3 ;   H13R-  C113-  C112-  H12R
  3428   3427   3430   3432      9     0.00   0.62760   3 ;   H13R-  C113-  C112-  H12S
  3428   3427   3430   3433      9     0.00   0.66944   3 ;   H13R-  C113-  C112-  C111
  3429   3427   3430   3431      9     0.00   0.62760   3 ;   H13S-  C113-  C112-  H12R
  3429   3427   3430   3432      9     0.00   0.62760   3 ;   H13S-  C113-  C112-  H12S
  3429   3427   3430   3433      9     0.00   0.66944   3 ;   H13S-  C113-  C112-  C111
  3430   3433   3436   3437      9     0.00   0.66944   3 ;   C112-  C111-  C110-  H10R
  3430   3433   3436   3438      9     0.00   0.66944   3 ;   C112-  C111-  C110-  H10S
  3430   3433   3436   3439      9     0.00   0.41840   1 ;   C112-  C111-  C110-   C19
  3430   3433   3436   3439      9     0.00   0.41840   2 ;   C112-  C111-  C110-   C19
  3430   3433   3436   3439      9     0.00   0.41840   4 ;   C112-  C111-  C110-   C19
  3430   3433   3436   3439      9     0.00   0.41840   5 ;   C112-  C111-  C110-   C19
  3430   3433   3436   3439      9     0.00   1.25520   3 ;   C112-  C111-  C110-   C19
  3431   3430   3433   3434      9     0.00   0.62760   3 ;   H12R-  C112-  C111-  H11R
  3431   3430   3433   3435      9     0.00   0.62760   3 ;   H12R-  C112-  C111-  H11S
  3431   3430   3433   3436      9     0.00   0.66944   3 ;   H12R-  C112-  C111-  C110
  3432   3430   3433   3434      9     0.00   0.62760   3 ;   H12S-  C112-  C111-  H11R
  3432   3430   3433   3435      9     0.00   0.62760   3 ;   H12S-  C112-  C111-  H11S
  3432   3430   3433   3436      9     0.00   0.66944   3 ;   H12S-  C112-  C111-  C110
  3433   3436   3439   3440      9     0.00   0.66944   3 ;   C111-  C110-   C19-   H9R
  3433   3436   3439   3441      9     0.00   0.66944   3 ;   C111-  C110-   C19-   H9S
  3433   3436   3439   3442      9     0.00   0.41840   1 ;   C111-  C110-   C19-   C18
  3433   3436   3439   3442      9     0.00   0.41840   2 ;   C111-  C110-   C19-   C18
  3433   3436   3439   3442      9     0.00   0.41840   4 ;   C111-  C110-   C19-   C18
  3433   3436   3439   3442      9     0.00   0.41840   5 ;   C111-  C110-   C19-   C18
  3433   3436   3439   3442      9     0.00   1.25520   3 ;   C111-  C110-   C19-   C18
  3434   3433   3436   3437      9     0.00   0.62760   3 ;   H11R-  C111-  C110-  H10R
  3434   3433   3436   3438      9     0.00   0.62760   3 ;   H11R-  C111-  C110-  H10S
  3434   3433   3436   3439      9     0.00   0.66944   3 ;   H11R-  C111-  C110-   C19
  3435   3433   3436   3437      9     0.00   0.62760   3 ;   H11S-  C111-  C110-  H10R
  3435   3433   3436   3438      9     0.00   0.62760   3 ;   H11S-  C111-  C110-  H10S
  3435   3433   3436   3439      9     0.00   0.66944   3 ;   H11S-  C111-  C110-   C19
  3436   3439   3442   3443      9     0.00   0.66944   3 ;   C110-   C19-   C18-   H8R
  3436   3439   3442   3444      9     0.00   0.66944   3 ;   C110-   C19-   C18-   H8S
  3436   3439   3442   3445      9     0.00   0.41840   1 ;   C110-   C19-   C18-   C17
  3436   3439   3442   3445      9     0.00   0.41840   2 ;   C110-   C19-   C18-   C17
  3436   3439   3442   3445      9     0.00   0.41840   4 ;   C110-   C19-   C18-   C17
  3436   3439   3442   3445      9     0.00   0.41840   5 ;   C110-   C19-   C18-   C17
  3436   3439   3442   3445      9     0.00   1.25520   3 ;   C110-   C19-   C18-   C17
  3437   3436   3439   3440      9     0.00   0.62760   3 ;   H10R-  C110-   C19-   H9R
  3437   3436   3439   3441      9     0.00   0.62760   3 ;   H10R-  C110-   C19-   H9S
  3437   3436   3439   3442      9     0.00   0.66944   3 ;   H10R-  C110-   C19-   C18
  3438   3436   3439   3440      9     0.00   0.62760   3 ;   H10S-  C110-   C19-   H9R
  3438   3436   3439   3441      9     0.00   0.62760   3 ;   H10S-  C110-   C19-   H9S
  3438   3436   3439   3442      9     0.00   0.66944   3 ;   H10S-  C110-   C19-   C18
  3439   3442   3445   3446      9     0.00   0.66944   3 ;    C19-   C18-   C17-   H7R
  3439   3442   3445   3447      9     0.00   0.66944   3 ;    C19-   C18-   C17-   H7S
  3439   3442   3445   3448      9     0.00   0.41840   1 ;    C19-   C18-   C17-   C16
  3439   3442   3445   3448      9     0.00   0.41840   2 ;    C19-   C18-   C17-   C16
  3439   3442   3445   3448      9     0.00   0.41840   4 ;    C19-   C18-   C17-   C16
  3439   3442   3445   3448      9     0.00   0.41840   5 ;    C19-   C18-   C17-   C16
  3439   3442   3445   3448      9     0.00   1.25520   3 ;    C19-   C18-   C17-   C16
  3440   3439   3442   3443      9     0.00   0.62760   3 ;    H9R-   C19-   C18-   H8R
  3440   3439   3442   3444      9     0.00   0.62760   3 ;    H9R-   C19-   C18-   H8S
  3440   3439   3442   3445      9     0.00   0.66944   3 ;    H9R-   C19-   C18-   C17
  3441   3439   3442   3443      9     0.00   0.62760   3 ;    H9S-   C19-   C18-   H8R
  3441   3439   3442   3444      9     0.00   0.62760   3 ;    H9S-   C19-   C18-   H8S
  3441   3439   3442   3445      9     0.00   0.66944   3 ;    H9S-   C19-   C18-   C17
  3442   3445   3448   3449      9     0.00   0.66944   3 ;    C18-   C17-   C16-   H6R
  3442   3445   3448   3450      9     0.00   0.66944   3 ;    C18-   C17-   C16-   H6S
  3442   3445   3448   3451      9     0.00   0.41840   1 ;    C18-   C17-   C16-   C15
  3442   3445   3448   3451      9     0.00   0.41840   2 ;    C18-   C17-   C16-   C15
  3442   3445   3448   3451      9     0.00   0.41840   4 ;    C18-   C17-   C16-   C15
  3442   3445   3448   3451      9     0.00   0.41840   5 ;    C18-   C17-   C16-   C15
  3442   3445   3448   3451      9     0.00   1.25520   3 ;    C18-   C17-   C16-   C15
  3443   3442   3445   3446      9     0.00   0.62760   3 ;    H8R-   C18-   C17-   H7R
  3443   3442   3445   3447      9     0.00   0.62760   3 ;    H8R-   C18-   C17-   H7S
  3443   3442   3445   3448      9     0.00   0.66944   3 ;    H8R-   C18-   C17-   C16
  3444   3442   3445   3446      9     0.00   0.62760   3 ;    H8S-   C18-   C17-   H7R
  3444   3442   3445   3447      9     0.00   0.62760   3 ;    H8S-   C18-   C17-   H7S
  3444   3442   3445   3448      9     0.00   0.66944   3 ;    H8S-   C18-   C17-   C16
  3445   3448   3451   3452      9     0.00   0.66944   3 ;    C17-   C16-   C15-   H5R
  3445   3448   3451   3453      9     0.00   0.66944   3 ;    C17-   C16-   C15-   H5S
  3445   3448   3451   3454      9     0.00   0.41840   1 ;    C17-   C16-   C15-   C14
  3445   3448   3451   3454      9     0.00   0.41840   2 ;    C17-   C16-   C15-   C14
  3445   3448   3451   3454      9     0.00   0.41840   4 ;    C17-   C16-   C15-   C14
  3445   3448   3451   3454      9     0.00   0.41840   5 ;    C17-   C16-   C15-   C14
  3445   3448   3451   3454      9     0.00   1.25520   3 ;    C17-   C16-   C15-   C14
  3446   3445   3448   3449      9     0.00   0.62760   3 ;    H7R-   C17-   C16-   H6R
  3446   3445   3448   3450      9     0.00   0.62760   3 ;    H7R-   C17-   C16-   H6S
  3446   3445   3448   3451      9     0.00   0.66944   3 ;    H7R-   C17-   C16-   C15
  3447   3445   3448   3449      9     0.00   0.62760   3 ;    H7S-   C17-   C16-   H6R
  3447   3445   3448   3450      9     0.00   0.62760   3 ;    H7S-   C17-   C16-   H6S
  3447   3445   3448   3451      9     0.00   0.66944   3 ;    H7S-   C17-   C16-   C15
  3448   3451   3454   3455      9     0.00   0.66944   3 ;    C16-   C15-   C14-   H4R
  3448   3451   3454   3456      9     0.00   0.66944   3 ;    C16-   C15-   C14-   H4S
  3448   3451   3454   3457      9     0.00   0.41840   1 ;    C16-   C15-   C14-   C13
  3448   3451   3454   3457      9     0.00   0.41840   2 ;    C16-   C15-   C14-   C13
  3448   3451   3454   3457      9     0.00   0.41840   4 ;    C16-   C15-   C14-   C13
  3448   3451   3454   3457      9     0.00   0.41840   5 ;    C16-   C15-   C14-   C13
  3448   3451   3454   3457      9     0.00   1.25520   3 ;    C16-   C15-   C14-   C13
  3449   3448   3451   3452      9     0.00   0.62760   3 ;    H6R-   C16-   C15-   H5R
  3449   3448   3451   3453      9     0.00   0.62760   3 ;    H6R-   C16-   C15-   H5S
  3449   3448   3451   3454      9     0.00   0.66944   3 ;    H6R-   C16-   C15-   C14
  3450   3448   3451   3452      9     0.00   0.62760   3 ;    H6S-   C16-   C15-   H5R
  3450   3448   3451   3453      9     0.00   0.62760   3 ;    H6S-   C16-   C15-   H5S
  3450   3448   3451   3454      9     0.00   0.66944   3 ;    H6S-   C16-   C15-   C14
  3451   3454   3457   3458      9     0.00   0.66944   3 ;    C15-   C14-   C13-   H3R
  3451   3454   3457   3459      9     0.00   0.66944   3 ;    C15-   C14-   C13-   H3S
  3451   3454   3457   3460      9     0.00   0.41840   1 ;    C15-   C14-   C13-   C12
  3451   3454   3457   3460      9     0.00   0.41840   2 ;    C15-   C14-   C13-   C12
  3451   3454   3457   3460      9     0.00   0.41840   4 ;    C15-   C14-   C13-   C12
  3451   3454   3457   3460      9     0.00   0.41840   5 ;    C15-   C14-   C13-   C12
  3451   3454   3457   3460      9     0.00   1.25520   3 ;    C15-   C14-   C13-   C12
  3452   3451   3454   3455      9     0.00   0.62760   3 ;    H5R-   C15-   C14-   H4R
  3452   3451   3454   3456      9     0.00   0.62760   3 ;    H5R-   C15-   C14-   H4S
  3452   3451   3454   3457      9     0.00   0.66944   3 ;    H5R-   C15-   C14-   C13
  3453   3451   3454   3455      9     0.00   0.62760   3 ;    H5S-   C15-   C14-   H4R
  3453   3451   3454   3456      9     0.00   0.62760   3 ;    H5S-   C15-   C14-   H4S
  3453   3451   3454   3457      9     0.00   0.66944   3 ;    H5S-   C15-   C14-   C13
  3454   3457   3460   3461      9     0.00   0.66944   3 ;    C14-   C13-   C12-   H2R
  3454   3457   3460   3462      9     0.00   0.66944   3 ;    C14-   C13-   C12-   H2S
  3454   3457   3460   3463      9     0.00   0.65270   3 ;    C14-   C13-   C12-   C11
  3455   3454   3457   3458      9     0.00   0.62760   3 ;    H4R-   C14-   C13-   H3R
  3455   3454   3457   3459      9     0.00   0.62760   3 ;    H4R-   C14-   C13-   H3S
  3455   3454   3457   3460      9     0.00   0.66944   3 ;    H4R-   C14-   C13-   C12
  3456   3454   3457   3458      9     0.00   0.62760   3 ;    H4S-   C14-   C13-   H3R
  3456   3454   3457   3459      9     0.00   0.62760   3 ;    H4S-   C14-   C13-   H3S
  3456   3454   3457   3460      9     0.00   0.66944   3 ;    H4S-   C14-   C13-   C12
  3457   3460   3463   3464      9   180.00   0.00000   2 ;    C13-   C12-   C11-   O12
  3457   3460   3463   3465      9   180.00   0.00000   2 ;    C13-   C12-   C11-   O11
  3458   3457   3460   3461      9     0.00   0.62760   3 ;    H3R-   C13-   C12-   H2R
  3458   3457   3460   3462      9     0.00   0.62760   3 ;    H3R-   C13-   C12-   H2S
  3458   3457   3460   3463      9     0.00   0.65270   3 ;    H3R-   C13-   C12-   C11
  3459   3457   3460   3461      9     0.00   0.62760   3 ;    H3S-   C13-   C12-   H2R
  3459   3457   3460   3462      9     0.00   0.62760   3 ;    H3S-   C13-   C12-   H2S
  3459   3457   3460   3463      9     0.00   0.65270   3 ;    H3S-   C13-   C12-   C11
  3460   3463   3465   3466      9   180.00  11.29680   2 ;    C12-   C11-   O11-    C1
  3461   3460   3463   3464      9     0.00   3.34720   1 ;    H2R-   C12-   C11-   O12
  3461   3460   3463   3464      9   180.00   0.33472   3 ;    H2R-   C12-   C11-   O12
  3461   3460   3463   3465      9   180.00   0.00000   2 ;    H2R-   C12-   C11-   O11
  3462   3460   3463   3464      9     0.00   3.34720   1 ;    H2S-   C12-   C11-   O12
  3462   3460   3463   3464      9   180.00   0.33472   3 ;    H2S-   C12-   C11-   O12
  3462   3460   3463   3465      9   180.00   0.00000   2 ;    H2S-   C12-   C11-   O11
  3463   3465   3466   3467      9     0.00   1.60247   3 ;    C11-   O11-    C1-    HR
  3463   3465   3466   3468      9     0.00   1.60247   3 ;    C11-   O11-    C1-    HS
  3463   3465   3466   3469      9     0.00  -0.41840   1 ;    C11-   O11-    C1-    C2
  3464   3463   3465   3466      9   180.00   5.85760   1 ;    O12-   C11-   O11-    C1
  3464   3463   3465   3466      9   180.00  11.29680   2 ;    O12-   C11-   O11-    C1
  3465   3466   3469   3470      9     0.00   0.00000   0 ;    O11-    C1-    C2-    HX
  3465   3466   3469   3470      9     0.00   1.04600   1 ;    O11-    C1-    C2-    HX
  3465   3466   3469   3471      9     0.00   0.00000   0 ;    O11-    C1-    C2-    C3
  3465   3466   3469   3471      9     0.00   0.00000   0 ;    O11-    C1-    C2-    C3
  3465   3466   3469   3471      9     0.00   0.00000   0 ;    O11-    C1-    C2-    C3
  3465   3466   3469   3471      9     0.00   0.00000   0 ;    O11-    C1-    C2-    C3
  3465   3466   3469   3471      9     0.00   0.00000   0 ;    O11-    C1-    C2-    C3
  3465   3466   3469   3498      9     0.00   1.25520   2 ;    O11-    C1-    C2-   O21
  3465   3466   3469   3498      9     0.00   4.18400   3 ;    O11-    C1-    C2-   O21
  3465   3466   3469   3498      9   180.00  -0.41840   1 ;    O11-    C1-    C2-   O21
  3466   3469   3471   3472      9     0.00   0.65270   3 ;     C1-    C2-    C3-    HA
  3466   3469   3471   3473      9     0.00   0.65270   3 ;     C1-    C2-    C3-    HB
  3466   3469   3471   3474      9   180.00   3.34720   1 ;     C1-    C2-    C3-   O31
  3466   3469   3498   3499      9     0.00  -0.41840   1 ;     C1-    C2-   O21-   C21
  3467   3466   3469   3470      9     0.00   0.65270   3 ;     HR-    C1-    C2-    HX
  3467   3466   3469   3471      9     0.00   0.65270   3 ;     HR-    C1-    C2-    C3
  3467   3466   3469   3498      9     0.00   0.00000   0 ;     HR-    C1-    C2-   O21
  3467   3466   3469   3498      9     0.00   1.04600   1 ;     HR-    C1-    C2-   O21
  3468   3466   3469   3470      9     0.00   0.65270   3 ;     HS-    C1-    C2-    HX
  3468   3466   3469   3471      9     0.00   0.65270   3 ;     HS-    C1-    C2-    C3
  3468   3466   3469   3498      9     0.00   0.00000   0 ;     HS-    C1-    C2-   O21
  3468   3466   3469   3498      9     0.00   1.04600   1 ;     HS-    C1-    C2-   O21
  3469   3471   3474   3475      9     0.00   0.00000   0 ;     C2-    C3-   O31-   P31
  3469   3471   3474   3475      9   180.00  -3.34720   2 ;     C2-    C3-   O31-   P31
  3469   3498   3499   3500      9   180.00   5.85760   1 ;     C2-   O21-   C21-   O22
  3469   3498   3499   3500      9   180.00  11.29680   2 ;     C2-   O21-   C21-   O22
  3469   3498   3499   3538      9   180.00  11.29680   2 ;     C2-   O21-   C21-   C12
  3470   3469   3471   3472      9     0.00   0.65270   3 ;     HX-    C2-    C3-    HA
  3470   3469   3471   3473      9     0.00   0.65270   3 ;     HX-    C2-    C3-    HB
  3470   3469   3471   3474      9     0.00   0.00000   0 ;     HX-    C2-    C3-   O31
  3470   3469   3471   3474      9     0.00   1.04600   1 ;     HX-    C2-    C3-   O31
  3470   3469   3498   3499      9     0.00   1.60247   3 ;     HX-    C2-   O21-   C21
  3471   3469   3498   3499      9     0.00  -0.41840   1 ;     C3-    C2-   O21-   C21
  3471   3474   3475   3476      9     0.00   2.51040   3 ;     C3-   O31-   P31-   O32
  3471   3474   3475   3476      9     0.00   9.62320   2 ;     C3-   O31-   P31-   O32
  3471   3474   3475   3496      9     0.00   0.00000   0 ;     C3-   O31-   P31-   O33
  3471   3474   3475   3496      9     0.00   0.00000   0 ;     C3-   O31-   P31-   O33
  3471   3474   3475   3496      9     0.00   0.00000   0 ;     C3-   O31-   P31-   O33
  3471   3474   3475   3496      9     0.00   0.00000   0 ;     C3-   O31-   P31-   O33
  3471   3474   3475   3496      9     0.00   0.83680   2 ;     C3-   O31-   P31-   O33
  3471   3474   3475   3497      9     0.00   0.00000   0 ;     C3-   O31-   P31-   O34
  3471   3474   3475   3497      9     0.00   0.00000   0 ;     C3-   O31-   P31-   O34
  3471   3474   3475   3497      9     0.00   0.00000   0 ;     C3-   O31-   P31-   O34
  3471   3474   3475   3497      9     0.00   0.00000   0 ;     C3-   O31-   P31-   O34
  3471   3474   3475   3497      9     0.00   0.83680   2 ;     C3-   O31-   P31-   O34
  3472   3471   3469   3498      9     0.00   0.00000   0 ;     HA-    C3-    C2-   O21
  3472   3471   3469   3498      9     0.00   1.04600   1 ;     HA-    C3-    C2-   O21
  3472   3471   3474   3475      9     0.00   0.00000   0 ;     HA-    C3-   O31-   P31
  3472   3471   3474   3475      9     0.00   0.00000   0 ;     HA-    C3-   O31-   P31
  3472   3471   3474   3475      9     0.00   0.00000   0 ;     HA-    C3-   O31-   P31
  3472   3471   3474   3475      9     0.00   0.00000   0 ;     HA-    C3-   O31-   P31
  3472   3471   3474   3475      9     0.00   1.60247   3 ;     HA-    C3-   O31-   P31
  3473   3471   3469   3498      9     0.00   0.00000   0 ;     HB-    C3-    C2-   O21
  3473   3471   3469   3498      9     0.00   1.04600   1 ;     HB-    C3-    C2-   O21
  3473   3471   3474   3475      9     0.00   0.00000   0 ;     HB-    C3-   O31-   P31
  3473   3471   3474   3475      9     0.00   0.00000   0 ;     HB-    C3-   O31-   P31
  3473   3471   3474   3475      9     0.00   0.00000   0 ;     HB-    C3-   O31-   P31
  3473   3471   3474   3475      9     0.00   0.00000   0 ;     HB-    C3-   O31-   P31
  3473   3471   3474   3475      9     0.00   1.60247   3 ;     HB-    C3-   O31-   P31
  3474   3471   3469   3498      9     0.00   0.00000   0 ;    O31-    C3-    C2-   O21
  3474   3471   3469   3498      9     0.00   0.00000   0 ;    O31-    C3-    C2-   O21
  3474   3471   3469   3498      9     0.00   0.00000   0 ;    O31-    C3-    C2-   O21
  3474   3471   3469   3498      9     0.00   0.00000   0 ;    O31-    C3-    C2-   O21
  3474   3471   3469   3498      9     0.00   0.00000   0 ;    O31-    C3-    C2-   O21
  3474   3475   3476   3477      9     0.00   2.51040   3 ;    O31-   P31-   O32-   C31
  3474   3475   3476   3477      9     0.00   9.62320   2 ;    O31-   P31-   O32-   C31
  3475   3476   3477   3478      9     0.00   0.00000   0 ;    P31-   O32-   C31-   H1A
  3475   3476   3477   3478      9     0.00   0.00000   0 ;    P31-   O32-   C31-   H1A
  3475   3476   3477   3478      9     0.00   0.00000   0 ;    P31-   O32-   C31-   H1A
  3475   3476   3477   3478      9     0.00   0.00000   0 ;    P31-   O32-   C31-   H1A
  3475   3476   3477   3478      9     0.00   1.60247   3 ;    P31-   O32-   C31-   H1A
  3475   3476   3477   3479      9     0.00   0.00000   0 ;    P31-   O32-   C31-   H1B
  3475   3476   3477   3479      9     0.00   0.00000   0 ;    P31-   O32-   C31-   H1B
  3475   3476   3477   3479      9     0.00   0.00000   0 ;    P31-   O32-   C31-   H1B
  3475   3476   3477   3479      9     0.00   0.00000   0 ;    P31-   O32-   C31-   H1B
  3475   3476   3477   3479      9     0.00   1.60247   3 ;    P31-   O32-   C31-   H1B
  3475   3476   3477   3480      9     0.00   0.00000   0 ;    P31-   O32-   C31-   C32
  3475   3476   3477   3480      9   180.00  -3.34720   2 ;    P31-   O32-   C31-   C32
  3476   3477   3480   3481      9     0.00   0.65270   3 ;    O32-   C31-   C32-   H2A
  3476   3477   3480   3482      9     0.00   0.65270   3 ;    O32-   C31-   C32-   H2B
  3476   3477   3480   3483      9     0.00   4.18400   3 ;    O32-   C31-   C32-   N31
  3477   3476   3475   3496      9     0.00   0.00000   0 ;    C31-   O32-   P31-   O33
  3477   3476   3475   3496      9     0.00   0.00000   0 ;    C31-   O32-   P31-   O33
  3477   3476   3475   3496      9     0.00   0.00000   0 ;    C31-   O32-   P31-   O33
  3477   3476   3475   3496      9     0.00   0.00000   0 ;    C31-   O32-   P31-   O33
  3477   3476   3475   3496      9     0.00   0.83680   2 ;    C31-   O32-   P31-   O33
  3477   3476   3475   3497      9     0.00   0.00000   0 ;    C31-   O32-   P31-   O34
  3477   3476   3475   3497      9     0.00   0.00000   0 ;    C31-   O32-   P31-   O34
  3477   3476   3475   3497      9     0.00   0.00000   0 ;    C31-   O32-   P31-   O34
  3477   3476   3475   3497      9     0.00   0.00000   0 ;    C31-   O32-   P31-   O34
  3477   3476   3475   3497      9     0.00   0.83680   2 ;    C31-   O32-   P31-   O34
  3477   3480   3483   3484      9     0.00   0.65270   3 ;    C31-   C32-   N31-   C33
  3477   3480   3483   3488      9     0.00   0.65270   3 ;    C31-   C32-   N31-   C34
  3477   3480   3483   3492      9     0.00   0.65270   3 ;    C31-   C32-   N31-   C35
  3478   3477   3480   3481      9     0.00   0.65270   3 ;    H1A-   C31-   C32-   H2A
  3478   3477   3480   3482      9     0.00   0.65270   3 ;    H1A-   C31-   C32-   H2B
  3478   3477   3480   3483      9     0.00   0.65270   3 ;    H1A-   C31-   C32-   N31
  3479   3477   3480   3481      9     0.00   0.65270   3 ;    H1B-   C31-   C32-   H2A
  3479   3477   3480   3482      9     0.00   0.65270   3 ;    H1B-   C31-   C32-   H2B
  3479   3477   3480   3483      9     0.00   0.65270   3 ;    H1B-   C31-   C32-   N31
  3480   3483   3484   3485      9     0.00   0.65270   3 ;    C32-   N31-   C33-   H3A
  3480   3483   3484   3486      9     0.00   0.65270   3 ;    C32-   N31-   C33-   H3B
  3480   3483   3484   3487      9     0.00   0.65270   3 ;    C32-   N31-   C33-   H3C
  3480   3483   3488   3489      9     0.00   0.65270   3 ;    C32-   N31-   C34-   H4A
  3480   3483   3488   3490      9     0.00   0.65270   3 ;    C32-   N31-   C34-   H4B
  3480   3483   3488   3491      9     0.00   0.65270   3 ;    C32-   N31-   C34-   H4C
  3480   3483   3492   3493      9     0.00   0.65270   3 ;    C32-   N31-   C35-   H5A
  3480   3483   3492   3494      9     0.00   0.65270   3 ;    C32-   N31-   C35-   H5B
  3480   3483   3492   3495      9     0.00   0.65270   3 ;    C32-   N31-   C35-   H5C
  3481   3480   3483   3484      9     0.00   0.65270   3 ;    H2A-   C32-   N31-   C33
  3481   3480   3483   3488      9     0.00   0.65270   3 ;    H2A-   C32-   N31-   C34
  3481   3480   3483   3492      9     0.00   0.65270   3 ;    H2A-   C32-   N31-   C35
  3482   3480   3483   3484      9     0.00   0.65270   3 ;    H2B-   C32-   N31-   C33
  3482   3480   3483   3488      9     0.00   0.65270   3 ;    H2B-   C32-   N31-   C34
  3482   3480   3483   3492      9     0.00   0.65270   3 ;    H2B-   C32-   N31-   C35
  3484   3483   3488   3489      9     0.00   0.65270   3 ;    C33-   N31-   C34-   H4A
  3484   3483   3488   3490      9     0.00   0.65270   3 ;    C33-   N31-   C34-   H4B
  3484   3483   3488   3491      9     0.00   0.65270   3 ;    C33-   N31-   C34-   H4C
  3484   3483   3492   3493      9     0.00   0.65270   3 ;    C33-   N31-   C35-   H5A
  3484   3483   3492   3494      9     0.00   0.65270   3 ;    C33-   N31-   C35-   H5B
  3484   3483   3492   3495      9     0.00   0.65270   3 ;    C33-   N31-   C35-   H5C
  3485   3484   3483   3488      9     0.00   0.65270   3 ;    H3A-   C33-   N31-   C34
  3485   3484   3483   3492      9     0.00   0.65270   3 ;    H3A-   C33-   N31-   C35
  3486   3484   3483   3488      9     0.00   0.65270   3 ;    H3B-   C33-   N31-   C34
  3486   3484   3483   3492      9     0.00   0.65270   3 ;    H3B-   C33-   N31-   C35
  3487   3484   3483   3488      9     0.00   0.65270   3 ;    H3C-   C33-   N31-   C34
  3487   3484   3483   3492      9     0.00   0.65270   3 ;    H3C-   C33-   N31-   C35
  3488   3483   3492   3493      9     0.00   0.65270   3 ;    C34-   N31-   C35-   H5A
  3488   3483   3492   3494      9     0.00   0.65270   3 ;    C34-   N31-   C35-   H5B
  3488   3483   3492   3495      9     0.00   0.65270   3 ;    C34-   N31-   C35-   H5C
  3489   3488   3483   3492      9     0.00   0.65270   3 ;    H4A-   C34-   N31-   C35
  3490   3488   3483   3492      9     0.00   0.65270   3 ;    H4B-   C34-   N31-   C35
  3491   3488   3483   3492      9     0.00   0.65270   3 ;    H4C-   C34-   N31-   C35
  3498   3499   3538   3535      9   180.00   0.00000   2 ;    O21-   C21-   C12-   C13
  3498   3499   3538   3539      9   180.00   0.00000   2 ;    O21-   C21-   C12-   H2R
  3498   3499   3538   3540      9   180.00   0.00000   2 ;    O21-   C21-   C12-   H2S
  3499   3538   3535   3532      9     0.00   0.65270   3 ;    C21-   C12-   C13-   C14
  3499   3538   3535   3536      9     0.00   0.65270   3 ;    C21-   C12-   C13-   H3R
  3499   3538   3535   3537      9     0.00   0.65270   3 ;    C21-   C12-   C13-   H3S
  3500   3499   3538   3535      9   180.00   0.00000   2 ;    O22-   C21-   C12-   C13
  3500   3499   3538   3539      9     0.00   3.34720   1 ;    O22-   C21-   C12-   H2R
  3500   3499   3538   3539      9   180.00   0.33472   3 ;    O22-   C21-   C12-   H2R
  3500   3499   3538   3540      9     0.00   3.34720   1 ;    O22-   C21-   C12-   H2S
  3500   3499   3538   3540      9   180.00   0.33472   3 ;    O22-   C21-   C12-   H2S
  3501   3502   3505   3506      9     0.00   0.62760   3 ;   H14T-  C114-  C113-  H13R
  3501   3502   3505   3507      9     0.00   0.62760   3 ;   H14T-  C114-  C113-  H13S
  3501   3502   3505   3508      9     0.00   0.66944   3 ;   H14T-  C114-  C113-  C112
  3502   3505   3508   3509      9     0.00   0.66944   3 ;   C114-  C113-  C112-  H12R
  3502   3505   3508   3510      9     0.00   0.66944   3 ;   C114-  C113-  C112-  H12S
  3502   3505   3508   3511      9     0.00   0.41840   1 ;   C114-  C113-  C112-  C111
  3502   3505   3508   3511      9     0.00   0.41840   2 ;   C114-  C113-  C112-  C111
  3502   3505   3508   3511      9     0.00   0.41840   4 ;   C114-  C113-  C112-  C111
  3502   3505   3508   3511      9     0.00   0.41840   5 ;   C114-  C113-  C112-  C111
  3502   3505   3508   3511      9     0.00   1.25520   3 ;   C114-  C113-  C112-  C111
  3503   3502   3505   3506      9     0.00   0.62760   3 ;   H14R-  C114-  C113-  H13R
  3503   3502   3505   3507      9     0.00   0.62760   3 ;   H14R-  C114-  C113-  H13S
  3503   3502   3505   3508      9     0.00   0.66944   3 ;   H14R-  C114-  C113-  C112
  3504   3502   3505   3506      9     0.00   0.62760   3 ;   H14S-  C114-  C113-  H13R
  3504   3502   3505   3507      9     0.00   0.62760   3 ;   H14S-  C114-  C113-  H13S
  3504   3502   3505   3508      9     0.00   0.66944   3 ;   H14S-  C114-  C113-  C112
  3505   3508   3511   3512      9     0.00   0.66944   3 ;   C113-  C112-  C111-  H11R
  3505   3508   3511   3513      9     0.00   0.66944   3 ;   C113-  C112-  C111-  H11S
  3505   3508   3511   3514      9     0.00   0.41840   1 ;   C113-  C112-  C111-  C110
  3505   3508   3511   3514      9     0.00   0.41840   2 ;   C113-  C112-  C111-  C110
  3505   3508   3511   3514      9     0.00   0.41840   4 ;   C113-  C112-  C111-  C110
  3505   3508   3511   3514      9     0.00   0.41840   5 ;   C113-  C112-  C111-  C110
  3505   3508   3511   3514      9     0.00   1.25520   3 ;   C113-  C112-  C111-  C110
  3506   3505   3508   3509      9     0.00   0.62760   3 ;   H13R-  C113-  C112-  H12R
  3506   3505   3508   3510      9     0.00   0.62760   3 ;   H13R-  C113-  C112-  H12S
  3506   3505   3508   3511      9     0.00   0.66944   3 ;   H13R-  C113-  C112-  C111
  3507   3505   3508   3509      9     0.00   0.62760   3 ;   H13S-  C113-  C112-  H12R
  3507   3505   3508   3510      9     0.00   0.62760   3 ;   H13S-  C113-  C112-  H12S
  3507   3505   3508   3511      9     0.00   0.66944   3 ;   H13S-  C113-  C112-  C111
  3508   3511   3514   3515      9     0.00   0.66944   3 ;   C112-  C111-  C110-  H10R
  3508   3511   3514   3516      9     0.00   0.66944   3 ;   C112-  C111-  C110-  H10S
  3508   3511   3514   3517      9     0.00   0.41840   1 ;   C112-  C111-  C110-   C19
  3508   3511   3514   3517      9     0.00   0.41840   2 ;   C112-  C111-  C110-   C19
  3508   3511   3514   3517      9     0.00   0.41840   4 ;   C112-  C111-  C110-   C19
  3508   3511   3514   3517      9     0.00   0.41840   5 ;   C112-  C111-  C110-   C19
  3508   3511   3514   3517      9     0.00   1.25520   3 ;   C112-  C111-  C110-   C19
  3509   3508   3511   3512      9     0.00   0.62760   3 ;   H12R-  C112-  C111-  H11R
  3509   3508   3511   3513      9     0.00   0.62760   3 ;   H12R-  C112-  C111-  H11S
  3509   3508   3511   3514      9     0.00   0.66944   3 ;   H12R-  C112-  C111-  C110
  3510   3508   3511   3512      9     0.00   0.62760   3 ;   H12S-  C112-  C111-  H11R
  3510   3508   3511   3513      9     0.00   0.62760   3 ;   H12S-  C112-  C111-  H11S
  3510   3508   3511   3514      9     0.00   0.66944   3 ;   H12S-  C112-  C111-  C110
  3511   3514   3517   3518      9     0.00   0.66944   3 ;   C111-  C110-   C19-   H9R
  3511   3514   3517   3519      9     0.00   0.66944   3 ;   C111-  C110-   C19-   H9S
  3511   3514   3517   3520      9     0.00   0.41840   1 ;   C111-  C110-   C19-   C18
  3511   3514   3517   3520      9     0.00   0.41840   2 ;   C111-  C110-   C19-   C18
  3511   3514   3517   3520      9     0.00   0.41840   4 ;   C111-  C110-   C19-   C18
  3511   3514   3517   3520      9     0.00   0.41840   5 ;   C111-  C110-   C19-   C18
  3511   3514   3517   3520      9     0.00   1.25520   3 ;   C111-  C110-   C19-   C18
  3512   3511   3514   3515      9     0.00   0.62760   3 ;   H11R-  C111-  C110-  H10R
  3512   3511   3514   3516      9     0.00   0.62760   3 ;   H11R-  C111-  C110-  H10S
  3512   3511   3514   3517      9     0.00   0.66944   3 ;   H11R-  C111-  C110-   C19
  3513   3511   3514   3515      9     0.00   0.62760   3 ;   H11S-  C111-  C110-  H10R
  3513   3511   3514   3516      9     0.00   0.62760   3 ;   H11S-  C111-  C110-  H10S
  3513   3511   3514   3517      9     0.00   0.66944   3 ;   H11S-  C111-  C110-   C19
  3514   3517   3520   3521      9     0.00   0.66944   3 ;   C110-   C19-   C18-   H8R
  3514   3517   3520   3522      9     0.00   0.66944   3 ;   C110-   C19-   C18-   H8S
  3514   3517   3520   3523      9     0.00   0.41840   1 ;   C110-   C19-   C18-   C17
  3514   3517   3520   3523      9     0.00   0.41840   2 ;   C110-   C19-   C18-   C17
  3514   3517   3520   3523      9     0.00   0.41840   4 ;   C110-   C19-   C18-   C17
  3514   3517   3520   3523      9     0.00   0.41840   5 ;   C110-   C19-   C18-   C17
  3514   3517   3520   3523      9     0.00   1.25520   3 ;   C110-   C19-   C18-   C17
  3515   3514   3517   3518      9     0.00   0.62760   3 ;   H10R-  C110-   C19-   H9R
  3515   3514   3517   3519      9     0.00   0.62760   3 ;   H10R-  C110-   C19-   H9S
  3515   3514   3517   3520      9     0.00   0.66944   3 ;   H10R-  C110-   C19-   C18
  3516   3514   3517   3518      9     0.00   0.62760   3 ;   H10S-  C110-   C19-   H9R
  3516   3514   3517   3519      9     0.00   0.62760   3 ;   H10S-  C110-   C19-   H9S
  3516   3514   3517   3520      9     0.00   0.66944   3 ;   H10S-  C110-   C19-   C18
  3517   3520   3523   3524      9     0.00   0.66944   3 ;    C19-   C18-   C17-   H7R
  3517   3520   3523   3525      9     0.00   0.66944   3 ;    C19-   C18-   C17-   H7S
  3517   3520   3523   3526      9     0.00   0.41840   1 ;    C19-   C18-   C17-   C16
  3517   3520   3523   3526      9     0.00   0.41840   2 ;    C19-   C18-   C17-   C16
  3517   3520   3523   3526      9     0.00   0.41840   4 ;    C19-   C18-   C17-   C16
  3517   3520   3523   3526      9     0.00   0.41840   5 ;    C19-   C18-   C17-   C16
  3517   3520   3523   3526      9     0.00   1.25520   3 ;    C19-   C18-   C17-   C16
  3518   3517   3520   3521      9     0.00   0.62760   3 ;    H9R-   C19-   C18-   H8R
  3518   3517   3520   3522      9     0.00   0.62760   3 ;    H9R-   C19-   C18-   H8S
  3518   3517   3520   3523      9     0.00   0.66944   3 ;    H9R-   C19-   C18-   C17
  3519   3517   3520   3521      9     0.00   0.62760   3 ;    H9S-   C19-   C18-   H8R
  3519   3517   3520   3522      9     0.00   0.62760   3 ;    H9S-   C19-   C18-   H8S
  3519   3517   3520   3523      9     0.00   0.66944   3 ;    H9S-   C19-   C18-   C17
  3520   3523   3526   3527      9     0.00   0.66944   3 ;    C18-   C17-   C16-   H6R
  3520   3523   3526   3528      9     0.00   0.66944   3 ;    C18-   C17-   C16-   H6S
  3520   3523   3526   3529      9     0.00   0.41840   1 ;    C18-   C17-   C16-   C15
  3520   3523   3526   3529      9     0.00   0.41840   2 ;    C18-   C17-   C16-   C15
  3520   3523   3526   3529      9     0.00   0.41840   4 ;    C18-   C17-   C16-   C15
  3520   3523   3526   3529      9     0.00   0.41840   5 ;    C18-   C17-   C16-   C15
  3520   3523   3526   3529      9     0.00   1.25520   3 ;    C18-   C17-   C16-   C15
  3521   3520   3523   3524      9     0.00   0.62760   3 ;    H8R-   C18-   C17-   H7R
  3521   3520   3523   3525      9     0.00   0.62760   3 ;    H8R-   C18-   C17-   H7S
  3521   3520   3523   3526      9     0.00   0.66944   3 ;    H8R-   C18-   C17-   C16
  3522   3520   3523   3524      9     0.00   0.62760   3 ;    H8S-   C18-   C17-   H7R
  3522   3520   3523   3525      9     0.00   0.62760   3 ;    H8S-   C18-   C17-   H7S
  3522   3520   3523   3526      9     0.00   0.66944   3 ;    H8S-   C18-   C17-   C16
  3523   3526   3529   3530      9     0.00   0.66944   3 ;    C17-   C16-   C15-   H5R
  3523   3526   3529   3531      9     0.00   0.66944   3 ;    C17-   C16-   C15-   H5S
  3523   3526   3529   3532      9     0.00   0.41840   1 ;    C17-   C16-   C15-   C14
  3523   3526   3529   3532      9     0.00   0.41840   2 ;    C17-   C16-   C15-   C14
  3523   3526   3529   3532      9     0.00   0.41840   4 ;    C17-   C16-   C15-   C14
  3523   3526   3529   3532      9     0.00   0.41840   5 ;    C17-   C16-   C15-   C14
  3523   3526   3529   3532      9     0.00   1.25520   3 ;    C17-   C16-   C15-   C14
  3524   3523   3526   3527      9     0.00   0.62760   3 ;    H7R-   C17-   C16-   H6R
  3524   3523   3526   3528      9     0.00   0.62760   3 ;    H7R-   C17-   C16-   H6S
  3524   3523   3526   3529      9     0.00   0.66944   3 ;    H7R-   C17-   C16-   C15
  3525   3523   3526   3527      9     0.00   0.62760   3 ;    H7S-   C17-   C16-   H6R
  3525   3523   3526   3528      9     0.00   0.62760   3 ;    H7S-   C17-   C16-   H6S
  3525   3523   3526   3529      9     0.00   0.66944   3 ;    H7S-   C17-   C16-   C15
  3526   3529   3532   3533      9     0.00   0.66944   3 ;    C16-   C15-   C14-   H4R
  3526   3529   3532   3534      9     0.00   0.66944   3 ;    C16-   C15-   C14-   H4S
  3526   3529   3532   3535      9     0.00   0.41840   1 ;    C16-   C15-   C14-   C13
  3526   3529   3532   3535      9     0.00   0.41840   2 ;    C16-   C15-   C14-   C13
  3526   3529   3532   3535      9     0.00   0.41840   4 ;    C16-   C15-   C14-   C13
  3526   3529   3532   3535      9     0.00   0.41840   5 ;    C16-   C15-   C14-   C13
  3526   3529   3532   3535      9     0.00   1.25520   3 ;    C16-   C15-   C14-   C13
  3527   3526   3529   3530      9     0.00   0.62760   3 ;    H6R-   C16-   C15-   H5R
  3527   3526   3529   3531      9     0.00   0.62760   3 ;    H6R-   C16-   C15-   H5S
  3527   3526   3529   3532      9     0.00   0.66944   3 ;    H6R-   C16-   C15-   C14
  3528   3526   3529   3530      9     0.00   0.62760   3 ;    H6S-   C16-   C15-   H5R
  3528   3526   3529   3531      9     0.00   0.62760   3 ;    H6S-   C16-   C15-   H5S
  3528   3526   3529   3532      9     0.00   0.66944   3 ;    H6S-   C16-   C15-   C14
  3529   3532   3535   3536      9     0.00   0.66944   3 ;    C15-   C14-   C13-   H3R
  3529   3532   3535   3537      9     0.00   0.66944   3 ;    C15-   C14-   C13-   H3S
  3529   3532   3535   3538      9     0.00   0.41840   1 ;    C15-   C14-   C13-   C12
  3529   3532   3535   3538      9     0.00   0.41840   2 ;    C15-   C14-   C13-   C12
  3529   3532   3535   3538      9     0.00   0.41840   4 ;    C15-   C14-   C13-   C12
  3529   3532   3535   3538      9     0.00   0.41840   5 ;    C15-   C14-   C13-   C12
  3529   3532   3535   3538      9     0.00   1.25520   3 ;    C15-   C14-   C13-   C12
  3530   3529   3532   3533      9     0.00   0.62760   3 ;    H5R-   C15-   C14-   H4R
  3530   3529   3532   3534      9     0.00   0.62760   3 ;    H5R-   C15-   C14-   H4S
  3530   3529   3532   3535      9     0.00   0.66944   3 ;    H5R-   C15-   C14-   C13
  3531   3529   3532   3533      9     0.00   0.62760   3 ;    H5S-   C15-   C14-   H4R
  3531   3529   3532   3534      9     0.00   0.62760   3 ;    H5S-   C15-   C14-   H4S
  3531   3529   3532   3535      9     0.00   0.66944   3 ;    H5S-   C15-   C14-   C13
  3532   3535   3538   3539      9     0.00   0.66944   3 ;    C14-   C13-   C12-   H2R
  3532   3535   3538   3540      9     0.00   0.66944   3 ;    C14-   C13-   C12-   H2S
  3533   3532   3535   3536      9     0.00   0.62760   3 ;    H4R-   C14-   C13-   H3R
  3533   3532   3535   3537      9     0.00   0.62760   3 ;    H4R-   C14-   C13-   H3S
  3533   3532   3535   3538      9     0.00   0.66944   3 ;    H4R-   C14-   C13-   C12
  3534   3532   3535   3536      9     0.00   0.62760   3 ;    H4S-   C14-   C13-   H3R
  3534   3532   3535   3537      9     0.00   0.62760   3 ;    H4S-   C14-   C13-   H3S
  3534   3532   3535   3538      9     0.00   0.66944   3 ;    H4S-   C14-   C13-   C12
  3536   3535   3538   3539      9     0.00   0.62760   3 ;    H3R-   C13-   C12-   H2R
  3536   3535   3538   3540      9     0.00   0.62760   3 ;    H3R-   C13-   C12-   H2S
  3537   3535   3538   3539      9     0.00   0.62760   3 ;    H3S-   C13-   C12-   H2R
  3537   3535   3538   3540      9     0.00   0.62760   3 ;    H3S-   C13-   C12-   H2S
  3541   3542   3545   3546      9     0.00   0.62760   3 ;   H14T-  C114-  C113-  H13R
  3541   3542   3545   3547      9     0.00   0.62760   3 ;   H14T-  C114-  C113-  H13S
  3541   3542   3545   3548      9     0.00   0.66944   3 ;   H14T-  C114-  C113-  C112
  3542   3545   3548   3549      9     0.00   0.66944   3 ;   C114-  C113-  C112-  H12R
  3542   3545   3548   3550      9     0.00   0.66944   3 ;   C114-  C113-  C112-  H12S
  3542   3545   3548   3551      9     0.00   0.41840   1 ;   C114-  C113-  C112-  C111
  3542   3545   3548   3551      9     0.00   0.41840   2 ;   C114-  C113-  C112-  C111
  3542   3545   3548   3551      9     0.00   0.41840   4 ;   C114-  C113-  C112-  C111
  3542   3545   3548   3551      9     0.00   0.41840   5 ;   C114-  C113-  C112-  C111
  3542   3545   3548   3551      9     0.00   1.25520   3 ;   C114-  C113-  C112-  C111
  3543   3542   3545   3546      9     0.00   0.62760   3 ;   H14R-  C114-  C113-  H13R
  3543   3542   3545   3547      9     0.00   0.62760   3 ;   H14R-  C114-  C113-  H13S
  3543   3542   3545   3548      9     0.00   0.66944   3 ;   H14R-  C114-  C113-  C112
  3544   3542   3545   3546      9     0.00   0.62760   3 ;   H14S-  C114-  C113-  H13R
  3544   3542   3545   3547      9     0.00   0.62760   3 ;   H14S-  C114-  C113-  H13S
  3544   3542   3545   3548      9     0.00   0.66944   3 ;   H14S-  C114-  C113-  C112
  3545   3548   3551   3552      9     0.00   0.66944   3 ;   C113-  C112-  C111-  H11R
  3545   3548   3551   3553      9     0.00   0.66944   3 ;   C113-  C112-  C111-  H11S
  3545   3548   3551   3554      9     0.00   0.41840   1 ;   C113-  C112-  C111-  C110
  3545   3548   3551   3554      9     0.00   0.41840   2 ;   C113-  C112-  C111-  C110
  3545   3548   3551   3554      9     0.00   0.41840   4 ;   C113-  C112-  C111-  C110
  3545   3548   3551   3554      9     0.00   0.41840   5 ;   C113-  C112-  C111-  C110
  3545   3548   3551   3554      9     0.00   1.25520   3 ;   C113-  C112-  C111-  C110
  3546   3545   3548   3549      9     0.00   0.62760   3 ;   H13R-  C113-  C112-  H12R
  3546   3545   3548   3550      9     0.00   0.62760   3 ;   H13R-  C113-  C112-  H12S
  3546   3545   3548   3551      9     0.00   0.66944   3 ;   H13R-  C113-  C112-  C111
  3547   3545   3548   3549      9     0.00   0.62760   3 ;   H13S-  C113-  C112-  H12R
  3547   3545   3548   3550      9     0.00   0.62760   3 ;   H13S-  C113-  C112-  H12S
  3547   3545   3548   3551      9     0.00   0.66944   3 ;   H13S-  C113-  C112-  C111
  3548   3551   3554   3555      9     0.00   0.66944   3 ;   C112-  C111-  C110-  H10R
  3548   3551   3554   3556      9     0.00   0.66944   3 ;   C112-  C111-  C110-  H10S
  3548   3551   3554   3557      9     0.00   0.41840   1 ;   C112-  C111-  C110-   C19
  3548   3551   3554   3557      9     0.00   0.41840   2 ;   C112-  C111-  C110-   C19
  3548   3551   3554   3557      9     0.00   0.41840   4 ;   C112-  C111-  C110-   C19
  3548   3551   3554   3557      9     0.00   0.41840   5 ;   C112-  C111-  C110-   C19
  3548   3551   3554   3557      9     0.00   1.25520   3 ;   C112-  C111-  C110-   C19
  3549   3548   3551   3552      9     0.00   0.62760   3 ;   H12R-  C112-  C111-  H11R
  3549   3548   3551   3553      9     0.00   0.62760   3 ;   H12R-  C112-  C111-  H11S
  3549   3548   3551   3554      9     0.00   0.66944   3 ;   H12R-  C112-  C111-  C110
  3550   3548   3551   3552      9     0.00   0.62760   3 ;   H12S-  C112-  C111-  H11R
  3550   3548   3551   3553      9     0.00   0.62760   3 ;   H12S-  C112-  C111-  H11S
  3550   3548   3551   3554      9     0.00   0.66944   3 ;   H12S-  C112-  C111-  C110
  3551   3554   3557   3558      9     0.00   0.66944   3 ;   C111-  C110-   C19-   H9R
  3551   3554   3557   3559      9     0.00   0.66944   3 ;   C111-  C110-   C19-   H9S
  3551   3554   3557   3560      9     0.00   0.41840   1 ;   C111-  C110-   C19-   C18
  3551   3554   3557   3560      9     0.00   0.41840   2 ;   C111-  C110-   C19-   C18
  3551   3554   3557   3560      9     0.00   0.41840   4 ;   C111-  C110-   C19-   C18
  3551   3554   3557   3560      9     0.00   0.41840   5 ;   C111-  C110-   C19-   C18
  3551   3554   3557   3560      9     0.00   1.25520   3 ;   C111-  C110-   C19-   C18
  3552   3551   3554   3555      9     0.00   0.62760   3 ;   H11R-  C111-  C110-  H10R
  3552   3551   3554   3556      9     0.00   0.62760   3 ;   H11R-  C111-  C110-  H10S
  3552   3551   3554   3557      9     0.00   0.66944   3 ;   H11R-  C111-  C110-   C19
  3553   3551   3554   3555      9     0.00   0.62760   3 ;   H11S-  C111-  C110-  H10R
  3553   3551   3554   3556      9     0.00   0.62760   3 ;   H11S-  C111-  C110-  H10S
  3553   3551   3554   3557      9     0.00   0.66944   3 ;   H11S-  C111-  C110-   C19
  3554   3557   3560   3561      9     0.00   0.66944   3 ;   C110-   C19-   C18-   H8R
  3554   3557   3560   3562      9     0.00   0.66944   3 ;   C110-   C19-   C18-   H8S
  3554   3557   3560   3563      9     0.00   0.41840   1 ;   C110-   C19-   C18-   C17
  3554   3557   3560   3563      9     0.00   0.41840   2 ;   C110-   C19-   C18-   C17
  3554   3557   3560   3563      9     0.00   0.41840   4 ;   C110-   C19-   C18-   C17
  3554   3557   3560   3563      9     0.00   0.41840   5 ;   C110-   C19-   C18-   C17
  3554   3557   3560   3563      9     0.00   1.25520   3 ;   C110-   C19-   C18-   C17
  3555   3554   3557   3558      9     0.00   0.62760   3 ;   H10R-  C110-   C19-   H9R
  3555   3554   3557   3559      9     0.00   0.62760   3 ;   H10R-  C110-   C19-   H9S
  3555   3554   3557   3560      9     0.00   0.66944   3 ;   H10R-  C110-   C19-   C18
  3556   3554   3557   3558      9     0.00   0.62760   3 ;   H10S-  C110-   C19-   H9R
  3556   3554   3557   3559      9     0.00   0.62760   3 ;   H10S-  C110-   C19-   H9S
  3556   3554   3557   3560      9     0.00   0.66944   3 ;   H10S-  C110-   C19-   C18
  3557   3560   3563   3564      9     0.00   0.66944   3 ;    C19-   C18-   C17-   H7R
  3557   3560   3563   3565      9     0.00   0.66944   3 ;    C19-   C18-   C17-   H7S
  3557   3560   3563   3566      9     0.00   0.41840   1 ;    C19-   C18-   C17-   C16
  3557   3560   3563   3566      9     0.00   0.41840   2 ;    C19-   C18-   C17-   C16
  3557   3560   3563   3566      9     0.00   0.41840   4 ;    C19-   C18-   C17-   C16
  3557   3560   3563   3566      9     0.00   0.41840   5 ;    C19-   C18-   C17-   C16
  3557   3560   3563   3566      9     0.00   1.25520   3 ;    C19-   C18-   C17-   C16
  3558   3557   3560   3561      9     0.00   0.62760   3 ;    H9R-   C19-   C18-   H8R
  3558   3557   3560   3562      9     0.00   0.62760   3 ;    H9R-   C19-   C18-   H8S
  3558   3557   3560   3563      9     0.00   0.66944   3 ;    H9R-   C19-   C18-   C17
  3559   3557   3560   3561      9     0.00   0.62760   3 ;    H9S-   C19-   C18-   H8R
  3559   3557   3560   3562      9     0.00   0.62760   3 ;    H9S-   C19-   C18-   H8S
  3559   3557   3560   3563      9     0.00   0.66944   3 ;    H9S-   C19-   C18-   C17
  3560   3563   3566   3567      9     0.00   0.66944   3 ;    C18-   C17-   C16-   H6R
  3560   3563   3566   3568      9     0.00   0.66944   3 ;    C18-   C17-   C16-   H6S
  3560   3563   3566   3569      9     0.00   0.41840   1 ;    C18-   C17-   C16-   C15
  3560   3563   3566   3569      9     0.00   0.41840   2 ;    C18-   C17-   C16-   C15
  3560   3563   3566   3569      9     0.00   0.41840   4 ;    C18-   C17-   C16-   C15
  3560   3563   3566   3569      9     0.00   0.41840   5 ;    C18-   C17-   C16-   C15
  3560   3563   3566   3569      9     0.00   1.25520   3 ;    C18-   C17-   C16-   C15
  3561   3560   3563   3564      9     0.00   0.62760   3 ;    H8R-   C18-   C17-   H7R
  3561   3560   3563   3565      9     0.00   0.62760   3 ;    H8R-   C18-   C17-   H7S
  3561   3560   3563   3566      9     0.00   0.66944   3 ;    H8R-   C18-   C17-   C16
  3562   3560   3563   3564      9     0.00   0.62760   3 ;    H8S-   C18-   C17-   H7R
  3562   3560   3563   3565      9     0.00   0.62760   3 ;    H8S-   C18-   C17-   H7S
  3562   3560   3563   3566      9     0.00   0.66944   3 ;    H8S-   C18-   C17-   C16
  3563   3566   3569   3570      9     0.00   0.66944   3 ;    C17-   C16-   C15-   H5R
  3563   3566   3569   3571      9     0.00   0.66944   3 ;    C17-   C16-   C15-   H5S
  3563   3566   3569   3572      9     0.00   0.41840   1 ;    C17-   C16-   C15-   C14
  3563   3566   3569   3572      9     0.00   0.41840   2 ;    C17-   C16-   C15-   C14
  3563   3566   3569   3572      9     0.00   0.41840   4 ;    C17-   C16-   C15-   C14
  3563   3566   3569   3572      9     0.00   0.41840   5 ;    C17-   C16-   C15-   C14
  3563   3566   3569   3572      9     0.00   1.25520   3 ;    C17-   C16-   C15-   C14
  3564   3563   3566   3567      9     0.00   0.62760   3 ;    H7R-   C17-   C16-   H6R
  3564   3563   3566   3568      9     0.00   0.62760   3 ;    H7R-   C17-   C16-   H6S
  3564   3563   3566   3569      9     0.00   0.66944   3 ;    H7R-   C17-   C16-   C15
  3565   3563   3566   3567      9     0.00   0.62760   3 ;    H7S-   C17-   C16-   H6R
  3565   3563   3566   3568      9     0.00   0.62760   3 ;    H7S-   C17-   C16-   H6S
  3565   3563   3566   3569      9     0.00   0.66944   3 ;    H7S-   C17-   C16-   C15
  3566   3569   3572   3573      9     0.00   0.66944   3 ;    C16-   C15-   C14-   H4R
  3566   3569   3572   3574      9     0.00   0.66944   3 ;    C16-   C15-   C14-   H4S
  3566   3569   3572   3575      9     0.00   0.41840   1 ;    C16-   C15-   C14-   C13
  3566   3569   3572   3575      9     0.00   0.41840   2 ;    C16-   C15-   C14-   C13
  3566   3569   3572   3575      9     0.00   0.41840   4 ;    C16-   C15-   C14-   C13
  3566   3569   3572   3575      9     0.00   0.41840   5 ;    C16-   C15-   C14-   C13
  3566   3569   3572   3575      9     0.00   1.25520   3 ;    C16-   C15-   C14-   C13
  3567   3566   3569   3570      9     0.00   0.62760   3 ;    H6R-   C16-   C15-   H5R
  3567   3566   3569   3571      9     0.00   0.62760   3 ;    H6R-   C16-   C15-   H5S
  3567   3566   3569   3572      9     0.00   0.66944   3 ;    H6R-   C16-   C15-   C14
  3568   3566   3569   3570      9     0.00   0.62760   3 ;    H6S-   C16-   C15-   H5R
  3568   3566   3569   3571      9     0.00   0.62760   3 ;    H6S-   C16-   C15-   H5S
  3568   3566   3569   3572      9     0.00   0.66944   3 ;    H6S-   C16-   C15-   C14
  3569   3572   3575   3576      9     0.00   0.66944   3 ;    C15-   C14-   C13-   H3R
  3569   3572   3575   3577      9     0.00   0.66944   3 ;    C15-   C14-   C13-   H3S
  3569   3572   3575   3578      9     0.00   0.41840   1 ;    C15-   C14-   C13-   C12
  3569   3572   3575   3578      9     0.00   0.41840   2 ;    C15-   C14-   C13-   C12
  3569   3572   3575   3578      9     0.00   0.41840   4 ;    C15-   C14-   C13-   C12
  3569   3572   3575   3578      9     0.00   0.41840   5 ;    C15-   C14-   C13-   C12
  3569   3572   3575   3578      9     0.00   1.25520   3 ;    C15-   C14-   C13-   C12
  3570   3569   3572   3573      9     0.00   0.62760   3 ;    H5R-   C15-   C14-   H4R
  3570   3569   3572   3574      9     0.00   0.62760   3 ;    H5R-   C15-   C14-   H4S
  3570   3569   3572   3575      9     0.00   0.66944   3 ;    H5R-   C15-   C14-   C13
  3571   3569   3572   3573      9     0.00   0.62760   3 ;    H5S-   C15-   C14-   H4R
  3571   3569   3572   3574      9     0.00   0.62760   3 ;    H5S-   C15-   C14-   H4S
  3571   3569   3572   3575      9     0.00   0.66944   3 ;    H5S-   C15-   C14-   C13
  3572   3575   3578   3579      9     0.00   0.66944   3 ;    C14-   C13-   C12-   H2R
  3572   3575   3578   3580      9     0.00   0.66944   3 ;    C14-   C13-   C12-   H2S
  3572   3575   3578   3581      9     0.00   0.65270   3 ;    C14-   C13-   C12-   C11
  3573   3572   3575   3576      9     0.00   0.62760   3 ;    H4R-   C14-   C13-   H3R
  3573   3572   3575   3577      9     0.00   0.62760   3 ;    H4R-   C14-   C13-   H3S
  3573   3572   3575   3578      9     0.00   0.66944   3 ;    H4R-   C14-   C13-   C12
  3574   3572   3575   3576      9     0.00   0.62760   3 ;    H4S-   C14-   C13-   H3R
  3574   3572   3575   3577      9     0.00   0.62760   3 ;    H4S-   C14-   C13-   H3S
  3574   3572   3575   3578      9     0.00   0.66944   3 ;    H4S-   C14-   C13-   C12
  3575   3578   3581   3582      9   180.00   0.00000   2 ;    C13-   C12-   C11-   O12
  3575   3578   3581   3583      9   180.00   0.00000   2 ;    C13-   C12-   C11-   O11
  3576   3575   3578   3579      9     0.00   0.62760   3 ;    H3R-   C13-   C12-   H2R
  3576   3575   3578   3580      9     0.00   0.62760   3 ;    H3R-   C13-   C12-   H2S
  3576   3575   3578   3581      9     0.00   0.65270   3 ;    H3R-   C13-   C12-   C11
  3577   3575   3578   3579      9     0.00   0.62760   3 ;    H3S-   C13-   C12-   H2R
  3577   3575   3578   3580      9     0.00   0.62760   3 ;    H3S-   C13-   C12-   H2S
  3577   3575   3578   3581      9     0.00   0.65270   3 ;    H3S-   C13-   C12-   C11
  3578   3581   3583   3584      9   180.00  11.29680   2 ;    C12-   C11-   O11-    C1
  3579   3578   3581   3582      9     0.00   3.34720   1 ;    H2R-   C12-   C11-   O12
  3579   3578   3581   3582      9   180.00   0.33472   3 ;    H2R-   C12-   C11-   O12
  3579   3578   3581   3583      9   180.00   0.00000   2 ;    H2R-   C12-   C11-   O11
  3580   3578   3581   3582      9     0.00   3.34720   1 ;    H2S-   C12-   C11-   O12
  3580   3578   3581   3582      9   180.00   0.33472   3 ;    H2S-   C12-   C11-   O12
  3580   3578   3581   3583      9   180.00   0.00000   2 ;    H2S-   C12-   C11-   O11
  3581   3583   3584   3585      9     0.00   1.60247   3 ;    C11-   O11-    C1-    HR
  3581   3583   3584   3586      9     0.00   1.60247   3 ;    C11-   O11-    C1-    HS
  3581   3583   3584   3587      9     0.00  -0.41840   1 ;    C11-   O11-    C1-    C2
  3582   3581   3583   3584      9   180.00   5.85760   1 ;    O12-   C11-   O11-    C1
  3582   3581   3583   3584      9   180.00  11.29680   2 ;    O12-   C11-   O11-    C1
  3583   3584   3587   3588      9     0.00   0.00000   0 ;    O11-    C1-    C2-    HX
  3583   3584   3587   3588      9     0.00   1.04600   1 ;    O11-    C1-    C2-    HX
  3583   3584   3587   3589      9     0.00   0.00000   0 ;    O11-    C1-    C2-    C3
  3583   3584   3587   3589      9     0.00   0.00000   0 ;    O11-    C1-    C2-    C3
  3583   3584   3587   3589      9     0.00   0.00000   0 ;    O11-    C1-    C2-    C3
  3583   3584   3587   3589      9     0.00   0.00000   0 ;    O11-    C1-    C2-    C3
  3583   3584   3587   3589      9     0.00   0.00000   0 ;    O11-    C1-    C2-    C3
  3583   3584   3587   3616      9     0.00   1.25520   2 ;    O11-    C1-    C2-   O21
  3583   3584   3587   3616      9     0.00   4.18400   3 ;    O11-    C1-    C2-   O21
  3583   3584   3587   3616      9   180.00  -0.41840   1 ;    O11-    C1-    C2-   O21
  3584   3587   3589   3590      9     0.00   0.65270   3 ;     C1-    C2-    C3-    HA
  3584   3587   3589   3591      9     0.00   0.65270   3 ;     C1-    C2-    C3-    HB
  3584   3587   3589   3592      9   180.00   3.34720   1 ;     C1-    C2-    C3-   O31
  3584   3587   3616   3617      9     0.00  -0.41840   1 ;     C1-    C2-   O21-   C21
  3585   3584   3587   3588      9     0.00   0.65270   3 ;     HR-    C1-    C2-    HX
  3585   3584   3587   3589      9     0.00   0.65270   3 ;     HR-    C1-    C2-    C3
  3585   3584   3587   3616      9     0.00   0.00000   0 ;     HR-    C1-    C2-   O21
  3585   3584   3587   3616      9     0.00   1.04600   1 ;     HR-    C1-    C2-   O21
  3586   3584   3587   3588      9     0.00   0.65270   3 ;     HS-    C1-    C2-    HX
  3586   3584   3587   3589      9     0.00   0.65270   3 ;     HS-    C1-    C2-    C3
  3586   3584   3587   3616      9     0.00   0.00000   0 ;     HS-    C1-    C2-   O21
  3586   3584   3587   3616      9     0.00   1.04600   1 ;     HS-    C1-    C2-   O21
  3587   3589   3592   3593      9     0.00   0.00000   0 ;     C2-    C3-   O31-   P31
  3587   3589   3592   3593      9   180.00  -3.34720   2 ;     C2-    C3-   O31-   P31
  3587   3616   3617   3618      9   180.00   5.85760   1 ;     C2-   O21-   C21-   O22
  3587   3616   3617   3618      9   180.00  11.29680   2 ;     C2-   O21-   C21-   O22
  3587   3616   3617   3656      9   180.00  11.29680   2 ;     C2-   O21-   C21-   C12
  3588   3587   3589   3590      9     0.00   0.65270   3 ;     HX-    C2-    C3-    HA
  3588   3587   3589   3591      9     0.00   0.65270   3 ;     HX-    C2-    C3-    HB
  3588   3587   3589   3592      9     0.00   0.00000   0 ;     HX-    C2-    C3-   O31
  3588   3587   3589   3592      9     0.00   1.04600   1 ;     HX-    C2-    C3-   O31
  3588   3587   3616   3617      9     0.00   1.60247   3 ;     HX-    C2-   O21-   C21
  3589   3587   3616   3617      9     0.00  -0.41840   1 ;     C3-    C2-   O21-   C21
  3589   3592   3593   3594      9     0.00   2.51040   3 ;     C3-   O31-   P31-   O32
  3589   3592   3593   3594      9     0.00   9.62320   2 ;     C3-   O31-   P31-   O32
  3589   3592   3593   3614      9     0.00   0.00000   0 ;     C3-   O31-   P31-   O33
  3589   3592   3593   3614      9     0.00   0.00000   0 ;     C3-   O31-   P31-   O33
  3589   3592   3593   3614      9     0.00   0.00000   0 ;     C3-   O31-   P31-   O33
  3589   3592   3593   3614      9     0.00   0.00000   0 ;     C3-   O31-   P31-   O33
  3589   3592   3593   3614      9     0.00   0.83680   2 ;     C3-   O31-   P31-   O33
  3589   3592   3593   3615      9     0.00   0.00000   0 ;     C3-   O31-   P31-   O34
  3589   3592   3593   3615      9     0.00   0.00000   0 ;     C3-   O31-   P31-   O34
  3589   3592   3593   3615      9     0.00   0.00000   0 ;     C3-   O31-   P31-   O34
  3589   3592   3593   3615      9     0.00   0.00000   0 ;     C3-   O31-   P31-   O34
  3589   3592   3593   3615      9     0.00   0.83680   2 ;     C3-   O31-   P31-   O34
  3590   3589   3587   3616      9     0.00   0.00000   0 ;     HA-    C3-    C2-   O21
  3590   3589   3587   3616      9     0.00   1.04600   1 ;     HA-    C3-    C2-   O21
  3590   3589   3592   3593      9     0.00   0.00000   0 ;     HA-    C3-   O31-   P31
  3590   3589   3592   3593      9     0.00   0.00000   0 ;     HA-    C3-   O31-   P31
  3590   3589   3592   3593      9     0.00   0.00000   0 ;     HA-    C3-   O31-   P31
  3590   3589   3592   3593      9     0.00   0.00000   0 ;     HA-    C3-   O31-   P31
  3590   3589   3592   3593      9     0.00   1.60247   3 ;     HA-    C3-   O31-   P31
  3591   3589   3587   3616      9     0.00   0.00000   0 ;     HB-    C3-    C2-   O21
  3591   3589   3587   3616      9     0.00   1.04600   1 ;     HB-    C3-    C2-   O21
  3591   3589   3592   3593      9     0.00   0.00000   0 ;     HB-    C3-   O31-   P31
  3591   3589   3592   3593      9     0.00   0.00000   0 ;     HB-    C3-   O31-   P31
  3591   3589   3592   3593      9     0.00   0.00000   0 ;     HB-    C3-   O31-   P31
  3591   3589   3592   3593      9     0.00   0.00000   0 ;     HB-    C3-   O31-   P31
  3591   3589   3592   3593      9     0.00   1.60247   3 ;     HB-    C3-   O31-   P31
  3592   3589   3587   3616      9     0.00   0.00000   0 ;    O31-    C3-    C2-   O21
  3592   3589   3587   3616      9     0.00   0.00000   0 ;    O31-    C3-    C2-   O21
  3592   3589   3587   3616      9     0.00   0.00000   0 ;    O31-    C3-    C2-   O21
  3592   3589   3587   3616      9     0.00   0.00000   0 ;    O31-    C3-    C2-   O21
  3592   3589   3587   3616      9     0.00   0.00000   0 ;    O31-    C3-    C2-   O21
  3592   3593   3594   3595      9     0.00   2.51040   3 ;    O31-   P31-   O32-   C31
  3592   3593   3594   3595      9     0.00   9.62320   2 ;    O31-   P31-   O32-   C31
  3593   3594   3595   3596      9     0.00   0.00000   0 ;    P31-   O32-   C31-   H1A
  3593   3594   3595   3596      9     0.00   0.00000   0 ;    P31-   O32-   C31-   H1A
  3593   3594   3595   3596      9     0.00   0.00000   0 ;    P31-   O32-   C31-   H1A
  3593   3594   3595   3596      9     0.00   0.00000   0 ;    P31-   O32-   C31-   H1A
  3593   3594   3595   3596      9     0.00   1.60247   3 ;    P31-   O32-   C31-   H1A
  3593   3594   3595   3597      9     0.00   0.00000   0 ;    P31-   O32-   C31-   H1B
  3593   3594   3595   3597      9     0.00   0.00000   0 ;    P31-   O32-   C31-   H1B
  3593   3594   3595   3597      9     0.00   0.00000   0 ;    P31-   O32-   C31-   H1B
  3593   3594   3595   3597      9     0.00   0.00000   0 ;    P31-   O32-   C31-   H1B
  3593   3594   3595   3597      9     0.00   1.60247   3 ;    P31-   O32-   C31-   H1B
  3593   3594   3595   3598      9     0.00   0.00000   0 ;    P31-   O32-   C31-   C32
  3593   3594   3595   3598      9   180.00  -3.34720   2 ;    P31-   O32-   C31-   C32
  3594   3595   3598   3599      9     0.00   0.65270   3 ;    O32-   C31-   C32-   H2A
  3594   3595   3598   3600      9     0.00   0.65270   3 ;    O32-   C31-   C32-   H2B
  3594   3595   3598   3601      9     0.00   4.18400   3 ;    O32-   C31-   C32-   N31
  3595   3594   3593   3614      9     0.00   0.00000   0 ;    C31-   O32-   P31-   O33
  3595   3594   3593   3614      9     0.00   0.00000   0 ;    C31-   O32-   P31-   O33
  3595   3594   3593   3614      9     0.00   0.00000   0 ;    C31-   O32-   P31-   O33
  3595   3594   3593   3614      9     0.00   0.00000   0 ;    C31-   O32-   P31-   O33
  3595   3594   3593   3614      9     0.00   0.83680   2 ;    C31-   O32-   P31-   O33
  3595   3594   3593   3615      9     0.00   0.00000   0 ;    C31-   O32-   P31-   O34
  3595   3594   3593   3615      9     0.00   0.00000   0 ;    C31-   O32-   P31-   O34
  3595   3594   3593   3615      9     0.00   0.00000   0 ;    C31-   O32-   P31-   O34
  3595   3594   3593   3615      9     0.00   0.00000   0 ;    C31-   O32-   P31-   O34
  3595   3594   3593   3615      9     0.00   0.83680   2 ;    C31-   O32-   P31-   O34
  3595   3598   3601   3602      9     0.00   0.65270   3 ;    C31-   C32-   N31-   C33
  3595   3598   3601   3606      9     0.00   0.65270   3 ;    C31-   C32-   N31-   C34
  3595   3598   3601   3610      9     0.00   0.65270   3 ;    C31-   C32-   N31-   C35
  3596   3595   3598   3599      9     0.00   0.65270   3 ;    H1A-   C31-   C32-   H2A
  3596   3595   3598   3600      9     0.00   0.65270   3 ;    H1A-   C31-   C32-   H2B
  3596   3595   3598   3601      9     0.00   0.65270   3 ;    H1A-   C31-   C32-   N31
  3597   3595   3598   3599      9     0.00   0.65270   3 ;    H1B-   C31-   C32-   H2A
  3597   3595   3598   3600      9     0.00   0.65270   3 ;    H1B-   C31-   C32-   H2B
  3597   3595   3598   3601      9     0.00   0.65270   3 ;    H1B-   C31-   C32-   N31
  3598   3601   3602   3603      9     0.00   0.65270   3 ;    C32-   N31-   C33-   H3A
  3598   3601   3602   3604      9     0.00   0.65270   3 ;    C32-   N31-   C33-   H3B
  3598   3601   3602   3605      9     0.00   0.65270   3 ;    C32-   N31-   C33-   H3C
  3598   3601   3606   3607      9     0.00   0.65270   3 ;    C32-   N31-   C34-   H4A
  3598   3601   3606   3608      9     0.00   0.65270   3 ;    C32-   N31-   C34-   H4B
  3598   3601   3606   3609      9     0.00   0.65270   3 ;    C32-   N31-   C34-   H4C
  3598   3601   3610   3611      9     0.00   0.65270   3 ;    C32-   N31-   C35-   H5A
  3598   3601   3610   3612      9     0.00   0.65270   3 ;    C32-   N31-   C35-   H5B
  3598   3601   3610   3613      9     0.00   0.65270   3 ;    C32-   N31-   C35-   H5C
  3599   3598   3601   3602      9     0.00   0.65270   3 ;    H2A-   C32-   N31-   C33
  3599   3598   3601   3606      9     0.00   0.65270   3 ;    H2A-   C32-   N31-   C34
  3599   3598   3601   3610      9     0.00   0.65270   3 ;    H2A-   C32-   N31-   C35
  3600   3598   3601   3602      9     0.00   0.65270   3 ;    H2B-   C32-   N31-   C33
  3600   3598   3601   3606      9     0.00   0.65270   3 ;    H2B-   C32-   N31-   C34
  3600   3598   3601   3610      9     0.00   0.65270   3 ;    H2B-   C32-   N31-   C35
  3602   3601   3606   3607      9     0.00   0.65270   3 ;    C33-   N31-   C34-   H4A
  3602   3601   3606   3608      9     0.00   0.65270   3 ;    C33-   N31-   C34-   H4B
  3602   3601   3606   3609      9     0.00   0.65270   3 ;    C33-   N31-   C34-   H4C
  3602   3601   3610   3611      9     0.00   0.65270   3 ;    C33-   N31-   C35-   H5A
  3602   3601   3610   3612      9     0.00   0.65270   3 ;    C33-   N31-   C35-   H5B
  3602   3601   3610   3613      9     0.00   0.65270   3 ;    C33-   N31-   C35-   H5C
  3603   3602   3601   3606      9     0.00   0.65270   3 ;    H3A-   C33-   N31-   C34
  3603   3602   3601   3610      9     0.00   0.65270   3 ;    H3A-   C33-   N31-   C35
  3604   3602   3601   3606      9     0.00   0.65270   3 ;    H3B-   C33-   N31-   C34
  3604   3602   3601   3610      9     0.00   0.65270   3 ;    H3B-   C33-   N31-   C35
  3605   3602   3601   3606      9     0.00   0.65270   3 ;    H3C-   C33-   N31-   C34
  3605   3602   3601   3610      9     0.00   0.65270   3 ;    H3C-   C33-   N31-   C35
  3606   3601   3610   3611      9     0.00   0.65270   3 ;    C34-   N31-   C35-   H5A
  3606   3601   3610   3612      9     0.00   0.65270   3 ;    C34-   N31-   C35-   H5B
  3606   3601   3610   3613      9     0.00   0.65270   3 ;    C34-   N31-   C35-   H5C
  3607   3606   3601   3610      9     0.00   0.65270   3 ;    H4A-   C34-   N31-   C35
  3608   3606   3601   3610      9     0.00   0.65270   3 ;    H4B-   C34-   N31-   C35
  3609   3606   3601   3610      9     0.00   0.65270   3 ;    H4C-   C34-   N31-   C35
  3616   3617   3656   3653      9   180.00   0.00000   2 ;    O21-   C21-   C12-   C13
  3616   3617   3656   3657      9   180.00   0.00000   2 ;    O21-   C21-   C12-   H2R
  3616   3617   3656   3658      9   180.00   0.00000   2 ;    O21-   C21-   C12-   H2S
  3617   3656   3653   3650      9     0.00   0.65270   3 ;    C21-   C12-   C13-   C14
  3617   3656   3653   3654      9     0.00   0.65270   3 ;    C21-   C12-   C13-   H3R
  3617   3656   3653   3655      9     0.00   0.65270   3 ;    C21-   C12-   C13-   H3S
  3618   3617   3656   3653      9   180.00   0.00000   2 ;    O22-   C21-   C12-   C13
  3618   3617   3656   3657      9     0.00   3.34720   1 ;    O22-   C21-   C12-   H2R
  3618   3617   3656   3657      9   180.00   0.33472   3 ;    O22-   C21-   C12-   H2R
  3618   3617   3656   3658      9     0.00   3.34720   1 ;    O22-   C21-   C12-   H2S
  3618   3617   3656   3658      9   180.00   0.33472   3 ;    O22-   C21-   C12-   H2S
  3619   3620   3623   3624      9     0.00   0.62760   3 ;   H14T-  C114-  C113-  H13R
  3619   3620   3623   3625      9     0.00   0.62760   3 ;   H14T-  C114-  C113-  H13S
  3619   3620   3623   3626      9     0.00   0.66944   3 ;   H14T-  C114-  C113-  C112
  3620   3623   3626   3627      9     0.00   0.66944   3 ;   C114-  C113-  C112-  H12R
  3620   3623   3626   3628      9     0.00   0.66944   3 ;   C114-  C113-  C112-  H12S
  3620   3623   3626   3629      9     0.00   0.41840   1 ;   C114-  C113-  C112-  C111
  3620   3623   3626   3629      9     0.00   0.41840   2 ;   C114-  C113-  C112-  C111
  3620   3623   3626   3629      9     0.00   0.41840   4 ;   C114-  C113-  C112-  C111
  3620   3623   3626   3629      9     0.00   0.41840   5 ;   C114-  C113-  C112-  C111
  3620   3623   3626   3629      9     0.00   1.25520   3 ;   C114-  C113-  C112-  C111
  3621   3620   3623   3624      9     0.00   0.62760   3 ;   H14R-  C114-  C113-  H13R
  3621   3620   3623   3625      9     0.00   0.62760   3 ;   H14R-  C114-  C113-  H13S
  3621   3620   3623   3626      9     0.00   0.66944   3 ;   H14R-  C114-  C113-  C112
  3622   3620   3623   3624      9     0.00   0.62760   3 ;   H14S-  C114-  C113-  H13R
  3622   3620   3623   3625      9     0.00   0.62760   3 ;   H14S-  C114-  C113-  H13S
  3622   3620   3623   3626      9     0.00   0.66944   3 ;   H14S-  C114-  C113-  C112
  3623   3626   3629   3630      9     0.00   0.66944   3 ;   C113-  C112-  C111-  H11R
  3623   3626   3629   3631      9     0.00   0.66944   3 ;   C113-  C112-  C111-  H11S
  3623   3626   3629   3632      9     0.00   0.41840   1 ;   C113-  C112-  C111-  C110
  3623   3626   3629   3632      9     0.00   0.41840   2 ;   C113-  C112-  C111-  C110
  3623   3626   3629   3632      9     0.00   0.41840   4 ;   C113-  C112-  C111-  C110
  3623   3626   3629   3632      9     0.00   0.41840   5 ;   C113-  C112-  C111-  C110
  3623   3626   3629   3632      9     0.00   1.25520   3 ;   C113-  C112-  C111-  C110
  3624   3623   3626   3627      9     0.00   0.62760   3 ;   H13R-  C113-  C112-  H12R
  3624   3623   3626   3628      9     0.00   0.62760   3 ;   H13R-  C113-  C112-  H12S
  3624   3623   3626   3629      9     0.00   0.66944   3 ;   H13R-  C113-  C112-  C111
  3625   3623   3626   3627      9     0.00   0.62760   3 ;   H13S-  C113-  C112-  H12R
  3625   3623   3626   3628      9     0.00   0.62760   3 ;   H13S-  C113-  C112-  H12S
  3625   3623   3626   3629      9     0.00   0.66944   3 ;   H13S-  C113-  C112-  C111
  3626   3629   3632   3633      9     0.00   0.66944   3 ;   C112-  C111-  C110-  H10R
  3626   3629   3632   3634      9     0.00   0.66944   3 ;   C112-  C111-  C110-  H10S
  3626   3629   3632   3635      9     0.00   0.41840   1 ;   C112-  C111-  C110-   C19
  3626   3629   3632   3635      9     0.00   0.41840   2 ;   C112-  C111-  C110-   C19
  3626   3629   3632   3635      9     0.00   0.41840   4 ;   C112-  C111-  C110-   C19
  3626   3629   3632   3635      9     0.00   0.41840   5 ;   C112-  C111-  C110-   C19
  3626   3629   3632   3635      9     0.00   1.25520   3 ;   C112-  C111-  C110-   C19
  3627   3626   3629   3630      9     0.00   0.62760   3 ;   H12R-  C112-  C111-  H11R
  3627   3626   3629   3631      9     0.00   0.62760   3 ;   H12R-  C112-  C111-  H11S
  3627   3626   3629   3632      9     0.00   0.66944   3 ;   H12R-  C112-  C111-  C110
  3628   3626   3629   3630      9     0.00   0.62760   3 ;   H12S-  C112-  C111-  H11R
  3628   3626   3629   3631      9     0.00   0.62760   3 ;   H12S-  C112-  C111-  H11S
  3628   3626   3629   3632      9     0.00   0.66944   3 ;   H12S-  C112-  C111-  C110
  3629   3632   3635   3636      9     0.00   0.66944   3 ;   C111-  C110-   C19-   H9R
  3629   3632   3635   3637      9     0.00   0.66944   3 ;   C111-  C110-   C19-   H9S
  3629   3632   3635   3638      9     0.00   0.41840   1 ;   C111-  C110-   C19-   C18
  3629   3632   3635   3638      9     0.00   0.41840   2 ;   C111-  C110-   C19-   C18
  3629   3632   3635   3638      9     0.00   0.41840   4 ;   C111-  C110-   C19-   C18
  3629   3632   3635   3638      9     0.00   0.41840   5 ;   C111-  C110-   C19-   C18
  3629   3632   3635   3638      9     0.00   1.25520   3 ;   C111-  C110-   C19-   C18
  3630   3629   3632   3633      9     0.00   0.62760   3 ;   H11R-  C111-  C110-  H10R
  3630   3629   3632   3634      9     0.00   0.62760   3 ;   H11R-  C111-  C110-  H10S
  3630   3629   3632   3635      9     0.00   0.66944   3 ;   H11R-  C111-  C110-   C19
  3631   3629   3632   3633      9     0.00   0.62760   3 ;   H11S-  C111-  C110-  H10R
  3631   3629   3632   3634      9     0.00   0.62760   3 ;   H11S-  C111-  C110-  H10S
  3631   3629   3632   3635      9     0.00   0.66944   3 ;   H11S-  C111-  C110-   C19
  3632   3635   3638   3639      9     0.00   0.66944   3 ;   C110-   C19-   C18-   H8R
  3632   3635   3638   3640      9     0.00   0.66944   3 ;   C110-   C19-   C18-   H8S
  3632   3635   3638   3641      9     0.00   0.41840   1 ;   C110-   C19-   C18-   C17
  3632   3635   3638   3641      9     0.00   0.41840   2 ;   C110-   C19-   C18-   C17
  3632   3635   3638   3641      9     0.00   0.41840   4 ;   C110-   C19-   C18-   C17
  3632   3635   3638   3641      9     0.00   0.41840   5 ;   C110-   C19-   C18-   C17
  3632   3635   3638   3641      9     0.00   1.25520   3 ;   C110-   C19-   C18-   C17
  3633   3632   3635   3636      9     0.00   0.62760   3 ;   H10R-  C110-   C19-   H9R
  3633   3632   3635   3637      9     0.00   0.62760   3 ;   H10R-  C110-   C19-   H9S
  3633   3632   3635   3638      9     0.00   0.66944   3 ;   H10R-  C110-   C19-   C18
  3634   3632   3635   3636      9     0.00   0.62760   3 ;   H10S-  C110-   C19-   H9R
  3634   3632   3635   3637      9     0.00   0.62760   3 ;   H10S-  C110-   C19-   H9S
  3634   3632   3635   3638      9     0.00   0.66944   3 ;   H10S-  C110-   C19-   C18
  3635   3638   3641   3642      9     0.00   0.66944   3 ;    C19-   C18-   C17-   H7R
  3635   3638   3641   3643      9     0.00   0.66944   3 ;    C19-   C18-   C17-   H7S
  3635   3638   3641   3644      9     0.00   0.41840   1 ;    C19-   C18-   C17-   C16
  3635   3638   3641   3644      9     0.00   0.41840   2 ;    C19-   C18-   C17-   C16
  3635   3638   3641   3644      9     0.00   0.41840   4 ;    C19-   C18-   C17-   C16
  3635   3638   3641   3644      9     0.00   0.41840   5 ;    C19-   C18-   C17-   C16
  3635   3638   3641   3644      9     0.00   1.25520   3 ;    C19-   C18-   C17-   C16
  3636   3635   3638   3639      9     0.00   0.62760   3 ;    H9R-   C19-   C18-   H8R
  3636   3635   3638   3640      9     0.00   0.62760   3 ;    H9R-   C19-   C18-   H8S
  3636   3635   3638   3641      9     0.00   0.66944   3 ;    H9R-   C19-   C18-   C17
  3637   3635   3638   3639      9     0.00   0.62760   3 ;    H9S-   C19-   C18-   H8R
  3637   3635   3638   3640      9     0.00   0.62760   3 ;    H9S-   C19-   C18-   H8S
  3637   3635   3638   3641      9     0.00   0.66944   3 ;    H9S-   C19-   C18-   C17
  3638   3641   3644   3645      9     0.00   0.66944   3 ;    C18-   C17-   C16-   H6R
  3638   3641   3644   3646      9     0.00   0.66944   3 ;    C18-   C17-   C16-   H6S
  3638   3641   3644   3647      9     0.00   0.41840   1 ;    C18-   C17-   C16-   C15
  3638   3641   3644   3647      9     0.00   0.41840   2 ;    C18-   C17-   C16-   C15
  3638   3641   3644   3647      9     0.00   0.41840   4 ;    C18-   C17-   C16-   C15
  3638   3641   3644   3647      9     0.00   0.41840   5 ;    C18-   C17-   C16-   C15
  3638   3641   3644   3647      9     0.00   1.25520   3 ;    C18-   C17-   C16-   C15
  3639   3638   3641   3642      9     0.00   0.62760   3 ;    H8R-   C18-   C17-   H7R
  3639   3638   3641   3643      9     0.00   0.62760   3 ;    H8R-   C18-   C17-   H7S
  3639   3638   3641   3644      9     0.00   0.66944   3 ;    H8R-   C18-   C17-   C16
  3640   3638   3641   3642      9     0.00   0.62760   3 ;    H8S-   C18-   C17-   H7R
  3640   3638   3641   3643      9     0.00   0.62760   3 ;    H8S-   C18-   C17-   H7S
  3640   3638   3641   3644      9     0.00   0.66944   3 ;    H8S-   C18-   C17-   C16
  3641   3644   3647   3648      9     0.00   0.66944   3 ;    C17-   C16-   C15-   H5R
  3641   3644   3647   3649      9     0.00   0.66944   3 ;    C17-   C16-   C15-   H5S
  3641   3644   3647   3650      9     0.00   0.41840   1 ;    C17-   C16-   C15-   C14
  3641   3644   3647   3650      9     0.00   0.41840   2 ;    C17-   C16-   C15-   C14
  3641   3644   3647   3650      9     0.00   0.41840   4 ;    C17-   C16-   C15-   C14
  3641   3644   3647   3650      9     0.00   0.41840   5 ;    C17-   C16-   C15-   C14
  3641   3644   3647   3650      9     0.00   1.25520   3 ;    C17-   C16-   C15-   C14
  3642   3641   3644   3645      9     0.00   0.62760   3 ;    H7R-   C17-   C16-   H6R
  3642   3641   3644   3646      9     0.00   0.62760   3 ;    H7R-   C17-   C16-   H6S
  3642   3641   3644   3647      9     0.00   0.66944   3 ;    H7R-   C17-   C16-   C15
  3643   3641   3644   3645      9     0.00   0.62760   3 ;    H7S-   C17-   C16-   H6R
  3643   3641   3644   3646      9     0.00   0.62760   3 ;    H7S-   C17-   C16-   H6S
  3643   3641   3644   3647      9     0.00   0.66944   3 ;    H7S-   C17-   C16-   C15
  3644   3647   3650   3651      9     0.00   0.66944   3 ;    C16-   C15-   C14-   H4R
  3644   3647   3650   3652      9     0.00   0.66944   3 ;    C16-   C15-   C14-   H4S
  3644   3647   3650   3653      9     0.00   0.41840   1 ;    C16-   C15-   C14-   C13
  3644   3647   3650   3653      9     0.00   0.41840   2 ;    C16-   C15-   C14-   C13
  3644   3647   3650   3653      9     0.00   0.41840   4 ;    C16-   C15-   C14-   C13
  3644   3647   3650   3653      9     0.00   0.41840   5 ;    C16-   C15-   C14-   C13
  3644   3647   3650   3653      9     0.00   1.25520   3 ;    C16-   C15-   C14-   C13
  3645   3644   3647   3648      9     0.00   0.62760   3 ;    H6R-   C16-   C15-   H5R
  3645   3644   3647   3649      9     0.00   0.62760   3 ;    H6R-   C16-   C15-   H5S
  3645   3644   3647   3650      9     0.00   0.66944   3 ;    H6R-   C16-   C15-   C14
  3646   3644   3647   3648      9     0.00   0.62760   3 ;    H6S-   C16-   C15-   H5R
  3646   3644   3647   3649      9     0.00   0.62760   3 ;    H6S-   C16-   C15-   H5S
  3646   3644   3647   3650      9     0.00   0.66944   3 ;    H6S-   C16-   C15-   C14
  3647   3650   3653   3654      9     0.00   0.66944   3 ;    C15-   C14-   C13-   H3R
  3647   3650   3653   3655      9     0.00   0.66944   3 ;    C15-   C14-   C13-   H3S
  3647   3650   3653   3656      9     0.00   0.41840   1 ;    C15-   C14-   C13-   C12
  3647   3650   3653   3656      9     0.00   0.41840   2 ;    C15-   C14-   C13-   C12
  3647   3650   3653   3656      9     0.00   0.41840   4 ;    C15-   C14-   C13-   C12
  3647   3650   3653   3656      9     0.00   0.41840   5 ;    C15-   C14-   C13-   C12
  3647   3650   3653   3656      9     0.00   1.25520   3 ;    C15-   C14-   C13-   C12
  3648   3647   3650   3651      9     0.00   0.62760   3 ;    H5R-   C15-   C14-   H4R
  3648   3647   3650   3652      9     0.00   0.62760   3 ;    H5R-   C15-   C14-   H4S
  3648   3647   3650   3653      9     0.00   0.66944   3 ;    H5R-   C15-   C14-   C13
  3649   3647   3650   3651      9     0.00   0.62760   3 ;    H5S-   C15-   C14-   H4R
  3649   3647   3650   3652      9     0.00   0.62760   3 ;    H5S-   C15-   C14-   H4S
  3649   3647   3650   3653      9     0.00   0.66944   3 ;    H5S-   C15-   C14-   C13
  3650   3653   3656   3657      9     0.00   0.66944   3 ;    C14-   C13-   C12-   H2R
  3650   3653   3656   3658      9     0.00   0.66944   3 ;    C14-   C13-   C12-   H2S
  3651   3650   3653   3654      9     0.00   0.62760   3 ;    H4R-   C14-   C13-   H3R
  3651   3650   3653   3655      9     0.00   0.62760   3 ;    H4R-   C14-   C13-   H3S
  3651   3650   3653   3656      9     0.00   0.66944   3 ;    H4R-   C14-   C13-   C12
  3652   3650   3653   3654      9     0.00   0.62760   3 ;    H4S-   C14-   C13-   H3R
  3652   3650   3653   3655      9     0.00   0.62760   3 ;    H4S-   C14-   C13-   H3S
  3652   3650   3653   3656      9     0.00   0.66944   3 ;    H4S-   C14-   C13-   C12
  3654   3653   3656   3657      9     0.00   0.62760   3 ;    H3R-   C13-   C12-   H2R
  3654   3653   3656   3658      9     0.00   0.62760   3 ;    H3R-   C13-   C12-   H2S
  3655   3653   3656   3657      9     0.00   0.62760   3 ;    H3S-   C13-   C12-   H2R
  3655   3653   3656   3658      9     0.00   0.62760   3 ;    H3S-   C13-   C12-   H2S
  3659   3660   3663   3664      9     0.00   0.62760   3 ;   H14T-  C114-  C113-  H13R
  3659   3660   3663   3665      9     0.00   0.62760   3 ;   H14T-  C114-  C113-  H13S
  3659   3660   3663   3666      9     0.00   0.66944   3 ;   H14T-  C114-  C113-  C112
  3660   3663   3666   3667      9     0.00   0.66944   3 ;   C114-  C113-  C112-  H12R
  3660   3663   3666   3668      9     0.00   0.66944   3 ;   C114-  C113-  C112-  H12S
  3660   3663   3666   3669      9     0.00   0.41840   1 ;   C114-  C113-  C112-  C111
  3660   3663   3666   3669      9     0.00   0.41840   2 ;   C114-  C113-  C112-  C111
  3660   3663   3666   3669      9     0.00   0.41840   4 ;   C114-  C113-  C112-  C111
  3660   3663   3666   3669      9     0.00   0.41840   5 ;   C114-  C113-  C112-  C111
  3660   3663   3666   3669      9     0.00   1.25520   3 ;   C114-  C113-  C112-  C111
  3661   3660   3663   3664      9     0.00   0.62760   3 ;   H14R-  C114-  C113-  H13R
  3661   3660   3663   3665      9     0.00   0.62760   3 ;   H14R-  C114-  C113-  H13S
  3661   3660   3663   3666      9     0.00   0.66944   3 ;   H14R-  C114-  C113-  C112
  3662   3660   3663   3664      9     0.00   0.62760   3 ;   H14S-  C114-  C113-  H13R
  3662   3660   3663   3665      9     0.00   0.62760   3 ;   H14S-  C114-  C113-  H13S
  3662   3660   3663   3666      9     0.00   0.66944   3 ;   H14S-  C114-  C113-  C112
  3663   3666   3669   3670      9     0.00   0.66944   3 ;   C113-  C112-  C111-  H11R
  3663   3666   3669   3671      9     0.00   0.66944   3 ;   C113-  C112-  C111-  H11S
  3663   3666   3669   3672      9     0.00   0.41840   1 ;   C113-  C112-  C111-  C110
  3663   3666   3669   3672      9     0.00   0.41840   2 ;   C113-  C112-  C111-  C110
  3663   3666   3669   3672      9     0.00   0.41840   4 ;   C113-  C112-  C111-  C110
  3663   3666   3669   3672      9     0.00   0.41840   5 ;   C113-  C112-  C111-  C110
  3663   3666   3669   3672      9     0.00   1.25520   3 ;   C113-  C112-  C111-  C110
  3664   3663   3666   3667      9     0.00   0.62760   3 ;   H13R-  C113-  C112-  H12R
  3664   3663   3666   3668      9     0.00   0.62760   3 ;   H13R-  C113-  C112-  H12S
  3664   3663   3666   3669      9     0.00   0.66944   3 ;   H13R-  C113-  C112-  C111
  3665   3663   3666   3667      9     0.00   0.62760   3 ;   H13S-  C113-  C112-  H12R
  3665   3663   3666   3668      9     0.00   0.62760   3 ;   H13S-  C113-  C112-  H12S
  3665   3663   3666   3669      9     0.00   0.66944   3 ;   H13S-  C113-  C112-  C111
  3666   3669   3672   3673      9     0.00   0.66944   3 ;   C112-  C111-  C110-  H10R
  3666   3669   3672   3674      9     0.00   0.66944   3 ;   C112-  C111-  C110-  H10S
  3666   3669   3672   3675      9     0.00   0.41840   1 ;   C112-  C111-  C110-   C19
  3666   3669   3672   3675      9     0.00   0.41840   2 ;   C112-  C111-  C110-   C19
  3666   3669   3672   3675      9     0.00   0.41840   4 ;   C112-  C111-  C110-   C19
  3666   3669   3672   3675      9     0.00   0.41840   5 ;   C112-  C111-  C110-   C19
  3666   3669   3672   3675      9     0.00   1.25520   3 ;   C112-  C111-  C110-   C19
  3667   3666   3669   3670      9     0.00   0.62760   3 ;   H12R-  C112-  C111-  H11R
  3667   3666   3669   3671      9     0.00   0.62760   3 ;   H12R-  C112-  C111-  H11S
  3667   3666   3669   3672      9     0.00   0.66944   3 ;   H12R-  C112-  C111-  C110
  3668   3666   3669   3670      9     0.00   0.62760   3 ;   H12S-  C112-  C111-  H11R
  3668   3666   3669   3671      9     0.00   0.62760   3 ;   H12S-  C112-  C111-  H11S
  3668   3666   3669   3672      9     0.00   0.66944   3 ;   H12S-  C112-  C111-  C110
  3669   3672   3675   3676      9     0.00   0.66944   3 ;   C111-  C110-   C19-   H9R
  3669   3672   3675   3677      9     0.00   0.66944   3 ;   C111-  C110-   C19-   H9S
  3669   3672   3675   3678      9     0.00   0.41840   1 ;   C111-  C110-   C19-   C18
  3669   3672   3675   3678      9     0.00   0.41840   2 ;   C111-  C110-   C19-   C18
  3669   3672   3675   3678      9     0.00   0.41840   4 ;   C111-  C110-   C19-   C18
  3669   3672   3675   3678      9     0.00   0.41840   5 ;   C111-  C110-   C19-   C18
  3669   3672   3675   3678      9     0.00   1.25520   3 ;   C111-  C110-   C19-   C18
  3670   3669   3672   3673      9     0.00   0.62760   3 ;   H11R-  C111-  C110-  H10R
  3670   3669   3672   3674      9     0.00   0.62760   3 ;   H11R-  C111-  C110-  H10S
  3670   3669   3672   3675      9     0.00   0.66944   3 ;   H11R-  C111-  C110-   C19
  3671   3669   3672   3673      9     0.00   0.62760   3 ;   H11S-  C111-  C110-  H10R
  3671   3669   3672   3674      9     0.00   0.62760   3 ;   H11S-  C111-  C110-  H10S
  3671   3669   3672   3675      9     0.00   0.66944   3 ;   H11S-  C111-  C110-   C19
  3672   3675   3678   3679      9     0.00   0.66944   3 ;   C110-   C19-   C18-   H8R
  3672   3675   3678   3680      9     0.00   0.66944   3 ;   C110-   C19-   C18-   H8S
  3672   3675   3678   3681      9     0.00   0.41840   1 ;   C110-   C19-   C18-   C17
  3672   3675   3678   3681      9     0.00   0.41840   2 ;   C110-   C19-   C18-   C17
  3672   3675   3678   3681      9     0.00   0.41840   4 ;   C110-   C19-   C18-   C17
  3672   3675   3678   3681      9     0.00   0.41840   5 ;   C110-   C19-   C18-   C17
  3672   3675   3678   3681      9     0.00   1.25520   3 ;   C110-   C19-   C18-   C17
  3673   3672   3675   3676      9     0.00   0.62760   3 ;   H10R-  C110-   C19-   H9R
  3673   3672   3675   3677      9     0.00   0.62760   3 ;   H10R-  C110-   C19-   H9S
  3673   3672   3675   3678      9     0.00   0.66944   3 ;   H10R-  C110-   C19-   C18
  3674   3672   3675   3676      9     0.00   0.62760   3 ;   H10S-  C110-   C19-   H9R
  3674   3672   3675   3677      9     0.00   0.62760   3 ;   H10S-  C110-   C19-   H9S
  3674   3672   3675   3678      9     0.00   0.66944   3 ;   H10S-  C110-   C19-   C18
  3675   3678   3681   3682      9     0.00   0.66944   3 ;    C19-   C18-   C17-   H7R
  3675   3678   3681   3683      9     0.00   0.66944   3 ;    C19-   C18-   C17-   H7S
  3675   3678   3681   3684      9     0.00   0.41840   1 ;    C19-   C18-   C17-   C16
  3675   3678   3681   3684      9     0.00   0.41840   2 ;    C19-   C18-   C17-   C16
  3675   3678   3681   3684      9     0.00   0.41840   4 ;    C19-   C18-   C17-   C16
  3675   3678   3681   3684      9     0.00   0.41840   5 ;    C19-   C18-   C17-   C16
  3675   3678   3681   3684      9     0.00   1.25520   3 ;    C19-   C18-   C17-   C16
  3676   3675   3678   3679      9     0.00   0.62760   3 ;    H9R-   C19-   C18-   H8R
  3676   3675   3678   3680      9     0.00   0.62760   3 ;    H9R-   C19-   C18-   H8S
  3676   3675   3678   3681      9     0.00   0.66944   3 ;    H9R-   C19-   C18-   C17
  3677   3675   3678   3679      9     0.00   0.62760   3 ;    H9S-   C19-   C18-   H8R
  3677   3675   3678   3680      9     0.00   0.62760   3 ;    H9S-   C19-   C18-   H8S
  3677   3675   3678   3681      9     0.00   0.66944   3 ;    H9S-   C19-   C18-   C17
  3678   3681   3684   3685      9     0.00   0.66944   3 ;    C18-   C17-   C16-   H6R
  3678   3681   3684   3686      9     0.00   0.66944   3 ;    C18-   C17-   C16-   H6S
  3678   3681   3684   3687      9     0.00   0.41840   1 ;    C18-   C17-   C16-   C15
  3678   3681   3684   3687      9     0.00   0.41840   2 ;    C18-   C17-   C16-   C15
  3678   3681   3684   3687      9     0.00   0.41840   4 ;    C18-   C17-   C16-   C15
  3678   3681   3684   3687      9     0.00   0.41840   5 ;    C18-   C17-   C16-   C15
  3678   3681   3684   3687      9     0.00   1.25520   3 ;    C18-   C17-   C16-   C15
  3679   3678   3681   3682      9     0.00   0.62760   3 ;    H8R-   C18-   C17-   H7R
  3679   3678   3681   3683      9     0.00   0.62760   3 ;    H8R-   C18-   C17-   H7S
  3679   3678   3681   3684      9     0.00   0.66944   3 ;    H8R-   C18-   C17-   C16
  3680   3678   3681   3682      9     0.00   0.62760   3 ;    H8S-   C18-   C17-   H7R
  3680   3678   3681   3683      9     0.00   0.62760   3 ;    H8S-   C18-   C17-   H7S
  3680   3678   3681   3684      9     0.00   0.66944   3 ;    H8S-   C18-   C17-   C16
  3681   3684   3687   3688      9     0.00   0.66944   3 ;    C17-   C16-   C15-   H5R
  3681   3684   3687   3689      9     0.00   0.66944   3 ;    C17-   C16-   C15-   H5S
  3681   3684   3687   3690      9     0.00   0.41840   1 ;    C17-   C16-   C15-   C14
  3681   3684   3687   3690      9     0.00   0.41840   2 ;    C17-   C16-   C15-   C14
  3681   3684   3687   3690      9     0.00   0.41840   4 ;    C17-   C16-   C15-   C14
  3681   3684   3687   3690      9     0.00   0.41840   5 ;    C17-   C16-   C15-   C14
  3681   3684   3687   3690      9     0.00   1.25520   3 ;    C17-   C16-   C15-   C14
  3682   3681   3684   3685      9     0.00   0.62760   3 ;    H7R-   C17-   C16-   H6R
  3682   3681   3684   3686      9     0.00   0.62760   3 ;    H7R-   C17-   C16-   H6S
  3682   3681   3684   3687      9     0.00   0.66944   3 ;    H7R-   C17-   C16-   C15
  3683   3681   3684   3685      9     0.00   0.62760   3 ;    H7S-   C17-   C16-   H6R
  3683   3681   3684   3686      9     0.00   0.62760   3 ;    H7S-   C17-   C16-   H6S
  3683   3681   3684   3687      9     0.00   0.66944   3 ;    H7S-   C17-   C16-   C15
  3684   3687   3690   3691      9     0.00   0.66944   3 ;    C16-   C15-   C14-   H4R
  3684   3687   3690   3692      9     0.00   0.66944   3 ;    C16-   C15-   C14-   H4S
  3684   3687   3690   3693      9     0.00   0.41840   1 ;    C16-   C15-   C14-   C13
  3684   3687   3690   3693      9     0.00   0.41840   2 ;    C16-   C15-   C14-   C13
  3684   3687   3690   3693      9     0.00   0.41840   4 ;    C16-   C15-   C14-   C13
  3684   3687   3690   3693      9     0.00   0.41840   5 ;    C16-   C15-   C14-   C13
  3684   3687   3690   3693      9     0.00   1.25520   3 ;    C16-   C15-   C14-   C13
  3685   3684   3687   3688      9     0.00   0.62760   3 ;    H6R-   C16-   C15-   H5R
  3685   3684   3687   3689      9     0.00   0.62760   3 ;    H6R-   C16-   C15-   H5S
  3685   3684   3687   3690      9     0.00   0.66944   3 ;    H6R-   C16-   C15-   C14
  3686   3684   3687   3688      9     0.00   0.62760   3 ;    H6S-   C16-   C15-   H5R
  3686   3684   3687   3689      9     0.00   0.62760   3 ;    H6S-   C16-   C15-   H5S
  3686   3684   3687   3690      9     0.00   0.66944   3 ;    H6S-   C16-   C15-   C14
  3687   3690   3693   3694      9     0.00   0.66944   3 ;    C15-   C14-   C13-   H3R
  3687   3690   3693   3695      9     0.00   0.66944   3 ;    C15-   C14-   C13-   H3S
  3687   3690   3693   3696      9     0.00   0.41840   1 ;    C15-   C14-   C13-   C12
  3687   3690   3693   3696      9     0.00   0.41840   2 ;    C15-   C14-   C13-   C12
  3687   3690   3693   3696      9     0.00   0.41840   4 ;    C15-   C14-   C13-   C12
  3687   3690   3693   3696      9     0.00   0.41840   5 ;    C15-   C14-   C13-   C12
  3687   3690   3693   3696      9     0.00   1.25520   3 ;    C15-   C14-   C13-   C12
  3688   3687   3690   3691      9     0.00   0.62760   3 ;    H5R-   C15-   C14-   H4R
  3688   3687   3690   3692      9     0.00   0.62760   3 ;    H5R-   C15-   C14-   H4S
  3688   3687   3690   3693      9     0.00   0.66944   3 ;    H5R-   C15-   C14-   C13
  3689   3687   3690   3691      9     0.00   0.62760   3 ;    H5S-   C15-   C14-   H4R
  3689   3687   3690   3692      9     0.00   0.62760   3 ;    H5S-   C15-   C14-   H4S
  3689   3687   3690   3693      9     0.00   0.66944   3 ;    H5S-   C15-   C14-   C13
  3690   3693   3696   3697      9     0.00   0.66944   3 ;    C14-   C13-   C12-   H2R
  3690   3693   3696   3698      9     0.00   0.66944   3 ;    C14-   C13-   C12-   H2S
  3690   3693   3696   3699      9     0.00   0.65270   3 ;    C14-   C13-   C12-   C11
  3691   3690   3693   3694      9     0.00   0.62760   3 ;    H4R-   C14-   C13-   H3R
  3691   3690   3693   3695      9     0.00   0.62760   3 ;    H4R-   C14-   C13-   H3S
  3691   3690   3693   3696      9     0.00   0.66944   3 ;    H4R-   C14-   C13-   C12
  3692   3690   3693   3694      9     0.00   0.62760   3 ;    H4S-   C14-   C13-   H3R
  3692   3690   3693   3695      9     0.00   0.62760   3 ;    H4S-   C14-   C13-   H3S
  3692   3690   3693   3696      9     0.00   0.66944   3 ;    H4S-   C14-   C13-   C12
  3693   3696   3699   3700      9   180.00   0.00000   2 ;    C13-   C12-   C11-   O12
  3693   3696   3699   3701      9   180.00   0.00000   2 ;    C13-   C12-   C11-   O11
  3694   3693   3696   3697      9     0.00   0.62760   3 ;    H3R-   C13-   C12-   H2R
  3694   3693   3696   3698      9     0.00   0.62760   3 ;    H3R-   C13-   C12-   H2S
  3694   3693   3696   3699      9     0.00   0.65270   3 ;    H3R-   C13-   C12-   C11
  3695   3693   3696   3697      9     0.00   0.62760   3 ;    H3S-   C13-   C12-   H2R
  3695   3693   3696   3698      9     0.00   0.62760   3 ;    H3S-   C13-   C12-   H2S
  3695   3693   3696   3699      9     0.00   0.65270   3 ;    H3S-   C13-   C12-   C11
  3696   3699   3701   3702      9   180.00  11.29680   2 ;    C12-   C11-   O11-    C1
  3697   3696   3699   3700      9     0.00   3.34720   1 ;    H2R-   C12-   C11-   O12
  3697   3696   3699   3700      9   180.00   0.33472   3 ;    H2R-   C12-   C11-   O12
  3697   3696   3699   3701      9   180.00   0.00000   2 ;    H2R-   C12-   C11-   O11
  3698   3696   3699   3700      9     0.00   3.34720   1 ;    H2S-   C12-   C11-   O12
  3698   3696   3699   3700      9   180.00   0.33472   3 ;    H2S-   C12-   C11-   O12
  3698   3696   3699   3701      9   180.00   0.00000   2 ;    H2S-   C12-   C11-   O11
  3699   3701   3702   3703      9     0.00   1.60247   3 ;    C11-   O11-    C1-    HR
  3699   3701   3702   3704      9     0.00   1.60247   3 ;    C11-   O11-    C1-    HS
  3699   3701   3702   3705      9     0.00  -0.41840   1 ;    C11-   O11-    C1-    C2
  3700   3699   3701   3702      9   180.00   5.85760   1 ;    O12-   C11-   O11-    C1
  3700   3699   3701   3702      9   180.00  11.29680   2 ;    O12-   C11-   O11-    C1
  3701   3702   3705   3706      9     0.00   0.00000   0 ;    O11-    C1-    C2-    HX
  3701   3702   3705   3706      9     0.00   1.04600   1 ;    O11-    C1-    C2-    HX
  3701   3702   3705   3707      9     0.00   0.00000   0 ;    O11-    C1-    C2-    C3
  3701   3702   3705   3707      9     0.00   0.00000   0 ;    O11-    C1-    C2-    C3
  3701   3702   3705   3707      9     0.00   0.00000   0 ;    O11-    C1-    C2-    C3
  3701   3702   3705   3707      9     0.00   0.00000   0 ;    O11-    C1-    C2-    C3
  3701   3702   3705   3707      9     0.00   0.00000   0 ;    O11-    C1-    C2-    C3
  3701   3702   3705   3734      9     0.00   1.25520   2 ;    O11-    C1-    C2-   O21
  3701   3702   3705   3734      9     0.00   4.18400   3 ;    O11-    C1-    C2-   O21
  3701   3702   3705   3734      9   180.00  -0.41840   1 ;    O11-    C1-    C2-   O21
  3702   3705   3707   3708      9     0.00   0.65270   3 ;     C1-    C2-    C3-    HA
  3702   3705   3707   3709      9     0.00   0.65270   3 ;     C1-    C2-    C3-    HB
  3702   3705   3707   3710      9   180.00   3.34720   1 ;     C1-    C2-    C3-   O31
  3702   3705   3734   3735      9     0.00  -0.41840   1 ;     C1-    C2-   O21-   C21
  3703   3702   3705   3706      9     0.00   0.65270   3 ;     HR-    C1-    C2-    HX
  3703   3702   3705   3707      9     0.00   0.65270   3 ;     HR-    C1-    C2-    C3
  3703   3702   3705   3734      9     0.00   0.00000   0 ;     HR-    C1-    C2-   O21
  3703   3702   3705   3734      9     0.00   1.04600   1 ;     HR-    C1-    C2-   O21
  3704   3702   3705   3706      9     0.00   0.65270   3 ;     HS-    C1-    C2-    HX
  3704   3702   3705   3707      9     0.00   0.65270   3 ;     HS-    C1-    C2-    C3
  3704   3702   3705   3734      9     0.00   0.00000   0 ;     HS-    C1-    C2-   O21
  3704   3702   3705   3734      9     0.00   1.04600   1 ;     HS-    C1-    C2-   O21
  3705   3707   3710   3711      9     0.00   0.00000   0 ;     C2-    C3-   O31-   P31
  3705   3707   3710   3711      9   180.00  -3.34720   2 ;     C2-    C3-   O31-   P31
  3705   3734   3735   3736      9   180.00   5.85760   1 ;     C2-   O21-   C21-   O22
  3705   3734   3735   3736      9   180.00  11.29680   2 ;     C2-   O21-   C21-   O22
  3705   3734   3735   3774      9   180.00  11.29680   2 ;     C2-   O21-   C21-   C12
  3706   3705   3707   3708      9     0.00   0.65270   3 ;     HX-    C2-    C3-    HA
  3706   3705   3707   3709      9     0.00   0.65270   3 ;     HX-    C2-    C3-    HB
  3706   3705   3707   3710      9     0.00   0.00000   0 ;     HX-    C2-    C3-   O31
  3706   3705   3707   3710      9     0.00   1.04600   1 ;     HX-    C2-    C3-   O31
  3706   3705   3734   3735      9     0.00   1.60247   3 ;     HX-    C2-   O21-   C21
  3707   3705   3734   3735      9     0.00  -0.41840   1 ;     C3-    C2-   O21-   C21
  3707   3710   3711   3712      9     0.00   2.51040   3 ;     C3-   O31-   P31-   O32
  3707   3710   3711   3712      9     0.00   9.62320   2 ;     C3-   O31-   P31-   O32
  3707   3710   3711   3732      9     0.00   0.00000   0 ;     C3-   O31-   P31-   O33
  3707   3710   3711   3732      9     0.00   0.00000   0 ;     C3-   O31-   P31-   O33
  3707   3710   3711   3732      9     0.00   0.00000   0 ;     C3-   O31-   P31-   O33
  3707   3710   3711   3732      9     0.00   0.00000   0 ;     C3-   O31-   P31-   O33
  3707   3710   3711   3732      9     0.00   0.83680   2 ;     C3-   O31-   P31-   O33
  3707   3710   3711   3733      9     0.00   0.00000   0 ;     C3-   O31-   P31-   O34
  3707   3710   3711   3733      9     0.00   0.00000   0 ;     C3-   O31-   P31-   O34
  3707   3710   3711   3733      9     0.00   0.00000   0 ;     C3-   O31-   P31-   O34
  3707   3710   3711   3733      9     0.00   0.00000   0 ;     C3-   O31-   P31-   O34
  3707   3710   3711   3733      9     0.00   0.83680   2 ;     C3-   O31-   P31-   O34
  3708   3707   3705   3734      9     0.00   0.00000   0 ;     HA-    C3-    C2-   O21
  3708   3707   3705   3734      9     0.00   1.04600   1 ;     HA-    C3-    C2-   O21
  3708   3707   3710   3711      9     0.00   0.00000   0 ;     HA-    C3-   O31-   P31
  3708   3707   3710   3711      9     0.00   0.00000   0 ;     HA-    C3-   O31-   P31
  3708   3707   3710   3711      9     0.00   0.00000   0 ;     HA-    C3-   O31-   P31
  3708   3707   3710   3711      9     0.00   0.00000   0 ;     HA-    C3-   O31-   P31
  3708   3707   3710   3711      9     0.00   1.60247   3 ;     HA-    C3-   O31-   P31
  3709   3707   3705   3734      9     0.00   0.00000   0 ;     HB-    C3-    C2-   O21
  3709   3707   3705   3734      9     0.00   1.04600   1 ;     HB-    C3-    C2-   O21
  3709   3707   3710   3711      9     0.00   0.00000   0 ;     HB-    C3-   O31-   P31
  3709   3707   3710   3711      9     0.00   0.00000   0 ;     HB-    C3-   O31-   P31
  3709   3707   3710   3711      9     0.00   0.00000   0 ;     HB-    C3-   O31-   P31
  3709   3707   3710   3711      9     0.00   0.00000   0 ;     HB-    C3-   O31-   P31
  3709   3707   3710   3711      9     0.00   1.60247   3 ;     HB-    C3-   O31-   P31
  3710   3707   3705   3734      9     0.00   0.00000   0 ;    O31-    C3-    C2-   O21
  3710   3707   3705   3734      9     0.00   0.00000   0 ;    O31-    C3-    C2-   O21
  3710   3707   3705   3734      9     0.00   0.00000   0 ;    O31-    C3-    C2-   O21
  3710   3707   3705   3734      9     0.00   0.00000   0 ;    O31-    C3-    C2-   O21
  3710   3707   3705   3734      9     0.00   0.00000   0 ;    O31-    C3-    C2-   O21
  3710   3711   3712   3713      9     0.00   2.51040   3 ;    O31-   P31-   O32-   C31
  3710   3711   3712   3713      9     0.00   9.62320   2 ;    O31-   P31-   O32-   C31
  3711   3712   3713   3714      9     0.00   0.00000   0 ;    P31-   O32-   C31-   H1A
  3711   3712   3713   3714      9     0.00   0.00000   0 ;    P31-   O32-   C31-   H1A
  3711   3712   3713   3714      9     0.00   0.00000   0 ;    P31-   O32-   C31-   H1A
  3711   3712   3713   3714      9     0.00   0.00000   0 ;    P31-   O32-   C31-   H1A
  3711   3712   3713   3714      9     0.00   1.60247   3 ;    P31-   O32-   C31-   H1A
  3711   3712   3713   3715      9     0.00   0.00000   0 ;    P31-   O32-   C31-   H1B
  3711   3712   3713   3715      9     0.00   0.00000   0 ;    P31-   O32-   C31-   H1B
  3711   3712   3713   3715      9     0.00   0.00000   0 ;    P31-   O32-   C31-   H1B
  3711   3712   3713   3715      9     0.00   0.00000   0 ;    P31-   O32-   C31-   H1B
  3711   3712   3713   3715      9     0.00   1.60247   3 ;    P31-   O32-   C31-   H1B
  3711   3712   3713   3716      9     0.00   0.00000   0 ;    P31-   O32-   C31-   C32
  3711   3712   3713   3716      9   180.00  -3.34720   2 ;    P31-   O32-   C31-   C32
  3712   3713   3716   3717      9     0.00   0.65270   3 ;    O32-   C31-   C32-   H2A
  3712   3713   3716   3718      9     0.00   0.65270   3 ;    O32-   C31-   C32-   H2B
  3712   3713   3716   3719      9     0.00   4.18400   3 ;    O32-   C31-   C32-   N31
  3713   3712   3711   3732      9     0.00   0.00000   0 ;    C31-   O32-   P31-   O33
  3713   3712   3711   3732      9     0.00   0.00000   0 ;    C31-   O32-   P31-   O33
  3713   3712   3711   3732      9     0.00   0.00000   0 ;    C31-   O32-   P31-   O33
  3713   3712   3711   3732      9     0.00   0.00000   0 ;    C31-   O32-   P31-   O33
  3713   3712   3711   3732      9     0.00   0.83680   2 ;    C31-   O32-   P31-   O33
  3713   3712   3711   3733      9     0.00   0.00000   0 ;    C31-   O32-   P31-   O34
  3713   3712   3711   3733      9     0.00   0.00000   0 ;    C31-   O32-   P31-   O34
  3713   3712   3711   3733      9     0.00   0.00000   0 ;    C31-   O32-   P31-   O34
  3713   3712   3711   3733      9     0.00   0.00000   0 ;    C31-   O32-   P31-   O34
  3713   3712   3711   3733      9     0.00   0.83680   2 ;    C31-   O32-   P31-   O34
  3713   3716   3719   3720      9     0.00   0.65270   3 ;    C31-   C32-   N31-   C33
  3713   3716   3719   3724      9     0.00   0.65270   3 ;    C31-   C32-   N31-   C34
  3713   3716   3719   3728      9     0.00   0.65270   3 ;    C31-   C32-   N31-   C35
  3714   3713   3716   3717      9     0.00   0.65270   3 ;    H1A-   C31-   C32-   H2A
  3714   3713   3716   3718      9     0.00   0.65270   3 ;    H1A-   C31-   C32-   H2B
  3714   3713   3716   3719      9     0.00   0.65270   3 ;    H1A-   C31-   C32-   N31
  3715   3713   3716   3717      9     0.00   0.65270   3 ;    H1B-   C31-   C32-   H2A
  3715   3713   3716   3718      9     0.00   0.65270   3 ;    H1B-   C31-   C32-   H2B
  3715   3713   3716   3719      9     0.00   0.65270   3 ;    H1B-   C31-   C32-   N31
  3716   3719   3720   3721      9     0.00   0.65270   3 ;    C32-   N31-   C33-   H3A
  3716   3719   3720   3722      9     0.00   0.65270   3 ;    C32-   N31-   C33-   H3B
  3716   3719   3720   3723      9     0.00   0.65270   3 ;    C32-   N31-   C33-   H3C
  3716   3719   3724   3725      9     0.00   0.65270   3 ;    C32-   N31-   C34-   H4A
  3716   3719   3724   3726      9     0.00   0.65270   3 ;    C32-   N31-   C34-   H4B
  3716   3719   3724   3727      9     0.00   0.65270   3 ;    C32-   N31-   C34-   H4C
  3716   3719   3728   3729      9     0.00   0.65270   3 ;    C32-   N31-   C35-   H5A
  3716   3719   3728   3730      9     0.00   0.65270   3 ;    C32-   N31-   C35-   H5B
  3716   3719   3728   3731      9     0.00   0.65270   3 ;    C32-   N31-   C35-   H5C
  3717   3716   3719   3720      9     0.00   0.65270   3 ;    H2A-   C32-   N31-   C33
  3717   3716   3719   3724      9     0.00   0.65270   3 ;    H2A-   C32-   N31-   C34
  3717   3716   3719   3728      9     0.00   0.65270   3 ;    H2A-   C32-   N31-   C35
  3718   3716   3719   3720      9     0.00   0.65270   3 ;    H2B-   C32-   N31-   C33
  3718   3716   3719   3724      9     0.00   0.65270   3 ;    H2B-   C32-   N31-   C34
  3718   3716   3719   3728      9     0.00   0.65270   3 ;    H2B-   C32-   N31-   C35
  3720   3719   3724   3725      9     0.00   0.65270   3 ;    C33-   N31-   C34-   H4A
  3720   3719   3724   3726      9     0.00   0.65270   3 ;    C33-   N31-   C34-   H4B
  3720   3719   3724   3727      9     0.00   0.65270   3 ;    C33-   N31-   C34-   H4C
  3720   3719   3728   3729      9     0.00   0.65270   3 ;    C33-   N31-   C35-   H5A
  3720   3719   3728   3730      9     0.00   0.65270   3 ;    C33-   N31-   C35-   H5B
  3720   3719   3728   3731      9     0.00   0.65270   3 ;    C33-   N31-   C35-   H5C
  3721   3720   3719   3724      9     0.00   0.65270   3 ;    H3A-   C33-   N31-   C34
  3721   3720   3719   3728      9     0.00   0.65270   3 ;    H3A-   C33-   N31-   C35
  3722   3720   3719   3724      9     0.00   0.65270   3 ;    H3B-   C33-   N31-   C34
  3722   3720   3719   3728      9     0.00   0.65270   3 ;    H3B-   C33-   N31-   C35
  3723   3720   3719   3724      9     0.00   0.65270   3 ;    H3C-   C33-   N31-   C34
  3723   3720   3719   3728      9     0.00   0.65270   3 ;    H3C-   C33-   N31-   C35
  3724   3719   3728   3729      9     0.00   0.65270   3 ;    C34-   N31-   C35-   H5A
  3724   3719   3728   3730      9     0.00   0.65270   3 ;    C34-   N31-   C35-   H5B
  3724   3719   3728   3731      9     0.00   0.65270   3 ;    C34-   N31-   C35-   H5C
  3725   3724   3719   3728      9     0.00   0.65270   3 ;    H4A-   C34-   N31-   C35
  3726   3724   3719   3728      9     0.00   0.65270   3 ;    H4B-   C34-   N31-   C35
  3727   3724   3719   3728      9     0.00   0.65270   3 ;    H4C-   C34-   N31-   C35
  3734   3735   3774   3771      9   180.00   0.00000   2 ;    O21-   C21-   C12-   C13
  3734   3735   3774   3775      9   180.00   0.00000   2 ;    O21-   C21-   C12-   H2R
  3734   3735   3774   3776      9   180.00   0.00000   2 ;    O21-   C21-   C12-   H2S
  3735   3774   3771   3768      9     0.00   0.65270   3 ;    C21-   C12-   C13-   C14
  3735   3774   3771   3772      9     0.00   0.65270   3 ;    C21-   C12-   C13-   H3R
  3735   3774   3771   3773      9     0.00   0.65270   3 ;    C21-   C12-   C13-   H3S
  3736   3735   3774   3771      9   180.00   0.00000   2 ;    O22-   C21-   C12-   C13
  3736   3735   3774   3775      9     0.00   3.34720   1 ;    O22-   C21-   C12-   H2R
  3736   3735   3774   3775      9   180.00   0.33472   3 ;    O22-   C21-   C12-   H2R
  3736   3735   3774   3776      9     0.00   3.34720   1 ;    O22-   C21-   C12-   H2S
  3736   3735   3774   3776      9   180.00   0.33472   3 ;    O22-   C21-   C12-   H2S
  3737   3738   3741   3742      9     0.00   0.62760   3 ;   H14T-  C114-  C113-  H13R
  3737   3738   3741   3743      9     0.00   0.62760   3 ;   H14T-  C114-  C113-  H13S
  3737   3738   3741   3744      9     0.00   0.66944   3 ;   H14T-  C114-  C113-  C112
  3738   3741   3744   3745      9     0.00   0.66944   3 ;   C114-  C113-  C112-  H12R
  3738   3741   3744   3746      9     0.00   0.66944   3 ;   C114-  C113-  C112-  H12S
  3738   3741   3744   3747      9     0.00   0.41840   1 ;   C114-  C113-  C112-  C111
  3738   3741   3744   3747      9     0.00   0.41840   2 ;   C114-  C113-  C112-  C111
  3738   3741   3744   3747      9     0.00   0.41840   4 ;   C114-  C113-  C112-  C111
  3738   3741   3744   3747      9     0.00   0.41840   5 ;   C114-  C113-  C112-  C111
  3738   3741   3744   3747      9     0.00   1.25520   3 ;   C114-  C113-  C112-  C111
  3739   3738   3741   3742      9     0.00   0.62760   3 ;   H14R-  C114-  C113-  H13R
  3739   3738   3741   3743      9     0.00   0.62760   3 ;   H14R-  C114-  C113-  H13S
  3739   3738   3741   3744      9     0.00   0.66944   3 ;   H14R-  C114-  C113-  C112
  3740   3738   3741   3742      9     0.00   0.62760   3 ;   H14S-  C114-  C113-  H13R
  3740   3738   3741   3743      9     0.00   0.62760   3 ;   H14S-  C114-  C113-  H13S
  3740   3738   3741   3744      9     0.00   0.66944   3 ;   H14S-  C114-  C113-  C112
  3741   3744   3747   3748      9     0.00   0.66944   3 ;   C113-  C112-  C111-  H11R
  3741   3744   3747   3749      9     0.00   0.66944   3 ;   C113-  C112-  C111-  H11S
  3741   3744   3747   3750      9     0.00   0.41840   1 ;   C113-  C112-  C111-  C110
  3741   3744   3747   3750      9     0.00   0.41840   2 ;   C113-  C112-  C111-  C110
  3741   3744   3747   3750      9     0.00   0.41840   4 ;   C113-  C112-  C111-  C110
  3741   3744   3747   3750      9     0.00   0.41840   5 ;   C113-  C112-  C111-  C110
  3741   3744   3747   3750      9     0.00   1.25520   3 ;   C113-  C112-  C111-  C110
  3742   3741   3744   3745      9     0.00   0.62760   3 ;   H13R-  C113-  C112-  H12R
  3742   3741   3744   3746      9     0.00   0.62760   3 ;   H13R-  C113-  C112-  H12S
  3742   3741   3744   3747      9     0.00   0.66944   3 ;   H13R-  C113-  C112-  C111
  3743   3741   3744   3745      9     0.00   0.62760   3 ;   H13S-  C113-  C112-  H12R
  3743   3741   3744   3746      9     0.00   0.62760   3 ;   H13S-  C113-  C112-  H12S
  3743   3741   3744   3747      9     0.00   0.66944   3 ;   H13S-  C113-  C112-  C111
  3744   3747   3750   3751      9     0.00   0.66944   3 ;   C112-  C111-  C110-  H10R
  3744   3747   3750   3752      9     0.00   0.66944   3 ;   C112-  C111-  C110-  H10S
  3744   3747   3750   3753      9     0.00   0.41840   1 ;   C112-  C111-  C110-   C19
  3744   3747   3750   3753      9     0.00   0.41840   2 ;   C112-  C111-  C110-   C19
  3744   3747   3750   3753      9     0.00   0.41840   4 ;   C112-  C111-  C110-   C19
  3744   3747   3750   3753      9     0.00   0.41840   5 ;   C112-  C111-  C110-   C19
  3744   3747   3750   3753      9     0.00   1.25520   3 ;   C112-  C111-  C110-   C19
  3745   3744   3747   3748      9     0.00   0.62760   3 ;   H12R-  C112-  C111-  H11R
  3745   3744   3747   3749      9     0.00   0.62760   3 ;   H12R-  C112-  C111-  H11S
  3745   3744   3747   3750      9     0.00   0.66944   3 ;   H12R-  C112-  C111-  C110
  3746   3744   3747   3748      9     0.00   0.62760   3 ;   H12S-  C112-  C111-  H11R
  3746   3744   3747   3749      9     0.00   0.62760   3 ;   H12S-  C112-  C111-  H11S
  3746   3744   3747   3750      9     0.00   0.66944   3 ;   H12S-  C112-  C111-  C110
  3747   3750   3753   3754      9     0.00   0.66944   3 ;   C111-  C110-   C19-   H9R
  3747   3750   3753   3755      9     0.00   0.66944   3 ;   C111-  C110-   C19-   H9S
  3747   3750   3753   3756      9     0.00   0.41840   1 ;   C111-  C110-   C19-   C18
  3747   3750   3753   3756      9     0.00   0.41840   2 ;   C111-  C110-   C19-   C18
  3747   3750   3753   3756      9     0.00   0.41840   4 ;   C111-  C110-   C19-   C18
  3747   3750   3753   3756      9     0.00   0.41840   5 ;   C111-  C110-   C19-   C18
  3747   3750   3753   3756      9     0.00   1.25520   3 ;   C111-  C110-   C19-   C18
  3748   3747   3750   3751      9     0.00   0.62760   3 ;   H11R-  C111-  C110-  H10R
  3748   3747   3750   3752      9     0.00   0.62760   3 ;   H11R-  C111-  C110-  H10S
  3748   3747   3750   3753      9     0.00   0.66944   3 ;   H11R-  C111-  C110-   C19
  3749   3747   3750   3751      9     0.00   0.62760   3 ;   H11S-  C111-  C110-  H10R
  3749   3747   3750   3752      9     0.00   0.62760   3 ;   H11S-  C111-  C110-  H10S
  3749   3747   3750   3753      9     0.00   0.66944   3 ;   H11S-  C111-  C110-   C19
  3750   3753   3756   3757      9     0.00   0.66944   3 ;   C110-   C19-   C18-   H8R
  3750   3753   3756   3758      9     0.00   0.66944   3 ;   C110-   C19-   C18-   H8S
  3750   3753   3756   3759      9     0.00   0.41840   1 ;   C110-   C19-   C18-   C17
  3750   3753   3756   3759      9     0.00   0.41840   2 ;   C110-   C19-   C18-   C17
  3750   3753   3756   3759      9     0.00   0.41840   4 ;   C110-   C19-   C18-   C17
  3750   3753   3756   3759      9     0.00   0.41840   5 ;   C110-   C19-   C18-   C17
  3750   3753   3756   3759      9     0.00   1.25520   3 ;   C110-   C19-   C18-   C17
  3751   3750   3753   3754      9     0.00   0.62760   3 ;   H10R-  C110-   C19-   H9R
  3751   3750   3753   3755      9     0.00   0.62760   3 ;   H10R-  C110-   C19-   H9S
  3751   3750   3753   3756      9     0.00   0.66944   3 ;   H10R-  C110-   C19-   C18
  3752   3750   3753   3754      9     0.00   0.62760   3 ;   H10S-  C110-   C19-   H9R
  3752   3750   3753   3755      9     0.00   0.62760   3 ;   H10S-  C110-   C19-   H9S
  3752   3750   3753   3756      9     0.00   0.66944   3 ;   H10S-  C110-   C19-   C18
  3753   3756   3759   3760      9     0.00   0.66944   3 ;    C19-   C18-   C17-   H7R
  3753   3756   3759   3761      9     0.00   0.66944   3 ;    C19-   C18-   C17-   H7S
  3753   3756   3759   3762      9     0.00   0.41840   1 ;    C19-   C18-   C17-   C16
  3753   3756   3759   3762      9     0.00   0.41840   2 ;    C19-   C18-   C17-   C16
  3753   3756   3759   3762      9     0.00   0.41840   4 ;    C19-   C18-   C17-   C16
  3753   3756   3759   3762      9     0.00   0.41840   5 ;    C19-   C18-   C17-   C16
  3753   3756   3759   3762      9     0.00   1.25520   3 ;    C19-   C18-   C17-   C16
  3754   3753   3756   3757      9     0.00   0.62760   3 ;    H9R-   C19-   C18-   H8R
  3754   3753   3756   3758      9     0.00   0.62760   3 ;    H9R-   C19-   C18-   H8S
  3754   3753   3756   3759      9     0.00   0.66944   3 ;    H9R-   C19-   C18-   C17
  3755   3753   3756   3757      9     0.00   0.62760   3 ;    H9S-   C19-   C18-   H8R
  3755   3753   3756   3758      9     0.00   0.62760   3 ;    H9S-   C19-   C18-   H8S
  3755   3753   3756   3759      9     0.00   0.66944   3 ;    H9S-   C19-   C18-   C17
  3756   3759   3762   3763      9     0.00   0.66944   3 ;    C18-   C17-   C16-   H6R
  3756   3759   3762   3764      9     0.00   0.66944   3 ;    C18-   C17-   C16-   H6S
  3756   3759   3762   3765      9     0.00   0.41840   1 ;    C18-   C17-   C16-   C15
  3756   3759   3762   3765      9     0.00   0.41840   2 ;    C18-   C17-   C16-   C15
  3756   3759   3762   3765      9     0.00   0.41840   4 ;    C18-   C17-   C16-   C15
  3756   3759   3762   3765      9     0.00   0.41840   5 ;    C18-   C17-   C16-   C15
  3756   3759   3762   3765      9     0.00   1.25520   3 ;    C18-   C17-   C16-   C15
  3757   3756   3759   3760      9     0.00   0.62760   3 ;    H8R-   C18-   C17-   H7R
  3757   3756   3759   3761      9     0.00   0.62760   3 ;    H8R-   C18-   C17-   H7S
  3757   3756   3759   3762      9     0.00   0.66944   3 ;    H8R-   C18-   C17-   C16
  3758   3756   3759   3760      9     0.00   0.62760   3 ;    H8S-   C18-   C17-   H7R
  3758   3756   3759   3761      9     0.00   0.62760   3 ;    H8S-   C18-   C17-   H7S
  3758   3756   3759   3762      9     0.00   0.66944   3 ;    H8S-   C18-   C17-   C16
  3759   3762   3765   3766      9     0.00   0.66944   3 ;    C17-   C16-   C15-   H5R
  3759   3762   3765   3767      9     0.00   0.66944   3 ;    C17-   C16-   C15-   H5S
  3759   3762   3765   3768      9     0.00   0.41840   1 ;    C17-   C16-   C15-   C14
  3759   3762   3765   3768      9     0.00   0.41840   2 ;    C17-   C16-   C15-   C14
  3759   3762   3765   3768      9     0.00   0.41840   4 ;    C17-   C16-   C15-   C14
  3759   3762   3765   3768      9     0.00   0.41840   5 ;    C17-   C16-   C15-   C14
  3759   3762   3765   3768      9     0.00   1.25520   3 ;    C17-   C16-   C15-   C14
  3760   3759   3762   3763      9     0.00   0.62760   3 ;    H7R-   C17-   C16-   H6R
  3760   3759   3762   3764      9     0.00   0.62760   3 ;    H7R-   C17-   C16-   H6S
  3760   3759   3762   3765      9     0.00   0.66944   3 ;    H7R-   C17-   C16-   C15
  3761   3759   3762   3763      9     0.00   0.62760   3 ;    H7S-   C17-   C16-   H6R
  3761   3759   3762   3764      9     0.00   0.62760   3 ;    H7S-   C17-   C16-   H6S
  3761   3759   3762   3765      9     0.00   0.66944   3 ;    H7S-   C17-   C16-   C15
  3762   3765   3768   3769      9     0.00   0.66944   3 ;    C16-   C15-   C14-   H4R
  3762   3765   3768   3770      9     0.00   0.66944   3 ;    C16-   C15-   C14-   H4S
  3762   3765   3768   3771      9     0.00   0.41840   1 ;    C16-   C15-   C14-   C13
  3762   3765   3768   3771      9     0.00   0.41840   2 ;    C16-   C15-   C14-   C13
  3762   3765   3768   3771      9     0.00   0.41840   4 ;    C16-   C15-   C14-   C13
  3762   3765   3768   3771      9     0.00   0.41840   5 ;    C16-   C15-   C14-   C13
  3762   3765   3768   3771      9     0.00   1.25520   3 ;    C16-   C15-   C14-   C13
  3763   3762   3765   3766      9     0.00   0.62760   3 ;    H6R-   C16-   C15-   H5R
  3763   3762   3765   3767      9     0.00   0.62760   3 ;    H6R-   C16-   C15-   H5S
  3763   3762   3765   3768      9     0.00   0.66944   3 ;    H6R-   C16-   C15-   C14
  3764   3762   3765   3766      9     0.00   0.62760   3 ;    H6S-   C16-   C15-   H5R
  3764   3762   3765   3767      9     0.00   0.62760   3 ;    H6S-   C16-   C15-   H5S
  3764   3762   3765   3768      9     0.00   0.66944   3 ;    H6S-   C16-   C15-   C14
  3765   3768   3771   3772      9     0.00   0.66944   3 ;    C15-   C14-   C13-   H3R
  3765   3768   3771   3773      9     0.00   0.66944   3 ;    C15-   C14-   C13-   H3S
  3765   3768   3771   3774      9     0.00   0.41840   1 ;    C15-   C14-   C13-   C12
  3765   3768   3771   3774      9     0.00   0.41840   2 ;    C15-   C14-   C13-   C12
  3765   3768   3771   3774      9     0.00   0.41840   4 ;    C15-   C14-   C13-   C12
  3765   3768   3771   3774      9     0.00   0.41840   5 ;    C15-   C14-   C13-   C12
  3765   3768   3771   3774      9     0.00   1.25520   3 ;    C15-   C14-   C13-   C12
  3766   3765   3768   3769      9     0.00   0.62760   3 ;    H5R-   C15-   C14-   H4R
  3766   3765   3768   3770      9     0.00   0.62760   3 ;    H5R-   C15-   C14-   H4S
  3766   3765   3768   3771      9     0.00   0.66944   3 ;    H5R-   C15-   C14-   C13
  3767   3765   3768   3769      9     0.00   0.62760   3 ;    H5S-   C15-   C14-   H4R
  3767   3765   3768   3770      9     0.00   0.62760   3 ;    H5S-   C15-   C14-   H4S
  3767   3765   3768   3771      9     0.00   0.66944   3 ;    H5S-   C15-   C14-   C13
  3768   3771   3774   3775      9     0.00   0.66944   3 ;    C14-   C13-   C12-   H2R
  3768   3771   3774   3776      9     0.00   0.66944   3 ;    C14-   C13-   C12-   H2S
  3769   3768   3771   3772      9     0.00   0.62760   3 ;    H4R-   C14-   C13-   H3R
  3769   3768   3771   3773      9     0.00   0.62760   3 ;    H4R-   C14-   C13-   H3S
  3769   3768   3771   3774      9     0.00   0.66944   3 ;    H4R-   C14-   C13-   C12
  3770   3768   3771   3772      9     0.00   0.62760   3 ;    H4S-   C14-   C13-   H3R
  3770   3768   3771   3773      9     0.00   0.62760   3 ;    H4S-   C14-   C13-   H3S
  3770   3768   3771   3774      9     0.00   0.66944   3 ;    H4S-   C14-   C13-   C12
  3772   3771   3774   3775      9     0.00   0.62760   3 ;    H3R-   C13-   C12-   H2R
  3772   3771   3774   3776      9     0.00   0.62760   3 ;    H3R-   C13-   C12-   H2S
  3773   3771   3774   3775      9     0.00   0.62760   3 ;    H3S-   C13-   C12-   H2R
  3773   3771   3774   3776      9     0.00   0.62760   3 ;    H3S-   C13-   C12-   H2S
  3777   3778   3781   3782      9     0.00   0.62760   3 ;   H14T-  C114-  C113-  H13R
  3777   3778   3781   3783      9     0.00   0.62760   3 ;   H14T-  C114-  C113-  H13S
  3777   3778   3781   3784      9     0.00   0.66944   3 ;   H14T-  C114-  C113-  C112
  3778   3781   3784   3785      9     0.00   0.66944   3 ;   C114-  C113-  C112-  H12R
  3778   3781   3784   3786      9     0.00   0.66944   3 ;   C114-  C113-  C112-  H12S
  3778   3781   3784   3787      9     0.00   0.41840   1 ;   C114-  C113-  C112-  C111
  3778   3781   3784   3787      9     0.00   0.41840   2 ;   C114-  C113-  C112-  C111
  3778   3781   3784   3787      9     0.00   0.41840   4 ;   C114-  C113-  C112-  C111
  3778   3781   3784   3787      9     0.00   0.41840   5 ;   C114-  C113-  C112-  C111
  3778   3781   3784   3787      9     0.00   1.25520   3 ;   C114-  C113-  C112-  C111
  3779   3778   3781   3782      9     0.00   0.62760   3 ;   H14R-  C114-  C113-  H13R
  3779   3778   3781   3783      9     0.00   0.62760   3 ;   H14R-  C114-  C113-  H13S
  3779   3778   3781   3784      9     0.00   0.66944   3 ;   H14R-  C114-  C113-  C112
  3780   3778   3781   3782      9     0.00   0.62760   3 ;   H14S-  C114-  C113-  H13R
  3780   3778   3781   3783      9     0.00   0.62760   3 ;   H14S-  C114-  C113-  H13S
  3780   3778   3781   3784      9     0.00   0.66944   3 ;   H14S-  C114-  C113-  C112
  3781   3784   3787   3788      9     0.00   0.66944   3 ;   C113-  C112-  C111-  H11R
  3781   3784   3787   3789      9     0.00   0.66944   3 ;   C113-  C112-  C111-  H11S
  3781   3784   3787   3790      9     0.00   0.41840   1 ;   C113-  C112-  C111-  C110
  3781   3784   3787   3790      9     0.00   0.41840   2 ;   C113-  C112-  C111-  C110
  3781   3784   3787   3790      9     0.00   0.41840   4 ;   C113-  C112-  C111-  C110
  3781   3784   3787   3790      9     0.00   0.41840   5 ;   C113-  C112-  C111-  C110
  3781   3784   3787   3790      9     0.00   1.25520   3 ;   C113-  C112-  C111-  C110
  3782   3781   3784   3785      9     0.00   0.62760   3 ;   H13R-  C113-  C112-  H12R
  3782   3781   3784   3786      9     0.00   0.62760   3 ;   H13R-  C113-  C112-  H12S
  3782   3781   3784   3787      9     0.00   0.66944   3 ;   H13R-  C113-  C112-  C111
  3783   3781   3784   3785      9     0.00   0.62760   3 ;   H13S-  C113-  C112-  H12R
  3783   3781   3784   3786      9     0.00   0.62760   3 ;   H13S-  C113-  C112-  H12S
  3783   3781   3784   3787      9     0.00   0.66944   3 ;   H13S-  C113-  C112-  C111
  3784   3787   3790   3791      9     0.00   0.66944   3 ;   C112-  C111-  C110-  H10R
  3784   3787   3790   3792      9     0.00   0.66944   3 ;   C112-  C111-  C110-  H10S
  3784   3787   3790   3793      9     0.00   0.41840   1 ;   C112-  C111-  C110-   C19
  3784   3787   3790   3793      9     0.00   0.41840   2 ;   C112-  C111-  C110-   C19
  3784   3787   3790   3793      9     0.00   0.41840   4 ;   C112-  C111-  C110-   C19
  3784   3787   3790   3793      9     0.00   0.41840   5 ;   C112-  C111-  C110-   C19
  3784   3787   3790   3793      9     0.00   1.25520   3 ;   C112-  C111-  C110-   C19
  3785   3784   3787   3788      9     0.00   0.62760   3 ;   H12R-  C112-  C111-  H11R
  3785   3784   3787   3789      9     0.00   0.62760   3 ;   H12R-  C112-  C111-  H11S
  3785   3784   3787   3790      9     0.00   0.66944   3 ;   H12R-  C112-  C111-  C110
  3786   3784   3787   3788      9     0.00   0.62760   3 ;   H12S-  C112-  C111-  H11R
  3786   3784   3787   3789      9     0.00   0.62760   3 ;   H12S-  C112-  C111-  H11S
  3786   3784   3787   3790      9     0.00   0.66944   3 ;   H12S-  C112-  C111-  C110
  3787   3790   3793   3794      9     0.00   0.66944   3 ;   C111-  C110-   C19-   H9R
  3787   3790   3793   3795      9     0.00   0.66944   3 ;   C111-  C110-   C19-   H9S
  3787   3790   3793   3796      9     0.00   0.41840   1 ;   C111-  C110-   C19-   C18
  3787   3790   3793   3796      9     0.00   0.41840   2 ;   C111-  C110-   C19-   C18
  3787   3790   3793   3796      9     0.00   0.41840   4 ;   C111-  C110-   C19-   C18
  3787   3790   3793   3796      9     0.00   0.41840   5 ;   C111-  C110-   C19-   C18
  3787   3790   3793   3796      9     0.00   1.25520   3 ;   C111-  C110-   C19-   C18
  3788   3787   3790   3791      9     0.00   0.62760   3 ;   H11R-  C111-  C110-  H10R
  3788   3787   3790   3792      9     0.00   0.62760   3 ;   H11R-  C111-  C110-  H10S
  3788   3787   3790   3793      9     0.00   0.66944   3 ;   H11R-  C111-  C110-   C19
  3789   3787   3790   3791      9     0.00   0.62760   3 ;   H11S-  C111-  C110-  H10R
  3789   3787   3790   3792      9     0.00   0.62760   3 ;   H11S-  C111-  C110-  H10S
  3789   3787   3790   3793      9     0.00   0.66944   3 ;   H11S-  C111-  C110-   C19
  3790   3793   3796   3797      9     0.00   0.66944   3 ;   C110-   C19-   C18-   H8R
  3790   3793   3796   3798      9     0.00   0.66944   3 ;   C110-   C19-   C18-   H8S
  3790   3793   3796   3799      9     0.00   0.41840   1 ;   C110-   C19-   C18-   C17
  3790   3793   3796   3799      9     0.00   0.41840   2 ;   C110-   C19-   C18-   C17
  3790   3793   3796   3799      9     0.00   0.41840   4 ;   C110-   C19-   C18-   C17
  3790   3793   3796   3799      9     0.00   0.41840   5 ;   C110-   C19-   C18-   C17
  3790   3793   3796   3799      9     0.00   1.25520   3 ;   C110-   C19-   C18-   C17
  3791   3790   3793   3794      9     0.00   0.62760   3 ;   H10R-  C110-   C19-   H9R
  3791   3790   3793   3795      9     0.00   0.62760   3 ;   H10R-  C110-   C19-   H9S
  3791   3790   3793   3796      9     0.00   0.66944   3 ;   H10R-  C110-   C19-   C18
  3792   3790   3793   3794      9     0.00   0.62760   3 ;   H10S-  C110-   C19-   H9R
  3792   3790   3793   3795      9     0.00   0.62760   3 ;   H10S-  C110-   C19-   H9S
  3792   3790   3793   3796      9     0.00   0.66944   3 ;   H10S-  C110-   C19-   C18
  3793   3796   3799   3800      9     0.00   0.66944   3 ;    C19-   C18-   C17-   H7R
  3793   3796   3799   3801      9     0.00   0.66944   3 ;    C19-   C18-   C17-   H7S
  3793   3796   3799   3802      9     0.00   0.41840   1 ;    C19-   C18-   C17-   C16
  3793   3796   3799   3802      9     0.00   0.41840   2 ;    C19-   C18-   C17-   C16
  3793   3796   3799   3802      9     0.00   0.41840   4 ;    C19-   C18-   C17-   C16
  3793   3796   3799   3802      9     0.00   0.41840   5 ;    C19-   C18-   C17-   C16
  3793   3796   3799   3802      9     0.00   1.25520   3 ;    C19-   C18-   C17-   C16
  3794   3793   3796   3797      9     0.00   0.62760   3 ;    H9R-   C19-   C18-   H8R
  3794   3793   3796   3798      9     0.00   0.62760   3 ;    H9R-   C19-   C18-   H8S
  3794   3793   3796   3799      9     0.00   0.66944   3 ;    H9R-   C19-   C18-   C17
  3795   3793   3796   3797      9     0.00   0.62760   3 ;    H9S-   C19-   C18-   H8R
  3795   3793   3796   3798      9     0.00   0.62760   3 ;    H9S-   C19-   C18-   H8S
  3795   3793   3796   3799      9     0.00   0.66944   3 ;    H9S-   C19-   C18-   C17
  3796   3799   3802   3803      9     0.00   0.66944   3 ;    C18-   C17-   C16-   H6R
  3796   3799   3802   3804      9     0.00   0.66944   3 ;    C18-   C17-   C16-   H6S
  3796   3799   3802   3805      9     0.00   0.41840   1 ;    C18-   C17-   C16-   C15
  3796   3799   3802   3805      9     0.00   0.41840   2 ;    C18-   C17-   C16-   C15
  3796   3799   3802   3805      9     0.00   0.41840   4 ;    C18-   C17-   C16-   C15
  3796   3799   3802   3805      9     0.00   0.41840   5 ;    C18-   C17-   C16-   C15
  3796   3799   3802   3805      9     0.00   1.25520   3 ;    C18-   C17-   C16-   C15
  3797   3796   3799   3800      9     0.00   0.62760   3 ;    H8R-   C18-   C17-   H7R
  3797   3796   3799   3801      9     0.00   0.62760   3 ;    H8R-   C18-   C17-   H7S
  3797   3796   3799   3802      9     0.00   0.66944   3 ;    H8R-   C18-   C17-   C16
  3798   3796   3799   3800      9     0.00   0.62760   3 ;    H8S-   C18-   C17-   H7R
  3798   3796   3799   3801      9     0.00   0.62760   3 ;    H8S-   C18-   C17-   H7S
  3798   3796   3799   3802      9     0.00   0.66944   3 ;    H8S-   C18-   C17-   C16
  3799   3802   3805   3806      9     0.00   0.66944   3 ;    C17-   C16-   C15-   H5R
  3799   3802   3805   3807      9     0.00   0.66944   3 ;    C17-   C16-   C15-   H5S
  3799   3802   3805   3808      9     0.00   0.41840   1 ;    C17-   C16-   C15-   C14
  3799   3802   3805   3808      9     0.00   0.41840   2 ;    C17-   C16-   C15-   C14
  3799   3802   3805   3808      9     0.00   0.41840   4 ;    C17-   C16-   C15-   C14
  3799   3802   3805   3808      9     0.00   0.41840   5 ;    C17-   C16-   C15-   C14
  3799   3802   3805   3808      9     0.00   1.25520   3 ;    C17-   C16-   C15-   C14
  3800   3799   3802   3803      9     0.00   0.62760   3 ;    H7R-   C17-   C16-   H6R
  3800   3799   3802   3804      9     0.00   0.62760   3 ;    H7R-   C17-   C16-   H6S
  3800   3799   3802   3805      9     0.00   0.66944   3 ;    H7R-   C17-   C16-   C15
  3801   3799   3802   3803      9     0.00   0.62760   3 ;    H7S-   C17-   C16-   H6R
  3801   3799   3802   3804      9     0.00   0.62760   3 ;    H7S-   C17-   C16-   H6S
  3801   3799   3802   3805      9     0.00   0.66944   3 ;    H7S-   C17-   C16-   C15
  3802   3805   3808   3809      9     0.00   0.66944   3 ;    C16-   C15-   C14-   H4R
  3802   3805   3808   3810      9     0.00   0.66944   3 ;    C16-   C15-   C14-   H4S
  3802   3805   3808   3811      9     0.00   0.41840   1 ;    C16-   C15-   C14-   C13
  3802   3805   3808   3811      9     0.00   0.41840   2 ;    C16-   C15-   C14-   C13
  3802   3805   3808   3811      9     0.00   0.41840   4 ;    C16-   C15-   C14-   C13
  3802   3805   3808   3811      9     0.00   0.41840   5 ;    C16-   C15-   C14-   C13
  3802   3805   3808   3811      9     0.00   1.25520   3 ;    C16-   C15-   C14-   C13
  3803   3802   3805   3806      9     0.00   0.62760   3 ;    H6R-   C16-   C15-   H5R
  3803   3802   3805   3807      9     0.00   0.62760   3 ;    H6R-   C16-   C15-   H5S
  3803   3802   3805   3808      9     0.00   0.66944   3 ;    H6R-   C16-   C15-   C14
  3804   3802   3805   3806      9     0.00   0.62760   3 ;    H6S-   C16-   C15-   H5R
  3804   3802   3805   3807      9     0.00   0.62760   3 ;    H6S-   C16-   C15-   H5S
  3804   3802   3805   3808      9     0.00   0.66944   3 ;    H6S-   C16-   C15-   C14
  3805   3808   3811   3812      9     0.00   0.66944   3 ;    C15-   C14-   C13-   H3R
  3805   3808   3811   3813      9     0.00   0.66944   3 ;    C15-   C14-   C13-   H3S
  3805   3808   3811   3814      9     0.00   0.41840   1 ;    C15-   C14-   C13-   C12
  3805   3808   3811   3814      9     0.00   0.41840   2 ;    C15-   C14-   C13-   C12
  3805   3808   3811   3814      9     0.00   0.41840   4 ;    C15-   C14-   C13-   C12
  3805   3808   3811   3814      9     0.00   0.41840   5 ;    C15-   C14-   C13-   C12
  3805   3808   3811   3814      9     0.00   1.25520   3 ;    C15-   C14-   C13-   C12
  3806   3805   3808   3809      9     0.00   0.62760   3 ;    H5R-   C15-   C14-   H4R
  3806   3805   3808   3810      9     0.00   0.62760   3 ;    H5R-   C15-   C14-   H4S
  3806   3805   3808   3811      9     0.00   0.66944   3 ;    H5R-   C15-   C14-   C13
  3807   3805   3808   3809      9     0.00   0.62760   3 ;    H5S-   C15-   C14-   H4R
  3807   3805   3808   3810      9     0.00   0.62760   3 ;    H5S-   C15-   C14-   H4S
  3807   3805   3808   3811      9     0.00   0.66944   3 ;    H5S-   C15-   C14-   C13
  3808   3811   3814   3815      9     0.00   0.66944   3 ;    C14-   C13-   C12-   H2R
  3808   3811   3814   3816      9     0.00   0.66944   3 ;    C14-   C13-   C12-   H2S
  3808   3811   3814   3817      9     0.00   0.65270   3 ;    C14-   C13-   C12-   C11
  3809   3808   3811   3812      9     0.00   0.62760   3 ;    H4R-   C14-   C13-   H3R
  3809   3808   3811   3813      9     0.00   0.62760   3 ;    H4R-   C14-   C13-   H3S
  3809   3808   3811   3814      9     0.00   0.66944   3 ;    H4R-   C14-   C13-   C12
  3810   3808   3811   3812      9     0.00   0.62760   3 ;    H4S-   C14-   C13-   H3R
  3810   3808   3811   3813      9     0.00   0.62760   3 ;    H4S-   C14-   C13-   H3S
  3810   3808   3811   3814      9     0.00   0.66944   3 ;    H4S-   C14-   C13-   C12
  3811   3814   3817   3818      9   180.00   0.00000   2 ;    C13-   C12-   C11-   O12
  3811   3814   3817   3819      9   180.00   0.00000   2 ;    C13-   C12-   C11-   O11
  3812   3811   3814   3815      9     0.00   0.62760   3 ;    H3R-   C13-   C12-   H2R
  3812   3811   3814   3816      9     0.00   0.62760   3 ;    H3R-   C13-   C12-   H2S
  3812   3811   3814   3817      9     0.00   0.65270   3 ;    H3R-   C13-   C12-   C11
  3813   3811   3814   3815      9     0.00   0.62760   3 ;    H3S-   C13-   C12-   H2R
  3813   3811   3814   3816      9     0.00   0.62760   3 ;    H3S-   C13-   C12-   H2S
  3813   3811   3814   3817      9     0.00   0.65270   3 ;    H3S-   C13-   C12-   C11
  3814   3817   3819   3820      9   180.00  11.29680   2 ;    C12-   C11-   O11-    C1
  3815   3814   3817   3818      9     0.00   3.34720   1 ;    H2R-   C12-   C11-   O12
  3815   3814   3817   3818      9   180.00   0.33472   3 ;    H2R-   C12-   C11-   O12
  3815   3814   3817   3819      9   180.00   0.00000   2 ;    H2R-   C12-   C11-   O11
  3816   3814   3817   3818      9     0.00   3.34720   1 ;    H2S-   C12-   C11-   O12
  3816   3814   3817   3818      9   180.00   0.33472   3 ;    H2S-   C12-   C11-   O12
  3816   3814   3817   3819      9   180.00   0.00000   2 ;    H2S-   C12-   C11-   O11
  3817   3819   3820   3821      9     0.00   1.60247   3 ;    C11-   O11-    C1-    HR
  3817   3819   3820   3822      9     0.00   1.60247   3 ;    C11-   O11-    C1-    HS
  3817   3819   3820   3823      9     0.00  -0.41840   1 ;    C11-   O11-    C1-    C2
  3818   3817   3819   3820      9   180.00   5.85760   1 ;    O12-   C11-   O11-    C1
  3818   3817   3819   3820      9   180.00  11.29680   2 ;    O12-   C11-   O11-    C1
  3819   3820   3823   3824      9     0.00   0.00000   0 ;    O11-    C1-    C2-    HX
  3819   3820   3823   3824      9     0.00   1.04600   1 ;    O11-    C1-    C2-    HX
  3819   3820   3823   3825      9     0.00   0.00000   0 ;    O11-    C1-    C2-    C3
  3819   3820   3823   3825      9     0.00   0.00000   0 ;    O11-    C1-    C2-    C3
  3819   3820   3823   3825      9     0.00   0.00000   0 ;    O11-    C1-    C2-    C3
  3819   3820   3823   3825      9     0.00   0.00000   0 ;    O11-    C1-    C2-    C3
  3819   3820   3823   3825      9     0.00   0.00000   0 ;    O11-    C1-    C2-    C3
  3819   3820   3823   3852      9     0.00   1.25520   2 ;    O11-    C1-    C2-   O21
  3819   3820   3823   3852      9     0.00   4.18400   3 ;    O11-    C1-    C2-   O21
  3819   3820   3823   3852      9   180.00  -0.41840   1 ;    O11-    C1-    C2-   O21
  3820   3823   3825   3826      9     0.00   0.65270   3 ;     C1-    C2-    C3-    HA
  3820   3823   3825   3827      9     0.00   0.65270   3 ;     C1-    C2-    C3-    HB
  3820   3823   3825   3828      9   180.00   3.34720   1 ;     C1-    C2-    C3-   O31
  3820   3823   3852   3853      9     0.00  -0.41840   1 ;     C1-    C2-   O21-   C21
  3821   3820   3823   3824      9     0.00   0.65270   3 ;     HR-    C1-    C2-    HX
  3821   3820   3823   3825      9     0.00   0.65270   3 ;     HR-    C1-    C2-    C3
  3821   3820   3823   3852      9     0.00   0.00000   0 ;     HR-    C1-    C2-   O21
  3821   3820   3823   3852      9     0.00   1.04600   1 ;     HR-    C1-    C2-   O21
  3822   3820   3823   3824      9     0.00   0.65270   3 ;     HS-    C1-    C2-    HX
  3822   3820   3823   3825      9     0.00   0.65270   3 ;     HS-    C1-    C2-    C3
  3822   3820   3823   3852      9     0.00   0.00000   0 ;     HS-    C1-    C2-   O21
  3822   3820   3823   3852      9     0.00   1.04600   1 ;     HS-    C1-    C2-   O21
  3823   3825   3828   3829      9     0.00   0.00000   0 ;     C2-    C3-   O31-   P31
  3823   3825   3828   3829      9   180.00  -3.34720   2 ;     C2-    C3-   O31-   P31
  3823   3852   3853   3854      9   180.00   5.85760   1 ;     C2-   O21-   C21-   O22
  3823   3852   3853   3854      9   180.00  11.29680   2 ;     C2-   O21-   C21-   O22
  3823   3852   3853   3892      9   180.00  11.29680   2 ;     C2-   O21-   C21-   C12
  3824   3823   3825   3826      9     0.00   0.65270   3 ;     HX-    C2-    C3-    HA
  3824   3823   3825   3827      9     0.00   0.65270   3 ;     HX-    C2-    C3-    HB
  3824   3823   3825   3828      9     0.00   0.00000   0 ;     HX-    C2-    C3-   O31
  3824   3823   3825   3828      9     0.00   1.04600   1 ;     HX-    C2-    C3-   O31
  3824   3823   3852   3853      9     0.00   1.60247   3 ;     HX-    C2-   O21-   C21
  3825   3823   3852   3853      9     0.00  -0.41840   1 ;     C3-    C2-   O21-   C21
  3825   3828   3829   3830      9     0.00   2.51040   3 ;     C3-   O31-   P31-   O32
  3825   3828   3829   3830      9     0.00   9.62320   2 ;     C3-   O31-   P31-   O32
  3825   3828   3829   3850      9     0.00   0.00000   0 ;     C3-   O31-   P31-   O33
  3825   3828   3829   3850      9     0.00   0.00000   0 ;     C3-   O31-   P31-   O33
  3825   3828   3829   3850      9     0.00   0.00000   0 ;     C3-   O31-   P31-   O33
  3825   3828   3829   3850      9     0.00   0.00000   0 ;     C3-   O31-   P31-   O33
  3825   3828   3829   3850      9     0.00   0.83680   2 ;     C3-   O31-   P31-   O33
  3825   3828   3829   3851      9     0.00   0.00000   0 ;     C3-   O31-   P31-   O34
  3825   3828   3829   3851      9     0.00   0.00000   0 ;     C3-   O31-   P31-   O34
  3825   3828   3829   3851      9     0.00   0.00000   0 ;     C3-   O31-   P31-   O34
  3825   3828   3829   3851      9     0.00   0.00000   0 ;     C3-   O31-   P31-   O34
  3825   3828   3829   3851      9     0.00   0.83680   2 ;     C3-   O31-   P31-   O34
  3826   3825   3823   3852      9     0.00   0.00000   0 ;     HA-    C3-    C2-   O21
  3826   3825   3823   3852      9     0.00   1.04600   1 ;     HA-    C3-    C2-   O21
  3826   3825   3828   3829      9     0.00   0.00000   0 ;     HA-    C3-   O31-   P31
  3826   3825   3828   3829      9     0.00   0.00000   0 ;     HA-    C3-   O31-   P31
  3826   3825   3828   3829      9     0.00   0.00000   0 ;     HA-    C3-   O31-   P31
  3826   3825   3828   3829      9     0.00   0.00000   0 ;     HA-    C3-   O31-   P31
  3826   3825   3828   3829      9     0.00   1.60247   3 ;     HA-    C3-   O31-   P31
  3827   3825   3823   3852      9     0.00   0.00000   0 ;     HB-    C3-    C2-   O21
  3827   3825   3823   3852      9     0.00   1.04600   1 ;     HB-    C3-    C2-   O21
  3827   3825   3828   3829      9     0.00   0.00000   0 ;     HB-    C3-   O31-   P31
  3827   3825   3828   3829      9     0.00   0.00000   0 ;     HB-    C3-   O31-   P31
  3827   3825   3828   3829      9     0.00   0.00000   0 ;     HB-    C3-   O31-   P31
  3827   3825   3828   3829      9     0.00   0.00000   0 ;     HB-    C3-   O31-   P31
  3827   3825   3828   3829      9     0.00   1.60247   3 ;     HB-    C3-   O31-   P31
  3828   3825   3823   3852      9     0.00   0.00000   0 ;    O31-    C3-    C2-   O21
  3828   3825   3823   3852      9     0.00   0.00000   0 ;    O31-    C3-    C2-   O21
  3828   3825   3823   3852      9     0.00   0.00000   0 ;    O31-    C3-    C2-   O21
  3828   3825   3823   3852      9     0.00   0.00000   0 ;    O31-    C3-    C2-   O21
  3828   3825   3823   3852      9     0.00   0.00000   0 ;    O31-    C3-    C2-   O21
  3828   3829   3830   3831      9     0.00   2.51040   3 ;    O31-   P31-   O32-   C31
  3828   3829   3830   3831      9     0.00   9.62320   2 ;    O31-   P31-   O32-   C31
  3829   3830   3831   3832      9     0.00   0.00000   0 ;    P31-   O32-   C31-   H1A
  3829   3830   3831   3832      9     0.00   0.00000   0 ;    P31-   O32-   C31-   H1A
  3829   3830   3831   3832      9     0.00   0.00000   0 ;    P31-   O32-   C31-   H1A
  3829   3830   3831   3832      9     0.00   0.00000   0 ;    P31-   O32-   C31-   H1A
  3829   3830   3831   3832      9     0.00   1.60247   3 ;    P31-   O32-   C31-   H1A
  3829   3830   3831   3833      9     0.00   0.00000   0 ;    P31-   O32-   C31-   H1B
  3829   3830   3831   3833      9     0.00   0.00000   0 ;    P31-   O32-   C31-   H1B
  3829   3830   3831   3833      9     0.00   0.00000   0 ;    P31-   O32-   C31-   H1B
  3829   3830   3831   3833      9     0.00   0.00000   0 ;    P31-   O32-   C31-   H1B
  3829   3830   3831   3833      9     0.00   1.60247   3 ;    P31-   O32-   C31-   H1B
  3829   3830   3831   3834      9     0.00   0.00000   0 ;    P31-   O32-   C31-   C32
  3829   3830   3831   3834      9   180.00  -3.34720   2 ;    P31-   O32-   C31-   C32
  3830   3831   3834   3835      9     0.00   0.65270   3 ;    O32-   C31-   C32-   H2A
  3830   3831   3834   3836      9     0.00   0.65270   3 ;    O32-   C31-   C32-   H2B
  3830   3831   3834   3837      9     0.00   4.18400   3 ;    O32-   C31-   C32-   N31
  3831   3830   3829   3850      9     0.00   0.00000   0 ;    C31-   O32-   P31-   O33
  3831   3830   3829   3850      9     0.00   0.00000   0 ;    C31-   O32-   P31-   O33
  3831   3830   3829   3850      9     0.00   0.00000   0 ;    C31-   O32-   P31-   O33
  3831   3830   3829   3850      9     0.00   0.00000   0 ;    C31-   O32-   P31-   O33
  3831   3830   3829   3850      9     0.00   0.83680   2 ;    C31-   O32-   P31-   O33
  3831   3830   3829   3851      9     0.00   0.00000   0 ;    C31-   O32-   P31-   O34
  3831   3830   3829   3851      9     0.00   0.00000   0 ;    C31-   O32-   P31-   O34
  3831   3830   3829   3851      9     0.00   0.00000   0 ;    C31-   O32-   P31-   O34
  3831   3830   3829   3851      9     0.00   0.00000   0 ;    C31-   O32-   P31-   O34
  3831   3830   3829   3851      9     0.00   0.83680   2 ;    C31-   O32-   P31-   O34
  3831   3834   3837   3838      9     0.00   0.65270   3 ;    C31-   C32-   N31-   C33
  3831   3834   3837   3842      9     0.00   0.65270   3 ;    C31-   C32-   N31-   C34
  3831   3834   3837   3846      9     0.00   0.65270   3 ;    C31-   C32-   N31-   C35
  3832   3831   3834   3835      9     0.00   0.65270   3 ;    H1A-   C31-   C32-   H2A
  3832   3831   3834   3836      9     0.00   0.65270   3 ;    H1A-   C31-   C32-   H2B
  3832   3831   3834   3837      9     0.00   0.65270   3 ;    H1A-   C31-   C32-   N31
  3833   3831   3834   3835      9     0.00   0.65270   3 ;    H1B-   C31-   C32-   H2A
  3833   3831   3834   3836      9     0.00   0.65270   3 ;    H1B-   C31-   C32-   H2B
  3833   3831   3834   3837      9     0.00   0.65270   3 ;    H1B-   C31-   C32-   N31
  3834   3837   3838   3839      9     0.00   0.65270   3 ;    C32-   N31-   C33-   H3A
  3834   3837   3838   3840      9     0.00   0.65270   3 ;    C32-   N31-   C33-   H3B
  3834   3837   3838   3841      9     0.00   0.65270   3 ;    C32-   N31-   C33-   H3C
  3834   3837   3842   3843      9     0.00   0.65270   3 ;    C32-   N31-   C34-   H4A
  3834   3837   3842   3844      9     0.00   0.65270   3 ;    C32-   N31-   C34-   H4B
  3834   3837   3842   3845      9     0.00   0.65270   3 ;    C32-   N31-   C34-   H4C
  3834   3837   3846   3847      9     0.00   0.65270   3 ;    C32-   N31-   C35-   H5A
  3834   3837   3846   3848      9     0.00   0.65270   3 ;    C32-   N31-   C35-   H5B
  3834   3837   3846   3849      9     0.00   0.65270   3 ;    C32-   N31-   C35-   H5C
  3835   3834   3837   3838      9     0.00   0.65270   3 ;    H2A-   C32-   N31-   C33
  3835   3834   3837   3842      9     0.00   0.65270   3 ;    H2A-   C32-   N31-   C34
  3835   3834   3837   3846      9     0.00   0.65270   3 ;    H2A-   C32-   N31-   C35
  3836   3834   3837   3838      9     0.00   0.65270   3 ;    H2B-   C32-   N31-   C33
  3836   3834   3837   3842      9     0.00   0.65270   3 ;    H2B-   C32-   N31-   C34
  3836   3834   3837   3846      9     0.00   0.65270   3 ;    H2B-   C32-   N31-   C35
  3838   3837   3842   3843      9     0.00   0.65270   3 ;    C33-   N31-   C34-   H4A
  3838   3837   3842   3844      9     0.00   0.65270   3 ;    C33-   N31-   C34-   H4B
  3838   3837   3842   3845      9     0.00   0.65270   3 ;    C33-   N31-   C34-   H4C
  3838   3837   3846   3847      9     0.00   0.65270   3 ;    C33-   N31-   C35-   H5A
  3838   3837   3846   3848      9     0.00   0.65270   3 ;    C33-   N31-   C35-   H5B
  3838   3837   3846   3849      9     0.00   0.65270   3 ;    C33-   N31-   C35-   H5C
  3839   3838   3837   3842      9     0.00   0.65270   3 ;    H3A-   C33-   N31-   C34
  3839   3838   3837   3846      9     0.00   0.65270   3 ;    H3A-   C33-   N31-   C35
  3840   3838   3837   3842      9     0.00   0.65270   3 ;    H3B-   C33-   N31-   C34
  3840   3838   3837   3846      9     0.00   0.65270   3 ;    H3B-   C33-   N31-   C35
  3841   3838   3837   3842      9     0.00   0.65270   3 ;    H3C-   C33-   N31-   C34
  3841   3838   3837   3846      9     0.00   0.65270   3 ;    H3C-   C33-   N31-   C35
  3842   3837   3846   3847      9     0.00   0.65270   3 ;    C34-   N31-   C35-   H5A
  3842   3837   3846   3848      9     0.00   0.65270   3 ;    C34-   N31-   C35-   H5B
  3842   3837   3846   3849      9     0.00   0.65270   3 ;    C34-   N31-   C35-   H5C
  3843   3842   3837   3846      9     0.00   0.65270   3 ;    H4A-   C34-   N31-   C35
  3844   3842   3837   3846      9     0.00   0.65270   3 ;    H4B-   C34-   N31-   C35
  3845   3842   3837   3846      9     0.00   0.65270   3 ;    H4C-   C34-   N31-   C35
  3852   3853   3892   3889      9   180.00   0.00000   2 ;    O21-   C21-   C12-   C13
  3852   3853   3892   3893      9   180.00   0.00000   2 ;    O21-   C21-   C12-   H2R
  3852   3853   3892   3894      9   180.00   0.00000   2 ;    O21-   C21-   C12-   H2S
  3853   3892   3889   3886      9     0.00   0.65270   3 ;    C21-   C12-   C13-   C14
  3853   3892   3889   3890      9     0.00   0.65270   3 ;    C21-   C12-   C13-   H3R
  3853   3892   3889   3891      9     0.00   0.65270   3 ;    C21-   C12-   C13-   H3S
  3854   3853   3892   3889      9   180.00   0.00000   2 ;    O22-   C21-   C12-   C13
  3854   3853   3892   3893      9     0.00   3.34720   1 ;    O22-   C21-   C12-   H2R
  3854   3853   3892   3893      9   180.00   0.33472   3 ;    O22-   C21-   C12-   H2R
  3854   3853   3892   3894      9     0.00   3.34720   1 ;    O22-   C21-   C12-   H2S
  3854   3853   3892   3894      9   180.00   0.33472   3 ;    O22-   C21-   C12-   H2S
  3855   3856   3859   3860      9     0.00   0.62760   3 ;   H14T-  C114-  C113-  H13R
  3855   3856   3859   3861      9     0.00   0.62760   3 ;   H14T-  C114-  C113-  H13S
  3855   3856   3859   3862      9     0.00   0.66944   3 ;   H14T-  C114-  C113-  C112
  3856   3859   3862   3863      9     0.00   0.66944   3 ;   C114-  C113-  C112-  H12R
  3856   3859   3862   3864      9     0.00   0.66944   3 ;   C114-  C113-  C112-  H12S
  3856   3859   3862   3865      9     0.00   0.41840   1 ;   C114-  C113-  C112-  C111
  3856   3859   3862   3865      9     0.00   0.41840   2 ;   C114-  C113-  C112-  C111
  3856   3859   3862   3865      9     0.00   0.41840   4 ;   C114-  C113-  C112-  C111
  3856   3859   3862   3865      9     0.00   0.41840   5 ;   C114-  C113-  C112-  C111
  3856   3859   3862   3865      9     0.00   1.25520   3 ;   C114-  C113-  C112-  C111
  3857   3856   3859   3860      9     0.00   0.62760   3 ;   H14R-  C114-  C113-  H13R
  3857   3856   3859   3861      9     0.00   0.62760   3 ;   H14R-  C114-  C113-  H13S
  3857   3856   3859   3862      9     0.00   0.66944   3 ;   H14R-  C114-  C113-  C112
  3858   3856   3859   3860      9     0.00   0.62760   3 ;   H14S-  C114-  C113-  H13R
  3858   3856   3859   3861      9     0.00   0.62760   3 ;   H14S-  C114-  C113-  H13S
  3858   3856   3859   3862      9     0.00   0.66944   3 ;   H14S-  C114-  C113-  C112
  3859   3862   3865   3866      9     0.00   0.66944   3 ;   C113-  C112-  C111-  H11R
  3859   3862   3865   3867      9     0.00   0.66944   3 ;   C113-  C112-  C111-  H11S
  3859   3862   3865   3868      9     0.00   0.41840   1 ;   C113-  C112-  C111-  C110
  3859   3862   3865   3868      9     0.00   0.41840   2 ;   C113-  C112-  C111-  C110
  3859   3862   3865   3868      9     0.00   0.41840   4 ;   C113-  C112-  C111-  C110
  3859   3862   3865   3868      9     0.00   0.41840   5 ;   C113-  C112-  C111-  C110
  3859   3862   3865   3868      9     0.00   1.25520   3 ;   C113-  C112-  C111-  C110
  3860   3859   3862   3863      9     0.00   0.62760   3 ;   H13R-  C113-  C112-  H12R
  3860   3859   3862   3864      9     0.00   0.62760   3 ;   H13R-  C113-  C112-  H12S
  3860   3859   3862   3865      9     0.00   0.66944   3 ;   H13R-  C113-  C112-  C111
  3861   3859   3862   3863      9     0.00   0.62760   3 ;   H13S-  C113-  C112-  H12R
  3861   3859   3862   3864      9     0.00   0.62760   3 ;   H13S-  C113-  C112-  H12S
  3861   3859   3862   3865      9     0.00   0.66944   3 ;   H13S-  C113-  C112-  C111
  3862   3865   3868   3869      9     0.00   0.66944   3 ;   C112-  C111-  C110-  H10R
  3862   3865   3868   3870      9     0.00   0.66944   3 ;   C112-  C111-  C110-  H10S
  3862   3865   3868   3871      9     0.00   0.41840   1 ;   C112-  C111-  C110-   C19
  3862   3865   3868   3871      9     0.00   0.41840   2 ;   C112-  C111-  C110-   C19
  3862   3865   3868   3871      9     0.00   0.41840   4 ;   C112-  C111-  C110-   C19
  3862   3865   3868   3871      9     0.00   0.41840   5 ;   C112-  C111-  C110-   C19
  3862   3865   3868   3871      9     0.00   1.25520   3 ;   C112-  C111-  C110-   C19
  3863   3862   3865   3866      9     0.00   0.62760   3 ;   H12R-  C112-  C111-  H11R
  3863   3862   3865   3867      9     0.00   0.62760   3 ;   H12R-  C112-  C111-  H11S
  3863   3862   3865   3868      9     0.00   0.66944   3 ;   H12R-  C112-  C111-  C110
  3864   3862   3865   3866      9     0.00   0.62760   3 ;   H12S-  C112-  C111-  H11R
  3864   3862   3865   3867      9     0.00   0.62760   3 ;   H12S-  C112-  C111-  H11S
  3864   3862   3865   3868      9     0.00   0.66944   3 ;   H12S-  C112-  C111-  C110
  3865   3868   3871   3872      9     0.00   0.66944   3 ;   C111-  C110-   C19-   H9R
  3865   3868   3871   3873      9     0.00   0.66944   3 ;   C111-  C110-   C19-   H9S
  3865   3868   3871   3874      9     0.00   0.41840   1 ;   C111-  C110-   C19-   C18
  3865   3868   3871   3874      9     0.00   0.41840   2 ;   C111-  C110-   C19-   C18
  3865   3868   3871   3874      9     0.00   0.41840   4 ;   C111-  C110-   C19-   C18
  3865   3868   3871   3874      9     0.00   0.41840   5 ;   C111-  C110-   C19-   C18
  3865   3868   3871   3874      9     0.00   1.25520   3 ;   C111-  C110-   C19-   C18
  3866   3865   3868   3869      9     0.00   0.62760   3 ;   H11R-  C111-  C110-  H10R
  3866   3865   3868   3870      9     0.00   0.62760   3 ;   H11R-  C111-  C110-  H10S
  3866   3865   3868   3871      9     0.00   0.66944   3 ;   H11R-  C111-  C110-   C19
  3867   3865   3868   3869      9     0.00   0.62760   3 ;   H11S-  C111-  C110-  H10R
  3867   3865   3868   3870      9     0.00   0.62760   3 ;   H11S-  C111-  C110-  H10S
  3867   3865   3868   3871      9     0.00   0.66944   3 ;   H11S-  C111-  C110-   C19
  3868   3871   3874   3875      9     0.00   0.66944   3 ;   C110-   C19-   C18-   H8R
  3868   3871   3874   3876      9     0.00   0.66944   3 ;   C110-   C19-   C18-   H8S
  3868   3871   3874   3877      9     0.00   0.41840   1 ;   C110-   C19-   C18-   C17
  3868   3871   3874   3877      9     0.00   0.41840   2 ;   C110-   C19-   C18-   C17
  3868   3871   3874   3877      9     0.00   0.41840   4 ;   C110-   C19-   C18-   C17
  3868   3871   3874   3877      9     0.00   0.41840   5 ;   C110-   C19-   C18-   C17
  3868   3871   3874   3877      9     0.00   1.25520   3 ;   C110-   C19-   C18-   C17
  3869   3868   3871   3872      9     0.00   0.62760   3 ;   H10R-  C110-   C19-   H9R
  3869   3868   3871   3873      9     0.00   0.62760   3 ;   H10R-  C110-   C19-   H9S
  3869   3868   3871   3874      9     0.00   0.66944   3 ;   H10R-  C110-   C19-   C18
  3870   3868   3871   3872      9     0.00   0.62760   3 ;   H10S-  C110-   C19-   H9R
  3870   3868   3871   3873      9     0.00   0.62760   3 ;   H10S-  C110-   C19-   H9S
  3870   3868   3871   3874      9     0.00   0.66944   3 ;   H10S-  C110-   C19-   C18
  3871   3874   3877   3878      9     0.00   0.66944   3 ;    C19-   C18-   C17-   H7R
  3871   3874   3877   3879      9     0.00   0.66944   3 ;    C19-   C18-   C17-   H7S
  3871   3874   3877   3880      9     0.00   0.41840   1 ;    C19-   C18-   C17-   C16
  3871   3874   3877   3880      9     0.00   0.41840   2 ;    C19-   C18-   C17-   C16
  3871   3874   3877   3880      9     0.00   0.41840   4 ;    C19-   C18-   C17-   C16
  3871   3874   3877   3880      9     0.00   0.41840   5 ;    C19-   C18-   C17-   C16
  3871   3874   3877   3880      9     0.00   1.25520   3 ;    C19-   C18-   C17-   C16
  3872   3871   3874   3875      9     0.00   0.62760   3 ;    H9R-   C19-   C18-   H8R
  3872   3871   3874   3876      9     0.00   0.62760   3 ;    H9R-   C19-   C18-   H8S
  3872   3871   3874   3877      9     0.00   0.66944   3 ;    H9R-   C19-   C18-   C17
  3873   3871   3874   3875      9     0.00   0.62760   3 ;    H9S-   C19-   C18-   H8R
  3873   3871   3874   3876      9     0.00   0.62760   3 ;    H9S-   C19-   C18-   H8S
  3873   3871   3874   3877      9     0.00   0.66944   3 ;    H9S-   C19-   C18-   C17
  3874   3877   3880   3881      9     0.00   0.66944   3 ;    C18-   C17-   C16-   H6R
  3874   3877   3880   3882      9     0.00   0.66944   3 ;    C18-   C17-   C16-   H6S
  3874   3877   3880   3883      9     0.00   0.41840   1 ;    C18-   C17-   C16-   C15
  3874   3877   3880   3883      9     0.00   0.41840   2 ;    C18-   C17-   C16-   C15
  3874   3877   3880   3883      9     0.00   0.41840   4 ;    C18-   C17-   C16-   C15
  3874   3877   3880   3883      9     0.00   0.41840   5 ;    C18-   C17-   C16-   C15
  3874   3877   3880   3883      9     0.00   1.25520   3 ;    C18-   C17-   C16-   C15
  3875   3874   3877   3878      9     0.00   0.62760   3 ;    H8R-   C18-   C17-   H7R
  3875   3874   3877   3879      9     0.00   0.62760   3 ;    H8R-   C18-   C17-   H7S
  3875   3874   3877   3880      9     0.00   0.66944   3 ;    H8R-   C18-   C17-   C16
  3876   3874   3877   3878      9     0.00   0.62760   3 ;    H8S-   C18-   C17-   H7R
  3876   3874   3877   3879      9     0.00   0.62760   3 ;    H8S-   C18-   C17-   H7S
  3876   3874   3877   3880      9     0.00   0.66944   3 ;    H8S-   C18-   C17-   C16
  3877   3880   3883   3884      9     0.00   0.66944   3 ;    C17-   C16-   C15-   H5R
  3877   3880   3883   3885      9     0.00   0.66944   3 ;    C17-   C16-   C15-   H5S
  3877   3880   3883   3886      9     0.00   0.41840   1 ;    C17-   C16-   C15-   C14
  3877   3880   3883   3886      9     0.00   0.41840   2 ;    C17-   C16-   C15-   C14
  3877   3880   3883   3886      9     0.00   0.41840   4 ;    C17-   C16-   C15-   C14
  3877   3880   3883   3886      9     0.00   0.41840   5 ;    C17-   C16-   C15-   C14
  3877   3880   3883   3886      9     0.00   1.25520   3 ;    C17-   C16-   C15-   C14
  3878   3877   3880   3881      9     0.00   0.62760   3 ;    H7R-   C17-   C16-   H6R
  3878   3877   3880   3882      9     0.00   0.62760   3 ;    H7R-   C17-   C16-   H6S
  3878   3877   3880   3883      9     0.00   0.66944   3 ;    H7R-   C17-   C16-   C15
  3879   3877   3880   3881      9     0.00   0.62760   3 ;    H7S-   C17-   C16-   H6R
  3879   3877   3880   3882      9     0.00   0.62760   3 ;    H7S-   C17-   C16-   H6S
  3879   3877   3880   3883      9     0.00   0.66944   3 ;    H7S-   C17-   C16-   C15
  3880   3883   3886   3887      9     0.00   0.66944   3 ;    C16-   C15-   C14-   H4R
  3880   3883   3886   3888      9     0.00   0.66944   3 ;    C16-   C15-   C14-   H4S
  3880   3883   3886   3889      9     0.00   0.41840   1 ;    C16-   C15-   C14-   C13
  3880   3883   3886   3889      9     0.00   0.41840   2 ;    C16-   C15-   C14-   C13
  3880   3883   3886   3889      9     0.00   0.41840   4 ;    C16-   C15-   C14-   C13
  3880   3883   3886   3889      9     0.00   0.41840   5 ;    C16-   C15-   C14-   C13
  3880   3883   3886   3889      9     0.00   1.25520   3 ;    C16-   C15-   C14-   C13
  3881   3880   3883   3884      9     0.00   0.62760   3 ;    H6R-   C16-   C15-   H5R
  3881   3880   3883   3885      9     0.00   0.62760   3 ;    H6R-   C16-   C15-   H5S
  3881   3880   3883   3886      9     0.00   0.66944   3 ;    H6R-   C16-   C15-   C14
  3882   3880   3883   3884      9     0.00   0.62760   3 ;    H6S-   C16-   C15-   H5R
  3882   3880   3883   3885      9     0.00   0.62760   3 ;    H6S-   C16-   C15-   H5S
  3882   3880   3883   3886      9     0.00   0.66944   3 ;    H6S-   C16-   C15-   C14
  3883   3886   3889   3890      9     0.00   0.66944   3 ;    C15-   C14-   C13-   H3R
  3883   3886   3889   3891      9     0.00   0.66944   3 ;    C15-   C14-   C13-   H3S
  3883   3886   3889   3892      9     0.00   0.41840   1 ;    C15-   C14-   C13-   C12
  3883   3886   3889   3892      9     0.00   0.41840   2 ;    C15-   C14-   C13-   C12
  3883   3886   3889   3892      9     0.00   0.41840   4 ;    C15-   C14-   C13-   C12
  3883   3886   3889   3892      9     0.00   0.41840   5 ;    C15-   C14-   C13-   C12
  3883   3886   3889   3892      9     0.00   1.25520   3 ;    C15-   C14-   C13-   C12
  3884   3883   3886   3887      9     0.00   0.62760   3 ;    H5R-   C15-   C14-   H4R
  3884   3883   3886   3888      9     0.00   0.62760   3 ;    H5R-   C15-   C14-   H4S
  3884   3883   3886   3889      9     0.00   0.66944   3 ;    H5R-   C15-   C14-   C13
  3885   3883   3886   3887      9     0.00   0.62760   3 ;    H5S-   C15-   C14-   H4R
  3885   3883   3886   3888      9     0.00   0.62760   3 ;    H5S-   C15-   C14-   H4S
  3885   3883   3886   3889      9     0.00   0.66944   3 ;    H5S-   C15-   C14-   C13
  3886   3889   3892   3893      9     0.00   0.66944   3 ;    C14-   C13-   C12-   H2R
  3886   3889   3892   3894      9     0.00   0.66944   3 ;    C14-   C13-   C12-   H2S
  3887   3886   3889   3890      9     0.00   0.62760   3 ;    H4R-   C14-   C13-   H3R
  3887   3886   3889   3891      9     0.00   0.62760   3 ;    H4R-   C14-   C13-   H3S
  3887   3886   3889   3892      9     0.00   0.66944   3 ;    H4R-   C14-   C13-   C12
  3888   3886   3889   3890      9     0.00   0.62760   3 ;    H4S-   C14-   C13-   H3R
  3888   3886   3889   3891      9     0.00   0.62760   3 ;    H4S-   C14-   C13-   H3S
  3888   3886   3889   3892      9     0.00   0.66944   3 ;    H4S-   C14-   C13-   C12
  3890   3889   3892   3893      9     0.00   0.62760   3 ;    H3R-   C13-   C12-   H2R
  3890   3889   3892   3894      9     0.00   0.62760   3 ;    H3R-   C13-   C12-   H2S
  3891   3889   3892   3893      9     0.00   0.62760   3 ;    H3S-   C13-   C12-   H2R
  3891   3889   3892   3894      9     0.00   0.62760   3 ;    H3S-   C13-   C12-   H2S
  3895   3896   3899   3900      9     0.00   0.62760   3 ;   H14T-  C114-  C113-  H13R
  3895   3896   3899   3901      9     0.00   0.62760   3 ;   H14T-  C114-  C113-  H13S
  3895   3896   3899   3902      9     0.00   0.66944   3 ;   H14T-  C114-  C113-  C112
  3896   3899   3902   3903      9     0.00   0.66944   3 ;   C114-  C113-  C112-  H12R
  3896   3899   3902   3904      9     0.00   0.66944   3 ;   C114-  C113-  C112-  H12S
  3896   3899   3902   3905      9     0.00   0.41840   1 ;   C114-  C113-  C112-  C111
  3896   3899   3902   3905      9     0.00   0.41840   2 ;   C114-  C113-  C112-  C111
  3896   3899   3902   3905      9     0.00   0.41840   4 ;   C114-  C113-  C112-  C111
  3896   3899   3902   3905      9     0.00   0.41840   5 ;   C114-  C113-  C112-  C111
  3896   3899   3902   3905      9     0.00   1.25520   3 ;   C114-  C113-  C112-  C111
  3897   3896   3899   3900      9     0.00   0.62760   3 ;   H14R-  C114-  C113-  H13R
  3897   3896   3899   3901      9     0.00   0.62760   3 ;   H14R-  C114-  C113-  H13S
  3897   3896   3899   3902      9     0.00   0.66944   3 ;   H14R-  C114-  C113-  C112
  3898   3896   3899   3900      9     0.00   0.62760   3 ;   H14S-  C114-  C113-  H13R
  3898   3896   3899   3901      9     0.00   0.62760   3 ;   H14S-  C114-  C113-  H13S
  3898   3896   3899   3902      9     0.00   0.66944   3 ;   H14S-  C114-  C113-  C112
  3899   3902   3905   3906      9     0.00   0.66944   3 ;   C113-  C112-  C111-  H11R
  3899   3902   3905   3907      9     0.00   0.66944   3 ;   C113-  C112-  C111-  H11S
  3899   3902   3905   3908      9     0.00   0.41840   1 ;   C113-  C112-  C111-  C110
  3899   3902   3905   3908      9     0.00   0.41840   2 ;   C113-  C112-  C111-  C110
  3899   3902   3905   3908      9     0.00   0.41840   4 ;   C113-  C112-  C111-  C110
  3899   3902   3905   3908      9     0.00   0.41840   5 ;   C113-  C112-  C111-  C110
  3899   3902   3905   3908      9     0.00   1.25520   3 ;   C113-  C112-  C111-  C110
  3900   3899   3902   3903      9     0.00   0.62760   3 ;   H13R-  C113-  C112-  H12R
  3900   3899   3902   3904      9     0.00   0.62760   3 ;   H13R-  C113-  C112-  H12S
  3900   3899   3902   3905      9     0.00   0.66944   3 ;   H13R-  C113-  C112-  C111
  3901   3899   3902   3903      9     0.00   0.62760   3 ;   H13S-  C113-  C112-  H12R
  3901   3899   3902   3904      9     0.00   0.62760   3 ;   H13S-  C113-  C112-  H12S
  3901   3899   3902   3905      9     0.00   0.66944   3 ;   H13S-  C113-  C112-  C111
  3902   3905   3908   3909      9     0.00   0.66944   3 ;   C112-  C111-  C110-  H10R
  3902   3905   3908   3910      9     0.00   0.66944   3 ;   C112-  C111-  C110-  H10S
  3902   3905   3908   3911      9     0.00   0.41840   1 ;   C112-  C111-  C110-   C19
  3902   3905   3908   3911      9     0.00   0.41840   2 ;   C112-  C111-  C110-   C19
  3902   3905   3908   3911      9     0.00   0.41840   4 ;   C112-  C111-  C110-   C19
  3902   3905   3908   3911      9     0.00   0.41840   5 ;   C112-  C111-  C110-   C19
  3902   3905   3908   3911      9     0.00   1.25520   3 ;   C112-  C111-  C110-   C19
  3903   3902   3905   3906      9     0.00   0.62760   3 ;   H12R-  C112-  C111-  H11R
  3903   3902   3905   3907      9     0.00   0.62760   3 ;   H12R-  C112-  C111-  H11S
  3903   3902   3905   3908      9     0.00   0.66944   3 ;   H12R-  C112-  C111-  C110
  3904   3902   3905   3906      9     0.00   0.62760   3 ;   H12S-  C112-  C111-  H11R
  3904   3902   3905   3907      9     0.00   0.62760   3 ;   H12S-  C112-  C111-  H11S
  3904   3902   3905   3908      9     0.00   0.66944   3 ;   H12S-  C112-  C111-  C110
  3905   3908   3911   3912      9     0.00   0.66944   3 ;   C111-  C110-   C19-   H9R
  3905   3908   3911   3913      9     0.00   0.66944   3 ;   C111-  C110-   C19-   H9S
  3905   3908   3911   3914      9     0.00   0.41840   1 ;   C111-  C110-   C19-   C18
  3905   3908   3911   3914      9     0.00   0.41840   2 ;   C111-  C110-   C19-   C18
  3905   3908   3911   3914      9     0.00   0.41840   4 ;   C111-  C110-   C19-   C18
  3905   3908   3911   3914      9     0.00   0.41840   5 ;   C111-  C110-   C19-   C18
  3905   3908   3911   3914      9     0.00   1.25520   3 ;   C111-  C110-   C19-   C18
  3906   3905   3908   3909      9     0.00   0.62760   3 ;   H11R-  C111-  C110-  H10R
  3906   3905   3908   3910      9     0.00   0.62760   3 ;   H11R-  C111-  C110-  H10S
  3906   3905   3908   3911      9     0.00   0.66944   3 ;   H11R-  C111-  C110-   C19
  3907   3905   3908   3909      9     0.00   0.62760   3 ;   H11S-  C111-  C110-  H10R
  3907   3905   3908   3910      9     0.00   0.62760   3 ;   H11S-  C111-  C110-  H10S
  3907   3905   3908   3911      9     0.00   0.66944   3 ;   H11S-  C111-  C110-   C19
  3908   3911   3914   3915      9     0.00   0.66944   3 ;   C110-   C19-   C18-   H8R
  3908   3911   3914   3916      9     0.00   0.66944   3 ;   C110-   C19-   C18-   H8S
  3908   3911   3914   3917      9     0.00   0.41840   1 ;   C110-   C19-   C18-   C17
  3908   3911   3914   3917      9     0.00   0.41840   2 ;   C110-   C19-   C18-   C17
  3908   3911   3914   3917      9     0.00   0.41840   4 ;   C110-   C19-   C18-   C17
  3908   3911   3914   3917      9     0.00   0.41840   5 ;   C110-   C19-   C18-   C17
  3908   3911   3914   3917      9     0.00   1.25520   3 ;   C110-   C19-   C18-   C17
  3909   3908   3911   3912      9     0.00   0.62760   3 ;   H10R-  C110-   C19-   H9R
  3909   3908   3911   3913      9     0.00   0.62760   3 ;   H10R-  C110-   C19-   H9S
  3909   3908   3911   3914      9     0.00   0.66944   3 ;   H10R-  C110-   C19-   C18
  3910   3908   3911   3912      9     0.00   0.62760   3 ;   H10S-  C110-   C19-   H9R
  3910   3908   3911   3913      9     0.00   0.62760   3 ;   H10S-  C110-   C19-   H9S
  3910   3908   3911   3914      9     0.00   0.66944   3 ;   H10S-  C110-   C19-   C18
  3911   3914   3917   3918      9     0.00   0.66944   3 ;    C19-   C18-   C17-   H7R
  3911   3914   3917   3919      9     0.00   0.66944   3 ;    C19-   C18-   C17-   H7S
  3911   3914   3917   3920      9     0.00   0.41840   1 ;    C19-   C18-   C17-   C16
  3911   3914   3917   3920      9     0.00   0.41840   2 ;    C19-   C18-   C17-   C16
  3911   3914   3917   3920      9     0.00   0.41840   4 ;    C19-   C18-   C17-   C16
  3911   3914   3917   3920      9     0.00   0.41840   5 ;    C19-   C18-   C17-   C16
  3911   3914   3917   3920      9     0.00   1.25520   3 ;    C19-   C18-   C17-   C16
  3912   3911   3914   3915      9     0.00   0.62760   3 ;    H9R-   C19-   C18-   H8R
  3912   3911   3914   3916      9     0.00   0.62760   3 ;    H9R-   C19-   C18-   H8S
  3912   3911   3914   3917      9     0.00   0.66944   3 ;    H9R-   C19-   C18-   C17
  3913   3911   3914   3915      9     0.00   0.62760   3 ;    H9S-   C19-   C18-   H8R
  3913   3911   3914   3916      9     0.00   0.62760   3 ;    H9S-   C19-   C18-   H8S
  3913   3911   3914   3917      9     0.00   0.66944   3 ;    H9S-   C19-   C18-   C17
  3914   3917   3920   3921      9     0.00   0.66944   3 ;    C18-   C17-   C16-   H6R
  3914   3917   3920   3922      9     0.00   0.66944   3 ;    C18-   C17-   C16-   H6S
  3914   3917   3920   3923      9     0.00   0.41840   1 ;    C18-   C17-   C16-   C15
  3914   3917   3920   3923      9     0.00   0.41840   2 ;    C18-   C17-   C16-   C15
  3914   3917   3920   3923      9     0.00   0.41840   4 ;    C18-   C17-   C16-   C15
  3914   3917   3920   3923      9     0.00   0.41840   5 ;    C18-   C17-   C16-   C15
  3914   3917   3920   3923      9     0.00   1.25520   3 ;    C18-   C17-   C16-   C15
  3915   3914   3917   3918      9     0.00   0.62760   3 ;    H8R-   C18-   C17-   H7R
  3915   3914   3917   3919      9     0.00   0.62760   3 ;    H8R-   C18-   C17-   H7S
  3915   3914   3917   3920      9     0.00   0.66944   3 ;    H8R-   C18-   C17-   C16
  3916   3914   3917   3918      9     0.00   0.62760   3 ;    H8S-   C18-   C17-   H7R
  3916   3914   3917   3919      9     0.00   0.62760   3 ;    H8S-   C18-   C17-   H7S
  3916   3914   3917   3920      9     0.00   0.66944   3 ;    H8S-   C18-   C17-   C16
  3917   3920   3923   3924      9     0.00   0.66944   3 ;    C17-   C16-   C15-   H5R
  3917   3920   3923   3925      9     0.00   0.66944   3 ;    C17-   C16-   C15-   H5S
  3917   3920   3923   3926      9     0.00   0.41840   1 ;    C17-   C16-   C15-   C14
  3917   3920   3923   3926      9     0.00   0.41840   2 ;    C17-   C16-   C15-   C14
  3917   3920   3923   3926      9     0.00   0.41840   4 ;    C17-   C16-   C15-   C14
  3917   3920   3923   3926      9     0.00   0.41840   5 ;    C17-   C16-   C15-   C14
  3917   3920   3923   3926      9     0.00   1.25520   3 ;    C17-   C16-   C15-   C14
  3918   3917   3920   3921      9     0.00   0.62760   3 ;    H7R-   C17-   C16-   H6R
  3918   3917   3920   3922      9     0.00   0.62760   3 ;    H7R-   C17-   C16-   H6S
  3918   3917   3920   3923      9     0.00   0.66944   3 ;    H7R-   C17-   C16-   C15
  3919   3917   3920   3921      9     0.00   0.62760   3 ;    H7S-   C17-   C16-   H6R
  3919   3917   3920   3922      9     0.00   0.62760   3 ;    H7S-   C17-   C16-   H6S
  3919   3917   3920   3923      9     0.00   0.66944   3 ;    H7S-   C17-   C16-   C15
  3920   3923   3926   3927      9     0.00   0.66944   3 ;    C16-   C15-   C14-   H4R
  3920   3923   3926   3928      9     0.00   0.66944   3 ;    C16-   C15-   C14-   H4S
  3920   3923   3926   3929      9     0.00   0.41840   1 ;    C16-   C15-   C14-   C13
  3920   3923   3926   3929      9     0.00   0.41840   2 ;    C16-   C15-   C14-   C13
  3920   3923   3926   3929      9     0.00   0.41840   4 ;    C16-   C15-   C14-   C13
  3920   3923   3926   3929      9     0.00   0.41840   5 ;    C16-   C15-   C14-   C13
  3920   3923   3926   3929      9     0.00   1.25520   3 ;    C16-   C15-   C14-   C13
  3921   3920   3923   3924      9     0.00   0.62760   3 ;    H6R-   C16-   C15-   H5R
  3921   3920   3923   3925      9     0.00   0.62760   3 ;    H6R-   C16-   C15-   H5S
  3921   3920   3923   3926      9     0.00   0.66944   3 ;    H6R-   C16-   C15-   C14
  3922   3920   3923   3924      9     0.00   0.62760   3 ;    H6S-   C16-   C15-   H5R
  3922   3920   3923   3925      9     0.00   0.62760   3 ;    H6S-   C16-   C15-   H5S
  3922   3920   3923   3926      9     0.00   0.66944   3 ;    H6S-   C16-   C15-   C14
  3923   3926   3929   3930      9     0.00   0.66944   3 ;    C15-   C14-   C13-   H3R
  3923   3926   3929   3931      9     0.00   0.66944   3 ;    C15-   C14-   C13-   H3S
  3923   3926   3929   3932      9     0.00   0.41840   1 ;    C15-   C14-   C13-   C12
  3923   3926   3929   3932      9     0.00   0.41840   2 ;    C15-   C14-   C13-   C12
  3923   3926   3929   3932      9     0.00   0.41840   4 ;    C15-   C14-   C13-   C12
  3923   3926   3929   3932      9     0.00   0.41840   5 ;    C15-   C14-   C13-   C12
  3923   3926   3929   3932      9     0.00   1.25520   3 ;    C15-   C14-   C13-   C12
  3924   3923   3926   3927      9     0.00   0.62760   3 ;    H5R-   C15-   C14-   H4R
  3924   3923   3926   3928      9     0.00   0.62760   3 ;    H5R-   C15-   C14-   H4S
  3924   3923   3926   3929      9     0.00   0.66944   3 ;    H5R-   C15-   C14-   C13
  3925   3923   3926   3927      9     0.00   0.62760   3 ;    H5S-   C15-   C14-   H4R
  3925   3923   3926   3928      9     0.00   0.62760   3 ;    H5S-   C15-   C14-   H4S
  3925   3923   3926   3929      9     0.00   0.66944   3 ;    H5S-   C15-   C14-   C13
  3926   3929   3932   3933      9     0.00   0.66944   3 ;    C14-   C13-   C12-   H2R
  3926   3929   3932   3934      9     0.00   0.66944   3 ;    C14-   C13-   C12-   H2S
  3926   3929   3932   3935      9     0.00   0.65270   3 ;    C14-   C13-   C12-   C11
  3927   3926   3929   3930      9     0.00   0.62760   3 ;    H4R-   C14-   C13-   H3R
  3927   3926   3929   3931      9     0.00   0.62760   3 ;    H4R-   C14-   C13-   H3S
  3927   3926   3929   3932      9     0.00   0.66944   3 ;    H4R-   C14-   C13-   C12
  3928   3926   3929   3930      9     0.00   0.62760   3 ;    H4S-   C14-   C13-   H3R
  3928   3926   3929   3931      9     0.00   0.62760   3 ;    H4S-   C14-   C13-   H3S
  3928   3926   3929   3932      9     0.00   0.66944   3 ;    H4S-   C14-   C13-   C12
  3929   3932   3935   3936      9   180.00   0.00000   2 ;    C13-   C12-   C11-   O12
  3929   3932   3935   3937      9   180.00   0.00000   2 ;    C13-   C12-   C11-   O11
  3930   3929   3932   3933      9     0.00   0.62760   3 ;    H3R-   C13-   C12-   H2R
  3930   3929   3932   3934      9     0.00   0.62760   3 ;    H3R-   C13-   C12-   H2S
  3930   3929   3932   3935      9     0.00   0.65270   3 ;    H3R-   C13-   C12-   C11
  3931   3929   3932   3933      9     0.00   0.62760   3 ;    H3S-   C13-   C12-   H2R
  3931   3929   3932   3934      9     0.00   0.62760   3 ;    H3S-   C13-   C12-   H2S
  3931   3929   3932   3935      9     0.00   0.65270   3 ;    H3S-   C13-   C12-   C11
  3932   3935   3937   3938      9   180.00  11.29680   2 ;    C12-   C11-   O11-    C1
  3933   3932   3935   3936      9     0.00   3.34720   1 ;    H2R-   C12-   C11-   O12
  3933   3932   3935   3936      9   180.00   0.33472   3 ;    H2R-   C12-   C11-   O12
  3933   3932   3935   3937      9   180.00   0.00000   2 ;    H2R-   C12-   C11-   O11
  3934   3932   3935   3936      9     0.00   3.34720   1 ;    H2S-   C12-   C11-   O12
  3934   3932   3935   3936      9   180.00   0.33472   3 ;    H2S-   C12-   C11-   O12
  3934   3932   3935   3937      9   180.00   0.00000   2 ;    H2S-   C12-   C11-   O11
  3935   3937   3938   3939      9     0.00   1.60247   3 ;    C11-   O11-    C1-    HR
  3935   3937   3938   3940      9     0.00   1.60247   3 ;    C11-   O11-    C1-    HS
  3935   3937   3938   3941      9     0.00  -0.41840   1 ;    C11-   O11-    C1-    C2
  3936   3935   3937   3938      9   180.00   5.85760   1 ;    O12-   C11-   O11-    C1
  3936   3935   3937   3938      9   180.00  11.29680   2 ;    O12-   C11-   O11-    C1
  3937   3938   3941   3942      9     0.00   0.00000   0 ;    O11-    C1-    C2-    HX
  3937   3938   3941   3942      9     0.00   1.04600   1 ;    O11-    C1-    C2-    HX
  3937   3938   3941   3943      9     0.00   0.00000   0 ;    O11-    C1-    C2-    C3
  3937   3938   3941   3943      9     0.00   0.00000   0 ;    O11-    C1-    C2-    C3
  3937   3938   3941   3943      9     0.00   0.00000   0 ;    O11-    C1-    C2-    C3
  3937   3938   3941   3943      9     0.00   0.00000   0 ;    O11-    C1-    C2-    C3
  3937   3938   3941   3943      9     0.00   0.00000   0 ;    O11-    C1-    C2-    C3
  3937   3938   3941   3970      9     0.00   1.25520   2 ;    O11-    C1-    C2-   O21
  3937   3938   3941   3970      9     0.00   4.18400   3 ;    O11-    C1-    C2-   O21
  3937   3938   3941   3970      9   180.00  -0.41840   1 ;    O11-    C1-    C2-   O21
  3938   3941   3943   3944      9     0.00   0.65270   3 ;     C1-    C2-    C3-    HA
  3938   3941   3943   3945      9     0.00   0.65270   3 ;     C1-    C2-    C3-    HB
  3938   3941   3943   3946      9   180.00   3.34720   1 ;     C1-    C2-    C3-   O31
  3938   3941   3970   3971      9     0.00  -0.41840   1 ;     C1-    C2-   O21-   C21
  3939   3938   3941   3942      9     0.00   0.65270   3 ;     HR-    C1-    C2-    HX
  3939   3938   3941   3943      9     0.00   0.65270   3 ;     HR-    C1-    C2-    C3
  3939   3938   3941   3970      9     0.00   0.00000   0 ;     HR-    C1-    C2-   O21
  3939   3938   3941   3970      9     0.00   1.04600   1 ;     HR-    C1-    C2-   O21
  3940   3938   3941   3942      9     0.00   0.65270   3 ;     HS-    C1-    C2-    HX
  3940   3938   3941   3943      9     0.00   0.65270   3 ;     HS-    C1-    C2-    C3
  3940   3938   3941   3970      9     0.00   0.00000   0 ;     HS-    C1-    C2-   O21
  3940   3938   3941   3970      9     0.00   1.04600   1 ;     HS-    C1-    C2-   O21
  3941   3943   3946   3947      9     0.00   0.00000   0 ;     C2-    C3-   O31-   P31
  3941   3943   3946   3947      9   180.00  -3.34720   2 ;     C2-    C3-   O31-   P31
  3941   3970   3971   3972      9   180.00   5.85760   1 ;     C2-   O21-   C21-   O22
  3941   3970   3971   3972      9   180.00  11.29680   2 ;     C2-   O21-   C21-   O22
  3941   3970   3971   4010      9   180.00  11.29680   2 ;     C2-   O21-   C21-   C12
  3942   3941   3943   3944      9     0.00   0.65270   3 ;     HX-    C2-    C3-    HA
  3942   3941   3943   3945      9     0.00   0.65270   3 ;     HX-    C2-    C3-    HB
  3942   3941   3943   3946      9     0.00   0.00000   0 ;     HX-    C2-    C3-   O31
  3942   3941   3943   3946      9     0.00   1.04600   1 ;     HX-    C2-    C3-   O31
  3942   3941   3970   3971      9     0.00   1.60247   3 ;     HX-    C2-   O21-   C21
  3943   3941   3970   3971      9     0.00  -0.41840   1 ;     C3-    C2-   O21-   C21
  3943   3946   3947   3948      9     0.00   2.51040   3 ;     C3-   O31-   P31-   O32
  3943   3946   3947   3948      9     0.00   9.62320   2 ;     C3-   O31-   P31-   O32
  3943   3946   3947   3968      9     0.00   0.00000   0 ;     C3-   O31-   P31-   O33
  3943   3946   3947   3968      9     0.00   0.00000   0 ;     C3-   O31-   P31-   O33
  3943   3946   3947   3968      9     0.00   0.00000   0 ;     C3-   O31-   P31-   O33
  3943   3946   3947   3968      9     0.00   0.00000   0 ;     C3-   O31-   P31-   O33
  3943   3946   3947   3968      9     0.00   0.83680   2 ;     C3-   O31-   P31-   O33
  3943   3946   3947   3969      9     0.00   0.00000   0 ;     C3-   O31-   P31-   O34
  3943   3946   3947   3969      9     0.00   0.00000   0 ;     C3-   O31-   P31-   O34
  3943   3946   3947   3969      9     0.00   0.00000   0 ;     C3-   O31-   P31-   O34
  3943   3946   3947   3969      9     0.00   0.00000   0 ;     C3-   O31-   P31-   O34
  3943   3946   3947   3969      9     0.00   0.83680   2 ;     C3-   O31-   P31-   O34
  3944   3943   3941   3970      9     0.00   0.00000   0 ;     HA-    C3-    C2-   O21
  3944   3943   3941   3970      9     0.00   1.04600   1 ;     HA-    C3-    C2-   O21
  3944   3943   3946   3947      9     0.00   0.00000   0 ;     HA-    C3-   O31-   P31
  3944   3943   3946   3947      9     0.00   0.00000   0 ;     HA-    C3-   O31-   P31
  3944   3943   3946   3947      9     0.00   0.00000   0 ;     HA-    C3-   O31-   P31
  3944   3943   3946   3947      9     0.00   0.00000   0 ;     HA-    C3-   O31-   P31
  3944   3943   3946   3947      9     0.00   1.60247   3 ;     HA-    C3-   O31-   P31
  3945   3943   3941   3970      9     0.00   0.00000   0 ;     HB-    C3-    C2-   O21
  3945   3943   3941   3970      9     0.00   1.04600   1 ;     HB-    C3-    C2-   O21
  3945   3943   3946   3947      9     0.00   0.00000   0 ;     HB-    C3-   O31-   P31
  3945   3943   3946   3947      9     0.00   0.00000   0 ;     HB-    C3-   O31-   P31
  3945   3943   3946   3947      9     0.00   0.00000   0 ;     HB-    C3-   O31-   P31
  3945   3943   3946   3947      9     0.00   0.00000   0 ;     HB-    C3-   O31-   P31
  3945   3943   3946   3947      9     0.00   1.60247   3 ;     HB-    C3-   O31-   P31
  3946   3943   3941   3970      9     0.00   0.00000   0 ;    O31-    C3-    C2-   O21
  3946   3943   3941   3970      9     0.00   0.00000   0 ;    O31-    C3-    C2-   O21
  3946   3943   3941   3970      9     0.00   0.00000   0 ;    O31-    C3-    C2-   O21
  3946   3943   3941   3970      9     0.00   0.00000   0 ;    O31-    C3-    C2-   O21
  3946   3943   3941   3970      9     0.00   0.00000   0 ;    O31-    C3-    C2-   O21
  3946   3947   3948   3949      9     0.00   2.51040   3 ;    O31-   P31-   O32-   C31
  3946   3947   3948   3949      9     0.00   9.62320   2 ;    O31-   P31-   O32-   C31
  3947   3948   3949   3950      9     0.00   0.00000   0 ;    P31-   O32-   C31-   H1A
  3947   3948   3949   3950      9     0.00   0.00000   0 ;    P31-   O32-   C31-   H1A
  3947   3948   3949   3950      9     0.00   0.00000   0 ;    P31-   O32-   C31-   H1A
  3947   3948   3949   3950      9     0.00   0.00000   0 ;    P31-   O32-   C31-   H1A
  3947   3948   3949   3950      9     0.00   1.60247   3 ;    P31-   O32-   C31-   H1A
  3947   3948   3949   3951      9     0.00   0.00000   0 ;    P31-   O32-   C31-   H1B
  3947   3948   3949   3951      9     0.00   0.00000   0 ;    P31-   O32-   C31-   H1B
  3947   3948   3949   3951      9     0.00   0.00000   0 ;    P31-   O32-   C31-   H1B
  3947   3948   3949   3951      9     0.00   0.00000   0 ;    P31-   O32-   C31-   H1B
  3947   3948   3949   3951      9     0.00   1.60247   3 ;    P31-   O32-   C31-   H1B
  3947   3948   3949   3952      9     0.00   0.00000   0 ;    P31-   O32-   C31-   C32
  3947   3948   3949   3952      9   180.00  -3.34720   2 ;    P31-   O32-   C31-   C32
  3948   3949   3952   3953      9     0.00   0.65270   3 ;    O32-   C31-   C32-   H2A
  3948   3949   3952   3954      9     0.00   0.65270   3 ;    O32-   C31-   C32-   H2B
  3948   3949   3952   3955      9     0.00   4.18400   3 ;    O32-   C31-   C32-   N31
  3949   3948   3947   3968      9     0.00   0.00000   0 ;    C31-   O32-   P31-   O33
  3949   3948   3947   3968      9     0.00   0.00000   0 ;    C31-   O32-   P31-   O33
  3949   3948   3947   3968      9     0.00   0.00000   0 ;    C31-   O32-   P31-   O33
  3949   3948   3947   3968      9     0.00   0.00000   0 ;    C31-   O32-   P31-   O33
  3949   3948   3947   3968      9     0.00   0.83680   2 ;    C31-   O32-   P31-   O33
  3949   3948   3947   3969      9     0.00   0.00000   0 ;    C31-   O32-   P31-   O34
  3949   3948   3947   3969      9     0.00   0.00000   0 ;    C31-   O32-   P31-   O34
  3949   3948   3947   3969      9     0.00   0.00000   0 ;    C31-   O32-   P31-   O34
  3949   3948   3947   3969      9     0.00   0.00000   0 ;    C31-   O32-   P31-   O34
  3949   3948   3947   3969      9     0.00   0.83680   2 ;    C31-   O32-   P31-   O34
  3949   3952   3955   3956      9     0.00   0.65270   3 ;    C31-   C32-   N31-   C33
  3949   3952   3955   3960      9     0.00   0.65270   3 ;    C31-   C32-   N31-   C34
  3949   3952   3955   3964      9     0.00   0.65270   3 ;    C31-   C32-   N31-   C35
  3950   3949   3952   3953      9     0.00   0.65270   3 ;    H1A-   C31-   C32-   H2A
  3950   3949   3952   3954      9     0.00   0.65270   3 ;    H1A-   C31-   C32-   H2B
  3950   3949   3952   3955      9     0.00   0.65270   3 ;    H1A-   C31-   C32-   N31
  3951   3949   3952   3953      9     0.00   0.65270   3 ;    H1B-   C31-   C32-   H2A
  3951   3949   3952   3954      9     0.00   0.65270   3 ;    H1B-   C31-   C32-   H2B
  3951   3949   3952   3955      9     0.00   0.65270   3 ;    H1B-   C31-   C32-   N31
  3952   3955   3956   3957      9     0.00   0.65270   3 ;    C32-   N31-   C33-   H3A
  3952   3955   3956   3958      9     0.00   0.65270   3 ;    C32-   N31-   C33-   H3B
  3952   3955   3956   3959      9     0.00   0.65270   3 ;    C32-   N31-   C33-   H3C
  3952   3955   3960   3961      9     0.00   0.65270   3 ;    C32-   N31-   C34-   H4A
  3952   3955   3960   3962      9     0.00   0.65270   3 ;    C32-   N31-   C34-   H4B
  3952   3955   3960   3963      9     0.00   0.65270   3 ;    C32-   N31-   C34-   H4C
  3952   3955   3964   3965      9     0.00   0.65270   3 ;    C32-   N31-   C35-   H5A
  3952   3955   3964   3966      9     0.00   0.65270   3 ;    C32-   N31-   C35-   H5B
  3952   3955   3964   3967      9     0.00   0.65270   3 ;    C32-   N31-   C35-   H5C
  3953   3952   3955   3956      9     0.00   0.65270   3 ;    H2A-   C32-   N31-   C33
  3953   3952   3955   3960      9     0.00   0.65270   3 ;    H2A-   C32-   N31-   C34
  3953   3952   3955   3964      9     0.00   0.65270   3 ;    H2A-   C32-   N31-   C35
  3954   3952   3955   3956      9     0.00   0.65270   3 ;    H2B-   C32-   N31-   C33
  3954   3952   3955   3960      9     0.00   0.65270   3 ;    H2B-   C32-   N31-   C34
  3954   3952   3955   3964      9     0.00   0.65270   3 ;    H2B-   C32-   N31-   C35
  3956   3955   3960   3961      9     0.00   0.65270   3 ;    C33-   N31-   C34-   H4A
  3956   3955   3960   3962      9     0.00   0.65270   3 ;    C33-   N31-   C34-   H4B
  3956   3955   3960   3963      9     0.00   0.65270   3 ;    C33-   N31-   C34-   H4C
  3956   3955   3964   3965      9     0.00   0.65270   3 ;    C33-   N31-   C35-   H5A
  3956   3955   3964   3966      9     0.00   0.65270   3 ;    C33-   N31-   C35-   H5B
  3956   3955   3964   3967      9     0.00   0.65270   3 ;    C33-   N31-   C35-   H5C
  3957   3956   3955   3960      9     0.00   0.65270   3 ;    H3A-   C33-   N31-   C34
  3957   3956   3955   3964      9     0.00   0.65270   3 ;    H3A-   C33-   N31-   C35
  3958   3956   3955   3960      9     0.00   0.65270   3 ;    H3B-   C33-   N31-   C34
  3958   3956   3955   3964      9     0.00   0.65270   3 ;    H3B-   C33-   N31-   C35
  3959   3956   3955   3960      9     0.00   0.65270   3 ;    H3C-   C33-   N31-   C34
  3959   3956   3955   3964      9     0.00   0.65270   3 ;    H3C-   C33-   N31-   C35
  3960   3955   3964   3965      9     0.00   0.65270   3 ;    C34-   N31-   C35-   H5A
  3960   3955   3964   3966      9     0.00   0.65270   3 ;    C34-   N31-   C35-   H5B
  3960   3955   3964   3967      9     0.00   0.65270   3 ;    C34-   N31-   C35-   H5C
  3961   3960   3955   3964      9     0.00   0.65270   3 ;    H4A-   C34-   N31-   C35
  3962   3960   3955   3964      9     0.00   0.65270   3 ;    H4B-   C34-   N31-   C35
  3963   3960   3955   3964      9     0.00   0.65270   3 ;    H4C-   C34-   N31-   C35
  3970   3971   4010   4007      9   180.00   0.00000   2 ;    O21-   C21-   C12-   C13
  3970   3971   4010   4011      9   180.00   0.00000   2 ;    O21-   C21-   C12-   H2R
  3970   3971   4010   4012      9   180.00   0.00000   2 ;    O21-   C21-   C12-   H2S
  3971   4010   4007   4004      9     0.00   0.65270   3 ;    C21-   C12-   C13-   C14
  3971   4010   4007   4008      9     0.00   0.65270   3 ;    C21-   C12-   C13-   H3R
  3971   4010   4007   4009      9     0.00   0.65270   3 ;    C21-   C12-   C13-   H3S
  3972   3971   4010   4007      9   180.00   0.00000   2 ;    O22-   C21-   C12-   C13
  3972   3971   4010   4011      9     0.00   3.34720   1 ;    O22-   C21-   C12-   H2R
  3972   3971   4010   4011      9   180.00   0.33472   3 ;    O22-   C21-   C12-   H2R
  3972   3971   4010   4012      9     0.00   3.34720   1 ;    O22-   C21-   C12-   H2S
  3972   3971   4010   4012      9   180.00   0.33472   3 ;    O22-   C21-   C12-   H2S
  3973   3974   3977   3978      9     0.00   0.62760   3 ;   H14T-  C114-  C113-  H13R
  3973   3974   3977   3979      9     0.00   0.62760   3 ;   H14T-  C114-  C113-  H13S
  3973   3974   3977   3980      9     0.00   0.66944   3 ;   H14T-  C114-  C113-  C112
  3974   3977   3980   3981      9     0.00   0.66944   3 ;   C114-  C113-  C112-  H12R
  3974   3977   3980   3982      9     0.00   0.66944   3 ;   C114-  C113-  C112-  H12S
  3974   3977   3980   3983      9     0.00   0.41840   1 ;   C114-  C113-  C112-  C111
  3974   3977   3980   3983      9     0.00   0.41840   2 ;   C114-  C113-  C112-  C111
  3974   3977   3980   3983      9     0.00   0.41840   4 ;   C114-  C113-  C112-  C111
  3974   3977   3980   3983      9     0.00   0.41840   5 ;   C114-  C113-  C112-  C111
  3974   3977   3980   3983      9     0.00   1.25520   3 ;   C114-  C113-  C112-  C111
  3975   3974   3977   3978      9     0.00   0.62760   3 ;   H14R-  C114-  C113-  H13R
  3975   3974   3977   3979      9     0.00   0.62760   3 ;   H14R-  C114-  C113-  H13S
  3975   3974   3977   3980      9     0.00   0.66944   3 ;   H14R-  C114-  C113-  C112
  3976   3974   3977   3978      9     0.00   0.62760   3 ;   H14S-  C114-  C113-  H13R
  3976   3974   3977   3979      9     0.00   0.62760   3 ;   H14S-  C114-  C113-  H13S
  3976   3974   3977   3980      9     0.00   0.66944   3 ;   H14S-  C114-  C113-  C112
  3977   3980   3983   3984      9     0.00   0.66944   3 ;   C113-  C112-  C111-  H11R
  3977   3980   3983   3985      9     0.00   0.66944   3 ;   C113-  C112-  C111-  H11S
  3977   3980   3983   3986      9     0.00   0.41840   1 ;   C113-  C112-  C111-  C110
  3977   3980   3983   3986      9     0.00   0.41840   2 ;   C113-  C112-  C111-  C110
  3977   3980   3983   3986      9     0.00   0.41840   4 ;   C113-  C112-  C111-  C110
  3977   3980   3983   3986      9     0.00   0.41840   5 ;   C113-  C112-  C111-  C110
  3977   3980   3983   3986      9     0.00   1.25520   3 ;   C113-  C112-  C111-  C110
  3978   3977   3980   3981      9     0.00   0.62760   3 ;   H13R-  C113-  C112-  H12R
  3978   3977   3980   3982      9     0.00   0.62760   3 ;   H13R-  C113-  C112-  H12S
  3978   3977   3980   3983      9     0.00   0.66944   3 ;   H13R-  C113-  C112-  C111
  3979   3977   3980   3981      9     0.00   0.62760   3 ;   H13S-  C113-  C112-  H12R
  3979   3977   3980   3982      9     0.00   0.62760   3 ;   H13S-  C113-  C112-  H12S
  3979   3977   3980   3983      9     0.00   0.66944   3 ;   H13S-  C113-  C112-  C111
  3980   3983   3986   3987      9     0.00   0.66944   3 ;   C112-  C111-  C110-  H10R
  3980   3983   3986   3988      9     0.00   0.66944   3 ;   C112-  C111-  C110-  H10S
  3980   3983   3986   3989      9     0.00   0.41840   1 ;   C112-  C111-  C110-   C19
  3980   3983   3986   3989      9     0.00   0.41840   2 ;   C112-  C111-  C110-   C19
  3980   3983   3986   3989      9     0.00   0.41840   4 ;   C112-  C111-  C110-   C19
  3980   3983   3986   3989      9     0.00   0.41840   5 ;   C112-  C111-  C110-   C19
  3980   3983   3986   3989      9     0.00   1.25520   3 ;   C112-  C111-  C110-   C19
  3981   3980   3983   3984      9     0.00   0.62760   3 ;   H12R-  C112-  C111-  H11R
  3981   3980   3983   3985      9     0.00   0.62760   3 ;   H12R-  C112-  C111-  H11S
  3981   3980   3983   3986      9     0.00   0.66944   3 ;   H12R-  C112-  C111-  C110
  3982   3980   3983   3984      9     0.00   0.62760   3 ;   H12S-  C112-  C111-  H11R
  3982   3980   3983   3985      9     0.00   0.62760   3 ;   H12S-  C112-  C111-  H11S
  3982   3980   3983   3986      9     0.00   0.66944   3 ;   H12S-  C112-  C111-  C110
  3983   3986   3989   3990      9     0.00   0.66944   3 ;   C111-  C110-   C19-   H9R
  3983   3986   3989   3991      9     0.00   0.66944   3 ;   C111-  C110-   C19-   H9S
  3983   3986   3989   3992      9     0.00   0.41840   1 ;   C111-  C110-   C19-   C18
  3983   3986   3989   3992      9     0.00   0.41840   2 ;   C111-  C110-   C19-   C18
  3983   3986   3989   3992      9     0.00   0.41840   4 ;   C111-  C110-   C19-   C18
  3983   3986   3989   3992      9     0.00   0.41840   5 ;   C111-  C110-   C19-   C18
  3983   3986   3989   3992      9     0.00   1.25520   3 ;   C111-  C110-   C19-   C18
  3984   3983   3986   3987      9     0.00   0.62760   3 ;   H11R-  C111-  C110-  H10R
  3984   3983   3986   3988      9     0.00   0.62760   3 ;   H11R-  C111-  C110-  H10S
  3984   3983   3986   3989      9     0.00   0.66944   3 ;   H11R-  C111-  C110-   C19
  3985   3983   3986   3987      9     0.00   0.62760   3 ;   H11S-  C111-  C110-  H10R
  3985   3983   3986   3988      9     0.00   0.62760   3 ;   H11S-  C111-  C110-  H10S
  3985   3983   3986   3989      9     0.00   0.66944   3 ;   H11S-  C111-  C110-   C19
  3986   3989   3992   3993      9     0.00   0.66944   3 ;   C110-   C19-   C18-   H8R
  3986   3989   3992   3994      9     0.00   0.66944   3 ;   C110-   C19-   C18-   H8S
  3986   3989   3992   3995      9     0.00   0.41840   1 ;   C110-   C19-   C18-   C17
  3986   3989   3992   3995      9     0.00   0.41840   2 ;   C110-   C19-   C18-   C17
  3986   3989   3992   3995      9     0.00   0.41840   4 ;   C110-   C19-   C18-   C17
  3986   3989   3992   3995      9     0.00   0.41840   5 ;   C110-   C19-   C18-   C17
  3986   3989   3992   3995      9     0.00   1.25520   3 ;   C110-   C19-   C18-   C17
  3987   3986   3989   3990      9     0.00   0.62760   3 ;   H10R-  C110-   C19-   H9R
  3987   3986   3989   3991      9     0.00   0.62760   3 ;   H10R-  C110-   C19-   H9S
  3987   3986   3989   3992      9     0.00   0.66944   3 ;   H10R-  C110-   C19-   C18
  3988   3986   3989   3990      9     0.00   0.62760   3 ;   H10S-  C110-   C19-   H9R
  3988   3986   3989   3991      9     0.00   0.62760   3 ;   H10S-  C110-   C19-   H9S
  3988   3986   3989   3992      9     0.00   0.66944   3 ;   H10S-  C110-   C19-   C18
  3989   3992   3995   3996      9     0.00   0.66944   3 ;    C19-   C18-   C17-   H7R
  3989   3992   3995   3997      9     0.00   0.66944   3 ;    C19-   C18-   C17-   H7S
  3989   3992   3995   3998      9     0.00   0.41840   1 ;    C19-   C18-   C17-   C16
  3989   3992   3995   3998      9     0.00   0.41840   2 ;    C19-   C18-   C17-   C16
  3989   3992   3995   3998      9     0.00   0.41840   4 ;    C19-   C18-   C17-   C16
  3989   3992   3995   3998      9     0.00   0.41840   5 ;    C19-   C18-   C17-   C16
  3989   3992   3995   3998      9     0.00   1.25520   3 ;    C19-   C18-   C17-   C16
  3990   3989   3992   3993      9     0.00   0.62760   3 ;    H9R-   C19-   C18-   H8R
  3990   3989   3992   3994      9     0.00   0.62760   3 ;    H9R-   C19-   C18-   H8S
  3990   3989   3992   3995      9     0.00   0.66944   3 ;    H9R-   C19-   C18-   C17
  3991   3989   3992   3993      9     0.00   0.62760   3 ;    H9S-   C19-   C18-   H8R
  3991   3989   3992   3994      9     0.00   0.62760   3 ;    H9S-   C19-   C18-   H8S
  3991   3989   3992   3995      9     0.00   0.66944   3 ;    H9S-   C19-   C18-   C17
  3992   3995   3998   3999      9     0.00   0.66944   3 ;    C18-   C17-   C16-   H6R
  3992   3995   3998   4000      9     0.00   0.66944   3 ;    C18-   C17-   C16-   H6S
  3992   3995   3998   4001      9     0.00   0.41840   1 ;    C18-   C17-   C16-   C15
  3992   3995   3998   4001      9     0.00   0.41840   2 ;    C18-   C17-   C16-   C15
  3992   3995   3998   4001      9     0.00   0.41840   4 ;    C18-   C17-   C16-   C15
  3992   3995   3998   4001      9     0.00   0.41840   5 ;    C18-   C17-   C16-   C15
  3992   3995   3998   4001      9     0.00   1.25520   3 ;    C18-   C17-   C16-   C15
  3993   3992   3995   3996      9     0.00   0.62760   3 ;    H8R-   C18-   C17-   H7R
  3993   3992   3995   3997      9     0.00   0.62760   3 ;    H8R-   C18-   C17-   H7S
  3993   3992   3995   3998      9     0.00   0.66944   3 ;    H8R-   C18-   C17-   C16
  3994   3992   3995   3996      9     0.00   0.62760   3 ;    H8S-   C18-   C17-   H7R
  3994   3992   3995   3997      9     0.00   0.62760   3 ;    H8S-   C18-   C17-   H7S
  3994   3992   3995   3998      9     0.00   0.66944   3 ;    H8S-   C18-   C17-   C16
  3995   3998   4001   4002      9     0.00   0.66944   3 ;    C17-   C16-   C15-   H5R
  3995   3998   4001   4003      9     0.00   0.66944   3 ;    C17-   C16-   C15-   H5S
  3995   3998   4001   4004      9     0.00   0.41840   1 ;    C17-   C16-   C15-   C14
  3995   3998   4001   4004      9     0.00   0.41840   2 ;    C17-   C16-   C15-   C14
  3995   3998   4001   4004      9     0.00   0.41840   4 ;    C17-   C16-   C15-   C14
  3995   3998   4001   4004      9     0.00   0.41840   5 ;    C17-   C16-   C15-   C14
  3995   3998   4001   4004      9     0.00   1.25520   3 ;    C17-   C16-   C15-   C14
  3996   3995   3998   3999      9     0.00   0.62760   3 ;    H7R-   C17-   C16-   H6R
  3996   3995   3998   4000      9     0.00   0.62760   3 ;    H7R-   C17-   C16-   H6S
  3996   3995   3998   4001      9     0.00   0.66944   3 ;    H7R-   C17-   C16-   C15
  3997   3995   3998   3999      9     0.00   0.62760   3 ;    H7S-   C17-   C16-   H6R
  3997   3995   3998   4000      9     0.00   0.62760   3 ;    H7S-   C17-   C16-   H6S
  3997   3995   3998   4001      9     0.00   0.66944   3 ;    H7S-   C17-   C16-   C15
  3998   4001   4004   4005      9     0.00   0.66944   3 ;    C16-   C15-   C14-   H4R
  3998   4001   4004   4006      9     0.00   0.66944   3 ;    C16-   C15-   C14-   H4S
  3998   4001   4004   4007      9     0.00   0.41840   1 ;    C16-   C15-   C14-   C13
  3998   4001   4004   4007      9     0.00   0.41840   2 ;    C16-   C15-   C14-   C13
  3998   4001   4004   4007      9     0.00   0.41840   4 ;    C16-   C15-   C14-   C13
  3998   4001   4004   4007      9     0.00   0.41840   5 ;    C16-   C15-   C14-   C13
  3998   4001   4004   4007      9     0.00   1.25520   3 ;    C16-   C15-   C14-   C13
  3999   3998   4001   4002      9     0.00   0.62760   3 ;    H6R-   C16-   C15-   H5R
  3999   3998   4001   4003      9     0.00   0.62760   3 ;    H6R-   C16-   C15-   H5S
  3999   3998   4001   4004      9     0.00   0.66944   3 ;    H6R-   C16-   C15-   C14
  4000   3998   4001   4002      9     0.00   0.62760   3 ;    H6S-   C16-   C15-   H5R
  4000   3998   4001   4003      9     0.00   0.62760   3 ;    H6S-   C16-   C15-   H5S
  4000   3998   4001   4004      9     0.00   0.66944   3 ;    H6S-   C16-   C15-   C14
  4001   4004   4007   4008      9     0.00   0.66944   3 ;    C15-   C14-   C13-   H3R
  4001   4004   4007   4009      9     0.00   0.66944   3 ;    C15-   C14-   C13-   H3S
  4001   4004   4007   4010      9     0.00   0.41840   1 ;    C15-   C14-   C13-   C12
  4001   4004   4007   4010      9     0.00   0.41840   2 ;    C15-   C14-   C13-   C12
  4001   4004   4007   4010      9     0.00   0.41840   4 ;    C15-   C14-   C13-   C12
  4001   4004   4007   4010      9     0.00   0.41840   5 ;    C15-   C14-   C13-   C12
  4001   4004   4007   4010      9     0.00   1.25520   3 ;    C15-   C14-   C13-   C12
  4002   4001   4004   4005      9     0.00   0.62760   3 ;    H5R-   C15-   C14-   H4R
  4002   4001   4004   4006      9     0.00   0.62760   3 ;    H5R-   C15-   C14-   H4S
  4002   4001   4004   4007      9     0.00   0.66944   3 ;    H5R-   C15-   C14-   C13
  4003   4001   4004   4005      9     0.00   0.62760   3 ;    H5S-   C15-   C14-   H4R
  4003   4001   4004   4006      9     0.00   0.62760   3 ;    H5S-   C15-   C14-   H4S
  4003   4001   4004   4007      9     0.00   0.66944   3 ;    H5S-   C15-   C14-   C13
  4004   4007   4010   4011      9     0.00   0.66944   3 ;    C14-   C13-   C12-   H2R
  4004   4007   4010   4012      9     0.00   0.66944   3 ;    C14-   C13-   C12-   H2S
  4005   4004   4007   4008      9     0.00   0.62760   3 ;    H4R-   C14-   C13-   H3R
  4005   4004   4007   4009      9     0.00   0.62760   3 ;    H4R-   C14-   C13-   H3S
  4005   4004   4007   4010      9     0.00   0.66944   3 ;    H4R-   C14-   C13-   C12
  4006   4004   4007   4008      9     0.00   0.62760   3 ;    H4S-   C14-   C13-   H3R
  4006   4004   4007   4009      9     0.00   0.62760   3 ;    H4S-   C14-   C13-   H3S
  4006   4004   4007   4010      9     0.00   0.66944   3 ;    H4S-   C14-   C13-   C12
  4008   4007   4010   4011      9     0.00   0.62760   3 ;    H3R-   C13-   C12-   H2R
  4008   4007   4010   4012      9     0.00   0.62760   3 ;    H3R-   C13-   C12-   H2S
  4009   4007   4010   4011      9     0.00   0.62760   3 ;    H3S-   C13-   C12-   H2R
  4009   4007   4010   4012      9     0.00   0.62760   3 ;    H3S-   C13-   C12-   H2S
  4013   4014   4017   4018      9     0.00   0.62760   3 ;   H14T-  C114-  C113-  H13R
  4013   4014   4017   4019      9     0.00   0.62760   3 ;   H14T-  C114-  C113-  H13S
  4013   4014   4017   4020      9     0.00   0.66944   3 ;   H14T-  C114-  C113-  C112
  4014   4017   4020   4021      9     0.00   0.66944   3 ;   C114-  C113-  C112-  H12R
  4014   4017   4020   4022      9     0.00   0.66944   3 ;   C114-  C113-  C112-  H12S
  4014   4017   4020   4023      9     0.00   0.41840   1 ;   C114-  C113-  C112-  C111
  4014   4017   4020   4023      9     0.00   0.41840   2 ;   C114-  C113-  C112-  C111
  4014   4017   4020   4023      9     0.00   0.41840   4 ;   C114-  C113-  C112-  C111
  4014   4017   4020   4023      9     0.00   0.41840   5 ;   C114-  C113-  C112-  C111
  4014   4017   4020   4023      9     0.00   1.25520   3 ;   C114-  C113-  C112-  C111
  4015   4014   4017   4018      9     0.00   0.62760   3 ;   H14R-  C114-  C113-  H13R
  4015   4014   4017   4019      9     0.00   0.62760   3 ;   H14R-  C114-  C113-  H13S
  4015   4014   4017   4020      9     0.00   0.66944   3 ;   H14R-  C114-  C113-  C112
  4016   4014   4017   4018      9     0.00   0.62760   3 ;   H14S-  C114-  C113-  H13R
  4016   4014   4017   4019      9     0.00   0.62760   3 ;   H14S-  C114-  C113-  H13S
  4016   4014   4017   4020      9     0.00   0.66944   3 ;   H14S-  C114-  C113-  C112
  4017   4020   4023   4024      9     0.00   0.66944   3 ;   C113-  C112-  C111-  H11R
  4017   4020   4023   4025      9     0.00   0.66944   3 ;   C113-  C112-  C111-  H11S
  4017   4020   4023   4026      9     0.00   0.41840   1 ;   C113-  C112-  C111-  C110
  4017   4020   4023   4026      9     0.00   0.41840   2 ;   C113-  C112-  C111-  C110
  4017   4020   4023   4026      9     0.00   0.41840   4 ;   C113-  C112-  C111-  C110
  4017   4020   4023   4026      9     0.00   0.41840   5 ;   C113-  C112-  C111-  C110
  4017   4020   4023   4026      9     0.00   1.25520   3 ;   C113-  C112-  C111-  C110
  4018   4017   4020   4021      9     0.00   0.62760   3 ;   H13R-  C113-  C112-  H12R
  4018   4017   4020   4022      9     0.00   0.62760   3 ;   H13R-  C113-  C112-  H12S
  4018   4017   4020   4023      9     0.00   0.66944   3 ;   H13R-  C113-  C112-  C111
  4019   4017   4020   4021      9     0.00   0.62760   3 ;   H13S-  C113-  C112-  H12R
  4019   4017   4020   4022      9     0.00   0.62760   3 ;   H13S-  C113-  C112-  H12S
  4019   4017   4020   4023      9     0.00   0.66944   3 ;   H13S-  C113-  C112-  C111
  4020   4023   4026   4027      9     0.00   0.66944   3 ;   C112-  C111-  C110-  H10R
  4020   4023   4026   4028      9     0.00   0.66944   3 ;   C112-  C111-  C110-  H10S
  4020   4023   4026   4029      9     0.00   0.41840   1 ;   C112-  C111-  C110-   C19
  4020   4023   4026   4029      9     0.00   0.41840   2 ;   C112-  C111-  C110-   C19
  4020   4023   4026   4029      9     0.00   0.41840   4 ;   C112-  C111-  C110-   C19
  4020   4023   4026   4029      9     0.00   0.41840   5 ;   C112-  C111-  C110-   C19
  4020   4023   4026   4029      9     0.00   1.25520   3 ;   C112-  C111-  C110-   C19
  4021   4020   4023   4024      9     0.00   0.62760   3 ;   H12R-  C112-  C111-  H11R
  4021   4020   4023   4025      9     0.00   0.62760   3 ;   H12R-  C112-  C111-  H11S
  4021   4020   4023   4026      9     0.00   0.66944   3 ;   H12R-  C112-  C111-  C110
  4022   4020   4023   4024      9     0.00   0.62760   3 ;   H12S-  C112-  C111-  H11R
  4022   4020   4023   4025      9     0.00   0.62760   3 ;   H12S-  C112-  C111-  H11S
  4022   4020   4023   4026      9     0.00   0.66944   3 ;   H12S-  C112-  C111-  C110
  4023   4026   4029   4030      9     0.00   0.66944   3 ;   C111-  C110-   C19-   H9R
  4023   4026   4029   4031      9     0.00   0.66944   3 ;   C111-  C110-   C19-   H9S
  4023   4026   4029   4032      9     0.00   0.41840   1 ;   C111-  C110-   C19-   C18
  4023   4026   4029   4032      9     0.00   0.41840   2 ;   C111-  C110-   C19-   C18
  4023   4026   4029   4032      9     0.00   0.41840   4 ;   C111-  C110-   C19-   C18
  4023   4026   4029   4032      9     0.00   0.41840   5 ;   C111-  C110-   C19-   C18
  4023   4026   4029   4032      9     0.00   1.25520   3 ;   C111-  C110-   C19-   C18
  4024   4023   4026   4027      9     0.00   0.62760   3 ;   H11R-  C111-  C110-  H10R
  4024   4023   4026   4028      9     0.00   0.62760   3 ;   H11R-  C111-  C110-  H10S
  4024   4023   4026   4029      9     0.00   0.66944   3 ;   H11R-  C111-  C110-   C19
  4025   4023   4026   4027      9     0.00   0.62760   3 ;   H11S-  C111-  C110-  H10R
  4025   4023   4026   4028      9     0.00   0.62760   3 ;   H11S-  C111-  C110-  H10S
  4025   4023   4026   4029      9     0.00   0.66944   3 ;   H11S-  C111-  C110-   C19
  4026   4029   4032   4033      9     0.00   0.66944   3 ;   C110-   C19-   C18-   H8R
  4026   4029   4032   4034      9     0.00   0.66944   3 ;   C110-   C19-   C18-   H8S
  4026   4029   4032   4035      9     0.00   0.41840   1 ;   C110-   C19-   C18-   C17
  4026   4029   4032   4035      9     0.00   0.41840   2 ;   C110-   C19-   C18-   C17
  4026   4029   4032   4035      9     0.00   0.41840   4 ;   C110-   C19-   C18-   C17
  4026   4029   4032   4035      9     0.00   0.41840   5 ;   C110-   C19-   C18-   C17
  4026   4029   4032   4035      9     0.00   1.25520   3 ;   C110-   C19-   C18-   C17
  4027   4026   4029   4030      9     0.00   0.62760   3 ;   H10R-  C110-   C19-   H9R
  4027   4026   4029   4031      9     0.00   0.62760   3 ;   H10R-  C110-   C19-   H9S
  4027   4026   4029   4032      9     0.00   0.66944   3 ;   H10R-  C110-   C19-   C18
  4028   4026   4029   4030      9     0.00   0.62760   3 ;   H10S-  C110-   C19-   H9R
  4028   4026   4029   4031      9     0.00   0.62760   3 ;   H10S-  C110-   C19-   H9S
  4028   4026   4029   4032      9     0.00   0.66944   3 ;   H10S-  C110-   C19-   C18
  4029   4032   4035   4036      9     0.00   0.66944   3 ;    C19-   C18-   C17-   H7R
  4029   4032   4035   4037      9     0.00   0.66944   3 ;    C19-   C18-   C17-   H7S
  4029   4032   4035   4038      9     0.00   0.41840   1 ;    C19-   C18-   C17-   C16
  4029   4032   4035   4038      9     0.00   0.41840   2 ;    C19-   C18-   C17-   C16
  4029   4032   4035   4038      9     0.00   0.41840   4 ;    C19-   C18-   C17-   C16
  4029   4032   4035   4038      9     0.00   0.41840   5 ;    C19-   C18-   C17-   C16
  4029   4032   4035   4038      9     0.00   1.25520   3 ;    C19-   C18-   C17-   C16
  4030   4029   4032   4033      9     0.00   0.62760   3 ;    H9R-   C19-   C18-   H8R
  4030   4029   4032   4034      9     0.00   0.62760   3 ;    H9R-   C19-   C18-   H8S
  4030   4029   4032   4035      9     0.00   0.66944   3 ;    H9R-   C19-   C18-   C17
  4031   4029   4032   4033      9     0.00   0.62760   3 ;    H9S-   C19-   C18-   H8R
  4031   4029   4032   4034      9     0.00   0.62760   3 ;    H9S-   C19-   C18-   H8S
  4031   4029   4032   4035      9     0.00   0.66944   3 ;    H9S-   C19-   C18-   C17
  4032   4035   4038   4039      9     0.00   0.66944   3 ;    C18-   C17-   C16-   H6R
  4032   4035   4038   4040      9     0.00   0.66944   3 ;    C18-   C17-   C16-   H6S
  4032   4035   4038   4041      9     0.00   0.41840   1 ;    C18-   C17-   C16-   C15
  4032   4035   4038   4041      9     0.00   0.41840   2 ;    C18-   C17-   C16-   C15
  4032   4035   4038   4041      9     0.00   0.41840   4 ;    C18-   C17-   C16-   C15
  4032   4035   4038   4041      9     0.00   0.41840   5 ;    C18-   C17-   C16-   C15
  4032   4035   4038   4041      9     0.00   1.25520   3 ;    C18-   C17-   C16-   C15
  4033   4032   4035   4036      9     0.00   0.62760   3 ;    H8R-   C18-   C17-   H7R
  4033   4032   4035   4037      9     0.00   0.62760   3 ;    H8R-   C18-   C17-   H7S
  4033   4032   4035   4038      9     0.00   0.66944   3 ;    H8R-   C18-   C17-   C16
  4034   4032   4035   4036      9     0.00   0.62760   3 ;    H8S-   C18-   C17-   H7R
  4034   4032   4035   4037      9     0.00   0.62760   3 ;    H8S-   C18-   C17-   H7S
  4034   4032   4035   4038      9     0.00   0.66944   3 ;    H8S-   C18-   C17-   C16
  4035   4038   4041   4042      9     0.00   0.66944   3 ;    C17-   C16-   C15-   H5R
  4035   4038   4041   4043      9     0.00   0.66944   3 ;    C17-   C16-   C15-   H5S
  4035   4038   4041   4044      9     0.00   0.41840   1 ;    C17-   C16-   C15-   C14
  4035   4038   4041   4044      9     0.00   0.41840   2 ;    C17-   C16-   C15-   C14
  4035   4038   4041   4044      9     0.00   0.41840   4 ;    C17-   C16-   C15-   C14
  4035   4038   4041   4044      9     0.00   0.41840   5 ;    C17-   C16-   C15-   C14
  4035   4038   4041   4044      9     0.00   1.25520   3 ;    C17-   C16-   C15-   C14
  4036   4035   4038   4039      9     0.00   0.62760   3 ;    H7R-   C17-   C16-   H6R
  4036   4035   4038   4040      9     0.00   0.62760   3 ;    H7R-   C17-   C16-   H6S
  4036   4035   4038   4041      9     0.00   0.66944   3 ;    H7R-   C17-   C16-   C15
  4037   4035   4038   4039      9     0.00   0.62760   3 ;    H7S-   C17-   C16-   H6R
  4037   4035   4038   4040      9     0.00   0.62760   3 ;    H7S-   C17-   C16-   H6S
  4037   4035   4038   4041      9     0.00   0.66944   3 ;    H7S-   C17-   C16-   C15
  4038   4041   4044   4045      9     0.00   0.66944   3 ;    C16-   C15-   C14-   H4R
  4038   4041   4044   4046      9     0.00   0.66944   3 ;    C16-   C15-   C14-   H4S
  4038   4041   4044   4047      9     0.00   0.41840   1 ;    C16-   C15-   C14-   C13
  4038   4041   4044   4047      9     0.00   0.41840   2 ;    C16-   C15-   C14-   C13
  4038   4041   4044   4047      9     0.00   0.41840   4 ;    C16-   C15-   C14-   C13
  4038   4041   4044   4047      9     0.00   0.41840   5 ;    C16-   C15-   C14-   C13
  4038   4041   4044   4047      9     0.00   1.25520   3 ;    C16-   C15-   C14-   C13
  4039   4038   4041   4042      9     0.00   0.62760   3 ;    H6R-   C16-   C15-   H5R
  4039   4038   4041   4043      9     0.00   0.62760   3 ;    H6R-   C16-   C15-   H5S
  4039   4038   4041   4044      9     0.00   0.66944   3 ;    H6R-   C16-   C15-   C14
  4040   4038   4041   4042      9     0.00   0.62760   3 ;    H6S-   C16-   C15-   H5R
  4040   4038   4041   4043      9     0.00   0.62760   3 ;    H6S-   C16-   C15-   H5S
  4040   4038   4041   4044      9     0.00   0.66944   3 ;    H6S-   C16-   C15-   C14
  4041   4044   4047   4048      9     0.00   0.66944   3 ;    C15-   C14-   C13-   H3R
  4041   4044   4047   4049      9     0.00   0.66944   3 ;    C15-   C14-   C13-   H3S
  4041   4044   4047   4050      9     0.00   0.41840   1 ;    C15-   C14-   C13-   C12
  4041   4044   4047   4050      9     0.00   0.41840   2 ;    C15-   C14-   C13-   C12
  4041   4044   4047   4050      9     0.00   0.41840   4 ;    C15-   C14-   C13-   C12
  4041   4044   4047   4050      9     0.00   0.41840   5 ;    C15-   C14-   C13-   C12
  4041   4044   4047   4050      9     0.00   1.25520   3 ;    C15-   C14-   C13-   C12
  4042   4041   4044   4045      9     0.00   0.62760   3 ;    H5R-   C15-   C14-   H4R
  4042   4041   4044   4046      9     0.00   0.62760   3 ;    H5R-   C15-   C14-   H4S
  4042   4041   4044   4047      9     0.00   0.66944   3 ;    H5R-   C15-   C14-   C13
  4043   4041   4044   4045      9     0.00   0.62760   3 ;    H5S-   C15-   C14-   H4R
  4043   4041   4044   4046      9     0.00   0.62760   3 ;    H5S-   C15-   C14-   H4S
  4043   4041   4044   4047      9     0.00   0.66944   3 ;    H5S-   C15-   C14-   C13
  4044   4047   4050   4051      9     0.00   0.66944   3 ;    C14-   C13-   C12-   H2R
  4044   4047   4050   4052      9     0.00   0.66944   3 ;    C14-   C13-   C12-   H2S
  4044   4047   4050   4053      9     0.00   0.65270   3 ;    C14-   C13-   C12-   C11
  4045   4044   4047   4048      9     0.00   0.62760   3 ;    H4R-   C14-   C13-   H3R
  4045   4044   4047   4049      9     0.00   0.62760   3 ;    H4R-   C14-   C13-   H3S
  4045   4044   4047   4050      9     0.00   0.66944   3 ;    H4R-   C14-   C13-   C12
  4046   4044   4047   4048      9     0.00   0.62760   3 ;    H4S-   C14-   C13-   H3R
  4046   4044   4047   4049      9     0.00   0.62760   3 ;    H4S-   C14-   C13-   H3S
  4046   4044   4047   4050      9     0.00   0.66944   3 ;    H4S-   C14-   C13-   C12
  4047   4050   4053   4054      9   180.00   0.00000   2 ;    C13-   C12-   C11-   O12
  4047   4050   4053   4055      9   180.00   0.00000   2 ;    C13-   C12-   C11-   O11
  4048   4047   4050   4051      9     0.00   0.62760   3 ;    H3R-   C13-   C12-   H2R
  4048   4047   4050   4052      9     0.00   0.62760   3 ;    H3R-   C13-   C12-   H2S
  4048   4047   4050   4053      9     0.00   0.65270   3 ;    H3R-   C13-   C12-   C11
  4049   4047   4050   4051      9     0.00   0.62760   3 ;    H3S-   C13-   C12-   H2R
  4049   4047   4050   4052      9     0.00   0.62760   3 ;    H3S-   C13-   C12-   H2S
  4049   4047   4050   4053      9     0.00   0.65270   3 ;    H3S-   C13-   C12-   C11
  4050   4053   4055   4056      9   180.00  11.29680   2 ;    C12-   C11-   O11-    C1
  4051   4050   4053   4054      9     0.00   3.34720   1 ;    H2R-   C12-   C11-   O12
  4051   4050   4053   4054      9   180.00   0.33472   3 ;    H2R-   C12-   C11-   O12
  4051   4050   4053   4055      9   180.00   0.00000   2 ;    H2R-   C12-   C11-   O11
  4052   4050   4053   4054      9     0.00   3.34720   1 ;    H2S-   C12-   C11-   O12
  4052   4050   4053   4054      9   180.00   0.33472   3 ;    H2S-   C12-   C11-   O12
  4052   4050   4053   4055      9   180.00   0.00000   2 ;    H2S-   C12-   C11-   O11
  4053   4055   4056   4057      9     0.00   1.60247   3 ;    C11-   O11-    C1-    HR
  4053   4055   4056   4058      9     0.00   1.60247   3 ;    C11-   O11-    C1-    HS
  4053   4055   4056   4059      9     0.00  -0.41840   1 ;    C11-   O11-    C1-    C2
  4054   4053   4055   4056      9   180.00   5.85760   1 ;    O12-   C11-   O11-    C1
  4054   4053   4055   4056      9   180.00  11.29680   2 ;    O12-   C11-   O11-    C1
  4055   4056   4059   4060      9     0.00   0.00000   0 ;    O11-    C1-    C2-    HX
  4055   4056   4059   4060      9     0.00   1.04600   1 ;    O11-    C1-    C2-    HX
  4055   4056   4059   4061      9     0.00   0.00000   0 ;    O11-    C1-    C2-    C3
  4055   4056   4059   4061      9     0.00   0.00000   0 ;    O11-    C1-    C2-    C3
  4055   4056   4059   4061      9     0.00   0.00000   0 ;    O11-    C1-    C2-    C3
  4055   4056   4059   4061      9     0.00   0.00000   0 ;    O11-    C1-    C2-    C3
  4055   4056   4059   4061      9     0.00   0.00000   0 ;    O11-    C1-    C2-    C3
  4055   4056   4059   4088      9     0.00   1.25520   2 ;    O11-    C1-    C2-   O21
  4055   4056   4059   4088      9     0.00   4.18400   3 ;    O11-    C1-    C2-   O21
  4055   4056   4059   4088      9   180.00  -0.41840   1 ;    O11-    C1-    C2-   O21
  4056   4059   4061   4062      9     0.00   0.65270   3 ;     C1-    C2-    C3-    HA
  4056   4059   4061   4063      9     0.00   0.65270   3 ;     C1-    C2-    C3-    HB
  4056   4059   4061   4064      9   180.00   3.34720   1 ;     C1-    C2-    C3-   O31
  4056   4059   4088   4089      9     0.00  -0.41840   1 ;     C1-    C2-   O21-   C21
  4057   4056   4059   4060      9     0.00   0.65270   3 ;     HR-    C1-    C2-    HX
  4057   4056   4059   4061      9     0.00   0.65270   3 ;     HR-    C1-    C2-    C3
  4057   4056   4059   4088      9     0.00   0.00000   0 ;     HR-    C1-    C2-   O21
  4057   4056   4059   4088      9     0.00   1.04600   1 ;     HR-    C1-    C2-   O21
  4058   4056   4059   4060      9     0.00   0.65270   3 ;     HS-    C1-    C2-    HX
  4058   4056   4059   4061      9     0.00   0.65270   3 ;     HS-    C1-    C2-    C3
  4058   4056   4059   4088      9     0.00   0.00000   0 ;     HS-    C1-    C2-   O21
  4058   4056   4059   4088      9     0.00   1.04600   1 ;     HS-    C1-    C2-   O21
  4059   4061   4064   4065      9     0.00   0.00000   0 ;     C2-    C3-   O31-   P31
  4059   4061   4064   4065      9   180.00  -3.34720   2 ;     C2-    C3-   O31-   P31
  4059   4088   4089   4090      9   180.00   5.85760   1 ;     C2-   O21-   C21-   O22
  4059   4088   4089   4090      9   180.00  11.29680   2 ;     C2-   O21-   C21-   O22
  4059   4088   4089   4128      9   180.00  11.29680   2 ;     C2-   O21-   C21-   C12
  4060   4059   4061   4062      9     0.00   0.65270   3 ;     HX-    C2-    C3-    HA
  4060   4059   4061   4063      9     0.00   0.65270   3 ;     HX-    C2-    C3-    HB
  4060   4059   4061   4064      9     0.00   0.00000   0 ;     HX-    C2-    C3-   O31
  4060   4059   4061   4064      9     0.00   1.04600   1 ;     HX-    C2-    C3-   O31
  4060   4059   4088   4089      9     0.00   1.60247   3 ;     HX-    C2-   O21-   C21
  4061   4059   4088   4089      9     0.00  -0.41840   1 ;     C3-    C2-   O21-   C21
  4061   4064   4065   4066      9     0.00   2.51040   3 ;     C3-   O31-   P31-   O32
  4061   4064   4065   4066      9     0.00   9.62320   2 ;     C3-   O31-   P31-   O32
  4061   4064   4065   4086      9     0.00   0.00000   0 ;     C3-   O31-   P31-   O33
  4061   4064   4065   4086      9     0.00   0.00000   0 ;     C3-   O31-   P31-   O33
  4061   4064   4065   4086      9     0.00   0.00000   0 ;     C3-   O31-   P31-   O33
  4061   4064   4065   4086      9     0.00   0.00000   0 ;     C3-   O31-   P31-   O33
  4061   4064   4065   4086      9     0.00   0.83680   2 ;     C3-   O31-   P31-   O33
  4061   4064   4065   4087      9     0.00   0.00000   0 ;     C3-   O31-   P31-   O34
  4061   4064   4065   4087      9     0.00   0.00000   0 ;     C3-   O31-   P31-   O34
  4061   4064   4065   4087      9     0.00   0.00000   0 ;     C3-   O31-   P31-   O34
  4061   4064   4065   4087      9     0.00   0.00000   0 ;     C3-   O31-   P31-   O34
  4061   4064   4065   4087      9     0.00   0.83680   2 ;     C3-   O31-   P31-   O34
  4062   4061   4059   4088      9     0.00   0.00000   0 ;     HA-    C3-    C2-   O21
  4062   4061   4059   4088      9     0.00   1.04600   1 ;     HA-    C3-    C2-   O21
  4062   4061   4064   4065      9     0.00   0.00000   0 ;     HA-    C3-   O31-   P31
  4062   4061   4064   4065      9     0.00   0.00000   0 ;     HA-    C3-   O31-   P31
  4062   4061   4064   4065      9     0.00   0.00000   0 ;     HA-    C3-   O31-   P31
  4062   4061   4064   4065      9     0.00   0.00000   0 ;     HA-    C3-   O31-   P31
  4062   4061   4064   4065      9     0.00   1.60247   3 ;     HA-    C3-   O31-   P31
  4063   4061   4059   4088      9     0.00   0.00000   0 ;     HB-    C3-    C2-   O21
  4063   4061   4059   4088      9     0.00   1.04600   1 ;     HB-    C3-    C2-   O21
  4063   4061   4064   4065      9     0.00   0.00000   0 ;     HB-    C3-   O31-   P31
  4063   4061   4064   4065      9     0.00   0.00000   0 ;     HB-    C3-   O31-   P31
  4063   4061   4064   4065      9     0.00   0.00000   0 ;     HB-    C3-   O31-   P31
  4063   4061   4064   4065      9     0.00   0.00000   0 ;     HB-    C3-   O31-   P31
  4063   4061   4064   4065      9     0.00   1.60247   3 ;     HB-    C3-   O31-   P31
  4064   4061   4059   4088      9     0.00   0.00000   0 ;    O31-    C3-    C2-   O21
  4064   4061   4059   4088      9     0.00   0.00000   0 ;    O31-    C3-    C2-   O21
  4064   4061   4059   4088      9     0.00   0.00000   0 ;    O31-    C3-    C2-   O21
  4064   4061   4059   4088      9     0.00   0.00000   0 ;    O31-    C3-    C2-   O21
  4064   4061   4059   4088      9     0.00   0.00000   0 ;    O31-    C3-    C2-   O21
  4064   4065   4066   4067      9     0.00   2.51040   3 ;    O31-   P31-   O32-   C31
  4064   4065   4066   4067      9     0.00   9.62320   2 ;    O31-   P31-   O32-   C31
  4065   4066   4067   4068      9     0.00   0.00000   0 ;    P31-   O32-   C31-   H1A
  4065   4066   4067   4068      9     0.00   0.00000   0 ;    P31-   O32-   C31-   H1A
  4065   4066   4067   4068      9     0.00   0.00000   0 ;    P31-   O32-   C31-   H1A
  4065   4066   4067   4068      9     0.00   0.00000   0 ;    P31-   O32-   C31-   H1A
  4065   4066   4067   4068      9     0.00   1.60247   3 ;    P31-   O32-   C31-   H1A
  4065   4066   4067   4069      9     0.00   0.00000   0 ;    P31-   O32-   C31-   H1B
  4065   4066   4067   4069      9     0.00   0.00000   0 ;    P31-   O32-   C31-   H1B
  4065   4066   4067   4069      9     0.00   0.00000   0 ;    P31-   O32-   C31-   H1B
  4065   4066   4067   4069      9     0.00   0.00000   0 ;    P31-   O32-   C31-   H1B
  4065   4066   4067   4069      9     0.00   1.60247   3 ;    P31-   O32-   C31-   H1B
  4065   4066   4067   4070      9     0.00   0.00000   0 ;    P31-   O32-   C31-   C32
  4065   4066   4067   4070      9   180.00  -3.34720   2 ;    P31-   O32-   C31-   C32
  4066   4067   4070   4071      9     0.00   0.65270   3 ;    O32-   C31-   C32-   H2A
  4066   4067   4070   4072      9     0.00   0.65270   3 ;    O32-   C31-   C32-   H2B
  4066   4067   4070   4073      9     0.00   4.18400   3 ;    O32-   C31-   C32-   N31
  4067   4066   4065   4086      9     0.00   0.00000   0 ;    C31-   O32-   P31-   O33
  4067   4066   4065   4086      9     0.00   0.00000   0 ;    C31-   O32-   P31-   O33
  4067   4066   4065   4086      9     0.00   0.00000   0 ;    C31-   O32-   P31-   O33
  4067   4066   4065   4086      9     0.00   0.00000   0 ;    C31-   O32-   P31-   O33
  4067   4066   4065   4086      9     0.00   0.83680   2 ;    C31-   O32-   P31-   O33
  4067   4066   4065   4087      9     0.00   0.00000   0 ;    C31-   O32-   P31-   O34
  4067   4066   4065   4087      9     0.00   0.00000   0 ;    C31-   O32-   P31-   O34
  4067   4066   4065   4087      9     0.00   0.00000   0 ;    C31-   O32-   P31-   O34
  4067   4066   4065   4087      9     0.00   0.00000   0 ;    C31-   O32-   P31-   O34
  4067   4066   4065   4087      9     0.00   0.83680   2 ;    C31-   O32-   P31-   O34
  4067   4070   4073   4074      9     0.00   0.65270   3 ;    C31-   C32-   N31-   C33
  4067   4070   4073   4078      9     0.00   0.65270   3 ;    C31-   C32-   N31-   C34
  4067   4070   4073   4082      9     0.00   0.65270   3 ;    C31-   C32-   N31-   C35
  4068   4067   4070   4071      9     0.00   0.65270   3 ;    H1A-   C31-   C32-   H2A
  4068   4067   4070   4072      9     0.00   0.65270   3 ;    H1A-   C31-   C32-   H2B
  4068   4067   4070   4073      9     0.00   0.65270   3 ;    H1A-   C31-   C32-   N31
  4069   4067   4070   4071      9     0.00   0.65270   3 ;    H1B-   C31-   C32-   H2A
  4069   4067   4070   4072      9     0.00   0.65270   3 ;    H1B-   C31-   C32-   H2B
  4069   4067   4070   4073      9     0.00   0.65270   3 ;    H1B-   C31-   C32-   N31
  4070   4073   4074   4075      9     0.00   0.65270   3 ;    C32-   N31-   C33-   H3A
  4070   4073   4074   4076      9     0.00   0.65270   3 ;    C32-   N31-   C33-   H3B
  4070   4073   4074   4077      9     0.00   0.65270   3 ;    C32-   N31-   C33-   H3C
  4070   4073   4078   4079      9     0.00   0.65270   3 ;    C32-   N31-   C34-   H4A
  4070   4073   4078   4080      9     0.00   0.65270   3 ;    C32-   N31-   C34-   H4B
  4070   4073   4078   4081      9     0.00   0.65270   3 ;    C32-   N31-   C34-   H4C
  4070   4073   4082   4083      9     0.00   0.65270   3 ;    C32-   N31-   C35-   H5A
  4070   4073   4082   4084      9     0.00   0.65270   3 ;    C32-   N31-   C35-   H5B
  4070   4073   4082   4085      9     0.00   0.65270   3 ;    C32-   N31-   C35-   H5C
  4071   4070   4073   4074      9     0.00   0.65270   3 ;    H2A-   C32-   N31-   C33
  4071   4070   4073   4078      9     0.00   0.65270   3 ;    H2A-   C32-   N31-   C34
  4071   4070   4073   4082      9     0.00   0.65270   3 ;    H2A-   C32-   N31-   C35
  4072   4070   4073   4074      9     0.00   0.65270   3 ;    H2B-   C32-   N31-   C33
  4072   4070   4073   4078      9     0.00   0.65270   3 ;    H2B-   C32-   N31-   C34
  4072   4070   4073   4082      9     0.00   0.65270   3 ;    H2B-   C32-   N31-   C35
  4074   4073   4078   4079      9     0.00   0.65270   3 ;    C33-   N31-   C34-   H4A
  4074   4073   4078   4080      9     0.00   0.65270   3 ;    C33-   N31-   C34-   H4B
  4074   4073   4078   4081      9     0.00   0.65270   3 ;    C33-   N31-   C34-   H4C
  4074   4073   4082   4083      9     0.00   0.65270   3 ;    C33-   N31-   C35-   H5A
  4074   4073   4082   4084      9     0.00   0.65270   3 ;    C33-   N31-   C35-   H5B
  4074   4073   4082   4085      9     0.00   0.65270   3 ;    C33-   N31-   C35-   H5C
  4075   4074   4073   4078      9     0.00   0.65270   3 ;    H3A-   C33-   N31-   C34
  4075   4074   4073   4082      9     0.00   0.65270   3 ;    H3A-   C33-   N31-   C35
  4076   4074   4073   4078      9     0.00   0.65270   3 ;    H3B-   C33-   N31-   C34
  4076   4074   4073   4082      9     0.00   0.65270   3 ;    H3B-   C33-   N31-   C35
  4077   4074   4073   4078      9     0.00   0.65270   3 ;    H3C-   C33-   N31-   C34
  4077   4074   4073   4082      9     0.00   0.65270   3 ;    H3C-   C33-   N31-   C35
  4078   4073   4082   4083      9     0.00   0.65270   3 ;    C34-   N31-   C35-   H5A
  4078   4073   4082   4084      9     0.00   0.65270   3 ;    C34-   N31-   C35-   H5B
  4078   4073   4082   4085      9     0.00   0.65270   3 ;    C34-   N31-   C35-   H5C
  4079   4078   4073   4082      9     0.00   0.65270   3 ;    H4A-   C34-   N31-   C35
  4080   4078   4073   4082      9     0.00   0.65270   3 ;    H4B-   C34-   N31-   C35
  4081   4078   4073   4082      9     0.00   0.65270   3 ;    H4C-   C34-   N31-   C35
  4088   4089   4128   4125      9   180.00   0.00000   2 ;    O21-   C21-   C12-   C13
  4088   4089   4128   4129      9   180.00   0.00000   2 ;    O21-   C21-   C12-   H2R
  4088   4089   4128   4130      9   180.00   0.00000   2 ;    O21-   C21-   C12-   H2S
  4089   4128   4125   4122      9     0.00   0.65270   3 ;    C21-   C12-   C13-   C14
  4089   4128   4125   4126      9     0.00   0.65270   3 ;    C21-   C12-   C13-   H3R
  4089   4128   4125   4127      9     0.00   0.65270   3 ;    C21-   C12-   C13-   H3S
  4090   4089   4128   4125      9   180.00   0.00000   2 ;    O22-   C21-   C12-   C13
  4090   4089   4128   4129      9     0.00   3.34720   1 ;    O22-   C21-   C12-   H2R
  4090   4089   4128   4129      9   180.00   0.33472   3 ;    O22-   C21-   C12-   H2R
  4090   4089   4128   4130      9     0.00   3.34720   1 ;    O22-   C21-   C12-   H2S
  4090   4089   4128   4130      9   180.00   0.33472   3 ;    O22-   C21-   C12-   H2S
  4091   4092   4095   4096      9     0.00   0.62760   3 ;   H14T-  C114-  C113-  H13R
  4091   4092   4095   4097      9     0.00   0.62760   3 ;   H14T-  C114-  C113-  H13S
  4091   4092   4095   4098      9     0.00   0.66944   3 ;   H14T-  C114-  C113-  C112
  4092   4095   4098   4099      9     0.00   0.66944   3 ;   C114-  C113-  C112-  H12R
  4092   4095   4098   4100      9     0.00   0.66944   3 ;   C114-  C113-  C112-  H12S
  4092   4095   4098   4101      9     0.00   0.41840   1 ;   C114-  C113-  C112-  C111
  4092   4095   4098   4101      9     0.00   0.41840   2 ;   C114-  C113-  C112-  C111
  4092   4095   4098   4101      9     0.00   0.41840   4 ;   C114-  C113-  C112-  C111
  4092   4095   4098   4101      9     0.00   0.41840   5 ;   C114-  C113-  C112-  C111
  4092   4095   4098   4101      9     0.00   1.25520   3 ;   C114-  C113-  C112-  C111
  4093   4092   4095   4096      9     0.00   0.62760   3 ;   H14R-  C114-  C113-  H13R
  4093   4092   4095   4097      9     0.00   0.62760   3 ;   H14R-  C114-  C113-  H13S
  4093   4092   4095   4098      9     0.00   0.66944   3 ;   H14R-  C114-  C113-  C112
  4094   4092   4095   4096      9     0.00   0.62760   3 ;   H14S-  C114-  C113-  H13R
  4094   4092   4095   4097      9     0.00   0.62760   3 ;   H14S-  C114-  C113-  H13S
  4094   4092   4095   4098      9     0.00   0.66944   3 ;   H14S-  C114-  C113-  C112
  4095   4098   4101   4102      9     0.00   0.66944   3 ;   C113-  C112-  C111-  H11R
  4095   4098   4101   4103      9     0.00   0.66944   3 ;   C113-  C112-  C111-  H11S
  4095   4098   4101   4104      9     0.00   0.41840   1 ;   C113-  C112-  C111-  C110
  4095   4098   4101   4104      9     0.00   0.41840   2 ;   C113-  C112-  C111-  C110
  4095   4098   4101   4104      9     0.00   0.41840   4 ;   C113-  C112-  C111-  C110
  4095   4098   4101   4104      9     0.00   0.41840   5 ;   C113-  C112-  C111-  C110
  4095   4098   4101   4104      9     0.00   1.25520   3 ;   C113-  C112-  C111-  C110
  4096   4095   4098   4099      9     0.00   0.62760   3 ;   H13R-  C113-  C112-  H12R
  4096   4095   4098   4100      9     0.00   0.62760   3 ;   H13R-  C113-  C112-  H12S
  4096   4095   4098   4101      9     0.00   0.66944   3 ;   H13R-  C113-  C112-  C111
  4097   4095   4098   4099      9     0.00   0.62760   3 ;   H13S-  C113-  C112-  H12R
  4097   4095   4098   4100      9     0.00   0.62760   3 ;   H13S-  C113-  C112-  H12S
  4097   4095   4098   4101      9     0.00   0.66944   3 ;   H13S-  C113-  C112-  C111
  4098   4101   4104   4105      9     0.00   0.66944   3 ;   C112-  C111-  C110-  H10R
  4098   4101   4104   4106      9     0.00   0.66944   3 ;   C112-  C111-  C110-  H10S
  4098   4101   4104   4107      9     0.00   0.41840   1 ;   C112-  C111-  C110-   C19
  4098   4101   4104   4107      9     0.00   0.41840   2 ;   C112-  C111-  C110-   C19
  4098   4101   4104   4107      9     0.00   0.41840   4 ;   C112-  C111-  C110-   C19
  4098   4101   4104   4107      9     0.00   0.41840   5 ;   C112-  C111-  C110-   C19
  4098   4101   4104   4107      9     0.00   1.25520   3 ;   C112-  C111-  C110-   C19
  4099   4098   4101   4102      9     0.00   0.62760   3 ;   H12R-  C112-  C111-  H11R
  4099   4098   4101   4103      9     0.00   0.62760   3 ;   H12R-  C112-  C111-  H11S
  4099   4098   4101   4104      9     0.00   0.66944   3 ;   H12R-  C112-  C111-  C110
  4100   4098   4101   4102      9     0.00   0.62760   3 ;   H12S-  C112-  C111-  H11R
  4100   4098   4101   4103      9     0.00   0.62760   3 ;   H12S-  C112-  C111-  H11S
  4100   4098   4101   4104      9     0.00   0.66944   3 ;   H12S-  C112-  C111-  C110
  4101   4104   4107   4108      9     0.00   0.66944   3 ;   C111-  C110-   C19-   H9R
  4101   4104   4107   4109      9     0.00   0.66944   3 ;   C111-  C110-   C19-   H9S
  4101   4104   4107   4110      9     0.00   0.41840   1 ;   C111-  C110-   C19-   C18
  4101   4104   4107   4110      9     0.00   0.41840   2 ;   C111-  C110-   C19-   C18
  4101   4104   4107   4110      9     0.00   0.41840   4 ;   C111-  C110-   C19-   C18
  4101   4104   4107   4110      9     0.00   0.41840   5 ;   C111-  C110-   C19-   C18
  4101   4104   4107   4110      9     0.00   1.25520   3 ;   C111-  C110-   C19-   C18
  4102   4101   4104   4105      9     0.00   0.62760   3 ;   H11R-  C111-  C110-  H10R
  4102   4101   4104   4106      9     0.00   0.62760   3 ;   H11R-  C111-  C110-  H10S
  4102   4101   4104   4107      9     0.00   0.66944   3 ;   H11R-  C111-  C110-   C19
  4103   4101   4104   4105      9     0.00   0.62760   3 ;   H11S-  C111-  C110-  H10R
  4103   4101   4104   4106      9     0.00   0.62760   3 ;   H11S-  C111-  C110-  H10S
  4103   4101   4104   4107      9     0.00   0.66944   3 ;   H11S-  C111-  C110-   C19
  4104   4107   4110   4111      9     0.00   0.66944   3 ;   C110-   C19-   C18-   H8R
  4104   4107   4110   4112      9     0.00   0.66944   3 ;   C110-   C19-   C18-   H8S
  4104   4107   4110   4113      9     0.00   0.41840   1 ;   C110-   C19-   C18-   C17
  4104   4107   4110   4113      9     0.00   0.41840   2 ;   C110-   C19-   C18-   C17
  4104   4107   4110   4113      9     0.00   0.41840   4 ;   C110-   C19-   C18-   C17
  4104   4107   4110   4113      9     0.00   0.41840   5 ;   C110-   C19-   C18-   C17
  4104   4107   4110   4113      9     0.00   1.25520   3 ;   C110-   C19-   C18-   C17
  4105   4104   4107   4108      9     0.00   0.62760   3 ;   H10R-  C110-   C19-   H9R
  4105   4104   4107   4109      9     0.00   0.62760   3 ;   H10R-  C110-   C19-   H9S
  4105   4104   4107   4110      9     0.00   0.66944   3 ;   H10R-  C110-   C19-   C18
  4106   4104   4107   4108      9     0.00   0.62760   3 ;   H10S-  C110-   C19-   H9R
  4106   4104   4107   4109      9     0.00   0.62760   3 ;   H10S-  C110-   C19-   H9S
  4106   4104   4107   4110      9     0.00   0.66944   3 ;   H10S-  C110-   C19-   C18
  4107   4110   4113   4114      9     0.00   0.66944   3 ;    C19-   C18-   C17-   H7R
  4107   4110   4113   4115      9     0.00   0.66944   3 ;    C19-   C18-   C17-   H7S
  4107   4110   4113   4116      9     0.00   0.41840   1 ;    C19-   C18-   C17-   C16
  4107   4110   4113   4116      9     0.00   0.41840   2 ;    C19-   C18-   C17-   C16
  4107   4110   4113   4116      9     0.00   0.41840   4 ;    C19-   C18-   C17-   C16
  4107   4110   4113   4116      9     0.00   0.41840   5 ;    C19-   C18-   C17-   C16
  4107   4110   4113   4116      9     0.00   1.25520   3 ;    C19-   C18-   C17-   C16
  4108   4107   4110   4111      9     0.00   0.62760   3 ;    H9R-   C19-   C18-   H8R
  4108   4107   4110   4112      9     0.00   0.62760   3 ;    H9R-   C19-   C18-   H8S
  4108   4107   4110   4113      9     0.00   0.66944   3 ;    H9R-   C19-   C18-   C17
  4109   4107   4110   4111      9     0.00   0.62760   3 ;    H9S-   C19-   C18-   H8R
  4109   4107   4110   4112      9     0.00   0.62760   3 ;    H9S-   C19-   C18-   H8S
  4109   4107   4110   4113      9     0.00   0.66944   3 ;    H9S-   C19-   C18-   C17
  4110   4113   4116   4117      9     0.00   0.66944   3 ;    C18-   C17-   C16-   H6R
  4110   4113   4116   4118      9     0.00   0.66944   3 ;    C18-   C17-   C16-   H6S
  4110   4113   4116   4119      9     0.00   0.41840   1 ;    C18-   C17-   C16-   C15
  4110   4113   4116   4119      9     0.00   0.41840   2 ;    C18-   C17-   C16-   C15
  4110   4113   4116   4119      9     0.00   0.41840   4 ;    C18-   C17-   C16-   C15
  4110   4113   4116   4119      9     0.00   0.41840   5 ;    C18-   C17-   C16-   C15
  4110   4113   4116   4119      9     0.00   1.25520   3 ;    C18-   C17-   C16-   C15
  4111   4110   4113   4114      9     0.00   0.62760   3 ;    H8R-   C18-   C17-   H7R
  4111   4110   4113   4115      9     0.00   0.62760   3 ;    H8R-   C18-   C17-   H7S
  4111   4110   4113   4116      9     0.00   0.66944   3 ;    H8R-   C18-   C17-   C16
  4112   4110   4113   4114      9     0.00   0.62760   3 ;    H8S-   C18-   C17-   H7R
  4112   4110   4113   4115      9     0.00   0.62760   3 ;    H8S-   C18-   C17-   H7S
  4112   4110   4113   4116      9     0.00   0.66944   3 ;    H8S-   C18-   C17-   C16
  4113   4116   4119   4120      9     0.00   0.66944   3 ;    C17-   C16-   C15-   H5R
  4113   4116   4119   4121      9     0.00   0.66944   3 ;    C17-   C16-   C15-   H5S
  4113   4116   4119   4122      9     0.00   0.41840   1 ;    C17-   C16-   C15-   C14
  4113   4116   4119   4122      9     0.00   0.41840   2 ;    C17-   C16-   C15-   C14
  4113   4116   4119   4122      9     0.00   0.41840   4 ;    C17-   C16-   C15-   C14
  4113   4116   4119   4122      9     0.00   0.41840   5 ;    C17-   C16-   C15-   C14
  4113   4116   4119   4122      9     0.00   1.25520   3 ;    C17-   C16-   C15-   C14
  4114   4113   4116   4117      9     0.00   0.62760   3 ;    H7R-   C17-   C16-   H6R
  4114   4113   4116   4118      9     0.00   0.62760   3 ;    H7R-   C17-   C16-   H6S
  4114   4113   4116   4119      9     0.00   0.66944   3 ;    H7R-   C17-   C16-   C15
  4115   4113   4116   4117      9     0.00   0.62760   3 ;    H7S-   C17-   C16-   H6R
  4115   4113   4116   4118      9     0.00   0.62760   3 ;    H7S-   C17-   C16-   H6S
  4115   4113   4116   4119      9     0.00   0.66944   3 ;    H7S-   C17-   C16-   C15
  4116   4119   4122   4123      9     0.00   0.66944   3 ;    C16-   C15-   C14-   H4R
  4116   4119   4122   4124      9     0.00   0.66944   3 ;    C16-   C15-   C14-   H4S
  4116   4119   4122   4125      9     0.00   0.41840   1 ;    C16-   C15-   C14-   C13
  4116   4119   4122   4125      9     0.00   0.41840   2 ;    C16-   C15-   C14-   C13
  4116   4119   4122   4125      9     0.00   0.41840   4 ;    C16-   C15-   C14-   C13
  4116   4119   4122   4125      9     0.00   0.41840   5 ;    C16-   C15-   C14-   C13
  4116   4119   4122   4125      9     0.00   1.25520   3 ;    C16-   C15-   C14-   C13
  4117   4116   4119   4120      9     0.00   0.62760   3 ;    H6R-   C16-   C15-   H5R
  4117   4116   4119   4121      9     0.00   0.62760   3 ;    H6R-   C16-   C15-   H5S
  4117   4116   4119   4122      9     0.00   0.66944   3 ;    H6R-   C16-   C15-   C14
  4118   4116   4119   4120      9     0.00   0.62760   3 ;    H6S-   C16-   C15-   H5R
  4118   4116   4119   4121      9     0.00   0.62760   3 ;    H6S-   C16-   C15-   H5S
  4118   4116   4119   4122      9     0.00   0.66944   3 ;    H6S-   C16-   C15-   C14
  4119   4122   4125   4126      9     0.00   0.66944   3 ;    C15-   C14-   C13-   H3R
  4119   4122   4125   4127      9     0.00   0.66944   3 ;    C15-   C14-   C13-   H3S
  4119   4122   4125   4128      9     0.00   0.41840   1 ;    C15-   C14-   C13-   C12
  4119   4122   4125   4128      9     0.00   0.41840   2 ;    C15-   C14-   C13-   C12
  4119   4122   4125   4128      9     0.00   0.41840   4 ;    C15-   C14-   C13-   C12
  4119   4122   4125   4128      9     0.00   0.41840   5 ;    C15-   C14-   C13-   C12
  4119   4122   4125   4128      9     0.00   1.25520   3 ;    C15-   C14-   C13-   C12
  4120   4119   4122   4123      9     0.00   0.62760   3 ;    H5R-   C15-   C14-   H4R
  4120   4119   4122   4124      9     0.00   0.62760   3 ;    H5R-   C15-   C14-   H4S
  4120   4119   4122   4125      9     0.00   0.66944   3 ;    H5R-   C15-   C14-   C13
  4121   4119   4122   4123      9     0.00   0.62760   3 ;    H5S-   C15-   C14-   H4R
  4121   4119   4122   4124      9     0.00   0.62760   3 ;    H5S-   C15-   C14-   H4S
  4121   4119   4122   4125      9     0.00   0.66944   3 ;    H5S-   C15-   C14-   C13
  4122   4125   4128   4129      9     0.00   0.66944   3 ;    C14-   C13-   C12-   H2R
  4122   4125   4128   4130      9     0.00   0.66944   3 ;    C14-   C13-   C12-   H2S
  4123   4122   4125   4126      9     0.00   0.62760   3 ;    H4R-   C14-   C13-   H3R
  4123   4122   4125   4127      9     0.00   0.62760   3 ;    H4R-   C14-   C13-   H3S
  4123   4122   4125   4128      9     0.00   0.66944   3 ;    H4R-   C14-   C13-   C12
  4124   4122   4125   4126      9     0.00   0.62760   3 ;    H4S-   C14-   C13-   H3R
  4124   4122   4125   4127      9     0.00   0.62760   3 ;    H4S-   C14-   C13-   H3S
  4124   4122   4125   4128      9     0.00   0.66944   3 ;    H4S-   C14-   C13-   C12
  4126   4125   4128   4129      9     0.00   0.62760   3 ;    H3R-   C13-   C12-   H2R
  4126   4125   4128   4130      9     0.00   0.62760   3 ;    H3R-   C13-   C12-   H2S
  4127   4125   4128   4129      9     0.00   0.62760   3 ;    H3S-   C13-   C12-   H2R
  4127   4125   4128   4130      9     0.00   0.62760   3 ;    H3S-   C13-   C12-   H2S
  4131   4132   4135   4136      9     0.00   0.62760   3 ;   H14T-  C114-  C113-  H13R
  4131   4132   4135   4137      9     0.00   0.62760   3 ;   H14T-  C114-  C113-  H13S
  4131   4132   4135   4138      9     0.00   0.66944   3 ;   H14T-  C114-  C113-  C112
  4132   4135   4138   4139      9     0.00   0.66944   3 ;   C114-  C113-  C112-  H12R
  4132   4135   4138   4140      9     0.00   0.66944   3 ;   C114-  C113-  C112-  H12S
  4132   4135   4138   4141      9     0.00   0.41840   1 ;   C114-  C113-  C112-  C111
  4132   4135   4138   4141      9     0.00   0.41840   2 ;   C114-  C113-  C112-  C111
  4132   4135   4138   4141      9     0.00   0.41840   4 ;   C114-  C113-  C112-  C111
  4132   4135   4138   4141      9     0.00   0.41840   5 ;   C114-  C113-  C112-  C111
  4132   4135   4138   4141      9     0.00   1.25520   3 ;   C114-  C113-  C112-  C111
  4133   4132   4135   4136      9     0.00   0.62760   3 ;   H14R-  C114-  C113-  H13R
  4133   4132   4135   4137      9     0.00   0.62760   3 ;   H14R-  C114-  C113-  H13S
  4133   4132   4135   4138      9     0.00   0.66944   3 ;   H14R-  C114-  C113-  C112
  4134   4132   4135   4136      9     0.00   0.62760   3 ;   H14S-  C114-  C113-  H13R
  4134   4132   4135   4137      9     0.00   0.62760   3 ;   H14S-  C114-  C113-  H13S
  4134   4132   4135   4138      9     0.00   0.66944   3 ;   H14S-  C114-  C113-  C112
  4135   4138   4141   4142      9     0.00   0.66944   3 ;   C113-  C112-  C111-  H11R
  4135   4138   4141   4143      9     0.00   0.66944   3 ;   C113-  C112-  C111-  H11S
  4135   4138   4141   4144      9     0.00   0.41840   1 ;   C113-  C112-  C111-  C110
  4135   4138   4141   4144      9     0.00   0.41840   2 ;   C113-  C112-  C111-  C110
  4135   4138   4141   4144      9     0.00   0.41840   4 ;   C113-  C112-  C111-  C110
  4135   4138   4141   4144      9     0.00   0.41840   5 ;   C113-  C112-  C111-  C110
  4135   4138   4141   4144      9     0.00   1.25520   3 ;   C113-  C112-  C111-  C110
  4136   4135   4138   4139      9     0.00   0.62760   3 ;   H13R-  C113-  C112-  H12R
  4136   4135   4138   4140      9     0.00   0.62760   3 ;   H13R-  C113-  C112-  H12S
  4136   4135   4138   4141      9     0.00   0.66944   3 ;   H13R-  C113-  C112-  C111
  4137   4135   4138   4139      9     0.00   0.62760   3 ;   H13S-  C113-  C112-  H12R
  4137   4135   4138   4140      9     0.00   0.62760   3 ;   H13S-  C113-  C112-  H12S
  4137   4135   4138   4141      9     0.00   0.66944   3 ;   H13S-  C113-  C112-  C111
  4138   4141   4144   4145      9     0.00   0.66944   3 ;   C112-  C111-  C110-  H10R
  4138   4141   4144   4146      9     0.00   0.66944   3 ;   C112-  C111-  C110-  H10S
  4138   4141   4144   4147      9     0.00   0.41840   1 ;   C112-  C111-  C110-   C19
  4138   4141   4144   4147      9     0.00   0.41840   2 ;   C112-  C111-  C110-   C19
  4138   4141   4144   4147      9     0.00   0.41840   4 ;   C112-  C111-  C110-   C19
  4138   4141   4144   4147      9     0.00   0.41840   5 ;   C112-  C111-  C110-   C19
  4138   4141   4144   4147      9     0.00   1.25520   3 ;   C112-  C111-  C110-   C19
  4139   4138   4141   4142      9     0.00   0.62760   3 ;   H12R-  C112-  C111-  H11R
  4139   4138   4141   4143      9     0.00   0.62760   3 ;   H12R-  C112-  C111-  H11S
  4139   4138   4141   4144      9     0.00   0.66944   3 ;   H12R-  C112-  C111-  C110
  4140   4138   4141   4142      9     0.00   0.62760   3 ;   H12S-  C112-  C111-  H11R
  4140   4138   4141   4143      9     0.00   0.62760   3 ;   H12S-  C112-  C111-  H11S
  4140   4138   4141   4144      9     0.00   0.66944   3 ;   H12S-  C112-  C111-  C110
  4141   4144   4147   4148      9     0.00   0.66944   3 ;   C111-  C110-   C19-   H9R
  4141   4144   4147   4149      9     0.00   0.66944   3 ;   C111-  C110-   C19-   H9S
  4141   4144   4147   4150      9     0.00   0.41840   1 ;   C111-  C110-   C19-   C18
  4141   4144   4147   4150      9     0.00   0.41840   2 ;   C111-  C110-   C19-   C18
  4141   4144   4147   4150      9     0.00   0.41840   4 ;   C111-  C110-   C19-   C18
  4141   4144   4147   4150      9     0.00   0.41840   5 ;   C111-  C110-   C19-   C18
  4141   4144   4147   4150      9     0.00   1.25520   3 ;   C111-  C110-   C19-   C18
  4142   4141   4144   4145      9     0.00   0.62760   3 ;   H11R-  C111-  C110-  H10R
  4142   4141   4144   4146      9     0.00   0.62760   3 ;   H11R-  C111-  C110-  H10S
  4142   4141   4144   4147      9     0.00   0.66944   3 ;   H11R-  C111-  C110-   C19
  4143   4141   4144   4145      9     0.00   0.62760   3 ;   H11S-  C111-  C110-  H10R
  4143   4141   4144   4146      9     0.00   0.62760   3 ;   H11S-  C111-  C110-  H10S
  4143   4141   4144   4147      9     0.00   0.66944   3 ;   H11S-  C111-  C110-   C19
  4144   4147   4150   4151      9     0.00   0.66944   3 ;   C110-   C19-   C18-   H8R
  4144   4147   4150   4152      9     0.00   0.66944   3 ;   C110-   C19-   C18-   H8S
  4144   4147   4150   4153      9     0.00   0.41840   1 ;   C110-   C19-   C18-   C17
  4144   4147   4150   4153      9     0.00   0.41840   2 ;   C110-   C19-   C18-   C17
  4144   4147   4150   4153      9     0.00   0.41840   4 ;   C110-   C19-   C18-   C17
  4144   4147   4150   4153      9     0.00   0.41840   5 ;   C110-   C19-   C18-   C17
  4144   4147   4150   4153      9     0.00   1.25520   3 ;   C110-   C19-   C18-   C17
  4145   4144   4147   4148      9     0.00   0.62760   3 ;   H10R-  C110-   C19-   H9R
  4145   4144   4147   4149      9     0.00   0.62760   3 ;   H10R-  C110-   C19-   H9S
  4145   4144   4147   4150      9     0.00   0.66944   3 ;   H10R-  C110-   C19-   C18
  4146   4144   4147   4148      9     0.00   0.62760   3 ;   H10S-  C110-   C19-   H9R
  4146   4144   4147   4149      9     0.00   0.62760   3 ;   H10S-  C110-   C19-   H9S
  4146   4144   4147   4150      9     0.00   0.66944   3 ;   H10S-  C110-   C19-   C18
  4147   4150   4153   4154      9     0.00   0.66944   3 ;    C19-   C18-   C17-   H7R
  4147   4150   4153   4155      9     0.00   0.66944   3 ;    C19-   C18-   C17-   H7S
  4147   4150   4153   4156      9     0.00   0.41840   1 ;    C19-   C18-   C17-   C16
  4147   4150   4153   4156      9     0.00   0.41840   2 ;    C19-   C18-   C17-   C16
  4147   4150   4153   4156      9     0.00   0.41840   4 ;    C19-   C18-   C17-   C16
  4147   4150   4153   4156      9     0.00   0.41840   5 ;    C19-   C18-   C17-   C16
  4147   4150   4153   4156      9     0.00   1.25520   3 ;    C19-   C18-   C17-   C16
  4148   4147   4150   4151      9     0.00   0.62760   3 ;    H9R-   C19-   C18-   H8R
  4148   4147   4150   4152      9     0.00   0.62760   3 ;    H9R-   C19-   C18-   H8S
  4148   4147   4150   4153      9     0.00   0.66944   3 ;    H9R-   C19-   C18-   C17
  4149   4147   4150   4151      9     0.00   0.62760   3 ;    H9S-   C19-   C18-   H8R
  4149   4147   4150   4152      9     0.00   0.62760   3 ;    H9S-   C19-   C18-   H8S
  4149   4147   4150   4153      9     0.00   0.66944   3 ;    H9S-   C19-   C18-   C17
  4150   4153   4156   4157      9     0.00   0.66944   3 ;    C18-   C17-   C16-   H6R
  4150   4153   4156   4158      9     0.00   0.66944   3 ;    C18-   C17-   C16-   H6S
  4150   4153   4156   4159      9     0.00   0.41840   1 ;    C18-   C17-   C16-   C15
  4150   4153   4156   4159      9     0.00   0.41840   2 ;    C18-   C17-   C16-   C15
  4150   4153   4156   4159      9     0.00   0.41840   4 ;    C18-   C17-   C16-   C15
  4150   4153   4156   4159      9     0.00   0.41840   5 ;    C18-   C17-   C16-   C15
  4150   4153   4156   4159      9     0.00   1.25520   3 ;    C18-   C17-   C16-   C15
  4151   4150   4153   4154      9     0.00   0.62760   3 ;    H8R-   C18-   C17-   H7R
  4151   4150   4153   4155      9     0.00   0.62760   3 ;    H8R-   C18-   C17-   H7S
  4151   4150   4153   4156      9     0.00   0.66944   3 ;    H8R-   C18-   C17-   C16
  4152   4150   4153   4154      9     0.00   0.62760   3 ;    H8S-   C18-   C17-   H7R
  4152   4150   4153   4155      9     0.00   0.62760   3 ;    H8S-   C18-   C17-   H7S
  4152   4150   4153   4156      9     0.00   0.66944   3 ;    H8S-   C18-   C17-   C16
  4153   4156   4159   4160      9     0.00   0.66944   3 ;    C17-   C16-   C15-   H5R
  4153   4156   4159   4161      9     0.00   0.66944   3 ;    C17-   C16-   C15-   H5S
  4153   4156   4159   4162      9     0.00   0.41840   1 ;    C17-   C16-   C15-   C14
  4153   4156   4159   4162      9     0.00   0.41840   2 ;    C17-   C16-   C15-   C14
  4153   4156   4159   4162      9     0.00   0.41840   4 ;    C17-   C16-   C15-   C14
  4153   4156   4159   4162      9     0.00   0.41840   5 ;    C17-   C16-   C15-   C14
  4153   4156   4159   4162      9     0.00   1.25520   3 ;    C17-   C16-   C15-   C14
  4154   4153   4156   4157      9     0.00   0.62760   3 ;    H7R-   C17-   C16-   H6R
  4154   4153   4156   4158      9     0.00   0.62760   3 ;    H7R-   C17-   C16-   H6S
  4154   4153   4156   4159      9     0.00   0.66944   3 ;    H7R-   C17-   C16-   C15
  4155   4153   4156   4157      9     0.00   0.62760   3 ;    H7S-   C17-   C16-   H6R
  4155   4153   4156   4158      9     0.00   0.62760   3 ;    H7S-   C17-   C16-   H6S
  4155   4153   4156   4159      9     0.00   0.66944   3 ;    H7S-   C17-   C16-   C15
  4156   4159   4162   4163      9     0.00   0.66944   3 ;    C16-   C15-   C14-   H4R
  4156   4159   4162   4164      9     0.00   0.66944   3 ;    C16-   C15-   C14-   H4S
  4156   4159   4162   4165      9     0.00   0.41840   1 ;    C16-   C15-   C14-   C13
  4156   4159   4162   4165      9     0.00   0.41840   2 ;    C16-   C15-   C14-   C13
  4156   4159   4162   4165      9     0.00   0.41840   4 ;    C16-   C15-   C14-   C13
  4156   4159   4162   4165      9     0.00   0.41840   5 ;    C16-   C15-   C14-   C13
  4156   4159   4162   4165      9     0.00   1.25520   3 ;    C16-   C15-   C14-   C13
  4157   4156   4159   4160      9     0.00   0.62760   3 ;    H6R-   C16-   C15-   H5R
  4157   4156   4159   4161      9     0.00   0.62760   3 ;    H6R-   C16-   C15-   H5S
  4157   4156   4159   4162      9     0.00   0.66944   3 ;    H6R-   C16-   C15-   C14
  4158   4156   4159   4160      9     0.00   0.62760   3 ;    H6S-   C16-   C15-   H5R
  4158   4156   4159   4161      9     0.00   0.62760   3 ;    H6S-   C16-   C15-   H5S
  4158   4156   4159   4162      9     0.00   0.66944   3 ;    H6S-   C16-   C15-   C14
  4159   4162   4165   4166      9     0.00   0.66944   3 ;    C15-   C14-   C13-   H3R
  4159   4162   4165   4167      9     0.00   0.66944   3 ;    C15-   C14-   C13-   H3S
  4159   4162   4165   4168      9     0.00   0.41840   1 ;    C15-   C14-   C13-   C12
  4159   4162   4165   4168      9     0.00   0.41840   2 ;    C15-   C14-   C13-   C12
  4159   4162   4165   4168      9     0.00   0.41840   4 ;    C15-   C14-   C13-   C12
  4159   4162   4165   4168      9     0.00   0.41840   5 ;    C15-   C14-   C13-   C12
  4159   4162   4165   4168      9     0.00   1.25520   3 ;    C15-   C14-   C13-   C12
  4160   4159   4162   4163      9     0.00   0.62760   3 ;    H5R-   C15-   C14-   H4R
  4160   4159   4162   4164      9     0.00   0.62760   3 ;    H5R-   C15-   C14-   H4S
  4160   4159   4162   4165      9     0.00   0.66944   3 ;    H5R-   C15-   C14-   C13
  4161   4159   4162   4163      9     0.00   0.62760   3 ;    H5S-   C15-   C14-   H4R
  4161   4159   4162   4164      9     0.00   0.62760   3 ;    H5S-   C15-   C14-   H4S
  4161   4159   4162   4165      9     0.00   0.66944   3 ;    H5S-   C15-   C14-   C13
  4162   4165   4168   4169      9     0.00   0.66944   3 ;    C14-   C13-   C12-   H2R
  4162   4165   4168   4170      9     0.00   0.66944   3 ;    C14-   C13-   C12-   H2S
  4162   4165   4168   4171      9     0.00   0.65270   3 ;    C14-   C13-   C12-   C11
  4163   4162   4165   4166      9     0.00   0.62760   3 ;    H4R-   C14-   C13-   H3R
  4163   4162   4165   4167      9     0.00   0.62760   3 ;    H4R-   C14-   C13-   H3S
  4163   4162   4165   4168      9     0.00   0.66944   3 ;    H4R-   C14-   C13-   C12
  4164   4162   4165   4166      9     0.00   0.62760   3 ;    H4S-   C14-   C13-   H3R
  4164   4162   4165   4167      9     0.00   0.62760   3 ;    H4S-   C14-   C13-   H3S
  4164   4162   4165   4168      9     0.00   0.66944   3 ;    H4S-   C14-   C13-   C12
  4165   4168   4171   4172      9   180.00   0.00000   2 ;    C13-   C12-   C11-   O12
  4165   4168   4171   4173      9   180.00   0.00000   2 ;    C13-   C12-   C11-   O11
  4166   4165   4168   4169      9     0.00   0.62760   3 ;    H3R-   C13-   C12-   H2R
  4166   4165   4168   4170      9     0.00   0.62760   3 ;    H3R-   C13-   C12-   H2S
  4166   4165   4168   4171      9     0.00   0.65270   3 ;    H3R-   C13-   C12-   C11
  4167   4165   4168   4169      9     0.00   0.62760   3 ;    H3S-   C13-   C12-   H2R
  4167   4165   4168   4170      9     0.00   0.62760   3 ;    H3S-   C13-   C12-   H2S
  4167   4165   4168   4171      9     0.00   0.65270   3 ;    H3S-   C13-   C12-   C11
  4168   4171   4173   4174      9   180.00  11.29680   2 ;    C12-   C11-   O11-    C1
  4169   4168   4171   4172      9     0.00   3.34720   1 ;    H2R-   C12-   C11-   O12
  4169   4168   4171   4172      9   180.00   0.33472   3 ;    H2R-   C12-   C11-   O12
  4169   4168   4171   4173      9   180.00   0.00000   2 ;    H2R-   C12-   C11-   O11
  4170   4168   4171   4172      9     0.00   3.34720   1 ;    H2S-   C12-   C11-   O12
  4170   4168   4171   4172      9   180.00   0.33472   3 ;    H2S-   C12-   C11-   O12
  4170   4168   4171   4173      9   180.00   0.00000   2 ;    H2S-   C12-   C11-   O11
  4171   4173   4174   4175      9     0.00   1.60247   3 ;    C11-   O11-    C1-    HR
  4171   4173   4174   4176      9     0.00   1.60247   3 ;    C11-   O11-    C1-    HS
  4171   4173   4174   4177      9     0.00  -0.41840   1 ;    C11-   O11-    C1-    C2
  4172   4171   4173   4174      9   180.00   5.85760   1 ;    O12-   C11-   O11-    C1
  4172   4171   4173   4174      9   180.00  11.29680   2 ;    O12-   C11-   O11-    C1
  4173   4174   4177   4178      9     0.00   0.00000   0 ;    O11-    C1-    C2-    HX
  4173   4174   4177   4178      9     0.00   1.04600   1 ;    O11-    C1-    C2-    HX
  4173   4174   4177   4179      9     0.00   0.00000   0 ;    O11-    C1-    C2-    C3
  4173   4174   4177   4179      9     0.00   0.00000   0 ;    O11-    C1-    C2-    C3
  4173   4174   4177   4179      9     0.00   0.00000   0 ;    O11-    C1-    C2-    C3
  4173   4174   4177   4179      9     0.00   0.00000   0 ;    O11-    C1-    C2-    C3
  4173   4174   4177   4179      9     0.00   0.00000   0 ;    O11-    C1-    C2-    C3
  4173   4174   4177   4206      9     0.00   1.25520   2 ;    O11-    C1-    C2-   O21
  4173   4174   4177   4206      9     0.00   4.18400   3 ;    O11-    C1-    C2-   O21
  4173   4174   4177   4206      9   180.00  -0.41840   1 ;    O11-    C1-    C2-   O21
  4174   4177   4179   4180      9     0.00   0.65270   3 ;     C1-    C2-    C3-    HA
  4174   4177   4179   4181      9     0.00   0.65270   3 ;     C1-    C2-    C3-    HB
  4174   4177   4179   4182      9   180.00   3.34720   1 ;     C1-    C2-    C3-   O31
  4174   4177   4206   4207      9     0.00  -0.41840   1 ;     C1-    C2-   O21-   C21
  4175   4174   4177   4178      9     0.00   0.65270   3 ;     HR-    C1-    C2-    HX
  4175   4174   4177   4179      9     0.00   0.65270   3 ;     HR-    C1-    C2-    C3
  4175   4174   4177   4206      9     0.00   0.00000   0 ;     HR-    C1-    C2-   O21
  4175   4174   4177   4206      9     0.00   1.04600   1 ;     HR-    C1-    C2-   O21
  4176   4174   4177   4178      9     0.00   0.65270   3 ;     HS-    C1-    C2-    HX
  4176   4174   4177   4179      9     0.00   0.65270   3 ;     HS-    C1-    C2-    C3
  4176   4174   4177   4206      9     0.00   0.00000   0 ;     HS-    C1-    C2-   O21
  4176   4174   4177   4206      9     0.00   1.04600   1 ;     HS-    C1-    C2-   O21
  4177   4179   4182   4183      9     0.00   0.00000   0 ;     C2-    C3-   O31-   P31
  4177   4179   4182   4183      9   180.00  -3.34720   2 ;     C2-    C3-   O31-   P31
  4177   4206   4207   4208      9   180.00   5.85760   1 ;     C2-   O21-   C21-   O22
  4177   4206   4207   4208      9   180.00  11.29680   2 ;     C2-   O21-   C21-   O22
  4177   4206   4207   4246      9   180.00  11.29680   2 ;     C2-   O21-   C21-   C12
  4178   4177   4179   4180      9     0.00   0.65270   3 ;     HX-    C2-    C3-    HA
  4178   4177   4179   4181      9     0.00   0.65270   3 ;     HX-    C2-    C3-    HB
  4178   4177   4179   4182      9     0.00   0.00000   0 ;     HX-    C2-    C3-   O31
  4178   4177   4179   4182      9     0.00   1.04600   1 ;     HX-    C2-    C3-   O31
  4178   4177   4206   4207      9     0.00   1.60247   3 ;     HX-    C2-   O21-   C21
  4179   4177   4206   4207      9     0.00  -0.41840   1 ;     C3-    C2-   O21-   C21
  4179   4182   4183   4184      9     0.00   2.51040   3 ;     C3-   O31-   P31-   O32
  4179   4182   4183   4184      9     0.00   9.62320   2 ;     C3-   O31-   P31-   O32
  4179   4182   4183   4204      9     0.00   0.00000   0 ;     C3-   O31-   P31-   O33
  4179   4182   4183   4204      9     0.00   0.00000   0 ;     C3-   O31-   P31-   O33
  4179   4182   4183   4204      9     0.00   0.00000   0 ;     C3-   O31-   P31-   O33
  4179   4182   4183   4204      9     0.00   0.00000   0 ;     C3-   O31-   P31-   O33
  4179   4182   4183   4204      9     0.00   0.83680   2 ;     C3-   O31-   P31-   O33
  4179   4182   4183   4205      9     0.00   0.00000   0 ;     C3-   O31-   P31-   O34
  4179   4182   4183   4205      9     0.00   0.00000   0 ;     C3-   O31-   P31-   O34
  4179   4182   4183   4205      9     0.00   0.00000   0 ;     C3-   O31-   P31-   O34
  4179   4182   4183   4205      9     0.00   0.00000   0 ;     C3-   O31-   P31-   O34
  4179   4182   4183   4205      9     0.00   0.83680   2 ;     C3-   O31-   P31-   O34
  4180   4179   4177   4206      9     0.00   0.00000   0 ;     HA-    C3-    C2-   O21
  4180   4179   4177   4206      9     0.00   1.04600   1 ;     HA-    C3-    C2-   O21
  4180   4179   4182   4183      9     0.00   0.00000   0 ;     HA-    C3-   O31-   P31
  4180   4179   4182   4183      9     0.00   0.00000   0 ;     HA-    C3-   O31-   P31
  4180   4179   4182   4183      9     0.00   0.00000   0 ;     HA-    C3-   O31-   P31
  4180   4179   4182   4183      9     0.00   0.00000   0 ;     HA-    C3-   O31-   P31
  4180   4179   4182   4183      9     0.00   1.60247   3 ;     HA-    C3-   O31-   P31
  4181   4179   4177   4206      9     0.00   0.00000   0 ;     HB-    C3-    C2-   O21
  4181   4179   4177   4206      9     0.00   1.04600   1 ;     HB-    C3-    C2-   O21
  4181   4179   4182   4183      9     0.00   0.00000   0 ;     HB-    C3-   O31-   P31
  4181   4179   4182   4183      9     0.00   0.00000   0 ;     HB-    C3-   O31-   P31
  4181   4179   4182   4183      9     0.00   0.00000   0 ;     HB-    C3-   O31-   P31
  4181   4179   4182   4183      9     0.00   0.00000   0 ;     HB-    C3-   O31-   P31
  4181   4179   4182   4183      9     0.00   1.60247   3 ;     HB-    C3-   O31-   P31
  4182   4179   4177   4206      9     0.00   0.00000   0 ;    O31-    C3-    C2-   O21
  4182   4179   4177   4206      9     0.00   0.00000   0 ;    O31-    C3-    C2-   O21
  4182   4179   4177   4206      9     0.00   0.00000   0 ;    O31-    C3-    C2-   O21
  4182   4179   4177   4206      9     0.00   0.00000   0 ;    O31-    C3-    C2-   O21
  4182   4179   4177   4206      9     0.00   0.00000   0 ;    O31-    C3-    C2-   O21
  4182   4183   4184   4185      9     0.00   2.51040   3 ;    O31-   P31-   O32-   C31
  4182   4183   4184   4185      9     0.00   9.62320   2 ;    O31-   P31-   O32-   C31
  4183   4184   4185   4186      9     0.00   0.00000   0 ;    P31-   O32-   C31-   H1A
  4183   4184   4185   4186      9     0.00   0.00000   0 ;    P31-   O32-   C31-   H1A
  4183   4184   4185   4186      9     0.00   0.00000   0 ;    P31-   O32-   C31-   H1A
  4183   4184   4185   4186      9     0.00   0.00000   0 ;    P31-   O32-   C31-   H1A
  4183   4184   4185   4186      9     0.00   1.60247   3 ;    P31-   O32-   C31-   H1A
  4183   4184   4185   4187      9     0.00   0.00000   0 ;    P31-   O32-   C31-   H1B
  4183   4184   4185   4187      9     0.00   0.00000   0 ;    P31-   O32-   C31-   H1B
  4183   4184   4185   4187      9     0.00   0.00000   0 ;    P31-   O32-   C31-   H1B
  4183   4184   4185   4187      9     0.00   0.00000   0 ;    P31-   O32-   C31-   H1B
  4183   4184   4185   4187      9     0.00   1.60247   3 ;    P31-   O32-   C31-   H1B
  4183   4184   4185   4188      9     0.00   0.00000   0 ;    P31-   O32-   C31-   C32
  4183   4184   4185   4188      9   180.00  -3.34720   2 ;    P31-   O32-   C31-   C32
  4184   4185   4188   4189      9     0.00   0.65270   3 ;    O32-   C31-   C32-   H2A
  4184   4185   4188   4190      9     0.00   0.65270   3 ;    O32-   C31-   C32-   H2B
  4184   4185   4188   4191      9     0.00   4.18400   3 ;    O32-   C31-   C32-   N31
  4185   4184   4183   4204      9     0.00   0.00000   0 ;    C31-   O32-   P31-   O33
  4185   4184   4183   4204      9     0.00   0.00000   0 ;    C31-   O32-   P31-   O33
  4185   4184   4183   4204      9     0.00   0.00000   0 ;    C31-   O32-   P31-   O33
  4185   4184   4183   4204      9     0.00   0.00000   0 ;    C31-   O32-   P31-   O33
  4185   4184   4183   4204      9     0.00   0.83680   2 ;    C31-   O32-   P31-   O33
  4185   4184   4183   4205      9     0.00   0.00000   0 ;    C31-   O32-   P31-   O34
  4185   4184   4183   4205      9     0.00   0.00000   0 ;    C31-   O32-   P31-   O34
  4185   4184   4183   4205      9     0.00   0.00000   0 ;    C31-   O32-   P31-   O34
  4185   4184   4183   4205      9     0.00   0.00000   0 ;    C31-   O32-   P31-   O34
  4185   4184   4183   4205      9     0.00   0.83680   2 ;    C31-   O32-   P31-   O34
  4185   4188   4191   4192      9     0.00   0.65270   3 ;    C31-   C32-   N31-   C33
  4185   4188   4191   4196      9     0.00   0.65270   3 ;    C31-   C32-   N31-   C34
  4185   4188   4191   4200      9     0.00   0.65270   3 ;    C31-   C32-   N31-   C35
  4186   4185   4188   4189      9     0.00   0.65270   3 ;    H1A-   C31-   C32-   H2A
  4186   4185   4188   4190      9     0.00   0.65270   3 ;    H1A-   C31-   C32-   H2B
  4186   4185   4188   4191      9     0.00   0.65270   3 ;    H1A-   C31-   C32-   N31
  4187   4185   4188   4189      9     0.00   0.65270   3 ;    H1B-   C31-   C32-   H2A
  4187   4185   4188   4190      9     0.00   0.65270   3 ;    H1B-   C31-   C32-   H2B
  4187   4185   4188   4191      9     0.00   0.65270   3 ;    H1B-   C31-   C32-   N31
  4188   4191   4192   4193      9     0.00   0.65270   3 ;    C32-   N31-   C33-   H3A
  4188   4191   4192   4194      9     0.00   0.65270   3 ;    C32-   N31-   C33-   H3B
  4188   4191   4192   4195      9     0.00   0.65270   3 ;    C32-   N31-   C33-   H3C
  4188   4191   4196   4197      9     0.00   0.65270   3 ;    C32-   N31-   C34-   H4A
  4188   4191   4196   4198      9     0.00   0.65270   3 ;    C32-   N31-   C34-   H4B
  4188   4191   4196   4199      9     0.00   0.65270   3 ;    C32-   N31-   C34-   H4C
  4188   4191   4200   4201      9     0.00   0.65270   3 ;    C32-   N31-   C35-   H5A
  4188   4191   4200   4202      9     0.00   0.65270   3 ;    C32-   N31-   C35-   H5B
  4188   4191   4200   4203      9     0.00   0.65270   3 ;    C32-   N31-   C35-   H5C
  4189   4188   4191   4192      9     0.00   0.65270   3 ;    H2A-   C32-   N31-   C33
  4189   4188   4191   4196      9     0.00   0.65270   3 ;    H2A-   C32-   N31-   C34
  4189   4188   4191   4200      9     0.00   0.65270   3 ;    H2A-   C32-   N31-   C35
  4190   4188   4191   4192      9     0.00   0.65270   3 ;    H2B-   C32-   N31-   C33
  4190   4188   4191   4196      9     0.00   0.65270   3 ;    H2B-   C32-   N31-   C34
  4190   4188   4191   4200      9     0.00   0.65270   3 ;    H2B-   C32-   N31-   C35
  4192   4191   4196   4197      9     0.00   0.65270   3 ;    C33-   N31-   C34-   H4A
  4192   4191   4196   4198      9     0.00   0.65270   3 ;    C33-   N31-   C34-   H4B
  4192   4191   4196   4199      9     0.00   0.65270   3 ;    C33-   N31-   C34-   H4C
  4192   4191   4200   4201      9     0.00   0.65270   3 ;    C33-   N31-   C35-   H5A
  4192   4191   4200   4202      9     0.00   0.65270   3 ;    C33-   N31-   C35-   H5B
  4192   4191   4200   4203      9     0.00   0.65270   3 ;    C33-   N31-   C35-   H5C
  4193   4192   4191   4196      9     0.00   0.65270   3 ;    H3A-   C33-   N31-   C34
  4193   4192   4191   4200      9     0.00   0.65270   3 ;    H3A-   C33-   N31-   C35
  4194   4192   4191   4196      9     0.00   0.65270   3 ;    H3B-   C33-   N31-   C34
  4194   4192   4191   4200      9     0.00   0.65270   3 ;    H3B-   C33-   N31-   C35
  4195   4192   4191   4196      9     0.00   0.65270   3 ;    H3C-   C33-   N31-   C34
  4195   4192   4191   4200      9     0.00   0.65270   3 ;    H3C-   C33-   N31-   C35
  4196   4191   4200   4201      9     0.00   0.65270   3 ;    C34-   N31-   C35-   H5A
  4196   4191   4200   4202      9     0.00   0.65270   3 ;    C34-   N31-   C35-   H5B
  4196   4191   4200   4203      9     0.00   0.65270   3 ;    C34-   N31-   C35-   H5C
  4197   4196   4191   4200      9     0.00   0.65270   3 ;    H4A-   C34-   N31-   C35
  4198   4196   4191   4200      9     0.00   0.65270   3 ;    H4B-   C34-   N31-   C35
  4199   4196   4191   4200      9     0.00   0.65270   3 ;    H4C-   C34-   N31-   C35
  4206   4207   4246   4243      9   180.00   0.00000   2 ;    O21-   C21-   C12-   C13
  4206   4207   4246   4247      9   180.00   0.00000   2 ;    O21-   C21-   C12-   H2R
  4206   4207   4246   4248      9   180.00   0.00000   2 ;    O21-   C21-   C12-   H2S
  4207   4246   4243   4240      9     0.00   0.65270   3 ;    C21-   C12-   C13-   C14
  4207   4246   4243   4244      9     0.00   0.65270   3 ;    C21-   C12-   C13-   H3R
  4207   4246   4243   4245      9     0.00   0.65270   3 ;    C21-   C12-   C13-   H3S
  4208   4207   4246   4243      9   180.00   0.00000   2 ;    O22-   C21-   C12-   C13
  4208   4207   4246   4247      9     0.00   3.34720   1 ;    O22-   C21-   C12-   H2R
  4208   4207   4246   4247      9   180.00   0.33472   3 ;    O22-   C21-   C12-   H2R
  4208   4207   4246   4248      9     0.00   3.34720   1 ;    O22-   C21-   C12-   H2S
  4208   4207   4246   4248      9   180.00   0.33472   3 ;    O22-   C21-   C12-   H2S
  4209   4210   4213   4214      9     0.00   0.62760   3 ;   H14T-  C114-  C113-  H13R
  4209   4210   4213   4215      9     0.00   0.62760   3 ;   H14T-  C114-  C113-  H13S
  4209   4210   4213   4216      9     0.00   0.66944   3 ;   H14T-  C114-  C113-  C112
  4210   4213   4216   4217      9     0.00   0.66944   3 ;   C114-  C113-  C112-  H12R
  4210   4213   4216   4218      9     0.00   0.66944   3 ;   C114-  C113-  C112-  H12S
  4210   4213   4216   4219      9     0.00   0.41840   1 ;   C114-  C113-  C112-  C111
  4210   4213   4216   4219      9     0.00   0.41840   2 ;   C114-  C113-  C112-  C111
  4210   4213   4216   4219      9     0.00   0.41840   4 ;   C114-  C113-  C112-  C111
  4210   4213   4216   4219      9     0.00   0.41840   5 ;   C114-  C113-  C112-  C111
  4210   4213   4216   4219      9     0.00   1.25520   3 ;   C114-  C113-  C112-  C111
  4211   4210   4213   4214      9     0.00   0.62760   3 ;   H14R-  C114-  C113-  H13R
  4211   4210   4213   4215      9     0.00   0.62760   3 ;   H14R-  C114-  C113-  H13S
  4211   4210   4213   4216      9     0.00   0.66944   3 ;   H14R-  C114-  C113-  C112
  4212   4210   4213   4214      9     0.00   0.62760   3 ;   H14S-  C114-  C113-  H13R
  4212   4210   4213   4215      9     0.00   0.62760   3 ;   H14S-  C114-  C113-  H13S
  4212   4210   4213   4216      9     0.00   0.66944   3 ;   H14S-  C114-  C113-  C112
  4213   4216   4219   4220      9     0.00   0.66944   3 ;   C113-  C112-  C111-  H11R
  4213   4216   4219   4221      9     0.00   0.66944   3 ;   C113-  C112-  C111-  H11S
  4213   4216   4219   4222      9     0.00   0.41840   1 ;   C113-  C112-  C111-  C110
  4213   4216   4219   4222      9     0.00   0.41840   2 ;   C113-  C112-  C111-  C110
  4213   4216   4219   4222      9     0.00   0.41840   4 ;   C113-  C112-  C111-  C110
  4213   4216   4219   4222      9     0.00   0.41840   5 ;   C113-  C112-  C111-  C110
  4213   4216   4219   4222      9     0.00   1.25520   3 ;   C113-  C112-  C111-  C110
  4214   4213   4216   4217      9     0.00   0.62760   3 ;   H13R-  C113-  C112-  H12R
  4214   4213   4216   4218      9     0.00   0.62760   3 ;   H13R-  C113-  C112-  H12S
  4214   4213   4216   4219      9     0.00   0.66944   3 ;   H13R-  C113-  C112-  C111
  4215   4213   4216   4217      9     0.00   0.62760   3 ;   H13S-  C113-  C112-  H12R
  4215   4213   4216   4218      9     0.00   0.62760   3 ;   H13S-  C113-  C112-  H12S
  4215   4213   4216   4219      9     0.00   0.66944   3 ;   H13S-  C113-  C112-  C111
  4216   4219   4222   4223      9     0.00   0.66944   3 ;   C112-  C111-  C110-  H10R
  4216   4219   4222   4224      9     0.00   0.66944   3 ;   C112-  C111-  C110-  H10S
  4216   4219   4222   4225      9     0.00   0.41840   1 ;   C112-  C111-  C110-   C19
  4216   4219   4222   4225      9     0.00   0.41840   2 ;   C112-  C111-  C110-   C19
  4216   4219   4222   4225      9     0.00   0.41840   4 ;   C112-  C111-  C110-   C19
  4216   4219   4222   4225      9     0.00   0.41840   5 ;   C112-  C111-  C110-   C19
  4216   4219   4222   4225      9     0.00   1.25520   3 ;   C112-  C111-  C110-   C19
  4217   4216   4219   4220      9     0.00   0.62760   3 ;   H12R-  C112-  C111-  H11R
  4217   4216   4219   4221      9     0.00   0.62760   3 ;   H12R-  C112-  C111-  H11S
  4217   4216   4219   4222      9     0.00   0.66944   3 ;   H12R-  C112-  C111-  C110
  4218   4216   4219   4220      9     0.00   0.62760   3 ;   H12S-  C112-  C111-  H11R
  4218   4216   4219   4221      9     0.00   0.62760   3 ;   H12S-  C112-  C111-  H11S
  4218   4216   4219   4222      9     0.00   0.66944   3 ;   H12S-  C112-  C111-  C110
  4219   4222   4225   4226      9     0.00   0.66944   3 ;   C111-  C110-   C19-   H9R
  4219   4222   4225   4227      9     0.00   0.66944   3 ;   C111-  C110-   C19-   H9S
  4219   4222   4225   4228      9     0.00   0.41840   1 ;   C111-  C110-   C19-   C18
  4219   4222   4225   4228      9     0.00   0.41840   2 ;   C111-  C110-   C19-   C18
  4219   4222   4225   4228      9     0.00   0.41840   4 ;   C111-  C110-   C19-   C18
  4219   4222   4225   4228      9     0.00   0.41840   5 ;   C111-  C110-   C19-   C18
  4219   4222   4225   4228      9     0.00   1.25520   3 ;   C111-  C110-   C19-   C18
  4220   4219   4222   4223      9     0.00   0.62760   3 ;   H11R-  C111-  C110-  H10R
  4220   4219   4222   4224      9     0.00   0.62760   3 ;   H11R-  C111-  C110-  H10S
  4220   4219   4222   4225      9     0.00   0.66944   3 ;   H11R-  C111-  C110-   C19
  4221   4219   4222   4223      9     0.00   0.62760   3 ;   H11S-  C111-  C110-  H10R
  4221   4219   4222   4224      9     0.00   0.62760   3 ;   H11S-  C111-  C110-  H10S
  4221   4219   4222   4225      9     0.00   0.66944   3 ;   H11S-  C111-  C110-   C19
  4222   4225   4228   4229      9     0.00   0.66944   3 ;   C110-   C19-   C18-   H8R
  4222   4225   4228   4230      9     0.00   0.66944   3 ;   C110-   C19-   C18-   H8S
  4222   4225   4228   4231      9     0.00   0.41840   1 ;   C110-   C19-   C18-   C17
  4222   4225   4228   4231      9     0.00   0.41840   2 ;   C110-   C19-   C18-   C17
  4222   4225   4228   4231      9     0.00   0.41840   4 ;   C110-   C19-   C18-   C17
  4222   4225   4228   4231      9     0.00   0.41840   5 ;   C110-   C19-   C18-   C17
  4222   4225   4228   4231      9     0.00   1.25520   3 ;   C110-   C19-   C18-   C17
  4223   4222   4225   4226      9     0.00   0.62760   3 ;   H10R-  C110-   C19-   H9R
  4223   4222   4225   4227      9     0.00   0.62760   3 ;   H10R-  C110-   C19-   H9S
  4223   4222   4225   4228      9     0.00   0.66944   3 ;   H10R-  C110-   C19-   C18
  4224   4222   4225   4226      9     0.00   0.62760   3 ;   H10S-  C110-   C19-   H9R
  4224   4222   4225   4227      9     0.00   0.62760   3 ;   H10S-  C110-   C19-   H9S
  4224   4222   4225   4228      9     0.00   0.66944   3 ;   H10S-  C110-   C19-   C18
  4225   4228   4231   4232      9     0.00   0.66944   3 ;    C19-   C18-   C17-   H7R
  4225   4228   4231   4233      9     0.00   0.66944   3 ;    C19-   C18-   C17-   H7S
  4225   4228   4231   4234      9     0.00   0.41840   1 ;    C19-   C18-   C17-   C16
  4225   4228   4231   4234      9     0.00   0.41840   2 ;    C19-   C18-   C17-   C16
  4225   4228   4231   4234      9     0.00   0.41840   4 ;    C19-   C18-   C17-   C16
  4225   4228   4231   4234      9     0.00   0.41840   5 ;    C19-   C18-   C17-   C16
  4225   4228   4231   4234      9     0.00   1.25520   3 ;    C19-   C18-   C17-   C16
  4226   4225   4228   4229      9     0.00   0.62760   3 ;    H9R-   C19-   C18-   H8R
  4226   4225   4228   4230      9     0.00   0.62760   3 ;    H9R-   C19-   C18-   H8S
  4226   4225   4228   4231      9     0.00   0.66944   3 ;    H9R-   C19-   C18-   C17
  4227   4225   4228   4229      9     0.00   0.62760   3 ;    H9S-   C19-   C18-   H8R
  4227   4225   4228   4230      9     0.00   0.62760   3 ;    H9S-   C19-   C18-   H8S
  4227   4225   4228   4231      9     0.00   0.66944   3 ;    H9S-   C19-   C18-   C17
  4228   4231   4234   4235      9     0.00   0.66944   3 ;    C18-   C17-   C16-   H6R
  4228   4231   4234   4236      9     0.00   0.66944   3 ;    C18-   C17-   C16-   H6S
  4228   4231   4234   4237      9     0.00   0.41840   1 ;    C18-   C17-   C16-   C15
  4228   4231   4234   4237      9     0.00   0.41840   2 ;    C18-   C17-   C16-   C15
  4228   4231   4234   4237      9     0.00   0.41840   4 ;    C18-   C17-   C16-   C15
  4228   4231   4234   4237      9     0.00   0.41840   5 ;    C18-   C17-   C16-   C15
  4228   4231   4234   4237      9     0.00   1.25520   3 ;    C18-   C17-   C16-   C15
  4229   4228   4231   4232      9     0.00   0.62760   3 ;    H8R-   C18-   C17-   H7R
  4229   4228   4231   4233      9     0.00   0.62760   3 ;    H8R-   C18-   C17-   H7S
  4229   4228   4231   4234      9     0.00   0.66944   3 ;    H8R-   C18-   C17-   C16
  4230   4228   4231   4232      9     0.00   0.62760   3 ;    H8S-   C18-   C17-   H7R
  4230   4228   4231   4233      9     0.00   0.62760   3 ;    H8S-   C18-   C17-   H7S
  4230   4228   4231   4234      9     0.00   0.66944   3 ;    H8S-   C18-   C17-   C16
  4231   4234   4237   4238      9     0.00   0.66944   3 ;    C17-   C16-   C15-   H5R
  4231   4234   4237   4239      9     0.00   0.66944   3 ;    C17-   C16-   C15-   H5S
  4231   4234   4237   4240      9     0.00   0.41840   1 ;    C17-   C16-   C15-   C14
  4231   4234   4237   4240      9     0.00   0.41840   2 ;    C17-   C16-   C15-   C14
  4231   4234   4237   4240      9     0.00   0.41840   4 ;    C17-   C16-   C15-   C14
  4231   4234   4237   4240      9     0.00   0.41840   5 ;    C17-   C16-   C15-   C14
  4231   4234   4237   4240      9     0.00   1.25520   3 ;    C17-   C16-   C15-   C14
  4232   4231   4234   4235      9     0.00   0.62760   3 ;    H7R-   C17-   C16-   H6R
  4232   4231   4234   4236      9     0.00   0.62760   3 ;    H7R-   C17-   C16-   H6S
  4232   4231   4234   4237      9     0.00   0.66944   3 ;    H7R-   C17-   C16-   C15
  4233   4231   4234   4235      9     0.00   0.62760   3 ;    H7S-   C17-   C16-   H6R
  4233   4231   4234   4236      9     0.00   0.62760   3 ;    H7S-   C17-   C16-   H6S
  4233   4231   4234   4237      9     0.00   0.66944   3 ;    H7S-   C17-   C16-   C15
  4234   4237   4240   4241      9     0.00   0.66944   3 ;    C16-   C15-   C14-   H4R
  4234   4237   4240   4242      9     0.00   0.66944   3 ;    C16-   C15-   C14-   H4S
  4234   4237   4240   4243      9     0.00   0.41840   1 ;    C16-   C15-   C14-   C13
  4234   4237   4240   4243      9     0.00   0.41840   2 ;    C16-   C15-   C14-   C13
  4234   4237   4240   4243      9     0.00   0.41840   4 ;    C16-   C15-   C14-   C13
  4234   4237   4240   4243      9     0.00   0.41840   5 ;    C16-   C15-   C14-   C13
  4234   4237   4240   4243      9     0.00   1.25520   3 ;    C16-   C15-   C14-   C13
  4235   4234   4237   4238      9     0.00   0.62760   3 ;    H6R-   C16-   C15-   H5R
  4235   4234   4237   4239      9     0.00   0.62760   3 ;    H6R-   C16-   C15-   H5S
  4235   4234   4237   4240      9     0.00   0.66944   3 ;    H6R-   C16-   C15-   C14
  4236   4234   4237   4238      9     0.00   0.62760   3 ;    H6S-   C16-   C15-   H5R
  4236   4234   4237   4239      9     0.00   0.62760   3 ;    H6S-   C16-   C15-   H5S
  4236   4234   4237   4240      9     0.00   0.66944   3 ;    H6S-   C16-   C15-   C14
  4237   4240   4243   4244      9     0.00   0.66944   3 ;    C15-   C14-   C13-   H3R
  4237   4240   4243   4245      9     0.00   0.66944   3 ;    C15-   C14-   C13-   H3S
  4237   4240   4243   4246      9     0.00   0.41840   1 ;    C15-   C14-   C13-   C12
  4237   4240   4243   4246      9     0.00   0.41840   2 ;    C15-   C14-   C13-   C12
  4237   4240   4243   4246      9     0.00   0.41840   4 ;    C15-   C14-   C13-   C12
  4237   4240   4243   4246      9     0.00   0.41840   5 ;    C15-   C14-   C13-   C12
  4237   4240   4243   4246      9     0.00   1.25520   3 ;    C15-   C14-   C13-   C12
  4238   4237   4240   4241      9     0.00   0.62760   3 ;    H5R-   C15-   C14-   H4R
  4238   4237   4240   4242      9     0.00   0.62760   3 ;    H5R-   C15-   C14-   H4S
  4238   4237   4240   4243      9     0.00   0.66944   3 ;    H5R-   C15-   C14-   C13
  4239   4237   4240   4241      9     0.00   0.62760   3 ;    H5S-   C15-   C14-   H4R
  4239   4237   4240   4242      9     0.00   0.62760   3 ;    H5S-   C15-   C14-   H4S
  4239   4237   4240   4243      9     0.00   0.66944   3 ;    H5S-   C15-   C14-   C13
  4240   4243   4246   4247      9     0.00   0.66944   3 ;    C14-   C13-   C12-   H2R
  4240   4243   4246   4248      9     0.00   0.66944   3 ;    C14-   C13-   C12-   H2S
  4241   4240   4243   4244      9     0.00   0.62760   3 ;    H4R-   C14-   C13-   H3R
  4241   4240   4243   4245      9     0.00   0.62760   3 ;    H4R-   C14-   C13-   H3S
  4241   4240   4243   4246      9     0.00   0.66944   3 ;    H4R-   C14-   C13-   C12
  4242   4240   4243   4244      9     0.00   0.62760   3 ;    H4S-   C14-   C13-   H3R
  4242   4240   4243   4245      9     0.00   0.62760   3 ;    H4S-   C14-   C13-   H3S
  4242   4240   4243   4246      9     0.00   0.66944   3 ;    H4S-   C14-   C13-   C12
  4244   4243   4246   4247      9     0.00   0.62760   3 ;    H3R-   C13-   C12-   H2R
  4244   4243   4246   4248      9     0.00   0.62760   3 ;    H3R-   C13-   C12-   H2S
  4245   4243   4246   4247      9     0.00   0.62760   3 ;    H3S-   C13-   C12-   H2R
  4245   4243   4246   4248      9     0.00   0.62760   3 ;    H3S-   C13-   C12-   H2S
  4249   4250   4253   4254      9     0.00   0.62760   3 ;   H14T-  C114-  C113-  H13R
  4249   4250   4253   4255      9     0.00   0.62760   3 ;   H14T-  C114-  C113-  H13S
  4249   4250   4253   4256      9     0.00   0.66944   3 ;   H14T-  C114-  C113-  C112
  4250   4253   4256   4257      9     0.00   0.66944   3 ;   C114-  C113-  C112-  H12R
  4250   4253   4256   4258      9     0.00   0.66944   3 ;   C114-  C113-  C112-  H12S
  4250   4253   4256   4259      9     0.00   0.41840   1 ;   C114-  C113-  C112-  C111
  4250   4253   4256   4259      9     0.00   0.41840   2 ;   C114-  C113-  C112-  C111
  4250   4253   4256   4259      9     0.00   0.41840   4 ;   C114-  C113-  C112-  C111
  4250   4253   4256   4259      9     0.00   0.41840   5 ;   C114-  C113-  C112-  C111
  4250   4253   4256   4259      9     0.00   1.25520   3 ;   C114-  C113-  C112-  C111
  4251   4250   4253   4254      9     0.00   0.62760   3 ;   H14R-  C114-  C113-  H13R
  4251   4250   4253   4255      9     0.00   0.62760   3 ;   H14R-  C114-  C113-  H13S
  4251   4250   4253   4256      9     0.00   0.66944   3 ;   H14R-  C114-  C113-  C112
  4252   4250   4253   4254      9     0.00   0.62760   3 ;   H14S-  C114-  C113-  H13R
  4252   4250   4253   4255      9     0.00   0.62760   3 ;   H14S-  C114-  C113-  H13S
  4252   4250   4253   4256      9     0.00   0.66944   3 ;   H14S-  C114-  C113-  C112
  4253   4256   4259   4260      9     0.00   0.66944   3 ;   C113-  C112-  C111-  H11R
  4253   4256   4259   4261      9     0.00   0.66944   3 ;   C113-  C112-  C111-  H11S
  4253   4256   4259   4262      9     0.00   0.41840   1 ;   C113-  C112-  C111-  C110
  4253   4256   4259   4262      9     0.00   0.41840   2 ;   C113-  C112-  C111-  C110
  4253   4256   4259   4262      9     0.00   0.41840   4 ;   C113-  C112-  C111-  C110
  4253   4256   4259   4262      9     0.00   0.41840   5 ;   C113-  C112-  C111-  C110
  4253   4256   4259   4262      9     0.00   1.25520   3 ;   C113-  C112-  C111-  C110
  4254   4253   4256   4257      9     0.00   0.62760   3 ;   H13R-  C113-  C112-  H12R
  4254   4253   4256   4258      9     0.00   0.62760   3 ;   H13R-  C113-  C112-  H12S
  4254   4253   4256   4259      9     0.00   0.66944   3 ;   H13R-  C113-  C112-  C111
  4255   4253   4256   4257      9     0.00   0.62760   3 ;   H13S-  C113-  C112-  H12R
  4255   4253   4256   4258      9     0.00   0.62760   3 ;   H13S-  C113-  C112-  H12S
  4255   4253   4256   4259      9     0.00   0.66944   3 ;   H13S-  C113-  C112-  C111
  4256   4259   4262   4263      9     0.00   0.66944   3 ;   C112-  C111-  C110-  H10R
  4256   4259   4262   4264      9     0.00   0.66944   3 ;   C112-  C111-  C110-  H10S
  4256   4259   4262   4265      9     0.00   0.41840   1 ;   C112-  C111-  C110-   C19
  4256   4259   4262   4265      9     0.00   0.41840   2 ;   C112-  C111-  C110-   C19
  4256   4259   4262   4265      9     0.00   0.41840   4 ;   C112-  C111-  C110-   C19
  4256   4259   4262   4265      9     0.00   0.41840   5 ;   C112-  C111-  C110-   C19
  4256   4259   4262   4265      9     0.00   1.25520   3 ;   C112-  C111-  C110-   C19
  4257   4256   4259   4260      9     0.00   0.62760   3 ;   H12R-  C112-  C111-  H11R
  4257   4256   4259   4261      9     0.00   0.62760   3 ;   H12R-  C112-  C111-  H11S
  4257   4256   4259   4262      9     0.00   0.66944   3 ;   H12R-  C112-  C111-  C110
  4258   4256   4259   4260      9     0.00   0.62760   3 ;   H12S-  C112-  C111-  H11R
  4258   4256   4259   4261      9     0.00   0.62760   3 ;   H12S-  C112-  C111-  H11S
  4258   4256   4259   4262      9     0.00   0.66944   3 ;   H12S-  C112-  C111-  C110
  4259   4262   4265   4266      9     0.00   0.66944   3 ;   C111-  C110-   C19-   H9R
  4259   4262   4265   4267      9     0.00   0.66944   3 ;   C111-  C110-   C19-   H9S
  4259   4262   4265   4268      9     0.00   0.41840   1 ;   C111-  C110-   C19-   C18
  4259   4262   4265   4268      9     0.00   0.41840   2 ;   C111-  C110-   C19-   C18
  4259   4262   4265   4268      9     0.00   0.41840   4 ;   C111-  C110-   C19-   C18
  4259   4262   4265   4268      9     0.00   0.41840   5 ;   C111-  C110-   C19-   C18
  4259   4262   4265   4268      9     0.00   1.25520   3 ;   C111-  C110-   C19-   C18
  4260   4259   4262   4263      9     0.00   0.62760   3 ;   H11R-  C111-  C110-  H10R
  4260   4259   4262   4264      9     0.00   0.62760   3 ;   H11R-  C111-  C110-  H10S
  4260   4259   4262   4265      9     0.00   0.66944   3 ;   H11R-  C111-  C110-   C19
  4261   4259   4262   4263      9     0.00   0.62760   3 ;   H11S-  C111-  C110-  H10R
  4261   4259   4262   4264      9     0.00   0.62760   3 ;   H11S-  C111-  C110-  H10S
  4261   4259   4262   4265      9     0.00   0.66944   3 ;   H11S-  C111-  C110-   C19
  4262   4265   4268   4269      9     0.00   0.66944   3 ;   C110-   C19-   C18-   H8R
  4262   4265   4268   4270      9     0.00   0.66944   3 ;   C110-   C19-   C18-   H8S
  4262   4265   4268   4271      9     0.00   0.41840   1 ;   C110-   C19-   C18-   C17
  4262   4265   4268   4271      9     0.00   0.41840   2 ;   C110-   C19-   C18-   C17
  4262   4265   4268   4271      9     0.00   0.41840   4 ;   C110-   C19-   C18-   C17
  4262   4265   4268   4271      9     0.00   0.41840   5 ;   C110-   C19-   C18-   C17
  4262   4265   4268   4271      9     0.00   1.25520   3 ;   C110-   C19-   C18-   C17
  4263   4262   4265   4266      9     0.00   0.62760   3 ;   H10R-  C110-   C19-   H9R
  4263   4262   4265   4267      9     0.00   0.62760   3 ;   H10R-  C110-   C19-   H9S
  4263   4262   4265   4268      9     0.00   0.66944   3 ;   H10R-  C110-   C19-   C18
  4264   4262   4265   4266      9     0.00   0.62760   3 ;   H10S-  C110-   C19-   H9R
  4264   4262   4265   4267      9     0.00   0.62760   3 ;   H10S-  C110-   C19-   H9S
  4264   4262   4265   4268      9     0.00   0.66944   3 ;   H10S-  C110-   C19-   C18
  4265   4268   4271   4272      9     0.00   0.66944   3 ;    C19-   C18-   C17-   H7R
  4265   4268   4271   4273      9     0.00   0.66944   3 ;    C19-   C18-   C17-   H7S
  4265   4268   4271   4274      9     0.00   0.41840   1 ;    C19-   C18-   C17-   C16
  4265   4268   4271   4274      9     0.00   0.41840   2 ;    C19-   C18-   C17-   C16
  4265   4268   4271   4274      9     0.00   0.41840   4 ;    C19-   C18-   C17-   C16
  4265   4268   4271   4274      9     0.00   0.41840   5 ;    C19-   C18-   C17-   C16
  4265   4268   4271   4274      9     0.00   1.25520   3 ;    C19-   C18-   C17-   C16
  4266   4265   4268   4269      9     0.00   0.62760   3 ;    H9R-   C19-   C18-   H8R
  4266   4265   4268   4270      9     0.00   0.62760   3 ;    H9R-   C19-   C18-   H8S
  4266   4265   4268   4271      9     0.00   0.66944   3 ;    H9R-   C19-   C18-   C17
  4267   4265   4268   4269      9     0.00   0.62760   3 ;    H9S-   C19-   C18-   H8R
  4267   4265   4268   4270      9     0.00   0.62760   3 ;    H9S-   C19-   C18-   H8S
  4267   4265   4268   4271      9     0.00   0.66944   3 ;    H9S-   C19-   C18-   C17
  4268   4271   4274   4275      9     0.00   0.66944   3 ;    C18-   C17-   C16-   H6R
  4268   4271   4274   4276      9     0.00   0.66944   3 ;    C18-   C17-   C16-   H6S
  4268   4271   4274   4277      9     0.00   0.41840   1 ;    C18-   C17-   C16-   C15
  4268   4271   4274   4277      9     0.00   0.41840   2 ;    C18-   C17-   C16-   C15
  4268   4271   4274   4277      9     0.00   0.41840   4 ;    C18-   C17-   C16-   C15
  4268   4271   4274   4277      9     0.00   0.41840   5 ;    C18-   C17-   C16-   C15
  4268   4271   4274   4277      9     0.00   1.25520   3 ;    C18-   C17-   C16-   C15
  4269   4268   4271   4272      9     0.00   0.62760   3 ;    H8R-   C18-   C17-   H7R
  4269   4268   4271   4273      9     0.00   0.62760   3 ;    H8R-   C18-   C17-   H7S
  4269   4268   4271   4274      9     0.00   0.66944   3 ;    H8R-   C18-   C17-   C16
  4270   4268   4271   4272      9     0.00   0.62760   3 ;    H8S-   C18-   C17-   H7R
  4270   4268   4271   4273      9     0.00   0.62760   3 ;    H8S-   C18-   C17-   H7S
  4270   4268   4271   4274      9     0.00   0.66944   3 ;    H8S-   C18-   C17-   C16
  4271   4274   4277   4278      9     0.00   0.66944   3 ;    C17-   C16-   C15-   H5R
  4271   4274   4277   4279      9     0.00   0.66944   3 ;    C17-   C16-   C15-   H5S
  4271   4274   4277   4280      9     0.00   0.41840   1 ;    C17-   C16-   C15-   C14
  4271   4274   4277   4280      9     0.00   0.41840   2 ;    C17-   C16-   C15-   C14
  4271   4274   4277   4280      9     0.00   0.41840   4 ;    C17-   C16-   C15-   C14
  4271   4274   4277   4280      9     0.00   0.41840   5 ;    C17-   C16-   C15-   C14
  4271   4274   4277   4280      9     0.00   1.25520   3 ;    C17-   C16-   C15-   C14
  4272   4271   4274   4275      9     0.00   0.62760   3 ;    H7R-   C17-   C16-   H6R
  4272   4271   4274   4276      9     0.00   0.62760   3 ;    H7R-   C17-   C16-   H6S
  4272   4271   4274   4277      9     0.00   0.66944   3 ;    H7R-   C17-   C16-   C15
  4273   4271   4274   4275      9     0.00   0.62760   3 ;    H7S-   C17-   C16-   H6R
  4273   4271   4274   4276      9     0.00   0.62760   3 ;    H7S-   C17-   C16-   H6S
  4273   4271   4274   4277      9     0.00   0.66944   3 ;    H7S-   C17-   C16-   C15
  4274   4277   4280   4281      9     0.00   0.66944   3 ;    C16-   C15-   C14-   H4R
  4274   4277   4280   4282      9     0.00   0.66944   3 ;    C16-   C15-   C14-   H4S
  4274   4277   4280   4283      9     0.00   0.41840   1 ;    C16-   C15-   C14-   C13
  4274   4277   4280   4283      9     0.00   0.41840   2 ;    C16-   C15-   C14-   C13
  4274   4277   4280   4283      9     0.00   0.41840   4 ;    C16-   C15-   C14-   C13
  4274   4277   4280   4283      9     0.00   0.41840   5 ;    C16-   C15-   C14-   C13
  4274   4277   4280   4283      9     0.00   1.25520   3 ;    C16-   C15-   C14-   C13
  4275   4274   4277   4278      9     0.00   0.62760   3 ;    H6R-   C16-   C15-   H5R
  4275   4274   4277   4279      9     0.00   0.62760   3 ;    H6R-   C16-   C15-   H5S
  4275   4274   4277   4280      9     0.00   0.66944   3 ;    H6R-   C16-   C15-   C14
  4276   4274   4277   4278      9     0.00   0.62760   3 ;    H6S-   C16-   C15-   H5R
  4276   4274   4277   4279      9     0.00   0.62760   3 ;    H6S-   C16-   C15-   H5S
  4276   4274   4277   4280      9     0.00   0.66944   3 ;    H6S-   C16-   C15-   C14
  4277   4280   4283   4284      9     0.00   0.66944   3 ;    C15-   C14-   C13-   H3R
  4277   4280   4283   4285      9     0.00   0.66944   3 ;    C15-   C14-   C13-   H3S
  4277   4280   4283   4286      9     0.00   0.41840   1 ;    C15-   C14-   C13-   C12
  4277   4280   4283   4286      9     0.00   0.41840   2 ;    C15-   C14-   C13-   C12
  4277   4280   4283   4286      9     0.00   0.41840   4 ;    C15-   C14-   C13-   C12
  4277   4280   4283   4286      9     0.00   0.41840   5 ;    C15-   C14-   C13-   C12
  4277   4280   4283   4286      9     0.00   1.25520   3 ;    C15-   C14-   C13-   C12
  4278   4277   4280   4281      9     0.00   0.62760   3 ;    H5R-   C15-   C14-   H4R
  4278   4277   4280   4282      9     0.00   0.62760   3 ;    H5R-   C15-   C14-   H4S
  4278   4277   4280   4283      9     0.00   0.66944   3 ;    H5R-   C15-   C14-   C13
  4279   4277   4280   4281      9     0.00   0.62760   3 ;    H5S-   C15-   C14-   H4R
  4279   4277   4280   4282      9     0.00   0.62760   3 ;    H5S-   C15-   C14-   H4S
  4279   4277   4280   4283      9     0.00   0.66944   3 ;    H5S-   C15-   C14-   C13
  4280   4283   4286   4287      9     0.00   0.66944   3 ;    C14-   C13-   C12-   H2R
  4280   4283   4286   4288      9     0.00   0.66944   3 ;    C14-   C13-   C12-   H2S
  4280   4283   4286   4289      9     0.00   0.65270   3 ;    C14-   C13-   C12-   C11
  4281   4280   4283   4284      9     0.00   0.62760   3 ;    H4R-   C14-   C13-   H3R
  4281   4280   4283   4285      9     0.00   0.62760   3 ;    H4R-   C14-   C13-   H3S
  4281   4280   4283   4286      9     0.00   0.66944   3 ;    H4R-   C14-   C13-   C12
  4282   4280   4283   4284      9     0.00   0.62760   3 ;    H4S-   C14-   C13-   H3R
  4282   4280   4283   4285      9     0.00   0.62760   3 ;    H4S-   C14-   C13-   H3S
  4282   4280   4283   4286      9     0.00   0.66944   3 ;    H4S-   C14-   C13-   C12
  4283   4286   4289   4290      9   180.00   0.00000   2 ;    C13-   C12-   C11-   O12
  4283   4286   4289   4291      9   180.00   0.00000   2 ;    C13-   C12-   C11-   O11
  4284   4283   4286   4287      9     0.00   0.62760   3 ;    H3R-   C13-   C12-   H2R
  4284   4283   4286   4288      9     0.00   0.62760   3 ;    H3R-   C13-   C12-   H2S
  4284   4283   4286   4289      9     0.00   0.65270   3 ;    H3R-   C13-   C12-   C11
  4285   4283   4286   4287      9     0.00   0.62760   3 ;    H3S-   C13-   C12-   H2R
  4285   4283   4286   4288      9     0.00   0.62760   3 ;    H3S-   C13-   C12-   H2S
  4285   4283   4286   4289      9     0.00   0.65270   3 ;    H3S-   C13-   C12-   C11
  4286   4289   4291   4292      9   180.00  11.29680   2 ;    C12-   C11-   O11-    C1
  4287   4286   4289   4290      9     0.00   3.34720   1 ;    H2R-   C12-   C11-   O12
  4287   4286   4289   4290      9   180.00   0.33472   3 ;    H2R-   C12-   C11-   O12
  4287   4286   4289   4291      9   180.00   0.00000   2 ;    H2R-   C12-   C11-   O11
  4288   4286   4289   4290      9     0.00   3.34720   1 ;    H2S-   C12-   C11-   O12
  4288   4286   4289   4290      9   180.00   0.33472   3 ;    H2S-   C12-   C11-   O12
  4288   4286   4289   4291      9   180.00   0.00000   2 ;    H2S-   C12-   C11-   O11
  4289   4291   4292   4293      9     0.00   1.60247   3 ;    C11-   O11-    C1-    HR
  4289   4291   4292   4294      9     0.00   1.60247   3 ;    C11-   O11-    C1-    HS
  4289   4291   4292   4295      9     0.00  -0.41840   1 ;    C11-   O11-    C1-    C2
  4290   4289   4291   4292      9   180.00   5.85760   1 ;    O12-   C11-   O11-    C1
  4290   4289   4291   4292      9   180.00  11.29680   2 ;    O12-   C11-   O11-    C1
  4291   4292   4295   4296      9     0.00   0.00000   0 ;    O11-    C1-    C2-    HX
  4291   4292   4295   4296      9     0.00   1.04600   1 ;    O11-    C1-    C2-    HX
  4291   4292   4295   4297      9     0.00   0.00000   0 ;    O11-    C1-    C2-    C3
  4291   4292   4295   4297      9     0.00   0.00000   0 ;    O11-    C1-    C2-    C3
  4291   4292   4295   4297      9     0.00   0.00000   0 ;    O11-    C1-    C2-    C3
  4291   4292   4295   4297      9     0.00   0.00000   0 ;    O11-    C1-    C2-    C3
  4291   4292   4295   4297      9     0.00   0.00000   0 ;    O11-    C1-    C2-    C3
  4291   4292   4295   4324      9     0.00   1.25520   2 ;    O11-    C1-    C2-   O21
  4291   4292   4295   4324      9     0.00   4.18400   3 ;    O11-    C1-    C2-   O21
  4291   4292   4295   4324      9   180.00  -0.41840   1 ;    O11-    C1-    C2-   O21
  4292   4295   4297   4298      9     0.00   0.65270   3 ;     C1-    C2-    C3-    HA
  4292   4295   4297   4299      9     0.00   0.65270   3 ;     C1-    C2-    C3-    HB
  4292   4295   4297   4300      9   180.00   3.34720   1 ;     C1-    C2-    C3-   O31
  4292   4295   4324   4325      9     0.00  -0.41840   1 ;     C1-    C2-   O21-   C21
  4293   4292   4295   4296      9     0.00   0.65270   3 ;     HR-    C1-    C2-    HX
  4293   4292   4295   4297      9     0.00   0.65270   3 ;     HR-    C1-    C2-    C3
  4293   4292   4295   4324      9     0.00   0.00000   0 ;     HR-    C1-    C2-   O21
  4293   4292   4295   4324      9     0.00   1.04600   1 ;     HR-    C1-    C2-   O21
  4294   4292   4295   4296      9     0.00   0.65270   3 ;     HS-    C1-    C2-    HX
  4294   4292   4295   4297      9     0.00   0.65270   3 ;     HS-    C1-    C2-    C3
  4294   4292   4295   4324      9     0.00   0.00000   0 ;     HS-    C1-    C2-   O21
  4294   4292   4295   4324      9     0.00   1.04600   1 ;     HS-    C1-    C2-   O21
  4295   4297   4300   4301      9     0.00   0.00000   0 ;     C2-    C3-   O31-   P31
  4295   4297   4300   4301      9   180.00  -3.34720   2 ;     C2-    C3-   O31-   P31
  4295   4324   4325   4326      9   180.00   5.85760   1 ;     C2-   O21-   C21-   O22
  4295   4324   4325   4326      9   180.00  11.29680   2 ;     C2-   O21-   C21-   O22
  4295   4324   4325   4364      9   180.00  11.29680   2 ;     C2-   O21-   C21-   C12
  4296   4295   4297   4298      9     0.00   0.65270   3 ;     HX-    C2-    C3-    HA
  4296   4295   4297   4299      9     0.00   0.65270   3 ;     HX-    C2-    C3-    HB
  4296   4295   4297   4300      9     0.00   0.00000   0 ;     HX-    C2-    C3-   O31
  4296   4295   4297   4300      9     0.00   1.04600   1 ;     HX-    C2-    C3-   O31
  4296   4295   4324   4325      9     0.00   1.60247   3 ;     HX-    C2-   O21-   C21
  4297   4295   4324   4325      9     0.00  -0.41840   1 ;     C3-    C2-   O21-   C21
  4297   4300   4301   4302      9     0.00   2.51040   3 ;     C3-   O31-   P31-   O32
  4297   4300   4301   4302      9     0.00   9.62320   2 ;     C3-   O31-   P31-   O32
  4297   4300   4301   4322      9     0.00   0.00000   0 ;     C3-   O31-   P31-   O33
  4297   4300   4301   4322      9     0.00   0.00000   0 ;     C3-   O31-   P31-   O33
  4297   4300   4301   4322      9     0.00   0.00000   0 ;     C3-   O31-   P31-   O33
  4297   4300   4301   4322      9     0.00   0.00000   0 ;     C3-   O31-   P31-   O33
  4297   4300   4301   4322      9     0.00   0.83680   2 ;     C3-   O31-   P31-   O33
  4297   4300   4301   4323      9     0.00   0.00000   0 ;     C3-   O31-   P31-   O34
  4297   4300   4301   4323      9     0.00   0.00000   0 ;     C3-   O31-   P31-   O34
  4297   4300   4301   4323      9     0.00   0.00000   0 ;     C3-   O31-   P31-   O34
  4297   4300   4301   4323      9     0.00   0.00000   0 ;     C3-   O31-   P31-   O34
  4297   4300   4301   4323      9     0.00   0.83680   2 ;     C3-   O31-   P31-   O34
  4298   4297   4295   4324      9     0.00   0.00000   0 ;     HA-    C3-    C2-   O21
  4298   4297   4295   4324      9     0.00   1.04600   1 ;     HA-    C3-    C2-   O21
  4298   4297   4300   4301      9     0.00   0.00000   0 ;     HA-    C3-   O31-   P31
  4298   4297   4300   4301      9     0.00   0.00000   0 ;     HA-    C3-   O31-   P31
  4298   4297   4300   4301      9     0.00   0.00000   0 ;     HA-    C3-   O31-   P31
  4298   4297   4300   4301      9     0.00   0.00000   0 ;     HA-    C3-   O31-   P31
  4298   4297   4300   4301      9     0.00   1.60247   3 ;     HA-    C3-   O31-   P31
  4299   4297   4295   4324      9     0.00   0.00000   0 ;     HB-    C3-    C2-   O21
  4299   4297   4295   4324      9     0.00   1.04600   1 ;     HB-    C3-    C2-   O21
  4299   4297   4300   4301      9     0.00   0.00000   0 ;     HB-    C3-   O31-   P31
  4299   4297   4300   4301      9     0.00   0.00000   0 ;     HB-    C3-   O31-   P31
  4299   4297   4300   4301      9     0.00   0.00000   0 ;     HB-    C3-   O31-   P31
  4299   4297   4300   4301      9     0.00   0.00000   0 ;     HB-    C3-   O31-   P31
  4299   4297   4300   4301      9     0.00   1.60247   3 ;     HB-    C3-   O31-   P31
  4300   4297   4295   4324      9     0.00   0.00000   0 ;    O31-    C3-    C2-   O21
  4300   4297   4295   4324      9     0.00   0.00000   0 ;    O31-    C3-    C2-   O21
  4300   4297   4295   4324      9     0.00   0.00000   0 ;    O31-    C3-    C2-   O21
  4300   4297   4295   4324      9     0.00   0.00000   0 ;    O31-    C3-    C2-   O21
  4300   4297   4295   4324      9     0.00   0.00000   0 ;    O31-    C3-    C2-   O21
  4300   4301   4302   4303      9     0.00   2.51040   3 ;    O31-   P31-   O32-   C31
  4300   4301   4302   4303      9     0.00   9.62320   2 ;    O31-   P31-   O32-   C31
  4301   4302   4303   4304      9     0.00   0.00000   0 ;    P31-   O32-   C31-   H1A
  4301   4302   4303   4304      9     0.00   0.00000   0 ;    P31-   O32-   C31-   H1A
  4301   4302   4303   4304      9     0.00   0.00000   0 ;    P31-   O32-   C31-   H1A
  4301   4302   4303   4304      9     0.00   0.00000   0 ;    P31-   O32-   C31-   H1A
  4301   4302   4303   4304      9     0.00   1.60247   3 ;    P31-   O32-   C31-   H1A
  4301   4302   4303   4305      9     0.00   0.00000   0 ;    P31-   O32-   C31-   H1B
  4301   4302   4303   4305      9     0.00   0.00000   0 ;    P31-   O32-   C31-   H1B
  4301   4302   4303   4305      9     0.00   0.00000   0 ;    P31-   O32-   C31-   H1B
  4301   4302   4303   4305      9     0.00   0.00000   0 ;    P31-   O32-   C31-   H1B
  4301   4302   4303   4305      9     0.00   1.60247   3 ;    P31-   O32-   C31-   H1B
  4301   4302   4303   4306      9     0.00   0.00000   0 ;    P31-   O32-   C31-   C32
  4301   4302   4303   4306      9   180.00  -3.34720   2 ;    P31-   O32-   C31-   C32
  4302   4303   4306   4307      9     0.00   0.65270   3 ;    O32-   C31-   C32-   H2A
  4302   4303   4306   4308      9     0.00   0.65270   3 ;    O32-   C31-   C32-   H2B
  4302   4303   4306   4309      9     0.00   4.18400   3 ;    O32-   C31-   C32-   N31
  4303   4302   4301   4322      9     0.00   0.00000   0 ;    C31-   O32-   P31-   O33
  4303   4302   4301   4322      9     0.00   0.00000   0 ;    C31-   O32-   P31-   O33
  4303   4302   4301   4322      9     0.00   0.00000   0 ;    C31-   O32-   P31-   O33
  4303   4302   4301   4322      9     0.00   0.00000   0 ;    C31-   O32-   P31-   O33
  4303   4302   4301   4322      9     0.00   0.83680   2 ;    C31-   O32-   P31-   O33
  4303   4302   4301   4323      9     0.00   0.00000   0 ;    C31-   O32-   P31-   O34
  4303   4302   4301   4323      9     0.00   0.00000   0 ;    C31-   O32-   P31-   O34
  4303   4302   4301   4323      9     0.00   0.00000   0 ;    C31-   O32-   P31-   O34
  4303   4302   4301   4323      9     0.00   0.00000   0 ;    C31-   O32-   P31-   O34
  4303   4302   4301   4323      9     0.00   0.83680   2 ;    C31-   O32-   P31-   O34
  4303   4306   4309   4310      9     0.00   0.65270   3 ;    C31-   C32-   N31-   C33
  4303   4306   4309   4314      9     0.00   0.65270   3 ;    C31-   C32-   N31-   C34
  4303   4306   4309   4318      9     0.00   0.65270   3 ;    C31-   C32-   N31-   C35
  4304   4303   4306   4307      9     0.00   0.65270   3 ;    H1A-   C31-   C32-   H2A
  4304   4303   4306   4308      9     0.00   0.65270   3 ;    H1A-   C31-   C32-   H2B
  4304   4303   4306   4309      9     0.00   0.65270   3 ;    H1A-   C31-   C32-   N31
  4305   4303   4306   4307      9     0.00   0.65270   3 ;    H1B-   C31-   C32-   H2A
  4305   4303   4306   4308      9     0.00   0.65270   3 ;    H1B-   C31-   C32-   H2B
  4305   4303   4306   4309      9     0.00   0.65270   3 ;    H1B-   C31-   C32-   N31
  4306   4309   4310   4311      9     0.00   0.65270   3 ;    C32-   N31-   C33-   H3A
  4306   4309   4310   4312      9     0.00   0.65270   3 ;    C32-   N31-   C33-   H3B
  4306   4309   4310   4313      9     0.00   0.65270   3 ;    C32-   N31-   C33-   H3C
  4306   4309   4314   4315      9     0.00   0.65270   3 ;    C32-   N31-   C34-   H4A
  4306   4309   4314   4316      9     0.00   0.65270   3 ;    C32-   N31-   C34-   H4B
  4306   4309   4314   4317      9     0.00   0.65270   3 ;    C32-   N31-   C34-   H4C
  4306   4309   4318   4319      9     0.00   0.65270   3 ;    C32-   N31-   C35-   H5A
  4306   4309   4318   4320      9     0.00   0.65270   3 ;    C32-   N31-   C35-   H5B
  4306   4309   4318   4321      9     0.00   0.65270   3 ;    C32-   N31-   C35-   H5C
  4307   4306   4309   4310      9     0.00   0.65270   3 ;    H2A-   C32-   N31-   C33
  4307   4306   4309   4314      9     0.00   0.65270   3 ;    H2A-   C32-   N31-   C34
  4307   4306   4309   4318      9     0.00   0.65270   3 ;    H2A-   C32-   N31-   C35
  4308   4306   4309   4310      9     0.00   0.65270   3 ;    H2B-   C32-   N31-   C33
  4308   4306   4309   4314      9     0.00   0.65270   3 ;    H2B-   C32-   N31-   C34
  4308   4306   4309   4318      9     0.00   0.65270   3 ;    H2B-   C32-   N31-   C35
  4310   4309   4314   4315      9     0.00   0.65270   3 ;    C33-   N31-   C34-   H4A
  4310   4309   4314   4316      9     0.00   0.65270   3 ;    C33-   N31-   C34-   H4B
  4310   4309   4314   4317      9     0.00   0.65270   3 ;    C33-   N31-   C34-   H4C
  4310   4309   4318   4319      9     0.00   0.65270   3 ;    C33-   N31-   C35-   H5A
  4310   4309   4318   4320      9     0.00   0.65270   3 ;    C33-   N31-   C35-   H5B
  4310   4309   4318   4321      9     0.00   0.65270   3 ;    C33-   N31-   C35-   H5C
  4311   4310   4309   4314      9     0.00   0.65270   3 ;    H3A-   C33-   N31-   C34
  4311   4310   4309   4318      9     0.00   0.65270   3 ;    H3A-   C33-   N31-   C35
  4312   4310   4309   4314      9     0.00   0.65270   3 ;    H3B-   C33-   N31-   C34
  4312   4310   4309   4318      9     0.00   0.65270   3 ;    H3B-   C33-   N31-   C35
  4313   4310   4309   4314      9     0.00   0.65270   3 ;    H3C-   C33-   N31-   C34
  4313   4310   4309   4318      9     0.00   0.65270   3 ;    H3C-   C33-   N31-   C35
  4314   4309   4318   4319      9     0.00   0.65270   3 ;    C34-   N31-   C35-   H5A
  4314   4309   4318   4320      9     0.00   0.65270   3 ;    C34-   N31-   C35-   H5B
  4314   4309   4318   4321      9     0.00   0.65270   3 ;    C34-   N31-   C35-   H5C
  4315   4314   4309   4318      9     0.00   0.65270   3 ;    H4A-   C34-   N31-   C35
  4316   4314   4309   4318      9     0.00   0.65270   3 ;    H4B-   C34-   N31-   C35
  4317   4314   4309   4318      9     0.00   0.65270   3 ;    H4C-   C34-   N31-   C35
  4324   4325   4364   4361      9   180.00   0.00000   2 ;    O21-   C21-   C12-   C13
  4324   4325   4364   4365      9   180.00   0.00000   2 ;    O21-   C21-   C12-   H2R
  4324   4325   4364   4366      9   180.00   0.00000   2 ;    O21-   C21-   C12-   H2S
  4325   4364   4361   4358      9     0.00   0.65270   3 ;    C21-   C12-   C13-   C14
  4325   4364   4361   4362      9     0.00   0.65270   3 ;    C21-   C12-   C13-   H3R
  4325   4364   4361   4363      9     0.00   0.65270   3 ;    C21-   C12-   C13-   H3S
  4326   4325   4364   4361      9   180.00   0.00000   2 ;    O22-   C21-   C12-   C13
  4326   4325   4364   4365      9     0.00   3.34720   1 ;    O22-   C21-   C12-   H2R
  4326   4325   4364   4365      9   180.00   0.33472   3 ;    O22-   C21-   C12-   H2R
  4326   4325   4364   4366      9     0.00   3.34720   1 ;    O22-   C21-   C12-   H2S
  4326   4325   4364   4366      9   180.00   0.33472   3 ;    O22-   C21-   C12-   H2S
  4327   4328   4331   4332      9     0.00   0.62760   3 ;   H14T-  C114-  C113-  H13R
  4327   4328   4331   4333      9     0.00   0.62760   3 ;   H14T-  C114-  C113-  H13S
  4327   4328   4331   4334      9     0.00   0.66944   3 ;   H14T-  C114-  C113-  C112
  4328   4331   4334   4335      9     0.00   0.66944   3 ;   C114-  C113-  C112-  H12R
  4328   4331   4334   4336      9     0.00   0.66944   3 ;   C114-  C113-  C112-  H12S
  4328   4331   4334   4337      9     0.00   0.41840   1 ;   C114-  C113-  C112-  C111
  4328   4331   4334   4337      9     0.00   0.41840   2 ;   C114-  C113-  C112-  C111
  4328   4331   4334   4337      9     0.00   0.41840   4 ;   C114-  C113-  C112-  C111
  4328   4331   4334   4337      9     0.00   0.41840   5 ;   C114-  C113-  C112-  C111
  4328   4331   4334   4337      9     0.00   1.25520   3 ;   C114-  C113-  C112-  C111
  4329   4328   4331   4332      9     0.00   0.62760   3 ;   H14R-  C114-  C113-  H13R
  4329   4328   4331   4333      9     0.00   0.62760   3 ;   H14R-  C114-  C113-  H13S
  4329   4328   4331   4334      9     0.00   0.66944   3 ;   H14R-  C114-  C113-  C112
  4330   4328   4331   4332      9     0.00   0.62760   3 ;   H14S-  C114-  C113-  H13R
  4330   4328   4331   4333      9     0.00   0.62760   3 ;   H14S-  C114-  C113-  H13S
  4330   4328   4331   4334      9     0.00   0.66944   3 ;   H14S-  C114-  C113-  C112
  4331   4334   4337   4338      9     0.00   0.66944   3 ;   C113-  C112-  C111-  H11R
  4331   4334   4337   4339      9     0.00   0.66944   3 ;   C113-  C112-  C111-  H11S
  4331   4334   4337   4340      9     0.00   0.41840   1 ;   C113-  C112-  C111-  C110
  4331   4334   4337   4340      9     0.00   0.41840   2 ;   C113-  C112-  C111-  C110
  4331   4334   4337   4340      9     0.00   0.41840   4 ;   C113-  C112-  C111-  C110
  4331   4334   4337   4340      9     0.00   0.41840   5 ;   C113-  C112-  C111-  C110
  4331   4334   4337   4340      9     0.00   1.25520   3 ;   C113-  C112-  C111-  C110
  4332   4331   4334   4335      9     0.00   0.62760   3 ;   H13R-  C113-  C112-  H12R
  4332   4331   4334   4336      9     0.00   0.62760   3 ;   H13R-  C113-  C112-  H12S
  4332   4331   4334   4337      9     0.00   0.66944   3 ;   H13R-  C113-  C112-  C111
  4333   4331   4334   4335      9     0.00   0.62760   3 ;   H13S-  C113-  C112-  H12R
  4333   4331   4334   4336      9     0.00   0.62760   3 ;   H13S-  C113-  C112-  H12S
  4333   4331   4334   4337      9     0.00   0.66944   3 ;   H13S-  C113-  C112-  C111
  4334   4337   4340   4341      9     0.00   0.66944   3 ;   C112-  C111-  C110-  H10R
  4334   4337   4340   4342      9     0.00   0.66944   3 ;   C112-  C111-  C110-  H10S
  4334   4337   4340   4343      9     0.00   0.41840   1 ;   C112-  C111-  C110-   C19
  4334   4337   4340   4343      9     0.00   0.41840   2 ;   C112-  C111-  C110-   C19
  4334   4337   4340   4343      9     0.00   0.41840   4 ;   C112-  C111-  C110-   C19
  4334   4337   4340   4343      9     0.00   0.41840   5 ;   C112-  C111-  C110-   C19
  4334   4337   4340   4343      9     0.00   1.25520   3 ;   C112-  C111-  C110-   C19
  4335   4334   4337   4338      9     0.00   0.62760   3 ;   H12R-  C112-  C111-  H11R
  4335   4334   4337   4339      9     0.00   0.62760   3 ;   H12R-  C112-  C111-  H11S
  4335   4334   4337   4340      9     0.00   0.66944   3 ;   H12R-  C112-  C111-  C110
  4336   4334   4337   4338      9     0.00   0.62760   3 ;   H12S-  C112-  C111-  H11R
  4336   4334   4337   4339      9     0.00   0.62760   3 ;   H12S-  C112-  C111-  H11S
  4336   4334   4337   4340      9     0.00   0.66944   3 ;   H12S-  C112-  C111-  C110
  4337   4340   4343   4344      9     0.00   0.66944   3 ;   C111-  C110-   C19-   H9R
  4337   4340   4343   4345      9     0.00   0.66944   3 ;   C111-  C110-   C19-   H9S
  4337   4340   4343   4346      9     0.00   0.41840   1 ;   C111-  C110-   C19-   C18
  4337   4340   4343   4346      9     0.00   0.41840   2 ;   C111-  C110-   C19-   C18
  4337   4340   4343   4346      9     0.00   0.41840   4 ;   C111-  C110-   C19-   C18
  4337   4340   4343   4346      9     0.00   0.41840   5 ;   C111-  C110-   C19-   C18
  4337   4340   4343   4346      9     0.00   1.25520   3 ;   C111-  C110-   C19-   C18
  4338   4337   4340   4341      9     0.00   0.62760   3 ;   H11R-  C111-  C110-  H10R
  4338   4337   4340   4342      9     0.00   0.62760   3 ;   H11R-  C111-  C110-  H10S
  4338   4337   4340   4343      9     0.00   0.66944   3 ;   H11R-  C111-  C110-   C19
  4339   4337   4340   4341      9     0.00   0.62760   3 ;   H11S-  C111-  C110-  H10R
  4339   4337   4340   4342      9     0.00   0.62760   3 ;   H11S-  C111-  C110-  H10S
  4339   4337   4340   4343      9     0.00   0.66944   3 ;   H11S-  C111-  C110-   C19
  4340   4343   4346   4347      9     0.00   0.66944   3 ;   C110-   C19-   C18-   H8R
  4340   4343   4346   4348      9     0.00   0.66944   3 ;   C110-   C19-   C18-   H8S
  4340   4343   4346   4349      9     0.00   0.41840   1 ;   C110-   C19-   C18-   C17
  4340   4343   4346   4349      9     0.00   0.41840   2 ;   C110-   C19-   C18-   C17
  4340   4343   4346   4349      9     0.00   0.41840   4 ;   C110-   C19-   C18-   C17
  4340   4343   4346   4349      9     0.00   0.41840   5 ;   C110-   C19-   C18-   C17
  4340   4343   4346   4349      9     0.00   1.25520   3 ;   C110-   C19-   C18-   C17
  4341   4340   4343   4344      9     0.00   0.62760   3 ;   H10R-  C110-   C19-   H9R
  4341   4340   4343   4345      9     0.00   0.62760   3 ;   H10R-  C110-   C19-   H9S
  4341   4340   4343   4346      9     0.00   0.66944   3 ;   H10R-  C110-   C19-   C18
  4342   4340   4343   4344      9     0.00   0.62760   3 ;   H10S-  C110-   C19-   H9R
  4342   4340   4343   4345      9     0.00   0.62760   3 ;   H10S-  C110-   C19-   H9S
  4342   4340   4343   4346      9     0.00   0.66944   3 ;   H10S-  C110-   C19-   C18
  4343   4346   4349   4350      9     0.00   0.66944   3 ;    C19-   C18-   C17-   H7R
  4343   4346   4349   4351      9     0.00   0.66944   3 ;    C19-   C18-   C17-   H7S
  4343   4346   4349   4352      9     0.00   0.41840   1 ;    C19-   C18-   C17-   C16
  4343   4346   4349   4352      9     0.00   0.41840   2 ;    C19-   C18-   C17-   C16
  4343   4346   4349   4352      9     0.00   0.41840   4 ;    C19-   C18-   C17-   C16
  4343   4346   4349   4352      9     0.00   0.41840   5 ;    C19-   C18-   C17-   C16
  4343   4346   4349   4352      9     0.00   1.25520   3 ;    C19-   C18-   C17-   C16
  4344   4343   4346   4347      9     0.00   0.62760   3 ;    H9R-   C19-   C18-   H8R
  4344   4343   4346   4348      9     0.00   0.62760   3 ;    H9R-   C19-   C18-   H8S
  4344   4343   4346   4349      9     0.00   0.66944   3 ;    H9R-   C19-   C18-   C17
  4345   4343   4346   4347      9     0.00   0.62760   3 ;    H9S-   C19-   C18-   H8R
  4345   4343   4346   4348      9     0.00   0.62760   3 ;    H9S-   C19-   C18-   H8S
  4345   4343   4346   4349      9     0.00   0.66944   3 ;    H9S-   C19-   C18-   C17
  4346   4349   4352   4353      9     0.00   0.66944   3 ;    C18-   C17-   C16-   H6R
  4346   4349   4352   4354      9     0.00   0.66944   3 ;    C18-   C17-   C16-   H6S
  4346   4349   4352   4355      9     0.00   0.41840   1 ;    C18-   C17-   C16-   C15
  4346   4349   4352   4355      9     0.00   0.41840   2 ;    C18-   C17-   C16-   C15
  4346   4349   4352   4355      9     0.00   0.41840   4 ;    C18-   C17-   C16-   C15
  4346   4349   4352   4355      9     0.00   0.41840   5 ;    C18-   C17-   C16-   C15
  4346   4349   4352   4355      9     0.00   1.25520   3 ;    C18-   C17-   C16-   C15
  4347   4346   4349   4350      9     0.00   0.62760   3 ;    H8R-   C18-   C17-   H7R
  4347   4346   4349   4351      9     0.00   0.62760   3 ;    H8R-   C18-   C17-   H7S
  4347   4346   4349   4352      9     0.00   0.66944   3 ;    H8R-   C18-   C17-   C16
  4348   4346   4349   4350      9     0.00   0.62760   3 ;    H8S-   C18-   C17-   H7R
  4348   4346   4349   4351      9     0.00   0.62760   3 ;    H8S-   C18-   C17-   H7S
  4348   4346   4349   4352      9     0.00   0.66944   3 ;    H8S-   C18-   C17-   C16
  4349   4352   4355   4356      9     0.00   0.66944   3 ;    C17-   C16-   C15-   H5R
  4349   4352   4355   4357      9     0.00   0.66944   3 ;    C17-   C16-   C15-   H5S
  4349   4352   4355   4358      9     0.00   0.41840   1 ;    C17-   C16-   C15-   C14
  4349   4352   4355   4358      9     0.00   0.41840   2 ;    C17-   C16-   C15-   C14
  4349   4352   4355   4358      9     0.00   0.41840   4 ;    C17-   C16-   C15-   C14
  4349   4352   4355   4358      9     0.00   0.41840   5 ;    C17-   C16-   C15-   C14
  4349   4352   4355   4358      9     0.00   1.25520   3 ;    C17-   C16-   C15-   C14
  4350   4349   4352   4353      9     0.00   0.62760   3 ;    H7R-   C17-   C16-   H6R
  4350   4349   4352   4354      9     0.00   0.62760   3 ;    H7R-   C17-   C16-   H6S
  4350   4349   4352   4355      9     0.00   0.66944   3 ;    H7R-   C17-   C16-   C15
  4351   4349   4352   4353      9     0.00   0.62760   3 ;    H7S-   C17-   C16-   H6R
  4351   4349   4352   4354      9     0.00   0.62760   3 ;    H7S-   C17-   C16-   H6S
  4351   4349   4352   4355      9     0.00   0.66944   3 ;    H7S-   C17-   C16-   C15
  4352   4355   4358   4359      9     0.00   0.66944   3 ;    C16-   C15-   C14-   H4R
  4352   4355   4358   4360      9     0.00   0.66944   3 ;    C16-   C15-   C14-   H4S
  4352   4355   4358   4361      9     0.00   0.41840   1 ;    C16-   C15-   C14-   C13
  4352   4355   4358   4361      9     0.00   0.41840   2 ;    C16-   C15-   C14-   C13
  4352   4355   4358   4361      9     0.00   0.41840   4 ;    C16-   C15-   C14-   C13
  4352   4355   4358   4361      9     0.00   0.41840   5 ;    C16-   C15-   C14-   C13
  4352   4355   4358   4361      9     0.00   1.25520   3 ;    C16-   C15-   C14-   C13
  4353   4352   4355   4356      9     0.00   0.62760   3 ;    H6R-   C16-   C15-   H5R
  4353   4352   4355   4357      9     0.00   0.62760   3 ;    H6R-   C16-   C15-   H5S
  4353   4352   4355   4358      9     0.00   0.66944   3 ;    H6R-   C16-   C15-   C14
  4354   4352   4355   4356      9     0.00   0.62760   3 ;    H6S-   C16-   C15-   H5R
  4354   4352   4355   4357      9     0.00   0.62760   3 ;    H6S-   C16-   C15-   H5S
  4354   4352   4355   4358      9     0.00   0.66944   3 ;    H6S-   C16-   C15-   C14
  4355   4358   4361   4362      9     0.00   0.66944   3 ;    C15-   C14-   C13-   H3R
  4355   4358   4361   4363      9     0.00   0.66944   3 ;    C15-   C14-   C13-   H3S
  4355   4358   4361   4364      9     0.00   0.41840   1 ;    C15-   C14-   C13-   C12
  4355   4358   4361   4364      9     0.00   0.41840   2 ;    C15-   C14-   C13-   C12
  4355   4358   4361   4364      9     0.00   0.41840   4 ;    C15-   C14-   C13-   C12
  4355   4358   4361   4364      9     0.00   0.41840   5 ;    C15-   C14-   C13-   C12
  4355   4358   4361   4364      9     0.00   1.25520   3 ;    C15-   C14-   C13-   C12
  4356   4355   4358   4359      9     0.00   0.62760   3 ;    H5R-   C15-   C14-   H4R
  4356   4355   4358   4360      9     0.00   0.62760   3 ;    H5R-   C15-   C14-   H4S
  4356   4355   4358   4361      9     0.00   0.66944   3 ;    H5R-   C15-   C14-   C13
  4357   4355   4358   4359      9     0.00   0.62760   3 ;    H5S-   C15-   C14-   H4R
  4357   4355   4358   4360      9     0.00   0.62760   3 ;    H5S-   C15-   C14-   H4S
  4357   4355   4358   4361      9     0.00   0.66944   3 ;    H5S-   C15-   C14-   C13
  4358   4361   4364   4365      9     0.00   0.66944   3 ;    C14-   C13-   C12-   H2R
  4358   4361   4364   4366      9     0.00   0.66944   3 ;    C14-   C13-   C12-   H2S
  4359   4358   4361   4362      9     0.00   0.62760   3 ;    H4R-   C14-   C13-   H3R
  4359   4358   4361   4363      9     0.00   0.62760   3 ;    H4R-   C14-   C13-   H3S
  4359   4358   4361   4364      9     0.00   0.66944   3 ;    H4R-   C14-   C13-   C12
  4360   4358   4361   4362      9     0.00   0.62760   3 ;    H4S-   C14-   C13-   H3R
  4360   4358   4361   4363      9     0.00   0.62760   3 ;    H4S-   C14-   C13-   H3S
  4360   4358   4361   4364      9     0.00   0.66944   3 ;    H4S-   C14-   C13-   C12
  4362   4361   4364   4365      9     0.00   0.62760   3 ;    H3R-   C13-   C12-   H2R
  4362   4361   4364   4366      9     0.00   0.62760   3 ;    H3R-   C13-   C12-   H2S
  4363   4361   4364   4365      9     0.00   0.62760   3 ;    H3S-   C13-   C12-   H2R
  4363   4361   4364   4366      9     0.00   0.62760   3 ;    H3S-   C13-   C12-   H2S
  4367   4368   4371   4372      9     0.00   0.62760   3 ;   H14T-  C114-  C113-  H13R
  4367   4368   4371   4373      9     0.00   0.62760   3 ;   H14T-  C114-  C113-  H13S
  4367   4368   4371   4374      9     0.00   0.66944   3 ;   H14T-  C114-  C113-  C112
  4368   4371   4374   4375      9     0.00   0.66944   3 ;   C114-  C113-  C112-  H12R
  4368   4371   4374   4376      9     0.00   0.66944   3 ;   C114-  C113-  C112-  H12S
  4368   4371   4374   4377      9     0.00   0.41840   1 ;   C114-  C113-  C112-  C111
  4368   4371   4374   4377      9     0.00   0.41840   2 ;   C114-  C113-  C112-  C111
  4368   4371   4374   4377      9     0.00   0.41840   4 ;   C114-  C113-  C112-  C111
  4368   4371   4374   4377      9     0.00   0.41840   5 ;   C114-  C113-  C112-  C111
  4368   4371   4374   4377      9     0.00   1.25520   3 ;   C114-  C113-  C112-  C111
  4369   4368   4371   4372      9     0.00   0.62760   3 ;   H14R-  C114-  C113-  H13R
  4369   4368   4371   4373      9     0.00   0.62760   3 ;   H14R-  C114-  C113-  H13S
  4369   4368   4371   4374      9     0.00   0.66944   3 ;   H14R-  C114-  C113-  C112
  4370   4368   4371   4372      9     0.00   0.62760   3 ;   H14S-  C114-  C113-  H13R
  4370   4368   4371   4373      9     0.00   0.62760   3 ;   H14S-  C114-  C113-  H13S
  4370   4368   4371   4374      9     0.00   0.66944   3 ;   H14S-  C114-  C113-  C112
  4371   4374   4377   4378      9     0.00   0.66944   3 ;   C113-  C112-  C111-  H11R
  4371   4374   4377   4379      9     0.00   0.66944   3 ;   C113-  C112-  C111-  H11S
  4371   4374   4377   4380      9     0.00   0.41840   1 ;   C113-  C112-  C111-  C110
  4371   4374   4377   4380      9     0.00   0.41840   2 ;   C113-  C112-  C111-  C110
  4371   4374   4377   4380      9     0.00   0.41840   4 ;   C113-  C112-  C111-  C110
  4371   4374   4377   4380      9     0.00   0.41840   5 ;   C113-  C112-  C111-  C110
  4371   4374   4377   4380      9     0.00   1.25520   3 ;   C113-  C112-  C111-  C110
  4372   4371   4374   4375      9     0.00   0.62760   3 ;   H13R-  C113-  C112-  H12R
  4372   4371   4374   4376      9     0.00   0.62760   3 ;   H13R-  C113-  C112-  H12S
  4372   4371   4374   4377      9     0.00   0.66944   3 ;   H13R-  C113-  C112-  C111
  4373   4371   4374   4375      9     0.00   0.62760   3 ;   H13S-  C113-  C112-  H12R
  4373   4371   4374   4376      9     0.00   0.62760   3 ;   H13S-  C113-  C112-  H12S
  4373   4371   4374   4377      9     0.00   0.66944   3 ;   H13S-  C113-  C112-  C111
  4374   4377   4380   4381      9     0.00   0.66944   3 ;   C112-  C111-  C110-  H10R
  4374   4377   4380   4382      9     0.00   0.66944   3 ;   C112-  C111-  C110-  H10S
  4374   4377   4380   4383      9     0.00   0.41840   1 ;   C112-  C111-  C110-   C19
  4374   4377   4380   4383      9     0.00   0.41840   2 ;   C112-  C111-  C110-   C19
  4374   4377   4380   4383      9     0.00   0.41840   4 ;   C112-  C111-  C110-   C19
  4374   4377   4380   4383      9     0.00   0.41840   5 ;   C112-  C111-  C110-   C19
  4374   4377   4380   4383      9     0.00   1.25520   3 ;   C112-  C111-  C110-   C19
  4375   4374   4377   4378      9     0.00   0.62760   3 ;   H12R-  C112-  C111-  H11R
  4375   4374   4377   4379      9     0.00   0.62760   3 ;   H12R-  C112-  C111-  H11S
  4375   4374   4377   4380      9     0.00   0.66944   3 ;   H12R-  C112-  C111-  C110
  4376   4374   4377   4378      9     0.00   0.62760   3 ;   H12S-  C112-  C111-  H11R
  4376   4374   4377   4379      9     0.00   0.62760   3 ;   H12S-  C112-  C111-  H11S
  4376   4374   4377   4380      9     0.00   0.66944   3 ;   H12S-  C112-  C111-  C110
  4377   4380   4383   4384      9     0.00   0.66944   3 ;   C111-  C110-   C19-   H9R
  4377   4380   4383   4385      9     0.00   0.66944   3 ;   C111-  C110-   C19-   H9S
  4377   4380   4383   4386      9     0.00   0.41840   1 ;   C111-  C110-   C19-   C18
  4377   4380   4383   4386      9     0.00   0.41840   2 ;   C111-  C110-   C19-   C18
  4377   4380   4383   4386      9     0.00   0.41840   4 ;   C111-  C110-   C19-   C18
  4377   4380   4383   4386      9     0.00   0.41840   5 ;   C111-  C110-   C19-   C18
  4377   4380   4383   4386      9     0.00   1.25520   3 ;   C111-  C110-   C19-   C18
  4378   4377   4380   4381      9     0.00   0.62760   3 ;   H11R-  C111-  C110-  H10R
  4378   4377   4380   4382      9     0.00   0.62760   3 ;   H11R-  C111-  C110-  H10S
  4378   4377   4380   4383      9     0.00   0.66944   3 ;   H11R-  C111-  C110-   C19
  4379   4377   4380   4381      9     0.00   0.62760   3 ;   H11S-  C111-  C110-  H10R
  4379   4377   4380   4382      9     0.00   0.62760   3 ;   H11S-  C111-  C110-  H10S
  4379   4377   4380   4383      9     0.00   0.66944   3 ;   H11S-  C111-  C110-   C19
  4380   4383   4386   4387      9     0.00   0.66944   3 ;   C110-   C19-   C18-   H8R
  4380   4383   4386   4388      9     0.00   0.66944   3 ;   C110-   C19-   C18-   H8S
  4380   4383   4386   4389      9     0.00   0.41840   1 ;   C110-   C19-   C18-   C17
  4380   4383   4386   4389      9     0.00   0.41840   2 ;   C110-   C19-   C18-   C17
  4380   4383   4386   4389      9     0.00   0.41840   4 ;   C110-   C19-   C18-   C17
  4380   4383   4386   4389      9     0.00   0.41840   5 ;   C110-   C19-   C18-   C17
  4380   4383   4386   4389      9     0.00   1.25520   3 ;   C110-   C19-   C18-   C17
  4381   4380   4383   4384      9     0.00   0.62760   3 ;   H10R-  C110-   C19-   H9R
  4381   4380   4383   4385      9     0.00   0.62760   3 ;   H10R-  C110-   C19-   H9S
  4381   4380   4383   4386      9     0.00   0.66944   3 ;   H10R-  C110-   C19-   C18
  4382   4380   4383   4384      9     0.00   0.62760   3 ;   H10S-  C110-   C19-   H9R
  4382   4380   4383   4385      9     0.00   0.62760   3 ;   H10S-  C110-   C19-   H9S
  4382   4380   4383   4386      9     0.00   0.66944   3 ;   H10S-  C110-   C19-   C18
  4383   4386   4389   4390      9     0.00   0.66944   3 ;    C19-   C18-   C17-   H7R
  4383   4386   4389   4391      9     0.00   0.66944   3 ;    C19-   C18-   C17-   H7S
  4383   4386   4389   4392      9     0.00   0.41840   1 ;    C19-   C18-   C17-   C16
  4383   4386   4389   4392      9     0.00   0.41840   2 ;    C19-   C18-   C17-   C16
  4383   4386   4389   4392      9     0.00   0.41840   4 ;    C19-   C18-   C17-   C16
  4383   4386   4389   4392      9     0.00   0.41840   5 ;    C19-   C18-   C17-   C16
  4383   4386   4389   4392      9     0.00   1.25520   3 ;    C19-   C18-   C17-   C16
  4384   4383   4386   4387      9     0.00   0.62760   3 ;    H9R-   C19-   C18-   H8R
  4384   4383   4386   4388      9     0.00   0.62760   3 ;    H9R-   C19-   C18-   H8S
  4384   4383   4386   4389      9     0.00   0.66944   3 ;    H9R-   C19-   C18-   C17
  4385   4383   4386   4387      9     0.00   0.62760   3 ;    H9S-   C19-   C18-   H8R
  4385   4383   4386   4388      9     0.00   0.62760   3 ;    H9S-   C19-   C18-   H8S
  4385   4383   4386   4389      9     0.00   0.66944   3 ;    H9S-   C19-   C18-   C17
  4386   4389   4392   4393      9     0.00   0.66944   3 ;    C18-   C17-   C16-   H6R
  4386   4389   4392   4394      9     0.00   0.66944   3 ;    C18-   C17-   C16-   H6S
  4386   4389   4392   4395      9     0.00   0.41840   1 ;    C18-   C17-   C16-   C15
  4386   4389   4392   4395      9     0.00   0.41840   2 ;    C18-   C17-   C16-   C15
  4386   4389   4392   4395      9     0.00   0.41840   4 ;    C18-   C17-   C16-   C15
  4386   4389   4392   4395      9     0.00   0.41840   5 ;    C18-   C17-   C16-   C15
  4386   4389   4392   4395      9     0.00   1.25520   3 ;    C18-   C17-   C16-   C15
  4387   4386   4389   4390      9     0.00   0.62760   3 ;    H8R-   C18-   C17-   H7R
  4387   4386   4389   4391      9     0.00   0.62760   3 ;    H8R-   C18-   C17-   H7S
  4387   4386   4389   4392      9     0.00   0.66944   3 ;    H8R-   C18-   C17-   C16
  4388   4386   4389   4390      9     0.00   0.62760   3 ;    H8S-   C18-   C17-   H7R
  4388   4386   4389   4391      9     0.00   0.62760   3 ;    H8S-   C18-   C17-   H7S
  4388   4386   4389   4392      9     0.00   0.66944   3 ;    H8S-   C18-   C17-   C16
  4389   4392   4395   4396      9     0.00   0.66944   3 ;    C17-   C16-   C15-   H5R
  4389   4392   4395   4397      9     0.00   0.66944   3 ;    C17-   C16-   C15-   H5S
  4389   4392   4395   4398      9     0.00   0.41840   1 ;    C17-   C16-   C15-   C14
  4389   4392   4395   4398      9     0.00   0.41840   2 ;    C17-   C16-   C15-   C14
  4389   4392   4395   4398      9     0.00   0.41840   4 ;    C17-   C16-   C15-   C14
  4389   4392   4395   4398      9     0.00   0.41840   5 ;    C17-   C16-   C15-   C14
  4389   4392   4395   4398      9     0.00   1.25520   3 ;    C17-   C16-   C15-   C14
  4390   4389   4392   4393      9     0.00   0.62760   3 ;    H7R-   C17-   C16-   H6R
  4390   4389   4392   4394      9     0.00   0.62760   3 ;    H7R-   C17-   C16-   H6S
  4390   4389   4392   4395      9     0.00   0.66944   3 ;    H7R-   C17-   C16-   C15
  4391   4389   4392   4393      9     0.00   0.62760   3 ;    H7S-   C17-   C16-   H6R
  4391   4389   4392   4394      9     0.00   0.62760   3 ;    H7S-   C17-   C16-   H6S
  4391   4389   4392   4395      9     0.00   0.66944   3 ;    H7S-   C17-   C16-   C15
  4392   4395   4398   4399      9     0.00   0.66944   3 ;    C16-   C15-   C14-   H4R
  4392   4395   4398   4400      9     0.00   0.66944   3 ;    C16-   C15-   C14-   H4S
  4392   4395   4398   4401      9     0.00   0.41840   1 ;    C16-   C15-   C14-   C13
  4392   4395   4398   4401      9     0.00   0.41840   2 ;    C16-   C15-   C14-   C13
  4392   4395   4398   4401      9     0.00   0.41840   4 ;    C16-   C15-   C14-   C13
  4392   4395   4398   4401      9     0.00   0.41840   5 ;    C16-   C15-   C14-   C13
  4392   4395   4398   4401      9     0.00   1.25520   3 ;    C16-   C15-   C14-   C13
  4393   4392   4395   4396      9     0.00   0.62760   3 ;    H6R-   C16-   C15-   H5R
  4393   4392   4395   4397      9     0.00   0.62760   3 ;    H6R-   C16-   C15-   H5S
  4393   4392   4395   4398      9     0.00   0.66944   3 ;    H6R-   C16-   C15-   C14
  4394   4392   4395   4396      9     0.00   0.62760   3 ;    H6S-   C16-   C15-   H5R
  4394   4392   4395   4397      9     0.00   0.62760   3 ;    H6S-   C16-   C15-   H5S
  4394   4392   4395   4398      9     0.00   0.66944   3 ;    H6S-   C16-   C15-   C14
  4395   4398   4401   4402      9     0.00   0.66944   3 ;    C15-   C14-   C13-   H3R
  4395   4398   4401   4403      9     0.00   0.66944   3 ;    C15-   C14-   C13-   H3S
  4395   4398   4401   4404      9     0.00   0.41840   1 ;    C15-   C14-   C13-   C12
  4395   4398   4401   4404      9     0.00   0.41840   2 ;    C15-   C14-   C13-   C12
  4395   4398   4401   4404      9     0.00   0.41840   4 ;    C15-   C14-   C13-   C12
  4395   4398   4401   4404      9     0.00   0.41840   5 ;    C15-   C14-   C13-   C12
  4395   4398   4401   4404      9     0.00   1.25520   3 ;    C15-   C14-   C13-   C12
  4396   4395   4398   4399      9     0.00   0.62760   3 ;    H5R-   C15-   C14-   H4R
  4396   4395   4398   4400      9     0.00   0.62760   3 ;    H5R-   C15-   C14-   H4S
  4396   4395   4398   4401      9     0.00   0.66944   3 ;    H5R-   C15-   C14-   C13
  4397   4395   4398   4399      9     0.00   0.62760   3 ;    H5S-   C15-   C14-   H4R
  4397   4395   4398   4400      9     0.00   0.62760   3 ;    H5S-   C15-   C14-   H4S
  4397   4395   4398   4401      9     0.00   0.66944   3 ;    H5S-   C15-   C14-   C13
  4398   4401   4404   4405      9     0.00   0.66944   3 ;    C14-   C13-   C12-   H2R
  4398   4401   4404   4406      9     0.00   0.66944   3 ;    C14-   C13-   C12-   H2S
  4398   4401   4404   4407      9     0.00   0.65270   3 ;    C14-   C13-   C12-   C11
  4399   4398   4401   4402      9     0.00   0.62760   3 ;    H4R-   C14-   C13-   H3R
  4399   4398   4401   4403      9     0.00   0.62760   3 ;    H4R-   C14-   C13-   H3S
  4399   4398   4401   4404      9     0.00   0.66944   3 ;    H4R-   C14-   C13-   C12
  4400   4398   4401   4402      9     0.00   0.62760   3 ;    H4S-   C14-   C13-   H3R
  4400   4398   4401   4403      9     0.00   0.62760   3 ;    H4S-   C14-   C13-   H3S
  4400   4398   4401   4404      9     0.00   0.66944   3 ;    H4S-   C14-   C13-   C12
  4401   4404   4407   4408      9   180.00   0.00000   2 ;    C13-   C12-   C11-   O12
  4401   4404   4407   4409      9   180.00   0.00000   2 ;    C13-   C12-   C11-   O11
  4402   4401   4404   4405      9     0.00   0.62760   3 ;    H3R-   C13-   C12-   H2R
  4402   4401   4404   4406      9     0.00   0.62760   3 ;    H3R-   C13-   C12-   H2S
  4402   4401   4404   4407      9     0.00   0.65270   3 ;    H3R-   C13-   C12-   C11
  4403   4401   4404   4405      9     0.00   0.62760   3 ;    H3S-   C13-   C12-   H2R
  4403   4401   4404   4406      9     0.00   0.62760   3 ;    H3S-   C13-   C12-   H2S
  4403   4401   4404   4407      9     0.00   0.65270   3 ;    H3S-   C13-   C12-   C11
  4404   4407   4409   4410      9   180.00  11.29680   2 ;    C12-   C11-   O11-    C1
  4405   4404   4407   4408      9     0.00   3.34720   1 ;    H2R-   C12-   C11-   O12
  4405   4404   4407   4408      9   180.00   0.33472   3 ;    H2R-   C12-   C11-   O12
  4405   4404   4407   4409      9   180.00   0.00000   2 ;    H2R-   C12-   C11-   O11
  4406   4404   4407   4408      9     0.00   3.34720   1 ;    H2S-   C12-   C11-   O12
  4406   4404   4407   4408      9   180.00   0.33472   3 ;    H2S-   C12-   C11-   O12
  4406   4404   4407   4409      9   180.00   0.00000   2 ;    H2S-   C12-   C11-   O11
  4407   4409   4410   4411      9     0.00   1.60247   3 ;    C11-   O11-    C1-    HR
  4407   4409   4410   4412      9     0.00   1.60247   3 ;    C11-   O11-    C1-    HS
  4407   4409   4410   4413      9     0.00  -0.41840   1 ;    C11-   O11-    C1-    C2
  4408   4407   4409   4410      9   180.00   5.85760   1 ;    O12-   C11-   O11-    C1
  4408   4407   4409   4410      9   180.00  11.29680   2 ;    O12-   C11-   O11-    C1
  4409   4410   4413   4414      9     0.00   0.00000   0 ;    O11-    C1-    C2-    HX
  4409   4410   4413   4414      9     0.00   1.04600   1 ;    O11-    C1-    C2-    HX
  4409   4410   4413   4415      9     0.00   0.00000   0 ;    O11-    C1-    C2-    C3
  4409   4410   4413   4415      9     0.00   0.00000   0 ;    O11-    C1-    C2-    C3
  4409   4410   4413   4415      9     0.00   0.00000   0 ;    O11-    C1-    C2-    C3
  4409   4410   4413   4415      9     0.00   0.00000   0 ;    O11-    C1-    C2-    C3
  4409   4410   4413   4415      9     0.00   0.00000   0 ;    O11-    C1-    C2-    C3
  4409   4410   4413   4442      9     0.00   1.25520   2 ;    O11-    C1-    C2-   O21
  4409   4410   4413   4442      9     0.00   4.18400   3 ;    O11-    C1-    C2-   O21
  4409   4410   4413   4442      9   180.00  -0.41840   1 ;    O11-    C1-    C2-   O21
  4410   4413   4415   4416      9     0.00   0.65270   3 ;     C1-    C2-    C3-    HA
  4410   4413   4415   4417      9     0.00   0.65270   3 ;     C1-    C2-    C3-    HB
  4410   4413   4415   4418      9   180.00   3.34720   1 ;     C1-    C2-    C3-   O31
  4410   4413   4442   4443      9     0.00  -0.41840   1 ;     C1-    C2-   O21-   C21
  4411   4410   4413   4414      9     0.00   0.65270   3 ;     HR-    C1-    C2-    HX
  4411   4410   4413   4415      9     0.00   0.65270   3 ;     HR-    C1-    C2-    C3
  4411   4410   4413   4442      9     0.00   0.00000   0 ;     HR-    C1-    C2-   O21
  4411   4410   4413   4442      9     0.00   1.04600   1 ;     HR-    C1-    C2-   O21
  4412   4410   4413   4414      9     0.00   0.65270   3 ;     HS-    C1-    C2-    HX
  4412   4410   4413   4415      9     0.00   0.65270   3 ;     HS-    C1-    C2-    C3
  4412   4410   4413   4442      9     0.00   0.00000   0 ;     HS-    C1-    C2-   O21
  4412   4410   4413   4442      9     0.00   1.04600   1 ;     HS-    C1-    C2-   O21
  4413   4415   4418   4419      9     0.00   0.00000   0 ;     C2-    C3-   O31-   P31
  4413   4415   4418   4419      9   180.00  -3.34720   2 ;     C2-    C3-   O31-   P31
  4413   4442   4443   4444      9   180.00   5.85760   1 ;     C2-   O21-   C21-   O22
  4413   4442   4443   4444      9   180.00  11.29680   2 ;     C2-   O21-   C21-   O22
  4413   4442   4443   4482      9   180.00  11.29680   2 ;     C2-   O21-   C21-   C12
  4414   4413   4415   4416      9     0.00   0.65270   3 ;     HX-    C2-    C3-    HA
  4414   4413   4415   4417      9     0.00   0.65270   3 ;     HX-    C2-    C3-    HB
  4414   4413   4415   4418      9     0.00   0.00000   0 ;     HX-    C2-    C3-   O31
  4414   4413   4415   4418      9     0.00   1.04600   1 ;     HX-    C2-    C3-   O31
  4414   4413   4442   4443      9     0.00   1.60247   3 ;     HX-    C2-   O21-   C21
  4415   4413   4442   4443      9     0.00  -0.41840   1 ;     C3-    C2-   O21-   C21
  4415   4418   4419   4420      9     0.00   2.51040   3 ;     C3-   O31-   P31-   O32
  4415   4418   4419   4420      9     0.00   9.62320   2 ;     C3-   O31-   P31-   O32
  4415   4418   4419   4440      9     0.00   0.00000   0 ;     C3-   O31-   P31-   O33
  4415   4418   4419   4440      9     0.00   0.00000   0 ;     C3-   O31-   P31-   O33
  4415   4418   4419   4440      9     0.00   0.00000   0 ;     C3-   O31-   P31-   O33
  4415   4418   4419   4440      9     0.00   0.00000   0 ;     C3-   O31-   P31-   O33
  4415   4418   4419   4440      9     0.00   0.83680   2 ;     C3-   O31-   P31-   O33
  4415   4418   4419   4441      9     0.00   0.00000   0 ;     C3-   O31-   P31-   O34
  4415   4418   4419   4441      9     0.00   0.00000   0 ;     C3-   O31-   P31-   O34
  4415   4418   4419   4441      9     0.00   0.00000   0 ;     C3-   O31-   P31-   O34
  4415   4418   4419   4441      9     0.00   0.00000   0 ;     C3-   O31-   P31-   O34
  4415   4418   4419   4441      9     0.00   0.83680   2 ;     C3-   O31-   P31-   O34
  4416   4415   4413   4442      9     0.00   0.00000   0 ;     HA-    C3-    C2-   O21
  4416   4415   4413   4442      9     0.00   1.04600   1 ;     HA-    C3-    C2-   O21
  4416   4415   4418   4419      9     0.00   0.00000   0 ;     HA-    C3-   O31-   P31
  4416   4415   4418   4419      9     0.00   0.00000   0 ;     HA-    C3-   O31-   P31
  4416   4415   4418   4419      9     0.00   0.00000   0 ;     HA-    C3-   O31-   P31
  4416   4415   4418   4419      9     0.00   0.00000   0 ;     HA-    C3-   O31-   P31
  4416   4415   4418   4419      9     0.00   1.60247   3 ;     HA-    C3-   O31-   P31
  4417   4415   4413   4442      9     0.00   0.00000   0 ;     HB-    C3-    C2-   O21
  4417   4415   4413   4442      9     0.00   1.04600   1 ;     HB-    C3-    C2-   O21
  4417   4415   4418   4419      9     0.00   0.00000   0 ;     HB-    C3-   O31-   P31
  4417   4415   4418   4419      9     0.00   0.00000   0 ;     HB-    C3-   O31-   P31
  4417   4415   4418   4419      9     0.00   0.00000   0 ;     HB-    C3-   O31-   P31
  4417   4415   4418   4419      9     0.00   0.00000   0 ;     HB-    C3-   O31-   P31
  4417   4415   4418   4419      9     0.00   1.60247   3 ;     HB-    C3-   O31-   P31
  4418   4415   4413   4442      9     0.00   0.00000   0 ;    O31-    C3-    C2-   O21
  4418   4415   4413   4442      9     0.00   0.00000   0 ;    O31-    C3-    C2-   O21
  4418   4415   4413   4442      9     0.00   0.00000   0 ;    O31-    C3-    C2-   O21
  4418   4415   4413   4442      9     0.00   0.00000   0 ;    O31-    C3-    C2-   O21
  4418   4415   4413   4442      9     0.00   0.00000   0 ;    O31-    C3-    C2-   O21
  4418   4419   4420   4421      9     0.00   2.51040   3 ;    O31-   P31-   O32-   C31
  4418   4419   4420   4421      9     0.00   9.62320   2 ;    O31-   P31-   O32-   C31
  4419   4420   4421   4422      9     0.00   0.00000   0 ;    P31-   O32-   C31-   H1A
  4419   4420   4421   4422      9     0.00   0.00000   0 ;    P31-   O32-   C31-   H1A
  4419   4420   4421   4422      9     0.00   0.00000   0 ;    P31-   O32-   C31-   H1A
  4419   4420   4421   4422      9     0.00   0.00000   0 ;    P31-   O32-   C31-   H1A
  4419   4420   4421   4422      9     0.00   1.60247   3 ;    P31-   O32-   C31-   H1A
  4419   4420   4421   4423      9     0.00   0.00000   0 ;    P31-   O32-   C31-   H1B
  4419   4420   4421   4423      9     0.00   0.00000   0 ;    P31-   O32-   C31-   H1B
  4419   4420   4421   4423      9     0.00   0.00000   0 ;    P31-   O32-   C31-   H1B
  4419   4420   4421   4423      9     0.00   0.00000   0 ;    P31-   O32-   C31-   H1B
  4419   4420   4421   4423      9     0.00   1.60247   3 ;    P31-   O32-   C31-   H1B
  4419   4420   4421   4424      9     0.00   0.00000   0 ;    P31-   O32-   C31-   C32
  4419   4420   4421   4424      9   180.00  -3.34720   2 ;    P31-   O32-   C31-   C32
  4420   4421   4424   4425      9     0.00   0.65270   3 ;    O32-   C31-   C32-   H2A
  4420   4421   4424   4426      9     0.00   0.65270   3 ;    O32-   C31-   C32-   H2B
  4420   4421   4424   4427      9     0.00   4.18400   3 ;    O32-   C31-   C32-   N31
  4421   4420   4419   4440      9     0.00   0.00000   0 ;    C31-   O32-   P31-   O33
  4421   4420   4419   4440      9     0.00   0.00000   0 ;    C31-   O32-   P31-   O33
  4421   4420   4419   4440      9     0.00   0.00000   0 ;    C31-   O32-   P31-   O33
  4421   4420   4419   4440      9     0.00   0.00000   0 ;    C31-   O32-   P31-   O33
  4421   4420   4419   4440      9     0.00   0.83680   2 ;    C31-   O32-   P31-   O33
  4421   4420   4419   4441      9     0.00   0.00000   0 ;    C31-   O32-   P31-   O34
  4421   4420   4419   4441      9     0.00   0.00000   0 ;    C31-   O32-   P31-   O34
  4421   4420   4419   4441      9     0.00   0.00000   0 ;    C31-   O32-   P31-   O34
  4421   4420   4419   4441      9     0.00   0.00000   0 ;    C31-   O32-   P31-   O34
  4421   4420   4419   4441      9     0.00   0.83680   2 ;    C31-   O32-   P31-   O34
  4421   4424   4427   4428      9     0.00   0.65270   3 ;    C31-   C32-   N31-   C33
  4421   4424   4427   4432      9     0.00   0.65270   3 ;    C31-   C32-   N31-   C34
  4421   4424   4427   4436      9     0.00   0.65270   3 ;    C31-   C32-   N31-   C35
  4422   4421   4424   4425      9     0.00   0.65270   3 ;    H1A-   C31-   C32-   H2A
  4422   4421   4424   4426      9     0.00   0.65270   3 ;    H1A-   C31-   C32-   H2B
  4422   4421   4424   4427      9     0.00   0.65270   3 ;    H1A-   C31-   C32-   N31
  4423   4421   4424   4425      9     0.00   0.65270   3 ;    H1B-   C31-   C32-   H2A
  4423   4421   4424   4426      9     0.00   0.65270   3 ;    H1B-   C31-   C32-   H2B
  4423   4421   4424   4427      9     0.00   0.65270   3 ;    H1B-   C31-   C32-   N31
  4424   4427   4428   4429      9     0.00   0.65270   3 ;    C32-   N31-   C33-   H3A
  4424   4427   4428   4430      9     0.00   0.65270   3 ;    C32-   N31-   C33-   H3B
  4424   4427   4428   4431      9     0.00   0.65270   3 ;    C32-   N31-   C33-   H3C
  4424   4427   4432   4433      9     0.00   0.65270   3 ;    C32-   N31-   C34-   H4A
  4424   4427   4432   4434      9     0.00   0.65270   3 ;    C32-   N31-   C34-   H4B
  4424   4427   4432   4435      9     0.00   0.65270   3 ;    C32-   N31-   C34-   H4C
  4424   4427   4436   4437      9     0.00   0.65270   3 ;    C32-   N31-   C35-   H5A
  4424   4427   4436   4438      9     0.00   0.65270   3 ;    C32-   N31-   C35-   H5B
  4424   4427   4436   4439      9     0.00   0.65270   3 ;    C32-   N31-   C35-   H5C
  4425   4424   4427   4428      9     0.00   0.65270   3 ;    H2A-   C32-   N31-   C33
  4425   4424   4427   4432      9     0.00   0.65270   3 ;    H2A-   C32-   N31-   C34
  4425   4424   4427   4436      9     0.00   0.65270   3 ;    H2A-   C32-   N31-   C35
  4426   4424   4427   4428      9     0.00   0.65270   3 ;    H2B-   C32-   N31-   C33
  4426   4424   4427   4432      9     0.00   0.65270   3 ;    H2B-   C32-   N31-   C34
  4426   4424   4427   4436      9     0.00   0.65270   3 ;    H2B-   C32-   N31-   C35
  4428   4427   4432   4433      9     0.00   0.65270   3 ;    C33-   N31-   C34-   H4A
  4428   4427   4432   4434      9     0.00   0.65270   3 ;    C33-   N31-   C34-   H4B
  4428   4427   4432   4435      9     0.00   0.65270   3 ;    C33-   N31-   C34-   H4C
  4428   4427   4436   4437      9     0.00   0.65270   3 ;    C33-   N31-   C35-   H5A
  4428   4427   4436   4438      9     0.00   0.65270   3 ;    C33-   N31-   C35-   H5B
  4428   4427   4436   4439      9     0.00   0.65270   3 ;    C33-   N31-   C35-   H5C
  4429   4428   4427   4432      9     0.00   0.65270   3 ;    H3A-   C33-   N31-   C34
  4429   4428   4427   4436      9     0.00   0.65270   3 ;    H3A-   C33-   N31-   C35
  4430   4428   4427   4432      9     0.00   0.65270   3 ;    H3B-   C33-   N31-   C34
  4430   4428   4427   4436      9     0.00   0.65270   3 ;    H3B-   C33-   N31-   C35
  4431   4428   4427   4432      9     0.00   0.65270   3 ;    H3C-   C33-   N31-   C34
  4431   4428   4427   4436      9     0.00   0.65270   3 ;    H3C-   C33-   N31-   C35
  4432   4427   4436   4437      9     0.00   0.65270   3 ;    C34-   N31-   C35-   H5A
  4432   4427   4436   4438      9     0.00   0.65270   3 ;    C34-   N31-   C35-   H5B
  4432   4427   4436   4439      9     0.00   0.65270   3 ;    C34-   N31-   C35-   H5C
  4433   4432   4427   4436      9     0.00   0.65270   3 ;    H4A-   C34-   N31-   C35
  4434   4432   4427   4436      9     0.00   0.65270   3 ;    H4B-   C34-   N31-   C35
  4435   4432   4427   4436      9     0.00   0.65270   3 ;    H4C-   C34-   N31-   C35
  4442   4443   4482   4479      9   180.00   0.00000   2 ;    O21-   C21-   C12-   C13
  4442   4443   4482   4483      9   180.00   0.00000   2 ;    O21-   C21-   C12-   H2R
  4442   4443   4482   4484      9   180.00   0.00000   2 ;    O21-   C21-   C12-   H2S
  4443   4482   4479   4476      9     0.00   0.65270   3 ;    C21-   C12-   C13-   C14
  4443   4482   4479   4480      9     0.00   0.65270   3 ;    C21-   C12-   C13-   H3R
  4443   4482   4479   4481      9     0.00   0.65270   3 ;    C21-   C12-   C13-   H3S
  4444   4443   4482   4479      9   180.00   0.00000   2 ;    O22-   C21-   C12-   C13
  4444   4443   4482   4483      9     0.00   3.34720   1 ;    O22-   C21-   C12-   H2R
  4444   4443   4482   4483      9   180.00   0.33472   3 ;    O22-   C21-   C12-   H2R
  4444   4443   4482   4484      9     0.00   3.34720   1 ;    O22-   C21-   C12-   H2S
  4444   4443   4482   4484      9   180.00   0.33472   3 ;    O22-   C21-   C12-   H2S
  4445   4446   4449   4450      9     0.00   0.62760   3 ;   H14T-  C114-  C113-  H13R
  4445   4446   4449   4451      9     0.00   0.62760   3 ;   H14T-  C114-  C113-  H13S
  4445   4446   4449   4452      9     0.00   0.66944   3 ;   H14T-  C114-  C113-  C112
  4446   4449   4452   4453      9     0.00   0.66944   3 ;   C114-  C113-  C112-  H12R
  4446   4449   4452   4454      9     0.00   0.66944   3 ;   C114-  C113-  C112-  H12S
  4446   4449   4452   4455      9     0.00   0.41840   1 ;   C114-  C113-  C112-  C111
  4446   4449   4452   4455      9     0.00   0.41840   2 ;   C114-  C113-  C112-  C111
  4446   4449   4452   4455      9     0.00   0.41840   4 ;   C114-  C113-  C112-  C111
  4446   4449   4452   4455      9     0.00   0.41840   5 ;   C114-  C113-  C112-  C111
  4446   4449   4452   4455      9     0.00   1.25520   3 ;   C114-  C113-  C112-  C111
  4447   4446   4449   4450      9     0.00   0.62760   3 ;   H14R-  C114-  C113-  H13R
  4447   4446   4449   4451      9     0.00   0.62760   3 ;   H14R-  C114-  C113-  H13S
  4447   4446   4449   4452      9     0.00   0.66944   3 ;   H14R-  C114-  C113-  C112
  4448   4446   4449   4450      9     0.00   0.62760   3 ;   H14S-  C114-  C113-  H13R
  4448   4446   4449   4451      9     0.00   0.62760   3 ;   H14S-  C114-  C113-  H13S
  4448   4446   4449   4452      9     0.00   0.66944   3 ;   H14S-  C114-  C113-  C112
  4449   4452   4455   4456      9     0.00   0.66944   3 ;   C113-  C112-  C111-  H11R
  4449   4452   4455   4457      9     0.00   0.66944   3 ;   C113-  C112-  C111-  H11S
  4449   4452   4455   4458      9     0.00   0.41840   1 ;   C113-  C112-  C111-  C110
  4449   4452   4455   4458      9     0.00   0.41840   2 ;   C113-  C112-  C111-  C110
  4449   4452   4455   4458      9     0.00   0.41840   4 ;   C113-  C112-  C111-  C110
  4449   4452   4455   4458      9     0.00   0.41840   5 ;   C113-  C112-  C111-  C110
  4449   4452   4455   4458      9     0.00   1.25520   3 ;   C113-  C112-  C111-  C110
  4450   4449   4452   4453      9     0.00   0.62760   3 ;   H13R-  C113-  C112-  H12R
  4450   4449   4452   4454      9     0.00   0.62760   3 ;   H13R-  C113-  C112-  H12S
  4450   4449   4452   4455      9     0.00   0.66944   3 ;   H13R-  C113-  C112-  C111
  4451   4449   4452   4453      9     0.00   0.62760   3 ;   H13S-  C113-  C112-  H12R
  4451   4449   4452   4454      9     0.00   0.62760   3 ;   H13S-  C113-  C112-  H12S
  4451   4449   4452   4455      9     0.00   0.66944   3 ;   H13S-  C113-  C112-  C111
  4452   4455   4458   4459      9     0.00   0.66944   3 ;   C112-  C111-  C110-  H10R
  4452   4455   4458   4460      9     0.00   0.66944   3 ;   C112-  C111-  C110-  H10S
  4452   4455   4458   4461      9     0.00   0.41840   1 ;   C112-  C111-  C110-   C19
  4452   4455   4458   4461      9     0.00   0.41840   2 ;   C112-  C111-  C110-   C19
  4452   4455   4458   4461      9     0.00   0.41840   4 ;   C112-  C111-  C110-   C19
  4452   4455   4458   4461      9     0.00   0.41840   5 ;   C112-  C111-  C110-   C19
  4452   4455   4458   4461      9     0.00   1.25520   3 ;   C112-  C111-  C110-   C19
  4453   4452   4455   4456      9     0.00   0.62760   3 ;   H12R-  C112-  C111-  H11R
  4453   4452   4455   4457      9     0.00   0.62760   3 ;   H12R-  C112-  C111-  H11S
  4453   4452   4455   4458      9     0.00   0.66944   3 ;   H12R-  C112-  C111-  C110
  4454   4452   4455   4456      9     0.00   0.62760   3 ;   H12S-  C112-  C111-  H11R
  4454   4452   4455   4457      9     0.00   0.62760   3 ;   H12S-  C112-  C111-  H11S
  4454   4452   4455   4458      9     0.00   0.66944   3 ;   H12S-  C112-  C111-  C110
  4455   4458   4461   4462      9     0.00   0.66944   3 ;   C111-  C110-   C19-   H9R
  4455   4458   4461   4463      9     0.00   0.66944   3 ;   C111-  C110-   C19-   H9S
  4455   4458   4461   4464      9     0.00   0.41840   1 ;   C111-  C110-   C19-   C18
  4455   4458   4461   4464      9     0.00   0.41840   2 ;   C111-  C110-   C19-   C18
  4455   4458   4461   4464      9     0.00   0.41840   4 ;   C111-  C110-   C19-   C18
  4455   4458   4461   4464      9     0.00   0.41840   5 ;   C111-  C110-   C19-   C18
  4455   4458   4461   4464      9     0.00   1.25520   3 ;   C111-  C110-   C19-   C18
  4456   4455   4458   4459      9     0.00   0.62760   3 ;   H11R-  C111-  C110-  H10R
  4456   4455   4458   4460      9     0.00   0.62760   3 ;   H11R-  C111-  C110-  H10S
  4456   4455   4458   4461      9     0.00   0.66944   3 ;   H11R-  C111-  C110-   C19
  4457   4455   4458   4459      9     0.00   0.62760   3 ;   H11S-  C111-  C110-  H10R
  4457   4455   4458   4460      9     0.00   0.62760   3 ;   H11S-  C111-  C110-  H10S
  4457   4455   4458   4461      9     0.00   0.66944   3 ;   H11S-  C111-  C110-   C19
  4458   4461   4464   4465      9     0.00   0.66944   3 ;   C110-   C19-   C18-   H8R
  4458   4461   4464   4466      9     0.00   0.66944   3 ;   C110-   C19-   C18-   H8S
  4458   4461   4464   4467      9     0.00   0.41840   1 ;   C110-   C19-   C18-   C17
  4458   4461   4464   4467      9     0.00   0.41840   2 ;   C110-   C19-   C18-   C17
  4458   4461   4464   4467      9     0.00   0.41840   4 ;   C110-   C19-   C18-   C17
  4458   4461   4464   4467      9     0.00   0.41840   5 ;   C110-   C19-   C18-   C17
  4458   4461   4464   4467      9     0.00   1.25520   3 ;   C110-   C19-   C18-   C17
  4459   4458   4461   4462      9     0.00   0.62760   3 ;   H10R-  C110-   C19-   H9R
  4459   4458   4461   4463      9     0.00   0.62760   3 ;   H10R-  C110-   C19-   H9S
  4459   4458   4461   4464      9     0.00   0.66944   3 ;   H10R-  C110-   C19-   C18
  4460   4458   4461   4462      9     0.00   0.62760   3 ;   H10S-  C110-   C19-   H9R
  4460   4458   4461   4463      9     0.00   0.62760   3 ;   H10S-  C110-   C19-   H9S
  4460   4458   4461   4464      9     0.00   0.66944   3 ;   H10S-  C110-   C19-   C18
  4461   4464   4467   4468      9     0.00   0.66944   3 ;    C19-   C18-   C17-   H7R
  4461   4464   4467   4469      9     0.00   0.66944   3 ;    C19-   C18-   C17-   H7S
  4461   4464   4467   4470      9     0.00   0.41840   1 ;    C19-   C18-   C17-   C16
  4461   4464   4467   4470      9     0.00   0.41840   2 ;    C19-   C18-   C17-   C16
  4461   4464   4467   4470      9     0.00   0.41840   4 ;    C19-   C18-   C17-   C16
  4461   4464   4467   4470      9     0.00   0.41840   5 ;    C19-   C18-   C17-   C16
  4461   4464   4467   4470      9     0.00   1.25520   3 ;    C19-   C18-   C17-   C16
  4462   4461   4464   4465      9     0.00   0.62760   3 ;    H9R-   C19-   C18-   H8R
  4462   4461   4464   4466      9     0.00   0.62760   3 ;    H9R-   C19-   C18-   H8S
  4462   4461   4464   4467      9     0.00   0.66944   3 ;    H9R-   C19-   C18-   C17
  4463   4461   4464   4465      9     0.00   0.62760   3 ;    H9S-   C19-   C18-   H8R
  4463   4461   4464   4466      9     0.00   0.62760   3 ;    H9S-   C19-   C18-   H8S
  4463   4461   4464   4467      9     0.00   0.66944   3 ;    H9S-   C19-   C18-   C17
  4464   4467   4470   4471      9     0.00   0.66944   3 ;    C18-   C17-   C16-   H6R
  4464   4467   4470   4472      9     0.00   0.66944   3 ;    C18-   C17-   C16-   H6S
  4464   4467   4470   4473      9     0.00   0.41840   1 ;    C18-   C17-   C16-   C15
  4464   4467   4470   4473      9     0.00   0.41840   2 ;    C18-   C17-   C16-   C15
  4464   4467   4470   4473      9     0.00   0.41840   4 ;    C18-   C17-   C16-   C15
  4464   4467   4470   4473      9     0.00   0.41840   5 ;    C18-   C17-   C16-   C15
  4464   4467   4470   4473      9     0.00   1.25520   3 ;    C18-   C17-   C16-   C15
  4465   4464   4467   4468      9     0.00   0.62760   3 ;    H8R-   C18-   C17-   H7R
  4465   4464   4467   4469      9     0.00   0.62760   3 ;    H8R-   C18-   C17-   H7S
  4465   4464   4467   4470      9     0.00   0.66944   3 ;    H8R-   C18-   C17-   C16
  4466   4464   4467   4468      9     0.00   0.62760   3 ;    H8S-   C18-   C17-   H7R
  4466   4464   4467   4469      9     0.00   0.62760   3 ;    H8S-   C18-   C17-   H7S
  4466   4464   4467   4470      9     0.00   0.66944   3 ;    H8S-   C18-   C17-   C16
  4467   4470   4473   4474      9     0.00   0.66944   3 ;    C17-   C16-   C15-   H5R
  4467   4470   4473   4475      9     0.00   0.66944   3 ;    C17-   C16-   C15-   H5S
  4467   4470   4473   4476      9     0.00   0.41840   1 ;    C17-   C16-   C15-   C14
  4467   4470   4473   4476      9     0.00   0.41840   2 ;    C17-   C16-   C15-   C14
  4467   4470   4473   4476      9     0.00   0.41840   4 ;    C17-   C16-   C15-   C14
  4467   4470   4473   4476      9     0.00   0.41840   5 ;    C17-   C16-   C15-   C14
  4467   4470   4473   4476      9     0.00   1.25520   3 ;    C17-   C16-   C15-   C14
  4468   4467   4470   4471      9     0.00   0.62760   3 ;    H7R-   C17-   C16-   H6R
  4468   4467   4470   4472      9     0.00   0.62760   3 ;    H7R-   C17-   C16-   H6S
  4468   4467   4470   4473      9     0.00   0.66944   3 ;    H7R-   C17-   C16-   C15
  4469   4467   4470   4471      9     0.00   0.62760   3 ;    H7S-   C17-   C16-   H6R
  4469   4467   4470   4472      9     0.00   0.62760   3 ;    H7S-   C17-   C16-   H6S
  4469   4467   4470   4473      9     0.00   0.66944   3 ;    H7S-   C17-   C16-   C15
  4470   4473   4476   4477      9     0.00   0.66944   3 ;    C16-   C15-   C14-   H4R
  4470   4473   4476   4478      9     0.00   0.66944   3 ;    C16-   C15-   C14-   H4S
  4470   4473   4476   4479      9     0.00   0.41840   1 ;    C16-   C15-   C14-   C13
  4470   4473   4476   4479      9     0.00   0.41840   2 ;    C16-   C15-   C14-   C13
  4470   4473   4476   4479      9     0.00   0.41840   4 ;    C16-   C15-   C14-   C13
  4470   4473   4476   4479      9     0.00   0.41840   5 ;    C16-   C15-   C14-   C13
  4470   4473   4476   4479      9     0.00   1.25520   3 ;    C16-   C15-   C14-   C13
  4471   4470   4473   4474      9     0.00   0.62760   3 ;    H6R-   C16-   C15-   H5R
  4471   4470   4473   4475      9     0.00   0.62760   3 ;    H6R-   C16-   C15-   H5S
  4471   4470   4473   4476      9     0.00   0.66944   3 ;    H6R-   C16-   C15-   C14
  4472   4470   4473   4474      9     0.00   0.62760   3 ;    H6S-   C16-   C15-   H5R
  4472   4470   4473   4475      9     0.00   0.62760   3 ;    H6S-   C16-   C15-   H5S
  4472   4470   4473   4476      9     0.00   0.66944   3 ;    H6S-   C16-   C15-   C14
  4473   4476   4479   4480      9     0.00   0.66944   3 ;    C15-   C14-   C13-   H3R
  4473   4476   4479   4481      9     0.00   0.66944   3 ;    C15-   C14-   C13-   H3S
  4473   4476   4479   4482      9     0.00   0.41840   1 ;    C15-   C14-   C13-   C12
  4473   4476   4479   4482      9     0.00   0.41840   2 ;    C15-   C14-   C13-   C12
  4473   4476   4479   4482      9     0.00   0.41840   4 ;    C15-   C14-   C13-   C12
  4473   4476   4479   4482      9     0.00   0.41840   5 ;    C15-   C14-   C13-   C12
  4473   4476   4479   4482      9     0.00   1.25520   3 ;    C15-   C14-   C13-   C12
  4474   4473   4476   4477      9     0.00   0.62760   3 ;    H5R-   C15-   C14-   H4R
  4474   4473   4476   4478      9     0.00   0.62760   3 ;    H5R-   C15-   C14-   H4S
  4474   4473   4476   4479      9     0.00   0.66944   3 ;    H5R-   C15-   C14-   C13
  4475   4473   4476   4477      9     0.00   0.62760   3 ;    H5S-   C15-   C14-   H4R
  4475   4473   4476   4478      9     0.00   0.62760   3 ;    H5S-   C15-   C14-   H4S
  4475   4473   4476   4479      9     0.00   0.66944   3 ;    H5S-   C15-   C14-   C13
  4476   4479   4482   4483      9     0.00   0.66944   3 ;    C14-   C13-   C12-   H2R
  4476   4479   4482   4484      9     0.00   0.66944   3 ;    C14-   C13-   C12-   H2S
  4477   4476   4479   4480      9     0.00   0.62760   3 ;    H4R-   C14-   C13-   H3R
  4477   4476   4479   4481      9     0.00   0.62760   3 ;    H4R-   C14-   C13-   H3S
  4477   4476   4479   4482      9     0.00   0.66944   3 ;    H4R-   C14-   C13-   C12
  4478   4476   4479   4480      9     0.00   0.62760   3 ;    H4S-   C14-   C13-   H3R
  4478   4476   4479   4481      9     0.00   0.62760   3 ;    H4S-   C14-   C13-   H3S
  4478   4476   4479   4482      9     0.00   0.66944   3 ;    H4S-   C14-   C13-   C12
  4480   4479   4482   4483      9     0.00   0.62760   3 ;    H3R-   C13-   C12-   H2R
  4480   4479   4482   4484      9     0.00   0.62760   3 ;    H3R-   C13-   C12-   H2S
  4481   4479   4482   4483      9     0.00   0.62760   3 ;    H3S-   C13-   C12-   H2R
  4481   4479   4482   4484      9     0.00   0.62760   3 ;    H3S-   C13-   C12-   H2S
  4485   4486   4489   4490      9     0.00   0.62760   3 ;   H14T-  C114-  C113-  H13R
  4485   4486   4489   4491      9     0.00   0.62760   3 ;   H14T-  C114-  C113-  H13S
  4485   4486   4489   4492      9     0.00   0.66944   3 ;   H14T-  C114-  C113-  C112
  4486   4489   4492   4493      9     0.00   0.66944   3 ;   C114-  C113-  C112-  H12R
  4486   4489   4492   4494      9     0.00   0.66944   3 ;   C114-  C113-  C112-  H12S
  4486   4489   4492   4495      9     0.00   0.41840   1 ;   C114-  C113-  C112-  C111
  4486   4489   4492   4495      9     0.00   0.41840   2 ;   C114-  C113-  C112-  C111
  4486   4489   4492   4495      9     0.00   0.41840   4 ;   C114-  C113-  C112-  C111
  4486   4489   4492   4495      9     0.00   0.41840   5 ;   C114-  C113-  C112-  C111
  4486   4489   4492   4495      9     0.00   1.25520   3 ;   C114-  C113-  C112-  C111
  4487   4486   4489   4490      9     0.00   0.62760   3 ;   H14R-  C114-  C113-  H13R
  4487   4486   4489   4491      9     0.00   0.62760   3 ;   H14R-  C114-  C113-  H13S
  4487   4486   4489   4492      9     0.00   0.66944   3 ;   H14R-  C114-  C113-  C112
  4488   4486   4489   4490      9     0.00   0.62760   3 ;   H14S-  C114-  C113-  H13R
  4488   4486   4489   4491      9     0.00   0.62760   3 ;   H14S-  C114-  C113-  H13S
  4488   4486   4489   4492      9     0.00   0.66944   3 ;   H14S-  C114-  C113-  C112
  4489   4492   4495   4496      9     0.00   0.66944   3 ;   C113-  C112-  C111-  H11R
  4489   4492   4495   4497      9     0.00   0.66944   3 ;   C113-  C112-  C111-  H11S
  4489   4492   4495   4498      9     0.00   0.41840   1 ;   C113-  C112-  C111-  C110
  4489   4492   4495   4498      9     0.00   0.41840   2 ;   C113-  C112-  C111-  C110
  4489   4492   4495   4498      9     0.00   0.41840   4 ;   C113-  C112-  C111-  C110
  4489   4492   4495   4498      9     0.00   0.41840   5 ;   C113-  C112-  C111-  C110
  4489   4492   4495   4498      9     0.00   1.25520   3 ;   C113-  C112-  C111-  C110
  4490   4489   4492   4493      9     0.00   0.62760   3 ;   H13R-  C113-  C112-  H12R
  4490   4489   4492   4494      9     0.00   0.62760   3 ;   H13R-  C113-  C112-  H12S
  4490   4489   4492   4495      9     0.00   0.66944   3 ;   H13R-  C113-  C112-  C111
  4491   4489   4492   4493      9     0.00   0.62760   3 ;   H13S-  C113-  C112-  H12R
  4491   4489   4492   4494      9     0.00   0.62760   3 ;   H13S-  C113-  C112-  H12S
  4491   4489   4492   4495      9     0.00   0.66944   3 ;   H13S-  C113-  C112-  C111
  4492   4495   4498   4499      9     0.00   0.66944   3 ;   C112-  C111-  C110-  H10R
  4492   4495   4498   4500      9     0.00   0.66944   3 ;   C112-  C111-  C110-  H10S
  4492   4495   4498   4501      9     0.00   0.41840   1 ;   C112-  C111-  C110-   C19
  4492   4495   4498   4501      9     0.00   0.41840   2 ;   C112-  C111-  C110-   C19
  4492   4495   4498   4501      9     0.00   0.41840   4 ;   C112-  C111-  C110-   C19
  4492   4495   4498   4501      9     0.00   0.41840   5 ;   C112-  C111-  C110-   C19
  4492   4495   4498   4501      9     0.00   1.25520   3 ;   C112-  C111-  C110-   C19
  4493   4492   4495   4496      9     0.00   0.62760   3 ;   H12R-  C112-  C111-  H11R
  4493   4492   4495   4497      9     0.00   0.62760   3 ;   H12R-  C112-  C111-  H11S
  4493   4492   4495   4498      9     0.00   0.66944   3 ;   H12R-  C112-  C111-  C110
  4494   4492   4495   4496      9     0.00   0.62760   3 ;   H12S-  C112-  C111-  H11R
  4494   4492   4495   4497      9     0.00   0.62760   3 ;   H12S-  C112-  C111-  H11S
  4494   4492   4495   4498      9     0.00   0.66944   3 ;   H12S-  C112-  C111-  C110
  4495   4498   4501   4502      9     0.00   0.66944   3 ;   C111-  C110-   C19-   H9R
  4495   4498   4501   4503      9     0.00   0.66944   3 ;   C111-  C110-   C19-   H9S
  4495   4498   4501   4504      9     0.00   0.41840   1 ;   C111-  C110-   C19-   C18
  4495   4498   4501   4504      9     0.00   0.41840   2 ;   C111-  C110-   C19-   C18
  4495   4498   4501   4504      9     0.00   0.41840   4 ;   C111-  C110-   C19-   C18
  4495   4498   4501   4504      9     0.00   0.41840   5 ;   C111-  C110-   C19-   C18
  4495   4498   4501   4504      9     0.00   1.25520   3 ;   C111-  C110-   C19-   C18
  4496   4495   4498   4499      9     0.00   0.62760   3 ;   H11R-  C111-  C110-  H10R
  4496   4495   4498   4500      9     0.00   0.62760   3 ;   H11R-  C111-  C110-  H10S
  4496   4495   4498   4501      9     0.00   0.66944   3 ;   H11R-  C111-  C110-   C19
  4497   4495   4498   4499      9     0.00   0.62760   3 ;   H11S-  C111-  C110-  H10R
  4497   4495   4498   4500      9     0.00   0.62760   3 ;   H11S-  C111-  C110-  H10S
  4497   4495   4498   4501      9     0.00   0.66944   3 ;   H11S-  C111-  C110-   C19
  4498   4501   4504   4505      9     0.00   0.66944   3 ;   C110-   C19-   C18-   H8R
  4498   4501   4504   4506      9     0.00   0.66944   3 ;   C110-   C19-   C18-   H8S
  4498   4501   4504   4507      9     0.00   0.41840   1 ;   C110-   C19-   C18-   C17
  4498   4501   4504   4507      9     0.00   0.41840   2 ;   C110-   C19-   C18-   C17
  4498   4501   4504   4507      9     0.00   0.41840   4 ;   C110-   C19-   C18-   C17
  4498   4501   4504   4507      9     0.00   0.41840   5 ;   C110-   C19-   C18-   C17
  4498   4501   4504   4507      9     0.00   1.25520   3 ;   C110-   C19-   C18-   C17
  4499   4498   4501   4502      9     0.00   0.62760   3 ;   H10R-  C110-   C19-   H9R
  4499   4498   4501   4503      9     0.00   0.62760   3 ;   H10R-  C110-   C19-   H9S
  4499   4498   4501   4504      9     0.00   0.66944   3 ;   H10R-  C110-   C19-   C18
  4500   4498   4501   4502      9     0.00   0.62760   3 ;   H10S-  C110-   C19-   H9R
  4500   4498   4501   4503      9     0.00   0.62760   3 ;   H10S-  C110-   C19-   H9S
  4500   4498   4501   4504      9     0.00   0.66944   3 ;   H10S-  C110-   C19-   C18
  4501   4504   4507   4508      9     0.00   0.66944   3 ;    C19-   C18-   C17-   H7R
  4501   4504   4507   4509      9     0.00   0.66944   3 ;    C19-   C18-   C17-   H7S
  4501   4504   4507   4510      9     0.00   0.41840   1 ;    C19-   C18-   C17-   C16
  4501   4504   4507   4510      9     0.00   0.41840   2 ;    C19-   C18-   C17-   C16
  4501   4504   4507   4510      9     0.00   0.41840   4 ;    C19-   C18-   C17-   C16
  4501   4504   4507   4510      9     0.00   0.41840   5 ;    C19-   C18-   C17-   C16
  4501   4504   4507   4510      9     0.00   1.25520   3 ;    C19-   C18-   C17-   C16
  4502   4501   4504   4505      9     0.00   0.62760   3 ;    H9R-   C19-   C18-   H8R
  4502   4501   4504   4506      9     0.00   0.62760   3 ;    H9R-   C19-   C18-   H8S
  4502   4501   4504   4507      9     0.00   0.66944   3 ;    H9R-   C19-   C18-   C17
  4503   4501   4504   4505      9     0.00   0.62760   3 ;    H9S-   C19-   C18-   H8R
  4503   4501   4504   4506      9     0.00   0.62760   3 ;    H9S-   C19-   C18-   H8S
  4503   4501   4504   4507      9     0.00   0.66944   3 ;    H9S-   C19-   C18-   C17
  4504   4507   4510   4511      9     0.00   0.66944   3 ;    C18-   C17-   C16-   H6R
  4504   4507   4510   4512      9     0.00   0.66944   3 ;    C18-   C17-   C16-   H6S
  4504   4507   4510   4513      9     0.00   0.41840   1 ;    C18-   C17-   C16-   C15
  4504   4507   4510   4513      9     0.00   0.41840   2 ;    C18-   C17-   C16-   C15
  4504   4507   4510   4513      9     0.00   0.41840   4 ;    C18-   C17-   C16-   C15
  4504   4507   4510   4513      9     0.00   0.41840   5 ;    C18-   C17-   C16-   C15
  4504   4507   4510   4513      9     0.00   1.25520   3 ;    C18-   C17-   C16-   C15
  4505   4504   4507   4508      9     0.00   0.62760   3 ;    H8R-   C18-   C17-   H7R
  4505   4504   4507   4509      9     0.00   0.62760   3 ;    H8R-   C18-   C17-   H7S
  4505   4504   4507   4510      9     0.00   0.66944   3 ;    H8R-   C18-   C17-   C16
  4506   4504   4507   4508      9     0.00   0.62760   3 ;    H8S-   C18-   C17-   H7R
  4506   4504   4507   4509      9     0.00   0.62760   3 ;    H8S-   C18-   C17-   H7S
  4506   4504   4507   4510      9     0.00   0.66944   3 ;    H8S-   C18-   C17-   C16
  4507   4510   4513   4514      9     0.00   0.66944   3 ;    C17-   C16-   C15-   H5R
  4507   4510   4513   4515      9     0.00   0.66944   3 ;    C17-   C16-   C15-   H5S
  4507   4510   4513   4516      9     0.00   0.41840   1 ;    C17-   C16-   C15-   C14
  4507   4510   4513   4516      9     0.00   0.41840   2 ;    C17-   C16-   C15-   C14
  4507   4510   4513   4516      9     0.00   0.41840   4 ;    C17-   C16-   C15-   C14
  4507   4510   4513   4516      9     0.00   0.41840   5 ;    C17-   C16-   C15-   C14
  4507   4510   4513   4516      9     0.00   1.25520   3 ;    C17-   C16-   C15-   C14
  4508   4507   4510   4511      9     0.00   0.62760   3 ;    H7R-   C17-   C16-   H6R
  4508   4507   4510   4512      9     0.00   0.62760   3 ;    H7R-   C17-   C16-   H6S
  4508   4507   4510   4513      9     0.00   0.66944   3 ;    H7R-   C17-   C16-   C15
  4509   4507   4510   4511      9     0.00   0.62760   3 ;    H7S-   C17-   C16-   H6R
  4509   4507   4510   4512      9     0.00   0.62760   3 ;    H7S-   C17-   C16-   H6S
  4509   4507   4510   4513      9     0.00   0.66944   3 ;    H7S-   C17-   C16-   C15
  4510   4513   4516   4517      9     0.00   0.66944   3 ;    C16-   C15-   C14-   H4R
  4510   4513   4516   4518      9     0.00   0.66944   3 ;    C16-   C15-   C14-   H4S
  4510   4513   4516   4519      9     0.00   0.41840   1 ;    C16-   C15-   C14-   C13
  4510   4513   4516   4519      9     0.00   0.41840   2 ;    C16-   C15-   C14-   C13
  4510   4513   4516   4519      9     0.00   0.41840   4 ;    C16-   C15-   C14-   C13
  4510   4513   4516   4519      9     0.00   0.41840   5 ;    C16-   C15-   C14-   C13
  4510   4513   4516   4519      9     0.00   1.25520   3 ;    C16-   C15-   C14-   C13
  4511   4510   4513   4514      9     0.00   0.62760   3 ;    H6R-   C16-   C15-   H5R
  4511   4510   4513   4515      9     0.00   0.62760   3 ;    H6R-   C16-   C15-   H5S
  4511   4510   4513   4516      9     0.00   0.66944   3 ;    H6R-   C16-   C15-   C14
  4512   4510   4513   4514      9     0.00   0.62760   3 ;    H6S-   C16-   C15-   H5R
  4512   4510   4513   4515      9     0.00   0.62760   3 ;    H6S-   C16-   C15-   H5S
  4512   4510   4513   4516      9     0.00   0.66944   3 ;    H6S-   C16-   C15-   C14
  4513   4516   4519   4520      9     0.00   0.66944   3 ;    C15-   C14-   C13-   H3R
  4513   4516   4519   4521      9     0.00   0.66944   3 ;    C15-   C14-   C13-   H3S
  4513   4516   4519   4522      9     0.00   0.41840   1 ;    C15-   C14-   C13-   C12
  4513   4516   4519   4522      9     0.00   0.41840   2 ;    C15-   C14-   C13-   C12
  4513   4516   4519   4522      9     0.00   0.41840   4 ;    C15-   C14-   C13-   C12
  4513   4516   4519   4522      9     0.00   0.41840   5 ;    C15-   C14-   C13-   C12
  4513   4516   4519   4522      9     0.00   1.25520   3 ;    C15-   C14-   C13-   C12
  4514   4513   4516   4517      9     0.00   0.62760   3 ;    H5R-   C15-   C14-   H4R
  4514   4513   4516   4518      9     0.00   0.62760   3 ;    H5R-   C15-   C14-   H4S
  4514   4513   4516   4519      9     0.00   0.66944   3 ;    H5R-   C15-   C14-   C13
  4515   4513   4516   4517      9     0.00   0.62760   3 ;    H5S-   C15-   C14-   H4R
  4515   4513   4516   4518      9     0.00   0.62760   3 ;    H5S-   C15-   C14-   H4S
  4515   4513   4516   4519      9     0.00   0.66944   3 ;    H5S-   C15-   C14-   C13
  4516   4519   4522   4523      9     0.00   0.66944   3 ;    C14-   C13-   C12-   H2R
  4516   4519   4522   4524      9     0.00   0.66944   3 ;    C14-   C13-   C12-   H2S
  4516   4519   4522   4525      9     0.00   0.65270   3 ;    C14-   C13-   C12-   C11
  4517   4516   4519   4520      9     0.00   0.62760   3 ;    H4R-   C14-   C13-   H3R
  4517   4516   4519   4521      9     0.00   0.62760   3 ;    H4R-   C14-   C13-   H3S
  4517   4516   4519   4522      9     0.00   0.66944   3 ;    H4R-   C14-   C13-   C12
  4518   4516   4519   4520      9     0.00   0.62760   3 ;    H4S-   C14-   C13-   H3R
  4518   4516   4519   4521      9     0.00   0.62760   3 ;    H4S-   C14-   C13-   H3S
  4518   4516   4519   4522      9     0.00   0.66944   3 ;    H4S-   C14-   C13-   C12
  4519   4522   4525   4526      9   180.00   0.00000   2 ;    C13-   C12-   C11-   O12
  4519   4522   4525   4527      9   180.00   0.00000   2 ;    C13-   C12-   C11-   O11
  4520   4519   4522   4523      9     0.00   0.62760   3 ;    H3R-   C13-   C12-   H2R
  4520   4519   4522   4524      9     0.00   0.62760   3 ;    H3R-   C13-   C12-   H2S
  4520   4519   4522   4525      9     0.00   0.65270   3 ;    H3R-   C13-   C12-   C11
  4521   4519   4522   4523      9     0.00   0.62760   3 ;    H3S-   C13-   C12-   H2R
  4521   4519   4522   4524      9     0.00   0.62760   3 ;    H3S-   C13-   C12-   H2S
  4521   4519   4522   4525      9     0.00   0.65270   3 ;    H3S-   C13-   C12-   C11
  4522   4525   4527   4528      9   180.00  11.29680   2 ;    C12-   C11-   O11-    C1
  4523   4522   4525   4526      9     0.00   3.34720   1 ;    H2R-   C12-   C11-   O12
  4523   4522   4525   4526      9   180.00   0.33472   3 ;    H2R-   C12-   C11-   O12
  4523   4522   4525   4527      9   180.00   0.00000   2 ;    H2R-   C12-   C11-   O11
  4524   4522   4525   4526      9     0.00   3.34720   1 ;    H2S-   C12-   C11-   O12
  4524   4522   4525   4526      9   180.00   0.33472   3 ;    H2S-   C12-   C11-   O12
  4524   4522   4525   4527      9   180.00   0.00000   2 ;    H2S-   C12-   C11-   O11
  4525   4527   4528   4529      9     0.00   1.60247   3 ;    C11-   O11-    C1-    HR
  4525   4527   4528   4530      9     0.00   1.60247   3 ;    C11-   O11-    C1-    HS
  4525   4527   4528   4531      9     0.00  -0.41840   1 ;    C11-   O11-    C1-    C2
  4526   4525   4527   4528      9   180.00   5.85760   1 ;    O12-   C11-   O11-    C1
  4526   4525   4527   4528      9   180.00  11.29680   2 ;    O12-   C11-   O11-    C1
  4527   4528   4531   4532      9     0.00   0.00000   0 ;    O11-    C1-    C2-    HX
  4527   4528   4531   4532      9     0.00   1.04600   1 ;    O11-    C1-    C2-    HX
  4527   4528   4531   4533      9     0.00   0.00000   0 ;    O11-    C1-    C2-    C3
  4527   4528   4531   4533      9     0.00   0.00000   0 ;    O11-    C1-    C2-    C3
  4527   4528   4531   4533      9     0.00   0.00000   0 ;    O11-    C1-    C2-    C3
  4527   4528   4531   4533      9     0.00   0.00000   0 ;    O11-    C1-    C2-    C3
  4527   4528   4531   4533      9     0.00   0.00000   0 ;    O11-    C1-    C2-    C3
  4527   4528   4531   4560      9     0.00   1.25520   2 ;    O11-    C1-    C2-   O21
  4527   4528   4531   4560      9     0.00   4.18400   3 ;    O11-    C1-    C2-   O21
  4527   4528   4531   4560      9   180.00  -0.41840   1 ;    O11-    C1-    C2-   O21
  4528   4531   4533   4534      9     0.00   0.65270   3 ;     C1-    C2-    C3-    HA
  4528   4531   4533   4535      9     0.00   0.65270   3 ;     C1-    C2-    C3-    HB
  4528   4531   4533   4536      9   180.00   3.34720   1 ;     C1-    C2-    C3-   O31
  4528   4531   4560   4561      9     0.00  -0.41840   1 ;     C1-    C2-   O21-   C21
  4529   4528   4531   4532      9     0.00   0.65270   3 ;     HR-    C1-    C2-    HX
  4529   4528   4531   4533      9     0.00   0.65270   3 ;     HR-    C1-    C2-    C3
  4529   4528   4531   4560      9     0.00   0.00000   0 ;     HR-    C1-    C2-   O21
  4529   4528   4531   4560      9     0.00   1.04600   1 ;     HR-    C1-    C2-   O21
  4530   4528   4531   4532      9     0.00   0.65270   3 ;     HS-    C1-    C2-    HX
  4530   4528   4531   4533      9     0.00   0.65270   3 ;     HS-    C1-    C2-    C3
  4530   4528   4531   4560      9     0.00   0.00000   0 ;     HS-    C1-    C2-   O21
  4530   4528   4531   4560      9     0.00   1.04600   1 ;     HS-    C1-    C2-   O21
  4531   4533   4536   4537      9     0.00   0.00000   0 ;     C2-    C3-   O31-   P31
  4531   4533   4536   4537      9   180.00  -3.34720   2 ;     C2-    C3-   O31-   P31
  4531   4560   4561   4562      9   180.00   5.85760   1 ;     C2-   O21-   C21-   O22
  4531   4560   4561   4562      9   180.00  11.29680   2 ;     C2-   O21-   C21-   O22
  4531   4560   4561   4600      9   180.00  11.29680   2 ;     C2-   O21-   C21-   C12
  4532   4531   4533   4534      9     0.00   0.65270   3 ;     HX-    C2-    C3-    HA
  4532   4531   4533   4535      9     0.00   0.65270   3 ;     HX-    C2-    C3-    HB
  4532   4531   4533   4536      9     0.00   0.00000   0 ;     HX-    C2-    C3-   O31
  4532   4531   4533   4536      9     0.00   1.04600   1 ;     HX-    C2-    C3-   O31
  4532   4531   4560   4561      9     0.00   1.60247   3 ;     HX-    C2-   O21-   C21
  4533   4531   4560   4561      9     0.00  -0.41840   1 ;     C3-    C2-   O21-   C21
  4533   4536   4537   4538      9     0.00   2.51040   3 ;     C3-   O31-   P31-   O32
  4533   4536   4537   4538      9     0.00   9.62320   2 ;     C3-   O31-   P31-   O32
  4533   4536   4537   4558      9     0.00   0.00000   0 ;     C3-   O31-   P31-   O33
  4533   4536   4537   4558      9     0.00   0.00000   0 ;     C3-   O31-   P31-   O33
  4533   4536   4537   4558      9     0.00   0.00000   0 ;     C3-   O31-   P31-   O33
  4533   4536   4537   4558      9     0.00   0.00000   0 ;     C3-   O31-   P31-   O33
  4533   4536   4537   4558      9     0.00   0.83680   2 ;     C3-   O31-   P31-   O33
  4533   4536   4537   4559      9     0.00   0.00000   0 ;     C3-   O31-   P31-   O34
  4533   4536   4537   4559      9     0.00   0.00000   0 ;     C3-   O31-   P31-   O34
  4533   4536   4537   4559      9     0.00   0.00000   0 ;     C3-   O31-   P31-   O34
  4533   4536   4537   4559      9     0.00   0.00000   0 ;     C3-   O31-   P31-   O34
  4533   4536   4537   4559      9     0.00   0.83680   2 ;     C3-   O31-   P31-   O34
  4534   4533   4531   4560      9     0.00   0.00000   0 ;     HA-    C3-    C2-   O21
  4534   4533   4531   4560      9     0.00   1.04600   1 ;     HA-    C3-    C2-   O21
  4534   4533   4536   4537      9     0.00   0.00000   0 ;     HA-    C3-   O31-   P31
  4534   4533   4536   4537      9     0.00   0.00000   0 ;     HA-    C3-   O31-   P31
  4534   4533   4536   4537      9     0.00   0.00000   0 ;     HA-    C3-   O31-   P31
  4534   4533   4536   4537      9     0.00   0.00000   0 ;     HA-    C3-   O31-   P31
  4534   4533   4536   4537      9     0.00   1.60247   3 ;     HA-    C3-   O31-   P31
  4535   4533   4531   4560      9     0.00   0.00000   0 ;     HB-    C3-    C2-   O21
  4535   4533   4531   4560      9     0.00   1.04600   1 ;     HB-    C3-    C2-   O21
  4535   4533   4536   4537      9     0.00   0.00000   0 ;     HB-    C3-   O31-   P31
  4535   4533   4536   4537      9     0.00   0.00000   0 ;     HB-    C3-   O31-   P31
  4535   4533   4536   4537      9     0.00   0.00000   0 ;     HB-    C3-   O31-   P31
  4535   4533   4536   4537      9     0.00   0.00000   0 ;     HB-    C3-   O31-   P31
  4535   4533   4536   4537      9     0.00   1.60247   3 ;     HB-    C3-   O31-   P31
  4536   4533   4531   4560      9     0.00   0.00000   0 ;    O31-    C3-    C2-   O21
  4536   4533   4531   4560      9     0.00   0.00000   0 ;    O31-    C3-    C2-   O21
  4536   4533   4531   4560      9     0.00   0.00000   0 ;    O31-    C3-    C2-   O21
  4536   4533   4531   4560      9     0.00   0.00000   0 ;    O31-    C3-    C2-   O21
  4536   4533   4531   4560      9     0.00   0.00000   0 ;    O31-    C3-    C2-   O21
  4536   4537   4538   4539      9     0.00   2.51040   3 ;    O31-   P31-   O32-   C31
  4536   4537   4538   4539      9     0.00   9.62320   2 ;    O31-   P31-   O32-   C31
  4537   4538   4539   4540      9     0.00   0.00000   0 ;    P31-   O32-   C31-   H1A
  4537   4538   4539   4540      9     0.00   0.00000   0 ;    P31-   O32-   C31-   H1A
  4537   4538   4539   4540      9     0.00   0.00000   0 ;    P31-   O32-   C31-   H1A
  4537   4538   4539   4540      9     0.00   0.00000   0 ;    P31-   O32-   C31-   H1A
  4537   4538   4539   4540      9     0.00   1.60247   3 ;    P31-   O32-   C31-   H1A
  4537   4538   4539   4541      9     0.00   0.00000   0 ;    P31-   O32-   C31-   H1B
  4537   4538   4539   4541      9     0.00   0.00000   0 ;    P31-   O32-   C31-   H1B
  4537   4538   4539   4541      9     0.00   0.00000   0 ;    P31-   O32-   C31-   H1B
  4537   4538   4539   4541      9     0.00   0.00000   0 ;    P31-   O32-   C31-   H1B
  4537   4538   4539   4541      9     0.00   1.60247   3 ;    P31-   O32-   C31-   H1B
  4537   4538   4539   4542      9     0.00   0.00000   0 ;    P31-   O32-   C31-   C32
  4537   4538   4539   4542      9   180.00  -3.34720   2 ;    P31-   O32-   C31-   C32
  4538   4539   4542   4543      9     0.00   0.65270   3 ;    O32-   C31-   C32-   H2A
  4538   4539   4542   4544      9     0.00   0.65270   3 ;    O32-   C31-   C32-   H2B
  4538   4539   4542   4545      9     0.00   4.18400   3 ;    O32-   C31-   C32-   N31
  4539   4538   4537   4558      9     0.00   0.00000   0 ;    C31-   O32-   P31-   O33
  4539   4538   4537   4558      9     0.00   0.00000   0 ;    C31-   O32-   P31-   O33
  4539   4538   4537   4558      9     0.00   0.00000   0 ;    C31-   O32-   P31-   O33
  4539   4538   4537   4558      9     0.00   0.00000   0 ;    C31-   O32-   P31-   O33
  4539   4538   4537   4558      9     0.00   0.83680   2 ;    C31-   O32-   P31-   O33
  4539   4538   4537   4559      9     0.00   0.00000   0 ;    C31-   O32-   P31-   O34
  4539   4538   4537   4559      9     0.00   0.00000   0 ;    C31-   O32-   P31-   O34
  4539   4538   4537   4559      9     0.00   0.00000   0 ;    C31-   O32-   P31-   O34
  4539   4538   4537   4559      9     0.00   0.00000   0 ;    C31-   O32-   P31-   O34
  4539   4538   4537   4559      9     0.00   0.83680   2 ;    C31-   O32-   P31-   O34
  4539   4542   4545   4546      9     0.00   0.65270   3 ;    C31-   C32-   N31-   C33
  4539   4542   4545   4550      9     0.00   0.65270   3 ;    C31-   C32-   N31-   C34
  4539   4542   4545   4554      9     0.00   0.65270   3 ;    C31-   C32-   N31-   C35
  4540   4539   4542   4543      9     0.00   0.65270   3 ;    H1A-   C31-   C32-   H2A
  4540   4539   4542   4544      9     0.00   0.65270   3 ;    H1A-   C31-   C32-   H2B
  4540   4539   4542   4545      9     0.00   0.65270   3 ;    H1A-   C31-   C32-   N31
  4541   4539   4542   4543      9     0.00   0.65270   3 ;    H1B-   C31-   C32-   H2A
  4541   4539   4542   4544      9     0.00   0.65270   3 ;    H1B-   C31-   C32-   H2B
  4541   4539   4542   4545      9     0.00   0.65270   3 ;    H1B-   C31-   C32-   N31
  4542   4545   4546   4547      9     0.00   0.65270   3 ;    C32-   N31-   C33-   H3A
  4542   4545   4546   4548      9     0.00   0.65270   3 ;    C32-   N31-   C33-   H3B
  4542   4545   4546   4549      9     0.00   0.65270   3 ;    C32-   N31-   C33-   H3C
  4542   4545   4550   4551      9     0.00   0.65270   3 ;    C32-   N31-   C34-   H4A
  4542   4545   4550   4552      9     0.00   0.65270   3 ;    C32-   N31-   C34-   H4B
  4542   4545   4550   4553      9     0.00   0.65270   3 ;    C32-   N31-   C34-   H4C
  4542   4545   4554   4555      9     0.00   0.65270   3 ;    C32-   N31-   C35-   H5A
  4542   4545   4554   4556      9     0.00   0.65270   3 ;    C32-   N31-   C35-   H5B
  4542   4545   4554   4557      9     0.00   0.65270   3 ;    C32-   N31-   C35-   H5C
  4543   4542   4545   4546      9     0.00   0.65270   3 ;    H2A-   C32-   N31-   C33
  4543   4542   4545   4550      9     0.00   0.65270   3 ;    H2A-   C32-   N31-   C34
  4543   4542   4545   4554      9     0.00   0.65270   3 ;    H2A-   C32-   N31-   C35
  4544   4542   4545   4546      9     0.00   0.65270   3 ;    H2B-   C32-   N31-   C33
  4544   4542   4545   4550      9     0.00   0.65270   3 ;    H2B-   C32-   N31-   C34
  4544   4542   4545   4554      9     0.00   0.65270   3 ;    H2B-   C32-   N31-   C35
  4546   4545   4550   4551      9     0.00   0.65270   3 ;    C33-   N31-   C34-   H4A
  4546   4545   4550   4552      9     0.00   0.65270   3 ;    C33-   N31-   C34-   H4B
  4546   4545   4550   4553      9     0.00   0.65270   3 ;    C33-   N31-   C34-   H4C
  4546   4545   4554   4555      9     0.00   0.65270   3 ;    C33-   N31-   C35-   H5A
  4546   4545   4554   4556      9     0.00   0.65270   3 ;    C33-   N31-   C35-   H5B
  4546   4545   4554   4557      9     0.00   0.65270   3 ;    C33-   N31-   C35-   H5C
  4547   4546   4545   4550      9     0.00   0.65270   3 ;    H3A-   C33-   N31-   C34
  4547   4546   4545   4554      9     0.00   0.65270   3 ;    H3A-   C33-   N31-   C35
  4548   4546   4545   4550      9     0.00   0.65270   3 ;    H3B-   C33-   N31-   C34
  4548   4546   4545   4554      9     0.00   0.65270   3 ;    H3B-   C33-   N31-   C35
  4549   4546   4545   4550      9     0.00   0.65270   3 ;    H3C-   C33-   N31-   C34
  4549   4546   4545   4554      9     0.00   0.65270   3 ;    H3C-   C33-   N31-   C35
  4550   4545   4554   4555      9     0.00   0.65270   3 ;    C34-   N31-   C35-   H5A
  4550   4545   4554   4556      9     0.00   0.65270   3 ;    C34-   N31-   C35-   H5B
  4550   4545   4554   4557      9     0.00   0.65270   3 ;    C34-   N31-   C35-   H5C
  4551   4550   4545   4554      9     0.00   0.65270   3 ;    H4A-   C34-   N31-   C35
  4552   4550   4545   4554      9     0.00   0.65270   3 ;    H4B-   C34-   N31-   C35
  4553   4550   4545   4554      9     0.00   0.65270   3 ;    H4C-   C34-   N31-   C35
  4560   4561   4600   4597      9   180.00   0.00000   2 ;    O21-   C21-   C12-   C13
  4560   4561   4600   4601      9   180.00   0.00000   2 ;    O21-   C21-   C12-   H2R
  4560   4561   4600   4602      9   180.00   0.00000   2 ;    O21-   C21-   C12-   H2S
  4561   4600   4597   4594      9     0.00   0.65270   3 ;    C21-   C12-   C13-   C14
  4561   4600   4597   4598      9     0.00   0.65270   3 ;    C21-   C12-   C13-   H3R
  4561   4600   4597   4599      9     0.00   0.65270   3 ;    C21-   C12-   C13-   H3S
  4562   4561   4600   4597      9   180.00   0.00000   2 ;    O22-   C21-   C12-   C13
  4562   4561   4600   4601      9     0.00   3.34720   1 ;    O22-   C21-   C12-   H2R
  4562   4561   4600   4601      9   180.00   0.33472   3 ;    O22-   C21-   C12-   H2R
  4562   4561   4600   4602      9     0.00   3.34720   1 ;    O22-   C21-   C12-   H2S
  4562   4561   4600   4602      9   180.00   0.33472   3 ;    O22-   C21-   C12-   H2S
  4563   4564   4567   4568      9     0.00   0.62760   3 ;   H14T-  C114-  C113-  H13R
  4563   4564   4567   4569      9     0.00   0.62760   3 ;   H14T-  C114-  C113-  H13S
  4563   4564   4567   4570      9     0.00   0.66944   3 ;   H14T-  C114-  C113-  C112
  4564   4567   4570   4571      9     0.00   0.66944   3 ;   C114-  C113-  C112-  H12R
  4564   4567   4570   4572      9     0.00   0.66944   3 ;   C114-  C113-  C112-  H12S
  4564   4567   4570   4573      9     0.00   0.41840   1 ;   C114-  C113-  C112-  C111
  4564   4567   4570   4573      9     0.00   0.41840   2 ;   C114-  C113-  C112-  C111
  4564   4567   4570   4573      9     0.00   0.41840   4 ;   C114-  C113-  C112-  C111
  4564   4567   4570   4573      9     0.00   0.41840   5 ;   C114-  C113-  C112-  C111
  4564   4567   4570   4573      9     0.00   1.25520   3 ;   C114-  C113-  C112-  C111
  4565   4564   4567   4568      9     0.00   0.62760   3 ;   H14R-  C114-  C113-  H13R
  4565   4564   4567   4569      9     0.00   0.62760   3 ;   H14R-  C114-  C113-  H13S
  4565   4564   4567   4570      9     0.00   0.66944   3 ;   H14R-  C114-  C113-  C112
  4566   4564   4567   4568      9     0.00   0.62760   3 ;   H14S-  C114-  C113-  H13R
  4566   4564   4567   4569      9     0.00   0.62760   3 ;   H14S-  C114-  C113-  H13S
  4566   4564   4567   4570      9     0.00   0.66944   3 ;   H14S-  C114-  C113-  C112
  4567   4570   4573   4574      9     0.00   0.66944   3 ;   C113-  C112-  C111-  H11R
  4567   4570   4573   4575      9     0.00   0.66944   3 ;   C113-  C112-  C111-  H11S
  4567   4570   4573   4576      9     0.00   0.41840   1 ;   C113-  C112-  C111-  C110
  4567   4570   4573   4576      9     0.00   0.41840   2 ;   C113-  C112-  C111-  C110
  4567   4570   4573   4576      9     0.00   0.41840   4 ;   C113-  C112-  C111-  C110
  4567   4570   4573   4576      9     0.00   0.41840   5 ;   C113-  C112-  C111-  C110
  4567   4570   4573   4576      9     0.00   1.25520   3 ;   C113-  C112-  C111-  C110
  4568   4567   4570   4571      9     0.00   0.62760   3 ;   H13R-  C113-  C112-  H12R
  4568   4567   4570   4572      9     0.00   0.62760   3 ;   H13R-  C113-  C112-  H12S
  4568   4567   4570   4573      9     0.00   0.66944   3 ;   H13R-  C113-  C112-  C111
  4569   4567   4570   4571      9     0.00   0.62760   3 ;   H13S-  C113-  C112-  H12R
  4569   4567   4570   4572      9     0.00   0.62760   3 ;   H13S-  C113-  C112-  H12S
  4569   4567   4570   4573      9     0.00   0.66944   3 ;   H13S-  C113-  C112-  C111
  4570   4573   4576   4577      9     0.00   0.66944   3 ;   C112-  C111-  C110-  H10R
  4570   4573   4576   4578      9     0.00   0.66944   3 ;   C112-  C111-  C110-  H10S
  4570   4573   4576   4579      9     0.00   0.41840   1 ;   C112-  C111-  C110-   C19
  4570   4573   4576   4579      9     0.00   0.41840   2 ;   C112-  C111-  C110-   C19
  4570   4573   4576   4579      9     0.00   0.41840   4 ;   C112-  C111-  C110-   C19
  4570   4573   4576   4579      9     0.00   0.41840   5 ;   C112-  C111-  C110-   C19
  4570   4573   4576   4579      9     0.00   1.25520   3 ;   C112-  C111-  C110-   C19
  4571   4570   4573   4574      9     0.00   0.62760   3 ;   H12R-  C112-  C111-  H11R
  4571   4570   4573   4575      9     0.00   0.62760   3 ;   H12R-  C112-  C111-  H11S
  4571   4570   4573   4576      9     0.00   0.66944   3 ;   H12R-  C112-  C111-  C110
  4572   4570   4573   4574      9     0.00   0.62760   3 ;   H12S-  C112-  C111-  H11R
  4572   4570   4573   4575      9     0.00   0.62760   3 ;   H12S-  C112-  C111-  H11S
  4572   4570   4573   4576      9     0.00   0.66944   3 ;   H12S-  C112-  C111-  C110
  4573   4576   4579   4580      9     0.00   0.66944   3 ;   C111-  C110-   C19-   H9R
  4573   4576   4579   4581      9     0.00   0.66944   3 ;   C111-  C110-   C19-   H9S
  4573   4576   4579   4582      9     0.00   0.41840   1 ;   C111-  C110-   C19-   C18
  4573   4576   4579   4582      9     0.00   0.41840   2 ;   C111-  C110-   C19-   C18
  4573   4576   4579   4582      9     0.00   0.41840   4 ;   C111-  C110-   C19-   C18
  4573   4576   4579   4582      9     0.00   0.41840   5 ;   C111-  C110-   C19-   C18
  4573   4576   4579   4582      9     0.00   1.25520   3 ;   C111-  C110-   C19-   C18
  4574   4573   4576   4577      9     0.00   0.62760   3 ;   H11R-  C111-  C110-  H10R
  4574   4573   4576   4578      9     0.00   0.62760   3 ;   H11R-  C111-  C110-  H10S
  4574   4573   4576   4579      9     0.00   0.66944   3 ;   H11R-  C111-  C110-   C19
  4575   4573   4576   4577      9     0.00   0.62760   3 ;   H11S-  C111-  C110-  H10R
  4575   4573   4576   4578      9     0.00   0.62760   3 ;   H11S-  C111-  C110-  H10S
  4575   4573   4576   4579      9     0.00   0.66944   3 ;   H11S-  C111-  C110-   C19
  4576   4579   4582   4583      9     0.00   0.66944   3 ;   C110-   C19-   C18-   H8R
  4576   4579   4582   4584      9     0.00   0.66944   3 ;   C110-   C19-   C18-   H8S
  4576   4579   4582   4585      9     0.00   0.41840   1 ;   C110-   C19-   C18-   C17
  4576   4579   4582   4585      9     0.00   0.41840   2 ;   C110-   C19-   C18-   C17
  4576   4579   4582   4585      9     0.00   0.41840   4 ;   C110-   C19-   C18-   C17
  4576   4579   4582   4585      9     0.00   0.41840   5 ;   C110-   C19-   C18-   C17
  4576   4579   4582   4585      9     0.00   1.25520   3 ;   C110-   C19-   C18-   C17
  4577   4576   4579   4580      9     0.00   0.62760   3 ;   H10R-  C110-   C19-   H9R
  4577   4576   4579   4581      9     0.00   0.62760   3 ;   H10R-  C110-   C19-   H9S
  4577   4576   4579   4582      9     0.00   0.66944   3 ;   H10R-  C110-   C19-   C18
  4578   4576   4579   4580      9     0.00   0.62760   3 ;   H10S-  C110-   C19-   H9R
  4578   4576   4579   4581      9     0.00   0.62760   3 ;   H10S-  C110-   C19-   H9S
  4578   4576   4579   4582      9     0.00   0.66944   3 ;   H10S-  C110-   C19-   C18
  4579   4582   4585   4586      9     0.00   0.66944   3 ;    C19-   C18-   C17-   H7R
  4579   4582   4585   4587      9     0.00   0.66944   3 ;    C19-   C18-   C17-   H7S
  4579   4582   4585   4588      9     0.00   0.41840   1 ;    C19-   C18-   C17-   C16
  4579   4582   4585   4588      9     0.00   0.41840   2 ;    C19-   C18-   C17-   C16
  4579   4582   4585   4588      9     0.00   0.41840   4 ;    C19-   C18-   C17-   C16
  4579   4582   4585   4588      9     0.00   0.41840   5 ;    C19-   C18-   C17-   C16
  4579   4582   4585   4588      9     0.00   1.25520   3 ;    C19-   C18-   C17-   C16
  4580   4579   4582   4583      9     0.00   0.62760   3 ;    H9R-   C19-   C18-   H8R
  4580   4579   4582   4584      9     0.00   0.62760   3 ;    H9R-   C19-   C18-   H8S
  4580   4579   4582   4585      9     0.00   0.66944   3 ;    H9R-   C19-   C18-   C17
  4581   4579   4582   4583      9     0.00   0.62760   3 ;    H9S-   C19-   C18-   H8R
  4581   4579   4582   4584      9     0.00   0.62760   3 ;    H9S-   C19-   C18-   H8S
  4581   4579   4582   4585      9     0.00   0.66944   3 ;    H9S-   C19-   C18-   C17
  4582   4585   4588   4589      9     0.00   0.66944   3 ;    C18-   C17-   C16-   H6R
  4582   4585   4588   4590      9     0.00   0.66944   3 ;    C18-   C17-   C16-   H6S
  4582   4585   4588   4591      9     0.00   0.41840   1 ;    C18-   C17-   C16-   C15
  4582   4585   4588   4591      9     0.00   0.41840   2 ;    C18-   C17-   C16-   C15
  4582   4585   4588   4591      9     0.00   0.41840   4 ;    C18-   C17-   C16-   C15
  4582   4585   4588   4591      9     0.00   0.41840   5 ;    C18-   C17-   C16-   C15
  4582   4585   4588   4591      9     0.00   1.25520   3 ;    C18-   C17-   C16-   C15
  4583   4582   4585   4586      9     0.00   0.62760   3 ;    H8R-   C18-   C17-   H7R
  4583   4582   4585   4587      9     0.00   0.62760   3 ;    H8R-   C18-   C17-   H7S
  4583   4582   4585   4588      9     0.00   0.66944   3 ;    H8R-   C18-   C17-   C16
  4584   4582   4585   4586      9     0.00   0.62760   3 ;    H8S-   C18-   C17-   H7R
  4584   4582   4585   4587      9     0.00   0.62760   3 ;    H8S-   C18-   C17-   H7S
  4584   4582   4585   4588      9     0.00   0.66944   3 ;    H8S-   C18-   C17-   C16
  4585   4588   4591   4592      9     0.00   0.66944   3 ;    C17-   C16-   C15-   H5R
  4585   4588   4591   4593      9     0.00   0.66944   3 ;    C17-   C16-   C15-   H5S
  4585   4588   4591   4594      9     0.00   0.41840   1 ;    C17-   C16-   C15-   C14
  4585   4588   4591   4594      9     0.00   0.41840   2 ;    C17-   C16-   C15-   C14
  4585   4588   4591   4594      9     0.00   0.41840   4 ;    C17-   C16-   C15-   C14
  4585   4588   4591   4594      9     0.00   0.41840   5 ;    C17-   C16-   C15-   C14
  4585   4588   4591   4594      9     0.00   1.25520   3 ;    C17-   C16-   C15-   C14
  4586   4585   4588   4589      9     0.00   0.62760   3 ;    H7R-   C17-   C16-   H6R
  4586   4585   4588   4590      9     0.00   0.62760   3 ;    H7R-   C17-   C16-   H6S
  4586   4585   4588   4591      9     0.00   0.66944   3 ;    H7R-   C17-   C16-   C15
  4587   4585   4588   4589      9     0.00   0.62760   3 ;    H7S-   C17-   C16-   H6R
  4587   4585   4588   4590      9     0.00   0.62760   3 ;    H7S-   C17-   C16-   H6S
  4587   4585   4588   4591      9     0.00   0.66944   3 ;    H7S-   C17-   C16-   C15
  4588   4591   4594   4595      9     0.00   0.66944   3 ;    C16-   C15-   C14-   H4R
  4588   4591   4594   4596      9     0.00   0.66944   3 ;    C16-   C15-   C14-   H4S
  4588   4591   4594   4597      9     0.00   0.41840   1 ;    C16-   C15-   C14-   C13
  4588   4591   4594   4597      9     0.00   0.41840   2 ;    C16-   C15-   C14-   C13
  4588   4591   4594   4597      9     0.00   0.41840   4 ;    C16-   C15-   C14-   C13
  4588   4591   4594   4597      9     0.00   0.41840   5 ;    C16-   C15-   C14-   C13
  4588   4591   4594   4597      9     0.00   1.25520   3 ;    C16-   C15-   C14-   C13
  4589   4588   4591   4592      9     0.00   0.62760   3 ;    H6R-   C16-   C15-   H5R
  4589   4588   4591   4593      9     0.00   0.62760   3 ;    H6R-   C16-   C15-   H5S
  4589   4588   4591   4594      9     0.00   0.66944   3 ;    H6R-   C16-   C15-   C14
  4590   4588   4591   4592      9     0.00   0.62760   3 ;    H6S-   C16-   C15-   H5R
  4590   4588   4591   4593      9     0.00   0.62760   3 ;    H6S-   C16-   C15-   H5S
  4590   4588   4591   4594      9     0.00   0.66944   3 ;    H6S-   C16-   C15-   C14
  4591   4594   4597   4598      9     0.00   0.66944   3 ;    C15-   C14-   C13-   H3R
  4591   4594   4597   4599      9     0.00   0.66944   3 ;    C15-   C14-   C13-   H3S
  4591   4594   4597   4600      9     0.00   0.41840   1 ;    C15-   C14-   C13-   C12
  4591   4594   4597   4600      9     0.00   0.41840   2 ;    C15-   C14-   C13-   C12
  4591   4594   4597   4600      9     0.00   0.41840   4 ;    C15-   C14-   C13-   C12
  4591   4594   4597   4600      9     0.00   0.41840   5 ;    C15-   C14-   C13-   C12
  4591   4594   4597   4600      9     0.00   1.25520   3 ;    C15-   C14-   C13-   C12
  4592   4591   4594   4595      9     0.00   0.62760   3 ;    H5R-   C15-   C14-   H4R
  4592   4591   4594   4596      9     0.00   0.62760   3 ;    H5R-   C15-   C14-   H4S
  4592   4591   4594   4597      9     0.00   0.66944   3 ;    H5R-   C15-   C14-   C13
  4593   4591   4594   4595      9     0.00   0.62760   3 ;    H5S-   C15-   C14-   H4R
  4593   4591   4594   4596      9     0.00   0.62760   3 ;    H5S-   C15-   C14-   H4S
  4593   4591   4594   4597      9     0.00   0.66944   3 ;    H5S-   C15-   C14-   C13
  4594   4597   4600   4601      9     0.00   0.66944   3 ;    C14-   C13-   C12-   H2R
  4594   4597   4600   4602      9     0.00   0.66944   3 ;    C14-   C13-   C12-   H2S
  4595   4594   4597   4598      9     0.00   0.62760   3 ;    H4R-   C14-   C13-   H3R
  4595   4594   4597   4599      9     0.00   0.62760   3 ;    H4R-   C14-   C13-   H3S
  4595   4594   4597   4600      9     0.00   0.66944   3 ;    H4R-   C14-   C13-   C12
  4596   4594   4597   4598      9     0.00   0.62760   3 ;    H4S-   C14-   C13-   H3R
  4596   4594   4597   4599      9     0.00   0.62760   3 ;    H4S-   C14-   C13-   H3S
  4596   4594   4597   4600      9     0.00   0.66944   3 ;    H4S-   C14-   C13-   C12
  4598   4597   4600   4601      9     0.00   0.62760   3 ;    H3R-   C13-   C12-   H2R
  4598   4597   4600   4602      9     0.00   0.62760   3 ;    H3R-   C13-   C12-   H2S
  4599   4597   4600   4601      9     0.00   0.62760   3 ;    H3S-   C13-   C12-   H2R
  4599   4597   4600   4602      9     0.00   0.62760   3 ;    H3S-   C13-   C12-   H2S
  4603   4604   4607   4608      9     0.00   0.62760   3 ;   H14T-  C114-  C113-  H13R
  4603   4604   4607   4609      9     0.00   0.62760   3 ;   H14T-  C114-  C113-  H13S
  4603   4604   4607   4610      9     0.00   0.66944   3 ;   H14T-  C114-  C113-  C112
  4604   4607   4610   4611      9     0.00   0.66944   3 ;   C114-  C113-  C112-  H12R
  4604   4607   4610   4612      9     0.00   0.66944   3 ;   C114-  C113-  C112-  H12S
  4604   4607   4610   4613      9     0.00   0.41840   1 ;   C114-  C113-  C112-  C111
  4604   4607   4610   4613      9     0.00   0.41840   2 ;   C114-  C113-  C112-  C111
  4604   4607   4610   4613      9     0.00   0.41840   4 ;   C114-  C113-  C112-  C111
  4604   4607   4610   4613      9     0.00   0.41840   5 ;   C114-  C113-  C112-  C111
  4604   4607   4610   4613      9     0.00   1.25520   3 ;   C114-  C113-  C112-  C111
  4605   4604   4607   4608      9     0.00   0.62760   3 ;   H14R-  C114-  C113-  H13R
  4605   4604   4607   4609      9     0.00   0.62760   3 ;   H14R-  C114-  C113-  H13S
  4605   4604   4607   4610      9     0.00   0.66944   3 ;   H14R-  C114-  C113-  C112
  4606   4604   4607   4608      9     0.00   0.62760   3 ;   H14S-  C114-  C113-  H13R
  4606   4604   4607   4609      9     0.00   0.62760   3 ;   H14S-  C114-  C113-  H13S
  4606   4604   4607   4610      9     0.00   0.66944   3 ;   H14S-  C114-  C113-  C112
  4607   4610   4613   4614      9     0.00   0.66944   3 ;   C113-  C112-  C111-  H11R
  4607   4610   4613   4615      9     0.00   0.66944   3 ;   C113-  C112-  C111-  H11S
  4607   4610   4613   4616      9     0.00   0.41840   1 ;   C113-  C112-  C111-  C110
  4607   4610   4613   4616      9     0.00   0.41840   2 ;   C113-  C112-  C111-  C110
  4607   4610   4613   4616      9     0.00   0.41840   4 ;   C113-  C112-  C111-  C110
  4607   4610   4613   4616      9     0.00   0.41840   5 ;   C113-  C112-  C111-  C110
  4607   4610   4613   4616      9     0.00   1.25520   3 ;   C113-  C112-  C111-  C110
  4608   4607   4610   4611      9     0.00   0.62760   3 ;   H13R-  C113-  C112-  H12R
  4608   4607   4610   4612      9     0.00   0.62760   3 ;   H13R-  C113-  C112-  H12S
  4608   4607   4610   4613      9     0.00   0.66944   3 ;   H13R-  C113-  C112-  C111
  4609   4607   4610   4611      9     0.00   0.62760   3 ;   H13S-  C113-  C112-  H12R
  4609   4607   4610   4612      9     0.00   0.62760   3 ;   H13S-  C113-  C112-  H12S
  4609   4607   4610   4613      9     0.00   0.66944   3 ;   H13S-  C113-  C112-  C111
  4610   4613   4616   4617      9     0.00   0.66944   3 ;   C112-  C111-  C110-  H10R
  4610   4613   4616   4618      9     0.00   0.66944   3 ;   C112-  C111-  C110-  H10S
  4610   4613   4616   4619      9     0.00   0.41840   1 ;   C112-  C111-  C110-   C19
  4610   4613   4616   4619      9     0.00   0.41840   2 ;   C112-  C111-  C110-   C19
  4610   4613   4616   4619      9     0.00   0.41840   4 ;   C112-  C111-  C110-   C19
  4610   4613   4616   4619      9     0.00   0.41840   5 ;   C112-  C111-  C110-   C19
  4610   4613   4616   4619      9     0.00   1.25520   3 ;   C112-  C111-  C110-   C19
  4611   4610   4613   4614      9     0.00   0.62760   3 ;   H12R-  C112-  C111-  H11R
  4611   4610   4613   4615      9     0.00   0.62760   3 ;   H12R-  C112-  C111-  H11S
  4611   4610   4613   4616      9     0.00   0.66944   3 ;   H12R-  C112-  C111-  C110
  4612   4610   4613   4614      9     0.00   0.62760   3 ;   H12S-  C112-  C111-  H11R
  4612   4610   4613   4615      9     0.00   0.62760   3 ;   H12S-  C112-  C111-  H11S
  4612   4610   4613   4616      9     0.00   0.66944   3 ;   H12S-  C112-  C111-  C110
  4613   4616   4619   4620      9     0.00   0.66944   3 ;   C111-  C110-   C19-   H9R
  4613   4616   4619   4621      9     0.00   0.66944   3 ;   C111-  C110-   C19-   H9S
  4613   4616   4619   4622      9     0.00   0.41840   1 ;   C111-  C110-   C19-   C18
  4613   4616   4619   4622      9     0.00   0.41840   2 ;   C111-  C110-   C19-   C18
  4613   4616   4619   4622      9     0.00   0.41840   4 ;   C111-  C110-   C19-   C18
  4613   4616   4619   4622      9     0.00   0.41840   5 ;   C111-  C110-   C19-   C18
  4613   4616   4619   4622      9     0.00   1.25520   3 ;   C111-  C110-   C19-   C18
  4614   4613   4616   4617      9     0.00   0.62760   3 ;   H11R-  C111-  C110-  H10R
  4614   4613   4616   4618      9     0.00   0.62760   3 ;   H11R-  C111-  C110-  H10S
  4614   4613   4616   4619      9     0.00   0.66944   3 ;   H11R-  C111-  C110-   C19
  4615   4613   4616   4617      9     0.00   0.62760   3 ;   H11S-  C111-  C110-  H10R
  4615   4613   4616   4618      9     0.00   0.62760   3 ;   H11S-  C111-  C110-  H10S
  4615   4613   4616   4619      9     0.00   0.66944   3 ;   H11S-  C111-  C110-   C19
  4616   4619   4622   4623      9     0.00   0.66944   3 ;   C110-   C19-   C18-   H8R
  4616   4619   4622   4624      9     0.00   0.66944   3 ;   C110-   C19-   C18-   H8S
  4616   4619   4622   4625      9     0.00   0.41840   1 ;   C110-   C19-   C18-   C17
  4616   4619   4622   4625      9     0.00   0.41840   2 ;   C110-   C19-   C18-   C17
  4616   4619   4622   4625      9     0.00   0.41840   4 ;   C110-   C19-   C18-   C17
  4616   4619   4622   4625      9     0.00   0.41840   5 ;   C110-   C19-   C18-   C17
  4616   4619   4622   4625      9     0.00   1.25520   3 ;   C110-   C19-   C18-   C17
  4617   4616   4619   4620      9     0.00   0.62760   3 ;   H10R-  C110-   C19-   H9R
  4617   4616   4619   4621      9     0.00   0.62760   3 ;   H10R-  C110-   C19-   H9S
  4617   4616   4619   4622      9     0.00   0.66944   3 ;   H10R-  C110-   C19-   C18
  4618   4616   4619   4620      9     0.00   0.62760   3 ;   H10S-  C110-   C19-   H9R
  4618   4616   4619   4621      9     0.00   0.62760   3 ;   H10S-  C110-   C19-   H9S
  4618   4616   4619   4622      9     0.00   0.66944   3 ;   H10S-  C110-   C19-   C18
  4619   4622   4625   4626      9     0.00   0.66944   3 ;    C19-   C18-   C17-   H7R
  4619   4622   4625   4627      9     0.00   0.66944   3 ;    C19-   C18-   C17-   H7S
  4619   4622   4625   4628      9     0.00   0.41840   1 ;    C19-   C18-   C17-   C16
  4619   4622   4625   4628      9     0.00   0.41840   2 ;    C19-   C18-   C17-   C16
  4619   4622   4625   4628      9     0.00   0.41840   4 ;    C19-   C18-   C17-   C16
  4619   4622   4625   4628      9     0.00   0.41840   5 ;    C19-   C18-   C17-   C16
  4619   4622   4625   4628      9     0.00   1.25520   3 ;    C19-   C18-   C17-   C16
  4620   4619   4622   4623      9     0.00   0.62760   3 ;    H9R-   C19-   C18-   H8R
  4620   4619   4622   4624      9     0.00   0.62760   3 ;    H9R-   C19-   C18-   H8S
  4620   4619   4622   4625      9     0.00   0.66944   3 ;    H9R-   C19-   C18-   C17
  4621   4619   4622   4623      9     0.00   0.62760   3 ;    H9S-   C19-   C18-   H8R
  4621   4619   4622   4624      9     0.00   0.62760   3 ;    H9S-   C19-   C18-   H8S
  4621   4619   4622   4625      9     0.00   0.66944   3 ;    H9S-   C19-   C18-   C17
  4622   4625   4628   4629      9     0.00   0.66944   3 ;    C18-   C17-   C16-   H6R
  4622   4625   4628   4630      9     0.00   0.66944   3 ;    C18-   C17-   C16-   H6S
  4622   4625   4628   4631      9     0.00   0.41840   1 ;    C18-   C17-   C16-   C15
  4622   4625   4628   4631      9     0.00   0.41840   2 ;    C18-   C17-   C16-   C15
  4622   4625   4628   4631      9     0.00   0.41840   4 ;    C18-   C17-   C16-   C15
  4622   4625   4628   4631      9     0.00   0.41840   5 ;    C18-   C17-   C16-   C15
  4622   4625   4628   4631      9     0.00   1.25520   3 ;    C18-   C17-   C16-   C15
  4623   4622   4625   4626      9     0.00   0.62760   3 ;    H8R-   C18-   C17-   H7R
  4623   4622   4625   4627      9     0.00   0.62760   3 ;    H8R-   C18-   C17-   H7S
  4623   4622   4625   4628      9     0.00   0.66944   3 ;    H8R-   C18-   C17-   C16
  4624   4622   4625   4626      9     0.00   0.62760   3 ;    H8S-   C18-   C17-   H7R
  4624   4622   4625   4627      9     0.00   0.62760   3 ;    H8S-   C18-   C17-   H7S
  4624   4622   4625   4628      9     0.00   0.66944   3 ;    H8S-   C18-   C17-   C16
  4625   4628   4631   4632      9     0.00   0.66944   3 ;    C17-   C16-   C15-   H5R
  4625   4628   4631   4633      9     0.00   0.66944   3 ;    C17-   C16-   C15-   H5S
  4625   4628   4631   4634      9     0.00   0.41840   1 ;    C17-   C16-   C15-   C14
  4625   4628   4631   4634      9     0.00   0.41840   2 ;    C17-   C16-   C15-   C14
  4625   4628   4631   4634      9     0.00   0.41840   4 ;    C17-   C16-   C15-   C14
  4625   4628   4631   4634      9     0.00   0.41840   5 ;    C17-   C16-   C15-   C14
  4625   4628   4631   4634      9     0.00   1.25520   3 ;    C17-   C16-   C15-   C14
  4626   4625   4628   4629      9     0.00   0.62760   3 ;    H7R-   C17-   C16-   H6R
  4626   4625   4628   4630      9     0.00   0.62760   3 ;    H7R-   C17-   C16-   H6S
  4626   4625   4628   4631      9     0.00   0.66944   3 ;    H7R-   C17-   C16-   C15
  4627   4625   4628   4629      9     0.00   0.62760   3 ;    H7S-   C17-   C16-   H6R
  4627   4625   4628   4630      9     0.00   0.62760   3 ;    H7S-   C17-   C16-   H6S
  4627   4625   4628   4631      9     0.00   0.66944   3 ;    H7S-   C17-   C16-   C15
  4628   4631   4634   4635      9     0.00   0.66944   3 ;    C16-   C15-   C14-   H4R
  4628   4631   4634   4636      9     0.00   0.66944   3 ;    C16-   C15-   C14-   H4S
  4628   4631   4634   4637      9     0.00   0.41840   1 ;    C16-   C15-   C14-   C13
  4628   4631   4634   4637      9     0.00   0.41840   2 ;    C16-   C15-   C14-   C13
  4628   4631   4634   4637      9     0.00   0.41840   4 ;    C16-   C15-   C14-   C13
  4628   4631   4634   4637      9     0.00   0.41840   5 ;    C16-   C15-   C14-   C13
  4628   4631   4634   4637      9     0.00   1.25520   3 ;    C16-   C15-   C14-   C13
  4629   4628   4631   4632      9     0.00   0.62760   3 ;    H6R-   C16-   C15-   H5R
  4629   4628   4631   4633      9     0.00   0.62760   3 ;    H6R-   C16-   C15-   H5S
  4629   4628   4631   4634      9     0.00   0.66944   3 ;    H6R-   C16-   C15-   C14
  4630   4628   4631   4632      9     0.00   0.62760   3 ;    H6S-   C16-   C15-   H5R
  4630   4628   4631   4633      9     0.00   0.62760   3 ;    H6S-   C16-   C15-   H5S
  4630   4628   4631   4634      9     0.00   0.66944   3 ;    H6S-   C16-   C15-   C14
  4631   4634   4637   4638      9     0.00   0.66944   3 ;    C15-   C14-   C13-   H3R
  4631   4634   4637   4639      9     0.00   0.66944   3 ;    C15-   C14-   C13-   H3S
  4631   4634   4637   4640      9     0.00   0.41840   1 ;    C15-   C14-   C13-   C12
  4631   4634   4637   4640      9     0.00   0.41840   2 ;    C15-   C14-   C13-   C12
  4631   4634   4637   4640      9     0.00   0.41840   4 ;    C15-   C14-   C13-   C12
  4631   4634   4637   4640      9     0.00   0.41840   5 ;    C15-   C14-   C13-   C12
  4631   4634   4637   4640      9     0.00   1.25520   3 ;    C15-   C14-   C13-   C12
  4632   4631   4634   4635      9     0.00   0.62760   3 ;    H5R-   C15-   C14-   H4R
  4632   4631   4634   4636      9     0.00   0.62760   3 ;    H5R-   C15-   C14-   H4S
  4632   4631   4634   4637      9     0.00   0.66944   3 ;    H5R-   C15-   C14-   C13
  4633   4631   4634   4635      9     0.00   0.62760   3 ;    H5S-   C15-   C14-   H4R
  4633   4631   4634   4636      9     0.00   0.62760   3 ;    H5S-   C15-   C14-   H4S
  4633   4631   4634   4637      9     0.00   0.66944   3 ;    H5S-   C15-   C14-   C13
  4634   4637   4640   4641      9     0.00   0.66944   3 ;    C14-   C13-   C12-   H2R
  4634   4637   4640   4642      9     0.00   0.66944   3 ;    C14-   C13-   C12-   H2S
  4634   4637   4640   4643      9     0.00   0.65270   3 ;    C14-   C13-   C12-   C11
  4635   4634   4637   4638      9     0.00   0.62760   3 ;    H4R-   C14-   C13-   H3R
  4635   4634   4637   4639      9     0.00   0.62760   3 ;    H4R-   C14-   C13-   H3S
  4635   4634   4637   4640      9     0.00   0.66944   3 ;    H4R-   C14-   C13-   C12
  4636   4634   4637   4638      9     0.00   0.62760   3 ;    H4S-   C14-   C13-   H3R
  4636   4634   4637   4639      9     0.00   0.62760   3 ;    H4S-   C14-   C13-   H3S
  4636   4634   4637   4640      9     0.00   0.66944   3 ;    H4S-   C14-   C13-   C12
  4637   4640   4643   4644      9   180.00   0.00000   2 ;    C13-   C12-   C11-   O12
  4637   4640   4643   4645      9   180.00   0.00000   2 ;    C13-   C12-   C11-   O11
  4638   4637   4640   4641      9     0.00   0.62760   3 ;    H3R-   C13-   C12-   H2R
  4638   4637   4640   4642      9     0.00   0.62760   3 ;    H3R-   C13-   C12-   H2S
  4638   4637   4640   4643      9     0.00   0.65270   3 ;    H3R-   C13-   C12-   C11
  4639   4637   4640   4641      9     0.00   0.62760   3 ;    H3S-   C13-   C12-   H2R
  4639   4637   4640   4642      9     0.00   0.62760   3 ;    H3S-   C13-   C12-   H2S
  4639   4637   4640   4643      9     0.00   0.65270   3 ;    H3S-   C13-   C12-   C11
  4640   4643   4645   4646      9   180.00  11.29680   2 ;    C12-   C11-   O11-    C1
  4641   4640   4643   4644      9     0.00   3.34720   1 ;    H2R-   C12-   C11-   O12
  4641   4640   4643   4644      9   180.00   0.33472   3 ;    H2R-   C12-   C11-   O12
  4641   4640   4643   4645      9   180.00   0.00000   2 ;    H2R-   C12-   C11-   O11
  4642   4640   4643   4644      9     0.00   3.34720   1 ;    H2S-   C12-   C11-   O12
  4642   4640   4643   4644      9   180.00   0.33472   3 ;    H2S-   C12-   C11-   O12
  4642   4640   4643   4645      9   180.00   0.00000   2 ;    H2S-   C12-   C11-   O11
  4643   4645   4646   4647      9     0.00   1.60247   3 ;    C11-   O11-    C1-    HR
  4643   4645   4646   4648      9     0.00   1.60247   3 ;    C11-   O11-    C1-    HS
  4643   4645   4646   4649      9     0.00  -0.41840   1 ;    C11-   O11-    C1-    C2
  4644   4643   4645   4646      9   180.00   5.85760   1 ;    O12-   C11-   O11-    C1
  4644   4643   4645   4646      9   180.00  11.29680   2 ;    O12-   C11-   O11-    C1
  4645   4646   4649   4650      9     0.00   0.00000   0 ;    O11-    C1-    C2-    HX
  4645   4646   4649   4650      9     0.00   1.04600   1 ;    O11-    C1-    C2-    HX
  4645   4646   4649   4651      9     0.00   0.00000   0 ;    O11-    C1-    C2-    C3
  4645   4646   4649   4651      9     0.00   0.00000   0 ;    O11-    C1-    C2-    C3
  4645   4646   4649   4651      9     0.00   0.00000   0 ;    O11-    C1-    C2-    C3
  4645   4646   4649   4651      9     0.00   0.00000   0 ;    O11-    C1-    C2-    C3
  4645   4646   4649   4651      9     0.00   0.00000   0 ;    O11-    C1-    C2-    C3
  4645   4646   4649   4678      9     0.00   1.25520   2 ;    O11-    C1-    C2-   O21
  4645   4646   4649   4678      9     0.00   4.18400   3 ;    O11-    C1-    C2-   O21
  4645   4646   4649   4678      9   180.00  -0.41840   1 ;    O11-    C1-    C2-   O21
  4646   4649   4651   4652      9     0.00   0.65270   3 ;     C1-    C2-    C3-    HA
  4646   4649   4651   4653      9     0.00   0.65270   3 ;     C1-    C2-    C3-    HB
  4646   4649   4651   4654      9   180.00   3.34720   1 ;     C1-    C2-    C3-   O31
  4646   4649   4678   4679      9     0.00  -0.41840   1 ;     C1-    C2-   O21-   C21
  4647   4646   4649   4650      9     0.00   0.65270   3 ;     HR-    C1-    C2-    HX
  4647   4646   4649   4651      9     0.00   0.65270   3 ;     HR-    C1-    C2-    C3
  4647   4646   4649   4678      9     0.00   0.00000   0 ;     HR-    C1-    C2-   O21
  4647   4646   4649   4678      9     0.00   1.04600   1 ;     HR-    C1-    C2-   O21
  4648   4646   4649   4650      9     0.00   0.65270   3 ;     HS-    C1-    C2-    HX
  4648   4646   4649   4651      9     0.00   0.65270   3 ;     HS-    C1-    C2-    C3
  4648   4646   4649   4678      9     0.00   0.00000   0 ;     HS-    C1-    C2-   O21
  4648   4646   4649   4678      9     0.00   1.04600   1 ;     HS-    C1-    C2-   O21
  4649   4651   4654   4655      9     0.00   0.00000   0 ;     C2-    C3-   O31-   P31
  4649   4651   4654   4655      9   180.00  -3.34720   2 ;     C2-    C3-   O31-   P31
  4649   4678   4679   4680      9   180.00   5.85760   1 ;     C2-   O21-   C21-   O22
  4649   4678   4679   4680      9   180.00  11.29680   2 ;     C2-   O21-   C21-   O22
  4649   4678   4679   4718      9   180.00  11.29680   2 ;     C2-   O21-   C21-   C12
  4650   4649   4651   4652      9     0.00   0.65270   3 ;     HX-    C2-    C3-    HA
  4650   4649   4651   4653      9     0.00   0.65270   3 ;     HX-    C2-    C3-    HB
  4650   4649   4651   4654      9     0.00   0.00000   0 ;     HX-    C2-    C3-   O31
  4650   4649   4651   4654      9     0.00   1.04600   1 ;     HX-    C2-    C3-   O31
  4650   4649   4678   4679      9     0.00   1.60247   3 ;     HX-    C2-   O21-   C21
  4651   4649   4678   4679      9     0.00  -0.41840   1 ;     C3-    C2-   O21-   C21
  4651   4654   4655   4656      9     0.00   2.51040   3 ;     C3-   O31-   P31-   O32
  4651   4654   4655   4656      9     0.00   9.62320   2 ;     C3-   O31-   P31-   O32
  4651   4654   4655   4676      9     0.00   0.00000   0 ;     C3-   O31-   P31-   O33
  4651   4654   4655   4676      9     0.00   0.00000   0 ;     C3-   O31-   P31-   O33
  4651   4654   4655   4676      9     0.00   0.00000   0 ;     C3-   O31-   P31-   O33
  4651   4654   4655   4676      9     0.00   0.00000   0 ;     C3-   O31-   P31-   O33
  4651   4654   4655   4676      9     0.00   0.83680   2 ;     C3-   O31-   P31-   O33
  4651   4654   4655   4677      9     0.00   0.00000   0 ;     C3-   O31-   P31-   O34
  4651   4654   4655   4677      9     0.00   0.00000   0 ;     C3-   O31-   P31-   O34
  4651   4654   4655   4677      9     0.00   0.00000   0 ;     C3-   O31-   P31-   O34
  4651   4654   4655   4677      9     0.00   0.00000   0 ;     C3-   O31-   P31-   O34
  4651   4654   4655   4677      9     0.00   0.83680   2 ;     C3-   O31-   P31-   O34
  4652   4651   4649   4678      9     0.00   0.00000   0 ;     HA-    C3-    C2-   O21
  4652   4651   4649   4678      9     0.00   1.04600   1 ;     HA-    C3-    C2-   O21
  4652   4651   4654   4655      9     0.00   0.00000   0 ;     HA-    C3-   O31-   P31
  4652   4651   4654   4655      9     0.00   0.00000   0 ;     HA-    C3-   O31-   P31
  4652   4651   4654   4655      9     0.00   0.00000   0 ;     HA-    C3-   O31-   P31
  4652   4651   4654   4655      9     0.00   0.00000   0 ;     HA-    C3-   O31-   P31
  4652   4651   4654   4655      9     0.00   1.60247   3 ;     HA-    C3-   O31-   P31
  4653   4651   4649   4678      9     0.00   0.00000   0 ;     HB-    C3-    C2-   O21
  4653   4651   4649   4678      9     0.00   1.04600   1 ;     HB-    C3-    C2-   O21
  4653   4651   4654   4655      9     0.00   0.00000   0 ;     HB-    C3-   O31-   P31
  4653   4651   4654   4655      9     0.00   0.00000   0 ;     HB-    C3-   O31-   P31
  4653   4651   4654   4655      9     0.00   0.00000   0 ;     HB-    C3-   O31-   P31
  4653   4651   4654   4655      9     0.00   0.00000   0 ;     HB-    C3-   O31-   P31
  4653   4651   4654   4655      9     0.00   1.60247   3 ;     HB-    C3-   O31-   P31
  4654   4651   4649   4678      9     0.00   0.00000   0 ;    O31-    C3-    C2-   O21
  4654   4651   4649   4678      9     0.00   0.00000   0 ;    O31-    C3-    C2-   O21
  4654   4651   4649   4678      9     0.00   0.00000   0 ;    O31-    C3-    C2-   O21
  4654   4651   4649   4678      9     0.00   0.00000   0 ;    O31-    C3-    C2-   O21
  4654   4651   4649   4678      9     0.00   0.00000   0 ;    O31-    C3-    C2-   O21
  4654   4655   4656   4657      9     0.00   2.51040   3 ;    O31-   P31-   O32-   C31
  4654   4655   4656   4657      9     0.00   9.62320   2 ;    O31-   P31-   O32-   C31
  4655   4656   4657   4658      9     0.00   0.00000   0 ;    P31-   O32-   C31-   H1A
  4655   4656   4657   4658      9     0.00   0.00000   0 ;    P31-   O32-   C31-   H1A
  4655   4656   4657   4658      9     0.00   0.00000   0 ;    P31-   O32-   C31-   H1A
  4655   4656   4657   4658      9     0.00   0.00000   0 ;    P31-   O32-   C31-   H1A
  4655   4656   4657   4658      9     0.00   1.60247   3 ;    P31-   O32-   C31-   H1A
  4655   4656   4657   4659      9     0.00   0.00000   0 ;    P31-   O32-   C31-   H1B
  4655   4656   4657   4659      9     0.00   0.00000   0 ;    P31-   O32-   C31-   H1B
  4655   4656   4657   4659      9     0.00   0.00000   0 ;    P31-   O32-   C31-   H1B
  4655   4656   4657   4659      9     0.00   0.00000   0 ;    P31-   O32-   C31-   H1B
  4655   4656   4657   4659      9     0.00   1.60247   3 ;    P31-   O32-   C31-   H1B
  4655   4656   4657   4660      9     0.00   0.00000   0 ;    P31-   O32-   C31-   C32
  4655   4656   4657   4660      9   180.00  -3.34720   2 ;    P31-   O32-   C31-   C32
  4656   4657   4660   4661      9     0.00   0.65270   3 ;    O32-   C31-   C32-   H2A
  4656   4657   4660   4662      9     0.00   0.65270   3 ;    O32-   C31-   C32-   H2B
  4656   4657   4660   4663      9     0.00   4.18400   3 ;    O32-   C31-   C32-   N31
  4657   4656   4655   4676      9     0.00   0.00000   0 ;    C31-   O32-   P31-   O33
  4657   4656   4655   4676      9     0.00   0.00000   0 ;    C31-   O32-   P31-   O33
  4657   4656   4655   4676      9     0.00   0.00000   0 ;    C31-   O32-   P31-   O33
  4657   4656   4655   4676      9     0.00   0.00000   0 ;    C31-   O32-   P31-   O33
  4657   4656   4655   4676      9     0.00   0.83680   2 ;    C31-   O32-   P31-   O33
  4657   4656   4655   4677      9     0.00   0.00000   0 ;    C31-   O32-   P31-   O34
  4657   4656   4655   4677      9     0.00   0.00000   0 ;    C31-   O32-   P31-   O34
  4657   4656   4655   4677      9     0.00   0.00000   0 ;    C31-   O32-   P31-   O34
  4657   4656   4655   4677      9     0.00   0.00000   0 ;    C31-   O32-   P31-   O34
  4657   4656   4655   4677      9     0.00   0.83680   2 ;    C31-   O32-   P31-   O34
  4657   4660   4663   4664      9     0.00   0.65270   3 ;    C31-   C32-   N31-   C33
  4657   4660   4663   4668      9     0.00   0.65270   3 ;    C31-   C32-   N31-   C34
  4657   4660   4663   4672      9     0.00   0.65270   3 ;    C31-   C32-   N31-   C35
  4658   4657   4660   4661      9     0.00   0.65270   3 ;    H1A-   C31-   C32-   H2A
  4658   4657   4660   4662      9     0.00   0.65270   3 ;    H1A-   C31-   C32-   H2B
  4658   4657   4660   4663      9     0.00   0.65270   3 ;    H1A-   C31-   C32-   N31
  4659   4657   4660   4661      9     0.00   0.65270   3 ;    H1B-   C31-   C32-   H2A
  4659   4657   4660   4662      9     0.00   0.65270   3 ;    H1B-   C31-   C32-   H2B
  4659   4657   4660   4663      9     0.00   0.65270   3 ;    H1B-   C31-   C32-   N31
  4660   4663   4664   4665      9     0.00   0.65270   3 ;    C32-   N31-   C33-   H3A
  4660   4663   4664   4666      9     0.00   0.65270   3 ;    C32-   N31-   C33-   H3B
  4660   4663   4664   4667      9     0.00   0.65270   3 ;    C32-   N31-   C33-   H3C
  4660   4663   4668   4669      9     0.00   0.65270   3 ;    C32-   N31-   C34-   H4A
  4660   4663   4668   4670      9     0.00   0.65270   3 ;    C32-   N31-   C34-   H4B
  4660   4663   4668   4671      9     0.00   0.65270   3 ;    C32-   N31-   C34-   H4C
  4660   4663   4672   4673      9     0.00   0.65270   3 ;    C32-   N31-   C35-   H5A
  4660   4663   4672   4674      9     0.00   0.65270   3 ;    C32-   N31-   C35-   H5B
  4660   4663   4672   4675      9     0.00   0.65270   3 ;    C32-   N31-   C35-   H5C
  4661   4660   4663   4664      9     0.00   0.65270   3 ;    H2A-   C32-   N31-   C33
  4661   4660   4663   4668      9     0.00   0.65270   3 ;    H2A-   C32-   N31-   C34
  4661   4660   4663   4672      9     0.00   0.65270   3 ;    H2A-   C32-   N31-   C35
  4662   4660   4663   4664      9     0.00   0.65270   3 ;    H2B-   C32-   N31-   C33
  4662   4660   4663   4668      9     0.00   0.65270   3 ;    H2B-   C32-   N31-   C34
  4662   4660   4663   4672      9     0.00   0.65270   3 ;    H2B-   C32-   N31-   C35
  4664   4663   4668   4669      9     0.00   0.65270   3 ;    C33-   N31-   C34-   H4A
  4664   4663   4668   4670      9     0.00   0.65270   3 ;    C33-   N31-   C34-   H4B
  4664   4663   4668   4671      9     0.00   0.65270   3 ;    C33-   N31-   C34-   H4C
  4664   4663   4672   4673      9     0.00   0.65270   3 ;    C33-   N31-   C35-   H5A
  4664   4663   4672   4674      9     0.00   0.65270   3 ;    C33-   N31-   C35-   H5B
  4664   4663   4672   4675      9     0.00   0.65270   3 ;    C33-   N31-   C35-   H5C
  4665   4664   4663   4668      9     0.00   0.65270   3 ;    H3A-   C33-   N31-   C34
  4665   4664   4663   4672      9     0.00   0.65270   3 ;    H3A-   C33-   N31-   C35
  4666   4664   4663   4668      9     0.00   0.65270   3 ;    H3B-   C33-   N31-   C34
  4666   4664   4663   4672      9     0.00   0.65270   3 ;    H3B-   C33-   N31-   C35
  4667   4664   4663   4668      9     0.00   0.65270   3 ;    H3C-   C33-   N31-   C34
  4667   4664   4663   4672      9     0.00   0.65270   3 ;    H3C-   C33-   N31-   C35
  4668   4663   4672   4673      9     0.00   0.65270   3 ;    C34-   N31-   C35-   H5A
  4668   4663   4672   4674      9     0.00   0.65270   3 ;    C34-   N31-   C35-   H5B
  4668   4663   4672   4675      9     0.00   0.65270   3 ;    C34-   N31-   C35-   H5C
  4669   4668   4663   4672      9     0.00   0.65270   3 ;    H4A-   C34-   N31-   C35
  4670   4668   4663   4672      9     0.00   0.65270   3 ;    H4B-   C34-   N31-   C35
  4671   4668   4663   4672      9     0.00   0.65270   3 ;    H4C-   C34-   N31-   C35
  4678   4679   4718   4715      9   180.00   0.00000   2 ;    O21-   C21-   C12-   C13
  4678   4679   4718   4719      9   180.00   0.00000   2 ;    O21-   C21-   C12-   H2R
  4678   4679   4718   4720      9   180.00   0.00000   2 ;    O21-   C21-   C12-   H2S
  4679   4718   4715   4712      9     0.00   0.65270   3 ;    C21-   C12-   C13-   C14
  4679   4718   4715   4716      9     0.00   0.65270   3 ;    C21-   C12-   C13-   H3R
  4679   4718   4715   4717      9     0.00   0.65270   3 ;    C21-   C12-   C13-   H3S
  4680   4679   4718   4715      9   180.00   0.00000   2 ;    O22-   C21-   C12-   C13
  4680   4679   4718   4719      9     0.00   3.34720   1 ;    O22-   C21-   C12-   H2R
  4680   4679   4718   4719      9   180.00   0.33472   3 ;    O22-   C21-   C12-   H2R
  4680   4679   4718   4720      9     0.00   3.34720   1 ;    O22-   C21-   C12-   H2S
  4680   4679   4718   4720      9   180.00   0.33472   3 ;    O22-   C21-   C12-   H2S
  4681   4682   4685   4686      9     0.00   0.62760   3 ;   H14T-  C114-  C113-  H13R
  4681   4682   4685   4687      9     0.00   0.62760   3 ;   H14T-  C114-  C113-  H13S
  4681   4682   4685   4688      9     0.00   0.66944   3 ;   H14T-  C114-  C113-  C112
  4682   4685   4688   4689      9     0.00   0.66944   3 ;   C114-  C113-  C112-  H12R
  4682   4685   4688   4690      9     0.00   0.66944   3 ;   C114-  C113-  C112-  H12S
  4682   4685   4688   4691      9     0.00   0.41840   1 ;   C114-  C113-  C112-  C111
  4682   4685   4688   4691      9     0.00   0.41840   2 ;   C114-  C113-  C112-  C111
  4682   4685   4688   4691      9     0.00   0.41840   4 ;   C114-  C113-  C112-  C111
  4682   4685   4688   4691      9     0.00   0.41840   5 ;   C114-  C113-  C112-  C111
  4682   4685   4688   4691      9     0.00   1.25520   3 ;   C114-  C113-  C112-  C111
  4683   4682   4685   4686      9     0.00   0.62760   3 ;   H14R-  C114-  C113-  H13R
  4683   4682   4685   4687      9     0.00   0.62760   3 ;   H14R-  C114-  C113-  H13S
  4683   4682   4685   4688      9     0.00   0.66944   3 ;   H14R-  C114-  C113-  C112
  4684   4682   4685   4686      9     0.00   0.62760   3 ;   H14S-  C114-  C113-  H13R
  4684   4682   4685   4687      9     0.00   0.62760   3 ;   H14S-  C114-  C113-  H13S
  4684   4682   4685   4688      9     0.00   0.66944   3 ;   H14S-  C114-  C113-  C112
  4685   4688   4691   4692      9     0.00   0.66944   3 ;   C113-  C112-  C111-  H11R
  4685   4688   4691   4693      9     0.00   0.66944   3 ;   C113-  C112-  C111-  H11S
  4685   4688   4691   4694      9     0.00   0.41840   1 ;   C113-  C112-  C111-  C110
  4685   4688   4691   4694      9     0.00   0.41840   2 ;   C113-  C112-  C111-  C110
  4685   4688   4691   4694      9     0.00   0.41840   4 ;   C113-  C112-  C111-  C110
  4685   4688   4691   4694      9     0.00   0.41840   5 ;   C113-  C112-  C111-  C110
  4685   4688   4691   4694      9     0.00   1.25520   3 ;   C113-  C112-  C111-  C110
  4686   4685   4688   4689      9     0.00   0.62760   3 ;   H13R-  C113-  C112-  H12R
  4686   4685   4688   4690      9     0.00   0.62760   3 ;   H13R-  C113-  C112-  H12S
  4686   4685   4688   4691      9     0.00   0.66944   3 ;   H13R-  C113-  C112-  C111
  4687   4685   4688   4689      9     0.00   0.62760   3 ;   H13S-  C113-  C112-  H12R
  4687   4685   4688   4690      9     0.00   0.62760   3 ;   H13S-  C113-  C112-  H12S
  4687   4685   4688   4691      9     0.00   0.66944   3 ;   H13S-  C113-  C112-  C111
  4688   4691   4694   4695      9     0.00   0.66944   3 ;   C112-  C111-  C110-  H10R
  4688   4691   4694   4696      9     0.00   0.66944   3 ;   C112-  C111-  C110-  H10S
  4688   4691   4694   4697      9     0.00   0.41840   1 ;   C112-  C111-  C110-   C19
  4688   4691   4694   4697      9     0.00   0.41840   2 ;   C112-  C111-  C110-   C19
  4688   4691   4694   4697      9     0.00   0.41840   4 ;   C112-  C111-  C110-   C19
  4688   4691   4694   4697      9     0.00   0.41840   5 ;   C112-  C111-  C110-   C19
  4688   4691   4694   4697      9     0.00   1.25520   3 ;   C112-  C111-  C110-   C19
  4689   4688   4691   4692      9     0.00   0.62760   3 ;   H12R-  C112-  C111-  H11R
  4689   4688   4691   4693      9     0.00   0.62760   3 ;   H12R-  C112-  C111-  H11S
  4689   4688   4691   4694      9     0.00   0.66944   3 ;   H12R-  C112-  C111-  C110
  4690   4688   4691   4692      9     0.00   0.62760   3 ;   H12S-  C112-  C111-  H11R
  4690   4688   4691   4693      9     0.00   0.62760   3 ;   H12S-  C112-  C111-  H11S
  4690   4688   4691   4694      9     0.00   0.66944   3 ;   H12S-  C112-  C111-  C110
  4691   4694   4697   4698      9     0.00   0.66944   3 ;   C111-  C110-   C19-   H9R
  4691   4694   4697   4699      9     0.00   0.66944   3 ;   C111-  C110-   C19-   H9S
  4691   4694   4697   4700      9     0.00   0.41840   1 ;   C111-  C110-   C19-   C18
  4691   4694   4697   4700      9     0.00   0.41840   2 ;   C111-  C110-   C19-   C18
  4691   4694   4697   4700      9     0.00   0.41840   4 ;   C111-  C110-   C19-   C18
  4691   4694   4697   4700      9     0.00   0.41840   5 ;   C111-  C110-   C19-   C18
  4691   4694   4697   4700      9     0.00   1.25520   3 ;   C111-  C110-   C19-   C18
  4692   4691   4694   4695      9     0.00   0.62760   3 ;   H11R-  C111-  C110-  H10R
  4692   4691   4694   4696      9     0.00   0.62760   3 ;   H11R-  C111-  C110-  H10S
  4692   4691   4694   4697      9     0.00   0.66944   3 ;   H11R-  C111-  C110-   C19
  4693   4691   4694   4695      9     0.00   0.62760   3 ;   H11S-  C111-  C110-  H10R
  4693   4691   4694   4696      9     0.00   0.62760   3 ;   H11S-  C111-  C110-  H10S
  4693   4691   4694   4697      9     0.00   0.66944   3 ;   H11S-  C111-  C110-   C19
  4694   4697   4700   4701      9     0.00   0.66944   3 ;   C110-   C19-   C18-   H8R
  4694   4697   4700   4702      9     0.00   0.66944   3 ;   C110-   C19-   C18-   H8S
  4694   4697   4700   4703      9     0.00   0.41840   1 ;   C110-   C19-   C18-   C17
  4694   4697   4700   4703      9     0.00   0.41840   2 ;   C110-   C19-   C18-   C17
  4694   4697   4700   4703      9     0.00   0.41840   4 ;   C110-   C19-   C18-   C17
  4694   4697   4700   4703      9     0.00   0.41840   5 ;   C110-   C19-   C18-   C17
  4694   4697   4700   4703      9     0.00   1.25520   3 ;   C110-   C19-   C18-   C17
  4695   4694   4697   4698      9     0.00   0.62760   3 ;   H10R-  C110-   C19-   H9R
  4695   4694   4697   4699      9     0.00   0.62760   3 ;   H10R-  C110-   C19-   H9S
  4695   4694   4697   4700      9     0.00   0.66944   3 ;   H10R-  C110-   C19-   C18
  4696   4694   4697   4698      9     0.00   0.62760   3 ;   H10S-  C110-   C19-   H9R
  4696   4694   4697   4699      9     0.00   0.62760   3 ;   H10S-  C110-   C19-   H9S
  4696   4694   4697   4700      9     0.00   0.66944   3 ;   H10S-  C110-   C19-   C18
  4697   4700   4703   4704      9     0.00   0.66944   3 ;    C19-   C18-   C17-   H7R
  4697   4700   4703   4705      9     0.00   0.66944   3 ;    C19-   C18-   C17-   H7S
  4697   4700   4703   4706      9     0.00   0.41840   1 ;    C19-   C18-   C17-   C16
  4697   4700   4703   4706      9     0.00   0.41840   2 ;    C19-   C18-   C17-   C16
  4697   4700   4703   4706      9     0.00   0.41840   4 ;    C19-   C18-   C17-   C16
  4697   4700   4703   4706      9     0.00   0.41840   5 ;    C19-   C18-   C17-   C16
  4697   4700   4703   4706      9     0.00   1.25520   3 ;    C19-   C18-   C17-   C16
  4698   4697   4700   4701      9     0.00   0.62760   3 ;    H9R-   C19-   C18-   H8R
  4698   4697   4700   4702      9     0.00   0.62760   3 ;    H9R-   C19-   C18-   H8S
  4698   4697   4700   4703      9     0.00   0.66944   3 ;    H9R-   C19-   C18-   C17
  4699   4697   4700   4701      9     0.00   0.62760   3 ;    H9S-   C19-   C18-   H8R
  4699   4697   4700   4702      9     0.00   0.62760   3 ;    H9S-   C19-   C18-   H8S
  4699   4697   4700   4703      9     0.00   0.66944   3 ;    H9S-   C19-   C18-   C17
  4700   4703   4706   4707      9     0.00   0.66944   3 ;    C18-   C17-   C16-   H6R
  4700   4703   4706   4708      9     0.00   0.66944   3 ;    C18-   C17-   C16-   H6S
  4700   4703   4706   4709      9     0.00   0.41840   1 ;    C18-   C17-   C16-   C15
  4700   4703   4706   4709      9     0.00   0.41840   2 ;    C18-   C17-   C16-   C15
  4700   4703   4706   4709      9     0.00   0.41840   4 ;    C18-   C17-   C16-   C15
  4700   4703   4706   4709      9     0.00   0.41840   5 ;    C18-   C17-   C16-   C15
  4700   4703   4706   4709      9     0.00   1.25520   3 ;    C18-   C17-   C16-   C15
  4701   4700   4703   4704      9     0.00   0.62760   3 ;    H8R-   C18-   C17-   H7R
  4701   4700   4703   4705      9     0.00   0.62760   3 ;    H8R-   C18-   C17-   H7S
  4701   4700   4703   4706      9     0.00   0.66944   3 ;    H8R-   C18-   C17-   C16
  4702   4700   4703   4704      9     0.00   0.62760   3 ;    H8S-   C18-   C17-   H7R
  4702   4700   4703   4705      9     0.00   0.62760   3 ;    H8S-   C18-   C17-   H7S
  4702   4700   4703   4706      9     0.00   0.66944   3 ;    H8S-   C18-   C17-   C16
  4703   4706   4709   4710      9     0.00   0.66944   3 ;    C17-   C16-   C15-   H5R
  4703   4706   4709   4711      9     0.00   0.66944   3 ;    C17-   C16-   C15-   H5S
  4703   4706   4709   4712      9     0.00   0.41840   1 ;    C17-   C16-   C15-   C14
  4703   4706   4709   4712      9     0.00   0.41840   2 ;    C17-   C16-   C15-   C14
  4703   4706   4709   4712      9     0.00   0.41840   4 ;    C17-   C16-   C15-   C14
  4703   4706   4709   4712      9     0.00   0.41840   5 ;    C17-   C16-   C15-   C14
  4703   4706   4709   4712      9     0.00   1.25520   3 ;    C17-   C16-   C15-   C14
  4704   4703   4706   4707      9     0.00   0.62760   3 ;    H7R-   C17-   C16-   H6R
  4704   4703   4706   4708      9     0.00   0.62760   3 ;    H7R-   C17-   C16-   H6S
  4704   4703   4706   4709      9     0.00   0.66944   3 ;    H7R-   C17-   C16-   C15
  4705   4703   4706   4707      9     0.00   0.62760   3 ;    H7S-   C17-   C16-   H6R
  4705   4703   4706   4708      9     0.00   0.62760   3 ;    H7S-   C17-   C16-   H6S
  4705   4703   4706   4709      9     0.00   0.66944   3 ;    H7S-   C17-   C16-   C15
  4706   4709   4712   4713      9     0.00   0.66944   3 ;    C16-   C15-   C14-   H4R
  4706   4709   4712   4714      9     0.00   0.66944   3 ;    C16-   C15-   C14-   H4S
  4706   4709   4712   4715      9     0.00   0.41840   1 ;    C16-   C15-   C14-   C13
  4706   4709   4712   4715      9     0.00   0.41840   2 ;    C16-   C15-   C14-   C13
  4706   4709   4712   4715      9     0.00   0.41840   4 ;    C16-   C15-   C14-   C13
  4706   4709   4712   4715      9     0.00   0.41840   5 ;    C16-   C15-   C14-   C13
  4706   4709   4712   4715      9     0.00   1.25520   3 ;    C16-   C15-   C14-   C13
  4707   4706   4709   4710      9     0.00   0.62760   3 ;    H6R-   C16-   C15-   H5R
  4707   4706   4709   4711      9     0.00   0.62760   3 ;    H6R-   C16-   C15-   H5S
  4707   4706   4709   4712      9     0.00   0.66944   3 ;    H6R-   C16-   C15-   C14
  4708   4706   4709   4710      9     0.00   0.62760   3 ;    H6S-   C16-   C15-   H5R
  4708   4706   4709   4711      9     0.00   0.62760   3 ;    H6S-   C16-   C15-   H5S
  4708   4706   4709   4712      9     0.00   0.66944   3 ;    H6S-   C16-   C15-   C14
  4709   4712   4715   4716      9     0.00   0.66944   3 ;    C15-   C14-   C13-   H3R
  4709   4712   4715   4717      9     0.00   0.66944   3 ;    C15-   C14-   C13-   H3S
  4709   4712   4715   4718      9     0.00   0.41840   1 ;    C15-   C14-   C13-   C12
  4709   4712   4715   4718      9     0.00   0.41840   2 ;    C15-   C14-   C13-   C12
  4709   4712   4715   4718      9     0.00   0.41840   4 ;    C15-   C14-   C13-   C12
  4709   4712   4715   4718      9     0.00   0.41840   5 ;    C15-   C14-   C13-   C12
  4709   4712   4715   4718      9     0.00   1.25520   3 ;    C15-   C14-   C13-   C12
  4710   4709   4712   4713      9     0.00   0.62760   3 ;    H5R-   C15-   C14-   H4R
  4710   4709   4712   4714      9     0.00   0.62760   3 ;    H5R-   C15-   C14-   H4S
  4710   4709   4712   4715      9     0.00   0.66944   3 ;    H5R-   C15-   C14-   C13
  4711   4709   4712   4713      9     0.00   0.62760   3 ;    H5S-   C15-   C14-   H4R
  4711   4709   4712   4714      9     0.00   0.62760   3 ;    H5S-   C15-   C14-   H4S
  4711   4709   4712   4715      9     0.00   0.66944   3 ;    H5S-   C15-   C14-   C13
  4712   4715   4718   4719      9     0.00   0.66944   3 ;    C14-   C13-   C12-   H2R
  4712   4715   4718   4720      9     0.00   0.66944   3 ;    C14-   C13-   C12-   H2S
  4713   4712   4715   4716      9     0.00   0.62760   3 ;    H4R-   C14-   C13-   H3R
  4713   4712   4715   4717      9     0.00   0.62760   3 ;    H4R-   C14-   C13-   H3S
  4713   4712   4715   4718      9     0.00   0.66944   3 ;    H4R-   C14-   C13-   C12
  4714   4712   4715   4716      9     0.00   0.62760   3 ;    H4S-   C14-   C13-   H3R
  4714   4712   4715   4717      9     0.00   0.62760   3 ;    H4S-   C14-   C13-   H3S
  4714   4712   4715   4718      9     0.00   0.66944   3 ;    H4S-   C14-   C13-   C12
  4716   4715   4718   4719      9     0.00   0.62760   3 ;    H3R-   C13-   C12-   H2R
  4716   4715   4718   4720      9     0.00   0.62760   3 ;    H3R-   C13-   C12-   H2S
  4717   4715   4718   4719      9     0.00   0.62760   3 ;    H3S-   C13-   C12-   H2R
  4717   4715   4718   4720      9     0.00   0.62760   3 ;    H3S-   C13-   C12-   H2S
  4721   4722   4725   4726      9     0.00   0.62760   3 ;   H14T-  C114-  C113-  H13R
  4721   4722   4725   4727      9     0.00   0.62760   3 ;   H14T-  C114-  C113-  H13S
  4721   4722   4725   4728      9     0.00   0.66944   3 ;   H14T-  C114-  C113-  C112
  4722   4725   4728   4729      9     0.00   0.66944   3 ;   C114-  C113-  C112-  H12R
  4722   4725   4728   4730      9     0.00   0.66944   3 ;   C114-  C113-  C112-  H12S
  4722   4725   4728   4731      9     0.00   0.41840   1 ;   C114-  C113-  C112-  C111
  4722   4725   4728   4731      9     0.00   0.41840   2 ;   C114-  C113-  C112-  C111
  4722   4725   4728   4731      9     0.00   0.41840   4 ;   C114-  C113-  C112-  C111
  4722   4725   4728   4731      9     0.00   0.41840   5 ;   C114-  C113-  C112-  C111
  4722   4725   4728   4731      9     0.00   1.25520   3 ;   C114-  C113-  C112-  C111
  4723   4722   4725   4726      9     0.00   0.62760   3 ;   H14R-  C114-  C113-  H13R
  4723   4722   4725   4727      9     0.00   0.62760   3 ;   H14R-  C114-  C113-  H13S
  4723   4722   4725   4728      9     0.00   0.66944   3 ;   H14R-  C114-  C113-  C112
  4724   4722   4725   4726      9     0.00   0.62760   3 ;   H14S-  C114-  C113-  H13R
  4724   4722   4725   4727      9     0.00   0.62760   3 ;   H14S-  C114-  C113-  H13S
  4724   4722   4725   4728      9     0.00   0.66944   3 ;   H14S-  C114-  C113-  C112
  4725   4728   4731   4732      9     0.00   0.66944   3 ;   C113-  C112-  C111-  H11R
  4725   4728   4731   4733      9     0.00   0.66944   3 ;   C113-  C112-  C111-  H11S
  4725   4728   4731   4734      9     0.00   0.41840   1 ;   C113-  C112-  C111-  C110
  4725   4728   4731   4734      9     0.00   0.41840   2 ;   C113-  C112-  C111-  C110
  4725   4728   4731   4734      9     0.00   0.41840   4 ;   C113-  C112-  C111-  C110
  4725   4728   4731   4734      9     0.00   0.41840   5 ;   C113-  C112-  C111-  C110
  4725   4728   4731   4734      9     0.00   1.25520   3 ;   C113-  C112-  C111-  C110
  4726   4725   4728   4729      9     0.00   0.62760   3 ;   H13R-  C113-  C112-  H12R
  4726   4725   4728   4730      9     0.00   0.62760   3 ;   H13R-  C113-  C112-  H12S
  4726   4725   4728   4731      9     0.00   0.66944   3 ;   H13R-  C113-  C112-  C111
  4727   4725   4728   4729      9     0.00   0.62760   3 ;   H13S-  C113-  C112-  H12R
  4727   4725   4728   4730      9     0.00   0.62760   3 ;   H13S-  C113-  C112-  H12S
  4727   4725   4728   4731      9     0.00   0.66944   3 ;   H13S-  C113-  C112-  C111
  4728   4731   4734   4735      9     0.00   0.66944   3 ;   C112-  C111-  C110-  H10R
  4728   4731   4734   4736      9     0.00   0.66944   3 ;   C112-  C111-  C110-  H10S
  4728   4731   4734   4737      9     0.00   0.41840   1 ;   C112-  C111-  C110-   C19
  4728   4731   4734   4737      9     0.00   0.41840   2 ;   C112-  C111-  C110-   C19
  4728   4731   4734   4737      9     0.00   0.41840   4 ;   C112-  C111-  C110-   C19
  4728   4731   4734   4737      9     0.00   0.41840   5 ;   C112-  C111-  C110-   C19
  4728   4731   4734   4737      9     0.00   1.25520   3 ;   C112-  C111-  C110-   C19
  4729   4728   4731   4732      9     0.00   0.62760   3 ;   H12R-  C112-  C111-  H11R
  4729   4728   4731   4733      9     0.00   0.62760   3 ;   H12R-  C112-  C111-  H11S
  4729   4728   4731   4734      9     0.00   0.66944   3 ;   H12R-  C112-  C111-  C110
  4730   4728   4731   4732      9     0.00   0.62760   3 ;   H12S-  C112-  C111-  H11R
  4730   4728   4731   4733      9     0.00   0.62760   3 ;   H12S-  C112-  C111-  H11S
  4730   4728   4731   4734      9     0.00   0.66944   3 ;   H12S-  C112-  C111-  C110
  4731   4734   4737   4738      9     0.00   0.66944   3 ;   C111-  C110-   C19-   H9R
  4731   4734   4737   4739      9     0.00   0.66944   3 ;   C111-  C110-   C19-   H9S
  4731   4734   4737   4740      9     0.00   0.41840   1 ;   C111-  C110-   C19-   C18
  4731   4734   4737   4740      9     0.00   0.41840   2 ;   C111-  C110-   C19-   C18
  4731   4734   4737   4740      9     0.00   0.41840   4 ;   C111-  C110-   C19-   C18
  4731   4734   4737   4740      9     0.00   0.41840   5 ;   C111-  C110-   C19-   C18
  4731   4734   4737   4740      9     0.00   1.25520   3 ;   C111-  C110-   C19-   C18
  4732   4731   4734   4735      9     0.00   0.62760   3 ;   H11R-  C111-  C110-  H10R
  4732   4731   4734   4736      9     0.00   0.62760   3 ;   H11R-  C111-  C110-  H10S
  4732   4731   4734   4737      9     0.00   0.66944   3 ;   H11R-  C111-  C110-   C19
  4733   4731   4734   4735      9     0.00   0.62760   3 ;   H11S-  C111-  C110-  H10R
  4733   4731   4734   4736      9     0.00   0.62760   3 ;   H11S-  C111-  C110-  H10S
  4733   4731   4734   4737      9     0.00   0.66944   3 ;   H11S-  C111-  C110-   C19
  4734   4737   4740   4741      9     0.00   0.66944   3 ;   C110-   C19-   C18-   H8R
  4734   4737   4740   4742      9     0.00   0.66944   3 ;   C110-   C19-   C18-   H8S
  4734   4737   4740   4743      9     0.00   0.41840   1 ;   C110-   C19-   C18-   C17
  4734   4737   4740   4743      9     0.00   0.41840   2 ;   C110-   C19-   C18-   C17
  4734   4737   4740   4743      9     0.00   0.41840   4 ;   C110-   C19-   C18-   C17
  4734   4737   4740   4743      9     0.00   0.41840   5 ;   C110-   C19-   C18-   C17
  4734   4737   4740   4743      9     0.00   1.25520   3 ;   C110-   C19-   C18-   C17
  4735   4734   4737   4738      9     0.00   0.62760   3 ;   H10R-  C110-   C19-   H9R
  4735   4734   4737   4739      9     0.00   0.62760   3 ;   H10R-  C110-   C19-   H9S
  4735   4734   4737   4740      9     0.00   0.66944   3 ;   H10R-  C110-   C19-   C18
  4736   4734   4737   4738      9     0.00   0.62760   3 ;   H10S-  C110-   C19-   H9R
  4736   4734   4737   4739      9     0.00   0.62760   3 ;   H10S-  C110-   C19-   H9S
  4736   4734   4737   4740      9     0.00   0.66944   3 ;   H10S-  C110-   C19-   C18
  4737   4740   4743   4744      9     0.00   0.66944   3 ;    C19-   C18-   C17-   H7R
  4737   4740   4743   4745      9     0.00   0.66944   3 ;    C19-   C18-   C17-   H7S
  4737   4740   4743   4746      9     0.00   0.41840   1 ;    C19-   C18-   C17-   C16
  4737   4740   4743   4746      9     0.00   0.41840   2 ;    C19-   C18-   C17-   C16
  4737   4740   4743   4746      9     0.00   0.41840   4 ;    C19-   C18-   C17-   C16
  4737   4740   4743   4746      9     0.00   0.41840   5 ;    C19-   C18-   C17-   C16
  4737   4740   4743   4746      9     0.00   1.25520   3 ;    C19-   C18-   C17-   C16
  4738   4737   4740   4741      9     0.00   0.62760   3 ;    H9R-   C19-   C18-   H8R
  4738   4737   4740   4742      9     0.00   0.62760   3 ;    H9R-   C19-   C18-   H8S
  4738   4737   4740   4743      9     0.00   0.66944   3 ;    H9R-   C19-   C18-   C17
  4739   4737   4740   4741      9     0.00   0.62760   3 ;    H9S-   C19-   C18-   H8R
  4739   4737   4740   4742      9     0.00   0.62760   3 ;    H9S-   C19-   C18-   H8S
  4739   4737   4740   4743      9     0.00   0.66944   3 ;    H9S-   C19-   C18-   C17
  4740   4743   4746   4747      9     0.00   0.66944   3 ;    C18-   C17-   C16-   H6R
  4740   4743   4746   4748      9     0.00   0.66944   3 ;    C18-   C17-   C16-   H6S
  4740   4743   4746   4749      9     0.00   0.41840   1 ;    C18-   C17-   C16-   C15
  4740   4743   4746   4749      9     0.00   0.41840   2 ;    C18-   C17-   C16-   C15
  4740   4743   4746   4749      9     0.00   0.41840   4 ;    C18-   C17-   C16-   C15
  4740   4743   4746   4749      9     0.00   0.41840   5 ;    C18-   C17-   C16-   C15
  4740   4743   4746   4749      9     0.00   1.25520   3 ;    C18-   C17-   C16-   C15
  4741   4740   4743   4744      9     0.00   0.62760   3 ;    H8R-   C18-   C17-   H7R
  4741   4740   4743   4745      9     0.00   0.62760   3 ;    H8R-   C18-   C17-   H7S
  4741   4740   4743   4746      9     0.00   0.66944   3 ;    H8R-   C18-   C17-   C16
  4742   4740   4743   4744      9     0.00   0.62760   3 ;    H8S-   C18-   C17-   H7R
  4742   4740   4743   4745      9     0.00   0.62760   3 ;    H8S-   C18-   C17-   H7S
  4742   4740   4743   4746      9     0.00   0.66944   3 ;    H8S-   C18-   C17-   C16
  4743   4746   4749   4750      9     0.00   0.66944   3 ;    C17-   C16-   C15-   H5R
  4743   4746   4749   4751      9     0.00   0.66944   3 ;    C17-   C16-   C15-   H5S
  4743   4746   4749   4752      9     0.00   0.41840   1 ;    C17-   C16-   C15-   C14
  4743   4746   4749   4752      9     0.00   0.41840   2 ;    C17-   C16-   C15-   C14
  4743   4746   4749   4752      9     0.00   0.41840   4 ;    C17-   C16-   C15-   C14
  4743   4746   4749   4752      9     0.00   0.41840   5 ;    C17-   C16-   C15-   C14
  4743   4746   4749   4752      9     0.00   1.25520   3 ;    C17-   C16-   C15-   C14
  4744   4743   4746   4747      9     0.00   0.62760   3 ;    H7R-   C17-   C16-   H6R
  4744   4743   4746   4748      9     0.00   0.62760   3 ;    H7R-   C17-   C16-   H6S
  4744   4743   4746   4749      9     0.00   0.66944   3 ;    H7R-   C17-   C16-   C15
  4745   4743   4746   4747      9     0.00   0.62760   3 ;    H7S-   C17-   C16-   H6R
  4745   4743   4746   4748      9     0.00   0.62760   3 ;    H7S-   C17-   C16-   H6S
  4745   4743   4746   4749      9     0.00   0.66944   3 ;    H7S-   C17-   C16-   C15
  4746   4749   4752   4753      9     0.00   0.66944   3 ;    C16-   C15-   C14-   H4R
  4746   4749   4752   4754      9     0.00   0.66944   3 ;    C16-   C15-   C14-   H4S
  4746   4749   4752   4755      9     0.00   0.41840   1 ;    C16-   C15-   C14-   C13
  4746   4749   4752   4755      9     0.00   0.41840   2 ;    C16-   C15-   C14-   C13
  4746   4749   4752   4755      9     0.00   0.41840   4 ;    C16-   C15-   C14-   C13
  4746   4749   4752   4755      9     0.00   0.41840   5 ;    C16-   C15-   C14-   C13
  4746   4749   4752   4755      9     0.00   1.25520   3 ;    C16-   C15-   C14-   C13
  4747   4746   4749   4750      9     0.00   0.62760   3 ;    H6R-   C16-   C15-   H5R
  4747   4746   4749   4751      9     0.00   0.62760   3 ;    H6R-   C16-   C15-   H5S
  4747   4746   4749   4752      9     0.00   0.66944   3 ;    H6R-   C16-   C15-   C14
  4748   4746   4749   4750      9     0.00   0.62760   3 ;    H6S-   C16-   C15-   H5R
  4748   4746   4749   4751      9     0.00   0.62760   3 ;    H6S-   C16-   C15-   H5S
  4748   4746   4749   4752      9     0.00   0.66944   3 ;    H6S-   C16-   C15-   C14
  4749   4752   4755   4756      9     0.00   0.66944   3 ;    C15-   C14-   C13-   H3R
  4749   4752   4755   4757      9     0.00   0.66944   3 ;    C15-   C14-   C13-   H3S
  4749   4752   4755   4758      9     0.00   0.41840   1 ;    C15-   C14-   C13-   C12
  4749   4752   4755   4758      9     0.00   0.41840   2 ;    C15-   C14-   C13-   C12
  4749   4752   4755   4758      9     0.00   0.41840   4 ;    C15-   C14-   C13-   C12
  4749   4752   4755   4758      9     0.00   0.41840   5 ;    C15-   C14-   C13-   C12
  4749   4752   4755   4758      9     0.00   1.25520   3 ;    C15-   C14-   C13-   C12
  4750   4749   4752   4753      9     0.00   0.62760   3 ;    H5R-   C15-   C14-   H4R
  4750   4749   4752   4754      9     0.00   0.62760   3 ;    H5R-   C15-   C14-   H4S
  4750   4749   4752   4755      9     0.00   0.66944   3 ;    H5R-   C15-   C14-   C13
  4751   4749   4752   4753      9     0.00   0.62760   3 ;    H5S-   C15-   C14-   H4R
  4751   4749   4752   4754      9     0.00   0.62760   3 ;    H5S-   C15-   C14-   H4S
  4751   4749   4752   4755      9     0.00   0.66944   3 ;    H5S-   C15-   C14-   C13
  4752   4755   4758   4759      9     0.00   0.66944   3 ;    C14-   C13-   C12-   H2R
  4752   4755   4758   4760      9     0.00   0.66944   3 ;    C14-   C13-   C12-   H2S
  4752   4755   4758   4761      9     0.00   0.65270   3 ;    C14-   C13-   C12-   C11
  4753   4752   4755   4756      9     0.00   0.62760   3 ;    H4R-   C14-   C13-   H3R
  4753   4752   4755   4757      9     0.00   0.62760   3 ;    H4R-   C14-   C13-   H3S
  4753   4752   4755   4758      9     0.00   0.66944   3 ;    H4R-   C14-   C13-   C12
  4754   4752   4755   4756      9     0.00   0.62760   3 ;    H4S-   C14-   C13-   H3R
  4754   4752   4755   4757      9     0.00   0.62760   3 ;    H4S-   C14-   C13-   H3S
  4754   4752   4755   4758      9     0.00   0.66944   3 ;    H4S-   C14-   C13-   C12
  4755   4758   4761   4762      9   180.00   0.00000   2 ;    C13-   C12-   C11-   O12
  4755   4758   4761   4763      9   180.00   0.00000   2 ;    C13-   C12-   C11-   O11
  4756   4755   4758   4759      9     0.00   0.62760   3 ;    H3R-   C13-   C12-   H2R
  4756   4755   4758   4760      9     0.00   0.62760   3 ;    H3R-   C13-   C12-   H2S
  4756   4755   4758   4761      9     0.00   0.65270   3 ;    H3R-   C13-   C12-   C11
  4757   4755   4758   4759      9     0.00   0.62760   3 ;    H3S-   C13-   C12-   H2R
  4757   4755   4758   4760      9     0.00   0.62760   3 ;    H3S-   C13-   C12-   H2S
  4757   4755   4758   4761      9     0.00   0.65270   3 ;    H3S-   C13-   C12-   C11
  4758   4761   4763   4764      9   180.00  11.29680   2 ;    C12-   C11-   O11-    C1
  4759   4758   4761   4762      9     0.00   3.34720   1 ;    H2R-   C12-   C11-   O12
  4759   4758   4761   4762      9   180.00   0.33472   3 ;    H2R-   C12-   C11-   O12
  4759   4758   4761   4763      9   180.00   0.00000   2 ;    H2R-   C12-   C11-   O11
  4760   4758   4761   4762      9     0.00   3.34720   1 ;    H2S-   C12-   C11-   O12
  4760   4758   4761   4762      9   180.00   0.33472   3 ;    H2S-   C12-   C11-   O12
  4760   4758   4761   4763      9   180.00   0.00000   2 ;    H2S-   C12-   C11-   O11
  4761   4763   4764   4765      9     0.00   1.60247   3 ;    C11-   O11-    C1-    HR
  4761   4763   4764   4766      9     0.00   1.60247   3 ;    C11-   O11-    C1-    HS
  4761   4763   4764   4767      9     0.00  -0.41840   1 ;    C11-   O11-    C1-    C2
  4762   4761   4763   4764      9   180.00   5.85760   1 ;    O12-   C11-   O11-    C1
  4762   4761   4763   4764      9   180.00  11.29680   2 ;    O12-   C11-   O11-    C1
  4763   4764   4767   4768      9     0.00   0.00000   0 ;    O11-    C1-    C2-    HX
  4763   4764   4767   4768      9     0.00   1.04600   1 ;    O11-    C1-    C2-    HX
  4763   4764   4767   4769      9     0.00   0.00000   0 ;    O11-    C1-    C2-    C3
  4763   4764   4767   4769      9     0.00   0.00000   0 ;    O11-    C1-    C2-    C3
  4763   4764   4767   4769      9     0.00   0.00000   0 ;    O11-    C1-    C2-    C3
  4763   4764   4767   4769      9     0.00   0.00000   0 ;    O11-    C1-    C2-    C3
  4763   4764   4767   4769      9     0.00   0.00000   0 ;    O11-    C1-    C2-    C3
  4763   4764   4767   4796      9     0.00   1.25520   2 ;    O11-    C1-    C2-   O21
  4763   4764   4767   4796      9     0.00   4.18400   3 ;    O11-    C1-    C2-   O21
  4763   4764   4767   4796      9   180.00  -0.41840   1 ;    O11-    C1-    C2-   O21
  4764   4767   4769   4770      9     0.00   0.65270   3 ;     C1-    C2-    C3-    HA
  4764   4767   4769   4771      9     0.00   0.65270   3 ;     C1-    C2-    C3-    HB
  4764   4767   4769   4772      9   180.00   3.34720   1 ;     C1-    C2-    C3-   O31
  4764   4767   4796   4797      9     0.00  -0.41840   1 ;     C1-    C2-   O21-   C21
  4765   4764   4767   4768      9     0.00   0.65270   3 ;     HR-    C1-    C2-    HX
  4765   4764   4767   4769      9     0.00   0.65270   3 ;     HR-    C1-    C2-    C3
  4765   4764   4767   4796      9     0.00   0.00000   0 ;     HR-    C1-    C2-   O21
  4765   4764   4767   4796      9     0.00   1.04600   1 ;     HR-    C1-    C2-   O21
  4766   4764   4767   4768      9     0.00   0.65270   3 ;     HS-    C1-    C2-    HX
  4766   4764   4767   4769      9     0.00   0.65270   3 ;     HS-    C1-    C2-    C3
  4766   4764   4767   4796      9     0.00   0.00000   0 ;     HS-    C1-    C2-   O21
  4766   4764   4767   4796      9     0.00   1.04600   1 ;     HS-    C1-    C2-   O21
  4767   4769   4772   4773      9     0.00   0.00000   0 ;     C2-    C3-   O31-   P31
  4767   4769   4772   4773      9   180.00  -3.34720   2 ;     C2-    C3-   O31-   P31
  4767   4796   4797   4798      9   180.00   5.85760   1 ;     C2-   O21-   C21-   O22
  4767   4796   4797   4798      9   180.00  11.29680   2 ;     C2-   O21-   C21-   O22
  4767   4796   4797   4836      9   180.00  11.29680   2 ;     C2-   O21-   C21-   C12
  4768   4767   4769   4770      9     0.00   0.65270   3 ;     HX-    C2-    C3-    HA
  4768   4767   4769   4771      9     0.00   0.65270   3 ;     HX-    C2-    C3-    HB
  4768   4767   4769   4772      9     0.00   0.00000   0 ;     HX-    C2-    C3-   O31
  4768   4767   4769   4772      9     0.00   1.04600   1 ;     HX-    C2-    C3-   O31
  4768   4767   4796   4797      9     0.00   1.60247   3 ;     HX-    C2-   O21-   C21
  4769   4767   4796   4797      9     0.00  -0.41840   1 ;     C3-    C2-   O21-   C21
  4769   4772   4773   4774      9     0.00   2.51040   3 ;     C3-   O31-   P31-   O32
  4769   4772   4773   4774      9     0.00   9.62320   2 ;     C3-   O31-   P31-   O32
  4769   4772   4773   4794      9     0.00   0.00000   0 ;     C3-   O31-   P31-   O33
  4769   4772   4773   4794      9     0.00   0.00000   0 ;     C3-   O31-   P31-   O33
  4769   4772   4773   4794      9     0.00   0.00000   0 ;     C3-   O31-   P31-   O33
  4769   4772   4773   4794      9     0.00   0.00000   0 ;     C3-   O31-   P31-   O33
  4769   4772   4773   4794      9     0.00   0.83680   2 ;     C3-   O31-   P31-   O33
  4769   4772   4773   4795      9     0.00   0.00000   0 ;     C3-   O31-   P31-   O34
  4769   4772   4773   4795      9     0.00   0.00000   0 ;     C3-   O31-   P31-   O34
  4769   4772   4773   4795      9     0.00   0.00000   0 ;     C3-   O31-   P31-   O34
  4769   4772   4773   4795      9     0.00   0.00000   0 ;     C3-   O31-   P31-   O34
  4769   4772   4773   4795      9     0.00   0.83680   2 ;     C3-   O31-   P31-   O34
  4770   4769   4767   4796      9     0.00   0.00000   0 ;     HA-    C3-    C2-   O21
  4770   4769   4767   4796      9     0.00   1.04600   1 ;     HA-    C3-    C2-   O21
  4770   4769   4772   4773      9     0.00   0.00000   0 ;     HA-    C3-   O31-   P31
  4770   4769   4772   4773      9     0.00   0.00000   0 ;     HA-    C3-   O31-   P31
  4770   4769   4772   4773      9     0.00   0.00000   0 ;     HA-    C3-   O31-   P31
  4770   4769   4772   4773      9     0.00   0.00000   0 ;     HA-    C3-   O31-   P31
  4770   4769   4772   4773      9     0.00   1.60247   3 ;     HA-    C3-   O31-   P31
  4771   4769   4767   4796      9     0.00   0.00000   0 ;     HB-    C3-    C2-   O21
  4771   4769   4767   4796      9     0.00   1.04600   1 ;     HB-    C3-    C2-   O21
  4771   4769   4772   4773      9     0.00   0.00000   0 ;     HB-    C3-   O31-   P31
  4771   4769   4772   4773      9     0.00   0.00000   0 ;     HB-    C3-   O31-   P31
  4771   4769   4772   4773      9     0.00   0.00000   0 ;     HB-    C3-   O31-   P31
  4771   4769   4772   4773      9     0.00   0.00000   0 ;     HB-    C3-   O31-   P31
  4771   4769   4772   4773      9     0.00   1.60247   3 ;     HB-    C3-   O31-   P31
  4772   4769   4767   4796      9     0.00   0.00000   0 ;    O31-    C3-    C2-   O21
  4772   4769   4767   4796      9     0.00   0.00000   0 ;    O31-    C3-    C2-   O21
  4772   4769   4767   4796      9     0.00   0.00000   0 ;    O31-    C3-    C2-   O21
  4772   4769   4767   4796      9     0.00   0.00000   0 ;    O31-    C3-    C2-   O21
  4772   4769   4767   4796      9     0.00   0.00000   0 ;    O31-    C3-    C2-   O21
  4772   4773   4774   4775      9     0.00   2.51040   3 ;    O31-   P31-   O32-   C31
  4772   4773   4774   4775      9     0.00   9.62320   2 ;    O31-   P31-   O32-   C31
  4773   4774   4775   4776      9     0.00   0.00000   0 ;    P31-   O32-   C31-   H1A
  4773   4774   4775   4776      9     0.00   0.00000   0 ;    P31-   O32-   C31-   H1A
  4773   4774   4775   4776      9     0.00   0.00000   0 ;    P31-   O32-   C31-   H1A
  4773   4774   4775   4776      9     0.00   0.00000   0 ;    P31-   O32-   C31-   H1A
  4773   4774   4775   4776      9     0.00   1.60247   3 ;    P31-   O32-   C31-   H1A
  4773   4774   4775   4777      9     0.00   0.00000   0 ;    P31-   O32-   C31-   H1B
  4773   4774   4775   4777      9     0.00   0.00000   0 ;    P31-   O32-   C31-   H1B
  4773   4774   4775   4777      9     0.00   0.00000   0 ;    P31-   O32-   C31-   H1B
  4773   4774   4775   4777      9     0.00   0.00000   0 ;    P31-   O32-   C31-   H1B
  4773   4774   4775   4777      9     0.00   1.60247   3 ;    P31-   O32-   C31-   H1B
  4773   4774   4775   4778      9     0.00   0.00000   0 ;    P31-   O32-   C31-   C32
  4773   4774   4775   4778      9   180.00  -3.34720   2 ;    P31-   O32-   C31-   C32
  4774   4775   4778   4779      9     0.00   0.65270   3 ;    O32-   C31-   C32-   H2A
  4774   4775   4778   4780      9     0.00   0.65270   3 ;    O32-   C31-   C32-   H2B
  4774   4775   4778   4781      9     0.00   4.18400   3 ;    O32-   C31-   C32-   N31
  4775   4774   4773   4794      9     0.00   0.00000   0 ;    C31-   O32-   P31-   O33
  4775   4774   4773   4794      9     0.00   0.00000   0 ;    C31-   O32-   P31-   O33
  4775   4774   4773   4794      9     0.00   0.00000   0 ;    C31-   O32-   P31-   O33
  4775   4774   4773   4794      9     0.00   0.00000   0 ;    C31-   O32-   P31-   O33
  4775   4774   4773   4794      9     0.00   0.83680   2 ;    C31-   O32-   P31-   O33
  4775   4774   4773   4795      9     0.00   0.00000   0 ;    C31-   O32-   P31-   O34
  4775   4774   4773   4795      9     0.00   0.00000   0 ;    C31-   O32-   P31-   O34
  4775   4774   4773   4795      9     0.00   0.00000   0 ;    C31-   O32-   P31-   O34
  4775   4774   4773   4795      9     0.00   0.00000   0 ;    C31-   O32-   P31-   O34
  4775   4774   4773   4795      9     0.00   0.83680   2 ;    C31-   O32-   P31-   O34
  4775   4778   4781   4782      9     0.00   0.65270   3 ;    C31-   C32-   N31-   C33
  4775   4778   4781   4786      9     0.00   0.65270   3 ;    C31-   C32-   N31-   C34
  4775   4778   4781   4790      9     0.00   0.65270   3 ;    C31-   C32-   N31-   C35
  4776   4775   4778   4779      9     0.00   0.65270   3 ;    H1A-   C31-   C32-   H2A
  4776   4775   4778   4780      9     0.00   0.65270   3 ;    H1A-   C31-   C32-   H2B
  4776   4775   4778   4781      9     0.00   0.65270   3 ;    H1A-   C31-   C32-   N31
  4777   4775   4778   4779      9     0.00   0.65270   3 ;    H1B-   C31-   C32-   H2A
  4777   4775   4778   4780      9     0.00   0.65270   3 ;    H1B-   C31-   C32-   H2B
  4777   4775   4778   4781      9     0.00   0.65270   3 ;    H1B-   C31-   C32-   N31
  4778   4781   4782   4783      9     0.00   0.65270   3 ;    C32-   N31-   C33-   H3A
  4778   4781   4782   4784      9     0.00   0.65270   3 ;    C32-   N31-   C33-   H3B
  4778   4781   4782   4785      9     0.00   0.65270   3 ;    C32-   N31-   C33-   H3C
  4778   4781   4786   4787      9     0.00   0.65270   3 ;    C32-   N31-   C34-   H4A
  4778   4781   4786   4788      9     0.00   0.65270   3 ;    C32-   N31-   C34-   H4B
  4778   4781   4786   4789      9     0.00   0.65270   3 ;    C32-   N31-   C34-   H4C
  4778   4781   4790   4791      9     0.00   0.65270   3 ;    C32-   N31-   C35-   H5A
  4778   4781   4790   4792      9     0.00   0.65270   3 ;    C32-   N31-   C35-   H5B
  4778   4781   4790   4793      9     0.00   0.65270   3 ;    C32-   N31-   C35-   H5C
  4779   4778   4781   4782      9     0.00   0.65270   3 ;    H2A-   C32-   N31-   C33
  4779   4778   4781   4786      9     0.00   0.65270   3 ;    H2A-   C32-   N31-   C34
  4779   4778   4781   4790      9     0.00   0.65270   3 ;    H2A-   C32-   N31-   C35
  4780   4778   4781   4782      9     0.00   0.65270   3 ;    H2B-   C32-   N31-   C33
  4780   4778   4781   4786      9     0.00   0.65270   3 ;    H2B-   C32-   N31-   C34
  4780   4778   4781   4790      9     0.00   0.65270   3 ;    H2B-   C32-   N31-   C35
  4782   4781   4786   4787      9     0.00   0.65270   3 ;    C33-   N31-   C34-   H4A
  4782   4781   4786   4788      9     0.00   0.65270   3 ;    C33-   N31-   C34-   H4B
  4782   4781   4786   4789      9     0.00   0.65270   3 ;    C33-   N31-   C34-   H4C
  4782   4781   4790   4791      9     0.00   0.65270   3 ;    C33-   N31-   C35-   H5A
  4782   4781   4790   4792      9     0.00   0.65270   3 ;    C33-   N31-   C35-   H5B
  4782   4781   4790   4793      9     0.00   0.65270   3 ;    C33-   N31-   C35-   H5C
  4783   4782   4781   4786      9     0.00   0.65270   3 ;    H3A-   C33-   N31-   C34
  4783   4782   4781   4790      9     0.00   0.65270   3 ;    H3A-   C33-   N31-   C35
  4784   4782   4781   4786      9     0.00   0.65270   3 ;    H3B-   C33-   N31-   C34
  4784   4782   4781   4790      9     0.00   0.65270   3 ;    H3B-   C33-   N31-   C35
  4785   4782   4781   4786      9     0.00   0.65270   3 ;    H3C-   C33-   N31-   C34
  4785   4782   4781   4790      9     0.00   0.65270   3 ;    H3C-   C33-   N31-   C35
  4786   4781   4790   4791      9     0.00   0.65270   3 ;    C34-   N31-   C35-   H5A
  4786   4781   4790   4792      9     0.00   0.65270   3 ;    C34-   N31-   C35-   H5B
  4786   4781   4790   4793      9     0.00   0.65270   3 ;    C34-   N31-   C35-   H5C
  4787   4786   4781   4790      9     0.00   0.65270   3 ;    H4A-   C34-   N31-   C35
  4788   4786   4781   4790      9     0.00   0.65270   3 ;    H4B-   C34-   N31-   C35
  4789   4786   4781   4790      9     0.00   0.65270   3 ;    H4C-   C34-   N31-   C35
  4796   4797   4836   4833      9   180.00   0.00000   2 ;    O21-   C21-   C12-   C13
  4796   4797   4836   4837      9   180.00   0.00000   2 ;    O21-   C21-   C12-   H2R
  4796   4797   4836   4838      9   180.00   0.00000   2 ;    O21-   C21-   C12-   H2S
  4797   4836   4833   4830      9     0.00   0.65270   3 ;    C21-   C12-   C13-   C14
  4797   4836   4833   4834      9     0.00   0.65270   3 ;    C21-   C12-   C13-   H3R
  4797   4836   4833   4835      9     0.00   0.65270   3 ;    C21-   C12-   C13-   H3S
  4798   4797   4836   4833      9   180.00   0.00000   2 ;    O22-   C21-   C12-   C13
  4798   4797   4836   4837      9     0.00   3.34720   1 ;    O22-   C21-   C12-   H2R
  4798   4797   4836   4837      9   180.00   0.33472   3 ;    O22-   C21-   C12-   H2R
  4798   4797   4836   4838      9     0.00   3.34720   1 ;    O22-   C21-   C12-   H2S
  4798   4797   4836   4838      9   180.00   0.33472   3 ;    O22-   C21-   C12-   H2S
  4799   4800   4803   4804      9     0.00   0.62760   3 ;   H14T-  C114-  C113-  H13R
  4799   4800   4803   4805      9     0.00   0.62760   3 ;   H14T-  C114-  C113-  H13S
  4799   4800   4803   4806      9     0.00   0.66944   3 ;   H14T-  C114-  C113-  C112
  4800   4803   4806   4807      9     0.00   0.66944   3 ;   C114-  C113-  C112-  H12R
  4800   4803   4806   4808      9     0.00   0.66944   3 ;   C114-  C113-  C112-  H12S
  4800   4803   4806   4809      9     0.00   0.41840   1 ;   C114-  C113-  C112-  C111
  4800   4803   4806   4809      9     0.00   0.41840   2 ;   C114-  C113-  C112-  C111
  4800   4803   4806   4809      9     0.00   0.41840   4 ;   C114-  C113-  C112-  C111
  4800   4803   4806   4809      9     0.00   0.41840   5 ;   C114-  C113-  C112-  C111
  4800   4803   4806   4809      9     0.00   1.25520   3 ;   C114-  C113-  C112-  C111
  4801   4800   4803   4804      9     0.00   0.62760   3 ;   H14R-  C114-  C113-  H13R
  4801   4800   4803   4805      9     0.00   0.62760   3 ;   H14R-  C114-  C113-  H13S
  4801   4800   4803   4806      9     0.00   0.66944   3 ;   H14R-  C114-  C113-  C112
  4802   4800   4803   4804      9     0.00   0.62760   3 ;   H14S-  C114-  C113-  H13R
  4802   4800   4803   4805      9     0.00   0.62760   3 ;   H14S-  C114-  C113-  H13S
  4802   4800   4803   4806      9     0.00   0.66944   3 ;   H14S-  C114-  C113-  C112
  4803   4806   4809   4810      9     0.00   0.66944   3 ;   C113-  C112-  C111-  H11R
  4803   4806   4809   4811      9     0.00   0.66944   3 ;   C113-  C112-  C111-  H11S
  4803   4806   4809   4812      9     0.00   0.41840   1 ;   C113-  C112-  C111-  C110
  4803   4806   4809   4812      9     0.00   0.41840   2 ;   C113-  C112-  C111-  C110
  4803   4806   4809   4812      9     0.00   0.41840   4 ;   C113-  C112-  C111-  C110
  4803   4806   4809   4812      9     0.00   0.41840   5 ;   C113-  C112-  C111-  C110
  4803   4806   4809   4812      9     0.00   1.25520   3 ;   C113-  C112-  C111-  C110
  4804   4803   4806   4807      9     0.00   0.62760   3 ;   H13R-  C113-  C112-  H12R
  4804   4803   4806   4808      9     0.00   0.62760   3 ;   H13R-  C113-  C112-  H12S
  4804   4803   4806   4809      9     0.00   0.66944   3 ;   H13R-  C113-  C112-  C111
  4805   4803   4806   4807      9     0.00   0.62760   3 ;   H13S-  C113-  C112-  H12R
  4805   4803   4806   4808      9     0.00   0.62760   3 ;   H13S-  C113-  C112-  H12S
  4805   4803   4806   4809      9     0.00   0.66944   3 ;   H13S-  C113-  C112-  C111
  4806   4809   4812   4813      9     0.00   0.66944   3 ;   C112-  C111-  C110-  H10R
  4806   4809   4812   4814      9     0.00   0.66944   3 ;   C112-  C111-  C110-  H10S
  4806   4809   4812   4815      9     0.00   0.41840   1 ;   C112-  C111-  C110-   C19
  4806   4809   4812   4815      9     0.00   0.41840   2 ;   C112-  C111-  C110-   C19
  4806   4809   4812   4815      9     0.00   0.41840   4 ;   C112-  C111-  C110-   C19
  4806   4809   4812   4815      9     0.00   0.41840   5 ;   C112-  C111-  C110-   C19
  4806   4809   4812   4815      9     0.00   1.25520   3 ;   C112-  C111-  C110-   C19
  4807   4806   4809   4810      9     0.00   0.62760   3 ;   H12R-  C112-  C111-  H11R
  4807   4806   4809   4811      9     0.00   0.62760   3 ;   H12R-  C112-  C111-  H11S
  4807   4806   4809   4812      9     0.00   0.66944   3 ;   H12R-  C112-  C111-  C110
  4808   4806   4809   4810      9     0.00   0.62760   3 ;   H12S-  C112-  C111-  H11R
  4808   4806   4809   4811      9     0.00   0.62760   3 ;   H12S-  C112-  C111-  H11S
  4808   4806   4809   4812      9     0.00   0.66944   3 ;   H12S-  C112-  C111-  C110
  4809   4812   4815   4816      9     0.00   0.66944   3 ;   C111-  C110-   C19-   H9R
  4809   4812   4815   4817      9     0.00   0.66944   3 ;   C111-  C110-   C19-   H9S
  4809   4812   4815   4818      9     0.00   0.41840   1 ;   C111-  C110-   C19-   C18
  4809   4812   4815   4818      9     0.00   0.41840   2 ;   C111-  C110-   C19-   C18
  4809   4812   4815   4818      9     0.00   0.41840   4 ;   C111-  C110-   C19-   C18
  4809   4812   4815   4818      9     0.00   0.41840   5 ;   C111-  C110-   C19-   C18
  4809   4812   4815   4818      9     0.00   1.25520   3 ;   C111-  C110-   C19-   C18
  4810   4809   4812   4813      9     0.00   0.62760   3 ;   H11R-  C111-  C110-  H10R
  4810   4809   4812   4814      9     0.00   0.62760   3 ;   H11R-  C111-  C110-  H10S
  4810   4809   4812   4815      9     0.00   0.66944   3 ;   H11R-  C111-  C110-   C19
  4811   4809   4812   4813      9     0.00   0.62760   3 ;   H11S-  C111-  C110-  H10R
  4811   4809   4812   4814      9     0.00   0.62760   3 ;   H11S-  C111-  C110-  H10S
  4811   4809   4812   4815      9     0.00   0.66944   3 ;   H11S-  C111-  C110-   C19
  4812   4815   4818   4819      9     0.00   0.66944   3 ;   C110-   C19-   C18-   H8R
  4812   4815   4818   4820      9     0.00   0.66944   3 ;   C110-   C19-   C18-   H8S
  4812   4815   4818   4821      9     0.00   0.41840   1 ;   C110-   C19-   C18-   C17
  4812   4815   4818   4821      9     0.00   0.41840   2 ;   C110-   C19-   C18-   C17
  4812   4815   4818   4821      9     0.00   0.41840   4 ;   C110-   C19-   C18-   C17
  4812   4815   4818   4821      9     0.00   0.41840   5 ;   C110-   C19-   C18-   C17
  4812   4815   4818   4821      9     0.00   1.25520   3 ;   C110-   C19-   C18-   C17
  4813   4812   4815   4816      9     0.00   0.62760   3 ;   H10R-  C110-   C19-   H9R
  4813   4812   4815   4817      9     0.00   0.62760   3 ;   H10R-  C110-   C19-   H9S
  4813   4812   4815   4818      9     0.00   0.66944   3 ;   H10R-  C110-   C19-   C18
  4814   4812   4815   4816      9     0.00   0.62760   3 ;   H10S-  C110-   C19-   H9R
  4814   4812   4815   4817      9     0.00   0.62760   3 ;   H10S-  C110-   C19-   H9S
  4814   4812   4815   4818      9     0.00   0.66944   3 ;   H10S-  C110-   C19-   C18
  4815   4818   4821   4822      9     0.00   0.66944   3 ;    C19-   C18-   C17-   H7R
  4815   4818   4821   4823      9     0.00   0.66944   3 ;    C19-   C18-   C17-   H7S
  4815   4818   4821   4824      9     0.00   0.41840   1 ;    C19-   C18-   C17-   C16
  4815   4818   4821   4824      9     0.00   0.41840   2 ;    C19-   C18-   C17-   C16
  4815   4818   4821   4824      9     0.00   0.41840   4 ;    C19-   C18-   C17-   C16
  4815   4818   4821   4824      9     0.00   0.41840   5 ;    C19-   C18-   C17-   C16
  4815   4818   4821   4824      9     0.00   1.25520   3 ;    C19-   C18-   C17-   C16
  4816   4815   4818   4819      9     0.00   0.62760   3 ;    H9R-   C19-   C18-   H8R
  4816   4815   4818   4820      9     0.00   0.62760   3 ;    H9R-   C19-   C18-   H8S
  4816   4815   4818   4821      9     0.00   0.66944   3 ;    H9R-   C19-   C18-   C17
  4817   4815   4818   4819      9     0.00   0.62760   3 ;    H9S-   C19-   C18-   H8R
  4817   4815   4818   4820      9     0.00   0.62760   3 ;    H9S-   C19-   C18-   H8S
  4817   4815   4818   4821      9     0.00   0.66944   3 ;    H9S-   C19-   C18-   C17
  4818   4821   4824   4825      9     0.00   0.66944   3 ;    C18-   C17-   C16-   H6R
  4818   4821   4824   4826      9     0.00   0.66944   3 ;    C18-   C17-   C16-   H6S
  4818   4821   4824   4827      9     0.00   0.41840   1 ;    C18-   C17-   C16-   C15
  4818   4821   4824   4827      9     0.00   0.41840   2 ;    C18-   C17-   C16-   C15
  4818   4821   4824   4827      9     0.00   0.41840   4 ;    C18-   C17-   C16-   C15
  4818   4821   4824   4827      9     0.00   0.41840   5 ;    C18-   C17-   C16-   C15
  4818   4821   4824   4827      9     0.00   1.25520   3 ;    C18-   C17-   C16-   C15
  4819   4818   4821   4822      9     0.00   0.62760   3 ;    H8R-   C18-   C17-   H7R
  4819   4818   4821   4823      9     0.00   0.62760   3 ;    H8R-   C18-   C17-   H7S
  4819   4818   4821   4824      9     0.00   0.66944   3 ;    H8R-   C18-   C17-   C16
  4820   4818   4821   4822      9     0.00   0.62760   3 ;    H8S-   C18-   C17-   H7R
  4820   4818   4821   4823      9     0.00   0.62760   3 ;    H8S-   C18-   C17-   H7S
  4820   4818   4821   4824      9     0.00   0.66944   3 ;    H8S-   C18-   C17-   C16
  4821   4824   4827   4828      9     0.00   0.66944   3 ;    C17-   C16-   C15-   H5R
  4821   4824   4827   4829      9     0.00   0.66944   3 ;    C17-   C16-   C15-   H5S
  4821   4824   4827   4830      9     0.00   0.41840   1 ;    C17-   C16-   C15-   C14
  4821   4824   4827   4830      9     0.00   0.41840   2 ;    C17-   C16-   C15-   C14
  4821   4824   4827   4830      9     0.00   0.41840   4 ;    C17-   C16-   C15-   C14
  4821   4824   4827   4830      9     0.00   0.41840   5 ;    C17-   C16-   C15-   C14
  4821   4824   4827   4830      9     0.00   1.25520   3 ;    C17-   C16-   C15-   C14
  4822   4821   4824   4825      9     0.00   0.62760   3 ;    H7R-   C17-   C16-   H6R
  4822   4821   4824   4826      9     0.00   0.62760   3 ;    H7R-   C17-   C16-   H6S
  4822   4821   4824   4827      9     0.00   0.66944   3 ;    H7R-   C17-   C16-   C15
  4823   4821   4824   4825      9     0.00   0.62760   3 ;    H7S-   C17-   C16-   H6R
  4823   4821   4824   4826      9     0.00   0.62760   3 ;    H7S-   C17-   C16-   H6S
  4823   4821   4824   4827      9     0.00   0.66944   3 ;    H7S-   C17-   C16-   C15
  4824   4827   4830   4831      9     0.00   0.66944   3 ;    C16-   C15-   C14-   H4R
  4824   4827   4830   4832      9     0.00   0.66944   3 ;    C16-   C15-   C14-   H4S
  4824   4827   4830   4833      9     0.00   0.41840   1 ;    C16-   C15-   C14-   C13
  4824   4827   4830   4833      9     0.00   0.41840   2 ;    C16-   C15-   C14-   C13
  4824   4827   4830   4833      9     0.00   0.41840   4 ;    C16-   C15-   C14-   C13
  4824   4827   4830   4833      9     0.00   0.41840   5 ;    C16-   C15-   C14-   C13
  4824   4827   4830   4833      9     0.00   1.25520   3 ;    C16-   C15-   C14-   C13
  4825   4824   4827   4828      9     0.00   0.62760   3 ;    H6R-   C16-   C15-   H5R
  4825   4824   4827   4829      9     0.00   0.62760   3 ;    H6R-   C16-   C15-   H5S
  4825   4824   4827   4830      9     0.00   0.66944   3 ;    H6R-   C16-   C15-   C14
  4826   4824   4827   4828      9     0.00   0.62760   3 ;    H6S-   C16-   C15-   H5R
  4826   4824   4827   4829      9     0.00   0.62760   3 ;    H6S-   C16-   C15-   H5S
  4826   4824   4827   4830      9     0.00   0.66944   3 ;    H6S-   C16-   C15-   C14
  4827   4830   4833   4834      9     0.00   0.66944   3 ;    C15-   C14-   C13-   H3R
  4827   4830   4833   4835      9     0.00   0.66944   3 ;    C15-   C14-   C13-   H3S
  4827   4830   4833   4836      9     0.00   0.41840   1 ;    C15-   C14-   C13-   C12
  4827   4830   4833   4836      9     0.00   0.41840   2 ;    C15-   C14-   C13-   C12
  4827   4830   4833   4836      9     0.00   0.41840   4 ;    C15-   C14-   C13-   C12
  4827   4830   4833   4836      9     0.00   0.41840   5 ;    C15-   C14-   C13-   C12
  4827   4830   4833   4836      9     0.00   1.25520   3 ;    C15-   C14-   C13-   C12
  4828   4827   4830   4831      9     0.00   0.62760   3 ;    H5R-   C15-   C14-   H4R
  4828   4827   4830   4832      9     0.00   0.62760   3 ;    H5R-   C15-   C14-   H4S
  4828   4827   4830   4833      9     0.00   0.66944   3 ;    H5R-   C15-   C14-   C13
  4829   4827   4830   4831      9     0.00   0.62760   3 ;    H5S-   C15-   C14-   H4R
  4829   4827   4830   4832      9     0.00   0.62760   3 ;    H5S-   C15-   C14-   H4S
  4829   4827   4830   4833      9     0.00   0.66944   3 ;    H5S-   C15-   C14-   C13
  4830   4833   4836   4837      9     0.00   0.66944   3 ;    C14-   C13-   C12-   H2R
  4830   4833   4836   4838      9     0.00   0.66944   3 ;    C14-   C13-   C12-   H2S
  4831   4830   4833   4834      9     0.00   0.62760   3 ;    H4R-   C14-   C13-   H3R
  4831   4830   4833   4835      9     0.00   0.62760   3 ;    H4R-   C14-   C13-   H3S
  4831   4830   4833   4836      9     0.00   0.66944   3 ;    H4R-   C14-   C13-   C12
  4832   4830   4833   4834      9     0.00   0.62760   3 ;    H4S-   C14-   C13-   H3R
  4832   4830   4833   4835      9     0.00   0.62760   3 ;    H4S-   C14-   C13-   H3S
  4832   4830   4833   4836      9     0.00   0.66944   3 ;    H4S-   C14-   C13-   C12
  4834   4833   4836   4837      9     0.00   0.62760   3 ;    H3R-   C13-   C12-   H2R
  4834   4833   4836   4838      9     0.00   0.62760   3 ;    H3R-   C13-   C12-   H2S
  4835   4833   4836   4837      9     0.00   0.62760   3 ;    H3S-   C13-   C12-   H2R
  4835   4833   4836   4838      9     0.00   0.62760   3 ;    H3S-   C13-   C12-   H2S
  4839   4840   4843   4844      9     0.00   0.62760   3 ;   H14T-  C114-  C113-  H13R
  4839   4840   4843   4845      9     0.00   0.62760   3 ;   H14T-  C114-  C113-  H13S
  4839   4840   4843   4846      9     0.00   0.66944   3 ;   H14T-  C114-  C113-  C112
  4840   4843   4846   4847      9     0.00   0.66944   3 ;   C114-  C113-  C112-  H12R
  4840   4843   4846   4848      9     0.00   0.66944   3 ;   C114-  C113-  C112-  H12S
  4840   4843   4846   4849      9     0.00   0.41840   1 ;   C114-  C113-  C112-  C111
  4840   4843   4846   4849      9     0.00   0.41840   2 ;   C114-  C113-  C112-  C111
  4840   4843   4846   4849      9     0.00   0.41840   4 ;   C114-  C113-  C112-  C111
  4840   4843   4846   4849      9     0.00   0.41840   5 ;   C114-  C113-  C112-  C111
  4840   4843   4846   4849      9     0.00   1.25520   3 ;   C114-  C113-  C112-  C111
  4841   4840   4843   4844      9     0.00   0.62760   3 ;   H14R-  C114-  C113-  H13R
  4841   4840   4843   4845      9     0.00   0.62760   3 ;   H14R-  C114-  C113-  H13S
  4841   4840   4843   4846      9     0.00   0.66944   3 ;   H14R-  C114-  C113-  C112
  4842   4840   4843   4844      9     0.00   0.62760   3 ;   H14S-  C114-  C113-  H13R
  4842   4840   4843   4845      9     0.00   0.62760   3 ;   H14S-  C114-  C113-  H13S
  4842   4840   4843   4846      9     0.00   0.66944   3 ;   H14S-  C114-  C113-  C112
  4843   4846   4849   4850      9     0.00   0.66944   3 ;   C113-  C112-  C111-  H11R
  4843   4846   4849   4851      9     0.00   0.66944   3 ;   C113-  C112-  C111-  H11S
  4843   4846   4849   4852      9     0.00   0.41840   1 ;   C113-  C112-  C111-  C110
  4843   4846   4849   4852      9     0.00   0.41840   2 ;   C113-  C112-  C111-  C110
  4843   4846   4849   4852      9     0.00   0.41840   4 ;   C113-  C112-  C111-  C110
  4843   4846   4849   4852      9     0.00   0.41840   5 ;   C113-  C112-  C111-  C110
  4843   4846   4849   4852      9     0.00   1.25520   3 ;   C113-  C112-  C111-  C110
  4844   4843   4846   4847      9     0.00   0.62760   3 ;   H13R-  C113-  C112-  H12R
  4844   4843   4846   4848      9     0.00   0.62760   3 ;   H13R-  C113-  C112-  H12S
  4844   4843   4846   4849      9     0.00   0.66944   3 ;   H13R-  C113-  C112-  C111
  4845   4843   4846   4847      9     0.00   0.62760   3 ;   H13S-  C113-  C112-  H12R
  4845   4843   4846   4848      9     0.00   0.62760   3 ;   H13S-  C113-  C112-  H12S
  4845   4843   4846   4849      9     0.00   0.66944   3 ;   H13S-  C113-  C112-  C111
  4846   4849   4852   4853      9     0.00   0.66944   3 ;   C112-  C111-  C110-  H10R
  4846   4849   4852   4854      9     0.00   0.66944   3 ;   C112-  C111-  C110-  H10S
  4846   4849   4852   4855      9     0.00   0.41840   1 ;   C112-  C111-  C110-   C19
  4846   4849   4852   4855      9     0.00   0.41840   2 ;   C112-  C111-  C110-   C19
  4846   4849   4852   4855      9     0.00   0.41840   4 ;   C112-  C111-  C110-   C19
  4846   4849   4852   4855      9     0.00   0.41840   5 ;   C112-  C111-  C110-   C19
  4846   4849   4852   4855      9     0.00   1.25520   3 ;   C112-  C111-  C110-   C19
  4847   4846   4849   4850      9     0.00   0.62760   3 ;   H12R-  C112-  C111-  H11R
  4847   4846   4849   4851      9     0.00   0.62760   3 ;   H12R-  C112-  C111-  H11S
  4847   4846   4849   4852      9     0.00   0.66944   3 ;   H12R-  C112-  C111-  C110
  4848   4846   4849   4850      9     0.00   0.62760   3 ;   H12S-  C112-  C111-  H11R
  4848   4846   4849   4851      9     0.00   0.62760   3 ;   H12S-  C112-  C111-  H11S
  4848   4846   4849   4852      9     0.00   0.66944   3 ;   H12S-  C112-  C111-  C110
  4849   4852   4855   4856      9     0.00   0.66944   3 ;   C111-  C110-   C19-   H9R
  4849   4852   4855   4857      9     0.00   0.66944   3 ;   C111-  C110-   C19-   H9S
  4849   4852   4855   4858      9     0.00   0.41840   1 ;   C111-  C110-   C19-   C18
  4849   4852   4855   4858      9     0.00   0.41840   2 ;   C111-  C110-   C19-   C18
  4849   4852   4855   4858      9     0.00   0.41840   4 ;   C111-  C110-   C19-   C18
  4849   4852   4855   4858      9     0.00   0.41840   5 ;   C111-  C110-   C19-   C18
  4849   4852   4855   4858      9     0.00   1.25520   3 ;   C111-  C110-   C19-   C18
  4850   4849   4852   4853      9     0.00   0.62760   3 ;   H11R-  C111-  C110-  H10R
  4850   4849   4852   4854      9     0.00   0.62760   3 ;   H11R-  C111-  C110-  H10S
  4850   4849   4852   4855      9     0.00   0.66944   3 ;   H11R-  C111-  C110-   C19
  4851   4849   4852   4853      9     0.00   0.62760   3 ;   H11S-  C111-  C110-  H10R
  4851   4849   4852   4854      9     0.00   0.62760   3 ;   H11S-  C111-  C110-  H10S
  4851   4849   4852   4855      9     0.00   0.66944   3 ;   H11S-  C111-  C110-   C19
  4852   4855   4858   4859      9     0.00   0.66944   3 ;   C110-   C19-   C18-   H8R
  4852   4855   4858   4860      9     0.00   0.66944   3 ;   C110-   C19-   C18-   H8S
  4852   4855   4858   4861      9     0.00   0.41840   1 ;   C110-   C19-   C18-   C17
  4852   4855   4858   4861      9     0.00   0.41840   2 ;   C110-   C19-   C18-   C17
  4852   4855   4858   4861      9     0.00   0.41840   4 ;   C110-   C19-   C18-   C17
  4852   4855   4858   4861      9     0.00   0.41840   5 ;   C110-   C19-   C18-   C17
  4852   4855   4858   4861      9     0.00   1.25520   3 ;   C110-   C19-   C18-   C17
  4853   4852   4855   4856      9     0.00   0.62760   3 ;   H10R-  C110-   C19-   H9R
  4853   4852   4855   4857      9     0.00   0.62760   3 ;   H10R-  C110-   C19-   H9S
  4853   4852   4855   4858      9     0.00   0.66944   3 ;   H10R-  C110-   C19-   C18
  4854   4852   4855   4856      9     0.00   0.62760   3 ;   H10S-  C110-   C19-   H9R
  4854   4852   4855   4857      9     0.00   0.62760   3 ;   H10S-  C110-   C19-   H9S
  4854   4852   4855   4858      9     0.00   0.66944   3 ;   H10S-  C110-   C19-   C18
  4855   4858   4861   4862      9     0.00   0.66944   3 ;    C19-   C18-   C17-   H7R
  4855   4858   4861   4863      9     0.00   0.66944   3 ;    C19-   C18-   C17-   H7S
  4855   4858   4861   4864      9     0.00   0.41840   1 ;    C19-   C18-   C17-   C16
  4855   4858   4861   4864      9     0.00   0.41840   2 ;    C19-   C18-   C17-   C16
  4855   4858   4861   4864      9     0.00   0.41840   4 ;    C19-   C18-   C17-   C16
  4855   4858   4861   4864      9     0.00   0.41840   5 ;    C19-   C18-   C17-   C16
  4855   4858   4861   4864      9     0.00   1.25520   3 ;    C19-   C18-   C17-   C16
  4856   4855   4858   4859      9     0.00   0.62760   3 ;    H9R-   C19-   C18-   H8R
  4856   4855   4858   4860      9     0.00   0.62760   3 ;    H9R-   C19-   C18-   H8S
  4856   4855   4858   4861      9     0.00   0.66944   3 ;    H9R-   C19-   C18-   C17
  4857   4855   4858   4859      9     0.00   0.62760   3 ;    H9S-   C19-   C18-   H8R
  4857   4855   4858   4860      9     0.00   0.62760   3 ;    H9S-   C19-   C18-   H8S
  4857   4855   4858   4861      9     0.00   0.66944   3 ;    H9S-   C19-   C18-   C17
  4858   4861   4864   4865      9     0.00   0.66944   3 ;    C18-   C17-   C16-   H6R
  4858   4861   4864   4866      9     0.00   0.66944   3 ;    C18-   C17-   C16-   H6S
  4858   4861   4864   4867      9     0.00   0.41840   1 ;    C18-   C17-   C16-   C15
  4858   4861   4864   4867      9     0.00   0.41840   2 ;    C18-   C17-   C16-   C15
  4858   4861   4864   4867      9     0.00   0.41840   4 ;    C18-   C17-   C16-   C15
  4858   4861   4864   4867      9     0.00   0.41840   5 ;    C18-   C17-   C16-   C15
  4858   4861   4864   4867      9     0.00   1.25520   3 ;    C18-   C17-   C16-   C15
  4859   4858   4861   4862      9     0.00   0.62760   3 ;    H8R-   C18-   C17-   H7R
  4859   4858   4861   4863      9     0.00   0.62760   3 ;    H8R-   C18-   C17-   H7S
  4859   4858   4861   4864      9     0.00   0.66944   3 ;    H8R-   C18-   C17-   C16
  4860   4858   4861   4862      9     0.00   0.62760   3 ;    H8S-   C18-   C17-   H7R
  4860   4858   4861   4863      9     0.00   0.62760   3 ;    H8S-   C18-   C17-   H7S
  4860   4858   4861   4864      9     0.00   0.66944   3 ;    H8S-   C18-   C17-   C16
  4861   4864   4867   4868      9     0.00   0.66944   3 ;    C17-   C16-   C15-   H5R
  4861   4864   4867   4869      9     0.00   0.66944   3 ;    C17-   C16-   C15-   H5S
  4861   4864   4867   4870      9     0.00   0.41840   1 ;    C17-   C16-   C15-   C14
  4861   4864   4867   4870      9     0.00   0.41840   2 ;    C17-   C16-   C15-   C14
  4861   4864   4867   4870      9     0.00   0.41840   4 ;    C17-   C16-   C15-   C14
  4861   4864   4867   4870      9     0.00   0.41840   5 ;    C17-   C16-   C15-   C14
  4861   4864   4867   4870      9     0.00   1.25520   3 ;    C17-   C16-   C15-   C14
  4862   4861   4864   4865      9     0.00   0.62760   3 ;    H7R-   C17-   C16-   H6R
  4862   4861   4864   4866      9     0.00   0.62760   3 ;    H7R-   C17-   C16-   H6S
  4862   4861   4864   4867      9     0.00   0.66944   3 ;    H7R-   C17-   C16-   C15
  4863   4861   4864   4865      9     0.00   0.62760   3 ;    H7S-   C17-   C16-   H6R
  4863   4861   4864   4866      9     0.00   0.62760   3 ;    H7S-   C17-   C16-   H6S
  4863   4861   4864   4867      9     0.00   0.66944   3 ;    H7S-   C17-   C16-   C15
  4864   4867   4870   4871      9     0.00   0.66944   3 ;    C16-   C15-   C14-   H4R
  4864   4867   4870   4872      9     0.00   0.66944   3 ;    C16-   C15-   C14-   H4S
  4864   4867   4870   4873      9     0.00   0.41840   1 ;    C16-   C15-   C14-   C13
  4864   4867   4870   4873      9     0.00   0.41840   2 ;    C16-   C15-   C14-   C13
  4864   4867   4870   4873      9     0.00   0.41840   4 ;    C16-   C15-   C14-   C13
  4864   4867   4870   4873      9     0.00   0.41840   5 ;    C16-   C15-   C14-   C13
  4864   4867   4870   4873      9     0.00   1.25520   3 ;    C16-   C15-   C14-   C13
  4865   4864   4867   4868      9     0.00   0.62760   3 ;    H6R-   C16-   C15-   H5R
  4865   4864   4867   4869      9     0.00   0.62760   3 ;    H6R-   C16-   C15-   H5S
  4865   4864   4867   4870      9     0.00   0.66944   3 ;    H6R-   C16-   C15-   C14
  4866   4864   4867   4868      9     0.00   0.62760   3 ;    H6S-   C16-   C15-   H5R
  4866   4864   4867   4869      9     0.00   0.62760   3 ;    H6S-   C16-   C15-   H5S
  4866   4864   4867   4870      9     0.00   0.66944   3 ;    H6S-   C16-   C15-   C14
  4867   4870   4873   4874      9     0.00   0.66944   3 ;    C15-   C14-   C13-   H3R
  4867   4870   4873   4875      9     0.00   0.66944   3 ;    C15-   C14-   C13-   H3S
  4867   4870   4873   4876      9     0.00   0.41840   1 ;    C15-   C14-   C13-   C12
  4867   4870   4873   4876      9     0.00   0.41840   2 ;    C15-   C14-   C13-   C12
  4867   4870   4873   4876      9     0.00   0.41840   4 ;    C15-   C14-   C13-   C12
  4867   4870   4873   4876      9     0.00   0.41840   5 ;    C15-   C14-   C13-   C12
  4867   4870   4873   4876      9     0.00   1.25520   3 ;    C15-   C14-   C13-   C12
  4868   4867   4870   4871      9     0.00   0.62760   3 ;    H5R-   C15-   C14-   H4R
  4868   4867   4870   4872      9     0.00   0.62760   3 ;    H5R-   C15-   C14-   H4S
  4868   4867   4870   4873      9     0.00   0.66944   3 ;    H5R-   C15-   C14-   C13
  4869   4867   4870   4871      9     0.00   0.62760   3 ;    H5S-   C15-   C14-   H4R
  4869   4867   4870   4872      9     0.00   0.62760   3 ;    H5S-   C15-   C14-   H4S
  4869   4867   4870   4873      9     0.00   0.66944   3 ;    H5S-   C15-   C14-   C13
  4870   4873   4876   4877      9     0.00   0.66944   3 ;    C14-   C13-   C12-   H2R
  4870   4873   4876   4878      9     0.00   0.66944   3 ;    C14-   C13-   C12-   H2S
  4870   4873   4876   4879      9     0.00   0.65270   3 ;    C14-   C13-   C12-   C11
  4871   4870   4873   4874      9     0.00   0.62760   3 ;    H4R-   C14-   C13-   H3R
  4871   4870   4873   4875      9     0.00   0.62760   3 ;    H4R-   C14-   C13-   H3S
  4871   4870   4873   4876      9     0.00   0.66944   3 ;    H4R-   C14-   C13-   C12
  4872   4870   4873   4874      9     0.00   0.62760   3 ;    H4S-   C14-   C13-   H3R
  4872   4870   4873   4875      9     0.00   0.62760   3 ;    H4S-   C14-   C13-   H3S
  4872   4870   4873   4876      9     0.00   0.66944   3 ;    H4S-   C14-   C13-   C12
  4873   4876   4879   4880      9   180.00   0.00000   2 ;    C13-   C12-   C11-   O12
  4873   4876   4879   4881      9   180.00   0.00000   2 ;    C13-   C12-   C11-   O11
  4874   4873   4876   4877      9     0.00   0.62760   3 ;    H3R-   C13-   C12-   H2R
  4874   4873   4876   4878      9     0.00   0.62760   3 ;    H3R-   C13-   C12-   H2S
  4874   4873   4876   4879      9     0.00   0.65270   3 ;    H3R-   C13-   C12-   C11
  4875   4873   4876   4877      9     0.00   0.62760   3 ;    H3S-   C13-   C12-   H2R
  4875   4873   4876   4878      9     0.00   0.62760   3 ;    H3S-   C13-   C12-   H2S
  4875   4873   4876   4879      9     0.00   0.65270   3 ;    H3S-   C13-   C12-   C11
  4876   4879   4881   4882      9   180.00  11.29680   2 ;    C12-   C11-   O11-    C1
  4877   4876   4879   4880      9     0.00   3.34720   1 ;    H2R-   C12-   C11-   O12
  4877   4876   4879   4880      9   180.00   0.33472   3 ;    H2R-   C12-   C11-   O12
  4877   4876   4879   4881      9   180.00   0.00000   2 ;    H2R-   C12-   C11-   O11
  4878   4876   4879   4880      9     0.00   3.34720   1 ;    H2S-   C12-   C11-   O12
  4878   4876   4879   4880      9   180.00   0.33472   3 ;    H2S-   C12-   C11-   O12
  4878   4876   4879   4881      9   180.00   0.00000   2 ;    H2S-   C12-   C11-   O11
  4879   4881   4882   4883      9     0.00   1.60247   3 ;    C11-   O11-    C1-    HR
  4879   4881   4882   4884      9     0.00   1.60247   3 ;    C11-   O11-    C1-    HS
  4879   4881   4882   4885      9     0.00  -0.41840   1 ;    C11-   O11-    C1-    C2
  4880   4879   4881   4882      9   180.00   5.85760   1 ;    O12-   C11-   O11-    C1
  4880   4879   4881   4882      9   180.00  11.29680   2 ;    O12-   C11-   O11-    C1
  4881   4882   4885   4886      9     0.00   0.00000   0 ;    O11-    C1-    C2-    HX
  4881   4882   4885   4886      9     0.00   1.04600   1 ;    O11-    C1-    C2-    HX
  4881   4882   4885   4887      9     0.00   0.00000   0 ;    O11-    C1-    C2-    C3
  4881   4882   4885   4887      9     0.00   0.00000   0 ;    O11-    C1-    C2-    C3
  4881   4882   4885   4887      9     0.00   0.00000   0 ;    O11-    C1-    C2-    C3
  4881   4882   4885   4887      9     0.00   0.00000   0 ;    O11-    C1-    C2-    C3
  4881   4882   4885   4887      9     0.00   0.00000   0 ;    O11-    C1-    C2-    C3
  4881   4882   4885   4914      9     0.00   1.25520   2 ;    O11-    C1-    C2-   O21
  4881   4882   4885   4914      9     0.00   4.18400   3 ;    O11-    C1-    C2-   O21
  4881   4882   4885   4914      9   180.00  -0.41840   1 ;    O11-    C1-    C2-   O21
  4882   4885   4887   4888      9     0.00   0.65270   3 ;     C1-    C2-    C3-    HA
  4882   4885   4887   4889      9     0.00   0.65270   3 ;     C1-    C2-    C3-    HB
  4882   4885   4887   4890      9   180.00   3.34720   1 ;     C1-    C2-    C3-   O31
  4882   4885   4914   4915      9     0.00  -0.41840   1 ;     C1-    C2-   O21-   C21
  4883   4882   4885   4886      9     0.00   0.65270   3 ;     HR-    C1-    C2-    HX
  4883   4882   4885   4887      9     0.00   0.65270   3 ;     HR-    C1-    C2-    C3
  4883   4882   4885   4914      9     0.00   0.00000   0 ;     HR-    C1-    C2-   O21
  4883   4882   4885   4914      9     0.00   1.04600   1 ;     HR-    C1-    C2-   O21
  4884   4882   4885   4886      9     0.00   0.65270   3 ;     HS-    C1-    C2-    HX
  4884   4882   4885   4887      9     0.00   0.65270   3 ;     HS-    C1-    C2-    C3
  4884   4882   4885   4914      9     0.00   0.00000   0 ;     HS-    C1-    C2-   O21
  4884   4882   4885   4914      9     0.00   1.04600   1 ;     HS-    C1-    C2-   O21
  4885   4887   4890   4891      9     0.00   0.00000   0 ;     C2-    C3-   O31-   P31
  4885   4887   4890   4891      9   180.00  -3.34720   2 ;     C2-    C3-   O31-   P31
  4885   4914   4915   4916      9   180.00   5.85760   1 ;     C2-   O21-   C21-   O22
  4885   4914   4915   4916      9   180.00  11.29680   2 ;     C2-   O21-   C21-   O22
  4885   4914   4915   4954      9   180.00  11.29680   2 ;     C2-   O21-   C21-   C12
  4886   4885   4887   4888      9     0.00   0.65270   3 ;     HX-    C2-    C3-    HA
  4886   4885   4887   4889      9     0.00   0.65270   3 ;     HX-    C2-    C3-    HB
  4886   4885   4887   4890      9     0.00   0.00000   0 ;     HX-    C2-    C3-   O31
  4886   4885   4887   4890      9     0.00   1.04600   1 ;     HX-    C2-    C3-   O31
  4886   4885   4914   4915      9     0.00   1.60247   3 ;     HX-    C2-   O21-   C21
  4887   4885   4914   4915      9     0.00  -0.41840   1 ;     C3-    C2-   O21-   C21
  4887   4890   4891   4892      9     0.00   2.51040   3 ;     C3-   O31-   P31-   O32
  4887   4890   4891   4892      9     0.00   9.62320   2 ;     C3-   O31-   P31-   O32
  4887   4890   4891   4912      9     0.00   0.00000   0 ;     C3-   O31-   P31-   O33
  4887   4890   4891   4912      9     0.00   0.00000   0 ;     C3-   O31-   P31-   O33
  4887   4890   4891   4912      9     0.00   0.00000   0 ;     C3-   O31-   P31-   O33
  4887   4890   4891   4912      9     0.00   0.00000   0 ;     C3-   O31-   P31-   O33
  4887   4890   4891   4912      9     0.00   0.83680   2 ;     C3-   O31-   P31-   O33
  4887   4890   4891   4913      9     0.00   0.00000   0 ;     C3-   O31-   P31-   O34
  4887   4890   4891   4913      9     0.00   0.00000   0 ;     C3-   O31-   P31-   O34
  4887   4890   4891   4913      9     0.00   0.00000   0 ;     C3-   O31-   P31-   O34
  4887   4890   4891   4913      9     0.00   0.00000   0 ;     C3-   O31-   P31-   O34
  4887   4890   4891   4913      9     0.00   0.83680   2 ;     C3-   O31-   P31-   O34
  4888   4887   4885   4914      9     0.00   0.00000   0 ;     HA-    C3-    C2-   O21
  4888   4887   4885   4914      9     0.00   1.04600   1 ;     HA-    C3-    C2-   O21
  4888   4887   4890   4891      9     0.00   0.00000   0 ;     HA-    C3-   O31-   P31
  4888   4887   4890   4891      9     0.00   0.00000   0 ;     HA-    C3-   O31-   P31
  4888   4887   4890   4891      9     0.00   0.00000   0 ;     HA-    C3-   O31-   P31
  4888   4887   4890   4891      9     0.00   0.00000   0 ;     HA-    C3-   O31-   P31
  4888   4887   4890   4891      9     0.00   1.60247   3 ;     HA-    C3-   O31-   P31
  4889   4887   4885   4914      9     0.00   0.00000   0 ;     HB-    C3-    C2-   O21
  4889   4887   4885   4914      9     0.00   1.04600   1 ;     HB-    C3-    C2-   O21
  4889   4887   4890   4891      9     0.00   0.00000   0 ;     HB-    C3-   O31-   P31
  4889   4887   4890   4891      9     0.00   0.00000   0 ;     HB-    C3-   O31-   P31
  4889   4887   4890   4891      9     0.00   0.00000   0 ;     HB-    C3-   O31-   P31
  4889   4887   4890   4891      9     0.00   0.00000   0 ;     HB-    C3-   O31-   P31
  4889   4887   4890   4891      9     0.00   1.60247   3 ;     HB-    C3-   O31-   P31
  4890   4887   4885   4914      9     0.00   0.00000   0 ;    O31-    C3-    C2-   O21
  4890   4887   4885   4914      9     0.00   0.00000   0 ;    O31-    C3-    C2-   O21
  4890   4887   4885   4914      9     0.00   0.00000   0 ;    O31-    C3-    C2-   O21
  4890   4887   4885   4914      9     0.00   0.00000   0 ;    O31-    C3-    C2-   O21
  4890   4887   4885   4914      9     0.00   0.00000   0 ;    O31-    C3-    C2-   O21
  4890   4891   4892   4893      9     0.00   2.51040   3 ;    O31-   P31-   O32-   C31
  4890   4891   4892   4893      9     0.00   9.62320   2 ;    O31-   P31-   O32-   C31
  4891   4892   4893   4894      9     0.00   0.00000   0 ;    P31-   O32-   C31-   H1A
  4891   4892   4893   4894      9     0.00   0.00000   0 ;    P31-   O32-   C31-   H1A
  4891   4892   4893   4894      9     0.00   0.00000   0 ;    P31-   O32-   C31-   H1A
  4891   4892   4893   4894      9     0.00   0.00000   0 ;    P31-   O32-   C31-   H1A
  4891   4892   4893   4894      9     0.00   1.60247   3 ;    P31-   O32-   C31-   H1A
  4891   4892   4893   4895      9     0.00   0.00000   0 ;    P31-   O32-   C31-   H1B
  4891   4892   4893   4895      9     0.00   0.00000   0 ;    P31-   O32-   C31-   H1B
  4891   4892   4893   4895      9     0.00   0.00000   0 ;    P31-   O32-   C31-   H1B
  4891   4892   4893   4895      9     0.00   0.00000   0 ;    P31-   O32-   C31-   H1B
  4891   4892   4893   4895      9     0.00   1.60247   3 ;    P31-   O32-   C31-   H1B
  4891   4892   4893   4896      9     0.00   0.00000   0 ;    P31-   O32-   C31-   C32
  4891   4892   4893   4896      9   180.00  -3.34720   2 ;    P31-   O32-   C31-   C32
  4892   4893   4896   4897      9     0.00   0.65270   3 ;    O32-   C31-   C32-   H2A
  4892   4893   4896   4898      9     0.00   0.65270   3 ;    O32-   C31-   C32-   H2B
  4892   4893   4896   4899      9     0.00   4.18400   3 ;    O32-   C31-   C32-   N31
  4893   4892   4891   4912      9     0.00   0.00000   0 ;    C31-   O32-   P31-   O33
  4893   4892   4891   4912      9     0.00   0.00000   0 ;    C31-   O32-   P31-   O33
  4893   4892   4891   4912      9     0.00   0.00000   0 ;    C31-   O32-   P31-   O33
  4893   4892   4891   4912      9     0.00   0.00000   0 ;    C31-   O32-   P31-   O33
  4893   4892   4891   4912      9     0.00   0.83680   2 ;    C31-   O32-   P31-   O33
  4893   4892   4891   4913      9     0.00   0.00000   0 ;    C31-   O32-   P31-   O34
  4893   4892   4891   4913      9     0.00   0.00000   0 ;    C31-   O32-   P31-   O34
  4893   4892   4891   4913      9     0.00   0.00000   0 ;    C31-   O32-   P31-   O34
  4893   4892   4891   4913      9     0.00   0.00000   0 ;    C31-   O32-   P31-   O34
  4893   4892   4891   4913      9     0.00   0.83680   2 ;    C31-   O32-   P31-   O34
  4893   4896   4899   4900      9     0.00   0.65270   3 ;    C31-   C32-   N31-   C33
  4893   4896   4899   4904      9     0.00   0.65270   3 ;    C31-   C32-   N31-   C34
  4893   4896   4899   4908      9     0.00   0.65270   3 ;    C31-   C32-   N31-   C35
  4894   4893   4896   4897      9     0.00   0.65270   3 ;    H1A-   C31-   C32-   H2A
  4894   4893   4896   4898      9     0.00   0.65270   3 ;    H1A-   C31-   C32-   H2B
  4894   4893   4896   4899      9     0.00   0.65270   3 ;    H1A-   C31-   C32-   N31
  4895   4893   4896   4897      9     0.00   0.65270   3 ;    H1B-   C31-   C32-   H2A
  4895   4893   4896   4898      9     0.00   0.65270   3 ;    H1B-   C31-   C32-   H2B
  4895   4893   4896   4899      9     0.00   0.65270   3 ;    H1B-   C31-   C32-   N31
  4896   4899   4900   4901      9     0.00   0.65270   3 ;    C32-   N31-   C33-   H3A
  4896   4899   4900   4902      9     0.00   0.65270   3 ;    C32-   N31-   C33-   H3B
  4896   4899   4900   4903      9     0.00   0.65270   3 ;    C32-   N31-   C33-   H3C
  4896   4899   4904   4905      9     0.00   0.65270   3 ;    C32-   N31-   C34-   H4A
  4896   4899   4904   4906      9     0.00   0.65270   3 ;    C32-   N31-   C34-   H4B
  4896   4899   4904   4907      9     0.00   0.65270   3 ;    C32-   N31-   C34-   H4C
  4896   4899   4908   4909      9     0.00   0.65270   3 ;    C32-   N31-   C35-   H5A
  4896   4899   4908   4910      9     0.00   0.65270   3 ;    C32-   N31-   C35-   H5B
  4896   4899   4908   4911      9     0.00   0.65270   3 ;    C32-   N31-   C35-   H5C
  4897   4896   4899   4900      9     0.00   0.65270   3 ;    H2A-   C32-   N31-   C33
  4897   4896   4899   4904      9     0.00   0.65270   3 ;    H2A-   C32-   N31-   C34
  4897   4896   4899   4908      9     0.00   0.65270   3 ;    H2A-   C32-   N31-   C35
  4898   4896   4899   4900      9     0.00   0.65270   3 ;    H2B-   C32-   N31-   C33
  4898   4896   4899   4904      9     0.00   0.65270   3 ;    H2B-   C32-   N31-   C34
  4898   4896   4899   4908      9     0.00   0.65270   3 ;    H2B-   C32-   N31-   C35
  4900   4899   4904   4905      9     0.00   0.65270   3 ;    C33-   N31-   C34-   H4A
  4900   4899   4904   4906      9     0.00   0.65270   3 ;    C33-   N31-   C34-   H4B
  4900   4899   4904   4907      9     0.00   0.65270   3 ;    C33-   N31-   C34-   H4C
  4900   4899   4908   4909      9     0.00   0.65270   3 ;    C33-   N31-   C35-   H5A
  4900   4899   4908   4910      9     0.00   0.65270   3 ;    C33-   N31-   C35-   H5B
  4900   4899   4908   4911      9     0.00   0.65270   3 ;    C33-   N31-   C35-   H5C
  4901   4900   4899   4904      9     0.00   0.65270   3 ;    H3A-   C33-   N31-   C34
  4901   4900   4899   4908      9     0.00   0.65270   3 ;    H3A-   C33-   N31-   C35
  4902   4900   4899   4904      9     0.00   0.65270   3 ;    H3B-   C33-   N31-   C34
  4902   4900   4899   4908      9     0.00   0.65270   3 ;    H3B-   C33-   N31-   C35
  4903   4900   4899   4904      9     0.00   0.65270   3 ;    H3C-   C33-   N31-   C34
  4903   4900   4899   4908      9     0.00   0.65270   3 ;    H3C-   C33-   N31-   C35
  4904   4899   4908   4909      9     0.00   0.65270   3 ;    C34-   N31-   C35-   H5A
  4904   4899   4908   4910      9     0.00   0.65270   3 ;    C34-   N31-   C35-   H5B
  4904   4899   4908   4911      9     0.00   0.65270   3 ;    C34-   N31-   C35-   H5C
  4905   4904   4899   4908      9     0.00   0.65270   3 ;    H4A-   C34-   N31-   C35
  4906   4904   4899   4908      9     0.00   0.65270   3 ;    H4B-   C34-   N31-   C35
  4907   4904   4899   4908      9     0.00   0.65270   3 ;    H4C-   C34-   N31-   C35
  4914   4915   4954   4951      9   180.00   0.00000   2 ;    O21-   C21-   C12-   C13
  4914   4915   4954   4955      9   180.00   0.00000   2 ;    O21-   C21-   C12-   H2R
  4914   4915   4954   4956      9   180.00   0.00000   2 ;    O21-   C21-   C12-   H2S
  4915   4954   4951   4948      9     0.00   0.65270   3 ;    C21-   C12-   C13-   C14
  4915   4954   4951   4952      9     0.00   0.65270   3 ;    C21-   C12-   C13-   H3R
  4915   4954   4951   4953      9     0.00   0.65270   3 ;    C21-   C12-   C13-   H3S
  4916   4915   4954   4951      9   180.00   0.00000   2 ;    O22-   C21-   C12-   C13
  4916   4915   4954   4955      9     0.00   3.34720   1 ;    O22-   C21-   C12-   H2R
  4916   4915   4954   4955      9   180.00   0.33472   3 ;    O22-   C21-   C12-   H2R
  4916   4915   4954   4956      9     0.00   3.34720   1 ;    O22-   C21-   C12-   H2S
  4916   4915   4954   4956      9   180.00   0.33472   3 ;    O22-   C21-   C12-   H2S
  4917   4918   4921   4922      9     0.00   0.62760   3 ;   H14T-  C114-  C113-  H13R
  4917   4918   4921   4923      9     0.00   0.62760   3 ;   H14T-  C114-  C113-  H13S
  4917   4918   4921   4924      9     0.00   0.66944   3 ;   H14T-  C114-  C113-  C112
  4918   4921   4924   4925      9     0.00   0.66944   3 ;   C114-  C113-  C112-  H12R
  4918   4921   4924   4926      9     0.00   0.66944   3 ;   C114-  C113-  C112-  H12S
  4918   4921   4924   4927      9     0.00   0.41840   1 ;   C114-  C113-  C112-  C111
  4918   4921   4924   4927      9     0.00   0.41840   2 ;   C114-  C113-  C112-  C111
  4918   4921   4924   4927      9     0.00   0.41840   4 ;   C114-  C113-  C112-  C111
  4918   4921   4924   4927      9     0.00   0.41840   5 ;   C114-  C113-  C112-  C111
  4918   4921   4924   4927      9     0.00   1.25520   3 ;   C114-  C113-  C112-  C111
  4919   4918   4921   4922      9     0.00   0.62760   3 ;   H14R-  C114-  C113-  H13R
  4919   4918   4921   4923      9     0.00   0.62760   3 ;   H14R-  C114-  C113-  H13S
  4919   4918   4921   4924      9     0.00   0.66944   3 ;   H14R-  C114-  C113-  C112
  4920   4918   4921   4922      9     0.00   0.62760   3 ;   H14S-  C114-  C113-  H13R
  4920   4918   4921   4923      9     0.00   0.62760   3 ;   H14S-  C114-  C113-  H13S
  4920   4918   4921   4924      9     0.00   0.66944   3 ;   H14S-  C114-  C113-  C112
  4921   4924   4927   4928      9     0.00   0.66944   3 ;   C113-  C112-  C111-  H11R
  4921   4924   4927   4929      9     0.00   0.66944   3 ;   C113-  C112-  C111-  H11S
  4921   4924   4927   4930      9     0.00   0.41840   1 ;   C113-  C112-  C111-  C110
  4921   4924   4927   4930      9     0.00   0.41840   2 ;   C113-  C112-  C111-  C110
  4921   4924   4927   4930      9     0.00   0.41840   4 ;   C113-  C112-  C111-  C110
  4921   4924   4927   4930      9     0.00   0.41840   5 ;   C113-  C112-  C111-  C110
  4921   4924   4927   4930      9     0.00   1.25520   3 ;   C113-  C112-  C111-  C110
  4922   4921   4924   4925      9     0.00   0.62760   3 ;   H13R-  C113-  C112-  H12R
  4922   4921   4924   4926      9     0.00   0.62760   3 ;   H13R-  C113-  C112-  H12S
  4922   4921   4924   4927      9     0.00   0.66944   3 ;   H13R-  C113-  C112-  C111
  4923   4921   4924   4925      9     0.00   0.62760   3 ;   H13S-  C113-  C112-  H12R
  4923   4921   4924   4926      9     0.00   0.62760   3 ;   H13S-  C113-  C112-  H12S
  4923   4921   4924   4927      9     0.00   0.66944   3 ;   H13S-  C113-  C112-  C111
  4924   4927   4930   4931      9     0.00   0.66944   3 ;   C112-  C111-  C110-  H10R
  4924   4927   4930   4932      9     0.00   0.66944   3 ;   C112-  C111-  C110-  H10S
  4924   4927   4930   4933      9     0.00   0.41840   1 ;   C112-  C111-  C110-   C19
  4924   4927   4930   4933      9     0.00   0.41840   2 ;   C112-  C111-  C110-   C19
  4924   4927   4930   4933      9     0.00   0.41840   4 ;   C112-  C111-  C110-   C19
  4924   4927   4930   4933      9     0.00   0.41840   5 ;   C112-  C111-  C110-   C19
  4924   4927   4930   4933      9     0.00   1.25520   3 ;   C112-  C111-  C110-   C19
  4925   4924   4927   4928      9     0.00   0.62760   3 ;   H12R-  C112-  C111-  H11R
  4925   4924   4927   4929      9     0.00   0.62760   3 ;   H12R-  C112-  C111-  H11S
  4925   4924   4927   4930      9     0.00   0.66944   3 ;   H12R-  C112-  C111-  C110
  4926   4924   4927   4928      9     0.00   0.62760   3 ;   H12S-  C112-  C111-  H11R
  4926   4924   4927   4929      9     0.00   0.62760   3 ;   H12S-  C112-  C111-  H11S
  4926   4924   4927   4930      9     0.00   0.66944   3 ;   H12S-  C112-  C111-  C110
  4927   4930   4933   4934      9     0.00   0.66944   3 ;   C111-  C110-   C19-   H9R
  4927   4930   4933   4935      9     0.00   0.66944   3 ;   C111-  C110-   C19-   H9S
  4927   4930   4933   4936      9     0.00   0.41840   1 ;   C111-  C110-   C19-   C18
  4927   4930   4933   4936      9     0.00   0.41840   2 ;   C111-  C110-   C19-   C18
  4927   4930   4933   4936      9     0.00   0.41840   4 ;   C111-  C110-   C19-   C18
  4927   4930   4933   4936      9     0.00   0.41840   5 ;   C111-  C110-   C19-   C18
  4927   4930   4933   4936      9     0.00   1.25520   3 ;   C111-  C110-   C19-   C18
  4928   4927   4930   4931      9     0.00   0.62760   3 ;   H11R-  C111-  C110-  H10R
  4928   4927   4930   4932      9     0.00   0.62760   3 ;   H11R-  C111-  C110-  H10S
  4928   4927   4930   4933      9     0.00   0.66944   3 ;   H11R-  C111-  C110-   C19
  4929   4927   4930   4931      9     0.00   0.62760   3 ;   H11S-  C111-  C110-  H10R
  4929   4927   4930   4932      9     0.00   0.62760   3 ;   H11S-  C111-  C110-  H10S
  4929   4927   4930   4933      9     0.00   0.66944   3 ;   H11S-  C111-  C110-   C19
  4930   4933   4936   4937      9     0.00   0.66944   3 ;   C110-   C19-   C18-   H8R
  4930   4933   4936   4938      9     0.00   0.66944   3 ;   C110-   C19-   C18-   H8S
  4930   4933   4936   4939      9     0.00   0.41840   1 ;   C110-   C19-   C18-   C17
  4930   4933   4936   4939      9     0.00   0.41840   2 ;   C110-   C19-   C18-   C17
  4930   4933   4936   4939      9     0.00   0.41840   4 ;   C110-   C19-   C18-   C17
  4930   4933   4936   4939      9     0.00   0.41840   5 ;   C110-   C19-   C18-   C17
  4930   4933   4936   4939      9     0.00   1.25520   3 ;   C110-   C19-   C18-   C17
  4931   4930   4933   4934      9     0.00   0.62760   3 ;   H10R-  C110-   C19-   H9R
  4931   4930   4933   4935      9     0.00   0.62760   3 ;   H10R-  C110-   C19-   H9S
  4931   4930   4933   4936      9     0.00   0.66944   3 ;   H10R-  C110-   C19-   C18
  4932   4930   4933   4934      9     0.00   0.62760   3 ;   H10S-  C110-   C19-   H9R
  4932   4930   4933   4935      9     0.00   0.62760   3 ;   H10S-  C110-   C19-   H9S
  4932   4930   4933   4936      9     0.00   0.66944   3 ;   H10S-  C110-   C19-   C18
  4933   4936   4939   4940      9     0.00   0.66944   3 ;    C19-   C18-   C17-   H7R
  4933   4936   4939   4941      9     0.00   0.66944   3 ;    C19-   C18-   C17-   H7S
  4933   4936   4939   4942      9     0.00   0.41840   1 ;    C19-   C18-   C17-   C16
  4933   4936   4939   4942      9     0.00   0.41840   2 ;    C19-   C18-   C17-   C16
  4933   4936   4939   4942      9     0.00   0.41840   4 ;    C19-   C18-   C17-   C16
  4933   4936   4939   4942      9     0.00   0.41840   5 ;    C19-   C18-   C17-   C16
  4933   4936   4939   4942      9     0.00   1.25520   3 ;    C19-   C18-   C17-   C16
  4934   4933   4936   4937      9     0.00   0.62760   3 ;    H9R-   C19-   C18-   H8R
  4934   4933   4936   4938      9     0.00   0.62760   3 ;    H9R-   C19-   C18-   H8S
  4934   4933   4936   4939      9     0.00   0.66944   3 ;    H9R-   C19-   C18-   C17
  4935   4933   4936   4937      9     0.00   0.62760   3 ;    H9S-   C19-   C18-   H8R
  4935   4933   4936   4938      9     0.00   0.62760   3 ;    H9S-   C19-   C18-   H8S
  4935   4933   4936   4939      9     0.00   0.66944   3 ;    H9S-   C19-   C18-   C17
  4936   4939   4942   4943      9     0.00   0.66944   3 ;    C18-   C17-   C16-   H6R
  4936   4939   4942   4944      9     0.00   0.66944   3 ;    C18-   C17-   C16-   H6S
  4936   4939   4942   4945      9     0.00   0.41840   1 ;    C18-   C17-   C16-   C15
  4936   4939   4942   4945      9     0.00   0.41840   2 ;    C18-   C17-   C16-   C15
  4936   4939   4942   4945      9     0.00   0.41840   4 ;    C18-   C17-   C16-   C15
  4936   4939   4942   4945      9     0.00   0.41840   5 ;    C18-   C17-   C16-   C15
  4936   4939   4942   4945      9     0.00   1.25520   3 ;    C18-   C17-   C16-   C15
  4937   4936   4939   4940      9     0.00   0.62760   3 ;    H8R-   C18-   C17-   H7R
  4937   4936   4939   4941      9     0.00   0.62760   3 ;    H8R-   C18-   C17-   H7S
  4937   4936   4939   4942      9     0.00   0.66944   3 ;    H8R-   C18-   C17-   C16
  4938   4936   4939   4940      9     0.00   0.62760   3 ;    H8S-   C18-   C17-   H7R
  4938   4936   4939   4941      9     0.00   0.62760   3 ;    H8S-   C18-   C17-   H7S
  4938   4936   4939   4942      9     0.00   0.66944   3 ;    H8S-   C18-   C17-   C16
  4939   4942   4945   4946      9     0.00   0.66944   3 ;    C17-   C16-   C15-   H5R
  4939   4942   4945   4947      9     0.00   0.66944   3 ;    C17-   C16-   C15-   H5S
  4939   4942   4945   4948      9     0.00   0.41840   1 ;    C17-   C16-   C15-   C14
  4939   4942   4945   4948      9     0.00   0.41840   2 ;    C17-   C16-   C15-   C14
  4939   4942   4945   4948      9     0.00   0.41840   4 ;    C17-   C16-   C15-   C14
  4939   4942   4945   4948      9     0.00   0.41840   5 ;    C17-   C16-   C15-   C14
  4939   4942   4945   4948      9     0.00   1.25520   3 ;    C17-   C16-   C15-   C14
  4940   4939   4942   4943      9     0.00   0.62760   3 ;    H7R-   C17-   C16-   H6R
  4940   4939   4942   4944      9     0.00   0.62760   3 ;    H7R-   C17-   C16-   H6S
  4940   4939   4942   4945      9     0.00   0.66944   3 ;    H7R-   C17-   C16-   C15
  4941   4939   4942   4943      9     0.00   0.62760   3 ;    H7S-   C17-   C16-   H6R
  4941   4939   4942   4944      9     0.00   0.62760   3 ;    H7S-   C17-   C16-   H6S
  4941   4939   4942   4945      9     0.00   0.66944   3 ;    H7S-   C17-   C16-   C15
  4942   4945   4948   4949      9     0.00   0.66944   3 ;    C16-   C15-   C14-   H4R
  4942   4945   4948   4950      9     0.00   0.66944   3 ;    C16-   C15-   C14-   H4S
  4942   4945   4948   4951      9     0.00   0.41840   1 ;    C16-   C15-   C14-   C13
  4942   4945   4948   4951      9     0.00   0.41840   2 ;    C16-   C15-   C14-   C13
  4942   4945   4948   4951      9     0.00   0.41840   4 ;    C16-   C15-   C14-   C13
  4942   4945   4948   4951      9     0.00   0.41840   5 ;    C16-   C15-   C14-   C13
  4942   4945   4948   4951      9     0.00   1.25520   3 ;    C16-   C15-   C14-   C13
  4943   4942   4945   4946      9     0.00   0.62760   3 ;    H6R-   C16-   C15-   H5R
  4943   4942   4945   4947      9     0.00   0.62760   3 ;    H6R-   C16-   C15-   H5S
  4943   4942   4945   4948      9     0.00   0.66944   3 ;    H6R-   C16-   C15-   C14
  4944   4942   4945   4946      9     0.00   0.62760   3 ;    H6S-   C16-   C15-   H5R
  4944   4942   4945   4947      9     0.00   0.62760   3 ;    H6S-   C16-   C15-   H5S
  4944   4942   4945   4948      9     0.00   0.66944   3 ;    H6S-   C16-   C15-   C14
  4945   4948   4951   4952      9     0.00   0.66944   3 ;    C15-   C14-   C13-   H3R
  4945   4948   4951   4953      9     0.00   0.66944   3 ;    C15-   C14-   C13-   H3S
  4945   4948   4951   4954      9     0.00   0.41840   1 ;    C15-   C14-   C13-   C12
  4945   4948   4951   4954      9     0.00   0.41840   2 ;    C15-   C14-   C13-   C12
  4945   4948   4951   4954      9     0.00   0.41840   4 ;    C15-   C14-   C13-   C12
  4945   4948   4951   4954      9     0.00   0.41840   5 ;    C15-   C14-   C13-   C12
  4945   4948   4951   4954      9     0.00   1.25520   3 ;    C15-   C14-   C13-   C12
  4946   4945   4948   4949      9     0.00   0.62760   3 ;    H5R-   C15-   C14-   H4R
  4946   4945   4948   4950      9     0.00   0.62760   3 ;    H5R-   C15-   C14-   H4S
  4946   4945   4948   4951      9     0.00   0.66944   3 ;    H5R-   C15-   C14-   C13
  4947   4945   4948   4949      9     0.00   0.62760   3 ;    H5S-   C15-   C14-   H4R
  4947   4945   4948   4950      9     0.00   0.62760   3 ;    H5S-   C15-   C14-   H4S
  4947   4945   4948   4951      9     0.00   0.66944   3 ;    H5S-   C15-   C14-   C13
  4948   4951   4954   4955      9     0.00   0.66944   3 ;    C14-   C13-   C12-   H2R
  4948   4951   4954   4956      9     0.00   0.66944   3 ;    C14-   C13-   C12-   H2S
  4949   4948   4951   4952      9     0.00   0.62760   3 ;    H4R-   C14-   C13-   H3R
  4949   4948   4951   4953      9     0.00   0.62760   3 ;    H4R-   C14-   C13-   H3S
  4949   4948   4951   4954      9     0.00   0.66944   3 ;    H4R-   C14-   C13-   C12
  4950   4948   4951   4952      9     0.00   0.62760   3 ;    H4S-   C14-   C13-   H3R
  4950   4948   4951   4953      9     0.00   0.62760   3 ;    H4S-   C14-   C13-   H3S
  4950   4948   4951   4954      9     0.00   0.66944   3 ;    H4S-   C14-   C13-   C12
  4952   4951   4954   4955      9     0.00   0.62760   3 ;    H3R-   C13-   C12-   H2R
  4952   4951   4954   4956      9     0.00   0.62760   3 ;    H3R-   C13-   C12-   H2S
  4953   4951   4954   4955      9     0.00   0.62760   3 ;    H3S-   C13-   C12-   H2R
  4953   4951   4954   4956      9     0.00   0.62760   3 ;    H3S-   C13-   C12-   H2S
  4957   4958   4961   4962      9     0.00   0.62760   3 ;   H14T-  C114-  C113-  H13R
  4957   4958   4961   4963      9     0.00   0.62760   3 ;   H14T-  C114-  C113-  H13S
  4957   4958   4961   4964      9     0.00   0.66944   3 ;   H14T-  C114-  C113-  C112
  4958   4961   4964   4965      9     0.00   0.66944   3 ;   C114-  C113-  C112-  H12R
  4958   4961   4964   4966      9     0.00   0.66944   3 ;   C114-  C113-  C112-  H12S
  4958   4961   4964   4967      9     0.00   0.41840   1 ;   C114-  C113-  C112-  C111
  4958   4961   4964   4967      9     0.00   0.41840   2 ;   C114-  C113-  C112-  C111
  4958   4961   4964   4967      9     0.00   0.41840   4 ;   C114-  C113-  C112-  C111
  4958   4961   4964   4967      9     0.00   0.41840   5 ;   C114-  C113-  C112-  C111
  4958   4961   4964   4967      9     0.00   1.25520   3 ;   C114-  C113-  C112-  C111
  4959   4958   4961   4962      9     0.00   0.62760   3 ;   H14R-  C114-  C113-  H13R
  4959   4958   4961   4963      9     0.00   0.62760   3 ;   H14R-  C114-  C113-  H13S
  4959   4958   4961   4964      9     0.00   0.66944   3 ;   H14R-  C114-  C113-  C112
  4960   4958   4961   4962      9     0.00   0.62760   3 ;   H14S-  C114-  C113-  H13R
  4960   4958   4961   4963      9     0.00   0.62760   3 ;   H14S-  C114-  C113-  H13S
  4960   4958   4961   4964      9     0.00   0.66944   3 ;   H14S-  C114-  C113-  C112
  4961   4964   4967   4968      9     0.00   0.66944   3 ;   C113-  C112-  C111-  H11R
  4961   4964   4967   4969      9     0.00   0.66944   3 ;   C113-  C112-  C111-  H11S
  4961   4964   4967   4970      9     0.00   0.41840   1 ;   C113-  C112-  C111-  C110
  4961   4964   4967   4970      9     0.00   0.41840   2 ;   C113-  C112-  C111-  C110
  4961   4964   4967   4970      9     0.00   0.41840   4 ;   C113-  C112-  C111-  C110
  4961   4964   4967   4970      9     0.00   0.41840   5 ;   C113-  C112-  C111-  C110
  4961   4964   4967   4970      9     0.00   1.25520   3 ;   C113-  C112-  C111-  C110
  4962   4961   4964   4965      9     0.00   0.62760   3 ;   H13R-  C113-  C112-  H12R
  4962   4961   4964   4966      9     0.00   0.62760   3 ;   H13R-  C113-  C112-  H12S
  4962   4961   4964   4967      9     0.00   0.66944   3 ;   H13R-  C113-  C112-  C111
  4963   4961   4964   4965      9     0.00   0.62760   3 ;   H13S-  C113-  C112-  H12R
  4963   4961   4964   4966      9     0.00   0.62760   3 ;   H13S-  C113-  C112-  H12S
  4963   4961   4964   4967      9     0.00   0.66944   3 ;   H13S-  C113-  C112-  C111
  4964   4967   4970   4971      9     0.00   0.66944   3 ;   C112-  C111-  C110-  H10R
  4964   4967   4970   4972      9     0.00   0.66944   3 ;   C112-  C111-  C110-  H10S
  4964   4967   4970   4973      9     0.00   0.41840   1 ;   C112-  C111-  C110-   C19
  4964   4967   4970   4973      9     0.00   0.41840   2 ;   C112-  C111-  C110-   C19
  4964   4967   4970   4973      9     0.00   0.41840   4 ;   C112-  C111-  C110-   C19
  4964   4967   4970   4973      9     0.00   0.41840   5 ;   C112-  C111-  C110-   C19
  4964   4967   4970   4973      9     0.00   1.25520   3 ;   C112-  C111-  C110-   C19
  4965   4964   4967   4968      9     0.00   0.62760   3 ;   H12R-  C112-  C111-  H11R
  4965   4964   4967   4969      9     0.00   0.62760   3 ;   H12R-  C112-  C111-  H11S
  4965   4964   4967   4970      9     0.00   0.66944   3 ;   H12R-  C112-  C111-  C110
  4966   4964   4967   4968      9     0.00   0.62760   3 ;   H12S-  C112-  C111-  H11R
  4966   4964   4967   4969      9     0.00   0.62760   3 ;   H12S-  C112-  C111-  H11S
  4966   4964   4967   4970      9     0.00   0.66944   3 ;   H12S-  C112-  C111-  C110
  4967   4970   4973   4974      9     0.00   0.66944   3 ;   C111-  C110-   C19-   H9R
  4967   4970   4973   4975      9     0.00   0.66944   3 ;   C111-  C110-   C19-   H9S
  4967   4970   4973   4976      9     0.00   0.41840   1 ;   C111-  C110-   C19-   C18
  4967   4970   4973   4976      9     0.00   0.41840   2 ;   C111-  C110-   C19-   C18
  4967   4970   4973   4976      9     0.00   0.41840   4 ;   C111-  C110-   C19-   C18
  4967   4970   4973   4976      9     0.00   0.41840   5 ;   C111-  C110-   C19-   C18
  4967   4970   4973   4976      9     0.00   1.25520   3 ;   C111-  C110-   C19-   C18
  4968   4967   4970   4971      9     0.00   0.62760   3 ;   H11R-  C111-  C110-  H10R
  4968   4967   4970   4972      9     0.00   0.62760   3 ;   H11R-  C111-  C110-  H10S
  4968   4967   4970   4973      9     0.00   0.66944   3 ;   H11R-  C111-  C110-   C19
  4969   4967   4970   4971      9     0.00   0.62760   3 ;   H11S-  C111-  C110-  H10R
  4969   4967   4970   4972      9     0.00   0.62760   3 ;   H11S-  C111-  C110-  H10S
  4969   4967   4970   4973      9     0.00   0.66944   3 ;   H11S-  C111-  C110-   C19
  4970   4973   4976   4977      9     0.00   0.66944   3 ;   C110-   C19-   C18-   H8R
  4970   4973   4976   4978      9     0.00   0.66944   3 ;   C110-   C19-   C18-   H8S
  4970   4973   4976   4979      9     0.00   0.41840   1 ;   C110-   C19-   C18-   C17
  4970   4973   4976   4979      9     0.00   0.41840   2 ;   C110-   C19-   C18-   C17
  4970   4973   4976   4979      9     0.00   0.41840   4 ;   C110-   C19-   C18-   C17
  4970   4973   4976   4979      9     0.00   0.41840   5 ;   C110-   C19-   C18-   C17
  4970   4973   4976   4979      9     0.00   1.25520   3 ;   C110-   C19-   C18-   C17
  4971   4970   4973   4974      9     0.00   0.62760   3 ;   H10R-  C110-   C19-   H9R
  4971   4970   4973   4975      9     0.00   0.62760   3 ;   H10R-  C110-   C19-   H9S
  4971   4970   4973   4976      9     0.00   0.66944   3 ;   H10R-  C110-   C19-   C18
  4972   4970   4973   4974      9     0.00   0.62760   3 ;   H10S-  C110-   C19-   H9R
  4972   4970   4973   4975      9     0.00   0.62760   3 ;   H10S-  C110-   C19-   H9S
  4972   4970   4973   4976      9     0.00   0.66944   3 ;   H10S-  C110-   C19-   C18
  4973   4976   4979   4980      9     0.00   0.66944   3 ;    C19-   C18-   C17-   H7R
  4973   4976   4979   4981      9     0.00   0.66944   3 ;    C19-   C18-   C17-   H7S
  4973   4976   4979   4982      9     0.00   0.41840   1 ;    C19-   C18-   C17-   C16
  4973   4976   4979   4982      9     0.00   0.41840   2 ;    C19-   C18-   C17-   C16
  4973   4976   4979   4982      9     0.00   0.41840   4 ;    C19-   C18-   C17-   C16
  4973   4976   4979   4982      9     0.00   0.41840   5 ;    C19-   C18-   C17-   C16
  4973   4976   4979   4982      9     0.00   1.25520   3 ;    C19-   C18-   C17-   C16
  4974   4973   4976   4977      9     0.00   0.62760   3 ;    H9R-   C19-   C18-   H8R
  4974   4973   4976   4978      9     0.00   0.62760   3 ;    H9R-   C19-   C18-   H8S
  4974   4973   4976   4979      9     0.00   0.66944   3 ;    H9R-   C19-   C18-   C17
  4975   4973   4976   4977      9     0.00   0.62760   3 ;    H9S-   C19-   C18-   H8R
  4975   4973   4976   4978      9     0.00   0.62760   3 ;    H9S-   C19-   C18-   H8S
  4975   4973   4976   4979      9     0.00   0.66944   3 ;    H9S-   C19-   C18-   C17
  4976   4979   4982   4983      9     0.00   0.66944   3 ;    C18-   C17-   C16-   H6R
  4976   4979   4982   4984      9     0.00   0.66944   3 ;    C18-   C17-   C16-   H6S
  4976   4979   4982   4985      9     0.00   0.41840   1 ;    C18-   C17-   C16-   C15
  4976   4979   4982   4985      9     0.00   0.41840   2 ;    C18-   C17-   C16-   C15
  4976   4979   4982   4985      9     0.00   0.41840   4 ;    C18-   C17-   C16-   C15
  4976   4979   4982   4985      9     0.00   0.41840   5 ;    C18-   C17-   C16-   C15
  4976   4979   4982   4985      9     0.00   1.25520   3 ;    C18-   C17-   C16-   C15
  4977   4976   4979   4980      9     0.00   0.62760   3 ;    H8R-   C18-   C17-   H7R
  4977   4976   4979   4981      9     0.00   0.62760   3 ;    H8R-   C18-   C17-   H7S
  4977   4976   4979   4982      9     0.00   0.66944   3 ;    H8R-   C18-   C17-   C16
  4978   4976   4979   4980      9     0.00   0.62760   3 ;    H8S-   C18-   C17-   H7R
  4978   4976   4979   4981      9     0.00   0.62760   3 ;    H8S-   C18-   C17-   H7S
  4978   4976   4979   4982      9     0.00   0.66944   3 ;    H8S-   C18-   C17-   C16
  4979   4982   4985   4986      9     0.00   0.66944   3 ;    C17-   C16-   C15-   H5R
  4979   4982   4985   4987      9     0.00   0.66944   3 ;    C17-   C16-   C15-   H5S
  4979   4982   4985   4988      9     0.00   0.41840   1 ;    C17-   C16-   C15-   C14
  4979   4982   4985   4988      9     0.00   0.41840   2 ;    C17-   C16-   C15-   C14
  4979   4982   4985   4988      9     0.00   0.41840   4 ;    C17-   C16-   C15-   C14
  4979   4982   4985   4988      9     0.00   0.41840   5 ;    C17-   C16-   C15-   C14
  4979   4982   4985   4988      9     0.00   1.25520   3 ;    C17-   C16-   C15-   C14
  4980   4979   4982   4983      9     0.00   0.62760   3 ;    H7R-   C17-   C16-   H6R
  4980   4979   4982   4984      9     0.00   0.62760   3 ;    H7R-   C17-   C16-   H6S
  4980   4979   4982   4985      9     0.00   0.66944   3 ;    H7R-   C17-   C16-   C15
  4981   4979   4982   4983      9     0.00   0.62760   3 ;    H7S-   C17-   C16-   H6R
  4981   4979   4982   4984      9     0.00   0.62760   3 ;    H7S-   C17-   C16-   H6S
  4981   4979   4982   4985      9     0.00   0.66944   3 ;    H7S-   C17-   C16-   C15
  4982   4985   4988   4989      9     0.00   0.66944   3 ;    C16-   C15-   C14-   H4R
  4982   4985   4988   4990      9     0.00   0.66944   3 ;    C16-   C15-   C14-   H4S
  4982   4985   4988   4991      9     0.00   0.41840   1 ;    C16-   C15-   C14-   C13
  4982   4985   4988   4991      9     0.00   0.41840   2 ;    C16-   C15-   C14-   C13
  4982   4985   4988   4991      9     0.00   0.41840   4 ;    C16-   C15-   C14-   C13
  4982   4985   4988   4991      9     0.00   0.41840   5 ;    C16-   C15-   C14-   C13
  4982   4985   4988   4991      9     0.00   1.25520   3 ;    C16-   C15-   C14-   C13
  4983   4982   4985   4986      9     0.00   0.62760   3 ;    H6R-   C16-   C15-   H5R
  4983   4982   4985   4987      9     0.00   0.62760   3 ;    H6R-   C16-   C15-   H5S
  4983   4982   4985   4988      9     0.00   0.66944   3 ;    H6R-   C16-   C15-   C14
  4984   4982   4985   4986      9     0.00   0.62760   3 ;    H6S-   C16-   C15-   H5R
  4984   4982   4985   4987      9     0.00   0.62760   3 ;    H6S-   C16-   C15-   H5S
  4984   4982   4985   4988      9     0.00   0.66944   3 ;    H6S-   C16-   C15-   C14
  4985   4988   4991   4992      9     0.00   0.66944   3 ;    C15-   C14-   C13-   H3R
  4985   4988   4991   4993      9     0.00   0.66944   3 ;    C15-   C14-   C13-   H3S
  4985   4988   4991   4994      9     0.00   0.41840   1 ;    C15-   C14-   C13-   C12
  4985   4988   4991   4994      9     0.00   0.41840   2 ;    C15-   C14-   C13-   C12
  4985   4988   4991   4994      9     0.00   0.41840   4 ;    C15-   C14-   C13-   C12
  4985   4988   4991   4994      9     0.00   0.41840   5 ;    C15-   C14-   C13-   C12
  4985   4988   4991   4994      9     0.00   1.25520   3 ;    C15-   C14-   C13-   C12
  4986   4985   4988   4989      9     0.00   0.62760   3 ;    H5R-   C15-   C14-   H4R
  4986   4985   4988   4990      9     0.00   0.62760   3 ;    H5R-   C15-   C14-   H4S
  4986   4985   4988   4991      9     0.00   0.66944   3 ;    H5R-   C15-   C14-   C13
  4987   4985   4988   4989      9     0.00   0.62760   3 ;    H5S-   C15-   C14-   H4R
  4987   4985   4988   4990      9     0.00   0.62760   3 ;    H5S-   C15-   C14-   H4S
  4987   4985   4988   4991      9     0.00   0.66944   3 ;    H5S-   C15-   C14-   C13
  4988   4991   4994   4995      9     0.00   0.66944   3 ;    C14-   C13-   C12-   H2R
  4988   4991   4994   4996      9     0.00   0.66944   3 ;    C14-   C13-   C12-   H2S
  4988   4991   4994   4997      9     0.00   0.65270   3 ;    C14-   C13-   C12-   C11
  4989   4988   4991   4992      9     0.00   0.62760   3 ;    H4R-   C14-   C13-   H3R
  4989   4988   4991   4993      9     0.00   0.62760   3 ;    H4R-   C14-   C13-   H3S
  4989   4988   4991   4994      9     0.00   0.66944   3 ;    H4R-   C14-   C13-   C12
  4990   4988   4991   4992      9     0.00   0.62760   3 ;    H4S-   C14-   C13-   H3R
  4990   4988   4991   4993      9     0.00   0.62760   3 ;    H4S-   C14-   C13-   H3S
  4990   4988   4991   4994      9     0.00   0.66944   3 ;    H4S-   C14-   C13-   C12
  4991   4994   4997   4998      9   180.00   0.00000   2 ;    C13-   C12-   C11-   O12
  4991   4994   4997   4999      9   180.00   0.00000   2 ;    C13-   C12-   C11-   O11
  4992   4991   4994   4995      9     0.00   0.62760   3 ;    H3R-   C13-   C12-   H2R
  4992   4991   4994   4996      9     0.00   0.62760   3 ;    H3R-   C13-   C12-   H2S
  4992   4991   4994   4997      9     0.00   0.65270   3 ;    H3R-   C13-   C12-   C11
  4993   4991   4994   4995      9     0.00   0.62760   3 ;    H3S-   C13-   C12-   H2R
  4993   4991   4994   4996      9     0.00   0.62760   3 ;    H3S-   C13-   C12-   H2S
  4993   4991   4994   4997      9     0.00   0.65270   3 ;    H3S-   C13-   C12-   C11
  4994   4997   4999   5000      9   180.00  11.29680   2 ;    C12-   C11-   O11-    C1
  4995   4994   4997   4998      9     0.00   3.34720   1 ;    H2R-   C12-   C11-   O12
  4995   4994   4997   4998      9   180.00   0.33472   3 ;    H2R-   C12-   C11-   O12
  4995   4994   4997   4999      9   180.00   0.00000   2 ;    H2R-   C12-   C11-   O11
  4996   4994   4997   4998      9     0.00   3.34720   1 ;    H2S-   C12-   C11-   O12
  4996   4994   4997   4998      9   180.00   0.33472   3 ;    H2S-   C12-   C11-   O12
  4996   4994   4997   4999      9   180.00   0.00000   2 ;    H2S-   C12-   C11-   O11
  4997   4999   5000   5001      9     0.00   1.60247   3 ;    C11-   O11-    C1-    HR
  4997   4999   5000   5002      9     0.00   1.60247   3 ;    C11-   O11-    C1-    HS
  4997   4999   5000   5003      9     0.00  -0.41840   1 ;    C11-   O11-    C1-    C2
  4998   4997   4999   5000      9   180.00   5.85760   1 ;    O12-   C11-   O11-    C1
  4998   4997   4999   5000      9   180.00  11.29680   2 ;    O12-   C11-   O11-    C1
  4999   5000   5003   5004      9     0.00   0.00000   0 ;    O11-    C1-    C2-    HX
  4999   5000   5003   5004      9     0.00   1.04600   1 ;    O11-    C1-    C2-    HX
  4999   5000   5003   5005      9     0.00   0.00000   0 ;    O11-    C1-    C2-    C3
  4999   5000   5003   5005      9     0.00   0.00000   0 ;    O11-    C1-    C2-    C3
  4999   5000   5003   5005      9     0.00   0.00000   0 ;    O11-    C1-    C2-    C3
  4999   5000   5003   5005      9     0.00   0.00000   0 ;    O11-    C1-    C2-    C3
  4999   5000   5003   5005      9     0.00   0.00000   0 ;    O11-    C1-    C2-    C3
  4999   5000   5003   5032      9     0.00   1.25520   2 ;    O11-    C1-    C2-   O21
  4999   5000   5003   5032      9     0.00   4.18400   3 ;    O11-    C1-    C2-   O21
  4999   5000   5003   5032      9   180.00  -0.41840   1 ;    O11-    C1-    C2-   O21
  5000   5003   5005   5006      9     0.00   0.65270   3 ;     C1-    C2-    C3-    HA
  5000   5003   5005   5007      9     0.00   0.65270   3 ;     C1-    C2-    C3-    HB
  5000   5003   5005   5008      9   180.00   3.34720   1 ;     C1-    C2-    C3-   O31
  5000   5003   5032   5033      9     0.00  -0.41840   1 ;     C1-    C2-   O21-   C21
  5001   5000   5003   5004      9     0.00   0.65270   3 ;     HR-    C1-    C2-    HX
  5001   5000   5003   5005      9     0.00   0.65270   3 ;     HR-    C1-    C2-    C3
  5001   5000   5003   5032      9     0.00   0.00000   0 ;     HR-    C1-    C2-   O21
  5001   5000   5003   5032      9     0.00   1.04600   1 ;     HR-    C1-    C2-   O21
  5002   5000   5003   5004      9     0.00   0.65270   3 ;     HS-    C1-    C2-    HX
  5002   5000   5003   5005      9     0.00   0.65270   3 ;     HS-    C1-    C2-    C3
  5002   5000   5003   5032      9     0.00   0.00000   0 ;     HS-    C1-    C2-   O21
  5002   5000   5003   5032      9     0.00   1.04600   1 ;     HS-    C1-    C2-   O21
  5003   5005   5008   5009      9     0.00   0.00000   0 ;     C2-    C3-   O31-   P31
  5003   5005   5008   5009      9   180.00  -3.34720   2 ;     C2-    C3-   O31-   P31
  5003   5032   5033   5034      9   180.00   5.85760   1 ;     C2-   O21-   C21-   O22
  5003   5032   5033   5034      9   180.00  11.29680   2 ;     C2-   O21-   C21-   O22
  5003   5032   5033   5072      9   180.00  11.29680   2 ;     C2-   O21-   C21-   C12
  5004   5003   5005   5006      9     0.00   0.65270   3 ;     HX-    C2-    C3-    HA
  5004   5003   5005   5007      9     0.00   0.65270   3 ;     HX-    C2-    C3-    HB
  5004   5003   5005   5008      9     0.00   0.00000   0 ;     HX-    C2-    C3-   O31
  5004   5003   5005   5008      9     0.00   1.04600   1 ;     HX-    C2-    C3-   O31
  5004   5003   5032   5033      9     0.00   1.60247   3 ;     HX-    C2-   O21-   C21
  5005   5003   5032   5033      9     0.00  -0.41840   1 ;     C3-    C2-   O21-   C21
  5005   5008   5009   5010      9     0.00   2.51040   3 ;     C3-   O31-   P31-   O32
  5005   5008   5009   5010      9     0.00   9.62320   2 ;     C3-   O31-   P31-   O32
  5005   5008   5009   5030      9     0.00   0.00000   0 ;     C3-   O31-   P31-   O33
  5005   5008   5009   5030      9     0.00   0.00000   0 ;     C3-   O31-   P31-   O33
  5005   5008   5009   5030      9     0.00   0.00000   0 ;     C3-   O31-   P31-   O33
  5005   5008   5009   5030      9     0.00   0.00000   0 ;     C3-   O31-   P31-   O33
  5005   5008   5009   5030      9     0.00   0.83680   2 ;     C3-   O31-   P31-   O33
  5005   5008   5009   5031      9     0.00   0.00000   0 ;     C3-   O31-   P31-   O34
  5005   5008   5009   5031      9     0.00   0.00000   0 ;     C3-   O31-   P31-   O34
  5005   5008   5009   5031      9     0.00   0.00000   0 ;     C3-   O31-   P31-   O34
  5005   5008   5009   5031      9     0.00   0.00000   0 ;     C3-   O31-   P31-   O34
  5005   5008   5009   5031      9     0.00   0.83680   2 ;     C3-   O31-   P31-   O34
  5006   5005   5003   5032      9     0.00   0.00000   0 ;     HA-    C3-    C2-   O21
  5006   5005   5003   5032      9     0.00   1.04600   1 ;     HA-    C3-    C2-   O21
  5006   5005   5008   5009      9     0.00   0.00000   0 ;     HA-    C3-   O31-   P31
  5006   5005   5008   5009      9     0.00   0.00000   0 ;     HA-    C3-   O31-   P31
  5006   5005   5008   5009      9     0.00   0.00000   0 ;     HA-    C3-   O31-   P31
  5006   5005   5008   5009      9     0.00   0.00000   0 ;     HA-    C3-   O31-   P31
  5006   5005   5008   5009      9     0.00   1.60247   3 ;     HA-    C3-   O31-   P31
  5007   5005   5003   5032      9     0.00   0.00000   0 ;     HB-    C3-    C2-   O21
  5007   5005   5003   5032      9     0.00   1.04600   1 ;     HB-    C3-    C2-   O21
  5007   5005   5008   5009      9     0.00   0.00000   0 ;     HB-    C3-   O31-   P31
  5007   5005   5008   5009      9     0.00   0.00000   0 ;     HB-    C3-   O31-   P31
  5007   5005   5008   5009      9     0.00   0.00000   0 ;     HB-    C3-   O31-   P31
  5007   5005   5008   5009      9     0.00   0.00000   0 ;     HB-    C3-   O31-   P31
  5007   5005   5008   5009      9     0.00   1.60247   3 ;     HB-    C3-   O31-   P31
  5008   5005   5003   5032      9     0.00   0.00000   0 ;    O31-    C3-    C2-   O21
  5008   5005   5003   5032      9     0.00   0.00000   0 ;    O31-    C3-    C2-   O21
  5008   5005   5003   5032      9     0.00   0.00000   0 ;    O31-    C3-    C2-   O21
  5008   5005   5003   5032      9     0.00   0.00000   0 ;    O31-    C3-    C2-   O21
  5008   5005   5003   5032      9     0.00   0.00000   0 ;    O31-    C3-    C2-   O21
  5008   5009   5010   5011      9     0.00   2.51040   3 ;    O31-   P31-   O32-   C31
  5008   5009   5010   5011      9     0.00   9.62320   2 ;    O31-   P31-   O32-   C31
  5009   5010   5011   5012      9     0.00   0.00000   0 ;    P31-   O32-   C31-   H1A
  5009   5010   5011   5012      9     0.00   0.00000   0 ;    P31-   O32-   C31-   H1A
  5009   5010   5011   5012      9     0.00   0.00000   0 ;    P31-   O32-   C31-   H1A
  5009   5010   5011   5012      9     0.00   0.00000   0 ;    P31-   O32-   C31-   H1A
  5009   5010   5011   5012      9     0.00   1.60247   3 ;    P31-   O32-   C31-   H1A
  5009   5010   5011   5013      9     0.00   0.00000   0 ;    P31-   O32-   C31-   H1B
  5009   5010   5011   5013      9     0.00   0.00000   0 ;    P31-   O32-   C31-   H1B
  5009   5010   5011   5013      9     0.00   0.00000   0 ;    P31-   O32-   C31-   H1B
  5009   5010   5011   5013      9     0.00   0.00000   0 ;    P31-   O32-   C31-   H1B
  5009   5010   5011   5013      9     0.00   1.60247   3 ;    P31-   O32-   C31-   H1B
  5009   5010   5011   5014      9     0.00   0.00000   0 ;    P31-   O32-   C31-   C32
  5009   5010   5011   5014      9   180.00  -3.34720   2 ;    P31-   O32-   C31-   C32
  5010   5011   5014   5015      9     0.00   0.65270   3 ;    O32-   C31-   C32-   H2A
  5010   5011   5014   5016      9     0.00   0.65270   3 ;    O32-   C31-   C32-   H2B
  5010   5011   5014   5017      9     0.00   4.18400   3 ;    O32-   C31-   C32-   N31
  5011   5010   5009   5030      9     0.00   0.00000   0 ;    C31-   O32-   P31-   O33
  5011   5010   5009   5030      9     0.00   0.00000   0 ;    C31-   O32-   P31-   O33
  5011   5010   5009   5030      9     0.00   0.00000   0 ;    C31-   O32-   P31-   O33
  5011   5010   5009   5030      9     0.00   0.00000   0 ;    C31-   O32-   P31-   O33
  5011   5010   5009   5030      9     0.00   0.83680   2 ;    C31-   O32-   P31-   O33
  5011   5010   5009   5031      9     0.00   0.00000   0 ;    C31-   O32-   P31-   O34
  5011   5010   5009   5031      9     0.00   0.00000   0 ;    C31-   O32-   P31-   O34
  5011   5010   5009   5031      9     0.00   0.00000   0 ;    C31-   O32-   P31-   O34
  5011   5010   5009   5031      9     0.00   0.00000   0 ;    C31-   O32-   P31-   O34
  5011   5010   5009   5031      9     0.00   0.83680   2 ;    C31-   O32-   P31-   O34
  5011   5014   5017   5018      9     0.00   0.65270   3 ;    C31-   C32-   N31-   C33
  5011   5014   5017   5022      9     0.00   0.65270   3 ;    C31-   C32-   N31-   C34
  5011   5014   5017   5026      9     0.00   0.65270   3 ;    C31-   C32-   N31-   C35
  5012   5011   5014   5015      9     0.00   0.65270   3 ;    H1A-   C31-   C32-   H2A
  5012   5011   5014   5016      9     0.00   0.65270   3 ;    H1A-   C31-   C32-   H2B
  5012   5011   5014   5017      9     0.00   0.65270   3 ;    H1A-   C31-   C32-   N31
  5013   5011   5014   5015      9     0.00   0.65270   3 ;    H1B-   C31-   C32-   H2A
  5013   5011   5014   5016      9     0.00   0.65270   3 ;    H1B-   C31-   C32-   H2B
  5013   5011   5014   5017      9     0.00   0.65270   3 ;    H1B-   C31-   C32-   N31
  5014   5017   5018   5019      9     0.00   0.65270   3 ;    C32-   N31-   C33-   H3A
  5014   5017   5018   5020      9     0.00   0.65270   3 ;    C32-   N31-   C33-   H3B
  5014   5017   5018   5021      9     0.00   0.65270   3 ;    C32-   N31-   C33-   H3C
  5014   5017   5022   5023      9     0.00   0.65270   3 ;    C32-   N31-   C34-   H4A
  5014   5017   5022   5024      9     0.00   0.65270   3 ;    C32-   N31-   C34-   H4B
  5014   5017   5022   5025      9     0.00   0.65270   3 ;    C32-   N31-   C34-   H4C
  5014   5017   5026   5027      9     0.00   0.65270   3 ;    C32-   N31-   C35-   H5A
  5014   5017   5026   5028      9     0.00   0.65270   3 ;    C32-   N31-   C35-   H5B
  5014   5017   5026   5029      9     0.00   0.65270   3 ;    C32-   N31-   C35-   H5C
  5015   5014   5017   5018      9     0.00   0.65270   3 ;    H2A-   C32-   N31-   C33
  5015   5014   5017   5022      9     0.00   0.65270   3 ;    H2A-   C32-   N31-   C34
  5015   5014   5017   5026      9     0.00   0.65270   3 ;    H2A-   C32-   N31-   C35
  5016   5014   5017   5018      9     0.00   0.65270   3 ;    H2B-   C32-   N31-   C33
  5016   5014   5017   5022      9     0.00   0.65270   3 ;    H2B-   C32-   N31-   C34
  5016   5014   5017   5026      9     0.00   0.65270   3 ;    H2B-   C32-   N31-   C35
  5018   5017   5022   5023      9     0.00   0.65270   3 ;    C33-   N31-   C34-   H4A
  5018   5017   5022   5024      9     0.00   0.65270   3 ;    C33-   N31-   C34-   H4B
  5018   5017   5022   5025      9     0.00   0.65270   3 ;    C33-   N31-   C34-   H4C
  5018   5017   5026   5027      9     0.00   0.65270   3 ;    C33-   N31-   C35-   H5A
  5018   5017   5026   5028      9     0.00   0.65270   3 ;    C33-   N31-   C35-   H5B
  5018   5017   5026   5029      9     0.00   0.65270   3 ;    C33-   N31-   C35-   H5C
  5019   5018   5017   5022      9     0.00   0.65270   3 ;    H3A-   C33-   N31-   C34
  5019   5018   5017   5026      9     0.00   0.65270   3 ;    H3A-   C33-   N31-   C35
  5020   5018   5017   5022      9     0.00   0.65270   3 ;    H3B-   C33-   N31-   C34
  5020   5018   5017   5026      9     0.00   0.65270   3 ;    H3B-   C33-   N31-   C35
  5021   5018   5017   5022      9     0.00   0.65270   3 ;    H3C-   C33-   N31-   C34
  5021   5018   5017   5026      9     0.00   0.65270   3 ;    H3C-   C33-   N31-   C35
  5022   5017   5026   5027      9     0.00   0.65270   3 ;    C34-   N31-   C35-   H5A
  5022   5017   5026   5028      9     0.00   0.65270   3 ;    C34-   N31-   C35-   H5B
  5022   5017   5026   5029      9     0.00   0.65270   3 ;    C34-   N31-   C35-   H5C
  5023   5022   5017   5026      9     0.00   0.65270   3 ;    H4A-   C34-   N31-   C35
  5024   5022   5017   5026      9     0.00   0.65270   3 ;    H4B-   C34-   N31-   C35
  5025   5022   5017   5026      9     0.00   0.65270   3 ;    H4C-   C34-   N31-   C35
  5032   5033   5072   5069      9   180.00   0.00000   2 ;    O21-   C21-   C12-   C13
  5032   5033   5072   5073      9   180.00   0.00000   2 ;    O21-   C21-   C12-   H2R
  5032   5033   5072   5074      9   180.00   0.00000   2 ;    O21-   C21-   C12-   H2S
  5033   5072   5069   5066      9     0.00   0.65270   3 ;    C21-   C12-   C13-   C14
  5033   5072   5069   5070      9     0.00   0.65270   3 ;    C21-   C12-   C13-   H3R
  5033   5072   5069   5071      9     0.00   0.65270   3 ;    C21-   C12-   C13-   H3S
  5034   5033   5072   5069      9   180.00   0.00000   2 ;    O22-   C21-   C12-   C13
  5034   5033   5072   5073      9     0.00   3.34720   1 ;    O22-   C21-   C12-   H2R
  5034   5033   5072   5073      9   180.00   0.33472   3 ;    O22-   C21-   C12-   H2R
  5034   5033   5072   5074      9     0.00   3.34720   1 ;    O22-   C21-   C12-   H2S
  5034   5033   5072   5074      9   180.00   0.33472   3 ;    O22-   C21-   C12-   H2S
  5035   5036   5039   5040      9     0.00   0.62760   3 ;   H14T-  C114-  C113-  H13R
  5035   5036   5039   5041      9     0.00   0.62760   3 ;   H14T-  C114-  C113-  H13S
  5035   5036   5039   5042      9     0.00   0.66944   3 ;   H14T-  C114-  C113-  C112
  5036   5039   5042   5043      9     0.00   0.66944   3 ;   C114-  C113-  C112-  H12R
  5036   5039   5042   5044      9     0.00   0.66944   3 ;   C114-  C113-  C112-  H12S
  5036   5039   5042   5045      9     0.00   0.41840   1 ;   C114-  C113-  C112-  C111
  5036   5039   5042   5045      9     0.00   0.41840   2 ;   C114-  C113-  C112-  C111
  5036   5039   5042   5045      9     0.00   0.41840   4 ;   C114-  C113-  C112-  C111
  5036   5039   5042   5045      9     0.00   0.41840   5 ;   C114-  C113-  C112-  C111
  5036   5039   5042   5045      9     0.00   1.25520   3 ;   C114-  C113-  C112-  C111
  5037   5036   5039   5040      9     0.00   0.62760   3 ;   H14R-  C114-  C113-  H13R
  5037   5036   5039   5041      9     0.00   0.62760   3 ;   H14R-  C114-  C113-  H13S
  5037   5036   5039   5042      9     0.00   0.66944   3 ;   H14R-  C114-  C113-  C112
  5038   5036   5039   5040      9     0.00   0.62760   3 ;   H14S-  C114-  C113-  H13R
  5038   5036   5039   5041      9     0.00   0.62760   3 ;   H14S-  C114-  C113-  H13S
  5038   5036   5039   5042      9     0.00   0.66944   3 ;   H14S-  C114-  C113-  C112
  5039   5042   5045   5046      9     0.00   0.66944   3 ;   C113-  C112-  C111-  H11R
  5039   5042   5045   5047      9     0.00   0.66944   3 ;   C113-  C112-  C111-  H11S
  5039   5042   5045   5048      9     0.00   0.41840   1 ;   C113-  C112-  C111-  C110
  5039   5042   5045   5048      9     0.00   0.41840   2 ;   C113-  C112-  C111-  C110
  5039   5042   5045   5048      9     0.00   0.41840   4 ;   C113-  C112-  C111-  C110
  5039   5042   5045   5048      9     0.00   0.41840   5 ;   C113-  C112-  C111-  C110
  5039   5042   5045   5048      9     0.00   1.25520   3 ;   C113-  C112-  C111-  C110
  5040   5039   5042   5043      9     0.00   0.62760   3 ;   H13R-  C113-  C112-  H12R
  5040   5039   5042   5044      9     0.00   0.62760   3 ;   H13R-  C113-  C112-  H12S
  5040   5039   5042   5045      9     0.00   0.66944   3 ;   H13R-  C113-  C112-  C111
  5041   5039   5042   5043      9     0.00   0.62760   3 ;   H13S-  C113-  C112-  H12R
  5041   5039   5042   5044      9     0.00   0.62760   3 ;   H13S-  C113-  C112-  H12S
  5041   5039   5042   5045      9     0.00   0.66944   3 ;   H13S-  C113-  C112-  C111
  5042   5045   5048   5049      9     0.00   0.66944   3 ;   C112-  C111-  C110-  H10R
  5042   5045   5048   5050      9     0.00   0.66944   3 ;   C112-  C111-  C110-  H10S
  5042   5045   5048   5051      9     0.00   0.41840   1 ;   C112-  C111-  C110-   C19
  5042   5045   5048   5051      9     0.00   0.41840   2 ;   C112-  C111-  C110-   C19
  5042   5045   5048   5051      9     0.00   0.41840   4 ;   C112-  C111-  C110-   C19
  5042   5045   5048   5051      9     0.00   0.41840   5 ;   C112-  C111-  C110-   C19
  5042   5045   5048   5051      9     0.00   1.25520   3 ;   C112-  C111-  C110-   C19
  5043   5042   5045   5046      9     0.00   0.62760   3 ;   H12R-  C112-  C111-  H11R
  5043   5042   5045   5047      9     0.00   0.62760   3 ;   H12R-  C112-  C111-  H11S
  5043   5042   5045   5048      9     0.00   0.66944   3 ;   H12R-  C112-  C111-  C110
  5044   5042   5045   5046      9     0.00   0.62760   3 ;   H12S-  C112-  C111-  H11R
  5044   5042   5045   5047      9     0.00   0.62760   3 ;   H12S-  C112-  C111-  H11S
  5044   5042   5045   5048      9     0.00   0.66944   3 ;   H12S-  C112-  C111-  C110
  5045   5048   5051   5052      9     0.00   0.66944   3 ;   C111-  C110-   C19-   H9R
  5045   5048   5051   5053      9     0.00   0.66944   3 ;   C111-  C110-   C19-   H9S
  5045   5048   5051   5054      9     0.00   0.41840   1 ;   C111-  C110-   C19-   C18
  5045   5048   5051   5054      9     0.00   0.41840   2 ;   C111-  C110-   C19-   C18
  5045   5048   5051   5054      9     0.00   0.41840   4 ;   C111-  C110-   C19-   C18
  5045   5048   5051   5054      9     0.00   0.41840   5 ;   C111-  C110-   C19-   C18
  5045   5048   5051   5054      9     0.00   1.25520   3 ;   C111-  C110-   C19-   C18
  5046   5045   5048   5049      9     0.00   0.62760   3 ;   H11R-  C111-  C110-  H10R
  5046   5045   5048   5050      9     0.00   0.62760   3 ;   H11R-  C111-  C110-  H10S
  5046   5045   5048   5051      9     0.00   0.66944   3 ;   H11R-  C111-  C110-   C19
  5047   5045   5048   5049      9     0.00   0.62760   3 ;   H11S-  C111-  C110-  H10R
  5047   5045   5048   5050      9     0.00   0.62760   3 ;   H11S-  C111-  C110-  H10S
  5047   5045   5048   5051      9     0.00   0.66944   3 ;   H11S-  C111-  C110-   C19
  5048   5051   5054   5055      9     0.00   0.66944   3 ;   C110-   C19-   C18-   H8R
  5048   5051   5054   5056      9     0.00   0.66944   3 ;   C110-   C19-   C18-   H8S
  5048   5051   5054   5057      9     0.00   0.41840   1 ;   C110-   C19-   C18-   C17
  5048   5051   5054   5057      9     0.00   0.41840   2 ;   C110-   C19-   C18-   C17
  5048   5051   5054   5057      9     0.00   0.41840   4 ;   C110-   C19-   C18-   C17
  5048   5051   5054   5057      9     0.00   0.41840   5 ;   C110-   C19-   C18-   C17
  5048   5051   5054   5057      9     0.00   1.25520   3 ;   C110-   C19-   C18-   C17
  5049   5048   5051   5052      9     0.00   0.62760   3 ;   H10R-  C110-   C19-   H9R
  5049   5048   5051   5053      9     0.00   0.62760   3 ;   H10R-  C110-   C19-   H9S
  5049   5048   5051   5054      9     0.00   0.66944   3 ;   H10R-  C110-   C19-   C18
  5050   5048   5051   5052      9     0.00   0.62760   3 ;   H10S-  C110-   C19-   H9R
  5050   5048   5051   5053      9     0.00   0.62760   3 ;   H10S-  C110-   C19-   H9S
  5050   5048   5051   5054      9     0.00   0.66944   3 ;   H10S-  C110-   C19-   C18
  5051   5054   5057   5058      9     0.00   0.66944   3 ;    C19-   C18-   C17-   H7R
  5051   5054   5057   5059      9     0.00   0.66944   3 ;    C19-   C18-   C17-   H7S
  5051   5054   5057   5060      9     0.00   0.41840   1 ;    C19-   C18-   C17-   C16
  5051   5054   5057   5060      9     0.00   0.41840   2 ;    C19-   C18-   C17-   C16
  5051   5054   5057   5060      9     0.00   0.41840   4 ;    C19-   C18-   C17-   C16
  5051   5054   5057   5060      9     0.00   0.41840   5 ;    C19-   C18-   C17-   C16
  5051   5054   5057   5060      9     0.00   1.25520   3 ;    C19-   C18-   C17-   C16
  5052   5051   5054   5055      9     0.00   0.62760   3 ;    H9R-   C19-   C18-   H8R
  5052   5051   5054   5056      9     0.00   0.62760   3 ;    H9R-   C19-   C18-   H8S
  5052   5051   5054   5057      9     0.00   0.66944   3 ;    H9R-   C19-   C18-   C17
  5053   5051   5054   5055      9     0.00   0.62760   3 ;    H9S-   C19-   C18-   H8R
  5053   5051   5054   5056      9     0.00   0.62760   3 ;    H9S-   C19-   C18-   H8S
  5053   5051   5054   5057      9     0.00   0.66944   3 ;    H9S-   C19-   C18-   C17
  5054   5057   5060   5061      9     0.00   0.66944   3 ;    C18-   C17-   C16-   H6R
  5054   5057   5060   5062      9     0.00   0.66944   3 ;    C18-   C17-   C16-   H6S
  5054   5057   5060   5063      9     0.00   0.41840   1 ;    C18-   C17-   C16-   C15
  5054   5057   5060   5063      9     0.00   0.41840   2 ;    C18-   C17-   C16-   C15
  5054   5057   5060   5063      9     0.00   0.41840   4 ;    C18-   C17-   C16-   C15
  5054   5057   5060   5063      9     0.00   0.41840   5 ;    C18-   C17-   C16-   C15
  5054   5057   5060   5063      9     0.00   1.25520   3 ;    C18-   C17-   C16-   C15
  5055   5054   5057   5058      9     0.00   0.62760   3 ;    H8R-   C18-   C17-   H7R
  5055   5054   5057   5059      9     0.00   0.62760   3 ;    H8R-   C18-   C17-   H7S
  5055   5054   5057   5060      9     0.00   0.66944   3 ;    H8R-   C18-   C17-   C16
  5056   5054   5057   5058      9     0.00   0.62760   3 ;    H8S-   C18-   C17-   H7R
  5056   5054   5057   5059      9     0.00   0.62760   3 ;    H8S-   C18-   C17-   H7S
  5056   5054   5057   5060      9     0.00   0.66944   3 ;    H8S-   C18-   C17-   C16
  5057   5060   5063   5064      9     0.00   0.66944   3 ;    C17-   C16-   C15-   H5R
  5057   5060   5063   5065      9     0.00   0.66944   3 ;    C17-   C16-   C15-   H5S
  5057   5060   5063   5066      9     0.00   0.41840   1 ;    C17-   C16-   C15-   C14
  5057   5060   5063   5066      9     0.00   0.41840   2 ;    C17-   C16-   C15-   C14
  5057   5060   5063   5066      9     0.00   0.41840   4 ;    C17-   C16-   C15-   C14
  5057   5060   5063   5066      9     0.00   0.41840   5 ;    C17-   C16-   C15-   C14
  5057   5060   5063   5066      9     0.00   1.25520   3 ;    C17-   C16-   C15-   C14
  5058   5057   5060   5061      9     0.00   0.62760   3 ;    H7R-   C17-   C16-   H6R
  5058   5057   5060   5062      9     0.00   0.62760   3 ;    H7R-   C17-   C16-   H6S
  5058   5057   5060   5063      9     0.00   0.66944   3 ;    H7R-   C17-   C16-   C15
  5059   5057   5060   5061      9     0.00   0.62760   3 ;    H7S-   C17-   C16-   H6R
  5059   5057   5060   5062      9     0.00   0.62760   3 ;    H7S-   C17-   C16-   H6S
  5059   5057   5060   5063      9     0.00   0.66944   3 ;    H7S-   C17-   C16-   C15
  5060   5063   5066   5067      9     0.00   0.66944   3 ;    C16-   C15-   C14-   H4R
  5060   5063   5066   5068      9     0.00   0.66944   3 ;    C16-   C15-   C14-   H4S
  5060   5063   5066   5069      9     0.00   0.41840   1 ;    C16-   C15-   C14-   C13
  5060   5063   5066   5069      9     0.00   0.41840   2 ;    C16-   C15-   C14-   C13
  5060   5063   5066   5069      9     0.00   0.41840   4 ;    C16-   C15-   C14-   C13
  5060   5063   5066   5069      9     0.00   0.41840   5 ;    C16-   C15-   C14-   C13
  5060   5063   5066   5069      9     0.00   1.25520   3 ;    C16-   C15-   C14-   C13
  5061   5060   5063   5064      9     0.00   0.62760   3 ;    H6R-   C16-   C15-   H5R
  5061   5060   5063   5065      9     0.00   0.62760   3 ;    H6R-   C16-   C15-   H5S
  5061   5060   5063   5066      9     0.00   0.66944   3 ;    H6R-   C16-   C15-   C14
  5062   5060   5063   5064      9     0.00   0.62760   3 ;    H6S-   C16-   C15-   H5R
  5062   5060   5063   5065      9     0.00   0.62760   3 ;    H6S-   C16-   C15-   H5S
  5062   5060   5063   5066      9     0.00   0.66944   3 ;    H6S-   C16-   C15-   C14
  5063   5066   5069   5070      9     0.00   0.66944   3 ;    C15-   C14-   C13-   H3R
  5063   5066   5069   5071      9     0.00   0.66944   3 ;    C15-   C14-   C13-   H3S
  5063   5066   5069   5072      9     0.00   0.41840   1 ;    C15-   C14-   C13-   C12
  5063   5066   5069   5072      9     0.00   0.41840   2 ;    C15-   C14-   C13-   C12
  5063   5066   5069   5072      9     0.00   0.41840   4 ;    C15-   C14-   C13-   C12
  5063   5066   5069   5072      9     0.00   0.41840   5 ;    C15-   C14-   C13-   C12
  5063   5066   5069   5072      9     0.00   1.25520   3 ;    C15-   C14-   C13-   C12
  5064   5063   5066   5067      9     0.00   0.62760   3 ;    H5R-   C15-   C14-   H4R
  5064   5063   5066   5068      9     0.00   0.62760   3 ;    H5R-   C15-   C14-   H4S
  5064   5063   5066   5069      9     0.00   0.66944   3 ;    H5R-   C15-   C14-   C13
  5065   5063   5066   5067      9     0.00   0.62760   3 ;    H5S-   C15-   C14-   H4R
  5065   5063   5066   5068      9     0.00   0.62760   3 ;    H5S-   C15-   C14-   H4S
  5065   5063   5066   5069      9     0.00   0.66944   3 ;    H5S-   C15-   C14-   C13
  5066   5069   5072   5073      9     0.00   0.66944   3 ;    C14-   C13-   C12-   H2R
  5066   5069   5072   5074      9     0.00   0.66944   3 ;    C14-   C13-   C12-   H2S
  5067   5066   5069   5070      9     0.00   0.62760   3 ;    H4R-   C14-   C13-   H3R
  5067   5066   5069   5071      9     0.00   0.62760   3 ;    H4R-   C14-   C13-   H3S
  5067   5066   5069   5072      9     0.00   0.66944   3 ;    H4R-   C14-   C13-   C12
  5068   5066   5069   5070      9     0.00   0.62760   3 ;    H4S-   C14-   C13-   H3R
  5068   5066   5069   5071      9     0.00   0.62760   3 ;    H4S-   C14-   C13-   H3S
  5068   5066   5069   5072      9     0.00   0.66944   3 ;    H4S-   C14-   C13-   C12
  5070   5069   5072   5073      9     0.00   0.62760   3 ;    H3R-   C13-   C12-   H2R
  5070   5069   5072   5074      9     0.00   0.62760   3 ;    H3R-   C13-   C12-   H2S
  5071   5069   5072   5073      9     0.00   0.62760   3 ;    H3S-   C13-   C12-   H2R
  5071   5069   5072   5074      9     0.00   0.62760   3 ;    H3S-   C13-   C12-   H2S
  5075   5076   5079   5080      9     0.00   0.62760   3 ;   H14T-  C114-  C113-  H13R
  5075   5076   5079   5081      9     0.00   0.62760   3 ;   H14T-  C114-  C113-  H13S
  5075   5076   5079   5082      9     0.00   0.66944   3 ;   H14T-  C114-  C113-  C112
  5076   5079   5082   5083      9     0.00   0.66944   3 ;   C114-  C113-  C112-  H12R
  5076   5079   5082   5084      9     0.00   0.66944   3 ;   C114-  C113-  C112-  H12S
  5076   5079   5082   5085      9     0.00   0.41840   1 ;   C114-  C113-  C112-  C111
  5076   5079   5082   5085      9     0.00   0.41840   2 ;   C114-  C113-  C112-  C111
  5076   5079   5082   5085      9     0.00   0.41840   4 ;   C114-  C113-  C112-  C111
  5076   5079   5082   5085      9     0.00   0.41840   5 ;   C114-  C113-  C112-  C111
  5076   5079   5082   5085      9     0.00   1.25520   3 ;   C114-  C113-  C112-  C111
  5077   5076   5079   5080      9     0.00   0.62760   3 ;   H14R-  C114-  C113-  H13R
  5077   5076   5079   5081      9     0.00   0.62760   3 ;   H14R-  C114-  C113-  H13S
  5077   5076   5079   5082      9     0.00   0.66944   3 ;   H14R-  C114-  C113-  C112
  5078   5076   5079   5080      9     0.00   0.62760   3 ;   H14S-  C114-  C113-  H13R
  5078   5076   5079   5081      9     0.00   0.62760   3 ;   H14S-  C114-  C113-  H13S
  5078   5076   5079   5082      9     0.00   0.66944   3 ;   H14S-  C114-  C113-  C112
  5079   5082   5085   5086      9     0.00   0.66944   3 ;   C113-  C112-  C111-  H11R
  5079   5082   5085   5087      9     0.00   0.66944   3 ;   C113-  C112-  C111-  H11S
  5079   5082   5085   5088      9     0.00   0.41840   1 ;   C113-  C112-  C111-  C110
  5079   5082   5085   5088      9     0.00   0.41840   2 ;   C113-  C112-  C111-  C110
  5079   5082   5085   5088      9     0.00   0.41840   4 ;   C113-  C112-  C111-  C110
  5079   5082   5085   5088      9     0.00   0.41840   5 ;   C113-  C112-  C111-  C110
  5079   5082   5085   5088      9     0.00   1.25520   3 ;   C113-  C112-  C111-  C110
  5080   5079   5082   5083      9     0.00   0.62760   3 ;   H13R-  C113-  C112-  H12R
  5080   5079   5082   5084      9     0.00   0.62760   3 ;   H13R-  C113-  C112-  H12S
  5080   5079   5082   5085      9     0.00   0.66944   3 ;   H13R-  C113-  C112-  C111
  5081   5079   5082   5083      9     0.00   0.62760   3 ;   H13S-  C113-  C112-  H12R
  5081   5079   5082   5084      9     0.00   0.62760   3 ;   H13S-  C113-  C112-  H12S
  5081   5079   5082   5085      9     0.00   0.66944   3 ;   H13S-  C113-  C112-  C111
  5082   5085   5088   5089      9     0.00   0.66944   3 ;   C112-  C111-  C110-  H10R
  5082   5085   5088   5090      9     0.00   0.66944   3 ;   C112-  C111-  C110-  H10S
  5082   5085   5088   5091      9     0.00   0.41840   1 ;   C112-  C111-  C110-   C19
  5082   5085   5088   5091      9     0.00   0.41840   2 ;   C112-  C111-  C110-   C19
  5082   5085   5088   5091      9     0.00   0.41840   4 ;   C112-  C111-  C110-   C19
  5082   5085   5088   5091      9     0.00   0.41840   5 ;   C112-  C111-  C110-   C19
  5082   5085   5088   5091      9     0.00   1.25520   3 ;   C112-  C111-  C110-   C19
  5083   5082   5085   5086      9     0.00   0.62760   3 ;   H12R-  C112-  C111-  H11R
  5083   5082   5085   5087      9     0.00   0.62760   3 ;   H12R-  C112-  C111-  H11S
  5083   5082   5085   5088      9     0.00   0.66944   3 ;   H12R-  C112-  C111-  C110
  5084   5082   5085   5086      9     0.00   0.62760   3 ;   H12S-  C112-  C111-  H11R
  5084   5082   5085   5087      9     0.00   0.62760   3 ;   H12S-  C112-  C111-  H11S
  5084   5082   5085   5088      9     0.00   0.66944   3 ;   H12S-  C112-  C111-  C110
  5085   5088   5091   5092      9     0.00   0.66944   3 ;   C111-  C110-   C19-   H9R
  5085   5088   5091   5093      9     0.00   0.66944   3 ;   C111-  C110-   C19-   H9S
  5085   5088   5091   5094      9     0.00   0.41840   1 ;   C111-  C110-   C19-   C18
  5085   5088   5091   5094      9     0.00   0.41840   2 ;   C111-  C110-   C19-   C18
  5085   5088   5091   5094      9     0.00   0.41840   4 ;   C111-  C110-   C19-   C18
  5085   5088   5091   5094      9     0.00   0.41840   5 ;   C111-  C110-   C19-   C18
  5085   5088   5091   5094      9     0.00   1.25520   3 ;   C111-  C110-   C19-   C18
  5086   5085   5088   5089      9     0.00   0.62760   3 ;   H11R-  C111-  C110-  H10R
  5086   5085   5088   5090      9     0.00   0.62760   3 ;   H11R-  C111-  C110-  H10S
  5086   5085   5088   5091      9     0.00   0.66944   3 ;   H11R-  C111-  C110-   C19
  5087   5085   5088   5089      9     0.00   0.62760   3 ;   H11S-  C111-  C110-  H10R
  5087   5085   5088   5090      9     0.00   0.62760   3 ;   H11S-  C111-  C110-  H10S
  5087   5085   5088   5091      9     0.00   0.66944   3 ;   H11S-  C111-  C110-   C19
  5088   5091   5094   5095      9     0.00   0.66944   3 ;   C110-   C19-   C18-   H8R
  5088   5091   5094   5096      9     0.00   0.66944   3 ;   C110-   C19-   C18-   H8S
  5088   5091   5094   5097      9     0.00   0.41840   1 ;   C110-   C19-   C18-   C17
  5088   5091   5094   5097      9     0.00   0.41840   2 ;   C110-   C19-   C18-   C17
  5088   5091   5094   5097      9     0.00   0.41840   4 ;   C110-   C19-   C18-   C17
  5088   5091   5094   5097      9     0.00   0.41840   5 ;   C110-   C19-   C18-   C17
  5088   5091   5094   5097      9     0.00   1.25520   3 ;   C110-   C19-   C18-   C17
  5089   5088   5091   5092      9     0.00   0.62760   3 ;   H10R-  C110-   C19-   H9R
  5089   5088   5091   5093      9     0.00   0.62760   3 ;   H10R-  C110-   C19-   H9S
  5089   5088   5091   5094      9     0.00   0.66944   3 ;   H10R-  C110-   C19-   C18
  5090   5088   5091   5092      9     0.00   0.62760   3 ;   H10S-  C110-   C19-   H9R
  5090   5088   5091   5093      9     0.00   0.62760   3 ;   H10S-  C110-   C19-   H9S
  5090   5088   5091   5094      9     0.00   0.66944   3 ;   H10S-  C110-   C19-   C18
  5091   5094   5097   5098      9     0.00   0.66944   3 ;    C19-   C18-   C17-   H7R
  5091   5094   5097   5099      9     0.00   0.66944   3 ;    C19-   C18-   C17-   H7S
  5091   5094   5097   5100      9     0.00   0.41840   1 ;    C19-   C18-   C17-   C16
  5091   5094   5097   5100      9     0.00   0.41840   2 ;    C19-   C18-   C17-   C16
  5091   5094   5097   5100      9     0.00   0.41840   4 ;    C19-   C18-   C17-   C16
  5091   5094   5097   5100      9     0.00   0.41840   5 ;    C19-   C18-   C17-   C16
  5091   5094   5097   5100      9     0.00   1.25520   3 ;    C19-   C18-   C17-   C16
  5092   5091   5094   5095      9     0.00   0.62760   3 ;    H9R-   C19-   C18-   H8R
  5092   5091   5094   5096      9     0.00   0.62760   3 ;    H9R-   C19-   C18-   H8S
  5092   5091   5094   5097      9     0.00   0.66944   3 ;    H9R-   C19-   C18-   C17
  5093   5091   5094   5095      9     0.00   0.62760   3 ;    H9S-   C19-   C18-   H8R
  5093   5091   5094   5096      9     0.00   0.62760   3 ;    H9S-   C19-   C18-   H8S
  5093   5091   5094   5097      9     0.00   0.66944   3 ;    H9S-   C19-   C18-   C17
  5094   5097   5100   5101      9     0.00   0.66944   3 ;    C18-   C17-   C16-   H6R
  5094   5097   5100   5102      9     0.00   0.66944   3 ;    C18-   C17-   C16-   H6S
  5094   5097   5100   5103      9     0.00   0.41840   1 ;    C18-   C17-   C16-   C15
  5094   5097   5100   5103      9     0.00   0.41840   2 ;    C18-   C17-   C16-   C15
  5094   5097   5100   5103      9     0.00   0.41840   4 ;    C18-   C17-   C16-   C15
  5094   5097   5100   5103      9     0.00   0.41840   5 ;    C18-   C17-   C16-   C15
  5094   5097   5100   5103      9     0.00   1.25520   3 ;    C18-   C17-   C16-   C15
  5095   5094   5097   5098      9     0.00   0.62760   3 ;    H8R-   C18-   C17-   H7R
  5095   5094   5097   5099      9     0.00   0.62760   3 ;    H8R-   C18-   C17-   H7S
  5095   5094   5097   5100      9     0.00   0.66944   3 ;    H8R-   C18-   C17-   C16
  5096   5094   5097   5098      9     0.00   0.62760   3 ;    H8S-   C18-   C17-   H7R
  5096   5094   5097   5099      9     0.00   0.62760   3 ;    H8S-   C18-   C17-   H7S
  5096   5094   5097   5100      9     0.00   0.66944   3 ;    H8S-   C18-   C17-   C16
  5097   5100   5103   5104      9     0.00   0.66944   3 ;    C17-   C16-   C15-   H5R
  5097   5100   5103   5105      9     0.00   0.66944   3 ;    C17-   C16-   C15-   H5S
  5097   5100   5103   5106      9     0.00   0.41840   1 ;    C17-   C16-   C15-   C14
  5097   5100   5103   5106      9     0.00   0.41840   2 ;    C17-   C16-   C15-   C14
  5097   5100   5103   5106      9     0.00   0.41840   4 ;    C17-   C16-   C15-   C14
  5097   5100   5103   5106      9     0.00   0.41840   5 ;    C17-   C16-   C15-   C14
  5097   5100   5103   5106      9     0.00   1.25520   3 ;    C17-   C16-   C15-   C14
  5098   5097   5100   5101      9     0.00   0.62760   3 ;    H7R-   C17-   C16-   H6R
  5098   5097   5100   5102      9     0.00   0.62760   3 ;    H7R-   C17-   C16-   H6S
  5098   5097   5100   5103      9     0.00   0.66944   3 ;    H7R-   C17-   C16-   C15
  5099   5097   5100   5101      9     0.00   0.62760   3 ;    H7S-   C17-   C16-   H6R
  5099   5097   5100   5102      9     0.00   0.62760   3 ;    H7S-   C17-   C16-   H6S
  5099   5097   5100   5103      9     0.00   0.66944   3 ;    H7S-   C17-   C16-   C15
  5100   5103   5106   5107      9     0.00   0.66944   3 ;    C16-   C15-   C14-   H4R
  5100   5103   5106   5108      9     0.00   0.66944   3 ;    C16-   C15-   C14-   H4S
  5100   5103   5106   5109      9     0.00   0.41840   1 ;    C16-   C15-   C14-   C13
  5100   5103   5106   5109      9     0.00   0.41840   2 ;    C16-   C15-   C14-   C13
  5100   5103   5106   5109      9     0.00   0.41840   4 ;    C16-   C15-   C14-   C13
  5100   5103   5106   5109      9     0.00   0.41840   5 ;    C16-   C15-   C14-   C13
  5100   5103   5106   5109      9     0.00   1.25520   3 ;    C16-   C15-   C14-   C13
  5101   5100   5103   5104      9     0.00   0.62760   3 ;    H6R-   C16-   C15-   H5R
  5101   5100   5103   5105      9     0.00   0.62760   3 ;    H6R-   C16-   C15-   H5S
  5101   5100   5103   5106      9     0.00   0.66944   3 ;    H6R-   C16-   C15-   C14
  5102   5100   5103   5104      9     0.00   0.62760   3 ;    H6S-   C16-   C15-   H5R
  5102   5100   5103   5105      9     0.00   0.62760   3 ;    H6S-   C16-   C15-   H5S
  5102   5100   5103   5106      9     0.00   0.66944   3 ;    H6S-   C16-   C15-   C14
  5103   5106   5109   5110      9     0.00   0.66944   3 ;    C15-   C14-   C13-   H3R
  5103   5106   5109   5111      9     0.00   0.66944   3 ;    C15-   C14-   C13-   H3S
  5103   5106   5109   5112      9     0.00   0.41840   1 ;    C15-   C14-   C13-   C12
  5103   5106   5109   5112      9     0.00   0.41840   2 ;    C15-   C14-   C13-   C12
  5103   5106   5109   5112      9     0.00   0.41840   4 ;    C15-   C14-   C13-   C12
  5103   5106   5109   5112      9     0.00   0.41840   5 ;    C15-   C14-   C13-   C12
  5103   5106   5109   5112      9     0.00   1.25520   3 ;    C15-   C14-   C13-   C12
  5104   5103   5106   5107      9     0.00   0.62760   3 ;    H5R-   C15-   C14-   H4R
  5104   5103   5106   5108      9     0.00   0.62760   3 ;    H5R-   C15-   C14-   H4S
  5104   5103   5106   5109      9     0.00   0.66944   3 ;    H5R-   C15-   C14-   C13
  5105   5103   5106   5107      9     0.00   0.62760   3 ;    H5S-   C15-   C14-   H4R
  5105   5103   5106   5108      9     0.00   0.62760   3 ;    H5S-   C15-   C14-   H4S
  5105   5103   5106   5109      9     0.00   0.66944   3 ;    H5S-   C15-   C14-   C13
  5106   5109   5112   5113      9     0.00   0.66944   3 ;    C14-   C13-   C12-   H2R
  5106   5109   5112   5114      9     0.00   0.66944   3 ;    C14-   C13-   C12-   H2S
  5106   5109   5112   5115      9     0.00   0.65270   3 ;    C14-   C13-   C12-   C11
  5107   5106   5109   5110      9     0.00   0.62760   3 ;    H4R-   C14-   C13-   H3R
  5107   5106   5109   5111      9     0.00   0.62760   3 ;    H4R-   C14-   C13-   H3S
  5107   5106   5109   5112      9     0.00   0.66944   3 ;    H4R-   C14-   C13-   C12
  5108   5106   5109   5110      9     0.00   0.62760   3 ;    H4S-   C14-   C13-   H3R
  5108   5106   5109   5111      9     0.00   0.62760   3 ;    H4S-   C14-   C13-   H3S
  5108   5106   5109   5112      9     0.00   0.66944   3 ;    H4S-   C14-   C13-   C12
  5109   5112   5115   5116      9   180.00   0.00000   2 ;    C13-   C12-   C11-   O12
  5109   5112   5115   5117      9   180.00   0.00000   2 ;    C13-   C12-   C11-   O11
  5110   5109   5112   5113      9     0.00   0.62760   3 ;    H3R-   C13-   C12-   H2R
  5110   5109   5112   5114      9     0.00   0.62760   3 ;    H3R-   C13-   C12-   H2S
  5110   5109   5112   5115      9     0.00   0.65270   3 ;    H3R-   C13-   C12-   C11
  5111   5109   5112   5113      9     0.00   0.62760   3 ;    H3S-   C13-   C12-   H2R
  5111   5109   5112   5114      9     0.00   0.62760   3 ;    H3S-   C13-   C12-   H2S
  5111   5109   5112   5115      9     0.00   0.65270   3 ;    H3S-   C13-   C12-   C11
  5112   5115   5117   5118      9   180.00  11.29680   2 ;    C12-   C11-   O11-    C1
  5113   5112   5115   5116      9     0.00   3.34720   1 ;    H2R-   C12-   C11-   O12
  5113   5112   5115   5116      9   180.00   0.33472   3 ;    H2R-   C12-   C11-   O12
  5113   5112   5115   5117      9   180.00   0.00000   2 ;    H2R-   C12-   C11-   O11
  5114   5112   5115   5116      9     0.00   3.34720   1 ;    H2S-   C12-   C11-   O12
  5114   5112   5115   5116      9   180.00   0.33472   3 ;    H2S-   C12-   C11-   O12
  5114   5112   5115   5117      9   180.00   0.00000   2 ;    H2S-   C12-   C11-   O11
  5115   5117   5118   5119      9     0.00   1.60247   3 ;    C11-   O11-    C1-    HR
  5115   5117   5118   5120      9     0.00   1.60247   3 ;    C11-   O11-    C1-    HS
  5115   5117   5118   5121      9     0.00  -0.41840   1 ;    C11-   O11-    C1-    C2
  5116   5115   5117   5118      9   180.00   5.85760   1 ;    O12-   C11-   O11-    C1
  5116   5115   5117   5118      9   180.00  11.29680   2 ;    O12-   C11-   O11-    C1
  5117   5118   5121   5122      9     0.00   0.00000   0 ;    O11-    C1-    C2-    HX
  5117   5118   5121   5122      9     0.00   1.04600   1 ;    O11-    C1-    C2-    HX
  5117   5118   5121   5123      9     0.00   0.00000   0 ;    O11-    C1-    C2-    C3
  5117   5118   5121   5123      9     0.00   0.00000   0 ;    O11-    C1-    C2-    C3
  5117   5118   5121   5123      9     0.00   0.00000   0 ;    O11-    C1-    C2-    C3
  5117   5118   5121   5123      9     0.00   0.00000   0 ;    O11-    C1-    C2-    C3
  5117   5118   5121   5123      9     0.00   0.00000   0 ;    O11-    C1-    C2-    C3
  5117   5118   5121   5150      9     0.00   1.25520   2 ;    O11-    C1-    C2-   O21
  5117   5118   5121   5150      9     0.00   4.18400   3 ;    O11-    C1-    C2-   O21
  5117   5118   5121   5150      9   180.00  -0.41840   1 ;    O11-    C1-    C2-   O21
  5118   5121   5123   5124      9     0.00   0.65270   3 ;     C1-    C2-    C3-    HA
  5118   5121   5123   5125      9     0.00   0.65270   3 ;     C1-    C2-    C3-    HB
  5118   5121   5123   5126      9   180.00   3.34720   1 ;     C1-    C2-    C3-   O31
  5118   5121   5150   5151      9     0.00  -0.41840   1 ;     C1-    C2-   O21-   C21
  5119   5118   5121   5122      9     0.00   0.65270   3 ;     HR-    C1-    C2-    HX
  5119   5118   5121   5123      9     0.00   0.65270   3 ;     HR-    C1-    C2-    C3
  5119   5118   5121   5150      9     0.00   0.00000   0 ;     HR-    C1-    C2-   O21
  5119   5118   5121   5150      9     0.00   1.04600   1 ;     HR-    C1-    C2-   O21
  5120   5118   5121   5122      9     0.00   0.65270   3 ;     HS-    C1-    C2-    HX
  5120   5118   5121   5123      9     0.00   0.65270   3 ;     HS-    C1-    C2-    C3
  5120   5118   5121   5150      9     0.00   0.00000   0 ;     HS-    C1-    C2-   O21
  5120   5118   5121   5150      9     0.00   1.04600   1 ;     HS-    C1-    C2-   O21
  5121   5123   5126   5127      9     0.00   0.00000   0 ;     C2-    C3-   O31-   P31
  5121   5123   5126   5127      9   180.00  -3.34720   2 ;     C2-    C3-   O31-   P31
  5121   5150   5151   5152      9   180.00   5.85760   1 ;     C2-   O21-   C21-   O22
  5121   5150   5151   5152      9   180.00  11.29680   2 ;     C2-   O21-   C21-   O22
  5121   5150   5151   5190      9   180.00  11.29680   2 ;     C2-   O21-   C21-   C12
  5122   5121   5123   5124      9     0.00   0.65270   3 ;     HX-    C2-    C3-    HA
  5122   5121   5123   5125      9     0.00   0.65270   3 ;     HX-    C2-    C3-    HB
  5122   5121   5123   5126      9     0.00   0.00000   0 ;     HX-    C2-    C3-   O31
  5122   5121   5123   5126      9     0.00   1.04600   1 ;     HX-    C2-    C3-   O31
  5122   5121   5150   5151      9     0.00   1.60247   3 ;     HX-    C2-   O21-   C21
  5123   5121   5150   5151      9     0.00  -0.41840   1 ;     C3-    C2-   O21-   C21
  5123   5126   5127   5128      9     0.00   2.51040   3 ;     C3-   O31-   P31-   O32
  5123   5126   5127   5128      9     0.00   9.62320   2 ;     C3-   O31-   P31-   O32
  5123   5126   5127   5148      9     0.00   0.00000   0 ;     C3-   O31-   P31-   O33
  5123   5126   5127   5148      9     0.00   0.00000   0 ;     C3-   O31-   P31-   O33
  5123   5126   5127   5148      9     0.00   0.00000   0 ;     C3-   O31-   P31-   O33
  5123   5126   5127   5148      9     0.00   0.00000   0 ;     C3-   O31-   P31-   O33
  5123   5126   5127   5148      9     0.00   0.83680   2 ;     C3-   O31-   P31-   O33
  5123   5126   5127   5149      9     0.00   0.00000   0 ;     C3-   O31-   P31-   O34
  5123   5126   5127   5149      9     0.00   0.00000   0 ;     C3-   O31-   P31-   O34
  5123   5126   5127   5149      9     0.00   0.00000   0 ;     C3-   O31-   P31-   O34
  5123   5126   5127   5149      9     0.00   0.00000   0 ;     C3-   O31-   P31-   O34
  5123   5126   5127   5149      9     0.00   0.83680   2 ;     C3-   O31-   P31-   O34
  5124   5123   5121   5150      9     0.00   0.00000   0 ;     HA-    C3-    C2-   O21
  5124   5123   5121   5150      9     0.00   1.04600   1 ;     HA-    C3-    C2-   O21
  5124   5123   5126   5127      9     0.00   0.00000   0 ;     HA-    C3-   O31-   P31
  5124   5123   5126   5127      9     0.00   0.00000   0 ;     HA-    C3-   O31-   P31
  5124   5123   5126   5127      9     0.00   0.00000   0 ;     HA-    C3-   O31-   P31
  5124   5123   5126   5127      9     0.00   0.00000   0 ;     HA-    C3-   O31-   P31
  5124   5123   5126   5127      9     0.00   1.60247   3 ;     HA-    C3-   O31-   P31
  5125   5123   5121   5150      9     0.00   0.00000   0 ;     HB-    C3-    C2-   O21
  5125   5123   5121   5150      9     0.00   1.04600   1 ;     HB-    C3-    C2-   O21
  5125   5123   5126   5127      9     0.00   0.00000   0 ;     HB-    C3-   O31-   P31
  5125   5123   5126   5127      9     0.00   0.00000   0 ;     HB-    C3-   O31-   P31
  5125   5123   5126   5127      9     0.00   0.00000   0 ;     HB-    C3-   O31-   P31
  5125   5123   5126   5127      9     0.00   0.00000   0 ;     HB-    C3-   O31-   P31
  5125   5123   5126   5127      9     0.00   1.60247   3 ;     HB-    C3-   O31-   P31
  5126   5123   5121   5150      9     0.00   0.00000   0 ;    O31-    C3-    C2-   O21
  5126   5123   5121   5150      9     0.00   0.00000   0 ;    O31-    C3-    C2-   O21
  5126   5123   5121   5150      9     0.00   0.00000   0 ;    O31-    C3-    C2-   O21
  5126   5123   5121   5150      9     0.00   0.00000   0 ;    O31-    C3-    C2-   O21
  5126   5123   5121   5150      9     0.00   0.00000   0 ;    O31-    C3-    C2-   O21
  5126   5127   5128   5129      9     0.00   2.51040   3 ;    O31-   P31-   O32-   C31
  5126   5127   5128   5129      9     0.00   9.62320   2 ;    O31-   P31-   O32-   C31
  5127   5128   5129   5130      9     0.00   0.00000   0 ;    P31-   O32-   C31-   H1A
  5127   5128   5129   5130      9     0.00   0.00000   0 ;    P31-   O32-   C31-   H1A
  5127   5128   5129   5130      9     0.00   0.00000   0 ;    P31-   O32-   C31-   H1A
  5127   5128   5129   5130      9     0.00   0.00000   0 ;    P31-   O32-   C31-   H1A
  5127   5128   5129   5130      9     0.00   1.60247   3 ;    P31-   O32-   C31-   H1A
  5127   5128   5129   5131      9     0.00   0.00000   0 ;    P31-   O32-   C31-   H1B
  5127   5128   5129   5131      9     0.00   0.00000   0 ;    P31-   O32-   C31-   H1B
  5127   5128   5129   5131      9     0.00   0.00000   0 ;    P31-   O32-   C31-   H1B
  5127   5128   5129   5131      9     0.00   0.00000   0 ;    P31-   O32-   C31-   H1B
  5127   5128   5129   5131      9     0.00   1.60247   3 ;    P31-   O32-   C31-   H1B
  5127   5128   5129   5132      9     0.00   0.00000   0 ;    P31-   O32-   C31-   C32
  5127   5128   5129   5132      9   180.00  -3.34720   2 ;    P31-   O32-   C31-   C32
  5128   5129   5132   5133      9     0.00   0.65270   3 ;    O32-   C31-   C32-   H2A
  5128   5129   5132   5134      9     0.00   0.65270   3 ;    O32-   C31-   C32-   H2B
  5128   5129   5132   5135      9     0.00   4.18400   3 ;    O32-   C31-   C32-   N31
  5129   5128   5127   5148      9     0.00   0.00000   0 ;    C31-   O32-   P31-   O33
  5129   5128   5127   5148      9     0.00   0.00000   0 ;    C31-   O32-   P31-   O33
  5129   5128   5127   5148      9     0.00   0.00000   0 ;    C31-   O32-   P31-   O33
  5129   5128   5127   5148      9     0.00   0.00000   0 ;    C31-   O32-   P31-   O33
  5129   5128   5127   5148      9     0.00   0.83680   2 ;    C31-   O32-   P31-   O33
  5129   5128   5127   5149      9     0.00   0.00000   0 ;    C31-   O32-   P31-   O34
  5129   5128   5127   5149      9     0.00   0.00000   0 ;    C31-   O32-   P31-   O34
  5129   5128   5127   5149      9     0.00   0.00000   0 ;    C31-   O32-   P31-   O34
  5129   5128   5127   5149      9     0.00   0.00000   0 ;    C31-   O32-   P31-   O34
  5129   5128   5127   5149      9     0.00   0.83680   2 ;    C31-   O32-   P31-   O34
  5129   5132   5135   5136      9     0.00   0.65270   3 ;    C31-   C32-   N31-   C33
  5129   5132   5135   5140      9     0.00   0.65270   3 ;    C31-   C32-   N31-   C34
  5129   5132   5135   5144      9     0.00   0.65270   3 ;    C31-   C32-   N31-   C35
  5130   5129   5132   5133      9     0.00   0.65270   3 ;    H1A-   C31-   C32-   H2A
  5130   5129   5132   5134      9     0.00   0.65270   3 ;    H1A-   C31-   C32-   H2B
  5130   5129   5132   5135      9     0.00   0.65270   3 ;    H1A-   C31-   C32-   N31
  5131   5129   5132   5133      9     0.00   0.65270   3 ;    H1B-   C31-   C32-   H2A
  5131   5129   5132   5134      9     0.00   0.65270   3 ;    H1B-   C31-   C32-   H2B
  5131   5129   5132   5135      9     0.00   0.65270   3 ;    H1B-   C31-   C32-   N31
  5132   5135   5136   5137      9     0.00   0.65270   3 ;    C32-   N31-   C33-   H3A
  5132   5135   5136   5138      9     0.00   0.65270   3 ;    C32-   N31-   C33-   H3B
  5132   5135   5136   5139      9     0.00   0.65270   3 ;    C32-   N31-   C33-   H3C
  5132   5135   5140   5141      9     0.00   0.65270   3 ;    C32-   N31-   C34-   H4A
  5132   5135   5140   5142      9     0.00   0.65270   3 ;    C32-   N31-   C34-   H4B
  5132   5135   5140   5143      9     0.00   0.65270   3 ;    C32-   N31-   C34-   H4C
  5132   5135   5144   5145      9     0.00   0.65270   3 ;    C32-   N31-   C35-   H5A
  5132   5135   5144   5146      9     0.00   0.65270   3 ;    C32-   N31-   C35-   H5B
  5132   5135   5144   5147      9     0.00   0.65270   3 ;    C32-   N31-   C35-   H5C
  5133   5132   5135   5136      9     0.00   0.65270   3 ;    H2A-   C32-   N31-   C33
  5133   5132   5135   5140      9     0.00   0.65270   3 ;    H2A-   C32-   N31-   C34
  5133   5132   5135   5144      9     0.00   0.65270   3 ;    H2A-   C32-   N31-   C35
  5134   5132   5135   5136      9     0.00   0.65270   3 ;    H2B-   C32-   N31-   C33
  5134   5132   5135   5140      9     0.00   0.65270   3 ;    H2B-   C32-   N31-   C34
  5134   5132   5135   5144      9     0.00   0.65270   3 ;    H2B-   C32-   N31-   C35
  5136   5135   5140   5141      9     0.00   0.65270   3 ;    C33-   N31-   C34-   H4A
  5136   5135   5140   5142      9     0.00   0.65270   3 ;    C33-   N31-   C34-   H4B
  5136   5135   5140   5143      9     0.00   0.65270   3 ;    C33-   N31-   C34-   H4C
  5136   5135   5144   5145      9     0.00   0.65270   3 ;    C33-   N31-   C35-   H5A
  5136   5135   5144   5146      9     0.00   0.65270   3 ;    C33-   N31-   C35-   H5B
  5136   5135   5144   5147      9     0.00   0.65270   3 ;    C33-   N31-   C35-   H5C
  5137   5136   5135   5140      9     0.00   0.65270   3 ;    H3A-   C33-   N31-   C34
  5137   5136   5135   5144      9     0.00   0.65270   3 ;    H3A-   C33-   N31-   C35
  5138   5136   5135   5140      9     0.00   0.65270   3 ;    H3B-   C33-   N31-   C34
  5138   5136   5135   5144      9     0.00   0.65270   3 ;    H3B-   C33-   N31-   C35
  5139   5136   5135   5140      9     0.00   0.65270   3 ;    H3C-   C33-   N31-   C34
  5139   5136   5135   5144      9     0.00   0.65270   3 ;    H3C-   C33-   N31-   C35
  5140   5135   5144   5145      9     0.00   0.65270   3 ;    C34-   N31-   C35-   H5A
  5140   5135   5144   5146      9     0.00   0.65270   3 ;    C34-   N31-   C35-   H5B
  5140   5135   5144   5147      9     0.00   0.65270   3 ;    C34-   N31-   C35-   H5C
  5141   5140   5135   5144      9     0.00   0.65270   3 ;    H4A-   C34-   N31-   C35
  5142   5140   5135   5144      9     0.00   0.65270   3 ;    H4B-   C34-   N31-   C35
  5143   5140   5135   5144      9     0.00   0.65270   3 ;    H4C-   C34-   N31-   C35
  5150   5151   5190   5187      9   180.00   0.00000   2 ;    O21-   C21-   C12-   C13
  5150   5151   5190   5191      9   180.00   0.00000   2 ;    O21-   C21-   C12-   H2R
  5150   5151   5190   5192      9   180.00   0.00000   2 ;    O21-   C21-   C12-   H2S
  5151   5190   5187   5184      9     0.00   0.65270   3 ;    C21-   C12-   C13-   C14
  5151   5190   5187   5188      9     0.00   0.65270   3 ;    C21-   C12-   C13-   H3R
  5151   5190   5187   5189      9     0.00   0.65270   3 ;    C21-   C12-   C13-   H3S
  5152   5151   5190   5187      9   180.00   0.00000   2 ;    O22-   C21-   C12-   C13
  5152   5151   5190   5191      9     0.00   3.34720   1 ;    O22-   C21-   C12-   H2R
  5152   5151   5190   5191      9   180.00   0.33472   3 ;    O22-   C21-   C12-   H2R
  5152   5151   5190   5192      9     0.00   3.34720   1 ;    O22-   C21-   C12-   H2S
  5152   5151   5190   5192      9   180.00   0.33472   3 ;    O22-   C21-   C12-   H2S
  5153   5154   5157   5158      9     0.00   0.62760   3 ;   H14T-  C114-  C113-  H13R
  5153   5154   5157   5159      9     0.00   0.62760   3 ;   H14T-  C114-  C113-  H13S
  5153   5154   5157   5160      9     0.00   0.66944   3 ;   H14T-  C114-  C113-  C112
  5154   5157   5160   5161      9     0.00   0.66944   3 ;   C114-  C113-  C112-  H12R
  5154   5157   5160   5162      9     0.00   0.66944   3 ;   C114-  C113-  C112-  H12S
  5154   5157   5160   5163      9     0.00   0.41840   1 ;   C114-  C113-  C112-  C111
  5154   5157   5160   5163      9     0.00   0.41840   2 ;   C114-  C113-  C112-  C111
  5154   5157   5160   5163      9     0.00   0.41840   4 ;   C114-  C113-  C112-  C111
  5154   5157   5160   5163      9     0.00   0.41840   5 ;   C114-  C113-  C112-  C111
  5154   5157   5160   5163      9     0.00   1.25520   3 ;   C114-  C113-  C112-  C111
  5155   5154   5157   5158      9     0.00   0.62760   3 ;   H14R-  C114-  C113-  H13R
  5155   5154   5157   5159      9     0.00   0.62760   3 ;   H14R-  C114-  C113-  H13S
  5155   5154   5157   5160      9     0.00   0.66944   3 ;   H14R-  C114-  C113-  C112
  5156   5154   5157   5158      9     0.00   0.62760   3 ;   H14S-  C114-  C113-  H13R
  5156   5154   5157   5159      9     0.00   0.62760   3 ;   H14S-  C114-  C113-  H13S
  5156   5154   5157   5160      9     0.00   0.66944   3 ;   H14S-  C114-  C113-  C112
  5157   5160   5163   5164      9     0.00   0.66944   3 ;   C113-  C112-  C111-  H11R
  5157   5160   5163   5165      9     0.00   0.66944   3 ;   C113-  C112-  C111-  H11S
  5157   5160   5163   5166      9     0.00   0.41840   1 ;   C113-  C112-  C111-  C110
  5157   5160   5163   5166      9     0.00   0.41840   2 ;   C113-  C112-  C111-  C110
  5157   5160   5163   5166      9     0.00   0.41840   4 ;   C113-  C112-  C111-  C110
  5157   5160   5163   5166      9     0.00   0.41840   5 ;   C113-  C112-  C111-  C110
  5157   5160   5163   5166      9     0.00   1.25520   3 ;   C113-  C112-  C111-  C110
  5158   5157   5160   5161      9     0.00   0.62760   3 ;   H13R-  C113-  C112-  H12R
  5158   5157   5160   5162      9     0.00   0.62760   3 ;   H13R-  C113-  C112-  H12S
  5158   5157   5160   5163      9     0.00   0.66944   3 ;   H13R-  C113-  C112-  C111
  5159   5157   5160   5161      9     0.00   0.62760   3 ;   H13S-  C113-  C112-  H12R
  5159   5157   5160   5162      9     0.00   0.62760   3 ;   H13S-  C113-  C112-  H12S
  5159   5157   5160   5163      9     0.00   0.66944   3 ;   H13S-  C113-  C112-  C111
  5160   5163   5166   5167      9     0.00   0.66944   3 ;   C112-  C111-  C110-  H10R
  5160   5163   5166   5168      9     0.00   0.66944   3 ;   C112-  C111-  C110-  H10S
  5160   5163   5166   5169      9     0.00   0.41840   1 ;   C112-  C111-  C110-   C19
  5160   5163   5166   5169      9     0.00   0.41840   2 ;   C112-  C111-  C110-   C19
  5160   5163   5166   5169      9     0.00   0.41840   4 ;   C112-  C111-  C110-   C19
  5160   5163   5166   5169      9     0.00   0.41840   5 ;   C112-  C111-  C110-   C19
  5160   5163   5166   5169      9     0.00   1.25520   3 ;   C112-  C111-  C110-   C19
  5161   5160   5163   5164      9     0.00   0.62760   3 ;   H12R-  C112-  C111-  H11R
  5161   5160   5163   5165      9     0.00   0.62760   3 ;   H12R-  C112-  C111-  H11S
  5161   5160   5163   5166      9     0.00   0.66944   3 ;   H12R-  C112-  C111-  C110
  5162   5160   5163   5164      9     0.00   0.62760   3 ;   H12S-  C112-  C111-  H11R
  5162   5160   5163   5165      9     0.00   0.62760   3 ;   H12S-  C112-  C111-  H11S
  5162   5160   5163   5166      9     0.00   0.66944   3 ;   H12S-  C112-  C111-  C110
  5163   5166   5169   5170      9     0.00   0.66944   3 ;   C111-  C110-   C19-   H9R
  5163   5166   5169   5171      9     0.00   0.66944   3 ;   C111-  C110-   C19-   H9S
  5163   5166   5169   5172      9     0.00   0.41840   1 ;   C111-  C110-   C19-   C18
  5163   5166   5169   5172      9     0.00   0.41840   2 ;   C111-  C110-   C19-   C18
  5163   5166   5169   5172      9     0.00   0.41840   4 ;   C111-  C110-   C19-   C18
  5163   5166   5169   5172      9     0.00   0.41840   5 ;   C111-  C110-   C19-   C18
  5163   5166   5169   5172      9     0.00   1.25520   3 ;   C111-  C110-   C19-   C18
  5164   5163   5166   5167      9     0.00   0.62760   3 ;   H11R-  C111-  C110-  H10R
  5164   5163   5166   5168      9     0.00   0.62760   3 ;   H11R-  C111-  C110-  H10S
  5164   5163   5166   5169      9     0.00   0.66944   3 ;   H11R-  C111-  C110-   C19
  5165   5163   5166   5167      9     0.00   0.62760   3 ;   H11S-  C111-  C110-  H10R
  5165   5163   5166   5168      9     0.00   0.62760   3 ;   H11S-  C111-  C110-  H10S
  5165   5163   5166   5169      9     0.00   0.66944   3 ;   H11S-  C111-  C110-   C19
  5166   5169   5172   5173      9     0.00   0.66944   3 ;   C110-   C19-   C18-   H8R
  5166   5169   5172   5174      9     0.00   0.66944   3 ;   C110-   C19-   C18-   H8S
  5166   5169   5172   5175      9     0.00   0.41840   1 ;   C110-   C19-   C18-   C17
  5166   5169   5172   5175      9     0.00   0.41840   2 ;   C110-   C19-   C18-   C17
  5166   5169   5172   5175      9     0.00   0.41840   4 ;   C110-   C19-   C18-   C17
  5166   5169   5172   5175      9     0.00   0.41840   5 ;   C110-   C19-   C18-   C17
  5166   5169   5172   5175      9     0.00   1.25520   3 ;   C110-   C19-   C18-   C17
  5167   5166   5169   5170      9     0.00   0.62760   3 ;   H10R-  C110-   C19-   H9R
  5167   5166   5169   5171      9     0.00   0.62760   3 ;   H10R-  C110-   C19-   H9S
  5167   5166   5169   5172      9     0.00   0.66944   3 ;   H10R-  C110-   C19-   C18
  5168   5166   5169   5170      9     0.00   0.62760   3 ;   H10S-  C110-   C19-   H9R
  5168   5166   5169   5171      9     0.00   0.62760   3 ;   H10S-  C110-   C19-   H9S
  5168   5166   5169   5172      9     0.00   0.66944   3 ;   H10S-  C110-   C19-   C18
  5169   5172   5175   5176      9     0.00   0.66944   3 ;    C19-   C18-   C17-   H7R
  5169   5172   5175   5177      9     0.00   0.66944   3 ;    C19-   C18-   C17-   H7S
  5169   5172   5175   5178      9     0.00   0.41840   1 ;    C19-   C18-   C17-   C16
  5169   5172   5175   5178      9     0.00   0.41840   2 ;    C19-   C18-   C17-   C16
  5169   5172   5175   5178      9     0.00   0.41840   4 ;    C19-   C18-   C17-   C16
  5169   5172   5175   5178      9     0.00   0.41840   5 ;    C19-   C18-   C17-   C16
  5169   5172   5175   5178      9     0.00   1.25520   3 ;    C19-   C18-   C17-   C16
  5170   5169   5172   5173      9     0.00   0.62760   3 ;    H9R-   C19-   C18-   H8R
  5170   5169   5172   5174      9     0.00   0.62760   3 ;    H9R-   C19-   C18-   H8S
  5170   5169   5172   5175      9     0.00   0.66944   3 ;    H9R-   C19-   C18-   C17
  5171   5169   5172   5173      9     0.00   0.62760   3 ;    H9S-   C19-   C18-   H8R
  5171   5169   5172   5174      9     0.00   0.62760   3 ;    H9S-   C19-   C18-   H8S
  5171   5169   5172   5175      9     0.00   0.66944   3 ;    H9S-   C19-   C18-   C17
  5172   5175   5178   5179      9     0.00   0.66944   3 ;    C18-   C17-   C16-   H6R
  5172   5175   5178   5180      9     0.00   0.66944   3 ;    C18-   C17-   C16-   H6S
  5172   5175   5178   5181      9     0.00   0.41840   1 ;    C18-   C17-   C16-   C15
  5172   5175   5178   5181      9     0.00   0.41840   2 ;    C18-   C17-   C16-   C15
  5172   5175   5178   5181      9     0.00   0.41840   4 ;    C18-   C17-   C16-   C15
  5172   5175   5178   5181      9     0.00   0.41840   5 ;    C18-   C17-   C16-   C15
  5172   5175   5178   5181      9     0.00   1.25520   3 ;    C18-   C17-   C16-   C15
  5173   5172   5175   5176      9     0.00   0.62760   3 ;    H8R-   C18-   C17-   H7R
  5173   5172   5175   5177      9     0.00   0.62760   3 ;    H8R-   C18-   C17-   H7S
  5173   5172   5175   5178      9     0.00   0.66944   3 ;    H8R-   C18-   C17-   C16
  5174   5172   5175   5176      9     0.00   0.62760   3 ;    H8S-   C18-   C17-   H7R
  5174   5172   5175   5177      9     0.00   0.62760   3 ;    H8S-   C18-   C17-   H7S
  5174   5172   5175   5178      9     0.00   0.66944   3 ;    H8S-   C18-   C17-   C16
  5175   5178   5181   5182      9     0.00   0.66944   3 ;    C17-   C16-   C15-   H5R
  5175   5178   5181   5183      9     0.00   0.66944   3 ;    C17-   C16-   C15-   H5S
  5175   5178   5181   5184      9     0.00   0.41840   1 ;    C17-   C16-   C15-   C14
  5175   5178   5181   5184      9     0.00   0.41840   2 ;    C17-   C16-   C15-   C14
  5175   5178   5181   5184      9     0.00   0.41840   4 ;    C17-   C16-   C15-   C14
  5175   5178   5181   5184      9     0.00   0.41840   5 ;    C17-   C16-   C15-   C14
  5175   5178   5181   5184      9     0.00   1.25520   3 ;    C17-   C16-   C15-   C14
  5176   5175   5178   5179      9     0.00   0.62760   3 ;    H7R-   C17-   C16-   H6R
  5176   5175   5178   5180      9     0.00   0.62760   3 ;    H7R-   C17-   C16-   H6S
  5176   5175   5178   5181      9     0.00   0.66944   3 ;    H7R-   C17-   C16-   C15
  5177   5175   5178   5179      9     0.00   0.62760   3 ;    H7S-   C17-   C16-   H6R
  5177   5175   5178   5180      9     0.00   0.62760   3 ;    H7S-   C17-   C16-   H6S
  5177   5175   5178   5181      9     0.00   0.66944   3 ;    H7S-   C17-   C16-   C15
  5178   5181   5184   5185      9     0.00   0.66944   3 ;    C16-   C15-   C14-   H4R
  5178   5181   5184   5186      9     0.00   0.66944   3 ;    C16-   C15-   C14-   H4S
  5178   5181   5184   5187      9     0.00   0.41840   1 ;    C16-   C15-   C14-   C13
  5178   5181   5184   5187      9     0.00   0.41840   2 ;    C16-   C15-   C14-   C13
  5178   5181   5184   5187      9     0.00   0.41840   4 ;    C16-   C15-   C14-   C13
  5178   5181   5184   5187      9     0.00   0.41840   5 ;    C16-   C15-   C14-   C13
  5178   5181   5184   5187      9     0.00   1.25520   3 ;    C16-   C15-   C14-   C13
  5179   5178   5181   5182      9     0.00   0.62760   3 ;    H6R-   C16-   C15-   H5R
  5179   5178   5181   5183      9     0.00   0.62760   3 ;    H6R-   C16-   C15-   H5S
  5179   5178   5181   5184      9     0.00   0.66944   3 ;    H6R-   C16-   C15-   C14
  5180   5178   5181   5182      9     0.00   0.62760   3 ;    H6S-   C16-   C15-   H5R
  5180   5178   5181   5183      9     0.00   0.62760   3 ;    H6S-   C16-   C15-   H5S
  5180   5178   5181   5184      9     0.00   0.66944   3 ;    H6S-   C16-   C15-   C14
  5181   5184   5187   5188      9     0.00   0.66944   3 ;    C15-   C14-   C13-   H3R
  5181   5184   5187   5189      9     0.00   0.66944   3 ;    C15-   C14-   C13-   H3S
  5181   5184   5187   5190      9     0.00   0.41840   1 ;    C15-   C14-   C13-   C12
  5181   5184   5187   5190      9     0.00   0.41840   2 ;    C15-   C14-   C13-   C12
  5181   5184   5187   5190      9     0.00   0.41840   4 ;    C15-   C14-   C13-   C12
  5181   5184   5187   5190      9     0.00   0.41840   5 ;    C15-   C14-   C13-   C12
  5181   5184   5187   5190      9     0.00   1.25520   3 ;    C15-   C14-   C13-   C12
  5182   5181   5184   5185      9     0.00   0.62760   3 ;    H5R-   C15-   C14-   H4R
  5182   5181   5184   5186      9     0.00   0.62760   3 ;    H5R-   C15-   C14-   H4S
  5182   5181   5184   5187      9     0.00   0.66944   3 ;    H5R-   C15-   C14-   C13
  5183   5181   5184   5185      9     0.00   0.62760   3 ;    H5S-   C15-   C14-   H4R
  5183   5181   5184   5186      9     0.00   0.62760   3 ;    H5S-   C15-   C14-   H4S
  5183   5181   5184   5187      9     0.00   0.66944   3 ;    H5S-   C15-   C14-   C13
  5184   5187   5190   5191      9     0.00   0.66944   3 ;    C14-   C13-   C12-   H2R
  5184   5187   5190   5192      9     0.00   0.66944   3 ;    C14-   C13-   C12-   H2S
  5185   5184   5187   5188      9     0.00   0.62760   3 ;    H4R-   C14-   C13-   H3R
  5185   5184   5187   5189      9     0.00   0.62760   3 ;    H4R-   C14-   C13-   H3S
  5185   5184   5187   5190      9     0.00   0.66944   3 ;    H4R-   C14-   C13-   C12
  5186   5184   5187   5188      9     0.00   0.62760   3 ;    H4S-   C14-   C13-   H3R
  5186   5184   5187   5189      9     0.00   0.62760   3 ;    H4S-   C14-   C13-   H3S
  5186   5184   5187   5190      9     0.00   0.66944   3 ;    H4S-   C14-   C13-   C12
  5188   5187   5190   5191      9     0.00   0.62760   3 ;    H3R-   C13-   C12-   H2R
  5188   5187   5190   5192      9     0.00   0.62760   3 ;    H3R-   C13-   C12-   H2S
  5189   5187   5190   5191      9     0.00   0.62760   3 ;    H3S-   C13-   C12-   H2R
  5189   5187   5190   5192      9     0.00   0.62760   3 ;    H3S-   C13-   C12-   H2S
  5193   5194   5197   5198      9     0.00   0.62760   3 ;   H14T-  C114-  C113-  H13R
  5193   5194   5197   5199      9     0.00   0.62760   3 ;   H14T-  C114-  C113-  H13S
  5193   5194   5197   5200      9     0.00   0.66944   3 ;   H14T-  C114-  C113-  C112
  5194   5197   5200   5201      9     0.00   0.66944   3 ;   C114-  C113-  C112-  H12R
  5194   5197   5200   5202      9     0.00   0.66944   3 ;   C114-  C113-  C112-  H12S
  5194   5197   5200   5203      9     0.00   0.41840   1 ;   C114-  C113-  C112-  C111
  5194   5197   5200   5203      9     0.00   0.41840   2 ;   C114-  C113-  C112-  C111
  5194   5197   5200   5203      9     0.00   0.41840   4 ;   C114-  C113-  C112-  C111
  5194   5197   5200   5203      9     0.00   0.41840   5 ;   C114-  C113-  C112-  C111
  5194   5197   5200   5203      9     0.00   1.25520   3 ;   C114-  C113-  C112-  C111
  5195   5194   5197   5198      9     0.00   0.62760   3 ;   H14R-  C114-  C113-  H13R
  5195   5194   5197   5199      9     0.00   0.62760   3 ;   H14R-  C114-  C113-  H13S
  5195   5194   5197   5200      9     0.00   0.66944   3 ;   H14R-  C114-  C113-  C112
  5196   5194   5197   5198      9     0.00   0.62760   3 ;   H14S-  C114-  C113-  H13R
  5196   5194   5197   5199      9     0.00   0.62760   3 ;   H14S-  C114-  C113-  H13S
  5196   5194   5197   5200      9     0.00   0.66944   3 ;   H14S-  C114-  C113-  C112
  5197   5200   5203   5204      9     0.00   0.66944   3 ;   C113-  C112-  C111-  H11R
  5197   5200   5203   5205      9     0.00   0.66944   3 ;   C113-  C112-  C111-  H11S
  5197   5200   5203   5206      9     0.00   0.41840   1 ;   C113-  C112-  C111-  C110
  5197   5200   5203   5206      9     0.00   0.41840   2 ;   C113-  C112-  C111-  C110
  5197   5200   5203   5206      9     0.00   0.41840   4 ;   C113-  C112-  C111-  C110
  5197   5200   5203   5206      9     0.00   0.41840   5 ;   C113-  C112-  C111-  C110
  5197   5200   5203   5206      9     0.00   1.25520   3 ;   C113-  C112-  C111-  C110
  5198   5197   5200   5201      9     0.00   0.62760   3 ;   H13R-  C113-  C112-  H12R
  5198   5197   5200   5202      9     0.00   0.62760   3 ;   H13R-  C113-  C112-  H12S
  5198   5197   5200   5203      9     0.00   0.66944   3 ;   H13R-  C113-  C112-  C111
  5199   5197   5200   5201      9     0.00   0.62760   3 ;   H13S-  C113-  C112-  H12R
  5199   5197   5200   5202      9     0.00   0.62760   3 ;   H13S-  C113-  C112-  H12S
  5199   5197   5200   5203      9     0.00   0.66944   3 ;   H13S-  C113-  C112-  C111
  5200   5203   5206   5207      9     0.00   0.66944   3 ;   C112-  C111-  C110-  H10R
  5200   5203   5206   5208      9     0.00   0.66944   3 ;   C112-  C111-  C110-  H10S
  5200   5203   5206   5209      9     0.00   0.41840   1 ;   C112-  C111-  C110-   C19
  5200   5203   5206   5209      9     0.00   0.41840   2 ;   C112-  C111-  C110-   C19
  5200   5203   5206   5209      9     0.00   0.41840   4 ;   C112-  C111-  C110-   C19
  5200   5203   5206   5209      9     0.00   0.41840   5 ;   C112-  C111-  C110-   C19
  5200   5203   5206   5209      9     0.00   1.25520   3 ;   C112-  C111-  C110-   C19
  5201   5200   5203   5204      9     0.00   0.62760   3 ;   H12R-  C112-  C111-  H11R
  5201   5200   5203   5205      9     0.00   0.62760   3 ;   H12R-  C112-  C111-  H11S
  5201   5200   5203   5206      9     0.00   0.66944   3 ;   H12R-  C112-  C111-  C110
  5202   5200   5203   5204      9     0.00   0.62760   3 ;   H12S-  C112-  C111-  H11R
  5202   5200   5203   5205      9     0.00   0.62760   3 ;   H12S-  C112-  C111-  H11S
  5202   5200   5203   5206      9     0.00   0.66944   3 ;   H12S-  C112-  C111-  C110
  5203   5206   5209   5210      9     0.00   0.66944   3 ;   C111-  C110-   C19-   H9R
  5203   5206   5209   5211      9     0.00   0.66944   3 ;   C111-  C110-   C19-   H9S
  5203   5206   5209   5212      9     0.00   0.41840   1 ;   C111-  C110-   C19-   C18
  5203   5206   5209   5212      9     0.00   0.41840   2 ;   C111-  C110-   C19-   C18
  5203   5206   5209   5212      9     0.00   0.41840   4 ;   C111-  C110-   C19-   C18
  5203   5206   5209   5212      9     0.00   0.41840   5 ;   C111-  C110-   C19-   C18
  5203   5206   5209   5212      9     0.00   1.25520   3 ;   C111-  C110-   C19-   C18
  5204   5203   5206   5207      9     0.00   0.62760   3 ;   H11R-  C111-  C110-  H10R
  5204   5203   5206   5208      9     0.00   0.62760   3 ;   H11R-  C111-  C110-  H10S
  5204   5203   5206   5209      9     0.00   0.66944   3 ;   H11R-  C111-  C110-   C19
  5205   5203   5206   5207      9     0.00   0.62760   3 ;   H11S-  C111-  C110-  H10R
  5205   5203   5206   5208      9     0.00   0.62760   3 ;   H11S-  C111-  C110-  H10S
  5205   5203   5206   5209      9     0.00   0.66944   3 ;   H11S-  C111-  C110-   C19
  5206   5209   5212   5213      9     0.00   0.66944   3 ;   C110-   C19-   C18-   H8R
  5206   5209   5212   5214      9     0.00   0.66944   3 ;   C110-   C19-   C18-   H8S
  5206   5209   5212   5215      9     0.00   0.41840   1 ;   C110-   C19-   C18-   C17
  5206   5209   5212   5215      9     0.00   0.41840   2 ;   C110-   C19-   C18-   C17
  5206   5209   5212   5215      9     0.00   0.41840   4 ;   C110-   C19-   C18-   C17
  5206   5209   5212   5215      9     0.00   0.41840   5 ;   C110-   C19-   C18-   C17
  5206   5209   5212   5215      9     0.00   1.25520   3 ;   C110-   C19-   C18-   C17
  5207   5206   5209   5210      9     0.00   0.62760   3 ;   H10R-  C110-   C19-   H9R
  5207   5206   5209   5211      9     0.00   0.62760   3 ;   H10R-  C110-   C19-   H9S
  5207   5206   5209   5212      9     0.00   0.66944   3 ;   H10R-  C110-   C19-   C18
  5208   5206   5209   5210      9     0.00   0.62760   3 ;   H10S-  C110-   C19-   H9R
  5208   5206   5209   5211      9     0.00   0.62760   3 ;   H10S-  C110-   C19-   H9S
  5208   5206   5209   5212      9     0.00   0.66944   3 ;   H10S-  C110-   C19-   C18
  5209   5212   5215   5216      9     0.00   0.66944   3 ;    C19-   C18-   C17-   H7R
  5209   5212   5215   5217      9     0.00   0.66944   3 ;    C19-   C18-   C17-   H7S
  5209   5212   5215   5218      9     0.00   0.41840   1 ;    C19-   C18-   C17-   C16
  5209   5212   5215   5218      9     0.00   0.41840   2 ;    C19-   C18-   C17-   C16
  5209   5212   5215   5218      9     0.00   0.41840   4 ;    C19-   C18-   C17-   C16
  5209   5212   5215   5218      9     0.00   0.41840   5 ;    C19-   C18-   C17-   C16
  5209   5212   5215   5218      9     0.00   1.25520   3 ;    C19-   C18-   C17-   C16
  5210   5209   5212   5213      9     0.00   0.62760   3 ;    H9R-   C19-   C18-   H8R
  5210   5209   5212   5214      9     0.00   0.62760   3 ;    H9R-   C19-   C18-   H8S
  5210   5209   5212   5215      9     0.00   0.66944   3 ;    H9R-   C19-   C18-   C17
  5211   5209   5212   5213      9     0.00   0.62760   3 ;    H9S-   C19-   C18-   H8R
  5211   5209   5212   5214      9     0.00   0.62760   3 ;    H9S-   C19-   C18-   H8S
  5211   5209   5212   5215      9     0.00   0.66944   3 ;    H9S-   C19-   C18-   C17
  5212   5215   5218   5219      9     0.00   0.66944   3 ;    C18-   C17-   C16-   H6R
  5212   5215   5218   5220      9     0.00   0.66944   3 ;    C18-   C17-   C16-   H6S
  5212   5215   5218   5221      9     0.00   0.41840   1 ;    C18-   C17-   C16-   C15
  5212   5215   5218   5221      9     0.00   0.41840   2 ;    C18-   C17-   C16-   C15
  5212   5215   5218   5221      9     0.00   0.41840   4 ;    C18-   C17-   C16-   C15
  5212   5215   5218   5221      9     0.00   0.41840   5 ;    C18-   C17-   C16-   C15
  5212   5215   5218   5221      9     0.00   1.25520   3 ;    C18-   C17-   C16-   C15
  5213   5212   5215   5216      9     0.00   0.62760   3 ;    H8R-   C18-   C17-   H7R
  5213   5212   5215   5217      9     0.00   0.62760   3 ;    H8R-   C18-   C17-   H7S
  5213   5212   5215   5218      9     0.00   0.66944   3 ;    H8R-   C18-   C17-   C16
  5214   5212   5215   5216      9     0.00   0.62760   3 ;    H8S-   C18-   C17-   H7R
  5214   5212   5215   5217      9     0.00   0.62760   3 ;    H8S-   C18-   C17-   H7S
  5214   5212   5215   5218      9     0.00   0.66944   3 ;    H8S-   C18-   C17-   C16
  5215   5218   5221   5222      9     0.00   0.66944   3 ;    C17-   C16-   C15-   H5R
  5215   5218   5221   5223      9     0.00   0.66944   3 ;    C17-   C16-   C15-   H5S
  5215   5218   5221   5224      9     0.00   0.41840   1 ;    C17-   C16-   C15-   C14
  5215   5218   5221   5224      9     0.00   0.41840   2 ;    C17-   C16-   C15-   C14
  5215   5218   5221   5224      9     0.00   0.41840   4 ;    C17-   C16-   C15-   C14
  5215   5218   5221   5224      9     0.00   0.41840   5 ;    C17-   C16-   C15-   C14
  5215   5218   5221   5224      9     0.00   1.25520   3 ;    C17-   C16-   C15-   C14
  5216   5215   5218   5219      9     0.00   0.62760   3 ;    H7R-   C17-   C16-   H6R
  5216   5215   5218   5220      9     0.00   0.62760   3 ;    H7R-   C17-   C16-   H6S
  5216   5215   5218   5221      9     0.00   0.66944   3 ;    H7R-   C17-   C16-   C15
  5217   5215   5218   5219      9     0.00   0.62760   3 ;    H7S-   C17-   C16-   H6R
  5217   5215   5218   5220      9     0.00   0.62760   3 ;    H7S-   C17-   C16-   H6S
  5217   5215   5218   5221      9     0.00   0.66944   3 ;    H7S-   C17-   C16-   C15
  5218   5221   5224   5225      9     0.00   0.66944   3 ;    C16-   C15-   C14-   H4R
  5218   5221   5224   5226      9     0.00   0.66944   3 ;    C16-   C15-   C14-   H4S
  5218   5221   5224   5227      9     0.00   0.41840   1 ;    C16-   C15-   C14-   C13
  5218   5221   5224   5227      9     0.00   0.41840   2 ;    C16-   C15-   C14-   C13
  5218   5221   5224   5227      9     0.00   0.41840   4 ;    C16-   C15-   C14-   C13
  5218   5221   5224   5227      9     0.00   0.41840   5 ;    C16-   C15-   C14-   C13
  5218   5221   5224   5227      9     0.00   1.25520   3 ;    C16-   C15-   C14-   C13
  5219   5218   5221   5222      9     0.00   0.62760   3 ;    H6R-   C16-   C15-   H5R
  5219   5218   5221   5223      9     0.00   0.62760   3 ;    H6R-   C16-   C15-   H5S
  5219   5218   5221   5224      9     0.00   0.66944   3 ;    H6R-   C16-   C15-   C14
  5220   5218   5221   5222      9     0.00   0.62760   3 ;    H6S-   C16-   C15-   H5R
  5220   5218   5221   5223      9     0.00   0.62760   3 ;    H6S-   C16-   C15-   H5S
  5220   5218   5221   5224      9     0.00   0.66944   3 ;    H6S-   C16-   C15-   C14
  5221   5224   5227   5228      9     0.00   0.66944   3 ;    C15-   C14-   C13-   H3R
  5221   5224   5227   5229      9     0.00   0.66944   3 ;    C15-   C14-   C13-   H3S
  5221   5224   5227   5230      9     0.00   0.41840   1 ;    C15-   C14-   C13-   C12
  5221   5224   5227   5230      9     0.00   0.41840   2 ;    C15-   C14-   C13-   C12
  5221   5224   5227   5230      9     0.00   0.41840   4 ;    C15-   C14-   C13-   C12
  5221   5224   5227   5230      9     0.00   0.41840   5 ;    C15-   C14-   C13-   C12
  5221   5224   5227   5230      9     0.00   1.25520   3 ;    C15-   C14-   C13-   C12
  5222   5221   5224   5225      9     0.00   0.62760   3 ;    H5R-   C15-   C14-   H4R
  5222   5221   5224   5226      9     0.00   0.62760   3 ;    H5R-   C15-   C14-   H4S
  5222   5221   5224   5227      9     0.00   0.66944   3 ;    H5R-   C15-   C14-   C13
  5223   5221   5224   5225      9     0.00   0.62760   3 ;    H5S-   C15-   C14-   H4R
  5223   5221   5224   5226      9     0.00   0.62760   3 ;    H5S-   C15-   C14-   H4S
  5223   5221   5224   5227      9     0.00   0.66944   3 ;    H5S-   C15-   C14-   C13
  5224   5227   5230   5231      9     0.00   0.66944   3 ;    C14-   C13-   C12-   H2R
  5224   5227   5230   5232      9     0.00   0.66944   3 ;    C14-   C13-   C12-   H2S
  5224   5227   5230   5233      9     0.00   0.65270   3 ;    C14-   C13-   C12-   C11
  5225   5224   5227   5228      9     0.00   0.62760   3 ;    H4R-   C14-   C13-   H3R
  5225   5224   5227   5229      9     0.00   0.62760   3 ;    H4R-   C14-   C13-   H3S
  5225   5224   5227   5230      9     0.00   0.66944   3 ;    H4R-   C14-   C13-   C12
  5226   5224   5227   5228      9     0.00   0.62760   3 ;    H4S-   C14-   C13-   H3R
  5226   5224   5227   5229      9     0.00   0.62760   3 ;    H4S-   C14-   C13-   H3S
  5226   5224   5227   5230      9     0.00   0.66944   3 ;    H4S-   C14-   C13-   C12
  5227   5230   5233   5234      9   180.00   0.00000   2 ;    C13-   C12-   C11-   O12
  5227   5230   5233   5235      9   180.00   0.00000   2 ;    C13-   C12-   C11-   O11
  5228   5227   5230   5231      9     0.00   0.62760   3 ;    H3R-   C13-   C12-   H2R
  5228   5227   5230   5232      9     0.00   0.62760   3 ;    H3R-   C13-   C12-   H2S
  5228   5227   5230   5233      9     0.00   0.65270   3 ;    H3R-   C13-   C12-   C11
  5229   5227   5230   5231      9     0.00   0.62760   3 ;    H3S-   C13-   C12-   H2R
  5229   5227   5230   5232      9     0.00   0.62760   3 ;    H3S-   C13-   C12-   H2S
  5229   5227   5230   5233      9     0.00   0.65270   3 ;    H3S-   C13-   C12-   C11
  5230   5233   5235   5236      9   180.00  11.29680   2 ;    C12-   C11-   O11-    C1
  5231   5230   5233   5234      9     0.00   3.34720   1 ;    H2R-   C12-   C11-   O12
  5231   5230   5233   5234      9   180.00   0.33472   3 ;    H2R-   C12-   C11-   O12
  5231   5230   5233   5235      9   180.00   0.00000   2 ;    H2R-   C12-   C11-   O11
  5232   5230   5233   5234      9     0.00   3.34720   1 ;    H2S-   C12-   C11-   O12
  5232   5230   5233   5234      9   180.00   0.33472   3 ;    H2S-   C12-   C11-   O12
  5232   5230   5233   5235      9   180.00   0.00000   2 ;    H2S-   C12-   C11-   O11
  5233   5235   5236   5237      9     0.00   1.60247   3 ;    C11-   O11-    C1-    HR
  5233   5235   5236   5238      9     0.00   1.60247   3 ;    C11-   O11-    C1-    HS
  5233   5235   5236   5239      9     0.00  -0.41840   1 ;    C11-   O11-    C1-    C2
  5234   5233   5235   5236      9   180.00   5.85760   1 ;    O12-   C11-   O11-    C1
  5234   5233   5235   5236      9   180.00  11.29680   2 ;    O12-   C11-   O11-    C1
  5235   5236   5239   5240      9     0.00   0.00000   0 ;    O11-    C1-    C2-    HX
  5235   5236   5239   5240      9     0.00   1.04600   1 ;    O11-    C1-    C2-    HX
  5235   5236   5239   5241      9     0.00   0.00000   0 ;    O11-    C1-    C2-    C3
  5235   5236   5239   5241      9     0.00   0.00000   0 ;    O11-    C1-    C2-    C3
  5235   5236   5239   5241      9     0.00   0.00000   0 ;    O11-    C1-    C2-    C3
  5235   5236   5239   5241      9     0.00   0.00000   0 ;    O11-    C1-    C2-    C3
  5235   5236   5239   5241      9     0.00   0.00000   0 ;    O11-    C1-    C2-    C3
  5235   5236   5239   5268      9     0.00   1.25520   2 ;    O11-    C1-    C2-   O21
  5235   5236   5239   5268      9     0.00   4.18400   3 ;    O11-    C1-    C2-   O21
  5235   5236   5239   5268      9   180.00  -0.41840   1 ;    O11-    C1-    C2-   O21
  5236   5239   5241   5242      9     0.00   0.65270   3 ;     C1-    C2-    C3-    HA
  5236   5239   5241   5243      9     0.00   0.65270   3 ;     C1-    C2-    C3-    HB
  5236   5239   5241   5244      9   180.00   3.34720   1 ;     C1-    C2-    C3-   O31
  5236   5239   5268   5269      9     0.00  -0.41840   1 ;     C1-    C2-   O21-   C21
  5237   5236   5239   5240      9     0.00   0.65270   3 ;     HR-    C1-    C2-    HX
  5237   5236   5239   5241      9     0.00   0.65270   3 ;     HR-    C1-    C2-    C3
  5237   5236   5239   5268      9     0.00   0.00000   0 ;     HR-    C1-    C2-   O21
  5237   5236   5239   5268      9     0.00   1.04600   1 ;     HR-    C1-    C2-   O21
  5238   5236   5239   5240      9     0.00   0.65270   3 ;     HS-    C1-    C2-    HX
  5238   5236   5239   5241      9     0.00   0.65270   3 ;     HS-    C1-    C2-    C3
  5238   5236   5239   5268      9     0.00   0.00000   0 ;     HS-    C1-    C2-   O21
  5238   5236   5239   5268      9     0.00   1.04600   1 ;     HS-    C1-    C2-   O21
  5239   5241   5244   5245      9     0.00   0.00000   0 ;     C2-    C3-   O31-   P31
  5239   5241   5244   5245      9   180.00  -3.34720   2 ;     C2-    C3-   O31-   P31
  5239   5268   5269   5270      9   180.00   5.85760   1 ;     C2-   O21-   C21-   O22
  5239   5268   5269   5270      9   180.00  11.29680   2 ;     C2-   O21-   C21-   O22
  5239   5268   5269   5308      9   180.00  11.29680   2 ;     C2-   O21-   C21-   C12
  5240   5239   5241   5242      9     0.00   0.65270   3 ;     HX-    C2-    C3-    HA
  5240   5239   5241   5243      9     0.00   0.65270   3 ;     HX-    C2-    C3-    HB
  5240   5239   5241   5244      9     0.00   0.00000   0 ;     HX-    C2-    C3-   O31
  5240   5239   5241   5244      9     0.00   1.04600   1 ;     HX-    C2-    C3-   O31
  5240   5239   5268   5269      9     0.00   1.60247   3 ;     HX-    C2-   O21-   C21
  5241   5239   5268   5269      9     0.00  -0.41840   1 ;     C3-    C2-   O21-   C21
  5241   5244   5245   5246      9     0.00   2.51040   3 ;     C3-   O31-   P31-   O32
  5241   5244   5245   5246      9     0.00   9.62320   2 ;     C3-   O31-   P31-   O32
  5241   5244   5245   5266      9     0.00   0.00000   0 ;     C3-   O31-   P31-   O33
  5241   5244   5245   5266      9     0.00   0.00000   0 ;     C3-   O31-   P31-   O33
  5241   5244   5245   5266      9     0.00   0.00000   0 ;     C3-   O31-   P31-   O33
  5241   5244   5245   5266      9     0.00   0.00000   0 ;     C3-   O31-   P31-   O33
  5241   5244   5245   5266      9     0.00   0.83680   2 ;     C3-   O31-   P31-   O33
  5241   5244   5245   5267      9     0.00   0.00000   0 ;     C3-   O31-   P31-   O34
  5241   5244   5245   5267      9     0.00   0.00000   0 ;     C3-   O31-   P31-   O34
  5241   5244   5245   5267      9     0.00   0.00000   0 ;     C3-   O31-   P31-   O34
  5241   5244   5245   5267      9     0.00   0.00000   0 ;     C3-   O31-   P31-   O34
  5241   5244   5245   5267      9     0.00   0.83680   2 ;     C3-   O31-   P31-   O34
  5242   5241   5239   5268      9     0.00   0.00000   0 ;     HA-    C3-    C2-   O21
  5242   5241   5239   5268      9     0.00   1.04600   1 ;     HA-    C3-    C2-   O21
  5242   5241   5244   5245      9     0.00   0.00000   0 ;     HA-    C3-   O31-   P31
  5242   5241   5244   5245      9     0.00   0.00000   0 ;     HA-    C3-   O31-   P31
  5242   5241   5244   5245      9     0.00   0.00000   0 ;     HA-    C3-   O31-   P31
  5242   5241   5244   5245      9     0.00   0.00000   0 ;     HA-    C3-   O31-   P31
  5242   5241   5244   5245      9     0.00   1.60247   3 ;     HA-    C3-   O31-   P31
  5243   5241   5239   5268      9     0.00   0.00000   0 ;     HB-    C3-    C2-   O21
  5243   5241   5239   5268      9     0.00   1.04600   1 ;     HB-    C3-    C2-   O21
  5243   5241   5244   5245      9     0.00   0.00000   0 ;     HB-    C3-   O31-   P31
  5243   5241   5244   5245      9     0.00   0.00000   0 ;     HB-    C3-   O31-   P31
  5243   5241   5244   5245      9     0.00   0.00000   0 ;     HB-    C3-   O31-   P31
  5243   5241   5244   5245      9     0.00   0.00000   0 ;     HB-    C3-   O31-   P31
  5243   5241   5244   5245      9     0.00   1.60247   3 ;     HB-    C3-   O31-   P31
  5244   5241   5239   5268      9     0.00   0.00000   0 ;    O31-    C3-    C2-   O21
  5244   5241   5239   5268      9     0.00   0.00000   0 ;    O31-    C3-    C2-   O21
  5244   5241   5239   5268      9     0.00   0.00000   0 ;    O31-    C3-    C2-   O21
  5244   5241   5239   5268      9     0.00   0.00000   0 ;    O31-    C3-    C2-   O21
  5244   5241   5239   5268      9     0.00   0.00000   0 ;    O31-    C3-    C2-   O21
  5244   5245   5246   5247      9     0.00   2.51040   3 ;    O31-   P31-   O32-   C31
  5244   5245   5246   5247      9     0.00   9.62320   2 ;    O31-   P31-   O32-   C31
  5245   5246   5247   5248      9     0.00   0.00000   0 ;    P31-   O32-   C31-   H1A
  5245   5246   5247   5248      9     0.00   0.00000   0 ;    P31-   O32-   C31-   H1A
  5245   5246   5247   5248      9     0.00   0.00000   0 ;    P31-   O32-   C31-   H1A
  5245   5246   5247   5248      9     0.00   0.00000   0 ;    P31-   O32-   C31-   H1A
  5245   5246   5247   5248      9     0.00   1.60247   3 ;    P31-   O32-   C31-   H1A
  5245   5246   5247   5249      9     0.00   0.00000   0 ;    P31-   O32-   C31-   H1B
  5245   5246   5247   5249      9     0.00   0.00000   0 ;    P31-   O32-   C31-   H1B
  5245   5246   5247   5249      9     0.00   0.00000   0 ;    P31-   O32-   C31-   H1B
  5245   5246   5247   5249      9     0.00   0.00000   0 ;    P31-   O32-   C31-   H1B
  5245   5246   5247   5249      9     0.00   1.60247   3 ;    P31-   O32-   C31-   H1B
  5245   5246   5247   5250      9     0.00   0.00000   0 ;    P31-   O32-   C31-   C32
  5245   5246   5247   5250      9   180.00  -3.34720   2 ;    P31-   O32-   C31-   C32
  5246   5247   5250   5251      9     0.00   0.65270   3 ;    O32-   C31-   C32-   H2A
  5246   5247   5250   5252      9     0.00   0.65270   3 ;    O32-   C31-   C32-   H2B
  5246   5247   5250   5253      9     0.00   4.18400   3 ;    O32-   C31-   C32-   N31
  5247   5246   5245   5266      9     0.00   0.00000   0 ;    C31-   O32-   P31-   O33
  5247   5246   5245   5266      9     0.00   0.00000   0 ;    C31-   O32-   P31-   O33
  5247   5246   5245   5266      9     0.00   0.00000   0 ;    C31-   O32-   P31-   O33
  5247   5246   5245   5266      9     0.00   0.00000   0 ;    C31-   O32-   P31-   O33
  5247   5246   5245   5266      9     0.00   0.83680   2 ;    C31-   O32-   P31-   O33
  5247   5246   5245   5267      9     0.00   0.00000   0 ;    C31-   O32-   P31-   O34
  5247   5246   5245   5267      9     0.00   0.00000   0 ;    C31-   O32-   P31-   O34
  5247   5246   5245   5267      9     0.00   0.00000   0 ;    C31-   O32-   P31-   O34
  5247   5246   5245   5267      9     0.00   0.00000   0 ;    C31-   O32-   P31-   O34
  5247   5246   5245   5267      9     0.00   0.83680   2 ;    C31-   O32-   P31-   O34
  5247   5250   5253   5254      9     0.00   0.65270   3 ;    C31-   C32-   N31-   C33
  5247   5250   5253   5258      9     0.00   0.65270   3 ;    C31-   C32-   N31-   C34
  5247   5250   5253   5262      9     0.00   0.65270   3 ;    C31-   C32-   N31-   C35
  5248   5247   5250   5251      9     0.00   0.65270   3 ;    H1A-   C31-   C32-   H2A
  5248   5247   5250   5252      9     0.00   0.65270   3 ;    H1A-   C31-   C32-   H2B
  5248   5247   5250   5253      9     0.00   0.65270   3 ;    H1A-   C31-   C32-   N31
  5249   5247   5250   5251      9     0.00   0.65270   3 ;    H1B-   C31-   C32-   H2A
  5249   5247   5250   5252      9     0.00   0.65270   3 ;    H1B-   C31-   C32-   H2B
  5249   5247   5250   5253      9     0.00   0.65270   3 ;    H1B-   C31-   C32-   N31
  5250   5253   5254   5255      9     0.00   0.65270   3 ;    C32-   N31-   C33-   H3A
  5250   5253   5254   5256      9     0.00   0.65270   3 ;    C32-   N31-   C33-   H3B
  5250   5253   5254   5257      9     0.00   0.65270   3 ;    C32-   N31-   C33-   H3C
  5250   5253   5258   5259      9     0.00   0.65270   3 ;    C32-   N31-   C34-   H4A
  5250   5253   5258   5260      9     0.00   0.65270   3 ;    C32-   N31-   C34-   H4B
  5250   5253   5258   5261      9     0.00   0.65270   3 ;    C32-   N31-   C34-   H4C
  5250   5253   5262   5263      9     0.00   0.65270   3 ;    C32-   N31-   C35-   H5A
  5250   5253   5262   5264      9     0.00   0.65270   3 ;    C32-   N31-   C35-   H5B
  5250   5253   5262   5265      9     0.00   0.65270   3 ;    C32-   N31-   C35-   H5C
  5251   5250   5253   5254      9     0.00   0.65270   3 ;    H2A-   C32-   N31-   C33
  5251   5250   5253   5258      9     0.00   0.65270   3 ;    H2A-   C32-   N31-   C34
  5251   5250   5253   5262      9     0.00   0.65270   3 ;    H2A-   C32-   N31-   C35
  5252   5250   5253   5254      9     0.00   0.65270   3 ;    H2B-   C32-   N31-   C33
  5252   5250   5253   5258      9     0.00   0.65270   3 ;    H2B-   C32-   N31-   C34
  5252   5250   5253   5262      9     0.00   0.65270   3 ;    H2B-   C32-   N31-   C35
  5254   5253   5258   5259      9     0.00   0.65270   3 ;    C33-   N31-   C34-   H4A
  5254   5253   5258   5260      9     0.00   0.65270   3 ;    C33-   N31-   C34-   H4B
  5254   5253   5258   5261      9     0.00   0.65270   3 ;    C33-   N31-   C34-   H4C
  5254   5253   5262   5263      9     0.00   0.65270   3 ;    C33-   N31-   C35-   H5A
  5254   5253   5262   5264      9     0.00   0.65270   3 ;    C33-   N31-   C35-   H5B
  5254   5253   5262   5265      9     0.00   0.65270   3 ;    C33-   N31-   C35-   H5C
  5255   5254   5253   5258      9     0.00   0.65270   3 ;    H3A-   C33-   N31-   C34
  5255   5254   5253   5262      9     0.00   0.65270   3 ;    H3A-   C33-   N31-   C35
  5256   5254   5253   5258      9     0.00   0.65270   3 ;    H3B-   C33-   N31-   C34
  5256   5254   5253   5262      9     0.00   0.65270   3 ;    H3B-   C33-   N31-   C35
  5257   5254   5253   5258      9     0.00   0.65270   3 ;    H3C-   C33-   N31-   C34
  5257   5254   5253   5262      9     0.00   0.65270   3 ;    H3C-   C33-   N31-   C35
  5258   5253   5262   5263      9     0.00   0.65270   3 ;    C34-   N31-   C35-   H5A
  5258   5253   5262   5264      9     0.00   0.65270   3 ;    C34-   N31-   C35-   H5B
  5258   5253   5262   5265      9     0.00   0.65270   3 ;    C34-   N31-   C35-   H5C
  5259   5258   5253   5262      9     0.00   0.65270   3 ;    H4A-   C34-   N31-   C35
  5260   5258   5253   5262      9     0.00   0.65270   3 ;    H4B-   C34-   N31-   C35
  5261   5258   5253   5262      9     0.00   0.65270   3 ;    H4C-   C34-   N31-   C35
  5268   5269   5308   5305      9   180.00   0.00000   2 ;    O21-   C21-   C12-   C13
  5268   5269   5308   5309      9   180.00   0.00000   2 ;    O21-   C21-   C12-   H2R
  5268   5269   5308   5310      9   180.00   0.00000   2 ;    O21-   C21-   C12-   H2S
  5269   5308   5305   5302      9     0.00   0.65270   3 ;    C21-   C12-   C13-   C14
  5269   5308   5305   5306      9     0.00   0.65270   3 ;    C21-   C12-   C13-   H3R
  5269   5308   5305   5307      9     0.00   0.65270   3 ;    C21-   C12-   C13-   H3S
  5270   5269   5308   5305      9   180.00   0.00000   2 ;    O22-   C21-   C12-   C13
  5270   5269   5308   5309      9     0.00   3.34720   1 ;    O22-   C21-   C12-   H2R
  5270   5269   5308   5309      9   180.00   0.33472   3 ;    O22-   C21-   C12-   H2R
  5270   5269   5308   5310      9     0.00   3.34720   1 ;    O22-   C21-   C12-   H2S
  5270   5269   5308   5310      9   180.00   0.33472   3 ;    O22-   C21-   C12-   H2S
  5271   5272   5275   5276      9     0.00   0.62760   3 ;   H14T-  C114-  C113-  H13R
  5271   5272   5275   5277      9     0.00   0.62760   3 ;   H14T-  C114-  C113-  H13S
  5271   5272   5275   5278      9     0.00   0.66944   3 ;   H14T-  C114-  C113-  C112
  5272   5275   5278   5279      9     0.00   0.66944   3 ;   C114-  C113-  C112-  H12R
  5272   5275   5278   5280      9     0.00   0.66944   3 ;   C114-  C113-  C112-  H12S
  5272   5275   5278   5281      9     0.00   0.41840   1 ;   C114-  C113-  C112-  C111
  5272   5275   5278   5281      9     0.00   0.41840   2 ;   C114-  C113-  C112-  C111
  5272   5275   5278   5281      9     0.00   0.41840   4 ;   C114-  C113-  C112-  C111
  5272   5275   5278   5281      9     0.00   0.41840   5 ;   C114-  C113-  C112-  C111
  5272   5275   5278   5281      9     0.00   1.25520   3 ;   C114-  C113-  C112-  C111
  5273   5272   5275   5276      9     0.00   0.62760   3 ;   H14R-  C114-  C113-  H13R
  5273   5272   5275   5277      9     0.00   0.62760   3 ;   H14R-  C114-  C113-  H13S
  5273   5272   5275   5278      9     0.00   0.66944   3 ;   H14R-  C114-  C113-  C112
  5274   5272   5275   5276      9     0.00   0.62760   3 ;   H14S-  C114-  C113-  H13R
  5274   5272   5275   5277      9     0.00   0.62760   3 ;   H14S-  C114-  C113-  H13S
  5274   5272   5275   5278      9     0.00   0.66944   3 ;   H14S-  C114-  C113-  C112
  5275   5278   5281   5282      9     0.00   0.66944   3 ;   C113-  C112-  C111-  H11R
  5275   5278   5281   5283      9     0.00   0.66944   3 ;   C113-  C112-  C111-  H11S
  5275   5278   5281   5284      9     0.00   0.41840   1 ;   C113-  C112-  C111-  C110
  5275   5278   5281   5284      9     0.00   0.41840   2 ;   C113-  C112-  C111-  C110
  5275   5278   5281   5284      9     0.00   0.41840   4 ;   C113-  C112-  C111-  C110
  5275   5278   5281   5284      9     0.00   0.41840   5 ;   C113-  C112-  C111-  C110
  5275   5278   5281   5284      9     0.00   1.25520   3 ;   C113-  C112-  C111-  C110
  5276   5275   5278   5279      9     0.00   0.62760   3 ;   H13R-  C113-  C112-  H12R
  5276   5275   5278   5280      9     0.00   0.62760   3 ;   H13R-  C113-  C112-  H12S
  5276   5275   5278   5281      9     0.00   0.66944   3 ;   H13R-  C113-  C112-  C111
  5277   5275   5278   5279      9     0.00   0.62760   3 ;   H13S-  C113-  C112-  H12R
  5277   5275   5278   5280      9     0.00   0.62760   3 ;   H13S-  C113-  C112-  H12S
  5277   5275   5278   5281      9     0.00   0.66944   3 ;   H13S-  C113-  C112-  C111
  5278   5281   5284   5285      9     0.00   0.66944   3 ;   C112-  C111-  C110-  H10R
  5278   5281   5284   5286      9     0.00   0.66944   3 ;   C112-  C111-  C110-  H10S
  5278   5281   5284   5287      9     0.00   0.41840   1 ;   C112-  C111-  C110-   C19
  5278   5281   5284   5287      9     0.00   0.41840   2 ;   C112-  C111-  C110-   C19
  5278   5281   5284   5287      9     0.00   0.41840   4 ;   C112-  C111-  C110-   C19
  5278   5281   5284   5287      9     0.00   0.41840   5 ;   C112-  C111-  C110-   C19
  5278   5281   5284   5287      9     0.00   1.25520   3 ;   C112-  C111-  C110-   C19
  5279   5278   5281   5282      9     0.00   0.62760   3 ;   H12R-  C112-  C111-  H11R
  5279   5278   5281   5283      9     0.00   0.62760   3 ;   H12R-  C112-  C111-  H11S
  5279   5278   5281   5284      9     0.00   0.66944   3 ;   H12R-  C112-  C111-  C110
  5280   5278   5281   5282      9     0.00   0.62760   3 ;   H12S-  C112-  C111-  H11R
  5280   5278   5281   5283      9     0.00   0.62760   3 ;   H12S-  C112-  C111-  H11S
  5280   5278   5281   5284      9     0.00   0.66944   3 ;   H12S-  C112-  C111-  C110
  5281   5284   5287   5288      9     0.00   0.66944   3 ;   C111-  C110-   C19-   H9R
  5281   5284   5287   5289      9     0.00   0.66944   3 ;   C111-  C110-   C19-   H9S
  5281   5284   5287   5290      9     0.00   0.41840   1 ;   C111-  C110-   C19-   C18
  5281   5284   5287   5290      9     0.00   0.41840   2 ;   C111-  C110-   C19-   C18
  5281   5284   5287   5290      9     0.00   0.41840   4 ;   C111-  C110-   C19-   C18
  5281   5284   5287   5290      9     0.00   0.41840   5 ;   C111-  C110-   C19-   C18
  5281   5284   5287   5290      9     0.00   1.25520   3 ;   C111-  C110-   C19-   C18
  5282   5281   5284   5285      9     0.00   0.62760   3 ;   H11R-  C111-  C110-  H10R
  5282   5281   5284   5286      9     0.00   0.62760   3 ;   H11R-  C111-  C110-  H10S
  5282   5281   5284   5287      9     0.00   0.66944   3 ;   H11R-  C111-  C110-   C19
  5283   5281   5284   5285      9     0.00   0.62760   3 ;   H11S-  C111-  C110-  H10R
  5283   5281   5284   5286      9     0.00   0.62760   3 ;   H11S-  C111-  C110-  H10S
  5283   5281   5284   5287      9     0.00   0.66944   3 ;   H11S-  C111-  C110-   C19
  5284   5287   5290   5291      9     0.00   0.66944   3 ;   C110-   C19-   C18-   H8R
  5284   5287   5290   5292      9     0.00   0.66944   3 ;   C110-   C19-   C18-   H8S
  5284   5287   5290   5293      9     0.00   0.41840   1 ;   C110-   C19-   C18-   C17
  5284   5287   5290   5293      9     0.00   0.41840   2 ;   C110-   C19-   C18-   C17
  5284   5287   5290   5293      9     0.00   0.41840   4 ;   C110-   C19-   C18-   C17
  5284   5287   5290   5293      9     0.00   0.41840   5 ;   C110-   C19-   C18-   C17
  5284   5287   5290   5293      9     0.00   1.25520   3 ;   C110-   C19-   C18-   C17
  5285   5284   5287   5288      9     0.00   0.62760   3 ;   H10R-  C110-   C19-   H9R
  5285   5284   5287   5289      9     0.00   0.62760   3 ;   H10R-  C110-   C19-   H9S
  5285   5284   5287   5290      9     0.00   0.66944   3 ;   H10R-  C110-   C19-   C18
  5286   5284   5287   5288      9     0.00   0.62760   3 ;   H10S-  C110-   C19-   H9R
  5286   5284   5287   5289      9     0.00   0.62760   3 ;   H10S-  C110-   C19-   H9S
  5286   5284   5287   5290      9     0.00   0.66944   3 ;   H10S-  C110-   C19-   C18
  5287   5290   5293   5294      9     0.00   0.66944   3 ;    C19-   C18-   C17-   H7R
  5287   5290   5293   5295      9     0.00   0.66944   3 ;    C19-   C18-   C17-   H7S
  5287   5290   5293   5296      9     0.00   0.41840   1 ;    C19-   C18-   C17-   C16
  5287   5290   5293   5296      9     0.00   0.41840   2 ;    C19-   C18-   C17-   C16
  5287   5290   5293   5296      9     0.00   0.41840   4 ;    C19-   C18-   C17-   C16
  5287   5290   5293   5296      9     0.00   0.41840   5 ;    C19-   C18-   C17-   C16
  5287   5290   5293   5296      9     0.00   1.25520   3 ;    C19-   C18-   C17-   C16
  5288   5287   5290   5291      9     0.00   0.62760   3 ;    H9R-   C19-   C18-   H8R
  5288   5287   5290   5292      9     0.00   0.62760   3 ;    H9R-   C19-   C18-   H8S
  5288   5287   5290   5293      9     0.00   0.66944   3 ;    H9R-   C19-   C18-   C17
  5289   5287   5290   5291      9     0.00   0.62760   3 ;    H9S-   C19-   C18-   H8R
  5289   5287   5290   5292      9     0.00   0.62760   3 ;    H9S-   C19-   C18-   H8S
  5289   5287   5290   5293      9     0.00   0.66944   3 ;    H9S-   C19-   C18-   C17
  5290   5293   5296   5297      9     0.00   0.66944   3 ;    C18-   C17-   C16-   H6R
  5290   5293   5296   5298      9     0.00   0.66944   3 ;    C18-   C17-   C16-   H6S
  5290   5293   5296   5299      9     0.00   0.41840   1 ;    C18-   C17-   C16-   C15
  5290   5293   5296   5299      9     0.00   0.41840   2 ;    C18-   C17-   C16-   C15
  5290   5293   5296   5299      9     0.00   0.41840   4 ;    C18-   C17-   C16-   C15
  5290   5293   5296   5299      9     0.00   0.41840   5 ;    C18-   C17-   C16-   C15
  5290   5293   5296   5299      9     0.00   1.25520   3 ;    C18-   C17-   C16-   C15
  5291   5290   5293   5294      9     0.00   0.62760   3 ;    H8R-   C18-   C17-   H7R
  5291   5290   5293   5295      9     0.00   0.62760   3 ;    H8R-   C18-   C17-   H7S
  5291   5290   5293   5296      9     0.00   0.66944   3 ;    H8R-   C18-   C17-   C16
  5292   5290   5293   5294      9     0.00   0.62760   3 ;    H8S-   C18-   C17-   H7R
  5292   5290   5293   5295      9     0.00   0.62760   3 ;    H8S-   C18-   C17-   H7S
  5292   5290   5293   5296      9     0.00   0.66944   3 ;    H8S-   C18-   C17-   C16
  5293   5296   5299   5300      9     0.00   0.66944   3 ;    C17-   C16-   C15-   H5R
  5293   5296   5299   5301      9     0.00   0.66944   3 ;    C17-   C16-   C15-   H5S
  5293   5296   5299   5302      9     0.00   0.41840   1 ;    C17-   C16-   C15-   C14
  5293   5296   5299   5302      9     0.00   0.41840   2 ;    C17-   C16-   C15-   C14
  5293   5296   5299   5302      9     0.00   0.41840   4 ;    C17-   C16-   C15-   C14
  5293   5296   5299   5302      9     0.00   0.41840   5 ;    C17-   C16-   C15-   C14
  5293   5296   5299   5302      9     0.00   1.25520   3 ;    C17-   C16-   C15-   C14
  5294   5293   5296   5297      9     0.00   0.62760   3 ;    H7R-   C17-   C16-   H6R
  5294   5293   5296   5298      9     0.00   0.62760   3 ;    H7R-   C17-   C16-   H6S
  5294   5293   5296   5299      9     0.00   0.66944   3 ;    H7R-   C17-   C16-   C15
  5295   5293   5296   5297      9     0.00   0.62760   3 ;    H7S-   C17-   C16-   H6R
  5295   5293   5296   5298      9     0.00   0.62760   3 ;    H7S-   C17-   C16-   H6S
  5295   5293   5296   5299      9     0.00   0.66944   3 ;    H7S-   C17-   C16-   C15
  5296   5299   5302   5303      9     0.00   0.66944   3 ;    C16-   C15-   C14-   H4R
  5296   5299   5302   5304      9     0.00   0.66944   3 ;    C16-   C15-   C14-   H4S
  5296   5299   5302   5305      9     0.00   0.41840   1 ;    C16-   C15-   C14-   C13
  5296   5299   5302   5305      9     0.00   0.41840   2 ;    C16-   C15-   C14-   C13
  5296   5299   5302   5305      9     0.00   0.41840   4 ;    C16-   C15-   C14-   C13
  5296   5299   5302   5305      9     0.00   0.41840   5 ;    C16-   C15-   C14-   C13
  5296   5299   5302   5305      9     0.00   1.25520   3 ;    C16-   C15-   C14-   C13
  5297   5296   5299   5300      9     0.00   0.62760   3 ;    H6R-   C16-   C15-   H5R
  5297   5296   5299   5301      9     0.00   0.62760   3 ;    H6R-   C16-   C15-   H5S
  5297   5296   5299   5302      9     0.00   0.66944   3 ;    H6R-   C16-   C15-   C14
  5298   5296   5299   5300      9     0.00   0.62760   3 ;    H6S-   C16-   C15-   H5R
  5298   5296   5299   5301      9     0.00   0.62760   3 ;    H6S-   C16-   C15-   H5S
  5298   5296   5299   5302      9     0.00   0.66944   3 ;    H6S-   C16-   C15-   C14
  5299   5302   5305   5306      9     0.00   0.66944   3 ;    C15-   C14-   C13-   H3R
  5299   5302   5305   5307      9     0.00   0.66944   3 ;    C15-   C14-   C13-   H3S
  5299   5302   5305   5308      9     0.00   0.41840   1 ;    C15-   C14-   C13-   C12
  5299   5302   5305   5308      9     0.00   0.41840   2 ;    C15-   C14-   C13-   C12
  5299   5302   5305   5308      9     0.00   0.41840   4 ;    C15-   C14-   C13-   C12
  5299   5302   5305   5308      9     0.00   0.41840   5 ;    C15-   C14-   C13-   C12
  5299   5302   5305   5308      9     0.00   1.25520   3 ;    C15-   C14-   C13-   C12
  5300   5299   5302   5303      9     0.00   0.62760   3 ;    H5R-   C15-   C14-   H4R
  5300   5299   5302   5304      9     0.00   0.62760   3 ;    H5R-   C15-   C14-   H4S
  5300   5299   5302   5305      9     0.00   0.66944   3 ;    H5R-   C15-   C14-   C13
  5301   5299   5302   5303      9     0.00   0.62760   3 ;    H5S-   C15-   C14-   H4R
  5301   5299   5302   5304      9     0.00   0.62760   3 ;    H5S-   C15-   C14-   H4S
  5301   5299   5302   5305      9     0.00   0.66944   3 ;    H5S-   C15-   C14-   C13
  5302   5305   5308   5309      9     0.00   0.66944   3 ;    C14-   C13-   C12-   H2R
  5302   5305   5308   5310      9     0.00   0.66944   3 ;    C14-   C13-   C12-   H2S
  5303   5302   5305   5306      9     0.00   0.62760   3 ;    H4R-   C14-   C13-   H3R
  5303   5302   5305   5307      9     0.00   0.62760   3 ;    H4R-   C14-   C13-   H3S
  5303   5302   5305   5308      9     0.00   0.66944   3 ;    H4R-   C14-   C13-   C12
  5304   5302   5305   5306      9     0.00   0.62760   3 ;    H4S-   C14-   C13-   H3R
  5304   5302   5305   5307      9     0.00   0.62760   3 ;    H4S-   C14-   C13-   H3S
  5304   5302   5305   5308      9     0.00   0.66944   3 ;    H4S-   C14-   C13-   C12
  5306   5305   5308   5309      9     0.00   0.62760   3 ;    H3R-   C13-   C12-   H2R
  5306   5305   5308   5310      9     0.00   0.62760   3 ;    H3R-   C13-   C12-   H2S
  5307   5305   5308   5309      9     0.00   0.62760   3 ;    H3S-   C13-   C12-   H2R
  5307   5305   5308   5310      9     0.00   0.62760   3 ;    H3S-   C13-   C12-   H2S
  5311   5312   5315   5316      9     0.00   0.62760   3 ;   H14T-  C114-  C113-  H13R
  5311   5312   5315   5317      9     0.00   0.62760   3 ;   H14T-  C114-  C113-  H13S
  5311   5312   5315   5318      9     0.00   0.66944   3 ;   H14T-  C114-  C113-  C112
  5312   5315   5318   5319      9     0.00   0.66944   3 ;   C114-  C113-  C112-  H12R
  5312   5315   5318   5320      9     0.00   0.66944   3 ;   C114-  C113-  C112-  H12S
  5312   5315   5318   5321      9     0.00   0.41840   1 ;   C114-  C113-  C112-  C111
  5312   5315   5318   5321      9     0.00   0.41840   2 ;   C114-  C113-  C112-  C111
  5312   5315   5318   5321      9     0.00   0.41840   4 ;   C114-  C113-  C112-  C111
  5312   5315   5318   5321      9     0.00   0.41840   5 ;   C114-  C113-  C112-  C111
  5312   5315   5318   5321      9     0.00   1.25520   3 ;   C114-  C113-  C112-  C111
  5313   5312   5315   5316      9     0.00   0.62760   3 ;   H14R-  C114-  C113-  H13R
  5313   5312   5315   5317      9     0.00   0.62760   3 ;   H14R-  C114-  C113-  H13S
  5313   5312   5315   5318      9     0.00   0.66944   3 ;   H14R-  C114-  C113-  C112
  5314   5312   5315   5316      9     0.00   0.62760   3 ;   H14S-  C114-  C113-  H13R
  5314   5312   5315   5317      9     0.00   0.62760   3 ;   H14S-  C114-  C113-  H13S
  5314   5312   5315   5318      9     0.00   0.66944   3 ;   H14S-  C114-  C113-  C112
  5315   5318   5321   5322      9     0.00   0.66944   3 ;   C113-  C112-  C111-  H11R
  5315   5318   5321   5323      9     0.00   0.66944   3 ;   C113-  C112-  C111-  H11S
  5315   5318   5321   5324      9     0.00   0.41840   1 ;   C113-  C112-  C111-  C110
  5315   5318   5321   5324      9     0.00   0.41840   2 ;   C113-  C112-  C111-  C110
  5315   5318   5321   5324      9     0.00   0.41840   4 ;   C113-  C112-  C111-  C110
  5315   5318   5321   5324      9     0.00   0.41840   5 ;   C113-  C112-  C111-  C110
  5315   5318   5321   5324      9     0.00   1.25520   3 ;   C113-  C112-  C111-  C110
  5316   5315   5318   5319      9     0.00   0.62760   3 ;   H13R-  C113-  C112-  H12R
  5316   5315   5318   5320      9     0.00   0.62760   3 ;   H13R-  C113-  C112-  H12S
  5316   5315   5318   5321      9     0.00   0.66944   3 ;   H13R-  C113-  C112-  C111
  5317   5315   5318   5319      9     0.00   0.62760   3 ;   H13S-  C113-  C112-  H12R
  5317   5315   5318   5320      9     0.00   0.62760   3 ;   H13S-  C113-  C112-  H12S
  5317   5315   5318   5321      9     0.00   0.66944   3 ;   H13S-  C113-  C112-  C111
  5318   5321   5324   5325      9     0.00   0.66944   3 ;   C112-  C111-  C110-  H10R
  5318   5321   5324   5326      9     0.00   0.66944   3 ;   C112-  C111-  C110-  H10S
  5318   5321   5324   5327      9     0.00   0.41840   1 ;   C112-  C111-  C110-   C19
  5318   5321   5324   5327      9     0.00   0.41840   2 ;   C112-  C111-  C110-   C19
  5318   5321   5324   5327      9     0.00   0.41840   4 ;   C112-  C111-  C110-   C19
  5318   5321   5324   5327      9     0.00   0.41840   5 ;   C112-  C111-  C110-   C19
  5318   5321   5324   5327      9     0.00   1.25520   3 ;   C112-  C111-  C110-   C19
  5319   5318   5321   5322      9     0.00   0.62760   3 ;   H12R-  C112-  C111-  H11R
  5319   5318   5321   5323      9     0.00   0.62760   3 ;   H12R-  C112-  C111-  H11S
  5319   5318   5321   5324      9     0.00   0.66944   3 ;   H12R-  C112-  C111-  C110
  5320   5318   5321   5322      9     0.00   0.62760   3 ;   H12S-  C112-  C111-  H11R
  5320   5318   5321   5323      9     0.00   0.62760   3 ;   H12S-  C112-  C111-  H11S
  5320   5318   5321   5324      9     0.00   0.66944   3 ;   H12S-  C112-  C111-  C110
  5321   5324   5327   5328      9     0.00   0.66944   3 ;   C111-  C110-   C19-   H9R
  5321   5324   5327   5329      9     0.00   0.66944   3 ;   C111-  C110-   C19-   H9S
  5321   5324   5327   5330      9     0.00   0.41840   1 ;   C111-  C110-   C19-   C18
  5321   5324   5327   5330      9     0.00   0.41840   2 ;   C111-  C110-   C19-   C18
  5321   5324   5327   5330      9     0.00   0.41840   4 ;   C111-  C110-   C19-   C18
  5321   5324   5327   5330      9     0.00   0.41840   5 ;   C111-  C110-   C19-   C18
  5321   5324   5327   5330      9     0.00   1.25520   3 ;   C111-  C110-   C19-   C18
  5322   5321   5324   5325      9     0.00   0.62760   3 ;   H11R-  C111-  C110-  H10R
  5322   5321   5324   5326      9     0.00   0.62760   3 ;   H11R-  C111-  C110-  H10S
  5322   5321   5324   5327      9     0.00   0.66944   3 ;   H11R-  C111-  C110-   C19
  5323   5321   5324   5325      9     0.00   0.62760   3 ;   H11S-  C111-  C110-  H10R
  5323   5321   5324   5326      9     0.00   0.62760   3 ;   H11S-  C111-  C110-  H10S
  5323   5321   5324   5327      9     0.00   0.66944   3 ;   H11S-  C111-  C110-   C19
  5324   5327   5330   5331      9     0.00   0.66944   3 ;   C110-   C19-   C18-   H8R
  5324   5327   5330   5332      9     0.00   0.66944   3 ;   C110-   C19-   C18-   H8S
  5324   5327   5330   5333      9     0.00   0.41840   1 ;   C110-   C19-   C18-   C17
  5324   5327   5330   5333      9     0.00   0.41840   2 ;   C110-   C19-   C18-   C17
  5324   5327   5330   5333      9     0.00   0.41840   4 ;   C110-   C19-   C18-   C17
  5324   5327   5330   5333      9     0.00   0.41840   5 ;   C110-   C19-   C18-   C17
  5324   5327   5330   5333      9     0.00   1.25520   3 ;   C110-   C19-   C18-   C17
  5325   5324   5327   5328      9     0.00   0.62760   3 ;   H10R-  C110-   C19-   H9R
  5325   5324   5327   5329      9     0.00   0.62760   3 ;   H10R-  C110-   C19-   H9S
  5325   5324   5327   5330      9     0.00   0.66944   3 ;   H10R-  C110-   C19-   C18
  5326   5324   5327   5328      9     0.00   0.62760   3 ;   H10S-  C110-   C19-   H9R
  5326   5324   5327   5329      9     0.00   0.62760   3 ;   H10S-  C110-   C19-   H9S
  5326   5324   5327   5330      9     0.00   0.66944   3 ;   H10S-  C110-   C19-   C18
  5327   5330   5333   5334      9     0.00   0.66944   3 ;    C19-   C18-   C17-   H7R
  5327   5330   5333   5335      9     0.00   0.66944   3 ;    C19-   C18-   C17-   H7S
  5327   5330   5333   5336      9     0.00   0.41840   1 ;    C19-   C18-   C17-   C16
  5327   5330   5333   5336      9     0.00   0.41840   2 ;    C19-   C18-   C17-   C16
  5327   5330   5333   5336      9     0.00   0.41840   4 ;    C19-   C18-   C17-   C16
  5327   5330   5333   5336      9     0.00   0.41840   5 ;    C19-   C18-   C17-   C16
  5327   5330   5333   5336      9     0.00   1.25520   3 ;    C19-   C18-   C17-   C16
  5328   5327   5330   5331      9     0.00   0.62760   3 ;    H9R-   C19-   C18-   H8R
  5328   5327   5330   5332      9     0.00   0.62760   3 ;    H9R-   C19-   C18-   H8S
  5328   5327   5330   5333      9     0.00   0.66944   3 ;    H9R-   C19-   C18-   C17
  5329   5327   5330   5331      9     0.00   0.62760   3 ;    H9S-   C19-   C18-   H8R
  5329   5327   5330   5332      9     0.00   0.62760   3 ;    H9S-   C19-   C18-   H8S
  5329   5327   5330   5333      9     0.00   0.66944   3 ;    H9S-   C19-   C18-   C17
  5330   5333   5336   5337      9     0.00   0.66944   3 ;    C18-   C17-   C16-   H6R
  5330   5333   5336   5338      9     0.00   0.66944   3 ;    C18-   C17-   C16-   H6S
  5330   5333   5336   5339      9     0.00   0.41840   1 ;    C18-   C17-   C16-   C15
  5330   5333   5336   5339      9     0.00   0.41840   2 ;    C18-   C17-   C16-   C15
  5330   5333   5336   5339      9     0.00   0.41840   4 ;    C18-   C17-   C16-   C15
  5330   5333   5336   5339      9     0.00   0.41840   5 ;    C18-   C17-   C16-   C15
  5330   5333   5336   5339      9     0.00   1.25520   3 ;    C18-   C17-   C16-   C15
  5331   5330   5333   5334      9     0.00   0.62760   3 ;    H8R-   C18-   C17-   H7R
  5331   5330   5333   5335      9     0.00   0.62760   3 ;    H8R-   C18-   C17-   H7S
  5331   5330   5333   5336      9     0.00   0.66944   3 ;    H8R-   C18-   C17-   C16
  5332   5330   5333   5334      9     0.00   0.62760   3 ;    H8S-   C18-   C17-   H7R
  5332   5330   5333   5335      9     0.00   0.62760   3 ;    H8S-   C18-   C17-   H7S
  5332   5330   5333   5336      9     0.00   0.66944   3 ;    H8S-   C18-   C17-   C16
  5333   5336   5339   5340      9     0.00   0.66944   3 ;    C17-   C16-   C15-   H5R
  5333   5336   5339   5341      9     0.00   0.66944   3 ;    C17-   C16-   C15-   H5S
  5333   5336   5339   5342      9     0.00   0.41840   1 ;    C17-   C16-   C15-   C14
  5333   5336   5339   5342      9     0.00   0.41840   2 ;    C17-   C16-   C15-   C14
  5333   5336   5339   5342      9     0.00   0.41840   4 ;    C17-   C16-   C15-   C14
  5333   5336   5339   5342      9     0.00   0.41840   5 ;    C17-   C16-   C15-   C14
  5333   5336   5339   5342      9     0.00   1.25520   3 ;    C17-   C16-   C15-   C14
  5334   5333   5336   5337      9     0.00   0.62760   3 ;    H7R-   C17-   C16-   H6R
  5334   5333   5336   5338      9     0.00   0.62760   3 ;    H7R-   C17-   C16-   H6S
  5334   5333   5336   5339      9     0.00   0.66944   3 ;    H7R-   C17-   C16-   C15
  5335   5333   5336   5337      9     0.00   0.62760   3 ;    H7S-   C17-   C16-   H6R
  5335   5333   5336   5338      9     0.00   0.62760   3 ;    H7S-   C17-   C16-   H6S
  5335   5333   5336   5339      9     0.00   0.66944   3 ;    H7S-   C17-   C16-   C15
  5336   5339   5342   5343      9     0.00   0.66944   3 ;    C16-   C15-   C14-   H4R
  5336   5339   5342   5344      9     0.00   0.66944   3 ;    C16-   C15-   C14-   H4S
  5336   5339   5342   5345      9     0.00   0.41840   1 ;    C16-   C15-   C14-   C13
  5336   5339   5342   5345      9     0.00   0.41840   2 ;    C16-   C15-   C14-   C13
  5336   5339   5342   5345      9     0.00   0.41840   4 ;    C16-   C15-   C14-   C13
  5336   5339   5342   5345      9     0.00   0.41840   5 ;    C16-   C15-   C14-   C13
  5336   5339   5342   5345      9     0.00   1.25520   3 ;    C16-   C15-   C14-   C13
  5337   5336   5339   5340      9     0.00   0.62760   3 ;    H6R-   C16-   C15-   H5R
  5337   5336   5339   5341      9     0.00   0.62760   3 ;    H6R-   C16-   C15-   H5S
  5337   5336   5339   5342      9     0.00   0.66944   3 ;    H6R-   C16-   C15-   C14
  5338   5336   5339   5340      9     0.00   0.62760   3 ;    H6S-   C16-   C15-   H5R
  5338   5336   5339   5341      9     0.00   0.62760   3 ;    H6S-   C16-   C15-   H5S
  5338   5336   5339   5342      9     0.00   0.66944   3 ;    H6S-   C16-   C15-   C14
  5339   5342   5345   5346      9     0.00   0.66944   3 ;    C15-   C14-   C13-   H3R
  5339   5342   5345   5347      9     0.00   0.66944   3 ;    C15-   C14-   C13-   H3S
  5339   5342   5345   5348      9     0.00   0.41840   1 ;    C15-   C14-   C13-   C12
  5339   5342   5345   5348      9     0.00   0.41840   2 ;    C15-   C14-   C13-   C12
  5339   5342   5345   5348      9     0.00   0.41840   4 ;    C15-   C14-   C13-   C12
  5339   5342   5345   5348      9     0.00   0.41840   5 ;    C15-   C14-   C13-   C12
  5339   5342   5345   5348      9     0.00   1.25520   3 ;    C15-   C14-   C13-   C12
  5340   5339   5342   5343      9     0.00   0.62760   3 ;    H5R-   C15-   C14-   H4R
  5340   5339   5342   5344      9     0.00   0.62760   3 ;    H5R-   C15-   C14-   H4S
  5340   5339   5342   5345      9     0.00   0.66944   3 ;    H5R-   C15-   C14-   C13
  5341   5339   5342   5343      9     0.00   0.62760   3 ;    H5S-   C15-   C14-   H4R
  5341   5339   5342   5344      9     0.00   0.62760   3 ;    H5S-   C15-   C14-   H4S
  5341   5339   5342   5345      9     0.00   0.66944   3 ;    H5S-   C15-   C14-   C13
  5342   5345   5348   5349      9     0.00   0.66944   3 ;    C14-   C13-   C12-   H2R
  5342   5345   5348   5350      9     0.00   0.66944   3 ;    C14-   C13-   C12-   H2S
  5342   5345   5348   5351      9     0.00   0.65270   3 ;    C14-   C13-   C12-   C11
  5343   5342   5345   5346      9     0.00   0.62760   3 ;    H4R-   C14-   C13-   H3R
  5343   5342   5345   5347      9     0.00   0.62760   3 ;    H4R-   C14-   C13-   H3S
  5343   5342   5345   5348      9     0.00   0.66944   3 ;    H4R-   C14-   C13-   C12
  5344   5342   5345   5346      9     0.00   0.62760   3 ;    H4S-   C14-   C13-   H3R
  5344   5342   5345   5347      9     0.00   0.62760   3 ;    H4S-   C14-   C13-   H3S
  5344   5342   5345   5348      9     0.00   0.66944   3 ;    H4S-   C14-   C13-   C12
  5345   5348   5351   5352      9   180.00   0.00000   2 ;    C13-   C12-   C11-   O12
  5345   5348   5351   5353      9   180.00   0.00000   2 ;    C13-   C12-   C11-   O11
  5346   5345   5348   5349      9     0.00   0.62760   3 ;    H3R-   C13-   C12-   H2R
  5346   5345   5348   5350      9     0.00   0.62760   3 ;    H3R-   C13-   C12-   H2S
  5346   5345   5348   5351      9     0.00   0.65270   3 ;    H3R-   C13-   C12-   C11
  5347   5345   5348   5349      9     0.00   0.62760   3 ;    H3S-   C13-   C12-   H2R
  5347   5345   5348   5350      9     0.00   0.62760   3 ;    H3S-   C13-   C12-   H2S
  5347   5345   5348   5351      9     0.00   0.65270   3 ;    H3S-   C13-   C12-   C11
  5348   5351   5353   5354      9   180.00  11.29680   2 ;    C12-   C11-   O11-    C1
  5349   5348   5351   5352      9     0.00   3.34720   1 ;    H2R-   C12-   C11-   O12
  5349   5348   5351   5352      9   180.00   0.33472   3 ;    H2R-   C12-   C11-   O12
  5349   5348   5351   5353      9   180.00   0.00000   2 ;    H2R-   C12-   C11-   O11
  5350   5348   5351   5352      9     0.00   3.34720   1 ;    H2S-   C12-   C11-   O12
  5350   5348   5351   5352      9   180.00   0.33472   3 ;    H2S-   C12-   C11-   O12
  5350   5348   5351   5353      9   180.00   0.00000   2 ;    H2S-   C12-   C11-   O11
  5351   5353   5354   5355      9     0.00   1.60247   3 ;    C11-   O11-    C1-    HR
  5351   5353   5354   5356      9     0.00   1.60247   3 ;    C11-   O11-    C1-    HS
  5351   5353   5354   5357      9     0.00  -0.41840   1 ;    C11-   O11-    C1-    C2
  5352   5351   5353   5354      9   180.00   5.85760   1 ;    O12-   C11-   O11-    C1
  5352   5351   5353   5354      9   180.00  11.29680   2 ;    O12-   C11-   O11-    C1
  5353   5354   5357   5358      9     0.00   0.00000   0 ;    O11-    C1-    C2-    HX
  5353   5354   5357   5358      9     0.00   1.04600   1 ;    O11-    C1-    C2-    HX
  5353   5354   5357   5359      9     0.00   0.00000   0 ;    O11-    C1-    C2-    C3
  5353   5354   5357   5359      9     0.00   0.00000   0 ;    O11-    C1-    C2-    C3
  5353   5354   5357   5359      9     0.00   0.00000   0 ;    O11-    C1-    C2-    C3
  5353   5354   5357   5359      9     0.00   0.00000   0 ;    O11-    C1-    C2-    C3
  5353   5354   5357   5359      9     0.00   0.00000   0 ;    O11-    C1-    C2-    C3
  5353   5354   5357   5386      9     0.00   1.25520   2 ;    O11-    C1-    C2-   O21
  5353   5354   5357   5386      9     0.00   4.18400   3 ;    O11-    C1-    C2-   O21
  5353   5354   5357   5386      9   180.00  -0.41840   1 ;    O11-    C1-    C2-   O21
  5354   5357   5359   5360      9     0.00   0.65270   3 ;     C1-    C2-    C3-    HA
  5354   5357   5359   5361      9     0.00   0.65270   3 ;     C1-    C2-    C3-    HB
  5354   5357   5359   5362      9   180.00   3.34720   1 ;     C1-    C2-    C3-   O31
  5354   5357   5386   5387      9     0.00  -0.41840   1 ;     C1-    C2-   O21-   C21
  5355   5354   5357   5358      9     0.00   0.65270   3 ;     HR-    C1-    C2-    HX
  5355   5354   5357   5359      9     0.00   0.65270   3 ;     HR-    C1-    C2-    C3
  5355   5354   5357   5386      9     0.00   0.00000   0 ;     HR-    C1-    C2-   O21
  5355   5354   5357   5386      9     0.00   1.04600   1 ;     HR-    C1-    C2-   O21
  5356   5354   5357   5358      9     0.00   0.65270   3 ;     HS-    C1-    C2-    HX
  5356   5354   5357   5359      9     0.00   0.65270   3 ;     HS-    C1-    C2-    C3
  5356   5354   5357   5386      9     0.00   0.00000   0 ;     HS-    C1-    C2-   O21
  5356   5354   5357   5386      9     0.00   1.04600   1 ;     HS-    C1-    C2-   O21
  5357   5359   5362   5363      9     0.00   0.00000   0 ;     C2-    C3-   O31-   P31
  5357   5359   5362   5363      9   180.00  -3.34720   2 ;     C2-    C3-   O31-   P31
  5357   5386   5387   5388      9   180.00   5.85760   1 ;     C2-   O21-   C21-   O22
  5357   5386   5387   5388      9   180.00  11.29680   2 ;     C2-   O21-   C21-   O22
  5357   5386   5387   5426      9   180.00  11.29680   2 ;     C2-   O21-   C21-   C12
  5358   5357   5359   5360      9     0.00   0.65270   3 ;     HX-    C2-    C3-    HA
  5358   5357   5359   5361      9     0.00   0.65270   3 ;     HX-    C2-    C3-    HB
  5358   5357   5359   5362      9     0.00   0.00000   0 ;     HX-    C2-    C3-   O31
  5358   5357   5359   5362      9     0.00   1.04600   1 ;     HX-    C2-    C3-   O31
  5358   5357   5386   5387      9     0.00   1.60247   3 ;     HX-    C2-   O21-   C21
  5359   5357   5386   5387      9     0.00  -0.41840   1 ;     C3-    C2-   O21-   C21
  5359   5362   5363   5364      9     0.00   2.51040   3 ;     C3-   O31-   P31-   O32
  5359   5362   5363   5364      9     0.00   9.62320   2 ;     C3-   O31-   P31-   O32
  5359   5362   5363   5384      9     0.00   0.00000   0 ;     C3-   O31-   P31-   O33
  5359   5362   5363   5384      9     0.00   0.00000   0 ;     C3-   O31-   P31-   O33
  5359   5362   5363   5384      9     0.00   0.00000   0 ;     C3-   O31-   P31-   O33
  5359   5362   5363   5384      9     0.00   0.00000   0 ;     C3-   O31-   P31-   O33
  5359   5362   5363   5384      9     0.00   0.83680   2 ;     C3-   O31-   P31-   O33
  5359   5362   5363   5385      9     0.00   0.00000   0 ;     C3-   O31-   P31-   O34
  5359   5362   5363   5385      9     0.00   0.00000   0 ;     C3-   O31-   P31-   O34
  5359   5362   5363   5385      9     0.00   0.00000   0 ;     C3-   O31-   P31-   O34
  5359   5362   5363   5385      9     0.00   0.00000   0 ;     C3-   O31-   P31-   O34
  5359   5362   5363   5385      9     0.00   0.83680   2 ;     C3-   O31-   P31-   O34
  5360   5359   5357   5386      9     0.00   0.00000   0 ;     HA-    C3-    C2-   O21
  5360   5359   5357   5386      9     0.00   1.04600   1 ;     HA-    C3-    C2-   O21
  5360   5359   5362   5363      9     0.00   0.00000   0 ;     HA-    C3-   O31-   P31
  5360   5359   5362   5363      9     0.00   0.00000   0 ;     HA-    C3-   O31-   P31
  5360   5359   5362   5363      9     0.00   0.00000   0 ;     HA-    C3-   O31-   P31
  5360   5359   5362   5363      9     0.00   0.00000   0 ;     HA-    C3-   O31-   P31
  5360   5359   5362   5363      9     0.00   1.60247   3 ;     HA-    C3-   O31-   P31
  5361   5359   5357   5386      9     0.00   0.00000   0 ;     HB-    C3-    C2-   O21
  5361   5359   5357   5386      9     0.00   1.04600   1 ;     HB-    C3-    C2-   O21
  5361   5359   5362   5363      9     0.00   0.00000   0 ;     HB-    C3-   O31-   P31
  5361   5359   5362   5363      9     0.00   0.00000   0 ;     HB-    C3-   O31-   P31
  5361   5359   5362   5363      9     0.00   0.00000   0 ;     HB-    C3-   O31-   P31
  5361   5359   5362   5363      9     0.00   0.00000   0 ;     HB-    C3-   O31-   P31
  5361   5359   5362   5363      9     0.00   1.60247   3 ;     HB-    C3-   O31-   P31
  5362   5359   5357   5386      9     0.00   0.00000   0 ;    O31-    C3-    C2-   O21
  5362   5359   5357   5386      9     0.00   0.00000   0 ;    O31-    C3-    C2-   O21
  5362   5359   5357   5386      9     0.00   0.00000   0 ;    O31-    C3-    C2-   O21
  5362   5359   5357   5386      9     0.00   0.00000   0 ;    O31-    C3-    C2-   O21
  5362   5359   5357   5386      9     0.00   0.00000   0 ;    O31-    C3-    C2-   O21
  5362   5363   5364   5365      9     0.00   2.51040   3 ;    O31-   P31-   O32-   C31
  5362   5363   5364   5365      9     0.00   9.62320   2 ;    O31-   P31-   O32-   C31
  5363   5364   5365   5366      9     0.00   0.00000   0 ;    P31-   O32-   C31-   H1A
  5363   5364   5365   5366      9     0.00   0.00000   0 ;    P31-   O32-   C31-   H1A
  5363   5364   5365   5366      9     0.00   0.00000   0 ;    P31-   O32-   C31-   H1A
  5363   5364   5365   5366      9     0.00   0.00000   0 ;    P31-   O32-   C31-   H1A
  5363   5364   5365   5366      9     0.00   1.60247   3 ;    P31-   O32-   C31-   H1A
  5363   5364   5365   5367      9     0.00   0.00000   0 ;    P31-   O32-   C31-   H1B
  5363   5364   5365   5367      9     0.00   0.00000   0 ;    P31-   O32-   C31-   H1B
  5363   5364   5365   5367      9     0.00   0.00000   0 ;    P31-   O32-   C31-   H1B
  5363   5364   5365   5367      9     0.00   0.00000   0 ;    P31-   O32-   C31-   H1B
  5363   5364   5365   5367      9     0.00   1.60247   3 ;    P31-   O32-   C31-   H1B
  5363   5364   5365   5368      9     0.00   0.00000   0 ;    P31-   O32-   C31-   C32
  5363   5364   5365   5368      9   180.00  -3.34720   2 ;    P31-   O32-   C31-   C32
  5364   5365   5368   5369      9     0.00   0.65270   3 ;    O32-   C31-   C32-   H2A
  5364   5365   5368   5370      9     0.00   0.65270   3 ;    O32-   C31-   C32-   H2B
  5364   5365   5368   5371      9     0.00   4.18400   3 ;    O32-   C31-   C32-   N31
  5365   5364   5363   5384      9     0.00   0.00000   0 ;    C31-   O32-   P31-   O33
  5365   5364   5363   5384      9     0.00   0.00000   0 ;    C31-   O32-   P31-   O33
  5365   5364   5363   5384      9     0.00   0.00000   0 ;    C31-   O32-   P31-   O33
  5365   5364   5363   5384      9     0.00   0.00000   0 ;    C31-   O32-   P31-   O33
  5365   5364   5363   5384      9     0.00   0.83680   2 ;    C31-   O32-   P31-   O33
  5365   5364   5363   5385      9     0.00   0.00000   0 ;    C31-   O32-   P31-   O34
  5365   5364   5363   5385      9     0.00   0.00000   0 ;    C31-   O32-   P31-   O34
  5365   5364   5363   5385      9     0.00   0.00000   0 ;    C31-   O32-   P31-   O34
  5365   5364   5363   5385      9     0.00   0.00000   0 ;    C31-   O32-   P31-   O34
  5365   5364   5363   5385      9     0.00   0.83680   2 ;    C31-   O32-   P31-   O34
  5365   5368   5371   5372      9     0.00   0.65270   3 ;    C31-   C32-   N31-   C33
  5365   5368   5371   5376      9     0.00   0.65270   3 ;    C31-   C32-   N31-   C34
  5365   5368   5371   5380      9     0.00   0.65270   3 ;    C31-   C32-   N31-   C35
  5366   5365   5368   5369      9     0.00   0.65270   3 ;    H1A-   C31-   C32-   H2A
  5366   5365   5368   5370      9     0.00   0.65270   3 ;    H1A-   C31-   C32-   H2B
  5366   5365   5368   5371      9     0.00   0.65270   3 ;    H1A-   C31-   C32-   N31
  5367   5365   5368   5369      9     0.00   0.65270   3 ;    H1B-   C31-   C32-   H2A
  5367   5365   5368   5370      9     0.00   0.65270   3 ;    H1B-   C31-   C32-   H2B
  5367   5365   5368   5371      9     0.00   0.65270   3 ;    H1B-   C31-   C32-   N31
  5368   5371   5372   5373      9     0.00   0.65270   3 ;    C32-   N31-   C33-   H3A
  5368   5371   5372   5374      9     0.00   0.65270   3 ;    C32-   N31-   C33-   H3B
  5368   5371   5372   5375      9     0.00   0.65270   3 ;    C32-   N31-   C33-   H3C
  5368   5371   5376   5377      9     0.00   0.65270   3 ;    C32-   N31-   C34-   H4A
  5368   5371   5376   5378      9     0.00   0.65270   3 ;    C32-   N31-   C34-   H4B
  5368   5371   5376   5379      9     0.00   0.65270   3 ;    C32-   N31-   C34-   H4C
  5368   5371   5380   5381      9     0.00   0.65270   3 ;    C32-   N31-   C35-   H5A
  5368   5371   5380   5382      9     0.00   0.65270   3 ;    C32-   N31-   C35-   H5B
  5368   5371   5380   5383      9     0.00   0.65270   3 ;    C32-   N31-   C35-   H5C
  5369   5368   5371   5372      9     0.00   0.65270   3 ;    H2A-   C32-   N31-   C33
  5369   5368   5371   5376      9     0.00   0.65270   3 ;    H2A-   C32-   N31-   C34
  5369   5368   5371   5380      9     0.00   0.65270   3 ;    H2A-   C32-   N31-   C35
  5370   5368   5371   5372      9     0.00   0.65270   3 ;    H2B-   C32-   N31-   C33
  5370   5368   5371   5376      9     0.00   0.65270   3 ;    H2B-   C32-   N31-   C34
  5370   5368   5371   5380      9     0.00   0.65270   3 ;    H2B-   C32-   N31-   C35
  5372   5371   5376   5377      9     0.00   0.65270   3 ;    C33-   N31-   C34-   H4A
  5372   5371   5376   5378      9     0.00   0.65270   3 ;    C33-   N31-   C34-   H4B
  5372   5371   5376   5379      9     0.00   0.65270   3 ;    C33-   N31-   C34-   H4C
  5372   5371   5380   5381      9     0.00   0.65270   3 ;    C33-   N31-   C35-   H5A
  5372   5371   5380   5382      9     0.00   0.65270   3 ;    C33-   N31-   C35-   H5B
  5372   5371   5380   5383      9     0.00   0.65270   3 ;    C33-   N31-   C35-   H5C
  5373   5372   5371   5376      9     0.00   0.65270   3 ;    H3A-   C33-   N31-   C34
  5373   5372   5371   5380      9     0.00   0.65270   3 ;    H3A-   C33-   N31-   C35
  5374   5372   5371   5376      9     0.00   0.65270   3 ;    H3B-   C33-   N31-   C34
  5374   5372   5371   5380      9     0.00   0.65270   3 ;    H3B-   C33-   N31-   C35
  5375   5372   5371   5376      9     0.00   0.65270   3 ;    H3C-   C33-   N31-   C34
  5375   5372   5371   5380      9     0.00   0.65270   3 ;    H3C-   C33-   N31-   C35
  5376   5371   5380   5381      9     0.00   0.65270   3 ;    C34-   N31-   C35-   H5A
  5376   5371   5380   5382      9     0.00   0.65270   3 ;    C34-   N31-   C35-   H5B
  5376   5371   5380   5383      9     0.00   0.65270   3 ;    C34-   N31-   C35-   H5C
  5377   5376   5371   5380      9     0.00   0.65270   3 ;    H4A-   C34-   N31-   C35
  5378   5376   5371   5380      9     0.00   0.65270   3 ;    H4B-   C34-   N31-   C35
  5379   5376   5371   5380      9     0.00   0.65270   3 ;    H4C-   C34-   N31-   C35
  5386   5387   5426   5423      9   180.00   0.00000   2 ;    O21-   C21-   C12-   C13
  5386   5387   5426   5427      9   180.00   0.00000   2 ;    O21-   C21-   C12-   H2R
  5386   5387   5426   5428      9   180.00   0.00000   2 ;    O21-   C21-   C12-   H2S
  5387   5426   5423   5420      9     0.00   0.65270   3 ;    C21-   C12-   C13-   C14
  5387   5426   5423   5424      9     0.00   0.65270   3 ;    C21-   C12-   C13-   H3R
  5387   5426   5423   5425      9     0.00   0.65270   3 ;    C21-   C12-   C13-   H3S
  5388   5387   5426   5423      9   180.00   0.00000   2 ;    O22-   C21-   C12-   C13
  5388   5387   5426   5427      9     0.00   3.34720   1 ;    O22-   C21-   C12-   H2R
  5388   5387   5426   5427      9   180.00   0.33472   3 ;    O22-   C21-   C12-   H2R
  5388   5387   5426   5428      9     0.00   3.34720   1 ;    O22-   C21-   C12-   H2S
  5388   5387   5426   5428      9   180.00   0.33472   3 ;    O22-   C21-   C12-   H2S
  5389   5390   5393   5394      9     0.00   0.62760   3 ;   H14T-  C114-  C113-  H13R
  5389   5390   5393   5395      9     0.00   0.62760   3 ;   H14T-  C114-  C113-  H13S
  5389   5390   5393   5396      9     0.00   0.66944   3 ;   H14T-  C114-  C113-  C112
  5390   5393   5396   5397      9     0.00   0.66944   3 ;   C114-  C113-  C112-  H12R
  5390   5393   5396   5398      9     0.00   0.66944   3 ;   C114-  C113-  C112-  H12S
  5390   5393   5396   5399      9     0.00   0.41840   1 ;   C114-  C113-  C112-  C111
  5390   5393   5396   5399      9     0.00   0.41840   2 ;   C114-  C113-  C112-  C111
  5390   5393   5396   5399      9     0.00   0.41840   4 ;   C114-  C113-  C112-  C111
  5390   5393   5396   5399      9     0.00   0.41840   5 ;   C114-  C113-  C112-  C111
  5390   5393   5396   5399      9     0.00   1.25520   3 ;   C114-  C113-  C112-  C111
  5391   5390   5393   5394      9     0.00   0.62760   3 ;   H14R-  C114-  C113-  H13R
  5391   5390   5393   5395      9     0.00   0.62760   3 ;   H14R-  C114-  C113-  H13S
  5391   5390   5393   5396      9     0.00   0.66944   3 ;   H14R-  C114-  C113-  C112
  5392   5390   5393   5394      9     0.00   0.62760   3 ;   H14S-  C114-  C113-  H13R
  5392   5390   5393   5395      9     0.00   0.62760   3 ;   H14S-  C114-  C113-  H13S
  5392   5390   5393   5396      9     0.00   0.66944   3 ;   H14S-  C114-  C113-  C112
  5393   5396   5399   5400      9     0.00   0.66944   3 ;   C113-  C112-  C111-  H11R
  5393   5396   5399   5401      9     0.00   0.66944   3 ;   C113-  C112-  C111-  H11S
  5393   5396   5399   5402      9     0.00   0.41840   1 ;   C113-  C112-  C111-  C110
  5393   5396   5399   5402      9     0.00   0.41840   2 ;   C113-  C112-  C111-  C110
  5393   5396   5399   5402      9     0.00   0.41840   4 ;   C113-  C112-  C111-  C110
  5393   5396   5399   5402      9     0.00   0.41840   5 ;   C113-  C112-  C111-  C110
  5393   5396   5399   5402      9     0.00   1.25520   3 ;   C113-  C112-  C111-  C110
  5394   5393   5396   5397      9     0.00   0.62760   3 ;   H13R-  C113-  C112-  H12R
  5394   5393   5396   5398      9     0.00   0.62760   3 ;   H13R-  C113-  C112-  H12S
  5394   5393   5396   5399      9     0.00   0.66944   3 ;   H13R-  C113-  C112-  C111
  5395   5393   5396   5397      9     0.00   0.62760   3 ;   H13S-  C113-  C112-  H12R
  5395   5393   5396   5398      9     0.00   0.62760   3 ;   H13S-  C113-  C112-  H12S
  5395   5393   5396   5399      9     0.00   0.66944   3 ;   H13S-  C113-  C112-  C111
  5396   5399   5402   5403      9     0.00   0.66944   3 ;   C112-  C111-  C110-  H10R
  5396   5399   5402   5404      9     0.00   0.66944   3 ;   C112-  C111-  C110-  H10S
  5396   5399   5402   5405      9     0.00   0.41840   1 ;   C112-  C111-  C110-   C19
  5396   5399   5402   5405      9     0.00   0.41840   2 ;   C112-  C111-  C110-   C19
  5396   5399   5402   5405      9     0.00   0.41840   4 ;   C112-  C111-  C110-   C19
  5396   5399   5402   5405      9     0.00   0.41840   5 ;   C112-  C111-  C110-   C19
  5396   5399   5402   5405      9     0.00   1.25520   3 ;   C112-  C111-  C110-   C19
  5397   5396   5399   5400      9     0.00   0.62760   3 ;   H12R-  C112-  C111-  H11R
  5397   5396   5399   5401      9     0.00   0.62760   3 ;   H12R-  C112-  C111-  H11S
  5397   5396   5399   5402      9     0.00   0.66944   3 ;   H12R-  C112-  C111-  C110
  5398   5396   5399   5400      9     0.00   0.62760   3 ;   H12S-  C112-  C111-  H11R
  5398   5396   5399   5401      9     0.00   0.62760   3 ;   H12S-  C112-  C111-  H11S
  5398   5396   5399   5402      9     0.00   0.66944   3 ;   H12S-  C112-  C111-  C110
  5399   5402   5405   5406      9     0.00   0.66944   3 ;   C111-  C110-   C19-   H9R
  5399   5402   5405   5407      9     0.00   0.66944   3 ;   C111-  C110-   C19-   H9S
  5399   5402   5405   5408      9     0.00   0.41840   1 ;   C111-  C110-   C19-   C18
  5399   5402   5405   5408      9     0.00   0.41840   2 ;   C111-  C110-   C19-   C18
  5399   5402   5405   5408      9     0.00   0.41840   4 ;   C111-  C110-   C19-   C18
  5399   5402   5405   5408      9     0.00   0.41840   5 ;   C111-  C110-   C19-   C18
  5399   5402   5405   5408      9     0.00   1.25520   3 ;   C111-  C110-   C19-   C18
  5400   5399   5402   5403      9     0.00   0.62760   3 ;   H11R-  C111-  C110-  H10R
  5400   5399   5402   5404      9     0.00   0.62760   3 ;   H11R-  C111-  C110-  H10S
  5400   5399   5402   5405      9     0.00   0.66944   3 ;   H11R-  C111-  C110-   C19
  5401   5399   5402   5403      9     0.00   0.62760   3 ;   H11S-  C111-  C110-  H10R
  5401   5399   5402   5404      9     0.00   0.62760   3 ;   H11S-  C111-  C110-  H10S
  5401   5399   5402   5405      9     0.00   0.66944   3 ;   H11S-  C111-  C110-   C19
  5402   5405   5408   5409      9     0.00   0.66944   3 ;   C110-   C19-   C18-   H8R
  5402   5405   5408   5410      9     0.00   0.66944   3 ;   C110-   C19-   C18-   H8S
  5402   5405   5408   5411      9     0.00   0.41840   1 ;   C110-   C19-   C18-   C17
  5402   5405   5408   5411      9     0.00   0.41840   2 ;   C110-   C19-   C18-   C17
  5402   5405   5408   5411      9     0.00   0.41840   4 ;   C110-   C19-   C18-   C17
  5402   5405   5408   5411      9     0.00   0.41840   5 ;   C110-   C19-   C18-   C17
  5402   5405   5408   5411      9     0.00   1.25520   3 ;   C110-   C19-   C18-   C17
  5403   5402   5405   5406      9     0.00   0.62760   3 ;   H10R-  C110-   C19-   H9R
  5403   5402   5405   5407      9     0.00   0.62760   3 ;   H10R-  C110-   C19-   H9S
  5403   5402   5405   5408      9     0.00   0.66944   3 ;   H10R-  C110-   C19-   C18
  5404   5402   5405   5406      9     0.00   0.62760   3 ;   H10S-  C110-   C19-   H9R
  5404   5402   5405   5407      9     0.00   0.62760   3 ;   H10S-  C110-   C19-   H9S
  5404   5402   5405   5408      9     0.00   0.66944   3 ;   H10S-  C110-   C19-   C18
  5405   5408   5411   5412      9     0.00   0.66944   3 ;    C19-   C18-   C17-   H7R
  5405   5408   5411   5413      9     0.00   0.66944   3 ;    C19-   C18-   C17-   H7S
  5405   5408   5411   5414      9     0.00   0.41840   1 ;    C19-   C18-   C17-   C16
  5405   5408   5411   5414      9     0.00   0.41840   2 ;    C19-   C18-   C17-   C16
  5405   5408   5411   5414      9     0.00   0.41840   4 ;    C19-   C18-   C17-   C16
  5405   5408   5411   5414      9     0.00   0.41840   5 ;    C19-   C18-   C17-   C16
  5405   5408   5411   5414      9     0.00   1.25520   3 ;    C19-   C18-   C17-   C16
  5406   5405   5408   5409      9     0.00   0.62760   3 ;    H9R-   C19-   C18-   H8R
  5406   5405   5408   5410      9     0.00   0.62760   3 ;    H9R-   C19-   C18-   H8S
  5406   5405   5408   5411      9     0.00   0.66944   3 ;    H9R-   C19-   C18-   C17
  5407   5405   5408   5409      9     0.00   0.62760   3 ;    H9S-   C19-   C18-   H8R
  5407   5405   5408   5410      9     0.00   0.62760   3 ;    H9S-   C19-   C18-   H8S
  5407   5405   5408   5411      9     0.00   0.66944   3 ;    H9S-   C19-   C18-   C17
  5408   5411   5414   5415      9     0.00   0.66944   3 ;    C18-   C17-   C16-   H6R
  5408   5411   5414   5416      9     0.00   0.66944   3 ;    C18-   C17-   C16-   H6S
  5408   5411   5414   5417      9     0.00   0.41840   1 ;    C18-   C17-   C16-   C15
  5408   5411   5414   5417      9     0.00   0.41840   2 ;    C18-   C17-   C16-   C15
  5408   5411   5414   5417      9     0.00   0.41840   4 ;    C18-   C17-   C16-   C15
  5408   5411   5414   5417      9     0.00   0.41840   5 ;    C18-   C17-   C16-   C15
  5408   5411   5414   5417      9     0.00   1.25520   3 ;    C18-   C17-   C16-   C15
  5409   5408   5411   5412      9     0.00   0.62760   3 ;    H8R-   C18-   C17-   H7R
  5409   5408   5411   5413      9     0.00   0.62760   3 ;    H8R-   C18-   C17-   H7S
  5409   5408   5411   5414      9     0.00   0.66944   3 ;    H8R-   C18-   C17-   C16
  5410   5408   5411   5412      9     0.00   0.62760   3 ;    H8S-   C18-   C17-   H7R
  5410   5408   5411   5413      9     0.00   0.62760   3 ;    H8S-   C18-   C17-   H7S
  5410   5408   5411   5414      9     0.00   0.66944   3 ;    H8S-   C18-   C17-   C16
  5411   5414   5417   5418      9     0.00   0.66944   3 ;    C17-   C16-   C15-   H5R
  5411   5414   5417   5419      9     0.00   0.66944   3 ;    C17-   C16-   C15-   H5S
  5411   5414   5417   5420      9     0.00   0.41840   1 ;    C17-   C16-   C15-   C14
  5411   5414   5417   5420      9     0.00   0.41840   2 ;    C17-   C16-   C15-   C14
  5411   5414   5417   5420      9     0.00   0.41840   4 ;    C17-   C16-   C15-   C14
  5411   5414   5417   5420      9     0.00   0.41840   5 ;    C17-   C16-   C15-   C14
  5411   5414   5417   5420      9     0.00   1.25520   3 ;    C17-   C16-   C15-   C14
  5412   5411   5414   5415      9     0.00   0.62760   3 ;    H7R-   C17-   C16-   H6R
  5412   5411   5414   5416      9     0.00   0.62760   3 ;    H7R-   C17-   C16-   H6S
  5412   5411   5414   5417      9     0.00   0.66944   3 ;    H7R-   C17-   C16-   C15
  5413   5411   5414   5415      9     0.00   0.62760   3 ;    H7S-   C17-   C16-   H6R
  5413   5411   5414   5416      9     0.00   0.62760   3 ;    H7S-   C17-   C16-   H6S
  5413   5411   5414   5417      9     0.00   0.66944   3 ;    H7S-   C17-   C16-   C15
  5414   5417   5420   5421      9     0.00   0.66944   3 ;    C16-   C15-   C14-   H4R
  5414   5417   5420   5422      9     0.00   0.66944   3 ;    C16-   C15-   C14-   H4S
  5414   5417   5420   5423      9     0.00   0.41840   1 ;    C16-   C15-   C14-   C13
  5414   5417   5420   5423      9     0.00   0.41840   2 ;    C16-   C15-   C14-   C13
  5414   5417   5420   5423      9     0.00   0.41840   4 ;    C16-   C15-   C14-   C13
  5414   5417   5420   5423      9     0.00   0.41840   5 ;    C16-   C15-   C14-   C13
  5414   5417   5420   5423      9     0.00   1.25520   3 ;    C16-   C15-   C14-   C13
  5415   5414   5417   5418      9     0.00   0.62760   3 ;    H6R-   C16-   C15-   H5R
  5415   5414   5417   5419      9     0.00   0.62760   3 ;    H6R-   C16-   C15-   H5S
  5415   5414   5417   5420      9     0.00   0.66944   3 ;    H6R-   C16-   C15-   C14
  5416   5414   5417   5418      9     0.00   0.62760   3 ;    H6S-   C16-   C15-   H5R
  5416   5414   5417   5419      9     0.00   0.62760   3 ;    H6S-   C16-   C15-   H5S
  5416   5414   5417   5420      9     0.00   0.66944   3 ;    H6S-   C16-   C15-   C14
  5417   5420   5423   5424      9     0.00   0.66944   3 ;    C15-   C14-   C13-   H3R
  5417   5420   5423   5425      9     0.00   0.66944   3 ;    C15-   C14-   C13-   H3S
  5417   5420   5423   5426      9     0.00   0.41840   1 ;    C15-   C14-   C13-   C12
  5417   5420   5423   5426      9     0.00   0.41840   2 ;    C15-   C14-   C13-   C12
  5417   5420   5423   5426      9     0.00   0.41840   4 ;    C15-   C14-   C13-   C12
  5417   5420   5423   5426      9     0.00   0.41840   5 ;    C15-   C14-   C13-   C12
  5417   5420   5423   5426      9     0.00   1.25520   3 ;    C15-   C14-   C13-   C12
  5418   5417   5420   5421      9     0.00   0.62760   3 ;    H5R-   C15-   C14-   H4R
  5418   5417   5420   5422      9     0.00   0.62760   3 ;    H5R-   C15-   C14-   H4S
  5418   5417   5420   5423      9     0.00   0.66944   3 ;    H5R-   C15-   C14-   C13
  5419   5417   5420   5421      9     0.00   0.62760   3 ;    H5S-   C15-   C14-   H4R
  5419   5417   5420   5422      9     0.00   0.62760   3 ;    H5S-   C15-   C14-   H4S
  5419   5417   5420   5423      9     0.00   0.66944   3 ;    H5S-   C15-   C14-   C13
  5420   5423   5426   5427      9     0.00   0.66944   3 ;    C14-   C13-   C12-   H2R
  5420   5423   5426   5428      9     0.00   0.66944   3 ;    C14-   C13-   C12-   H2S
  5421   5420   5423   5424      9     0.00   0.62760   3 ;    H4R-   C14-   C13-   H3R
  5421   5420   5423   5425      9     0.00   0.62760   3 ;    H4R-   C14-   C13-   H3S
  5421   5420   5423   5426      9     0.00   0.66944   3 ;    H4R-   C14-   C13-   C12
  5422   5420   5423   5424      9     0.00   0.62760   3 ;    H4S-   C14-   C13-   H3R
  5422   5420   5423   5425      9     0.00   0.62760   3 ;    H4S-   C14-   C13-   H3S
  5422   5420   5423   5426      9     0.00   0.66944   3 ;    H4S-   C14-   C13-   C12
  5424   5423   5426   5427      9     0.00   0.62760   3 ;    H3R-   C13-   C12-   H2R
  5424   5423   5426   5428      9     0.00   0.62760   3 ;    H3R-   C13-   C12-   H2S
  5425   5423   5426   5427      9     0.00   0.62760   3 ;    H3S-   C13-   C12-   H2R
  5425   5423   5426   5428      9     0.00   0.62760   3 ;    H3S-   C13-   C12-   H2S
  5429   5430   5433   5434      9     0.00   0.62760   3 ;   H14T-  C114-  C113-  H13R
  5429   5430   5433   5435      9     0.00   0.62760   3 ;   H14T-  C114-  C113-  H13S
  5429   5430   5433   5436      9     0.00   0.66944   3 ;   H14T-  C114-  C113-  C112
  5430   5433   5436   5437      9     0.00   0.66944   3 ;   C114-  C113-  C112-  H12R
  5430   5433   5436   5438      9     0.00   0.66944   3 ;   C114-  C113-  C112-  H12S
  5430   5433   5436   5439      9     0.00   0.41840   1 ;   C114-  C113-  C112-  C111
  5430   5433   5436   5439      9     0.00   0.41840   2 ;   C114-  C113-  C112-  C111
  5430   5433   5436   5439      9     0.00   0.41840   4 ;   C114-  C113-  C112-  C111
  5430   5433   5436   5439      9     0.00   0.41840   5 ;   C114-  C113-  C112-  C111
  5430   5433   5436   5439      9     0.00   1.25520   3 ;   C114-  C113-  C112-  C111
  5431   5430   5433   5434      9     0.00   0.62760   3 ;   H14R-  C114-  C113-  H13R
  5431   5430   5433   5435      9     0.00   0.62760   3 ;   H14R-  C114-  C113-  H13S
  5431   5430   5433   5436      9     0.00   0.66944   3 ;   H14R-  C114-  C113-  C112
  5432   5430   5433   5434      9     0.00   0.62760   3 ;   H14S-  C114-  C113-  H13R
  5432   5430   5433   5435      9     0.00   0.62760   3 ;   H14S-  C114-  C113-  H13S
  5432   5430   5433   5436      9     0.00   0.66944   3 ;   H14S-  C114-  C113-  C112
  5433   5436   5439   5440      9     0.00   0.66944   3 ;   C113-  C112-  C111-  H11R
  5433   5436   5439   5441      9     0.00   0.66944   3 ;   C113-  C112-  C111-  H11S
  5433   5436   5439   5442      9     0.00   0.41840   1 ;   C113-  C112-  C111-  C110
  5433   5436   5439   5442      9     0.00   0.41840   2 ;   C113-  C112-  C111-  C110
  5433   5436   5439   5442      9     0.00   0.41840   4 ;   C113-  C112-  C111-  C110
  5433   5436   5439   5442      9     0.00   0.41840   5 ;   C113-  C112-  C111-  C110
  5433   5436   5439   5442      9     0.00   1.25520   3 ;   C113-  C112-  C111-  C110
  5434   5433   5436   5437      9     0.00   0.62760   3 ;   H13R-  C113-  C112-  H12R
  5434   5433   5436   5438      9     0.00   0.62760   3 ;   H13R-  C113-  C112-  H12S
  5434   5433   5436   5439      9     0.00   0.66944   3 ;   H13R-  C113-  C112-  C111
  5435   5433   5436   5437      9     0.00   0.62760   3 ;   H13S-  C113-  C112-  H12R
  5435   5433   5436   5438      9     0.00   0.62760   3 ;   H13S-  C113-  C112-  H12S
  5435   5433   5436   5439      9     0.00   0.66944   3 ;   H13S-  C113-  C112-  C111
  5436   5439   5442   5443      9     0.00   0.66944   3 ;   C112-  C111-  C110-  H10R
  5436   5439   5442   5444      9     0.00   0.66944   3 ;   C112-  C111-  C110-  H10S
  5436   5439   5442   5445      9     0.00   0.41840   1 ;   C112-  C111-  C110-   C19
  5436   5439   5442   5445      9     0.00   0.41840   2 ;   C112-  C111-  C110-   C19
  5436   5439   5442   5445      9     0.00   0.41840   4 ;   C112-  C111-  C110-   C19
  5436   5439   5442   5445      9     0.00   0.41840   5 ;   C112-  C111-  C110-   C19
  5436   5439   5442   5445      9     0.00   1.25520   3 ;   C112-  C111-  C110-   C19
  5437   5436   5439   5440      9     0.00   0.62760   3 ;   H12R-  C112-  C111-  H11R
  5437   5436   5439   5441      9     0.00   0.62760   3 ;   H12R-  C112-  C111-  H11S
  5437   5436   5439   5442      9     0.00   0.66944   3 ;   H12R-  C112-  C111-  C110
  5438   5436   5439   5440      9     0.00   0.62760   3 ;   H12S-  C112-  C111-  H11R
  5438   5436   5439   5441      9     0.00   0.62760   3 ;   H12S-  C112-  C111-  H11S
  5438   5436   5439   5442      9     0.00   0.66944   3 ;   H12S-  C112-  C111-  C110
  5439   5442   5445   5446      9     0.00   0.66944   3 ;   C111-  C110-   C19-   H9R
  5439   5442   5445   5447      9     0.00   0.66944   3 ;   C111-  C110-   C19-   H9S
  5439   5442   5445   5448      9     0.00   0.41840   1 ;   C111-  C110-   C19-   C18
  5439   5442   5445   5448      9     0.00   0.41840   2 ;   C111-  C110-   C19-   C18
  5439   5442   5445   5448      9     0.00   0.41840   4 ;   C111-  C110-   C19-   C18
  5439   5442   5445   5448      9     0.00   0.41840   5 ;   C111-  C110-   C19-   C18
  5439   5442   5445   5448      9     0.00   1.25520   3 ;   C111-  C110-   C19-   C18
  5440   5439   5442   5443      9     0.00   0.62760   3 ;   H11R-  C111-  C110-  H10R
  5440   5439   5442   5444      9     0.00   0.62760   3 ;   H11R-  C111-  C110-  H10S
  5440   5439   5442   5445      9     0.00   0.66944   3 ;   H11R-  C111-  C110-   C19
  5441   5439   5442   5443      9     0.00   0.62760   3 ;   H11S-  C111-  C110-  H10R
  5441   5439   5442   5444      9     0.00   0.62760   3 ;   H11S-  C111-  C110-  H10S
  5441   5439   5442   5445      9     0.00   0.66944   3 ;   H11S-  C111-  C110-   C19
  5442   5445   5448   5449      9     0.00   0.66944   3 ;   C110-   C19-   C18-   H8R
  5442   5445   5448   5450      9     0.00   0.66944   3 ;   C110-   C19-   C18-   H8S
  5442   5445   5448   5451      9     0.00   0.41840   1 ;   C110-   C19-   C18-   C17
  5442   5445   5448   5451      9     0.00   0.41840   2 ;   C110-   C19-   C18-   C17
  5442   5445   5448   5451      9     0.00   0.41840   4 ;   C110-   C19-   C18-   C17
  5442   5445   5448   5451      9     0.00   0.41840   5 ;   C110-   C19-   C18-   C17
  5442   5445   5448   5451      9     0.00   1.25520   3 ;   C110-   C19-   C18-   C17
  5443   5442   5445   5446      9     0.00   0.62760   3 ;   H10R-  C110-   C19-   H9R
  5443   5442   5445   5447      9     0.00   0.62760   3 ;   H10R-  C110-   C19-   H9S
  5443   5442   5445   5448      9     0.00   0.66944   3 ;   H10R-  C110-   C19-   C18
  5444   5442   5445   5446      9     0.00   0.62760   3 ;   H10S-  C110-   C19-   H9R
  5444   5442   5445   5447      9     0.00   0.62760   3 ;   H10S-  C110-   C19-   H9S
  5444   5442   5445   5448      9     0.00   0.66944   3 ;   H10S-  C110-   C19-   C18
  5445   5448   5451   5452      9     0.00   0.66944   3 ;    C19-   C18-   C17-   H7R
  5445   5448   5451   5453      9     0.00   0.66944   3 ;    C19-   C18-   C17-   H7S
  5445   5448   5451   5454      9     0.00   0.41840   1 ;    C19-   C18-   C17-   C16
  5445   5448   5451   5454      9     0.00   0.41840   2 ;    C19-   C18-   C17-   C16
  5445   5448   5451   5454      9     0.00   0.41840   4 ;    C19-   C18-   C17-   C16
  5445   5448   5451   5454      9     0.00   0.41840   5 ;    C19-   C18-   C17-   C16
  5445   5448   5451   5454      9     0.00   1.25520   3 ;    C19-   C18-   C17-   C16
  5446   5445   5448   5449      9     0.00   0.62760   3 ;    H9R-   C19-   C18-   H8R
  5446   5445   5448   5450      9     0.00   0.62760   3 ;    H9R-   C19-   C18-   H8S
  5446   5445   5448   5451      9     0.00   0.66944   3 ;    H9R-   C19-   C18-   C17
  5447   5445   5448   5449      9     0.00   0.62760   3 ;    H9S-   C19-   C18-   H8R
  5447   5445   5448   5450      9     0.00   0.62760   3 ;    H9S-   C19-   C18-   H8S
  5447   5445   5448   5451      9     0.00   0.66944   3 ;    H9S-   C19-   C18-   C17
  5448   5451   5454   5455      9     0.00   0.66944   3 ;    C18-   C17-   C16-   H6R
  5448   5451   5454   5456      9     0.00   0.66944   3 ;    C18-   C17-   C16-   H6S
  5448   5451   5454   5457      9     0.00   0.41840   1 ;    C18-   C17-   C16-   C15
  5448   5451   5454   5457      9     0.00   0.41840   2 ;    C18-   C17-   C16-   C15
  5448   5451   5454   5457      9     0.00   0.41840   4 ;    C18-   C17-   C16-   C15
  5448   5451   5454   5457      9     0.00   0.41840   5 ;    C18-   C17-   C16-   C15
  5448   5451   5454   5457      9     0.00   1.25520   3 ;    C18-   C17-   C16-   C15
  5449   5448   5451   5452      9     0.00   0.62760   3 ;    H8R-   C18-   C17-   H7R
  5449   5448   5451   5453      9     0.00   0.62760   3 ;    H8R-   C18-   C17-   H7S
  5449   5448   5451   5454      9     0.00   0.66944   3 ;    H8R-   C18-   C17-   C16
  5450   5448   5451   5452      9     0.00   0.62760   3 ;    H8S-   C18-   C17-   H7R
  5450   5448   5451   5453      9     0.00   0.62760   3 ;    H8S-   C18-   C17-   H7S
  5450   5448   5451   5454      9     0.00   0.66944   3 ;    H8S-   C18-   C17-   C16
  5451   5454   5457   5458      9     0.00   0.66944   3 ;    C17-   C16-   C15-   H5R
  5451   5454   5457   5459      9     0.00   0.66944   3 ;    C17-   C16-   C15-   H5S
  5451   5454   5457   5460      9     0.00   0.41840   1 ;    C17-   C16-   C15-   C14
  5451   5454   5457   5460      9     0.00   0.41840   2 ;    C17-   C16-   C15-   C14
  5451   5454   5457   5460      9     0.00   0.41840   4 ;    C17-   C16-   C15-   C14
  5451   5454   5457   5460      9     0.00   0.41840   5 ;    C17-   C16-   C15-   C14
  5451   5454   5457   5460      9     0.00   1.25520   3 ;    C17-   C16-   C15-   C14
  5452   5451   5454   5455      9     0.00   0.62760   3 ;    H7R-   C17-   C16-   H6R
  5452   5451   5454   5456      9     0.00   0.62760   3 ;    H7R-   C17-   C16-   H6S
  5452   5451   5454   5457      9     0.00   0.66944   3 ;    H7R-   C17-   C16-   C15
  5453   5451   5454   5455      9     0.00   0.62760   3 ;    H7S-   C17-   C16-   H6R
  5453   5451   5454   5456      9     0.00   0.62760   3 ;    H7S-   C17-   C16-   H6S
  5453   5451   5454   5457      9     0.00   0.66944   3 ;    H7S-   C17-   C16-   C15
  5454   5457   5460   5461      9     0.00   0.66944   3 ;    C16-   C15-   C14-   H4R
  5454   5457   5460   5462      9     0.00   0.66944   3 ;    C16-   C15-   C14-   H4S
  5454   5457   5460   5463      9     0.00   0.41840   1 ;    C16-   C15-   C14-   C13
  5454   5457   5460   5463      9     0.00   0.41840   2 ;    C16-   C15-   C14-   C13
  5454   5457   5460   5463      9     0.00   0.41840   4 ;    C16-   C15-   C14-   C13
  5454   5457   5460   5463      9     0.00   0.41840   5 ;    C16-   C15-   C14-   C13
  5454   5457   5460   5463      9     0.00   1.25520   3 ;    C16-   C15-   C14-   C13
  5455   5454   5457   5458      9     0.00   0.62760   3 ;    H6R-   C16-   C15-   H5R
  5455   5454   5457   5459      9     0.00   0.62760   3 ;    H6R-   C16-   C15-   H5S
  5455   5454   5457   5460      9     0.00   0.66944   3 ;    H6R-   C16-   C15-   C14
  5456   5454   5457   5458      9     0.00   0.62760   3 ;    H6S-   C16-   C15-   H5R
  5456   5454   5457   5459      9     0.00   0.62760   3 ;    H6S-   C16-   C15-   H5S
  5456   5454   5457   5460      9     0.00   0.66944   3 ;    H6S-   C16-   C15-   C14
  5457   5460   5463   5464      9     0.00   0.66944   3 ;    C15-   C14-   C13-   H3R
  5457   5460   5463   5465      9     0.00   0.66944   3 ;    C15-   C14-   C13-   H3S
  5457   5460   5463   5466      9     0.00   0.41840   1 ;    C15-   C14-   C13-   C12
  5457   5460   5463   5466      9     0.00   0.41840   2 ;    C15-   C14-   C13-   C12
  5457   5460   5463   5466      9     0.00   0.41840   4 ;    C15-   C14-   C13-   C12
  5457   5460   5463   5466      9     0.00   0.41840   5 ;    C15-   C14-   C13-   C12
  5457   5460   5463   5466      9     0.00   1.25520   3 ;    C15-   C14-   C13-   C12
  5458   5457   5460   5461      9     0.00   0.62760   3 ;    H5R-   C15-   C14-   H4R
  5458   5457   5460   5462      9     0.00   0.62760   3 ;    H5R-   C15-   C14-   H4S
  5458   5457   5460   5463      9     0.00   0.66944   3 ;    H5R-   C15-   C14-   C13
  5459   5457   5460   5461      9     0.00   0.62760   3 ;    H5S-   C15-   C14-   H4R
  5459   5457   5460   5462      9     0.00   0.62760   3 ;    H5S-   C15-   C14-   H4S
  5459   5457   5460   5463      9     0.00   0.66944   3 ;    H5S-   C15-   C14-   C13
  5460   5463   5466   5467      9     0.00   0.66944   3 ;    C14-   C13-   C12-   H2R
  5460   5463   5466   5468      9     0.00   0.66944   3 ;    C14-   C13-   C12-   H2S
  5460   5463   5466   5469      9     0.00   0.65270   3 ;    C14-   C13-   C12-   C11
  5461   5460   5463   5464      9     0.00   0.62760   3 ;    H4R-   C14-   C13-   H3R
  5461   5460   5463   5465      9     0.00   0.62760   3 ;    H4R-   C14-   C13-   H3S
  5461   5460   5463   5466      9     0.00   0.66944   3 ;    H4R-   C14-   C13-   C12
  5462   5460   5463   5464      9     0.00   0.62760   3 ;    H4S-   C14-   C13-   H3R
  5462   5460   5463   5465      9     0.00   0.62760   3 ;    H4S-   C14-   C13-   H3S
  5462   5460   5463   5466      9     0.00   0.66944   3 ;    H4S-   C14-   C13-   C12
  5463   5466   5469   5470      9   180.00   0.00000   2 ;    C13-   C12-   C11-   O12
  5463   5466   5469   5471      9   180.00   0.00000   2 ;    C13-   C12-   C11-   O11
  5464   5463   5466   5467      9     0.00   0.62760   3 ;    H3R-   C13-   C12-   H2R
  5464   5463   5466   5468      9     0.00   0.62760   3 ;    H3R-   C13-   C12-   H2S
  5464   5463   5466   5469      9     0.00   0.65270   3 ;    H3R-   C13-   C12-   C11
  5465   5463   5466   5467      9     0.00   0.62760   3 ;    H3S-   C13-   C12-   H2R
  5465   5463   5466   5468      9     0.00   0.62760   3 ;    H3S-   C13-   C12-   H2S
  5465   5463   5466   5469      9     0.00   0.65270   3 ;    H3S-   C13-   C12-   C11
  5466   5469   5471   5472      9   180.00  11.29680   2 ;    C12-   C11-   O11-    C1
  5467   5466   5469   5470      9     0.00   3.34720   1 ;    H2R-   C12-   C11-   O12
  5467   5466   5469   5470      9   180.00   0.33472   3 ;    H2R-   C12-   C11-   O12
  5467   5466   5469   5471      9   180.00   0.00000   2 ;    H2R-   C12-   C11-   O11
  5468   5466   5469   5470      9     0.00   3.34720   1 ;    H2S-   C12-   C11-   O12
  5468   5466   5469   5470      9   180.00   0.33472   3 ;    H2S-   C12-   C11-   O12
  5468   5466   5469   5471      9   180.00   0.00000   2 ;    H2S-   C12-   C11-   O11
  5469   5471   5472   5473      9     0.00   1.60247   3 ;    C11-   O11-    C1-    HR
  5469   5471   5472   5474      9     0.00   1.60247   3 ;    C11-   O11-    C1-    HS
  5469   5471   5472   5475      9     0.00  -0.41840   1 ;    C11-   O11-    C1-    C2
  5470   5469   5471   5472      9   180.00   5.85760   1 ;    O12-   C11-   O11-    C1
  5470   5469   5471   5472      9   180.00  11.29680   2 ;    O12-   C11-   O11-    C1
  5471   5472   5475   5476      9     0.00   0.00000   0 ;    O11-    C1-    C2-    HX
  5471   5472   5475   5476      9     0.00   1.04600   1 ;    O11-    C1-    C2-    HX
  5471   5472   5475   5477      9     0.00   0.00000   0 ;    O11-    C1-    C2-    C3
  5471   5472   5475   5477      9     0.00   0.00000   0 ;    O11-    C1-    C2-    C3
  5471   5472   5475   5477      9     0.00   0.00000   0 ;    O11-    C1-    C2-    C3
  5471   5472   5475   5477      9     0.00   0.00000   0 ;    O11-    C1-    C2-    C3
  5471   5472   5475   5477      9     0.00   0.00000   0 ;    O11-    C1-    C2-    C3
  5471   5472   5475   5504      9     0.00   1.25520   2 ;    O11-    C1-    C2-   O21
  5471   5472   5475   5504      9     0.00   4.18400   3 ;    O11-    C1-    C2-   O21
  5471   5472   5475   5504      9   180.00  -0.41840   1 ;    O11-    C1-    C2-   O21
  5472   5475   5477   5478      9     0.00   0.65270   3 ;     C1-    C2-    C3-    HA
  5472   5475   5477   5479      9     0.00   0.65270   3 ;     C1-    C2-    C3-    HB
  5472   5475   5477   5480      9   180.00   3.34720   1 ;     C1-    C2-    C3-   O31
  5472   5475   5504   5505      9     0.00  -0.41840   1 ;     C1-    C2-   O21-   C21
  5473   5472   5475   5476      9     0.00   0.65270   3 ;     HR-    C1-    C2-    HX
  5473   5472   5475   5477      9     0.00   0.65270   3 ;     HR-    C1-    C2-    C3
  5473   5472   5475   5504      9     0.00   0.00000   0 ;     HR-    C1-    C2-   O21
  5473   5472   5475   5504      9     0.00   1.04600   1 ;     HR-    C1-    C2-   O21
  5474   5472   5475   5476      9     0.00   0.65270   3 ;     HS-    C1-    C2-    HX
  5474   5472   5475   5477      9     0.00   0.65270   3 ;     HS-    C1-    C2-    C3
  5474   5472   5475   5504      9     0.00   0.00000   0 ;     HS-    C1-    C2-   O21
  5474   5472   5475   5504      9     0.00   1.04600   1 ;     HS-    C1-    C2-   O21
  5475   5477   5480   5481      9     0.00   0.00000   0 ;     C2-    C3-   O31-   P31
  5475   5477   5480   5481      9   180.00  -3.34720   2 ;     C2-    C3-   O31-   P31
  5475   5504   5505   5506      9   180.00   5.85760   1 ;     C2-   O21-   C21-   O22
  5475   5504   5505   5506      9   180.00  11.29680   2 ;     C2-   O21-   C21-   O22
  5475   5504   5505   5544      9   180.00  11.29680   2 ;     C2-   O21-   C21-   C12
  5476   5475   5477   5478      9     0.00   0.65270   3 ;     HX-    C2-    C3-    HA
  5476   5475   5477   5479      9     0.00   0.65270   3 ;     HX-    C2-    C3-    HB
  5476   5475   5477   5480      9     0.00   0.00000   0 ;     HX-    C2-    C3-   O31
  5476   5475   5477   5480      9     0.00   1.04600   1 ;     HX-    C2-    C3-   O31
  5476   5475   5504   5505      9     0.00   1.60247   3 ;     HX-    C2-   O21-   C21
  5477   5475   5504   5505      9     0.00  -0.41840   1 ;     C3-    C2-   O21-   C21
  5477   5480   5481   5482      9     0.00   2.51040   3 ;     C3-   O31-   P31-   O32
  5477   5480   5481   5482      9     0.00   9.62320   2 ;     C3-   O31-   P31-   O32
  5477   5480   5481   5502      9     0.00   0.00000   0 ;     C3-   O31-   P31-   O33
  5477   5480   5481   5502      9     0.00   0.00000   0 ;     C3-   O31-   P31-   O33
  5477   5480   5481   5502      9     0.00   0.00000   0 ;     C3-   O31-   P31-   O33
  5477   5480   5481   5502      9     0.00   0.00000   0 ;     C3-   O31-   P31-   O33
  5477   5480   5481   5502      9     0.00   0.83680   2 ;     C3-   O31-   P31-   O33
  5477   5480   5481   5503      9     0.00   0.00000   0 ;     C3-   O31-   P31-   O34
  5477   5480   5481   5503      9     0.00   0.00000   0 ;     C3-   O31-   P31-   O34
  5477   5480   5481   5503      9     0.00   0.00000   0 ;     C3-   O31-   P31-   O34
  5477   5480   5481   5503      9     0.00   0.00000   0 ;     C3-   O31-   P31-   O34
  5477   5480   5481   5503      9     0.00   0.83680   2 ;     C3-   O31-   P31-   O34
  5478   5477   5475   5504      9     0.00   0.00000   0 ;     HA-    C3-    C2-   O21
  5478   5477   5475   5504      9     0.00   1.04600   1 ;     HA-    C3-    C2-   O21
  5478   5477   5480   5481      9     0.00   0.00000   0 ;     HA-    C3-   O31-   P31
  5478   5477   5480   5481      9     0.00   0.00000   0 ;     HA-    C3-   O31-   P31
  5478   5477   5480   5481      9     0.00   0.00000   0 ;     HA-    C3-   O31-   P31
  5478   5477   5480   5481      9     0.00   0.00000   0 ;     HA-    C3-   O31-   P31
  5478   5477   5480   5481      9     0.00   1.60247   3 ;     HA-    C3-   O31-   P31
  5479   5477   5475   5504      9     0.00   0.00000   0 ;     HB-    C3-    C2-   O21
  5479   5477   5475   5504      9     0.00   1.04600   1 ;     HB-    C3-    C2-   O21
  5479   5477   5480   5481      9     0.00   0.00000   0 ;     HB-    C3-   O31-   P31
  5479   5477   5480   5481      9     0.00   0.00000   0 ;     HB-    C3-   O31-   P31
  5479   5477   5480   5481      9     0.00   0.00000   0 ;     HB-    C3-   O31-   P31
  5479   5477   5480   5481      9     0.00   0.00000   0 ;     HB-    C3-   O31-   P31
  5479   5477   5480   5481      9     0.00   1.60247   3 ;     HB-    C3-   O31-   P31
  5480   5477   5475   5504      9     0.00   0.00000   0 ;    O31-    C3-    C2-   O21
  5480   5477   5475   5504      9     0.00   0.00000   0 ;    O31-    C3-    C2-   O21
  5480   5477   5475   5504      9     0.00   0.00000   0 ;    O31-    C3-    C2-   O21
  5480   5477   5475   5504      9     0.00   0.00000   0 ;    O31-    C3-    C2-   O21
  5480   5477   5475   5504      9     0.00   0.00000   0 ;    O31-    C3-    C2-   O21
  5480   5481   5482   5483      9     0.00   2.51040   3 ;    O31-   P31-   O32-   C31
  5480   5481   5482   5483      9     0.00   9.62320   2 ;    O31-   P31-   O32-   C31
  5481   5482   5483   5484      9     0.00   0.00000   0 ;    P31-   O32-   C31-   H1A
  5481   5482   5483   5484      9     0.00   0.00000   0 ;    P31-   O32-   C31-   H1A
  5481   5482   5483   5484      9     0.00   0.00000   0 ;    P31-   O32-   C31-   H1A
  5481   5482   5483   5484      9     0.00   0.00000   0 ;    P31-   O32-   C31-   H1A
  5481   5482   5483   5484      9     0.00   1.60247   3 ;    P31-   O32-   C31-   H1A
  5481   5482   5483   5485      9     0.00   0.00000   0 ;    P31-   O32-   C31-   H1B
  5481   5482   5483   5485      9     0.00   0.00000   0 ;    P31-   O32-   C31-   H1B
  5481   5482   5483   5485      9     0.00   0.00000   0 ;    P31-   O32-   C31-   H1B
  5481   5482   5483   5485      9     0.00   0.00000   0 ;    P31-   O32-   C31-   H1B
  5481   5482   5483   5485      9     0.00   1.60247   3 ;    P31-   O32-   C31-   H1B
  5481   5482   5483   5486      9     0.00   0.00000   0 ;    P31-   O32-   C31-   C32
  5481   5482   5483   5486      9   180.00  -3.34720   2 ;    P31-   O32-   C31-   C32
  5482   5483   5486   5487      9     0.00   0.65270   3 ;    O32-   C31-   C32-   H2A
  5482   5483   5486   5488      9     0.00   0.65270   3 ;    O32-   C31-   C32-   H2B
  5482   5483   5486   5489      9     0.00   4.18400   3 ;    O32-   C31-   C32-   N31
  5483   5482   5481   5502      9     0.00   0.00000   0 ;    C31-   O32-   P31-   O33
  5483   5482   5481   5502      9     0.00   0.00000   0 ;    C31-   O32-   P31-   O33
  5483   5482   5481   5502      9     0.00   0.00000   0 ;    C31-   O32-   P31-   O33
  5483   5482   5481   5502      9     0.00   0.00000   0 ;    C31-   O32-   P31-   O33
  5483   5482   5481   5502      9     0.00   0.83680   2 ;    C31-   O32-   P31-   O33
  5483   5482   5481   5503      9     0.00   0.00000   0 ;    C31-   O32-   P31-   O34
  5483   5482   5481   5503      9     0.00   0.00000   0 ;    C31-   O32-   P31-   O34
  5483   5482   5481   5503      9     0.00   0.00000   0 ;    C31-   O32-   P31-   O34
  5483   5482   5481   5503      9     0.00   0.00000   0 ;    C31-   O32-   P31-   O34
  5483   5482   5481   5503      9     0.00   0.83680   2 ;    C31-   O32-   P31-   O34
  5483   5486   5489   5490      9     0.00   0.65270   3 ;    C31-   C32-   N31-   C33
  5483   5486   5489   5494      9     0.00   0.65270   3 ;    C31-   C32-   N31-   C34
  5483   5486   5489   5498      9     0.00   0.65270   3 ;    C31-   C32-   N31-   C35
  5484   5483   5486   5487      9     0.00   0.65270   3 ;    H1A-   C31-   C32-   H2A
  5484   5483   5486   5488      9     0.00   0.65270   3 ;    H1A-   C31-   C32-   H2B
  5484   5483   5486   5489      9     0.00   0.65270   3 ;    H1A-   C31-   C32-   N31
  5485   5483   5486   5487      9     0.00   0.65270   3 ;    H1B-   C31-   C32-   H2A
  5485   5483   5486   5488      9     0.00   0.65270   3 ;    H1B-   C31-   C32-   H2B
  5485   5483   5486   5489      9     0.00   0.65270   3 ;    H1B-   C31-   C32-   N31
  5486   5489   5490   5491      9     0.00   0.65270   3 ;    C32-   N31-   C33-   H3A
  5486   5489   5490   5492      9     0.00   0.65270   3 ;    C32-   N31-   C33-   H3B
  5486   5489   5490   5493      9     0.00   0.65270   3 ;    C32-   N31-   C33-   H3C
  5486   5489   5494   5495      9     0.00   0.65270   3 ;    C32-   N31-   C34-   H4A
  5486   5489   5494   5496      9     0.00   0.65270   3 ;    C32-   N31-   C34-   H4B
  5486   5489   5494   5497      9     0.00   0.65270   3 ;    C32-   N31-   C34-   H4C
  5486   5489   5498   5499      9     0.00   0.65270   3 ;    C32-   N31-   C35-   H5A
  5486   5489   5498   5500      9     0.00   0.65270   3 ;    C32-   N31-   C35-   H5B
  5486   5489   5498   5501      9     0.00   0.65270   3 ;    C32-   N31-   C35-   H5C
  5487   5486   5489   5490      9     0.00   0.65270   3 ;    H2A-   C32-   N31-   C33
  5487   5486   5489   5494      9     0.00   0.65270   3 ;    H2A-   C32-   N31-   C34
  5487   5486   5489   5498      9     0.00   0.65270   3 ;    H2A-   C32-   N31-   C35
  5488   5486   5489   5490      9     0.00   0.65270   3 ;    H2B-   C32-   N31-   C33
  5488   5486   5489   5494      9     0.00   0.65270   3 ;    H2B-   C32-   N31-   C34
  5488   5486   5489   5498      9     0.00   0.65270   3 ;    H2B-   C32-   N31-   C35
  5490   5489   5494   5495      9     0.00   0.65270   3 ;    C33-   N31-   C34-   H4A
  5490   5489   5494   5496      9     0.00   0.65270   3 ;    C33-   N31-   C34-   H4B
  5490   5489   5494   5497      9     0.00   0.65270   3 ;    C33-   N31-   C34-   H4C
  5490   5489   5498   5499      9     0.00   0.65270   3 ;    C33-   N31-   C35-   H5A
  5490   5489   5498   5500      9     0.00   0.65270   3 ;    C33-   N31-   C35-   H5B
  5490   5489   5498   5501      9     0.00   0.65270   3 ;    C33-   N31-   C35-   H5C
  5491   5490   5489   5494      9     0.00   0.65270   3 ;    H3A-   C33-   N31-   C34
  5491   5490   5489   5498      9     0.00   0.65270   3 ;    H3A-   C33-   N31-   C35
  5492   5490   5489   5494      9     0.00   0.65270   3 ;    H3B-   C33-   N31-   C34
  5492   5490   5489   5498      9     0.00   0.65270   3 ;    H3B-   C33-   N31-   C35
  5493   5490   5489   5494      9     0.00   0.65270   3 ;    H3C-   C33-   N31-   C34
  5493   5490   5489   5498      9     0.00   0.65270   3 ;    H3C-   C33-   N31-   C35
  5494   5489   5498   5499      9     0.00   0.65270   3 ;    C34-   N31-   C35-   H5A
  5494   5489   5498   5500      9     0.00   0.65270   3 ;    C34-   N31-   C35-   H5B
  5494   5489   5498   5501      9     0.00   0.65270   3 ;    C34-   N31-   C35-   H5C
  5495   5494   5489   5498      9     0.00   0.65270   3 ;    H4A-   C34-   N31-   C35
  5496   5494   5489   5498      9     0.00   0.65270   3 ;    H4B-   C34-   N31-   C35
  5497   5494   5489   5498      9     0.00   0.65270   3 ;    H4C-   C34-   N31-   C35
  5504   5505   5544   5541      9   180.00   0.00000   2 ;    O21-   C21-   C12-   C13
  5504   5505   5544   5545      9   180.00   0.00000   2 ;    O21-   C21-   C12-   H2R
  5504   5505   5544   5546      9   180.00   0.00000   2 ;    O21-   C21-   C12-   H2S
  5505   5544   5541   5538      9     0.00   0.65270   3 ;    C21-   C12-   C13-   C14
  5505   5544   5541   5542      9     0.00   0.65270   3 ;    C21-   C12-   C13-   H3R
  5505   5544   5541   5543      9     0.00   0.65270   3 ;    C21-   C12-   C13-   H3S
  5506   5505   5544   5541      9   180.00   0.00000   2 ;    O22-   C21-   C12-   C13
  5506   5505   5544   5545      9     0.00   3.34720   1 ;    O22-   C21-   C12-   H2R
  5506   5505   5544   5545      9   180.00   0.33472   3 ;    O22-   C21-   C12-   H2R
  5506   5505   5544   5546      9     0.00   3.34720   1 ;    O22-   C21-   C12-   H2S
  5506   5505   5544   5546      9   180.00   0.33472   3 ;    O22-   C21-   C12-   H2S
  5507   5508   5511   5512      9     0.00   0.62760   3 ;   H14T-  C114-  C113-  H13R
  5507   5508   5511   5513      9     0.00   0.62760   3 ;   H14T-  C114-  C113-  H13S
  5507   5508   5511   5514      9     0.00   0.66944   3 ;   H14T-  C114-  C113-  C112
  5508   5511   5514   5515      9     0.00   0.66944   3 ;   C114-  C113-  C112-  H12R
  5508   5511   5514   5516      9     0.00   0.66944   3 ;   C114-  C113-  C112-  H12S
  5508   5511   5514   5517      9     0.00   0.41840   1 ;   C114-  C113-  C112-  C111
  5508   5511   5514   5517      9     0.00   0.41840   2 ;   C114-  C113-  C112-  C111
  5508   5511   5514   5517      9     0.00   0.41840   4 ;   C114-  C113-  C112-  C111
  5508   5511   5514   5517      9     0.00   0.41840   5 ;   C114-  C113-  C112-  C111
  5508   5511   5514   5517      9     0.00   1.25520   3 ;   C114-  C113-  C112-  C111
  5509   5508   5511   5512      9     0.00   0.62760   3 ;   H14R-  C114-  C113-  H13R
  5509   5508   5511   5513      9     0.00   0.62760   3 ;   H14R-  C114-  C113-  H13S
  5509   5508   5511   5514      9     0.00   0.66944   3 ;   H14R-  C114-  C113-  C112
  5510   5508   5511   5512      9     0.00   0.62760   3 ;   H14S-  C114-  C113-  H13R
  5510   5508   5511   5513      9     0.00   0.62760   3 ;   H14S-  C114-  C113-  H13S
  5510   5508   5511   5514      9     0.00   0.66944   3 ;   H14S-  C114-  C113-  C112
  5511   5514   5517   5518      9     0.00   0.66944   3 ;   C113-  C112-  C111-  H11R
  5511   5514   5517   5519      9     0.00   0.66944   3 ;   C113-  C112-  C111-  H11S
  5511   5514   5517   5520      9     0.00   0.41840   1 ;   C113-  C112-  C111-  C110
  5511   5514   5517   5520      9     0.00   0.41840   2 ;   C113-  C112-  C111-  C110
  5511   5514   5517   5520      9     0.00   0.41840   4 ;   C113-  C112-  C111-  C110
  5511   5514   5517   5520      9     0.00   0.41840   5 ;   C113-  C112-  C111-  C110
  5511   5514   5517   5520      9     0.00   1.25520   3 ;   C113-  C112-  C111-  C110
  5512   5511   5514   5515      9     0.00   0.62760   3 ;   H13R-  C113-  C112-  H12R
  5512   5511   5514   5516      9     0.00   0.62760   3 ;   H13R-  C113-  C112-  H12S
  5512   5511   5514   5517      9     0.00   0.66944   3 ;   H13R-  C113-  C112-  C111
  5513   5511   5514   5515      9     0.00   0.62760   3 ;   H13S-  C113-  C112-  H12R
  5513   5511   5514   5516      9     0.00   0.62760   3 ;   H13S-  C113-  C112-  H12S
  5513   5511   5514   5517      9     0.00   0.66944   3 ;   H13S-  C113-  C112-  C111
  5514   5517   5520   5521      9     0.00   0.66944   3 ;   C112-  C111-  C110-  H10R
  5514   5517   5520   5522      9     0.00   0.66944   3 ;   C112-  C111-  C110-  H10S
  5514   5517   5520   5523      9     0.00   0.41840   1 ;   C112-  C111-  C110-   C19
  5514   5517   5520   5523      9     0.00   0.41840   2 ;   C112-  C111-  C110-   C19
  5514   5517   5520   5523      9     0.00   0.41840   4 ;   C112-  C111-  C110-   C19
  5514   5517   5520   5523      9     0.00   0.41840   5 ;   C112-  C111-  C110-   C19
  5514   5517   5520   5523      9     0.00   1.25520   3 ;   C112-  C111-  C110-   C19
  5515   5514   5517   5518      9     0.00   0.62760   3 ;   H12R-  C112-  C111-  H11R
  5515   5514   5517   5519      9     0.00   0.62760   3 ;   H12R-  C112-  C111-  H11S
  5515   5514   5517   5520      9     0.00   0.66944   3 ;   H12R-  C112-  C111-  C110
  5516   5514   5517   5518      9     0.00   0.62760   3 ;   H12S-  C112-  C111-  H11R
  5516   5514   5517   5519      9     0.00   0.62760   3 ;   H12S-  C112-  C111-  H11S
  5516   5514   5517   5520      9     0.00   0.66944   3 ;   H12S-  C112-  C111-  C110
  5517   5520   5523   5524      9     0.00   0.66944   3 ;   C111-  C110-   C19-   H9R
  5517   5520   5523   5525      9     0.00   0.66944   3 ;   C111-  C110-   C19-   H9S
  5517   5520   5523   5526      9     0.00   0.41840   1 ;   C111-  C110-   C19-   C18
  5517   5520   5523   5526      9     0.00   0.41840   2 ;   C111-  C110-   C19-   C18
  5517   5520   5523   5526      9     0.00   0.41840   4 ;   C111-  C110-   C19-   C18
  5517   5520   5523   5526      9     0.00   0.41840   5 ;   C111-  C110-   C19-   C18
  5517   5520   5523   5526      9     0.00   1.25520   3 ;   C111-  C110-   C19-   C18
  5518   5517   5520   5521      9     0.00   0.62760   3 ;   H11R-  C111-  C110-  H10R
  5518   5517   5520   5522      9     0.00   0.62760   3 ;   H11R-  C111-  C110-  H10S
  5518   5517   5520   5523      9     0.00   0.66944   3 ;   H11R-  C111-  C110-   C19
  5519   5517   5520   5521      9     0.00   0.62760   3 ;   H11S-  C111-  C110-  H10R
  5519   5517   5520   5522      9     0.00   0.62760   3 ;   H11S-  C111-  C110-  H10S
  5519   5517   5520   5523      9     0.00   0.66944   3 ;   H11S-  C111-  C110-   C19
  5520   5523   5526   5527      9     0.00   0.66944   3 ;   C110-   C19-   C18-   H8R
  5520   5523   5526   5528      9     0.00   0.66944   3 ;   C110-   C19-   C18-   H8S
  5520   5523   5526   5529      9     0.00   0.41840   1 ;   C110-   C19-   C18-   C17
  5520   5523   5526   5529      9     0.00   0.41840   2 ;   C110-   C19-   C18-   C17
  5520   5523   5526   5529      9     0.00   0.41840   4 ;   C110-   C19-   C18-   C17
  5520   5523   5526   5529      9     0.00   0.41840   5 ;   C110-   C19-   C18-   C17
  5520   5523   5526   5529      9     0.00   1.25520   3 ;   C110-   C19-   C18-   C17
  5521   5520   5523   5524      9     0.00   0.62760   3 ;   H10R-  C110-   C19-   H9R
  5521   5520   5523   5525      9     0.00   0.62760   3 ;   H10R-  C110-   C19-   H9S
  5521   5520   5523   5526      9     0.00   0.66944   3 ;   H10R-  C110-   C19-   C18
  5522   5520   5523   5524      9     0.00   0.62760   3 ;   H10S-  C110-   C19-   H9R
  5522   5520   5523   5525      9     0.00   0.62760   3 ;   H10S-  C110-   C19-   H9S
  5522   5520   5523   5526      9     0.00   0.66944   3 ;   H10S-  C110-   C19-   C18
  5523   5526   5529   5530      9     0.00   0.66944   3 ;    C19-   C18-   C17-   H7R
  5523   5526   5529   5531      9     0.00   0.66944   3 ;    C19-   C18-   C17-   H7S
  5523   5526   5529   5532      9     0.00   0.41840   1 ;    C19-   C18-   C17-   C16
  5523   5526   5529   5532      9     0.00   0.41840   2 ;    C19-   C18-   C17-   C16
  5523   5526   5529   5532      9     0.00   0.41840   4 ;    C19-   C18-   C17-   C16
  5523   5526   5529   5532      9     0.00   0.41840   5 ;    C19-   C18-   C17-   C16
  5523   5526   5529   5532      9     0.00   1.25520   3 ;    C19-   C18-   C17-   C16
  5524   5523   5526   5527      9     0.00   0.62760   3 ;    H9R-   C19-   C18-   H8R
  5524   5523   5526   5528      9     0.00   0.62760   3 ;    H9R-   C19-   C18-   H8S
  5524   5523   5526   5529      9     0.00   0.66944   3 ;    H9R-   C19-   C18-   C17
  5525   5523   5526   5527      9     0.00   0.62760   3 ;    H9S-   C19-   C18-   H8R
  5525   5523   5526   5528      9     0.00   0.62760   3 ;    H9S-   C19-   C18-   H8S
  5525   5523   5526   5529      9     0.00   0.66944   3 ;    H9S-   C19-   C18-   C17
  5526   5529   5532   5533      9     0.00   0.66944   3 ;    C18-   C17-   C16-   H6R
  5526   5529   5532   5534      9     0.00   0.66944   3 ;    C18-   C17-   C16-   H6S
  5526   5529   5532   5535      9     0.00   0.41840   1 ;    C18-   C17-   C16-   C15
  5526   5529   5532   5535      9     0.00   0.41840   2 ;    C18-   C17-   C16-   C15
  5526   5529   5532   5535      9     0.00   0.41840   4 ;    C18-   C17-   C16-   C15
  5526   5529   5532   5535      9     0.00   0.41840   5 ;    C18-   C17-   C16-   C15
  5526   5529   5532   5535      9     0.00   1.25520   3 ;    C18-   C17-   C16-   C15
  5527   5526   5529   5530      9     0.00   0.62760   3 ;    H8R-   C18-   C17-   H7R
  5527   5526   5529   5531      9     0.00   0.62760   3 ;    H8R-   C18-   C17-   H7S
  5527   5526   5529   5532      9     0.00   0.66944   3 ;    H8R-   C18-   C17-   C16
  5528   5526   5529   5530      9     0.00   0.62760   3 ;    H8S-   C18-   C17-   H7R
  5528   5526   5529   5531      9     0.00   0.62760   3 ;    H8S-   C18-   C17-   H7S
  5528   5526   5529   5532      9     0.00   0.66944   3 ;    H8S-   C18-   C17-   C16
  5529   5532   5535   5536      9     0.00   0.66944   3 ;    C17-   C16-   C15-   H5R
  5529   5532   5535   5537      9     0.00   0.66944   3 ;    C17-   C16-   C15-   H5S
  5529   5532   5535   5538      9     0.00   0.41840   1 ;    C17-   C16-   C15-   C14
  5529   5532   5535   5538      9     0.00   0.41840   2 ;    C17-   C16-   C15-   C14
  5529   5532   5535   5538      9     0.00   0.41840   4 ;    C17-   C16-   C15-   C14
  5529   5532   5535   5538      9     0.00   0.41840   5 ;    C17-   C16-   C15-   C14
  5529   5532   5535   5538      9     0.00   1.25520   3 ;    C17-   C16-   C15-   C14
  5530   5529   5532   5533      9     0.00   0.62760   3 ;    H7R-   C17-   C16-   H6R
  5530   5529   5532   5534      9     0.00   0.62760   3 ;    H7R-   C17-   C16-   H6S
  5530   5529   5532   5535      9     0.00   0.66944   3 ;    H7R-   C17-   C16-   C15
  5531   5529   5532   5533      9     0.00   0.62760   3 ;    H7S-   C17-   C16-   H6R
  5531   5529   5532   5534      9     0.00   0.62760   3 ;    H7S-   C17-   C16-   H6S
  5531   5529   5532   5535      9     0.00   0.66944   3 ;    H7S-   C17-   C16-   C15
  5532   5535   5538   5539      9     0.00   0.66944   3 ;    C16-   C15-   C14-   H4R
  5532   5535   5538   5540      9     0.00   0.66944   3 ;    C16-   C15-   C14-   H4S
  5532   5535   5538   5541      9     0.00   0.41840   1 ;    C16-   C15-   C14-   C13
  5532   5535   5538   5541      9     0.00   0.41840   2 ;    C16-   C15-   C14-   C13
  5532   5535   5538   5541      9     0.00   0.41840   4 ;    C16-   C15-   C14-   C13
  5532   5535   5538   5541      9     0.00   0.41840   5 ;    C16-   C15-   C14-   C13
  5532   5535   5538   5541      9     0.00   1.25520   3 ;    C16-   C15-   C14-   C13
  5533   5532   5535   5536      9     0.00   0.62760   3 ;    H6R-   C16-   C15-   H5R
  5533   5532   5535   5537      9     0.00   0.62760   3 ;    H6R-   C16-   C15-   H5S
  5533   5532   5535   5538      9     0.00   0.66944   3 ;    H6R-   C16-   C15-   C14
  5534   5532   5535   5536      9     0.00   0.62760   3 ;    H6S-   C16-   C15-   H5R
  5534   5532   5535   5537      9     0.00   0.62760   3 ;    H6S-   C16-   C15-   H5S
  5534   5532   5535   5538      9     0.00   0.66944   3 ;    H6S-   C16-   C15-   C14
  5535   5538   5541   5542      9     0.00   0.66944   3 ;    C15-   C14-   C13-   H3R
  5535   5538   5541   5543      9     0.00   0.66944   3 ;    C15-   C14-   C13-   H3S
  5535   5538   5541   5544      9     0.00   0.41840   1 ;    C15-   C14-   C13-   C12
  5535   5538   5541   5544      9     0.00   0.41840   2 ;    C15-   C14-   C13-   C12
  5535   5538   5541   5544      9     0.00   0.41840   4 ;    C15-   C14-   C13-   C12
  5535   5538   5541   5544      9     0.00   0.41840   5 ;    C15-   C14-   C13-   C12
  5535   5538   5541   5544      9     0.00   1.25520   3 ;    C15-   C14-   C13-   C12
  5536   5535   5538   5539      9     0.00   0.62760   3 ;    H5R-   C15-   C14-   H4R
  5536   5535   5538   5540      9     0.00   0.62760   3 ;    H5R-   C15-   C14-   H4S
  5536   5535   5538   5541      9     0.00   0.66944   3 ;    H5R-   C15-   C14-   C13
  5537   5535   5538   5539      9     0.00   0.62760   3 ;    H5S-   C15-   C14-   H4R
  5537   5535   5538   5540      9     0.00   0.62760   3 ;    H5S-   C15-   C14-   H4S
  5537   5535   5538   5541      9     0.00   0.66944   3 ;    H5S-   C15-   C14-   C13
  5538   5541   5544   5545      9     0.00   0.66944   3 ;    C14-   C13-   C12-   H2R
  5538   5541   5544   5546      9     0.00   0.66944   3 ;    C14-   C13-   C12-   H2S
  5539   5538   5541   5542      9     0.00   0.62760   3 ;    H4R-   C14-   C13-   H3R
  5539   5538   5541   5543      9     0.00   0.62760   3 ;    H4R-   C14-   C13-   H3S
  5539   5538   5541   5544      9     0.00   0.66944   3 ;    H4R-   C14-   C13-   C12
  5540   5538   5541   5542      9     0.00   0.62760   3 ;    H4S-   C14-   C13-   H3R
  5540   5538   5541   5543      9     0.00   0.62760   3 ;    H4S-   C14-   C13-   H3S
  5540   5538   5541   5544      9     0.00   0.66944   3 ;    H4S-   C14-   C13-   C12
  5542   5541   5544   5545      9     0.00   0.62760   3 ;    H3R-   C13-   C12-   H2R
  5542   5541   5544   5546      9     0.00   0.62760   3 ;    H3R-   C13-   C12-   H2S
  5543   5541   5544   5545      9     0.00   0.62760   3 ;    H3S-   C13-   C12-   H2R
  5543   5541   5544   5546      9     0.00   0.62760   3 ;    H3S-   C13-   C12-   H2S
  5547   5548   5551   5552      9     0.00   0.62760   3 ;   H14T-  C114-  C113-  H13R
  5547   5548   5551   5553      9     0.00   0.62760   3 ;   H14T-  C114-  C113-  H13S
  5547   5548   5551   5554      9     0.00   0.66944   3 ;   H14T-  C114-  C113-  C112
  5548   5551   5554   5555      9     0.00   0.66944   3 ;   C114-  C113-  C112-  H12R
  5548   5551   5554   5556      9     0.00   0.66944   3 ;   C114-  C113-  C112-  H12S
  5548   5551   5554   5557      9     0.00   0.41840   1 ;   C114-  C113-  C112-  C111
  5548   5551   5554   5557      9     0.00   0.41840   2 ;   C114-  C113-  C112-  C111
  5548   5551   5554   5557      9     0.00   0.41840   4 ;   C114-  C113-  C112-  C111
  5548   5551   5554   5557      9     0.00   0.41840   5 ;   C114-  C113-  C112-  C111
  5548   5551   5554   5557      9     0.00   1.25520   3 ;   C114-  C113-  C112-  C111
  5549   5548   5551   5552      9     0.00   0.62760   3 ;   H14R-  C114-  C113-  H13R
  5549   5548   5551   5553      9     0.00   0.62760   3 ;   H14R-  C114-  C113-  H13S
  5549   5548   5551   5554      9     0.00   0.66944   3 ;   H14R-  C114-  C113-  C112
  5550   5548   5551   5552      9     0.00   0.62760   3 ;   H14S-  C114-  C113-  H13R
  5550   5548   5551   5553      9     0.00   0.62760   3 ;   H14S-  C114-  C113-  H13S
  5550   5548   5551   5554      9     0.00   0.66944   3 ;   H14S-  C114-  C113-  C112
  5551   5554   5557   5558      9     0.00   0.66944   3 ;   C113-  C112-  C111-  H11R
  5551   5554   5557   5559      9     0.00   0.66944   3 ;   C113-  C112-  C111-  H11S
  5551   5554   5557   5560      9     0.00   0.41840   1 ;   C113-  C112-  C111-  C110
  5551   5554   5557   5560      9     0.00   0.41840   2 ;   C113-  C112-  C111-  C110
  5551   5554   5557   5560      9     0.00   0.41840   4 ;   C113-  C112-  C111-  C110
  5551   5554   5557   5560      9     0.00   0.41840   5 ;   C113-  C112-  C111-  C110
  5551   5554   5557   5560      9     0.00   1.25520   3 ;   C113-  C112-  C111-  C110
  5552   5551   5554   5555      9     0.00   0.62760   3 ;   H13R-  C113-  C112-  H12R
  5552   5551   5554   5556      9     0.00   0.62760   3 ;   H13R-  C113-  C112-  H12S
  5552   5551   5554   5557      9     0.00   0.66944   3 ;   H13R-  C113-  C112-  C111
  5553   5551   5554   5555      9     0.00   0.62760   3 ;   H13S-  C113-  C112-  H12R
  5553   5551   5554   5556      9     0.00   0.62760   3 ;   H13S-  C113-  C112-  H12S
  5553   5551   5554   5557      9     0.00   0.66944   3 ;   H13S-  C113-  C112-  C111
  5554   5557   5560   5561      9     0.00   0.66944   3 ;   C112-  C111-  C110-  H10R
  5554   5557   5560   5562      9     0.00   0.66944   3 ;   C112-  C111-  C110-  H10S
  5554   5557   5560   5563      9     0.00   0.41840   1 ;   C112-  C111-  C110-   C19
  5554   5557   5560   5563      9     0.00   0.41840   2 ;   C112-  C111-  C110-   C19
  5554   5557   5560   5563      9     0.00   0.41840   4 ;   C112-  C111-  C110-   C19
  5554   5557   5560   5563      9     0.00   0.41840   5 ;   C112-  C111-  C110-   C19
  5554   5557   5560   5563      9     0.00   1.25520   3 ;   C112-  C111-  C110-   C19
  5555   5554   5557   5558      9     0.00   0.62760   3 ;   H12R-  C112-  C111-  H11R
  5555   5554   5557   5559      9     0.00   0.62760   3 ;   H12R-  C112-  C111-  H11S
  5555   5554   5557   5560      9     0.00   0.66944   3 ;   H12R-  C112-  C111-  C110
  5556   5554   5557   5558      9     0.00   0.62760   3 ;   H12S-  C112-  C111-  H11R
  5556   5554   5557   5559      9     0.00   0.62760   3 ;   H12S-  C112-  C111-  H11S
  5556   5554   5557   5560      9     0.00   0.66944   3 ;   H12S-  C112-  C111-  C110
  5557   5560   5563   5564      9     0.00   0.66944   3 ;   C111-  C110-   C19-   H9R
  5557   5560   5563   5565      9     0.00   0.66944   3 ;   C111-  C110-   C19-   H9S
  5557   5560   5563   5566      9     0.00   0.41840   1 ;   C111-  C110-   C19-   C18
  5557   5560   5563   5566      9     0.00   0.41840   2 ;   C111-  C110-   C19-   C18
  5557   5560   5563   5566      9     0.00   0.41840   4 ;   C111-  C110-   C19-   C18
  5557   5560   5563   5566      9     0.00   0.41840   5 ;   C111-  C110-   C19-   C18
  5557   5560   5563   5566      9     0.00   1.25520   3 ;   C111-  C110-   C19-   C18
  5558   5557   5560   5561      9     0.00   0.62760   3 ;   H11R-  C111-  C110-  H10R
  5558   5557   5560   5562      9     0.00   0.62760   3 ;   H11R-  C111-  C110-  H10S
  5558   5557   5560   5563      9     0.00   0.66944   3 ;   H11R-  C111-  C110-   C19
  5559   5557   5560   5561      9     0.00   0.62760   3 ;   H11S-  C111-  C110-  H10R
  5559   5557   5560   5562      9     0.00   0.62760   3 ;   H11S-  C111-  C110-  H10S
  5559   5557   5560   5563      9     0.00   0.66944   3 ;   H11S-  C111-  C110-   C19
  5560   5563   5566   5567      9     0.00   0.66944   3 ;   C110-   C19-   C18-   H8R
  5560   5563   5566   5568      9     0.00   0.66944   3 ;   C110-   C19-   C18-   H8S
  5560   5563   5566   5569      9     0.00   0.41840   1 ;   C110-   C19-   C18-   C17
  5560   5563   5566   5569      9     0.00   0.41840   2 ;   C110-   C19-   C18-   C17
  5560   5563   5566   5569      9     0.00   0.41840   4 ;   C110-   C19-   C18-   C17
  5560   5563   5566   5569      9     0.00   0.41840   5 ;   C110-   C19-   C18-   C17
  5560   5563   5566   5569      9     0.00   1.25520   3 ;   C110-   C19-   C18-   C17
  5561   5560   5563   5564      9     0.00   0.62760   3 ;   H10R-  C110-   C19-   H9R
  5561   5560   5563   5565      9     0.00   0.62760   3 ;   H10R-  C110-   C19-   H9S
  5561   5560   5563   5566      9     0.00   0.66944   3 ;   H10R-  C110-   C19-   C18
  5562   5560   5563   5564      9     0.00   0.62760   3 ;   H10S-  C110-   C19-   H9R
  5562   5560   5563   5565      9     0.00   0.62760   3 ;   H10S-  C110-   C19-   H9S
  5562   5560   5563   5566      9     0.00   0.66944   3 ;   H10S-  C110-   C19-   C18
  5563   5566   5569   5570      9     0.00   0.66944   3 ;    C19-   C18-   C17-   H7R
  5563   5566   5569   5571      9     0.00   0.66944   3 ;    C19-   C18-   C17-   H7S
  5563   5566   5569   5572      9     0.00   0.41840   1 ;    C19-   C18-   C17-   C16
  5563   5566   5569   5572      9     0.00   0.41840   2 ;    C19-   C18-   C17-   C16
  5563   5566   5569   5572      9     0.00   0.41840   4 ;    C19-   C18-   C17-   C16
  5563   5566   5569   5572      9     0.00   0.41840   5 ;    C19-   C18-   C17-   C16
  5563   5566   5569   5572      9     0.00   1.25520   3 ;    C19-   C18-   C17-   C16
  5564   5563   5566   5567      9     0.00   0.62760   3 ;    H9R-   C19-   C18-   H8R
  5564   5563   5566   5568      9     0.00   0.62760   3 ;    H9R-   C19-   C18-   H8S
  5564   5563   5566   5569      9     0.00   0.66944   3 ;    H9R-   C19-   C18-   C17
  5565   5563   5566   5567      9     0.00   0.62760   3 ;    H9S-   C19-   C18-   H8R
  5565   5563   5566   5568      9     0.00   0.62760   3 ;    H9S-   C19-   C18-   H8S
  5565   5563   5566   5569      9     0.00   0.66944   3 ;    H9S-   C19-   C18-   C17
  5566   5569   5572   5573      9     0.00   0.66944   3 ;    C18-   C17-   C16-   H6R
  5566   5569   5572   5574      9     0.00   0.66944   3 ;    C18-   C17-   C16-   H6S
  5566   5569   5572   5575      9     0.00   0.41840   1 ;    C18-   C17-   C16-   C15
  5566   5569   5572   5575      9     0.00   0.41840   2 ;    C18-   C17-   C16-   C15
  5566   5569   5572   5575      9     0.00   0.41840   4 ;    C18-   C17-   C16-   C15
  5566   5569   5572   5575      9     0.00   0.41840   5 ;    C18-   C17-   C16-   C15
  5566   5569   5572   5575      9     0.00   1.25520   3 ;    C18-   C17-   C16-   C15
  5567   5566   5569   5570      9     0.00   0.62760   3 ;    H8R-   C18-   C17-   H7R
  5567   5566   5569   5571      9     0.00   0.62760   3 ;    H8R-   C18-   C17-   H7S
  5567   5566   5569   5572      9     0.00   0.66944   3 ;    H8R-   C18-   C17-   C16
  5568   5566   5569   5570      9     0.00   0.62760   3 ;    H8S-   C18-   C17-   H7R
  5568   5566   5569   5571      9     0.00   0.62760   3 ;    H8S-   C18-   C17-   H7S
  5568   5566   5569   5572      9     0.00   0.66944   3 ;    H8S-   C18-   C17-   C16
  5569   5572   5575   5576      9     0.00   0.66944   3 ;    C17-   C16-   C15-   H5R
  5569   5572   5575   5577      9     0.00   0.66944   3 ;    C17-   C16-   C15-   H5S
  5569   5572   5575   5578      9     0.00   0.41840   1 ;    C17-   C16-   C15-   C14
  5569   5572   5575   5578      9     0.00   0.41840   2 ;    C17-   C16-   C15-   C14
  5569   5572   5575   5578      9     0.00   0.41840   4 ;    C17-   C16-   C15-   C14
  5569   5572   5575   5578      9     0.00   0.41840   5 ;    C17-   C16-   C15-   C14
  5569   5572   5575   5578      9     0.00   1.25520   3 ;    C17-   C16-   C15-   C14
  5570   5569   5572   5573      9     0.00   0.62760   3 ;    H7R-   C17-   C16-   H6R
  5570   5569   5572   5574      9     0.00   0.62760   3 ;    H7R-   C17-   C16-   H6S
  5570   5569   5572   5575      9     0.00   0.66944   3 ;    H7R-   C17-   C16-   C15
  5571   5569   5572   5573      9     0.00   0.62760   3 ;    H7S-   C17-   C16-   H6R
  5571   5569   5572   5574      9     0.00   0.62760   3 ;    H7S-   C17-   C16-   H6S
  5571   5569   5572   5575      9     0.00   0.66944   3 ;    H7S-   C17-   C16-   C15
  5572   5575   5578   5579      9     0.00   0.66944   3 ;    C16-   C15-   C14-   H4R
  5572   5575   5578   5580      9     0.00   0.66944   3 ;    C16-   C15-   C14-   H4S
  5572   5575   5578   5581      9     0.00   0.41840   1 ;    C16-   C15-   C14-   C13
  5572   5575   5578   5581      9     0.00   0.41840   2 ;    C16-   C15-   C14-   C13
  5572   5575   5578   5581      9     0.00   0.41840   4 ;    C16-   C15-   C14-   C13
  5572   5575   5578   5581      9     0.00   0.41840   5 ;    C16-   C15-   C14-   C13
  5572   5575   5578   5581      9     0.00   1.25520   3 ;    C16-   C15-   C14-   C13
  5573   5572   5575   5576      9     0.00   0.62760   3 ;    H6R-   C16-   C15-   H5R
  5573   5572   5575   5577      9     0.00   0.62760   3 ;    H6R-   C16-   C15-   H5S
  5573   5572   5575   5578      9     0.00   0.66944   3 ;    H6R-   C16-   C15-   C14
  5574   5572   5575   5576      9     0.00   0.62760   3 ;    H6S-   C16-   C15-   H5R
  5574   5572   5575   5577      9     0.00   0.62760   3 ;    H6S-   C16-   C15-   H5S
  5574   5572   5575   5578      9     0.00   0.66944   3 ;    H6S-   C16-   C15-   C14
  5575   5578   5581   5582      9     0.00   0.66944   3 ;    C15-   C14-   C13-   H3R
  5575   5578   5581   5583      9     0.00   0.66944   3 ;    C15-   C14-   C13-   H3S
  5575   5578   5581   5584      9     0.00   0.41840   1 ;    C15-   C14-   C13-   C12
  5575   5578   5581   5584      9     0.00   0.41840   2 ;    C15-   C14-   C13-   C12
  5575   5578   5581   5584      9     0.00   0.41840   4 ;    C15-   C14-   C13-   C12
  5575   5578   5581   5584      9     0.00   0.41840   5 ;    C15-   C14-   C13-   C12
  5575   5578   5581   5584      9     0.00   1.25520   3 ;    C15-   C14-   C13-   C12
  5576   5575   5578   5579      9     0.00   0.62760   3 ;    H5R-   C15-   C14-   H4R
  5576   5575   5578   5580      9     0.00   0.62760   3 ;    H5R-   C15-   C14-   H4S
  5576   5575   5578   5581      9     0.00   0.66944   3 ;    H5R-   C15-   C14-   C13
  5577   5575   5578   5579      9     0.00   0.62760   3 ;    H5S-   C15-   C14-   H4R
  5577   5575   5578   5580      9     0.00   0.62760   3 ;    H5S-   C15-   C14-   H4S
  5577   5575   5578   5581      9     0.00   0.66944   3 ;    H5S-   C15-   C14-   C13
  5578   5581   5584   5585      9     0.00   0.66944   3 ;    C14-   C13-   C12-   H2R
  5578   5581   5584   5586      9     0.00   0.66944   3 ;    C14-   C13-   C12-   H2S
  5578   5581   5584   5587      9     0.00   0.65270   3 ;    C14-   C13-   C12-   C11
  5579   5578   5581   5582      9     0.00   0.62760   3 ;    H4R-   C14-   C13-   H3R
  5579   5578   5581   5583      9     0.00   0.62760   3 ;    H4R-   C14-   C13-   H3S
  5579   5578   5581   5584      9     0.00   0.66944   3 ;    H4R-   C14-   C13-   C12
  5580   5578   5581   5582      9     0.00   0.62760   3 ;    H4S-   C14-   C13-   H3R
  5580   5578   5581   5583      9     0.00   0.62760   3 ;    H4S-   C14-   C13-   H3S
  5580   5578   5581   5584      9     0.00   0.66944   3 ;    H4S-   C14-   C13-   C12
  5581   5584   5587   5588      9   180.00   0.00000   2 ;    C13-   C12-   C11-   O12
  5581   5584   5587   5589      9   180.00   0.00000   2 ;    C13-   C12-   C11-   O11
  5582   5581   5584   5585      9     0.00   0.62760   3 ;    H3R-   C13-   C12-   H2R
  5582   5581   5584   5586      9     0.00   0.62760   3 ;    H3R-   C13-   C12-   H2S
  5582   5581   5584   5587      9     0.00   0.65270   3 ;    H3R-   C13-   C12-   C11
  5583   5581   5584   5585      9     0.00   0.62760   3 ;    H3S-   C13-   C12-   H2R
  5583   5581   5584   5586      9     0.00   0.62760   3 ;    H3S-   C13-   C12-   H2S
  5583   5581   5584   5587      9     0.00   0.65270   3 ;    H3S-   C13-   C12-   C11
  5584   5587   5589   5590      9   180.00  11.29680   2 ;    C12-   C11-   O11-    C1
  5585   5584   5587   5588      9     0.00   3.34720   1 ;    H2R-   C12-   C11-   O12
  5585   5584   5587   5588      9   180.00   0.33472   3 ;    H2R-   C12-   C11-   O12
  5585   5584   5587   5589      9   180.00   0.00000   2 ;    H2R-   C12-   C11-   O11
  5586   5584   5587   5588      9     0.00   3.34720   1 ;    H2S-   C12-   C11-   O12
  5586   5584   5587   5588      9   180.00   0.33472   3 ;    H2S-   C12-   C11-   O12
  5586   5584   5587   5589      9   180.00   0.00000   2 ;    H2S-   C12-   C11-   O11
  5587   5589   5590   5591      9     0.00   1.60247   3 ;    C11-   O11-    C1-    HR
  5587   5589   5590   5592      9     0.00   1.60247   3 ;    C11-   O11-    C1-    HS
  5587   5589   5590   5593      9     0.00  -0.41840   1 ;    C11-   O11-    C1-    C2
  5588   5587   5589   5590      9   180.00   5.85760   1 ;    O12-   C11-   O11-    C1
  5588   5587   5589   5590      9   180.00  11.29680   2 ;    O12-   C11-   O11-    C1
  5589   5590   5593   5594      9     0.00   0.00000   0 ;    O11-    C1-    C2-    HX
  5589   5590   5593   5594      9     0.00   1.04600   1 ;    O11-    C1-    C2-    HX
  5589   5590   5593   5595      9     0.00   0.00000   0 ;    O11-    C1-    C2-    C3
  5589   5590   5593   5595      9     0.00   0.00000   0 ;    O11-    C1-    C2-    C3
  5589   5590   5593   5595      9     0.00   0.00000   0 ;    O11-    C1-    C2-    C3
  5589   5590   5593   5595      9     0.00   0.00000   0 ;    O11-    C1-    C2-    C3
  5589   5590   5593   5595      9     0.00   0.00000   0 ;    O11-    C1-    C2-    C3
  5589   5590   5593   5622      9     0.00   1.25520   2 ;    O11-    C1-    C2-   O21
  5589   5590   5593   5622      9     0.00   4.18400   3 ;    O11-    C1-    C2-   O21
  5589   5590   5593   5622      9   180.00  -0.41840   1 ;    O11-    C1-    C2-   O21
  5590   5593   5595   5596      9     0.00   0.65270   3 ;     C1-    C2-    C3-    HA
  5590   5593   5595   5597      9     0.00   0.65270   3 ;     C1-    C2-    C3-    HB
  5590   5593   5595   5598      9   180.00   3.34720   1 ;     C1-    C2-    C3-   O31
  5590   5593   5622   5623      9     0.00  -0.41840   1 ;     C1-    C2-   O21-   C21
  5591   5590   5593   5594      9     0.00   0.65270   3 ;     HR-    C1-    C2-    HX
  5591   5590   5593   5595      9     0.00   0.65270   3 ;     HR-    C1-    C2-    C3
  5591   5590   5593   5622      9     0.00   0.00000   0 ;     HR-    C1-    C2-   O21
  5591   5590   5593   5622      9     0.00   1.04600   1 ;     HR-    C1-    C2-   O21
  5592   5590   5593   5594      9     0.00   0.65270   3 ;     HS-    C1-    C2-    HX
  5592   5590   5593   5595      9     0.00   0.65270   3 ;     HS-    C1-    C2-    C3
  5592   5590   5593   5622      9     0.00   0.00000   0 ;     HS-    C1-    C2-   O21
  5592   5590   5593   5622      9     0.00   1.04600   1 ;     HS-    C1-    C2-   O21
  5593   5595   5598   5599      9     0.00   0.00000   0 ;     C2-    C3-   O31-   P31
  5593   5595   5598   5599      9   180.00  -3.34720   2 ;     C2-    C3-   O31-   P31
  5593   5622   5623   5624      9   180.00   5.85760   1 ;     C2-   O21-   C21-   O22
  5593   5622   5623   5624      9   180.00  11.29680   2 ;     C2-   O21-   C21-   O22
  5593   5622   5623   5662      9   180.00  11.29680   2 ;     C2-   O21-   C21-   C12
  5594   5593   5595   5596      9     0.00   0.65270   3 ;     HX-    C2-    C3-    HA
  5594   5593   5595   5597      9     0.00   0.65270   3 ;     HX-    C2-    C3-    HB
  5594   5593   5595   5598      9     0.00   0.00000   0 ;     HX-    C2-    C3-   O31
  5594   5593   5595   5598      9     0.00   1.04600   1 ;     HX-    C2-    C3-   O31
  5594   5593   5622   5623      9     0.00   1.60247   3 ;     HX-    C2-   O21-   C21
  5595   5593   5622   5623      9     0.00  -0.41840   1 ;     C3-    C2-   O21-   C21
  5595   5598   5599   5600      9     0.00   2.51040   3 ;     C3-   O31-   P31-   O32
  5595   5598   5599   5600      9     0.00   9.62320   2 ;     C3-   O31-   P31-   O32
  5595   5598   5599   5620      9     0.00   0.00000   0 ;     C3-   O31-   P31-   O33
  5595   5598   5599   5620      9     0.00   0.00000   0 ;     C3-   O31-   P31-   O33
  5595   5598   5599   5620      9     0.00   0.00000   0 ;     C3-   O31-   P31-   O33
  5595   5598   5599   5620      9     0.00   0.00000   0 ;     C3-   O31-   P31-   O33
  5595   5598   5599   5620      9     0.00   0.83680   2 ;     C3-   O31-   P31-   O33
  5595   5598   5599   5621      9     0.00   0.00000   0 ;     C3-   O31-   P31-   O34
  5595   5598   5599   5621      9     0.00   0.00000   0 ;     C3-   O31-   P31-   O34
  5595   5598   5599   5621      9     0.00   0.00000   0 ;     C3-   O31-   P31-   O34
  5595   5598   5599   5621      9     0.00   0.00000   0 ;     C3-   O31-   P31-   O34
  5595   5598   5599   5621      9     0.00   0.83680   2 ;     C3-   O31-   P31-   O34
  5596   5595   5593   5622      9     0.00   0.00000   0 ;     HA-    C3-    C2-   O21
  5596   5595   5593   5622      9     0.00   1.04600   1 ;     HA-    C3-    C2-   O21
  5596   5595   5598   5599      9     0.00   0.00000   0 ;     HA-    C3-   O31-   P31
  5596   5595   5598   5599      9     0.00   0.00000   0 ;     HA-    C3-   O31-   P31
  5596   5595   5598   5599      9     0.00   0.00000   0 ;     HA-    C3-   O31-   P31
  5596   5595   5598   5599      9     0.00   0.00000   0 ;     HA-    C3-   O31-   P31
  5596   5595   5598   5599      9     0.00   1.60247   3 ;     HA-    C3-   O31-   P31
  5597   5595   5593   5622      9     0.00   0.00000   0 ;     HB-    C3-    C2-   O21
  5597   5595   5593   5622      9     0.00   1.04600   1 ;     HB-    C3-    C2-   O21
  5597   5595   5598   5599      9     0.00   0.00000   0 ;     HB-    C3-   O31-   P31
  5597   5595   5598   5599      9     0.00   0.00000   0 ;     HB-    C3-   O31-   P31
  5597   5595   5598   5599      9     0.00   0.00000   0 ;     HB-    C3-   O31-   P31
  5597   5595   5598   5599      9     0.00   0.00000   0 ;     HB-    C3-   O31-   P31
  5597   5595   5598   5599      9     0.00   1.60247   3 ;     HB-    C3-   O31-   P31
  5598   5595   5593   5622      9     0.00   0.00000   0 ;    O31-    C3-    C2-   O21
  5598   5595   5593   5622      9     0.00   0.00000   0 ;    O31-    C3-    C2-   O21
  5598   5595   5593   5622      9     0.00   0.00000   0 ;    O31-    C3-    C2-   O21
  5598   5595   5593   5622      9     0.00   0.00000   0 ;    O31-    C3-    C2-   O21
  5598   5595   5593   5622      9     0.00   0.00000   0 ;    O31-    C3-    C2-   O21
  5598   5599   5600   5601      9     0.00   2.51040   3 ;    O31-   P31-   O32-   C31
  5598   5599   5600   5601      9     0.00   9.62320   2 ;    O31-   P31-   O32-   C31
  5599   5600   5601   5602      9     0.00   0.00000   0 ;    P31-   O32-   C31-   H1A
  5599   5600   5601   5602      9     0.00   0.00000   0 ;    P31-   O32-   C31-   H1A
  5599   5600   5601   5602      9     0.00   0.00000   0 ;    P31-   O32-   C31-   H1A
  5599   5600   5601   5602      9     0.00   0.00000   0 ;    P31-   O32-   C31-   H1A
  5599   5600   5601   5602      9     0.00   1.60247   3 ;    P31-   O32-   C31-   H1A
  5599   5600   5601   5603      9     0.00   0.00000   0 ;    P31-   O32-   C31-   H1B
  5599   5600   5601   5603      9     0.00   0.00000   0 ;    P31-   O32-   C31-   H1B
  5599   5600   5601   5603      9     0.00   0.00000   0 ;    P31-   O32-   C31-   H1B
  5599   5600   5601   5603      9     0.00   0.00000   0 ;    P31-   O32-   C31-   H1B
  5599   5600   5601   5603      9     0.00   1.60247   3 ;    P31-   O32-   C31-   H1B
  5599   5600   5601   5604      9     0.00   0.00000   0 ;    P31-   O32-   C31-   C32
  5599   5600   5601   5604      9   180.00  -3.34720   2 ;    P31-   O32-   C31-   C32
  5600   5601   5604   5605      9     0.00   0.65270   3 ;    O32-   C31-   C32-   H2A
  5600   5601   5604   5606      9     0.00   0.65270   3 ;    O32-   C31-   C32-   H2B
  5600   5601   5604   5607      9     0.00   4.18400   3 ;    O32-   C31-   C32-   N31
  5601   5600   5599   5620      9     0.00   0.00000   0 ;    C31-   O32-   P31-   O33
  5601   5600   5599   5620      9     0.00   0.00000   0 ;    C31-   O32-   P31-   O33
  5601   5600   5599   5620      9     0.00   0.00000   0 ;    C31-   O32-   P31-   O33
  5601   5600   5599   5620      9     0.00   0.00000   0 ;    C31-   O32-   P31-   O33
  5601   5600   5599   5620      9     0.00   0.83680   2 ;    C31-   O32-   P31-   O33
  5601   5600   5599   5621      9     0.00   0.00000   0 ;    C31-   O32-   P31-   O34
  5601   5600   5599   5621      9     0.00   0.00000   0 ;    C31-   O32-   P31-   O34
  5601   5600   5599   5621      9     0.00   0.00000   0 ;    C31-   O32-   P31-   O34
  5601   5600   5599   5621      9     0.00   0.00000   0 ;    C31-   O32-   P31-   O34
  5601   5600   5599   5621      9     0.00   0.83680   2 ;    C31-   O32-   P31-   O34
  5601   5604   5607   5608      9     0.00   0.65270   3 ;    C31-   C32-   N31-   C33
  5601   5604   5607   5612      9     0.00   0.65270   3 ;    C31-   C32-   N31-   C34
  5601   5604   5607   5616      9     0.00   0.65270   3 ;    C31-   C32-   N31-   C35
  5602   5601   5604   5605      9     0.00   0.65270   3 ;    H1A-   C31-   C32-   H2A
  5602   5601   5604   5606      9     0.00   0.65270   3 ;    H1A-   C31-   C32-   H2B
  5602   5601   5604   5607      9     0.00   0.65270   3 ;    H1A-   C31-   C32-   N31
  5603   5601   5604   5605      9     0.00   0.65270   3 ;    H1B-   C31-   C32-   H2A
  5603   5601   5604   5606      9     0.00   0.65270   3 ;    H1B-   C31-   C32-   H2B
  5603   5601   5604   5607      9     0.00   0.65270   3 ;    H1B-   C31-   C32-   N31
  5604   5607   5608   5609      9     0.00   0.65270   3 ;    C32-   N31-   C33-   H3A
  5604   5607   5608   5610      9     0.00   0.65270   3 ;    C32-   N31-   C33-   H3B
  5604   5607   5608   5611      9     0.00   0.65270   3 ;    C32-   N31-   C33-   H3C
  5604   5607   5612   5613      9     0.00   0.65270   3 ;    C32-   N31-   C34-   H4A
  5604   5607   5612   5614      9     0.00   0.65270   3 ;    C32-   N31-   C34-   H4B
  5604   5607   5612   5615      9     0.00   0.65270   3 ;    C32-   N31-   C34-   H4C
  5604   5607   5616   5617      9     0.00   0.65270   3 ;    C32-   N31-   C35-   H5A
  5604   5607   5616   5618      9     0.00   0.65270   3 ;    C32-   N31-   C35-   H5B
  5604   5607   5616   5619      9     0.00   0.65270   3 ;    C32-   N31-   C35-   H5C
  5605   5604   5607   5608      9     0.00   0.65270   3 ;    H2A-   C32-   N31-   C33
  5605   5604   5607   5612      9     0.00   0.65270   3 ;    H2A-   C32-   N31-   C34
  5605   5604   5607   5616      9     0.00   0.65270   3 ;    H2A-   C32-   N31-   C35
  5606   5604   5607   5608      9     0.00   0.65270   3 ;    H2B-   C32-   N31-   C33
  5606   5604   5607   5612      9     0.00   0.65270   3 ;    H2B-   C32-   N31-   C34
  5606   5604   5607   5616      9     0.00   0.65270   3 ;    H2B-   C32-   N31-   C35
  5608   5607   5612   5613      9     0.00   0.65270   3 ;    C33-   N31-   C34-   H4A
  5608   5607   5612   5614      9     0.00   0.65270   3 ;    C33-   N31-   C34-   H4B
  5608   5607   5612   5615      9     0.00   0.65270   3 ;    C33-   N31-   C34-   H4C
  5608   5607   5616   5617      9     0.00   0.65270   3 ;    C33-   N31-   C35-   H5A
  5608   5607   5616   5618      9     0.00   0.65270   3 ;    C33-   N31-   C35-   H5B
  5608   5607   5616   5619      9     0.00   0.65270   3 ;    C33-   N31-   C35-   H5C
  5609   5608   5607   5612      9     0.00   0.65270   3 ;    H3A-   C33-   N31-   C34
  5609   5608   5607   5616      9     0.00   0.65270   3 ;    H3A-   C33-   N31-   C35
  5610   5608   5607   5612      9     0.00   0.65270   3 ;    H3B-   C33-   N31-   C34
  5610   5608   5607   5616      9     0.00   0.65270   3 ;    H3B-   C33-   N31-   C35
  5611   5608   5607   5612      9     0.00   0.65270   3 ;    H3C-   C33-   N31-   C34
  5611   5608   5607   5616      9     0.00   0.65270   3 ;    H3C-   C33-   N31-   C35
  5612   5607   5616   5617      9     0.00   0.65270   3 ;    C34-   N31-   C35-   H5A
  5612   5607   5616   5618      9     0.00   0.65270   3 ;    C34-   N31-   C35-   H5B
  5612   5607   5616   5619      9     0.00   0.65270   3 ;    C34-   N31-   C35-   H5C
  5613   5612   5607   5616      9     0.00   0.65270   3 ;    H4A-   C34-   N31-   C35
  5614   5612   5607   5616      9     0.00   0.65270   3 ;    H4B-   C34-   N31-   C35
  5615   5612   5607   5616      9     0.00   0.65270   3 ;    H4C-   C34-   N31-   C35
  5622   5623   5662   5659      9   180.00   0.00000   2 ;    O21-   C21-   C12-   C13
  5622   5623   5662   5663      9   180.00   0.00000   2 ;    O21-   C21-   C12-   H2R
  5622   5623   5662   5664      9   180.00   0.00000   2 ;    O21-   C21-   C12-   H2S
  5623   5662   5659   5656      9     0.00   0.65270   3 ;    C21-   C12-   C13-   C14
  5623   5662   5659   5660      9     0.00   0.65270   3 ;    C21-   C12-   C13-   H3R
  5623   5662   5659   5661      9     0.00   0.65270   3 ;    C21-   C12-   C13-   H3S
  5624   5623   5662   5659      9   180.00   0.00000   2 ;    O22-   C21-   C12-   C13
  5624   5623   5662   5663      9     0.00   3.34720   1 ;    O22-   C21-   C12-   H2R
  5624   5623   5662   5663      9   180.00   0.33472   3 ;    O22-   C21-   C12-   H2R
  5624   5623   5662   5664      9     0.00   3.34720   1 ;    O22-   C21-   C12-   H2S
  5624   5623   5662   5664      9   180.00   0.33472   3 ;    O22-   C21-   C12-   H2S
  5625   5626   5629   5630      9     0.00   0.62760   3 ;   H14T-  C114-  C113-  H13R
  5625   5626   5629   5631      9     0.00   0.62760   3 ;   H14T-  C114-  C113-  H13S
  5625   5626   5629   5632      9     0.00   0.66944   3 ;   H14T-  C114-  C113-  C112
  5626   5629   5632   5633      9     0.00   0.66944   3 ;   C114-  C113-  C112-  H12R
  5626   5629   5632   5634      9     0.00   0.66944   3 ;   C114-  C113-  C112-  H12S
  5626   5629   5632   5635      9     0.00   0.41840   1 ;   C114-  C113-  C112-  C111
  5626   5629   5632   5635      9     0.00   0.41840   2 ;   C114-  C113-  C112-  C111
  5626   5629   5632   5635      9     0.00   0.41840   4 ;   C114-  C113-  C112-  C111
  5626   5629   5632   5635      9     0.00   0.41840   5 ;   C114-  C113-  C112-  C111
  5626   5629   5632   5635      9     0.00   1.25520   3 ;   C114-  C113-  C112-  C111
  5627   5626   5629   5630      9     0.00   0.62760   3 ;   H14R-  C114-  C113-  H13R
  5627   5626   5629   5631      9     0.00   0.62760   3 ;   H14R-  C114-  C113-  H13S
  5627   5626   5629   5632      9     0.00   0.66944   3 ;   H14R-  C114-  C113-  C112
  5628   5626   5629   5630      9     0.00   0.62760   3 ;   H14S-  C114-  C113-  H13R
  5628   5626   5629   5631      9     0.00   0.62760   3 ;   H14S-  C114-  C113-  H13S
  5628   5626   5629   5632      9     0.00   0.66944   3 ;   H14S-  C114-  C113-  C112
  5629   5632   5635   5636      9     0.00   0.66944   3 ;   C113-  C112-  C111-  H11R
  5629   5632   5635   5637      9     0.00   0.66944   3 ;   C113-  C112-  C111-  H11S
  5629   5632   5635   5638      9     0.00   0.41840   1 ;   C113-  C112-  C111-  C110
  5629   5632   5635   5638      9     0.00   0.41840   2 ;   C113-  C112-  C111-  C110
  5629   5632   5635   5638      9     0.00   0.41840   4 ;   C113-  C112-  C111-  C110
  5629   5632   5635   5638      9     0.00   0.41840   5 ;   C113-  C112-  C111-  C110
  5629   5632   5635   5638      9     0.00   1.25520   3 ;   C113-  C112-  C111-  C110
  5630   5629   5632   5633      9     0.00   0.62760   3 ;   H13R-  C113-  C112-  H12R
  5630   5629   5632   5634      9     0.00   0.62760   3 ;   H13R-  C113-  C112-  H12S
  5630   5629   5632   5635      9     0.00   0.66944   3 ;   H13R-  C113-  C112-  C111
  5631   5629   5632   5633      9     0.00   0.62760   3 ;   H13S-  C113-  C112-  H12R
  5631   5629   5632   5634      9     0.00   0.62760   3 ;   H13S-  C113-  C112-  H12S
  5631   5629   5632   5635      9     0.00   0.66944   3 ;   H13S-  C113-  C112-  C111
  5632   5635   5638   5639      9     0.00   0.66944   3 ;   C112-  C111-  C110-  H10R
  5632   5635   5638   5640      9     0.00   0.66944   3 ;   C112-  C111-  C110-  H10S
  5632   5635   5638   5641      9     0.00   0.41840   1 ;   C112-  C111-  C110-   C19
  5632   5635   5638   5641      9     0.00   0.41840   2 ;   C112-  C111-  C110-   C19
  5632   5635   5638   5641      9     0.00   0.41840   4 ;   C112-  C111-  C110-   C19
  5632   5635   5638   5641      9     0.00   0.41840   5 ;   C112-  C111-  C110-   C19
  5632   5635   5638   5641      9     0.00   1.25520   3 ;   C112-  C111-  C110-   C19
  5633   5632   5635   5636      9     0.00   0.62760   3 ;   H12R-  C112-  C111-  H11R
  5633   5632   5635   5637      9     0.00   0.62760   3 ;   H12R-  C112-  C111-  H11S
  5633   5632   5635   5638      9     0.00   0.66944   3 ;   H12R-  C112-  C111-  C110
  5634   5632   5635   5636      9     0.00   0.62760   3 ;   H12S-  C112-  C111-  H11R
  5634   5632   5635   5637      9     0.00   0.62760   3 ;   H12S-  C112-  C111-  H11S
  5634   5632   5635   5638      9     0.00   0.66944   3 ;   H12S-  C112-  C111-  C110
  5635   5638   5641   5642      9     0.00   0.66944   3 ;   C111-  C110-   C19-   H9R
  5635   5638   5641   5643      9     0.00   0.66944   3 ;   C111-  C110-   C19-   H9S
  5635   5638   5641   5644      9     0.00   0.41840   1 ;   C111-  C110-   C19-   C18
  5635   5638   5641   5644      9     0.00   0.41840   2 ;   C111-  C110-   C19-   C18
  5635   5638   5641   5644      9     0.00   0.41840   4 ;   C111-  C110-   C19-   C18
  5635   5638   5641   5644      9     0.00   0.41840   5 ;   C111-  C110-   C19-   C18
  5635   5638   5641   5644      9     0.00   1.25520   3 ;   C111-  C110-   C19-   C18
  5636   5635   5638   5639      9     0.00   0.62760   3 ;   H11R-  C111-  C110-  H10R
  5636   5635   5638   5640      9     0.00   0.62760   3 ;   H11R-  C111-  C110-  H10S
  5636   5635   5638   5641      9     0.00   0.66944   3 ;   H11R-  C111-  C110-   C19
  5637   5635   5638   5639      9     0.00   0.62760   3 ;   H11S-  C111-  C110-  H10R
  5637   5635   5638   5640      9     0.00   0.62760   3 ;   H11S-  C111-  C110-  H10S
  5637   5635   5638   5641      9     0.00   0.66944   3 ;   H11S-  C111-  C110-   C19
  5638   5641   5644   5645      9     0.00   0.66944   3 ;   C110-   C19-   C18-   H8R
  5638   5641   5644   5646      9     0.00   0.66944   3 ;   C110-   C19-   C18-   H8S
  5638   5641   5644   5647      9     0.00   0.41840   1 ;   C110-   C19-   C18-   C17
  5638   5641   5644   5647      9     0.00   0.41840   2 ;   C110-   C19-   C18-   C17
  5638   5641   5644   5647      9     0.00   0.41840   4 ;   C110-   C19-   C18-   C17
  5638   5641   5644   5647      9     0.00   0.41840   5 ;   C110-   C19-   C18-   C17
  5638   5641   5644   5647      9     0.00   1.25520   3 ;   C110-   C19-   C18-   C17
  5639   5638   5641   5642      9     0.00   0.62760   3 ;   H10R-  C110-   C19-   H9R
  5639   5638   5641   5643      9     0.00   0.62760   3 ;   H10R-  C110-   C19-   H9S
  5639   5638   5641   5644      9     0.00   0.66944   3 ;   H10R-  C110-   C19-   C18
  5640   5638   5641   5642      9     0.00   0.62760   3 ;   H10S-  C110-   C19-   H9R
  5640   5638   5641   5643      9     0.00   0.62760   3 ;   H10S-  C110-   C19-   H9S
  5640   5638   5641   5644      9     0.00   0.66944   3 ;   H10S-  C110-   C19-   C18
  5641   5644   5647   5648      9     0.00   0.66944   3 ;    C19-   C18-   C17-   H7R
  5641   5644   5647   5649      9     0.00   0.66944   3 ;    C19-   C18-   C17-   H7S
  5641   5644   5647   5650      9     0.00   0.41840   1 ;    C19-   C18-   C17-   C16
  5641   5644   5647   5650      9     0.00   0.41840   2 ;    C19-   C18-   C17-   C16
  5641   5644   5647   5650      9     0.00   0.41840   4 ;    C19-   C18-   C17-   C16
  5641   5644   5647   5650      9     0.00   0.41840   5 ;    C19-   C18-   C17-   C16
  5641   5644   5647   5650      9     0.00   1.25520   3 ;    C19-   C18-   C17-   C16
  5642   5641   5644   5645      9     0.00   0.62760   3 ;    H9R-   C19-   C18-   H8R
  5642   5641   5644   5646      9     0.00   0.62760   3 ;    H9R-   C19-   C18-   H8S
  5642   5641   5644   5647      9     0.00   0.66944   3 ;    H9R-   C19-   C18-   C17
  5643   5641   5644   5645      9     0.00   0.62760   3 ;    H9S-   C19-   C18-   H8R
  5643   5641   5644   5646      9     0.00   0.62760   3 ;    H9S-   C19-   C18-   H8S
  5643   5641   5644   5647      9     0.00   0.66944   3 ;    H9S-   C19-   C18-   C17
  5644   5647   5650   5651      9     0.00   0.66944   3 ;    C18-   C17-   C16-   H6R
  5644   5647   5650   5652      9     0.00   0.66944   3 ;    C18-   C17-   C16-   H6S
  5644   5647   5650   5653      9     0.00   0.41840   1 ;    C18-   C17-   C16-   C15
  5644   5647   5650   5653      9     0.00   0.41840   2 ;    C18-   C17-   C16-   C15
  5644   5647   5650   5653      9     0.00   0.41840   4 ;    C18-   C17-   C16-   C15
  5644   5647   5650   5653      9     0.00   0.41840   5 ;    C18-   C17-   C16-   C15
  5644   5647   5650   5653      9     0.00   1.25520   3 ;    C18-   C17-   C16-   C15
  5645   5644   5647   5648      9     0.00   0.62760   3 ;    H8R-   C18-   C17-   H7R
  5645   5644   5647   5649      9     0.00   0.62760   3 ;    H8R-   C18-   C17-   H7S
  5645   5644   5647   5650      9     0.00   0.66944   3 ;    H8R-   C18-   C17-   C16
  5646   5644   5647   5648      9     0.00   0.62760   3 ;    H8S-   C18-   C17-   H7R
  5646   5644   5647   5649      9     0.00   0.62760   3 ;    H8S-   C18-   C17-   H7S
  5646   5644   5647   5650      9     0.00   0.66944   3 ;    H8S-   C18-   C17-   C16
  5647   5650   5653   5654      9     0.00   0.66944   3 ;    C17-   C16-   C15-   H5R
  5647   5650   5653   5655      9     0.00   0.66944   3 ;    C17-   C16-   C15-   H5S
  5647   5650   5653   5656      9     0.00   0.41840   1 ;    C17-   C16-   C15-   C14
  5647   5650   5653   5656      9     0.00   0.41840   2 ;    C17-   C16-   C15-   C14
  5647   5650   5653   5656      9     0.00   0.41840   4 ;    C17-   C16-   C15-   C14
  5647   5650   5653   5656      9     0.00   0.41840   5 ;    C17-   C16-   C15-   C14
  5647   5650   5653   5656      9     0.00   1.25520   3 ;    C17-   C16-   C15-   C14
  5648   5647   5650   5651      9     0.00   0.62760   3 ;    H7R-   C17-   C16-   H6R
  5648   5647   5650   5652      9     0.00   0.62760   3 ;    H7R-   C17-   C16-   H6S
  5648   5647   5650   5653      9     0.00   0.66944   3 ;    H7R-   C17-   C16-   C15
  5649   5647   5650   5651      9     0.00   0.62760   3 ;    H7S-   C17-   C16-   H6R
  5649   5647   5650   5652      9     0.00   0.62760   3 ;    H7S-   C17-   C16-   H6S
  5649   5647   5650   5653      9     0.00   0.66944   3 ;    H7S-   C17-   C16-   C15
  5650   5653   5656   5657      9     0.00   0.66944   3 ;    C16-   C15-   C14-   H4R
  5650   5653   5656   5658      9     0.00   0.66944   3 ;    C16-   C15-   C14-   H4S
  5650   5653   5656   5659      9     0.00   0.41840   1 ;    C16-   C15-   C14-   C13
  5650   5653   5656   5659      9     0.00   0.41840   2 ;    C16-   C15-   C14-   C13
  5650   5653   5656   5659      9     0.00   0.41840   4 ;    C16-   C15-   C14-   C13
  5650   5653   5656   5659      9     0.00   0.41840   5 ;    C16-   C15-   C14-   C13
  5650   5653   5656   5659      9     0.00   1.25520   3 ;    C16-   C15-   C14-   C13
  5651   5650   5653   5654      9     0.00   0.62760   3 ;    H6R-   C16-   C15-   H5R
  5651   5650   5653   5655      9     0.00   0.62760   3 ;    H6R-   C16-   C15-   H5S
  5651   5650   5653   5656      9     0.00   0.66944   3 ;    H6R-   C16-   C15-   C14
  5652   5650   5653   5654      9     0.00   0.62760   3 ;    H6S-   C16-   C15-   H5R
  5652   5650   5653   5655      9     0.00   0.62760   3 ;    H6S-   C16-   C15-   H5S
  5652   5650   5653   5656      9     0.00   0.66944   3 ;    H6S-   C16-   C15-   C14
  5653   5656   5659   5660      9     0.00   0.66944   3 ;    C15-   C14-   C13-   H3R
  5653   5656   5659   5661      9     0.00   0.66944   3 ;    C15-   C14-   C13-   H3S
  5653   5656   5659   5662      9     0.00   0.41840   1 ;    C15-   C14-   C13-   C12
  5653   5656   5659   5662      9     0.00   0.41840   2 ;    C15-   C14-   C13-   C12
  5653   5656   5659   5662      9     0.00   0.41840   4 ;    C15-   C14-   C13-   C12
  5653   5656   5659   5662      9     0.00   0.41840   5 ;    C15-   C14-   C13-   C12
  5653   5656   5659   5662      9     0.00   1.25520   3 ;    C15-   C14-   C13-   C12
  5654   5653   5656   5657      9     0.00   0.62760   3 ;    H5R-   C15-   C14-   H4R
  5654   5653   5656   5658      9     0.00   0.62760   3 ;    H5R-   C15-   C14-   H4S
  5654   5653   5656   5659      9     0.00   0.66944   3 ;    H5R-   C15-   C14-   C13
  5655   5653   5656   5657      9     0.00   0.62760   3 ;    H5S-   C15-   C14-   H4R
  5655   5653   5656   5658      9     0.00   0.62760   3 ;    H5S-   C15-   C14-   H4S
  5655   5653   5656   5659      9     0.00   0.66944   3 ;    H5S-   C15-   C14-   C13
  5656   5659   5662   5663      9     0.00   0.66944   3 ;    C14-   C13-   C12-   H2R
  5656   5659   5662   5664      9     0.00   0.66944   3 ;    C14-   C13-   C12-   H2S
  5657   5656   5659   5660      9     0.00   0.62760   3 ;    H4R-   C14-   C13-   H3R
  5657   5656   5659   5661      9     0.00   0.62760   3 ;    H4R-   C14-   C13-   H3S
  5657   5656   5659   5662      9     0.00   0.66944   3 ;    H4R-   C14-   C13-   C12
  5658   5656   5659   5660      9     0.00   0.62760   3 ;    H4S-   C14-   C13-   H3R
  5658   5656   5659   5661      9     0.00   0.62760   3 ;    H4S-   C14-   C13-   H3S
  5658   5656   5659   5662      9     0.00   0.66944   3 ;    H4S-   C14-   C13-   C12
  5660   5659   5662   5663      9     0.00   0.62760   3 ;    H3R-   C13-   C12-   H2R
  5660   5659   5662   5664      9     0.00   0.62760   3 ;    H3R-   C13-   C12-   H2S
  5661   5659   5662   5663      9     0.00   0.62760   3 ;    H3S-   C13-   C12-   H2R
  5661   5659   5662   5664      9     0.00   0.62760   3 ;    H3S-   C13-   C12-   H2S
  5665   5666   5669   5670      9     0.00   0.62760   3 ;   H14T-  C114-  C113-  H13R
  5665   5666   5669   5671      9     0.00   0.62760   3 ;   H14T-  C114-  C113-  H13S
  5665   5666   5669   5672      9     0.00   0.66944   3 ;   H14T-  C114-  C113-  C112
  5666   5669   5672   5673      9     0.00   0.66944   3 ;   C114-  C113-  C112-  H12R
  5666   5669   5672   5674      9     0.00   0.66944   3 ;   C114-  C113-  C112-  H12S
  5666   5669   5672   5675      9     0.00   0.41840   1 ;   C114-  C113-  C112-  C111
  5666   5669   5672   5675      9     0.00   0.41840   2 ;   C114-  C113-  C112-  C111
  5666   5669   5672   5675      9     0.00   0.41840   4 ;   C114-  C113-  C112-  C111
  5666   5669   5672   5675      9     0.00   0.41840   5 ;   C114-  C113-  C112-  C111
  5666   5669   5672   5675      9     0.00   1.25520   3 ;   C114-  C113-  C112-  C111
  5667   5666   5669   5670      9     0.00   0.62760   3 ;   H14R-  C114-  C113-  H13R
  5667   5666   5669   5671      9     0.00   0.62760   3 ;   H14R-  C114-  C113-  H13S
  5667   5666   5669   5672      9     0.00   0.66944   3 ;   H14R-  C114-  C113-  C112
  5668   5666   5669   5670      9     0.00   0.62760   3 ;   H14S-  C114-  C113-  H13R
  5668   5666   5669   5671      9     0.00   0.62760   3 ;   H14S-  C114-  C113-  H13S
  5668   5666   5669   5672      9     0.00   0.66944   3 ;   H14S-  C114-  C113-  C112
  5669   5672   5675   5676      9     0.00   0.66944   3 ;   C113-  C112-  C111-  H11R
  5669   5672   5675   5677      9     0.00   0.66944   3 ;   C113-  C112-  C111-  H11S
  5669   5672   5675   5678      9     0.00   0.41840   1 ;   C113-  C112-  C111-  C110
  5669   5672   5675   5678      9     0.00   0.41840   2 ;   C113-  C112-  C111-  C110
  5669   5672   5675   5678      9     0.00   0.41840   4 ;   C113-  C112-  C111-  C110
  5669   5672   5675   5678      9     0.00   0.41840   5 ;   C113-  C112-  C111-  C110
  5669   5672   5675   5678      9     0.00   1.25520   3 ;   C113-  C112-  C111-  C110
  5670   5669   5672   5673      9     0.00   0.62760   3 ;   H13R-  C113-  C112-  H12R
  5670   5669   5672   5674      9     0.00   0.62760   3 ;   H13R-  C113-  C112-  H12S
  5670   5669   5672   5675      9     0.00   0.66944   3 ;   H13R-  C113-  C112-  C111
  5671   5669   5672   5673      9     0.00   0.62760   3 ;   H13S-  C113-  C112-  H12R
  5671   5669   5672   5674      9     0.00   0.62760   3 ;   H13S-  C113-  C112-  H12S
  5671   5669   5672   5675      9     0.00   0.66944   3 ;   H13S-  C113-  C112-  C111
  5672   5675   5678   5679      9     0.00   0.66944   3 ;   C112-  C111-  C110-  H10R
  5672   5675   5678   5680      9     0.00   0.66944   3 ;   C112-  C111-  C110-  H10S
  5672   5675   5678   5681      9     0.00   0.41840   1 ;   C112-  C111-  C110-   C19
  5672   5675   5678   5681      9     0.00   0.41840   2 ;   C112-  C111-  C110-   C19
  5672   5675   5678   5681      9     0.00   0.41840   4 ;   C112-  C111-  C110-   C19
  5672   5675   5678   5681      9     0.00   0.41840   5 ;   C112-  C111-  C110-   C19
  5672   5675   5678   5681      9     0.00   1.25520   3 ;   C112-  C111-  C110-   C19
  5673   5672   5675   5676      9     0.00   0.62760   3 ;   H12R-  C112-  C111-  H11R
  5673   5672   5675   5677      9     0.00   0.62760   3 ;   H12R-  C112-  C111-  H11S
  5673   5672   5675   5678      9     0.00   0.66944   3 ;   H12R-  C112-  C111-  C110
  5674   5672   5675   5676      9     0.00   0.62760   3 ;   H12S-  C112-  C111-  H11R
  5674   5672   5675   5677      9     0.00   0.62760   3 ;   H12S-  C112-  C111-  H11S
  5674   5672   5675   5678      9     0.00   0.66944   3 ;   H12S-  C112-  C111-  C110
  5675   5678   5681   5682      9     0.00   0.66944   3 ;   C111-  C110-   C19-   H9R
  5675   5678   5681   5683      9     0.00   0.66944   3 ;   C111-  C110-   C19-   H9S
  5675   5678   5681   5684      9     0.00   0.41840   1 ;   C111-  C110-   C19-   C18
  5675   5678   5681   5684      9     0.00   0.41840   2 ;   C111-  C110-   C19-   C18
  5675   5678   5681   5684      9     0.00   0.41840   4 ;   C111-  C110-   C19-   C18
  5675   5678   5681   5684      9     0.00   0.41840   5 ;   C111-  C110-   C19-   C18
  5675   5678   5681   5684      9     0.00   1.25520   3 ;   C111-  C110-   C19-   C18
  5676   5675   5678   5679      9     0.00   0.62760   3 ;   H11R-  C111-  C110-  H10R
  5676   5675   5678   5680      9     0.00   0.62760   3 ;   H11R-  C111-  C110-  H10S
  5676   5675   5678   5681      9     0.00   0.66944   3 ;   H11R-  C111-  C110-   C19
  5677   5675   5678   5679      9     0.00   0.62760   3 ;   H11S-  C111-  C110-  H10R
  5677   5675   5678   5680      9     0.00   0.62760   3 ;   H11S-  C111-  C110-  H10S
  5677   5675   5678   5681      9     0.00   0.66944   3 ;   H11S-  C111-  C110-   C19
  5678   5681   5684   5685      9     0.00   0.66944   3 ;   C110-   C19-   C18-   H8R
  5678   5681   5684   5686      9     0.00   0.66944   3 ;   C110-   C19-   C18-   H8S
  5678   5681   5684   5687      9     0.00   0.41840   1 ;   C110-   C19-   C18-   C17
  5678   5681   5684   5687      9     0.00   0.41840   2 ;   C110-   C19-   C18-   C17
  5678   5681   5684   5687      9     0.00   0.41840   4 ;   C110-   C19-   C18-   C17
  5678   5681   5684   5687      9     0.00   0.41840   5 ;   C110-   C19-   C18-   C17
  5678   5681   5684   5687      9     0.00   1.25520   3 ;   C110-   C19-   C18-   C17
  5679   5678   5681   5682      9     0.00   0.62760   3 ;   H10R-  C110-   C19-   H9R
  5679   5678   5681   5683      9     0.00   0.62760   3 ;   H10R-  C110-   C19-   H9S
  5679   5678   5681   5684      9     0.00   0.66944   3 ;   H10R-  C110-   C19-   C18
  5680   5678   5681   5682      9     0.00   0.62760   3 ;   H10S-  C110-   C19-   H9R
  5680   5678   5681   5683      9     0.00   0.62760   3 ;   H10S-  C110-   C19-   H9S
  5680   5678   5681   5684      9     0.00   0.66944   3 ;   H10S-  C110-   C19-   C18
  5681   5684   5687   5688      9     0.00   0.66944   3 ;    C19-   C18-   C17-   H7R
  5681   5684   5687   5689      9     0.00   0.66944   3 ;    C19-   C18-   C17-   H7S
  5681   5684   5687   5690      9     0.00   0.41840   1 ;    C19-   C18-   C17-   C16
  5681   5684   5687   5690      9     0.00   0.41840   2 ;    C19-   C18-   C17-   C16
  5681   5684   5687   5690      9     0.00   0.41840   4 ;    C19-   C18-   C17-   C16
  5681   5684   5687   5690      9     0.00   0.41840   5 ;    C19-   C18-   C17-   C16
  5681   5684   5687   5690      9     0.00   1.25520   3 ;    C19-   C18-   C17-   C16
  5682   5681   5684   5685      9     0.00   0.62760   3 ;    H9R-   C19-   C18-   H8R
  5682   5681   5684   5686      9     0.00   0.62760   3 ;    H9R-   C19-   C18-   H8S
  5682   5681   5684   5687      9     0.00   0.66944   3 ;    H9R-   C19-   C18-   C17
  5683   5681   5684   5685      9     0.00   0.62760   3 ;    H9S-   C19-   C18-   H8R
  5683   5681   5684   5686      9     0.00   0.62760   3 ;    H9S-   C19-   C18-   H8S
  5683   5681   5684   5687      9     0.00   0.66944   3 ;    H9S-   C19-   C18-   C17
  5684   5687   5690   5691      9     0.00   0.66944   3 ;    C18-   C17-   C16-   H6R
  5684   5687   5690   5692      9     0.00   0.66944   3 ;    C18-   C17-   C16-   H6S
  5684   5687   5690   5693      9     0.00   0.41840   1 ;    C18-   C17-   C16-   C15
  5684   5687   5690   5693      9     0.00   0.41840   2 ;    C18-   C17-   C16-   C15
  5684   5687   5690   5693      9     0.00   0.41840   4 ;    C18-   C17-   C16-   C15
  5684   5687   5690   5693      9     0.00   0.41840   5 ;    C18-   C17-   C16-   C15
  5684   5687   5690   5693      9     0.00   1.25520   3 ;    C18-   C17-   C16-   C15
  5685   5684   5687   5688      9     0.00   0.62760   3 ;    H8R-   C18-   C17-   H7R
  5685   5684   5687   5689      9     0.00   0.62760   3 ;    H8R-   C18-   C17-   H7S
  5685   5684   5687   5690      9     0.00   0.66944   3 ;    H8R-   C18-   C17-   C16
  5686   5684   5687   5688      9     0.00   0.62760   3 ;    H8S-   C18-   C17-   H7R
  5686   5684   5687   5689      9     0.00   0.62760   3 ;    H8S-   C18-   C17-   H7S
  5686   5684   5687   5690      9     0.00   0.66944   3 ;    H8S-   C18-   C17-   C16
  5687   5690   5693   5694      9     0.00   0.66944   3 ;    C17-   C16-   C15-   H5R
  5687   5690   5693   5695      9     0.00   0.66944   3 ;    C17-   C16-   C15-   H5S
  5687   5690   5693   5696      9     0.00   0.41840   1 ;    C17-   C16-   C15-   C14
  5687   5690   5693   5696      9     0.00   0.41840   2 ;    C17-   C16-   C15-   C14
  5687   5690   5693   5696      9     0.00   0.41840   4 ;    C17-   C16-   C15-   C14
  5687   5690   5693   5696      9     0.00   0.41840   5 ;    C17-   C16-   C15-   C14
  5687   5690   5693   5696      9     0.00   1.25520   3 ;    C17-   C16-   C15-   C14
  5688   5687   5690   5691      9     0.00   0.62760   3 ;    H7R-   C17-   C16-   H6R
  5688   5687   5690   5692      9     0.00   0.62760   3 ;    H7R-   C17-   C16-   H6S
  5688   5687   5690   5693      9     0.00   0.66944   3 ;    H7R-   C17-   C16-   C15
  5689   5687   5690   5691      9     0.00   0.62760   3 ;    H7S-   C17-   C16-   H6R
  5689   5687   5690   5692      9     0.00   0.62760   3 ;    H7S-   C17-   C16-   H6S
  5689   5687   5690   5693      9     0.00   0.66944   3 ;    H7S-   C17-   C16-   C15
  5690   5693   5696   5697      9     0.00   0.66944   3 ;    C16-   C15-   C14-   H4R
  5690   5693   5696   5698      9     0.00   0.66944   3 ;    C16-   C15-   C14-   H4S
  5690   5693   5696   5699      9     0.00   0.41840   1 ;    C16-   C15-   C14-   C13
  5690   5693   5696   5699      9     0.00   0.41840   2 ;    C16-   C15-   C14-   C13
  5690   5693   5696   5699      9     0.00   0.41840   4 ;    C16-   C15-   C14-   C13
  5690   5693   5696   5699      9     0.00   0.41840   5 ;    C16-   C15-   C14-   C13
  5690   5693   5696   5699      9     0.00   1.25520   3 ;    C16-   C15-   C14-   C13
  5691   5690   5693   5694      9     0.00   0.62760   3 ;    H6R-   C16-   C15-   H5R
  5691   5690   5693   5695      9     0.00   0.62760   3 ;    H6R-   C16-   C15-   H5S
  5691   5690   5693   5696      9     0.00   0.66944   3 ;    H6R-   C16-   C15-   C14
  5692   5690   5693   5694      9     0.00   0.62760   3 ;    H6S-   C16-   C15-   H5R
  5692   5690   5693   5695      9     0.00   0.62760   3 ;    H6S-   C16-   C15-   H5S
  5692   5690   5693   5696      9     0.00   0.66944   3 ;    H6S-   C16-   C15-   C14
  5693   5696   5699   5700      9     0.00   0.66944   3 ;    C15-   C14-   C13-   H3R
  5693   5696   5699   5701      9     0.00   0.66944   3 ;    C15-   C14-   C13-   H3S
  5693   5696   5699   5702      9     0.00   0.41840   1 ;    C15-   C14-   C13-   C12
  5693   5696   5699   5702      9     0.00   0.41840   2 ;    C15-   C14-   C13-   C12
  5693   5696   5699   5702      9     0.00   0.41840   4 ;    C15-   C14-   C13-   C12
  5693   5696   5699   5702      9     0.00   0.41840   5 ;    C15-   C14-   C13-   C12
  5693   5696   5699   5702      9     0.00   1.25520   3 ;    C15-   C14-   C13-   C12
  5694   5693   5696   5697      9     0.00   0.62760   3 ;    H5R-   C15-   C14-   H4R
  5694   5693   5696   5698      9     0.00   0.62760   3 ;    H5R-   C15-   C14-   H4S
  5694   5693   5696   5699      9     0.00   0.66944   3 ;    H5R-   C15-   C14-   C13
  5695   5693   5696   5697      9     0.00   0.62760   3 ;    H5S-   C15-   C14-   H4R
  5695   5693   5696   5698      9     0.00   0.62760   3 ;    H5S-   C15-   C14-   H4S
  5695   5693   5696   5699      9     0.00   0.66944   3 ;    H5S-   C15-   C14-   C13
  5696   5699   5702   5703      9     0.00   0.66944   3 ;    C14-   C13-   C12-   H2R
  5696   5699   5702   5704      9     0.00   0.66944   3 ;    C14-   C13-   C12-   H2S
  5696   5699   5702   5705      9     0.00   0.65270   3 ;    C14-   C13-   C12-   C11
  5697   5696   5699   5700      9     0.00   0.62760   3 ;    H4R-   C14-   C13-   H3R
  5697   5696   5699   5701      9     0.00   0.62760   3 ;    H4R-   C14-   C13-   H3S
  5697   5696   5699   5702      9     0.00   0.66944   3 ;    H4R-   C14-   C13-   C12
  5698   5696   5699   5700      9     0.00   0.62760   3 ;    H4S-   C14-   C13-   H3R
  5698   5696   5699   5701      9     0.00   0.62760   3 ;    H4S-   C14-   C13-   H3S
  5698   5696   5699   5702      9     0.00   0.66944   3 ;    H4S-   C14-   C13-   C12
  5699   5702   5705   5706      9   180.00   0.00000   2 ;    C13-   C12-   C11-   O12
  5699   5702   5705   5707      9   180.00   0.00000   2 ;    C13-   C12-   C11-   O11
  5700   5699   5702   5703      9     0.00   0.62760   3 ;    H3R-   C13-   C12-   H2R
  5700   5699   5702   5704      9     0.00   0.62760   3 ;    H3R-   C13-   C12-   H2S
  5700   5699   5702   5705      9     0.00   0.65270   3 ;    H3R-   C13-   C12-   C11
  5701   5699   5702   5703      9     0.00   0.62760   3 ;    H3S-   C13-   C12-   H2R
  5701   5699   5702   5704      9     0.00   0.62760   3 ;    H3S-   C13-   C12-   H2S
  5701   5699   5702   5705      9     0.00   0.65270   3 ;    H3S-   C13-   C12-   C11
  5702   5705   5707   5708      9   180.00  11.29680   2 ;    C12-   C11-   O11-    C1
  5703   5702   5705   5706      9     0.00   3.34720   1 ;    H2R-   C12-   C11-   O12
  5703   5702   5705   5706      9   180.00   0.33472   3 ;    H2R-   C12-   C11-   O12
  5703   5702   5705   5707      9   180.00   0.00000   2 ;    H2R-   C12-   C11-   O11
  5704   5702   5705   5706      9     0.00   3.34720   1 ;    H2S-   C12-   C11-   O12
  5704   5702   5705   5706      9   180.00   0.33472   3 ;    H2S-   C12-   C11-   O12
  5704   5702   5705   5707      9   180.00   0.00000   2 ;    H2S-   C12-   C11-   O11
  5705   5707   5708   5709      9     0.00   1.60247   3 ;    C11-   O11-    C1-    HR
  5705   5707   5708   5710      9     0.00   1.60247   3 ;    C11-   O11-    C1-    HS
  5705   5707   5708   5711      9     0.00  -0.41840   1 ;    C11-   O11-    C1-    C2
  5706   5705   5707   5708      9   180.00   5.85760   1 ;    O12-   C11-   O11-    C1
  5706   5705   5707   5708      9   180.00  11.29680   2 ;    O12-   C11-   O11-    C1
  5707   5708   5711   5712      9     0.00   0.00000   0 ;    O11-    C1-    C2-    HX
  5707   5708   5711   5712      9     0.00   1.04600   1 ;    O11-    C1-    C2-    HX
  5707   5708   5711   5713      9     0.00   0.00000   0 ;    O11-    C1-    C2-    C3
  5707   5708   5711   5713      9     0.00   0.00000   0 ;    O11-    C1-    C2-    C3
  5707   5708   5711   5713      9     0.00   0.00000   0 ;    O11-    C1-    C2-    C3
  5707   5708   5711   5713      9     0.00   0.00000   0 ;    O11-    C1-    C2-    C3
  5707   5708   5711   5713      9     0.00   0.00000   0 ;    O11-    C1-    C2-    C3
  5707   5708   5711   5740      9     0.00   1.25520   2 ;    O11-    C1-    C2-   O21
  5707   5708   5711   5740      9     0.00   4.18400   3 ;    O11-    C1-    C2-   O21
  5707   5708   5711   5740      9   180.00  -0.41840   1 ;    O11-    C1-    C2-   O21
  5708   5711   5713   5714      9     0.00   0.65270   3 ;     C1-    C2-    C3-    HA
  5708   5711   5713   5715      9     0.00   0.65270   3 ;     C1-    C2-    C3-    HB
  5708   5711   5713   5716      9   180.00   3.34720   1 ;     C1-    C2-    C3-   O31
  5708   5711   5740   5741      9     0.00  -0.41840   1 ;     C1-    C2-   O21-   C21
  5709   5708   5711   5712      9     0.00   0.65270   3 ;     HR-    C1-    C2-    HX
  5709   5708   5711   5713      9     0.00   0.65270   3 ;     HR-    C1-    C2-    C3
  5709   5708   5711   5740      9     0.00   0.00000   0 ;     HR-    C1-    C2-   O21
  5709   5708   5711   5740      9     0.00   1.04600   1 ;     HR-    C1-    C2-   O21
  5710   5708   5711   5712      9     0.00   0.65270   3 ;     HS-    C1-    C2-    HX
  5710   5708   5711   5713      9     0.00   0.65270   3 ;     HS-    C1-    C2-    C3
  5710   5708   5711   5740      9     0.00   0.00000   0 ;     HS-    C1-    C2-   O21
  5710   5708   5711   5740      9     0.00   1.04600   1 ;     HS-    C1-    C2-   O21
  5711   5713   5716   5717      9     0.00   0.00000   0 ;     C2-    C3-   O31-   P31
  5711   5713   5716   5717      9   180.00  -3.34720   2 ;     C2-    C3-   O31-   P31
  5711   5740   5741   5742      9   180.00   5.85760   1 ;     C2-   O21-   C21-   O22
  5711   5740   5741   5742      9   180.00  11.29680   2 ;     C2-   O21-   C21-   O22
  5711   5740   5741   5780      9   180.00  11.29680   2 ;     C2-   O21-   C21-   C12
  5712   5711   5713   5714      9     0.00   0.65270   3 ;     HX-    C2-    C3-    HA
  5712   5711   5713   5715      9     0.00   0.65270   3 ;     HX-    C2-    C3-    HB
  5712   5711   5713   5716      9     0.00   0.00000   0 ;     HX-    C2-    C3-   O31
  5712   5711   5713   5716      9     0.00   1.04600   1 ;     HX-    C2-    C3-   O31
  5712   5711   5740   5741      9     0.00   1.60247   3 ;     HX-    C2-   O21-   C21
  5713   5711   5740   5741      9     0.00  -0.41840   1 ;     C3-    C2-   O21-   C21
  5713   5716   5717   5718      9     0.00   2.51040   3 ;     C3-   O31-   P31-   O32
  5713   5716   5717   5718      9     0.00   9.62320   2 ;     C3-   O31-   P31-   O32
  5713   5716   5717   5738      9     0.00   0.00000   0 ;     C3-   O31-   P31-   O33
  5713   5716   5717   5738      9     0.00   0.00000   0 ;     C3-   O31-   P31-   O33
  5713   5716   5717   5738      9     0.00   0.00000   0 ;     C3-   O31-   P31-   O33
  5713   5716   5717   5738      9     0.00   0.00000   0 ;     C3-   O31-   P31-   O33
  5713   5716   5717   5738      9     0.00   0.83680   2 ;     C3-   O31-   P31-   O33
  5713   5716   5717   5739      9     0.00   0.00000   0 ;     C3-   O31-   P31-   O34
  5713   5716   5717   5739      9     0.00   0.00000   0 ;     C3-   O31-   P31-   O34
  5713   5716   5717   5739      9     0.00   0.00000   0 ;     C3-   O31-   P31-   O34
  5713   5716   5717   5739      9     0.00   0.00000   0 ;     C3-   O31-   P31-   O34
  5713   5716   5717   5739      9     0.00   0.83680   2 ;     C3-   O31-   P31-   O34
  5714   5713   5711   5740      9     0.00   0.00000   0 ;     HA-    C3-    C2-   O21
  5714   5713   5711   5740      9     0.00   1.04600   1 ;     HA-    C3-    C2-   O21
  5714   5713   5716   5717      9     0.00   0.00000   0 ;     HA-    C3-   O31-   P31
  5714   5713   5716   5717      9     0.00   0.00000   0 ;     HA-    C3-   O31-   P31
  5714   5713   5716   5717      9     0.00   0.00000   0 ;     HA-    C3-   O31-   P31
  5714   5713   5716   5717      9     0.00   0.00000   0 ;     HA-    C3-   O31-   P31
  5714   5713   5716   5717      9     0.00   1.60247   3 ;     HA-    C3-   O31-   P31
  5715   5713   5711   5740      9     0.00   0.00000   0 ;     HB-    C3-    C2-   O21
  5715   5713   5711   5740      9     0.00   1.04600   1 ;     HB-    C3-    C2-   O21
  5715   5713   5716   5717      9     0.00   0.00000   0 ;     HB-    C3-   O31-   P31
  5715   5713   5716   5717      9     0.00   0.00000   0 ;     HB-    C3-   O31-   P31
  5715   5713   5716   5717      9     0.00   0.00000   0 ;     HB-    C3-   O31-   P31
  5715   5713   5716   5717      9     0.00   0.00000   0 ;     HB-    C3-   O31-   P31
  5715   5713   5716   5717      9     0.00   1.60247   3 ;     HB-    C3-   O31-   P31
  5716   5713   5711   5740      9     0.00   0.00000   0 ;    O31-    C3-    C2-   O21
  5716   5713   5711   5740      9     0.00   0.00000   0 ;    O31-    C3-    C2-   O21
  5716   5713   5711   5740      9     0.00   0.00000   0 ;    O31-    C3-    C2-   O21
  5716   5713   5711   5740      9     0.00   0.00000   0 ;    O31-    C3-    C2-   O21
  5716   5713   5711   5740      9     0.00   0.00000   0 ;    O31-    C3-    C2-   O21
  5716   5717   5718   5719      9     0.00   2.51040   3 ;    O31-   P31-   O32-   C31
  5716   5717   5718   5719      9     0.00   9.62320   2 ;    O31-   P31-   O32-   C31
  5717   5718   5719   5720      9     0.00   0.00000   0 ;    P31-   O32-   C31-   H1A
  5717   5718   5719   5720      9     0.00   0.00000   0 ;    P31-   O32-   C31-   H1A
  5717   5718   5719   5720      9     0.00   0.00000   0 ;    P31-   O32-   C31-   H1A
  5717   5718   5719   5720      9     0.00   0.00000   0 ;    P31-   O32-   C31-   H1A
  5717   5718   5719   5720      9     0.00   1.60247   3 ;    P31-   O32-   C31-   H1A
  5717   5718   5719   5721      9     0.00   0.00000   0 ;    P31-   O32-   C31-   H1B
  5717   5718   5719   5721      9     0.00   0.00000   0 ;    P31-   O32-   C31-   H1B
  5717   5718   5719   5721      9     0.00   0.00000   0 ;    P31-   O32-   C31-   H1B
  5717   5718   5719   5721      9     0.00   0.00000   0 ;    P31-   O32-   C31-   H1B
  5717   5718   5719   5721      9     0.00   1.60247   3 ;    P31-   O32-   C31-   H1B
  5717   5718   5719   5722      9     0.00   0.00000   0 ;    P31-   O32-   C31-   C32
  5717   5718   5719   5722      9   180.00  -3.34720   2 ;    P31-   O32-   C31-   C32
  5718   5719   5722   5723      9     0.00   0.65270   3 ;    O32-   C31-   C32-   H2A
  5718   5719   5722   5724      9     0.00   0.65270   3 ;    O32-   C31-   C32-   H2B
  5718   5719   5722   5725      9     0.00   4.18400   3 ;    O32-   C31-   C32-   N31
  5719   5718   5717   5738      9     0.00   0.00000   0 ;    C31-   O32-   P31-   O33
  5719   5718   5717   5738      9     0.00   0.00000   0 ;    C31-   O32-   P31-   O33
  5719   5718   5717   5738      9     0.00   0.00000   0 ;    C31-   O32-   P31-   O33
  5719   5718   5717   5738      9     0.00   0.00000   0 ;    C31-   O32-   P31-   O33
  5719   5718   5717   5738      9     0.00   0.83680   2 ;    C31-   O32-   P31-   O33
  5719   5718   5717   5739      9     0.00   0.00000   0 ;    C31-   O32-   P31-   O34
  5719   5718   5717   5739      9     0.00   0.00000   0 ;    C31-   O32-   P31-   O34
  5719   5718   5717   5739      9     0.00   0.00000   0 ;    C31-   O32-   P31-   O34
  5719   5718   5717   5739      9     0.00   0.00000   0 ;    C31-   O32-   P31-   O34
  5719   5718   5717   5739      9     0.00   0.83680   2 ;    C31-   O32-   P31-   O34
  5719   5722   5725   5726      9     0.00   0.65270   3 ;    C31-   C32-   N31-   C33
  5719   5722   5725   5730      9     0.00   0.65270   3 ;    C31-   C32-   N31-   C34
  5719   5722   5725   5734      9     0.00   0.65270   3 ;    C31-   C32-   N31-   C35
  5720   5719   5722   5723      9     0.00   0.65270   3 ;    H1A-   C31-   C32-   H2A
  5720   5719   5722   5724      9     0.00   0.65270   3 ;    H1A-   C31-   C32-   H2B
  5720   5719   5722   5725      9     0.00   0.65270   3 ;    H1A-   C31-   C32-   N31
  5721   5719   5722   5723      9     0.00   0.65270   3 ;    H1B-   C31-   C32-   H2A
  5721   5719   5722   5724      9     0.00   0.65270   3 ;    H1B-   C31-   C32-   H2B
  5721   5719   5722   5725      9     0.00   0.65270   3 ;    H1B-   C31-   C32-   N31
  5722   5725   5726   5727      9     0.00   0.65270   3 ;    C32-   N31-   C33-   H3A
  5722   5725   5726   5728      9     0.00   0.65270   3 ;    C32-   N31-   C33-   H3B
  5722   5725   5726   5729      9     0.00   0.65270   3 ;    C32-   N31-   C33-   H3C
  5722   5725   5730   5731      9     0.00   0.65270   3 ;    C32-   N31-   C34-   H4A
  5722   5725   5730   5732      9     0.00   0.65270   3 ;    C32-   N31-   C34-   H4B
  5722   5725   5730   5733      9     0.00   0.65270   3 ;    C32-   N31-   C34-   H4C
  5722   5725   5734   5735      9     0.00   0.65270   3 ;    C32-   N31-   C35-   H5A
  5722   5725   5734   5736      9     0.00   0.65270   3 ;    C32-   N31-   C35-   H5B
  5722   5725   5734   5737      9     0.00   0.65270   3 ;    C32-   N31-   C35-   H5C
  5723   5722   5725   5726      9     0.00   0.65270   3 ;    H2A-   C32-   N31-   C33
  5723   5722   5725   5730      9     0.00   0.65270   3 ;    H2A-   C32-   N31-   C34
  5723   5722   5725   5734      9     0.00   0.65270   3 ;    H2A-   C32-   N31-   C35
  5724   5722   5725   5726      9     0.00   0.65270   3 ;    H2B-   C32-   N31-   C33
  5724   5722   5725   5730      9     0.00   0.65270   3 ;    H2B-   C32-   N31-   C34
  5724   5722   5725   5734      9     0.00   0.65270   3 ;    H2B-   C32-   N31-   C35
  5726   5725   5730   5731      9     0.00   0.65270   3 ;    C33-   N31-   C34-   H4A
  5726   5725   5730   5732      9     0.00   0.65270   3 ;    C33-   N31-   C34-   H4B
  5726   5725   5730   5733      9     0.00   0.65270   3 ;    C33-   N31-   C34-   H4C
  5726   5725   5734   5735      9     0.00   0.65270   3 ;    C33-   N31-   C35-   H5A
  5726   5725   5734   5736      9     0.00   0.65270   3 ;    C33-   N31-   C35-   H5B
  5726   5725   5734   5737      9     0.00   0.65270   3 ;    C33-   N31-   C35-   H5C
  5727   5726   5725   5730      9     0.00   0.65270   3 ;    H3A-   C33-   N31-   C34
  5727   5726   5725   5734      9     0.00   0.65270   3 ;    H3A-   C33-   N31-   C35
  5728   5726   5725   5730      9     0.00   0.65270   3 ;    H3B-   C33-   N31-   C34
  5728   5726   5725   5734      9     0.00   0.65270   3 ;    H3B-   C33-   N31-   C35
  5729   5726   5725   5730      9     0.00   0.65270   3 ;    H3C-   C33-   N31-   C34
  5729   5726   5725   5734      9     0.00   0.65270   3 ;    H3C-   C33-   N31-   C35
  5730   5725   5734   5735      9     0.00   0.65270   3 ;    C34-   N31-   C35-   H5A
  5730   5725   5734   5736      9     0.00   0.65270   3 ;    C34-   N31-   C35-   H5B
  5730   5725   5734   5737      9     0.00   0.65270   3 ;    C34-   N31-   C35-   H5C
  5731   5730   5725   5734      9     0.00   0.65270   3 ;    H4A-   C34-   N31-   C35
  5732   5730   5725   5734      9     0.00   0.65270   3 ;    H4B-   C34-   N31-   C35
  5733   5730   5725   5734      9     0.00   0.65270   3 ;    H4C-   C34-   N31-   C35
  5740   5741   5780   5777      9   180.00   0.00000   2 ;    O21-   C21-   C12-   C13
  5740   5741   5780   5781      9   180.00   0.00000   2 ;    O21-   C21-   C12-   H2R
  5740   5741   5780   5782      9   180.00   0.00000   2 ;    O21-   C21-   C12-   H2S
  5741   5780   5777   5774      9     0.00   0.65270   3 ;    C21-   C12-   C13-   C14
  5741   5780   5777   5778      9     0.00   0.65270   3 ;    C21-   C12-   C13-   H3R
  5741   5780   5777   5779      9     0.00   0.65270   3 ;    C21-   C12-   C13-   H3S
  5742   5741   5780   5777      9   180.00   0.00000   2 ;    O22-   C21-   C12-   C13
  5742   5741   5780   5781      9     0.00   3.34720   1 ;    O22-   C21-   C12-   H2R
  5742   5741   5780   5781      9   180.00   0.33472   3 ;    O22-   C21-   C12-   H2R
  5742   5741   5780   5782      9     0.00   3.34720   1 ;    O22-   C21-   C12-   H2S
  5742   5741   5780   5782      9   180.00   0.33472   3 ;    O22-   C21-   C12-   H2S
  5743   5744   5747   5748      9     0.00   0.62760   3 ;   H14T-  C114-  C113-  H13R
  5743   5744   5747   5749      9     0.00   0.62760   3 ;   H14T-  C114-  C113-  H13S
  5743   5744   5747   5750      9     0.00   0.66944   3 ;   H14T-  C114-  C113-  C112
  5744   5747   5750   5751      9     0.00   0.66944   3 ;   C114-  C113-  C112-  H12R
  5744   5747   5750   5752      9     0.00   0.66944   3 ;   C114-  C113-  C112-  H12S
  5744   5747   5750   5753      9     0.00   0.41840   1 ;   C114-  C113-  C112-  C111
  5744   5747   5750   5753      9     0.00   0.41840   2 ;   C114-  C113-  C112-  C111
  5744   5747   5750   5753      9     0.00   0.41840   4 ;   C114-  C113-  C112-  C111
  5744   5747   5750   5753      9     0.00   0.41840   5 ;   C114-  C113-  C112-  C111
  5744   5747   5750   5753      9     0.00   1.25520   3 ;   C114-  C113-  C112-  C111
  5745   5744   5747   5748      9     0.00   0.62760   3 ;   H14R-  C114-  C113-  H13R
  5745   5744   5747   5749      9     0.00   0.62760   3 ;   H14R-  C114-  C113-  H13S
  5745   5744   5747   5750      9     0.00   0.66944   3 ;   H14R-  C114-  C113-  C112
  5746   5744   5747   5748      9     0.00   0.62760   3 ;   H14S-  C114-  C113-  H13R
  5746   5744   5747   5749      9     0.00   0.62760   3 ;   H14S-  C114-  C113-  H13S
  5746   5744   5747   5750      9     0.00   0.66944   3 ;   H14S-  C114-  C113-  C112
  5747   5750   5753   5754      9     0.00   0.66944   3 ;   C113-  C112-  C111-  H11R
  5747   5750   5753   5755      9     0.00   0.66944   3 ;   C113-  C112-  C111-  H11S
  5747   5750   5753   5756      9     0.00   0.41840   1 ;   C113-  C112-  C111-  C110
  5747   5750   5753   5756      9     0.00   0.41840   2 ;   C113-  C112-  C111-  C110
  5747   5750   5753   5756      9     0.00   0.41840   4 ;   C113-  C112-  C111-  C110
  5747   5750   5753   5756      9     0.00   0.41840   5 ;   C113-  C112-  C111-  C110
  5747   5750   5753   5756      9     0.00   1.25520   3 ;   C113-  C112-  C111-  C110
  5748   5747   5750   5751      9     0.00   0.62760   3 ;   H13R-  C113-  C112-  H12R
  5748   5747   5750   5752      9     0.00   0.62760   3 ;   H13R-  C113-  C112-  H12S
  5748   5747   5750   5753      9     0.00   0.66944   3 ;   H13R-  C113-  C112-  C111
  5749   5747   5750   5751      9     0.00   0.62760   3 ;   H13S-  C113-  C112-  H12R
  5749   5747   5750   5752      9     0.00   0.62760   3 ;   H13S-  C113-  C112-  H12S
  5749   5747   5750   5753      9     0.00   0.66944   3 ;   H13S-  C113-  C112-  C111
  5750   5753   5756   5757      9     0.00   0.66944   3 ;   C112-  C111-  C110-  H10R
  5750   5753   5756   5758      9     0.00   0.66944   3 ;   C112-  C111-  C110-  H10S
  5750   5753   5756   5759      9     0.00   0.41840   1 ;   C112-  C111-  C110-   C19
  5750   5753   5756   5759      9     0.00   0.41840   2 ;   C112-  C111-  C110-   C19
  5750   5753   5756   5759      9     0.00   0.41840   4 ;   C112-  C111-  C110-   C19
  5750   5753   5756   5759      9     0.00   0.41840   5 ;   C112-  C111-  C110-   C19
  5750   5753   5756   5759      9     0.00   1.25520   3 ;   C112-  C111-  C110-   C19
  5751   5750   5753   5754      9     0.00   0.62760   3 ;   H12R-  C112-  C111-  H11R
  5751   5750   5753   5755      9     0.00   0.62760   3 ;   H12R-  C112-  C111-  H11S
  5751   5750   5753   5756      9     0.00   0.66944   3 ;   H12R-  C112-  C111-  C110
  5752   5750   5753   5754      9     0.00   0.62760   3 ;   H12S-  C112-  C111-  H11R
  5752   5750   5753   5755      9     0.00   0.62760   3 ;   H12S-  C112-  C111-  H11S
  5752   5750   5753   5756      9     0.00   0.66944   3 ;   H12S-  C112-  C111-  C110
  5753   5756   5759   5760      9     0.00   0.66944   3 ;   C111-  C110-   C19-   H9R
  5753   5756   5759   5761      9     0.00   0.66944   3 ;   C111-  C110-   C19-   H9S
  5753   5756   5759   5762      9     0.00   0.41840   1 ;   C111-  C110-   C19-   C18
  5753   5756   5759   5762      9     0.00   0.41840   2 ;   C111-  C110-   C19-   C18
  5753   5756   5759   5762      9     0.00   0.41840   4 ;   C111-  C110-   C19-   C18
  5753   5756   5759   5762      9     0.00   0.41840   5 ;   C111-  C110-   C19-   C18
  5753   5756   5759   5762      9     0.00   1.25520   3 ;   C111-  C110-   C19-   C18
  5754   5753   5756   5757      9     0.00   0.62760   3 ;   H11R-  C111-  C110-  H10R
  5754   5753   5756   5758      9     0.00   0.62760   3 ;   H11R-  C111-  C110-  H10S
  5754   5753   5756   5759      9     0.00   0.66944   3 ;   H11R-  C111-  C110-   C19
  5755   5753   5756   5757      9     0.00   0.62760   3 ;   H11S-  C111-  C110-  H10R
  5755   5753   5756   5758      9     0.00   0.62760   3 ;   H11S-  C111-  C110-  H10S
  5755   5753   5756   5759      9     0.00   0.66944   3 ;   H11S-  C111-  C110-   C19
  5756   5759   5762   5763      9     0.00   0.66944   3 ;   C110-   C19-   C18-   H8R
  5756   5759   5762   5764      9     0.00   0.66944   3 ;   C110-   C19-   C18-   H8S
  5756   5759   5762   5765      9     0.00   0.41840   1 ;   C110-   C19-   C18-   C17
  5756   5759   5762   5765      9     0.00   0.41840   2 ;   C110-   C19-   C18-   C17
  5756   5759   5762   5765      9     0.00   0.41840   4 ;   C110-   C19-   C18-   C17
  5756   5759   5762   5765      9     0.00   0.41840   5 ;   C110-   C19-   C18-   C17
  5756   5759   5762   5765      9     0.00   1.25520   3 ;   C110-   C19-   C18-   C17
  5757   5756   5759   5760      9     0.00   0.62760   3 ;   H10R-  C110-   C19-   H9R
  5757   5756   5759   5761      9     0.00   0.62760   3 ;   H10R-  C110-   C19-   H9S
  5757   5756   5759   5762      9     0.00   0.66944   3 ;   H10R-  C110-   C19-   C18
  5758   5756   5759   5760      9     0.00   0.62760   3 ;   H10S-  C110-   C19-   H9R
  5758   5756   5759   5761      9     0.00   0.62760   3 ;   H10S-  C110-   C19-   H9S
  5758   5756   5759   5762      9     0.00   0.66944   3 ;   H10S-  C110-   C19-   C18
  5759   5762   5765   5766      9     0.00   0.66944   3 ;    C19-   C18-   C17-   H7R
  5759   5762   5765   5767      9     0.00   0.66944   3 ;    C19-   C18-   C17-   H7S
  5759   5762   5765   5768      9     0.00   0.41840   1 ;    C19-   C18-   C17-   C16
  5759   5762   5765   5768      9     0.00   0.41840   2 ;    C19-   C18-   C17-   C16
  5759   5762   5765   5768      9     0.00   0.41840   4 ;    C19-   C18-   C17-   C16
  5759   5762   5765   5768      9     0.00   0.41840   5 ;    C19-   C18-   C17-   C16
  5759   5762   5765   5768      9     0.00   1.25520   3 ;    C19-   C18-   C17-   C16
  5760   5759   5762   5763      9     0.00   0.62760   3 ;    H9R-   C19-   C18-   H8R
  5760   5759   5762   5764      9     0.00   0.62760   3 ;    H9R-   C19-   C18-   H8S
  5760   5759   5762   5765      9     0.00   0.66944   3 ;    H9R-   C19-   C18-   C17
  5761   5759   5762   5763      9     0.00   0.62760   3 ;    H9S-   C19-   C18-   H8R
  5761   5759   5762   5764      9     0.00   0.62760   3 ;    H9S-   C19-   C18-   H8S
  5761   5759   5762   5765      9     0.00   0.66944   3 ;    H9S-   C19-   C18-   C17
  5762   5765   5768   5769      9     0.00   0.66944   3 ;    C18-   C17-   C16-   H6R
  5762   5765   5768   5770      9     0.00   0.66944   3 ;    C18-   C17-   C16-   H6S
  5762   5765   5768   5771      9     0.00   0.41840   1 ;    C18-   C17-   C16-   C15
  5762   5765   5768   5771      9     0.00   0.41840   2 ;    C18-   C17-   C16-   C15
  5762   5765   5768   5771      9     0.00   0.41840   4 ;    C18-   C17-   C16-   C15
  5762   5765   5768   5771      9     0.00   0.41840   5 ;    C18-   C17-   C16-   C15
  5762   5765   5768   5771      9     0.00   1.25520   3 ;    C18-   C17-   C16-   C15
  5763   5762   5765   5766      9     0.00   0.62760   3 ;    H8R-   C18-   C17-   H7R
  5763   5762   5765   5767      9     0.00   0.62760   3 ;    H8R-   C18-   C17-   H7S
  5763   5762   5765   5768      9     0.00   0.66944   3 ;    H8R-   C18-   C17-   C16
  5764   5762   5765   5766      9     0.00   0.62760   3 ;    H8S-   C18-   C17-   H7R
  5764   5762   5765   5767      9     0.00   0.62760   3 ;    H8S-   C18-   C17-   H7S
  5764   5762   5765   5768      9     0.00   0.66944   3 ;    H8S-   C18-   C17-   C16
  5765   5768   5771   5772      9     0.00   0.66944   3 ;    C17-   C16-   C15-   H5R
  5765   5768   5771   5773      9     0.00   0.66944   3 ;    C17-   C16-   C15-   H5S
  5765   5768   5771   5774      9     0.00   0.41840   1 ;    C17-   C16-   C15-   C14
  5765   5768   5771   5774      9     0.00   0.41840   2 ;    C17-   C16-   C15-   C14
  5765   5768   5771   5774      9     0.00   0.41840   4 ;    C17-   C16-   C15-   C14
  5765   5768   5771   5774      9     0.00   0.41840   5 ;    C17-   C16-   C15-   C14
  5765   5768   5771   5774      9     0.00   1.25520   3 ;    C17-   C16-   C15-   C14
  5766   5765   5768   5769      9     0.00   0.62760   3 ;    H7R-   C17-   C16-   H6R
  5766   5765   5768   5770      9     0.00   0.62760   3 ;    H7R-   C17-   C16-   H6S
  5766   5765   5768   5771      9     0.00   0.66944   3 ;    H7R-   C17-   C16-   C15
  5767   5765   5768   5769      9     0.00   0.62760   3 ;    H7S-   C17-   C16-   H6R
  5767   5765   5768   5770      9     0.00   0.62760   3 ;    H7S-   C17-   C16-   H6S
  5767   5765   5768   5771      9     0.00   0.66944   3 ;    H7S-   C17-   C16-   C15
  5768   5771   5774   5775      9     0.00   0.66944   3 ;    C16-   C15-   C14-   H4R
  5768   5771   5774   5776      9     0.00   0.66944   3 ;    C16-   C15-   C14-   H4S
  5768   5771   5774   5777      9     0.00   0.41840   1 ;    C16-   C15-   C14-   C13
  5768   5771   5774   5777      9     0.00   0.41840   2 ;    C16-   C15-   C14-   C13
  5768   5771   5774   5777      9     0.00   0.41840   4 ;    C16-   C15-   C14-   C13
  5768   5771   5774   5777      9     0.00   0.41840   5 ;    C16-   C15-   C14-   C13
  5768   5771   5774   5777      9     0.00   1.25520   3 ;    C16-   C15-   C14-   C13
  5769   5768   5771   5772      9     0.00   0.62760   3 ;    H6R-   C16-   C15-   H5R
  5769   5768   5771   5773      9     0.00   0.62760   3 ;    H6R-   C16-   C15-   H5S
  5769   5768   5771   5774      9     0.00   0.66944   3 ;    H6R-   C16-   C15-   C14
  5770   5768   5771   5772      9     0.00   0.62760   3 ;    H6S-   C16-   C15-   H5R
  5770   5768   5771   5773      9     0.00   0.62760   3 ;    H6S-   C16-   C15-   H5S
  5770   5768   5771   5774      9     0.00   0.66944   3 ;    H6S-   C16-   C15-   C14
  5771   5774   5777   5778      9     0.00   0.66944   3 ;    C15-   C14-   C13-   H3R
  5771   5774   5777   5779      9     0.00   0.66944   3 ;    C15-   C14-   C13-   H3S
  5771   5774   5777   5780      9     0.00   0.41840   1 ;    C15-   C14-   C13-   C12
  5771   5774   5777   5780      9     0.00   0.41840   2 ;    C15-   C14-   C13-   C12
  5771   5774   5777   5780      9     0.00   0.41840   4 ;    C15-   C14-   C13-   C12
  5771   5774   5777   5780      9     0.00   0.41840   5 ;    C15-   C14-   C13-   C12
  5771   5774   5777   5780      9     0.00   1.25520   3 ;    C15-   C14-   C13-   C12
  5772   5771   5774   5775      9     0.00   0.62760   3 ;    H5R-   C15-   C14-   H4R
  5772   5771   5774   5776      9     0.00   0.62760   3 ;    H5R-   C15-   C14-   H4S
  5772   5771   5774   5777      9     0.00   0.66944   3 ;    H5R-   C15-   C14-   C13
  5773   5771   5774   5775      9     0.00   0.62760   3 ;    H5S-   C15-   C14-   H4R
  5773   5771   5774   5776      9     0.00   0.62760   3 ;    H5S-   C15-   C14-   H4S
  5773   5771   5774   5777      9     0.00   0.66944   3 ;    H5S-   C15-   C14-   C13
  5774   5777   5780   5781      9     0.00   0.66944   3 ;    C14-   C13-   C12-   H2R
  5774   5777   5780   5782      9     0.00   0.66944   3 ;    C14-   C13-   C12-   H2S
  5775   5774   5777   5778      9     0.00   0.62760   3 ;    H4R-   C14-   C13-   H3R
  5775   5774   5777   5779      9     0.00   0.62760   3 ;    H4R-   C14-   C13-   H3S
  5775   5774   5777   5780      9     0.00   0.66944   3 ;    H4R-   C14-   C13-   C12
  5776   5774   5777   5778      9     0.00   0.62760   3 ;    H4S-   C14-   C13-   H3R
  5776   5774   5777   5779      9     0.00   0.62760   3 ;    H4S-   C14-   C13-   H3S
  5776   5774   5777   5780      9     0.00   0.66944   3 ;    H4S-   C14-   C13-   C12
  5778   5777   5780   5781      9     0.00   0.62760   3 ;    H3R-   C13-   C12-   H2R
  5778   5777   5780   5782      9     0.00   0.62760   3 ;    H3R-   C13-   C12-   H2S
  5779   5777   5780   5781      9     0.00   0.62760   3 ;    H3S-   C13-   C12-   H2R
  5779   5777   5780   5782      9     0.00   0.62760   3 ;    H3S-   C13-   C12-   H2S
  5783   5784   5787   5788      9     0.00   0.62760   3 ;   H14T-  C114-  C113-  H13R
  5783   5784   5787   5789      9     0.00   0.62760   3 ;   H14T-  C114-  C113-  H13S
  5783   5784   5787   5790      9     0.00   0.66944   3 ;   H14T-  C114-  C113-  C112
  5784   5787   5790   5791      9     0.00   0.66944   3 ;   C114-  C113-  C112-  H12R
  5784   5787   5790   5792      9     0.00   0.66944   3 ;   C114-  C113-  C112-  H12S
  5784   5787   5790   5793      9     0.00   0.41840   1 ;   C114-  C113-  C112-  C111
  5784   5787   5790   5793      9     0.00   0.41840   2 ;   C114-  C113-  C112-  C111
  5784   5787   5790   5793      9     0.00   0.41840   4 ;   C114-  C113-  C112-  C111
  5784   5787   5790   5793      9     0.00   0.41840   5 ;   C114-  C113-  C112-  C111
  5784   5787   5790   5793      9     0.00   1.25520   3 ;   C114-  C113-  C112-  C111
  5785   5784   5787   5788      9     0.00   0.62760   3 ;   H14R-  C114-  C113-  H13R
  5785   5784   5787   5789      9     0.00   0.62760   3 ;   H14R-  C114-  C113-  H13S
  5785   5784   5787   5790      9     0.00   0.66944   3 ;   H14R-  C114-  C113-  C112
  5786   5784   5787   5788      9     0.00   0.62760   3 ;   H14S-  C114-  C113-  H13R
  5786   5784   5787   5789      9     0.00   0.62760   3 ;   H14S-  C114-  C113-  H13S
  5786   5784   5787   5790      9     0.00   0.66944   3 ;   H14S-  C114-  C113-  C112
  5787   5790   5793   5794      9     0.00   0.66944   3 ;   C113-  C112-  C111-  H11R
  5787   5790   5793   5795      9     0.00   0.66944   3 ;   C113-  C112-  C111-  H11S
  5787   5790   5793   5796      9     0.00   0.41840   1 ;   C113-  C112-  C111-  C110
  5787   5790   5793   5796      9     0.00   0.41840   2 ;   C113-  C112-  C111-  C110
  5787   5790   5793   5796      9     0.00   0.41840   4 ;   C113-  C112-  C111-  C110
  5787   5790   5793   5796      9     0.00   0.41840   5 ;   C113-  C112-  C111-  C110
  5787   5790   5793   5796      9     0.00   1.25520   3 ;   C113-  C112-  C111-  C110
  5788   5787   5790   5791      9     0.00   0.62760   3 ;   H13R-  C113-  C112-  H12R
  5788   5787   5790   5792      9     0.00   0.62760   3 ;   H13R-  C113-  C112-  H12S
  5788   5787   5790   5793      9     0.00   0.66944   3 ;   H13R-  C113-  C112-  C111
  5789   5787   5790   5791      9     0.00   0.62760   3 ;   H13S-  C113-  C112-  H12R
  5789   5787   5790   5792      9     0.00   0.62760   3 ;   H13S-  C113-  C112-  H12S
  5789   5787   5790   5793      9     0.00   0.66944   3 ;   H13S-  C113-  C112-  C111
  5790   5793   5796   5797      9     0.00   0.66944   3 ;   C112-  C111-  C110-  H10R
  5790   5793   5796   5798      9     0.00   0.66944   3 ;   C112-  C111-  C110-  H10S
  5790   5793   5796   5799      9     0.00   0.41840   1 ;   C112-  C111-  C110-   C19
  5790   5793   5796   5799      9     0.00   0.41840   2 ;   C112-  C111-  C110-   C19
  5790   5793   5796   5799      9     0.00   0.41840   4 ;   C112-  C111-  C110-   C19
  5790   5793   5796   5799      9     0.00   0.41840   5 ;   C112-  C111-  C110-   C19
  5790   5793   5796   5799      9     0.00   1.25520   3 ;   C112-  C111-  C110-   C19
  5791   5790   5793   5794      9     0.00   0.62760   3 ;   H12R-  C112-  C111-  H11R
  5791   5790   5793   5795      9     0.00   0.62760   3 ;   H12R-  C112-  C111-  H11S
  5791   5790   5793   5796      9     0.00   0.66944   3 ;   H12R-  C112-  C111-  C110
  5792   5790   5793   5794      9     0.00   0.62760   3 ;   H12S-  C112-  C111-  H11R
  5792   5790   5793   5795      9     0.00   0.62760   3 ;   H12S-  C112-  C111-  H11S
  5792   5790   5793   5796      9     0.00   0.66944   3 ;   H12S-  C112-  C111-  C110
  5793   5796   5799   5800      9     0.00   0.66944   3 ;   C111-  C110-   C19-   H9R
  5793   5796   5799   5801      9     0.00   0.66944   3 ;   C111-  C110-   C19-   H9S
  5793   5796   5799   5802      9     0.00   0.41840   1 ;   C111-  C110-   C19-   C18
  5793   5796   5799   5802      9     0.00   0.41840   2 ;   C111-  C110-   C19-   C18
  5793   5796   5799   5802      9     0.00   0.41840   4 ;   C111-  C110-   C19-   C18
  5793   5796   5799   5802      9     0.00   0.41840   5 ;   C111-  C110-   C19-   C18
  5793   5796   5799   5802      9     0.00   1.25520   3 ;   C111-  C110-   C19-   C18
  5794   5793   5796   5797      9     0.00   0.62760   3 ;   H11R-  C111-  C110-  H10R
  5794   5793   5796   5798      9     0.00   0.62760   3 ;   H11R-  C111-  C110-  H10S
  5794   5793   5796   5799      9     0.00   0.66944   3 ;   H11R-  C111-  C110-   C19
  5795   5793   5796   5797      9     0.00   0.62760   3 ;   H11S-  C111-  C110-  H10R
  5795   5793   5796   5798      9     0.00   0.62760   3 ;   H11S-  C111-  C110-  H10S
  5795   5793   5796   5799      9     0.00   0.66944   3 ;   H11S-  C111-  C110-   C19
  5796   5799   5802   5803      9     0.00   0.66944   3 ;   C110-   C19-   C18-   H8R
  5796   5799   5802   5804      9     0.00   0.66944   3 ;   C110-   C19-   C18-   H8S
  5796   5799   5802   5805      9     0.00   0.41840   1 ;   C110-   C19-   C18-   C17
  5796   5799   5802   5805      9     0.00   0.41840   2 ;   C110-   C19-   C18-   C17
  5796   5799   5802   5805      9     0.00   0.41840   4 ;   C110-   C19-   C18-   C17
  5796   5799   5802   5805      9     0.00   0.41840   5 ;   C110-   C19-   C18-   C17
  5796   5799   5802   5805      9     0.00   1.25520   3 ;   C110-   C19-   C18-   C17
  5797   5796   5799   5800      9     0.00   0.62760   3 ;   H10R-  C110-   C19-   H9R
  5797   5796   5799   5801      9     0.00   0.62760   3 ;   H10R-  C110-   C19-   H9S
  5797   5796   5799   5802      9     0.00   0.66944   3 ;   H10R-  C110-   C19-   C18
  5798   5796   5799   5800      9     0.00   0.62760   3 ;   H10S-  C110-   C19-   H9R
  5798   5796   5799   5801      9     0.00   0.62760   3 ;   H10S-  C110-   C19-   H9S
  5798   5796   5799   5802      9     0.00   0.66944   3 ;   H10S-  C110-   C19-   C18
  5799   5802   5805   5806      9     0.00   0.66944   3 ;    C19-   C18-   C17-   H7R
  5799   5802   5805   5807      9     0.00   0.66944   3 ;    C19-   C18-   C17-   H7S
  5799   5802   5805   5808      9     0.00   0.41840   1 ;    C19-   C18-   C17-   C16
  5799   5802   5805   5808      9     0.00   0.41840   2 ;    C19-   C18-   C17-   C16
  5799   5802   5805   5808      9     0.00   0.41840   4 ;    C19-   C18-   C17-   C16
  5799   5802   5805   5808      9     0.00   0.41840   5 ;    C19-   C18-   C17-   C16
  5799   5802   5805   5808      9     0.00   1.25520   3 ;    C19-   C18-   C17-   C16
  5800   5799   5802   5803      9     0.00   0.62760   3 ;    H9R-   C19-   C18-   H8R
  5800   5799   5802   5804      9     0.00   0.62760   3 ;    H9R-   C19-   C18-   H8S
  5800   5799   5802   5805      9     0.00   0.66944   3 ;    H9R-   C19-   C18-   C17
  5801   5799   5802   5803      9     0.00   0.62760   3 ;    H9S-   C19-   C18-   H8R
  5801   5799   5802   5804      9     0.00   0.62760   3 ;    H9S-   C19-   C18-   H8S
  5801   5799   5802   5805      9     0.00   0.66944   3 ;    H9S-   C19-   C18-   C17
  5802   5805   5808   5809      9     0.00   0.66944   3 ;    C18-   C17-   C16-   H6R
  5802   5805   5808   5810      9     0.00   0.66944   3 ;    C18-   C17-   C16-   H6S
  5802   5805   5808   5811      9     0.00   0.41840   1 ;    C18-   C17-   C16-   C15
  5802   5805   5808   5811      9     0.00   0.41840   2 ;    C18-   C17-   C16-   C15
  5802   5805   5808   5811      9     0.00   0.41840   4 ;    C18-   C17-   C16-   C15
  5802   5805   5808   5811      9     0.00   0.41840   5 ;    C18-   C17-   C16-   C15
  5802   5805   5808   5811      9     0.00   1.25520   3 ;    C18-   C17-   C16-   C15
  5803   5802   5805   5806      9     0.00   0.62760   3 ;    H8R-   C18-   C17-   H7R
  5803   5802   5805   5807      9     0.00   0.62760   3 ;    H8R-   C18-   C17-   H7S
  5803   5802   5805   5808      9     0.00   0.66944   3 ;    H8R-   C18-   C17-   C16
  5804   5802   5805   5806      9     0.00   0.62760   3 ;    H8S-   C18-   C17-   H7R
  5804   5802   5805   5807      9     0.00   0.62760   3 ;    H8S-   C18-   C17-   H7S
  5804   5802   5805   5808      9     0.00   0.66944   3 ;    H8S-   C18-   C17-   C16
  5805   5808   5811   5812      9     0.00   0.66944   3 ;    C17-   C16-   C15-   H5R
  5805   5808   5811   5813      9     0.00   0.66944   3 ;    C17-   C16-   C15-   H5S
  5805   5808   5811   5814      9     0.00   0.41840   1 ;    C17-   C16-   C15-   C14
  5805   5808   5811   5814      9     0.00   0.41840   2 ;    C17-   C16-   C15-   C14
  5805   5808   5811   5814      9     0.00   0.41840   4 ;    C17-   C16-   C15-   C14
  5805   5808   5811   5814      9     0.00   0.41840   5 ;    C17-   C16-   C15-   C14
  5805   5808   5811   5814      9     0.00   1.25520   3 ;    C17-   C16-   C15-   C14
  5806   5805   5808   5809      9     0.00   0.62760   3 ;    H7R-   C17-   C16-   H6R
  5806   5805   5808   5810      9     0.00   0.62760   3 ;    H7R-   C17-   C16-   H6S
  5806   5805   5808   5811      9     0.00   0.66944   3 ;    H7R-   C17-   C16-   C15
  5807   5805   5808   5809      9     0.00   0.62760   3 ;    H7S-   C17-   C16-   H6R
  5807   5805   5808   5810      9     0.00   0.62760   3 ;    H7S-   C17-   C16-   H6S
  5807   5805   5808   5811      9     0.00   0.66944   3 ;    H7S-   C17-   C16-   C15
  5808   5811   5814   5815      9     0.00   0.66944   3 ;    C16-   C15-   C14-   H4R
  5808   5811   5814   5816      9     0.00   0.66944   3 ;    C16-   C15-   C14-   H4S
  5808   5811   5814   5817      9     0.00   0.41840   1 ;    C16-   C15-   C14-   C13
  5808   5811   5814   5817      9     0.00   0.41840   2 ;    C16-   C15-   C14-   C13
  5808   5811   5814   5817      9     0.00   0.41840   4 ;    C16-   C15-   C14-   C13
  5808   5811   5814   5817      9     0.00   0.41840   5 ;    C16-   C15-   C14-   C13
  5808   5811   5814   5817      9     0.00   1.25520   3 ;    C16-   C15-   C14-   C13
  5809   5808   5811   5812      9     0.00   0.62760   3 ;    H6R-   C16-   C15-   H5R
  5809   5808   5811   5813      9     0.00   0.62760   3 ;    H6R-   C16-   C15-   H5S
  5809   5808   5811   5814      9     0.00   0.66944   3 ;    H6R-   C16-   C15-   C14
  5810   5808   5811   5812      9     0.00   0.62760   3 ;    H6S-   C16-   C15-   H5R
  5810   5808   5811   5813      9     0.00   0.62760   3 ;    H6S-   C16-   C15-   H5S
  5810   5808   5811   5814      9     0.00   0.66944   3 ;    H6S-   C16-   C15-   C14
  5811   5814   5817   5818      9     0.00   0.66944   3 ;    C15-   C14-   C13-   H3R
  5811   5814   5817   5819      9     0.00   0.66944   3 ;    C15-   C14-   C13-   H3S
  5811   5814   5817   5820      9     0.00   0.41840   1 ;    C15-   C14-   C13-   C12
  5811   5814   5817   5820      9     0.00   0.41840   2 ;    C15-   C14-   C13-   C12
  5811   5814   5817   5820      9     0.00   0.41840   4 ;    C15-   C14-   C13-   C12
  5811   5814   5817   5820      9     0.00   0.41840   5 ;    C15-   C14-   C13-   C12
  5811   5814   5817   5820      9     0.00   1.25520   3 ;    C15-   C14-   C13-   C12
  5812   5811   5814   5815      9     0.00   0.62760   3 ;    H5R-   C15-   C14-   H4R
  5812   5811   5814   5816      9     0.00   0.62760   3 ;    H5R-   C15-   C14-   H4S
  5812   5811   5814   5817      9     0.00   0.66944   3 ;    H5R-   C15-   C14-   C13
  5813   5811   5814   5815      9     0.00   0.62760   3 ;    H5S-   C15-   C14-   H4R
  5813   5811   5814   5816      9     0.00   0.62760   3 ;    H5S-   C15-   C14-   H4S
  5813   5811   5814   5817      9     0.00   0.66944   3 ;    H5S-   C15-   C14-   C13
  5814   5817   5820   5821      9     0.00   0.66944   3 ;    C14-   C13-   C12-   H2R
  5814   5817   5820   5822      9     0.00   0.66944   3 ;    C14-   C13-   C12-   H2S
  5814   5817   5820   5823      9     0.00   0.65270   3 ;    C14-   C13-   C12-   C11
  5815   5814   5817   5818      9     0.00   0.62760   3 ;    H4R-   C14-   C13-   H3R
  5815   5814   5817   5819      9     0.00   0.62760   3 ;    H4R-   C14-   C13-   H3S
  5815   5814   5817   5820      9     0.00   0.66944   3 ;    H4R-   C14-   C13-   C12
  5816   5814   5817   5818      9     0.00   0.62760   3 ;    H4S-   C14-   C13-   H3R
  5816   5814   5817   5819      9     0.00   0.62760   3 ;    H4S-   C14-   C13-   H3S
  5816   5814   5817   5820      9     0.00   0.66944   3 ;    H4S-   C14-   C13-   C12
  5817   5820   5823   5824      9   180.00   0.00000   2 ;    C13-   C12-   C11-   O12
  5817   5820   5823   5825      9   180.00   0.00000   2 ;    C13-   C12-   C11-   O11
  5818   5817   5820   5821      9     0.00   0.62760   3 ;    H3R-   C13-   C12-   H2R
  5818   5817   5820   5822      9     0.00   0.62760   3 ;    H3R-   C13-   C12-   H2S
  5818   5817   5820   5823      9     0.00   0.65270   3 ;    H3R-   C13-   C12-   C11
  5819   5817   5820   5821      9     0.00   0.62760   3 ;    H3S-   C13-   C12-   H2R
  5819   5817   5820   5822      9     0.00   0.62760   3 ;    H3S-   C13-   C12-   H2S
  5819   5817   5820   5823      9     0.00   0.65270   3 ;    H3S-   C13-   C12-   C11
  5820   5823   5825   5826      9   180.00  11.29680   2 ;    C12-   C11-   O11-    C1
  5821   5820   5823   5824      9     0.00   3.34720   1 ;    H2R-   C12-   C11-   O12
  5821   5820   5823   5824      9   180.00   0.33472   3 ;    H2R-   C12-   C11-   O12
  5821   5820   5823   5825      9   180.00   0.00000   2 ;    H2R-   C12-   C11-   O11
  5822   5820   5823   5824      9     0.00   3.34720   1 ;    H2S-   C12-   C11-   O12
  5822   5820   5823   5824      9   180.00   0.33472   3 ;    H2S-   C12-   C11-   O12
  5822   5820   5823   5825      9   180.00   0.00000   2 ;    H2S-   C12-   C11-   O11
  5823   5825   5826   5827      9     0.00   1.60247   3 ;    C11-   O11-    C1-    HR
  5823   5825   5826   5828      9     0.00   1.60247   3 ;    C11-   O11-    C1-    HS
  5823   5825   5826   5829      9     0.00  -0.41840   1 ;    C11-   O11-    C1-    C2
  5824   5823   5825   5826      9   180.00   5.85760   1 ;    O12-   C11-   O11-    C1
  5824   5823   5825   5826      9   180.00  11.29680   2 ;    O12-   C11-   O11-    C1
  5825   5826   5829   5830      9     0.00   0.00000   0 ;    O11-    C1-    C2-    HX
  5825   5826   5829   5830      9     0.00   1.04600   1 ;    O11-    C1-    C2-    HX
  5825   5826   5829   5831      9     0.00   0.00000   0 ;    O11-    C1-    C2-    C3
  5825   5826   5829   5831      9     0.00   0.00000   0 ;    O11-    C1-    C2-    C3
  5825   5826   5829   5831      9     0.00   0.00000   0 ;    O11-    C1-    C2-    C3
  5825   5826   5829   5831      9     0.00   0.00000   0 ;    O11-    C1-    C2-    C3
  5825   5826   5829   5831      9     0.00   0.00000   0 ;    O11-    C1-    C2-    C3
  5825   5826   5829   5858      9     0.00   1.25520   2 ;    O11-    C1-    C2-   O21
  5825   5826   5829   5858      9     0.00   4.18400   3 ;    O11-    C1-    C2-   O21
  5825   5826   5829   5858      9   180.00  -0.41840   1 ;    O11-    C1-    C2-   O21
  5826   5829   5831   5832      9     0.00   0.65270   3 ;     C1-    C2-    C3-    HA
  5826   5829   5831   5833      9     0.00   0.65270   3 ;     C1-    C2-    C3-    HB
  5826   5829   5831   5834      9   180.00   3.34720   1 ;     C1-    C2-    C3-   O31
  5826   5829   5858   5859      9     0.00  -0.41840   1 ;     C1-    C2-   O21-   C21
  5827   5826   5829   5830      9     0.00   0.65270   3 ;     HR-    C1-    C2-    HX
  5827   5826   5829   5831      9     0.00   0.65270   3 ;     HR-    C1-    C2-    C3
  5827   5826   5829   5858      9     0.00   0.00000   0 ;     HR-    C1-    C2-   O21
  5827   5826   5829   5858      9     0.00   1.04600   1 ;     HR-    C1-    C2-   O21
  5828   5826   5829   5830      9     0.00   0.65270   3 ;     HS-    C1-    C2-    HX
  5828   5826   5829   5831      9     0.00   0.65270   3 ;     HS-    C1-    C2-    C3
  5828   5826   5829   5858      9     0.00   0.00000   0 ;     HS-    C1-    C2-   O21
  5828   5826   5829   5858      9     0.00   1.04600   1 ;     HS-    C1-    C2-   O21
  5829   5831   5834   5835      9     0.00   0.00000   0 ;     C2-    C3-   O31-   P31
  5829   5831   5834   5835      9   180.00  -3.34720   2 ;     C2-    C3-   O31-   P31
  5829   5858   5859   5860      9   180.00   5.85760   1 ;     C2-   O21-   C21-   O22
  5829   5858   5859   5860      9   180.00  11.29680   2 ;     C2-   O21-   C21-   O22
  5829   5858   5859   5898      9   180.00  11.29680   2 ;     C2-   O21-   C21-   C12
  5830   5829   5831   5832      9     0.00   0.65270   3 ;     HX-    C2-    C3-    HA
  5830   5829   5831   5833      9     0.00   0.65270   3 ;     HX-    C2-    C3-    HB
  5830   5829   5831   5834      9     0.00   0.00000   0 ;     HX-    C2-    C3-   O31
  5830   5829   5831   5834      9     0.00   1.04600   1 ;     HX-    C2-    C3-   O31
  5830   5829   5858   5859      9     0.00   1.60247   3 ;     HX-    C2-   O21-   C21
  5831   5829   5858   5859      9     0.00  -0.41840   1 ;     C3-    C2-   O21-   C21
  5831   5834   5835   5836      9     0.00   2.51040   3 ;     C3-   O31-   P31-   O32
  5831   5834   5835   5836      9     0.00   9.62320   2 ;     C3-   O31-   P31-   O32
  5831   5834   5835   5856      9     0.00   0.00000   0 ;     C3-   O31-   P31-   O33
  5831   5834   5835   5856      9     0.00   0.00000   0 ;     C3-   O31-   P31-   O33
  5831   5834   5835   5856      9     0.00   0.00000   0 ;     C3-   O31-   P31-   O33
  5831   5834   5835   5856      9     0.00   0.00000   0 ;     C3-   O31-   P31-   O33
  5831   5834   5835   5856      9     0.00   0.83680   2 ;     C3-   O31-   P31-   O33
  5831   5834   5835   5857      9     0.00   0.00000   0 ;     C3-   O31-   P31-   O34
  5831   5834   5835   5857      9     0.00   0.00000   0 ;     C3-   O31-   P31-   O34
  5831   5834   5835   5857      9     0.00   0.00000   0 ;     C3-   O31-   P31-   O34
  5831   5834   5835   5857      9     0.00   0.00000   0 ;     C3-   O31-   P31-   O34
  5831   5834   5835   5857      9     0.00   0.83680   2 ;     C3-   O31-   P31-   O34
  5832   5831   5829   5858      9     0.00   0.00000   0 ;     HA-    C3-    C2-   O21
  5832   5831   5829   5858      9     0.00   1.04600   1 ;     HA-    C3-    C2-   O21
  5832   5831   5834   5835      9     0.00   0.00000   0 ;     HA-    C3-   O31-   P31
  5832   5831   5834   5835      9     0.00   0.00000   0 ;     HA-    C3-   O31-   P31
  5832   5831   5834   5835      9     0.00   0.00000   0 ;     HA-    C3-   O31-   P31
  5832   5831   5834   5835      9     0.00   0.00000   0 ;     HA-    C3-   O31-   P31
  5832   5831   5834   5835      9     0.00   1.60247   3 ;     HA-    C3-   O31-   P31
  5833   5831   5829   5858      9     0.00   0.00000   0 ;     HB-    C3-    C2-   O21
  5833   5831   5829   5858      9     0.00   1.04600   1 ;     HB-    C3-    C2-   O21
  5833   5831   5834   5835      9     0.00   0.00000   0 ;     HB-    C3-   O31-   P31
  5833   5831   5834   5835      9     0.00   0.00000   0 ;     HB-    C3-   O31-   P31
  5833   5831   5834   5835      9     0.00   0.00000   0 ;     HB-    C3-   O31-   P31
  5833   5831   5834   5835      9     0.00   0.00000   0 ;     HB-    C3-   O31-   P31
  5833   5831   5834   5835      9     0.00   1.60247   3 ;     HB-    C3-   O31-   P31
  5834   5831   5829   5858      9     0.00   0.00000   0 ;    O31-    C3-    C2-   O21
  5834   5831   5829   5858      9     0.00   0.00000   0 ;    O31-    C3-    C2-   O21
  5834   5831   5829   5858      9     0.00   0.00000   0 ;    O31-    C3-    C2-   O21
  5834   5831   5829   5858      9     0.00   0.00000   0 ;    O31-    C3-    C2-   O21
  5834   5831   5829   5858      9     0.00   0.00000   0 ;    O31-    C3-    C2-   O21
  5834   5835   5836   5837      9     0.00   2.51040   3 ;    O31-   P31-   O32-   C31
  5834   5835   5836   5837      9     0.00   9.62320   2 ;    O31-   P31-   O32-   C31
  5835   5836   5837   5838      9     0.00   0.00000   0 ;    P31-   O32-   C31-   H1A
  5835   5836   5837   5838      9     0.00   0.00000   0 ;    P31-   O32-   C31-   H1A
  5835   5836   5837   5838      9     0.00   0.00000   0 ;    P31-   O32-   C31-   H1A
  5835   5836   5837   5838      9     0.00   0.00000   0 ;    P31-   O32-   C31-   H1A
  5835   5836   5837   5838      9     0.00   1.60247   3 ;    P31-   O32-   C31-   H1A
  5835   5836   5837   5839      9     0.00   0.00000   0 ;    P31-   O32-   C31-   H1B
  5835   5836   5837   5839      9     0.00   0.00000   0 ;    P31-   O32-   C31-   H1B
  5835   5836   5837   5839      9     0.00   0.00000   0 ;    P31-   O32-   C31-   H1B
  5835   5836   5837   5839      9     0.00   0.00000   0 ;    P31-   O32-   C31-   H1B
  5835   5836   5837   5839      9     0.00   1.60247   3 ;    P31-   O32-   C31-   H1B
  5835   5836   5837   5840      9     0.00   0.00000   0 ;    P31-   O32-   C31-   C32
  5835   5836   5837   5840      9   180.00  -3.34720   2 ;    P31-   O32-   C31-   C32
  5836   5837   5840   5841      9     0.00   0.65270   3 ;    O32-   C31-   C32-   H2A
  5836   5837   5840   5842      9     0.00   0.65270   3 ;    O32-   C31-   C32-   H2B
  5836   5837   5840   5843      9     0.00   4.18400   3 ;    O32-   C31-   C32-   N31
  5837   5836   5835   5856      9     0.00   0.00000   0 ;    C31-   O32-   P31-   O33
  5837   5836   5835   5856      9     0.00   0.00000   0 ;    C31-   O32-   P31-   O33
  5837   5836   5835   5856      9     0.00   0.00000   0 ;    C31-   O32-   P31-   O33
  5837   5836   5835   5856      9     0.00   0.00000   0 ;    C31-   O32-   P31-   O33
  5837   5836   5835   5856      9     0.00   0.83680   2 ;    C31-   O32-   P31-   O33
  5837   5836   5835   5857      9     0.00   0.00000   0 ;    C31-   O32-   P31-   O34
  5837   5836   5835   5857      9     0.00   0.00000   0 ;    C31-   O32-   P31-   O34
  5837   5836   5835   5857      9     0.00   0.00000   0 ;    C31-   O32-   P31-   O34
  5837   5836   5835   5857      9     0.00   0.00000   0 ;    C31-   O32-   P31-   O34
  5837   5836   5835   5857      9     0.00   0.83680   2 ;    C31-   O32-   P31-   O34
  5837   5840   5843   5844      9     0.00   0.65270   3 ;    C31-   C32-   N31-   C33
  5837   5840   5843   5848      9     0.00   0.65270   3 ;    C31-   C32-   N31-   C34
  5837   5840   5843   5852      9     0.00   0.65270   3 ;    C31-   C32-   N31-   C35
  5838   5837   5840   5841      9     0.00   0.65270   3 ;    H1A-   C31-   C32-   H2A
  5838   5837   5840   5842      9     0.00   0.65270   3 ;    H1A-   C31-   C32-   H2B
  5838   5837   5840   5843      9     0.00   0.65270   3 ;    H1A-   C31-   C32-   N31
  5839   5837   5840   5841      9     0.00   0.65270   3 ;    H1B-   C31-   C32-   H2A
  5839   5837   5840   5842      9     0.00   0.65270   3 ;    H1B-   C31-   C32-   H2B
  5839   5837   5840   5843      9     0.00   0.65270   3 ;    H1B-   C31-   C32-   N31
  5840   5843   5844   5845      9     0.00   0.65270   3 ;    C32-   N31-   C33-   H3A
  5840   5843   5844   5846      9     0.00   0.65270   3 ;    C32-   N31-   C33-   H3B
  5840   5843   5844   5847      9     0.00   0.65270   3 ;    C32-   N31-   C33-   H3C
  5840   5843   5848   5849      9     0.00   0.65270   3 ;    C32-   N31-   C34-   H4A
  5840   5843   5848   5850      9     0.00   0.65270   3 ;    C32-   N31-   C34-   H4B
  5840   5843   5848   5851      9     0.00   0.65270   3 ;    C32-   N31-   C34-   H4C
  5840   5843   5852   5853      9     0.00   0.65270   3 ;    C32-   N31-   C35-   H5A
  5840   5843   5852   5854      9     0.00   0.65270   3 ;    C32-   N31-   C35-   H5B
  5840   5843   5852   5855      9     0.00   0.65270   3 ;    C32-   N31-   C35-   H5C
  5841   5840   5843   5844      9     0.00   0.65270   3 ;    H2A-   C32-   N31-   C33
  5841   5840   5843   5848      9     0.00   0.65270   3 ;    H2A-   C32-   N31-   C34
  5841   5840   5843   5852      9     0.00   0.65270   3 ;    H2A-   C32-   N31-   C35
  5842   5840   5843   5844      9     0.00   0.65270   3 ;    H2B-   C32-   N31-   C33
  5842   5840   5843   5848      9     0.00   0.65270   3 ;    H2B-   C32-   N31-   C34
  5842   5840   5843   5852      9     0.00   0.65270   3 ;    H2B-   C32-   N31-   C35
  5844   5843   5848   5849      9     0.00   0.65270   3 ;    C33-   N31-   C34-   H4A
  5844   5843   5848   5850      9     0.00   0.65270   3 ;    C33-   N31-   C34-   H4B
  5844   5843   5848   5851      9     0.00   0.65270   3 ;    C33-   N31-   C34-   H4C
  5844   5843   5852   5853      9     0.00   0.65270   3 ;    C33-   N31-   C35-   H5A
  5844   5843   5852   5854      9     0.00   0.65270   3 ;    C33-   N31-   C35-   H5B
  5844   5843   5852   5855      9     0.00   0.65270   3 ;    C33-   N31-   C35-   H5C
  5845   5844   5843   5848      9     0.00   0.65270   3 ;    H3A-   C33-   N31-   C34
  5845   5844   5843   5852      9     0.00   0.65270   3 ;    H3A-   C33-   N31-   C35
  5846   5844   5843   5848      9     0.00   0.65270   3 ;    H3B-   C33-   N31-   C34
  5846   5844   5843   5852      9     0.00   0.65270   3 ;    H3B-   C33-   N31-   C35
  5847   5844   5843   5848      9     0.00   0.65270   3 ;    H3C-   C33-   N31-   C34
  5847   5844   5843   5852      9     0.00   0.65270   3 ;    H3C-   C33-   N31-   C35
  5848   5843   5852   5853      9     0.00   0.65270   3 ;    C34-   N31-   C35-   H5A
  5848   5843   5852   5854      9     0.00   0.65270   3 ;    C34-   N31-   C35-   H5B
  5848   5843   5852   5855      9     0.00   0.65270   3 ;    C34-   N31-   C35-   H5C
  5849   5848   5843   5852      9     0.00   0.65270   3 ;    H4A-   C34-   N31-   C35
  5850   5848   5843   5852      9     0.00   0.65270   3 ;    H4B-   C34-   N31-   C35
  5851   5848   5843   5852      9     0.00   0.65270   3 ;    H4C-   C34-   N31-   C35
  5858   5859   5898   5895      9   180.00   0.00000   2 ;    O21-   C21-   C12-   C13
  5858   5859   5898   5899      9   180.00   0.00000   2 ;    O21-   C21-   C12-   H2R
  5858   5859   5898   5900      9   180.00   0.00000   2 ;    O21-   C21-   C12-   H2S
  5859   5898   5895   5892      9     0.00   0.65270   3 ;    C21-   C12-   C13-   C14
  5859   5898   5895   5896      9     0.00   0.65270   3 ;    C21-   C12-   C13-   H3R
  5859   5898   5895   5897      9     0.00   0.65270   3 ;    C21-   C12-   C13-   H3S
  5860   5859   5898   5895      9   180.00   0.00000   2 ;    O22-   C21-   C12-   C13
  5860   5859   5898   5899      9     0.00   3.34720   1 ;    O22-   C21-   C12-   H2R
  5860   5859   5898   5899      9   180.00   0.33472   3 ;    O22-   C21-   C12-   H2R
  5860   5859   5898   5900      9     0.00   3.34720   1 ;    O22-   C21-   C12-   H2S
  5860   5859   5898   5900      9   180.00   0.33472   3 ;    O22-   C21-   C12-   H2S
  5861   5862   5865   5866      9     0.00   0.62760   3 ;   H14T-  C114-  C113-  H13R
  5861   5862   5865   5867      9     0.00   0.62760   3 ;   H14T-  C114-  C113-  H13S
  5861   5862   5865   5868      9     0.00   0.66944   3 ;   H14T-  C114-  C113-  C112
  5862   5865   5868   5869      9     0.00   0.66944   3 ;   C114-  C113-  C112-  H12R
  5862   5865   5868   5870      9     0.00   0.66944   3 ;   C114-  C113-  C112-  H12S
  5862   5865   5868   5871      9     0.00   0.41840   1 ;   C114-  C113-  C112-  C111
  5862   5865   5868   5871      9     0.00   0.41840   2 ;   C114-  C113-  C112-  C111
  5862   5865   5868   5871      9     0.00   0.41840   4 ;   C114-  C113-  C112-  C111
  5862   5865   5868   5871      9     0.00   0.41840   5 ;   C114-  C113-  C112-  C111
  5862   5865   5868   5871      9     0.00   1.25520   3 ;   C114-  C113-  C112-  C111
  5863   5862   5865   5866      9     0.00   0.62760   3 ;   H14R-  C114-  C113-  H13R
  5863   5862   5865   5867      9     0.00   0.62760   3 ;   H14R-  C114-  C113-  H13S
  5863   5862   5865   5868      9     0.00   0.66944   3 ;   H14R-  C114-  C113-  C112
  5864   5862   5865   5866      9     0.00   0.62760   3 ;   H14S-  C114-  C113-  H13R
  5864   5862   5865   5867      9     0.00   0.62760   3 ;   H14S-  C114-  C113-  H13S
  5864   5862   5865   5868      9     0.00   0.66944   3 ;   H14S-  C114-  C113-  C112
  5865   5868   5871   5872      9     0.00   0.66944   3 ;   C113-  C112-  C111-  H11R
  5865   5868   5871   5873      9     0.00   0.66944   3 ;   C113-  C112-  C111-  H11S
  5865   5868   5871   5874      9     0.00   0.41840   1 ;   C113-  C112-  C111-  C110
  5865   5868   5871   5874      9     0.00   0.41840   2 ;   C113-  C112-  C111-  C110
  5865   5868   5871   5874      9     0.00   0.41840   4 ;   C113-  C112-  C111-  C110
  5865   5868   5871   5874      9     0.00   0.41840   5 ;   C113-  C112-  C111-  C110
  5865   5868   5871   5874      9     0.00   1.25520   3 ;   C113-  C112-  C111-  C110
  5866   5865   5868   5869      9     0.00   0.62760   3 ;   H13R-  C113-  C112-  H12R
  5866   5865   5868   5870      9     0.00   0.62760   3 ;   H13R-  C113-  C112-  H12S
  5866   5865   5868   5871      9     0.00   0.66944   3 ;   H13R-  C113-  C112-  C111
  5867   5865   5868   5869      9     0.00   0.62760   3 ;   H13S-  C113-  C112-  H12R
  5867   5865   5868   5870      9     0.00   0.62760   3 ;   H13S-  C113-  C112-  H12S
  5867   5865   5868   5871      9     0.00   0.66944   3 ;   H13S-  C113-  C112-  C111
  5868   5871   5874   5875      9     0.00   0.66944   3 ;   C112-  C111-  C110-  H10R
  5868   5871   5874   5876      9     0.00   0.66944   3 ;   C112-  C111-  C110-  H10S
  5868   5871   5874   5877      9     0.00   0.41840   1 ;   C112-  C111-  C110-   C19
  5868   5871   5874   5877      9     0.00   0.41840   2 ;   C112-  C111-  C110-   C19
  5868   5871   5874   5877      9     0.00   0.41840   4 ;   C112-  C111-  C110-   C19
  5868   5871   5874   5877      9     0.00   0.41840   5 ;   C112-  C111-  C110-   C19
  5868   5871   5874   5877      9     0.00   1.25520   3 ;   C112-  C111-  C110-   C19
  5869   5868   5871   5872      9     0.00   0.62760   3 ;   H12R-  C112-  C111-  H11R
  5869   5868   5871   5873      9     0.00   0.62760   3 ;   H12R-  C112-  C111-  H11S
  5869   5868   5871   5874      9     0.00   0.66944   3 ;   H12R-  C112-  C111-  C110
  5870   5868   5871   5872      9     0.00   0.62760   3 ;   H12S-  C112-  C111-  H11R
  5870   5868   5871   5873      9     0.00   0.62760   3 ;   H12S-  C112-  C111-  H11S
  5870   5868   5871   5874      9     0.00   0.66944   3 ;   H12S-  C112-  C111-  C110
  5871   5874   5877   5878      9     0.00   0.66944   3 ;   C111-  C110-   C19-   H9R
  5871   5874   5877   5879      9     0.00   0.66944   3 ;   C111-  C110-   C19-   H9S
  5871   5874   5877   5880      9     0.00   0.41840   1 ;   C111-  C110-   C19-   C18
  5871   5874   5877   5880      9     0.00   0.41840   2 ;   C111-  C110-   C19-   C18
  5871   5874   5877   5880      9     0.00   0.41840   4 ;   C111-  C110-   C19-   C18
  5871   5874   5877   5880      9     0.00   0.41840   5 ;   C111-  C110-   C19-   C18
  5871   5874   5877   5880      9     0.00   1.25520   3 ;   C111-  C110-   C19-   C18
  5872   5871   5874   5875      9     0.00   0.62760   3 ;   H11R-  C111-  C110-  H10R
  5872   5871   5874   5876      9     0.00   0.62760   3 ;   H11R-  C111-  C110-  H10S
  5872   5871   5874   5877      9     0.00   0.66944   3 ;   H11R-  C111-  C110-   C19
  5873   5871   5874   5875      9     0.00   0.62760   3 ;   H11S-  C111-  C110-  H10R
  5873   5871   5874   5876      9     0.00   0.62760   3 ;   H11S-  C111-  C110-  H10S
  5873   5871   5874   5877      9     0.00   0.66944   3 ;   H11S-  C111-  C110-   C19
  5874   5877   5880   5881      9     0.00   0.66944   3 ;   C110-   C19-   C18-   H8R
  5874   5877   5880   5882      9     0.00   0.66944   3 ;   C110-   C19-   C18-   H8S
  5874   5877   5880   5883      9     0.00   0.41840   1 ;   C110-   C19-   C18-   C17
  5874   5877   5880   5883      9     0.00   0.41840   2 ;   C110-   C19-   C18-   C17
  5874   5877   5880   5883      9     0.00   0.41840   4 ;   C110-   C19-   C18-   C17
  5874   5877   5880   5883      9     0.00   0.41840   5 ;   C110-   C19-   C18-   C17
  5874   5877   5880   5883      9     0.00   1.25520   3 ;   C110-   C19-   C18-   C17
  5875   5874   5877   5878      9     0.00   0.62760   3 ;   H10R-  C110-   C19-   H9R
  5875   5874   5877   5879      9     0.00   0.62760   3 ;   H10R-  C110-   C19-   H9S
  5875   5874   5877   5880      9     0.00   0.66944   3 ;   H10R-  C110-   C19-   C18
  5876   5874   5877   5878      9     0.00   0.62760   3 ;   H10S-  C110-   C19-   H9R
  5876   5874   5877   5879      9     0.00   0.62760   3 ;   H10S-  C110-   C19-   H9S
  5876   5874   5877   5880      9     0.00   0.66944   3 ;   H10S-  C110-   C19-   C18
  5877   5880   5883   5884      9     0.00   0.66944   3 ;    C19-   C18-   C17-   H7R
  5877   5880   5883   5885      9     0.00   0.66944   3 ;    C19-   C18-   C17-   H7S
  5877   5880   5883   5886      9     0.00   0.41840   1 ;    C19-   C18-   C17-   C16
  5877   5880   5883   5886      9     0.00   0.41840   2 ;    C19-   C18-   C17-   C16
  5877   5880   5883   5886      9     0.00   0.41840   4 ;    C19-   C18-   C17-   C16
  5877   5880   5883   5886      9     0.00   0.41840   5 ;    C19-   C18-   C17-   C16
  5877   5880   5883   5886      9     0.00   1.25520   3 ;    C19-   C18-   C17-   C16
  5878   5877   5880   5881      9     0.00   0.62760   3 ;    H9R-   C19-   C18-   H8R
  5878   5877   5880   5882      9     0.00   0.62760   3 ;    H9R-   C19-   C18-   H8S
  5878   5877   5880   5883      9     0.00   0.66944   3 ;    H9R-   C19-   C18-   C17
  5879   5877   5880   5881      9     0.00   0.62760   3 ;    H9S-   C19-   C18-   H8R
  5879   5877   5880   5882      9     0.00   0.62760   3 ;    H9S-   C19-   C18-   H8S
  5879   5877   5880   5883      9     0.00   0.66944   3 ;    H9S-   C19-   C18-   C17
  5880   5883   5886   5887      9     0.00   0.66944   3 ;    C18-   C17-   C16-   H6R
  5880   5883   5886   5888      9     0.00   0.66944   3 ;    C18-   C17-   C16-   H6S
  5880   5883   5886   5889      9     0.00   0.41840   1 ;    C18-   C17-   C16-   C15
  5880   5883   5886   5889      9     0.00   0.41840   2 ;    C18-   C17-   C16-   C15
  5880   5883   5886   5889      9     0.00   0.41840   4 ;    C18-   C17-   C16-   C15
  5880   5883   5886   5889      9     0.00   0.41840   5 ;    C18-   C17-   C16-   C15
  5880   5883   5886   5889      9     0.00   1.25520   3 ;    C18-   C17-   C16-   C15
  5881   5880   5883   5884      9     0.00   0.62760   3 ;    H8R-   C18-   C17-   H7R
  5881   5880   5883   5885      9     0.00   0.62760   3 ;    H8R-   C18-   C17-   H7S
  5881   5880   5883   5886      9     0.00   0.66944   3 ;    H8R-   C18-   C17-   C16
  5882   5880   5883   5884      9     0.00   0.62760   3 ;    H8S-   C18-   C17-   H7R
  5882   5880   5883   5885      9     0.00   0.62760   3 ;    H8S-   C18-   C17-   H7S
  5882   5880   5883   5886      9     0.00   0.66944   3 ;    H8S-   C18-   C17-   C16
  5883   5886   5889   5890      9     0.00   0.66944   3 ;    C17-   C16-   C15-   H5R
  5883   5886   5889   5891      9     0.00   0.66944   3 ;    C17-   C16-   C15-   H5S
  5883   5886   5889   5892      9     0.00   0.41840   1 ;    C17-   C16-   C15-   C14
  5883   5886   5889   5892      9     0.00   0.41840   2 ;    C17-   C16-   C15-   C14
  5883   5886   5889   5892      9     0.00   0.41840   4 ;    C17-   C16-   C15-   C14
  5883   5886   5889   5892      9     0.00   0.41840   5 ;    C17-   C16-   C15-   C14
  5883   5886   5889   5892      9     0.00   1.25520   3 ;    C17-   C16-   C15-   C14
  5884   5883   5886   5887      9     0.00   0.62760   3 ;    H7R-   C17-   C16-   H6R
  5884   5883   5886   5888      9     0.00   0.62760   3 ;    H7R-   C17-   C16-   H6S
  5884   5883   5886   5889      9     0.00   0.66944   3 ;    H7R-   C17-   C16-   C15
  5885   5883   5886   5887      9     0.00   0.62760   3 ;    H7S-   C17-   C16-   H6R
  5885   5883   5886   5888      9     0.00   0.62760   3 ;    H7S-   C17-   C16-   H6S
  5885   5883   5886   5889      9     0.00   0.66944   3 ;    H7S-   C17-   C16-   C15
  5886   5889   5892   5893      9     0.00   0.66944   3 ;    C16-   C15-   C14-   H4R
  5886   5889   5892   5894      9     0.00   0.66944   3 ;    C16-   C15-   C14-   H4S
  5886   5889   5892   5895      9     0.00   0.41840   1 ;    C16-   C15-   C14-   C13
  5886   5889   5892   5895      9     0.00   0.41840   2 ;    C16-   C15-   C14-   C13
  5886   5889   5892   5895      9     0.00   0.41840   4 ;    C16-   C15-   C14-   C13
  5886   5889   5892   5895      9     0.00   0.41840   5 ;    C16-   C15-   C14-   C13
  5886   5889   5892   5895      9     0.00   1.25520   3 ;    C16-   C15-   C14-   C13
  5887   5886   5889   5890      9     0.00   0.62760   3 ;    H6R-   C16-   C15-   H5R
  5887   5886   5889   5891      9     0.00   0.62760   3 ;    H6R-   C16-   C15-   H5S
  5887   5886   5889   5892      9     0.00   0.66944   3 ;    H6R-   C16-   C15-   C14
  5888   5886   5889   5890      9     0.00   0.62760   3 ;    H6S-   C16-   C15-   H5R
  5888   5886   5889   5891      9     0.00   0.62760   3 ;    H6S-   C16-   C15-   H5S
  5888   5886   5889   5892      9     0.00   0.66944   3 ;    H6S-   C16-   C15-   C14
  5889   5892   5895   5896      9     0.00   0.66944   3 ;    C15-   C14-   C13-   H3R
  5889   5892   5895   5897      9     0.00   0.66944   3 ;    C15-   C14-   C13-   H3S
  5889   5892   5895   5898      9     0.00   0.41840   1 ;    C15-   C14-   C13-   C12
  5889   5892   5895   5898      9     0.00   0.41840   2 ;    C15-   C14-   C13-   C12
  5889   5892   5895   5898      9     0.00   0.41840   4 ;    C15-   C14-   C13-   C12
  5889   5892   5895   5898      9     0.00   0.41840   5 ;    C15-   C14-   C13-   C12
  5889   5892   5895   5898      9     0.00   1.25520   3 ;    C15-   C14-   C13-   C12
  5890   5889   5892   5893      9     0.00   0.62760   3 ;    H5R-   C15-   C14-   H4R
  5890   5889   5892   5894      9     0.00   0.62760   3 ;    H5R-   C15-   C14-   H4S
  5890   5889   5892   5895      9     0.00   0.66944   3 ;    H5R-   C15-   C14-   C13
  5891   5889   5892   5893      9     0.00   0.62760   3 ;    H5S-   C15-   C14-   H4R
  5891   5889   5892   5894      9     0.00   0.62760   3 ;    H5S-   C15-   C14-   H4S
  5891   5889   5892   5895      9     0.00   0.66944   3 ;    H5S-   C15-   C14-   C13
  5892   5895   5898   5899      9     0.00   0.66944   3 ;    C14-   C13-   C12-   H2R
  5892   5895   5898   5900      9     0.00   0.66944   3 ;    C14-   C13-   C12-   H2S
  5893   5892   5895   5896      9     0.00   0.62760   3 ;    H4R-   C14-   C13-   H3R
  5893   5892   5895   5897      9     0.00   0.62760   3 ;    H4R-   C14-   C13-   H3S
  5893   5892   5895   5898      9     0.00   0.66944   3 ;    H4R-   C14-   C13-   C12
  5894   5892   5895   5896      9     0.00   0.62760   3 ;    H4S-   C14-   C13-   H3R
  5894   5892   5895   5897      9     0.00   0.62760   3 ;    H4S-   C14-   C13-   H3S
  5894   5892   5895   5898      9     0.00   0.66944   3 ;    H4S-   C14-   C13-   C12
  5896   5895   5898   5899      9     0.00   0.62760   3 ;    H3R-   C13-   C12-   H2R
  5896   5895   5898   5900      9     0.00   0.62760   3 ;    H3R-   C13-   C12-   H2S
  5897   5895   5898   5899      9     0.00   0.62760   3 ;    H3S-   C13-   C12-   H2R
  5897   5895   5898   5900      9     0.00   0.62760   3 ;    H3S-   C13-   C12-   H2S
  5901   5902   5905   5906      9     0.00   0.62760   3 ;   H14T-  C114-  C113-  H13R
  5901   5902   5905   5907      9     0.00   0.62760   3 ;   H14T-  C114-  C113-  H13S
  5901   5902   5905   5908      9     0.00   0.66944   3 ;   H14T-  C114-  C113-  C112
  5902   5905   5908   5909      9     0.00   0.66944   3 ;   C114-  C113-  C112-  H12R
  5902   5905   5908   5910      9     0.00   0.66944   3 ;   C114-  C113-  C112-  H12S
  5902   5905   5908   5911      9     0.00   0.41840   1 ;   C114-  C113-  C112-  C111
  5902   5905   5908   5911      9     0.00   0.41840   2 ;   C114-  C113-  C112-  C111
  5902   5905   5908   5911      9     0.00   0.41840   4 ;   C114-  C113-  C112-  C111
  5902   5905   5908   5911      9     0.00   0.41840   5 ;   C114-  C113-  C112-  C111
  5902   5905   5908   5911      9     0.00   1.25520   3 ;   C114-  C113-  C112-  C111
  5903   5902   5905   5906      9     0.00   0.62760   3 ;   H14R-  C114-  C113-  H13R
  5903   5902   5905   5907      9     0.00   0.62760   3 ;   H14R-  C114-  C113-  H13S
  5903   5902   5905   5908      9     0.00   0.66944   3 ;   H14R-  C114-  C113-  C112
  5904   5902   5905   5906      9     0.00   0.62760   3 ;   H14S-  C114-  C113-  H13R
  5904   5902   5905   5907      9     0.00   0.62760   3 ;   H14S-  C114-  C113-  H13S
  5904   5902   5905   5908      9     0.00   0.66944   3 ;   H14S-  C114-  C113-  C112
  5905   5908   5911   5912      9     0.00   0.66944   3 ;   C113-  C112-  C111-  H11R
  5905   5908   5911   5913      9     0.00   0.66944   3 ;   C113-  C112-  C111-  H11S
  5905   5908   5911   5914      9     0.00   0.41840   1 ;   C113-  C112-  C111-  C110
  5905   5908   5911   5914      9     0.00   0.41840   2 ;   C113-  C112-  C111-  C110
  5905   5908   5911   5914      9     0.00   0.41840   4 ;   C113-  C112-  C111-  C110
  5905   5908   5911   5914      9     0.00   0.41840   5 ;   C113-  C112-  C111-  C110
  5905   5908   5911   5914      9     0.00   1.25520   3 ;   C113-  C112-  C111-  C110
  5906   5905   5908   5909      9     0.00   0.62760   3 ;   H13R-  C113-  C112-  H12R
  5906   5905   5908   5910      9     0.00   0.62760   3 ;   H13R-  C113-  C112-  H12S
  5906   5905   5908   5911      9     0.00   0.66944   3 ;   H13R-  C113-  C112-  C111
  5907   5905   5908   5909      9     0.00   0.62760   3 ;   H13S-  C113-  C112-  H12R
  5907   5905   5908   5910      9     0.00   0.62760   3 ;   H13S-  C113-  C112-  H12S
  5907   5905   5908   5911      9     0.00   0.66944   3 ;   H13S-  C113-  C112-  C111
  5908   5911   5914   5915      9     0.00   0.66944   3 ;   C112-  C111-  C110-  H10R
  5908   5911   5914   5916      9     0.00   0.66944   3 ;   C112-  C111-  C110-  H10S
  5908   5911   5914   5917      9     0.00   0.41840   1 ;   C112-  C111-  C110-   C19
  5908   5911   5914   5917      9     0.00   0.41840   2 ;   C112-  C111-  C110-   C19
  5908   5911   5914   5917      9     0.00   0.41840   4 ;   C112-  C111-  C110-   C19
  5908   5911   5914   5917      9     0.00   0.41840   5 ;   C112-  C111-  C110-   C19
  5908   5911   5914   5917      9     0.00   1.25520   3 ;   C112-  C111-  C110-   C19
  5909   5908   5911   5912      9     0.00   0.62760   3 ;   H12R-  C112-  C111-  H11R
  5909   5908   5911   5913      9     0.00   0.62760   3 ;   H12R-  C112-  C111-  H11S
  5909   5908   5911   5914      9     0.00   0.66944   3 ;   H12R-  C112-  C111-  C110
  5910   5908   5911   5912      9     0.00   0.62760   3 ;   H12S-  C112-  C111-  H11R
  5910   5908   5911   5913      9     0.00   0.62760   3 ;   H12S-  C112-  C111-  H11S
  5910   5908   5911   5914      9     0.00   0.66944   3 ;   H12S-  C112-  C111-  C110
  5911   5914   5917   5918      9     0.00   0.66944   3 ;   C111-  C110-   C19-   H9R
  5911   5914   5917   5919      9     0.00   0.66944   3 ;   C111-  C110-   C19-   H9S
  5911   5914   5917   5920      9     0.00   0.41840   1 ;   C111-  C110-   C19-   C18
  5911   5914   5917   5920      9     0.00   0.41840   2 ;   C111-  C110-   C19-   C18
  5911   5914   5917   5920      9     0.00   0.41840   4 ;   C111-  C110-   C19-   C18
  5911   5914   5917   5920      9     0.00   0.41840   5 ;   C111-  C110-   C19-   C18
  5911   5914   5917   5920      9     0.00   1.25520   3 ;   C111-  C110-   C19-   C18
  5912   5911   5914   5915      9     0.00   0.62760   3 ;   H11R-  C111-  C110-  H10R
  5912   5911   5914   5916      9     0.00   0.62760   3 ;   H11R-  C111-  C110-  H10S
  5912   5911   5914   5917      9     0.00   0.66944   3 ;   H11R-  C111-  C110-   C19
  5913   5911   5914   5915      9     0.00   0.62760   3 ;   H11S-  C111-  C110-  H10R
  5913   5911   5914   5916      9     0.00   0.62760   3 ;   H11S-  C111-  C110-  H10S
  5913   5911   5914   5917      9     0.00   0.66944   3 ;   H11S-  C111-  C110-   C19
  5914   5917   5920   5921      9     0.00   0.66944   3 ;   C110-   C19-   C18-   H8R
  5914   5917   5920   5922      9     0.00   0.66944   3 ;   C110-   C19-   C18-   H8S
  5914   5917   5920   5923      9     0.00   0.41840   1 ;   C110-   C19-   C18-   C17
  5914   5917   5920   5923      9     0.00   0.41840   2 ;   C110-   C19-   C18-   C17
  5914   5917   5920   5923      9     0.00   0.41840   4 ;   C110-   C19-   C18-   C17
  5914   5917   5920   5923      9     0.00   0.41840   5 ;   C110-   C19-   C18-   C17
  5914   5917   5920   5923      9     0.00   1.25520   3 ;   C110-   C19-   C18-   C17
  5915   5914   5917   5918      9     0.00   0.62760   3 ;   H10R-  C110-   C19-   H9R
  5915   5914   5917   5919      9     0.00   0.62760   3 ;   H10R-  C110-   C19-   H9S
  5915   5914   5917   5920      9     0.00   0.66944   3 ;   H10R-  C110-   C19-   C18
  5916   5914   5917   5918      9     0.00   0.62760   3 ;   H10S-  C110-   C19-   H9R
  5916   5914   5917   5919      9     0.00   0.62760   3 ;   H10S-  C110-   C19-   H9S
  5916   5914   5917   5920      9     0.00   0.66944   3 ;   H10S-  C110-   C19-   C18
  5917   5920   5923   5924      9     0.00   0.66944   3 ;    C19-   C18-   C17-   H7R
  5917   5920   5923   5925      9     0.00   0.66944   3 ;    C19-   C18-   C17-   H7S
  5917   5920   5923   5926      9     0.00   0.41840   1 ;    C19-   C18-   C17-   C16
  5917   5920   5923   5926      9     0.00   0.41840   2 ;    C19-   C18-   C17-   C16
  5917   5920   5923   5926      9     0.00   0.41840   4 ;    C19-   C18-   C17-   C16
  5917   5920   5923   5926      9     0.00   0.41840   5 ;    C19-   C18-   C17-   C16
  5917   5920   5923   5926      9     0.00   1.25520   3 ;    C19-   C18-   C17-   C16
  5918   5917   5920   5921      9     0.00   0.62760   3 ;    H9R-   C19-   C18-   H8R
  5918   5917   5920   5922      9     0.00   0.62760   3 ;    H9R-   C19-   C18-   H8S
  5918   5917   5920   5923      9     0.00   0.66944   3 ;    H9R-   C19-   C18-   C17
  5919   5917   5920   5921      9     0.00   0.62760   3 ;    H9S-   C19-   C18-   H8R
  5919   5917   5920   5922      9     0.00   0.62760   3 ;    H9S-   C19-   C18-   H8S
  5919   5917   5920   5923      9     0.00   0.66944   3 ;    H9S-   C19-   C18-   C17
  5920   5923   5926   5927      9     0.00   0.66944   3 ;    C18-   C17-   C16-   H6R
  5920   5923   5926   5928      9     0.00   0.66944   3 ;    C18-   C17-   C16-   H6S
  5920   5923   5926   5929      9     0.00   0.41840   1 ;    C18-   C17-   C16-   C15
  5920   5923   5926   5929      9     0.00   0.41840   2 ;    C18-   C17-   C16-   C15
  5920   5923   5926   5929      9     0.00   0.41840   4 ;    C18-   C17-   C16-   C15
  5920   5923   5926   5929      9     0.00   0.41840   5 ;    C18-   C17-   C16-   C15
  5920   5923   5926   5929      9     0.00   1.25520   3 ;    C18-   C17-   C16-   C15
  5921   5920   5923   5924      9     0.00   0.62760   3 ;    H8R-   C18-   C17-   H7R
  5921   5920   5923   5925      9     0.00   0.62760   3 ;    H8R-   C18-   C17-   H7S
  5921   5920   5923   5926      9     0.00   0.66944   3 ;    H8R-   C18-   C17-   C16
  5922   5920   5923   5924      9     0.00   0.62760   3 ;    H8S-   C18-   C17-   H7R
  5922   5920   5923   5925      9     0.00   0.62760   3 ;    H8S-   C18-   C17-   H7S
  5922   5920   5923   5926      9     0.00   0.66944   3 ;    H8S-   C18-   C17-   C16
  5923   5926   5929   5930      9     0.00   0.66944   3 ;    C17-   C16-   C15-   H5R
  5923   5926   5929   5931      9     0.00   0.66944   3 ;    C17-   C16-   C15-   H5S
  5923   5926   5929   5932      9     0.00   0.41840   1 ;    C17-   C16-   C15-   C14
  5923   5926   5929   5932      9     0.00   0.41840   2 ;    C17-   C16-   C15-   C14
  5923   5926   5929   5932      9     0.00   0.41840   4 ;    C17-   C16-   C15-   C14
  5923   5926   5929   5932      9     0.00   0.41840   5 ;    C17-   C16-   C15-   C14
  5923   5926   5929   5932      9     0.00   1.25520   3 ;    C17-   C16-   C15-   C14
  5924   5923   5926   5927      9     0.00   0.62760   3 ;    H7R-   C17-   C16-   H6R
  5924   5923   5926   5928      9     0.00   0.62760   3 ;    H7R-   C17-   C16-   H6S
  5924   5923   5926   5929      9     0.00   0.66944   3 ;    H7R-   C17-   C16-   C15
  5925   5923   5926   5927      9     0.00   0.62760   3 ;    H7S-   C17-   C16-   H6R
  5925   5923   5926   5928      9     0.00   0.62760   3 ;    H7S-   C17-   C16-   H6S
  5925   5923   5926   5929      9     0.00   0.66944   3 ;    H7S-   C17-   C16-   C15
  5926   5929   5932   5933      9     0.00   0.66944   3 ;    C16-   C15-   C14-   H4R
  5926   5929   5932   5934      9     0.00   0.66944   3 ;    C16-   C15-   C14-   H4S
  5926   5929   5932   5935      9     0.00   0.41840   1 ;    C16-   C15-   C14-   C13
  5926   5929   5932   5935      9     0.00   0.41840   2 ;    C16-   C15-   C14-   C13
  5926   5929   5932   5935      9     0.00   0.41840   4 ;    C16-   C15-   C14-   C13
  5926   5929   5932   5935      9     0.00   0.41840   5 ;    C16-   C15-   C14-   C13
  5926   5929   5932   5935      9     0.00   1.25520   3 ;    C16-   C15-   C14-   C13
  5927   5926   5929   5930      9     0.00   0.62760   3 ;    H6R-   C16-   C15-   H5R
  5927   5926   5929   5931      9     0.00   0.62760   3 ;    H6R-   C16-   C15-   H5S
  5927   5926   5929   5932      9     0.00   0.66944   3 ;    H6R-   C16-   C15-   C14
  5928   5926   5929   5930      9     0.00   0.62760   3 ;    H6S-   C16-   C15-   H5R
  5928   5926   5929   5931      9     0.00   0.62760   3 ;    H6S-   C16-   C15-   H5S
  5928   5926   5929   5932      9     0.00   0.66944   3 ;    H6S-   C16-   C15-   C14
  5929   5932   5935   5936      9     0.00   0.66944   3 ;    C15-   C14-   C13-   H3R
  5929   5932   5935   5937      9     0.00   0.66944   3 ;    C15-   C14-   C13-   H3S
  5929   5932   5935   5938      9     0.00   0.41840   1 ;    C15-   C14-   C13-   C12
  5929   5932   5935   5938      9     0.00   0.41840   2 ;    C15-   C14-   C13-   C12
  5929   5932   5935   5938      9     0.00   0.41840   4 ;    C15-   C14-   C13-   C12
  5929   5932   5935   5938      9     0.00   0.41840   5 ;    C15-   C14-   C13-   C12
  5929   5932   5935   5938      9     0.00   1.25520   3 ;    C15-   C14-   C13-   C12
  5930   5929   5932   5933      9     0.00   0.62760   3 ;    H5R-   C15-   C14-   H4R
  5930   5929   5932   5934      9     0.00   0.62760   3 ;    H5R-   C15-   C14-   H4S
  5930   5929   5932   5935      9     0.00   0.66944   3 ;    H5R-   C15-   C14-   C13
  5931   5929   5932   5933      9     0.00   0.62760   3 ;    H5S-   C15-   C14-   H4R
  5931   5929   5932   5934      9     0.00   0.62760   3 ;    H5S-   C15-   C14-   H4S
  5931   5929   5932   5935      9     0.00   0.66944   3 ;    H5S-   C15-   C14-   C13
  5932   5935   5938   5939      9     0.00   0.66944   3 ;    C14-   C13-   C12-   H2R
  5932   5935   5938   5940      9     0.00   0.66944   3 ;    C14-   C13-   C12-   H2S
  5932   5935   5938   5941      9     0.00   0.65270   3 ;    C14-   C13-   C12-   C11
  5933   5932   5935   5936      9     0.00   0.62760   3 ;    H4R-   C14-   C13-   H3R
  5933   5932   5935   5937      9     0.00   0.62760   3 ;    H4R-   C14-   C13-   H3S
  5933   5932   5935   5938      9     0.00   0.66944   3 ;    H4R-   C14-   C13-   C12
  5934   5932   5935   5936      9     0.00   0.62760   3 ;    H4S-   C14-   C13-   H3R
  5934   5932   5935   5937      9     0.00   0.62760   3 ;    H4S-   C14-   C13-   H3S
  5934   5932   5935   5938      9     0.00   0.66944   3 ;    H4S-   C14-   C13-   C12
  5935   5938   5941   5942      9   180.00   0.00000   2 ;    C13-   C12-   C11-   O12
  5935   5938   5941   5943      9   180.00   0.00000   2 ;    C13-   C12-   C11-   O11
  5936   5935   5938   5939      9     0.00   0.62760   3 ;    H3R-   C13-   C12-   H2R
  5936   5935   5938   5940      9     0.00   0.62760   3 ;    H3R-   C13-   C12-   H2S
  5936   5935   5938   5941      9     0.00   0.65270   3 ;    H3R-   C13-   C12-   C11
  5937   5935   5938   5939      9     0.00   0.62760   3 ;    H3S-   C13-   C12-   H2R
  5937   5935   5938   5940      9     0.00   0.62760   3 ;    H3S-   C13-   C12-   H2S
  5937   5935   5938   5941      9     0.00   0.65270   3 ;    H3S-   C13-   C12-   C11
  5938   5941   5943   5944      9   180.00  11.29680   2 ;    C12-   C11-   O11-    C1
  5939   5938   5941   5942      9     0.00   3.34720   1 ;    H2R-   C12-   C11-   O12
  5939   5938   5941   5942      9   180.00   0.33472   3 ;    H2R-   C12-   C11-   O12
  5939   5938   5941   5943      9   180.00   0.00000   2 ;    H2R-   C12-   C11-   O11
  5940   5938   5941   5942      9     0.00   3.34720   1 ;    H2S-   C12-   C11-   O12
  5940   5938   5941   5942      9   180.00   0.33472   3 ;    H2S-   C12-   C11-   O12
  5940   5938   5941   5943      9   180.00   0.00000   2 ;    H2S-   C12-   C11-   O11
  5941   5943   5944   5945      9     0.00   1.60247   3 ;    C11-   O11-    C1-    HR
  5941   5943   5944   5946      9     0.00   1.60247   3 ;    C11-   O11-    C1-    HS
  5941   5943   5944   5947      9     0.00  -0.41840   1 ;    C11-   O11-    C1-    C2
  5942   5941   5943   5944      9   180.00   5.85760   1 ;    O12-   C11-   O11-    C1
  5942   5941   5943   5944      9   180.00  11.29680   2 ;    O12-   C11-   O11-    C1
  5943   5944   5947   5948      9     0.00   0.00000   0 ;    O11-    C1-    C2-    HX
  5943   5944   5947   5948      9     0.00   1.04600   1 ;    O11-    C1-    C2-    HX
  5943   5944   5947   5949      9     0.00   0.00000   0 ;    O11-    C1-    C2-    C3
  5943   5944   5947   5949      9     0.00   0.00000   0 ;    O11-    C1-    C2-    C3
  5943   5944   5947   5949      9     0.00   0.00000   0 ;    O11-    C1-    C2-    C3
  5943   5944   5947   5949      9     0.00   0.00000   0 ;    O11-    C1-    C2-    C3
  5943   5944   5947   5949      9     0.00   0.00000   0 ;    O11-    C1-    C2-    C3
  5943   5944   5947   5976      9     0.00   1.25520   2 ;    O11-    C1-    C2-   O21
  5943   5944   5947   5976      9     0.00   4.18400   3 ;    O11-    C1-    C2-   O21
  5943   5944   5947   5976      9   180.00  -0.41840   1 ;    O11-    C1-    C2-   O21
  5944   5947   5949   5950      9     0.00   0.65270   3 ;     C1-    C2-    C3-    HA
  5944   5947   5949   5951      9     0.00   0.65270   3 ;     C1-    C2-    C3-    HB
  5944   5947   5949   5952      9   180.00   3.34720   1 ;     C1-    C2-    C3-   O31
  5944   5947   5976   5977      9     0.00  -0.41840   1 ;     C1-    C2-   O21-   C21
  5945   5944   5947   5948      9     0.00   0.65270   3 ;     HR-    C1-    C2-    HX
  5945   5944   5947   5949      9     0.00   0.65270   3 ;     HR-    C1-    C2-    C3
  5945   5944   5947   5976      9     0.00   0.00000   0 ;     HR-    C1-    C2-   O21
  5945   5944   5947   5976      9     0.00   1.04600   1 ;     HR-    C1-    C2-   O21
  5946   5944   5947   5948      9     0.00   0.65270   3 ;     HS-    C1-    C2-    HX
  5946   5944   5947   5949      9     0.00   0.65270   3 ;     HS-    C1-    C2-    C3
  5946   5944   5947   5976      9     0.00   0.00000   0 ;     HS-    C1-    C2-   O21
  5946   5944   5947   5976      9     0.00   1.04600   1 ;     HS-    C1-    C2-   O21
  5947   5949   5952   5953      9     0.00   0.00000   0 ;     C2-    C3-   O31-   P31
  5947   5949   5952   5953      9   180.00  -3.34720   2 ;     C2-    C3-   O31-   P31
  5947   5976   5977   5978      9   180.00   5.85760   1 ;     C2-   O21-   C21-   O22
  5947   5976   5977   5978      9   180.00  11.29680   2 ;     C2-   O21-   C21-   O22
  5947   5976   5977   6016      9   180.00  11.29680   2 ;     C2-   O21-   C21-   C12
  5948   5947   5949   5950      9     0.00   0.65270   3 ;     HX-    C2-    C3-    HA
  5948   5947   5949   5951      9     0.00   0.65270   3 ;     HX-    C2-    C3-    HB
  5948   5947   5949   5952      9     0.00   0.00000   0 ;     HX-    C2-    C3-   O31
  5948   5947   5949   5952      9     0.00   1.04600   1 ;     HX-    C2-    C3-   O31
  5948   5947   5976   5977      9     0.00   1.60247   3 ;     HX-    C2-   O21-   C21
  5949   5947   5976   5977      9     0.00  -0.41840   1 ;     C3-    C2-   O21-   C21
  5949   5952   5953   5954      9     0.00   2.51040   3 ;     C3-   O31-   P31-   O32
  5949   5952   5953   5954      9     0.00   9.62320   2 ;     C3-   O31-   P31-   O32
  5949   5952   5953   5974      9     0.00   0.00000   0 ;     C3-   O31-   P31-   O33
  5949   5952   5953   5974      9     0.00   0.00000   0 ;     C3-   O31-   P31-   O33
  5949   5952   5953   5974      9     0.00   0.00000   0 ;     C3-   O31-   P31-   O33
  5949   5952   5953   5974      9     0.00   0.00000   0 ;     C3-   O31-   P31-   O33
  5949   5952   5953   5974      9     0.00   0.83680   2 ;     C3-   O31-   P31-   O33
  5949   5952   5953   5975      9     0.00   0.00000   0 ;     C3-   O31-   P31-   O34
  5949   5952   5953   5975      9     0.00   0.00000   0 ;     C3-   O31-   P31-   O34
  5949   5952   5953   5975      9     0.00   0.00000   0 ;     C3-   O31-   P31-   O34
  5949   5952   5953   5975      9     0.00   0.00000   0 ;     C3-   O31-   P31-   O34
  5949   5952   5953   5975      9     0.00   0.83680   2 ;     C3-   O31-   P31-   O34
  5950   5949   5947   5976      9     0.00   0.00000   0 ;     HA-    C3-    C2-   O21
  5950   5949   5947   5976      9     0.00   1.04600   1 ;     HA-    C3-    C2-   O21
  5950   5949   5952   5953      9     0.00   0.00000   0 ;     HA-    C3-   O31-   P31
  5950   5949   5952   5953      9     0.00   0.00000   0 ;     HA-    C3-   O31-   P31
  5950   5949   5952   5953      9     0.00   0.00000   0 ;     HA-    C3-   O31-   P31
  5950   5949   5952   5953      9     0.00   0.00000   0 ;     HA-    C3-   O31-   P31
  5950   5949   5952   5953      9     0.00   1.60247   3 ;     HA-    C3-   O31-   P31
  5951   5949   5947   5976      9     0.00   0.00000   0 ;     HB-    C3-    C2-   O21
  5951   5949   5947   5976      9     0.00   1.04600   1 ;     HB-    C3-    C2-   O21
  5951   5949   5952   5953      9     0.00   0.00000   0 ;     HB-    C3-   O31-   P31
  5951   5949   5952   5953      9     0.00   0.00000   0 ;     HB-    C3-   O31-   P31
  5951   5949   5952   5953      9     0.00   0.00000   0 ;     HB-    C3-   O31-   P31
  5951   5949   5952   5953      9     0.00   0.00000   0 ;     HB-    C3-   O31-   P31
  5951   5949   5952   5953      9     0.00   1.60247   3 ;     HB-    C3-   O31-   P31
  5952   5949   5947   5976      9     0.00   0.00000   0 ;    O31-    C3-    C2-   O21
  5952   5949   5947   5976      9     0.00   0.00000   0 ;    O31-    C3-    C2-   O21
  5952   5949   5947   5976      9     0.00   0.00000   0 ;    O31-    C3-    C2-   O21
  5952   5949   5947   5976      9     0.00   0.00000   0 ;    O31-    C3-    C2-   O21
  5952   5949   5947   5976      9     0.00   0.00000   0 ;    O31-    C3-    C2-   O21
  5952   5953   5954   5955      9     0.00   2.51040   3 ;    O31-   P31-   O32-   C31
  5952   5953   5954   5955      9     0.00   9.62320   2 ;    O31-   P31-   O32-   C31
  5953   5954   5955   5956      9     0.00   0.00000   0 ;    P31-   O32-   C31-   H1A
  5953   5954   5955   5956      9     0.00   0.00000   0 ;    P31-   O32-   C31-   H1A
  5953   5954   5955   5956      9     0.00   0.00000   0 ;    P31-   O32-   C31-   H1A
  5953   5954   5955   5956      9     0.00   0.00000   0 ;    P31-   O32-   C31-   H1A
  5953   5954   5955   5956      9     0.00   1.60247   3 ;    P31-   O32-   C31-   H1A
  5953   5954   5955   5957      9     0.00   0.00000   0 ;    P31-   O32-   C31-   H1B
  5953   5954   5955   5957      9     0.00   0.00000   0 ;    P31-   O32-   C31-   H1B
  5953   5954   5955   5957      9     0.00   0.00000   0 ;    P31-   O32-   C31-   H1B
  5953   5954   5955   5957      9     0.00   0.00000   0 ;    P31-   O32-   C31-   H1B
  5953   5954   5955   5957      9     0.00   1.60247   3 ;    P31-   O32-   C31-   H1B
  5953   5954   5955   5958      9     0.00   0.00000   0 ;    P31-   O32-   C31-   C32
  5953   5954   5955   5958      9   180.00  -3.34720   2 ;    P31-   O32-   C31-   C32
  5954   5955   5958   5959      9     0.00   0.65270   3 ;    O32-   C31-   C32-   H2A
  5954   5955   5958   5960      9     0.00   0.65270   3 ;    O32-   C31-   C32-   H2B
  5954   5955   5958   5961      9     0.00   4.18400   3 ;    O32-   C31-   C32-   N31
  5955   5954   5953   5974      9     0.00   0.00000   0 ;    C31-   O32-   P31-   O33
  5955   5954   5953   5974      9     0.00   0.00000   0 ;    C31-   O32-   P31-   O33
  5955   5954   5953   5974      9     0.00   0.00000   0 ;    C31-   O32-   P31-   O33
  5955   5954   5953   5974      9     0.00   0.00000   0 ;    C31-   O32-   P31-   O33
  5955   5954   5953   5974      9     0.00   0.83680   2 ;    C31-   O32-   P31-   O33
  5955   5954   5953   5975      9     0.00   0.00000   0 ;    C31-   O32-   P31-   O34
  5955   5954   5953   5975      9     0.00   0.00000   0 ;    C31-   O32-   P31-   O34
  5955   5954   5953   5975      9     0.00   0.00000   0 ;    C31-   O32-   P31-   O34
  5955   5954   5953   5975      9     0.00   0.00000   0 ;    C31-   O32-   P31-   O34
  5955   5954   5953   5975      9     0.00   0.83680   2 ;    C31-   O32-   P31-   O34
  5955   5958   5961   5962      9     0.00   0.65270   3 ;    C31-   C32-   N31-   C33
  5955   5958   5961   5966      9     0.00   0.65270   3 ;    C31-   C32-   N31-   C34
  5955   5958   5961   5970      9     0.00   0.65270   3 ;    C31-   C32-   N31-   C35
  5956   5955   5958   5959      9     0.00   0.65270   3 ;    H1A-   C31-   C32-   H2A
  5956   5955   5958   5960      9     0.00   0.65270   3 ;    H1A-   C31-   C32-   H2B
  5956   5955   5958   5961      9     0.00   0.65270   3 ;    H1A-   C31-   C32-   N31
  5957   5955   5958   5959      9     0.00   0.65270   3 ;    H1B-   C31-   C32-   H2A
  5957   5955   5958   5960      9     0.00   0.65270   3 ;    H1B-   C31-   C32-   H2B
  5957   5955   5958   5961      9     0.00   0.65270   3 ;    H1B-   C31-   C32-   N31
  5958   5961   5962   5963      9     0.00   0.65270   3 ;    C32-   N31-   C33-   H3A
  5958   5961   5962   5964      9     0.00   0.65270   3 ;    C32-   N31-   C33-   H3B
  5958   5961   5962   5965      9     0.00   0.65270   3 ;    C32-   N31-   C33-   H3C
  5958   5961   5966   5967      9     0.00   0.65270   3 ;    C32-   N31-   C34-   H4A
  5958   5961   5966   5968      9     0.00   0.65270   3 ;    C32-   N31-   C34-   H4B
  5958   5961   5966   5969      9     0.00   0.65270   3 ;    C32-   N31-   C34-   H4C
  5958   5961   5970   5971      9     0.00   0.65270   3 ;    C32-   N31-   C35-   H5A
  5958   5961   5970   5972      9     0.00   0.65270   3 ;    C32-   N31-   C35-   H5B
  5958   5961   5970   5973      9     0.00   0.65270   3 ;    C32-   N31-   C35-   H5C
  5959   5958   5961   5962      9     0.00   0.65270   3 ;    H2A-   C32-   N31-   C33
  5959   5958   5961   5966      9     0.00   0.65270   3 ;    H2A-   C32-   N31-   C34
  5959   5958   5961   5970      9     0.00   0.65270   3 ;    H2A-   C32-   N31-   C35
  5960   5958   5961   5962      9     0.00   0.65270   3 ;    H2B-   C32-   N31-   C33
  5960   5958   5961   5966      9     0.00   0.65270   3 ;    H2B-   C32-   N31-   C34
  5960   5958   5961   5970      9     0.00   0.65270   3 ;    H2B-   C32-   N31-   C35
  5962   5961   5966   5967      9     0.00   0.65270   3 ;    C33-   N31-   C34-   H4A
  5962   5961   5966   5968      9     0.00   0.65270   3 ;    C33-   N31-   C34-   H4B
  5962   5961   5966   5969      9     0.00   0.65270   3 ;    C33-   N31-   C34-   H4C
  5962   5961   5970   5971      9     0.00   0.65270   3 ;    C33-   N31-   C35-   H5A
  5962   5961   5970   5972      9     0.00   0.65270   3 ;    C33-   N31-   C35-   H5B
  5962   5961   5970   5973      9     0.00   0.65270   3 ;    C33-   N31-   C35-   H5C
  5963   5962   5961   5966      9     0.00   0.65270   3 ;    H3A-   C33-   N31-   C34
  5963   5962   5961   5970      9     0.00   0.65270   3 ;    H3A-   C33-   N31-   C35
  5964   5962   5961   5966      9     0.00   0.65270   3 ;    H3B-   C33-   N31-   C34
  5964   5962   5961   5970      9     0.00   0.65270   3 ;    H3B-   C33-   N31-   C35
  5965   5962   5961   5966      9     0.00   0.65270   3 ;    H3C-   C33-   N31-   C34
  5965   5962   5961   5970      9     0.00   0.65270   3 ;    H3C-   C33-   N31-   C35
  5966   5961   5970   5971      9     0.00   0.65270   3 ;    C34-   N31-   C35-   H5A
  5966   5961   5970   5972      9     0.00   0.65270   3 ;    C34-   N31-   C35-   H5B
  5966   5961   5970   5973      9     0.00   0.65270   3 ;    C34-   N31-   C35-   H5C
  5967   5966   5961   5970      9     0.00   0.65270   3 ;    H4A-   C34-   N31-   C35
  5968   5966   5961   5970      9     0.00   0.65270   3 ;    H4B-   C34-   N31-   C35
  5969   5966   5961   5970      9     0.00   0.65270   3 ;    H4C-   C34-   N31-   C35
  5976   5977   6016   6013      9   180.00   0.00000   2 ;    O21-   C21-   C12-   C13
  5976   5977   6016   6017      9   180.00   0.00000   2 ;    O21-   C21-   C12-   H2R
  5976   5977   6016   6018      9   180.00   0.00000   2 ;    O21-   C21-   C12-   H2S
  5977   6016   6013   6010      9     0.00   0.65270   3 ;    C21-   C12-   C13-   C14
  5977   6016   6013   6014      9     0.00   0.65270   3 ;    C21-   C12-   C13-   H3R
  5977   6016   6013   6015      9     0.00   0.65270   3 ;    C21-   C12-   C13-   H3S
  5978   5977   6016   6013      9   180.00   0.00000   2 ;    O22-   C21-   C12-   C13
  5978   5977   6016   6017      9     0.00   3.34720   1 ;    O22-   C21-   C12-   H2R
  5978   5977   6016   6017      9   180.00   0.33472   3 ;    O22-   C21-   C12-   H2R
  5978   5977   6016   6018      9     0.00   3.34720   1 ;    O22-   C21-   C12-   H2S
  5978   5977   6016   6018      9   180.00   0.33472   3 ;    O22-   C21-   C12-   H2S
  5979   5980   5983   5984      9     0.00   0.62760   3 ;   H14T-  C114-  C113-  H13R
  5979   5980   5983   5985      9     0.00   0.62760   3 ;   H14T-  C114-  C113-  H13S
  5979   5980   5983   5986      9     0.00   0.66944   3 ;   H14T-  C114-  C113-  C112
  5980   5983   5986   5987      9     0.00   0.66944   3 ;   C114-  C113-  C112-  H12R
  5980   5983   5986   5988      9     0.00   0.66944   3 ;   C114-  C113-  C112-  H12S
  5980   5983   5986   5989      9     0.00   0.41840   1 ;   C114-  C113-  C112-  C111
  5980   5983   5986   5989      9     0.00   0.41840   2 ;   C114-  C113-  C112-  C111
  5980   5983   5986   5989      9     0.00   0.41840   4 ;   C114-  C113-  C112-  C111
  5980   5983   5986   5989      9     0.00   0.41840   5 ;   C114-  C113-  C112-  C111
  5980   5983   5986   5989      9     0.00   1.25520   3 ;   C114-  C113-  C112-  C111
  5981   5980   5983   5984      9     0.00   0.62760   3 ;   H14R-  C114-  C113-  H13R
  5981   5980   5983   5985      9     0.00   0.62760   3 ;   H14R-  C114-  C113-  H13S
  5981   5980   5983   5986      9     0.00   0.66944   3 ;   H14R-  C114-  C113-  C112
  5982   5980   5983   5984      9     0.00   0.62760   3 ;   H14S-  C114-  C113-  H13R
  5982   5980   5983   5985      9     0.00   0.62760   3 ;   H14S-  C114-  C113-  H13S
  5982   5980   5983   5986      9     0.00   0.66944   3 ;   H14S-  C114-  C113-  C112
  5983   5986   5989   5990      9     0.00   0.66944   3 ;   C113-  C112-  C111-  H11R
  5983   5986   5989   5991      9     0.00   0.66944   3 ;   C113-  C112-  C111-  H11S
  5983   5986   5989   5992      9     0.00   0.41840   1 ;   C113-  C112-  C111-  C110
  5983   5986   5989   5992      9     0.00   0.41840   2 ;   C113-  C112-  C111-  C110
  5983   5986   5989   5992      9     0.00   0.41840   4 ;   C113-  C112-  C111-  C110
  5983   5986   5989   5992      9     0.00   0.41840   5 ;   C113-  C112-  C111-  C110
  5983   5986   5989   5992      9     0.00   1.25520   3 ;   C113-  C112-  C111-  C110
  5984   5983   5986   5987      9     0.00   0.62760   3 ;   H13R-  C113-  C112-  H12R
  5984   5983   5986   5988      9     0.00   0.62760   3 ;   H13R-  C113-  C112-  H12S
  5984   5983   5986   5989      9     0.00   0.66944   3 ;   H13R-  C113-  C112-  C111
  5985   5983   5986   5987      9     0.00   0.62760   3 ;   H13S-  C113-  C112-  H12R
  5985   5983   5986   5988      9     0.00   0.62760   3 ;   H13S-  C113-  C112-  H12S
  5985   5983   5986   5989      9     0.00   0.66944   3 ;   H13S-  C113-  C112-  C111
  5986   5989   5992   5993      9     0.00   0.66944   3 ;   C112-  C111-  C110-  H10R
  5986   5989   5992   5994      9     0.00   0.66944   3 ;   C112-  C111-  C110-  H10S
  5986   5989   5992   5995      9     0.00   0.41840   1 ;   C112-  C111-  C110-   C19
  5986   5989   5992   5995      9     0.00   0.41840   2 ;   C112-  C111-  C110-   C19
  5986   5989   5992   5995      9     0.00   0.41840   4 ;   C112-  C111-  C110-   C19
  5986   5989   5992   5995      9     0.00   0.41840   5 ;   C112-  C111-  C110-   C19
  5986   5989   5992   5995      9     0.00   1.25520   3 ;   C112-  C111-  C110-   C19
  5987   5986   5989   5990      9     0.00   0.62760   3 ;   H12R-  C112-  C111-  H11R
  5987   5986   5989   5991      9     0.00   0.62760   3 ;   H12R-  C112-  C111-  H11S
  5987   5986   5989   5992      9     0.00   0.66944   3 ;   H12R-  C112-  C111-  C110
  5988   5986   5989   5990      9     0.00   0.62760   3 ;   H12S-  C112-  C111-  H11R
  5988   5986   5989   5991      9     0.00   0.62760   3 ;   H12S-  C112-  C111-  H11S
  5988   5986   5989   5992      9     0.00   0.66944   3 ;   H12S-  C112-  C111-  C110
  5989   5992   5995   5996      9     0.00   0.66944   3 ;   C111-  C110-   C19-   H9R
  5989   5992   5995   5997      9     0.00   0.66944   3 ;   C111-  C110-   C19-   H9S
  5989   5992   5995   5998      9     0.00   0.41840   1 ;   C111-  C110-   C19-   C18
  5989   5992   5995   5998      9     0.00   0.41840   2 ;   C111-  C110-   C19-   C18
  5989   5992   5995   5998      9     0.00   0.41840   4 ;   C111-  C110-   C19-   C18
  5989   5992   5995   5998      9     0.00   0.41840   5 ;   C111-  C110-   C19-   C18
  5989   5992   5995   5998      9     0.00   1.25520   3 ;   C111-  C110-   C19-   C18
  5990   5989   5992   5993      9     0.00   0.62760   3 ;   H11R-  C111-  C110-  H10R
  5990   5989   5992   5994      9     0.00   0.62760   3 ;   H11R-  C111-  C110-  H10S
  5990   5989   5992   5995      9     0.00   0.66944   3 ;   H11R-  C111-  C110-   C19
  5991   5989   5992   5993      9     0.00   0.62760   3 ;   H11S-  C111-  C110-  H10R
  5991   5989   5992   5994      9     0.00   0.62760   3 ;   H11S-  C111-  C110-  H10S
  5991   5989   5992   5995      9     0.00   0.66944   3 ;   H11S-  C111-  C110-   C19
  5992   5995   5998   5999      9     0.00   0.66944   3 ;   C110-   C19-   C18-   H8R
  5992   5995   5998   6000      9     0.00   0.66944   3 ;   C110-   C19-   C18-   H8S
  5992   5995   5998   6001      9     0.00   0.41840   1 ;   C110-   C19-   C18-   C17
  5992   5995   5998   6001      9     0.00   0.41840   2 ;   C110-   C19-   C18-   C17
  5992   5995   5998   6001      9     0.00   0.41840   4 ;   C110-   C19-   C18-   C17
  5992   5995   5998   6001      9     0.00   0.41840   5 ;   C110-   C19-   C18-   C17
  5992   5995   5998   6001      9     0.00   1.25520   3 ;   C110-   C19-   C18-   C17
  5993   5992   5995   5996      9     0.00   0.62760   3 ;   H10R-  C110-   C19-   H9R
  5993   5992   5995   5997      9     0.00   0.62760   3 ;   H10R-  C110-   C19-   H9S
  5993   5992   5995   5998      9     0.00   0.66944   3 ;   H10R-  C110-   C19-   C18
  5994   5992   5995   5996      9     0.00   0.62760   3 ;   H10S-  C110-   C19-   H9R
  5994   5992   5995   5997      9     0.00   0.62760   3 ;   H10S-  C110-   C19-   H9S
  5994   5992   5995   5998      9     0.00   0.66944   3 ;   H10S-  C110-   C19-   C18
  5995   5998   6001   6002      9     0.00   0.66944   3 ;    C19-   C18-   C17-   H7R
  5995   5998   6001   6003      9     0.00   0.66944   3 ;    C19-   C18-   C17-   H7S
  5995   5998   6001   6004      9     0.00   0.41840   1 ;    C19-   C18-   C17-   C16
  5995   5998   6001   6004      9     0.00   0.41840   2 ;    C19-   C18-   C17-   C16
  5995   5998   6001   6004      9     0.00   0.41840   4 ;    C19-   C18-   C17-   C16
  5995   5998   6001   6004      9     0.00   0.41840   5 ;    C19-   C18-   C17-   C16
  5995   5998   6001   6004      9     0.00   1.25520   3 ;    C19-   C18-   C17-   C16
  5996   5995   5998   5999      9     0.00   0.62760   3 ;    H9R-   C19-   C18-   H8R
  5996   5995   5998   6000      9     0.00   0.62760   3 ;    H9R-   C19-   C18-   H8S
  5996   5995   5998   6001      9     0.00   0.66944   3 ;    H9R-   C19-   C18-   C17
  5997   5995   5998   5999      9     0.00   0.62760   3 ;    H9S-   C19-   C18-   H8R
  5997   5995   5998   6000      9     0.00   0.62760   3 ;    H9S-   C19-   C18-   H8S
  5997   5995   5998   6001      9     0.00   0.66944   3 ;    H9S-   C19-   C18-   C17
  5998   6001   6004   6005      9     0.00   0.66944   3 ;    C18-   C17-   C16-   H6R
  5998   6001   6004   6006      9     0.00   0.66944   3 ;    C18-   C17-   C16-   H6S
  5998   6001   6004   6007      9     0.00   0.41840   1 ;    C18-   C17-   C16-   C15
  5998   6001   6004   6007      9     0.00   0.41840   2 ;    C18-   C17-   C16-   C15
  5998   6001   6004   6007      9     0.00   0.41840   4 ;    C18-   C17-   C16-   C15
  5998   6001   6004   6007      9     0.00   0.41840   5 ;    C18-   C17-   C16-   C15
  5998   6001   6004   6007      9     0.00   1.25520   3 ;    C18-   C17-   C16-   C15
  5999   5998   6001   6002      9     0.00   0.62760   3 ;    H8R-   C18-   C17-   H7R
  5999   5998   6001   6003      9     0.00   0.62760   3 ;    H8R-   C18-   C17-   H7S
  5999   5998   6001   6004      9     0.00   0.66944   3 ;    H8R-   C18-   C17-   C16
  6000   5998   6001   6002      9     0.00   0.62760   3 ;    H8S-   C18-   C17-   H7R
  6000   5998   6001   6003      9     0.00   0.62760   3 ;    H8S-   C18-   C17-   H7S
  6000   5998   6001   6004      9     0.00   0.66944   3 ;    H8S-   C18-   C17-   C16
  6001   6004   6007   6008      9     0.00   0.66944   3 ;    C17-   C16-   C15-   H5R
  6001   6004   6007   6009      9     0.00   0.66944   3 ;    C17-   C16-   C15-   H5S
  6001   6004   6007   6010      9     0.00   0.41840   1 ;    C17-   C16-   C15-   C14
  6001   6004   6007   6010      9     0.00   0.41840   2 ;    C17-   C16-   C15-   C14
  6001   6004   6007   6010      9     0.00   0.41840   4 ;    C17-   C16-   C15-   C14
  6001   6004   6007   6010      9     0.00   0.41840   5 ;    C17-   C16-   C15-   C14
  6001   6004   6007   6010      9     0.00   1.25520   3 ;    C17-   C16-   C15-   C14
  6002   6001   6004   6005      9     0.00   0.62760   3 ;    H7R-   C17-   C16-   H6R
  6002   6001   6004   6006      9     0.00   0.62760   3 ;    H7R-   C17-   C16-   H6S
  6002   6001   6004   6007      9     0.00   0.66944   3 ;    H7R-   C17-   C16-   C15
  6003   6001   6004   6005      9     0.00   0.62760   3 ;    H7S-   C17-   C16-   H6R
  6003   6001   6004   6006      9     0.00   0.62760   3 ;    H7S-   C17-   C16-   H6S
  6003   6001   6004   6007      9     0.00   0.66944   3 ;    H7S-   C17-   C16-   C15
  6004   6007   6010   6011      9     0.00   0.66944   3 ;    C16-   C15-   C14-   H4R
  6004   6007   6010   6012      9     0.00   0.66944   3 ;    C16-   C15-   C14-   H4S
  6004   6007   6010   6013      9     0.00   0.41840   1 ;    C16-   C15-   C14-   C13
  6004   6007   6010   6013      9     0.00   0.41840   2 ;    C16-   C15-   C14-   C13
  6004   6007   6010   6013      9     0.00   0.41840   4 ;    C16-   C15-   C14-   C13
  6004   6007   6010   6013      9     0.00   0.41840   5 ;    C16-   C15-   C14-   C13
  6004   6007   6010   6013      9     0.00   1.25520   3 ;    C16-   C15-   C14-   C13
  6005   6004   6007   6008      9     0.00   0.62760   3 ;    H6R-   C16-   C15-   H5R
  6005   6004   6007   6009      9     0.00   0.62760   3 ;    H6R-   C16-   C15-   H5S
  6005   6004   6007   6010      9     0.00   0.66944   3 ;    H6R-   C16-   C15-   C14
  6006   6004   6007   6008      9     0.00   0.62760   3 ;    H6S-   C16-   C15-   H5R
  6006   6004   6007   6009      9     0.00   0.62760   3 ;    H6S-   C16-   C15-   H5S
  6006   6004   6007   6010      9     0.00   0.66944   3 ;    H6S-   C16-   C15-   C14
  6007   6010   6013   6014      9     0.00   0.66944   3 ;    C15-   C14-   C13-   H3R
  6007   6010   6013   6015      9     0.00   0.66944   3 ;    C15-   C14-   C13-   H3S
  6007   6010   6013   6016      9     0.00   0.41840   1 ;    C15-   C14-   C13-   C12
  6007   6010   6013   6016      9     0.00   0.41840   2 ;    C15-   C14-   C13-   C12
  6007   6010   6013   6016      9     0.00   0.41840   4 ;    C15-   C14-   C13-   C12
  6007   6010   6013   6016      9     0.00   0.41840   5 ;    C15-   C14-   C13-   C12
  6007   6010   6013   6016      9     0.00   1.25520   3 ;    C15-   C14-   C13-   C12
  6008   6007   6010   6011      9     0.00   0.62760   3 ;    H5R-   C15-   C14-   H4R
  6008   6007   6010   6012      9     0.00   0.62760   3 ;    H5R-   C15-   C14-   H4S
  6008   6007   6010   6013      9     0.00   0.66944   3 ;    H5R-   C15-   C14-   C13
  6009   6007   6010   6011      9     0.00   0.62760   3 ;    H5S-   C15-   C14-   H4R
  6009   6007   6010   6012      9     0.00   0.62760   3 ;    H5S-   C15-   C14-   H4S
  6009   6007   6010   6013      9     0.00   0.66944   3 ;    H5S-   C15-   C14-   C13
  6010   6013   6016   6017      9     0.00   0.66944   3 ;    C14-   C13-   C12-   H2R
  6010   6013   6016   6018      9     0.00   0.66944   3 ;    C14-   C13-   C12-   H2S
  6011   6010   6013   6014      9     0.00   0.62760   3 ;    H4R-   C14-   C13-   H3R
  6011   6010   6013   6015      9     0.00   0.62760   3 ;    H4R-   C14-   C13-   H3S
  6011   6010   6013   6016      9     0.00   0.66944   3 ;    H4R-   C14-   C13-   C12
  6012   6010   6013   6014      9     0.00   0.62760   3 ;    H4S-   C14-   C13-   H3R
  6012   6010   6013   6015      9     0.00   0.62760   3 ;    H4S-   C14-   C13-   H3S
  6012   6010   6013   6016      9     0.00   0.66944   3 ;    H4S-   C14-   C13-   C12
  6014   6013   6016   6017      9     0.00   0.62760   3 ;    H3R-   C13-   C12-   H2R
  6014   6013   6016   6018      9     0.00   0.62760   3 ;    H3R-   C13-   C12-   H2S
  6015   6013   6016   6017      9     0.00   0.62760   3 ;    H3S-   C13-   C12-   H2R
  6015   6013   6016   6018      9     0.00   0.62760   3 ;    H3S-   C13-   C12-   H2S
  6019   6020   6023   6024      9     0.00   0.62760   3 ;   H14T-  C114-  C113-  H13R
  6019   6020   6023   6025      9     0.00   0.62760   3 ;   H14T-  C114-  C113-  H13S
  6019   6020   6023   6026      9     0.00   0.66944   3 ;   H14T-  C114-  C113-  C112
  6020   6023   6026   6027      9     0.00   0.66944   3 ;   C114-  C113-  C112-  H12R
  6020   6023   6026   6028      9     0.00   0.66944   3 ;   C114-  C113-  C112-  H12S
  6020   6023   6026   6029      9     0.00   0.41840   1 ;   C114-  C113-  C112-  C111
  6020   6023   6026   6029      9     0.00   0.41840   2 ;   C114-  C113-  C112-  C111
  6020   6023   6026   6029      9     0.00   0.41840   4 ;   C114-  C113-  C112-  C111
  6020   6023   6026   6029      9     0.00   0.41840   5 ;   C114-  C113-  C112-  C111
  6020   6023   6026   6029      9     0.00   1.25520   3 ;   C114-  C113-  C112-  C111
  6021   6020   6023   6024      9     0.00   0.62760   3 ;   H14R-  C114-  C113-  H13R
  6021   6020   6023   6025      9     0.00   0.62760   3 ;   H14R-  C114-  C113-  H13S
  6021   6020   6023   6026      9     0.00   0.66944   3 ;   H14R-  C114-  C113-  C112
  6022   6020   6023   6024      9     0.00   0.62760   3 ;   H14S-  C114-  C113-  H13R
  6022   6020   6023   6025      9     0.00   0.62760   3 ;   H14S-  C114-  C113-  H13S
  6022   6020   6023   6026      9     0.00   0.66944   3 ;   H14S-  C114-  C113-  C112
  6023   6026   6029   6030      9     0.00   0.66944   3 ;   C113-  C112-  C111-  H11R
  6023   6026   6029   6031      9     0.00   0.66944   3 ;   C113-  C112-  C111-  H11S
  6023   6026   6029   6032      9     0.00   0.41840   1 ;   C113-  C112-  C111-  C110
  6023   6026   6029   6032      9     0.00   0.41840   2 ;   C113-  C112-  C111-  C110
  6023   6026   6029   6032      9     0.00   0.41840   4 ;   C113-  C112-  C111-  C110
  6023   6026   6029   6032      9     0.00   0.41840   5 ;   C113-  C112-  C111-  C110
  6023   6026   6029   6032      9     0.00   1.25520   3 ;   C113-  C112-  C111-  C110
  6024   6023   6026   6027      9     0.00   0.62760   3 ;   H13R-  C113-  C112-  H12R
  6024   6023   6026   6028      9     0.00   0.62760   3 ;   H13R-  C113-  C112-  H12S
  6024   6023   6026   6029      9     0.00   0.66944   3 ;   H13R-  C113-  C112-  C111
  6025   6023   6026   6027      9     0.00   0.62760   3 ;   H13S-  C113-  C112-  H12R
  6025   6023   6026   6028      9     0.00   0.62760   3 ;   H13S-  C113-  C112-  H12S
  6025   6023   6026   6029      9     0.00   0.66944   3 ;   H13S-  C113-  C112-  C111
  6026   6029   6032   6033      9     0.00   0.66944   3 ;   C112-  C111-  C110-  H10R
  6026   6029   6032   6034      9     0.00   0.66944   3 ;   C112-  C111-  C110-  H10S
  6026   6029   6032   6035      9     0.00   0.41840   1 ;   C112-  C111-  C110-   C19
  6026   6029   6032   6035      9     0.00   0.41840   2 ;   C112-  C111-  C110-   C19
  6026   6029   6032   6035      9     0.00   0.41840   4 ;   C112-  C111-  C110-   C19
  6026   6029   6032   6035      9     0.00   0.41840   5 ;   C112-  C111-  C110-   C19
  6026   6029   6032   6035      9     0.00   1.25520   3 ;   C112-  C111-  C110-   C19
  6027   6026   6029   6030      9     0.00   0.62760   3 ;   H12R-  C112-  C111-  H11R
  6027   6026   6029   6031      9     0.00   0.62760   3 ;   H12R-  C112-  C111-  H11S
  6027   6026   6029   6032      9     0.00   0.66944   3 ;   H12R-  C112-  C111-  C110
  6028   6026   6029   6030      9     0.00   0.62760   3 ;   H12S-  C112-  C111-  H11R
  6028   6026   6029   6031      9     0.00   0.62760   3 ;   H12S-  C112-  C111-  H11S
  6028   6026   6029   6032      9     0.00   0.66944   3 ;   H12S-  C112-  C111-  C110
  6029   6032   6035   6036      9     0.00   0.66944   3 ;   C111-  C110-   C19-   H9R
  6029   6032   6035   6037      9     0.00   0.66944   3 ;   C111-  C110-   C19-   H9S
  6029   6032   6035   6038      9     0.00   0.41840   1 ;   C111-  C110-   C19-   C18
  6029   6032   6035   6038      9     0.00   0.41840   2 ;   C111-  C110-   C19-   C18
  6029   6032   6035   6038      9     0.00   0.41840   4 ;   C111-  C110-   C19-   C18
  6029   6032   6035   6038      9     0.00   0.41840   5 ;   C111-  C110-   C19-   C18
  6029   6032   6035   6038      9     0.00   1.25520   3 ;   C111-  C110-   C19-   C18
  6030   6029   6032   6033      9     0.00   0.62760   3 ;   H11R-  C111-  C110-  H10R
  6030   6029   6032   6034      9     0.00   0.62760   3 ;   H11R-  C111-  C110-  H10S
  6030   6029   6032   6035      9     0.00   0.66944   3 ;   H11R-  C111-  C110-   C19
  6031   6029   6032   6033      9     0.00   0.62760   3 ;   H11S-  C111-  C110-  H10R
  6031   6029   6032   6034      9     0.00   0.62760   3 ;   H11S-  C111-  C110-  H10S
  6031   6029   6032   6035      9     0.00   0.66944   3 ;   H11S-  C111-  C110-   C19
  6032   6035   6038   6039      9     0.00   0.66944   3 ;   C110-   C19-   C18-   H8R
  6032   6035   6038   6040      9     0.00   0.66944   3 ;   C110-   C19-   C18-   H8S
  6032   6035   6038   6041      9     0.00   0.41840   1 ;   C110-   C19-   C18-   C17
  6032   6035   6038   6041      9     0.00   0.41840   2 ;   C110-   C19-   C18-   C17
  6032   6035   6038   6041      9     0.00   0.41840   4 ;   C110-   C19-   C18-   C17
  6032   6035   6038   6041      9     0.00   0.41840   5 ;   C110-   C19-   C18-   C17
  6032   6035   6038   6041      9     0.00   1.25520   3 ;   C110-   C19-   C18-   C17
  6033   6032   6035   6036      9     0.00   0.62760   3 ;   H10R-  C110-   C19-   H9R
  6033   6032   6035   6037      9     0.00   0.62760   3 ;   H10R-  C110-   C19-   H9S
  6033   6032   6035   6038      9     0.00   0.66944   3 ;   H10R-  C110-   C19-   C18
  6034   6032   6035   6036      9     0.00   0.62760   3 ;   H10S-  C110-   C19-   H9R
  6034   6032   6035   6037      9     0.00   0.62760   3 ;   H10S-  C110-   C19-   H9S
  6034   6032   6035   6038      9     0.00   0.66944   3 ;   H10S-  C110-   C19-   C18
  6035   6038   6041   6042      9     0.00   0.66944   3 ;    C19-   C18-   C17-   H7R
  6035   6038   6041   6043      9     0.00   0.66944   3 ;    C19-   C18-   C17-   H7S
  6035   6038   6041   6044      9     0.00   0.41840   1 ;    C19-   C18-   C17-   C16
  6035   6038   6041   6044      9     0.00   0.41840   2 ;    C19-   C18-   C17-   C16
  6035   6038   6041   6044      9     0.00   0.41840   4 ;    C19-   C18-   C17-   C16
  6035   6038   6041   6044      9     0.00   0.41840   5 ;    C19-   C18-   C17-   C16
  6035   6038   6041   6044      9     0.00   1.25520   3 ;    C19-   C18-   C17-   C16
  6036   6035   6038   6039      9     0.00   0.62760   3 ;    H9R-   C19-   C18-   H8R
  6036   6035   6038   6040      9     0.00   0.62760   3 ;    H9R-   C19-   C18-   H8S
  6036   6035   6038   6041      9     0.00   0.66944   3 ;    H9R-   C19-   C18-   C17
  6037   6035   6038   6039      9     0.00   0.62760   3 ;    H9S-   C19-   C18-   H8R
  6037   6035   6038   6040      9     0.00   0.62760   3 ;    H9S-   C19-   C18-   H8S
  6037   6035   6038   6041      9     0.00   0.66944   3 ;    H9S-   C19-   C18-   C17
  6038   6041   6044   6045      9     0.00   0.66944   3 ;    C18-   C17-   C16-   H6R
  6038   6041   6044   6046      9     0.00   0.66944   3 ;    C18-   C17-   C16-   H6S
  6038   6041   6044   6047      9     0.00   0.41840   1 ;    C18-   C17-   C16-   C15
  6038   6041   6044   6047      9     0.00   0.41840   2 ;    C18-   C17-   C16-   C15
  6038   6041   6044   6047      9     0.00   0.41840   4 ;    C18-   C17-   C16-   C15
  6038   6041   6044   6047      9     0.00   0.41840   5 ;    C18-   C17-   C16-   C15
  6038   6041   6044   6047      9     0.00   1.25520   3 ;    C18-   C17-   C16-   C15
  6039   6038   6041   6042      9     0.00   0.62760   3 ;    H8R-   C18-   C17-   H7R
  6039   6038   6041   6043      9     0.00   0.62760   3 ;    H8R-   C18-   C17-   H7S
  6039   6038   6041   6044      9     0.00   0.66944   3 ;    H8R-   C18-   C17-   C16
  6040   6038   6041   6042      9     0.00   0.62760   3 ;    H8S-   C18-   C17-   H7R
  6040   6038   6041   6043      9     0.00   0.62760   3 ;    H8S-   C18-   C17-   H7S
  6040   6038   6041   6044      9     0.00   0.66944   3 ;    H8S-   C18-   C17-   C16
  6041   6044   6047   6048      9     0.00   0.66944   3 ;    C17-   C16-   C15-   H5R
  6041   6044   6047   6049      9     0.00   0.66944   3 ;    C17-   C16-   C15-   H5S
  6041   6044   6047   6050      9     0.00   0.41840   1 ;    C17-   C16-   C15-   C14
  6041   6044   6047   6050      9     0.00   0.41840   2 ;    C17-   C16-   C15-   C14
  6041   6044   6047   6050      9     0.00   0.41840   4 ;    C17-   C16-   C15-   C14
  6041   6044   6047   6050      9     0.00   0.41840   5 ;    C17-   C16-   C15-   C14
  6041   6044   6047   6050      9     0.00   1.25520   3 ;    C17-   C16-   C15-   C14
  6042   6041   6044   6045      9     0.00   0.62760   3 ;    H7R-   C17-   C16-   H6R
  6042   6041   6044   6046      9     0.00   0.62760   3 ;    H7R-   C17-   C16-   H6S
  6042   6041   6044   6047      9     0.00   0.66944   3 ;    H7R-   C17-   C16-   C15
  6043   6041   6044   6045      9     0.00   0.62760   3 ;    H7S-   C17-   C16-   H6R
  6043   6041   6044   6046      9     0.00   0.62760   3 ;    H7S-   C17-   C16-   H6S
  6043   6041   6044   6047      9     0.00   0.66944   3 ;    H7S-   C17-   C16-   C15
  6044   6047   6050   6051      9     0.00   0.66944   3 ;    C16-   C15-   C14-   H4R
  6044   6047   6050   6052      9     0.00   0.66944   3 ;    C16-   C15-   C14-   H4S
  6044   6047   6050   6053      9     0.00   0.41840   1 ;    C16-   C15-   C14-   C13
  6044   6047   6050   6053      9     0.00   0.41840   2 ;    C16-   C15-   C14-   C13
  6044   6047   6050   6053      9     0.00   0.41840   4 ;    C16-   C15-   C14-   C13
  6044   6047   6050   6053      9     0.00   0.41840   5 ;    C16-   C15-   C14-   C13
  6044   6047   6050   6053      9     0.00   1.25520   3 ;    C16-   C15-   C14-   C13
  6045   6044   6047   6048      9     0.00   0.62760   3 ;    H6R-   C16-   C15-   H5R
  6045   6044   6047   6049      9     0.00   0.62760   3 ;    H6R-   C16-   C15-   H5S
  6045   6044   6047   6050      9     0.00   0.66944   3 ;    H6R-   C16-   C15-   C14
  6046   6044   6047   6048      9     0.00   0.62760   3 ;    H6S-   C16-   C15-   H5R
  6046   6044   6047   6049      9     0.00   0.62760   3 ;    H6S-   C16-   C15-   H5S
  6046   6044   6047   6050      9     0.00   0.66944   3 ;    H6S-   C16-   C15-   C14
  6047   6050   6053   6054      9     0.00   0.66944   3 ;    C15-   C14-   C13-   H3R
  6047   6050   6053   6055      9     0.00   0.66944   3 ;    C15-   C14-   C13-   H3S
  6047   6050   6053   6056      9     0.00   0.41840   1 ;    C15-   C14-   C13-   C12
  6047   6050   6053   6056      9     0.00   0.41840   2 ;    C15-   C14-   C13-   C12
  6047   6050   6053   6056      9     0.00   0.41840   4 ;    C15-   C14-   C13-   C12
  6047   6050   6053   6056      9     0.00   0.41840   5 ;    C15-   C14-   C13-   C12
  6047   6050   6053   6056      9     0.00   1.25520   3 ;    C15-   C14-   C13-   C12
  6048   6047   6050   6051      9     0.00   0.62760   3 ;    H5R-   C15-   C14-   H4R
  6048   6047   6050   6052      9     0.00   0.62760   3 ;    H5R-   C15-   C14-   H4S
  6048   6047   6050   6053      9     0.00   0.66944   3 ;    H5R-   C15-   C14-   C13
  6049   6047   6050   6051      9     0.00   0.62760   3 ;    H5S-   C15-   C14-   H4R
  6049   6047   6050   6052      9     0.00   0.62760   3 ;    H5S-   C15-   C14-   H4S
  6049   6047   6050   6053      9     0.00   0.66944   3 ;    H5S-   C15-   C14-   C13
  6050   6053   6056   6057      9     0.00   0.66944   3 ;    C14-   C13-   C12-   H2R
  6050   6053   6056   6058      9     0.00   0.66944   3 ;    C14-   C13-   C12-   H2S
  6050   6053   6056   6059      9     0.00   0.65270   3 ;    C14-   C13-   C12-   C11
  6051   6050   6053   6054      9     0.00   0.62760   3 ;    H4R-   C14-   C13-   H3R
  6051   6050   6053   6055      9     0.00   0.62760   3 ;    H4R-   C14-   C13-   H3S
  6051   6050   6053   6056      9     0.00   0.66944   3 ;    H4R-   C14-   C13-   C12
  6052   6050   6053   6054      9     0.00   0.62760   3 ;    H4S-   C14-   C13-   H3R
  6052   6050   6053   6055      9     0.00   0.62760   3 ;    H4S-   C14-   C13-   H3S
  6052   6050   6053   6056      9     0.00   0.66944   3 ;    H4S-   C14-   C13-   C12
  6053   6056   6059   6060      9   180.00   0.00000   2 ;    C13-   C12-   C11-   O12
  6053   6056   6059   6061      9   180.00   0.00000   2 ;    C13-   C12-   C11-   O11
  6054   6053   6056   6057      9     0.00   0.62760   3 ;    H3R-   C13-   C12-   H2R
  6054   6053   6056   6058      9     0.00   0.62760   3 ;    H3R-   C13-   C12-   H2S
  6054   6053   6056   6059      9     0.00   0.65270   3 ;    H3R-   C13-   C12-   C11
  6055   6053   6056   6057      9     0.00   0.62760   3 ;    H3S-   C13-   C12-   H2R
  6055   6053   6056   6058      9     0.00   0.62760   3 ;    H3S-   C13-   C12-   H2S
  6055   6053   6056   6059      9     0.00   0.65270   3 ;    H3S-   C13-   C12-   C11
  6056   6059   6061   6062      9   180.00  11.29680   2 ;    C12-   C11-   O11-    C1
  6057   6056   6059   6060      9     0.00   3.34720   1 ;    H2R-   C12-   C11-   O12
  6057   6056   6059   6060      9   180.00   0.33472   3 ;    H2R-   C12-   C11-   O12
  6057   6056   6059   6061      9   180.00   0.00000   2 ;    H2R-   C12-   C11-   O11
  6058   6056   6059   6060      9     0.00   3.34720   1 ;    H2S-   C12-   C11-   O12
  6058   6056   6059   6060      9   180.00   0.33472   3 ;    H2S-   C12-   C11-   O12
  6058   6056   6059   6061      9   180.00   0.00000   2 ;    H2S-   C12-   C11-   O11
  6059   6061   6062   6063      9     0.00   1.60247   3 ;    C11-   O11-    C1-    HR
  6059   6061   6062   6064      9     0.00   1.60247   3 ;    C11-   O11-    C1-    HS
  6059   6061   6062   6065      9     0.00  -0.41840   1 ;    C11-   O11-    C1-    C2
  6060   6059   6061   6062      9   180.00   5.85760   1 ;    O12-   C11-   O11-    C1
  6060   6059   6061   6062      9   180.00  11.29680   2 ;    O12-   C11-   O11-    C1
  6061   6062   6065   6066      9     0.00   0.00000   0 ;    O11-    C1-    C2-    HX
  6061   6062   6065   6066      9     0.00   1.04600   1 ;    O11-    C1-    C2-    HX
  6061   6062   6065   6067      9     0.00   0.00000   0 ;    O11-    C1-    C2-    C3
  6061   6062   6065   6067      9     0.00   0.00000   0 ;    O11-    C1-    C2-    C3
  6061   6062   6065   6067      9     0.00   0.00000   0 ;    O11-    C1-    C2-    C3
  6061   6062   6065   6067      9     0.00   0.00000   0 ;    O11-    C1-    C2-    C3
  6061   6062   6065   6067      9     0.00   0.00000   0 ;    O11-    C1-    C2-    C3
  6061   6062   6065   6094      9     0.00   1.25520   2 ;    O11-    C1-    C2-   O21
  6061   6062   6065   6094      9     0.00   4.18400   3 ;    O11-    C1-    C2-   O21
  6061   6062   6065   6094      9   180.00  -0.41840   1 ;    O11-    C1-    C2-   O21
  6062   6065   6067   6068      9     0.00   0.65270   3 ;     C1-    C2-    C3-    HA
  6062   6065   6067   6069      9     0.00   0.65270   3 ;     C1-    C2-    C3-    HB
  6062   6065   6067   6070      9   180.00   3.34720   1 ;     C1-    C2-    C3-   O31
  6062   6065   6094   6095      9     0.00  -0.41840   1 ;     C1-    C2-   O21-   C21
  6063   6062   6065   6066      9     0.00   0.65270   3 ;     HR-    C1-    C2-    HX
  6063   6062   6065   6067      9     0.00   0.65270   3 ;     HR-    C1-    C2-    C3
  6063   6062   6065   6094      9     0.00   0.00000   0 ;     HR-    C1-    C2-   O21
  6063   6062   6065   6094      9     0.00   1.04600   1 ;     HR-    C1-    C2-   O21
  6064   6062   6065   6066      9     0.00   0.65270   3 ;     HS-    C1-    C2-    HX
  6064   6062   6065   6067      9     0.00   0.65270   3 ;     HS-    C1-    C2-    C3
  6064   6062   6065   6094      9     0.00   0.00000   0 ;     HS-    C1-    C2-   O21
  6064   6062   6065   6094      9     0.00   1.04600   1 ;     HS-    C1-    C2-   O21
  6065   6067   6070   6071      9     0.00   0.00000   0 ;     C2-    C3-   O31-   P31
  6065   6067   6070   6071      9   180.00  -3.34720   2 ;     C2-    C3-   O31-   P31
  6065   6094   6095   6096      9   180.00   5.85760   1 ;     C2-   O21-   C21-   O22
  6065   6094   6095   6096      9   180.00  11.29680   2 ;     C2-   O21-   C21-   O22
  6065   6094   6095   6134      9   180.00  11.29680   2 ;     C2-   O21-   C21-   C12
  6066   6065   6067   6068      9     0.00   0.65270   3 ;     HX-    C2-    C3-    HA
  6066   6065   6067   6069      9     0.00   0.65270   3 ;     HX-    C2-    C3-    HB
  6066   6065   6067   6070      9     0.00   0.00000   0 ;     HX-    C2-    C3-   O31
  6066   6065   6067   6070      9     0.00   1.04600   1 ;     HX-    C2-    C3-   O31
  6066   6065   6094   6095      9     0.00   1.60247   3 ;     HX-    C2-   O21-   C21
  6067   6065   6094   6095      9     0.00  -0.41840   1 ;     C3-    C2-   O21-   C21
  6067   6070   6071   6072      9     0.00   2.51040   3 ;     C3-   O31-   P31-   O32
  6067   6070   6071   6072      9     0.00   9.62320   2 ;     C3-   O31-   P31-   O32
  6067   6070   6071   6092      9     0.00   0.00000   0 ;     C3-   O31-   P31-   O33
  6067   6070   6071   6092      9     0.00   0.00000   0 ;     C3-   O31-   P31-   O33
  6067   6070   6071   6092      9     0.00   0.00000   0 ;     C3-   O31-   P31-   O33
  6067   6070   6071   6092      9     0.00   0.00000   0 ;     C3-   O31-   P31-   O33
  6067   6070   6071   6092      9     0.00   0.83680   2 ;     C3-   O31-   P31-   O33
  6067   6070   6071   6093      9     0.00   0.00000   0 ;     C3-   O31-   P31-   O34
  6067   6070   6071   6093      9     0.00   0.00000   0 ;     C3-   O31-   P31-   O34
  6067   6070   6071   6093      9     0.00   0.00000   0 ;     C3-   O31-   P31-   O34
  6067   6070   6071   6093      9     0.00   0.00000   0 ;     C3-   O31-   P31-   O34
  6067   6070   6071   6093      9     0.00   0.83680   2 ;     C3-   O31-   P31-   O34
  6068   6067   6065   6094      9     0.00   0.00000   0 ;     HA-    C3-    C2-   O21
  6068   6067   6065   6094      9     0.00   1.04600   1 ;     HA-    C3-    C2-   O21
  6068   6067   6070   6071      9     0.00   0.00000   0 ;     HA-    C3-   O31-   P31
  6068   6067   6070   6071      9     0.00   0.00000   0 ;     HA-    C3-   O31-   P31
  6068   6067   6070   6071      9     0.00   0.00000   0 ;     HA-    C3-   O31-   P31
  6068   6067   6070   6071      9     0.00   0.00000   0 ;     HA-    C3-   O31-   P31
  6068   6067   6070   6071      9     0.00   1.60247   3 ;     HA-    C3-   O31-   P31
  6069   6067   6065   6094      9     0.00   0.00000   0 ;     HB-    C3-    C2-   O21
  6069   6067   6065   6094      9     0.00   1.04600   1 ;     HB-    C3-    C2-   O21
  6069   6067   6070   6071      9     0.00   0.00000   0 ;     HB-    C3-   O31-   P31
  6069   6067   6070   6071      9     0.00   0.00000   0 ;     HB-    C3-   O31-   P31
  6069   6067   6070   6071      9     0.00   0.00000   0 ;     HB-    C3-   O31-   P31
  6069   6067   6070   6071      9     0.00   0.00000   0 ;     HB-    C3-   O31-   P31
  6069   6067   6070   6071      9     0.00   1.60247   3 ;     HB-    C3-   O31-   P31
  6070   6067   6065   6094      9     0.00   0.00000   0 ;    O31-    C3-    C2-   O21
  6070   6067   6065   6094      9     0.00   0.00000   0 ;    O31-    C3-    C2-   O21
  6070   6067   6065   6094      9     0.00   0.00000   0 ;    O31-    C3-    C2-   O21
  6070   6067   6065   6094      9     0.00   0.00000   0 ;    O31-    C3-    C2-   O21
  6070   6067   6065   6094      9     0.00   0.00000   0 ;    O31-    C3-    C2-   O21
  6070   6071   6072   6073      9     0.00   2.51040   3 ;    O31-   P31-   O32-   C31
  6070   6071   6072   6073      9     0.00   9.62320   2 ;    O31-   P31-   O32-   C31
  6071   6072   6073   6074      9     0.00   0.00000   0 ;    P31-   O32-   C31-   H1A
  6071   6072   6073   6074      9     0.00   0.00000   0 ;    P31-   O32-   C31-   H1A
  6071   6072   6073   6074      9     0.00   0.00000   0 ;    P31-   O32-   C31-   H1A
  6071   6072   6073   6074      9     0.00   0.00000   0 ;    P31-   O32-   C31-   H1A
  6071   6072   6073   6074      9     0.00   1.60247   3 ;    P31-   O32-   C31-   H1A
  6071   6072   6073   6075      9     0.00   0.00000   0 ;    P31-   O32-   C31-   H1B
  6071   6072   6073   6075      9     0.00   0.00000   0 ;    P31-   O32-   C31-   H1B
  6071   6072   6073   6075      9     0.00   0.00000   0 ;    P31-   O32-   C31-   H1B
  6071   6072   6073   6075      9     0.00   0.00000   0 ;    P31-   O32-   C31-   H1B
  6071   6072   6073   6075      9     0.00   1.60247   3 ;    P31-   O32-   C31-   H1B
  6071   6072   6073   6076      9     0.00   0.00000   0 ;    P31-   O32-   C31-   C32
  6071   6072   6073   6076      9   180.00  -3.34720   2 ;    P31-   O32-   C31-   C32
  6072   6073   6076   6077      9     0.00   0.65270   3 ;    O32-   C31-   C32-   H2A
  6072   6073   6076   6078      9     0.00   0.65270   3 ;    O32-   C31-   C32-   H2B
  6072   6073   6076   6079      9     0.00   4.18400   3 ;    O32-   C31-   C32-   N31
  6073   6072   6071   6092      9     0.00   0.00000   0 ;    C31-   O32-   P31-   O33
  6073   6072   6071   6092      9     0.00   0.00000   0 ;    C31-   O32-   P31-   O33
  6073   6072   6071   6092      9     0.00   0.00000   0 ;    C31-   O32-   P31-   O33
  6073   6072   6071   6092      9     0.00   0.00000   0 ;    C31-   O32-   P31-   O33
  6073   6072   6071   6092      9     0.00   0.83680   2 ;    C31-   O32-   P31-   O33
  6073   6072   6071   6093      9     0.00   0.00000   0 ;    C31-   O32-   P31-   O34
  6073   6072   6071   6093      9     0.00   0.00000   0 ;    C31-   O32-   P31-   O34
  6073   6072   6071   6093      9     0.00   0.00000   0 ;    C31-   O32-   P31-   O34
  6073   6072   6071   6093      9     0.00   0.00000   0 ;    C31-   O32-   P31-   O34
  6073   6072   6071   6093      9     0.00   0.83680   2 ;    C31-   O32-   P31-   O34
  6073   6076   6079   6080      9     0.00   0.65270   3 ;    C31-   C32-   N31-   C33
  6073   6076   6079   6084      9     0.00   0.65270   3 ;    C31-   C32-   N31-   C34
  6073   6076   6079   6088      9     0.00   0.65270   3 ;    C31-   C32-   N31-   C35
  6074   6073   6076   6077      9     0.00   0.65270   3 ;    H1A-   C31-   C32-   H2A
  6074   6073   6076   6078      9     0.00   0.65270   3 ;    H1A-   C31-   C32-   H2B
  6074   6073   6076   6079      9     0.00   0.65270   3 ;    H1A-   C31-   C32-   N31
  6075   6073   6076   6077      9     0.00   0.65270   3 ;    H1B-   C31-   C32-   H2A
  6075   6073   6076   6078      9     0.00   0.65270   3 ;    H1B-   C31-   C32-   H2B
  6075   6073   6076   6079      9     0.00   0.65270   3 ;    H1B-   C31-   C32-   N31
  6076   6079   6080   6081      9     0.00   0.65270   3 ;    C32-   N31-   C33-   H3A
  6076   6079   6080   6082      9     0.00   0.65270   3 ;    C32-   N31-   C33-   H3B
  6076   6079   6080   6083      9     0.00   0.65270   3 ;    C32-   N31-   C33-   H3C
  6076   6079   6084   6085      9     0.00   0.65270   3 ;    C32-   N31-   C34-   H4A
  6076   6079   6084   6086      9     0.00   0.65270   3 ;    C32-   N31-   C34-   H4B
  6076   6079   6084   6087      9     0.00   0.65270   3 ;    C32-   N31-   C34-   H4C
  6076   6079   6088   6089      9     0.00   0.65270   3 ;    C32-   N31-   C35-   H5A
  6076   6079   6088   6090      9     0.00   0.65270   3 ;    C32-   N31-   C35-   H5B
  6076   6079   6088   6091      9     0.00   0.65270   3 ;    C32-   N31-   C35-   H5C
  6077   6076   6079   6080      9     0.00   0.65270   3 ;    H2A-   C32-   N31-   C33
  6077   6076   6079   6084      9     0.00   0.65270   3 ;    H2A-   C32-   N31-   C34
  6077   6076   6079   6088      9     0.00   0.65270   3 ;    H2A-   C32-   N31-   C35
  6078   6076   6079   6080      9     0.00   0.65270   3 ;    H2B-   C32-   N31-   C33
  6078   6076   6079   6084      9     0.00   0.65270   3 ;    H2B-   C32-   N31-   C34
  6078   6076   6079   6088      9     0.00   0.65270   3 ;    H2B-   C32-   N31-   C35
  6080   6079   6084   6085      9     0.00   0.65270   3 ;    C33-   N31-   C34-   H4A
  6080   6079   6084   6086      9     0.00   0.65270   3 ;    C33-   N31-   C34-   H4B
  6080   6079   6084   6087      9     0.00   0.65270   3 ;    C33-   N31-   C34-   H4C
  6080   6079   6088   6089      9     0.00   0.65270   3 ;    C33-   N31-   C35-   H5A
  6080   6079   6088   6090      9     0.00   0.65270   3 ;    C33-   N31-   C35-   H5B
  6080   6079   6088   6091      9     0.00   0.65270   3 ;    C33-   N31-   C35-   H5C
  6081   6080   6079   6084      9     0.00   0.65270   3 ;    H3A-   C33-   N31-   C34
  6081   6080   6079   6088      9     0.00   0.65270   3 ;    H3A-   C33-   N31-   C35
  6082   6080   6079   6084      9     0.00   0.65270   3 ;    H3B-   C33-   N31-   C34
  6082   6080   6079   6088      9     0.00   0.65270   3 ;    H3B-   C33-   N31-   C35
  6083   6080   6079   6084      9     0.00   0.65270   3 ;    H3C-   C33-   N31-   C34
  6083   6080   6079   6088      9     0.00   0.65270   3 ;    H3C-   C33-   N31-   C35
  6084   6079   6088   6089      9     0.00   0.65270   3 ;    C34-   N31-   C35-   H5A
  6084   6079   6088   6090      9     0.00   0.65270   3 ;    C34-   N31-   C35-   H5B
  6084   6079   6088   6091      9     0.00   0.65270   3 ;    C34-   N31-   C35-   H5C
  6085   6084   6079   6088      9     0.00   0.65270   3 ;    H4A-   C34-   N31-   C35
  6086   6084   6079   6088      9     0.00   0.65270   3 ;    H4B-   C34-   N31-   C35
  6087   6084   6079   6088      9     0.00   0.65270   3 ;    H4C-   C34-   N31-   C35
  6094   6095   6134   6131      9   180.00   0.00000   2 ;    O21-   C21-   C12-   C13
  6094   6095   6134   6135      9   180.00   0.00000   2 ;    O21-   C21-   C12-   H2R
  6094   6095   6134   6136      9   180.00   0.00000   2 ;    O21-   C21-   C12-   H2S
  6095   6134   6131   6128      9     0.00   0.65270   3 ;    C21-   C12-   C13-   C14
  6095   6134   6131   6132      9     0.00   0.65270   3 ;    C21-   C12-   C13-   H3R
  6095   6134   6131   6133      9     0.00   0.65270   3 ;    C21-   C12-   C13-   H3S
  6096   6095   6134   6131      9   180.00   0.00000   2 ;    O22-   C21-   C12-   C13
  6096   6095   6134   6135      9     0.00   3.34720   1 ;    O22-   C21-   C12-   H2R
  6096   6095   6134   6135      9   180.00   0.33472   3 ;    O22-   C21-   C12-   H2R
  6096   6095   6134   6136      9     0.00   3.34720   1 ;    O22-   C21-   C12-   H2S
  6096   6095   6134   6136      9   180.00   0.33472   3 ;    O22-   C21-   C12-   H2S
  6097   6098   6101   6102      9     0.00   0.62760   3 ;   H14T-  C114-  C113-  H13R
  6097   6098   6101   6103      9     0.00   0.62760   3 ;   H14T-  C114-  C113-  H13S
  6097   6098   6101   6104      9     0.00   0.66944   3 ;   H14T-  C114-  C113-  C112
  6098   6101   6104   6105      9     0.00   0.66944   3 ;   C114-  C113-  C112-  H12R
  6098   6101   6104   6106      9     0.00   0.66944   3 ;   C114-  C113-  C112-  H12S
  6098   6101   6104   6107      9     0.00   0.41840   1 ;   C114-  C113-  C112-  C111
  6098   6101   6104   6107      9     0.00   0.41840   2 ;   C114-  C113-  C112-  C111
  6098   6101   6104   6107      9     0.00   0.41840   4 ;   C114-  C113-  C112-  C111
  6098   6101   6104   6107      9     0.00   0.41840   5 ;   C114-  C113-  C112-  C111
  6098   6101   6104   6107      9     0.00   1.25520   3 ;   C114-  C113-  C112-  C111
  6099   6098   6101   6102      9     0.00   0.62760   3 ;   H14R-  C114-  C113-  H13R
  6099   6098   6101   6103      9     0.00   0.62760   3 ;   H14R-  C114-  C113-  H13S
  6099   6098   6101   6104      9     0.00   0.66944   3 ;   H14R-  C114-  C113-  C112
  6100   6098   6101   6102      9     0.00   0.62760   3 ;   H14S-  C114-  C113-  H13R
  6100   6098   6101   6103      9     0.00   0.62760   3 ;   H14S-  C114-  C113-  H13S
  6100   6098   6101   6104      9     0.00   0.66944   3 ;   H14S-  C114-  C113-  C112
  6101   6104   6107   6108      9     0.00   0.66944   3 ;   C113-  C112-  C111-  H11R
  6101   6104   6107   6109      9     0.00   0.66944   3 ;   C113-  C112-  C111-  H11S
  6101   6104   6107   6110      9     0.00   0.41840   1 ;   C113-  C112-  C111-  C110
  6101   6104   6107   6110      9     0.00   0.41840   2 ;   C113-  C112-  C111-  C110
  6101   6104   6107   6110      9     0.00   0.41840   4 ;   C113-  C112-  C111-  C110
  6101   6104   6107   6110      9     0.00   0.41840   5 ;   C113-  C112-  C111-  C110
  6101   6104   6107   6110      9     0.00   1.25520   3 ;   C113-  C112-  C111-  C110
  6102   6101   6104   6105      9     0.00   0.62760   3 ;   H13R-  C113-  C112-  H12R
  6102   6101   6104   6106      9     0.00   0.62760   3 ;   H13R-  C113-  C112-  H12S
  6102   6101   6104   6107      9     0.00   0.66944   3 ;   H13R-  C113-  C112-  C111
  6103   6101   6104   6105      9     0.00   0.62760   3 ;   H13S-  C113-  C112-  H12R
  6103   6101   6104   6106      9     0.00   0.62760   3 ;   H13S-  C113-  C112-  H12S
  6103   6101   6104   6107      9     0.00   0.66944   3 ;   H13S-  C113-  C112-  C111
  6104   6107   6110   6111      9     0.00   0.66944   3 ;   C112-  C111-  C110-  H10R
  6104   6107   6110   6112      9     0.00   0.66944   3 ;   C112-  C111-  C110-  H10S
  6104   6107   6110   6113      9     0.00   0.41840   1 ;   C112-  C111-  C110-   C19
  6104   6107   6110   6113      9     0.00   0.41840   2 ;   C112-  C111-  C110-   C19
  6104   6107   6110   6113      9     0.00   0.41840   4 ;   C112-  C111-  C110-   C19
  6104   6107   6110   6113      9     0.00   0.41840   5 ;   C112-  C111-  C110-   C19
  6104   6107   6110   6113      9     0.00   1.25520   3 ;   C112-  C111-  C110-   C19
  6105   6104   6107   6108      9     0.00   0.62760   3 ;   H12R-  C112-  C111-  H11R
  6105   6104   6107   6109      9     0.00   0.62760   3 ;   H12R-  C112-  C111-  H11S
  6105   6104   6107   6110      9     0.00   0.66944   3 ;   H12R-  C112-  C111-  C110
  6106   6104   6107   6108      9     0.00   0.62760   3 ;   H12S-  C112-  C111-  H11R
  6106   6104   6107   6109      9     0.00   0.62760   3 ;   H12S-  C112-  C111-  H11S
  6106   6104   6107   6110      9     0.00   0.66944   3 ;   H12S-  C112-  C111-  C110
  6107   6110   6113   6114      9     0.00   0.66944   3 ;   C111-  C110-   C19-   H9R
  6107   6110   6113   6115      9     0.00   0.66944   3 ;   C111-  C110-   C19-   H9S
  6107   6110   6113   6116      9     0.00   0.41840   1 ;   C111-  C110-   C19-   C18
  6107   6110   6113   6116      9     0.00   0.41840   2 ;   C111-  C110-   C19-   C18
  6107   6110   6113   6116      9     0.00   0.41840   4 ;   C111-  C110-   C19-   C18
  6107   6110   6113   6116      9     0.00   0.41840   5 ;   C111-  C110-   C19-   C18
  6107   6110   6113   6116      9     0.00   1.25520   3 ;   C111-  C110-   C19-   C18
  6108   6107   6110   6111      9     0.00   0.62760   3 ;   H11R-  C111-  C110-  H10R
  6108   6107   6110   6112      9     0.00   0.62760   3 ;   H11R-  C111-  C110-  H10S
  6108   6107   6110   6113      9     0.00   0.66944   3 ;   H11R-  C111-  C110-   C19
  6109   6107   6110   6111      9     0.00   0.62760   3 ;   H11S-  C111-  C110-  H10R
  6109   6107   6110   6112      9     0.00   0.62760   3 ;   H11S-  C111-  C110-  H10S
  6109   6107   6110   6113      9     0.00   0.66944   3 ;   H11S-  C111-  C110-   C19
  6110   6113   6116   6117      9     0.00   0.66944   3 ;   C110-   C19-   C18-   H8R
  6110   6113   6116   6118      9     0.00   0.66944   3 ;   C110-   C19-   C18-   H8S
  6110   6113   6116   6119      9     0.00   0.41840   1 ;   C110-   C19-   C18-   C17
  6110   6113   6116   6119      9     0.00   0.41840   2 ;   C110-   C19-   C18-   C17
  6110   6113   6116   6119      9     0.00   0.41840   4 ;   C110-   C19-   C18-   C17
  6110   6113   6116   6119      9     0.00   0.41840   5 ;   C110-   C19-   C18-   C17
  6110   6113   6116   6119      9     0.00   1.25520   3 ;   C110-   C19-   C18-   C17
  6111   6110   6113   6114      9     0.00   0.62760   3 ;   H10R-  C110-   C19-   H9R
  6111   6110   6113   6115      9     0.00   0.62760   3 ;   H10R-  C110-   C19-   H9S
  6111   6110   6113   6116      9     0.00   0.66944   3 ;   H10R-  C110-   C19-   C18
  6112   6110   6113   6114      9     0.00   0.62760   3 ;   H10S-  C110-   C19-   H9R
  6112   6110   6113   6115      9     0.00   0.62760   3 ;   H10S-  C110-   C19-   H9S
  6112   6110   6113   6116      9     0.00   0.66944   3 ;   H10S-  C110-   C19-   C18
  6113   6116   6119   6120      9     0.00   0.66944   3 ;    C19-   C18-   C17-   H7R
  6113   6116   6119   6121      9     0.00   0.66944   3 ;    C19-   C18-   C17-   H7S
  6113   6116   6119   6122      9     0.00   0.41840   1 ;    C19-   C18-   C17-   C16
  6113   6116   6119   6122      9     0.00   0.41840   2 ;    C19-   C18-   C17-   C16
  6113   6116   6119   6122      9     0.00   0.41840   4 ;    C19-   C18-   C17-   C16
  6113   6116   6119   6122      9     0.00   0.41840   5 ;    C19-   C18-   C17-   C16
  6113   6116   6119   6122      9     0.00   1.25520   3 ;    C19-   C18-   C17-   C16
  6114   6113   6116   6117      9     0.00   0.62760   3 ;    H9R-   C19-   C18-   H8R
  6114   6113   6116   6118      9     0.00   0.62760   3 ;    H9R-   C19-   C18-   H8S
  6114   6113   6116   6119      9     0.00   0.66944   3 ;    H9R-   C19-   C18-   C17
  6115   6113   6116   6117      9     0.00   0.62760   3 ;    H9S-   C19-   C18-   H8R
  6115   6113   6116   6118      9     0.00   0.62760   3 ;    H9S-   C19-   C18-   H8S
  6115   6113   6116   6119      9     0.00   0.66944   3 ;    H9S-   C19-   C18-   C17
  6116   6119   6122   6123      9     0.00   0.66944   3 ;    C18-   C17-   C16-   H6R
  6116   6119   6122   6124      9     0.00   0.66944   3 ;    C18-   C17-   C16-   H6S
  6116   6119   6122   6125      9     0.00   0.41840   1 ;    C18-   C17-   C16-   C15
  6116   6119   6122   6125      9     0.00   0.41840   2 ;    C18-   C17-   C16-   C15
  6116   6119   6122   6125      9     0.00   0.41840   4 ;    C18-   C17-   C16-   C15
  6116   6119   6122   6125      9     0.00   0.41840   5 ;    C18-   C17-   C16-   C15
  6116   6119   6122   6125      9     0.00   1.25520   3 ;    C18-   C17-   C16-   C15
  6117   6116   6119   6120      9     0.00   0.62760   3 ;    H8R-   C18-   C17-   H7R
  6117   6116   6119   6121      9     0.00   0.62760   3 ;    H8R-   C18-   C17-   H7S
  6117   6116   6119   6122      9     0.00   0.66944   3 ;    H8R-   C18-   C17-   C16
  6118   6116   6119   6120      9     0.00   0.62760   3 ;    H8S-   C18-   C17-   H7R
  6118   6116   6119   6121      9     0.00   0.62760   3 ;    H8S-   C18-   C17-   H7S
  6118   6116   6119   6122      9     0.00   0.66944   3 ;    H8S-   C18-   C17-   C16
  6119   6122   6125   6126      9     0.00   0.66944   3 ;    C17-   C16-   C15-   H5R
  6119   6122   6125   6127      9     0.00   0.66944   3 ;    C17-   C16-   C15-   H5S
  6119   6122   6125   6128      9     0.00   0.41840   1 ;    C17-   C16-   C15-   C14
  6119   6122   6125   6128      9     0.00   0.41840   2 ;    C17-   C16-   C15-   C14
  6119   6122   6125   6128      9     0.00   0.41840   4 ;    C17-   C16-   C15-   C14
  6119   6122   6125   6128      9     0.00   0.41840   5 ;    C17-   C16-   C15-   C14
  6119   6122   6125   6128      9     0.00   1.25520   3 ;    C17-   C16-   C15-   C14
  6120   6119   6122   6123      9     0.00   0.62760   3 ;    H7R-   C17-   C16-   H6R
  6120   6119   6122   6124      9     0.00   0.62760   3 ;    H7R-   C17-   C16-   H6S
  6120   6119   6122   6125      9     0.00   0.66944   3 ;    H7R-   C17-   C16-   C15
  6121   6119   6122   6123      9     0.00   0.62760   3 ;    H7S-   C17-   C16-   H6R
  6121   6119   6122   6124      9     0.00   0.62760   3 ;    H7S-   C17-   C16-   H6S
  6121   6119   6122   6125      9     0.00   0.66944   3 ;    H7S-   C17-   C16-   C15
  6122   6125   6128   6129      9     0.00   0.66944   3 ;    C16-   C15-   C14-   H4R
  6122   6125   6128   6130      9     0.00   0.66944   3 ;    C16-   C15-   C14-   H4S
  6122   6125   6128   6131      9     0.00   0.41840   1 ;    C16-   C15-   C14-   C13
  6122   6125   6128   6131      9     0.00   0.41840   2 ;    C16-   C15-   C14-   C13
  6122   6125   6128   6131      9     0.00   0.41840   4 ;    C16-   C15-   C14-   C13
  6122   6125   6128   6131      9     0.00   0.41840   5 ;    C16-   C15-   C14-   C13
  6122   6125   6128   6131      9     0.00   1.25520   3 ;    C16-   C15-   C14-   C13
  6123   6122   6125   6126      9     0.00   0.62760   3 ;    H6R-   C16-   C15-   H5R
  6123   6122   6125   6127      9     0.00   0.62760   3 ;    H6R-   C16-   C15-   H5S
  6123   6122   6125   6128      9     0.00   0.66944   3 ;    H6R-   C16-   C15-   C14
  6124   6122   6125   6126      9     0.00   0.62760   3 ;    H6S-   C16-   C15-   H5R
  6124   6122   6125   6127      9     0.00   0.62760   3 ;    H6S-   C16-   C15-   H5S
  6124   6122   6125   6128      9     0.00   0.66944   3 ;    H6S-   C16-   C15-   C14
  6125   6128   6131   6132      9     0.00   0.66944   3 ;    C15-   C14-   C13-   H3R
  6125   6128   6131   6133      9     0.00   0.66944   3 ;    C15-   C14-   C13-   H3S
  6125   6128   6131   6134      9     0.00   0.41840   1 ;    C15-   C14-   C13-   C12
  6125   6128   6131   6134      9     0.00   0.41840   2 ;    C15-   C14-   C13-   C12
  6125   6128   6131   6134      9     0.00   0.41840   4 ;    C15-   C14-   C13-   C12
  6125   6128   6131   6134      9     0.00   0.41840   5 ;    C15-   C14-   C13-   C12
  6125   6128   6131   6134      9     0.00   1.25520   3 ;    C15-   C14-   C13-   C12
  6126   6125   6128   6129      9     0.00   0.62760   3 ;    H5R-   C15-   C14-   H4R
  6126   6125   6128   6130      9     0.00   0.62760   3 ;    H5R-   C15-   C14-   H4S
  6126   6125   6128   6131      9     0.00   0.66944   3 ;    H5R-   C15-   C14-   C13
  6127   6125   6128   6129      9     0.00   0.62760   3 ;    H5S-   C15-   C14-   H4R
  6127   6125   6128   6130      9     0.00   0.62760   3 ;    H5S-   C15-   C14-   H4S
  6127   6125   6128   6131      9     0.00   0.66944   3 ;    H5S-   C15-   C14-   C13
  6128   6131   6134   6135      9     0.00   0.66944   3 ;    C14-   C13-   C12-   H2R
  6128   6131   6134   6136      9     0.00   0.66944   3 ;    C14-   C13-   C12-   H2S
  6129   6128   6131   6132      9     0.00   0.62760   3 ;    H4R-   C14-   C13-   H3R
  6129   6128   6131   6133      9     0.00   0.62760   3 ;    H4R-   C14-   C13-   H3S
  6129   6128   6131   6134      9     0.00   0.66944   3 ;    H4R-   C14-   C13-   C12
  6130   6128   6131   6132      9     0.00   0.62760   3 ;    H4S-   C14-   C13-   H3R
  6130   6128   6131   6133      9     0.00   0.62760   3 ;    H4S-   C14-   C13-   H3S
  6130   6128   6131   6134      9     0.00   0.66944   3 ;    H4S-   C14-   C13-   C12
  6132   6131   6134   6135      9     0.00   0.62760   3 ;    H3R-   C13-   C12-   H2R
  6132   6131   6134   6136      9     0.00   0.62760   3 ;    H3R-   C13-   C12-   H2S
  6133   6131   6134   6135      9     0.00   0.62760   3 ;    H3S-   C13-   C12-   H2R
  6133   6131   6134   6136      9     0.00   0.62760   3 ;    H3S-   C13-   C12-   H2S
  6137   6138   6141   6142      9     0.00   0.62760   3 ;   H14T-  C114-  C113-  H13R
  6137   6138   6141   6143      9     0.00   0.62760   3 ;   H14T-  C114-  C113-  H13S
  6137   6138   6141   6144      9     0.00   0.66944   3 ;   H14T-  C114-  C113-  C112
  6138   6141   6144   6145      9     0.00   0.66944   3 ;   C114-  C113-  C112-  H12R
  6138   6141   6144   6146      9     0.00   0.66944   3 ;   C114-  C113-  C112-  H12S
  6138   6141   6144   6147      9     0.00   0.41840   1 ;   C114-  C113-  C112-  C111
  6138   6141   6144   6147      9     0.00   0.41840   2 ;   C114-  C113-  C112-  C111
  6138   6141   6144   6147      9     0.00   0.41840   4 ;   C114-  C113-  C112-  C111
  6138   6141   6144   6147      9     0.00   0.41840   5 ;   C114-  C113-  C112-  C111
  6138   6141   6144   6147      9     0.00   1.25520   3 ;   C114-  C113-  C112-  C111
  6139   6138   6141   6142      9     0.00   0.62760   3 ;   H14R-  C114-  C113-  H13R
  6139   6138   6141   6143      9     0.00   0.62760   3 ;   H14R-  C114-  C113-  H13S
  6139   6138   6141   6144      9     0.00   0.66944   3 ;   H14R-  C114-  C113-  C112
  6140   6138   6141   6142      9     0.00   0.62760   3 ;   H14S-  C114-  C113-  H13R
  6140   6138   6141   6143      9     0.00   0.62760   3 ;   H14S-  C114-  C113-  H13S
  6140   6138   6141   6144      9     0.00   0.66944   3 ;   H14S-  C114-  C113-  C112
  6141   6144   6147   6148      9     0.00   0.66944   3 ;   C113-  C112-  C111-  H11R
  6141   6144   6147   6149      9     0.00   0.66944   3 ;   C113-  C112-  C111-  H11S
  6141   6144   6147   6150      9     0.00   0.41840   1 ;   C113-  C112-  C111-  C110
  6141   6144   6147   6150      9     0.00   0.41840   2 ;   C113-  C112-  C111-  C110
  6141   6144   6147   6150      9     0.00   0.41840   4 ;   C113-  C112-  C111-  C110
  6141   6144   6147   6150      9     0.00   0.41840   5 ;   C113-  C112-  C111-  C110
  6141   6144   6147   6150      9     0.00   1.25520   3 ;   C113-  C112-  C111-  C110
  6142   6141   6144   6145      9     0.00   0.62760   3 ;   H13R-  C113-  C112-  H12R
  6142   6141   6144   6146      9     0.00   0.62760   3 ;   H13R-  C113-  C112-  H12S
  6142   6141   6144   6147      9     0.00   0.66944   3 ;   H13R-  C113-  C112-  C111
  6143   6141   6144   6145      9     0.00   0.62760   3 ;   H13S-  C113-  C112-  H12R
  6143   6141   6144   6146      9     0.00   0.62760   3 ;   H13S-  C113-  C112-  H12S
  6143   6141   6144   6147      9     0.00   0.66944   3 ;   H13S-  C113-  C112-  C111
  6144   6147   6150   6151      9     0.00   0.66944   3 ;   C112-  C111-  C110-  H10R
  6144   6147   6150   6152      9     0.00   0.66944   3 ;   C112-  C111-  C110-  H10S
  6144   6147   6150   6153      9     0.00   0.41840   1 ;   C112-  C111-  C110-   C19
  6144   6147   6150   6153      9     0.00   0.41840   2 ;   C112-  C111-  C110-   C19
  6144   6147   6150   6153      9     0.00   0.41840   4 ;   C112-  C111-  C110-   C19
  6144   6147   6150   6153      9     0.00   0.41840   5 ;   C112-  C111-  C110-   C19
  6144   6147   6150   6153      9     0.00   1.25520   3 ;   C112-  C111-  C110-   C19
  6145   6144   6147   6148      9     0.00   0.62760   3 ;   H12R-  C112-  C111-  H11R
  6145   6144   6147   6149      9     0.00   0.62760   3 ;   H12R-  C112-  C111-  H11S
  6145   6144   6147   6150      9     0.00   0.66944   3 ;   H12R-  C112-  C111-  C110
  6146   6144   6147   6148      9     0.00   0.62760   3 ;   H12S-  C112-  C111-  H11R
  6146   6144   6147   6149      9     0.00   0.62760   3 ;   H12S-  C112-  C111-  H11S
  6146   6144   6147   6150      9     0.00   0.66944   3 ;   H12S-  C112-  C111-  C110
  6147   6150   6153   6154      9     0.00   0.66944   3 ;   C111-  C110-   C19-   H9R
  6147   6150   6153   6155      9     0.00   0.66944   3 ;   C111-  C110-   C19-   H9S
  6147   6150   6153   6156      9     0.00   0.41840   1 ;   C111-  C110-   C19-   C18
  6147   6150   6153   6156      9     0.00   0.41840   2 ;   C111-  C110-   C19-   C18
  6147   6150   6153   6156      9     0.00   0.41840   4 ;   C111-  C110-   C19-   C18
  6147   6150   6153   6156      9     0.00   0.41840   5 ;   C111-  C110-   C19-   C18
  6147   6150   6153   6156      9     0.00   1.25520   3 ;   C111-  C110-   C19-   C18
  6148   6147   6150   6151      9     0.00   0.62760   3 ;   H11R-  C111-  C110-  H10R
  6148   6147   6150   6152      9     0.00   0.62760   3 ;   H11R-  C111-  C110-  H10S
  6148   6147   6150   6153      9     0.00   0.66944   3 ;   H11R-  C111-  C110-   C19
  6149   6147   6150   6151      9     0.00   0.62760   3 ;   H11S-  C111-  C110-  H10R
  6149   6147   6150   6152      9     0.00   0.62760   3 ;   H11S-  C111-  C110-  H10S
  6149   6147   6150   6153      9     0.00   0.66944   3 ;   H11S-  C111-  C110-   C19
  6150   6153   6156   6157      9     0.00   0.66944   3 ;   C110-   C19-   C18-   H8R
  6150   6153   6156   6158      9     0.00   0.66944   3 ;   C110-   C19-   C18-   H8S
  6150   6153   6156   6159      9     0.00   0.41840   1 ;   C110-   C19-   C18-   C17
  6150   6153   6156   6159      9     0.00   0.41840   2 ;   C110-   C19-   C18-   C17
  6150   6153   6156   6159      9     0.00   0.41840   4 ;   C110-   C19-   C18-   C17
  6150   6153   6156   6159      9     0.00   0.41840   5 ;   C110-   C19-   C18-   C17
  6150   6153   6156   6159      9     0.00   1.25520   3 ;   C110-   C19-   C18-   C17
  6151   6150   6153   6154      9     0.00   0.62760   3 ;   H10R-  C110-   C19-   H9R
  6151   6150   6153   6155      9     0.00   0.62760   3 ;   H10R-  C110-   C19-   H9S
  6151   6150   6153   6156      9     0.00   0.66944   3 ;   H10R-  C110-   C19-   C18
  6152   6150   6153   6154      9     0.00   0.62760   3 ;   H10S-  C110-   C19-   H9R
  6152   6150   6153   6155      9     0.00   0.62760   3 ;   H10S-  C110-   C19-   H9S
  6152   6150   6153   6156      9     0.00   0.66944   3 ;   H10S-  C110-   C19-   C18
  6153   6156   6159   6160      9     0.00   0.66944   3 ;    C19-   C18-   C17-   H7R
  6153   6156   6159   6161      9     0.00   0.66944   3 ;    C19-   C18-   C17-   H7S
  6153   6156   6159   6162      9     0.00   0.41840   1 ;    C19-   C18-   C17-   C16
  6153   6156   6159   6162      9     0.00   0.41840   2 ;    C19-   C18-   C17-   C16
  6153   6156   6159   6162      9     0.00   0.41840   4 ;    C19-   C18-   C17-   C16
  6153   6156   6159   6162      9     0.00   0.41840   5 ;    C19-   C18-   C17-   C16
  6153   6156   6159   6162      9     0.00   1.25520   3 ;    C19-   C18-   C17-   C16
  6154   6153   6156   6157      9     0.00   0.62760   3 ;    H9R-   C19-   C18-   H8R
  6154   6153   6156   6158      9     0.00   0.62760   3 ;    H9R-   C19-   C18-   H8S
  6154   6153   6156   6159      9     0.00   0.66944   3 ;    H9R-   C19-   C18-   C17
  6155   6153   6156   6157      9     0.00   0.62760   3 ;    H9S-   C19-   C18-   H8R
  6155   6153   6156   6158      9     0.00   0.62760   3 ;    H9S-   C19-   C18-   H8S
  6155   6153   6156   6159      9     0.00   0.66944   3 ;    H9S-   C19-   C18-   C17
  6156   6159   6162   6163      9     0.00   0.66944   3 ;    C18-   C17-   C16-   H6R
  6156   6159   6162   6164      9     0.00   0.66944   3 ;    C18-   C17-   C16-   H6S
  6156   6159   6162   6165      9     0.00   0.41840   1 ;    C18-   C17-   C16-   C15
  6156   6159   6162   6165      9     0.00   0.41840   2 ;    C18-   C17-   C16-   C15
  6156   6159   6162   6165      9     0.00   0.41840   4 ;    C18-   C17-   C16-   C15
  6156   6159   6162   6165      9     0.00   0.41840   5 ;    C18-   C17-   C16-   C15
  6156   6159   6162   6165      9     0.00   1.25520   3 ;    C18-   C17-   C16-   C15
  6157   6156   6159   6160      9     0.00   0.62760   3 ;    H8R-   C18-   C17-   H7R
  6157   6156   6159   6161      9     0.00   0.62760   3 ;    H8R-   C18-   C17-   H7S
  6157   6156   6159   6162      9     0.00   0.66944   3 ;    H8R-   C18-   C17-   C16
  6158   6156   6159   6160      9     0.00   0.62760   3 ;    H8S-   C18-   C17-   H7R
  6158   6156   6159   6161      9     0.00   0.62760   3 ;    H8S-   C18-   C17-   H7S
  6158   6156   6159   6162      9     0.00   0.66944   3 ;    H8S-   C18-   C17-   C16
  6159   6162   6165   6166      9     0.00   0.66944   3 ;    C17-   C16-   C15-   H5R
  6159   6162   6165   6167      9     0.00   0.66944   3 ;    C17-   C16-   C15-   H5S
  6159   6162   6165   6168      9     0.00   0.41840   1 ;    C17-   C16-   C15-   C14
  6159   6162   6165   6168      9     0.00   0.41840   2 ;    C17-   C16-   C15-   C14
  6159   6162   6165   6168      9     0.00   0.41840   4 ;    C17-   C16-   C15-   C14
  6159   6162   6165   6168      9     0.00   0.41840   5 ;    C17-   C16-   C15-   C14
  6159   6162   6165   6168      9     0.00   1.25520   3 ;    C17-   C16-   C15-   C14
  6160   6159   6162   6163      9     0.00   0.62760   3 ;    H7R-   C17-   C16-   H6R
  6160   6159   6162   6164      9     0.00   0.62760   3 ;    H7R-   C17-   C16-   H6S
  6160   6159   6162   6165      9     0.00   0.66944   3 ;    H7R-   C17-   C16-   C15
  6161   6159   6162   6163      9     0.00   0.62760   3 ;    H7S-   C17-   C16-   H6R
  6161   6159   6162   6164      9     0.00   0.62760   3 ;    H7S-   C17-   C16-   H6S
  6161   6159   6162   6165      9     0.00   0.66944   3 ;    H7S-   C17-   C16-   C15
  6162   6165   6168   6169      9     0.00   0.66944   3 ;    C16-   C15-   C14-   H4R
  6162   6165   6168   6170      9     0.00   0.66944   3 ;    C16-   C15-   C14-   H4S
  6162   6165   6168   6171      9     0.00   0.41840   1 ;    C16-   C15-   C14-   C13
  6162   6165   6168   6171      9     0.00   0.41840   2 ;    C16-   C15-   C14-   C13
  6162   6165   6168   6171      9     0.00   0.41840   4 ;    C16-   C15-   C14-   C13
  6162   6165   6168   6171      9     0.00   0.41840   5 ;    C16-   C15-   C14-   C13
  6162   6165   6168   6171      9     0.00   1.25520   3 ;    C16-   C15-   C14-   C13
  6163   6162   6165   6166      9     0.00   0.62760   3 ;    H6R-   C16-   C15-   H5R
  6163   6162   6165   6167      9     0.00   0.62760   3 ;    H6R-   C16-   C15-   H5S
  6163   6162   6165   6168      9     0.00   0.66944   3 ;    H6R-   C16-   C15-   C14
  6164   6162   6165   6166      9     0.00   0.62760   3 ;    H6S-   C16-   C15-   H5R
  6164   6162   6165   6167      9     0.00   0.62760   3 ;    H6S-   C16-   C15-   H5S
  6164   6162   6165   6168      9     0.00   0.66944   3 ;    H6S-   C16-   C15-   C14
  6165   6168   6171   6172      9     0.00   0.66944   3 ;    C15-   C14-   C13-   H3R
  6165   6168   6171   6173      9     0.00   0.66944   3 ;    C15-   C14-   C13-   H3S
  6165   6168   6171   6174      9     0.00   0.41840   1 ;    C15-   C14-   C13-   C12
  6165   6168   6171   6174      9     0.00   0.41840   2 ;    C15-   C14-   C13-   C12
  6165   6168   6171   6174      9     0.00   0.41840   4 ;    C15-   C14-   C13-   C12
  6165   6168   6171   6174      9     0.00   0.41840   5 ;    C15-   C14-   C13-   C12
  6165   6168   6171   6174      9     0.00   1.25520   3 ;    C15-   C14-   C13-   C12
  6166   6165   6168   6169      9     0.00   0.62760   3 ;    H5R-   C15-   C14-   H4R
  6166   6165   6168   6170      9     0.00   0.62760   3 ;    H5R-   C15-   C14-   H4S
  6166   6165   6168   6171      9     0.00   0.66944   3 ;    H5R-   C15-   C14-   C13
  6167   6165   6168   6169      9     0.00   0.62760   3 ;    H5S-   C15-   C14-   H4R
  6167   6165   6168   6170      9     0.00   0.62760   3 ;    H5S-   C15-   C14-   H4S
  6167   6165   6168   6171      9     0.00   0.66944   3 ;    H5S-   C15-   C14-   C13
  6168   6171   6174   6175      9     0.00   0.66944   3 ;    C14-   C13-   C12-   H2R
  6168   6171   6174   6176      9     0.00   0.66944   3 ;    C14-   C13-   C12-   H2S
  6168   6171   6174   6177      9     0.00   0.65270   3 ;    C14-   C13-   C12-   C11
  6169   6168   6171   6172      9     0.00   0.62760   3 ;    H4R-   C14-   C13-   H3R
  6169   6168   6171   6173      9     0.00   0.62760   3 ;    H4R-   C14-   C13-   H3S
  6169   6168   6171   6174      9     0.00   0.66944   3 ;    H4R-   C14-   C13-   C12
  6170   6168   6171   6172      9     0.00   0.62760   3 ;    H4S-   C14-   C13-   H3R
  6170   6168   6171   6173      9     0.00   0.62760   3 ;    H4S-   C14-   C13-   H3S
  6170   6168   6171   6174      9     0.00   0.66944   3 ;    H4S-   C14-   C13-   C12
  6171   6174   6177   6178      9   180.00   0.00000   2 ;    C13-   C12-   C11-   O12
  6171   6174   6177   6179      9   180.00   0.00000   2 ;    C13-   C12-   C11-   O11
  6172   6171   6174   6175      9     0.00   0.62760   3 ;    H3R-   C13-   C12-   H2R
  6172   6171   6174   6176      9     0.00   0.62760   3 ;    H3R-   C13-   C12-   H2S
  6172   6171   6174   6177      9     0.00   0.65270   3 ;    H3R-   C13-   C12-   C11
  6173   6171   6174   6175      9     0.00   0.62760   3 ;    H3S-   C13-   C12-   H2R
  6173   6171   6174   6176      9     0.00   0.62760   3 ;    H3S-   C13-   C12-   H2S
  6173   6171   6174   6177      9     0.00   0.65270   3 ;    H3S-   C13-   C12-   C11
  6174   6177   6179   6180      9   180.00  11.29680   2 ;    C12-   C11-   O11-    C1
  6175   6174   6177   6178      9     0.00   3.34720   1 ;    H2R-   C12-   C11-   O12
  6175   6174   6177   6178      9   180.00   0.33472   3 ;    H2R-   C12-   C11-   O12
  6175   6174   6177   6179      9   180.00   0.00000   2 ;    H2R-   C12-   C11-   O11
  6176   6174   6177   6178      9     0.00   3.34720   1 ;    H2S-   C12-   C11-   O12
  6176   6174   6177   6178      9   180.00   0.33472   3 ;    H2S-   C12-   C11-   O12
  6176   6174   6177   6179      9   180.00   0.00000   2 ;    H2S-   C12-   C11-   O11
  6177   6179   6180   6181      9     0.00   1.60247   3 ;    C11-   O11-    C1-    HR
  6177   6179   6180   6182      9     0.00   1.60247   3 ;    C11-   O11-    C1-    HS
  6177   6179   6180   6183      9     0.00  -0.41840   1 ;    C11-   O11-    C1-    C2
  6178   6177   6179   6180      9   180.00   5.85760   1 ;    O12-   C11-   O11-    C1
  6178   6177   6179   6180      9   180.00  11.29680   2 ;    O12-   C11-   O11-    C1
  6179   6180   6183   6184      9     0.00   0.00000   0 ;    O11-    C1-    C2-    HX
  6179   6180   6183   6184      9     0.00   1.04600   1 ;    O11-    C1-    C2-    HX
  6179   6180   6183   6185      9     0.00   0.00000   0 ;    O11-    C1-    C2-    C3
  6179   6180   6183   6185      9     0.00   0.00000   0 ;    O11-    C1-    C2-    C3
  6179   6180   6183   6185      9     0.00   0.00000   0 ;    O11-    C1-    C2-    C3
  6179   6180   6183   6185      9     0.00   0.00000   0 ;    O11-    C1-    C2-    C3
  6179   6180   6183   6185      9     0.00   0.00000   0 ;    O11-    C1-    C2-    C3
  6179   6180   6183   6212      9     0.00   1.25520   2 ;    O11-    C1-    C2-   O21
  6179   6180   6183   6212      9     0.00   4.18400   3 ;    O11-    C1-    C2-   O21
  6179   6180   6183   6212      9   180.00  -0.41840   1 ;    O11-    C1-    C2-   O21
  6180   6183   6185   6186      9     0.00   0.65270   3 ;     C1-    C2-    C3-    HA
  6180   6183   6185   6187      9     0.00   0.65270   3 ;     C1-    C2-    C3-    HB
  6180   6183   6185   6188      9   180.00   3.34720   1 ;     C1-    C2-    C3-   O31
  6180   6183   6212   6213      9     0.00  -0.41840   1 ;     C1-    C2-   O21-   C21
  6181   6180   6183   6184      9     0.00   0.65270   3 ;     HR-    C1-    C2-    HX
  6181   6180   6183   6185      9     0.00   0.65270   3 ;     HR-    C1-    C2-    C3
  6181   6180   6183   6212      9     0.00   0.00000   0 ;     HR-    C1-    C2-   O21
  6181   6180   6183   6212      9     0.00   1.04600   1 ;     HR-    C1-    C2-   O21
  6182   6180   6183   6184      9     0.00   0.65270   3 ;     HS-    C1-    C2-    HX
  6182   6180   6183   6185      9     0.00   0.65270   3 ;     HS-    C1-    C2-    C3
  6182   6180   6183   6212      9     0.00   0.00000   0 ;     HS-    C1-    C2-   O21
  6182   6180   6183   6212      9     0.00   1.04600   1 ;     HS-    C1-    C2-   O21
  6183   6185   6188   6189      9     0.00   0.00000   0 ;     C2-    C3-   O31-   P31
  6183   6185   6188   6189      9   180.00  -3.34720   2 ;     C2-    C3-   O31-   P31
  6183   6212   6213   6214      9   180.00   5.85760   1 ;     C2-   O21-   C21-   O22
  6183   6212   6213   6214      9   180.00  11.29680   2 ;     C2-   O21-   C21-   O22
  6183   6212   6213   6252      9   180.00  11.29680   2 ;     C2-   O21-   C21-   C12
  6184   6183   6185   6186      9     0.00   0.65270   3 ;     HX-    C2-    C3-    HA
  6184   6183   6185   6187      9     0.00   0.65270   3 ;     HX-    C2-    C3-    HB
  6184   6183   6185   6188      9     0.00   0.00000   0 ;     HX-    C2-    C3-   O31
  6184   6183   6185   6188      9     0.00   1.04600   1 ;     HX-    C2-    C3-   O31
  6184   6183   6212   6213      9     0.00   1.60247   3 ;     HX-    C2-   O21-   C21
  6185   6183   6212   6213      9     0.00  -0.41840   1 ;     C3-    C2-   O21-   C21
  6185   6188   6189   6190      9     0.00   2.51040   3 ;     C3-   O31-   P31-   O32
  6185   6188   6189   6190      9     0.00   9.62320   2 ;     C3-   O31-   P31-   O32
  6185   6188   6189   6210      9     0.00   0.00000   0 ;     C3-   O31-   P31-   O33
  6185   6188   6189   6210      9     0.00   0.00000   0 ;     C3-   O31-   P31-   O33
  6185   6188   6189   6210      9     0.00   0.00000   0 ;     C3-   O31-   P31-   O33
  6185   6188   6189   6210      9     0.00   0.00000   0 ;     C3-   O31-   P31-   O33
  6185   6188   6189   6210      9     0.00   0.83680   2 ;     C3-   O31-   P31-   O33
  6185   6188   6189   6211      9     0.00   0.00000   0 ;     C3-   O31-   P31-   O34
  6185   6188   6189   6211      9     0.00   0.00000   0 ;     C3-   O31-   P31-   O34
  6185   6188   6189   6211      9     0.00   0.00000   0 ;     C3-   O31-   P31-   O34
  6185   6188   6189   6211      9     0.00   0.00000   0 ;     C3-   O31-   P31-   O34
  6185   6188   6189   6211      9     0.00   0.83680   2 ;     C3-   O31-   P31-   O34
  6186   6185   6183   6212      9     0.00   0.00000   0 ;     HA-    C3-    C2-   O21
  6186   6185   6183   6212      9     0.00   1.04600   1 ;     HA-    C3-    C2-   O21
  6186   6185   6188   6189      9     0.00   0.00000   0 ;     HA-    C3-   O31-   P31
  6186   6185   6188   6189      9     0.00   0.00000   0 ;     HA-    C3-   O31-   P31
  6186   6185   6188   6189      9     0.00   0.00000   0 ;     HA-    C3-   O31-   P31
  6186   6185   6188   6189      9     0.00   0.00000   0 ;     HA-    C3-   O31-   P31
  6186   6185   6188   6189      9     0.00   1.60247   3 ;     HA-    C3-   O31-   P31
  6187   6185   6183   6212      9     0.00   0.00000   0 ;     HB-    C3-    C2-   O21
  6187   6185   6183   6212      9     0.00   1.04600   1 ;     HB-    C3-    C2-   O21
  6187   6185   6188   6189      9     0.00   0.00000   0 ;     HB-    C3-   O31-   P31
  6187   6185   6188   6189      9     0.00   0.00000   0 ;     HB-    C3-   O31-   P31
  6187   6185   6188   6189      9     0.00   0.00000   0 ;     HB-    C3-   O31-   P31
  6187   6185   6188   6189      9     0.00   0.00000   0 ;     HB-    C3-   O31-   P31
  6187   6185   6188   6189      9     0.00   1.60247   3 ;     HB-    C3-   O31-   P31
  6188   6185   6183   6212      9     0.00   0.00000   0 ;    O31-    C3-    C2-   O21
  6188   6185   6183   6212      9     0.00   0.00000   0 ;    O31-    C3-    C2-   O21
  6188   6185   6183   6212      9     0.00   0.00000   0 ;    O31-    C3-    C2-   O21
  6188   6185   6183   6212      9     0.00   0.00000   0 ;    O31-    C3-    C2-   O21
  6188   6185   6183   6212      9     0.00   0.00000   0 ;    O31-    C3-    C2-   O21
  6188   6189   6190   6191      9     0.00   2.51040   3 ;    O31-   P31-   O32-   C31
  6188   6189   6190   6191      9     0.00   9.62320   2 ;    O31-   P31-   O32-   C31
  6189   6190   6191   6192      9     0.00   0.00000   0 ;    P31-   O32-   C31-   H1A
  6189   6190   6191   6192      9     0.00   0.00000   0 ;    P31-   O32-   C31-   H1A
  6189   6190   6191   6192      9     0.00   0.00000   0 ;    P31-   O32-   C31-   H1A
  6189   6190   6191   6192      9     0.00   0.00000   0 ;    P31-   O32-   C31-   H1A
  6189   6190   6191   6192      9     0.00   1.60247   3 ;    P31-   O32-   C31-   H1A
  6189   6190   6191   6193      9     0.00   0.00000   0 ;    P31-   O32-   C31-   H1B
  6189   6190   6191   6193      9     0.00   0.00000   0 ;    P31-   O32-   C31-   H1B
  6189   6190   6191   6193      9     0.00   0.00000   0 ;    P31-   O32-   C31-   H1B
  6189   6190   6191   6193      9     0.00   0.00000   0 ;    P31-   O32-   C31-   H1B
  6189   6190   6191   6193      9     0.00   1.60247   3 ;    P31-   O32-   C31-   H1B
  6189   6190   6191   6194      9     0.00   0.00000   0 ;    P31-   O32-   C31-   C32
  6189   6190   6191   6194      9   180.00  -3.34720   2 ;    P31-   O32-   C31-   C32
  6190   6191   6194   6195      9     0.00   0.65270   3 ;    O32-   C31-   C32-   H2A
  6190   6191   6194   6196      9     0.00   0.65270   3 ;    O32-   C31-   C32-   H2B
  6190   6191   6194   6197      9     0.00   4.18400   3 ;    O32-   C31-   C32-   N31
  6191   6190   6189   6210      9     0.00   0.00000   0 ;    C31-   O32-   P31-   O33
  6191   6190   6189   6210      9     0.00   0.00000   0 ;    C31-   O32-   P31-   O33
  6191   6190   6189   6210      9     0.00   0.00000   0 ;    C31-   O32-   P31-   O33
  6191   6190   6189   6210      9     0.00   0.00000   0 ;    C31-   O32-   P31-   O33
  6191   6190   6189   6210      9     0.00   0.83680   2 ;    C31-   O32-   P31-   O33
  6191   6190   6189   6211      9     0.00   0.00000   0 ;    C31-   O32-   P31-   O34
  6191   6190   6189   6211      9     0.00   0.00000   0 ;    C31-   O32-   P31-   O34
  6191   6190   6189   6211      9     0.00   0.00000   0 ;    C31-   O32-   P31-   O34
  6191   6190   6189   6211      9     0.00   0.00000   0 ;    C31-   O32-   P31-   O34
  6191   6190   6189   6211      9     0.00   0.83680   2 ;    C31-   O32-   P31-   O34
  6191   6194   6197   6198      9     0.00   0.65270   3 ;    C31-   C32-   N31-   C33
  6191   6194   6197   6202      9     0.00   0.65270   3 ;    C31-   C32-   N31-   C34
  6191   6194   6197   6206      9     0.00   0.65270   3 ;    C31-   C32-   N31-   C35
  6192   6191   6194   6195      9     0.00   0.65270   3 ;    H1A-   C31-   C32-   H2A
  6192   6191   6194   6196      9     0.00   0.65270   3 ;    H1A-   C31-   C32-   H2B
  6192   6191   6194   6197      9     0.00   0.65270   3 ;    H1A-   C31-   C32-   N31
  6193   6191   6194   6195      9     0.00   0.65270   3 ;    H1B-   C31-   C32-   H2A
  6193   6191   6194   6196      9     0.00   0.65270   3 ;    H1B-   C31-   C32-   H2B
  6193   6191   6194   6197      9     0.00   0.65270   3 ;    H1B-   C31-   C32-   N31
  6194   6197   6198   6199      9     0.00   0.65270   3 ;    C32-   N31-   C33-   H3A
  6194   6197   6198   6200      9     0.00   0.65270   3 ;    C32-   N31-   C33-   H3B
  6194   6197   6198   6201      9     0.00   0.65270   3 ;    C32-   N31-   C33-   H3C
  6194   6197   6202   6203      9     0.00   0.65270   3 ;    C32-   N31-   C34-   H4A
  6194   6197   6202   6204      9     0.00   0.65270   3 ;    C32-   N31-   C34-   H4B
  6194   6197   6202   6205      9     0.00   0.65270   3 ;    C32-   N31-   C34-   H4C
  6194   6197   6206   6207      9     0.00   0.65270   3 ;    C32-   N31-   C35-   H5A
  6194   6197   6206   6208      9     0.00   0.65270   3 ;    C32-   N31-   C35-   H5B
  6194   6197   6206   6209      9     0.00   0.65270   3 ;    C32-   N31-   C35-   H5C
  6195   6194   6197   6198      9     0.00   0.65270   3 ;    H2A-   C32-   N31-   C33
  6195   6194   6197   6202      9     0.00   0.65270   3 ;    H2A-   C32-   N31-   C34
  6195   6194   6197   6206      9     0.00   0.65270   3 ;    H2A-   C32-   N31-   C35
  6196   6194   6197   6198      9     0.00   0.65270   3 ;    H2B-   C32-   N31-   C33
  6196   6194   6197   6202      9     0.00   0.65270   3 ;    H2B-   C32-   N31-   C34
  6196   6194   6197   6206      9     0.00   0.65270   3 ;    H2B-   C32-   N31-   C35
  6198   6197   6202   6203      9     0.00   0.65270   3 ;    C33-   N31-   C34-   H4A
  6198   6197   6202   6204      9     0.00   0.65270   3 ;    C33-   N31-   C34-   H4B
  6198   6197   6202   6205      9     0.00   0.65270   3 ;    C33-   N31-   C34-   H4C
  6198   6197   6206   6207      9     0.00   0.65270   3 ;    C33-   N31-   C35-   H5A
  6198   6197   6206   6208      9     0.00   0.65270   3 ;    C33-   N31-   C35-   H5B
  6198   6197   6206   6209      9     0.00   0.65270   3 ;    C33-   N31-   C35-   H5C
  6199   6198   6197   6202      9     0.00   0.65270   3 ;    H3A-   C33-   N31-   C34
  6199   6198   6197   6206      9     0.00   0.65270   3 ;    H3A-   C33-   N31-   C35
  6200   6198   6197   6202      9     0.00   0.65270   3 ;    H3B-   C33-   N31-   C34
  6200   6198   6197   6206      9     0.00   0.65270   3 ;    H3B-   C33-   N31-   C35
  6201   6198   6197   6202      9     0.00   0.65270   3 ;    H3C-   C33-   N31-   C34
  6201   6198   6197   6206      9     0.00   0.65270   3 ;    H3C-   C33-   N31-   C35
  6202   6197   6206   6207      9     0.00   0.65270   3 ;    C34-   N31-   C35-   H5A
  6202   6197   6206   6208      9     0.00   0.65270   3 ;    C34-   N31-   C35-   H5B
  6202   6197   6206   6209      9     0.00   0.65270   3 ;    C34-   N31-   C35-   H5C
  6203   6202   6197   6206      9     0.00   0.65270   3 ;    H4A-   C34-   N31-   C35
  6204   6202   6197   6206      9     0.00   0.65270   3 ;    H4B-   C34-   N31-   C35
  6205   6202   6197   6206      9     0.00   0.65270   3 ;    H4C-   C34-   N31-   C35
  6212   6213   6252   6249      9   180.00   0.00000   2 ;    O21-   C21-   C12-   C13
  6212   6213   6252   6253      9   180.00   0.00000   2 ;    O21-   C21-   C12-   H2R
  6212   6213   6252   6254      9   180.00   0.00000   2 ;    O21-   C21-   C12-   H2S
  6213   6252   6249   6246      9     0.00   0.65270   3 ;    C21-   C12-   C13-   C14
  6213   6252   6249   6250      9     0.00   0.65270   3 ;    C21-   C12-   C13-   H3R
  6213   6252   6249   6251      9     0.00   0.65270   3 ;    C21-   C12-   C13-   H3S
  6214   6213   6252   6249      9   180.00   0.00000   2 ;    O22-   C21-   C12-   C13
  6214   6213   6252   6253      9     0.00   3.34720   1 ;    O22-   C21-   C12-   H2R
  6214   6213   6252   6253      9   180.00   0.33472   3 ;    O22-   C21-   C12-   H2R
  6214   6213   6252   6254      9     0.00   3.34720   1 ;    O22-   C21-   C12-   H2S
  6214   6213   6252   6254      9   180.00   0.33472   3 ;    O22-   C21-   C12-   H2S
  6215   6216   6219   6220      9     0.00   0.62760   3 ;   H14T-  C114-  C113-  H13R
  6215   6216   6219   6221      9     0.00   0.62760   3 ;   H14T-  C114-  C113-  H13S
  6215   6216   6219   6222      9     0.00   0.66944   3 ;   H14T-  C114-  C113-  C112
  6216   6219   6222   6223      9     0.00   0.66944   3 ;   C114-  C113-  C112-  H12R
  6216   6219   6222   6224      9     0.00   0.66944   3 ;   C114-  C113-  C112-  H12S
  6216   6219   6222   6225      9     0.00   0.41840   1 ;   C114-  C113-  C112-  C111
  6216   6219   6222   6225      9     0.00   0.41840   2 ;   C114-  C113-  C112-  C111
  6216   6219   6222   6225      9     0.00   0.41840   4 ;   C114-  C113-  C112-  C111
  6216   6219   6222   6225      9     0.00   0.41840   5 ;   C114-  C113-  C112-  C111
  6216   6219   6222   6225      9     0.00   1.25520   3 ;   C114-  C113-  C112-  C111
  6217   6216   6219   6220      9     0.00   0.62760   3 ;   H14R-  C114-  C113-  H13R
  6217   6216   6219   6221      9     0.00   0.62760   3 ;   H14R-  C114-  C113-  H13S
  6217   6216   6219   6222      9     0.00   0.66944   3 ;   H14R-  C114-  C113-  C112
  6218   6216   6219   6220      9     0.00   0.62760   3 ;   H14S-  C114-  C113-  H13R
  6218   6216   6219   6221      9     0.00   0.62760   3 ;   H14S-  C114-  C113-  H13S
  6218   6216   6219   6222      9     0.00   0.66944   3 ;   H14S-  C114-  C113-  C112
  6219   6222   6225   6226      9     0.00   0.66944   3 ;   C113-  C112-  C111-  H11R
  6219   6222   6225   6227      9     0.00   0.66944   3 ;   C113-  C112-  C111-  H11S
  6219   6222   6225   6228      9     0.00   0.41840   1 ;   C113-  C112-  C111-  C110
  6219   6222   6225   6228      9     0.00   0.41840   2 ;   C113-  C112-  C111-  C110
  6219   6222   6225   6228      9     0.00   0.41840   4 ;   C113-  C112-  C111-  C110
  6219   6222   6225   6228      9     0.00   0.41840   5 ;   C113-  C112-  C111-  C110
  6219   6222   6225   6228      9     0.00   1.25520   3 ;   C113-  C112-  C111-  C110
  6220   6219   6222   6223      9     0.00   0.62760   3 ;   H13R-  C113-  C112-  H12R
  6220   6219   6222   6224      9     0.00   0.62760   3 ;   H13R-  C113-  C112-  H12S
  6220   6219   6222   6225      9     0.00   0.66944   3 ;   H13R-  C113-  C112-  C111
  6221   6219   6222   6223      9     0.00   0.62760   3 ;   H13S-  C113-  C112-  H12R
  6221   6219   6222   6224      9     0.00   0.62760   3 ;   H13S-  C113-  C112-  H12S
  6221   6219   6222   6225      9     0.00   0.66944   3 ;   H13S-  C113-  C112-  C111
  6222   6225   6228   6229      9     0.00   0.66944   3 ;   C112-  C111-  C110-  H10R
  6222   6225   6228   6230      9     0.00   0.66944   3 ;   C112-  C111-  C110-  H10S
  6222   6225   6228   6231      9     0.00   0.41840   1 ;   C112-  C111-  C110-   C19
  6222   6225   6228   6231      9     0.00   0.41840   2 ;   C112-  C111-  C110-   C19
  6222   6225   6228   6231      9     0.00   0.41840   4 ;   C112-  C111-  C110-   C19
  6222   6225   6228   6231      9     0.00   0.41840   5 ;   C112-  C111-  C110-   C19
  6222   6225   6228   6231      9     0.00   1.25520   3 ;   C112-  C111-  C110-   C19
  6223   6222   6225   6226      9     0.00   0.62760   3 ;   H12R-  C112-  C111-  H11R
  6223   6222   6225   6227      9     0.00   0.62760   3 ;   H12R-  C112-  C111-  H11S
  6223   6222   6225   6228      9     0.00   0.66944   3 ;   H12R-  C112-  C111-  C110
  6224   6222   6225   6226      9     0.00   0.62760   3 ;   H12S-  C112-  C111-  H11R
  6224   6222   6225   6227      9     0.00   0.62760   3 ;   H12S-  C112-  C111-  H11S
  6224   6222   6225   6228      9     0.00   0.66944   3 ;   H12S-  C112-  C111-  C110
  6225   6228   6231   6232      9     0.00   0.66944   3 ;   C111-  C110-   C19-   H9R
  6225   6228   6231   6233      9     0.00   0.66944   3 ;   C111-  C110-   C19-   H9S
  6225   6228   6231   6234      9     0.00   0.41840   1 ;   C111-  C110-   C19-   C18
  6225   6228   6231   6234      9     0.00   0.41840   2 ;   C111-  C110-   C19-   C18
  6225   6228   6231   6234      9     0.00   0.41840   4 ;   C111-  C110-   C19-   C18
  6225   6228   6231   6234      9     0.00   0.41840   5 ;   C111-  C110-   C19-   C18
  6225   6228   6231   6234      9     0.00   1.25520   3 ;   C111-  C110-   C19-   C18
  6226   6225   6228   6229      9     0.00   0.62760   3 ;   H11R-  C111-  C110-  H10R
  6226   6225   6228   6230      9     0.00   0.62760   3 ;   H11R-  C111-  C110-  H10S
  6226   6225   6228   6231      9     0.00   0.66944   3 ;   H11R-  C111-  C110-   C19
  6227   6225   6228   6229      9     0.00   0.62760   3 ;   H11S-  C111-  C110-  H10R
  6227   6225   6228   6230      9     0.00   0.62760   3 ;   H11S-  C111-  C110-  H10S
  6227   6225   6228   6231      9     0.00   0.66944   3 ;   H11S-  C111-  C110-   C19
  6228   6231   6234   6235      9     0.00   0.66944   3 ;   C110-   C19-   C18-   H8R
  6228   6231   6234   6236      9     0.00   0.66944   3 ;   C110-   C19-   C18-   H8S
  6228   6231   6234   6237      9     0.00   0.41840   1 ;   C110-   C19-   C18-   C17
  6228   6231   6234   6237      9     0.00   0.41840   2 ;   C110-   C19-   C18-   C17
  6228   6231   6234   6237      9     0.00   0.41840   4 ;   C110-   C19-   C18-   C17
  6228   6231   6234   6237      9     0.00   0.41840   5 ;   C110-   C19-   C18-   C17
  6228   6231   6234   6237      9     0.00   1.25520   3 ;   C110-   C19-   C18-   C17
  6229   6228   6231   6232      9     0.00   0.62760   3 ;   H10R-  C110-   C19-   H9R
  6229   6228   6231   6233      9     0.00   0.62760   3 ;   H10R-  C110-   C19-   H9S
  6229   6228   6231   6234      9     0.00   0.66944   3 ;   H10R-  C110-   C19-   C18
  6230   6228   6231   6232      9     0.00   0.62760   3 ;   H10S-  C110-   C19-   H9R
  6230   6228   6231   6233      9     0.00   0.62760   3 ;   H10S-  C110-   C19-   H9S
  6230   6228   6231   6234      9     0.00   0.66944   3 ;   H10S-  C110-   C19-   C18
  6231   6234   6237   6238      9     0.00   0.66944   3 ;    C19-   C18-   C17-   H7R
  6231   6234   6237   6239      9     0.00   0.66944   3 ;    C19-   C18-   C17-   H7S
  6231   6234   6237   6240      9     0.00   0.41840   1 ;    C19-   C18-   C17-   C16
  6231   6234   6237   6240      9     0.00   0.41840   2 ;    C19-   C18-   C17-   C16
  6231   6234   6237   6240      9     0.00   0.41840   4 ;    C19-   C18-   C17-   C16
  6231   6234   6237   6240      9     0.00   0.41840   5 ;    C19-   C18-   C17-   C16
  6231   6234   6237   6240      9     0.00   1.25520   3 ;    C19-   C18-   C17-   C16
  6232   6231   6234   6235      9     0.00   0.62760   3 ;    H9R-   C19-   C18-   H8R
  6232   6231   6234   6236      9     0.00   0.62760   3 ;    H9R-   C19-   C18-   H8S
  6232   6231   6234   6237      9     0.00   0.66944   3 ;    H9R-   C19-   C18-   C17
  6233   6231   6234   6235      9     0.00   0.62760   3 ;    H9S-   C19-   C18-   H8R
  6233   6231   6234   6236      9     0.00   0.62760   3 ;    H9S-   C19-   C18-   H8S
  6233   6231   6234   6237      9     0.00   0.66944   3 ;    H9S-   C19-   C18-   C17
  6234   6237   6240   6241      9     0.00   0.66944   3 ;    C18-   C17-   C16-   H6R
  6234   6237   6240   6242      9     0.00   0.66944   3 ;    C18-   C17-   C16-   H6S
  6234   6237   6240   6243      9     0.00   0.41840   1 ;    C18-   C17-   C16-   C15
  6234   6237   6240   6243      9     0.00   0.41840   2 ;    C18-   C17-   C16-   C15
  6234   6237   6240   6243      9     0.00   0.41840   4 ;    C18-   C17-   C16-   C15
  6234   6237   6240   6243      9     0.00   0.41840   5 ;    C18-   C17-   C16-   C15
  6234   6237   6240   6243      9     0.00   1.25520   3 ;    C18-   C17-   C16-   C15
  6235   6234   6237   6238      9     0.00   0.62760   3 ;    H8R-   C18-   C17-   H7R
  6235   6234   6237   6239      9     0.00   0.62760   3 ;    H8R-   C18-   C17-   H7S
  6235   6234   6237   6240      9     0.00   0.66944   3 ;    H8R-   C18-   C17-   C16
  6236   6234   6237   6238      9     0.00   0.62760   3 ;    H8S-   C18-   C17-   H7R
  6236   6234   6237   6239      9     0.00   0.62760   3 ;    H8S-   C18-   C17-   H7S
  6236   6234   6237   6240      9     0.00   0.66944   3 ;    H8S-   C18-   C17-   C16
  6237   6240   6243   6244      9     0.00   0.66944   3 ;    C17-   C16-   C15-   H5R
  6237   6240   6243   6245      9     0.00   0.66944   3 ;    C17-   C16-   C15-   H5S
  6237   6240   6243   6246      9     0.00   0.41840   1 ;    C17-   C16-   C15-   C14
  6237   6240   6243   6246      9     0.00   0.41840   2 ;    C17-   C16-   C15-   C14
  6237   6240   6243   6246      9     0.00   0.41840   4 ;    C17-   C16-   C15-   C14
  6237   6240   6243   6246      9     0.00   0.41840   5 ;    C17-   C16-   C15-   C14
  6237   6240   6243   6246      9     0.00   1.25520   3 ;    C17-   C16-   C15-   C14
  6238   6237   6240   6241      9     0.00   0.62760   3 ;    H7R-   C17-   C16-   H6R
  6238   6237   6240   6242      9     0.00   0.62760   3 ;    H7R-   C17-   C16-   H6S
  6238   6237   6240   6243      9     0.00   0.66944   3 ;    H7R-   C17-   C16-   C15
  6239   6237   6240   6241      9     0.00   0.62760   3 ;    H7S-   C17-   C16-   H6R
  6239   6237   6240   6242      9     0.00   0.62760   3 ;    H7S-   C17-   C16-   H6S
  6239   6237   6240   6243      9     0.00   0.66944   3 ;    H7S-   C17-   C16-   C15
  6240   6243   6246   6247      9     0.00   0.66944   3 ;    C16-   C15-   C14-   H4R
  6240   6243   6246   6248      9     0.00   0.66944   3 ;    C16-   C15-   C14-   H4S
  6240   6243   6246   6249      9     0.00   0.41840   1 ;    C16-   C15-   C14-   C13
  6240   6243   6246   6249      9     0.00   0.41840   2 ;    C16-   C15-   C14-   C13
  6240   6243   6246   6249      9     0.00   0.41840   4 ;    C16-   C15-   C14-   C13
  6240   6243   6246   6249      9     0.00   0.41840   5 ;    C16-   C15-   C14-   C13
  6240   6243   6246   6249      9     0.00   1.25520   3 ;    C16-   C15-   C14-   C13
  6241   6240   6243   6244      9     0.00   0.62760   3 ;    H6R-   C16-   C15-   H5R
  6241   6240   6243   6245      9     0.00   0.62760   3 ;    H6R-   C16-   C15-   H5S
  6241   6240   6243   6246      9     0.00   0.66944   3 ;    H6R-   C16-   C15-   C14
  6242   6240   6243   6244      9     0.00   0.62760   3 ;    H6S-   C16-   C15-   H5R
  6242   6240   6243   6245      9     0.00   0.62760   3 ;    H6S-   C16-   C15-   H5S
  6242   6240   6243   6246      9     0.00   0.66944   3 ;    H6S-   C16-   C15-   C14
  6243   6246   6249   6250      9     0.00   0.66944   3 ;    C15-   C14-   C13-   H3R
  6243   6246   6249   6251      9     0.00   0.66944   3 ;    C15-   C14-   C13-   H3S
  6243   6246   6249   6252      9     0.00   0.41840   1 ;    C15-   C14-   C13-   C12
  6243   6246   6249   6252      9     0.00   0.41840   2 ;    C15-   C14-   C13-   C12
  6243   6246   6249   6252      9     0.00   0.41840   4 ;    C15-   C14-   C13-   C12
  6243   6246   6249   6252      9     0.00   0.41840   5 ;    C15-   C14-   C13-   C12
  6243   6246   6249   6252      9     0.00   1.25520   3 ;    C15-   C14-   C13-   C12
  6244   6243   6246   6247      9     0.00   0.62760   3 ;    H5R-   C15-   C14-   H4R
  6244   6243   6246   6248      9     0.00   0.62760   3 ;    H5R-   C15-   C14-   H4S
  6244   6243   6246   6249      9     0.00   0.66944   3 ;    H5R-   C15-   C14-   C13
  6245   6243   6246   6247      9     0.00   0.62760   3 ;    H5S-   C15-   C14-   H4R
  6245   6243   6246   6248      9     0.00   0.62760   3 ;    H5S-   C15-   C14-   H4S
  6245   6243   6246   6249      9     0.00   0.66944   3 ;    H5S-   C15-   C14-   C13
  6246   6249   6252   6253      9     0.00   0.66944   3 ;    C14-   C13-   C12-   H2R
  6246   6249   6252   6254      9     0.00   0.66944   3 ;    C14-   C13-   C12-   H2S
  6247   6246   6249   6250      9     0.00   0.62760   3 ;    H4R-   C14-   C13-   H3R
  6247   6246   6249   6251      9     0.00   0.62760   3 ;    H4R-   C14-   C13-   H3S
  6247   6246   6249   6252      9     0.00   0.66944   3 ;    H4R-   C14-   C13-   C12
  6248   6246   6249   6250      9     0.00   0.62760   3 ;    H4S-   C14-   C13-   H3R
  6248   6246   6249   6251      9     0.00   0.62760   3 ;    H4S-   C14-   C13-   H3S
  6248   6246   6249   6252      9     0.00   0.66944   3 ;    H4S-   C14-   C13-   C12
  6250   6249   6252   6253      9     0.00   0.62760   3 ;    H3R-   C13-   C12-   H2R
  6250   6249   6252   6254      9     0.00   0.62760   3 ;    H3R-   C13-   C12-   H2S
  6251   6249   6252   6253      9     0.00   0.62760   3 ;    H3S-   C13-   C12-   H2R
  6251   6249   6252   6254      9     0.00   0.62760   3 ;    H3S-   C13-   C12-   H2S
  6255   6256   6259   6260      9     0.00   0.62760   3 ;   H14T-  C114-  C113-  H13R
  6255   6256   6259   6261      9     0.00   0.62760   3 ;   H14T-  C114-  C113-  H13S
  6255   6256   6259   6262      9     0.00   0.66944   3 ;   H14T-  C114-  C113-  C112
  6256   6259   6262   6263      9     0.00   0.66944   3 ;   C114-  C113-  C112-  H12R
  6256   6259   6262   6264      9     0.00   0.66944   3 ;   C114-  C113-  C112-  H12S
  6256   6259   6262   6265      9     0.00   0.41840   1 ;   C114-  C113-  C112-  C111
  6256   6259   6262   6265      9     0.00   0.41840   2 ;   C114-  C113-  C112-  C111
  6256   6259   6262   6265      9     0.00   0.41840   4 ;   C114-  C113-  C112-  C111
  6256   6259   6262   6265      9     0.00   0.41840   5 ;   C114-  C113-  C112-  C111
  6256   6259   6262   6265      9     0.00   1.25520   3 ;   C114-  C113-  C112-  C111
  6257   6256   6259   6260      9     0.00   0.62760   3 ;   H14R-  C114-  C113-  H13R
  6257   6256   6259   6261      9     0.00   0.62760   3 ;   H14R-  C114-  C113-  H13S
  6257   6256   6259   6262      9     0.00   0.66944   3 ;   H14R-  C114-  C113-  C112
  6258   6256   6259   6260      9     0.00   0.62760   3 ;   H14S-  C114-  C113-  H13R
  6258   6256   6259   6261      9     0.00   0.62760   3 ;   H14S-  C114-  C113-  H13S
  6258   6256   6259   6262      9     0.00   0.66944   3 ;   H14S-  C114-  C113-  C112
  6259   6262   6265   6266      9     0.00   0.66944   3 ;   C113-  C112-  C111-  H11R
  6259   6262   6265   6267      9     0.00   0.66944   3 ;   C113-  C112-  C111-  H11S
  6259   6262   6265   6268      9     0.00   0.41840   1 ;   C113-  C112-  C111-  C110
  6259   6262   6265   6268      9     0.00   0.41840   2 ;   C113-  C112-  C111-  C110
  6259   6262   6265   6268      9     0.00   0.41840   4 ;   C113-  C112-  C111-  C110
  6259   6262   6265   6268      9     0.00   0.41840   5 ;   C113-  C112-  C111-  C110
  6259   6262   6265   6268      9     0.00   1.25520   3 ;   C113-  C112-  C111-  C110
  6260   6259   6262   6263      9     0.00   0.62760   3 ;   H13R-  C113-  C112-  H12R
  6260   6259   6262   6264      9     0.00   0.62760   3 ;   H13R-  C113-  C112-  H12S
  6260   6259   6262   6265      9     0.00   0.66944   3 ;   H13R-  C113-  C112-  C111
  6261   6259   6262   6263      9     0.00   0.62760   3 ;   H13S-  C113-  C112-  H12R
  6261   6259   6262   6264      9     0.00   0.62760   3 ;   H13S-  C113-  C112-  H12S
  6261   6259   6262   6265      9     0.00   0.66944   3 ;   H13S-  C113-  C112-  C111
  6262   6265   6268   6269      9     0.00   0.66944   3 ;   C112-  C111-  C110-  H10R
  6262   6265   6268   6270      9     0.00   0.66944   3 ;   C112-  C111-  C110-  H10S
  6262   6265   6268   6271      9     0.00   0.41840   1 ;   C112-  C111-  C110-   C19
  6262   6265   6268   6271      9     0.00   0.41840   2 ;   C112-  C111-  C110-   C19
  6262   6265   6268   6271      9     0.00   0.41840   4 ;   C112-  C111-  C110-   C19
  6262   6265   6268   6271      9     0.00   0.41840   5 ;   C112-  C111-  C110-   C19
  6262   6265   6268   6271      9     0.00   1.25520   3 ;   C112-  C111-  C110-   C19
  6263   6262   6265   6266      9     0.00   0.62760   3 ;   H12R-  C112-  C111-  H11R
  6263   6262   6265   6267      9     0.00   0.62760   3 ;   H12R-  C112-  C111-  H11S
  6263   6262   6265   6268      9     0.00   0.66944   3 ;   H12R-  C112-  C111-  C110
  6264   6262   6265   6266      9     0.00   0.62760   3 ;   H12S-  C112-  C111-  H11R
  6264   6262   6265   6267      9     0.00   0.62760   3 ;   H12S-  C112-  C111-  H11S
  6264   6262   6265   6268      9     0.00   0.66944   3 ;   H12S-  C112-  C111-  C110
  6265   6268   6271   6272      9     0.00   0.66944   3 ;   C111-  C110-   C19-   H9R
  6265   6268   6271   6273      9     0.00   0.66944   3 ;   C111-  C110-   C19-   H9S
  6265   6268   6271   6274      9     0.00   0.41840   1 ;   C111-  C110-   C19-   C18
  6265   6268   6271   6274      9     0.00   0.41840   2 ;   C111-  C110-   C19-   C18
  6265   6268   6271   6274      9     0.00   0.41840   4 ;   C111-  C110-   C19-   C18
  6265   6268   6271   6274      9     0.00   0.41840   5 ;   C111-  C110-   C19-   C18
  6265   6268   6271   6274      9     0.00   1.25520   3 ;   C111-  C110-   C19-   C18
  6266   6265   6268   6269      9     0.00   0.62760   3 ;   H11R-  C111-  C110-  H10R
  6266   6265   6268   6270      9     0.00   0.62760   3 ;   H11R-  C111-  C110-  H10S
  6266   6265   6268   6271      9     0.00   0.66944   3 ;   H11R-  C111-  C110-   C19
  6267   6265   6268   6269      9     0.00   0.62760   3 ;   H11S-  C111-  C110-  H10R
  6267   6265   6268   6270      9     0.00   0.62760   3 ;   H11S-  C111-  C110-  H10S
  6267   6265   6268   6271      9     0.00   0.66944   3 ;   H11S-  C111-  C110-   C19
  6268   6271   6274   6275      9     0.00   0.66944   3 ;   C110-   C19-   C18-   H8R
  6268   6271   6274   6276      9     0.00   0.66944   3 ;   C110-   C19-   C18-   H8S
  6268   6271   6274   6277      9     0.00   0.41840   1 ;   C110-   C19-   C18-   C17
  6268   6271   6274   6277      9     0.00   0.41840   2 ;   C110-   C19-   C18-   C17
  6268   6271   6274   6277      9     0.00   0.41840   4 ;   C110-   C19-   C18-   C17
  6268   6271   6274   6277      9     0.00   0.41840   5 ;   C110-   C19-   C18-   C17
  6268   6271   6274   6277      9     0.00   1.25520   3 ;   C110-   C19-   C18-   C17
  6269   6268   6271   6272      9     0.00   0.62760   3 ;   H10R-  C110-   C19-   H9R
  6269   6268   6271   6273      9     0.00   0.62760   3 ;   H10R-  C110-   C19-   H9S
  6269   6268   6271   6274      9     0.00   0.66944   3 ;   H10R-  C110-   C19-   C18
  6270   6268   6271   6272      9     0.00   0.62760   3 ;   H10S-  C110-   C19-   H9R
  6270   6268   6271   6273      9     0.00   0.62760   3 ;   H10S-  C110-   C19-   H9S
  6270   6268   6271   6274      9     0.00   0.66944   3 ;   H10S-  C110-   C19-   C18
  6271   6274   6277   6278      9     0.00   0.66944   3 ;    C19-   C18-   C17-   H7R
  6271   6274   6277   6279      9     0.00   0.66944   3 ;    C19-   C18-   C17-   H7S
  6271   6274   6277   6280      9     0.00   0.41840   1 ;    C19-   C18-   C17-   C16
  6271   6274   6277   6280      9     0.00   0.41840   2 ;    C19-   C18-   C17-   C16
  6271   6274   6277   6280      9     0.00   0.41840   4 ;    C19-   C18-   C17-   C16
  6271   6274   6277   6280      9     0.00   0.41840   5 ;    C19-   C18-   C17-   C16
  6271   6274   6277   6280      9     0.00   1.25520   3 ;    C19-   C18-   C17-   C16
  6272   6271   6274   6275      9     0.00   0.62760   3 ;    H9R-   C19-   C18-   H8R
  6272   6271   6274   6276      9     0.00   0.62760   3 ;    H9R-   C19-   C18-   H8S
  6272   6271   6274   6277      9     0.00   0.66944   3 ;    H9R-   C19-   C18-   C17
  6273   6271   6274   6275      9     0.00   0.62760   3 ;    H9S-   C19-   C18-   H8R
  6273   6271   6274   6276      9     0.00   0.62760   3 ;    H9S-   C19-   C18-   H8S
  6273   6271   6274   6277      9     0.00   0.66944   3 ;    H9S-   C19-   C18-   C17
  6274   6277   6280   6281      9     0.00   0.66944   3 ;    C18-   C17-   C16-   H6R
  6274   6277   6280   6282      9     0.00   0.66944   3 ;    C18-   C17-   C16-   H6S
  6274   6277   6280   6283      9     0.00   0.41840   1 ;    C18-   C17-   C16-   C15
  6274   6277   6280   6283      9     0.00   0.41840   2 ;    C18-   C17-   C16-   C15
  6274   6277   6280   6283      9     0.00   0.41840   4 ;    C18-   C17-   C16-   C15
  6274   6277   6280   6283      9     0.00   0.41840   5 ;    C18-   C17-   C16-   C15
  6274   6277   6280   6283      9     0.00   1.25520   3 ;    C18-   C17-   C16-   C15
  6275   6274   6277   6278      9     0.00   0.62760   3 ;    H8R-   C18-   C17-   H7R
  6275   6274   6277   6279      9     0.00   0.62760   3 ;    H8R-   C18-   C17-   H7S
  6275   6274   6277   6280      9     0.00   0.66944   3 ;    H8R-   C18-   C17-   C16
  6276   6274   6277   6278      9     0.00   0.62760   3 ;    H8S-   C18-   C17-   H7R
  6276   6274   6277   6279      9     0.00   0.62760   3 ;    H8S-   C18-   C17-   H7S
  6276   6274   6277   6280      9     0.00   0.66944   3 ;    H8S-   C18-   C17-   C16
  6277   6280   6283   6284      9     0.00   0.66944   3 ;    C17-   C16-   C15-   H5R
  6277   6280   6283   6285      9     0.00   0.66944   3 ;    C17-   C16-   C15-   H5S
  6277   6280   6283   6286      9     0.00   0.41840   1 ;    C17-   C16-   C15-   C14
  6277   6280   6283   6286      9     0.00   0.41840   2 ;    C17-   C16-   C15-   C14
  6277   6280   6283   6286      9     0.00   0.41840   4 ;    C17-   C16-   C15-   C14
  6277   6280   6283   6286      9     0.00   0.41840   5 ;    C17-   C16-   C15-   C14
  6277   6280   6283   6286      9     0.00   1.25520   3 ;    C17-   C16-   C15-   C14
  6278   6277   6280   6281      9     0.00   0.62760   3 ;    H7R-   C17-   C16-   H6R
  6278   6277   6280   6282      9     0.00   0.62760   3 ;    H7R-   C17-   C16-   H6S
  6278   6277   6280   6283      9     0.00   0.66944   3 ;    H7R-   C17-   C16-   C15
  6279   6277   6280   6281      9     0.00   0.62760   3 ;    H7S-   C17-   C16-   H6R
  6279   6277   6280   6282      9     0.00   0.62760   3 ;    H7S-   C17-   C16-   H6S
  6279   6277   6280   6283      9     0.00   0.66944   3 ;    H7S-   C17-   C16-   C15
  6280   6283   6286   6287      9     0.00   0.66944   3 ;    C16-   C15-   C14-   H4R
  6280   6283   6286   6288      9     0.00   0.66944   3 ;    C16-   C15-   C14-   H4S
  6280   6283   6286   6289      9     0.00   0.41840   1 ;    C16-   C15-   C14-   C13
  6280   6283   6286   6289      9     0.00   0.41840   2 ;    C16-   C15-   C14-   C13
  6280   6283   6286   6289      9     0.00   0.41840   4 ;    C16-   C15-   C14-   C13
  6280   6283   6286   6289      9     0.00   0.41840   5 ;    C16-   C15-   C14-   C13
  6280   6283   6286   6289      9     0.00   1.25520   3 ;    C16-   C15-   C14-   C13
  6281   6280   6283   6284      9     0.00   0.62760   3 ;    H6R-   C16-   C15-   H5R
  6281   6280   6283   6285      9     0.00   0.62760   3 ;    H6R-   C16-   C15-   H5S
  6281   6280   6283   6286      9     0.00   0.66944   3 ;    H6R-   C16-   C15-   C14
  6282   6280   6283   6284      9     0.00   0.62760   3 ;    H6S-   C16-   C15-   H5R
  6282   6280   6283   6285      9     0.00   0.62760   3 ;    H6S-   C16-   C15-   H5S
  6282   6280   6283   6286      9     0.00   0.66944   3 ;    H6S-   C16-   C15-   C14
  6283   6286   6289   6290      9     0.00   0.66944   3 ;    C15-   C14-   C13-   H3R
  6283   6286   6289   6291      9     0.00   0.66944   3 ;    C15-   C14-   C13-   H3S
  6283   6286   6289   6292      9     0.00   0.41840   1 ;    C15-   C14-   C13-   C12
  6283   6286   6289   6292      9     0.00   0.41840   2 ;    C15-   C14-   C13-   C12
  6283   6286   6289   6292      9     0.00   0.41840   4 ;    C15-   C14-   C13-   C12
  6283   6286   6289   6292      9     0.00   0.41840   5 ;    C15-   C14-   C13-   C12
  6283   6286   6289   6292      9     0.00   1.25520   3 ;    C15-   C14-   C13-   C12
  6284   6283   6286   6287      9     0.00   0.62760   3 ;    H5R-   C15-   C14-   H4R
  6284   6283   6286   6288      9     0.00   0.62760   3 ;    H5R-   C15-   C14-   H4S
  6284   6283   6286   6289      9     0.00   0.66944   3 ;    H5R-   C15-   C14-   C13
  6285   6283   6286   6287      9     0.00   0.62760   3 ;    H5S-   C15-   C14-   H4R
  6285   6283   6286   6288      9     0.00   0.62760   3 ;    H5S-   C15-   C14-   H4S
  6285   6283   6286   6289      9     0.00   0.66944   3 ;    H5S-   C15-   C14-   C13
  6286   6289   6292   6293      9     0.00   0.66944   3 ;    C14-   C13-   C12-   H2R
  6286   6289   6292   6294      9     0.00   0.66944   3 ;    C14-   C13-   C12-   H2S
  6286   6289   6292   6295      9     0.00   0.65270   3 ;    C14-   C13-   C12-   C11
  6287   6286   6289   6290      9     0.00   0.62760   3 ;    H4R-   C14-   C13-   H3R
  6287   6286   6289   6291      9     0.00   0.62760   3 ;    H4R-   C14-   C13-   H3S
  6287   6286   6289   6292      9     0.00   0.66944   3 ;    H4R-   C14-   C13-   C12
  6288   6286   6289   6290      9     0.00   0.62760   3 ;    H4S-   C14-   C13-   H3R
  6288   6286   6289   6291      9     0.00   0.62760   3 ;    H4S-   C14-   C13-   H3S
  6288   6286   6289   6292      9     0.00   0.66944   3 ;    H4S-   C14-   C13-   C12
  6289   6292   6295   6296      9   180.00   0.00000   2 ;    C13-   C12-   C11-   O12
  6289   6292   6295   6297      9   180.00   0.00000   2 ;    C13-   C12-   C11-   O11
  6290   6289   6292   6293      9     0.00   0.62760   3 ;    H3R-   C13-   C12-   H2R
  6290   6289   6292   6294      9     0.00   0.62760   3 ;    H3R-   C13-   C12-   H2S
  6290   6289   6292   6295      9     0.00   0.65270   3 ;    H3R-   C13-   C12-   C11
  6291   6289   6292   6293      9     0.00   0.62760   3 ;    H3S-   C13-   C12-   H2R
  6291   6289   6292   6294      9     0.00   0.62760   3 ;    H3S-   C13-   C12-   H2S
  6291   6289   6292   6295      9     0.00   0.65270   3 ;    H3S-   C13-   C12-   C11
  6292   6295   6297   6298      9   180.00  11.29680   2 ;    C12-   C11-   O11-    C1
  6293   6292   6295   6296      9     0.00   3.34720   1 ;    H2R-   C12-   C11-   O12
  6293   6292   6295   6296      9   180.00   0.33472   3 ;    H2R-   C12-   C11-   O12
  6293   6292   6295   6297      9   180.00   0.00000   2 ;    H2R-   C12-   C11-   O11
  6294   6292   6295   6296      9     0.00   3.34720   1 ;    H2S-   C12-   C11-   O12
  6294   6292   6295   6296      9   180.00   0.33472   3 ;    H2S-   C12-   C11-   O12
  6294   6292   6295   6297      9   180.00   0.00000   2 ;    H2S-   C12-   C11-   O11
  6295   6297   6298   6299      9     0.00   1.60247   3 ;    C11-   O11-    C1-    HR
  6295   6297   6298   6300      9     0.00   1.60247   3 ;    C11-   O11-    C1-    HS
  6295   6297   6298   6301      9     0.00  -0.41840   1 ;    C11-   O11-    C1-    C2
  6296   6295   6297   6298      9   180.00   5.85760   1 ;    O12-   C11-   O11-    C1
  6296   6295   6297   6298      9   180.00  11.29680   2 ;    O12-   C11-   O11-    C1
  6297   6298   6301   6302      9     0.00   0.00000   0 ;    O11-    C1-    C2-    HX
  6297   6298   6301   6302      9     0.00   1.04600   1 ;    O11-    C1-    C2-    HX
  6297   6298   6301   6303      9     0.00   0.00000   0 ;    O11-    C1-    C2-    C3
  6297   6298   6301   6303      9     0.00   0.00000   0 ;    O11-    C1-    C2-    C3
  6297   6298   6301   6303      9     0.00   0.00000   0 ;    O11-    C1-    C2-    C3
  6297   6298   6301   6303      9     0.00   0.00000   0 ;    O11-    C1-    C2-    C3
  6297   6298   6301   6303      9     0.00   0.00000   0 ;    O11-    C1-    C2-    C3
  6297   6298   6301   6330      9     0.00   1.25520   2 ;    O11-    C1-    C2-   O21
  6297   6298   6301   6330      9     0.00   4.18400   3 ;    O11-    C1-    C2-   O21
  6297   6298   6301   6330      9   180.00  -0.41840   1 ;    O11-    C1-    C2-   O21
  6298   6301   6303   6304      9     0.00   0.65270   3 ;     C1-    C2-    C3-    HA
  6298   6301   6303   6305      9     0.00   0.65270   3 ;     C1-    C2-    C3-    HB
  6298   6301   6303   6306      9   180.00   3.34720   1 ;     C1-    C2-    C3-   O31
  6298   6301   6330   6331      9     0.00  -0.41840   1 ;     C1-    C2-   O21-   C21
  6299   6298   6301   6302      9     0.00   0.65270   3 ;     HR-    C1-    C2-    HX
  6299   6298   6301   6303      9     0.00   0.65270   3 ;     HR-    C1-    C2-    C3
  6299   6298   6301   6330      9     0.00   0.00000   0 ;     HR-    C1-    C2-   O21
  6299   6298   6301   6330      9     0.00   1.04600   1 ;     HR-    C1-    C2-   O21
  6300   6298   6301   6302      9     0.00   0.65270   3 ;     HS-    C1-    C2-    HX
  6300   6298   6301   6303      9     0.00   0.65270   3 ;     HS-    C1-    C2-    C3
  6300   6298   6301   6330      9     0.00   0.00000   0 ;     HS-    C1-    C2-   O21
  6300   6298   6301   6330      9     0.00   1.04600   1 ;     HS-    C1-    C2-   O21
  6301   6303   6306   6307      9     0.00   0.00000   0 ;     C2-    C3-   O31-   P31
  6301   6303   6306   6307      9   180.00  -3.34720   2 ;     C2-    C3-   O31-   P31
  6301   6330   6331   6332      9   180.00   5.85760   1 ;     C2-   O21-   C21-   O22
  6301   6330   6331   6332      9   180.00  11.29680   2 ;     C2-   O21-   C21-   O22
  6301   6330   6331   6370      9   180.00  11.29680   2 ;     C2-   O21-   C21-   C12
  6302   6301   6303   6304      9     0.00   0.65270   3 ;     HX-    C2-    C3-    HA
  6302   6301   6303   6305      9     0.00   0.65270   3 ;     HX-    C2-    C3-    HB
  6302   6301   6303   6306      9     0.00   0.00000   0 ;     HX-    C2-    C3-   O31
  6302   6301   6303   6306      9     0.00   1.04600   1 ;     HX-    C2-    C3-   O31
  6302   6301   6330   6331      9     0.00   1.60247   3 ;     HX-    C2-   O21-   C21
  6303   6301   6330   6331      9     0.00  -0.41840   1 ;     C3-    C2-   O21-   C21
  6303   6306   6307   6308      9     0.00   2.51040   3 ;     C3-   O31-   P31-   O32
  6303   6306   6307   6308      9     0.00   9.62320   2 ;     C3-   O31-   P31-   O32
  6303   6306   6307   6328      9     0.00   0.00000   0 ;     C3-   O31-   P31-   O33
  6303   6306   6307   6328      9     0.00   0.00000   0 ;     C3-   O31-   P31-   O33
  6303   6306   6307   6328      9     0.00   0.00000   0 ;     C3-   O31-   P31-   O33
  6303   6306   6307   6328      9     0.00   0.00000   0 ;     C3-   O31-   P31-   O33
  6303   6306   6307   6328      9     0.00   0.83680   2 ;     C3-   O31-   P31-   O33
  6303   6306   6307   6329      9     0.00   0.00000   0 ;     C3-   O31-   P31-   O34
  6303   6306   6307   6329      9     0.00   0.00000   0 ;     C3-   O31-   P31-   O34
  6303   6306   6307   6329      9     0.00   0.00000   0 ;     C3-   O31-   P31-   O34
  6303   6306   6307   6329      9     0.00   0.00000   0 ;     C3-   O31-   P31-   O34
  6303   6306   6307   6329      9     0.00   0.83680   2 ;     C3-   O31-   P31-   O34
  6304   6303   6301   6330      9     0.00   0.00000   0 ;     HA-    C3-    C2-   O21
  6304   6303   6301   6330      9     0.00   1.04600   1 ;     HA-    C3-    C2-   O21
  6304   6303   6306   6307      9     0.00   0.00000   0 ;     HA-    C3-   O31-   P31
  6304   6303   6306   6307      9     0.00   0.00000   0 ;     HA-    C3-   O31-   P31
  6304   6303   6306   6307      9     0.00   0.00000   0 ;     HA-    C3-   O31-   P31
  6304   6303   6306   6307      9     0.00   0.00000   0 ;     HA-    C3-   O31-   P31
  6304   6303   6306   6307      9     0.00   1.60247   3 ;     HA-    C3-   O31-   P31
  6305   6303   6301   6330      9     0.00   0.00000   0 ;     HB-    C3-    C2-   O21
  6305   6303   6301   6330      9     0.00   1.04600   1 ;     HB-    C3-    C2-   O21
  6305   6303   6306   6307      9     0.00   0.00000   0 ;     HB-    C3-   O31-   P31
  6305   6303   6306   6307      9     0.00   0.00000   0 ;     HB-    C3-   O31-   P31
  6305   6303   6306   6307      9     0.00   0.00000   0 ;     HB-    C3-   O31-   P31
  6305   6303   6306   6307      9     0.00   0.00000   0 ;     HB-    C3-   O31-   P31
  6305   6303   6306   6307      9     0.00   1.60247   3 ;     HB-    C3-   O31-   P31
  6306   6303   6301   6330      9     0.00   0.00000   0 ;    O31-    C3-    C2-   O21
  6306   6303   6301   6330      9     0.00   0.00000   0 ;    O31-    C3-    C2-   O21
  6306   6303   6301   6330      9     0.00   0.00000   0 ;    O31-    C3-    C2-   O21
  6306   6303   6301   6330      9     0.00   0.00000   0 ;    O31-    C3-    C2-   O21
  6306   6303   6301   6330      9     0.00   0.00000   0 ;    O31-    C3-    C2-   O21
  6306   6307   6308   6309      9     0.00   2.51040   3 ;    O31-   P31-   O32-   C31
  6306   6307   6308   6309      9     0.00   9.62320   2 ;    O31-   P31-   O32-   C31
  6307   6308   6309   6310      9     0.00   0.00000   0 ;    P31-   O32-   C31-   H1A
  6307   6308   6309   6310      9     0.00   0.00000   0 ;    P31-   O32-   C31-   H1A
  6307   6308   6309   6310      9     0.00   0.00000   0 ;    P31-   O32-   C31-   H1A
  6307   6308   6309   6310      9     0.00   0.00000   0 ;    P31-   O32-   C31-   H1A
  6307   6308   6309   6310      9     0.00   1.60247   3 ;    P31-   O32-   C31-   H1A
  6307   6308   6309   6311      9     0.00   0.00000   0 ;    P31-   O32-   C31-   H1B
  6307   6308   6309   6311      9     0.00   0.00000   0 ;    P31-   O32-   C31-   H1B
  6307   6308   6309   6311      9     0.00   0.00000   0 ;    P31-   O32-   C31-   H1B
  6307   6308   6309   6311      9     0.00   0.00000   0 ;    P31-   O32-   C31-   H1B
  6307   6308   6309   6311      9     0.00   1.60247   3 ;    P31-   O32-   C31-   H1B
  6307   6308   6309   6312      9     0.00   0.00000   0 ;    P31-   O32-   C31-   C32
  6307   6308   6309   6312      9   180.00  -3.34720   2 ;    P31-   O32-   C31-   C32
  6308   6309   6312   6313      9     0.00   0.65270   3 ;    O32-   C31-   C32-   H2A
  6308   6309   6312   6314      9     0.00   0.65270   3 ;    O32-   C31-   C32-   H2B
  6308   6309   6312   6315      9     0.00   4.18400   3 ;    O32-   C31-   C32-   N31
  6309   6308   6307   6328      9     0.00   0.00000   0 ;    C31-   O32-   P31-   O33
  6309   6308   6307   6328      9     0.00   0.00000   0 ;    C31-   O32-   P31-   O33
  6309   6308   6307   6328      9     0.00   0.00000   0 ;    C31-   O32-   P31-   O33
  6309   6308   6307   6328      9     0.00   0.00000   0 ;    C31-   O32-   P31-   O33
  6309   6308   6307   6328      9     0.00   0.83680   2 ;    C31-   O32-   P31-   O33
  6309   6308   6307   6329      9     0.00   0.00000   0 ;    C31-   O32-   P31-   O34
  6309   6308   6307   6329      9     0.00   0.00000   0 ;    C31-   O32-   P31-   O34
  6309   6308   6307   6329      9     0.00   0.00000   0 ;    C31-   O32-   P31-   O34
  6309   6308   6307   6329      9     0.00   0.00000   0 ;    C31-   O32-   P31-   O34
  6309   6308   6307   6329      9     0.00   0.83680   2 ;    C31-   O32-   P31-   O34
  6309   6312   6315   6316      9     0.00   0.65270   3 ;    C31-   C32-   N31-   C33
  6309   6312   6315   6320      9     0.00   0.65270   3 ;    C31-   C32-   N31-   C34
  6309   6312   6315   6324      9     0.00   0.65270   3 ;    C31-   C32-   N31-   C35
  6310   6309   6312   6313      9     0.00   0.65270   3 ;    H1A-   C31-   C32-   H2A
  6310   6309   6312   6314      9     0.00   0.65270   3 ;    H1A-   C31-   C32-   H2B
  6310   6309   6312   6315      9     0.00   0.65270   3 ;    H1A-   C31-   C32-   N31
  6311   6309   6312   6313      9     0.00   0.65270   3 ;    H1B-   C31-   C32-   H2A
  6311   6309   6312   6314      9     0.00   0.65270   3 ;    H1B-   C31-   C32-   H2B
  6311   6309   6312   6315      9     0.00   0.65270   3 ;    H1B-   C31-   C32-   N31
  6312   6315   6316   6317      9     0.00   0.65270   3 ;    C32-   N31-   C33-   H3A
  6312   6315   6316   6318      9     0.00   0.65270   3 ;    C32-   N31-   C33-   H3B
  6312   6315   6316   6319      9     0.00   0.65270   3 ;    C32-   N31-   C33-   H3C
  6312   6315   6320   6321      9     0.00   0.65270   3 ;    C32-   N31-   C34-   H4A
  6312   6315   6320   6322      9     0.00   0.65270   3 ;    C32-   N31-   C34-   H4B
  6312   6315   6320   6323      9     0.00   0.65270   3 ;    C32-   N31-   C34-   H4C
  6312   6315   6324   6325      9     0.00   0.65270   3 ;    C32-   N31-   C35-   H5A
  6312   6315   6324   6326      9     0.00   0.65270   3 ;    C32-   N31-   C35-   H5B
  6312   6315   6324   6327      9     0.00   0.65270   3 ;    C32-   N31-   C35-   H5C
  6313   6312   6315   6316      9     0.00   0.65270   3 ;    H2A-   C32-   N31-   C33
  6313   6312   6315   6320      9     0.00   0.65270   3 ;    H2A-   C32-   N31-   C34
  6313   6312   6315   6324      9     0.00   0.65270   3 ;    H2A-   C32-   N31-   C35
  6314   6312   6315   6316      9     0.00   0.65270   3 ;    H2B-   C32-   N31-   C33
  6314   6312   6315   6320      9     0.00   0.65270   3 ;    H2B-   C32-   N31-   C34
  6314   6312   6315   6324      9     0.00   0.65270   3 ;    H2B-   C32-   N31-   C35
  6316   6315   6320   6321      9     0.00   0.65270   3 ;    C33-   N31-   C34-   H4A
  6316   6315   6320   6322      9     0.00   0.65270   3 ;    C33-   N31-   C34-   H4B
  6316   6315   6320   6323      9     0.00   0.65270   3 ;    C33-   N31-   C34-   H4C
  6316   6315   6324   6325      9     0.00   0.65270   3 ;    C33-   N31-   C35-   H5A
  6316   6315   6324   6326      9     0.00   0.65270   3 ;    C33-   N31-   C35-   H5B
  6316   6315   6324   6327      9     0.00   0.65270   3 ;    C33-   N31-   C35-   H5C
  6317   6316   6315   6320      9     0.00   0.65270   3 ;    H3A-   C33-   N31-   C34
  6317   6316   6315   6324      9     0.00   0.65270   3 ;    H3A-   C33-   N31-   C35
  6318   6316   6315   6320      9     0.00   0.65270   3 ;    H3B-   C33-   N31-   C34
  6318   6316   6315   6324      9     0.00   0.65270   3 ;    H3B-   C33-   N31-   C35
  6319   6316   6315   6320      9     0.00   0.65270   3 ;    H3C-   C33-   N31-   C34
  6319   6316   6315   6324      9     0.00   0.65270   3 ;    H3C-   C33-   N31-   C35
  6320   6315   6324   6325      9     0.00   0.65270   3 ;    C34-   N31-   C35-   H5A
  6320   6315   6324   6326      9     0.00   0.65270   3 ;    C34-   N31-   C35-   H5B
  6320   6315   6324   6327      9     0.00   0.65270   3 ;    C34-   N31-   C35-   H5C
  6321   6320   6315   6324      9     0.00   0.65270   3 ;    H4A-   C34-   N31-   C35
  6322   6320   6315   6324      9     0.00   0.65270   3 ;    H4B-   C34-   N31-   C35
  6323   6320   6315   6324      9     0.00   0.65270   3 ;    H4C-   C34-   N31-   C35
  6330   6331   6370   6367      9   180.00   0.00000   2 ;    O21-   C21-   C12-   C13
  6330   6331   6370   6371      9   180.00   0.00000   2 ;    O21-   C21-   C12-   H2R
  6330   6331   6370   6372      9   180.00   0.00000   2 ;    O21-   C21-   C12-   H2S
  6331   6370   6367   6364      9     0.00   0.65270   3 ;    C21-   C12-   C13-   C14
  6331   6370   6367   6368      9     0.00   0.65270   3 ;    C21-   C12-   C13-   H3R
  6331   6370   6367   6369      9     0.00   0.65270   3 ;    C21-   C12-   C13-   H3S
  6332   6331   6370   6367      9   180.00   0.00000   2 ;    O22-   C21-   C12-   C13
  6332   6331   6370   6371      9     0.00   3.34720   1 ;    O22-   C21-   C12-   H2R
  6332   6331   6370   6371      9   180.00   0.33472   3 ;    O22-   C21-   C12-   H2R
  6332   6331   6370   6372      9     0.00   3.34720   1 ;    O22-   C21-   C12-   H2S
  6332   6331   6370   6372      9   180.00   0.33472   3 ;    O22-   C21-   C12-   H2S
  6333   6334   6337   6338      9     0.00   0.62760   3 ;   H14T-  C114-  C113-  H13R
  6333   6334   6337   6339      9     0.00   0.62760   3 ;   H14T-  C114-  C113-  H13S
  6333   6334   6337   6340      9     0.00   0.66944   3 ;   H14T-  C114-  C113-  C112
  6334   6337   6340   6341      9     0.00   0.66944   3 ;   C114-  C113-  C112-  H12R
  6334   6337   6340   6342      9     0.00   0.66944   3 ;   C114-  C113-  C112-  H12S
  6334   6337   6340   6343      9     0.00   0.41840   1 ;   C114-  C113-  C112-  C111
  6334   6337   6340   6343      9     0.00   0.41840   2 ;   C114-  C113-  C112-  C111
  6334   6337   6340   6343      9     0.00   0.41840   4 ;   C114-  C113-  C112-  C111
  6334   6337   6340   6343      9     0.00   0.41840   5 ;   C114-  C113-  C112-  C111
  6334   6337   6340   6343      9     0.00   1.25520   3 ;   C114-  C113-  C112-  C111
  6335   6334   6337   6338      9     0.00   0.62760   3 ;   H14R-  C114-  C113-  H13R
  6335   6334   6337   6339      9     0.00   0.62760   3 ;   H14R-  C114-  C113-  H13S
  6335   6334   6337   6340      9     0.00   0.66944   3 ;   H14R-  C114-  C113-  C112
  6336   6334   6337   6338      9     0.00   0.62760   3 ;   H14S-  C114-  C113-  H13R
  6336   6334   6337   6339      9     0.00   0.62760   3 ;   H14S-  C114-  C113-  H13S
  6336   6334   6337   6340      9     0.00   0.66944   3 ;   H14S-  C114-  C113-  C112
  6337   6340   6343   6344      9     0.00   0.66944   3 ;   C113-  C112-  C111-  H11R
  6337   6340   6343   6345      9     0.00   0.66944   3 ;   C113-  C112-  C111-  H11S
  6337   6340   6343   6346      9     0.00   0.41840   1 ;   C113-  C112-  C111-  C110
  6337   6340   6343   6346      9     0.00   0.41840   2 ;   C113-  C112-  C111-  C110
  6337   6340   6343   6346      9     0.00   0.41840   4 ;   C113-  C112-  C111-  C110
  6337   6340   6343   6346      9     0.00   0.41840   5 ;   C113-  C112-  C111-  C110
  6337   6340   6343   6346      9     0.00   1.25520   3 ;   C113-  C112-  C111-  C110
  6338   6337   6340   6341      9     0.00   0.62760   3 ;   H13R-  C113-  C112-  H12R
  6338   6337   6340   6342      9     0.00   0.62760   3 ;   H13R-  C113-  C112-  H12S
  6338   6337   6340   6343      9     0.00   0.66944   3 ;   H13R-  C113-  C112-  C111
  6339   6337   6340   6341      9     0.00   0.62760   3 ;   H13S-  C113-  C112-  H12R
  6339   6337   6340   6342      9     0.00   0.62760   3 ;   H13S-  C113-  C112-  H12S
  6339   6337   6340   6343      9     0.00   0.66944   3 ;   H13S-  C113-  C112-  C111
  6340   6343   6346   6347      9     0.00   0.66944   3 ;   C112-  C111-  C110-  H10R
  6340   6343   6346   6348      9     0.00   0.66944   3 ;   C112-  C111-  C110-  H10S
  6340   6343   6346   6349      9     0.00   0.41840   1 ;   C112-  C111-  C110-   C19
  6340   6343   6346   6349      9     0.00   0.41840   2 ;   C112-  C111-  C110-   C19
  6340   6343   6346   6349      9     0.00   0.41840   4 ;   C112-  C111-  C110-   C19
  6340   6343   6346   6349      9     0.00   0.41840   5 ;   C112-  C111-  C110-   C19
  6340   6343   6346   6349      9     0.00   1.25520   3 ;   C112-  C111-  C110-   C19
  6341   6340   6343   6344      9     0.00   0.62760   3 ;   H12R-  C112-  C111-  H11R
  6341   6340   6343   6345      9     0.00   0.62760   3 ;   H12R-  C112-  C111-  H11S
  6341   6340   6343   6346      9     0.00   0.66944   3 ;   H12R-  C112-  C111-  C110
  6342   6340   6343   6344      9     0.00   0.62760   3 ;   H12S-  C112-  C111-  H11R
  6342   6340   6343   6345      9     0.00   0.62760   3 ;   H12S-  C112-  C111-  H11S
  6342   6340   6343   6346      9     0.00   0.66944   3 ;   H12S-  C112-  C111-  C110
  6343   6346   6349   6350      9     0.00   0.66944   3 ;   C111-  C110-   C19-   H9R
  6343   6346   6349   6351      9     0.00   0.66944   3 ;   C111-  C110-   C19-   H9S
  6343   6346   6349   6352      9     0.00   0.41840   1 ;   C111-  C110-   C19-   C18
  6343   6346   6349   6352      9     0.00   0.41840   2 ;   C111-  C110-   C19-   C18
  6343   6346   6349   6352      9     0.00   0.41840   4 ;   C111-  C110-   C19-   C18
  6343   6346   6349   6352      9     0.00   0.41840   5 ;   C111-  C110-   C19-   C18
  6343   6346   6349   6352      9     0.00   1.25520   3 ;   C111-  C110-   C19-   C18
  6344   6343   6346   6347      9     0.00   0.62760   3 ;   H11R-  C111-  C110-  H10R
  6344   6343   6346   6348      9     0.00   0.62760   3 ;   H11R-  C111-  C110-  H10S
  6344   6343   6346   6349      9     0.00   0.66944   3 ;   H11R-  C111-  C110-   C19
  6345   6343   6346   6347      9     0.00   0.62760   3 ;   H11S-  C111-  C110-  H10R
  6345   6343   6346   6348      9     0.00   0.62760   3 ;   H11S-  C111-  C110-  H10S
  6345   6343   6346   6349      9     0.00   0.66944   3 ;   H11S-  C111-  C110-   C19
  6346   6349   6352   6353      9     0.00   0.66944   3 ;   C110-   C19-   C18-   H8R
  6346   6349   6352   6354      9     0.00   0.66944   3 ;   C110-   C19-   C18-   H8S
  6346   6349   6352   6355      9     0.00   0.41840   1 ;   C110-   C19-   C18-   C17
  6346   6349   6352   6355      9     0.00   0.41840   2 ;   C110-   C19-   C18-   C17
  6346   6349   6352   6355      9     0.00   0.41840   4 ;   C110-   C19-   C18-   C17
  6346   6349   6352   6355      9     0.00   0.41840   5 ;   C110-   C19-   C18-   C17
  6346   6349   6352   6355      9     0.00   1.25520   3 ;   C110-   C19-   C18-   C17
  6347   6346   6349   6350      9     0.00   0.62760   3 ;   H10R-  C110-   C19-   H9R
  6347   6346   6349   6351      9     0.00   0.62760   3 ;   H10R-  C110-   C19-   H9S
  6347   6346   6349   6352      9     0.00   0.66944   3 ;   H10R-  C110-   C19-   C18
  6348   6346   6349   6350      9     0.00   0.62760   3 ;   H10S-  C110-   C19-   H9R
  6348   6346   6349   6351      9     0.00   0.62760   3 ;   H10S-  C110-   C19-   H9S
  6348   6346   6349   6352      9     0.00   0.66944   3 ;   H10S-  C110-   C19-   C18
  6349   6352   6355   6356      9     0.00   0.66944   3 ;    C19-   C18-   C17-   H7R
  6349   6352   6355   6357      9     0.00   0.66944   3 ;    C19-   C18-   C17-   H7S
  6349   6352   6355   6358      9     0.00   0.41840   1 ;    C19-   C18-   C17-   C16
  6349   6352   6355   6358      9     0.00   0.41840   2 ;    C19-   C18-   C17-   C16
  6349   6352   6355   6358      9     0.00   0.41840   4 ;    C19-   C18-   C17-   C16
  6349   6352   6355   6358      9     0.00   0.41840   5 ;    C19-   C18-   C17-   C16
  6349   6352   6355   6358      9     0.00   1.25520   3 ;    C19-   C18-   C17-   C16
  6350   6349   6352   6353      9     0.00   0.62760   3 ;    H9R-   C19-   C18-   H8R
  6350   6349   6352   6354      9     0.00   0.62760   3 ;    H9R-   C19-   C18-   H8S
  6350   6349   6352   6355      9     0.00   0.66944   3 ;    H9R-   C19-   C18-   C17
  6351   6349   6352   6353      9     0.00   0.62760   3 ;    H9S-   C19-   C18-   H8R
  6351   6349   6352   6354      9     0.00   0.62760   3 ;    H9S-   C19-   C18-   H8S
  6351   6349   6352   6355      9     0.00   0.66944   3 ;    H9S-   C19-   C18-   C17
  6352   6355   6358   6359      9     0.00   0.66944   3 ;    C18-   C17-   C16-   H6R
  6352   6355   6358   6360      9     0.00   0.66944   3 ;    C18-   C17-   C16-   H6S
  6352   6355   6358   6361      9     0.00   0.41840   1 ;    C18-   C17-   C16-   C15
  6352   6355   6358   6361      9     0.00   0.41840   2 ;    C18-   C17-   C16-   C15
  6352   6355   6358   6361      9     0.00   0.41840   4 ;    C18-   C17-   C16-   C15
  6352   6355   6358   6361      9     0.00   0.41840   5 ;    C18-   C17-   C16-   C15
  6352   6355   6358   6361      9     0.00   1.25520   3 ;    C18-   C17-   C16-   C15
  6353   6352   6355   6356      9     0.00   0.62760   3 ;    H8R-   C18-   C17-   H7R
  6353   6352   6355   6357      9     0.00   0.62760   3 ;    H8R-   C18-   C17-   H7S
  6353   6352   6355   6358      9     0.00   0.66944   3 ;    H8R-   C18-   C17-   C16
  6354   6352   6355   6356      9     0.00   0.62760   3 ;    H8S-   C18-   C17-   H7R
  6354   6352   6355   6357      9     0.00   0.62760   3 ;    H8S-   C18-   C17-   H7S
  6354   6352   6355   6358      9     0.00   0.66944   3 ;    H8S-   C18-   C17-   C16
  6355   6358   6361   6362      9     0.00   0.66944   3 ;    C17-   C16-   C15-   H5R
  6355   6358   6361   6363      9     0.00   0.66944   3 ;    C17-   C16-   C15-   H5S
  6355   6358   6361   6364      9     0.00   0.41840   1 ;    C17-   C16-   C15-   C14
  6355   6358   6361   6364      9     0.00   0.41840   2 ;    C17-   C16-   C15-   C14
  6355   6358   6361   6364      9     0.00   0.41840   4 ;    C17-   C16-   C15-   C14
  6355   6358   6361   6364      9     0.00   0.41840   5 ;    C17-   C16-   C15-   C14
  6355   6358   6361   6364      9     0.00   1.25520   3 ;    C17-   C16-   C15-   C14
  6356   6355   6358   6359      9     0.00   0.62760   3 ;    H7R-   C17-   C16-   H6R
  6356   6355   6358   6360      9     0.00   0.62760   3 ;    H7R-   C17-   C16-   H6S
  6356   6355   6358   6361      9     0.00   0.66944   3 ;    H7R-   C17-   C16-   C15
  6357   6355   6358   6359      9     0.00   0.62760   3 ;    H7S-   C17-   C16-   H6R
  6357   6355   6358   6360      9     0.00   0.62760   3 ;    H7S-   C17-   C16-   H6S
  6357   6355   6358   6361      9     0.00   0.66944   3 ;    H7S-   C17-   C16-   C15
  6358   6361   6364   6365      9     0.00   0.66944   3 ;    C16-   C15-   C14-   H4R
  6358   6361   6364   6366      9     0.00   0.66944   3 ;    C16-   C15-   C14-   H4S
  6358   6361   6364   6367      9     0.00   0.41840   1 ;    C16-   C15-   C14-   C13
  6358   6361   6364   6367      9     0.00   0.41840   2 ;    C16-   C15-   C14-   C13
  6358   6361   6364   6367      9     0.00   0.41840   4 ;    C16-   C15-   C14-   C13
  6358   6361   6364   6367      9     0.00   0.41840   5 ;    C16-   C15-   C14-   C13
  6358   6361   6364   6367      9     0.00   1.25520   3 ;    C16-   C15-   C14-   C13
  6359   6358   6361   6362      9     0.00   0.62760   3 ;    H6R-   C16-   C15-   H5R
  6359   6358   6361   6363      9     0.00   0.62760   3 ;    H6R-   C16-   C15-   H5S
  6359   6358   6361   6364      9     0.00   0.66944   3 ;    H6R-   C16-   C15-   C14
  6360   6358   6361   6362      9     0.00   0.62760   3 ;    H6S-   C16-   C15-   H5R
  6360   6358   6361   6363      9     0.00   0.62760   3 ;    H6S-   C16-   C15-   H5S
  6360   6358   6361   6364      9     0.00   0.66944   3 ;    H6S-   C16-   C15-   C14
  6361   6364   6367   6368      9     0.00   0.66944   3 ;    C15-   C14-   C13-   H3R
  6361   6364   6367   6369      9     0.00   0.66944   3 ;    C15-   C14-   C13-   H3S
  6361   6364   6367   6370      9     0.00   0.41840   1 ;    C15-   C14-   C13-   C12
  6361   6364   6367   6370      9     0.00   0.41840   2 ;    C15-   C14-   C13-   C12
  6361   6364   6367   6370      9     0.00   0.41840   4 ;    C15-   C14-   C13-   C12
  6361   6364   6367   6370      9     0.00   0.41840   5 ;    C15-   C14-   C13-   C12
  6361   6364   6367   6370      9     0.00   1.25520   3 ;    C15-   C14-   C13-   C12
  6362   6361   6364   6365      9     0.00   0.62760   3 ;    H5R-   C15-   C14-   H4R
  6362   6361   6364   6366      9     0.00   0.62760   3 ;    H5R-   C15-   C14-   H4S
  6362   6361   6364   6367      9     0.00   0.66944   3 ;    H5R-   C15-   C14-   C13
  6363   6361   6364   6365      9     0.00   0.62760   3 ;    H5S-   C15-   C14-   H4R
  6363   6361   6364   6366      9     0.00   0.62760   3 ;    H5S-   C15-   C14-   H4S
  6363   6361   6364   6367      9     0.00   0.66944   3 ;    H5S-   C15-   C14-   C13
  6364   6367   6370   6371      9     0.00   0.66944   3 ;    C14-   C13-   C12-   H2R
  6364   6367   6370   6372      9     0.00   0.66944   3 ;    C14-   C13-   C12-   H2S
  6365   6364   6367   6368      9     0.00   0.62760   3 ;    H4R-   C14-   C13-   H3R
  6365   6364   6367   6369      9     0.00   0.62760   3 ;    H4R-   C14-   C13-   H3S
  6365   6364   6367   6370      9     0.00   0.66944   3 ;    H4R-   C14-   C13-   C12
  6366   6364   6367   6368      9     0.00   0.62760   3 ;    H4S-   C14-   C13-   H3R
  6366   6364   6367   6369      9     0.00   0.62760   3 ;    H4S-   C14-   C13-   H3S
  6366   6364   6367   6370      9     0.00   0.66944   3 ;    H4S-   C14-   C13-   C12
  6368   6367   6370   6371      9     0.00   0.62760   3 ;    H3R-   C13-   C12-   H2R
  6368   6367   6370   6372      9     0.00   0.62760   3 ;    H3R-   C13-   C12-   H2S
  6369   6367   6370   6371      9     0.00   0.62760   3 ;    H3S-   C13-   C12-   H2R
  6369   6367   6370   6372      9     0.00   0.62760   3 ;    H3S-   C13-   C12-   H2S
  6373   6374   6377   6378      9     0.00   0.62760   3 ;   H14T-  C114-  C113-  H13R
  6373   6374   6377   6379      9     0.00   0.62760   3 ;   H14T-  C114-  C113-  H13S
  6373   6374   6377   6380      9     0.00   0.66944   3 ;   H14T-  C114-  C113-  C112
  6374   6377   6380   6381      9     0.00   0.66944   3 ;   C114-  C113-  C112-  H12R
  6374   6377   6380   6382      9     0.00   0.66944   3 ;   C114-  C113-  C112-  H12S
  6374   6377   6380   6383      9     0.00   0.41840   1 ;   C114-  C113-  C112-  C111
  6374   6377   6380   6383      9     0.00   0.41840   2 ;   C114-  C113-  C112-  C111
  6374   6377   6380   6383      9     0.00   0.41840   4 ;   C114-  C113-  C112-  C111
  6374   6377   6380   6383      9     0.00   0.41840   5 ;   C114-  C113-  C112-  C111
  6374   6377   6380   6383      9     0.00   1.25520   3 ;   C114-  C113-  C112-  C111
  6375   6374   6377   6378      9     0.00   0.62760   3 ;   H14R-  C114-  C113-  H13R
  6375   6374   6377   6379      9     0.00   0.62760   3 ;   H14R-  C114-  C113-  H13S
  6375   6374   6377   6380      9     0.00   0.66944   3 ;   H14R-  C114-  C113-  C112
  6376   6374   6377   6378      9     0.00   0.62760   3 ;   H14S-  C114-  C113-  H13R
  6376   6374   6377   6379      9     0.00   0.62760   3 ;   H14S-  C114-  C113-  H13S
  6376   6374   6377   6380      9     0.00   0.66944   3 ;   H14S-  C114-  C113-  C112
  6377   6380   6383   6384      9     0.00   0.66944   3 ;   C113-  C112-  C111-  H11R
  6377   6380   6383   6385      9     0.00   0.66944   3 ;   C113-  C112-  C111-  H11S
  6377   6380   6383   6386      9     0.00   0.41840   1 ;   C113-  C112-  C111-  C110
  6377   6380   6383   6386      9     0.00   0.41840   2 ;   C113-  C112-  C111-  C110
  6377   6380   6383   6386      9     0.00   0.41840   4 ;   C113-  C112-  C111-  C110
  6377   6380   6383   6386      9     0.00   0.41840   5 ;   C113-  C112-  C111-  C110
  6377   6380   6383   6386      9     0.00   1.25520   3 ;   C113-  C112-  C111-  C110
  6378   6377   6380   6381      9     0.00   0.62760   3 ;   H13R-  C113-  C112-  H12R
  6378   6377   6380   6382      9     0.00   0.62760   3 ;   H13R-  C113-  C112-  H12S
  6378   6377   6380   6383      9     0.00   0.66944   3 ;   H13R-  C113-  C112-  C111
  6379   6377   6380   6381      9     0.00   0.62760   3 ;   H13S-  C113-  C112-  H12R
  6379   6377   6380   6382      9     0.00   0.62760   3 ;   H13S-  C113-  C112-  H12S
  6379   6377   6380   6383      9     0.00   0.66944   3 ;   H13S-  C113-  C112-  C111
  6380   6383   6386   6387      9     0.00   0.66944   3 ;   C112-  C111-  C110-  H10R
  6380   6383   6386   6388      9     0.00   0.66944   3 ;   C112-  C111-  C110-  H10S
  6380   6383   6386   6389      9     0.00   0.41840   1 ;   C112-  C111-  C110-   C19
  6380   6383   6386   6389      9     0.00   0.41840   2 ;   C112-  C111-  C110-   C19
  6380   6383   6386   6389      9     0.00   0.41840   4 ;   C112-  C111-  C110-   C19
  6380   6383   6386   6389      9     0.00   0.41840   5 ;   C112-  C111-  C110-   C19
  6380   6383   6386   6389      9     0.00   1.25520   3 ;   C112-  C111-  C110-   C19
  6381   6380   6383   6384      9     0.00   0.62760   3 ;   H12R-  C112-  C111-  H11R
  6381   6380   6383   6385      9     0.00   0.62760   3 ;   H12R-  C112-  C111-  H11S
  6381   6380   6383   6386      9     0.00   0.66944   3 ;   H12R-  C112-  C111-  C110
  6382   6380   6383   6384      9     0.00   0.62760   3 ;   H12S-  C112-  C111-  H11R
  6382   6380   6383   6385      9     0.00   0.62760   3 ;   H12S-  C112-  C111-  H11S
  6382   6380   6383   6386      9     0.00   0.66944   3 ;   H12S-  C112-  C111-  C110
  6383   6386   6389   6390      9     0.00   0.66944   3 ;   C111-  C110-   C19-   H9R
  6383   6386   6389   6391      9     0.00   0.66944   3 ;   C111-  C110-   C19-   H9S
  6383   6386   6389   6392      9     0.00   0.41840   1 ;   C111-  C110-   C19-   C18
  6383   6386   6389   6392      9     0.00   0.41840   2 ;   C111-  C110-   C19-   C18
  6383   6386   6389   6392      9     0.00   0.41840   4 ;   C111-  C110-   C19-   C18
  6383   6386   6389   6392      9     0.00   0.41840   5 ;   C111-  C110-   C19-   C18
  6383   6386   6389   6392      9     0.00   1.25520   3 ;   C111-  C110-   C19-   C18
  6384   6383   6386   6387      9     0.00   0.62760   3 ;   H11R-  C111-  C110-  H10R
  6384   6383   6386   6388      9     0.00   0.62760   3 ;   H11R-  C111-  C110-  H10S
  6384   6383   6386   6389      9     0.00   0.66944   3 ;   H11R-  C111-  C110-   C19
  6385   6383   6386   6387      9     0.00   0.62760   3 ;   H11S-  C111-  C110-  H10R
  6385   6383   6386   6388      9     0.00   0.62760   3 ;   H11S-  C111-  C110-  H10S
  6385   6383   6386   6389      9     0.00   0.66944   3 ;   H11S-  C111-  C110-   C19
  6386   6389   6392   6393      9     0.00   0.66944   3 ;   C110-   C19-   C18-   H8R
  6386   6389   6392   6394      9     0.00   0.66944   3 ;   C110-   C19-   C18-   H8S
  6386   6389   6392   6395      9     0.00   0.41840   1 ;   C110-   C19-   C18-   C17
  6386   6389   6392   6395      9     0.00   0.41840   2 ;   C110-   C19-   C18-   C17
  6386   6389   6392   6395      9     0.00   0.41840   4 ;   C110-   C19-   C18-   C17
  6386   6389   6392   6395      9     0.00   0.41840   5 ;   C110-   C19-   C18-   C17
  6386   6389   6392   6395      9     0.00   1.25520   3 ;   C110-   C19-   C18-   C17
  6387   6386   6389   6390      9     0.00   0.62760   3 ;   H10R-  C110-   C19-   H9R
  6387   6386   6389   6391      9     0.00   0.62760   3 ;   H10R-  C110-   C19-   H9S
  6387   6386   6389   6392      9     0.00   0.66944   3 ;   H10R-  C110-   C19-   C18
  6388   6386   6389   6390      9     0.00   0.62760   3 ;   H10S-  C110-   C19-   H9R
  6388   6386   6389   6391      9     0.00   0.62760   3 ;   H10S-  C110-   C19-   H9S
  6388   6386   6389   6392      9     0.00   0.66944   3 ;   H10S-  C110-   C19-   C18
  6389   6392   6395   6396      9     0.00   0.66944   3 ;    C19-   C18-   C17-   H7R
  6389   6392   6395   6397      9     0.00   0.66944   3 ;    C19-   C18-   C17-   H7S
  6389   6392   6395   6398      9     0.00   0.41840   1 ;    C19-   C18-   C17-   C16
  6389   6392   6395   6398      9     0.00   0.41840   2 ;    C19-   C18-   C17-   C16
  6389   6392   6395   6398      9     0.00   0.41840   4 ;    C19-   C18-   C17-   C16
  6389   6392   6395   6398      9     0.00   0.41840   5 ;    C19-   C18-   C17-   C16
  6389   6392   6395   6398      9     0.00   1.25520   3 ;    C19-   C18-   C17-   C16
  6390   6389   6392   6393      9     0.00   0.62760   3 ;    H9R-   C19-   C18-   H8R
  6390   6389   6392   6394      9     0.00   0.62760   3 ;    H9R-   C19-   C18-   H8S
  6390   6389   6392   6395      9     0.00   0.66944   3 ;    H9R-   C19-   C18-   C17
  6391   6389   6392   6393      9     0.00   0.62760   3 ;    H9S-   C19-   C18-   H8R
  6391   6389   6392   6394      9     0.00   0.62760   3 ;    H9S-   C19-   C18-   H8S
  6391   6389   6392   6395      9     0.00   0.66944   3 ;    H9S-   C19-   C18-   C17
  6392   6395   6398   6399      9     0.00   0.66944   3 ;    C18-   C17-   C16-   H6R
  6392   6395   6398   6400      9     0.00   0.66944   3 ;    C18-   C17-   C16-   H6S
  6392   6395   6398   6401      9     0.00   0.41840   1 ;    C18-   C17-   C16-   C15
  6392   6395   6398   6401      9     0.00   0.41840   2 ;    C18-   C17-   C16-   C15
  6392   6395   6398   6401      9     0.00   0.41840   4 ;    C18-   C17-   C16-   C15
  6392   6395   6398   6401      9     0.00   0.41840   5 ;    C18-   C17-   C16-   C15
  6392   6395   6398   6401      9     0.00   1.25520   3 ;    C18-   C17-   C16-   C15
  6393   6392   6395   6396      9     0.00   0.62760   3 ;    H8R-   C18-   C17-   H7R
  6393   6392   6395   6397      9     0.00   0.62760   3 ;    H8R-   C18-   C17-   H7S
  6393   6392   6395   6398      9     0.00   0.66944   3 ;    H8R-   C18-   C17-   C16
  6394   6392   6395   6396      9     0.00   0.62760   3 ;    H8S-   C18-   C17-   H7R
  6394   6392   6395   6397      9     0.00   0.62760   3 ;    H8S-   C18-   C17-   H7S
  6394   6392   6395   6398      9     0.00   0.66944   3 ;    H8S-   C18-   C17-   C16
  6395   6398   6401   6402      9     0.00   0.66944   3 ;    C17-   C16-   C15-   H5R
  6395   6398   6401   6403      9     0.00   0.66944   3 ;    C17-   C16-   C15-   H5S
  6395   6398   6401   6404      9     0.00   0.41840   1 ;    C17-   C16-   C15-   C14
  6395   6398   6401   6404      9     0.00   0.41840   2 ;    C17-   C16-   C15-   C14
  6395   6398   6401   6404      9     0.00   0.41840   4 ;    C17-   C16-   C15-   C14
  6395   6398   6401   6404      9     0.00   0.41840   5 ;    C17-   C16-   C15-   C14
  6395   6398   6401   6404      9     0.00   1.25520   3 ;    C17-   C16-   C15-   C14
  6396   6395   6398   6399      9     0.00   0.62760   3 ;    H7R-   C17-   C16-   H6R
  6396   6395   6398   6400      9     0.00   0.62760   3 ;    H7R-   C17-   C16-   H6S
  6396   6395   6398   6401      9     0.00   0.66944   3 ;    H7R-   C17-   C16-   C15
  6397   6395   6398   6399      9     0.00   0.62760   3 ;    H7S-   C17-   C16-   H6R
  6397   6395   6398   6400      9     0.00   0.62760   3 ;    H7S-   C17-   C16-   H6S
  6397   6395   6398   6401      9     0.00   0.66944   3 ;    H7S-   C17-   C16-   C15
  6398   6401   6404   6405      9     0.00   0.66944   3 ;    C16-   C15-   C14-   H4R
  6398   6401   6404   6406      9     0.00   0.66944   3 ;    C16-   C15-   C14-   H4S
  6398   6401   6404   6407      9     0.00   0.41840   1 ;    C16-   C15-   C14-   C13
  6398   6401   6404   6407      9     0.00   0.41840   2 ;    C16-   C15-   C14-   C13
  6398   6401   6404   6407      9     0.00   0.41840   4 ;    C16-   C15-   C14-   C13
  6398   6401   6404   6407      9     0.00   0.41840   5 ;    C16-   C15-   C14-   C13
  6398   6401   6404   6407      9     0.00   1.25520   3 ;    C16-   C15-   C14-   C13
  6399   6398   6401   6402      9     0.00   0.62760   3 ;    H6R-   C16-   C15-   H5R
  6399   6398   6401   6403      9     0.00   0.62760   3 ;    H6R-   C16-   C15-   H5S
  6399   6398   6401   6404      9     0.00   0.66944   3 ;    H6R-   C16-   C15-   C14
  6400   6398   6401   6402      9     0.00   0.62760   3 ;    H6S-   C16-   C15-   H5R
  6400   6398   6401   6403      9     0.00   0.62760   3 ;    H6S-   C16-   C15-   H5S
  6400   6398   6401   6404      9     0.00   0.66944   3 ;    H6S-   C16-   C15-   C14
  6401   6404   6407   6408      9     0.00   0.66944   3 ;    C15-   C14-   C13-   H3R
  6401   6404   6407   6409      9     0.00   0.66944   3 ;    C15-   C14-   C13-   H3S
  6401   6404   6407   6410      9     0.00   0.41840   1 ;    C15-   C14-   C13-   C12
  6401   6404   6407   6410      9     0.00   0.41840   2 ;    C15-   C14-   C13-   C12
  6401   6404   6407   6410      9     0.00   0.41840   4 ;    C15-   C14-   C13-   C12
  6401   6404   6407   6410      9     0.00   0.41840   5 ;    C15-   C14-   C13-   C12
  6401   6404   6407   6410      9     0.00   1.25520   3 ;    C15-   C14-   C13-   C12
  6402   6401   6404   6405      9     0.00   0.62760   3 ;    H5R-   C15-   C14-   H4R
  6402   6401   6404   6406      9     0.00   0.62760   3 ;    H5R-   C15-   C14-   H4S
  6402   6401   6404   6407      9     0.00   0.66944   3 ;    H5R-   C15-   C14-   C13
  6403   6401   6404   6405      9     0.00   0.62760   3 ;    H5S-   C15-   C14-   H4R
  6403   6401   6404   6406      9     0.00   0.62760   3 ;    H5S-   C15-   C14-   H4S
  6403   6401   6404   6407      9     0.00   0.66944   3 ;    H5S-   C15-   C14-   C13
  6404   6407   6410   6411      9     0.00   0.66944   3 ;    C14-   C13-   C12-   H2R
  6404   6407   6410   6412      9     0.00   0.66944   3 ;    C14-   C13-   C12-   H2S
  6404   6407   6410   6413      9     0.00   0.65270   3 ;    C14-   C13-   C12-   C11
  6405   6404   6407   6408      9     0.00   0.62760   3 ;    H4R-   C14-   C13-   H3R
  6405   6404   6407   6409      9     0.00   0.62760   3 ;    H4R-   C14-   C13-   H3S
  6405   6404   6407   6410      9     0.00   0.66944   3 ;    H4R-   C14-   C13-   C12
  6406   6404   6407   6408      9     0.00   0.62760   3 ;    H4S-   C14-   C13-   H3R
  6406   6404   6407   6409      9     0.00   0.62760   3 ;    H4S-   C14-   C13-   H3S
  6406   6404   6407   6410      9     0.00   0.66944   3 ;    H4S-   C14-   C13-   C12
  6407   6410   6413   6414      9   180.00   0.00000   2 ;    C13-   C12-   C11-   O12
  6407   6410   6413   6415      9   180.00   0.00000   2 ;    C13-   C12-   C11-   O11
  6408   6407   6410   6411      9     0.00   0.62760   3 ;    H3R-   C13-   C12-   H2R
  6408   6407   6410   6412      9     0.00   0.62760   3 ;    H3R-   C13-   C12-   H2S
  6408   6407   6410   6413      9     0.00   0.65270   3 ;    H3R-   C13-   C12-   C11
  6409   6407   6410   6411      9     0.00   0.62760   3 ;    H3S-   C13-   C12-   H2R
  6409   6407   6410   6412      9     0.00   0.62760   3 ;    H3S-   C13-   C12-   H2S
  6409   6407   6410   6413      9     0.00   0.65270   3 ;    H3S-   C13-   C12-   C11
  6410   6413   6415   6416      9   180.00  11.29680   2 ;    C12-   C11-   O11-    C1
  6411   6410   6413   6414      9     0.00   3.34720   1 ;    H2R-   C12-   C11-   O12
  6411   6410   6413   6414      9   180.00   0.33472   3 ;    H2R-   C12-   C11-   O12
  6411   6410   6413   6415      9   180.00   0.00000   2 ;    H2R-   C12-   C11-   O11
  6412   6410   6413   6414      9     0.00   3.34720   1 ;    H2S-   C12-   C11-   O12
  6412   6410   6413   6414      9   180.00   0.33472   3 ;    H2S-   C12-   C11-   O12
  6412   6410   6413   6415      9   180.00   0.00000   2 ;    H2S-   C12-   C11-   O11
  6413   6415   6416   6417      9     0.00   1.60247   3 ;    C11-   O11-    C1-    HR
  6413   6415   6416   6418      9     0.00   1.60247   3 ;    C11-   O11-    C1-    HS
  6413   6415   6416   6419      9     0.00  -0.41840   1 ;    C11-   O11-    C1-    C2
  6414   6413   6415   6416      9   180.00   5.85760   1 ;    O12-   C11-   O11-    C1
  6414   6413   6415   6416      9   180.00  11.29680   2 ;    O12-   C11-   O11-    C1
  6415   6416   6419   6420      9     0.00   0.00000   0 ;    O11-    C1-    C2-    HX
  6415   6416   6419   6420      9     0.00   1.04600   1 ;    O11-    C1-    C2-    HX
  6415   6416   6419   6421      9     0.00   0.00000   0 ;    O11-    C1-    C2-    C3
  6415   6416   6419   6421      9     0.00   0.00000   0 ;    O11-    C1-    C2-    C3
  6415   6416   6419   6421      9     0.00   0.00000   0 ;    O11-    C1-    C2-    C3
  6415   6416   6419   6421      9     0.00   0.00000   0 ;    O11-    C1-    C2-    C3
  6415   6416   6419   6421      9     0.00   0.00000   0 ;    O11-    C1-    C2-    C3
  6415   6416   6419   6448      9     0.00   1.25520   2 ;    O11-    C1-    C2-   O21
  6415   6416   6419   6448      9     0.00   4.18400   3 ;    O11-    C1-    C2-   O21
  6415   6416   6419   6448      9   180.00  -0.41840   1 ;    O11-    C1-    C2-   O21
  6416   6419   6421   6422      9     0.00   0.65270   3 ;     C1-    C2-    C3-    HA
  6416   6419   6421   6423      9     0.00   0.65270   3 ;     C1-    C2-    C3-    HB
  6416   6419   6421   6424      9   180.00   3.34720   1 ;     C1-    C2-    C3-   O31
  6416   6419   6448   6449      9     0.00  -0.41840   1 ;     C1-    C2-   O21-   C21
  6417   6416   6419   6420      9     0.00   0.65270   3 ;     HR-    C1-    C2-    HX
  6417   6416   6419   6421      9     0.00   0.65270   3 ;     HR-    C1-    C2-    C3
  6417   6416   6419   6448      9     0.00   0.00000   0 ;     HR-    C1-    C2-   O21
  6417   6416   6419   6448      9     0.00   1.04600   1 ;     HR-    C1-    C2-   O21
  6418   6416   6419   6420      9     0.00   0.65270   3 ;     HS-    C1-    C2-    HX
  6418   6416   6419   6421      9     0.00   0.65270   3 ;     HS-    C1-    C2-    C3
  6418   6416   6419   6448      9     0.00   0.00000   0 ;     HS-    C1-    C2-   O21
  6418   6416   6419   6448      9     0.00   1.04600   1 ;     HS-    C1-    C2-   O21
  6419   6421   6424   6425      9     0.00   0.00000   0 ;     C2-    C3-   O31-   P31
  6419   6421   6424   6425      9   180.00  -3.34720   2 ;     C2-    C3-   O31-   P31
  6419   6448   6449   6450      9   180.00   5.85760   1 ;     C2-   O21-   C21-   O22
  6419   6448   6449   6450      9   180.00  11.29680   2 ;     C2-   O21-   C21-   O22
  6419   6448   6449   6488      9   180.00  11.29680   2 ;     C2-   O21-   C21-   C12
  6420   6419   6421   6422      9     0.00   0.65270   3 ;     HX-    C2-    C3-    HA
  6420   6419   6421   6423      9     0.00   0.65270   3 ;     HX-    C2-    C3-    HB
  6420   6419   6421   6424      9     0.00   0.00000   0 ;     HX-    C2-    C3-   O31
  6420   6419   6421   6424      9     0.00   1.04600   1 ;     HX-    C2-    C3-   O31
  6420   6419   6448   6449      9     0.00   1.60247   3 ;     HX-    C2-   O21-   C21
  6421   6419   6448   6449      9     0.00  -0.41840   1 ;     C3-    C2-   O21-   C21
  6421   6424   6425   6426      9     0.00   2.51040   3 ;     C3-   O31-   P31-   O32
  6421   6424   6425   6426      9     0.00   9.62320   2 ;     C3-   O31-   P31-   O32
  6421   6424   6425   6446      9     0.00   0.00000   0 ;     C3-   O31-   P31-   O33
  6421   6424   6425   6446      9     0.00   0.00000   0 ;     C3-   O31-   P31-   O33
  6421   6424   6425   6446      9     0.00   0.00000   0 ;     C3-   O31-   P31-   O33
  6421   6424   6425   6446      9     0.00   0.00000   0 ;     C3-   O31-   P31-   O33
  6421   6424   6425   6446      9     0.00   0.83680   2 ;     C3-   O31-   P31-   O33
  6421   6424   6425   6447      9     0.00   0.00000   0 ;     C3-   O31-   P31-   O34
  6421   6424   6425   6447      9     0.00   0.00000   0 ;     C3-   O31-   P31-   O34
  6421   6424   6425   6447      9     0.00   0.00000   0 ;     C3-   O31-   P31-   O34
  6421   6424   6425   6447      9     0.00   0.00000   0 ;     C3-   O31-   P31-   O34
  6421   6424   6425   6447      9     0.00   0.83680   2 ;     C3-   O31-   P31-   O34
  6422   6421   6419   6448      9     0.00   0.00000   0 ;     HA-    C3-    C2-   O21
  6422   6421   6419   6448      9     0.00   1.04600   1 ;     HA-    C3-    C2-   O21
  6422   6421   6424   6425      9     0.00   0.00000   0 ;     HA-    C3-   O31-   P31
  6422   6421   6424   6425      9     0.00   0.00000   0 ;     HA-    C3-   O31-   P31
  6422   6421   6424   6425      9     0.00   0.00000   0 ;     HA-    C3-   O31-   P31
  6422   6421   6424   6425      9     0.00   0.00000   0 ;     HA-    C3-   O31-   P31
  6422   6421   6424   6425      9     0.00   1.60247   3 ;     HA-    C3-   O31-   P31
  6423   6421   6419   6448      9     0.00   0.00000   0 ;     HB-    C3-    C2-   O21
  6423   6421   6419   6448      9     0.00   1.04600   1 ;     HB-    C3-    C2-   O21
  6423   6421   6424   6425      9     0.00   0.00000   0 ;     HB-    C3-   O31-   P31
  6423   6421   6424   6425      9     0.00   0.00000   0 ;     HB-    C3-   O31-   P31
  6423   6421   6424   6425      9     0.00   0.00000   0 ;     HB-    C3-   O31-   P31
  6423   6421   6424   6425      9     0.00   0.00000   0 ;     HB-    C3-   O31-   P31
  6423   6421   6424   6425      9     0.00   1.60247   3 ;     HB-    C3-   O31-   P31
  6424   6421   6419   6448      9     0.00   0.00000   0 ;    O31-    C3-    C2-   O21
  6424   6421   6419   6448      9     0.00   0.00000   0 ;    O31-    C3-    C2-   O21
  6424   6421   6419   6448      9     0.00   0.00000   0 ;    O31-    C3-    C2-   O21
  6424   6421   6419   6448      9     0.00   0.00000   0 ;    O31-    C3-    C2-   O21
  6424   6421   6419   6448      9     0.00   0.00000   0 ;    O31-    C3-    C2-   O21
  6424   6425   6426   6427      9     0.00   2.51040   3 ;    O31-   P31-   O32-   C31
  6424   6425   6426   6427      9     0.00   9.62320   2 ;    O31-   P31-   O32-   C31
  6425   6426   6427   6428      9     0.00   0.00000   0 ;    P31-   O32-   C31-   H1A
  6425   6426   6427   6428      9     0.00   0.00000   0 ;    P31-   O32-   C31-   H1A
  6425   6426   6427   6428      9     0.00   0.00000   0 ;    P31-   O32-   C31-   H1A
  6425   6426   6427   6428      9     0.00   0.00000   0 ;    P31-   O32-   C31-   H1A
  6425   6426   6427   6428      9     0.00   1.60247   3 ;    P31-   O32-   C31-   H1A
  6425   6426   6427   6429      9     0.00   0.00000   0 ;    P31-   O32-   C31-   H1B
  6425   6426   6427   6429      9     0.00   0.00000   0 ;    P31-   O32-   C31-   H1B
  6425   6426   6427   6429      9     0.00   0.00000   0 ;    P31-   O32-   C31-   H1B
  6425   6426   6427   6429      9     0.00   0.00000   0 ;    P31-   O32-   C31-   H1B
  6425   6426   6427   6429      9     0.00   1.60247   3 ;    P31-   O32-   C31-   H1B
  6425   6426   6427   6430      9     0.00   0.00000   0 ;    P31-   O32-   C31-   C32
  6425   6426   6427   6430      9   180.00  -3.34720   2 ;    P31-   O32-   C31-   C32
  6426   6427   6430   6431      9     0.00   0.65270   3 ;    O32-   C31-   C32-   H2A
  6426   6427   6430   6432      9     0.00   0.65270   3 ;    O32-   C31-   C32-   H2B
  6426   6427   6430   6433      9     0.00   4.18400   3 ;    O32-   C31-   C32-   N31
  6427   6426   6425   6446      9     0.00   0.00000   0 ;    C31-   O32-   P31-   O33
  6427   6426   6425   6446      9     0.00   0.00000   0 ;    C31-   O32-   P31-   O33
  6427   6426   6425   6446      9     0.00   0.00000   0 ;    C31-   O32-   P31-   O33
  6427   6426   6425   6446      9     0.00   0.00000   0 ;    C31-   O32-   P31-   O33
  6427   6426   6425   6446      9     0.00   0.83680   2 ;    C31-   O32-   P31-   O33
  6427   6426   6425   6447      9     0.00   0.00000   0 ;    C31-   O32-   P31-   O34
  6427   6426   6425   6447      9     0.00   0.00000   0 ;    C31-   O32-   P31-   O34
  6427   6426   6425   6447      9     0.00   0.00000   0 ;    C31-   O32-   P31-   O34
  6427   6426   6425   6447      9     0.00   0.00000   0 ;    C31-   O32-   P31-   O34
  6427   6426   6425   6447      9     0.00   0.83680   2 ;    C31-   O32-   P31-   O34
  6427   6430   6433   6434      9     0.00   0.65270   3 ;    C31-   C32-   N31-   C33
  6427   6430   6433   6438      9     0.00   0.65270   3 ;    C31-   C32-   N31-   C34
  6427   6430   6433   6442      9     0.00   0.65270   3 ;    C31-   C32-   N31-   C35
  6428   6427   6430   6431      9     0.00   0.65270   3 ;    H1A-   C31-   C32-   H2A
  6428   6427   6430   6432      9     0.00   0.65270   3 ;    H1A-   C31-   C32-   H2B
  6428   6427   6430   6433      9     0.00   0.65270   3 ;    H1A-   C31-   C32-   N31
  6429   6427   6430   6431      9     0.00   0.65270   3 ;    H1B-   C31-   C32-   H2A
  6429   6427   6430   6432      9     0.00   0.65270   3 ;    H1B-   C31-   C32-   H2B
  6429   6427   6430   6433      9     0.00   0.65270   3 ;    H1B-   C31-   C32-   N31
  6430   6433   6434   6435      9     0.00   0.65270   3 ;    C32-   N31-   C33-   H3A
  6430   6433   6434   6436      9     0.00   0.65270   3 ;    C32-   N31-   C33-   H3B
  6430   6433   6434   6437      9     0.00   0.65270   3 ;    C32-   N31-   C33-   H3C
  6430   6433   6438   6439      9     0.00   0.65270   3 ;    C32-   N31-   C34-   H4A
  6430   6433   6438   6440      9     0.00   0.65270   3 ;    C32-   N31-   C34-   H4B
  6430   6433   6438   6441      9     0.00   0.65270   3 ;    C32-   N31-   C34-   H4C
  6430   6433   6442   6443      9     0.00   0.65270   3 ;    C32-   N31-   C35-   H5A
  6430   6433   6442   6444      9     0.00   0.65270   3 ;    C32-   N31-   C35-   H5B
  6430   6433   6442   6445      9     0.00   0.65270   3 ;    C32-   N31-   C35-   H5C
  6431   6430   6433   6434      9     0.00   0.65270   3 ;    H2A-   C32-   N31-   C33
  6431   6430   6433   6438      9     0.00   0.65270   3 ;    H2A-   C32-   N31-   C34
  6431   6430   6433   6442      9     0.00   0.65270   3 ;    H2A-   C32-   N31-   C35
  6432   6430   6433   6434      9     0.00   0.65270   3 ;    H2B-   C32-   N31-   C33
  6432   6430   6433   6438      9     0.00   0.65270   3 ;    H2B-   C32-   N31-   C34
  6432   6430   6433   6442      9     0.00   0.65270   3 ;    H2B-   C32-   N31-   C35
  6434   6433   6438   6439      9     0.00   0.65270   3 ;    C33-   N31-   C34-   H4A
  6434   6433   6438   6440      9     0.00   0.65270   3 ;    C33-   N31-   C34-   H4B
  6434   6433   6438   6441      9     0.00   0.65270   3 ;    C33-   N31-   C34-   H4C
  6434   6433   6442   6443      9     0.00   0.65270   3 ;    C33-   N31-   C35-   H5A
  6434   6433   6442   6444      9     0.00   0.65270   3 ;    C33-   N31-   C35-   H5B
  6434   6433   6442   6445      9     0.00   0.65270   3 ;    C33-   N31-   C35-   H5C
  6435   6434   6433   6438      9     0.00   0.65270   3 ;    H3A-   C33-   N31-   C34
  6435   6434   6433   6442      9     0.00   0.65270   3 ;    H3A-   C33-   N31-   C35
  6436   6434   6433   6438      9     0.00   0.65270   3 ;    H3B-   C33-   N31-   C34
  6436   6434   6433   6442      9     0.00   0.65270   3 ;    H3B-   C33-   N31-   C35
  6437   6434   6433   6438      9     0.00   0.65270   3 ;    H3C-   C33-   N31-   C34
  6437   6434   6433   6442      9     0.00   0.65270   3 ;    H3C-   C33-   N31-   C35
  6438   6433   6442   6443      9     0.00   0.65270   3 ;    C34-   N31-   C35-   H5A
  6438   6433   6442   6444      9     0.00   0.65270   3 ;    C34-   N31-   C35-   H5B
  6438   6433   6442   6445      9     0.00   0.65270   3 ;    C34-   N31-   C35-   H5C
  6439   6438   6433   6442      9     0.00   0.65270   3 ;    H4A-   C34-   N31-   C35
  6440   6438   6433   6442      9     0.00   0.65270   3 ;    H4B-   C34-   N31-   C35
  6441   6438   6433   6442      9     0.00   0.65270   3 ;    H4C-   C34-   N31-   C35
  6448   6449   6488   6485      9   180.00   0.00000   2 ;    O21-   C21-   C12-   C13
  6448   6449   6488   6489      9   180.00   0.00000   2 ;    O21-   C21-   C12-   H2R
  6448   6449   6488   6490      9   180.00   0.00000   2 ;    O21-   C21-   C12-   H2S
  6449   6488   6485   6482      9     0.00   0.65270   3 ;    C21-   C12-   C13-   C14
  6449   6488   6485   6486      9     0.00   0.65270   3 ;    C21-   C12-   C13-   H3R
  6449   6488   6485   6487      9     0.00   0.65270   3 ;    C21-   C12-   C13-   H3S
  6450   6449   6488   6485      9   180.00   0.00000   2 ;    O22-   C21-   C12-   C13
  6450   6449   6488   6489      9     0.00   3.34720   1 ;    O22-   C21-   C12-   H2R
  6450   6449   6488   6489      9   180.00   0.33472   3 ;    O22-   C21-   C12-   H2R
  6450   6449   6488   6490      9     0.00   3.34720   1 ;    O22-   C21-   C12-   H2S
  6450   6449   6488   6490      9   180.00   0.33472   3 ;    O22-   C21-   C12-   H2S
  6451   6452   6455   6456      9     0.00   0.62760   3 ;   H14T-  C114-  C113-  H13R
  6451   6452   6455   6457      9     0.00   0.62760   3 ;   H14T-  C114-  C113-  H13S
  6451   6452   6455   6458      9     0.00   0.66944   3 ;   H14T-  C114-  C113-  C112
  6452   6455   6458   6459      9     0.00   0.66944   3 ;   C114-  C113-  C112-  H12R
  6452   6455   6458   6460      9     0.00   0.66944   3 ;   C114-  C113-  C112-  H12S
  6452   6455   6458   6461      9     0.00   0.41840   1 ;   C114-  C113-  C112-  C111
  6452   6455   6458   6461      9     0.00   0.41840   2 ;   C114-  C113-  C112-  C111
  6452   6455   6458   6461      9     0.00   0.41840   4 ;   C114-  C113-  C112-  C111
  6452   6455   6458   6461      9     0.00   0.41840   5 ;   C114-  C113-  C112-  C111
  6452   6455   6458   6461      9     0.00   1.25520   3 ;   C114-  C113-  C112-  C111
  6453   6452   6455   6456      9     0.00   0.62760   3 ;   H14R-  C114-  C113-  H13R
  6453   6452   6455   6457      9     0.00   0.62760   3 ;   H14R-  C114-  C113-  H13S
  6453   6452   6455   6458      9     0.00   0.66944   3 ;   H14R-  C114-  C113-  C112
  6454   6452   6455   6456      9     0.00   0.62760   3 ;   H14S-  C114-  C113-  H13R
  6454   6452   6455   6457      9     0.00   0.62760   3 ;   H14S-  C114-  C113-  H13S
  6454   6452   6455   6458      9     0.00   0.66944   3 ;   H14S-  C114-  C113-  C112
  6455   6458   6461   6462      9     0.00   0.66944   3 ;   C113-  C112-  C111-  H11R
  6455   6458   6461   6463      9     0.00   0.66944   3 ;   C113-  C112-  C111-  H11S
  6455   6458   6461   6464      9     0.00   0.41840   1 ;   C113-  C112-  C111-  C110
  6455   6458   6461   6464      9     0.00   0.41840   2 ;   C113-  C112-  C111-  C110
  6455   6458   6461   6464      9     0.00   0.41840   4 ;   C113-  C112-  C111-  C110
  6455   6458   6461   6464      9     0.00   0.41840   5 ;   C113-  C112-  C111-  C110
  6455   6458   6461   6464      9     0.00   1.25520   3 ;   C113-  C112-  C111-  C110
  6456   6455   6458   6459      9     0.00   0.62760   3 ;   H13R-  C113-  C112-  H12R
  6456   6455   6458   6460      9     0.00   0.62760   3 ;   H13R-  C113-  C112-  H12S
  6456   6455   6458   6461      9     0.00   0.66944   3 ;   H13R-  C113-  C112-  C111
  6457   6455   6458   6459      9     0.00   0.62760   3 ;   H13S-  C113-  C112-  H12R
  6457   6455   6458   6460      9     0.00   0.62760   3 ;   H13S-  C113-  C112-  H12S
  6457   6455   6458   6461      9     0.00   0.66944   3 ;   H13S-  C113-  C112-  C111
  6458   6461   6464   6465      9     0.00   0.66944   3 ;   C112-  C111-  C110-  H10R
  6458   6461   6464   6466      9     0.00   0.66944   3 ;   C112-  C111-  C110-  H10S
  6458   6461   6464   6467      9     0.00   0.41840   1 ;   C112-  C111-  C110-   C19
  6458   6461   6464   6467      9     0.00   0.41840   2 ;   C112-  C111-  C110-   C19
  6458   6461   6464   6467      9     0.00   0.41840   4 ;   C112-  C111-  C110-   C19
  6458   6461   6464   6467      9     0.00   0.41840   5 ;   C112-  C111-  C110-   C19
  6458   6461   6464   6467      9     0.00   1.25520   3 ;   C112-  C111-  C110-   C19
  6459   6458   6461   6462      9     0.00   0.62760   3 ;   H12R-  C112-  C111-  H11R
  6459   6458   6461   6463      9     0.00   0.62760   3 ;   H12R-  C112-  C111-  H11S
  6459   6458   6461   6464      9     0.00   0.66944   3 ;   H12R-  C112-  C111-  C110
  6460   6458   6461   6462      9     0.00   0.62760   3 ;   H12S-  C112-  C111-  H11R
  6460   6458   6461   6463      9     0.00   0.62760   3 ;   H12S-  C112-  C111-  H11S
  6460   6458   6461   6464      9     0.00   0.66944   3 ;   H12S-  C112-  C111-  C110
  6461   6464   6467   6468      9     0.00   0.66944   3 ;   C111-  C110-   C19-   H9R
  6461   6464   6467   6469      9     0.00   0.66944   3 ;   C111-  C110-   C19-   H9S
  6461   6464   6467   6470      9     0.00   0.41840   1 ;   C111-  C110-   C19-   C18
  6461   6464   6467   6470      9     0.00   0.41840   2 ;   C111-  C110-   C19-   C18
  6461   6464   6467   6470      9     0.00   0.41840   4 ;   C111-  C110-   C19-   C18
  6461   6464   6467   6470      9     0.00   0.41840   5 ;   C111-  C110-   C19-   C18
  6461   6464   6467   6470      9     0.00   1.25520   3 ;   C111-  C110-   C19-   C18
  6462   6461   6464   6465      9     0.00   0.62760   3 ;   H11R-  C111-  C110-  H10R
  6462   6461   6464   6466      9     0.00   0.62760   3 ;   H11R-  C111-  C110-  H10S
  6462   6461   6464   6467      9     0.00   0.66944   3 ;   H11R-  C111-  C110-   C19
  6463   6461   6464   6465      9     0.00   0.62760   3 ;   H11S-  C111-  C110-  H10R
  6463   6461   6464   6466      9     0.00   0.62760   3 ;   H11S-  C111-  C110-  H10S
  6463   6461   6464   6467      9     0.00   0.66944   3 ;   H11S-  C111-  C110-   C19
  6464   6467   6470   6471      9     0.00   0.66944   3 ;   C110-   C19-   C18-   H8R
  6464   6467   6470   6472      9     0.00   0.66944   3 ;   C110-   C19-   C18-   H8S
  6464   6467   6470   6473      9     0.00   0.41840   1 ;   C110-   C19-   C18-   C17
  6464   6467   6470   6473      9     0.00   0.41840   2 ;   C110-   C19-   C18-   C17
  6464   6467   6470   6473      9     0.00   0.41840   4 ;   C110-   C19-   C18-   C17
  6464   6467   6470   6473      9     0.00   0.41840   5 ;   C110-   C19-   C18-   C17
  6464   6467   6470   6473      9     0.00   1.25520   3 ;   C110-   C19-   C18-   C17
  6465   6464   6467   6468      9     0.00   0.62760   3 ;   H10R-  C110-   C19-   H9R
  6465   6464   6467   6469      9     0.00   0.62760   3 ;   H10R-  C110-   C19-   H9S
  6465   6464   6467   6470      9     0.00   0.66944   3 ;   H10R-  C110-   C19-   C18
  6466   6464   6467   6468      9     0.00   0.62760   3 ;   H10S-  C110-   C19-   H9R
  6466   6464   6467   6469      9     0.00   0.62760   3 ;   H10S-  C110-   C19-   H9S
  6466   6464   6467   6470      9     0.00   0.66944   3 ;   H10S-  C110-   C19-   C18
  6467   6470   6473   6474      9     0.00   0.66944   3 ;    C19-   C18-   C17-   H7R
  6467   6470   6473   6475      9     0.00   0.66944   3 ;    C19-   C18-   C17-   H7S
  6467   6470   6473   6476      9     0.00   0.41840   1 ;    C19-   C18-   C17-   C16
  6467   6470   6473   6476      9     0.00   0.41840   2 ;    C19-   C18-   C17-   C16
  6467   6470   6473   6476      9     0.00   0.41840   4 ;    C19-   C18-   C17-   C16
  6467   6470   6473   6476      9     0.00   0.41840   5 ;    C19-   C18-   C17-   C16
  6467   6470   6473   6476      9     0.00   1.25520   3 ;    C19-   C18-   C17-   C16
  6468   6467   6470   6471      9     0.00   0.62760   3 ;    H9R-   C19-   C18-   H8R
  6468   6467   6470   6472      9     0.00   0.62760   3 ;    H9R-   C19-   C18-   H8S
  6468   6467   6470   6473      9     0.00   0.66944   3 ;    H9R-   C19-   C18-   C17
  6469   6467   6470   6471      9     0.00   0.62760   3 ;    H9S-   C19-   C18-   H8R
  6469   6467   6470   6472      9     0.00   0.62760   3 ;    H9S-   C19-   C18-   H8S
  6469   6467   6470   6473      9     0.00   0.66944   3 ;    H9S-   C19-   C18-   C17
  6470   6473   6476   6477      9     0.00   0.66944   3 ;    C18-   C17-   C16-   H6R
  6470   6473   6476   6478      9     0.00   0.66944   3 ;    C18-   C17-   C16-   H6S
  6470   6473   6476   6479      9     0.00   0.41840   1 ;    C18-   C17-   C16-   C15
  6470   6473   6476   6479      9     0.00   0.41840   2 ;    C18-   C17-   C16-   C15
  6470   6473   6476   6479      9     0.00   0.41840   4 ;    C18-   C17-   C16-   C15
  6470   6473   6476   6479      9     0.00   0.41840   5 ;    C18-   C17-   C16-   C15
  6470   6473   6476   6479      9     0.00   1.25520   3 ;    C18-   C17-   C16-   C15
  6471   6470   6473   6474      9     0.00   0.62760   3 ;    H8R-   C18-   C17-   H7R
  6471   6470   6473   6475      9     0.00   0.62760   3 ;    H8R-   C18-   C17-   H7S
  6471   6470   6473   6476      9     0.00   0.66944   3 ;    H8R-   C18-   C17-   C16
  6472   6470   6473   6474      9     0.00   0.62760   3 ;    H8S-   C18-   C17-   H7R
  6472   6470   6473   6475      9     0.00   0.62760   3 ;    H8S-   C18-   C17-   H7S
  6472   6470   6473   6476      9     0.00   0.66944   3 ;    H8S-   C18-   C17-   C16
  6473   6476   6479   6480      9     0.00   0.66944   3 ;    C17-   C16-   C15-   H5R
  6473   6476   6479   6481      9     0.00   0.66944   3 ;    C17-   C16-   C15-   H5S
  6473   6476   6479   6482      9     0.00   0.41840   1 ;    C17-   C16-   C15-   C14
  6473   6476   6479   6482      9     0.00   0.41840   2 ;    C17-   C16-   C15-   C14
  6473   6476   6479   6482      9     0.00   0.41840   4 ;    C17-   C16-   C15-   C14
  6473   6476   6479   6482      9     0.00   0.41840   5 ;    C17-   C16-   C15-   C14
  6473   6476   6479   6482      9     0.00   1.25520   3 ;    C17-   C16-   C15-   C14
  6474   6473   6476   6477      9     0.00   0.62760   3 ;    H7R-   C17-   C16-   H6R
  6474   6473   6476   6478      9     0.00   0.62760   3 ;    H7R-   C17-   C16-   H6S
  6474   6473   6476   6479      9     0.00   0.66944   3 ;    H7R-   C17-   C16-   C15
  6475   6473   6476   6477      9     0.00   0.62760   3 ;    H7S-   C17-   C16-   H6R
  6475   6473   6476   6478      9     0.00   0.62760   3 ;    H7S-   C17-   C16-   H6S
  6475   6473   6476   6479      9     0.00   0.66944   3 ;    H7S-   C17-   C16-   C15
  6476   6479   6482   6483      9     0.00   0.66944   3 ;    C16-   C15-   C14-   H4R
  6476   6479   6482   6484      9     0.00   0.66944   3 ;    C16-   C15-   C14-   H4S
  6476   6479   6482   6485      9     0.00   0.41840   1 ;    C16-   C15-   C14-   C13
  6476   6479   6482   6485      9     0.00   0.41840   2 ;    C16-   C15-   C14-   C13
  6476   6479   6482   6485      9     0.00   0.41840   4 ;    C16-   C15-   C14-   C13
  6476   6479   6482   6485      9     0.00   0.41840   5 ;    C16-   C15-   C14-   C13
  6476   6479   6482   6485      9     0.00   1.25520   3 ;    C16-   C15-   C14-   C13
  6477   6476   6479   6480      9     0.00   0.62760   3 ;    H6R-   C16-   C15-   H5R
  6477   6476   6479   6481      9     0.00   0.62760   3 ;    H6R-   C16-   C15-   H5S
  6477   6476   6479   6482      9     0.00   0.66944   3 ;    H6R-   C16-   C15-   C14
  6478   6476   6479   6480      9     0.00   0.62760   3 ;    H6S-   C16-   C15-   H5R
  6478   6476   6479   6481      9     0.00   0.62760   3 ;    H6S-   C16-   C15-   H5S
  6478   6476   6479   6482      9     0.00   0.66944   3 ;    H6S-   C16-   C15-   C14
  6479   6482   6485   6486      9     0.00   0.66944   3 ;    C15-   C14-   C13-   H3R
  6479   6482   6485   6487      9     0.00   0.66944   3 ;    C15-   C14-   C13-   H3S
  6479   6482   6485   6488      9     0.00   0.41840   1 ;    C15-   C14-   C13-   C12
  6479   6482   6485   6488      9     0.00   0.41840   2 ;    C15-   C14-   C13-   C12
  6479   6482   6485   6488      9     0.00   0.41840   4 ;    C15-   C14-   C13-   C12
  6479   6482   6485   6488      9     0.00   0.41840   5 ;    C15-   C14-   C13-   C12
  6479   6482   6485   6488      9     0.00   1.25520   3 ;    C15-   C14-   C13-   C12
  6480   6479   6482   6483      9     0.00   0.62760   3 ;    H5R-   C15-   C14-   H4R
  6480   6479   6482   6484      9     0.00   0.62760   3 ;    H5R-   C15-   C14-   H4S
  6480   6479   6482   6485      9     0.00   0.66944   3 ;    H5R-   C15-   C14-   C13
  6481   6479   6482   6483      9     0.00   0.62760   3 ;    H5S-   C15-   C14-   H4R
  6481   6479   6482   6484      9     0.00   0.62760   3 ;    H5S-   C15-   C14-   H4S
  6481   6479   6482   6485      9     0.00   0.66944   3 ;    H5S-   C15-   C14-   C13
  6482   6485   6488   6489      9     0.00   0.66944   3 ;    C14-   C13-   C12-   H2R
  6482   6485   6488   6490      9     0.00   0.66944   3 ;    C14-   C13-   C12-   H2S
  6483   6482   6485   6486      9     0.00   0.62760   3 ;    H4R-   C14-   C13-   H3R
  6483   6482   6485   6487      9     0.00   0.62760   3 ;    H4R-   C14-   C13-   H3S
  6483   6482   6485   6488      9     0.00   0.66944   3 ;    H4R-   C14-   C13-   C12
  6484   6482   6485   6486      9     0.00   0.62760   3 ;    H4S-   C14-   C13-   H3R
  6484   6482   6485   6487      9     0.00   0.62760   3 ;    H4S-   C14-   C13-   H3S
  6484   6482   6485   6488      9     0.00   0.66944   3 ;    H4S-   C14-   C13-   C12
  6486   6485   6488   6489      9     0.00   0.62760   3 ;    H3R-   C13-   C12-   H2R
  6486   6485   6488   6490      9     0.00   0.62760   3 ;    H3R-   C13-   C12-   H2S
  6487   6485   6488   6489      9     0.00   0.62760   3 ;    H3S-   C13-   C12-   H2R
  6487   6485   6488   6490      9     0.00   0.62760   3 ;    H3S-   C13-   C12-   H2S
  6491   6492   6495   6496      9     0.00   0.62760   3 ;   H14T-  C114-  C113-  H13R
  6491   6492   6495   6497      9     0.00   0.62760   3 ;   H14T-  C114-  C113-  H13S
  6491   6492   6495   6498      9     0.00   0.66944   3 ;   H14T-  C114-  C113-  C112
  6492   6495   6498   6499      9     0.00   0.66944   3 ;   C114-  C113-  C112-  H12R
  6492   6495   6498   6500      9     0.00   0.66944   3 ;   C114-  C113-  C112-  H12S
  6492   6495   6498   6501      9     0.00   0.41840   1 ;   C114-  C113-  C112-  C111
  6492   6495   6498   6501      9     0.00   0.41840   2 ;   C114-  C113-  C112-  C111
  6492   6495   6498   6501      9     0.00   0.41840   4 ;   C114-  C113-  C112-  C111
  6492   6495   6498   6501      9     0.00   0.41840   5 ;   C114-  C113-  C112-  C111
  6492   6495   6498   6501      9     0.00   1.25520   3 ;   C114-  C113-  C112-  C111
  6493   6492   6495   6496      9     0.00   0.62760   3 ;   H14R-  C114-  C113-  H13R
  6493   6492   6495   6497      9     0.00   0.62760   3 ;   H14R-  C114-  C113-  H13S
  6493   6492   6495   6498      9     0.00   0.66944   3 ;   H14R-  C114-  C113-  C112
  6494   6492   6495   6496      9     0.00   0.62760   3 ;   H14S-  C114-  C113-  H13R
  6494   6492   6495   6497      9     0.00   0.62760   3 ;   H14S-  C114-  C113-  H13S
  6494   6492   6495   6498      9     0.00   0.66944   3 ;   H14S-  C114-  C113-  C112
  6495   6498   6501   6502      9     0.00   0.66944   3 ;   C113-  C112-  C111-  H11R
  6495   6498   6501   6503      9     0.00   0.66944   3 ;   C113-  C112-  C111-  H11S
  6495   6498   6501   6504      9     0.00   0.41840   1 ;   C113-  C112-  C111-  C110
  6495   6498   6501   6504      9     0.00   0.41840   2 ;   C113-  C112-  C111-  C110
  6495   6498   6501   6504      9     0.00   0.41840   4 ;   C113-  C112-  C111-  C110
  6495   6498   6501   6504      9     0.00   0.41840   5 ;   C113-  C112-  C111-  C110
  6495   6498   6501   6504      9     0.00   1.25520   3 ;   C113-  C112-  C111-  C110
  6496   6495   6498   6499      9     0.00   0.62760   3 ;   H13R-  C113-  C112-  H12R
  6496   6495   6498   6500      9     0.00   0.62760   3 ;   H13R-  C113-  C112-  H12S
  6496   6495   6498   6501      9     0.00   0.66944   3 ;   H13R-  C113-  C112-  C111
  6497   6495   6498   6499      9     0.00   0.62760   3 ;   H13S-  C113-  C112-  H12R
  6497   6495   6498   6500      9     0.00   0.62760   3 ;   H13S-  C113-  C112-  H12S
  6497   6495   6498   6501      9     0.00   0.66944   3 ;   H13S-  C113-  C112-  C111
  6498   6501   6504   6505      9     0.00   0.66944   3 ;   C112-  C111-  C110-  H10R
  6498   6501   6504   6506      9     0.00   0.66944   3 ;   C112-  C111-  C110-  H10S
  6498   6501   6504   6507      9     0.00   0.41840   1 ;   C112-  C111-  C110-   C19
  6498   6501   6504   6507      9     0.00   0.41840   2 ;   C112-  C111-  C110-   C19
  6498   6501   6504   6507      9     0.00   0.41840   4 ;   C112-  C111-  C110-   C19
  6498   6501   6504   6507      9     0.00   0.41840   5 ;   C112-  C111-  C110-   C19
  6498   6501   6504   6507      9     0.00   1.25520   3 ;   C112-  C111-  C110-   C19
  6499   6498   6501   6502      9     0.00   0.62760   3 ;   H12R-  C112-  C111-  H11R
  6499   6498   6501   6503      9     0.00   0.62760   3 ;   H12R-  C112-  C111-  H11S
  6499   6498   6501   6504      9     0.00   0.66944   3 ;   H12R-  C112-  C111-  C110
  6500   6498   6501   6502      9     0.00   0.62760   3 ;   H12S-  C112-  C111-  H11R
  6500   6498   6501   6503      9     0.00   0.62760   3 ;   H12S-  C112-  C111-  H11S
  6500   6498   6501   6504      9     0.00   0.66944   3 ;   H12S-  C112-  C111-  C110
  6501   6504   6507   6508      9     0.00   0.66944   3 ;   C111-  C110-   C19-   H9R
  6501   6504   6507   6509      9     0.00   0.66944   3 ;   C111-  C110-   C19-   H9S
  6501   6504   6507   6510      9     0.00   0.41840   1 ;   C111-  C110-   C19-   C18
  6501   6504   6507   6510      9     0.00   0.41840   2 ;   C111-  C110-   C19-   C18
  6501   6504   6507   6510      9     0.00   0.41840   4 ;   C111-  C110-   C19-   C18
  6501   6504   6507   6510      9     0.00   0.41840   5 ;   C111-  C110-   C19-   C18
  6501   6504   6507   6510      9     0.00   1.25520   3 ;   C111-  C110-   C19-   C18
  6502   6501   6504   6505      9     0.00   0.62760   3 ;   H11R-  C111-  C110-  H10R
  6502   6501   6504   6506      9     0.00   0.62760   3 ;   H11R-  C111-  C110-  H10S
  6502   6501   6504   6507      9     0.00   0.66944   3 ;   H11R-  C111-  C110-   C19
  6503   6501   6504   6505      9     0.00   0.62760   3 ;   H11S-  C111-  C110-  H10R
  6503   6501   6504   6506      9     0.00   0.62760   3 ;   H11S-  C111-  C110-  H10S
  6503   6501   6504   6507      9     0.00   0.66944   3 ;   H11S-  C111-  C110-   C19
  6504   6507   6510   6511      9     0.00   0.66944   3 ;   C110-   C19-   C18-   H8R
  6504   6507   6510   6512      9     0.00   0.66944   3 ;   C110-   C19-   C18-   H8S
  6504   6507   6510   6513      9     0.00   0.41840   1 ;   C110-   C19-   C18-   C17
  6504   6507   6510   6513      9     0.00   0.41840   2 ;   C110-   C19-   C18-   C17
  6504   6507   6510   6513      9     0.00   0.41840   4 ;   C110-   C19-   C18-   C17
  6504   6507   6510   6513      9     0.00   0.41840   5 ;   C110-   C19-   C18-   C17
  6504   6507   6510   6513      9     0.00   1.25520   3 ;   C110-   C19-   C18-   C17
  6505   6504   6507   6508      9     0.00   0.62760   3 ;   H10R-  C110-   C19-   H9R
  6505   6504   6507   6509      9     0.00   0.62760   3 ;   H10R-  C110-   C19-   H9S
  6505   6504   6507   6510      9     0.00   0.66944   3 ;   H10R-  C110-   C19-   C18
  6506   6504   6507   6508      9     0.00   0.62760   3 ;   H10S-  C110-   C19-   H9R
  6506   6504   6507   6509      9     0.00   0.62760   3 ;   H10S-  C110-   C19-   H9S
  6506   6504   6507   6510      9     0.00   0.66944   3 ;   H10S-  C110-   C19-   C18
  6507   6510   6513   6514      9     0.00   0.66944   3 ;    C19-   C18-   C17-   H7R
  6507   6510   6513   6515      9     0.00   0.66944   3 ;    C19-   C18-   C17-   H7S
  6507   6510   6513   6516      9     0.00   0.41840   1 ;    C19-   C18-   C17-   C16
  6507   6510   6513   6516      9     0.00   0.41840   2 ;    C19-   C18-   C17-   C16
  6507   6510   6513   6516      9     0.00   0.41840   4 ;    C19-   C18-   C17-   C16
  6507   6510   6513   6516      9     0.00   0.41840   5 ;    C19-   C18-   C17-   C16
  6507   6510   6513   6516      9     0.00   1.25520   3 ;    C19-   C18-   C17-   C16
  6508   6507   6510   6511      9     0.00   0.62760   3 ;    H9R-   C19-   C18-   H8R
  6508   6507   6510   6512      9     0.00   0.62760   3 ;    H9R-   C19-   C18-   H8S
  6508   6507   6510   6513      9     0.00   0.66944   3 ;    H9R-   C19-   C18-   C17
  6509   6507   6510   6511      9     0.00   0.62760   3 ;    H9S-   C19-   C18-   H8R
  6509   6507   6510   6512      9     0.00   0.62760   3 ;    H9S-   C19-   C18-   H8S
  6509   6507   6510   6513      9     0.00   0.66944   3 ;    H9S-   C19-   C18-   C17
  6510   6513   6516   6517      9     0.00   0.66944   3 ;    C18-   C17-   C16-   H6R
  6510   6513   6516   6518      9     0.00   0.66944   3 ;    C18-   C17-   C16-   H6S
  6510   6513   6516   6519      9     0.00   0.41840   1 ;    C18-   C17-   C16-   C15
  6510   6513   6516   6519      9     0.00   0.41840   2 ;    C18-   C17-   C16-   C15
  6510   6513   6516   6519      9     0.00   0.41840   4 ;    C18-   C17-   C16-   C15
  6510   6513   6516   6519      9     0.00   0.41840   5 ;    C18-   C17-   C16-   C15
  6510   6513   6516   6519      9     0.00   1.25520   3 ;    C18-   C17-   C16-   C15
  6511   6510   6513   6514      9     0.00   0.62760   3 ;    H8R-   C18-   C17-   H7R
  6511   6510   6513   6515      9     0.00   0.62760   3 ;    H8R-   C18-   C17-   H7S
  6511   6510   6513   6516      9     0.00   0.66944   3 ;    H8R-   C18-   C17-   C16
  6512   6510   6513   6514      9     0.00   0.62760   3 ;    H8S-   C18-   C17-   H7R
  6512   6510   6513   6515      9     0.00   0.62760   3 ;    H8S-   C18-   C17-   H7S
  6512   6510   6513   6516      9     0.00   0.66944   3 ;    H8S-   C18-   C17-   C16
  6513   6516   6519   6520      9     0.00   0.66944   3 ;    C17-   C16-   C15-   H5R
  6513   6516   6519   6521      9     0.00   0.66944   3 ;    C17-   C16-   C15-   H5S
  6513   6516   6519   6522      9     0.00   0.41840   1 ;    C17-   C16-   C15-   C14
  6513   6516   6519   6522      9     0.00   0.41840   2 ;    C17-   C16-   C15-   C14
  6513   6516   6519   6522      9     0.00   0.41840   4 ;    C17-   C16-   C15-   C14
  6513   6516   6519   6522      9     0.00   0.41840   5 ;    C17-   C16-   C15-   C14
  6513   6516   6519   6522      9     0.00   1.25520   3 ;    C17-   C16-   C15-   C14
  6514   6513   6516   6517      9     0.00   0.62760   3 ;    H7R-   C17-   C16-   H6R
  6514   6513   6516   6518      9     0.00   0.62760   3 ;    H7R-   C17-   C16-   H6S
  6514   6513   6516   6519      9     0.00   0.66944   3 ;    H7R-   C17-   C16-   C15
  6515   6513   6516   6517      9     0.00   0.62760   3 ;    H7S-   C17-   C16-   H6R
  6515   6513   6516   6518      9     0.00   0.62760   3 ;    H7S-   C17-   C16-   H6S
  6515   6513   6516   6519      9     0.00   0.66944   3 ;    H7S-   C17-   C16-   C15
  6516   6519   6522   6523      9     0.00   0.66944   3 ;    C16-   C15-   C14-   H4R
  6516   6519   6522   6524      9     0.00   0.66944   3 ;    C16-   C15-   C14-   H4S
  6516   6519   6522   6525      9     0.00   0.41840   1 ;    C16-   C15-   C14-   C13
  6516   6519   6522   6525      9     0.00   0.41840   2 ;    C16-   C15-   C14-   C13
  6516   6519   6522   6525      9     0.00   0.41840   4 ;    C16-   C15-   C14-   C13
  6516   6519   6522   6525      9     0.00   0.41840   5 ;    C16-   C15-   C14-   C13
  6516   6519   6522   6525      9     0.00   1.25520   3 ;    C16-   C15-   C14-   C13
  6517   6516   6519   6520      9     0.00   0.62760   3 ;    H6R-   C16-   C15-   H5R
  6517   6516   6519   6521      9     0.00   0.62760   3 ;    H6R-   C16-   C15-   H5S
  6517   6516   6519   6522      9     0.00   0.66944   3 ;    H6R-   C16-   C15-   C14
  6518   6516   6519   6520      9     0.00   0.62760   3 ;    H6S-   C16-   C15-   H5R
  6518   6516   6519   6521      9     0.00   0.62760   3 ;    H6S-   C16-   C15-   H5S
  6518   6516   6519   6522      9     0.00   0.66944   3 ;    H6S-   C16-   C15-   C14
  6519   6522   6525   6526      9     0.00   0.66944   3 ;    C15-   C14-   C13-   H3R
  6519   6522   6525   6527      9     0.00   0.66944   3 ;    C15-   C14-   C13-   H3S
  6519   6522   6525   6528      9     0.00   0.41840   1 ;    C15-   C14-   C13-   C12
  6519   6522   6525   6528      9     0.00   0.41840   2 ;    C15-   C14-   C13-   C12
  6519   6522   6525   6528      9     0.00   0.41840   4 ;    C15-   C14-   C13-   C12
  6519   6522   6525   6528      9     0.00   0.41840   5 ;    C15-   C14-   C13-   C12
  6519   6522   6525   6528      9     0.00   1.25520   3 ;    C15-   C14-   C13-   C12
  6520   6519   6522   6523      9     0.00   0.62760   3 ;    H5R-   C15-   C14-   H4R
  6520   6519   6522   6524      9     0.00   0.62760   3 ;    H5R-   C15-   C14-   H4S
  6520   6519   6522   6525      9     0.00   0.66944   3 ;    H5R-   C15-   C14-   C13
  6521   6519   6522   6523      9     0.00   0.62760   3 ;    H5S-   C15-   C14-   H4R
  6521   6519   6522   6524      9     0.00   0.62760   3 ;    H5S-   C15-   C14-   H4S
  6521   6519   6522   6525      9     0.00   0.66944   3 ;    H5S-   C15-   C14-   C13
  6522   6525   6528   6529      9     0.00   0.66944   3 ;    C14-   C13-   C12-   H2R
  6522   6525   6528   6530      9     0.00   0.66944   3 ;    C14-   C13-   C12-   H2S
  6522   6525   6528   6531      9     0.00   0.65270   3 ;    C14-   C13-   C12-   C11
  6523   6522   6525   6526      9     0.00   0.62760   3 ;    H4R-   C14-   C13-   H3R
  6523   6522   6525   6527      9     0.00   0.62760   3 ;    H4R-   C14-   C13-   H3S
  6523   6522   6525   6528      9     0.00   0.66944   3 ;    H4R-   C14-   C13-   C12
  6524   6522   6525   6526      9     0.00   0.62760   3 ;    H4S-   C14-   C13-   H3R
  6524   6522   6525   6527      9     0.00   0.62760   3 ;    H4S-   C14-   C13-   H3S
  6524   6522   6525   6528      9     0.00   0.66944   3 ;    H4S-   C14-   C13-   C12
  6525   6528   6531   6532      9   180.00   0.00000   2 ;    C13-   C12-   C11-   O12
  6525   6528   6531   6533      9   180.00   0.00000   2 ;    C13-   C12-   C11-   O11
  6526   6525   6528   6529      9     0.00   0.62760   3 ;    H3R-   C13-   C12-   H2R
  6526   6525   6528   6530      9     0.00   0.62760   3 ;    H3R-   C13-   C12-   H2S
  6526   6525   6528   6531      9     0.00   0.65270   3 ;    H3R-   C13-   C12-   C11
  6527   6525   6528   6529      9     0.00   0.62760   3 ;    H3S-   C13-   C12-   H2R
  6527   6525   6528   6530      9     0.00   0.62760   3 ;    H3S-   C13-   C12-   H2S
  6527   6525   6528   6531      9     0.00   0.65270   3 ;    H3S-   C13-   C12-   C11
  6528   6531   6533   6534      9   180.00  11.29680   2 ;    C12-   C11-   O11-    C1
  6529   6528   6531   6532      9     0.00   3.34720   1 ;    H2R-   C12-   C11-   O12
  6529   6528   6531   6532      9   180.00   0.33472   3 ;    H2R-   C12-   C11-   O12
  6529   6528   6531   6533      9   180.00   0.00000   2 ;    H2R-   C12-   C11-   O11
  6530   6528   6531   6532      9     0.00   3.34720   1 ;    H2S-   C12-   C11-   O12
  6530   6528   6531   6532      9   180.00   0.33472   3 ;    H2S-   C12-   C11-   O12
  6530   6528   6531   6533      9   180.00   0.00000   2 ;    H2S-   C12-   C11-   O11
  6531   6533   6534   6535      9     0.00   1.60247   3 ;    C11-   O11-    C1-    HR
  6531   6533   6534   6536      9     0.00   1.60247   3 ;    C11-   O11-    C1-    HS
  6531   6533   6534   6537      9     0.00  -0.41840   1 ;    C11-   O11-    C1-    C2
  6532   6531   6533   6534      9   180.00   5.85760   1 ;    O12-   C11-   O11-    C1
  6532   6531   6533   6534      9   180.00  11.29680   2 ;    O12-   C11-   O11-    C1
  6533   6534   6537   6538      9     0.00   0.00000   0 ;    O11-    C1-    C2-    HX
  6533   6534   6537   6538      9     0.00   1.04600   1 ;    O11-    C1-    C2-    HX
  6533   6534   6537   6539      9     0.00   0.00000   0 ;    O11-    C1-    C2-    C3
  6533   6534   6537   6539      9     0.00   0.00000   0 ;    O11-    C1-    C2-    C3
  6533   6534   6537   6539      9     0.00   0.00000   0 ;    O11-    C1-    C2-    C3
  6533   6534   6537   6539      9     0.00   0.00000   0 ;    O11-    C1-    C2-    C3
  6533   6534   6537   6539      9     0.00   0.00000   0 ;    O11-    C1-    C2-    C3
  6533   6534   6537   6566      9     0.00   1.25520   2 ;    O11-    C1-    C2-   O21
  6533   6534   6537   6566      9     0.00   4.18400   3 ;    O11-    C1-    C2-   O21
  6533   6534   6537   6566      9   180.00  -0.41840   1 ;    O11-    C1-    C2-   O21
  6534   6537   6539   6540      9     0.00   0.65270   3 ;     C1-    C2-    C3-    HA
  6534   6537   6539   6541      9     0.00   0.65270   3 ;     C1-    C2-    C3-    HB
  6534   6537   6539   6542      9   180.00   3.34720   1 ;     C1-    C2-    C3-   O31
  6534   6537   6566   6567      9     0.00  -0.41840   1 ;     C1-    C2-   O21-   C21
  6535   6534   6537   6538      9     0.00   0.65270   3 ;     HR-    C1-    C2-    HX
  6535   6534   6537   6539      9     0.00   0.65270   3 ;     HR-    C1-    C2-    C3
  6535   6534   6537   6566      9     0.00   0.00000   0 ;     HR-    C1-    C2-   O21
  6535   6534   6537   6566      9     0.00   1.04600   1 ;     HR-    C1-    C2-   O21
  6536   6534   6537   6538      9     0.00   0.65270   3 ;     HS-    C1-    C2-    HX
  6536   6534   6537   6539      9     0.00   0.65270   3 ;     HS-    C1-    C2-    C3
  6536   6534   6537   6566      9     0.00   0.00000   0 ;     HS-    C1-    C2-   O21
  6536   6534   6537   6566      9     0.00   1.04600   1 ;     HS-    C1-    C2-   O21
  6537   6539   6542   6543      9     0.00   0.00000   0 ;     C2-    C3-   O31-   P31
  6537   6539   6542   6543      9   180.00  -3.34720   2 ;     C2-    C3-   O31-   P31
  6537   6566   6567   6568      9   180.00   5.85760   1 ;     C2-   O21-   C21-   O22
  6537   6566   6567   6568      9   180.00  11.29680   2 ;     C2-   O21-   C21-   O22
  6537   6566   6567   6606      9   180.00  11.29680   2 ;     C2-   O21-   C21-   C12
  6538   6537   6539   6540      9     0.00   0.65270   3 ;     HX-    C2-    C3-    HA
  6538   6537   6539   6541      9     0.00   0.65270   3 ;     HX-    C2-    C3-    HB
  6538   6537   6539   6542      9     0.00   0.00000   0 ;     HX-    C2-    C3-   O31
  6538   6537   6539   6542      9     0.00   1.04600   1 ;     HX-    C2-    C3-   O31
  6538   6537   6566   6567      9     0.00   1.60247   3 ;     HX-    C2-   O21-   C21
  6539   6537   6566   6567      9     0.00  -0.41840   1 ;     C3-    C2-   O21-   C21
  6539   6542   6543   6544      9     0.00   2.51040   3 ;     C3-   O31-   P31-   O32
  6539   6542   6543   6544      9     0.00   9.62320   2 ;     C3-   O31-   P31-   O32
  6539   6542   6543   6564      9     0.00   0.00000   0 ;     C3-   O31-   P31-   O33
  6539   6542   6543   6564      9     0.00   0.00000   0 ;     C3-   O31-   P31-   O33
  6539   6542   6543   6564      9     0.00   0.00000   0 ;     C3-   O31-   P31-   O33
  6539   6542   6543   6564      9     0.00   0.00000   0 ;     C3-   O31-   P31-   O33
  6539   6542   6543   6564      9     0.00   0.83680   2 ;     C3-   O31-   P31-   O33
  6539   6542   6543   6565      9     0.00   0.00000   0 ;     C3-   O31-   P31-   O34
  6539   6542   6543   6565      9     0.00   0.00000   0 ;     C3-   O31-   P31-   O34
  6539   6542   6543   6565      9     0.00   0.00000   0 ;     C3-   O31-   P31-   O34
  6539   6542   6543   6565      9     0.00   0.00000   0 ;     C3-   O31-   P31-   O34
  6539   6542   6543   6565      9     0.00   0.83680   2 ;     C3-   O31-   P31-   O34
  6540   6539   6537   6566      9     0.00   0.00000   0 ;     HA-    C3-    C2-   O21
  6540   6539   6537   6566      9     0.00   1.04600   1 ;     HA-    C3-    C2-   O21
  6540   6539   6542   6543      9     0.00   0.00000   0 ;     HA-    C3-   O31-   P31
  6540   6539   6542   6543      9     0.00   0.00000   0 ;     HA-    C3-   O31-   P31
  6540   6539   6542   6543      9     0.00   0.00000   0 ;     HA-    C3-   O31-   P31
  6540   6539   6542   6543      9     0.00   0.00000   0 ;     HA-    C3-   O31-   P31
  6540   6539   6542   6543      9     0.00   1.60247   3 ;     HA-    C3-   O31-   P31
  6541   6539   6537   6566      9     0.00   0.00000   0 ;     HB-    C3-    C2-   O21
  6541   6539   6537   6566      9     0.00   1.04600   1 ;     HB-    C3-    C2-   O21
  6541   6539   6542   6543      9     0.00   0.00000   0 ;     HB-    C3-   O31-   P31
  6541   6539   6542   6543      9     0.00   0.00000   0 ;     HB-    C3-   O31-   P31
  6541   6539   6542   6543      9     0.00   0.00000   0 ;     HB-    C3-   O31-   P31
  6541   6539   6542   6543      9     0.00   0.00000   0 ;     HB-    C3-   O31-   P31
  6541   6539   6542   6543      9     0.00   1.60247   3 ;     HB-    C3-   O31-   P31
  6542   6539   6537   6566      9     0.00   0.00000   0 ;    O31-    C3-    C2-   O21
  6542   6539   6537   6566      9     0.00   0.00000   0 ;    O31-    C3-    C2-   O21
  6542   6539   6537   6566      9     0.00   0.00000   0 ;    O31-    C3-    C2-   O21
  6542   6539   6537   6566      9     0.00   0.00000   0 ;    O31-    C3-    C2-   O21
  6542   6539   6537   6566      9     0.00   0.00000   0 ;    O31-    C3-    C2-   O21
  6542   6543   6544   6545      9     0.00   2.51040   3 ;    O31-   P31-   O32-   C31
  6542   6543   6544   6545      9     0.00   9.62320   2 ;    O31-   P31-   O32-   C31
  6543   6544   6545   6546      9     0.00   0.00000   0 ;    P31-   O32-   C31-   H1A
  6543   6544   6545   6546      9     0.00   0.00000   0 ;    P31-   O32-   C31-   H1A
  6543   6544   6545   6546      9     0.00   0.00000   0 ;    P31-   O32-   C31-   H1A
  6543   6544   6545   6546      9     0.00   0.00000   0 ;    P31-   O32-   C31-   H1A
  6543   6544   6545   6546      9     0.00   1.60247   3 ;    P31-   O32-   C31-   H1A
  6543   6544   6545   6547      9     0.00   0.00000   0 ;    P31-   O32-   C31-   H1B
  6543   6544   6545   6547      9     0.00   0.00000   0 ;    P31-   O32-   C31-   H1B
  6543   6544   6545   6547      9     0.00   0.00000   0 ;    P31-   O32-   C31-   H1B
  6543   6544   6545   6547      9     0.00   0.00000   0 ;    P31-   O32-   C31-   H1B
  6543   6544   6545   6547      9     0.00   1.60247   3 ;    P31-   O32-   C31-   H1B
  6543   6544   6545   6548      9     0.00   0.00000   0 ;    P31-   O32-   C31-   C32
  6543   6544   6545   6548      9   180.00  -3.34720   2 ;    P31-   O32-   C31-   C32
  6544   6545   6548   6549      9     0.00   0.65270   3 ;    O32-   C31-   C32-   H2A
  6544   6545   6548   6550      9     0.00   0.65270   3 ;    O32-   C31-   C32-   H2B
  6544   6545   6548   6551      9     0.00   4.18400   3 ;    O32-   C31-   C32-   N31
  6545   6544   6543   6564      9     0.00   0.00000   0 ;    C31-   O32-   P31-   O33
  6545   6544   6543   6564      9     0.00   0.00000   0 ;    C31-   O32-   P31-   O33
  6545   6544   6543   6564      9     0.00   0.00000   0 ;    C31-   O32-   P31-   O33
  6545   6544   6543   6564      9     0.00   0.00000   0 ;    C31-   O32-   P31-   O33
  6545   6544   6543   6564      9     0.00   0.83680   2 ;    C31-   O32-   P31-   O33
  6545   6544   6543   6565      9     0.00   0.00000   0 ;    C31-   O32-   P31-   O34
  6545   6544   6543   6565      9     0.00   0.00000   0 ;    C31-   O32-   P31-   O34
  6545   6544   6543   6565      9     0.00   0.00000   0 ;    C31-   O32-   P31-   O34
  6545   6544   6543   6565      9     0.00   0.00000   0 ;    C31-   O32-   P31-   O34
  6545   6544   6543   6565      9     0.00   0.83680   2 ;    C31-   O32-   P31-   O34
  6545   6548   6551   6552      9     0.00   0.65270   3 ;    C31-   C32-   N31-   C33
  6545   6548   6551   6556      9     0.00   0.65270   3 ;    C31-   C32-   N31-   C34
  6545   6548   6551   6560      9     0.00   0.65270   3 ;    C31-   C32-   N31-   C35
  6546   6545   6548   6549      9     0.00   0.65270   3 ;    H1A-   C31-   C32-   H2A
  6546   6545   6548   6550      9     0.00   0.65270   3 ;    H1A-   C31-   C32-   H2B
  6546   6545   6548   6551      9     0.00   0.65270   3 ;    H1A-   C31-   C32-   N31
  6547   6545   6548   6549      9     0.00   0.65270   3 ;    H1B-   C31-   C32-   H2A
  6547   6545   6548   6550      9     0.00   0.65270   3 ;    H1B-   C31-   C32-   H2B
  6547   6545   6548   6551      9     0.00   0.65270   3 ;    H1B-   C31-   C32-   N31
  6548   6551   6552   6553      9     0.00   0.65270   3 ;    C32-   N31-   C33-   H3A
  6548   6551   6552   6554      9     0.00   0.65270   3 ;    C32-   N31-   C33-   H3B
  6548   6551   6552   6555      9     0.00   0.65270   3 ;    C32-   N31-   C33-   H3C
  6548   6551   6556   6557      9     0.00   0.65270   3 ;    C32-   N31-   C34-   H4A
  6548   6551   6556   6558      9     0.00   0.65270   3 ;    C32-   N31-   C34-   H4B
  6548   6551   6556   6559      9     0.00   0.65270   3 ;    C32-   N31-   C34-   H4C
  6548   6551   6560   6561      9     0.00   0.65270   3 ;    C32-   N31-   C35-   H5A
  6548   6551   6560   6562      9     0.00   0.65270   3 ;    C32-   N31-   C35-   H5B
  6548   6551   6560   6563      9     0.00   0.65270   3 ;    C32-   N31-   C35-   H5C
  6549   6548   6551   6552      9     0.00   0.65270   3 ;    H2A-   C32-   N31-   C33
  6549   6548   6551   6556      9     0.00   0.65270   3 ;    H2A-   C32-   N31-   C34
  6549   6548   6551   6560      9     0.00   0.65270   3 ;    H2A-   C32-   N31-   C35
  6550   6548   6551   6552      9     0.00   0.65270   3 ;    H2B-   C32-   N31-   C33
  6550   6548   6551   6556      9     0.00   0.65270   3 ;    H2B-   C32-   N31-   C34
  6550   6548   6551   6560      9     0.00   0.65270   3 ;    H2B-   C32-   N31-   C35
  6552   6551   6556   6557      9     0.00   0.65270   3 ;    C33-   N31-   C34-   H4A
  6552   6551   6556   6558      9     0.00   0.65270   3 ;    C33-   N31-   C34-   H4B
  6552   6551   6556   6559      9     0.00   0.65270   3 ;    C33-   N31-   C34-   H4C
  6552   6551   6560   6561      9     0.00   0.65270   3 ;    C33-   N31-   C35-   H5A
  6552   6551   6560   6562      9     0.00   0.65270   3 ;    C33-   N31-   C35-   H5B
  6552   6551   6560   6563      9     0.00   0.65270   3 ;    C33-   N31-   C35-   H5C
  6553   6552   6551   6556      9     0.00   0.65270   3 ;    H3A-   C33-   N31-   C34
  6553   6552   6551   6560      9     0.00   0.65270   3 ;    H3A-   C33-   N31-   C35
  6554   6552   6551   6556      9     0.00   0.65270   3 ;    H3B-   C33-   N31-   C34
  6554   6552   6551   6560      9     0.00   0.65270   3 ;    H3B-   C33-   N31-   C35
  6555   6552   6551   6556      9     0.00   0.65270   3 ;    H3C-   C33-   N31-   C34
  6555   6552   6551   6560      9     0.00   0.65270   3 ;    H3C-   C33-   N31-   C35
  6556   6551   6560   6561      9     0.00   0.65270   3 ;    C34-   N31-   C35-   H5A
  6556   6551   6560   6562      9     0.00   0.65270   3 ;    C34-   N31-   C35-   H5B
  6556   6551   6560   6563      9     0.00   0.65270   3 ;    C34-   N31-   C35-   H5C
  6557   6556   6551   6560      9     0.00   0.65270   3 ;    H4A-   C34-   N31-   C35
  6558   6556   6551   6560      9     0.00   0.65270   3 ;    H4B-   C34-   N31-   C35
  6559   6556   6551   6560      9     0.00   0.65270   3 ;    H4C-   C34-   N31-   C35
  6566   6567   6606   6603      9   180.00   0.00000   2 ;    O21-   C21-   C12-   C13
  6566   6567   6606   6607      9   180.00   0.00000   2 ;    O21-   C21-   C12-   H2R
  6566   6567   6606   6608      9   180.00   0.00000   2 ;    O21-   C21-   C12-   H2S
  6567   6606   6603   6600      9     0.00   0.65270   3 ;    C21-   C12-   C13-   C14
  6567   6606   6603   6604      9     0.00   0.65270   3 ;    C21-   C12-   C13-   H3R
  6567   6606   6603   6605      9     0.00   0.65270   3 ;    C21-   C12-   C13-   H3S
  6568   6567   6606   6603      9   180.00   0.00000   2 ;    O22-   C21-   C12-   C13
  6568   6567   6606   6607      9     0.00   3.34720   1 ;    O22-   C21-   C12-   H2R
  6568   6567   6606   6607      9   180.00   0.33472   3 ;    O22-   C21-   C12-   H2R
  6568   6567   6606   6608      9     0.00   3.34720   1 ;    O22-   C21-   C12-   H2S
  6568   6567   6606   6608      9   180.00   0.33472   3 ;    O22-   C21-   C12-   H2S
  6569   6570   6573   6574      9     0.00   0.62760   3 ;   H14T-  C114-  C113-  H13R
  6569   6570   6573   6575      9     0.00   0.62760   3 ;   H14T-  C114-  C113-  H13S
  6569   6570   6573   6576      9     0.00   0.66944   3 ;   H14T-  C114-  C113-  C112
  6570   6573   6576   6577      9     0.00   0.66944   3 ;   C114-  C113-  C112-  H12R
  6570   6573   6576   6578      9     0.00   0.66944   3 ;   C114-  C113-  C112-  H12S
  6570   6573   6576   6579      9     0.00   0.41840   1 ;   C114-  C113-  C112-  C111
  6570   6573   6576   6579      9     0.00   0.41840   2 ;   C114-  C113-  C112-  C111
  6570   6573   6576   6579      9     0.00   0.41840   4 ;   C114-  C113-  C112-  C111
  6570   6573   6576   6579      9     0.00   0.41840   5 ;   C114-  C113-  C112-  C111
  6570   6573   6576   6579      9     0.00   1.25520   3 ;   C114-  C113-  C112-  C111
  6571   6570   6573   6574      9     0.00   0.62760   3 ;   H14R-  C114-  C113-  H13R
  6571   6570   6573   6575      9     0.00   0.62760   3 ;   H14R-  C114-  C113-  H13S
  6571   6570   6573   6576      9     0.00   0.66944   3 ;   H14R-  C114-  C113-  C112
  6572   6570   6573   6574      9     0.00   0.62760   3 ;   H14S-  C114-  C113-  H13R
  6572   6570   6573   6575      9     0.00   0.62760   3 ;   H14S-  C114-  C113-  H13S
  6572   6570   6573   6576      9     0.00   0.66944   3 ;   H14S-  C114-  C113-  C112
  6573   6576   6579   6580      9     0.00   0.66944   3 ;   C113-  C112-  C111-  H11R
  6573   6576   6579   6581      9     0.00   0.66944   3 ;   C113-  C112-  C111-  H11S
  6573   6576   6579   6582      9     0.00   0.41840   1 ;   C113-  C112-  C111-  C110
  6573   6576   6579   6582      9     0.00   0.41840   2 ;   C113-  C112-  C111-  C110
  6573   6576   6579   6582      9     0.00   0.41840   4 ;   C113-  C112-  C111-  C110
  6573   6576   6579   6582      9     0.00   0.41840   5 ;   C113-  C112-  C111-  C110
  6573   6576   6579   6582      9     0.00   1.25520   3 ;   C113-  C112-  C111-  C110
  6574   6573   6576   6577      9     0.00   0.62760   3 ;   H13R-  C113-  C112-  H12R
  6574   6573   6576   6578      9     0.00   0.62760   3 ;   H13R-  C113-  C112-  H12S
  6574   6573   6576   6579      9     0.00   0.66944   3 ;   H13R-  C113-  C112-  C111
  6575   6573   6576   6577      9     0.00   0.62760   3 ;   H13S-  C113-  C112-  H12R
  6575   6573   6576   6578      9     0.00   0.62760   3 ;   H13S-  C113-  C112-  H12S
  6575   6573   6576   6579      9     0.00   0.66944   3 ;   H13S-  C113-  C112-  C111
  6576   6579   6582   6583      9     0.00   0.66944   3 ;   C112-  C111-  C110-  H10R
  6576   6579   6582   6584      9     0.00   0.66944   3 ;   C112-  C111-  C110-  H10S
  6576   6579   6582   6585      9     0.00   0.41840   1 ;   C112-  C111-  C110-   C19
  6576   6579   6582   6585      9     0.00   0.41840   2 ;   C112-  C111-  C110-   C19
  6576   6579   6582   6585      9     0.00   0.41840   4 ;   C112-  C111-  C110-   C19
  6576   6579   6582   6585      9     0.00   0.41840   5 ;   C112-  C111-  C110-   C19
  6576   6579   6582   6585      9     0.00   1.25520   3 ;   C112-  C111-  C110-   C19
  6577   6576   6579   6580      9     0.00   0.62760   3 ;   H12R-  C112-  C111-  H11R
  6577   6576   6579   6581      9     0.00   0.62760   3 ;   H12R-  C112-  C111-  H11S
  6577   6576   6579   6582      9     0.00   0.66944   3 ;   H12R-  C112-  C111-  C110
  6578   6576   6579   6580      9     0.00   0.62760   3 ;   H12S-  C112-  C111-  H11R
  6578   6576   6579   6581      9     0.00   0.62760   3 ;   H12S-  C112-  C111-  H11S
  6578   6576   6579   6582      9     0.00   0.66944   3 ;   H12S-  C112-  C111-  C110
  6579   6582   6585   6586      9     0.00   0.66944   3 ;   C111-  C110-   C19-   H9R
  6579   6582   6585   6587      9     0.00   0.66944   3 ;   C111-  C110-   C19-   H9S
  6579   6582   6585   6588      9     0.00   0.41840   1 ;   C111-  C110-   C19-   C18
  6579   6582   6585   6588      9     0.00   0.41840   2 ;   C111-  C110-   C19-   C18
  6579   6582   6585   6588      9     0.00   0.41840   4 ;   C111-  C110-   C19-   C18
  6579   6582   6585   6588      9     0.00   0.41840   5 ;   C111-  C110-   C19-   C18
  6579   6582   6585   6588      9     0.00   1.25520   3 ;   C111-  C110-   C19-   C18
  6580   6579   6582   6583      9     0.00   0.62760   3 ;   H11R-  C111-  C110-  H10R
  6580   6579   6582   6584      9     0.00   0.62760   3 ;   H11R-  C111-  C110-  H10S
  6580   6579   6582   6585      9     0.00   0.66944   3 ;   H11R-  C111-  C110-   C19
  6581   6579   6582   6583      9     0.00   0.62760   3 ;   H11S-  C111-  C110-  H10R
  6581   6579   6582   6584      9     0.00   0.62760   3 ;   H11S-  C111-  C110-  H10S
  6581   6579   6582   6585      9     0.00   0.66944   3 ;   H11S-  C111-  C110-   C19
  6582   6585   6588   6589      9     0.00   0.66944   3 ;   C110-   C19-   C18-   H8R
  6582   6585   6588   6590      9     0.00   0.66944   3 ;   C110-   C19-   C18-   H8S
  6582   6585   6588   6591      9     0.00   0.41840   1 ;   C110-   C19-   C18-   C17
  6582   6585   6588   6591      9     0.00   0.41840   2 ;   C110-   C19-   C18-   C17
  6582   6585   6588   6591      9     0.00   0.41840   4 ;   C110-   C19-   C18-   C17
  6582   6585   6588   6591      9     0.00   0.41840   5 ;   C110-   C19-   C18-   C17
  6582   6585   6588   6591      9     0.00   1.25520   3 ;   C110-   C19-   C18-   C17
  6583   6582   6585   6586      9     0.00   0.62760   3 ;   H10R-  C110-   C19-   H9R
  6583   6582   6585   6587      9     0.00   0.62760   3 ;   H10R-  C110-   C19-   H9S
  6583   6582   6585   6588      9     0.00   0.66944   3 ;   H10R-  C110-   C19-   C18
  6584   6582   6585   6586      9     0.00   0.62760   3 ;   H10S-  C110-   C19-   H9R
  6584   6582   6585   6587      9     0.00   0.62760   3 ;   H10S-  C110-   C19-   H9S
  6584   6582   6585   6588      9     0.00   0.66944   3 ;   H10S-  C110-   C19-   C18
  6585   6588   6591   6592      9     0.00   0.66944   3 ;    C19-   C18-   C17-   H7R
  6585   6588   6591   6593      9     0.00   0.66944   3 ;    C19-   C18-   C17-   H7S
  6585   6588   6591   6594      9     0.00   0.41840   1 ;    C19-   C18-   C17-   C16
  6585   6588   6591   6594      9     0.00   0.41840   2 ;    C19-   C18-   C17-   C16
  6585   6588   6591   6594      9     0.00   0.41840   4 ;    C19-   C18-   C17-   C16
  6585   6588   6591   6594      9     0.00   0.41840   5 ;    C19-   C18-   C17-   C16
  6585   6588   6591   6594      9     0.00   1.25520   3 ;    C19-   C18-   C17-   C16
  6586   6585   6588   6589      9     0.00   0.62760   3 ;    H9R-   C19-   C18-   H8R
  6586   6585   6588   6590      9     0.00   0.62760   3 ;    H9R-   C19-   C18-   H8S
  6586   6585   6588   6591      9     0.00   0.66944   3 ;    H9R-   C19-   C18-   C17
  6587   6585   6588   6589      9     0.00   0.62760   3 ;    H9S-   C19-   C18-   H8R
  6587   6585   6588   6590      9     0.00   0.62760   3 ;    H9S-   C19-   C18-   H8S
  6587   6585   6588   6591      9     0.00   0.66944   3 ;    H9S-   C19-   C18-   C17
  6588   6591   6594   6595      9     0.00   0.66944   3 ;    C18-   C17-   C16-   H6R
  6588   6591   6594   6596      9     0.00   0.66944   3 ;    C18-   C17-   C16-   H6S
  6588   6591   6594   6597      9     0.00   0.41840   1 ;    C18-   C17-   C16-   C15
  6588   6591   6594   6597      9     0.00   0.41840   2 ;    C18-   C17-   C16-   C15
  6588   6591   6594   6597      9     0.00   0.41840   4 ;    C18-   C17-   C16-   C15
  6588   6591   6594   6597      9     0.00   0.41840   5 ;    C18-   C17-   C16-   C15
  6588   6591   6594   6597      9     0.00   1.25520   3 ;    C18-   C17-   C16-   C15
  6589   6588   6591   6592      9     0.00   0.62760   3 ;    H8R-   C18-   C17-   H7R
  6589   6588   6591   6593      9     0.00   0.62760   3 ;    H8R-   C18-   C17-   H7S
  6589   6588   6591   6594      9     0.00   0.66944   3 ;    H8R-   C18-   C17-   C16
  6590   6588   6591   6592      9     0.00   0.62760   3 ;    H8S-   C18-   C17-   H7R
  6590   6588   6591   6593      9     0.00   0.62760   3 ;    H8S-   C18-   C17-   H7S
  6590   6588   6591   6594      9     0.00   0.66944   3 ;    H8S-   C18-   C17-   C16
  6591   6594   6597   6598      9     0.00   0.66944   3 ;    C17-   C16-   C15-   H5R
  6591   6594   6597   6599      9     0.00   0.66944   3 ;    C17-   C16-   C15-   H5S
  6591   6594   6597   6600      9     0.00   0.41840   1 ;    C17-   C16-   C15-   C14
  6591   6594   6597   6600      9     0.00   0.41840   2 ;    C17-   C16-   C15-   C14
  6591   6594   6597   6600      9     0.00   0.41840   4 ;    C17-   C16-   C15-   C14
  6591   6594   6597   6600      9     0.00   0.41840   5 ;    C17-   C16-   C15-   C14
  6591   6594   6597   6600      9     0.00   1.25520   3 ;    C17-   C16-   C15-   C14
  6592   6591   6594   6595      9     0.00   0.62760   3 ;    H7R-   C17-   C16-   H6R
  6592   6591   6594   6596      9     0.00   0.62760   3 ;    H7R-   C17-   C16-   H6S
  6592   6591   6594   6597      9     0.00   0.66944   3 ;    H7R-   C17-   C16-   C15
  6593   6591   6594   6595      9     0.00   0.62760   3 ;    H7S-   C17-   C16-   H6R
  6593   6591   6594   6596      9     0.00   0.62760   3 ;    H7S-   C17-   C16-   H6S
  6593   6591   6594   6597      9     0.00   0.66944   3 ;    H7S-   C17-   C16-   C15
  6594   6597   6600   6601      9     0.00   0.66944   3 ;    C16-   C15-   C14-   H4R
  6594   6597   6600   6602      9     0.00   0.66944   3 ;    C16-   C15-   C14-   H4S
  6594   6597   6600   6603      9     0.00   0.41840   1 ;    C16-   C15-   C14-   C13
  6594   6597   6600   6603      9     0.00   0.41840   2 ;    C16-   C15-   C14-   C13
  6594   6597   6600   6603      9     0.00   0.41840   4 ;    C16-   C15-   C14-   C13
  6594   6597   6600   6603      9     0.00   0.41840   5 ;    C16-   C15-   C14-   C13
  6594   6597   6600   6603      9     0.00   1.25520   3 ;    C16-   C15-   C14-   C13
  6595   6594   6597   6598      9     0.00   0.62760   3 ;    H6R-   C16-   C15-   H5R
  6595   6594   6597   6599      9     0.00   0.62760   3 ;    H6R-   C16-   C15-   H5S
  6595   6594   6597   6600      9     0.00   0.66944   3 ;    H6R-   C16-   C15-   C14
  6596   6594   6597   6598      9     0.00   0.62760   3 ;    H6S-   C16-   C15-   H5R
  6596   6594   6597   6599      9     0.00   0.62760   3 ;    H6S-   C16-   C15-   H5S
  6596   6594   6597   6600      9     0.00   0.66944   3 ;    H6S-   C16-   C15-   C14
  6597   6600   6603   6604      9     0.00   0.66944   3 ;    C15-   C14-   C13-   H3R
  6597   6600   6603   6605      9     0.00   0.66944   3 ;    C15-   C14-   C13-   H3S
  6597   6600   6603   6606      9     0.00   0.41840   1 ;    C15-   C14-   C13-   C12
  6597   6600   6603   6606      9     0.00   0.41840   2 ;    C15-   C14-   C13-   C12
  6597   6600   6603   6606      9     0.00   0.41840   4 ;    C15-   C14-   C13-   C12
  6597   6600   6603   6606      9     0.00   0.41840   5 ;    C15-   C14-   C13-   C12
  6597   6600   6603   6606      9     0.00   1.25520   3 ;    C15-   C14-   C13-   C12
  6598   6597   6600   6601      9     0.00   0.62760   3 ;    H5R-   C15-   C14-   H4R
  6598   6597   6600   6602      9     0.00   0.62760   3 ;    H5R-   C15-   C14-   H4S
  6598   6597   6600   6603      9     0.00   0.66944   3 ;    H5R-   C15-   C14-   C13
  6599   6597   6600   6601      9     0.00   0.62760   3 ;    H5S-   C15-   C14-   H4R
  6599   6597   6600   6602      9     0.00   0.62760   3 ;    H5S-   C15-   C14-   H4S
  6599   6597   6600   6603      9     0.00   0.66944   3 ;    H5S-   C15-   C14-   C13
  6600   6603   6606   6607      9     0.00   0.66944   3 ;    C14-   C13-   C12-   H2R
  6600   6603   6606   6608      9     0.00   0.66944   3 ;    C14-   C13-   C12-   H2S
  6601   6600   6603   6604      9     0.00   0.62760   3 ;    H4R-   C14-   C13-   H3R
  6601   6600   6603   6605      9     0.00   0.62760   3 ;    H4R-   C14-   C13-   H3S
  6601   6600   6603   6606      9     0.00   0.66944   3 ;    H4R-   C14-   C13-   C12
  6602   6600   6603   6604      9     0.00   0.62760   3 ;    H4S-   C14-   C13-   H3R
  6602   6600   6603   6605      9     0.00   0.62760   3 ;    H4S-   C14-   C13-   H3S
  6602   6600   6603   6606      9     0.00   0.66944   3 ;    H4S-   C14-   C13-   C12
  6604   6603   6606   6607      9     0.00   0.62760   3 ;    H3R-   C13-   C12-   H2R
  6604   6603   6606   6608      9     0.00   0.62760   3 ;    H3R-   C13-   C12-   H2S
  6605   6603   6606   6607      9     0.00   0.62760   3 ;    H3S-   C13-   C12-   H2R
  6605   6603   6606   6608      9     0.00   0.62760   3 ;    H3S-   C13-   C12-   H2S
  6609   6610   6613   6614      9     0.00   0.62760   3 ;   H14T-  C114-  C113-  H13R
  6609   6610   6613   6615      9     0.00   0.62760   3 ;   H14T-  C114-  C113-  H13S
  6609   6610   6613   6616      9     0.00   0.66944   3 ;   H14T-  C114-  C113-  C112
  6610   6613   6616   6617      9     0.00   0.66944   3 ;   C114-  C113-  C112-  H12R
  6610   6613   6616   6618      9     0.00   0.66944   3 ;   C114-  C113-  C112-  H12S
  6610   6613   6616   6619      9     0.00   0.41840   1 ;   C114-  C113-  C112-  C111
  6610   6613   6616   6619      9     0.00   0.41840   2 ;   C114-  C113-  C112-  C111
  6610   6613   6616   6619      9     0.00   0.41840   4 ;   C114-  C113-  C112-  C111
  6610   6613   6616   6619      9     0.00   0.41840   5 ;   C114-  C113-  C112-  C111
  6610   6613   6616   6619      9     0.00   1.25520   3 ;   C114-  C113-  C112-  C111
  6611   6610   6613   6614      9     0.00   0.62760   3 ;   H14R-  C114-  C113-  H13R
  6611   6610   6613   6615      9     0.00   0.62760   3 ;   H14R-  C114-  C113-  H13S
  6611   6610   6613   6616      9     0.00   0.66944   3 ;   H14R-  C114-  C113-  C112
  6612   6610   6613   6614      9     0.00   0.62760   3 ;   H14S-  C114-  C113-  H13R
  6612   6610   6613   6615      9     0.00   0.62760   3 ;   H14S-  C114-  C113-  H13S
  6612   6610   6613   6616      9     0.00   0.66944   3 ;   H14S-  C114-  C113-  C112
  6613   6616   6619   6620      9     0.00   0.66944   3 ;   C113-  C112-  C111-  H11R
  6613   6616   6619   6621      9     0.00   0.66944   3 ;   C113-  C112-  C111-  H11S
  6613   6616   6619   6622      9     0.00   0.41840   1 ;   C113-  C112-  C111-  C110
  6613   6616   6619   6622      9     0.00   0.41840   2 ;   C113-  C112-  C111-  C110
  6613   6616   6619   6622      9     0.00   0.41840   4 ;   C113-  C112-  C111-  C110
  6613   6616   6619   6622      9     0.00   0.41840   5 ;   C113-  C112-  C111-  C110
  6613   6616   6619   6622      9     0.00   1.25520   3 ;   C113-  C112-  C111-  C110
  6614   6613   6616   6617      9     0.00   0.62760   3 ;   H13R-  C113-  C112-  H12R
  6614   6613   6616   6618      9     0.00   0.62760   3 ;   H13R-  C113-  C112-  H12S
  6614   6613   6616   6619      9     0.00   0.66944   3 ;   H13R-  C113-  C112-  C111
  6615   6613   6616   6617      9     0.00   0.62760   3 ;   H13S-  C113-  C112-  H12R
  6615   6613   6616   6618      9     0.00   0.62760   3 ;   H13S-  C113-  C112-  H12S
  6615   6613   6616   6619      9     0.00   0.66944   3 ;   H13S-  C113-  C112-  C111
  6616   6619   6622   6623      9     0.00   0.66944   3 ;   C112-  C111-  C110-  H10R
  6616   6619   6622   6624      9     0.00   0.66944   3 ;   C112-  C111-  C110-  H10S
  6616   6619   6622   6625      9     0.00   0.41840   1 ;   C112-  C111-  C110-   C19
  6616   6619   6622   6625      9     0.00   0.41840   2 ;   C112-  C111-  C110-   C19
  6616   6619   6622   6625      9     0.00   0.41840   4 ;   C112-  C111-  C110-   C19
  6616   6619   6622   6625      9     0.00   0.41840   5 ;   C112-  C111-  C110-   C19
  6616   6619   6622   6625      9     0.00   1.25520   3 ;   C112-  C111-  C110-   C19
  6617   6616   6619   6620      9     0.00   0.62760   3 ;   H12R-  C112-  C111-  H11R
  6617   6616   6619   6621      9     0.00   0.62760   3 ;   H12R-  C112-  C111-  H11S
  6617   6616   6619   6622      9     0.00   0.66944   3 ;   H12R-  C112-  C111-  C110
  6618   6616   6619   6620      9     0.00   0.62760   3 ;   H12S-  C112-  C111-  H11R
  6618   6616   6619   6621      9     0.00   0.62760   3 ;   H12S-  C112-  C111-  H11S
  6618   6616   6619   6622      9     0.00   0.66944   3 ;   H12S-  C112-  C111-  C110
  6619   6622   6625   6626      9     0.00   0.66944   3 ;   C111-  C110-   C19-   H9R
  6619   6622   6625   6627      9     0.00   0.66944   3 ;   C111-  C110-   C19-   H9S
  6619   6622   6625   6628      9     0.00   0.41840   1 ;   C111-  C110-   C19-   C18
  6619   6622   6625   6628      9     0.00   0.41840   2 ;   C111-  C110-   C19-   C18
  6619   6622   6625   6628      9     0.00   0.41840   4 ;   C111-  C110-   C19-   C18
  6619   6622   6625   6628      9     0.00   0.41840   5 ;   C111-  C110-   C19-   C18
  6619   6622   6625   6628      9     0.00   1.25520   3 ;   C111-  C110-   C19-   C18
  6620   6619   6622   6623      9     0.00   0.62760   3 ;   H11R-  C111-  C110-  H10R
  6620   6619   6622   6624      9     0.00   0.62760   3 ;   H11R-  C111-  C110-  H10S
  6620   6619   6622   6625      9     0.00   0.66944   3 ;   H11R-  C111-  C110-   C19
  6621   6619   6622   6623      9     0.00   0.62760   3 ;   H11S-  C111-  C110-  H10R
  6621   6619   6622   6624      9     0.00   0.62760   3 ;   H11S-  C111-  C110-  H10S
  6621   6619   6622   6625      9     0.00   0.66944   3 ;   H11S-  C111-  C110-   C19
  6622   6625   6628   6629      9     0.00   0.66944   3 ;   C110-   C19-   C18-   H8R
  6622   6625   6628   6630      9     0.00   0.66944   3 ;   C110-   C19-   C18-   H8S
  6622   6625   6628   6631      9     0.00   0.41840   1 ;   C110-   C19-   C18-   C17
  6622   6625   6628   6631      9     0.00   0.41840   2 ;   C110-   C19-   C18-   C17
  6622   6625   6628   6631      9     0.00   0.41840   4 ;   C110-   C19-   C18-   C17
  6622   6625   6628   6631      9     0.00   0.41840   5 ;   C110-   C19-   C18-   C17
  6622   6625   6628   6631      9     0.00   1.25520   3 ;   C110-   C19-   C18-   C17
  6623   6622   6625   6626      9     0.00   0.62760   3 ;   H10R-  C110-   C19-   H9R
  6623   6622   6625   6627      9     0.00   0.62760   3 ;   H10R-  C110-   C19-   H9S
  6623   6622   6625   6628      9     0.00   0.66944   3 ;   H10R-  C110-   C19-   C18
  6624   6622   6625   6626      9     0.00   0.62760   3 ;   H10S-  C110-   C19-   H9R
  6624   6622   6625   6627      9     0.00   0.62760   3 ;   H10S-  C110-   C19-   H9S
  6624   6622   6625   6628      9     0.00   0.66944   3 ;   H10S-  C110-   C19-   C18
  6625   6628   6631   6632      9     0.00   0.66944   3 ;    C19-   C18-   C17-   H7R
  6625   6628   6631   6633      9     0.00   0.66944   3 ;    C19-   C18-   C17-   H7S
  6625   6628   6631   6634      9     0.00   0.41840   1 ;    C19-   C18-   C17-   C16
  6625   6628   6631   6634      9     0.00   0.41840   2 ;    C19-   C18-   C17-   C16
  6625   6628   6631   6634      9     0.00   0.41840   4 ;    C19-   C18-   C17-   C16
  6625   6628   6631   6634      9     0.00   0.41840   5 ;    C19-   C18-   C17-   C16
  6625   6628   6631   6634      9     0.00   1.25520   3 ;    C19-   C18-   C17-   C16
  6626   6625   6628   6629      9     0.00   0.62760   3 ;    H9R-   C19-   C18-   H8R
  6626   6625   6628   6630      9     0.00   0.62760   3 ;    H9R-   C19-   C18-   H8S
  6626   6625   6628   6631      9     0.00   0.66944   3 ;    H9R-   C19-   C18-   C17
  6627   6625   6628   6629      9     0.00   0.62760   3 ;    H9S-   C19-   C18-   H8R
  6627   6625   6628   6630      9     0.00   0.62760   3 ;    H9S-   C19-   C18-   H8S
  6627   6625   6628   6631      9     0.00   0.66944   3 ;    H9S-   C19-   C18-   C17
  6628   6631   6634   6635      9     0.00   0.66944   3 ;    C18-   C17-   C16-   H6R
  6628   6631   6634   6636      9     0.00   0.66944   3 ;    C18-   C17-   C16-   H6S
  6628   6631   6634   6637      9     0.00   0.41840   1 ;    C18-   C17-   C16-   C15
  6628   6631   6634   6637      9     0.00   0.41840   2 ;    C18-   C17-   C16-   C15
  6628   6631   6634   6637      9     0.00   0.41840   4 ;    C18-   C17-   C16-   C15
  6628   6631   6634   6637      9     0.00   0.41840   5 ;    C18-   C17-   C16-   C15
  6628   6631   6634   6637      9     0.00   1.25520   3 ;    C18-   C17-   C16-   C15
  6629   6628   6631   6632      9     0.00   0.62760   3 ;    H8R-   C18-   C17-   H7R
  6629   6628   6631   6633      9     0.00   0.62760   3 ;    H8R-   C18-   C17-   H7S
  6629   6628   6631   6634      9     0.00   0.66944   3 ;    H8R-   C18-   C17-   C16
  6630   6628   6631   6632      9     0.00   0.62760   3 ;    H8S-   C18-   C17-   H7R
  6630   6628   6631   6633      9     0.00   0.62760   3 ;    H8S-   C18-   C17-   H7S
  6630   6628   6631   6634      9     0.00   0.66944   3 ;    H8S-   C18-   C17-   C16
  6631   6634   6637   6638      9     0.00   0.66944   3 ;    C17-   C16-   C15-   H5R
  6631   6634   6637   6639      9     0.00   0.66944   3 ;    C17-   C16-   C15-   H5S
  6631   6634   6637   6640      9     0.00   0.41840   1 ;    C17-   C16-   C15-   C14
  6631   6634   6637   6640      9     0.00   0.41840   2 ;    C17-   C16-   C15-   C14
  6631   6634   6637   6640      9     0.00   0.41840   4 ;    C17-   C16-   C15-   C14
  6631   6634   6637   6640      9     0.00   0.41840   5 ;    C17-   C16-   C15-   C14
  6631   6634   6637   6640      9     0.00   1.25520   3 ;    C17-   C16-   C15-   C14
  6632   6631   6634   6635      9     0.00   0.62760   3 ;    H7R-   C17-   C16-   H6R
  6632   6631   6634   6636      9     0.00   0.62760   3 ;    H7R-   C17-   C16-   H6S
  6632   6631   6634   6637      9     0.00   0.66944   3 ;    H7R-   C17-   C16-   C15
  6633   6631   6634   6635      9     0.00   0.62760   3 ;    H7S-   C17-   C16-   H6R
  6633   6631   6634   6636      9     0.00   0.62760   3 ;    H7S-   C17-   C16-   H6S
  6633   6631   6634   6637      9     0.00   0.66944   3 ;    H7S-   C17-   C16-   C15
  6634   6637   6640   6641      9     0.00   0.66944   3 ;    C16-   C15-   C14-   H4R
  6634   6637   6640   6642      9     0.00   0.66944   3 ;    C16-   C15-   C14-   H4S
  6634   6637   6640   6643      9     0.00   0.41840   1 ;    C16-   C15-   C14-   C13
  6634   6637   6640   6643      9     0.00   0.41840   2 ;    C16-   C15-   C14-   C13
  6634   6637   6640   6643      9     0.00   0.41840   4 ;    C16-   C15-   C14-   C13
  6634   6637   6640   6643      9     0.00   0.41840   5 ;    C16-   C15-   C14-   C13
  6634   6637   6640   6643      9     0.00   1.25520   3 ;    C16-   C15-   C14-   C13
  6635   6634   6637   6638      9     0.00   0.62760   3 ;    H6R-   C16-   C15-   H5R
  6635   6634   6637   6639      9     0.00   0.62760   3 ;    H6R-   C16-   C15-   H5S
  6635   6634   6637   6640      9     0.00   0.66944   3 ;    H6R-   C16-   C15-   C14
  6636   6634   6637   6638      9     0.00   0.62760   3 ;    H6S-   C16-   C15-   H5R
  6636   6634   6637   6639      9     0.00   0.62760   3 ;    H6S-   C16-   C15-   H5S
  6636   6634   6637   6640      9     0.00   0.66944   3 ;    H6S-   C16-   C15-   C14
  6637   6640   6643   6644      9     0.00   0.66944   3 ;    C15-   C14-   C13-   H3R
  6637   6640   6643   6645      9     0.00   0.66944   3 ;    C15-   C14-   C13-   H3S
  6637   6640   6643   6646      9     0.00   0.41840   1 ;    C15-   C14-   C13-   C12
  6637   6640   6643   6646      9     0.00   0.41840   2 ;    C15-   C14-   C13-   C12
  6637   6640   6643   6646      9     0.00   0.41840   4 ;    C15-   C14-   C13-   C12
  6637   6640   6643   6646      9     0.00   0.41840   5 ;    C15-   C14-   C13-   C12
  6637   6640   6643   6646      9     0.00   1.25520   3 ;    C15-   C14-   C13-   C12
  6638   6637   6640   6641      9     0.00   0.62760   3 ;    H5R-   C15-   C14-   H4R
  6638   6637   6640   6642      9     0.00   0.62760   3 ;    H5R-   C15-   C14-   H4S
  6638   6637   6640   6643      9     0.00   0.66944   3 ;    H5R-   C15-   C14-   C13
  6639   6637   6640   6641      9     0.00   0.62760   3 ;    H5S-   C15-   C14-   H4R
  6639   6637   6640   6642      9     0.00   0.62760   3 ;    H5S-   C15-   C14-   H4S
  6639   6637   6640   6643      9     0.00   0.66944   3 ;    H5S-   C15-   C14-   C13
  6640   6643   6646   6647      9     0.00   0.66944   3 ;    C14-   C13-   C12-   H2R
  6640   6643   6646   6648      9     0.00   0.66944   3 ;    C14-   C13-   C12-   H2S
  6640   6643   6646   6649      9     0.00   0.65270   3 ;    C14-   C13-   C12-   C11
  6641   6640   6643   6644      9     0.00   0.62760   3 ;    H4R-   C14-   C13-   H3R
  6641   6640   6643   6645      9     0.00   0.62760   3 ;    H4R-   C14-   C13-   H3S
  6641   6640   6643   6646      9     0.00   0.66944   3 ;    H4R-   C14-   C13-   C12
  6642   6640   6643   6644      9     0.00   0.62760   3 ;    H4S-   C14-   C13-   H3R
  6642   6640   6643   6645      9     0.00   0.62760   3 ;    H4S-   C14-   C13-   H3S
  6642   6640   6643   6646      9     0.00   0.66944   3 ;    H4S-   C14-   C13-   C12
  6643   6646   6649   6650      9   180.00   0.00000   2 ;    C13-   C12-   C11-   O12
  6643   6646   6649   6651      9   180.00   0.00000   2 ;    C13-   C12-   C11-   O11
  6644   6643   6646   6647      9     0.00   0.62760   3 ;    H3R-   C13-   C12-   H2R
  6644   6643   6646   6648      9     0.00   0.62760   3 ;    H3R-   C13-   C12-   H2S
  6644   6643   6646   6649      9     0.00   0.65270   3 ;    H3R-   C13-   C12-   C11
  6645   6643   6646   6647      9     0.00   0.62760   3 ;    H3S-   C13-   C12-   H2R
  6645   6643   6646   6648      9     0.00   0.62760   3 ;    H3S-   C13-   C12-   H2S
  6645   6643   6646   6649      9     0.00   0.65270   3 ;    H3S-   C13-   C12-   C11
  6646   6649   6651   6652      9   180.00  11.29680   2 ;    C12-   C11-   O11-    C1
  6647   6646   6649   6650      9     0.00   3.34720   1 ;    H2R-   C12-   C11-   O12
  6647   6646   6649   6650      9   180.00   0.33472   3 ;    H2R-   C12-   C11-   O12
  6647   6646   6649   6651      9   180.00   0.00000   2 ;    H2R-   C12-   C11-   O11
  6648   6646   6649   6650      9     0.00   3.34720   1 ;    H2S-   C12-   C11-   O12
  6648   6646   6649   6650      9   180.00   0.33472   3 ;    H2S-   C12-   C11-   O12
  6648   6646   6649   6651      9   180.00   0.00000   2 ;    H2S-   C12-   C11-   O11
  6649   6651   6652   6653      9     0.00   1.60247   3 ;    C11-   O11-    C1-    HR
  6649   6651   6652   6654      9     0.00   1.60247   3 ;    C11-   O11-    C1-    HS
  6649   6651   6652   6655      9     0.00  -0.41840   1 ;    C11-   O11-    C1-    C2
  6650   6649   6651   6652      9   180.00   5.85760   1 ;    O12-   C11-   O11-    C1
  6650   6649   6651   6652      9   180.00  11.29680   2 ;    O12-   C11-   O11-    C1
  6651   6652   6655   6656      9     0.00   0.00000   0 ;    O11-    C1-    C2-    HX
  6651   6652   6655   6656      9     0.00   1.04600   1 ;    O11-    C1-    C2-    HX
  6651   6652   6655   6657      9     0.00   0.00000   0 ;    O11-    C1-    C2-    C3
  6651   6652   6655   6657      9     0.00   0.00000   0 ;    O11-    C1-    C2-    C3
  6651   6652   6655   6657      9     0.00   0.00000   0 ;    O11-    C1-    C2-    C3
  6651   6652   6655   6657      9     0.00   0.00000   0 ;    O11-    C1-    C2-    C3
  6651   6652   6655   6657      9     0.00   0.00000   0 ;    O11-    C1-    C2-    C3
  6651   6652   6655   6684      9     0.00   1.25520   2 ;    O11-    C1-    C2-   O21
  6651   6652   6655   6684      9     0.00   4.18400   3 ;    O11-    C1-    C2-   O21
  6651   6652   6655   6684      9   180.00  -0.41840   1 ;    O11-    C1-    C2-   O21
  6652   6655   6657   6658      9     0.00   0.65270   3 ;     C1-    C2-    C3-    HA
  6652   6655   6657   6659      9     0.00   0.65270   3 ;     C1-    C2-    C3-    HB
  6652   6655   6657   6660      9   180.00   3.34720   1 ;     C1-    C2-    C3-   O31
  6652   6655   6684   6685      9     0.00  -0.41840   1 ;     C1-    C2-   O21-   C21
  6653   6652   6655   6656      9     0.00   0.65270   3 ;     HR-    C1-    C2-    HX
  6653   6652   6655   6657      9     0.00   0.65270   3 ;     HR-    C1-    C2-    C3
  6653   6652   6655   6684      9     0.00   0.00000   0 ;     HR-    C1-    C2-   O21
  6653   6652   6655   6684      9     0.00   1.04600   1 ;     HR-    C1-    C2-   O21
  6654   6652   6655   6656      9     0.00   0.65270   3 ;     HS-    C1-    C2-    HX
  6654   6652   6655   6657      9     0.00   0.65270   3 ;     HS-    C1-    C2-    C3
  6654   6652   6655   6684      9     0.00   0.00000   0 ;     HS-    C1-    C2-   O21
  6654   6652   6655   6684      9     0.00   1.04600   1 ;     HS-    C1-    C2-   O21
  6655   6657   6660   6661      9     0.00   0.00000   0 ;     C2-    C3-   O31-   P31
  6655   6657   6660   6661      9   180.00  -3.34720   2 ;     C2-    C3-   O31-   P31
  6655   6684   6685   6686      9   180.00   5.85760   1 ;     C2-   O21-   C21-   O22
  6655   6684   6685   6686      9   180.00  11.29680   2 ;     C2-   O21-   C21-   O22
  6655   6684   6685   6724      9   180.00  11.29680   2 ;     C2-   O21-   C21-   C12
  6656   6655   6657   6658      9     0.00   0.65270   3 ;     HX-    C2-    C3-    HA
  6656   6655   6657   6659      9     0.00   0.65270   3 ;     HX-    C2-    C3-    HB
  6656   6655   6657   6660      9     0.00   0.00000   0 ;     HX-    C2-    C3-   O31
  6656   6655   6657   6660      9     0.00   1.04600   1 ;     HX-    C2-    C3-   O31
  6656   6655   6684   6685      9     0.00   1.60247   3 ;     HX-    C2-   O21-   C21
  6657   6655   6684   6685      9     0.00  -0.41840   1 ;     C3-    C2-   O21-   C21
  6657   6660   6661   6662      9     0.00   2.51040   3 ;     C3-   O31-   P31-   O32
  6657   6660   6661   6662      9     0.00   9.62320   2 ;     C3-   O31-   P31-   O32
  6657   6660   6661   6682      9     0.00   0.00000   0 ;     C3-   O31-   P31-   O33
  6657   6660   6661   6682      9     0.00   0.00000   0 ;     C3-   O31-   P31-   O33
  6657   6660   6661   6682      9     0.00   0.00000   0 ;     C3-   O31-   P31-   O33
  6657   6660   6661   6682      9     0.00   0.00000   0 ;     C3-   O31-   P31-   O33
  6657   6660   6661   6682      9     0.00   0.83680   2 ;     C3-   O31-   P31-   O33
  6657   6660   6661   6683      9     0.00   0.00000   0 ;     C3-   O31-   P31-   O34
  6657   6660   6661   6683      9     0.00   0.00000   0 ;     C3-   O31-   P31-   O34
  6657   6660   6661   6683      9     0.00   0.00000   0 ;     C3-   O31-   P31-   O34
  6657   6660   6661   6683      9     0.00   0.00000   0 ;     C3-   O31-   P31-   O34
  6657   6660   6661   6683      9     0.00   0.83680   2 ;     C3-   O31-   P31-   O34
  6658   6657   6655   6684      9     0.00   0.00000   0 ;     HA-    C3-    C2-   O21
  6658   6657   6655   6684      9     0.00   1.04600   1 ;     HA-    C3-    C2-   O21
  6658   6657   6660   6661      9     0.00   0.00000   0 ;     HA-    C3-   O31-   P31
  6658   6657   6660   6661      9     0.00   0.00000   0 ;     HA-    C3-   O31-   P31
  6658   6657   6660   6661      9     0.00   0.00000   0 ;     HA-    C3-   O31-   P31
  6658   6657   6660   6661      9     0.00   0.00000   0 ;     HA-    C3-   O31-   P31
  6658   6657   6660   6661      9     0.00   1.60247   3 ;     HA-    C3-   O31-   P31
  6659   6657   6655   6684      9     0.00   0.00000   0 ;     HB-    C3-    C2-   O21
  6659   6657   6655   6684      9     0.00   1.04600   1 ;     HB-    C3-    C2-   O21
  6659   6657   6660   6661      9     0.00   0.00000   0 ;     HB-    C3-   O31-   P31
  6659   6657   6660   6661      9     0.00   0.00000   0 ;     HB-    C3-   O31-   P31
  6659   6657   6660   6661      9     0.00   0.00000   0 ;     HB-    C3-   O31-   P31
  6659   6657   6660   6661      9     0.00   0.00000   0 ;     HB-    C3-   O31-   P31
  6659   6657   6660   6661      9     0.00   1.60247   3 ;     HB-    C3-   O31-   P31
  6660   6657   6655   6684      9     0.00   0.00000   0 ;    O31-    C3-    C2-   O21
  6660   6657   6655   6684      9     0.00   0.00000   0 ;    O31-    C3-    C2-   O21
  6660   6657   6655   6684      9     0.00   0.00000   0 ;    O31-    C3-    C2-   O21
  6660   6657   6655   6684      9     0.00   0.00000   0 ;    O31-    C3-    C2-   O21
  6660   6657   6655   6684      9     0.00   0.00000   0 ;    O31-    C3-    C2-   O21
  6660   6661   6662   6663      9     0.00   2.51040   3 ;    O31-   P31-   O32-   C31
  6660   6661   6662   6663      9     0.00   9.62320   2 ;    O31-   P31-   O32-   C31
  6661   6662   6663   6664      9     0.00   0.00000   0 ;    P31-   O32-   C31-   H1A
  6661   6662   6663   6664      9     0.00   0.00000   0 ;    P31-   O32-   C31-   H1A
  6661   6662   6663   6664      9     0.00   0.00000   0 ;    P31-   O32-   C31-   H1A
  6661   6662   6663   6664      9     0.00   0.00000   0 ;    P31-   O32-   C31-   H1A
  6661   6662   6663   6664      9     0.00   1.60247   3 ;    P31-   O32-   C31-   H1A
  6661   6662   6663   6665      9     0.00   0.00000   0 ;    P31-   O32-   C31-   H1B
  6661   6662   6663   6665      9     0.00   0.00000   0 ;    P31-   O32-   C31-   H1B
  6661   6662   6663   6665      9     0.00   0.00000   0 ;    P31-   O32-   C31-   H1B
  6661   6662   6663   6665      9     0.00   0.00000   0 ;    P31-   O32-   C31-   H1B
  6661   6662   6663   6665      9     0.00   1.60247   3 ;    P31-   O32-   C31-   H1B
  6661   6662   6663   6666      9     0.00   0.00000   0 ;    P31-   O32-   C31-   C32
  6661   6662   6663   6666      9   180.00  -3.34720   2 ;    P31-   O32-   C31-   C32
  6662   6663   6666   6667      9     0.00   0.65270   3 ;    O32-   C31-   C32-   H2A
  6662   6663   6666   6668      9     0.00   0.65270   3 ;    O32-   C31-   C32-   H2B
  6662   6663   6666   6669      9     0.00   4.18400   3 ;    O32-   C31-   C32-   N31
  6663   6662   6661   6682      9     0.00   0.00000   0 ;    C31-   O32-   P31-   O33
  6663   6662   6661   6682      9     0.00   0.00000   0 ;    C31-   O32-   P31-   O33
  6663   6662   6661   6682      9     0.00   0.00000   0 ;    C31-   O32-   P31-   O33
  6663   6662   6661   6682      9     0.00   0.00000   0 ;    C31-   O32-   P31-   O33
  6663   6662   6661   6682      9     0.00   0.83680   2 ;    C31-   O32-   P31-   O33
  6663   6662   6661   6683      9     0.00   0.00000   0 ;    C31-   O32-   P31-   O34
  6663   6662   6661   6683      9     0.00   0.00000   0 ;    C31-   O32-   P31-   O34
  6663   6662   6661   6683      9     0.00   0.00000   0 ;    C31-   O32-   P31-   O34
  6663   6662   6661   6683      9     0.00   0.00000   0 ;    C31-   O32-   P31-   O34
  6663   6662   6661   6683      9     0.00   0.83680   2 ;    C31-   O32-   P31-   O34
  6663   6666   6669   6670      9     0.00   0.65270   3 ;    C31-   C32-   N31-   C33
  6663   6666   6669   6674      9     0.00   0.65270   3 ;    C31-   C32-   N31-   C34
  6663   6666   6669   6678      9     0.00   0.65270   3 ;    C31-   C32-   N31-   C35
  6664   6663   6666   6667      9     0.00   0.65270   3 ;    H1A-   C31-   C32-   H2A
  6664   6663   6666   6668      9     0.00   0.65270   3 ;    H1A-   C31-   C32-   H2B
  6664   6663   6666   6669      9     0.00   0.65270   3 ;    H1A-   C31-   C32-   N31
  6665   6663   6666   6667      9     0.00   0.65270   3 ;    H1B-   C31-   C32-   H2A
  6665   6663   6666   6668      9     0.00   0.65270   3 ;    H1B-   C31-   C32-   H2B
  6665   6663   6666   6669      9     0.00   0.65270   3 ;    H1B-   C31-   C32-   N31
  6666   6669   6670   6671      9     0.00   0.65270   3 ;    C32-   N31-   C33-   H3A
  6666   6669   6670   6672      9     0.00   0.65270   3 ;    C32-   N31-   C33-   H3B
  6666   6669   6670   6673      9     0.00   0.65270   3 ;    C32-   N31-   C33-   H3C
  6666   6669   6674   6675      9     0.00   0.65270   3 ;    C32-   N31-   C34-   H4A
  6666   6669   6674   6676      9     0.00   0.65270   3 ;    C32-   N31-   C34-   H4B
  6666   6669   6674   6677      9     0.00   0.65270   3 ;    C32-   N31-   C34-   H4C
  6666   6669   6678   6679      9     0.00   0.65270   3 ;    C32-   N31-   C35-   H5A
  6666   6669   6678   6680      9     0.00   0.65270   3 ;    C32-   N31-   C35-   H5B
  6666   6669   6678   6681      9     0.00   0.65270   3 ;    C32-   N31-   C35-   H5C
  6667   6666   6669   6670      9     0.00   0.65270   3 ;    H2A-   C32-   N31-   C33
  6667   6666   6669   6674      9     0.00   0.65270   3 ;    H2A-   C32-   N31-   C34
  6667   6666   6669   6678      9     0.00   0.65270   3 ;    H2A-   C32-   N31-   C35
  6668   6666   6669   6670      9     0.00   0.65270   3 ;    H2B-   C32-   N31-   C33
  6668   6666   6669   6674      9     0.00   0.65270   3 ;    H2B-   C32-   N31-   C34
  6668   6666   6669   6678      9     0.00   0.65270   3 ;    H2B-   C32-   N31-   C35
  6670   6669   6674   6675      9     0.00   0.65270   3 ;    C33-   N31-   C34-   H4A
  6670   6669   6674   6676      9     0.00   0.65270   3 ;    C33-   N31-   C34-   H4B
  6670   6669   6674   6677      9     0.00   0.65270   3 ;    C33-   N31-   C34-   H4C
  6670   6669   6678   6679      9     0.00   0.65270   3 ;    C33-   N31-   C35-   H5A
  6670   6669   6678   6680      9     0.00   0.65270   3 ;    C33-   N31-   C35-   H5B
  6670   6669   6678   6681      9     0.00   0.65270   3 ;    C33-   N31-   C35-   H5C
  6671   6670   6669   6674      9     0.00   0.65270   3 ;    H3A-   C33-   N31-   C34
  6671   6670   6669   6678      9     0.00   0.65270   3 ;    H3A-   C33-   N31-   C35
  6672   6670   6669   6674      9     0.00   0.65270   3 ;    H3B-   C33-   N31-   C34
  6672   6670   6669   6678      9     0.00   0.65270   3 ;    H3B-   C33-   N31-   C35
  6673   6670   6669   6674      9     0.00   0.65270   3 ;    H3C-   C33-   N31-   C34
  6673   6670   6669   6678      9     0.00   0.65270   3 ;    H3C-   C33-   N31-   C35
  6674   6669   6678   6679      9     0.00   0.65270   3 ;    C34-   N31-   C35-   H5A
  6674   6669   6678   6680      9     0.00   0.65270   3 ;    C34-   N31-   C35-   H5B
  6674   6669   6678   6681      9     0.00   0.65270   3 ;    C34-   N31-   C35-   H5C
  6675   6674   6669   6678      9     0.00   0.65270   3 ;    H4A-   C34-   N31-   C35
  6676   6674   6669   6678      9     0.00   0.65270   3 ;    H4B-   C34-   N31-   C35
  6677   6674   6669   6678      9     0.00   0.65270   3 ;    H4C-   C34-   N31-   C35
  6684   6685   6724   6721      9   180.00   0.00000   2 ;    O21-   C21-   C12-   C13
  6684   6685   6724   6725      9   180.00   0.00000   2 ;    O21-   C21-   C12-   H2R
  6684   6685   6724   6726      9   180.00   0.00000   2 ;    O21-   C21-   C12-   H2S
  6685   6724   6721   6718      9     0.00   0.65270   3 ;    C21-   C12-   C13-   C14
  6685   6724   6721   6722      9     0.00   0.65270   3 ;    C21-   C12-   C13-   H3R
  6685   6724   6721   6723      9     0.00   0.65270   3 ;    C21-   C12-   C13-   H3S
  6686   6685   6724   6721      9   180.00   0.00000   2 ;    O22-   C21-   C12-   C13
  6686   6685   6724   6725      9     0.00   3.34720   1 ;    O22-   C21-   C12-   H2R
  6686   6685   6724   6725      9   180.00   0.33472   3 ;    O22-   C21-   C12-   H2R
  6686   6685   6724   6726      9     0.00   3.34720   1 ;    O22-   C21-   C12-   H2S
  6686   6685   6724   6726      9   180.00   0.33472   3 ;    O22-   C21-   C12-   H2S
  6687   6688   6691   6692      9     0.00   0.62760   3 ;   H14T-  C114-  C113-  H13R
  6687   6688   6691   6693      9     0.00   0.62760   3 ;   H14T-  C114-  C113-  H13S
  6687   6688   6691   6694      9     0.00   0.66944   3 ;   H14T-  C114-  C113-  C112
  6688   6691   6694   6695      9     0.00   0.66944   3 ;   C114-  C113-  C112-  H12R
  6688   6691   6694   6696      9     0.00   0.66944   3 ;   C114-  C113-  C112-  H12S
  6688   6691   6694   6697      9     0.00   0.41840   1 ;   C114-  C113-  C112-  C111
  6688   6691   6694   6697      9     0.00   0.41840   2 ;   C114-  C113-  C112-  C111
  6688   6691   6694   6697      9     0.00   0.41840   4 ;   C114-  C113-  C112-  C111
  6688   6691   6694   6697      9     0.00   0.41840   5 ;   C114-  C113-  C112-  C111
  6688   6691   6694   6697      9     0.00   1.25520   3 ;   C114-  C113-  C112-  C111
  6689   6688   6691   6692      9     0.00   0.62760   3 ;   H14R-  C114-  C113-  H13R
  6689   6688   6691   6693      9     0.00   0.62760   3 ;   H14R-  C114-  C113-  H13S
  6689   6688   6691   6694      9     0.00   0.66944   3 ;   H14R-  C114-  C113-  C112
  6690   6688   6691   6692      9     0.00   0.62760   3 ;   H14S-  C114-  C113-  H13R
  6690   6688   6691   6693      9     0.00   0.62760   3 ;   H14S-  C114-  C113-  H13S
  6690   6688   6691   6694      9     0.00   0.66944   3 ;   H14S-  C114-  C113-  C112
  6691   6694   6697   6698      9     0.00   0.66944   3 ;   C113-  C112-  C111-  H11R
  6691   6694   6697   6699      9     0.00   0.66944   3 ;   C113-  C112-  C111-  H11S
  6691   6694   6697   6700      9     0.00   0.41840   1 ;   C113-  C112-  C111-  C110
  6691   6694   6697   6700      9     0.00   0.41840   2 ;   C113-  C112-  C111-  C110
  6691   6694   6697   6700      9     0.00   0.41840   4 ;   C113-  C112-  C111-  C110
  6691   6694   6697   6700      9     0.00   0.41840   5 ;   C113-  C112-  C111-  C110
  6691   6694   6697   6700      9     0.00   1.25520   3 ;   C113-  C112-  C111-  C110
  6692   6691   6694   6695      9     0.00   0.62760   3 ;   H13R-  C113-  C112-  H12R
  6692   6691   6694   6696      9     0.00   0.62760   3 ;   H13R-  C113-  C112-  H12S
  6692   6691   6694   6697      9     0.00   0.66944   3 ;   H13R-  C113-  C112-  C111
  6693   6691   6694   6695      9     0.00   0.62760   3 ;   H13S-  C113-  C112-  H12R
  6693   6691   6694   6696      9     0.00   0.62760   3 ;   H13S-  C113-  C112-  H12S
  6693   6691   6694   6697      9     0.00   0.66944   3 ;   H13S-  C113-  C112-  C111
  6694   6697   6700   6701      9     0.00   0.66944   3 ;   C112-  C111-  C110-  H10R
  6694   6697   6700   6702      9     0.00   0.66944   3 ;   C112-  C111-  C110-  H10S
  6694   6697   6700   6703      9     0.00   0.41840   1 ;   C112-  C111-  C110-   C19
  6694   6697   6700   6703      9     0.00   0.41840   2 ;   C112-  C111-  C110-   C19
  6694   6697   6700   6703      9     0.00   0.41840   4 ;   C112-  C111-  C110-   C19
  6694   6697   6700   6703      9     0.00   0.41840   5 ;   C112-  C111-  C110-   C19
  6694   6697   6700   6703      9     0.00   1.25520   3 ;   C112-  C111-  C110-   C19
  6695   6694   6697   6698      9     0.00   0.62760   3 ;   H12R-  C112-  C111-  H11R
  6695   6694   6697   6699      9     0.00   0.62760   3 ;   H12R-  C112-  C111-  H11S
  6695   6694   6697   6700      9     0.00   0.66944   3 ;   H12R-  C112-  C111-  C110
  6696   6694   6697   6698      9     0.00   0.62760   3 ;   H12S-  C112-  C111-  H11R
  6696   6694   6697   6699      9     0.00   0.62760   3 ;   H12S-  C112-  C111-  H11S
  6696   6694   6697   6700      9     0.00   0.66944   3 ;   H12S-  C112-  C111-  C110
  6697   6700   6703   6704      9     0.00   0.66944   3 ;   C111-  C110-   C19-   H9R
  6697   6700   6703   6705      9     0.00   0.66944   3 ;   C111-  C110-   C19-   H9S
  6697   6700   6703   6706      9     0.00   0.41840   1 ;   C111-  C110-   C19-   C18
  6697   6700   6703   6706      9     0.00   0.41840   2 ;   C111-  C110-   C19-   C18
  6697   6700   6703   6706      9     0.00   0.41840   4 ;   C111-  C110-   C19-   C18
  6697   6700   6703   6706      9     0.00   0.41840   5 ;   C111-  C110-   C19-   C18
  6697   6700   6703   6706      9     0.00   1.25520   3 ;   C111-  C110-   C19-   C18
  6698   6697   6700   6701      9     0.00   0.62760   3 ;   H11R-  C111-  C110-  H10R
  6698   6697   6700   6702      9     0.00   0.62760   3 ;   H11R-  C111-  C110-  H10S
  6698   6697   6700   6703      9     0.00   0.66944   3 ;   H11R-  C111-  C110-   C19
  6699   6697   6700   6701      9     0.00   0.62760   3 ;   H11S-  C111-  C110-  H10R
  6699   6697   6700   6702      9     0.00   0.62760   3 ;   H11S-  C111-  C110-  H10S
  6699   6697   6700   6703      9     0.00   0.66944   3 ;   H11S-  C111-  C110-   C19
  6700   6703   6706   6707      9     0.00   0.66944   3 ;   C110-   C19-   C18-   H8R
  6700   6703   6706   6708      9     0.00   0.66944   3 ;   C110-   C19-   C18-   H8S
  6700   6703   6706   6709      9     0.00   0.41840   1 ;   C110-   C19-   C18-   C17
  6700   6703   6706   6709      9     0.00   0.41840   2 ;   C110-   C19-   C18-   C17
  6700   6703   6706   6709      9     0.00   0.41840   4 ;   C110-   C19-   C18-   C17
  6700   6703   6706   6709      9     0.00   0.41840   5 ;   C110-   C19-   C18-   C17
  6700   6703   6706   6709      9     0.00   1.25520   3 ;   C110-   C19-   C18-   C17
  6701   6700   6703   6704      9     0.00   0.62760   3 ;   H10R-  C110-   C19-   H9R
  6701   6700   6703   6705      9     0.00   0.62760   3 ;   H10R-  C110-   C19-   H9S
  6701   6700   6703   6706      9     0.00   0.66944   3 ;   H10R-  C110-   C19-   C18
  6702   6700   6703   6704      9     0.00   0.62760   3 ;   H10S-  C110-   C19-   H9R
  6702   6700   6703   6705      9     0.00   0.62760   3 ;   H10S-  C110-   C19-   H9S
  6702   6700   6703   6706      9     0.00   0.66944   3 ;   H10S-  C110-   C19-   C18
  6703   6706   6709   6710      9     0.00   0.66944   3 ;    C19-   C18-   C17-   H7R
  6703   6706   6709   6711      9     0.00   0.66944   3 ;    C19-   C18-   C17-   H7S
  6703   6706   6709   6712      9     0.00   0.41840   1 ;    C19-   C18-   C17-   C16
  6703   6706   6709   6712      9     0.00   0.41840   2 ;    C19-   C18-   C17-   C16
  6703   6706   6709   6712      9     0.00   0.41840   4 ;    C19-   C18-   C17-   C16
  6703   6706   6709   6712      9     0.00   0.41840   5 ;    C19-   C18-   C17-   C16
  6703   6706   6709   6712      9     0.00   1.25520   3 ;    C19-   C18-   C17-   C16
  6704   6703   6706   6707      9     0.00   0.62760   3 ;    H9R-   C19-   C18-   H8R
  6704   6703   6706   6708      9     0.00   0.62760   3 ;    H9R-   C19-   C18-   H8S
  6704   6703   6706   6709      9     0.00   0.66944   3 ;    H9R-   C19-   C18-   C17
  6705   6703   6706   6707      9     0.00   0.62760   3 ;    H9S-   C19-   C18-   H8R
  6705   6703   6706   6708      9     0.00   0.62760   3 ;    H9S-   C19-   C18-   H8S
  6705   6703   6706   6709      9     0.00   0.66944   3 ;    H9S-   C19-   C18-   C17
  6706   6709   6712   6713      9     0.00   0.66944   3 ;    C18-   C17-   C16-   H6R
  6706   6709   6712   6714      9     0.00   0.66944   3 ;    C18-   C17-   C16-   H6S
  6706   6709   6712   6715      9     0.00   0.41840   1 ;    C18-   C17-   C16-   C15
  6706   6709   6712   6715      9     0.00   0.41840   2 ;    C18-   C17-   C16-   C15
  6706   6709   6712   6715      9     0.00   0.41840   4 ;    C18-   C17-   C16-   C15
  6706   6709   6712   6715      9     0.00   0.41840   5 ;    C18-   C17-   C16-   C15
  6706   6709   6712   6715      9     0.00   1.25520   3 ;    C18-   C17-   C16-   C15
  6707   6706   6709   6710      9     0.00   0.62760   3 ;    H8R-   C18-   C17-   H7R
  6707   6706   6709   6711      9     0.00   0.62760   3 ;    H8R-   C18-   C17-   H7S
  6707   6706   6709   6712      9     0.00   0.66944   3 ;    H8R-   C18-   C17-   C16
  6708   6706   6709   6710      9     0.00   0.62760   3 ;    H8S-   C18-   C17-   H7R
  6708   6706   6709   6711      9     0.00   0.62760   3 ;    H8S-   C18-   C17-   H7S
  6708   6706   6709   6712      9     0.00   0.66944   3 ;    H8S-   C18-   C17-   C16
  6709   6712   6715   6716      9     0.00   0.66944   3 ;    C17-   C16-   C15-   H5R
  6709   6712   6715   6717      9     0.00   0.66944   3 ;    C17-   C16-   C15-   H5S
  6709   6712   6715   6718      9     0.00   0.41840   1 ;    C17-   C16-   C15-   C14
  6709   6712   6715   6718      9     0.00   0.41840   2 ;    C17-   C16-   C15-   C14
  6709   6712   6715   6718      9     0.00   0.41840   4 ;    C17-   C16-   C15-   C14
  6709   6712   6715   6718      9     0.00   0.41840   5 ;    C17-   C16-   C15-   C14
  6709   6712   6715   6718      9     0.00   1.25520   3 ;    C17-   C16-   C15-   C14
  6710   6709   6712   6713      9     0.00   0.62760   3 ;    H7R-   C17-   C16-   H6R
  6710   6709   6712   6714      9     0.00   0.62760   3 ;    H7R-   C17-   C16-   H6S
  6710   6709   6712   6715      9     0.00   0.66944   3 ;    H7R-   C17-   C16-   C15
  6711   6709   6712   6713      9     0.00   0.62760   3 ;    H7S-   C17-   C16-   H6R
  6711   6709   6712   6714      9     0.00   0.62760   3 ;    H7S-   C17-   C16-   H6S
  6711   6709   6712   6715      9     0.00   0.66944   3 ;    H7S-   C17-   C16-   C15
  6712   6715   6718   6719      9     0.00   0.66944   3 ;    C16-   C15-   C14-   H4R
  6712   6715   6718   6720      9     0.00   0.66944   3 ;    C16-   C15-   C14-   H4S
  6712   6715   6718   6721      9     0.00   0.41840   1 ;    C16-   C15-   C14-   C13
  6712   6715   6718   6721      9     0.00   0.41840   2 ;    C16-   C15-   C14-   C13
  6712   6715   6718   6721      9     0.00   0.41840   4 ;    C16-   C15-   C14-   C13
  6712   6715   6718   6721      9     0.00   0.41840   5 ;    C16-   C15-   C14-   C13
  6712   6715   6718   6721      9     0.00   1.25520   3 ;    C16-   C15-   C14-   C13
  6713   6712   6715   6716      9     0.00   0.62760   3 ;    H6R-   C16-   C15-   H5R
  6713   6712   6715   6717      9     0.00   0.62760   3 ;    H6R-   C16-   C15-   H5S
  6713   6712   6715   6718      9     0.00   0.66944   3 ;    H6R-   C16-   C15-   C14
  6714   6712   6715   6716      9     0.00   0.62760   3 ;    H6S-   C16-   C15-   H5R
  6714   6712   6715   6717      9     0.00   0.62760   3 ;    H6S-   C16-   C15-   H5S
  6714   6712   6715   6718      9     0.00   0.66944   3 ;    H6S-   C16-   C15-   C14
  6715   6718   6721   6722      9     0.00   0.66944   3 ;    C15-   C14-   C13-   H3R
  6715   6718   6721   6723      9     0.00   0.66944   3 ;    C15-   C14-   C13-   H3S
  6715   6718   6721   6724      9     0.00   0.41840   1 ;    C15-   C14-   C13-   C12
  6715   6718   6721   6724      9     0.00   0.41840   2 ;    C15-   C14-   C13-   C12
  6715   6718   6721   6724      9     0.00   0.41840   4 ;    C15-   C14-   C13-   C12
  6715   6718   6721   6724      9     0.00   0.41840   5 ;    C15-   C14-   C13-   C12
  6715   6718   6721   6724      9     0.00   1.25520   3 ;    C15-   C14-   C13-   C12
  6716   6715   6718   6719      9     0.00   0.62760   3 ;    H5R-   C15-   C14-   H4R
  6716   6715   6718   6720      9     0.00   0.62760   3 ;    H5R-   C15-   C14-   H4S
  6716   6715   6718   6721      9     0.00   0.66944   3 ;    H5R-   C15-   C14-   C13
  6717   6715   6718   6719      9     0.00   0.62760   3 ;    H5S-   C15-   C14-   H4R
  6717   6715   6718   6720      9     0.00   0.62760   3 ;    H5S-   C15-   C14-   H4S
  6717   6715   6718   6721      9     0.00   0.66944   3 ;    H5S-   C15-   C14-   C13
  6718   6721   6724   6725      9     0.00   0.66944   3 ;    C14-   C13-   C12-   H2R
  6718   6721   6724   6726      9     0.00   0.66944   3 ;    C14-   C13-   C12-   H2S
  6719   6718   6721   6722      9     0.00   0.62760   3 ;    H4R-   C14-   C13-   H3R
  6719   6718   6721   6723      9     0.00   0.62760   3 ;    H4R-   C14-   C13-   H3S
  6719   6718   6721   6724      9     0.00   0.66944   3 ;    H4R-   C14-   C13-   C12
  6720   6718   6721   6722      9     0.00   0.62760   3 ;    H4S-   C14-   C13-   H3R
  6720   6718   6721   6723      9     0.00   0.62760   3 ;    H4S-   C14-   C13-   H3S
  6720   6718   6721   6724      9     0.00   0.66944   3 ;    H4S-   C14-   C13-   C12
  6722   6721   6724   6725      9     0.00   0.62760   3 ;    H3R-   C13-   C12-   H2R
  6722   6721   6724   6726      9     0.00   0.62760   3 ;    H3R-   C13-   C12-   H2S
  6723   6721   6724   6725      9     0.00   0.62760   3 ;    H3S-   C13-   C12-   H2R
  6723   6721   6724   6726      9     0.00   0.62760   3 ;    H3S-   C13-   C12-   H2S
  6727   6728   6731   6732      9     0.00   0.62760   3 ;   H14T-  C114-  C113-  H13R
  6727   6728   6731   6733      9     0.00   0.62760   3 ;   H14T-  C114-  C113-  H13S
  6727   6728   6731   6734      9     0.00   0.66944   3 ;   H14T-  C114-  C113-  C112
  6728   6731   6734   6735      9     0.00   0.66944   3 ;   C114-  C113-  C112-  H12R
  6728   6731   6734   6736      9     0.00   0.66944   3 ;   C114-  C113-  C112-  H12S
  6728   6731   6734   6737      9     0.00   0.41840   1 ;   C114-  C113-  C112-  C111
  6728   6731   6734   6737      9     0.00   0.41840   2 ;   C114-  C113-  C112-  C111
  6728   6731   6734   6737      9     0.00   0.41840   4 ;   C114-  C113-  C112-  C111
  6728   6731   6734   6737      9     0.00   0.41840   5 ;   C114-  C113-  C112-  C111
  6728   6731   6734   6737      9     0.00   1.25520   3 ;   C114-  C113-  C112-  C111
  6729   6728   6731   6732      9     0.00   0.62760   3 ;   H14R-  C114-  C113-  H13R
  6729   6728   6731   6733      9     0.00   0.62760   3 ;   H14R-  C114-  C113-  H13S
  6729   6728   6731   6734      9     0.00   0.66944   3 ;   H14R-  C114-  C113-  C112
  6730   6728   6731   6732      9     0.00   0.62760   3 ;   H14S-  C114-  C113-  H13R
  6730   6728   6731   6733      9     0.00   0.62760   3 ;   H14S-  C114-  C113-  H13S
  6730   6728   6731   6734      9     0.00   0.66944   3 ;   H14S-  C114-  C113-  C112
  6731   6734   6737   6738      9     0.00   0.66944   3 ;   C113-  C112-  C111-  H11R
  6731   6734   6737   6739      9     0.00   0.66944   3 ;   C113-  C112-  C111-  H11S
  6731   6734   6737   6740      9     0.00   0.41840   1 ;   C113-  C112-  C111-  C110
  6731   6734   6737   6740      9     0.00   0.41840   2 ;   C113-  C112-  C111-  C110
  6731   6734   6737   6740      9     0.00   0.41840   4 ;   C113-  C112-  C111-  C110
  6731   6734   6737   6740      9     0.00   0.41840   5 ;   C113-  C112-  C111-  C110
  6731   6734   6737   6740      9     0.00   1.25520   3 ;   C113-  C112-  C111-  C110
  6732   6731   6734   6735      9     0.00   0.62760   3 ;   H13R-  C113-  C112-  H12R
  6732   6731   6734   6736      9     0.00   0.62760   3 ;   H13R-  C113-  C112-  H12S
  6732   6731   6734   6737      9     0.00   0.66944   3 ;   H13R-  C113-  C112-  C111
  6733   6731   6734   6735      9     0.00   0.62760   3 ;   H13S-  C113-  C112-  H12R
  6733   6731   6734   6736      9     0.00   0.62760   3 ;   H13S-  C113-  C112-  H12S
  6733   6731   6734   6737      9     0.00   0.66944   3 ;   H13S-  C113-  C112-  C111
  6734   6737   6740   6741      9     0.00   0.66944   3 ;   C112-  C111-  C110-  H10R
  6734   6737   6740   6742      9     0.00   0.66944   3 ;   C112-  C111-  C110-  H10S
  6734   6737   6740   6743      9     0.00   0.41840   1 ;   C112-  C111-  C110-   C19
  6734   6737   6740   6743      9     0.00   0.41840   2 ;   C112-  C111-  C110-   C19
  6734   6737   6740   6743      9     0.00   0.41840   4 ;   C112-  C111-  C110-   C19
  6734   6737   6740   6743      9     0.00   0.41840   5 ;   C112-  C111-  C110-   C19
  6734   6737   6740   6743      9     0.00   1.25520   3 ;   C112-  C111-  C110-   C19
  6735   6734   6737   6738      9     0.00   0.62760   3 ;   H12R-  C112-  C111-  H11R
  6735   6734   6737   6739      9     0.00   0.62760   3 ;   H12R-  C112-  C111-  H11S
  6735   6734   6737   6740      9     0.00   0.66944   3 ;   H12R-  C112-  C111-  C110
  6736   6734   6737   6738      9     0.00   0.62760   3 ;   H12S-  C112-  C111-  H11R
  6736   6734   6737   6739      9     0.00   0.62760   3 ;   H12S-  C112-  C111-  H11S
  6736   6734   6737   6740      9     0.00   0.66944   3 ;   H12S-  C112-  C111-  C110
  6737   6740   6743   6744      9     0.00   0.66944   3 ;   C111-  C110-   C19-   H9R
  6737   6740   6743   6745      9     0.00   0.66944   3 ;   C111-  C110-   C19-   H9S
  6737   6740   6743   6746      9     0.00   0.41840   1 ;   C111-  C110-   C19-   C18
  6737   6740   6743   6746      9     0.00   0.41840   2 ;   C111-  C110-   C19-   C18
  6737   6740   6743   6746      9     0.00   0.41840   4 ;   C111-  C110-   C19-   C18
  6737   6740   6743   6746      9     0.00   0.41840   5 ;   C111-  C110-   C19-   C18
  6737   6740   6743   6746      9     0.00   1.25520   3 ;   C111-  C110-   C19-   C18
  6738   6737   6740   6741      9     0.00   0.62760   3 ;   H11R-  C111-  C110-  H10R
  6738   6737   6740   6742      9     0.00   0.62760   3 ;   H11R-  C111-  C110-  H10S
  6738   6737   6740   6743      9     0.00   0.66944   3 ;   H11R-  C111-  C110-   C19
  6739   6737   6740   6741      9     0.00   0.62760   3 ;   H11S-  C111-  C110-  H10R
  6739   6737   6740   6742      9     0.00   0.62760   3 ;   H11S-  C111-  C110-  H10S
  6739   6737   6740   6743      9     0.00   0.66944   3 ;   H11S-  C111-  C110-   C19
  6740   6743   6746   6747      9     0.00   0.66944   3 ;   C110-   C19-   C18-   H8R
  6740   6743   6746   6748      9     0.00   0.66944   3 ;   C110-   C19-   C18-   H8S
  6740   6743   6746   6749      9     0.00   0.41840   1 ;   C110-   C19-   C18-   C17
  6740   6743   6746   6749      9     0.00   0.41840   2 ;   C110-   C19-   C18-   C17
  6740   6743   6746   6749      9     0.00   0.41840   4 ;   C110-   C19-   C18-   C17
  6740   6743   6746   6749      9     0.00   0.41840   5 ;   C110-   C19-   C18-   C17
  6740   6743   6746   6749      9     0.00   1.25520   3 ;   C110-   C19-   C18-   C17
  6741   6740   6743   6744      9     0.00   0.62760   3 ;   H10R-  C110-   C19-   H9R
  6741   6740   6743   6745      9     0.00   0.62760   3 ;   H10R-  C110-   C19-   H9S
  6741   6740   6743   6746      9     0.00   0.66944   3 ;   H10R-  C110-   C19-   C18
  6742   6740   6743   6744      9     0.00   0.62760   3 ;   H10S-  C110-   C19-   H9R
  6742   6740   6743   6745      9     0.00   0.62760   3 ;   H10S-  C110-   C19-   H9S
  6742   6740   6743   6746      9     0.00   0.66944   3 ;   H10S-  C110-   C19-   C18
  6743   6746   6749   6750      9     0.00   0.66944   3 ;    C19-   C18-   C17-   H7R
  6743   6746   6749   6751      9     0.00   0.66944   3 ;    C19-   C18-   C17-   H7S
  6743   6746   6749   6752      9     0.00   0.41840   1 ;    C19-   C18-   C17-   C16
  6743   6746   6749   6752      9     0.00   0.41840   2 ;    C19-   C18-   C17-   C16
  6743   6746   6749   6752      9     0.00   0.41840   4 ;    C19-   C18-   C17-   C16
  6743   6746   6749   6752      9     0.00   0.41840   5 ;    C19-   C18-   C17-   C16
  6743   6746   6749   6752      9     0.00   1.25520   3 ;    C19-   C18-   C17-   C16
  6744   6743   6746   6747      9     0.00   0.62760   3 ;    H9R-   C19-   C18-   H8R
  6744   6743   6746   6748      9     0.00   0.62760   3 ;    H9R-   C19-   C18-   H8S
  6744   6743   6746   6749      9     0.00   0.66944   3 ;    H9R-   C19-   C18-   C17
  6745   6743   6746   6747      9     0.00   0.62760   3 ;    H9S-   C19-   C18-   H8R
  6745   6743   6746   6748      9     0.00   0.62760   3 ;    H9S-   C19-   C18-   H8S
  6745   6743   6746   6749      9     0.00   0.66944   3 ;    H9S-   C19-   C18-   C17
  6746   6749   6752   6753      9     0.00   0.66944   3 ;    C18-   C17-   C16-   H6R
  6746   6749   6752   6754      9     0.00   0.66944   3 ;    C18-   C17-   C16-   H6S
  6746   6749   6752   6755      9     0.00   0.41840   1 ;    C18-   C17-   C16-   C15
  6746   6749   6752   6755      9     0.00   0.41840   2 ;    C18-   C17-   C16-   C15
  6746   6749   6752   6755      9     0.00   0.41840   4 ;    C18-   C17-   C16-   C15
  6746   6749   6752   6755      9     0.00   0.41840   5 ;    C18-   C17-   C16-   C15
  6746   6749   6752   6755      9     0.00   1.25520   3 ;    C18-   C17-   C16-   C15
  6747   6746   6749   6750      9     0.00   0.62760   3 ;    H8R-   C18-   C17-   H7R
  6747   6746   6749   6751      9     0.00   0.62760   3 ;    H8R-   C18-   C17-   H7S
  6747   6746   6749   6752      9     0.00   0.66944   3 ;    H8R-   C18-   C17-   C16
  6748   6746   6749   6750      9     0.00   0.62760   3 ;    H8S-   C18-   C17-   H7R
  6748   6746   6749   6751      9     0.00   0.62760   3 ;    H8S-   C18-   C17-   H7S
  6748   6746   6749   6752      9     0.00   0.66944   3 ;    H8S-   C18-   C17-   C16
  6749   6752   6755   6756      9     0.00   0.66944   3 ;    C17-   C16-   C15-   H5R
  6749   6752   6755   6757      9     0.00   0.66944   3 ;    C17-   C16-   C15-   H5S
  6749   6752   6755   6758      9     0.00   0.41840   1 ;    C17-   C16-   C15-   C14
  6749   6752   6755   6758      9     0.00   0.41840   2 ;    C17-   C16-   C15-   C14
  6749   6752   6755   6758      9     0.00   0.41840   4 ;    C17-   C16-   C15-   C14
  6749   6752   6755   6758      9     0.00   0.41840   5 ;    C17-   C16-   C15-   C14
  6749   6752   6755   6758      9     0.00   1.25520   3 ;    C17-   C16-   C15-   C14
  6750   6749   6752   6753      9     0.00   0.62760   3 ;    H7R-   C17-   C16-   H6R
  6750   6749   6752   6754      9     0.00   0.62760   3 ;    H7R-   C17-   C16-   H6S
  6750   6749   6752   6755      9     0.00   0.66944   3 ;    H7R-   C17-   C16-   C15
  6751   6749   6752   6753      9     0.00   0.62760   3 ;    H7S-   C17-   C16-   H6R
  6751   6749   6752   6754      9     0.00   0.62760   3 ;    H7S-   C17-   C16-   H6S
  6751   6749   6752   6755      9     0.00   0.66944   3 ;    H7S-   C17-   C16-   C15
  6752   6755   6758   6759      9     0.00   0.66944   3 ;    C16-   C15-   C14-   H4R
  6752   6755   6758   6760      9     0.00   0.66944   3 ;    C16-   C15-   C14-   H4S
  6752   6755   6758   6761      9     0.00   0.41840   1 ;    C16-   C15-   C14-   C13
  6752   6755   6758   6761      9     0.00   0.41840   2 ;    C16-   C15-   C14-   C13
  6752   6755   6758   6761      9     0.00   0.41840   4 ;    C16-   C15-   C14-   C13
  6752   6755   6758   6761      9     0.00   0.41840   5 ;    C16-   C15-   C14-   C13
  6752   6755   6758   6761      9     0.00   1.25520   3 ;    C16-   C15-   C14-   C13
  6753   6752   6755   6756      9     0.00   0.62760   3 ;    H6R-   C16-   C15-   H5R
  6753   6752   6755   6757      9     0.00   0.62760   3 ;    H6R-   C16-   C15-   H5S
  6753   6752   6755   6758      9     0.00   0.66944   3 ;    H6R-   C16-   C15-   C14
  6754   6752   6755   6756      9     0.00   0.62760   3 ;    H6S-   C16-   C15-   H5R
  6754   6752   6755   6757      9     0.00   0.62760   3 ;    H6S-   C16-   C15-   H5S
  6754   6752   6755   6758      9     0.00   0.66944   3 ;    H6S-   C16-   C15-   C14
  6755   6758   6761   6762      9     0.00   0.66944   3 ;    C15-   C14-   C13-   H3R
  6755   6758   6761   6763      9     0.00   0.66944   3 ;    C15-   C14-   C13-   H3S
  6755   6758   6761   6764      9     0.00   0.41840   1 ;    C15-   C14-   C13-   C12
  6755   6758   6761   6764      9     0.00   0.41840   2 ;    C15-   C14-   C13-   C12
  6755   6758   6761   6764      9     0.00   0.41840   4 ;    C15-   C14-   C13-   C12
  6755   6758   6761   6764      9     0.00   0.41840   5 ;    C15-   C14-   C13-   C12
  6755   6758   6761   6764      9     0.00   1.25520   3 ;    C15-   C14-   C13-   C12
  6756   6755   6758   6759      9     0.00   0.62760   3 ;    H5R-   C15-   C14-   H4R
  6756   6755   6758   6760      9     0.00   0.62760   3 ;    H5R-   C15-   C14-   H4S
  6756   6755   6758   6761      9     0.00   0.66944   3 ;    H5R-   C15-   C14-   C13
  6757   6755   6758   6759      9     0.00   0.62760   3 ;    H5S-   C15-   C14-   H4R
  6757   6755   6758   6760      9     0.00   0.62760   3 ;    H5S-   C15-   C14-   H4S
  6757   6755   6758   6761      9     0.00   0.66944   3 ;    H5S-   C15-   C14-   C13
  6758   6761   6764   6765      9     0.00   0.66944   3 ;    C14-   C13-   C12-   H2R
  6758   6761   6764   6766      9     0.00   0.66944   3 ;    C14-   C13-   C12-   H2S
  6758   6761   6764   6767      9     0.00   0.65270   3 ;    C14-   C13-   C12-   C11
  6759   6758   6761   6762      9     0.00   0.62760   3 ;    H4R-   C14-   C13-   H3R
  6759   6758   6761   6763      9     0.00   0.62760   3 ;    H4R-   C14-   C13-   H3S
  6759   6758   6761   6764      9     0.00   0.66944   3 ;    H4R-   C14-   C13-   C12
  6760   6758   6761   6762      9     0.00   0.62760   3 ;    H4S-   C14-   C13-   H3R
  6760   6758   6761   6763      9     0.00   0.62760   3 ;    H4S-   C14-   C13-   H3S
  6760   6758   6761   6764      9     0.00   0.66944   3 ;    H4S-   C14-   C13-   C12
  6761   6764   6767   6768      9   180.00   0.00000   2 ;    C13-   C12-   C11-   O12
  6761   6764   6767   6769      9   180.00   0.00000   2 ;    C13-   C12-   C11-   O11
  6762   6761   6764   6765      9     0.00   0.62760   3 ;    H3R-   C13-   C12-   H2R
  6762   6761   6764   6766      9     0.00   0.62760   3 ;    H3R-   C13-   C12-   H2S
  6762   6761   6764   6767      9     0.00   0.65270   3 ;    H3R-   C13-   C12-   C11
  6763   6761   6764   6765      9     0.00   0.62760   3 ;    H3S-   C13-   C12-   H2R
  6763   6761   6764   6766      9     0.00   0.62760   3 ;    H3S-   C13-   C12-   H2S
  6763   6761   6764   6767      9     0.00   0.65270   3 ;    H3S-   C13-   C12-   C11
  6764   6767   6769   6770      9   180.00  11.29680   2 ;    C12-   C11-   O11-    C1
  6765   6764   6767   6768      9     0.00   3.34720   1 ;    H2R-   C12-   C11-   O12
  6765   6764   6767   6768      9   180.00   0.33472   3 ;    H2R-   C12-   C11-   O12
  6765   6764   6767   6769      9   180.00   0.00000   2 ;    H2R-   C12-   C11-   O11
  6766   6764   6767   6768      9     0.00   3.34720   1 ;    H2S-   C12-   C11-   O12
  6766   6764   6767   6768      9   180.00   0.33472   3 ;    H2S-   C12-   C11-   O12
  6766   6764   6767   6769      9   180.00   0.00000   2 ;    H2S-   C12-   C11-   O11
  6767   6769   6770   6771      9     0.00   1.60247   3 ;    C11-   O11-    C1-    HR
  6767   6769   6770   6772      9     0.00   1.60247   3 ;    C11-   O11-    C1-    HS
  6767   6769   6770   6773      9     0.00  -0.41840   1 ;    C11-   O11-    C1-    C2
  6768   6767   6769   6770      9   180.00   5.85760   1 ;    O12-   C11-   O11-    C1
  6768   6767   6769   6770      9   180.00  11.29680   2 ;    O12-   C11-   O11-    C1
  6769   6770   6773   6774      9     0.00   0.00000   0 ;    O11-    C1-    C2-    HX
  6769   6770   6773   6774      9     0.00   1.04600   1 ;    O11-    C1-    C2-    HX
  6769   6770   6773   6775      9     0.00   0.00000   0 ;    O11-    C1-    C2-    C3
  6769   6770   6773   6775      9     0.00   0.00000   0 ;    O11-    C1-    C2-    C3
  6769   6770   6773   6775      9     0.00   0.00000   0 ;    O11-    C1-    C2-    C3
  6769   6770   6773   6775      9     0.00   0.00000   0 ;    O11-    C1-    C2-    C3
  6769   6770   6773   6775      9     0.00   0.00000   0 ;    O11-    C1-    C2-    C3
  6769   6770   6773   6802      9     0.00   1.25520   2 ;    O11-    C1-    C2-   O21
  6769   6770   6773   6802      9     0.00   4.18400   3 ;    O11-    C1-    C2-   O21
  6769   6770   6773   6802      9   180.00  -0.41840   1 ;    O11-    C1-    C2-   O21
  6770   6773   6775   6776      9     0.00   0.65270   3 ;     C1-    C2-    C3-    HA
  6770   6773   6775   6777      9     0.00   0.65270   3 ;     C1-    C2-    C3-    HB
  6770   6773   6775   6778      9   180.00   3.34720   1 ;     C1-    C2-    C3-   O31
  6770   6773   6802   6803      9     0.00  -0.41840   1 ;     C1-    C2-   O21-   C21
  6771   6770   6773   6774      9     0.00   0.65270   3 ;     HR-    C1-    C2-    HX
  6771   6770   6773   6775      9     0.00   0.65270   3 ;     HR-    C1-    C2-    C3
  6771   6770   6773   6802      9     0.00   0.00000   0 ;     HR-    C1-    C2-   O21
  6771   6770   6773   6802      9     0.00   1.04600   1 ;     HR-    C1-    C2-   O21
  6772   6770   6773   6774      9     0.00   0.65270   3 ;     HS-    C1-    C2-    HX
  6772   6770   6773   6775      9     0.00   0.65270   3 ;     HS-    C1-    C2-    C3
  6772   6770   6773   6802      9     0.00   0.00000   0 ;     HS-    C1-    C2-   O21
  6772   6770   6773   6802      9     0.00   1.04600   1 ;     HS-    C1-    C2-   O21
  6773   6775   6778   6779      9     0.00   0.00000   0 ;     C2-    C3-   O31-   P31
  6773   6775   6778   6779      9   180.00  -3.34720   2 ;     C2-    C3-   O31-   P31
  6773   6802   6803   6804      9   180.00   5.85760   1 ;     C2-   O21-   C21-   O22
  6773   6802   6803   6804      9   180.00  11.29680   2 ;     C2-   O21-   C21-   O22
  6773   6802   6803   6842      9   180.00  11.29680   2 ;     C2-   O21-   C21-   C12
  6774   6773   6775   6776      9     0.00   0.65270   3 ;     HX-    C2-    C3-    HA
  6774   6773   6775   6777      9     0.00   0.65270   3 ;     HX-    C2-    C3-    HB
  6774   6773   6775   6778      9     0.00   0.00000   0 ;     HX-    C2-    C3-   O31
  6774   6773   6775   6778      9     0.00   1.04600   1 ;     HX-    C2-    C3-   O31
  6774   6773   6802   6803      9     0.00   1.60247   3 ;     HX-    C2-   O21-   C21
  6775   6773   6802   6803      9     0.00  -0.41840   1 ;     C3-    C2-   O21-   C21
  6775   6778   6779   6780      9     0.00   2.51040   3 ;     C3-   O31-   P31-   O32
  6775   6778   6779   6780      9     0.00   9.62320   2 ;     C3-   O31-   P31-   O32
  6775   6778   6779   6800      9     0.00   0.00000   0 ;     C3-   O31-   P31-   O33
  6775   6778   6779   6800      9     0.00   0.00000   0 ;     C3-   O31-   P31-   O33
  6775   6778   6779   6800      9     0.00   0.00000   0 ;     C3-   O31-   P31-   O33
  6775   6778   6779   6800      9     0.00   0.00000   0 ;     C3-   O31-   P31-   O33
  6775   6778   6779   6800      9     0.00   0.83680   2 ;     C3-   O31-   P31-   O33
  6775   6778   6779   6801      9     0.00   0.00000   0 ;     C3-   O31-   P31-   O34
  6775   6778   6779   6801      9     0.00   0.00000   0 ;     C3-   O31-   P31-   O34
  6775   6778   6779   6801      9     0.00   0.00000   0 ;     C3-   O31-   P31-   O34
  6775   6778   6779   6801      9     0.00   0.00000   0 ;     C3-   O31-   P31-   O34
  6775   6778   6779   6801      9     0.00   0.83680   2 ;     C3-   O31-   P31-   O34
  6776   6775   6773   6802      9     0.00   0.00000   0 ;     HA-    C3-    C2-   O21
  6776   6775   6773   6802      9     0.00   1.04600   1 ;     HA-    C3-    C2-   O21
  6776   6775   6778   6779      9     0.00   0.00000   0 ;     HA-    C3-   O31-   P31
  6776   6775   6778   6779      9     0.00   0.00000   0 ;     HA-    C3-   O31-   P31
  6776   6775   6778   6779      9     0.00   0.00000   0 ;     HA-    C3-   O31-   P31
  6776   6775   6778   6779      9     0.00   0.00000   0 ;     HA-    C3-   O31-   P31
  6776   6775   6778   6779      9     0.00   1.60247   3 ;     HA-    C3-   O31-   P31
  6777   6775   6773   6802      9     0.00   0.00000   0 ;     HB-    C3-    C2-   O21
  6777   6775   6773   6802      9     0.00   1.04600   1 ;     HB-    C3-    C2-   O21
  6777   6775   6778   6779      9     0.00   0.00000   0 ;     HB-    C3-   O31-   P31
  6777   6775   6778   6779      9     0.00   0.00000   0 ;     HB-    C3-   O31-   P31
  6777   6775   6778   6779      9     0.00   0.00000   0 ;     HB-    C3-   O31-   P31
  6777   6775   6778   6779      9     0.00   0.00000   0 ;     HB-    C3-   O31-   P31
  6777   6775   6778   6779      9     0.00   1.60247   3 ;     HB-    C3-   O31-   P31
  6778   6775   6773   6802      9     0.00   0.00000   0 ;    O31-    C3-    C2-   O21
  6778   6775   6773   6802      9     0.00   0.00000   0 ;    O31-    C3-    C2-   O21
  6778   6775   6773   6802      9     0.00   0.00000   0 ;    O31-    C3-    C2-   O21
  6778   6775   6773   6802      9     0.00   0.00000   0 ;    O31-    C3-    C2-   O21
  6778   6775   6773   6802      9     0.00   0.00000   0 ;    O31-    C3-    C2-   O21
  6778   6779   6780   6781      9     0.00   2.51040   3 ;    O31-   P31-   O32-   C31
  6778   6779   6780   6781      9     0.00   9.62320   2 ;    O31-   P31-   O32-   C31
  6779   6780   6781   6782      9     0.00   0.00000   0 ;    P31-   O32-   C31-   H1A
  6779   6780   6781   6782      9     0.00   0.00000   0 ;    P31-   O32-   C31-   H1A
  6779   6780   6781   6782      9     0.00   0.00000   0 ;    P31-   O32-   C31-   H1A
  6779   6780   6781   6782      9     0.00   0.00000   0 ;    P31-   O32-   C31-   H1A
  6779   6780   6781   6782      9     0.00   1.60247   3 ;    P31-   O32-   C31-   H1A
  6779   6780   6781   6783      9     0.00   0.00000   0 ;    P31-   O32-   C31-   H1B
  6779   6780   6781   6783      9     0.00   0.00000   0 ;    P31-   O32-   C31-   H1B
  6779   6780   6781   6783      9     0.00   0.00000   0 ;    P31-   O32-   C31-   H1B
  6779   6780   6781   6783      9     0.00   0.00000   0 ;    P31-   O32-   C31-   H1B
  6779   6780   6781   6783      9     0.00   1.60247   3 ;    P31-   O32-   C31-   H1B
  6779   6780   6781   6784      9     0.00   0.00000   0 ;    P31-   O32-   C31-   C32
  6779   6780   6781   6784      9   180.00  -3.34720   2 ;    P31-   O32-   C31-   C32
  6780   6781   6784   6785      9     0.00   0.65270   3 ;    O32-   C31-   C32-   H2A
  6780   6781   6784   6786      9     0.00   0.65270   3 ;    O32-   C31-   C32-   H2B
  6780   6781   6784   6787      9     0.00   4.18400   3 ;    O32-   C31-   C32-   N31
  6781   6780   6779   6800      9     0.00   0.00000   0 ;    C31-   O32-   P31-   O33
  6781   6780   6779   6800      9     0.00   0.00000   0 ;    C31-   O32-   P31-   O33
  6781   6780   6779   6800      9     0.00   0.00000   0 ;    C31-   O32-   P31-   O33
  6781   6780   6779   6800      9     0.00   0.00000   0 ;    C31-   O32-   P31-   O33
  6781   6780   6779   6800      9     0.00   0.83680   2 ;    C31-   O32-   P31-   O33
  6781   6780   6779   6801      9     0.00   0.00000   0 ;    C31-   O32-   P31-   O34
  6781   6780   6779   6801      9     0.00   0.00000   0 ;    C31-   O32-   P31-   O34
  6781   6780   6779   6801      9     0.00   0.00000   0 ;    C31-   O32-   P31-   O34
  6781   6780   6779   6801      9     0.00   0.00000   0 ;    C31-   O32-   P31-   O34
  6781   6780   6779   6801      9     0.00   0.83680   2 ;    C31-   O32-   P31-   O34
  6781   6784   6787   6788      9     0.00   0.65270   3 ;    C31-   C32-   N31-   C33
  6781   6784   6787   6792      9     0.00   0.65270   3 ;    C31-   C32-   N31-   C34
  6781   6784   6787   6796      9     0.00   0.65270   3 ;    C31-   C32-   N31-   C35
  6782   6781   6784   6785      9     0.00   0.65270   3 ;    H1A-   C31-   C32-   H2A
  6782   6781   6784   6786      9     0.00   0.65270   3 ;    H1A-   C31-   C32-   H2B
  6782   6781   6784   6787      9     0.00   0.65270   3 ;    H1A-   C31-   C32-   N31
  6783   6781   6784   6785      9     0.00   0.65270   3 ;    H1B-   C31-   C32-   H2A
  6783   6781   6784   6786      9     0.00   0.65270   3 ;    H1B-   C31-   C32-   H2B
  6783   6781   6784   6787      9     0.00   0.65270   3 ;    H1B-   C31-   C32-   N31
  6784   6787   6788   6789      9     0.00   0.65270   3 ;    C32-   N31-   C33-   H3A
  6784   6787   6788   6790      9     0.00   0.65270   3 ;    C32-   N31-   C33-   H3B
  6784   6787   6788   6791      9     0.00   0.65270   3 ;    C32-   N31-   C33-   H3C
  6784   6787   6792   6793      9     0.00   0.65270   3 ;    C32-   N31-   C34-   H4A
  6784   6787   6792   6794      9     0.00   0.65270   3 ;    C32-   N31-   C34-   H4B
  6784   6787   6792   6795      9     0.00   0.65270   3 ;    C32-   N31-   C34-   H4C
  6784   6787   6796   6797      9     0.00   0.65270   3 ;    C32-   N31-   C35-   H5A
  6784   6787   6796   6798      9     0.00   0.65270   3 ;    C32-   N31-   C35-   H5B
  6784   6787   6796   6799      9     0.00   0.65270   3 ;    C32-   N31-   C35-   H5C
  6785   6784   6787   6788      9     0.00   0.65270   3 ;    H2A-   C32-   N31-   C33
  6785   6784   6787   6792      9     0.00   0.65270   3 ;    H2A-   C32-   N31-   C34
  6785   6784   6787   6796      9     0.00   0.65270   3 ;    H2A-   C32-   N31-   C35
  6786   6784   6787   6788      9     0.00   0.65270   3 ;    H2B-   C32-   N31-   C33
  6786   6784   6787   6792      9     0.00   0.65270   3 ;    H2B-   C32-   N31-   C34
  6786   6784   6787   6796      9     0.00   0.65270   3 ;    H2B-   C32-   N31-   C35
  6788   6787   6792   6793      9     0.00   0.65270   3 ;    C33-   N31-   C34-   H4A
  6788   6787   6792   6794      9     0.00   0.65270   3 ;    C33-   N31-   C34-   H4B
  6788   6787   6792   6795      9     0.00   0.65270   3 ;    C33-   N31-   C34-   H4C
  6788   6787   6796   6797      9     0.00   0.65270   3 ;    C33-   N31-   C35-   H5A
  6788   6787   6796   6798      9     0.00   0.65270   3 ;    C33-   N31-   C35-   H5B
  6788   6787   6796   6799      9     0.00   0.65270   3 ;    C33-   N31-   C35-   H5C
  6789   6788   6787   6792      9     0.00   0.65270   3 ;    H3A-   C33-   N31-   C34
  6789   6788   6787   6796      9     0.00   0.65270   3 ;    H3A-   C33-   N31-   C35
  6790   6788   6787   6792      9     0.00   0.65270   3 ;    H3B-   C33-   N31-   C34
  6790   6788   6787   6796      9     0.00   0.65270   3 ;    H3B-   C33-   N31-   C35
  6791   6788   6787   6792      9     0.00   0.65270   3 ;    H3C-   C33-   N31-   C34
  6791   6788   6787   6796      9     0.00   0.65270   3 ;    H3C-   C33-   N31-   C35
  6792   6787   6796   6797      9     0.00   0.65270   3 ;    C34-   N31-   C35-   H5A
  6792   6787   6796   6798      9     0.00   0.65270   3 ;    C34-   N31-   C35-   H5B
  6792   6787   6796   6799      9     0.00   0.65270   3 ;    C34-   N31-   C35-   H5C
  6793   6792   6787   6796      9     0.00   0.65270   3 ;    H4A-   C34-   N31-   C35
  6794   6792   6787   6796      9     0.00   0.65270   3 ;    H4B-   C34-   N31-   C35
  6795   6792   6787   6796      9     0.00   0.65270   3 ;    H4C-   C34-   N31-   C35
  6802   6803   6842   6839      9   180.00   0.00000   2 ;    O21-   C21-   C12-   C13
  6802   6803   6842   6843      9   180.00   0.00000   2 ;    O21-   C21-   C12-   H2R
  6802   6803   6842   6844      9   180.00   0.00000   2 ;    O21-   C21-   C12-   H2S
  6803   6842   6839   6836      9     0.00   0.65270   3 ;    C21-   C12-   C13-   C14
  6803   6842   6839   6840      9     0.00   0.65270   3 ;    C21-   C12-   C13-   H3R
  6803   6842   6839   6841      9     0.00   0.65270   3 ;    C21-   C12-   C13-   H3S
  6804   6803   6842   6839      9   180.00   0.00000   2 ;    O22-   C21-   C12-   C13
  6804   6803   6842   6843      9     0.00   3.34720   1 ;    O22-   C21-   C12-   H2R
  6804   6803   6842   6843      9   180.00   0.33472   3 ;    O22-   C21-   C12-   H2R
  6804   6803   6842   6844      9     0.00   3.34720   1 ;    O22-   C21-   C12-   H2S
  6804   6803   6842   6844      9   180.00   0.33472   3 ;    O22-   C21-   C12-   H2S
  6805   6806   6809   6810      9     0.00   0.62760   3 ;   H14T-  C114-  C113-  H13R
  6805   6806   6809   6811      9     0.00   0.62760   3 ;   H14T-  C114-  C113-  H13S
  6805   6806   6809   6812      9     0.00   0.66944   3 ;   H14T-  C114-  C113-  C112
  6806   6809   6812   6813      9     0.00   0.66944   3 ;   C114-  C113-  C112-  H12R
  6806   6809   6812   6814      9     0.00   0.66944   3 ;   C114-  C113-  C112-  H12S
  6806   6809   6812   6815      9     0.00   0.41840   1 ;   C114-  C113-  C112-  C111
  6806   6809   6812   6815      9     0.00   0.41840   2 ;   C114-  C113-  C112-  C111
  6806   6809   6812   6815      9     0.00   0.41840   4 ;   C114-  C113-  C112-  C111
  6806   6809   6812   6815      9     0.00   0.41840   5 ;   C114-  C113-  C112-  C111
  6806   6809   6812   6815      9     0.00   1.25520   3 ;   C114-  C113-  C112-  C111
  6807   6806   6809   6810      9     0.00   0.62760   3 ;   H14R-  C114-  C113-  H13R
  6807   6806   6809   6811      9     0.00   0.62760   3 ;   H14R-  C114-  C113-  H13S
  6807   6806   6809   6812      9     0.00   0.66944   3 ;   H14R-  C114-  C113-  C112
  6808   6806   6809   6810      9     0.00   0.62760   3 ;   H14S-  C114-  C113-  H13R
  6808   6806   6809   6811      9     0.00   0.62760   3 ;   H14S-  C114-  C113-  H13S
  6808   6806   6809   6812      9     0.00   0.66944   3 ;   H14S-  C114-  C113-  C112
  6809   6812   6815   6816      9     0.00   0.66944   3 ;   C113-  C112-  C111-  H11R
  6809   6812   6815   6817      9     0.00   0.66944   3 ;   C113-  C112-  C111-  H11S
  6809   6812   6815   6818      9     0.00   0.41840   1 ;   C113-  C112-  C111-  C110
  6809   6812   6815   6818      9     0.00   0.41840   2 ;   C113-  C112-  C111-  C110
  6809   6812   6815   6818      9     0.00   0.41840   4 ;   C113-  C112-  C111-  C110
  6809   6812   6815   6818      9     0.00   0.41840   5 ;   C113-  C112-  C111-  C110
  6809   6812   6815   6818      9     0.00   1.25520   3 ;   C113-  C112-  C111-  C110
  6810   6809   6812   6813      9     0.00   0.62760   3 ;   H13R-  C113-  C112-  H12R
  6810   6809   6812   6814      9     0.00   0.62760   3 ;   H13R-  C113-  C112-  H12S
  6810   6809   6812   6815      9     0.00   0.66944   3 ;   H13R-  C113-  C112-  C111
  6811   6809   6812   6813      9     0.00   0.62760   3 ;   H13S-  C113-  C112-  H12R
  6811   6809   6812   6814      9     0.00   0.62760   3 ;   H13S-  C113-  C112-  H12S
  6811   6809   6812   6815      9     0.00   0.66944   3 ;   H13S-  C113-  C112-  C111
  6812   6815   6818   6819      9     0.00   0.66944   3 ;   C112-  C111-  C110-  H10R
  6812   6815   6818   6820      9     0.00   0.66944   3 ;   C112-  C111-  C110-  H10S
  6812   6815   6818   6821      9     0.00   0.41840   1 ;   C112-  C111-  C110-   C19
  6812   6815   6818   6821      9     0.00   0.41840   2 ;   C112-  C111-  C110-   C19
  6812   6815   6818   6821      9     0.00   0.41840   4 ;   C112-  C111-  C110-   C19
  6812   6815   6818   6821      9     0.00   0.41840   5 ;   C112-  C111-  C110-   C19
  6812   6815   6818   6821      9     0.00   1.25520   3 ;   C112-  C111-  C110-   C19
  6813   6812   6815   6816      9     0.00   0.62760   3 ;   H12R-  C112-  C111-  H11R
  6813   6812   6815   6817      9     0.00   0.62760   3 ;   H12R-  C112-  C111-  H11S
  6813   6812   6815   6818      9     0.00   0.66944   3 ;   H12R-  C112-  C111-  C110
  6814   6812   6815   6816      9     0.00   0.62760   3 ;   H12S-  C112-  C111-  H11R
  6814   6812   6815   6817      9     0.00   0.62760   3 ;   H12S-  C112-  C111-  H11S
  6814   6812   6815   6818      9     0.00   0.66944   3 ;   H12S-  C112-  C111-  C110
  6815   6818   6821   6822      9     0.00   0.66944   3 ;   C111-  C110-   C19-   H9R
  6815   6818   6821   6823      9     0.00   0.66944   3 ;   C111-  C110-   C19-   H9S
  6815   6818   6821   6824      9     0.00   0.41840   1 ;   C111-  C110-   C19-   C18
  6815   6818   6821   6824      9     0.00   0.41840   2 ;   C111-  C110-   C19-   C18
  6815   6818   6821   6824      9     0.00   0.41840   4 ;   C111-  C110-   C19-   C18
  6815   6818   6821   6824      9     0.00   0.41840   5 ;   C111-  C110-   C19-   C18
  6815   6818   6821   6824      9     0.00   1.25520   3 ;   C111-  C110-   C19-   C18
  6816   6815   6818   6819      9     0.00   0.62760   3 ;   H11R-  C111-  C110-  H10R
  6816   6815   6818   6820      9     0.00   0.62760   3 ;   H11R-  C111-  C110-  H10S
  6816   6815   6818   6821      9     0.00   0.66944   3 ;   H11R-  C111-  C110-   C19
  6817   6815   6818   6819      9     0.00   0.62760   3 ;   H11S-  C111-  C110-  H10R
  6817   6815   6818   6820      9     0.00   0.62760   3 ;   H11S-  C111-  C110-  H10S
  6817   6815   6818   6821      9     0.00   0.66944   3 ;   H11S-  C111-  C110-   C19
  6818   6821   6824   6825      9     0.00   0.66944   3 ;   C110-   C19-   C18-   H8R
  6818   6821   6824   6826      9     0.00   0.66944   3 ;   C110-   C19-   C18-   H8S
  6818   6821   6824   6827      9     0.00   0.41840   1 ;   C110-   C19-   C18-   C17
  6818   6821   6824   6827      9     0.00   0.41840   2 ;   C110-   C19-   C18-   C17
  6818   6821   6824   6827      9     0.00   0.41840   4 ;   C110-   C19-   C18-   C17
  6818   6821   6824   6827      9     0.00   0.41840   5 ;   C110-   C19-   C18-   C17
  6818   6821   6824   6827      9     0.00   1.25520   3 ;   C110-   C19-   C18-   C17
  6819   6818   6821   6822      9     0.00   0.62760   3 ;   H10R-  C110-   C19-   H9R
  6819   6818   6821   6823      9     0.00   0.62760   3 ;   H10R-  C110-   C19-   H9S
  6819   6818   6821   6824      9     0.00   0.66944   3 ;   H10R-  C110-   C19-   C18
  6820   6818   6821   6822      9     0.00   0.62760   3 ;   H10S-  C110-   C19-   H9R
  6820   6818   6821   6823      9     0.00   0.62760   3 ;   H10S-  C110-   C19-   H9S
  6820   6818   6821   6824      9     0.00   0.66944   3 ;   H10S-  C110-   C19-   C18
  6821   6824   6827   6828      9     0.00   0.66944   3 ;    C19-   C18-   C17-   H7R
  6821   6824   6827   6829      9     0.00   0.66944   3 ;    C19-   C18-   C17-   H7S
  6821   6824   6827   6830      9     0.00   0.41840   1 ;    C19-   C18-   C17-   C16
  6821   6824   6827   6830      9     0.00   0.41840   2 ;    C19-   C18-   C17-   C16
  6821   6824   6827   6830      9     0.00   0.41840   4 ;    C19-   C18-   C17-   C16
  6821   6824   6827   6830      9     0.00   0.41840   5 ;    C19-   C18-   C17-   C16
  6821   6824   6827   6830      9     0.00   1.25520   3 ;    C19-   C18-   C17-   C16
  6822   6821   6824   6825      9     0.00   0.62760   3 ;    H9R-   C19-   C18-   H8R
  6822   6821   6824   6826      9     0.00   0.62760   3 ;    H9R-   C19-   C18-   H8S
  6822   6821   6824   6827      9     0.00   0.66944   3 ;    H9R-   C19-   C18-   C17
  6823   6821   6824   6825      9     0.00   0.62760   3 ;    H9S-   C19-   C18-   H8R
  6823   6821   6824   6826      9     0.00   0.62760   3 ;    H9S-   C19-   C18-   H8S
  6823   6821   6824   6827      9     0.00   0.66944   3 ;    H9S-   C19-   C18-   C17
  6824   6827   6830   6831      9     0.00   0.66944   3 ;    C18-   C17-   C16-   H6R
  6824   6827   6830   6832      9     0.00   0.66944   3 ;    C18-   C17-   C16-   H6S
  6824   6827   6830   6833      9     0.00   0.41840   1 ;    C18-   C17-   C16-   C15
  6824   6827   6830   6833      9     0.00   0.41840   2 ;    C18-   C17-   C16-   C15
  6824   6827   6830   6833      9     0.00   0.41840   4 ;    C18-   C17-   C16-   C15
  6824   6827   6830   6833      9     0.00   0.41840   5 ;    C18-   C17-   C16-   C15
  6824   6827   6830   6833      9     0.00   1.25520   3 ;    C18-   C17-   C16-   C15
  6825   6824   6827   6828      9     0.00   0.62760   3 ;    H8R-   C18-   C17-   H7R
  6825   6824   6827   6829      9     0.00   0.62760   3 ;    H8R-   C18-   C17-   H7S
  6825   6824   6827   6830      9     0.00   0.66944   3 ;    H8R-   C18-   C17-   C16
  6826   6824   6827   6828      9     0.00   0.62760   3 ;    H8S-   C18-   C17-   H7R
  6826   6824   6827   6829      9     0.00   0.62760   3 ;    H8S-   C18-   C17-   H7S
  6826   6824   6827   6830      9     0.00   0.66944   3 ;    H8S-   C18-   C17-   C16
  6827   6830   6833   6834      9     0.00   0.66944   3 ;    C17-   C16-   C15-   H5R
  6827   6830   6833   6835      9     0.00   0.66944   3 ;    C17-   C16-   C15-   H5S
  6827   6830   6833   6836      9     0.00   0.41840   1 ;    C17-   C16-   C15-   C14
  6827   6830   6833   6836      9     0.00   0.41840   2 ;    C17-   C16-   C15-   C14
  6827   6830   6833   6836      9     0.00   0.41840   4 ;    C17-   C16-   C15-   C14
  6827   6830   6833   6836      9     0.00   0.41840   5 ;    C17-   C16-   C15-   C14
  6827   6830   6833   6836      9     0.00   1.25520   3 ;    C17-   C16-   C15-   C14
  6828   6827   6830   6831      9     0.00   0.62760   3 ;    H7R-   C17-   C16-   H6R
  6828   6827   6830   6832      9     0.00   0.62760   3 ;    H7R-   C17-   C16-   H6S
  6828   6827   6830   6833      9     0.00   0.66944   3 ;    H7R-   C17-   C16-   C15
  6829   6827   6830   6831      9     0.00   0.62760   3 ;    H7S-   C17-   C16-   H6R
  6829   6827   6830   6832      9     0.00   0.62760   3 ;    H7S-   C17-   C16-   H6S
  6829   6827   6830   6833      9     0.00   0.66944   3 ;    H7S-   C17-   C16-   C15
  6830   6833   6836   6837      9     0.00   0.66944   3 ;    C16-   C15-   C14-   H4R
  6830   6833   6836   6838      9     0.00   0.66944   3 ;    C16-   C15-   C14-   H4S
  6830   6833   6836   6839      9     0.00   0.41840   1 ;    C16-   C15-   C14-   C13
  6830   6833   6836   6839      9     0.00   0.41840   2 ;    C16-   C15-   C14-   C13
  6830   6833   6836   6839      9     0.00   0.41840   4 ;    C16-   C15-   C14-   C13
  6830   6833   6836   6839      9     0.00   0.41840   5 ;    C16-   C15-   C14-   C13
  6830   6833   6836   6839      9     0.00   1.25520   3 ;    C16-   C15-   C14-   C13
  6831   6830   6833   6834      9     0.00   0.62760   3 ;    H6R-   C16-   C15-   H5R
  6831   6830   6833   6835      9     0.00   0.62760   3 ;    H6R-   C16-   C15-   H5S
  6831   6830   6833   6836      9     0.00   0.66944   3 ;    H6R-   C16-   C15-   C14
  6832   6830   6833   6834      9     0.00   0.62760   3 ;    H6S-   C16-   C15-   H5R
  6832   6830   6833   6835      9     0.00   0.62760   3 ;    H6S-   C16-   C15-   H5S
  6832   6830   6833   6836      9     0.00   0.66944   3 ;    H6S-   C16-   C15-   C14
  6833   6836   6839   6840      9     0.00   0.66944   3 ;    C15-   C14-   C13-   H3R
  6833   6836   6839   6841      9     0.00   0.66944   3 ;    C15-   C14-   C13-   H3S
  6833   6836   6839   6842      9     0.00   0.41840   1 ;    C15-   C14-   C13-   C12
  6833   6836   6839   6842      9     0.00   0.41840   2 ;    C15-   C14-   C13-   C12
  6833   6836   6839   6842      9     0.00   0.41840   4 ;    C15-   C14-   C13-   C12
  6833   6836   6839   6842      9     0.00   0.41840   5 ;    C15-   C14-   C13-   C12
  6833   6836   6839   6842      9     0.00   1.25520   3 ;    C15-   C14-   C13-   C12
  6834   6833   6836   6837      9     0.00   0.62760   3 ;    H5R-   C15-   C14-   H4R
  6834   6833   6836   6838      9     0.00   0.62760   3 ;    H5R-   C15-   C14-   H4S
  6834   6833   6836   6839      9     0.00   0.66944   3 ;    H5R-   C15-   C14-   C13
  6835   6833   6836   6837      9     0.00   0.62760   3 ;    H5S-   C15-   C14-   H4R
  6835   6833   6836   6838      9     0.00   0.62760   3 ;    H5S-   C15-   C14-   H4S
  6835   6833   6836   6839      9     0.00   0.66944   3 ;    H5S-   C15-   C14-   C13
  6836   6839   6842   6843      9     0.00   0.66944   3 ;    C14-   C13-   C12-   H2R
  6836   6839   6842   6844      9     0.00   0.66944   3 ;    C14-   C13-   C12-   H2S
  6837   6836   6839   6840      9     0.00   0.62760   3 ;    H4R-   C14-   C13-   H3R
  6837   6836   6839   6841      9     0.00   0.62760   3 ;    H4R-   C14-   C13-   H3S
  6837   6836   6839   6842      9     0.00   0.66944   3 ;    H4R-   C14-   C13-   C12
  6838   6836   6839   6840      9     0.00   0.62760   3 ;    H4S-   C14-   C13-   H3R
  6838   6836   6839   6841      9     0.00   0.62760   3 ;    H4S-   C14-   C13-   H3S
  6838   6836   6839   6842      9     0.00   0.66944   3 ;    H4S-   C14-   C13-   C12
  6840   6839   6842   6843      9     0.00   0.62760   3 ;    H3R-   C13-   C12-   H2R
  6840   6839   6842   6844      9     0.00   0.62760   3 ;    H3R-   C13-   C12-   H2S
  6841   6839   6842   6843      9     0.00   0.62760   3 ;    H3S-   C13-   C12-   H2R
  6841   6839   6842   6844      9     0.00   0.62760   3 ;    H3S-   C13-   C12-   H2S
  6845   6846   6849   6850      9     0.00   0.62760   3 ;   H14T-  C114-  C113-  H13R
  6845   6846   6849   6851      9     0.00   0.62760   3 ;   H14T-  C114-  C113-  H13S
  6845   6846   6849   6852      9     0.00   0.66944   3 ;   H14T-  C114-  C113-  C112
  6846   6849   6852   6853      9     0.00   0.66944   3 ;   C114-  C113-  C112-  H12R
  6846   6849   6852   6854      9     0.00   0.66944   3 ;   C114-  C113-  C112-  H12S
  6846   6849   6852   6855      9     0.00   0.41840   1 ;   C114-  C113-  C112-  C111
  6846   6849   6852   6855      9     0.00   0.41840   2 ;   C114-  C113-  C112-  C111
  6846   6849   6852   6855      9     0.00   0.41840   4 ;   C114-  C113-  C112-  C111
  6846   6849   6852   6855      9     0.00   0.41840   5 ;   C114-  C113-  C112-  C111
  6846   6849   6852   6855      9     0.00   1.25520   3 ;   C114-  C113-  C112-  C111
  6847   6846   6849   6850      9     0.00   0.62760   3 ;   H14R-  C114-  C113-  H13R
  6847   6846   6849   6851      9     0.00   0.62760   3 ;   H14R-  C114-  C113-  H13S
  6847   6846   6849   6852      9     0.00   0.66944   3 ;   H14R-  C114-  C113-  C112
  6848   6846   6849   6850      9     0.00   0.62760   3 ;   H14S-  C114-  C113-  H13R
  6848   6846   6849   6851      9     0.00   0.62760   3 ;   H14S-  C114-  C113-  H13S
  6848   6846   6849   6852      9     0.00   0.66944   3 ;   H14S-  C114-  C113-  C112
  6849   6852   6855   6856      9     0.00   0.66944   3 ;   C113-  C112-  C111-  H11R
  6849   6852   6855   6857      9     0.00   0.66944   3 ;   C113-  C112-  C111-  H11S
  6849   6852   6855   6858      9     0.00   0.41840   1 ;   C113-  C112-  C111-  C110
  6849   6852   6855   6858      9     0.00   0.41840   2 ;   C113-  C112-  C111-  C110
  6849   6852   6855   6858      9     0.00   0.41840   4 ;   C113-  C112-  C111-  C110
  6849   6852   6855   6858      9     0.00   0.41840   5 ;   C113-  C112-  C111-  C110
  6849   6852   6855   6858      9     0.00   1.25520   3 ;   C113-  C112-  C111-  C110
  6850   6849   6852   6853      9     0.00   0.62760   3 ;   H13R-  C113-  C112-  H12R
  6850   6849   6852   6854      9     0.00   0.62760   3 ;   H13R-  C113-  C112-  H12S
  6850   6849   6852   6855      9     0.00   0.66944   3 ;   H13R-  C113-  C112-  C111
  6851   6849   6852   6853      9     0.00   0.62760   3 ;   H13S-  C113-  C112-  H12R
  6851   6849   6852   6854      9     0.00   0.62760   3 ;   H13S-  C113-  C112-  H12S
  6851   6849   6852   6855      9     0.00   0.66944   3 ;   H13S-  C113-  C112-  C111
  6852   6855   6858   6859      9     0.00   0.66944   3 ;   C112-  C111-  C110-  H10R
  6852   6855   6858   6860      9     0.00   0.66944   3 ;   C112-  C111-  C110-  H10S
  6852   6855   6858   6861      9     0.00   0.41840   1 ;   C112-  C111-  C110-   C19
  6852   6855   6858   6861      9     0.00   0.41840   2 ;   C112-  C111-  C110-   C19
  6852   6855   6858   6861      9     0.00   0.41840   4 ;   C112-  C111-  C110-   C19
  6852   6855   6858   6861      9     0.00   0.41840   5 ;   C112-  C111-  C110-   C19
  6852   6855   6858   6861      9     0.00   1.25520   3 ;   C112-  C111-  C110-   C19
  6853   6852   6855   6856      9     0.00   0.62760   3 ;   H12R-  C112-  C111-  H11R
  6853   6852   6855   6857      9     0.00   0.62760   3 ;   H12R-  C112-  C111-  H11S
  6853   6852   6855   6858      9     0.00   0.66944   3 ;   H12R-  C112-  C111-  C110
  6854   6852   6855   6856      9     0.00   0.62760   3 ;   H12S-  C112-  C111-  H11R
  6854   6852   6855   6857      9     0.00   0.62760   3 ;   H12S-  C112-  C111-  H11S
  6854   6852   6855   6858      9     0.00   0.66944   3 ;   H12S-  C112-  C111-  C110
  6855   6858   6861   6862      9     0.00   0.66944   3 ;   C111-  C110-   C19-   H9R
  6855   6858   6861   6863      9     0.00   0.66944   3 ;   C111-  C110-   C19-   H9S
  6855   6858   6861   6864      9     0.00   0.41840   1 ;   C111-  C110-   C19-   C18
  6855   6858   6861   6864      9     0.00   0.41840   2 ;   C111-  C110-   C19-   C18
  6855   6858   6861   6864      9     0.00   0.41840   4 ;   C111-  C110-   C19-   C18
  6855   6858   6861   6864      9     0.00   0.41840   5 ;   C111-  C110-   C19-   C18
  6855   6858   6861   6864      9     0.00   1.25520   3 ;   C111-  C110-   C19-   C18
  6856   6855   6858   6859      9     0.00   0.62760   3 ;   H11R-  C111-  C110-  H10R
  6856   6855   6858   6860      9     0.00   0.62760   3 ;   H11R-  C111-  C110-  H10S
  6856   6855   6858   6861      9     0.00   0.66944   3 ;   H11R-  C111-  C110-   C19
  6857   6855   6858   6859      9     0.00   0.62760   3 ;   H11S-  C111-  C110-  H10R
  6857   6855   6858   6860      9     0.00   0.62760   3 ;   H11S-  C111-  C110-  H10S
  6857   6855   6858   6861      9     0.00   0.66944   3 ;   H11S-  C111-  C110-   C19
  6858   6861   6864   6865      9     0.00   0.66944   3 ;   C110-   C19-   C18-   H8R
  6858   6861   6864   6866      9     0.00   0.66944   3 ;   C110-   C19-   C18-   H8S
  6858   6861   6864   6867      9     0.00   0.41840   1 ;   C110-   C19-   C18-   C17
  6858   6861   6864   6867      9     0.00   0.41840   2 ;   C110-   C19-   C18-   C17
  6858   6861   6864   6867      9     0.00   0.41840   4 ;   C110-   C19-   C18-   C17
  6858   6861   6864   6867      9     0.00   0.41840   5 ;   C110-   C19-   C18-   C17
  6858   6861   6864   6867      9     0.00   1.25520   3 ;   C110-   C19-   C18-   C17
  6859   6858   6861   6862      9     0.00   0.62760   3 ;   H10R-  C110-   C19-   H9R
  6859   6858   6861   6863      9     0.00   0.62760   3 ;   H10R-  C110-   C19-   H9S
  6859   6858   6861   6864      9     0.00   0.66944   3 ;   H10R-  C110-   C19-   C18
  6860   6858   6861   6862      9     0.00   0.62760   3 ;   H10S-  C110-   C19-   H9R
  6860   6858   6861   6863      9     0.00   0.62760   3 ;   H10S-  C110-   C19-   H9S
  6860   6858   6861   6864      9     0.00   0.66944   3 ;   H10S-  C110-   C19-   C18
  6861   6864   6867   6868      9     0.00   0.66944   3 ;    C19-   C18-   C17-   H7R
  6861   6864   6867   6869      9     0.00   0.66944   3 ;    C19-   C18-   C17-   H7S
  6861   6864   6867   6870      9     0.00   0.41840   1 ;    C19-   C18-   C17-   C16
  6861   6864   6867   6870      9     0.00   0.41840   2 ;    C19-   C18-   C17-   C16
  6861   6864   6867   6870      9     0.00   0.41840   4 ;    C19-   C18-   C17-   C16
  6861   6864   6867   6870      9     0.00   0.41840   5 ;    C19-   C18-   C17-   C16
  6861   6864   6867   6870      9     0.00   1.25520   3 ;    C19-   C18-   C17-   C16
  6862   6861   6864   6865      9     0.00   0.62760   3 ;    H9R-   C19-   C18-   H8R
  6862   6861   6864   6866      9     0.00   0.62760   3 ;    H9R-   C19-   C18-   H8S
  6862   6861   6864   6867      9     0.00   0.66944   3 ;    H9R-   C19-   C18-   C17
  6863   6861   6864   6865      9     0.00   0.62760   3 ;    H9S-   C19-   C18-   H8R
  6863   6861   6864   6866      9     0.00   0.62760   3 ;    H9S-   C19-   C18-   H8S
  6863   6861   6864   6867      9     0.00   0.66944   3 ;    H9S-   C19-   C18-   C17
  6864   6867   6870   6871      9     0.00   0.66944   3 ;    C18-   C17-   C16-   H6R
  6864   6867   6870   6872      9     0.00   0.66944   3 ;    C18-   C17-   C16-   H6S
  6864   6867   6870   6873      9     0.00   0.41840   1 ;    C18-   C17-   C16-   C15
  6864   6867   6870   6873      9     0.00   0.41840   2 ;    C18-   C17-   C16-   C15
  6864   6867   6870   6873      9     0.00   0.41840   4 ;    C18-   C17-   C16-   C15
  6864   6867   6870   6873      9     0.00   0.41840   5 ;    C18-   C17-   C16-   C15
  6864   6867   6870   6873      9     0.00   1.25520   3 ;    C18-   C17-   C16-   C15
  6865   6864   6867   6868      9     0.00   0.62760   3 ;    H8R-   C18-   C17-   H7R
  6865   6864   6867   6869      9     0.00   0.62760   3 ;    H8R-   C18-   C17-   H7S
  6865   6864   6867   6870      9     0.00   0.66944   3 ;    H8R-   C18-   C17-   C16
  6866   6864   6867   6868      9     0.00   0.62760   3 ;    H8S-   C18-   C17-   H7R
  6866   6864   6867   6869      9     0.00   0.62760   3 ;    H8S-   C18-   C17-   H7S
  6866   6864   6867   6870      9     0.00   0.66944   3 ;    H8S-   C18-   C17-   C16
  6867   6870   6873   6874      9     0.00   0.66944   3 ;    C17-   C16-   C15-   H5R
  6867   6870   6873   6875      9     0.00   0.66944   3 ;    C17-   C16-   C15-   H5S
  6867   6870   6873   6876      9     0.00   0.41840   1 ;    C17-   C16-   C15-   C14
  6867   6870   6873   6876      9     0.00   0.41840   2 ;    C17-   C16-   C15-   C14
  6867   6870   6873   6876      9     0.00   0.41840   4 ;    C17-   C16-   C15-   C14
  6867   6870   6873   6876      9     0.00   0.41840   5 ;    C17-   C16-   C15-   C14
  6867   6870   6873   6876      9     0.00   1.25520   3 ;    C17-   C16-   C15-   C14
  6868   6867   6870   6871      9     0.00   0.62760   3 ;    H7R-   C17-   C16-   H6R
  6868   6867   6870   6872      9     0.00   0.62760   3 ;    H7R-   C17-   C16-   H6S
  6868   6867   6870   6873      9     0.00   0.66944   3 ;    H7R-   C17-   C16-   C15
  6869   6867   6870   6871      9     0.00   0.62760   3 ;    H7S-   C17-   C16-   H6R
  6869   6867   6870   6872      9     0.00   0.62760   3 ;    H7S-   C17-   C16-   H6S
  6869   6867   6870   6873      9     0.00   0.66944   3 ;    H7S-   C17-   C16-   C15
  6870   6873   6876   6877      9     0.00   0.66944   3 ;    C16-   C15-   C14-   H4R
  6870   6873   6876   6878      9     0.00   0.66944   3 ;    C16-   C15-   C14-   H4S
  6870   6873   6876   6879      9     0.00   0.41840   1 ;    C16-   C15-   C14-   C13
  6870   6873   6876   6879      9     0.00   0.41840   2 ;    C16-   C15-   C14-   C13
  6870   6873   6876   6879      9     0.00   0.41840   4 ;    C16-   C15-   C14-   C13
  6870   6873   6876   6879      9     0.00   0.41840   5 ;    C16-   C15-   C14-   C13
  6870   6873   6876   6879      9     0.00   1.25520   3 ;    C16-   C15-   C14-   C13
  6871   6870   6873   6874      9     0.00   0.62760   3 ;    H6R-   C16-   C15-   H5R
  6871   6870   6873   6875      9     0.00   0.62760   3 ;    H6R-   C16-   C15-   H5S
  6871   6870   6873   6876      9     0.00   0.66944   3 ;    H6R-   C16-   C15-   C14
  6872   6870   6873   6874      9     0.00   0.62760   3 ;    H6S-   C16-   C15-   H5R
  6872   6870   6873   6875      9     0.00   0.62760   3 ;    H6S-   C16-   C15-   H5S
  6872   6870   6873   6876      9     0.00   0.66944   3 ;    H6S-   C16-   C15-   C14
  6873   6876   6879   6880      9     0.00   0.66944   3 ;    C15-   C14-   C13-   H3R
  6873   6876   6879   6881      9     0.00   0.66944   3 ;    C15-   C14-   C13-   H3S
  6873   6876   6879   6882      9     0.00   0.41840   1 ;    C15-   C14-   C13-   C12
  6873   6876   6879   6882      9     0.00   0.41840   2 ;    C15-   C14-   C13-   C12
  6873   6876   6879   6882      9     0.00   0.41840   4 ;    C15-   C14-   C13-   C12
  6873   6876   6879   6882      9     0.00   0.41840   5 ;    C15-   C14-   C13-   C12
  6873   6876   6879   6882      9     0.00   1.25520   3 ;    C15-   C14-   C13-   C12
  6874   6873   6876   6877      9     0.00   0.62760   3 ;    H5R-   C15-   C14-   H4R
  6874   6873   6876   6878      9     0.00   0.62760   3 ;    H5R-   C15-   C14-   H4S
  6874   6873   6876   6879      9     0.00   0.66944   3 ;    H5R-   C15-   C14-   C13
  6875   6873   6876   6877      9     0.00   0.62760   3 ;    H5S-   C15-   C14-   H4R
  6875   6873   6876   6878      9     0.00   0.62760   3 ;    H5S-   C15-   C14-   H4S
  6875   6873   6876   6879      9     0.00   0.66944   3 ;    H5S-   C15-   C14-   C13
  6876   6879   6882   6883      9     0.00   0.66944   3 ;    C14-   C13-   C12-   H2R
  6876   6879   6882   6884      9     0.00   0.66944   3 ;    C14-   C13-   C12-   H2S
  6876   6879   6882   6885      9     0.00   0.65270   3 ;    C14-   C13-   C12-   C11
  6877   6876   6879   6880      9     0.00   0.62760   3 ;    H4R-   C14-   C13-   H3R
  6877   6876   6879   6881      9     0.00   0.62760   3 ;    H4R-   C14-   C13-   H3S
  6877   6876   6879   6882      9     0.00   0.66944   3 ;    H4R-   C14-   C13-   C12
  6878   6876   6879   6880      9     0.00   0.62760   3 ;    H4S-   C14-   C13-   H3R
  6878   6876   6879   6881      9     0.00   0.62760   3 ;    H4S-   C14-   C13-   H3S
  6878   6876   6879   6882      9     0.00   0.66944   3 ;    H4S-   C14-   C13-   C12
  6879   6882   6885   6886      9   180.00   0.00000   2 ;    C13-   C12-   C11-   O12
  6879   6882   6885   6887      9   180.00   0.00000   2 ;    C13-   C12-   C11-   O11
  6880   6879   6882   6883      9     0.00   0.62760   3 ;    H3R-   C13-   C12-   H2R
  6880   6879   6882   6884      9     0.00   0.62760   3 ;    H3R-   C13-   C12-   H2S
  6880   6879   6882   6885      9     0.00   0.65270   3 ;    H3R-   C13-   C12-   C11
  6881   6879   6882   6883      9     0.00   0.62760   3 ;    H3S-   C13-   C12-   H2R
  6881   6879   6882   6884      9     0.00   0.62760   3 ;    H3S-   C13-   C12-   H2S
  6881   6879   6882   6885      9     0.00   0.65270   3 ;    H3S-   C13-   C12-   C11
  6882   6885   6887   6888      9   180.00  11.29680   2 ;    C12-   C11-   O11-    C1
  6883   6882   6885   6886      9     0.00   3.34720   1 ;    H2R-   C12-   C11-   O12
  6883   6882   6885   6886      9   180.00   0.33472   3 ;    H2R-   C12-   C11-   O12
  6883   6882   6885   6887      9   180.00   0.00000   2 ;    H2R-   C12-   C11-   O11
  6884   6882   6885   6886      9     0.00   3.34720   1 ;    H2S-   C12-   C11-   O12
  6884   6882   6885   6886      9   180.00   0.33472   3 ;    H2S-   C12-   C11-   O12
  6884   6882   6885   6887      9   180.00   0.00000   2 ;    H2S-   C12-   C11-   O11
  6885   6887   6888   6889      9     0.00   1.60247   3 ;    C11-   O11-    C1-    HR
  6885   6887   6888   6890      9     0.00   1.60247   3 ;    C11-   O11-    C1-    HS
  6885   6887   6888   6891      9     0.00  -0.41840   1 ;    C11-   O11-    C1-    C2
  6886   6885   6887   6888      9   180.00   5.85760   1 ;    O12-   C11-   O11-    C1
  6886   6885   6887   6888      9   180.00  11.29680   2 ;    O12-   C11-   O11-    C1
  6887   6888   6891   6892      9     0.00   0.00000   0 ;    O11-    C1-    C2-    HX
  6887   6888   6891   6892      9     0.00   1.04600   1 ;    O11-    C1-    C2-    HX
  6887   6888   6891   6893      9     0.00   0.00000   0 ;    O11-    C1-    C2-    C3
  6887   6888   6891   6893      9     0.00   0.00000   0 ;    O11-    C1-    C2-    C3
  6887   6888   6891   6893      9     0.00   0.00000   0 ;    O11-    C1-    C2-    C3
  6887   6888   6891   6893      9     0.00   0.00000   0 ;    O11-    C1-    C2-    C3
  6887   6888   6891   6893      9     0.00   0.00000   0 ;    O11-    C1-    C2-    C3
  6887   6888   6891   6920      9     0.00   1.25520   2 ;    O11-    C1-    C2-   O21
  6887   6888   6891   6920      9     0.00   4.18400   3 ;    O11-    C1-    C2-   O21
  6887   6888   6891   6920      9   180.00  -0.41840   1 ;    O11-    C1-    C2-   O21
  6888   6891   6893   6894      9     0.00   0.65270   3 ;     C1-    C2-    C3-    HA
  6888   6891   6893   6895      9     0.00   0.65270   3 ;     C1-    C2-    C3-    HB
  6888   6891   6893   6896      9   180.00   3.34720   1 ;     C1-    C2-    C3-   O31
  6888   6891   6920   6921      9     0.00  -0.41840   1 ;     C1-    C2-   O21-   C21
  6889   6888   6891   6892      9     0.00   0.65270   3 ;     HR-    C1-    C2-    HX
  6889   6888   6891   6893      9     0.00   0.65270   3 ;     HR-    C1-    C2-    C3
  6889   6888   6891   6920      9     0.00   0.00000   0 ;     HR-    C1-    C2-   O21
  6889   6888   6891   6920      9     0.00   1.04600   1 ;     HR-    C1-    C2-   O21
  6890   6888   6891   6892      9     0.00   0.65270   3 ;     HS-    C1-    C2-    HX
  6890   6888   6891   6893      9     0.00   0.65270   3 ;     HS-    C1-    C2-    C3
  6890   6888   6891   6920      9     0.00   0.00000   0 ;     HS-    C1-    C2-   O21
  6890   6888   6891   6920      9     0.00   1.04600   1 ;     HS-    C1-    C2-   O21
  6891   6893   6896   6897      9     0.00   0.00000   0 ;     C2-    C3-   O31-   P31
  6891   6893   6896   6897      9   180.00  -3.34720   2 ;     C2-    C3-   O31-   P31
  6891   6920   6921   6922      9   180.00   5.85760   1 ;     C2-   O21-   C21-   O22
  6891   6920   6921   6922      9   180.00  11.29680   2 ;     C2-   O21-   C21-   O22
  6891   6920   6921   6960      9   180.00  11.29680   2 ;     C2-   O21-   C21-   C12
  6892   6891   6893   6894      9     0.00   0.65270   3 ;     HX-    C2-    C3-    HA
  6892   6891   6893   6895      9     0.00   0.65270   3 ;     HX-    C2-    C3-    HB
  6892   6891   6893   6896      9     0.00   0.00000   0 ;     HX-    C2-    C3-   O31
  6892   6891   6893   6896      9     0.00   1.04600   1 ;     HX-    C2-    C3-   O31
  6892   6891   6920   6921      9     0.00   1.60247   3 ;     HX-    C2-   O21-   C21
  6893   6891   6920   6921      9     0.00  -0.41840   1 ;     C3-    C2-   O21-   C21
  6893   6896   6897   6898      9     0.00   2.51040   3 ;     C3-   O31-   P31-   O32
  6893   6896   6897   6898      9     0.00   9.62320   2 ;     C3-   O31-   P31-   O32
  6893   6896   6897   6918      9     0.00   0.00000   0 ;     C3-   O31-   P31-   O33
  6893   6896   6897   6918      9     0.00   0.00000   0 ;     C3-   O31-   P31-   O33
  6893   6896   6897   6918      9     0.00   0.00000   0 ;     C3-   O31-   P31-   O33
  6893   6896   6897   6918      9     0.00   0.00000   0 ;     C3-   O31-   P31-   O33
  6893   6896   6897   6918      9     0.00   0.83680   2 ;     C3-   O31-   P31-   O33
  6893   6896   6897   6919      9     0.00   0.00000   0 ;     C3-   O31-   P31-   O34
  6893   6896   6897   6919      9     0.00   0.00000   0 ;     C3-   O31-   P31-   O34
  6893   6896   6897   6919      9     0.00   0.00000   0 ;     C3-   O31-   P31-   O34
  6893   6896   6897   6919      9     0.00   0.00000   0 ;     C3-   O31-   P31-   O34
  6893   6896   6897   6919      9     0.00   0.83680   2 ;     C3-   O31-   P31-   O34
  6894   6893   6891   6920      9     0.00   0.00000   0 ;     HA-    C3-    C2-   O21
  6894   6893   6891   6920      9     0.00   1.04600   1 ;     HA-    C3-    C2-   O21
  6894   6893   6896   6897      9     0.00   0.00000   0 ;     HA-    C3-   O31-   P31
  6894   6893   6896   6897      9     0.00   0.00000   0 ;     HA-    C3-   O31-   P31
  6894   6893   6896   6897      9     0.00   0.00000   0 ;     HA-    C3-   O31-   P31
  6894   6893   6896   6897      9     0.00   0.00000   0 ;     HA-    C3-   O31-   P31
  6894   6893   6896   6897      9     0.00   1.60247   3 ;     HA-    C3-   O31-   P31
  6895   6893   6891   6920      9     0.00   0.00000   0 ;     HB-    C3-    C2-   O21
  6895   6893   6891   6920      9     0.00   1.04600   1 ;     HB-    C3-    C2-   O21
  6895   6893   6896   6897      9     0.00   0.00000   0 ;     HB-    C3-   O31-   P31
  6895   6893   6896   6897      9     0.00   0.00000   0 ;     HB-    C3-   O31-   P31
  6895   6893   6896   6897      9     0.00   0.00000   0 ;     HB-    C3-   O31-   P31
  6895   6893   6896   6897      9     0.00   0.00000   0 ;     HB-    C3-   O31-   P31
  6895   6893   6896   6897      9     0.00   1.60247   3 ;     HB-    C3-   O31-   P31
  6896   6893   6891   6920      9     0.00   0.00000   0 ;    O31-    C3-    C2-   O21
  6896   6893   6891   6920      9     0.00   0.00000   0 ;    O31-    C3-    C2-   O21
  6896   6893   6891   6920      9     0.00   0.00000   0 ;    O31-    C3-    C2-   O21
  6896   6893   6891   6920      9     0.00   0.00000   0 ;    O31-    C3-    C2-   O21
  6896   6893   6891   6920      9     0.00   0.00000   0 ;    O31-    C3-    C2-   O21
  6896   6897   6898   6899      9     0.00   2.51040   3 ;    O31-   P31-   O32-   C31
  6896   6897   6898   6899      9     0.00   9.62320   2 ;    O31-   P31-   O32-   C31
  6897   6898   6899   6900      9     0.00   0.00000   0 ;    P31-   O32-   C31-   H1A
  6897   6898   6899   6900      9     0.00   0.00000   0 ;    P31-   O32-   C31-   H1A
  6897   6898   6899   6900      9     0.00   0.00000   0 ;    P31-   O32-   C31-   H1A
  6897   6898   6899   6900      9     0.00   0.00000   0 ;    P31-   O32-   C31-   H1A
  6897   6898   6899   6900      9     0.00   1.60247   3 ;    P31-   O32-   C31-   H1A
  6897   6898   6899   6901      9     0.00   0.00000   0 ;    P31-   O32-   C31-   H1B
  6897   6898   6899   6901      9     0.00   0.00000   0 ;    P31-   O32-   C31-   H1B
  6897   6898   6899   6901      9     0.00   0.00000   0 ;    P31-   O32-   C31-   H1B
  6897   6898   6899   6901      9     0.00   0.00000   0 ;    P31-   O32-   C31-   H1B
  6897   6898   6899   6901      9     0.00   1.60247   3 ;    P31-   O32-   C31-   H1B
  6897   6898   6899   6902      9     0.00   0.00000   0 ;    P31-   O32-   C31-   C32
  6897   6898   6899   6902      9   180.00  -3.34720   2 ;    P31-   O32-   C31-   C32
  6898   6899   6902   6903      9     0.00   0.65270   3 ;    O32-   C31-   C32-   H2A
  6898   6899   6902   6904      9     0.00   0.65270   3 ;    O32-   C31-   C32-   H2B
  6898   6899   6902   6905      9     0.00   4.18400   3 ;    O32-   C31-   C32-   N31
  6899   6898   6897   6918      9     0.00   0.00000   0 ;    C31-   O32-   P31-   O33
  6899   6898   6897   6918      9     0.00   0.00000   0 ;    C31-   O32-   P31-   O33
  6899   6898   6897   6918      9     0.00   0.00000   0 ;    C31-   O32-   P31-   O33
  6899   6898   6897   6918      9     0.00   0.00000   0 ;    C31-   O32-   P31-   O33
  6899   6898   6897   6918      9     0.00   0.83680   2 ;    C31-   O32-   P31-   O33
  6899   6898   6897   6919      9     0.00   0.00000   0 ;    C31-   O32-   P31-   O34
  6899   6898   6897   6919      9     0.00   0.00000   0 ;    C31-   O32-   P31-   O34
  6899   6898   6897   6919      9     0.00   0.00000   0 ;    C31-   O32-   P31-   O34
  6899   6898   6897   6919      9     0.00   0.00000   0 ;    C31-   O32-   P31-   O34
  6899   6898   6897   6919      9     0.00   0.83680   2 ;    C31-   O32-   P31-   O34
  6899   6902   6905   6906      9     0.00   0.65270   3 ;    C31-   C32-   N31-   C33
  6899   6902   6905   6910      9     0.00   0.65270   3 ;    C31-   C32-   N31-   C34
  6899   6902   6905   6914      9     0.00   0.65270   3 ;    C31-   C32-   N31-   C35
  6900   6899   6902   6903      9     0.00   0.65270   3 ;    H1A-   C31-   C32-   H2A
  6900   6899   6902   6904      9     0.00   0.65270   3 ;    H1A-   C31-   C32-   H2B
  6900   6899   6902   6905      9     0.00   0.65270   3 ;    H1A-   C31-   C32-   N31
  6901   6899   6902   6903      9     0.00   0.65270   3 ;    H1B-   C31-   C32-   H2A
  6901   6899   6902   6904      9     0.00   0.65270   3 ;    H1B-   C31-   C32-   H2B
  6901   6899   6902   6905      9     0.00   0.65270   3 ;    H1B-   C31-   C32-   N31
  6902   6905   6906   6907      9     0.00   0.65270   3 ;    C32-   N31-   C33-   H3A
  6902   6905   6906   6908      9     0.00   0.65270   3 ;    C32-   N31-   C33-   H3B
  6902   6905   6906   6909      9     0.00   0.65270   3 ;    C32-   N31-   C33-   H3C
  6902   6905   6910   6911      9     0.00   0.65270   3 ;    C32-   N31-   C34-   H4A
  6902   6905   6910   6912      9     0.00   0.65270   3 ;    C32-   N31-   C34-   H4B
  6902   6905   6910   6913      9     0.00   0.65270   3 ;    C32-   N31-   C34-   H4C
  6902   6905   6914   6915      9     0.00   0.65270   3 ;    C32-   N31-   C35-   H5A
  6902   6905   6914   6916      9     0.00   0.65270   3 ;    C32-   N31-   C35-   H5B
  6902   6905   6914   6917      9     0.00   0.65270   3 ;    C32-   N31-   C35-   H5C
  6903   6902   6905   6906      9     0.00   0.65270   3 ;    H2A-   C32-   N31-   C33
  6903   6902   6905   6910      9     0.00   0.65270   3 ;    H2A-   C32-   N31-   C34
  6903   6902   6905   6914      9     0.00   0.65270   3 ;    H2A-   C32-   N31-   C35
  6904   6902   6905   6906      9     0.00   0.65270   3 ;    H2B-   C32-   N31-   C33
  6904   6902   6905   6910      9     0.00   0.65270   3 ;    H2B-   C32-   N31-   C34
  6904   6902   6905   6914      9     0.00   0.65270   3 ;    H2B-   C32-   N31-   C35
  6906   6905   6910   6911      9     0.00   0.65270   3 ;    C33-   N31-   C34-   H4A
  6906   6905   6910   6912      9     0.00   0.65270   3 ;    C33-   N31-   C34-   H4B
  6906   6905   6910   6913      9     0.00   0.65270   3 ;    C33-   N31-   C34-   H4C
  6906   6905   6914   6915      9     0.00   0.65270   3 ;    C33-   N31-   C35-   H5A
  6906   6905   6914   6916      9     0.00   0.65270   3 ;    C33-   N31-   C35-   H5B
  6906   6905   6914   6917      9     0.00   0.65270   3 ;    C33-   N31-   C35-   H5C
  6907   6906   6905   6910      9     0.00   0.65270   3 ;    H3A-   C33-   N31-   C34
  6907   6906   6905   6914      9     0.00   0.65270   3 ;    H3A-   C33-   N31-   C35
  6908   6906   6905   6910      9     0.00   0.65270   3 ;    H3B-   C33-   N31-   C34
  6908   6906   6905   6914      9     0.00   0.65270   3 ;    H3B-   C33-   N31-   C35
  6909   6906   6905   6910      9     0.00   0.65270   3 ;    H3C-   C33-   N31-   C34
  6909   6906   6905   6914      9     0.00   0.65270   3 ;    H3C-   C33-   N31-   C35
  6910   6905   6914   6915      9     0.00   0.65270   3 ;    C34-   N31-   C35-   H5A
  6910   6905   6914   6916      9     0.00   0.65270   3 ;    C34-   N31-   C35-   H5B
  6910   6905   6914   6917      9     0.00   0.65270   3 ;    C34-   N31-   C35-   H5C
  6911   6910   6905   6914      9     0.00   0.65270   3 ;    H4A-   C34-   N31-   C35
  6912   6910   6905   6914      9     0.00   0.65270   3 ;    H4B-   C34-   N31-   C35
  6913   6910   6905   6914      9     0.00   0.65270   3 ;    H4C-   C34-   N31-   C35
  6920   6921   6960   6957      9   180.00   0.00000   2 ;    O21-   C21-   C12-   C13
  6920   6921   6960   6961      9   180.00   0.00000   2 ;    O21-   C21-   C12-   H2R
  6920   6921   6960   6962      9   180.00   0.00000   2 ;    O21-   C21-   C12-   H2S
  6921   6960   6957   6954      9     0.00   0.65270   3 ;    C21-   C12-   C13-   C14
  6921   6960   6957   6958      9     0.00   0.65270   3 ;    C21-   C12-   C13-   H3R
  6921   6960   6957   6959      9     0.00   0.65270   3 ;    C21-   C12-   C13-   H3S
  6922   6921   6960   6957      9   180.00   0.00000   2 ;    O22-   C21-   C12-   C13
  6922   6921   6960   6961      9     0.00   3.34720   1 ;    O22-   C21-   C12-   H2R
  6922   6921   6960   6961      9   180.00   0.33472   3 ;    O22-   C21-   C12-   H2R
  6922   6921   6960   6962      9     0.00   3.34720   1 ;    O22-   C21-   C12-   H2S
  6922   6921   6960   6962      9   180.00   0.33472   3 ;    O22-   C21-   C12-   H2S
  6923   6924   6927   6928      9     0.00   0.62760   3 ;   H14T-  C114-  C113-  H13R
  6923   6924   6927   6929      9     0.00   0.62760   3 ;   H14T-  C114-  C113-  H13S
  6923   6924   6927   6930      9     0.00   0.66944   3 ;   H14T-  C114-  C113-  C112
  6924   6927   6930   6931      9     0.00   0.66944   3 ;   C114-  C113-  C112-  H12R
  6924   6927   6930   6932      9     0.00   0.66944   3 ;   C114-  C113-  C112-  H12S
  6924   6927   6930   6933      9     0.00   0.41840   1 ;   C114-  C113-  C112-  C111
  6924   6927   6930   6933      9     0.00   0.41840   2 ;   C114-  C113-  C112-  C111
  6924   6927   6930   6933      9     0.00   0.41840   4 ;   C114-  C113-  C112-  C111
  6924   6927   6930   6933      9     0.00   0.41840   5 ;   C114-  C113-  C112-  C111
  6924   6927   6930   6933      9     0.00   1.25520   3 ;   C114-  C113-  C112-  C111
  6925   6924   6927   6928      9     0.00   0.62760   3 ;   H14R-  C114-  C113-  H13R
  6925   6924   6927   6929      9     0.00   0.62760   3 ;   H14R-  C114-  C113-  H13S
  6925   6924   6927   6930      9     0.00   0.66944   3 ;   H14R-  C114-  C113-  C112
  6926   6924   6927   6928      9     0.00   0.62760   3 ;   H14S-  C114-  C113-  H13R
  6926   6924   6927   6929      9     0.00   0.62760   3 ;   H14S-  C114-  C113-  H13S
  6926   6924   6927   6930      9     0.00   0.66944   3 ;   H14S-  C114-  C113-  C112
  6927   6930   6933   6934      9     0.00   0.66944   3 ;   C113-  C112-  C111-  H11R
  6927   6930   6933   6935      9     0.00   0.66944   3 ;   C113-  C112-  C111-  H11S
  6927   6930   6933   6936      9     0.00   0.41840   1 ;   C113-  C112-  C111-  C110
  6927   6930   6933   6936      9     0.00   0.41840   2 ;   C113-  C112-  C111-  C110
  6927   6930   6933   6936      9     0.00   0.41840   4 ;   C113-  C112-  C111-  C110
  6927   6930   6933   6936      9     0.00   0.41840   5 ;   C113-  C112-  C111-  C110
  6927   6930   6933   6936      9     0.00   1.25520   3 ;   C113-  C112-  C111-  C110
  6928   6927   6930   6931      9     0.00   0.62760   3 ;   H13R-  C113-  C112-  H12R
  6928   6927   6930   6932      9     0.00   0.62760   3 ;   H13R-  C113-  C112-  H12S
  6928   6927   6930   6933      9     0.00   0.66944   3 ;   H13R-  C113-  C112-  C111
  6929   6927   6930   6931      9     0.00   0.62760   3 ;   H13S-  C113-  C112-  H12R
  6929   6927   6930   6932      9     0.00   0.62760   3 ;   H13S-  C113-  C112-  H12S
  6929   6927   6930   6933      9     0.00   0.66944   3 ;   H13S-  C113-  C112-  C111
  6930   6933   6936   6937      9     0.00   0.66944   3 ;   C112-  C111-  C110-  H10R
  6930   6933   6936   6938      9     0.00   0.66944   3 ;   C112-  C111-  C110-  H10S
  6930   6933   6936   6939      9     0.00   0.41840   1 ;   C112-  C111-  C110-   C19
  6930   6933   6936   6939      9     0.00   0.41840   2 ;   C112-  C111-  C110-   C19
  6930   6933   6936   6939      9     0.00   0.41840   4 ;   C112-  C111-  C110-   C19
  6930   6933   6936   6939      9     0.00   0.41840   5 ;   C112-  C111-  C110-   C19
  6930   6933   6936   6939      9     0.00   1.25520   3 ;   C112-  C111-  C110-   C19
  6931   6930   6933   6934      9     0.00   0.62760   3 ;   H12R-  C112-  C111-  H11R
  6931   6930   6933   6935      9     0.00   0.62760   3 ;   H12R-  C112-  C111-  H11S
  6931   6930   6933   6936      9     0.00   0.66944   3 ;   H12R-  C112-  C111-  C110
  6932   6930   6933   6934      9     0.00   0.62760   3 ;   H12S-  C112-  C111-  H11R
  6932   6930   6933   6935      9     0.00   0.62760   3 ;   H12S-  C112-  C111-  H11S
  6932   6930   6933   6936      9     0.00   0.66944   3 ;   H12S-  C112-  C111-  C110
  6933   6936   6939   6940      9     0.00   0.66944   3 ;   C111-  C110-   C19-   H9R
  6933   6936   6939   6941      9     0.00   0.66944   3 ;   C111-  C110-   C19-   H9S
  6933   6936   6939   6942      9     0.00   0.41840   1 ;   C111-  C110-   C19-   C18
  6933   6936   6939   6942      9     0.00   0.41840   2 ;   C111-  C110-   C19-   C18
  6933   6936   6939   6942      9     0.00   0.41840   4 ;   C111-  C110-   C19-   C18
  6933   6936   6939   6942      9     0.00   0.41840   5 ;   C111-  C110-   C19-   C18
  6933   6936   6939   6942      9     0.00   1.25520   3 ;   C111-  C110-   C19-   C18
  6934   6933   6936   6937      9     0.00   0.62760   3 ;   H11R-  C111-  C110-  H10R
  6934   6933   6936   6938      9     0.00   0.62760   3 ;   H11R-  C111-  C110-  H10S
  6934   6933   6936   6939      9     0.00   0.66944   3 ;   H11R-  C111-  C110-   C19
  6935   6933   6936   6937      9     0.00   0.62760   3 ;   H11S-  C111-  C110-  H10R
  6935   6933   6936   6938      9     0.00   0.62760   3 ;   H11S-  C111-  C110-  H10S
  6935   6933   6936   6939      9     0.00   0.66944   3 ;   H11S-  C111-  C110-   C19
  6936   6939   6942   6943      9     0.00   0.66944   3 ;   C110-   C19-   C18-   H8R
  6936   6939   6942   6944      9     0.00   0.66944   3 ;   C110-   C19-   C18-   H8S
  6936   6939   6942   6945      9     0.00   0.41840   1 ;   C110-   C19-   C18-   C17
  6936   6939   6942   6945      9     0.00   0.41840   2 ;   C110-   C19-   C18-   C17
  6936   6939   6942   6945      9     0.00   0.41840   4 ;   C110-   C19-   C18-   C17
  6936   6939   6942   6945      9     0.00   0.41840   5 ;   C110-   C19-   C18-   C17
  6936   6939   6942   6945      9     0.00   1.25520   3 ;   C110-   C19-   C18-   C17
  6937   6936   6939   6940      9     0.00   0.62760   3 ;   H10R-  C110-   C19-   H9R
  6937   6936   6939   6941      9     0.00   0.62760   3 ;   H10R-  C110-   C19-   H9S
  6937   6936   6939   6942      9     0.00   0.66944   3 ;   H10R-  C110-   C19-   C18
  6938   6936   6939   6940      9     0.00   0.62760   3 ;   H10S-  C110-   C19-   H9R
  6938   6936   6939   6941      9     0.00   0.62760   3 ;   H10S-  C110-   C19-   H9S
  6938   6936   6939   6942      9     0.00   0.66944   3 ;   H10S-  C110-   C19-   C18
  6939   6942   6945   6946      9     0.00   0.66944   3 ;    C19-   C18-   C17-   H7R
  6939   6942   6945   6947      9     0.00   0.66944   3 ;    C19-   C18-   C17-   H7S
  6939   6942   6945   6948      9     0.00   0.41840   1 ;    C19-   C18-   C17-   C16
  6939   6942   6945   6948      9     0.00   0.41840   2 ;    C19-   C18-   C17-   C16
  6939   6942   6945   6948      9     0.00   0.41840   4 ;    C19-   C18-   C17-   C16
  6939   6942   6945   6948      9     0.00   0.41840   5 ;    C19-   C18-   C17-   C16
  6939   6942   6945   6948      9     0.00   1.25520   3 ;    C19-   C18-   C17-   C16
  6940   6939   6942   6943      9     0.00   0.62760   3 ;    H9R-   C19-   C18-   H8R
  6940   6939   6942   6944      9     0.00   0.62760   3 ;    H9R-   C19-   C18-   H8S
  6940   6939   6942   6945      9     0.00   0.66944   3 ;    H9R-   C19-   C18-   C17
  6941   6939   6942   6943      9     0.00   0.62760   3 ;    H9S-   C19-   C18-   H8R
  6941   6939   6942   6944      9     0.00   0.62760   3 ;    H9S-   C19-   C18-   H8S
  6941   6939   6942   6945      9     0.00   0.66944   3 ;    H9S-   C19-   C18-   C17
  6942   6945   6948   6949      9     0.00   0.66944   3 ;    C18-   C17-   C16-   H6R
  6942   6945   6948   6950      9     0.00   0.66944   3 ;    C18-   C17-   C16-   H6S
  6942   6945   6948   6951      9     0.00   0.41840   1 ;    C18-   C17-   C16-   C15
  6942   6945   6948   6951      9     0.00   0.41840   2 ;    C18-   C17-   C16-   C15
  6942   6945   6948   6951      9     0.00   0.41840   4 ;    C18-   C17-   C16-   C15
  6942   6945   6948   6951      9     0.00   0.41840   5 ;    C18-   C17-   C16-   C15
  6942   6945   6948   6951      9     0.00   1.25520   3 ;    C18-   C17-   C16-   C15
  6943   6942   6945   6946      9     0.00   0.62760   3 ;    H8R-   C18-   C17-   H7R
  6943   6942   6945   6947      9     0.00   0.62760   3 ;    H8R-   C18-   C17-   H7S
  6943   6942   6945   6948      9     0.00   0.66944   3 ;    H8R-   C18-   C17-   C16
  6944   6942   6945   6946      9     0.00   0.62760   3 ;    H8S-   C18-   C17-   H7R
  6944   6942   6945   6947      9     0.00   0.62760   3 ;    H8S-   C18-   C17-   H7S
  6944   6942   6945   6948      9     0.00   0.66944   3 ;    H8S-   C18-   C17-   C16
  6945   6948   6951   6952      9     0.00   0.66944   3 ;    C17-   C16-   C15-   H5R
  6945   6948   6951   6953      9     0.00   0.66944   3 ;    C17-   C16-   C15-   H5S
  6945   6948   6951   6954      9     0.00   0.41840   1 ;    C17-   C16-   C15-   C14
  6945   6948   6951   6954      9     0.00   0.41840   2 ;    C17-   C16-   C15-   C14
  6945   6948   6951   6954      9     0.00   0.41840   4 ;    C17-   C16-   C15-   C14
  6945   6948   6951   6954      9     0.00   0.41840   5 ;    C17-   C16-   C15-   C14
  6945   6948   6951   6954      9     0.00   1.25520   3 ;    C17-   C16-   C15-   C14
  6946   6945   6948   6949      9     0.00   0.62760   3 ;    H7R-   C17-   C16-   H6R
  6946   6945   6948   6950      9     0.00   0.62760   3 ;    H7R-   C17-   C16-   H6S
  6946   6945   6948   6951      9     0.00   0.66944   3 ;    H7R-   C17-   C16-   C15
  6947   6945   6948   6949      9     0.00   0.62760   3 ;    H7S-   C17-   C16-   H6R
  6947   6945   6948   6950      9     0.00   0.62760   3 ;    H7S-   C17-   C16-   H6S
  6947   6945   6948   6951      9     0.00   0.66944   3 ;    H7S-   C17-   C16-   C15
  6948   6951   6954   6955      9     0.00   0.66944   3 ;    C16-   C15-   C14-   H4R
  6948   6951   6954   6956      9     0.00   0.66944   3 ;    C16-   C15-   C14-   H4S
  6948   6951   6954   6957      9     0.00   0.41840   1 ;    C16-   C15-   C14-   C13
  6948   6951   6954   6957      9     0.00   0.41840   2 ;    C16-   C15-   C14-   C13
  6948   6951   6954   6957      9     0.00   0.41840   4 ;    C16-   C15-   C14-   C13
  6948   6951   6954   6957      9     0.00   0.41840   5 ;    C16-   C15-   C14-   C13
  6948   6951   6954   6957      9     0.00   1.25520   3 ;    C16-   C15-   C14-   C13
  6949   6948   6951   6952      9     0.00   0.62760   3 ;    H6R-   C16-   C15-   H5R
  6949   6948   6951   6953      9     0.00   0.62760   3 ;    H6R-   C16-   C15-   H5S
  6949   6948   6951   6954      9     0.00   0.66944   3 ;    H6R-   C16-   C15-   C14
  6950   6948   6951   6952      9     0.00   0.62760   3 ;    H6S-   C16-   C15-   H5R
  6950   6948   6951   6953      9     0.00   0.62760   3 ;    H6S-   C16-   C15-   H5S
  6950   6948   6951   6954      9     0.00   0.66944   3 ;    H6S-   C16-   C15-   C14
  6951   6954   6957   6958      9     0.00   0.66944   3 ;    C15-   C14-   C13-   H3R
  6951   6954   6957   6959      9     0.00   0.66944   3 ;    C15-   C14-   C13-   H3S
  6951   6954   6957   6960      9     0.00   0.41840   1 ;    C15-   C14-   C13-   C12
  6951   6954   6957   6960      9     0.00   0.41840   2 ;    C15-   C14-   C13-   C12
  6951   6954   6957   6960      9     0.00   0.41840   4 ;    C15-   C14-   C13-   C12
  6951   6954   6957   6960      9     0.00   0.41840   5 ;    C15-   C14-   C13-   C12
  6951   6954   6957   6960      9     0.00   1.25520   3 ;    C15-   C14-   C13-   C12
  6952   6951   6954   6955      9     0.00   0.62760   3 ;    H5R-   C15-   C14-   H4R
  6952   6951   6954   6956      9     0.00   0.62760   3 ;    H5R-   C15-   C14-   H4S
  6952   6951   6954   6957      9     0.00   0.66944   3 ;    H5R-   C15-   C14-   C13
  6953   6951   6954   6955      9     0.00   0.62760   3 ;    H5S-   C15-   C14-   H4R
  6953   6951   6954   6956      9     0.00   0.62760   3 ;    H5S-   C15-   C14-   H4S
  6953   6951   6954   6957      9     0.00   0.66944   3 ;    H5S-   C15-   C14-   C13
  6954   6957   6960   6961      9     0.00   0.66944   3 ;    C14-   C13-   C12-   H2R
  6954   6957   6960   6962      9     0.00   0.66944   3 ;    C14-   C13-   C12-   H2S
  6955   6954   6957   6958      9     0.00   0.62760   3 ;    H4R-   C14-   C13-   H3R
  6955   6954   6957   6959      9     0.00   0.62760   3 ;    H4R-   C14-   C13-   H3S
  6955   6954   6957   6960      9     0.00   0.66944   3 ;    H4R-   C14-   C13-   C12
  6956   6954   6957   6958      9     0.00   0.62760   3 ;    H4S-   C14-   C13-   H3R
  6956   6954   6957   6959      9     0.00   0.62760   3 ;    H4S-   C14-   C13-   H3S
  6956   6954   6957   6960      9     0.00   0.66944   3 ;    H4S-   C14-   C13-   C12
  6958   6957   6960   6961      9     0.00   0.62760   3 ;    H3R-   C13-   C12-   H2R
  6958   6957   6960   6962      9     0.00   0.62760   3 ;    H3R-   C13-   C12-   H2S
  6959   6957   6960   6961      9     0.00   0.62760   3 ;    H3S-   C13-   C12-   H2R
  6959   6957   6960   6962      9     0.00   0.62760   3 ;    H3S-   C13-   C12-   H2S
  6963   6964   6967   6968      9     0.00   0.62760   3 ;   H14T-  C114-  C113-  H13R
  6963   6964   6967   6969      9     0.00   0.62760   3 ;   H14T-  C114-  C113-  H13S
  6963   6964   6967   6970      9     0.00   0.66944   3 ;   H14T-  C114-  C113-  C112
  6964   6967   6970   6971      9     0.00   0.66944   3 ;   C114-  C113-  C112-  H12R
  6964   6967   6970   6972      9     0.00   0.66944   3 ;   C114-  C113-  C112-  H12S
  6964   6967   6970   6973      9     0.00   0.41840   1 ;   C114-  C113-  C112-  C111
  6964   6967   6970   6973      9     0.00   0.41840   2 ;   C114-  C113-  C112-  C111
  6964   6967   6970   6973      9     0.00   0.41840   4 ;   C114-  C113-  C112-  C111
  6964   6967   6970   6973      9     0.00   0.41840   5 ;   C114-  C113-  C112-  C111
  6964   6967   6970   6973      9     0.00   1.25520   3 ;   C114-  C113-  C112-  C111
  6965   6964   6967   6968      9     0.00   0.62760   3 ;   H14R-  C114-  C113-  H13R
  6965   6964   6967   6969      9     0.00   0.62760   3 ;   H14R-  C114-  C113-  H13S
  6965   6964   6967   6970      9     0.00   0.66944   3 ;   H14R-  C114-  C113-  C112
  6966   6964   6967   6968      9     0.00   0.62760   3 ;   H14S-  C114-  C113-  H13R
  6966   6964   6967   6969      9     0.00   0.62760   3 ;   H14S-  C114-  C113-  H13S
  6966   6964   6967   6970      9     0.00   0.66944   3 ;   H14S-  C114-  C113-  C112
  6967   6970   6973   6974      9     0.00   0.66944   3 ;   C113-  C112-  C111-  H11R
  6967   6970   6973   6975      9     0.00   0.66944   3 ;   C113-  C112-  C111-  H11S
  6967   6970   6973   6976      9     0.00   0.41840   1 ;   C113-  C112-  C111-  C110
  6967   6970   6973   6976      9     0.00   0.41840   2 ;   C113-  C112-  C111-  C110
  6967   6970   6973   6976      9     0.00   0.41840   4 ;   C113-  C112-  C111-  C110
  6967   6970   6973   6976      9     0.00   0.41840   5 ;   C113-  C112-  C111-  C110
  6967   6970   6973   6976      9     0.00   1.25520   3 ;   C113-  C112-  C111-  C110
  6968   6967   6970   6971      9     0.00   0.62760   3 ;   H13R-  C113-  C112-  H12R
  6968   6967   6970   6972      9     0.00   0.62760   3 ;   H13R-  C113-  C112-  H12S
  6968   6967   6970   6973      9     0.00   0.66944   3 ;   H13R-  C113-  C112-  C111
  6969   6967   6970   6971      9     0.00   0.62760   3 ;   H13S-  C113-  C112-  H12R
  6969   6967   6970   6972      9     0.00   0.62760   3 ;   H13S-  C113-  C112-  H12S
  6969   6967   6970   6973      9     0.00   0.66944   3 ;   H13S-  C113-  C112-  C111
  6970   6973   6976   6977      9     0.00   0.66944   3 ;   C112-  C111-  C110-  H10R
  6970   6973   6976   6978      9     0.00   0.66944   3 ;   C112-  C111-  C110-  H10S
  6970   6973   6976   6979      9     0.00   0.41840   1 ;   C112-  C111-  C110-   C19
  6970   6973   6976   6979      9     0.00   0.41840   2 ;   C112-  C111-  C110-   C19
  6970   6973   6976   6979      9     0.00   0.41840   4 ;   C112-  C111-  C110-   C19
  6970   6973   6976   6979      9     0.00   0.41840   5 ;   C112-  C111-  C110-   C19
  6970   6973   6976   6979      9     0.00   1.25520   3 ;   C112-  C111-  C110-   C19
  6971   6970   6973   6974      9     0.00   0.62760   3 ;   H12R-  C112-  C111-  H11R
  6971   6970   6973   6975      9     0.00   0.62760   3 ;   H12R-  C112-  C111-  H11S
  6971   6970   6973   6976      9     0.00   0.66944   3 ;   H12R-  C112-  C111-  C110
  6972   6970   6973   6974      9     0.00   0.62760   3 ;   H12S-  C112-  C111-  H11R
  6972   6970   6973   6975      9     0.00   0.62760   3 ;   H12S-  C112-  C111-  H11S
  6972   6970   6973   6976      9     0.00   0.66944   3 ;   H12S-  C112-  C111-  C110
  6973   6976   6979   6980      9     0.00   0.66944   3 ;   C111-  C110-   C19-   H9R
  6973   6976   6979   6981      9     0.00   0.66944   3 ;   C111-  C110-   C19-   H9S
  6973   6976   6979   6982      9     0.00   0.41840   1 ;   C111-  C110-   C19-   C18
  6973   6976   6979   6982      9     0.00   0.41840   2 ;   C111-  C110-   C19-   C18
  6973   6976   6979   6982      9     0.00   0.41840   4 ;   C111-  C110-   C19-   C18
  6973   6976   6979   6982      9     0.00   0.41840   5 ;   C111-  C110-   C19-   C18
  6973   6976   6979   6982      9     0.00   1.25520   3 ;   C111-  C110-   C19-   C18
  6974   6973   6976   6977      9     0.00   0.62760   3 ;   H11R-  C111-  C110-  H10R
  6974   6973   6976   6978      9     0.00   0.62760   3 ;   H11R-  C111-  C110-  H10S
  6974   6973   6976   6979      9     0.00   0.66944   3 ;   H11R-  C111-  C110-   C19
  6975   6973   6976   6977      9     0.00   0.62760   3 ;   H11S-  C111-  C110-  H10R
  6975   6973   6976   6978      9     0.00   0.62760   3 ;   H11S-  C111-  C110-  H10S
  6975   6973   6976   6979      9     0.00   0.66944   3 ;   H11S-  C111-  C110-   C19
  6976   6979   6982   6983      9     0.00   0.66944   3 ;   C110-   C19-   C18-   H8R
  6976   6979   6982   6984      9     0.00   0.66944   3 ;   C110-   C19-   C18-   H8S
  6976   6979   6982   6985      9     0.00   0.41840   1 ;   C110-   C19-   C18-   C17
  6976   6979   6982   6985      9     0.00   0.41840   2 ;   C110-   C19-   C18-   C17
  6976   6979   6982   6985      9     0.00   0.41840   4 ;   C110-   C19-   C18-   C17
  6976   6979   6982   6985      9     0.00   0.41840   5 ;   C110-   C19-   C18-   C17
  6976   6979   6982   6985      9     0.00   1.25520   3 ;   C110-   C19-   C18-   C17
  6977   6976   6979   6980      9     0.00   0.62760   3 ;   H10R-  C110-   C19-   H9R
  6977   6976   6979   6981      9     0.00   0.62760   3 ;   H10R-  C110-   C19-   H9S
  6977   6976   6979   6982      9     0.00   0.66944   3 ;   H10R-  C110-   C19-   C18
  6978   6976   6979   6980      9     0.00   0.62760   3 ;   H10S-  C110-   C19-   H9R
  6978   6976   6979   6981      9     0.00   0.62760   3 ;   H10S-  C110-   C19-   H9S
  6978   6976   6979   6982      9     0.00   0.66944   3 ;   H10S-  C110-   C19-   C18
  6979   6982   6985   6986      9     0.00   0.66944   3 ;    C19-   C18-   C17-   H7R
  6979   6982   6985   6987      9     0.00   0.66944   3 ;    C19-   C18-   C17-   H7S
  6979   6982   6985   6988      9     0.00   0.41840   1 ;    C19-   C18-   C17-   C16
  6979   6982   6985   6988      9     0.00   0.41840   2 ;    C19-   C18-   C17-   C16
  6979   6982   6985   6988      9     0.00   0.41840   4 ;    C19-   C18-   C17-   C16
  6979   6982   6985   6988      9     0.00   0.41840   5 ;    C19-   C18-   C17-   C16
  6979   6982   6985   6988      9     0.00   1.25520   3 ;    C19-   C18-   C17-   C16
  6980   6979   6982   6983      9     0.00   0.62760   3 ;    H9R-   C19-   C18-   H8R
  6980   6979   6982   6984      9     0.00   0.62760   3 ;    H9R-   C19-   C18-   H8S
  6980   6979   6982   6985      9     0.00   0.66944   3 ;    H9R-   C19-   C18-   C17
  6981   6979   6982   6983      9     0.00   0.62760   3 ;    H9S-   C19-   C18-   H8R
  6981   6979   6982   6984      9     0.00   0.62760   3 ;    H9S-   C19-   C18-   H8S
  6981   6979   6982   6985      9     0.00   0.66944   3 ;    H9S-   C19-   C18-   C17
  6982   6985   6988   6989      9     0.00   0.66944   3 ;    C18-   C17-   C16-   H6R
  6982   6985   6988   6990      9     0.00   0.66944   3 ;    C18-   C17-   C16-   H6S
  6982   6985   6988   6991      9     0.00   0.41840   1 ;    C18-   C17-   C16-   C15
  6982   6985   6988   6991      9     0.00   0.41840   2 ;    C18-   C17-   C16-   C15
  6982   6985   6988   6991      9     0.00   0.41840   4 ;    C18-   C17-   C16-   C15
  6982   6985   6988   6991      9     0.00   0.41840   5 ;    C18-   C17-   C16-   C15
  6982   6985   6988   6991      9     0.00   1.25520   3 ;    C18-   C17-   C16-   C15
  6983   6982   6985   6986      9     0.00   0.62760   3 ;    H8R-   C18-   C17-   H7R
  6983   6982   6985   6987      9     0.00   0.62760   3 ;    H8R-   C18-   C17-   H7S
  6983   6982   6985   6988      9     0.00   0.66944   3 ;    H8R-   C18-   C17-   C16
  6984   6982   6985   6986      9     0.00   0.62760   3 ;    H8S-   C18-   C17-   H7R
  6984   6982   6985   6987      9     0.00   0.62760   3 ;    H8S-   C18-   C17-   H7S
  6984   6982   6985   6988      9     0.00   0.66944   3 ;    H8S-   C18-   C17-   C16
  6985   6988   6991   6992      9     0.00   0.66944   3 ;    C17-   C16-   C15-   H5R
  6985   6988   6991   6993      9     0.00   0.66944   3 ;    C17-   C16-   C15-   H5S
  6985   6988   6991   6994      9     0.00   0.41840   1 ;    C17-   C16-   C15-   C14
  6985   6988   6991   6994      9     0.00   0.41840   2 ;    C17-   C16-   C15-   C14
  6985   6988   6991   6994      9     0.00   0.41840   4 ;    C17-   C16-   C15-   C14
  6985   6988   6991   6994      9     0.00   0.41840   5 ;    C17-   C16-   C15-   C14
  6985   6988   6991   6994      9     0.00   1.25520   3 ;    C17-   C16-   C15-   C14
  6986   6985   6988   6989      9     0.00   0.62760   3 ;    H7R-   C17-   C16-   H6R
  6986   6985   6988   6990      9     0.00   0.62760   3 ;    H7R-   C17-   C16-   H6S
  6986   6985   6988   6991      9     0.00   0.66944   3 ;    H7R-   C17-   C16-   C15
  6987   6985   6988   6989      9     0.00   0.62760   3 ;    H7S-   C17-   C16-   H6R
  6987   6985   6988   6990      9     0.00   0.62760   3 ;    H7S-   C17-   C16-   H6S
  6987   6985   6988   6991      9     0.00   0.66944   3 ;    H7S-   C17-   C16-   C15
  6988   6991   6994   6995      9     0.00   0.66944   3 ;    C16-   C15-   C14-   H4R
  6988   6991   6994   6996      9     0.00   0.66944   3 ;    C16-   C15-   C14-   H4S
  6988   6991   6994   6997      9     0.00   0.41840   1 ;    C16-   C15-   C14-   C13
  6988   6991   6994   6997      9     0.00   0.41840   2 ;    C16-   C15-   C14-   C13
  6988   6991   6994   6997      9     0.00   0.41840   4 ;    C16-   C15-   C14-   C13
  6988   6991   6994   6997      9     0.00   0.41840   5 ;    C16-   C15-   C14-   C13
  6988   6991   6994   6997      9     0.00   1.25520   3 ;    C16-   C15-   C14-   C13
  6989   6988   6991   6992      9     0.00   0.62760   3 ;    H6R-   C16-   C15-   H5R
  6989   6988   6991   6993      9     0.00   0.62760   3 ;    H6R-   C16-   C15-   H5S
  6989   6988   6991   6994      9     0.00   0.66944   3 ;    H6R-   C16-   C15-   C14
  6990   6988   6991   6992      9     0.00   0.62760   3 ;    H6S-   C16-   C15-   H5R
  6990   6988   6991   6993      9     0.00   0.62760   3 ;    H6S-   C16-   C15-   H5S
  6990   6988   6991   6994      9     0.00   0.66944   3 ;    H6S-   C16-   C15-   C14
  6991   6994   6997   6998      9     0.00   0.66944   3 ;    C15-   C14-   C13-   H3R
  6991   6994   6997   6999      9     0.00   0.66944   3 ;    C15-   C14-   C13-   H3S
  6991   6994   6997   7000      9     0.00   0.41840   1 ;    C15-   C14-   C13-   C12
  6991   6994   6997   7000      9     0.00   0.41840   2 ;    C15-   C14-   C13-   C12
  6991   6994   6997   7000      9     0.00   0.41840   4 ;    C15-   C14-   C13-   C12
  6991   6994   6997   7000      9     0.00   0.41840   5 ;    C15-   C14-   C13-   C12
  6991   6994   6997   7000      9     0.00   1.25520   3 ;    C15-   C14-   C13-   C12
  6992   6991   6994   6995      9     0.00   0.62760   3 ;    H5R-   C15-   C14-   H4R
  6992   6991   6994   6996      9     0.00   0.62760   3 ;    H5R-   C15-   C14-   H4S
  6992   6991   6994   6997      9     0.00   0.66944   3 ;    H5R-   C15-   C14-   C13
  6993   6991   6994   6995      9     0.00   0.62760   3 ;    H5S-   C15-   C14-   H4R
  6993   6991   6994   6996      9     0.00   0.62760   3 ;    H5S-   C15-   C14-   H4S
  6993   6991   6994   6997      9     0.00   0.66944   3 ;    H5S-   C15-   C14-   C13
  6994   6997   7000   7001      9     0.00   0.66944   3 ;    C14-   C13-   C12-   H2R
  6994   6997   7000   7002      9     0.00   0.66944   3 ;    C14-   C13-   C12-   H2S
  6994   6997   7000   7003      9     0.00   0.65270   3 ;    C14-   C13-   C12-   C11
  6995   6994   6997   6998      9     0.00   0.62760   3 ;    H4R-   C14-   C13-   H3R
  6995   6994   6997   6999      9     0.00   0.62760   3 ;    H4R-   C14-   C13-   H3S
  6995   6994   6997   7000      9     0.00   0.66944   3 ;    H4R-   C14-   C13-   C12
  6996   6994   6997   6998      9     0.00   0.62760   3 ;    H4S-   C14-   C13-   H3R
  6996   6994   6997   6999      9     0.00   0.62760   3 ;    H4S-   C14-   C13-   H3S
  6996   6994   6997   7000      9     0.00   0.66944   3 ;    H4S-   C14-   C13-   C12
  6997   7000   7003   7004      9   180.00   0.00000   2 ;    C13-   C12-   C11-   O12
  6997   7000   7003   7005      9   180.00   0.00000   2 ;    C13-   C12-   C11-   O11
  6998   6997   7000   7001      9     0.00   0.62760   3 ;    H3R-   C13-   C12-   H2R
  6998   6997   7000   7002      9     0.00   0.62760   3 ;    H3R-   C13-   C12-   H2S
  6998   6997   7000   7003      9     0.00   0.65270   3 ;    H3R-   C13-   C12-   C11
  6999   6997   7000   7001      9     0.00   0.62760   3 ;    H3S-   C13-   C12-   H2R
  6999   6997   7000   7002      9     0.00   0.62760   3 ;    H3S-   C13-   C12-   H2S
  6999   6997   7000   7003      9     0.00   0.65270   3 ;    H3S-   C13-   C12-   C11
  7000   7003   7005   7006      9   180.00  11.29680   2 ;    C12-   C11-   O11-    C1
  7001   7000   7003   7004      9     0.00   3.34720   1 ;    H2R-   C12-   C11-   O12
  7001   7000   7003   7004      9   180.00   0.33472   3 ;    H2R-   C12-   C11-   O12
  7001   7000   7003   7005      9   180.00   0.00000   2 ;    H2R-   C12-   C11-   O11
  7002   7000   7003   7004      9     0.00   3.34720   1 ;    H2S-   C12-   C11-   O12
  7002   7000   7003   7004      9   180.00   0.33472   3 ;    H2S-   C12-   C11-   O12
  7002   7000   7003   7005      9   180.00   0.00000   2 ;    H2S-   C12-   C11-   O11
  7003   7005   7006   7007      9     0.00   1.60247   3 ;    C11-   O11-    C1-    HR
  7003   7005   7006   7008      9     0.00   1.60247   3 ;    C11-   O11-    C1-    HS
  7003   7005   7006   7009      9     0.00  -0.41840   1 ;    C11-   O11-    C1-    C2
  7004   7003   7005   7006      9   180.00   5.85760   1 ;    O12-   C11-   O11-    C1
  7004   7003   7005   7006      9   180.00  11.29680   2 ;    O12-   C11-   O11-    C1
  7005   7006   7009   7010      9     0.00   0.00000   0 ;    O11-    C1-    C2-    HX
  7005   7006   7009   7010      9     0.00   1.04600   1 ;    O11-    C1-    C2-    HX
  7005   7006   7009   7011      9     0.00   0.00000   0 ;    O11-    C1-    C2-    C3
  7005   7006   7009   7011      9     0.00   0.00000   0 ;    O11-    C1-    C2-    C3
  7005   7006   7009   7011      9     0.00   0.00000   0 ;    O11-    C1-    C2-    C3
  7005   7006   7009   7011      9     0.00   0.00000   0 ;    O11-    C1-    C2-    C3
  7005   7006   7009   7011      9     0.00   0.00000   0 ;    O11-    C1-    C2-    C3
  7005   7006   7009   7038      9     0.00   1.25520   2 ;    O11-    C1-    C2-   O21
  7005   7006   7009   7038      9     0.00   4.18400   3 ;    O11-    C1-    C2-   O21
  7005   7006   7009   7038      9   180.00  -0.41840   1 ;    O11-    C1-    C2-   O21
  7006   7009   7011   7012      9     0.00   0.65270   3 ;     C1-    C2-    C3-    HA
  7006   7009   7011   7013      9     0.00   0.65270   3 ;     C1-    C2-    C3-    HB
  7006   7009   7011   7014      9   180.00   3.34720   1 ;     C1-    C2-    C3-   O31
  7006   7009   7038   7039      9     0.00  -0.41840   1 ;     C1-    C2-   O21-   C21
  7007   7006   7009   7010      9     0.00   0.65270   3 ;     HR-    C1-    C2-    HX
  7007   7006   7009   7011      9     0.00   0.65270   3 ;     HR-    C1-    C2-    C3
  7007   7006   7009   7038      9     0.00   0.00000   0 ;     HR-    C1-    C2-   O21
  7007   7006   7009   7038      9     0.00   1.04600   1 ;     HR-    C1-    C2-   O21
  7008   7006   7009   7010      9     0.00   0.65270   3 ;     HS-    C1-    C2-    HX
  7008   7006   7009   7011      9     0.00   0.65270   3 ;     HS-    C1-    C2-    C3
  7008   7006   7009   7038      9     0.00   0.00000   0 ;     HS-    C1-    C2-   O21
  7008   7006   7009   7038      9     0.00   1.04600   1 ;     HS-    C1-    C2-   O21
  7009   7011   7014   7015      9     0.00   0.00000   0 ;     C2-    C3-   O31-   P31
  7009   7011   7014   7015      9   180.00  -3.34720   2 ;     C2-    C3-   O31-   P31
  7009   7038   7039   7040      9   180.00   5.85760   1 ;     C2-   O21-   C21-   O22
  7009   7038   7039   7040      9   180.00  11.29680   2 ;     C2-   O21-   C21-   O22
  7009   7038   7039   7078      9   180.00  11.29680   2 ;     C2-   O21-   C21-   C12
  7010   7009   7011   7012      9     0.00   0.65270   3 ;     HX-    C2-    C3-    HA
  7010   7009   7011   7013      9     0.00   0.65270   3 ;     HX-    C2-    C3-    HB
  7010   7009   7011   7014      9     0.00   0.00000   0 ;     HX-    C2-    C3-   O31
  7010   7009   7011   7014      9     0.00   1.04600   1 ;     HX-    C2-    C3-   O31
  7010   7009   7038   7039      9     0.00   1.60247   3 ;     HX-    C2-   O21-   C21
  7011   7009   7038   7039      9     0.00  -0.41840   1 ;     C3-    C2-   O21-   C21
  7011   7014   7015   7016      9     0.00   2.51040   3 ;     C3-   O31-   P31-   O32
  7011   7014   7015   7016      9     0.00   9.62320   2 ;     C3-   O31-   P31-   O32
  7011   7014   7015   7036      9     0.00   0.00000   0 ;     C3-   O31-   P31-   O33
  7011   7014   7015   7036      9     0.00   0.00000   0 ;     C3-   O31-   P31-   O33
  7011   7014   7015   7036      9     0.00   0.00000   0 ;     C3-   O31-   P31-   O33
  7011   7014   7015   7036      9     0.00   0.00000   0 ;     C3-   O31-   P31-   O33
  7011   7014   7015   7036      9     0.00   0.83680   2 ;     C3-   O31-   P31-   O33
  7011   7014   7015   7037      9     0.00   0.00000   0 ;     C3-   O31-   P31-   O34
  7011   7014   7015   7037      9     0.00   0.00000   0 ;     C3-   O31-   P31-   O34
  7011   7014   7015   7037      9     0.00   0.00000   0 ;     C3-   O31-   P31-   O34
  7011   7014   7015   7037      9     0.00   0.00000   0 ;     C3-   O31-   P31-   O34
  7011   7014   7015   7037      9     0.00   0.83680   2 ;     C3-   O31-   P31-   O34
  7012   7011   7009   7038      9     0.00   0.00000   0 ;     HA-    C3-    C2-   O21
  7012   7011   7009   7038      9     0.00   1.04600   1 ;     HA-    C3-    C2-   O21
  7012   7011   7014   7015      9     0.00   0.00000   0 ;     HA-    C3-   O31-   P31
  7012   7011   7014   7015      9     0.00   0.00000   0 ;     HA-    C3-   O31-   P31
  7012   7011   7014   7015      9     0.00   0.00000   0 ;     HA-    C3-   O31-   P31
  7012   7011   7014   7015      9     0.00   0.00000   0 ;     HA-    C3-   O31-   P31
  7012   7011   7014   7015      9     0.00   1.60247   3 ;     HA-    C3-   O31-   P31
  7013   7011   7009   7038      9     0.00   0.00000   0 ;     HB-    C3-    C2-   O21
  7013   7011   7009   7038      9     0.00   1.04600   1 ;     HB-    C3-    C2-   O21
  7013   7011   7014   7015      9     0.00   0.00000   0 ;     HB-    C3-   O31-   P31
  7013   7011   7014   7015      9     0.00   0.00000   0 ;     HB-    C3-   O31-   P31
  7013   7011   7014   7015      9     0.00   0.00000   0 ;     HB-    C3-   O31-   P31
  7013   7011   7014   7015      9     0.00   0.00000   0 ;     HB-    C3-   O31-   P31
  7013   7011   7014   7015      9     0.00   1.60247   3 ;     HB-    C3-   O31-   P31
  7014   7011   7009   7038      9     0.00   0.00000   0 ;    O31-    C3-    C2-   O21
  7014   7011   7009   7038      9     0.00   0.00000   0 ;    O31-    C3-    C2-   O21
  7014   7011   7009   7038      9     0.00   0.00000   0 ;    O31-    C3-    C2-   O21
  7014   7011   7009   7038      9     0.00   0.00000   0 ;    O31-    C3-    C2-   O21
  7014   7011   7009   7038      9     0.00   0.00000   0 ;    O31-    C3-    C2-   O21
  7014   7015   7016   7017      9     0.00   2.51040   3 ;    O31-   P31-   O32-   C31
  7014   7015   7016   7017      9     0.00   9.62320   2 ;    O31-   P31-   O32-   C31
  7015   7016   7017   7018      9     0.00   0.00000   0 ;    P31-   O32-   C31-   H1A
  7015   7016   7017   7018      9     0.00   0.00000   0 ;    P31-   O32-   C31-   H1A
  7015   7016   7017   7018      9     0.00   0.00000   0 ;    P31-   O32-   C31-   H1A
  7015   7016   7017   7018      9     0.00   0.00000   0 ;    P31-   O32-   C31-   H1A
  7015   7016   7017   7018      9     0.00   1.60247   3 ;    P31-   O32-   C31-   H1A
  7015   7016   7017   7019      9     0.00   0.00000   0 ;    P31-   O32-   C31-   H1B
  7015   7016   7017   7019      9     0.00   0.00000   0 ;    P31-   O32-   C31-   H1B
  7015   7016   7017   7019      9     0.00   0.00000   0 ;    P31-   O32-   C31-   H1B
  7015   7016   7017   7019      9     0.00   0.00000   0 ;    P31-   O32-   C31-   H1B
  7015   7016   7017   7019      9     0.00   1.60247   3 ;    P31-   O32-   C31-   H1B
  7015   7016   7017   7020      9     0.00   0.00000   0 ;    P31-   O32-   C31-   C32
  7015   7016   7017   7020      9   180.00  -3.34720   2 ;    P31-   O32-   C31-   C32
  7016   7017   7020   7021      9     0.00   0.65270   3 ;    O32-   C31-   C32-   H2A
  7016   7017   7020   7022      9     0.00   0.65270   3 ;    O32-   C31-   C32-   H2B
  7016   7017   7020   7023      9     0.00   4.18400   3 ;    O32-   C31-   C32-   N31
  7017   7016   7015   7036      9     0.00   0.00000   0 ;    C31-   O32-   P31-   O33
  7017   7016   7015   7036      9     0.00   0.00000   0 ;    C31-   O32-   P31-   O33
  7017   7016   7015   7036      9     0.00   0.00000   0 ;    C31-   O32-   P31-   O33
  7017   7016   7015   7036      9     0.00   0.00000   0 ;    C31-   O32-   P31-   O33
  7017   7016   7015   7036      9     0.00   0.83680   2 ;    C31-   O32-   P31-   O33
  7017   7016   7015   7037      9     0.00   0.00000   0 ;    C31-   O32-   P31-   O34
  7017   7016   7015   7037      9     0.00   0.00000   0 ;    C31-   O32-   P31-   O34
  7017   7016   7015   7037      9     0.00   0.00000   0 ;    C31-   O32-   P31-   O34
  7017   7016   7015   7037      9     0.00   0.00000   0 ;    C31-   O32-   P31-   O34
  7017   7016   7015   7037      9     0.00   0.83680   2 ;    C31-   O32-   P31-   O34
  7017   7020   7023   7024      9     0.00   0.65270   3 ;    C31-   C32-   N31-   C33
  7017   7020   7023   7028      9     0.00   0.65270   3 ;    C31-   C32-   N31-   C34
  7017   7020   7023   7032      9     0.00   0.65270   3 ;    C31-   C32-   N31-   C35
  7018   7017   7020   7021      9     0.00   0.65270   3 ;    H1A-   C31-   C32-   H2A
  7018   7017   7020   7022      9     0.00   0.65270   3 ;    H1A-   C31-   C32-   H2B
  7018   7017   7020   7023      9     0.00   0.65270   3 ;    H1A-   C31-   C32-   N31
  7019   7017   7020   7021      9     0.00   0.65270   3 ;    H1B-   C31-   C32-   H2A
  7019   7017   7020   7022      9     0.00   0.65270   3 ;    H1B-   C31-   C32-   H2B
  7019   7017   7020   7023      9     0.00   0.65270   3 ;    H1B-   C31-   C32-   N31
  7020   7023   7024   7025      9     0.00   0.65270   3 ;    C32-   N31-   C33-   H3A
  7020   7023   7024   7026      9     0.00   0.65270   3 ;    C32-   N31-   C33-   H3B
  7020   7023   7024   7027      9     0.00   0.65270   3 ;    C32-   N31-   C33-   H3C
  7020   7023   7028   7029      9     0.00   0.65270   3 ;    C32-   N31-   C34-   H4A
  7020   7023   7028   7030      9     0.00   0.65270   3 ;    C32-   N31-   C34-   H4B
  7020   7023   7028   7031      9     0.00   0.65270   3 ;    C32-   N31-   C34-   H4C
  7020   7023   7032   7033      9     0.00   0.65270   3 ;    C32-   N31-   C35-   H5A
  7020   7023   7032   7034      9     0.00   0.65270   3 ;    C32-   N31-   C35-   H5B
  7020   7023   7032   7035      9     0.00   0.65270   3 ;    C32-   N31-   C35-   H5C
  7021   7020   7023   7024      9     0.00   0.65270   3 ;    H2A-   C32-   N31-   C33
  7021   7020   7023   7028      9     0.00   0.65270   3 ;    H2A-   C32-   N31-   C34
  7021   7020   7023   7032      9     0.00   0.65270   3 ;    H2A-   C32-   N31-   C35
  7022   7020   7023   7024      9     0.00   0.65270   3 ;    H2B-   C32-   N31-   C33
  7022   7020   7023   7028      9     0.00   0.65270   3 ;    H2B-   C32-   N31-   C34
  7022   7020   7023   7032      9     0.00   0.65270   3 ;    H2B-   C32-   N31-   C35
  7024   7023   7028   7029      9     0.00   0.65270   3 ;    C33-   N31-   C34-   H4A
  7024   7023   7028   7030      9     0.00   0.65270   3 ;    C33-   N31-   C34-   H4B
  7024   7023   7028   7031      9     0.00   0.65270   3 ;    C33-   N31-   C34-   H4C
  7024   7023   7032   7033      9     0.00   0.65270   3 ;    C33-   N31-   C35-   H5A
  7024   7023   7032   7034      9     0.00   0.65270   3 ;    C33-   N31-   C35-   H5B
  7024   7023   7032   7035      9     0.00   0.65270   3 ;    C33-   N31-   C35-   H5C
  7025   7024   7023   7028      9     0.00   0.65270   3 ;    H3A-   C33-   N31-   C34
  7025   7024   7023   7032      9     0.00   0.65270   3 ;    H3A-   C33-   N31-   C35
  7026   7024   7023   7028      9     0.00   0.65270   3 ;    H3B-   C33-   N31-   C34
  7026   7024   7023   7032      9     0.00   0.65270   3 ;    H3B-   C33-   N31-   C35
  7027   7024   7023   7028      9     0.00   0.65270   3 ;    H3C-   C33-   N31-   C34
  7027   7024   7023   7032      9     0.00   0.65270   3 ;    H3C-   C33-   N31-   C35
  7028   7023   7032   7033      9     0.00   0.65270   3 ;    C34-   N31-   C35-   H5A
  7028   7023   7032   7034      9     0.00   0.65270   3 ;    C34-   N31-   C35-   H5B
  7028   7023   7032   7035      9     0.00   0.65270   3 ;    C34-   N31-   C35-   H5C
  7029   7028   7023   7032      9     0.00   0.65270   3 ;    H4A-   C34-   N31-   C35
  7030   7028   7023   7032      9     0.00   0.65270   3 ;    H4B-   C34-   N31-   C35
  7031   7028   7023   7032      9     0.00   0.65270   3 ;    H4C-   C34-   N31-   C35
  7038   7039   7078   7075      9   180.00   0.00000   2 ;    O21-   C21-   C12-   C13
  7038   7039   7078   7079      9   180.00   0.00000   2 ;    O21-   C21-   C12-   H2R
  7038   7039   7078   7080      9   180.00   0.00000   2 ;    O21-   C21-   C12-   H2S
  7039   7078   7075   7072      9     0.00   0.65270   3 ;    C21-   C12-   C13-   C14
  7039   7078   7075   7076      9     0.00   0.65270   3 ;    C21-   C12-   C13-   H3R
  7039   7078   7075   7077      9     0.00   0.65270   3 ;    C21-   C12-   C13-   H3S
  7040   7039   7078   7075      9   180.00   0.00000   2 ;    O22-   C21-   C12-   C13
  7040   7039   7078   7079      9     0.00   3.34720   1 ;    O22-   C21-   C12-   H2R
  7040   7039   7078   7079      9   180.00   0.33472   3 ;    O22-   C21-   C12-   H2R
  7040   7039   7078   7080      9     0.00   3.34720   1 ;    O22-   C21-   C12-   H2S
  7040   7039   7078   7080      9   180.00   0.33472   3 ;    O22-   C21-   C12-   H2S
  7041   7042   7045   7046      9     0.00   0.62760   3 ;   H14T-  C114-  C113-  H13R
  7041   7042   7045   7047      9     0.00   0.62760   3 ;   H14T-  C114-  C113-  H13S
  7041   7042   7045   7048      9     0.00   0.66944   3 ;   H14T-  C114-  C113-  C112
  7042   7045   7048   7049      9     0.00   0.66944   3 ;   C114-  C113-  C112-  H12R
  7042   7045   7048   7050      9     0.00   0.66944   3 ;   C114-  C113-  C112-  H12S
  7042   7045   7048   7051      9     0.00   0.41840   1 ;   C114-  C113-  C112-  C111
  7042   7045   7048   7051      9     0.00   0.41840   2 ;   C114-  C113-  C112-  C111
  7042   7045   7048   7051      9     0.00   0.41840   4 ;   C114-  C113-  C112-  C111
  7042   7045   7048   7051      9     0.00   0.41840   5 ;   C114-  C113-  C112-  C111
  7042   7045   7048   7051      9     0.00   1.25520   3 ;   C114-  C113-  C112-  C111
  7043   7042   7045   7046      9     0.00   0.62760   3 ;   H14R-  C114-  C113-  H13R
  7043   7042   7045   7047      9     0.00   0.62760   3 ;   H14R-  C114-  C113-  H13S
  7043   7042   7045   7048      9     0.00   0.66944   3 ;   H14R-  C114-  C113-  C112
  7044   7042   7045   7046      9     0.00   0.62760   3 ;   H14S-  C114-  C113-  H13R
  7044   7042   7045   7047      9     0.00   0.62760   3 ;   H14S-  C114-  C113-  H13S
  7044   7042   7045   7048      9     0.00   0.66944   3 ;   H14S-  C114-  C113-  C112
  7045   7048   7051   7052      9     0.00   0.66944   3 ;   C113-  C112-  C111-  H11R
  7045   7048   7051   7053      9     0.00   0.66944   3 ;   C113-  C112-  C111-  H11S
  7045   7048   7051   7054      9     0.00   0.41840   1 ;   C113-  C112-  C111-  C110
  7045   7048   7051   7054      9     0.00   0.41840   2 ;   C113-  C112-  C111-  C110
  7045   7048   7051   7054      9     0.00   0.41840   4 ;   C113-  C112-  C111-  C110
  7045   7048   7051   7054      9     0.00   0.41840   5 ;   C113-  C112-  C111-  C110
  7045   7048   7051   7054      9     0.00   1.25520   3 ;   C113-  C112-  C111-  C110
  7046   7045   7048   7049      9     0.00   0.62760   3 ;   H13R-  C113-  C112-  H12R
  7046   7045   7048   7050      9     0.00   0.62760   3 ;   H13R-  C113-  C112-  H12S
  7046   7045   7048   7051      9     0.00   0.66944   3 ;   H13R-  C113-  C112-  C111
  7047   7045   7048   7049      9     0.00   0.62760   3 ;   H13S-  C113-  C112-  H12R
  7047   7045   7048   7050      9     0.00   0.62760   3 ;   H13S-  C113-  C112-  H12S
  7047   7045   7048   7051      9     0.00   0.66944   3 ;   H13S-  C113-  C112-  C111
  7048   7051   7054   7055      9     0.00   0.66944   3 ;   C112-  C111-  C110-  H10R
  7048   7051   7054   7056      9     0.00   0.66944   3 ;   C112-  C111-  C110-  H10S
  7048   7051   7054   7057      9     0.00   0.41840   1 ;   C112-  C111-  C110-   C19
  7048   7051   7054   7057      9     0.00   0.41840   2 ;   C112-  C111-  C110-   C19
  7048   7051   7054   7057      9     0.00   0.41840   4 ;   C112-  C111-  C110-   C19
  7048   7051   7054   7057      9     0.00   0.41840   5 ;   C112-  C111-  C110-   C19
  7048   7051   7054   7057      9     0.00   1.25520   3 ;   C112-  C111-  C110-   C19
  7049   7048   7051   7052      9     0.00   0.62760   3 ;   H12R-  C112-  C111-  H11R
  7049   7048   7051   7053      9     0.00   0.62760   3 ;   H12R-  C112-  C111-  H11S
  7049   7048   7051   7054      9     0.00   0.66944   3 ;   H12R-  C112-  C111-  C110
  7050   7048   7051   7052      9     0.00   0.62760   3 ;   H12S-  C112-  C111-  H11R
  7050   7048   7051   7053      9     0.00   0.62760   3 ;   H12S-  C112-  C111-  H11S
  7050   7048   7051   7054      9     0.00   0.66944   3 ;   H12S-  C112-  C111-  C110
  7051   7054   7057   7058      9     0.00   0.66944   3 ;   C111-  C110-   C19-   H9R
  7051   7054   7057   7059      9     0.00   0.66944   3 ;   C111-  C110-   C19-   H9S
  7051   7054   7057   7060      9     0.00   0.41840   1 ;   C111-  C110-   C19-   C18
  7051   7054   7057   7060      9     0.00   0.41840   2 ;   C111-  C110-   C19-   C18
  7051   7054   7057   7060      9     0.00   0.41840   4 ;   C111-  C110-   C19-   C18
  7051   7054   7057   7060      9     0.00   0.41840   5 ;   C111-  C110-   C19-   C18
  7051   7054   7057   7060      9     0.00   1.25520   3 ;   C111-  C110-   C19-   C18
  7052   7051   7054   7055      9     0.00   0.62760   3 ;   H11R-  C111-  C110-  H10R
  7052   7051   7054   7056      9     0.00   0.62760   3 ;   H11R-  C111-  C110-  H10S
  7052   7051   7054   7057      9     0.00   0.66944   3 ;   H11R-  C111-  C110-   C19
  7053   7051   7054   7055      9     0.00   0.62760   3 ;   H11S-  C111-  C110-  H10R
  7053   7051   7054   7056      9     0.00   0.62760   3 ;   H11S-  C111-  C110-  H10S
  7053   7051   7054   7057      9     0.00   0.66944   3 ;   H11S-  C111-  C110-   C19
  7054   7057   7060   7061      9     0.00   0.66944   3 ;   C110-   C19-   C18-   H8R
  7054   7057   7060   7062      9     0.00   0.66944   3 ;   C110-   C19-   C18-   H8S
  7054   7057   7060   7063      9     0.00   0.41840   1 ;   C110-   C19-   C18-   C17
  7054   7057   7060   7063      9     0.00   0.41840   2 ;   C110-   C19-   C18-   C17
  7054   7057   7060   7063      9     0.00   0.41840   4 ;   C110-   C19-   C18-   C17
  7054   7057   7060   7063      9     0.00   0.41840   5 ;   C110-   C19-   C18-   C17
  7054   7057   7060   7063      9     0.00   1.25520   3 ;   C110-   C19-   C18-   C17
  7055   7054   7057   7058      9     0.00   0.62760   3 ;   H10R-  C110-   C19-   H9R
  7055   7054   7057   7059      9     0.00   0.62760   3 ;   H10R-  C110-   C19-   H9S
  7055   7054   7057   7060      9     0.00   0.66944   3 ;   H10R-  C110-   C19-   C18
  7056   7054   7057   7058      9     0.00   0.62760   3 ;   H10S-  C110-   C19-   H9R
  7056   7054   7057   7059      9     0.00   0.62760   3 ;   H10S-  C110-   C19-   H9S
  7056   7054   7057   7060      9     0.00   0.66944   3 ;   H10S-  C110-   C19-   C18
  7057   7060   7063   7064      9     0.00   0.66944   3 ;    C19-   C18-   C17-   H7R
  7057   7060   7063   7065      9     0.00   0.66944   3 ;    C19-   C18-   C17-   H7S
  7057   7060   7063   7066      9     0.00   0.41840   1 ;    C19-   C18-   C17-   C16
  7057   7060   7063   7066      9     0.00   0.41840   2 ;    C19-   C18-   C17-   C16
  7057   7060   7063   7066      9     0.00   0.41840   4 ;    C19-   C18-   C17-   C16
  7057   7060   7063   7066      9     0.00   0.41840   5 ;    C19-   C18-   C17-   C16
  7057   7060   7063   7066      9     0.00   1.25520   3 ;    C19-   C18-   C17-   C16
  7058   7057   7060   7061      9     0.00   0.62760   3 ;    H9R-   C19-   C18-   H8R
  7058   7057   7060   7062      9     0.00   0.62760   3 ;    H9R-   C19-   C18-   H8S
  7058   7057   7060   7063      9     0.00   0.66944   3 ;    H9R-   C19-   C18-   C17
  7059   7057   7060   7061      9     0.00   0.62760   3 ;    H9S-   C19-   C18-   H8R
  7059   7057   7060   7062      9     0.00   0.62760   3 ;    H9S-   C19-   C18-   H8S
  7059   7057   7060   7063      9     0.00   0.66944   3 ;    H9S-   C19-   C18-   C17
  7060   7063   7066   7067      9     0.00   0.66944   3 ;    C18-   C17-   C16-   H6R
  7060   7063   7066   7068      9     0.00   0.66944   3 ;    C18-   C17-   C16-   H6S
  7060   7063   7066   7069      9     0.00   0.41840   1 ;    C18-   C17-   C16-   C15
  7060   7063   7066   7069      9     0.00   0.41840   2 ;    C18-   C17-   C16-   C15
  7060   7063   7066   7069      9     0.00   0.41840   4 ;    C18-   C17-   C16-   C15
  7060   7063   7066   7069      9     0.00   0.41840   5 ;    C18-   C17-   C16-   C15
  7060   7063   7066   7069      9     0.00   1.25520   3 ;    C18-   C17-   C16-   C15
  7061   7060   7063   7064      9     0.00   0.62760   3 ;    H8R-   C18-   C17-   H7R
  7061   7060   7063   7065      9     0.00   0.62760   3 ;    H8R-   C18-   C17-   H7S
  7061   7060   7063   7066      9     0.00   0.66944   3 ;    H8R-   C18-   C17-   C16
  7062   7060   7063   7064      9     0.00   0.62760   3 ;    H8S-   C18-   C17-   H7R
  7062   7060   7063   7065      9     0.00   0.62760   3 ;    H8S-   C18-   C17-   H7S
  7062   7060   7063   7066      9     0.00   0.66944   3 ;    H8S-   C18-   C17-   C16
  7063   7066   7069   7070      9     0.00   0.66944   3 ;    C17-   C16-   C15-   H5R
  7063   7066   7069   7071      9     0.00   0.66944   3 ;    C17-   C16-   C15-   H5S
  7063   7066   7069   7072      9     0.00   0.41840   1 ;    C17-   C16-   C15-   C14
  7063   7066   7069   7072      9     0.00   0.41840   2 ;    C17-   C16-   C15-   C14
  7063   7066   7069   7072      9     0.00   0.41840   4 ;    C17-   C16-   C15-   C14
  7063   7066   7069   7072      9     0.00   0.41840   5 ;    C17-   C16-   C15-   C14
  7063   7066   7069   7072      9     0.00   1.25520   3 ;    C17-   C16-   C15-   C14
  7064   7063   7066   7067      9     0.00   0.62760   3 ;    H7R-   C17-   C16-   H6R
  7064   7063   7066   7068      9     0.00   0.62760   3 ;    H7R-   C17-   C16-   H6S
  7064   7063   7066   7069      9     0.00   0.66944   3 ;    H7R-   C17-   C16-   C15
  7065   7063   7066   7067      9     0.00   0.62760   3 ;    H7S-   C17-   C16-   H6R
  7065   7063   7066   7068      9     0.00   0.62760   3 ;    H7S-   C17-   C16-   H6S
  7065   7063   7066   7069      9     0.00   0.66944   3 ;    H7S-   C17-   C16-   C15
  7066   7069   7072   7073      9     0.00   0.66944   3 ;    C16-   C15-   C14-   H4R
  7066   7069   7072   7074      9     0.00   0.66944   3 ;    C16-   C15-   C14-   H4S
  7066   7069   7072   7075      9     0.00   0.41840   1 ;    C16-   C15-   C14-   C13
  7066   7069   7072   7075      9     0.00   0.41840   2 ;    C16-   C15-   C14-   C13
  7066   7069   7072   7075      9     0.00   0.41840   4 ;    C16-   C15-   C14-   C13
  7066   7069   7072   7075      9     0.00   0.41840   5 ;    C16-   C15-   C14-   C13
  7066   7069   7072   7075      9     0.00   1.25520   3 ;    C16-   C15-   C14-   C13
  7067   7066   7069   7070      9     0.00   0.62760   3 ;    H6R-   C16-   C15-   H5R
  7067   7066   7069   7071      9     0.00   0.62760   3 ;    H6R-   C16-   C15-   H5S
  7067   7066   7069   7072      9     0.00   0.66944   3 ;    H6R-   C16-   C15-   C14
  7068   7066   7069   7070      9     0.00   0.62760   3 ;    H6S-   C16-   C15-   H5R
  7068   7066   7069   7071      9     0.00   0.62760   3 ;    H6S-   C16-   C15-   H5S
  7068   7066   7069   7072      9     0.00   0.66944   3 ;    H6S-   C16-   C15-   C14
  7069   7072   7075   7076      9     0.00   0.66944   3 ;    C15-   C14-   C13-   H3R
  7069   7072   7075   7077      9     0.00   0.66944   3 ;    C15-   C14-   C13-   H3S
  7069   7072   7075   7078      9     0.00   0.41840   1 ;    C15-   C14-   C13-   C12
  7069   7072   7075   7078      9     0.00   0.41840   2 ;    C15-   C14-   C13-   C12
  7069   7072   7075   7078      9     0.00   0.41840   4 ;    C15-   C14-   C13-   C12
  7069   7072   7075   7078      9     0.00   0.41840   5 ;    C15-   C14-   C13-   C12
  7069   7072   7075   7078      9     0.00   1.25520   3 ;    C15-   C14-   C13-   C12
  7070   7069   7072   7073      9     0.00   0.62760   3 ;    H5R-   C15-   C14-   H4R
  7070   7069   7072   7074      9     0.00   0.62760   3 ;    H5R-   C15-   C14-   H4S
  7070   7069   7072   7075      9     0.00   0.66944   3 ;    H5R-   C15-   C14-   C13
  7071   7069   7072   7073      9     0.00   0.62760   3 ;    H5S-   C15-   C14-   H4R
  7071   7069   7072   7074      9     0.00   0.62760   3 ;    H5S-   C15-   C14-   H4S
  7071   7069   7072   7075      9     0.00   0.66944   3 ;    H5S-   C15-   C14-   C13
  7072   7075   7078   7079      9     0.00   0.66944   3 ;    C14-   C13-   C12-   H2R
  7072   7075   7078   7080      9     0.00   0.66944   3 ;    C14-   C13-   C12-   H2S
  7073   7072   7075   7076      9     0.00   0.62760   3 ;    H4R-   C14-   C13-   H3R
  7073   7072   7075   7077      9     0.00   0.62760   3 ;    H4R-   C14-   C13-   H3S
  7073   7072   7075   7078      9     0.00   0.66944   3 ;    H4R-   C14-   C13-   C12
  7074   7072   7075   7076      9     0.00   0.62760   3 ;    H4S-   C14-   C13-   H3R
  7074   7072   7075   7077      9     0.00   0.62760   3 ;    H4S-   C14-   C13-   H3S
  7074   7072   7075   7078      9     0.00   0.66944   3 ;    H4S-   C14-   C13-   C12
  7076   7075   7078   7079      9     0.00   0.62760   3 ;    H3R-   C13-   C12-   H2R
  7076   7075   7078   7080      9     0.00   0.62760   3 ;    H3R-   C13-   C12-   H2S
  7077   7075   7078   7079      9     0.00   0.62760   3 ;    H3S-   C13-   C12-   H2R
  7077   7075   7078   7080      9     0.00   0.62760   3 ;    H3S-   C13-   C12-   H2S
  7081   7082   7085   7086      9     0.00   0.62760   3 ;   H14T-  C114-  C113-  H13R
  7081   7082   7085   7087      9     0.00   0.62760   3 ;   H14T-  C114-  C113-  H13S
  7081   7082   7085   7088      9     0.00   0.66944   3 ;   H14T-  C114-  C113-  C112
  7082   7085   7088   7089      9     0.00   0.66944   3 ;   C114-  C113-  C112-  H12R
  7082   7085   7088   7090      9     0.00   0.66944   3 ;   C114-  C113-  C112-  H12S
  7082   7085   7088   7091      9     0.00   0.41840   1 ;   C114-  C113-  C112-  C111
  7082   7085   7088   7091      9     0.00   0.41840   2 ;   C114-  C113-  C112-  C111
  7082   7085   7088   7091      9     0.00   0.41840   4 ;   C114-  C113-  C112-  C111
  7082   7085   7088   7091      9     0.00   0.41840   5 ;   C114-  C113-  C112-  C111
  7082   7085   7088   7091      9     0.00   1.25520   3 ;   C114-  C113-  C112-  C111
  7083   7082   7085   7086      9     0.00   0.62760   3 ;   H14R-  C114-  C113-  H13R
  7083   7082   7085   7087      9     0.00   0.62760   3 ;   H14R-  C114-  C113-  H13S
  7083   7082   7085   7088      9     0.00   0.66944   3 ;   H14R-  C114-  C113-  C112
  7084   7082   7085   7086      9     0.00   0.62760   3 ;   H14S-  C114-  C113-  H13R
  7084   7082   7085   7087      9     0.00   0.62760   3 ;   H14S-  C114-  C113-  H13S
  7084   7082   7085   7088      9     0.00   0.66944   3 ;   H14S-  C114-  C113-  C112
  7085   7088   7091   7092      9     0.00   0.66944   3 ;   C113-  C112-  C111-  H11R
  7085   7088   7091   7093      9     0.00   0.66944   3 ;   C113-  C112-  C111-  H11S
  7085   7088   7091   7094      9     0.00   0.41840   1 ;   C113-  C112-  C111-  C110
  7085   7088   7091   7094      9     0.00   0.41840   2 ;   C113-  C112-  C111-  C110
  7085   7088   7091   7094      9     0.00   0.41840   4 ;   C113-  C112-  C111-  C110
  7085   7088   7091   7094      9     0.00   0.41840   5 ;   C113-  C112-  C111-  C110
  7085   7088   7091   7094      9     0.00   1.25520   3 ;   C113-  C112-  C111-  C110
  7086   7085   7088   7089      9     0.00   0.62760   3 ;   H13R-  C113-  C112-  H12R
  7086   7085   7088   7090      9     0.00   0.62760   3 ;   H13R-  C113-  C112-  H12S
  7086   7085   7088   7091      9     0.00   0.66944   3 ;   H13R-  C113-  C112-  C111
  7087   7085   7088   7089      9     0.00   0.62760   3 ;   H13S-  C113-  C112-  H12R
  7087   7085   7088   7090      9     0.00   0.62760   3 ;   H13S-  C113-  C112-  H12S
  7087   7085   7088   7091      9     0.00   0.66944   3 ;   H13S-  C113-  C112-  C111
  7088   7091   7094   7095      9     0.00   0.66944   3 ;   C112-  C111-  C110-  H10R
  7088   7091   7094   7096      9     0.00   0.66944   3 ;   C112-  C111-  C110-  H10S
  7088   7091   7094   7097      9     0.00   0.41840   1 ;   C112-  C111-  C110-   C19
  7088   7091   7094   7097      9     0.00   0.41840   2 ;   C112-  C111-  C110-   C19
  7088   7091   7094   7097      9     0.00   0.41840   4 ;   C112-  C111-  C110-   C19
  7088   7091   7094   7097      9     0.00   0.41840   5 ;   C112-  C111-  C110-   C19
  7088   7091   7094   7097      9     0.00   1.25520   3 ;   C112-  C111-  C110-   C19
  7089   7088   7091   7092      9     0.00   0.62760   3 ;   H12R-  C112-  C111-  H11R
  7089   7088   7091   7093      9     0.00   0.62760   3 ;   H12R-  C112-  C111-  H11S
  7089   7088   7091   7094      9     0.00   0.66944   3 ;   H12R-  C112-  C111-  C110
  7090   7088   7091   7092      9     0.00   0.62760   3 ;   H12S-  C112-  C111-  H11R
  7090   7088   7091   7093      9     0.00   0.62760   3 ;   H12S-  C112-  C111-  H11S
  7090   7088   7091   7094      9     0.00   0.66944   3 ;   H12S-  C112-  C111-  C110
  7091   7094   7097   7098      9     0.00   0.66944   3 ;   C111-  C110-   C19-   H9R
  7091   7094   7097   7099      9     0.00   0.66944   3 ;   C111-  C110-   C19-   H9S
  7091   7094   7097   7100      9     0.00   0.41840   1 ;   C111-  C110-   C19-   C18
  7091   7094   7097   7100      9     0.00   0.41840   2 ;   C111-  C110-   C19-   C18
  7091   7094   7097   7100      9     0.00   0.41840   4 ;   C111-  C110-   C19-   C18
  7091   7094   7097   7100      9     0.00   0.41840   5 ;   C111-  C110-   C19-   C18
  7091   7094   7097   7100      9     0.00   1.25520   3 ;   C111-  C110-   C19-   C18
  7092   7091   7094   7095      9     0.00   0.62760   3 ;   H11R-  C111-  C110-  H10R
  7092   7091   7094   7096      9     0.00   0.62760   3 ;   H11R-  C111-  C110-  H10S
  7092   7091   7094   7097      9     0.00   0.66944   3 ;   H11R-  C111-  C110-   C19
  7093   7091   7094   7095      9     0.00   0.62760   3 ;   H11S-  C111-  C110-  H10R
  7093   7091   7094   7096      9     0.00   0.62760   3 ;   H11S-  C111-  C110-  H10S
  7093   7091   7094   7097      9     0.00   0.66944   3 ;   H11S-  C111-  C110-   C19
  7094   7097   7100   7101      9     0.00   0.66944   3 ;   C110-   C19-   C18-   H8R
  7094   7097   7100   7102      9     0.00   0.66944   3 ;   C110-   C19-   C18-   H8S
  7094   7097   7100   7103      9     0.00   0.41840   1 ;   C110-   C19-   C18-   C17
  7094   7097   7100   7103      9     0.00   0.41840   2 ;   C110-   C19-   C18-   C17
  7094   7097   7100   7103      9     0.00   0.41840   4 ;   C110-   C19-   C18-   C17
  7094   7097   7100   7103      9     0.00   0.41840   5 ;   C110-   C19-   C18-   C17
  7094   7097   7100   7103      9     0.00   1.25520   3 ;   C110-   C19-   C18-   C17
  7095   7094   7097   7098      9     0.00   0.62760   3 ;   H10R-  C110-   C19-   H9R
  7095   7094   7097   7099      9     0.00   0.62760   3 ;   H10R-  C110-   C19-   H9S
  7095   7094   7097   7100      9     0.00   0.66944   3 ;   H10R-  C110-   C19-   C18
  7096   7094   7097   7098      9     0.00   0.62760   3 ;   H10S-  C110-   C19-   H9R
  7096   7094   7097   7099      9     0.00   0.62760   3 ;   H10S-  C110-   C19-   H9S
  7096   7094   7097   7100      9     0.00   0.66944   3 ;   H10S-  C110-   C19-   C18
  7097   7100   7103   7104      9     0.00   0.66944   3 ;    C19-   C18-   C17-   H7R
  7097   7100   7103   7105      9     0.00   0.66944   3 ;    C19-   C18-   C17-   H7S
  7097   7100   7103   7106      9     0.00   0.41840   1 ;    C19-   C18-   C17-   C16
  7097   7100   7103   7106      9     0.00   0.41840   2 ;    C19-   C18-   C17-   C16
  7097   7100   7103   7106      9     0.00   0.41840   4 ;    C19-   C18-   C17-   C16
  7097   7100   7103   7106      9     0.00   0.41840   5 ;    C19-   C18-   C17-   C16
  7097   7100   7103   7106      9     0.00   1.25520   3 ;    C19-   C18-   C17-   C16
  7098   7097   7100   7101      9     0.00   0.62760   3 ;    H9R-   C19-   C18-   H8R
  7098   7097   7100   7102      9     0.00   0.62760   3 ;    H9R-   C19-   C18-   H8S
  7098   7097   7100   7103      9     0.00   0.66944   3 ;    H9R-   C19-   C18-   C17
  7099   7097   7100   7101      9     0.00   0.62760   3 ;    H9S-   C19-   C18-   H8R
  7099   7097   7100   7102      9     0.00   0.62760   3 ;    H9S-   C19-   C18-   H8S
  7099   7097   7100   7103      9     0.00   0.66944   3 ;    H9S-   C19-   C18-   C17
  7100   7103   7106   7107      9     0.00   0.66944   3 ;    C18-   C17-   C16-   H6R
  7100   7103   7106   7108      9     0.00   0.66944   3 ;    C18-   C17-   C16-   H6S
  7100   7103   7106   7109      9     0.00   0.41840   1 ;    C18-   C17-   C16-   C15
  7100   7103   7106   7109      9     0.00   0.41840   2 ;    C18-   C17-   C16-   C15
  7100   7103   7106   7109      9     0.00   0.41840   4 ;    C18-   C17-   C16-   C15
  7100   7103   7106   7109      9     0.00   0.41840   5 ;    C18-   C17-   C16-   C15
  7100   7103   7106   7109      9     0.00   1.25520   3 ;    C18-   C17-   C16-   C15
  7101   7100   7103   7104      9     0.00   0.62760   3 ;    H8R-   C18-   C17-   H7R
  7101   7100   7103   7105      9     0.00   0.62760   3 ;    H8R-   C18-   C17-   H7S
  7101   7100   7103   7106      9     0.00   0.66944   3 ;    H8R-   C18-   C17-   C16
  7102   7100   7103   7104      9     0.00   0.62760   3 ;    H8S-   C18-   C17-   H7R
  7102   7100   7103   7105      9     0.00   0.62760   3 ;    H8S-   C18-   C17-   H7S
  7102   7100   7103   7106      9     0.00   0.66944   3 ;    H8S-   C18-   C17-   C16
  7103   7106   7109   7110      9     0.00   0.66944   3 ;    C17-   C16-   C15-   H5R
  7103   7106   7109   7111      9     0.00   0.66944   3 ;    C17-   C16-   C15-   H5S
  7103   7106   7109   7112      9     0.00   0.41840   1 ;    C17-   C16-   C15-   C14
  7103   7106   7109   7112      9     0.00   0.41840   2 ;    C17-   C16-   C15-   C14
  7103   7106   7109   7112      9     0.00   0.41840   4 ;    C17-   C16-   C15-   C14
  7103   7106   7109   7112      9     0.00   0.41840   5 ;    C17-   C16-   C15-   C14
  7103   7106   7109   7112      9     0.00   1.25520   3 ;    C17-   C16-   C15-   C14
  7104   7103   7106   7107      9     0.00   0.62760   3 ;    H7R-   C17-   C16-   H6R
  7104   7103   7106   7108      9     0.00   0.62760   3 ;    H7R-   C17-   C16-   H6S
  7104   7103   7106   7109      9     0.00   0.66944   3 ;    H7R-   C17-   C16-   C15
  7105   7103   7106   7107      9     0.00   0.62760   3 ;    H7S-   C17-   C16-   H6R
  7105   7103   7106   7108      9     0.00   0.62760   3 ;    H7S-   C17-   C16-   H6S
  7105   7103   7106   7109      9     0.00   0.66944   3 ;    H7S-   C17-   C16-   C15
  7106   7109   7112   7113      9     0.00   0.66944   3 ;    C16-   C15-   C14-   H4R
  7106   7109   7112   7114      9     0.00   0.66944   3 ;    C16-   C15-   C14-   H4S
  7106   7109   7112   7115      9     0.00   0.41840   1 ;    C16-   C15-   C14-   C13
  7106   7109   7112   7115      9     0.00   0.41840   2 ;    C16-   C15-   C14-   C13
  7106   7109   7112   7115      9     0.00   0.41840   4 ;    C16-   C15-   C14-   C13
  7106   7109   7112   7115      9     0.00   0.41840   5 ;    C16-   C15-   C14-   C13
  7106   7109   7112   7115      9     0.00   1.25520   3 ;    C16-   C15-   C14-   C13
  7107   7106   7109   7110      9     0.00   0.62760   3 ;    H6R-   C16-   C15-   H5R
  7107   7106   7109   7111      9     0.00   0.62760   3 ;    H6R-   C16-   C15-   H5S
  7107   7106   7109   7112      9     0.00   0.66944   3 ;    H6R-   C16-   C15-   C14
  7108   7106   7109   7110      9     0.00   0.62760   3 ;    H6S-   C16-   C15-   H5R
  7108   7106   7109   7111      9     0.00   0.62760   3 ;    H6S-   C16-   C15-   H5S
  7108   7106   7109   7112      9     0.00   0.66944   3 ;    H6S-   C16-   C15-   C14
  7109   7112   7115   7116      9     0.00   0.66944   3 ;    C15-   C14-   C13-   H3R
  7109   7112   7115   7117      9     0.00   0.66944   3 ;    C15-   C14-   C13-   H3S
  7109   7112   7115   7118      9     0.00   0.41840   1 ;    C15-   C14-   C13-   C12
  7109   7112   7115   7118      9     0.00   0.41840   2 ;    C15-   C14-   C13-   C12
  7109   7112   7115   7118      9     0.00   0.41840   4 ;    C15-   C14-   C13-   C12
  7109   7112   7115   7118      9     0.00   0.41840   5 ;    C15-   C14-   C13-   C12
  7109   7112   7115   7118      9     0.00   1.25520   3 ;    C15-   C14-   C13-   C12
  7110   7109   7112   7113      9     0.00   0.62760   3 ;    H5R-   C15-   C14-   H4R
  7110   7109   7112   7114      9     0.00   0.62760   3 ;    H5R-   C15-   C14-   H4S
  7110   7109   7112   7115      9     0.00   0.66944   3 ;    H5R-   C15-   C14-   C13
  7111   7109   7112   7113      9     0.00   0.62760   3 ;    H5S-   C15-   C14-   H4R
  7111   7109   7112   7114      9     0.00   0.62760   3 ;    H5S-   C15-   C14-   H4S
  7111   7109   7112   7115      9     0.00   0.66944   3 ;    H5S-   C15-   C14-   C13
  7112   7115   7118   7119      9     0.00   0.66944   3 ;    C14-   C13-   C12-   H2R
  7112   7115   7118   7120      9     0.00   0.66944   3 ;    C14-   C13-   C12-   H2S
  7112   7115   7118   7121      9     0.00   0.65270   3 ;    C14-   C13-   C12-   C11
  7113   7112   7115   7116      9     0.00   0.62760   3 ;    H4R-   C14-   C13-   H3R
  7113   7112   7115   7117      9     0.00   0.62760   3 ;    H4R-   C14-   C13-   H3S
  7113   7112   7115   7118      9     0.00   0.66944   3 ;    H4R-   C14-   C13-   C12
  7114   7112   7115   7116      9     0.00   0.62760   3 ;    H4S-   C14-   C13-   H3R
  7114   7112   7115   7117      9     0.00   0.62760   3 ;    H4S-   C14-   C13-   H3S
  7114   7112   7115   7118      9     0.00   0.66944   3 ;    H4S-   C14-   C13-   C12
  7115   7118   7121   7122      9   180.00   0.00000   2 ;    C13-   C12-   C11-   O12
  7115   7118   7121   7123      9   180.00   0.00000   2 ;    C13-   C12-   C11-   O11
  7116   7115   7118   7119      9     0.00   0.62760   3 ;    H3R-   C13-   C12-   H2R
  7116   7115   7118   7120      9     0.00   0.62760   3 ;    H3R-   C13-   C12-   H2S
  7116   7115   7118   7121      9     0.00   0.65270   3 ;    H3R-   C13-   C12-   C11
  7117   7115   7118   7119      9     0.00   0.62760   3 ;    H3S-   C13-   C12-   H2R
  7117   7115   7118   7120      9     0.00   0.62760   3 ;    H3S-   C13-   C12-   H2S
  7117   7115   7118   7121      9     0.00   0.65270   3 ;    H3S-   C13-   C12-   C11
  7118   7121   7123   7124      9   180.00  11.29680   2 ;    C12-   C11-   O11-    C1
  7119   7118   7121   7122      9     0.00   3.34720   1 ;    H2R-   C12-   C11-   O12
  7119   7118   7121   7122      9   180.00   0.33472   3 ;    H2R-   C12-   C11-   O12
  7119   7118   7121   7123      9   180.00   0.00000   2 ;    H2R-   C12-   C11-   O11
  7120   7118   7121   7122      9     0.00   3.34720   1 ;    H2S-   C12-   C11-   O12
  7120   7118   7121   7122      9   180.00   0.33472   3 ;    H2S-   C12-   C11-   O12
  7120   7118   7121   7123      9   180.00   0.00000   2 ;    H2S-   C12-   C11-   O11
  7121   7123   7124   7125      9     0.00   1.60247   3 ;    C11-   O11-    C1-    HR
  7121   7123   7124   7126      9     0.00   1.60247   3 ;    C11-   O11-    C1-    HS
  7121   7123   7124   7127      9     0.00  -0.41840   1 ;    C11-   O11-    C1-    C2
  7122   7121   7123   7124      9   180.00   5.85760   1 ;    O12-   C11-   O11-    C1
  7122   7121   7123   7124      9   180.00  11.29680   2 ;    O12-   C11-   O11-    C1
  7123   7124   7127   7128      9     0.00   0.00000   0 ;    O11-    C1-    C2-    HX
  7123   7124   7127   7128      9     0.00   1.04600   1 ;    O11-    C1-    C2-    HX
  7123   7124   7127   7129      9     0.00   0.00000   0 ;    O11-    C1-    C2-    C3
  7123   7124   7127   7129      9     0.00   0.00000   0 ;    O11-    C1-    C2-    C3
  7123   7124   7127   7129      9     0.00   0.00000   0 ;    O11-    C1-    C2-    C3
  7123   7124   7127   7129      9     0.00   0.00000   0 ;    O11-    C1-    C2-    C3
  7123   7124   7127   7129      9     0.00   0.00000   0 ;    O11-    C1-    C2-    C3
  7123   7124   7127   7156      9     0.00   1.25520   2 ;    O11-    C1-    C2-   O21
  7123   7124   7127   7156      9     0.00   4.18400   3 ;    O11-    C1-    C2-   O21
  7123   7124   7127   7156      9   180.00  -0.41840   1 ;    O11-    C1-    C2-   O21
  7124   7127   7129   7130      9     0.00   0.65270   3 ;     C1-    C2-    C3-    HA
  7124   7127   7129   7131      9     0.00   0.65270   3 ;     C1-    C2-    C3-    HB
  7124   7127   7129   7132      9   180.00   3.34720   1 ;     C1-    C2-    C3-   O31
  7124   7127   7156   7157      9     0.00  -0.41840   1 ;     C1-    C2-   O21-   C21
  7125   7124   7127   7128      9     0.00   0.65270   3 ;     HR-    C1-    C2-    HX
  7125   7124   7127   7129      9     0.00   0.65270   3 ;     HR-    C1-    C2-    C3
  7125   7124   7127   7156      9     0.00   0.00000   0 ;     HR-    C1-    C2-   O21
  7125   7124   7127   7156      9     0.00   1.04600   1 ;     HR-    C1-    C2-   O21
  7126   7124   7127   7128      9     0.00   0.65270   3 ;     HS-    C1-    C2-    HX
  7126   7124   7127   7129      9     0.00   0.65270   3 ;     HS-    C1-    C2-    C3
  7126   7124   7127   7156      9     0.00   0.00000   0 ;     HS-    C1-    C2-   O21
  7126   7124   7127   7156      9     0.00   1.04600   1 ;     HS-    C1-    C2-   O21
  7127   7129   7132   7133      9     0.00   0.00000   0 ;     C2-    C3-   O31-   P31
  7127   7129   7132   7133      9   180.00  -3.34720   2 ;     C2-    C3-   O31-   P31
  7127   7156   7157   7158      9   180.00   5.85760   1 ;     C2-   O21-   C21-   O22
  7127   7156   7157   7158      9   180.00  11.29680   2 ;     C2-   O21-   C21-   O22
  7127   7156   7157   7196      9   180.00  11.29680   2 ;     C2-   O21-   C21-   C12
  7128   7127   7129   7130      9     0.00   0.65270   3 ;     HX-    C2-    C3-    HA
  7128   7127   7129   7131      9     0.00   0.65270   3 ;     HX-    C2-    C3-    HB
  7128   7127   7129   7132      9     0.00   0.00000   0 ;     HX-    C2-    C3-   O31
  7128   7127   7129   7132      9     0.00   1.04600   1 ;     HX-    C2-    C3-   O31
  7128   7127   7156   7157      9     0.00   1.60247   3 ;     HX-    C2-   O21-   C21
  7129   7127   7156   7157      9     0.00  -0.41840   1 ;     C3-    C2-   O21-   C21
  7129   7132   7133   7134      9     0.00   2.51040   3 ;     C3-   O31-   P31-   O32
  7129   7132   7133   7134      9     0.00   9.62320   2 ;     C3-   O31-   P31-   O32
  7129   7132   7133   7154      9     0.00   0.00000   0 ;     C3-   O31-   P31-   O33
  7129   7132   7133   7154      9     0.00   0.00000   0 ;     C3-   O31-   P31-   O33
  7129   7132   7133   7154      9     0.00   0.00000   0 ;     C3-   O31-   P31-   O33
  7129   7132   7133   7154      9     0.00   0.00000   0 ;     C3-   O31-   P31-   O33
  7129   7132   7133   7154      9     0.00   0.83680   2 ;     C3-   O31-   P31-   O33
  7129   7132   7133   7155      9     0.00   0.00000   0 ;     C3-   O31-   P31-   O34
  7129   7132   7133   7155      9     0.00   0.00000   0 ;     C3-   O31-   P31-   O34
  7129   7132   7133   7155      9     0.00   0.00000   0 ;     C3-   O31-   P31-   O34
  7129   7132   7133   7155      9     0.00   0.00000   0 ;     C3-   O31-   P31-   O34
  7129   7132   7133   7155      9     0.00   0.83680   2 ;     C3-   O31-   P31-   O34
  7130   7129   7127   7156      9     0.00   0.00000   0 ;     HA-    C3-    C2-   O21
  7130   7129   7127   7156      9     0.00   1.04600   1 ;     HA-    C3-    C2-   O21
  7130   7129   7132   7133      9     0.00   0.00000   0 ;     HA-    C3-   O31-   P31
  7130   7129   7132   7133      9     0.00   0.00000   0 ;     HA-    C3-   O31-   P31
  7130   7129   7132   7133      9     0.00   0.00000   0 ;     HA-    C3-   O31-   P31
  7130   7129   7132   7133      9     0.00   0.00000   0 ;     HA-    C3-   O31-   P31
  7130   7129   7132   7133      9     0.00   1.60247   3 ;     HA-    C3-   O31-   P31
  7131   7129   7127   7156      9     0.00   0.00000   0 ;     HB-    C3-    C2-   O21
  7131   7129   7127   7156      9     0.00   1.04600   1 ;     HB-    C3-    C2-   O21
  7131   7129   7132   7133      9     0.00   0.00000   0 ;     HB-    C3-   O31-   P31
  7131   7129   7132   7133      9     0.00   0.00000   0 ;     HB-    C3-   O31-   P31
  7131   7129   7132   7133      9     0.00   0.00000   0 ;     HB-    C3-   O31-   P31
  7131   7129   7132   7133      9     0.00   0.00000   0 ;     HB-    C3-   O31-   P31
  7131   7129   7132   7133      9     0.00   1.60247   3 ;     HB-    C3-   O31-   P31
  7132   7129   7127   7156      9     0.00   0.00000   0 ;    O31-    C3-    C2-   O21
  7132   7129   7127   7156      9     0.00   0.00000   0 ;    O31-    C3-    C2-   O21
  7132   7129   7127   7156      9     0.00   0.00000   0 ;    O31-    C3-    C2-   O21
  7132   7129   7127   7156      9     0.00   0.00000   0 ;    O31-    C3-    C2-   O21
  7132   7129   7127   7156      9     0.00   0.00000   0 ;    O31-    C3-    C2-   O21
  7132   7133   7134   7135      9     0.00   2.51040   3 ;    O31-   P31-   O32-   C31
  7132   7133   7134   7135      9     0.00   9.62320   2 ;    O31-   P31-   O32-   C31
  7133   7134   7135   7136      9     0.00   0.00000   0 ;    P31-   O32-   C31-   H1A
  7133   7134   7135   7136      9     0.00   0.00000   0 ;    P31-   O32-   C31-   H1A
  7133   7134   7135   7136      9     0.00   0.00000   0 ;    P31-   O32-   C31-   H1A
  7133   7134   7135   7136      9     0.00   0.00000   0 ;    P31-   O32-   C31-   H1A
  7133   7134   7135   7136      9     0.00   1.60247   3 ;    P31-   O32-   C31-   H1A
  7133   7134   7135   7137      9     0.00   0.00000   0 ;    P31-   O32-   C31-   H1B
  7133   7134   7135   7137      9     0.00   0.00000   0 ;    P31-   O32-   C31-   H1B
  7133   7134   7135   7137      9     0.00   0.00000   0 ;    P31-   O32-   C31-   H1B
  7133   7134   7135   7137      9     0.00   0.00000   0 ;    P31-   O32-   C31-   H1B
  7133   7134   7135   7137      9     0.00   1.60247   3 ;    P31-   O32-   C31-   H1B
  7133   7134   7135   7138      9     0.00   0.00000   0 ;    P31-   O32-   C31-   C32
  7133   7134   7135   7138      9   180.00  -3.34720   2 ;    P31-   O32-   C31-   C32
  7134   7135   7138   7139      9     0.00   0.65270   3 ;    O32-   C31-   C32-   H2A
  7134   7135   7138   7140      9     0.00   0.65270   3 ;    O32-   C31-   C32-   H2B
  7134   7135   7138   7141      9     0.00   4.18400   3 ;    O32-   C31-   C32-   N31
  7135   7134   7133   7154      9     0.00   0.00000   0 ;    C31-   O32-   P31-   O33
  7135   7134   7133   7154      9     0.00   0.00000   0 ;    C31-   O32-   P31-   O33
  7135   7134   7133   7154      9     0.00   0.00000   0 ;    C31-   O32-   P31-   O33
  7135   7134   7133   7154      9     0.00   0.00000   0 ;    C31-   O32-   P31-   O33
  7135   7134   7133   7154      9     0.00   0.83680   2 ;    C31-   O32-   P31-   O33
  7135   7134   7133   7155      9     0.00   0.00000   0 ;    C31-   O32-   P31-   O34
  7135   7134   7133   7155      9     0.00   0.00000   0 ;    C31-   O32-   P31-   O34
  7135   7134   7133   7155      9     0.00   0.00000   0 ;    C31-   O32-   P31-   O34
  7135   7134   7133   7155      9     0.00   0.00000   0 ;    C31-   O32-   P31-   O34
  7135   7134   7133   7155      9     0.00   0.83680   2 ;    C31-   O32-   P31-   O34
  7135   7138   7141   7142      9     0.00   0.65270   3 ;    C31-   C32-   N31-   C33
  7135   7138   7141   7146      9     0.00   0.65270   3 ;    C31-   C32-   N31-   C34
  7135   7138   7141   7150      9     0.00   0.65270   3 ;    C31-   C32-   N31-   C35
  7136   7135   7138   7139      9     0.00   0.65270   3 ;    H1A-   C31-   C32-   H2A
  7136   7135   7138   7140      9     0.00   0.65270   3 ;    H1A-   C31-   C32-   H2B
  7136   7135   7138   7141      9     0.00   0.65270   3 ;    H1A-   C31-   C32-   N31
  7137   7135   7138   7139      9     0.00   0.65270   3 ;    H1B-   C31-   C32-   H2A
  7137   7135   7138   7140      9     0.00   0.65270   3 ;    H1B-   C31-   C32-   H2B
  7137   7135   7138   7141      9     0.00   0.65270   3 ;    H1B-   C31-   C32-   N31
  7138   7141   7142   7143      9     0.00   0.65270   3 ;    C32-   N31-   C33-   H3A
  7138   7141   7142   7144      9     0.00   0.65270   3 ;    C32-   N31-   C33-   H3B
  7138   7141   7142   7145      9     0.00   0.65270   3 ;    C32-   N31-   C33-   H3C
  7138   7141   7146   7147      9     0.00   0.65270   3 ;    C32-   N31-   C34-   H4A
  7138   7141   7146   7148      9     0.00   0.65270   3 ;    C32-   N31-   C34-   H4B
  7138   7141   7146   7149      9     0.00   0.65270   3 ;    C32-   N31-   C34-   H4C
  7138   7141   7150   7151      9     0.00   0.65270   3 ;    C32-   N31-   C35-   H5A
  7138   7141   7150   7152      9     0.00   0.65270   3 ;    C32-   N31-   C35-   H5B
  7138   7141   7150   7153      9     0.00   0.65270   3 ;    C32-   N31-   C35-   H5C
  7139   7138   7141   7142      9     0.00   0.65270   3 ;    H2A-   C32-   N31-   C33
  7139   7138   7141   7146      9     0.00   0.65270   3 ;    H2A-   C32-   N31-   C34
  7139   7138   7141   7150      9     0.00   0.65270   3 ;    H2A-   C32-   N31-   C35
  7140   7138   7141   7142      9     0.00   0.65270   3 ;    H2B-   C32-   N31-   C33
  7140   7138   7141   7146      9     0.00   0.65270   3 ;    H2B-   C32-   N31-   C34
  7140   7138   7141   7150      9     0.00   0.65270   3 ;    H2B-   C32-   N31-   C35
  7142   7141   7146   7147      9     0.00   0.65270   3 ;    C33-   N31-   C34-   H4A
  7142   7141   7146   7148      9     0.00   0.65270   3 ;    C33-   N31-   C34-   H4B
  7142   7141   7146   7149      9     0.00   0.65270   3 ;    C33-   N31-   C34-   H4C
  7142   7141   7150   7151      9     0.00   0.65270   3 ;    C33-   N31-   C35-   H5A
  7142   7141   7150   7152      9     0.00   0.65270   3 ;    C33-   N31-   C35-   H5B
  7142   7141   7150   7153      9     0.00   0.65270   3 ;    C33-   N31-   C35-   H5C
  7143   7142   7141   7146      9     0.00   0.65270   3 ;    H3A-   C33-   N31-   C34
  7143   7142   7141   7150      9     0.00   0.65270   3 ;    H3A-   C33-   N31-   C35
  7144   7142   7141   7146      9     0.00   0.65270   3 ;    H3B-   C33-   N31-   C34
  7144   7142   7141   7150      9     0.00   0.65270   3 ;    H3B-   C33-   N31-   C35
  7145   7142   7141   7146      9     0.00   0.65270   3 ;    H3C-   C33-   N31-   C34
  7145   7142   7141   7150      9     0.00   0.65270   3 ;    H3C-   C33-   N31-   C35
  7146   7141   7150   7151      9     0.00   0.65270   3 ;    C34-   N31-   C35-   H5A
  7146   7141   7150   7152      9     0.00   0.65270   3 ;    C34-   N31-   C35-   H5B
  7146   7141   7150   7153      9     0.00   0.65270   3 ;    C34-   N31-   C35-   H5C
  7147   7146   7141   7150      9     0.00   0.65270   3 ;    H4A-   C34-   N31-   C35
  7148   7146   7141   7150      9     0.00   0.65270   3 ;    H4B-   C34-   N31-   C35
  7149   7146   7141   7150      9     0.00   0.65270   3 ;    H4C-   C34-   N31-   C35
  7156   7157   7196   7193      9   180.00   0.00000   2 ;    O21-   C21-   C12-   C13
  7156   7157   7196   7197      9   180.00   0.00000   2 ;    O21-   C21-   C12-   H2R
  7156   7157   7196   7198      9   180.00   0.00000   2 ;    O21-   C21-   C12-   H2S
  7157   7196   7193   7190      9     0.00   0.65270   3 ;    C21-   C12-   C13-   C14
  7157   7196   7193   7194      9     0.00   0.65270   3 ;    C21-   C12-   C13-   H3R
  7157   7196   7193   7195      9     0.00   0.65270   3 ;    C21-   C12-   C13-   H3S
  7158   7157   7196   7193      9   180.00   0.00000   2 ;    O22-   C21-   C12-   C13
  7158   7157   7196   7197      9     0.00   3.34720   1 ;    O22-   C21-   C12-   H2R
  7158   7157   7196   7197      9   180.00   0.33472   3 ;    O22-   C21-   C12-   H2R
  7158   7157   7196   7198      9     0.00   3.34720   1 ;    O22-   C21-   C12-   H2S
  7158   7157   7196   7198      9   180.00   0.33472   3 ;    O22-   C21-   C12-   H2S
  7159   7160   7163   7164      9     0.00   0.62760   3 ;   H14T-  C114-  C113-  H13R
  7159   7160   7163   7165      9     0.00   0.62760   3 ;   H14T-  C114-  C113-  H13S
  7159   7160   7163   7166      9     0.00   0.66944   3 ;   H14T-  C114-  C113-  C112
  7160   7163   7166   7167      9     0.00   0.66944   3 ;   C114-  C113-  C112-  H12R
  7160   7163   7166   7168      9     0.00   0.66944   3 ;   C114-  C113-  C112-  H12S
  7160   7163   7166   7169      9     0.00   0.41840   1 ;   C114-  C113-  C112-  C111
  7160   7163   7166   7169      9     0.00   0.41840   2 ;   C114-  C113-  C112-  C111
  7160   7163   7166   7169      9     0.00   0.41840   4 ;   C114-  C113-  C112-  C111
  7160   7163   7166   7169      9     0.00   0.41840   5 ;   C114-  C113-  C112-  C111
  7160   7163   7166   7169      9     0.00   1.25520   3 ;   C114-  C113-  C112-  C111
  7161   7160   7163   7164      9     0.00   0.62760   3 ;   H14R-  C114-  C113-  H13R
  7161   7160   7163   7165      9     0.00   0.62760   3 ;   H14R-  C114-  C113-  H13S
  7161   7160   7163   7166      9     0.00   0.66944   3 ;   H14R-  C114-  C113-  C112
  7162   7160   7163   7164      9     0.00   0.62760   3 ;   H14S-  C114-  C113-  H13R
  7162   7160   7163   7165      9     0.00   0.62760   3 ;   H14S-  C114-  C113-  H13S
  7162   7160   7163   7166      9     0.00   0.66944   3 ;   H14S-  C114-  C113-  C112
  7163   7166   7169   7170      9     0.00   0.66944   3 ;   C113-  C112-  C111-  H11R
  7163   7166   7169   7171      9     0.00   0.66944   3 ;   C113-  C112-  C111-  H11S
  7163   7166   7169   7172      9     0.00   0.41840   1 ;   C113-  C112-  C111-  C110
  7163   7166   7169   7172      9     0.00   0.41840   2 ;   C113-  C112-  C111-  C110
  7163   7166   7169   7172      9     0.00   0.41840   4 ;   C113-  C112-  C111-  C110
  7163   7166   7169   7172      9     0.00   0.41840   5 ;   C113-  C112-  C111-  C110
  7163   7166   7169   7172      9     0.00   1.25520   3 ;   C113-  C112-  C111-  C110
  7164   7163   7166   7167      9     0.00   0.62760   3 ;   H13R-  C113-  C112-  H12R
  7164   7163   7166   7168      9     0.00   0.62760   3 ;   H13R-  C113-  C112-  H12S
  7164   7163   7166   7169      9     0.00   0.66944   3 ;   H13R-  C113-  C112-  C111
  7165   7163   7166   7167      9     0.00   0.62760   3 ;   H13S-  C113-  C112-  H12R
  7165   7163   7166   7168      9     0.00   0.62760   3 ;   H13S-  C113-  C112-  H12S
  7165   7163   7166   7169      9     0.00   0.66944   3 ;   H13S-  C113-  C112-  C111
  7166   7169   7172   7173      9     0.00   0.66944   3 ;   C112-  C111-  C110-  H10R
  7166   7169   7172   7174      9     0.00   0.66944   3 ;   C112-  C111-  C110-  H10S
  7166   7169   7172   7175      9     0.00   0.41840   1 ;   C112-  C111-  C110-   C19
  7166   7169   7172   7175      9     0.00   0.41840   2 ;   C112-  C111-  C110-   C19
  7166   7169   7172   7175      9     0.00   0.41840   4 ;   C112-  C111-  C110-   C19
  7166   7169   7172   7175      9     0.00   0.41840   5 ;   C112-  C111-  C110-   C19
  7166   7169   7172   7175      9     0.00   1.25520   3 ;   C112-  C111-  C110-   C19
  7167   7166   7169   7170      9     0.00   0.62760   3 ;   H12R-  C112-  C111-  H11R
  7167   7166   7169   7171      9     0.00   0.62760   3 ;   H12R-  C112-  C111-  H11S
  7167   7166   7169   7172      9     0.00   0.66944   3 ;   H12R-  C112-  C111-  C110
  7168   7166   7169   7170      9     0.00   0.62760   3 ;   H12S-  C112-  C111-  H11R
  7168   7166   7169   7171      9     0.00   0.62760   3 ;   H12S-  C112-  C111-  H11S
  7168   7166   7169   7172      9     0.00   0.66944   3 ;   H12S-  C112-  C111-  C110
  7169   7172   7175   7176      9     0.00   0.66944   3 ;   C111-  C110-   C19-   H9R
  7169   7172   7175   7177      9     0.00   0.66944   3 ;   C111-  C110-   C19-   H9S
  7169   7172   7175   7178      9     0.00   0.41840   1 ;   C111-  C110-   C19-   C18
  7169   7172   7175   7178      9     0.00   0.41840   2 ;   C111-  C110-   C19-   C18
  7169   7172   7175   7178      9     0.00   0.41840   4 ;   C111-  C110-   C19-   C18
  7169   7172   7175   7178      9     0.00   0.41840   5 ;   C111-  C110-   C19-   C18
  7169   7172   7175   7178      9     0.00   1.25520   3 ;   C111-  C110-   C19-   C18
  7170   7169   7172   7173      9     0.00   0.62760   3 ;   H11R-  C111-  C110-  H10R
  7170   7169   7172   7174      9     0.00   0.62760   3 ;   H11R-  C111-  C110-  H10S
  7170   7169   7172   7175      9     0.00   0.66944   3 ;   H11R-  C111-  C110-   C19
  7171   7169   7172   7173      9     0.00   0.62760   3 ;   H11S-  C111-  C110-  H10R
  7171   7169   7172   7174      9     0.00   0.62760   3 ;   H11S-  C111-  C110-  H10S
  7171   7169   7172   7175      9     0.00   0.66944   3 ;   H11S-  C111-  C110-   C19
  7172   7175   7178   7179      9     0.00   0.66944   3 ;   C110-   C19-   C18-   H8R
  7172   7175   7178   7180      9     0.00   0.66944   3 ;   C110-   C19-   C18-   H8S
  7172   7175   7178   7181      9     0.00   0.41840   1 ;   C110-   C19-   C18-   C17
  7172   7175   7178   7181      9     0.00   0.41840   2 ;   C110-   C19-   C18-   C17
  7172   7175   7178   7181      9     0.00   0.41840   4 ;   C110-   C19-   C18-   C17
  7172   7175   7178   7181      9     0.00   0.41840   5 ;   C110-   C19-   C18-   C17
  7172   7175   7178   7181      9     0.00   1.25520   3 ;   C110-   C19-   C18-   C17
  7173   7172   7175   7176      9     0.00   0.62760   3 ;   H10R-  C110-   C19-   H9R
  7173   7172   7175   7177      9     0.00   0.62760   3 ;   H10R-  C110-   C19-   H9S
  7173   7172   7175   7178      9     0.00   0.66944   3 ;   H10R-  C110-   C19-   C18
  7174   7172   7175   7176      9     0.00   0.62760   3 ;   H10S-  C110-   C19-   H9R
  7174   7172   7175   7177      9     0.00   0.62760   3 ;   H10S-  C110-   C19-   H9S
  7174   7172   7175   7178      9     0.00   0.66944   3 ;   H10S-  C110-   C19-   C18
  7175   7178   7181   7182      9     0.00   0.66944   3 ;    C19-   C18-   C17-   H7R
  7175   7178   7181   7183      9     0.00   0.66944   3 ;    C19-   C18-   C17-   H7S
  7175   7178   7181   7184      9     0.00   0.41840   1 ;    C19-   C18-   C17-   C16
  7175   7178   7181   7184      9     0.00   0.41840   2 ;    C19-   C18-   C17-   C16
  7175   7178   7181   7184      9     0.00   0.41840   4 ;    C19-   C18-   C17-   C16
  7175   7178   7181   7184      9     0.00   0.41840   5 ;    C19-   C18-   C17-   C16
  7175   7178   7181   7184      9     0.00   1.25520   3 ;    C19-   C18-   C17-   C16
  7176   7175   7178   7179      9     0.00   0.62760   3 ;    H9R-   C19-   C18-   H8R
  7176   7175   7178   7180      9     0.00   0.62760   3 ;    H9R-   C19-   C18-   H8S
  7176   7175   7178   7181      9     0.00   0.66944   3 ;    H9R-   C19-   C18-   C17
  7177   7175   7178   7179      9     0.00   0.62760   3 ;    H9S-   C19-   C18-   H8R
  7177   7175   7178   7180      9     0.00   0.62760   3 ;    H9S-   C19-   C18-   H8S
  7177   7175   7178   7181      9     0.00   0.66944   3 ;    H9S-   C19-   C18-   C17
  7178   7181   7184   7185      9     0.00   0.66944   3 ;    C18-   C17-   C16-   H6R
  7178   7181   7184   7186      9     0.00   0.66944   3 ;    C18-   C17-   C16-   H6S
  7178   7181   7184   7187      9     0.00   0.41840   1 ;    C18-   C17-   C16-   C15
  7178   7181   7184   7187      9     0.00   0.41840   2 ;    C18-   C17-   C16-   C15
  7178   7181   7184   7187      9     0.00   0.41840   4 ;    C18-   C17-   C16-   C15
  7178   7181   7184   7187      9     0.00   0.41840   5 ;    C18-   C17-   C16-   C15
  7178   7181   7184   7187      9     0.00   1.25520   3 ;    C18-   C17-   C16-   C15
  7179   7178   7181   7182      9     0.00   0.62760   3 ;    H8R-   C18-   C17-   H7R
  7179   7178   7181   7183      9     0.00   0.62760   3 ;    H8R-   C18-   C17-   H7S
  7179   7178   7181   7184      9     0.00   0.66944   3 ;    H8R-   C18-   C17-   C16
  7180   7178   7181   7182      9     0.00   0.62760   3 ;    H8S-   C18-   C17-   H7R
  7180   7178   7181   7183      9     0.00   0.62760   3 ;    H8S-   C18-   C17-   H7S
  7180   7178   7181   7184      9     0.00   0.66944   3 ;    H8S-   C18-   C17-   C16
  7181   7184   7187   7188      9     0.00   0.66944   3 ;    C17-   C16-   C15-   H5R
  7181   7184   7187   7189      9     0.00   0.66944   3 ;    C17-   C16-   C15-   H5S
  7181   7184   7187   7190      9     0.00   0.41840   1 ;    C17-   C16-   C15-   C14
  7181   7184   7187   7190      9     0.00   0.41840   2 ;    C17-   C16-   C15-   C14
  7181   7184   7187   7190      9     0.00   0.41840   4 ;    C17-   C16-   C15-   C14
  7181   7184   7187   7190      9     0.00   0.41840   5 ;    C17-   C16-   C15-   C14
  7181   7184   7187   7190      9     0.00   1.25520   3 ;    C17-   C16-   C15-   C14
  7182   7181   7184   7185      9     0.00   0.62760   3 ;    H7R-   C17-   C16-   H6R
  7182   7181   7184   7186      9     0.00   0.62760   3 ;    H7R-   C17-   C16-   H6S
  7182   7181   7184   7187      9     0.00   0.66944   3 ;    H7R-   C17-   C16-   C15
  7183   7181   7184   7185      9     0.00   0.62760   3 ;    H7S-   C17-   C16-   H6R
  7183   7181   7184   7186      9     0.00   0.62760   3 ;    H7S-   C17-   C16-   H6S
  7183   7181   7184   7187      9     0.00   0.66944   3 ;    H7S-   C17-   C16-   C15
  7184   7187   7190   7191      9     0.00   0.66944   3 ;    C16-   C15-   C14-   H4R
  7184   7187   7190   7192      9     0.00   0.66944   3 ;    C16-   C15-   C14-   H4S
  7184   7187   7190   7193      9     0.00   0.41840   1 ;    C16-   C15-   C14-   C13
  7184   7187   7190   7193      9     0.00   0.41840   2 ;    C16-   C15-   C14-   C13
  7184   7187   7190   7193      9     0.00   0.41840   4 ;    C16-   C15-   C14-   C13
  7184   7187   7190   7193      9     0.00   0.41840   5 ;    C16-   C15-   C14-   C13
  7184   7187   7190   7193      9     0.00   1.25520   3 ;    C16-   C15-   C14-   C13
  7185   7184   7187   7188      9     0.00   0.62760   3 ;    H6R-   C16-   C15-   H5R
  7185   7184   7187   7189      9     0.00   0.62760   3 ;    H6R-   C16-   C15-   H5S
  7185   7184   7187   7190      9     0.00   0.66944   3 ;    H6R-   C16-   C15-   C14
  7186   7184   7187   7188      9     0.00   0.62760   3 ;    H6S-   C16-   C15-   H5R
  7186   7184   7187   7189      9     0.00   0.62760   3 ;    H6S-   C16-   C15-   H5S
  7186   7184   7187   7190      9     0.00   0.66944   3 ;    H6S-   C16-   C15-   C14
  7187   7190   7193   7194      9     0.00   0.66944   3 ;    C15-   C14-   C13-   H3R
  7187   7190   7193   7195      9     0.00   0.66944   3 ;    C15-   C14-   C13-   H3S
  7187   7190   7193   7196      9     0.00   0.41840   1 ;    C15-   C14-   C13-   C12
  7187   7190   7193   7196      9     0.00   0.41840   2 ;    C15-   C14-   C13-   C12
  7187   7190   7193   7196      9     0.00   0.41840   4 ;    C15-   C14-   C13-   C12
  7187   7190   7193   7196      9     0.00   0.41840   5 ;    C15-   C14-   C13-   C12
  7187   7190   7193   7196      9     0.00   1.25520   3 ;    C15-   C14-   C13-   C12
  7188   7187   7190   7191      9     0.00   0.62760   3 ;    H5R-   C15-   C14-   H4R
  7188   7187   7190   7192      9     0.00   0.62760   3 ;    H5R-   C15-   C14-   H4S
  7188   7187   7190   7193      9     0.00   0.66944   3 ;    H5R-   C15-   C14-   C13
  7189   7187   7190   7191      9     0.00   0.62760   3 ;    H5S-   C15-   C14-   H4R
  7189   7187   7190   7192      9     0.00   0.62760   3 ;    H5S-   C15-   C14-   H4S
  7189   7187   7190   7193      9     0.00   0.66944   3 ;    H5S-   C15-   C14-   C13
  7190   7193   7196   7197      9     0.00   0.66944   3 ;    C14-   C13-   C12-   H2R
  7190   7193   7196   7198      9     0.00   0.66944   3 ;    C14-   C13-   C12-   H2S
  7191   7190   7193   7194      9     0.00   0.62760   3 ;    H4R-   C14-   C13-   H3R
  7191   7190   7193   7195      9     0.00   0.62760   3 ;    H4R-   C14-   C13-   H3S
  7191   7190   7193   7196      9     0.00   0.66944   3 ;    H4R-   C14-   C13-   C12
  7192   7190   7193   7194      9     0.00   0.62760   3 ;    H4S-   C14-   C13-   H3R
  7192   7190   7193   7195      9     0.00   0.62760   3 ;    H4S-   C14-   C13-   H3S
  7192   7190   7193   7196      9     0.00   0.66944   3 ;    H4S-   C14-   C13-   C12
  7194   7193   7196   7197      9     0.00   0.62760   3 ;    H3R-   C13-   C12-   H2R
  7194   7193   7196   7198      9     0.00   0.62760   3 ;    H3R-   C13-   C12-   H2S
  7195   7193   7196   7197      9     0.00   0.62760   3 ;    H3S-   C13-   C12-   H2R
  7195   7193   7196   7198      9     0.00   0.62760   3 ;    H3S-   C13-   C12-   H2S
  7199   7200   7203   7204      9     0.00   0.62760   3 ;   H14T-  C114-  C113-  H13R
  7199   7200   7203   7205      9     0.00   0.62760   3 ;   H14T-  C114-  C113-  H13S
  7199   7200   7203   7206      9     0.00   0.66944   3 ;   H14T-  C114-  C113-  C112
  7200   7203   7206   7207      9     0.00   0.66944   3 ;   C114-  C113-  C112-  H12R
  7200   7203   7206   7208      9     0.00   0.66944   3 ;   C114-  C113-  C112-  H12S
  7200   7203   7206   7209      9     0.00   0.41840   1 ;   C114-  C113-  C112-  C111
  7200   7203   7206   7209      9     0.00   0.41840   2 ;   C114-  C113-  C112-  C111
  7200   7203   7206   7209      9     0.00   0.41840   4 ;   C114-  C113-  C112-  C111
  7200   7203   7206   7209      9     0.00   0.41840   5 ;   C114-  C113-  C112-  C111
  7200   7203   7206   7209      9     0.00   1.25520   3 ;   C114-  C113-  C112-  C111
  7201   7200   7203   7204      9     0.00   0.62760   3 ;   H14R-  C114-  C113-  H13R
  7201   7200   7203   7205      9     0.00   0.62760   3 ;   H14R-  C114-  C113-  H13S
  7201   7200   7203   7206      9     0.00   0.66944   3 ;   H14R-  C114-  C113-  C112
  7202   7200   7203   7204      9     0.00   0.62760   3 ;   H14S-  C114-  C113-  H13R
  7202   7200   7203   7205      9     0.00   0.62760   3 ;   H14S-  C114-  C113-  H13S
  7202   7200   7203   7206      9     0.00   0.66944   3 ;   H14S-  C114-  C113-  C112
  7203   7206   7209   7210      9     0.00   0.66944   3 ;   C113-  C112-  C111-  H11R
  7203   7206   7209   7211      9     0.00   0.66944   3 ;   C113-  C112-  C111-  H11S
  7203   7206   7209   7212      9     0.00   0.41840   1 ;   C113-  C112-  C111-  C110
  7203   7206   7209   7212      9     0.00   0.41840   2 ;   C113-  C112-  C111-  C110
  7203   7206   7209   7212      9     0.00   0.41840   4 ;   C113-  C112-  C111-  C110
  7203   7206   7209   7212      9     0.00   0.41840   5 ;   C113-  C112-  C111-  C110
  7203   7206   7209   7212      9     0.00   1.25520   3 ;   C113-  C112-  C111-  C110
  7204   7203   7206   7207      9     0.00   0.62760   3 ;   H13R-  C113-  C112-  H12R
  7204   7203   7206   7208      9     0.00   0.62760   3 ;   H13R-  C113-  C112-  H12S
  7204   7203   7206   7209      9     0.00   0.66944   3 ;   H13R-  C113-  C112-  C111
  7205   7203   7206   7207      9     0.00   0.62760   3 ;   H13S-  C113-  C112-  H12R
  7205   7203   7206   7208      9     0.00   0.62760   3 ;   H13S-  C113-  C112-  H12S
  7205   7203   7206   7209      9     0.00   0.66944   3 ;   H13S-  C113-  C112-  C111
  7206   7209   7212   7213      9     0.00   0.66944   3 ;   C112-  C111-  C110-  H10R
  7206   7209   7212   7214      9     0.00   0.66944   3 ;   C112-  C111-  C110-  H10S
  7206   7209   7212   7215      9     0.00   0.41840   1 ;   C112-  C111-  C110-   C19
  7206   7209   7212   7215      9     0.00   0.41840   2 ;   C112-  C111-  C110-   C19
  7206   7209   7212   7215      9     0.00   0.41840   4 ;   C112-  C111-  C110-   C19
  7206   7209   7212   7215      9     0.00   0.41840   5 ;   C112-  C111-  C110-   C19
  7206   7209   7212   7215      9     0.00   1.25520   3 ;   C112-  C111-  C110-   C19
  7207   7206   7209   7210      9     0.00   0.62760   3 ;   H12R-  C112-  C111-  H11R
  7207   7206   7209   7211      9     0.00   0.62760   3 ;   H12R-  C112-  C111-  H11S
  7207   7206   7209   7212      9     0.00   0.66944   3 ;   H12R-  C112-  C111-  C110
  7208   7206   7209   7210      9     0.00   0.62760   3 ;   H12S-  C112-  C111-  H11R
  7208   7206   7209   7211      9     0.00   0.62760   3 ;   H12S-  C112-  C111-  H11S
  7208   7206   7209   7212      9     0.00   0.66944   3 ;   H12S-  C112-  C111-  C110
  7209   7212   7215   7216      9     0.00   0.66944   3 ;   C111-  C110-   C19-   H9R
  7209   7212   7215   7217      9     0.00   0.66944   3 ;   C111-  C110-   C19-   H9S
  7209   7212   7215   7218      9     0.00   0.41840   1 ;   C111-  C110-   C19-   C18
  7209   7212   7215   7218      9     0.00   0.41840   2 ;   C111-  C110-   C19-   C18
  7209   7212   7215   7218      9     0.00   0.41840   4 ;   C111-  C110-   C19-   C18
  7209   7212   7215   7218      9     0.00   0.41840   5 ;   C111-  C110-   C19-   C18
  7209   7212   7215   7218      9     0.00   1.25520   3 ;   C111-  C110-   C19-   C18
  7210   7209   7212   7213      9     0.00   0.62760   3 ;   H11R-  C111-  C110-  H10R
  7210   7209   7212   7214      9     0.00   0.62760   3 ;   H11R-  C111-  C110-  H10S
  7210   7209   7212   7215      9     0.00   0.66944   3 ;   H11R-  C111-  C110-   C19
  7211   7209   7212   7213      9     0.00   0.62760   3 ;   H11S-  C111-  C110-  H10R
  7211   7209   7212   7214      9     0.00   0.62760   3 ;   H11S-  C111-  C110-  H10S
  7211   7209   7212   7215      9     0.00   0.66944   3 ;   H11S-  C111-  C110-   C19
  7212   7215   7218   7219      9     0.00   0.66944   3 ;   C110-   C19-   C18-   H8R
  7212   7215   7218   7220      9     0.00   0.66944   3 ;   C110-   C19-   C18-   H8S
  7212   7215   7218   7221      9     0.00   0.41840   1 ;   C110-   C19-   C18-   C17
  7212   7215   7218   7221      9     0.00   0.41840   2 ;   C110-   C19-   C18-   C17
  7212   7215   7218   7221      9     0.00   0.41840   4 ;   C110-   C19-   C18-   C17
  7212   7215   7218   7221      9     0.00   0.41840   5 ;   C110-   C19-   C18-   C17
  7212   7215   7218   7221      9     0.00   1.25520   3 ;   C110-   C19-   C18-   C17
  7213   7212   7215   7216      9     0.00   0.62760   3 ;   H10R-  C110-   C19-   H9R
  7213   7212   7215   7217      9     0.00   0.62760   3 ;   H10R-  C110-   C19-   H9S
  7213   7212   7215   7218      9     0.00   0.66944   3 ;   H10R-  C110-   C19-   C18
  7214   7212   7215   7216      9     0.00   0.62760   3 ;   H10S-  C110-   C19-   H9R
  7214   7212   7215   7217      9     0.00   0.62760   3 ;   H10S-  C110-   C19-   H9S
  7214   7212   7215   7218      9     0.00   0.66944   3 ;   H10S-  C110-   C19-   C18
  7215   7218   7221   7222      9     0.00   0.66944   3 ;    C19-   C18-   C17-   H7R
  7215   7218   7221   7223      9     0.00   0.66944   3 ;    C19-   C18-   C17-   H7S
  7215   7218   7221   7224      9     0.00   0.41840   1 ;    C19-   C18-   C17-   C16
  7215   7218   7221   7224      9     0.00   0.41840   2 ;    C19-   C18-   C17-   C16
  7215   7218   7221   7224      9     0.00   0.41840   4 ;    C19-   C18-   C17-   C16
  7215   7218   7221   7224      9     0.00   0.41840   5 ;    C19-   C18-   C17-   C16
  7215   7218   7221   7224      9     0.00   1.25520   3 ;    C19-   C18-   C17-   C16
  7216   7215   7218   7219      9     0.00   0.62760   3 ;    H9R-   C19-   C18-   H8R
  7216   7215   7218   7220      9     0.00   0.62760   3 ;    H9R-   C19-   C18-   H8S
  7216   7215   7218   7221      9     0.00   0.66944   3 ;    H9R-   C19-   C18-   C17
  7217   7215   7218   7219      9     0.00   0.62760   3 ;    H9S-   C19-   C18-   H8R
  7217   7215   7218   7220      9     0.00   0.62760   3 ;    H9S-   C19-   C18-   H8S
  7217   7215   7218   7221      9     0.00   0.66944   3 ;    H9S-   C19-   C18-   C17
  7218   7221   7224   7225      9     0.00   0.66944   3 ;    C18-   C17-   C16-   H6R
  7218   7221   7224   7226      9     0.00   0.66944   3 ;    C18-   C17-   C16-   H6S
  7218   7221   7224   7227      9     0.00   0.41840   1 ;    C18-   C17-   C16-   C15
  7218   7221   7224   7227      9     0.00   0.41840   2 ;    C18-   C17-   C16-   C15
  7218   7221   7224   7227      9     0.00   0.41840   4 ;    C18-   C17-   C16-   C15
  7218   7221   7224   7227      9     0.00   0.41840   5 ;    C18-   C17-   C16-   C15
  7218   7221   7224   7227      9     0.00   1.25520   3 ;    C18-   C17-   C16-   C15
  7219   7218   7221   7222      9     0.00   0.62760   3 ;    H8R-   C18-   C17-   H7R
  7219   7218   7221   7223      9     0.00   0.62760   3 ;    H8R-   C18-   C17-   H7S
  7219   7218   7221   7224      9     0.00   0.66944   3 ;    H8R-   C18-   C17-   C16
  7220   7218   7221   7222      9     0.00   0.62760   3 ;    H8S-   C18-   C17-   H7R
  7220   7218   7221   7223      9     0.00   0.62760   3 ;    H8S-   C18-   C17-   H7S
  7220   7218   7221   7224      9     0.00   0.66944   3 ;    H8S-   C18-   C17-   C16
  7221   7224   7227   7228      9     0.00   0.66944   3 ;    C17-   C16-   C15-   H5R
  7221   7224   7227   7229      9     0.00   0.66944   3 ;    C17-   C16-   C15-   H5S
  7221   7224   7227   7230      9     0.00   0.41840   1 ;    C17-   C16-   C15-   C14
  7221   7224   7227   7230      9     0.00   0.41840   2 ;    C17-   C16-   C15-   C14
  7221   7224   7227   7230      9     0.00   0.41840   4 ;    C17-   C16-   C15-   C14
  7221   7224   7227   7230      9     0.00   0.41840   5 ;    C17-   C16-   C15-   C14
  7221   7224   7227   7230      9     0.00   1.25520   3 ;    C17-   C16-   C15-   C14
  7222   7221   7224   7225      9     0.00   0.62760   3 ;    H7R-   C17-   C16-   H6R
  7222   7221   7224   7226      9     0.00   0.62760   3 ;    H7R-   C17-   C16-   H6S
  7222   7221   7224   7227      9     0.00   0.66944   3 ;    H7R-   C17-   C16-   C15
  7223   7221   7224   7225      9     0.00   0.62760   3 ;    H7S-   C17-   C16-   H6R
  7223   7221   7224   7226      9     0.00   0.62760   3 ;    H7S-   C17-   C16-   H6S
  7223   7221   7224   7227      9     0.00   0.66944   3 ;    H7S-   C17-   C16-   C15
  7224   7227   7230   7231      9     0.00   0.66944   3 ;    C16-   C15-   C14-   H4R
  7224   7227   7230   7232      9     0.00   0.66944   3 ;    C16-   C15-   C14-   H4S
  7224   7227   7230   7233      9     0.00   0.41840   1 ;    C16-   C15-   C14-   C13
  7224   7227   7230   7233      9     0.00   0.41840   2 ;    C16-   C15-   C14-   C13
  7224   7227   7230   7233      9     0.00   0.41840   4 ;    C16-   C15-   C14-   C13
  7224   7227   7230   7233      9     0.00   0.41840   5 ;    C16-   C15-   C14-   C13
  7224   7227   7230   7233      9     0.00   1.25520   3 ;    C16-   C15-   C14-   C13
  7225   7224   7227   7228      9     0.00   0.62760   3 ;    H6R-   C16-   C15-   H5R
  7225   7224   7227   7229      9     0.00   0.62760   3 ;    H6R-   C16-   C15-   H5S
  7225   7224   7227   7230      9     0.00   0.66944   3 ;    H6R-   C16-   C15-   C14
  7226   7224   7227   7228      9     0.00   0.62760   3 ;    H6S-   C16-   C15-   H5R
  7226   7224   7227   7229      9     0.00   0.62760   3 ;    H6S-   C16-   C15-   H5S
  7226   7224   7227   7230      9     0.00   0.66944   3 ;    H6S-   C16-   C15-   C14
  7227   7230   7233   7234      9     0.00   0.66944   3 ;    C15-   C14-   C13-   H3R
  7227   7230   7233   7235      9     0.00   0.66944   3 ;    C15-   C14-   C13-   H3S
  7227   7230   7233   7236      9     0.00   0.41840   1 ;    C15-   C14-   C13-   C12
  7227   7230   7233   7236      9     0.00   0.41840   2 ;    C15-   C14-   C13-   C12
  7227   7230   7233   7236      9     0.00   0.41840   4 ;    C15-   C14-   C13-   C12
  7227   7230   7233   7236      9     0.00   0.41840   5 ;    C15-   C14-   C13-   C12
  7227   7230   7233   7236      9     0.00   1.25520   3 ;    C15-   C14-   C13-   C12
  7228   7227   7230   7231      9     0.00   0.62760   3 ;    H5R-   C15-   C14-   H4R
  7228   7227   7230   7232      9     0.00   0.62760   3 ;    H5R-   C15-   C14-   H4S
  7228   7227   7230   7233      9     0.00   0.66944   3 ;    H5R-   C15-   C14-   C13
  7229   7227   7230   7231      9     0.00   0.62760   3 ;    H5S-   C15-   C14-   H4R
  7229   7227   7230   7232      9     0.00   0.62760   3 ;    H5S-   C15-   C14-   H4S
  7229   7227   7230   7233      9     0.00   0.66944   3 ;    H5S-   C15-   C14-   C13
  7230   7233   7236   7237      9     0.00   0.66944   3 ;    C14-   C13-   C12-   H2R
  7230   7233   7236   7238      9     0.00   0.66944   3 ;    C14-   C13-   C12-   H2S
  7230   7233   7236   7239      9     0.00   0.65270   3 ;    C14-   C13-   C12-   C11
  7231   7230   7233   7234      9     0.00   0.62760   3 ;    H4R-   C14-   C13-   H3R
  7231   7230   7233   7235      9     0.00   0.62760   3 ;    H4R-   C14-   C13-   H3S
  7231   7230   7233   7236      9     0.00   0.66944   3 ;    H4R-   C14-   C13-   C12
  7232   7230   7233   7234      9     0.00   0.62760   3 ;    H4S-   C14-   C13-   H3R
  7232   7230   7233   7235      9     0.00   0.62760   3 ;    H4S-   C14-   C13-   H3S
  7232   7230   7233   7236      9     0.00   0.66944   3 ;    H4S-   C14-   C13-   C12
  7233   7236   7239   7240      9   180.00   0.00000   2 ;    C13-   C12-   C11-   O12
  7233   7236   7239   7241      9   180.00   0.00000   2 ;    C13-   C12-   C11-   O11
  7234   7233   7236   7237      9     0.00   0.62760   3 ;    H3R-   C13-   C12-   H2R
  7234   7233   7236   7238      9     0.00   0.62760   3 ;    H3R-   C13-   C12-   H2S
  7234   7233   7236   7239      9     0.00   0.65270   3 ;    H3R-   C13-   C12-   C11
  7235   7233   7236   7237      9     0.00   0.62760   3 ;    H3S-   C13-   C12-   H2R
  7235   7233   7236   7238      9     0.00   0.62760   3 ;    H3S-   C13-   C12-   H2S
  7235   7233   7236   7239      9     0.00   0.65270   3 ;    H3S-   C13-   C12-   C11
  7236   7239   7241   7242      9   180.00  11.29680   2 ;    C12-   C11-   O11-    C1
  7237   7236   7239   7240      9     0.00   3.34720   1 ;    H2R-   C12-   C11-   O12
  7237   7236   7239   7240      9   180.00   0.33472   3 ;    H2R-   C12-   C11-   O12
  7237   7236   7239   7241      9   180.00   0.00000   2 ;    H2R-   C12-   C11-   O11
  7238   7236   7239   7240      9     0.00   3.34720   1 ;    H2S-   C12-   C11-   O12
  7238   7236   7239   7240      9   180.00   0.33472   3 ;    H2S-   C12-   C11-   O12
  7238   7236   7239   7241      9   180.00   0.00000   2 ;    H2S-   C12-   C11-   O11
  7239   7241   7242   7243      9     0.00   1.60247   3 ;    C11-   O11-    C1-    HR
  7239   7241   7242   7244      9     0.00   1.60247   3 ;    C11-   O11-    C1-    HS
  7239   7241   7242   7245      9     0.00  -0.41840   1 ;    C11-   O11-    C1-    C2
  7240   7239   7241   7242      9   180.00   5.85760   1 ;    O12-   C11-   O11-    C1
  7240   7239   7241   7242      9   180.00  11.29680   2 ;    O12-   C11-   O11-    C1
  7241   7242   7245   7246      9     0.00   0.00000   0 ;    O11-    C1-    C2-    HX
  7241   7242   7245   7246      9     0.00   1.04600   1 ;    O11-    C1-    C2-    HX
  7241   7242   7245   7247      9     0.00   0.00000   0 ;    O11-    C1-    C2-    C3
  7241   7242   7245   7247      9     0.00   0.00000   0 ;    O11-    C1-    C2-    C3
  7241   7242   7245   7247      9     0.00   0.00000   0 ;    O11-    C1-    C2-    C3
  7241   7242   7245   7247      9     0.00   0.00000   0 ;    O11-    C1-    C2-    C3
  7241   7242   7245   7247      9     0.00   0.00000   0 ;    O11-    C1-    C2-    C3
  7241   7242   7245   7274      9     0.00   1.25520   2 ;    O11-    C1-    C2-   O21
  7241   7242   7245   7274      9     0.00   4.18400   3 ;    O11-    C1-    C2-   O21
  7241   7242   7245   7274      9   180.00  -0.41840   1 ;    O11-    C1-    C2-   O21
  7242   7245   7247   7248      9     0.00   0.65270   3 ;     C1-    C2-    C3-    HA
  7242   7245   7247   7249      9     0.00   0.65270   3 ;     C1-    C2-    C3-    HB
  7242   7245   7247   7250      9   180.00   3.34720   1 ;     C1-    C2-    C3-   O31
  7242   7245   7274   7275      9     0.00  -0.41840   1 ;     C1-    C2-   O21-   C21
  7243   7242   7245   7246      9     0.00   0.65270   3 ;     HR-    C1-    C2-    HX
  7243   7242   7245   7247      9     0.00   0.65270   3 ;     HR-    C1-    C2-    C3
  7243   7242   7245   7274      9     0.00   0.00000   0 ;     HR-    C1-    C2-   O21
  7243   7242   7245   7274      9     0.00   1.04600   1 ;     HR-    C1-    C2-   O21
  7244   7242   7245   7246      9     0.00   0.65270   3 ;     HS-    C1-    C2-    HX
  7244   7242   7245   7247      9     0.00   0.65270   3 ;     HS-    C1-    C2-    C3
  7244   7242   7245   7274      9     0.00   0.00000   0 ;     HS-    C1-    C2-   O21
  7244   7242   7245   7274      9     0.00   1.04600   1 ;     HS-    C1-    C2-   O21
  7245   7247   7250   7251      9     0.00   0.00000   0 ;     C2-    C3-   O31-   P31
  7245   7247   7250   7251      9   180.00  -3.34720   2 ;     C2-    C3-   O31-   P31
  7245   7274   7275   7276      9   180.00   5.85760   1 ;     C2-   O21-   C21-   O22
  7245   7274   7275   7276      9   180.00  11.29680   2 ;     C2-   O21-   C21-   O22
  7245   7274   7275   7314      9   180.00  11.29680   2 ;     C2-   O21-   C21-   C12
  7246   7245   7247   7248      9     0.00   0.65270   3 ;     HX-    C2-    C3-    HA
  7246   7245   7247   7249      9     0.00   0.65270   3 ;     HX-    C2-    C3-    HB
  7246   7245   7247   7250      9     0.00   0.00000   0 ;     HX-    C2-    C3-   O31
  7246   7245   7247   7250      9     0.00   1.04600   1 ;     HX-    C2-    C3-   O31
  7246   7245   7274   7275      9     0.00   1.60247   3 ;     HX-    C2-   O21-   C21
  7247   7245   7274   7275      9     0.00  -0.41840   1 ;     C3-    C2-   O21-   C21
  7247   7250   7251   7252      9     0.00   2.51040   3 ;     C3-   O31-   P31-   O32
  7247   7250   7251   7252      9     0.00   9.62320   2 ;     C3-   O31-   P31-   O32
  7247   7250   7251   7272      9     0.00   0.00000   0 ;     C3-   O31-   P31-   O33
  7247   7250   7251   7272      9     0.00   0.00000   0 ;     C3-   O31-   P31-   O33
  7247   7250   7251   7272      9     0.00   0.00000   0 ;     C3-   O31-   P31-   O33
  7247   7250   7251   7272      9     0.00   0.00000   0 ;     C3-   O31-   P31-   O33
  7247   7250   7251   7272      9     0.00   0.83680   2 ;     C3-   O31-   P31-   O33
  7247   7250   7251   7273      9     0.00   0.00000   0 ;     C3-   O31-   P31-   O34
  7247   7250   7251   7273      9     0.00   0.00000   0 ;     C3-   O31-   P31-   O34
  7247   7250   7251   7273      9     0.00   0.00000   0 ;     C3-   O31-   P31-   O34
  7247   7250   7251   7273      9     0.00   0.00000   0 ;     C3-   O31-   P31-   O34
  7247   7250   7251   7273      9     0.00   0.83680   2 ;     C3-   O31-   P31-   O34
  7248   7247   7245   7274      9     0.00   0.00000   0 ;     HA-    C3-    C2-   O21
  7248   7247   7245   7274      9     0.00   1.04600   1 ;     HA-    C3-    C2-   O21
  7248   7247   7250   7251      9     0.00   0.00000   0 ;     HA-    C3-   O31-   P31
  7248   7247   7250   7251      9     0.00   0.00000   0 ;     HA-    C3-   O31-   P31
  7248   7247   7250   7251      9     0.00   0.00000   0 ;     HA-    C3-   O31-   P31
  7248   7247   7250   7251      9     0.00   0.00000   0 ;     HA-    C3-   O31-   P31
  7248   7247   7250   7251      9     0.00   1.60247   3 ;     HA-    C3-   O31-   P31
  7249   7247   7245   7274      9     0.00   0.00000   0 ;     HB-    C3-    C2-   O21
  7249   7247   7245   7274      9     0.00   1.04600   1 ;     HB-    C3-    C2-   O21
  7249   7247   7250   7251      9     0.00   0.00000   0 ;     HB-    C3-   O31-   P31
  7249   7247   7250   7251      9     0.00   0.00000   0 ;     HB-    C3-   O31-   P31
  7249   7247   7250   7251      9     0.00   0.00000   0 ;     HB-    C3-   O31-   P31
  7249   7247   7250   7251      9     0.00   0.00000   0 ;     HB-    C3-   O31-   P31
  7249   7247   7250   7251      9     0.00   1.60247   3 ;     HB-    C3-   O31-   P31
  7250   7247   7245   7274      9     0.00   0.00000   0 ;    O31-    C3-    C2-   O21
  7250   7247   7245   7274      9     0.00   0.00000   0 ;    O31-    C3-    C2-   O21
  7250   7247   7245   7274      9     0.00   0.00000   0 ;    O31-    C3-    C2-   O21
  7250   7247   7245   7274      9     0.00   0.00000   0 ;    O31-    C3-    C2-   O21
  7250   7247   7245   7274      9     0.00   0.00000   0 ;    O31-    C3-    C2-   O21
  7250   7251   7252   7253      9     0.00   2.51040   3 ;    O31-   P31-   O32-   C31
  7250   7251   7252   7253      9     0.00   9.62320   2 ;    O31-   P31-   O32-   C31
  7251   7252   7253   7254      9     0.00   0.00000   0 ;    P31-   O32-   C31-   H1A
  7251   7252   7253   7254      9     0.00   0.00000   0 ;    P31-   O32-   C31-   H1A
  7251   7252   7253   7254      9     0.00   0.00000   0 ;    P31-   O32-   C31-   H1A
  7251   7252   7253   7254      9     0.00   0.00000   0 ;    P31-   O32-   C31-   H1A
  7251   7252   7253   7254      9     0.00   1.60247   3 ;    P31-   O32-   C31-   H1A
  7251   7252   7253   7255      9     0.00   0.00000   0 ;    P31-   O32-   C31-   H1B
  7251   7252   7253   7255      9     0.00   0.00000   0 ;    P31-   O32-   C31-   H1B
  7251   7252   7253   7255      9     0.00   0.00000   0 ;    P31-   O32-   C31-   H1B
  7251   7252   7253   7255      9     0.00   0.00000   0 ;    P31-   O32-   C31-   H1B
  7251   7252   7253   7255      9     0.00   1.60247   3 ;    P31-   O32-   C31-   H1B
  7251   7252   7253   7256      9     0.00   0.00000   0 ;    P31-   O32-   C31-   C32
  7251   7252   7253   7256      9   180.00  -3.34720   2 ;    P31-   O32-   C31-   C32
  7252   7253   7256   7257      9     0.00   0.65270   3 ;    O32-   C31-   C32-   H2A
  7252   7253   7256   7258      9     0.00   0.65270   3 ;    O32-   C31-   C32-   H2B
  7252   7253   7256   7259      9     0.00   4.18400   3 ;    O32-   C31-   C32-   N31
  7253   7252   7251   7272      9     0.00   0.00000   0 ;    C31-   O32-   P31-   O33
  7253   7252   7251   7272      9     0.00   0.00000   0 ;    C31-   O32-   P31-   O33
  7253   7252   7251   7272      9     0.00   0.00000   0 ;    C31-   O32-   P31-   O33
  7253   7252   7251   7272      9     0.00   0.00000   0 ;    C31-   O32-   P31-   O33
  7253   7252   7251   7272      9     0.00   0.83680   2 ;    C31-   O32-   P31-   O33
  7253   7252   7251   7273      9     0.00   0.00000   0 ;    C31-   O32-   P31-   O34
  7253   7252   7251   7273      9     0.00   0.00000   0 ;    C31-   O32-   P31-   O34
  7253   7252   7251   7273      9     0.00   0.00000   0 ;    C31-   O32-   P31-   O34
  7253   7252   7251   7273      9     0.00   0.00000   0 ;    C31-   O32-   P31-   O34
  7253   7252   7251   7273      9     0.00   0.83680   2 ;    C31-   O32-   P31-   O34
  7253   7256   7259   7260      9     0.00   0.65270   3 ;    C31-   C32-   N31-   C33
  7253   7256   7259   7264      9     0.00   0.65270   3 ;    C31-   C32-   N31-   C34
  7253   7256   7259   7268      9     0.00   0.65270   3 ;    C31-   C32-   N31-   C35
  7254   7253   7256   7257      9     0.00   0.65270   3 ;    H1A-   C31-   C32-   H2A
  7254   7253   7256   7258      9     0.00   0.65270   3 ;    H1A-   C31-   C32-   H2B
  7254   7253   7256   7259      9     0.00   0.65270   3 ;    H1A-   C31-   C32-   N31
  7255   7253   7256   7257      9     0.00   0.65270   3 ;    H1B-   C31-   C32-   H2A
  7255   7253   7256   7258      9     0.00   0.65270   3 ;    H1B-   C31-   C32-   H2B
  7255   7253   7256   7259      9     0.00   0.65270   3 ;    H1B-   C31-   C32-   N31
  7256   7259   7260   7261      9     0.00   0.65270   3 ;    C32-   N31-   C33-   H3A
  7256   7259   7260   7262      9     0.00   0.65270   3 ;    C32-   N31-   C33-   H3B
  7256   7259   7260   7263      9     0.00   0.65270   3 ;    C32-   N31-   C33-   H3C
  7256   7259   7264   7265      9     0.00   0.65270   3 ;    C32-   N31-   C34-   H4A
  7256   7259   7264   7266      9     0.00   0.65270   3 ;    C32-   N31-   C34-   H4B
  7256   7259   7264   7267      9     0.00   0.65270   3 ;    C32-   N31-   C34-   H4C
  7256   7259   7268   7269      9     0.00   0.65270   3 ;    C32-   N31-   C35-   H5A
  7256   7259   7268   7270      9     0.00   0.65270   3 ;    C32-   N31-   C35-   H5B
  7256   7259   7268   7271      9     0.00   0.65270   3 ;    C32-   N31-   C35-   H5C
  7257   7256   7259   7260      9     0.00   0.65270   3 ;    H2A-   C32-   N31-   C33
  7257   7256   7259   7264      9     0.00   0.65270   3 ;    H2A-   C32-   N31-   C34
  7257   7256   7259   7268      9     0.00   0.65270   3 ;    H2A-   C32-   N31-   C35
  7258   7256   7259   7260      9     0.00   0.65270   3 ;    H2B-   C32-   N31-   C33
  7258   7256   7259   7264      9     0.00   0.65270   3 ;    H2B-   C32-   N31-   C34
  7258   7256   7259   7268      9     0.00   0.65270   3 ;    H2B-   C32-   N31-   C35
  7260   7259   7264   7265      9     0.00   0.65270   3 ;    C33-   N31-   C34-   H4A
  7260   7259   7264   7266      9     0.00   0.65270   3 ;    C33-   N31-   C34-   H4B
  7260   7259   7264   7267      9     0.00   0.65270   3 ;    C33-   N31-   C34-   H4C
  7260   7259   7268   7269      9     0.00   0.65270   3 ;    C33-   N31-   C35-   H5A
  7260   7259   7268   7270      9     0.00   0.65270   3 ;    C33-   N31-   C35-   H5B
  7260   7259   7268   7271      9     0.00   0.65270   3 ;    C33-   N31-   C35-   H5C
  7261   7260   7259   7264      9     0.00   0.65270   3 ;    H3A-   C33-   N31-   C34
  7261   7260   7259   7268      9     0.00   0.65270   3 ;    H3A-   C33-   N31-   C35
  7262   7260   7259   7264      9     0.00   0.65270   3 ;    H3B-   C33-   N31-   C34
  7262   7260   7259   7268      9     0.00   0.65270   3 ;    H3B-   C33-   N31-   C35
  7263   7260   7259   7264      9     0.00   0.65270   3 ;    H3C-   C33-   N31-   C34
  7263   7260   7259   7268      9     0.00   0.65270   3 ;    H3C-   C33-   N31-   C35
  7264   7259   7268   7269      9     0.00   0.65270   3 ;    C34-   N31-   C35-   H5A
  7264   7259   7268   7270      9     0.00   0.65270   3 ;    C34-   N31-   C35-   H5B
  7264   7259   7268   7271      9     0.00   0.65270   3 ;    C34-   N31-   C35-   H5C
  7265   7264   7259   7268      9     0.00   0.65270   3 ;    H4A-   C34-   N31-   C35
  7266   7264   7259   7268      9     0.00   0.65270   3 ;    H4B-   C34-   N31-   C35
  7267   7264   7259   7268      9     0.00   0.65270   3 ;    H4C-   C34-   N31-   C35
  7274   7275   7314   7311      9   180.00   0.00000   2 ;    O21-   C21-   C12-   C13
  7274   7275   7314   7315      9   180.00   0.00000   2 ;    O21-   C21-   C12-   H2R
  7274   7275   7314   7316      9   180.00   0.00000   2 ;    O21-   C21-   C12-   H2S
  7275   7314   7311   7308      9     0.00   0.65270   3 ;    C21-   C12-   C13-   C14
  7275   7314   7311   7312      9     0.00   0.65270   3 ;    C21-   C12-   C13-   H3R
  7275   7314   7311   7313      9     0.00   0.65270   3 ;    C21-   C12-   C13-   H3S
  7276   7275   7314   7311      9   180.00   0.00000   2 ;    O22-   C21-   C12-   C13
  7276   7275   7314   7315      9     0.00   3.34720   1 ;    O22-   C21-   C12-   H2R
  7276   7275   7314   7315      9   180.00   0.33472   3 ;    O22-   C21-   C12-   H2R
  7276   7275   7314   7316      9     0.00   3.34720   1 ;    O22-   C21-   C12-   H2S
  7276   7275   7314   7316      9   180.00   0.33472   3 ;    O22-   C21-   C12-   H2S
  7277   7278   7281   7282      9     0.00   0.62760   3 ;   H14T-  C114-  C113-  H13R
  7277   7278   7281   7283      9     0.00   0.62760   3 ;   H14T-  C114-  C113-  H13S
  7277   7278   7281   7284      9     0.00   0.66944   3 ;   H14T-  C114-  C113-  C112
  7278   7281   7284   7285      9     0.00   0.66944   3 ;   C114-  C113-  C112-  H12R
  7278   7281   7284   7286      9     0.00   0.66944   3 ;   C114-  C113-  C112-  H12S
  7278   7281   7284   7287      9     0.00   0.41840   1 ;   C114-  C113-  C112-  C111
  7278   7281   7284   7287      9     0.00   0.41840   2 ;   C114-  C113-  C112-  C111
  7278   7281   7284   7287      9     0.00   0.41840   4 ;   C114-  C113-  C112-  C111
  7278   7281   7284   7287      9     0.00   0.41840   5 ;   C114-  C113-  C112-  C111
  7278   7281   7284   7287      9     0.00   1.25520   3 ;   C114-  C113-  C112-  C111
  7279   7278   7281   7282      9     0.00   0.62760   3 ;   H14R-  C114-  C113-  H13R
  7279   7278   7281   7283      9     0.00   0.62760   3 ;   H14R-  C114-  C113-  H13S
  7279   7278   7281   7284      9     0.00   0.66944   3 ;   H14R-  C114-  C113-  C112
  7280   7278   7281   7282      9     0.00   0.62760   3 ;   H14S-  C114-  C113-  H13R
  7280   7278   7281   7283      9     0.00   0.62760   3 ;   H14S-  C114-  C113-  H13S
  7280   7278   7281   7284      9     0.00   0.66944   3 ;   H14S-  C114-  C113-  C112
  7281   7284   7287   7288      9     0.00   0.66944   3 ;   C113-  C112-  C111-  H11R
  7281   7284   7287   7289      9     0.00   0.66944   3 ;   C113-  C112-  C111-  H11S
  7281   7284   7287   7290      9     0.00   0.41840   1 ;   C113-  C112-  C111-  C110
  7281   7284   7287   7290      9     0.00   0.41840   2 ;   C113-  C112-  C111-  C110
  7281   7284   7287   7290      9     0.00   0.41840   4 ;   C113-  C112-  C111-  C110
  7281   7284   7287   7290      9     0.00   0.41840   5 ;   C113-  C112-  C111-  C110
  7281   7284   7287   7290      9     0.00   1.25520   3 ;   C113-  C112-  C111-  C110
  7282   7281   7284   7285      9     0.00   0.62760   3 ;   H13R-  C113-  C112-  H12R
  7282   7281   7284   7286      9     0.00   0.62760   3 ;   H13R-  C113-  C112-  H12S
  7282   7281   7284   7287      9     0.00   0.66944   3 ;   H13R-  C113-  C112-  C111
  7283   7281   7284   7285      9     0.00   0.62760   3 ;   H13S-  C113-  C112-  H12R
  7283   7281   7284   7286      9     0.00   0.62760   3 ;   H13S-  C113-  C112-  H12S
  7283   7281   7284   7287      9     0.00   0.66944   3 ;   H13S-  C113-  C112-  C111
  7284   7287   7290   7291      9     0.00   0.66944   3 ;   C112-  C111-  C110-  H10R
  7284   7287   7290   7292      9     0.00   0.66944   3 ;   C112-  C111-  C110-  H10S
  7284   7287   7290   7293      9     0.00   0.41840   1 ;   C112-  C111-  C110-   C19
  7284   7287   7290   7293      9     0.00   0.41840   2 ;   C112-  C111-  C110-   C19
  7284   7287   7290   7293      9     0.00   0.41840   4 ;   C112-  C111-  C110-   C19
  7284   7287   7290   7293      9     0.00   0.41840   5 ;   C112-  C111-  C110-   C19
  7284   7287   7290   7293      9     0.00   1.25520   3 ;   C112-  C111-  C110-   C19
  7285   7284   7287   7288      9     0.00   0.62760   3 ;   H12R-  C112-  C111-  H11R
  7285   7284   7287   7289      9     0.00   0.62760   3 ;   H12R-  C112-  C111-  H11S
  7285   7284   7287   7290      9     0.00   0.66944   3 ;   H12R-  C112-  C111-  C110
  7286   7284   7287   7288      9     0.00   0.62760   3 ;   H12S-  C112-  C111-  H11R
  7286   7284   7287   7289      9     0.00   0.62760   3 ;   H12S-  C112-  C111-  H11S
  7286   7284   7287   7290      9     0.00   0.66944   3 ;   H12S-  C112-  C111-  C110
  7287   7290   7293   7294      9     0.00   0.66944   3 ;   C111-  C110-   C19-   H9R
  7287   7290   7293   7295      9     0.00   0.66944   3 ;   C111-  C110-   C19-   H9S
  7287   7290   7293   7296      9     0.00   0.41840   1 ;   C111-  C110-   C19-   C18
  7287   7290   7293   7296      9     0.00   0.41840   2 ;   C111-  C110-   C19-   C18
  7287   7290   7293   7296      9     0.00   0.41840   4 ;   C111-  C110-   C19-   C18
  7287   7290   7293   7296      9     0.00   0.41840   5 ;   C111-  C110-   C19-   C18
  7287   7290   7293   7296      9     0.00   1.25520   3 ;   C111-  C110-   C19-   C18
  7288   7287   7290   7291      9     0.00   0.62760   3 ;   H11R-  C111-  C110-  H10R
  7288   7287   7290   7292      9     0.00   0.62760   3 ;   H11R-  C111-  C110-  H10S
  7288   7287   7290   7293      9     0.00   0.66944   3 ;   H11R-  C111-  C110-   C19
  7289   7287   7290   7291      9     0.00   0.62760   3 ;   H11S-  C111-  C110-  H10R
  7289   7287   7290   7292      9     0.00   0.62760   3 ;   H11S-  C111-  C110-  H10S
  7289   7287   7290   7293      9     0.00   0.66944   3 ;   H11S-  C111-  C110-   C19
  7290   7293   7296   7297      9     0.00   0.66944   3 ;   C110-   C19-   C18-   H8R
  7290   7293   7296   7298      9     0.00   0.66944   3 ;   C110-   C19-   C18-   H8S
  7290   7293   7296   7299      9     0.00   0.41840   1 ;   C110-   C19-   C18-   C17
  7290   7293   7296   7299      9     0.00   0.41840   2 ;   C110-   C19-   C18-   C17
  7290   7293   7296   7299      9     0.00   0.41840   4 ;   C110-   C19-   C18-   C17
  7290   7293   7296   7299      9     0.00   0.41840   5 ;   C110-   C19-   C18-   C17
  7290   7293   7296   7299      9     0.00   1.25520   3 ;   C110-   C19-   C18-   C17
  7291   7290   7293   7294      9     0.00   0.62760   3 ;   H10R-  C110-   C19-   H9R
  7291   7290   7293   7295      9     0.00   0.62760   3 ;   H10R-  C110-   C19-   H9S
  7291   7290   7293   7296      9     0.00   0.66944   3 ;   H10R-  C110-   C19-   C18
  7292   7290   7293   7294      9     0.00   0.62760   3 ;   H10S-  C110-   C19-   H9R
  7292   7290   7293   7295      9     0.00   0.62760   3 ;   H10S-  C110-   C19-   H9S
  7292   7290   7293   7296      9     0.00   0.66944   3 ;   H10S-  C110-   C19-   C18
  7293   7296   7299   7300      9     0.00   0.66944   3 ;    C19-   C18-   C17-   H7R
  7293   7296   7299   7301      9     0.00   0.66944   3 ;    C19-   C18-   C17-   H7S
  7293   7296   7299   7302      9     0.00   0.41840   1 ;    C19-   C18-   C17-   C16
  7293   7296   7299   7302      9     0.00   0.41840   2 ;    C19-   C18-   C17-   C16
  7293   7296   7299   7302      9     0.00   0.41840   4 ;    C19-   C18-   C17-   C16
  7293   7296   7299   7302      9     0.00   0.41840   5 ;    C19-   C18-   C17-   C16
  7293   7296   7299   7302      9     0.00   1.25520   3 ;    C19-   C18-   C17-   C16
  7294   7293   7296   7297      9     0.00   0.62760   3 ;    H9R-   C19-   C18-   H8R
  7294   7293   7296   7298      9     0.00   0.62760   3 ;    H9R-   C19-   C18-   H8S
  7294   7293   7296   7299      9     0.00   0.66944   3 ;    H9R-   C19-   C18-   C17
  7295   7293   7296   7297      9     0.00   0.62760   3 ;    H9S-   C19-   C18-   H8R
  7295   7293   7296   7298      9     0.00   0.62760   3 ;    H9S-   C19-   C18-   H8S
  7295   7293   7296   7299      9     0.00   0.66944   3 ;    H9S-   C19-   C18-   C17
  7296   7299   7302   7303      9     0.00   0.66944   3 ;    C18-   C17-   C16-   H6R
  7296   7299   7302   7304      9     0.00   0.66944   3 ;    C18-   C17-   C16-   H6S
  7296   7299   7302   7305      9     0.00   0.41840   1 ;    C18-   C17-   C16-   C15
  7296   7299   7302   7305      9     0.00   0.41840   2 ;    C18-   C17-   C16-   C15
  7296   7299   7302   7305      9     0.00   0.41840   4 ;    C18-   C17-   C16-   C15
  7296   7299   7302   7305      9     0.00   0.41840   5 ;    C18-   C17-   C16-   C15
  7296   7299   7302   7305      9     0.00   1.25520   3 ;    C18-   C17-   C16-   C15
  7297   7296   7299   7300      9     0.00   0.62760   3 ;    H8R-   C18-   C17-   H7R
  7297   7296   7299   7301      9     0.00   0.62760   3 ;    H8R-   C18-   C17-   H7S
  7297   7296   7299   7302      9     0.00   0.66944   3 ;    H8R-   C18-   C17-   C16
  7298   7296   7299   7300      9     0.00   0.62760   3 ;    H8S-   C18-   C17-   H7R
  7298   7296   7299   7301      9     0.00   0.62760   3 ;    H8S-   C18-   C17-   H7S
  7298   7296   7299   7302      9     0.00   0.66944   3 ;    H8S-   C18-   C17-   C16
  7299   7302   7305   7306      9     0.00   0.66944   3 ;    C17-   C16-   C15-   H5R
  7299   7302   7305   7307      9     0.00   0.66944   3 ;    C17-   C16-   C15-   H5S
  7299   7302   7305   7308      9     0.00   0.41840   1 ;    C17-   C16-   C15-   C14
  7299   7302   7305   7308      9     0.00   0.41840   2 ;    C17-   C16-   C15-   C14
  7299   7302   7305   7308      9     0.00   0.41840   4 ;    C17-   C16-   C15-   C14
  7299   7302   7305   7308      9     0.00   0.41840   5 ;    C17-   C16-   C15-   C14
  7299   7302   7305   7308      9     0.00   1.25520   3 ;    C17-   C16-   C15-   C14
  7300   7299   7302   7303      9     0.00   0.62760   3 ;    H7R-   C17-   C16-   H6R
  7300   7299   7302   7304      9     0.00   0.62760   3 ;    H7R-   C17-   C16-   H6S
  7300   7299   7302   7305      9     0.00   0.66944   3 ;    H7R-   C17-   C16-   C15
  7301   7299   7302   7303      9     0.00   0.62760   3 ;    H7S-   C17-   C16-   H6R
  7301   7299   7302   7304      9     0.00   0.62760   3 ;    H7S-   C17-   C16-   H6S
  7301   7299   7302   7305      9     0.00   0.66944   3 ;    H7S-   C17-   C16-   C15
  7302   7305   7308   7309      9     0.00   0.66944   3 ;    C16-   C15-   C14-   H4R
  7302   7305   7308   7310      9     0.00   0.66944   3 ;    C16-   C15-   C14-   H4S
  7302   7305   7308   7311      9     0.00   0.41840   1 ;    C16-   C15-   C14-   C13
  7302   7305   7308   7311      9     0.00   0.41840   2 ;    C16-   C15-   C14-   C13
  7302   7305   7308   7311      9     0.00   0.41840   4 ;    C16-   C15-   C14-   C13
  7302   7305   7308   7311      9     0.00   0.41840   5 ;    C16-   C15-   C14-   C13
  7302   7305   7308   7311      9     0.00   1.25520   3 ;    C16-   C15-   C14-   C13
  7303   7302   7305   7306      9     0.00   0.62760   3 ;    H6R-   C16-   C15-   H5R
  7303   7302   7305   7307      9     0.00   0.62760   3 ;    H6R-   C16-   C15-   H5S
  7303   7302   7305   7308      9     0.00   0.66944   3 ;    H6R-   C16-   C15-   C14
  7304   7302   7305   7306      9     0.00   0.62760   3 ;    H6S-   C16-   C15-   H5R
  7304   7302   7305   7307      9     0.00   0.62760   3 ;    H6S-   C16-   C15-   H5S
  7304   7302   7305   7308      9     0.00   0.66944   3 ;    H6S-   C16-   C15-   C14
  7305   7308   7311   7312      9     0.00   0.66944   3 ;    C15-   C14-   C13-   H3R
  7305   7308   7311   7313      9     0.00   0.66944   3 ;    C15-   C14-   C13-   H3S
  7305   7308   7311   7314      9     0.00   0.41840   1 ;    C15-   C14-   C13-   C12
  7305   7308   7311   7314      9     0.00   0.41840   2 ;    C15-   C14-   C13-   C12
  7305   7308   7311   7314      9     0.00   0.41840   4 ;    C15-   C14-   C13-   C12
  7305   7308   7311   7314      9     0.00   0.41840   5 ;    C15-   C14-   C13-   C12
  7305   7308   7311   7314      9     0.00   1.25520   3 ;    C15-   C14-   C13-   C12
  7306   7305   7308   7309      9     0.00   0.62760   3 ;    H5R-   C15-   C14-   H4R
  7306   7305   7308   7310      9     0.00   0.62760   3 ;    H5R-   C15-   C14-   H4S
  7306   7305   7308   7311      9     0.00   0.66944   3 ;    H5R-   C15-   C14-   C13
  7307   7305   7308   7309      9     0.00   0.62760   3 ;    H5S-   C15-   C14-   H4R
  7307   7305   7308   7310      9     0.00   0.62760   3 ;    H5S-   C15-   C14-   H4S
  7307   7305   7308   7311      9     0.00   0.66944   3 ;    H5S-   C15-   C14-   C13
  7308   7311   7314   7315      9     0.00   0.66944   3 ;    C14-   C13-   C12-   H2R
  7308   7311   7314   7316      9     0.00   0.66944   3 ;    C14-   C13-   C12-   H2S
  7309   7308   7311   7312      9     0.00   0.62760   3 ;    H4R-   C14-   C13-   H3R
  7309   7308   7311   7313      9     0.00   0.62760   3 ;    H4R-   C14-   C13-   H3S
  7309   7308   7311   7314      9     0.00   0.66944   3 ;    H4R-   C14-   C13-   C12
  7310   7308   7311   7312      9     0.00   0.62760   3 ;    H4S-   C14-   C13-   H3R
  7310   7308   7311   7313      9     0.00   0.62760   3 ;    H4S-   C14-   C13-   H3S
  7310   7308   7311   7314      9     0.00   0.66944   3 ;    H4S-   C14-   C13-   C12
  7312   7311   7314   7315      9     0.00   0.62760   3 ;    H3R-   C13-   C12-   H2R
  7312   7311   7314   7316      9     0.00   0.62760   3 ;    H3R-   C13-   C12-   H2S
  7313   7311   7314   7315      9     0.00   0.62760   3 ;    H3S-   C13-   C12-   H2R
  7313   7311   7314   7316      9     0.00   0.62760   3 ;    H3S-   C13-   C12-   H2S
  7317   7318   7321   7322      9     0.00   0.62760   3 ;   H14T-  C114-  C113-  H13R
  7317   7318   7321   7323      9     0.00   0.62760   3 ;   H14T-  C114-  C113-  H13S
  7317   7318   7321   7324      9     0.00   0.66944   3 ;   H14T-  C114-  C113-  C112
  7318   7321   7324   7325      9     0.00   0.66944   3 ;   C114-  C113-  C112-  H12R
  7318   7321   7324   7326      9     0.00   0.66944   3 ;   C114-  C113-  C112-  H12S
  7318   7321   7324   7327      9     0.00   0.41840   1 ;   C114-  C113-  C112-  C111
  7318   7321   7324   7327      9     0.00   0.41840   2 ;   C114-  C113-  C112-  C111
  7318   7321   7324   7327      9     0.00   0.41840   4 ;   C114-  C113-  C112-  C111
  7318   7321   7324   7327      9     0.00   0.41840   5 ;   C114-  C113-  C112-  C111
  7318   7321   7324   7327      9     0.00   1.25520   3 ;   C114-  C113-  C112-  C111
  7319   7318   7321   7322      9     0.00   0.62760   3 ;   H14R-  C114-  C113-  H13R
  7319   7318   7321   7323      9     0.00   0.62760   3 ;   H14R-  C114-  C113-  H13S
  7319   7318   7321   7324      9     0.00   0.66944   3 ;   H14R-  C114-  C113-  C112
  7320   7318   7321   7322      9     0.00   0.62760   3 ;   H14S-  C114-  C113-  H13R
  7320   7318   7321   7323      9     0.00   0.62760   3 ;   H14S-  C114-  C113-  H13S
  7320   7318   7321   7324      9     0.00   0.66944   3 ;   H14S-  C114-  C113-  C112
  7321   7324   7327   7328      9     0.00   0.66944   3 ;   C113-  C112-  C111-  H11R
  7321   7324   7327   7329      9     0.00   0.66944   3 ;   C113-  C112-  C111-  H11S
  7321   7324   7327   7330      9     0.00   0.41840   1 ;   C113-  C112-  C111-  C110
  7321   7324   7327   7330      9     0.00   0.41840   2 ;   C113-  C112-  C111-  C110
  7321   7324   7327   7330      9     0.00   0.41840   4 ;   C113-  C112-  C111-  C110
  7321   7324   7327   7330      9     0.00   0.41840   5 ;   C113-  C112-  C111-  C110
  7321   7324   7327   7330      9     0.00   1.25520   3 ;   C113-  C112-  C111-  C110
  7322   7321   7324   7325      9     0.00   0.62760   3 ;   H13R-  C113-  C112-  H12R
  7322   7321   7324   7326      9     0.00   0.62760   3 ;   H13R-  C113-  C112-  H12S
  7322   7321   7324   7327      9     0.00   0.66944   3 ;   H13R-  C113-  C112-  C111
  7323   7321   7324   7325      9     0.00   0.62760   3 ;   H13S-  C113-  C112-  H12R
  7323   7321   7324   7326      9     0.00   0.62760   3 ;   H13S-  C113-  C112-  H12S
  7323   7321   7324   7327      9     0.00   0.66944   3 ;   H13S-  C113-  C112-  C111
  7324   7327   7330   7331      9     0.00   0.66944   3 ;   C112-  C111-  C110-  H10R
  7324   7327   7330   7332      9     0.00   0.66944   3 ;   C112-  C111-  C110-  H10S
  7324   7327   7330   7333      9     0.00   0.41840   1 ;   C112-  C111-  C110-   C19
  7324   7327   7330   7333      9     0.00   0.41840   2 ;   C112-  C111-  C110-   C19
  7324   7327   7330   7333      9     0.00   0.41840   4 ;   C112-  C111-  C110-   C19
  7324   7327   7330   7333      9     0.00   0.41840   5 ;   C112-  C111-  C110-   C19
  7324   7327   7330   7333      9     0.00   1.25520   3 ;   C112-  C111-  C110-   C19
  7325   7324   7327   7328      9     0.00   0.62760   3 ;   H12R-  C112-  C111-  H11R
  7325   7324   7327   7329      9     0.00   0.62760   3 ;   H12R-  C112-  C111-  H11S
  7325   7324   7327   7330      9     0.00   0.66944   3 ;   H12R-  C112-  C111-  C110
  7326   7324   7327   7328      9     0.00   0.62760   3 ;   H12S-  C112-  C111-  H11R
  7326   7324   7327   7329      9     0.00   0.62760   3 ;   H12S-  C112-  C111-  H11S
  7326   7324   7327   7330      9     0.00   0.66944   3 ;   H12S-  C112-  C111-  C110
  7327   7330   7333   7334      9     0.00   0.66944   3 ;   C111-  C110-   C19-   H9R
  7327   7330   7333   7335      9     0.00   0.66944   3 ;   C111-  C110-   C19-   H9S
  7327   7330   7333   7336      9     0.00   0.41840   1 ;   C111-  C110-   C19-   C18
  7327   7330   7333   7336      9     0.00   0.41840   2 ;   C111-  C110-   C19-   C18
  7327   7330   7333   7336      9     0.00   0.41840   4 ;   C111-  C110-   C19-   C18
  7327   7330   7333   7336      9     0.00   0.41840   5 ;   C111-  C110-   C19-   C18
  7327   7330   7333   7336      9     0.00   1.25520   3 ;   C111-  C110-   C19-   C18
  7328   7327   7330   7331      9     0.00   0.62760   3 ;   H11R-  C111-  C110-  H10R
  7328   7327   7330   7332      9     0.00   0.62760   3 ;   H11R-  C111-  C110-  H10S
  7328   7327   7330   7333      9     0.00   0.66944   3 ;   H11R-  C111-  C110-   C19
  7329   7327   7330   7331      9     0.00   0.62760   3 ;   H11S-  C111-  C110-  H10R
  7329   7327   7330   7332      9     0.00   0.62760   3 ;   H11S-  C111-  C110-  H10S
  7329   7327   7330   7333      9     0.00   0.66944   3 ;   H11S-  C111-  C110-   C19
  7330   7333   7336   7337      9     0.00   0.66944   3 ;   C110-   C19-   C18-   H8R
  7330   7333   7336   7338      9     0.00   0.66944   3 ;   C110-   C19-   C18-   H8S
  7330   7333   7336   7339      9     0.00   0.41840   1 ;   C110-   C19-   C18-   C17
  7330   7333   7336   7339      9     0.00   0.41840   2 ;   C110-   C19-   C18-   C17
  7330   7333   7336   7339      9     0.00   0.41840   4 ;   C110-   C19-   C18-   C17
  7330   7333   7336   7339      9     0.00   0.41840   5 ;   C110-   C19-   C18-   C17
  7330   7333   7336   7339      9     0.00   1.25520   3 ;   C110-   C19-   C18-   C17
  7331   7330   7333   7334      9     0.00   0.62760   3 ;   H10R-  C110-   C19-   H9R
  7331   7330   7333   7335      9     0.00   0.62760   3 ;   H10R-  C110-   C19-   H9S
  7331   7330   7333   7336      9     0.00   0.66944   3 ;   H10R-  C110-   C19-   C18
  7332   7330   7333   7334      9     0.00   0.62760   3 ;   H10S-  C110-   C19-   H9R
  7332   7330   7333   7335      9     0.00   0.62760   3 ;   H10S-  C110-   C19-   H9S
  7332   7330   7333   7336      9     0.00   0.66944   3 ;   H10S-  C110-   C19-   C18
  7333   7336   7339   7340      9     0.00   0.66944   3 ;    C19-   C18-   C17-   H7R
  7333   7336   7339   7341      9     0.00   0.66944   3 ;    C19-   C18-   C17-   H7S
  7333   7336   7339   7342      9     0.00   0.41840   1 ;    C19-   C18-   C17-   C16
  7333   7336   7339   7342      9     0.00   0.41840   2 ;    C19-   C18-   C17-   C16
  7333   7336   7339   7342      9     0.00   0.41840   4 ;    C19-   C18-   C17-   C16
  7333   7336   7339   7342      9     0.00   0.41840   5 ;    C19-   C18-   C17-   C16
  7333   7336   7339   7342      9     0.00   1.25520   3 ;    C19-   C18-   C17-   C16
  7334   7333   7336   7337      9     0.00   0.62760   3 ;    H9R-   C19-   C18-   H8R
  7334   7333   7336   7338      9     0.00   0.62760   3 ;    H9R-   C19-   C18-   H8S
  7334   7333   7336   7339      9     0.00   0.66944   3 ;    H9R-   C19-   C18-   C17
  7335   7333   7336   7337      9     0.00   0.62760   3 ;    H9S-   C19-   C18-   H8R
  7335   7333   7336   7338      9     0.00   0.62760   3 ;    H9S-   C19-   C18-   H8S
  7335   7333   7336   7339      9     0.00   0.66944   3 ;    H9S-   C19-   C18-   C17
  7336   7339   7342   7343      9     0.00   0.66944   3 ;    C18-   C17-   C16-   H6R
  7336   7339   7342   7344      9     0.00   0.66944   3 ;    C18-   C17-   C16-   H6S
  7336   7339   7342   7345      9     0.00   0.41840   1 ;    C18-   C17-   C16-   C15
  7336   7339   7342   7345      9     0.00   0.41840   2 ;    C18-   C17-   C16-   C15
  7336   7339   7342   7345      9     0.00   0.41840   4 ;    C18-   C17-   C16-   C15
  7336   7339   7342   7345      9     0.00   0.41840   5 ;    C18-   C17-   C16-   C15
  7336   7339   7342   7345      9     0.00   1.25520   3 ;    C18-   C17-   C16-   C15
  7337   7336   7339   7340      9     0.00   0.62760   3 ;    H8R-   C18-   C17-   H7R
  7337   7336   7339   7341      9     0.00   0.62760   3 ;    H8R-   C18-   C17-   H7S
  7337   7336   7339   7342      9     0.00   0.66944   3 ;    H8R-   C18-   C17-   C16
  7338   7336   7339   7340      9     0.00   0.62760   3 ;    H8S-   C18-   C17-   H7R
  7338   7336   7339   7341      9     0.00   0.62760   3 ;    H8S-   C18-   C17-   H7S
  7338   7336   7339   7342      9     0.00   0.66944   3 ;    H8S-   C18-   C17-   C16
  7339   7342   7345   7346      9     0.00   0.66944   3 ;    C17-   C16-   C15-   H5R
  7339   7342   7345   7347      9     0.00   0.66944   3 ;    C17-   C16-   C15-   H5S
  7339   7342   7345   7348      9     0.00   0.41840   1 ;    C17-   C16-   C15-   C14
  7339   7342   7345   7348      9     0.00   0.41840   2 ;    C17-   C16-   C15-   C14
  7339   7342   7345   7348      9     0.00   0.41840   4 ;    C17-   C16-   C15-   C14
  7339   7342   7345   7348      9     0.00   0.41840   5 ;    C17-   C16-   C15-   C14
  7339   7342   7345   7348      9     0.00   1.25520   3 ;    C17-   C16-   C15-   C14
  7340   7339   7342   7343      9     0.00   0.62760   3 ;    H7R-   C17-   C16-   H6R
  7340   7339   7342   7344      9     0.00   0.62760   3 ;    H7R-   C17-   C16-   H6S
  7340   7339   7342   7345      9     0.00   0.66944   3 ;    H7R-   C17-   C16-   C15
  7341   7339   7342   7343      9     0.00   0.62760   3 ;    H7S-   C17-   C16-   H6R
  7341   7339   7342   7344      9     0.00   0.62760   3 ;    H7S-   C17-   C16-   H6S
  7341   7339   7342   7345      9     0.00   0.66944   3 ;    H7S-   C17-   C16-   C15
  7342   7345   7348   7349      9     0.00   0.66944   3 ;    C16-   C15-   C14-   H4R
  7342   7345   7348   7350      9     0.00   0.66944   3 ;    C16-   C15-   C14-   H4S
  7342   7345   7348   7351      9     0.00   0.41840   1 ;    C16-   C15-   C14-   C13
  7342   7345   7348   7351      9     0.00   0.41840   2 ;    C16-   C15-   C14-   C13
  7342   7345   7348   7351      9     0.00   0.41840   4 ;    C16-   C15-   C14-   C13
  7342   7345   7348   7351      9     0.00   0.41840   5 ;    C16-   C15-   C14-   C13
  7342   7345   7348   7351      9     0.00   1.25520   3 ;    C16-   C15-   C14-   C13
  7343   7342   7345   7346      9     0.00   0.62760   3 ;    H6R-   C16-   C15-   H5R
  7343   7342   7345   7347      9     0.00   0.62760   3 ;    H6R-   C16-   C15-   H5S
  7343   7342   7345   7348      9     0.00   0.66944   3 ;    H6R-   C16-   C15-   C14
  7344   7342   7345   7346      9     0.00   0.62760   3 ;    H6S-   C16-   C15-   H5R
  7344   7342   7345   7347      9     0.00   0.62760   3 ;    H6S-   C16-   C15-   H5S
  7344   7342   7345   7348      9     0.00   0.66944   3 ;    H6S-   C16-   C15-   C14
  7345   7348   7351   7352      9     0.00   0.66944   3 ;    C15-   C14-   C13-   H3R
  7345   7348   7351   7353      9     0.00   0.66944   3 ;    C15-   C14-   C13-   H3S
  7345   7348   7351   7354      9     0.00   0.41840   1 ;    C15-   C14-   C13-   C12
  7345   7348   7351   7354      9     0.00   0.41840   2 ;    C15-   C14-   C13-   C12
  7345   7348   7351   7354      9     0.00   0.41840   4 ;    C15-   C14-   C13-   C12
  7345   7348   7351   7354      9     0.00   0.41840   5 ;    C15-   C14-   C13-   C12
  7345   7348   7351   7354      9     0.00   1.25520   3 ;    C15-   C14-   C13-   C12
  7346   7345   7348   7349      9     0.00   0.62760   3 ;    H5R-   C15-   C14-   H4R
  7346   7345   7348   7350      9     0.00   0.62760   3 ;    H5R-   C15-   C14-   H4S
  7346   7345   7348   7351      9     0.00   0.66944   3 ;    H5R-   C15-   C14-   C13
  7347   7345   7348   7349      9     0.00   0.62760   3 ;    H5S-   C15-   C14-   H4R
  7347   7345   7348   7350      9     0.00   0.62760   3 ;    H5S-   C15-   C14-   H4S
  7347   7345   7348   7351      9     0.00   0.66944   3 ;    H5S-   C15-   C14-   C13
  7348   7351   7354   7355      9     0.00   0.66944   3 ;    C14-   C13-   C12-   H2R
  7348   7351   7354   7356      9     0.00   0.66944   3 ;    C14-   C13-   C12-   H2S
  7348   7351   7354   7357      9     0.00   0.65270   3 ;    C14-   C13-   C12-   C11
  7349   7348   7351   7352      9     0.00   0.62760   3 ;    H4R-   C14-   C13-   H3R
  7349   7348   7351   7353      9     0.00   0.62760   3 ;    H4R-   C14-   C13-   H3S
  7349   7348   7351   7354      9     0.00   0.66944   3 ;    H4R-   C14-   C13-   C12
  7350   7348   7351   7352      9     0.00   0.62760   3 ;    H4S-   C14-   C13-   H3R
  7350   7348   7351   7353      9     0.00   0.62760   3 ;    H4S-   C14-   C13-   H3S
  7350   7348   7351   7354      9     0.00   0.66944   3 ;    H4S-   C14-   C13-   C12
  7351   7354   7357   7358      9   180.00   0.00000   2 ;    C13-   C12-   C11-   O12
  7351   7354   7357   7359      9   180.00   0.00000   2 ;    C13-   C12-   C11-   O11
  7352   7351   7354   7355      9     0.00   0.62760   3 ;    H3R-   C13-   C12-   H2R
  7352   7351   7354   7356      9     0.00   0.62760   3 ;    H3R-   C13-   C12-   H2S
  7352   7351   7354   7357      9     0.00   0.65270   3 ;    H3R-   C13-   C12-   C11
  7353   7351   7354   7355      9     0.00   0.62760   3 ;    H3S-   C13-   C12-   H2R
  7353   7351   7354   7356      9     0.00   0.62760   3 ;    H3S-   C13-   C12-   H2S
  7353   7351   7354   7357      9     0.00   0.65270   3 ;    H3S-   C13-   C12-   C11
  7354   7357   7359   7360      9   180.00  11.29680   2 ;    C12-   C11-   O11-    C1
  7355   7354   7357   7358      9     0.00   3.34720   1 ;    H2R-   C12-   C11-   O12
  7355   7354   7357   7358      9   180.00   0.33472   3 ;    H2R-   C12-   C11-   O12
  7355   7354   7357   7359      9   180.00   0.00000   2 ;    H2R-   C12-   C11-   O11
  7356   7354   7357   7358      9     0.00   3.34720   1 ;    H2S-   C12-   C11-   O12
  7356   7354   7357   7358      9   180.00   0.33472   3 ;    H2S-   C12-   C11-   O12
  7356   7354   7357   7359      9   180.00   0.00000   2 ;    H2S-   C12-   C11-   O11
  7357   7359   7360   7361      9     0.00   1.60247   3 ;    C11-   O11-    C1-    HR
  7357   7359   7360   7362      9     0.00   1.60247   3 ;    C11-   O11-    C1-    HS
  7357   7359   7360   7363      9     0.00  -0.41840   1 ;    C11-   O11-    C1-    C2
  7358   7357   7359   7360      9   180.00   5.85760   1 ;    O12-   C11-   O11-    C1
  7358   7357   7359   7360      9   180.00  11.29680   2 ;    O12-   C11-   O11-    C1
  7359   7360   7363   7364      9     0.00   0.00000   0 ;    O11-    C1-    C2-    HX
  7359   7360   7363   7364      9     0.00   1.04600   1 ;    O11-    C1-    C2-    HX
  7359   7360   7363   7365      9     0.00   0.00000   0 ;    O11-    C1-    C2-    C3
  7359   7360   7363   7365      9     0.00   0.00000   0 ;    O11-    C1-    C2-    C3
  7359   7360   7363   7365      9     0.00   0.00000   0 ;    O11-    C1-    C2-    C3
  7359   7360   7363   7365      9     0.00   0.00000   0 ;    O11-    C1-    C2-    C3
  7359   7360   7363   7365      9     0.00   0.00000   0 ;    O11-    C1-    C2-    C3
  7359   7360   7363   7392      9     0.00   1.25520   2 ;    O11-    C1-    C2-   O21
  7359   7360   7363   7392      9     0.00   4.18400   3 ;    O11-    C1-    C2-   O21
  7359   7360   7363   7392      9   180.00  -0.41840   1 ;    O11-    C1-    C2-   O21
  7360   7363   7365   7366      9     0.00   0.65270   3 ;     C1-    C2-    C3-    HA
  7360   7363   7365   7367      9     0.00   0.65270   3 ;     C1-    C2-    C3-    HB
  7360   7363   7365   7368      9   180.00   3.34720   1 ;     C1-    C2-    C3-   O31
  7360   7363   7392   7393      9     0.00  -0.41840   1 ;     C1-    C2-   O21-   C21
  7361   7360   7363   7364      9     0.00   0.65270   3 ;     HR-    C1-    C2-    HX
  7361   7360   7363   7365      9     0.00   0.65270   3 ;     HR-    C1-    C2-    C3
  7361   7360   7363   7392      9     0.00   0.00000   0 ;     HR-    C1-    C2-   O21
  7361   7360   7363   7392      9     0.00   1.04600   1 ;     HR-    C1-    C2-   O21
  7362   7360   7363   7364      9     0.00   0.65270   3 ;     HS-    C1-    C2-    HX
  7362   7360   7363   7365      9     0.00   0.65270   3 ;     HS-    C1-    C2-    C3
  7362   7360   7363   7392      9     0.00   0.00000   0 ;     HS-    C1-    C2-   O21
  7362   7360   7363   7392      9     0.00   1.04600   1 ;     HS-    C1-    C2-   O21
  7363   7365   7368   7369      9     0.00   0.00000   0 ;     C2-    C3-   O31-   P31
  7363   7365   7368   7369      9   180.00  -3.34720   2 ;     C2-    C3-   O31-   P31
  7363   7392   7393   7394      9   180.00   5.85760   1 ;     C2-   O21-   C21-   O22
  7363   7392   7393   7394      9   180.00  11.29680   2 ;     C2-   O21-   C21-   O22
  7363   7392   7393   7432      9   180.00  11.29680   2 ;     C2-   O21-   C21-   C12
  7364   7363   7365   7366      9     0.00   0.65270   3 ;     HX-    C2-    C3-    HA
  7364   7363   7365   7367      9     0.00   0.65270   3 ;     HX-    C2-    C3-    HB
  7364   7363   7365   7368      9     0.00   0.00000   0 ;     HX-    C2-    C3-   O31
  7364   7363   7365   7368      9     0.00   1.04600   1 ;     HX-    C2-    C3-   O31
  7364   7363   7392   7393      9     0.00   1.60247   3 ;     HX-    C2-   O21-   C21
  7365   7363   7392   7393      9     0.00  -0.41840   1 ;     C3-    C2-   O21-   C21
  7365   7368   7369   7370      9     0.00   2.51040   3 ;     C3-   O31-   P31-   O32
  7365   7368   7369   7370      9     0.00   9.62320   2 ;     C3-   O31-   P31-   O32
  7365   7368   7369   7390      9     0.00   0.00000   0 ;     C3-   O31-   P31-   O33
  7365   7368   7369   7390      9     0.00   0.00000   0 ;     C3-   O31-   P31-   O33
  7365   7368   7369   7390      9     0.00   0.00000   0 ;     C3-   O31-   P31-   O33
  7365   7368   7369   7390      9     0.00   0.00000   0 ;     C3-   O31-   P31-   O33
  7365   7368   7369   7390      9     0.00   0.83680   2 ;     C3-   O31-   P31-   O33
  7365   7368   7369   7391      9     0.00   0.00000   0 ;     C3-   O31-   P31-   O34
  7365   7368   7369   7391      9     0.00   0.00000   0 ;     C3-   O31-   P31-   O34
  7365   7368   7369   7391      9     0.00   0.00000   0 ;     C3-   O31-   P31-   O34
  7365   7368   7369   7391      9     0.00   0.00000   0 ;     C3-   O31-   P31-   O34
  7365   7368   7369   7391      9     0.00   0.83680   2 ;     C3-   O31-   P31-   O34
  7366   7365   7363   7392      9     0.00   0.00000   0 ;     HA-    C3-    C2-   O21
  7366   7365   7363   7392      9     0.00   1.04600   1 ;     HA-    C3-    C2-   O21
  7366   7365   7368   7369      9     0.00   0.00000   0 ;     HA-    C3-   O31-   P31
  7366   7365   7368   7369      9     0.00   0.00000   0 ;     HA-    C3-   O31-   P31
  7366   7365   7368   7369      9     0.00   0.00000   0 ;     HA-    C3-   O31-   P31
  7366   7365   7368   7369      9     0.00   0.00000   0 ;     HA-    C3-   O31-   P31
  7366   7365   7368   7369      9     0.00   1.60247   3 ;     HA-    C3-   O31-   P31
  7367   7365   7363   7392      9     0.00   0.00000   0 ;     HB-    C3-    C2-   O21
  7367   7365   7363   7392      9     0.00   1.04600   1 ;     HB-    C3-    C2-   O21
  7367   7365   7368   7369      9     0.00   0.00000   0 ;     HB-    C3-   O31-   P31
  7367   7365   7368   7369      9     0.00   0.00000   0 ;     HB-    C3-   O31-   P31
  7367   7365   7368   7369      9     0.00   0.00000   0 ;     HB-    C3-   O31-   P31
  7367   7365   7368   7369      9     0.00   0.00000   0 ;     HB-    C3-   O31-   P31
  7367   7365   7368   7369      9     0.00   1.60247   3 ;     HB-    C3-   O31-   P31
  7368   7365   7363   7392      9     0.00   0.00000   0 ;    O31-    C3-    C2-   O21
  7368   7365   7363   7392      9     0.00   0.00000   0 ;    O31-    C3-    C2-   O21
  7368   7365   7363   7392      9     0.00   0.00000   0 ;    O31-    C3-    C2-   O21
  7368   7365   7363   7392      9     0.00   0.00000   0 ;    O31-    C3-    C2-   O21
  7368   7365   7363   7392      9     0.00   0.00000   0 ;    O31-    C3-    C2-   O21
  7368   7369   7370   7371      9     0.00   2.51040   3 ;    O31-   P31-   O32-   C31
  7368   7369   7370   7371      9     0.00   9.62320   2 ;    O31-   P31-   O32-   C31
  7369   7370   7371   7372      9     0.00   0.00000   0 ;    P31-   O32-   C31-   H1A
  7369   7370   7371   7372      9     0.00   0.00000   0 ;    P31-   O32-   C31-   H1A
  7369   7370   7371   7372      9     0.00   0.00000   0 ;    P31-   O32-   C31-   H1A
  7369   7370   7371   7372      9     0.00   0.00000   0 ;    P31-   O32-   C31-   H1A
  7369   7370   7371   7372      9     0.00   1.60247   3 ;    P31-   O32-   C31-   H1A
  7369   7370   7371   7373      9     0.00   0.00000   0 ;    P31-   O32-   C31-   H1B
  7369   7370   7371   7373      9     0.00   0.00000   0 ;    P31-   O32-   C31-   H1B
  7369   7370   7371   7373      9     0.00   0.00000   0 ;    P31-   O32-   C31-   H1B
  7369   7370   7371   7373      9     0.00   0.00000   0 ;    P31-   O32-   C31-   H1B
  7369   7370   7371   7373      9     0.00   1.60247   3 ;    P31-   O32-   C31-   H1B
  7369   7370   7371   7374      9     0.00   0.00000   0 ;    P31-   O32-   C31-   C32
  7369   7370   7371   7374      9   180.00  -3.34720   2 ;    P31-   O32-   C31-   C32
  7370   7371   7374   7375      9     0.00   0.65270   3 ;    O32-   C31-   C32-   H2A
  7370   7371   7374   7376      9     0.00   0.65270   3 ;    O32-   C31-   C32-   H2B
  7370   7371   7374   7377      9     0.00   4.18400   3 ;    O32-   C31-   C32-   N31
  7371   7370   7369   7390      9     0.00   0.00000   0 ;    C31-   O32-   P31-   O33
  7371   7370   7369   7390      9     0.00   0.00000   0 ;    C31-   O32-   P31-   O33
  7371   7370   7369   7390      9     0.00   0.00000   0 ;    C31-   O32-   P31-   O33
  7371   7370   7369   7390      9     0.00   0.00000   0 ;    C31-   O32-   P31-   O33
  7371   7370   7369   7390      9     0.00   0.83680   2 ;    C31-   O32-   P31-   O33
  7371   7370   7369   7391      9     0.00   0.00000   0 ;    C31-   O32-   P31-   O34
  7371   7370   7369   7391      9     0.00   0.00000   0 ;    C31-   O32-   P31-   O34
  7371   7370   7369   7391      9     0.00   0.00000   0 ;    C31-   O32-   P31-   O34
  7371   7370   7369   7391      9     0.00   0.00000   0 ;    C31-   O32-   P31-   O34
  7371   7370   7369   7391      9     0.00   0.83680   2 ;    C31-   O32-   P31-   O34
  7371   7374   7377   7378      9     0.00   0.65270   3 ;    C31-   C32-   N31-   C33
  7371   7374   7377   7382      9     0.00   0.65270   3 ;    C31-   C32-   N31-   C34
  7371   7374   7377   7386      9     0.00   0.65270   3 ;    C31-   C32-   N31-   C35
  7372   7371   7374   7375      9     0.00   0.65270   3 ;    H1A-   C31-   C32-   H2A
  7372   7371   7374   7376      9     0.00   0.65270   3 ;    H1A-   C31-   C32-   H2B
  7372   7371   7374   7377      9     0.00   0.65270   3 ;    H1A-   C31-   C32-   N31
  7373   7371   7374   7375      9     0.00   0.65270   3 ;    H1B-   C31-   C32-   H2A
  7373   7371   7374   7376      9     0.00   0.65270   3 ;    H1B-   C31-   C32-   H2B
  7373   7371   7374   7377      9     0.00   0.65270   3 ;    H1B-   C31-   C32-   N31
  7374   7377   7378   7379      9     0.00   0.65270   3 ;    C32-   N31-   C33-   H3A
  7374   7377   7378   7380      9     0.00   0.65270   3 ;    C32-   N31-   C33-   H3B
  7374   7377   7378   7381      9     0.00   0.65270   3 ;    C32-   N31-   C33-   H3C
  7374   7377   7382   7383      9     0.00   0.65270   3 ;    C32-   N31-   C34-   H4A
  7374   7377   7382   7384      9     0.00   0.65270   3 ;    C32-   N31-   C34-   H4B
  7374   7377   7382   7385      9     0.00   0.65270   3 ;    C32-   N31-   C34-   H4C
  7374   7377   7386   7387      9     0.00   0.65270   3 ;    C32-   N31-   C35-   H5A
  7374   7377   7386   7388      9     0.00   0.65270   3 ;    C32-   N31-   C35-   H5B
  7374   7377   7386   7389      9     0.00   0.65270   3 ;    C32-   N31-   C35-   H5C
  7375   7374   7377   7378      9     0.00   0.65270   3 ;    H2A-   C32-   N31-   C33
  7375   7374   7377   7382      9     0.00   0.65270   3 ;    H2A-   C32-   N31-   C34
  7375   7374   7377   7386      9     0.00   0.65270   3 ;    H2A-   C32-   N31-   C35
  7376   7374   7377   7378      9     0.00   0.65270   3 ;    H2B-   C32-   N31-   C33
  7376   7374   7377   7382      9     0.00   0.65270   3 ;    H2B-   C32-   N31-   C34
  7376   7374   7377   7386      9     0.00   0.65270   3 ;    H2B-   C32-   N31-   C35
  7378   7377   7382   7383      9     0.00   0.65270   3 ;    C33-   N31-   C34-   H4A
  7378   7377   7382   7384      9     0.00   0.65270   3 ;    C33-   N31-   C34-   H4B
  7378   7377   7382   7385      9     0.00   0.65270   3 ;    C33-   N31-   C34-   H4C
  7378   7377   7386   7387      9     0.00   0.65270   3 ;    C33-   N31-   C35-   H5A
  7378   7377   7386   7388      9     0.00   0.65270   3 ;    C33-   N31-   C35-   H5B
  7378   7377   7386   7389      9     0.00   0.65270   3 ;    C33-   N31-   C35-   H5C
  7379   7378   7377   7382      9     0.00   0.65270   3 ;    H3A-   C33-   N31-   C34
  7379   7378   7377   7386      9     0.00   0.65270   3 ;    H3A-   C33-   N31-   C35
  7380   7378   7377   7382      9     0.00   0.65270   3 ;    H3B-   C33-   N31-   C34
  7380   7378   7377   7386      9     0.00   0.65270   3 ;    H3B-   C33-   N31-   C35
  7381   7378   7377   7382      9     0.00   0.65270   3 ;    H3C-   C33-   N31-   C34
  7381   7378   7377   7386      9     0.00   0.65270   3 ;    H3C-   C33-   N31-   C35
  7382   7377   7386   7387      9     0.00   0.65270   3 ;    C34-   N31-   C35-   H5A
  7382   7377   7386   7388      9     0.00   0.65270   3 ;    C34-   N31-   C35-   H5B
  7382   7377   7386   7389      9     0.00   0.65270   3 ;    C34-   N31-   C35-   H5C
  7383   7382   7377   7386      9     0.00   0.65270   3 ;    H4A-   C34-   N31-   C35
  7384   7382   7377   7386      9     0.00   0.65270   3 ;    H4B-   C34-   N31-   C35
  7385   7382   7377   7386      9     0.00   0.65270   3 ;    H4C-   C34-   N31-   C35
  7392   7393   7432   7429      9   180.00   0.00000   2 ;    O21-   C21-   C12-   C13
  7392   7393   7432   7433      9   180.00   0.00000   2 ;    O21-   C21-   C12-   H2R
  7392   7393   7432   7434      9   180.00   0.00000   2 ;    O21-   C21-   C12-   H2S
  7393   7432   7429   7426      9     0.00   0.65270   3 ;    C21-   C12-   C13-   C14
  7393   7432   7429   7430      9     0.00   0.65270   3 ;    C21-   C12-   C13-   H3R
  7393   7432   7429   7431      9     0.00   0.65270   3 ;    C21-   C12-   C13-   H3S
  7394   7393   7432   7429      9   180.00   0.00000   2 ;    O22-   C21-   C12-   C13
  7394   7393   7432   7433      9     0.00   3.34720   1 ;    O22-   C21-   C12-   H2R
  7394   7393   7432   7433      9   180.00   0.33472   3 ;    O22-   C21-   C12-   H2R
  7394   7393   7432   7434      9     0.00   3.34720   1 ;    O22-   C21-   C12-   H2S
  7394   7393   7432   7434      9   180.00   0.33472   3 ;    O22-   C21-   C12-   H2S
  7395   7396   7399   7400      9     0.00   0.62760   3 ;   H14T-  C114-  C113-  H13R
  7395   7396   7399   7401      9     0.00   0.62760   3 ;   H14T-  C114-  C113-  H13S
  7395   7396   7399   7402      9     0.00   0.66944   3 ;   H14T-  C114-  C113-  C112
  7396   7399   7402   7403      9     0.00   0.66944   3 ;   C114-  C113-  C112-  H12R
  7396   7399   7402   7404      9     0.00   0.66944   3 ;   C114-  C113-  C112-  H12S
  7396   7399   7402   7405      9     0.00   0.41840   1 ;   C114-  C113-  C112-  C111
  7396   7399   7402   7405      9     0.00   0.41840   2 ;   C114-  C113-  C112-  C111
  7396   7399   7402   7405      9     0.00   0.41840   4 ;   C114-  C113-  C112-  C111
  7396   7399   7402   7405      9     0.00   0.41840   5 ;   C114-  C113-  C112-  C111
  7396   7399   7402   7405      9     0.00   1.25520   3 ;   C114-  C113-  C112-  C111
  7397   7396   7399   7400      9     0.00   0.62760   3 ;   H14R-  C114-  C113-  H13R
  7397   7396   7399   7401      9     0.00   0.62760   3 ;   H14R-  C114-  C113-  H13S
  7397   7396   7399   7402      9     0.00   0.66944   3 ;   H14R-  C114-  C113-  C112
  7398   7396   7399   7400      9     0.00   0.62760   3 ;   H14S-  C114-  C113-  H13R
  7398   7396   7399   7401      9     0.00   0.62760   3 ;   H14S-  C114-  C113-  H13S
  7398   7396   7399   7402      9     0.00   0.66944   3 ;   H14S-  C114-  C113-  C112
  7399   7402   7405   7406      9     0.00   0.66944   3 ;   C113-  C112-  C111-  H11R
  7399   7402   7405   7407      9     0.00   0.66944   3 ;   C113-  C112-  C111-  H11S
  7399   7402   7405   7408      9     0.00   0.41840   1 ;   C113-  C112-  C111-  C110
  7399   7402   7405   7408      9     0.00   0.41840   2 ;   C113-  C112-  C111-  C110
  7399   7402   7405   7408      9     0.00   0.41840   4 ;   C113-  C112-  C111-  C110
  7399   7402   7405   7408      9     0.00   0.41840   5 ;   C113-  C112-  C111-  C110
  7399   7402   7405   7408      9     0.00   1.25520   3 ;   C113-  C112-  C111-  C110
  7400   7399   7402   7403      9     0.00   0.62760   3 ;   H13R-  C113-  C112-  H12R
  7400   7399   7402   7404      9     0.00   0.62760   3 ;   H13R-  C113-  C112-  H12S
  7400   7399   7402   7405      9     0.00   0.66944   3 ;   H13R-  C113-  C112-  C111
  7401   7399   7402   7403      9     0.00   0.62760   3 ;   H13S-  C113-  C112-  H12R
  7401   7399   7402   7404      9     0.00   0.62760   3 ;   H13S-  C113-  C112-  H12S
  7401   7399   7402   7405      9     0.00   0.66944   3 ;   H13S-  C113-  C112-  C111
  7402   7405   7408   7409      9     0.00   0.66944   3 ;   C112-  C111-  C110-  H10R
  7402   7405   7408   7410      9     0.00   0.66944   3 ;   C112-  C111-  C110-  H10S
  7402   7405   7408   7411      9     0.00   0.41840   1 ;   C112-  C111-  C110-   C19
  7402   7405   7408   7411      9     0.00   0.41840   2 ;   C112-  C111-  C110-   C19
  7402   7405   7408   7411      9     0.00   0.41840   4 ;   C112-  C111-  C110-   C19
  7402   7405   7408   7411      9     0.00   0.41840   5 ;   C112-  C111-  C110-   C19
  7402   7405   7408   7411      9     0.00   1.25520   3 ;   C112-  C111-  C110-   C19
  7403   7402   7405   7406      9     0.00   0.62760   3 ;   H12R-  C112-  C111-  H11R
  7403   7402   7405   7407      9     0.00   0.62760   3 ;   H12R-  C112-  C111-  H11S
  7403   7402   7405   7408      9     0.00   0.66944   3 ;   H12R-  C112-  C111-  C110
  7404   7402   7405   7406      9     0.00   0.62760   3 ;   H12S-  C112-  C111-  H11R
  7404   7402   7405   7407      9     0.00   0.62760   3 ;   H12S-  C112-  C111-  H11S
  7404   7402   7405   7408      9     0.00   0.66944   3 ;   H12S-  C112-  C111-  C110
  7405   7408   7411   7412      9     0.00   0.66944   3 ;   C111-  C110-   C19-   H9R
  7405   7408   7411   7413      9     0.00   0.66944   3 ;   C111-  C110-   C19-   H9S
  7405   7408   7411   7414      9     0.00   0.41840   1 ;   C111-  C110-   C19-   C18
  7405   7408   7411   7414      9     0.00   0.41840   2 ;   C111-  C110-   C19-   C18
  7405   7408   7411   7414      9     0.00   0.41840   4 ;   C111-  C110-   C19-   C18
  7405   7408   7411   7414      9     0.00   0.41840   5 ;   C111-  C110-   C19-   C18
  7405   7408   7411   7414      9     0.00   1.25520   3 ;   C111-  C110-   C19-   C18
  7406   7405   7408   7409      9     0.00   0.62760   3 ;   H11R-  C111-  C110-  H10R
  7406   7405   7408   7410      9     0.00   0.62760   3 ;   H11R-  C111-  C110-  H10S
  7406   7405   7408   7411      9     0.00   0.66944   3 ;   H11R-  C111-  C110-   C19
  7407   7405   7408   7409      9     0.00   0.62760   3 ;   H11S-  C111-  C110-  H10R
  7407   7405   7408   7410      9     0.00   0.62760   3 ;   H11S-  C111-  C110-  H10S
  7407   7405   7408   7411      9     0.00   0.66944   3 ;   H11S-  C111-  C110-   C19
  7408   7411   7414   7415      9     0.00   0.66944   3 ;   C110-   C19-   C18-   H8R
  7408   7411   7414   7416      9     0.00   0.66944   3 ;   C110-   C19-   C18-   H8S
  7408   7411   7414   7417      9     0.00   0.41840   1 ;   C110-   C19-   C18-   C17
  7408   7411   7414   7417      9     0.00   0.41840   2 ;   C110-   C19-   C18-   C17
  7408   7411   7414   7417      9     0.00   0.41840   4 ;   C110-   C19-   C18-   C17
  7408   7411   7414   7417      9     0.00   0.41840   5 ;   C110-   C19-   C18-   C17
  7408   7411   7414   7417      9     0.00   1.25520   3 ;   C110-   C19-   C18-   C17
  7409   7408   7411   7412      9     0.00   0.62760   3 ;   H10R-  C110-   C19-   H9R
  7409   7408   7411   7413      9     0.00   0.62760   3 ;   H10R-  C110-   C19-   H9S
  7409   7408   7411   7414      9     0.00   0.66944   3 ;   H10R-  C110-   C19-   C18
  7410   7408   7411   7412      9     0.00   0.62760   3 ;   H10S-  C110-   C19-   H9R
  7410   7408   7411   7413      9     0.00   0.62760   3 ;   H10S-  C110-   C19-   H9S
  7410   7408   7411   7414      9     0.00   0.66944   3 ;   H10S-  C110-   C19-   C18
  7411   7414   7417   7418      9     0.00   0.66944   3 ;    C19-   C18-   C17-   H7R
  7411   7414   7417   7419      9     0.00   0.66944   3 ;    C19-   C18-   C17-   H7S
  7411   7414   7417   7420      9     0.00   0.41840   1 ;    C19-   C18-   C17-   C16
  7411   7414   7417   7420      9     0.00   0.41840   2 ;    C19-   C18-   C17-   C16
  7411   7414   7417   7420      9     0.00   0.41840   4 ;    C19-   C18-   C17-   C16
  7411   7414   7417   7420      9     0.00   0.41840   5 ;    C19-   C18-   C17-   C16
  7411   7414   7417   7420      9     0.00   1.25520   3 ;    C19-   C18-   C17-   C16
  7412   7411   7414   7415      9     0.00   0.62760   3 ;    H9R-   C19-   C18-   H8R
  7412   7411   7414   7416      9     0.00   0.62760   3 ;    H9R-   C19-   C18-   H8S
  7412   7411   7414   7417      9     0.00   0.66944   3 ;    H9R-   C19-   C18-   C17
  7413   7411   7414   7415      9     0.00   0.62760   3 ;    H9S-   C19-   C18-   H8R
  7413   7411   7414   7416      9     0.00   0.62760   3 ;    H9S-   C19-   C18-   H8S
  7413   7411   7414   7417      9     0.00   0.66944   3 ;    H9S-   C19-   C18-   C17
  7414   7417   7420   7421      9     0.00   0.66944   3 ;    C18-   C17-   C16-   H6R
  7414   7417   7420   7422      9     0.00   0.66944   3 ;    C18-   C17-   C16-   H6S
  7414   7417   7420   7423      9     0.00   0.41840   1 ;    C18-   C17-   C16-   C15
  7414   7417   7420   7423      9     0.00   0.41840   2 ;    C18-   C17-   C16-   C15
  7414   7417   7420   7423      9     0.00   0.41840   4 ;    C18-   C17-   C16-   C15
  7414   7417   7420   7423      9     0.00   0.41840   5 ;    C18-   C17-   C16-   C15
  7414   7417   7420   7423      9     0.00   1.25520   3 ;    C18-   C17-   C16-   C15
  7415   7414   7417   7418      9     0.00   0.62760   3 ;    H8R-   C18-   C17-   H7R
  7415   7414   7417   7419      9     0.00   0.62760   3 ;    H8R-   C18-   C17-   H7S
  7415   7414   7417   7420      9     0.00   0.66944   3 ;    H8R-   C18-   C17-   C16
  7416   7414   7417   7418      9     0.00   0.62760   3 ;    H8S-   C18-   C17-   H7R
  7416   7414   7417   7419      9     0.00   0.62760   3 ;    H8S-   C18-   C17-   H7S
  7416   7414   7417   7420      9     0.00   0.66944   3 ;    H8S-   C18-   C17-   C16
  7417   7420   7423   7424      9     0.00   0.66944   3 ;    C17-   C16-   C15-   H5R
  7417   7420   7423   7425      9     0.00   0.66944   3 ;    C17-   C16-   C15-   H5S
  7417   7420   7423   7426      9     0.00   0.41840   1 ;    C17-   C16-   C15-   C14
  7417   7420   7423   7426      9     0.00   0.41840   2 ;    C17-   C16-   C15-   C14
  7417   7420   7423   7426      9     0.00   0.41840   4 ;    C17-   C16-   C15-   C14
  7417   7420   7423   7426      9     0.00   0.41840   5 ;    C17-   C16-   C15-   C14
  7417   7420   7423   7426      9     0.00   1.25520   3 ;    C17-   C16-   C15-   C14
  7418   7417   7420   7421      9     0.00   0.62760   3 ;    H7R-   C17-   C16-   H6R
  7418   7417   7420   7422      9     0.00   0.62760   3 ;    H7R-   C17-   C16-   H6S
  7418   7417   7420   7423      9     0.00   0.66944   3 ;    H7R-   C17-   C16-   C15
  7419   7417   7420   7421      9     0.00   0.62760   3 ;    H7S-   C17-   C16-   H6R
  7419   7417   7420   7422      9     0.00   0.62760   3 ;    H7S-   C17-   C16-   H6S
  7419   7417   7420   7423      9     0.00   0.66944   3 ;    H7S-   C17-   C16-   C15
  7420   7423   7426   7427      9     0.00   0.66944   3 ;    C16-   C15-   C14-   H4R
  7420   7423   7426   7428      9     0.00   0.66944   3 ;    C16-   C15-   C14-   H4S
  7420   7423   7426   7429      9     0.00   0.41840   1 ;    C16-   C15-   C14-   C13
  7420   7423   7426   7429      9     0.00   0.41840   2 ;    C16-   C15-   C14-   C13
  7420   7423   7426   7429      9     0.00   0.41840   4 ;    C16-   C15-   C14-   C13
  7420   7423   7426   7429      9     0.00   0.41840   5 ;    C16-   C15-   C14-   C13
  7420   7423   7426   7429      9     0.00   1.25520   3 ;    C16-   C15-   C14-   C13
  7421   7420   7423   7424      9     0.00   0.62760   3 ;    H6R-   C16-   C15-   H5R
  7421   7420   7423   7425      9     0.00   0.62760   3 ;    H6R-   C16-   C15-   H5S
  7421   7420   7423   7426      9     0.00   0.66944   3 ;    H6R-   C16-   C15-   C14
  7422   7420   7423   7424      9     0.00   0.62760   3 ;    H6S-   C16-   C15-   H5R
  7422   7420   7423   7425      9     0.00   0.62760   3 ;    H6S-   C16-   C15-   H5S
  7422   7420   7423   7426      9     0.00   0.66944   3 ;    H6S-   C16-   C15-   C14
  7423   7426   7429   7430      9     0.00   0.66944   3 ;    C15-   C14-   C13-   H3R
  7423   7426   7429   7431      9     0.00   0.66944   3 ;    C15-   C14-   C13-   H3S
  7423   7426   7429   7432      9     0.00   0.41840   1 ;    C15-   C14-   C13-   C12
  7423   7426   7429   7432      9     0.00   0.41840   2 ;    C15-   C14-   C13-   C12
  7423   7426   7429   7432      9     0.00   0.41840   4 ;    C15-   C14-   C13-   C12
  7423   7426   7429   7432      9     0.00   0.41840   5 ;    C15-   C14-   C13-   C12
  7423   7426   7429   7432      9     0.00   1.25520   3 ;    C15-   C14-   C13-   C12
  7424   7423   7426   7427      9     0.00   0.62760   3 ;    H5R-   C15-   C14-   H4R
  7424   7423   7426   7428      9     0.00   0.62760   3 ;    H5R-   C15-   C14-   H4S
  7424   7423   7426   7429      9     0.00   0.66944   3 ;    H5R-   C15-   C14-   C13
  7425   7423   7426   7427      9     0.00   0.62760   3 ;    H5S-   C15-   C14-   H4R
  7425   7423   7426   7428      9     0.00   0.62760   3 ;    H5S-   C15-   C14-   H4S
  7425   7423   7426   7429      9     0.00   0.66944   3 ;    H5S-   C15-   C14-   C13
  7426   7429   7432   7433      9     0.00   0.66944   3 ;    C14-   C13-   C12-   H2R
  7426   7429   7432   7434      9     0.00   0.66944   3 ;    C14-   C13-   C12-   H2S
  7427   7426   7429   7430      9     0.00   0.62760   3 ;    H4R-   C14-   C13-   H3R
  7427   7426   7429   7431      9     0.00   0.62760   3 ;    H4R-   C14-   C13-   H3S
  7427   7426   7429   7432      9     0.00   0.66944   3 ;    H4R-   C14-   C13-   C12
  7428   7426   7429   7430      9     0.00   0.62760   3 ;    H4S-   C14-   C13-   H3R
  7428   7426   7429   7431      9     0.00   0.62760   3 ;    H4S-   C14-   C13-   H3S
  7428   7426   7429   7432      9     0.00   0.66944   3 ;    H4S-   C14-   C13-   C12
  7430   7429   7432   7433      9     0.00   0.62760   3 ;    H3R-   C13-   C12-   H2R
  7430   7429   7432   7434      9     0.00   0.62760   3 ;    H3R-   C13-   C12-   H2S
  7431   7429   7432   7433      9     0.00   0.62760   3 ;    H3S-   C13-   C12-   H2R
  7431   7429   7432   7434      9     0.00   0.62760   3 ;    H3S-   C13-   C12-   H2S
  7435   7436   7439   7440      9     0.00   0.62760   3 ;   H14T-  C114-  C113-  H13R
  7435   7436   7439   7441      9     0.00   0.62760   3 ;   H14T-  C114-  C113-  H13S
  7435   7436   7439   7442      9     0.00   0.66944   3 ;   H14T-  C114-  C113-  C112
  7436   7439   7442   7443      9     0.00   0.66944   3 ;   C114-  C113-  C112-  H12R
  7436   7439   7442   7444      9     0.00   0.66944   3 ;   C114-  C113-  C112-  H12S
  7436   7439   7442   7445      9     0.00   0.41840   1 ;   C114-  C113-  C112-  C111
  7436   7439   7442   7445      9     0.00   0.41840   2 ;   C114-  C113-  C112-  C111
  7436   7439   7442   7445      9     0.00   0.41840   4 ;   C114-  C113-  C112-  C111
  7436   7439   7442   7445      9     0.00   0.41840   5 ;   C114-  C113-  C112-  C111
  7436   7439   7442   7445      9     0.00   1.25520   3 ;   C114-  C113-  C112-  C111
  7437   7436   7439   7440      9     0.00   0.62760   3 ;   H14R-  C114-  C113-  H13R
  7437   7436   7439   7441      9     0.00   0.62760   3 ;   H14R-  C114-  C113-  H13S
  7437   7436   7439   7442      9     0.00   0.66944   3 ;   H14R-  C114-  C113-  C112
  7438   7436   7439   7440      9     0.00   0.62760   3 ;   H14S-  C114-  C113-  H13R
  7438   7436   7439   7441      9     0.00   0.62760   3 ;   H14S-  C114-  C113-  H13S
  7438   7436   7439   7442      9     0.00   0.66944   3 ;   H14S-  C114-  C113-  C112
  7439   7442   7445   7446      9     0.00   0.66944   3 ;   C113-  C112-  C111-  H11R
  7439   7442   7445   7447      9     0.00   0.66944   3 ;   C113-  C112-  C111-  H11S
  7439   7442   7445   7448      9     0.00   0.41840   1 ;   C113-  C112-  C111-  C110
  7439   7442   7445   7448      9     0.00   0.41840   2 ;   C113-  C112-  C111-  C110
  7439   7442   7445   7448      9     0.00   0.41840   4 ;   C113-  C112-  C111-  C110
  7439   7442   7445   7448      9     0.00   0.41840   5 ;   C113-  C112-  C111-  C110
  7439   7442   7445   7448      9     0.00   1.25520   3 ;   C113-  C112-  C111-  C110
  7440   7439   7442   7443      9     0.00   0.62760   3 ;   H13R-  C113-  C112-  H12R
  7440   7439   7442   7444      9     0.00   0.62760   3 ;   H13R-  C113-  C112-  H12S
  7440   7439   7442   7445      9     0.00   0.66944   3 ;   H13R-  C113-  C112-  C111
  7441   7439   7442   7443      9     0.00   0.62760   3 ;   H13S-  C113-  C112-  H12R
  7441   7439   7442   7444      9     0.00   0.62760   3 ;   H13S-  C113-  C112-  H12S
  7441   7439   7442   7445      9     0.00   0.66944   3 ;   H13S-  C113-  C112-  C111
  7442   7445   7448   7449      9     0.00   0.66944   3 ;   C112-  C111-  C110-  H10R
  7442   7445   7448   7450      9     0.00   0.66944   3 ;   C112-  C111-  C110-  H10S
  7442   7445   7448   7451      9     0.00   0.41840   1 ;   C112-  C111-  C110-   C19
  7442   7445   7448   7451      9     0.00   0.41840   2 ;   C112-  C111-  C110-   C19
  7442   7445   7448   7451      9     0.00   0.41840   4 ;   C112-  C111-  C110-   C19
  7442   7445   7448   7451      9     0.00   0.41840   5 ;   C112-  C111-  C110-   C19
  7442   7445   7448   7451      9     0.00   1.25520   3 ;   C112-  C111-  C110-   C19
  7443   7442   7445   7446      9     0.00   0.62760   3 ;   H12R-  C112-  C111-  H11R
  7443   7442   7445   7447      9     0.00   0.62760   3 ;   H12R-  C112-  C111-  H11S
  7443   7442   7445   7448      9     0.00   0.66944   3 ;   H12R-  C112-  C111-  C110
  7444   7442   7445   7446      9     0.00   0.62760   3 ;   H12S-  C112-  C111-  H11R
  7444   7442   7445   7447      9     0.00   0.62760   3 ;   H12S-  C112-  C111-  H11S
  7444   7442   7445   7448      9     0.00   0.66944   3 ;   H12S-  C112-  C111-  C110
  7445   7448   7451   7452      9     0.00   0.66944   3 ;   C111-  C110-   C19-   H9R
  7445   7448   7451   7453      9     0.00   0.66944   3 ;   C111-  C110-   C19-   H9S
  7445   7448   7451   7454      9     0.00   0.41840   1 ;   C111-  C110-   C19-   C18
  7445   7448   7451   7454      9     0.00   0.41840   2 ;   C111-  C110-   C19-   C18
  7445   7448   7451   7454      9     0.00   0.41840   4 ;   C111-  C110-   C19-   C18
  7445   7448   7451   7454      9     0.00   0.41840   5 ;   C111-  C110-   C19-   C18
  7445   7448   7451   7454      9     0.00   1.25520   3 ;   C111-  C110-   C19-   C18
  7446   7445   7448   7449      9     0.00   0.62760   3 ;   H11R-  C111-  C110-  H10R
  7446   7445   7448   7450      9     0.00   0.62760   3 ;   H11R-  C111-  C110-  H10S
  7446   7445   7448   7451      9     0.00   0.66944   3 ;   H11R-  C111-  C110-   C19
  7447   7445   7448   7449      9     0.00   0.62760   3 ;   H11S-  C111-  C110-  H10R
  7447   7445   7448   7450      9     0.00   0.62760   3 ;   H11S-  C111-  C110-  H10S
  7447   7445   7448   7451      9     0.00   0.66944   3 ;   H11S-  C111-  C110-   C19
  7448   7451   7454   7455      9     0.00   0.66944   3 ;   C110-   C19-   C18-   H8R
  7448   7451   7454   7456      9     0.00   0.66944   3 ;   C110-   C19-   C18-   H8S
  7448   7451   7454   7457      9     0.00   0.41840   1 ;   C110-   C19-   C18-   C17
  7448   7451   7454   7457      9     0.00   0.41840   2 ;   C110-   C19-   C18-   C17
  7448   7451   7454   7457      9     0.00   0.41840   4 ;   C110-   C19-   C18-   C17
  7448   7451   7454   7457      9     0.00   0.41840   5 ;   C110-   C19-   C18-   C17
  7448   7451   7454   7457      9     0.00   1.25520   3 ;   C110-   C19-   C18-   C17
  7449   7448   7451   7452      9     0.00   0.62760   3 ;   H10R-  C110-   C19-   H9R
  7449   7448   7451   7453      9     0.00   0.62760   3 ;   H10R-  C110-   C19-   H9S
  7449   7448   7451   7454      9     0.00   0.66944   3 ;   H10R-  C110-   C19-   C18
  7450   7448   7451   7452      9     0.00   0.62760   3 ;   H10S-  C110-   C19-   H9R
  7450   7448   7451   7453      9     0.00   0.62760   3 ;   H10S-  C110-   C19-   H9S
  7450   7448   7451   7454      9     0.00   0.66944   3 ;   H10S-  C110-   C19-   C18
  7451   7454   7457   7458      9     0.00   0.66944   3 ;    C19-   C18-   C17-   H7R
  7451   7454   7457   7459      9     0.00   0.66944   3 ;    C19-   C18-   C17-   H7S
  7451   7454   7457   7460      9     0.00   0.41840   1 ;    C19-   C18-   C17-   C16
  7451   7454   7457   7460      9     0.00   0.41840   2 ;    C19-   C18-   C17-   C16
  7451   7454   7457   7460      9     0.00   0.41840   4 ;    C19-   C18-   C17-   C16
  7451   7454   7457   7460      9     0.00   0.41840   5 ;    C19-   C18-   C17-   C16
  7451   7454   7457   7460      9     0.00   1.25520   3 ;    C19-   C18-   C17-   C16
  7452   7451   7454   7455      9     0.00   0.62760   3 ;    H9R-   C19-   C18-   H8R
  7452   7451   7454   7456      9     0.00   0.62760   3 ;    H9R-   C19-   C18-   H8S
  7452   7451   7454   7457      9     0.00   0.66944   3 ;    H9R-   C19-   C18-   C17
  7453   7451   7454   7455      9     0.00   0.62760   3 ;    H9S-   C19-   C18-   H8R
  7453   7451   7454   7456      9     0.00   0.62760   3 ;    H9S-   C19-   C18-   H8S
  7453   7451   7454   7457      9     0.00   0.66944   3 ;    H9S-   C19-   C18-   C17
  7454   7457   7460   7461      9     0.00   0.66944   3 ;    C18-   C17-   C16-   H6R
  7454   7457   7460   7462      9     0.00   0.66944   3 ;    C18-   C17-   C16-   H6S
  7454   7457   7460   7463      9     0.00   0.41840   1 ;    C18-   C17-   C16-   C15
  7454   7457   7460   7463      9     0.00   0.41840   2 ;    C18-   C17-   C16-   C15
  7454   7457   7460   7463      9     0.00   0.41840   4 ;    C18-   C17-   C16-   C15
  7454   7457   7460   7463      9     0.00   0.41840   5 ;    C18-   C17-   C16-   C15
  7454   7457   7460   7463      9     0.00   1.25520   3 ;    C18-   C17-   C16-   C15
  7455   7454   7457   7458      9     0.00   0.62760   3 ;    H8R-   C18-   C17-   H7R
  7455   7454   7457   7459      9     0.00   0.62760   3 ;    H8R-   C18-   C17-   H7S
  7455   7454   7457   7460      9     0.00   0.66944   3 ;    H8R-   C18-   C17-   C16
  7456   7454   7457   7458      9     0.00   0.62760   3 ;    H8S-   C18-   C17-   H7R
  7456   7454   7457   7459      9     0.00   0.62760   3 ;    H8S-   C18-   C17-   H7S
  7456   7454   7457   7460      9     0.00   0.66944   3 ;    H8S-   C18-   C17-   C16
  7457   7460   7463   7464      9     0.00   0.66944   3 ;    C17-   C16-   C15-   H5R
  7457   7460   7463   7465      9     0.00   0.66944   3 ;    C17-   C16-   C15-   H5S
  7457   7460   7463   7466      9     0.00   0.41840   1 ;    C17-   C16-   C15-   C14
  7457   7460   7463   7466      9     0.00   0.41840   2 ;    C17-   C16-   C15-   C14
  7457   7460   7463   7466      9     0.00   0.41840   4 ;    C17-   C16-   C15-   C14
  7457   7460   7463   7466      9     0.00   0.41840   5 ;    C17-   C16-   C15-   C14
  7457   7460   7463   7466      9     0.00   1.25520   3 ;    C17-   C16-   C15-   C14
  7458   7457   7460   7461      9     0.00   0.62760   3 ;    H7R-   C17-   C16-   H6R
  7458   7457   7460   7462      9     0.00   0.62760   3 ;    H7R-   C17-   C16-   H6S
  7458   7457   7460   7463      9     0.00   0.66944   3 ;    H7R-   C17-   C16-   C15
  7459   7457   7460   7461      9     0.00   0.62760   3 ;    H7S-   C17-   C16-   H6R
  7459   7457   7460   7462      9     0.00   0.62760   3 ;    H7S-   C17-   C16-   H6S
  7459   7457   7460   7463      9     0.00   0.66944   3 ;    H7S-   C17-   C16-   C15
  7460   7463   7466   7467      9     0.00   0.66944   3 ;    C16-   C15-   C14-   H4R
  7460   7463   7466   7468      9     0.00   0.66944   3 ;    C16-   C15-   C14-   H4S
  7460   7463   7466   7469      9     0.00   0.41840   1 ;    C16-   C15-   C14-   C13
  7460   7463   7466   7469      9     0.00   0.41840   2 ;    C16-   C15-   C14-   C13
  7460   7463   7466   7469      9     0.00   0.41840   4 ;    C16-   C15-   C14-   C13
  7460   7463   7466   7469      9     0.00   0.41840   5 ;    C16-   C15-   C14-   C13
  7460   7463   7466   7469      9     0.00   1.25520   3 ;    C16-   C15-   C14-   C13
  7461   7460   7463   7464      9     0.00   0.62760   3 ;    H6R-   C16-   C15-   H5R
  7461   7460   7463   7465      9     0.00   0.62760   3 ;    H6R-   C16-   C15-   H5S
  7461   7460   7463   7466      9     0.00   0.66944   3 ;    H6R-   C16-   C15-   C14
  7462   7460   7463   7464      9     0.00   0.62760   3 ;    H6S-   C16-   C15-   H5R
  7462   7460   7463   7465      9     0.00   0.62760   3 ;    H6S-   C16-   C15-   H5S
  7462   7460   7463   7466      9     0.00   0.66944   3 ;    H6S-   C16-   C15-   C14
  7463   7466   7469   7470      9     0.00   0.66944   3 ;    C15-   C14-   C13-   H3R
  7463   7466   7469   7471      9     0.00   0.66944   3 ;    C15-   C14-   C13-   H3S
  7463   7466   7469   7472      9     0.00   0.41840   1 ;    C15-   C14-   C13-   C12
  7463   7466   7469   7472      9     0.00   0.41840   2 ;    C15-   C14-   C13-   C12
  7463   7466   7469   7472      9     0.00   0.41840   4 ;    C15-   C14-   C13-   C12
  7463   7466   7469   7472      9     0.00   0.41840   5 ;    C15-   C14-   C13-   C12
  7463   7466   7469   7472      9     0.00   1.25520   3 ;    C15-   C14-   C13-   C12
  7464   7463   7466   7467      9     0.00   0.62760   3 ;    H5R-   C15-   C14-   H4R
  7464   7463   7466   7468      9     0.00   0.62760   3 ;    H5R-   C15-   C14-   H4S
  7464   7463   7466   7469      9     0.00   0.66944   3 ;    H5R-   C15-   C14-   C13
  7465   7463   7466   7467      9     0.00   0.62760   3 ;    H5S-   C15-   C14-   H4R
  7465   7463   7466   7468      9     0.00   0.62760   3 ;    H5S-   C15-   C14-   H4S
  7465   7463   7466   7469      9     0.00   0.66944   3 ;    H5S-   C15-   C14-   C13
  7466   7469   7472   7473      9     0.00   0.66944   3 ;    C14-   C13-   C12-   H2R
  7466   7469   7472   7474      9     0.00   0.66944   3 ;    C14-   C13-   C12-   H2S
  7466   7469   7472   7475      9     0.00   0.65270   3 ;    C14-   C13-   C12-   C11
  7467   7466   7469   7470      9     0.00   0.62760   3 ;    H4R-   C14-   C13-   H3R
  7467   7466   7469   7471      9     0.00   0.62760   3 ;    H4R-   C14-   C13-   H3S
  7467   7466   7469   7472      9     0.00   0.66944   3 ;    H4R-   C14-   C13-   C12
  7468   7466   7469   7470      9     0.00   0.62760   3 ;    H4S-   C14-   C13-   H3R
  7468   7466   7469   7471      9     0.00   0.62760   3 ;    H4S-   C14-   C13-   H3S
  7468   7466   7469   7472      9     0.00   0.66944   3 ;    H4S-   C14-   C13-   C12
  7469   7472   7475   7476      9   180.00   0.00000   2 ;    C13-   C12-   C11-   O12
  7469   7472   7475   7477      9   180.00   0.00000   2 ;    C13-   C12-   C11-   O11
  7470   7469   7472   7473      9     0.00   0.62760   3 ;    H3R-   C13-   C12-   H2R
  7470   7469   7472   7474      9     0.00   0.62760   3 ;    H3R-   C13-   C12-   H2S
  7470   7469   7472   7475      9     0.00   0.65270   3 ;    H3R-   C13-   C12-   C11
  7471   7469   7472   7473      9     0.00   0.62760   3 ;    H3S-   C13-   C12-   H2R
  7471   7469   7472   7474      9     0.00   0.62760   3 ;    H3S-   C13-   C12-   H2S
  7471   7469   7472   7475      9     0.00   0.65270   3 ;    H3S-   C13-   C12-   C11
  7472   7475   7477   7478      9   180.00  11.29680   2 ;    C12-   C11-   O11-    C1
  7473   7472   7475   7476      9     0.00   3.34720   1 ;    H2R-   C12-   C11-   O12
  7473   7472   7475   7476      9   180.00   0.33472   3 ;    H2R-   C12-   C11-   O12
  7473   7472   7475   7477      9   180.00   0.00000   2 ;    H2R-   C12-   C11-   O11
  7474   7472   7475   7476      9     0.00   3.34720   1 ;    H2S-   C12-   C11-   O12
  7474   7472   7475   7476      9   180.00   0.33472   3 ;    H2S-   C12-   C11-   O12
  7474   7472   7475   7477      9   180.00   0.00000   2 ;    H2S-   C12-   C11-   O11
  7475   7477   7478   7479      9     0.00   1.60247   3 ;    C11-   O11-    C1-    HR
  7475   7477   7478   7480      9     0.00   1.60247   3 ;    C11-   O11-    C1-    HS
  7475   7477   7478   7481      9     0.00  -0.41840   1 ;    C11-   O11-    C1-    C2
  7476   7475   7477   7478      9   180.00   5.85760   1 ;    O12-   C11-   O11-    C1
  7476   7475   7477   7478      9   180.00  11.29680   2 ;    O12-   C11-   O11-    C1
  7477   7478   7481   7482      9     0.00   0.00000   0 ;    O11-    C1-    C2-    HX
  7477   7478   7481   7482      9     0.00   1.04600   1 ;    O11-    C1-    C2-    HX
  7477   7478   7481   7483      9     0.00   0.00000   0 ;    O11-    C1-    C2-    C3
  7477   7478   7481   7483      9     0.00   0.00000   0 ;    O11-    C1-    C2-    C3
  7477   7478   7481   7483      9     0.00   0.00000   0 ;    O11-    C1-    C2-    C3
  7477   7478   7481   7483      9     0.00   0.00000   0 ;    O11-    C1-    C2-    C3
  7477   7478   7481   7483      9     0.00   0.00000   0 ;    O11-    C1-    C2-    C3
  7477   7478   7481   7510      9     0.00   1.25520   2 ;    O11-    C1-    C2-   O21
  7477   7478   7481   7510      9     0.00   4.18400   3 ;    O11-    C1-    C2-   O21
  7477   7478   7481   7510      9   180.00  -0.41840   1 ;    O11-    C1-    C2-   O21
  7478   7481   7483   7484      9     0.00   0.65270   3 ;     C1-    C2-    C3-    HA
  7478   7481   7483   7485      9     0.00   0.65270   3 ;     C1-    C2-    C3-    HB
  7478   7481   7483   7486      9   180.00   3.34720   1 ;     C1-    C2-    C3-   O31
  7478   7481   7510   7511      9     0.00  -0.41840   1 ;     C1-    C2-   O21-   C21
  7479   7478   7481   7482      9     0.00   0.65270   3 ;     HR-    C1-    C2-    HX
  7479   7478   7481   7483      9     0.00   0.65270   3 ;     HR-    C1-    C2-    C3
  7479   7478   7481   7510      9     0.00   0.00000   0 ;     HR-    C1-    C2-   O21
  7479   7478   7481   7510      9     0.00   1.04600   1 ;     HR-    C1-    C2-   O21
  7480   7478   7481   7482      9     0.00   0.65270   3 ;     HS-    C1-    C2-    HX
  7480   7478   7481   7483      9     0.00   0.65270   3 ;     HS-    C1-    C2-    C3
  7480   7478   7481   7510      9     0.00   0.00000   0 ;     HS-    C1-    C2-   O21
  7480   7478   7481   7510      9     0.00   1.04600   1 ;     HS-    C1-    C2-   O21
  7481   7483   7486   7487      9     0.00   0.00000   0 ;     C2-    C3-   O31-   P31
  7481   7483   7486   7487      9   180.00  -3.34720   2 ;     C2-    C3-   O31-   P31
  7481   7510   7511   7512      9   180.00   5.85760   1 ;     C2-   O21-   C21-   O22
  7481   7510   7511   7512      9   180.00  11.29680   2 ;     C2-   O21-   C21-   O22
  7481   7510   7511   7550      9   180.00  11.29680   2 ;     C2-   O21-   C21-   C12
  7482   7481   7483   7484      9     0.00   0.65270   3 ;     HX-    C2-    C3-    HA
  7482   7481   7483   7485      9     0.00   0.65270   3 ;     HX-    C2-    C3-    HB
  7482   7481   7483   7486      9     0.00   0.00000   0 ;     HX-    C2-    C3-   O31
  7482   7481   7483   7486      9     0.00   1.04600   1 ;     HX-    C2-    C3-   O31
  7482   7481   7510   7511      9     0.00   1.60247   3 ;     HX-    C2-   O21-   C21
  7483   7481   7510   7511      9     0.00  -0.41840   1 ;     C3-    C2-   O21-   C21
  7483   7486   7487   7488      9     0.00   2.51040   3 ;     C3-   O31-   P31-   O32
  7483   7486   7487   7488      9     0.00   9.62320   2 ;     C3-   O31-   P31-   O32
  7483   7486   7487   7508      9     0.00   0.00000   0 ;     C3-   O31-   P31-   O33
  7483   7486   7487   7508      9     0.00   0.00000   0 ;     C3-   O31-   P31-   O33
  7483   7486   7487   7508      9     0.00   0.00000   0 ;     C3-   O31-   P31-   O33
  7483   7486   7487   7508      9     0.00   0.00000   0 ;     C3-   O31-   P31-   O33
  7483   7486   7487   7508      9     0.00   0.83680   2 ;     C3-   O31-   P31-   O33
  7483   7486   7487   7509      9     0.00   0.00000   0 ;     C3-   O31-   P31-   O34
  7483   7486   7487   7509      9     0.00   0.00000   0 ;     C3-   O31-   P31-   O34
  7483   7486   7487   7509      9     0.00   0.00000   0 ;     C3-   O31-   P31-   O34
  7483   7486   7487   7509      9     0.00   0.00000   0 ;     C3-   O31-   P31-   O34
  7483   7486   7487   7509      9     0.00   0.83680   2 ;     C3-   O31-   P31-   O34
  7484   7483   7481   7510      9     0.00   0.00000   0 ;     HA-    C3-    C2-   O21
  7484   7483   7481   7510      9     0.00   1.04600   1 ;     HA-    C3-    C2-   O21
  7484   7483   7486   7487      9     0.00   0.00000   0 ;     HA-    C3-   O31-   P31
  7484   7483   7486   7487      9     0.00   0.00000   0 ;     HA-    C3-   O31-   P31
  7484   7483   7486   7487      9     0.00   0.00000   0 ;     HA-    C3-   O31-   P31
  7484   7483   7486   7487      9     0.00   0.00000   0 ;     HA-    C3-   O31-   P31
  7484   7483   7486   7487      9     0.00   1.60247   3 ;     HA-    C3-   O31-   P31
  7485   7483   7481   7510      9     0.00   0.00000   0 ;     HB-    C3-    C2-   O21
  7485   7483   7481   7510      9     0.00   1.04600   1 ;     HB-    C3-    C2-   O21
  7485   7483   7486   7487      9     0.00   0.00000   0 ;     HB-    C3-   O31-   P31
  7485   7483   7486   7487      9     0.00   0.00000   0 ;     HB-    C3-   O31-   P31
  7485   7483   7486   7487      9     0.00   0.00000   0 ;     HB-    C3-   O31-   P31
  7485   7483   7486   7487      9     0.00   0.00000   0 ;     HB-    C3-   O31-   P31
  7485   7483   7486   7487      9     0.00   1.60247   3 ;     HB-    C3-   O31-   P31
  7486   7483   7481   7510      9     0.00   0.00000   0 ;    O31-    C3-    C2-   O21
  7486   7483   7481   7510      9     0.00   0.00000   0 ;    O31-    C3-    C2-   O21
  7486   7483   7481   7510      9     0.00   0.00000   0 ;    O31-    C3-    C2-   O21
  7486   7483   7481   7510      9     0.00   0.00000   0 ;    O31-    C3-    C2-   O21
  7486   7483   7481   7510      9     0.00   0.00000   0 ;    O31-    C3-    C2-   O21
  7486   7487   7488   7489      9     0.00   2.51040   3 ;    O31-   P31-   O32-   C31
  7486   7487   7488   7489      9     0.00   9.62320   2 ;    O31-   P31-   O32-   C31
  7487   7488   7489   7490      9     0.00   0.00000   0 ;    P31-   O32-   C31-   H1A
  7487   7488   7489   7490      9     0.00   0.00000   0 ;    P31-   O32-   C31-   H1A
  7487   7488   7489   7490      9     0.00   0.00000   0 ;    P31-   O32-   C31-   H1A
  7487   7488   7489   7490      9     0.00   0.00000   0 ;    P31-   O32-   C31-   H1A
  7487   7488   7489   7490      9     0.00   1.60247   3 ;    P31-   O32-   C31-   H1A
  7487   7488   7489   7491      9     0.00   0.00000   0 ;    P31-   O32-   C31-   H1B
  7487   7488   7489   7491      9     0.00   0.00000   0 ;    P31-   O32-   C31-   H1B
  7487   7488   7489   7491      9     0.00   0.00000   0 ;    P31-   O32-   C31-   H1B
  7487   7488   7489   7491      9     0.00   0.00000   0 ;    P31-   O32-   C31-   H1B
  7487   7488   7489   7491      9     0.00   1.60247   3 ;    P31-   O32-   C31-   H1B
  7487   7488   7489   7492      9     0.00   0.00000   0 ;    P31-   O32-   C31-   C32
  7487   7488   7489   7492      9   180.00  -3.34720   2 ;    P31-   O32-   C31-   C32
  7488   7489   7492   7493      9     0.00   0.65270   3 ;    O32-   C31-   C32-   H2A
  7488   7489   7492   7494      9     0.00   0.65270   3 ;    O32-   C31-   C32-   H2B
  7488   7489   7492   7495      9     0.00   4.18400   3 ;    O32-   C31-   C32-   N31
  7489   7488   7487   7508      9     0.00   0.00000   0 ;    C31-   O32-   P31-   O33
  7489   7488   7487   7508      9     0.00   0.00000   0 ;    C31-   O32-   P31-   O33
  7489   7488   7487   7508      9     0.00   0.00000   0 ;    C31-   O32-   P31-   O33
  7489   7488   7487   7508      9     0.00   0.00000   0 ;    C31-   O32-   P31-   O33
  7489   7488   7487   7508      9     0.00   0.83680   2 ;    C31-   O32-   P31-   O33
  7489   7488   7487   7509      9     0.00   0.00000   0 ;    C31-   O32-   P31-   O34
  7489   7488   7487   7509      9     0.00   0.00000   0 ;    C31-   O32-   P31-   O34
  7489   7488   7487   7509      9     0.00   0.00000   0 ;    C31-   O32-   P31-   O34
  7489   7488   7487   7509      9     0.00   0.00000   0 ;    C31-   O32-   P31-   O34
  7489   7488   7487   7509      9     0.00   0.83680   2 ;    C31-   O32-   P31-   O34
  7489   7492   7495   7496      9     0.00   0.65270   3 ;    C31-   C32-   N31-   C33
  7489   7492   7495   7500      9     0.00   0.65270   3 ;    C31-   C32-   N31-   C34
  7489   7492   7495   7504      9     0.00   0.65270   3 ;    C31-   C32-   N31-   C35
  7490   7489   7492   7493      9     0.00   0.65270   3 ;    H1A-   C31-   C32-   H2A
  7490   7489   7492   7494      9     0.00   0.65270   3 ;    H1A-   C31-   C32-   H2B
  7490   7489   7492   7495      9     0.00   0.65270   3 ;    H1A-   C31-   C32-   N31
  7491   7489   7492   7493      9     0.00   0.65270   3 ;    H1B-   C31-   C32-   H2A
  7491   7489   7492   7494      9     0.00   0.65270   3 ;    H1B-   C31-   C32-   H2B
  7491   7489   7492   7495      9     0.00   0.65270   3 ;    H1B-   C31-   C32-   N31
  7492   7495   7496   7497      9     0.00   0.65270   3 ;    C32-   N31-   C33-   H3A
  7492   7495   7496   7498      9     0.00   0.65270   3 ;    C32-   N31-   C33-   H3B
  7492   7495   7496   7499      9     0.00   0.65270   3 ;    C32-   N31-   C33-   H3C
  7492   7495   7500   7501      9     0.00   0.65270   3 ;    C32-   N31-   C34-   H4A
  7492   7495   7500   7502      9     0.00   0.65270   3 ;    C32-   N31-   C34-   H4B
  7492   7495   7500   7503      9     0.00   0.65270   3 ;    C32-   N31-   C34-   H4C
  7492   7495   7504   7505      9     0.00   0.65270   3 ;    C32-   N31-   C35-   H5A
  7492   7495   7504   7506      9     0.00   0.65270   3 ;    C32-   N31-   C35-   H5B
  7492   7495   7504   7507      9     0.00   0.65270   3 ;    C32-   N31-   C35-   H5C
  7493   7492   7495   7496      9     0.00   0.65270   3 ;    H2A-   C32-   N31-   C33
  7493   7492   7495   7500      9     0.00   0.65270   3 ;    H2A-   C32-   N31-   C34
  7493   7492   7495   7504      9     0.00   0.65270   3 ;    H2A-   C32-   N31-   C35
  7494   7492   7495   7496      9     0.00   0.65270   3 ;    H2B-   C32-   N31-   C33
  7494   7492   7495   7500      9     0.00   0.65270   3 ;    H2B-   C32-   N31-   C34
  7494   7492   7495   7504      9     0.00   0.65270   3 ;    H2B-   C32-   N31-   C35
  7496   7495   7500   7501      9     0.00   0.65270   3 ;    C33-   N31-   C34-   H4A
  7496   7495   7500   7502      9     0.00   0.65270   3 ;    C33-   N31-   C34-   H4B
  7496   7495   7500   7503      9     0.00   0.65270   3 ;    C33-   N31-   C34-   H4C
  7496   7495   7504   7505      9     0.00   0.65270   3 ;    C33-   N31-   C35-   H5A
  7496   7495   7504   7506      9     0.00   0.65270   3 ;    C33-   N31-   C35-   H5B
  7496   7495   7504   7507      9     0.00   0.65270   3 ;    C33-   N31-   C35-   H5C
  7497   7496   7495   7500      9     0.00   0.65270   3 ;    H3A-   C33-   N31-   C34
  7497   7496   7495   7504      9     0.00   0.65270   3 ;    H3A-   C33-   N31-   C35
  7498   7496   7495   7500      9     0.00   0.65270   3 ;    H3B-   C33-   N31-   C34
  7498   7496   7495   7504      9     0.00   0.65270   3 ;    H3B-   C33-   N31-   C35
  7499   7496   7495   7500      9     0.00   0.65270   3 ;    H3C-   C33-   N31-   C34
  7499   7496   7495   7504      9     0.00   0.65270   3 ;    H3C-   C33-   N31-   C35
  7500   7495   7504   7505      9     0.00   0.65270   3 ;    C34-   N31-   C35-   H5A
  7500   7495   7504   7506      9     0.00   0.65270   3 ;    C34-   N31-   C35-   H5B
  7500   7495   7504   7507      9     0.00   0.65270   3 ;    C34-   N31-   C35-   H5C
  7501   7500   7495   7504      9     0.00   0.65270   3 ;    H4A-   C34-   N31-   C35
  7502   7500   7495   7504      9     0.00   0.65270   3 ;    H4B-   C34-   N31-   C35
  7503   7500   7495   7504      9     0.00   0.65270   3 ;    H4C-   C34-   N31-   C35
  7510   7511   7550   7547      9   180.00   0.00000   2 ;    O21-   C21-   C12-   C13
  7510   7511   7550   7551      9   180.00   0.00000   2 ;    O21-   C21-   C12-   H2R
  7510   7511   7550   7552      9   180.00   0.00000   2 ;    O21-   C21-   C12-   H2S
  7511   7550   7547   7544      9     0.00   0.65270   3 ;    C21-   C12-   C13-   C14
  7511   7550   7547   7548      9     0.00   0.65270   3 ;    C21-   C12-   C13-   H3R
  7511   7550   7547   7549      9     0.00   0.65270   3 ;    C21-   C12-   C13-   H3S
  7512   7511   7550   7547      9   180.00   0.00000   2 ;    O22-   C21-   C12-   C13
  7512   7511   7550   7551      9     0.00   3.34720   1 ;    O22-   C21-   C12-   H2R
  7512   7511   7550   7551      9   180.00   0.33472   3 ;    O22-   C21-   C12-   H2R
  7512   7511   7550   7552      9     0.00   3.34720   1 ;    O22-   C21-   C12-   H2S
  7512   7511   7550   7552      9   180.00   0.33472   3 ;    O22-   C21-   C12-   H2S
  7513   7514   7517   7518      9     0.00   0.62760   3 ;   H14T-  C114-  C113-  H13R
  7513   7514   7517   7519      9     0.00   0.62760   3 ;   H14T-  C114-  C113-  H13S
  7513   7514   7517   7520      9     0.00   0.66944   3 ;   H14T-  C114-  C113-  C112
  7514   7517   7520   7521      9     0.00   0.66944   3 ;   C114-  C113-  C112-  H12R
  7514   7517   7520   7522      9     0.00   0.66944   3 ;   C114-  C113-  C112-  H12S
  7514   7517   7520   7523      9     0.00   0.41840   1 ;   C114-  C113-  C112-  C111
  7514   7517   7520   7523      9     0.00   0.41840   2 ;   C114-  C113-  C112-  C111
  7514   7517   7520   7523      9     0.00   0.41840   4 ;   C114-  C113-  C112-  C111
  7514   7517   7520   7523      9     0.00   0.41840   5 ;   C114-  C113-  C112-  C111
  7514   7517   7520   7523      9     0.00   1.25520   3 ;   C114-  C113-  C112-  C111
  7515   7514   7517   7518      9     0.00   0.62760   3 ;   H14R-  C114-  C113-  H13R
  7515   7514   7517   7519      9     0.00   0.62760   3 ;   H14R-  C114-  C113-  H13S
  7515   7514   7517   7520      9     0.00   0.66944   3 ;   H14R-  C114-  C113-  C112
  7516   7514   7517   7518      9     0.00   0.62760   3 ;   H14S-  C114-  C113-  H13R
  7516   7514   7517   7519      9     0.00   0.62760   3 ;   H14S-  C114-  C113-  H13S
  7516   7514   7517   7520      9     0.00   0.66944   3 ;   H14S-  C114-  C113-  C112
  7517   7520   7523   7524      9     0.00   0.66944   3 ;   C113-  C112-  C111-  H11R
  7517   7520   7523   7525      9     0.00   0.66944   3 ;   C113-  C112-  C111-  H11S
  7517   7520   7523   7526      9     0.00   0.41840   1 ;   C113-  C112-  C111-  C110
  7517   7520   7523   7526      9     0.00   0.41840   2 ;   C113-  C112-  C111-  C110
  7517   7520   7523   7526      9     0.00   0.41840   4 ;   C113-  C112-  C111-  C110
  7517   7520   7523   7526      9     0.00   0.41840   5 ;   C113-  C112-  C111-  C110
  7517   7520   7523   7526      9     0.00   1.25520   3 ;   C113-  C112-  C111-  C110
  7518   7517   7520   7521      9     0.00   0.62760   3 ;   H13R-  C113-  C112-  H12R
  7518   7517   7520   7522      9     0.00   0.62760   3 ;   H13R-  C113-  C112-  H12S
  7518   7517   7520   7523      9     0.00   0.66944   3 ;   H13R-  C113-  C112-  C111
  7519   7517   7520   7521      9     0.00   0.62760   3 ;   H13S-  C113-  C112-  H12R
  7519   7517   7520   7522      9     0.00   0.62760   3 ;   H13S-  C113-  C112-  H12S
  7519   7517   7520   7523      9     0.00   0.66944   3 ;   H13S-  C113-  C112-  C111
  7520   7523   7526   7527      9     0.00   0.66944   3 ;   C112-  C111-  C110-  H10R
  7520   7523   7526   7528      9     0.00   0.66944   3 ;   C112-  C111-  C110-  H10S
  7520   7523   7526   7529      9     0.00   0.41840   1 ;   C112-  C111-  C110-   C19
  7520   7523   7526   7529      9     0.00   0.41840   2 ;   C112-  C111-  C110-   C19
  7520   7523   7526   7529      9     0.00   0.41840   4 ;   C112-  C111-  C110-   C19
  7520   7523   7526   7529      9     0.00   0.41840   5 ;   C112-  C111-  C110-   C19
  7520   7523   7526   7529      9     0.00   1.25520   3 ;   C112-  C111-  C110-   C19
  7521   7520   7523   7524      9     0.00   0.62760   3 ;   H12R-  C112-  C111-  H11R
  7521   7520   7523   7525      9     0.00   0.62760   3 ;   H12R-  C112-  C111-  H11S
  7521   7520   7523   7526      9     0.00   0.66944   3 ;   H12R-  C112-  C111-  C110
  7522   7520   7523   7524      9     0.00   0.62760   3 ;   H12S-  C112-  C111-  H11R
  7522   7520   7523   7525      9     0.00   0.62760   3 ;   H12S-  C112-  C111-  H11S
  7522   7520   7523   7526      9     0.00   0.66944   3 ;   H12S-  C112-  C111-  C110
  7523   7526   7529   7530      9     0.00   0.66944   3 ;   C111-  C110-   C19-   H9R
  7523   7526   7529   7531      9     0.00   0.66944   3 ;   C111-  C110-   C19-   H9S
  7523   7526   7529   7532      9     0.00   0.41840   1 ;   C111-  C110-   C19-   C18
  7523   7526   7529   7532      9     0.00   0.41840   2 ;   C111-  C110-   C19-   C18
  7523   7526   7529   7532      9     0.00   0.41840   4 ;   C111-  C110-   C19-   C18
  7523   7526   7529   7532      9     0.00   0.41840   5 ;   C111-  C110-   C19-   C18
  7523   7526   7529   7532      9     0.00   1.25520   3 ;   C111-  C110-   C19-   C18
  7524   7523   7526   7527      9     0.00   0.62760   3 ;   H11R-  C111-  C110-  H10R
  7524   7523   7526   7528      9     0.00   0.62760   3 ;   H11R-  C111-  C110-  H10S
  7524   7523   7526   7529      9     0.00   0.66944   3 ;   H11R-  C111-  C110-   C19
  7525   7523   7526   7527      9     0.00   0.62760   3 ;   H11S-  C111-  C110-  H10R
  7525   7523   7526   7528      9     0.00   0.62760   3 ;   H11S-  C111-  C110-  H10S
  7525   7523   7526   7529      9     0.00   0.66944   3 ;   H11S-  C111-  C110-   C19
  7526   7529   7532   7533      9     0.00   0.66944   3 ;   C110-   C19-   C18-   H8R
  7526   7529   7532   7534      9     0.00   0.66944   3 ;   C110-   C19-   C18-   H8S
  7526   7529   7532   7535      9     0.00   0.41840   1 ;   C110-   C19-   C18-   C17
  7526   7529   7532   7535      9     0.00   0.41840   2 ;   C110-   C19-   C18-   C17
  7526   7529   7532   7535      9     0.00   0.41840   4 ;   C110-   C19-   C18-   C17
  7526   7529   7532   7535      9     0.00   0.41840   5 ;   C110-   C19-   C18-   C17
  7526   7529   7532   7535      9     0.00   1.25520   3 ;   C110-   C19-   C18-   C17
  7527   7526   7529   7530      9     0.00   0.62760   3 ;   H10R-  C110-   C19-   H9R
  7527   7526   7529   7531      9     0.00   0.62760   3 ;   H10R-  C110-   C19-   H9S
  7527   7526   7529   7532      9     0.00   0.66944   3 ;   H10R-  C110-   C19-   C18
  7528   7526   7529   7530      9     0.00   0.62760   3 ;   H10S-  C110-   C19-   H9R
  7528   7526   7529   7531      9     0.00   0.62760   3 ;   H10S-  C110-   C19-   H9S
  7528   7526   7529   7532      9     0.00   0.66944   3 ;   H10S-  C110-   C19-   C18
  7529   7532   7535   7536      9     0.00   0.66944   3 ;    C19-   C18-   C17-   H7R
  7529   7532   7535   7537      9     0.00   0.66944   3 ;    C19-   C18-   C17-   H7S
  7529   7532   7535   7538      9     0.00   0.41840   1 ;    C19-   C18-   C17-   C16
  7529   7532   7535   7538      9     0.00   0.41840   2 ;    C19-   C18-   C17-   C16
  7529   7532   7535   7538      9     0.00   0.41840   4 ;    C19-   C18-   C17-   C16
  7529   7532   7535   7538      9     0.00   0.41840   5 ;    C19-   C18-   C17-   C16
  7529   7532   7535   7538      9     0.00   1.25520   3 ;    C19-   C18-   C17-   C16
  7530   7529   7532   7533      9     0.00   0.62760   3 ;    H9R-   C19-   C18-   H8R
  7530   7529   7532   7534      9     0.00   0.62760   3 ;    H9R-   C19-   C18-   H8S
  7530   7529   7532   7535      9     0.00   0.66944   3 ;    H9R-   C19-   C18-   C17
  7531   7529   7532   7533      9     0.00   0.62760   3 ;    H9S-   C19-   C18-   H8R
  7531   7529   7532   7534      9     0.00   0.62760   3 ;    H9S-   C19-   C18-   H8S
  7531   7529   7532   7535      9     0.00   0.66944   3 ;    H9S-   C19-   C18-   C17
  7532   7535   7538   7539      9     0.00   0.66944   3 ;    C18-   C17-   C16-   H6R
  7532   7535   7538   7540      9     0.00   0.66944   3 ;    C18-   C17-   C16-   H6S
  7532   7535   7538   7541      9     0.00   0.41840   1 ;    C18-   C17-   C16-   C15
  7532   7535   7538   7541      9     0.00   0.41840   2 ;    C18-   C17-   C16-   C15
  7532   7535   7538   7541      9     0.00   0.41840   4 ;    C18-   C17-   C16-   C15
  7532   7535   7538   7541      9     0.00   0.41840   5 ;    C18-   C17-   C16-   C15
  7532   7535   7538   7541      9     0.00   1.25520   3 ;    C18-   C17-   C16-   C15
  7533   7532   7535   7536      9     0.00   0.62760   3 ;    H8R-   C18-   C17-   H7R
  7533   7532   7535   7537      9     0.00   0.62760   3 ;    H8R-   C18-   C17-   H7S
  7533   7532   7535   7538      9     0.00   0.66944   3 ;    H8R-   C18-   C17-   C16
  7534   7532   7535   7536      9     0.00   0.62760   3 ;    H8S-   C18-   C17-   H7R
  7534   7532   7535   7537      9     0.00   0.62760   3 ;    H8S-   C18-   C17-   H7S
  7534   7532   7535   7538      9     0.00   0.66944   3 ;    H8S-   C18-   C17-   C16
  7535   7538   7541   7542      9     0.00   0.66944   3 ;    C17-   C16-   C15-   H5R
  7535   7538   7541   7543      9     0.00   0.66944   3 ;    C17-   C16-   C15-   H5S
  7535   7538   7541   7544      9     0.00   0.41840   1 ;    C17-   C16-   C15-   C14
  7535   7538   7541   7544      9     0.00   0.41840   2 ;    C17-   C16-   C15-   C14
  7535   7538   7541   7544      9     0.00   0.41840   4 ;    C17-   C16-   C15-   C14
  7535   7538   7541   7544      9     0.00   0.41840   5 ;    C17-   C16-   C15-   C14
  7535   7538   7541   7544      9     0.00   1.25520   3 ;    C17-   C16-   C15-   C14
  7536   7535   7538   7539      9     0.00   0.62760   3 ;    H7R-   C17-   C16-   H6R
  7536   7535   7538   7540      9     0.00   0.62760   3 ;    H7R-   C17-   C16-   H6S
  7536   7535   7538   7541      9     0.00   0.66944   3 ;    H7R-   C17-   C16-   C15
  7537   7535   7538   7539      9     0.00   0.62760   3 ;    H7S-   C17-   C16-   H6R
  7537   7535   7538   7540      9     0.00   0.62760   3 ;    H7S-   C17-   C16-   H6S
  7537   7535   7538   7541      9     0.00   0.66944   3 ;    H7S-   C17-   C16-   C15
  7538   7541   7544   7545      9     0.00   0.66944   3 ;    C16-   C15-   C14-   H4R
  7538   7541   7544   7546      9     0.00   0.66944   3 ;    C16-   C15-   C14-   H4S
  7538   7541   7544   7547      9     0.00   0.41840   1 ;    C16-   C15-   C14-   C13
  7538   7541   7544   7547      9     0.00   0.41840   2 ;    C16-   C15-   C14-   C13
  7538   7541   7544   7547      9     0.00   0.41840   4 ;    C16-   C15-   C14-   C13
  7538   7541   7544   7547      9     0.00   0.41840   5 ;    C16-   C15-   C14-   C13
  7538   7541   7544   7547      9     0.00   1.25520   3 ;    C16-   C15-   C14-   C13
  7539   7538   7541   7542      9     0.00   0.62760   3 ;    H6R-   C16-   C15-   H5R
  7539   7538   7541   7543      9     0.00   0.62760   3 ;    H6R-   C16-   C15-   H5S
  7539   7538   7541   7544      9     0.00   0.66944   3 ;    H6R-   C16-   C15-   C14
  7540   7538   7541   7542      9     0.00   0.62760   3 ;    H6S-   C16-   C15-   H5R
  7540   7538   7541   7543      9     0.00   0.62760   3 ;    H6S-   C16-   C15-   H5S
  7540   7538   7541   7544      9     0.00   0.66944   3 ;    H6S-   C16-   C15-   C14
  7541   7544   7547   7548      9     0.00   0.66944   3 ;    C15-   C14-   C13-   H3R
  7541   7544   7547   7549      9     0.00   0.66944   3 ;    C15-   C14-   C13-   H3S
  7541   7544   7547   7550      9     0.00   0.41840   1 ;    C15-   C14-   C13-   C12
  7541   7544   7547   7550      9     0.00   0.41840   2 ;    C15-   C14-   C13-   C12
  7541   7544   7547   7550      9     0.00   0.41840   4 ;    C15-   C14-   C13-   C12
  7541   7544   7547   7550      9     0.00   0.41840   5 ;    C15-   C14-   C13-   C12
  7541   7544   7547   7550      9     0.00   1.25520   3 ;    C15-   C14-   C13-   C12
  7542   7541   7544   7545      9     0.00   0.62760   3 ;    H5R-   C15-   C14-   H4R
  7542   7541   7544   7546      9     0.00   0.62760   3 ;    H5R-   C15-   C14-   H4S
  7542   7541   7544   7547      9     0.00   0.66944   3 ;    H5R-   C15-   C14-   C13
  7543   7541   7544   7545      9     0.00   0.62760   3 ;    H5S-   C15-   C14-   H4R
  7543   7541   7544   7546      9     0.00   0.62760   3 ;    H5S-   C15-   C14-   H4S
  7543   7541   7544   7547      9     0.00   0.66944   3 ;    H5S-   C15-   C14-   C13
  7544   7547   7550   7551      9     0.00   0.66944   3 ;    C14-   C13-   C12-   H2R
  7544   7547   7550   7552      9     0.00   0.66944   3 ;    C14-   C13-   C12-   H2S
  7545   7544   7547   7548      9     0.00   0.62760   3 ;    H4R-   C14-   C13-   H3R
  7545   7544   7547   7549      9     0.00   0.62760   3 ;    H4R-   C14-   C13-   H3S
  7545   7544   7547   7550      9     0.00   0.66944   3 ;    H4R-   C14-   C13-   C12
  7546   7544   7547   7548      9     0.00   0.62760   3 ;    H4S-   C14-   C13-   H3R
  7546   7544   7547   7549      9     0.00   0.62760   3 ;    H4S-   C14-   C13-   H3S
  7546   7544   7547   7550      9     0.00   0.66944   3 ;    H4S-   C14-   C13-   C12
  7548   7547   7550   7551      9     0.00   0.62760   3 ;    H3R-   C13-   C12-   H2R
  7548   7547   7550   7552      9     0.00   0.62760   3 ;    H3R-   C13-   C12-   H2S
  7549   7547   7550   7551      9     0.00   0.62760   3 ;    H3S-   C13-   C12-   H2R
  7549   7547   7550   7552      9     0.00   0.62760   3 ;    H3S-   C13-   C12-   H2S
  7553   7554   7557   7558      9     0.00   0.62760   3 ;   H14T-  C114-  C113-  H13R
  7553   7554   7557   7559      9     0.00   0.62760   3 ;   H14T-  C114-  C113-  H13S
  7553   7554   7557   7560      9     0.00   0.66944   3 ;   H14T-  C114-  C113-  C112
  7554   7557   7560   7561      9     0.00   0.66944   3 ;   C114-  C113-  C112-  H12R
  7554   7557   7560   7562      9     0.00   0.66944   3 ;   C114-  C113-  C112-  H12S
  7554   7557   7560   7563      9     0.00   0.41840   1 ;   C114-  C113-  C112-  C111
  7554   7557   7560   7563      9     0.00   0.41840   2 ;   C114-  C113-  C112-  C111
  7554   7557   7560   7563      9     0.00   0.41840   4 ;   C114-  C113-  C112-  C111
  7554   7557   7560   7563      9     0.00   0.41840   5 ;   C114-  C113-  C112-  C111
  7554   7557   7560   7563      9     0.00   1.25520   3 ;   C114-  C113-  C112-  C111
  7555   7554   7557   7558      9     0.00   0.62760   3 ;   H14R-  C114-  C113-  H13R
  7555   7554   7557   7559      9     0.00   0.62760   3 ;   H14R-  C114-  C113-  H13S
  7555   7554   7557   7560      9     0.00   0.66944   3 ;   H14R-  C114-  C113-  C112
  7556   7554   7557   7558      9     0.00   0.62760   3 ;   H14S-  C114-  C113-  H13R
  7556   7554   7557   7559      9     0.00   0.62760   3 ;   H14S-  C114-  C113-  H13S
  7556   7554   7557   7560      9     0.00   0.66944   3 ;   H14S-  C114-  C113-  C112
  7557   7560   7563   7564      9     0.00   0.66944   3 ;   C113-  C112-  C111-  H11R
  7557   7560   7563   7565      9     0.00   0.66944   3 ;   C113-  C112-  C111-  H11S
  7557   7560   7563   7566      9     0.00   0.41840   1 ;   C113-  C112-  C111-  C110
  7557   7560   7563   7566      9     0.00   0.41840   2 ;   C113-  C112-  C111-  C110
  7557   7560   7563   7566      9     0.00   0.41840   4 ;   C113-  C112-  C111-  C110
  7557   7560   7563   7566      9     0.00   0.41840   5 ;   C113-  C112-  C111-  C110
  7557   7560   7563   7566      9     0.00   1.25520   3 ;   C113-  C112-  C111-  C110
  7558   7557   7560   7561      9     0.00   0.62760   3 ;   H13R-  C113-  C112-  H12R
  7558   7557   7560   7562      9     0.00   0.62760   3 ;   H13R-  C113-  C112-  H12S
  7558   7557   7560   7563      9     0.00   0.66944   3 ;   H13R-  C113-  C112-  C111
  7559   7557   7560   7561      9     0.00   0.62760   3 ;   H13S-  C113-  C112-  H12R
  7559   7557   7560   7562      9     0.00   0.62760   3 ;   H13S-  C113-  C112-  H12S
  7559   7557   7560   7563      9     0.00   0.66944   3 ;   H13S-  C113-  C112-  C111
  7560   7563   7566   7567      9     0.00   0.66944   3 ;   C112-  C111-  C110-  H10R
  7560   7563   7566   7568      9     0.00   0.66944   3 ;   C112-  C111-  C110-  H10S
  7560   7563   7566   7569      9     0.00   0.41840   1 ;   C112-  C111-  C110-   C19
  7560   7563   7566   7569      9     0.00   0.41840   2 ;   C112-  C111-  C110-   C19
  7560   7563   7566   7569      9     0.00   0.41840   4 ;   C112-  C111-  C110-   C19
  7560   7563   7566   7569      9     0.00   0.41840   5 ;   C112-  C111-  C110-   C19
  7560   7563   7566   7569      9     0.00   1.25520   3 ;   C112-  C111-  C110-   C19
  7561   7560   7563   7564      9     0.00   0.62760   3 ;   H12R-  C112-  C111-  H11R
  7561   7560   7563   7565      9     0.00   0.62760   3 ;   H12R-  C112-  C111-  H11S
  7561   7560   7563   7566      9     0.00   0.66944   3 ;   H12R-  C112-  C111-  C110
  7562   7560   7563   7564      9     0.00   0.62760   3 ;   H12S-  C112-  C111-  H11R
  7562   7560   7563   7565      9     0.00   0.62760   3 ;   H12S-  C112-  C111-  H11S
  7562   7560   7563   7566      9     0.00   0.66944   3 ;   H12S-  C112-  C111-  C110
  7563   7566   7569   7570      9     0.00   0.66944   3 ;   C111-  C110-   C19-   H9R
  7563   7566   7569   7571      9     0.00   0.66944   3 ;   C111-  C110-   C19-   H9S
  7563   7566   7569   7572      9     0.00   0.41840   1 ;   C111-  C110-   C19-   C18
  7563   7566   7569   7572      9     0.00   0.41840   2 ;   C111-  C110-   C19-   C18
  7563   7566   7569   7572      9     0.00   0.41840   4 ;   C111-  C110-   C19-   C18
  7563   7566   7569   7572      9     0.00   0.41840   5 ;   C111-  C110-   C19-   C18
  7563   7566   7569   7572      9     0.00   1.25520   3 ;   C111-  C110-   C19-   C18
  7564   7563   7566   7567      9     0.00   0.62760   3 ;   H11R-  C111-  C110-  H10R
  7564   7563   7566   7568      9     0.00   0.62760   3 ;   H11R-  C111-  C110-  H10S
  7564   7563   7566   7569      9     0.00   0.66944   3 ;   H11R-  C111-  C110-   C19
  7565   7563   7566   7567      9     0.00   0.62760   3 ;   H11S-  C111-  C110-  H10R
  7565   7563   7566   7568      9     0.00   0.62760   3 ;   H11S-  C111-  C110-  H10S
  7565   7563   7566   7569      9     0.00   0.66944   3 ;   H11S-  C111-  C110-   C19
  7566   7569   7572   7573      9     0.00   0.66944   3 ;   C110-   C19-   C18-   H8R
  7566   7569   7572   7574      9     0.00   0.66944   3 ;   C110-   C19-   C18-   H8S
  7566   7569   7572   7575      9     0.00   0.41840   1 ;   C110-   C19-   C18-   C17
  7566   7569   7572   7575      9     0.00   0.41840   2 ;   C110-   C19-   C18-   C17
  7566   7569   7572   7575      9     0.00   0.41840   4 ;   C110-   C19-   C18-   C17
  7566   7569   7572   7575      9     0.00   0.41840   5 ;   C110-   C19-   C18-   C17
  7566   7569   7572   7575      9     0.00   1.25520   3 ;   C110-   C19-   C18-   C17
  7567   7566   7569   7570      9     0.00   0.62760   3 ;   H10R-  C110-   C19-   H9R
  7567   7566   7569   7571      9     0.00   0.62760   3 ;   H10R-  C110-   C19-   H9S
  7567   7566   7569   7572      9     0.00   0.66944   3 ;   H10R-  C110-   C19-   C18
  7568   7566   7569   7570      9     0.00   0.62760   3 ;   H10S-  C110-   C19-   H9R
  7568   7566   7569   7571      9     0.00   0.62760   3 ;   H10S-  C110-   C19-   H9S
  7568   7566   7569   7572      9     0.00   0.66944   3 ;   H10S-  C110-   C19-   C18
  7569   7572   7575   7576      9     0.00   0.66944   3 ;    C19-   C18-   C17-   H7R
  7569   7572   7575   7577      9     0.00   0.66944   3 ;    C19-   C18-   C17-   H7S
  7569   7572   7575   7578      9     0.00   0.41840   1 ;    C19-   C18-   C17-   C16
  7569   7572   7575   7578      9     0.00   0.41840   2 ;    C19-   C18-   C17-   C16
  7569   7572   7575   7578      9     0.00   0.41840   4 ;    C19-   C18-   C17-   C16
  7569   7572   7575   7578      9     0.00   0.41840   5 ;    C19-   C18-   C17-   C16
  7569   7572   7575   7578      9     0.00   1.25520   3 ;    C19-   C18-   C17-   C16
  7570   7569   7572   7573      9     0.00   0.62760   3 ;    H9R-   C19-   C18-   H8R
  7570   7569   7572   7574      9     0.00   0.62760   3 ;    H9R-   C19-   C18-   H8S
  7570   7569   7572   7575      9     0.00   0.66944   3 ;    H9R-   C19-   C18-   C17
  7571   7569   7572   7573      9     0.00   0.62760   3 ;    H9S-   C19-   C18-   H8R
  7571   7569   7572   7574      9     0.00   0.62760   3 ;    H9S-   C19-   C18-   H8S
  7571   7569   7572   7575      9     0.00   0.66944   3 ;    H9S-   C19-   C18-   C17
  7572   7575   7578   7579      9     0.00   0.66944   3 ;    C18-   C17-   C16-   H6R
  7572   7575   7578   7580      9     0.00   0.66944   3 ;    C18-   C17-   C16-   H6S
  7572   7575   7578   7581      9     0.00   0.41840   1 ;    C18-   C17-   C16-   C15
  7572   7575   7578   7581      9     0.00   0.41840   2 ;    C18-   C17-   C16-   C15
  7572   7575   7578   7581      9     0.00   0.41840   4 ;    C18-   C17-   C16-   C15
  7572   7575   7578   7581      9     0.00   0.41840   5 ;    C18-   C17-   C16-   C15
  7572   7575   7578   7581      9     0.00   1.25520   3 ;    C18-   C17-   C16-   C15
  7573   7572   7575   7576      9     0.00   0.62760   3 ;    H8R-   C18-   C17-   H7R
  7573   7572   7575   7577      9     0.00   0.62760   3 ;    H8R-   C18-   C17-   H7S
  7573   7572   7575   7578      9     0.00   0.66944   3 ;    H8R-   C18-   C17-   C16
  7574   7572   7575   7576      9     0.00   0.62760   3 ;    H8S-   C18-   C17-   H7R
  7574   7572   7575   7577      9     0.00   0.62760   3 ;    H8S-   C18-   C17-   H7S
  7574   7572   7575   7578      9     0.00   0.66944   3 ;    H8S-   C18-   C17-   C16
  7575   7578   7581   7582      9     0.00   0.66944   3 ;    C17-   C16-   C15-   H5R
  7575   7578   7581   7583      9     0.00   0.66944   3 ;    C17-   C16-   C15-   H5S
  7575   7578   7581   7584      9     0.00   0.41840   1 ;    C17-   C16-   C15-   C14
  7575   7578   7581   7584      9     0.00   0.41840   2 ;    C17-   C16-   C15-   C14
  7575   7578   7581   7584      9     0.00   0.41840   4 ;    C17-   C16-   C15-   C14
  7575   7578   7581   7584      9     0.00   0.41840   5 ;    C17-   C16-   C15-   C14
  7575   7578   7581   7584      9     0.00   1.25520   3 ;    C17-   C16-   C15-   C14
  7576   7575   7578   7579      9     0.00   0.62760   3 ;    H7R-   C17-   C16-   H6R
  7576   7575   7578   7580      9     0.00   0.62760   3 ;    H7R-   C17-   C16-   H6S
  7576   7575   7578   7581      9     0.00   0.66944   3 ;    H7R-   C17-   C16-   C15
  7577   7575   7578   7579      9     0.00   0.62760   3 ;    H7S-   C17-   C16-   H6R
  7577   7575   7578   7580      9     0.00   0.62760   3 ;    H7S-   C17-   C16-   H6S
  7577   7575   7578   7581      9     0.00   0.66944   3 ;    H7S-   C17-   C16-   C15
  7578   7581   7584   7585      9     0.00   0.66944   3 ;    C16-   C15-   C14-   H4R
  7578   7581   7584   7586      9     0.00   0.66944   3 ;    C16-   C15-   C14-   H4S
  7578   7581   7584   7587      9     0.00   0.41840   1 ;    C16-   C15-   C14-   C13
  7578   7581   7584   7587      9     0.00   0.41840   2 ;    C16-   C15-   C14-   C13
  7578   7581   7584   7587      9     0.00   0.41840   4 ;    C16-   C15-   C14-   C13
  7578   7581   7584   7587      9     0.00   0.41840   5 ;    C16-   C15-   C14-   C13
  7578   7581   7584   7587      9     0.00   1.25520   3 ;    C16-   C15-   C14-   C13
  7579   7578   7581   7582      9     0.00   0.62760   3 ;    H6R-   C16-   C15-   H5R
  7579   7578   7581   7583      9     0.00   0.62760   3 ;    H6R-   C16-   C15-   H5S
  7579   7578   7581   7584      9     0.00   0.66944   3 ;    H6R-   C16-   C15-   C14
  7580   7578   7581   7582      9     0.00   0.62760   3 ;    H6S-   C16-   C15-   H5R
  7580   7578   7581   7583      9     0.00   0.62760   3 ;    H6S-   C16-   C15-   H5S
  7580   7578   7581   7584      9     0.00   0.66944   3 ;    H6S-   C16-   C15-   C14
  7581   7584   7587   7588      9     0.00   0.66944   3 ;    C15-   C14-   C13-   H3R
  7581   7584   7587   7589      9     0.00   0.66944   3 ;    C15-   C14-   C13-   H3S
  7581   7584   7587   7590      9     0.00   0.41840   1 ;    C15-   C14-   C13-   C12
  7581   7584   7587   7590      9     0.00   0.41840   2 ;    C15-   C14-   C13-   C12
  7581   7584   7587   7590      9     0.00   0.41840   4 ;    C15-   C14-   C13-   C12
  7581   7584   7587   7590      9     0.00   0.41840   5 ;    C15-   C14-   C13-   C12
  7581   7584   7587   7590      9     0.00   1.25520   3 ;    C15-   C14-   C13-   C12
  7582   7581   7584   7585      9     0.00   0.62760   3 ;    H5R-   C15-   C14-   H4R
  7582   7581   7584   7586      9     0.00   0.62760   3 ;    H5R-   C15-   C14-   H4S
  7582   7581   7584   7587      9     0.00   0.66944   3 ;    H5R-   C15-   C14-   C13
  7583   7581   7584   7585      9     0.00   0.62760   3 ;    H5S-   C15-   C14-   H4R
  7583   7581   7584   7586      9     0.00   0.62760   3 ;    H5S-   C15-   C14-   H4S
  7583   7581   7584   7587      9     0.00   0.66944   3 ;    H5S-   C15-   C14-   C13
  7584   7587   7590   7591      9     0.00   0.66944   3 ;    C14-   C13-   C12-   H2R
  7584   7587   7590   7592      9     0.00   0.66944   3 ;    C14-   C13-   C12-   H2S
  7584   7587   7590   7593      9     0.00   0.65270   3 ;    C14-   C13-   C12-   C11
  7585   7584   7587   7588      9     0.00   0.62760   3 ;    H4R-   C14-   C13-   H3R
  7585   7584   7587   7589      9     0.00   0.62760   3 ;    H4R-   C14-   C13-   H3S
  7585   7584   7587   7590      9     0.00   0.66944   3 ;    H4R-   C14-   C13-   C12
  7586   7584   7587   7588      9     0.00   0.62760   3 ;    H4S-   C14-   C13-   H3R
  7586   7584   7587   7589      9     0.00   0.62760   3 ;    H4S-   C14-   C13-   H3S
  7586   7584   7587   7590      9     0.00   0.66944   3 ;    H4S-   C14-   C13-   C12
  7587   7590   7593   7594      9   180.00   0.00000   2 ;    C13-   C12-   C11-   O12
  7587   7590   7593   7595      9   180.00   0.00000   2 ;    C13-   C12-   C11-   O11
  7588   7587   7590   7591      9     0.00   0.62760   3 ;    H3R-   C13-   C12-   H2R
  7588   7587   7590   7592      9     0.00   0.62760   3 ;    H3R-   C13-   C12-   H2S
  7588   7587   7590   7593      9     0.00   0.65270   3 ;    H3R-   C13-   C12-   C11
  7589   7587   7590   7591      9     0.00   0.62760   3 ;    H3S-   C13-   C12-   H2R
  7589   7587   7590   7592      9     0.00   0.62760   3 ;    H3S-   C13-   C12-   H2S
  7589   7587   7590   7593      9     0.00   0.65270   3 ;    H3S-   C13-   C12-   C11
  7590   7593   7595   7596      9   180.00  11.29680   2 ;    C12-   C11-   O11-    C1
  7591   7590   7593   7594      9     0.00   3.34720   1 ;    H2R-   C12-   C11-   O12
  7591   7590   7593   7594      9   180.00   0.33472   3 ;    H2R-   C12-   C11-   O12
  7591   7590   7593   7595      9   180.00   0.00000   2 ;    H2R-   C12-   C11-   O11
  7592   7590   7593   7594      9     0.00   3.34720   1 ;    H2S-   C12-   C11-   O12
  7592   7590   7593   7594      9   180.00   0.33472   3 ;    H2S-   C12-   C11-   O12
  7592   7590   7593   7595      9   180.00   0.00000   2 ;    H2S-   C12-   C11-   O11
  7593   7595   7596   7597      9     0.00   1.60247   3 ;    C11-   O11-    C1-    HR
  7593   7595   7596   7598      9     0.00   1.60247   3 ;    C11-   O11-    C1-    HS
  7593   7595   7596   7599      9     0.00  -0.41840   1 ;    C11-   O11-    C1-    C2
  7594   7593   7595   7596      9   180.00   5.85760   1 ;    O12-   C11-   O11-    C1
  7594   7593   7595   7596      9   180.00  11.29680   2 ;    O12-   C11-   O11-    C1
  7595   7596   7599   7600      9     0.00   0.00000   0 ;    O11-    C1-    C2-    HX
  7595   7596   7599   7600      9     0.00   1.04600   1 ;    O11-    C1-    C2-    HX
  7595   7596   7599   7601      9     0.00   0.00000   0 ;    O11-    C1-    C2-    C3
  7595   7596   7599   7601      9     0.00   0.00000   0 ;    O11-    C1-    C2-    C3
  7595   7596   7599   7601      9     0.00   0.00000   0 ;    O11-    C1-    C2-    C3
  7595   7596   7599   7601      9     0.00   0.00000   0 ;    O11-    C1-    C2-    C3
  7595   7596   7599   7601      9     0.00   0.00000   0 ;    O11-    C1-    C2-    C3
  7595   7596   7599   7628      9     0.00   1.25520   2 ;    O11-    C1-    C2-   O21
  7595   7596   7599   7628      9     0.00   4.18400   3 ;    O11-    C1-    C2-   O21
  7595   7596   7599   7628      9   180.00  -0.41840   1 ;    O11-    C1-    C2-   O21
  7596   7599   7601   7602      9     0.00   0.65270   3 ;     C1-    C2-    C3-    HA
  7596   7599   7601   7603      9     0.00   0.65270   3 ;     C1-    C2-    C3-    HB
  7596   7599   7601   7604      9   180.00   3.34720   1 ;     C1-    C2-    C3-   O31
  7596   7599   7628   7629      9     0.00  -0.41840   1 ;     C1-    C2-   O21-   C21
  7597   7596   7599   7600      9     0.00   0.65270   3 ;     HR-    C1-    C2-    HX
  7597   7596   7599   7601      9     0.00   0.65270   3 ;     HR-    C1-    C2-    C3
  7597   7596   7599   7628      9     0.00   0.00000   0 ;     HR-    C1-    C2-   O21
  7597   7596   7599   7628      9     0.00   1.04600   1 ;     HR-    C1-    C2-   O21
  7598   7596   7599   7600      9     0.00   0.65270   3 ;     HS-    C1-    C2-    HX
  7598   7596   7599   7601      9     0.00   0.65270   3 ;     HS-    C1-    C2-    C3
  7598   7596   7599   7628      9     0.00   0.00000   0 ;     HS-    C1-    C2-   O21
  7598   7596   7599   7628      9     0.00   1.04600   1 ;     HS-    C1-    C2-   O21
  7599   7601   7604   7605      9     0.00   0.00000   0 ;     C2-    C3-   O31-   P31
  7599   7601   7604   7605      9   180.00  -3.34720   2 ;     C2-    C3-   O31-   P31
  7599   7628   7629   7630      9   180.00   5.85760   1 ;     C2-   O21-   C21-   O22
  7599   7628   7629   7630      9   180.00  11.29680   2 ;     C2-   O21-   C21-   O22
  7599   7628   7629   7668      9   180.00  11.29680   2 ;     C2-   O21-   C21-   C12
  7600   7599   7601   7602      9     0.00   0.65270   3 ;     HX-    C2-    C3-    HA
  7600   7599   7601   7603      9     0.00   0.65270   3 ;     HX-    C2-    C3-    HB
  7600   7599   7601   7604      9     0.00   0.00000   0 ;     HX-    C2-    C3-   O31
  7600   7599   7601   7604      9     0.00   1.04600   1 ;     HX-    C2-    C3-   O31
  7600   7599   7628   7629      9     0.00   1.60247   3 ;     HX-    C2-   O21-   C21
  7601   7599   7628   7629      9     0.00  -0.41840   1 ;     C3-    C2-   O21-   C21
  7601   7604   7605   7606      9     0.00   2.51040   3 ;     C3-   O31-   P31-   O32
  7601   7604   7605   7606      9     0.00   9.62320   2 ;     C3-   O31-   P31-   O32
  7601   7604   7605   7626      9     0.00   0.00000   0 ;     C3-   O31-   P31-   O33
  7601   7604   7605   7626      9     0.00   0.00000   0 ;     C3-   O31-   P31-   O33
  7601   7604   7605   7626      9     0.00   0.00000   0 ;     C3-   O31-   P31-   O33
  7601   7604   7605   7626      9     0.00   0.00000   0 ;     C3-   O31-   P31-   O33
  7601   7604   7605   7626      9     0.00   0.83680   2 ;     C3-   O31-   P31-   O33
  7601   7604   7605   7627      9     0.00   0.00000   0 ;     C3-   O31-   P31-   O34
  7601   7604   7605   7627      9     0.00   0.00000   0 ;     C3-   O31-   P31-   O34
  7601   7604   7605   7627      9     0.00   0.00000   0 ;     C3-   O31-   P31-   O34
  7601   7604   7605   7627      9     0.00   0.00000   0 ;     C3-   O31-   P31-   O34
  7601   7604   7605   7627      9     0.00   0.83680   2 ;     C3-   O31-   P31-   O34
  7602   7601   7599   7628      9     0.00   0.00000   0 ;     HA-    C3-    C2-   O21
  7602   7601   7599   7628      9     0.00   1.04600   1 ;     HA-    C3-    C2-   O21
  7602   7601   7604   7605      9     0.00   0.00000   0 ;     HA-    C3-   O31-   P31
  7602   7601   7604   7605      9     0.00   0.00000   0 ;     HA-    C3-   O31-   P31
  7602   7601   7604   7605      9     0.00   0.00000   0 ;     HA-    C3-   O31-   P31
  7602   7601   7604   7605      9     0.00   0.00000   0 ;     HA-    C3-   O31-   P31
  7602   7601   7604   7605      9     0.00   1.60247   3 ;     HA-    C3-   O31-   P31
  7603   7601   7599   7628      9     0.00   0.00000   0 ;     HB-    C3-    C2-   O21
  7603   7601   7599   7628      9     0.00   1.04600   1 ;     HB-    C3-    C2-   O21
  7603   7601   7604   7605      9     0.00   0.00000   0 ;     HB-    C3-   O31-   P31
  7603   7601   7604   7605      9     0.00   0.00000   0 ;     HB-    C3-   O31-   P31
  7603   7601   7604   7605      9     0.00   0.00000   0 ;     HB-    C3-   O31-   P31
  7603   7601   7604   7605      9     0.00   0.00000   0 ;     HB-    C3-   O31-   P31
  7603   7601   7604   7605      9     0.00   1.60247   3 ;     HB-    C3-   O31-   P31
  7604   7601   7599   7628      9     0.00   0.00000   0 ;    O31-    C3-    C2-   O21
  7604   7601   7599   7628      9     0.00   0.00000   0 ;    O31-    C3-    C2-   O21
  7604   7601   7599   7628      9     0.00   0.00000   0 ;    O31-    C3-    C2-   O21
  7604   7601   7599   7628      9     0.00   0.00000   0 ;    O31-    C3-    C2-   O21
  7604   7601   7599   7628      9     0.00   0.00000   0 ;    O31-    C3-    C2-   O21
  7604   7605   7606   7607      9     0.00   2.51040   3 ;    O31-   P31-   O32-   C31
  7604   7605   7606   7607      9     0.00   9.62320   2 ;    O31-   P31-   O32-   C31
  7605   7606   7607   7608      9     0.00   0.00000   0 ;    P31-   O32-   C31-   H1A
  7605   7606   7607   7608      9     0.00   0.00000   0 ;    P31-   O32-   C31-   H1A
  7605   7606   7607   7608      9     0.00   0.00000   0 ;    P31-   O32-   C31-   H1A
  7605   7606   7607   7608      9     0.00   0.00000   0 ;    P31-   O32-   C31-   H1A
  7605   7606   7607   7608      9     0.00   1.60247   3 ;    P31-   O32-   C31-   H1A
  7605   7606   7607   7609      9     0.00   0.00000   0 ;    P31-   O32-   C31-   H1B
  7605   7606   7607   7609      9     0.00   0.00000   0 ;    P31-   O32-   C31-   H1B
  7605   7606   7607   7609      9     0.00   0.00000   0 ;    P31-   O32-   C31-   H1B
  7605   7606   7607   7609      9     0.00   0.00000   0 ;    P31-   O32-   C31-   H1B
  7605   7606   7607   7609      9     0.00   1.60247   3 ;    P31-   O32-   C31-   H1B
  7605   7606   7607   7610      9     0.00   0.00000   0 ;    P31-   O32-   C31-   C32
  7605   7606   7607   7610      9   180.00  -3.34720   2 ;    P31-   O32-   C31-   C32
  7606   7607   7610   7611      9     0.00   0.65270   3 ;    O32-   C31-   C32-   H2A
  7606   7607   7610   7612      9     0.00   0.65270   3 ;    O32-   C31-   C32-   H2B
  7606   7607   7610   7613      9     0.00   4.18400   3 ;    O32-   C31-   C32-   N31
  7607   7606   7605   7626      9     0.00   0.00000   0 ;    C31-   O32-   P31-   O33
  7607   7606   7605   7626      9     0.00   0.00000   0 ;    C31-   O32-   P31-   O33
  7607   7606   7605   7626      9     0.00   0.00000   0 ;    C31-   O32-   P31-   O33
  7607   7606   7605   7626      9     0.00   0.00000   0 ;    C31-   O32-   P31-   O33
  7607   7606   7605   7626      9     0.00   0.83680   2 ;    C31-   O32-   P31-   O33
  7607   7606   7605   7627      9     0.00   0.00000   0 ;    C31-   O32-   P31-   O34
  7607   7606   7605   7627      9     0.00   0.00000   0 ;    C31-   O32-   P31-   O34
  7607   7606   7605   7627      9     0.00   0.00000   0 ;    C31-   O32-   P31-   O34
  7607   7606   7605   7627      9     0.00   0.00000   0 ;    C31-   O32-   P31-   O34
  7607   7606   7605   7627      9     0.00   0.83680   2 ;    C31-   O32-   P31-   O34
  7607   7610   7613   7614      9     0.00   0.65270   3 ;    C31-   C32-   N31-   C33
  7607   7610   7613   7618      9     0.00   0.65270   3 ;    C31-   C32-   N31-   C34
  7607   7610   7613   7622      9     0.00   0.65270   3 ;    C31-   C32-   N31-   C35
  7608   7607   7610   7611      9     0.00   0.65270   3 ;    H1A-   C31-   C32-   H2A
  7608   7607   7610   7612      9     0.00   0.65270   3 ;    H1A-   C31-   C32-   H2B
  7608   7607   7610   7613      9     0.00   0.65270   3 ;    H1A-   C31-   C32-   N31
  7609   7607   7610   7611      9     0.00   0.65270   3 ;    H1B-   C31-   C32-   H2A
  7609   7607   7610   7612      9     0.00   0.65270   3 ;    H1B-   C31-   C32-   H2B
  7609   7607   7610   7613      9     0.00   0.65270   3 ;    H1B-   C31-   C32-   N31
  7610   7613   7614   7615      9     0.00   0.65270   3 ;    C32-   N31-   C33-   H3A
  7610   7613   7614   7616      9     0.00   0.65270   3 ;    C32-   N31-   C33-   H3B
  7610   7613   7614   7617      9     0.00   0.65270   3 ;    C32-   N31-   C33-   H3C
  7610   7613   7618   7619      9     0.00   0.65270   3 ;    C32-   N31-   C34-   H4A
  7610   7613   7618   7620      9     0.00   0.65270   3 ;    C32-   N31-   C34-   H4B
  7610   7613   7618   7621      9     0.00   0.65270   3 ;    C32-   N31-   C34-   H4C
  7610   7613   7622   7623      9     0.00   0.65270   3 ;    C32-   N31-   C35-   H5A
  7610   7613   7622   7624      9     0.00   0.65270   3 ;    C32-   N31-   C35-   H5B
  7610   7613   7622   7625      9     0.00   0.65270   3 ;    C32-   N31-   C35-   H5C
  7611   7610   7613   7614      9     0.00   0.65270   3 ;    H2A-   C32-   N31-   C33
  7611   7610   7613   7618      9     0.00   0.65270   3 ;    H2A-   C32-   N31-   C34
  7611   7610   7613   7622      9     0.00   0.65270   3 ;    H2A-   C32-   N31-   C35
  7612   7610   7613   7614      9     0.00   0.65270   3 ;    H2B-   C32-   N31-   C33
  7612   7610   7613   7618      9     0.00   0.65270   3 ;    H2B-   C32-   N31-   C34
  7612   7610   7613   7622      9     0.00   0.65270   3 ;    H2B-   C32-   N31-   C35
  7614   7613   7618   7619      9     0.00   0.65270   3 ;    C33-   N31-   C34-   H4A
  7614   7613   7618   7620      9     0.00   0.65270   3 ;    C33-   N31-   C34-   H4B
  7614   7613   7618   7621      9     0.00   0.65270   3 ;    C33-   N31-   C34-   H4C
  7614   7613   7622   7623      9     0.00   0.65270   3 ;    C33-   N31-   C35-   H5A
  7614   7613   7622   7624      9     0.00   0.65270   3 ;    C33-   N31-   C35-   H5B
  7614   7613   7622   7625      9     0.00   0.65270   3 ;    C33-   N31-   C35-   H5C
  7615   7614   7613   7618      9     0.00   0.65270   3 ;    H3A-   C33-   N31-   C34
  7615   7614   7613   7622      9     0.00   0.65270   3 ;    H3A-   C33-   N31-   C35
  7616   7614   7613   7618      9     0.00   0.65270   3 ;    H3B-   C33-   N31-   C34
  7616   7614   7613   7622      9     0.00   0.65270   3 ;    H3B-   C33-   N31-   C35
  7617   7614   7613   7618      9     0.00   0.65270   3 ;    H3C-   C33-   N31-   C34
  7617   7614   7613   7622      9     0.00   0.65270   3 ;    H3C-   C33-   N31-   C35
  7618   7613   7622   7623      9     0.00   0.65270   3 ;    C34-   N31-   C35-   H5A
  7618   7613   7622   7624      9     0.00   0.65270   3 ;    C34-   N31-   C35-   H5B
  7618   7613   7622   7625      9     0.00   0.65270   3 ;    C34-   N31-   C35-   H5C
  7619   7618   7613   7622      9     0.00   0.65270   3 ;    H4A-   C34-   N31-   C35
  7620   7618   7613   7622      9     0.00   0.65270   3 ;    H4B-   C34-   N31-   C35
  7621   7618   7613   7622      9     0.00   0.65270   3 ;    H4C-   C34-   N31-   C35
  7628   7629   7668   7665      9   180.00   0.00000   2 ;    O21-   C21-   C12-   C13
  7628   7629   7668   7669      9   180.00   0.00000   2 ;    O21-   C21-   C12-   H2R
  7628   7629   7668   7670      9   180.00   0.00000   2 ;    O21-   C21-   C12-   H2S
  7629   7668   7665   7662      9     0.00   0.65270   3 ;    C21-   C12-   C13-   C14
  7629   7668   7665   7666      9     0.00   0.65270   3 ;    C21-   C12-   C13-   H3R
  7629   7668   7665   7667      9     0.00   0.65270   3 ;    C21-   C12-   C13-   H3S
  7630   7629   7668   7665      9   180.00   0.00000   2 ;    O22-   C21-   C12-   C13
  7630   7629   7668   7669      9     0.00   3.34720   1 ;    O22-   C21-   C12-   H2R
  7630   7629   7668   7669      9   180.00   0.33472   3 ;    O22-   C21-   C12-   H2R
  7630   7629   7668   7670      9     0.00   3.34720   1 ;    O22-   C21-   C12-   H2S
  7630   7629   7668   7670      9   180.00   0.33472   3 ;    O22-   C21-   C12-   H2S
  7631   7632   7635   7636      9     0.00   0.62760   3 ;   H14T-  C114-  C113-  H13R
  7631   7632   7635   7637      9     0.00   0.62760   3 ;   H14T-  C114-  C113-  H13S
  7631   7632   7635   7638      9     0.00   0.66944   3 ;   H14T-  C114-  C113-  C112
  7632   7635   7638   7639      9     0.00   0.66944   3 ;   C114-  C113-  C112-  H12R
  7632   7635   7638   7640      9     0.00   0.66944   3 ;   C114-  C113-  C112-  H12S
  7632   7635   7638   7641      9     0.00   0.41840   1 ;   C114-  C113-  C112-  C111
  7632   7635   7638   7641      9     0.00   0.41840   2 ;   C114-  C113-  C112-  C111
  7632   7635   7638   7641      9     0.00   0.41840   4 ;   C114-  C113-  C112-  C111
  7632   7635   7638   7641      9     0.00   0.41840   5 ;   C114-  C113-  C112-  C111
  7632   7635   7638   7641      9     0.00   1.25520   3 ;   C114-  C113-  C112-  C111
  7633   7632   7635   7636      9     0.00   0.62760   3 ;   H14R-  C114-  C113-  H13R
  7633   7632   7635   7637      9     0.00   0.62760   3 ;   H14R-  C114-  C113-  H13S
  7633   7632   7635   7638      9     0.00   0.66944   3 ;   H14R-  C114-  C113-  C112
  7634   7632   7635   7636      9     0.00   0.62760   3 ;   H14S-  C114-  C113-  H13R
  7634   7632   7635   7637      9     0.00   0.62760   3 ;   H14S-  C114-  C113-  H13S
  7634   7632   7635   7638      9     0.00   0.66944   3 ;   H14S-  C114-  C113-  C112
  7635   7638   7641   7642      9     0.00   0.66944   3 ;   C113-  C112-  C111-  H11R
  7635   7638   7641   7643      9     0.00   0.66944   3 ;   C113-  C112-  C111-  H11S
  7635   7638   7641   7644      9     0.00   0.41840   1 ;   C113-  C112-  C111-  C110
  7635   7638   7641   7644      9     0.00   0.41840   2 ;   C113-  C112-  C111-  C110
  7635   7638   7641   7644      9     0.00   0.41840   4 ;   C113-  C112-  C111-  C110
  7635   7638   7641   7644      9     0.00   0.41840   5 ;   C113-  C112-  C111-  C110
  7635   7638   7641   7644      9     0.00   1.25520   3 ;   C113-  C112-  C111-  C110
  7636   7635   7638   7639      9     0.00   0.62760   3 ;   H13R-  C113-  C112-  H12R
  7636   7635   7638   7640      9     0.00   0.62760   3 ;   H13R-  C113-  C112-  H12S
  7636   7635   7638   7641      9     0.00   0.66944   3 ;   H13R-  C113-  C112-  C111
  7637   7635   7638   7639      9     0.00   0.62760   3 ;   H13S-  C113-  C112-  H12R
  7637   7635   7638   7640      9     0.00   0.62760   3 ;   H13S-  C113-  C112-  H12S
  7637   7635   7638   7641      9     0.00   0.66944   3 ;   H13S-  C113-  C112-  C111
  7638   7641   7644   7645      9     0.00   0.66944   3 ;   C112-  C111-  C110-  H10R
  7638   7641   7644   7646      9     0.00   0.66944   3 ;   C112-  C111-  C110-  H10S
  7638   7641   7644   7647      9     0.00   0.41840   1 ;   C112-  C111-  C110-   C19
  7638   7641   7644   7647      9     0.00   0.41840   2 ;   C112-  C111-  C110-   C19
  7638   7641   7644   7647      9     0.00   0.41840   4 ;   C112-  C111-  C110-   C19
  7638   7641   7644   7647      9     0.00   0.41840   5 ;   C112-  C111-  C110-   C19
  7638   7641   7644   7647      9     0.00   1.25520   3 ;   C112-  C111-  C110-   C19
  7639   7638   7641   7642      9     0.00   0.62760   3 ;   H12R-  C112-  C111-  H11R
  7639   7638   7641   7643      9     0.00   0.62760   3 ;   H12R-  C112-  C111-  H11S
  7639   7638   7641   7644      9     0.00   0.66944   3 ;   H12R-  C112-  C111-  C110
  7640   7638   7641   7642      9     0.00   0.62760   3 ;   H12S-  C112-  C111-  H11R
  7640   7638   7641   7643      9     0.00   0.62760   3 ;   H12S-  C112-  C111-  H11S
  7640   7638   7641   7644      9     0.00   0.66944   3 ;   H12S-  C112-  C111-  C110
  7641   7644   7647   7648      9     0.00   0.66944   3 ;   C111-  C110-   C19-   H9R
  7641   7644   7647   7649      9     0.00   0.66944   3 ;   C111-  C110-   C19-   H9S
  7641   7644   7647   7650      9     0.00   0.41840   1 ;   C111-  C110-   C19-   C18
  7641   7644   7647   7650      9     0.00   0.41840   2 ;   C111-  C110-   C19-   C18
  7641   7644   7647   7650      9     0.00   0.41840   4 ;   C111-  C110-   C19-   C18
  7641   7644   7647   7650      9     0.00   0.41840   5 ;   C111-  C110-   C19-   C18
  7641   7644   7647   7650      9     0.00   1.25520   3 ;   C111-  C110-   C19-   C18
  7642   7641   7644   7645      9     0.00   0.62760   3 ;   H11R-  C111-  C110-  H10R
  7642   7641   7644   7646      9     0.00   0.62760   3 ;   H11R-  C111-  C110-  H10S
  7642   7641   7644   7647      9     0.00   0.66944   3 ;   H11R-  C111-  C110-   C19
  7643   7641   7644   7645      9     0.00   0.62760   3 ;   H11S-  C111-  C110-  H10R
  7643   7641   7644   7646      9     0.00   0.62760   3 ;   H11S-  C111-  C110-  H10S
  7643   7641   7644   7647      9     0.00   0.66944   3 ;   H11S-  C111-  C110-   C19
  7644   7647   7650   7651      9     0.00   0.66944   3 ;   C110-   C19-   C18-   H8R
  7644   7647   7650   7652      9     0.00   0.66944   3 ;   C110-   C19-   C18-   H8S
  7644   7647   7650   7653      9     0.00   0.41840   1 ;   C110-   C19-   C18-   C17
  7644   7647   7650   7653      9     0.00   0.41840   2 ;   C110-   C19-   C18-   C17
  7644   7647   7650   7653      9     0.00   0.41840   4 ;   C110-   C19-   C18-   C17
  7644   7647   7650   7653      9     0.00   0.41840   5 ;   C110-   C19-   C18-   C17
  7644   7647   7650   7653      9     0.00   1.25520   3 ;   C110-   C19-   C18-   C17
  7645   7644   7647   7648      9     0.00   0.62760   3 ;   H10R-  C110-   C19-   H9R
  7645   7644   7647   7649      9     0.00   0.62760   3 ;   H10R-  C110-   C19-   H9S
  7645   7644   7647   7650      9     0.00   0.66944   3 ;   H10R-  C110-   C19-   C18
  7646   7644   7647   7648      9     0.00   0.62760   3 ;   H10S-  C110-   C19-   H9R
  7646   7644   7647   7649      9     0.00   0.62760   3 ;   H10S-  C110-   C19-   H9S
  7646   7644   7647   7650      9     0.00   0.66944   3 ;   H10S-  C110-   C19-   C18
  7647   7650   7653   7654      9     0.00   0.66944   3 ;    C19-   C18-   C17-   H7R
  7647   7650   7653   7655      9     0.00   0.66944   3 ;    C19-   C18-   C17-   H7S
  7647   7650   7653   7656      9     0.00   0.41840   1 ;    C19-   C18-   C17-   C16
  7647   7650   7653   7656      9     0.00   0.41840   2 ;    C19-   C18-   C17-   C16
  7647   7650   7653   7656      9     0.00   0.41840   4 ;    C19-   C18-   C17-   C16
  7647   7650   7653   7656      9     0.00   0.41840   5 ;    C19-   C18-   C17-   C16
  7647   7650   7653   7656      9     0.00   1.25520   3 ;    C19-   C18-   C17-   C16
  7648   7647   7650   7651      9     0.00   0.62760   3 ;    H9R-   C19-   C18-   H8R
  7648   7647   7650   7652      9     0.00   0.62760   3 ;    H9R-   C19-   C18-   H8S
  7648   7647   7650   7653      9     0.00   0.66944   3 ;    H9R-   C19-   C18-   C17
  7649   7647   7650   7651      9     0.00   0.62760   3 ;    H9S-   C19-   C18-   H8R
  7649   7647   7650   7652      9     0.00   0.62760   3 ;    H9S-   C19-   C18-   H8S
  7649   7647   7650   7653      9     0.00   0.66944   3 ;    H9S-   C19-   C18-   C17
  7650   7653   7656   7657      9     0.00   0.66944   3 ;    C18-   C17-   C16-   H6R
  7650   7653   7656   7658      9     0.00   0.66944   3 ;    C18-   C17-   C16-   H6S
  7650   7653   7656   7659      9     0.00   0.41840   1 ;    C18-   C17-   C16-   C15
  7650   7653   7656   7659      9     0.00   0.41840   2 ;    C18-   C17-   C16-   C15
  7650   7653   7656   7659      9     0.00   0.41840   4 ;    C18-   C17-   C16-   C15
  7650   7653   7656   7659      9     0.00   0.41840   5 ;    C18-   C17-   C16-   C15
  7650   7653   7656   7659      9     0.00   1.25520   3 ;    C18-   C17-   C16-   C15
  7651   7650   7653   7654      9     0.00   0.62760   3 ;    H8R-   C18-   C17-   H7R
  7651   7650   7653   7655      9     0.00   0.62760   3 ;    H8R-   C18-   C17-   H7S
  7651   7650   7653   7656      9     0.00   0.66944   3 ;    H8R-   C18-   C17-   C16
  7652   7650   7653   7654      9     0.00   0.62760   3 ;    H8S-   C18-   C17-   H7R
  7652   7650   7653   7655      9     0.00   0.62760   3 ;    H8S-   C18-   C17-   H7S
  7652   7650   7653   7656      9     0.00   0.66944   3 ;    H8S-   C18-   C17-   C16
  7653   7656   7659   7660      9     0.00   0.66944   3 ;    C17-   C16-   C15-   H5R
  7653   7656   7659   7661      9     0.00   0.66944   3 ;    C17-   C16-   C15-   H5S
  7653   7656   7659   7662      9     0.00   0.41840   1 ;    C17-   C16-   C15-   C14
  7653   7656   7659   7662      9     0.00   0.41840   2 ;    C17-   C16-   C15-   C14
  7653   7656   7659   7662      9     0.00   0.41840   4 ;    C17-   C16-   C15-   C14
  7653   7656   7659   7662      9     0.00   0.41840   5 ;    C17-   C16-   C15-   C14
  7653   7656   7659   7662      9     0.00   1.25520   3 ;    C17-   C16-   C15-   C14
  7654   7653   7656   7657      9     0.00   0.62760   3 ;    H7R-   C17-   C16-   H6R
  7654   7653   7656   7658      9     0.00   0.62760   3 ;    H7R-   C17-   C16-   H6S
  7654   7653   7656   7659      9     0.00   0.66944   3 ;    H7R-   C17-   C16-   C15
  7655   7653   7656   7657      9     0.00   0.62760   3 ;    H7S-   C17-   C16-   H6R
  7655   7653   7656   7658      9     0.00   0.62760   3 ;    H7S-   C17-   C16-   H6S
  7655   7653   7656   7659      9     0.00   0.66944   3 ;    H7S-   C17-   C16-   C15
  7656   7659   7662   7663      9     0.00   0.66944   3 ;    C16-   C15-   C14-   H4R
  7656   7659   7662   7664      9     0.00   0.66944   3 ;    C16-   C15-   C14-   H4S
  7656   7659   7662   7665      9     0.00   0.41840   1 ;    C16-   C15-   C14-   C13
  7656   7659   7662   7665      9     0.00   0.41840   2 ;    C16-   C15-   C14-   C13
  7656   7659   7662   7665      9     0.00   0.41840   4 ;    C16-   C15-   C14-   C13
  7656   7659   7662   7665      9     0.00   0.41840   5 ;    C16-   C15-   C14-   C13
  7656   7659   7662   7665      9     0.00   1.25520   3 ;    C16-   C15-   C14-   C13
  7657   7656   7659   7660      9     0.00   0.62760   3 ;    H6R-   C16-   C15-   H5R
  7657   7656   7659   7661      9     0.00   0.62760   3 ;    H6R-   C16-   C15-   H5S
  7657   7656   7659   7662      9     0.00   0.66944   3 ;    H6R-   C16-   C15-   C14
  7658   7656   7659   7660      9     0.00   0.62760   3 ;    H6S-   C16-   C15-   H5R
  7658   7656   7659   7661      9     0.00   0.62760   3 ;    H6S-   C16-   C15-   H5S
  7658   7656   7659   7662      9     0.00   0.66944   3 ;    H6S-   C16-   C15-   C14
  7659   7662   7665   7666      9     0.00   0.66944   3 ;    C15-   C14-   C13-   H3R
  7659   7662   7665   7667      9     0.00   0.66944   3 ;    C15-   C14-   C13-   H3S
  7659   7662   7665   7668      9     0.00   0.41840   1 ;    C15-   C14-   C13-   C12
  7659   7662   7665   7668      9     0.00   0.41840   2 ;    C15-   C14-   C13-   C12
  7659   7662   7665   7668      9     0.00   0.41840   4 ;    C15-   C14-   C13-   C12
  7659   7662   7665   7668      9     0.00   0.41840   5 ;    C15-   C14-   C13-   C12
  7659   7662   7665   7668      9     0.00   1.25520   3 ;    C15-   C14-   C13-   C12
  7660   7659   7662   7663      9     0.00   0.62760   3 ;    H5R-   C15-   C14-   H4R
  7660   7659   7662   7664      9     0.00   0.62760   3 ;    H5R-   C15-   C14-   H4S
  7660   7659   7662   7665      9     0.00   0.66944   3 ;    H5R-   C15-   C14-   C13
  7661   7659   7662   7663      9     0.00   0.62760   3 ;    H5S-   C15-   C14-   H4R
  7661   7659   7662   7664      9     0.00   0.62760   3 ;    H5S-   C15-   C14-   H4S
  7661   7659   7662   7665      9     0.00   0.66944   3 ;    H5S-   C15-   C14-   C13
  7662   7665   7668   7669      9     0.00   0.66944   3 ;    C14-   C13-   C12-   H2R
  7662   7665   7668   7670      9     0.00   0.66944   3 ;    C14-   C13-   C12-   H2S
  7663   7662   7665   7666      9     0.00   0.62760   3 ;    H4R-   C14-   C13-   H3R
  7663   7662   7665   7667      9     0.00   0.62760   3 ;    H4R-   C14-   C13-   H3S
  7663   7662   7665   7668      9     0.00   0.66944   3 ;    H4R-   C14-   C13-   C12
  7664   7662   7665   7666      9     0.00   0.62760   3 ;    H4S-   C14-   C13-   H3R
  7664   7662   7665   7667      9     0.00   0.62760   3 ;    H4S-   C14-   C13-   H3S
  7664   7662   7665   7668      9     0.00   0.66944   3 ;    H4S-   C14-   C13-   C12
  7666   7665   7668   7669      9     0.00   0.62760   3 ;    H3R-   C13-   C12-   H2R
  7666   7665   7668   7670      9     0.00   0.62760   3 ;    H3R-   C13-   C12-   H2S
  7667   7665   7668   7669      9     0.00   0.62760   3 ;    H3S-   C13-   C12-   H2R
  7667   7665   7668   7670      9     0.00   0.62760   3 ;    H3S-   C13-   C12-   H2S
  7671   7672   7675   7676      9     0.00   0.62760   3 ;   H14T-  C114-  C113-  H13R
  7671   7672   7675   7677      9     0.00   0.62760   3 ;   H14T-  C114-  C113-  H13S
  7671   7672   7675   7678      9     0.00   0.66944   3 ;   H14T-  C114-  C113-  C112
  7672   7675   7678   7679      9     0.00   0.66944   3 ;   C114-  C113-  C112-  H12R
  7672   7675   7678   7680      9     0.00   0.66944   3 ;   C114-  C113-  C112-  H12S
  7672   7675   7678   7681      9     0.00   0.41840   1 ;   C114-  C113-  C112-  C111
  7672   7675   7678   7681      9     0.00   0.41840   2 ;   C114-  C113-  C112-  C111
  7672   7675   7678   7681      9     0.00   0.41840   4 ;   C114-  C113-  C112-  C111
  7672   7675   7678   7681      9     0.00   0.41840   5 ;   C114-  C113-  C112-  C111
  7672   7675   7678   7681      9     0.00   1.25520   3 ;   C114-  C113-  C112-  C111
  7673   7672   7675   7676      9     0.00   0.62760   3 ;   H14R-  C114-  C113-  H13R
  7673   7672   7675   7677      9     0.00   0.62760   3 ;   H14R-  C114-  C113-  H13S
  7673   7672   7675   7678      9     0.00   0.66944   3 ;   H14R-  C114-  C113-  C112
  7674   7672   7675   7676      9     0.00   0.62760   3 ;   H14S-  C114-  C113-  H13R
  7674   7672   7675   7677      9     0.00   0.62760   3 ;   H14S-  C114-  C113-  H13S
  7674   7672   7675   7678      9     0.00   0.66944   3 ;   H14S-  C114-  C113-  C112
  7675   7678   7681   7682      9     0.00   0.66944   3 ;   C113-  C112-  C111-  H11R
  7675   7678   7681   7683      9     0.00   0.66944   3 ;   C113-  C112-  C111-  H11S
  7675   7678   7681   7684      9     0.00   0.41840   1 ;   C113-  C112-  C111-  C110
  7675   7678   7681   7684      9     0.00   0.41840   2 ;   C113-  C112-  C111-  C110
  7675   7678   7681   7684      9     0.00   0.41840   4 ;   C113-  C112-  C111-  C110
  7675   7678   7681   7684      9     0.00   0.41840   5 ;   C113-  C112-  C111-  C110
  7675   7678   7681   7684      9     0.00   1.25520   3 ;   C113-  C112-  C111-  C110
  7676   7675   7678   7679      9     0.00   0.62760   3 ;   H13R-  C113-  C112-  H12R
  7676   7675   7678   7680      9     0.00   0.62760   3 ;   H13R-  C113-  C112-  H12S
  7676   7675   7678   7681      9     0.00   0.66944   3 ;   H13R-  C113-  C112-  C111
  7677   7675   7678   7679      9     0.00   0.62760   3 ;   H13S-  C113-  C112-  H12R
  7677   7675   7678   7680      9     0.00   0.62760   3 ;   H13S-  C113-  C112-  H12S
  7677   7675   7678   7681      9     0.00   0.66944   3 ;   H13S-  C113-  C112-  C111
  7678   7681   7684   7685      9     0.00   0.66944   3 ;   C112-  C111-  C110-  H10R
  7678   7681   7684   7686      9     0.00   0.66944   3 ;   C112-  C111-  C110-  H10S
  7678   7681   7684   7687      9     0.00   0.41840   1 ;   C112-  C111-  C110-   C19
  7678   7681   7684   7687      9     0.00   0.41840   2 ;   C112-  C111-  C110-   C19
  7678   7681   7684   7687      9     0.00   0.41840   4 ;   C112-  C111-  C110-   C19
  7678   7681   7684   7687      9     0.00   0.41840   5 ;   C112-  C111-  C110-   C19
  7678   7681   7684   7687      9     0.00   1.25520   3 ;   C112-  C111-  C110-   C19
  7679   7678   7681   7682      9     0.00   0.62760   3 ;   H12R-  C112-  C111-  H11R
  7679   7678   7681   7683      9     0.00   0.62760   3 ;   H12R-  C112-  C111-  H11S
  7679   7678   7681   7684      9     0.00   0.66944   3 ;   H12R-  C112-  C111-  C110
  7680   7678   7681   7682      9     0.00   0.62760   3 ;   H12S-  C112-  C111-  H11R
  7680   7678   7681   7683      9     0.00   0.62760   3 ;   H12S-  C112-  C111-  H11S
  7680   7678   7681   7684      9     0.00   0.66944   3 ;   H12S-  C112-  C111-  C110
  7681   7684   7687   7688      9     0.00   0.66944   3 ;   C111-  C110-   C19-   H9R
  7681   7684   7687   7689      9     0.00   0.66944   3 ;   C111-  C110-   C19-   H9S
  7681   7684   7687   7690      9     0.00   0.41840   1 ;   C111-  C110-   C19-   C18
  7681   7684   7687   7690      9     0.00   0.41840   2 ;   C111-  C110-   C19-   C18
  7681   7684   7687   7690      9     0.00   0.41840   4 ;   C111-  C110-   C19-   C18
  7681   7684   7687   7690      9     0.00   0.41840   5 ;   C111-  C110-   C19-   C18
  7681   7684   7687   7690      9     0.00   1.25520   3 ;   C111-  C110-   C19-   C18
  7682   7681   7684   7685      9     0.00   0.62760   3 ;   H11R-  C111-  C110-  H10R
  7682   7681   7684   7686      9     0.00   0.62760   3 ;   H11R-  C111-  C110-  H10S
  7682   7681   7684   7687      9     0.00   0.66944   3 ;   H11R-  C111-  C110-   C19
  7683   7681   7684   7685      9     0.00   0.62760   3 ;   H11S-  C111-  C110-  H10R
  7683   7681   7684   7686      9     0.00   0.62760   3 ;   H11S-  C111-  C110-  H10S
  7683   7681   7684   7687      9     0.00   0.66944   3 ;   H11S-  C111-  C110-   C19
  7684   7687   7690   7691      9     0.00   0.66944   3 ;   C110-   C19-   C18-   H8R
  7684   7687   7690   7692      9     0.00   0.66944   3 ;   C110-   C19-   C18-   H8S
  7684   7687   7690   7693      9     0.00   0.41840   1 ;   C110-   C19-   C18-   C17
  7684   7687   7690   7693      9     0.00   0.41840   2 ;   C110-   C19-   C18-   C17
  7684   7687   7690   7693      9     0.00   0.41840   4 ;   C110-   C19-   C18-   C17
  7684   7687   7690   7693      9     0.00   0.41840   5 ;   C110-   C19-   C18-   C17
  7684   7687   7690   7693      9     0.00   1.25520   3 ;   C110-   C19-   C18-   C17
  7685   7684   7687   7688      9     0.00   0.62760   3 ;   H10R-  C110-   C19-   H9R
  7685   7684   7687   7689      9     0.00   0.62760   3 ;   H10R-  C110-   C19-   H9S
  7685   7684   7687   7690      9     0.00   0.66944   3 ;   H10R-  C110-   C19-   C18
  7686   7684   7687   7688      9     0.00   0.62760   3 ;   H10S-  C110-   C19-   H9R
  7686   7684   7687   7689      9     0.00   0.62760   3 ;   H10S-  C110-   C19-   H9S
  7686   7684   7687   7690      9     0.00   0.66944   3 ;   H10S-  C110-   C19-   C18
  7687   7690   7693   7694      9     0.00   0.66944   3 ;    C19-   C18-   C17-   H7R
  7687   7690   7693   7695      9     0.00   0.66944   3 ;    C19-   C18-   C17-   H7S
  7687   7690   7693   7696      9     0.00   0.41840   1 ;    C19-   C18-   C17-   C16
  7687   7690   7693   7696      9     0.00   0.41840   2 ;    C19-   C18-   C17-   C16
  7687   7690   7693   7696      9     0.00   0.41840   4 ;    C19-   C18-   C17-   C16
  7687   7690   7693   7696      9     0.00   0.41840   5 ;    C19-   C18-   C17-   C16
  7687   7690   7693   7696      9     0.00   1.25520   3 ;    C19-   C18-   C17-   C16
  7688   7687   7690   7691      9     0.00   0.62760   3 ;    H9R-   C19-   C18-   H8R
  7688   7687   7690   7692      9     0.00   0.62760   3 ;    H9R-   C19-   C18-   H8S
  7688   7687   7690   7693      9     0.00   0.66944   3 ;    H9R-   C19-   C18-   C17
  7689   7687   7690   7691      9     0.00   0.62760   3 ;    H9S-   C19-   C18-   H8R
  7689   7687   7690   7692      9     0.00   0.62760   3 ;    H9S-   C19-   C18-   H8S
  7689   7687   7690   7693      9     0.00   0.66944   3 ;    H9S-   C19-   C18-   C17
  7690   7693   7696   7697      9     0.00   0.66944   3 ;    C18-   C17-   C16-   H6R
  7690   7693   7696   7698      9     0.00   0.66944   3 ;    C18-   C17-   C16-   H6S
  7690   7693   7696   7699      9     0.00   0.41840   1 ;    C18-   C17-   C16-   C15
  7690   7693   7696   7699      9     0.00   0.41840   2 ;    C18-   C17-   C16-   C15
  7690   7693   7696   7699      9     0.00   0.41840   4 ;    C18-   C17-   C16-   C15
  7690   7693   7696   7699      9     0.00   0.41840   5 ;    C18-   C17-   C16-   C15
  7690   7693   7696   7699      9     0.00   1.25520   3 ;    C18-   C17-   C16-   C15
  7691   7690   7693   7694      9     0.00   0.62760   3 ;    H8R-   C18-   C17-   H7R
  7691   7690   7693   7695      9     0.00   0.62760   3 ;    H8R-   C18-   C17-   H7S
  7691   7690   7693   7696      9     0.00   0.66944   3 ;    H8R-   C18-   C17-   C16
  7692   7690   7693   7694      9     0.00   0.62760   3 ;    H8S-   C18-   C17-   H7R
  7692   7690   7693   7695      9     0.00   0.62760   3 ;    H8S-   C18-   C17-   H7S
  7692   7690   7693   7696      9     0.00   0.66944   3 ;    H8S-   C18-   C17-   C16
  7693   7696   7699   7700      9     0.00   0.66944   3 ;    C17-   C16-   C15-   H5R
  7693   7696   7699   7701      9     0.00   0.66944   3 ;    C17-   C16-   C15-   H5S
  7693   7696   7699   7702      9     0.00   0.41840   1 ;    C17-   C16-   C15-   C14
  7693   7696   7699   7702      9     0.00   0.41840   2 ;    C17-   C16-   C15-   C14
  7693   7696   7699   7702      9     0.00   0.41840   4 ;    C17-   C16-   C15-   C14
  7693   7696   7699   7702      9     0.00   0.41840   5 ;    C17-   C16-   C15-   C14
  7693   7696   7699   7702      9     0.00   1.25520   3 ;    C17-   C16-   C15-   C14
  7694   7693   7696   7697      9     0.00   0.62760   3 ;    H7R-   C17-   C16-   H6R
  7694   7693   7696   7698      9     0.00   0.62760   3 ;    H7R-   C17-   C16-   H6S
  7694   7693   7696   7699      9     0.00   0.66944   3 ;    H7R-   C17-   C16-   C15
  7695   7693   7696   7697      9     0.00   0.62760   3 ;    H7S-   C17-   C16-   H6R
  7695   7693   7696   7698      9     0.00   0.62760   3 ;    H7S-   C17-   C16-   H6S
  7695   7693   7696   7699      9     0.00   0.66944   3 ;    H7S-   C17-   C16-   C15
  7696   7699   7702   7703      9     0.00   0.66944   3 ;    C16-   C15-   C14-   H4R
  7696   7699   7702   7704      9     0.00   0.66944   3 ;    C16-   C15-   C14-   H4S
  7696   7699   7702   7705      9     0.00   0.41840   1 ;    C16-   C15-   C14-   C13
  7696   7699   7702   7705      9     0.00   0.41840   2 ;    C16-   C15-   C14-   C13
  7696   7699   7702   7705      9     0.00   0.41840   4 ;    C16-   C15-   C14-   C13
  7696   7699   7702   7705      9     0.00   0.41840   5 ;    C16-   C15-   C14-   C13
  7696   7699   7702   7705      9     0.00   1.25520   3 ;    C16-   C15-   C14-   C13
  7697   7696   7699   7700      9     0.00   0.62760   3 ;    H6R-   C16-   C15-   H5R
  7697   7696   7699   7701      9     0.00   0.62760   3 ;    H6R-   C16-   C15-   H5S
  7697   7696   7699   7702      9     0.00   0.66944   3 ;    H6R-   C16-   C15-   C14
  7698   7696   7699   7700      9     0.00   0.62760   3 ;    H6S-   C16-   C15-   H5R
  7698   7696   7699   7701      9     0.00   0.62760   3 ;    H6S-   C16-   C15-   H5S
  7698   7696   7699   7702      9     0.00   0.66944   3 ;    H6S-   C16-   C15-   C14
  7699   7702   7705   7706      9     0.00   0.66944   3 ;    C15-   C14-   C13-   H3R
  7699   7702   7705   7707      9     0.00   0.66944   3 ;    C15-   C14-   C13-   H3S
  7699   7702   7705   7708      9     0.00   0.41840   1 ;    C15-   C14-   C13-   C12
  7699   7702   7705   7708      9     0.00   0.41840   2 ;    C15-   C14-   C13-   C12
  7699   7702   7705   7708      9     0.00   0.41840   4 ;    C15-   C14-   C13-   C12
  7699   7702   7705   7708      9     0.00   0.41840   5 ;    C15-   C14-   C13-   C12
  7699   7702   7705   7708      9     0.00   1.25520   3 ;    C15-   C14-   C13-   C12
  7700   7699   7702   7703      9     0.00   0.62760   3 ;    H5R-   C15-   C14-   H4R
  7700   7699   7702   7704      9     0.00   0.62760   3 ;    H5R-   C15-   C14-   H4S
  7700   7699   7702   7705      9     0.00   0.66944   3 ;    H5R-   C15-   C14-   C13
  7701   7699   7702   7703      9     0.00   0.62760   3 ;    H5S-   C15-   C14-   H4R
  7701   7699   7702   7704      9     0.00   0.62760   3 ;    H5S-   C15-   C14-   H4S
  7701   7699   7702   7705      9     0.00   0.66944   3 ;    H5S-   C15-   C14-   C13
  7702   7705   7708   7709      9     0.00   0.66944   3 ;    C14-   C13-   C12-   H2R
  7702   7705   7708   7710      9     0.00   0.66944   3 ;    C14-   C13-   C12-   H2S
  7702   7705   7708   7711      9     0.00   0.65270   3 ;    C14-   C13-   C12-   C11
  7703   7702   7705   7706      9     0.00   0.62760   3 ;    H4R-   C14-   C13-   H3R
  7703   7702   7705   7707      9     0.00   0.62760   3 ;    H4R-   C14-   C13-   H3S
  7703   7702   7705   7708      9     0.00   0.66944   3 ;    H4R-   C14-   C13-   C12
  7704   7702   7705   7706      9     0.00   0.62760   3 ;    H4S-   C14-   C13-   H3R
  7704   7702   7705   7707      9     0.00   0.62760   3 ;    H4S-   C14-   C13-   H3S
  7704   7702   7705   7708      9     0.00   0.66944   3 ;    H4S-   C14-   C13-   C12
  7705   7708   7711   7712      9   180.00   0.00000   2 ;    C13-   C12-   C11-   O12
  7705   7708   7711   7713      9   180.00   0.00000   2 ;    C13-   C12-   C11-   O11
  7706   7705   7708   7709      9     0.00   0.62760   3 ;    H3R-   C13-   C12-   H2R
  7706   7705   7708   7710      9     0.00   0.62760   3 ;    H3R-   C13-   C12-   H2S
  7706   7705   7708   7711      9     0.00   0.65270   3 ;    H3R-   C13-   C12-   C11
  7707   7705   7708   7709      9     0.00   0.62760   3 ;    H3S-   C13-   C12-   H2R
  7707   7705   7708   7710      9     0.00   0.62760   3 ;    H3S-   C13-   C12-   H2S
  7707   7705   7708   7711      9     0.00   0.65270   3 ;    H3S-   C13-   C12-   C11
  7708   7711   7713   7714      9   180.00  11.29680   2 ;    C12-   C11-   O11-    C1
  7709   7708   7711   7712      9     0.00   3.34720   1 ;    H2R-   C12-   C11-   O12
  7709   7708   7711   7712      9   180.00   0.33472   3 ;    H2R-   C12-   C11-   O12
  7709   7708   7711   7713      9   180.00   0.00000   2 ;    H2R-   C12-   C11-   O11
  7710   7708   7711   7712      9     0.00   3.34720   1 ;    H2S-   C12-   C11-   O12
  7710   7708   7711   7712      9   180.00   0.33472   3 ;    H2S-   C12-   C11-   O12
  7710   7708   7711   7713      9   180.00   0.00000   2 ;    H2S-   C12-   C11-   O11
  7711   7713   7714   7715      9     0.00   1.60247   3 ;    C11-   O11-    C1-    HR
  7711   7713   7714   7716      9     0.00   1.60247   3 ;    C11-   O11-    C1-    HS
  7711   7713   7714   7717      9     0.00  -0.41840   1 ;    C11-   O11-    C1-    C2
  7712   7711   7713   7714      9   180.00   5.85760   1 ;    O12-   C11-   O11-    C1
  7712   7711   7713   7714      9   180.00  11.29680   2 ;    O12-   C11-   O11-    C1
  7713   7714   7717   7718      9     0.00   0.00000   0 ;    O11-    C1-    C2-    HX
  7713   7714   7717   7718      9     0.00   1.04600   1 ;    O11-    C1-    C2-    HX
  7713   7714   7717   7719      9     0.00   0.00000   0 ;    O11-    C1-    C2-    C3
  7713   7714   7717   7719      9     0.00   0.00000   0 ;    O11-    C1-    C2-    C3
  7713   7714   7717   7719      9     0.00   0.00000   0 ;    O11-    C1-    C2-    C3
  7713   7714   7717   7719      9     0.00   0.00000   0 ;    O11-    C1-    C2-    C3
  7713   7714   7717   7719      9     0.00   0.00000   0 ;    O11-    C1-    C2-    C3
  7713   7714   7717   7746      9     0.00   1.25520   2 ;    O11-    C1-    C2-   O21
  7713   7714   7717   7746      9     0.00   4.18400   3 ;    O11-    C1-    C2-   O21
  7713   7714   7717   7746      9   180.00  -0.41840   1 ;    O11-    C1-    C2-   O21
  7714   7717   7719   7720      9     0.00   0.65270   3 ;     C1-    C2-    C3-    HA
  7714   7717   7719   7721      9     0.00   0.65270   3 ;     C1-    C2-    C3-    HB
  7714   7717   7719   7722      9   180.00   3.34720   1 ;     C1-    C2-    C3-   O31
  7714   7717   7746   7747      9     0.00  -0.41840   1 ;     C1-    C2-   O21-   C21
  7715   7714   7717   7718      9     0.00   0.65270   3 ;     HR-    C1-    C2-    HX
  7715   7714   7717   7719      9     0.00   0.65270   3 ;     HR-    C1-    C2-    C3
  7715   7714   7717   7746      9     0.00   0.00000   0 ;     HR-    C1-    C2-   O21
  7715   7714   7717   7746      9     0.00   1.04600   1 ;     HR-    C1-    C2-   O21
  7716   7714   7717   7718      9     0.00   0.65270   3 ;     HS-    C1-    C2-    HX
  7716   7714   7717   7719      9     0.00   0.65270   3 ;     HS-    C1-    C2-    C3
  7716   7714   7717   7746      9     0.00   0.00000   0 ;     HS-    C1-    C2-   O21
  7716   7714   7717   7746      9     0.00   1.04600   1 ;     HS-    C1-    C2-   O21
  7717   7719   7722   7723      9     0.00   0.00000   0 ;     C2-    C3-   O31-   P31
  7717   7719   7722   7723      9   180.00  -3.34720   2 ;     C2-    C3-   O31-   P31
  7717   7746   7747   7748      9   180.00   5.85760   1 ;     C2-   O21-   C21-   O22
  7717   7746   7747   7748      9   180.00  11.29680   2 ;     C2-   O21-   C21-   O22
  7717   7746   7747   7786      9   180.00  11.29680   2 ;     C2-   O21-   C21-   C12
  7718   7717   7719   7720      9     0.00   0.65270   3 ;     HX-    C2-    C3-    HA
  7718   7717   7719   7721      9     0.00   0.65270   3 ;     HX-    C2-    C3-    HB
  7718   7717   7719   7722      9     0.00   0.00000   0 ;     HX-    C2-    C3-   O31
  7718   7717   7719   7722      9     0.00   1.04600   1 ;     HX-    C2-    C3-   O31
  7718   7717   7746   7747      9     0.00   1.60247   3 ;     HX-    C2-   O21-   C21
  7719   7717   7746   7747      9     0.00  -0.41840   1 ;     C3-    C2-   O21-   C21
  7719   7722   7723   7724      9     0.00   2.51040   3 ;     C3-   O31-   P31-   O32
  7719   7722   7723   7724      9     0.00   9.62320   2 ;     C3-   O31-   P31-   O32
  7719   7722   7723   7744      9     0.00   0.00000   0 ;     C3-   O31-   P31-   O33
  7719   7722   7723   7744      9     0.00   0.00000   0 ;     C3-   O31-   P31-   O33
  7719   7722   7723   7744      9     0.00   0.00000   0 ;     C3-   O31-   P31-   O33
  7719   7722   7723   7744      9     0.00   0.00000   0 ;     C3-   O31-   P31-   O33
  7719   7722   7723   7744      9     0.00   0.83680   2 ;     C3-   O31-   P31-   O33
  7719   7722   7723   7745      9     0.00   0.00000   0 ;     C3-   O31-   P31-   O34
  7719   7722   7723   7745      9     0.00   0.00000   0 ;     C3-   O31-   P31-   O34
  7719   7722   7723   7745      9     0.00   0.00000   0 ;     C3-   O31-   P31-   O34
  7719   7722   7723   7745      9     0.00   0.00000   0 ;     C3-   O31-   P31-   O34
  7719   7722   7723   7745      9     0.00   0.83680   2 ;     C3-   O31-   P31-   O34
  7720   7719   7717   7746      9     0.00   0.00000   0 ;     HA-    C3-    C2-   O21
  7720   7719   7717   7746      9     0.00   1.04600   1 ;     HA-    C3-    C2-   O21
  7720   7719   7722   7723      9     0.00   0.00000   0 ;     HA-    C3-   O31-   P31
  7720   7719   7722   7723      9     0.00   0.00000   0 ;     HA-    C3-   O31-   P31
  7720   7719   7722   7723      9     0.00   0.00000   0 ;     HA-    C3-   O31-   P31
  7720   7719   7722   7723      9     0.00   0.00000   0 ;     HA-    C3-   O31-   P31
  7720   7719   7722   7723      9     0.00   1.60247   3 ;     HA-    C3-   O31-   P31
  7721   7719   7717   7746      9     0.00   0.00000   0 ;     HB-    C3-    C2-   O21
  7721   7719   7717   7746      9     0.00   1.04600   1 ;     HB-    C3-    C2-   O21
  7721   7719   7722   7723      9     0.00   0.00000   0 ;     HB-    C3-   O31-   P31
  7721   7719   7722   7723      9     0.00   0.00000   0 ;     HB-    C3-   O31-   P31
  7721   7719   7722   7723      9     0.00   0.00000   0 ;     HB-    C3-   O31-   P31
  7721   7719   7722   7723      9     0.00   0.00000   0 ;     HB-    C3-   O31-   P31
  7721   7719   7722   7723      9     0.00   1.60247   3 ;     HB-    C3-   O31-   P31
  7722   7719   7717   7746      9     0.00   0.00000   0 ;    O31-    C3-    C2-   O21
  7722   7719   7717   7746      9     0.00   0.00000   0 ;    O31-    C3-    C2-   O21
  7722   7719   7717   7746      9     0.00   0.00000   0 ;    O31-    C3-    C2-   O21
  7722   7719   7717   7746      9     0.00   0.00000   0 ;    O31-    C3-    C2-   O21
  7722   7719   7717   7746      9     0.00   0.00000   0 ;    O31-    C3-    C2-   O21
  7722   7723   7724   7725      9     0.00   2.51040   3 ;    O31-   P31-   O32-   C31
  7722   7723   7724   7725      9     0.00   9.62320   2 ;    O31-   P31-   O32-   C31
  7723   7724   7725   7726      9     0.00   0.00000   0 ;    P31-   O32-   C31-   H1A
  7723   7724   7725   7726      9     0.00   0.00000   0 ;    P31-   O32-   C31-   H1A
  7723   7724   7725   7726      9     0.00   0.00000   0 ;    P31-   O32-   C31-   H1A
  7723   7724   7725   7726      9     0.00   0.00000   0 ;    P31-   O32-   C31-   H1A
  7723   7724   7725   7726      9     0.00   1.60247   3 ;    P31-   O32-   C31-   H1A
  7723   7724   7725   7727      9     0.00   0.00000   0 ;    P31-   O32-   C31-   H1B
  7723   7724   7725   7727      9     0.00   0.00000   0 ;    P31-   O32-   C31-   H1B
  7723   7724   7725   7727      9     0.00   0.00000   0 ;    P31-   O32-   C31-   H1B
  7723   7724   7725   7727      9     0.00   0.00000   0 ;    P31-   O32-   C31-   H1B
  7723   7724   7725   7727      9     0.00   1.60247   3 ;    P31-   O32-   C31-   H1B
  7723   7724   7725   7728      9     0.00   0.00000   0 ;    P31-   O32-   C31-   C32
  7723   7724   7725   7728      9   180.00  -3.34720   2 ;    P31-   O32-   C31-   C32
  7724   7725   7728   7729      9     0.00   0.65270   3 ;    O32-   C31-   C32-   H2A
  7724   7725   7728   7730      9     0.00   0.65270   3 ;    O32-   C31-   C32-   H2B
  7724   7725   7728   7731      9     0.00   4.18400   3 ;    O32-   C31-   C32-   N31
  7725   7724   7723   7744      9     0.00   0.00000   0 ;    C31-   O32-   P31-   O33
  7725   7724   7723   7744      9     0.00   0.00000   0 ;    C31-   O32-   P31-   O33
  7725   7724   7723   7744      9     0.00   0.00000   0 ;    C31-   O32-   P31-   O33
  7725   7724   7723   7744      9     0.00   0.00000   0 ;    C31-   O32-   P31-   O33
  7725   7724   7723   7744      9     0.00   0.83680   2 ;    C31-   O32-   P31-   O33
  7725   7724   7723   7745      9     0.00   0.00000   0 ;    C31-   O32-   P31-   O34
  7725   7724   7723   7745      9     0.00   0.00000   0 ;    C31-   O32-   P31-   O34
  7725   7724   7723   7745      9     0.00   0.00000   0 ;    C31-   O32-   P31-   O34
  7725   7724   7723   7745      9     0.00   0.00000   0 ;    C31-   O32-   P31-   O34
  7725   7724   7723   7745      9     0.00   0.83680   2 ;    C31-   O32-   P31-   O34
  7725   7728   7731   7732      9     0.00   0.65270   3 ;    C31-   C32-   N31-   C33
  7725   7728   7731   7736      9     0.00   0.65270   3 ;    C31-   C32-   N31-   C34
  7725   7728   7731   7740      9     0.00   0.65270   3 ;    C31-   C32-   N31-   C35
  7726   7725   7728   7729      9     0.00   0.65270   3 ;    H1A-   C31-   C32-   H2A
  7726   7725   7728   7730      9     0.00   0.65270   3 ;    H1A-   C31-   C32-   H2B
  7726   7725   7728   7731      9     0.00   0.65270   3 ;    H1A-   C31-   C32-   N31
  7727   7725   7728   7729      9     0.00   0.65270   3 ;    H1B-   C31-   C32-   H2A
  7727   7725   7728   7730      9     0.00   0.65270   3 ;    H1B-   C31-   C32-   H2B
  7727   7725   7728   7731      9     0.00   0.65270   3 ;    H1B-   C31-   C32-   N31
  7728   7731   7732   7733      9     0.00   0.65270   3 ;    C32-   N31-   C33-   H3A
  7728   7731   7732   7734      9     0.00   0.65270   3 ;    C32-   N31-   C33-   H3B
  7728   7731   7732   7735      9     0.00   0.65270   3 ;    C32-   N31-   C33-   H3C
  7728   7731   7736   7737      9     0.00   0.65270   3 ;    C32-   N31-   C34-   H4A
  7728   7731   7736   7738      9     0.00   0.65270   3 ;    C32-   N31-   C34-   H4B
  7728   7731   7736   7739      9     0.00   0.65270   3 ;    C32-   N31-   C34-   H4C
  7728   7731   7740   7741      9     0.00   0.65270   3 ;    C32-   N31-   C35-   H5A
  7728   7731   7740   7742      9     0.00   0.65270   3 ;    C32-   N31-   C35-   H5B
  7728   7731   7740   7743      9     0.00   0.65270   3 ;    C32-   N31-   C35-   H5C
  7729   7728   7731   7732      9     0.00   0.65270   3 ;    H2A-   C32-   N31-   C33
  7729   7728   7731   7736      9     0.00   0.65270   3 ;    H2A-   C32-   N31-   C34
  7729   7728   7731   7740      9     0.00   0.65270   3 ;    H2A-   C32-   N31-   C35
  7730   7728   7731   7732      9     0.00   0.65270   3 ;    H2B-   C32-   N31-   C33
  7730   7728   7731   7736      9     0.00   0.65270   3 ;    H2B-   C32-   N31-   C34
  7730   7728   7731   7740      9     0.00   0.65270   3 ;    H2B-   C32-   N31-   C35
  7732   7731   7736   7737      9     0.00   0.65270   3 ;    C33-   N31-   C34-   H4A
  7732   7731   7736   7738      9     0.00   0.65270   3 ;    C33-   N31-   C34-   H4B
  7732   7731   7736   7739      9     0.00   0.65270   3 ;    C33-   N31-   C34-   H4C
  7732   7731   7740   7741      9     0.00   0.65270   3 ;    C33-   N31-   C35-   H5A
  7732   7731   7740   7742      9     0.00   0.65270   3 ;    C33-   N31-   C35-   H5B
  7732   7731   7740   7743      9     0.00   0.65270   3 ;    C33-   N31-   C35-   H5C
  7733   7732   7731   7736      9     0.00   0.65270   3 ;    H3A-   C33-   N31-   C34
  7733   7732   7731   7740      9     0.00   0.65270   3 ;    H3A-   C33-   N31-   C35
  7734   7732   7731   7736      9     0.00   0.65270   3 ;    H3B-   C33-   N31-   C34
  7734   7732   7731   7740      9     0.00   0.65270   3 ;    H3B-   C33-   N31-   C35
  7735   7732   7731   7736      9     0.00   0.65270   3 ;    H3C-   C33-   N31-   C34
  7735   7732   7731   7740      9     0.00   0.65270   3 ;    H3C-   C33-   N31-   C35
  7736   7731   7740   7741      9     0.00   0.65270   3 ;    C34-   N31-   C35-   H5A
  7736   7731   7740   7742      9     0.00   0.65270   3 ;    C34-   N31-   C35-   H5B
  7736   7731   7740   7743      9     0.00   0.65270   3 ;    C34-   N31-   C35-   H5C
  7737   7736   7731   7740      9     0.00   0.65270   3 ;    H4A-   C34-   N31-   C35
  7738   7736   7731   7740      9     0.00   0.65270   3 ;    H4B-   C34-   N31-   C35
  7739   7736   7731   7740      9     0.00   0.65270   3 ;    H4C-   C34-   N31-   C35
  7746   7747   7786   7783      9   180.00   0.00000   2 ;    O21-   C21-   C12-   C13
  7746   7747   7786   7787      9   180.00   0.00000   2 ;    O21-   C21-   C12-   H2R
  7746   7747   7786   7788      9   180.00   0.00000   2 ;    O21-   C21-   C12-   H2S
  7747   7786   7783   7780      9     0.00   0.65270   3 ;    C21-   C12-   C13-   C14
  7747   7786   7783   7784      9     0.00   0.65270   3 ;    C21-   C12-   C13-   H3R
  7747   7786   7783   7785      9     0.00   0.65270   3 ;    C21-   C12-   C13-   H3S
  7748   7747   7786   7783      9   180.00   0.00000   2 ;    O22-   C21-   C12-   C13
  7748   7747   7786   7787      9     0.00   3.34720   1 ;    O22-   C21-   C12-   H2R
  7748   7747   7786   7787      9   180.00   0.33472   3 ;    O22-   C21-   C12-   H2R
  7748   7747   7786   7788      9     0.00   3.34720   1 ;    O22-   C21-   C12-   H2S
  7748   7747   7786   7788      9   180.00   0.33472   3 ;    O22-   C21-   C12-   H2S
  7749   7750   7753   7754      9     0.00   0.62760   3 ;   H14T-  C114-  C113-  H13R
  7749   7750   7753   7755      9     0.00   0.62760   3 ;   H14T-  C114-  C113-  H13S
  7749   7750   7753   7756      9     0.00   0.66944   3 ;   H14T-  C114-  C113-  C112
  7750   7753   7756   7757      9     0.00   0.66944   3 ;   C114-  C113-  C112-  H12R
  7750   7753   7756   7758      9     0.00   0.66944   3 ;   C114-  C113-  C112-  H12S
  7750   7753   7756   7759      9     0.00   0.41840   1 ;   C114-  C113-  C112-  C111
  7750   7753   7756   7759      9     0.00   0.41840   2 ;   C114-  C113-  C112-  C111
  7750   7753   7756   7759      9     0.00   0.41840   4 ;   C114-  C113-  C112-  C111
  7750   7753   7756   7759      9     0.00   0.41840   5 ;   C114-  C113-  C112-  C111
  7750   7753   7756   7759      9     0.00   1.25520   3 ;   C114-  C113-  C112-  C111
  7751   7750   7753   7754      9     0.00   0.62760   3 ;   H14R-  C114-  C113-  H13R
  7751   7750   7753   7755      9     0.00   0.62760   3 ;   H14R-  C114-  C113-  H13S
  7751   7750   7753   7756      9     0.00   0.66944   3 ;   H14R-  C114-  C113-  C112
  7752   7750   7753   7754      9     0.00   0.62760   3 ;   H14S-  C114-  C113-  H13R
  7752   7750   7753   7755      9     0.00   0.62760   3 ;   H14S-  C114-  C113-  H13S
  7752   7750   7753   7756      9     0.00   0.66944   3 ;   H14S-  C114-  C113-  C112
  7753   7756   7759   7760      9     0.00   0.66944   3 ;   C113-  C112-  C111-  H11R
  7753   7756   7759   7761      9     0.00   0.66944   3 ;   C113-  C112-  C111-  H11S
  7753   7756   7759   7762      9     0.00   0.41840   1 ;   C113-  C112-  C111-  C110
  7753   7756   7759   7762      9     0.00   0.41840   2 ;   C113-  C112-  C111-  C110
  7753   7756   7759   7762      9     0.00   0.41840   4 ;   C113-  C112-  C111-  C110
  7753   7756   7759   7762      9     0.00   0.41840   5 ;   C113-  C112-  C111-  C110
  7753   7756   7759   7762      9     0.00   1.25520   3 ;   C113-  C112-  C111-  C110
  7754   7753   7756   7757      9     0.00   0.62760   3 ;   H13R-  C113-  C112-  H12R
  7754   7753   7756   7758      9     0.00   0.62760   3 ;   H13R-  C113-  C112-  H12S
  7754   7753   7756   7759      9     0.00   0.66944   3 ;   H13R-  C113-  C112-  C111
  7755   7753   7756   7757      9     0.00   0.62760   3 ;   H13S-  C113-  C112-  H12R
  7755   7753   7756   7758      9     0.00   0.62760   3 ;   H13S-  C113-  C112-  H12S
  7755   7753   7756   7759      9     0.00   0.66944   3 ;   H13S-  C113-  C112-  C111
  7756   7759   7762   7763      9     0.00   0.66944   3 ;   C112-  C111-  C110-  H10R
  7756   7759   7762   7764      9     0.00   0.66944   3 ;   C112-  C111-  C110-  H10S
  7756   7759   7762   7765      9     0.00   0.41840   1 ;   C112-  C111-  C110-   C19
  7756   7759   7762   7765      9     0.00   0.41840   2 ;   C112-  C111-  C110-   C19
  7756   7759   7762   7765      9     0.00   0.41840   4 ;   C112-  C111-  C110-   C19
  7756   7759   7762   7765      9     0.00   0.41840   5 ;   C112-  C111-  C110-   C19
  7756   7759   7762   7765      9     0.00   1.25520   3 ;   C112-  C111-  C110-   C19
  7757   7756   7759   7760      9     0.00   0.62760   3 ;   H12R-  C112-  C111-  H11R
  7757   7756   7759   7761      9     0.00   0.62760   3 ;   H12R-  C112-  C111-  H11S
  7757   7756   7759   7762      9     0.00   0.66944   3 ;   H12R-  C112-  C111-  C110
  7758   7756   7759   7760      9     0.00   0.62760   3 ;   H12S-  C112-  C111-  H11R
  7758   7756   7759   7761      9     0.00   0.62760   3 ;   H12S-  C112-  C111-  H11S
  7758   7756   7759   7762      9     0.00   0.66944   3 ;   H12S-  C112-  C111-  C110
  7759   7762   7765   7766      9     0.00   0.66944   3 ;   C111-  C110-   C19-   H9R
  7759   7762   7765   7767      9     0.00   0.66944   3 ;   C111-  C110-   C19-   H9S
  7759   7762   7765   7768      9     0.00   0.41840   1 ;   C111-  C110-   C19-   C18
  7759   7762   7765   7768      9     0.00   0.41840   2 ;   C111-  C110-   C19-   C18
  7759   7762   7765   7768      9     0.00   0.41840   4 ;   C111-  C110-   C19-   C18
  7759   7762   7765   7768      9     0.00   0.41840   5 ;   C111-  C110-   C19-   C18
  7759   7762   7765   7768      9     0.00   1.25520   3 ;   C111-  C110-   C19-   C18
  7760   7759   7762   7763      9     0.00   0.62760   3 ;   H11R-  C111-  C110-  H10R
  7760   7759   7762   7764      9     0.00   0.62760   3 ;   H11R-  C111-  C110-  H10S
  7760   7759   7762   7765      9     0.00   0.66944   3 ;   H11R-  C111-  C110-   C19
  7761   7759   7762   7763      9     0.00   0.62760   3 ;   H11S-  C111-  C110-  H10R
  7761   7759   7762   7764      9     0.00   0.62760   3 ;   H11S-  C111-  C110-  H10S
  7761   7759   7762   7765      9     0.00   0.66944   3 ;   H11S-  C111-  C110-   C19
  7762   7765   7768   7769      9     0.00   0.66944   3 ;   C110-   C19-   C18-   H8R
  7762   7765   7768   7770      9     0.00   0.66944   3 ;   C110-   C19-   C18-   H8S
  7762   7765   7768   7771      9     0.00   0.41840   1 ;   C110-   C19-   C18-   C17
  7762   7765   7768   7771      9     0.00   0.41840   2 ;   C110-   C19-   C18-   C17
  7762   7765   7768   7771      9     0.00   0.41840   4 ;   C110-   C19-   C18-   C17
  7762   7765   7768   7771      9     0.00   0.41840   5 ;   C110-   C19-   C18-   C17
  7762   7765   7768   7771      9     0.00   1.25520   3 ;   C110-   C19-   C18-   C17
  7763   7762   7765   7766      9     0.00   0.62760   3 ;   H10R-  C110-   C19-   H9R
  7763   7762   7765   7767      9     0.00   0.62760   3 ;   H10R-  C110-   C19-   H9S
  7763   7762   7765   7768      9     0.00   0.66944   3 ;   H10R-  C110-   C19-   C18
  7764   7762   7765   7766      9     0.00   0.62760   3 ;   H10S-  C110-   C19-   H9R
  7764   7762   7765   7767      9     0.00   0.62760   3 ;   H10S-  C110-   C19-   H9S
  7764   7762   7765   7768      9     0.00   0.66944   3 ;   H10S-  C110-   C19-   C18
  7765   7768   7771   7772      9     0.00   0.66944   3 ;    C19-   C18-   C17-   H7R
  7765   7768   7771   7773      9     0.00   0.66944   3 ;    C19-   C18-   C17-   H7S
  7765   7768   7771   7774      9     0.00   0.41840   1 ;    C19-   C18-   C17-   C16
  7765   7768   7771   7774      9     0.00   0.41840   2 ;    C19-   C18-   C17-   C16
  7765   7768   7771   7774      9     0.00   0.41840   4 ;    C19-   C18-   C17-   C16
  7765   7768   7771   7774      9     0.00   0.41840   5 ;    C19-   C18-   C17-   C16
  7765   7768   7771   7774      9     0.00   1.25520   3 ;    C19-   C18-   C17-   C16
  7766   7765   7768   7769      9     0.00   0.62760   3 ;    H9R-   C19-   C18-   H8R
  7766   7765   7768   7770      9     0.00   0.62760   3 ;    H9R-   C19-   C18-   H8S
  7766   7765   7768   7771      9     0.00   0.66944   3 ;    H9R-   C19-   C18-   C17
  7767   7765   7768   7769      9     0.00   0.62760   3 ;    H9S-   C19-   C18-   H8R
  7767   7765   7768   7770      9     0.00   0.62760   3 ;    H9S-   C19-   C18-   H8S
  7767   7765   7768   7771      9     0.00   0.66944   3 ;    H9S-   C19-   C18-   C17
  7768   7771   7774   7775      9     0.00   0.66944   3 ;    C18-   C17-   C16-   H6R
  7768   7771   7774   7776      9     0.00   0.66944   3 ;    C18-   C17-   C16-   H6S
  7768   7771   7774   7777      9     0.00   0.41840   1 ;    C18-   C17-   C16-   C15
  7768   7771   7774   7777      9     0.00   0.41840   2 ;    C18-   C17-   C16-   C15
  7768   7771   7774   7777      9     0.00   0.41840   4 ;    C18-   C17-   C16-   C15
  7768   7771   7774   7777      9     0.00   0.41840   5 ;    C18-   C17-   C16-   C15
  7768   7771   7774   7777      9     0.00   1.25520   3 ;    C18-   C17-   C16-   C15
  7769   7768   7771   7772      9     0.00   0.62760   3 ;    H8R-   C18-   C17-   H7R
  7769   7768   7771   7773      9     0.00   0.62760   3 ;    H8R-   C18-   C17-   H7S
  7769   7768   7771   7774      9     0.00   0.66944   3 ;    H8R-   C18-   C17-   C16
  7770   7768   7771   7772      9     0.00   0.62760   3 ;    H8S-   C18-   C17-   H7R
  7770   7768   7771   7773      9     0.00   0.62760   3 ;    H8S-   C18-   C17-   H7S
  7770   7768   7771   7774      9     0.00   0.66944   3 ;    H8S-   C18-   C17-   C16
  7771   7774   7777   7778      9     0.00   0.66944   3 ;    C17-   C16-   C15-   H5R
  7771   7774   7777   7779      9     0.00   0.66944   3 ;    C17-   C16-   C15-   H5S
  7771   7774   7777   7780      9     0.00   0.41840   1 ;    C17-   C16-   C15-   C14
  7771   7774   7777   7780      9     0.00   0.41840   2 ;    C17-   C16-   C15-   C14
  7771   7774   7777   7780      9     0.00   0.41840   4 ;    C17-   C16-   C15-   C14
  7771   7774   7777   7780      9     0.00   0.41840   5 ;    C17-   C16-   C15-   C14
  7771   7774   7777   7780      9     0.00   1.25520   3 ;    C17-   C16-   C15-   C14
  7772   7771   7774   7775      9     0.00   0.62760   3 ;    H7R-   C17-   C16-   H6R
  7772   7771   7774   7776      9     0.00   0.62760   3 ;    H7R-   C17-   C16-   H6S
  7772   7771   7774   7777      9     0.00   0.66944   3 ;    H7R-   C17-   C16-   C15
  7773   7771   7774   7775      9     0.00   0.62760   3 ;    H7S-   C17-   C16-   H6R
  7773   7771   7774   7776      9     0.00   0.62760   3 ;    H7S-   C17-   C16-   H6S
  7773   7771   7774   7777      9     0.00   0.66944   3 ;    H7S-   C17-   C16-   C15
  7774   7777   7780   7781      9     0.00   0.66944   3 ;    C16-   C15-   C14-   H4R
  7774   7777   7780   7782      9     0.00   0.66944   3 ;    C16-   C15-   C14-   H4S
  7774   7777   7780   7783      9     0.00   0.41840   1 ;    C16-   C15-   C14-   C13
  7774   7777   7780   7783      9     0.00   0.41840   2 ;    C16-   C15-   C14-   C13
  7774   7777   7780   7783      9     0.00   0.41840   4 ;    C16-   C15-   C14-   C13
  7774   7777   7780   7783      9     0.00   0.41840   5 ;    C16-   C15-   C14-   C13
  7774   7777   7780   7783      9     0.00   1.25520   3 ;    C16-   C15-   C14-   C13
  7775   7774   7777   7778      9     0.00   0.62760   3 ;    H6R-   C16-   C15-   H5R
  7775   7774   7777   7779      9     0.00   0.62760   3 ;    H6R-   C16-   C15-   H5S
  7775   7774   7777   7780      9     0.00   0.66944   3 ;    H6R-   C16-   C15-   C14
  7776   7774   7777   7778      9     0.00   0.62760   3 ;    H6S-   C16-   C15-   H5R
  7776   7774   7777   7779      9     0.00   0.62760   3 ;    H6S-   C16-   C15-   H5S
  7776   7774   7777   7780      9     0.00   0.66944   3 ;    H6S-   C16-   C15-   C14
  7777   7780   7783   7784      9     0.00   0.66944   3 ;    C15-   C14-   C13-   H3R
  7777   7780   7783   7785      9     0.00   0.66944   3 ;    C15-   C14-   C13-   H3S
  7777   7780   7783   7786      9     0.00   0.41840   1 ;    C15-   C14-   C13-   C12
  7777   7780   7783   7786      9     0.00   0.41840   2 ;    C15-   C14-   C13-   C12
  7777   7780   7783   7786      9     0.00   0.41840   4 ;    C15-   C14-   C13-   C12
  7777   7780   7783   7786      9     0.00   0.41840   5 ;    C15-   C14-   C13-   C12
  7777   7780   7783   7786      9     0.00   1.25520   3 ;    C15-   C14-   C13-   C12
  7778   7777   7780   7781      9     0.00   0.62760   3 ;    H5R-   C15-   C14-   H4R
  7778   7777   7780   7782      9     0.00   0.62760   3 ;    H5R-   C15-   C14-   H4S
  7778   7777   7780   7783      9     0.00   0.66944   3 ;    H5R-   C15-   C14-   C13
  7779   7777   7780   7781      9     0.00   0.62760   3 ;    H5S-   C15-   C14-   H4R
  7779   7777   7780   7782      9     0.00   0.62760   3 ;    H5S-   C15-   C14-   H4S
  7779   7777   7780   7783      9     0.00   0.66944   3 ;    H5S-   C15-   C14-   C13
  7780   7783   7786   7787      9     0.00   0.66944   3 ;    C14-   C13-   C12-   H2R
  7780   7783   7786   7788      9     0.00   0.66944   3 ;    C14-   C13-   C12-   H2S
  7781   7780   7783   7784      9     0.00   0.62760   3 ;    H4R-   C14-   C13-   H3R
  7781   7780   7783   7785      9     0.00   0.62760   3 ;    H4R-   C14-   C13-   H3S
  7781   7780   7783   7786      9     0.00   0.66944   3 ;    H4R-   C14-   C13-   C12
  7782   7780   7783   7784      9     0.00   0.62760   3 ;    H4S-   C14-   C13-   H3R
  7782   7780   7783   7785      9     0.00   0.62760   3 ;    H4S-   C14-   C13-   H3S
  7782   7780   7783   7786      9     0.00   0.66944   3 ;    H4S-   C14-   C13-   C12
  7784   7783   7786   7787      9     0.00   0.62760   3 ;    H3R-   C13-   C12-   H2R
  7784   7783   7786   7788      9     0.00   0.62760   3 ;    H3R-   C13-   C12-   H2S
  7785   7783   7786   7787      9     0.00   0.62760   3 ;    H3S-   C13-   C12-   H2R
  7785   7783   7786   7788      9     0.00   0.62760   3 ;    H3S-   C13-   C12-   H2S
  7789   7790   7793   7794      9     0.00   0.62760   3 ;   H14T-  C114-  C113-  H13R
  7789   7790   7793   7795      9     0.00   0.62760   3 ;   H14T-  C114-  C113-  H13S
  7789   7790   7793   7796      9     0.00   0.66944   3 ;   H14T-  C114-  C113-  C112
  7790   7793   7796   7797      9     0.00   0.66944   3 ;   C114-  C113-  C112-  H12R
  7790   7793   7796   7798      9     0.00   0.66944   3 ;   C114-  C113-  C112-  H12S
  7790   7793   7796   7799      9     0.00   0.41840   1 ;   C114-  C113-  C112-  C111
  7790   7793   7796   7799      9     0.00   0.41840   2 ;   C114-  C113-  C112-  C111
  7790   7793   7796   7799      9     0.00   0.41840   4 ;   C114-  C113-  C112-  C111
  7790   7793   7796   7799      9     0.00   0.41840   5 ;   C114-  C113-  C112-  C111
  7790   7793   7796   7799      9     0.00   1.25520   3 ;   C114-  C113-  C112-  C111
  7791   7790   7793   7794      9     0.00   0.62760   3 ;   H14R-  C114-  C113-  H13R
  7791   7790   7793   7795      9     0.00   0.62760   3 ;   H14R-  C114-  C113-  H13S
  7791   7790   7793   7796      9     0.00   0.66944   3 ;   H14R-  C114-  C113-  C112
  7792   7790   7793   7794      9     0.00   0.62760   3 ;   H14S-  C114-  C113-  H13R
  7792   7790   7793   7795      9     0.00   0.62760   3 ;   H14S-  C114-  C113-  H13S
  7792   7790   7793   7796      9     0.00   0.66944   3 ;   H14S-  C114-  C113-  C112
  7793   7796   7799   7800      9     0.00   0.66944   3 ;   C113-  C112-  C111-  H11R
  7793   7796   7799   7801      9     0.00   0.66944   3 ;   C113-  C112-  C111-  H11S
  7793   7796   7799   7802      9     0.00   0.41840   1 ;   C113-  C112-  C111-  C110
  7793   7796   7799   7802      9     0.00   0.41840   2 ;   C113-  C112-  C111-  C110
  7793   7796   7799   7802      9     0.00   0.41840   4 ;   C113-  C112-  C111-  C110
  7793   7796   7799   7802      9     0.00   0.41840   5 ;   C113-  C112-  C111-  C110
  7793   7796   7799   7802      9     0.00   1.25520   3 ;   C113-  C112-  C111-  C110
  7794   7793   7796   7797      9     0.00   0.62760   3 ;   H13R-  C113-  C112-  H12R
  7794   7793   7796   7798      9     0.00   0.62760   3 ;   H13R-  C113-  C112-  H12S
  7794   7793   7796   7799      9     0.00   0.66944   3 ;   H13R-  C113-  C112-  C111
  7795   7793   7796   7797      9     0.00   0.62760   3 ;   H13S-  C113-  C112-  H12R
  7795   7793   7796   7798      9     0.00   0.62760   3 ;   H13S-  C113-  C112-  H12S
  7795   7793   7796   7799      9     0.00   0.66944   3 ;   H13S-  C113-  C112-  C111
  7796   7799   7802   7803      9     0.00   0.66944   3 ;   C112-  C111-  C110-  H10R
  7796   7799   7802   7804      9     0.00   0.66944   3 ;   C112-  C111-  C110-  H10S
  7796   7799   7802   7805      9     0.00   0.41840   1 ;   C112-  C111-  C110-   C19
  7796   7799   7802   7805      9     0.00   0.41840   2 ;   C112-  C111-  C110-   C19
  7796   7799   7802   7805      9     0.00   0.41840   4 ;   C112-  C111-  C110-   C19
  7796   7799   7802   7805      9     0.00   0.41840   5 ;   C112-  C111-  C110-   C19
  7796   7799   7802   7805      9     0.00   1.25520   3 ;   C112-  C111-  C110-   C19
  7797   7796   7799   7800      9     0.00   0.62760   3 ;   H12R-  C112-  C111-  H11R
  7797   7796   7799   7801      9     0.00   0.62760   3 ;   H12R-  C112-  C111-  H11S
  7797   7796   7799   7802      9     0.00   0.66944   3 ;   H12R-  C112-  C111-  C110
  7798   7796   7799   7800      9     0.00   0.62760   3 ;   H12S-  C112-  C111-  H11R
  7798   7796   7799   7801      9     0.00   0.62760   3 ;   H12S-  C112-  C111-  H11S
  7798   7796   7799   7802      9     0.00   0.66944   3 ;   H12S-  C112-  C111-  C110
  7799   7802   7805   7806      9     0.00   0.66944   3 ;   C111-  C110-   C19-   H9R
  7799   7802   7805   7807      9     0.00   0.66944   3 ;   C111-  C110-   C19-   H9S
  7799   7802   7805   7808      9     0.00   0.41840   1 ;   C111-  C110-   C19-   C18
  7799   7802   7805   7808      9     0.00   0.41840   2 ;   C111-  C110-   C19-   C18
  7799   7802   7805   7808      9     0.00   0.41840   4 ;   C111-  C110-   C19-   C18
  7799   7802   7805   7808      9     0.00   0.41840   5 ;   C111-  C110-   C19-   C18
  7799   7802   7805   7808      9     0.00   1.25520   3 ;   C111-  C110-   C19-   C18
  7800   7799   7802   7803      9     0.00   0.62760   3 ;   H11R-  C111-  C110-  H10R
  7800   7799   7802   7804      9     0.00   0.62760   3 ;   H11R-  C111-  C110-  H10S
  7800   7799   7802   7805      9     0.00   0.66944   3 ;   H11R-  C111-  C110-   C19
  7801   7799   7802   7803      9     0.00   0.62760   3 ;   H11S-  C111-  C110-  H10R
  7801   7799   7802   7804      9     0.00   0.62760   3 ;   H11S-  C111-  C110-  H10S
  7801   7799   7802   7805      9     0.00   0.66944   3 ;   H11S-  C111-  C110-   C19
  7802   7805   7808   7809      9     0.00   0.66944   3 ;   C110-   C19-   C18-   H8R
  7802   7805   7808   7810      9     0.00   0.66944   3 ;   C110-   C19-   C18-   H8S
  7802   7805   7808   7811      9     0.00   0.41840   1 ;   C110-   C19-   C18-   C17
  7802   7805   7808   7811      9     0.00   0.41840   2 ;   C110-   C19-   C18-   C17
  7802   7805   7808   7811      9     0.00   0.41840   4 ;   C110-   C19-   C18-   C17
  7802   7805   7808   7811      9     0.00   0.41840   5 ;   C110-   C19-   C18-   C17
  7802   7805   7808   7811      9     0.00   1.25520   3 ;   C110-   C19-   C18-   C17
  7803   7802   7805   7806      9     0.00   0.62760   3 ;   H10R-  C110-   C19-   H9R
  7803   7802   7805   7807      9     0.00   0.62760   3 ;   H10R-  C110-   C19-   H9S
  7803   7802   7805   7808      9     0.00   0.66944   3 ;   H10R-  C110-   C19-   C18
  7804   7802   7805   7806      9     0.00   0.62760   3 ;   H10S-  C110-   C19-   H9R
  7804   7802   7805   7807      9     0.00   0.62760   3 ;   H10S-  C110-   C19-   H9S
  7804   7802   7805   7808      9     0.00   0.66944   3 ;   H10S-  C110-   C19-   C18
  7805   7808   7811   7812      9     0.00   0.66944   3 ;    C19-   C18-   C17-   H7R
  7805   7808   7811   7813      9     0.00   0.66944   3 ;    C19-   C18-   C17-   H7S
  7805   7808   7811   7814      9     0.00   0.41840   1 ;    C19-   C18-   C17-   C16
  7805   7808   7811   7814      9     0.00   0.41840   2 ;    C19-   C18-   C17-   C16
  7805   7808   7811   7814      9     0.00   0.41840   4 ;    C19-   C18-   C17-   C16
  7805   7808   7811   7814      9     0.00   0.41840   5 ;    C19-   C18-   C17-   C16
  7805   7808   7811   7814      9     0.00   1.25520   3 ;    C19-   C18-   C17-   C16
  7806   7805   7808   7809      9     0.00   0.62760   3 ;    H9R-   C19-   C18-   H8R
  7806   7805   7808   7810      9     0.00   0.62760   3 ;    H9R-   C19-   C18-   H8S
  7806   7805   7808   7811      9     0.00   0.66944   3 ;    H9R-   C19-   C18-   C17
  7807   7805   7808   7809      9     0.00   0.62760   3 ;    H9S-   C19-   C18-   H8R
  7807   7805   7808   7810      9     0.00   0.62760   3 ;    H9S-   C19-   C18-   H8S
  7807   7805   7808   7811      9     0.00   0.66944   3 ;    H9S-   C19-   C18-   C17
  7808   7811   7814   7815      9     0.00   0.66944   3 ;    C18-   C17-   C16-   H6R
  7808   7811   7814   7816      9     0.00   0.66944   3 ;    C18-   C17-   C16-   H6S
  7808   7811   7814   7817      9     0.00   0.41840   1 ;    C18-   C17-   C16-   C15
  7808   7811   7814   7817      9     0.00   0.41840   2 ;    C18-   C17-   C16-   C15
  7808   7811   7814   7817      9     0.00   0.41840   4 ;    C18-   C17-   C16-   C15
  7808   7811   7814   7817      9     0.00   0.41840   5 ;    C18-   C17-   C16-   C15
  7808   7811   7814   7817      9     0.00   1.25520   3 ;    C18-   C17-   C16-   C15
  7809   7808   7811   7812      9     0.00   0.62760   3 ;    H8R-   C18-   C17-   H7R
  7809   7808   7811   7813      9     0.00   0.62760   3 ;    H8R-   C18-   C17-   H7S
  7809   7808   7811   7814      9     0.00   0.66944   3 ;    H8R-   C18-   C17-   C16
  7810   7808   7811   7812      9     0.00   0.62760   3 ;    H8S-   C18-   C17-   H7R
  7810   7808   7811   7813      9     0.00   0.62760   3 ;    H8S-   C18-   C17-   H7S
  7810   7808   7811   7814      9     0.00   0.66944   3 ;    H8S-   C18-   C17-   C16
  7811   7814   7817   7818      9     0.00   0.66944   3 ;    C17-   C16-   C15-   H5R
  7811   7814   7817   7819      9     0.00   0.66944   3 ;    C17-   C16-   C15-   H5S
  7811   7814   7817   7820      9     0.00   0.41840   1 ;    C17-   C16-   C15-   C14
  7811   7814   7817   7820      9     0.00   0.41840   2 ;    C17-   C16-   C15-   C14
  7811   7814   7817   7820      9     0.00   0.41840   4 ;    C17-   C16-   C15-   C14
  7811   7814   7817   7820      9     0.00   0.41840   5 ;    C17-   C16-   C15-   C14
  7811   7814   7817   7820      9     0.00   1.25520   3 ;    C17-   C16-   C15-   C14
  7812   7811   7814   7815      9     0.00   0.62760   3 ;    H7R-   C17-   C16-   H6R
  7812   7811   7814   7816      9     0.00   0.62760   3 ;    H7R-   C17-   C16-   H6S
  7812   7811   7814   7817      9     0.00   0.66944   3 ;    H7R-   C17-   C16-   C15
  7813   7811   7814   7815      9     0.00   0.62760   3 ;    H7S-   C17-   C16-   H6R
  7813   7811   7814   7816      9     0.00   0.62760   3 ;    H7S-   C17-   C16-   H6S
  7813   7811   7814   7817      9     0.00   0.66944   3 ;    H7S-   C17-   C16-   C15
  7814   7817   7820   7821      9     0.00   0.66944   3 ;    C16-   C15-   C14-   H4R
  7814   7817   7820   7822      9     0.00   0.66944   3 ;    C16-   C15-   C14-   H4S
  7814   7817   7820   7823      9     0.00   0.41840   1 ;    C16-   C15-   C14-   C13
  7814   7817   7820   7823      9     0.00   0.41840   2 ;    C16-   C15-   C14-   C13
  7814   7817   7820   7823      9     0.00   0.41840   4 ;    C16-   C15-   C14-   C13
  7814   7817   7820   7823      9     0.00   0.41840   5 ;    C16-   C15-   C14-   C13
  7814   7817   7820   7823      9     0.00   1.25520   3 ;    C16-   C15-   C14-   C13
  7815   7814   7817   7818      9     0.00   0.62760   3 ;    H6R-   C16-   C15-   H5R
  7815   7814   7817   7819      9     0.00   0.62760   3 ;    H6R-   C16-   C15-   H5S
  7815   7814   7817   7820      9     0.00   0.66944   3 ;    H6R-   C16-   C15-   C14
  7816   7814   7817   7818      9     0.00   0.62760   3 ;    H6S-   C16-   C15-   H5R
  7816   7814   7817   7819      9     0.00   0.62760   3 ;    H6S-   C16-   C15-   H5S
  7816   7814   7817   7820      9     0.00   0.66944   3 ;    H6S-   C16-   C15-   C14
  7817   7820   7823   7824      9     0.00   0.66944   3 ;    C15-   C14-   C13-   H3R
  7817   7820   7823   7825      9     0.00   0.66944   3 ;    C15-   C14-   C13-   H3S
  7817   7820   7823   7826      9     0.00   0.41840   1 ;    C15-   C14-   C13-   C12
  7817   7820   7823   7826      9     0.00   0.41840   2 ;    C15-   C14-   C13-   C12
  7817   7820   7823   7826      9     0.00   0.41840   4 ;    C15-   C14-   C13-   C12
  7817   7820   7823   7826      9     0.00   0.41840   5 ;    C15-   C14-   C13-   C12
  7817   7820   7823   7826      9     0.00   1.25520   3 ;    C15-   C14-   C13-   C12
  7818   7817   7820   7821      9     0.00   0.62760   3 ;    H5R-   C15-   C14-   H4R
  7818   7817   7820   7822      9     0.00   0.62760   3 ;    H5R-   C15-   C14-   H4S
  7818   7817   7820   7823      9     0.00   0.66944   3 ;    H5R-   C15-   C14-   C13
  7819   7817   7820   7821      9     0.00   0.62760   3 ;    H5S-   C15-   C14-   H4R
  7819   7817   7820   7822      9     0.00   0.62760   3 ;    H5S-   C15-   C14-   H4S
  7819   7817   7820   7823      9     0.00   0.66944   3 ;    H5S-   C15-   C14-   C13
  7820   7823   7826   7827      9     0.00   0.66944   3 ;    C14-   C13-   C12-   H2R
  7820   7823   7826   7828      9     0.00   0.66944   3 ;    C14-   C13-   C12-   H2S
  7820   7823   7826   7829      9     0.00   0.65270   3 ;    C14-   C13-   C12-   C11
  7821   7820   7823   7824      9     0.00   0.62760   3 ;    H4R-   C14-   C13-   H3R
  7821   7820   7823   7825      9     0.00   0.62760   3 ;    H4R-   C14-   C13-   H3S
  7821   7820   7823   7826      9     0.00   0.66944   3 ;    H4R-   C14-   C13-   C12
  7822   7820   7823   7824      9     0.00   0.62760   3 ;    H4S-   C14-   C13-   H3R
  7822   7820   7823   7825      9     0.00   0.62760   3 ;    H4S-   C14-   C13-   H3S
  7822   7820   7823   7826      9     0.00   0.66944   3 ;    H4S-   C14-   C13-   C12
  7823   7826   7829   7830      9   180.00   0.00000   2 ;    C13-   C12-   C11-   O12
  7823   7826   7829   7831      9   180.00   0.00000   2 ;    C13-   C12-   C11-   O11
  7824   7823   7826   7827      9     0.00   0.62760   3 ;    H3R-   C13-   C12-   H2R
  7824   7823   7826   7828      9     0.00   0.62760   3 ;    H3R-   C13-   C12-   H2S
  7824   7823   7826   7829      9     0.00   0.65270   3 ;    H3R-   C13-   C12-   C11
  7825   7823   7826   7827      9     0.00   0.62760   3 ;    H3S-   C13-   C12-   H2R
  7825   7823   7826   7828      9     0.00   0.62760   3 ;    H3S-   C13-   C12-   H2S
  7825   7823   7826   7829      9     0.00   0.65270   3 ;    H3S-   C13-   C12-   C11
  7826   7829   7831   7832      9   180.00  11.29680   2 ;    C12-   C11-   O11-    C1
  7827   7826   7829   7830      9     0.00   3.34720   1 ;    H2R-   C12-   C11-   O12
  7827   7826   7829   7830      9   180.00   0.33472   3 ;    H2R-   C12-   C11-   O12
  7827   7826   7829   7831      9   180.00   0.00000   2 ;    H2R-   C12-   C11-   O11
  7828   7826   7829   7830      9     0.00   3.34720   1 ;    H2S-   C12-   C11-   O12
  7828   7826   7829   7830      9   180.00   0.33472   3 ;    H2S-   C12-   C11-   O12
  7828   7826   7829   7831      9   180.00   0.00000   2 ;    H2S-   C12-   C11-   O11
  7829   7831   7832   7833      9     0.00   1.60247   3 ;    C11-   O11-    C1-    HR
  7829   7831   7832   7834      9     0.00   1.60247   3 ;    C11-   O11-    C1-    HS
  7829   7831   7832   7835      9     0.00  -0.41840   1 ;    C11-   O11-    C1-    C2
  7830   7829   7831   7832      9   180.00   5.85760   1 ;    O12-   C11-   O11-    C1
  7830   7829   7831   7832      9   180.00  11.29680   2 ;    O12-   C11-   O11-    C1
  7831   7832   7835   7836      9     0.00   0.00000   0 ;    O11-    C1-    C2-    HX
  7831   7832   7835   7836      9     0.00   1.04600   1 ;    O11-    C1-    C2-    HX
  7831   7832   7835   7837      9     0.00   0.00000   0 ;    O11-    C1-    C2-    C3
  7831   7832   7835   7837      9     0.00   0.00000   0 ;    O11-    C1-    C2-    C3
  7831   7832   7835   7837      9     0.00   0.00000   0 ;    O11-    C1-    C2-    C3
  7831   7832   7835   7837      9     0.00   0.00000   0 ;    O11-    C1-    C2-    C3
  7831   7832   7835   7837      9     0.00   0.00000   0 ;    O11-    C1-    C2-    C3
  7831   7832   7835   7864      9     0.00   1.25520   2 ;    O11-    C1-    C2-   O21
  7831   7832   7835   7864      9     0.00   4.18400   3 ;    O11-    C1-    C2-   O21
  7831   7832   7835   7864      9   180.00  -0.41840   1 ;    O11-    C1-    C2-   O21
  7832   7835   7837   7838      9     0.00   0.65270   3 ;     C1-    C2-    C3-    HA
  7832   7835   7837   7839      9     0.00   0.65270   3 ;     C1-    C2-    C3-    HB
  7832   7835   7837   7840      9   180.00   3.34720   1 ;     C1-    C2-    C3-   O31
  7832   7835   7864   7865      9     0.00  -0.41840   1 ;     C1-    C2-   O21-   C21
  7833   7832   7835   7836      9     0.00   0.65270   3 ;     HR-    C1-    C2-    HX
  7833   7832   7835   7837      9     0.00   0.65270   3 ;     HR-    C1-    C2-    C3
  7833   7832   7835   7864      9     0.00   0.00000   0 ;     HR-    C1-    C2-   O21
  7833   7832   7835   7864      9     0.00   1.04600   1 ;     HR-    C1-    C2-   O21
  7834   7832   7835   7836      9     0.00   0.65270   3 ;     HS-    C1-    C2-    HX
  7834   7832   7835   7837      9     0.00   0.65270   3 ;     HS-    C1-    C2-    C3
  7834   7832   7835   7864      9     0.00   0.00000   0 ;     HS-    C1-    C2-   O21
  7834   7832   7835   7864      9     0.00   1.04600   1 ;     HS-    C1-    C2-   O21
  7835   7837   7840   7841      9     0.00   0.00000   0 ;     C2-    C3-   O31-   P31
  7835   7837   7840   7841      9   180.00  -3.34720   2 ;     C2-    C3-   O31-   P31
  7835   7864   7865   7866      9   180.00   5.85760   1 ;     C2-   O21-   C21-   O22
  7835   7864   7865   7866      9   180.00  11.29680   2 ;     C2-   O21-   C21-   O22
  7835   7864   7865   7904      9   180.00  11.29680   2 ;     C2-   O21-   C21-   C12
  7836   7835   7837   7838      9     0.00   0.65270   3 ;     HX-    C2-    C3-    HA
  7836   7835   7837   7839      9     0.00   0.65270   3 ;     HX-    C2-    C3-    HB
  7836   7835   7837   7840      9     0.00   0.00000   0 ;     HX-    C2-    C3-   O31
  7836   7835   7837   7840      9     0.00   1.04600   1 ;     HX-    C2-    C3-   O31
  7836   7835   7864   7865      9     0.00   1.60247   3 ;     HX-    C2-   O21-   C21
  7837   7835   7864   7865      9     0.00  -0.41840   1 ;     C3-    C2-   O21-   C21
  7837   7840   7841   7842      9     0.00   2.51040   3 ;     C3-   O31-   P31-   O32
  7837   7840   7841   7842      9     0.00   9.62320   2 ;     C3-   O31-   P31-   O32
  7837   7840   7841   7862      9     0.00   0.00000   0 ;     C3-   O31-   P31-   O33
  7837   7840   7841   7862      9     0.00   0.00000   0 ;     C3-   O31-   P31-   O33
  7837   7840   7841   7862      9     0.00   0.00000   0 ;     C3-   O31-   P31-   O33
  7837   7840   7841   7862      9     0.00   0.00000   0 ;     C3-   O31-   P31-   O33
  7837   7840   7841   7862      9     0.00   0.83680   2 ;     C3-   O31-   P31-   O33
  7837   7840   7841   7863      9     0.00   0.00000   0 ;     C3-   O31-   P31-   O34
  7837   7840   7841   7863      9     0.00   0.00000   0 ;     C3-   O31-   P31-   O34
  7837   7840   7841   7863      9     0.00   0.00000   0 ;     C3-   O31-   P31-   O34
  7837   7840   7841   7863      9     0.00   0.00000   0 ;     C3-   O31-   P31-   O34
  7837   7840   7841   7863      9     0.00   0.83680   2 ;     C3-   O31-   P31-   O34
  7838   7837   7835   7864      9     0.00   0.00000   0 ;     HA-    C3-    C2-   O21
  7838   7837   7835   7864      9     0.00   1.04600   1 ;     HA-    C3-    C2-   O21
  7838   7837   7840   7841      9     0.00   0.00000   0 ;     HA-    C3-   O31-   P31
  7838   7837   7840   7841      9     0.00   0.00000   0 ;     HA-    C3-   O31-   P31
  7838   7837   7840   7841      9     0.00   0.00000   0 ;     HA-    C3-   O31-   P31
  7838   7837   7840   7841      9     0.00   0.00000   0 ;     HA-    C3-   O31-   P31
  7838   7837   7840   7841      9     0.00   1.60247   3 ;     HA-    C3-   O31-   P31
  7839   7837   7835   7864      9     0.00   0.00000   0 ;     HB-    C3-    C2-   O21
  7839   7837   7835   7864      9     0.00   1.04600   1 ;     HB-    C3-    C2-   O21
  7839   7837   7840   7841      9     0.00   0.00000   0 ;     HB-    C3-   O31-   P31
  7839   7837   7840   7841      9     0.00   0.00000   0 ;     HB-    C3-   O31-   P31
  7839   7837   7840   7841      9     0.00   0.00000   0 ;     HB-    C3-   O31-   P31
  7839   7837   7840   7841      9     0.00   0.00000   0 ;     HB-    C3-   O31-   P31
  7839   7837   7840   7841      9     0.00   1.60247   3 ;     HB-    C3-   O31-   P31
  7840   7837   7835   7864      9     0.00   0.00000   0 ;    O31-    C3-    C2-   O21
  7840   7837   7835   7864      9     0.00   0.00000   0 ;    O31-    C3-    C2-   O21
  7840   7837   7835   7864      9     0.00   0.00000   0 ;    O31-    C3-    C2-   O21
  7840   7837   7835   7864      9     0.00   0.00000   0 ;    O31-    C3-    C2-   O21
  7840   7837   7835   7864      9     0.00   0.00000   0 ;    O31-    C3-    C2-   O21
  7840   7841   7842   7843      9     0.00   2.51040   3 ;    O31-   P31-   O32-   C31
  7840   7841   7842   7843      9     0.00   9.62320   2 ;    O31-   P31-   O32-   C31
  7841   7842   7843   7844      9     0.00   0.00000   0 ;    P31-   O32-   C31-   H1A
  7841   7842   7843   7844      9     0.00   0.00000   0 ;    P31-   O32-   C31-   H1A
  7841   7842   7843   7844      9     0.00   0.00000   0 ;    P31-   O32-   C31-   H1A
  7841   7842   7843   7844      9     0.00   0.00000   0 ;    P31-   O32-   C31-   H1A
  7841   7842   7843   7844      9     0.00   1.60247   3 ;    P31-   O32-   C31-   H1A
  7841   7842   7843   7845      9     0.00   0.00000   0 ;    P31-   O32-   C31-   H1B
  7841   7842   7843   7845      9     0.00   0.00000   0 ;    P31-   O32-   C31-   H1B
  7841   7842   7843   7845      9     0.00   0.00000   0 ;    P31-   O32-   C31-   H1B
  7841   7842   7843   7845      9     0.00   0.00000   0 ;    P31-   O32-   C31-   H1B
  7841   7842   7843   7845      9     0.00   1.60247   3 ;    P31-   O32-   C31-   H1B
  7841   7842   7843   7846      9     0.00   0.00000   0 ;    P31-   O32-   C31-   C32
  7841   7842   7843   7846      9   180.00  -3.34720   2 ;    P31-   O32-   C31-   C32
  7842   7843   7846   7847      9     0.00   0.65270   3 ;    O32-   C31-   C32-   H2A
  7842   7843   7846   7848      9     0.00   0.65270   3 ;    O32-   C31-   C32-   H2B
  7842   7843   7846   7849      9     0.00   4.18400   3 ;    O32-   C31-   C32-   N31
  7843   7842   7841   7862      9     0.00   0.00000   0 ;    C31-   O32-   P31-   O33
  7843   7842   7841   7862      9     0.00   0.00000   0 ;    C31-   O32-   P31-   O33
  7843   7842   7841   7862      9     0.00   0.00000   0 ;    C31-   O32-   P31-   O33
  7843   7842   7841   7862      9     0.00   0.00000   0 ;    C31-   O32-   P31-   O33
  7843   7842   7841   7862      9     0.00   0.83680   2 ;    C31-   O32-   P31-   O33
  7843   7842   7841   7863      9     0.00   0.00000   0 ;    C31-   O32-   P31-   O34
  7843   7842   7841   7863      9     0.00   0.00000   0 ;    C31-   O32-   P31-   O34
  7843   7842   7841   7863      9     0.00   0.00000   0 ;    C31-   O32-   P31-   O34
  7843   7842   7841   7863      9     0.00   0.00000   0 ;    C31-   O32-   P31-   O34
  7843   7842   7841   7863      9     0.00   0.83680   2 ;    C31-   O32-   P31-   O34
  7843   7846   7849   7850      9     0.00   0.65270   3 ;    C31-   C32-   N31-   C33
  7843   7846   7849   7854      9     0.00   0.65270   3 ;    C31-   C32-   N31-   C34
  7843   7846   7849   7858      9     0.00   0.65270   3 ;    C31-   C32-   N31-   C35
  7844   7843   7846   7847      9     0.00   0.65270   3 ;    H1A-   C31-   C32-   H2A
  7844   7843   7846   7848      9     0.00   0.65270   3 ;    H1A-   C31-   C32-   H2B
  7844   7843   7846   7849      9     0.00   0.65270   3 ;    H1A-   C31-   C32-   N31
  7845   7843   7846   7847      9     0.00   0.65270   3 ;    H1B-   C31-   C32-   H2A
  7845   7843   7846   7848      9     0.00   0.65270   3 ;    H1B-   C31-   C32-   H2B
  7845   7843   7846   7849      9     0.00   0.65270   3 ;    H1B-   C31-   C32-   N31
  7846   7849   7850   7851      9     0.00   0.65270   3 ;    C32-   N31-   C33-   H3A
  7846   7849   7850   7852      9     0.00   0.65270   3 ;    C32-   N31-   C33-   H3B
  7846   7849   7850   7853      9     0.00   0.65270   3 ;    C32-   N31-   C33-   H3C
  7846   7849   7854   7855      9     0.00   0.65270   3 ;    C32-   N31-   C34-   H4A
  7846   7849   7854   7856      9     0.00   0.65270   3 ;    C32-   N31-   C34-   H4B
  7846   7849   7854   7857      9     0.00   0.65270   3 ;    C32-   N31-   C34-   H4C
  7846   7849   7858   7859      9     0.00   0.65270   3 ;    C32-   N31-   C35-   H5A
  7846   7849   7858   7860      9     0.00   0.65270   3 ;    C32-   N31-   C35-   H5B
  7846   7849   7858   7861      9     0.00   0.65270   3 ;    C32-   N31-   C35-   H5C
  7847   7846   7849   7850      9     0.00   0.65270   3 ;    H2A-   C32-   N31-   C33
  7847   7846   7849   7854      9     0.00   0.65270   3 ;    H2A-   C32-   N31-   C34
  7847   7846   7849   7858      9     0.00   0.65270   3 ;    H2A-   C32-   N31-   C35
  7848   7846   7849   7850      9     0.00   0.65270   3 ;    H2B-   C32-   N31-   C33
  7848   7846   7849   7854      9     0.00   0.65270   3 ;    H2B-   C32-   N31-   C34
  7848   7846   7849   7858      9     0.00   0.65270   3 ;    H2B-   C32-   N31-   C35
  7850   7849   7854   7855      9     0.00   0.65270   3 ;    C33-   N31-   C34-   H4A
  7850   7849   7854   7856      9     0.00   0.65270   3 ;    C33-   N31-   C34-   H4B
  7850   7849   7854   7857      9     0.00   0.65270   3 ;    C33-   N31-   C34-   H4C
  7850   7849   7858   7859      9     0.00   0.65270   3 ;    C33-   N31-   C35-   H5A
  7850   7849   7858   7860      9     0.00   0.65270   3 ;    C33-   N31-   C35-   H5B
  7850   7849   7858   7861      9     0.00   0.65270   3 ;    C33-   N31-   C35-   H5C
  7851   7850   7849   7854      9     0.00   0.65270   3 ;    H3A-   C33-   N31-   C34
  7851   7850   7849   7858      9     0.00   0.65270   3 ;    H3A-   C33-   N31-   C35
  7852   7850   7849   7854      9     0.00   0.65270   3 ;    H3B-   C33-   N31-   C34
  7852   7850   7849   7858      9     0.00   0.65270   3 ;    H3B-   C33-   N31-   C35
  7853   7850   7849   7854      9     0.00   0.65270   3 ;    H3C-   C33-   N31-   C34
  7853   7850   7849   7858      9     0.00   0.65270   3 ;    H3C-   C33-   N31-   C35
  7854   7849   7858   7859      9     0.00   0.65270   3 ;    C34-   N31-   C35-   H5A
  7854   7849   7858   7860      9     0.00   0.65270   3 ;    C34-   N31-   C35-   H5B
  7854   7849   7858   7861      9     0.00   0.65270   3 ;    C34-   N31-   C35-   H5C
  7855   7854   7849   7858      9     0.00   0.65270   3 ;    H4A-   C34-   N31-   C35
  7856   7854   7849   7858      9     0.00   0.65270   3 ;    H4B-   C34-   N31-   C35
  7857   7854   7849   7858      9     0.00   0.65270   3 ;    H4C-   C34-   N31-   C35
  7864   7865   7904   7901      9   180.00   0.00000   2 ;    O21-   C21-   C12-   C13
  7864   7865   7904   7905      9   180.00   0.00000   2 ;    O21-   C21-   C12-   H2R
  7864   7865   7904   7906      9   180.00   0.00000   2 ;    O21-   C21-   C12-   H2S
  7865   7904   7901   7898      9     0.00   0.65270   3 ;    C21-   C12-   C13-   C14
  7865   7904   7901   7902      9     0.00   0.65270   3 ;    C21-   C12-   C13-   H3R
  7865   7904   7901   7903      9     0.00   0.65270   3 ;    C21-   C12-   C13-   H3S
  7866   7865   7904   7901      9   180.00   0.00000   2 ;    O22-   C21-   C12-   C13
  7866   7865   7904   7905      9     0.00   3.34720   1 ;    O22-   C21-   C12-   H2R
  7866   7865   7904   7905      9   180.00   0.33472   3 ;    O22-   C21-   C12-   H2R
  7866   7865   7904   7906      9     0.00   3.34720   1 ;    O22-   C21-   C12-   H2S
  7866   7865   7904   7906      9   180.00   0.33472   3 ;    O22-   C21-   C12-   H2S
  7867   7868   7871   7872      9     0.00   0.62760   3 ;   H14T-  C114-  C113-  H13R
  7867   7868   7871   7873      9     0.00   0.62760   3 ;   H14T-  C114-  C113-  H13S
  7867   7868   7871   7874      9     0.00   0.66944   3 ;   H14T-  C114-  C113-  C112
  7868   7871   7874   7875      9     0.00   0.66944   3 ;   C114-  C113-  C112-  H12R
  7868   7871   7874   7876      9     0.00   0.66944   3 ;   C114-  C113-  C112-  H12S
  7868   7871   7874   7877      9     0.00   0.41840   1 ;   C114-  C113-  C112-  C111
  7868   7871   7874   7877      9     0.00   0.41840   2 ;   C114-  C113-  C112-  C111
  7868   7871   7874   7877      9     0.00   0.41840   4 ;   C114-  C113-  C112-  C111
  7868   7871   7874   7877      9     0.00   0.41840   5 ;   C114-  C113-  C112-  C111
  7868   7871   7874   7877      9     0.00   1.25520   3 ;   C114-  C113-  C112-  C111
  7869   7868   7871   7872      9     0.00   0.62760   3 ;   H14R-  C114-  C113-  H13R
  7869   7868   7871   7873      9     0.00   0.62760   3 ;   H14R-  C114-  C113-  H13S
  7869   7868   7871   7874      9     0.00   0.66944   3 ;   H14R-  C114-  C113-  C112
  7870   7868   7871   7872      9     0.00   0.62760   3 ;   H14S-  C114-  C113-  H13R
  7870   7868   7871   7873      9     0.00   0.62760   3 ;   H14S-  C114-  C113-  H13S
  7870   7868   7871   7874      9     0.00   0.66944   3 ;   H14S-  C114-  C113-  C112
  7871   7874   7877   7878      9     0.00   0.66944   3 ;   C113-  C112-  C111-  H11R
  7871   7874   7877   7879      9     0.00   0.66944   3 ;   C113-  C112-  C111-  H11S
  7871   7874   7877   7880      9     0.00   0.41840   1 ;   C113-  C112-  C111-  C110
  7871   7874   7877   7880      9     0.00   0.41840   2 ;   C113-  C112-  C111-  C110
  7871   7874   7877   7880      9     0.00   0.41840   4 ;   C113-  C112-  C111-  C110
  7871   7874   7877   7880      9     0.00   0.41840   5 ;   C113-  C112-  C111-  C110
  7871   7874   7877   7880      9     0.00   1.25520   3 ;   C113-  C112-  C111-  C110
  7872   7871   7874   7875      9     0.00   0.62760   3 ;   H13R-  C113-  C112-  H12R
  7872   7871   7874   7876      9     0.00   0.62760   3 ;   H13R-  C113-  C112-  H12S
  7872   7871   7874   7877      9     0.00   0.66944   3 ;   H13R-  C113-  C112-  C111
  7873   7871   7874   7875      9     0.00   0.62760   3 ;   H13S-  C113-  C112-  H12R
  7873   7871   7874   7876      9     0.00   0.62760   3 ;   H13S-  C113-  C112-  H12S
  7873   7871   7874   7877      9     0.00   0.66944   3 ;   H13S-  C113-  C112-  C111
  7874   7877   7880   7881      9     0.00   0.66944   3 ;   C112-  C111-  C110-  H10R
  7874   7877   7880   7882      9     0.00   0.66944   3 ;   C112-  C111-  C110-  H10S
  7874   7877   7880   7883      9     0.00   0.41840   1 ;   C112-  C111-  C110-   C19
  7874   7877   7880   7883      9     0.00   0.41840   2 ;   C112-  C111-  C110-   C19
  7874   7877   7880   7883      9     0.00   0.41840   4 ;   C112-  C111-  C110-   C19
  7874   7877   7880   7883      9     0.00   0.41840   5 ;   C112-  C111-  C110-   C19
  7874   7877   7880   7883      9     0.00   1.25520   3 ;   C112-  C111-  C110-   C19
  7875   7874   7877   7878      9     0.00   0.62760   3 ;   H12R-  C112-  C111-  H11R
  7875   7874   7877   7879      9     0.00   0.62760   3 ;   H12R-  C112-  C111-  H11S
  7875   7874   7877   7880      9     0.00   0.66944   3 ;   H12R-  C112-  C111-  C110
  7876   7874   7877   7878      9     0.00   0.62760   3 ;   H12S-  C112-  C111-  H11R
  7876   7874   7877   7879      9     0.00   0.62760   3 ;   H12S-  C112-  C111-  H11S
  7876   7874   7877   7880      9     0.00   0.66944   3 ;   H12S-  C112-  C111-  C110
  7877   7880   7883   7884      9     0.00   0.66944   3 ;   C111-  C110-   C19-   H9R
  7877   7880   7883   7885      9     0.00   0.66944   3 ;   C111-  C110-   C19-   H9S
  7877   7880   7883   7886      9     0.00   0.41840   1 ;   C111-  C110-   C19-   C18
  7877   7880   7883   7886      9     0.00   0.41840   2 ;   C111-  C110-   C19-   C18
  7877   7880   7883   7886      9     0.00   0.41840   4 ;   C111-  C110-   C19-   C18
  7877   7880   7883   7886      9     0.00   0.41840   5 ;   C111-  C110-   C19-   C18
  7877   7880   7883   7886      9     0.00   1.25520   3 ;   C111-  C110-   C19-   C18
  7878   7877   7880   7881      9     0.00   0.62760   3 ;   H11R-  C111-  C110-  H10R
  7878   7877   7880   7882      9     0.00   0.62760   3 ;   H11R-  C111-  C110-  H10S
  7878   7877   7880   7883      9     0.00   0.66944   3 ;   H11R-  C111-  C110-   C19
  7879   7877   7880   7881      9     0.00   0.62760   3 ;   H11S-  C111-  C110-  H10R
  7879   7877   7880   7882      9     0.00   0.62760   3 ;   H11S-  C111-  C110-  H10S
  7879   7877   7880   7883      9     0.00   0.66944   3 ;   H11S-  C111-  C110-   C19
  7880   7883   7886   7887      9     0.00   0.66944   3 ;   C110-   C19-   C18-   H8R
  7880   7883   7886   7888      9     0.00   0.66944   3 ;   C110-   C19-   C18-   H8S
  7880   7883   7886   7889      9     0.00   0.41840   1 ;   C110-   C19-   C18-   C17
  7880   7883   7886   7889      9     0.00   0.41840   2 ;   C110-   C19-   C18-   C17
  7880   7883   7886   7889      9     0.00   0.41840   4 ;   C110-   C19-   C18-   C17
  7880   7883   7886   7889      9     0.00   0.41840   5 ;   C110-   C19-   C18-   C17
  7880   7883   7886   7889      9     0.00   1.25520   3 ;   C110-   C19-   C18-   C17
  7881   7880   7883   7884      9     0.00   0.62760   3 ;   H10R-  C110-   C19-   H9R
  7881   7880   7883   7885      9     0.00   0.62760   3 ;   H10R-  C110-   C19-   H9S
  7881   7880   7883   7886      9     0.00   0.66944   3 ;   H10R-  C110-   C19-   C18
  7882   7880   7883   7884      9     0.00   0.62760   3 ;   H10S-  C110-   C19-   H9R
  7882   7880   7883   7885      9     0.00   0.62760   3 ;   H10S-  C110-   C19-   H9S
  7882   7880   7883   7886      9     0.00   0.66944   3 ;   H10S-  C110-   C19-   C18
  7883   7886   7889   7890      9     0.00   0.66944   3 ;    C19-   C18-   C17-   H7R
  7883   7886   7889   7891      9     0.00   0.66944   3 ;    C19-   C18-   C17-   H7S
  7883   7886   7889   7892      9     0.00   0.41840   1 ;    C19-   C18-   C17-   C16
  7883   7886   7889   7892      9     0.00   0.41840   2 ;    C19-   C18-   C17-   C16
  7883   7886   7889   7892      9     0.00   0.41840   4 ;    C19-   C18-   C17-   C16
  7883   7886   7889   7892      9     0.00   0.41840   5 ;    C19-   C18-   C17-   C16
  7883   7886   7889   7892      9     0.00   1.25520   3 ;    C19-   C18-   C17-   C16
  7884   7883   7886   7887      9     0.00   0.62760   3 ;    H9R-   C19-   C18-   H8R
  7884   7883   7886   7888      9     0.00   0.62760   3 ;    H9R-   C19-   C18-   H8S
  7884   7883   7886   7889      9     0.00   0.66944   3 ;    H9R-   C19-   C18-   C17
  7885   7883   7886   7887      9     0.00   0.62760   3 ;    H9S-   C19-   C18-   H8R
  7885   7883   7886   7888      9     0.00   0.62760   3 ;    H9S-   C19-   C18-   H8S
  7885   7883   7886   7889      9     0.00   0.66944   3 ;    H9S-   C19-   C18-   C17
  7886   7889   7892   7893      9     0.00   0.66944   3 ;    C18-   C17-   C16-   H6R
  7886   7889   7892   7894      9     0.00   0.66944   3 ;    C18-   C17-   C16-   H6S
  7886   7889   7892   7895      9     0.00   0.41840   1 ;    C18-   C17-   C16-   C15
  7886   7889   7892   7895      9     0.00   0.41840   2 ;    C18-   C17-   C16-   C15
  7886   7889   7892   7895      9     0.00   0.41840   4 ;    C18-   C17-   C16-   C15
  7886   7889   7892   7895      9     0.00   0.41840   5 ;    C18-   C17-   C16-   C15
  7886   7889   7892   7895      9     0.00   1.25520   3 ;    C18-   C17-   C16-   C15
  7887   7886   7889   7890      9     0.00   0.62760   3 ;    H8R-   C18-   C17-   H7R
  7887   7886   7889   7891      9     0.00   0.62760   3 ;    H8R-   C18-   C17-   H7S
  7887   7886   7889   7892      9     0.00   0.66944   3 ;    H8R-   C18-   C17-   C16
  7888   7886   7889   7890      9     0.00   0.62760   3 ;    H8S-   C18-   C17-   H7R
  7888   7886   7889   7891      9     0.00   0.62760   3 ;    H8S-   C18-   C17-   H7S
  7888   7886   7889   7892      9     0.00   0.66944   3 ;    H8S-   C18-   C17-   C16
  7889   7892   7895   7896      9     0.00   0.66944   3 ;    C17-   C16-   C15-   H5R
  7889   7892   7895   7897      9     0.00   0.66944   3 ;    C17-   C16-   C15-   H5S
  7889   7892   7895   7898      9     0.00   0.41840   1 ;    C17-   C16-   C15-   C14
  7889   7892   7895   7898      9     0.00   0.41840   2 ;    C17-   C16-   C15-   C14
  7889   7892   7895   7898      9     0.00   0.41840   4 ;    C17-   C16-   C15-   C14
  7889   7892   7895   7898      9     0.00   0.41840   5 ;    C17-   C16-   C15-   C14
  7889   7892   7895   7898      9     0.00   1.25520   3 ;    C17-   C16-   C15-   C14
  7890   7889   7892   7893      9     0.00   0.62760   3 ;    H7R-   C17-   C16-   H6R
  7890   7889   7892   7894      9     0.00   0.62760   3 ;    H7R-   C17-   C16-   H6S
  7890   7889   7892   7895      9     0.00   0.66944   3 ;    H7R-   C17-   C16-   C15
  7891   7889   7892   7893      9     0.00   0.62760   3 ;    H7S-   C17-   C16-   H6R
  7891   7889   7892   7894      9     0.00   0.62760   3 ;    H7S-   C17-   C16-   H6S
  7891   7889   7892   7895      9     0.00   0.66944   3 ;    H7S-   C17-   C16-   C15
  7892   7895   7898   7899      9     0.00   0.66944   3 ;    C16-   C15-   C14-   H4R
  7892   7895   7898   7900      9     0.00   0.66944   3 ;    C16-   C15-   C14-   H4S
  7892   7895   7898   7901      9     0.00   0.41840   1 ;    C16-   C15-   C14-   C13
  7892   7895   7898   7901      9     0.00   0.41840   2 ;    C16-   C15-   C14-   C13
  7892   7895   7898   7901      9     0.00   0.41840   4 ;    C16-   C15-   C14-   C13
  7892   7895   7898   7901      9     0.00   0.41840   5 ;    C16-   C15-   C14-   C13
  7892   7895   7898   7901      9     0.00   1.25520   3 ;    C16-   C15-   C14-   C13
  7893   7892   7895   7896      9     0.00   0.62760   3 ;    H6R-   C16-   C15-   H5R
  7893   7892   7895   7897      9     0.00   0.62760   3 ;    H6R-   C16-   C15-   H5S
  7893   7892   7895   7898      9     0.00   0.66944   3 ;    H6R-   C16-   C15-   C14
  7894   7892   7895   7896      9     0.00   0.62760   3 ;    H6S-   C16-   C15-   H5R
  7894   7892   7895   7897      9     0.00   0.62760   3 ;    H6S-   C16-   C15-   H5S
  7894   7892   7895   7898      9     0.00   0.66944   3 ;    H6S-   C16-   C15-   C14
  7895   7898   7901   7902      9     0.00   0.66944   3 ;    C15-   C14-   C13-   H3R
  7895   7898   7901   7903      9     0.00   0.66944   3 ;    C15-   C14-   C13-   H3S
  7895   7898   7901   7904      9     0.00   0.41840   1 ;    C15-   C14-   C13-   C12
  7895   7898   7901   7904      9     0.00   0.41840   2 ;    C15-   C14-   C13-   C12
  7895   7898   7901   7904      9     0.00   0.41840   4 ;    C15-   C14-   C13-   C12
  7895   7898   7901   7904      9     0.00   0.41840   5 ;    C15-   C14-   C13-   C12
  7895   7898   7901   7904      9     0.00   1.25520   3 ;    C15-   C14-   C13-   C12
  7896   7895   7898   7899      9     0.00   0.62760   3 ;    H5R-   C15-   C14-   H4R
  7896   7895   7898   7900      9     0.00   0.62760   3 ;    H5R-   C15-   C14-   H4S
  7896   7895   7898   7901      9     0.00   0.66944   3 ;    H5R-   C15-   C14-   C13
  7897   7895   7898   7899      9     0.00   0.62760   3 ;    H5S-   C15-   C14-   H4R
  7897   7895   7898   7900      9     0.00   0.62760   3 ;    H5S-   C15-   C14-   H4S
  7897   7895   7898   7901      9     0.00   0.66944   3 ;    H5S-   C15-   C14-   C13
  7898   7901   7904   7905      9     0.00   0.66944   3 ;    C14-   C13-   C12-   H2R
  7898   7901   7904   7906      9     0.00   0.66944   3 ;    C14-   C13-   C12-   H2S
  7899   7898   7901   7902      9     0.00   0.62760   3 ;    H4R-   C14-   C13-   H3R
  7899   7898   7901   7903      9     0.00   0.62760   3 ;    H4R-   C14-   C13-   H3S
  7899   7898   7901   7904      9     0.00   0.66944   3 ;    H4R-   C14-   C13-   C12
  7900   7898   7901   7902      9     0.00   0.62760   3 ;    H4S-   C14-   C13-   H3R
  7900   7898   7901   7903      9     0.00   0.62760   3 ;    H4S-   C14-   C13-   H3S
  7900   7898   7901   7904      9     0.00   0.66944   3 ;    H4S-   C14-   C13-   C12
  7902   7901   7904   7905      9     0.00   0.62760   3 ;    H3R-   C13-   C12-   H2R
  7902   7901   7904   7906      9     0.00   0.62760   3 ;    H3R-   C13-   C12-   H2S
  7903   7901   7904   7905      9     0.00   0.62760   3 ;    H3S-   C13-   C12-   H2R
  7903   7901   7904   7906      9     0.00   0.62760   3 ;    H3S-   C13-   C12-   H2S
  7907   7908   7911   7912      9     0.00   0.62760   3 ;   H14T-  C114-  C113-  H13R
  7907   7908   7911   7913      9     0.00   0.62760   3 ;   H14T-  C114-  C113-  H13S
  7907   7908   7911   7914      9     0.00   0.66944   3 ;   H14T-  C114-  C113-  C112
  7908   7911   7914   7915      9     0.00   0.66944   3 ;   C114-  C113-  C112-  H12R
  7908   7911   7914   7916      9     0.00   0.66944   3 ;   C114-  C113-  C112-  H12S
  7908   7911   7914   7917      9     0.00   0.41840   1 ;   C114-  C113-  C112-  C111
  7908   7911   7914   7917      9     0.00   0.41840   2 ;   C114-  C113-  C112-  C111
  7908   7911   7914   7917      9     0.00   0.41840   4 ;   C114-  C113-  C112-  C111
  7908   7911   7914   7917      9     0.00   0.41840   5 ;   C114-  C113-  C112-  C111
  7908   7911   7914   7917      9     0.00   1.25520   3 ;   C114-  C113-  C112-  C111
  7909   7908   7911   7912      9     0.00   0.62760   3 ;   H14R-  C114-  C113-  H13R
  7909   7908   7911   7913      9     0.00   0.62760   3 ;   H14R-  C114-  C113-  H13S
  7909   7908   7911   7914      9     0.00   0.66944   3 ;   H14R-  C114-  C113-  C112
  7910   7908   7911   7912      9     0.00   0.62760   3 ;   H14S-  C114-  C113-  H13R
  7910   7908   7911   7913      9     0.00   0.62760   3 ;   H14S-  C114-  C113-  H13S
  7910   7908   7911   7914      9     0.00   0.66944   3 ;   H14S-  C114-  C113-  C112
  7911   7914   7917   7918      9     0.00   0.66944   3 ;   C113-  C112-  C111-  H11R
  7911   7914   7917   7919      9     0.00   0.66944   3 ;   C113-  C112-  C111-  H11S
  7911   7914   7917   7920      9     0.00   0.41840   1 ;   C113-  C112-  C111-  C110
  7911   7914   7917   7920      9     0.00   0.41840   2 ;   C113-  C112-  C111-  C110
  7911   7914   7917   7920      9     0.00   0.41840   4 ;   C113-  C112-  C111-  C110
  7911   7914   7917   7920      9     0.00   0.41840   5 ;   C113-  C112-  C111-  C110
  7911   7914   7917   7920      9     0.00   1.25520   3 ;   C113-  C112-  C111-  C110
  7912   7911   7914   7915      9     0.00   0.62760   3 ;   H13R-  C113-  C112-  H12R
  7912   7911   7914   7916      9     0.00   0.62760   3 ;   H13R-  C113-  C112-  H12S
  7912   7911   7914   7917      9     0.00   0.66944   3 ;   H13R-  C113-  C112-  C111
  7913   7911   7914   7915      9     0.00   0.62760   3 ;   H13S-  C113-  C112-  H12R
  7913   7911   7914   7916      9     0.00   0.62760   3 ;   H13S-  C113-  C112-  H12S
  7913   7911   7914   7917      9     0.00   0.66944   3 ;   H13S-  C113-  C112-  C111
  7914   7917   7920   7921      9     0.00   0.66944   3 ;   C112-  C111-  C110-  H10R
  7914   7917   7920   7922      9     0.00   0.66944   3 ;   C112-  C111-  C110-  H10S
  7914   7917   7920   7923      9     0.00   0.41840   1 ;   C112-  C111-  C110-   C19
  7914   7917   7920   7923      9     0.00   0.41840   2 ;   C112-  C111-  C110-   C19
  7914   7917   7920   7923      9     0.00   0.41840   4 ;   C112-  C111-  C110-   C19
  7914   7917   7920   7923      9     0.00   0.41840   5 ;   C112-  C111-  C110-   C19
  7914   7917   7920   7923      9     0.00   1.25520   3 ;   C112-  C111-  C110-   C19
  7915   7914   7917   7918      9     0.00   0.62760   3 ;   H12R-  C112-  C111-  H11R
  7915   7914   7917   7919      9     0.00   0.62760   3 ;   H12R-  C112-  C111-  H11S
  7915   7914   7917   7920      9     0.00   0.66944   3 ;   H12R-  C112-  C111-  C110
  7916   7914   7917   7918      9     0.00   0.62760   3 ;   H12S-  C112-  C111-  H11R
  7916   7914   7917   7919      9     0.00   0.62760   3 ;   H12S-  C112-  C111-  H11S
  7916   7914   7917   7920      9     0.00   0.66944   3 ;   H12S-  C112-  C111-  C110
  7917   7920   7923   7924      9     0.00   0.66944   3 ;   C111-  C110-   C19-   H9R
  7917   7920   7923   7925      9     0.00   0.66944   3 ;   C111-  C110-   C19-   H9S
  7917   7920   7923   7926      9     0.00   0.41840   1 ;   C111-  C110-   C19-   C18
  7917   7920   7923   7926      9     0.00   0.41840   2 ;   C111-  C110-   C19-   C18
  7917   7920   7923   7926      9     0.00   0.41840   4 ;   C111-  C110-   C19-   C18
  7917   7920   7923   7926      9     0.00   0.41840   5 ;   C111-  C110-   C19-   C18
  7917   7920   7923   7926      9     0.00   1.25520   3 ;   C111-  C110-   C19-   C18
  7918   7917   7920   7921      9     0.00   0.62760   3 ;   H11R-  C111-  C110-  H10R
  7918   7917   7920   7922      9     0.00   0.62760   3 ;   H11R-  C111-  C110-  H10S
  7918   7917   7920   7923      9     0.00   0.66944   3 ;   H11R-  C111-  C110-   C19
  7919   7917   7920   7921      9     0.00   0.62760   3 ;   H11S-  C111-  C110-  H10R
  7919   7917   7920   7922      9     0.00   0.62760   3 ;   H11S-  C111-  C110-  H10S
  7919   7917   7920   7923      9     0.00   0.66944   3 ;   H11S-  C111-  C110-   C19
  7920   7923   7926   7927      9     0.00   0.66944   3 ;   C110-   C19-   C18-   H8R
  7920   7923   7926   7928      9     0.00   0.66944   3 ;   C110-   C19-   C18-   H8S
  7920   7923   7926   7929      9     0.00   0.41840   1 ;   C110-   C19-   C18-   C17
  7920   7923   7926   7929      9     0.00   0.41840   2 ;   C110-   C19-   C18-   C17
  7920   7923   7926   7929      9     0.00   0.41840   4 ;   C110-   C19-   C18-   C17
  7920   7923   7926   7929      9     0.00   0.41840   5 ;   C110-   C19-   C18-   C17
  7920   7923   7926   7929      9     0.00   1.25520   3 ;   C110-   C19-   C18-   C17
  7921   7920   7923   7924      9     0.00   0.62760   3 ;   H10R-  C110-   C19-   H9R
  7921   7920   7923   7925      9     0.00   0.62760   3 ;   H10R-  C110-   C19-   H9S
  7921   7920   7923   7926      9     0.00   0.66944   3 ;   H10R-  C110-   C19-   C18
  7922   7920   7923   7924      9     0.00   0.62760   3 ;   H10S-  C110-   C19-   H9R
  7922   7920   7923   7925      9     0.00   0.62760   3 ;   H10S-  C110-   C19-   H9S
  7922   7920   7923   7926      9     0.00   0.66944   3 ;   H10S-  C110-   C19-   C18
  7923   7926   7929   7930      9     0.00   0.66944   3 ;    C19-   C18-   C17-   H7R
  7923   7926   7929   7931      9     0.00   0.66944   3 ;    C19-   C18-   C17-   H7S
  7923   7926   7929   7932      9     0.00   0.41840   1 ;    C19-   C18-   C17-   C16
  7923   7926   7929   7932      9     0.00   0.41840   2 ;    C19-   C18-   C17-   C16
  7923   7926   7929   7932      9     0.00   0.41840   4 ;    C19-   C18-   C17-   C16
  7923   7926   7929   7932      9     0.00   0.41840   5 ;    C19-   C18-   C17-   C16
  7923   7926   7929   7932      9     0.00   1.25520   3 ;    C19-   C18-   C17-   C16
  7924   7923   7926   7927      9     0.00   0.62760   3 ;    H9R-   C19-   C18-   H8R
  7924   7923   7926   7928      9     0.00   0.62760   3 ;    H9R-   C19-   C18-   H8S
  7924   7923   7926   7929      9     0.00   0.66944   3 ;    H9R-   C19-   C18-   C17
  7925   7923   7926   7927      9     0.00   0.62760   3 ;    H9S-   C19-   C18-   H8R
  7925   7923   7926   7928      9     0.00   0.62760   3 ;    H9S-   C19-   C18-   H8S
  7925   7923   7926   7929      9     0.00   0.66944   3 ;    H9S-   C19-   C18-   C17
  7926   7929   7932   7933      9     0.00   0.66944   3 ;    C18-   C17-   C16-   H6R
  7926   7929   7932   7934      9     0.00   0.66944   3 ;    C18-   C17-   C16-   H6S
  7926   7929   7932   7935      9     0.00   0.41840   1 ;    C18-   C17-   C16-   C15
  7926   7929   7932   7935      9     0.00   0.41840   2 ;    C18-   C17-   C16-   C15
  7926   7929   7932   7935      9     0.00   0.41840   4 ;    C18-   C17-   C16-   C15
  7926   7929   7932   7935      9     0.00   0.41840   5 ;    C18-   C17-   C16-   C15
  7926   7929   7932   7935      9     0.00   1.25520   3 ;    C18-   C17-   C16-   C15
  7927   7926   7929   7930      9     0.00   0.62760   3 ;    H8R-   C18-   C17-   H7R
  7927   7926   7929   7931      9     0.00   0.62760   3 ;    H8R-   C18-   C17-   H7S
  7927   7926   7929   7932      9     0.00   0.66944   3 ;    H8R-   C18-   C17-   C16
  7928   7926   7929   7930      9     0.00   0.62760   3 ;    H8S-   C18-   C17-   H7R
  7928   7926   7929   7931      9     0.00   0.62760   3 ;    H8S-   C18-   C17-   H7S
  7928   7926   7929   7932      9     0.00   0.66944   3 ;    H8S-   C18-   C17-   C16
  7929   7932   7935   7936      9     0.00   0.66944   3 ;    C17-   C16-   C15-   H5R
  7929   7932   7935   7937      9     0.00   0.66944   3 ;    C17-   C16-   C15-   H5S
  7929   7932   7935   7938      9     0.00   0.41840   1 ;    C17-   C16-   C15-   C14
  7929   7932   7935   7938      9     0.00   0.41840   2 ;    C17-   C16-   C15-   C14
  7929   7932   7935   7938      9     0.00   0.41840   4 ;    C17-   C16-   C15-   C14
  7929   7932   7935   7938      9     0.00   0.41840   5 ;    C17-   C16-   C15-   C14
  7929   7932   7935   7938      9     0.00   1.25520   3 ;    C17-   C16-   C15-   C14
  7930   7929   7932   7933      9     0.00   0.62760   3 ;    H7R-   C17-   C16-   H6R
  7930   7929   7932   7934      9     0.00   0.62760   3 ;    H7R-   C17-   C16-   H6S
  7930   7929   7932   7935      9     0.00   0.66944   3 ;    H7R-   C17-   C16-   C15
  7931   7929   7932   7933      9     0.00   0.62760   3 ;    H7S-   C17-   C16-   H6R
  7931   7929   7932   7934      9     0.00   0.62760   3 ;    H7S-   C17-   C16-   H6S
  7931   7929   7932   7935      9     0.00   0.66944   3 ;    H7S-   C17-   C16-   C15
  7932   7935   7938   7939      9     0.00   0.66944   3 ;    C16-   C15-   C14-   H4R
  7932   7935   7938   7940      9     0.00   0.66944   3 ;    C16-   C15-   C14-   H4S
  7932   7935   7938   7941      9     0.00   0.41840   1 ;    C16-   C15-   C14-   C13
  7932   7935   7938   7941      9     0.00   0.41840   2 ;    C16-   C15-   C14-   C13
  7932   7935   7938   7941      9     0.00   0.41840   4 ;    C16-   C15-   C14-   C13
  7932   7935   7938   7941      9     0.00   0.41840   5 ;    C16-   C15-   C14-   C13
  7932   7935   7938   7941      9     0.00   1.25520   3 ;    C16-   C15-   C14-   C13
  7933   7932   7935   7936      9     0.00   0.62760   3 ;    H6R-   C16-   C15-   H5R
  7933   7932   7935   7937      9     0.00   0.62760   3 ;    H6R-   C16-   C15-   H5S
  7933   7932   7935   7938      9     0.00   0.66944   3 ;    H6R-   C16-   C15-   C14
  7934   7932   7935   7936      9     0.00   0.62760   3 ;    H6S-   C16-   C15-   H5R
  7934   7932   7935   7937      9     0.00   0.62760   3 ;    H6S-   C16-   C15-   H5S
  7934   7932   7935   7938      9     0.00   0.66944   3 ;    H6S-   C16-   C15-   C14
  7935   7938   7941   7942      9     0.00   0.66944   3 ;    C15-   C14-   C13-   H3R
  7935   7938   7941   7943      9     0.00   0.66944   3 ;    C15-   C14-   C13-   H3S
  7935   7938   7941   7944      9     0.00   0.41840   1 ;    C15-   C14-   C13-   C12
  7935   7938   7941   7944      9     0.00   0.41840   2 ;    C15-   C14-   C13-   C12
  7935   7938   7941   7944      9     0.00   0.41840   4 ;    C15-   C14-   C13-   C12
  7935   7938   7941   7944      9     0.00   0.41840   5 ;    C15-   C14-   C13-   C12
  7935   7938   7941   7944      9     0.00   1.25520   3 ;    C15-   C14-   C13-   C12
  7936   7935   7938   7939      9     0.00   0.62760   3 ;    H5R-   C15-   C14-   H4R
  7936   7935   7938   7940      9     0.00   0.62760   3 ;    H5R-   C15-   C14-   H4S
  7936   7935   7938   7941      9     0.00   0.66944   3 ;    H5R-   C15-   C14-   C13
  7937   7935   7938   7939      9     0.00   0.62760   3 ;    H5S-   C15-   C14-   H4R
  7937   7935   7938   7940      9     0.00   0.62760   3 ;    H5S-   C15-   C14-   H4S
  7937   7935   7938   7941      9     0.00   0.66944   3 ;    H5S-   C15-   C14-   C13
  7938   7941   7944   7945      9     0.00   0.66944   3 ;    C14-   C13-   C12-   H2R
  7938   7941   7944   7946      9     0.00   0.66944   3 ;    C14-   C13-   C12-   H2S
  7938   7941   7944   7947      9     0.00   0.65270   3 ;    C14-   C13-   C12-   C11
  7939   7938   7941   7942      9     0.00   0.62760   3 ;    H4R-   C14-   C13-   H3R
  7939   7938   7941   7943      9     0.00   0.62760   3 ;    H4R-   C14-   C13-   H3S
  7939   7938   7941   7944      9     0.00   0.66944   3 ;    H4R-   C14-   C13-   C12
  7940   7938   7941   7942      9     0.00   0.62760   3 ;    H4S-   C14-   C13-   H3R
  7940   7938   7941   7943      9     0.00   0.62760   3 ;    H4S-   C14-   C13-   H3S
  7940   7938   7941   7944      9     0.00   0.66944   3 ;    H4S-   C14-   C13-   C12
  7941   7944   7947   7948      9   180.00   0.00000   2 ;    C13-   C12-   C11-   O12
  7941   7944   7947   7949      9   180.00   0.00000   2 ;    C13-   C12-   C11-   O11
  7942   7941   7944   7945      9     0.00   0.62760   3 ;    H3R-   C13-   C12-   H2R
  7942   7941   7944   7946      9     0.00   0.62760   3 ;    H3R-   C13-   C12-   H2S
  7942   7941   7944   7947      9     0.00   0.65270   3 ;    H3R-   C13-   C12-   C11
  7943   7941   7944   7945      9     0.00   0.62760   3 ;    H3S-   C13-   C12-   H2R
  7943   7941   7944   7946      9     0.00   0.62760   3 ;    H3S-   C13-   C12-   H2S
  7943   7941   7944   7947      9     0.00   0.65270   3 ;    H3S-   C13-   C12-   C11
  7944   7947   7949   7950      9   180.00  11.29680   2 ;    C12-   C11-   O11-    C1
  7945   7944   7947   7948      9     0.00   3.34720   1 ;    H2R-   C12-   C11-   O12
  7945   7944   7947   7948      9   180.00   0.33472   3 ;    H2R-   C12-   C11-   O12
  7945   7944   7947   7949      9   180.00   0.00000   2 ;    H2R-   C12-   C11-   O11
  7946   7944   7947   7948      9     0.00   3.34720   1 ;    H2S-   C12-   C11-   O12
  7946   7944   7947   7948      9   180.00   0.33472   3 ;    H2S-   C12-   C11-   O12
  7946   7944   7947   7949      9   180.00   0.00000   2 ;    H2S-   C12-   C11-   O11
  7947   7949   7950   7951      9     0.00   1.60247   3 ;    C11-   O11-    C1-    HR
  7947   7949   7950   7952      9     0.00   1.60247   3 ;    C11-   O11-    C1-    HS
  7947   7949   7950   7953      9     0.00  -0.41840   1 ;    C11-   O11-    C1-    C2
  7948   7947   7949   7950      9   180.00   5.85760   1 ;    O12-   C11-   O11-    C1
  7948   7947   7949   7950      9   180.00  11.29680   2 ;    O12-   C11-   O11-    C1
  7949   7950   7953   7954      9     0.00   0.00000   0 ;    O11-    C1-    C2-    HX
  7949   7950   7953   7954      9     0.00   1.04600   1 ;    O11-    C1-    C2-    HX
  7949   7950   7953   7955      9     0.00   0.00000   0 ;    O11-    C1-    C2-    C3
  7949   7950   7953   7955      9     0.00   0.00000   0 ;    O11-    C1-    C2-    C3
  7949   7950   7953   7955      9     0.00   0.00000   0 ;    O11-    C1-    C2-    C3
  7949   7950   7953   7955      9     0.00   0.00000   0 ;    O11-    C1-    C2-    C3
  7949   7950   7953   7955      9     0.00   0.00000   0 ;    O11-    C1-    C2-    C3
  7949   7950   7953   7982      9     0.00   1.25520   2 ;    O11-    C1-    C2-   O21
  7949   7950   7953   7982      9     0.00   4.18400   3 ;    O11-    C1-    C2-   O21
  7949   7950   7953   7982      9   180.00  -0.41840   1 ;    O11-    C1-    C2-   O21
  7950   7953   7955   7956      9     0.00   0.65270   3 ;     C1-    C2-    C3-    HA
  7950   7953   7955   7957      9     0.00   0.65270   3 ;     C1-    C2-    C3-    HB
  7950   7953   7955   7958      9   180.00   3.34720   1 ;     C1-    C2-    C3-   O31
  7950   7953   7982   7983      9     0.00  -0.41840   1 ;     C1-    C2-   O21-   C21
  7951   7950   7953   7954      9     0.00   0.65270   3 ;     HR-    C1-    C2-    HX
  7951   7950   7953   7955      9     0.00   0.65270   3 ;     HR-    C1-    C2-    C3
  7951   7950   7953   7982      9     0.00   0.00000   0 ;     HR-    C1-    C2-   O21
  7951   7950   7953   7982      9     0.00   1.04600   1 ;     HR-    C1-    C2-   O21
  7952   7950   7953   7954      9     0.00   0.65270   3 ;     HS-    C1-    C2-    HX
  7952   7950   7953   7955      9     0.00   0.65270   3 ;     HS-    C1-    C2-    C3
  7952   7950   7953   7982      9     0.00   0.00000   0 ;     HS-    C1-    C2-   O21
  7952   7950   7953   7982      9     0.00   1.04600   1 ;     HS-    C1-    C2-   O21
  7953   7955   7958   7959      9     0.00   0.00000   0 ;     C2-    C3-   O31-   P31
  7953   7955   7958   7959      9   180.00  -3.34720   2 ;     C2-    C3-   O31-   P31
  7953   7982   7983   7984      9   180.00   5.85760   1 ;     C2-   O21-   C21-   O22
  7953   7982   7983   7984      9   180.00  11.29680   2 ;     C2-   O21-   C21-   O22
  7953   7982   7983   8022      9   180.00  11.29680   2 ;     C2-   O21-   C21-   C12
  7954   7953   7955   7956      9     0.00   0.65270   3 ;     HX-    C2-    C3-    HA
  7954   7953   7955   7957      9     0.00   0.65270   3 ;     HX-    C2-    C3-    HB
  7954   7953   7955   7958      9     0.00   0.00000   0 ;     HX-    C2-    C3-   O31
  7954   7953   7955   7958      9     0.00   1.04600   1 ;     HX-    C2-    C3-   O31
  7954   7953   7982   7983      9     0.00   1.60247   3 ;     HX-    C2-   O21-   C21
  7955   7953   7982   7983      9     0.00  -0.41840   1 ;     C3-    C2-   O21-   C21
  7955   7958   7959   7960      9     0.00   2.51040   3 ;     C3-   O31-   P31-   O32
  7955   7958   7959   7960      9     0.00   9.62320   2 ;     C3-   O31-   P31-   O32
  7955   7958   7959   7980      9     0.00   0.00000   0 ;     C3-   O31-   P31-   O33
  7955   7958   7959   7980      9     0.00   0.00000   0 ;     C3-   O31-   P31-   O33
  7955   7958   7959   7980      9     0.00   0.00000   0 ;     C3-   O31-   P31-   O33
  7955   7958   7959   7980      9     0.00   0.00000   0 ;     C3-   O31-   P31-   O33
  7955   7958   7959   7980      9     0.00   0.83680   2 ;     C3-   O31-   P31-   O33
  7955   7958   7959   7981      9     0.00   0.00000   0 ;     C3-   O31-   P31-   O34
  7955   7958   7959   7981      9     0.00   0.00000   0 ;     C3-   O31-   P31-   O34
  7955   7958   7959   7981      9     0.00   0.00000   0 ;     C3-   O31-   P31-   O34
  7955   7958   7959   7981      9     0.00   0.00000   0 ;     C3-   O31-   P31-   O34
  7955   7958   7959   7981      9     0.00   0.83680   2 ;     C3-   O31-   P31-   O34
  7956   7955   7953   7982      9     0.00   0.00000   0 ;     HA-    C3-    C2-   O21
  7956   7955   7953   7982      9     0.00   1.04600   1 ;     HA-    C3-    C2-   O21
  7956   7955   7958   7959      9     0.00   0.00000   0 ;     HA-    C3-   O31-   P31
  7956   7955   7958   7959      9     0.00   0.00000   0 ;     HA-    C3-   O31-   P31
  7956   7955   7958   7959      9     0.00   0.00000   0 ;     HA-    C3-   O31-   P31
  7956   7955   7958   7959      9     0.00   0.00000   0 ;     HA-    C3-   O31-   P31
  7956   7955   7958   7959      9     0.00   1.60247   3 ;     HA-    C3-   O31-   P31
  7957   7955   7953   7982      9     0.00   0.00000   0 ;     HB-    C3-    C2-   O21
  7957   7955   7953   7982      9     0.00   1.04600   1 ;     HB-    C3-    C2-   O21
  7957   7955   7958   7959      9     0.00   0.00000   0 ;     HB-    C3-   O31-   P31
  7957   7955   7958   7959      9     0.00   0.00000   0 ;     HB-    C3-   O31-   P31
  7957   7955   7958   7959      9     0.00   0.00000   0 ;     HB-    C3-   O31-   P31
  7957   7955   7958   7959      9     0.00   0.00000   0 ;     HB-    C3-   O31-   P31
  7957   7955   7958   7959      9     0.00   1.60247   3 ;     HB-    C3-   O31-   P31
  7958   7955   7953   7982      9     0.00   0.00000   0 ;    O31-    C3-    C2-   O21
  7958   7955   7953   7982      9     0.00   0.00000   0 ;    O31-    C3-    C2-   O21
  7958   7955   7953   7982      9     0.00   0.00000   0 ;    O31-    C3-    C2-   O21
  7958   7955   7953   7982      9     0.00   0.00000   0 ;    O31-    C3-    C2-   O21
  7958   7955   7953   7982      9     0.00   0.00000   0 ;    O31-    C3-    C2-   O21
  7958   7959   7960   7961      9     0.00   2.51040   3 ;    O31-   P31-   O32-   C31
  7958   7959   7960   7961      9     0.00   9.62320   2 ;    O31-   P31-   O32-   C31
  7959   7960   7961   7962      9     0.00   0.00000   0 ;    P31-   O32-   C31-   H1A
  7959   7960   7961   7962      9     0.00   0.00000   0 ;    P31-   O32-   C31-   H1A
  7959   7960   7961   7962      9     0.00   0.00000   0 ;    P31-   O32-   C31-   H1A
  7959   7960   7961   7962      9     0.00   0.00000   0 ;    P31-   O32-   C31-   H1A
  7959   7960   7961   7962      9     0.00   1.60247   3 ;    P31-   O32-   C31-   H1A
  7959   7960   7961   7963      9     0.00   0.00000   0 ;    P31-   O32-   C31-   H1B
  7959   7960   7961   7963      9     0.00   0.00000   0 ;    P31-   O32-   C31-   H1B
  7959   7960   7961   7963      9     0.00   0.00000   0 ;    P31-   O32-   C31-   H1B
  7959   7960   7961   7963      9     0.00   0.00000   0 ;    P31-   O32-   C31-   H1B
  7959   7960   7961   7963      9     0.00   1.60247   3 ;    P31-   O32-   C31-   H1B
  7959   7960   7961   7964      9     0.00   0.00000   0 ;    P31-   O32-   C31-   C32
  7959   7960   7961   7964      9   180.00  -3.34720   2 ;    P31-   O32-   C31-   C32
  7960   7961   7964   7965      9     0.00   0.65270   3 ;    O32-   C31-   C32-   H2A
  7960   7961   7964   7966      9     0.00   0.65270   3 ;    O32-   C31-   C32-   H2B
  7960   7961   7964   7967      9     0.00   4.18400   3 ;    O32-   C31-   C32-   N31
  7961   7960   7959   7980      9     0.00   0.00000   0 ;    C31-   O32-   P31-   O33
  7961   7960   7959   7980      9     0.00   0.00000   0 ;    C31-   O32-   P31-   O33
  7961   7960   7959   7980      9     0.00   0.00000   0 ;    C31-   O32-   P31-   O33
  7961   7960   7959   7980      9     0.00   0.00000   0 ;    C31-   O32-   P31-   O33
  7961   7960   7959   7980      9     0.00   0.83680   2 ;    C31-   O32-   P31-   O33
  7961   7960   7959   7981      9     0.00   0.00000   0 ;    C31-   O32-   P31-   O34
  7961   7960   7959   7981      9     0.00   0.00000   0 ;    C31-   O32-   P31-   O34
  7961   7960   7959   7981      9     0.00   0.00000   0 ;    C31-   O32-   P31-   O34
  7961   7960   7959   7981      9     0.00   0.00000   0 ;    C31-   O32-   P31-   O34
  7961   7960   7959   7981      9     0.00   0.83680   2 ;    C31-   O32-   P31-   O34
  7961   7964   7967   7968      9     0.00   0.65270   3 ;    C31-   C32-   N31-   C33
  7961   7964   7967   7972      9     0.00   0.65270   3 ;    C31-   C32-   N31-   C34
  7961   7964   7967   7976      9     0.00   0.65270   3 ;    C31-   C32-   N31-   C35
  7962   7961   7964   7965      9     0.00   0.65270   3 ;    H1A-   C31-   C32-   H2A
  7962   7961   7964   7966      9     0.00   0.65270   3 ;    H1A-   C31-   C32-   H2B
  7962   7961   7964   7967      9     0.00   0.65270   3 ;    H1A-   C31-   C32-   N31
  7963   7961   7964   7965      9     0.00   0.65270   3 ;    H1B-   C31-   C32-   H2A
  7963   7961   7964   7966      9     0.00   0.65270   3 ;    H1B-   C31-   C32-   H2B
  7963   7961   7964   7967      9     0.00   0.65270   3 ;    H1B-   C31-   C32-   N31
  7964   7967   7968   7969      9     0.00   0.65270   3 ;    C32-   N31-   C33-   H3A
  7964   7967   7968   7970      9     0.00   0.65270   3 ;    C32-   N31-   C33-   H3B
  7964   7967   7968   7971      9     0.00   0.65270   3 ;    C32-   N31-   C33-   H3C
  7964   7967   7972   7973      9     0.00   0.65270   3 ;    C32-   N31-   C34-   H4A
  7964   7967   7972   7974      9     0.00   0.65270   3 ;    C32-   N31-   C34-   H4B
  7964   7967   7972   7975      9     0.00   0.65270   3 ;    C32-   N31-   C34-   H4C
  7964   7967   7976   7977      9     0.00   0.65270   3 ;    C32-   N31-   C35-   H5A
  7964   7967   7976   7978      9     0.00   0.65270   3 ;    C32-   N31-   C35-   H5B
  7964   7967   7976   7979      9     0.00   0.65270   3 ;    C32-   N31-   C35-   H5C
  7965   7964   7967   7968      9     0.00   0.65270   3 ;    H2A-   C32-   N31-   C33
  7965   7964   7967   7972      9     0.00   0.65270   3 ;    H2A-   C32-   N31-   C34
  7965   7964   7967   7976      9     0.00   0.65270   3 ;    H2A-   C32-   N31-   C35
  7966   7964   7967   7968      9     0.00   0.65270   3 ;    H2B-   C32-   N31-   C33
  7966   7964   7967   7972      9     0.00   0.65270   3 ;    H2B-   C32-   N31-   C34
  7966   7964   7967   7976      9     0.00   0.65270   3 ;    H2B-   C32-   N31-   C35
  7968   7967   7972   7973      9     0.00   0.65270   3 ;    C33-   N31-   C34-   H4A
  7968   7967   7972   7974      9     0.00   0.65270   3 ;    C33-   N31-   C34-   H4B
  7968   7967   7972   7975      9     0.00   0.65270   3 ;    C33-   N31-   C34-   H4C
  7968   7967   7976   7977      9     0.00   0.65270   3 ;    C33-   N31-   C35-   H5A
  7968   7967   7976   7978      9     0.00   0.65270   3 ;    C33-   N31-   C35-   H5B
  7968   7967   7976   7979      9     0.00   0.65270   3 ;    C33-   N31-   C35-   H5C
  7969   7968   7967   7972      9     0.00   0.65270   3 ;    H3A-   C33-   N31-   C34
  7969   7968   7967   7976      9     0.00   0.65270   3 ;    H3A-   C33-   N31-   C35
  7970   7968   7967   7972      9     0.00   0.65270   3 ;    H3B-   C33-   N31-   C34
  7970   7968   7967   7976      9     0.00   0.65270   3 ;    H3B-   C33-   N31-   C35
  7971   7968   7967   7972      9     0.00   0.65270   3 ;    H3C-   C33-   N31-   C34
  7971   7968   7967   7976      9     0.00   0.65270   3 ;    H3C-   C33-   N31-   C35
  7972   7967   7976   7977      9     0.00   0.65270   3 ;    C34-   N31-   C35-   H5A
  7972   7967   7976   7978      9     0.00   0.65270   3 ;    C34-   N31-   C35-   H5B
  7972   7967   7976   7979      9     0.00   0.65270   3 ;    C34-   N31-   C35-   H5C
  7973   7972   7967   7976      9     0.00   0.65270   3 ;    H4A-   C34-   N31-   C35
  7974   7972   7967   7976      9     0.00   0.65270   3 ;    H4B-   C34-   N31-   C35
  7975   7972   7967   7976      9     0.00   0.65270   3 ;    H4C-   C34-   N31-   C35
  7982   7983   8022   8019      9   180.00   0.00000   2 ;    O21-   C21-   C12-   C13
  7982   7983   8022   8023      9   180.00   0.00000   2 ;    O21-   C21-   C12-   H2R
  7982   7983   8022   8024      9   180.00   0.00000   2 ;    O21-   C21-   C12-   H2S
  7983   8022   8019   8016      9     0.00   0.65270   3 ;    C21-   C12-   C13-   C14
  7983   8022   8019   8020      9     0.00   0.65270   3 ;    C21-   C12-   C13-   H3R
  7983   8022   8019   8021      9     0.00   0.65270   3 ;    C21-   C12-   C13-   H3S
  7984   7983   8022   8019      9   180.00   0.00000   2 ;    O22-   C21-   C12-   C13
  7984   7983   8022   8023      9     0.00   3.34720   1 ;    O22-   C21-   C12-   H2R
  7984   7983   8022   8023      9   180.00   0.33472   3 ;    O22-   C21-   C12-   H2R
  7984   7983   8022   8024      9     0.00   3.34720   1 ;    O22-   C21-   C12-   H2S
  7984   7983   8022   8024      9   180.00   0.33472   3 ;    O22-   C21-   C12-   H2S
  7985   7986   7989   7990      9     0.00   0.62760   3 ;   H14T-  C114-  C113-  H13R
  7985   7986   7989   7991      9     0.00   0.62760   3 ;   H14T-  C114-  C113-  H13S
  7985   7986   7989   7992      9     0.00   0.66944   3 ;   H14T-  C114-  C113-  C112
  7986   7989   7992   7993      9     0.00   0.66944   3 ;   C114-  C113-  C112-  H12R
  7986   7989   7992   7994      9     0.00   0.66944   3 ;   C114-  C113-  C112-  H12S
  7986   7989   7992   7995      9     0.00   0.41840   1 ;   C114-  C113-  C112-  C111
  7986   7989   7992   7995      9     0.00   0.41840   2 ;   C114-  C113-  C112-  C111
  7986   7989   7992   7995      9     0.00   0.41840   4 ;   C114-  C113-  C112-  C111
  7986   7989   7992   7995      9     0.00   0.41840   5 ;   C114-  C113-  C112-  C111
  7986   7989   7992   7995      9     0.00   1.25520   3 ;   C114-  C113-  C112-  C111
  7987   7986   7989   7990      9     0.00   0.62760   3 ;   H14R-  C114-  C113-  H13R
  7987   7986   7989   7991      9     0.00   0.62760   3 ;   H14R-  C114-  C113-  H13S
  7987   7986   7989   7992      9     0.00   0.66944   3 ;   H14R-  C114-  C113-  C112
  7988   7986   7989   7990      9     0.00   0.62760   3 ;   H14S-  C114-  C113-  H13R
  7988   7986   7989   7991      9     0.00   0.62760   3 ;   H14S-  C114-  C113-  H13S
  7988   7986   7989   7992      9     0.00   0.66944   3 ;   H14S-  C114-  C113-  C112
  7989   7992   7995   7996      9     0.00   0.66944   3 ;   C113-  C112-  C111-  H11R
  7989   7992   7995   7997      9     0.00   0.66944   3 ;   C113-  C112-  C111-  H11S
  7989   7992   7995   7998      9     0.00   0.41840   1 ;   C113-  C112-  C111-  C110
  7989   7992   7995   7998      9     0.00   0.41840   2 ;   C113-  C112-  C111-  C110
  7989   7992   7995   7998      9     0.00   0.41840   4 ;   C113-  C112-  C111-  C110
  7989   7992   7995   7998      9     0.00   0.41840   5 ;   C113-  C112-  C111-  C110
  7989   7992   7995   7998      9     0.00   1.25520   3 ;   C113-  C112-  C111-  C110
  7990   7989   7992   7993      9     0.00   0.62760   3 ;   H13R-  C113-  C112-  H12R
  7990   7989   7992   7994      9     0.00   0.62760   3 ;   H13R-  C113-  C112-  H12S
  7990   7989   7992   7995      9     0.00   0.66944   3 ;   H13R-  C113-  C112-  C111
  7991   7989   7992   7993      9     0.00   0.62760   3 ;   H13S-  C113-  C112-  H12R
  7991   7989   7992   7994      9     0.00   0.62760   3 ;   H13S-  C113-  C112-  H12S
  7991   7989   7992   7995      9     0.00   0.66944   3 ;   H13S-  C113-  C112-  C111
  7992   7995   7998   7999      9     0.00   0.66944   3 ;   C112-  C111-  C110-  H10R
  7992   7995   7998   8000      9     0.00   0.66944   3 ;   C112-  C111-  C110-  H10S
  7992   7995   7998   8001      9     0.00   0.41840   1 ;   C112-  C111-  C110-   C19
  7992   7995   7998   8001      9     0.00   0.41840   2 ;   C112-  C111-  C110-   C19
  7992   7995   7998   8001      9     0.00   0.41840   4 ;   C112-  C111-  C110-   C19
  7992   7995   7998   8001      9     0.00   0.41840   5 ;   C112-  C111-  C110-   C19
  7992   7995   7998   8001      9     0.00   1.25520   3 ;   C112-  C111-  C110-   C19
  7993   7992   7995   7996      9     0.00   0.62760   3 ;   H12R-  C112-  C111-  H11R
  7993   7992   7995   7997      9     0.00   0.62760   3 ;   H12R-  C112-  C111-  H11S
  7993   7992   7995   7998      9     0.00   0.66944   3 ;   H12R-  C112-  C111-  C110
  7994   7992   7995   7996      9     0.00   0.62760   3 ;   H12S-  C112-  C111-  H11R
  7994   7992   7995   7997      9     0.00   0.62760   3 ;   H12S-  C112-  C111-  H11S
  7994   7992   7995   7998      9     0.00   0.66944   3 ;   H12S-  C112-  C111-  C110
  7995   7998   8001   8002      9     0.00   0.66944   3 ;   C111-  C110-   C19-   H9R
  7995   7998   8001   8003      9     0.00   0.66944   3 ;   C111-  C110-   C19-   H9S
  7995   7998   8001   8004      9     0.00   0.41840   1 ;   C111-  C110-   C19-   C18
  7995   7998   8001   8004      9     0.00   0.41840   2 ;   C111-  C110-   C19-   C18
  7995   7998   8001   8004      9     0.00   0.41840   4 ;   C111-  C110-   C19-   C18
  7995   7998   8001   8004      9     0.00   0.41840   5 ;   C111-  C110-   C19-   C18
  7995   7998   8001   8004      9     0.00   1.25520   3 ;   C111-  C110-   C19-   C18
  7996   7995   7998   7999      9     0.00   0.62760   3 ;   H11R-  C111-  C110-  H10R
  7996   7995   7998   8000      9     0.00   0.62760   3 ;   H11R-  C111-  C110-  H10S
  7996   7995   7998   8001      9     0.00   0.66944   3 ;   H11R-  C111-  C110-   C19
  7997   7995   7998   7999      9     0.00   0.62760   3 ;   H11S-  C111-  C110-  H10R
  7997   7995   7998   8000      9     0.00   0.62760   3 ;   H11S-  C111-  C110-  H10S
  7997   7995   7998   8001      9     0.00   0.66944   3 ;   H11S-  C111-  C110-   C19
  7998   8001   8004   8005      9     0.00   0.66944   3 ;   C110-   C19-   C18-   H8R
  7998   8001   8004   8006      9     0.00   0.66944   3 ;   C110-   C19-   C18-   H8S
  7998   8001   8004   8007      9     0.00   0.41840   1 ;   C110-   C19-   C18-   C17
  7998   8001   8004   8007      9     0.00   0.41840   2 ;   C110-   C19-   C18-   C17
  7998   8001   8004   8007      9     0.00   0.41840   4 ;   C110-   C19-   C18-   C17
  7998   8001   8004   8007      9     0.00   0.41840   5 ;   C110-   C19-   C18-   C17
  7998   8001   8004   8007      9     0.00   1.25520   3 ;   C110-   C19-   C18-   C17
  7999   7998   8001   8002      9     0.00   0.62760   3 ;   H10R-  C110-   C19-   H9R
  7999   7998   8001   8003      9     0.00   0.62760   3 ;   H10R-  C110-   C19-   H9S
  7999   7998   8001   8004      9     0.00   0.66944   3 ;   H10R-  C110-   C19-   C18
  8000   7998   8001   8002      9     0.00   0.62760   3 ;   H10S-  C110-   C19-   H9R
  8000   7998   8001   8003      9     0.00   0.62760   3 ;   H10S-  C110-   C19-   H9S
  8000   7998   8001   8004      9     0.00   0.66944   3 ;   H10S-  C110-   C19-   C18
  8001   8004   8007   8008      9     0.00   0.66944   3 ;    C19-   C18-   C17-   H7R
  8001   8004   8007   8009      9     0.00   0.66944   3 ;    C19-   C18-   C17-   H7S
  8001   8004   8007   8010      9     0.00   0.41840   1 ;    C19-   C18-   C17-   C16
  8001   8004   8007   8010      9     0.00   0.41840   2 ;    C19-   C18-   C17-   C16
  8001   8004   8007   8010      9     0.00   0.41840   4 ;    C19-   C18-   C17-   C16
  8001   8004   8007   8010      9     0.00   0.41840   5 ;    C19-   C18-   C17-   C16
  8001   8004   8007   8010      9     0.00   1.25520   3 ;    C19-   C18-   C17-   C16
  8002   8001   8004   8005      9     0.00   0.62760   3 ;    H9R-   C19-   C18-   H8R
  8002   8001   8004   8006      9     0.00   0.62760   3 ;    H9R-   C19-   C18-   H8S
  8002   8001   8004   8007      9     0.00   0.66944   3 ;    H9R-   C19-   C18-   C17
  8003   8001   8004   8005      9     0.00   0.62760   3 ;    H9S-   C19-   C18-   H8R
  8003   8001   8004   8006      9     0.00   0.62760   3 ;    H9S-   C19-   C18-   H8S
  8003   8001   8004   8007      9     0.00   0.66944   3 ;    H9S-   C19-   C18-   C17
  8004   8007   8010   8011      9     0.00   0.66944   3 ;    C18-   C17-   C16-   H6R
  8004   8007   8010   8012      9     0.00   0.66944   3 ;    C18-   C17-   C16-   H6S
  8004   8007   8010   8013      9     0.00   0.41840   1 ;    C18-   C17-   C16-   C15
  8004   8007   8010   8013      9     0.00   0.41840   2 ;    C18-   C17-   C16-   C15
  8004   8007   8010   8013      9     0.00   0.41840   4 ;    C18-   C17-   C16-   C15
  8004   8007   8010   8013      9     0.00   0.41840   5 ;    C18-   C17-   C16-   C15
  8004   8007   8010   8013      9     0.00   1.25520   3 ;    C18-   C17-   C16-   C15
  8005   8004   8007   8008      9     0.00   0.62760   3 ;    H8R-   C18-   C17-   H7R
  8005   8004   8007   8009      9     0.00   0.62760   3 ;    H8R-   C18-   C17-   H7S
  8005   8004   8007   8010      9     0.00   0.66944   3 ;    H8R-   C18-   C17-   C16
  8006   8004   8007   8008      9     0.00   0.62760   3 ;    H8S-   C18-   C17-   H7R
  8006   8004   8007   8009      9     0.00   0.62760   3 ;    H8S-   C18-   C17-   H7S
  8006   8004   8007   8010      9     0.00   0.66944   3 ;    H8S-   C18-   C17-   C16
  8007   8010   8013   8014      9     0.00   0.66944   3 ;    C17-   C16-   C15-   H5R
  8007   8010   8013   8015      9     0.00   0.66944   3 ;    C17-   C16-   C15-   H5S
  8007   8010   8013   8016      9     0.00   0.41840   1 ;    C17-   C16-   C15-   C14
  8007   8010   8013   8016      9     0.00   0.41840   2 ;    C17-   C16-   C15-   C14
  8007   8010   8013   8016      9     0.00   0.41840   4 ;    C17-   C16-   C15-   C14
  8007   8010   8013   8016      9     0.00   0.41840   5 ;    C17-   C16-   C15-   C14
  8007   8010   8013   8016      9     0.00   1.25520   3 ;    C17-   C16-   C15-   C14
  8008   8007   8010   8011      9     0.00   0.62760   3 ;    H7R-   C17-   C16-   H6R
  8008   8007   8010   8012      9     0.00   0.62760   3 ;    H7R-   C17-   C16-   H6S
  8008   8007   8010   8013      9     0.00   0.66944   3 ;    H7R-   C17-   C16-   C15
  8009   8007   8010   8011      9     0.00   0.62760   3 ;    H7S-   C17-   C16-   H6R
  8009   8007   8010   8012      9     0.00   0.62760   3 ;    H7S-   C17-   C16-   H6S
  8009   8007   8010   8013      9     0.00   0.66944   3 ;    H7S-   C17-   C16-   C15
  8010   8013   8016   8017      9     0.00   0.66944   3 ;    C16-   C15-   C14-   H4R
  8010   8013   8016   8018      9     0.00   0.66944   3 ;    C16-   C15-   C14-   H4S
  8010   8013   8016   8019      9     0.00   0.41840   1 ;    C16-   C15-   C14-   C13
  8010   8013   8016   8019      9     0.00   0.41840   2 ;    C16-   C15-   C14-   C13
  8010   8013   8016   8019      9     0.00   0.41840   4 ;    C16-   C15-   C14-   C13
  8010   8013   8016   8019      9     0.00   0.41840   5 ;    C16-   C15-   C14-   C13
  8010   8013   8016   8019      9     0.00   1.25520   3 ;    C16-   C15-   C14-   C13
  8011   8010   8013   8014      9     0.00   0.62760   3 ;    H6R-   C16-   C15-   H5R
  8011   8010   8013   8015      9     0.00   0.62760   3 ;    H6R-   C16-   C15-   H5S
  8011   8010   8013   8016      9     0.00   0.66944   3 ;    H6R-   C16-   C15-   C14
  8012   8010   8013   8014      9     0.00   0.62760   3 ;    H6S-   C16-   C15-   H5R
  8012   8010   8013   8015      9     0.00   0.62760   3 ;    H6S-   C16-   C15-   H5S
  8012   8010   8013   8016      9     0.00   0.66944   3 ;    H6S-   C16-   C15-   C14
  8013   8016   8019   8020      9     0.00   0.66944   3 ;    C15-   C14-   C13-   H3R
  8013   8016   8019   8021      9     0.00   0.66944   3 ;    C15-   C14-   C13-   H3S
  8013   8016   8019   8022      9     0.00   0.41840   1 ;    C15-   C14-   C13-   C12
  8013   8016   8019   8022      9     0.00   0.41840   2 ;    C15-   C14-   C13-   C12
  8013   8016   8019   8022      9     0.00   0.41840   4 ;    C15-   C14-   C13-   C12
  8013   8016   8019   8022      9     0.00   0.41840   5 ;    C15-   C14-   C13-   C12
  8013   8016   8019   8022      9     0.00   1.25520   3 ;    C15-   C14-   C13-   C12
  8014   8013   8016   8017      9     0.00   0.62760   3 ;    H5R-   C15-   C14-   H4R
  8014   8013   8016   8018      9     0.00   0.62760   3 ;    H5R-   C15-   C14-   H4S
  8014   8013   8016   8019      9     0.00   0.66944   3 ;    H5R-   C15-   C14-   C13
  8015   8013   8016   8017      9     0.00   0.62760   3 ;    H5S-   C15-   C14-   H4R
  8015   8013   8016   8018      9     0.00   0.62760   3 ;    H5S-   C15-   C14-   H4S
  8015   8013   8016   8019      9     0.00   0.66944   3 ;    H5S-   C15-   C14-   C13
  8016   8019   8022   8023      9     0.00   0.66944   3 ;    C14-   C13-   C12-   H2R
  8016   8019   8022   8024      9     0.00   0.66944   3 ;    C14-   C13-   C12-   H2S
  8017   8016   8019   8020      9     0.00   0.62760   3 ;    H4R-   C14-   C13-   H3R
  8017   8016   8019   8021      9     0.00   0.62760   3 ;    H4R-   C14-   C13-   H3S
  8017   8016   8019   8022      9     0.00   0.66944   3 ;    H4R-   C14-   C13-   C12
  8018   8016   8019   8020      9     0.00   0.62760   3 ;    H4S-   C14-   C13-   H3R
  8018   8016   8019   8021      9     0.00   0.62760   3 ;    H4S-   C14-   C13-   H3S
  8018   8016   8019   8022      9     0.00   0.66944   3 ;    H4S-   C14-   C13-   C12
  8020   8019   8022   8023      9     0.00   0.62760   3 ;    H3R-   C13-   C12-   H2R
  8020   8019   8022   8024      9     0.00   0.62760   3 ;    H3R-   C13-   C12-   H2S
  8021   8019   8022   8023      9     0.00   0.62760   3 ;    H3S-   C13-   C12-   H2R
  8021   8019   8022   8024      9     0.00   0.62760   3 ;    H3S-   C13-   C12-   H2S
  8025   8026   8029   8030      9     0.00   0.62760   3 ;   H14T-  C114-  C113-  H13R
  8025   8026   8029   8031      9     0.00   0.62760   3 ;   H14T-  C114-  C113-  H13S
  8025   8026   8029   8032      9     0.00   0.66944   3 ;   H14T-  C114-  C113-  C112
  8026   8029   8032   8033      9     0.00   0.66944   3 ;   C114-  C113-  C112-  H12R
  8026   8029   8032   8034      9     0.00   0.66944   3 ;   C114-  C113-  C112-  H12S
  8026   8029   8032   8035      9     0.00   0.41840   1 ;   C114-  C113-  C112-  C111
  8026   8029   8032   8035      9     0.00   0.41840   2 ;   C114-  C113-  C112-  C111
  8026   8029   8032   8035      9     0.00   0.41840   4 ;   C114-  C113-  C112-  C111
  8026   8029   8032   8035      9     0.00   0.41840   5 ;   C114-  C113-  C112-  C111
  8026   8029   8032   8035      9     0.00   1.25520   3 ;   C114-  C113-  C112-  C111
  8027   8026   8029   8030      9     0.00   0.62760   3 ;   H14R-  C114-  C113-  H13R
  8027   8026   8029   8031      9     0.00   0.62760   3 ;   H14R-  C114-  C113-  H13S
  8027   8026   8029   8032      9     0.00   0.66944   3 ;   H14R-  C114-  C113-  C112
  8028   8026   8029   8030      9     0.00   0.62760   3 ;   H14S-  C114-  C113-  H13R
  8028   8026   8029   8031      9     0.00   0.62760   3 ;   H14S-  C114-  C113-  H13S
  8028   8026   8029   8032      9     0.00   0.66944   3 ;   H14S-  C114-  C113-  C112
  8029   8032   8035   8036      9     0.00   0.66944   3 ;   C113-  C112-  C111-  H11R
  8029   8032   8035   8037      9     0.00   0.66944   3 ;   C113-  C112-  C111-  H11S
  8029   8032   8035   8038      9     0.00   0.41840   1 ;   C113-  C112-  C111-  C110
  8029   8032   8035   8038      9     0.00   0.41840   2 ;   C113-  C112-  C111-  C110
  8029   8032   8035   8038      9     0.00   0.41840   4 ;   C113-  C112-  C111-  C110
  8029   8032   8035   8038      9     0.00   0.41840   5 ;   C113-  C112-  C111-  C110
  8029   8032   8035   8038      9     0.00   1.25520   3 ;   C113-  C112-  C111-  C110
  8030   8029   8032   8033      9     0.00   0.62760   3 ;   H13R-  C113-  C112-  H12R
  8030   8029   8032   8034      9     0.00   0.62760   3 ;   H13R-  C113-  C112-  H12S
  8030   8029   8032   8035      9     0.00   0.66944   3 ;   H13R-  C113-  C112-  C111
  8031   8029   8032   8033      9     0.00   0.62760   3 ;   H13S-  C113-  C112-  H12R
  8031   8029   8032   8034      9     0.00   0.62760   3 ;   H13S-  C113-  C112-  H12S
  8031   8029   8032   8035      9     0.00   0.66944   3 ;   H13S-  C113-  C112-  C111
  8032   8035   8038   8039      9     0.00   0.66944   3 ;   C112-  C111-  C110-  H10R
  8032   8035   8038   8040      9     0.00   0.66944   3 ;   C112-  C111-  C110-  H10S
  8032   8035   8038   8041      9     0.00   0.41840   1 ;   C112-  C111-  C110-   C19
  8032   8035   8038   8041      9     0.00   0.41840   2 ;   C112-  C111-  C110-   C19
  8032   8035   8038   8041      9     0.00   0.41840   4 ;   C112-  C111-  C110-   C19
  8032   8035   8038   8041      9     0.00   0.41840   5 ;   C112-  C111-  C110-   C19
  8032   8035   8038   8041      9     0.00   1.25520   3 ;   C112-  C111-  C110-   C19
  8033   8032   8035   8036      9     0.00   0.62760   3 ;   H12R-  C112-  C111-  H11R
  8033   8032   8035   8037      9     0.00   0.62760   3 ;   H12R-  C112-  C111-  H11S
  8033   8032   8035   8038      9     0.00   0.66944   3 ;   H12R-  C112-  C111-  C110
  8034   8032   8035   8036      9     0.00   0.62760   3 ;   H12S-  C112-  C111-  H11R
  8034   8032   8035   8037      9     0.00   0.62760   3 ;   H12S-  C112-  C111-  H11S
  8034   8032   8035   8038      9     0.00   0.66944   3 ;   H12S-  C112-  C111-  C110
  8035   8038   8041   8042      9     0.00   0.66944   3 ;   C111-  C110-   C19-   H9R
  8035   8038   8041   8043      9     0.00   0.66944   3 ;   C111-  C110-   C19-   H9S
  8035   8038   8041   8044      9     0.00   0.41840   1 ;   C111-  C110-   C19-   C18
  8035   8038   8041   8044      9     0.00   0.41840   2 ;   C111-  C110-   C19-   C18
  8035   8038   8041   8044      9     0.00   0.41840   4 ;   C111-  C110-   C19-   C18
  8035   8038   8041   8044      9     0.00   0.41840   5 ;   C111-  C110-   C19-   C18
  8035   8038   8041   8044      9     0.00   1.25520   3 ;   C111-  C110-   C19-   C18
  8036   8035   8038   8039      9     0.00   0.62760   3 ;   H11R-  C111-  C110-  H10R
  8036   8035   8038   8040      9     0.00   0.62760   3 ;   H11R-  C111-  C110-  H10S
  8036   8035   8038   8041      9     0.00   0.66944   3 ;   H11R-  C111-  C110-   C19
  8037   8035   8038   8039      9     0.00   0.62760   3 ;   H11S-  C111-  C110-  H10R
  8037   8035   8038   8040      9     0.00   0.62760   3 ;   H11S-  C111-  C110-  H10S
  8037   8035   8038   8041      9     0.00   0.66944   3 ;   H11S-  C111-  C110-   C19
  8038   8041   8044   8045      9     0.00   0.66944   3 ;   C110-   C19-   C18-   H8R
  8038   8041   8044   8046      9     0.00   0.66944   3 ;   C110-   C19-   C18-   H8S
  8038   8041   8044   8047      9     0.00   0.41840   1 ;   C110-   C19-   C18-   C17
  8038   8041   8044   8047      9     0.00   0.41840   2 ;   C110-   C19-   C18-   C17
  8038   8041   8044   8047      9     0.00   0.41840   4 ;   C110-   C19-   C18-   C17
  8038   8041   8044   8047      9     0.00   0.41840   5 ;   C110-   C19-   C18-   C17
  8038   8041   8044   8047      9     0.00   1.25520   3 ;   C110-   C19-   C18-   C17
  8039   8038   8041   8042      9     0.00   0.62760   3 ;   H10R-  C110-   C19-   H9R
  8039   8038   8041   8043      9     0.00   0.62760   3 ;   H10R-  C110-   C19-   H9S
  8039   8038   8041   8044      9     0.00   0.66944   3 ;   H10R-  C110-   C19-   C18
  8040   8038   8041   8042      9     0.00   0.62760   3 ;   H10S-  C110-   C19-   H9R
  8040   8038   8041   8043      9     0.00   0.62760   3 ;   H10S-  C110-   C19-   H9S
  8040   8038   8041   8044      9     0.00   0.66944   3 ;   H10S-  C110-   C19-   C18
  8041   8044   8047   8048      9     0.00   0.66944   3 ;    C19-   C18-   C17-   H7R
  8041   8044   8047   8049      9     0.00   0.66944   3 ;    C19-   C18-   C17-   H7S
  8041   8044   8047   8050      9     0.00   0.41840   1 ;    C19-   C18-   C17-   C16
  8041   8044   8047   8050      9     0.00   0.41840   2 ;    C19-   C18-   C17-   C16
  8041   8044   8047   8050      9     0.00   0.41840   4 ;    C19-   C18-   C17-   C16
  8041   8044   8047   8050      9     0.00   0.41840   5 ;    C19-   C18-   C17-   C16
  8041   8044   8047   8050      9     0.00   1.25520   3 ;    C19-   C18-   C17-   C16
  8042   8041   8044   8045      9     0.00   0.62760   3 ;    H9R-   C19-   C18-   H8R
  8042   8041   8044   8046      9     0.00   0.62760   3 ;    H9R-   C19-   C18-   H8S
  8042   8041   8044   8047      9     0.00   0.66944   3 ;    H9R-   C19-   C18-   C17
  8043   8041   8044   8045      9     0.00   0.62760   3 ;    H9S-   C19-   C18-   H8R
  8043   8041   8044   8046      9     0.00   0.62760   3 ;    H9S-   C19-   C18-   H8S
  8043   8041   8044   8047      9     0.00   0.66944   3 ;    H9S-   C19-   C18-   C17
  8044   8047   8050   8051      9     0.00   0.66944   3 ;    C18-   C17-   C16-   H6R
  8044   8047   8050   8052      9     0.00   0.66944   3 ;    C18-   C17-   C16-   H6S
  8044   8047   8050   8053      9     0.00   0.41840   1 ;    C18-   C17-   C16-   C15
  8044   8047   8050   8053      9     0.00   0.41840   2 ;    C18-   C17-   C16-   C15
  8044   8047   8050   8053      9     0.00   0.41840   4 ;    C18-   C17-   C16-   C15
  8044   8047   8050   8053      9     0.00   0.41840   5 ;    C18-   C17-   C16-   C15
  8044   8047   8050   8053      9     0.00   1.25520   3 ;    C18-   C17-   C16-   C15
  8045   8044   8047   8048      9     0.00   0.62760   3 ;    H8R-   C18-   C17-   H7R
  8045   8044   8047   8049      9     0.00   0.62760   3 ;    H8R-   C18-   C17-   H7S
  8045   8044   8047   8050      9     0.00   0.66944   3 ;    H8R-   C18-   C17-   C16
  8046   8044   8047   8048      9     0.00   0.62760   3 ;    H8S-   C18-   C17-   H7R
  8046   8044   8047   8049      9     0.00   0.62760   3 ;    H8S-   C18-   C17-   H7S
  8046   8044   8047   8050      9     0.00   0.66944   3 ;    H8S-   C18-   C17-   C16
  8047   8050   8053   8054      9     0.00   0.66944   3 ;    C17-   C16-   C15-   H5R
  8047   8050   8053   8055      9     0.00   0.66944   3 ;    C17-   C16-   C15-   H5S
  8047   8050   8053   8056      9     0.00   0.41840   1 ;    C17-   C16-   C15-   C14
  8047   8050   8053   8056      9     0.00   0.41840   2 ;    C17-   C16-   C15-   C14
  8047   8050   8053   8056      9     0.00   0.41840   4 ;    C17-   C16-   C15-   C14
  8047   8050   8053   8056      9     0.00   0.41840   5 ;    C17-   C16-   C15-   C14
  8047   8050   8053   8056      9     0.00   1.25520   3 ;    C17-   C16-   C15-   C14
  8048   8047   8050   8051      9     0.00   0.62760   3 ;    H7R-   C17-   C16-   H6R
  8048   8047   8050   8052      9     0.00   0.62760   3 ;    H7R-   C17-   C16-   H6S
  8048   8047   8050   8053      9     0.00   0.66944   3 ;    H7R-   C17-   C16-   C15
  8049   8047   8050   8051      9     0.00   0.62760   3 ;    H7S-   C17-   C16-   H6R
  8049   8047   8050   8052      9     0.00   0.62760   3 ;    H7S-   C17-   C16-   H6S
  8049   8047   8050   8053      9     0.00   0.66944   3 ;    H7S-   C17-   C16-   C15
  8050   8053   8056   8057      9     0.00   0.66944   3 ;    C16-   C15-   C14-   H4R
  8050   8053   8056   8058      9     0.00   0.66944   3 ;    C16-   C15-   C14-   H4S
  8050   8053   8056   8059      9     0.00   0.41840   1 ;    C16-   C15-   C14-   C13
  8050   8053   8056   8059      9     0.00   0.41840   2 ;    C16-   C15-   C14-   C13
  8050   8053   8056   8059      9     0.00   0.41840   4 ;    C16-   C15-   C14-   C13
  8050   8053   8056   8059      9     0.00   0.41840   5 ;    C16-   C15-   C14-   C13
  8050   8053   8056   8059      9     0.00   1.25520   3 ;    C16-   C15-   C14-   C13
  8051   8050   8053   8054      9     0.00   0.62760   3 ;    H6R-   C16-   C15-   H5R
  8051   8050   8053   8055      9     0.00   0.62760   3 ;    H6R-   C16-   C15-   H5S
  8051   8050   8053   8056      9     0.00   0.66944   3 ;    H6R-   C16-   C15-   C14
  8052   8050   8053   8054      9     0.00   0.62760   3 ;    H6S-   C16-   C15-   H5R
  8052   8050   8053   8055      9     0.00   0.62760   3 ;    H6S-   C16-   C15-   H5S
  8052   8050   8053   8056      9     0.00   0.66944   3 ;    H6S-   C16-   C15-   C14
  8053   8056   8059   8060      9     0.00   0.66944   3 ;    C15-   C14-   C13-   H3R
  8053   8056   8059   8061      9     0.00   0.66944   3 ;    C15-   C14-   C13-   H3S
  8053   8056   8059   8062      9     0.00   0.41840   1 ;    C15-   C14-   C13-   C12
  8053   8056   8059   8062      9     0.00   0.41840   2 ;    C15-   C14-   C13-   C12
  8053   8056   8059   8062      9     0.00   0.41840   4 ;    C15-   C14-   C13-   C12
  8053   8056   8059   8062      9     0.00   0.41840   5 ;    C15-   C14-   C13-   C12
  8053   8056   8059   8062      9     0.00   1.25520   3 ;    C15-   C14-   C13-   C12
  8054   8053   8056   8057      9     0.00   0.62760   3 ;    H5R-   C15-   C14-   H4R
  8054   8053   8056   8058      9     0.00   0.62760   3 ;    H5R-   C15-   C14-   H4S
  8054   8053   8056   8059      9     0.00   0.66944   3 ;    H5R-   C15-   C14-   C13
  8055   8053   8056   8057      9     0.00   0.62760   3 ;    H5S-   C15-   C14-   H4R
  8055   8053   8056   8058      9     0.00   0.62760   3 ;    H5S-   C15-   C14-   H4S
  8055   8053   8056   8059      9     0.00   0.66944   3 ;    H5S-   C15-   C14-   C13
  8056   8059   8062   8063      9     0.00   0.66944   3 ;    C14-   C13-   C12-   H2R
  8056   8059   8062   8064      9     0.00   0.66944   3 ;    C14-   C13-   C12-   H2S
  8056   8059   8062   8065      9     0.00   0.65270   3 ;    C14-   C13-   C12-   C11
  8057   8056   8059   8060      9     0.00   0.62760   3 ;    H4R-   C14-   C13-   H3R
  8057   8056   8059   8061      9     0.00   0.62760   3 ;    H4R-   C14-   C13-   H3S
  8057   8056   8059   8062      9     0.00   0.66944   3 ;    H4R-   C14-   C13-   C12
  8058   8056   8059   8060      9     0.00   0.62760   3 ;    H4S-   C14-   C13-   H3R
  8058   8056   8059   8061      9     0.00   0.62760   3 ;    H4S-   C14-   C13-   H3S
  8058   8056   8059   8062      9     0.00   0.66944   3 ;    H4S-   C14-   C13-   C12
  8059   8062   8065   8066      9   180.00   0.00000   2 ;    C13-   C12-   C11-   O12
  8059   8062   8065   8067      9   180.00   0.00000   2 ;    C13-   C12-   C11-   O11
  8060   8059   8062   8063      9     0.00   0.62760   3 ;    H3R-   C13-   C12-   H2R
  8060   8059   8062   8064      9     0.00   0.62760   3 ;    H3R-   C13-   C12-   H2S
  8060   8059   8062   8065      9     0.00   0.65270   3 ;    H3R-   C13-   C12-   C11
  8061   8059   8062   8063      9     0.00   0.62760   3 ;    H3S-   C13-   C12-   H2R
  8061   8059   8062   8064      9     0.00   0.62760   3 ;    H3S-   C13-   C12-   H2S
  8061   8059   8062   8065      9     0.00   0.65270   3 ;    H3S-   C13-   C12-   C11
  8062   8065   8067   8068      9   180.00  11.29680   2 ;    C12-   C11-   O11-    C1
  8063   8062   8065   8066      9     0.00   3.34720   1 ;    H2R-   C12-   C11-   O12
  8063   8062   8065   8066      9   180.00   0.33472   3 ;    H2R-   C12-   C11-   O12
  8063   8062   8065   8067      9   180.00   0.00000   2 ;    H2R-   C12-   C11-   O11
  8064   8062   8065   8066      9     0.00   3.34720   1 ;    H2S-   C12-   C11-   O12
  8064   8062   8065   8066      9   180.00   0.33472   3 ;    H2S-   C12-   C11-   O12
  8064   8062   8065   8067      9   180.00   0.00000   2 ;    H2S-   C12-   C11-   O11
  8065   8067   8068   8069      9     0.00   1.60247   3 ;    C11-   O11-    C1-    HR
  8065   8067   8068   8070      9     0.00   1.60247   3 ;    C11-   O11-    C1-    HS
  8065   8067   8068   8071      9     0.00  -0.41840   1 ;    C11-   O11-    C1-    C2
  8066   8065   8067   8068      9   180.00   5.85760   1 ;    O12-   C11-   O11-    C1
  8066   8065   8067   8068      9   180.00  11.29680   2 ;    O12-   C11-   O11-    C1
  8067   8068   8071   8072      9     0.00   0.00000   0 ;    O11-    C1-    C2-    HX
  8067   8068   8071   8072      9     0.00   1.04600   1 ;    O11-    C1-    C2-    HX
  8067   8068   8071   8073      9     0.00   0.00000   0 ;    O11-    C1-    C2-    C3
  8067   8068   8071   8073      9     0.00   0.00000   0 ;    O11-    C1-    C2-    C3
  8067   8068   8071   8073      9     0.00   0.00000   0 ;    O11-    C1-    C2-    C3
  8067   8068   8071   8073      9     0.00   0.00000   0 ;    O11-    C1-    C2-    C3
  8067   8068   8071   8073      9     0.00   0.00000   0 ;    O11-    C1-    C2-    C3
  8067   8068   8071   8100      9     0.00   1.25520   2 ;    O11-    C1-    C2-   O21
  8067   8068   8071   8100      9     0.00   4.18400   3 ;    O11-    C1-    C2-   O21
  8067   8068   8071   8100      9   180.00  -0.41840   1 ;    O11-    C1-    C2-   O21
  8068   8071   8073   8074      9     0.00   0.65270   3 ;     C1-    C2-    C3-    HA
  8068   8071   8073   8075      9     0.00   0.65270   3 ;     C1-    C2-    C3-    HB
  8068   8071   8073   8076      9   180.00   3.34720   1 ;     C1-    C2-    C3-   O31
  8068   8071   8100   8101      9     0.00  -0.41840   1 ;     C1-    C2-   O21-   C21
  8069   8068   8071   8072      9     0.00   0.65270   3 ;     HR-    C1-    C2-    HX
  8069   8068   8071   8073      9     0.00   0.65270   3 ;     HR-    C1-    C2-    C3
  8069   8068   8071   8100      9     0.00   0.00000   0 ;     HR-    C1-    C2-   O21
  8069   8068   8071   8100      9     0.00   1.04600   1 ;     HR-    C1-    C2-   O21
  8070   8068   8071   8072      9     0.00   0.65270   3 ;     HS-    C1-    C2-    HX
  8070   8068   8071   8073      9     0.00   0.65270   3 ;     HS-    C1-    C2-    C3
  8070   8068   8071   8100      9     0.00   0.00000   0 ;     HS-    C1-    C2-   O21
  8070   8068   8071   8100      9     0.00   1.04600   1 ;     HS-    C1-    C2-   O21
  8071   8073   8076   8077      9     0.00   0.00000   0 ;     C2-    C3-   O31-   P31
  8071   8073   8076   8077      9   180.00  -3.34720   2 ;     C2-    C3-   O31-   P31
  8071   8100   8101   8102      9   180.00   5.85760   1 ;     C2-   O21-   C21-   O22
  8071   8100   8101   8102      9   180.00  11.29680   2 ;     C2-   O21-   C21-   O22
  8071   8100   8101   8140      9   180.00  11.29680   2 ;     C2-   O21-   C21-   C12
  8072   8071   8073   8074      9     0.00   0.65270   3 ;     HX-    C2-    C3-    HA
  8072   8071   8073   8075      9     0.00   0.65270   3 ;     HX-    C2-    C3-    HB
  8072   8071   8073   8076      9     0.00   0.00000   0 ;     HX-    C2-    C3-   O31
  8072   8071   8073   8076      9     0.00   1.04600   1 ;     HX-    C2-    C3-   O31
  8072   8071   8100   8101      9     0.00   1.60247   3 ;     HX-    C2-   O21-   C21
  8073   8071   8100   8101      9     0.00  -0.41840   1 ;     C3-    C2-   O21-   C21
  8073   8076   8077   8078      9     0.00   2.51040   3 ;     C3-   O31-   P31-   O32
  8073   8076   8077   8078      9     0.00   9.62320   2 ;     C3-   O31-   P31-   O32
  8073   8076   8077   8098      9     0.00   0.00000   0 ;     C3-   O31-   P31-   O33
  8073   8076   8077   8098      9     0.00   0.00000   0 ;     C3-   O31-   P31-   O33
  8073   8076   8077   8098      9     0.00   0.00000   0 ;     C3-   O31-   P31-   O33
  8073   8076   8077   8098      9     0.00   0.00000   0 ;     C3-   O31-   P31-   O33
  8073   8076   8077   8098      9     0.00   0.83680   2 ;     C3-   O31-   P31-   O33
  8073   8076   8077   8099      9     0.00   0.00000   0 ;     C3-   O31-   P31-   O34
  8073   8076   8077   8099      9     0.00   0.00000   0 ;     C3-   O31-   P31-   O34
  8073   8076   8077   8099      9     0.00   0.00000   0 ;     C3-   O31-   P31-   O34
  8073   8076   8077   8099      9     0.00   0.00000   0 ;     C3-   O31-   P31-   O34
  8073   8076   8077   8099      9     0.00   0.83680   2 ;     C3-   O31-   P31-   O34
  8074   8073   8071   8100      9     0.00   0.00000   0 ;     HA-    C3-    C2-   O21
  8074   8073   8071   8100      9     0.00   1.04600   1 ;     HA-    C3-    C2-   O21
  8074   8073   8076   8077      9     0.00   0.00000   0 ;     HA-    C3-   O31-   P31
  8074   8073   8076   8077      9     0.00   0.00000   0 ;     HA-    C3-   O31-   P31
  8074   8073   8076   8077      9     0.00   0.00000   0 ;     HA-    C3-   O31-   P31
  8074   8073   8076   8077      9     0.00   0.00000   0 ;     HA-    C3-   O31-   P31
  8074   8073   8076   8077      9     0.00   1.60247   3 ;     HA-    C3-   O31-   P31
  8075   8073   8071   8100      9     0.00   0.00000   0 ;     HB-    C3-    C2-   O21
  8075   8073   8071   8100      9     0.00   1.04600   1 ;     HB-    C3-    C2-   O21
  8075   8073   8076   8077      9     0.00   0.00000   0 ;     HB-    C3-   O31-   P31
  8075   8073   8076   8077      9     0.00   0.00000   0 ;     HB-    C3-   O31-   P31
  8075   8073   8076   8077      9     0.00   0.00000   0 ;     HB-    C3-   O31-   P31
  8075   8073   8076   8077      9     0.00   0.00000   0 ;     HB-    C3-   O31-   P31
  8075   8073   8076   8077      9     0.00   1.60247   3 ;     HB-    C3-   O31-   P31
  8076   8073   8071   8100      9     0.00   0.00000   0 ;    O31-    C3-    C2-   O21
  8076   8073   8071   8100      9     0.00   0.00000   0 ;    O31-    C3-    C2-   O21
  8076   8073   8071   8100      9     0.00   0.00000   0 ;    O31-    C3-    C2-   O21
  8076   8073   8071   8100      9     0.00   0.00000   0 ;    O31-    C3-    C2-   O21
  8076   8073   8071   8100      9     0.00   0.00000   0 ;    O31-    C3-    C2-   O21
  8076   8077   8078   8079      9     0.00   2.51040   3 ;    O31-   P31-   O32-   C31
  8076   8077   8078   8079      9     0.00   9.62320   2 ;    O31-   P31-   O32-   C31
  8077   8078   8079   8080      9     0.00   0.00000   0 ;    P31-   O32-   C31-   H1A
  8077   8078   8079   8080      9     0.00   0.00000   0 ;    P31-   O32-   C31-   H1A
  8077   8078   8079   8080      9     0.00   0.00000   0 ;    P31-   O32-   C31-   H1A
  8077   8078   8079   8080      9     0.00   0.00000   0 ;    P31-   O32-   C31-   H1A
  8077   8078   8079   8080      9     0.00   1.60247   3 ;    P31-   O32-   C31-   H1A
  8077   8078   8079   8081      9     0.00   0.00000   0 ;    P31-   O32-   C31-   H1B
  8077   8078   8079   8081      9     0.00   0.00000   0 ;    P31-   O32-   C31-   H1B
  8077   8078   8079   8081      9     0.00   0.00000   0 ;    P31-   O32-   C31-   H1B
  8077   8078   8079   8081      9     0.00   0.00000   0 ;    P31-   O32-   C31-   H1B
  8077   8078   8079   8081      9     0.00   1.60247   3 ;    P31-   O32-   C31-   H1B
  8077   8078   8079   8082      9     0.00   0.00000   0 ;    P31-   O32-   C31-   C32
  8077   8078   8079   8082      9   180.00  -3.34720   2 ;    P31-   O32-   C31-   C32
  8078   8079   8082   8083      9     0.00   0.65270   3 ;    O32-   C31-   C32-   H2A
  8078   8079   8082   8084      9     0.00   0.65270   3 ;    O32-   C31-   C32-   H2B
  8078   8079   8082   8085      9     0.00   4.18400   3 ;    O32-   C31-   C32-   N31
  8079   8078   8077   8098      9     0.00   0.00000   0 ;    C31-   O32-   P31-   O33
  8079   8078   8077   8098      9     0.00   0.00000   0 ;    C31-   O32-   P31-   O33
  8079   8078   8077   8098      9     0.00   0.00000   0 ;    C31-   O32-   P31-   O33
  8079   8078   8077   8098      9     0.00   0.00000   0 ;    C31-   O32-   P31-   O33
  8079   8078   8077   8098      9     0.00   0.83680   2 ;    C31-   O32-   P31-   O33
  8079   8078   8077   8099      9     0.00   0.00000   0 ;    C31-   O32-   P31-   O34
  8079   8078   8077   8099      9     0.00   0.00000   0 ;    C31-   O32-   P31-   O34
  8079   8078   8077   8099      9     0.00   0.00000   0 ;    C31-   O32-   P31-   O34
  8079   8078   8077   8099      9     0.00   0.00000   0 ;    C31-   O32-   P31-   O34
  8079   8078   8077   8099      9     0.00   0.83680   2 ;    C31-   O32-   P31-   O34
  8079   8082   8085   8086      9     0.00   0.65270   3 ;    C31-   C32-   N31-   C33
  8079   8082   8085   8090      9     0.00   0.65270   3 ;    C31-   C32-   N31-   C34
  8079   8082   8085   8094      9     0.00   0.65270   3 ;    C31-   C32-   N31-   C35
  8080   8079   8082   8083      9     0.00   0.65270   3 ;    H1A-   C31-   C32-   H2A
  8080   8079   8082   8084      9     0.00   0.65270   3 ;    H1A-   C31-   C32-   H2B
  8080   8079   8082   8085      9     0.00   0.65270   3 ;    H1A-   C31-   C32-   N31
  8081   8079   8082   8083      9     0.00   0.65270   3 ;    H1B-   C31-   C32-   H2A
  8081   8079   8082   8084      9     0.00   0.65270   3 ;    H1B-   C31-   C32-   H2B
  8081   8079   8082   8085      9     0.00   0.65270   3 ;    H1B-   C31-   C32-   N31
  8082   8085   8086   8087      9     0.00   0.65270   3 ;    C32-   N31-   C33-   H3A
  8082   8085   8086   8088      9     0.00   0.65270   3 ;    C32-   N31-   C33-   H3B
  8082   8085   8086   8089      9     0.00   0.65270   3 ;    C32-   N31-   C33-   H3C
  8082   8085   8090   8091      9     0.00   0.65270   3 ;    C32-   N31-   C34-   H4A
  8082   8085   8090   8092      9     0.00   0.65270   3 ;    C32-   N31-   C34-   H4B
  8082   8085   8090   8093      9     0.00   0.65270   3 ;    C32-   N31-   C34-   H4C
  8082   8085   8094   8095      9     0.00   0.65270   3 ;    C32-   N31-   C35-   H5A
  8082   8085   8094   8096      9     0.00   0.65270   3 ;    C32-   N31-   C35-   H5B
  8082   8085   8094   8097      9     0.00   0.65270   3 ;    C32-   N31-   C35-   H5C
  8083   8082   8085   8086      9     0.00   0.65270   3 ;    H2A-   C32-   N31-   C33
  8083   8082   8085   8090      9     0.00   0.65270   3 ;    H2A-   C32-   N31-   C34
  8083   8082   8085   8094      9     0.00   0.65270   3 ;    H2A-   C32-   N31-   C35
  8084   8082   8085   8086      9     0.00   0.65270   3 ;    H2B-   C32-   N31-   C33
  8084   8082   8085   8090      9     0.00   0.65270   3 ;    H2B-   C32-   N31-   C34
  8084   8082   8085   8094      9     0.00   0.65270   3 ;    H2B-   C32-   N31-   C35
  8086   8085   8090   8091      9     0.00   0.65270   3 ;    C33-   N31-   C34-   H4A
  8086   8085   8090   8092      9     0.00   0.65270   3 ;    C33-   N31-   C34-   H4B
  8086   8085   8090   8093      9     0.00   0.65270   3 ;    C33-   N31-   C34-   H4C
  8086   8085   8094   8095      9     0.00   0.65270   3 ;    C33-   N31-   C35-   H5A
  8086   8085   8094   8096      9     0.00   0.65270   3 ;    C33-   N31-   C35-   H5B
  8086   8085   8094   8097      9     0.00   0.65270   3 ;    C33-   N31-   C35-   H5C
  8087   8086   8085   8090      9     0.00   0.65270   3 ;    H3A-   C33-   N31-   C34
  8087   8086   8085   8094      9     0.00   0.65270   3 ;    H3A-   C33-   N31-   C35
  8088   8086   8085   8090      9     0.00   0.65270   3 ;    H3B-   C33-   N31-   C34
  8088   8086   8085   8094      9     0.00   0.65270   3 ;    H3B-   C33-   N31-   C35
  8089   8086   8085   8090      9     0.00   0.65270   3 ;    H3C-   C33-   N31-   C34
  8089   8086   8085   8094      9     0.00   0.65270   3 ;    H3C-   C33-   N31-   C35
  8090   8085   8094   8095      9     0.00   0.65270   3 ;    C34-   N31-   C35-   H5A
  8090   8085   8094   8096      9     0.00   0.65270   3 ;    C34-   N31-   C35-   H5B
  8090   8085   8094   8097      9     0.00   0.65270   3 ;    C34-   N31-   C35-   H5C
  8091   8090   8085   8094      9     0.00   0.65270   3 ;    H4A-   C34-   N31-   C35
  8092   8090   8085   8094      9     0.00   0.65270   3 ;    H4B-   C34-   N31-   C35
  8093   8090   8085   8094      9     0.00   0.65270   3 ;    H4C-   C34-   N31-   C35
  8100   8101   8140   8137      9   180.00   0.00000   2 ;    O21-   C21-   C12-   C13
  8100   8101   8140   8141      9   180.00   0.00000   2 ;    O21-   C21-   C12-   H2R
  8100   8101   8140   8142      9   180.00   0.00000   2 ;    O21-   C21-   C12-   H2S
  8101   8140   8137   8134      9     0.00   0.65270   3 ;    C21-   C12-   C13-   C14
  8101   8140   8137   8138      9     0.00   0.65270   3 ;    C21-   C12-   C13-   H3R
  8101   8140   8137   8139      9     0.00   0.65270   3 ;    C21-   C12-   C13-   H3S
  8102   8101   8140   8137      9   180.00   0.00000   2 ;    O22-   C21-   C12-   C13
  8102   8101   8140   8141      9     0.00   3.34720   1 ;    O22-   C21-   C12-   H2R
  8102   8101   8140   8141      9   180.00   0.33472   3 ;    O22-   C21-   C12-   H2R
  8102   8101   8140   8142      9     0.00   3.34720   1 ;    O22-   C21-   C12-   H2S
  8102   8101   8140   8142      9   180.00   0.33472   3 ;    O22-   C21-   C12-   H2S
  8103   8104   8107   8108      9     0.00   0.62760   3 ;   H14T-  C114-  C113-  H13R
  8103   8104   8107   8109      9     0.00   0.62760   3 ;   H14T-  C114-  C113-  H13S
  8103   8104   8107   8110      9     0.00   0.66944   3 ;   H14T-  C114-  C113-  C112
  8104   8107   8110   8111      9     0.00   0.66944   3 ;   C114-  C113-  C112-  H12R
  8104   8107   8110   8112      9     0.00   0.66944   3 ;   C114-  C113-  C112-  H12S
  8104   8107   8110   8113      9     0.00   0.41840   1 ;   C114-  C113-  C112-  C111
  8104   8107   8110   8113      9     0.00   0.41840   2 ;   C114-  C113-  C112-  C111
  8104   8107   8110   8113      9     0.00   0.41840   4 ;   C114-  C113-  C112-  C111
  8104   8107   8110   8113      9     0.00   0.41840   5 ;   C114-  C113-  C112-  C111
  8104   8107   8110   8113      9     0.00   1.25520   3 ;   C114-  C113-  C112-  C111
  8105   8104   8107   8108      9     0.00   0.62760   3 ;   H14R-  C114-  C113-  H13R
  8105   8104   8107   8109      9     0.00   0.62760   3 ;   H14R-  C114-  C113-  H13S
  8105   8104   8107   8110      9     0.00   0.66944   3 ;   H14R-  C114-  C113-  C112
  8106   8104   8107   8108      9     0.00   0.62760   3 ;   H14S-  C114-  C113-  H13R
  8106   8104   8107   8109      9     0.00   0.62760   3 ;   H14S-  C114-  C113-  H13S
  8106   8104   8107   8110      9     0.00   0.66944   3 ;   H14S-  C114-  C113-  C112
  8107   8110   8113   8114      9     0.00   0.66944   3 ;   C113-  C112-  C111-  H11R
  8107   8110   8113   8115      9     0.00   0.66944   3 ;   C113-  C112-  C111-  H11S
  8107   8110   8113   8116      9     0.00   0.41840   1 ;   C113-  C112-  C111-  C110
  8107   8110   8113   8116      9     0.00   0.41840   2 ;   C113-  C112-  C111-  C110
  8107   8110   8113   8116      9     0.00   0.41840   4 ;   C113-  C112-  C111-  C110
  8107   8110   8113   8116      9     0.00   0.41840   5 ;   C113-  C112-  C111-  C110
  8107   8110   8113   8116      9     0.00   1.25520   3 ;   C113-  C112-  C111-  C110
  8108   8107   8110   8111      9     0.00   0.62760   3 ;   H13R-  C113-  C112-  H12R
  8108   8107   8110   8112      9     0.00   0.62760   3 ;   H13R-  C113-  C112-  H12S
  8108   8107   8110   8113      9     0.00   0.66944   3 ;   H13R-  C113-  C112-  C111
  8109   8107   8110   8111      9     0.00   0.62760   3 ;   H13S-  C113-  C112-  H12R
  8109   8107   8110   8112      9     0.00   0.62760   3 ;   H13S-  C113-  C112-  H12S
  8109   8107   8110   8113      9     0.00   0.66944   3 ;   H13S-  C113-  C112-  C111
  8110   8113   8116   8117      9     0.00   0.66944   3 ;   C112-  C111-  C110-  H10R
  8110   8113   8116   8118      9     0.00   0.66944   3 ;   C112-  C111-  C110-  H10S
  8110   8113   8116   8119      9     0.00   0.41840   1 ;   C112-  C111-  C110-   C19
  8110   8113   8116   8119      9     0.00   0.41840   2 ;   C112-  C111-  C110-   C19
  8110   8113   8116   8119      9     0.00   0.41840   4 ;   C112-  C111-  C110-   C19
  8110   8113   8116   8119      9     0.00   0.41840   5 ;   C112-  C111-  C110-   C19
  8110   8113   8116   8119      9     0.00   1.25520   3 ;   C112-  C111-  C110-   C19
  8111   8110   8113   8114      9     0.00   0.62760   3 ;   H12R-  C112-  C111-  H11R
  8111   8110   8113   8115      9     0.00   0.62760   3 ;   H12R-  C112-  C111-  H11S
  8111   8110   8113   8116      9     0.00   0.66944   3 ;   H12R-  C112-  C111-  C110
  8112   8110   8113   8114      9     0.00   0.62760   3 ;   H12S-  C112-  C111-  H11R
  8112   8110   8113   8115      9     0.00   0.62760   3 ;   H12S-  C112-  C111-  H11S
  8112   8110   8113   8116      9     0.00   0.66944   3 ;   H12S-  C112-  C111-  C110
  8113   8116   8119   8120      9     0.00   0.66944   3 ;   C111-  C110-   C19-   H9R
  8113   8116   8119   8121      9     0.00   0.66944   3 ;   C111-  C110-   C19-   H9S
  8113   8116   8119   8122      9     0.00   0.41840   1 ;   C111-  C110-   C19-   C18
  8113   8116   8119   8122      9     0.00   0.41840   2 ;   C111-  C110-   C19-   C18
  8113   8116   8119   8122      9     0.00   0.41840   4 ;   C111-  C110-   C19-   C18
  8113   8116   8119   8122      9     0.00   0.41840   5 ;   C111-  C110-   C19-   C18
  8113   8116   8119   8122      9     0.00   1.25520   3 ;   C111-  C110-   C19-   C18
  8114   8113   8116   8117      9     0.00   0.62760   3 ;   H11R-  C111-  C110-  H10R
  8114   8113   8116   8118      9     0.00   0.62760   3 ;   H11R-  C111-  C110-  H10S
  8114   8113   8116   8119      9     0.00   0.66944   3 ;   H11R-  C111-  C110-   C19
  8115   8113   8116   8117      9     0.00   0.62760   3 ;   H11S-  C111-  C110-  H10R
  8115   8113   8116   8118      9     0.00   0.62760   3 ;   H11S-  C111-  C110-  H10S
  8115   8113   8116   8119      9     0.00   0.66944   3 ;   H11S-  C111-  C110-   C19
  8116   8119   8122   8123      9     0.00   0.66944   3 ;   C110-   C19-   C18-   H8R
  8116   8119   8122   8124      9     0.00   0.66944   3 ;   C110-   C19-   C18-   H8S
  8116   8119   8122   8125      9     0.00   0.41840   1 ;   C110-   C19-   C18-   C17
  8116   8119   8122   8125      9     0.00   0.41840   2 ;   C110-   C19-   C18-   C17
  8116   8119   8122   8125      9     0.00   0.41840   4 ;   C110-   C19-   C18-   C17
  8116   8119   8122   8125      9     0.00   0.41840   5 ;   C110-   C19-   C18-   C17
  8116   8119   8122   8125      9     0.00   1.25520   3 ;   C110-   C19-   C18-   C17
  8117   8116   8119   8120      9     0.00   0.62760   3 ;   H10R-  C110-   C19-   H9R
  8117   8116   8119   8121      9     0.00   0.62760   3 ;   H10R-  C110-   C19-   H9S
  8117   8116   8119   8122      9     0.00   0.66944   3 ;   H10R-  C110-   C19-   C18
  8118   8116   8119   8120      9     0.00   0.62760   3 ;   H10S-  C110-   C19-   H9R
  8118   8116   8119   8121      9     0.00   0.62760   3 ;   H10S-  C110-   C19-   H9S
  8118   8116   8119   8122      9     0.00   0.66944   3 ;   H10S-  C110-   C19-   C18
  8119   8122   8125   8126      9     0.00   0.66944   3 ;    C19-   C18-   C17-   H7R
  8119   8122   8125   8127      9     0.00   0.66944   3 ;    C19-   C18-   C17-   H7S
  8119   8122   8125   8128      9     0.00   0.41840   1 ;    C19-   C18-   C17-   C16
  8119   8122   8125   8128      9     0.00   0.41840   2 ;    C19-   C18-   C17-   C16
  8119   8122   8125   8128      9     0.00   0.41840   4 ;    C19-   C18-   C17-   C16
  8119   8122   8125   8128      9     0.00   0.41840   5 ;    C19-   C18-   C17-   C16
  8119   8122   8125   8128      9     0.00   1.25520   3 ;    C19-   C18-   C17-   C16
  8120   8119   8122   8123      9     0.00   0.62760   3 ;    H9R-   C19-   C18-   H8R
  8120   8119   8122   8124      9     0.00   0.62760   3 ;    H9R-   C19-   C18-   H8S
  8120   8119   8122   8125      9     0.00   0.66944   3 ;    H9R-   C19-   C18-   C17
  8121   8119   8122   8123      9     0.00   0.62760   3 ;    H9S-   C19-   C18-   H8R
  8121   8119   8122   8124      9     0.00   0.62760   3 ;    H9S-   C19-   C18-   H8S
  8121   8119   8122   8125      9     0.00   0.66944   3 ;    H9S-   C19-   C18-   C17
  8122   8125   8128   8129      9     0.00   0.66944   3 ;    C18-   C17-   C16-   H6R
  8122   8125   8128   8130      9     0.00   0.66944   3 ;    C18-   C17-   C16-   H6S
  8122   8125   8128   8131      9     0.00   0.41840   1 ;    C18-   C17-   C16-   C15
  8122   8125   8128   8131      9     0.00   0.41840   2 ;    C18-   C17-   C16-   C15
  8122   8125   8128   8131      9     0.00   0.41840   4 ;    C18-   C17-   C16-   C15
  8122   8125   8128   8131      9     0.00   0.41840   5 ;    C18-   C17-   C16-   C15
  8122   8125   8128   8131      9     0.00   1.25520   3 ;    C18-   C17-   C16-   C15
  8123   8122   8125   8126      9     0.00   0.62760   3 ;    H8R-   C18-   C17-   H7R
  8123   8122   8125   8127      9     0.00   0.62760   3 ;    H8R-   C18-   C17-   H7S
  8123   8122   8125   8128      9     0.00   0.66944   3 ;    H8R-   C18-   C17-   C16
  8124   8122   8125   8126      9     0.00   0.62760   3 ;    H8S-   C18-   C17-   H7R
  8124   8122   8125   8127      9     0.00   0.62760   3 ;    H8S-   C18-   C17-   H7S
  8124   8122   8125   8128      9     0.00   0.66944   3 ;    H8S-   C18-   C17-   C16
  8125   8128   8131   8132      9     0.00   0.66944   3 ;    C17-   C16-   C15-   H5R
  8125   8128   8131   8133      9     0.00   0.66944   3 ;    C17-   C16-   C15-   H5S
  8125   8128   8131   8134      9     0.00   0.41840   1 ;    C17-   C16-   C15-   C14
  8125   8128   8131   8134      9     0.00   0.41840   2 ;    C17-   C16-   C15-   C14
  8125   8128   8131   8134      9     0.00   0.41840   4 ;    C17-   C16-   C15-   C14
  8125   8128   8131   8134      9     0.00   0.41840   5 ;    C17-   C16-   C15-   C14
  8125   8128   8131   8134      9     0.00   1.25520   3 ;    C17-   C16-   C15-   C14
  8126   8125   8128   8129      9     0.00   0.62760   3 ;    H7R-   C17-   C16-   H6R
  8126   8125   8128   8130      9     0.00   0.62760   3 ;    H7R-   C17-   C16-   H6S
  8126   8125   8128   8131      9     0.00   0.66944   3 ;    H7R-   C17-   C16-   C15
  8127   8125   8128   8129      9     0.00   0.62760   3 ;    H7S-   C17-   C16-   H6R
  8127   8125   8128   8130      9     0.00   0.62760   3 ;    H7S-   C17-   C16-   H6S
  8127   8125   8128   8131      9     0.00   0.66944   3 ;    H7S-   C17-   C16-   C15
  8128   8131   8134   8135      9     0.00   0.66944   3 ;    C16-   C15-   C14-   H4R
  8128   8131   8134   8136      9     0.00   0.66944   3 ;    C16-   C15-   C14-   H4S
  8128   8131   8134   8137      9     0.00   0.41840   1 ;    C16-   C15-   C14-   C13
  8128   8131   8134   8137      9     0.00   0.41840   2 ;    C16-   C15-   C14-   C13
  8128   8131   8134   8137      9     0.00   0.41840   4 ;    C16-   C15-   C14-   C13
  8128   8131   8134   8137      9     0.00   0.41840   5 ;    C16-   C15-   C14-   C13
  8128   8131   8134   8137      9     0.00   1.25520   3 ;    C16-   C15-   C14-   C13
  8129   8128   8131   8132      9     0.00   0.62760   3 ;    H6R-   C16-   C15-   H5R
  8129   8128   8131   8133      9     0.00   0.62760   3 ;    H6R-   C16-   C15-   H5S
  8129   8128   8131   8134      9     0.00   0.66944   3 ;    H6R-   C16-   C15-   C14
  8130   8128   8131   8132      9     0.00   0.62760   3 ;    H6S-   C16-   C15-   H5R
  8130   8128   8131   8133      9     0.00   0.62760   3 ;    H6S-   C16-   C15-   H5S
  8130   8128   8131   8134      9     0.00   0.66944   3 ;    H6S-   C16-   C15-   C14
  8131   8134   8137   8138      9     0.00   0.66944   3 ;    C15-   C14-   C13-   H3R
  8131   8134   8137   8139      9     0.00   0.66944   3 ;    C15-   C14-   C13-   H3S
  8131   8134   8137   8140      9     0.00   0.41840   1 ;    C15-   C14-   C13-   C12
  8131   8134   8137   8140      9     0.00   0.41840   2 ;    C15-   C14-   C13-   C12
  8131   8134   8137   8140      9     0.00   0.41840   4 ;    C15-   C14-   C13-   C12
  8131   8134   8137   8140      9     0.00   0.41840   5 ;    C15-   C14-   C13-   C12
  8131   8134   8137   8140      9     0.00   1.25520   3 ;    C15-   C14-   C13-   C12
  8132   8131   8134   8135      9     0.00   0.62760   3 ;    H5R-   C15-   C14-   H4R
  8132   8131   8134   8136      9     0.00   0.62760   3 ;    H5R-   C15-   C14-   H4S
  8132   8131   8134   8137      9     0.00   0.66944   3 ;    H5R-   C15-   C14-   C13
  8133   8131   8134   8135      9     0.00   0.62760   3 ;    H5S-   C15-   C14-   H4R
  8133   8131   8134   8136      9     0.00   0.62760   3 ;    H5S-   C15-   C14-   H4S
  8133   8131   8134   8137      9     0.00   0.66944   3 ;    H5S-   C15-   C14-   C13
  8134   8137   8140   8141      9     0.00   0.66944   3 ;    C14-   C13-   C12-   H2R
  8134   8137   8140   8142      9     0.00   0.66944   3 ;    C14-   C13-   C12-   H2S
  8135   8134   8137   8138      9     0.00   0.62760   3 ;    H4R-   C14-   C13-   H3R
  8135   8134   8137   8139      9     0.00   0.62760   3 ;    H4R-   C14-   C13-   H3S
  8135   8134   8137   8140      9     0.00   0.66944   3 ;    H4R-   C14-   C13-   C12
  8136   8134   8137   8138      9     0.00   0.62760   3 ;    H4S-   C14-   C13-   H3R
  8136   8134   8137   8139      9     0.00   0.62760   3 ;    H4S-   C14-   C13-   H3S
  8136   8134   8137   8140      9     0.00   0.66944   3 ;    H4S-   C14-   C13-   C12
  8138   8137   8140   8141      9     0.00   0.62760   3 ;    H3R-   C13-   C12-   H2R
  8138   8137   8140   8142      9     0.00   0.62760   3 ;    H3R-   C13-   C12-   H2S
  8139   8137   8140   8141      9     0.00   0.62760   3 ;    H3S-   C13-   C12-   H2R
  8139   8137   8140   8142      9     0.00   0.62760   3 ;    H3S-   C13-   C12-   H2S
  8143   8144   8147   8148      9     0.00   0.62760   3 ;   H14T-  C114-  C113-  H13R
  8143   8144   8147   8149      9     0.00   0.62760   3 ;   H14T-  C114-  C113-  H13S
  8143   8144   8147   8150      9     0.00   0.66944   3 ;   H14T-  C114-  C113-  C112
  8144   8147   8150   8151      9     0.00   0.66944   3 ;   C114-  C113-  C112-  H12R
  8144   8147   8150   8152      9     0.00   0.66944   3 ;   C114-  C113-  C112-  H12S
  8144   8147   8150   8153      9     0.00   0.41840   1 ;   C114-  C113-  C112-  C111
  8144   8147   8150   8153      9     0.00   0.41840   2 ;   C114-  C113-  C112-  C111
  8144   8147   8150   8153      9     0.00   0.41840   4 ;   C114-  C113-  C112-  C111
  8144   8147   8150   8153      9     0.00   0.41840   5 ;   C114-  C113-  C112-  C111
  8144   8147   8150   8153      9     0.00   1.25520   3 ;   C114-  C113-  C112-  C111
  8145   8144   8147   8148      9     0.00   0.62760   3 ;   H14R-  C114-  C113-  H13R
  8145   8144   8147   8149      9     0.00   0.62760   3 ;   H14R-  C114-  C113-  H13S
  8145   8144   8147   8150      9     0.00   0.66944   3 ;   H14R-  C114-  C113-  C112
  8146   8144   8147   8148      9     0.00   0.62760   3 ;   H14S-  C114-  C113-  H13R
  8146   8144   8147   8149      9     0.00   0.62760   3 ;   H14S-  C114-  C113-  H13S
  8146   8144   8147   8150      9     0.00   0.66944   3 ;   H14S-  C114-  C113-  C112
  8147   8150   8153   8154      9     0.00   0.66944   3 ;   C113-  C112-  C111-  H11R
  8147   8150   8153   8155      9     0.00   0.66944   3 ;   C113-  C112-  C111-  H11S
  8147   8150   8153   8156      9     0.00   0.41840   1 ;   C113-  C112-  C111-  C110
  8147   8150   8153   8156      9     0.00   0.41840   2 ;   C113-  C112-  C111-  C110
  8147   8150   8153   8156      9     0.00   0.41840   4 ;   C113-  C112-  C111-  C110
  8147   8150   8153   8156      9     0.00   0.41840   5 ;   C113-  C112-  C111-  C110
  8147   8150   8153   8156      9     0.00   1.25520   3 ;   C113-  C112-  C111-  C110
  8148   8147   8150   8151      9     0.00   0.62760   3 ;   H13R-  C113-  C112-  H12R
  8148   8147   8150   8152      9     0.00   0.62760   3 ;   H13R-  C113-  C112-  H12S
  8148   8147   8150   8153      9     0.00   0.66944   3 ;   H13R-  C113-  C112-  C111
  8149   8147   8150   8151      9     0.00   0.62760   3 ;   H13S-  C113-  C112-  H12R
  8149   8147   8150   8152      9     0.00   0.62760   3 ;   H13S-  C113-  C112-  H12S
  8149   8147   8150   8153      9     0.00   0.66944   3 ;   H13S-  C113-  C112-  C111
  8150   8153   8156   8157      9     0.00   0.66944   3 ;   C112-  C111-  C110-  H10R
  8150   8153   8156   8158      9     0.00   0.66944   3 ;   C112-  C111-  C110-  H10S
  8150   8153   8156   8159      9     0.00   0.41840   1 ;   C112-  C111-  C110-   C19
  8150   8153   8156   8159      9     0.00   0.41840   2 ;   C112-  C111-  C110-   C19
  8150   8153   8156   8159      9     0.00   0.41840   4 ;   C112-  C111-  C110-   C19
  8150   8153   8156   8159      9     0.00   0.41840   5 ;   C112-  C111-  C110-   C19
  8150   8153   8156   8159      9     0.00   1.25520   3 ;   C112-  C111-  C110-   C19
  8151   8150   8153   8154      9     0.00   0.62760   3 ;   H12R-  C112-  C111-  H11R
  8151   8150   8153   8155      9     0.00   0.62760   3 ;   H12R-  C112-  C111-  H11S
  8151   8150   8153   8156      9     0.00   0.66944   3 ;   H12R-  C112-  C111-  C110
  8152   8150   8153   8154      9     0.00   0.62760   3 ;   H12S-  C112-  C111-  H11R
  8152   8150   8153   8155      9     0.00   0.62760   3 ;   H12S-  C112-  C111-  H11S
  8152   8150   8153   8156      9     0.00   0.66944   3 ;   H12S-  C112-  C111-  C110
  8153   8156   8159   8160      9     0.00   0.66944   3 ;   C111-  C110-   C19-   H9R
  8153   8156   8159   8161      9     0.00   0.66944   3 ;   C111-  C110-   C19-   H9S
  8153   8156   8159   8162      9     0.00   0.41840   1 ;   C111-  C110-   C19-   C18
  8153   8156   8159   8162      9     0.00   0.41840   2 ;   C111-  C110-   C19-   C18
  8153   8156   8159   8162      9     0.00   0.41840   4 ;   C111-  C110-   C19-   C18
  8153   8156   8159   8162      9     0.00   0.41840   5 ;   C111-  C110-   C19-   C18
  8153   8156   8159   8162      9     0.00   1.25520   3 ;   C111-  C110-   C19-   C18
  8154   8153   8156   8157      9     0.00   0.62760   3 ;   H11R-  C111-  C110-  H10R
  8154   8153   8156   8158      9     0.00   0.62760   3 ;   H11R-  C111-  C110-  H10S
  8154   8153   8156   8159      9     0.00   0.66944   3 ;   H11R-  C111-  C110-   C19
  8155   8153   8156   8157      9     0.00   0.62760   3 ;   H11S-  C111-  C110-  H10R
  8155   8153   8156   8158      9     0.00   0.62760   3 ;   H11S-  C111-  C110-  H10S
  8155   8153   8156   8159      9     0.00   0.66944   3 ;   H11S-  C111-  C110-   C19
  8156   8159   8162   8163      9     0.00   0.66944   3 ;   C110-   C19-   C18-   H8R
  8156   8159   8162   8164      9     0.00   0.66944   3 ;   C110-   C19-   C18-   H8S
  8156   8159   8162   8165      9     0.00   0.41840   1 ;   C110-   C19-   C18-   C17
  8156   8159   8162   8165      9     0.00   0.41840   2 ;   C110-   C19-   C18-   C17
  8156   8159   8162   8165      9     0.00   0.41840   4 ;   C110-   C19-   C18-   C17
  8156   8159   8162   8165      9     0.00   0.41840   5 ;   C110-   C19-   C18-   C17
  8156   8159   8162   8165      9     0.00   1.25520   3 ;   C110-   C19-   C18-   C17
  8157   8156   8159   8160      9     0.00   0.62760   3 ;   H10R-  C110-   C19-   H9R
  8157   8156   8159   8161      9     0.00   0.62760   3 ;   H10R-  C110-   C19-   H9S
  8157   8156   8159   8162      9     0.00   0.66944   3 ;   H10R-  C110-   C19-   C18
  8158   8156   8159   8160      9     0.00   0.62760   3 ;   H10S-  C110-   C19-   H9R
  8158   8156   8159   8161      9     0.00   0.62760   3 ;   H10S-  C110-   C19-   H9S
  8158   8156   8159   8162      9     0.00   0.66944   3 ;   H10S-  C110-   C19-   C18
  8159   8162   8165   8166      9     0.00   0.66944   3 ;    C19-   C18-   C17-   H7R
  8159   8162   8165   8167      9     0.00   0.66944   3 ;    C19-   C18-   C17-   H7S
  8159   8162   8165   8168      9     0.00   0.41840   1 ;    C19-   C18-   C17-   C16
  8159   8162   8165   8168      9     0.00   0.41840   2 ;    C19-   C18-   C17-   C16
  8159   8162   8165   8168      9     0.00   0.41840   4 ;    C19-   C18-   C17-   C16
  8159   8162   8165   8168      9     0.00   0.41840   5 ;    C19-   C18-   C17-   C16
  8159   8162   8165   8168      9     0.00   1.25520   3 ;    C19-   C18-   C17-   C16
  8160   8159   8162   8163      9     0.00   0.62760   3 ;    H9R-   C19-   C18-   H8R
  8160   8159   8162   8164      9     0.00   0.62760   3 ;    H9R-   C19-   C18-   H8S
  8160   8159   8162   8165      9     0.00   0.66944   3 ;    H9R-   C19-   C18-   C17
  8161   8159   8162   8163      9     0.00   0.62760   3 ;    H9S-   C19-   C18-   H8R
  8161   8159   8162   8164      9     0.00   0.62760   3 ;    H9S-   C19-   C18-   H8S
  8161   8159   8162   8165      9     0.00   0.66944   3 ;    H9S-   C19-   C18-   C17
  8162   8165   8168   8169      9     0.00   0.66944   3 ;    C18-   C17-   C16-   H6R
  8162   8165   8168   8170      9     0.00   0.66944   3 ;    C18-   C17-   C16-   H6S
  8162   8165   8168   8171      9     0.00   0.41840   1 ;    C18-   C17-   C16-   C15
  8162   8165   8168   8171      9     0.00   0.41840   2 ;    C18-   C17-   C16-   C15
  8162   8165   8168   8171      9     0.00   0.41840   4 ;    C18-   C17-   C16-   C15
  8162   8165   8168   8171      9     0.00   0.41840   5 ;    C18-   C17-   C16-   C15
  8162   8165   8168   8171      9     0.00   1.25520   3 ;    C18-   C17-   C16-   C15
  8163   8162   8165   8166      9     0.00   0.62760   3 ;    H8R-   C18-   C17-   H7R
  8163   8162   8165   8167      9     0.00   0.62760   3 ;    H8R-   C18-   C17-   H7S
  8163   8162   8165   8168      9     0.00   0.66944   3 ;    H8R-   C18-   C17-   C16
  8164   8162   8165   8166      9     0.00   0.62760   3 ;    H8S-   C18-   C17-   H7R
  8164   8162   8165   8167      9     0.00   0.62760   3 ;    H8S-   C18-   C17-   H7S
  8164   8162   8165   8168      9     0.00   0.66944   3 ;    H8S-   C18-   C17-   C16
  8165   8168   8171   8172      9     0.00   0.66944   3 ;    C17-   C16-   C15-   H5R
  8165   8168   8171   8173      9     0.00   0.66944   3 ;    C17-   C16-   C15-   H5S
  8165   8168   8171   8174      9     0.00   0.41840   1 ;    C17-   C16-   C15-   C14
  8165   8168   8171   8174      9     0.00   0.41840   2 ;    C17-   C16-   C15-   C14
  8165   8168   8171   8174      9     0.00   0.41840   4 ;    C17-   C16-   C15-   C14
  8165   8168   8171   8174      9     0.00   0.41840   5 ;    C17-   C16-   C15-   C14
  8165   8168   8171   8174      9     0.00   1.25520   3 ;    C17-   C16-   C15-   C14
  8166   8165   8168   8169      9     0.00   0.62760   3 ;    H7R-   C17-   C16-   H6R
  8166   8165   8168   8170      9     0.00   0.62760   3 ;    H7R-   C17-   C16-   H6S
  8166   8165   8168   8171      9     0.00   0.66944   3 ;    H7R-   C17-   C16-   C15
  8167   8165   8168   8169      9     0.00   0.62760   3 ;    H7S-   C17-   C16-   H6R
  8167   8165   8168   8170      9     0.00   0.62760   3 ;    H7S-   C17-   C16-   H6S
  8167   8165   8168   8171      9     0.00   0.66944   3 ;    H7S-   C17-   C16-   C15
  8168   8171   8174   8175      9     0.00   0.66944   3 ;    C16-   C15-   C14-   H4R
  8168   8171   8174   8176      9     0.00   0.66944   3 ;    C16-   C15-   C14-   H4S
  8168   8171   8174   8177      9     0.00   0.41840   1 ;    C16-   C15-   C14-   C13
  8168   8171   8174   8177      9     0.00   0.41840   2 ;    C16-   C15-   C14-   C13
  8168   8171   8174   8177      9     0.00   0.41840   4 ;    C16-   C15-   C14-   C13
  8168   8171   8174   8177      9     0.00   0.41840   5 ;    C16-   C15-   C14-   C13
  8168   8171   8174   8177      9     0.00   1.25520   3 ;    C16-   C15-   C14-   C13
  8169   8168   8171   8172      9     0.00   0.62760   3 ;    H6R-   C16-   C15-   H5R
  8169   8168   8171   8173      9     0.00   0.62760   3 ;    H6R-   C16-   C15-   H5S
  8169   8168   8171   8174      9     0.00   0.66944   3 ;    H6R-   C16-   C15-   C14
  8170   8168   8171   8172      9     0.00   0.62760   3 ;    H6S-   C16-   C15-   H5R
  8170   8168   8171   8173      9     0.00   0.62760   3 ;    H6S-   C16-   C15-   H5S
  8170   8168   8171   8174      9     0.00   0.66944   3 ;    H6S-   C16-   C15-   C14
  8171   8174   8177   8178      9     0.00   0.66944   3 ;    C15-   C14-   C13-   H3R
  8171   8174   8177   8179      9     0.00   0.66944   3 ;    C15-   C14-   C13-   H3S
  8171   8174   8177   8180      9     0.00   0.41840   1 ;    C15-   C14-   C13-   C12
  8171   8174   8177   8180      9     0.00   0.41840   2 ;    C15-   C14-   C13-   C12
  8171   8174   8177   8180      9     0.00   0.41840   4 ;    C15-   C14-   C13-   C12
  8171   8174   8177   8180      9     0.00   0.41840   5 ;    C15-   C14-   C13-   C12
  8171   8174   8177   8180      9     0.00   1.25520   3 ;    C15-   C14-   C13-   C12
  8172   8171   8174   8175      9     0.00   0.62760   3 ;    H5R-   C15-   C14-   H4R
  8172   8171   8174   8176      9     0.00   0.62760   3 ;    H5R-   C15-   C14-   H4S
  8172   8171   8174   8177      9     0.00   0.66944   3 ;    H5R-   C15-   C14-   C13
  8173   8171   8174   8175      9     0.00   0.62760   3 ;    H5S-   C15-   C14-   H4R
  8173   8171   8174   8176      9     0.00   0.62760   3 ;    H5S-   C15-   C14-   H4S
  8173   8171   8174   8177      9     0.00   0.66944   3 ;    H5S-   C15-   C14-   C13
  8174   8177   8180   8181      9     0.00   0.66944   3 ;    C14-   C13-   C12-   H2R
  8174   8177   8180   8182      9     0.00   0.66944   3 ;    C14-   C13-   C12-   H2S
  8174   8177   8180   8183      9     0.00   0.65270   3 ;    C14-   C13-   C12-   C11
  8175   8174   8177   8178      9     0.00   0.62760   3 ;    H4R-   C14-   C13-   H3R
  8175   8174   8177   8179      9     0.00   0.62760   3 ;    H4R-   C14-   C13-   H3S
  8175   8174   8177   8180      9     0.00   0.66944   3 ;    H4R-   C14-   C13-   C12
  8176   8174   8177   8178      9     0.00   0.62760   3 ;    H4S-   C14-   C13-   H3R
  8176   8174   8177   8179      9     0.00   0.62760   3 ;    H4S-   C14-   C13-   H3S
  8176   8174   8177   8180      9     0.00   0.66944   3 ;    H4S-   C14-   C13-   C12
  8177   8180   8183   8184      9   180.00   0.00000   2 ;    C13-   C12-   C11-   O12
  8177   8180   8183   8185      9   180.00   0.00000   2 ;    C13-   C12-   C11-   O11
  8178   8177   8180   8181      9     0.00   0.62760   3 ;    H3R-   C13-   C12-   H2R
  8178   8177   8180   8182      9     0.00   0.62760   3 ;    H3R-   C13-   C12-   H2S
  8178   8177   8180   8183      9     0.00   0.65270   3 ;    H3R-   C13-   C12-   C11
  8179   8177   8180   8181      9     0.00   0.62760   3 ;    H3S-   C13-   C12-   H2R
  8179   8177   8180   8182      9     0.00   0.62760   3 ;    H3S-   C13-   C12-   H2S
  8179   8177   8180   8183      9     0.00   0.65270   3 ;    H3S-   C13-   C12-   C11
  8180   8183   8185   8186      9   180.00  11.29680   2 ;    C12-   C11-   O11-    C1
  8181   8180   8183   8184      9     0.00   3.34720   1 ;    H2R-   C12-   C11-   O12
  8181   8180   8183   8184      9   180.00   0.33472   3 ;    H2R-   C12-   C11-   O12
  8181   8180   8183   8185      9   180.00   0.00000   2 ;    H2R-   C12-   C11-   O11
  8182   8180   8183   8184      9     0.00   3.34720   1 ;    H2S-   C12-   C11-   O12
  8182   8180   8183   8184      9   180.00   0.33472   3 ;    H2S-   C12-   C11-   O12
  8182   8180   8183   8185      9   180.00   0.00000   2 ;    H2S-   C12-   C11-   O11
  8183   8185   8186   8187      9     0.00   1.60247   3 ;    C11-   O11-    C1-    HR
  8183   8185   8186   8188      9     0.00   1.60247   3 ;    C11-   O11-    C1-    HS
  8183   8185   8186   8189      9     0.00  -0.41840   1 ;    C11-   O11-    C1-    C2
  8184   8183   8185   8186      9   180.00   5.85760   1 ;    O12-   C11-   O11-    C1
  8184   8183   8185   8186      9   180.00  11.29680   2 ;    O12-   C11-   O11-    C1
  8185   8186   8189   8190      9     0.00   0.00000   0 ;    O11-    C1-    C2-    HX
  8185   8186   8189   8190      9     0.00   1.04600   1 ;    O11-    C1-    C2-    HX
  8185   8186   8189   8191      9     0.00   0.00000   0 ;    O11-    C1-    C2-    C3
  8185   8186   8189   8191      9     0.00   0.00000   0 ;    O11-    C1-    C2-    C3
  8185   8186   8189   8191      9     0.00   0.00000   0 ;    O11-    C1-    C2-    C3
  8185   8186   8189   8191      9     0.00   0.00000   0 ;    O11-    C1-    C2-    C3
  8185   8186   8189   8191      9     0.00   0.00000   0 ;    O11-    C1-    C2-    C3
  8185   8186   8189   8218      9     0.00   1.25520   2 ;    O11-    C1-    C2-   O21
  8185   8186   8189   8218      9     0.00   4.18400   3 ;    O11-    C1-    C2-   O21
  8185   8186   8189   8218      9   180.00  -0.41840   1 ;    O11-    C1-    C2-   O21
  8186   8189   8191   8192      9     0.00   0.65270   3 ;     C1-    C2-    C3-    HA
  8186   8189   8191   8193      9     0.00   0.65270   3 ;     C1-    C2-    C3-    HB
  8186   8189   8191   8194      9   180.00   3.34720   1 ;     C1-    C2-    C3-   O31
  8186   8189   8218   8219      9     0.00  -0.41840   1 ;     C1-    C2-   O21-   C21
  8187   8186   8189   8190      9     0.00   0.65270   3 ;     HR-    C1-    C2-    HX
  8187   8186   8189   8191      9     0.00   0.65270   3 ;     HR-    C1-    C2-    C3
  8187   8186   8189   8218      9     0.00   0.00000   0 ;     HR-    C1-    C2-   O21
  8187   8186   8189   8218      9     0.00   1.04600   1 ;     HR-    C1-    C2-   O21
  8188   8186   8189   8190      9     0.00   0.65270   3 ;     HS-    C1-    C2-    HX
  8188   8186   8189   8191      9     0.00   0.65270   3 ;     HS-    C1-    C2-    C3
  8188   8186   8189   8218      9     0.00   0.00000   0 ;     HS-    C1-    C2-   O21
  8188   8186   8189   8218      9     0.00   1.04600   1 ;     HS-    C1-    C2-   O21
  8189   8191   8194   8195      9     0.00   0.00000   0 ;     C2-    C3-   O31-   P31
  8189   8191   8194   8195      9   180.00  -3.34720   2 ;     C2-    C3-   O31-   P31
  8189   8218   8219   8220      9   180.00   5.85760   1 ;     C2-   O21-   C21-   O22
  8189   8218   8219   8220      9   180.00  11.29680   2 ;     C2-   O21-   C21-   O22
  8189   8218   8219   8258      9   180.00  11.29680   2 ;     C2-   O21-   C21-   C12
  8190   8189   8191   8192      9     0.00   0.65270   3 ;     HX-    C2-    C3-    HA
  8190   8189   8191   8193      9     0.00   0.65270   3 ;     HX-    C2-    C3-    HB
  8190   8189   8191   8194      9     0.00   0.00000   0 ;     HX-    C2-    C3-   O31
  8190   8189   8191   8194      9     0.00   1.04600   1 ;     HX-    C2-    C3-   O31
  8190   8189   8218   8219      9     0.00   1.60247   3 ;     HX-    C2-   O21-   C21
  8191   8189   8218   8219      9     0.00  -0.41840   1 ;     C3-    C2-   O21-   C21
  8191   8194   8195   8196      9     0.00   2.51040   3 ;     C3-   O31-   P31-   O32
  8191   8194   8195   8196      9     0.00   9.62320   2 ;     C3-   O31-   P31-   O32
  8191   8194   8195   8216      9     0.00   0.00000   0 ;     C3-   O31-   P31-   O33
  8191   8194   8195   8216      9     0.00   0.00000   0 ;     C3-   O31-   P31-   O33
  8191   8194   8195   8216      9     0.00   0.00000   0 ;     C3-   O31-   P31-   O33
  8191   8194   8195   8216      9     0.00   0.00000   0 ;     C3-   O31-   P31-   O33
  8191   8194   8195   8216      9     0.00   0.83680   2 ;     C3-   O31-   P31-   O33
  8191   8194   8195   8217      9     0.00   0.00000   0 ;     C3-   O31-   P31-   O34
  8191   8194   8195   8217      9     0.00   0.00000   0 ;     C3-   O31-   P31-   O34
  8191   8194   8195   8217      9     0.00   0.00000   0 ;     C3-   O31-   P31-   O34
  8191   8194   8195   8217      9     0.00   0.00000   0 ;     C3-   O31-   P31-   O34
  8191   8194   8195   8217      9     0.00   0.83680   2 ;     C3-   O31-   P31-   O34
  8192   8191   8189   8218      9     0.00   0.00000   0 ;     HA-    C3-    C2-   O21
  8192   8191   8189   8218      9     0.00   1.04600   1 ;     HA-    C3-    C2-   O21
  8192   8191   8194   8195      9     0.00   0.00000   0 ;     HA-    C3-   O31-   P31
  8192   8191   8194   8195      9     0.00   0.00000   0 ;     HA-    C3-   O31-   P31
  8192   8191   8194   8195      9     0.00   0.00000   0 ;     HA-    C3-   O31-   P31
  8192   8191   8194   8195      9     0.00   0.00000   0 ;     HA-    C3-   O31-   P31
  8192   8191   8194   8195      9     0.00   1.60247   3 ;     HA-    C3-   O31-   P31
  8193   8191   8189   8218      9     0.00   0.00000   0 ;     HB-    C3-    C2-   O21
  8193   8191   8189   8218      9     0.00   1.04600   1 ;     HB-    C3-    C2-   O21
  8193   8191   8194   8195      9     0.00   0.00000   0 ;     HB-    C3-   O31-   P31
  8193   8191   8194   8195      9     0.00   0.00000   0 ;     HB-    C3-   O31-   P31
  8193   8191   8194   8195      9     0.00   0.00000   0 ;     HB-    C3-   O31-   P31
  8193   8191   8194   8195      9     0.00   0.00000   0 ;     HB-    C3-   O31-   P31
  8193   8191   8194   8195      9     0.00   1.60247   3 ;     HB-    C3-   O31-   P31
  8194   8191   8189   8218      9     0.00   0.00000   0 ;    O31-    C3-    C2-   O21
  8194   8191   8189   8218      9     0.00   0.00000   0 ;    O31-    C3-    C2-   O21
  8194   8191   8189   8218      9     0.00   0.00000   0 ;    O31-    C3-    C2-   O21
  8194   8191   8189   8218      9     0.00   0.00000   0 ;    O31-    C3-    C2-   O21
  8194   8191   8189   8218      9     0.00   0.00000   0 ;    O31-    C3-    C2-   O21
  8194   8195   8196   8197      9     0.00   2.51040   3 ;    O31-   P31-   O32-   C31
  8194   8195   8196   8197      9     0.00   9.62320   2 ;    O31-   P31-   O32-   C31
  8195   8196   8197   8198      9     0.00   0.00000   0 ;    P31-   O32-   C31-   H1A
  8195   8196   8197   8198      9     0.00   0.00000   0 ;    P31-   O32-   C31-   H1A
  8195   8196   8197   8198      9     0.00   0.00000   0 ;    P31-   O32-   C31-   H1A
  8195   8196   8197   8198      9     0.00   0.00000   0 ;    P31-   O32-   C31-   H1A
  8195   8196   8197   8198      9     0.00   1.60247   3 ;    P31-   O32-   C31-   H1A
  8195   8196   8197   8199      9     0.00   0.00000   0 ;    P31-   O32-   C31-   H1B
  8195   8196   8197   8199      9     0.00   0.00000   0 ;    P31-   O32-   C31-   H1B
  8195   8196   8197   8199      9     0.00   0.00000   0 ;    P31-   O32-   C31-   H1B
  8195   8196   8197   8199      9     0.00   0.00000   0 ;    P31-   O32-   C31-   H1B
  8195   8196   8197   8199      9     0.00   1.60247   3 ;    P31-   O32-   C31-   H1B
  8195   8196   8197   8200      9     0.00   0.00000   0 ;    P31-   O32-   C31-   C32
  8195   8196   8197   8200      9   180.00  -3.34720   2 ;    P31-   O32-   C31-   C32
  8196   8197   8200   8201      9     0.00   0.65270   3 ;    O32-   C31-   C32-   H2A
  8196   8197   8200   8202      9     0.00   0.65270   3 ;    O32-   C31-   C32-   H2B
  8196   8197   8200   8203      9     0.00   4.18400   3 ;    O32-   C31-   C32-   N31
  8197   8196   8195   8216      9     0.00   0.00000   0 ;    C31-   O32-   P31-   O33
  8197   8196   8195   8216      9     0.00   0.00000   0 ;    C31-   O32-   P31-   O33
  8197   8196   8195   8216      9     0.00   0.00000   0 ;    C31-   O32-   P31-   O33
  8197   8196   8195   8216      9     0.00   0.00000   0 ;    C31-   O32-   P31-   O33
  8197   8196   8195   8216      9     0.00   0.83680   2 ;    C31-   O32-   P31-   O33
  8197   8196   8195   8217      9     0.00   0.00000   0 ;    C31-   O32-   P31-   O34
  8197   8196   8195   8217      9     0.00   0.00000   0 ;    C31-   O32-   P31-   O34
  8197   8196   8195   8217      9     0.00   0.00000   0 ;    C31-   O32-   P31-   O34
  8197   8196   8195   8217      9     0.00   0.00000   0 ;    C31-   O32-   P31-   O34
  8197   8196   8195   8217      9     0.00   0.83680   2 ;    C31-   O32-   P31-   O34
  8197   8200   8203   8204      9     0.00   0.65270   3 ;    C31-   C32-   N31-   C33
  8197   8200   8203   8208      9     0.00   0.65270   3 ;    C31-   C32-   N31-   C34
  8197   8200   8203   8212      9     0.00   0.65270   3 ;    C31-   C32-   N31-   C35
  8198   8197   8200   8201      9     0.00   0.65270   3 ;    H1A-   C31-   C32-   H2A
  8198   8197   8200   8202      9     0.00   0.65270   3 ;    H1A-   C31-   C32-   H2B
  8198   8197   8200   8203      9     0.00   0.65270   3 ;    H1A-   C31-   C32-   N31
  8199   8197   8200   8201      9     0.00   0.65270   3 ;    H1B-   C31-   C32-   H2A
  8199   8197   8200   8202      9     0.00   0.65270   3 ;    H1B-   C31-   C32-   H2B
  8199   8197   8200   8203      9     0.00   0.65270   3 ;    H1B-   C31-   C32-   N31
  8200   8203   8204   8205      9     0.00   0.65270   3 ;    C32-   N31-   C33-   H3A
  8200   8203   8204   8206      9     0.00   0.65270   3 ;    C32-   N31-   C33-   H3B
  8200   8203   8204   8207      9     0.00   0.65270   3 ;    C32-   N31-   C33-   H3C
  8200   8203   8208   8209      9     0.00   0.65270   3 ;    C32-   N31-   C34-   H4A
  8200   8203   8208   8210      9     0.00   0.65270   3 ;    C32-   N31-   C34-   H4B
  8200   8203   8208   8211      9     0.00   0.65270   3 ;    C32-   N31-   C34-   H4C
  8200   8203   8212   8213      9     0.00   0.65270   3 ;    C32-   N31-   C35-   H5A
  8200   8203   8212   8214      9     0.00   0.65270   3 ;    C32-   N31-   C35-   H5B
  8200   8203   8212   8215      9     0.00   0.65270   3 ;    C32-   N31-   C35-   H5C
  8201   8200   8203   8204      9     0.00   0.65270   3 ;    H2A-   C32-   N31-   C33
  8201   8200   8203   8208      9     0.00   0.65270   3 ;    H2A-   C32-   N31-   C34
  8201   8200   8203   8212      9     0.00   0.65270   3 ;    H2A-   C32-   N31-   C35
  8202   8200   8203   8204      9     0.00   0.65270   3 ;    H2B-   C32-   N31-   C33
  8202   8200   8203   8208      9     0.00   0.65270   3 ;    H2B-   C32-   N31-   C34
  8202   8200   8203   8212      9     0.00   0.65270   3 ;    H2B-   C32-   N31-   C35
  8204   8203   8208   8209      9     0.00   0.65270   3 ;    C33-   N31-   C34-   H4A
  8204   8203   8208   8210      9     0.00   0.65270   3 ;    C33-   N31-   C34-   H4B
  8204   8203   8208   8211      9     0.00   0.65270   3 ;    C33-   N31-   C34-   H4C
  8204   8203   8212   8213      9     0.00   0.65270   3 ;    C33-   N31-   C35-   H5A
  8204   8203   8212   8214      9     0.00   0.65270   3 ;    C33-   N31-   C35-   H5B
  8204   8203   8212   8215      9     0.00   0.65270   3 ;    C33-   N31-   C35-   H5C
  8205   8204   8203   8208      9     0.00   0.65270   3 ;    H3A-   C33-   N31-   C34
  8205   8204   8203   8212      9     0.00   0.65270   3 ;    H3A-   C33-   N31-   C35
  8206   8204   8203   8208      9     0.00   0.65270   3 ;    H3B-   C33-   N31-   C34
  8206   8204   8203   8212      9     0.00   0.65270   3 ;    H3B-   C33-   N31-   C35
  8207   8204   8203   8208      9     0.00   0.65270   3 ;    H3C-   C33-   N31-   C34
  8207   8204   8203   8212      9     0.00   0.65270   3 ;    H3C-   C33-   N31-   C35
  8208   8203   8212   8213      9     0.00   0.65270   3 ;    C34-   N31-   C35-   H5A
  8208   8203   8212   8214      9     0.00   0.65270   3 ;    C34-   N31-   C35-   H5B
  8208   8203   8212   8215      9     0.00   0.65270   3 ;    C34-   N31-   C35-   H5C
  8209   8208   8203   8212      9     0.00   0.65270   3 ;    H4A-   C34-   N31-   C35
  8210   8208   8203   8212      9     0.00   0.65270   3 ;    H4B-   C34-   N31-   C35
  8211   8208   8203   8212      9     0.00   0.65270   3 ;    H4C-   C34-   N31-   C35
  8218   8219   8258   8255      9   180.00   0.00000   2 ;    O21-   C21-   C12-   C13
  8218   8219   8258   8259      9   180.00   0.00000   2 ;    O21-   C21-   C12-   H2R
  8218   8219   8258   8260      9   180.00   0.00000   2 ;    O21-   C21-   C12-   H2S
  8219   8258   8255   8252      9     0.00   0.65270   3 ;    C21-   C12-   C13-   C14
  8219   8258   8255   8256      9     0.00   0.65270   3 ;    C21-   C12-   C13-   H3R
  8219   8258   8255   8257      9     0.00   0.65270   3 ;    C21-   C12-   C13-   H3S
  8220   8219   8258   8255      9   180.00   0.00000   2 ;    O22-   C21-   C12-   C13
  8220   8219   8258   8259      9     0.00   3.34720   1 ;    O22-   C21-   C12-   H2R
  8220   8219   8258   8259      9   180.00   0.33472   3 ;    O22-   C21-   C12-   H2R
  8220   8219   8258   8260      9     0.00   3.34720   1 ;    O22-   C21-   C12-   H2S
  8220   8219   8258   8260      9   180.00   0.33472   3 ;    O22-   C21-   C12-   H2S
  8221   8222   8225   8226      9     0.00   0.62760   3 ;   H14T-  C114-  C113-  H13R
  8221   8222   8225   8227      9     0.00   0.62760   3 ;   H14T-  C114-  C113-  H13S
  8221   8222   8225   8228      9     0.00   0.66944   3 ;   H14T-  C114-  C113-  C112
  8222   8225   8228   8229      9     0.00   0.66944   3 ;   C114-  C113-  C112-  H12R
  8222   8225   8228   8230      9     0.00   0.66944   3 ;   C114-  C113-  C112-  H12S
  8222   8225   8228   8231      9     0.00   0.41840   1 ;   C114-  C113-  C112-  C111
  8222   8225   8228   8231      9     0.00   0.41840   2 ;   C114-  C113-  C112-  C111
  8222   8225   8228   8231      9     0.00   0.41840   4 ;   C114-  C113-  C112-  C111
  8222   8225   8228   8231      9     0.00   0.41840   5 ;   C114-  C113-  C112-  C111
  8222   8225   8228   8231      9     0.00   1.25520   3 ;   C114-  C113-  C112-  C111
  8223   8222   8225   8226      9     0.00   0.62760   3 ;   H14R-  C114-  C113-  H13R
  8223   8222   8225   8227      9     0.00   0.62760   3 ;   H14R-  C114-  C113-  H13S
  8223   8222   8225   8228      9     0.00   0.66944   3 ;   H14R-  C114-  C113-  C112
  8224   8222   8225   8226      9     0.00   0.62760   3 ;   H14S-  C114-  C113-  H13R
  8224   8222   8225   8227      9     0.00   0.62760   3 ;   H14S-  C114-  C113-  H13S
  8224   8222   8225   8228      9     0.00   0.66944   3 ;   H14S-  C114-  C113-  C112
  8225   8228   8231   8232      9     0.00   0.66944   3 ;   C113-  C112-  C111-  H11R
  8225   8228   8231   8233      9     0.00   0.66944   3 ;   C113-  C112-  C111-  H11S
  8225   8228   8231   8234      9     0.00   0.41840   1 ;   C113-  C112-  C111-  C110
  8225   8228   8231   8234      9     0.00   0.41840   2 ;   C113-  C112-  C111-  C110
  8225   8228   8231   8234      9     0.00   0.41840   4 ;   C113-  C112-  C111-  C110
  8225   8228   8231   8234      9     0.00   0.41840   5 ;   C113-  C112-  C111-  C110
  8225   8228   8231   8234      9     0.00   1.25520   3 ;   C113-  C112-  C111-  C110
  8226   8225   8228   8229      9     0.00   0.62760   3 ;   H13R-  C113-  C112-  H12R
  8226   8225   8228   8230      9     0.00   0.62760   3 ;   H13R-  C113-  C112-  H12S
  8226   8225   8228   8231      9     0.00   0.66944   3 ;   H13R-  C113-  C112-  C111
  8227   8225   8228   8229      9     0.00   0.62760   3 ;   H13S-  C113-  C112-  H12R
  8227   8225   8228   8230      9     0.00   0.62760   3 ;   H13S-  C113-  C112-  H12S
  8227   8225   8228   8231      9     0.00   0.66944   3 ;   H13S-  C113-  C112-  C111
  8228   8231   8234   8235      9     0.00   0.66944   3 ;   C112-  C111-  C110-  H10R
  8228   8231   8234   8236      9     0.00   0.66944   3 ;   C112-  C111-  C110-  H10S
  8228   8231   8234   8237      9     0.00   0.41840   1 ;   C112-  C111-  C110-   C19
  8228   8231   8234   8237      9     0.00   0.41840   2 ;   C112-  C111-  C110-   C19
  8228   8231   8234   8237      9     0.00   0.41840   4 ;   C112-  C111-  C110-   C19
  8228   8231   8234   8237      9     0.00   0.41840   5 ;   C112-  C111-  C110-   C19
  8228   8231   8234   8237      9     0.00   1.25520   3 ;   C112-  C111-  C110-   C19
  8229   8228   8231   8232      9     0.00   0.62760   3 ;   H12R-  C112-  C111-  H11R
  8229   8228   8231   8233      9     0.00   0.62760   3 ;   H12R-  C112-  C111-  H11S
  8229   8228   8231   8234      9     0.00   0.66944   3 ;   H12R-  C112-  C111-  C110
  8230   8228   8231   8232      9     0.00   0.62760   3 ;   H12S-  C112-  C111-  H11R
  8230   8228   8231   8233      9     0.00   0.62760   3 ;   H12S-  C112-  C111-  H11S
  8230   8228   8231   8234      9     0.00   0.66944   3 ;   H12S-  C112-  C111-  C110
  8231   8234   8237   8238      9     0.00   0.66944   3 ;   C111-  C110-   C19-   H9R
  8231   8234   8237   8239      9     0.00   0.66944   3 ;   C111-  C110-   C19-   H9S
  8231   8234   8237   8240      9     0.00   0.41840   1 ;   C111-  C110-   C19-   C18
  8231   8234   8237   8240      9     0.00   0.41840   2 ;   C111-  C110-   C19-   C18
  8231   8234   8237   8240      9     0.00   0.41840   4 ;   C111-  C110-   C19-   C18
  8231   8234   8237   8240      9     0.00   0.41840   5 ;   C111-  C110-   C19-   C18
  8231   8234   8237   8240      9     0.00   1.25520   3 ;   C111-  C110-   C19-   C18
  8232   8231   8234   8235      9     0.00   0.62760   3 ;   H11R-  C111-  C110-  H10R
  8232   8231   8234   8236      9     0.00   0.62760   3 ;   H11R-  C111-  C110-  H10S
  8232   8231   8234   8237      9     0.00   0.66944   3 ;   H11R-  C111-  C110-   C19
  8233   8231   8234   8235      9     0.00   0.62760   3 ;   H11S-  C111-  C110-  H10R
  8233   8231   8234   8236      9     0.00   0.62760   3 ;   H11S-  C111-  C110-  H10S
  8233   8231   8234   8237      9     0.00   0.66944   3 ;   H11S-  C111-  C110-   C19
  8234   8237   8240   8241      9     0.00   0.66944   3 ;   C110-   C19-   C18-   H8R
  8234   8237   8240   8242      9     0.00   0.66944   3 ;   C110-   C19-   C18-   H8S
  8234   8237   8240   8243      9     0.00   0.41840   1 ;   C110-   C19-   C18-   C17
  8234   8237   8240   8243      9     0.00   0.41840   2 ;   C110-   C19-   C18-   C17
  8234   8237   8240   8243      9     0.00   0.41840   4 ;   C110-   C19-   C18-   C17
  8234   8237   8240   8243      9     0.00   0.41840   5 ;   C110-   C19-   C18-   C17
  8234   8237   8240   8243      9     0.00   1.25520   3 ;   C110-   C19-   C18-   C17
  8235   8234   8237   8238      9     0.00   0.62760   3 ;   H10R-  C110-   C19-   H9R
  8235   8234   8237   8239      9     0.00   0.62760   3 ;   H10R-  C110-   C19-   H9S
  8235   8234   8237   8240      9     0.00   0.66944   3 ;   H10R-  C110-   C19-   C18
  8236   8234   8237   8238      9     0.00   0.62760   3 ;   H10S-  C110-   C19-   H9R
  8236   8234   8237   8239      9     0.00   0.62760   3 ;   H10S-  C110-   C19-   H9S
  8236   8234   8237   8240      9     0.00   0.66944   3 ;   H10S-  C110-   C19-   C18
  8237   8240   8243   8244      9     0.00   0.66944   3 ;    C19-   C18-   C17-   H7R
  8237   8240   8243   8245      9     0.00   0.66944   3 ;    C19-   C18-   C17-   H7S
  8237   8240   8243   8246      9     0.00   0.41840   1 ;    C19-   C18-   C17-   C16
  8237   8240   8243   8246      9     0.00   0.41840   2 ;    C19-   C18-   C17-   C16
  8237   8240   8243   8246      9     0.00   0.41840   4 ;    C19-   C18-   C17-   C16
  8237   8240   8243   8246      9     0.00   0.41840   5 ;    C19-   C18-   C17-   C16
  8237   8240   8243   8246      9     0.00   1.25520   3 ;    C19-   C18-   C17-   C16
  8238   8237   8240   8241      9     0.00   0.62760   3 ;    H9R-   C19-   C18-   H8R
  8238   8237   8240   8242      9     0.00   0.62760   3 ;    H9R-   C19-   C18-   H8S
  8238   8237   8240   8243      9     0.00   0.66944   3 ;    H9R-   C19-   C18-   C17
  8239   8237   8240   8241      9     0.00   0.62760   3 ;    H9S-   C19-   C18-   H8R
  8239   8237   8240   8242      9     0.00   0.62760   3 ;    H9S-   C19-   C18-   H8S
  8239   8237   8240   8243      9     0.00   0.66944   3 ;    H9S-   C19-   C18-   C17
  8240   8243   8246   8247      9     0.00   0.66944   3 ;    C18-   C17-   C16-   H6R
  8240   8243   8246   8248      9     0.00   0.66944   3 ;    C18-   C17-   C16-   H6S
  8240   8243   8246   8249      9     0.00   0.41840   1 ;    C18-   C17-   C16-   C15
  8240   8243   8246   8249      9     0.00   0.41840   2 ;    C18-   C17-   C16-   C15
  8240   8243   8246   8249      9     0.00   0.41840   4 ;    C18-   C17-   C16-   C15
  8240   8243   8246   8249      9     0.00   0.41840   5 ;    C18-   C17-   C16-   C15
  8240   8243   8246   8249      9     0.00   1.25520   3 ;    C18-   C17-   C16-   C15
  8241   8240   8243   8244      9     0.00   0.62760   3 ;    H8R-   C18-   C17-   H7R
  8241   8240   8243   8245      9     0.00   0.62760   3 ;    H8R-   C18-   C17-   H7S
  8241   8240   8243   8246      9     0.00   0.66944   3 ;    H8R-   C18-   C17-   C16
  8242   8240   8243   8244      9     0.00   0.62760   3 ;    H8S-   C18-   C17-   H7R
  8242   8240   8243   8245      9     0.00   0.62760   3 ;    H8S-   C18-   C17-   H7S
  8242   8240   8243   8246      9     0.00   0.66944   3 ;    H8S-   C18-   C17-   C16
  8243   8246   8249   8250      9     0.00   0.66944   3 ;    C17-   C16-   C15-   H5R
  8243   8246   8249   8251      9     0.00   0.66944   3 ;    C17-   C16-   C15-   H5S
  8243   8246   8249   8252      9     0.00   0.41840   1 ;    C17-   C16-   C15-   C14
  8243   8246   8249   8252      9     0.00   0.41840   2 ;    C17-   C16-   C15-   C14
  8243   8246   8249   8252      9     0.00   0.41840   4 ;    C17-   C16-   C15-   C14
  8243   8246   8249   8252      9     0.00   0.41840   5 ;    C17-   C16-   C15-   C14
  8243   8246   8249   8252      9     0.00   1.25520   3 ;    C17-   C16-   C15-   C14
  8244   8243   8246   8247      9     0.00   0.62760   3 ;    H7R-   C17-   C16-   H6R
  8244   8243   8246   8248      9     0.00   0.62760   3 ;    H7R-   C17-   C16-   H6S
  8244   8243   8246   8249      9     0.00   0.66944   3 ;    H7R-   C17-   C16-   C15
  8245   8243   8246   8247      9     0.00   0.62760   3 ;    H7S-   C17-   C16-   H6R
  8245   8243   8246   8248      9     0.00   0.62760   3 ;    H7S-   C17-   C16-   H6S
  8245   8243   8246   8249      9     0.00   0.66944   3 ;    H7S-   C17-   C16-   C15
  8246   8249   8252   8253      9     0.00   0.66944   3 ;    C16-   C15-   C14-   H4R
  8246   8249   8252   8254      9     0.00   0.66944   3 ;    C16-   C15-   C14-   H4S
  8246   8249   8252   8255      9     0.00   0.41840   1 ;    C16-   C15-   C14-   C13
  8246   8249   8252   8255      9     0.00   0.41840   2 ;    C16-   C15-   C14-   C13
  8246   8249   8252   8255      9     0.00   0.41840   4 ;    C16-   C15-   C14-   C13
  8246   8249   8252   8255      9     0.00   0.41840   5 ;    C16-   C15-   C14-   C13
  8246   8249   8252   8255      9     0.00   1.25520   3 ;    C16-   C15-   C14-   C13
  8247   8246   8249   8250      9     0.00   0.62760   3 ;    H6R-   C16-   C15-   H5R
  8247   8246   8249   8251      9     0.00   0.62760   3 ;    H6R-   C16-   C15-   H5S
  8247   8246   8249   8252      9     0.00   0.66944   3 ;    H6R-   C16-   C15-   C14
  8248   8246   8249   8250      9     0.00   0.62760   3 ;    H6S-   C16-   C15-   H5R
  8248   8246   8249   8251      9     0.00   0.62760   3 ;    H6S-   C16-   C15-   H5S
  8248   8246   8249   8252      9     0.00   0.66944   3 ;    H6S-   C16-   C15-   C14
  8249   8252   8255   8256      9     0.00   0.66944   3 ;    C15-   C14-   C13-   H3R
  8249   8252   8255   8257      9     0.00   0.66944   3 ;    C15-   C14-   C13-   H3S
  8249   8252   8255   8258      9     0.00   0.41840   1 ;    C15-   C14-   C13-   C12
  8249   8252   8255   8258      9     0.00   0.41840   2 ;    C15-   C14-   C13-   C12
  8249   8252   8255   8258      9     0.00   0.41840   4 ;    C15-   C14-   C13-   C12
  8249   8252   8255   8258      9     0.00   0.41840   5 ;    C15-   C14-   C13-   C12
  8249   8252   8255   8258      9     0.00   1.25520   3 ;    C15-   C14-   C13-   C12
  8250   8249   8252   8253      9     0.00   0.62760   3 ;    H5R-   C15-   C14-   H4R
  8250   8249   8252   8254      9     0.00   0.62760   3 ;    H5R-   C15-   C14-   H4S
  8250   8249   8252   8255      9     0.00   0.66944   3 ;    H5R-   C15-   C14-   C13
  8251   8249   8252   8253      9     0.00   0.62760   3 ;    H5S-   C15-   C14-   H4R
  8251   8249   8252   8254      9     0.00   0.62760   3 ;    H5S-   C15-   C14-   H4S
  8251   8249   8252   8255      9     0.00   0.66944   3 ;    H5S-   C15-   C14-   C13
  8252   8255   8258   8259      9     0.00   0.66944   3 ;    C14-   C13-   C12-   H2R
  8252   8255   8258   8260      9     0.00   0.66944   3 ;    C14-   C13-   C12-   H2S
  8253   8252   8255   8256      9     0.00   0.62760   3 ;    H4R-   C14-   C13-   H3R
  8253   8252   8255   8257      9     0.00   0.62760   3 ;    H4R-   C14-   C13-   H3S
  8253   8252   8255   8258      9     0.00   0.66944   3 ;    H4R-   C14-   C13-   C12
  8254   8252   8255   8256      9     0.00   0.62760   3 ;    H4S-   C14-   C13-   H3R
  8254   8252   8255   8257      9     0.00   0.62760   3 ;    H4S-   C14-   C13-   H3S
  8254   8252   8255   8258      9     0.00   0.66944   3 ;    H4S-   C14-   C13-   C12
  8256   8255   8258   8259      9     0.00   0.62760   3 ;    H3R-   C13-   C12-   H2R
  8256   8255   8258   8260      9     0.00   0.62760   3 ;    H3R-   C13-   C12-   H2S
  8257   8255   8258   8259      9     0.00   0.62760   3 ;    H3S-   C13-   C12-   H2R
  8257   8255   8258   8260      9     0.00   0.62760   3 ;    H3S-   C13-   C12-   H2S
  8261   8262   8265   8266      9     0.00   0.62760   3 ;   H14T-  C114-  C113-  H13R
  8261   8262   8265   8267      9     0.00   0.62760   3 ;   H14T-  C114-  C113-  H13S
  8261   8262   8265   8268      9     0.00   0.66944   3 ;   H14T-  C114-  C113-  C112
  8262   8265   8268   8269      9     0.00   0.66944   3 ;   C114-  C113-  C112-  H12R
  8262   8265   8268   8270      9     0.00   0.66944   3 ;   C114-  C113-  C112-  H12S
  8262   8265   8268   8271      9     0.00   0.41840   1 ;   C114-  C113-  C112-  C111
  8262   8265   8268   8271      9     0.00   0.41840   2 ;   C114-  C113-  C112-  C111
  8262   8265   8268   8271      9     0.00   0.41840   4 ;   C114-  C113-  C112-  C111
  8262   8265   8268   8271      9     0.00   0.41840   5 ;   C114-  C113-  C112-  C111
  8262   8265   8268   8271      9     0.00   1.25520   3 ;   C114-  C113-  C112-  C111
  8263   8262   8265   8266      9     0.00   0.62760   3 ;   H14R-  C114-  C113-  H13R
  8263   8262   8265   8267      9     0.00   0.62760   3 ;   H14R-  C114-  C113-  H13S
  8263   8262   8265   8268      9     0.00   0.66944   3 ;   H14R-  C114-  C113-  C112
  8264   8262   8265   8266      9     0.00   0.62760   3 ;   H14S-  C114-  C113-  H13R
  8264   8262   8265   8267      9     0.00   0.62760   3 ;   H14S-  C114-  C113-  H13S
  8264   8262   8265   8268      9     0.00   0.66944   3 ;   H14S-  C114-  C113-  C112
  8265   8268   8271   8272      9     0.00   0.66944   3 ;   C113-  C112-  C111-  H11R
  8265   8268   8271   8273      9     0.00   0.66944   3 ;   C113-  C112-  C111-  H11S
  8265   8268   8271   8274      9     0.00   0.41840   1 ;   C113-  C112-  C111-  C110
  8265   8268   8271   8274      9     0.00   0.41840   2 ;   C113-  C112-  C111-  C110
  8265   8268   8271   8274      9     0.00   0.41840   4 ;   C113-  C112-  C111-  C110
  8265   8268   8271   8274      9     0.00   0.41840   5 ;   C113-  C112-  C111-  C110
  8265   8268   8271   8274      9     0.00   1.25520   3 ;   C113-  C112-  C111-  C110
  8266   8265   8268   8269      9     0.00   0.62760   3 ;   H13R-  C113-  C112-  H12R
  8266   8265   8268   8270      9     0.00   0.62760   3 ;   H13R-  C113-  C112-  H12S
  8266   8265   8268   8271      9     0.00   0.66944   3 ;   H13R-  C113-  C112-  C111
  8267   8265   8268   8269      9     0.00   0.62760   3 ;   H13S-  C113-  C112-  H12R
  8267   8265   8268   8270      9     0.00   0.62760   3 ;   H13S-  C113-  C112-  H12S
  8267   8265   8268   8271      9     0.00   0.66944   3 ;   H13S-  C113-  C112-  C111
  8268   8271   8274   8275      9     0.00   0.66944   3 ;   C112-  C111-  C110-  H10R
  8268   8271   8274   8276      9     0.00   0.66944   3 ;   C112-  C111-  C110-  H10S
  8268   8271   8274   8277      9     0.00   0.41840   1 ;   C112-  C111-  C110-   C19
  8268   8271   8274   8277      9     0.00   0.41840   2 ;   C112-  C111-  C110-   C19
  8268   8271   8274   8277      9     0.00   0.41840   4 ;   C112-  C111-  C110-   C19
  8268   8271   8274   8277      9     0.00   0.41840   5 ;   C112-  C111-  C110-   C19
  8268   8271   8274   8277      9     0.00   1.25520   3 ;   C112-  C111-  C110-   C19
  8269   8268   8271   8272      9     0.00   0.62760   3 ;   H12R-  C112-  C111-  H11R
  8269   8268   8271   8273      9     0.00   0.62760   3 ;   H12R-  C112-  C111-  H11S
  8269   8268   8271   8274      9     0.00   0.66944   3 ;   H12R-  C112-  C111-  C110
  8270   8268   8271   8272      9     0.00   0.62760   3 ;   H12S-  C112-  C111-  H11R
  8270   8268   8271   8273      9     0.00   0.62760   3 ;   H12S-  C112-  C111-  H11S
  8270   8268   8271   8274      9     0.00   0.66944   3 ;   H12S-  C112-  C111-  C110
  8271   8274   8277   8278      9     0.00   0.66944   3 ;   C111-  C110-   C19-   H9R
  8271   8274   8277   8279      9     0.00   0.66944   3 ;   C111-  C110-   C19-   H9S
  8271   8274   8277   8280      9     0.00   0.41840   1 ;   C111-  C110-   C19-   C18
  8271   8274   8277   8280      9     0.00   0.41840   2 ;   C111-  C110-   C19-   C18
  8271   8274   8277   8280      9     0.00   0.41840   4 ;   C111-  C110-   C19-   C18
  8271   8274   8277   8280      9     0.00   0.41840   5 ;   C111-  C110-   C19-   C18
  8271   8274   8277   8280      9     0.00   1.25520   3 ;   C111-  C110-   C19-   C18
  8272   8271   8274   8275      9     0.00   0.62760   3 ;   H11R-  C111-  C110-  H10R
  8272   8271   8274   8276      9     0.00   0.62760   3 ;   H11R-  C111-  C110-  H10S
  8272   8271   8274   8277      9     0.00   0.66944   3 ;   H11R-  C111-  C110-   C19
  8273   8271   8274   8275      9     0.00   0.62760   3 ;   H11S-  C111-  C110-  H10R
  8273   8271   8274   8276      9     0.00   0.62760   3 ;   H11S-  C111-  C110-  H10S
  8273   8271   8274   8277      9     0.00   0.66944   3 ;   H11S-  C111-  C110-   C19
  8274   8277   8280   8281      9     0.00   0.66944   3 ;   C110-   C19-   C18-   H8R
  8274   8277   8280   8282      9     0.00   0.66944   3 ;   C110-   C19-   C18-   H8S
  8274   8277   8280   8283      9     0.00   0.41840   1 ;   C110-   C19-   C18-   C17
  8274   8277   8280   8283      9     0.00   0.41840   2 ;   C110-   C19-   C18-   C17
  8274   8277   8280   8283      9     0.00   0.41840   4 ;   C110-   C19-   C18-   C17
  8274   8277   8280   8283      9     0.00   0.41840   5 ;   C110-   C19-   C18-   C17
  8274   8277   8280   8283      9     0.00   1.25520   3 ;   C110-   C19-   C18-   C17
  8275   8274   8277   8278      9     0.00   0.62760   3 ;   H10R-  C110-   C19-   H9R
  8275   8274   8277   8279      9     0.00   0.62760   3 ;   H10R-  C110-   C19-   H9S
  8275   8274   8277   8280      9     0.00   0.66944   3 ;   H10R-  C110-   C19-   C18
  8276   8274   8277   8278      9     0.00   0.62760   3 ;   H10S-  C110-   C19-   H9R
  8276   8274   8277   8279      9     0.00   0.62760   3 ;   H10S-  C110-   C19-   H9S
  8276   8274   8277   8280      9     0.00   0.66944   3 ;   H10S-  C110-   C19-   C18
  8277   8280   8283   8284      9     0.00   0.66944   3 ;    C19-   C18-   C17-   H7R
  8277   8280   8283   8285      9     0.00   0.66944   3 ;    C19-   C18-   C17-   H7S
  8277   8280   8283   8286      9     0.00   0.41840   1 ;    C19-   C18-   C17-   C16
  8277   8280   8283   8286      9     0.00   0.41840   2 ;    C19-   C18-   C17-   C16
  8277   8280   8283   8286      9     0.00   0.41840   4 ;    C19-   C18-   C17-   C16
  8277   8280   8283   8286      9     0.00   0.41840   5 ;    C19-   C18-   C17-   C16
  8277   8280   8283   8286      9     0.00   1.25520   3 ;    C19-   C18-   C17-   C16
  8278   8277   8280   8281      9     0.00   0.62760   3 ;    H9R-   C19-   C18-   H8R
  8278   8277   8280   8282      9     0.00   0.62760   3 ;    H9R-   C19-   C18-   H8S
  8278   8277   8280   8283      9     0.00   0.66944   3 ;    H9R-   C19-   C18-   C17
  8279   8277   8280   8281      9     0.00   0.62760   3 ;    H9S-   C19-   C18-   H8R
  8279   8277   8280   8282      9     0.00   0.62760   3 ;    H9S-   C19-   C18-   H8S
  8279   8277   8280   8283      9     0.00   0.66944   3 ;    H9S-   C19-   C18-   C17
  8280   8283   8286   8287      9     0.00   0.66944   3 ;    C18-   C17-   C16-   H6R
  8280   8283   8286   8288      9     0.00   0.66944   3 ;    C18-   C17-   C16-   H6S
  8280   8283   8286   8289      9     0.00   0.41840   1 ;    C18-   C17-   C16-   C15
  8280   8283   8286   8289      9     0.00   0.41840   2 ;    C18-   C17-   C16-   C15
  8280   8283   8286   8289      9     0.00   0.41840   4 ;    C18-   C17-   C16-   C15
  8280   8283   8286   8289      9     0.00   0.41840   5 ;    C18-   C17-   C16-   C15
  8280   8283   8286   8289      9     0.00   1.25520   3 ;    C18-   C17-   C16-   C15
  8281   8280   8283   8284      9     0.00   0.62760   3 ;    H8R-   C18-   C17-   H7R
  8281   8280   8283   8285      9     0.00   0.62760   3 ;    H8R-   C18-   C17-   H7S
  8281   8280   8283   8286      9     0.00   0.66944   3 ;    H8R-   C18-   C17-   C16
  8282   8280   8283   8284      9     0.00   0.62760   3 ;    H8S-   C18-   C17-   H7R
  8282   8280   8283   8285      9     0.00   0.62760   3 ;    H8S-   C18-   C17-   H7S
  8282   8280   8283   8286      9     0.00   0.66944   3 ;    H8S-   C18-   C17-   C16
  8283   8286   8289   8290      9     0.00   0.66944   3 ;    C17-   C16-   C15-   H5R
  8283   8286   8289   8291      9     0.00   0.66944   3 ;    C17-   C16-   C15-   H5S
  8283   8286   8289   8292      9     0.00   0.41840   1 ;    C17-   C16-   C15-   C14
  8283   8286   8289   8292      9     0.00   0.41840   2 ;    C17-   C16-   C15-   C14
  8283   8286   8289   8292      9     0.00   0.41840   4 ;    C17-   C16-   C15-   C14
  8283   8286   8289   8292      9     0.00   0.41840   5 ;    C17-   C16-   C15-   C14
  8283   8286   8289   8292      9     0.00   1.25520   3 ;    C17-   C16-   C15-   C14
  8284   8283   8286   8287      9     0.00   0.62760   3 ;    H7R-   C17-   C16-   H6R
  8284   8283   8286   8288      9     0.00   0.62760   3 ;    H7R-   C17-   C16-   H6S
  8284   8283   8286   8289      9     0.00   0.66944   3 ;    H7R-   C17-   C16-   C15
  8285   8283   8286   8287      9     0.00   0.62760   3 ;    H7S-   C17-   C16-   H6R
  8285   8283   8286   8288      9     0.00   0.62760   3 ;    H7S-   C17-   C16-   H6S
  8285   8283   8286   8289      9     0.00   0.66944   3 ;    H7S-   C17-   C16-   C15
  8286   8289   8292   8293      9     0.00   0.66944   3 ;    C16-   C15-   C14-   H4R
  8286   8289   8292   8294      9     0.00   0.66944   3 ;    C16-   C15-   C14-   H4S
  8286   8289   8292   8295      9     0.00   0.41840   1 ;    C16-   C15-   C14-   C13
  8286   8289   8292   8295      9     0.00   0.41840   2 ;    C16-   C15-   C14-   C13
  8286   8289   8292   8295      9     0.00   0.41840   4 ;    C16-   C15-   C14-   C13
  8286   8289   8292   8295      9     0.00   0.41840   5 ;    C16-   C15-   C14-   C13
  8286   8289   8292   8295      9     0.00   1.25520   3 ;    C16-   C15-   C14-   C13
  8287   8286   8289   8290      9     0.00   0.62760   3 ;    H6R-   C16-   C15-   H5R
  8287   8286   8289   8291      9     0.00   0.62760   3 ;    H6R-   C16-   C15-   H5S
  8287   8286   8289   8292      9     0.00   0.66944   3 ;    H6R-   C16-   C15-   C14
  8288   8286   8289   8290      9     0.00   0.62760   3 ;    H6S-   C16-   C15-   H5R
  8288   8286   8289   8291      9     0.00   0.62760   3 ;    H6S-   C16-   C15-   H5S
  8288   8286   8289   8292      9     0.00   0.66944   3 ;    H6S-   C16-   C15-   C14
  8289   8292   8295   8296      9     0.00   0.66944   3 ;    C15-   C14-   C13-   H3R
  8289   8292   8295   8297      9     0.00   0.66944   3 ;    C15-   C14-   C13-   H3S
  8289   8292   8295   8298      9     0.00   0.41840   1 ;    C15-   C14-   C13-   C12
  8289   8292   8295   8298      9     0.00   0.41840   2 ;    C15-   C14-   C13-   C12
  8289   8292   8295   8298      9     0.00   0.41840   4 ;    C15-   C14-   C13-   C12
  8289   8292   8295   8298      9     0.00   0.41840   5 ;    C15-   C14-   C13-   C12
  8289   8292   8295   8298      9     0.00   1.25520   3 ;    C15-   C14-   C13-   C12
  8290   8289   8292   8293      9     0.00   0.62760   3 ;    H5R-   C15-   C14-   H4R
  8290   8289   8292   8294      9     0.00   0.62760   3 ;    H5R-   C15-   C14-   H4S
  8290   8289   8292   8295      9     0.00   0.66944   3 ;    H5R-   C15-   C14-   C13
  8291   8289   8292   8293      9     0.00   0.62760   3 ;    H5S-   C15-   C14-   H4R
  8291   8289   8292   8294      9     0.00   0.62760   3 ;    H5S-   C15-   C14-   H4S
  8291   8289   8292   8295      9     0.00   0.66944   3 ;    H5S-   C15-   C14-   C13
  8292   8295   8298   8299      9     0.00   0.66944   3 ;    C14-   C13-   C12-   H2R
  8292   8295   8298   8300      9     0.00   0.66944   3 ;    C14-   C13-   C12-   H2S
  8292   8295   8298   8301      9     0.00   0.65270   3 ;    C14-   C13-   C12-   C11
  8293   8292   8295   8296      9     0.00   0.62760   3 ;    H4R-   C14-   C13-   H3R
  8293   8292   8295   8297      9     0.00   0.62760   3 ;    H4R-   C14-   C13-   H3S
  8293   8292   8295   8298      9     0.00   0.66944   3 ;    H4R-   C14-   C13-   C12
  8294   8292   8295   8296      9     0.00   0.62760   3 ;    H4S-   C14-   C13-   H3R
  8294   8292   8295   8297      9     0.00   0.62760   3 ;    H4S-   C14-   C13-   H3S
  8294   8292   8295   8298      9     0.00   0.66944   3 ;    H4S-   C14-   C13-   C12
  8295   8298   8301   8302      9   180.00   0.00000   2 ;    C13-   C12-   C11-   O12
  8295   8298   8301   8303      9   180.00   0.00000   2 ;    C13-   C12-   C11-   O11
  8296   8295   8298   8299      9     0.00   0.62760   3 ;    H3R-   C13-   C12-   H2R
  8296   8295   8298   8300      9     0.00   0.62760   3 ;    H3R-   C13-   C12-   H2S
  8296   8295   8298   8301      9     0.00   0.65270   3 ;    H3R-   C13-   C12-   C11
  8297   8295   8298   8299      9     0.00   0.62760   3 ;    H3S-   C13-   C12-   H2R
  8297   8295   8298   8300      9     0.00   0.62760   3 ;    H3S-   C13-   C12-   H2S
  8297   8295   8298   8301      9     0.00   0.65270   3 ;    H3S-   C13-   C12-   C11
  8298   8301   8303   8304      9   180.00  11.29680   2 ;    C12-   C11-   O11-    C1
  8299   8298   8301   8302      9     0.00   3.34720   1 ;    H2R-   C12-   C11-   O12
  8299   8298   8301   8302      9   180.00   0.33472   3 ;    H2R-   C12-   C11-   O12
  8299   8298   8301   8303      9   180.00   0.00000   2 ;    H2R-   C12-   C11-   O11
  8300   8298   8301   8302      9     0.00   3.34720   1 ;    H2S-   C12-   C11-   O12
  8300   8298   8301   8302      9   180.00   0.33472   3 ;    H2S-   C12-   C11-   O12
  8300   8298   8301   8303      9   180.00   0.00000   2 ;    H2S-   C12-   C11-   O11
  8301   8303   8304   8305      9     0.00   1.60247   3 ;    C11-   O11-    C1-    HR
  8301   8303   8304   8306      9     0.00   1.60247   3 ;    C11-   O11-    C1-    HS
  8301   8303   8304   8307      9     0.00  -0.41840   1 ;    C11-   O11-    C1-    C2
  8302   8301   8303   8304      9   180.00   5.85760   1 ;    O12-   C11-   O11-    C1
  8302   8301   8303   8304      9   180.00  11.29680   2 ;    O12-   C11-   O11-    C1
  8303   8304   8307   8308      9     0.00   0.00000   0 ;    O11-    C1-    C2-    HX
  8303   8304   8307   8308      9     0.00   1.04600   1 ;    O11-    C1-    C2-    HX
  8303   8304   8307   8309      9     0.00   0.00000   0 ;    O11-    C1-    C2-    C3
  8303   8304   8307   8309      9     0.00   0.00000   0 ;    O11-    C1-    C2-    C3
  8303   8304   8307   8309      9     0.00   0.00000   0 ;    O11-    C1-    C2-    C3
  8303   8304   8307   8309      9     0.00   0.00000   0 ;    O11-    C1-    C2-    C3
  8303   8304   8307   8309      9     0.00   0.00000   0 ;    O11-    C1-    C2-    C3
  8303   8304   8307   8336      9     0.00   1.25520   2 ;    O11-    C1-    C2-   O21
  8303   8304   8307   8336      9     0.00   4.18400   3 ;    O11-    C1-    C2-   O21
  8303   8304   8307   8336      9   180.00  -0.41840   1 ;    O11-    C1-    C2-   O21
  8304   8307   8309   8310      9     0.00   0.65270   3 ;     C1-    C2-    C3-    HA
  8304   8307   8309   8311      9     0.00   0.65270   3 ;     C1-    C2-    C3-    HB
  8304   8307   8309   8312      9   180.00   3.34720   1 ;     C1-    C2-    C3-   O31
  8304   8307   8336   8337      9     0.00  -0.41840   1 ;     C1-    C2-   O21-   C21
  8305   8304   8307   8308      9     0.00   0.65270   3 ;     HR-    C1-    C2-    HX
  8305   8304   8307   8309      9     0.00   0.65270   3 ;     HR-    C1-    C2-    C3
  8305   8304   8307   8336      9     0.00   0.00000   0 ;     HR-    C1-    C2-   O21
  8305   8304   8307   8336      9     0.00   1.04600   1 ;     HR-    C1-    C2-   O21
  8306   8304   8307   8308      9     0.00   0.65270   3 ;     HS-    C1-    C2-    HX
  8306   8304   8307   8309      9     0.00   0.65270   3 ;     HS-    C1-    C2-    C3
  8306   8304   8307   8336      9     0.00   0.00000   0 ;     HS-    C1-    C2-   O21
  8306   8304   8307   8336      9     0.00   1.04600   1 ;     HS-    C1-    C2-   O21
  8307   8309   8312   8313      9     0.00   0.00000   0 ;     C2-    C3-   O31-   P31
  8307   8309   8312   8313      9   180.00  -3.34720   2 ;     C2-    C3-   O31-   P31
  8307   8336   8337   8338      9   180.00   5.85760   1 ;     C2-   O21-   C21-   O22
  8307   8336   8337   8338      9   180.00  11.29680   2 ;     C2-   O21-   C21-   O22
  8307   8336   8337   8376      9   180.00  11.29680   2 ;     C2-   O21-   C21-   C12
  8308   8307   8309   8310      9     0.00   0.65270   3 ;     HX-    C2-    C3-    HA
  8308   8307   8309   8311      9     0.00   0.65270   3 ;     HX-    C2-    C3-    HB
  8308   8307   8309   8312      9     0.00   0.00000   0 ;     HX-    C2-    C3-   O31
  8308   8307   8309   8312      9     0.00   1.04600   1 ;     HX-    C2-    C3-   O31
  8308   8307   8336   8337      9     0.00   1.60247   3 ;     HX-    C2-   O21-   C21
  8309   8307   8336   8337      9     0.00  -0.41840   1 ;     C3-    C2-   O21-   C21
  8309   8312   8313   8314      9     0.00   2.51040   3 ;     C3-   O31-   P31-   O32
  8309   8312   8313   8314      9     0.00   9.62320   2 ;     C3-   O31-   P31-   O32
  8309   8312   8313   8334      9     0.00   0.00000   0 ;     C3-   O31-   P31-   O33
  8309   8312   8313   8334      9     0.00   0.00000   0 ;     C3-   O31-   P31-   O33
  8309   8312   8313   8334      9     0.00   0.00000   0 ;     C3-   O31-   P31-   O33
  8309   8312   8313   8334      9     0.00   0.00000   0 ;     C3-   O31-   P31-   O33
  8309   8312   8313   8334      9     0.00   0.83680   2 ;     C3-   O31-   P31-   O33
  8309   8312   8313   8335      9     0.00   0.00000   0 ;     C3-   O31-   P31-   O34
  8309   8312   8313   8335      9     0.00   0.00000   0 ;     C3-   O31-   P31-   O34
  8309   8312   8313   8335      9     0.00   0.00000   0 ;     C3-   O31-   P31-   O34
  8309   8312   8313   8335      9     0.00   0.00000   0 ;     C3-   O31-   P31-   O34
  8309   8312   8313   8335      9     0.00   0.83680   2 ;     C3-   O31-   P31-   O34
  8310   8309   8307   8336      9     0.00   0.00000   0 ;     HA-    C3-    C2-   O21
  8310   8309   8307   8336      9     0.00   1.04600   1 ;     HA-    C3-    C2-   O21
  8310   8309   8312   8313      9     0.00   0.00000   0 ;     HA-    C3-   O31-   P31
  8310   8309   8312   8313      9     0.00   0.00000   0 ;     HA-    C3-   O31-   P31
  8310   8309   8312   8313      9     0.00   0.00000   0 ;     HA-    C3-   O31-   P31
  8310   8309   8312   8313      9     0.00   0.00000   0 ;     HA-    C3-   O31-   P31
  8310   8309   8312   8313      9     0.00   1.60247   3 ;     HA-    C3-   O31-   P31
  8311   8309   8307   8336      9     0.00   0.00000   0 ;     HB-    C3-    C2-   O21
  8311   8309   8307   8336      9     0.00   1.04600   1 ;     HB-    C3-    C2-   O21
  8311   8309   8312   8313      9     0.00   0.00000   0 ;     HB-    C3-   O31-   P31
  8311   8309   8312   8313      9     0.00   0.00000   0 ;     HB-    C3-   O31-   P31
  8311   8309   8312   8313      9     0.00   0.00000   0 ;     HB-    C3-   O31-   P31
  8311   8309   8312   8313      9     0.00   0.00000   0 ;     HB-    C3-   O31-   P31
  8311   8309   8312   8313      9     0.00   1.60247   3 ;     HB-    C3-   O31-   P31
  8312   8309   8307   8336      9     0.00   0.00000   0 ;    O31-    C3-    C2-   O21
  8312   8309   8307   8336      9     0.00   0.00000   0 ;    O31-    C3-    C2-   O21
  8312   8309   8307   8336      9     0.00   0.00000   0 ;    O31-    C3-    C2-   O21
  8312   8309   8307   8336      9     0.00   0.00000   0 ;    O31-    C3-    C2-   O21
  8312   8309   8307   8336      9     0.00   0.00000   0 ;    O31-    C3-    C2-   O21
  8312   8313   8314   8315      9     0.00   2.51040   3 ;    O31-   P31-   O32-   C31
  8312   8313   8314   8315      9     0.00   9.62320   2 ;    O31-   P31-   O32-   C31
  8313   8314   8315   8316      9     0.00   0.00000   0 ;    P31-   O32-   C31-   H1A
  8313   8314   8315   8316      9     0.00   0.00000   0 ;    P31-   O32-   C31-   H1A
  8313   8314   8315   8316      9     0.00   0.00000   0 ;    P31-   O32-   C31-   H1A
  8313   8314   8315   8316      9     0.00   0.00000   0 ;    P31-   O32-   C31-   H1A
  8313   8314   8315   8316      9     0.00   1.60247   3 ;    P31-   O32-   C31-   H1A
  8313   8314   8315   8317      9     0.00   0.00000   0 ;    P31-   O32-   C31-   H1B
  8313   8314   8315   8317      9     0.00   0.00000   0 ;    P31-   O32-   C31-   H1B
  8313   8314   8315   8317      9     0.00   0.00000   0 ;    P31-   O32-   C31-   H1B
  8313   8314   8315   8317      9     0.00   0.00000   0 ;    P31-   O32-   C31-   H1B
  8313   8314   8315   8317      9     0.00   1.60247   3 ;    P31-   O32-   C31-   H1B
  8313   8314   8315   8318      9     0.00   0.00000   0 ;    P31-   O32-   C31-   C32
  8313   8314   8315   8318      9   180.00  -3.34720   2 ;    P31-   O32-   C31-   C32
  8314   8315   8318   8319      9     0.00   0.65270   3 ;    O32-   C31-   C32-   H2A
  8314   8315   8318   8320      9     0.00   0.65270   3 ;    O32-   C31-   C32-   H2B
  8314   8315   8318   8321      9     0.00   4.18400   3 ;    O32-   C31-   C32-   N31
  8315   8314   8313   8334      9     0.00   0.00000   0 ;    C31-   O32-   P31-   O33
  8315   8314   8313   8334      9     0.00   0.00000   0 ;    C31-   O32-   P31-   O33
  8315   8314   8313   8334      9     0.00   0.00000   0 ;    C31-   O32-   P31-   O33
  8315   8314   8313   8334      9     0.00   0.00000   0 ;    C31-   O32-   P31-   O33
  8315   8314   8313   8334      9     0.00   0.83680   2 ;    C31-   O32-   P31-   O33
  8315   8314   8313   8335      9     0.00   0.00000   0 ;    C31-   O32-   P31-   O34
  8315   8314   8313   8335      9     0.00   0.00000   0 ;    C31-   O32-   P31-   O34
  8315   8314   8313   8335      9     0.00   0.00000   0 ;    C31-   O32-   P31-   O34
  8315   8314   8313   8335      9     0.00   0.00000   0 ;    C31-   O32-   P31-   O34
  8315   8314   8313   8335      9     0.00   0.83680   2 ;    C31-   O32-   P31-   O34
  8315   8318   8321   8322      9     0.00   0.65270   3 ;    C31-   C32-   N31-   C33
  8315   8318   8321   8326      9     0.00   0.65270   3 ;    C31-   C32-   N31-   C34
  8315   8318   8321   8330      9     0.00   0.65270   3 ;    C31-   C32-   N31-   C35
  8316   8315   8318   8319      9     0.00   0.65270   3 ;    H1A-   C31-   C32-   H2A
  8316   8315   8318   8320      9     0.00   0.65270   3 ;    H1A-   C31-   C32-   H2B
  8316   8315   8318   8321      9     0.00   0.65270   3 ;    H1A-   C31-   C32-   N31
  8317   8315   8318   8319      9     0.00   0.65270   3 ;    H1B-   C31-   C32-   H2A
  8317   8315   8318   8320      9     0.00   0.65270   3 ;    H1B-   C31-   C32-   H2B
  8317   8315   8318   8321      9     0.00   0.65270   3 ;    H1B-   C31-   C32-   N31
  8318   8321   8322   8323      9     0.00   0.65270   3 ;    C32-   N31-   C33-   H3A
  8318   8321   8322   8324      9     0.00   0.65270   3 ;    C32-   N31-   C33-   H3B
  8318   8321   8322   8325      9     0.00   0.65270   3 ;    C32-   N31-   C33-   H3C
  8318   8321   8326   8327      9     0.00   0.65270   3 ;    C32-   N31-   C34-   H4A
  8318   8321   8326   8328      9     0.00   0.65270   3 ;    C32-   N31-   C34-   H4B
  8318   8321   8326   8329      9     0.00   0.65270   3 ;    C32-   N31-   C34-   H4C
  8318   8321   8330   8331      9     0.00   0.65270   3 ;    C32-   N31-   C35-   H5A
  8318   8321   8330   8332      9     0.00   0.65270   3 ;    C32-   N31-   C35-   H5B
  8318   8321   8330   8333      9     0.00   0.65270   3 ;    C32-   N31-   C35-   H5C
  8319   8318   8321   8322      9     0.00   0.65270   3 ;    H2A-   C32-   N31-   C33
  8319   8318   8321   8326      9     0.00   0.65270   3 ;    H2A-   C32-   N31-   C34
  8319   8318   8321   8330      9     0.00   0.65270   3 ;    H2A-   C32-   N31-   C35
  8320   8318   8321   8322      9     0.00   0.65270   3 ;    H2B-   C32-   N31-   C33
  8320   8318   8321   8326      9     0.00   0.65270   3 ;    H2B-   C32-   N31-   C34
  8320   8318   8321   8330      9     0.00   0.65270   3 ;    H2B-   C32-   N31-   C35
  8322   8321   8326   8327      9     0.00   0.65270   3 ;    C33-   N31-   C34-   H4A
  8322   8321   8326   8328      9     0.00   0.65270   3 ;    C33-   N31-   C34-   H4B
  8322   8321   8326   8329      9     0.00   0.65270   3 ;    C33-   N31-   C34-   H4C
  8322   8321   8330   8331      9     0.00   0.65270   3 ;    C33-   N31-   C35-   H5A
  8322   8321   8330   8332      9     0.00   0.65270   3 ;    C33-   N31-   C35-   H5B
  8322   8321   8330   8333      9     0.00   0.65270   3 ;    C33-   N31-   C35-   H5C
  8323   8322   8321   8326      9     0.00   0.65270   3 ;    H3A-   C33-   N31-   C34
  8323   8322   8321   8330      9     0.00   0.65270   3 ;    H3A-   C33-   N31-   C35
  8324   8322   8321   8326      9     0.00   0.65270   3 ;    H3B-   C33-   N31-   C34
  8324   8322   8321   8330      9     0.00   0.65270   3 ;    H3B-   C33-   N31-   C35
  8325   8322   8321   8326      9     0.00   0.65270   3 ;    H3C-   C33-   N31-   C34
  8325   8322   8321   8330      9     0.00   0.65270   3 ;    H3C-   C33-   N31-   C35
  8326   8321   8330   8331      9     0.00   0.65270   3 ;    C34-   N31-   C35-   H5A
  8326   8321   8330   8332      9     0.00   0.65270   3 ;    C34-   N31-   C35-   H5B
  8326   8321   8330   8333      9     0.00   0.65270   3 ;    C34-   N31-   C35-   H5C
  8327   8326   8321   8330      9     0.00   0.65270   3 ;    H4A-   C34-   N31-   C35
  8328   8326   8321   8330      9     0.00   0.65270   3 ;    H4B-   C34-   N31-   C35
  8329   8326   8321   8330      9     0.00   0.65270   3 ;    H4C-   C34-   N31-   C35
  8336   8337   8376   8373      9   180.00   0.00000   2 ;    O21-   C21-   C12-   C13
  8336   8337   8376   8377      9   180.00   0.00000   2 ;    O21-   C21-   C12-   H2R
  8336   8337   8376   8378      9   180.00   0.00000   2 ;    O21-   C21-   C12-   H2S
  8337   8376   8373   8370      9     0.00   0.65270   3 ;    C21-   C12-   C13-   C14
  8337   8376   8373   8374      9     0.00   0.65270   3 ;    C21-   C12-   C13-   H3R
  8337   8376   8373   8375      9     0.00   0.65270   3 ;    C21-   C12-   C13-   H3S
  8338   8337   8376   8373      9   180.00   0.00000   2 ;    O22-   C21-   C12-   C13
  8338   8337   8376   8377      9     0.00   3.34720   1 ;    O22-   C21-   C12-   H2R
  8338   8337   8376   8377      9   180.00   0.33472   3 ;    O22-   C21-   C12-   H2R
  8338   8337   8376   8378      9     0.00   3.34720   1 ;    O22-   C21-   C12-   H2S
  8338   8337   8376   8378      9   180.00   0.33472   3 ;    O22-   C21-   C12-   H2S
  8339   8340   8343   8344      9     0.00   0.62760   3 ;   H14T-  C114-  C113-  H13R
  8339   8340   8343   8345      9     0.00   0.62760   3 ;   H14T-  C114-  C113-  H13S
  8339   8340   8343   8346      9     0.00   0.66944   3 ;   H14T-  C114-  C113-  C112
  8340   8343   8346   8347      9     0.00   0.66944   3 ;   C114-  C113-  C112-  H12R
  8340   8343   8346   8348      9     0.00   0.66944   3 ;   C114-  C113-  C112-  H12S
  8340   8343   8346   8349      9     0.00   0.41840   1 ;   C114-  C113-  C112-  C111
  8340   8343   8346   8349      9     0.00   0.41840   2 ;   C114-  C113-  C112-  C111
  8340   8343   8346   8349      9     0.00   0.41840   4 ;   C114-  C113-  C112-  C111
  8340   8343   8346   8349      9     0.00   0.41840   5 ;   C114-  C113-  C112-  C111
  8340   8343   8346   8349      9     0.00   1.25520   3 ;   C114-  C113-  C112-  C111
  8341   8340   8343   8344      9     0.00   0.62760   3 ;   H14R-  C114-  C113-  H13R
  8341   8340   8343   8345      9     0.00   0.62760   3 ;   H14R-  C114-  C113-  H13S
  8341   8340   8343   8346      9     0.00   0.66944   3 ;   H14R-  C114-  C113-  C112
  8342   8340   8343   8344      9     0.00   0.62760   3 ;   H14S-  C114-  C113-  H13R
  8342   8340   8343   8345      9     0.00   0.62760   3 ;   H14S-  C114-  C113-  H13S
  8342   8340   8343   8346      9     0.00   0.66944   3 ;   H14S-  C114-  C113-  C112
  8343   8346   8349   8350      9     0.00   0.66944   3 ;   C113-  C112-  C111-  H11R
  8343   8346   8349   8351      9     0.00   0.66944   3 ;   C113-  C112-  C111-  H11S
  8343   8346   8349   8352      9     0.00   0.41840   1 ;   C113-  C112-  C111-  C110
  8343   8346   8349   8352      9     0.00   0.41840   2 ;   C113-  C112-  C111-  C110
  8343   8346   8349   8352      9     0.00   0.41840   4 ;   C113-  C112-  C111-  C110
  8343   8346   8349   8352      9     0.00   0.41840   5 ;   C113-  C112-  C111-  C110
  8343   8346   8349   8352      9     0.00   1.25520   3 ;   C113-  C112-  C111-  C110
  8344   8343   8346   8347      9     0.00   0.62760   3 ;   H13R-  C113-  C112-  H12R
  8344   8343   8346   8348      9     0.00   0.62760   3 ;   H13R-  C113-  C112-  H12S
  8344   8343   8346   8349      9     0.00   0.66944   3 ;   H13R-  C113-  C112-  C111
  8345   8343   8346   8347      9     0.00   0.62760   3 ;   H13S-  C113-  C112-  H12R
  8345   8343   8346   8348      9     0.00   0.62760   3 ;   H13S-  C113-  C112-  H12S
  8345   8343   8346   8349      9     0.00   0.66944   3 ;   H13S-  C113-  C112-  C111
  8346   8349   8352   8353      9     0.00   0.66944   3 ;   C112-  C111-  C110-  H10R
  8346   8349   8352   8354      9     0.00   0.66944   3 ;   C112-  C111-  C110-  H10S
  8346   8349   8352   8355      9     0.00   0.41840   1 ;   C112-  C111-  C110-   C19
  8346   8349   8352   8355      9     0.00   0.41840   2 ;   C112-  C111-  C110-   C19
  8346   8349   8352   8355      9     0.00   0.41840   4 ;   C112-  C111-  C110-   C19
  8346   8349   8352   8355      9     0.00   0.41840   5 ;   C112-  C111-  C110-   C19
  8346   8349   8352   8355      9     0.00   1.25520   3 ;   C112-  C111-  C110-   C19
  8347   8346   8349   8350      9     0.00   0.62760   3 ;   H12R-  C112-  C111-  H11R
  8347   8346   8349   8351      9     0.00   0.62760   3 ;   H12R-  C112-  C111-  H11S
  8347   8346   8349   8352      9     0.00   0.66944   3 ;   H12R-  C112-  C111-  C110
  8348   8346   8349   8350      9     0.00   0.62760   3 ;   H12S-  C112-  C111-  H11R
  8348   8346   8349   8351      9     0.00   0.62760   3 ;   H12S-  C112-  C111-  H11S
  8348   8346   8349   8352      9     0.00   0.66944   3 ;   H12S-  C112-  C111-  C110
  8349   8352   8355   8356      9     0.00   0.66944   3 ;   C111-  C110-   C19-   H9R
  8349   8352   8355   8357      9     0.00   0.66944   3 ;   C111-  C110-   C19-   H9S
  8349   8352   8355   8358      9     0.00   0.41840   1 ;   C111-  C110-   C19-   C18
  8349   8352   8355   8358      9     0.00   0.41840   2 ;   C111-  C110-   C19-   C18
  8349   8352   8355   8358      9     0.00   0.41840   4 ;   C111-  C110-   C19-   C18
  8349   8352   8355   8358      9     0.00   0.41840   5 ;   C111-  C110-   C19-   C18
  8349   8352   8355   8358      9     0.00   1.25520   3 ;   C111-  C110-   C19-   C18
  8350   8349   8352   8353      9     0.00   0.62760   3 ;   H11R-  C111-  C110-  H10R
  8350   8349   8352   8354      9     0.00   0.62760   3 ;   H11R-  C111-  C110-  H10S
  8350   8349   8352   8355      9     0.00   0.66944   3 ;   H11R-  C111-  C110-   C19
  8351   8349   8352   8353      9     0.00   0.62760   3 ;   H11S-  C111-  C110-  H10R
  8351   8349   8352   8354      9     0.00   0.62760   3 ;   H11S-  C111-  C110-  H10S
  8351   8349   8352   8355      9     0.00   0.66944   3 ;   H11S-  C111-  C110-   C19
  8352   8355   8358   8359      9     0.00   0.66944   3 ;   C110-   C19-   C18-   H8R
  8352   8355   8358   8360      9     0.00   0.66944   3 ;   C110-   C19-   C18-   H8S
  8352   8355   8358   8361      9     0.00   0.41840   1 ;   C110-   C19-   C18-   C17
  8352   8355   8358   8361      9     0.00   0.41840   2 ;   C110-   C19-   C18-   C17
  8352   8355   8358   8361      9     0.00   0.41840   4 ;   C110-   C19-   C18-   C17
  8352   8355   8358   8361      9     0.00   0.41840   5 ;   C110-   C19-   C18-   C17
  8352   8355   8358   8361      9     0.00   1.25520   3 ;   C110-   C19-   C18-   C17
  8353   8352   8355   8356      9     0.00   0.62760   3 ;   H10R-  C110-   C19-   H9R
  8353   8352   8355   8357      9     0.00   0.62760   3 ;   H10R-  C110-   C19-   H9S
  8353   8352   8355   8358      9     0.00   0.66944   3 ;   H10R-  C110-   C19-   C18
  8354   8352   8355   8356      9     0.00   0.62760   3 ;   H10S-  C110-   C19-   H9R
  8354   8352   8355   8357      9     0.00   0.62760   3 ;   H10S-  C110-   C19-   H9S
  8354   8352   8355   8358      9     0.00   0.66944   3 ;   H10S-  C110-   C19-   C18
  8355   8358   8361   8362      9     0.00   0.66944   3 ;    C19-   C18-   C17-   H7R
  8355   8358   8361   8363      9     0.00   0.66944   3 ;    C19-   C18-   C17-   H7S
  8355   8358   8361   8364      9     0.00   0.41840   1 ;    C19-   C18-   C17-   C16
  8355   8358   8361   8364      9     0.00   0.41840   2 ;    C19-   C18-   C17-   C16
  8355   8358   8361   8364      9     0.00   0.41840   4 ;    C19-   C18-   C17-   C16
  8355   8358   8361   8364      9     0.00   0.41840   5 ;    C19-   C18-   C17-   C16
  8355   8358   8361   8364      9     0.00   1.25520   3 ;    C19-   C18-   C17-   C16
  8356   8355   8358   8359      9     0.00   0.62760   3 ;    H9R-   C19-   C18-   H8R
  8356   8355   8358   8360      9     0.00   0.62760   3 ;    H9R-   C19-   C18-   H8S
  8356   8355   8358   8361      9     0.00   0.66944   3 ;    H9R-   C19-   C18-   C17
  8357   8355   8358   8359      9     0.00   0.62760   3 ;    H9S-   C19-   C18-   H8R
  8357   8355   8358   8360      9     0.00   0.62760   3 ;    H9S-   C19-   C18-   H8S
  8357   8355   8358   8361      9     0.00   0.66944   3 ;    H9S-   C19-   C18-   C17
  8358   8361   8364   8365      9     0.00   0.66944   3 ;    C18-   C17-   C16-   H6R
  8358   8361   8364   8366      9     0.00   0.66944   3 ;    C18-   C17-   C16-   H6S
  8358   8361   8364   8367      9     0.00   0.41840   1 ;    C18-   C17-   C16-   C15
  8358   8361   8364   8367      9     0.00   0.41840   2 ;    C18-   C17-   C16-   C15
  8358   8361   8364   8367      9     0.00   0.41840   4 ;    C18-   C17-   C16-   C15
  8358   8361   8364   8367      9     0.00   0.41840   5 ;    C18-   C17-   C16-   C15
  8358   8361   8364   8367      9     0.00   1.25520   3 ;    C18-   C17-   C16-   C15
  8359   8358   8361   8362      9     0.00   0.62760   3 ;    H8R-   C18-   C17-   H7R
  8359   8358   8361   8363      9     0.00   0.62760   3 ;    H8R-   C18-   C17-   H7S
  8359   8358   8361   8364      9     0.00   0.66944   3 ;    H8R-   C18-   C17-   C16
  8360   8358   8361   8362      9     0.00   0.62760   3 ;    H8S-   C18-   C17-   H7R
  8360   8358   8361   8363      9     0.00   0.62760   3 ;    H8S-   C18-   C17-   H7S
  8360   8358   8361   8364      9     0.00   0.66944   3 ;    H8S-   C18-   C17-   C16
  8361   8364   8367   8368      9     0.00   0.66944   3 ;    C17-   C16-   C15-   H5R
  8361   8364   8367   8369      9     0.00   0.66944   3 ;    C17-   C16-   C15-   H5S
  8361   8364   8367   8370      9     0.00   0.41840   1 ;    C17-   C16-   C15-   C14
  8361   8364   8367   8370      9     0.00   0.41840   2 ;    C17-   C16-   C15-   C14
  8361   8364   8367   8370      9     0.00   0.41840   4 ;    C17-   C16-   C15-   C14
  8361   8364   8367   8370      9     0.00   0.41840   5 ;    C17-   C16-   C15-   C14
  8361   8364   8367   8370      9     0.00   1.25520   3 ;    C17-   C16-   C15-   C14
  8362   8361   8364   8365      9     0.00   0.62760   3 ;    H7R-   C17-   C16-   H6R
  8362   8361   8364   8366      9     0.00   0.62760   3 ;    H7R-   C17-   C16-   H6S
  8362   8361   8364   8367      9     0.00   0.66944   3 ;    H7R-   C17-   C16-   C15
  8363   8361   8364   8365      9     0.00   0.62760   3 ;    H7S-   C17-   C16-   H6R
  8363   8361   8364   8366      9     0.00   0.62760   3 ;    H7S-   C17-   C16-   H6S
  8363   8361   8364   8367      9     0.00   0.66944   3 ;    H7S-   C17-   C16-   C15
  8364   8367   8370   8371      9     0.00   0.66944   3 ;    C16-   C15-   C14-   H4R
  8364   8367   8370   8372      9     0.00   0.66944   3 ;    C16-   C15-   C14-   H4S
  8364   8367   8370   8373      9     0.00   0.41840   1 ;    C16-   C15-   C14-   C13
  8364   8367   8370   8373      9     0.00   0.41840   2 ;    C16-   C15-   C14-   C13
  8364   8367   8370   8373      9     0.00   0.41840   4 ;    C16-   C15-   C14-   C13
  8364   8367   8370   8373      9     0.00   0.41840   5 ;    C16-   C15-   C14-   C13
  8364   8367   8370   8373      9     0.00   1.25520   3 ;    C16-   C15-   C14-   C13
  8365   8364   8367   8368      9     0.00   0.62760   3 ;    H6R-   C16-   C15-   H5R
  8365   8364   8367   8369      9     0.00   0.62760   3 ;    H6R-   C16-   C15-   H5S
  8365   8364   8367   8370      9     0.00   0.66944   3 ;    H6R-   C16-   C15-   C14
  8366   8364   8367   8368      9     0.00   0.62760   3 ;    H6S-   C16-   C15-   H5R
  8366   8364   8367   8369      9     0.00   0.62760   3 ;    H6S-   C16-   C15-   H5S
  8366   8364   8367   8370      9     0.00   0.66944   3 ;    H6S-   C16-   C15-   C14
  8367   8370   8373   8374      9     0.00   0.66944   3 ;    C15-   C14-   C13-   H3R
  8367   8370   8373   8375      9     0.00   0.66944   3 ;    C15-   C14-   C13-   H3S
  8367   8370   8373   8376      9     0.00   0.41840   1 ;    C15-   C14-   C13-   C12
  8367   8370   8373   8376      9     0.00   0.41840   2 ;    C15-   C14-   C13-   C12
  8367   8370   8373   8376      9     0.00   0.41840   4 ;    C15-   C14-   C13-   C12
  8367   8370   8373   8376      9     0.00   0.41840   5 ;    C15-   C14-   C13-   C12
  8367   8370   8373   8376      9     0.00   1.25520   3 ;    C15-   C14-   C13-   C12
  8368   8367   8370   8371      9     0.00   0.62760   3 ;    H5R-   C15-   C14-   H4R
  8368   8367   8370   8372      9     0.00   0.62760   3 ;    H5R-   C15-   C14-   H4S
  8368   8367   8370   8373      9     0.00   0.66944   3 ;    H5R-   C15-   C14-   C13
  8369   8367   8370   8371      9     0.00   0.62760   3 ;    H5S-   C15-   C14-   H4R
  8369   8367   8370   8372      9     0.00   0.62760   3 ;    H5S-   C15-   C14-   H4S
  8369   8367   8370   8373      9     0.00   0.66944   3 ;    H5S-   C15-   C14-   C13
  8370   8373   8376   8377      9     0.00   0.66944   3 ;    C14-   C13-   C12-   H2R
  8370   8373   8376   8378      9     0.00   0.66944   3 ;    C14-   C13-   C12-   H2S
  8371   8370   8373   8374      9     0.00   0.62760   3 ;    H4R-   C14-   C13-   H3R
  8371   8370   8373   8375      9     0.00   0.62760   3 ;    H4R-   C14-   C13-   H3S
  8371   8370   8373   8376      9     0.00   0.66944   3 ;    H4R-   C14-   C13-   C12
  8372   8370   8373   8374      9     0.00   0.62760   3 ;    H4S-   C14-   C13-   H3R
  8372   8370   8373   8375      9     0.00   0.62760   3 ;    H4S-   C14-   C13-   H3S
  8372   8370   8373   8376      9     0.00   0.66944   3 ;    H4S-   C14-   C13-   C12
  8374   8373   8376   8377      9     0.00   0.62760   3 ;    H3R-   C13-   C12-   H2R
  8374   8373   8376   8378      9     0.00   0.62760   3 ;    H3R-   C13-   C12-   H2S
  8375   8373   8376   8377      9     0.00   0.62760   3 ;    H3S-   C13-   C12-   H2R
  8375   8373   8376   8378      9     0.00   0.62760   3 ;    H3S-   C13-   C12-   H2S
  8379   8380   8383   8384      9     0.00   0.62760   3 ;   H14T-  C114-  C113-  H13R
  8379   8380   8383   8385      9     0.00   0.62760   3 ;   H14T-  C114-  C113-  H13S
  8379   8380   8383   8386      9     0.00   0.66944   3 ;   H14T-  C114-  C113-  C112
  8380   8383   8386   8387      9     0.00   0.66944   3 ;   C114-  C113-  C112-  H12R
  8380   8383   8386   8388      9     0.00   0.66944   3 ;   C114-  C113-  C112-  H12S
  8380   8383   8386   8389      9     0.00   0.41840   1 ;   C114-  C113-  C112-  C111
  8380   8383   8386   8389      9     0.00   0.41840   2 ;   C114-  C113-  C112-  C111
  8380   8383   8386   8389      9     0.00   0.41840   4 ;   C114-  C113-  C112-  C111
  8380   8383   8386   8389      9     0.00   0.41840   5 ;   C114-  C113-  C112-  C111
  8380   8383   8386   8389      9     0.00   1.25520   3 ;   C114-  C113-  C112-  C111
  8381   8380   8383   8384      9     0.00   0.62760   3 ;   H14R-  C114-  C113-  H13R
  8381   8380   8383   8385      9     0.00   0.62760   3 ;   H14R-  C114-  C113-  H13S
  8381   8380   8383   8386      9     0.00   0.66944   3 ;   H14R-  C114-  C113-  C112
  8382   8380   8383   8384      9     0.00   0.62760   3 ;   H14S-  C114-  C113-  H13R
  8382   8380   8383   8385      9     0.00   0.62760   3 ;   H14S-  C114-  C113-  H13S
  8382   8380   8383   8386      9     0.00   0.66944   3 ;   H14S-  C114-  C113-  C112
  8383   8386   8389   8390      9     0.00   0.66944   3 ;   C113-  C112-  C111-  H11R
  8383   8386   8389   8391      9     0.00   0.66944   3 ;   C113-  C112-  C111-  H11S
  8383   8386   8389   8392      9     0.00   0.41840   1 ;   C113-  C112-  C111-  C110
  8383   8386   8389   8392      9     0.00   0.41840   2 ;   C113-  C112-  C111-  C110
  8383   8386   8389   8392      9     0.00   0.41840   4 ;   C113-  C112-  C111-  C110
  8383   8386   8389   8392      9     0.00   0.41840   5 ;   C113-  C112-  C111-  C110
  8383   8386   8389   8392      9     0.00   1.25520   3 ;   C113-  C112-  C111-  C110
  8384   8383   8386   8387      9     0.00   0.62760   3 ;   H13R-  C113-  C112-  H12R
  8384   8383   8386   8388      9     0.00   0.62760   3 ;   H13R-  C113-  C112-  H12S
  8384   8383   8386   8389      9     0.00   0.66944   3 ;   H13R-  C113-  C112-  C111
  8385   8383   8386   8387      9     0.00   0.62760   3 ;   H13S-  C113-  C112-  H12R
  8385   8383   8386   8388      9     0.00   0.62760   3 ;   H13S-  C113-  C112-  H12S
  8385   8383   8386   8389      9     0.00   0.66944   3 ;   H13S-  C113-  C112-  C111
  8386   8389   8392   8393      9     0.00   0.66944   3 ;   C112-  C111-  C110-  H10R
  8386   8389   8392   8394      9     0.00   0.66944   3 ;   C112-  C111-  C110-  H10S
  8386   8389   8392   8395      9     0.00   0.41840   1 ;   C112-  C111-  C110-   C19
  8386   8389   8392   8395      9     0.00   0.41840   2 ;   C112-  C111-  C110-   C19
  8386   8389   8392   8395      9     0.00   0.41840   4 ;   C112-  C111-  C110-   C19
  8386   8389   8392   8395      9     0.00   0.41840   5 ;   C112-  C111-  C110-   C19
  8386   8389   8392   8395      9     0.00   1.25520   3 ;   C112-  C111-  C110-   C19
  8387   8386   8389   8390      9     0.00   0.62760   3 ;   H12R-  C112-  C111-  H11R
  8387   8386   8389   8391      9     0.00   0.62760   3 ;   H12R-  C112-  C111-  H11S
  8387   8386   8389   8392      9     0.00   0.66944   3 ;   H12R-  C112-  C111-  C110
  8388   8386   8389   8390      9     0.00   0.62760   3 ;   H12S-  C112-  C111-  H11R
  8388   8386   8389   8391      9     0.00   0.62760   3 ;   H12S-  C112-  C111-  H11S
  8388   8386   8389   8392      9     0.00   0.66944   3 ;   H12S-  C112-  C111-  C110
  8389   8392   8395   8396      9     0.00   0.66944   3 ;   C111-  C110-   C19-   H9R
  8389   8392   8395   8397      9     0.00   0.66944   3 ;   C111-  C110-   C19-   H9S
  8389   8392   8395   8398      9     0.00   0.41840   1 ;   C111-  C110-   C19-   C18
  8389   8392   8395   8398      9     0.00   0.41840   2 ;   C111-  C110-   C19-   C18
  8389   8392   8395   8398      9     0.00   0.41840   4 ;   C111-  C110-   C19-   C18
  8389   8392   8395   8398      9     0.00   0.41840   5 ;   C111-  C110-   C19-   C18
  8389   8392   8395   8398      9     0.00   1.25520   3 ;   C111-  C110-   C19-   C18
  8390   8389   8392   8393      9     0.00   0.62760   3 ;   H11R-  C111-  C110-  H10R
  8390   8389   8392   8394      9     0.00   0.62760   3 ;   H11R-  C111-  C110-  H10S
  8390   8389   8392   8395      9     0.00   0.66944   3 ;   H11R-  C111-  C110-   C19
  8391   8389   8392   8393      9     0.00   0.62760   3 ;   H11S-  C111-  C110-  H10R
  8391   8389   8392   8394      9     0.00   0.62760   3 ;   H11S-  C111-  C110-  H10S
  8391   8389   8392   8395      9     0.00   0.66944   3 ;   H11S-  C111-  C110-   C19
  8392   8395   8398   8399      9     0.00   0.66944   3 ;   C110-   C19-   C18-   H8R
  8392   8395   8398   8400      9     0.00   0.66944   3 ;   C110-   C19-   C18-   H8S
  8392   8395   8398   8401      9     0.00   0.41840   1 ;   C110-   C19-   C18-   C17
  8392   8395   8398   8401      9     0.00   0.41840   2 ;   C110-   C19-   C18-   C17
  8392   8395   8398   8401      9     0.00   0.41840   4 ;   C110-   C19-   C18-   C17
  8392   8395   8398   8401      9     0.00   0.41840   5 ;   C110-   C19-   C18-   C17
  8392   8395   8398   8401      9     0.00   1.25520   3 ;   C110-   C19-   C18-   C17
  8393   8392   8395   8396      9     0.00   0.62760   3 ;   H10R-  C110-   C19-   H9R
  8393   8392   8395   8397      9     0.00   0.62760   3 ;   H10R-  C110-   C19-   H9S
  8393   8392   8395   8398      9     0.00   0.66944   3 ;   H10R-  C110-   C19-   C18
  8394   8392   8395   8396      9     0.00   0.62760   3 ;   H10S-  C110-   C19-   H9R
  8394   8392   8395   8397      9     0.00   0.62760   3 ;   H10S-  C110-   C19-   H9S
  8394   8392   8395   8398      9     0.00   0.66944   3 ;   H10S-  C110-   C19-   C18
  8395   8398   8401   8402      9     0.00   0.66944   3 ;    C19-   C18-   C17-   H7R
  8395   8398   8401   8403      9     0.00   0.66944   3 ;    C19-   C18-   C17-   H7S
  8395   8398   8401   8404      9     0.00   0.41840   1 ;    C19-   C18-   C17-   C16
  8395   8398   8401   8404      9     0.00   0.41840   2 ;    C19-   C18-   C17-   C16
  8395   8398   8401   8404      9     0.00   0.41840   4 ;    C19-   C18-   C17-   C16
  8395   8398   8401   8404      9     0.00   0.41840   5 ;    C19-   C18-   C17-   C16
  8395   8398   8401   8404      9     0.00   1.25520   3 ;    C19-   C18-   C17-   C16
  8396   8395   8398   8399      9     0.00   0.62760   3 ;    H9R-   C19-   C18-   H8R
  8396   8395   8398   8400      9     0.00   0.62760   3 ;    H9R-   C19-   C18-   H8S
  8396   8395   8398   8401      9     0.00   0.66944   3 ;    H9R-   C19-   C18-   C17
  8397   8395   8398   8399      9     0.00   0.62760   3 ;    H9S-   C19-   C18-   H8R
  8397   8395   8398   8400      9     0.00   0.62760   3 ;    H9S-   C19-   C18-   H8S
  8397   8395   8398   8401      9     0.00   0.66944   3 ;    H9S-   C19-   C18-   C17
  8398   8401   8404   8405      9     0.00   0.66944   3 ;    C18-   C17-   C16-   H6R
  8398   8401   8404   8406      9     0.00   0.66944   3 ;    C18-   C17-   C16-   H6S
  8398   8401   8404   8407      9     0.00   0.41840   1 ;    C18-   C17-   C16-   C15
  8398   8401   8404   8407      9     0.00   0.41840   2 ;    C18-   C17-   C16-   C15
  8398   8401   8404   8407      9     0.00   0.41840   4 ;    C18-   C17-   C16-   C15
  8398   8401   8404   8407      9     0.00   0.41840   5 ;    C18-   C17-   C16-   C15
  8398   8401   8404   8407      9     0.00   1.25520   3 ;    C18-   C17-   C16-   C15
  8399   8398   8401   8402      9     0.00   0.62760   3 ;    H8R-   C18-   C17-   H7R
  8399   8398   8401   8403      9     0.00   0.62760   3 ;    H8R-   C18-   C17-   H7S
  8399   8398   8401   8404      9     0.00   0.66944   3 ;    H8R-   C18-   C17-   C16
  8400   8398   8401   8402      9     0.00   0.62760   3 ;    H8S-   C18-   C17-   H7R
  8400   8398   8401   8403      9     0.00   0.62760   3 ;    H8S-   C18-   C17-   H7S
  8400   8398   8401   8404      9     0.00   0.66944   3 ;    H8S-   C18-   C17-   C16
  8401   8404   8407   8408      9     0.00   0.66944   3 ;    C17-   C16-   C15-   H5R
  8401   8404   8407   8409      9     0.00   0.66944   3 ;    C17-   C16-   C15-   H5S
  8401   8404   8407   8410      9     0.00   0.41840   1 ;    C17-   C16-   C15-   C14
  8401   8404   8407   8410      9     0.00   0.41840   2 ;    C17-   C16-   C15-   C14
  8401   8404   8407   8410      9     0.00   0.41840   4 ;    C17-   C16-   C15-   C14
  8401   8404   8407   8410      9     0.00   0.41840   5 ;    C17-   C16-   C15-   C14
  8401   8404   8407   8410      9     0.00   1.25520   3 ;    C17-   C16-   C15-   C14
  8402   8401   8404   8405      9     0.00   0.62760   3 ;    H7R-   C17-   C16-   H6R
  8402   8401   8404   8406      9     0.00   0.62760   3 ;    H7R-   C17-   C16-   H6S
  8402   8401   8404   8407      9     0.00   0.66944   3 ;    H7R-   C17-   C16-   C15
  8403   8401   8404   8405      9     0.00   0.62760   3 ;    H7S-   C17-   C16-   H6R
  8403   8401   8404   8406      9     0.00   0.62760   3 ;    H7S-   C17-   C16-   H6S
  8403   8401   8404   8407      9     0.00   0.66944   3 ;    H7S-   C17-   C16-   C15
  8404   8407   8410   8411      9     0.00   0.66944   3 ;    C16-   C15-   C14-   H4R
  8404   8407   8410   8412      9     0.00   0.66944   3 ;    C16-   C15-   C14-   H4S
  8404   8407   8410   8413      9     0.00   0.41840   1 ;    C16-   C15-   C14-   C13
  8404   8407   8410   8413      9     0.00   0.41840   2 ;    C16-   C15-   C14-   C13
  8404   8407   8410   8413      9     0.00   0.41840   4 ;    C16-   C15-   C14-   C13
  8404   8407   8410   8413      9     0.00   0.41840   5 ;    C16-   C15-   C14-   C13
  8404   8407   8410   8413      9     0.00   1.25520   3 ;    C16-   C15-   C14-   C13
  8405   8404   8407   8408      9     0.00   0.62760   3 ;    H6R-   C16-   C15-   H5R
  8405   8404   8407   8409      9     0.00   0.62760   3 ;    H6R-   C16-   C15-   H5S
  8405   8404   8407   8410      9     0.00   0.66944   3 ;    H6R-   C16-   C15-   C14
  8406   8404   8407   8408      9     0.00   0.62760   3 ;    H6S-   C16-   C15-   H5R
  8406   8404   8407   8409      9     0.00   0.62760   3 ;    H6S-   C16-   C15-   H5S
  8406   8404   8407   8410      9     0.00   0.66944   3 ;    H6S-   C16-   C15-   C14
  8407   8410   8413   8414      9     0.00   0.66944   3 ;    C15-   C14-   C13-   H3R
  8407   8410   8413   8415      9     0.00   0.66944   3 ;    C15-   C14-   C13-   H3S
  8407   8410   8413   8416      9     0.00   0.41840   1 ;    C15-   C14-   C13-   C12
  8407   8410   8413   8416      9     0.00   0.41840   2 ;    C15-   C14-   C13-   C12
  8407   8410   8413   8416      9     0.00   0.41840   4 ;    C15-   C14-   C13-   C12
  8407   8410   8413   8416      9     0.00   0.41840   5 ;    C15-   C14-   C13-   C12
  8407   8410   8413   8416      9     0.00   1.25520   3 ;    C15-   C14-   C13-   C12
  8408   8407   8410   8411      9     0.00   0.62760   3 ;    H5R-   C15-   C14-   H4R
  8408   8407   8410   8412      9     0.00   0.62760   3 ;    H5R-   C15-   C14-   H4S
  8408   8407   8410   8413      9     0.00   0.66944   3 ;    H5R-   C15-   C14-   C13
  8409   8407   8410   8411      9     0.00   0.62760   3 ;    H5S-   C15-   C14-   H4R
  8409   8407   8410   8412      9     0.00   0.62760   3 ;    H5S-   C15-   C14-   H4S
  8409   8407   8410   8413      9     0.00   0.66944   3 ;    H5S-   C15-   C14-   C13
  8410   8413   8416   8417      9     0.00   0.66944   3 ;    C14-   C13-   C12-   H2R
  8410   8413   8416   8418      9     0.00   0.66944   3 ;    C14-   C13-   C12-   H2S
  8410   8413   8416   8419      9     0.00   0.65270   3 ;    C14-   C13-   C12-   C11
  8411   8410   8413   8414      9     0.00   0.62760   3 ;    H4R-   C14-   C13-   H3R
  8411   8410   8413   8415      9     0.00   0.62760   3 ;    H4R-   C14-   C13-   H3S
  8411   8410   8413   8416      9     0.00   0.66944   3 ;    H4R-   C14-   C13-   C12
  8412   8410   8413   8414      9     0.00   0.62760   3 ;    H4S-   C14-   C13-   H3R
  8412   8410   8413   8415      9     0.00   0.62760   3 ;    H4S-   C14-   C13-   H3S
  8412   8410   8413   8416      9     0.00   0.66944   3 ;    H4S-   C14-   C13-   C12
  8413   8416   8419   8420      9   180.00   0.00000   2 ;    C13-   C12-   C11-   O12
  8413   8416   8419   8421      9   180.00   0.00000   2 ;    C13-   C12-   C11-   O11
  8414   8413   8416   8417      9     0.00   0.62760   3 ;    H3R-   C13-   C12-   H2R
  8414   8413   8416   8418      9     0.00   0.62760   3 ;    H3R-   C13-   C12-   H2S
  8414   8413   8416   8419      9     0.00   0.65270   3 ;    H3R-   C13-   C12-   C11
  8415   8413   8416   8417      9     0.00   0.62760   3 ;    H3S-   C13-   C12-   H2R
  8415   8413   8416   8418      9     0.00   0.62760   3 ;    H3S-   C13-   C12-   H2S
  8415   8413   8416   8419      9     0.00   0.65270   3 ;    H3S-   C13-   C12-   C11
  8416   8419   8421   8422      9   180.00  11.29680   2 ;    C12-   C11-   O11-    C1
  8417   8416   8419   8420      9     0.00   3.34720   1 ;    H2R-   C12-   C11-   O12
  8417   8416   8419   8420      9   180.00   0.33472   3 ;    H2R-   C12-   C11-   O12
  8417   8416   8419   8421      9   180.00   0.00000   2 ;    H2R-   C12-   C11-   O11
  8418   8416   8419   8420      9     0.00   3.34720   1 ;    H2S-   C12-   C11-   O12
  8418   8416   8419   8420      9   180.00   0.33472   3 ;    H2S-   C12-   C11-   O12
  8418   8416   8419   8421      9   180.00   0.00000   2 ;    H2S-   C12-   C11-   O11
  8419   8421   8422   8423      9     0.00   1.60247   3 ;    C11-   O11-    C1-    HR
  8419   8421   8422   8424      9     0.00   1.60247   3 ;    C11-   O11-    C1-    HS
  8419   8421   8422   8425      9     0.00  -0.41840   1 ;    C11-   O11-    C1-    C2
  8420   8419   8421   8422      9   180.00   5.85760   1 ;    O12-   C11-   O11-    C1
  8420   8419   8421   8422      9   180.00  11.29680   2 ;    O12-   C11-   O11-    C1
  8421   8422   8425   8426      9     0.00   0.00000   0 ;    O11-    C1-    C2-    HX
  8421   8422   8425   8426      9     0.00   1.04600   1 ;    O11-    C1-    C2-    HX
  8421   8422   8425   8427      9     0.00   0.00000   0 ;    O11-    C1-    C2-    C3
  8421   8422   8425   8427      9     0.00   0.00000   0 ;    O11-    C1-    C2-    C3
  8421   8422   8425   8427      9     0.00   0.00000   0 ;    O11-    C1-    C2-    C3
  8421   8422   8425   8427      9     0.00   0.00000   0 ;    O11-    C1-    C2-    C3
  8421   8422   8425   8427      9     0.00   0.00000   0 ;    O11-    C1-    C2-    C3
  8421   8422   8425   8454      9     0.00   1.25520   2 ;    O11-    C1-    C2-   O21
  8421   8422   8425   8454      9     0.00   4.18400   3 ;    O11-    C1-    C2-   O21
  8421   8422   8425   8454      9   180.00  -0.41840   1 ;    O11-    C1-    C2-   O21
  8422   8425   8427   8428      9     0.00   0.65270   3 ;     C1-    C2-    C3-    HA
  8422   8425   8427   8429      9     0.00   0.65270   3 ;     C1-    C2-    C3-    HB
  8422   8425   8427   8430      9   180.00   3.34720   1 ;     C1-    C2-    C3-   O31
  8422   8425   8454   8455      9     0.00  -0.41840   1 ;     C1-    C2-   O21-   C21
  8423   8422   8425   8426      9     0.00   0.65270   3 ;     HR-    C1-    C2-    HX
  8423   8422   8425   8427      9     0.00   0.65270   3 ;     HR-    C1-    C2-    C3
  8423   8422   8425   8454      9     0.00   0.00000   0 ;     HR-    C1-    C2-   O21
  8423   8422   8425   8454      9     0.00   1.04600   1 ;     HR-    C1-    C2-   O21
  8424   8422   8425   8426      9     0.00   0.65270   3 ;     HS-    C1-    C2-    HX
  8424   8422   8425   8427      9     0.00   0.65270   3 ;     HS-    C1-    C2-    C3
  8424   8422   8425   8454      9     0.00   0.00000   0 ;     HS-    C1-    C2-   O21
  8424   8422   8425   8454      9     0.00   1.04600   1 ;     HS-    C1-    C2-   O21
  8425   8427   8430   8431      9     0.00   0.00000   0 ;     C2-    C3-   O31-   P31
  8425   8427   8430   8431      9   180.00  -3.34720   2 ;     C2-    C3-   O31-   P31
  8425   8454   8455   8456      9   180.00   5.85760   1 ;     C2-   O21-   C21-   O22
  8425   8454   8455   8456      9   180.00  11.29680   2 ;     C2-   O21-   C21-   O22
  8425   8454   8455   8494      9   180.00  11.29680   2 ;     C2-   O21-   C21-   C12
  8426   8425   8427   8428      9     0.00   0.65270   3 ;     HX-    C2-    C3-    HA
  8426   8425   8427   8429      9     0.00   0.65270   3 ;     HX-    C2-    C3-    HB
  8426   8425   8427   8430      9     0.00   0.00000   0 ;     HX-    C2-    C3-   O31
  8426   8425   8427   8430      9     0.00   1.04600   1 ;     HX-    C2-    C3-   O31
  8426   8425   8454   8455      9     0.00   1.60247   3 ;     HX-    C2-   O21-   C21
  8427   8425   8454   8455      9     0.00  -0.41840   1 ;     C3-    C2-   O21-   C21
  8427   8430   8431   8432      9     0.00   2.51040   3 ;     C3-   O31-   P31-   O32
  8427   8430   8431   8432      9     0.00   9.62320   2 ;     C3-   O31-   P31-   O32
  8427   8430   8431   8452      9     0.00   0.00000   0 ;     C3-   O31-   P31-   O33
  8427   8430   8431   8452      9     0.00   0.00000   0 ;     C3-   O31-   P31-   O33
  8427   8430   8431   8452      9     0.00   0.00000   0 ;     C3-   O31-   P31-   O33
  8427   8430   8431   8452      9     0.00   0.00000   0 ;     C3-   O31-   P31-   O33
  8427   8430   8431   8452      9     0.00   0.83680   2 ;     C3-   O31-   P31-   O33
  8427   8430   8431   8453      9     0.00   0.00000   0 ;     C3-   O31-   P31-   O34
  8427   8430   8431   8453      9     0.00   0.00000   0 ;     C3-   O31-   P31-   O34
  8427   8430   8431   8453      9     0.00   0.00000   0 ;     C3-   O31-   P31-   O34
  8427   8430   8431   8453      9     0.00   0.00000   0 ;     C3-   O31-   P31-   O34
  8427   8430   8431   8453      9     0.00   0.83680   2 ;     C3-   O31-   P31-   O34
  8428   8427   8425   8454      9     0.00   0.00000   0 ;     HA-    C3-    C2-   O21
  8428   8427   8425   8454      9     0.00   1.04600   1 ;     HA-    C3-    C2-   O21
  8428   8427   8430   8431      9     0.00   0.00000   0 ;     HA-    C3-   O31-   P31
  8428   8427   8430   8431      9     0.00   0.00000   0 ;     HA-    C3-   O31-   P31
  8428   8427   8430   8431      9     0.00   0.00000   0 ;     HA-    C3-   O31-   P31
  8428   8427   8430   8431      9     0.00   0.00000   0 ;     HA-    C3-   O31-   P31
  8428   8427   8430   8431      9     0.00   1.60247   3 ;     HA-    C3-   O31-   P31
  8429   8427   8425   8454      9     0.00   0.00000   0 ;     HB-    C3-    C2-   O21
  8429   8427   8425   8454      9     0.00   1.04600   1 ;     HB-    C3-    C2-   O21
  8429   8427   8430   8431      9     0.00   0.00000   0 ;     HB-    C3-   O31-   P31
  8429   8427   8430   8431      9     0.00   0.00000   0 ;     HB-    C3-   O31-   P31
  8429   8427   8430   8431      9     0.00   0.00000   0 ;     HB-    C3-   O31-   P31
  8429   8427   8430   8431      9     0.00   0.00000   0 ;     HB-    C3-   O31-   P31
  8429   8427   8430   8431      9     0.00   1.60247   3 ;     HB-    C3-   O31-   P31
  8430   8427   8425   8454      9     0.00   0.00000   0 ;    O31-    C3-    C2-   O21
  8430   8427   8425   8454      9     0.00   0.00000   0 ;    O31-    C3-    C2-   O21
  8430   8427   8425   8454      9     0.00   0.00000   0 ;    O31-    C3-    C2-   O21
  8430   8427   8425   8454      9     0.00   0.00000   0 ;    O31-    C3-    C2-   O21
  8430   8427   8425   8454      9     0.00   0.00000   0 ;    O31-    C3-    C2-   O21
  8430   8431   8432   8433      9     0.00   2.51040   3 ;    O31-   P31-   O32-   C31
  8430   8431   8432   8433      9     0.00   9.62320   2 ;    O31-   P31-   O32-   C31
  8431   8432   8433   8434      9     0.00   0.00000   0 ;    P31-   O32-   C31-   H1A
  8431   8432   8433   8434      9     0.00   0.00000   0 ;    P31-   O32-   C31-   H1A
  8431   8432   8433   8434      9     0.00   0.00000   0 ;    P31-   O32-   C31-   H1A
  8431   8432   8433   8434      9     0.00   0.00000   0 ;    P31-   O32-   C31-   H1A
  8431   8432   8433   8434      9     0.00   1.60247   3 ;    P31-   O32-   C31-   H1A
  8431   8432   8433   8435      9     0.00   0.00000   0 ;    P31-   O32-   C31-   H1B
  8431   8432   8433   8435      9     0.00   0.00000   0 ;    P31-   O32-   C31-   H1B
  8431   8432   8433   8435      9     0.00   0.00000   0 ;    P31-   O32-   C31-   H1B
  8431   8432   8433   8435      9     0.00   0.00000   0 ;    P31-   O32-   C31-   H1B
  8431   8432   8433   8435      9     0.00   1.60247   3 ;    P31-   O32-   C31-   H1B
  8431   8432   8433   8436      9     0.00   0.00000   0 ;    P31-   O32-   C31-   C32
  8431   8432   8433   8436      9   180.00  -3.34720   2 ;    P31-   O32-   C31-   C32
  8432   8433   8436   8437      9     0.00   0.65270   3 ;    O32-   C31-   C32-   H2A
  8432   8433   8436   8438      9     0.00   0.65270   3 ;    O32-   C31-   C32-   H2B
  8432   8433   8436   8439      9     0.00   4.18400   3 ;    O32-   C31-   C32-   N31
  8433   8432   8431   8452      9     0.00   0.00000   0 ;    C31-   O32-   P31-   O33
  8433   8432   8431   8452      9     0.00   0.00000   0 ;    C31-   O32-   P31-   O33
  8433   8432   8431   8452      9     0.00   0.00000   0 ;    C31-   O32-   P31-   O33
  8433   8432   8431   8452      9     0.00   0.00000   0 ;    C31-   O32-   P31-   O33
  8433   8432   8431   8452      9     0.00   0.83680   2 ;    C31-   O32-   P31-   O33
  8433   8432   8431   8453      9     0.00   0.00000   0 ;    C31-   O32-   P31-   O34
  8433   8432   8431   8453      9     0.00   0.00000   0 ;    C31-   O32-   P31-   O34
  8433   8432   8431   8453      9     0.00   0.00000   0 ;    C31-   O32-   P31-   O34
  8433   8432   8431   8453      9     0.00   0.00000   0 ;    C31-   O32-   P31-   O34
  8433   8432   8431   8453      9     0.00   0.83680   2 ;    C31-   O32-   P31-   O34
  8433   8436   8439   8440      9     0.00   0.65270   3 ;    C31-   C32-   N31-   C33
  8433   8436   8439   8444      9     0.00   0.65270   3 ;    C31-   C32-   N31-   C34
  8433   8436   8439   8448      9     0.00   0.65270   3 ;    C31-   C32-   N31-   C35
  8434   8433   8436   8437      9     0.00   0.65270   3 ;    H1A-   C31-   C32-   H2A
  8434   8433   8436   8438      9     0.00   0.65270   3 ;    H1A-   C31-   C32-   H2B
  8434   8433   8436   8439      9     0.00   0.65270   3 ;    H1A-   C31-   C32-   N31
  8435   8433   8436   8437      9     0.00   0.65270   3 ;    H1B-   C31-   C32-   H2A
  8435   8433   8436   8438      9     0.00   0.65270   3 ;    H1B-   C31-   C32-   H2B
  8435   8433   8436   8439      9     0.00   0.65270   3 ;    H1B-   C31-   C32-   N31
  8436   8439   8440   8441      9     0.00   0.65270   3 ;    C32-   N31-   C33-   H3A
  8436   8439   8440   8442      9     0.00   0.65270   3 ;    C32-   N31-   C33-   H3B
  8436   8439   8440   8443      9     0.00   0.65270   3 ;    C32-   N31-   C33-   H3C
  8436   8439   8444   8445      9     0.00   0.65270   3 ;    C32-   N31-   C34-   H4A
  8436   8439   8444   8446      9     0.00   0.65270   3 ;    C32-   N31-   C34-   H4B
  8436   8439   8444   8447      9     0.00   0.65270   3 ;    C32-   N31-   C34-   H4C
  8436   8439   8448   8449      9     0.00   0.65270   3 ;    C32-   N31-   C35-   H5A
  8436   8439   8448   8450      9     0.00   0.65270   3 ;    C32-   N31-   C35-   H5B
  8436   8439   8448   8451      9     0.00   0.65270   3 ;    C32-   N31-   C35-   H5C
  8437   8436   8439   8440      9     0.00   0.65270   3 ;    H2A-   C32-   N31-   C33
  8437   8436   8439   8444      9     0.00   0.65270   3 ;    H2A-   C32-   N31-   C34
  8437   8436   8439   8448      9     0.00   0.65270   3 ;    H2A-   C32-   N31-   C35
  8438   8436   8439   8440      9     0.00   0.65270   3 ;    H2B-   C32-   N31-   C33
  8438   8436   8439   8444      9     0.00   0.65270   3 ;    H2B-   C32-   N31-   C34
  8438   8436   8439   8448      9     0.00   0.65270   3 ;    H2B-   C32-   N31-   C35
  8440   8439   8444   8445      9     0.00   0.65270   3 ;    C33-   N31-   C34-   H4A
  8440   8439   8444   8446      9     0.00   0.65270   3 ;    C33-   N31-   C34-   H4B
  8440   8439   8444   8447      9     0.00   0.65270   3 ;    C33-   N31-   C34-   H4C
  8440   8439   8448   8449      9     0.00   0.65270   3 ;    C33-   N31-   C35-   H5A
  8440   8439   8448   8450      9     0.00   0.65270   3 ;    C33-   N31-   C35-   H5B
  8440   8439   8448   8451      9     0.00   0.65270   3 ;    C33-   N31-   C35-   H5C
  8441   8440   8439   8444      9     0.00   0.65270   3 ;    H3A-   C33-   N31-   C34
  8441   8440   8439   8448      9     0.00   0.65270   3 ;    H3A-   C33-   N31-   C35
  8442   8440   8439   8444      9     0.00   0.65270   3 ;    H3B-   C33-   N31-   C34
  8442   8440   8439   8448      9     0.00   0.65270   3 ;    H3B-   C33-   N31-   C35
  8443   8440   8439   8444      9     0.00   0.65270   3 ;    H3C-   C33-   N31-   C34
  8443   8440   8439   8448      9     0.00   0.65270   3 ;    H3C-   C33-   N31-   C35
  8444   8439   8448   8449      9     0.00   0.65270   3 ;    C34-   N31-   C35-   H5A
  8444   8439   8448   8450      9     0.00   0.65270   3 ;    C34-   N31-   C35-   H5B
  8444   8439   8448   8451      9     0.00   0.65270   3 ;    C34-   N31-   C35-   H5C
  8445   8444   8439   8448      9     0.00   0.65270   3 ;    H4A-   C34-   N31-   C35
  8446   8444   8439   8448      9     0.00   0.65270   3 ;    H4B-   C34-   N31-   C35
  8447   8444   8439   8448      9     0.00   0.65270   3 ;    H4C-   C34-   N31-   C35
  8454   8455   8494   8491      9   180.00   0.00000   2 ;    O21-   C21-   C12-   C13
  8454   8455   8494   8495      9   180.00   0.00000   2 ;    O21-   C21-   C12-   H2R
  8454   8455   8494   8496      9   180.00   0.00000   2 ;    O21-   C21-   C12-   H2S
  8455   8494   8491   8488      9     0.00   0.65270   3 ;    C21-   C12-   C13-   C14
  8455   8494   8491   8492      9     0.00   0.65270   3 ;    C21-   C12-   C13-   H3R
  8455   8494   8491   8493      9     0.00   0.65270   3 ;    C21-   C12-   C13-   H3S
  8456   8455   8494   8491      9   180.00   0.00000   2 ;    O22-   C21-   C12-   C13
  8456   8455   8494   8495      9     0.00   3.34720   1 ;    O22-   C21-   C12-   H2R
  8456   8455   8494   8495      9   180.00   0.33472   3 ;    O22-   C21-   C12-   H2R
  8456   8455   8494   8496      9     0.00   3.34720   1 ;    O22-   C21-   C12-   H2S
  8456   8455   8494   8496      9   180.00   0.33472   3 ;    O22-   C21-   C12-   H2S
  8457   8458   8461   8462      9     0.00   0.62760   3 ;   H14T-  C114-  C113-  H13R
  8457   8458   8461   8463      9     0.00   0.62760   3 ;   H14T-  C114-  C113-  H13S
  8457   8458   8461   8464      9     0.00   0.66944   3 ;   H14T-  C114-  C113-  C112
  8458   8461   8464   8465      9     0.00   0.66944   3 ;   C114-  C113-  C112-  H12R
  8458   8461   8464   8466      9     0.00   0.66944   3 ;   C114-  C113-  C112-  H12S
  8458   8461   8464   8467      9     0.00   0.41840   1 ;   C114-  C113-  C112-  C111
  8458   8461   8464   8467      9     0.00   0.41840   2 ;   C114-  C113-  C112-  C111
  8458   8461   8464   8467      9     0.00   0.41840   4 ;   C114-  C113-  C112-  C111
  8458   8461   8464   8467      9     0.00   0.41840   5 ;   C114-  C113-  C112-  C111
  8458   8461   8464   8467      9     0.00   1.25520   3 ;   C114-  C113-  C112-  C111
  8459   8458   8461   8462      9     0.00   0.62760   3 ;   H14R-  C114-  C113-  H13R
  8459   8458   8461   8463      9     0.00   0.62760   3 ;   H14R-  C114-  C113-  H13S
  8459   8458   8461   8464      9     0.00   0.66944   3 ;   H14R-  C114-  C113-  C112
  8460   8458   8461   8462      9     0.00   0.62760   3 ;   H14S-  C114-  C113-  H13R
  8460   8458   8461   8463      9     0.00   0.62760   3 ;   H14S-  C114-  C113-  H13S
  8460   8458   8461   8464      9     0.00   0.66944   3 ;   H14S-  C114-  C113-  C112
  8461   8464   8467   8468      9     0.00   0.66944   3 ;   C113-  C112-  C111-  H11R
  8461   8464   8467   8469      9     0.00   0.66944   3 ;   C113-  C112-  C111-  H11S
  8461   8464   8467   8470      9     0.00   0.41840   1 ;   C113-  C112-  C111-  C110
  8461   8464   8467   8470      9     0.00   0.41840   2 ;   C113-  C112-  C111-  C110
  8461   8464   8467   8470      9     0.00   0.41840   4 ;   C113-  C112-  C111-  C110
  8461   8464   8467   8470      9     0.00   0.41840   5 ;   C113-  C112-  C111-  C110
  8461   8464   8467   8470      9     0.00   1.25520   3 ;   C113-  C112-  C111-  C110
  8462   8461   8464   8465      9     0.00   0.62760   3 ;   H13R-  C113-  C112-  H12R
  8462   8461   8464   8466      9     0.00   0.62760   3 ;   H13R-  C113-  C112-  H12S
  8462   8461   8464   8467      9     0.00   0.66944   3 ;   H13R-  C113-  C112-  C111
  8463   8461   8464   8465      9     0.00   0.62760   3 ;   H13S-  C113-  C112-  H12R
  8463   8461   8464   8466      9     0.00   0.62760   3 ;   H13S-  C113-  C112-  H12S
  8463   8461   8464   8467      9     0.00   0.66944   3 ;   H13S-  C113-  C112-  C111
  8464   8467   8470   8471      9     0.00   0.66944   3 ;   C112-  C111-  C110-  H10R
  8464   8467   8470   8472      9     0.00   0.66944   3 ;   C112-  C111-  C110-  H10S
  8464   8467   8470   8473      9     0.00   0.41840   1 ;   C112-  C111-  C110-   C19
  8464   8467   8470   8473      9     0.00   0.41840   2 ;   C112-  C111-  C110-   C19
  8464   8467   8470   8473      9     0.00   0.41840   4 ;   C112-  C111-  C110-   C19
  8464   8467   8470   8473      9     0.00   0.41840   5 ;   C112-  C111-  C110-   C19
  8464   8467   8470   8473      9     0.00   1.25520   3 ;   C112-  C111-  C110-   C19
  8465   8464   8467   8468      9     0.00   0.62760   3 ;   H12R-  C112-  C111-  H11R
  8465   8464   8467   8469      9     0.00   0.62760   3 ;   H12R-  C112-  C111-  H11S
  8465   8464   8467   8470      9     0.00   0.66944   3 ;   H12R-  C112-  C111-  C110
  8466   8464   8467   8468      9     0.00   0.62760   3 ;   H12S-  C112-  C111-  H11R
  8466   8464   8467   8469      9     0.00   0.62760   3 ;   H12S-  C112-  C111-  H11S
  8466   8464   8467   8470      9     0.00   0.66944   3 ;   H12S-  C112-  C111-  C110
  8467   8470   8473   8474      9     0.00   0.66944   3 ;   C111-  C110-   C19-   H9R
  8467   8470   8473   8475      9     0.00   0.66944   3 ;   C111-  C110-   C19-   H9S
  8467   8470   8473   8476      9     0.00   0.41840   1 ;   C111-  C110-   C19-   C18
  8467   8470   8473   8476      9     0.00   0.41840   2 ;   C111-  C110-   C19-   C18
  8467   8470   8473   8476      9     0.00   0.41840   4 ;   C111-  C110-   C19-   C18
  8467   8470   8473   8476      9     0.00   0.41840   5 ;   C111-  C110-   C19-   C18
  8467   8470   8473   8476      9     0.00   1.25520   3 ;   C111-  C110-   C19-   C18
  8468   8467   8470   8471      9     0.00   0.62760   3 ;   H11R-  C111-  C110-  H10R
  8468   8467   8470   8472      9     0.00   0.62760   3 ;   H11R-  C111-  C110-  H10S
  8468   8467   8470   8473      9     0.00   0.66944   3 ;   H11R-  C111-  C110-   C19
  8469   8467   8470   8471      9     0.00   0.62760   3 ;   H11S-  C111-  C110-  H10R
  8469   8467   8470   8472      9     0.00   0.62760   3 ;   H11S-  C111-  C110-  H10S
  8469   8467   8470   8473      9     0.00   0.66944   3 ;   H11S-  C111-  C110-   C19
  8470   8473   8476   8477      9     0.00   0.66944   3 ;   C110-   C19-   C18-   H8R
  8470   8473   8476   8478      9     0.00   0.66944   3 ;   C110-   C19-   C18-   H8S
  8470   8473   8476   8479      9     0.00   0.41840   1 ;   C110-   C19-   C18-   C17
  8470   8473   8476   8479      9     0.00   0.41840   2 ;   C110-   C19-   C18-   C17
  8470   8473   8476   8479      9     0.00   0.41840   4 ;   C110-   C19-   C18-   C17
  8470   8473   8476   8479      9     0.00   0.41840   5 ;   C110-   C19-   C18-   C17
  8470   8473   8476   8479      9     0.00   1.25520   3 ;   C110-   C19-   C18-   C17
  8471   8470   8473   8474      9     0.00   0.62760   3 ;   H10R-  C110-   C19-   H9R
  8471   8470   8473   8475      9     0.00   0.62760   3 ;   H10R-  C110-   C19-   H9S
  8471   8470   8473   8476      9     0.00   0.66944   3 ;   H10R-  C110-   C19-   C18
  8472   8470   8473   8474      9     0.00   0.62760   3 ;   H10S-  C110-   C19-   H9R
  8472   8470   8473   8475      9     0.00   0.62760   3 ;   H10S-  C110-   C19-   H9S
  8472   8470   8473   8476      9     0.00   0.66944   3 ;   H10S-  C110-   C19-   C18
  8473   8476   8479   8480      9     0.00   0.66944   3 ;    C19-   C18-   C17-   H7R
  8473   8476   8479   8481      9     0.00   0.66944   3 ;    C19-   C18-   C17-   H7S
  8473   8476   8479   8482      9     0.00   0.41840   1 ;    C19-   C18-   C17-   C16
  8473   8476   8479   8482      9     0.00   0.41840   2 ;    C19-   C18-   C17-   C16
  8473   8476   8479   8482      9     0.00   0.41840   4 ;    C19-   C18-   C17-   C16
  8473   8476   8479   8482      9     0.00   0.41840   5 ;    C19-   C18-   C17-   C16
  8473   8476   8479   8482      9     0.00   1.25520   3 ;    C19-   C18-   C17-   C16
  8474   8473   8476   8477      9     0.00   0.62760   3 ;    H9R-   C19-   C18-   H8R
  8474   8473   8476   8478      9     0.00   0.62760   3 ;    H9R-   C19-   C18-   H8S
  8474   8473   8476   8479      9     0.00   0.66944   3 ;    H9R-   C19-   C18-   C17
  8475   8473   8476   8477      9     0.00   0.62760   3 ;    H9S-   C19-   C18-   H8R
  8475   8473   8476   8478      9     0.00   0.62760   3 ;    H9S-   C19-   C18-   H8S
  8475   8473   8476   8479      9     0.00   0.66944   3 ;    H9S-   C19-   C18-   C17
  8476   8479   8482   8483      9     0.00   0.66944   3 ;    C18-   C17-   C16-   H6R
  8476   8479   8482   8484      9     0.00   0.66944   3 ;    C18-   C17-   C16-   H6S
  8476   8479   8482   8485      9     0.00   0.41840   1 ;    C18-   C17-   C16-   C15
  8476   8479   8482   8485      9     0.00   0.41840   2 ;    C18-   C17-   C16-   C15
  8476   8479   8482   8485      9     0.00   0.41840   4 ;    C18-   C17-   C16-   C15
  8476   8479   8482   8485      9     0.00   0.41840   5 ;    C18-   C17-   C16-   C15
  8476   8479   8482   8485      9     0.00   1.25520   3 ;    C18-   C17-   C16-   C15
  8477   8476   8479   8480      9     0.00   0.62760   3 ;    H8R-   C18-   C17-   H7R
  8477   8476   8479   8481      9     0.00   0.62760   3 ;    H8R-   C18-   C17-   H7S
  8477   8476   8479   8482      9     0.00   0.66944   3 ;    H8R-   C18-   C17-   C16
  8478   8476   8479   8480      9     0.00   0.62760   3 ;    H8S-   C18-   C17-   H7R
  8478   8476   8479   8481      9     0.00   0.62760   3 ;    H8S-   C18-   C17-   H7S
  8478   8476   8479   8482      9     0.00   0.66944   3 ;    H8S-   C18-   C17-   C16
  8479   8482   8485   8486      9     0.00   0.66944   3 ;    C17-   C16-   C15-   H5R
  8479   8482   8485   8487      9     0.00   0.66944   3 ;    C17-   C16-   C15-   H5S
  8479   8482   8485   8488      9     0.00   0.41840   1 ;    C17-   C16-   C15-   C14
  8479   8482   8485   8488      9     0.00   0.41840   2 ;    C17-   C16-   C15-   C14
  8479   8482   8485   8488      9     0.00   0.41840   4 ;    C17-   C16-   C15-   C14
  8479   8482   8485   8488      9     0.00   0.41840   5 ;    C17-   C16-   C15-   C14
  8479   8482   8485   8488      9     0.00   1.25520   3 ;    C17-   C16-   C15-   C14
  8480   8479   8482   8483      9     0.00   0.62760   3 ;    H7R-   C17-   C16-   H6R
  8480   8479   8482   8484      9     0.00   0.62760   3 ;    H7R-   C17-   C16-   H6S
  8480   8479   8482   8485      9     0.00   0.66944   3 ;    H7R-   C17-   C16-   C15
  8481   8479   8482   8483      9     0.00   0.62760   3 ;    H7S-   C17-   C16-   H6R
  8481   8479   8482   8484      9     0.00   0.62760   3 ;    H7S-   C17-   C16-   H6S
  8481   8479   8482   8485      9     0.00   0.66944   3 ;    H7S-   C17-   C16-   C15
  8482   8485   8488   8489      9     0.00   0.66944   3 ;    C16-   C15-   C14-   H4R
  8482   8485   8488   8490      9     0.00   0.66944   3 ;    C16-   C15-   C14-   H4S
  8482   8485   8488   8491      9     0.00   0.41840   1 ;    C16-   C15-   C14-   C13
  8482   8485   8488   8491      9     0.00   0.41840   2 ;    C16-   C15-   C14-   C13
  8482   8485   8488   8491      9     0.00   0.41840   4 ;    C16-   C15-   C14-   C13
  8482   8485   8488   8491      9     0.00   0.41840   5 ;    C16-   C15-   C14-   C13
  8482   8485   8488   8491      9     0.00   1.25520   3 ;    C16-   C15-   C14-   C13
  8483   8482   8485   8486      9     0.00   0.62760   3 ;    H6R-   C16-   C15-   H5R
  8483   8482   8485   8487      9     0.00   0.62760   3 ;    H6R-   C16-   C15-   H5S
  8483   8482   8485   8488      9     0.00   0.66944   3 ;    H6R-   C16-   C15-   C14
  8484   8482   8485   8486      9     0.00   0.62760   3 ;    H6S-   C16-   C15-   H5R
  8484   8482   8485   8487      9     0.00   0.62760   3 ;    H6S-   C16-   C15-   H5S
  8484   8482   8485   8488      9     0.00   0.66944   3 ;    H6S-   C16-   C15-   C14
  8485   8488   8491   8492      9     0.00   0.66944   3 ;    C15-   C14-   C13-   H3R
  8485   8488   8491   8493      9     0.00   0.66944   3 ;    C15-   C14-   C13-   H3S
  8485   8488   8491   8494      9     0.00   0.41840   1 ;    C15-   C14-   C13-   C12
  8485   8488   8491   8494      9     0.00   0.41840   2 ;    C15-   C14-   C13-   C12
  8485   8488   8491   8494      9     0.00   0.41840   4 ;    C15-   C14-   C13-   C12
  8485   8488   8491   8494      9     0.00   0.41840   5 ;    C15-   C14-   C13-   C12
  8485   8488   8491   8494      9     0.00   1.25520   3 ;    C15-   C14-   C13-   C12
  8486   8485   8488   8489      9     0.00   0.62760   3 ;    H5R-   C15-   C14-   H4R
  8486   8485   8488   8490      9     0.00   0.62760   3 ;    H5R-   C15-   C14-   H4S
  8486   8485   8488   8491      9     0.00   0.66944   3 ;    H5R-   C15-   C14-   C13
  8487   8485   8488   8489      9     0.00   0.62760   3 ;    H5S-   C15-   C14-   H4R
  8487   8485   8488   8490      9     0.00   0.62760   3 ;    H5S-   C15-   C14-   H4S
  8487   8485   8488   8491      9     0.00   0.66944   3 ;    H5S-   C15-   C14-   C13
  8488   8491   8494   8495      9     0.00   0.66944   3 ;    C14-   C13-   C12-   H2R
  8488   8491   8494   8496      9     0.00   0.66944   3 ;    C14-   C13-   C12-   H2S
  8489   8488   8491   8492      9     0.00   0.62760   3 ;    H4R-   C14-   C13-   H3R
  8489   8488   8491   8493      9     0.00   0.62760   3 ;    H4R-   C14-   C13-   H3S
  8489   8488   8491   8494      9     0.00   0.66944   3 ;    H4R-   C14-   C13-   C12
  8490   8488   8491   8492      9     0.00   0.62760   3 ;    H4S-   C14-   C13-   H3R
  8490   8488   8491   8493      9     0.00   0.62760   3 ;    H4S-   C14-   C13-   H3S
  8490   8488   8491   8494      9     0.00   0.66944   3 ;    H4S-   C14-   C13-   C12
  8492   8491   8494   8495      9     0.00   0.62760   3 ;    H3R-   C13-   C12-   H2R
  8492   8491   8494   8496      9     0.00   0.62760   3 ;    H3R-   C13-   C12-   H2S
  8493   8491   8494   8495      9     0.00   0.62760   3 ;    H3S-   C13-   C12-   H2R
  8493   8491   8494   8496      9     0.00   0.62760   3 ;    H3S-   C13-   C12-   H2S
  8497   8498   8501   8502      9     0.00   0.62760   3 ;   H14T-  C114-  C113-  H13R
  8497   8498   8501   8503      9     0.00   0.62760   3 ;   H14T-  C114-  C113-  H13S
  8497   8498   8501   8504      9     0.00   0.66944   3 ;   H14T-  C114-  C113-  C112
  8498   8501   8504   8505      9     0.00   0.66944   3 ;   C114-  C113-  C112-  H12R
  8498   8501   8504   8506      9     0.00   0.66944   3 ;   C114-  C113-  C112-  H12S
  8498   8501   8504   8507      9     0.00   0.41840   1 ;   C114-  C113-  C112-  C111
  8498   8501   8504   8507      9     0.00   0.41840   2 ;   C114-  C113-  C112-  C111
  8498   8501   8504   8507      9     0.00   0.41840   4 ;   C114-  C113-  C112-  C111
  8498   8501   8504   8507      9     0.00   0.41840   5 ;   C114-  C113-  C112-  C111
  8498   8501   8504   8507      9     0.00   1.25520   3 ;   C114-  C113-  C112-  C111
  8499   8498   8501   8502      9     0.00   0.62760   3 ;   H14R-  C114-  C113-  H13R
  8499   8498   8501   8503      9     0.00   0.62760   3 ;   H14R-  C114-  C113-  H13S
  8499   8498   8501   8504      9     0.00   0.66944   3 ;   H14R-  C114-  C113-  C112
  8500   8498   8501   8502      9     0.00   0.62760   3 ;   H14S-  C114-  C113-  H13R
  8500   8498   8501   8503      9     0.00   0.62760   3 ;   H14S-  C114-  C113-  H13S
  8500   8498   8501   8504      9     0.00   0.66944   3 ;   H14S-  C114-  C113-  C112
  8501   8504   8507   8508      9     0.00   0.66944   3 ;   C113-  C112-  C111-  H11R
  8501   8504   8507   8509      9     0.00   0.66944   3 ;   C113-  C112-  C111-  H11S
  8501   8504   8507   8510      9     0.00   0.41840   1 ;   C113-  C112-  C111-  C110
  8501   8504   8507   8510      9     0.00   0.41840   2 ;   C113-  C112-  C111-  C110
  8501   8504   8507   8510      9     0.00   0.41840   4 ;   C113-  C112-  C111-  C110
  8501   8504   8507   8510      9     0.00   0.41840   5 ;   C113-  C112-  C111-  C110
  8501   8504   8507   8510      9     0.00   1.25520   3 ;   C113-  C112-  C111-  C110
  8502   8501   8504   8505      9     0.00   0.62760   3 ;   H13R-  C113-  C112-  H12R
  8502   8501   8504   8506      9     0.00   0.62760   3 ;   H13R-  C113-  C112-  H12S
  8502   8501   8504   8507      9     0.00   0.66944   3 ;   H13R-  C113-  C112-  C111
  8503   8501   8504   8505      9     0.00   0.62760   3 ;   H13S-  C113-  C112-  H12R
  8503   8501   8504   8506      9     0.00   0.62760   3 ;   H13S-  C113-  C112-  H12S
  8503   8501   8504   8507      9     0.00   0.66944   3 ;   H13S-  C113-  C112-  C111
  8504   8507   8510   8511      9     0.00   0.66944   3 ;   C112-  C111-  C110-  H10R
  8504   8507   8510   8512      9     0.00   0.66944   3 ;   C112-  C111-  C110-  H10S
  8504   8507   8510   8513      9     0.00   0.41840   1 ;   C112-  C111-  C110-   C19
  8504   8507   8510   8513      9     0.00   0.41840   2 ;   C112-  C111-  C110-   C19
  8504   8507   8510   8513      9     0.00   0.41840   4 ;   C112-  C111-  C110-   C19
  8504   8507   8510   8513      9     0.00   0.41840   5 ;   C112-  C111-  C110-   C19
  8504   8507   8510   8513      9     0.00   1.25520   3 ;   C112-  C111-  C110-   C19
  8505   8504   8507   8508      9     0.00   0.62760   3 ;   H12R-  C112-  C111-  H11R
  8505   8504   8507   8509      9     0.00   0.62760   3 ;   H12R-  C112-  C111-  H11S
  8505   8504   8507   8510      9     0.00   0.66944   3 ;   H12R-  C112-  C111-  C110
  8506   8504   8507   8508      9     0.00   0.62760   3 ;   H12S-  C112-  C111-  H11R
  8506   8504   8507   8509      9     0.00   0.62760   3 ;   H12S-  C112-  C111-  H11S
  8506   8504   8507   8510      9     0.00   0.66944   3 ;   H12S-  C112-  C111-  C110
  8507   8510   8513   8514      9     0.00   0.66944   3 ;   C111-  C110-   C19-   H9R
  8507   8510   8513   8515      9     0.00   0.66944   3 ;   C111-  C110-   C19-   H9S
  8507   8510   8513   8516      9     0.00   0.41840   1 ;   C111-  C110-   C19-   C18
  8507   8510   8513   8516      9     0.00   0.41840   2 ;   C111-  C110-   C19-   C18
  8507   8510   8513   8516      9     0.00   0.41840   4 ;   C111-  C110-   C19-   C18
  8507   8510   8513   8516      9     0.00   0.41840   5 ;   C111-  C110-   C19-   C18
  8507   8510   8513   8516      9     0.00   1.25520   3 ;   C111-  C110-   C19-   C18
  8508   8507   8510   8511      9     0.00   0.62760   3 ;   H11R-  C111-  C110-  H10R
  8508   8507   8510   8512      9     0.00   0.62760   3 ;   H11R-  C111-  C110-  H10S
  8508   8507   8510   8513      9     0.00   0.66944   3 ;   H11R-  C111-  C110-   C19
  8509   8507   8510   8511      9     0.00   0.62760   3 ;   H11S-  C111-  C110-  H10R
  8509   8507   8510   8512      9     0.00   0.62760   3 ;   H11S-  C111-  C110-  H10S
  8509   8507   8510   8513      9     0.00   0.66944   3 ;   H11S-  C111-  C110-   C19
  8510   8513   8516   8517      9     0.00   0.66944   3 ;   C110-   C19-   C18-   H8R
  8510   8513   8516   8518      9     0.00   0.66944   3 ;   C110-   C19-   C18-   H8S
  8510   8513   8516   8519      9     0.00   0.41840   1 ;   C110-   C19-   C18-   C17
  8510   8513   8516   8519      9     0.00   0.41840   2 ;   C110-   C19-   C18-   C17
  8510   8513   8516   8519      9     0.00   0.41840   4 ;   C110-   C19-   C18-   C17
  8510   8513   8516   8519      9     0.00   0.41840   5 ;   C110-   C19-   C18-   C17
  8510   8513   8516   8519      9     0.00   1.25520   3 ;   C110-   C19-   C18-   C17
  8511   8510   8513   8514      9     0.00   0.62760   3 ;   H10R-  C110-   C19-   H9R
  8511   8510   8513   8515      9     0.00   0.62760   3 ;   H10R-  C110-   C19-   H9S
  8511   8510   8513   8516      9     0.00   0.66944   3 ;   H10R-  C110-   C19-   C18
  8512   8510   8513   8514      9     0.00   0.62760   3 ;   H10S-  C110-   C19-   H9R
  8512   8510   8513   8515      9     0.00   0.62760   3 ;   H10S-  C110-   C19-   H9S
  8512   8510   8513   8516      9     0.00   0.66944   3 ;   H10S-  C110-   C19-   C18
  8513   8516   8519   8520      9     0.00   0.66944   3 ;    C19-   C18-   C17-   H7R
  8513   8516   8519   8521      9     0.00   0.66944   3 ;    C19-   C18-   C17-   H7S
  8513   8516   8519   8522      9     0.00   0.41840   1 ;    C19-   C18-   C17-   C16
  8513   8516   8519   8522      9     0.00   0.41840   2 ;    C19-   C18-   C17-   C16
  8513   8516   8519   8522      9     0.00   0.41840   4 ;    C19-   C18-   C17-   C16
  8513   8516   8519   8522      9     0.00   0.41840   5 ;    C19-   C18-   C17-   C16
  8513   8516   8519   8522      9     0.00   1.25520   3 ;    C19-   C18-   C17-   C16
  8514   8513   8516   8517      9     0.00   0.62760   3 ;    H9R-   C19-   C18-   H8R
  8514   8513   8516   8518      9     0.00   0.62760   3 ;    H9R-   C19-   C18-   H8S
  8514   8513   8516   8519      9     0.00   0.66944   3 ;    H9R-   C19-   C18-   C17
  8515   8513   8516   8517      9     0.00   0.62760   3 ;    H9S-   C19-   C18-   H8R
  8515   8513   8516   8518      9     0.00   0.62760   3 ;    H9S-   C19-   C18-   H8S
  8515   8513   8516   8519      9     0.00   0.66944   3 ;    H9S-   C19-   C18-   C17
  8516   8519   8522   8523      9     0.00   0.66944   3 ;    C18-   C17-   C16-   H6R
  8516   8519   8522   8524      9     0.00   0.66944   3 ;    C18-   C17-   C16-   H6S
  8516   8519   8522   8525      9     0.00   0.41840   1 ;    C18-   C17-   C16-   C15
  8516   8519   8522   8525      9     0.00   0.41840   2 ;    C18-   C17-   C16-   C15
  8516   8519   8522   8525      9     0.00   0.41840   4 ;    C18-   C17-   C16-   C15
  8516   8519   8522   8525      9     0.00   0.41840   5 ;    C18-   C17-   C16-   C15
  8516   8519   8522   8525      9     0.00   1.25520   3 ;    C18-   C17-   C16-   C15
  8517   8516   8519   8520      9     0.00   0.62760   3 ;    H8R-   C18-   C17-   H7R
  8517   8516   8519   8521      9     0.00   0.62760   3 ;    H8R-   C18-   C17-   H7S
  8517   8516   8519   8522      9     0.00   0.66944   3 ;    H8R-   C18-   C17-   C16
  8518   8516   8519   8520      9     0.00   0.62760   3 ;    H8S-   C18-   C17-   H7R
  8518   8516   8519   8521      9     0.00   0.62760   3 ;    H8S-   C18-   C17-   H7S
  8518   8516   8519   8522      9     0.00   0.66944   3 ;    H8S-   C18-   C17-   C16
  8519   8522   8525   8526      9     0.00   0.66944   3 ;    C17-   C16-   C15-   H5R
  8519   8522   8525   8527      9     0.00   0.66944   3 ;    C17-   C16-   C15-   H5S
  8519   8522   8525   8528      9     0.00   0.41840   1 ;    C17-   C16-   C15-   C14
  8519   8522   8525   8528      9     0.00   0.41840   2 ;    C17-   C16-   C15-   C14
  8519   8522   8525   8528      9     0.00   0.41840   4 ;    C17-   C16-   C15-   C14
  8519   8522   8525   8528      9     0.00   0.41840   5 ;    C17-   C16-   C15-   C14
  8519   8522   8525   8528      9     0.00   1.25520   3 ;    C17-   C16-   C15-   C14
  8520   8519   8522   8523      9     0.00   0.62760   3 ;    H7R-   C17-   C16-   H6R
  8520   8519   8522   8524      9     0.00   0.62760   3 ;    H7R-   C17-   C16-   H6S
  8520   8519   8522   8525      9     0.00   0.66944   3 ;    H7R-   C17-   C16-   C15
  8521   8519   8522   8523      9     0.00   0.62760   3 ;    H7S-   C17-   C16-   H6R
  8521   8519   8522   8524      9     0.00   0.62760   3 ;    H7S-   C17-   C16-   H6S
  8521   8519   8522   8525      9     0.00   0.66944   3 ;    H7S-   C17-   C16-   C15
  8522   8525   8528   8529      9     0.00   0.66944   3 ;    C16-   C15-   C14-   H4R
  8522   8525   8528   8530      9     0.00   0.66944   3 ;    C16-   C15-   C14-   H4S
  8522   8525   8528   8531      9     0.00   0.41840   1 ;    C16-   C15-   C14-   C13
  8522   8525   8528   8531      9     0.00   0.41840   2 ;    C16-   C15-   C14-   C13
  8522   8525   8528   8531      9     0.00   0.41840   4 ;    C16-   C15-   C14-   C13
  8522   8525   8528   8531      9     0.00   0.41840   5 ;    C16-   C15-   C14-   C13
  8522   8525   8528   8531      9     0.00   1.25520   3 ;    C16-   C15-   C14-   C13
  8523   8522   8525   8526      9     0.00   0.62760   3 ;    H6R-   C16-   C15-   H5R
  8523   8522   8525   8527      9     0.00   0.62760   3 ;    H6R-   C16-   C15-   H5S
  8523   8522   8525   8528      9     0.00   0.66944   3 ;    H6R-   C16-   C15-   C14
  8524   8522   8525   8526      9     0.00   0.62760   3 ;    H6S-   C16-   C15-   H5R
  8524   8522   8525   8527      9     0.00   0.62760   3 ;    H6S-   C16-   C15-   H5S
  8524   8522   8525   8528      9     0.00   0.66944   3 ;    H6S-   C16-   C15-   C14
  8525   8528   8531   8532      9     0.00   0.66944   3 ;    C15-   C14-   C13-   H3R
  8525   8528   8531   8533      9     0.00   0.66944   3 ;    C15-   C14-   C13-   H3S
  8525   8528   8531   8534      9     0.00   0.41840   1 ;    C15-   C14-   C13-   C12
  8525   8528   8531   8534      9     0.00   0.41840   2 ;    C15-   C14-   C13-   C12
  8525   8528   8531   8534      9     0.00   0.41840   4 ;    C15-   C14-   C13-   C12
  8525   8528   8531   8534      9     0.00   0.41840   5 ;    C15-   C14-   C13-   C12
  8525   8528   8531   8534      9     0.00   1.25520   3 ;    C15-   C14-   C13-   C12
  8526   8525   8528   8529      9     0.00   0.62760   3 ;    H5R-   C15-   C14-   H4R
  8526   8525   8528   8530      9     0.00   0.62760   3 ;    H5R-   C15-   C14-   H4S
  8526   8525   8528   8531      9     0.00   0.66944   3 ;    H5R-   C15-   C14-   C13
  8527   8525   8528   8529      9     0.00   0.62760   3 ;    H5S-   C15-   C14-   H4R
  8527   8525   8528   8530      9     0.00   0.62760   3 ;    H5S-   C15-   C14-   H4S
  8527   8525   8528   8531      9     0.00   0.66944   3 ;    H5S-   C15-   C14-   C13
  8528   8531   8534   8535      9     0.00   0.66944   3 ;    C14-   C13-   C12-   H2R
  8528   8531   8534   8536      9     0.00   0.66944   3 ;    C14-   C13-   C12-   H2S
  8528   8531   8534   8537      9     0.00   0.65270   3 ;    C14-   C13-   C12-   C11
  8529   8528   8531   8532      9     0.00   0.62760   3 ;    H4R-   C14-   C13-   H3R
  8529   8528   8531   8533      9     0.00   0.62760   3 ;    H4R-   C14-   C13-   H3S
  8529   8528   8531   8534      9     0.00   0.66944   3 ;    H4R-   C14-   C13-   C12
  8530   8528   8531   8532      9     0.00   0.62760   3 ;    H4S-   C14-   C13-   H3R
  8530   8528   8531   8533      9     0.00   0.62760   3 ;    H4S-   C14-   C13-   H3S
  8530   8528   8531   8534      9     0.00   0.66944   3 ;    H4S-   C14-   C13-   C12
  8531   8534   8537   8538      9   180.00   0.00000   2 ;    C13-   C12-   C11-   O12
  8531   8534   8537   8539      9   180.00   0.00000   2 ;    C13-   C12-   C11-   O11
  8532   8531   8534   8535      9     0.00   0.62760   3 ;    H3R-   C13-   C12-   H2R
  8532   8531   8534   8536      9     0.00   0.62760   3 ;    H3R-   C13-   C12-   H2S
  8532   8531   8534   8537      9     0.00   0.65270   3 ;    H3R-   C13-   C12-   C11
  8533   8531   8534   8535      9     0.00   0.62760   3 ;    H3S-   C13-   C12-   H2R
  8533   8531   8534   8536      9     0.00   0.62760   3 ;    H3S-   C13-   C12-   H2S
  8533   8531   8534   8537      9     0.00   0.65270   3 ;    H3S-   C13-   C12-   C11
  8534   8537   8539   8540      9   180.00  11.29680   2 ;    C12-   C11-   O11-    C1
  8535   8534   8537   8538      9     0.00   3.34720   1 ;    H2R-   C12-   C11-   O12
  8535   8534   8537   8538      9   180.00   0.33472   3 ;    H2R-   C12-   C11-   O12
  8535   8534   8537   8539      9   180.00   0.00000   2 ;    H2R-   C12-   C11-   O11
  8536   8534   8537   8538      9     0.00   3.34720   1 ;    H2S-   C12-   C11-   O12
  8536   8534   8537   8538      9   180.00   0.33472   3 ;    H2S-   C12-   C11-   O12
  8536   8534   8537   8539      9   180.00   0.00000   2 ;    H2S-   C12-   C11-   O11
  8537   8539   8540   8541      9     0.00   1.60247   3 ;    C11-   O11-    C1-    HR
  8537   8539   8540   8542      9     0.00   1.60247   3 ;    C11-   O11-    C1-    HS
  8537   8539   8540   8543      9     0.00  -0.41840   1 ;    C11-   O11-    C1-    C2
  8538   8537   8539   8540      9   180.00   5.85760   1 ;    O12-   C11-   O11-    C1
  8538   8537   8539   8540      9   180.00  11.29680   2 ;    O12-   C11-   O11-    C1
  8539   8540   8543   8544      9     0.00   0.00000   0 ;    O11-    C1-    C2-    HX
  8539   8540   8543   8544      9     0.00   1.04600   1 ;    O11-    C1-    C2-    HX
  8539   8540   8543   8545      9     0.00   0.00000   0 ;    O11-    C1-    C2-    C3
  8539   8540   8543   8545      9     0.00   0.00000   0 ;    O11-    C1-    C2-    C3
  8539   8540   8543   8545      9     0.00   0.00000   0 ;    O11-    C1-    C2-    C3
  8539   8540   8543   8545      9     0.00   0.00000   0 ;    O11-    C1-    C2-    C3
  8539   8540   8543   8545      9     0.00   0.00000   0 ;    O11-    C1-    C2-    C3
  8539   8540   8543   8572      9     0.00   1.25520   2 ;    O11-    C1-    C2-   O21
  8539   8540   8543   8572      9     0.00   4.18400   3 ;    O11-    C1-    C2-   O21
  8539   8540   8543   8572      9   180.00  -0.41840   1 ;    O11-    C1-    C2-   O21
  8540   8543   8545   8546      9     0.00   0.65270   3 ;     C1-    C2-    C3-    HA
  8540   8543   8545   8547      9     0.00   0.65270   3 ;     C1-    C2-    C3-    HB
  8540   8543   8545   8548      9   180.00   3.34720   1 ;     C1-    C2-    C3-   O31
  8540   8543   8572   8573      9     0.00  -0.41840   1 ;     C1-    C2-   O21-   C21
  8541   8540   8543   8544      9     0.00   0.65270   3 ;     HR-    C1-    C2-    HX
  8541   8540   8543   8545      9     0.00   0.65270   3 ;     HR-    C1-    C2-    C3
  8541   8540   8543   8572      9     0.00   0.00000   0 ;     HR-    C1-    C2-   O21
  8541   8540   8543   8572      9     0.00   1.04600   1 ;     HR-    C1-    C2-   O21
  8542   8540   8543   8544      9     0.00   0.65270   3 ;     HS-    C1-    C2-    HX
  8542   8540   8543   8545      9     0.00   0.65270   3 ;     HS-    C1-    C2-    C3
  8542   8540   8543   8572      9     0.00   0.00000   0 ;     HS-    C1-    C2-   O21
  8542   8540   8543   8572      9     0.00   1.04600   1 ;     HS-    C1-    C2-   O21
  8543   8545   8548   8549      9     0.00   0.00000   0 ;     C2-    C3-   O31-   P31
  8543   8545   8548   8549      9   180.00  -3.34720   2 ;     C2-    C3-   O31-   P31
  8543   8572   8573   8574      9   180.00   5.85760   1 ;     C2-   O21-   C21-   O22
  8543   8572   8573   8574      9   180.00  11.29680   2 ;     C2-   O21-   C21-   O22
  8543   8572   8573   8612      9   180.00  11.29680   2 ;     C2-   O21-   C21-   C12
  8544   8543   8545   8546      9     0.00   0.65270   3 ;     HX-    C2-    C3-    HA
  8544   8543   8545   8547      9     0.00   0.65270   3 ;     HX-    C2-    C3-    HB
  8544   8543   8545   8548      9     0.00   0.00000   0 ;     HX-    C2-    C3-   O31
  8544   8543   8545   8548      9     0.00   1.04600   1 ;     HX-    C2-    C3-   O31
  8544   8543   8572   8573      9     0.00   1.60247   3 ;     HX-    C2-   O21-   C21
  8545   8543   8572   8573      9     0.00  -0.41840   1 ;     C3-    C2-   O21-   C21
  8545   8548   8549   8550      9     0.00   2.51040   3 ;     C3-   O31-   P31-   O32
  8545   8548   8549   8550      9     0.00   9.62320   2 ;     C3-   O31-   P31-   O32
  8545   8548   8549   8570      9     0.00   0.00000   0 ;     C3-   O31-   P31-   O33
  8545   8548   8549   8570      9     0.00   0.00000   0 ;     C3-   O31-   P31-   O33
  8545   8548   8549   8570      9     0.00   0.00000   0 ;     C3-   O31-   P31-   O33
  8545   8548   8549   8570      9     0.00   0.00000   0 ;     C3-   O31-   P31-   O33
  8545   8548   8549   8570      9     0.00   0.83680   2 ;     C3-   O31-   P31-   O33
  8545   8548   8549   8571      9     0.00   0.00000   0 ;     C3-   O31-   P31-   O34
  8545   8548   8549   8571      9     0.00   0.00000   0 ;     C3-   O31-   P31-   O34
  8545   8548   8549   8571      9     0.00   0.00000   0 ;     C3-   O31-   P31-   O34
  8545   8548   8549   8571      9     0.00   0.00000   0 ;     C3-   O31-   P31-   O34
  8545   8548   8549   8571      9     0.00   0.83680   2 ;     C3-   O31-   P31-   O34
  8546   8545   8543   8572      9     0.00   0.00000   0 ;     HA-    C3-    C2-   O21
  8546   8545   8543   8572      9     0.00   1.04600   1 ;     HA-    C3-    C2-   O21
  8546   8545   8548   8549      9     0.00   0.00000   0 ;     HA-    C3-   O31-   P31
  8546   8545   8548   8549      9     0.00   0.00000   0 ;     HA-    C3-   O31-   P31
  8546   8545   8548   8549      9     0.00   0.00000   0 ;     HA-    C3-   O31-   P31
  8546   8545   8548   8549      9     0.00   0.00000   0 ;     HA-    C3-   O31-   P31
  8546   8545   8548   8549      9     0.00   1.60247   3 ;     HA-    C3-   O31-   P31
  8547   8545   8543   8572      9     0.00   0.00000   0 ;     HB-    C3-    C2-   O21
  8547   8545   8543   8572      9     0.00   1.04600   1 ;     HB-    C3-    C2-   O21
  8547   8545   8548   8549      9     0.00   0.00000   0 ;     HB-    C3-   O31-   P31
  8547   8545   8548   8549      9     0.00   0.00000   0 ;     HB-    C3-   O31-   P31
  8547   8545   8548   8549      9     0.00   0.00000   0 ;     HB-    C3-   O31-   P31
  8547   8545   8548   8549      9     0.00   0.00000   0 ;     HB-    C3-   O31-   P31
  8547   8545   8548   8549      9     0.00   1.60247   3 ;     HB-    C3-   O31-   P31
  8548   8545   8543   8572      9     0.00   0.00000   0 ;    O31-    C3-    C2-   O21
  8548   8545   8543   8572      9     0.00   0.00000   0 ;    O31-    C3-    C2-   O21
  8548   8545   8543   8572      9     0.00   0.00000   0 ;    O31-    C3-    C2-   O21
  8548   8545   8543   8572      9     0.00   0.00000   0 ;    O31-    C3-    C2-   O21
  8548   8545   8543   8572      9     0.00   0.00000   0 ;    O31-    C3-    C2-   O21
  8548   8549   8550   8551      9     0.00   2.51040   3 ;    O31-   P31-   O32-   C31
  8548   8549   8550   8551      9     0.00   9.62320   2 ;    O31-   P31-   O32-   C31
  8549   8550   8551   8552      9     0.00   0.00000   0 ;    P31-   O32-   C31-   H1A
  8549   8550   8551   8552      9     0.00   0.00000   0 ;    P31-   O32-   C31-   H1A
  8549   8550   8551   8552      9     0.00   0.00000   0 ;    P31-   O32-   C31-   H1A
  8549   8550   8551   8552      9     0.00   0.00000   0 ;    P31-   O32-   C31-   H1A
  8549   8550   8551   8552      9     0.00   1.60247   3 ;    P31-   O32-   C31-   H1A
  8549   8550   8551   8553      9     0.00   0.00000   0 ;    P31-   O32-   C31-   H1B
  8549   8550   8551   8553      9     0.00   0.00000   0 ;    P31-   O32-   C31-   H1B
  8549   8550   8551   8553      9     0.00   0.00000   0 ;    P31-   O32-   C31-   H1B
  8549   8550   8551   8553      9     0.00   0.00000   0 ;    P31-   O32-   C31-   H1B
  8549   8550   8551   8553      9     0.00   1.60247   3 ;    P31-   O32-   C31-   H1B
  8549   8550   8551   8554      9     0.00   0.00000   0 ;    P31-   O32-   C31-   C32
  8549   8550   8551   8554      9   180.00  -3.34720   2 ;    P31-   O32-   C31-   C32
  8550   8551   8554   8555      9     0.00   0.65270   3 ;    O32-   C31-   C32-   H2A
  8550   8551   8554   8556      9     0.00   0.65270   3 ;    O32-   C31-   C32-   H2B
  8550   8551   8554   8557      9     0.00   4.18400   3 ;    O32-   C31-   C32-   N31
  8551   8550   8549   8570      9     0.00   0.00000   0 ;    C31-   O32-   P31-   O33
  8551   8550   8549   8570      9     0.00   0.00000   0 ;    C31-   O32-   P31-   O33
  8551   8550   8549   8570      9     0.00   0.00000   0 ;    C31-   O32-   P31-   O33
  8551   8550   8549   8570      9     0.00   0.00000   0 ;    C31-   O32-   P31-   O33
  8551   8550   8549   8570      9     0.00   0.83680   2 ;    C31-   O32-   P31-   O33
  8551   8550   8549   8571      9     0.00   0.00000   0 ;    C31-   O32-   P31-   O34
  8551   8550   8549   8571      9     0.00   0.00000   0 ;    C31-   O32-   P31-   O34
  8551   8550   8549   8571      9     0.00   0.00000   0 ;    C31-   O32-   P31-   O34
  8551   8550   8549   8571      9     0.00   0.00000   0 ;    C31-   O32-   P31-   O34
  8551   8550   8549   8571      9     0.00   0.83680   2 ;    C31-   O32-   P31-   O34
  8551   8554   8557   8558      9     0.00   0.65270   3 ;    C31-   C32-   N31-   C33
  8551   8554   8557   8562      9     0.00   0.65270   3 ;    C31-   C32-   N31-   C34
  8551   8554   8557   8566      9     0.00   0.65270   3 ;    C31-   C32-   N31-   C35
  8552   8551   8554   8555      9     0.00   0.65270   3 ;    H1A-   C31-   C32-   H2A
  8552   8551   8554   8556      9     0.00   0.65270   3 ;    H1A-   C31-   C32-   H2B
  8552   8551   8554   8557      9     0.00   0.65270   3 ;    H1A-   C31-   C32-   N31
  8553   8551   8554   8555      9     0.00   0.65270   3 ;    H1B-   C31-   C32-   H2A
  8553   8551   8554   8556      9     0.00   0.65270   3 ;    H1B-   C31-   C32-   H2B
  8553   8551   8554   8557      9     0.00   0.65270   3 ;    H1B-   C31-   C32-   N31
  8554   8557   8558   8559      9     0.00   0.65270   3 ;    C32-   N31-   C33-   H3A
  8554   8557   8558   8560      9     0.00   0.65270   3 ;    C32-   N31-   C33-   H3B
  8554   8557   8558   8561      9     0.00   0.65270   3 ;    C32-   N31-   C33-   H3C
  8554   8557   8562   8563      9     0.00   0.65270   3 ;    C32-   N31-   C34-   H4A
  8554   8557   8562   8564      9     0.00   0.65270   3 ;    C32-   N31-   C34-   H4B
  8554   8557   8562   8565      9     0.00   0.65270   3 ;    C32-   N31-   C34-   H4C
  8554   8557   8566   8567      9     0.00   0.65270   3 ;    C32-   N31-   C35-   H5A
  8554   8557   8566   8568      9     0.00   0.65270   3 ;    C32-   N31-   C35-   H5B
  8554   8557   8566   8569      9     0.00   0.65270   3 ;    C32-   N31-   C35-   H5C
  8555   8554   8557   8558      9     0.00   0.65270   3 ;    H2A-   C32-   N31-   C33
  8555   8554   8557   8562      9     0.00   0.65270   3 ;    H2A-   C32-   N31-   C34
  8555   8554   8557   8566      9     0.00   0.65270   3 ;    H2A-   C32-   N31-   C35
  8556   8554   8557   8558      9     0.00   0.65270   3 ;    H2B-   C32-   N31-   C33
  8556   8554   8557   8562      9     0.00   0.65270   3 ;    H2B-   C32-   N31-   C34
  8556   8554   8557   8566      9     0.00   0.65270   3 ;    H2B-   C32-   N31-   C35
  8558   8557   8562   8563      9     0.00   0.65270   3 ;    C33-   N31-   C34-   H4A
  8558   8557   8562   8564      9     0.00   0.65270   3 ;    C33-   N31-   C34-   H4B
  8558   8557   8562   8565      9     0.00   0.65270   3 ;    C33-   N31-   C34-   H4C
  8558   8557   8566   8567      9     0.00   0.65270   3 ;    C33-   N31-   C35-   H5A
  8558   8557   8566   8568      9     0.00   0.65270   3 ;    C33-   N31-   C35-   H5B
  8558   8557   8566   8569      9     0.00   0.65270   3 ;    C33-   N31-   C35-   H5C
  8559   8558   8557   8562      9     0.00   0.65270   3 ;    H3A-   C33-   N31-   C34
  8559   8558   8557   8566      9     0.00   0.65270   3 ;    H3A-   C33-   N31-   C35
  8560   8558   8557   8562      9     0.00   0.65270   3 ;    H3B-   C33-   N31-   C34
  8560   8558   8557   8566      9     0.00   0.65270   3 ;    H3B-   C33-   N31-   C35
  8561   8558   8557   8562      9     0.00   0.65270   3 ;    H3C-   C33-   N31-   C34
  8561   8558   8557   8566      9     0.00   0.65270   3 ;    H3C-   C33-   N31-   C35
  8562   8557   8566   8567      9     0.00   0.65270   3 ;    C34-   N31-   C35-   H5A
  8562   8557   8566   8568      9     0.00   0.65270   3 ;    C34-   N31-   C35-   H5B
  8562   8557   8566   8569      9     0.00   0.65270   3 ;    C34-   N31-   C35-   H5C
  8563   8562   8557   8566      9     0.00   0.65270   3 ;    H4A-   C34-   N31-   C35
  8564   8562   8557   8566      9     0.00   0.65270   3 ;    H4B-   C34-   N31-   C35
  8565   8562   8557   8566      9     0.00   0.65270   3 ;    H4C-   C34-   N31-   C35
  8572   8573   8612   8609      9   180.00   0.00000   2 ;    O21-   C21-   C12-   C13
  8572   8573   8612   8613      9   180.00   0.00000   2 ;    O21-   C21-   C12-   H2R
  8572   8573   8612   8614      9   180.00   0.00000   2 ;    O21-   C21-   C12-   H2S
  8573   8612   8609   8606      9     0.00   0.65270   3 ;    C21-   C12-   C13-   C14
  8573   8612   8609   8610      9     0.00   0.65270   3 ;    C21-   C12-   C13-   H3R
  8573   8612   8609   8611      9     0.00   0.65270   3 ;    C21-   C12-   C13-   H3S
  8574   8573   8612   8609      9   180.00   0.00000   2 ;    O22-   C21-   C12-   C13
  8574   8573   8612   8613      9     0.00   3.34720   1 ;    O22-   C21-   C12-   H2R
  8574   8573   8612   8613      9   180.00   0.33472   3 ;    O22-   C21-   C12-   H2R
  8574   8573   8612   8614      9     0.00   3.34720   1 ;    O22-   C21-   C12-   H2S
  8574   8573   8612   8614      9   180.00   0.33472   3 ;    O22-   C21-   C12-   H2S
  8575   8576   8579   8580      9     0.00   0.62760   3 ;   H14T-  C114-  C113-  H13R
  8575   8576   8579   8581      9     0.00   0.62760   3 ;   H14T-  C114-  C113-  H13S
  8575   8576   8579   8582      9     0.00   0.66944   3 ;   H14T-  C114-  C113-  C112
  8576   8579   8582   8583      9     0.00   0.66944   3 ;   C114-  C113-  C112-  H12R
  8576   8579   8582   8584      9     0.00   0.66944   3 ;   C114-  C113-  C112-  H12S
  8576   8579   8582   8585      9     0.00   0.41840   1 ;   C114-  C113-  C112-  C111
  8576   8579   8582   8585      9     0.00   0.41840   2 ;   C114-  C113-  C112-  C111
  8576   8579   8582   8585      9     0.00   0.41840   4 ;   C114-  C113-  C112-  C111
  8576   8579   8582   8585      9     0.00   0.41840   5 ;   C114-  C113-  C112-  C111
  8576   8579   8582   8585      9     0.00   1.25520   3 ;   C114-  C113-  C112-  C111
  8577   8576   8579   8580      9     0.00   0.62760   3 ;   H14R-  C114-  C113-  H13R
  8577   8576   8579   8581      9     0.00   0.62760   3 ;   H14R-  C114-  C113-  H13S
  8577   8576   8579   8582      9     0.00   0.66944   3 ;   H14R-  C114-  C113-  C112
  8578   8576   8579   8580      9     0.00   0.62760   3 ;   H14S-  C114-  C113-  H13R
  8578   8576   8579   8581      9     0.00   0.62760   3 ;   H14S-  C114-  C113-  H13S
  8578   8576   8579   8582      9     0.00   0.66944   3 ;   H14S-  C114-  C113-  C112
  8579   8582   8585   8586      9     0.00   0.66944   3 ;   C113-  C112-  C111-  H11R
  8579   8582   8585   8587      9     0.00   0.66944   3 ;   C113-  C112-  C111-  H11S
  8579   8582   8585   8588      9     0.00   0.41840   1 ;   C113-  C112-  C111-  C110
  8579   8582   8585   8588      9     0.00   0.41840   2 ;   C113-  C112-  C111-  C110
  8579   8582   8585   8588      9     0.00   0.41840   4 ;   C113-  C112-  C111-  C110
  8579   8582   8585   8588      9     0.00   0.41840   5 ;   C113-  C112-  C111-  C110
  8579   8582   8585   8588      9     0.00   1.25520   3 ;   C113-  C112-  C111-  C110
  8580   8579   8582   8583      9     0.00   0.62760   3 ;   H13R-  C113-  C112-  H12R
  8580   8579   8582   8584      9     0.00   0.62760   3 ;   H13R-  C113-  C112-  H12S
  8580   8579   8582   8585      9     0.00   0.66944   3 ;   H13R-  C113-  C112-  C111
  8581   8579   8582   8583      9     0.00   0.62760   3 ;   H13S-  C113-  C112-  H12R
  8581   8579   8582   8584      9     0.00   0.62760   3 ;   H13S-  C113-  C112-  H12S
  8581   8579   8582   8585      9     0.00   0.66944   3 ;   H13S-  C113-  C112-  C111
  8582   8585   8588   8589      9     0.00   0.66944   3 ;   C112-  C111-  C110-  H10R
  8582   8585   8588   8590      9     0.00   0.66944   3 ;   C112-  C111-  C110-  H10S
  8582   8585   8588   8591      9     0.00   0.41840   1 ;   C112-  C111-  C110-   C19
  8582   8585   8588   8591      9     0.00   0.41840   2 ;   C112-  C111-  C110-   C19
  8582   8585   8588   8591      9     0.00   0.41840   4 ;   C112-  C111-  C110-   C19
  8582   8585   8588   8591      9     0.00   0.41840   5 ;   C112-  C111-  C110-   C19
  8582   8585   8588   8591      9     0.00   1.25520   3 ;   C112-  C111-  C110-   C19
  8583   8582   8585   8586      9     0.00   0.62760   3 ;   H12R-  C112-  C111-  H11R
  8583   8582   8585   8587      9     0.00   0.62760   3 ;   H12R-  C112-  C111-  H11S
  8583   8582   8585   8588      9     0.00   0.66944   3 ;   H12R-  C112-  C111-  C110
  8584   8582   8585   8586      9     0.00   0.62760   3 ;   H12S-  C112-  C111-  H11R
  8584   8582   8585   8587      9     0.00   0.62760   3 ;   H12S-  C112-  C111-  H11S
  8584   8582   8585   8588      9     0.00   0.66944   3 ;   H12S-  C112-  C111-  C110
  8585   8588   8591   8592      9     0.00   0.66944   3 ;   C111-  C110-   C19-   H9R
  8585   8588   8591   8593      9     0.00   0.66944   3 ;   C111-  C110-   C19-   H9S
  8585   8588   8591   8594      9     0.00   0.41840   1 ;   C111-  C110-   C19-   C18
  8585   8588   8591   8594      9     0.00   0.41840   2 ;   C111-  C110-   C19-   C18
  8585   8588   8591   8594      9     0.00   0.41840   4 ;   C111-  C110-   C19-   C18
  8585   8588   8591   8594      9     0.00   0.41840   5 ;   C111-  C110-   C19-   C18
  8585   8588   8591   8594      9     0.00   1.25520   3 ;   C111-  C110-   C19-   C18
  8586   8585   8588   8589      9     0.00   0.62760   3 ;   H11R-  C111-  C110-  H10R
  8586   8585   8588   8590      9     0.00   0.62760   3 ;   H11R-  C111-  C110-  H10S
  8586   8585   8588   8591      9     0.00   0.66944   3 ;   H11R-  C111-  C110-   C19
  8587   8585   8588   8589      9     0.00   0.62760   3 ;   H11S-  C111-  C110-  H10R
  8587   8585   8588   8590      9     0.00   0.62760   3 ;   H11S-  C111-  C110-  H10S
  8587   8585   8588   8591      9     0.00   0.66944   3 ;   H11S-  C111-  C110-   C19
  8588   8591   8594   8595      9     0.00   0.66944   3 ;   C110-   C19-   C18-   H8R
  8588   8591   8594   8596      9     0.00   0.66944   3 ;   C110-   C19-   C18-   H8S
  8588   8591   8594   8597      9     0.00   0.41840   1 ;   C110-   C19-   C18-   C17
  8588   8591   8594   8597      9     0.00   0.41840   2 ;   C110-   C19-   C18-   C17
  8588   8591   8594   8597      9     0.00   0.41840   4 ;   C110-   C19-   C18-   C17
  8588   8591   8594   8597      9     0.00   0.41840   5 ;   C110-   C19-   C18-   C17
  8588   8591   8594   8597      9     0.00   1.25520   3 ;   C110-   C19-   C18-   C17
  8589   8588   8591   8592      9     0.00   0.62760   3 ;   H10R-  C110-   C19-   H9R
  8589   8588   8591   8593      9     0.00   0.62760   3 ;   H10R-  C110-   C19-   H9S
  8589   8588   8591   8594      9     0.00   0.66944   3 ;   H10R-  C110-   C19-   C18
  8590   8588   8591   8592      9     0.00   0.62760   3 ;   H10S-  C110-   C19-   H9R
  8590   8588   8591   8593      9     0.00   0.62760   3 ;   H10S-  C110-   C19-   H9S
  8590   8588   8591   8594      9     0.00   0.66944   3 ;   H10S-  C110-   C19-   C18
  8591   8594   8597   8598      9     0.00   0.66944   3 ;    C19-   C18-   C17-   H7R
  8591   8594   8597   8599      9     0.00   0.66944   3 ;    C19-   C18-   C17-   H7S
  8591   8594   8597   8600      9     0.00   0.41840   1 ;    C19-   C18-   C17-   C16
  8591   8594   8597   8600      9     0.00   0.41840   2 ;    C19-   C18-   C17-   C16
  8591   8594   8597   8600      9     0.00   0.41840   4 ;    C19-   C18-   C17-   C16
  8591   8594   8597   8600      9     0.00   0.41840   5 ;    C19-   C18-   C17-   C16
  8591   8594   8597   8600      9     0.00   1.25520   3 ;    C19-   C18-   C17-   C16
  8592   8591   8594   8595      9     0.00   0.62760   3 ;    H9R-   C19-   C18-   H8R
  8592   8591   8594   8596      9     0.00   0.62760   3 ;    H9R-   C19-   C18-   H8S
  8592   8591   8594   8597      9     0.00   0.66944   3 ;    H9R-   C19-   C18-   C17
  8593   8591   8594   8595      9     0.00   0.62760   3 ;    H9S-   C19-   C18-   H8R
  8593   8591   8594   8596      9     0.00   0.62760   3 ;    H9S-   C19-   C18-   H8S
  8593   8591   8594   8597      9     0.00   0.66944   3 ;    H9S-   C19-   C18-   C17
  8594   8597   8600   8601      9     0.00   0.66944   3 ;    C18-   C17-   C16-   H6R
  8594   8597   8600   8602      9     0.00   0.66944   3 ;    C18-   C17-   C16-   H6S
  8594   8597   8600   8603      9     0.00   0.41840   1 ;    C18-   C17-   C16-   C15
  8594   8597   8600   8603      9     0.00   0.41840   2 ;    C18-   C17-   C16-   C15
  8594   8597   8600   8603      9     0.00   0.41840   4 ;    C18-   C17-   C16-   C15
  8594   8597   8600   8603      9     0.00   0.41840   5 ;    C18-   C17-   C16-   C15
  8594   8597   8600   8603      9     0.00   1.25520   3 ;    C18-   C17-   C16-   C15
  8595   8594   8597   8598      9     0.00   0.62760   3 ;    H8R-   C18-   C17-   H7R
  8595   8594   8597   8599      9     0.00   0.62760   3 ;    H8R-   C18-   C17-   H7S
  8595   8594   8597   8600      9     0.00   0.66944   3 ;    H8R-   C18-   C17-   C16
  8596   8594   8597   8598      9     0.00   0.62760   3 ;    H8S-   C18-   C17-   H7R
  8596   8594   8597   8599      9     0.00   0.62760   3 ;    H8S-   C18-   C17-   H7S
  8596   8594   8597   8600      9     0.00   0.66944   3 ;    H8S-   C18-   C17-   C16
  8597   8600   8603   8604      9     0.00   0.66944   3 ;    C17-   C16-   C15-   H5R
  8597   8600   8603   8605      9     0.00   0.66944   3 ;    C17-   C16-   C15-   H5S
  8597   8600   8603   8606      9     0.00   0.41840   1 ;    C17-   C16-   C15-   C14
  8597   8600   8603   8606      9     0.00   0.41840   2 ;    C17-   C16-   C15-   C14
  8597   8600   8603   8606      9     0.00   0.41840   4 ;    C17-   C16-   C15-   C14
  8597   8600   8603   8606      9     0.00   0.41840   5 ;    C17-   C16-   C15-   C14
  8597   8600   8603   8606      9     0.00   1.25520   3 ;    C17-   C16-   C15-   C14
  8598   8597   8600   8601      9     0.00   0.62760   3 ;    H7R-   C17-   C16-   H6R
  8598   8597   8600   8602      9     0.00   0.62760   3 ;    H7R-   C17-   C16-   H6S
  8598   8597   8600   8603      9     0.00   0.66944   3 ;    H7R-   C17-   C16-   C15
  8599   8597   8600   8601      9     0.00   0.62760   3 ;    H7S-   C17-   C16-   H6R
  8599   8597   8600   8602      9     0.00   0.62760   3 ;    H7S-   C17-   C16-   H6S
  8599   8597   8600   8603      9     0.00   0.66944   3 ;    H7S-   C17-   C16-   C15
  8600   8603   8606   8607      9     0.00   0.66944   3 ;    C16-   C15-   C14-   H4R
  8600   8603   8606   8608      9     0.00   0.66944   3 ;    C16-   C15-   C14-   H4S
  8600   8603   8606   8609      9     0.00   0.41840   1 ;    C16-   C15-   C14-   C13
  8600   8603   8606   8609      9     0.00   0.41840   2 ;    C16-   C15-   C14-   C13
  8600   8603   8606   8609      9     0.00   0.41840   4 ;    C16-   C15-   C14-   C13
  8600   8603   8606   8609      9     0.00   0.41840   5 ;    C16-   C15-   C14-   C13
  8600   8603   8606   8609      9     0.00   1.25520   3 ;    C16-   C15-   C14-   C13
  8601   8600   8603   8604      9     0.00   0.62760   3 ;    H6R-   C16-   C15-   H5R
  8601   8600   8603   8605      9     0.00   0.62760   3 ;    H6R-   C16-   C15-   H5S
  8601   8600   8603   8606      9     0.00   0.66944   3 ;    H6R-   C16-   C15-   C14
  8602   8600   8603   8604      9     0.00   0.62760   3 ;    H6S-   C16-   C15-   H5R
  8602   8600   8603   8605      9     0.00   0.62760   3 ;    H6S-   C16-   C15-   H5S
  8602   8600   8603   8606      9     0.00   0.66944   3 ;    H6S-   C16-   C15-   C14
  8603   8606   8609   8610      9     0.00   0.66944   3 ;    C15-   C14-   C13-   H3R
  8603   8606   8609   8611      9     0.00   0.66944   3 ;    C15-   C14-   C13-   H3S
  8603   8606   8609   8612      9     0.00   0.41840   1 ;    C15-   C14-   C13-   C12
  8603   8606   8609   8612      9     0.00   0.41840   2 ;    C15-   C14-   C13-   C12
  8603   8606   8609   8612      9     0.00   0.41840   4 ;    C15-   C14-   C13-   C12
  8603   8606   8609   8612      9     0.00   0.41840   5 ;    C15-   C14-   C13-   C12
  8603   8606   8609   8612      9     0.00   1.25520   3 ;    C15-   C14-   C13-   C12
  8604   8603   8606   8607      9     0.00   0.62760   3 ;    H5R-   C15-   C14-   H4R
  8604   8603   8606   8608      9     0.00   0.62760   3 ;    H5R-   C15-   C14-   H4S
  8604   8603   8606   8609      9     0.00   0.66944   3 ;    H5R-   C15-   C14-   C13
  8605   8603   8606   8607      9     0.00   0.62760   3 ;    H5S-   C15-   C14-   H4R
  8605   8603   8606   8608      9     0.00   0.62760   3 ;    H5S-   C15-   C14-   H4S
  8605   8603   8606   8609      9     0.00   0.66944   3 ;    H5S-   C15-   C14-   C13
  8606   8609   8612   8613      9     0.00   0.66944   3 ;    C14-   C13-   C12-   H2R
  8606   8609   8612   8614      9     0.00   0.66944   3 ;    C14-   C13-   C12-   H2S
  8607   8606   8609   8610      9     0.00   0.62760   3 ;    H4R-   C14-   C13-   H3R
  8607   8606   8609   8611      9     0.00   0.62760   3 ;    H4R-   C14-   C13-   H3S
  8607   8606   8609   8612      9     0.00   0.66944   3 ;    H4R-   C14-   C13-   C12
  8608   8606   8609   8610      9     0.00   0.62760   3 ;    H4S-   C14-   C13-   H3R
  8608   8606   8609   8611      9     0.00   0.62760   3 ;    H4S-   C14-   C13-   H3S
  8608   8606   8609   8612      9     0.00   0.66944   3 ;    H4S-   C14-   C13-   C12
  8610   8609   8612   8613      9     0.00   0.62760   3 ;    H3R-   C13-   C12-   H2R
  8610   8609   8612   8614      9     0.00   0.62760   3 ;    H3R-   C13-   C12-   H2S
  8611   8609   8612   8613      9     0.00   0.62760   3 ;    H3S-   C13-   C12-   H2R
  8611   8609   8612   8614      9     0.00   0.62760   3 ;    H3S-   C13-   C12-   H2S
  8615   8616   8619   8620      9     0.00   0.62760   3 ;   H14T-  C114-  C113-  H13R
  8615   8616   8619   8621      9     0.00   0.62760   3 ;   H14T-  C114-  C113-  H13S
  8615   8616   8619   8622      9     0.00   0.66944   3 ;   H14T-  C114-  C113-  C112
  8616   8619   8622   8623      9     0.00   0.66944   3 ;   C114-  C113-  C112-  H12R
  8616   8619   8622   8624      9     0.00   0.66944   3 ;   C114-  C113-  C112-  H12S
  8616   8619   8622   8625      9     0.00   0.41840   1 ;   C114-  C113-  C112-  C111
  8616   8619   8622   8625      9     0.00   0.41840   2 ;   C114-  C113-  C112-  C111
  8616   8619   8622   8625      9     0.00   0.41840   4 ;   C114-  C113-  C112-  C111
  8616   8619   8622   8625      9     0.00   0.41840   5 ;   C114-  C113-  C112-  C111
  8616   8619   8622   8625      9     0.00   1.25520   3 ;   C114-  C113-  C112-  C111
  8617   8616   8619   8620      9     0.00   0.62760   3 ;   H14R-  C114-  C113-  H13R
  8617   8616   8619   8621      9     0.00   0.62760   3 ;   H14R-  C114-  C113-  H13S
  8617   8616   8619   8622      9     0.00   0.66944   3 ;   H14R-  C114-  C113-  C112
  8618   8616   8619   8620      9     0.00   0.62760   3 ;   H14S-  C114-  C113-  H13R
  8618   8616   8619   8621      9     0.00   0.62760   3 ;   H14S-  C114-  C113-  H13S
  8618   8616   8619   8622      9     0.00   0.66944   3 ;   H14S-  C114-  C113-  C112
  8619   8622   8625   8626      9     0.00   0.66944   3 ;   C113-  C112-  C111-  H11R
  8619   8622   8625   8627      9     0.00   0.66944   3 ;   C113-  C112-  C111-  H11S
  8619   8622   8625   8628      9     0.00   0.41840   1 ;   C113-  C112-  C111-  C110
  8619   8622   8625   8628      9     0.00   0.41840   2 ;   C113-  C112-  C111-  C110
  8619   8622   8625   8628      9     0.00   0.41840   4 ;   C113-  C112-  C111-  C110
  8619   8622   8625   8628      9     0.00   0.41840   5 ;   C113-  C112-  C111-  C110
  8619   8622   8625   8628      9     0.00   1.25520   3 ;   C113-  C112-  C111-  C110
  8620   8619   8622   8623      9     0.00   0.62760   3 ;   H13R-  C113-  C112-  H12R
  8620   8619   8622   8624      9     0.00   0.62760   3 ;   H13R-  C113-  C112-  H12S
  8620   8619   8622   8625      9     0.00   0.66944   3 ;   H13R-  C113-  C112-  C111
  8621   8619   8622   8623      9     0.00   0.62760   3 ;   H13S-  C113-  C112-  H12R
  8621   8619   8622   8624      9     0.00   0.62760   3 ;   H13S-  C113-  C112-  H12S
  8621   8619   8622   8625      9     0.00   0.66944   3 ;   H13S-  C113-  C112-  C111
  8622   8625   8628   8629      9     0.00   0.66944   3 ;   C112-  C111-  C110-  H10R
  8622   8625   8628   8630      9     0.00   0.66944   3 ;   C112-  C111-  C110-  H10S
  8622   8625   8628   8631      9     0.00   0.41840   1 ;   C112-  C111-  C110-   C19
  8622   8625   8628   8631      9     0.00   0.41840   2 ;   C112-  C111-  C110-   C19
  8622   8625   8628   8631      9     0.00   0.41840   4 ;   C112-  C111-  C110-   C19
  8622   8625   8628   8631      9     0.00   0.41840   5 ;   C112-  C111-  C110-   C19
  8622   8625   8628   8631      9     0.00   1.25520   3 ;   C112-  C111-  C110-   C19
  8623   8622   8625   8626      9     0.00   0.62760   3 ;   H12R-  C112-  C111-  H11R
  8623   8622   8625   8627      9     0.00   0.62760   3 ;   H12R-  C112-  C111-  H11S
  8623   8622   8625   8628      9     0.00   0.66944   3 ;   H12R-  C112-  C111-  C110
  8624   8622   8625   8626      9     0.00   0.62760   3 ;   H12S-  C112-  C111-  H11R
  8624   8622   8625   8627      9     0.00   0.62760   3 ;   H12S-  C112-  C111-  H11S
  8624   8622   8625   8628      9     0.00   0.66944   3 ;   H12S-  C112-  C111-  C110
  8625   8628   8631   8632      9     0.00   0.66944   3 ;   C111-  C110-   C19-   H9R
  8625   8628   8631   8633      9     0.00   0.66944   3 ;   C111-  C110-   C19-   H9S
  8625   8628   8631   8634      9     0.00   0.41840   1 ;   C111-  C110-   C19-   C18
  8625   8628   8631   8634      9     0.00   0.41840   2 ;   C111-  C110-   C19-   C18
  8625   8628   8631   8634      9     0.00   0.41840   4 ;   C111-  C110-   C19-   C18
  8625   8628   8631   8634      9     0.00   0.41840   5 ;   C111-  C110-   C19-   C18
  8625   8628   8631   8634      9     0.00   1.25520   3 ;   C111-  C110-   C19-   C18
  8626   8625   8628   8629      9     0.00   0.62760   3 ;   H11R-  C111-  C110-  H10R
  8626   8625   8628   8630      9     0.00   0.62760   3 ;   H11R-  C111-  C110-  H10S
  8626   8625   8628   8631      9     0.00   0.66944   3 ;   H11R-  C111-  C110-   C19
  8627   8625   8628   8629      9     0.00   0.62760   3 ;   H11S-  C111-  C110-  H10R
  8627   8625   8628   8630      9     0.00   0.62760   3 ;   H11S-  C111-  C110-  H10S
  8627   8625   8628   8631      9     0.00   0.66944   3 ;   H11S-  C111-  C110-   C19
  8628   8631   8634   8635      9     0.00   0.66944   3 ;   C110-   C19-   C18-   H8R
  8628   8631   8634   8636      9     0.00   0.66944   3 ;   C110-   C19-   C18-   H8S
  8628   8631   8634   8637      9     0.00   0.41840   1 ;   C110-   C19-   C18-   C17
  8628   8631   8634   8637      9     0.00   0.41840   2 ;   C110-   C19-   C18-   C17
  8628   8631   8634   8637      9     0.00   0.41840   4 ;   C110-   C19-   C18-   C17
  8628   8631   8634   8637      9     0.00   0.41840   5 ;   C110-   C19-   C18-   C17
  8628   8631   8634   8637      9     0.00   1.25520   3 ;   C110-   C19-   C18-   C17
  8629   8628   8631   8632      9     0.00   0.62760   3 ;   H10R-  C110-   C19-   H9R
  8629   8628   8631   8633      9     0.00   0.62760   3 ;   H10R-  C110-   C19-   H9S
  8629   8628   8631   8634      9     0.00   0.66944   3 ;   H10R-  C110-   C19-   C18
  8630   8628   8631   8632      9     0.00   0.62760   3 ;   H10S-  C110-   C19-   H9R
  8630   8628   8631   8633      9     0.00   0.62760   3 ;   H10S-  C110-   C19-   H9S
  8630   8628   8631   8634      9     0.00   0.66944   3 ;   H10S-  C110-   C19-   C18
  8631   8634   8637   8638      9     0.00   0.66944   3 ;    C19-   C18-   C17-   H7R
  8631   8634   8637   8639      9     0.00   0.66944   3 ;    C19-   C18-   C17-   H7S
  8631   8634   8637   8640      9     0.00   0.41840   1 ;    C19-   C18-   C17-   C16
  8631   8634   8637   8640      9     0.00   0.41840   2 ;    C19-   C18-   C17-   C16
  8631   8634   8637   8640      9     0.00   0.41840   4 ;    C19-   C18-   C17-   C16
  8631   8634   8637   8640      9     0.00   0.41840   5 ;    C19-   C18-   C17-   C16
  8631   8634   8637   8640      9     0.00   1.25520   3 ;    C19-   C18-   C17-   C16
  8632   8631   8634   8635      9     0.00   0.62760   3 ;    H9R-   C19-   C18-   H8R
  8632   8631   8634   8636      9     0.00   0.62760   3 ;    H9R-   C19-   C18-   H8S
  8632   8631   8634   8637      9     0.00   0.66944   3 ;    H9R-   C19-   C18-   C17
  8633   8631   8634   8635      9     0.00   0.62760   3 ;    H9S-   C19-   C18-   H8R
  8633   8631   8634   8636      9     0.00   0.62760   3 ;    H9S-   C19-   C18-   H8S
  8633   8631   8634   8637      9     0.00   0.66944   3 ;    H9S-   C19-   C18-   C17
  8634   8637   8640   8641      9     0.00   0.66944   3 ;    C18-   C17-   C16-   H6R
  8634   8637   8640   8642      9     0.00   0.66944   3 ;    C18-   C17-   C16-   H6S
  8634   8637   8640   8643      9     0.00   0.41840   1 ;    C18-   C17-   C16-   C15
  8634   8637   8640   8643      9     0.00   0.41840   2 ;    C18-   C17-   C16-   C15
  8634   8637   8640   8643      9     0.00   0.41840   4 ;    C18-   C17-   C16-   C15
  8634   8637   8640   8643      9     0.00   0.41840   5 ;    C18-   C17-   C16-   C15
  8634   8637   8640   8643      9     0.00   1.25520   3 ;    C18-   C17-   C16-   C15
  8635   8634   8637   8638      9     0.00   0.62760   3 ;    H8R-   C18-   C17-   H7R
  8635   8634   8637   8639      9     0.00   0.62760   3 ;    H8R-   C18-   C17-   H7S
  8635   8634   8637   8640      9     0.00   0.66944   3 ;    H8R-   C18-   C17-   C16
  8636   8634   8637   8638      9     0.00   0.62760   3 ;    H8S-   C18-   C17-   H7R
  8636   8634   8637   8639      9     0.00   0.62760   3 ;    H8S-   C18-   C17-   H7S
  8636   8634   8637   8640      9     0.00   0.66944   3 ;    H8S-   C18-   C17-   C16
  8637   8640   8643   8644      9     0.00   0.66944   3 ;    C17-   C16-   C15-   H5R
  8637   8640   8643   8645      9     0.00   0.66944   3 ;    C17-   C16-   C15-   H5S
  8637   8640   8643   8646      9     0.00   0.41840   1 ;    C17-   C16-   C15-   C14
  8637   8640   8643   8646      9     0.00   0.41840   2 ;    C17-   C16-   C15-   C14
  8637   8640   8643   8646      9     0.00   0.41840   4 ;    C17-   C16-   C15-   C14
  8637   8640   8643   8646      9     0.00   0.41840   5 ;    C17-   C16-   C15-   C14
  8637   8640   8643   8646      9     0.00   1.25520   3 ;    C17-   C16-   C15-   C14
  8638   8637   8640   8641      9     0.00   0.62760   3 ;    H7R-   C17-   C16-   H6R
  8638   8637   8640   8642      9     0.00   0.62760   3 ;    H7R-   C17-   C16-   H6S
  8638   8637   8640   8643      9     0.00   0.66944   3 ;    H7R-   C17-   C16-   C15
  8639   8637   8640   8641      9     0.00   0.62760   3 ;    H7S-   C17-   C16-   H6R
  8639   8637   8640   8642      9     0.00   0.62760   3 ;    H7S-   C17-   C16-   H6S
  8639   8637   8640   8643      9     0.00   0.66944   3 ;    H7S-   C17-   C16-   C15
  8640   8643   8646   8647      9     0.00   0.66944   3 ;    C16-   C15-   C14-   H4R
  8640   8643   8646   8648      9     0.00   0.66944   3 ;    C16-   C15-   C14-   H4S
  8640   8643   8646   8649      9     0.00   0.41840   1 ;    C16-   C15-   C14-   C13
  8640   8643   8646   8649      9     0.00   0.41840   2 ;    C16-   C15-   C14-   C13
  8640   8643   8646   8649      9     0.00   0.41840   4 ;    C16-   C15-   C14-   C13
  8640   8643   8646   8649      9     0.00   0.41840   5 ;    C16-   C15-   C14-   C13
  8640   8643   8646   8649      9     0.00   1.25520   3 ;    C16-   C15-   C14-   C13
  8641   8640   8643   8644      9     0.00   0.62760   3 ;    H6R-   C16-   C15-   H5R
  8641   8640   8643   8645      9     0.00   0.62760   3 ;    H6R-   C16-   C15-   H5S
  8641   8640   8643   8646      9     0.00   0.66944   3 ;    H6R-   C16-   C15-   C14
  8642   8640   8643   8644      9     0.00   0.62760   3 ;    H6S-   C16-   C15-   H5R
  8642   8640   8643   8645      9     0.00   0.62760   3 ;    H6S-   C16-   C15-   H5S
  8642   8640   8643   8646      9     0.00   0.66944   3 ;    H6S-   C16-   C15-   C14
  8643   8646   8649   8650      9     0.00   0.66944   3 ;    C15-   C14-   C13-   H3R
  8643   8646   8649   8651      9     0.00   0.66944   3 ;    C15-   C14-   C13-   H3S
  8643   8646   8649   8652      9     0.00   0.41840   1 ;    C15-   C14-   C13-   C12
  8643   8646   8649   8652      9     0.00   0.41840   2 ;    C15-   C14-   C13-   C12
  8643   8646   8649   8652      9     0.00   0.41840   4 ;    C15-   C14-   C13-   C12
  8643   8646   8649   8652      9     0.00   0.41840   5 ;    C15-   C14-   C13-   C12
  8643   8646   8649   8652      9     0.00   1.25520   3 ;    C15-   C14-   C13-   C12
  8644   8643   8646   8647      9     0.00   0.62760   3 ;    H5R-   C15-   C14-   H4R
  8644   8643   8646   8648      9     0.00   0.62760   3 ;    H5R-   C15-   C14-   H4S
  8644   8643   8646   8649      9     0.00   0.66944   3 ;    H5R-   C15-   C14-   C13
  8645   8643   8646   8647      9     0.00   0.62760   3 ;    H5S-   C15-   C14-   H4R
  8645   8643   8646   8648      9     0.00   0.62760   3 ;    H5S-   C15-   C14-   H4S
  8645   8643   8646   8649      9     0.00   0.66944   3 ;    H5S-   C15-   C14-   C13
  8646   8649   8652   8653      9     0.00   0.66944   3 ;    C14-   C13-   C12-   H2R
  8646   8649   8652   8654      9     0.00   0.66944   3 ;    C14-   C13-   C12-   H2S
  8646   8649   8652   8655      9     0.00   0.65270   3 ;    C14-   C13-   C12-   C11
  8647   8646   8649   8650      9     0.00   0.62760   3 ;    H4R-   C14-   C13-   H3R
  8647   8646   8649   8651      9     0.00   0.62760   3 ;    H4R-   C14-   C13-   H3S
  8647   8646   8649   8652      9     0.00   0.66944   3 ;    H4R-   C14-   C13-   C12
  8648   8646   8649   8650      9     0.00   0.62760   3 ;    H4S-   C14-   C13-   H3R
  8648   8646   8649   8651      9     0.00   0.62760   3 ;    H4S-   C14-   C13-   H3S
  8648   8646   8649   8652      9     0.00   0.66944   3 ;    H4S-   C14-   C13-   C12
  8649   8652   8655   8656      9   180.00   0.00000   2 ;    C13-   C12-   C11-   O12
  8649   8652   8655   8657      9   180.00   0.00000   2 ;    C13-   C12-   C11-   O11
  8650   8649   8652   8653      9     0.00   0.62760   3 ;    H3R-   C13-   C12-   H2R
  8650   8649   8652   8654      9     0.00   0.62760   3 ;    H3R-   C13-   C12-   H2S
  8650   8649   8652   8655      9     0.00   0.65270   3 ;    H3R-   C13-   C12-   C11
  8651   8649   8652   8653      9     0.00   0.62760   3 ;    H3S-   C13-   C12-   H2R
  8651   8649   8652   8654      9     0.00   0.62760   3 ;    H3S-   C13-   C12-   H2S
  8651   8649   8652   8655      9     0.00   0.65270   3 ;    H3S-   C13-   C12-   C11
  8652   8655   8657   8658      9   180.00  11.29680   2 ;    C12-   C11-   O11-    C1
  8653   8652   8655   8656      9     0.00   3.34720   1 ;    H2R-   C12-   C11-   O12
  8653   8652   8655   8656      9   180.00   0.33472   3 ;    H2R-   C12-   C11-   O12
  8653   8652   8655   8657      9   180.00   0.00000   2 ;    H2R-   C12-   C11-   O11
  8654   8652   8655   8656      9     0.00   3.34720   1 ;    H2S-   C12-   C11-   O12
  8654   8652   8655   8656      9   180.00   0.33472   3 ;    H2S-   C12-   C11-   O12
  8654   8652   8655   8657      9   180.00   0.00000   2 ;    H2S-   C12-   C11-   O11
  8655   8657   8658   8659      9     0.00   1.60247   3 ;    C11-   O11-    C1-    HR
  8655   8657   8658   8660      9     0.00   1.60247   3 ;    C11-   O11-    C1-    HS
  8655   8657   8658   8661      9     0.00  -0.41840   1 ;    C11-   O11-    C1-    C2
  8656   8655   8657   8658      9   180.00   5.85760   1 ;    O12-   C11-   O11-    C1
  8656   8655   8657   8658      9   180.00  11.29680   2 ;    O12-   C11-   O11-    C1
  8657   8658   8661   8662      9     0.00   0.00000   0 ;    O11-    C1-    C2-    HX
  8657   8658   8661   8662      9     0.00   1.04600   1 ;    O11-    C1-    C2-    HX
  8657   8658   8661   8663      9     0.00   0.00000   0 ;    O11-    C1-    C2-    C3
  8657   8658   8661   8663      9     0.00   0.00000   0 ;    O11-    C1-    C2-    C3
  8657   8658   8661   8663      9     0.00   0.00000   0 ;    O11-    C1-    C2-    C3
  8657   8658   8661   8663      9     0.00   0.00000   0 ;    O11-    C1-    C2-    C3
  8657   8658   8661   8663      9     0.00   0.00000   0 ;    O11-    C1-    C2-    C3
  8657   8658   8661   8690      9     0.00   1.25520   2 ;    O11-    C1-    C2-   O21
  8657   8658   8661   8690      9     0.00   4.18400   3 ;    O11-    C1-    C2-   O21
  8657   8658   8661   8690      9   180.00  -0.41840   1 ;    O11-    C1-    C2-   O21
  8658   8661   8663   8664      9     0.00   0.65270   3 ;     C1-    C2-    C3-    HA
  8658   8661   8663   8665      9     0.00   0.65270   3 ;     C1-    C2-    C3-    HB
  8658   8661   8663   8666      9   180.00   3.34720   1 ;     C1-    C2-    C3-   O31
  8658   8661   8690   8691      9     0.00  -0.41840   1 ;     C1-    C2-   O21-   C21
  8659   8658   8661   8662      9     0.00   0.65270   3 ;     HR-    C1-    C2-    HX
  8659   8658   8661   8663      9     0.00   0.65270   3 ;     HR-    C1-    C2-    C3
  8659   8658   8661   8690      9     0.00   0.00000   0 ;     HR-    C1-    C2-   O21
  8659   8658   8661   8690      9     0.00   1.04600   1 ;     HR-    C1-    C2-   O21
  8660   8658   8661   8662      9     0.00   0.65270   3 ;     HS-    C1-    C2-    HX
  8660   8658   8661   8663      9     0.00   0.65270   3 ;     HS-    C1-    C2-    C3
  8660   8658   8661   8690      9     0.00   0.00000   0 ;     HS-    C1-    C2-   O21
  8660   8658   8661   8690      9     0.00   1.04600   1 ;     HS-    C1-    C2-   O21
  8661   8663   8666   8667      9     0.00   0.00000   0 ;     C2-    C3-   O31-   P31
  8661   8663   8666   8667      9   180.00  -3.34720   2 ;     C2-    C3-   O31-   P31
  8661   8690   8691   8692      9   180.00   5.85760   1 ;     C2-   O21-   C21-   O22
  8661   8690   8691   8692      9   180.00  11.29680   2 ;     C2-   O21-   C21-   O22
  8661   8690   8691   8730      9   180.00  11.29680   2 ;     C2-   O21-   C21-   C12
  8662   8661   8663   8664      9     0.00   0.65270   3 ;     HX-    C2-    C3-    HA
  8662   8661   8663   8665      9     0.00   0.65270   3 ;     HX-    C2-    C3-    HB
  8662   8661   8663   8666      9     0.00   0.00000   0 ;     HX-    C2-    C3-   O31
  8662   8661   8663   8666      9     0.00   1.04600   1 ;     HX-    C2-    C3-   O31
  8662   8661   8690   8691      9     0.00   1.60247   3 ;     HX-    C2-   O21-   C21
  8663   8661   8690   8691      9     0.00  -0.41840   1 ;     C3-    C2-   O21-   C21
  8663   8666   8667   8668      9     0.00   2.51040   3 ;     C3-   O31-   P31-   O32
  8663   8666   8667   8668      9     0.00   9.62320   2 ;     C3-   O31-   P31-   O32
  8663   8666   8667   8688      9     0.00   0.00000   0 ;     C3-   O31-   P31-   O33
  8663   8666   8667   8688      9     0.00   0.00000   0 ;     C3-   O31-   P31-   O33
  8663   8666   8667   8688      9     0.00   0.00000   0 ;     C3-   O31-   P31-   O33
  8663   8666   8667   8688      9     0.00   0.00000   0 ;     C3-   O31-   P31-   O33
  8663   8666   8667   8688      9     0.00   0.83680   2 ;     C3-   O31-   P31-   O33
  8663   8666   8667   8689      9     0.00   0.00000   0 ;     C3-   O31-   P31-   O34
  8663   8666   8667   8689      9     0.00   0.00000   0 ;     C3-   O31-   P31-   O34
  8663   8666   8667   8689      9     0.00   0.00000   0 ;     C3-   O31-   P31-   O34
  8663   8666   8667   8689      9     0.00   0.00000   0 ;     C3-   O31-   P31-   O34
  8663   8666   8667   8689      9     0.00   0.83680   2 ;     C3-   O31-   P31-   O34
  8664   8663   8661   8690      9     0.00   0.00000   0 ;     HA-    C3-    C2-   O21
  8664   8663   8661   8690      9     0.00   1.04600   1 ;     HA-    C3-    C2-   O21
  8664   8663   8666   8667      9     0.00   0.00000   0 ;     HA-    C3-   O31-   P31
  8664   8663   8666   8667      9     0.00   0.00000   0 ;     HA-    C3-   O31-   P31
  8664   8663   8666   8667      9     0.00   0.00000   0 ;     HA-    C3-   O31-   P31
  8664   8663   8666   8667      9     0.00   0.00000   0 ;     HA-    C3-   O31-   P31
  8664   8663   8666   8667      9     0.00   1.60247   3 ;     HA-    C3-   O31-   P31
  8665   8663   8661   8690      9     0.00   0.00000   0 ;     HB-    C3-    C2-   O21
  8665   8663   8661   8690      9     0.00   1.04600   1 ;     HB-    C3-    C2-   O21
  8665   8663   8666   8667      9     0.00   0.00000   0 ;     HB-    C3-   O31-   P31
  8665   8663   8666   8667      9     0.00   0.00000   0 ;     HB-    C3-   O31-   P31
  8665   8663   8666   8667      9     0.00   0.00000   0 ;     HB-    C3-   O31-   P31
  8665   8663   8666   8667      9     0.00   0.00000   0 ;     HB-    C3-   O31-   P31
  8665   8663   8666   8667      9     0.00   1.60247   3 ;     HB-    C3-   O31-   P31
  8666   8663   8661   8690      9     0.00   0.00000   0 ;    O31-    C3-    C2-   O21
  8666   8663   8661   8690      9     0.00   0.00000   0 ;    O31-    C3-    C2-   O21
  8666   8663   8661   8690      9     0.00   0.00000   0 ;    O31-    C3-    C2-   O21
  8666   8663   8661   8690      9     0.00   0.00000   0 ;    O31-    C3-    C2-   O21
  8666   8663   8661   8690      9     0.00   0.00000   0 ;    O31-    C3-    C2-   O21
  8666   8667   8668   8669      9     0.00   2.51040   3 ;    O31-   P31-   O32-   C31
  8666   8667   8668   8669      9     0.00   9.62320   2 ;    O31-   P31-   O32-   C31
  8667   8668   8669   8670      9     0.00   0.00000   0 ;    P31-   O32-   C31-   H1A
  8667   8668   8669   8670      9     0.00   0.00000   0 ;    P31-   O32-   C31-   H1A
  8667   8668   8669   8670      9     0.00   0.00000   0 ;    P31-   O32-   C31-   H1A
  8667   8668   8669   8670      9     0.00   0.00000   0 ;    P31-   O32-   C31-   H1A
  8667   8668   8669   8670      9     0.00   1.60247   3 ;    P31-   O32-   C31-   H1A
  8667   8668   8669   8671      9     0.00   0.00000   0 ;    P31-   O32-   C31-   H1B
  8667   8668   8669   8671      9     0.00   0.00000   0 ;    P31-   O32-   C31-   H1B
  8667   8668   8669   8671      9     0.00   0.00000   0 ;    P31-   O32-   C31-   H1B
  8667   8668   8669   8671      9     0.00   0.00000   0 ;    P31-   O32-   C31-   H1B
  8667   8668   8669   8671      9     0.00   1.60247   3 ;    P31-   O32-   C31-   H1B
  8667   8668   8669   8672      9     0.00   0.00000   0 ;    P31-   O32-   C31-   C32
  8667   8668   8669   8672      9   180.00  -3.34720   2 ;    P31-   O32-   C31-   C32
  8668   8669   8672   8673      9     0.00   0.65270   3 ;    O32-   C31-   C32-   H2A
  8668   8669   8672   8674      9     0.00   0.65270   3 ;    O32-   C31-   C32-   H2B
  8668   8669   8672   8675      9     0.00   4.18400   3 ;    O32-   C31-   C32-   N31
  8669   8668   8667   8688      9     0.00   0.00000   0 ;    C31-   O32-   P31-   O33
  8669   8668   8667   8688      9     0.00   0.00000   0 ;    C31-   O32-   P31-   O33
  8669   8668   8667   8688      9     0.00   0.00000   0 ;    C31-   O32-   P31-   O33
  8669   8668   8667   8688      9     0.00   0.00000   0 ;    C31-   O32-   P31-   O33
  8669   8668   8667   8688      9     0.00   0.83680   2 ;    C31-   O32-   P31-   O33
  8669   8668   8667   8689      9     0.00   0.00000   0 ;    C31-   O32-   P31-   O34
  8669   8668   8667   8689      9     0.00   0.00000   0 ;    C31-   O32-   P31-   O34
  8669   8668   8667   8689      9     0.00   0.00000   0 ;    C31-   O32-   P31-   O34
  8669   8668   8667   8689      9     0.00   0.00000   0 ;    C31-   O32-   P31-   O34
  8669   8668   8667   8689      9     0.00   0.83680   2 ;    C31-   O32-   P31-   O34
  8669   8672   8675   8676      9     0.00   0.65270   3 ;    C31-   C32-   N31-   C33
  8669   8672   8675   8680      9     0.00   0.65270   3 ;    C31-   C32-   N31-   C34
  8669   8672   8675   8684      9     0.00   0.65270   3 ;    C31-   C32-   N31-   C35
  8670   8669   8672   8673      9     0.00   0.65270   3 ;    H1A-   C31-   C32-   H2A
  8670   8669   8672   8674      9     0.00   0.65270   3 ;    H1A-   C31-   C32-   H2B
  8670   8669   8672   8675      9     0.00   0.65270   3 ;    H1A-   C31-   C32-   N31
  8671   8669   8672   8673      9     0.00   0.65270   3 ;    H1B-   C31-   C32-   H2A
  8671   8669   8672   8674      9     0.00   0.65270   3 ;    H1B-   C31-   C32-   H2B
  8671   8669   8672   8675      9     0.00   0.65270   3 ;    H1B-   C31-   C32-   N31
  8672   8675   8676   8677      9     0.00   0.65270   3 ;    C32-   N31-   C33-   H3A
  8672   8675   8676   8678      9     0.00   0.65270   3 ;    C32-   N31-   C33-   H3B
  8672   8675   8676   8679      9     0.00   0.65270   3 ;    C32-   N31-   C33-   H3C
  8672   8675   8680   8681      9     0.00   0.65270   3 ;    C32-   N31-   C34-   H4A
  8672   8675   8680   8682      9     0.00   0.65270   3 ;    C32-   N31-   C34-   H4B
  8672   8675   8680   8683      9     0.00   0.65270   3 ;    C32-   N31-   C34-   H4C
  8672   8675   8684   8685      9     0.00   0.65270   3 ;    C32-   N31-   C35-   H5A
  8672   8675   8684   8686      9     0.00   0.65270   3 ;    C32-   N31-   C35-   H5B
  8672   8675   8684   8687      9     0.00   0.65270   3 ;    C32-   N31-   C35-   H5C
  8673   8672   8675   8676      9     0.00   0.65270   3 ;    H2A-   C32-   N31-   C33
  8673   8672   8675   8680      9     0.00   0.65270   3 ;    H2A-   C32-   N31-   C34
  8673   8672   8675   8684      9     0.00   0.65270   3 ;    H2A-   C32-   N31-   C35
  8674   8672   8675   8676      9     0.00   0.65270   3 ;    H2B-   C32-   N31-   C33
  8674   8672   8675   8680      9     0.00   0.65270   3 ;    H2B-   C32-   N31-   C34
  8674   8672   8675   8684      9     0.00   0.65270   3 ;    H2B-   C32-   N31-   C35
  8676   8675   8680   8681      9     0.00   0.65270   3 ;    C33-   N31-   C34-   H4A
  8676   8675   8680   8682      9     0.00   0.65270   3 ;    C33-   N31-   C34-   H4B
  8676   8675   8680   8683      9     0.00   0.65270   3 ;    C33-   N31-   C34-   H4C
  8676   8675   8684   8685      9     0.00   0.65270   3 ;    C33-   N31-   C35-   H5A
  8676   8675   8684   8686      9     0.00   0.65270   3 ;    C33-   N31-   C35-   H5B
  8676   8675   8684   8687      9     0.00   0.65270   3 ;    C33-   N31-   C35-   H5C
  8677   8676   8675   8680      9     0.00   0.65270   3 ;    H3A-   C33-   N31-   C34
  8677   8676   8675   8684      9     0.00   0.65270   3 ;    H3A-   C33-   N31-   C35
  8678   8676   8675   8680      9     0.00   0.65270   3 ;    H3B-   C33-   N31-   C34
  8678   8676   8675   8684      9     0.00   0.65270   3 ;    H3B-   C33-   N31-   C35
  8679   8676   8675   8680      9     0.00   0.65270   3 ;    H3C-   C33-   N31-   C34
  8679   8676   8675   8684      9     0.00   0.65270   3 ;    H3C-   C33-   N31-   C35
  8680   8675   8684   8685      9     0.00   0.65270   3 ;    C34-   N31-   C35-   H5A
  8680   8675   8684   8686      9     0.00   0.65270   3 ;    C34-   N31-   C35-   H5B
  8680   8675   8684   8687      9     0.00   0.65270   3 ;    C34-   N31-   C35-   H5C
  8681   8680   8675   8684      9     0.00   0.65270   3 ;    H4A-   C34-   N31-   C35
  8682   8680   8675   8684      9     0.00   0.65270   3 ;    H4B-   C34-   N31-   C35
  8683   8680   8675   8684      9     0.00   0.65270   3 ;    H4C-   C34-   N31-   C35
  8690   8691   8730   8727      9   180.00   0.00000   2 ;    O21-   C21-   C12-   C13
  8690   8691   8730   8731      9   180.00   0.00000   2 ;    O21-   C21-   C12-   H2R
  8690   8691   8730   8732      9   180.00   0.00000   2 ;    O21-   C21-   C12-   H2S
  8691   8730   8727   8724      9     0.00   0.65270   3 ;    C21-   C12-   C13-   C14
  8691   8730   8727   8728      9     0.00   0.65270   3 ;    C21-   C12-   C13-   H3R
  8691   8730   8727   8729      9     0.00   0.65270   3 ;    C21-   C12-   C13-   H3S
  8692   8691   8730   8727      9   180.00   0.00000   2 ;    O22-   C21-   C12-   C13
  8692   8691   8730   8731      9     0.00   3.34720   1 ;    O22-   C21-   C12-   H2R
  8692   8691   8730   8731      9   180.00   0.33472   3 ;    O22-   C21-   C12-   H2R
  8692   8691   8730   8732      9     0.00   3.34720   1 ;    O22-   C21-   C12-   H2S
  8692   8691   8730   8732      9   180.00   0.33472   3 ;    O22-   C21-   C12-   H2S
  8693   8694   8697   8698      9     0.00   0.62760   3 ;   H14T-  C114-  C113-  H13R
  8693   8694   8697   8699      9     0.00   0.62760   3 ;   H14T-  C114-  C113-  H13S
  8693   8694   8697   8700      9     0.00   0.66944   3 ;   H14T-  C114-  C113-  C112
  8694   8697   8700   8701      9     0.00   0.66944   3 ;   C114-  C113-  C112-  H12R
  8694   8697   8700   8702      9     0.00   0.66944   3 ;   C114-  C113-  C112-  H12S
  8694   8697   8700   8703      9     0.00   0.41840   1 ;   C114-  C113-  C112-  C111
  8694   8697   8700   8703      9     0.00   0.41840   2 ;   C114-  C113-  C112-  C111
  8694   8697   8700   8703      9     0.00   0.41840   4 ;   C114-  C113-  C112-  C111
  8694   8697   8700   8703      9     0.00   0.41840   5 ;   C114-  C113-  C112-  C111
  8694   8697   8700   8703      9     0.00   1.25520   3 ;   C114-  C113-  C112-  C111
  8695   8694   8697   8698      9     0.00   0.62760   3 ;   H14R-  C114-  C113-  H13R
  8695   8694   8697   8699      9     0.00   0.62760   3 ;   H14R-  C114-  C113-  H13S
  8695   8694   8697   8700      9     0.00   0.66944   3 ;   H14R-  C114-  C113-  C112
  8696   8694   8697   8698      9     0.00   0.62760   3 ;   H14S-  C114-  C113-  H13R
  8696   8694   8697   8699      9     0.00   0.62760   3 ;   H14S-  C114-  C113-  H13S
  8696   8694   8697   8700      9     0.00   0.66944   3 ;   H14S-  C114-  C113-  C112
  8697   8700   8703   8704      9     0.00   0.66944   3 ;   C113-  C112-  C111-  H11R
  8697   8700   8703   8705      9     0.00   0.66944   3 ;   C113-  C112-  C111-  H11S
  8697   8700   8703   8706      9     0.00   0.41840   1 ;   C113-  C112-  C111-  C110
  8697   8700   8703   8706      9     0.00   0.41840   2 ;   C113-  C112-  C111-  C110
  8697   8700   8703   8706      9     0.00   0.41840   4 ;   C113-  C112-  C111-  C110
  8697   8700   8703   8706      9     0.00   0.41840   5 ;   C113-  C112-  C111-  C110
  8697   8700   8703   8706      9     0.00   1.25520   3 ;   C113-  C112-  C111-  C110
  8698   8697   8700   8701      9     0.00   0.62760   3 ;   H13R-  C113-  C112-  H12R
  8698   8697   8700   8702      9     0.00   0.62760   3 ;   H13R-  C113-  C112-  H12S
  8698   8697   8700   8703      9     0.00   0.66944   3 ;   H13R-  C113-  C112-  C111
  8699   8697   8700   8701      9     0.00   0.62760   3 ;   H13S-  C113-  C112-  H12R
  8699   8697   8700   8702      9     0.00   0.62760   3 ;   H13S-  C113-  C112-  H12S
  8699   8697   8700   8703      9     0.00   0.66944   3 ;   H13S-  C113-  C112-  C111
  8700   8703   8706   8707      9     0.00   0.66944   3 ;   C112-  C111-  C110-  H10R
  8700   8703   8706   8708      9     0.00   0.66944   3 ;   C112-  C111-  C110-  H10S
  8700   8703   8706   8709      9     0.00   0.41840   1 ;   C112-  C111-  C110-   C19
  8700   8703   8706   8709      9     0.00   0.41840   2 ;   C112-  C111-  C110-   C19
  8700   8703   8706   8709      9     0.00   0.41840   4 ;   C112-  C111-  C110-   C19
  8700   8703   8706   8709      9     0.00   0.41840   5 ;   C112-  C111-  C110-   C19
  8700   8703   8706   8709      9     0.00   1.25520   3 ;   C112-  C111-  C110-   C19
  8701   8700   8703   8704      9     0.00   0.62760   3 ;   H12R-  C112-  C111-  H11R
  8701   8700   8703   8705      9     0.00   0.62760   3 ;   H12R-  C112-  C111-  H11S
  8701   8700   8703   8706      9     0.00   0.66944   3 ;   H12R-  C112-  C111-  C110
  8702   8700   8703   8704      9     0.00   0.62760   3 ;   H12S-  C112-  C111-  H11R
  8702   8700   8703   8705      9     0.00   0.62760   3 ;   H12S-  C112-  C111-  H11S
  8702   8700   8703   8706      9     0.00   0.66944   3 ;   H12S-  C112-  C111-  C110
  8703   8706   8709   8710      9     0.00   0.66944   3 ;   C111-  C110-   C19-   H9R
  8703   8706   8709   8711      9     0.00   0.66944   3 ;   C111-  C110-   C19-   H9S
  8703   8706   8709   8712      9     0.00   0.41840   1 ;   C111-  C110-   C19-   C18
  8703   8706   8709   8712      9     0.00   0.41840   2 ;   C111-  C110-   C19-   C18
  8703   8706   8709   8712      9     0.00   0.41840   4 ;   C111-  C110-   C19-   C18
  8703   8706   8709   8712      9     0.00   0.41840   5 ;   C111-  C110-   C19-   C18
  8703   8706   8709   8712      9     0.00   1.25520   3 ;   C111-  C110-   C19-   C18
  8704   8703   8706   8707      9     0.00   0.62760   3 ;   H11R-  C111-  C110-  H10R
  8704   8703   8706   8708      9     0.00   0.62760   3 ;   H11R-  C111-  C110-  H10S
  8704   8703   8706   8709      9     0.00   0.66944   3 ;   H11R-  C111-  C110-   C19
  8705   8703   8706   8707      9     0.00   0.62760   3 ;   H11S-  C111-  C110-  H10R
  8705   8703   8706   8708      9     0.00   0.62760   3 ;   H11S-  C111-  C110-  H10S
  8705   8703   8706   8709      9     0.00   0.66944   3 ;   H11S-  C111-  C110-   C19
  8706   8709   8712   8713      9     0.00   0.66944   3 ;   C110-   C19-   C18-   H8R
  8706   8709   8712   8714      9     0.00   0.66944   3 ;   C110-   C19-   C18-   H8S
  8706   8709   8712   8715      9     0.00   0.41840   1 ;   C110-   C19-   C18-   C17
  8706   8709   8712   8715      9     0.00   0.41840   2 ;   C110-   C19-   C18-   C17
  8706   8709   8712   8715      9     0.00   0.41840   4 ;   C110-   C19-   C18-   C17
  8706   8709   8712   8715      9     0.00   0.41840   5 ;   C110-   C19-   C18-   C17
  8706   8709   8712   8715      9     0.00   1.25520   3 ;   C110-   C19-   C18-   C17
  8707   8706   8709   8710      9     0.00   0.62760   3 ;   H10R-  C110-   C19-   H9R
  8707   8706   8709   8711      9     0.00   0.62760   3 ;   H10R-  C110-   C19-   H9S
  8707   8706   8709   8712      9     0.00   0.66944   3 ;   H10R-  C110-   C19-   C18
  8708   8706   8709   8710      9     0.00   0.62760   3 ;   H10S-  C110-   C19-   H9R
  8708   8706   8709   8711      9     0.00   0.62760   3 ;   H10S-  C110-   C19-   H9S
  8708   8706   8709   8712      9     0.00   0.66944   3 ;   H10S-  C110-   C19-   C18
  8709   8712   8715   8716      9     0.00   0.66944   3 ;    C19-   C18-   C17-   H7R
  8709   8712   8715   8717      9     0.00   0.66944   3 ;    C19-   C18-   C17-   H7S
  8709   8712   8715   8718      9     0.00   0.41840   1 ;    C19-   C18-   C17-   C16
  8709   8712   8715   8718      9     0.00   0.41840   2 ;    C19-   C18-   C17-   C16
  8709   8712   8715   8718      9     0.00   0.41840   4 ;    C19-   C18-   C17-   C16
  8709   8712   8715   8718      9     0.00   0.41840   5 ;    C19-   C18-   C17-   C16
  8709   8712   8715   8718      9     0.00   1.25520   3 ;    C19-   C18-   C17-   C16
  8710   8709   8712   8713      9     0.00   0.62760   3 ;    H9R-   C19-   C18-   H8R
  8710   8709   8712   8714      9     0.00   0.62760   3 ;    H9R-   C19-   C18-   H8S
  8710   8709   8712   8715      9     0.00   0.66944   3 ;    H9R-   C19-   C18-   C17
  8711   8709   8712   8713      9     0.00   0.62760   3 ;    H9S-   C19-   C18-   H8R
  8711   8709   8712   8714      9     0.00   0.62760   3 ;    H9S-   C19-   C18-   H8S
  8711   8709   8712   8715      9     0.00   0.66944   3 ;    H9S-   C19-   C18-   C17
  8712   8715   8718   8719      9     0.00   0.66944   3 ;    C18-   C17-   C16-   H6R
  8712   8715   8718   8720      9     0.00   0.66944   3 ;    C18-   C17-   C16-   H6S
  8712   8715   8718   8721      9     0.00   0.41840   1 ;    C18-   C17-   C16-   C15
  8712   8715   8718   8721      9     0.00   0.41840   2 ;    C18-   C17-   C16-   C15
  8712   8715   8718   8721      9     0.00   0.41840   4 ;    C18-   C17-   C16-   C15
  8712   8715   8718   8721      9     0.00   0.41840   5 ;    C18-   C17-   C16-   C15
  8712   8715   8718   8721      9     0.00   1.25520   3 ;    C18-   C17-   C16-   C15
  8713   8712   8715   8716      9     0.00   0.62760   3 ;    H8R-   C18-   C17-   H7R
  8713   8712   8715   8717      9     0.00   0.62760   3 ;    H8R-   C18-   C17-   H7S
  8713   8712   8715   8718      9     0.00   0.66944   3 ;    H8R-   C18-   C17-   C16
  8714   8712   8715   8716      9     0.00   0.62760   3 ;    H8S-   C18-   C17-   H7R
  8714   8712   8715   8717      9     0.00   0.62760   3 ;    H8S-   C18-   C17-   H7S
  8714   8712   8715   8718      9     0.00   0.66944   3 ;    H8S-   C18-   C17-   C16
  8715   8718   8721   8722      9     0.00   0.66944   3 ;    C17-   C16-   C15-   H5R
  8715   8718   8721   8723      9     0.00   0.66944   3 ;    C17-   C16-   C15-   H5S
  8715   8718   8721   8724      9     0.00   0.41840   1 ;    C17-   C16-   C15-   C14
  8715   8718   8721   8724      9     0.00   0.41840   2 ;    C17-   C16-   C15-   C14
  8715   8718   8721   8724      9     0.00   0.41840   4 ;    C17-   C16-   C15-   C14
  8715   8718   8721   8724      9     0.00   0.41840   5 ;    C17-   C16-   C15-   C14
  8715   8718   8721   8724      9     0.00   1.25520   3 ;    C17-   C16-   C15-   C14
  8716   8715   8718   8719      9     0.00   0.62760   3 ;    H7R-   C17-   C16-   H6R
  8716   8715   8718   8720      9     0.00   0.62760   3 ;    H7R-   C17-   C16-   H6S
  8716   8715   8718   8721      9     0.00   0.66944   3 ;    H7R-   C17-   C16-   C15
  8717   8715   8718   8719      9     0.00   0.62760   3 ;    H7S-   C17-   C16-   H6R
  8717   8715   8718   8720      9     0.00   0.62760   3 ;    H7S-   C17-   C16-   H6S
  8717   8715   8718   8721      9     0.00   0.66944   3 ;    H7S-   C17-   C16-   C15
  8718   8721   8724   8725      9     0.00   0.66944   3 ;    C16-   C15-   C14-   H4R
  8718   8721   8724   8726      9     0.00   0.66944   3 ;    C16-   C15-   C14-   H4S
  8718   8721   8724   8727      9     0.00   0.41840   1 ;    C16-   C15-   C14-   C13
  8718   8721   8724   8727      9     0.00   0.41840   2 ;    C16-   C15-   C14-   C13
  8718   8721   8724   8727      9     0.00   0.41840   4 ;    C16-   C15-   C14-   C13
  8718   8721   8724   8727      9     0.00   0.41840   5 ;    C16-   C15-   C14-   C13
  8718   8721   8724   8727      9     0.00   1.25520   3 ;    C16-   C15-   C14-   C13
  8719   8718   8721   8722      9     0.00   0.62760   3 ;    H6R-   C16-   C15-   H5R
  8719   8718   8721   8723      9     0.00   0.62760   3 ;    H6R-   C16-   C15-   H5S
  8719   8718   8721   8724      9     0.00   0.66944   3 ;    H6R-   C16-   C15-   C14
  8720   8718   8721   8722      9     0.00   0.62760   3 ;    H6S-   C16-   C15-   H5R
  8720   8718   8721   8723      9     0.00   0.62760   3 ;    H6S-   C16-   C15-   H5S
  8720   8718   8721   8724      9     0.00   0.66944   3 ;    H6S-   C16-   C15-   C14
  8721   8724   8727   8728      9     0.00   0.66944   3 ;    C15-   C14-   C13-   H3R
  8721   8724   8727   8729      9     0.00   0.66944   3 ;    C15-   C14-   C13-   H3S
  8721   8724   8727   8730      9     0.00   0.41840   1 ;    C15-   C14-   C13-   C12
  8721   8724   8727   8730      9     0.00   0.41840   2 ;    C15-   C14-   C13-   C12
  8721   8724   8727   8730      9     0.00   0.41840   4 ;    C15-   C14-   C13-   C12
  8721   8724   8727   8730      9     0.00   0.41840   5 ;    C15-   C14-   C13-   C12
  8721   8724   8727   8730      9     0.00   1.25520   3 ;    C15-   C14-   C13-   C12
  8722   8721   8724   8725      9     0.00   0.62760   3 ;    H5R-   C15-   C14-   H4R
  8722   8721   8724   8726      9     0.00   0.62760   3 ;    H5R-   C15-   C14-   H4S
  8722   8721   8724   8727      9     0.00   0.66944   3 ;    H5R-   C15-   C14-   C13
  8723   8721   8724   8725      9     0.00   0.62760   3 ;    H5S-   C15-   C14-   H4R
  8723   8721   8724   8726      9     0.00   0.62760   3 ;    H5S-   C15-   C14-   H4S
  8723   8721   8724   8727      9     0.00   0.66944   3 ;    H5S-   C15-   C14-   C13
  8724   8727   8730   8731      9     0.00   0.66944   3 ;    C14-   C13-   C12-   H2R
  8724   8727   8730   8732      9     0.00   0.66944   3 ;    C14-   C13-   C12-   H2S
  8725   8724   8727   8728      9     0.00   0.62760   3 ;    H4R-   C14-   C13-   H3R
  8725   8724   8727   8729      9     0.00   0.62760   3 ;    H4R-   C14-   C13-   H3S
  8725   8724   8727   8730      9     0.00   0.66944   3 ;    H4R-   C14-   C13-   C12
  8726   8724   8727   8728      9     0.00   0.62760   3 ;    H4S-   C14-   C13-   H3R
  8726   8724   8727   8729      9     0.00   0.62760   3 ;    H4S-   C14-   C13-   H3S
  8726   8724   8727   8730      9     0.00   0.66944   3 ;    H4S-   C14-   C13-   C12
  8728   8727   8730   8731      9     0.00   0.62760   3 ;    H3R-   C13-   C12-   H2R
  8728   8727   8730   8732      9     0.00   0.62760   3 ;    H3R-   C13-   C12-   H2S
  8729   8727   8730   8731      9     0.00   0.62760   3 ;    H3S-   C13-   C12-   H2R
  8729   8727   8730   8732      9     0.00   0.62760   3 ;    H3S-   C13-   C12-   H2S
  8733   8734   8737   8738      9     0.00   0.62760   3 ;   H14T-  C114-  C113-  H13R
  8733   8734   8737   8739      9     0.00   0.62760   3 ;   H14T-  C114-  C113-  H13S
  8733   8734   8737   8740      9     0.00   0.66944   3 ;   H14T-  C114-  C113-  C112
  8734   8737   8740   8741      9     0.00   0.66944   3 ;   C114-  C113-  C112-  H12R
  8734   8737   8740   8742      9     0.00   0.66944   3 ;   C114-  C113-  C112-  H12S
  8734   8737   8740   8743      9     0.00   0.41840   1 ;   C114-  C113-  C112-  C111
  8734   8737   8740   8743      9     0.00   0.41840   2 ;   C114-  C113-  C112-  C111
  8734   8737   8740   8743      9     0.00   0.41840   4 ;   C114-  C113-  C112-  C111
  8734   8737   8740   8743      9     0.00   0.41840   5 ;   C114-  C113-  C112-  C111
  8734   8737   8740   8743      9     0.00   1.25520   3 ;   C114-  C113-  C112-  C111
  8735   8734   8737   8738      9     0.00   0.62760   3 ;   H14R-  C114-  C113-  H13R
  8735   8734   8737   8739      9     0.00   0.62760   3 ;   H14R-  C114-  C113-  H13S
  8735   8734   8737   8740      9     0.00   0.66944   3 ;   H14R-  C114-  C113-  C112
  8736   8734   8737   8738      9     0.00   0.62760   3 ;   H14S-  C114-  C113-  H13R
  8736   8734   8737   8739      9     0.00   0.62760   3 ;   H14S-  C114-  C113-  H13S
  8736   8734   8737   8740      9     0.00   0.66944   3 ;   H14S-  C114-  C113-  C112
  8737   8740   8743   8744      9     0.00   0.66944   3 ;   C113-  C112-  C111-  H11R
  8737   8740   8743   8745      9     0.00   0.66944   3 ;   C113-  C112-  C111-  H11S
  8737   8740   8743   8746      9     0.00   0.41840   1 ;   C113-  C112-  C111-  C110
  8737   8740   8743   8746      9     0.00   0.41840   2 ;   C113-  C112-  C111-  C110
  8737   8740   8743   8746      9     0.00   0.41840   4 ;   C113-  C112-  C111-  C110
  8737   8740   8743   8746      9     0.00   0.41840   5 ;   C113-  C112-  C111-  C110
  8737   8740   8743   8746      9     0.00   1.25520   3 ;   C113-  C112-  C111-  C110
  8738   8737   8740   8741      9     0.00   0.62760   3 ;   H13R-  C113-  C112-  H12R
  8738   8737   8740   8742      9     0.00   0.62760   3 ;   H13R-  C113-  C112-  H12S
  8738   8737   8740   8743      9     0.00   0.66944   3 ;   H13R-  C113-  C112-  C111
  8739   8737   8740   8741      9     0.00   0.62760   3 ;   H13S-  C113-  C112-  H12R
  8739   8737   8740   8742      9     0.00   0.62760   3 ;   H13S-  C113-  C112-  H12S
  8739   8737   8740   8743      9     0.00   0.66944   3 ;   H13S-  C113-  C112-  C111
  8740   8743   8746   8747      9     0.00   0.66944   3 ;   C112-  C111-  C110-  H10R
  8740   8743   8746   8748      9     0.00   0.66944   3 ;   C112-  C111-  C110-  H10S
  8740   8743   8746   8749      9     0.00   0.41840   1 ;   C112-  C111-  C110-   C19
  8740   8743   8746   8749      9     0.00   0.41840   2 ;   C112-  C111-  C110-   C19
  8740   8743   8746   8749      9     0.00   0.41840   4 ;   C112-  C111-  C110-   C19
  8740   8743   8746   8749      9     0.00   0.41840   5 ;   C112-  C111-  C110-   C19
  8740   8743   8746   8749      9     0.00   1.25520   3 ;   C112-  C111-  C110-   C19
  8741   8740   8743   8744      9     0.00   0.62760   3 ;   H12R-  C112-  C111-  H11R
  8741   8740   8743   8745      9     0.00   0.62760   3 ;   H12R-  C112-  C111-  H11S
  8741   8740   8743   8746      9     0.00   0.66944   3 ;   H12R-  C112-  C111-  C110
  8742   8740   8743   8744      9     0.00   0.62760   3 ;   H12S-  C112-  C111-  H11R
  8742   8740   8743   8745      9     0.00   0.62760   3 ;   H12S-  C112-  C111-  H11S
  8742   8740   8743   8746      9     0.00   0.66944   3 ;   H12S-  C112-  C111-  C110
  8743   8746   8749   8750      9     0.00   0.66944   3 ;   C111-  C110-   C19-   H9R
  8743   8746   8749   8751      9     0.00   0.66944   3 ;   C111-  C110-   C19-   H9S
  8743   8746   8749   8752      9     0.00   0.41840   1 ;   C111-  C110-   C19-   C18
  8743   8746   8749   8752      9     0.00   0.41840   2 ;   C111-  C110-   C19-   C18
  8743   8746   8749   8752      9     0.00   0.41840   4 ;   C111-  C110-   C19-   C18
  8743   8746   8749   8752      9     0.00   0.41840   5 ;   C111-  C110-   C19-   C18
  8743   8746   8749   8752      9     0.00   1.25520   3 ;   C111-  C110-   C19-   C18
  8744   8743   8746   8747      9     0.00   0.62760   3 ;   H11R-  C111-  C110-  H10R
  8744   8743   8746   8748      9     0.00   0.62760   3 ;   H11R-  C111-  C110-  H10S
  8744   8743   8746   8749      9     0.00   0.66944   3 ;   H11R-  C111-  C110-   C19
  8745   8743   8746   8747      9     0.00   0.62760   3 ;   H11S-  C111-  C110-  H10R
  8745   8743   8746   8748      9     0.00   0.62760   3 ;   H11S-  C111-  C110-  H10S
  8745   8743   8746   8749      9     0.00   0.66944   3 ;   H11S-  C111-  C110-   C19
  8746   8749   8752   8753      9     0.00   0.66944   3 ;   C110-   C19-   C18-   H8R
  8746   8749   8752   8754      9     0.00   0.66944   3 ;   C110-   C19-   C18-   H8S
  8746   8749   8752   8755      9     0.00   0.41840   1 ;   C110-   C19-   C18-   C17
  8746   8749   8752   8755      9     0.00   0.41840   2 ;   C110-   C19-   C18-   C17
  8746   8749   8752   8755      9     0.00   0.41840   4 ;   C110-   C19-   C18-   C17
  8746   8749   8752   8755      9     0.00   0.41840   5 ;   C110-   C19-   C18-   C17
  8746   8749   8752   8755      9     0.00   1.25520   3 ;   C110-   C19-   C18-   C17
  8747   8746   8749   8750      9     0.00   0.62760   3 ;   H10R-  C110-   C19-   H9R
  8747   8746   8749   8751      9     0.00   0.62760   3 ;   H10R-  C110-   C19-   H9S
  8747   8746   8749   8752      9     0.00   0.66944   3 ;   H10R-  C110-   C19-   C18
  8748   8746   8749   8750      9     0.00   0.62760   3 ;   H10S-  C110-   C19-   H9R
  8748   8746   8749   8751      9     0.00   0.62760   3 ;   H10S-  C110-   C19-   H9S
  8748   8746   8749   8752      9     0.00   0.66944   3 ;   H10S-  C110-   C19-   C18
  8749   8752   8755   8756      9     0.00   0.66944   3 ;    C19-   C18-   C17-   H7R
  8749   8752   8755   8757      9     0.00   0.66944   3 ;    C19-   C18-   C17-   H7S
  8749   8752   8755   8758      9     0.00   0.41840   1 ;    C19-   C18-   C17-   C16
  8749   8752   8755   8758      9     0.00   0.41840   2 ;    C19-   C18-   C17-   C16
  8749   8752   8755   8758      9     0.00   0.41840   4 ;    C19-   C18-   C17-   C16
  8749   8752   8755   8758      9     0.00   0.41840   5 ;    C19-   C18-   C17-   C16
  8749   8752   8755   8758      9     0.00   1.25520   3 ;    C19-   C18-   C17-   C16
  8750   8749   8752   8753      9     0.00   0.62760   3 ;    H9R-   C19-   C18-   H8R
  8750   8749   8752   8754      9     0.00   0.62760   3 ;    H9R-   C19-   C18-   H8S
  8750   8749   8752   8755      9     0.00   0.66944   3 ;    H9R-   C19-   C18-   C17
  8751   8749   8752   8753      9     0.00   0.62760   3 ;    H9S-   C19-   C18-   H8R
  8751   8749   8752   8754      9     0.00   0.62760   3 ;    H9S-   C19-   C18-   H8S
  8751   8749   8752   8755      9     0.00   0.66944   3 ;    H9S-   C19-   C18-   C17
  8752   8755   8758   8759      9     0.00   0.66944   3 ;    C18-   C17-   C16-   H6R
  8752   8755   8758   8760      9     0.00   0.66944   3 ;    C18-   C17-   C16-   H6S
  8752   8755   8758   8761      9     0.00   0.41840   1 ;    C18-   C17-   C16-   C15
  8752   8755   8758   8761      9     0.00   0.41840   2 ;    C18-   C17-   C16-   C15
  8752   8755   8758   8761      9     0.00   0.41840   4 ;    C18-   C17-   C16-   C15
  8752   8755   8758   8761      9     0.00   0.41840   5 ;    C18-   C17-   C16-   C15
  8752   8755   8758   8761      9     0.00   1.25520   3 ;    C18-   C17-   C16-   C15
  8753   8752   8755   8756      9     0.00   0.62760   3 ;    H8R-   C18-   C17-   H7R
  8753   8752   8755   8757      9     0.00   0.62760   3 ;    H8R-   C18-   C17-   H7S
  8753   8752   8755   8758      9     0.00   0.66944   3 ;    H8R-   C18-   C17-   C16
  8754   8752   8755   8756      9     0.00   0.62760   3 ;    H8S-   C18-   C17-   H7R
  8754   8752   8755   8757      9     0.00   0.62760   3 ;    H8S-   C18-   C17-   H7S
  8754   8752   8755   8758      9     0.00   0.66944   3 ;    H8S-   C18-   C17-   C16
  8755   8758   8761   8762      9     0.00   0.66944   3 ;    C17-   C16-   C15-   H5R
  8755   8758   8761   8763      9     0.00   0.66944   3 ;    C17-   C16-   C15-   H5S
  8755   8758   8761   8764      9     0.00   0.41840   1 ;    C17-   C16-   C15-   C14
  8755   8758   8761   8764      9     0.00   0.41840   2 ;    C17-   C16-   C15-   C14
  8755   8758   8761   8764      9     0.00   0.41840   4 ;    C17-   C16-   C15-   C14
  8755   8758   8761   8764      9     0.00   0.41840   5 ;    C17-   C16-   C15-   C14
  8755   8758   8761   8764      9     0.00   1.25520   3 ;    C17-   C16-   C15-   C14
  8756   8755   8758   8759      9     0.00   0.62760   3 ;    H7R-   C17-   C16-   H6R
  8756   8755   8758   8760      9     0.00   0.62760   3 ;    H7R-   C17-   C16-   H6S
  8756   8755   8758   8761      9     0.00   0.66944   3 ;    H7R-   C17-   C16-   C15
  8757   8755   8758   8759      9     0.00   0.62760   3 ;    H7S-   C17-   C16-   H6R
  8757   8755   8758   8760      9     0.00   0.62760   3 ;    H7S-   C17-   C16-   H6S
  8757   8755   8758   8761      9     0.00   0.66944   3 ;    H7S-   C17-   C16-   C15
  8758   8761   8764   8765      9     0.00   0.66944   3 ;    C16-   C15-   C14-   H4R
  8758   8761   8764   8766      9     0.00   0.66944   3 ;    C16-   C15-   C14-   H4S
  8758   8761   8764   8767      9     0.00   0.41840   1 ;    C16-   C15-   C14-   C13
  8758   8761   8764   8767      9     0.00   0.41840   2 ;    C16-   C15-   C14-   C13
  8758   8761   8764   8767      9     0.00   0.41840   4 ;    C16-   C15-   C14-   C13
  8758   8761   8764   8767      9     0.00   0.41840   5 ;    C16-   C15-   C14-   C13
  8758   8761   8764   8767      9     0.00   1.25520   3 ;    C16-   C15-   C14-   C13
  8759   8758   8761   8762      9     0.00   0.62760   3 ;    H6R-   C16-   C15-   H5R
  8759   8758   8761   8763      9     0.00   0.62760   3 ;    H6R-   C16-   C15-   H5S
  8759   8758   8761   8764      9     0.00   0.66944   3 ;    H6R-   C16-   C15-   C14
  8760   8758   8761   8762      9     0.00   0.62760   3 ;    H6S-   C16-   C15-   H5R
  8760   8758   8761   8763      9     0.00   0.62760   3 ;    H6S-   C16-   C15-   H5S
  8760   8758   8761   8764      9     0.00   0.66944   3 ;    H6S-   C16-   C15-   C14
  8761   8764   8767   8768      9     0.00   0.66944   3 ;    C15-   C14-   C13-   H3R
  8761   8764   8767   8769      9     0.00   0.66944   3 ;    C15-   C14-   C13-   H3S
  8761   8764   8767   8770      9     0.00   0.41840   1 ;    C15-   C14-   C13-   C12
  8761   8764   8767   8770      9     0.00   0.41840   2 ;    C15-   C14-   C13-   C12
  8761   8764   8767   8770      9     0.00   0.41840   4 ;    C15-   C14-   C13-   C12
  8761   8764   8767   8770      9     0.00   0.41840   5 ;    C15-   C14-   C13-   C12
  8761   8764   8767   8770      9     0.00   1.25520   3 ;    C15-   C14-   C13-   C12
  8762   8761   8764   8765      9     0.00   0.62760   3 ;    H5R-   C15-   C14-   H4R
  8762   8761   8764   8766      9     0.00   0.62760   3 ;    H5R-   C15-   C14-   H4S
  8762   8761   8764   8767      9     0.00   0.66944   3 ;    H5R-   C15-   C14-   C13
  8763   8761   8764   8765      9     0.00   0.62760   3 ;    H5S-   C15-   C14-   H4R
  8763   8761   8764   8766      9     0.00   0.62760   3 ;    H5S-   C15-   C14-   H4S
  8763   8761   8764   8767      9     0.00   0.66944   3 ;    H5S-   C15-   C14-   C13
  8764   8767   8770   8771      9     0.00   0.66944   3 ;    C14-   C13-   C12-   H2R
  8764   8767   8770   8772      9     0.00   0.66944   3 ;    C14-   C13-   C12-   H2S
  8764   8767   8770   8773      9     0.00   0.65270   3 ;    C14-   C13-   C12-   C11
  8765   8764   8767   8768      9     0.00   0.62760   3 ;    H4R-   C14-   C13-   H3R
  8765   8764   8767   8769      9     0.00   0.62760   3 ;    H4R-   C14-   C13-   H3S
  8765   8764   8767   8770      9     0.00   0.66944   3 ;    H4R-   C14-   C13-   C12
  8766   8764   8767   8768      9     0.00   0.62760   3 ;    H4S-   C14-   C13-   H3R
  8766   8764   8767   8769      9     0.00   0.62760   3 ;    H4S-   C14-   C13-   H3S
  8766   8764   8767   8770      9     0.00   0.66944   3 ;    H4S-   C14-   C13-   C12
  8767   8770   8773   8774      9   180.00   0.00000   2 ;    C13-   C12-   C11-   O12
  8767   8770   8773   8775      9   180.00   0.00000   2 ;    C13-   C12-   C11-   O11
  8768   8767   8770   8771      9     0.00   0.62760   3 ;    H3R-   C13-   C12-   H2R
  8768   8767   8770   8772      9     0.00   0.62760   3 ;    H3R-   C13-   C12-   H2S
  8768   8767   8770   8773      9     0.00   0.65270   3 ;    H3R-   C13-   C12-   C11
  8769   8767   8770   8771      9     0.00   0.62760   3 ;    H3S-   C13-   C12-   H2R
  8769   8767   8770   8772      9     0.00   0.62760   3 ;    H3S-   C13-   C12-   H2S
  8769   8767   8770   8773      9     0.00   0.65270   3 ;    H3S-   C13-   C12-   C11
  8770   8773   8775   8776      9   180.00  11.29680   2 ;    C12-   C11-   O11-    C1
  8771   8770   8773   8774      9     0.00   3.34720   1 ;    H2R-   C12-   C11-   O12
  8771   8770   8773   8774      9   180.00   0.33472   3 ;    H2R-   C12-   C11-   O12
  8771   8770   8773   8775      9   180.00   0.00000   2 ;    H2R-   C12-   C11-   O11
  8772   8770   8773   8774      9     0.00   3.34720   1 ;    H2S-   C12-   C11-   O12
  8772   8770   8773   8774      9   180.00   0.33472   3 ;    H2S-   C12-   C11-   O12
  8772   8770   8773   8775      9   180.00   0.00000   2 ;    H2S-   C12-   C11-   O11
  8773   8775   8776   8777      9     0.00   1.60247   3 ;    C11-   O11-    C1-    HR
  8773   8775   8776   8778      9     0.00   1.60247   3 ;    C11-   O11-    C1-    HS
  8773   8775   8776   8779      9     0.00  -0.41840   1 ;    C11-   O11-    C1-    C2
  8774   8773   8775   8776      9   180.00   5.85760   1 ;    O12-   C11-   O11-    C1
  8774   8773   8775   8776      9   180.00  11.29680   2 ;    O12-   C11-   O11-    C1
  8775   8776   8779   8780      9     0.00   0.00000   0 ;    O11-    C1-    C2-    HX
  8775   8776   8779   8780      9     0.00   1.04600   1 ;    O11-    C1-    C2-    HX
  8775   8776   8779   8781      9     0.00   0.00000   0 ;    O11-    C1-    C2-    C3
  8775   8776   8779   8781      9     0.00   0.00000   0 ;    O11-    C1-    C2-    C3
  8775   8776   8779   8781      9     0.00   0.00000   0 ;    O11-    C1-    C2-    C3
  8775   8776   8779   8781      9     0.00   0.00000   0 ;    O11-    C1-    C2-    C3
  8775   8776   8779   8781      9     0.00   0.00000   0 ;    O11-    C1-    C2-    C3
  8775   8776   8779   8808      9     0.00   1.25520   2 ;    O11-    C1-    C2-   O21
  8775   8776   8779   8808      9     0.00   4.18400   3 ;    O11-    C1-    C2-   O21
  8775   8776   8779   8808      9   180.00  -0.41840   1 ;    O11-    C1-    C2-   O21
  8776   8779   8781   8782      9     0.00   0.65270   3 ;     C1-    C2-    C3-    HA
  8776   8779   8781   8783      9     0.00   0.65270   3 ;     C1-    C2-    C3-    HB
  8776   8779   8781   8784      9   180.00   3.34720   1 ;     C1-    C2-    C3-   O31
  8776   8779   8808   8809      9     0.00  -0.41840   1 ;     C1-    C2-   O21-   C21
  8777   8776   8779   8780      9     0.00   0.65270   3 ;     HR-    C1-    C2-    HX
  8777   8776   8779   8781      9     0.00   0.65270   3 ;     HR-    C1-    C2-    C3
  8777   8776   8779   8808      9     0.00   0.00000   0 ;     HR-    C1-    C2-   O21
  8777   8776   8779   8808      9     0.00   1.04600   1 ;     HR-    C1-    C2-   O21
  8778   8776   8779   8780      9     0.00   0.65270   3 ;     HS-    C1-    C2-    HX
  8778   8776   8779   8781      9     0.00   0.65270   3 ;     HS-    C1-    C2-    C3
  8778   8776   8779   8808      9     0.00   0.00000   0 ;     HS-    C1-    C2-   O21
  8778   8776   8779   8808      9     0.00   1.04600   1 ;     HS-    C1-    C2-   O21
  8779   8781   8784   8785      9     0.00   0.00000   0 ;     C2-    C3-   O31-   P31
  8779   8781   8784   8785      9   180.00  -3.34720   2 ;     C2-    C3-   O31-   P31
  8779   8808   8809   8810      9   180.00   5.85760   1 ;     C2-   O21-   C21-   O22
  8779   8808   8809   8810      9   180.00  11.29680   2 ;     C2-   O21-   C21-   O22
  8779   8808   8809   8848      9   180.00  11.29680   2 ;     C2-   O21-   C21-   C12
  8780   8779   8781   8782      9     0.00   0.65270   3 ;     HX-    C2-    C3-    HA
  8780   8779   8781   8783      9     0.00   0.65270   3 ;     HX-    C2-    C3-    HB
  8780   8779   8781   8784      9     0.00   0.00000   0 ;     HX-    C2-    C3-   O31
  8780   8779   8781   8784      9     0.00   1.04600   1 ;     HX-    C2-    C3-   O31
  8780   8779   8808   8809      9     0.00   1.60247   3 ;     HX-    C2-   O21-   C21
  8781   8779   8808   8809      9     0.00  -0.41840   1 ;     C3-    C2-   O21-   C21
  8781   8784   8785   8786      9     0.00   2.51040   3 ;     C3-   O31-   P31-   O32
  8781   8784   8785   8786      9     0.00   9.62320   2 ;     C3-   O31-   P31-   O32
  8781   8784   8785   8806      9     0.00   0.00000   0 ;     C3-   O31-   P31-   O33
  8781   8784   8785   8806      9     0.00   0.00000   0 ;     C3-   O31-   P31-   O33
  8781   8784   8785   8806      9     0.00   0.00000   0 ;     C3-   O31-   P31-   O33
  8781   8784   8785   8806      9     0.00   0.00000   0 ;     C3-   O31-   P31-   O33
  8781   8784   8785   8806      9     0.00   0.83680   2 ;     C3-   O31-   P31-   O33
  8781   8784   8785   8807      9     0.00   0.00000   0 ;     C3-   O31-   P31-   O34
  8781   8784   8785   8807      9     0.00   0.00000   0 ;     C3-   O31-   P31-   O34
  8781   8784   8785   8807      9     0.00   0.00000   0 ;     C3-   O31-   P31-   O34
  8781   8784   8785   8807      9     0.00   0.00000   0 ;     C3-   O31-   P31-   O34
  8781   8784   8785   8807      9     0.00   0.83680   2 ;     C3-   O31-   P31-   O34
  8782   8781   8779   8808      9     0.00   0.00000   0 ;     HA-    C3-    C2-   O21
  8782   8781   8779   8808      9     0.00   1.04600   1 ;     HA-    C3-    C2-   O21
  8782   8781   8784   8785      9     0.00   0.00000   0 ;     HA-    C3-   O31-   P31
  8782   8781   8784   8785      9     0.00   0.00000   0 ;     HA-    C3-   O31-   P31
  8782   8781   8784   8785      9     0.00   0.00000   0 ;     HA-    C3-   O31-   P31
  8782   8781   8784   8785      9     0.00   0.00000   0 ;     HA-    C3-   O31-   P31
  8782   8781   8784   8785      9     0.00   1.60247   3 ;     HA-    C3-   O31-   P31
  8783   8781   8779   8808      9     0.00   0.00000   0 ;     HB-    C3-    C2-   O21
  8783   8781   8779   8808      9     0.00   1.04600   1 ;     HB-    C3-    C2-   O21
  8783   8781   8784   8785      9     0.00   0.00000   0 ;     HB-    C3-   O31-   P31
  8783   8781   8784   8785      9     0.00   0.00000   0 ;     HB-    C3-   O31-   P31
  8783   8781   8784   8785      9     0.00   0.00000   0 ;     HB-    C3-   O31-   P31
  8783   8781   8784   8785      9     0.00   0.00000   0 ;     HB-    C3-   O31-   P31
  8783   8781   8784   8785      9     0.00   1.60247   3 ;     HB-    C3-   O31-   P31
  8784   8781   8779   8808      9     0.00   0.00000   0 ;    O31-    C3-    C2-   O21
  8784   8781   8779   8808      9     0.00   0.00000   0 ;    O31-    C3-    C2-   O21
  8784   8781   8779   8808      9     0.00   0.00000   0 ;    O31-    C3-    C2-   O21
  8784   8781   8779   8808      9     0.00   0.00000   0 ;    O31-    C3-    C2-   O21
  8784   8781   8779   8808      9     0.00   0.00000   0 ;    O31-    C3-    C2-   O21
  8784   8785   8786   8787      9     0.00   2.51040   3 ;    O31-   P31-   O32-   C31
  8784   8785   8786   8787      9     0.00   9.62320   2 ;    O31-   P31-   O32-   C31
  8785   8786   8787   8788      9     0.00   0.00000   0 ;    P31-   O32-   C31-   H1A
  8785   8786   8787   8788      9     0.00   0.00000   0 ;    P31-   O32-   C31-   H1A
  8785   8786   8787   8788      9     0.00   0.00000   0 ;    P31-   O32-   C31-   H1A
  8785   8786   8787   8788      9     0.00   0.00000   0 ;    P31-   O32-   C31-   H1A
  8785   8786   8787   8788      9     0.00   1.60247   3 ;    P31-   O32-   C31-   H1A
  8785   8786   8787   8789      9     0.00   0.00000   0 ;    P31-   O32-   C31-   H1B
  8785   8786   8787   8789      9     0.00   0.00000   0 ;    P31-   O32-   C31-   H1B
  8785   8786   8787   8789      9     0.00   0.00000   0 ;    P31-   O32-   C31-   H1B
  8785   8786   8787   8789      9     0.00   0.00000   0 ;    P31-   O32-   C31-   H1B
  8785   8786   8787   8789      9     0.00   1.60247   3 ;    P31-   O32-   C31-   H1B
  8785   8786   8787   8790      9     0.00   0.00000   0 ;    P31-   O32-   C31-   C32
  8785   8786   8787   8790      9   180.00  -3.34720   2 ;    P31-   O32-   C31-   C32
  8786   8787   8790   8791      9     0.00   0.65270   3 ;    O32-   C31-   C32-   H2A
  8786   8787   8790   8792      9     0.00   0.65270   3 ;    O32-   C31-   C32-   H2B
  8786   8787   8790   8793      9     0.00   4.18400   3 ;    O32-   C31-   C32-   N31
  8787   8786   8785   8806      9     0.00   0.00000   0 ;    C31-   O32-   P31-   O33
  8787   8786   8785   8806      9     0.00   0.00000   0 ;    C31-   O32-   P31-   O33
  8787   8786   8785   8806      9     0.00   0.00000   0 ;    C31-   O32-   P31-   O33
  8787   8786   8785   8806      9     0.00   0.00000   0 ;    C31-   O32-   P31-   O33
  8787   8786   8785   8806      9     0.00   0.83680   2 ;    C31-   O32-   P31-   O33
  8787   8786   8785   8807      9     0.00   0.00000   0 ;    C31-   O32-   P31-   O34
  8787   8786   8785   8807      9     0.00   0.00000   0 ;    C31-   O32-   P31-   O34
  8787   8786   8785   8807      9     0.00   0.00000   0 ;    C31-   O32-   P31-   O34
  8787   8786   8785   8807      9     0.00   0.00000   0 ;    C31-   O32-   P31-   O34
  8787   8786   8785   8807      9     0.00   0.83680   2 ;    C31-   O32-   P31-   O34
  8787   8790   8793   8794      9     0.00   0.65270   3 ;    C31-   C32-   N31-   C33
  8787   8790   8793   8798      9     0.00   0.65270   3 ;    C31-   C32-   N31-   C34
  8787   8790   8793   8802      9     0.00   0.65270   3 ;    C31-   C32-   N31-   C35
  8788   8787   8790   8791      9     0.00   0.65270   3 ;    H1A-   C31-   C32-   H2A
  8788   8787   8790   8792      9     0.00   0.65270   3 ;    H1A-   C31-   C32-   H2B
  8788   8787   8790   8793      9     0.00   0.65270   3 ;    H1A-   C31-   C32-   N31
  8789   8787   8790   8791      9     0.00   0.65270   3 ;    H1B-   C31-   C32-   H2A
  8789   8787   8790   8792      9     0.00   0.65270   3 ;    H1B-   C31-   C32-   H2B
  8789   8787   8790   8793      9     0.00   0.65270   3 ;    H1B-   C31-   C32-   N31
  8790   8793   8794   8795      9     0.00   0.65270   3 ;    C32-   N31-   C33-   H3A
  8790   8793   8794   8796      9     0.00   0.65270   3 ;    C32-   N31-   C33-   H3B
  8790   8793   8794   8797      9     0.00   0.65270   3 ;    C32-   N31-   C33-   H3C
  8790   8793   8798   8799      9     0.00   0.65270   3 ;    C32-   N31-   C34-   H4A
  8790   8793   8798   8800      9     0.00   0.65270   3 ;    C32-   N31-   C34-   H4B
  8790   8793   8798   8801      9     0.00   0.65270   3 ;    C32-   N31-   C34-   H4C
  8790   8793   8802   8803      9     0.00   0.65270   3 ;    C32-   N31-   C35-   H5A
  8790   8793   8802   8804      9     0.00   0.65270   3 ;    C32-   N31-   C35-   H5B
  8790   8793   8802   8805      9     0.00   0.65270   3 ;    C32-   N31-   C35-   H5C
  8791   8790   8793   8794      9     0.00   0.65270   3 ;    H2A-   C32-   N31-   C33
  8791   8790   8793   8798      9     0.00   0.65270   3 ;    H2A-   C32-   N31-   C34
  8791   8790   8793   8802      9     0.00   0.65270   3 ;    H2A-   C32-   N31-   C35
  8792   8790   8793   8794      9     0.00   0.65270   3 ;    H2B-   C32-   N31-   C33
  8792   8790   8793   8798      9     0.00   0.65270   3 ;    H2B-   C32-   N31-   C34
  8792   8790   8793   8802      9     0.00   0.65270   3 ;    H2B-   C32-   N31-   C35
  8794   8793   8798   8799      9     0.00   0.65270   3 ;    C33-   N31-   C34-   H4A
  8794   8793   8798   8800      9     0.00   0.65270   3 ;    C33-   N31-   C34-   H4B
  8794   8793   8798   8801      9     0.00   0.65270   3 ;    C33-   N31-   C34-   H4C
  8794   8793   8802   8803      9     0.00   0.65270   3 ;    C33-   N31-   C35-   H5A
  8794   8793   8802   8804      9     0.00   0.65270   3 ;    C33-   N31-   C35-   H5B
  8794   8793   8802   8805      9     0.00   0.65270   3 ;    C33-   N31-   C35-   H5C
  8795   8794   8793   8798      9     0.00   0.65270   3 ;    H3A-   C33-   N31-   C34
  8795   8794   8793   8802      9     0.00   0.65270   3 ;    H3A-   C33-   N31-   C35
  8796   8794   8793   8798      9     0.00   0.65270   3 ;    H3B-   C33-   N31-   C34
  8796   8794   8793   8802      9     0.00   0.65270   3 ;    H3B-   C33-   N31-   C35
  8797   8794   8793   8798      9     0.00   0.65270   3 ;    H3C-   C33-   N31-   C34
  8797   8794   8793   8802      9     0.00   0.65270   3 ;    H3C-   C33-   N31-   C35
  8798   8793   8802   8803      9     0.00   0.65270   3 ;    C34-   N31-   C35-   H5A
  8798   8793   8802   8804      9     0.00   0.65270   3 ;    C34-   N31-   C35-   H5B
  8798   8793   8802   8805      9     0.00   0.65270   3 ;    C34-   N31-   C35-   H5C
  8799   8798   8793   8802      9     0.00   0.65270   3 ;    H4A-   C34-   N31-   C35
  8800   8798   8793   8802      9     0.00   0.65270   3 ;    H4B-   C34-   N31-   C35
  8801   8798   8793   8802      9     0.00   0.65270   3 ;    H4C-   C34-   N31-   C35
  8808   8809   8848   8845      9   180.00   0.00000   2 ;    O21-   C21-   C12-   C13
  8808   8809   8848   8849      9   180.00   0.00000   2 ;    O21-   C21-   C12-   H2R
  8808   8809   8848   8850      9   180.00   0.00000   2 ;    O21-   C21-   C12-   H2S
  8809   8848   8845   8842      9     0.00   0.65270   3 ;    C21-   C12-   C13-   C14
  8809   8848   8845   8846      9     0.00   0.65270   3 ;    C21-   C12-   C13-   H3R
  8809   8848   8845   8847      9     0.00   0.65270   3 ;    C21-   C12-   C13-   H3S
  8810   8809   8848   8845      9   180.00   0.00000   2 ;    O22-   C21-   C12-   C13
  8810   8809   8848   8849      9     0.00   3.34720   1 ;    O22-   C21-   C12-   H2R
  8810   8809   8848   8849      9   180.00   0.33472   3 ;    O22-   C21-   C12-   H2R
  8810   8809   8848   8850      9     0.00   3.34720   1 ;    O22-   C21-   C12-   H2S
  8810   8809   8848   8850      9   180.00   0.33472   3 ;    O22-   C21-   C12-   H2S
  8811   8812   8815   8816      9     0.00   0.62760   3 ;   H14T-  C114-  C113-  H13R
  8811   8812   8815   8817      9     0.00   0.62760   3 ;   H14T-  C114-  C113-  H13S
  8811   8812   8815   8818      9     0.00   0.66944   3 ;   H14T-  C114-  C113-  C112
  8812   8815   8818   8819      9     0.00   0.66944   3 ;   C114-  C113-  C112-  H12R
  8812   8815   8818   8820      9     0.00   0.66944   3 ;   C114-  C113-  C112-  H12S
  8812   8815   8818   8821      9     0.00   0.41840   1 ;   C114-  C113-  C112-  C111
  8812   8815   8818   8821      9     0.00   0.41840   2 ;   C114-  C113-  C112-  C111
  8812   8815   8818   8821      9     0.00   0.41840   4 ;   C114-  C113-  C112-  C111
  8812   8815   8818   8821      9     0.00   0.41840   5 ;   C114-  C113-  C112-  C111
  8812   8815   8818   8821      9     0.00   1.25520   3 ;   C114-  C113-  C112-  C111
  8813   8812   8815   8816      9     0.00   0.62760   3 ;   H14R-  C114-  C113-  H13R
  8813   8812   8815   8817      9     0.00   0.62760   3 ;   H14R-  C114-  C113-  H13S
  8813   8812   8815   8818      9     0.00   0.66944   3 ;   H14R-  C114-  C113-  C112
  8814   8812   8815   8816      9     0.00   0.62760   3 ;   H14S-  C114-  C113-  H13R
  8814   8812   8815   8817      9     0.00   0.62760   3 ;   H14S-  C114-  C113-  H13S
  8814   8812   8815   8818      9     0.00   0.66944   3 ;   H14S-  C114-  C113-  C112
  8815   8818   8821   8822      9     0.00   0.66944   3 ;   C113-  C112-  C111-  H11R
  8815   8818   8821   8823      9     0.00   0.66944   3 ;   C113-  C112-  C111-  H11S
  8815   8818   8821   8824      9     0.00   0.41840   1 ;   C113-  C112-  C111-  C110
  8815   8818   8821   8824      9     0.00   0.41840   2 ;   C113-  C112-  C111-  C110
  8815   8818   8821   8824      9     0.00   0.41840   4 ;   C113-  C112-  C111-  C110
  8815   8818   8821   8824      9     0.00   0.41840   5 ;   C113-  C112-  C111-  C110
  8815   8818   8821   8824      9     0.00   1.25520   3 ;   C113-  C112-  C111-  C110
  8816   8815   8818   8819      9     0.00   0.62760   3 ;   H13R-  C113-  C112-  H12R
  8816   8815   8818   8820      9     0.00   0.62760   3 ;   H13R-  C113-  C112-  H12S
  8816   8815   8818   8821      9     0.00   0.66944   3 ;   H13R-  C113-  C112-  C111
  8817   8815   8818   8819      9     0.00   0.62760   3 ;   H13S-  C113-  C112-  H12R
  8817   8815   8818   8820      9     0.00   0.62760   3 ;   H13S-  C113-  C112-  H12S
  8817   8815   8818   8821      9     0.00   0.66944   3 ;   H13S-  C113-  C112-  C111
  8818   8821   8824   8825      9     0.00   0.66944   3 ;   C112-  C111-  C110-  H10R
  8818   8821   8824   8826      9     0.00   0.66944   3 ;   C112-  C111-  C110-  H10S
  8818   8821   8824   8827      9     0.00   0.41840   1 ;   C112-  C111-  C110-   C19
  8818   8821   8824   8827      9     0.00   0.41840   2 ;   C112-  C111-  C110-   C19
  8818   8821   8824   8827      9     0.00   0.41840   4 ;   C112-  C111-  C110-   C19
  8818   8821   8824   8827      9     0.00   0.41840   5 ;   C112-  C111-  C110-   C19
  8818   8821   8824   8827      9     0.00   1.25520   3 ;   C112-  C111-  C110-   C19
  8819   8818   8821   8822      9     0.00   0.62760   3 ;   H12R-  C112-  C111-  H11R
  8819   8818   8821   8823      9     0.00   0.62760   3 ;   H12R-  C112-  C111-  H11S
  8819   8818   8821   8824      9     0.00   0.66944   3 ;   H12R-  C112-  C111-  C110
  8820   8818   8821   8822      9     0.00   0.62760   3 ;   H12S-  C112-  C111-  H11R
  8820   8818   8821   8823      9     0.00   0.62760   3 ;   H12S-  C112-  C111-  H11S
  8820   8818   8821   8824      9     0.00   0.66944   3 ;   H12S-  C112-  C111-  C110
  8821   8824   8827   8828      9     0.00   0.66944   3 ;   C111-  C110-   C19-   H9R
  8821   8824   8827   8829      9     0.00   0.66944   3 ;   C111-  C110-   C19-   H9S
  8821   8824   8827   8830      9     0.00   0.41840   1 ;   C111-  C110-   C19-   C18
  8821   8824   8827   8830      9     0.00   0.41840   2 ;   C111-  C110-   C19-   C18
  8821   8824   8827   8830      9     0.00   0.41840   4 ;   C111-  C110-   C19-   C18
  8821   8824   8827   8830      9     0.00   0.41840   5 ;   C111-  C110-   C19-   C18
  8821   8824   8827   8830      9     0.00   1.25520   3 ;   C111-  C110-   C19-   C18
  8822   8821   8824   8825      9     0.00   0.62760   3 ;   H11R-  C111-  C110-  H10R
  8822   8821   8824   8826      9     0.00   0.62760   3 ;   H11R-  C111-  C110-  H10S
  8822   8821   8824   8827      9     0.00   0.66944   3 ;   H11R-  C111-  C110-   C19
  8823   8821   8824   8825      9     0.00   0.62760   3 ;   H11S-  C111-  C110-  H10R
  8823   8821   8824   8826      9     0.00   0.62760   3 ;   H11S-  C111-  C110-  H10S
  8823   8821   8824   8827      9     0.00   0.66944   3 ;   H11S-  C111-  C110-   C19
  8824   8827   8830   8831      9     0.00   0.66944   3 ;   C110-   C19-   C18-   H8R
  8824   8827   8830   8832      9     0.00   0.66944   3 ;   C110-   C19-   C18-   H8S
  8824   8827   8830   8833      9     0.00   0.41840   1 ;   C110-   C19-   C18-   C17
  8824   8827   8830   8833      9     0.00   0.41840   2 ;   C110-   C19-   C18-   C17
  8824   8827   8830   8833      9     0.00   0.41840   4 ;   C110-   C19-   C18-   C17
  8824   8827   8830   8833      9     0.00   0.41840   5 ;   C110-   C19-   C18-   C17
  8824   8827   8830   8833      9     0.00   1.25520   3 ;   C110-   C19-   C18-   C17
  8825   8824   8827   8828      9     0.00   0.62760   3 ;   H10R-  C110-   C19-   H9R
  8825   8824   8827   8829      9     0.00   0.62760   3 ;   H10R-  C110-   C19-   H9S
  8825   8824   8827   8830      9     0.00   0.66944   3 ;   H10R-  C110-   C19-   C18
  8826   8824   8827   8828      9     0.00   0.62760   3 ;   H10S-  C110-   C19-   H9R
  8826   8824   8827   8829      9     0.00   0.62760   3 ;   H10S-  C110-   C19-   H9S
  8826   8824   8827   8830      9     0.00   0.66944   3 ;   H10S-  C110-   C19-   C18
  8827   8830   8833   8834      9     0.00   0.66944   3 ;    C19-   C18-   C17-   H7R
  8827   8830   8833   8835      9     0.00   0.66944   3 ;    C19-   C18-   C17-   H7S
  8827   8830   8833   8836      9     0.00   0.41840   1 ;    C19-   C18-   C17-   C16
  8827   8830   8833   8836      9     0.00   0.41840   2 ;    C19-   C18-   C17-   C16
  8827   8830   8833   8836      9     0.00   0.41840   4 ;    C19-   C18-   C17-   C16
  8827   8830   8833   8836      9     0.00   0.41840   5 ;    C19-   C18-   C17-   C16
  8827   8830   8833   8836      9     0.00   1.25520   3 ;    C19-   C18-   C17-   C16
  8828   8827   8830   8831      9     0.00   0.62760   3 ;    H9R-   C19-   C18-   H8R
  8828   8827   8830   8832      9     0.00   0.62760   3 ;    H9R-   C19-   C18-   H8S
  8828   8827   8830   8833      9     0.00   0.66944   3 ;    H9R-   C19-   C18-   C17
  8829   8827   8830   8831      9     0.00   0.62760   3 ;    H9S-   C19-   C18-   H8R
  8829   8827   8830   8832      9     0.00   0.62760   3 ;    H9S-   C19-   C18-   H8S
  8829   8827   8830   8833      9     0.00   0.66944   3 ;    H9S-   C19-   C18-   C17
  8830   8833   8836   8837      9     0.00   0.66944   3 ;    C18-   C17-   C16-   H6R
  8830   8833   8836   8838      9     0.00   0.66944   3 ;    C18-   C17-   C16-   H6S
  8830   8833   8836   8839      9     0.00   0.41840   1 ;    C18-   C17-   C16-   C15
  8830   8833   8836   8839      9     0.00   0.41840   2 ;    C18-   C17-   C16-   C15
  8830   8833   8836   8839      9     0.00   0.41840   4 ;    C18-   C17-   C16-   C15
  8830   8833   8836   8839      9     0.00   0.41840   5 ;    C18-   C17-   C16-   C15
  8830   8833   8836   8839      9     0.00   1.25520   3 ;    C18-   C17-   C16-   C15
  8831   8830   8833   8834      9     0.00   0.62760   3 ;    H8R-   C18-   C17-   H7R
  8831   8830   8833   8835      9     0.00   0.62760   3 ;    H8R-   C18-   C17-   H7S
  8831   8830   8833   8836      9     0.00   0.66944   3 ;    H8R-   C18-   C17-   C16
  8832   8830   8833   8834      9     0.00   0.62760   3 ;    H8S-   C18-   C17-   H7R
  8832   8830   8833   8835      9     0.00   0.62760   3 ;    H8S-   C18-   C17-   H7S
  8832   8830   8833   8836      9     0.00   0.66944   3 ;    H8S-   C18-   C17-   C16
  8833   8836   8839   8840      9     0.00   0.66944   3 ;    C17-   C16-   C15-   H5R
  8833   8836   8839   8841      9     0.00   0.66944   3 ;    C17-   C16-   C15-   H5S
  8833   8836   8839   8842      9     0.00   0.41840   1 ;    C17-   C16-   C15-   C14
  8833   8836   8839   8842      9     0.00   0.41840   2 ;    C17-   C16-   C15-   C14
  8833   8836   8839   8842      9     0.00   0.41840   4 ;    C17-   C16-   C15-   C14
  8833   8836   8839   8842      9     0.00   0.41840   5 ;    C17-   C16-   C15-   C14
  8833   8836   8839   8842      9     0.00   1.25520   3 ;    C17-   C16-   C15-   C14
  8834   8833   8836   8837      9     0.00   0.62760   3 ;    H7R-   C17-   C16-   H6R
  8834   8833   8836   8838      9     0.00   0.62760   3 ;    H7R-   C17-   C16-   H6S
  8834   8833   8836   8839      9     0.00   0.66944   3 ;    H7R-   C17-   C16-   C15
  8835   8833   8836   8837      9     0.00   0.62760   3 ;    H7S-   C17-   C16-   H6R
  8835   8833   8836   8838      9     0.00   0.62760   3 ;    H7S-   C17-   C16-   H6S
  8835   8833   8836   8839      9     0.00   0.66944   3 ;    H7S-   C17-   C16-   C15
  8836   8839   8842   8843      9     0.00   0.66944   3 ;    C16-   C15-   C14-   H4R
  8836   8839   8842   8844      9     0.00   0.66944   3 ;    C16-   C15-   C14-   H4S
  8836   8839   8842   8845      9     0.00   0.41840   1 ;    C16-   C15-   C14-   C13
  8836   8839   8842   8845      9     0.00   0.41840   2 ;    C16-   C15-   C14-   C13
  8836   8839   8842   8845      9     0.00   0.41840   4 ;    C16-   C15-   C14-   C13
  8836   8839   8842   8845      9     0.00   0.41840   5 ;    C16-   C15-   C14-   C13
  8836   8839   8842   8845      9     0.00   1.25520   3 ;    C16-   C15-   C14-   C13
  8837   8836   8839   8840      9     0.00   0.62760   3 ;    H6R-   C16-   C15-   H5R
  8837   8836   8839   8841      9     0.00   0.62760   3 ;    H6R-   C16-   C15-   H5S
  8837   8836   8839   8842      9     0.00   0.66944   3 ;    H6R-   C16-   C15-   C14
  8838   8836   8839   8840      9     0.00   0.62760   3 ;    H6S-   C16-   C15-   H5R
  8838   8836   8839   8841      9     0.00   0.62760   3 ;    H6S-   C16-   C15-   H5S
  8838   8836   8839   8842      9     0.00   0.66944   3 ;    H6S-   C16-   C15-   C14
  8839   8842   8845   8846      9     0.00   0.66944   3 ;    C15-   C14-   C13-   H3R
  8839   8842   8845   8847      9     0.00   0.66944   3 ;    C15-   C14-   C13-   H3S
  8839   8842   8845   8848      9     0.00   0.41840   1 ;    C15-   C14-   C13-   C12
  8839   8842   8845   8848      9     0.00   0.41840   2 ;    C15-   C14-   C13-   C12
  8839   8842   8845   8848      9     0.00   0.41840   4 ;    C15-   C14-   C13-   C12
  8839   8842   8845   8848      9     0.00   0.41840   5 ;    C15-   C14-   C13-   C12
  8839   8842   8845   8848      9     0.00   1.25520   3 ;    C15-   C14-   C13-   C12
  8840   8839   8842   8843      9     0.00   0.62760   3 ;    H5R-   C15-   C14-   H4R
  8840   8839   8842   8844      9     0.00   0.62760   3 ;    H5R-   C15-   C14-   H4S
  8840   8839   8842   8845      9     0.00   0.66944   3 ;    H5R-   C15-   C14-   C13
  8841   8839   8842   8843      9     0.00   0.62760   3 ;    H5S-   C15-   C14-   H4R
  8841   8839   8842   8844      9     0.00   0.62760   3 ;    H5S-   C15-   C14-   H4S
  8841   8839   8842   8845      9     0.00   0.66944   3 ;    H5S-   C15-   C14-   C13
  8842   8845   8848   8849      9     0.00   0.66944   3 ;    C14-   C13-   C12-   H2R
  8842   8845   8848   8850      9     0.00   0.66944   3 ;    C14-   C13-   C12-   H2S
  8843   8842   8845   8846      9     0.00   0.62760   3 ;    H4R-   C14-   C13-   H3R
  8843   8842   8845   8847      9     0.00   0.62760   3 ;    H4R-   C14-   C13-   H3S
  8843   8842   8845   8848      9     0.00   0.66944   3 ;    H4R-   C14-   C13-   C12
  8844   8842   8845   8846      9     0.00   0.62760   3 ;    H4S-   C14-   C13-   H3R
  8844   8842   8845   8847      9     0.00   0.62760   3 ;    H4S-   C14-   C13-   H3S
  8844   8842   8845   8848      9     0.00   0.66944   3 ;    H4S-   C14-   C13-   C12
  8846   8845   8848   8849      9     0.00   0.62760   3 ;    H3R-   C13-   C12-   H2R
  8846   8845   8848   8850      9     0.00   0.62760   3 ;    H3R-   C13-   C12-   H2S
  8847   8845   8848   8849      9     0.00   0.62760   3 ;    H3S-   C13-   C12-   H2R
  8847   8845   8848   8850      9     0.00   0.62760   3 ;    H3S-   C13-   C12-   H2S
  8851   8852   8855   8856      9     0.00   0.62760   3 ;   H14T-  C114-  C113-  H13R
  8851   8852   8855   8857      9     0.00   0.62760   3 ;   H14T-  C114-  C113-  H13S
  8851   8852   8855   8858      9     0.00   0.66944   3 ;   H14T-  C114-  C113-  C112
  8852   8855   8858   8859      9     0.00   0.66944   3 ;   C114-  C113-  C112-  H12R
  8852   8855   8858   8860      9     0.00   0.66944   3 ;   C114-  C113-  C112-  H12S
  8852   8855   8858   8861      9     0.00   0.41840   1 ;   C114-  C113-  C112-  C111
  8852   8855   8858   8861      9     0.00   0.41840   2 ;   C114-  C113-  C112-  C111
  8852   8855   8858   8861      9     0.00   0.41840   4 ;   C114-  C113-  C112-  C111
  8852   8855   8858   8861      9     0.00   0.41840   5 ;   C114-  C113-  C112-  C111
  8852   8855   8858   8861      9     0.00   1.25520   3 ;   C114-  C113-  C112-  C111
  8853   8852   8855   8856      9     0.00   0.62760   3 ;   H14R-  C114-  C113-  H13R
  8853   8852   8855   8857      9     0.00   0.62760   3 ;   H14R-  C114-  C113-  H13S
  8853   8852   8855   8858      9     0.00   0.66944   3 ;   H14R-  C114-  C113-  C112
  8854   8852   8855   8856      9     0.00   0.62760   3 ;   H14S-  C114-  C113-  H13R
  8854   8852   8855   8857      9     0.00   0.62760   3 ;   H14S-  C114-  C113-  H13S
  8854   8852   8855   8858      9     0.00   0.66944   3 ;   H14S-  C114-  C113-  C112
  8855   8858   8861   8862      9     0.00   0.66944   3 ;   C113-  C112-  C111-  H11R
  8855   8858   8861   8863      9     0.00   0.66944   3 ;   C113-  C112-  C111-  H11S
  8855   8858   8861   8864      9     0.00   0.41840   1 ;   C113-  C112-  C111-  C110
  8855   8858   8861   8864      9     0.00   0.41840   2 ;   C113-  C112-  C111-  C110
  8855   8858   8861   8864      9     0.00   0.41840   4 ;   C113-  C112-  C111-  C110
  8855   8858   8861   8864      9     0.00   0.41840   5 ;   C113-  C112-  C111-  C110
  8855   8858   8861   8864      9     0.00   1.25520   3 ;   C113-  C112-  C111-  C110
  8856   8855   8858   8859      9     0.00   0.62760   3 ;   H13R-  C113-  C112-  H12R
  8856   8855   8858   8860      9     0.00   0.62760   3 ;   H13R-  C113-  C112-  H12S
  8856   8855   8858   8861      9     0.00   0.66944   3 ;   H13R-  C113-  C112-  C111
  8857   8855   8858   8859      9     0.00   0.62760   3 ;   H13S-  C113-  C112-  H12R
  8857   8855   8858   8860      9     0.00   0.62760   3 ;   H13S-  C113-  C112-  H12S
  8857   8855   8858   8861      9     0.00   0.66944   3 ;   H13S-  C113-  C112-  C111
  8858   8861   8864   8865      9     0.00   0.66944   3 ;   C112-  C111-  C110-  H10R
  8858   8861   8864   8866      9     0.00   0.66944   3 ;   C112-  C111-  C110-  H10S
  8858   8861   8864   8867      9     0.00   0.41840   1 ;   C112-  C111-  C110-   C19
  8858   8861   8864   8867      9     0.00   0.41840   2 ;   C112-  C111-  C110-   C19
  8858   8861   8864   8867      9     0.00   0.41840   4 ;   C112-  C111-  C110-   C19
  8858   8861   8864   8867      9     0.00   0.41840   5 ;   C112-  C111-  C110-   C19
  8858   8861   8864   8867      9     0.00   1.25520   3 ;   C112-  C111-  C110-   C19
  8859   8858   8861   8862      9     0.00   0.62760   3 ;   H12R-  C112-  C111-  H11R
  8859   8858   8861   8863      9     0.00   0.62760   3 ;   H12R-  C112-  C111-  H11S
  8859   8858   8861   8864      9     0.00   0.66944   3 ;   H12R-  C112-  C111-  C110
  8860   8858   8861   8862      9     0.00   0.62760   3 ;   H12S-  C112-  C111-  H11R
  8860   8858   8861   8863      9     0.00   0.62760   3 ;   H12S-  C112-  C111-  H11S
  8860   8858   8861   8864      9     0.00   0.66944   3 ;   H12S-  C112-  C111-  C110
  8861   8864   8867   8868      9     0.00   0.66944   3 ;   C111-  C110-   C19-   H9R
  8861   8864   8867   8869      9     0.00   0.66944   3 ;   C111-  C110-   C19-   H9S
  8861   8864   8867   8870      9     0.00   0.41840   1 ;   C111-  C110-   C19-   C18
  8861   8864   8867   8870      9     0.00   0.41840   2 ;   C111-  C110-   C19-   C18
  8861   8864   8867   8870      9     0.00   0.41840   4 ;   C111-  C110-   C19-   C18
  8861   8864   8867   8870      9     0.00   0.41840   5 ;   C111-  C110-   C19-   C18
  8861   8864   8867   8870      9     0.00   1.25520   3 ;   C111-  C110-   C19-   C18
  8862   8861   8864   8865      9     0.00   0.62760   3 ;   H11R-  C111-  C110-  H10R
  8862   8861   8864   8866      9     0.00   0.62760   3 ;   H11R-  C111-  C110-  H10S
  8862   8861   8864   8867      9     0.00   0.66944   3 ;   H11R-  C111-  C110-   C19
  8863   8861   8864   8865      9     0.00   0.62760   3 ;   H11S-  C111-  C110-  H10R
  8863   8861   8864   8866      9     0.00   0.62760   3 ;   H11S-  C111-  C110-  H10S
  8863   8861   8864   8867      9     0.00   0.66944   3 ;   H11S-  C111-  C110-   C19
  8864   8867   8870   8871      9     0.00   0.66944   3 ;   C110-   C19-   C18-   H8R
  8864   8867   8870   8872      9     0.00   0.66944   3 ;   C110-   C19-   C18-   H8S
  8864   8867   8870   8873      9     0.00   0.41840   1 ;   C110-   C19-   C18-   C17
  8864   8867   8870   8873      9     0.00   0.41840   2 ;   C110-   C19-   C18-   C17
  8864   8867   8870   8873      9     0.00   0.41840   4 ;   C110-   C19-   C18-   C17
  8864   8867   8870   8873      9     0.00   0.41840   5 ;   C110-   C19-   C18-   C17
  8864   8867   8870   8873      9     0.00   1.25520   3 ;   C110-   C19-   C18-   C17
  8865   8864   8867   8868      9     0.00   0.62760   3 ;   H10R-  C110-   C19-   H9R
  8865   8864   8867   8869      9     0.00   0.62760   3 ;   H10R-  C110-   C19-   H9S
  8865   8864   8867   8870      9     0.00   0.66944   3 ;   H10R-  C110-   C19-   C18
  8866   8864   8867   8868      9     0.00   0.62760   3 ;   H10S-  C110-   C19-   H9R
  8866   8864   8867   8869      9     0.00   0.62760   3 ;   H10S-  C110-   C19-   H9S
  8866   8864   8867   8870      9     0.00   0.66944   3 ;   H10S-  C110-   C19-   C18
  8867   8870   8873   8874      9     0.00   0.66944   3 ;    C19-   C18-   C17-   H7R
  8867   8870   8873   8875      9     0.00   0.66944   3 ;    C19-   C18-   C17-   H7S
  8867   8870   8873   8876      9     0.00   0.41840   1 ;    C19-   C18-   C17-   C16
  8867   8870   8873   8876      9     0.00   0.41840   2 ;    C19-   C18-   C17-   C16
  8867   8870   8873   8876      9     0.00   0.41840   4 ;    C19-   C18-   C17-   C16
  8867   8870   8873   8876      9     0.00   0.41840   5 ;    C19-   C18-   C17-   C16
  8867   8870   8873   8876      9     0.00   1.25520   3 ;    C19-   C18-   C17-   C16
  8868   8867   8870   8871      9     0.00   0.62760   3 ;    H9R-   C19-   C18-   H8R
  8868   8867   8870   8872      9     0.00   0.62760   3 ;    H9R-   C19-   C18-   H8S
  8868   8867   8870   8873      9     0.00   0.66944   3 ;    H9R-   C19-   C18-   C17
  8869   8867   8870   8871      9     0.00   0.62760   3 ;    H9S-   C19-   C18-   H8R
  8869   8867   8870   8872      9     0.00   0.62760   3 ;    H9S-   C19-   C18-   H8S
  8869   8867   8870   8873      9     0.00   0.66944   3 ;    H9S-   C19-   C18-   C17
  8870   8873   8876   8877      9     0.00   0.66944   3 ;    C18-   C17-   C16-   H6R
  8870   8873   8876   8878      9     0.00   0.66944   3 ;    C18-   C17-   C16-   H6S
  8870   8873   8876   8879      9     0.00   0.41840   1 ;    C18-   C17-   C16-   C15
  8870   8873   8876   8879      9     0.00   0.41840   2 ;    C18-   C17-   C16-   C15
  8870   8873   8876   8879      9     0.00   0.41840   4 ;    C18-   C17-   C16-   C15
  8870   8873   8876   8879      9     0.00   0.41840   5 ;    C18-   C17-   C16-   C15
  8870   8873   8876   8879      9     0.00   1.25520   3 ;    C18-   C17-   C16-   C15
  8871   8870   8873   8874      9     0.00   0.62760   3 ;    H8R-   C18-   C17-   H7R
  8871   8870   8873   8875      9     0.00   0.62760   3 ;    H8R-   C18-   C17-   H7S
  8871   8870   8873   8876      9     0.00   0.66944   3 ;    H8R-   C18-   C17-   C16
  8872   8870   8873   8874      9     0.00   0.62760   3 ;    H8S-   C18-   C17-   H7R
  8872   8870   8873   8875      9     0.00   0.62760   3 ;    H8S-   C18-   C17-   H7S
  8872   8870   8873   8876      9     0.00   0.66944   3 ;    H8S-   C18-   C17-   C16
  8873   8876   8879   8880      9     0.00   0.66944   3 ;    C17-   C16-   C15-   H5R
  8873   8876   8879   8881      9     0.00   0.66944   3 ;    C17-   C16-   C15-   H5S
  8873   8876   8879   8882      9     0.00   0.41840   1 ;    C17-   C16-   C15-   C14
  8873   8876   8879   8882      9     0.00   0.41840   2 ;    C17-   C16-   C15-   C14
  8873   8876   8879   8882      9     0.00   0.41840   4 ;    C17-   C16-   C15-   C14
  8873   8876   8879   8882      9     0.00   0.41840   5 ;    C17-   C16-   C15-   C14
  8873   8876   8879   8882      9     0.00   1.25520   3 ;    C17-   C16-   C15-   C14
  8874   8873   8876   8877      9     0.00   0.62760   3 ;    H7R-   C17-   C16-   H6R
  8874   8873   8876   8878      9     0.00   0.62760   3 ;    H7R-   C17-   C16-   H6S
  8874   8873   8876   8879      9     0.00   0.66944   3 ;    H7R-   C17-   C16-   C15
  8875   8873   8876   8877      9     0.00   0.62760   3 ;    H7S-   C17-   C16-   H6R
  8875   8873   8876   8878      9     0.00   0.62760   3 ;    H7S-   C17-   C16-   H6S
  8875   8873   8876   8879      9     0.00   0.66944   3 ;    H7S-   C17-   C16-   C15
  8876   8879   8882   8883      9     0.00   0.66944   3 ;    C16-   C15-   C14-   H4R
  8876   8879   8882   8884      9     0.00   0.66944   3 ;    C16-   C15-   C14-   H4S
  8876   8879   8882   8885      9     0.00   0.41840   1 ;    C16-   C15-   C14-   C13
  8876   8879   8882   8885      9     0.00   0.41840   2 ;    C16-   C15-   C14-   C13
  8876   8879   8882   8885      9     0.00   0.41840   4 ;    C16-   C15-   C14-   C13
  8876   8879   8882   8885      9     0.00   0.41840   5 ;    C16-   C15-   C14-   C13
  8876   8879   8882   8885      9     0.00   1.25520   3 ;    C16-   C15-   C14-   C13
  8877   8876   8879   8880      9     0.00   0.62760   3 ;    H6R-   C16-   C15-   H5R
  8877   8876   8879   8881      9     0.00   0.62760   3 ;    H6R-   C16-   C15-   H5S
  8877   8876   8879   8882      9     0.00   0.66944   3 ;    H6R-   C16-   C15-   C14
  8878   8876   8879   8880      9     0.00   0.62760   3 ;    H6S-   C16-   C15-   H5R
  8878   8876   8879   8881      9     0.00   0.62760   3 ;    H6S-   C16-   C15-   H5S
  8878   8876   8879   8882      9     0.00   0.66944   3 ;    H6S-   C16-   C15-   C14
  8879   8882   8885   8886      9     0.00   0.66944   3 ;    C15-   C14-   C13-   H3R
  8879   8882   8885   8887      9     0.00   0.66944   3 ;    C15-   C14-   C13-   H3S
  8879   8882   8885   8888      9     0.00   0.41840   1 ;    C15-   C14-   C13-   C12
  8879   8882   8885   8888      9     0.00   0.41840   2 ;    C15-   C14-   C13-   C12
  8879   8882   8885   8888      9     0.00   0.41840   4 ;    C15-   C14-   C13-   C12
  8879   8882   8885   8888      9     0.00   0.41840   5 ;    C15-   C14-   C13-   C12
  8879   8882   8885   8888      9     0.00   1.25520   3 ;    C15-   C14-   C13-   C12
  8880   8879   8882   8883      9     0.00   0.62760   3 ;    H5R-   C15-   C14-   H4R
  8880   8879   8882   8884      9     0.00   0.62760   3 ;    H5R-   C15-   C14-   H4S
  8880   8879   8882   8885      9     0.00   0.66944   3 ;    H5R-   C15-   C14-   C13
  8881   8879   8882   8883      9     0.00   0.62760   3 ;    H5S-   C15-   C14-   H4R
  8881   8879   8882   8884      9     0.00   0.62760   3 ;    H5S-   C15-   C14-   H4S
  8881   8879   8882   8885      9     0.00   0.66944   3 ;    H5S-   C15-   C14-   C13
  8882   8885   8888   8889      9     0.00   0.66944   3 ;    C14-   C13-   C12-   H2R
  8882   8885   8888   8890      9     0.00   0.66944   3 ;    C14-   C13-   C12-   H2S
  8882   8885   8888   8891      9     0.00   0.65270   3 ;    C14-   C13-   C12-   C11
  8883   8882   8885   8886      9     0.00   0.62760   3 ;    H4R-   C14-   C13-   H3R
  8883   8882   8885   8887      9     0.00   0.62760   3 ;    H4R-   C14-   C13-   H3S
  8883   8882   8885   8888      9     0.00   0.66944   3 ;    H4R-   C14-   C13-   C12
  8884   8882   8885   8886      9     0.00   0.62760   3 ;    H4S-   C14-   C13-   H3R
  8884   8882   8885   8887      9     0.00   0.62760   3 ;    H4S-   C14-   C13-   H3S
  8884   8882   8885   8888      9     0.00   0.66944   3 ;    H4S-   C14-   C13-   C12
  8885   8888   8891   8892      9   180.00   0.00000   2 ;    C13-   C12-   C11-   O12
  8885   8888   8891   8893      9   180.00   0.00000   2 ;    C13-   C12-   C11-   O11
  8886   8885   8888   8889      9     0.00   0.62760   3 ;    H3R-   C13-   C12-   H2R
  8886   8885   8888   8890      9     0.00   0.62760   3 ;    H3R-   C13-   C12-   H2S
  8886   8885   8888   8891      9     0.00   0.65270   3 ;    H3R-   C13-   C12-   C11
  8887   8885   8888   8889      9     0.00   0.62760   3 ;    H3S-   C13-   C12-   H2R
  8887   8885   8888   8890      9     0.00   0.62760   3 ;    H3S-   C13-   C12-   H2S
  8887   8885   8888   8891      9     0.00   0.65270   3 ;    H3S-   C13-   C12-   C11
  8888   8891   8893   8894      9   180.00  11.29680   2 ;    C12-   C11-   O11-    C1
  8889   8888   8891   8892      9     0.00   3.34720   1 ;    H2R-   C12-   C11-   O12
  8889   8888   8891   8892      9   180.00   0.33472   3 ;    H2R-   C12-   C11-   O12
  8889   8888   8891   8893      9   180.00   0.00000   2 ;    H2R-   C12-   C11-   O11
  8890   8888   8891   8892      9     0.00   3.34720   1 ;    H2S-   C12-   C11-   O12
  8890   8888   8891   8892      9   180.00   0.33472   3 ;    H2S-   C12-   C11-   O12
  8890   8888   8891   8893      9   180.00   0.00000   2 ;    H2S-   C12-   C11-   O11
  8891   8893   8894   8895      9     0.00   1.60247   3 ;    C11-   O11-    C1-    HR
  8891   8893   8894   8896      9     0.00   1.60247   3 ;    C11-   O11-    C1-    HS
  8891   8893   8894   8897      9     0.00  -0.41840   1 ;    C11-   O11-    C1-    C2
  8892   8891   8893   8894      9   180.00   5.85760   1 ;    O12-   C11-   O11-    C1
  8892   8891   8893   8894      9   180.00  11.29680   2 ;    O12-   C11-   O11-    C1
  8893   8894   8897   8898      9     0.00   0.00000   0 ;    O11-    C1-    C2-    HX
  8893   8894   8897   8898      9     0.00   1.04600   1 ;    O11-    C1-    C2-    HX
  8893   8894   8897   8899      9     0.00   0.00000   0 ;    O11-    C1-    C2-    C3
  8893   8894   8897   8899      9     0.00   0.00000   0 ;    O11-    C1-    C2-    C3
  8893   8894   8897   8899      9     0.00   0.00000   0 ;    O11-    C1-    C2-    C3
  8893   8894   8897   8899      9     0.00   0.00000   0 ;    O11-    C1-    C2-    C3
  8893   8894   8897   8899      9     0.00   0.00000   0 ;    O11-    C1-    C2-    C3
  8893   8894   8897   8926      9     0.00   1.25520   2 ;    O11-    C1-    C2-   O21
  8893   8894   8897   8926      9     0.00   4.18400   3 ;    O11-    C1-    C2-   O21
  8893   8894   8897   8926      9   180.00  -0.41840   1 ;    O11-    C1-    C2-   O21
  8894   8897   8899   8900      9     0.00   0.65270   3 ;     C1-    C2-    C3-    HA
  8894   8897   8899   8901      9     0.00   0.65270   3 ;     C1-    C2-    C3-    HB
  8894   8897   8899   8902      9   180.00   3.34720   1 ;     C1-    C2-    C3-   O31
  8894   8897   8926   8927      9     0.00  -0.41840   1 ;     C1-    C2-   O21-   C21
  8895   8894   8897   8898      9     0.00   0.65270   3 ;     HR-    C1-    C2-    HX
  8895   8894   8897   8899      9     0.00   0.65270   3 ;     HR-    C1-    C2-    C3
  8895   8894   8897   8926      9     0.00   0.00000   0 ;     HR-    C1-    C2-   O21
  8895   8894   8897   8926      9     0.00   1.04600   1 ;     HR-    C1-    C2-   O21
  8896   8894   8897   8898      9     0.00   0.65270   3 ;     HS-    C1-    C2-    HX
  8896   8894   8897   8899      9     0.00   0.65270   3 ;     HS-    C1-    C2-    C3
  8896   8894   8897   8926      9     0.00   0.00000   0 ;     HS-    C1-    C2-   O21
  8896   8894   8897   8926      9     0.00   1.04600   1 ;     HS-    C1-    C2-   O21
  8897   8899   8902   8903      9     0.00   0.00000   0 ;     C2-    C3-   O31-   P31
  8897   8899   8902   8903      9   180.00  -3.34720   2 ;     C2-    C3-   O31-   P31
  8897   8926   8927   8928      9   180.00   5.85760   1 ;     C2-   O21-   C21-   O22
  8897   8926   8927   8928      9   180.00  11.29680   2 ;     C2-   O21-   C21-   O22
  8897   8926   8927   8966      9   180.00  11.29680   2 ;     C2-   O21-   C21-   C12
  8898   8897   8899   8900      9     0.00   0.65270   3 ;     HX-    C2-    C3-    HA
  8898   8897   8899   8901      9     0.00   0.65270   3 ;     HX-    C2-    C3-    HB
  8898   8897   8899   8902      9     0.00   0.00000   0 ;     HX-    C2-    C3-   O31
  8898   8897   8899   8902      9     0.00   1.04600   1 ;     HX-    C2-    C3-   O31
  8898   8897   8926   8927      9     0.00   1.60247   3 ;     HX-    C2-   O21-   C21
  8899   8897   8926   8927      9     0.00  -0.41840   1 ;     C3-    C2-   O21-   C21
  8899   8902   8903   8904      9     0.00   2.51040   3 ;     C3-   O31-   P31-   O32
  8899   8902   8903   8904      9     0.00   9.62320   2 ;     C3-   O31-   P31-   O32
  8899   8902   8903   8924      9     0.00   0.00000   0 ;     C3-   O31-   P31-   O33
  8899   8902   8903   8924      9     0.00   0.00000   0 ;     C3-   O31-   P31-   O33
  8899   8902   8903   8924      9     0.00   0.00000   0 ;     C3-   O31-   P31-   O33
  8899   8902   8903   8924      9     0.00   0.00000   0 ;     C3-   O31-   P31-   O33
  8899   8902   8903   8924      9     0.00   0.83680   2 ;     C3-   O31-   P31-   O33
  8899   8902   8903   8925      9     0.00   0.00000   0 ;     C3-   O31-   P31-   O34
  8899   8902   8903   8925      9     0.00   0.00000   0 ;     C3-   O31-   P31-   O34
  8899   8902   8903   8925      9     0.00   0.00000   0 ;     C3-   O31-   P31-   O34
  8899   8902   8903   8925      9     0.00   0.00000   0 ;     C3-   O31-   P31-   O34
  8899   8902   8903   8925      9     0.00   0.83680   2 ;     C3-   O31-   P31-   O34
  8900   8899   8897   8926      9     0.00   0.00000   0 ;     HA-    C3-    C2-   O21
  8900   8899   8897   8926      9     0.00   1.04600   1 ;     HA-    C3-    C2-   O21
  8900   8899   8902   8903      9     0.00   0.00000   0 ;     HA-    C3-   O31-   P31
  8900   8899   8902   8903      9     0.00   0.00000   0 ;     HA-    C3-   O31-   P31
  8900   8899   8902   8903      9     0.00   0.00000   0 ;     HA-    C3-   O31-   P31
  8900   8899   8902   8903      9     0.00   0.00000   0 ;     HA-    C3-   O31-   P31
  8900   8899   8902   8903      9     0.00   1.60247   3 ;     HA-    C3-   O31-   P31
  8901   8899   8897   8926      9     0.00   0.00000   0 ;     HB-    C3-    C2-   O21
  8901   8899   8897   8926      9     0.00   1.04600   1 ;     HB-    C3-    C2-   O21
  8901   8899   8902   8903      9     0.00   0.00000   0 ;     HB-    C3-   O31-   P31
  8901   8899   8902   8903      9     0.00   0.00000   0 ;     HB-    C3-   O31-   P31
  8901   8899   8902   8903      9     0.00   0.00000   0 ;     HB-    C3-   O31-   P31
  8901   8899   8902   8903      9     0.00   0.00000   0 ;     HB-    C3-   O31-   P31
  8901   8899   8902   8903      9     0.00   1.60247   3 ;     HB-    C3-   O31-   P31
  8902   8899   8897   8926      9     0.00   0.00000   0 ;    O31-    C3-    C2-   O21
  8902   8899   8897   8926      9     0.00   0.00000   0 ;    O31-    C3-    C2-   O21
  8902   8899   8897   8926      9     0.00   0.00000   0 ;    O31-    C3-    C2-   O21
  8902   8899   8897   8926      9     0.00   0.00000   0 ;    O31-    C3-    C2-   O21
  8902   8899   8897   8926      9     0.00   0.00000   0 ;    O31-    C3-    C2-   O21
  8902   8903   8904   8905      9     0.00   2.51040   3 ;    O31-   P31-   O32-   C31
  8902   8903   8904   8905      9     0.00   9.62320   2 ;    O31-   P31-   O32-   C31
  8903   8904   8905   8906      9     0.00   0.00000   0 ;    P31-   O32-   C31-   H1A
  8903   8904   8905   8906      9     0.00   0.00000   0 ;    P31-   O32-   C31-   H1A
  8903   8904   8905   8906      9     0.00   0.00000   0 ;    P31-   O32-   C31-   H1A
  8903   8904   8905   8906      9     0.00   0.00000   0 ;    P31-   O32-   C31-   H1A
  8903   8904   8905   8906      9     0.00   1.60247   3 ;    P31-   O32-   C31-   H1A
  8903   8904   8905   8907      9     0.00   0.00000   0 ;    P31-   O32-   C31-   H1B
  8903   8904   8905   8907      9     0.00   0.00000   0 ;    P31-   O32-   C31-   H1B
  8903   8904   8905   8907      9     0.00   0.00000   0 ;    P31-   O32-   C31-   H1B
  8903   8904   8905   8907      9     0.00   0.00000   0 ;    P31-   O32-   C31-   H1B
  8903   8904   8905   8907      9     0.00   1.60247   3 ;    P31-   O32-   C31-   H1B
  8903   8904   8905   8908      9     0.00   0.00000   0 ;    P31-   O32-   C31-   C32
  8903   8904   8905   8908      9   180.00  -3.34720   2 ;    P31-   O32-   C31-   C32
  8904   8905   8908   8909      9     0.00   0.65270   3 ;    O32-   C31-   C32-   H2A
  8904   8905   8908   8910      9     0.00   0.65270   3 ;    O32-   C31-   C32-   H2B
  8904   8905   8908   8911      9     0.00   4.18400   3 ;    O32-   C31-   C32-   N31
  8905   8904   8903   8924      9     0.00   0.00000   0 ;    C31-   O32-   P31-   O33
  8905   8904   8903   8924      9     0.00   0.00000   0 ;    C31-   O32-   P31-   O33
  8905   8904   8903   8924      9     0.00   0.00000   0 ;    C31-   O32-   P31-   O33
  8905   8904   8903   8924      9     0.00   0.00000   0 ;    C31-   O32-   P31-   O33
  8905   8904   8903   8924      9     0.00   0.83680   2 ;    C31-   O32-   P31-   O33
  8905   8904   8903   8925      9     0.00   0.00000   0 ;    C31-   O32-   P31-   O34
  8905   8904   8903   8925      9     0.00   0.00000   0 ;    C31-   O32-   P31-   O34
  8905   8904   8903   8925      9     0.00   0.00000   0 ;    C31-   O32-   P31-   O34
  8905   8904   8903   8925      9     0.00   0.00000   0 ;    C31-   O32-   P31-   O34
  8905   8904   8903   8925      9     0.00   0.83680   2 ;    C31-   O32-   P31-   O34
  8905   8908   8911   8912      9     0.00   0.65270   3 ;    C31-   C32-   N31-   C33
  8905   8908   8911   8916      9     0.00   0.65270   3 ;    C31-   C32-   N31-   C34
  8905   8908   8911   8920      9     0.00   0.65270   3 ;    C31-   C32-   N31-   C35
  8906   8905   8908   8909      9     0.00   0.65270   3 ;    H1A-   C31-   C32-   H2A
  8906   8905   8908   8910      9     0.00   0.65270   3 ;    H1A-   C31-   C32-   H2B
  8906   8905   8908   8911      9     0.00   0.65270   3 ;    H1A-   C31-   C32-   N31
  8907   8905   8908   8909      9     0.00   0.65270   3 ;    H1B-   C31-   C32-   H2A
  8907   8905   8908   8910      9     0.00   0.65270   3 ;    H1B-   C31-   C32-   H2B
  8907   8905   8908   8911      9     0.00   0.65270   3 ;    H1B-   C31-   C32-   N31
  8908   8911   8912   8913      9     0.00   0.65270   3 ;    C32-   N31-   C33-   H3A
  8908   8911   8912   8914      9     0.00   0.65270   3 ;    C32-   N31-   C33-   H3B
  8908   8911   8912   8915      9     0.00   0.65270   3 ;    C32-   N31-   C33-   H3C
  8908   8911   8916   8917      9     0.00   0.65270   3 ;    C32-   N31-   C34-   H4A
  8908   8911   8916   8918      9     0.00   0.65270   3 ;    C32-   N31-   C34-   H4B
  8908   8911   8916   8919      9     0.00   0.65270   3 ;    C32-   N31-   C34-   H4C
  8908   8911   8920   8921      9     0.00   0.65270   3 ;    C32-   N31-   C35-   H5A
  8908   8911   8920   8922      9     0.00   0.65270   3 ;    C32-   N31-   C35-   H5B
  8908   8911   8920   8923      9     0.00   0.65270   3 ;    C32-   N31-   C35-   H5C
  8909   8908   8911   8912      9     0.00   0.65270   3 ;    H2A-   C32-   N31-   C33
  8909   8908   8911   8916      9     0.00   0.65270   3 ;    H2A-   C32-   N31-   C34
  8909   8908   8911   8920      9     0.00   0.65270   3 ;    H2A-   C32-   N31-   C35
  8910   8908   8911   8912      9     0.00   0.65270   3 ;    H2B-   C32-   N31-   C33
  8910   8908   8911   8916      9     0.00   0.65270   3 ;    H2B-   C32-   N31-   C34
  8910   8908   8911   8920      9     0.00   0.65270   3 ;    H2B-   C32-   N31-   C35
  8912   8911   8916   8917      9     0.00   0.65270   3 ;    C33-   N31-   C34-   H4A
  8912   8911   8916   8918      9     0.00   0.65270   3 ;    C33-   N31-   C34-   H4B
  8912   8911   8916   8919      9     0.00   0.65270   3 ;    C33-   N31-   C34-   H4C
  8912   8911   8920   8921      9     0.00   0.65270   3 ;    C33-   N31-   C35-   H5A
  8912   8911   8920   8922      9     0.00   0.65270   3 ;    C33-   N31-   C35-   H5B
  8912   8911   8920   8923      9     0.00   0.65270   3 ;    C33-   N31-   C35-   H5C
  8913   8912   8911   8916      9     0.00   0.65270   3 ;    H3A-   C33-   N31-   C34
  8913   8912   8911   8920      9     0.00   0.65270   3 ;    H3A-   C33-   N31-   C35
  8914   8912   8911   8916      9     0.00   0.65270   3 ;    H3B-   C33-   N31-   C34
  8914   8912   8911   8920      9     0.00   0.65270   3 ;    H3B-   C33-   N31-   C35
  8915   8912   8911   8916      9     0.00   0.65270   3 ;    H3C-   C33-   N31-   C34
  8915   8912   8911   8920      9     0.00   0.65270   3 ;    H3C-   C33-   N31-   C35
  8916   8911   8920   8921      9     0.00   0.65270   3 ;    C34-   N31-   C35-   H5A
  8916   8911   8920   8922      9     0.00   0.65270   3 ;    C34-   N31-   C35-   H5B
  8916   8911   8920   8923      9     0.00   0.65270   3 ;    C34-   N31-   C35-   H5C
  8917   8916   8911   8920      9     0.00   0.65270   3 ;    H4A-   C34-   N31-   C35
  8918   8916   8911   8920      9     0.00   0.65270   3 ;    H4B-   C34-   N31-   C35
  8919   8916   8911   8920      9     0.00   0.65270   3 ;    H4C-   C34-   N31-   C35
  8926   8927   8966   8963      9   180.00   0.00000   2 ;    O21-   C21-   C12-   C13
  8926   8927   8966   8967      9   180.00   0.00000   2 ;    O21-   C21-   C12-   H2R
  8926   8927   8966   8968      9   180.00   0.00000   2 ;    O21-   C21-   C12-   H2S
  8927   8966   8963   8960      9     0.00   0.65270   3 ;    C21-   C12-   C13-   C14
  8927   8966   8963   8964      9     0.00   0.65270   3 ;    C21-   C12-   C13-   H3R
  8927   8966   8963   8965      9     0.00   0.65270   3 ;    C21-   C12-   C13-   H3S
  8928   8927   8966   8963      9   180.00   0.00000   2 ;    O22-   C21-   C12-   C13
  8928   8927   8966   8967      9     0.00   3.34720   1 ;    O22-   C21-   C12-   H2R
  8928   8927   8966   8967      9   180.00   0.33472   3 ;    O22-   C21-   C12-   H2R
  8928   8927   8966   8968      9     0.00   3.34720   1 ;    O22-   C21-   C12-   H2S
  8928   8927   8966   8968      9   180.00   0.33472   3 ;    O22-   C21-   C12-   H2S
  8929   8930   8933   8934      9     0.00   0.62760   3 ;   H14T-  C114-  C113-  H13R
  8929   8930   8933   8935      9     0.00   0.62760   3 ;   H14T-  C114-  C113-  H13S
  8929   8930   8933   8936      9     0.00   0.66944   3 ;   H14T-  C114-  C113-  C112
  8930   8933   8936   8937      9     0.00   0.66944   3 ;   C114-  C113-  C112-  H12R
  8930   8933   8936   8938      9     0.00   0.66944   3 ;   C114-  C113-  C112-  H12S
  8930   8933   8936   8939      9     0.00   0.41840   1 ;   C114-  C113-  C112-  C111
  8930   8933   8936   8939      9     0.00   0.41840   2 ;   C114-  C113-  C112-  C111
  8930   8933   8936   8939      9     0.00   0.41840   4 ;   C114-  C113-  C112-  C111
  8930   8933   8936   8939      9     0.00   0.41840   5 ;   C114-  C113-  C112-  C111
  8930   8933   8936   8939      9     0.00   1.25520   3 ;   C114-  C113-  C112-  C111
  8931   8930   8933   8934      9     0.00   0.62760   3 ;   H14R-  C114-  C113-  H13R
  8931   8930   8933   8935      9     0.00   0.62760   3 ;   H14R-  C114-  C113-  H13S
  8931   8930   8933   8936      9     0.00   0.66944   3 ;   H14R-  C114-  C113-  C112
  8932   8930   8933   8934      9     0.00   0.62760   3 ;   H14S-  C114-  C113-  H13R
  8932   8930   8933   8935      9     0.00   0.62760   3 ;   H14S-  C114-  C113-  H13S
  8932   8930   8933   8936      9     0.00   0.66944   3 ;   H14S-  C114-  C113-  C112
  8933   8936   8939   8940      9     0.00   0.66944   3 ;   C113-  C112-  C111-  H11R
  8933   8936   8939   8941      9     0.00   0.66944   3 ;   C113-  C112-  C111-  H11S
  8933   8936   8939   8942      9     0.00   0.41840   1 ;   C113-  C112-  C111-  C110
  8933   8936   8939   8942      9     0.00   0.41840   2 ;   C113-  C112-  C111-  C110
  8933   8936   8939   8942      9     0.00   0.41840   4 ;   C113-  C112-  C111-  C110
  8933   8936   8939   8942      9     0.00   0.41840   5 ;   C113-  C112-  C111-  C110
  8933   8936   8939   8942      9     0.00   1.25520   3 ;   C113-  C112-  C111-  C110
  8934   8933   8936   8937      9     0.00   0.62760   3 ;   H13R-  C113-  C112-  H12R
  8934   8933   8936   8938      9     0.00   0.62760   3 ;   H13R-  C113-  C112-  H12S
  8934   8933   8936   8939      9     0.00   0.66944   3 ;   H13R-  C113-  C112-  C111
  8935   8933   8936   8937      9     0.00   0.62760   3 ;   H13S-  C113-  C112-  H12R
  8935   8933   8936   8938      9     0.00   0.62760   3 ;   H13S-  C113-  C112-  H12S
  8935   8933   8936   8939      9     0.00   0.66944   3 ;   H13S-  C113-  C112-  C111
  8936   8939   8942   8943      9     0.00   0.66944   3 ;   C112-  C111-  C110-  H10R
  8936   8939   8942   8944      9     0.00   0.66944   3 ;   C112-  C111-  C110-  H10S
  8936   8939   8942   8945      9     0.00   0.41840   1 ;   C112-  C111-  C110-   C19
  8936   8939   8942   8945      9     0.00   0.41840   2 ;   C112-  C111-  C110-   C19
  8936   8939   8942   8945      9     0.00   0.41840   4 ;   C112-  C111-  C110-   C19
  8936   8939   8942   8945      9     0.00   0.41840   5 ;   C112-  C111-  C110-   C19
  8936   8939   8942   8945      9     0.00   1.25520   3 ;   C112-  C111-  C110-   C19
  8937   8936   8939   8940      9     0.00   0.62760   3 ;   H12R-  C112-  C111-  H11R
  8937   8936   8939   8941      9     0.00   0.62760   3 ;   H12R-  C112-  C111-  H11S
  8937   8936   8939   8942      9     0.00   0.66944   3 ;   H12R-  C112-  C111-  C110
  8938   8936   8939   8940      9     0.00   0.62760   3 ;   H12S-  C112-  C111-  H11R
  8938   8936   8939   8941      9     0.00   0.62760   3 ;   H12S-  C112-  C111-  H11S
  8938   8936   8939   8942      9     0.00   0.66944   3 ;   H12S-  C112-  C111-  C110
  8939   8942   8945   8946      9     0.00   0.66944   3 ;   C111-  C110-   C19-   H9R
  8939   8942   8945   8947      9     0.00   0.66944   3 ;   C111-  C110-   C19-   H9S
  8939   8942   8945   8948      9     0.00   0.41840   1 ;   C111-  C110-   C19-   C18
  8939   8942   8945   8948      9     0.00   0.41840   2 ;   C111-  C110-   C19-   C18
  8939   8942   8945   8948      9     0.00   0.41840   4 ;   C111-  C110-   C19-   C18
  8939   8942   8945   8948      9     0.00   0.41840   5 ;   C111-  C110-   C19-   C18
  8939   8942   8945   8948      9     0.00   1.25520   3 ;   C111-  C110-   C19-   C18
  8940   8939   8942   8943      9     0.00   0.62760   3 ;   H11R-  C111-  C110-  H10R
  8940   8939   8942   8944      9     0.00   0.62760   3 ;   H11R-  C111-  C110-  H10S
  8940   8939   8942   8945      9     0.00   0.66944   3 ;   H11R-  C111-  C110-   C19
  8941   8939   8942   8943      9     0.00   0.62760   3 ;   H11S-  C111-  C110-  H10R
  8941   8939   8942   8944      9     0.00   0.62760   3 ;   H11S-  C111-  C110-  H10S
  8941   8939   8942   8945      9     0.00   0.66944   3 ;   H11S-  C111-  C110-   C19
  8942   8945   8948   8949      9     0.00   0.66944   3 ;   C110-   C19-   C18-   H8R
  8942   8945   8948   8950      9     0.00   0.66944   3 ;   C110-   C19-   C18-   H8S
  8942   8945   8948   8951      9     0.00   0.41840   1 ;   C110-   C19-   C18-   C17
  8942   8945   8948   8951      9     0.00   0.41840   2 ;   C110-   C19-   C18-   C17
  8942   8945   8948   8951      9     0.00   0.41840   4 ;   C110-   C19-   C18-   C17
  8942   8945   8948   8951      9     0.00   0.41840   5 ;   C110-   C19-   C18-   C17
  8942   8945   8948   8951      9     0.00   1.25520   3 ;   C110-   C19-   C18-   C17
  8943   8942   8945   8946      9     0.00   0.62760   3 ;   H10R-  C110-   C19-   H9R
  8943   8942   8945   8947      9     0.00   0.62760   3 ;   H10R-  C110-   C19-   H9S
  8943   8942   8945   8948      9     0.00   0.66944   3 ;   H10R-  C110-   C19-   C18
  8944   8942   8945   8946      9     0.00   0.62760   3 ;   H10S-  C110-   C19-   H9R
  8944   8942   8945   8947      9     0.00   0.62760   3 ;   H10S-  C110-   C19-   H9S
  8944   8942   8945   8948      9     0.00   0.66944   3 ;   H10S-  C110-   C19-   C18
  8945   8948   8951   8952      9     0.00   0.66944   3 ;    C19-   C18-   C17-   H7R
  8945   8948   8951   8953      9     0.00   0.66944   3 ;    C19-   C18-   C17-   H7S
  8945   8948   8951   8954      9     0.00   0.41840   1 ;    C19-   C18-   C17-   C16
  8945   8948   8951   8954      9     0.00   0.41840   2 ;    C19-   C18-   C17-   C16
  8945   8948   8951   8954      9     0.00   0.41840   4 ;    C19-   C18-   C17-   C16
  8945   8948   8951   8954      9     0.00   0.41840   5 ;    C19-   C18-   C17-   C16
  8945   8948   8951   8954      9     0.00   1.25520   3 ;    C19-   C18-   C17-   C16
  8946   8945   8948   8949      9     0.00   0.62760   3 ;    H9R-   C19-   C18-   H8R
  8946   8945   8948   8950      9     0.00   0.62760   3 ;    H9R-   C19-   C18-   H8S
  8946   8945   8948   8951      9     0.00   0.66944   3 ;    H9R-   C19-   C18-   C17
  8947   8945   8948   8949      9     0.00   0.62760   3 ;    H9S-   C19-   C18-   H8R
  8947   8945   8948   8950      9     0.00   0.62760   3 ;    H9S-   C19-   C18-   H8S
  8947   8945   8948   8951      9     0.00   0.66944   3 ;    H9S-   C19-   C18-   C17
  8948   8951   8954   8955      9     0.00   0.66944   3 ;    C18-   C17-   C16-   H6R
  8948   8951   8954   8956      9     0.00   0.66944   3 ;    C18-   C17-   C16-   H6S
  8948   8951   8954   8957      9     0.00   0.41840   1 ;    C18-   C17-   C16-   C15
  8948   8951   8954   8957      9     0.00   0.41840   2 ;    C18-   C17-   C16-   C15
  8948   8951   8954   8957      9     0.00   0.41840   4 ;    C18-   C17-   C16-   C15
  8948   8951   8954   8957      9     0.00   0.41840   5 ;    C18-   C17-   C16-   C15
  8948   8951   8954   8957      9     0.00   1.25520   3 ;    C18-   C17-   C16-   C15
  8949   8948   8951   8952      9     0.00   0.62760   3 ;    H8R-   C18-   C17-   H7R
  8949   8948   8951   8953      9     0.00   0.62760   3 ;    H8R-   C18-   C17-   H7S
  8949   8948   8951   8954      9     0.00   0.66944   3 ;    H8R-   C18-   C17-   C16
  8950   8948   8951   8952      9     0.00   0.62760   3 ;    H8S-   C18-   C17-   H7R
  8950   8948   8951   8953      9     0.00   0.62760   3 ;    H8S-   C18-   C17-   H7S
  8950   8948   8951   8954      9     0.00   0.66944   3 ;    H8S-   C18-   C17-   C16
  8951   8954   8957   8958      9     0.00   0.66944   3 ;    C17-   C16-   C15-   H5R
  8951   8954   8957   8959      9     0.00   0.66944   3 ;    C17-   C16-   C15-   H5S
  8951   8954   8957   8960      9     0.00   0.41840   1 ;    C17-   C16-   C15-   C14
  8951   8954   8957   8960      9     0.00   0.41840   2 ;    C17-   C16-   C15-   C14
  8951   8954   8957   8960      9     0.00   0.41840   4 ;    C17-   C16-   C15-   C14
  8951   8954   8957   8960      9     0.00   0.41840   5 ;    C17-   C16-   C15-   C14
  8951   8954   8957   8960      9     0.00   1.25520   3 ;    C17-   C16-   C15-   C14
  8952   8951   8954   8955      9     0.00   0.62760   3 ;    H7R-   C17-   C16-   H6R
  8952   8951   8954   8956      9     0.00   0.62760   3 ;    H7R-   C17-   C16-   H6S
  8952   8951   8954   8957      9     0.00   0.66944   3 ;    H7R-   C17-   C16-   C15
  8953   8951   8954   8955      9     0.00   0.62760   3 ;    H7S-   C17-   C16-   H6R
  8953   8951   8954   8956      9     0.00   0.62760   3 ;    H7S-   C17-   C16-   H6S
  8953   8951   8954   8957      9     0.00   0.66944   3 ;    H7S-   C17-   C16-   C15
  8954   8957   8960   8961      9     0.00   0.66944   3 ;    C16-   C15-   C14-   H4R
  8954   8957   8960   8962      9     0.00   0.66944   3 ;    C16-   C15-   C14-   H4S
  8954   8957   8960   8963      9     0.00   0.41840   1 ;    C16-   C15-   C14-   C13
  8954   8957   8960   8963      9     0.00   0.41840   2 ;    C16-   C15-   C14-   C13
  8954   8957   8960   8963      9     0.00   0.41840   4 ;    C16-   C15-   C14-   C13
  8954   8957   8960   8963      9     0.00   0.41840   5 ;    C16-   C15-   C14-   C13
  8954   8957   8960   8963      9     0.00   1.25520   3 ;    C16-   C15-   C14-   C13
  8955   8954   8957   8958      9     0.00   0.62760   3 ;    H6R-   C16-   C15-   H5R
  8955   8954   8957   8959      9     0.00   0.62760   3 ;    H6R-   C16-   C15-   H5S
  8955   8954   8957   8960      9     0.00   0.66944   3 ;    H6R-   C16-   C15-   C14
  8956   8954   8957   8958      9     0.00   0.62760   3 ;    H6S-   C16-   C15-   H5R
  8956   8954   8957   8959      9     0.00   0.62760   3 ;    H6S-   C16-   C15-   H5S
  8956   8954   8957   8960      9     0.00   0.66944   3 ;    H6S-   C16-   C15-   C14
  8957   8960   8963   8964      9     0.00   0.66944   3 ;    C15-   C14-   C13-   H3R
  8957   8960   8963   8965      9     0.00   0.66944   3 ;    C15-   C14-   C13-   H3S
  8957   8960   8963   8966      9     0.00   0.41840   1 ;    C15-   C14-   C13-   C12
  8957   8960   8963   8966      9     0.00   0.41840   2 ;    C15-   C14-   C13-   C12
  8957   8960   8963   8966      9     0.00   0.41840   4 ;    C15-   C14-   C13-   C12
  8957   8960   8963   8966      9     0.00   0.41840   5 ;    C15-   C14-   C13-   C12
  8957   8960   8963   8966      9     0.00   1.25520   3 ;    C15-   C14-   C13-   C12
  8958   8957   8960   8961      9     0.00   0.62760   3 ;    H5R-   C15-   C14-   H4R
  8958   8957   8960   8962      9     0.00   0.62760   3 ;    H5R-   C15-   C14-   H4S
  8958   8957   8960   8963      9     0.00   0.66944   3 ;    H5R-   C15-   C14-   C13
  8959   8957   8960   8961      9     0.00   0.62760   3 ;    H5S-   C15-   C14-   H4R
  8959   8957   8960   8962      9     0.00   0.62760   3 ;    H5S-   C15-   C14-   H4S
  8959   8957   8960   8963      9     0.00   0.66944   3 ;    H5S-   C15-   C14-   C13
  8960   8963   8966   8967      9     0.00   0.66944   3 ;    C14-   C13-   C12-   H2R
  8960   8963   8966   8968      9     0.00   0.66944   3 ;    C14-   C13-   C12-   H2S
  8961   8960   8963   8964      9     0.00   0.62760   3 ;    H4R-   C14-   C13-   H3R
  8961   8960   8963   8965      9     0.00   0.62760   3 ;    H4R-   C14-   C13-   H3S
  8961   8960   8963   8966      9     0.00   0.66944   3 ;    H4R-   C14-   C13-   C12
  8962   8960   8963   8964      9     0.00   0.62760   3 ;    H4S-   C14-   C13-   H3R
  8962   8960   8963   8965      9     0.00   0.62760   3 ;    H4S-   C14-   C13-   H3S
  8962   8960   8963   8966      9     0.00   0.66944   3 ;    H4S-   C14-   C13-   C12
  8964   8963   8966   8967      9     0.00   0.62760   3 ;    H3R-   C13-   C12-   H2R
  8964   8963   8966   8968      9     0.00   0.62760   3 ;    H3R-   C13-   C12-   H2S
  8965   8963   8966   8967      9     0.00   0.62760   3 ;    H3S-   C13-   C12-   H2R
  8965   8963   8966   8968      9     0.00   0.62760   3 ;    H3S-   C13-   C12-   H2S
  8969   8970   8973   8974      9     0.00   0.62760   3 ;   H14T-  C114-  C113-  H13R
  8969   8970   8973   8975      9     0.00   0.62760   3 ;   H14T-  C114-  C113-  H13S
  8969   8970   8973   8976      9     0.00   0.66944   3 ;   H14T-  C114-  C113-  C112
  8970   8973   8976   8977      9     0.00   0.66944   3 ;   C114-  C113-  C112-  H12R
  8970   8973   8976   8978      9     0.00   0.66944   3 ;   C114-  C113-  C112-  H12S
  8970   8973   8976   8979      9     0.00   0.41840   1 ;   C114-  C113-  C112-  C111
  8970   8973   8976   8979      9     0.00   0.41840   2 ;   C114-  C113-  C112-  C111
  8970   8973   8976   8979      9     0.00   0.41840   4 ;   C114-  C113-  C112-  C111
  8970   8973   8976   8979      9     0.00   0.41840   5 ;   C114-  C113-  C112-  C111
  8970   8973   8976   8979      9     0.00   1.25520   3 ;   C114-  C113-  C112-  C111
  8971   8970   8973   8974      9     0.00   0.62760   3 ;   H14R-  C114-  C113-  H13R
  8971   8970   8973   8975      9     0.00   0.62760   3 ;   H14R-  C114-  C113-  H13S
  8971   8970   8973   8976      9     0.00   0.66944   3 ;   H14R-  C114-  C113-  C112
  8972   8970   8973   8974      9     0.00   0.62760   3 ;   H14S-  C114-  C113-  H13R
  8972   8970   8973   8975      9     0.00   0.62760   3 ;   H14S-  C114-  C113-  H13S
  8972   8970   8973   8976      9     0.00   0.66944   3 ;   H14S-  C114-  C113-  C112
  8973   8976   8979   8980      9     0.00   0.66944   3 ;   C113-  C112-  C111-  H11R
  8973   8976   8979   8981      9     0.00   0.66944   3 ;   C113-  C112-  C111-  H11S
  8973   8976   8979   8982      9     0.00   0.41840   1 ;   C113-  C112-  C111-  C110
  8973   8976   8979   8982      9     0.00   0.41840   2 ;   C113-  C112-  C111-  C110
  8973   8976   8979   8982      9     0.00   0.41840   4 ;   C113-  C112-  C111-  C110
  8973   8976   8979   8982      9     0.00   0.41840   5 ;   C113-  C112-  C111-  C110
  8973   8976   8979   8982      9     0.00   1.25520   3 ;   C113-  C112-  C111-  C110
  8974   8973   8976   8977      9     0.00   0.62760   3 ;   H13R-  C113-  C112-  H12R
  8974   8973   8976   8978      9     0.00   0.62760   3 ;   H13R-  C113-  C112-  H12S
  8974   8973   8976   8979      9     0.00   0.66944   3 ;   H13R-  C113-  C112-  C111
  8975   8973   8976   8977      9     0.00   0.62760   3 ;   H13S-  C113-  C112-  H12R
  8975   8973   8976   8978      9     0.00   0.62760   3 ;   H13S-  C113-  C112-  H12S
  8975   8973   8976   8979      9     0.00   0.66944   3 ;   H13S-  C113-  C112-  C111
  8976   8979   8982   8983      9     0.00   0.66944   3 ;   C112-  C111-  C110-  H10R
  8976   8979   8982   8984      9     0.00   0.66944   3 ;   C112-  C111-  C110-  H10S
  8976   8979   8982   8985      9     0.00   0.41840   1 ;   C112-  C111-  C110-   C19
  8976   8979   8982   8985      9     0.00   0.41840   2 ;   C112-  C111-  C110-   C19
  8976   8979   8982   8985      9     0.00   0.41840   4 ;   C112-  C111-  C110-   C19
  8976   8979   8982   8985      9     0.00   0.41840   5 ;   C112-  C111-  C110-   C19
  8976   8979   8982   8985      9     0.00   1.25520   3 ;   C112-  C111-  C110-   C19
  8977   8976   8979   8980      9     0.00   0.62760   3 ;   H12R-  C112-  C111-  H11R
  8977   8976   8979   8981      9     0.00   0.62760   3 ;   H12R-  C112-  C111-  H11S
  8977   8976   8979   8982      9     0.00   0.66944   3 ;   H12R-  C112-  C111-  C110
  8978   8976   8979   8980      9     0.00   0.62760   3 ;   H12S-  C112-  C111-  H11R
  8978   8976   8979   8981      9     0.00   0.62760   3 ;   H12S-  C112-  C111-  H11S
  8978   8976   8979   8982      9     0.00   0.66944   3 ;   H12S-  C112-  C111-  C110
  8979   8982   8985   8986      9     0.00   0.66944   3 ;   C111-  C110-   C19-   H9R
  8979   8982   8985   8987      9     0.00   0.66944   3 ;   C111-  C110-   C19-   H9S
  8979   8982   8985   8988      9     0.00   0.41840   1 ;   C111-  C110-   C19-   C18
  8979   8982   8985   8988      9     0.00   0.41840   2 ;   C111-  C110-   C19-   C18
  8979   8982   8985   8988      9     0.00   0.41840   4 ;   C111-  C110-   C19-   C18
  8979   8982   8985   8988      9     0.00   0.41840   5 ;   C111-  C110-   C19-   C18
  8979   8982   8985   8988      9     0.00   1.25520   3 ;   C111-  C110-   C19-   C18
  8980   8979   8982   8983      9     0.00   0.62760   3 ;   H11R-  C111-  C110-  H10R
  8980   8979   8982   8984      9     0.00   0.62760   3 ;   H11R-  C111-  C110-  H10S
  8980   8979   8982   8985      9     0.00   0.66944   3 ;   H11R-  C111-  C110-   C19
  8981   8979   8982   8983      9     0.00   0.62760   3 ;   H11S-  C111-  C110-  H10R
  8981   8979   8982   8984      9     0.00   0.62760   3 ;   H11S-  C111-  C110-  H10S
  8981   8979   8982   8985      9     0.00   0.66944   3 ;   H11S-  C111-  C110-   C19
  8982   8985   8988   8989      9     0.00   0.66944   3 ;   C110-   C19-   C18-   H8R
  8982   8985   8988   8990      9     0.00   0.66944   3 ;   C110-   C19-   C18-   H8S
  8982   8985   8988   8991      9     0.00   0.41840   1 ;   C110-   C19-   C18-   C17
  8982   8985   8988   8991      9     0.00   0.41840   2 ;   C110-   C19-   C18-   C17
  8982   8985   8988   8991      9     0.00   0.41840   4 ;   C110-   C19-   C18-   C17
  8982   8985   8988   8991      9     0.00   0.41840   5 ;   C110-   C19-   C18-   C17
  8982   8985   8988   8991      9     0.00   1.25520   3 ;   C110-   C19-   C18-   C17
  8983   8982   8985   8986      9     0.00   0.62760   3 ;   H10R-  C110-   C19-   H9R
  8983   8982   8985   8987      9     0.00   0.62760   3 ;   H10R-  C110-   C19-   H9S
  8983   8982   8985   8988      9     0.00   0.66944   3 ;   H10R-  C110-   C19-   C18
  8984   8982   8985   8986      9     0.00   0.62760   3 ;   H10S-  C110-   C19-   H9R
  8984   8982   8985   8987      9     0.00   0.62760   3 ;   H10S-  C110-   C19-   H9S
  8984   8982   8985   8988      9     0.00   0.66944   3 ;   H10S-  C110-   C19-   C18
  8985   8988   8991   8992      9     0.00   0.66944   3 ;    C19-   C18-   C17-   H7R
  8985   8988   8991   8993      9     0.00   0.66944   3 ;    C19-   C18-   C17-   H7S
  8985   8988   8991   8994      9     0.00   0.41840   1 ;    C19-   C18-   C17-   C16
  8985   8988   8991   8994      9     0.00   0.41840   2 ;    C19-   C18-   C17-   C16
  8985   8988   8991   8994      9     0.00   0.41840   4 ;    C19-   C18-   C17-   C16
  8985   8988   8991   8994      9     0.00   0.41840   5 ;    C19-   C18-   C17-   C16
  8985   8988   8991   8994      9     0.00   1.25520   3 ;    C19-   C18-   C17-   C16
  8986   8985   8988   8989      9     0.00   0.62760   3 ;    H9R-   C19-   C18-   H8R
  8986   8985   8988   8990      9     0.00   0.62760   3 ;    H9R-   C19-   C18-   H8S
  8986   8985   8988   8991      9     0.00   0.66944   3 ;    H9R-   C19-   C18-   C17
  8987   8985   8988   8989      9     0.00   0.62760   3 ;    H9S-   C19-   C18-   H8R
  8987   8985   8988   8990      9     0.00   0.62760   3 ;    H9S-   C19-   C18-   H8S
  8987   8985   8988   8991      9     0.00   0.66944   3 ;    H9S-   C19-   C18-   C17
  8988   8991   8994   8995      9     0.00   0.66944   3 ;    C18-   C17-   C16-   H6R
  8988   8991   8994   8996      9     0.00   0.66944   3 ;    C18-   C17-   C16-   H6S
  8988   8991   8994   8997      9     0.00   0.41840   1 ;    C18-   C17-   C16-   C15
  8988   8991   8994   8997      9     0.00   0.41840   2 ;    C18-   C17-   C16-   C15
  8988   8991   8994   8997      9     0.00   0.41840   4 ;    C18-   C17-   C16-   C15
  8988   8991   8994   8997      9     0.00   0.41840   5 ;    C18-   C17-   C16-   C15
  8988   8991   8994   8997      9     0.00   1.25520   3 ;    C18-   C17-   C16-   C15
  8989   8988   8991   8992      9     0.00   0.62760   3 ;    H8R-   C18-   C17-   H7R
  8989   8988   8991   8993      9     0.00   0.62760   3 ;    H8R-   C18-   C17-   H7S
  8989   8988   8991   8994      9     0.00   0.66944   3 ;    H8R-   C18-   C17-   C16
  8990   8988   8991   8992      9     0.00   0.62760   3 ;    H8S-   C18-   C17-   H7R
  8990   8988   8991   8993      9     0.00   0.62760   3 ;    H8S-   C18-   C17-   H7S
  8990   8988   8991   8994      9     0.00   0.66944   3 ;    H8S-   C18-   C17-   C16
  8991   8994   8997   8998      9     0.00   0.66944   3 ;    C17-   C16-   C15-   H5R
  8991   8994   8997   8999      9     0.00   0.66944   3 ;    C17-   C16-   C15-   H5S
  8991   8994   8997   9000      9     0.00   0.41840   1 ;    C17-   C16-   C15-   C14
  8991   8994   8997   9000      9     0.00   0.41840   2 ;    C17-   C16-   C15-   C14
  8991   8994   8997   9000      9     0.00   0.41840   4 ;    C17-   C16-   C15-   C14
  8991   8994   8997   9000      9     0.00   0.41840   5 ;    C17-   C16-   C15-   C14
  8991   8994   8997   9000      9     0.00   1.25520   3 ;    C17-   C16-   C15-   C14
  8992   8991   8994   8995      9     0.00   0.62760   3 ;    H7R-   C17-   C16-   H6R
  8992   8991   8994   8996      9     0.00   0.62760   3 ;    H7R-   C17-   C16-   H6S
  8992   8991   8994   8997      9     0.00   0.66944   3 ;    H7R-   C17-   C16-   C15
  8993   8991   8994   8995      9     0.00   0.62760   3 ;    H7S-   C17-   C16-   H6R
  8993   8991   8994   8996      9     0.00   0.62760   3 ;    H7S-   C17-   C16-   H6S
  8993   8991   8994   8997      9     0.00   0.66944   3 ;    H7S-   C17-   C16-   C15
  8994   8997   9000   9001      9     0.00   0.66944   3 ;    C16-   C15-   C14-   H4R
  8994   8997   9000   9002      9     0.00   0.66944   3 ;    C16-   C15-   C14-   H4S
  8994   8997   9000   9003      9     0.00   0.41840   1 ;    C16-   C15-   C14-   C13
  8994   8997   9000   9003      9     0.00   0.41840   2 ;    C16-   C15-   C14-   C13
  8994   8997   9000   9003      9     0.00   0.41840   4 ;    C16-   C15-   C14-   C13
  8994   8997   9000   9003      9     0.00   0.41840   5 ;    C16-   C15-   C14-   C13
  8994   8997   9000   9003      9     0.00   1.25520   3 ;    C16-   C15-   C14-   C13
  8995   8994   8997   8998      9     0.00   0.62760   3 ;    H6R-   C16-   C15-   H5R
  8995   8994   8997   8999      9     0.00   0.62760   3 ;    H6R-   C16-   C15-   H5S
  8995   8994   8997   9000      9     0.00   0.66944   3 ;    H6R-   C16-   C15-   C14
  8996   8994   8997   8998      9     0.00   0.62760   3 ;    H6S-   C16-   C15-   H5R
  8996   8994   8997   8999      9     0.00   0.62760   3 ;    H6S-   C16-   C15-   H5S
  8996   8994   8997   9000      9     0.00   0.66944   3 ;    H6S-   C16-   C15-   C14
  8997   9000   9003   9004      9     0.00   0.66944   3 ;    C15-   C14-   C13-   H3R
  8997   9000   9003   9005      9     0.00   0.66944   3 ;    C15-   C14-   C13-   H3S
  8997   9000   9003   9006      9     0.00   0.41840   1 ;    C15-   C14-   C13-   C12
  8997   9000   9003   9006      9     0.00   0.41840   2 ;    C15-   C14-   C13-   C12
  8997   9000   9003   9006      9     0.00   0.41840   4 ;    C15-   C14-   C13-   C12
  8997   9000   9003   9006      9     0.00   0.41840   5 ;    C15-   C14-   C13-   C12
  8997   9000   9003   9006      9     0.00   1.25520   3 ;    C15-   C14-   C13-   C12
  8998   8997   9000   9001      9     0.00   0.62760   3 ;    H5R-   C15-   C14-   H4R
  8998   8997   9000   9002      9     0.00   0.62760   3 ;    H5R-   C15-   C14-   H4S
  8998   8997   9000   9003      9     0.00   0.66944   3 ;    H5R-   C15-   C14-   C13
  8999   8997   9000   9001      9     0.00   0.62760   3 ;    H5S-   C15-   C14-   H4R
  8999   8997   9000   9002      9     0.00   0.62760   3 ;    H5S-   C15-   C14-   H4S
  8999   8997   9000   9003      9     0.00   0.66944   3 ;    H5S-   C15-   C14-   C13
  9000   9003   9006   9007      9     0.00   0.66944   3 ;    C14-   C13-   C12-   H2R
  9000   9003   9006   9008      9     0.00   0.66944   3 ;    C14-   C13-   C12-   H2S
  9000   9003   9006   9009      9     0.00   0.65270   3 ;    C14-   C13-   C12-   C11
  9001   9000   9003   9004      9     0.00   0.62760   3 ;    H4R-   C14-   C13-   H3R
  9001   9000   9003   9005      9     0.00   0.62760   3 ;    H4R-   C14-   C13-   H3S
  9001   9000   9003   9006      9     0.00   0.66944   3 ;    H4R-   C14-   C13-   C12
  9002   9000   9003   9004      9     0.00   0.62760   3 ;    H4S-   C14-   C13-   H3R
  9002   9000   9003   9005      9     0.00   0.62760   3 ;    H4S-   C14-   C13-   H3S
  9002   9000   9003   9006      9     0.00   0.66944   3 ;    H4S-   C14-   C13-   C12
  9003   9006   9009   9010      9   180.00   0.00000   2 ;    C13-   C12-   C11-   O12
  9003   9006   9009   9011      9   180.00   0.00000   2 ;    C13-   C12-   C11-   O11
  9004   9003   9006   9007      9     0.00   0.62760   3 ;    H3R-   C13-   C12-   H2R
  9004   9003   9006   9008      9     0.00   0.62760   3 ;    H3R-   C13-   C12-   H2S
  9004   9003   9006   9009      9     0.00   0.65270   3 ;    H3R-   C13-   C12-   C11
  9005   9003   9006   9007      9     0.00   0.62760   3 ;    H3S-   C13-   C12-   H2R
  9005   9003   9006   9008      9     0.00   0.62760   3 ;    H3S-   C13-   C12-   H2S
  9005   9003   9006   9009      9     0.00   0.65270   3 ;    H3S-   C13-   C12-   C11
  9006   9009   9011   9012      9   180.00  11.29680   2 ;    C12-   C11-   O11-    C1
  9007   9006   9009   9010      9     0.00   3.34720   1 ;    H2R-   C12-   C11-   O12
  9007   9006   9009   9010      9   180.00   0.33472   3 ;    H2R-   C12-   C11-   O12
  9007   9006   9009   9011      9   180.00   0.00000   2 ;    H2R-   C12-   C11-   O11
  9008   9006   9009   9010      9     0.00   3.34720   1 ;    H2S-   C12-   C11-   O12
  9008   9006   9009   9010      9   180.00   0.33472   3 ;    H2S-   C12-   C11-   O12
  9008   9006   9009   9011      9   180.00   0.00000   2 ;    H2S-   C12-   C11-   O11
  9009   9011   9012   9013      9     0.00   1.60247   3 ;    C11-   O11-    C1-    HR
  9009   9011   9012   9014      9     0.00   1.60247   3 ;    C11-   O11-    C1-    HS
  9009   9011   9012   9015      9     0.00  -0.41840   1 ;    C11-   O11-    C1-    C2
  9010   9009   9011   9012      9   180.00   5.85760   1 ;    O12-   C11-   O11-    C1
  9010   9009   9011   9012      9   180.00  11.29680   2 ;    O12-   C11-   O11-    C1
  9011   9012   9015   9016      9     0.00   0.00000   0 ;    O11-    C1-    C2-    HX
  9011   9012   9015   9016      9     0.00   1.04600   1 ;    O11-    C1-    C2-    HX
  9011   9012   9015   9017      9     0.00   0.00000   0 ;    O11-    C1-    C2-    C3
  9011   9012   9015   9017      9     0.00   0.00000   0 ;    O11-    C1-    C2-    C3
  9011   9012   9015   9017      9     0.00   0.00000   0 ;    O11-    C1-    C2-    C3
  9011   9012   9015   9017      9     0.00   0.00000   0 ;    O11-    C1-    C2-    C3
  9011   9012   9015   9017      9     0.00   0.00000   0 ;    O11-    C1-    C2-    C3
  9011   9012   9015   9044      9     0.00   1.25520   2 ;    O11-    C1-    C2-   O21
  9011   9012   9015   9044      9     0.00   4.18400   3 ;    O11-    C1-    C2-   O21
  9011   9012   9015   9044      9   180.00  -0.41840   1 ;    O11-    C1-    C2-   O21
  9012   9015   9017   9018      9     0.00   0.65270   3 ;     C1-    C2-    C3-    HA
  9012   9015   9017   9019      9     0.00   0.65270   3 ;     C1-    C2-    C3-    HB
  9012   9015   9017   9020      9   180.00   3.34720   1 ;     C1-    C2-    C3-   O31
  9012   9015   9044   9045      9     0.00  -0.41840   1 ;     C1-    C2-   O21-   C21
  9013   9012   9015   9016      9     0.00   0.65270   3 ;     HR-    C1-    C2-    HX
  9013   9012   9015   9017      9     0.00   0.65270   3 ;     HR-    C1-    C2-    C3
  9013   9012   9015   9044      9     0.00   0.00000   0 ;     HR-    C1-    C2-   O21
  9013   9012   9015   9044      9     0.00   1.04600   1 ;     HR-    C1-    C2-   O21
  9014   9012   9015   9016      9     0.00   0.65270   3 ;     HS-    C1-    C2-    HX
  9014   9012   9015   9017      9     0.00   0.65270   3 ;     HS-    C1-    C2-    C3
  9014   9012   9015   9044      9     0.00   0.00000   0 ;     HS-    C1-    C2-   O21
  9014   9012   9015   9044      9     0.00   1.04600   1 ;     HS-    C1-    C2-   O21
  9015   9017   9020   9021      9     0.00   0.00000   0 ;     C2-    C3-   O31-   P31
  9015   9017   9020   9021      9   180.00  -3.34720   2 ;     C2-    C3-   O31-   P31
  9015   9044   9045   9046      9   180.00   5.85760   1 ;     C2-   O21-   C21-   O22
  9015   9044   9045   9046      9   180.00  11.29680   2 ;     C2-   O21-   C21-   O22
  9015   9044   9045   9084      9   180.00  11.29680   2 ;     C2-   O21-   C21-   C12
  9016   9015   9017   9018      9     0.00   0.65270   3 ;     HX-    C2-    C3-    HA
  9016   9015   9017   9019      9     0.00   0.65270   3 ;     HX-    C2-    C3-    HB
  9016   9015   9017   9020      9     0.00   0.00000   0 ;     HX-    C2-    C3-   O31
  9016   9015   9017   9020      9     0.00   1.04600   1 ;     HX-    C2-    C3-   O31
  9016   9015   9044   9045      9     0.00   1.60247   3 ;     HX-    C2-   O21-   C21
  9017   9015   9044   9045      9     0.00  -0.41840   1 ;     C3-    C2-   O21-   C21
  9017   9020   9021   9022      9     0.00   2.51040   3 ;     C3-   O31-   P31-   O32
  9017   9020   9021   9022      9     0.00   9.62320   2 ;     C3-   O31-   P31-   O32
  9017   9020   9021   9042      9     0.00   0.00000   0 ;     C3-   O31-   P31-   O33
  9017   9020   9021   9042      9     0.00   0.00000   0 ;     C3-   O31-   P31-   O33
  9017   9020   9021   9042      9     0.00   0.00000   0 ;     C3-   O31-   P31-   O33
  9017   9020   9021   9042      9     0.00   0.00000   0 ;     C3-   O31-   P31-   O33
  9017   9020   9021   9042      9     0.00   0.83680   2 ;     C3-   O31-   P31-   O33
  9017   9020   9021   9043      9     0.00   0.00000   0 ;     C3-   O31-   P31-   O34
  9017   9020   9021   9043      9     0.00   0.00000   0 ;     C3-   O31-   P31-   O34
  9017   9020   9021   9043      9     0.00   0.00000   0 ;     C3-   O31-   P31-   O34
  9017   9020   9021   9043      9     0.00   0.00000   0 ;     C3-   O31-   P31-   O34
  9017   9020   9021   9043      9     0.00   0.83680   2 ;     C3-   O31-   P31-   O34
  9018   9017   9015   9044      9     0.00   0.00000   0 ;     HA-    C3-    C2-   O21
  9018   9017   9015   9044      9     0.00   1.04600   1 ;     HA-    C3-    C2-   O21
  9018   9017   9020   9021      9     0.00   0.00000   0 ;     HA-    C3-   O31-   P31
  9018   9017   9020   9021      9     0.00   0.00000   0 ;     HA-    C3-   O31-   P31
  9018   9017   9020   9021      9     0.00   0.00000   0 ;     HA-    C3-   O31-   P31
  9018   9017   9020   9021      9     0.00   0.00000   0 ;     HA-    C3-   O31-   P31
  9018   9017   9020   9021      9     0.00   1.60247   3 ;     HA-    C3-   O31-   P31
  9019   9017   9015   9044      9     0.00   0.00000   0 ;     HB-    C3-    C2-   O21
  9019   9017   9015   9044      9     0.00   1.04600   1 ;     HB-    C3-    C2-   O21
  9019   9017   9020   9021      9     0.00   0.00000   0 ;     HB-    C3-   O31-   P31
  9019   9017   9020   9021      9     0.00   0.00000   0 ;     HB-    C3-   O31-   P31
  9019   9017   9020   9021      9     0.00   0.00000   0 ;     HB-    C3-   O31-   P31
  9019   9017   9020   9021      9     0.00   0.00000   0 ;     HB-    C3-   O31-   P31
  9019   9017   9020   9021      9     0.00   1.60247   3 ;     HB-    C3-   O31-   P31
  9020   9017   9015   9044      9     0.00   0.00000   0 ;    O31-    C3-    C2-   O21
  9020   9017   9015   9044      9     0.00   0.00000   0 ;    O31-    C3-    C2-   O21
  9020   9017   9015   9044      9     0.00   0.00000   0 ;    O31-    C3-    C2-   O21
  9020   9017   9015   9044      9     0.00   0.00000   0 ;    O31-    C3-    C2-   O21
  9020   9017   9015   9044      9     0.00   0.00000   0 ;    O31-    C3-    C2-   O21
  9020   9021   9022   9023      9     0.00   2.51040   3 ;    O31-   P31-   O32-   C31
  9020   9021   9022   9023      9     0.00   9.62320   2 ;    O31-   P31-   O32-   C31
  9021   9022   9023   9024      9     0.00   0.00000   0 ;    P31-   O32-   C31-   H1A
  9021   9022   9023   9024      9     0.00   0.00000   0 ;    P31-   O32-   C31-   H1A
  9021   9022   9023   9024      9     0.00   0.00000   0 ;    P31-   O32-   C31-   H1A
  9021   9022   9023   9024      9     0.00   0.00000   0 ;    P31-   O32-   C31-   H1A
  9021   9022   9023   9024      9     0.00   1.60247   3 ;    P31-   O32-   C31-   H1A
  9021   9022   9023   9025      9     0.00   0.00000   0 ;    P31-   O32-   C31-   H1B
  9021   9022   9023   9025      9     0.00   0.00000   0 ;    P31-   O32-   C31-   H1B
  9021   9022   9023   9025      9     0.00   0.00000   0 ;    P31-   O32-   C31-   H1B
  9021   9022   9023   9025      9     0.00   0.00000   0 ;    P31-   O32-   C31-   H1B
  9021   9022   9023   9025      9     0.00   1.60247   3 ;    P31-   O32-   C31-   H1B
  9021   9022   9023   9026      9     0.00   0.00000   0 ;    P31-   O32-   C31-   C32
  9021   9022   9023   9026      9   180.00  -3.34720   2 ;    P31-   O32-   C31-   C32
  9022   9023   9026   9027      9     0.00   0.65270   3 ;    O32-   C31-   C32-   H2A
  9022   9023   9026   9028      9     0.00   0.65270   3 ;    O32-   C31-   C32-   H2B
  9022   9023   9026   9029      9     0.00   4.18400   3 ;    O32-   C31-   C32-   N31
  9023   9022   9021   9042      9     0.00   0.00000   0 ;    C31-   O32-   P31-   O33
  9023   9022   9021   9042      9     0.00   0.00000   0 ;    C31-   O32-   P31-   O33
  9023   9022   9021   9042      9     0.00   0.00000   0 ;    C31-   O32-   P31-   O33
  9023   9022   9021   9042      9     0.00   0.00000   0 ;    C31-   O32-   P31-   O33
  9023   9022   9021   9042      9     0.00   0.83680   2 ;    C31-   O32-   P31-   O33
  9023   9022   9021   9043      9     0.00   0.00000   0 ;    C31-   O32-   P31-   O34
  9023   9022   9021   9043      9     0.00   0.00000   0 ;    C31-   O32-   P31-   O34
  9023   9022   9021   9043      9     0.00   0.00000   0 ;    C31-   O32-   P31-   O34
  9023   9022   9021   9043      9     0.00   0.00000   0 ;    C31-   O32-   P31-   O34
  9023   9022   9021   9043      9     0.00   0.83680   2 ;    C31-   O32-   P31-   O34
  9023   9026   9029   9030      9     0.00   0.65270   3 ;    C31-   C32-   N31-   C33
  9023   9026   9029   9034      9     0.00   0.65270   3 ;    C31-   C32-   N31-   C34
  9023   9026   9029   9038      9     0.00   0.65270   3 ;    C31-   C32-   N31-   C35
  9024   9023   9026   9027      9     0.00   0.65270   3 ;    H1A-   C31-   C32-   H2A
  9024   9023   9026   9028      9     0.00   0.65270   3 ;    H1A-   C31-   C32-   H2B
  9024   9023   9026   9029      9     0.00   0.65270   3 ;    H1A-   C31-   C32-   N31
  9025   9023   9026   9027      9     0.00   0.65270   3 ;    H1B-   C31-   C32-   H2A
  9025   9023   9026   9028      9     0.00   0.65270   3 ;    H1B-   C31-   C32-   H2B
  9025   9023   9026   9029      9     0.00   0.65270   3 ;    H1B-   C31-   C32-   N31
  9026   9029   9030   9031      9     0.00   0.65270   3 ;    C32-   N31-   C33-   H3A
  9026   9029   9030   9032      9     0.00   0.65270   3 ;    C32-   N31-   C33-   H3B
  9026   9029   9030   9033      9     0.00   0.65270   3 ;    C32-   N31-   C33-   H3C
  9026   9029   9034   9035      9     0.00   0.65270   3 ;    C32-   N31-   C34-   H4A
  9026   9029   9034   9036      9     0.00   0.65270   3 ;    C32-   N31-   C34-   H4B
  9026   9029   9034   9037      9     0.00   0.65270   3 ;    C32-   N31-   C34-   H4C
  9026   9029   9038   9039      9     0.00   0.65270   3 ;    C32-   N31-   C35-   H5A
  9026   9029   9038   9040      9     0.00   0.65270   3 ;    C32-   N31-   C35-   H5B
  9026   9029   9038   9041      9     0.00   0.65270   3 ;    C32-   N31-   C35-   H5C
  9027   9026   9029   9030      9     0.00   0.65270   3 ;    H2A-   C32-   N31-   C33
  9027   9026   9029   9034      9     0.00   0.65270   3 ;    H2A-   C32-   N31-   C34
  9027   9026   9029   9038      9     0.00   0.65270   3 ;    H2A-   C32-   N31-   C35
  9028   9026   9029   9030      9     0.00   0.65270   3 ;    H2B-   C32-   N31-   C33
  9028   9026   9029   9034      9     0.00   0.65270   3 ;    H2B-   C32-   N31-   C34
  9028   9026   9029   9038      9     0.00   0.65270   3 ;    H2B-   C32-   N31-   C35
  9030   9029   9034   9035      9     0.00   0.65270   3 ;    C33-   N31-   C34-   H4A
  9030   9029   9034   9036      9     0.00   0.65270   3 ;    C33-   N31-   C34-   H4B
  9030   9029   9034   9037      9     0.00   0.65270   3 ;    C33-   N31-   C34-   H4C
  9030   9029   9038   9039      9     0.00   0.65270   3 ;    C33-   N31-   C35-   H5A
  9030   9029   9038   9040      9     0.00   0.65270   3 ;    C33-   N31-   C35-   H5B
  9030   9029   9038   9041      9     0.00   0.65270   3 ;    C33-   N31-   C35-   H5C
  9031   9030   9029   9034      9     0.00   0.65270   3 ;    H3A-   C33-   N31-   C34
  9031   9030   9029   9038      9     0.00   0.65270   3 ;    H3A-   C33-   N31-   C35
  9032   9030   9029   9034      9     0.00   0.65270   3 ;    H3B-   C33-   N31-   C34
  9032   9030   9029   9038      9     0.00   0.65270   3 ;    H3B-   C33-   N31-   C35
  9033   9030   9029   9034      9     0.00   0.65270   3 ;    H3C-   C33-   N31-   C34
  9033   9030   9029   9038      9     0.00   0.65270   3 ;    H3C-   C33-   N31-   C35
  9034   9029   9038   9039      9     0.00   0.65270   3 ;    C34-   N31-   C35-   H5A
  9034   9029   9038   9040      9     0.00   0.65270   3 ;    C34-   N31-   C35-   H5B
  9034   9029   9038   9041      9     0.00   0.65270   3 ;    C34-   N31-   C35-   H5C
  9035   9034   9029   9038      9     0.00   0.65270   3 ;    H4A-   C34-   N31-   C35
  9036   9034   9029   9038      9     0.00   0.65270   3 ;    H4B-   C34-   N31-   C35
  9037   9034   9029   9038      9     0.00   0.65270   3 ;    H4C-   C34-   N31-   C35
  9044   9045   9084   9081      9   180.00   0.00000   2 ;    O21-   C21-   C12-   C13
  9044   9045   9084   9085      9   180.00   0.00000   2 ;    O21-   C21-   C12-   H2R
  9044   9045   9084   9086      9   180.00   0.00000   2 ;    O21-   C21-   C12-   H2S
  9045   9084   9081   9078      9     0.00   0.65270   3 ;    C21-   C12-   C13-   C14
  9045   9084   9081   9082      9     0.00   0.65270   3 ;    C21-   C12-   C13-   H3R
  9045   9084   9081   9083      9     0.00   0.65270   3 ;    C21-   C12-   C13-   H3S
  9046   9045   9084   9081      9   180.00   0.00000   2 ;    O22-   C21-   C12-   C13
  9046   9045   9084   9085      9     0.00   3.34720   1 ;    O22-   C21-   C12-   H2R
  9046   9045   9084   9085      9   180.00   0.33472   3 ;    O22-   C21-   C12-   H2R
  9046   9045   9084   9086      9     0.00   3.34720   1 ;    O22-   C21-   C12-   H2S
  9046   9045   9084   9086      9   180.00   0.33472   3 ;    O22-   C21-   C12-   H2S
  9047   9048   9051   9052      9     0.00   0.62760   3 ;   H14T-  C114-  C113-  H13R
  9047   9048   9051   9053      9     0.00   0.62760   3 ;   H14T-  C114-  C113-  H13S
  9047   9048   9051   9054      9     0.00   0.66944   3 ;   H14T-  C114-  C113-  C112
  9048   9051   9054   9055      9     0.00   0.66944   3 ;   C114-  C113-  C112-  H12R
  9048   9051   9054   9056      9     0.00   0.66944   3 ;   C114-  C113-  C112-  H12S
  9048   9051   9054   9057      9     0.00   0.41840   1 ;   C114-  C113-  C112-  C111
  9048   9051   9054   9057      9     0.00   0.41840   2 ;   C114-  C113-  C112-  C111
  9048   9051   9054   9057      9     0.00   0.41840   4 ;   C114-  C113-  C112-  C111
  9048   9051   9054   9057      9     0.00   0.41840   5 ;   C114-  C113-  C112-  C111
  9048   9051   9054   9057      9     0.00   1.25520   3 ;   C114-  C113-  C112-  C111
  9049   9048   9051   9052      9     0.00   0.62760   3 ;   H14R-  C114-  C113-  H13R
  9049   9048   9051   9053      9     0.00   0.62760   3 ;   H14R-  C114-  C113-  H13S
  9049   9048   9051   9054      9     0.00   0.66944   3 ;   H14R-  C114-  C113-  C112
  9050   9048   9051   9052      9     0.00   0.62760   3 ;   H14S-  C114-  C113-  H13R
  9050   9048   9051   9053      9     0.00   0.62760   3 ;   H14S-  C114-  C113-  H13S
  9050   9048   9051   9054      9     0.00   0.66944   3 ;   H14S-  C114-  C113-  C112
  9051   9054   9057   9058      9     0.00   0.66944   3 ;   C113-  C112-  C111-  H11R
  9051   9054   9057   9059      9     0.00   0.66944   3 ;   C113-  C112-  C111-  H11S
  9051   9054   9057   9060      9     0.00   0.41840   1 ;   C113-  C112-  C111-  C110
  9051   9054   9057   9060      9     0.00   0.41840   2 ;   C113-  C112-  C111-  C110
  9051   9054   9057   9060      9     0.00   0.41840   4 ;   C113-  C112-  C111-  C110
  9051   9054   9057   9060      9     0.00   0.41840   5 ;   C113-  C112-  C111-  C110
  9051   9054   9057   9060      9     0.00   1.25520   3 ;   C113-  C112-  C111-  C110
  9052   9051   9054   9055      9     0.00   0.62760   3 ;   H13R-  C113-  C112-  H12R
  9052   9051   9054   9056      9     0.00   0.62760   3 ;   H13R-  C113-  C112-  H12S
  9052   9051   9054   9057      9     0.00   0.66944   3 ;   H13R-  C113-  C112-  C111
  9053   9051   9054   9055      9     0.00   0.62760   3 ;   H13S-  C113-  C112-  H12R
  9053   9051   9054   9056      9     0.00   0.62760   3 ;   H13S-  C113-  C112-  H12S
  9053   9051   9054   9057      9     0.00   0.66944   3 ;   H13S-  C113-  C112-  C111
  9054   9057   9060   9061      9     0.00   0.66944   3 ;   C112-  C111-  C110-  H10R
  9054   9057   9060   9062      9     0.00   0.66944   3 ;   C112-  C111-  C110-  H10S
  9054   9057   9060   9063      9     0.00   0.41840   1 ;   C112-  C111-  C110-   C19
  9054   9057   9060   9063      9     0.00   0.41840   2 ;   C112-  C111-  C110-   C19
  9054   9057   9060   9063      9     0.00   0.41840   4 ;   C112-  C111-  C110-   C19
  9054   9057   9060   9063      9     0.00   0.41840   5 ;   C112-  C111-  C110-   C19
  9054   9057   9060   9063      9     0.00   1.25520   3 ;   C112-  C111-  C110-   C19
  9055   9054   9057   9058      9     0.00   0.62760   3 ;   H12R-  C112-  C111-  H11R
  9055   9054   9057   9059      9     0.00   0.62760   3 ;   H12R-  C112-  C111-  H11S
  9055   9054   9057   9060      9     0.00   0.66944   3 ;   H12R-  C112-  C111-  C110
  9056   9054   9057   9058      9     0.00   0.62760   3 ;   H12S-  C112-  C111-  H11R
  9056   9054   9057   9059      9     0.00   0.62760   3 ;   H12S-  C112-  C111-  H11S
  9056   9054   9057   9060      9     0.00   0.66944   3 ;   H12S-  C112-  C111-  C110
  9057   9060   9063   9064      9     0.00   0.66944   3 ;   C111-  C110-   C19-   H9R
  9057   9060   9063   9065      9     0.00   0.66944   3 ;   C111-  C110-   C19-   H9S
  9057   9060   9063   9066      9     0.00   0.41840   1 ;   C111-  C110-   C19-   C18
  9057   9060   9063   9066      9     0.00   0.41840   2 ;   C111-  C110-   C19-   C18
  9057   9060   9063   9066      9     0.00   0.41840   4 ;   C111-  C110-   C19-   C18
  9057   9060   9063   9066      9     0.00   0.41840   5 ;   C111-  C110-   C19-   C18
  9057   9060   9063   9066      9     0.00   1.25520   3 ;   C111-  C110-   C19-   C18
  9058   9057   9060   9061      9     0.00   0.62760   3 ;   H11R-  C111-  C110-  H10R
  9058   9057   9060   9062      9     0.00   0.62760   3 ;   H11R-  C111-  C110-  H10S
  9058   9057   9060   9063      9     0.00   0.66944   3 ;   H11R-  C111-  C110-   C19
  9059   9057   9060   9061      9     0.00   0.62760   3 ;   H11S-  C111-  C110-  H10R
  9059   9057   9060   9062      9     0.00   0.62760   3 ;   H11S-  C111-  C110-  H10S
  9059   9057   9060   9063      9     0.00   0.66944   3 ;   H11S-  C111-  C110-   C19
  9060   9063   9066   9067      9     0.00   0.66944   3 ;   C110-   C19-   C18-   H8R
  9060   9063   9066   9068      9     0.00   0.66944   3 ;   C110-   C19-   C18-   H8S
  9060   9063   9066   9069      9     0.00   0.41840   1 ;   C110-   C19-   C18-   C17
  9060   9063   9066   9069      9     0.00   0.41840   2 ;   C110-   C19-   C18-   C17
  9060   9063   9066   9069      9     0.00   0.41840   4 ;   C110-   C19-   C18-   C17
  9060   9063   9066   9069      9     0.00   0.41840   5 ;   C110-   C19-   C18-   C17
  9060   9063   9066   9069      9     0.00   1.25520   3 ;   C110-   C19-   C18-   C17
  9061   9060   9063   9064      9     0.00   0.62760   3 ;   H10R-  C110-   C19-   H9R
  9061   9060   9063   9065      9     0.00   0.62760   3 ;   H10R-  C110-   C19-   H9S
  9061   9060   9063   9066      9     0.00   0.66944   3 ;   H10R-  C110-   C19-   C18
  9062   9060   9063   9064      9     0.00   0.62760   3 ;   H10S-  C110-   C19-   H9R
  9062   9060   9063   9065      9     0.00   0.62760   3 ;   H10S-  C110-   C19-   H9S
  9062   9060   9063   9066      9     0.00   0.66944   3 ;   H10S-  C110-   C19-   C18
  9063   9066   9069   9070      9     0.00   0.66944   3 ;    C19-   C18-   C17-   H7R
  9063   9066   9069   9071      9     0.00   0.66944   3 ;    C19-   C18-   C17-   H7S
  9063   9066   9069   9072      9     0.00   0.41840   1 ;    C19-   C18-   C17-   C16
  9063   9066   9069   9072      9     0.00   0.41840   2 ;    C19-   C18-   C17-   C16
  9063   9066   9069   9072      9     0.00   0.41840   4 ;    C19-   C18-   C17-   C16
  9063   9066   9069   9072      9     0.00   0.41840   5 ;    C19-   C18-   C17-   C16
  9063   9066   9069   9072      9     0.00   1.25520   3 ;    C19-   C18-   C17-   C16
  9064   9063   9066   9067      9     0.00   0.62760   3 ;    H9R-   C19-   C18-   H8R
  9064   9063   9066   9068      9     0.00   0.62760   3 ;    H9R-   C19-   C18-   H8S
  9064   9063   9066   9069      9     0.00   0.66944   3 ;    H9R-   C19-   C18-   C17
  9065   9063   9066   9067      9     0.00   0.62760   3 ;    H9S-   C19-   C18-   H8R
  9065   9063   9066   9068      9     0.00   0.62760   3 ;    H9S-   C19-   C18-   H8S
  9065   9063   9066   9069      9     0.00   0.66944   3 ;    H9S-   C19-   C18-   C17
  9066   9069   9072   9073      9     0.00   0.66944   3 ;    C18-   C17-   C16-   H6R
  9066   9069   9072   9074      9     0.00   0.66944   3 ;    C18-   C17-   C16-   H6S
  9066   9069   9072   9075      9     0.00   0.41840   1 ;    C18-   C17-   C16-   C15
  9066   9069   9072   9075      9     0.00   0.41840   2 ;    C18-   C17-   C16-   C15
  9066   9069   9072   9075      9     0.00   0.41840   4 ;    C18-   C17-   C16-   C15
  9066   9069   9072   9075      9     0.00   0.41840   5 ;    C18-   C17-   C16-   C15
  9066   9069   9072   9075      9     0.00   1.25520   3 ;    C18-   C17-   C16-   C15
  9067   9066   9069   9070      9     0.00   0.62760   3 ;    H8R-   C18-   C17-   H7R
  9067   9066   9069   9071      9     0.00   0.62760   3 ;    H8R-   C18-   C17-   H7S
  9067   9066   9069   9072      9     0.00   0.66944   3 ;    H8R-   C18-   C17-   C16
  9068   9066   9069   9070      9     0.00   0.62760   3 ;    H8S-   C18-   C17-   H7R
  9068   9066   9069   9071      9     0.00   0.62760   3 ;    H8S-   C18-   C17-   H7S
  9068   9066   9069   9072      9     0.00   0.66944   3 ;    H8S-   C18-   C17-   C16
  9069   9072   9075   9076      9     0.00   0.66944   3 ;    C17-   C16-   C15-   H5R
  9069   9072   9075   9077      9     0.00   0.66944   3 ;    C17-   C16-   C15-   H5S
  9069   9072   9075   9078      9     0.00   0.41840   1 ;    C17-   C16-   C15-   C14
  9069   9072   9075   9078      9     0.00   0.41840   2 ;    C17-   C16-   C15-   C14
  9069   9072   9075   9078      9     0.00   0.41840   4 ;    C17-   C16-   C15-   C14
  9069   9072   9075   9078      9     0.00   0.41840   5 ;    C17-   C16-   C15-   C14
  9069   9072   9075   9078      9     0.00   1.25520   3 ;    C17-   C16-   C15-   C14
  9070   9069   9072   9073      9     0.00   0.62760   3 ;    H7R-   C17-   C16-   H6R
  9070   9069   9072   9074      9     0.00   0.62760   3 ;    H7R-   C17-   C16-   H6S
  9070   9069   9072   9075      9     0.00   0.66944   3 ;    H7R-   C17-   C16-   C15
  9071   9069   9072   9073      9     0.00   0.62760   3 ;    H7S-   C17-   C16-   H6R
  9071   9069   9072   9074      9     0.00   0.62760   3 ;    H7S-   C17-   C16-   H6S
  9071   9069   9072   9075      9     0.00   0.66944   3 ;    H7S-   C17-   C16-   C15
  9072   9075   9078   9079      9     0.00   0.66944   3 ;    C16-   C15-   C14-   H4R
  9072   9075   9078   9080      9     0.00   0.66944   3 ;    C16-   C15-   C14-   H4S
  9072   9075   9078   9081      9     0.00   0.41840   1 ;    C16-   C15-   C14-   C13
  9072   9075   9078   9081      9     0.00   0.41840   2 ;    C16-   C15-   C14-   C13
  9072   9075   9078   9081      9     0.00   0.41840   4 ;    C16-   C15-   C14-   C13
  9072   9075   9078   9081      9     0.00   0.41840   5 ;    C16-   C15-   C14-   C13
  9072   9075   9078   9081      9     0.00   1.25520   3 ;    C16-   C15-   C14-   C13
  9073   9072   9075   9076      9     0.00   0.62760   3 ;    H6R-   C16-   C15-   H5R
  9073   9072   9075   9077      9     0.00   0.62760   3 ;    H6R-   C16-   C15-   H5S
  9073   9072   9075   9078      9     0.00   0.66944   3 ;    H6R-   C16-   C15-   C14
  9074   9072   9075   9076      9     0.00   0.62760   3 ;    H6S-   C16-   C15-   H5R
  9074   9072   9075   9077      9     0.00   0.62760   3 ;    H6S-   C16-   C15-   H5S
  9074   9072   9075   9078      9     0.00   0.66944   3 ;    H6S-   C16-   C15-   C14
  9075   9078   9081   9082      9     0.00   0.66944   3 ;    C15-   C14-   C13-   H3R
  9075   9078   9081   9083      9     0.00   0.66944   3 ;    C15-   C14-   C13-   H3S
  9075   9078   9081   9084      9     0.00   0.41840   1 ;    C15-   C14-   C13-   C12
  9075   9078   9081   9084      9     0.00   0.41840   2 ;    C15-   C14-   C13-   C12
  9075   9078   9081   9084      9     0.00   0.41840   4 ;    C15-   C14-   C13-   C12
  9075   9078   9081   9084      9     0.00   0.41840   5 ;    C15-   C14-   C13-   C12
  9075   9078   9081   9084      9     0.00   1.25520   3 ;    C15-   C14-   C13-   C12
  9076   9075   9078   9079      9     0.00   0.62760   3 ;    H5R-   C15-   C14-   H4R
  9076   9075   9078   9080      9     0.00   0.62760   3 ;    H5R-   C15-   C14-   H4S
  9076   9075   9078   9081      9     0.00   0.66944   3 ;    H5R-   C15-   C14-   C13
  9077   9075   9078   9079      9     0.00   0.62760   3 ;    H5S-   C15-   C14-   H4R
  9077   9075   9078   9080      9     0.00   0.62760   3 ;    H5S-   C15-   C14-   H4S
  9077   9075   9078   9081      9     0.00   0.66944   3 ;    H5S-   C15-   C14-   C13
  9078   9081   9084   9085      9     0.00   0.66944   3 ;    C14-   C13-   C12-   H2R
  9078   9081   9084   9086      9     0.00   0.66944   3 ;    C14-   C13-   C12-   H2S
  9079   9078   9081   9082      9     0.00   0.62760   3 ;    H4R-   C14-   C13-   H3R
  9079   9078   9081   9083      9     0.00   0.62760   3 ;    H4R-   C14-   C13-   H3S
  9079   9078   9081   9084      9     0.00   0.66944   3 ;    H4R-   C14-   C13-   C12
  9080   9078   9081   9082      9     0.00   0.62760   3 ;    H4S-   C14-   C13-   H3R
  9080   9078   9081   9083      9     0.00   0.62760   3 ;    H4S-   C14-   C13-   H3S
  9080   9078   9081   9084      9     0.00   0.66944   3 ;    H4S-   C14-   C13-   C12
  9082   9081   9084   9085      9     0.00   0.62760   3 ;    H3R-   C13-   C12-   H2R
  9082   9081   9084   9086      9     0.00   0.62760   3 ;    H3R-   C13-   C12-   H2S
  9083   9081   9084   9085      9     0.00   0.62760   3 ;    H3S-   C13-   C12-   H2R
  9083   9081   9084   9086      9     0.00   0.62760   3 ;    H3S-   C13-   C12-   H2S
  9087   9088   9091   9092      9     0.00   0.62760   3 ;   H14T-  C114-  C113-  H13R
  9087   9088   9091   9093      9     0.00   0.62760   3 ;   H14T-  C114-  C113-  H13S
  9087   9088   9091   9094      9     0.00   0.66944   3 ;   H14T-  C114-  C113-  C112
  9088   9091   9094   9095      9     0.00   0.66944   3 ;   C114-  C113-  C112-  H12R
  9088   9091   9094   9096      9     0.00   0.66944   3 ;   C114-  C113-  C112-  H12S
  9088   9091   9094   9097      9     0.00   0.41840   1 ;   C114-  C113-  C112-  C111
  9088   9091   9094   9097      9     0.00   0.41840   2 ;   C114-  C113-  C112-  C111
  9088   9091   9094   9097      9     0.00   0.41840   4 ;   C114-  C113-  C112-  C111
  9088   9091   9094   9097      9     0.00   0.41840   5 ;   C114-  C113-  C112-  C111
  9088   9091   9094   9097      9     0.00   1.25520   3 ;   C114-  C113-  C112-  C111
  9089   9088   9091   9092      9     0.00   0.62760   3 ;   H14R-  C114-  C113-  H13R
  9089   9088   9091   9093      9     0.00   0.62760   3 ;   H14R-  C114-  C113-  H13S
  9089   9088   9091   9094      9     0.00   0.66944   3 ;   H14R-  C114-  C113-  C112
  9090   9088   9091   9092      9     0.00   0.62760   3 ;   H14S-  C114-  C113-  H13R
  9090   9088   9091   9093      9     0.00   0.62760   3 ;   H14S-  C114-  C113-  H13S
  9090   9088   9091   9094      9     0.00   0.66944   3 ;   H14S-  C114-  C113-  C112
  9091   9094   9097   9098      9     0.00   0.66944   3 ;   C113-  C112-  C111-  H11R
  9091   9094   9097   9099      9     0.00   0.66944   3 ;   C113-  C112-  C111-  H11S
  9091   9094   9097   9100      9     0.00   0.41840   1 ;   C113-  C112-  C111-  C110
  9091   9094   9097   9100      9     0.00   0.41840   2 ;   C113-  C112-  C111-  C110
  9091   9094   9097   9100      9     0.00   0.41840   4 ;   C113-  C112-  C111-  C110
  9091   9094   9097   9100      9     0.00   0.41840   5 ;   C113-  C112-  C111-  C110
  9091   9094   9097   9100      9     0.00   1.25520   3 ;   C113-  C112-  C111-  C110
  9092   9091   9094   9095      9     0.00   0.62760   3 ;   H13R-  C113-  C112-  H12R
  9092   9091   9094   9096      9     0.00   0.62760   3 ;   H13R-  C113-  C112-  H12S
  9092   9091   9094   9097      9     0.00   0.66944   3 ;   H13R-  C113-  C112-  C111
  9093   9091   9094   9095      9     0.00   0.62760   3 ;   H13S-  C113-  C112-  H12R
  9093   9091   9094   9096      9     0.00   0.62760   3 ;   H13S-  C113-  C112-  H12S
  9093   9091   9094   9097      9     0.00   0.66944   3 ;   H13S-  C113-  C112-  C111
  9094   9097   9100   9101      9     0.00   0.66944   3 ;   C112-  C111-  C110-  H10R
  9094   9097   9100   9102      9     0.00   0.66944   3 ;   C112-  C111-  C110-  H10S
  9094   9097   9100   9103      9     0.00   0.41840   1 ;   C112-  C111-  C110-   C19
  9094   9097   9100   9103      9     0.00   0.41840   2 ;   C112-  C111-  C110-   C19
  9094   9097   9100   9103      9     0.00   0.41840   4 ;   C112-  C111-  C110-   C19
  9094   9097   9100   9103      9     0.00   0.41840   5 ;   C112-  C111-  C110-   C19
  9094   9097   9100   9103      9     0.00   1.25520   3 ;   C112-  C111-  C110-   C19
  9095   9094   9097   9098      9     0.00   0.62760   3 ;   H12R-  C112-  C111-  H11R
  9095   9094   9097   9099      9     0.00   0.62760   3 ;   H12R-  C112-  C111-  H11S
  9095   9094   9097   9100      9     0.00   0.66944   3 ;   H12R-  C112-  C111-  C110
  9096   9094   9097   9098      9     0.00   0.62760   3 ;   H12S-  C112-  C111-  H11R
  9096   9094   9097   9099      9     0.00   0.62760   3 ;   H12S-  C112-  C111-  H11S
  9096   9094   9097   9100      9     0.00   0.66944   3 ;   H12S-  C112-  C111-  C110
  9097   9100   9103   9104      9     0.00   0.66944   3 ;   C111-  C110-   C19-   H9R
  9097   9100   9103   9105      9     0.00   0.66944   3 ;   C111-  C110-   C19-   H9S
  9097   9100   9103   9106      9     0.00   0.41840   1 ;   C111-  C110-   C19-   C18
  9097   9100   9103   9106      9     0.00   0.41840   2 ;   C111-  C110-   C19-   C18
  9097   9100   9103   9106      9     0.00   0.41840   4 ;   C111-  C110-   C19-   C18
  9097   9100   9103   9106      9     0.00   0.41840   5 ;   C111-  C110-   C19-   C18
  9097   9100   9103   9106      9     0.00   1.25520   3 ;   C111-  C110-   C19-   C18
  9098   9097   9100   9101      9     0.00   0.62760   3 ;   H11R-  C111-  C110-  H10R
  9098   9097   9100   9102      9     0.00   0.62760   3 ;   H11R-  C111-  C110-  H10S
  9098   9097   9100   9103      9     0.00   0.66944   3 ;   H11R-  C111-  C110-   C19
  9099   9097   9100   9101      9     0.00   0.62760   3 ;   H11S-  C111-  C110-  H10R
  9099   9097   9100   9102      9     0.00   0.62760   3 ;   H11S-  C111-  C110-  H10S
  9099   9097   9100   9103      9     0.00   0.66944   3 ;   H11S-  C111-  C110-   C19
  9100   9103   9106   9107      9     0.00   0.66944   3 ;   C110-   C19-   C18-   H8R
  9100   9103   9106   9108      9     0.00   0.66944   3 ;   C110-   C19-   C18-   H8S
  9100   9103   9106   9109      9     0.00   0.41840   1 ;   C110-   C19-   C18-   C17
  9100   9103   9106   9109      9     0.00   0.41840   2 ;   C110-   C19-   C18-   C17
  9100   9103   9106   9109      9     0.00   0.41840   4 ;   C110-   C19-   C18-   C17
  9100   9103   9106   9109      9     0.00   0.41840   5 ;   C110-   C19-   C18-   C17
  9100   9103   9106   9109      9     0.00   1.25520   3 ;   C110-   C19-   C18-   C17
  9101   9100   9103   9104      9     0.00   0.62760   3 ;   H10R-  C110-   C19-   H9R
  9101   9100   9103   9105      9     0.00   0.62760   3 ;   H10R-  C110-   C19-   H9S
  9101   9100   9103   9106      9     0.00   0.66944   3 ;   H10R-  C110-   C19-   C18
  9102   9100   9103   9104      9     0.00   0.62760   3 ;   H10S-  C110-   C19-   H9R
  9102   9100   9103   9105      9     0.00   0.62760   3 ;   H10S-  C110-   C19-   H9S
  9102   9100   9103   9106      9     0.00   0.66944   3 ;   H10S-  C110-   C19-   C18
  9103   9106   9109   9110      9     0.00   0.66944   3 ;    C19-   C18-   C17-   H7R
  9103   9106   9109   9111      9     0.00   0.66944   3 ;    C19-   C18-   C17-   H7S
  9103   9106   9109   9112      9     0.00   0.41840   1 ;    C19-   C18-   C17-   C16
  9103   9106   9109   9112      9     0.00   0.41840   2 ;    C19-   C18-   C17-   C16
  9103   9106   9109   9112      9     0.00   0.41840   4 ;    C19-   C18-   C17-   C16
  9103   9106   9109   9112      9     0.00   0.41840   5 ;    C19-   C18-   C17-   C16
  9103   9106   9109   9112      9     0.00   1.25520   3 ;    C19-   C18-   C17-   C16
  9104   9103   9106   9107      9     0.00   0.62760   3 ;    H9R-   C19-   C18-   H8R
  9104   9103   9106   9108      9     0.00   0.62760   3 ;    H9R-   C19-   C18-   H8S
  9104   9103   9106   9109      9     0.00   0.66944   3 ;    H9R-   C19-   C18-   C17
  9105   9103   9106   9107      9     0.00   0.62760   3 ;    H9S-   C19-   C18-   H8R
  9105   9103   9106   9108      9     0.00   0.62760   3 ;    H9S-   C19-   C18-   H8S
  9105   9103   9106   9109      9     0.00   0.66944   3 ;    H9S-   C19-   C18-   C17
  9106   9109   9112   9113      9     0.00   0.66944   3 ;    C18-   C17-   C16-   H6R
  9106   9109   9112   9114      9     0.00   0.66944   3 ;    C18-   C17-   C16-   H6S
  9106   9109   9112   9115      9     0.00   0.41840   1 ;    C18-   C17-   C16-   C15
  9106   9109   9112   9115      9     0.00   0.41840   2 ;    C18-   C17-   C16-   C15
  9106   9109   9112   9115      9     0.00   0.41840   4 ;    C18-   C17-   C16-   C15
  9106   9109   9112   9115      9     0.00   0.41840   5 ;    C18-   C17-   C16-   C15
  9106   9109   9112   9115      9     0.00   1.25520   3 ;    C18-   C17-   C16-   C15
  9107   9106   9109   9110      9     0.00   0.62760   3 ;    H8R-   C18-   C17-   H7R
  9107   9106   9109   9111      9     0.00   0.62760   3 ;    H8R-   C18-   C17-   H7S
  9107   9106   9109   9112      9     0.00   0.66944   3 ;    H8R-   C18-   C17-   C16
  9108   9106   9109   9110      9     0.00   0.62760   3 ;    H8S-   C18-   C17-   H7R
  9108   9106   9109   9111      9     0.00   0.62760   3 ;    H8S-   C18-   C17-   H7S
  9108   9106   9109   9112      9     0.00   0.66944   3 ;    H8S-   C18-   C17-   C16
  9109   9112   9115   9116      9     0.00   0.66944   3 ;    C17-   C16-   C15-   H5R
  9109   9112   9115   9117      9     0.00   0.66944   3 ;    C17-   C16-   C15-   H5S
  9109   9112   9115   9118      9     0.00   0.41840   1 ;    C17-   C16-   C15-   C14
  9109   9112   9115   9118      9     0.00   0.41840   2 ;    C17-   C16-   C15-   C14
  9109   9112   9115   9118      9     0.00   0.41840   4 ;    C17-   C16-   C15-   C14
  9109   9112   9115   9118      9     0.00   0.41840   5 ;    C17-   C16-   C15-   C14
  9109   9112   9115   9118      9     0.00   1.25520   3 ;    C17-   C16-   C15-   C14
  9110   9109   9112   9113      9     0.00   0.62760   3 ;    H7R-   C17-   C16-   H6R
  9110   9109   9112   9114      9     0.00   0.62760   3 ;    H7R-   C17-   C16-   H6S
  9110   9109   9112   9115      9     0.00   0.66944   3 ;    H7R-   C17-   C16-   C15
  9111   9109   9112   9113      9     0.00   0.62760   3 ;    H7S-   C17-   C16-   H6R
  9111   9109   9112   9114      9     0.00   0.62760   3 ;    H7S-   C17-   C16-   H6S
  9111   9109   9112   9115      9     0.00   0.66944   3 ;    H7S-   C17-   C16-   C15
  9112   9115   9118   9119      9     0.00   0.66944   3 ;    C16-   C15-   C14-   H4R
  9112   9115   9118   9120      9     0.00   0.66944   3 ;    C16-   C15-   C14-   H4S
  9112   9115   9118   9121      9     0.00   0.41840   1 ;    C16-   C15-   C14-   C13
  9112   9115   9118   9121      9     0.00   0.41840   2 ;    C16-   C15-   C14-   C13
  9112   9115   9118   9121      9     0.00   0.41840   4 ;    C16-   C15-   C14-   C13
  9112   9115   9118   9121      9     0.00   0.41840   5 ;    C16-   C15-   C14-   C13
  9112   9115   9118   9121      9     0.00   1.25520   3 ;    C16-   C15-   C14-   C13
  9113   9112   9115   9116      9     0.00   0.62760   3 ;    H6R-   C16-   C15-   H5R
  9113   9112   9115   9117      9     0.00   0.62760   3 ;    H6R-   C16-   C15-   H5S
  9113   9112   9115   9118      9     0.00   0.66944   3 ;    H6R-   C16-   C15-   C14
  9114   9112   9115   9116      9     0.00   0.62760   3 ;    H6S-   C16-   C15-   H5R
  9114   9112   9115   9117      9     0.00   0.62760   3 ;    H6S-   C16-   C15-   H5S
  9114   9112   9115   9118      9     0.00   0.66944   3 ;    H6S-   C16-   C15-   C14
  9115   9118   9121   9122      9     0.00   0.66944   3 ;    C15-   C14-   C13-   H3R
  9115   9118   9121   9123      9     0.00   0.66944   3 ;    C15-   C14-   C13-   H3S
  9115   9118   9121   9124      9     0.00   0.41840   1 ;    C15-   C14-   C13-   C12
  9115   9118   9121   9124      9     0.00   0.41840   2 ;    C15-   C14-   C13-   C12
  9115   9118   9121   9124      9     0.00   0.41840   4 ;    C15-   C14-   C13-   C12
  9115   9118   9121   9124      9     0.00   0.41840   5 ;    C15-   C14-   C13-   C12
  9115   9118   9121   9124      9     0.00   1.25520   3 ;    C15-   C14-   C13-   C12
  9116   9115   9118   9119      9     0.00   0.62760   3 ;    H5R-   C15-   C14-   H4R
  9116   9115   9118   9120      9     0.00   0.62760   3 ;    H5R-   C15-   C14-   H4S
  9116   9115   9118   9121      9     0.00   0.66944   3 ;    H5R-   C15-   C14-   C13
  9117   9115   9118   9119      9     0.00   0.62760   3 ;    H5S-   C15-   C14-   H4R
  9117   9115   9118   9120      9     0.00   0.62760   3 ;    H5S-   C15-   C14-   H4S
  9117   9115   9118   9121      9     0.00   0.66944   3 ;    H5S-   C15-   C14-   C13
  9118   9121   9124   9125      9     0.00   0.66944   3 ;    C14-   C13-   C12-   H2R
  9118   9121   9124   9126      9     0.00   0.66944   3 ;    C14-   C13-   C12-   H2S
  9118   9121   9124   9127      9     0.00   0.65270   3 ;    C14-   C13-   C12-   C11
  9119   9118   9121   9122      9     0.00   0.62760   3 ;    H4R-   C14-   C13-   H3R
  9119   9118   9121   9123      9     0.00   0.62760   3 ;    H4R-   C14-   C13-   H3S
  9119   9118   9121   9124      9     0.00   0.66944   3 ;    H4R-   C14-   C13-   C12
  9120   9118   9121   9122      9     0.00   0.62760   3 ;    H4S-   C14-   C13-   H3R
  9120   9118   9121   9123      9     0.00   0.62760   3 ;    H4S-   C14-   C13-   H3S
  9120   9118   9121   9124      9     0.00   0.66944   3 ;    H4S-   C14-   C13-   C12
  9121   9124   9127   9128      9   180.00   0.00000   2 ;    C13-   C12-   C11-   O12
  9121   9124   9127   9129      9   180.00   0.00000   2 ;    C13-   C12-   C11-   O11
  9122   9121   9124   9125      9     0.00   0.62760   3 ;    H3R-   C13-   C12-   H2R
  9122   9121   9124   9126      9     0.00   0.62760   3 ;    H3R-   C13-   C12-   H2S
  9122   9121   9124   9127      9     0.00   0.65270   3 ;    H3R-   C13-   C12-   C11
  9123   9121   9124   9125      9     0.00   0.62760   3 ;    H3S-   C13-   C12-   H2R
  9123   9121   9124   9126      9     0.00   0.62760   3 ;    H3S-   C13-   C12-   H2S
  9123   9121   9124   9127      9     0.00   0.65270   3 ;    H3S-   C13-   C12-   C11
  9124   9127   9129   9130      9   180.00  11.29680   2 ;    C12-   C11-   O11-    C1
  9125   9124   9127   9128      9     0.00   3.34720   1 ;    H2R-   C12-   C11-   O12
  9125   9124   9127   9128      9   180.00   0.33472   3 ;    H2R-   C12-   C11-   O12
  9125   9124   9127   9129      9   180.00   0.00000   2 ;    H2R-   C12-   C11-   O11
  9126   9124   9127   9128      9     0.00   3.34720   1 ;    H2S-   C12-   C11-   O12
  9126   9124   9127   9128      9   180.00   0.33472   3 ;    H2S-   C12-   C11-   O12
  9126   9124   9127   9129      9   180.00   0.00000   2 ;    H2S-   C12-   C11-   O11
  9127   9129   9130   9131      9     0.00   1.60247   3 ;    C11-   O11-    C1-    HR
  9127   9129   9130   9132      9     0.00   1.60247   3 ;    C11-   O11-    C1-    HS
  9127   9129   9130   9133      9     0.00  -0.41840   1 ;    C11-   O11-    C1-    C2
  9128   9127   9129   9130      9   180.00   5.85760   1 ;    O12-   C11-   O11-    C1
  9128   9127   9129   9130      9   180.00  11.29680   2 ;    O12-   C11-   O11-    C1
  9129   9130   9133   9134      9     0.00   0.00000   0 ;    O11-    C1-    C2-    HX
  9129   9130   9133   9134      9     0.00   1.04600   1 ;    O11-    C1-    C2-    HX
  9129   9130   9133   9135      9     0.00   0.00000   0 ;    O11-    C1-    C2-    C3
  9129   9130   9133   9135      9     0.00   0.00000   0 ;    O11-    C1-    C2-    C3
  9129   9130   9133   9135      9     0.00   0.00000   0 ;    O11-    C1-    C2-    C3
  9129   9130   9133   9135      9     0.00   0.00000   0 ;    O11-    C1-    C2-    C3
  9129   9130   9133   9135      9     0.00   0.00000   0 ;    O11-    C1-    C2-    C3
  9129   9130   9133   9162      9     0.00   1.25520   2 ;    O11-    C1-    C2-   O21
  9129   9130   9133   9162      9     0.00   4.18400   3 ;    O11-    C1-    C2-   O21
  9129   9130   9133   9162      9   180.00  -0.41840   1 ;    O11-    C1-    C2-   O21
  9130   9133   9135   9136      9     0.00   0.65270   3 ;     C1-    C2-    C3-    HA
  9130   9133   9135   9137      9     0.00   0.65270   3 ;     C1-    C2-    C3-    HB
  9130   9133   9135   9138      9   180.00   3.34720   1 ;     C1-    C2-    C3-   O31
  9130   9133   9162   9163      9     0.00  -0.41840   1 ;     C1-    C2-   O21-   C21
  9131   9130   9133   9134      9     0.00   0.65270   3 ;     HR-    C1-    C2-    HX
  9131   9130   9133   9135      9     0.00   0.65270   3 ;     HR-    C1-    C2-    C3
  9131   9130   9133   9162      9     0.00   0.00000   0 ;     HR-    C1-    C2-   O21
  9131   9130   9133   9162      9     0.00   1.04600   1 ;     HR-    C1-    C2-   O21
  9132   9130   9133   9134      9     0.00   0.65270   3 ;     HS-    C1-    C2-    HX
  9132   9130   9133   9135      9     0.00   0.65270   3 ;     HS-    C1-    C2-    C3
  9132   9130   9133   9162      9     0.00   0.00000   0 ;     HS-    C1-    C2-   O21
  9132   9130   9133   9162      9     0.00   1.04600   1 ;     HS-    C1-    C2-   O21
  9133   9135   9138   9139      9     0.00   0.00000   0 ;     C2-    C3-   O31-   P31
  9133   9135   9138   9139      9   180.00  -3.34720   2 ;     C2-    C3-   O31-   P31
  9133   9162   9163   9164      9   180.00   5.85760   1 ;     C2-   O21-   C21-   O22
  9133   9162   9163   9164      9   180.00  11.29680   2 ;     C2-   O21-   C21-   O22
  9133   9162   9163   9202      9   180.00  11.29680   2 ;     C2-   O21-   C21-   C12
  9134   9133   9135   9136      9     0.00   0.65270   3 ;     HX-    C2-    C3-    HA
  9134   9133   9135   9137      9     0.00   0.65270   3 ;     HX-    C2-    C3-    HB
  9134   9133   9135   9138      9     0.00   0.00000   0 ;     HX-    C2-    C3-   O31
  9134   9133   9135   9138      9     0.00   1.04600   1 ;     HX-    C2-    C3-   O31
  9134   9133   9162   9163      9     0.00   1.60247   3 ;     HX-    C2-   O21-   C21
  9135   9133   9162   9163      9     0.00  -0.41840   1 ;     C3-    C2-   O21-   C21
  9135   9138   9139   9140      9     0.00   2.51040   3 ;     C3-   O31-   P31-   O32
  9135   9138   9139   9140      9     0.00   9.62320   2 ;     C3-   O31-   P31-   O32
  9135   9138   9139   9160      9     0.00   0.00000   0 ;     C3-   O31-   P31-   O33
  9135   9138   9139   9160      9     0.00   0.00000   0 ;     C3-   O31-   P31-   O33
  9135   9138   9139   9160      9     0.00   0.00000   0 ;     C3-   O31-   P31-   O33
  9135   9138   9139   9160      9     0.00   0.00000   0 ;     C3-   O31-   P31-   O33
  9135   9138   9139   9160      9     0.00   0.83680   2 ;     C3-   O31-   P31-   O33
  9135   9138   9139   9161      9     0.00   0.00000   0 ;     C3-   O31-   P31-   O34
  9135   9138   9139   9161      9     0.00   0.00000   0 ;     C3-   O31-   P31-   O34
  9135   9138   9139   9161      9     0.00   0.00000   0 ;     C3-   O31-   P31-   O34
  9135   9138   9139   9161      9     0.00   0.00000   0 ;     C3-   O31-   P31-   O34
  9135   9138   9139   9161      9     0.00   0.83680   2 ;     C3-   O31-   P31-   O34
  9136   9135   9133   9162      9     0.00   0.00000   0 ;     HA-    C3-    C2-   O21
  9136   9135   9133   9162      9     0.00   1.04600   1 ;     HA-    C3-    C2-   O21
  9136   9135   9138   9139      9     0.00   0.00000   0 ;     HA-    C3-   O31-   P31
  9136   9135   9138   9139      9     0.00   0.00000   0 ;     HA-    C3-   O31-   P31
  9136   9135   9138   9139      9     0.00   0.00000   0 ;     HA-    C3-   O31-   P31
  9136   9135   9138   9139      9     0.00   0.00000   0 ;     HA-    C3-   O31-   P31
  9136   9135   9138   9139      9     0.00   1.60247   3 ;     HA-    C3-   O31-   P31
  9137   9135   9133   9162      9     0.00   0.00000   0 ;     HB-    C3-    C2-   O21
  9137   9135   9133   9162      9     0.00   1.04600   1 ;     HB-    C3-    C2-   O21
  9137   9135   9138   9139      9     0.00   0.00000   0 ;     HB-    C3-   O31-   P31
  9137   9135   9138   9139      9     0.00   0.00000   0 ;     HB-    C3-   O31-   P31
  9137   9135   9138   9139      9     0.00   0.00000   0 ;     HB-    C3-   O31-   P31
  9137   9135   9138   9139      9     0.00   0.00000   0 ;     HB-    C3-   O31-   P31
  9137   9135   9138   9139      9     0.00   1.60247   3 ;     HB-    C3-   O31-   P31
  9138   9135   9133   9162      9     0.00   0.00000   0 ;    O31-    C3-    C2-   O21
  9138   9135   9133   9162      9     0.00   0.00000   0 ;    O31-    C3-    C2-   O21
  9138   9135   9133   9162      9     0.00   0.00000   0 ;    O31-    C3-    C2-   O21
  9138   9135   9133   9162      9     0.00   0.00000   0 ;    O31-    C3-    C2-   O21
  9138   9135   9133   9162      9     0.00   0.00000   0 ;    O31-    C3-    C2-   O21
  9138   9139   9140   9141      9     0.00   2.51040   3 ;    O31-   P31-   O32-   C31
  9138   9139   9140   9141      9     0.00   9.62320   2 ;    O31-   P31-   O32-   C31
  9139   9140   9141   9142      9     0.00   0.00000   0 ;    P31-   O32-   C31-   H1A
  9139   9140   9141   9142      9     0.00   0.00000   0 ;    P31-   O32-   C31-   H1A
  9139   9140   9141   9142      9     0.00   0.00000   0 ;    P31-   O32-   C31-   H1A
  9139   9140   9141   9142      9     0.00   0.00000   0 ;    P31-   O32-   C31-   H1A
  9139   9140   9141   9142      9     0.00   1.60247   3 ;    P31-   O32-   C31-   H1A
  9139   9140   9141   9143      9     0.00   0.00000   0 ;    P31-   O32-   C31-   H1B
  9139   9140   9141   9143      9     0.00   0.00000   0 ;    P31-   O32-   C31-   H1B
  9139   9140   9141   9143      9     0.00   0.00000   0 ;    P31-   O32-   C31-   H1B
  9139   9140   9141   9143      9     0.00   0.00000   0 ;    P31-   O32-   C31-   H1B
  9139   9140   9141   9143      9     0.00   1.60247   3 ;    P31-   O32-   C31-   H1B
  9139   9140   9141   9144      9     0.00   0.00000   0 ;    P31-   O32-   C31-   C32
  9139   9140   9141   9144      9   180.00  -3.34720   2 ;    P31-   O32-   C31-   C32
  9140   9141   9144   9145      9     0.00   0.65270   3 ;    O32-   C31-   C32-   H2A
  9140   9141   9144   9146      9     0.00   0.65270   3 ;    O32-   C31-   C32-   H2B
  9140   9141   9144   9147      9     0.00   4.18400   3 ;    O32-   C31-   C32-   N31
  9141   9140   9139   9160      9     0.00   0.00000   0 ;    C31-   O32-   P31-   O33
  9141   9140   9139   9160      9     0.00   0.00000   0 ;    C31-   O32-   P31-   O33
  9141   9140   9139   9160      9     0.00   0.00000   0 ;    C31-   O32-   P31-   O33
  9141   9140   9139   9160      9     0.00   0.00000   0 ;    C31-   O32-   P31-   O33
  9141   9140   9139   9160      9     0.00   0.83680   2 ;    C31-   O32-   P31-   O33
  9141   9140   9139   9161      9     0.00   0.00000   0 ;    C31-   O32-   P31-   O34
  9141   9140   9139   9161      9     0.00   0.00000   0 ;    C31-   O32-   P31-   O34
  9141   9140   9139   9161      9     0.00   0.00000   0 ;    C31-   O32-   P31-   O34
  9141   9140   9139   9161      9     0.00   0.00000   0 ;    C31-   O32-   P31-   O34
  9141   9140   9139   9161      9     0.00   0.83680   2 ;    C31-   O32-   P31-   O34
  9141   9144   9147   9148      9     0.00   0.65270   3 ;    C31-   C32-   N31-   C33
  9141   9144   9147   9152      9     0.00   0.65270   3 ;    C31-   C32-   N31-   C34
  9141   9144   9147   9156      9     0.00   0.65270   3 ;    C31-   C32-   N31-   C35
  9142   9141   9144   9145      9     0.00   0.65270   3 ;    H1A-   C31-   C32-   H2A
  9142   9141   9144   9146      9     0.00   0.65270   3 ;    H1A-   C31-   C32-   H2B
  9142   9141   9144   9147      9     0.00   0.65270   3 ;    H1A-   C31-   C32-   N31
  9143   9141   9144   9145      9     0.00   0.65270   3 ;    H1B-   C31-   C32-   H2A
  9143   9141   9144   9146      9     0.00   0.65270   3 ;    H1B-   C31-   C32-   H2B
  9143   9141   9144   9147      9     0.00   0.65270   3 ;    H1B-   C31-   C32-   N31
  9144   9147   9148   9149      9     0.00   0.65270   3 ;    C32-   N31-   C33-   H3A
  9144   9147   9148   9150      9     0.00   0.65270   3 ;    C32-   N31-   C33-   H3B
  9144   9147   9148   9151      9     0.00   0.65270   3 ;    C32-   N31-   C33-   H3C
  9144   9147   9152   9153      9     0.00   0.65270   3 ;    C32-   N31-   C34-   H4A
  9144   9147   9152   9154      9     0.00   0.65270   3 ;    C32-   N31-   C34-   H4B
  9144   9147   9152   9155      9     0.00   0.65270   3 ;    C32-   N31-   C34-   H4C
  9144   9147   9156   9157      9     0.00   0.65270   3 ;    C32-   N31-   C35-   H5A
  9144   9147   9156   9158      9     0.00   0.65270   3 ;    C32-   N31-   C35-   H5B
  9144   9147   9156   9159      9     0.00   0.65270   3 ;    C32-   N31-   C35-   H5C
  9145   9144   9147   9148      9     0.00   0.65270   3 ;    H2A-   C32-   N31-   C33
  9145   9144   9147   9152      9     0.00   0.65270   3 ;    H2A-   C32-   N31-   C34
  9145   9144   9147   9156      9     0.00   0.65270   3 ;    H2A-   C32-   N31-   C35
  9146   9144   9147   9148      9     0.00   0.65270   3 ;    H2B-   C32-   N31-   C33
  9146   9144   9147   9152      9     0.00   0.65270   3 ;    H2B-   C32-   N31-   C34
  9146   9144   9147   9156      9     0.00   0.65270   3 ;    H2B-   C32-   N31-   C35
  9148   9147   9152   9153      9     0.00   0.65270   3 ;    C33-   N31-   C34-   H4A
  9148   9147   9152   9154      9     0.00   0.65270   3 ;    C33-   N31-   C34-   H4B
  9148   9147   9152   9155      9     0.00   0.65270   3 ;    C33-   N31-   C34-   H4C
  9148   9147   9156   9157      9     0.00   0.65270   3 ;    C33-   N31-   C35-   H5A
  9148   9147   9156   9158      9     0.00   0.65270   3 ;    C33-   N31-   C35-   H5B
  9148   9147   9156   9159      9     0.00   0.65270   3 ;    C33-   N31-   C35-   H5C
  9149   9148   9147   9152      9     0.00   0.65270   3 ;    H3A-   C33-   N31-   C34
  9149   9148   9147   9156      9     0.00   0.65270   3 ;    H3A-   C33-   N31-   C35
  9150   9148   9147   9152      9     0.00   0.65270   3 ;    H3B-   C33-   N31-   C34
  9150   9148   9147   9156      9     0.00   0.65270   3 ;    H3B-   C33-   N31-   C35
  9151   9148   9147   9152      9     0.00   0.65270   3 ;    H3C-   C33-   N31-   C34
  9151   9148   9147   9156      9     0.00   0.65270   3 ;    H3C-   C33-   N31-   C35
  9152   9147   9156   9157      9     0.00   0.65270   3 ;    C34-   N31-   C35-   H5A
  9152   9147   9156   9158      9     0.00   0.65270   3 ;    C34-   N31-   C35-   H5B
  9152   9147   9156   9159      9     0.00   0.65270   3 ;    C34-   N31-   C35-   H5C
  9153   9152   9147   9156      9     0.00   0.65270   3 ;    H4A-   C34-   N31-   C35
  9154   9152   9147   9156      9     0.00   0.65270   3 ;    H4B-   C34-   N31-   C35
  9155   9152   9147   9156      9     0.00   0.65270   3 ;    H4C-   C34-   N31-   C35
  9162   9163   9202   9199      9   180.00   0.00000   2 ;    O21-   C21-   C12-   C13
  9162   9163   9202   9203      9   180.00   0.00000   2 ;    O21-   C21-   C12-   H2R
  9162   9163   9202   9204      9   180.00   0.00000   2 ;    O21-   C21-   C12-   H2S
  9163   9202   9199   9196      9     0.00   0.65270   3 ;    C21-   C12-   C13-   C14
  9163   9202   9199   9200      9     0.00   0.65270   3 ;    C21-   C12-   C13-   H3R
  9163   9202   9199   9201      9     0.00   0.65270   3 ;    C21-   C12-   C13-   H3S
  9164   9163   9202   9199      9   180.00   0.00000   2 ;    O22-   C21-   C12-   C13
  9164   9163   9202   9203      9     0.00   3.34720   1 ;    O22-   C21-   C12-   H2R
  9164   9163   9202   9203      9   180.00   0.33472   3 ;    O22-   C21-   C12-   H2R
  9164   9163   9202   9204      9     0.00   3.34720   1 ;    O22-   C21-   C12-   H2S
  9164   9163   9202   9204      9   180.00   0.33472   3 ;    O22-   C21-   C12-   H2S
  9165   9166   9169   9170      9     0.00   0.62760   3 ;   H14T-  C114-  C113-  H13R
  9165   9166   9169   9171      9     0.00   0.62760   3 ;   H14T-  C114-  C113-  H13S
  9165   9166   9169   9172      9     0.00   0.66944   3 ;   H14T-  C114-  C113-  C112
  9166   9169   9172   9173      9     0.00   0.66944   3 ;   C114-  C113-  C112-  H12R
  9166   9169   9172   9174      9     0.00   0.66944   3 ;   C114-  C113-  C112-  H12S
  9166   9169   9172   9175      9     0.00   0.41840   1 ;   C114-  C113-  C112-  C111
  9166   9169   9172   9175      9     0.00   0.41840   2 ;   C114-  C113-  C112-  C111
  9166   9169   9172   9175      9     0.00   0.41840   4 ;   C114-  C113-  C112-  C111
  9166   9169   9172   9175      9     0.00   0.41840   5 ;   C114-  C113-  C112-  C111
  9166   9169   9172   9175      9     0.00   1.25520   3 ;   C114-  C113-  C112-  C111
  9167   9166   9169   9170      9     0.00   0.62760   3 ;   H14R-  C114-  C113-  H13R
  9167   9166   9169   9171      9     0.00   0.62760   3 ;   H14R-  C114-  C113-  H13S
  9167   9166   9169   9172      9     0.00   0.66944   3 ;   H14R-  C114-  C113-  C112
  9168   9166   9169   9170      9     0.00   0.62760   3 ;   H14S-  C114-  C113-  H13R
  9168   9166   9169   9171      9     0.00   0.62760   3 ;   H14S-  C114-  C113-  H13S
  9168   9166   9169   9172      9     0.00   0.66944   3 ;   H14S-  C114-  C113-  C112
  9169   9172   9175   9176      9     0.00   0.66944   3 ;   C113-  C112-  C111-  H11R
  9169   9172   9175   9177      9     0.00   0.66944   3 ;   C113-  C112-  C111-  H11S
  9169   9172   9175   9178      9     0.00   0.41840   1 ;   C113-  C112-  C111-  C110
  9169   9172   9175   9178      9     0.00   0.41840   2 ;   C113-  C112-  C111-  C110
  9169   9172   9175   9178      9     0.00   0.41840   4 ;   C113-  C112-  C111-  C110
  9169   9172   9175   9178      9     0.00   0.41840   5 ;   C113-  C112-  C111-  C110
  9169   9172   9175   9178      9     0.00   1.25520   3 ;   C113-  C112-  C111-  C110
  9170   9169   9172   9173      9     0.00   0.62760   3 ;   H13R-  C113-  C112-  H12R
  9170   9169   9172   9174      9     0.00   0.62760   3 ;   H13R-  C113-  C112-  H12S
  9170   9169   9172   9175      9     0.00   0.66944   3 ;   H13R-  C113-  C112-  C111
  9171   9169   9172   9173      9     0.00   0.62760   3 ;   H13S-  C113-  C112-  H12R
  9171   9169   9172   9174      9     0.00   0.62760   3 ;   H13S-  C113-  C112-  H12S
  9171   9169   9172   9175      9     0.00   0.66944   3 ;   H13S-  C113-  C112-  C111
  9172   9175   9178   9179      9     0.00   0.66944   3 ;   C112-  C111-  C110-  H10R
  9172   9175   9178   9180      9     0.00   0.66944   3 ;   C112-  C111-  C110-  H10S
  9172   9175   9178   9181      9     0.00   0.41840   1 ;   C112-  C111-  C110-   C19
  9172   9175   9178   9181      9     0.00   0.41840   2 ;   C112-  C111-  C110-   C19
  9172   9175   9178   9181      9     0.00   0.41840   4 ;   C112-  C111-  C110-   C19
  9172   9175   9178   9181      9     0.00   0.41840   5 ;   C112-  C111-  C110-   C19
  9172   9175   9178   9181      9     0.00   1.25520   3 ;   C112-  C111-  C110-   C19
  9173   9172   9175   9176      9     0.00   0.62760   3 ;   H12R-  C112-  C111-  H11R
  9173   9172   9175   9177      9     0.00   0.62760   3 ;   H12R-  C112-  C111-  H11S
  9173   9172   9175   9178      9     0.00   0.66944   3 ;   H12R-  C112-  C111-  C110
  9174   9172   9175   9176      9     0.00   0.62760   3 ;   H12S-  C112-  C111-  H11R
  9174   9172   9175   9177      9     0.00   0.62760   3 ;   H12S-  C112-  C111-  H11S
  9174   9172   9175   9178      9     0.00   0.66944   3 ;   H12S-  C112-  C111-  C110
  9175   9178   9181   9182      9     0.00   0.66944   3 ;   C111-  C110-   C19-   H9R
  9175   9178   9181   9183      9     0.00   0.66944   3 ;   C111-  C110-   C19-   H9S
  9175   9178   9181   9184      9     0.00   0.41840   1 ;   C111-  C110-   C19-   C18
  9175   9178   9181   9184      9     0.00   0.41840   2 ;   C111-  C110-   C19-   C18
  9175   9178   9181   9184      9     0.00   0.41840   4 ;   C111-  C110-   C19-   C18
  9175   9178   9181   9184      9     0.00   0.41840   5 ;   C111-  C110-   C19-   C18
  9175   9178   9181   9184      9     0.00   1.25520   3 ;   C111-  C110-   C19-   C18
  9176   9175   9178   9179      9     0.00   0.62760   3 ;   H11R-  C111-  C110-  H10R
  9176   9175   9178   9180      9     0.00   0.62760   3 ;   H11R-  C111-  C110-  H10S
  9176   9175   9178   9181      9     0.00   0.66944   3 ;   H11R-  C111-  C110-   C19
  9177   9175   9178   9179      9     0.00   0.62760   3 ;   H11S-  C111-  C110-  H10R
  9177   9175   9178   9180      9     0.00   0.62760   3 ;   H11S-  C111-  C110-  H10S
  9177   9175   9178   9181      9     0.00   0.66944   3 ;   H11S-  C111-  C110-   C19
  9178   9181   9184   9185      9     0.00   0.66944   3 ;   C110-   C19-   C18-   H8R
  9178   9181   9184   9186      9     0.00   0.66944   3 ;   C110-   C19-   C18-   H8S
  9178   9181   9184   9187      9     0.00   0.41840   1 ;   C110-   C19-   C18-   C17
  9178   9181   9184   9187      9     0.00   0.41840   2 ;   C110-   C19-   C18-   C17
  9178   9181   9184   9187      9     0.00   0.41840   4 ;   C110-   C19-   C18-   C17
  9178   9181   9184   9187      9     0.00   0.41840   5 ;   C110-   C19-   C18-   C17
  9178   9181   9184   9187      9     0.00   1.25520   3 ;   C110-   C19-   C18-   C17
  9179   9178   9181   9182      9     0.00   0.62760   3 ;   H10R-  C110-   C19-   H9R
  9179   9178   9181   9183      9     0.00   0.62760   3 ;   H10R-  C110-   C19-   H9S
  9179   9178   9181   9184      9     0.00   0.66944   3 ;   H10R-  C110-   C19-   C18
  9180   9178   9181   9182      9     0.00   0.62760   3 ;   H10S-  C110-   C19-   H9R
  9180   9178   9181   9183      9     0.00   0.62760   3 ;   H10S-  C110-   C19-   H9S
  9180   9178   9181   9184      9     0.00   0.66944   3 ;   H10S-  C110-   C19-   C18
  9181   9184   9187   9188      9     0.00   0.66944   3 ;    C19-   C18-   C17-   H7R
  9181   9184   9187   9189      9     0.00   0.66944   3 ;    C19-   C18-   C17-   H7S
  9181   9184   9187   9190      9     0.00   0.41840   1 ;    C19-   C18-   C17-   C16
  9181   9184   9187   9190      9     0.00   0.41840   2 ;    C19-   C18-   C17-   C16
  9181   9184   9187   9190      9     0.00   0.41840   4 ;    C19-   C18-   C17-   C16
  9181   9184   9187   9190      9     0.00   0.41840   5 ;    C19-   C18-   C17-   C16
  9181   9184   9187   9190      9     0.00   1.25520   3 ;    C19-   C18-   C17-   C16
  9182   9181   9184   9185      9     0.00   0.62760   3 ;    H9R-   C19-   C18-   H8R
  9182   9181   9184   9186      9     0.00   0.62760   3 ;    H9R-   C19-   C18-   H8S
  9182   9181   9184   9187      9     0.00   0.66944   3 ;    H9R-   C19-   C18-   C17
  9183   9181   9184   9185      9     0.00   0.62760   3 ;    H9S-   C19-   C18-   H8R
  9183   9181   9184   9186      9     0.00   0.62760   3 ;    H9S-   C19-   C18-   H8S
  9183   9181   9184   9187      9     0.00   0.66944   3 ;    H9S-   C19-   C18-   C17
  9184   9187   9190   9191      9     0.00   0.66944   3 ;    C18-   C17-   C16-   H6R
  9184   9187   9190   9192      9     0.00   0.66944   3 ;    C18-   C17-   C16-   H6S
  9184   9187   9190   9193      9     0.00   0.41840   1 ;    C18-   C17-   C16-   C15
  9184   9187   9190   9193      9     0.00   0.41840   2 ;    C18-   C17-   C16-   C15
  9184   9187   9190   9193      9     0.00   0.41840   4 ;    C18-   C17-   C16-   C15
  9184   9187   9190   9193      9     0.00   0.41840   5 ;    C18-   C17-   C16-   C15
  9184   9187   9190   9193      9     0.00   1.25520   3 ;    C18-   C17-   C16-   C15
  9185   9184   9187   9188      9     0.00   0.62760   3 ;    H8R-   C18-   C17-   H7R
  9185   9184   9187   9189      9     0.00   0.62760   3 ;    H8R-   C18-   C17-   H7S
  9185   9184   9187   9190      9     0.00   0.66944   3 ;    H8R-   C18-   C17-   C16
  9186   9184   9187   9188      9     0.00   0.62760   3 ;    H8S-   C18-   C17-   H7R
  9186   9184   9187   9189      9     0.00   0.62760   3 ;    H8S-   C18-   C17-   H7S
  9186   9184   9187   9190      9     0.00   0.66944   3 ;    H8S-   C18-   C17-   C16
  9187   9190   9193   9194      9     0.00   0.66944   3 ;    C17-   C16-   C15-   H5R
  9187   9190   9193   9195      9     0.00   0.66944   3 ;    C17-   C16-   C15-   H5S
  9187   9190   9193   9196      9     0.00   0.41840   1 ;    C17-   C16-   C15-   C14
  9187   9190   9193   9196      9     0.00   0.41840   2 ;    C17-   C16-   C15-   C14
  9187   9190   9193   9196      9     0.00   0.41840   4 ;    C17-   C16-   C15-   C14
  9187   9190   9193   9196      9     0.00   0.41840   5 ;    C17-   C16-   C15-   C14
  9187   9190   9193   9196      9     0.00   1.25520   3 ;    C17-   C16-   C15-   C14
  9188   9187   9190   9191      9     0.00   0.62760   3 ;    H7R-   C17-   C16-   H6R
  9188   9187   9190   9192      9     0.00   0.62760   3 ;    H7R-   C17-   C16-   H6S
  9188   9187   9190   9193      9     0.00   0.66944   3 ;    H7R-   C17-   C16-   C15
  9189   9187   9190   9191      9     0.00   0.62760   3 ;    H7S-   C17-   C16-   H6R
  9189   9187   9190   9192      9     0.00   0.62760   3 ;    H7S-   C17-   C16-   H6S
  9189   9187   9190   9193      9     0.00   0.66944   3 ;    H7S-   C17-   C16-   C15
  9190   9193   9196   9197      9     0.00   0.66944   3 ;    C16-   C15-   C14-   H4R
  9190   9193   9196   9198      9     0.00   0.66944   3 ;    C16-   C15-   C14-   H4S
  9190   9193   9196   9199      9     0.00   0.41840   1 ;    C16-   C15-   C14-   C13
  9190   9193   9196   9199      9     0.00   0.41840   2 ;    C16-   C15-   C14-   C13
  9190   9193   9196   9199      9     0.00   0.41840   4 ;    C16-   C15-   C14-   C13
  9190   9193   9196   9199      9     0.00   0.41840   5 ;    C16-   C15-   C14-   C13
  9190   9193   9196   9199      9     0.00   1.25520   3 ;    C16-   C15-   C14-   C13
  9191   9190   9193   9194      9     0.00   0.62760   3 ;    H6R-   C16-   C15-   H5R
  9191   9190   9193   9195      9     0.00   0.62760   3 ;    H6R-   C16-   C15-   H5S
  9191   9190   9193   9196      9     0.00   0.66944   3 ;    H6R-   C16-   C15-   C14
  9192   9190   9193   9194      9     0.00   0.62760   3 ;    H6S-   C16-   C15-   H5R
  9192   9190   9193   9195      9     0.00   0.62760   3 ;    H6S-   C16-   C15-   H5S
  9192   9190   9193   9196      9     0.00   0.66944   3 ;    H6S-   C16-   C15-   C14
  9193   9196   9199   9200      9     0.00   0.66944   3 ;    C15-   C14-   C13-   H3R
  9193   9196   9199   9201      9     0.00   0.66944   3 ;    C15-   C14-   C13-   H3S
  9193   9196   9199   9202      9     0.00   0.41840   1 ;    C15-   C14-   C13-   C12
  9193   9196   9199   9202      9     0.00   0.41840   2 ;    C15-   C14-   C13-   C12
  9193   9196   9199   9202      9     0.00   0.41840   4 ;    C15-   C14-   C13-   C12
  9193   9196   9199   9202      9     0.00   0.41840   5 ;    C15-   C14-   C13-   C12
  9193   9196   9199   9202      9     0.00   1.25520   3 ;    C15-   C14-   C13-   C12
  9194   9193   9196   9197      9     0.00   0.62760   3 ;    H5R-   C15-   C14-   H4R
  9194   9193   9196   9198      9     0.00   0.62760   3 ;    H5R-   C15-   C14-   H4S
  9194   9193   9196   9199      9     0.00   0.66944   3 ;    H5R-   C15-   C14-   C13
  9195   9193   9196   9197      9     0.00   0.62760   3 ;    H5S-   C15-   C14-   H4R
  9195   9193   9196   9198      9     0.00   0.62760   3 ;    H5S-   C15-   C14-   H4S
  9195   9193   9196   9199      9     0.00   0.66944   3 ;    H5S-   C15-   C14-   C13
  9196   9199   9202   9203      9     0.00   0.66944   3 ;    C14-   C13-   C12-   H2R
  9196   9199   9202   9204      9     0.00   0.66944   3 ;    C14-   C13-   C12-   H2S
  9197   9196   9199   9200      9     0.00   0.62760   3 ;    H4R-   C14-   C13-   H3R
  9197   9196   9199   9201      9     0.00   0.62760   3 ;    H4R-   C14-   C13-   H3S
  9197   9196   9199   9202      9     0.00   0.66944   3 ;    H4R-   C14-   C13-   C12
  9198   9196   9199   9200      9     0.00   0.62760   3 ;    H4S-   C14-   C13-   H3R
  9198   9196   9199   9201      9     0.00   0.62760   3 ;    H4S-   C14-   C13-   H3S
  9198   9196   9199   9202      9     0.00   0.66944   3 ;    H4S-   C14-   C13-   C12
  9200   9199   9202   9203      9     0.00   0.62760   3 ;    H3R-   C13-   C12-   H2R
  9200   9199   9202   9204      9     0.00   0.62760   3 ;    H3R-   C13-   C12-   H2S
  9201   9199   9202   9203      9     0.00   0.62760   3 ;    H3S-   C13-   C12-   H2R
  9201   9199   9202   9204      9     0.00   0.62760   3 ;    H3S-   C13-   C12-   H2S
  9205   9206   9209   9210      9     0.00   0.62760   3 ;   H14T-  C114-  C113-  H13R
  9205   9206   9209   9211      9     0.00   0.62760   3 ;   H14T-  C114-  C113-  H13S
  9205   9206   9209   9212      9     0.00   0.66944   3 ;   H14T-  C114-  C113-  C112
  9206   9209   9212   9213      9     0.00   0.66944   3 ;   C114-  C113-  C112-  H12R
  9206   9209   9212   9214      9     0.00   0.66944   3 ;   C114-  C113-  C112-  H12S
  9206   9209   9212   9215      9     0.00   0.41840   1 ;   C114-  C113-  C112-  C111
  9206   9209   9212   9215      9     0.00   0.41840   2 ;   C114-  C113-  C112-  C111
  9206   9209   9212   9215      9     0.00   0.41840   4 ;   C114-  C113-  C112-  C111
  9206   9209   9212   9215      9     0.00   0.41840   5 ;   C114-  C113-  C112-  C111
  9206   9209   9212   9215      9     0.00   1.25520   3 ;   C114-  C113-  C112-  C111
  9207   9206   9209   9210      9     0.00   0.62760   3 ;   H14R-  C114-  C113-  H13R
  9207   9206   9209   9211      9     0.00   0.62760   3 ;   H14R-  C114-  C113-  H13S
  9207   9206   9209   9212      9     0.00   0.66944   3 ;   H14R-  C114-  C113-  C112
  9208   9206   9209   9210      9     0.00   0.62760   3 ;   H14S-  C114-  C113-  H13R
  9208   9206   9209   9211      9     0.00   0.62760   3 ;   H14S-  C114-  C113-  H13S
  9208   9206   9209   9212      9     0.00   0.66944   3 ;   H14S-  C114-  C113-  C112
  9209   9212   9215   9216      9     0.00   0.66944   3 ;   C113-  C112-  C111-  H11R
  9209   9212   9215   9217      9     0.00   0.66944   3 ;   C113-  C112-  C111-  H11S
  9209   9212   9215   9218      9     0.00   0.41840   1 ;   C113-  C112-  C111-  C110
  9209   9212   9215   9218      9     0.00   0.41840   2 ;   C113-  C112-  C111-  C110
  9209   9212   9215   9218      9     0.00   0.41840   4 ;   C113-  C112-  C111-  C110
  9209   9212   9215   9218      9     0.00   0.41840   5 ;   C113-  C112-  C111-  C110
  9209   9212   9215   9218      9     0.00   1.25520   3 ;   C113-  C112-  C111-  C110
  9210   9209   9212   9213      9     0.00   0.62760   3 ;   H13R-  C113-  C112-  H12R
  9210   9209   9212   9214      9     0.00   0.62760   3 ;   H13R-  C113-  C112-  H12S
  9210   9209   9212   9215      9     0.00   0.66944   3 ;   H13R-  C113-  C112-  C111
  9211   9209   9212   9213      9     0.00   0.62760   3 ;   H13S-  C113-  C112-  H12R
  9211   9209   9212   9214      9     0.00   0.62760   3 ;   H13S-  C113-  C112-  H12S
  9211   9209   9212   9215      9     0.00   0.66944   3 ;   H13S-  C113-  C112-  C111
  9212   9215   9218   9219      9     0.00   0.66944   3 ;   C112-  C111-  C110-  H10R
  9212   9215   9218   9220      9     0.00   0.66944   3 ;   C112-  C111-  C110-  H10S
  9212   9215   9218   9221      9     0.00   0.41840   1 ;   C112-  C111-  C110-   C19
  9212   9215   9218   9221      9     0.00   0.41840   2 ;   C112-  C111-  C110-   C19
  9212   9215   9218   9221      9     0.00   0.41840   4 ;   C112-  C111-  C110-   C19
  9212   9215   9218   9221      9     0.00   0.41840   5 ;   C112-  C111-  C110-   C19
  9212   9215   9218   9221      9     0.00   1.25520   3 ;   C112-  C111-  C110-   C19
  9213   9212   9215   9216      9     0.00   0.62760   3 ;   H12R-  C112-  C111-  H11R
  9213   9212   9215   9217      9     0.00   0.62760   3 ;   H12R-  C112-  C111-  H11S
  9213   9212   9215   9218      9     0.00   0.66944   3 ;   H12R-  C112-  C111-  C110
  9214   9212   9215   9216      9     0.00   0.62760   3 ;   H12S-  C112-  C111-  H11R
  9214   9212   9215   9217      9     0.00   0.62760   3 ;   H12S-  C112-  C111-  H11S
  9214   9212   9215   9218      9     0.00   0.66944   3 ;   H12S-  C112-  C111-  C110
  9215   9218   9221   9222      9     0.00   0.66944   3 ;   C111-  C110-   C19-   H9R
  9215   9218   9221   9223      9     0.00   0.66944   3 ;   C111-  C110-   C19-   H9S
  9215   9218   9221   9224      9     0.00   0.41840   1 ;   C111-  C110-   C19-   C18
  9215   9218   9221   9224      9     0.00   0.41840   2 ;   C111-  C110-   C19-   C18
  9215   9218   9221   9224      9     0.00   0.41840   4 ;   C111-  C110-   C19-   C18
  9215   9218   9221   9224      9     0.00   0.41840   5 ;   C111-  C110-   C19-   C18
  9215   9218   9221   9224      9     0.00   1.25520   3 ;   C111-  C110-   C19-   C18
  9216   9215   9218   9219      9     0.00   0.62760   3 ;   H11R-  C111-  C110-  H10R
  9216   9215   9218   9220      9     0.00   0.62760   3 ;   H11R-  C111-  C110-  H10S
  9216   9215   9218   9221      9     0.00   0.66944   3 ;   H11R-  C111-  C110-   C19
  9217   9215   9218   9219      9     0.00   0.62760   3 ;   H11S-  C111-  C110-  H10R
  9217   9215   9218   9220      9     0.00   0.62760   3 ;   H11S-  C111-  C110-  H10S
  9217   9215   9218   9221      9     0.00   0.66944   3 ;   H11S-  C111-  C110-   C19
  9218   9221   9224   9225      9     0.00   0.66944   3 ;   C110-   C19-   C18-   H8R
  9218   9221   9224   9226      9     0.00   0.66944   3 ;   C110-   C19-   C18-   H8S
  9218   9221   9224   9227      9     0.00   0.41840   1 ;   C110-   C19-   C18-   C17
  9218   9221   9224   9227      9     0.00   0.41840   2 ;   C110-   C19-   C18-   C17
  9218   9221   9224   9227      9     0.00   0.41840   4 ;   C110-   C19-   C18-   C17
  9218   9221   9224   9227      9     0.00   0.41840   5 ;   C110-   C19-   C18-   C17
  9218   9221   9224   9227      9     0.00   1.25520   3 ;   C110-   C19-   C18-   C17
  9219   9218   9221   9222      9     0.00   0.62760   3 ;   H10R-  C110-   C19-   H9R
  9219   9218   9221   9223      9     0.00   0.62760   3 ;   H10R-  C110-   C19-   H9S
  9219   9218   9221   9224      9     0.00   0.66944   3 ;   H10R-  C110-   C19-   C18
  9220   9218   9221   9222      9     0.00   0.62760   3 ;   H10S-  C110-   C19-   H9R
  9220   9218   9221   9223      9     0.00   0.62760   3 ;   H10S-  C110-   C19-   H9S
  9220   9218   9221   9224      9     0.00   0.66944   3 ;   H10S-  C110-   C19-   C18
  9221   9224   9227   9228      9     0.00   0.66944   3 ;    C19-   C18-   C17-   H7R
  9221   9224   9227   9229      9     0.00   0.66944   3 ;    C19-   C18-   C17-   H7S
  9221   9224   9227   9230      9     0.00   0.41840   1 ;    C19-   C18-   C17-   C16
  9221   9224   9227   9230      9     0.00   0.41840   2 ;    C19-   C18-   C17-   C16
  9221   9224   9227   9230      9     0.00   0.41840   4 ;    C19-   C18-   C17-   C16
  9221   9224   9227   9230      9     0.00   0.41840   5 ;    C19-   C18-   C17-   C16
  9221   9224   9227   9230      9     0.00   1.25520   3 ;    C19-   C18-   C17-   C16
  9222   9221   9224   9225      9     0.00   0.62760   3 ;    H9R-   C19-   C18-   H8R
  9222   9221   9224   9226      9     0.00   0.62760   3 ;    H9R-   C19-   C18-   H8S
  9222   9221   9224   9227      9     0.00   0.66944   3 ;    H9R-   C19-   C18-   C17
  9223   9221   9224   9225      9     0.00   0.62760   3 ;    H9S-   C19-   C18-   H8R
  9223   9221   9224   9226      9     0.00   0.62760   3 ;    H9S-   C19-   C18-   H8S
  9223   9221   9224   9227      9     0.00   0.66944   3 ;    H9S-   C19-   C18-   C17
  9224   9227   9230   9231      9     0.00   0.66944   3 ;    C18-   C17-   C16-   H6R
  9224   9227   9230   9232      9     0.00   0.66944   3 ;    C18-   C17-   C16-   H6S
  9224   9227   9230   9233      9     0.00   0.41840   1 ;    C18-   C17-   C16-   C15
  9224   9227   9230   9233      9     0.00   0.41840   2 ;    C18-   C17-   C16-   C15
  9224   9227   9230   9233      9     0.00   0.41840   4 ;    C18-   C17-   C16-   C15
  9224   9227   9230   9233      9     0.00   0.41840   5 ;    C18-   C17-   C16-   C15
  9224   9227   9230   9233      9     0.00   1.25520   3 ;    C18-   C17-   C16-   C15
  9225   9224   9227   9228      9     0.00   0.62760   3 ;    H8R-   C18-   C17-   H7R
  9225   9224   9227   9229      9     0.00   0.62760   3 ;    H8R-   C18-   C17-   H7S
  9225   9224   9227   9230      9     0.00   0.66944   3 ;    H8R-   C18-   C17-   C16
  9226   9224   9227   9228      9     0.00   0.62760   3 ;    H8S-   C18-   C17-   H7R
  9226   9224   9227   9229      9     0.00   0.62760   3 ;    H8S-   C18-   C17-   H7S
  9226   9224   9227   9230      9     0.00   0.66944   3 ;    H8S-   C18-   C17-   C16
  9227   9230   9233   9234      9     0.00   0.66944   3 ;    C17-   C16-   C15-   H5R
  9227   9230   9233   9235      9     0.00   0.66944   3 ;    C17-   C16-   C15-   H5S
  9227   9230   9233   9236      9     0.00   0.41840   1 ;    C17-   C16-   C15-   C14
  9227   9230   9233   9236      9     0.00   0.41840   2 ;    C17-   C16-   C15-   C14
  9227   9230   9233   9236      9     0.00   0.41840   4 ;    C17-   C16-   C15-   C14
  9227   9230   9233   9236      9     0.00   0.41840   5 ;    C17-   C16-   C15-   C14
  9227   9230   9233   9236      9     0.00   1.25520   3 ;    C17-   C16-   C15-   C14
  9228   9227   9230   9231      9     0.00   0.62760   3 ;    H7R-   C17-   C16-   H6R
  9228   9227   9230   9232      9     0.00   0.62760   3 ;    H7R-   C17-   C16-   H6S
  9228   9227   9230   9233      9     0.00   0.66944   3 ;    H7R-   C17-   C16-   C15
  9229   9227   9230   9231      9     0.00   0.62760   3 ;    H7S-   C17-   C16-   H6R
  9229   9227   9230   9232      9     0.00   0.62760   3 ;    H7S-   C17-   C16-   H6S
  9229   9227   9230   9233      9     0.00   0.66944   3 ;    H7S-   C17-   C16-   C15
  9230   9233   9236   9237      9     0.00   0.66944   3 ;    C16-   C15-   C14-   H4R
  9230   9233   9236   9238      9     0.00   0.66944   3 ;    C16-   C15-   C14-   H4S
  9230   9233   9236   9239      9     0.00   0.41840   1 ;    C16-   C15-   C14-   C13
  9230   9233   9236   9239      9     0.00   0.41840   2 ;    C16-   C15-   C14-   C13
  9230   9233   9236   9239      9     0.00   0.41840   4 ;    C16-   C15-   C14-   C13
  9230   9233   9236   9239      9     0.00   0.41840   5 ;    C16-   C15-   C14-   C13
  9230   9233   9236   9239      9     0.00   1.25520   3 ;    C16-   C15-   C14-   C13
  9231   9230   9233   9234      9     0.00   0.62760   3 ;    H6R-   C16-   C15-   H5R
  9231   9230   9233   9235      9     0.00   0.62760   3 ;    H6R-   C16-   C15-   H5S
  9231   9230   9233   9236      9     0.00   0.66944   3 ;    H6R-   C16-   C15-   C14
  9232   9230   9233   9234      9     0.00   0.62760   3 ;    H6S-   C16-   C15-   H5R
  9232   9230   9233   9235      9     0.00   0.62760   3 ;    H6S-   C16-   C15-   H5S
  9232   9230   9233   9236      9     0.00   0.66944   3 ;    H6S-   C16-   C15-   C14
  9233   9236   9239   9240      9     0.00   0.66944   3 ;    C15-   C14-   C13-   H3R
  9233   9236   9239   9241      9     0.00   0.66944   3 ;    C15-   C14-   C13-   H3S
  9233   9236   9239   9242      9     0.00   0.41840   1 ;    C15-   C14-   C13-   C12
  9233   9236   9239   9242      9     0.00   0.41840   2 ;    C15-   C14-   C13-   C12
  9233   9236   9239   9242      9     0.00   0.41840   4 ;    C15-   C14-   C13-   C12
  9233   9236   9239   9242      9     0.00   0.41840   5 ;    C15-   C14-   C13-   C12
  9233   9236   9239   9242      9     0.00   1.25520   3 ;    C15-   C14-   C13-   C12
  9234   9233   9236   9237      9     0.00   0.62760   3 ;    H5R-   C15-   C14-   H4R
  9234   9233   9236   9238      9     0.00   0.62760   3 ;    H5R-   C15-   C14-   H4S
  9234   9233   9236   9239      9     0.00   0.66944   3 ;    H5R-   C15-   C14-   C13
  9235   9233   9236   9237      9     0.00   0.62760   3 ;    H5S-   C15-   C14-   H4R
  9235   9233   9236   9238      9     0.00   0.62760   3 ;    H5S-   C15-   C14-   H4S
  9235   9233   9236   9239      9     0.00   0.66944   3 ;    H5S-   C15-   C14-   C13
  9236   9239   9242   9243      9     0.00   0.66944   3 ;    C14-   C13-   C12-   H2R
  9236   9239   9242   9244      9     0.00   0.66944   3 ;    C14-   C13-   C12-   H2S
  9236   9239   9242   9245      9     0.00   0.65270   3 ;    C14-   C13-   C12-   C11
  9237   9236   9239   9240      9     0.00   0.62760   3 ;    H4R-   C14-   C13-   H3R
  9237   9236   9239   9241      9     0.00   0.62760   3 ;    H4R-   C14-   C13-   H3S
  9237   9236   9239   9242      9     0.00   0.66944   3 ;    H4R-   C14-   C13-   C12
  9238   9236   9239   9240      9     0.00   0.62760   3 ;    H4S-   C14-   C13-   H3R
  9238   9236   9239   9241      9     0.00   0.62760   3 ;    H4S-   C14-   C13-   H3S
  9238   9236   9239   9242      9     0.00   0.66944   3 ;    H4S-   C14-   C13-   C12
  9239   9242   9245   9246      9   180.00   0.00000   2 ;    C13-   C12-   C11-   O12
  9239   9242   9245   9247      9   180.00   0.00000   2 ;    C13-   C12-   C11-   O11
  9240   9239   9242   9243      9     0.00   0.62760   3 ;    H3R-   C13-   C12-   H2R
  9240   9239   9242   9244      9     0.00   0.62760   3 ;    H3R-   C13-   C12-   H2S
  9240   9239   9242   9245      9     0.00   0.65270   3 ;    H3R-   C13-   C12-   C11
  9241   9239   9242   9243      9     0.00   0.62760   3 ;    H3S-   C13-   C12-   H2R
  9241   9239   9242   9244      9     0.00   0.62760   3 ;    H3S-   C13-   C12-   H2S
  9241   9239   9242   9245      9     0.00   0.65270   3 ;    H3S-   C13-   C12-   C11
  9242   9245   9247   9248      9   180.00  11.29680   2 ;    C12-   C11-   O11-    C1
  9243   9242   9245   9246      9     0.00   3.34720   1 ;    H2R-   C12-   C11-   O12
  9243   9242   9245   9246      9   180.00   0.33472   3 ;    H2R-   C12-   C11-   O12
  9243   9242   9245   9247      9   180.00   0.00000   2 ;    H2R-   C12-   C11-   O11
  9244   9242   9245   9246      9     0.00   3.34720   1 ;    H2S-   C12-   C11-   O12
  9244   9242   9245   9246      9   180.00   0.33472   3 ;    H2S-   C12-   C11-   O12
  9244   9242   9245   9247      9   180.00   0.00000   2 ;    H2S-   C12-   C11-   O11
  9245   9247   9248   9249      9     0.00   1.60247   3 ;    C11-   O11-    C1-    HR
  9245   9247   9248   9250      9     0.00   1.60247   3 ;    C11-   O11-    C1-    HS
  9245   9247   9248   9251      9     0.00  -0.41840   1 ;    C11-   O11-    C1-    C2
  9246   9245   9247   9248      9   180.00   5.85760   1 ;    O12-   C11-   O11-    C1
  9246   9245   9247   9248      9   180.00  11.29680   2 ;    O12-   C11-   O11-    C1
  9247   9248   9251   9252      9     0.00   0.00000   0 ;    O11-    C1-    C2-    HX
  9247   9248   9251   9252      9     0.00   1.04600   1 ;    O11-    C1-    C2-    HX
  9247   9248   9251   9253      9     0.00   0.00000   0 ;    O11-    C1-    C2-    C3
  9247   9248   9251   9253      9     0.00   0.00000   0 ;    O11-    C1-    C2-    C3
  9247   9248   9251   9253      9     0.00   0.00000   0 ;    O11-    C1-    C2-    C3
  9247   9248   9251   9253      9     0.00   0.00000   0 ;    O11-    C1-    C2-    C3
  9247   9248   9251   9253      9     0.00   0.00000   0 ;    O11-    C1-    C2-    C3
  9247   9248   9251   9280      9     0.00   1.25520   2 ;    O11-    C1-    C2-   O21
  9247   9248   9251   9280      9     0.00   4.18400   3 ;    O11-    C1-    C2-   O21
  9247   9248   9251   9280      9   180.00  -0.41840   1 ;    O11-    C1-    C2-   O21
  9248   9251   9253   9254      9     0.00   0.65270   3 ;     C1-    C2-    C3-    HA
  9248   9251   9253   9255      9     0.00   0.65270   3 ;     C1-    C2-    C3-    HB
  9248   9251   9253   9256      9   180.00   3.34720   1 ;     C1-    C2-    C3-   O31
  9248   9251   9280   9281      9     0.00  -0.41840   1 ;     C1-    C2-   O21-   C21
  9249   9248   9251   9252      9     0.00   0.65270   3 ;     HR-    C1-    C2-    HX
  9249   9248   9251   9253      9     0.00   0.65270   3 ;     HR-    C1-    C2-    C3
  9249   9248   9251   9280      9     0.00   0.00000   0 ;     HR-    C1-    C2-   O21
  9249   9248   9251   9280      9     0.00   1.04600   1 ;     HR-    C1-    C2-   O21
  9250   9248   9251   9252      9     0.00   0.65270   3 ;     HS-    C1-    C2-    HX
  9250   9248   9251   9253      9     0.00   0.65270   3 ;     HS-    C1-    C2-    C3
  9250   9248   9251   9280      9     0.00   0.00000   0 ;     HS-    C1-    C2-   O21
  9250   9248   9251   9280      9     0.00   1.04600   1 ;     HS-    C1-    C2-   O21
  9251   9253   9256   9257      9     0.00   0.00000   0 ;     C2-    C3-   O31-   P31
  9251   9253   9256   9257      9   180.00  -3.34720   2 ;     C2-    C3-   O31-   P31
  9251   9280   9281   9282      9   180.00   5.85760   1 ;     C2-   O21-   C21-   O22
  9251   9280   9281   9282      9   180.00  11.29680   2 ;     C2-   O21-   C21-   O22
  9251   9280   9281   9320      9   180.00  11.29680   2 ;     C2-   O21-   C21-   C12
  9252   9251   9253   9254      9     0.00   0.65270   3 ;     HX-    C2-    C3-    HA
  9252   9251   9253   9255      9     0.00   0.65270   3 ;     HX-    C2-    C3-    HB
  9252   9251   9253   9256      9     0.00   0.00000   0 ;     HX-    C2-    C3-   O31
  9252   9251   9253   9256      9     0.00   1.04600   1 ;     HX-    C2-    C3-   O31
  9252   9251   9280   9281      9     0.00   1.60247   3 ;     HX-    C2-   O21-   C21
  9253   9251   9280   9281      9     0.00  -0.41840   1 ;     C3-    C2-   O21-   C21
  9253   9256   9257   9258      9     0.00   2.51040   3 ;     C3-   O31-   P31-   O32
  9253   9256   9257   9258      9     0.00   9.62320   2 ;     C3-   O31-   P31-   O32
  9253   9256   9257   9278      9     0.00   0.00000   0 ;     C3-   O31-   P31-   O33
  9253   9256   9257   9278      9     0.00   0.00000   0 ;     C3-   O31-   P31-   O33
  9253   9256   9257   9278      9     0.00   0.00000   0 ;     C3-   O31-   P31-   O33
  9253   9256   9257   9278      9     0.00   0.00000   0 ;     C3-   O31-   P31-   O33
  9253   9256   9257   9278      9     0.00   0.83680   2 ;     C3-   O31-   P31-   O33
  9253   9256   9257   9279      9     0.00   0.00000   0 ;     C3-   O31-   P31-   O34
  9253   9256   9257   9279      9     0.00   0.00000   0 ;     C3-   O31-   P31-   O34
  9253   9256   9257   9279      9     0.00   0.00000   0 ;     C3-   O31-   P31-   O34
  9253   9256   9257   9279      9     0.00   0.00000   0 ;     C3-   O31-   P31-   O34
  9253   9256   9257   9279      9     0.00   0.83680   2 ;     C3-   O31-   P31-   O34
  9254   9253   9251   9280      9     0.00   0.00000   0 ;     HA-    C3-    C2-   O21
  9254   9253   9251   9280      9     0.00   1.04600   1 ;     HA-    C3-    C2-   O21
  9254   9253   9256   9257      9     0.00   0.00000   0 ;     HA-    C3-   O31-   P31
  9254   9253   9256   9257      9     0.00   0.00000   0 ;     HA-    C3-   O31-   P31
  9254   9253   9256   9257      9     0.00   0.00000   0 ;     HA-    C3-   O31-   P31
  9254   9253   9256   9257      9     0.00   0.00000   0 ;     HA-    C3-   O31-   P31
  9254   9253   9256   9257      9     0.00   1.60247   3 ;     HA-    C3-   O31-   P31
  9255   9253   9251   9280      9     0.00   0.00000   0 ;     HB-    C3-    C2-   O21
  9255   9253   9251   9280      9     0.00   1.04600   1 ;     HB-    C3-    C2-   O21
  9255   9253   9256   9257      9     0.00   0.00000   0 ;     HB-    C3-   O31-   P31
  9255   9253   9256   9257      9     0.00   0.00000   0 ;     HB-    C3-   O31-   P31
  9255   9253   9256   9257      9     0.00   0.00000   0 ;     HB-    C3-   O31-   P31
  9255   9253   9256   9257      9     0.00   0.00000   0 ;     HB-    C3-   O31-   P31
  9255   9253   9256   9257      9     0.00   1.60247   3 ;     HB-    C3-   O31-   P31
  9256   9253   9251   9280      9     0.00   0.00000   0 ;    O31-    C3-    C2-   O21
  9256   9253   9251   9280      9     0.00   0.00000   0 ;    O31-    C3-    C2-   O21
  9256   9253   9251   9280      9     0.00   0.00000   0 ;    O31-    C3-    C2-   O21
  9256   9253   9251   9280      9     0.00   0.00000   0 ;    O31-    C3-    C2-   O21
  9256   9253   9251   9280      9     0.00   0.00000   0 ;    O31-    C3-    C2-   O21
  9256   9257   9258   9259      9     0.00   2.51040   3 ;    O31-   P31-   O32-   C31
  9256   9257   9258   9259      9     0.00   9.62320   2 ;    O31-   P31-   O32-   C31
  9257   9258   9259   9260      9     0.00   0.00000   0 ;    P31-   O32-   C31-   H1A
  9257   9258   9259   9260      9     0.00   0.00000   0 ;    P31-   O32-   C31-   H1A
  9257   9258   9259   9260      9     0.00   0.00000   0 ;    P31-   O32-   C31-   H1A
  9257   9258   9259   9260      9     0.00   0.00000   0 ;    P31-   O32-   C31-   H1A
  9257   9258   9259   9260      9     0.00   1.60247   3 ;    P31-   O32-   C31-   H1A
  9257   9258   9259   9261      9     0.00   0.00000   0 ;    P31-   O32-   C31-   H1B
  9257   9258   9259   9261      9     0.00   0.00000   0 ;    P31-   O32-   C31-   H1B
  9257   9258   9259   9261      9     0.00   0.00000   0 ;    P31-   O32-   C31-   H1B
  9257   9258   9259   9261      9     0.00   0.00000   0 ;    P31-   O32-   C31-   H1B
  9257   9258   9259   9261      9     0.00   1.60247   3 ;    P31-   O32-   C31-   H1B
  9257   9258   9259   9262      9     0.00   0.00000   0 ;    P31-   O32-   C31-   C32
  9257   9258   9259   9262      9   180.00  -3.34720   2 ;    P31-   O32-   C31-   C32
  9258   9259   9262   9263      9     0.00   0.65270   3 ;    O32-   C31-   C32-   H2A
  9258   9259   9262   9264      9     0.00   0.65270   3 ;    O32-   C31-   C32-   H2B
  9258   9259   9262   9265      9     0.00   4.18400   3 ;    O32-   C31-   C32-   N31
  9259   9258   9257   9278      9     0.00   0.00000   0 ;    C31-   O32-   P31-   O33
  9259   9258   9257   9278      9     0.00   0.00000   0 ;    C31-   O32-   P31-   O33
  9259   9258   9257   9278      9     0.00   0.00000   0 ;    C31-   O32-   P31-   O33
  9259   9258   9257   9278      9     0.00   0.00000   0 ;    C31-   O32-   P31-   O33
  9259   9258   9257   9278      9     0.00   0.83680   2 ;    C31-   O32-   P31-   O33
  9259   9258   9257   9279      9     0.00   0.00000   0 ;    C31-   O32-   P31-   O34
  9259   9258   9257   9279      9     0.00   0.00000   0 ;    C31-   O32-   P31-   O34
  9259   9258   9257   9279      9     0.00   0.00000   0 ;    C31-   O32-   P31-   O34
  9259   9258   9257   9279      9     0.00   0.00000   0 ;    C31-   O32-   P31-   O34
  9259   9258   9257   9279      9     0.00   0.83680   2 ;    C31-   O32-   P31-   O34
  9259   9262   9265   9266      9     0.00   0.65270   3 ;    C31-   C32-   N31-   C33
  9259   9262   9265   9270      9     0.00   0.65270   3 ;    C31-   C32-   N31-   C34
  9259   9262   9265   9274      9     0.00   0.65270   3 ;    C31-   C32-   N31-   C35
  9260   9259   9262   9263      9     0.00   0.65270   3 ;    H1A-   C31-   C32-   H2A
  9260   9259   9262   9264      9     0.00   0.65270   3 ;    H1A-   C31-   C32-   H2B
  9260   9259   9262   9265      9     0.00   0.65270   3 ;    H1A-   C31-   C32-   N31
  9261   9259   9262   9263      9     0.00   0.65270   3 ;    H1B-   C31-   C32-   H2A
  9261   9259   9262   9264      9     0.00   0.65270   3 ;    H1B-   C31-   C32-   H2B
  9261   9259   9262   9265      9     0.00   0.65270   3 ;    H1B-   C31-   C32-   N31
  9262   9265   9266   9267      9     0.00   0.65270   3 ;    C32-   N31-   C33-   H3A
  9262   9265   9266   9268      9     0.00   0.65270   3 ;    C32-   N31-   C33-   H3B
  9262   9265   9266   9269      9     0.00   0.65270   3 ;    C32-   N31-   C33-   H3C
  9262   9265   9270   9271      9     0.00   0.65270   3 ;    C32-   N31-   C34-   H4A
  9262   9265   9270   9272      9     0.00   0.65270   3 ;    C32-   N31-   C34-   H4B
  9262   9265   9270   9273      9     0.00   0.65270   3 ;    C32-   N31-   C34-   H4C
  9262   9265   9274   9275      9     0.00   0.65270   3 ;    C32-   N31-   C35-   H5A
  9262   9265   9274   9276      9     0.00   0.65270   3 ;    C32-   N31-   C35-   H5B
  9262   9265   9274   9277      9     0.00   0.65270   3 ;    C32-   N31-   C35-   H5C
  9263   9262   9265   9266      9     0.00   0.65270   3 ;    H2A-   C32-   N31-   C33
  9263   9262   9265   9270      9     0.00   0.65270   3 ;    H2A-   C32-   N31-   C34
  9263   9262   9265   9274      9     0.00   0.65270   3 ;    H2A-   C32-   N31-   C35
  9264   9262   9265   9266      9     0.00   0.65270   3 ;    H2B-   C32-   N31-   C33
  9264   9262   9265   9270      9     0.00   0.65270   3 ;    H2B-   C32-   N31-   C34
  9264   9262   9265   9274      9     0.00   0.65270   3 ;    H2B-   C32-   N31-   C35
  9266   9265   9270   9271      9     0.00   0.65270   3 ;    C33-   N31-   C34-   H4A
  9266   9265   9270   9272      9     0.00   0.65270   3 ;    C33-   N31-   C34-   H4B
  9266   9265   9270   9273      9     0.00   0.65270   3 ;    C33-   N31-   C34-   H4C
  9266   9265   9274   9275      9     0.00   0.65270   3 ;    C33-   N31-   C35-   H5A
  9266   9265   9274   9276      9     0.00   0.65270   3 ;    C33-   N31-   C35-   H5B
  9266   9265   9274   9277      9     0.00   0.65270   3 ;    C33-   N31-   C35-   H5C
  9267   9266   9265   9270      9     0.00   0.65270   3 ;    H3A-   C33-   N31-   C34
  9267   9266   9265   9274      9     0.00   0.65270   3 ;    H3A-   C33-   N31-   C35
  9268   9266   9265   9270      9     0.00   0.65270   3 ;    H3B-   C33-   N31-   C34
  9268   9266   9265   9274      9     0.00   0.65270   3 ;    H3B-   C33-   N31-   C35
  9269   9266   9265   9270      9     0.00   0.65270   3 ;    H3C-   C33-   N31-   C34
  9269   9266   9265   9274      9     0.00   0.65270   3 ;    H3C-   C33-   N31-   C35
  9270   9265   9274   9275      9     0.00   0.65270   3 ;    C34-   N31-   C35-   H5A
  9270   9265   9274   9276      9     0.00   0.65270   3 ;    C34-   N31-   C35-   H5B
  9270   9265   9274   9277      9     0.00   0.65270   3 ;    C34-   N31-   C35-   H5C
  9271   9270   9265   9274      9     0.00   0.65270   3 ;    H4A-   C34-   N31-   C35
  9272   9270   9265   9274      9     0.00   0.65270   3 ;    H4B-   C34-   N31-   C35
  9273   9270   9265   9274      9     0.00   0.65270   3 ;    H4C-   C34-   N31-   C35
  9280   9281   9320   9317      9   180.00   0.00000   2 ;    O21-   C21-   C12-   C13
  9280   9281   9320   9321      9   180.00   0.00000   2 ;    O21-   C21-   C12-   H2R
  9280   9281   9320   9322      9   180.00   0.00000   2 ;    O21-   C21-   C12-   H2S
  9281   9320   9317   9314      9     0.00   0.65270   3 ;    C21-   C12-   C13-   C14
  9281   9320   9317   9318      9     0.00   0.65270   3 ;    C21-   C12-   C13-   H3R
  9281   9320   9317   9319      9     0.00   0.65270   3 ;    C21-   C12-   C13-   H3S
  9282   9281   9320   9317      9   180.00   0.00000   2 ;    O22-   C21-   C12-   C13
  9282   9281   9320   9321      9     0.00   3.34720   1 ;    O22-   C21-   C12-   H2R
  9282   9281   9320   9321      9   180.00   0.33472   3 ;    O22-   C21-   C12-   H2R
  9282   9281   9320   9322      9     0.00   3.34720   1 ;    O22-   C21-   C12-   H2S
  9282   9281   9320   9322      9   180.00   0.33472   3 ;    O22-   C21-   C12-   H2S
  9283   9284   9287   9288      9     0.00   0.62760   3 ;   H14T-  C114-  C113-  H13R
  9283   9284   9287   9289      9     0.00   0.62760   3 ;   H14T-  C114-  C113-  H13S
  9283   9284   9287   9290      9     0.00   0.66944   3 ;   H14T-  C114-  C113-  C112
  9284   9287   9290   9291      9     0.00   0.66944   3 ;   C114-  C113-  C112-  H12R
  9284   9287   9290   9292      9     0.00   0.66944   3 ;   C114-  C113-  C112-  H12S
  9284   9287   9290   9293      9     0.00   0.41840   1 ;   C114-  C113-  C112-  C111
  9284   9287   9290   9293      9     0.00   0.41840   2 ;   C114-  C113-  C112-  C111
  9284   9287   9290   9293      9     0.00   0.41840   4 ;   C114-  C113-  C112-  C111
  9284   9287   9290   9293      9     0.00   0.41840   5 ;   C114-  C113-  C112-  C111
  9284   9287   9290   9293      9     0.00   1.25520   3 ;   C114-  C113-  C112-  C111
  9285   9284   9287   9288      9     0.00   0.62760   3 ;   H14R-  C114-  C113-  H13R
  9285   9284   9287   9289      9     0.00   0.62760   3 ;   H14R-  C114-  C113-  H13S
  9285   9284   9287   9290      9     0.00   0.66944   3 ;   H14R-  C114-  C113-  C112
  9286   9284   9287   9288      9     0.00   0.62760   3 ;   H14S-  C114-  C113-  H13R
  9286   9284   9287   9289      9     0.00   0.62760   3 ;   H14S-  C114-  C113-  H13S
  9286   9284   9287   9290      9     0.00   0.66944   3 ;   H14S-  C114-  C113-  C112
  9287   9290   9293   9294      9     0.00   0.66944   3 ;   C113-  C112-  C111-  H11R
  9287   9290   9293   9295      9     0.00   0.66944   3 ;   C113-  C112-  C111-  H11S
  9287   9290   9293   9296      9     0.00   0.41840   1 ;   C113-  C112-  C111-  C110
  9287   9290   9293   9296      9     0.00   0.41840   2 ;   C113-  C112-  C111-  C110
  9287   9290   9293   9296      9     0.00   0.41840   4 ;   C113-  C112-  C111-  C110
  9287   9290   9293   9296      9     0.00   0.41840   5 ;   C113-  C112-  C111-  C110
  9287   9290   9293   9296      9     0.00   1.25520   3 ;   C113-  C112-  C111-  C110
  9288   9287   9290   9291      9     0.00   0.62760   3 ;   H13R-  C113-  C112-  H12R
  9288   9287   9290   9292      9     0.00   0.62760   3 ;   H13R-  C113-  C112-  H12S
  9288   9287   9290   9293      9     0.00   0.66944   3 ;   H13R-  C113-  C112-  C111
  9289   9287   9290   9291      9     0.00   0.62760   3 ;   H13S-  C113-  C112-  H12R
  9289   9287   9290   9292      9     0.00   0.62760   3 ;   H13S-  C113-  C112-  H12S
  9289   9287   9290   9293      9     0.00   0.66944   3 ;   H13S-  C113-  C112-  C111
  9290   9293   9296   9297      9     0.00   0.66944   3 ;   C112-  C111-  C110-  H10R
  9290   9293   9296   9298      9     0.00   0.66944   3 ;   C112-  C111-  C110-  H10S
  9290   9293   9296   9299      9     0.00   0.41840   1 ;   C112-  C111-  C110-   C19
  9290   9293   9296   9299      9     0.00   0.41840   2 ;   C112-  C111-  C110-   C19
  9290   9293   9296   9299      9     0.00   0.41840   4 ;   C112-  C111-  C110-   C19
  9290   9293   9296   9299      9     0.00   0.41840   5 ;   C112-  C111-  C110-   C19
  9290   9293   9296   9299      9     0.00   1.25520   3 ;   C112-  C111-  C110-   C19
  9291   9290   9293   9294      9     0.00   0.62760   3 ;   H12R-  C112-  C111-  H11R
  9291   9290   9293   9295      9     0.00   0.62760   3 ;   H12R-  C112-  C111-  H11S
  9291   9290   9293   9296      9     0.00   0.66944   3 ;   H12R-  C112-  C111-  C110
  9292   9290   9293   9294      9     0.00   0.62760   3 ;   H12S-  C112-  C111-  H11R
  9292   9290   9293   9295      9     0.00   0.62760   3 ;   H12S-  C112-  C111-  H11S
  9292   9290   9293   9296      9     0.00   0.66944   3 ;   H12S-  C112-  C111-  C110
  9293   9296   9299   9300      9     0.00   0.66944   3 ;   C111-  C110-   C19-   H9R
  9293   9296   9299   9301      9     0.00   0.66944   3 ;   C111-  C110-   C19-   H9S
  9293   9296   9299   9302      9     0.00   0.41840   1 ;   C111-  C110-   C19-   C18
  9293   9296   9299   9302      9     0.00   0.41840   2 ;   C111-  C110-   C19-   C18
  9293   9296   9299   9302      9     0.00   0.41840   4 ;   C111-  C110-   C19-   C18
  9293   9296   9299   9302      9     0.00   0.41840   5 ;   C111-  C110-   C19-   C18
  9293   9296   9299   9302      9     0.00   1.25520   3 ;   C111-  C110-   C19-   C18
  9294   9293   9296   9297      9     0.00   0.62760   3 ;   H11R-  C111-  C110-  H10R
  9294   9293   9296   9298      9     0.00   0.62760   3 ;   H11R-  C111-  C110-  H10S
  9294   9293   9296   9299      9     0.00   0.66944   3 ;   H11R-  C111-  C110-   C19
  9295   9293   9296   9297      9     0.00   0.62760   3 ;   H11S-  C111-  C110-  H10R
  9295   9293   9296   9298      9     0.00   0.62760   3 ;   H11S-  C111-  C110-  H10S
  9295   9293   9296   9299      9     0.00   0.66944   3 ;   H11S-  C111-  C110-   C19
  9296   9299   9302   9303      9     0.00   0.66944   3 ;   C110-   C19-   C18-   H8R
  9296   9299   9302   9304      9     0.00   0.66944   3 ;   C110-   C19-   C18-   H8S
  9296   9299   9302   9305      9     0.00   0.41840   1 ;   C110-   C19-   C18-   C17
  9296   9299   9302   9305      9     0.00   0.41840   2 ;   C110-   C19-   C18-   C17
  9296   9299   9302   9305      9     0.00   0.41840   4 ;   C110-   C19-   C18-   C17
  9296   9299   9302   9305      9     0.00   0.41840   5 ;   C110-   C19-   C18-   C17
  9296   9299   9302   9305      9     0.00   1.25520   3 ;   C110-   C19-   C18-   C17
  9297   9296   9299   9300      9     0.00   0.62760   3 ;   H10R-  C110-   C19-   H9R
  9297   9296   9299   9301      9     0.00   0.62760   3 ;   H10R-  C110-   C19-   H9S
  9297   9296   9299   9302      9     0.00   0.66944   3 ;   H10R-  C110-   C19-   C18
  9298   9296   9299   9300      9     0.00   0.62760   3 ;   H10S-  C110-   C19-   H9R
  9298   9296   9299   9301      9     0.00   0.62760   3 ;   H10S-  C110-   C19-   H9S
  9298   9296   9299   9302      9     0.00   0.66944   3 ;   H10S-  C110-   C19-   C18
  9299   9302   9305   9306      9     0.00   0.66944   3 ;    C19-   C18-   C17-   H7R
  9299   9302   9305   9307      9     0.00   0.66944   3 ;    C19-   C18-   C17-   H7S
  9299   9302   9305   9308      9     0.00   0.41840   1 ;    C19-   C18-   C17-   C16
  9299   9302   9305   9308      9     0.00   0.41840   2 ;    C19-   C18-   C17-   C16
  9299   9302   9305   9308      9     0.00   0.41840   4 ;    C19-   C18-   C17-   C16
  9299   9302   9305   9308      9     0.00   0.41840   5 ;    C19-   C18-   C17-   C16
  9299   9302   9305   9308      9     0.00   1.25520   3 ;    C19-   C18-   C17-   C16
  9300   9299   9302   9303      9     0.00   0.62760   3 ;    H9R-   C19-   C18-   H8R
  9300   9299   9302   9304      9     0.00   0.62760   3 ;    H9R-   C19-   C18-   H8S
  9300   9299   9302   9305      9     0.00   0.66944   3 ;    H9R-   C19-   C18-   C17
  9301   9299   9302   9303      9     0.00   0.62760   3 ;    H9S-   C19-   C18-   H8R
  9301   9299   9302   9304      9     0.00   0.62760   3 ;    H9S-   C19-   C18-   H8S
  9301   9299   9302   9305      9     0.00   0.66944   3 ;    H9S-   C19-   C18-   C17
  9302   9305   9308   9309      9     0.00   0.66944   3 ;    C18-   C17-   C16-   H6R
  9302   9305   9308   9310      9     0.00   0.66944   3 ;    C18-   C17-   C16-   H6S
  9302   9305   9308   9311      9     0.00   0.41840   1 ;    C18-   C17-   C16-   C15
  9302   9305   9308   9311      9     0.00   0.41840   2 ;    C18-   C17-   C16-   C15
  9302   9305   9308   9311      9     0.00   0.41840   4 ;    C18-   C17-   C16-   C15
  9302   9305   9308   9311      9     0.00   0.41840   5 ;    C18-   C17-   C16-   C15
  9302   9305   9308   9311      9     0.00   1.25520   3 ;    C18-   C17-   C16-   C15
  9303   9302   9305   9306      9     0.00   0.62760   3 ;    H8R-   C18-   C17-   H7R
  9303   9302   9305   9307      9     0.00   0.62760   3 ;    H8R-   C18-   C17-   H7S
  9303   9302   9305   9308      9     0.00   0.66944   3 ;    H8R-   C18-   C17-   C16
  9304   9302   9305   9306      9     0.00   0.62760   3 ;    H8S-   C18-   C17-   H7R
  9304   9302   9305   9307      9     0.00   0.62760   3 ;    H8S-   C18-   C17-   H7S
  9304   9302   9305   9308      9     0.00   0.66944   3 ;    H8S-   C18-   C17-   C16
  9305   9308   9311   9312      9     0.00   0.66944   3 ;    C17-   C16-   C15-   H5R
  9305   9308   9311   9313      9     0.00   0.66944   3 ;    C17-   C16-   C15-   H5S
  9305   9308   9311   9314      9     0.00   0.41840   1 ;    C17-   C16-   C15-   C14
  9305   9308   9311   9314      9     0.00   0.41840   2 ;    C17-   C16-   C15-   C14
  9305   9308   9311   9314      9     0.00   0.41840   4 ;    C17-   C16-   C15-   C14
  9305   9308   9311   9314      9     0.00   0.41840   5 ;    C17-   C16-   C15-   C14
  9305   9308   9311   9314      9     0.00   1.25520   3 ;    C17-   C16-   C15-   C14
  9306   9305   9308   9309      9     0.00   0.62760   3 ;    H7R-   C17-   C16-   H6R
  9306   9305   9308   9310      9     0.00   0.62760   3 ;    H7R-   C17-   C16-   H6S
  9306   9305   9308   9311      9     0.00   0.66944   3 ;    H7R-   C17-   C16-   C15
  9307   9305   9308   9309      9     0.00   0.62760   3 ;    H7S-   C17-   C16-   H6R
  9307   9305   9308   9310      9     0.00   0.62760   3 ;    H7S-   C17-   C16-   H6S
  9307   9305   9308   9311      9     0.00   0.66944   3 ;    H7S-   C17-   C16-   C15
  9308   9311   9314   9315      9     0.00   0.66944   3 ;    C16-   C15-   C14-   H4R
  9308   9311   9314   9316      9     0.00   0.66944   3 ;    C16-   C15-   C14-   H4S
  9308   9311   9314   9317      9     0.00   0.41840   1 ;    C16-   C15-   C14-   C13
  9308   9311   9314   9317      9     0.00   0.41840   2 ;    C16-   C15-   C14-   C13
  9308   9311   9314   9317      9     0.00   0.41840   4 ;    C16-   C15-   C14-   C13
  9308   9311   9314   9317      9     0.00   0.41840   5 ;    C16-   C15-   C14-   C13
  9308   9311   9314   9317      9     0.00   1.25520   3 ;    C16-   C15-   C14-   C13
  9309   9308   9311   9312      9     0.00   0.62760   3 ;    H6R-   C16-   C15-   H5R
  9309   9308   9311   9313      9     0.00   0.62760   3 ;    H6R-   C16-   C15-   H5S
  9309   9308   9311   9314      9     0.00   0.66944   3 ;    H6R-   C16-   C15-   C14
  9310   9308   9311   9312      9     0.00   0.62760   3 ;    H6S-   C16-   C15-   H5R
  9310   9308   9311   9313      9     0.00   0.62760   3 ;    H6S-   C16-   C15-   H5S
  9310   9308   9311   9314      9     0.00   0.66944   3 ;    H6S-   C16-   C15-   C14
  9311   9314   9317   9318      9     0.00   0.66944   3 ;    C15-   C14-   C13-   H3R
  9311   9314   9317   9319      9     0.00   0.66944   3 ;    C15-   C14-   C13-   H3S
  9311   9314   9317   9320      9     0.00   0.41840   1 ;    C15-   C14-   C13-   C12
  9311   9314   9317   9320      9     0.00   0.41840   2 ;    C15-   C14-   C13-   C12
  9311   9314   9317   9320      9     0.00   0.41840   4 ;    C15-   C14-   C13-   C12
  9311   9314   9317   9320      9     0.00   0.41840   5 ;    C15-   C14-   C13-   C12
  9311   9314   9317   9320      9     0.00   1.25520   3 ;    C15-   C14-   C13-   C12
  9312   9311   9314   9315      9     0.00   0.62760   3 ;    H5R-   C15-   C14-   H4R
  9312   9311   9314   9316      9     0.00   0.62760   3 ;    H5R-   C15-   C14-   H4S
  9312   9311   9314   9317      9     0.00   0.66944   3 ;    H5R-   C15-   C14-   C13
  9313   9311   9314   9315      9     0.00   0.62760   3 ;    H5S-   C15-   C14-   H4R
  9313   9311   9314   9316      9     0.00   0.62760   3 ;    H5S-   C15-   C14-   H4S
  9313   9311   9314   9317      9     0.00   0.66944   3 ;    H5S-   C15-   C14-   C13
  9314   9317   9320   9321      9     0.00   0.66944   3 ;    C14-   C13-   C12-   H2R
  9314   9317   9320   9322      9     0.00   0.66944   3 ;    C14-   C13-   C12-   H2S
  9315   9314   9317   9318      9     0.00   0.62760   3 ;    H4R-   C14-   C13-   H3R
  9315   9314   9317   9319      9     0.00   0.62760   3 ;    H4R-   C14-   C13-   H3S
  9315   9314   9317   9320      9     0.00   0.66944   3 ;    H4R-   C14-   C13-   C12
  9316   9314   9317   9318      9     0.00   0.62760   3 ;    H4S-   C14-   C13-   H3R
  9316   9314   9317   9319      9     0.00   0.62760   3 ;    H4S-   C14-   C13-   H3S
  9316   9314   9317   9320      9     0.00   0.66944   3 ;    H4S-   C14-   C13-   C12
  9318   9317   9320   9321      9     0.00   0.62760   3 ;    H3R-   C13-   C12-   H2R
  9318   9317   9320   9322      9     0.00   0.62760   3 ;    H3R-   C13-   C12-   H2S
  9319   9317   9320   9321      9     0.00   0.62760   3 ;    H3S-   C13-   C12-   H2R
  9319   9317   9320   9322      9     0.00   0.62760   3 ;    H3S-   C13-   C12-   H2S
  9323   9324   9327   9328      9     0.00   0.62760   3 ;   H14T-  C114-  C113-  H13R
  9323   9324   9327   9329      9     0.00   0.62760   3 ;   H14T-  C114-  C113-  H13S
  9323   9324   9327   9330      9     0.00   0.66944   3 ;   H14T-  C114-  C113-  C112
  9324   9327   9330   9331      9     0.00   0.66944   3 ;   C114-  C113-  C112-  H12R
  9324   9327   9330   9332      9     0.00   0.66944   3 ;   C114-  C113-  C112-  H12S
  9324   9327   9330   9333      9     0.00   0.41840   1 ;   C114-  C113-  C112-  C111
  9324   9327   9330   9333      9     0.00   0.41840   2 ;   C114-  C113-  C112-  C111
  9324   9327   9330   9333      9     0.00   0.41840   4 ;   C114-  C113-  C112-  C111
  9324   9327   9330   9333      9     0.00   0.41840   5 ;   C114-  C113-  C112-  C111
  9324   9327   9330   9333      9     0.00   1.25520   3 ;   C114-  C113-  C112-  C111
  9325   9324   9327   9328      9     0.00   0.62760   3 ;   H14R-  C114-  C113-  H13R
  9325   9324   9327   9329      9     0.00   0.62760   3 ;   H14R-  C114-  C113-  H13S
  9325   9324   9327   9330      9     0.00   0.66944   3 ;   H14R-  C114-  C113-  C112
  9326   9324   9327   9328      9     0.00   0.62760   3 ;   H14S-  C114-  C113-  H13R
  9326   9324   9327   9329      9     0.00   0.62760   3 ;   H14S-  C114-  C113-  H13S
  9326   9324   9327   9330      9     0.00   0.66944   3 ;   H14S-  C114-  C113-  C112
  9327   9330   9333   9334      9     0.00   0.66944   3 ;   C113-  C112-  C111-  H11R
  9327   9330   9333   9335      9     0.00   0.66944   3 ;   C113-  C112-  C111-  H11S
  9327   9330   9333   9336      9     0.00   0.41840   1 ;   C113-  C112-  C111-  C110
  9327   9330   9333   9336      9     0.00   0.41840   2 ;   C113-  C112-  C111-  C110
  9327   9330   9333   9336      9     0.00   0.41840   4 ;   C113-  C112-  C111-  C110
  9327   9330   9333   9336      9     0.00   0.41840   5 ;   C113-  C112-  C111-  C110
  9327   9330   9333   9336      9     0.00   1.25520   3 ;   C113-  C112-  C111-  C110
  9328   9327   9330   9331      9     0.00   0.62760   3 ;   H13R-  C113-  C112-  H12R
  9328   9327   9330   9332      9     0.00   0.62760   3 ;   H13R-  C113-  C112-  H12S
  9328   9327   9330   9333      9     0.00   0.66944   3 ;   H13R-  C113-  C112-  C111
  9329   9327   9330   9331      9     0.00   0.62760   3 ;   H13S-  C113-  C112-  H12R
  9329   9327   9330   9332      9     0.00   0.62760   3 ;   H13S-  C113-  C112-  H12S
  9329   9327   9330   9333      9     0.00   0.66944   3 ;   H13S-  C113-  C112-  C111
  9330   9333   9336   9337      9     0.00   0.66944   3 ;   C112-  C111-  C110-  H10R
  9330   9333   9336   9338      9     0.00   0.66944   3 ;   C112-  C111-  C110-  H10S
  9330   9333   9336   9339      9     0.00   0.41840   1 ;   C112-  C111-  C110-   C19
  9330   9333   9336   9339      9     0.00   0.41840   2 ;   C112-  C111-  C110-   C19
  9330   9333   9336   9339      9     0.00   0.41840   4 ;   C112-  C111-  C110-   C19
  9330   9333   9336   9339      9     0.00   0.41840   5 ;   C112-  C111-  C110-   C19
  9330   9333   9336   9339      9     0.00   1.25520   3 ;   C112-  C111-  C110-   C19
  9331   9330   9333   9334      9     0.00   0.62760   3 ;   H12R-  C112-  C111-  H11R
  9331   9330   9333   9335      9     0.00   0.62760   3 ;   H12R-  C112-  C111-  H11S
  9331   9330   9333   9336      9     0.00   0.66944   3 ;   H12R-  C112-  C111-  C110
  9332   9330   9333   9334      9     0.00   0.62760   3 ;   H12S-  C112-  C111-  H11R
  9332   9330   9333   9335      9     0.00   0.62760   3 ;   H12S-  C112-  C111-  H11S
  9332   9330   9333   9336      9     0.00   0.66944   3 ;   H12S-  C112-  C111-  C110
  9333   9336   9339   9340      9     0.00   0.66944   3 ;   C111-  C110-   C19-   H9R
  9333   9336   9339   9341      9     0.00   0.66944   3 ;   C111-  C110-   C19-   H9S
  9333   9336   9339   9342      9     0.00   0.41840   1 ;   C111-  C110-   C19-   C18
  9333   9336   9339   9342      9     0.00   0.41840   2 ;   C111-  C110-   C19-   C18
  9333   9336   9339   9342      9     0.00   0.41840   4 ;   C111-  C110-   C19-   C18
  9333   9336   9339   9342      9     0.00   0.41840   5 ;   C111-  C110-   C19-   C18
  9333   9336   9339   9342      9     0.00   1.25520   3 ;   C111-  C110-   C19-   C18
  9334   9333   9336   9337      9     0.00   0.62760   3 ;   H11R-  C111-  C110-  H10R
  9334   9333   9336   9338      9     0.00   0.62760   3 ;   H11R-  C111-  C110-  H10S
  9334   9333   9336   9339      9     0.00   0.66944   3 ;   H11R-  C111-  C110-   C19
  9335   9333   9336   9337      9     0.00   0.62760   3 ;   H11S-  C111-  C110-  H10R
  9335   9333   9336   9338      9     0.00   0.62760   3 ;   H11S-  C111-  C110-  H10S
  9335   9333   9336   9339      9     0.00   0.66944   3 ;   H11S-  C111-  C110-   C19
  9336   9339   9342   9343      9     0.00   0.66944   3 ;   C110-   C19-   C18-   H8R
  9336   9339   9342   9344      9     0.00   0.66944   3 ;   C110-   C19-   C18-   H8S
  9336   9339   9342   9345      9     0.00   0.41840   1 ;   C110-   C19-   C18-   C17
  9336   9339   9342   9345      9     0.00   0.41840   2 ;   C110-   C19-   C18-   C17
  9336   9339   9342   9345      9     0.00   0.41840   4 ;   C110-   C19-   C18-   C17
  9336   9339   9342   9345      9     0.00   0.41840   5 ;   C110-   C19-   C18-   C17
  9336   9339   9342   9345      9     0.00   1.25520   3 ;   C110-   C19-   C18-   C17
  9337   9336   9339   9340      9     0.00   0.62760   3 ;   H10R-  C110-   C19-   H9R
  9337   9336   9339   9341      9     0.00   0.62760   3 ;   H10R-  C110-   C19-   H9S
  9337   9336   9339   9342      9     0.00   0.66944   3 ;   H10R-  C110-   C19-   C18
  9338   9336   9339   9340      9     0.00   0.62760   3 ;   H10S-  C110-   C19-   H9R
  9338   9336   9339   9341      9     0.00   0.62760   3 ;   H10S-  C110-   C19-   H9S
  9338   9336   9339   9342      9     0.00   0.66944   3 ;   H10S-  C110-   C19-   C18
  9339   9342   9345   9346      9     0.00   0.66944   3 ;    C19-   C18-   C17-   H7R
  9339   9342   9345   9347      9     0.00   0.66944   3 ;    C19-   C18-   C17-   H7S
  9339   9342   9345   9348      9     0.00   0.41840   1 ;    C19-   C18-   C17-   C16
  9339   9342   9345   9348      9     0.00   0.41840   2 ;    C19-   C18-   C17-   C16
  9339   9342   9345   9348      9     0.00   0.41840   4 ;    C19-   C18-   C17-   C16
  9339   9342   9345   9348      9     0.00   0.41840   5 ;    C19-   C18-   C17-   C16
  9339   9342   9345   9348      9     0.00   1.25520   3 ;    C19-   C18-   C17-   C16
  9340   9339   9342   9343      9     0.00   0.62760   3 ;    H9R-   C19-   C18-   H8R
  9340   9339   9342   9344      9     0.00   0.62760   3 ;    H9R-   C19-   C18-   H8S
  9340   9339   9342   9345      9     0.00   0.66944   3 ;    H9R-   C19-   C18-   C17
  9341   9339   9342   9343      9     0.00   0.62760   3 ;    H9S-   C19-   C18-   H8R
  9341   9339   9342   9344      9     0.00   0.62760   3 ;    H9S-   C19-   C18-   H8S
  9341   9339   9342   9345      9     0.00   0.66944   3 ;    H9S-   C19-   C18-   C17
  9342   9345   9348   9349      9     0.00   0.66944   3 ;    C18-   C17-   C16-   H6R
  9342   9345   9348   9350      9     0.00   0.66944   3 ;    C18-   C17-   C16-   H6S
  9342   9345   9348   9351      9     0.00   0.41840   1 ;    C18-   C17-   C16-   C15
  9342   9345   9348   9351      9     0.00   0.41840   2 ;    C18-   C17-   C16-   C15
  9342   9345   9348   9351      9     0.00   0.41840   4 ;    C18-   C17-   C16-   C15
  9342   9345   9348   9351      9     0.00   0.41840   5 ;    C18-   C17-   C16-   C15
  9342   9345   9348   9351      9     0.00   1.25520   3 ;    C18-   C17-   C16-   C15
  9343   9342   9345   9346      9     0.00   0.62760   3 ;    H8R-   C18-   C17-   H7R
  9343   9342   9345   9347      9     0.00   0.62760   3 ;    H8R-   C18-   C17-   H7S
  9343   9342   9345   9348      9     0.00   0.66944   3 ;    H8R-   C18-   C17-   C16
  9344   9342   9345   9346      9     0.00   0.62760   3 ;    H8S-   C18-   C17-   H7R
  9344   9342   9345   9347      9     0.00   0.62760   3 ;    H8S-   C18-   C17-   H7S
  9344   9342   9345   9348      9     0.00   0.66944   3 ;    H8S-   C18-   C17-   C16
  9345   9348   9351   9352      9     0.00   0.66944   3 ;    C17-   C16-   C15-   H5R
  9345   9348   9351   9353      9     0.00   0.66944   3 ;    C17-   C16-   C15-   H5S
  9345   9348   9351   9354      9     0.00   0.41840   1 ;    C17-   C16-   C15-   C14
  9345   9348   9351   9354      9     0.00   0.41840   2 ;    C17-   C16-   C15-   C14
  9345   9348   9351   9354      9     0.00   0.41840   4 ;    C17-   C16-   C15-   C14
  9345   9348   9351   9354      9     0.00   0.41840   5 ;    C17-   C16-   C15-   C14
  9345   9348   9351   9354      9     0.00   1.25520   3 ;    C17-   C16-   C15-   C14
  9346   9345   9348   9349      9     0.00   0.62760   3 ;    H7R-   C17-   C16-   H6R
  9346   9345   9348   9350      9     0.00   0.62760   3 ;    H7R-   C17-   C16-   H6S
  9346   9345   9348   9351      9     0.00   0.66944   3 ;    H7R-   C17-   C16-   C15
  9347   9345   9348   9349      9     0.00   0.62760   3 ;    H7S-   C17-   C16-   H6R
  9347   9345   9348   9350      9     0.00   0.62760   3 ;    H7S-   C17-   C16-   H6S
  9347   9345   9348   9351      9     0.00   0.66944   3 ;    H7S-   C17-   C16-   C15
  9348   9351   9354   9355      9     0.00   0.66944   3 ;    C16-   C15-   C14-   H4R
  9348   9351   9354   9356      9     0.00   0.66944   3 ;    C16-   C15-   C14-   H4S
  9348   9351   9354   9357      9     0.00   0.41840   1 ;    C16-   C15-   C14-   C13
  9348   9351   9354   9357      9     0.00   0.41840   2 ;    C16-   C15-   C14-   C13
  9348   9351   9354   9357      9     0.00   0.41840   4 ;    C16-   C15-   C14-   C13
  9348   9351   9354   9357      9     0.00   0.41840   5 ;    C16-   C15-   C14-   C13
  9348   9351   9354   9357      9     0.00   1.25520   3 ;    C16-   C15-   C14-   C13
  9349   9348   9351   9352      9     0.00   0.62760   3 ;    H6R-   C16-   C15-   H5R
  9349   9348   9351   9353      9     0.00   0.62760   3 ;    H6R-   C16-   C15-   H5S
  9349   9348   9351   9354      9     0.00   0.66944   3 ;    H6R-   C16-   C15-   C14
  9350   9348   9351   9352      9     0.00   0.62760   3 ;    H6S-   C16-   C15-   H5R
  9350   9348   9351   9353      9     0.00   0.62760   3 ;    H6S-   C16-   C15-   H5S
  9350   9348   9351   9354      9     0.00   0.66944   3 ;    H6S-   C16-   C15-   C14
  9351   9354   9357   9358      9     0.00   0.66944   3 ;    C15-   C14-   C13-   H3R
  9351   9354   9357   9359      9     0.00   0.66944   3 ;    C15-   C14-   C13-   H3S
  9351   9354   9357   9360      9     0.00   0.41840   1 ;    C15-   C14-   C13-   C12
  9351   9354   9357   9360      9     0.00   0.41840   2 ;    C15-   C14-   C13-   C12
  9351   9354   9357   9360      9     0.00   0.41840   4 ;    C15-   C14-   C13-   C12
  9351   9354   9357   9360      9     0.00   0.41840   5 ;    C15-   C14-   C13-   C12
  9351   9354   9357   9360      9     0.00   1.25520   3 ;    C15-   C14-   C13-   C12
  9352   9351   9354   9355      9     0.00   0.62760   3 ;    H5R-   C15-   C14-   H4R
  9352   9351   9354   9356      9     0.00   0.62760   3 ;    H5R-   C15-   C14-   H4S
  9352   9351   9354   9357      9     0.00   0.66944   3 ;    H5R-   C15-   C14-   C13
  9353   9351   9354   9355      9     0.00   0.62760   3 ;    H5S-   C15-   C14-   H4R
  9353   9351   9354   9356      9     0.00   0.62760   3 ;    H5S-   C15-   C14-   H4S
  9353   9351   9354   9357      9     0.00   0.66944   3 ;    H5S-   C15-   C14-   C13
  9354   9357   9360   9361      9     0.00   0.66944   3 ;    C14-   C13-   C12-   H2R
  9354   9357   9360   9362      9     0.00   0.66944   3 ;    C14-   C13-   C12-   H2S
  9354   9357   9360   9363      9     0.00   0.65270   3 ;    C14-   C13-   C12-   C11
  9355   9354   9357   9358      9     0.00   0.62760   3 ;    H4R-   C14-   C13-   H3R
  9355   9354   9357   9359      9     0.00   0.62760   3 ;    H4R-   C14-   C13-   H3S
  9355   9354   9357   9360      9     0.00   0.66944   3 ;    H4R-   C14-   C13-   C12
  9356   9354   9357   9358      9     0.00   0.62760   3 ;    H4S-   C14-   C13-   H3R
  9356   9354   9357   9359      9     0.00   0.62760   3 ;    H4S-   C14-   C13-   H3S
  9356   9354   9357   9360      9     0.00   0.66944   3 ;    H4S-   C14-   C13-   C12
  9357   9360   9363   9364      9   180.00   0.00000   2 ;    C13-   C12-   C11-   O12
  9357   9360   9363   9365      9   180.00   0.00000   2 ;    C13-   C12-   C11-   O11
  9358   9357   9360   9361      9     0.00   0.62760   3 ;    H3R-   C13-   C12-   H2R
  9358   9357   9360   9362      9     0.00   0.62760   3 ;    H3R-   C13-   C12-   H2S
  9358   9357   9360   9363      9     0.00   0.65270   3 ;    H3R-   C13-   C12-   C11
  9359   9357   9360   9361      9     0.00   0.62760   3 ;    H3S-   C13-   C12-   H2R
  9359   9357   9360   9362      9     0.00   0.62760   3 ;    H3S-   C13-   C12-   H2S
  9359   9357   9360   9363      9     0.00   0.65270   3 ;    H3S-   C13-   C12-   C11
  9360   9363   9365   9366      9   180.00  11.29680   2 ;    C12-   C11-   O11-    C1
  9361   9360   9363   9364      9     0.00   3.34720   1 ;    H2R-   C12-   C11-   O12
  9361   9360   9363   9364      9   180.00   0.33472   3 ;    H2R-   C12-   C11-   O12
  9361   9360   9363   9365      9   180.00   0.00000   2 ;    H2R-   C12-   C11-   O11
  9362   9360   9363   9364      9     0.00   3.34720   1 ;    H2S-   C12-   C11-   O12
  9362   9360   9363   9364      9   180.00   0.33472   3 ;    H2S-   C12-   C11-   O12
  9362   9360   9363   9365      9   180.00   0.00000   2 ;    H2S-   C12-   C11-   O11
  9363   9365   9366   9367      9     0.00   1.60247   3 ;    C11-   O11-    C1-    HR
  9363   9365   9366   9368      9     0.00   1.60247   3 ;    C11-   O11-    C1-    HS
  9363   9365   9366   9369      9     0.00  -0.41840   1 ;    C11-   O11-    C1-    C2
  9364   9363   9365   9366      9   180.00   5.85760   1 ;    O12-   C11-   O11-    C1
  9364   9363   9365   9366      9   180.00  11.29680   2 ;    O12-   C11-   O11-    C1
  9365   9366   9369   9370      9     0.00   0.00000   0 ;    O11-    C1-    C2-    HX
  9365   9366   9369   9370      9     0.00   1.04600   1 ;    O11-    C1-    C2-    HX
  9365   9366   9369   9371      9     0.00   0.00000   0 ;    O11-    C1-    C2-    C3
  9365   9366   9369   9371      9     0.00   0.00000   0 ;    O11-    C1-    C2-    C3
  9365   9366   9369   9371      9     0.00   0.00000   0 ;    O11-    C1-    C2-    C3
  9365   9366   9369   9371      9     0.00   0.00000   0 ;    O11-    C1-    C2-    C3
  9365   9366   9369   9371      9     0.00   0.00000   0 ;    O11-    C1-    C2-    C3
  9365   9366   9369   9398      9     0.00   1.25520   2 ;    O11-    C1-    C2-   O21
  9365   9366   9369   9398      9     0.00   4.18400   3 ;    O11-    C1-    C2-   O21
  9365   9366   9369   9398      9   180.00  -0.41840   1 ;    O11-    C1-    C2-   O21
  9366   9369   9371   9372      9     0.00   0.65270   3 ;     C1-    C2-    C3-    HA
  9366   9369   9371   9373      9     0.00   0.65270   3 ;     C1-    C2-    C3-    HB
  9366   9369   9371   9374      9   180.00   3.34720   1 ;     C1-    C2-    C3-   O31
  9366   9369   9398   9399      9     0.00  -0.41840   1 ;     C1-    C2-   O21-   C21
  9367   9366   9369   9370      9     0.00   0.65270   3 ;     HR-    C1-    C2-    HX
  9367   9366   9369   9371      9     0.00   0.65270   3 ;     HR-    C1-    C2-    C3
  9367   9366   9369   9398      9     0.00   0.00000   0 ;     HR-    C1-    C2-   O21
  9367   9366   9369   9398      9     0.00   1.04600   1 ;     HR-    C1-    C2-   O21
  9368   9366   9369   9370      9     0.00   0.65270   3 ;     HS-    C1-    C2-    HX
  9368   9366   9369   9371      9     0.00   0.65270   3 ;     HS-    C1-    C2-    C3
  9368   9366   9369   9398      9     0.00   0.00000   0 ;     HS-    C1-    C2-   O21
  9368   9366   9369   9398      9     0.00   1.04600   1 ;     HS-    C1-    C2-   O21
  9369   9371   9374   9375      9     0.00   0.00000   0 ;     C2-    C3-   O31-   P31
  9369   9371   9374   9375      9   180.00  -3.34720   2 ;     C2-    C3-   O31-   P31
  9369   9398   9399   9400      9   180.00   5.85760   1 ;     C2-   O21-   C21-   O22
  9369   9398   9399   9400      9   180.00  11.29680   2 ;     C2-   O21-   C21-   O22
  9369   9398   9399   9438      9   180.00  11.29680   2 ;     C2-   O21-   C21-   C12
  9370   9369   9371   9372      9     0.00   0.65270   3 ;     HX-    C2-    C3-    HA
  9370   9369   9371   9373      9     0.00   0.65270   3 ;     HX-    C2-    C3-    HB
  9370   9369   9371   9374      9     0.00   0.00000   0 ;     HX-    C2-    C3-   O31
  9370   9369   9371   9374      9     0.00   1.04600   1 ;     HX-    C2-    C3-   O31
  9370   9369   9398   9399      9     0.00   1.60247   3 ;     HX-    C2-   O21-   C21
  9371   9369   9398   9399      9     0.00  -0.41840   1 ;     C3-    C2-   O21-   C21
  9371   9374   9375   9376      9     0.00   2.51040   3 ;     C3-   O31-   P31-   O32
  9371   9374   9375   9376      9     0.00   9.62320   2 ;     C3-   O31-   P31-   O32
  9371   9374   9375   9396      9     0.00   0.00000   0 ;     C3-   O31-   P31-   O33
  9371   9374   9375   9396      9     0.00   0.00000   0 ;     C3-   O31-   P31-   O33
  9371   9374   9375   9396      9     0.00   0.00000   0 ;     C3-   O31-   P31-   O33
  9371   9374   9375   9396      9     0.00   0.00000   0 ;     C3-   O31-   P31-   O33
  9371   9374   9375   9396      9     0.00   0.83680   2 ;     C3-   O31-   P31-   O33
  9371   9374   9375   9397      9     0.00   0.00000   0 ;     C3-   O31-   P31-   O34
  9371   9374   9375   9397      9     0.00   0.00000   0 ;     C3-   O31-   P31-   O34
  9371   9374   9375   9397      9     0.00   0.00000   0 ;     C3-   O31-   P31-   O34
  9371   9374   9375   9397      9     0.00   0.00000   0 ;     C3-   O31-   P31-   O34
  9371   9374   9375   9397      9     0.00   0.83680   2 ;     C3-   O31-   P31-   O34
  9372   9371   9369   9398      9     0.00   0.00000   0 ;     HA-    C3-    C2-   O21
  9372   9371   9369   9398      9     0.00   1.04600   1 ;     HA-    C3-    C2-   O21
  9372   9371   9374   9375      9     0.00   0.00000   0 ;     HA-    C3-   O31-   P31
  9372   9371   9374   9375      9     0.00   0.00000   0 ;     HA-    C3-   O31-   P31
  9372   9371   9374   9375      9     0.00   0.00000   0 ;     HA-    C3-   O31-   P31
  9372   9371   9374   9375      9     0.00   0.00000   0 ;     HA-    C3-   O31-   P31
  9372   9371   9374   9375      9     0.00   1.60247   3 ;     HA-    C3-   O31-   P31
  9373   9371   9369   9398      9     0.00   0.00000   0 ;     HB-    C3-    C2-   O21
  9373   9371   9369   9398      9     0.00   1.04600   1 ;     HB-    C3-    C2-   O21
  9373   9371   9374   9375      9     0.00   0.00000   0 ;     HB-    C3-   O31-   P31
  9373   9371   9374   9375      9     0.00   0.00000   0 ;     HB-    C3-   O31-   P31
  9373   9371   9374   9375      9     0.00   0.00000   0 ;     HB-    C3-   O31-   P31
  9373   9371   9374   9375      9     0.00   0.00000   0 ;     HB-    C3-   O31-   P31
  9373   9371   9374   9375      9     0.00   1.60247   3 ;     HB-    C3-   O31-   P31
  9374   9371   9369   9398      9     0.00   0.00000   0 ;    O31-    C3-    C2-   O21
  9374   9371   9369   9398      9     0.00   0.00000   0 ;    O31-    C3-    C2-   O21
  9374   9371   9369   9398      9     0.00   0.00000   0 ;    O31-    C3-    C2-   O21
  9374   9371   9369   9398      9     0.00   0.00000   0 ;    O31-    C3-    C2-   O21
  9374   9371   9369   9398      9     0.00   0.00000   0 ;    O31-    C3-    C2-   O21
  9374   9375   9376   9377      9     0.00   2.51040   3 ;    O31-   P31-   O32-   C31
  9374   9375   9376   9377      9     0.00   9.62320   2 ;    O31-   P31-   O32-   C31
  9375   9376   9377   9378      9     0.00   0.00000   0 ;    P31-   O32-   C31-   H1A
  9375   9376   9377   9378      9     0.00   0.00000   0 ;    P31-   O32-   C31-   H1A
  9375   9376   9377   9378      9     0.00   0.00000   0 ;    P31-   O32-   C31-   H1A
  9375   9376   9377   9378      9     0.00   0.00000   0 ;    P31-   O32-   C31-   H1A
  9375   9376   9377   9378      9     0.00   1.60247   3 ;    P31-   O32-   C31-   H1A
  9375   9376   9377   9379      9     0.00   0.00000   0 ;    P31-   O32-   C31-   H1B
  9375   9376   9377   9379      9     0.00   0.00000   0 ;    P31-   O32-   C31-   H1B
  9375   9376   9377   9379      9     0.00   0.00000   0 ;    P31-   O32-   C31-   H1B
  9375   9376   9377   9379      9     0.00   0.00000   0 ;    P31-   O32-   C31-   H1B
  9375   9376   9377   9379      9     0.00   1.60247   3 ;    P31-   O32-   C31-   H1B
  9375   9376   9377   9380      9     0.00   0.00000   0 ;    P31-   O32-   C31-   C32
  9375   9376   9377   9380      9   180.00  -3.34720   2 ;    P31-   O32-   C31-   C32
  9376   9377   9380   9381      9     0.00   0.65270   3 ;    O32-   C31-   C32-   H2A
  9376   9377   9380   9382      9     0.00   0.65270   3 ;    O32-   C31-   C32-   H2B
  9376   9377   9380   9383      9     0.00   4.18400   3 ;    O32-   C31-   C32-   N31
  9377   9376   9375   9396      9     0.00   0.00000   0 ;    C31-   O32-   P31-   O33
  9377   9376   9375   9396      9     0.00   0.00000   0 ;    C31-   O32-   P31-   O33
  9377   9376   9375   9396      9     0.00   0.00000   0 ;    C31-   O32-   P31-   O33
  9377   9376   9375   9396      9     0.00   0.00000   0 ;    C31-   O32-   P31-   O33
  9377   9376   9375   9396      9     0.00   0.83680   2 ;    C31-   O32-   P31-   O33
  9377   9376   9375   9397      9     0.00   0.00000   0 ;    C31-   O32-   P31-   O34
  9377   9376   9375   9397      9     0.00   0.00000   0 ;    C31-   O32-   P31-   O34
  9377   9376   9375   9397      9     0.00   0.00000   0 ;    C31-   O32-   P31-   O34
  9377   9376   9375   9397      9     0.00   0.00000   0 ;    C31-   O32-   P31-   O34
  9377   9376   9375   9397      9     0.00   0.83680   2 ;    C31-   O32-   P31-   O34
  9377   9380   9383   9384      9     0.00   0.65270   3 ;    C31-   C32-   N31-   C33
  9377   9380   9383   9388      9     0.00   0.65270   3 ;    C31-   C32-   N31-   C34
  9377   9380   9383   9392      9     0.00   0.65270   3 ;    C31-   C32-   N31-   C35
  9378   9377   9380   9381      9     0.00   0.65270   3 ;    H1A-   C31-   C32-   H2A
  9378   9377   9380   9382      9     0.00   0.65270   3 ;    H1A-   C31-   C32-   H2B
  9378   9377   9380   9383      9     0.00   0.65270   3 ;    H1A-   C31-   C32-   N31
  9379   9377   9380   9381      9     0.00   0.65270   3 ;    H1B-   C31-   C32-   H2A
  9379   9377   9380   9382      9     0.00   0.65270   3 ;    H1B-   C31-   C32-   H2B
  9379   9377   9380   9383      9     0.00   0.65270   3 ;    H1B-   C31-   C32-   N31
  9380   9383   9384   9385      9     0.00   0.65270   3 ;    C32-   N31-   C33-   H3A
  9380   9383   9384   9386      9     0.00   0.65270   3 ;    C32-   N31-   C33-   H3B
  9380   9383   9384   9387      9     0.00   0.65270   3 ;    C32-   N31-   C33-   H3C
  9380   9383   9388   9389      9     0.00   0.65270   3 ;    C32-   N31-   C34-   H4A
  9380   9383   9388   9390      9     0.00   0.65270   3 ;    C32-   N31-   C34-   H4B
  9380   9383   9388   9391      9     0.00   0.65270   3 ;    C32-   N31-   C34-   H4C
  9380   9383   9392   9393      9     0.00   0.65270   3 ;    C32-   N31-   C35-   H5A
  9380   9383   9392   9394      9     0.00   0.65270   3 ;    C32-   N31-   C35-   H5B
  9380   9383   9392   9395      9     0.00   0.65270   3 ;    C32-   N31-   C35-   H5C
  9381   9380   9383   9384      9     0.00   0.65270   3 ;    H2A-   C32-   N31-   C33
  9381   9380   9383   9388      9     0.00   0.65270   3 ;    H2A-   C32-   N31-   C34
  9381   9380   9383   9392      9     0.00   0.65270   3 ;    H2A-   C32-   N31-   C35
  9382   9380   9383   9384      9     0.00   0.65270   3 ;    H2B-   C32-   N31-   C33
  9382   9380   9383   9388      9     0.00   0.65270   3 ;    H2B-   C32-   N31-   C34
  9382   9380   9383   9392      9     0.00   0.65270   3 ;    H2B-   C32-   N31-   C35
  9384   9383   9388   9389      9     0.00   0.65270   3 ;    C33-   N31-   C34-   H4A
  9384   9383   9388   9390      9     0.00   0.65270   3 ;    C33-   N31-   C34-   H4B
  9384   9383   9388   9391      9     0.00   0.65270   3 ;    C33-   N31-   C34-   H4C
  9384   9383   9392   9393      9     0.00   0.65270   3 ;    C33-   N31-   C35-   H5A
  9384   9383   9392   9394      9     0.00   0.65270   3 ;    C33-   N31-   C35-   H5B
  9384   9383   9392   9395      9     0.00   0.65270   3 ;    C33-   N31-   C35-   H5C
  9385   9384   9383   9388      9     0.00   0.65270   3 ;    H3A-   C33-   N31-   C34
  9385   9384   9383   9392      9     0.00   0.65270   3 ;    H3A-   C33-   N31-   C35
  9386   9384   9383   9388      9     0.00   0.65270   3 ;    H3B-   C33-   N31-   C34
  9386   9384   9383   9392      9     0.00   0.65270   3 ;    H3B-   C33-   N31-   C35
  9387   9384   9383   9388      9     0.00   0.65270   3 ;    H3C-   C33-   N31-   C34
  9387   9384   9383   9392      9     0.00   0.65270   3 ;    H3C-   C33-   N31-   C35
  9388   9383   9392   9393      9     0.00   0.65270   3 ;    C34-   N31-   C35-   H5A
  9388   9383   9392   9394      9     0.00   0.65270   3 ;    C34-   N31-   C35-   H5B
  9388   9383   9392   9395      9     0.00   0.65270   3 ;    C34-   N31-   C35-   H5C
  9389   9388   9383   9392      9     0.00   0.65270   3 ;    H4A-   C34-   N31-   C35
  9390   9388   9383   9392      9     0.00   0.65270   3 ;    H4B-   C34-   N31-   C35
  9391   9388   9383   9392      9     0.00   0.65270   3 ;    H4C-   C34-   N31-   C35
  9398   9399   9438   9435      9   180.00   0.00000   2 ;    O21-   C21-   C12-   C13
  9398   9399   9438   9439      9   180.00   0.00000   2 ;    O21-   C21-   C12-   H2R
  9398   9399   9438   9440      9   180.00   0.00000   2 ;    O21-   C21-   C12-   H2S
  9399   9438   9435   9432      9     0.00   0.65270   3 ;    C21-   C12-   C13-   C14
  9399   9438   9435   9436      9     0.00   0.65270   3 ;    C21-   C12-   C13-   H3R
  9399   9438   9435   9437      9     0.00   0.65270   3 ;    C21-   C12-   C13-   H3S
  9400   9399   9438   9435      9   180.00   0.00000   2 ;    O22-   C21-   C12-   C13
  9400   9399   9438   9439      9     0.00   3.34720   1 ;    O22-   C21-   C12-   H2R
  9400   9399   9438   9439      9   180.00   0.33472   3 ;    O22-   C21-   C12-   H2R
  9400   9399   9438   9440      9     0.00   3.34720   1 ;    O22-   C21-   C12-   H2S
  9400   9399   9438   9440      9   180.00   0.33472   3 ;    O22-   C21-   C12-   H2S
  9401   9402   9405   9406      9     0.00   0.62760   3 ;   H14T-  C114-  C113-  H13R
  9401   9402   9405   9407      9     0.00   0.62760   3 ;   H14T-  C114-  C113-  H13S
  9401   9402   9405   9408      9     0.00   0.66944   3 ;   H14T-  C114-  C113-  C112
  9402   9405   9408   9409      9     0.00   0.66944   3 ;   C114-  C113-  C112-  H12R
  9402   9405   9408   9410      9     0.00   0.66944   3 ;   C114-  C113-  C112-  H12S
  9402   9405   9408   9411      9     0.00   0.41840   1 ;   C114-  C113-  C112-  C111
  9402   9405   9408   9411      9     0.00   0.41840   2 ;   C114-  C113-  C112-  C111
  9402   9405   9408   9411      9     0.00   0.41840   4 ;   C114-  C113-  C112-  C111
  9402   9405   9408   9411      9     0.00   0.41840   5 ;   C114-  C113-  C112-  C111
  9402   9405   9408   9411      9     0.00   1.25520   3 ;   C114-  C113-  C112-  C111
  9403   9402   9405   9406      9     0.00   0.62760   3 ;   H14R-  C114-  C113-  H13R
  9403   9402   9405   9407      9     0.00   0.62760   3 ;   H14R-  C114-  C113-  H13S
  9403   9402   9405   9408      9     0.00   0.66944   3 ;   H14R-  C114-  C113-  C112
  9404   9402   9405   9406      9     0.00   0.62760   3 ;   H14S-  C114-  C113-  H13R
  9404   9402   9405   9407      9     0.00   0.62760   3 ;   H14S-  C114-  C113-  H13S
  9404   9402   9405   9408      9     0.00   0.66944   3 ;   H14S-  C114-  C113-  C112
  9405   9408   9411   9412      9     0.00   0.66944   3 ;   C113-  C112-  C111-  H11R
  9405   9408   9411   9413      9     0.00   0.66944   3 ;   C113-  C112-  C111-  H11S
  9405   9408   9411   9414      9     0.00   0.41840   1 ;   C113-  C112-  C111-  C110
  9405   9408   9411   9414      9     0.00   0.41840   2 ;   C113-  C112-  C111-  C110
  9405   9408   9411   9414      9     0.00   0.41840   4 ;   C113-  C112-  C111-  C110
  9405   9408   9411   9414      9     0.00   0.41840   5 ;   C113-  C112-  C111-  C110
  9405   9408   9411   9414      9     0.00   1.25520   3 ;   C113-  C112-  C111-  C110
  9406   9405   9408   9409      9     0.00   0.62760   3 ;   H13R-  C113-  C112-  H12R
  9406   9405   9408   9410      9     0.00   0.62760   3 ;   H13R-  C113-  C112-  H12S
  9406   9405   9408   9411      9     0.00   0.66944   3 ;   H13R-  C113-  C112-  C111
  9407   9405   9408   9409      9     0.00   0.62760   3 ;   H13S-  C113-  C112-  H12R
  9407   9405   9408   9410      9     0.00   0.62760   3 ;   H13S-  C113-  C112-  H12S
  9407   9405   9408   9411      9     0.00   0.66944   3 ;   H13S-  C113-  C112-  C111
  9408   9411   9414   9415      9     0.00   0.66944   3 ;   C112-  C111-  C110-  H10R
  9408   9411   9414   9416      9     0.00   0.66944   3 ;   C112-  C111-  C110-  H10S
  9408   9411   9414   9417      9     0.00   0.41840   1 ;   C112-  C111-  C110-   C19
  9408   9411   9414   9417      9     0.00   0.41840   2 ;   C112-  C111-  C110-   C19
  9408   9411   9414   9417      9     0.00   0.41840   4 ;   C112-  C111-  C110-   C19
  9408   9411   9414   9417      9     0.00   0.41840   5 ;   C112-  C111-  C110-   C19
  9408   9411   9414   9417      9     0.00   1.25520   3 ;   C112-  C111-  C110-   C19
  9409   9408   9411   9412      9     0.00   0.62760   3 ;   H12R-  C112-  C111-  H11R
  9409   9408   9411   9413      9     0.00   0.62760   3 ;   H12R-  C112-  C111-  H11S
  9409   9408   9411   9414      9     0.00   0.66944   3 ;   H12R-  C112-  C111-  C110
  9410   9408   9411   9412      9     0.00   0.62760   3 ;   H12S-  C112-  C111-  H11R
  9410   9408   9411   9413      9     0.00   0.62760   3 ;   H12S-  C112-  C111-  H11S
  9410   9408   9411   9414      9     0.00   0.66944   3 ;   H12S-  C112-  C111-  C110
  9411   9414   9417   9418      9     0.00   0.66944   3 ;   C111-  C110-   C19-   H9R
  9411   9414   9417   9419      9     0.00   0.66944   3 ;   C111-  C110-   C19-   H9S
  9411   9414   9417   9420      9     0.00   0.41840   1 ;   C111-  C110-   C19-   C18
  9411   9414   9417   9420      9     0.00   0.41840   2 ;   C111-  C110-   C19-   C18
  9411   9414   9417   9420      9     0.00   0.41840   4 ;   C111-  C110-   C19-   C18
  9411   9414   9417   9420      9     0.00   0.41840   5 ;   C111-  C110-   C19-   C18
  9411   9414   9417   9420      9     0.00   1.25520   3 ;   C111-  C110-   C19-   C18
  9412   9411   9414   9415      9     0.00   0.62760   3 ;   H11R-  C111-  C110-  H10R
  9412   9411   9414   9416      9     0.00   0.62760   3 ;   H11R-  C111-  C110-  H10S
  9412   9411   9414   9417      9     0.00   0.66944   3 ;   H11R-  C111-  C110-   C19
  9413   9411   9414   9415      9     0.00   0.62760   3 ;   H11S-  C111-  C110-  H10R
  9413   9411   9414   9416      9     0.00   0.62760   3 ;   H11S-  C111-  C110-  H10S
  9413   9411   9414   9417      9     0.00   0.66944   3 ;   H11S-  C111-  C110-   C19
  9414   9417   9420   9421      9     0.00   0.66944   3 ;   C110-   C19-   C18-   H8R
  9414   9417   9420   9422      9     0.00   0.66944   3 ;   C110-   C19-   C18-   H8S
  9414   9417   9420   9423      9     0.00   0.41840   1 ;   C110-   C19-   C18-   C17
  9414   9417   9420   9423      9     0.00   0.41840   2 ;   C110-   C19-   C18-   C17
  9414   9417   9420   9423      9     0.00   0.41840   4 ;   C110-   C19-   C18-   C17
  9414   9417   9420   9423      9     0.00   0.41840   5 ;   C110-   C19-   C18-   C17
  9414   9417   9420   9423      9     0.00   1.25520   3 ;   C110-   C19-   C18-   C17
  9415   9414   9417   9418      9     0.00   0.62760   3 ;   H10R-  C110-   C19-   H9R
  9415   9414   9417   9419      9     0.00   0.62760   3 ;   H10R-  C110-   C19-   H9S
  9415   9414   9417   9420      9     0.00   0.66944   3 ;   H10R-  C110-   C19-   C18
  9416   9414   9417   9418      9     0.00   0.62760   3 ;   H10S-  C110-   C19-   H9R
  9416   9414   9417   9419      9     0.00   0.62760   3 ;   H10S-  C110-   C19-   H9S
  9416   9414   9417   9420      9     0.00   0.66944   3 ;   H10S-  C110-   C19-   C18
  9417   9420   9423   9424      9     0.00   0.66944   3 ;    C19-   C18-   C17-   H7R
  9417   9420   9423   9425      9     0.00   0.66944   3 ;    C19-   C18-   C17-   H7S
  9417   9420   9423   9426      9     0.00   0.41840   1 ;    C19-   C18-   C17-   C16
  9417   9420   9423   9426      9     0.00   0.41840   2 ;    C19-   C18-   C17-   C16
  9417   9420   9423   9426      9     0.00   0.41840   4 ;    C19-   C18-   C17-   C16
  9417   9420   9423   9426      9     0.00   0.41840   5 ;    C19-   C18-   C17-   C16
  9417   9420   9423   9426      9     0.00   1.25520   3 ;    C19-   C18-   C17-   C16
  9418   9417   9420   9421      9     0.00   0.62760   3 ;    H9R-   C19-   C18-   H8R
  9418   9417   9420   9422      9     0.00   0.62760   3 ;    H9R-   C19-   C18-   H8S
  9418   9417   9420   9423      9     0.00   0.66944   3 ;    H9R-   C19-   C18-   C17
  9419   9417   9420   9421      9     0.00   0.62760   3 ;    H9S-   C19-   C18-   H8R
  9419   9417   9420   9422      9     0.00   0.62760   3 ;    H9S-   C19-   C18-   H8S
  9419   9417   9420   9423      9     0.00   0.66944   3 ;    H9S-   C19-   C18-   C17
  9420   9423   9426   9427      9     0.00   0.66944   3 ;    C18-   C17-   C16-   H6R
  9420   9423   9426   9428      9     0.00   0.66944   3 ;    C18-   C17-   C16-   H6S
  9420   9423   9426   9429      9     0.00   0.41840   1 ;    C18-   C17-   C16-   C15
  9420   9423   9426   9429      9     0.00   0.41840   2 ;    C18-   C17-   C16-   C15
  9420   9423   9426   9429      9     0.00   0.41840   4 ;    C18-   C17-   C16-   C15
  9420   9423   9426   9429      9     0.00   0.41840   5 ;    C18-   C17-   C16-   C15
  9420   9423   9426   9429      9     0.00   1.25520   3 ;    C18-   C17-   C16-   C15
  9421   9420   9423   9424      9     0.00   0.62760   3 ;    H8R-   C18-   C17-   H7R
  9421   9420   9423   9425      9     0.00   0.62760   3 ;    H8R-   C18-   C17-   H7S
  9421   9420   9423   9426      9     0.00   0.66944   3 ;    H8R-   C18-   C17-   C16
  9422   9420   9423   9424      9     0.00   0.62760   3 ;    H8S-   C18-   C17-   H7R
  9422   9420   9423   9425      9     0.00   0.62760   3 ;    H8S-   C18-   C17-   H7S
  9422   9420   9423   9426      9     0.00   0.66944   3 ;    H8S-   C18-   C17-   C16
  9423   9426   9429   9430      9     0.00   0.66944   3 ;    C17-   C16-   C15-   H5R
  9423   9426   9429   9431      9     0.00   0.66944   3 ;    C17-   C16-   C15-   H5S
  9423   9426   9429   9432      9     0.00   0.41840   1 ;    C17-   C16-   C15-   C14
  9423   9426   9429   9432      9     0.00   0.41840   2 ;    C17-   C16-   C15-   C14
  9423   9426   9429   9432      9     0.00   0.41840   4 ;    C17-   C16-   C15-   C14
  9423   9426   9429   9432      9     0.00   0.41840   5 ;    C17-   C16-   C15-   C14
  9423   9426   9429   9432      9     0.00   1.25520   3 ;    C17-   C16-   C15-   C14
  9424   9423   9426   9427      9     0.00   0.62760   3 ;    H7R-   C17-   C16-   H6R
  9424   9423   9426   9428      9     0.00   0.62760   3 ;    H7R-   C17-   C16-   H6S
  9424   9423   9426   9429      9     0.00   0.66944   3 ;    H7R-   C17-   C16-   C15
  9425   9423   9426   9427      9     0.00   0.62760   3 ;    H7S-   C17-   C16-   H6R
  9425   9423   9426   9428      9     0.00   0.62760   3 ;    H7S-   C17-   C16-   H6S
  9425   9423   9426   9429      9     0.00   0.66944   3 ;    H7S-   C17-   C16-   C15
  9426   9429   9432   9433      9     0.00   0.66944   3 ;    C16-   C15-   C14-   H4R
  9426   9429   9432   9434      9     0.00   0.66944   3 ;    C16-   C15-   C14-   H4S
  9426   9429   9432   9435      9     0.00   0.41840   1 ;    C16-   C15-   C14-   C13
  9426   9429   9432   9435      9     0.00   0.41840   2 ;    C16-   C15-   C14-   C13
  9426   9429   9432   9435      9     0.00   0.41840   4 ;    C16-   C15-   C14-   C13
  9426   9429   9432   9435      9     0.00   0.41840   5 ;    C16-   C15-   C14-   C13
  9426   9429   9432   9435      9     0.00   1.25520   3 ;    C16-   C15-   C14-   C13
  9427   9426   9429   9430      9     0.00   0.62760   3 ;    H6R-   C16-   C15-   H5R
  9427   9426   9429   9431      9     0.00   0.62760   3 ;    H6R-   C16-   C15-   H5S
  9427   9426   9429   9432      9     0.00   0.66944   3 ;    H6R-   C16-   C15-   C14
  9428   9426   9429   9430      9     0.00   0.62760   3 ;    H6S-   C16-   C15-   H5R
  9428   9426   9429   9431      9     0.00   0.62760   3 ;    H6S-   C16-   C15-   H5S
  9428   9426   9429   9432      9     0.00   0.66944   3 ;    H6S-   C16-   C15-   C14
  9429   9432   9435   9436      9     0.00   0.66944   3 ;    C15-   C14-   C13-   H3R
  9429   9432   9435   9437      9     0.00   0.66944   3 ;    C15-   C14-   C13-   H3S
  9429   9432   9435   9438      9     0.00   0.41840   1 ;    C15-   C14-   C13-   C12
  9429   9432   9435   9438      9     0.00   0.41840   2 ;    C15-   C14-   C13-   C12
  9429   9432   9435   9438      9     0.00   0.41840   4 ;    C15-   C14-   C13-   C12
  9429   9432   9435   9438      9     0.00   0.41840   5 ;    C15-   C14-   C13-   C12
  9429   9432   9435   9438      9     0.00   1.25520   3 ;    C15-   C14-   C13-   C12
  9430   9429   9432   9433      9     0.00   0.62760   3 ;    H5R-   C15-   C14-   H4R
  9430   9429   9432   9434      9     0.00   0.62760   3 ;    H5R-   C15-   C14-   H4S
  9430   9429   9432   9435      9     0.00   0.66944   3 ;    H5R-   C15-   C14-   C13
  9431   9429   9432   9433      9     0.00   0.62760   3 ;    H5S-   C15-   C14-   H4R
  9431   9429   9432   9434      9     0.00   0.62760   3 ;    H5S-   C15-   C14-   H4S
  9431   9429   9432   9435      9     0.00   0.66944   3 ;    H5S-   C15-   C14-   C13
  9432   9435   9438   9439      9     0.00   0.66944   3 ;    C14-   C13-   C12-   H2R
  9432   9435   9438   9440      9     0.00   0.66944   3 ;    C14-   C13-   C12-   H2S
  9433   9432   9435   9436      9     0.00   0.62760   3 ;    H4R-   C14-   C13-   H3R
  9433   9432   9435   9437      9     0.00   0.62760   3 ;    H4R-   C14-   C13-   H3S
  9433   9432   9435   9438      9     0.00   0.66944   3 ;    H4R-   C14-   C13-   C12
  9434   9432   9435   9436      9     0.00   0.62760   3 ;    H4S-   C14-   C13-   H3R
  9434   9432   9435   9437      9     0.00   0.62760   3 ;    H4S-   C14-   C13-   H3S
  9434   9432   9435   9438      9     0.00   0.66944   3 ;    H4S-   C14-   C13-   C12
  9436   9435   9438   9439      9     0.00   0.62760   3 ;    H3R-   C13-   C12-   H2R
  9436   9435   9438   9440      9     0.00   0.62760   3 ;    H3R-   C13-   C12-   H2S
  9437   9435   9438   9439      9     0.00   0.62760   3 ;    H3S-   C13-   C12-   H2R
  9437   9435   9438   9440      9     0.00   0.62760   3 ;    H3S-   C13-   C12-   H2S
  9441   9442   9445   9446      9     0.00   0.62760   3 ;   H14T-  C114-  C113-  H13R
  9441   9442   9445   9447      9     0.00   0.62760   3 ;   H14T-  C114-  C113-  H13S
  9441   9442   9445   9448      9     0.00   0.66944   3 ;   H14T-  C114-  C113-  C112
  9442   9445   9448   9449      9     0.00   0.66944   3 ;   C114-  C113-  C112-  H12R
  9442   9445   9448   9450      9     0.00   0.66944   3 ;   C114-  C113-  C112-  H12S
  9442   9445   9448   9451      9     0.00   0.41840   1 ;   C114-  C113-  C112-  C111
  9442   9445   9448   9451      9     0.00   0.41840   2 ;   C114-  C113-  C112-  C111
  9442   9445   9448   9451      9     0.00   0.41840   4 ;   C114-  C113-  C112-  C111
  9442   9445   9448   9451      9     0.00   0.41840   5 ;   C114-  C113-  C112-  C111
  9442   9445   9448   9451      9     0.00   1.25520   3 ;   C114-  C113-  C112-  C111
  9443   9442   9445   9446      9     0.00   0.62760   3 ;   H14R-  C114-  C113-  H13R
  9443   9442   9445   9447      9     0.00   0.62760   3 ;   H14R-  C114-  C113-  H13S
  9443   9442   9445   9448      9     0.00   0.66944   3 ;   H14R-  C114-  C113-  C112
  9444   9442   9445   9446      9     0.00   0.62760   3 ;   H14S-  C114-  C113-  H13R
  9444   9442   9445   9447      9     0.00   0.62760   3 ;   H14S-  C114-  C113-  H13S
  9444   9442   9445   9448      9     0.00   0.66944   3 ;   H14S-  C114-  C113-  C112
  9445   9448   9451   9452      9     0.00   0.66944   3 ;   C113-  C112-  C111-  H11R
  9445   9448   9451   9453      9     0.00   0.66944   3 ;   C113-  C112-  C111-  H11S
  9445   9448   9451   9454      9     0.00   0.41840   1 ;   C113-  C112-  C111-  C110
  9445   9448   9451   9454      9     0.00   0.41840   2 ;   C113-  C112-  C111-  C110
  9445   9448   9451   9454      9     0.00   0.41840   4 ;   C113-  C112-  C111-  C110
  9445   9448   9451   9454      9     0.00   0.41840   5 ;   C113-  C112-  C111-  C110
  9445   9448   9451   9454      9     0.00   1.25520   3 ;   C113-  C112-  C111-  C110
  9446   9445   9448   9449      9     0.00   0.62760   3 ;   H13R-  C113-  C112-  H12R
  9446   9445   9448   9450      9     0.00   0.62760   3 ;   H13R-  C113-  C112-  H12S
  9446   9445   9448   9451      9     0.00   0.66944   3 ;   H13R-  C113-  C112-  C111
  9447   9445   9448   9449      9     0.00   0.62760   3 ;   H13S-  C113-  C112-  H12R
  9447   9445   9448   9450      9     0.00   0.62760   3 ;   H13S-  C113-  C112-  H12S
  9447   9445   9448   9451      9     0.00   0.66944   3 ;   H13S-  C113-  C112-  C111
  9448   9451   9454   9455      9     0.00   0.66944   3 ;   C112-  C111-  C110-  H10R
  9448   9451   9454   9456      9     0.00   0.66944   3 ;   C112-  C111-  C110-  H10S
  9448   9451   9454   9457      9     0.00   0.41840   1 ;   C112-  C111-  C110-   C19
  9448   9451   9454   9457      9     0.00   0.41840   2 ;   C112-  C111-  C110-   C19
  9448   9451   9454   9457      9     0.00   0.41840   4 ;   C112-  C111-  C110-   C19
  9448   9451   9454   9457      9     0.00   0.41840   5 ;   C112-  C111-  C110-   C19
  9448   9451   9454   9457      9     0.00   1.25520   3 ;   C112-  C111-  C110-   C19
  9449   9448   9451   9452      9     0.00   0.62760   3 ;   H12R-  C112-  C111-  H11R
  9449   9448   9451   9453      9     0.00   0.62760   3 ;   H12R-  C112-  C111-  H11S
  9449   9448   9451   9454      9     0.00   0.66944   3 ;   H12R-  C112-  C111-  C110
  9450   9448   9451   9452      9     0.00   0.62760   3 ;   H12S-  C112-  C111-  H11R
  9450   9448   9451   9453      9     0.00   0.62760   3 ;   H12S-  C112-  C111-  H11S
  9450   9448   9451   9454      9     0.00   0.66944   3 ;   H12S-  C112-  C111-  C110
  9451   9454   9457   9458      9     0.00   0.66944   3 ;   C111-  C110-   C19-   H9R
  9451   9454   9457   9459      9     0.00   0.66944   3 ;   C111-  C110-   C19-   H9S
  9451   9454   9457   9460      9     0.00   0.41840   1 ;   C111-  C110-   C19-   C18
  9451   9454   9457   9460      9     0.00   0.41840   2 ;   C111-  C110-   C19-   C18
  9451   9454   9457   9460      9     0.00   0.41840   4 ;   C111-  C110-   C19-   C18
  9451   9454   9457   9460      9     0.00   0.41840   5 ;   C111-  C110-   C19-   C18
  9451   9454   9457   9460      9     0.00   1.25520   3 ;   C111-  C110-   C19-   C18
  9452   9451   9454   9455      9     0.00   0.62760   3 ;   H11R-  C111-  C110-  H10R
  9452   9451   9454   9456      9     0.00   0.62760   3 ;   H11R-  C111-  C110-  H10S
  9452   9451   9454   9457      9     0.00   0.66944   3 ;   H11R-  C111-  C110-   C19
  9453   9451   9454   9455      9     0.00   0.62760   3 ;   H11S-  C111-  C110-  H10R
  9453   9451   9454   9456      9     0.00   0.62760   3 ;   H11S-  C111-  C110-  H10S
  9453   9451   9454   9457      9     0.00   0.66944   3 ;   H11S-  C111-  C110-   C19
  9454   9457   9460   9461      9     0.00   0.66944   3 ;   C110-   C19-   C18-   H8R
  9454   9457   9460   9462      9     0.00   0.66944   3 ;   C110-   C19-   C18-   H8S
  9454   9457   9460   9463      9     0.00   0.41840   1 ;   C110-   C19-   C18-   C17
  9454   9457   9460   9463      9     0.00   0.41840   2 ;   C110-   C19-   C18-   C17
  9454   9457   9460   9463      9     0.00   0.41840   4 ;   C110-   C19-   C18-   C17
  9454   9457   9460   9463      9     0.00   0.41840   5 ;   C110-   C19-   C18-   C17
  9454   9457   9460   9463      9     0.00   1.25520   3 ;   C110-   C19-   C18-   C17
  9455   9454   9457   9458      9     0.00   0.62760   3 ;   H10R-  C110-   C19-   H9R
  9455   9454   9457   9459      9     0.00   0.62760   3 ;   H10R-  C110-   C19-   H9S
  9455   9454   9457   9460      9     0.00   0.66944   3 ;   H10R-  C110-   C19-   C18
  9456   9454   9457   9458      9     0.00   0.62760   3 ;   H10S-  C110-   C19-   H9R
  9456   9454   9457   9459      9     0.00   0.62760   3 ;   H10S-  C110-   C19-   H9S
  9456   9454   9457   9460      9     0.00   0.66944   3 ;   H10S-  C110-   C19-   C18
  9457   9460   9463   9464      9     0.00   0.66944   3 ;    C19-   C18-   C17-   H7R
  9457   9460   9463   9465      9     0.00   0.66944   3 ;    C19-   C18-   C17-   H7S
  9457   9460   9463   9466      9     0.00   0.41840   1 ;    C19-   C18-   C17-   C16
  9457   9460   9463   9466      9     0.00   0.41840   2 ;    C19-   C18-   C17-   C16
  9457   9460   9463   9466      9     0.00   0.41840   4 ;    C19-   C18-   C17-   C16
  9457   9460   9463   9466      9     0.00   0.41840   5 ;    C19-   C18-   C17-   C16
  9457   9460   9463   9466      9     0.00   1.25520   3 ;    C19-   C18-   C17-   C16
  9458   9457   9460   9461      9     0.00   0.62760   3 ;    H9R-   C19-   C18-   H8R
  9458   9457   9460   9462      9     0.00   0.62760   3 ;    H9R-   C19-   C18-   H8S
  9458   9457   9460   9463      9     0.00   0.66944   3 ;    H9R-   C19-   C18-   C17
  9459   9457   9460   9461      9     0.00   0.62760   3 ;    H9S-   C19-   C18-   H8R
  9459   9457   9460   9462      9     0.00   0.62760   3 ;    H9S-   C19-   C18-   H8S
  9459   9457   9460   9463      9     0.00   0.66944   3 ;    H9S-   C19-   C18-   C17
  9460   9463   9466   9467      9     0.00   0.66944   3 ;    C18-   C17-   C16-   H6R
  9460   9463   9466   9468      9     0.00   0.66944   3 ;    C18-   C17-   C16-   H6S
  9460   9463   9466   9469      9     0.00   0.41840   1 ;    C18-   C17-   C16-   C15
  9460   9463   9466   9469      9     0.00   0.41840   2 ;    C18-   C17-   C16-   C15
  9460   9463   9466   9469      9     0.00   0.41840   4 ;    C18-   C17-   C16-   C15
  9460   9463   9466   9469      9     0.00   0.41840   5 ;    C18-   C17-   C16-   C15
  9460   9463   9466   9469      9     0.00   1.25520   3 ;    C18-   C17-   C16-   C15
  9461   9460   9463   9464      9     0.00   0.62760   3 ;    H8R-   C18-   C17-   H7R
  9461   9460   9463   9465      9     0.00   0.62760   3 ;    H8R-   C18-   C17-   H7S
  9461   9460   9463   9466      9     0.00   0.66944   3 ;    H8R-   C18-   C17-   C16
  9462   9460   9463   9464      9     0.00   0.62760   3 ;    H8S-   C18-   C17-   H7R
  9462   9460   9463   9465      9     0.00   0.62760   3 ;    H8S-   C18-   C17-   H7S
  9462   9460   9463   9466      9     0.00   0.66944   3 ;    H8S-   C18-   C17-   C16
  9463   9466   9469   9470      9     0.00   0.66944   3 ;    C17-   C16-   C15-   H5R
  9463   9466   9469   9471      9     0.00   0.66944   3 ;    C17-   C16-   C15-   H5S
  9463   9466   9469   9472      9     0.00   0.41840   1 ;    C17-   C16-   C15-   C14
  9463   9466   9469   9472      9     0.00   0.41840   2 ;    C17-   C16-   C15-   C14
  9463   9466   9469   9472      9     0.00   0.41840   4 ;    C17-   C16-   C15-   C14
  9463   9466   9469   9472      9     0.00   0.41840   5 ;    C17-   C16-   C15-   C14
  9463   9466   9469   9472      9     0.00   1.25520   3 ;    C17-   C16-   C15-   C14
  9464   9463   9466   9467      9     0.00   0.62760   3 ;    H7R-   C17-   C16-   H6R
  9464   9463   9466   9468      9     0.00   0.62760   3 ;    H7R-   C17-   C16-   H6S
  9464   9463   9466   9469      9     0.00   0.66944   3 ;    H7R-   C17-   C16-   C15
  9465   9463   9466   9467      9     0.00   0.62760   3 ;    H7S-   C17-   C16-   H6R
  9465   9463   9466   9468      9     0.00   0.62760   3 ;    H7S-   C17-   C16-   H6S
  9465   9463   9466   9469      9     0.00   0.66944   3 ;    H7S-   C17-   C16-   C15
  9466   9469   9472   9473      9     0.00   0.66944   3 ;    C16-   C15-   C14-   H4R
  9466   9469   9472   9474      9     0.00   0.66944   3 ;    C16-   C15-   C14-   H4S
  9466   9469   9472   9475      9     0.00   0.41840   1 ;    C16-   C15-   C14-   C13
  9466   9469   9472   9475      9     0.00   0.41840   2 ;    C16-   C15-   C14-   C13
  9466   9469   9472   9475      9     0.00   0.41840   4 ;    C16-   C15-   C14-   C13
  9466   9469   9472   9475      9     0.00   0.41840   5 ;    C16-   C15-   C14-   C13
  9466   9469   9472   9475      9     0.00   1.25520   3 ;    C16-   C15-   C14-   C13
  9467   9466   9469   9470      9     0.00   0.62760   3 ;    H6R-   C16-   C15-   H5R
  9467   9466   9469   9471      9     0.00   0.62760   3 ;    H6R-   C16-   C15-   H5S
  9467   9466   9469   9472      9     0.00   0.66944   3 ;    H6R-   C16-   C15-   C14
  9468   9466   9469   9470      9     0.00   0.62760   3 ;    H6S-   C16-   C15-   H5R
  9468   9466   9469   9471      9     0.00   0.62760   3 ;    H6S-   C16-   C15-   H5S
  9468   9466   9469   9472      9     0.00   0.66944   3 ;    H6S-   C16-   C15-   C14
  9469   9472   9475   9476      9     0.00   0.66944   3 ;    C15-   C14-   C13-   H3R
  9469   9472   9475   9477      9     0.00   0.66944   3 ;    C15-   C14-   C13-   H3S
  9469   9472   9475   9478      9     0.00   0.41840   1 ;    C15-   C14-   C13-   C12
  9469   9472   9475   9478      9     0.00   0.41840   2 ;    C15-   C14-   C13-   C12
  9469   9472   9475   9478      9     0.00   0.41840   4 ;    C15-   C14-   C13-   C12
  9469   9472   9475   9478      9     0.00   0.41840   5 ;    C15-   C14-   C13-   C12
  9469   9472   9475   9478      9     0.00   1.25520   3 ;    C15-   C14-   C13-   C12
  9470   9469   9472   9473      9     0.00   0.62760   3 ;    H5R-   C15-   C14-   H4R
  9470   9469   9472   9474      9     0.00   0.62760   3 ;    H5R-   C15-   C14-   H4S
  9470   9469   9472   9475      9     0.00   0.66944   3 ;    H5R-   C15-   C14-   C13
  9471   9469   9472   9473      9     0.00   0.62760   3 ;    H5S-   C15-   C14-   H4R
  9471   9469   9472   9474      9     0.00   0.62760   3 ;    H5S-   C15-   C14-   H4S
  9471   9469   9472   9475      9     0.00   0.66944   3 ;    H5S-   C15-   C14-   C13
  9472   9475   9478   9479      9     0.00   0.66944   3 ;    C14-   C13-   C12-   H2R
  9472   9475   9478   9480      9     0.00   0.66944   3 ;    C14-   C13-   C12-   H2S
  9472   9475   9478   9481      9     0.00   0.65270   3 ;    C14-   C13-   C12-   C11
  9473   9472   9475   9476      9     0.00   0.62760   3 ;    H4R-   C14-   C13-   H3R
  9473   9472   9475   9477      9     0.00   0.62760   3 ;    H4R-   C14-   C13-   H3S
  9473   9472   9475   9478      9     0.00   0.66944   3 ;    H4R-   C14-   C13-   C12
  9474   9472   9475   9476      9     0.00   0.62760   3 ;    H4S-   C14-   C13-   H3R
  9474   9472   9475   9477      9     0.00   0.62760   3 ;    H4S-   C14-   C13-   H3S
  9474   9472   9475   9478      9     0.00   0.66944   3 ;    H4S-   C14-   C13-   C12
  9475   9478   9481   9482      9   180.00   0.00000   2 ;    C13-   C12-   C11-   O12
  9475   9478   9481   9483      9   180.00   0.00000   2 ;    C13-   C12-   C11-   O11
  9476   9475   9478   9479      9     0.00   0.62760   3 ;    H3R-   C13-   C12-   H2R
  9476   9475   9478   9480      9     0.00   0.62760   3 ;    H3R-   C13-   C12-   H2S
  9476   9475   9478   9481      9     0.00   0.65270   3 ;    H3R-   C13-   C12-   C11
  9477   9475   9478   9479      9     0.00   0.62760   3 ;    H3S-   C13-   C12-   H2R
  9477   9475   9478   9480      9     0.00   0.62760   3 ;    H3S-   C13-   C12-   H2S
  9477   9475   9478   9481      9     0.00   0.65270   3 ;    H3S-   C13-   C12-   C11
  9478   9481   9483   9484      9   180.00  11.29680   2 ;    C12-   C11-   O11-    C1
  9479   9478   9481   9482      9     0.00   3.34720   1 ;    H2R-   C12-   C11-   O12
  9479   9478   9481   9482      9   180.00   0.33472   3 ;    H2R-   C12-   C11-   O12
  9479   9478   9481   9483      9   180.00   0.00000   2 ;    H2R-   C12-   C11-   O11
  9480   9478   9481   9482      9     0.00   3.34720   1 ;    H2S-   C12-   C11-   O12
  9480   9478   9481   9482      9   180.00   0.33472   3 ;    H2S-   C12-   C11-   O12
  9480   9478   9481   9483      9   180.00   0.00000   2 ;    H2S-   C12-   C11-   O11
  9481   9483   9484   9485      9     0.00   1.60247   3 ;    C11-   O11-    C1-    HR
  9481   9483   9484   9486      9     0.00   1.60247   3 ;    C11-   O11-    C1-    HS
  9481   9483   9484   9487      9     0.00  -0.41840   1 ;    C11-   O11-    C1-    C2
  9482   9481   9483   9484      9   180.00   5.85760   1 ;    O12-   C11-   O11-    C1
  9482   9481   9483   9484      9   180.00  11.29680   2 ;    O12-   C11-   O11-    C1
  9483   9484   9487   9488      9     0.00   0.00000   0 ;    O11-    C1-    C2-    HX
  9483   9484   9487   9488      9     0.00   1.04600   1 ;    O11-    C1-    C2-    HX
  9483   9484   9487   9489      9     0.00   0.00000   0 ;    O11-    C1-    C2-    C3
  9483   9484   9487   9489      9     0.00   0.00000   0 ;    O11-    C1-    C2-    C3
  9483   9484   9487   9489      9     0.00   0.00000   0 ;    O11-    C1-    C2-    C3
  9483   9484   9487   9489      9     0.00   0.00000   0 ;    O11-    C1-    C2-    C3
  9483   9484   9487   9489      9     0.00   0.00000   0 ;    O11-    C1-    C2-    C3
  9483   9484   9487   9516      9     0.00   1.25520   2 ;    O11-    C1-    C2-   O21
  9483   9484   9487   9516      9     0.00   4.18400   3 ;    O11-    C1-    C2-   O21
  9483   9484   9487   9516      9   180.00  -0.41840   1 ;    O11-    C1-    C2-   O21
  9484   9487   9489   9490      9     0.00   0.65270   3 ;     C1-    C2-    C3-    HA
  9484   9487   9489   9491      9     0.00   0.65270   3 ;     C1-    C2-    C3-    HB
  9484   9487   9489   9492      9   180.00   3.34720   1 ;     C1-    C2-    C3-   O31
  9484   9487   9516   9517      9     0.00  -0.41840   1 ;     C1-    C2-   O21-   C21
  9485   9484   9487   9488      9     0.00   0.65270   3 ;     HR-    C1-    C2-    HX
  9485   9484   9487   9489      9     0.00   0.65270   3 ;     HR-    C1-    C2-    C3
  9485   9484   9487   9516      9     0.00   0.00000   0 ;     HR-    C1-    C2-   O21
  9485   9484   9487   9516      9     0.00   1.04600   1 ;     HR-    C1-    C2-   O21
  9486   9484   9487   9488      9     0.00   0.65270   3 ;     HS-    C1-    C2-    HX
  9486   9484   9487   9489      9     0.00   0.65270   3 ;     HS-    C1-    C2-    C3
  9486   9484   9487   9516      9     0.00   0.00000   0 ;     HS-    C1-    C2-   O21
  9486   9484   9487   9516      9     0.00   1.04600   1 ;     HS-    C1-    C2-   O21
  9487   9489   9492   9493      9     0.00   0.00000   0 ;     C2-    C3-   O31-   P31
  9487   9489   9492   9493      9   180.00  -3.34720   2 ;     C2-    C3-   O31-   P31
  9487   9516   9517   9518      9   180.00   5.85760   1 ;     C2-   O21-   C21-   O22
  9487   9516   9517   9518      9   180.00  11.29680   2 ;     C2-   O21-   C21-   O22
  9487   9516   9517   9556      9   180.00  11.29680   2 ;     C2-   O21-   C21-   C12
  9488   9487   9489   9490      9     0.00   0.65270   3 ;     HX-    C2-    C3-    HA
  9488   9487   9489   9491      9     0.00   0.65270   3 ;     HX-    C2-    C3-    HB
  9488   9487   9489   9492      9     0.00   0.00000   0 ;     HX-    C2-    C3-   O31
  9488   9487   9489   9492      9     0.00   1.04600   1 ;     HX-    C2-    C3-   O31
  9488   9487   9516   9517      9     0.00   1.60247   3 ;     HX-    C2-   O21-   C21
  9489   9487   9516   9517      9     0.00  -0.41840   1 ;     C3-    C2-   O21-   C21
  9489   9492   9493   9494      9     0.00   2.51040   3 ;     C3-   O31-   P31-   O32
  9489   9492   9493   9494      9     0.00   9.62320   2 ;     C3-   O31-   P31-   O32
  9489   9492   9493   9514      9     0.00   0.00000   0 ;     C3-   O31-   P31-   O33
  9489   9492   9493   9514      9     0.00   0.00000   0 ;     C3-   O31-   P31-   O33
  9489   9492   9493   9514      9     0.00   0.00000   0 ;     C3-   O31-   P31-   O33
  9489   9492   9493   9514      9     0.00   0.00000   0 ;     C3-   O31-   P31-   O33
  9489   9492   9493   9514      9     0.00   0.83680   2 ;     C3-   O31-   P31-   O33
  9489   9492   9493   9515      9     0.00   0.00000   0 ;     C3-   O31-   P31-   O34
  9489   9492   9493   9515      9     0.00   0.00000   0 ;     C3-   O31-   P31-   O34
  9489   9492   9493   9515      9     0.00   0.00000   0 ;     C3-   O31-   P31-   O34
  9489   9492   9493   9515      9     0.00   0.00000   0 ;     C3-   O31-   P31-   O34
  9489   9492   9493   9515      9     0.00   0.83680   2 ;     C3-   O31-   P31-   O34
  9490   9489   9487   9516      9     0.00   0.00000   0 ;     HA-    C3-    C2-   O21
  9490   9489   9487   9516      9     0.00   1.04600   1 ;     HA-    C3-    C2-   O21
  9490   9489   9492   9493      9     0.00   0.00000   0 ;     HA-    C3-   O31-   P31
  9490   9489   9492   9493      9     0.00   0.00000   0 ;     HA-    C3-   O31-   P31
  9490   9489   9492   9493      9     0.00   0.00000   0 ;     HA-    C3-   O31-   P31
  9490   9489   9492   9493      9     0.00   0.00000   0 ;     HA-    C3-   O31-   P31
  9490   9489   9492   9493      9     0.00   1.60247   3 ;     HA-    C3-   O31-   P31
  9491   9489   9487   9516      9     0.00   0.00000   0 ;     HB-    C3-    C2-   O21
  9491   9489   9487   9516      9     0.00   1.04600   1 ;     HB-    C3-    C2-   O21
  9491   9489   9492   9493      9     0.00   0.00000   0 ;     HB-    C3-   O31-   P31
  9491   9489   9492   9493      9     0.00   0.00000   0 ;     HB-    C3-   O31-   P31
  9491   9489   9492   9493      9     0.00   0.00000   0 ;     HB-    C3-   O31-   P31
  9491   9489   9492   9493      9     0.00   0.00000   0 ;     HB-    C3-   O31-   P31
  9491   9489   9492   9493      9     0.00   1.60247   3 ;     HB-    C3-   O31-   P31
  9492   9489   9487   9516      9     0.00   0.00000   0 ;    O31-    C3-    C2-   O21
  9492   9489   9487   9516      9     0.00   0.00000   0 ;    O31-    C3-    C2-   O21
  9492   9489   9487   9516      9     0.00   0.00000   0 ;    O31-    C3-    C2-   O21
  9492   9489   9487   9516      9     0.00   0.00000   0 ;    O31-    C3-    C2-   O21
  9492   9489   9487   9516      9     0.00   0.00000   0 ;    O31-    C3-    C2-   O21
  9492   9493   9494   9495      9     0.00   2.51040   3 ;    O31-   P31-   O32-   C31
  9492   9493   9494   9495      9     0.00   9.62320   2 ;    O31-   P31-   O32-   C31
  9493   9494   9495   9496      9     0.00   0.00000   0 ;    P31-   O32-   C31-   H1A
  9493   9494   9495   9496      9     0.00   0.00000   0 ;    P31-   O32-   C31-   H1A
  9493   9494   9495   9496      9     0.00   0.00000   0 ;    P31-   O32-   C31-   H1A
  9493   9494   9495   9496      9     0.00   0.00000   0 ;    P31-   O32-   C31-   H1A
  9493   9494   9495   9496      9     0.00   1.60247   3 ;    P31-   O32-   C31-   H1A
  9493   9494   9495   9497      9     0.00   0.00000   0 ;    P31-   O32-   C31-   H1B
  9493   9494   9495   9497      9     0.00   0.00000   0 ;    P31-   O32-   C31-   H1B
  9493   9494   9495   9497      9     0.00   0.00000   0 ;    P31-   O32-   C31-   H1B
  9493   9494   9495   9497      9     0.00   0.00000   0 ;    P31-   O32-   C31-   H1B
  9493   9494   9495   9497      9     0.00   1.60247   3 ;    P31-   O32-   C31-   H1B
  9493   9494   9495   9498      9     0.00   0.00000   0 ;    P31-   O32-   C31-   C32
  9493   9494   9495   9498      9   180.00  -3.34720   2 ;    P31-   O32-   C31-   C32
  9494   9495   9498   9499      9     0.00   0.65270   3 ;    O32-   C31-   C32-   H2A
  9494   9495   9498   9500      9     0.00   0.65270   3 ;    O32-   C31-   C32-   H2B
  9494   9495   9498   9501      9     0.00   4.18400   3 ;    O32-   C31-   C32-   N31
  9495   9494   9493   9514      9     0.00   0.00000   0 ;    C31-   O32-   P31-   O33
  9495   9494   9493   9514      9     0.00   0.00000   0 ;    C31-   O32-   P31-   O33
  9495   9494   9493   9514      9     0.00   0.00000   0 ;    C31-   O32-   P31-   O33
  9495   9494   9493   9514      9     0.00   0.00000   0 ;    C31-   O32-   P31-   O33
  9495   9494   9493   9514      9     0.00   0.83680   2 ;    C31-   O32-   P31-   O33
  9495   9494   9493   9515      9     0.00   0.00000   0 ;    C31-   O32-   P31-   O34
  9495   9494   9493   9515      9     0.00   0.00000   0 ;    C31-   O32-   P31-   O34
  9495   9494   9493   9515      9     0.00   0.00000   0 ;    C31-   O32-   P31-   O34
  9495   9494   9493   9515      9     0.00   0.00000   0 ;    C31-   O32-   P31-   O34
  9495   9494   9493   9515      9     0.00   0.83680   2 ;    C31-   O32-   P31-   O34
  9495   9498   9501   9502      9     0.00   0.65270   3 ;    C31-   C32-   N31-   C33
  9495   9498   9501   9506      9     0.00   0.65270   3 ;    C31-   C32-   N31-   C34
  9495   9498   9501   9510      9     0.00   0.65270   3 ;    C31-   C32-   N31-   C35
  9496   9495   9498   9499      9     0.00   0.65270   3 ;    H1A-   C31-   C32-   H2A
  9496   9495   9498   9500      9     0.00   0.65270   3 ;    H1A-   C31-   C32-   H2B
  9496   9495   9498   9501      9     0.00   0.65270   3 ;    H1A-   C31-   C32-   N31
  9497   9495   9498   9499      9     0.00   0.65270   3 ;    H1B-   C31-   C32-   H2A
  9497   9495   9498   9500      9     0.00   0.65270   3 ;    H1B-   C31-   C32-   H2B
  9497   9495   9498   9501      9     0.00   0.65270   3 ;    H1B-   C31-   C32-   N31
  9498   9501   9502   9503      9     0.00   0.65270   3 ;    C32-   N31-   C33-   H3A
  9498   9501   9502   9504      9     0.00   0.65270   3 ;    C32-   N31-   C33-   H3B
  9498   9501   9502   9505      9     0.00   0.65270   3 ;    C32-   N31-   C33-   H3C
  9498   9501   9506   9507      9     0.00   0.65270   3 ;    C32-   N31-   C34-   H4A
  9498   9501   9506   9508      9     0.00   0.65270   3 ;    C32-   N31-   C34-   H4B
  9498   9501   9506   9509      9     0.00   0.65270   3 ;    C32-   N31-   C34-   H4C
  9498   9501   9510   9511      9     0.00   0.65270   3 ;    C32-   N31-   C35-   H5A
  9498   9501   9510   9512      9     0.00   0.65270   3 ;    C32-   N31-   C35-   H5B
  9498   9501   9510   9513      9     0.00   0.65270   3 ;    C32-   N31-   C35-   H5C
  9499   9498   9501   9502      9     0.00   0.65270   3 ;    H2A-   C32-   N31-   C33
  9499   9498   9501   9506      9     0.00   0.65270   3 ;    H2A-   C32-   N31-   C34
  9499   9498   9501   9510      9     0.00   0.65270   3 ;    H2A-   C32-   N31-   C35
  9500   9498   9501   9502      9     0.00   0.65270   3 ;    H2B-   C32-   N31-   C33
  9500   9498   9501   9506      9     0.00   0.65270   3 ;    H2B-   C32-   N31-   C34
  9500   9498   9501   9510      9     0.00   0.65270   3 ;    H2B-   C32-   N31-   C35
  9502   9501   9506   9507      9     0.00   0.65270   3 ;    C33-   N31-   C34-   H4A
  9502   9501   9506   9508      9     0.00   0.65270   3 ;    C33-   N31-   C34-   H4B
  9502   9501   9506   9509      9     0.00   0.65270   3 ;    C33-   N31-   C34-   H4C
  9502   9501   9510   9511      9     0.00   0.65270   3 ;    C33-   N31-   C35-   H5A
  9502   9501   9510   9512      9     0.00   0.65270   3 ;    C33-   N31-   C35-   H5B
  9502   9501   9510   9513      9     0.00   0.65270   3 ;    C33-   N31-   C35-   H5C
  9503   9502   9501   9506      9     0.00   0.65270   3 ;    H3A-   C33-   N31-   C34
  9503   9502   9501   9510      9     0.00   0.65270   3 ;    H3A-   C33-   N31-   C35
  9504   9502   9501   9506      9     0.00   0.65270   3 ;    H3B-   C33-   N31-   C34
  9504   9502   9501   9510      9     0.00   0.65270   3 ;    H3B-   C33-   N31-   C35
  9505   9502   9501   9506      9     0.00   0.65270   3 ;    H3C-   C33-   N31-   C34
  9505   9502   9501   9510      9     0.00   0.65270   3 ;    H3C-   C33-   N31-   C35
  9506   9501   9510   9511      9     0.00   0.65270   3 ;    C34-   N31-   C35-   H5A
  9506   9501   9510   9512      9     0.00   0.65270   3 ;    C34-   N31-   C35-   H5B
  9506   9501   9510   9513      9     0.00   0.65270   3 ;    C34-   N31-   C35-   H5C
  9507   9506   9501   9510      9     0.00   0.65270   3 ;    H4A-   C34-   N31-   C35
  9508   9506   9501   9510      9     0.00   0.65270   3 ;    H4B-   C34-   N31-   C35
  9509   9506   9501   9510      9     0.00   0.65270   3 ;    H4C-   C34-   N31-   C35
  9516   9517   9556   9553      9   180.00   0.00000   2 ;    O21-   C21-   C12-   C13
  9516   9517   9556   9557      9   180.00   0.00000   2 ;    O21-   C21-   C12-   H2R
  9516   9517   9556   9558      9   180.00   0.00000   2 ;    O21-   C21-   C12-   H2S
  9517   9556   9553   9550      9     0.00   0.65270   3 ;    C21-   C12-   C13-   C14
  9517   9556   9553   9554      9     0.00   0.65270   3 ;    C21-   C12-   C13-   H3R
  9517   9556   9553   9555      9     0.00   0.65270   3 ;    C21-   C12-   C13-   H3S
  9518   9517   9556   9553      9   180.00   0.00000   2 ;    O22-   C21-   C12-   C13
  9518   9517   9556   9557      9     0.00   3.34720   1 ;    O22-   C21-   C12-   H2R
  9518   9517   9556   9557      9   180.00   0.33472   3 ;    O22-   C21-   C12-   H2R
  9518   9517   9556   9558      9     0.00   3.34720   1 ;    O22-   C21-   C12-   H2S
  9518   9517   9556   9558      9   180.00   0.33472   3 ;    O22-   C21-   C12-   H2S
  9519   9520   9523   9524      9     0.00   0.62760   3 ;   H14T-  C114-  C113-  H13R
  9519   9520   9523   9525      9     0.00   0.62760   3 ;   H14T-  C114-  C113-  H13S
  9519   9520   9523   9526      9     0.00   0.66944   3 ;   H14T-  C114-  C113-  C112
  9520   9523   9526   9527      9     0.00   0.66944   3 ;   C114-  C113-  C112-  H12R
  9520   9523   9526   9528      9     0.00   0.66944   3 ;   C114-  C113-  C112-  H12S
  9520   9523   9526   9529      9     0.00   0.41840   1 ;   C114-  C113-  C112-  C111
  9520   9523   9526   9529      9     0.00   0.41840   2 ;   C114-  C113-  C112-  C111
  9520   9523   9526   9529      9     0.00   0.41840   4 ;   C114-  C113-  C112-  C111
  9520   9523   9526   9529      9     0.00   0.41840   5 ;   C114-  C113-  C112-  C111
  9520   9523   9526   9529      9     0.00   1.25520   3 ;   C114-  C113-  C112-  C111
  9521   9520   9523   9524      9     0.00   0.62760   3 ;   H14R-  C114-  C113-  H13R
  9521   9520   9523   9525      9     0.00   0.62760   3 ;   H14R-  C114-  C113-  H13S
  9521   9520   9523   9526      9     0.00   0.66944   3 ;   H14R-  C114-  C113-  C112
  9522   9520   9523   9524      9     0.00   0.62760   3 ;   H14S-  C114-  C113-  H13R
  9522   9520   9523   9525      9     0.00   0.62760   3 ;   H14S-  C114-  C113-  H13S
  9522   9520   9523   9526      9     0.00   0.66944   3 ;   H14S-  C114-  C113-  C112
  9523   9526   9529   9530      9     0.00   0.66944   3 ;   C113-  C112-  C111-  H11R
  9523   9526   9529   9531      9     0.00   0.66944   3 ;   C113-  C112-  C111-  H11S
  9523   9526   9529   9532      9     0.00   0.41840   1 ;   C113-  C112-  C111-  C110
  9523   9526   9529   9532      9     0.00   0.41840   2 ;   C113-  C112-  C111-  C110
  9523   9526   9529   9532      9     0.00   0.41840   4 ;   C113-  C112-  C111-  C110
  9523   9526   9529   9532      9     0.00   0.41840   5 ;   C113-  C112-  C111-  C110
  9523   9526   9529   9532      9     0.00   1.25520   3 ;   C113-  C112-  C111-  C110
  9524   9523   9526   9527      9     0.00   0.62760   3 ;   H13R-  C113-  C112-  H12R
  9524   9523   9526   9528      9     0.00   0.62760   3 ;   H13R-  C113-  C112-  H12S
  9524   9523   9526   9529      9     0.00   0.66944   3 ;   H13R-  C113-  C112-  C111
  9525   9523   9526   9527      9     0.00   0.62760   3 ;   H13S-  C113-  C112-  H12R
  9525   9523   9526   9528      9     0.00   0.62760   3 ;   H13S-  C113-  C112-  H12S
  9525   9523   9526   9529      9     0.00   0.66944   3 ;   H13S-  C113-  C112-  C111
  9526   9529   9532   9533      9     0.00   0.66944   3 ;   C112-  C111-  C110-  H10R
  9526   9529   9532   9534      9     0.00   0.66944   3 ;   C112-  C111-  C110-  H10S
  9526   9529   9532   9535      9     0.00   0.41840   1 ;   C112-  C111-  C110-   C19
  9526   9529   9532   9535      9     0.00   0.41840   2 ;   C112-  C111-  C110-   C19
  9526   9529   9532   9535      9     0.00   0.41840   4 ;   C112-  C111-  C110-   C19
  9526   9529   9532   9535      9     0.00   0.41840   5 ;   C112-  C111-  C110-   C19
  9526   9529   9532   9535      9     0.00   1.25520   3 ;   C112-  C111-  C110-   C19
  9527   9526   9529   9530      9     0.00   0.62760   3 ;   H12R-  C112-  C111-  H11R
  9527   9526   9529   9531      9     0.00   0.62760   3 ;   H12R-  C112-  C111-  H11S
  9527   9526   9529   9532      9     0.00   0.66944   3 ;   H12R-  C112-  C111-  C110
  9528   9526   9529   9530      9     0.00   0.62760   3 ;   H12S-  C112-  C111-  H11R
  9528   9526   9529   9531      9     0.00   0.62760   3 ;   H12S-  C112-  C111-  H11S
  9528   9526   9529   9532      9     0.00   0.66944   3 ;   H12S-  C112-  C111-  C110
  9529   9532   9535   9536      9     0.00   0.66944   3 ;   C111-  C110-   C19-   H9R
  9529   9532   9535   9537      9     0.00   0.66944   3 ;   C111-  C110-   C19-   H9S
  9529   9532   9535   9538      9     0.00   0.41840   1 ;   C111-  C110-   C19-   C18
  9529   9532   9535   9538      9     0.00   0.41840   2 ;   C111-  C110-   C19-   C18
  9529   9532   9535   9538      9     0.00   0.41840   4 ;   C111-  C110-   C19-   C18
  9529   9532   9535   9538      9     0.00   0.41840   5 ;   C111-  C110-   C19-   C18
  9529   9532   9535   9538      9     0.00   1.25520   3 ;   C111-  C110-   C19-   C18
  9530   9529   9532   9533      9     0.00   0.62760   3 ;   H11R-  C111-  C110-  H10R
  9530   9529   9532   9534      9     0.00   0.62760   3 ;   H11R-  C111-  C110-  H10S
  9530   9529   9532   9535      9     0.00   0.66944   3 ;   H11R-  C111-  C110-   C19
  9531   9529   9532   9533      9     0.00   0.62760   3 ;   H11S-  C111-  C110-  H10R
  9531   9529   9532   9534      9     0.00   0.62760   3 ;   H11S-  C111-  C110-  H10S
  9531   9529   9532   9535      9     0.00   0.66944   3 ;   H11S-  C111-  C110-   C19
  9532   9535   9538   9539      9     0.00   0.66944   3 ;   C110-   C19-   C18-   H8R
  9532   9535   9538   9540      9     0.00   0.66944   3 ;   C110-   C19-   C18-   H8S
  9532   9535   9538   9541      9     0.00   0.41840   1 ;   C110-   C19-   C18-   C17
  9532   9535   9538   9541      9     0.00   0.41840   2 ;   C110-   C19-   C18-   C17
  9532   9535   9538   9541      9     0.00   0.41840   4 ;   C110-   C19-   C18-   C17
  9532   9535   9538   9541      9     0.00   0.41840   5 ;   C110-   C19-   C18-   C17
  9532   9535   9538   9541      9     0.00   1.25520   3 ;   C110-   C19-   C18-   C17
  9533   9532   9535   9536      9     0.00   0.62760   3 ;   H10R-  C110-   C19-   H9R
  9533   9532   9535   9537      9     0.00   0.62760   3 ;   H10R-  C110-   C19-   H9S
  9533   9532   9535   9538      9     0.00   0.66944   3 ;   H10R-  C110-   C19-   C18
  9534   9532   9535   9536      9     0.00   0.62760   3 ;   H10S-  C110-   C19-   H9R
  9534   9532   9535   9537      9     0.00   0.62760   3 ;   H10S-  C110-   C19-   H9S
  9534   9532   9535   9538      9     0.00   0.66944   3 ;   H10S-  C110-   C19-   C18
  9535   9538   9541   9542      9     0.00   0.66944   3 ;    C19-   C18-   C17-   H7R
  9535   9538   9541   9543      9     0.00   0.66944   3 ;    C19-   C18-   C17-   H7S
  9535   9538   9541   9544      9     0.00   0.41840   1 ;    C19-   C18-   C17-   C16
  9535   9538   9541   9544      9     0.00   0.41840   2 ;    C19-   C18-   C17-   C16
  9535   9538   9541   9544      9     0.00   0.41840   4 ;    C19-   C18-   C17-   C16
  9535   9538   9541   9544      9     0.00   0.41840   5 ;    C19-   C18-   C17-   C16
  9535   9538   9541   9544      9     0.00   1.25520   3 ;    C19-   C18-   C17-   C16
  9536   9535   9538   9539      9     0.00   0.62760   3 ;    H9R-   C19-   C18-   H8R
  9536   9535   9538   9540      9     0.00   0.62760   3 ;    H9R-   C19-   C18-   H8S
  9536   9535   9538   9541      9     0.00   0.66944   3 ;    H9R-   C19-   C18-   C17
  9537   9535   9538   9539      9     0.00   0.62760   3 ;    H9S-   C19-   C18-   H8R
  9537   9535   9538   9540      9     0.00   0.62760   3 ;    H9S-   C19-   C18-   H8S
  9537   9535   9538   9541      9     0.00   0.66944   3 ;    H9S-   C19-   C18-   C17
  9538   9541   9544   9545      9     0.00   0.66944   3 ;    C18-   C17-   C16-   H6R
  9538   9541   9544   9546      9     0.00   0.66944   3 ;    C18-   C17-   C16-   H6S
  9538   9541   9544   9547      9     0.00   0.41840   1 ;    C18-   C17-   C16-   C15
  9538   9541   9544   9547      9     0.00   0.41840   2 ;    C18-   C17-   C16-   C15
  9538   9541   9544   9547      9     0.00   0.41840   4 ;    C18-   C17-   C16-   C15
  9538   9541   9544   9547      9     0.00   0.41840   5 ;    C18-   C17-   C16-   C15
  9538   9541   9544   9547      9     0.00   1.25520   3 ;    C18-   C17-   C16-   C15
  9539   9538   9541   9542      9     0.00   0.62760   3 ;    H8R-   C18-   C17-   H7R
  9539   9538   9541   9543      9     0.00   0.62760   3 ;    H8R-   C18-   C17-   H7S
  9539   9538   9541   9544      9     0.00   0.66944   3 ;    H8R-   C18-   C17-   C16
  9540   9538   9541   9542      9     0.00   0.62760   3 ;    H8S-   C18-   C17-   H7R
  9540   9538   9541   9543      9     0.00   0.62760   3 ;    H8S-   C18-   C17-   H7S
  9540   9538   9541   9544      9     0.00   0.66944   3 ;    H8S-   C18-   C17-   C16
  9541   9544   9547   9548      9     0.00   0.66944   3 ;    C17-   C16-   C15-   H5R
  9541   9544   9547   9549      9     0.00   0.66944   3 ;    C17-   C16-   C15-   H5S
  9541   9544   9547   9550      9     0.00   0.41840   1 ;    C17-   C16-   C15-   C14
  9541   9544   9547   9550      9     0.00   0.41840   2 ;    C17-   C16-   C15-   C14
  9541   9544   9547   9550      9     0.00   0.41840   4 ;    C17-   C16-   C15-   C14
  9541   9544   9547   9550      9     0.00   0.41840   5 ;    C17-   C16-   C15-   C14
  9541   9544   9547   9550      9     0.00   1.25520   3 ;    C17-   C16-   C15-   C14
  9542   9541   9544   9545      9     0.00   0.62760   3 ;    H7R-   C17-   C16-   H6R
  9542   9541   9544   9546      9     0.00   0.62760   3 ;    H7R-   C17-   C16-   H6S
  9542   9541   9544   9547      9     0.00   0.66944   3 ;    H7R-   C17-   C16-   C15
  9543   9541   9544   9545      9     0.00   0.62760   3 ;    H7S-   C17-   C16-   H6R
  9543   9541   9544   9546      9     0.00   0.62760   3 ;    H7S-   C17-   C16-   H6S
  9543   9541   9544   9547      9     0.00   0.66944   3 ;    H7S-   C17-   C16-   C15
  9544   9547   9550   9551      9     0.00   0.66944   3 ;    C16-   C15-   C14-   H4R
  9544   9547   9550   9552      9     0.00   0.66944   3 ;    C16-   C15-   C14-   H4S
  9544   9547   9550   9553      9     0.00   0.41840   1 ;    C16-   C15-   C14-   C13
  9544   9547   9550   9553      9     0.00   0.41840   2 ;    C16-   C15-   C14-   C13
  9544   9547   9550   9553      9     0.00   0.41840   4 ;    C16-   C15-   C14-   C13
  9544   9547   9550   9553      9     0.00   0.41840   5 ;    C16-   C15-   C14-   C13
  9544   9547   9550   9553      9     0.00   1.25520   3 ;    C16-   C15-   C14-   C13
  9545   9544   9547   9548      9     0.00   0.62760   3 ;    H6R-   C16-   C15-   H5R
  9545   9544   9547   9549      9     0.00   0.62760   3 ;    H6R-   C16-   C15-   H5S
  9545   9544   9547   9550      9     0.00   0.66944   3 ;    H6R-   C16-   C15-   C14
  9546   9544   9547   9548      9     0.00   0.62760   3 ;    H6S-   C16-   C15-   H5R
  9546   9544   9547   9549      9     0.00   0.62760   3 ;    H6S-   C16-   C15-   H5S
  9546   9544   9547   9550      9     0.00   0.66944   3 ;    H6S-   C16-   C15-   C14
  9547   9550   9553   9554      9     0.00   0.66944   3 ;    C15-   C14-   C13-   H3R
  9547   9550   9553   9555      9     0.00   0.66944   3 ;    C15-   C14-   C13-   H3S
  9547   9550   9553   9556      9     0.00   0.41840   1 ;    C15-   C14-   C13-   C12
  9547   9550   9553   9556      9     0.00   0.41840   2 ;    C15-   C14-   C13-   C12
  9547   9550   9553   9556      9     0.00   0.41840   4 ;    C15-   C14-   C13-   C12
  9547   9550   9553   9556      9     0.00   0.41840   5 ;    C15-   C14-   C13-   C12
  9547   9550   9553   9556      9     0.00   1.25520   3 ;    C15-   C14-   C13-   C12
  9548   9547   9550   9551      9     0.00   0.62760   3 ;    H5R-   C15-   C14-   H4R
  9548   9547   9550   9552      9     0.00   0.62760   3 ;    H5R-   C15-   C14-   H4S
  9548   9547   9550   9553      9     0.00   0.66944   3 ;    H5R-   C15-   C14-   C13
  9549   9547   9550   9551      9     0.00   0.62760   3 ;    H5S-   C15-   C14-   H4R
  9549   9547   9550   9552      9     0.00   0.62760   3 ;    H5S-   C15-   C14-   H4S
  9549   9547   9550   9553      9     0.00   0.66944   3 ;    H5S-   C15-   C14-   C13
  9550   9553   9556   9557      9     0.00   0.66944   3 ;    C14-   C13-   C12-   H2R
  9550   9553   9556   9558      9     0.00   0.66944   3 ;    C14-   C13-   C12-   H2S
  9551   9550   9553   9554      9     0.00   0.62760   3 ;    H4R-   C14-   C13-   H3R
  9551   9550   9553   9555      9     0.00   0.62760   3 ;    H4R-   C14-   C13-   H3S
  9551   9550   9553   9556      9     0.00   0.66944   3 ;    H4R-   C14-   C13-   C12
  9552   9550   9553   9554      9     0.00   0.62760   3 ;    H4S-   C14-   C13-   H3R
  9552   9550   9553   9555      9     0.00   0.62760   3 ;    H4S-   C14-   C13-   H3S
  9552   9550   9553   9556      9     0.00   0.66944   3 ;    H4S-   C14-   C13-   C12
  9554   9553   9556   9557      9     0.00   0.62760   3 ;    H3R-   C13-   C12-   H2R
  9554   9553   9556   9558      9     0.00   0.62760   3 ;    H3R-   C13-   C12-   H2S
  9555   9553   9556   9557      9     0.00   0.62760   3 ;    H3S-   C13-   C12-   H2R
  9555   9553   9556   9558      9     0.00   0.62760   3 ;    H3S-   C13-   C12-   H2S
  9559   9560   9563   9564      9     0.00   0.62760   3 ;   H14T-  C114-  C113-  H13R
  9559   9560   9563   9565      9     0.00   0.62760   3 ;   H14T-  C114-  C113-  H13S
  9559   9560   9563   9566      9     0.00   0.66944   3 ;   H14T-  C114-  C113-  C112
  9560   9563   9566   9567      9     0.00   0.66944   3 ;   C114-  C113-  C112-  H12R
  9560   9563   9566   9568      9     0.00   0.66944   3 ;   C114-  C113-  C112-  H12S
  9560   9563   9566   9569      9     0.00   0.41840   1 ;   C114-  C113-  C112-  C111
  9560   9563   9566   9569      9     0.00   0.41840   2 ;   C114-  C113-  C112-  C111
  9560   9563   9566   9569      9     0.00   0.41840   4 ;   C114-  C113-  C112-  C111
  9560   9563   9566   9569      9     0.00   0.41840   5 ;   C114-  C113-  C112-  C111
  9560   9563   9566   9569      9     0.00   1.25520   3 ;   C114-  C113-  C112-  C111
  9561   9560   9563   9564      9     0.00   0.62760   3 ;   H14R-  C114-  C113-  H13R
  9561   9560   9563   9565      9     0.00   0.62760   3 ;   H14R-  C114-  C113-  H13S
  9561   9560   9563   9566      9     0.00   0.66944   3 ;   H14R-  C114-  C113-  C112
  9562   9560   9563   9564      9     0.00   0.62760   3 ;   H14S-  C114-  C113-  H13R
  9562   9560   9563   9565      9     0.00   0.62760   3 ;   H14S-  C114-  C113-  H13S
  9562   9560   9563   9566      9     0.00   0.66944   3 ;   H14S-  C114-  C113-  C112
  9563   9566   9569   9570      9     0.00   0.66944   3 ;   C113-  C112-  C111-  H11R
  9563   9566   9569   9571      9     0.00   0.66944   3 ;   C113-  C112-  C111-  H11S
  9563   9566   9569   9572      9     0.00   0.41840   1 ;   C113-  C112-  C111-  C110
  9563   9566   9569   9572      9     0.00   0.41840   2 ;   C113-  C112-  C111-  C110
  9563   9566   9569   9572      9     0.00   0.41840   4 ;   C113-  C112-  C111-  C110
  9563   9566   9569   9572      9     0.00   0.41840   5 ;   C113-  C112-  C111-  C110
  9563   9566   9569   9572      9     0.00   1.25520   3 ;   C113-  C112-  C111-  C110
  9564   9563   9566   9567      9     0.00   0.62760   3 ;   H13R-  C113-  C112-  H12R
  9564   9563   9566   9568      9     0.00   0.62760   3 ;   H13R-  C113-  C112-  H12S
  9564   9563   9566   9569      9     0.00   0.66944   3 ;   H13R-  C113-  C112-  C111
  9565   9563   9566   9567      9     0.00   0.62760   3 ;   H13S-  C113-  C112-  H12R
  9565   9563   9566   9568      9     0.00   0.62760   3 ;   H13S-  C113-  C112-  H12S
  9565   9563   9566   9569      9     0.00   0.66944   3 ;   H13S-  C113-  C112-  C111
  9566   9569   9572   9573      9     0.00   0.66944   3 ;   C112-  C111-  C110-  H10R
  9566   9569   9572   9574      9     0.00   0.66944   3 ;   C112-  C111-  C110-  H10S
  9566   9569   9572   9575      9     0.00   0.41840   1 ;   C112-  C111-  C110-   C19
  9566   9569   9572   9575      9     0.00   0.41840   2 ;   C112-  C111-  C110-   C19
  9566   9569   9572   9575      9     0.00   0.41840   4 ;   C112-  C111-  C110-   C19
  9566   9569   9572   9575      9     0.00   0.41840   5 ;   C112-  C111-  C110-   C19
  9566   9569   9572   9575      9     0.00   1.25520   3 ;   C112-  C111-  C110-   C19
  9567   9566   9569   9570      9     0.00   0.62760   3 ;   H12R-  C112-  C111-  H11R
  9567   9566   9569   9571      9     0.00   0.62760   3 ;   H12R-  C112-  C111-  H11S
  9567   9566   9569   9572      9     0.00   0.66944   3 ;   H12R-  C112-  C111-  C110
  9568   9566   9569   9570      9     0.00   0.62760   3 ;   H12S-  C112-  C111-  H11R
  9568   9566   9569   9571      9     0.00   0.62760   3 ;   H12S-  C112-  C111-  H11S
  9568   9566   9569   9572      9     0.00   0.66944   3 ;   H12S-  C112-  C111-  C110
  9569   9572   9575   9576      9     0.00   0.66944   3 ;   C111-  C110-   C19-   H9R
  9569   9572   9575   9577      9     0.00   0.66944   3 ;   C111-  C110-   C19-   H9S
  9569   9572   9575   9578      9     0.00   0.41840   1 ;   C111-  C110-   C19-   C18
  9569   9572   9575   9578      9     0.00   0.41840   2 ;   C111-  C110-   C19-   C18
  9569   9572   9575   9578      9     0.00   0.41840   4 ;   C111-  C110-   C19-   C18
  9569   9572   9575   9578      9     0.00   0.41840   5 ;   C111-  C110-   C19-   C18
  9569   9572   9575   9578      9     0.00   1.25520   3 ;   C111-  C110-   C19-   C18
  9570   9569   9572   9573      9     0.00   0.62760   3 ;   H11R-  C111-  C110-  H10R
  9570   9569   9572   9574      9     0.00   0.62760   3 ;   H11R-  C111-  C110-  H10S
  9570   9569   9572   9575      9     0.00   0.66944   3 ;   H11R-  C111-  C110-   C19
  9571   9569   9572   9573      9     0.00   0.62760   3 ;   H11S-  C111-  C110-  H10R
  9571   9569   9572   9574      9     0.00   0.62760   3 ;   H11S-  C111-  C110-  H10S
  9571   9569   9572   9575      9     0.00   0.66944   3 ;   H11S-  C111-  C110-   C19
  9572   9575   9578   9579      9     0.00   0.66944   3 ;   C110-   C19-   C18-   H8R
  9572   9575   9578   9580      9     0.00   0.66944   3 ;   C110-   C19-   C18-   H8S
  9572   9575   9578   9581      9     0.00   0.41840   1 ;   C110-   C19-   C18-   C17
  9572   9575   9578   9581      9     0.00   0.41840   2 ;   C110-   C19-   C18-   C17
  9572   9575   9578   9581      9     0.00   0.41840   4 ;   C110-   C19-   C18-   C17
  9572   9575   9578   9581      9     0.00   0.41840   5 ;   C110-   C19-   C18-   C17
  9572   9575   9578   9581      9     0.00   1.25520   3 ;   C110-   C19-   C18-   C17
  9573   9572   9575   9576      9     0.00   0.62760   3 ;   H10R-  C110-   C19-   H9R
  9573   9572   9575   9577      9     0.00   0.62760   3 ;   H10R-  C110-   C19-   H9S
  9573   9572   9575   9578      9     0.00   0.66944   3 ;   H10R-  C110-   C19-   C18
  9574   9572   9575   9576      9     0.00   0.62760   3 ;   H10S-  C110-   C19-   H9R
  9574   9572   9575   9577      9     0.00   0.62760   3 ;   H10S-  C110-   C19-   H9S
  9574   9572   9575   9578      9     0.00   0.66944   3 ;   H10S-  C110-   C19-   C18
  9575   9578   9581   9582      9     0.00   0.66944   3 ;    C19-   C18-   C17-   H7R
  9575   9578   9581   9583      9     0.00   0.66944   3 ;    C19-   C18-   C17-   H7S
  9575   9578   9581   9584      9     0.00   0.41840   1 ;    C19-   C18-   C17-   C16
  9575   9578   9581   9584      9     0.00   0.41840   2 ;    C19-   C18-   C17-   C16
  9575   9578   9581   9584      9     0.00   0.41840   4 ;    C19-   C18-   C17-   C16
  9575   9578   9581   9584      9     0.00   0.41840   5 ;    C19-   C18-   C17-   C16
  9575   9578   9581   9584      9     0.00   1.25520   3 ;    C19-   C18-   C17-   C16
  9576   9575   9578   9579      9     0.00   0.62760   3 ;    H9R-   C19-   C18-   H8R
  9576   9575   9578   9580      9     0.00   0.62760   3 ;    H9R-   C19-   C18-   H8S
  9576   9575   9578   9581      9     0.00   0.66944   3 ;    H9R-   C19-   C18-   C17
  9577   9575   9578   9579      9     0.00   0.62760   3 ;    H9S-   C19-   C18-   H8R
  9577   9575   9578   9580      9     0.00   0.62760   3 ;    H9S-   C19-   C18-   H8S
  9577   9575   9578   9581      9     0.00   0.66944   3 ;    H9S-   C19-   C18-   C17
  9578   9581   9584   9585      9     0.00   0.66944   3 ;    C18-   C17-   C16-   H6R
  9578   9581   9584   9586      9     0.00   0.66944   3 ;    C18-   C17-   C16-   H6S
  9578   9581   9584   9587      9     0.00   0.41840   1 ;    C18-   C17-   C16-   C15
  9578   9581   9584   9587      9     0.00   0.41840   2 ;    C18-   C17-   C16-   C15
  9578   9581   9584   9587      9     0.00   0.41840   4 ;    C18-   C17-   C16-   C15
  9578   9581   9584   9587      9     0.00   0.41840   5 ;    C18-   C17-   C16-   C15
  9578   9581   9584   9587      9     0.00   1.25520   3 ;    C18-   C17-   C16-   C15
  9579   9578   9581   9582      9     0.00   0.62760   3 ;    H8R-   C18-   C17-   H7R
  9579   9578   9581   9583      9     0.00   0.62760   3 ;    H8R-   C18-   C17-   H7S
  9579   9578   9581   9584      9     0.00   0.66944   3 ;    H8R-   C18-   C17-   C16
  9580   9578   9581   9582      9     0.00   0.62760   3 ;    H8S-   C18-   C17-   H7R
  9580   9578   9581   9583      9     0.00   0.62760   3 ;    H8S-   C18-   C17-   H7S
  9580   9578   9581   9584      9     0.00   0.66944   3 ;    H8S-   C18-   C17-   C16
  9581   9584   9587   9588      9     0.00   0.66944   3 ;    C17-   C16-   C15-   H5R
  9581   9584   9587   9589      9     0.00   0.66944   3 ;    C17-   C16-   C15-   H5S
  9581   9584   9587   9590      9     0.00   0.41840   1 ;    C17-   C16-   C15-   C14
  9581   9584   9587   9590      9     0.00   0.41840   2 ;    C17-   C16-   C15-   C14
  9581   9584   9587   9590      9     0.00   0.41840   4 ;    C17-   C16-   C15-   C14
  9581   9584   9587   9590      9     0.00   0.41840   5 ;    C17-   C16-   C15-   C14
  9581   9584   9587   9590      9     0.00   1.25520   3 ;    C17-   C16-   C15-   C14
  9582   9581   9584   9585      9     0.00   0.62760   3 ;    H7R-   C17-   C16-   H6R
  9582   9581   9584   9586      9     0.00   0.62760   3 ;    H7R-   C17-   C16-   H6S
  9582   9581   9584   9587      9     0.00   0.66944   3 ;    H7R-   C17-   C16-   C15
  9583   9581   9584   9585      9     0.00   0.62760   3 ;    H7S-   C17-   C16-   H6R
  9583   9581   9584   9586      9     0.00   0.62760   3 ;    H7S-   C17-   C16-   H6S
  9583   9581   9584   9587      9     0.00   0.66944   3 ;    H7S-   C17-   C16-   C15
  9584   9587   9590   9591      9     0.00   0.66944   3 ;    C16-   C15-   C14-   H4R
  9584   9587   9590   9592      9     0.00   0.66944   3 ;    C16-   C15-   C14-   H4S
  9584   9587   9590   9593      9     0.00   0.41840   1 ;    C16-   C15-   C14-   C13
  9584   9587   9590   9593      9     0.00   0.41840   2 ;    C16-   C15-   C14-   C13
  9584   9587   9590   9593      9     0.00   0.41840   4 ;    C16-   C15-   C14-   C13
  9584   9587   9590   9593      9     0.00   0.41840   5 ;    C16-   C15-   C14-   C13
  9584   9587   9590   9593      9     0.00   1.25520   3 ;    C16-   C15-   C14-   C13
  9585   9584   9587   9588      9     0.00   0.62760   3 ;    H6R-   C16-   C15-   H5R
  9585   9584   9587   9589      9     0.00   0.62760   3 ;    H6R-   C16-   C15-   H5S
  9585   9584   9587   9590      9     0.00   0.66944   3 ;    H6R-   C16-   C15-   C14
  9586   9584   9587   9588      9     0.00   0.62760   3 ;    H6S-   C16-   C15-   H5R
  9586   9584   9587   9589      9     0.00   0.62760   3 ;    H6S-   C16-   C15-   H5S
  9586   9584   9587   9590      9     0.00   0.66944   3 ;    H6S-   C16-   C15-   C14
  9587   9590   9593   9594      9     0.00   0.66944   3 ;    C15-   C14-   C13-   H3R
  9587   9590   9593   9595      9     0.00   0.66944   3 ;    C15-   C14-   C13-   H3S
  9587   9590   9593   9596      9     0.00   0.41840   1 ;    C15-   C14-   C13-   C12
  9587   9590   9593   9596      9     0.00   0.41840   2 ;    C15-   C14-   C13-   C12
  9587   9590   9593   9596      9     0.00   0.41840   4 ;    C15-   C14-   C13-   C12
  9587   9590   9593   9596      9     0.00   0.41840   5 ;    C15-   C14-   C13-   C12
  9587   9590   9593   9596      9     0.00   1.25520   3 ;    C15-   C14-   C13-   C12
  9588   9587   9590   9591      9     0.00   0.62760   3 ;    H5R-   C15-   C14-   H4R
  9588   9587   9590   9592      9     0.00   0.62760   3 ;    H5R-   C15-   C14-   H4S
  9588   9587   9590   9593      9     0.00   0.66944   3 ;    H5R-   C15-   C14-   C13
  9589   9587   9590   9591      9     0.00   0.62760   3 ;    H5S-   C15-   C14-   H4R
  9589   9587   9590   9592      9     0.00   0.62760   3 ;    H5S-   C15-   C14-   H4S
  9589   9587   9590   9593      9     0.00   0.66944   3 ;    H5S-   C15-   C14-   C13
  9590   9593   9596   9597      9     0.00   0.66944   3 ;    C14-   C13-   C12-   H2R
  9590   9593   9596   9598      9     0.00   0.66944   3 ;    C14-   C13-   C12-   H2S
  9590   9593   9596   9599      9     0.00   0.65270   3 ;    C14-   C13-   C12-   C11
  9591   9590   9593   9594      9     0.00   0.62760   3 ;    H4R-   C14-   C13-   H3R
  9591   9590   9593   9595      9     0.00   0.62760   3 ;    H4R-   C14-   C13-   H3S
  9591   9590   9593   9596      9     0.00   0.66944   3 ;    H4R-   C14-   C13-   C12
  9592   9590   9593   9594      9     0.00   0.62760   3 ;    H4S-   C14-   C13-   H3R
  9592   9590   9593   9595      9     0.00   0.62760   3 ;    H4S-   C14-   C13-   H3S
  9592   9590   9593   9596      9     0.00   0.66944   3 ;    H4S-   C14-   C13-   C12
  9593   9596   9599   9600      9   180.00   0.00000   2 ;    C13-   C12-   C11-   O12
  9593   9596   9599   9601      9   180.00   0.00000   2 ;    C13-   C12-   C11-   O11
  9594   9593   9596   9597      9     0.00   0.62760   3 ;    H3R-   C13-   C12-   H2R
  9594   9593   9596   9598      9     0.00   0.62760   3 ;    H3R-   C13-   C12-   H2S
  9594   9593   9596   9599      9     0.00   0.65270   3 ;    H3R-   C13-   C12-   C11
  9595   9593   9596   9597      9     0.00   0.62760   3 ;    H3S-   C13-   C12-   H2R
  9595   9593   9596   9598      9     0.00   0.62760   3 ;    H3S-   C13-   C12-   H2S
  9595   9593   9596   9599      9     0.00   0.65270   3 ;    H3S-   C13-   C12-   C11
  9596   9599   9601   9602      9   180.00  11.29680   2 ;    C12-   C11-   O11-    C1
  9597   9596   9599   9600      9     0.00   3.34720   1 ;    H2R-   C12-   C11-   O12
  9597   9596   9599   9600      9   180.00   0.33472   3 ;    H2R-   C12-   C11-   O12
  9597   9596   9599   9601      9   180.00   0.00000   2 ;    H2R-   C12-   C11-   O11
  9598   9596   9599   9600      9     0.00   3.34720   1 ;    H2S-   C12-   C11-   O12
  9598   9596   9599   9600      9   180.00   0.33472   3 ;    H2S-   C12-   C11-   O12
  9598   9596   9599   9601      9   180.00   0.00000   2 ;    H2S-   C12-   C11-   O11
  9599   9601   9602   9603      9     0.00   1.60247   3 ;    C11-   O11-    C1-    HR
  9599   9601   9602   9604      9     0.00   1.60247   3 ;    C11-   O11-    C1-    HS
  9599   9601   9602   9605      9     0.00  -0.41840   1 ;    C11-   O11-    C1-    C2
  9600   9599   9601   9602      9   180.00   5.85760   1 ;    O12-   C11-   O11-    C1
  9600   9599   9601   9602      9   180.00  11.29680   2 ;    O12-   C11-   O11-    C1
  9601   9602   9605   9606      9     0.00   0.00000   0 ;    O11-    C1-    C2-    HX
  9601   9602   9605   9606      9     0.00   1.04600   1 ;    O11-    C1-    C2-    HX
  9601   9602   9605   9607      9     0.00   0.00000   0 ;    O11-    C1-    C2-    C3
  9601   9602   9605   9607      9     0.00   0.00000   0 ;    O11-    C1-    C2-    C3
  9601   9602   9605   9607      9     0.00   0.00000   0 ;    O11-    C1-    C2-    C3
  9601   9602   9605   9607      9     0.00   0.00000   0 ;    O11-    C1-    C2-    C3
  9601   9602   9605   9607      9     0.00   0.00000   0 ;    O11-    C1-    C2-    C3
  9601   9602   9605   9634      9     0.00   1.25520   2 ;    O11-    C1-    C2-   O21
  9601   9602   9605   9634      9     0.00   4.18400   3 ;    O11-    C1-    C2-   O21
  9601   9602   9605   9634      9   180.00  -0.41840   1 ;    O11-    C1-    C2-   O21
  9602   9605   9607   9608      9     0.00   0.65270   3 ;     C1-    C2-    C3-    HA
  9602   9605   9607   9609      9     0.00   0.65270   3 ;     C1-    C2-    C3-    HB
  9602   9605   9607   9610      9   180.00   3.34720   1 ;     C1-    C2-    C3-   O31
  9602   9605   9634   9635      9     0.00  -0.41840   1 ;     C1-    C2-   O21-   C21
  9603   9602   9605   9606      9     0.00   0.65270   3 ;     HR-    C1-    C2-    HX
  9603   9602   9605   9607      9     0.00   0.65270   3 ;     HR-    C1-    C2-    C3
  9603   9602   9605   9634      9     0.00   0.00000   0 ;     HR-    C1-    C2-   O21
  9603   9602   9605   9634      9     0.00   1.04600   1 ;     HR-    C1-    C2-   O21
  9604   9602   9605   9606      9     0.00   0.65270   3 ;     HS-    C1-    C2-    HX
  9604   9602   9605   9607      9     0.00   0.65270   3 ;     HS-    C1-    C2-    C3
  9604   9602   9605   9634      9     0.00   0.00000   0 ;     HS-    C1-    C2-   O21
  9604   9602   9605   9634      9     0.00   1.04600   1 ;     HS-    C1-    C2-   O21
  9605   9607   9610   9611      9     0.00   0.00000   0 ;     C2-    C3-   O31-   P31
  9605   9607   9610   9611      9   180.00  -3.34720   2 ;     C2-    C3-   O31-   P31
  9605   9634   9635   9636      9   180.00   5.85760   1 ;     C2-   O21-   C21-   O22
  9605   9634   9635   9636      9   180.00  11.29680   2 ;     C2-   O21-   C21-   O22
  9605   9634   9635   9674      9   180.00  11.29680   2 ;     C2-   O21-   C21-   C12
  9606   9605   9607   9608      9     0.00   0.65270   3 ;     HX-    C2-    C3-    HA
  9606   9605   9607   9609      9     0.00   0.65270   3 ;     HX-    C2-    C3-    HB
  9606   9605   9607   9610      9     0.00   0.00000   0 ;     HX-    C2-    C3-   O31
  9606   9605   9607   9610      9     0.00   1.04600   1 ;     HX-    C2-    C3-   O31
  9606   9605   9634   9635      9     0.00   1.60247   3 ;     HX-    C2-   O21-   C21
  9607   9605   9634   9635      9     0.00  -0.41840   1 ;     C3-    C2-   O21-   C21
  9607   9610   9611   9612      9     0.00   2.51040   3 ;     C3-   O31-   P31-   O32
  9607   9610   9611   9612      9     0.00   9.62320   2 ;     C3-   O31-   P31-   O32
  9607   9610   9611   9632      9     0.00   0.00000   0 ;     C3-   O31-   P31-   O33
  9607   9610   9611   9632      9     0.00   0.00000   0 ;     C3-   O31-   P31-   O33
  9607   9610   9611   9632      9     0.00   0.00000   0 ;     C3-   O31-   P31-   O33
  9607   9610   9611   9632      9     0.00   0.00000   0 ;     C3-   O31-   P31-   O33
  9607   9610   9611   9632      9     0.00   0.83680   2 ;     C3-   O31-   P31-   O33
  9607   9610   9611   9633      9     0.00   0.00000   0 ;     C3-   O31-   P31-   O34
  9607   9610   9611   9633      9     0.00   0.00000   0 ;     C3-   O31-   P31-   O34
  9607   9610   9611   9633      9     0.00   0.00000   0 ;     C3-   O31-   P31-   O34
  9607   9610   9611   9633      9     0.00   0.00000   0 ;     C3-   O31-   P31-   O34
  9607   9610   9611   9633      9     0.00   0.83680   2 ;     C3-   O31-   P31-   O34
  9608   9607   9605   9634      9     0.00   0.00000   0 ;     HA-    C3-    C2-   O21
  9608   9607   9605   9634      9     0.00   1.04600   1 ;     HA-    C3-    C2-   O21
  9608   9607   9610   9611      9     0.00   0.00000   0 ;     HA-    C3-   O31-   P31
  9608   9607   9610   9611      9     0.00   0.00000   0 ;     HA-    C3-   O31-   P31
  9608   9607   9610   9611      9     0.00   0.00000   0 ;     HA-    C3-   O31-   P31
  9608   9607   9610   9611      9     0.00   0.00000   0 ;     HA-    C3-   O31-   P31
  9608   9607   9610   9611      9     0.00   1.60247   3 ;     HA-    C3-   O31-   P31
  9609   9607   9605   9634      9     0.00   0.00000   0 ;     HB-    C3-    C2-   O21
  9609   9607   9605   9634      9     0.00   1.04600   1 ;     HB-    C3-    C2-   O21
  9609   9607   9610   9611      9     0.00   0.00000   0 ;     HB-    C3-   O31-   P31
  9609   9607   9610   9611      9     0.00   0.00000   0 ;     HB-    C3-   O31-   P31
  9609   9607   9610   9611      9     0.00   0.00000   0 ;     HB-    C3-   O31-   P31
  9609   9607   9610   9611      9     0.00   0.00000   0 ;     HB-    C3-   O31-   P31
  9609   9607   9610   9611      9     0.00   1.60247   3 ;     HB-    C3-   O31-   P31
  9610   9607   9605   9634      9     0.00   0.00000   0 ;    O31-    C3-    C2-   O21
  9610   9607   9605   9634      9     0.00   0.00000   0 ;    O31-    C3-    C2-   O21
  9610   9607   9605   9634      9     0.00   0.00000   0 ;    O31-    C3-    C2-   O21
  9610   9607   9605   9634      9     0.00   0.00000   0 ;    O31-    C3-    C2-   O21
  9610   9607   9605   9634      9     0.00   0.00000   0 ;    O31-    C3-    C2-   O21
  9610   9611   9612   9613      9     0.00   2.51040   3 ;    O31-   P31-   O32-   C31
  9610   9611   9612   9613      9     0.00   9.62320   2 ;    O31-   P31-   O32-   C31
  9611   9612   9613   9614      9     0.00   0.00000   0 ;    P31-   O32-   C31-   H1A
  9611   9612   9613   9614      9     0.00   0.00000   0 ;    P31-   O32-   C31-   H1A
  9611   9612   9613   9614      9     0.00   0.00000   0 ;    P31-   O32-   C31-   H1A
  9611   9612   9613   9614      9     0.00   0.00000   0 ;    P31-   O32-   C31-   H1A
  9611   9612   9613   9614      9     0.00   1.60247   3 ;    P31-   O32-   C31-   H1A
  9611   9612   9613   9615      9     0.00   0.00000   0 ;    P31-   O32-   C31-   H1B
  9611   9612   9613   9615      9     0.00   0.00000   0 ;    P31-   O32-   C31-   H1B
  9611   9612   9613   9615      9     0.00   0.00000   0 ;    P31-   O32-   C31-   H1B
  9611   9612   9613   9615      9     0.00   0.00000   0 ;    P31-   O32-   C31-   H1B
  9611   9612   9613   9615      9     0.00   1.60247   3 ;    P31-   O32-   C31-   H1B
  9611   9612   9613   9616      9     0.00   0.00000   0 ;    P31-   O32-   C31-   C32
  9611   9612   9613   9616      9   180.00  -3.34720   2 ;    P31-   O32-   C31-   C32
  9612   9613   9616   9617      9     0.00   0.65270   3 ;    O32-   C31-   C32-   H2A
  9612   9613   9616   9618      9     0.00   0.65270   3 ;    O32-   C31-   C32-   H2B
  9612   9613   9616   9619      9     0.00   4.18400   3 ;    O32-   C31-   C32-   N31
  9613   9612   9611   9632      9     0.00   0.00000   0 ;    C31-   O32-   P31-   O33
  9613   9612   9611   9632      9     0.00   0.00000   0 ;    C31-   O32-   P31-   O33
  9613   9612   9611   9632      9     0.00   0.00000   0 ;    C31-   O32-   P31-   O33
  9613   9612   9611   9632      9     0.00   0.00000   0 ;    C31-   O32-   P31-   O33
  9613   9612   9611   9632      9     0.00   0.83680   2 ;    C31-   O32-   P31-   O33
  9613   9612   9611   9633      9     0.00   0.00000   0 ;    C31-   O32-   P31-   O34
  9613   9612   9611   9633      9     0.00   0.00000   0 ;    C31-   O32-   P31-   O34
  9613   9612   9611   9633      9     0.00   0.00000   0 ;    C31-   O32-   P31-   O34
  9613   9612   9611   9633      9     0.00   0.00000   0 ;    C31-   O32-   P31-   O34
  9613   9612   9611   9633      9     0.00   0.83680   2 ;    C31-   O32-   P31-   O34
  9613   9616   9619   9620      9     0.00   0.65270   3 ;    C31-   C32-   N31-   C33
  9613   9616   9619   9624      9     0.00   0.65270   3 ;    C31-   C32-   N31-   C34
  9613   9616   9619   9628      9     0.00   0.65270   3 ;    C31-   C32-   N31-   C35
  9614   9613   9616   9617      9     0.00   0.65270   3 ;    H1A-   C31-   C32-   H2A
  9614   9613   9616   9618      9     0.00   0.65270   3 ;    H1A-   C31-   C32-   H2B
  9614   9613   9616   9619      9     0.00   0.65270   3 ;    H1A-   C31-   C32-   N31
  9615   9613   9616   9617      9     0.00   0.65270   3 ;    H1B-   C31-   C32-   H2A
  9615   9613   9616   9618      9     0.00   0.65270   3 ;    H1B-   C31-   C32-   H2B
  9615   9613   9616   9619      9     0.00   0.65270   3 ;    H1B-   C31-   C32-   N31
  9616   9619   9620   9621      9     0.00   0.65270   3 ;    C32-   N31-   C33-   H3A
  9616   9619   9620   9622      9     0.00   0.65270   3 ;    C32-   N31-   C33-   H3B
  9616   9619   9620   9623      9     0.00   0.65270   3 ;    C32-   N31-   C33-   H3C
  9616   9619   9624   9625      9     0.00   0.65270   3 ;    C32-   N31-   C34-   H4A
  9616   9619   9624   9626      9     0.00   0.65270   3 ;    C32-   N31-   C34-   H4B
  9616   9619   9624   9627      9     0.00   0.65270   3 ;    C32-   N31-   C34-   H4C
  9616   9619   9628   9629      9     0.00   0.65270   3 ;    C32-   N31-   C35-   H5A
  9616   9619   9628   9630      9     0.00   0.65270   3 ;    C32-   N31-   C35-   H5B
  9616   9619   9628   9631      9     0.00   0.65270   3 ;    C32-   N31-   C35-   H5C
  9617   9616   9619   9620      9     0.00   0.65270   3 ;    H2A-   C32-   N31-   C33
  9617   9616   9619   9624      9     0.00   0.65270   3 ;    H2A-   C32-   N31-   C34
  9617   9616   9619   9628      9     0.00   0.65270   3 ;    H2A-   C32-   N31-   C35
  9618   9616   9619   9620      9     0.00   0.65270   3 ;    H2B-   C32-   N31-   C33
  9618   9616   9619   9624      9     0.00   0.65270   3 ;    H2B-   C32-   N31-   C34
  9618   9616   9619   9628      9     0.00   0.65270   3 ;    H2B-   C32-   N31-   C35
  9620   9619   9624   9625      9     0.00   0.65270   3 ;    C33-   N31-   C34-   H4A
  9620   9619   9624   9626      9     0.00   0.65270   3 ;    C33-   N31-   C34-   H4B
  9620   9619   9624   9627      9     0.00   0.65270   3 ;    C33-   N31-   C34-   H4C
  9620   9619   9628   9629      9     0.00   0.65270   3 ;    C33-   N31-   C35-   H5A
  9620   9619   9628   9630      9     0.00   0.65270   3 ;    C33-   N31-   C35-   H5B
  9620   9619   9628   9631      9     0.00   0.65270   3 ;    C33-   N31-   C35-   H5C
  9621   9620   9619   9624      9     0.00   0.65270   3 ;    H3A-   C33-   N31-   C34
  9621   9620   9619   9628      9     0.00   0.65270   3 ;    H3A-   C33-   N31-   C35
  9622   9620   9619   9624      9     0.00   0.65270   3 ;    H3B-   C33-   N31-   C34
  9622   9620   9619   9628      9     0.00   0.65270   3 ;    H3B-   C33-   N31-   C35
  9623   9620   9619   9624      9     0.00   0.65270   3 ;    H3C-   C33-   N31-   C34
  9623   9620   9619   9628      9     0.00   0.65270   3 ;    H3C-   C33-   N31-   C35
  9624   9619   9628   9629      9     0.00   0.65270   3 ;    C34-   N31-   C35-   H5A
  9624   9619   9628   9630      9     0.00   0.65270   3 ;    C34-   N31-   C35-   H5B
  9624   9619   9628   9631      9     0.00   0.65270   3 ;    C34-   N31-   C35-   H5C
  9625   9624   9619   9628      9     0.00   0.65270   3 ;    H4A-   C34-   N31-   C35
  9626   9624   9619   9628      9     0.00   0.65270   3 ;    H4B-   C34-   N31-   C35
  9627   9624   9619   9628      9     0.00   0.65270   3 ;    H4C-   C34-   N31-   C35
  9634   9635   9674   9671      9   180.00   0.00000   2 ;    O21-   C21-   C12-   C13
  9634   9635   9674   9675      9   180.00   0.00000   2 ;    O21-   C21-   C12-   H2R
  9634   9635   9674   9676      9   180.00   0.00000   2 ;    O21-   C21-   C12-   H2S
  9635   9674   9671   9668      9     0.00   0.65270   3 ;    C21-   C12-   C13-   C14
  9635   9674   9671   9672      9     0.00   0.65270   3 ;    C21-   C12-   C13-   H3R
  9635   9674   9671   9673      9     0.00   0.65270   3 ;    C21-   C12-   C13-   H3S
  9636   9635   9674   9671      9   180.00   0.00000   2 ;    O22-   C21-   C12-   C13
  9636   9635   9674   9675      9     0.00   3.34720   1 ;    O22-   C21-   C12-   H2R
  9636   9635   9674   9675      9   180.00   0.33472   3 ;    O22-   C21-   C12-   H2R
  9636   9635   9674   9676      9     0.00   3.34720   1 ;    O22-   C21-   C12-   H2S
  9636   9635   9674   9676      9   180.00   0.33472   3 ;    O22-   C21-   C12-   H2S
  9637   9638   9641   9642      9     0.00   0.62760   3 ;   H14T-  C114-  C113-  H13R
  9637   9638   9641   9643      9     0.00   0.62760   3 ;   H14T-  C114-  C113-  H13S
  9637   9638   9641   9644      9     0.00   0.66944   3 ;   H14T-  C114-  C113-  C112
  9638   9641   9644   9645      9     0.00   0.66944   3 ;   C114-  C113-  C112-  H12R
  9638   9641   9644   9646      9     0.00   0.66944   3 ;   C114-  C113-  C112-  H12S
  9638   9641   9644   9647      9     0.00   0.41840   1 ;   C114-  C113-  C112-  C111
  9638   9641   9644   9647      9     0.00   0.41840   2 ;   C114-  C113-  C112-  C111
  9638   9641   9644   9647      9     0.00   0.41840   4 ;   C114-  C113-  C112-  C111
  9638   9641   9644   9647      9     0.00   0.41840   5 ;   C114-  C113-  C112-  C111
  9638   9641   9644   9647      9     0.00   1.25520   3 ;   C114-  C113-  C112-  C111
  9639   9638   9641   9642      9     0.00   0.62760   3 ;   H14R-  C114-  C113-  H13R
  9639   9638   9641   9643      9     0.00   0.62760   3 ;   H14R-  C114-  C113-  H13S
  9639   9638   9641   9644      9     0.00   0.66944   3 ;   H14R-  C114-  C113-  C112
  9640   9638   9641   9642      9     0.00   0.62760   3 ;   H14S-  C114-  C113-  H13R
  9640   9638   9641   9643      9     0.00   0.62760   3 ;   H14S-  C114-  C113-  H13S
  9640   9638   9641   9644      9     0.00   0.66944   3 ;   H14S-  C114-  C113-  C112
  9641   9644   9647   9648      9     0.00   0.66944   3 ;   C113-  C112-  C111-  H11R
  9641   9644   9647   9649      9     0.00   0.66944   3 ;   C113-  C112-  C111-  H11S
  9641   9644   9647   9650      9     0.00   0.41840   1 ;   C113-  C112-  C111-  C110
  9641   9644   9647   9650      9     0.00   0.41840   2 ;   C113-  C112-  C111-  C110
  9641   9644   9647   9650      9     0.00   0.41840   4 ;   C113-  C112-  C111-  C110
  9641   9644   9647   9650      9     0.00   0.41840   5 ;   C113-  C112-  C111-  C110
  9641   9644   9647   9650      9     0.00   1.25520   3 ;   C113-  C112-  C111-  C110
  9642   9641   9644   9645      9     0.00   0.62760   3 ;   H13R-  C113-  C112-  H12R
  9642   9641   9644   9646      9     0.00   0.62760   3 ;   H13R-  C113-  C112-  H12S
  9642   9641   9644   9647      9     0.00   0.66944   3 ;   H13R-  C113-  C112-  C111
  9643   9641   9644   9645      9     0.00   0.62760   3 ;   H13S-  C113-  C112-  H12R
  9643   9641   9644   9646      9     0.00   0.62760   3 ;   H13S-  C113-  C112-  H12S
  9643   9641   9644   9647      9     0.00   0.66944   3 ;   H13S-  C113-  C112-  C111
  9644   9647   9650   9651      9     0.00   0.66944   3 ;   C112-  C111-  C110-  H10R
  9644   9647   9650   9652      9     0.00   0.66944   3 ;   C112-  C111-  C110-  H10S
  9644   9647   9650   9653      9     0.00   0.41840   1 ;   C112-  C111-  C110-   C19
  9644   9647   9650   9653      9     0.00   0.41840   2 ;   C112-  C111-  C110-   C19
  9644   9647   9650   9653      9     0.00   0.41840   4 ;   C112-  C111-  C110-   C19
  9644   9647   9650   9653      9     0.00   0.41840   5 ;   C112-  C111-  C110-   C19
  9644   9647   9650   9653      9     0.00   1.25520   3 ;   C112-  C111-  C110-   C19
  9645   9644   9647   9648      9     0.00   0.62760   3 ;   H12R-  C112-  C111-  H11R
  9645   9644   9647   9649      9     0.00   0.62760   3 ;   H12R-  C112-  C111-  H11S
  9645   9644   9647   9650      9     0.00   0.66944   3 ;   H12R-  C112-  C111-  C110
  9646   9644   9647   9648      9     0.00   0.62760   3 ;   H12S-  C112-  C111-  H11R
  9646   9644   9647   9649      9     0.00   0.62760   3 ;   H12S-  C112-  C111-  H11S
  9646   9644   9647   9650      9     0.00   0.66944   3 ;   H12S-  C112-  C111-  C110
  9647   9650   9653   9654      9     0.00   0.66944   3 ;   C111-  C110-   C19-   H9R
  9647   9650   9653   9655      9     0.00   0.66944   3 ;   C111-  C110-   C19-   H9S
  9647   9650   9653   9656      9     0.00   0.41840   1 ;   C111-  C110-   C19-   C18
  9647   9650   9653   9656      9     0.00   0.41840   2 ;   C111-  C110-   C19-   C18
  9647   9650   9653   9656      9     0.00   0.41840   4 ;   C111-  C110-   C19-   C18
  9647   9650   9653   9656      9     0.00   0.41840   5 ;   C111-  C110-   C19-   C18
  9647   9650   9653   9656      9     0.00   1.25520   3 ;   C111-  C110-   C19-   C18
  9648   9647   9650   9651      9     0.00   0.62760   3 ;   H11R-  C111-  C110-  H10R
  9648   9647   9650   9652      9     0.00   0.62760   3 ;   H11R-  C111-  C110-  H10S
  9648   9647   9650   9653      9     0.00   0.66944   3 ;   H11R-  C111-  C110-   C19
  9649   9647   9650   9651      9     0.00   0.62760   3 ;   H11S-  C111-  C110-  H10R
  9649   9647   9650   9652      9     0.00   0.62760   3 ;   H11S-  C111-  C110-  H10S
  9649   9647   9650   9653      9     0.00   0.66944   3 ;   H11S-  C111-  C110-   C19
  9650   9653   9656   9657      9     0.00   0.66944   3 ;   C110-   C19-   C18-   H8R
  9650   9653   9656   9658      9     0.00   0.66944   3 ;   C110-   C19-   C18-   H8S
  9650   9653   9656   9659      9     0.00   0.41840   1 ;   C110-   C19-   C18-   C17
  9650   9653   9656   9659      9     0.00   0.41840   2 ;   C110-   C19-   C18-   C17
  9650   9653   9656   9659      9     0.00   0.41840   4 ;   C110-   C19-   C18-   C17
  9650   9653   9656   9659      9     0.00   0.41840   5 ;   C110-   C19-   C18-   C17
  9650   9653   9656   9659      9     0.00   1.25520   3 ;   C110-   C19-   C18-   C17
  9651   9650   9653   9654      9     0.00   0.62760   3 ;   H10R-  C110-   C19-   H9R
  9651   9650   9653   9655      9     0.00   0.62760   3 ;   H10R-  C110-   C19-   H9S
  9651   9650   9653   9656      9     0.00   0.66944   3 ;   H10R-  C110-   C19-   C18
  9652   9650   9653   9654      9     0.00   0.62760   3 ;   H10S-  C110-   C19-   H9R
  9652   9650   9653   9655      9     0.00   0.62760   3 ;   H10S-  C110-   C19-   H9S
  9652   9650   9653   9656      9     0.00   0.66944   3 ;   H10S-  C110-   C19-   C18
  9653   9656   9659   9660      9     0.00   0.66944   3 ;    C19-   C18-   C17-   H7R
  9653   9656   9659   9661      9     0.00   0.66944   3 ;    C19-   C18-   C17-   H7S
  9653   9656   9659   9662      9     0.00   0.41840   1 ;    C19-   C18-   C17-   C16
  9653   9656   9659   9662      9     0.00   0.41840   2 ;    C19-   C18-   C17-   C16
  9653   9656   9659   9662      9     0.00   0.41840   4 ;    C19-   C18-   C17-   C16
  9653   9656   9659   9662      9     0.00   0.41840   5 ;    C19-   C18-   C17-   C16
  9653   9656   9659   9662      9     0.00   1.25520   3 ;    C19-   C18-   C17-   C16
  9654   9653   9656   9657      9     0.00   0.62760   3 ;    H9R-   C19-   C18-   H8R
  9654   9653   9656   9658      9     0.00   0.62760   3 ;    H9R-   C19-   C18-   H8S
  9654   9653   9656   9659      9     0.00   0.66944   3 ;    H9R-   C19-   C18-   C17
  9655   9653   9656   9657      9     0.00   0.62760   3 ;    H9S-   C19-   C18-   H8R
  9655   9653   9656   9658      9     0.00   0.62760   3 ;    H9S-   C19-   C18-   H8S
  9655   9653   9656   9659      9     0.00   0.66944   3 ;    H9S-   C19-   C18-   C17
  9656   9659   9662   9663      9     0.00   0.66944   3 ;    C18-   C17-   C16-   H6R
  9656   9659   9662   9664      9     0.00   0.66944   3 ;    C18-   C17-   C16-   H6S
  9656   9659   9662   9665      9     0.00   0.41840   1 ;    C18-   C17-   C16-   C15
  9656   9659   9662   9665      9     0.00   0.41840   2 ;    C18-   C17-   C16-   C15
  9656   9659   9662   9665      9     0.00   0.41840   4 ;    C18-   C17-   C16-   C15
  9656   9659   9662   9665      9     0.00   0.41840   5 ;    C18-   C17-   C16-   C15
  9656   9659   9662   9665      9     0.00   1.25520   3 ;    C18-   C17-   C16-   C15
  9657   9656   9659   9660      9     0.00   0.62760   3 ;    H8R-   C18-   C17-   H7R
  9657   9656   9659   9661      9     0.00   0.62760   3 ;    H8R-   C18-   C17-   H7S
  9657   9656   9659   9662      9     0.00   0.66944   3 ;    H8R-   C18-   C17-   C16
  9658   9656   9659   9660      9     0.00   0.62760   3 ;    H8S-   C18-   C17-   H7R
  9658   9656   9659   9661      9     0.00   0.62760   3 ;    H8S-   C18-   C17-   H7S
  9658   9656   9659   9662      9     0.00   0.66944   3 ;    H8S-   C18-   C17-   C16
  9659   9662   9665   9666      9     0.00   0.66944   3 ;    C17-   C16-   C15-   H5R
  9659   9662   9665   9667      9     0.00   0.66944   3 ;    C17-   C16-   C15-   H5S
  9659   9662   9665   9668      9     0.00   0.41840   1 ;    C17-   C16-   C15-   C14
  9659   9662   9665   9668      9     0.00   0.41840   2 ;    C17-   C16-   C15-   C14
  9659   9662   9665   9668      9     0.00   0.41840   4 ;    C17-   C16-   C15-   C14
  9659   9662   9665   9668      9     0.00   0.41840   5 ;    C17-   C16-   C15-   C14
  9659   9662   9665   9668      9     0.00   1.25520   3 ;    C17-   C16-   C15-   C14
  9660   9659   9662   9663      9     0.00   0.62760   3 ;    H7R-   C17-   C16-   H6R
  9660   9659   9662   9664      9     0.00   0.62760   3 ;    H7R-   C17-   C16-   H6S
  9660   9659   9662   9665      9     0.00   0.66944   3 ;    H7R-   C17-   C16-   C15
  9661   9659   9662   9663      9     0.00   0.62760   3 ;    H7S-   C17-   C16-   H6R
  9661   9659   9662   9664      9     0.00   0.62760   3 ;    H7S-   C17-   C16-   H6S
  9661   9659   9662   9665      9     0.00   0.66944   3 ;    H7S-   C17-   C16-   C15
  9662   9665   9668   9669      9     0.00   0.66944   3 ;    C16-   C15-   C14-   H4R
  9662   9665   9668   9670      9     0.00   0.66944   3 ;    C16-   C15-   C14-   H4S
  9662   9665   9668   9671      9     0.00   0.41840   1 ;    C16-   C15-   C14-   C13
  9662   9665   9668   9671      9     0.00   0.41840   2 ;    C16-   C15-   C14-   C13
  9662   9665   9668   9671      9     0.00   0.41840   4 ;    C16-   C15-   C14-   C13
  9662   9665   9668   9671      9     0.00   0.41840   5 ;    C16-   C15-   C14-   C13
  9662   9665   9668   9671      9     0.00   1.25520   3 ;    C16-   C15-   C14-   C13
  9663   9662   9665   9666      9     0.00   0.62760   3 ;    H6R-   C16-   C15-   H5R
  9663   9662   9665   9667      9     0.00   0.62760   3 ;    H6R-   C16-   C15-   H5S
  9663   9662   9665   9668      9     0.00   0.66944   3 ;    H6R-   C16-   C15-   C14
  9664   9662   9665   9666      9     0.00   0.62760   3 ;    H6S-   C16-   C15-   H5R
  9664   9662   9665   9667      9     0.00   0.62760   3 ;    H6S-   C16-   C15-   H5S
  9664   9662   9665   9668      9     0.00   0.66944   3 ;    H6S-   C16-   C15-   C14
  9665   9668   9671   9672      9     0.00   0.66944   3 ;    C15-   C14-   C13-   H3R
  9665   9668   9671   9673      9     0.00   0.66944   3 ;    C15-   C14-   C13-   H3S
  9665   9668   9671   9674      9     0.00   0.41840   1 ;    C15-   C14-   C13-   C12
  9665   9668   9671   9674      9     0.00   0.41840   2 ;    C15-   C14-   C13-   C12
  9665   9668   9671   9674      9     0.00   0.41840   4 ;    C15-   C14-   C13-   C12
  9665   9668   9671   9674      9     0.00   0.41840   5 ;    C15-   C14-   C13-   C12
  9665   9668   9671   9674      9     0.00   1.25520   3 ;    C15-   C14-   C13-   C12
  9666   9665   9668   9669      9     0.00   0.62760   3 ;    H5R-   C15-   C14-   H4R
  9666   9665   9668   9670      9     0.00   0.62760   3 ;    H5R-   C15-   C14-   H4S
  9666   9665   9668   9671      9     0.00   0.66944   3 ;    H5R-   C15-   C14-   C13
  9667   9665   9668   9669      9     0.00   0.62760   3 ;    H5S-   C15-   C14-   H4R
  9667   9665   9668   9670      9     0.00   0.62760   3 ;    H5S-   C15-   C14-   H4S
  9667   9665   9668   9671      9     0.00   0.66944   3 ;    H5S-   C15-   C14-   C13
  9668   9671   9674   9675      9     0.00   0.66944   3 ;    C14-   C13-   C12-   H2R
  9668   9671   9674   9676      9     0.00   0.66944   3 ;    C14-   C13-   C12-   H2S
  9669   9668   9671   9672      9     0.00   0.62760   3 ;    H4R-   C14-   C13-   H3R
  9669   9668   9671   9673      9     0.00   0.62760   3 ;    H4R-   C14-   C13-   H3S
  9669   9668   9671   9674      9     0.00   0.66944   3 ;    H4R-   C14-   C13-   C12
  9670   9668   9671   9672      9     0.00   0.62760   3 ;    H4S-   C14-   C13-   H3R
  9670   9668   9671   9673      9     0.00   0.62760   3 ;    H4S-   C14-   C13-   H3S
  9670   9668   9671   9674      9     0.00   0.66944   3 ;    H4S-   C14-   C13-   C12
  9672   9671   9674   9675      9     0.00   0.62760   3 ;    H3R-   C13-   C12-   H2R
  9672   9671   9674   9676      9     0.00   0.62760   3 ;    H3R-   C13-   C12-   H2S
  9673   9671   9674   9675      9     0.00   0.62760   3 ;    H3S-   C13-   C12-   H2R
  9673   9671   9674   9676      9     0.00   0.62760   3 ;    H3S-   C13-   C12-   H2S
  9677   9678   9681   9682      9     0.00   0.62760   3 ;   H14T-  C114-  C113-  H13R
  9677   9678   9681   9683      9     0.00   0.62760   3 ;   H14T-  C114-  C113-  H13S
  9677   9678   9681   9684      9     0.00   0.66944   3 ;   H14T-  C114-  C113-  C112
  9678   9681   9684   9685      9     0.00   0.66944   3 ;   C114-  C113-  C112-  H12R
  9678   9681   9684   9686      9     0.00   0.66944   3 ;   C114-  C113-  C112-  H12S
  9678   9681   9684   9687      9     0.00   0.41840   1 ;   C114-  C113-  C112-  C111
  9678   9681   9684   9687      9     0.00   0.41840   2 ;   C114-  C113-  C112-  C111
  9678   9681   9684   9687      9     0.00   0.41840   4 ;   C114-  C113-  C112-  C111
  9678   9681   9684   9687      9     0.00   0.41840   5 ;   C114-  C113-  C112-  C111
  9678   9681   9684   9687      9     0.00   1.25520   3 ;   C114-  C113-  C112-  C111
  9679   9678   9681   9682      9     0.00   0.62760   3 ;   H14R-  C114-  C113-  H13R
  9679   9678   9681   9683      9     0.00   0.62760   3 ;   H14R-  C114-  C113-  H13S
  9679   9678   9681   9684      9     0.00   0.66944   3 ;   H14R-  C114-  C113-  C112
  9680   9678   9681   9682      9     0.00   0.62760   3 ;   H14S-  C114-  C113-  H13R
  9680   9678   9681   9683      9     0.00   0.62760   3 ;   H14S-  C114-  C113-  H13S
  9680   9678   9681   9684      9     0.00   0.66944   3 ;   H14S-  C114-  C113-  C112
  9681   9684   9687   9688      9     0.00   0.66944   3 ;   C113-  C112-  C111-  H11R
  9681   9684   9687   9689      9     0.00   0.66944   3 ;   C113-  C112-  C111-  H11S
  9681   9684   9687   9690      9     0.00   0.41840   1 ;   C113-  C112-  C111-  C110
  9681   9684   9687   9690      9     0.00   0.41840   2 ;   C113-  C112-  C111-  C110
  9681   9684   9687   9690      9     0.00   0.41840   4 ;   C113-  C112-  C111-  C110
  9681   9684   9687   9690      9     0.00   0.41840   5 ;   C113-  C112-  C111-  C110
  9681   9684   9687   9690      9     0.00   1.25520   3 ;   C113-  C112-  C111-  C110
  9682   9681   9684   9685      9     0.00   0.62760   3 ;   H13R-  C113-  C112-  H12R
  9682   9681   9684   9686      9     0.00   0.62760   3 ;   H13R-  C113-  C112-  H12S
  9682   9681   9684   9687      9     0.00   0.66944   3 ;   H13R-  C113-  C112-  C111
  9683   9681   9684   9685      9     0.00   0.62760   3 ;   H13S-  C113-  C112-  H12R
  9683   9681   9684   9686      9     0.00   0.62760   3 ;   H13S-  C113-  C112-  H12S
  9683   9681   9684   9687      9     0.00   0.66944   3 ;   H13S-  C113-  C112-  C111
  9684   9687   9690   9691      9     0.00   0.66944   3 ;   C112-  C111-  C110-  H10R
  9684   9687   9690   9692      9     0.00   0.66944   3 ;   C112-  C111-  C110-  H10S
  9684   9687   9690   9693      9     0.00   0.41840   1 ;   C112-  C111-  C110-   C19
  9684   9687   9690   9693      9     0.00   0.41840   2 ;   C112-  C111-  C110-   C19
  9684   9687   9690   9693      9     0.00   0.41840   4 ;   C112-  C111-  C110-   C19
  9684   9687   9690   9693      9     0.00   0.41840   5 ;   C112-  C111-  C110-   C19
  9684   9687   9690   9693      9     0.00   1.25520   3 ;   C112-  C111-  C110-   C19
  9685   9684   9687   9688      9     0.00   0.62760   3 ;   H12R-  C112-  C111-  H11R
  9685   9684   9687   9689      9     0.00   0.62760   3 ;   H12R-  C112-  C111-  H11S
  9685   9684   9687   9690      9     0.00   0.66944   3 ;   H12R-  C112-  C111-  C110
  9686   9684   9687   9688      9     0.00   0.62760   3 ;   H12S-  C112-  C111-  H11R
  9686   9684   9687   9689      9     0.00   0.62760   3 ;   H12S-  C112-  C111-  H11S
  9686   9684   9687   9690      9     0.00   0.66944   3 ;   H12S-  C112-  C111-  C110
  9687   9690   9693   9694      9     0.00   0.66944   3 ;   C111-  C110-   C19-   H9R
  9687   9690   9693   9695      9     0.00   0.66944   3 ;   C111-  C110-   C19-   H9S
  9687   9690   9693   9696      9     0.00   0.41840   1 ;   C111-  C110-   C19-   C18
  9687   9690   9693   9696      9     0.00   0.41840   2 ;   C111-  C110-   C19-   C18
  9687   9690   9693   9696      9     0.00   0.41840   4 ;   C111-  C110-   C19-   C18
  9687   9690   9693   9696      9     0.00   0.41840   5 ;   C111-  C110-   C19-   C18
  9687   9690   9693   9696      9     0.00   1.25520   3 ;   C111-  C110-   C19-   C18
  9688   9687   9690   9691      9     0.00   0.62760   3 ;   H11R-  C111-  C110-  H10R
  9688   9687   9690   9692      9     0.00   0.62760   3 ;   H11R-  C111-  C110-  H10S
  9688   9687   9690   9693      9     0.00   0.66944   3 ;   H11R-  C111-  C110-   C19
  9689   9687   9690   9691      9     0.00   0.62760   3 ;   H11S-  C111-  C110-  H10R
  9689   9687   9690   9692      9     0.00   0.62760   3 ;   H11S-  C111-  C110-  H10S
  9689   9687   9690   9693      9     0.00   0.66944   3 ;   H11S-  C111-  C110-   C19
  9690   9693   9696   9697      9     0.00   0.66944   3 ;   C110-   C19-   C18-   H8R
  9690   9693   9696   9698      9     0.00   0.66944   3 ;   C110-   C19-   C18-   H8S
  9690   9693   9696   9699      9     0.00   0.41840   1 ;   C110-   C19-   C18-   C17
  9690   9693   9696   9699      9     0.00   0.41840   2 ;   C110-   C19-   C18-   C17
  9690   9693   9696   9699      9     0.00   0.41840   4 ;   C110-   C19-   C18-   C17
  9690   9693   9696   9699      9     0.00   0.41840   5 ;   C110-   C19-   C18-   C17
  9690   9693   9696   9699      9     0.00   1.25520   3 ;   C110-   C19-   C18-   C17
  9691   9690   9693   9694      9     0.00   0.62760   3 ;   H10R-  C110-   C19-   H9R
  9691   9690   9693   9695      9     0.00   0.62760   3 ;   H10R-  C110-   C19-   H9S
  9691   9690   9693   9696      9     0.00   0.66944   3 ;   H10R-  C110-   C19-   C18
  9692   9690   9693   9694      9     0.00   0.62760   3 ;   H10S-  C110-   C19-   H9R
  9692   9690   9693   9695      9     0.00   0.62760   3 ;   H10S-  C110-   C19-   H9S
  9692   9690   9693   9696      9     0.00   0.66944   3 ;   H10S-  C110-   C19-   C18
  9693   9696   9699   9700      9     0.00   0.66944   3 ;    C19-   C18-   C17-   H7R
  9693   9696   9699   9701      9     0.00   0.66944   3 ;    C19-   C18-   C17-   H7S
  9693   9696   9699   9702      9     0.00   0.41840   1 ;    C19-   C18-   C17-   C16
  9693   9696   9699   9702      9     0.00   0.41840   2 ;    C19-   C18-   C17-   C16
  9693   9696   9699   9702      9     0.00   0.41840   4 ;    C19-   C18-   C17-   C16
  9693   9696   9699   9702      9     0.00   0.41840   5 ;    C19-   C18-   C17-   C16
  9693   9696   9699   9702      9     0.00   1.25520   3 ;    C19-   C18-   C17-   C16
  9694   9693   9696   9697      9     0.00   0.62760   3 ;    H9R-   C19-   C18-   H8R
  9694   9693   9696   9698      9     0.00   0.62760   3 ;    H9R-   C19-   C18-   H8S
  9694   9693   9696   9699      9     0.00   0.66944   3 ;    H9R-   C19-   C18-   C17
  9695   9693   9696   9697      9     0.00   0.62760   3 ;    H9S-   C19-   C18-   H8R
  9695   9693   9696   9698      9     0.00   0.62760   3 ;    H9S-   C19-   C18-   H8S
  9695   9693   9696   9699      9     0.00   0.66944   3 ;    H9S-   C19-   C18-   C17
  9696   9699   9702   9703      9     0.00   0.66944   3 ;    C18-   C17-   C16-   H6R
  9696   9699   9702   9704      9     0.00   0.66944   3 ;    C18-   C17-   C16-   H6S
  9696   9699   9702   9705      9     0.00   0.41840   1 ;    C18-   C17-   C16-   C15
  9696   9699   9702   9705      9     0.00   0.41840   2 ;    C18-   C17-   C16-   C15
  9696   9699   9702   9705      9     0.00   0.41840   4 ;    C18-   C17-   C16-   C15
  9696   9699   9702   9705      9     0.00   0.41840   5 ;    C18-   C17-   C16-   C15
  9696   9699   9702   9705      9     0.00   1.25520   3 ;    C18-   C17-   C16-   C15
  9697   9696   9699   9700      9     0.00   0.62760   3 ;    H8R-   C18-   C17-   H7R
  9697   9696   9699   9701      9     0.00   0.62760   3 ;    H8R-   C18-   C17-   H7S
  9697   9696   9699   9702      9     0.00   0.66944   3 ;    H8R-   C18-   C17-   C16
  9698   9696   9699   9700      9     0.00   0.62760   3 ;    H8S-   C18-   C17-   H7R
  9698   9696   9699   9701      9     0.00   0.62760   3 ;    H8S-   C18-   C17-   H7S
  9698   9696   9699   9702      9     0.00   0.66944   3 ;    H8S-   C18-   C17-   C16
  9699   9702   9705   9706      9     0.00   0.66944   3 ;    C17-   C16-   C15-   H5R
  9699   9702   9705   9707      9     0.00   0.66944   3 ;    C17-   C16-   C15-   H5S
  9699   9702   9705   9708      9     0.00   0.41840   1 ;    C17-   C16-   C15-   C14
  9699   9702   9705   9708      9     0.00   0.41840   2 ;    C17-   C16-   C15-   C14
  9699   9702   9705   9708      9     0.00   0.41840   4 ;    C17-   C16-   C15-   C14
  9699   9702   9705   9708      9     0.00   0.41840   5 ;    C17-   C16-   C15-   C14
  9699   9702   9705   9708      9     0.00   1.25520   3 ;    C17-   C16-   C15-   C14
  9700   9699   9702   9703      9     0.00   0.62760   3 ;    H7R-   C17-   C16-   H6R
  9700   9699   9702   9704      9     0.00   0.62760   3 ;    H7R-   C17-   C16-   H6S
  9700   9699   9702   9705      9     0.00   0.66944   3 ;    H7R-   C17-   C16-   C15
  9701   9699   9702   9703      9     0.00   0.62760   3 ;    H7S-   C17-   C16-   H6R
  9701   9699   9702   9704      9     0.00   0.62760   3 ;    H7S-   C17-   C16-   H6S
  9701   9699   9702   9705      9     0.00   0.66944   3 ;    H7S-   C17-   C16-   C15
  9702   9705   9708   9709      9     0.00   0.66944   3 ;    C16-   C15-   C14-   H4R
  9702   9705   9708   9710      9     0.00   0.66944   3 ;    C16-   C15-   C14-   H4S
  9702   9705   9708   9711      9     0.00   0.41840   1 ;    C16-   C15-   C14-   C13
  9702   9705   9708   9711      9     0.00   0.41840   2 ;    C16-   C15-   C14-   C13
  9702   9705   9708   9711      9     0.00   0.41840   4 ;    C16-   C15-   C14-   C13
  9702   9705   9708   9711      9     0.00   0.41840   5 ;    C16-   C15-   C14-   C13
  9702   9705   9708   9711      9     0.00   1.25520   3 ;    C16-   C15-   C14-   C13
  9703   9702   9705   9706      9     0.00   0.62760   3 ;    H6R-   C16-   C15-   H5R
  9703   9702   9705   9707      9     0.00   0.62760   3 ;    H6R-   C16-   C15-   H5S
  9703   9702   9705   9708      9     0.00   0.66944   3 ;    H6R-   C16-   C15-   C14
  9704   9702   9705   9706      9     0.00   0.62760   3 ;    H6S-   C16-   C15-   H5R
  9704   9702   9705   9707      9     0.00   0.62760   3 ;    H6S-   C16-   C15-   H5S
  9704   9702   9705   9708      9     0.00   0.66944   3 ;    H6S-   C16-   C15-   C14
  9705   9708   9711   9712      9     0.00   0.66944   3 ;    C15-   C14-   C13-   H3R
  9705   9708   9711   9713      9     0.00   0.66944   3 ;    C15-   C14-   C13-   H3S
  9705   9708   9711   9714      9     0.00   0.41840   1 ;    C15-   C14-   C13-   C12
  9705   9708   9711   9714      9     0.00   0.41840   2 ;    C15-   C14-   C13-   C12
  9705   9708   9711   9714      9     0.00   0.41840   4 ;    C15-   C14-   C13-   C12
  9705   9708   9711   9714      9     0.00   0.41840   5 ;    C15-   C14-   C13-   C12
  9705   9708   9711   9714      9     0.00   1.25520   3 ;    C15-   C14-   C13-   C12
  9706   9705   9708   9709      9     0.00   0.62760   3 ;    H5R-   C15-   C14-   H4R
  9706   9705   9708   9710      9     0.00   0.62760   3 ;    H5R-   C15-   C14-   H4S
  9706   9705   9708   9711      9     0.00   0.66944   3 ;    H5R-   C15-   C14-   C13
  9707   9705   9708   9709      9     0.00   0.62760   3 ;    H5S-   C15-   C14-   H4R
  9707   9705   9708   9710      9     0.00   0.62760   3 ;    H5S-   C15-   C14-   H4S
  9707   9705   9708   9711      9     0.00   0.66944   3 ;    H5S-   C15-   C14-   C13
  9708   9711   9714   9715      9     0.00   0.66944   3 ;    C14-   C13-   C12-   H2R
  9708   9711   9714   9716      9     0.00   0.66944   3 ;    C14-   C13-   C12-   H2S
  9708   9711   9714   9717      9     0.00   0.65270   3 ;    C14-   C13-   C12-   C11
  9709   9708   9711   9712      9     0.00   0.62760   3 ;    H4R-   C14-   C13-   H3R
  9709   9708   9711   9713      9     0.00   0.62760   3 ;    H4R-   C14-   C13-   H3S
  9709   9708   9711   9714      9     0.00   0.66944   3 ;    H4R-   C14-   C13-   C12
  9710   9708   9711   9712      9     0.00   0.62760   3 ;    H4S-   C14-   C13-   H3R
  9710   9708   9711   9713      9     0.00   0.62760   3 ;    H4S-   C14-   C13-   H3S
  9710   9708   9711   9714      9     0.00   0.66944   3 ;    H4S-   C14-   C13-   C12
  9711   9714   9717   9718      9   180.00   0.00000   2 ;    C13-   C12-   C11-   O12
  9711   9714   9717   9719      9   180.00   0.00000   2 ;    C13-   C12-   C11-   O11
  9712   9711   9714   9715      9     0.00   0.62760   3 ;    H3R-   C13-   C12-   H2R
  9712   9711   9714   9716      9     0.00   0.62760   3 ;    H3R-   C13-   C12-   H2S
  9712   9711   9714   9717      9     0.00   0.65270   3 ;    H3R-   C13-   C12-   C11
  9713   9711   9714   9715      9     0.00   0.62760   3 ;    H3S-   C13-   C12-   H2R
  9713   9711   9714   9716      9     0.00   0.62760   3 ;    H3S-   C13-   C12-   H2S
  9713   9711   9714   9717      9     0.00   0.65270   3 ;    H3S-   C13-   C12-   C11
  9714   9717   9719   9720      9   180.00  11.29680   2 ;    C12-   C11-   O11-    C1
  9715   9714   9717   9718      9     0.00   3.34720   1 ;    H2R-   C12-   C11-   O12
  9715   9714   9717   9718      9   180.00   0.33472   3 ;    H2R-   C12-   C11-   O12
  9715   9714   9717   9719      9   180.00   0.00000   2 ;    H2R-   C12-   C11-   O11
  9716   9714   9717   9718      9     0.00   3.34720   1 ;    H2S-   C12-   C11-   O12
  9716   9714   9717   9718      9   180.00   0.33472   3 ;    H2S-   C12-   C11-   O12
  9716   9714   9717   9719      9   180.00   0.00000   2 ;    H2S-   C12-   C11-   O11
  9717   9719   9720   9721      9     0.00   1.60247   3 ;    C11-   O11-    C1-    HR
  9717   9719   9720   9722      9     0.00   1.60247   3 ;    C11-   O11-    C1-    HS
  9717   9719   9720   9723      9     0.00  -0.41840   1 ;    C11-   O11-    C1-    C2
  9718   9717   9719   9720      9   180.00   5.85760   1 ;    O12-   C11-   O11-    C1
  9718   9717   9719   9720      9   180.00  11.29680   2 ;    O12-   C11-   O11-    C1
  9719   9720   9723   9724      9     0.00   0.00000   0 ;    O11-    C1-    C2-    HX
  9719   9720   9723   9724      9     0.00   1.04600   1 ;    O11-    C1-    C2-    HX
  9719   9720   9723   9725      9     0.00   0.00000   0 ;    O11-    C1-    C2-    C3
  9719   9720   9723   9725      9     0.00   0.00000   0 ;    O11-    C1-    C2-    C3
  9719   9720   9723   9725      9     0.00   0.00000   0 ;    O11-    C1-    C2-    C3
  9719   9720   9723   9725      9     0.00   0.00000   0 ;    O11-    C1-    C2-    C3
  9719   9720   9723   9725      9     0.00   0.00000   0 ;    O11-    C1-    C2-    C3
  9719   9720   9723   9752      9     0.00   1.25520   2 ;    O11-    C1-    C2-   O21
  9719   9720   9723   9752      9     0.00   4.18400   3 ;    O11-    C1-    C2-   O21
  9719   9720   9723   9752      9   180.00  -0.41840   1 ;    O11-    C1-    C2-   O21
  9720   9723   9725   9726      9     0.00   0.65270   3 ;     C1-    C2-    C3-    HA
  9720   9723   9725   9727      9     0.00   0.65270   3 ;     C1-    C2-    C3-    HB
  9720   9723   9725   9728      9   180.00   3.34720   1 ;     C1-    C2-    C3-   O31
  9720   9723   9752   9753      9     0.00  -0.41840   1 ;     C1-    C2-   O21-   C21
  9721   9720   9723   9724      9     0.00   0.65270   3 ;     HR-    C1-    C2-    HX
  9721   9720   9723   9725      9     0.00   0.65270   3 ;     HR-    C1-    C2-    C3
  9721   9720   9723   9752      9     0.00   0.00000   0 ;     HR-    C1-    C2-   O21
  9721   9720   9723   9752      9     0.00   1.04600   1 ;     HR-    C1-    C2-   O21
  9722   9720   9723   9724      9     0.00   0.65270   3 ;     HS-    C1-    C2-    HX
  9722   9720   9723   9725      9     0.00   0.65270   3 ;     HS-    C1-    C2-    C3
  9722   9720   9723   9752      9     0.00   0.00000   0 ;     HS-    C1-    C2-   O21
  9722   9720   9723   9752      9     0.00   1.04600   1 ;     HS-    C1-    C2-   O21
  9723   9725   9728   9729      9     0.00   0.00000   0 ;     C2-    C3-   O31-   P31
  9723   9725   9728   9729      9   180.00  -3.34720   2 ;     C2-    C3-   O31-   P31
  9723   9752   9753   9754      9   180.00   5.85760   1 ;     C2-   O21-   C21-   O22
  9723   9752   9753   9754      9   180.00  11.29680   2 ;     C2-   O21-   C21-   O22
  9723   9752   9753   9792      9   180.00  11.29680   2 ;     C2-   O21-   C21-   C12
  9724   9723   9725   9726      9     0.00   0.65270   3 ;     HX-    C2-    C3-    HA
  9724   9723   9725   9727      9     0.00   0.65270   3 ;     HX-    C2-    C3-    HB
  9724   9723   9725   9728      9     0.00   0.00000   0 ;     HX-    C2-    C3-   O31
  9724   9723   9725   9728      9     0.00   1.04600   1 ;     HX-    C2-    C3-   O31
  9724   9723   9752   9753      9     0.00   1.60247   3 ;     HX-    C2-   O21-   C21
  9725   9723   9752   9753      9     0.00  -0.41840   1 ;     C3-    C2-   O21-   C21
  9725   9728   9729   9730      9     0.00   2.51040   3 ;     C3-   O31-   P31-   O32
  9725   9728   9729   9730      9     0.00   9.62320   2 ;     C3-   O31-   P31-   O32
  9725   9728   9729   9750      9     0.00   0.00000   0 ;     C3-   O31-   P31-   O33
  9725   9728   9729   9750      9     0.00   0.00000   0 ;     C3-   O31-   P31-   O33
  9725   9728   9729   9750      9     0.00   0.00000   0 ;     C3-   O31-   P31-   O33
  9725   9728   9729   9750      9     0.00   0.00000   0 ;     C3-   O31-   P31-   O33
  9725   9728   9729   9750      9     0.00   0.83680   2 ;     C3-   O31-   P31-   O33
  9725   9728   9729   9751      9     0.00   0.00000   0 ;     C3-   O31-   P31-   O34
  9725   9728   9729   9751      9     0.00   0.00000   0 ;     C3-   O31-   P31-   O34
  9725   9728   9729   9751      9     0.00   0.00000   0 ;     C3-   O31-   P31-   O34
  9725   9728   9729   9751      9     0.00   0.00000   0 ;     C3-   O31-   P31-   O34
  9725   9728   9729   9751      9     0.00   0.83680   2 ;     C3-   O31-   P31-   O34
  9726   9725   9723   9752      9     0.00   0.00000   0 ;     HA-    C3-    C2-   O21
  9726   9725   9723   9752      9     0.00   1.04600   1 ;     HA-    C3-    C2-   O21
  9726   9725   9728   9729      9     0.00   0.00000   0 ;     HA-    C3-   O31-   P31
  9726   9725   9728   9729      9     0.00   0.00000   0 ;     HA-    C3-   O31-   P31
  9726   9725   9728   9729      9     0.00   0.00000   0 ;     HA-    C3-   O31-   P31
  9726   9725   9728   9729      9     0.00   0.00000   0 ;     HA-    C3-   O31-   P31
  9726   9725   9728   9729      9     0.00   1.60247   3 ;     HA-    C3-   O31-   P31
  9727   9725   9723   9752      9     0.00   0.00000   0 ;     HB-    C3-    C2-   O21
  9727   9725   9723   9752      9     0.00   1.04600   1 ;     HB-    C3-    C2-   O21
  9727   9725   9728   9729      9     0.00   0.00000   0 ;     HB-    C3-   O31-   P31
  9727   9725   9728   9729      9     0.00   0.00000   0 ;     HB-    C3-   O31-   P31
  9727   9725   9728   9729      9     0.00   0.00000   0 ;     HB-    C3-   O31-   P31
  9727   9725   9728   9729      9     0.00   0.00000   0 ;     HB-    C3-   O31-   P31
  9727   9725   9728   9729      9     0.00   1.60247   3 ;     HB-    C3-   O31-   P31
  9728   9725   9723   9752      9     0.00   0.00000   0 ;    O31-    C3-    C2-   O21
  9728   9725   9723   9752      9     0.00   0.00000   0 ;    O31-    C3-    C2-   O21
  9728   9725   9723   9752      9     0.00   0.00000   0 ;    O31-    C3-    C2-   O21
  9728   9725   9723   9752      9     0.00   0.00000   0 ;    O31-    C3-    C2-   O21
  9728   9725   9723   9752      9     0.00   0.00000   0 ;    O31-    C3-    C2-   O21
  9728   9729   9730   9731      9     0.00   2.51040   3 ;    O31-   P31-   O32-   C31
  9728   9729   9730   9731      9     0.00   9.62320   2 ;    O31-   P31-   O32-   C31
  9729   9730   9731   9732      9     0.00   0.00000   0 ;    P31-   O32-   C31-   H1A
  9729   9730   9731   9732      9     0.00   0.00000   0 ;    P31-   O32-   C31-   H1A
  9729   9730   9731   9732      9     0.00   0.00000   0 ;    P31-   O32-   C31-   H1A
  9729   9730   9731   9732      9     0.00   0.00000   0 ;    P31-   O32-   C31-   H1A
  9729   9730   9731   9732      9     0.00   1.60247   3 ;    P31-   O32-   C31-   H1A
  9729   9730   9731   9733      9     0.00   0.00000   0 ;    P31-   O32-   C31-   H1B
  9729   9730   9731   9733      9     0.00   0.00000   0 ;    P31-   O32-   C31-   H1B
  9729   9730   9731   9733      9     0.00   0.00000   0 ;    P31-   O32-   C31-   H1B
  9729   9730   9731   9733      9     0.00   0.00000   0 ;    P31-   O32-   C31-   H1B
  9729   9730   9731   9733      9     0.00   1.60247   3 ;    P31-   O32-   C31-   H1B
  9729   9730   9731   9734      9     0.00   0.00000   0 ;    P31-   O32-   C31-   C32
  9729   9730   9731   9734      9   180.00  -3.34720   2 ;    P31-   O32-   C31-   C32
  9730   9731   9734   9735      9     0.00   0.65270   3 ;    O32-   C31-   C32-   H2A
  9730   9731   9734   9736      9     0.00   0.65270   3 ;    O32-   C31-   C32-   H2B
  9730   9731   9734   9737      9     0.00   4.18400   3 ;    O32-   C31-   C32-   N31
  9731   9730   9729   9750      9     0.00   0.00000   0 ;    C31-   O32-   P31-   O33
  9731   9730   9729   9750      9     0.00   0.00000   0 ;    C31-   O32-   P31-   O33
  9731   9730   9729   9750      9     0.00   0.00000   0 ;    C31-   O32-   P31-   O33
  9731   9730   9729   9750      9     0.00   0.00000   0 ;    C31-   O32-   P31-   O33
  9731   9730   9729   9750      9     0.00   0.83680   2 ;    C31-   O32-   P31-   O33
  9731   9730   9729   9751      9     0.00   0.00000   0 ;    C31-   O32-   P31-   O34
  9731   9730   9729   9751      9     0.00   0.00000   0 ;    C31-   O32-   P31-   O34
  9731   9730   9729   9751      9     0.00   0.00000   0 ;    C31-   O32-   P31-   O34
  9731   9730   9729   9751      9     0.00   0.00000   0 ;    C31-   O32-   P31-   O34
  9731   9730   9729   9751      9     0.00   0.83680   2 ;    C31-   O32-   P31-   O34
  9731   9734   9737   9738      9     0.00   0.65270   3 ;    C31-   C32-   N31-   C33
  9731   9734   9737   9742      9     0.00   0.65270   3 ;    C31-   C32-   N31-   C34
  9731   9734   9737   9746      9     0.00   0.65270   3 ;    C31-   C32-   N31-   C35
  9732   9731   9734   9735      9     0.00   0.65270   3 ;    H1A-   C31-   C32-   H2A
  9732   9731   9734   9736      9     0.00   0.65270   3 ;    H1A-   C31-   C32-   H2B
  9732   9731   9734   9737      9     0.00   0.65270   3 ;    H1A-   C31-   C32-   N31
  9733   9731   9734   9735      9     0.00   0.65270   3 ;    H1B-   C31-   C32-   H2A
  9733   9731   9734   9736      9     0.00   0.65270   3 ;    H1B-   C31-   C32-   H2B
  9733   9731   9734   9737      9     0.00   0.65270   3 ;    H1B-   C31-   C32-   N31
  9734   9737   9738   9739      9     0.00   0.65270   3 ;    C32-   N31-   C33-   H3A
  9734   9737   9738   9740      9     0.00   0.65270   3 ;    C32-   N31-   C33-   H3B
  9734   9737   9738   9741      9     0.00   0.65270   3 ;    C32-   N31-   C33-   H3C
  9734   9737   9742   9743      9     0.00   0.65270   3 ;    C32-   N31-   C34-   H4A
  9734   9737   9742   9744      9     0.00   0.65270   3 ;    C32-   N31-   C34-   H4B
  9734   9737   9742   9745      9     0.00   0.65270   3 ;    C32-   N31-   C34-   H4C
  9734   9737   9746   9747      9     0.00   0.65270   3 ;    C32-   N31-   C35-   H5A
  9734   9737   9746   9748      9     0.00   0.65270   3 ;    C32-   N31-   C35-   H5B
  9734   9737   9746   9749      9     0.00   0.65270   3 ;    C32-   N31-   C35-   H5C
  9735   9734   9737   9738      9     0.00   0.65270   3 ;    H2A-   C32-   N31-   C33
  9735   9734   9737   9742      9     0.00   0.65270   3 ;    H2A-   C32-   N31-   C34
  9735   9734   9737   9746      9     0.00   0.65270   3 ;    H2A-   C32-   N31-   C35
  9736   9734   9737   9738      9     0.00   0.65270   3 ;    H2B-   C32-   N31-   C33
  9736   9734   9737   9742      9     0.00   0.65270   3 ;    H2B-   C32-   N31-   C34
  9736   9734   9737   9746      9     0.00   0.65270   3 ;    H2B-   C32-   N31-   C35
  9738   9737   9742   9743      9     0.00   0.65270   3 ;    C33-   N31-   C34-   H4A
  9738   9737   9742   9744      9     0.00   0.65270   3 ;    C33-   N31-   C34-   H4B
  9738   9737   9742   9745      9     0.00   0.65270   3 ;    C33-   N31-   C34-   H4C
  9738   9737   9746   9747      9     0.00   0.65270   3 ;    C33-   N31-   C35-   H5A
  9738   9737   9746   9748      9     0.00   0.65270   3 ;    C33-   N31-   C35-   H5B
  9738   9737   9746   9749      9     0.00   0.65270   3 ;    C33-   N31-   C35-   H5C
  9739   9738   9737   9742      9     0.00   0.65270   3 ;    H3A-   C33-   N31-   C34
  9739   9738   9737   9746      9     0.00   0.65270   3 ;    H3A-   C33-   N31-   C35
  9740   9738   9737   9742      9     0.00   0.65270   3 ;    H3B-   C33-   N31-   C34
  9740   9738   9737   9746      9     0.00   0.65270   3 ;    H3B-   C33-   N31-   C35
  9741   9738   9737   9742      9     0.00   0.65270   3 ;    H3C-   C33-   N31-   C34
  9741   9738   9737   9746      9     0.00   0.65270   3 ;    H3C-   C33-   N31-   C35
  9742   9737   9746   9747      9     0.00   0.65270   3 ;    C34-   N31-   C35-   H5A
  9742   9737   9746   9748      9     0.00   0.65270   3 ;    C34-   N31-   C35-   H5B
  9742   9737   9746   9749      9     0.00   0.65270   3 ;    C34-   N31-   C35-   H5C
  9743   9742   9737   9746      9     0.00   0.65270   3 ;    H4A-   C34-   N31-   C35
  9744   9742   9737   9746      9     0.00   0.65270   3 ;    H4B-   C34-   N31-   C35
  9745   9742   9737   9746      9     0.00   0.65270   3 ;    H4C-   C34-   N31-   C35
  9752   9753   9792   9789      9   180.00   0.00000   2 ;    O21-   C21-   C12-   C13
  9752   9753   9792   9793      9   180.00   0.00000   2 ;    O21-   C21-   C12-   H2R
  9752   9753   9792   9794      9   180.00   0.00000   2 ;    O21-   C21-   C12-   H2S
  9753   9792   9789   9786      9     0.00   0.65270   3 ;    C21-   C12-   C13-   C14
  9753   9792   9789   9790      9     0.00   0.65270   3 ;    C21-   C12-   C13-   H3R
  9753   9792   9789   9791      9     0.00   0.65270   3 ;    C21-   C12-   C13-   H3S
  9754   9753   9792   9789      9   180.00   0.00000   2 ;    O22-   C21-   C12-   C13
  9754   9753   9792   9793      9     0.00   3.34720   1 ;    O22-   C21-   C12-   H2R
  9754   9753   9792   9793      9   180.00   0.33472   3 ;    O22-   C21-   C12-   H2R
  9754   9753   9792   9794      9     0.00   3.34720   1 ;    O22-   C21-   C12-   H2S
  9754   9753   9792   9794      9   180.00   0.33472   3 ;    O22-   C21-   C12-   H2S
  9755   9756   9759   9760      9     0.00   0.62760   3 ;   H14T-  C114-  C113-  H13R
  9755   9756   9759   9761      9     0.00   0.62760   3 ;   H14T-  C114-  C113-  H13S
  9755   9756   9759   9762      9     0.00   0.66944   3 ;   H14T-  C114-  C113-  C112
  9756   9759   9762   9763      9     0.00   0.66944   3 ;   C114-  C113-  C112-  H12R
  9756   9759   9762   9764      9     0.00   0.66944   3 ;   C114-  C113-  C112-  H12S
  9756   9759   9762   9765      9     0.00   0.41840   1 ;   C114-  C113-  C112-  C111
  9756   9759   9762   9765      9     0.00   0.41840   2 ;   C114-  C113-  C112-  C111
  9756   9759   9762   9765      9     0.00   0.41840   4 ;   C114-  C113-  C112-  C111
  9756   9759   9762   9765      9     0.00   0.41840   5 ;   C114-  C113-  C112-  C111
  9756   9759   9762   9765      9     0.00   1.25520   3 ;   C114-  C113-  C112-  C111
  9757   9756   9759   9760      9     0.00   0.62760   3 ;   H14R-  C114-  C113-  H13R
  9757   9756   9759   9761      9     0.00   0.62760   3 ;   H14R-  C114-  C113-  H13S
  9757   9756   9759   9762      9     0.00   0.66944   3 ;   H14R-  C114-  C113-  C112
  9758   9756   9759   9760      9     0.00   0.62760   3 ;   H14S-  C114-  C113-  H13R
  9758   9756   9759   9761      9     0.00   0.62760   3 ;   H14S-  C114-  C113-  H13S
  9758   9756   9759   9762      9     0.00   0.66944   3 ;   H14S-  C114-  C113-  C112
  9759   9762   9765   9766      9     0.00   0.66944   3 ;   C113-  C112-  C111-  H11R
  9759   9762   9765   9767      9     0.00   0.66944   3 ;   C113-  C112-  C111-  H11S
  9759   9762   9765   9768      9     0.00   0.41840   1 ;   C113-  C112-  C111-  C110
  9759   9762   9765   9768      9     0.00   0.41840   2 ;   C113-  C112-  C111-  C110
  9759   9762   9765   9768      9     0.00   0.41840   4 ;   C113-  C112-  C111-  C110
  9759   9762   9765   9768      9     0.00   0.41840   5 ;   C113-  C112-  C111-  C110
  9759   9762   9765   9768      9     0.00   1.25520   3 ;   C113-  C112-  C111-  C110
  9760   9759   9762   9763      9     0.00   0.62760   3 ;   H13R-  C113-  C112-  H12R
  9760   9759   9762   9764      9     0.00   0.62760   3 ;   H13R-  C113-  C112-  H12S
  9760   9759   9762   9765      9     0.00   0.66944   3 ;   H13R-  C113-  C112-  C111
  9761   9759   9762   9763      9     0.00   0.62760   3 ;   H13S-  C113-  C112-  H12R
  9761   9759   9762   9764      9     0.00   0.62760   3 ;   H13S-  C113-  C112-  H12S
  9761   9759   9762   9765      9     0.00   0.66944   3 ;   H13S-  C113-  C112-  C111
  9762   9765   9768   9769      9     0.00   0.66944   3 ;   C112-  C111-  C110-  H10R
  9762   9765   9768   9770      9     0.00   0.66944   3 ;   C112-  C111-  C110-  H10S
  9762   9765   9768   9771      9     0.00   0.41840   1 ;   C112-  C111-  C110-   C19
  9762   9765   9768   9771      9     0.00   0.41840   2 ;   C112-  C111-  C110-   C19
  9762   9765   9768   9771      9     0.00   0.41840   4 ;   C112-  C111-  C110-   C19
  9762   9765   9768   9771      9     0.00   0.41840   5 ;   C112-  C111-  C110-   C19
  9762   9765   9768   9771      9     0.00   1.25520   3 ;   C112-  C111-  C110-   C19
  9763   9762   9765   9766      9     0.00   0.62760   3 ;   H12R-  C112-  C111-  H11R
  9763   9762   9765   9767      9     0.00   0.62760   3 ;   H12R-  C112-  C111-  H11S
  9763   9762   9765   9768      9     0.00   0.66944   3 ;   H12R-  C112-  C111-  C110
  9764   9762   9765   9766      9     0.00   0.62760   3 ;   H12S-  C112-  C111-  H11R
  9764   9762   9765   9767      9     0.00   0.62760   3 ;   H12S-  C112-  C111-  H11S
  9764   9762   9765   9768      9     0.00   0.66944   3 ;   H12S-  C112-  C111-  C110
  9765   9768   9771   9772      9     0.00   0.66944   3 ;   C111-  C110-   C19-   H9R
  9765   9768   9771   9773      9     0.00   0.66944   3 ;   C111-  C110-   C19-   H9S
  9765   9768   9771   9774      9     0.00   0.41840   1 ;   C111-  C110-   C19-   C18
  9765   9768   9771   9774      9     0.00   0.41840   2 ;   C111-  C110-   C19-   C18
  9765   9768   9771   9774      9     0.00   0.41840   4 ;   C111-  C110-   C19-   C18
  9765   9768   9771   9774      9     0.00   0.41840   5 ;   C111-  C110-   C19-   C18
  9765   9768   9771   9774      9     0.00   1.25520   3 ;   C111-  C110-   C19-   C18
  9766   9765   9768   9769      9     0.00   0.62760   3 ;   H11R-  C111-  C110-  H10R
  9766   9765   9768   9770      9     0.00   0.62760   3 ;   H11R-  C111-  C110-  H10S
  9766   9765   9768   9771      9     0.00   0.66944   3 ;   H11R-  C111-  C110-   C19
  9767   9765   9768   9769      9     0.00   0.62760   3 ;   H11S-  C111-  C110-  H10R
  9767   9765   9768   9770      9     0.00   0.62760   3 ;   H11S-  C111-  C110-  H10S
  9767   9765   9768   9771      9     0.00   0.66944   3 ;   H11S-  C111-  C110-   C19
  9768   9771   9774   9775      9     0.00   0.66944   3 ;   C110-   C19-   C18-   H8R
  9768   9771   9774   9776      9     0.00   0.66944   3 ;   C110-   C19-   C18-   H8S
  9768   9771   9774   9777      9     0.00   0.41840   1 ;   C110-   C19-   C18-   C17
  9768   9771   9774   9777      9     0.00   0.41840   2 ;   C110-   C19-   C18-   C17
  9768   9771   9774   9777      9     0.00   0.41840   4 ;   C110-   C19-   C18-   C17
  9768   9771   9774   9777      9     0.00   0.41840   5 ;   C110-   C19-   C18-   C17
  9768   9771   9774   9777      9     0.00   1.25520   3 ;   C110-   C19-   C18-   C17
  9769   9768   9771   9772      9     0.00   0.62760   3 ;   H10R-  C110-   C19-   H9R
  9769   9768   9771   9773      9     0.00   0.62760   3 ;   H10R-  C110-   C19-   H9S
  9769   9768   9771   9774      9     0.00   0.66944   3 ;   H10R-  C110-   C19-   C18
  9770   9768   9771   9772      9     0.00   0.62760   3 ;   H10S-  C110-   C19-   H9R
  9770   9768   9771   9773      9     0.00   0.62760   3 ;   H10S-  C110-   C19-   H9S
  9770   9768   9771   9774      9     0.00   0.66944   3 ;   H10S-  C110-   C19-   C18
  9771   9774   9777   9778      9     0.00   0.66944   3 ;    C19-   C18-   C17-   H7R
  9771   9774   9777   9779      9     0.00   0.66944   3 ;    C19-   C18-   C17-   H7S
  9771   9774   9777   9780      9     0.00   0.41840   1 ;    C19-   C18-   C17-   C16
  9771   9774   9777   9780      9     0.00   0.41840   2 ;    C19-   C18-   C17-   C16
  9771   9774   9777   9780      9     0.00   0.41840   4 ;    C19-   C18-   C17-   C16
  9771   9774   9777   9780      9     0.00   0.41840   5 ;    C19-   C18-   C17-   C16
  9771   9774   9777   9780      9     0.00   1.25520   3 ;    C19-   C18-   C17-   C16
  9772   9771   9774   9775      9     0.00   0.62760   3 ;    H9R-   C19-   C18-   H8R
  9772   9771   9774   9776      9     0.00   0.62760   3 ;    H9R-   C19-   C18-   H8S
  9772   9771   9774   9777      9     0.00   0.66944   3 ;    H9R-   C19-   C18-   C17
  9773   9771   9774   9775      9     0.00   0.62760   3 ;    H9S-   C19-   C18-   H8R
  9773   9771   9774   9776      9     0.00   0.62760   3 ;    H9S-   C19-   C18-   H8S
  9773   9771   9774   9777      9     0.00   0.66944   3 ;    H9S-   C19-   C18-   C17
  9774   9777   9780   9781      9     0.00   0.66944   3 ;    C18-   C17-   C16-   H6R
  9774   9777   9780   9782      9     0.00   0.66944   3 ;    C18-   C17-   C16-   H6S
  9774   9777   9780   9783      9     0.00   0.41840   1 ;    C18-   C17-   C16-   C15
  9774   9777   9780   9783      9     0.00   0.41840   2 ;    C18-   C17-   C16-   C15
  9774   9777   9780   9783      9     0.00   0.41840   4 ;    C18-   C17-   C16-   C15
  9774   9777   9780   9783      9     0.00   0.41840   5 ;    C18-   C17-   C16-   C15
  9774   9777   9780   9783      9     0.00   1.25520   3 ;    C18-   C17-   C16-   C15
  9775   9774   9777   9778      9     0.00   0.62760   3 ;    H8R-   C18-   C17-   H7R
  9775   9774   9777   9779      9     0.00   0.62760   3 ;    H8R-   C18-   C17-   H7S
  9775   9774   9777   9780      9     0.00   0.66944   3 ;    H8R-   C18-   C17-   C16
  9776   9774   9777   9778      9     0.00   0.62760   3 ;    H8S-   C18-   C17-   H7R
  9776   9774   9777   9779      9     0.00   0.62760   3 ;    H8S-   C18-   C17-   H7S
  9776   9774   9777   9780      9     0.00   0.66944   3 ;    H8S-   C18-   C17-   C16
  9777   9780   9783   9784      9     0.00   0.66944   3 ;    C17-   C16-   C15-   H5R
  9777   9780   9783   9785      9     0.00   0.66944   3 ;    C17-   C16-   C15-   H5S
  9777   9780   9783   9786      9     0.00   0.41840   1 ;    C17-   C16-   C15-   C14
  9777   9780   9783   9786      9     0.00   0.41840   2 ;    C17-   C16-   C15-   C14
  9777   9780   9783   9786      9     0.00   0.41840   4 ;    C17-   C16-   C15-   C14
  9777   9780   9783   9786      9     0.00   0.41840   5 ;    C17-   C16-   C15-   C14
  9777   9780   9783   9786      9     0.00   1.25520   3 ;    C17-   C16-   C15-   C14
  9778   9777   9780   9781      9     0.00   0.62760   3 ;    H7R-   C17-   C16-   H6R
  9778   9777   9780   9782      9     0.00   0.62760   3 ;    H7R-   C17-   C16-   H6S
  9778   9777   9780   9783      9     0.00   0.66944   3 ;    H7R-   C17-   C16-   C15
  9779   9777   9780   9781      9     0.00   0.62760   3 ;    H7S-   C17-   C16-   H6R
  9779   9777   9780   9782      9     0.00   0.62760   3 ;    H7S-   C17-   C16-   H6S
  9779   9777   9780   9783      9     0.00   0.66944   3 ;    H7S-   C17-   C16-   C15
  9780   9783   9786   9787      9     0.00   0.66944   3 ;    C16-   C15-   C14-   H4R
  9780   9783   9786   9788      9     0.00   0.66944   3 ;    C16-   C15-   C14-   H4S
  9780   9783   9786   9789      9     0.00   0.41840   1 ;    C16-   C15-   C14-   C13
  9780   9783   9786   9789      9     0.00   0.41840   2 ;    C16-   C15-   C14-   C13
  9780   9783   9786   9789      9     0.00   0.41840   4 ;    C16-   C15-   C14-   C13
  9780   9783   9786   9789      9     0.00   0.41840   5 ;    C16-   C15-   C14-   C13
  9780   9783   9786   9789      9     0.00   1.25520   3 ;    C16-   C15-   C14-   C13
  9781   9780   9783   9784      9     0.00   0.62760   3 ;    H6R-   C16-   C15-   H5R
  9781   9780   9783   9785      9     0.00   0.62760   3 ;    H6R-   C16-   C15-   H5S
  9781   9780   9783   9786      9     0.00   0.66944   3 ;    H6R-   C16-   C15-   C14
  9782   9780   9783   9784      9     0.00   0.62760   3 ;    H6S-   C16-   C15-   H5R
  9782   9780   9783   9785      9     0.00   0.62760   3 ;    H6S-   C16-   C15-   H5S
  9782   9780   9783   9786      9     0.00   0.66944   3 ;    H6S-   C16-   C15-   C14
  9783   9786   9789   9790      9     0.00   0.66944   3 ;    C15-   C14-   C13-   H3R
  9783   9786   9789   9791      9     0.00   0.66944   3 ;    C15-   C14-   C13-   H3S
  9783   9786   9789   9792      9     0.00   0.41840   1 ;    C15-   C14-   C13-   C12
  9783   9786   9789   9792      9     0.00   0.41840   2 ;    C15-   C14-   C13-   C12
  9783   9786   9789   9792      9     0.00   0.41840   4 ;    C15-   C14-   C13-   C12
  9783   9786   9789   9792      9     0.00   0.41840   5 ;    C15-   C14-   C13-   C12
  9783   9786   9789   9792      9     0.00   1.25520   3 ;    C15-   C14-   C13-   C12
  9784   9783   9786   9787      9     0.00   0.62760   3 ;    H5R-   C15-   C14-   H4R
  9784   9783   9786   9788      9     0.00   0.62760   3 ;    H5R-   C15-   C14-   H4S
  9784   9783   9786   9789      9     0.00   0.66944   3 ;    H5R-   C15-   C14-   C13
  9785   9783   9786   9787      9     0.00   0.62760   3 ;    H5S-   C15-   C14-   H4R
  9785   9783   9786   9788      9     0.00   0.62760   3 ;    H5S-   C15-   C14-   H4S
  9785   9783   9786   9789      9     0.00   0.66944   3 ;    H5S-   C15-   C14-   C13
  9786   9789   9792   9793      9     0.00   0.66944   3 ;    C14-   C13-   C12-   H2R
  9786   9789   9792   9794      9     0.00   0.66944   3 ;    C14-   C13-   C12-   H2S
  9787   9786   9789   9790      9     0.00   0.62760   3 ;    H4R-   C14-   C13-   H3R
  9787   9786   9789   9791      9     0.00   0.62760   3 ;    H4R-   C14-   C13-   H3S
  9787   9786   9789   9792      9     0.00   0.66944   3 ;    H4R-   C14-   C13-   C12
  9788   9786   9789   9790      9     0.00   0.62760   3 ;    H4S-   C14-   C13-   H3R
  9788   9786   9789   9791      9     0.00   0.62760   3 ;    H4S-   C14-   C13-   H3S
  9788   9786   9789   9792      9     0.00   0.66944   3 ;    H4S-   C14-   C13-   C12
  9790   9789   9792   9793      9     0.00   0.62760   3 ;    H3R-   C13-   C12-   H2R
  9790   9789   9792   9794      9     0.00   0.62760   3 ;    H3R-   C13-   C12-   H2S
  9791   9789   9792   9793      9     0.00   0.62760   3 ;    H3S-   C13-   C12-   H2R
  9791   9789   9792   9794      9     0.00   0.62760   3 ;    H3S-   C13-   C12-   H2S
  9795   9796   9799   9800      9     0.00   0.62760   3 ;   H14T-  C114-  C113-  H13R
  9795   9796   9799   9801      9     0.00   0.62760   3 ;   H14T-  C114-  C113-  H13S
  9795   9796   9799   9802      9     0.00   0.66944   3 ;   H14T-  C114-  C113-  C112
  9796   9799   9802   9803      9     0.00   0.66944   3 ;   C114-  C113-  C112-  H12R
  9796   9799   9802   9804      9     0.00   0.66944   3 ;   C114-  C113-  C112-  H12S
  9796   9799   9802   9805      9     0.00   0.41840   1 ;   C114-  C113-  C112-  C111
  9796   9799   9802   9805      9     0.00   0.41840   2 ;   C114-  C113-  C112-  C111
  9796   9799   9802   9805      9     0.00   0.41840   4 ;   C114-  C113-  C112-  C111
  9796   9799   9802   9805      9     0.00   0.41840   5 ;   C114-  C113-  C112-  C111
  9796   9799   9802   9805      9     0.00   1.25520   3 ;   C114-  C113-  C112-  C111
  9797   9796   9799   9800      9     0.00   0.62760   3 ;   H14R-  C114-  C113-  H13R
  9797   9796   9799   9801      9     0.00   0.62760   3 ;   H14R-  C114-  C113-  H13S
  9797   9796   9799   9802      9     0.00   0.66944   3 ;   H14R-  C114-  C113-  C112
  9798   9796   9799   9800      9     0.00   0.62760   3 ;   H14S-  C114-  C113-  H13R
  9798   9796   9799   9801      9     0.00   0.62760   3 ;   H14S-  C114-  C113-  H13S
  9798   9796   9799   9802      9     0.00   0.66944   3 ;   H14S-  C114-  C113-  C112
  9799   9802   9805   9806      9     0.00   0.66944   3 ;   C113-  C112-  C111-  H11R
  9799   9802   9805   9807      9     0.00   0.66944   3 ;   C113-  C112-  C111-  H11S
  9799   9802   9805   9808      9     0.00   0.41840   1 ;   C113-  C112-  C111-  C110
  9799   9802   9805   9808      9     0.00   0.41840   2 ;   C113-  C112-  C111-  C110
  9799   9802   9805   9808      9     0.00   0.41840   4 ;   C113-  C112-  C111-  C110
  9799   9802   9805   9808      9     0.00   0.41840   5 ;   C113-  C112-  C111-  C110
  9799   9802   9805   9808      9     0.00   1.25520   3 ;   C113-  C112-  C111-  C110
  9800   9799   9802   9803      9     0.00   0.62760   3 ;   H13R-  C113-  C112-  H12R
  9800   9799   9802   9804      9     0.00   0.62760   3 ;   H13R-  C113-  C112-  H12S
  9800   9799   9802   9805      9     0.00   0.66944   3 ;   H13R-  C113-  C112-  C111
  9801   9799   9802   9803      9     0.00   0.62760   3 ;   H13S-  C113-  C112-  H12R
  9801   9799   9802   9804      9     0.00   0.62760   3 ;   H13S-  C113-  C112-  H12S
  9801   9799   9802   9805      9     0.00   0.66944   3 ;   H13S-  C113-  C112-  C111
  9802   9805   9808   9809      9     0.00   0.66944   3 ;   C112-  C111-  C110-  H10R
  9802   9805   9808   9810      9     0.00   0.66944   3 ;   C112-  C111-  C110-  H10S
  9802   9805   9808   9811      9     0.00   0.41840   1 ;   C112-  C111-  C110-   C19
  9802   9805   9808   9811      9     0.00   0.41840   2 ;   C112-  C111-  C110-   C19
  9802   9805   9808   9811      9     0.00   0.41840   4 ;   C112-  C111-  C110-   C19
  9802   9805   9808   9811      9     0.00   0.41840   5 ;   C112-  C111-  C110-   C19
  9802   9805   9808   9811      9     0.00   1.25520   3 ;   C112-  C111-  C110-   C19
  9803   9802   9805   9806      9     0.00   0.62760   3 ;   H12R-  C112-  C111-  H11R
  9803   9802   9805   9807      9     0.00   0.62760   3 ;   H12R-  C112-  C111-  H11S
  9803   9802   9805   9808      9     0.00   0.66944   3 ;   H12R-  C112-  C111-  C110
  9804   9802   9805   9806      9     0.00   0.62760   3 ;   H12S-  C112-  C111-  H11R
  9804   9802   9805   9807      9     0.00   0.62760   3 ;   H12S-  C112-  C111-  H11S
  9804   9802   9805   9808      9     0.00   0.66944   3 ;   H12S-  C112-  C111-  C110
  9805   9808   9811   9812      9     0.00   0.66944   3 ;   C111-  C110-   C19-   H9R
  9805   9808   9811   9813      9     0.00   0.66944   3 ;   C111-  C110-   C19-   H9S
  9805   9808   9811   9814      9     0.00   0.41840   1 ;   C111-  C110-   C19-   C18
  9805   9808   9811   9814      9     0.00   0.41840   2 ;   C111-  C110-   C19-   C18
  9805   9808   9811   9814      9     0.00   0.41840   4 ;   C111-  C110-   C19-   C18
  9805   9808   9811   9814      9     0.00   0.41840   5 ;   C111-  C110-   C19-   C18
  9805   9808   9811   9814      9     0.00   1.25520   3 ;   C111-  C110-   C19-   C18
  9806   9805   9808   9809      9     0.00   0.62760   3 ;   H11R-  C111-  C110-  H10R
  9806   9805   9808   9810      9     0.00   0.62760   3 ;   H11R-  C111-  C110-  H10S
  9806   9805   9808   9811      9     0.00   0.66944   3 ;   H11R-  C111-  C110-   C19
  9807   9805   9808   9809      9     0.00   0.62760   3 ;   H11S-  C111-  C110-  H10R
  9807   9805   9808   9810      9     0.00   0.62760   3 ;   H11S-  C111-  C110-  H10S
  9807   9805   9808   9811      9     0.00   0.66944   3 ;   H11S-  C111-  C110-   C19
  9808   9811   9814   9815      9     0.00   0.66944   3 ;   C110-   C19-   C18-   H8R
  9808   9811   9814   9816      9     0.00   0.66944   3 ;   C110-   C19-   C18-   H8S
  9808   9811   9814   9817      9     0.00   0.41840   1 ;   C110-   C19-   C18-   C17
  9808   9811   9814   9817      9     0.00   0.41840   2 ;   C110-   C19-   C18-   C17
  9808   9811   9814   9817      9     0.00   0.41840   4 ;   C110-   C19-   C18-   C17
  9808   9811   9814   9817      9     0.00   0.41840   5 ;   C110-   C19-   C18-   C17
  9808   9811   9814   9817      9     0.00   1.25520   3 ;   C110-   C19-   C18-   C17
  9809   9808   9811   9812      9     0.00   0.62760   3 ;   H10R-  C110-   C19-   H9R
  9809   9808   9811   9813      9     0.00   0.62760   3 ;   H10R-  C110-   C19-   H9S
  9809   9808   9811   9814      9     0.00   0.66944   3 ;   H10R-  C110-   C19-   C18
  9810   9808   9811   9812      9     0.00   0.62760   3 ;   H10S-  C110-   C19-   H9R
  9810   9808   9811   9813      9     0.00   0.62760   3 ;   H10S-  C110-   C19-   H9S
  9810   9808   9811   9814      9     0.00   0.66944   3 ;   H10S-  C110-   C19-   C18
  9811   9814   9817   9818      9     0.00   0.66944   3 ;    C19-   C18-   C17-   H7R
  9811   9814   9817   9819      9     0.00   0.66944   3 ;    C19-   C18-   C17-   H7S
  9811   9814   9817   9820      9     0.00   0.41840   1 ;    C19-   C18-   C17-   C16
  9811   9814   9817   9820      9     0.00   0.41840   2 ;    C19-   C18-   C17-   C16
  9811   9814   9817   9820      9     0.00   0.41840   4 ;    C19-   C18-   C17-   C16
  9811   9814   9817   9820      9     0.00   0.41840   5 ;    C19-   C18-   C17-   C16
  9811   9814   9817   9820      9     0.00   1.25520   3 ;    C19-   C18-   C17-   C16
  9812   9811   9814   9815      9     0.00   0.62760   3 ;    H9R-   C19-   C18-   H8R
  9812   9811   9814   9816      9     0.00   0.62760   3 ;    H9R-   C19-   C18-   H8S
  9812   9811   9814   9817      9     0.00   0.66944   3 ;    H9R-   C19-   C18-   C17
  9813   9811   9814   9815      9     0.00   0.62760   3 ;    H9S-   C19-   C18-   H8R
  9813   9811   9814   9816      9     0.00   0.62760   3 ;    H9S-   C19-   C18-   H8S
  9813   9811   9814   9817      9     0.00   0.66944   3 ;    H9S-   C19-   C18-   C17
  9814   9817   9820   9821      9     0.00   0.66944   3 ;    C18-   C17-   C16-   H6R
  9814   9817   9820   9822      9     0.00   0.66944   3 ;    C18-   C17-   C16-   H6S
  9814   9817   9820   9823      9     0.00   0.41840   1 ;    C18-   C17-   C16-   C15
  9814   9817   9820   9823      9     0.00   0.41840   2 ;    C18-   C17-   C16-   C15
  9814   9817   9820   9823      9     0.00   0.41840   4 ;    C18-   C17-   C16-   C15
  9814   9817   9820   9823      9     0.00   0.41840   5 ;    C18-   C17-   C16-   C15
  9814   9817   9820   9823      9     0.00   1.25520   3 ;    C18-   C17-   C16-   C15
  9815   9814   9817   9818      9     0.00   0.62760   3 ;    H8R-   C18-   C17-   H7R
  9815   9814   9817   9819      9     0.00   0.62760   3 ;    H8R-   C18-   C17-   H7S
  9815   9814   9817   9820      9     0.00   0.66944   3 ;    H8R-   C18-   C17-   C16
  9816   9814   9817   9818      9     0.00   0.62760   3 ;    H8S-   C18-   C17-   H7R
  9816   9814   9817   9819      9     0.00   0.62760   3 ;    H8S-   C18-   C17-   H7S
  9816   9814   9817   9820      9     0.00   0.66944   3 ;    H8S-   C18-   C17-   C16
  9817   9820   9823   9824      9     0.00   0.66944   3 ;    C17-   C16-   C15-   H5R
  9817   9820   9823   9825      9     0.00   0.66944   3 ;    C17-   C16-   C15-   H5S
  9817   9820   9823   9826      9     0.00   0.41840   1 ;    C17-   C16-   C15-   C14
  9817   9820   9823   9826      9     0.00   0.41840   2 ;    C17-   C16-   C15-   C14
  9817   9820   9823   9826      9     0.00   0.41840   4 ;    C17-   C16-   C15-   C14
  9817   9820   9823   9826      9     0.00   0.41840   5 ;    C17-   C16-   C15-   C14
  9817   9820   9823   9826      9     0.00   1.25520   3 ;    C17-   C16-   C15-   C14
  9818   9817   9820   9821      9     0.00   0.62760   3 ;    H7R-   C17-   C16-   H6R
  9818   9817   9820   9822      9     0.00   0.62760   3 ;    H7R-   C17-   C16-   H6S
  9818   9817   9820   9823      9     0.00   0.66944   3 ;    H7R-   C17-   C16-   C15
  9819   9817   9820   9821      9     0.00   0.62760   3 ;    H7S-   C17-   C16-   H6R
  9819   9817   9820   9822      9     0.00   0.62760   3 ;    H7S-   C17-   C16-   H6S
  9819   9817   9820   9823      9     0.00   0.66944   3 ;    H7S-   C17-   C16-   C15
  9820   9823   9826   9827      9     0.00   0.66944   3 ;    C16-   C15-   C14-   H4R
  9820   9823   9826   9828      9     0.00   0.66944   3 ;    C16-   C15-   C14-   H4S
  9820   9823   9826   9829      9     0.00   0.41840   1 ;    C16-   C15-   C14-   C13
  9820   9823   9826   9829      9     0.00   0.41840   2 ;    C16-   C15-   C14-   C13
  9820   9823   9826   9829      9     0.00   0.41840   4 ;    C16-   C15-   C14-   C13
  9820   9823   9826   9829      9     0.00   0.41840   5 ;    C16-   C15-   C14-   C13
  9820   9823   9826   9829      9     0.00   1.25520   3 ;    C16-   C15-   C14-   C13
  9821   9820   9823   9824      9     0.00   0.62760   3 ;    H6R-   C16-   C15-   H5R
  9821   9820   9823   9825      9     0.00   0.62760   3 ;    H6R-   C16-   C15-   H5S
  9821   9820   9823   9826      9     0.00   0.66944   3 ;    H6R-   C16-   C15-   C14
  9822   9820   9823   9824      9     0.00   0.62760   3 ;    H6S-   C16-   C15-   H5R
  9822   9820   9823   9825      9     0.00   0.62760   3 ;    H6S-   C16-   C15-   H5S
  9822   9820   9823   9826      9     0.00   0.66944   3 ;    H6S-   C16-   C15-   C14
  9823   9826   9829   9830      9     0.00   0.66944   3 ;    C15-   C14-   C13-   H3R
  9823   9826   9829   9831      9     0.00   0.66944   3 ;    C15-   C14-   C13-   H3S
  9823   9826   9829   9832      9     0.00   0.41840   1 ;    C15-   C14-   C13-   C12
  9823   9826   9829   9832      9     0.00   0.41840   2 ;    C15-   C14-   C13-   C12
  9823   9826   9829   9832      9     0.00   0.41840   4 ;    C15-   C14-   C13-   C12
  9823   9826   9829   9832      9     0.00   0.41840   5 ;    C15-   C14-   C13-   C12
  9823   9826   9829   9832      9     0.00   1.25520   3 ;    C15-   C14-   C13-   C12
  9824   9823   9826   9827      9     0.00   0.62760   3 ;    H5R-   C15-   C14-   H4R
  9824   9823   9826   9828      9     0.00   0.62760   3 ;    H5R-   C15-   C14-   H4S
  9824   9823   9826   9829      9     0.00   0.66944   3 ;    H5R-   C15-   C14-   C13
  9825   9823   9826   9827      9     0.00   0.62760   3 ;    H5S-   C15-   C14-   H4R
  9825   9823   9826   9828      9     0.00   0.62760   3 ;    H5S-   C15-   C14-   H4S
  9825   9823   9826   9829      9     0.00   0.66944   3 ;    H5S-   C15-   C14-   C13
  9826   9829   9832   9833      9     0.00   0.66944   3 ;    C14-   C13-   C12-   H2R
  9826   9829   9832   9834      9     0.00   0.66944   3 ;    C14-   C13-   C12-   H2S
  9826   9829   9832   9835      9     0.00   0.65270   3 ;    C14-   C13-   C12-   C11
  9827   9826   9829   9830      9     0.00   0.62760   3 ;    H4R-   C14-   C13-   H3R
  9827   9826   9829   9831      9     0.00   0.62760   3 ;    H4R-   C14-   C13-   H3S
  9827   9826   9829   9832      9     0.00   0.66944   3 ;    H4R-   C14-   C13-   C12
  9828   9826   9829   9830      9     0.00   0.62760   3 ;    H4S-   C14-   C13-   H3R
  9828   9826   9829   9831      9     0.00   0.62760   3 ;    H4S-   C14-   C13-   H3S
  9828   9826   9829   9832      9     0.00   0.66944   3 ;    H4S-   C14-   C13-   C12
  9829   9832   9835   9836      9   180.00   0.00000   2 ;    C13-   C12-   C11-   O12
  9829   9832   9835   9837      9   180.00   0.00000   2 ;    C13-   C12-   C11-   O11
  9830   9829   9832   9833      9     0.00   0.62760   3 ;    H3R-   C13-   C12-   H2R
  9830   9829   9832   9834      9     0.00   0.62760   3 ;    H3R-   C13-   C12-   H2S
  9830   9829   9832   9835      9     0.00   0.65270   3 ;    H3R-   C13-   C12-   C11
  9831   9829   9832   9833      9     0.00   0.62760   3 ;    H3S-   C13-   C12-   H2R
  9831   9829   9832   9834      9     0.00   0.62760   3 ;    H3S-   C13-   C12-   H2S
  9831   9829   9832   9835      9     0.00   0.65270   3 ;    H3S-   C13-   C12-   C11
  9832   9835   9837   9838      9   180.00  11.29680   2 ;    C12-   C11-   O11-    C1
  9833   9832   9835   9836      9     0.00   3.34720   1 ;    H2R-   C12-   C11-   O12
  9833   9832   9835   9836      9   180.00   0.33472   3 ;    H2R-   C12-   C11-   O12
  9833   9832   9835   9837      9   180.00   0.00000   2 ;    H2R-   C12-   C11-   O11
  9834   9832   9835   9836      9     0.00   3.34720   1 ;    H2S-   C12-   C11-   O12
  9834   9832   9835   9836      9   180.00   0.33472   3 ;    H2S-   C12-   C11-   O12
  9834   9832   9835   9837      9   180.00   0.00000   2 ;    H2S-   C12-   C11-   O11
  9835   9837   9838   9839      9     0.00   1.60247   3 ;    C11-   O11-    C1-    HR
  9835   9837   9838   9840      9     0.00   1.60247   3 ;    C11-   O11-    C1-    HS
  9835   9837   9838   9841      9     0.00  -0.41840   1 ;    C11-   O11-    C1-    C2
  9836   9835   9837   9838      9   180.00   5.85760   1 ;    O12-   C11-   O11-    C1
  9836   9835   9837   9838      9   180.00  11.29680   2 ;    O12-   C11-   O11-    C1
  9837   9838   9841   9842      9     0.00   0.00000   0 ;    O11-    C1-    C2-    HX
  9837   9838   9841   9842      9     0.00   1.04600   1 ;    O11-    C1-    C2-    HX
  9837   9838   9841   9843      9     0.00   0.00000   0 ;    O11-    C1-    C2-    C3
  9837   9838   9841   9843      9     0.00   0.00000   0 ;    O11-    C1-    C2-    C3
  9837   9838   9841   9843      9     0.00   0.00000   0 ;    O11-    C1-    C2-    C3
  9837   9838   9841   9843      9     0.00   0.00000   0 ;    O11-    C1-    C2-    C3
  9837   9838   9841   9843      9     0.00   0.00000   0 ;    O11-    C1-    C2-    C3
  9837   9838   9841   9870      9     0.00   1.25520   2 ;    O11-    C1-    C2-   O21
  9837   9838   9841   9870      9     0.00   4.18400   3 ;    O11-    C1-    C2-   O21
  9837   9838   9841   9870      9   180.00  -0.41840   1 ;    O11-    C1-    C2-   O21
  9838   9841   9843   9844      9     0.00   0.65270   3 ;     C1-    C2-    C3-    HA
  9838   9841   9843   9845      9     0.00   0.65270   3 ;     C1-    C2-    C3-    HB
  9838   9841   9843   9846      9   180.00   3.34720   1 ;     C1-    C2-    C3-   O31
  9838   9841   9870   9871      9     0.00  -0.41840   1 ;     C1-    C2-   O21-   C21
  9839   9838   9841   9842      9     0.00   0.65270   3 ;     HR-    C1-    C2-    HX
  9839   9838   9841   9843      9     0.00   0.65270   3 ;     HR-    C1-    C2-    C3
  9839   9838   9841   9870      9     0.00   0.00000   0 ;     HR-    C1-    C2-   O21
  9839   9838   9841   9870      9     0.00   1.04600   1 ;     HR-    C1-    C2-   O21
  9840   9838   9841   9842      9     0.00   0.65270   3 ;     HS-    C1-    C2-    HX
  9840   9838   9841   9843      9     0.00   0.65270   3 ;     HS-    C1-    C2-    C3
  9840   9838   9841   9870      9     0.00   0.00000   0 ;     HS-    C1-    C2-   O21
  9840   9838   9841   9870      9     0.00   1.04600   1 ;     HS-    C1-    C2-   O21
  9841   9843   9846   9847      9     0.00   0.00000   0 ;     C2-    C3-   O31-   P31
  9841   9843   9846   9847      9   180.00  -3.34720   2 ;     C2-    C3-   O31-   P31
  9841   9870   9871   9872      9   180.00   5.85760   1 ;     C2-   O21-   C21-   O22
  9841   9870   9871   9872      9   180.00  11.29680   2 ;     C2-   O21-   C21-   O22
  9841   9870   9871   9910      9   180.00  11.29680   2 ;     C2-   O21-   C21-   C12
  9842   9841   9843   9844      9     0.00   0.65270   3 ;     HX-    C2-    C3-    HA
  9842   9841   9843   9845      9     0.00   0.65270   3 ;     HX-    C2-    C3-    HB
  9842   9841   9843   9846      9     0.00   0.00000   0 ;     HX-    C2-    C3-   O31
  9842   9841   9843   9846      9     0.00   1.04600   1 ;     HX-    C2-    C3-   O31
  9842   9841   9870   9871      9     0.00   1.60247   3 ;     HX-    C2-   O21-   C21
  9843   9841   9870   9871      9     0.00  -0.41840   1 ;     C3-    C2-   O21-   C21
  9843   9846   9847   9848      9     0.00   2.51040   3 ;     C3-   O31-   P31-   O32
  9843   9846   9847   9848      9     0.00   9.62320   2 ;     C3-   O31-   P31-   O32
  9843   9846   9847   9868      9     0.00   0.00000   0 ;     C3-   O31-   P31-   O33
  9843   9846   9847   9868      9     0.00   0.00000   0 ;     C3-   O31-   P31-   O33
  9843   9846   9847   9868      9     0.00   0.00000   0 ;     C3-   O31-   P31-   O33
  9843   9846   9847   9868      9     0.00   0.00000   0 ;     C3-   O31-   P31-   O33
  9843   9846   9847   9868      9     0.00   0.83680   2 ;     C3-   O31-   P31-   O33
  9843   9846   9847   9869      9     0.00   0.00000   0 ;     C3-   O31-   P31-   O34
  9843   9846   9847   9869      9     0.00   0.00000   0 ;     C3-   O31-   P31-   O34
  9843   9846   9847   9869      9     0.00   0.00000   0 ;     C3-   O31-   P31-   O34
  9843   9846   9847   9869      9     0.00   0.00000   0 ;     C3-   O31-   P31-   O34
  9843   9846   9847   9869      9     0.00   0.83680   2 ;     C3-   O31-   P31-   O34
  9844   9843   9841   9870      9     0.00   0.00000   0 ;     HA-    C3-    C2-   O21
  9844   9843   9841   9870      9     0.00   1.04600   1 ;     HA-    C3-    C2-   O21
  9844   9843   9846   9847      9     0.00   0.00000   0 ;     HA-    C3-   O31-   P31
  9844   9843   9846   9847      9     0.00   0.00000   0 ;     HA-    C3-   O31-   P31
  9844   9843   9846   9847      9     0.00   0.00000   0 ;     HA-    C3-   O31-   P31
  9844   9843   9846   9847      9     0.00   0.00000   0 ;     HA-    C3-   O31-   P31
  9844   9843   9846   9847      9     0.00   1.60247   3 ;     HA-    C3-   O31-   P31
  9845   9843   9841   9870      9     0.00   0.00000   0 ;     HB-    C3-    C2-   O21
  9845   9843   9841   9870      9     0.00   1.04600   1 ;     HB-    C3-    C2-   O21
  9845   9843   9846   9847      9     0.00   0.00000   0 ;     HB-    C3-   O31-   P31
  9845   9843   9846   9847      9     0.00   0.00000   0 ;     HB-    C3-   O31-   P31
  9845   9843   9846   9847      9     0.00   0.00000   0 ;     HB-    C3-   O31-   P31
  9845   9843   9846   9847      9     0.00   0.00000   0 ;     HB-    C3-   O31-   P31
  9845   9843   9846   9847      9     0.00   1.60247   3 ;     HB-    C3-   O31-   P31
  9846   9843   9841   9870      9     0.00   0.00000   0 ;    O31-    C3-    C2-   O21
  9846   9843   9841   9870      9     0.00   0.00000   0 ;    O31-    C3-    C2-   O21
  9846   9843   9841   9870      9     0.00   0.00000   0 ;    O31-    C3-    C2-   O21
  9846   9843   9841   9870      9     0.00   0.00000   0 ;    O31-    C3-    C2-   O21
  9846   9843   9841   9870      9     0.00   0.00000   0 ;    O31-    C3-    C2-   O21
  9846   9847   9848   9849      9     0.00   2.51040   3 ;    O31-   P31-   O32-   C31
  9846   9847   9848   9849      9     0.00   9.62320   2 ;    O31-   P31-   O32-   C31
  9847   9848   9849   9850      9     0.00   0.00000   0 ;    P31-   O32-   C31-   H1A
  9847   9848   9849   9850      9     0.00   0.00000   0 ;    P31-   O32-   C31-   H1A
  9847   9848   9849   9850      9     0.00   0.00000   0 ;    P31-   O32-   C31-   H1A
  9847   9848   9849   9850      9     0.00   0.00000   0 ;    P31-   O32-   C31-   H1A
  9847   9848   9849   9850      9     0.00   1.60247   3 ;    P31-   O32-   C31-   H1A
  9847   9848   9849   9851      9     0.00   0.00000   0 ;    P31-   O32-   C31-   H1B
  9847   9848   9849   9851      9     0.00   0.00000   0 ;    P31-   O32-   C31-   H1B
  9847   9848   9849   9851      9     0.00   0.00000   0 ;    P31-   O32-   C31-   H1B
  9847   9848   9849   9851      9     0.00   0.00000   0 ;    P31-   O32-   C31-   H1B
  9847   9848   9849   9851      9     0.00   1.60247   3 ;    P31-   O32-   C31-   H1B
  9847   9848   9849   9852      9     0.00   0.00000   0 ;    P31-   O32-   C31-   C32
  9847   9848   9849   9852      9   180.00  -3.34720   2 ;    P31-   O32-   C31-   C32
  9848   9849   9852   9853      9     0.00   0.65270   3 ;    O32-   C31-   C32-   H2A
  9848   9849   9852   9854      9     0.00   0.65270   3 ;    O32-   C31-   C32-   H2B
  9848   9849   9852   9855      9     0.00   4.18400   3 ;    O32-   C31-   C32-   N31
  9849   9848   9847   9868      9     0.00   0.00000   0 ;    C31-   O32-   P31-   O33
  9849   9848   9847   9868      9     0.00   0.00000   0 ;    C31-   O32-   P31-   O33
  9849   9848   9847   9868      9     0.00   0.00000   0 ;    C31-   O32-   P31-   O33
  9849   9848   9847   9868      9     0.00   0.00000   0 ;    C31-   O32-   P31-   O33
  9849   9848   9847   9868      9     0.00   0.83680   2 ;    C31-   O32-   P31-   O33
  9849   9848   9847   9869      9     0.00   0.00000   0 ;    C31-   O32-   P31-   O34
  9849   9848   9847   9869      9     0.00   0.00000   0 ;    C31-   O32-   P31-   O34
  9849   9848   9847   9869      9     0.00   0.00000   0 ;    C31-   O32-   P31-   O34
  9849   9848   9847   9869      9     0.00   0.00000   0 ;    C31-   O32-   P31-   O34
  9849   9848   9847   9869      9     0.00   0.83680   2 ;    C31-   O32-   P31-   O34
  9849   9852   9855   9856      9     0.00   0.65270   3 ;    C31-   C32-   N31-   C33
  9849   9852   9855   9860      9     0.00   0.65270   3 ;    C31-   C32-   N31-   C34
  9849   9852   9855   9864      9     0.00   0.65270   3 ;    C31-   C32-   N31-   C35
  9850   9849   9852   9853      9     0.00   0.65270   3 ;    H1A-   C31-   C32-   H2A
  9850   9849   9852   9854      9     0.00   0.65270   3 ;    H1A-   C31-   C32-   H2B
  9850   9849   9852   9855      9     0.00   0.65270   3 ;    H1A-   C31-   C32-   N31
  9851   9849   9852   9853      9     0.00   0.65270   3 ;    H1B-   C31-   C32-   H2A
  9851   9849   9852   9854      9     0.00   0.65270   3 ;    H1B-   C31-   C32-   H2B
  9851   9849   9852   9855      9     0.00   0.65270   3 ;    H1B-   C31-   C32-   N31
  9852   9855   9856   9857      9     0.00   0.65270   3 ;    C32-   N31-   C33-   H3A
  9852   9855   9856   9858      9     0.00   0.65270   3 ;    C32-   N31-   C33-   H3B
  9852   9855   9856   9859      9     0.00   0.65270   3 ;    C32-   N31-   C33-   H3C
  9852   9855   9860   9861      9     0.00   0.65270   3 ;    C32-   N31-   C34-   H4A
  9852   9855   9860   9862      9     0.00   0.65270   3 ;    C32-   N31-   C34-   H4B
  9852   9855   9860   9863      9     0.00   0.65270   3 ;    C32-   N31-   C34-   H4C
  9852   9855   9864   9865      9     0.00   0.65270   3 ;    C32-   N31-   C35-   H5A
  9852   9855   9864   9866      9     0.00   0.65270   3 ;    C32-   N31-   C35-   H5B
  9852   9855   9864   9867      9     0.00   0.65270   3 ;    C32-   N31-   C35-   H5C
  9853   9852   9855   9856      9     0.00   0.65270   3 ;    H2A-   C32-   N31-   C33
  9853   9852   9855   9860      9     0.00   0.65270   3 ;    H2A-   C32-   N31-   C34
  9853   9852   9855   9864      9     0.00   0.65270   3 ;    H2A-   C32-   N31-   C35
  9854   9852   9855   9856      9     0.00   0.65270   3 ;    H2B-   C32-   N31-   C33
  9854   9852   9855   9860      9     0.00   0.65270   3 ;    H2B-   C32-   N31-   C34
  9854   9852   9855   9864      9     0.00   0.65270   3 ;    H2B-   C32-   N31-   C35
  9856   9855   9860   9861      9     0.00   0.65270   3 ;    C33-   N31-   C34-   H4A
  9856   9855   9860   9862      9     0.00   0.65270   3 ;    C33-   N31-   C34-   H4B
  9856   9855   9860   9863      9     0.00   0.65270   3 ;    C33-   N31-   C34-   H4C
  9856   9855   9864   9865      9     0.00   0.65270   3 ;    C33-   N31-   C35-   H5A
  9856   9855   9864   9866      9     0.00   0.65270   3 ;    C33-   N31-   C35-   H5B
  9856   9855   9864   9867      9     0.00   0.65270   3 ;    C33-   N31-   C35-   H5C
  9857   9856   9855   9860      9     0.00   0.65270   3 ;    H3A-   C33-   N31-   C34
  9857   9856   9855   9864      9     0.00   0.65270   3 ;    H3A-   C33-   N31-   C35
  9858   9856   9855   9860      9     0.00   0.65270   3 ;    H3B-   C33-   N31-   C34
  9858   9856   9855   9864      9     0.00   0.65270   3 ;    H3B-   C33-   N31-   C35
  9859   9856   9855   9860      9     0.00   0.65270   3 ;    H3C-   C33-   N31-   C34
  9859   9856   9855   9864      9     0.00   0.65270   3 ;    H3C-   C33-   N31-   C35
  9860   9855   9864   9865      9     0.00   0.65270   3 ;    C34-   N31-   C35-   H5A
  9860   9855   9864   9866      9     0.00   0.65270   3 ;    C34-   N31-   C35-   H5B
  9860   9855   9864   9867      9     0.00   0.65270   3 ;    C34-   N31-   C35-   H5C
  9861   9860   9855   9864      9     0.00   0.65270   3 ;    H4A-   C34-   N31-   C35
  9862   9860   9855   9864      9     0.00   0.65270   3 ;    H4B-   C34-   N31-   C35
  9863   9860   9855   9864      9     0.00   0.65270   3 ;    H4C-   C34-   N31-   C35
  9870   9871   9910   9907      9   180.00   0.00000   2 ;    O21-   C21-   C12-   C13
  9870   9871   9910   9911      9   180.00   0.00000   2 ;    O21-   C21-   C12-   H2R
  9870   9871   9910   9912      9   180.00   0.00000   2 ;    O21-   C21-   C12-   H2S
  9871   9910   9907   9904      9     0.00   0.65270   3 ;    C21-   C12-   C13-   C14
  9871   9910   9907   9908      9     0.00   0.65270   3 ;    C21-   C12-   C13-   H3R
  9871   9910   9907   9909      9     0.00   0.65270   3 ;    C21-   C12-   C13-   H3S
  9872   9871   9910   9907      9   180.00   0.00000   2 ;    O22-   C21-   C12-   C13
  9872   9871   9910   9911      9     0.00   3.34720   1 ;    O22-   C21-   C12-   H2R
  9872   9871   9910   9911      9   180.00   0.33472   3 ;    O22-   C21-   C12-   H2R
  9872   9871   9910   9912      9     0.00   3.34720   1 ;    O22-   C21-   C12-   H2S
  9872   9871   9910   9912      9   180.00   0.33472   3 ;    O22-   C21-   C12-   H2S
  9873   9874   9877   9878      9     0.00   0.62760   3 ;   H14T-  C114-  C113-  H13R
  9873   9874   9877   9879      9     0.00   0.62760   3 ;   H14T-  C114-  C113-  H13S
  9873   9874   9877   9880      9     0.00   0.66944   3 ;   H14T-  C114-  C113-  C112
  9874   9877   9880   9881      9     0.00   0.66944   3 ;   C114-  C113-  C112-  H12R
  9874   9877   9880   9882      9     0.00   0.66944   3 ;   C114-  C113-  C112-  H12S
  9874   9877   9880   9883      9     0.00   0.41840   1 ;   C114-  C113-  C112-  C111
  9874   9877   9880   9883      9     0.00   0.41840   2 ;   C114-  C113-  C112-  C111
  9874   9877   9880   9883      9     0.00   0.41840   4 ;   C114-  C113-  C112-  C111
  9874   9877   9880   9883      9     0.00   0.41840   5 ;   C114-  C113-  C112-  C111
  9874   9877   9880   9883      9     0.00   1.25520   3 ;   C114-  C113-  C112-  C111
  9875   9874   9877   9878      9     0.00   0.62760   3 ;   H14R-  C114-  C113-  H13R
  9875   9874   9877   9879      9     0.00   0.62760   3 ;   H14R-  C114-  C113-  H13S
  9875   9874   9877   9880      9     0.00   0.66944   3 ;   H14R-  C114-  C113-  C112
  9876   9874   9877   9878      9     0.00   0.62760   3 ;   H14S-  C114-  C113-  H13R
  9876   9874   9877   9879      9     0.00   0.62760   3 ;   H14S-  C114-  C113-  H13S
  9876   9874   9877   9880      9     0.00   0.66944   3 ;   H14S-  C114-  C113-  C112
  9877   9880   9883   9884      9     0.00   0.66944   3 ;   C113-  C112-  C111-  H11R
  9877   9880   9883   9885      9     0.00   0.66944   3 ;   C113-  C112-  C111-  H11S
  9877   9880   9883   9886      9     0.00   0.41840   1 ;   C113-  C112-  C111-  C110
  9877   9880   9883   9886      9     0.00   0.41840   2 ;   C113-  C112-  C111-  C110
  9877   9880   9883   9886      9     0.00   0.41840   4 ;   C113-  C112-  C111-  C110
  9877   9880   9883   9886      9     0.00   0.41840   5 ;   C113-  C112-  C111-  C110
  9877   9880   9883   9886      9     0.00   1.25520   3 ;   C113-  C112-  C111-  C110
  9878   9877   9880   9881      9     0.00   0.62760   3 ;   H13R-  C113-  C112-  H12R
  9878   9877   9880   9882      9     0.00   0.62760   3 ;   H13R-  C113-  C112-  H12S
  9878   9877   9880   9883      9     0.00   0.66944   3 ;   H13R-  C113-  C112-  C111
  9879   9877   9880   9881      9     0.00   0.62760   3 ;   H13S-  C113-  C112-  H12R
  9879   9877   9880   9882      9     0.00   0.62760   3 ;   H13S-  C113-  C112-  H12S
  9879   9877   9880   9883      9     0.00   0.66944   3 ;   H13S-  C113-  C112-  C111
  9880   9883   9886   9887      9     0.00   0.66944   3 ;   C112-  C111-  C110-  H10R
  9880   9883   9886   9888      9     0.00   0.66944   3 ;   C112-  C111-  C110-  H10S
  9880   9883   9886   9889      9     0.00   0.41840   1 ;   C112-  C111-  C110-   C19
  9880   9883   9886   9889      9     0.00   0.41840   2 ;   C112-  C111-  C110-   C19
  9880   9883   9886   9889      9     0.00   0.41840   4 ;   C112-  C111-  C110-   C19
  9880   9883   9886   9889      9     0.00   0.41840   5 ;   C112-  C111-  C110-   C19
  9880   9883   9886   9889      9     0.00   1.25520   3 ;   C112-  C111-  C110-   C19
  9881   9880   9883   9884      9     0.00   0.62760   3 ;   H12R-  C112-  C111-  H11R
  9881   9880   9883   9885      9     0.00   0.62760   3 ;   H12R-  C112-  C111-  H11S
  9881   9880   9883   9886      9     0.00   0.66944   3 ;   H12R-  C112-  C111-  C110
  9882   9880   9883   9884      9     0.00   0.62760   3 ;   H12S-  C112-  C111-  H11R
  9882   9880   9883   9885      9     0.00   0.62760   3 ;   H12S-  C112-  C111-  H11S
  9882   9880   9883   9886      9     0.00   0.66944   3 ;   H12S-  C112-  C111-  C110
  9883   9886   9889   9890      9     0.00   0.66944   3 ;   C111-  C110-   C19-   H9R
  9883   9886   9889   9891      9     0.00   0.66944   3 ;   C111-  C110-   C19-   H9S
  9883   9886   9889   9892      9     0.00   0.41840   1 ;   C111-  C110-   C19-   C18
  9883   9886   9889   9892      9     0.00   0.41840   2 ;   C111-  C110-   C19-   C18
  9883   9886   9889   9892      9     0.00   0.41840   4 ;   C111-  C110-   C19-   C18
  9883   9886   9889   9892      9     0.00   0.41840   5 ;   C111-  C110-   C19-   C18
  9883   9886   9889   9892      9     0.00   1.25520   3 ;   C111-  C110-   C19-   C18
  9884   9883   9886   9887      9     0.00   0.62760   3 ;   H11R-  C111-  C110-  H10R
  9884   9883   9886   9888      9     0.00   0.62760   3 ;   H11R-  C111-  C110-  H10S
  9884   9883   9886   9889      9     0.00   0.66944   3 ;   H11R-  C111-  C110-   C19
  9885   9883   9886   9887      9     0.00   0.62760   3 ;   H11S-  C111-  C110-  H10R
  9885   9883   9886   9888      9     0.00   0.62760   3 ;   H11S-  C111-  C110-  H10S
  9885   9883   9886   9889      9     0.00   0.66944   3 ;   H11S-  C111-  C110-   C19
  9886   9889   9892   9893      9     0.00   0.66944   3 ;   C110-   C19-   C18-   H8R
  9886   9889   9892   9894      9     0.00   0.66944   3 ;   C110-   C19-   C18-   H8S
  9886   9889   9892   9895      9     0.00   0.41840   1 ;   C110-   C19-   C18-   C17
  9886   9889   9892   9895      9     0.00   0.41840   2 ;   C110-   C19-   C18-   C17
  9886   9889   9892   9895      9     0.00   0.41840   4 ;   C110-   C19-   C18-   C17
  9886   9889   9892   9895      9     0.00   0.41840   5 ;   C110-   C19-   C18-   C17
  9886   9889   9892   9895      9     0.00   1.25520   3 ;   C110-   C19-   C18-   C17
  9887   9886   9889   9890      9     0.00   0.62760   3 ;   H10R-  C110-   C19-   H9R
  9887   9886   9889   9891      9     0.00   0.62760   3 ;   H10R-  C110-   C19-   H9S
  9887   9886   9889   9892      9     0.00   0.66944   3 ;   H10R-  C110-   C19-   C18
  9888   9886   9889   9890      9     0.00   0.62760   3 ;   H10S-  C110-   C19-   H9R
  9888   9886   9889   9891      9     0.00   0.62760   3 ;   H10S-  C110-   C19-   H9S
  9888   9886   9889   9892      9     0.00   0.66944   3 ;   H10S-  C110-   C19-   C18
  9889   9892   9895   9896      9     0.00   0.66944   3 ;    C19-   C18-   C17-   H7R
  9889   9892   9895   9897      9     0.00   0.66944   3 ;    C19-   C18-   C17-   H7S
  9889   9892   9895   9898      9     0.00   0.41840   1 ;    C19-   C18-   C17-   C16
  9889   9892   9895   9898      9     0.00   0.41840   2 ;    C19-   C18-   C17-   C16
  9889   9892   9895   9898      9     0.00   0.41840   4 ;    C19-   C18-   C17-   C16
  9889   9892   9895   9898      9     0.00   0.41840   5 ;    C19-   C18-   C17-   C16
  9889   9892   9895   9898      9     0.00   1.25520   3 ;    C19-   C18-   C17-   C16
  9890   9889   9892   9893      9     0.00   0.62760   3 ;    H9R-   C19-   C18-   H8R
  9890   9889   9892   9894      9     0.00   0.62760   3 ;    H9R-   C19-   C18-   H8S
  9890   9889   9892   9895      9     0.00   0.66944   3 ;    H9R-   C19-   C18-   C17
  9891   9889   9892   9893      9     0.00   0.62760   3 ;    H9S-   C19-   C18-   H8R
  9891   9889   9892   9894      9     0.00   0.62760   3 ;    H9S-   C19-   C18-   H8S
  9891   9889   9892   9895      9     0.00   0.66944   3 ;    H9S-   C19-   C18-   C17
  9892   9895   9898   9899      9     0.00   0.66944   3 ;    C18-   C17-   C16-   H6R
  9892   9895   9898   9900      9     0.00   0.66944   3 ;    C18-   C17-   C16-   H6S
  9892   9895   9898   9901      9     0.00   0.41840   1 ;    C18-   C17-   C16-   C15
  9892   9895   9898   9901      9     0.00   0.41840   2 ;    C18-   C17-   C16-   C15
  9892   9895   9898   9901      9     0.00   0.41840   4 ;    C18-   C17-   C16-   C15
  9892   9895   9898   9901      9     0.00   0.41840   5 ;    C18-   C17-   C16-   C15
  9892   9895   9898   9901      9     0.00   1.25520   3 ;    C18-   C17-   C16-   C15
  9893   9892   9895   9896      9     0.00   0.62760   3 ;    H8R-   C18-   C17-   H7R
  9893   9892   9895   9897      9     0.00   0.62760   3 ;    H8R-   C18-   C17-   H7S
  9893   9892   9895   9898      9     0.00   0.66944   3 ;    H8R-   C18-   C17-   C16
  9894   9892   9895   9896      9     0.00   0.62760   3 ;    H8S-   C18-   C17-   H7R
  9894   9892   9895   9897      9     0.00   0.62760   3 ;    H8S-   C18-   C17-   H7S
  9894   9892   9895   9898      9     0.00   0.66944   3 ;    H8S-   C18-   C17-   C16
  9895   9898   9901   9902      9     0.00   0.66944   3 ;    C17-   C16-   C15-   H5R
  9895   9898   9901   9903      9     0.00   0.66944   3 ;    C17-   C16-   C15-   H5S
  9895   9898   9901   9904      9     0.00   0.41840   1 ;    C17-   C16-   C15-   C14
  9895   9898   9901   9904      9     0.00   0.41840   2 ;    C17-   C16-   C15-   C14
  9895   9898   9901   9904      9     0.00   0.41840   4 ;    C17-   C16-   C15-   C14
  9895   9898   9901   9904      9     0.00   0.41840   5 ;    C17-   C16-   C15-   C14
  9895   9898   9901   9904      9     0.00   1.25520   3 ;    C17-   C16-   C15-   C14
  9896   9895   9898   9899      9     0.00   0.62760   3 ;    H7R-   C17-   C16-   H6R
  9896   9895   9898   9900      9     0.00   0.62760   3 ;    H7R-   C17-   C16-   H6S
  9896   9895   9898   9901      9     0.00   0.66944   3 ;    H7R-   C17-   C16-   C15
  9897   9895   9898   9899      9     0.00   0.62760   3 ;    H7S-   C17-   C16-   H6R
  9897   9895   9898   9900      9     0.00   0.62760   3 ;    H7S-   C17-   C16-   H6S
  9897   9895   9898   9901      9     0.00   0.66944   3 ;    H7S-   C17-   C16-   C15
  9898   9901   9904   9905      9     0.00   0.66944   3 ;    C16-   C15-   C14-   H4R
  9898   9901   9904   9906      9     0.00   0.66944   3 ;    C16-   C15-   C14-   H4S
  9898   9901   9904   9907      9     0.00   0.41840   1 ;    C16-   C15-   C14-   C13
  9898   9901   9904   9907      9     0.00   0.41840   2 ;    C16-   C15-   C14-   C13
  9898   9901   9904   9907      9     0.00   0.41840   4 ;    C16-   C15-   C14-   C13
  9898   9901   9904   9907      9     0.00   0.41840   5 ;    C16-   C15-   C14-   C13
  9898   9901   9904   9907      9     0.00   1.25520   3 ;    C16-   C15-   C14-   C13
  9899   9898   9901   9902      9     0.00   0.62760   3 ;    H6R-   C16-   C15-   H5R
  9899   9898   9901   9903      9     0.00   0.62760   3 ;    H6R-   C16-   C15-   H5S
  9899   9898   9901   9904      9     0.00   0.66944   3 ;    H6R-   C16-   C15-   C14
  9900   9898   9901   9902      9     0.00   0.62760   3 ;    H6S-   C16-   C15-   H5R
  9900   9898   9901   9903      9     0.00   0.62760   3 ;    H6S-   C16-   C15-   H5S
  9900   9898   9901   9904      9     0.00   0.66944   3 ;    H6S-   C16-   C15-   C14
  9901   9904   9907   9908      9     0.00   0.66944   3 ;    C15-   C14-   C13-   H3R
  9901   9904   9907   9909      9     0.00   0.66944   3 ;    C15-   C14-   C13-   H3S
  9901   9904   9907   9910      9     0.00   0.41840   1 ;    C15-   C14-   C13-   C12
  9901   9904   9907   9910      9     0.00   0.41840   2 ;    C15-   C14-   C13-   C12
  9901   9904   9907   9910      9     0.00   0.41840   4 ;    C15-   C14-   C13-   C12
  9901   9904   9907   9910      9     0.00   0.41840   5 ;    C15-   C14-   C13-   C12
  9901   9904   9907   9910      9     0.00   1.25520   3 ;    C15-   C14-   C13-   C12
  9902   9901   9904   9905      9     0.00   0.62760   3 ;    H5R-   C15-   C14-   H4R
  9902   9901   9904   9906      9     0.00   0.62760   3 ;    H5R-   C15-   C14-   H4S
  9902   9901   9904   9907      9     0.00   0.66944   3 ;    H5R-   C15-   C14-   C13
  9903   9901   9904   9905      9     0.00   0.62760   3 ;    H5S-   C15-   C14-   H4R
  9903   9901   9904   9906      9     0.00   0.62760   3 ;    H5S-   C15-   C14-   H4S
  9903   9901   9904   9907      9     0.00   0.66944   3 ;    H5S-   C15-   C14-   C13
  9904   9907   9910   9911      9     0.00   0.66944   3 ;    C14-   C13-   C12-   H2R
  9904   9907   9910   9912      9     0.00   0.66944   3 ;    C14-   C13-   C12-   H2S
  9905   9904   9907   9908      9     0.00   0.62760   3 ;    H4R-   C14-   C13-   H3R
  9905   9904   9907   9909      9     0.00   0.62760   3 ;    H4R-   C14-   C13-   H3S
  9905   9904   9907   9910      9     0.00   0.66944   3 ;    H4R-   C14-   C13-   C12
  9906   9904   9907   9908      9     0.00   0.62760   3 ;    H4S-   C14-   C13-   H3R
  9906   9904   9907   9909      9     0.00   0.62760   3 ;    H4S-   C14-   C13-   H3S
  9906   9904   9907   9910      9     0.00   0.66944   3 ;    H4S-   C14-   C13-   C12
  9908   9907   9910   9911      9     0.00   0.62760   3 ;    H3R-   C13-   C12-   H2R
  9908   9907   9910   9912      9     0.00   0.62760   3 ;    H3R-   C13-   C12-   H2S
  9909   9907   9910   9911      9     0.00   0.62760   3 ;    H3S-   C13-   C12-   H2R
  9909   9907   9910   9912      9     0.00   0.62760   3 ;    H3S-   C13-   C12-   H2S
  9913   9914   9917   9918      9     0.00   0.62760   3 ;   H14T-  C114-  C113-  H13R
  9913   9914   9917   9919      9     0.00   0.62760   3 ;   H14T-  C114-  C113-  H13S
  9913   9914   9917   9920      9     0.00   0.66944   3 ;   H14T-  C114-  C113-  C112
  9914   9917   9920   9921      9     0.00   0.66944   3 ;   C114-  C113-  C112-  H12R
  9914   9917   9920   9922      9     0.00   0.66944   3 ;   C114-  C113-  C112-  H12S
  9914   9917   9920   9923      9     0.00   0.41840   1 ;   C114-  C113-  C112-  C111
  9914   9917   9920   9923      9     0.00   0.41840   2 ;   C114-  C113-  C112-  C111
  9914   9917   9920   9923      9     0.00   0.41840   4 ;   C114-  C113-  C112-  C111
  9914   9917   9920   9923      9     0.00   0.41840   5 ;   C114-  C113-  C112-  C111
  9914   9917   9920   9923      9     0.00   1.25520   3 ;   C114-  C113-  C112-  C111
  9915   9914   9917   9918      9     0.00   0.62760   3 ;   H14R-  C114-  C113-  H13R
  9915   9914   9917   9919      9     0.00   0.62760   3 ;   H14R-  C114-  C113-  H13S
  9915   9914   9917   9920      9     0.00   0.66944   3 ;   H14R-  C114-  C113-  C112
  9916   9914   9917   9918      9     0.00   0.62760   3 ;   H14S-  C114-  C113-  H13R
  9916   9914   9917   9919      9     0.00   0.62760   3 ;   H14S-  C114-  C113-  H13S
  9916   9914   9917   9920      9     0.00   0.66944   3 ;   H14S-  C114-  C113-  C112
  9917   9920   9923   9924      9     0.00   0.66944   3 ;   C113-  C112-  C111-  H11R
  9917   9920   9923   9925      9     0.00   0.66944   3 ;   C113-  C112-  C111-  H11S
  9917   9920   9923   9926      9     0.00   0.41840   1 ;   C113-  C112-  C111-  C110
  9917   9920   9923   9926      9     0.00   0.41840   2 ;   C113-  C112-  C111-  C110
  9917   9920   9923   9926      9     0.00   0.41840   4 ;   C113-  C112-  C111-  C110
  9917   9920   9923   9926      9     0.00   0.41840   5 ;   C113-  C112-  C111-  C110
  9917   9920   9923   9926      9     0.00   1.25520   3 ;   C113-  C112-  C111-  C110
  9918   9917   9920   9921      9     0.00   0.62760   3 ;   H13R-  C113-  C112-  H12R
  9918   9917   9920   9922      9     0.00   0.62760   3 ;   H13R-  C113-  C112-  H12S
  9918   9917   9920   9923      9     0.00   0.66944   3 ;   H13R-  C113-  C112-  C111
  9919   9917   9920   9921      9     0.00   0.62760   3 ;   H13S-  C113-  C112-  H12R
  9919   9917   9920   9922      9     0.00   0.62760   3 ;   H13S-  C113-  C112-  H12S
  9919   9917   9920   9923      9     0.00   0.66944   3 ;   H13S-  C113-  C112-  C111
  9920   9923   9926   9927      9     0.00   0.66944   3 ;   C112-  C111-  C110-  H10R
  9920   9923   9926   9928      9     0.00   0.66944   3 ;   C112-  C111-  C110-  H10S
  9920   9923   9926   9929      9     0.00   0.41840   1 ;   C112-  C111-  C110-   C19
  9920   9923   9926   9929      9     0.00   0.41840   2 ;   C112-  C111-  C110-   C19
  9920   9923   9926   9929      9     0.00   0.41840   4 ;   C112-  C111-  C110-   C19
  9920   9923   9926   9929      9     0.00   0.41840   5 ;   C112-  C111-  C110-   C19
  9920   9923   9926   9929      9     0.00   1.25520   3 ;   C112-  C111-  C110-   C19
  9921   9920   9923   9924      9     0.00   0.62760   3 ;   H12R-  C112-  C111-  H11R
  9921   9920   9923   9925      9     0.00   0.62760   3 ;   H12R-  C112-  C111-  H11S
  9921   9920   9923   9926      9     0.00   0.66944   3 ;   H12R-  C112-  C111-  C110
  9922   9920   9923   9924      9     0.00   0.62760   3 ;   H12S-  C112-  C111-  H11R
  9922   9920   9923   9925      9     0.00   0.62760   3 ;   H12S-  C112-  C111-  H11S
  9922   9920   9923   9926      9     0.00   0.66944   3 ;   H12S-  C112-  C111-  C110
  9923   9926   9929   9930      9     0.00   0.66944   3 ;   C111-  C110-   C19-   H9R
  9923   9926   9929   9931      9     0.00   0.66944   3 ;   C111-  C110-   C19-   H9S
  9923   9926   9929   9932      9     0.00   0.41840   1 ;   C111-  C110-   C19-   C18
  9923   9926   9929   9932      9     0.00   0.41840   2 ;   C111-  C110-   C19-   C18
  9923   9926   9929   9932      9     0.00   0.41840   4 ;   C111-  C110-   C19-   C18
  9923   9926   9929   9932      9     0.00   0.41840   5 ;   C111-  C110-   C19-   C18
  9923   9926   9929   9932      9     0.00   1.25520   3 ;   C111-  C110-   C19-   C18
  9924   9923   9926   9927      9     0.00   0.62760   3 ;   H11R-  C111-  C110-  H10R
  9924   9923   9926   9928      9     0.00   0.62760   3 ;   H11R-  C111-  C110-  H10S
  9924   9923   9926   9929      9     0.00   0.66944   3 ;   H11R-  C111-  C110-   C19
  9925   9923   9926   9927      9     0.00   0.62760   3 ;   H11S-  C111-  C110-  H10R
  9925   9923   9926   9928      9     0.00   0.62760   3 ;   H11S-  C111-  C110-  H10S
  9925   9923   9926   9929      9     0.00   0.66944   3 ;   H11S-  C111-  C110-   C19
  9926   9929   9932   9933      9     0.00   0.66944   3 ;   C110-   C19-   C18-   H8R
  9926   9929   9932   9934      9     0.00   0.66944   3 ;   C110-   C19-   C18-   H8S
  9926   9929   9932   9935      9     0.00   0.41840   1 ;   C110-   C19-   C18-   C17
  9926   9929   9932   9935      9     0.00   0.41840   2 ;   C110-   C19-   C18-   C17
  9926   9929   9932   9935      9     0.00   0.41840   4 ;   C110-   C19-   C18-   C17
  9926   9929   9932   9935      9     0.00   0.41840   5 ;   C110-   C19-   C18-   C17
  9926   9929   9932   9935      9     0.00   1.25520   3 ;   C110-   C19-   C18-   C17
  9927   9926   9929   9930      9     0.00   0.62760   3 ;   H10R-  C110-   C19-   H9R
  9927   9926   9929   9931      9     0.00   0.62760   3 ;   H10R-  C110-   C19-   H9S
  9927   9926   9929   9932      9     0.00   0.66944   3 ;   H10R-  C110-   C19-   C18
  9928   9926   9929   9930      9     0.00   0.62760   3 ;   H10S-  C110-   C19-   H9R
  9928   9926   9929   9931      9     0.00   0.62760   3 ;   H10S-  C110-   C19-   H9S
  9928   9926   9929   9932      9     0.00   0.66944   3 ;   H10S-  C110-   C19-   C18
  9929   9932   9935   9936      9     0.00   0.66944   3 ;    C19-   C18-   C17-   H7R
  9929   9932   9935   9937      9     0.00   0.66944   3 ;    C19-   C18-   C17-   H7S
  9929   9932   9935   9938      9     0.00   0.41840   1 ;    C19-   C18-   C17-   C16
  9929   9932   9935   9938      9     0.00   0.41840   2 ;    C19-   C18-   C17-   C16
  9929   9932   9935   9938      9     0.00   0.41840   4 ;    C19-   C18-   C17-   C16
  9929   9932   9935   9938      9     0.00   0.41840   5 ;    C19-   C18-   C17-   C16
  9929   9932   9935   9938      9     0.00   1.25520   3 ;    C19-   C18-   C17-   C16
  9930   9929   9932   9933      9     0.00   0.62760   3 ;    H9R-   C19-   C18-   H8R
  9930   9929   9932   9934      9     0.00   0.62760   3 ;    H9R-   C19-   C18-   H8S
  9930   9929   9932   9935      9     0.00   0.66944   3 ;    H9R-   C19-   C18-   C17
  9931   9929   9932   9933      9     0.00   0.62760   3 ;    H9S-   C19-   C18-   H8R
  9931   9929   9932   9934      9     0.00   0.62760   3 ;    H9S-   C19-   C18-   H8S
  9931   9929   9932   9935      9     0.00   0.66944   3 ;    H9S-   C19-   C18-   C17
  9932   9935   9938   9939      9     0.00   0.66944   3 ;    C18-   C17-   C16-   H6R
  9932   9935   9938   9940      9     0.00   0.66944   3 ;    C18-   C17-   C16-   H6S
  9932   9935   9938   9941      9     0.00   0.41840   1 ;    C18-   C17-   C16-   C15
  9932   9935   9938   9941      9     0.00   0.41840   2 ;    C18-   C17-   C16-   C15
  9932   9935   9938   9941      9     0.00   0.41840   4 ;    C18-   C17-   C16-   C15
  9932   9935   9938   9941      9     0.00   0.41840   5 ;    C18-   C17-   C16-   C15
  9932   9935   9938   9941      9     0.00   1.25520   3 ;    C18-   C17-   C16-   C15
  9933   9932   9935   9936      9     0.00   0.62760   3 ;    H8R-   C18-   C17-   H7R
  9933   9932   9935   9937      9     0.00   0.62760   3 ;    H8R-   C18-   C17-   H7S
  9933   9932   9935   9938      9     0.00   0.66944   3 ;    H8R-   C18-   C17-   C16
  9934   9932   9935   9936      9     0.00   0.62760   3 ;    H8S-   C18-   C17-   H7R
  9934   9932   9935   9937      9     0.00   0.62760   3 ;    H8S-   C18-   C17-   H7S
  9934   9932   9935   9938      9     0.00   0.66944   3 ;    H8S-   C18-   C17-   C16
  9935   9938   9941   9942      9     0.00   0.66944   3 ;    C17-   C16-   C15-   H5R
  9935   9938   9941   9943      9     0.00   0.66944   3 ;    C17-   C16-   C15-   H5S
  9935   9938   9941   9944      9     0.00   0.41840   1 ;    C17-   C16-   C15-   C14
  9935   9938   9941   9944      9     0.00   0.41840   2 ;    C17-   C16-   C15-   C14
  9935   9938   9941   9944      9     0.00   0.41840   4 ;    C17-   C16-   C15-   C14
  9935   9938   9941   9944      9     0.00   0.41840   5 ;    C17-   C16-   C15-   C14
  9935   9938   9941   9944      9     0.00   1.25520   3 ;    C17-   C16-   C15-   C14
  9936   9935   9938   9939      9     0.00   0.62760   3 ;    H7R-   C17-   C16-   H6R
  9936   9935   9938   9940      9     0.00   0.62760   3 ;    H7R-   C17-   C16-   H6S
  9936   9935   9938   9941      9     0.00   0.66944   3 ;    H7R-   C17-   C16-   C15
  9937   9935   9938   9939      9     0.00   0.62760   3 ;    H7S-   C17-   C16-   H6R
  9937   9935   9938   9940      9     0.00   0.62760   3 ;    H7S-   C17-   C16-   H6S
  9937   9935   9938   9941      9     0.00   0.66944   3 ;    H7S-   C17-   C16-   C15
  9938   9941   9944   9945      9     0.00   0.66944   3 ;    C16-   C15-   C14-   H4R
  9938   9941   9944   9946      9     0.00   0.66944   3 ;    C16-   C15-   C14-   H4S
  9938   9941   9944   9947      9     0.00   0.41840   1 ;    C16-   C15-   C14-   C13
  9938   9941   9944   9947      9     0.00   0.41840   2 ;    C16-   C15-   C14-   C13
  9938   9941   9944   9947      9     0.00   0.41840   4 ;    C16-   C15-   C14-   C13
  9938   9941   9944   9947      9     0.00   0.41840   5 ;    C16-   C15-   C14-   C13
  9938   9941   9944   9947      9     0.00   1.25520   3 ;    C16-   C15-   C14-   C13
  9939   9938   9941   9942      9     0.00   0.62760   3 ;    H6R-   C16-   C15-   H5R
  9939   9938   9941   9943      9     0.00   0.62760   3 ;    H6R-   C16-   C15-   H5S
  9939   9938   9941   9944      9     0.00   0.66944   3 ;    H6R-   C16-   C15-   C14
  9940   9938   9941   9942      9     0.00   0.62760   3 ;    H6S-   C16-   C15-   H5R
  9940   9938   9941   9943      9     0.00   0.62760   3 ;    H6S-   C16-   C15-   H5S
  9940   9938   9941   9944      9     0.00   0.66944   3 ;    H6S-   C16-   C15-   C14
  9941   9944   9947   9948      9     0.00   0.66944   3 ;    C15-   C14-   C13-   H3R
  9941   9944   9947   9949      9     0.00   0.66944   3 ;    C15-   C14-   C13-   H3S
  9941   9944   9947   9950      9     0.00   0.41840   1 ;    C15-   C14-   C13-   C12
  9941   9944   9947   9950      9     0.00   0.41840   2 ;    C15-   C14-   C13-   C12
  9941   9944   9947   9950      9     0.00   0.41840   4 ;    C15-   C14-   C13-   C12
  9941   9944   9947   9950      9     0.00   0.41840   5 ;    C15-   C14-   C13-   C12
  9941   9944   9947   9950      9     0.00   1.25520   3 ;    C15-   C14-   C13-   C12
  9942   9941   9944   9945      9     0.00   0.62760   3 ;    H5R-   C15-   C14-   H4R
  9942   9941   9944   9946      9     0.00   0.62760   3 ;    H5R-   C15-   C14-   H4S
  9942   9941   9944   9947      9     0.00   0.66944   3 ;    H5R-   C15-   C14-   C13
  9943   9941   9944   9945      9     0.00   0.62760   3 ;    H5S-   C15-   C14-   H4R
  9943   9941   9944   9946      9     0.00   0.62760   3 ;    H5S-   C15-   C14-   H4S
  9943   9941   9944   9947      9     0.00   0.66944   3 ;    H5S-   C15-   C14-   C13
  9944   9947   9950   9951      9     0.00   0.66944   3 ;    C14-   C13-   C12-   H2R
  9944   9947   9950   9952      9     0.00   0.66944   3 ;    C14-   C13-   C12-   H2S
  9944   9947   9950   9953      9     0.00   0.65270   3 ;    C14-   C13-   C12-   C11
  9945   9944   9947   9948      9     0.00   0.62760   3 ;    H4R-   C14-   C13-   H3R
  9945   9944   9947   9949      9     0.00   0.62760   3 ;    H4R-   C14-   C13-   H3S
  9945   9944   9947   9950      9     0.00   0.66944   3 ;    H4R-   C14-   C13-   C12
  9946   9944   9947   9948      9     0.00   0.62760   3 ;    H4S-   C14-   C13-   H3R
  9946   9944   9947   9949      9     0.00   0.62760   3 ;    H4S-   C14-   C13-   H3S
  9946   9944   9947   9950      9     0.00   0.66944   3 ;    H4S-   C14-   C13-   C12
  9947   9950   9953   9954      9   180.00   0.00000   2 ;    C13-   C12-   C11-   O12
  9947   9950   9953   9955      9   180.00   0.00000   2 ;    C13-   C12-   C11-   O11
  9948   9947   9950   9951      9     0.00   0.62760   3 ;    H3R-   C13-   C12-   H2R
  9948   9947   9950   9952      9     0.00   0.62760   3 ;    H3R-   C13-   C12-   H2S
  9948   9947   9950   9953      9     0.00   0.65270   3 ;    H3R-   C13-   C12-   C11
  9949   9947   9950   9951      9     0.00   0.62760   3 ;    H3S-   C13-   C12-   H2R
  9949   9947   9950   9952      9     0.00   0.62760   3 ;    H3S-   C13-   C12-   H2S
  9949   9947   9950   9953      9     0.00   0.65270   3 ;    H3S-   C13-   C12-   C11
  9950   9953   9955   9956      9   180.00  11.29680   2 ;    C12-   C11-   O11-    C1
  9951   9950   9953   9954      9     0.00   3.34720   1 ;    H2R-   C12-   C11-   O12
  9951   9950   9953   9954      9   180.00   0.33472   3 ;    H2R-   C12-   C11-   O12
  9951   9950   9953   9955      9   180.00   0.00000   2 ;    H2R-   C12-   C11-   O11
  9952   9950   9953   9954      9     0.00   3.34720   1 ;    H2S-   C12-   C11-   O12
  9952   9950   9953   9954      9   180.00   0.33472   3 ;    H2S-   C12-   C11-   O12
  9952   9950   9953   9955      9   180.00   0.00000   2 ;    H2S-   C12-   C11-   O11
  9953   9955   9956   9957      9     0.00   1.60247   3 ;    C11-   O11-    C1-    HR
  9953   9955   9956   9958      9     0.00   1.60247   3 ;    C11-   O11-    C1-    HS
  9953   9955   9956   9959      9     0.00  -0.41840   1 ;    C11-   O11-    C1-    C2
  9954   9953   9955   9956      9   180.00   5.85760   1 ;    O12-   C11-   O11-    C1
  9954   9953   9955   9956      9   180.00  11.29680   2 ;    O12-   C11-   O11-    C1
  9955   9956   9959   9960      9     0.00   0.00000   0 ;    O11-    C1-    C2-    HX
  9955   9956   9959   9960      9     0.00   1.04600   1 ;    O11-    C1-    C2-    HX
  9955   9956   9959   9961      9     0.00   0.00000   0 ;    O11-    C1-    C2-    C3
  9955   9956   9959   9961      9     0.00   0.00000   0 ;    O11-    C1-    C2-    C3
  9955   9956   9959   9961      9     0.00   0.00000   0 ;    O11-    C1-    C2-    C3
  9955   9956   9959   9961      9     0.00   0.00000   0 ;    O11-    C1-    C2-    C3
  9955   9956   9959   9961      9     0.00   0.00000   0 ;    O11-    C1-    C2-    C3
  9955   9956   9959   9988      9     0.00   1.25520   2 ;    O11-    C1-    C2-   O21
  9955   9956   9959   9988      9     0.00   4.18400   3 ;    O11-    C1-    C2-   O21
  9955   9956   9959   9988      9   180.00  -0.41840   1 ;    O11-    C1-    C2-   O21
  9956   9959   9961   9962      9     0.00   0.65270   3 ;     C1-    C2-    C3-    HA
  9956   9959   9961   9963      9     0.00   0.65270   3 ;     C1-    C2-    C3-    HB
  9956   9959   9961   9964      9   180.00   3.34720   1 ;     C1-    C2-    C3-   O31
  9956   9959   9988   9989      9     0.00  -0.41840   1 ;     C1-    C2-   O21-   C21
  9957   9956   9959   9960      9     0.00   0.65270   3 ;     HR-    C1-    C2-    HX
  9957   9956   9959   9961      9     0.00   0.65270   3 ;     HR-    C1-    C2-    C3
  9957   9956   9959   9988      9     0.00   0.00000   0 ;     HR-    C1-    C2-   O21
  9957   9956   9959   9988      9     0.00   1.04600   1 ;     HR-    C1-    C2-   O21
  9958   9956   9959   9960      9     0.00   0.65270   3 ;     HS-    C1-    C2-    HX
  9958   9956   9959   9961      9     0.00   0.65270   3 ;     HS-    C1-    C2-    C3
  9958   9956   9959   9988      9     0.00   0.00000   0 ;     HS-    C1-    C2-   O21
  9958   9956   9959   9988      9     0.00   1.04600   1 ;     HS-    C1-    C2-   O21
  9959   9961   9964   9965      9     0.00   0.00000   0 ;     C2-    C3-   O31-   P31
  9959   9961   9964   9965      9   180.00  -3.34720   2 ;     C2-    C3-   O31-   P31
  9959   9988   9989   9990      9   180.00   5.85760   1 ;     C2-   O21-   C21-   O22
  9959   9988   9989   9990      9   180.00  11.29680   2 ;     C2-   O21-   C21-   O22
  9959   9988   9989  10028      9   180.00  11.29680   2 ;     C2-   O21-   C21-   C12
  9960   9959   9961   9962      9     0.00   0.65270   3 ;     HX-    C2-    C3-    HA
  9960   9959   9961   9963      9     0.00   0.65270   3 ;     HX-    C2-    C3-    HB
  9960   9959   9961   9964      9     0.00   0.00000   0 ;     HX-    C2-    C3-   O31
  9960   9959   9961   9964      9     0.00   1.04600   1 ;     HX-    C2-    C3-   O31
  9960   9959   9988   9989      9     0.00   1.60247   3 ;     HX-    C2-   O21-   C21
  9961   9959   9988   9989      9     0.00  -0.41840   1 ;     C3-    C2-   O21-   C21
  9961   9964   9965   9966      9     0.00   2.51040   3 ;     C3-   O31-   P31-   O32
  9961   9964   9965   9966      9     0.00   9.62320   2 ;     C3-   O31-   P31-   O32
  9961   9964   9965   9986      9     0.00   0.00000   0 ;     C3-   O31-   P31-   O33
  9961   9964   9965   9986      9     0.00   0.00000   0 ;     C3-   O31-   P31-   O33
  9961   9964   9965   9986      9     0.00   0.00000   0 ;     C3-   O31-   P31-   O33
  9961   9964   9965   9986      9     0.00   0.00000   0 ;     C3-   O31-   P31-   O33
  9961   9964   9965   9986      9     0.00   0.83680   2 ;     C3-   O31-   P31-   O33
  9961   9964   9965   9987      9     0.00   0.00000   0 ;     C3-   O31-   P31-   O34
  9961   9964   9965   9987      9     0.00   0.00000   0 ;     C3-   O31-   P31-   O34
  9961   9964   9965   9987      9     0.00   0.00000   0 ;     C3-   O31-   P31-   O34
  9961   9964   9965   9987      9     0.00   0.00000   0 ;     C3-   O31-   P31-   O34
  9961   9964   9965   9987      9     0.00   0.83680   2 ;     C3-   O31-   P31-   O34
  9962   9961   9959   9988      9     0.00   0.00000   0 ;     HA-    C3-    C2-   O21
  9962   9961   9959   9988      9     0.00   1.04600   1 ;     HA-    C3-    C2-   O21
  9962   9961   9964   9965      9     0.00   0.00000   0 ;     HA-    C3-   O31-   P31
  9962   9961   9964   9965      9     0.00   0.00000   0 ;     HA-    C3-   O31-   P31
  9962   9961   9964   9965      9     0.00   0.00000   0 ;     HA-    C3-   O31-   P31
  9962   9961   9964   9965      9     0.00   0.00000   0 ;     HA-    C3-   O31-   P31
  9962   9961   9964   9965      9     0.00   1.60247   3 ;     HA-    C3-   O31-   P31
  9963   9961   9959   9988      9     0.00   0.00000   0 ;     HB-    C3-    C2-   O21
  9963   9961   9959   9988      9     0.00   1.04600   1 ;     HB-    C3-    C2-   O21
  9963   9961   9964   9965      9     0.00   0.00000   0 ;     HB-    C3-   O31-   P31
  9963   9961   9964   9965      9     0.00   0.00000   0 ;     HB-    C3-   O31-   P31
  9963   9961   9964   9965      9     0.00   0.00000   0 ;     HB-    C3-   O31-   P31
  9963   9961   9964   9965      9     0.00   0.00000   0 ;     HB-    C3-   O31-   P31
  9963   9961   9964   9965      9     0.00   1.60247   3 ;     HB-    C3-   O31-   P31
  9964   9961   9959   9988      9     0.00   0.00000   0 ;    O31-    C3-    C2-   O21
  9964   9961   9959   9988      9     0.00   0.00000   0 ;    O31-    C3-    C2-   O21
  9964   9961   9959   9988      9     0.00   0.00000   0 ;    O31-    C3-    C2-   O21
  9964   9961   9959   9988      9     0.00   0.00000   0 ;    O31-    C3-    C2-   O21
  9964   9961   9959   9988      9     0.00   0.00000   0 ;    O31-    C3-    C2-   O21
  9964   9965   9966   9967      9     0.00   2.51040   3 ;    O31-   P31-   O32-   C31
  9964   9965   9966   9967      9     0.00   9.62320   2 ;    O31-   P31-   O32-   C31
  9965   9966   9967   9968      9     0.00   0.00000   0 ;    P31-   O32-   C31-   H1A
  9965   9966   9967   9968      9     0.00   0.00000   0 ;    P31-   O32-   C31-   H1A
  9965   9966   9967   9968      9     0.00   0.00000   0 ;    P31-   O32-   C31-   H1A
  9965   9966   9967   9968      9     0.00   0.00000   0 ;    P31-   O32-   C31-   H1A
  9965   9966   9967   9968      9     0.00   1.60247   3 ;    P31-   O32-   C31-   H1A
  9965   9966   9967   9969      9     0.00   0.00000   0 ;    P31-   O32-   C31-   H1B
  9965   9966   9967   9969      9     0.00   0.00000   0 ;    P31-   O32-   C31-   H1B
  9965   9966   9967   9969      9     0.00   0.00000   0 ;    P31-   O32-   C31-   H1B
  9965   9966   9967   9969      9     0.00   0.00000   0 ;    P31-   O32-   C31-   H1B
  9965   9966   9967   9969      9     0.00   1.60247   3 ;    P31-   O32-   C31-   H1B
  9965   9966   9967   9970      9     0.00   0.00000   0 ;    P31-   O32-   C31-   C32
  9965   9966   9967   9970      9   180.00  -3.34720   2 ;    P31-   O32-   C31-   C32
  9966   9967   9970   9971      9     0.00   0.65270   3 ;    O32-   C31-   C32-   H2A
  9966   9967   9970   9972      9     0.00   0.65270   3 ;    O32-   C31-   C32-   H2B
  9966   9967   9970   9973      9     0.00   4.18400   3 ;    O32-   C31-   C32-   N31
  9967   9966   9965   9986      9     0.00   0.00000   0 ;    C31-   O32-   P31-   O33
  9967   9966   9965   9986      9     0.00   0.00000   0 ;    C31-   O32-   P31-   O33
  9967   9966   9965   9986      9     0.00   0.00000   0 ;    C31-   O32-   P31-   O33
  9967   9966   9965   9986      9     0.00   0.00000   0 ;    C31-   O32-   P31-   O33
  9967   9966   9965   9986      9     0.00   0.83680   2 ;    C31-   O32-   P31-   O33
  9967   9966   9965   9987      9     0.00   0.00000   0 ;    C31-   O32-   P31-   O34
  9967   9966   9965   9987      9     0.00   0.00000   0 ;    C31-   O32-   P31-   O34
  9967   9966   9965   9987      9     0.00   0.00000   0 ;    C31-   O32-   P31-   O34
  9967   9966   9965   9987      9     0.00   0.00000   0 ;    C31-   O32-   P31-   O34
  9967   9966   9965   9987      9     0.00   0.83680   2 ;    C31-   O32-   P31-   O34
  9967   9970   9973   9974      9     0.00   0.65270   3 ;    C31-   C32-   N31-   C33
  9967   9970   9973   9978      9     0.00   0.65270   3 ;    C31-   C32-   N31-   C34
  9967   9970   9973   9982      9     0.00   0.65270   3 ;    C31-   C32-   N31-   C35
  9968   9967   9970   9971      9     0.00   0.65270   3 ;    H1A-   C31-   C32-   H2A
  9968   9967   9970   9972      9     0.00   0.65270   3 ;    H1A-   C31-   C32-   H2B
  9968   9967   9970   9973      9     0.00   0.65270   3 ;    H1A-   C31-   C32-   N31
  9969   9967   9970   9971      9     0.00   0.65270   3 ;    H1B-   C31-   C32-   H2A
  9969   9967   9970   9972      9     0.00   0.65270   3 ;    H1B-   C31-   C32-   H2B
  9969   9967   9970   9973      9     0.00   0.65270   3 ;    H1B-   C31-   C32-   N31
  9970   9973   9974   9975      9     0.00   0.65270   3 ;    C32-   N31-   C33-   H3A
  9970   9973   9974   9976      9     0.00   0.65270   3 ;    C32-   N31-   C33-   H3B
  9970   9973   9974   9977      9     0.00   0.65270   3 ;    C32-   N31-   C33-   H3C
  9970   9973   9978   9979      9     0.00   0.65270   3 ;    C32-   N31-   C34-   H4A
  9970   9973   9978   9980      9     0.00   0.65270   3 ;    C32-   N31-   C34-   H4B
  9970   9973   9978   9981      9     0.00   0.65270   3 ;    C32-   N31-   C34-   H4C
  9970   9973   9982   9983      9     0.00   0.65270   3 ;    C32-   N31-   C35-   H5A
  9970   9973   9982   9984      9     0.00   0.65270   3 ;    C32-   N31-   C35-   H5B
  9970   9973   9982   9985      9     0.00   0.65270   3 ;    C32-   N31-   C35-   H5C
  9971   9970   9973   9974      9     0.00   0.65270   3 ;    H2A-   C32-   N31-   C33
  9971   9970   9973   9978      9     0.00   0.65270   3 ;    H2A-   C32-   N31-   C34
  9971   9970   9973   9982      9     0.00   0.65270   3 ;    H2A-   C32-   N31-   C35
  9972   9970   9973   9974      9     0.00   0.65270   3 ;    H2B-   C32-   N31-   C33
  9972   9970   9973   9978      9     0.00   0.65270   3 ;    H2B-   C32-   N31-   C34
  9972   9970   9973   9982      9     0.00   0.65270   3 ;    H2B-   C32-   N31-   C35
  9974   9973   9978   9979      9     0.00   0.65270   3 ;    C33-   N31-   C34-   H4A
  9974   9973   9978   9980      9     0.00   0.65270   3 ;    C33-   N31-   C34-   H4B
  9974   9973   9978   9981      9     0.00   0.65270   3 ;    C33-   N31-   C34-   H4C
  9974   9973   9982   9983      9     0.00   0.65270   3 ;    C33-   N31-   C35-   H5A
  9974   9973   9982   9984      9     0.00   0.65270   3 ;    C33-   N31-   C35-   H5B
  9974   9973   9982   9985      9     0.00   0.65270   3 ;    C33-   N31-   C35-   H5C
  9975   9974   9973   9978      9     0.00   0.65270   3 ;    H3A-   C33-   N31-   C34
  9975   9974   9973   9982      9     0.00   0.65270   3 ;    H3A-   C33-   N31-   C35
  9976   9974   9973   9978      9     0.00   0.65270   3 ;    H3B-   C33-   N31-   C34
  9976   9974   9973   9982      9     0.00   0.65270   3 ;    H3B-   C33-   N31-   C35
  9977   9974   9973   9978      9     0.00   0.65270   3 ;    H3C-   C33-   N31-   C34
  9977   9974   9973   9982      9     0.00   0.65270   3 ;    H3C-   C33-   N31-   C35
  9978   9973   9982   9983      9     0.00   0.65270   3 ;    C34-   N31-   C35-   H5A
  9978   9973   9982   9984      9     0.00   0.65270   3 ;    C34-   N31-   C35-   H5B
  9978   9973   9982   9985      9     0.00   0.65270   3 ;    C34-   N31-   C35-   H5C
  9979   9978   9973   9982      9     0.00   0.65270   3 ;    H4A-   C34-   N31-   C35
  9980   9978   9973   9982      9     0.00   0.65270   3 ;    H4B-   C34-   N31-   C35
  9981   9978   9973   9982      9     0.00   0.65270   3 ;    H4C-   C34-   N31-   C35
  9988   9989  10028  10025      9   180.00   0.00000   2 ;    O21-   C21-   C12-   C13
  9988   9989  10028  10029      9   180.00   0.00000   2 ;    O21-   C21-   C12-   H2R
  9988   9989  10028  10030      9   180.00   0.00000   2 ;    O21-   C21-   C12-   H2S
  9989  10028  10025  10022      9     0.00   0.65270   3 ;    C21-   C12-   C13-   C14
  9989  10028  10025  10026      9     0.00   0.65270   3 ;    C21-   C12-   C13-   H3R
  9989  10028  10025  10027      9     0.00   0.65270   3 ;    C21-   C12-   C13-   H3S
  9990   9989  10028  10025      9   180.00   0.00000   2 ;    O22-   C21-   C12-   C13
  9990   9989  10028  10029      9     0.00   3.34720   1 ;    O22-   C21-   C12-   H2R
  9990   9989  10028  10029      9   180.00   0.33472   3 ;    O22-   C21-   C12-   H2R
  9990   9989  10028  10030      9     0.00   3.34720   1 ;    O22-   C21-   C12-   H2S
  9990   9989  10028  10030      9   180.00   0.33472   3 ;    O22-   C21-   C12-   H2S
  9991   9992   9995   9996      9     0.00   0.62760   3 ;   H14T-  C114-  C113-  H13R
  9991   9992   9995   9997      9     0.00   0.62760   3 ;   H14T-  C114-  C113-  H13S
  9991   9992   9995   9998      9     0.00   0.66944   3 ;   H14T-  C114-  C113-  C112
  9992   9995   9998   9999      9     0.00   0.66944   3 ;   C114-  C113-  C112-  H12R
  9992   9995   9998  10000      9     0.00   0.66944   3 ;   C114-  C113-  C112-  H12S
  9992   9995   9998  10001      9     0.00   0.41840   1 ;   C114-  C113-  C112-  C111
  9992   9995   9998  10001      9     0.00   0.41840   2 ;   C114-  C113-  C112-  C111
  9992   9995   9998  10001      9     0.00   0.41840   4 ;   C114-  C113-  C112-  C111
  9992   9995   9998  10001      9     0.00   0.41840   5 ;   C114-  C113-  C112-  C111
  9992   9995   9998  10001      9     0.00   1.25520   3 ;   C114-  C113-  C112-  C111
  9993   9992   9995   9996      9     0.00   0.62760   3 ;   H14R-  C114-  C113-  H13R
  9993   9992   9995   9997      9     0.00   0.62760   3 ;   H14R-  C114-  C113-  H13S
  9993   9992   9995   9998      9     0.00   0.66944   3 ;   H14R-  C114-  C113-  C112
  9994   9992   9995   9996      9     0.00   0.62760   3 ;   H14S-  C114-  C113-  H13R
  9994   9992   9995   9997      9     0.00   0.62760   3 ;   H14S-  C114-  C113-  H13S
  9994   9992   9995   9998      9     0.00   0.66944   3 ;   H14S-  C114-  C113-  C112
  9995   9998  10001  10002      9     0.00   0.66944   3 ;   C113-  C112-  C111-  H11R
  9995   9998  10001  10003      9     0.00   0.66944   3 ;   C113-  C112-  C111-  H11S
  9995   9998  10001  10004      9     0.00   0.41840   1 ;   C113-  C112-  C111-  C110
  9995   9998  10001  10004      9     0.00   0.41840   2 ;   C113-  C112-  C111-  C110
  9995   9998  10001  10004      9     0.00   0.41840   4 ;   C113-  C112-  C111-  C110
  9995   9998  10001  10004      9     0.00   0.41840   5 ;   C113-  C112-  C111-  C110
  9995   9998  10001  10004      9     0.00   1.25520   3 ;   C113-  C112-  C111-  C110
  9996   9995   9998   9999      9     0.00   0.62760   3 ;   H13R-  C113-  C112-  H12R
  9996   9995   9998  10000      9     0.00   0.62760   3 ;   H13R-  C113-  C112-  H12S
  9996   9995   9998  10001      9     0.00   0.66944   3 ;   H13R-  C113-  C112-  C111
  9997   9995   9998   9999      9     0.00   0.62760   3 ;   H13S-  C113-  C112-  H12R
  9997   9995   9998  10000      9     0.00   0.62760   3 ;   H13S-  C113-  C112-  H12S
  9997   9995   9998  10001      9     0.00   0.66944   3 ;   H13S-  C113-  C112-  C111
  9998  10001  10004  10005      9     0.00   0.66944   3 ;   C112-  C111-  C110-  H10R
  9998  10001  10004  10006      9     0.00   0.66944   3 ;   C112-  C111-  C110-  H10S
  9998  10001  10004  10007      9     0.00   0.41840   1 ;   C112-  C111-  C110-   C19
  9998  10001  10004  10007      9     0.00   0.41840   2 ;   C112-  C111-  C110-   C19
  9998  10001  10004  10007      9     0.00   0.41840   4 ;   C112-  C111-  C110-   C19
  9998  10001  10004  10007      9     0.00   0.41840   5 ;   C112-  C111-  C110-   C19
  9998  10001  10004  10007      9     0.00   1.25520   3 ;   C112-  C111-  C110-   C19
  9999   9998  10001  10002      9     0.00   0.62760   3 ;   H12R-  C112-  C111-  H11R
  9999   9998  10001  10003      9     0.00   0.62760   3 ;   H12R-  C112-  C111-  H11S
  9999   9998  10001  10004      9     0.00   0.66944   3 ;   H12R-  C112-  C111-  C110
 10000   9998  10001  10002      9     0.00   0.62760   3 ;   H12S-  C112-  C111-  H11R
 10000   9998  10001  10003      9     0.00   0.62760   3 ;   H12S-  C112-  C111-  H11S
 10000   9998  10001  10004      9     0.00   0.66944   3 ;   H12S-  C112-  C111-  C110
 10001  10004  10007  10008      9     0.00   0.66944   3 ;   C111-  C110-   C19-   H9R
 10001  10004  10007  10009      9     0.00   0.66944   3 ;   C111-  C110-   C19-   H9S
 10001  10004  10007  10010      9     0.00   0.41840   1 ;   C111-  C110-   C19-   C18
 10001  10004  10007  10010      9     0.00   0.41840   2 ;   C111-  C110-   C19-   C18
 10001  10004  10007  10010      9     0.00   0.41840   4 ;   C111-  C110-   C19-   C18
 10001  10004  10007  10010      9     0.00   0.41840   5 ;   C111-  C110-   C19-   C18
 10001  10004  10007  10010      9     0.00   1.25520   3 ;   C111-  C110-   C19-   C18
 10002  10001  10004  10005      9     0.00   0.62760   3 ;   H11R-  C111-  C110-  H10R
 10002  10001  10004  10006      9     0.00   0.62760   3 ;   H11R-  C111-  C110-  H10S
 10002  10001  10004  10007      9     0.00   0.66944   3 ;   H11R-  C111-  C110-   C19
 10003  10001  10004  10005      9     0.00   0.62760   3 ;   H11S-  C111-  C110-  H10R
 10003  10001  10004  10006      9     0.00   0.62760   3 ;   H11S-  C111-  C110-  H10S
 10003  10001  10004  10007      9     0.00   0.66944   3 ;   H11S-  C111-  C110-   C19
 10004  10007  10010  10011      9     0.00   0.66944   3 ;   C110-   C19-   C18-   H8R
 10004  10007  10010  10012      9     0.00   0.66944   3 ;   C110-   C19-   C18-   H8S
 10004  10007  10010  10013      9     0.00   0.41840   1 ;   C110-   C19-   C18-   C17
 10004  10007  10010  10013      9     0.00   0.41840   2 ;   C110-   C19-   C18-   C17
 10004  10007  10010  10013      9     0.00   0.41840   4 ;   C110-   C19-   C18-   C17
 10004  10007  10010  10013      9     0.00   0.41840   5 ;   C110-   C19-   C18-   C17
 10004  10007  10010  10013      9     0.00   1.25520   3 ;   C110-   C19-   C18-   C17
 10005  10004  10007  10008      9     0.00   0.62760   3 ;   H10R-  C110-   C19-   H9R
 10005  10004  10007  10009      9     0.00   0.62760   3 ;   H10R-  C110-   C19-   H9S
 10005  10004  10007  10010      9     0.00   0.66944   3 ;   H10R-  C110-   C19-   C18
 10006  10004  10007  10008      9     0.00   0.62760   3 ;   H10S-  C110-   C19-   H9R
 10006  10004  10007  10009      9     0.00   0.62760   3 ;   H10S-  C110-   C19-   H9S
 10006  10004  10007  10010      9     0.00   0.66944   3 ;   H10S-  C110-   C19-   C18
 10007  10010  10013  10014      9     0.00   0.66944   3 ;    C19-   C18-   C17-   H7R
 10007  10010  10013  10015      9     0.00   0.66944   3 ;    C19-   C18-   C17-   H7S
 10007  10010  10013  10016      9     0.00   0.41840   1 ;    C19-   C18-   C17-   C16
 10007  10010  10013  10016      9     0.00   0.41840   2 ;    C19-   C18-   C17-   C16
 10007  10010  10013  10016      9     0.00   0.41840   4 ;    C19-   C18-   C17-   C16
 10007  10010  10013  10016      9     0.00   0.41840   5 ;    C19-   C18-   C17-   C16
 10007  10010  10013  10016      9     0.00   1.25520   3 ;    C19-   C18-   C17-   C16
 10008  10007  10010  10011      9     0.00   0.62760   3 ;    H9R-   C19-   C18-   H8R
 10008  10007  10010  10012      9     0.00   0.62760   3 ;    H9R-   C19-   C18-   H8S
 10008  10007  10010  10013      9     0.00   0.66944   3 ;    H9R-   C19-   C18-   C17
 10009  10007  10010  10011      9     0.00   0.62760   3 ;    H9S-   C19-   C18-   H8R
 10009  10007  10010  10012      9     0.00   0.62760   3 ;    H9S-   C19-   C18-   H8S
 10009  10007  10010  10013      9     0.00   0.66944   3 ;    H9S-   C19-   C18-   C17
 10010  10013  10016  10017      9     0.00   0.66944   3 ;    C18-   C17-   C16-   H6R
 10010  10013  10016  10018      9     0.00   0.66944   3 ;    C18-   C17-   C16-   H6S
 10010  10013  10016  10019      9     0.00   0.41840   1 ;    C18-   C17-   C16-   C15
 10010  10013  10016  10019      9     0.00   0.41840   2 ;    C18-   C17-   C16-   C15
 10010  10013  10016  10019      9     0.00   0.41840   4 ;    C18-   C17-   C16-   C15
 10010  10013  10016  10019      9     0.00   0.41840   5 ;    C18-   C17-   C16-   C15
 10010  10013  10016  10019      9     0.00   1.25520   3 ;    C18-   C17-   C16-   C15
 10011  10010  10013  10014      9     0.00   0.62760   3 ;    H8R-   C18-   C17-   H7R
 10011  10010  10013  10015      9     0.00   0.62760   3 ;    H8R-   C18-   C17-   H7S
 10011  10010  10013  10016      9     0.00   0.66944   3 ;    H8R-   C18-   C17-   C16
 10012  10010  10013  10014      9     0.00   0.62760   3 ;    H8S-   C18-   C17-   H7R
 10012  10010  10013  10015      9     0.00   0.62760   3 ;    H8S-   C18-   C17-   H7S
 10012  10010  10013  10016      9     0.00   0.66944   3 ;    H8S-   C18-   C17-   C16
 10013  10016  10019  10020      9     0.00   0.66944   3 ;    C17-   C16-   C15-   H5R
 10013  10016  10019  10021      9     0.00   0.66944   3 ;    C17-   C16-   C15-   H5S
 10013  10016  10019  10022      9     0.00   0.41840   1 ;    C17-   C16-   C15-   C14
 10013  10016  10019  10022      9     0.00   0.41840   2 ;    C17-   C16-   C15-   C14
 10013  10016  10019  10022      9     0.00   0.41840   4 ;    C17-   C16-   C15-   C14
 10013  10016  10019  10022      9     0.00   0.41840   5 ;    C17-   C16-   C15-   C14
 10013  10016  10019  10022      9     0.00   1.25520   3 ;    C17-   C16-   C15-   C14
 10014  10013  10016  10017      9     0.00   0.62760   3 ;    H7R-   C17-   C16-   H6R
 10014  10013  10016  10018      9     0.00   0.62760   3 ;    H7R-   C17-   C16-   H6S
 10014  10013  10016  10019      9     0.00   0.66944   3 ;    H7R-   C17-   C16-   C15
 10015  10013  10016  10017      9     0.00   0.62760   3 ;    H7S-   C17-   C16-   H6R
 10015  10013  10016  10018      9     0.00   0.62760   3 ;    H7S-   C17-   C16-   H6S
 10015  10013  10016  10019      9     0.00   0.66944   3 ;    H7S-   C17-   C16-   C15
 10016  10019  10022  10023      9     0.00   0.66944   3 ;    C16-   C15-   C14-   H4R
 10016  10019  10022  10024      9     0.00   0.66944   3 ;    C16-   C15-   C14-   H4S
 10016  10019  10022  10025      9     0.00   0.41840   1 ;    C16-   C15-   C14-   C13
 10016  10019  10022  10025      9     0.00   0.41840   2 ;    C16-   C15-   C14-   C13
 10016  10019  10022  10025      9     0.00   0.41840   4 ;    C16-   C15-   C14-   C13
 10016  10019  10022  10025      9     0.00   0.41840   5 ;    C16-   C15-   C14-   C13
 10016  10019  10022  10025      9     0.00   1.25520   3 ;    C16-   C15-   C14-   C13
 10017  10016  10019  10020      9     0.00   0.62760   3 ;    H6R-   C16-   C15-   H5R
 10017  10016  10019  10021      9     0.00   0.62760   3 ;    H6R-   C16-   C15-   H5S
 10017  10016  10019  10022      9     0.00   0.66944   3 ;    H6R-   C16-   C15-   C14
 10018  10016  10019  10020      9     0.00   0.62760   3 ;    H6S-   C16-   C15-   H5R
 10018  10016  10019  10021      9     0.00   0.62760   3 ;    H6S-   C16-   C15-   H5S
 10018  10016  10019  10022      9     0.00   0.66944   3 ;    H6S-   C16-   C15-   C14
 10019  10022  10025  10026      9     0.00   0.66944   3 ;    C15-   C14-   C13-   H3R
 10019  10022  10025  10027      9     0.00   0.66944   3 ;    C15-   C14-   C13-   H3S
 10019  10022  10025  10028      9     0.00   0.41840   1 ;    C15-   C14-   C13-   C12
 10019  10022  10025  10028      9     0.00   0.41840   2 ;    C15-   C14-   C13-   C12
 10019  10022  10025  10028      9     0.00   0.41840   4 ;    C15-   C14-   C13-   C12
 10019  10022  10025  10028      9     0.00   0.41840   5 ;    C15-   C14-   C13-   C12
 10019  10022  10025  10028      9     0.00   1.25520   3 ;    C15-   C14-   C13-   C12
 10020  10019  10022  10023      9     0.00   0.62760   3 ;    H5R-   C15-   C14-   H4R
 10020  10019  10022  10024      9     0.00   0.62760   3 ;    H5R-   C15-   C14-   H4S
 10020  10019  10022  10025      9     0.00   0.66944   3 ;    H5R-   C15-   C14-   C13
 10021  10019  10022  10023      9     0.00   0.62760   3 ;    H5S-   C15-   C14-   H4R
 10021  10019  10022  10024      9     0.00   0.62760   3 ;    H5S-   C15-   C14-   H4S
 10021  10019  10022  10025      9     0.00   0.66944   3 ;    H5S-   C15-   C14-   C13
 10022  10025  10028  10029      9     0.00   0.66944   3 ;    C14-   C13-   C12-   H2R
 10022  10025  10028  10030      9     0.00   0.66944   3 ;    C14-   C13-   C12-   H2S
 10023  10022  10025  10026      9     0.00   0.62760   3 ;    H4R-   C14-   C13-   H3R
 10023  10022  10025  10027      9     0.00   0.62760   3 ;    H4R-   C14-   C13-   H3S
 10023  10022  10025  10028      9     0.00   0.66944   3 ;    H4R-   C14-   C13-   C12
 10024  10022  10025  10026      9     0.00   0.62760   3 ;    H4S-   C14-   C13-   H3R
 10024  10022  10025  10027      9     0.00   0.62760   3 ;    H4S-   C14-   C13-   H3S
 10024  10022  10025  10028      9     0.00   0.66944   3 ;    H4S-   C14-   C13-   C12
 10026  10025  10028  10029      9     0.00   0.62760   3 ;    H3R-   C13-   C12-   H2R
 10026  10025  10028  10030      9     0.00   0.62760   3 ;    H3R-   C13-   C12-   H2S
 10027  10025  10028  10029      9     0.00   0.62760   3 ;    H3S-   C13-   C12-   H2R
 10027  10025  10028  10030      9     0.00   0.62760   3 ;    H3S-   C13-   C12-   H2S
 10031  10032  10035  10036      9     0.00   0.62760   3 ;   H14T-  C114-  C113-  H13R
 10031  10032  10035  10037      9     0.00   0.62760   3 ;   H14T-  C114-  C113-  H13S
 10031  10032  10035  10038      9     0.00   0.66944   3 ;   H14T-  C114-  C113-  C112
 10032  10035  10038  10039      9     0.00   0.66944   3 ;   C114-  C113-  C112-  H12R
 10032  10035  10038  10040      9     0.00   0.66944   3 ;   C114-  C113-  C112-  H12S
 10032  10035  10038  10041      9     0.00   0.41840   1 ;   C114-  C113-  C112-  C111
 10032  10035  10038  10041      9     0.00   0.41840   2 ;   C114-  C113-  C112-  C111
 10032  10035  10038  10041      9     0.00   0.41840   4 ;   C114-  C113-  C112-  C111
 10032  10035  10038  10041      9     0.00   0.41840   5 ;   C114-  C113-  C112-  C111
 10032  10035  10038  10041      9     0.00   1.25520   3 ;   C114-  C113-  C112-  C111
 10033  10032  10035  10036      9     0.00   0.62760   3 ;   H14R-  C114-  C113-  H13R
 10033  10032  10035  10037      9     0.00   0.62760   3 ;   H14R-  C114-  C113-  H13S
 10033  10032  10035  10038      9     0.00   0.66944   3 ;   H14R-  C114-  C113-  C112
 10034  10032  10035  10036      9     0.00   0.62760   3 ;   H14S-  C114-  C113-  H13R
 10034  10032  10035  10037      9     0.00   0.62760   3 ;   H14S-  C114-  C113-  H13S
 10034  10032  10035  10038      9     0.00   0.66944   3 ;   H14S-  C114-  C113-  C112
 10035  10038  10041  10042      9     0.00   0.66944   3 ;   C113-  C112-  C111-  H11R
 10035  10038  10041  10043      9     0.00   0.66944   3 ;   C113-  C112-  C111-  H11S
 10035  10038  10041  10044      9     0.00   0.41840   1 ;   C113-  C112-  C111-  C110
 10035  10038  10041  10044      9     0.00   0.41840   2 ;   C113-  C112-  C111-  C110
 10035  10038  10041  10044      9     0.00   0.41840   4 ;   C113-  C112-  C111-  C110
 10035  10038  10041  10044      9     0.00   0.41840   5 ;   C113-  C112-  C111-  C110
 10035  10038  10041  10044      9     0.00   1.25520   3 ;   C113-  C112-  C111-  C110
 10036  10035  10038  10039      9     0.00   0.62760   3 ;   H13R-  C113-  C112-  H12R
 10036  10035  10038  10040      9     0.00   0.62760   3 ;   H13R-  C113-  C112-  H12S
 10036  10035  10038  10041      9     0.00   0.66944   3 ;   H13R-  C113-  C112-  C111
 10037  10035  10038  10039      9     0.00   0.62760   3 ;   H13S-  C113-  C112-  H12R
 10037  10035  10038  10040      9     0.00   0.62760   3 ;   H13S-  C113-  C112-  H12S
 10037  10035  10038  10041      9     0.00   0.66944   3 ;   H13S-  C113-  C112-  C111
 10038  10041  10044  10045      9     0.00   0.66944   3 ;   C112-  C111-  C110-  H10R
 10038  10041  10044  10046      9     0.00   0.66944   3 ;   C112-  C111-  C110-  H10S
 10038  10041  10044  10047      9     0.00   0.41840   1 ;   C112-  C111-  C110-   C19
 10038  10041  10044  10047      9     0.00   0.41840   2 ;   C112-  C111-  C110-   C19
 10038  10041  10044  10047      9     0.00   0.41840   4 ;   C112-  C111-  C110-   C19
 10038  10041  10044  10047      9     0.00   0.41840   5 ;   C112-  C111-  C110-   C19
 10038  10041  10044  10047      9     0.00   1.25520   3 ;   C112-  C111-  C110-   C19
 10039  10038  10041  10042      9     0.00   0.62760   3 ;   H12R-  C112-  C111-  H11R
 10039  10038  10041  10043      9     0.00   0.62760   3 ;   H12R-  C112-  C111-  H11S
 10039  10038  10041  10044      9     0.00   0.66944   3 ;   H12R-  C112-  C111-  C110
 10040  10038  10041  10042      9     0.00   0.62760   3 ;   H12S-  C112-  C111-  H11R
 10040  10038  10041  10043      9     0.00   0.62760   3 ;   H12S-  C112-  C111-  H11S
 10040  10038  10041  10044      9     0.00   0.66944   3 ;   H12S-  C112-  C111-  C110
 10041  10044  10047  10048      9     0.00   0.66944   3 ;   C111-  C110-   C19-   H9R
 10041  10044  10047  10049      9     0.00   0.66944   3 ;   C111-  C110-   C19-   H9S
 10041  10044  10047  10050      9     0.00   0.41840   1 ;   C111-  C110-   C19-   C18
 10041  10044  10047  10050      9     0.00   0.41840   2 ;   C111-  C110-   C19-   C18
 10041  10044  10047  10050      9     0.00   0.41840   4 ;   C111-  C110-   C19-   C18
 10041  10044  10047  10050      9     0.00   0.41840   5 ;   C111-  C110-   C19-   C18
 10041  10044  10047  10050      9     0.00   1.25520   3 ;   C111-  C110-   C19-   C18
 10042  10041  10044  10045      9     0.00   0.62760   3 ;   H11R-  C111-  C110-  H10R
 10042  10041  10044  10046      9     0.00   0.62760   3 ;   H11R-  C111-  C110-  H10S
 10042  10041  10044  10047      9     0.00   0.66944   3 ;   H11R-  C111-  C110-   C19
 10043  10041  10044  10045      9     0.00   0.62760   3 ;   H11S-  C111-  C110-  H10R
 10043  10041  10044  10046      9     0.00   0.62760   3 ;   H11S-  C111-  C110-  H10S
 10043  10041  10044  10047      9     0.00   0.66944   3 ;   H11S-  C111-  C110-   C19
 10044  10047  10050  10051      9     0.00   0.66944   3 ;   C110-   C19-   C18-   H8R
 10044  10047  10050  10052      9     0.00   0.66944   3 ;   C110-   C19-   C18-   H8S
 10044  10047  10050  10053      9     0.00   0.41840   1 ;   C110-   C19-   C18-   C17
 10044  10047  10050  10053      9     0.00   0.41840   2 ;   C110-   C19-   C18-   C17
 10044  10047  10050  10053      9     0.00   0.41840   4 ;   C110-   C19-   C18-   C17
 10044  10047  10050  10053      9     0.00   0.41840   5 ;   C110-   C19-   C18-   C17
 10044  10047  10050  10053      9     0.00   1.25520   3 ;   C110-   C19-   C18-   C17
 10045  10044  10047  10048      9     0.00   0.62760   3 ;   H10R-  C110-   C19-   H9R
 10045  10044  10047  10049      9     0.00   0.62760   3 ;   H10R-  C110-   C19-   H9S
 10045  10044  10047  10050      9     0.00   0.66944   3 ;   H10R-  C110-   C19-   C18
 10046  10044  10047  10048      9     0.00   0.62760   3 ;   H10S-  C110-   C19-   H9R
 10046  10044  10047  10049      9     0.00   0.62760   3 ;   H10S-  C110-   C19-   H9S
 10046  10044  10047  10050      9     0.00   0.66944   3 ;   H10S-  C110-   C19-   C18
 10047  10050  10053  10054      9     0.00   0.66944   3 ;    C19-   C18-   C17-   H7R
 10047  10050  10053  10055      9     0.00   0.66944   3 ;    C19-   C18-   C17-   H7S
 10047  10050  10053  10056      9     0.00   0.41840   1 ;    C19-   C18-   C17-   C16
 10047  10050  10053  10056      9     0.00   0.41840   2 ;    C19-   C18-   C17-   C16
 10047  10050  10053  10056      9     0.00   0.41840   4 ;    C19-   C18-   C17-   C16
 10047  10050  10053  10056      9     0.00   0.41840   5 ;    C19-   C18-   C17-   C16
 10047  10050  10053  10056      9     0.00   1.25520   3 ;    C19-   C18-   C17-   C16
 10048  10047  10050  10051      9     0.00   0.62760   3 ;    H9R-   C19-   C18-   H8R
 10048  10047  10050  10052      9     0.00   0.62760   3 ;    H9R-   C19-   C18-   H8S
 10048  10047  10050  10053      9     0.00   0.66944   3 ;    H9R-   C19-   C18-   C17
 10049  10047  10050  10051      9     0.00   0.62760   3 ;    H9S-   C19-   C18-   H8R
 10049  10047  10050  10052      9     0.00   0.62760   3 ;    H9S-   C19-   C18-   H8S
 10049  10047  10050  10053      9     0.00   0.66944   3 ;    H9S-   C19-   C18-   C17
 10050  10053  10056  10057      9     0.00   0.66944   3 ;    C18-   C17-   C16-   H6R
 10050  10053  10056  10058      9     0.00   0.66944   3 ;    C18-   C17-   C16-   H6S
 10050  10053  10056  10059      9     0.00   0.41840   1 ;    C18-   C17-   C16-   C15
 10050  10053  10056  10059      9     0.00   0.41840   2 ;    C18-   C17-   C16-   C15
 10050  10053  10056  10059      9     0.00   0.41840   4 ;    C18-   C17-   C16-   C15
 10050  10053  10056  10059      9     0.00   0.41840   5 ;    C18-   C17-   C16-   C15
 10050  10053  10056  10059      9     0.00   1.25520   3 ;    C18-   C17-   C16-   C15
 10051  10050  10053  10054      9     0.00   0.62760   3 ;    H8R-   C18-   C17-   H7R
 10051  10050  10053  10055      9     0.00   0.62760   3 ;    H8R-   C18-   C17-   H7S
 10051  10050  10053  10056      9     0.00   0.66944   3 ;    H8R-   C18-   C17-   C16
 10052  10050  10053  10054      9     0.00   0.62760   3 ;    H8S-   C18-   C17-   H7R
 10052  10050  10053  10055      9     0.00   0.62760   3 ;    H8S-   C18-   C17-   H7S
 10052  10050  10053  10056      9     0.00   0.66944   3 ;    H8S-   C18-   C17-   C16
 10053  10056  10059  10060      9     0.00   0.66944   3 ;    C17-   C16-   C15-   H5R
 10053  10056  10059  10061      9     0.00   0.66944   3 ;    C17-   C16-   C15-   H5S
 10053  10056  10059  10062      9     0.00   0.41840   1 ;    C17-   C16-   C15-   C14
 10053  10056  10059  10062      9     0.00   0.41840   2 ;    C17-   C16-   C15-   C14
 10053  10056  10059  10062      9     0.00   0.41840   4 ;    C17-   C16-   C15-   C14
 10053  10056  10059  10062      9     0.00   0.41840   5 ;    C17-   C16-   C15-   C14
 10053  10056  10059  10062      9     0.00   1.25520   3 ;    C17-   C16-   C15-   C14
 10054  10053  10056  10057      9     0.00   0.62760   3 ;    H7R-   C17-   C16-   H6R
 10054  10053  10056  10058      9     0.00   0.62760   3 ;    H7R-   C17-   C16-   H6S
 10054  10053  10056  10059      9     0.00   0.66944   3 ;    H7R-   C17-   C16-   C15
 10055  10053  10056  10057      9     0.00   0.62760   3 ;    H7S-   C17-   C16-   H6R
 10055  10053  10056  10058      9     0.00   0.62760   3 ;    H7S-   C17-   C16-   H6S
 10055  10053  10056  10059      9     0.00   0.66944   3 ;    H7S-   C17-   C16-   C15
 10056  10059  10062  10063      9     0.00   0.66944   3 ;    C16-   C15-   C14-   H4R
 10056  10059  10062  10064      9     0.00   0.66944   3 ;    C16-   C15-   C14-   H4S
 10056  10059  10062  10065      9     0.00   0.41840   1 ;    C16-   C15-   C14-   C13
 10056  10059  10062  10065      9     0.00   0.41840   2 ;    C16-   C15-   C14-   C13
 10056  10059  10062  10065      9     0.00   0.41840   4 ;    C16-   C15-   C14-   C13
 10056  10059  10062  10065      9     0.00   0.41840   5 ;    C16-   C15-   C14-   C13
 10056  10059  10062  10065      9     0.00   1.25520   3 ;    C16-   C15-   C14-   C13
 10057  10056  10059  10060      9     0.00   0.62760   3 ;    H6R-   C16-   C15-   H5R
 10057  10056  10059  10061      9     0.00   0.62760   3 ;    H6R-   C16-   C15-   H5S
 10057  10056  10059  10062      9     0.00   0.66944   3 ;    H6R-   C16-   C15-   C14
 10058  10056  10059  10060      9     0.00   0.62760   3 ;    H6S-   C16-   C15-   H5R
 10058  10056  10059  10061      9     0.00   0.62760   3 ;    H6S-   C16-   C15-   H5S
 10058  10056  10059  10062      9     0.00   0.66944   3 ;    H6S-   C16-   C15-   C14
 10059  10062  10065  10066      9     0.00   0.66944   3 ;    C15-   C14-   C13-   H3R
 10059  10062  10065  10067      9     0.00   0.66944   3 ;    C15-   C14-   C13-   H3S
 10059  10062  10065  10068      9     0.00   0.41840   1 ;    C15-   C14-   C13-   C12
 10059  10062  10065  10068      9     0.00   0.41840   2 ;    C15-   C14-   C13-   C12
 10059  10062  10065  10068      9     0.00   0.41840   4 ;    C15-   C14-   C13-   C12
 10059  10062  10065  10068      9     0.00   0.41840   5 ;    C15-   C14-   C13-   C12
 10059  10062  10065  10068      9     0.00   1.25520   3 ;    C15-   C14-   C13-   C12
 10060  10059  10062  10063      9     0.00   0.62760   3 ;    H5R-   C15-   C14-   H4R
 10060  10059  10062  10064      9     0.00   0.62760   3 ;    H5R-   C15-   C14-   H4S
 10060  10059  10062  10065      9     0.00   0.66944   3 ;    H5R-   C15-   C14-   C13
 10061  10059  10062  10063      9     0.00   0.62760   3 ;    H5S-   C15-   C14-   H4R
 10061  10059  10062  10064      9     0.00   0.62760   3 ;    H5S-   C15-   C14-   H4S
 10061  10059  10062  10065      9     0.00   0.66944   3 ;    H5S-   C15-   C14-   C13
 10062  10065  10068  10069      9     0.00   0.66944   3 ;    C14-   C13-   C12-   H2R
 10062  10065  10068  10070      9     0.00   0.66944   3 ;    C14-   C13-   C12-   H2S
 10062  10065  10068  10071      9     0.00   0.65270   3 ;    C14-   C13-   C12-   C11
 10063  10062  10065  10066      9     0.00   0.62760   3 ;    H4R-   C14-   C13-   H3R
 10063  10062  10065  10067      9     0.00   0.62760   3 ;    H4R-   C14-   C13-   H3S
 10063  10062  10065  10068      9     0.00   0.66944   3 ;    H4R-   C14-   C13-   C12
 10064  10062  10065  10066      9     0.00   0.62760   3 ;    H4S-   C14-   C13-   H3R
 10064  10062  10065  10067      9     0.00   0.62760   3 ;    H4S-   C14-   C13-   H3S
 10064  10062  10065  10068      9     0.00   0.66944   3 ;    H4S-   C14-   C13-   C12
 10065  10068  10071  10072      9   180.00   0.00000   2 ;    C13-   C12-   C11-   O12
 10065  10068  10071  10073      9   180.00   0.00000   2 ;    C13-   C12-   C11-   O11
 10066  10065  10068  10069      9     0.00   0.62760   3 ;    H3R-   C13-   C12-   H2R
 10066  10065  10068  10070      9     0.00   0.62760   3 ;    H3R-   C13-   C12-   H2S
 10066  10065  10068  10071      9     0.00   0.65270   3 ;    H3R-   C13-   C12-   C11
 10067  10065  10068  10069      9     0.00   0.62760   3 ;    H3S-   C13-   C12-   H2R
 10067  10065  10068  10070      9     0.00   0.62760   3 ;    H3S-   C13-   C12-   H2S
 10067  10065  10068  10071      9     0.00   0.65270   3 ;    H3S-   C13-   C12-   C11
 10068  10071  10073  10074      9   180.00  11.29680   2 ;    C12-   C11-   O11-    C1
 10069  10068  10071  10072      9     0.00   3.34720   1 ;    H2R-   C12-   C11-   O12
 10069  10068  10071  10072      9   180.00   0.33472   3 ;    H2R-   C12-   C11-   O12
 10069  10068  10071  10073      9   180.00   0.00000   2 ;    H2R-   C12-   C11-   O11
 10070  10068  10071  10072      9     0.00   3.34720   1 ;    H2S-   C12-   C11-   O12
 10070  10068  10071  10072      9   180.00   0.33472   3 ;    H2S-   C12-   C11-   O12
 10070  10068  10071  10073      9   180.00   0.00000   2 ;    H2S-   C12-   C11-   O11
 10071  10073  10074  10075      9     0.00   1.60247   3 ;    C11-   O11-    C1-    HR
 10071  10073  10074  10076      9     0.00   1.60247   3 ;    C11-   O11-    C1-    HS
 10071  10073  10074  10077      9     0.00  -0.41840   1 ;    C11-   O11-    C1-    C2
 10072  10071  10073  10074      9   180.00   5.85760   1 ;    O12-   C11-   O11-    C1
 10072  10071  10073  10074      9   180.00  11.29680   2 ;    O12-   C11-   O11-    C1
 10073  10074  10077  10078      9     0.00   0.00000   0 ;    O11-    C1-    C2-    HX
 10073  10074  10077  10078      9     0.00   1.04600   1 ;    O11-    C1-    C2-    HX
 10073  10074  10077  10079      9     0.00   0.00000   0 ;    O11-    C1-    C2-    C3
 10073  10074  10077  10079      9     0.00   0.00000   0 ;    O11-    C1-    C2-    C3
 10073  10074  10077  10079      9     0.00   0.00000   0 ;    O11-    C1-    C2-    C3
 10073  10074  10077  10079      9     0.00   0.00000   0 ;    O11-    C1-    C2-    C3
 10073  10074  10077  10079      9     0.00   0.00000   0 ;    O11-    C1-    C2-    C3
 10073  10074  10077  10106      9     0.00   1.25520   2 ;    O11-    C1-    C2-   O21
 10073  10074  10077  10106      9     0.00   4.18400   3 ;    O11-    C1-    C2-   O21
 10073  10074  10077  10106      9   180.00  -0.41840   1 ;    O11-    C1-    C2-   O21
 10074  10077  10079  10080      9     0.00   0.65270   3 ;     C1-    C2-    C3-    HA
 10074  10077  10079  10081      9     0.00   0.65270   3 ;     C1-    C2-    C3-    HB
 10074  10077  10079  10082      9   180.00   3.34720   1 ;     C1-    C2-    C3-   O31
 10074  10077  10106  10107      9     0.00  -0.41840   1 ;     C1-    C2-   O21-   C21
 10075  10074  10077  10078      9     0.00   0.65270   3 ;     HR-    C1-    C2-    HX
 10075  10074  10077  10079      9     0.00   0.65270   3 ;     HR-    C1-    C2-    C3
 10075  10074  10077  10106      9     0.00   0.00000   0 ;     HR-    C1-    C2-   O21
 10075  10074  10077  10106      9     0.00   1.04600   1 ;     HR-    C1-    C2-   O21
 10076  10074  10077  10078      9     0.00   0.65270   3 ;     HS-    C1-    C2-    HX
 10076  10074  10077  10079      9     0.00   0.65270   3 ;     HS-    C1-    C2-    C3
 10076  10074  10077  10106      9     0.00   0.00000   0 ;     HS-    C1-    C2-   O21
 10076  10074  10077  10106      9     0.00   1.04600   1 ;     HS-    C1-    C2-   O21
 10077  10079  10082  10083      9     0.00   0.00000   0 ;     C2-    C3-   O31-   P31
 10077  10079  10082  10083      9   180.00  -3.34720   2 ;     C2-    C3-   O31-   P31
 10077  10106  10107  10108      9   180.00   5.85760   1 ;     C2-   O21-   C21-   O22
 10077  10106  10107  10108      9   180.00  11.29680   2 ;     C2-   O21-   C21-   O22
 10077  10106  10107  10146      9   180.00  11.29680   2 ;     C2-   O21-   C21-   C12
 10078  10077  10079  10080      9     0.00   0.65270   3 ;     HX-    C2-    C3-    HA
 10078  10077  10079  10081      9     0.00   0.65270   3 ;     HX-    C2-    C3-    HB
 10078  10077  10079  10082      9     0.00   0.00000   0 ;     HX-    C2-    C3-   O31
 10078  10077  10079  10082      9     0.00   1.04600   1 ;     HX-    C2-    C3-   O31
 10078  10077  10106  10107      9     0.00   1.60247   3 ;     HX-    C2-   O21-   C21
 10079  10077  10106  10107      9     0.00  -0.41840   1 ;     C3-    C2-   O21-   C21
 10079  10082  10083  10084      9     0.00   2.51040   3 ;     C3-   O31-   P31-   O32
 10079  10082  10083  10084      9     0.00   9.62320   2 ;     C3-   O31-   P31-   O32
 10079  10082  10083  10104      9     0.00   0.00000   0 ;     C3-   O31-   P31-   O33
 10079  10082  10083  10104      9     0.00   0.00000   0 ;     C3-   O31-   P31-   O33
 10079  10082  10083  10104      9     0.00   0.00000   0 ;     C3-   O31-   P31-   O33
 10079  10082  10083  10104      9     0.00   0.00000   0 ;     C3-   O31-   P31-   O33
 10079  10082  10083  10104      9     0.00   0.83680   2 ;     C3-   O31-   P31-   O33
 10079  10082  10083  10105      9     0.00   0.00000   0 ;     C3-   O31-   P31-   O34
 10079  10082  10083  10105      9     0.00   0.00000   0 ;     C3-   O31-   P31-   O34
 10079  10082  10083  10105      9     0.00   0.00000   0 ;     C3-   O31-   P31-   O34
 10079  10082  10083  10105      9     0.00   0.00000   0 ;     C3-   O31-   P31-   O34
 10079  10082  10083  10105      9     0.00   0.83680   2 ;     C3-   O31-   P31-   O34
 10080  10079  10077  10106      9     0.00   0.00000   0 ;     HA-    C3-    C2-   O21
 10080  10079  10077  10106      9     0.00   1.04600   1 ;     HA-    C3-    C2-   O21
 10080  10079  10082  10083      9     0.00   0.00000   0 ;     HA-    C3-   O31-   P31
 10080  10079  10082  10083      9     0.00   0.00000   0 ;     HA-    C3-   O31-   P31
 10080  10079  10082  10083      9     0.00   0.00000   0 ;     HA-    C3-   O31-   P31
 10080  10079  10082  10083      9     0.00   0.00000   0 ;     HA-    C3-   O31-   P31
 10080  10079  10082  10083      9     0.00   1.60247   3 ;     HA-    C3-   O31-   P31
 10081  10079  10077  10106      9     0.00   0.00000   0 ;     HB-    C3-    C2-   O21
 10081  10079  10077  10106      9     0.00   1.04600   1 ;     HB-    C3-    C2-   O21
 10081  10079  10082  10083      9     0.00   0.00000   0 ;     HB-    C3-   O31-   P31
 10081  10079  10082  10083      9     0.00   0.00000   0 ;     HB-    C3-   O31-   P31
 10081  10079  10082  10083      9     0.00   0.00000   0 ;     HB-    C3-   O31-   P31
 10081  10079  10082  10083      9     0.00   0.00000   0 ;     HB-    C3-   O31-   P31
 10081  10079  10082  10083      9     0.00   1.60247   3 ;     HB-    C3-   O31-   P31
 10082  10079  10077  10106      9     0.00   0.00000   0 ;    O31-    C3-    C2-   O21
 10082  10079  10077  10106      9     0.00   0.00000   0 ;    O31-    C3-    C2-   O21
 10082  10079  10077  10106      9     0.00   0.00000   0 ;    O31-    C3-    C2-   O21
 10082  10079  10077  10106      9     0.00   0.00000   0 ;    O31-    C3-    C2-   O21
 10082  10079  10077  10106      9     0.00   0.00000   0 ;    O31-    C3-    C2-   O21
 10082  10083  10084  10085      9     0.00   2.51040   3 ;    O31-   P31-   O32-   C31
 10082  10083  10084  10085      9     0.00   9.62320   2 ;    O31-   P31-   O32-   C31
 10083  10084  10085  10086      9     0.00   0.00000   0 ;    P31-   O32-   C31-   H1A
 10083  10084  10085  10086      9     0.00   0.00000   0 ;    P31-   O32-   C31-   H1A
 10083  10084  10085  10086      9     0.00   0.00000   0 ;    P31-   O32-   C31-   H1A
 10083  10084  10085  10086      9     0.00   0.00000   0 ;    P31-   O32-   C31-   H1A
 10083  10084  10085  10086      9     0.00   1.60247   3 ;    P31-   O32-   C31-   H1A
 10083  10084  10085  10087      9     0.00   0.00000   0 ;    P31-   O32-   C31-   H1B
 10083  10084  10085  10087      9     0.00   0.00000   0 ;    P31-   O32-   C31-   H1B
 10083  10084  10085  10087      9     0.00   0.00000   0 ;    P31-   O32-   C31-   H1B
 10083  10084  10085  10087      9     0.00   0.00000   0 ;    P31-   O32-   C31-   H1B
 10083  10084  10085  10087      9     0.00   1.60247   3 ;    P31-   O32-   C31-   H1B
 10083  10084  10085  10088      9     0.00   0.00000   0 ;    P31-   O32-   C31-   C32
 10083  10084  10085  10088      9   180.00  -3.34720   2 ;    P31-   O32-   C31-   C32
 10084  10085  10088  10089      9     0.00   0.65270   3 ;    O32-   C31-   C32-   H2A
 10084  10085  10088  10090      9     0.00   0.65270   3 ;    O32-   C31-   C32-   H2B
 10084  10085  10088  10091      9     0.00   4.18400   3 ;    O32-   C31-   C32-   N31
 10085  10084  10083  10104      9     0.00   0.00000   0 ;    C31-   O32-   P31-   O33
 10085  10084  10083  10104      9     0.00   0.00000   0 ;    C31-   O32-   P31-   O33
 10085  10084  10083  10104      9     0.00   0.00000   0 ;    C31-   O32-   P31-   O33
 10085  10084  10083  10104      9     0.00   0.00000   0 ;    C31-   O32-   P31-   O33
 10085  10084  10083  10104      9     0.00   0.83680   2 ;    C31-   O32-   P31-   O33
 10085  10084  10083  10105      9     0.00   0.00000   0 ;    C31-   O32-   P31-   O34
 10085  10084  10083  10105      9     0.00   0.00000   0 ;    C31-   O32-   P31-   O34
 10085  10084  10083  10105      9     0.00   0.00000   0 ;    C31-   O32-   P31-   O34
 10085  10084  10083  10105      9     0.00   0.00000   0 ;    C31-   O32-   P31-   O34
 10085  10084  10083  10105      9     0.00   0.83680   2 ;    C31-   O32-   P31-   O34
 10085  10088  10091  10092      9     0.00   0.65270   3 ;    C31-   C32-   N31-   C33
 10085  10088  10091  10096      9     0.00   0.65270   3 ;    C31-   C32-   N31-   C34
 10085  10088  10091  10100      9     0.00   0.65270   3 ;    C31-   C32-   N31-   C35
 10086  10085  10088  10089      9     0.00   0.65270   3 ;    H1A-   C31-   C32-   H2A
 10086  10085  10088  10090      9     0.00   0.65270   3 ;    H1A-   C31-   C32-   H2B
 10086  10085  10088  10091      9     0.00   0.65270   3 ;    H1A-   C31-   C32-   N31
 10087  10085  10088  10089      9     0.00   0.65270   3 ;    H1B-   C31-   C32-   H2A
 10087  10085  10088  10090      9     0.00   0.65270   3 ;    H1B-   C31-   C32-   H2B
 10087  10085  10088  10091      9     0.00   0.65270   3 ;    H1B-   C31-   C32-   N31
 10088  10091  10092  10093      9     0.00   0.65270   3 ;    C32-   N31-   C33-   H3A
 10088  10091  10092  10094      9     0.00   0.65270   3 ;    C32-   N31-   C33-   H3B
 10088  10091  10092  10095      9     0.00   0.65270   3 ;    C32-   N31-   C33-   H3C
 10088  10091  10096  10097      9     0.00   0.65270   3 ;    C32-   N31-   C34-   H4A
 10088  10091  10096  10098      9     0.00   0.65270   3 ;    C32-   N31-   C34-   H4B
 10088  10091  10096  10099      9     0.00   0.65270   3 ;    C32-   N31-   C34-   H4C
 10088  10091  10100  10101      9     0.00   0.65270   3 ;    C32-   N31-   C35-   H5A
 10088  10091  10100  10102      9     0.00   0.65270   3 ;    C32-   N31-   C35-   H5B
 10088  10091  10100  10103      9     0.00   0.65270   3 ;    C32-   N31-   C35-   H5C
 10089  10088  10091  10092      9     0.00   0.65270   3 ;    H2A-   C32-   N31-   C33
 10089  10088  10091  10096      9     0.00   0.65270   3 ;    H2A-   C32-   N31-   C34
 10089  10088  10091  10100      9     0.00   0.65270   3 ;    H2A-   C32-   N31-   C35
 10090  10088  10091  10092      9     0.00   0.65270   3 ;    H2B-   C32-   N31-   C33
 10090  10088  10091  10096      9     0.00   0.65270   3 ;    H2B-   C32-   N31-   C34
 10090  10088  10091  10100      9     0.00   0.65270   3 ;    H2B-   C32-   N31-   C35
 10092  10091  10096  10097      9     0.00   0.65270   3 ;    C33-   N31-   C34-   H4A
 10092  10091  10096  10098      9     0.00   0.65270   3 ;    C33-   N31-   C34-   H4B
 10092  10091  10096  10099      9     0.00   0.65270   3 ;    C33-   N31-   C34-   H4C
 10092  10091  10100  10101      9     0.00   0.65270   3 ;    C33-   N31-   C35-   H5A
 10092  10091  10100  10102      9     0.00   0.65270   3 ;    C33-   N31-   C35-   H5B
 10092  10091  10100  10103      9     0.00   0.65270   3 ;    C33-   N31-   C35-   H5C
 10093  10092  10091  10096      9     0.00   0.65270   3 ;    H3A-   C33-   N31-   C34
 10093  10092  10091  10100      9     0.00   0.65270   3 ;    H3A-   C33-   N31-   C35
 10094  10092  10091  10096      9     0.00   0.65270   3 ;    H3B-   C33-   N31-   C34
 10094  10092  10091  10100      9     0.00   0.65270   3 ;    H3B-   C33-   N31-   C35
 10095  10092  10091  10096      9     0.00   0.65270   3 ;    H3C-   C33-   N31-   C34
 10095  10092  10091  10100      9     0.00   0.65270   3 ;    H3C-   C33-   N31-   C35
 10096  10091  10100  10101      9     0.00   0.65270   3 ;    C34-   N31-   C35-   H5A
 10096  10091  10100  10102      9     0.00   0.65270   3 ;    C34-   N31-   C35-   H5B
 10096  10091  10100  10103      9     0.00   0.65270   3 ;    C34-   N31-   C35-   H5C
 10097  10096  10091  10100      9     0.00   0.65270   3 ;    H4A-   C34-   N31-   C35
 10098  10096  10091  10100      9     0.00   0.65270   3 ;    H4B-   C34-   N31-   C35
 10099  10096  10091  10100      9     0.00   0.65270   3 ;    H4C-   C34-   N31-   C35
 10106  10107  10146  10143      9   180.00   0.00000   2 ;    O21-   C21-   C12-   C13
 10106  10107  10146  10147      9   180.00   0.00000   2 ;    O21-   C21-   C12-   H2R
 10106  10107  10146  10148      9   180.00   0.00000   2 ;    O21-   C21-   C12-   H2S
 10107  10146  10143  10140      9     0.00   0.65270   3 ;    C21-   C12-   C13-   C14
 10107  10146  10143  10144      9     0.00   0.65270   3 ;    C21-   C12-   C13-   H3R
 10107  10146  10143  10145      9     0.00   0.65270   3 ;    C21-   C12-   C13-   H3S
 10108  10107  10146  10143      9   180.00   0.00000   2 ;    O22-   C21-   C12-   C13
 10108  10107  10146  10147      9     0.00   3.34720   1 ;    O22-   C21-   C12-   H2R
 10108  10107  10146  10147      9   180.00   0.33472   3 ;    O22-   C21-   C12-   H2R
 10108  10107  10146  10148      9     0.00   3.34720   1 ;    O22-   C21-   C12-   H2S
 10108  10107  10146  10148      9   180.00   0.33472   3 ;    O22-   C21-   C12-   H2S
 10109  10110  10113  10114      9     0.00   0.62760   3 ;   H14T-  C114-  C113-  H13R
 10109  10110  10113  10115      9     0.00   0.62760   3 ;   H14T-  C114-  C113-  H13S
 10109  10110  10113  10116      9     0.00   0.66944   3 ;   H14T-  C114-  C113-  C112
 10110  10113  10116  10117      9     0.00   0.66944   3 ;   C114-  C113-  C112-  H12R
 10110  10113  10116  10118      9     0.00   0.66944   3 ;   C114-  C113-  C112-  H12S
 10110  10113  10116  10119      9     0.00   0.41840   1 ;   C114-  C113-  C112-  C111
 10110  10113  10116  10119      9     0.00   0.41840   2 ;   C114-  C113-  C112-  C111
 10110  10113  10116  10119      9     0.00   0.41840   4 ;   C114-  C113-  C112-  C111
 10110  10113  10116  10119      9     0.00   0.41840   5 ;   C114-  C113-  C112-  C111
 10110  10113  10116  10119      9     0.00   1.25520   3 ;   C114-  C113-  C112-  C111
 10111  10110  10113  10114      9     0.00   0.62760   3 ;   H14R-  C114-  C113-  H13R
 10111  10110  10113  10115      9     0.00   0.62760   3 ;   H14R-  C114-  C113-  H13S
 10111  10110  10113  10116      9     0.00   0.66944   3 ;   H14R-  C114-  C113-  C112
 10112  10110  10113  10114      9     0.00   0.62760   3 ;   H14S-  C114-  C113-  H13R
 10112  10110  10113  10115      9     0.00   0.62760   3 ;   H14S-  C114-  C113-  H13S
 10112  10110  10113  10116      9     0.00   0.66944   3 ;   H14S-  C114-  C113-  C112
 10113  10116  10119  10120      9     0.00   0.66944   3 ;   C113-  C112-  C111-  H11R
 10113  10116  10119  10121      9     0.00   0.66944   3 ;   C113-  C112-  C111-  H11S
 10113  10116  10119  10122      9     0.00   0.41840   1 ;   C113-  C112-  C111-  C110
 10113  10116  10119  10122      9     0.00   0.41840   2 ;   C113-  C112-  C111-  C110
 10113  10116  10119  10122      9     0.00   0.41840   4 ;   C113-  C112-  C111-  C110
 10113  10116  10119  10122      9     0.00   0.41840   5 ;   C113-  C112-  C111-  C110
 10113  10116  10119  10122      9     0.00   1.25520   3 ;   C113-  C112-  C111-  C110
 10114  10113  10116  10117      9     0.00   0.62760   3 ;   H13R-  C113-  C112-  H12R
 10114  10113  10116  10118      9     0.00   0.62760   3 ;   H13R-  C113-  C112-  H12S
 10114  10113  10116  10119      9     0.00   0.66944   3 ;   H13R-  C113-  C112-  C111
 10115  10113  10116  10117      9     0.00   0.62760   3 ;   H13S-  C113-  C112-  H12R
 10115  10113  10116  10118      9     0.00   0.62760   3 ;   H13S-  C113-  C112-  H12S
 10115  10113  10116  10119      9     0.00   0.66944   3 ;   H13S-  C113-  C112-  C111
 10116  10119  10122  10123      9     0.00   0.66944   3 ;   C112-  C111-  C110-  H10R
 10116  10119  10122  10124      9     0.00   0.66944   3 ;   C112-  C111-  C110-  H10S
 10116  10119  10122  10125      9     0.00   0.41840   1 ;   C112-  C111-  C110-   C19
 10116  10119  10122  10125      9     0.00   0.41840   2 ;   C112-  C111-  C110-   C19
 10116  10119  10122  10125      9     0.00   0.41840   4 ;   C112-  C111-  C110-   C19
 10116  10119  10122  10125      9     0.00   0.41840   5 ;   C112-  C111-  C110-   C19
 10116  10119  10122  10125      9     0.00   1.25520   3 ;   C112-  C111-  C110-   C19
 10117  10116  10119  10120      9     0.00   0.62760   3 ;   H12R-  C112-  C111-  H11R
 10117  10116  10119  10121      9     0.00   0.62760   3 ;   H12R-  C112-  C111-  H11S
 10117  10116  10119  10122      9     0.00   0.66944   3 ;   H12R-  C112-  C111-  C110
 10118  10116  10119  10120      9     0.00   0.62760   3 ;   H12S-  C112-  C111-  H11R
 10118  10116  10119  10121      9     0.00   0.62760   3 ;   H12S-  C112-  C111-  H11S
 10118  10116  10119  10122      9     0.00   0.66944   3 ;   H12S-  C112-  C111-  C110
 10119  10122  10125  10126      9     0.00   0.66944   3 ;   C111-  C110-   C19-   H9R
 10119  10122  10125  10127      9     0.00   0.66944   3 ;   C111-  C110-   C19-   H9S
 10119  10122  10125  10128      9     0.00   0.41840   1 ;   C111-  C110-   C19-   C18
 10119  10122  10125  10128      9     0.00   0.41840   2 ;   C111-  C110-   C19-   C18
 10119  10122  10125  10128      9     0.00   0.41840   4 ;   C111-  C110-   C19-   C18
 10119  10122  10125  10128      9     0.00   0.41840   5 ;   C111-  C110-   C19-   C18
 10119  10122  10125  10128      9     0.00   1.25520   3 ;   C111-  C110-   C19-   C18
 10120  10119  10122  10123      9     0.00   0.62760   3 ;   H11R-  C111-  C110-  H10R
 10120  10119  10122  10124      9     0.00   0.62760   3 ;   H11R-  C111-  C110-  H10S
 10120  10119  10122  10125      9     0.00   0.66944   3 ;   H11R-  C111-  C110-   C19
 10121  10119  10122  10123      9     0.00   0.62760   3 ;   H11S-  C111-  C110-  H10R
 10121  10119  10122  10124      9     0.00   0.62760   3 ;   H11S-  C111-  C110-  H10S
 10121  10119  10122  10125      9     0.00   0.66944   3 ;   H11S-  C111-  C110-   C19
 10122  10125  10128  10129      9     0.00   0.66944   3 ;   C110-   C19-   C18-   H8R
 10122  10125  10128  10130      9     0.00   0.66944   3 ;   C110-   C19-   C18-   H8S
 10122  10125  10128  10131      9     0.00   0.41840   1 ;   C110-   C19-   C18-   C17
 10122  10125  10128  10131      9     0.00   0.41840   2 ;   C110-   C19-   C18-   C17
 10122  10125  10128  10131      9     0.00   0.41840   4 ;   C110-   C19-   C18-   C17
 10122  10125  10128  10131      9     0.00   0.41840   5 ;   C110-   C19-   C18-   C17
 10122  10125  10128  10131      9     0.00   1.25520   3 ;   C110-   C19-   C18-   C17
 10123  10122  10125  10126      9     0.00   0.62760   3 ;   H10R-  C110-   C19-   H9R
 10123  10122  10125  10127      9     0.00   0.62760   3 ;   H10R-  C110-   C19-   H9S
 10123  10122  10125  10128      9     0.00   0.66944   3 ;   H10R-  C110-   C19-   C18
 10124  10122  10125  10126      9     0.00   0.62760   3 ;   H10S-  C110-   C19-   H9R
 10124  10122  10125  10127      9     0.00   0.62760   3 ;   H10S-  C110-   C19-   H9S
 10124  10122  10125  10128      9     0.00   0.66944   3 ;   H10S-  C110-   C19-   C18
 10125  10128  10131  10132      9     0.00   0.66944   3 ;    C19-   C18-   C17-   H7R
 10125  10128  10131  10133      9     0.00   0.66944   3 ;    C19-   C18-   C17-   H7S
 10125  10128  10131  10134      9     0.00   0.41840   1 ;    C19-   C18-   C17-   C16
 10125  10128  10131  10134      9     0.00   0.41840   2 ;    C19-   C18-   C17-   C16
 10125  10128  10131  10134      9     0.00   0.41840   4 ;    C19-   C18-   C17-   C16
 10125  10128  10131  10134      9     0.00   0.41840   5 ;    C19-   C18-   C17-   C16
 10125  10128  10131  10134      9     0.00   1.25520   3 ;    C19-   C18-   C17-   C16
 10126  10125  10128  10129      9     0.00   0.62760   3 ;    H9R-   C19-   C18-   H8R
 10126  10125  10128  10130      9     0.00   0.62760   3 ;    H9R-   C19-   C18-   H8S
 10126  10125  10128  10131      9     0.00   0.66944   3 ;    H9R-   C19-   C18-   C17
 10127  10125  10128  10129      9     0.00   0.62760   3 ;    H9S-   C19-   C18-   H8R
 10127  10125  10128  10130      9     0.00   0.62760   3 ;    H9S-   C19-   C18-   H8S
 10127  10125  10128  10131      9     0.00   0.66944   3 ;    H9S-   C19-   C18-   C17
 10128  10131  10134  10135      9     0.00   0.66944   3 ;    C18-   C17-   C16-   H6R
 10128  10131  10134  10136      9     0.00   0.66944   3 ;    C18-   C17-   C16-   H6S
 10128  10131  10134  10137      9     0.00   0.41840   1 ;    C18-   C17-   C16-   C15
 10128  10131  10134  10137      9     0.00   0.41840   2 ;    C18-   C17-   C16-   C15
 10128  10131  10134  10137      9     0.00   0.41840   4 ;    C18-   C17-   C16-   C15
 10128  10131  10134  10137      9     0.00   0.41840   5 ;    C18-   C17-   C16-   C15
 10128  10131  10134  10137      9     0.00   1.25520   3 ;    C18-   C17-   C16-   C15
 10129  10128  10131  10132      9     0.00   0.62760   3 ;    H8R-   C18-   C17-   H7R
 10129  10128  10131  10133      9     0.00   0.62760   3 ;    H8R-   C18-   C17-   H7S
 10129  10128  10131  10134      9     0.00   0.66944   3 ;    H8R-   C18-   C17-   C16
 10130  10128  10131  10132      9     0.00   0.62760   3 ;    H8S-   C18-   C17-   H7R
 10130  10128  10131  10133      9     0.00   0.62760   3 ;    H8S-   C18-   C17-   H7S
 10130  10128  10131  10134      9     0.00   0.66944   3 ;    H8S-   C18-   C17-   C16
 10131  10134  10137  10138      9     0.00   0.66944   3 ;    C17-   C16-   C15-   H5R
 10131  10134  10137  10139      9     0.00   0.66944   3 ;    C17-   C16-   C15-   H5S
 10131  10134  10137  10140      9     0.00   0.41840   1 ;    C17-   C16-   C15-   C14
 10131  10134  10137  10140      9     0.00   0.41840   2 ;    C17-   C16-   C15-   C14
 10131  10134  10137  10140      9     0.00   0.41840   4 ;    C17-   C16-   C15-   C14
 10131  10134  10137  10140      9     0.00   0.41840   5 ;    C17-   C16-   C15-   C14
 10131  10134  10137  10140      9     0.00   1.25520   3 ;    C17-   C16-   C15-   C14
 10132  10131  10134  10135      9     0.00   0.62760   3 ;    H7R-   C17-   C16-   H6R
 10132  10131  10134  10136      9     0.00   0.62760   3 ;    H7R-   C17-   C16-   H6S
 10132  10131  10134  10137      9     0.00   0.66944   3 ;    H7R-   C17-   C16-   C15
 10133  10131  10134  10135      9     0.00   0.62760   3 ;    H7S-   C17-   C16-   H6R
 10133  10131  10134  10136      9     0.00   0.62760   3 ;    H7S-   C17-   C16-   H6S
 10133  10131  10134  10137      9     0.00   0.66944   3 ;    H7S-   C17-   C16-   C15
 10134  10137  10140  10141      9     0.00   0.66944   3 ;    C16-   C15-   C14-   H4R
 10134  10137  10140  10142      9     0.00   0.66944   3 ;    C16-   C15-   C14-   H4S
 10134  10137  10140  10143      9     0.00   0.41840   1 ;    C16-   C15-   C14-   C13
 10134  10137  10140  10143      9     0.00   0.41840   2 ;    C16-   C15-   C14-   C13
 10134  10137  10140  10143      9     0.00   0.41840   4 ;    C16-   C15-   C14-   C13
 10134  10137  10140  10143      9     0.00   0.41840   5 ;    C16-   C15-   C14-   C13
 10134  10137  10140  10143      9     0.00   1.25520   3 ;    C16-   C15-   C14-   C13
 10135  10134  10137  10138      9     0.00   0.62760   3 ;    H6R-   C16-   C15-   H5R
 10135  10134  10137  10139      9     0.00   0.62760   3 ;    H6R-   C16-   C15-   H5S
 10135  10134  10137  10140      9     0.00   0.66944   3 ;    H6R-   C16-   C15-   C14
 10136  10134  10137  10138      9     0.00   0.62760   3 ;    H6S-   C16-   C15-   H5R
 10136  10134  10137  10139      9     0.00   0.62760   3 ;    H6S-   C16-   C15-   H5S
 10136  10134  10137  10140      9     0.00   0.66944   3 ;    H6S-   C16-   C15-   C14
 10137  10140  10143  10144      9     0.00   0.66944   3 ;    C15-   C14-   C13-   H3R
 10137  10140  10143  10145      9     0.00   0.66944   3 ;    C15-   C14-   C13-   H3S
 10137  10140  10143  10146      9     0.00   0.41840   1 ;    C15-   C14-   C13-   C12
 10137  10140  10143  10146      9     0.00   0.41840   2 ;    C15-   C14-   C13-   C12
 10137  10140  10143  10146      9     0.00   0.41840   4 ;    C15-   C14-   C13-   C12
 10137  10140  10143  10146      9     0.00   0.41840   5 ;    C15-   C14-   C13-   C12
 10137  10140  10143  10146      9     0.00   1.25520   3 ;    C15-   C14-   C13-   C12
 10138  10137  10140  10141      9     0.00   0.62760   3 ;    H5R-   C15-   C14-   H4R
 10138  10137  10140  10142      9     0.00   0.62760   3 ;    H5R-   C15-   C14-   H4S
 10138  10137  10140  10143      9     0.00   0.66944   3 ;    H5R-   C15-   C14-   C13
 10139  10137  10140  10141      9     0.00   0.62760   3 ;    H5S-   C15-   C14-   H4R
 10139  10137  10140  10142      9     0.00   0.62760   3 ;    H5S-   C15-   C14-   H4S
 10139  10137  10140  10143      9     0.00   0.66944   3 ;    H5S-   C15-   C14-   C13
 10140  10143  10146  10147      9     0.00   0.66944   3 ;    C14-   C13-   C12-   H2R
 10140  10143  10146  10148      9     0.00   0.66944   3 ;    C14-   C13-   C12-   H2S
 10141  10140  10143  10144      9     0.00   0.62760   3 ;    H4R-   C14-   C13-   H3R
 10141  10140  10143  10145      9     0.00   0.62760   3 ;    H4R-   C14-   C13-   H3S
 10141  10140  10143  10146      9     0.00   0.66944   3 ;    H4R-   C14-   C13-   C12
 10142  10140  10143  10144      9     0.00   0.62760   3 ;    H4S-   C14-   C13-   H3R
 10142  10140  10143  10145      9     0.00   0.62760   3 ;    H4S-   C14-   C13-   H3S
 10142  10140  10143  10146      9     0.00   0.66944   3 ;    H4S-   C14-   C13-   C12
 10144  10143  10146  10147      9     0.00   0.62760   3 ;    H3R-   C13-   C12-   H2R
 10144  10143  10146  10148      9     0.00   0.62760   3 ;    H3R-   C13-   C12-   H2S
 10145  10143  10146  10147      9     0.00   0.62760   3 ;    H3S-   C13-   C12-   H2R
 10145  10143  10146  10148      9     0.00   0.62760   3 ;    H3S-   C13-   C12-   H2S
 10149  10150  10153  10154      9     0.00   0.62760   3 ;   H14T-  C114-  C113-  H13R
 10149  10150  10153  10155      9     0.00   0.62760   3 ;   H14T-  C114-  C113-  H13S
 10149  10150  10153  10156      9     0.00   0.66944   3 ;   H14T-  C114-  C113-  C112
 10150  10153  10156  10157      9     0.00   0.66944   3 ;   C114-  C113-  C112-  H12R
 10150  10153  10156  10158      9     0.00   0.66944   3 ;   C114-  C113-  C112-  H12S
 10150  10153  10156  10159      9     0.00   0.41840   1 ;   C114-  C113-  C112-  C111
 10150  10153  10156  10159      9     0.00   0.41840   2 ;   C114-  C113-  C112-  C111
 10150  10153  10156  10159      9     0.00   0.41840   4 ;   C114-  C113-  C112-  C111
 10150  10153  10156  10159      9     0.00   0.41840   5 ;   C114-  C113-  C112-  C111
 10150  10153  10156  10159      9     0.00   1.25520   3 ;   C114-  C113-  C112-  C111
 10151  10150  10153  10154      9     0.00   0.62760   3 ;   H14R-  C114-  C113-  H13R
 10151  10150  10153  10155      9     0.00   0.62760   3 ;   H14R-  C114-  C113-  H13S
 10151  10150  10153  10156      9     0.00   0.66944   3 ;   H14R-  C114-  C113-  C112
 10152  10150  10153  10154      9     0.00   0.62760   3 ;   H14S-  C114-  C113-  H13R
 10152  10150  10153  10155      9     0.00   0.62760   3 ;   H14S-  C114-  C113-  H13S
 10152  10150  10153  10156      9     0.00   0.66944   3 ;   H14S-  C114-  C113-  C112
 10153  10156  10159  10160      9     0.00   0.66944   3 ;   C113-  C112-  C111-  H11R
 10153  10156  10159  10161      9     0.00   0.66944   3 ;   C113-  C112-  C111-  H11S
 10153  10156  10159  10162      9     0.00   0.41840   1 ;   C113-  C112-  C111-  C110
 10153  10156  10159  10162      9     0.00   0.41840   2 ;   C113-  C112-  C111-  C110
 10153  10156  10159  10162      9     0.00   0.41840   4 ;   C113-  C112-  C111-  C110
 10153  10156  10159  10162      9     0.00   0.41840   5 ;   C113-  C112-  C111-  C110
 10153  10156  10159  10162      9     0.00   1.25520   3 ;   C113-  C112-  C111-  C110
 10154  10153  10156  10157      9     0.00   0.62760   3 ;   H13R-  C113-  C112-  H12R
 10154  10153  10156  10158      9     0.00   0.62760   3 ;   H13R-  C113-  C112-  H12S
 10154  10153  10156  10159      9     0.00   0.66944   3 ;   H13R-  C113-  C112-  C111
 10155  10153  10156  10157      9     0.00   0.62760   3 ;   H13S-  C113-  C112-  H12R
 10155  10153  10156  10158      9     0.00   0.62760   3 ;   H13S-  C113-  C112-  H12S
 10155  10153  10156  10159      9     0.00   0.66944   3 ;   H13S-  C113-  C112-  C111
 10156  10159  10162  10163      9     0.00   0.66944   3 ;   C112-  C111-  C110-  H10R
 10156  10159  10162  10164      9     0.00   0.66944   3 ;   C112-  C111-  C110-  H10S
 10156  10159  10162  10165      9     0.00   0.41840   1 ;   C112-  C111-  C110-   C19
 10156  10159  10162  10165      9     0.00   0.41840   2 ;   C112-  C111-  C110-   C19
 10156  10159  10162  10165      9     0.00   0.41840   4 ;   C112-  C111-  C110-   C19
 10156  10159  10162  10165      9     0.00   0.41840   5 ;   C112-  C111-  C110-   C19
 10156  10159  10162  10165      9     0.00   1.25520   3 ;   C112-  C111-  C110-   C19
 10157  10156  10159  10160      9     0.00   0.62760   3 ;   H12R-  C112-  C111-  H11R
 10157  10156  10159  10161      9     0.00   0.62760   3 ;   H12R-  C112-  C111-  H11S
 10157  10156  10159  10162      9     0.00   0.66944   3 ;   H12R-  C112-  C111-  C110
 10158  10156  10159  10160      9     0.00   0.62760   3 ;   H12S-  C112-  C111-  H11R
 10158  10156  10159  10161      9     0.00   0.62760   3 ;   H12S-  C112-  C111-  H11S
 10158  10156  10159  10162      9     0.00   0.66944   3 ;   H12S-  C112-  C111-  C110
 10159  10162  10165  10166      9     0.00   0.66944   3 ;   C111-  C110-   C19-   H9R
 10159  10162  10165  10167      9     0.00   0.66944   3 ;   C111-  C110-   C19-   H9S
 10159  10162  10165  10168      9     0.00   0.41840   1 ;   C111-  C110-   C19-   C18
 10159  10162  10165  10168      9     0.00   0.41840   2 ;   C111-  C110-   C19-   C18
 10159  10162  10165  10168      9     0.00   0.41840   4 ;   C111-  C110-   C19-   C18
 10159  10162  10165  10168      9     0.00   0.41840   5 ;   C111-  C110-   C19-   C18
 10159  10162  10165  10168      9     0.00   1.25520   3 ;   C111-  C110-   C19-   C18
 10160  10159  10162  10163      9     0.00   0.62760   3 ;   H11R-  C111-  C110-  H10R
 10160  10159  10162  10164      9     0.00   0.62760   3 ;   H11R-  C111-  C110-  H10S
 10160  10159  10162  10165      9     0.00   0.66944   3 ;   H11R-  C111-  C110-   C19
 10161  10159  10162  10163      9     0.00   0.62760   3 ;   H11S-  C111-  C110-  H10R
 10161  10159  10162  10164      9     0.00   0.62760   3 ;   H11S-  C111-  C110-  H10S
 10161  10159  10162  10165      9     0.00   0.66944   3 ;   H11S-  C111-  C110-   C19
 10162  10165  10168  10169      9     0.00   0.66944   3 ;   C110-   C19-   C18-   H8R
 10162  10165  10168  10170      9     0.00   0.66944   3 ;   C110-   C19-   C18-   H8S
 10162  10165  10168  10171      9     0.00   0.41840   1 ;   C110-   C19-   C18-   C17
 10162  10165  10168  10171      9     0.00   0.41840   2 ;   C110-   C19-   C18-   C17
 10162  10165  10168  10171      9     0.00   0.41840   4 ;   C110-   C19-   C18-   C17
 10162  10165  10168  10171      9     0.00   0.41840   5 ;   C110-   C19-   C18-   C17
 10162  10165  10168  10171      9     0.00   1.25520   3 ;   C110-   C19-   C18-   C17
 10163  10162  10165  10166      9     0.00   0.62760   3 ;   H10R-  C110-   C19-   H9R
 10163  10162  10165  10167      9     0.00   0.62760   3 ;   H10R-  C110-   C19-   H9S
 10163  10162  10165  10168      9     0.00   0.66944   3 ;   H10R-  C110-   C19-   C18
 10164  10162  10165  10166      9     0.00   0.62760   3 ;   H10S-  C110-   C19-   H9R
 10164  10162  10165  10167      9     0.00   0.62760   3 ;   H10S-  C110-   C19-   H9S
 10164  10162  10165  10168      9     0.00   0.66944   3 ;   H10S-  C110-   C19-   C18
 10165  10168  10171  10172      9     0.00   0.66944   3 ;    C19-   C18-   C17-   H7R
 10165  10168  10171  10173      9     0.00   0.66944   3 ;    C19-   C18-   C17-   H7S
 10165  10168  10171  10174      9     0.00   0.41840   1 ;    C19-   C18-   C17-   C16
 10165  10168  10171  10174      9     0.00   0.41840   2 ;    C19-   C18-   C17-   C16
 10165  10168  10171  10174      9     0.00   0.41840   4 ;    C19-   C18-   C17-   C16
 10165  10168  10171  10174      9     0.00   0.41840   5 ;    C19-   C18-   C17-   C16
 10165  10168  10171  10174      9     0.00   1.25520   3 ;    C19-   C18-   C17-   C16
 10166  10165  10168  10169      9     0.00   0.62760   3 ;    H9R-   C19-   C18-   H8R
 10166  10165  10168  10170      9     0.00   0.62760   3 ;    H9R-   C19-   C18-   H8S
 10166  10165  10168  10171      9     0.00   0.66944   3 ;    H9R-   C19-   C18-   C17
 10167  10165  10168  10169      9     0.00   0.62760   3 ;    H9S-   C19-   C18-   H8R
 10167  10165  10168  10170      9     0.00   0.62760   3 ;    H9S-   C19-   C18-   H8S
 10167  10165  10168  10171      9     0.00   0.66944   3 ;    H9S-   C19-   C18-   C17
 10168  10171  10174  10175      9     0.00   0.66944   3 ;    C18-   C17-   C16-   H6R
 10168  10171  10174  10176      9     0.00   0.66944   3 ;    C18-   C17-   C16-   H6S
 10168  10171  10174  10177      9     0.00   0.41840   1 ;    C18-   C17-   C16-   C15
 10168  10171  10174  10177      9     0.00   0.41840   2 ;    C18-   C17-   C16-   C15
 10168  10171  10174  10177      9     0.00   0.41840   4 ;    C18-   C17-   C16-   C15
 10168  10171  10174  10177      9     0.00   0.41840   5 ;    C18-   C17-   C16-   C15
 10168  10171  10174  10177      9     0.00   1.25520   3 ;    C18-   C17-   C16-   C15
 10169  10168  10171  10172      9     0.00   0.62760   3 ;    H8R-   C18-   C17-   H7R
 10169  10168  10171  10173      9     0.00   0.62760   3 ;    H8R-   C18-   C17-   H7S
 10169  10168  10171  10174      9     0.00   0.66944   3 ;    H8R-   C18-   C17-   C16
 10170  10168  10171  10172      9     0.00   0.62760   3 ;    H8S-   C18-   C17-   H7R
 10170  10168  10171  10173      9     0.00   0.62760   3 ;    H8S-   C18-   C17-   H7S
 10170  10168  10171  10174      9     0.00   0.66944   3 ;    H8S-   C18-   C17-   C16
 10171  10174  10177  10178      9     0.00   0.66944   3 ;    C17-   C16-   C15-   H5R
 10171  10174  10177  10179      9     0.00   0.66944   3 ;    C17-   C16-   C15-   H5S
 10171  10174  10177  10180      9     0.00   0.41840   1 ;    C17-   C16-   C15-   C14
 10171  10174  10177  10180      9     0.00   0.41840   2 ;    C17-   C16-   C15-   C14
 10171  10174  10177  10180      9     0.00   0.41840   4 ;    C17-   C16-   C15-   C14
 10171  10174  10177  10180      9     0.00   0.41840   5 ;    C17-   C16-   C15-   C14
 10171  10174  10177  10180      9     0.00   1.25520   3 ;    C17-   C16-   C15-   C14
 10172  10171  10174  10175      9     0.00   0.62760   3 ;    H7R-   C17-   C16-   H6R
 10172  10171  10174  10176      9     0.00   0.62760   3 ;    H7R-   C17-   C16-   H6S
 10172  10171  10174  10177      9     0.00   0.66944   3 ;    H7R-   C17-   C16-   C15
 10173  10171  10174  10175      9     0.00   0.62760   3 ;    H7S-   C17-   C16-   H6R
 10173  10171  10174  10176      9     0.00   0.62760   3 ;    H7S-   C17-   C16-   H6S
 10173  10171  10174  10177      9     0.00   0.66944   3 ;    H7S-   C17-   C16-   C15
 10174  10177  10180  10181      9     0.00   0.66944   3 ;    C16-   C15-   C14-   H4R
 10174  10177  10180  10182      9     0.00   0.66944   3 ;    C16-   C15-   C14-   H4S
 10174  10177  10180  10183      9     0.00   0.41840   1 ;    C16-   C15-   C14-   C13
 10174  10177  10180  10183      9     0.00   0.41840   2 ;    C16-   C15-   C14-   C13
 10174  10177  10180  10183      9     0.00   0.41840   4 ;    C16-   C15-   C14-   C13
 10174  10177  10180  10183      9     0.00   0.41840   5 ;    C16-   C15-   C14-   C13
 10174  10177  10180  10183      9     0.00   1.25520   3 ;    C16-   C15-   C14-   C13
 10175  10174  10177  10178      9     0.00   0.62760   3 ;    H6R-   C16-   C15-   H5R
 10175  10174  10177  10179      9     0.00   0.62760   3 ;    H6R-   C16-   C15-   H5S
 10175  10174  10177  10180      9     0.00   0.66944   3 ;    H6R-   C16-   C15-   C14
 10176  10174  10177  10178      9     0.00   0.62760   3 ;    H6S-   C16-   C15-   H5R
 10176  10174  10177  10179      9     0.00   0.62760   3 ;    H6S-   C16-   C15-   H5S
 10176  10174  10177  10180      9     0.00   0.66944   3 ;    H6S-   C16-   C15-   C14
 10177  10180  10183  10184      9     0.00   0.66944   3 ;    C15-   C14-   C13-   H3R
 10177  10180  10183  10185      9     0.00   0.66944   3 ;    C15-   C14-   C13-   H3S
 10177  10180  10183  10186      9     0.00   0.41840   1 ;    C15-   C14-   C13-   C12
 10177  10180  10183  10186      9     0.00   0.41840   2 ;    C15-   C14-   C13-   C12
 10177  10180  10183  10186      9     0.00   0.41840   4 ;    C15-   C14-   C13-   C12
 10177  10180  10183  10186      9     0.00   0.41840   5 ;    C15-   C14-   C13-   C12
 10177  10180  10183  10186      9     0.00   1.25520   3 ;    C15-   C14-   C13-   C12
 10178  10177  10180  10181      9     0.00   0.62760   3 ;    H5R-   C15-   C14-   H4R
 10178  10177  10180  10182      9     0.00   0.62760   3 ;    H5R-   C15-   C14-   H4S
 10178  10177  10180  10183      9     0.00   0.66944   3 ;    H5R-   C15-   C14-   C13
 10179  10177  10180  10181      9     0.00   0.62760   3 ;    H5S-   C15-   C14-   H4R
 10179  10177  10180  10182      9     0.00   0.62760   3 ;    H5S-   C15-   C14-   H4S
 10179  10177  10180  10183      9     0.00   0.66944   3 ;    H5S-   C15-   C14-   C13
 10180  10183  10186  10187      9     0.00   0.66944   3 ;    C14-   C13-   C12-   H2R
 10180  10183  10186  10188      9     0.00   0.66944   3 ;    C14-   C13-   C12-   H2S
 10180  10183  10186  10189      9     0.00   0.65270   3 ;    C14-   C13-   C12-   C11
 10181  10180  10183  10184      9     0.00   0.62760   3 ;    H4R-   C14-   C13-   H3R
 10181  10180  10183  10185      9     0.00   0.62760   3 ;    H4R-   C14-   C13-   H3S
 10181  10180  10183  10186      9     0.00   0.66944   3 ;    H4R-   C14-   C13-   C12
 10182  10180  10183  10184      9     0.00   0.62760   3 ;    H4S-   C14-   C13-   H3R
 10182  10180  10183  10185      9     0.00   0.62760   3 ;    H4S-   C14-   C13-   H3S
 10182  10180  10183  10186      9     0.00   0.66944   3 ;    H4S-   C14-   C13-   C12
 10183  10186  10189  10190      9   180.00   0.00000   2 ;    C13-   C12-   C11-   O12
 10183  10186  10189  10191      9   180.00   0.00000   2 ;    C13-   C12-   C11-   O11
 10184  10183  10186  10187      9     0.00   0.62760   3 ;    H3R-   C13-   C12-   H2R
 10184  10183  10186  10188      9     0.00   0.62760   3 ;    H3R-   C13-   C12-   H2S
 10184  10183  10186  10189      9     0.00   0.65270   3 ;    H3R-   C13-   C12-   C11
 10185  10183  10186  10187      9     0.00   0.62760   3 ;    H3S-   C13-   C12-   H2R
 10185  10183  10186  10188      9     0.00   0.62760   3 ;    H3S-   C13-   C12-   H2S
 10185  10183  10186  10189      9     0.00   0.65270   3 ;    H3S-   C13-   C12-   C11
 10186  10189  10191  10192      9   180.00  11.29680   2 ;    C12-   C11-   O11-    C1
 10187  10186  10189  10190      9     0.00   3.34720   1 ;    H2R-   C12-   C11-   O12
 10187  10186  10189  10190      9   180.00   0.33472   3 ;    H2R-   C12-   C11-   O12
 10187  10186  10189  10191      9   180.00   0.00000   2 ;    H2R-   C12-   C11-   O11
 10188  10186  10189  10190      9     0.00   3.34720   1 ;    H2S-   C12-   C11-   O12
 10188  10186  10189  10190      9   180.00   0.33472   3 ;    H2S-   C12-   C11-   O12
 10188  10186  10189  10191      9   180.00   0.00000   2 ;    H2S-   C12-   C11-   O11
 10189  10191  10192  10193      9     0.00   1.60247   3 ;    C11-   O11-    C1-    HR
 10189  10191  10192  10194      9     0.00   1.60247   3 ;    C11-   O11-    C1-    HS
 10189  10191  10192  10195      9     0.00  -0.41840   1 ;    C11-   O11-    C1-    C2
 10190  10189  10191  10192      9   180.00   5.85760   1 ;    O12-   C11-   O11-    C1
 10190  10189  10191  10192      9   180.00  11.29680   2 ;    O12-   C11-   O11-    C1
 10191  10192  10195  10196      9     0.00   0.00000   0 ;    O11-    C1-    C2-    HX
 10191  10192  10195  10196      9     0.00   1.04600   1 ;    O11-    C1-    C2-    HX
 10191  10192  10195  10197      9     0.00   0.00000   0 ;    O11-    C1-    C2-    C3
 10191  10192  10195  10197      9     0.00   0.00000   0 ;    O11-    C1-    C2-    C3
 10191  10192  10195  10197      9     0.00   0.00000   0 ;    O11-    C1-    C2-    C3
 10191  10192  10195  10197      9     0.00   0.00000   0 ;    O11-    C1-    C2-    C3
 10191  10192  10195  10197      9     0.00   0.00000   0 ;    O11-    C1-    C2-    C3
 10191  10192  10195  10224      9     0.00   1.25520   2 ;    O11-    C1-    C2-   O21
 10191  10192  10195  10224      9     0.00   4.18400   3 ;    O11-    C1-    C2-   O21
 10191  10192  10195  10224      9   180.00  -0.41840   1 ;    O11-    C1-    C2-   O21
 10192  10195  10197  10198      9     0.00   0.65270   3 ;     C1-    C2-    C3-    HA
 10192  10195  10197  10199      9     0.00   0.65270   3 ;     C1-    C2-    C3-    HB
 10192  10195  10197  10200      9   180.00   3.34720   1 ;     C1-    C2-    C3-   O31
 10192  10195  10224  10225      9     0.00  -0.41840   1 ;     C1-    C2-   O21-   C21
 10193  10192  10195  10196      9     0.00   0.65270   3 ;     HR-    C1-    C2-    HX
 10193  10192  10195  10197      9     0.00   0.65270   3 ;     HR-    C1-    C2-    C3
 10193  10192  10195  10224      9     0.00   0.00000   0 ;     HR-    C1-    C2-   O21
 10193  10192  10195  10224      9     0.00   1.04600   1 ;     HR-    C1-    C2-   O21
 10194  10192  10195  10196      9     0.00   0.65270   3 ;     HS-    C1-    C2-    HX
 10194  10192  10195  10197      9     0.00   0.65270   3 ;     HS-    C1-    C2-    C3
 10194  10192  10195  10224      9     0.00   0.00000   0 ;     HS-    C1-    C2-   O21
 10194  10192  10195  10224      9     0.00   1.04600   1 ;     HS-    C1-    C2-   O21
 10195  10197  10200  10201      9     0.00   0.00000   0 ;     C2-    C3-   O31-   P31
 10195  10197  10200  10201      9   180.00  -3.34720   2 ;     C2-    C3-   O31-   P31
 10195  10224  10225  10226      9   180.00   5.85760   1 ;     C2-   O21-   C21-   O22
 10195  10224  10225  10226      9   180.00  11.29680   2 ;     C2-   O21-   C21-   O22
 10195  10224  10225  10264      9   180.00  11.29680   2 ;     C2-   O21-   C21-   C12
 10196  10195  10197  10198      9     0.00   0.65270   3 ;     HX-    C2-    C3-    HA
 10196  10195  10197  10199      9     0.00   0.65270   3 ;     HX-    C2-    C3-    HB
 10196  10195  10197  10200      9     0.00   0.00000   0 ;     HX-    C2-    C3-   O31
 10196  10195  10197  10200      9     0.00   1.04600   1 ;     HX-    C2-    C3-   O31
 10196  10195  10224  10225      9     0.00   1.60247   3 ;     HX-    C2-   O21-   C21
 10197  10195  10224  10225      9     0.00  -0.41840   1 ;     C3-    C2-   O21-   C21
 10197  10200  10201  10202      9     0.00   2.51040   3 ;     C3-   O31-   P31-   O32
 10197  10200  10201  10202      9     0.00   9.62320   2 ;     C3-   O31-   P31-   O32
 10197  10200  10201  10222      9     0.00   0.00000   0 ;     C3-   O31-   P31-   O33
 10197  10200  10201  10222      9     0.00   0.00000   0 ;     C3-   O31-   P31-   O33
 10197  10200  10201  10222      9     0.00   0.00000   0 ;     C3-   O31-   P31-   O33
 10197  10200  10201  10222      9     0.00   0.00000   0 ;     C3-   O31-   P31-   O33
 10197  10200  10201  10222      9     0.00   0.83680   2 ;     C3-   O31-   P31-   O33
 10197  10200  10201  10223      9     0.00   0.00000   0 ;     C3-   O31-   P31-   O34
 10197  10200  10201  10223      9     0.00   0.00000   0 ;     C3-   O31-   P31-   O34
 10197  10200  10201  10223      9     0.00   0.00000   0 ;     C3-   O31-   P31-   O34
 10197  10200  10201  10223      9     0.00   0.00000   0 ;     C3-   O31-   P31-   O34
 10197  10200  10201  10223      9     0.00   0.83680   2 ;     C3-   O31-   P31-   O34
 10198  10197  10195  10224      9     0.00   0.00000   0 ;     HA-    C3-    C2-   O21
 10198  10197  10195  10224      9     0.00   1.04600   1 ;     HA-    C3-    C2-   O21
 10198  10197  10200  10201      9     0.00   0.00000   0 ;     HA-    C3-   O31-   P31
 10198  10197  10200  10201      9     0.00   0.00000   0 ;     HA-    C3-   O31-   P31
 10198  10197  10200  10201      9     0.00   0.00000   0 ;     HA-    C3-   O31-   P31
 10198  10197  10200  10201      9     0.00   0.00000   0 ;     HA-    C3-   O31-   P31
 10198  10197  10200  10201      9     0.00   1.60247   3 ;     HA-    C3-   O31-   P31
 10199  10197  10195  10224      9     0.00   0.00000   0 ;     HB-    C3-    C2-   O21
 10199  10197  10195  10224      9     0.00   1.04600   1 ;     HB-    C3-    C2-   O21
 10199  10197  10200  10201      9     0.00   0.00000   0 ;     HB-    C3-   O31-   P31
 10199  10197  10200  10201      9     0.00   0.00000   0 ;     HB-    C3-   O31-   P31
 10199  10197  10200  10201      9     0.00   0.00000   0 ;     HB-    C3-   O31-   P31
 10199  10197  10200  10201      9     0.00   0.00000   0 ;     HB-    C3-   O31-   P31
 10199  10197  10200  10201      9     0.00   1.60247   3 ;     HB-    C3-   O31-   P31
 10200  10197  10195  10224      9     0.00   0.00000   0 ;    O31-    C3-    C2-   O21
 10200  10197  10195  10224      9     0.00   0.00000   0 ;    O31-    C3-    C2-   O21
 10200  10197  10195  10224      9     0.00   0.00000   0 ;    O31-    C3-    C2-   O21
 10200  10197  10195  10224      9     0.00   0.00000   0 ;    O31-    C3-    C2-   O21
 10200  10197  10195  10224      9     0.00   0.00000   0 ;    O31-    C3-    C2-   O21
 10200  10201  10202  10203      9     0.00   2.51040   3 ;    O31-   P31-   O32-   C31
 10200  10201  10202  10203      9     0.00   9.62320   2 ;    O31-   P31-   O32-   C31
 10201  10202  10203  10204      9     0.00   0.00000   0 ;    P31-   O32-   C31-   H1A
 10201  10202  10203  10204      9     0.00   0.00000   0 ;    P31-   O32-   C31-   H1A
 10201  10202  10203  10204      9     0.00   0.00000   0 ;    P31-   O32-   C31-   H1A
 10201  10202  10203  10204      9     0.00   0.00000   0 ;    P31-   O32-   C31-   H1A
 10201  10202  10203  10204      9     0.00   1.60247   3 ;    P31-   O32-   C31-   H1A
 10201  10202  10203  10205      9     0.00   0.00000   0 ;    P31-   O32-   C31-   H1B
 10201  10202  10203  10205      9     0.00   0.00000   0 ;    P31-   O32-   C31-   H1B
 10201  10202  10203  10205      9     0.00   0.00000   0 ;    P31-   O32-   C31-   H1B
 10201  10202  10203  10205      9     0.00   0.00000   0 ;    P31-   O32-   C31-   H1B
 10201  10202  10203  10205      9     0.00   1.60247   3 ;    P31-   O32-   C31-   H1B
 10201  10202  10203  10206      9     0.00   0.00000   0 ;    P31-   O32-   C31-   C32
 10201  10202  10203  10206      9   180.00  -3.34720   2 ;    P31-   O32-   C31-   C32
 10202  10203  10206  10207      9     0.00   0.65270   3 ;    O32-   C31-   C32-   H2A
 10202  10203  10206  10208      9     0.00   0.65270   3 ;    O32-   C31-   C32-   H2B
 10202  10203  10206  10209      9     0.00   4.18400   3 ;    O32-   C31-   C32-   N31
 10203  10202  10201  10222      9     0.00   0.00000   0 ;    C31-   O32-   P31-   O33
 10203  10202  10201  10222      9     0.00   0.00000   0 ;    C31-   O32-   P31-   O33
 10203  10202  10201  10222      9     0.00   0.00000   0 ;    C31-   O32-   P31-   O33
 10203  10202  10201  10222      9     0.00   0.00000   0 ;    C31-   O32-   P31-   O33
 10203  10202  10201  10222      9     0.00   0.83680   2 ;    C31-   O32-   P31-   O33
 10203  10202  10201  10223      9     0.00   0.00000   0 ;    C31-   O32-   P31-   O34
 10203  10202  10201  10223      9     0.00   0.00000   0 ;    C31-   O32-   P31-   O34
 10203  10202  10201  10223      9     0.00   0.00000   0 ;    C31-   O32-   P31-   O34
 10203  10202  10201  10223      9     0.00   0.00000   0 ;    C31-   O32-   P31-   O34
 10203  10202  10201  10223      9     0.00   0.83680   2 ;    C31-   O32-   P31-   O34
 10203  10206  10209  10210      9     0.00   0.65270   3 ;    C31-   C32-   N31-   C33
 10203  10206  10209  10214      9     0.00   0.65270   3 ;    C31-   C32-   N31-   C34
 10203  10206  10209  10218      9     0.00   0.65270   3 ;    C31-   C32-   N31-   C35
 10204  10203  10206  10207      9     0.00   0.65270   3 ;    H1A-   C31-   C32-   H2A
 10204  10203  10206  10208      9     0.00   0.65270   3 ;    H1A-   C31-   C32-   H2B
 10204  10203  10206  10209      9     0.00   0.65270   3 ;    H1A-   C31-   C32-   N31
 10205  10203  10206  10207      9     0.00   0.65270   3 ;    H1B-   C31-   C32-   H2A
 10205  10203  10206  10208      9     0.00   0.65270   3 ;    H1B-   C31-   C32-   H2B
 10205  10203  10206  10209      9     0.00   0.65270   3 ;    H1B-   C31-   C32-   N31
 10206  10209  10210  10211      9     0.00   0.65270   3 ;    C32-   N31-   C33-   H3A
 10206  10209  10210  10212      9     0.00   0.65270   3 ;    C32-   N31-   C33-   H3B
 10206  10209  10210  10213      9     0.00   0.65270   3 ;    C32-   N31-   C33-   H3C
 10206  10209  10214  10215      9     0.00   0.65270   3 ;    C32-   N31-   C34-   H4A
 10206  10209  10214  10216      9     0.00   0.65270   3 ;    C32-   N31-   C34-   H4B
 10206  10209  10214  10217      9     0.00   0.65270   3 ;    C32-   N31-   C34-   H4C
 10206  10209  10218  10219      9     0.00   0.65270   3 ;    C32-   N31-   C35-   H5A
 10206  10209  10218  10220      9     0.00   0.65270   3 ;    C32-   N31-   C35-   H5B
 10206  10209  10218  10221      9     0.00   0.65270   3 ;    C32-   N31-   C35-   H5C
 10207  10206  10209  10210      9     0.00   0.65270   3 ;    H2A-   C32-   N31-   C33
 10207  10206  10209  10214      9     0.00   0.65270   3 ;    H2A-   C32-   N31-   C34
 10207  10206  10209  10218      9     0.00   0.65270   3 ;    H2A-   C32-   N31-   C35
 10208  10206  10209  10210      9     0.00   0.65270   3 ;    H2B-   C32-   N31-   C33
 10208  10206  10209  10214      9     0.00   0.65270   3 ;    H2B-   C32-   N31-   C34
 10208  10206  10209  10218      9     0.00   0.65270   3 ;    H2B-   C32-   N31-   C35
 10210  10209  10214  10215      9     0.00   0.65270   3 ;    C33-   N31-   C34-   H4A
 10210  10209  10214  10216      9     0.00   0.65270   3 ;    C33-   N31-   C34-   H4B
 10210  10209  10214  10217      9     0.00   0.65270   3 ;    C33-   N31-   C34-   H4C
 10210  10209  10218  10219      9     0.00   0.65270   3 ;    C33-   N31-   C35-   H5A
 10210  10209  10218  10220      9     0.00   0.65270   3 ;    C33-   N31-   C35-   H5B
 10210  10209  10218  10221      9     0.00   0.65270   3 ;    C33-   N31-   C35-   H5C
 10211  10210  10209  10214      9     0.00   0.65270   3 ;    H3A-   C33-   N31-   C34
 10211  10210  10209  10218      9     0.00   0.65270   3 ;    H3A-   C33-   N31-   C35
 10212  10210  10209  10214      9     0.00   0.65270   3 ;    H3B-   C33-   N31-   C34
 10212  10210  10209  10218      9     0.00   0.65270   3 ;    H3B-   C33-   N31-   C35
 10213  10210  10209  10214      9     0.00   0.65270   3 ;    H3C-   C33-   N31-   C34
 10213  10210  10209  10218      9     0.00   0.65270   3 ;    H3C-   C33-   N31-   C35
 10214  10209  10218  10219      9     0.00   0.65270   3 ;    C34-   N31-   C35-   H5A
 10214  10209  10218  10220      9     0.00   0.65270   3 ;    C34-   N31-   C35-   H5B
 10214  10209  10218  10221      9     0.00   0.65270   3 ;    C34-   N31-   C35-   H5C
 10215  10214  10209  10218      9     0.00   0.65270   3 ;    H4A-   C34-   N31-   C35
 10216  10214  10209  10218      9     0.00   0.65270   3 ;    H4B-   C34-   N31-   C35
 10217  10214  10209  10218      9     0.00   0.65270   3 ;    H4C-   C34-   N31-   C35
 10224  10225  10264  10261      9   180.00   0.00000   2 ;    O21-   C21-   C12-   C13
 10224  10225  10264  10265      9   180.00   0.00000   2 ;    O21-   C21-   C12-   H2R
 10224  10225  10264  10266      9   180.00   0.00000   2 ;    O21-   C21-   C12-   H2S
 10225  10264  10261  10258      9     0.00   0.65270   3 ;    C21-   C12-   C13-   C14
 10225  10264  10261  10262      9     0.00   0.65270   3 ;    C21-   C12-   C13-   H3R
 10225  10264  10261  10263      9     0.00   0.65270   3 ;    C21-   C12-   C13-   H3S
 10226  10225  10264  10261      9   180.00   0.00000   2 ;    O22-   C21-   C12-   C13
 10226  10225  10264  10265      9     0.00   3.34720   1 ;    O22-   C21-   C12-   H2R
 10226  10225  10264  10265      9   180.00   0.33472   3 ;    O22-   C21-   C12-   H2R
 10226  10225  10264  10266      9     0.00   3.34720   1 ;    O22-   C21-   C12-   H2S
 10226  10225  10264  10266      9   180.00   0.33472   3 ;    O22-   C21-   C12-   H2S
 10227  10228  10231  10232      9     0.00   0.62760   3 ;   H14T-  C114-  C113-  H13R
 10227  10228  10231  10233      9     0.00   0.62760   3 ;   H14T-  C114-  C113-  H13S
 10227  10228  10231  10234      9     0.00   0.66944   3 ;   H14T-  C114-  C113-  C112
 10228  10231  10234  10235      9     0.00   0.66944   3 ;   C114-  C113-  C112-  H12R
 10228  10231  10234  10236      9     0.00   0.66944   3 ;   C114-  C113-  C112-  H12S
 10228  10231  10234  10237      9     0.00   0.41840   1 ;   C114-  C113-  C112-  C111
 10228  10231  10234  10237      9     0.00   0.41840   2 ;   C114-  C113-  C112-  C111
 10228  10231  10234  10237      9     0.00   0.41840   4 ;   C114-  C113-  C112-  C111
 10228  10231  10234  10237      9     0.00   0.41840   5 ;   C114-  C113-  C112-  C111
 10228  10231  10234  10237      9     0.00   1.25520   3 ;   C114-  C113-  C112-  C111
 10229  10228  10231  10232      9     0.00   0.62760   3 ;   H14R-  C114-  C113-  H13R
 10229  10228  10231  10233      9     0.00   0.62760   3 ;   H14R-  C114-  C113-  H13S
 10229  10228  10231  10234      9     0.00   0.66944   3 ;   H14R-  C114-  C113-  C112
 10230  10228  10231  10232      9     0.00   0.62760   3 ;   H14S-  C114-  C113-  H13R
 10230  10228  10231  10233      9     0.00   0.62760   3 ;   H14S-  C114-  C113-  H13S
 10230  10228  10231  10234      9     0.00   0.66944   3 ;   H14S-  C114-  C113-  C112
 10231  10234  10237  10238      9     0.00   0.66944   3 ;   C113-  C112-  C111-  H11R
 10231  10234  10237  10239      9     0.00   0.66944   3 ;   C113-  C112-  C111-  H11S
 10231  10234  10237  10240      9     0.00   0.41840   1 ;   C113-  C112-  C111-  C110
 10231  10234  10237  10240      9     0.00   0.41840   2 ;   C113-  C112-  C111-  C110
 10231  10234  10237  10240      9     0.00   0.41840   4 ;   C113-  C112-  C111-  C110
 10231  10234  10237  10240      9     0.00   0.41840   5 ;   C113-  C112-  C111-  C110
 10231  10234  10237  10240      9     0.00   1.25520   3 ;   C113-  C112-  C111-  C110
 10232  10231  10234  10235      9     0.00   0.62760   3 ;   H13R-  C113-  C112-  H12R
 10232  10231  10234  10236      9     0.00   0.62760   3 ;   H13R-  C113-  C112-  H12S
 10232  10231  10234  10237      9     0.00   0.66944   3 ;   H13R-  C113-  C112-  C111
 10233  10231  10234  10235      9     0.00   0.62760   3 ;   H13S-  C113-  C112-  H12R
 10233  10231  10234  10236      9     0.00   0.62760   3 ;   H13S-  C113-  C112-  H12S
 10233  10231  10234  10237      9     0.00   0.66944   3 ;   H13S-  C113-  C112-  C111
 10234  10237  10240  10241      9     0.00   0.66944   3 ;   C112-  C111-  C110-  H10R
 10234  10237  10240  10242      9     0.00   0.66944   3 ;   C112-  C111-  C110-  H10S
 10234  10237  10240  10243      9     0.00   0.41840   1 ;   C112-  C111-  C110-   C19
 10234  10237  10240  10243      9     0.00   0.41840   2 ;   C112-  C111-  C110-   C19
 10234  10237  10240  10243      9     0.00   0.41840   4 ;   C112-  C111-  C110-   C19
 10234  10237  10240  10243      9     0.00   0.41840   5 ;   C112-  C111-  C110-   C19
 10234  10237  10240  10243      9     0.00   1.25520   3 ;   C112-  C111-  C110-   C19
 10235  10234  10237  10238      9     0.00   0.62760   3 ;   H12R-  C112-  C111-  H11R
 10235  10234  10237  10239      9     0.00   0.62760   3 ;   H12R-  C112-  C111-  H11S
 10235  10234  10237  10240      9     0.00   0.66944   3 ;   H12R-  C112-  C111-  C110
 10236  10234  10237  10238      9     0.00   0.62760   3 ;   H12S-  C112-  C111-  H11R
 10236  10234  10237  10239      9     0.00   0.62760   3 ;   H12S-  C112-  C111-  H11S
 10236  10234  10237  10240      9     0.00   0.66944   3 ;   H12S-  C112-  C111-  C110
 10237  10240  10243  10244      9     0.00   0.66944   3 ;   C111-  C110-   C19-   H9R
 10237  10240  10243  10245      9     0.00   0.66944   3 ;   C111-  C110-   C19-   H9S
 10237  10240  10243  10246      9     0.00   0.41840   1 ;   C111-  C110-   C19-   C18
 10237  10240  10243  10246      9     0.00   0.41840   2 ;   C111-  C110-   C19-   C18
 10237  10240  10243  10246      9     0.00   0.41840   4 ;   C111-  C110-   C19-   C18
 10237  10240  10243  10246      9     0.00   0.41840   5 ;   C111-  C110-   C19-   C18
 10237  10240  10243  10246      9     0.00   1.25520   3 ;   C111-  C110-   C19-   C18
 10238  10237  10240  10241      9     0.00   0.62760   3 ;   H11R-  C111-  C110-  H10R
 10238  10237  10240  10242      9     0.00   0.62760   3 ;   H11R-  C111-  C110-  H10S
 10238  10237  10240  10243      9     0.00   0.66944   3 ;   H11R-  C111-  C110-   C19
 10239  10237  10240  10241      9     0.00   0.62760   3 ;   H11S-  C111-  C110-  H10R
 10239  10237  10240  10242      9     0.00   0.62760   3 ;   H11S-  C111-  C110-  H10S
 10239  10237  10240  10243      9     0.00   0.66944   3 ;   H11S-  C111-  C110-   C19
 10240  10243  10246  10247      9     0.00   0.66944   3 ;   C110-   C19-   C18-   H8R
 10240  10243  10246  10248      9     0.00   0.66944   3 ;   C110-   C19-   C18-   H8S
 10240  10243  10246  10249      9     0.00   0.41840   1 ;   C110-   C19-   C18-   C17
 10240  10243  10246  10249      9     0.00   0.41840   2 ;   C110-   C19-   C18-   C17
 10240  10243  10246  10249      9     0.00   0.41840   4 ;   C110-   C19-   C18-   C17
 10240  10243  10246  10249      9     0.00   0.41840   5 ;   C110-   C19-   C18-   C17
 10240  10243  10246  10249      9     0.00   1.25520   3 ;   C110-   C19-   C18-   C17
 10241  10240  10243  10244      9     0.00   0.62760   3 ;   H10R-  C110-   C19-   H9R
 10241  10240  10243  10245      9     0.00   0.62760   3 ;   H10R-  C110-   C19-   H9S
 10241  10240  10243  10246      9     0.00   0.66944   3 ;   H10R-  C110-   C19-   C18
 10242  10240  10243  10244      9     0.00   0.62760   3 ;   H10S-  C110-   C19-   H9R
 10242  10240  10243  10245      9     0.00   0.62760   3 ;   H10S-  C110-   C19-   H9S
 10242  10240  10243  10246      9     0.00   0.66944   3 ;   H10S-  C110-   C19-   C18
 10243  10246  10249  10250      9     0.00   0.66944   3 ;    C19-   C18-   C17-   H7R
 10243  10246  10249  10251      9     0.00   0.66944   3 ;    C19-   C18-   C17-   H7S
 10243  10246  10249  10252      9     0.00   0.41840   1 ;    C19-   C18-   C17-   C16
 10243  10246  10249  10252      9     0.00   0.41840   2 ;    C19-   C18-   C17-   C16
 10243  10246  10249  10252      9     0.00   0.41840   4 ;    C19-   C18-   C17-   C16
 10243  10246  10249  10252      9     0.00   0.41840   5 ;    C19-   C18-   C17-   C16
 10243  10246  10249  10252      9     0.00   1.25520   3 ;    C19-   C18-   C17-   C16
 10244  10243  10246  10247      9     0.00   0.62760   3 ;    H9R-   C19-   C18-   H8R
 10244  10243  10246  10248      9     0.00   0.62760   3 ;    H9R-   C19-   C18-   H8S
 10244  10243  10246  10249      9     0.00   0.66944   3 ;    H9R-   C19-   C18-   C17
 10245  10243  10246  10247      9     0.00   0.62760   3 ;    H9S-   C19-   C18-   H8R
 10245  10243  10246  10248      9     0.00   0.62760   3 ;    H9S-   C19-   C18-   H8S
 10245  10243  10246  10249      9     0.00   0.66944   3 ;    H9S-   C19-   C18-   C17
 10246  10249  10252  10253      9     0.00   0.66944   3 ;    C18-   C17-   C16-   H6R
 10246  10249  10252  10254      9     0.00   0.66944   3 ;    C18-   C17-   C16-   H6S
 10246  10249  10252  10255      9     0.00   0.41840   1 ;    C18-   C17-   C16-   C15
 10246  10249  10252  10255      9     0.00   0.41840   2 ;    C18-   C17-   C16-   C15
 10246  10249  10252  10255      9     0.00   0.41840   4 ;    C18-   C17-   C16-   C15
 10246  10249  10252  10255      9     0.00   0.41840   5 ;    C18-   C17-   C16-   C15
 10246  10249  10252  10255      9     0.00   1.25520   3 ;    C18-   C17-   C16-   C15
 10247  10246  10249  10250      9     0.00   0.62760   3 ;    H8R-   C18-   C17-   H7R
 10247  10246  10249  10251      9     0.00   0.62760   3 ;    H8R-   C18-   C17-   H7S
 10247  10246  10249  10252      9     0.00   0.66944   3 ;    H8R-   C18-   C17-   C16
 10248  10246  10249  10250      9     0.00   0.62760   3 ;    H8S-   C18-   C17-   H7R
 10248  10246  10249  10251      9     0.00   0.62760   3 ;    H8S-   C18-   C17-   H7S
 10248  10246  10249  10252      9     0.00   0.66944   3 ;    H8S-   C18-   C17-   C16
 10249  10252  10255  10256      9     0.00   0.66944   3 ;    C17-   C16-   C15-   H5R
 10249  10252  10255  10257      9     0.00   0.66944   3 ;    C17-   C16-   C15-   H5S
 10249  10252  10255  10258      9     0.00   0.41840   1 ;    C17-   C16-   C15-   C14
 10249  10252  10255  10258      9     0.00   0.41840   2 ;    C17-   C16-   C15-   C14
 10249  10252  10255  10258      9     0.00   0.41840   4 ;    C17-   C16-   C15-   C14
 10249  10252  10255  10258      9     0.00   0.41840   5 ;    C17-   C16-   C15-   C14
 10249  10252  10255  10258      9     0.00   1.25520   3 ;    C17-   C16-   C15-   C14
 10250  10249  10252  10253      9     0.00   0.62760   3 ;    H7R-   C17-   C16-   H6R
 10250  10249  10252  10254      9     0.00   0.62760   3 ;    H7R-   C17-   C16-   H6S
 10250  10249  10252  10255      9     0.00   0.66944   3 ;    H7R-   C17-   C16-   C15
 10251  10249  10252  10253      9     0.00   0.62760   3 ;    H7S-   C17-   C16-   H6R
 10251  10249  10252  10254      9     0.00   0.62760   3 ;    H7S-   C17-   C16-   H6S
 10251  10249  10252  10255      9     0.00   0.66944   3 ;    H7S-   C17-   C16-   C15
 10252  10255  10258  10259      9     0.00   0.66944   3 ;    C16-   C15-   C14-   H4R
 10252  10255  10258  10260      9     0.00   0.66944   3 ;    C16-   C15-   C14-   H4S
 10252  10255  10258  10261      9     0.00   0.41840   1 ;    C16-   C15-   C14-   C13
 10252  10255  10258  10261      9     0.00   0.41840   2 ;    C16-   C15-   C14-   C13
 10252  10255  10258  10261      9     0.00   0.41840   4 ;    C16-   C15-   C14-   C13
 10252  10255  10258  10261      9     0.00   0.41840   5 ;    C16-   C15-   C14-   C13
 10252  10255  10258  10261      9     0.00   1.25520   3 ;    C16-   C15-   C14-   C13
 10253  10252  10255  10256      9     0.00   0.62760   3 ;    H6R-   C16-   C15-   H5R
 10253  10252  10255  10257      9     0.00   0.62760   3 ;    H6R-   C16-   C15-   H5S
 10253  10252  10255  10258      9     0.00   0.66944   3 ;    H6R-   C16-   C15-   C14
 10254  10252  10255  10256      9     0.00   0.62760   3 ;    H6S-   C16-   C15-   H5R
 10254  10252  10255  10257      9     0.00   0.62760   3 ;    H6S-   C16-   C15-   H5S
 10254  10252  10255  10258      9     0.00   0.66944   3 ;    H6S-   C16-   C15-   C14
 10255  10258  10261  10262      9     0.00   0.66944   3 ;    C15-   C14-   C13-   H3R
 10255  10258  10261  10263      9     0.00   0.66944   3 ;    C15-   C14-   C13-   H3S
 10255  10258  10261  10264      9     0.00   0.41840   1 ;    C15-   C14-   C13-   C12
 10255  10258  10261  10264      9     0.00   0.41840   2 ;    C15-   C14-   C13-   C12
 10255  10258  10261  10264      9     0.00   0.41840   4 ;    C15-   C14-   C13-   C12
 10255  10258  10261  10264      9     0.00   0.41840   5 ;    C15-   C14-   C13-   C12
 10255  10258  10261  10264      9     0.00   1.25520   3 ;    C15-   C14-   C13-   C12
 10256  10255  10258  10259      9     0.00   0.62760   3 ;    H5R-   C15-   C14-   H4R
 10256  10255  10258  10260      9     0.00   0.62760   3 ;    H5R-   C15-   C14-   H4S
 10256  10255  10258  10261      9     0.00   0.66944   3 ;    H5R-   C15-   C14-   C13
 10257  10255  10258  10259      9     0.00   0.62760   3 ;    H5S-   C15-   C14-   H4R
 10257  10255  10258  10260      9     0.00   0.62760   3 ;    H5S-   C15-   C14-   H4S
 10257  10255  10258  10261      9     0.00   0.66944   3 ;    H5S-   C15-   C14-   C13
 10258  10261  10264  10265      9     0.00   0.66944   3 ;    C14-   C13-   C12-   H2R
 10258  10261  10264  10266      9     0.00   0.66944   3 ;    C14-   C13-   C12-   H2S
 10259  10258  10261  10262      9     0.00   0.62760   3 ;    H4R-   C14-   C13-   H3R
 10259  10258  10261  10263      9     0.00   0.62760   3 ;    H4R-   C14-   C13-   H3S
 10259  10258  10261  10264      9     0.00   0.66944   3 ;    H4R-   C14-   C13-   C12
 10260  10258  10261  10262      9     0.00   0.62760   3 ;    H4S-   C14-   C13-   H3R
 10260  10258  10261  10263      9     0.00   0.62760   3 ;    H4S-   C14-   C13-   H3S
 10260  10258  10261  10264      9     0.00   0.66944   3 ;    H4S-   C14-   C13-   C12
 10262  10261  10264  10265      9     0.00   0.62760   3 ;    H3R-   C13-   C12-   H2R
 10262  10261  10264  10266      9     0.00   0.62760   3 ;    H3R-   C13-   C12-   H2S
 10263  10261  10264  10265      9     0.00   0.62760   3 ;    H3S-   C13-   C12-   H2R
 10263  10261  10264  10266      9     0.00   0.62760   3 ;    H3S-   C13-   C12-   H2S
 10267  10268  10271  10272      9     0.00   0.62760   3 ;   H14T-  C114-  C113-  H13R
 10267  10268  10271  10273      9     0.00   0.62760   3 ;   H14T-  C114-  C113-  H13S
 10267  10268  10271  10274      9     0.00   0.66944   3 ;   H14T-  C114-  C113-  C112
 10268  10271  10274  10275      9     0.00   0.66944   3 ;   C114-  C113-  C112-  H12R
 10268  10271  10274  10276      9     0.00   0.66944   3 ;   C114-  C113-  C112-  H12S
 10268  10271  10274  10277      9     0.00   0.41840   1 ;   C114-  C113-  C112-  C111
 10268  10271  10274  10277      9     0.00   0.41840   2 ;   C114-  C113-  C112-  C111
 10268  10271  10274  10277      9     0.00   0.41840   4 ;   C114-  C113-  C112-  C111
 10268  10271  10274  10277      9     0.00   0.41840   5 ;   C114-  C113-  C112-  C111
 10268  10271  10274  10277      9     0.00   1.25520   3 ;   C114-  C113-  C112-  C111
 10269  10268  10271  10272      9     0.00   0.62760   3 ;   H14R-  C114-  C113-  H13R
 10269  10268  10271  10273      9     0.00   0.62760   3 ;   H14R-  C114-  C113-  H13S
 10269  10268  10271  10274      9     0.00   0.66944   3 ;   H14R-  C114-  C113-  C112
 10270  10268  10271  10272      9     0.00   0.62760   3 ;   H14S-  C114-  C113-  H13R
 10270  10268  10271  10273      9     0.00   0.62760   3 ;   H14S-  C114-  C113-  H13S
 10270  10268  10271  10274      9     0.00   0.66944   3 ;   H14S-  C114-  C113-  C112
 10271  10274  10277  10278      9     0.00   0.66944   3 ;   C113-  C112-  C111-  H11R
 10271  10274  10277  10279      9     0.00   0.66944   3 ;   C113-  C112-  C111-  H11S
 10271  10274  10277  10280      9     0.00   0.41840   1 ;   C113-  C112-  C111-  C110
 10271  10274  10277  10280      9     0.00   0.41840   2 ;   C113-  C112-  C111-  C110
 10271  10274  10277  10280      9     0.00   0.41840   4 ;   C113-  C112-  C111-  C110
 10271  10274  10277  10280      9     0.00   0.41840   5 ;   C113-  C112-  C111-  C110
 10271  10274  10277  10280      9     0.00   1.25520   3 ;   C113-  C112-  C111-  C110
 10272  10271  10274  10275      9     0.00   0.62760   3 ;   H13R-  C113-  C112-  H12R
 10272  10271  10274  10276      9     0.00   0.62760   3 ;   H13R-  C113-  C112-  H12S
 10272  10271  10274  10277      9     0.00   0.66944   3 ;   H13R-  C113-  C112-  C111
 10273  10271  10274  10275      9     0.00   0.62760   3 ;   H13S-  C113-  C112-  H12R
 10273  10271  10274  10276      9     0.00   0.62760   3 ;   H13S-  C113-  C112-  H12S
 10273  10271  10274  10277      9     0.00   0.66944   3 ;   H13S-  C113-  C112-  C111
 10274  10277  10280  10281      9     0.00   0.66944   3 ;   C112-  C111-  C110-  H10R
 10274  10277  10280  10282      9     0.00   0.66944   3 ;   C112-  C111-  C110-  H10S
 10274  10277  10280  10283      9     0.00   0.41840   1 ;   C112-  C111-  C110-   C19
 10274  10277  10280  10283      9     0.00   0.41840   2 ;   C112-  C111-  C110-   C19
 10274  10277  10280  10283      9     0.00   0.41840   4 ;   C112-  C111-  C110-   C19
 10274  10277  10280  10283      9     0.00   0.41840   5 ;   C112-  C111-  C110-   C19
 10274  10277  10280  10283      9     0.00   1.25520   3 ;   C112-  C111-  C110-   C19
 10275  10274  10277  10278      9     0.00   0.62760   3 ;   H12R-  C112-  C111-  H11R
 10275  10274  10277  10279      9     0.00   0.62760   3 ;   H12R-  C112-  C111-  H11S
 10275  10274  10277  10280      9     0.00   0.66944   3 ;   H12R-  C112-  C111-  C110
 10276  10274  10277  10278      9     0.00   0.62760   3 ;   H12S-  C112-  C111-  H11R
 10276  10274  10277  10279      9     0.00   0.62760   3 ;   H12S-  C112-  C111-  H11S
 10276  10274  10277  10280      9     0.00   0.66944   3 ;   H12S-  C112-  C111-  C110
 10277  10280  10283  10284      9     0.00   0.66944   3 ;   C111-  C110-   C19-   H9R
 10277  10280  10283  10285      9     0.00   0.66944   3 ;   C111-  C110-   C19-   H9S
 10277  10280  10283  10286      9     0.00   0.41840   1 ;   C111-  C110-   C19-   C18
 10277  10280  10283  10286      9     0.00   0.41840   2 ;   C111-  C110-   C19-   C18
 10277  10280  10283  10286      9     0.00   0.41840   4 ;   C111-  C110-   C19-   C18
 10277  10280  10283  10286      9     0.00   0.41840   5 ;   C111-  C110-   C19-   C18
 10277  10280  10283  10286      9     0.00   1.25520   3 ;   C111-  C110-   C19-   C18
 10278  10277  10280  10281      9     0.00   0.62760   3 ;   H11R-  C111-  C110-  H10R
 10278  10277  10280  10282      9     0.00   0.62760   3 ;   H11R-  C111-  C110-  H10S
 10278  10277  10280  10283      9     0.00   0.66944   3 ;   H11R-  C111-  C110-   C19
 10279  10277  10280  10281      9     0.00   0.62760   3 ;   H11S-  C111-  C110-  H10R
 10279  10277  10280  10282      9     0.00   0.62760   3 ;   H11S-  C111-  C110-  H10S
 10279  10277  10280  10283      9     0.00   0.66944   3 ;   H11S-  C111-  C110-   C19
 10280  10283  10286  10287      9     0.00   0.66944   3 ;   C110-   C19-   C18-   H8R
 10280  10283  10286  10288      9     0.00   0.66944   3 ;   C110-   C19-   C18-   H8S
 10280  10283  10286  10289      9     0.00   0.41840   1 ;   C110-   C19-   C18-   C17
 10280  10283  10286  10289      9     0.00   0.41840   2 ;   C110-   C19-   C18-   C17
 10280  10283  10286  10289      9     0.00   0.41840   4 ;   C110-   C19-   C18-   C17
 10280  10283  10286  10289      9     0.00   0.41840   5 ;   C110-   C19-   C18-   C17
 10280  10283  10286  10289      9     0.00   1.25520   3 ;   C110-   C19-   C18-   C17
 10281  10280  10283  10284      9     0.00   0.62760   3 ;   H10R-  C110-   C19-   H9R
 10281  10280  10283  10285      9     0.00   0.62760   3 ;   H10R-  C110-   C19-   H9S
 10281  10280  10283  10286      9     0.00   0.66944   3 ;   H10R-  C110-   C19-   C18
 10282  10280  10283  10284      9     0.00   0.62760   3 ;   H10S-  C110-   C19-   H9R
 10282  10280  10283  10285      9     0.00   0.62760   3 ;   H10S-  C110-   C19-   H9S
 10282  10280  10283  10286      9     0.00   0.66944   3 ;   H10S-  C110-   C19-   C18
 10283  10286  10289  10290      9     0.00   0.66944   3 ;    C19-   C18-   C17-   H7R
 10283  10286  10289  10291      9     0.00   0.66944   3 ;    C19-   C18-   C17-   H7S
 10283  10286  10289  10292      9     0.00   0.41840   1 ;    C19-   C18-   C17-   C16
 10283  10286  10289  10292      9     0.00   0.41840   2 ;    C19-   C18-   C17-   C16
 10283  10286  10289  10292      9     0.00   0.41840   4 ;    C19-   C18-   C17-   C16
 10283  10286  10289  10292      9     0.00   0.41840   5 ;    C19-   C18-   C17-   C16
 10283  10286  10289  10292      9     0.00   1.25520   3 ;    C19-   C18-   C17-   C16
 10284  10283  10286  10287      9     0.00   0.62760   3 ;    H9R-   C19-   C18-   H8R
 10284  10283  10286  10288      9     0.00   0.62760   3 ;    H9R-   C19-   C18-   H8S
 10284  10283  10286  10289      9     0.00   0.66944   3 ;    H9R-   C19-   C18-   C17
 10285  10283  10286  10287      9     0.00   0.62760   3 ;    H9S-   C19-   C18-   H8R
 10285  10283  10286  10288      9     0.00   0.62760   3 ;    H9S-   C19-   C18-   H8S
 10285  10283  10286  10289      9     0.00   0.66944   3 ;    H9S-   C19-   C18-   C17
 10286  10289  10292  10293      9     0.00   0.66944   3 ;    C18-   C17-   C16-   H6R
 10286  10289  10292  10294      9     0.00   0.66944   3 ;    C18-   C17-   C16-   H6S
 10286  10289  10292  10295      9     0.00   0.41840   1 ;    C18-   C17-   C16-   C15
 10286  10289  10292  10295      9     0.00   0.41840   2 ;    C18-   C17-   C16-   C15
 10286  10289  10292  10295      9     0.00   0.41840   4 ;    C18-   C17-   C16-   C15
 10286  10289  10292  10295      9     0.00   0.41840   5 ;    C18-   C17-   C16-   C15
 10286  10289  10292  10295      9     0.00   1.25520   3 ;    C18-   C17-   C16-   C15
 10287  10286  10289  10290      9     0.00   0.62760   3 ;    H8R-   C18-   C17-   H7R
 10287  10286  10289  10291      9     0.00   0.62760   3 ;    H8R-   C18-   C17-   H7S
 10287  10286  10289  10292      9     0.00   0.66944   3 ;    H8R-   C18-   C17-   C16
 10288  10286  10289  10290      9     0.00   0.62760   3 ;    H8S-   C18-   C17-   H7R
 10288  10286  10289  10291      9     0.00   0.62760   3 ;    H8S-   C18-   C17-   H7S
 10288  10286  10289  10292      9     0.00   0.66944   3 ;    H8S-   C18-   C17-   C16
 10289  10292  10295  10296      9     0.00   0.66944   3 ;    C17-   C16-   C15-   H5R
 10289  10292  10295  10297      9     0.00   0.66944   3 ;    C17-   C16-   C15-   H5S
 10289  10292  10295  10298      9     0.00   0.41840   1 ;    C17-   C16-   C15-   C14
 10289  10292  10295  10298      9     0.00   0.41840   2 ;    C17-   C16-   C15-   C14
 10289  10292  10295  10298      9     0.00   0.41840   4 ;    C17-   C16-   C15-   C14
 10289  10292  10295  10298      9     0.00   0.41840   5 ;    C17-   C16-   C15-   C14
 10289  10292  10295  10298      9     0.00   1.25520   3 ;    C17-   C16-   C15-   C14
 10290  10289  10292  10293      9     0.00   0.62760   3 ;    H7R-   C17-   C16-   H6R
 10290  10289  10292  10294      9     0.00   0.62760   3 ;    H7R-   C17-   C16-   H6S
 10290  10289  10292  10295      9     0.00   0.66944   3 ;    H7R-   C17-   C16-   C15
 10291  10289  10292  10293      9     0.00   0.62760   3 ;    H7S-   C17-   C16-   H6R
 10291  10289  10292  10294      9     0.00   0.62760   3 ;    H7S-   C17-   C16-   H6S
 10291  10289  10292  10295      9     0.00   0.66944   3 ;    H7S-   C17-   C16-   C15
 10292  10295  10298  10299      9     0.00   0.66944   3 ;    C16-   C15-   C14-   H4R
 10292  10295  10298  10300      9     0.00   0.66944   3 ;    C16-   C15-   C14-   H4S
 10292  10295  10298  10301      9     0.00   0.41840   1 ;    C16-   C15-   C14-   C13
 10292  10295  10298  10301      9     0.00   0.41840   2 ;    C16-   C15-   C14-   C13
 10292  10295  10298  10301      9     0.00   0.41840   4 ;    C16-   C15-   C14-   C13
 10292  10295  10298  10301      9     0.00   0.41840   5 ;    C16-   C15-   C14-   C13
 10292  10295  10298  10301      9     0.00   1.25520   3 ;    C16-   C15-   C14-   C13
 10293  10292  10295  10296      9     0.00   0.62760   3 ;    H6R-   C16-   C15-   H5R
 10293  10292  10295  10297      9     0.00   0.62760   3 ;    H6R-   C16-   C15-   H5S
 10293  10292  10295  10298      9     0.00   0.66944   3 ;    H6R-   C16-   C15-   C14
 10294  10292  10295  10296      9     0.00   0.62760   3 ;    H6S-   C16-   C15-   H5R
 10294  10292  10295  10297      9     0.00   0.62760   3 ;    H6S-   C16-   C15-   H5S
 10294  10292  10295  10298      9     0.00   0.66944   3 ;    H6S-   C16-   C15-   C14
 10295  10298  10301  10302      9     0.00   0.66944   3 ;    C15-   C14-   C13-   H3R
 10295  10298  10301  10303      9     0.00   0.66944   3 ;    C15-   C14-   C13-   H3S
 10295  10298  10301  10304      9     0.00   0.41840   1 ;    C15-   C14-   C13-   C12
 10295  10298  10301  10304      9     0.00   0.41840   2 ;    C15-   C14-   C13-   C12
 10295  10298  10301  10304      9     0.00   0.41840   4 ;    C15-   C14-   C13-   C12
 10295  10298  10301  10304      9     0.00   0.41840   5 ;    C15-   C14-   C13-   C12
 10295  10298  10301  10304      9     0.00   1.25520   3 ;    C15-   C14-   C13-   C12
 10296  10295  10298  10299      9     0.00   0.62760   3 ;    H5R-   C15-   C14-   H4R
 10296  10295  10298  10300      9     0.00   0.62760   3 ;    H5R-   C15-   C14-   H4S
 10296  10295  10298  10301      9     0.00   0.66944   3 ;    H5R-   C15-   C14-   C13
 10297  10295  10298  10299      9     0.00   0.62760   3 ;    H5S-   C15-   C14-   H4R
 10297  10295  10298  10300      9     0.00   0.62760   3 ;    H5S-   C15-   C14-   H4S
 10297  10295  10298  10301      9     0.00   0.66944   3 ;    H5S-   C15-   C14-   C13
 10298  10301  10304  10305      9     0.00   0.66944   3 ;    C14-   C13-   C12-   H2R
 10298  10301  10304  10306      9     0.00   0.66944   3 ;    C14-   C13-   C12-   H2S
 10298  10301  10304  10307      9     0.00   0.65270   3 ;    C14-   C13-   C12-   C11
 10299  10298  10301  10302      9     0.00   0.62760   3 ;    H4R-   C14-   C13-   H3R
 10299  10298  10301  10303      9     0.00   0.62760   3 ;    H4R-   C14-   C13-   H3S
 10299  10298  10301  10304      9     0.00   0.66944   3 ;    H4R-   C14-   C13-   C12
 10300  10298  10301  10302      9     0.00   0.62760   3 ;    H4S-   C14-   C13-   H3R
 10300  10298  10301  10303      9     0.00   0.62760   3 ;    H4S-   C14-   C13-   H3S
 10300  10298  10301  10304      9     0.00   0.66944   3 ;    H4S-   C14-   C13-   C12
 10301  10304  10307  10308      9   180.00   0.00000   2 ;    C13-   C12-   C11-   O12
 10301  10304  10307  10309      9   180.00   0.00000   2 ;    C13-   C12-   C11-   O11
 10302  10301  10304  10305      9     0.00   0.62760   3 ;    H3R-   C13-   C12-   H2R
 10302  10301  10304  10306      9     0.00   0.62760   3 ;    H3R-   C13-   C12-   H2S
 10302  10301  10304  10307      9     0.00   0.65270   3 ;    H3R-   C13-   C12-   C11
 10303  10301  10304  10305      9     0.00   0.62760   3 ;    H3S-   C13-   C12-   H2R
 10303  10301  10304  10306      9     0.00   0.62760   3 ;    H3S-   C13-   C12-   H2S
 10303  10301  10304  10307      9     0.00   0.65270   3 ;    H3S-   C13-   C12-   C11
 10304  10307  10309  10310      9   180.00  11.29680   2 ;    C12-   C11-   O11-    C1
 10305  10304  10307  10308      9     0.00   3.34720   1 ;    H2R-   C12-   C11-   O12
 10305  10304  10307  10308      9   180.00   0.33472   3 ;    H2R-   C12-   C11-   O12
 10305  10304  10307  10309      9   180.00   0.00000   2 ;    H2R-   C12-   C11-   O11
 10306  10304  10307  10308      9     0.00   3.34720   1 ;    H2S-   C12-   C11-   O12
 10306  10304  10307  10308      9   180.00   0.33472   3 ;    H2S-   C12-   C11-   O12
 10306  10304  10307  10309      9   180.00   0.00000   2 ;    H2S-   C12-   C11-   O11
 10307  10309  10310  10311      9     0.00   1.60247   3 ;    C11-   O11-    C1-    HR
 10307  10309  10310  10312      9     0.00   1.60247   3 ;    C11-   O11-    C1-    HS
 10307  10309  10310  10313      9     0.00  -0.41840   1 ;    C11-   O11-    C1-    C2
 10308  10307  10309  10310      9   180.00   5.85760   1 ;    O12-   C11-   O11-    C1
 10308  10307  10309  10310      9   180.00  11.29680   2 ;    O12-   C11-   O11-    C1
 10309  10310  10313  10314      9     0.00   0.00000   0 ;    O11-    C1-    C2-    HX
 10309  10310  10313  10314      9     0.00   1.04600   1 ;    O11-    C1-    C2-    HX
 10309  10310  10313  10315      9     0.00   0.00000   0 ;    O11-    C1-    C2-    C3
 10309  10310  10313  10315      9     0.00   0.00000   0 ;    O11-    C1-    C2-    C3
 10309  10310  10313  10315      9     0.00   0.00000   0 ;    O11-    C1-    C2-    C3
 10309  10310  10313  10315      9     0.00   0.00000   0 ;    O11-    C1-    C2-    C3
 10309  10310  10313  10315      9     0.00   0.00000   0 ;    O11-    C1-    C2-    C3
 10309  10310  10313  10342      9     0.00   1.25520   2 ;    O11-    C1-    C2-   O21
 10309  10310  10313  10342      9     0.00   4.18400   3 ;    O11-    C1-    C2-   O21
 10309  10310  10313  10342      9   180.00  -0.41840   1 ;    O11-    C1-    C2-   O21
 10310  10313  10315  10316      9     0.00   0.65270   3 ;     C1-    C2-    C3-    HA
 10310  10313  10315  10317      9     0.00   0.65270   3 ;     C1-    C2-    C3-    HB
 10310  10313  10315  10318      9   180.00   3.34720   1 ;     C1-    C2-    C3-   O31
 10310  10313  10342  10343      9     0.00  -0.41840   1 ;     C1-    C2-   O21-   C21
 10311  10310  10313  10314      9     0.00   0.65270   3 ;     HR-    C1-    C2-    HX
 10311  10310  10313  10315      9     0.00   0.65270   3 ;     HR-    C1-    C2-    C3
 10311  10310  10313  10342      9     0.00   0.00000   0 ;     HR-    C1-    C2-   O21
 10311  10310  10313  10342      9     0.00   1.04600   1 ;     HR-    C1-    C2-   O21
 10312  10310  10313  10314      9     0.00   0.65270   3 ;     HS-    C1-    C2-    HX
 10312  10310  10313  10315      9     0.00   0.65270   3 ;     HS-    C1-    C2-    C3
 10312  10310  10313  10342      9     0.00   0.00000   0 ;     HS-    C1-    C2-   O21
 10312  10310  10313  10342      9     0.00   1.04600   1 ;     HS-    C1-    C2-   O21
 10313  10315  10318  10319      9     0.00   0.00000   0 ;     C2-    C3-   O31-   P31
 10313  10315  10318  10319      9   180.00  -3.34720   2 ;     C2-    C3-   O31-   P31
 10313  10342  10343  10344      9   180.00   5.85760   1 ;     C2-   O21-   C21-   O22
 10313  10342  10343  10344      9   180.00  11.29680   2 ;     C2-   O21-   C21-   O22
 10313  10342  10343  10382      9   180.00  11.29680   2 ;     C2-   O21-   C21-   C12
 10314  10313  10315  10316      9     0.00   0.65270   3 ;     HX-    C2-    C3-    HA
 10314  10313  10315  10317      9     0.00   0.65270   3 ;     HX-    C2-    C3-    HB
 10314  10313  10315  10318      9     0.00   0.00000   0 ;     HX-    C2-    C3-   O31
 10314  10313  10315  10318      9     0.00   1.04600   1 ;     HX-    C2-    C3-   O31
 10314  10313  10342  10343      9     0.00   1.60247   3 ;     HX-    C2-   O21-   C21
 10315  10313  10342  10343      9     0.00  -0.41840   1 ;     C3-    C2-   O21-   C21
 10315  10318  10319  10320      9     0.00   2.51040   3 ;     C3-   O31-   P31-   O32
 10315  10318  10319  10320      9     0.00   9.62320   2 ;     C3-   O31-   P31-   O32
 10315  10318  10319  10340      9     0.00   0.00000   0 ;     C3-   O31-   P31-   O33
 10315  10318  10319  10340      9     0.00   0.00000   0 ;     C3-   O31-   P31-   O33
 10315  10318  10319  10340      9     0.00   0.00000   0 ;     C3-   O31-   P31-   O33
 10315  10318  10319  10340      9     0.00   0.00000   0 ;     C3-   O31-   P31-   O33
 10315  10318  10319  10340      9     0.00   0.83680   2 ;     C3-   O31-   P31-   O33
 10315  10318  10319  10341      9     0.00   0.00000   0 ;     C3-   O31-   P31-   O34
 10315  10318  10319  10341      9     0.00   0.00000   0 ;     C3-   O31-   P31-   O34
 10315  10318  10319  10341      9     0.00   0.00000   0 ;     C3-   O31-   P31-   O34
 10315  10318  10319  10341      9     0.00   0.00000   0 ;     C3-   O31-   P31-   O34
 10315  10318  10319  10341      9     0.00   0.83680   2 ;     C3-   O31-   P31-   O34
 10316  10315  10313  10342      9     0.00   0.00000   0 ;     HA-    C3-    C2-   O21
 10316  10315  10313  10342      9     0.00   1.04600   1 ;     HA-    C3-    C2-   O21
 10316  10315  10318  10319      9     0.00   0.00000   0 ;     HA-    C3-   O31-   P31
 10316  10315  10318  10319      9     0.00   0.00000   0 ;     HA-    C3-   O31-   P31
 10316  10315  10318  10319      9     0.00   0.00000   0 ;     HA-    C3-   O31-   P31
 10316  10315  10318  10319      9     0.00   0.00000   0 ;     HA-    C3-   O31-   P31
 10316  10315  10318  10319      9     0.00   1.60247   3 ;     HA-    C3-   O31-   P31
 10317  10315  10313  10342      9     0.00   0.00000   0 ;     HB-    C3-    C2-   O21
 10317  10315  10313  10342      9     0.00   1.04600   1 ;     HB-    C3-    C2-   O21
 10317  10315  10318  10319      9     0.00   0.00000   0 ;     HB-    C3-   O31-   P31
 10317  10315  10318  10319      9     0.00   0.00000   0 ;     HB-    C3-   O31-   P31
 10317  10315  10318  10319      9     0.00   0.00000   0 ;     HB-    C3-   O31-   P31
 10317  10315  10318  10319      9     0.00   0.00000   0 ;     HB-    C3-   O31-   P31
 10317  10315  10318  10319      9     0.00   1.60247   3 ;     HB-    C3-   O31-   P31
 10318  10315  10313  10342      9     0.00   0.00000   0 ;    O31-    C3-    C2-   O21
 10318  10315  10313  10342      9     0.00   0.00000   0 ;    O31-    C3-    C2-   O21
 10318  10315  10313  10342      9     0.00   0.00000   0 ;    O31-    C3-    C2-   O21
 10318  10315  10313  10342      9     0.00   0.00000   0 ;    O31-    C3-    C2-   O21
 10318  10315  10313  10342      9     0.00   0.00000   0 ;    O31-    C3-    C2-   O21
 10318  10319  10320  10321      9     0.00   2.51040   3 ;    O31-   P31-   O32-   C31
 10318  10319  10320  10321      9     0.00   9.62320   2 ;    O31-   P31-   O32-   C31
 10319  10320  10321  10322      9     0.00   0.00000   0 ;    P31-   O32-   C31-   H1A
 10319  10320  10321  10322      9     0.00   0.00000   0 ;    P31-   O32-   C31-   H1A
 10319  10320  10321  10322      9     0.00   0.00000   0 ;    P31-   O32-   C31-   H1A
 10319  10320  10321  10322      9     0.00   0.00000   0 ;    P31-   O32-   C31-   H1A
 10319  10320  10321  10322      9     0.00   1.60247   3 ;    P31-   O32-   C31-   H1A
 10319  10320  10321  10323      9     0.00   0.00000   0 ;    P31-   O32-   C31-   H1B
 10319  10320  10321  10323      9     0.00   0.00000   0 ;    P31-   O32-   C31-   H1B
 10319  10320  10321  10323      9     0.00   0.00000   0 ;    P31-   O32-   C31-   H1B
 10319  10320  10321  10323      9     0.00   0.00000   0 ;    P31-   O32-   C31-   H1B
 10319  10320  10321  10323      9     0.00   1.60247   3 ;    P31-   O32-   C31-   H1B
 10319  10320  10321  10324      9     0.00   0.00000   0 ;    P31-   O32-   C31-   C32
 10319  10320  10321  10324      9   180.00  -3.34720   2 ;    P31-   O32-   C31-   C32
 10320  10321  10324  10325      9     0.00   0.65270   3 ;    O32-   C31-   C32-   H2A
 10320  10321  10324  10326      9     0.00   0.65270   3 ;    O32-   C31-   C32-   H2B
 10320  10321  10324  10327      9     0.00   4.18400   3 ;    O32-   C31-   C32-   N31
 10321  10320  10319  10340      9     0.00   0.00000   0 ;    C31-   O32-   P31-   O33
 10321  10320  10319  10340      9     0.00   0.00000   0 ;    C31-   O32-   P31-   O33
 10321  10320  10319  10340      9     0.00   0.00000   0 ;    C31-   O32-   P31-   O33
 10321  10320  10319  10340      9     0.00   0.00000   0 ;    C31-   O32-   P31-   O33
 10321  10320  10319  10340      9     0.00   0.83680   2 ;    C31-   O32-   P31-   O33
 10321  10320  10319  10341      9     0.00   0.00000   0 ;    C31-   O32-   P31-   O34
 10321  10320  10319  10341      9     0.00   0.00000   0 ;    C31-   O32-   P31-   O34
 10321  10320  10319  10341      9     0.00   0.00000   0 ;    C31-   O32-   P31-   O34
 10321  10320  10319  10341      9     0.00   0.00000   0 ;    C31-   O32-   P31-   O34
 10321  10320  10319  10341      9     0.00   0.83680   2 ;    C31-   O32-   P31-   O34
 10321  10324  10327  10328      9     0.00   0.65270   3 ;    C31-   C32-   N31-   C33
 10321  10324  10327  10332      9     0.00   0.65270   3 ;    C31-   C32-   N31-   C34
 10321  10324  10327  10336      9     0.00   0.65270   3 ;    C31-   C32-   N31-   C35
 10322  10321  10324  10325      9     0.00   0.65270   3 ;    H1A-   C31-   C32-   H2A
 10322  10321  10324  10326      9     0.00   0.65270   3 ;    H1A-   C31-   C32-   H2B
 10322  10321  10324  10327      9     0.00   0.65270   3 ;    H1A-   C31-   C32-   N31
 10323  10321  10324  10325      9     0.00   0.65270   3 ;    H1B-   C31-   C32-   H2A
 10323  10321  10324  10326      9     0.00   0.65270   3 ;    H1B-   C31-   C32-   H2B
 10323  10321  10324  10327      9     0.00   0.65270   3 ;    H1B-   C31-   C32-   N31
 10324  10327  10328  10329      9     0.00   0.65270   3 ;    C32-   N31-   C33-   H3A
 10324  10327  10328  10330      9     0.00   0.65270   3 ;    C32-   N31-   C33-   H3B
 10324  10327  10328  10331      9     0.00   0.65270   3 ;    C32-   N31-   C33-   H3C
 10324  10327  10332  10333      9     0.00   0.65270   3 ;    C32-   N31-   C34-   H4A
 10324  10327  10332  10334      9     0.00   0.65270   3 ;    C32-   N31-   C34-   H4B
 10324  10327  10332  10335      9     0.00   0.65270   3 ;    C32-   N31-   C34-   H4C
 10324  10327  10336  10337      9     0.00   0.65270   3 ;    C32-   N31-   C35-   H5A
 10324  10327  10336  10338      9     0.00   0.65270   3 ;    C32-   N31-   C35-   H5B
 10324  10327  10336  10339      9     0.00   0.65270   3 ;    C32-   N31-   C35-   H5C
 10325  10324  10327  10328      9     0.00   0.65270   3 ;    H2A-   C32-   N31-   C33
 10325  10324  10327  10332      9     0.00   0.65270   3 ;    H2A-   C32-   N31-   C34
 10325  10324  10327  10336      9     0.00   0.65270   3 ;    H2A-   C32-   N31-   C35
 10326  10324  10327  10328      9     0.00   0.65270   3 ;    H2B-   C32-   N31-   C33
 10326  10324  10327  10332      9     0.00   0.65270   3 ;    H2B-   C32-   N31-   C34
 10326  10324  10327  10336      9     0.00   0.65270   3 ;    H2B-   C32-   N31-   C35
 10328  10327  10332  10333      9     0.00   0.65270   3 ;    C33-   N31-   C34-   H4A
 10328  10327  10332  10334      9     0.00   0.65270   3 ;    C33-   N31-   C34-   H4B
 10328  10327  10332  10335      9     0.00   0.65270   3 ;    C33-   N31-   C34-   H4C
 10328  10327  10336  10337      9     0.00   0.65270   3 ;    C33-   N31-   C35-   H5A
 10328  10327  10336  10338      9     0.00   0.65270   3 ;    C33-   N31-   C35-   H5B
 10328  10327  10336  10339      9     0.00   0.65270   3 ;    C33-   N31-   C35-   H5C
 10329  10328  10327  10332      9     0.00   0.65270   3 ;    H3A-   C33-   N31-   C34
 10329  10328  10327  10336      9     0.00   0.65270   3 ;    H3A-   C33-   N31-   C35
 10330  10328  10327  10332      9     0.00   0.65270   3 ;    H3B-   C33-   N31-   C34
 10330  10328  10327  10336      9     0.00   0.65270   3 ;    H3B-   C33-   N31-   C35
 10331  10328  10327  10332      9     0.00   0.65270   3 ;    H3C-   C33-   N31-   C34
 10331  10328  10327  10336      9     0.00   0.65270   3 ;    H3C-   C33-   N31-   C35
 10332  10327  10336  10337      9     0.00   0.65270   3 ;    C34-   N31-   C35-   H5A
 10332  10327  10336  10338      9     0.00   0.65270   3 ;    C34-   N31-   C35-   H5B
 10332  10327  10336  10339      9     0.00   0.65270   3 ;    C34-   N31-   C35-   H5C
 10333  10332  10327  10336      9     0.00   0.65270   3 ;    H4A-   C34-   N31-   C35
 10334  10332  10327  10336      9     0.00   0.65270   3 ;    H4B-   C34-   N31-   C35
 10335  10332  10327  10336      9     0.00   0.65270   3 ;    H4C-   C34-   N31-   C35
 10342  10343  10382  10379      9   180.00   0.00000   2 ;    O21-   C21-   C12-   C13
 10342  10343  10382  10383      9   180.00   0.00000   2 ;    O21-   C21-   C12-   H2R
 10342  10343  10382  10384      9   180.00   0.00000   2 ;    O21-   C21-   C12-   H2S
 10343  10382  10379  10376      9     0.00   0.65270   3 ;    C21-   C12-   C13-   C14
 10343  10382  10379  10380      9     0.00   0.65270   3 ;    C21-   C12-   C13-   H3R
 10343  10382  10379  10381      9     0.00   0.65270   3 ;    C21-   C12-   C13-   H3S
 10344  10343  10382  10379      9   180.00   0.00000   2 ;    O22-   C21-   C12-   C13
 10344  10343  10382  10383      9     0.00   3.34720   1 ;    O22-   C21-   C12-   H2R
 10344  10343  10382  10383      9   180.00   0.33472   3 ;    O22-   C21-   C12-   H2R
 10344  10343  10382  10384      9     0.00   3.34720   1 ;    O22-   C21-   C12-   H2S
 10344  10343  10382  10384      9   180.00   0.33472   3 ;    O22-   C21-   C12-   H2S
 10345  10346  10349  10350      9     0.00   0.62760   3 ;   H14T-  C114-  C113-  H13R
 10345  10346  10349  10351      9     0.00   0.62760   3 ;   H14T-  C114-  C113-  H13S
 10345  10346  10349  10352      9     0.00   0.66944   3 ;   H14T-  C114-  C113-  C112
 10346  10349  10352  10353      9     0.00   0.66944   3 ;   C114-  C113-  C112-  H12R
 10346  10349  10352  10354      9     0.00   0.66944   3 ;   C114-  C113-  C112-  H12S
 10346  10349  10352  10355      9     0.00   0.41840   1 ;   C114-  C113-  C112-  C111
 10346  10349  10352  10355      9     0.00   0.41840   2 ;   C114-  C113-  C112-  C111
 10346  10349  10352  10355      9     0.00   0.41840   4 ;   C114-  C113-  C112-  C111
 10346  10349  10352  10355      9     0.00   0.41840   5 ;   C114-  C113-  C112-  C111
 10346  10349  10352  10355      9     0.00   1.25520   3 ;   C114-  C113-  C112-  C111
 10347  10346  10349  10350      9     0.00   0.62760   3 ;   H14R-  C114-  C113-  H13R
 10347  10346  10349  10351      9     0.00   0.62760   3 ;   H14R-  C114-  C113-  H13S
 10347  10346  10349  10352      9     0.00   0.66944   3 ;   H14R-  C114-  C113-  C112
 10348  10346  10349  10350      9     0.00   0.62760   3 ;   H14S-  C114-  C113-  H13R
 10348  10346  10349  10351      9     0.00   0.62760   3 ;   H14S-  C114-  C113-  H13S
 10348  10346  10349  10352      9     0.00   0.66944   3 ;   H14S-  C114-  C113-  C112
 10349  10352  10355  10356      9     0.00   0.66944   3 ;   C113-  C112-  C111-  H11R
 10349  10352  10355  10357      9     0.00   0.66944   3 ;   C113-  C112-  C111-  H11S
 10349  10352  10355  10358      9     0.00   0.41840   1 ;   C113-  C112-  C111-  C110
 10349  10352  10355  10358      9     0.00   0.41840   2 ;   C113-  C112-  C111-  C110
 10349  10352  10355  10358      9     0.00   0.41840   4 ;   C113-  C112-  C111-  C110
 10349  10352  10355  10358      9     0.00   0.41840   5 ;   C113-  C112-  C111-  C110
 10349  10352  10355  10358      9     0.00   1.25520   3 ;   C113-  C112-  C111-  C110
 10350  10349  10352  10353      9     0.00   0.62760   3 ;   H13R-  C113-  C112-  H12R
 10350  10349  10352  10354      9     0.00   0.62760   3 ;   H13R-  C113-  C112-  H12S
 10350  10349  10352  10355      9     0.00   0.66944   3 ;   H13R-  C113-  C112-  C111
 10351  10349  10352  10353      9     0.00   0.62760   3 ;   H13S-  C113-  C112-  H12R
 10351  10349  10352  10354      9     0.00   0.62760   3 ;   H13S-  C113-  C112-  H12S
 10351  10349  10352  10355      9     0.00   0.66944   3 ;   H13S-  C113-  C112-  C111
 10352  10355  10358  10359      9     0.00   0.66944   3 ;   C112-  C111-  C110-  H10R
 10352  10355  10358  10360      9     0.00   0.66944   3 ;   C112-  C111-  C110-  H10S
 10352  10355  10358  10361      9     0.00   0.41840   1 ;   C112-  C111-  C110-   C19
 10352  10355  10358  10361      9     0.00   0.41840   2 ;   C112-  C111-  C110-   C19
 10352  10355  10358  10361      9     0.00   0.41840   4 ;   C112-  C111-  C110-   C19
 10352  10355  10358  10361      9     0.00   0.41840   5 ;   C112-  C111-  C110-   C19
 10352  10355  10358  10361      9     0.00   1.25520   3 ;   C112-  C111-  C110-   C19
 10353  10352  10355  10356      9     0.00   0.62760   3 ;   H12R-  C112-  C111-  H11R
 10353  10352  10355  10357      9     0.00   0.62760   3 ;   H12R-  C112-  C111-  H11S
 10353  10352  10355  10358      9     0.00   0.66944   3 ;   H12R-  C112-  C111-  C110
 10354  10352  10355  10356      9     0.00   0.62760   3 ;   H12S-  C112-  C111-  H11R
 10354  10352  10355  10357      9     0.00   0.62760   3 ;   H12S-  C112-  C111-  H11S
 10354  10352  10355  10358      9     0.00   0.66944   3 ;   H12S-  C112-  C111-  C110
 10355  10358  10361  10362      9     0.00   0.66944   3 ;   C111-  C110-   C19-   H9R
 10355  10358  10361  10363      9     0.00   0.66944   3 ;   C111-  C110-   C19-   H9S
 10355  10358  10361  10364      9     0.00   0.41840   1 ;   C111-  C110-   C19-   C18
 10355  10358  10361  10364      9     0.00   0.41840   2 ;   C111-  C110-   C19-   C18
 10355  10358  10361  10364      9     0.00   0.41840   4 ;   C111-  C110-   C19-   C18
 10355  10358  10361  10364      9     0.00   0.41840   5 ;   C111-  C110-   C19-   C18
 10355  10358  10361  10364      9     0.00   1.25520   3 ;   C111-  C110-   C19-   C18
 10356  10355  10358  10359      9     0.00   0.62760   3 ;   H11R-  C111-  C110-  H10R
 10356  10355  10358  10360      9     0.00   0.62760   3 ;   H11R-  C111-  C110-  H10S
 10356  10355  10358  10361      9     0.00   0.66944   3 ;   H11R-  C111-  C110-   C19
 10357  10355  10358  10359      9     0.00   0.62760   3 ;   H11S-  C111-  C110-  H10R
 10357  10355  10358  10360      9     0.00   0.62760   3 ;   H11S-  C111-  C110-  H10S
 10357  10355  10358  10361      9     0.00   0.66944   3 ;   H11S-  C111-  C110-   C19
 10358  10361  10364  10365      9     0.00   0.66944   3 ;   C110-   C19-   C18-   H8R
 10358  10361  10364  10366      9     0.00   0.66944   3 ;   C110-   C19-   C18-   H8S
 10358  10361  10364  10367      9     0.00   0.41840   1 ;   C110-   C19-   C18-   C17
 10358  10361  10364  10367      9     0.00   0.41840   2 ;   C110-   C19-   C18-   C17
 10358  10361  10364  10367      9     0.00   0.41840   4 ;   C110-   C19-   C18-   C17
 10358  10361  10364  10367      9     0.00   0.41840   5 ;   C110-   C19-   C18-   C17
 10358  10361  10364  10367      9     0.00   1.25520   3 ;   C110-   C19-   C18-   C17
 10359  10358  10361  10362      9     0.00   0.62760   3 ;   H10R-  C110-   C19-   H9R
 10359  10358  10361  10363      9     0.00   0.62760   3 ;   H10R-  C110-   C19-   H9S
 10359  10358  10361  10364      9     0.00   0.66944   3 ;   H10R-  C110-   C19-   C18
 10360  10358  10361  10362      9     0.00   0.62760   3 ;   H10S-  C110-   C19-   H9R
 10360  10358  10361  10363      9     0.00   0.62760   3 ;   H10S-  C110-   C19-   H9S
 10360  10358  10361  10364      9     0.00   0.66944   3 ;   H10S-  C110-   C19-   C18
 10361  10364  10367  10368      9     0.00   0.66944   3 ;    C19-   C18-   C17-   H7R
 10361  10364  10367  10369      9     0.00   0.66944   3 ;    C19-   C18-   C17-   H7S
 10361  10364  10367  10370      9     0.00   0.41840   1 ;    C19-   C18-   C17-   C16
 10361  10364  10367  10370      9     0.00   0.41840   2 ;    C19-   C18-   C17-   C16
 10361  10364  10367  10370      9     0.00   0.41840   4 ;    C19-   C18-   C17-   C16
 10361  10364  10367  10370      9     0.00   0.41840   5 ;    C19-   C18-   C17-   C16
 10361  10364  10367  10370      9     0.00   1.25520   3 ;    C19-   C18-   C17-   C16
 10362  10361  10364  10365      9     0.00   0.62760   3 ;    H9R-   C19-   C18-   H8R
 10362  10361  10364  10366      9     0.00   0.62760   3 ;    H9R-   C19-   C18-   H8S
 10362  10361  10364  10367      9     0.00   0.66944   3 ;    H9R-   C19-   C18-   C17
 10363  10361  10364  10365      9     0.00   0.62760   3 ;    H9S-   C19-   C18-   H8R
 10363  10361  10364  10366      9     0.00   0.62760   3 ;    H9S-   C19-   C18-   H8S
 10363  10361  10364  10367      9     0.00   0.66944   3 ;    H9S-   C19-   C18-   C17
 10364  10367  10370  10371      9     0.00   0.66944   3 ;    C18-   C17-   C16-   H6R
 10364  10367  10370  10372      9     0.00   0.66944   3 ;    C18-   C17-   C16-   H6S
 10364  10367  10370  10373      9     0.00   0.41840   1 ;    C18-   C17-   C16-   C15
 10364  10367  10370  10373      9     0.00   0.41840   2 ;    C18-   C17-   C16-   C15
 10364  10367  10370  10373      9     0.00   0.41840   4 ;    C18-   C17-   C16-   C15
 10364  10367  10370  10373      9     0.00   0.41840   5 ;    C18-   C17-   C16-   C15
 10364  10367  10370  10373      9     0.00   1.25520   3 ;    C18-   C17-   C16-   C15
 10365  10364  10367  10368      9     0.00   0.62760   3 ;    H8R-   C18-   C17-   H7R
 10365  10364  10367  10369      9     0.00   0.62760   3 ;    H8R-   C18-   C17-   H7S
 10365  10364  10367  10370      9     0.00   0.66944   3 ;    H8R-   C18-   C17-   C16
 10366  10364  10367  10368      9     0.00   0.62760   3 ;    H8S-   C18-   C17-   H7R
 10366  10364  10367  10369      9     0.00   0.62760   3 ;    H8S-   C18-   C17-   H7S
 10366  10364  10367  10370      9     0.00   0.66944   3 ;    H8S-   C18-   C17-   C16
 10367  10370  10373  10374      9     0.00   0.66944   3 ;    C17-   C16-   C15-   H5R
 10367  10370  10373  10375      9     0.00   0.66944   3 ;    C17-   C16-   C15-   H5S
 10367  10370  10373  10376      9     0.00   0.41840   1 ;    C17-   C16-   C15-   C14
 10367  10370  10373  10376      9     0.00   0.41840   2 ;    C17-   C16-   C15-   C14
 10367  10370  10373  10376      9     0.00   0.41840   4 ;    C17-   C16-   C15-   C14
 10367  10370  10373  10376      9     0.00   0.41840   5 ;    C17-   C16-   C15-   C14
 10367  10370  10373  10376      9     0.00   1.25520   3 ;    C17-   C16-   C15-   C14
 10368  10367  10370  10371      9     0.00   0.62760   3 ;    H7R-   C17-   C16-   H6R
 10368  10367  10370  10372      9     0.00   0.62760   3 ;    H7R-   C17-   C16-   H6S
 10368  10367  10370  10373      9     0.00   0.66944   3 ;    H7R-   C17-   C16-   C15
 10369  10367  10370  10371      9     0.00   0.62760   3 ;    H7S-   C17-   C16-   H6R
 10369  10367  10370  10372      9     0.00   0.62760   3 ;    H7S-   C17-   C16-   H6S
 10369  10367  10370  10373      9     0.00   0.66944   3 ;    H7S-   C17-   C16-   C15
 10370  10373  10376  10377      9     0.00   0.66944   3 ;    C16-   C15-   C14-   H4R
 10370  10373  10376  10378      9     0.00   0.66944   3 ;    C16-   C15-   C14-   H4S
 10370  10373  10376  10379      9     0.00   0.41840   1 ;    C16-   C15-   C14-   C13
 10370  10373  10376  10379      9     0.00   0.41840   2 ;    C16-   C15-   C14-   C13
 10370  10373  10376  10379      9     0.00   0.41840   4 ;    C16-   C15-   C14-   C13
 10370  10373  10376  10379      9     0.00   0.41840   5 ;    C16-   C15-   C14-   C13
 10370  10373  10376  10379      9     0.00   1.25520   3 ;    C16-   C15-   C14-   C13
 10371  10370  10373  10374      9     0.00   0.62760   3 ;    H6R-   C16-   C15-   H5R
 10371  10370  10373  10375      9     0.00   0.62760   3 ;    H6R-   C16-   C15-   H5S
 10371  10370  10373  10376      9     0.00   0.66944   3 ;    H6R-   C16-   C15-   C14
 10372  10370  10373  10374      9     0.00   0.62760   3 ;    H6S-   C16-   C15-   H5R
 10372  10370  10373  10375      9     0.00   0.62760   3 ;    H6S-   C16-   C15-   H5S
 10372  10370  10373  10376      9     0.00   0.66944   3 ;    H6S-   C16-   C15-   C14
 10373  10376  10379  10380      9     0.00   0.66944   3 ;    C15-   C14-   C13-   H3R
 10373  10376  10379  10381      9     0.00   0.66944   3 ;    C15-   C14-   C13-   H3S
 10373  10376  10379  10382      9     0.00   0.41840   1 ;    C15-   C14-   C13-   C12
 10373  10376  10379  10382      9     0.00   0.41840   2 ;    C15-   C14-   C13-   C12
 10373  10376  10379  10382      9     0.00   0.41840   4 ;    C15-   C14-   C13-   C12
 10373  10376  10379  10382      9     0.00   0.41840   5 ;    C15-   C14-   C13-   C12
 10373  10376  10379  10382      9     0.00   1.25520   3 ;    C15-   C14-   C13-   C12
 10374  10373  10376  10377      9     0.00   0.62760   3 ;    H5R-   C15-   C14-   H4R
 10374  10373  10376  10378      9     0.00   0.62760   3 ;    H5R-   C15-   C14-   H4S
 10374  10373  10376  10379      9     0.00   0.66944   3 ;    H5R-   C15-   C14-   C13
 10375  10373  10376  10377      9     0.00   0.62760   3 ;    H5S-   C15-   C14-   H4R
 10375  10373  10376  10378      9     0.00   0.62760   3 ;    H5S-   C15-   C14-   H4S
 10375  10373  10376  10379      9     0.00   0.66944   3 ;    H5S-   C15-   C14-   C13
 10376  10379  10382  10383      9     0.00   0.66944   3 ;    C14-   C13-   C12-   H2R
 10376  10379  10382  10384      9     0.00   0.66944   3 ;    C14-   C13-   C12-   H2S
 10377  10376  10379  10380      9     0.00   0.62760   3 ;    H4R-   C14-   C13-   H3R
 10377  10376  10379  10381      9     0.00   0.62760   3 ;    H4R-   C14-   C13-   H3S
 10377  10376  10379  10382      9     0.00   0.66944   3 ;    H4R-   C14-   C13-   C12
 10378  10376  10379  10380      9     0.00   0.62760   3 ;    H4S-   C14-   C13-   H3R
 10378  10376  10379  10381      9     0.00   0.62760   3 ;    H4S-   C14-   C13-   H3S
 10378  10376  10379  10382      9     0.00   0.66944   3 ;    H4S-   C14-   C13-   C12
 10380  10379  10382  10383      9     0.00   0.62760   3 ;    H3R-   C13-   C12-   H2R
 10380  10379  10382  10384      9     0.00   0.62760   3 ;    H3R-   C13-   C12-   H2S
 10381  10379  10382  10383      9     0.00   0.62760   3 ;    H3S-   C13-   C12-   H2R
 10381  10379  10382  10384      9     0.00   0.62760   3 ;    H3S-   C13-   C12-   H2S
 10385  10386  10389  10390      9     0.00   0.62760   3 ;   H14T-  C114-  C113-  H13R
 10385  10386  10389  10391      9     0.00   0.62760   3 ;   H14T-  C114-  C113-  H13S
 10385  10386  10389  10392      9     0.00   0.66944   3 ;   H14T-  C114-  C113-  C112
 10386  10389  10392  10393      9     0.00   0.66944   3 ;   C114-  C113-  C112-  H12R
 10386  10389  10392  10394      9     0.00   0.66944   3 ;   C114-  C113-  C112-  H12S
 10386  10389  10392  10395      9     0.00   0.41840   1 ;   C114-  C113-  C112-  C111
 10386  10389  10392  10395      9     0.00   0.41840   2 ;   C114-  C113-  C112-  C111
 10386  10389  10392  10395      9     0.00   0.41840   4 ;   C114-  C113-  C112-  C111
 10386  10389  10392  10395      9     0.00   0.41840   5 ;   C114-  C113-  C112-  C111
 10386  10389  10392  10395      9     0.00   1.25520   3 ;   C114-  C113-  C112-  C111
 10387  10386  10389  10390      9     0.00   0.62760   3 ;   H14R-  C114-  C113-  H13R
 10387  10386  10389  10391      9     0.00   0.62760   3 ;   H14R-  C114-  C113-  H13S
 10387  10386  10389  10392      9     0.00   0.66944   3 ;   H14R-  C114-  C113-  C112
 10388  10386  10389  10390      9     0.00   0.62760   3 ;   H14S-  C114-  C113-  H13R
 10388  10386  10389  10391      9     0.00   0.62760   3 ;   H14S-  C114-  C113-  H13S
 10388  10386  10389  10392      9     0.00   0.66944   3 ;   H14S-  C114-  C113-  C112
 10389  10392  10395  10396      9     0.00   0.66944   3 ;   C113-  C112-  C111-  H11R
 10389  10392  10395  10397      9     0.00   0.66944   3 ;   C113-  C112-  C111-  H11S
 10389  10392  10395  10398      9     0.00   0.41840   1 ;   C113-  C112-  C111-  C110
 10389  10392  10395  10398      9     0.00   0.41840   2 ;   C113-  C112-  C111-  C110
 10389  10392  10395  10398      9     0.00   0.41840   4 ;   C113-  C112-  C111-  C110
 10389  10392  10395  10398      9     0.00   0.41840   5 ;   C113-  C112-  C111-  C110
 10389  10392  10395  10398      9     0.00   1.25520   3 ;   C113-  C112-  C111-  C110
 10390  10389  10392  10393      9     0.00   0.62760   3 ;   H13R-  C113-  C112-  H12R
 10390  10389  10392  10394      9     0.00   0.62760   3 ;   H13R-  C113-  C112-  H12S
 10390  10389  10392  10395      9     0.00   0.66944   3 ;   H13R-  C113-  C112-  C111
 10391  10389  10392  10393      9     0.00   0.62760   3 ;   H13S-  C113-  C112-  H12R
 10391  10389  10392  10394      9     0.00   0.62760   3 ;   H13S-  C113-  C112-  H12S
 10391  10389  10392  10395      9     0.00   0.66944   3 ;   H13S-  C113-  C112-  C111
 10392  10395  10398  10399      9     0.00   0.66944   3 ;   C112-  C111-  C110-  H10R
 10392  10395  10398  10400      9     0.00   0.66944   3 ;   C112-  C111-  C110-  H10S
 10392  10395  10398  10401      9     0.00   0.41840   1 ;   C112-  C111-  C110-   C19
 10392  10395  10398  10401      9     0.00   0.41840   2 ;   C112-  C111-  C110-   C19
 10392  10395  10398  10401      9     0.00   0.41840   4 ;   C112-  C111-  C110-   C19
 10392  10395  10398  10401      9     0.00   0.41840   5 ;   C112-  C111-  C110-   C19
 10392  10395  10398  10401      9     0.00   1.25520   3 ;   C112-  C111-  C110-   C19
 10393  10392  10395  10396      9     0.00   0.62760   3 ;   H12R-  C112-  C111-  H11R
 10393  10392  10395  10397      9     0.00   0.62760   3 ;   H12R-  C112-  C111-  H11S
 10393  10392  10395  10398      9     0.00   0.66944   3 ;   H12R-  C112-  C111-  C110
 10394  10392  10395  10396      9     0.00   0.62760   3 ;   H12S-  C112-  C111-  H11R
 10394  10392  10395  10397      9     0.00   0.62760   3 ;   H12S-  C112-  C111-  H11S
 10394  10392  10395  10398      9     0.00   0.66944   3 ;   H12S-  C112-  C111-  C110
 10395  10398  10401  10402      9     0.00   0.66944   3 ;   C111-  C110-   C19-   H9R
 10395  10398  10401  10403      9     0.00   0.66944   3 ;   C111-  C110-   C19-   H9S
 10395  10398  10401  10404      9     0.00   0.41840   1 ;   C111-  C110-   C19-   C18
 10395  10398  10401  10404      9     0.00   0.41840   2 ;   C111-  C110-   C19-   C18
 10395  10398  10401  10404      9     0.00   0.41840   4 ;   C111-  C110-   C19-   C18
 10395  10398  10401  10404      9     0.00   0.41840   5 ;   C111-  C110-   C19-   C18
 10395  10398  10401  10404      9     0.00   1.25520   3 ;   C111-  C110-   C19-   C18
 10396  10395  10398  10399      9     0.00   0.62760   3 ;   H11R-  C111-  C110-  H10R
 10396  10395  10398  10400      9     0.00   0.62760   3 ;   H11R-  C111-  C110-  H10S
 10396  10395  10398  10401      9     0.00   0.66944   3 ;   H11R-  C111-  C110-   C19
 10397  10395  10398  10399      9     0.00   0.62760   3 ;   H11S-  C111-  C110-  H10R
 10397  10395  10398  10400      9     0.00   0.62760   3 ;   H11S-  C111-  C110-  H10S
 10397  10395  10398  10401      9     0.00   0.66944   3 ;   H11S-  C111-  C110-   C19
 10398  10401  10404  10405      9     0.00   0.66944   3 ;   C110-   C19-   C18-   H8R
 10398  10401  10404  10406      9     0.00   0.66944   3 ;   C110-   C19-   C18-   H8S
 10398  10401  10404  10407      9     0.00   0.41840   1 ;   C110-   C19-   C18-   C17
 10398  10401  10404  10407      9     0.00   0.41840   2 ;   C110-   C19-   C18-   C17
 10398  10401  10404  10407      9     0.00   0.41840   4 ;   C110-   C19-   C18-   C17
 10398  10401  10404  10407      9     0.00   0.41840   5 ;   C110-   C19-   C18-   C17
 10398  10401  10404  10407      9     0.00   1.25520   3 ;   C110-   C19-   C18-   C17
 10399  10398  10401  10402      9     0.00   0.62760   3 ;   H10R-  C110-   C19-   H9R
 10399  10398  10401  10403      9     0.00   0.62760   3 ;   H10R-  C110-   C19-   H9S
 10399  10398  10401  10404      9     0.00   0.66944   3 ;   H10R-  C110-   C19-   C18
 10400  10398  10401  10402      9     0.00   0.62760   3 ;   H10S-  C110-   C19-   H9R
 10400  10398  10401  10403      9     0.00   0.62760   3 ;   H10S-  C110-   C19-   H9S
 10400  10398  10401  10404      9     0.00   0.66944   3 ;   H10S-  C110-   C19-   C18
 10401  10404  10407  10408      9     0.00   0.66944   3 ;    C19-   C18-   C17-   H7R
 10401  10404  10407  10409      9     0.00   0.66944   3 ;    C19-   C18-   C17-   H7S
 10401  10404  10407  10410      9     0.00   0.41840   1 ;    C19-   C18-   C17-   C16
 10401  10404  10407  10410      9     0.00   0.41840   2 ;    C19-   C18-   C17-   C16
 10401  10404  10407  10410      9     0.00   0.41840   4 ;    C19-   C18-   C17-   C16
 10401  10404  10407  10410      9     0.00   0.41840   5 ;    C19-   C18-   C17-   C16
 10401  10404  10407  10410      9     0.00   1.25520   3 ;    C19-   C18-   C17-   C16
 10402  10401  10404  10405      9     0.00   0.62760   3 ;    H9R-   C19-   C18-   H8R
 10402  10401  10404  10406      9     0.00   0.62760   3 ;    H9R-   C19-   C18-   H8S
 10402  10401  10404  10407      9     0.00   0.66944   3 ;    H9R-   C19-   C18-   C17
 10403  10401  10404  10405      9     0.00   0.62760   3 ;    H9S-   C19-   C18-   H8R
 10403  10401  10404  10406      9     0.00   0.62760   3 ;    H9S-   C19-   C18-   H8S
 10403  10401  10404  10407      9     0.00   0.66944   3 ;    H9S-   C19-   C18-   C17
 10404  10407  10410  10411      9     0.00   0.66944   3 ;    C18-   C17-   C16-   H6R
 10404  10407  10410  10412      9     0.00   0.66944   3 ;    C18-   C17-   C16-   H6S
 10404  10407  10410  10413      9     0.00   0.41840   1 ;    C18-   C17-   C16-   C15
 10404  10407  10410  10413      9     0.00   0.41840   2 ;    C18-   C17-   C16-   C15
 10404  10407  10410  10413      9     0.00   0.41840   4 ;    C18-   C17-   C16-   C15
 10404  10407  10410  10413      9     0.00   0.41840   5 ;    C18-   C17-   C16-   C15
 10404  10407  10410  10413      9     0.00   1.25520   3 ;    C18-   C17-   C16-   C15
 10405  10404  10407  10408      9     0.00   0.62760   3 ;    H8R-   C18-   C17-   H7R
 10405  10404  10407  10409      9     0.00   0.62760   3 ;    H8R-   C18-   C17-   H7S
 10405  10404  10407  10410      9     0.00   0.66944   3 ;    H8R-   C18-   C17-   C16
 10406  10404  10407  10408      9     0.00   0.62760   3 ;    H8S-   C18-   C17-   H7R
 10406  10404  10407  10409      9     0.00   0.62760   3 ;    H8S-   C18-   C17-   H7S
 10406  10404  10407  10410      9     0.00   0.66944   3 ;    H8S-   C18-   C17-   C16
 10407  10410  10413  10414      9     0.00   0.66944   3 ;    C17-   C16-   C15-   H5R
 10407  10410  10413  10415      9     0.00   0.66944   3 ;    C17-   C16-   C15-   H5S
 10407  10410  10413  10416      9     0.00   0.41840   1 ;    C17-   C16-   C15-   C14
 10407  10410  10413  10416      9     0.00   0.41840   2 ;    C17-   C16-   C15-   C14
 10407  10410  10413  10416      9     0.00   0.41840   4 ;    C17-   C16-   C15-   C14
 10407  10410  10413  10416      9     0.00   0.41840   5 ;    C17-   C16-   C15-   C14
 10407  10410  10413  10416      9     0.00   1.25520   3 ;    C17-   C16-   C15-   C14
 10408  10407  10410  10411      9     0.00   0.62760   3 ;    H7R-   C17-   C16-   H6R
 10408  10407  10410  10412      9     0.00   0.62760   3 ;    H7R-   C17-   C16-   H6S
 10408  10407  10410  10413      9     0.00   0.66944   3 ;    H7R-   C17-   C16-   C15
 10409  10407  10410  10411      9     0.00   0.62760   3 ;    H7S-   C17-   C16-   H6R
 10409  10407  10410  10412      9     0.00   0.62760   3 ;    H7S-   C17-   C16-   H6S
 10409  10407  10410  10413      9     0.00   0.66944   3 ;    H7S-   C17-   C16-   C15
 10410  10413  10416  10417      9     0.00   0.66944   3 ;    C16-   C15-   C14-   H4R
 10410  10413  10416  10418      9     0.00   0.66944   3 ;    C16-   C15-   C14-   H4S
 10410  10413  10416  10419      9     0.00   0.41840   1 ;    C16-   C15-   C14-   C13
 10410  10413  10416  10419      9     0.00   0.41840   2 ;    C16-   C15-   C14-   C13
 10410  10413  10416  10419      9     0.00   0.41840   4 ;    C16-   C15-   C14-   C13
 10410  10413  10416  10419      9     0.00   0.41840   5 ;    C16-   C15-   C14-   C13
 10410  10413  10416  10419      9     0.00   1.25520   3 ;    C16-   C15-   C14-   C13
 10411  10410  10413  10414      9     0.00   0.62760   3 ;    H6R-   C16-   C15-   H5R
 10411  10410  10413  10415      9     0.00   0.62760   3 ;    H6R-   C16-   C15-   H5S
 10411  10410  10413  10416      9     0.00   0.66944   3 ;    H6R-   C16-   C15-   C14
 10412  10410  10413  10414      9     0.00   0.62760   3 ;    H6S-   C16-   C15-   H5R
 10412  10410  10413  10415      9     0.00   0.62760   3 ;    H6S-   C16-   C15-   H5S
 10412  10410  10413  10416      9     0.00   0.66944   3 ;    H6S-   C16-   C15-   C14
 10413  10416  10419  10420      9     0.00   0.66944   3 ;    C15-   C14-   C13-   H3R
 10413  10416  10419  10421      9     0.00   0.66944   3 ;    C15-   C14-   C13-   H3S
 10413  10416  10419  10422      9     0.00   0.41840   1 ;    C15-   C14-   C13-   C12
 10413  10416  10419  10422      9     0.00   0.41840   2 ;    C15-   C14-   C13-   C12
 10413  10416  10419  10422      9     0.00   0.41840   4 ;    C15-   C14-   C13-   C12
 10413  10416  10419  10422      9     0.00   0.41840   5 ;    C15-   C14-   C13-   C12
 10413  10416  10419  10422      9     0.00   1.25520   3 ;    C15-   C14-   C13-   C12
 10414  10413  10416  10417      9     0.00   0.62760   3 ;    H5R-   C15-   C14-   H4R
 10414  10413  10416  10418      9     0.00   0.62760   3 ;    H5R-   C15-   C14-   H4S
 10414  10413  10416  10419      9     0.00   0.66944   3 ;    H5R-   C15-   C14-   C13
 10415  10413  10416  10417      9     0.00   0.62760   3 ;    H5S-   C15-   C14-   H4R
 10415  10413  10416  10418      9     0.00   0.62760   3 ;    H5S-   C15-   C14-   H4S
 10415  10413  10416  10419      9     0.00   0.66944   3 ;    H5S-   C15-   C14-   C13
 10416  10419  10422  10423      9     0.00   0.66944   3 ;    C14-   C13-   C12-   H2R
 10416  10419  10422  10424      9     0.00   0.66944   3 ;    C14-   C13-   C12-   H2S
 10416  10419  10422  10425      9     0.00   0.65270   3 ;    C14-   C13-   C12-   C11
 10417  10416  10419  10420      9     0.00   0.62760   3 ;    H4R-   C14-   C13-   H3R
 10417  10416  10419  10421      9     0.00   0.62760   3 ;    H4R-   C14-   C13-   H3S
 10417  10416  10419  10422      9     0.00   0.66944   3 ;    H4R-   C14-   C13-   C12
 10418  10416  10419  10420      9     0.00   0.62760   3 ;    H4S-   C14-   C13-   H3R
 10418  10416  10419  10421      9     0.00   0.62760   3 ;    H4S-   C14-   C13-   H3S
 10418  10416  10419  10422      9     0.00   0.66944   3 ;    H4S-   C14-   C13-   C12
 10419  10422  10425  10426      9   180.00   0.00000   2 ;    C13-   C12-   C11-   O12
 10419  10422  10425  10427      9   180.00   0.00000   2 ;    C13-   C12-   C11-   O11
 10420  10419  10422  10423      9     0.00   0.62760   3 ;    H3R-   C13-   C12-   H2R
 10420  10419  10422  10424      9     0.00   0.62760   3 ;    H3R-   C13-   C12-   H2S
 10420  10419  10422  10425      9     0.00   0.65270   3 ;    H3R-   C13-   C12-   C11
 10421  10419  10422  10423      9     0.00   0.62760   3 ;    H3S-   C13-   C12-   H2R
 10421  10419  10422  10424      9     0.00   0.62760   3 ;    H3S-   C13-   C12-   H2S
 10421  10419  10422  10425      9     0.00   0.65270   3 ;    H3S-   C13-   C12-   C11
 10422  10425  10427  10428      9   180.00  11.29680   2 ;    C12-   C11-   O11-    C1
 10423  10422  10425  10426      9     0.00   3.34720   1 ;    H2R-   C12-   C11-   O12
 10423  10422  10425  10426      9   180.00   0.33472   3 ;    H2R-   C12-   C11-   O12
 10423  10422  10425  10427      9   180.00   0.00000   2 ;    H2R-   C12-   C11-   O11
 10424  10422  10425  10426      9     0.00   3.34720   1 ;    H2S-   C12-   C11-   O12
 10424  10422  10425  10426      9   180.00   0.33472   3 ;    H2S-   C12-   C11-   O12
 10424  10422  10425  10427      9   180.00   0.00000   2 ;    H2S-   C12-   C11-   O11
 10425  10427  10428  10429      9     0.00   1.60247   3 ;    C11-   O11-    C1-    HR
 10425  10427  10428  10430      9     0.00   1.60247   3 ;    C11-   O11-    C1-    HS
 10425  10427  10428  10431      9     0.00  -0.41840   1 ;    C11-   O11-    C1-    C2
 10426  10425  10427  10428      9   180.00   5.85760   1 ;    O12-   C11-   O11-    C1
 10426  10425  10427  10428      9   180.00  11.29680   2 ;    O12-   C11-   O11-    C1
 10427  10428  10431  10432      9     0.00   0.00000   0 ;    O11-    C1-    C2-    HX
 10427  10428  10431  10432      9     0.00   1.04600   1 ;    O11-    C1-    C2-    HX
 10427  10428  10431  10433      9     0.00   0.00000   0 ;    O11-    C1-    C2-    C3
 10427  10428  10431  10433      9     0.00   0.00000   0 ;    O11-    C1-    C2-    C3
 10427  10428  10431  10433      9     0.00   0.00000   0 ;    O11-    C1-    C2-    C3
 10427  10428  10431  10433      9     0.00   0.00000   0 ;    O11-    C1-    C2-    C3
 10427  10428  10431  10433      9     0.00   0.00000   0 ;    O11-    C1-    C2-    C3
 10427  10428  10431  10460      9     0.00   1.25520   2 ;    O11-    C1-    C2-   O21
 10427  10428  10431  10460      9     0.00   4.18400   3 ;    O11-    C1-    C2-   O21
 10427  10428  10431  10460      9   180.00  -0.41840   1 ;    O11-    C1-    C2-   O21
 10428  10431  10433  10434      9     0.00   0.65270   3 ;     C1-    C2-    C3-    HA
 10428  10431  10433  10435      9     0.00   0.65270   3 ;     C1-    C2-    C3-    HB
 10428  10431  10433  10436      9   180.00   3.34720   1 ;     C1-    C2-    C3-   O31
 10428  10431  10460  10461      9     0.00  -0.41840   1 ;     C1-    C2-   O21-   C21
 10429  10428  10431  10432      9     0.00   0.65270   3 ;     HR-    C1-    C2-    HX
 10429  10428  10431  10433      9     0.00   0.65270   3 ;     HR-    C1-    C2-    C3
 10429  10428  10431  10460      9     0.00   0.00000   0 ;     HR-    C1-    C2-   O21
 10429  10428  10431  10460      9     0.00   1.04600   1 ;     HR-    C1-    C2-   O21
 10430  10428  10431  10432      9     0.00   0.65270   3 ;     HS-    C1-    C2-    HX
 10430  10428  10431  10433      9     0.00   0.65270   3 ;     HS-    C1-    C2-    C3
 10430  10428  10431  10460      9     0.00   0.00000   0 ;     HS-    C1-    C2-   O21
 10430  10428  10431  10460      9     0.00   1.04600   1 ;     HS-    C1-    C2-   O21
 10431  10433  10436  10437      9     0.00   0.00000   0 ;     C2-    C3-   O31-   P31
 10431  10433  10436  10437      9   180.00  -3.34720   2 ;     C2-    C3-   O31-   P31
 10431  10460  10461  10462      9   180.00   5.85760   1 ;     C2-   O21-   C21-   O22
 10431  10460  10461  10462      9   180.00  11.29680   2 ;     C2-   O21-   C21-   O22
 10431  10460  10461  10500      9   180.00  11.29680   2 ;     C2-   O21-   C21-   C12
 10432  10431  10433  10434      9     0.00   0.65270   3 ;     HX-    C2-    C3-    HA
 10432  10431  10433  10435      9     0.00   0.65270   3 ;     HX-    C2-    C3-    HB
 10432  10431  10433  10436      9     0.00   0.00000   0 ;     HX-    C2-    C3-   O31
 10432  10431  10433  10436      9     0.00   1.04600   1 ;     HX-    C2-    C3-   O31
 10432  10431  10460  10461      9     0.00   1.60247   3 ;     HX-    C2-   O21-   C21
 10433  10431  10460  10461      9     0.00  -0.41840   1 ;     C3-    C2-   O21-   C21
 10433  10436  10437  10438      9     0.00   2.51040   3 ;     C3-   O31-   P31-   O32
 10433  10436  10437  10438      9     0.00   9.62320   2 ;     C3-   O31-   P31-   O32
 10433  10436  10437  10458      9     0.00   0.00000   0 ;     C3-   O31-   P31-   O33
 10433  10436  10437  10458      9     0.00   0.00000   0 ;     C3-   O31-   P31-   O33
 10433  10436  10437  10458      9     0.00   0.00000   0 ;     C3-   O31-   P31-   O33
 10433  10436  10437  10458      9     0.00   0.00000   0 ;     C3-   O31-   P31-   O33
 10433  10436  10437  10458      9     0.00   0.83680   2 ;     C3-   O31-   P31-   O33
 10433  10436  10437  10459      9     0.00   0.00000   0 ;     C3-   O31-   P31-   O34
 10433  10436  10437  10459      9     0.00   0.00000   0 ;     C3-   O31-   P31-   O34
 10433  10436  10437  10459      9     0.00   0.00000   0 ;     C3-   O31-   P31-   O34
 10433  10436  10437  10459      9     0.00   0.00000   0 ;     C3-   O31-   P31-   O34
 10433  10436  10437  10459      9     0.00   0.83680   2 ;     C3-   O31-   P31-   O34
 10434  10433  10431  10460      9     0.00   0.00000   0 ;     HA-    C3-    C2-   O21
 10434  10433  10431  10460      9     0.00   1.04600   1 ;     HA-    C3-    C2-   O21
 10434  10433  10436  10437      9     0.00   0.00000   0 ;     HA-    C3-   O31-   P31
 10434  10433  10436  10437      9     0.00   0.00000   0 ;     HA-    C3-   O31-   P31
 10434  10433  10436  10437      9     0.00   0.00000   0 ;     HA-    C3-   O31-   P31
 10434  10433  10436  10437      9     0.00   0.00000   0 ;     HA-    C3-   O31-   P31
 10434  10433  10436  10437      9     0.00   1.60247   3 ;     HA-    C3-   O31-   P31
 10435  10433  10431  10460      9     0.00   0.00000   0 ;     HB-    C3-    C2-   O21
 10435  10433  10431  10460      9     0.00   1.04600   1 ;     HB-    C3-    C2-   O21
 10435  10433  10436  10437      9     0.00   0.00000   0 ;     HB-    C3-   O31-   P31
 10435  10433  10436  10437      9     0.00   0.00000   0 ;     HB-    C3-   O31-   P31
 10435  10433  10436  10437      9     0.00   0.00000   0 ;     HB-    C3-   O31-   P31
 10435  10433  10436  10437      9     0.00   0.00000   0 ;     HB-    C3-   O31-   P31
 10435  10433  10436  10437      9     0.00   1.60247   3 ;     HB-    C3-   O31-   P31
 10436  10433  10431  10460      9     0.00   0.00000   0 ;    O31-    C3-    C2-   O21
 10436  10433  10431  10460      9     0.00   0.00000   0 ;    O31-    C3-    C2-   O21
 10436  10433  10431  10460      9     0.00   0.00000   0 ;    O31-    C3-    C2-   O21
 10436  10433  10431  10460      9     0.00   0.00000   0 ;    O31-    C3-    C2-   O21
 10436  10433  10431  10460      9     0.00   0.00000   0 ;    O31-    C3-    C2-   O21
 10436  10437  10438  10439      9     0.00   2.51040   3 ;    O31-   P31-   O32-   C31
 10436  10437  10438  10439      9     0.00   9.62320   2 ;    O31-   P31-   O32-   C31
 10437  10438  10439  10440      9     0.00   0.00000   0 ;    P31-   O32-   C31-   H1A
 10437  10438  10439  10440      9     0.00   0.00000   0 ;    P31-   O32-   C31-   H1A
 10437  10438  10439  10440      9     0.00   0.00000   0 ;    P31-   O32-   C31-   H1A
 10437  10438  10439  10440      9     0.00   0.00000   0 ;    P31-   O32-   C31-   H1A
 10437  10438  10439  10440      9     0.00   1.60247   3 ;    P31-   O32-   C31-   H1A
 10437  10438  10439  10441      9     0.00   0.00000   0 ;    P31-   O32-   C31-   H1B
 10437  10438  10439  10441      9     0.00   0.00000   0 ;    P31-   O32-   C31-   H1B
 10437  10438  10439  10441      9     0.00   0.00000   0 ;    P31-   O32-   C31-   H1B
 10437  10438  10439  10441      9     0.00   0.00000   0 ;    P31-   O32-   C31-   H1B
 10437  10438  10439  10441      9     0.00   1.60247   3 ;    P31-   O32-   C31-   H1B
 10437  10438  10439  10442      9     0.00   0.00000   0 ;    P31-   O32-   C31-   C32
 10437  10438  10439  10442      9   180.00  -3.34720   2 ;    P31-   O32-   C31-   C32
 10438  10439  10442  10443      9     0.00   0.65270   3 ;    O32-   C31-   C32-   H2A
 10438  10439  10442  10444      9     0.00   0.65270   3 ;    O32-   C31-   C32-   H2B
 10438  10439  10442  10445      9     0.00   4.18400   3 ;    O32-   C31-   C32-   N31
 10439  10438  10437  10458      9     0.00   0.00000   0 ;    C31-   O32-   P31-   O33
 10439  10438  10437  10458      9     0.00   0.00000   0 ;    C31-   O32-   P31-   O33
 10439  10438  10437  10458      9     0.00   0.00000   0 ;    C31-   O32-   P31-   O33
 10439  10438  10437  10458      9     0.00   0.00000   0 ;    C31-   O32-   P31-   O33
 10439  10438  10437  10458      9     0.00   0.83680   2 ;    C31-   O32-   P31-   O33
 10439  10438  10437  10459      9     0.00   0.00000   0 ;    C31-   O32-   P31-   O34
 10439  10438  10437  10459      9     0.00   0.00000   0 ;    C31-   O32-   P31-   O34
 10439  10438  10437  10459      9     0.00   0.00000   0 ;    C31-   O32-   P31-   O34
 10439  10438  10437  10459      9     0.00   0.00000   0 ;    C31-   O32-   P31-   O34
 10439  10438  10437  10459      9     0.00   0.83680   2 ;    C31-   O32-   P31-   O34
 10439  10442  10445  10446      9     0.00   0.65270   3 ;    C31-   C32-   N31-   C33
 10439  10442  10445  10450      9     0.00   0.65270   3 ;    C31-   C32-   N31-   C34
 10439  10442  10445  10454      9     0.00   0.65270   3 ;    C31-   C32-   N31-   C35
 10440  10439  10442  10443      9     0.00   0.65270   3 ;    H1A-   C31-   C32-   H2A
 10440  10439  10442  10444      9     0.00   0.65270   3 ;    H1A-   C31-   C32-   H2B
 10440  10439  10442  10445      9     0.00   0.65270   3 ;    H1A-   C31-   C32-   N31
 10441  10439  10442  10443      9     0.00   0.65270   3 ;    H1B-   C31-   C32-   H2A
 10441  10439  10442  10444      9     0.00   0.65270   3 ;    H1B-   C31-   C32-   H2B
 10441  10439  10442  10445      9     0.00   0.65270   3 ;    H1B-   C31-   C32-   N31
 10442  10445  10446  10447      9     0.00   0.65270   3 ;    C32-   N31-   C33-   H3A
 10442  10445  10446  10448      9     0.00   0.65270   3 ;    C32-   N31-   C33-   H3B
 10442  10445  10446  10449      9     0.00   0.65270   3 ;    C32-   N31-   C33-   H3C
 10442  10445  10450  10451      9     0.00   0.65270   3 ;    C32-   N31-   C34-   H4A
 10442  10445  10450  10452      9     0.00   0.65270   3 ;    C32-   N31-   C34-   H4B
 10442  10445  10450  10453      9     0.00   0.65270   3 ;    C32-   N31-   C34-   H4C
 10442  10445  10454  10455      9     0.00   0.65270   3 ;    C32-   N31-   C35-   H5A
 10442  10445  10454  10456      9     0.00   0.65270   3 ;    C32-   N31-   C35-   H5B
 10442  10445  10454  10457      9     0.00   0.65270   3 ;    C32-   N31-   C35-   H5C
 10443  10442  10445  10446      9     0.00   0.65270   3 ;    H2A-   C32-   N31-   C33
 10443  10442  10445  10450      9     0.00   0.65270   3 ;    H2A-   C32-   N31-   C34
 10443  10442  10445  10454      9     0.00   0.65270   3 ;    H2A-   C32-   N31-   C35
 10444  10442  10445  10446      9     0.00   0.65270   3 ;    H2B-   C32-   N31-   C33
 10444  10442  10445  10450      9     0.00   0.65270   3 ;    H2B-   C32-   N31-   C34
 10444  10442  10445  10454      9     0.00   0.65270   3 ;    H2B-   C32-   N31-   C35
 10446  10445  10450  10451      9     0.00   0.65270   3 ;    C33-   N31-   C34-   H4A
 10446  10445  10450  10452      9     0.00   0.65270   3 ;    C33-   N31-   C34-   H4B
 10446  10445  10450  10453      9     0.00   0.65270   3 ;    C33-   N31-   C34-   H4C
 10446  10445  10454  10455      9     0.00   0.65270   3 ;    C33-   N31-   C35-   H5A
 10446  10445  10454  10456      9     0.00   0.65270   3 ;    C33-   N31-   C35-   H5B
 10446  10445  10454  10457      9     0.00   0.65270   3 ;    C33-   N31-   C35-   H5C
 10447  10446  10445  10450      9     0.00   0.65270   3 ;    H3A-   C33-   N31-   C34
 10447  10446  10445  10454      9     0.00   0.65270   3 ;    H3A-   C33-   N31-   C35
 10448  10446  10445  10450      9     0.00   0.65270   3 ;    H3B-   C33-   N31-   C34
 10448  10446  10445  10454      9     0.00   0.65270   3 ;    H3B-   C33-   N31-   C35
 10449  10446  10445  10450      9     0.00   0.65270   3 ;    H3C-   C33-   N31-   C34
 10449  10446  10445  10454      9     0.00   0.65270   3 ;    H3C-   C33-   N31-   C35
 10450  10445  10454  10455      9     0.00   0.65270   3 ;    C34-   N31-   C35-   H5A
 10450  10445  10454  10456      9     0.00   0.65270   3 ;    C34-   N31-   C35-   H5B
 10450  10445  10454  10457      9     0.00   0.65270   3 ;    C34-   N31-   C35-   H5C
 10451  10450  10445  10454      9     0.00   0.65270   3 ;    H4A-   C34-   N31-   C35
 10452  10450  10445  10454      9     0.00   0.65270   3 ;    H4B-   C34-   N31-   C35
 10453  10450  10445  10454      9     0.00   0.65270   3 ;    H4C-   C34-   N31-   C35
 10460  10461  10500  10497      9   180.00   0.00000   2 ;    O21-   C21-   C12-   C13
 10460  10461  10500  10501      9   180.00   0.00000   2 ;    O21-   C21-   C12-   H2R
 10460  10461  10500  10502      9   180.00   0.00000   2 ;    O21-   C21-   C12-   H2S
 10461  10500  10497  10494      9     0.00   0.65270   3 ;    C21-   C12-   C13-   C14
 10461  10500  10497  10498      9     0.00   0.65270   3 ;    C21-   C12-   C13-   H3R
 10461  10500  10497  10499      9     0.00   0.65270   3 ;    C21-   C12-   C13-   H3S
 10462  10461  10500  10497      9   180.00   0.00000   2 ;    O22-   C21-   C12-   C13
 10462  10461  10500  10501      9     0.00   3.34720   1 ;    O22-   C21-   C12-   H2R
 10462  10461  10500  10501      9   180.00   0.33472   3 ;    O22-   C21-   C12-   H2R
 10462  10461  10500  10502      9     0.00   3.34720   1 ;    O22-   C21-   C12-   H2S
 10462  10461  10500  10502      9   180.00   0.33472   3 ;    O22-   C21-   C12-   H2S
 10463  10464  10467  10468      9     0.00   0.62760   3 ;   H14T-  C114-  C113-  H13R
 10463  10464  10467  10469      9     0.00   0.62760   3 ;   H14T-  C114-  C113-  H13S
 10463  10464  10467  10470      9     0.00   0.66944   3 ;   H14T-  C114-  C113-  C112
 10464  10467  10470  10471      9     0.00   0.66944   3 ;   C114-  C113-  C112-  H12R
 10464  10467  10470  10472      9     0.00   0.66944   3 ;   C114-  C113-  C112-  H12S
 10464  10467  10470  10473      9     0.00   0.41840   1 ;   C114-  C113-  C112-  C111
 10464  10467  10470  10473      9     0.00   0.41840   2 ;   C114-  C113-  C112-  C111
 10464  10467  10470  10473      9     0.00   0.41840   4 ;   C114-  C113-  C112-  C111
 10464  10467  10470  10473      9     0.00   0.41840   5 ;   C114-  C113-  C112-  C111
 10464  10467  10470  10473      9     0.00   1.25520   3 ;   C114-  C113-  C112-  C111
 10465  10464  10467  10468      9     0.00   0.62760   3 ;   H14R-  C114-  C113-  H13R
 10465  10464  10467  10469      9     0.00   0.62760   3 ;   H14R-  C114-  C113-  H13S
 10465  10464  10467  10470      9     0.00   0.66944   3 ;   H14R-  C114-  C113-  C112
 10466  10464  10467  10468      9     0.00   0.62760   3 ;   H14S-  C114-  C113-  H13R
 10466  10464  10467  10469      9     0.00   0.62760   3 ;   H14S-  C114-  C113-  H13S
 10466  10464  10467  10470      9     0.00   0.66944   3 ;   H14S-  C114-  C113-  C112
 10467  10470  10473  10474      9     0.00   0.66944   3 ;   C113-  C112-  C111-  H11R
 10467  10470  10473  10475      9     0.00   0.66944   3 ;   C113-  C112-  C111-  H11S
 10467  10470  10473  10476      9     0.00   0.41840   1 ;   C113-  C112-  C111-  C110
 10467  10470  10473  10476      9     0.00   0.41840   2 ;   C113-  C112-  C111-  C110
 10467  10470  10473  10476      9     0.00   0.41840   4 ;   C113-  C112-  C111-  C110
 10467  10470  10473  10476      9     0.00   0.41840   5 ;   C113-  C112-  C111-  C110
 10467  10470  10473  10476      9     0.00   1.25520   3 ;   C113-  C112-  C111-  C110
 10468  10467  10470  10471      9     0.00   0.62760   3 ;   H13R-  C113-  C112-  H12R
 10468  10467  10470  10472      9     0.00   0.62760   3 ;   H13R-  C113-  C112-  H12S
 10468  10467  10470  10473      9     0.00   0.66944   3 ;   H13R-  C113-  C112-  C111
 10469  10467  10470  10471      9     0.00   0.62760   3 ;   H13S-  C113-  C112-  H12R
 10469  10467  10470  10472      9     0.00   0.62760   3 ;   H13S-  C113-  C112-  H12S
 10469  10467  10470  10473      9     0.00   0.66944   3 ;   H13S-  C113-  C112-  C111
 10470  10473  10476  10477      9     0.00   0.66944   3 ;   C112-  C111-  C110-  H10R
 10470  10473  10476  10478      9     0.00   0.66944   3 ;   C112-  C111-  C110-  H10S
 10470  10473  10476  10479      9     0.00   0.41840   1 ;   C112-  C111-  C110-   C19
 10470  10473  10476  10479      9     0.00   0.41840   2 ;   C112-  C111-  C110-   C19
 10470  10473  10476  10479      9     0.00   0.41840   4 ;   C112-  C111-  C110-   C19
 10470  10473  10476  10479      9     0.00   0.41840   5 ;   C112-  C111-  C110-   C19
 10470  10473  10476  10479      9     0.00   1.25520   3 ;   C112-  C111-  C110-   C19
 10471  10470  10473  10474      9     0.00   0.62760   3 ;   H12R-  C112-  C111-  H11R
 10471  10470  10473  10475      9     0.00   0.62760   3 ;   H12R-  C112-  C111-  H11S
 10471  10470  10473  10476      9     0.00   0.66944   3 ;   H12R-  C112-  C111-  C110
 10472  10470  10473  10474      9     0.00   0.62760   3 ;   H12S-  C112-  C111-  H11R
 10472  10470  10473  10475      9     0.00   0.62760   3 ;   H12S-  C112-  C111-  H11S
 10472  10470  10473  10476      9     0.00   0.66944   3 ;   H12S-  C112-  C111-  C110
 10473  10476  10479  10480      9     0.00   0.66944   3 ;   C111-  C110-   C19-   H9R
 10473  10476  10479  10481      9     0.00   0.66944   3 ;   C111-  C110-   C19-   H9S
 10473  10476  10479  10482      9     0.00   0.41840   1 ;   C111-  C110-   C19-   C18
 10473  10476  10479  10482      9     0.00   0.41840   2 ;   C111-  C110-   C19-   C18
 10473  10476  10479  10482      9     0.00   0.41840   4 ;   C111-  C110-   C19-   C18
 10473  10476  10479  10482      9     0.00   0.41840   5 ;   C111-  C110-   C19-   C18
 10473  10476  10479  10482      9     0.00   1.25520   3 ;   C111-  C110-   C19-   C18
 10474  10473  10476  10477      9     0.00   0.62760   3 ;   H11R-  C111-  C110-  H10R
 10474  10473  10476  10478      9     0.00   0.62760   3 ;   H11R-  C111-  C110-  H10S
 10474  10473  10476  10479      9     0.00   0.66944   3 ;   H11R-  C111-  C110-   C19
 10475  10473  10476  10477      9     0.00   0.62760   3 ;   H11S-  C111-  C110-  H10R
 10475  10473  10476  10478      9     0.00   0.62760   3 ;   H11S-  C111-  C110-  H10S
 10475  10473  10476  10479      9     0.00   0.66944   3 ;   H11S-  C111-  C110-   C19
 10476  10479  10482  10483      9     0.00   0.66944   3 ;   C110-   C19-   C18-   H8R
 10476  10479  10482  10484      9     0.00   0.66944   3 ;   C110-   C19-   C18-   H8S
 10476  10479  10482  10485      9     0.00   0.41840   1 ;   C110-   C19-   C18-   C17
 10476  10479  10482  10485      9     0.00   0.41840   2 ;   C110-   C19-   C18-   C17
 10476  10479  10482  10485      9     0.00   0.41840   4 ;   C110-   C19-   C18-   C17
 10476  10479  10482  10485      9     0.00   0.41840   5 ;   C110-   C19-   C18-   C17
 10476  10479  10482  10485      9     0.00   1.25520   3 ;   C110-   C19-   C18-   C17
 10477  10476  10479  10480      9     0.00   0.62760   3 ;   H10R-  C110-   C19-   H9R
 10477  10476  10479  10481      9     0.00   0.62760   3 ;   H10R-  C110-   C19-   H9S
 10477  10476  10479  10482      9     0.00   0.66944   3 ;   H10R-  C110-   C19-   C18
 10478  10476  10479  10480      9     0.00   0.62760   3 ;   H10S-  C110-   C19-   H9R
 10478  10476  10479  10481      9     0.00   0.62760   3 ;   H10S-  C110-   C19-   H9S
 10478  10476  10479  10482      9     0.00   0.66944   3 ;   H10S-  C110-   C19-   C18
 10479  10482  10485  10486      9     0.00   0.66944   3 ;    C19-   C18-   C17-   H7R
 10479  10482  10485  10487      9     0.00   0.66944   3 ;    C19-   C18-   C17-   H7S
 10479  10482  10485  10488      9     0.00   0.41840   1 ;    C19-   C18-   C17-   C16
 10479  10482  10485  10488      9     0.00   0.41840   2 ;    C19-   C18-   C17-   C16
 10479  10482  10485  10488      9     0.00   0.41840   4 ;    C19-   C18-   C17-   C16
 10479  10482  10485  10488      9     0.00   0.41840   5 ;    C19-   C18-   C17-   C16
 10479  10482  10485  10488      9     0.00   1.25520   3 ;    C19-   C18-   C17-   C16
 10480  10479  10482  10483      9     0.00   0.62760   3 ;    H9R-   C19-   C18-   H8R
 10480  10479  10482  10484      9     0.00   0.62760   3 ;    H9R-   C19-   C18-   H8S
 10480  10479  10482  10485      9     0.00   0.66944   3 ;    H9R-   C19-   C18-   C17
 10481  10479  10482  10483      9     0.00   0.62760   3 ;    H9S-   C19-   C18-   H8R
 10481  10479  10482  10484      9     0.00   0.62760   3 ;    H9S-   C19-   C18-   H8S
 10481  10479  10482  10485      9     0.00   0.66944   3 ;    H9S-   C19-   C18-   C17
 10482  10485  10488  10489      9     0.00   0.66944   3 ;    C18-   C17-   C16-   H6R
 10482  10485  10488  10490      9     0.00   0.66944   3 ;    C18-   C17-   C16-   H6S
 10482  10485  10488  10491      9     0.00   0.41840   1 ;    C18-   C17-   C16-   C15
 10482  10485  10488  10491      9     0.00   0.41840   2 ;    C18-   C17-   C16-   C15
 10482  10485  10488  10491      9     0.00   0.41840   4 ;    C18-   C17-   C16-   C15
 10482  10485  10488  10491      9     0.00   0.41840   5 ;    C18-   C17-   C16-   C15
 10482  10485  10488  10491      9     0.00   1.25520   3 ;    C18-   C17-   C16-   C15
 10483  10482  10485  10486      9     0.00   0.62760   3 ;    H8R-   C18-   C17-   H7R
 10483  10482  10485  10487      9     0.00   0.62760   3 ;    H8R-   C18-   C17-   H7S
 10483  10482  10485  10488      9     0.00   0.66944   3 ;    H8R-   C18-   C17-   C16
 10484  10482  10485  10486      9     0.00   0.62760   3 ;    H8S-   C18-   C17-   H7R
 10484  10482  10485  10487      9     0.00   0.62760   3 ;    H8S-   C18-   C17-   H7S
 10484  10482  10485  10488      9     0.00   0.66944   3 ;    H8S-   C18-   C17-   C16
 10485  10488  10491  10492      9     0.00   0.66944   3 ;    C17-   C16-   C15-   H5R
 10485  10488  10491  10493      9     0.00   0.66944   3 ;    C17-   C16-   C15-   H5S
 10485  10488  10491  10494      9     0.00   0.41840   1 ;    C17-   C16-   C15-   C14
 10485  10488  10491  10494      9     0.00   0.41840   2 ;    C17-   C16-   C15-   C14
 10485  10488  10491  10494      9     0.00   0.41840   4 ;    C17-   C16-   C15-   C14
 10485  10488  10491  10494      9     0.00   0.41840   5 ;    C17-   C16-   C15-   C14
 10485  10488  10491  10494      9     0.00   1.25520   3 ;    C17-   C16-   C15-   C14
 10486  10485  10488  10489      9     0.00   0.62760   3 ;    H7R-   C17-   C16-   H6R
 10486  10485  10488  10490      9     0.00   0.62760   3 ;    H7R-   C17-   C16-   H6S
 10486  10485  10488  10491      9     0.00   0.66944   3 ;    H7R-   C17-   C16-   C15
 10487  10485  10488  10489      9     0.00   0.62760   3 ;    H7S-   C17-   C16-   H6R
 10487  10485  10488  10490      9     0.00   0.62760   3 ;    H7S-   C17-   C16-   H6S
 10487  10485  10488  10491      9     0.00   0.66944   3 ;    H7S-   C17-   C16-   C15
 10488  10491  10494  10495      9     0.00   0.66944   3 ;    C16-   C15-   C14-   H4R
 10488  10491  10494  10496      9     0.00   0.66944   3 ;    C16-   C15-   C14-   H4S
 10488  10491  10494  10497      9     0.00   0.41840   1 ;    C16-   C15-   C14-   C13
 10488  10491  10494  10497      9     0.00   0.41840   2 ;    C16-   C15-   C14-   C13
 10488  10491  10494  10497      9     0.00   0.41840   4 ;    C16-   C15-   C14-   C13
 10488  10491  10494  10497      9     0.00   0.41840   5 ;    C16-   C15-   C14-   C13
 10488  10491  10494  10497      9     0.00   1.25520   3 ;    C16-   C15-   C14-   C13
 10489  10488  10491  10492      9     0.00   0.62760   3 ;    H6R-   C16-   C15-   H5R
 10489  10488  10491  10493      9     0.00   0.62760   3 ;    H6R-   C16-   C15-   H5S
 10489  10488  10491  10494      9     0.00   0.66944   3 ;    H6R-   C16-   C15-   C14
 10490  10488  10491  10492      9     0.00   0.62760   3 ;    H6S-   C16-   C15-   H5R
 10490  10488  10491  10493      9     0.00   0.62760   3 ;    H6S-   C16-   C15-   H5S
 10490  10488  10491  10494      9     0.00   0.66944   3 ;    H6S-   C16-   C15-   C14
 10491  10494  10497  10498      9     0.00   0.66944   3 ;    C15-   C14-   C13-   H3R
 10491  10494  10497  10499      9     0.00   0.66944   3 ;    C15-   C14-   C13-   H3S
 10491  10494  10497  10500      9     0.00   0.41840   1 ;    C15-   C14-   C13-   C12
 10491  10494  10497  10500      9     0.00   0.41840   2 ;    C15-   C14-   C13-   C12
 10491  10494  10497  10500      9     0.00   0.41840   4 ;    C15-   C14-   C13-   C12
 10491  10494  10497  10500      9     0.00   0.41840   5 ;    C15-   C14-   C13-   C12
 10491  10494  10497  10500      9     0.00   1.25520   3 ;    C15-   C14-   C13-   C12
 10492  10491  10494  10495      9     0.00   0.62760   3 ;    H5R-   C15-   C14-   H4R
 10492  10491  10494  10496      9     0.00   0.62760   3 ;    H5R-   C15-   C14-   H4S
 10492  10491  10494  10497      9     0.00   0.66944   3 ;    H5R-   C15-   C14-   C13
 10493  10491  10494  10495      9     0.00   0.62760   3 ;    H5S-   C15-   C14-   H4R
 10493  10491  10494  10496      9     0.00   0.62760   3 ;    H5S-   C15-   C14-   H4S
 10493  10491  10494  10497      9     0.00   0.66944   3 ;    H5S-   C15-   C14-   C13
 10494  10497  10500  10501      9     0.00   0.66944   3 ;    C14-   C13-   C12-   H2R
 10494  10497  10500  10502      9     0.00   0.66944   3 ;    C14-   C13-   C12-   H2S
 10495  10494  10497  10498      9     0.00   0.62760   3 ;    H4R-   C14-   C13-   H3R
 10495  10494  10497  10499      9     0.00   0.62760   3 ;    H4R-   C14-   C13-   H3S
 10495  10494  10497  10500      9     0.00   0.66944   3 ;    H4R-   C14-   C13-   C12
 10496  10494  10497  10498      9     0.00   0.62760   3 ;    H4S-   C14-   C13-   H3R
 10496  10494  10497  10499      9     0.00   0.62760   3 ;    H4S-   C14-   C13-   H3S
 10496  10494  10497  10500      9     0.00   0.66944   3 ;    H4S-   C14-   C13-   C12
 10498  10497  10500  10501      9     0.00   0.62760   3 ;    H3R-   C13-   C12-   H2R
 10498  10497  10500  10502      9     0.00   0.62760   3 ;    H3R-   C13-   C12-   H2S
 10499  10497  10500  10501      9     0.00   0.62760   3 ;    H3S-   C13-   C12-   H2R
 10499  10497  10500  10502      9     0.00   0.62760   3 ;    H3S-   C13-   C12-   H2S
 10503  10504  10507  10508      9     0.00   0.62760   3 ;   H14T-  C114-  C113-  H13R
 10503  10504  10507  10509      9     0.00   0.62760   3 ;   H14T-  C114-  C113-  H13S
 10503  10504  10507  10510      9     0.00   0.66944   3 ;   H14T-  C114-  C113-  C112
 10504  10507  10510  10511      9     0.00   0.66944   3 ;   C114-  C113-  C112-  H12R
 10504  10507  10510  10512      9     0.00   0.66944   3 ;   C114-  C113-  C112-  H12S
 10504  10507  10510  10513      9     0.00   0.41840   1 ;   C114-  C113-  C112-  C111
 10504  10507  10510  10513      9     0.00   0.41840   2 ;   C114-  C113-  C112-  C111
 10504  10507  10510  10513      9     0.00   0.41840   4 ;   C114-  C113-  C112-  C111
 10504  10507  10510  10513      9     0.00   0.41840   5 ;   C114-  C113-  C112-  C111
 10504  10507  10510  10513      9     0.00   1.25520   3 ;   C114-  C113-  C112-  C111
 10505  10504  10507  10508      9     0.00   0.62760   3 ;   H14R-  C114-  C113-  H13R
 10505  10504  10507  10509      9     0.00   0.62760   3 ;   H14R-  C114-  C113-  H13S
 10505  10504  10507  10510      9     0.00   0.66944   3 ;   H14R-  C114-  C113-  C112
 10506  10504  10507  10508      9     0.00   0.62760   3 ;   H14S-  C114-  C113-  H13R
 10506  10504  10507  10509      9     0.00   0.62760   3 ;   H14S-  C114-  C113-  H13S
 10506  10504  10507  10510      9     0.00   0.66944   3 ;   H14S-  C114-  C113-  C112
 10507  10510  10513  10514      9     0.00   0.66944   3 ;   C113-  C112-  C111-  H11R
 10507  10510  10513  10515      9     0.00   0.66944   3 ;   C113-  C112-  C111-  H11S
 10507  10510  10513  10516      9     0.00   0.41840   1 ;   C113-  C112-  C111-  C110
 10507  10510  10513  10516      9     0.00   0.41840   2 ;   C113-  C112-  C111-  C110
 10507  10510  10513  10516      9     0.00   0.41840   4 ;   C113-  C112-  C111-  C110
 10507  10510  10513  10516      9     0.00   0.41840   5 ;   C113-  C112-  C111-  C110
 10507  10510  10513  10516      9     0.00   1.25520   3 ;   C113-  C112-  C111-  C110
 10508  10507  10510  10511      9     0.00   0.62760   3 ;   H13R-  C113-  C112-  H12R
 10508  10507  10510  10512      9     0.00   0.62760   3 ;   H13R-  C113-  C112-  H12S
 10508  10507  10510  10513      9     0.00   0.66944   3 ;   H13R-  C113-  C112-  C111
 10509  10507  10510  10511      9     0.00   0.62760   3 ;   H13S-  C113-  C112-  H12R
 10509  10507  10510  10512      9     0.00   0.62760   3 ;   H13S-  C113-  C112-  H12S
 10509  10507  10510  10513      9     0.00   0.66944   3 ;   H13S-  C113-  C112-  C111
 10510  10513  10516  10517      9     0.00   0.66944   3 ;   C112-  C111-  C110-  H10R
 10510  10513  10516  10518      9     0.00   0.66944   3 ;   C112-  C111-  C110-  H10S
 10510  10513  10516  10519      9     0.00   0.41840   1 ;   C112-  C111-  C110-   C19
 10510  10513  10516  10519      9     0.00   0.41840   2 ;   C112-  C111-  C110-   C19
 10510  10513  10516  10519      9     0.00   0.41840   4 ;   C112-  C111-  C110-   C19
 10510  10513  10516  10519      9     0.00   0.41840   5 ;   C112-  C111-  C110-   C19
 10510  10513  10516  10519      9     0.00   1.25520   3 ;   C112-  C111-  C110-   C19
 10511  10510  10513  10514      9     0.00   0.62760   3 ;   H12R-  C112-  C111-  H11R
 10511  10510  10513  10515      9     0.00   0.62760   3 ;   H12R-  C112-  C111-  H11S
 10511  10510  10513  10516      9     0.00   0.66944   3 ;   H12R-  C112-  C111-  C110
 10512  10510  10513  10514      9     0.00   0.62760   3 ;   H12S-  C112-  C111-  H11R
 10512  10510  10513  10515      9     0.00   0.62760   3 ;   H12S-  C112-  C111-  H11S
 10512  10510  10513  10516      9     0.00   0.66944   3 ;   H12S-  C112-  C111-  C110
 10513  10516  10519  10520      9     0.00   0.66944   3 ;   C111-  C110-   C19-   H9R
 10513  10516  10519  10521      9     0.00   0.66944   3 ;   C111-  C110-   C19-   H9S
 10513  10516  10519  10522      9     0.00   0.41840   1 ;   C111-  C110-   C19-   C18
 10513  10516  10519  10522      9     0.00   0.41840   2 ;   C111-  C110-   C19-   C18
 10513  10516  10519  10522      9     0.00   0.41840   4 ;   C111-  C110-   C19-   C18
 10513  10516  10519  10522      9     0.00   0.41840   5 ;   C111-  C110-   C19-   C18
 10513  10516  10519  10522      9     0.00   1.25520   3 ;   C111-  C110-   C19-   C18
 10514  10513  10516  10517      9     0.00   0.62760   3 ;   H11R-  C111-  C110-  H10R
 10514  10513  10516  10518      9     0.00   0.62760   3 ;   H11R-  C111-  C110-  H10S
 10514  10513  10516  10519      9     0.00   0.66944   3 ;   H11R-  C111-  C110-   C19
 10515  10513  10516  10517      9     0.00   0.62760   3 ;   H11S-  C111-  C110-  H10R
 10515  10513  10516  10518      9     0.00   0.62760   3 ;   H11S-  C111-  C110-  H10S
 10515  10513  10516  10519      9     0.00   0.66944   3 ;   H11S-  C111-  C110-   C19
 10516  10519  10522  10523      9     0.00   0.66944   3 ;   C110-   C19-   C18-   H8R
 10516  10519  10522  10524      9     0.00   0.66944   3 ;   C110-   C19-   C18-   H8S
 10516  10519  10522  10525      9     0.00   0.41840   1 ;   C110-   C19-   C18-   C17
 10516  10519  10522  10525      9     0.00   0.41840   2 ;   C110-   C19-   C18-   C17
 10516  10519  10522  10525      9     0.00   0.41840   4 ;   C110-   C19-   C18-   C17
 10516  10519  10522  10525      9     0.00   0.41840   5 ;   C110-   C19-   C18-   C17
 10516  10519  10522  10525      9     0.00   1.25520   3 ;   C110-   C19-   C18-   C17
 10517  10516  10519  10520      9     0.00   0.62760   3 ;   H10R-  C110-   C19-   H9R
 10517  10516  10519  10521      9     0.00   0.62760   3 ;   H10R-  C110-   C19-   H9S
 10517  10516  10519  10522      9     0.00   0.66944   3 ;   H10R-  C110-   C19-   C18
 10518  10516  10519  10520      9     0.00   0.62760   3 ;   H10S-  C110-   C19-   H9R
 10518  10516  10519  10521      9     0.00   0.62760   3 ;   H10S-  C110-   C19-   H9S
 10518  10516  10519  10522      9     0.00   0.66944   3 ;   H10S-  C110-   C19-   C18
 10519  10522  10525  10526      9     0.00   0.66944   3 ;    C19-   C18-   C17-   H7R
 10519  10522  10525  10527      9     0.00   0.66944   3 ;    C19-   C18-   C17-   H7S
 10519  10522  10525  10528      9     0.00   0.41840   1 ;    C19-   C18-   C17-   C16
 10519  10522  10525  10528      9     0.00   0.41840   2 ;    C19-   C18-   C17-   C16
 10519  10522  10525  10528      9     0.00   0.41840   4 ;    C19-   C18-   C17-   C16
 10519  10522  10525  10528      9     0.00   0.41840   5 ;    C19-   C18-   C17-   C16
 10519  10522  10525  10528      9     0.00   1.25520   3 ;    C19-   C18-   C17-   C16
 10520  10519  10522  10523      9     0.00   0.62760   3 ;    H9R-   C19-   C18-   H8R
 10520  10519  10522  10524      9     0.00   0.62760   3 ;    H9R-   C19-   C18-   H8S
 10520  10519  10522  10525      9     0.00   0.66944   3 ;    H9R-   C19-   C18-   C17
 10521  10519  10522  10523      9     0.00   0.62760   3 ;    H9S-   C19-   C18-   H8R
 10521  10519  10522  10524      9     0.00   0.62760   3 ;    H9S-   C19-   C18-   H8S
 10521  10519  10522  10525      9     0.00   0.66944   3 ;    H9S-   C19-   C18-   C17
 10522  10525  10528  10529      9     0.00   0.66944   3 ;    C18-   C17-   C16-   H6R
 10522  10525  10528  10530      9     0.00   0.66944   3 ;    C18-   C17-   C16-   H6S
 10522  10525  10528  10531      9     0.00   0.41840   1 ;    C18-   C17-   C16-   C15
 10522  10525  10528  10531      9     0.00   0.41840   2 ;    C18-   C17-   C16-   C15
 10522  10525  10528  10531      9     0.00   0.41840   4 ;    C18-   C17-   C16-   C15
 10522  10525  10528  10531      9     0.00   0.41840   5 ;    C18-   C17-   C16-   C15
 10522  10525  10528  10531      9     0.00   1.25520   3 ;    C18-   C17-   C16-   C15
 10523  10522  10525  10526      9     0.00   0.62760   3 ;    H8R-   C18-   C17-   H7R
 10523  10522  10525  10527      9     0.00   0.62760   3 ;    H8R-   C18-   C17-   H7S
 10523  10522  10525  10528      9     0.00   0.66944   3 ;    H8R-   C18-   C17-   C16
 10524  10522  10525  10526      9     0.00   0.62760   3 ;    H8S-   C18-   C17-   H7R
 10524  10522  10525  10527      9     0.00   0.62760   3 ;    H8S-   C18-   C17-   H7S
 10524  10522  10525  10528      9     0.00   0.66944   3 ;    H8S-   C18-   C17-   C16
 10525  10528  10531  10532      9     0.00   0.66944   3 ;    C17-   C16-   C15-   H5R
 10525  10528  10531  10533      9     0.00   0.66944   3 ;    C17-   C16-   C15-   H5S
 10525  10528  10531  10534      9     0.00   0.41840   1 ;    C17-   C16-   C15-   C14
 10525  10528  10531  10534      9     0.00   0.41840   2 ;    C17-   C16-   C15-   C14
 10525  10528  10531  10534      9     0.00   0.41840   4 ;    C17-   C16-   C15-   C14
 10525  10528  10531  10534      9     0.00   0.41840   5 ;    C17-   C16-   C15-   C14
 10525  10528  10531  10534      9     0.00   1.25520   3 ;    C17-   C16-   C15-   C14
 10526  10525  10528  10529      9     0.00   0.62760   3 ;    H7R-   C17-   C16-   H6R
 10526  10525  10528  10530      9     0.00   0.62760   3 ;    H7R-   C17-   C16-   H6S
 10526  10525  10528  10531      9     0.00   0.66944   3 ;    H7R-   C17-   C16-   C15
 10527  10525  10528  10529      9     0.00   0.62760   3 ;    H7S-   C17-   C16-   H6R
 10527  10525  10528  10530      9     0.00   0.62760   3 ;    H7S-   C17-   C16-   H6S
 10527  10525  10528  10531      9     0.00   0.66944   3 ;    H7S-   C17-   C16-   C15
 10528  10531  10534  10535      9     0.00   0.66944   3 ;    C16-   C15-   C14-   H4R
 10528  10531  10534  10536      9     0.00   0.66944   3 ;    C16-   C15-   C14-   H4S
 10528  10531  10534  10537      9     0.00   0.41840   1 ;    C16-   C15-   C14-   C13
 10528  10531  10534  10537      9     0.00   0.41840   2 ;    C16-   C15-   C14-   C13
 10528  10531  10534  10537      9     0.00   0.41840   4 ;    C16-   C15-   C14-   C13
 10528  10531  10534  10537      9     0.00   0.41840   5 ;    C16-   C15-   C14-   C13
 10528  10531  10534  10537      9     0.00   1.25520   3 ;    C16-   C15-   C14-   C13
 10529  10528  10531  10532      9     0.00   0.62760   3 ;    H6R-   C16-   C15-   H5R
 10529  10528  10531  10533      9     0.00   0.62760   3 ;    H6R-   C16-   C15-   H5S
 10529  10528  10531  10534      9     0.00   0.66944   3 ;    H6R-   C16-   C15-   C14
 10530  10528  10531  10532      9     0.00   0.62760   3 ;    H6S-   C16-   C15-   H5R
 10530  10528  10531  10533      9     0.00   0.62760   3 ;    H6S-   C16-   C15-   H5S
 10530  10528  10531  10534      9     0.00   0.66944   3 ;    H6S-   C16-   C15-   C14
 10531  10534  10537  10538      9     0.00   0.66944   3 ;    C15-   C14-   C13-   H3R
 10531  10534  10537  10539      9     0.00   0.66944   3 ;    C15-   C14-   C13-   H3S
 10531  10534  10537  10540      9     0.00   0.41840   1 ;    C15-   C14-   C13-   C12
 10531  10534  10537  10540      9     0.00   0.41840   2 ;    C15-   C14-   C13-   C12
 10531  10534  10537  10540      9     0.00   0.41840   4 ;    C15-   C14-   C13-   C12
 10531  10534  10537  10540      9     0.00   0.41840   5 ;    C15-   C14-   C13-   C12
 10531  10534  10537  10540      9     0.00   1.25520   3 ;    C15-   C14-   C13-   C12
 10532  10531  10534  10535      9     0.00   0.62760   3 ;    H5R-   C15-   C14-   H4R
 10532  10531  10534  10536      9     0.00   0.62760   3 ;    H5R-   C15-   C14-   H4S
 10532  10531  10534  10537      9     0.00   0.66944   3 ;    H5R-   C15-   C14-   C13
 10533  10531  10534  10535      9     0.00   0.62760   3 ;    H5S-   C15-   C14-   H4R
 10533  10531  10534  10536      9     0.00   0.62760   3 ;    H5S-   C15-   C14-   H4S
 10533  10531  10534  10537      9     0.00   0.66944   3 ;    H5S-   C15-   C14-   C13
 10534  10537  10540  10541      9     0.00   0.66944   3 ;    C14-   C13-   C12-   H2R
 10534  10537  10540  10542      9     0.00   0.66944   3 ;    C14-   C13-   C12-   H2S
 10534  10537  10540  10543      9     0.00   0.65270   3 ;    C14-   C13-   C12-   C11
 10535  10534  10537  10538      9     0.00   0.62760   3 ;    H4R-   C14-   C13-   H3R
 10535  10534  10537  10539      9     0.00   0.62760   3 ;    H4R-   C14-   C13-   H3S
 10535  10534  10537  10540      9     0.00   0.66944   3 ;    H4R-   C14-   C13-   C12
 10536  10534  10537  10538      9     0.00   0.62760   3 ;    H4S-   C14-   C13-   H3R
 10536  10534  10537  10539      9     0.00   0.62760   3 ;    H4S-   C14-   C13-   H3S
 10536  10534  10537  10540      9     0.00   0.66944   3 ;    H4S-   C14-   C13-   C12
 10537  10540  10543  10544      9   180.00   0.00000   2 ;    C13-   C12-   C11-   O12
 10537  10540  10543  10545      9   180.00   0.00000   2 ;    C13-   C12-   C11-   O11
 10538  10537  10540  10541      9     0.00   0.62760   3 ;    H3R-   C13-   C12-   H2R
 10538  10537  10540  10542      9     0.00   0.62760   3 ;    H3R-   C13-   C12-   H2S
 10538  10537  10540  10543      9     0.00   0.65270   3 ;    H3R-   C13-   C12-   C11
 10539  10537  10540  10541      9     0.00   0.62760   3 ;    H3S-   C13-   C12-   H2R
 10539  10537  10540  10542      9     0.00   0.62760   3 ;    H3S-   C13-   C12-   H2S
 10539  10537  10540  10543      9     0.00   0.65270   3 ;    H3S-   C13-   C12-   C11
 10540  10543  10545  10546      9   180.00  11.29680   2 ;    C12-   C11-   O11-    C1
 10541  10540  10543  10544      9     0.00   3.34720   1 ;    H2R-   C12-   C11-   O12
 10541  10540  10543  10544      9   180.00   0.33472   3 ;    H2R-   C12-   C11-   O12
 10541  10540  10543  10545      9   180.00   0.00000   2 ;    H2R-   C12-   C11-   O11
 10542  10540  10543  10544      9     0.00   3.34720   1 ;    H2S-   C12-   C11-   O12
 10542  10540  10543  10544      9   180.00   0.33472   3 ;    H2S-   C12-   C11-   O12
 10542  10540  10543  10545      9   180.00   0.00000   2 ;    H2S-   C12-   C11-   O11
 10543  10545  10546  10547      9     0.00   1.60247   3 ;    C11-   O11-    C1-    HR
 10543  10545  10546  10548      9     0.00   1.60247   3 ;    C11-   O11-    C1-    HS
 10543  10545  10546  10549      9     0.00  -0.41840   1 ;    C11-   O11-    C1-    C2
 10544  10543  10545  10546      9   180.00   5.85760   1 ;    O12-   C11-   O11-    C1
 10544  10543  10545  10546      9   180.00  11.29680   2 ;    O12-   C11-   O11-    C1
 10545  10546  10549  10550      9     0.00   0.00000   0 ;    O11-    C1-    C2-    HX
 10545  10546  10549  10550      9     0.00   1.04600   1 ;    O11-    C1-    C2-    HX
 10545  10546  10549  10551      9     0.00   0.00000   0 ;    O11-    C1-    C2-    C3
 10545  10546  10549  10551      9     0.00   0.00000   0 ;    O11-    C1-    C2-    C3
 10545  10546  10549  10551      9     0.00   0.00000   0 ;    O11-    C1-    C2-    C3
 10545  10546  10549  10551      9     0.00   0.00000   0 ;    O11-    C1-    C2-    C3
 10545  10546  10549  10551      9     0.00   0.00000   0 ;    O11-    C1-    C2-    C3
 10545  10546  10549  10578      9     0.00   1.25520   2 ;    O11-    C1-    C2-   O21
 10545  10546  10549  10578      9     0.00   4.18400   3 ;    O11-    C1-    C2-   O21
 10545  10546  10549  10578      9   180.00  -0.41840   1 ;    O11-    C1-    C2-   O21
 10546  10549  10551  10552      9     0.00   0.65270   3 ;     C1-    C2-    C3-    HA
 10546  10549  10551  10553      9     0.00   0.65270   3 ;     C1-    C2-    C3-    HB
 10546  10549  10551  10554      9   180.00   3.34720   1 ;     C1-    C2-    C3-   O31
 10546  10549  10578  10579      9     0.00  -0.41840   1 ;     C1-    C2-   O21-   C21
 10547  10546  10549  10550      9     0.00   0.65270   3 ;     HR-    C1-    C2-    HX
 10547  10546  10549  10551      9     0.00   0.65270   3 ;     HR-    C1-    C2-    C3
 10547  10546  10549  10578      9     0.00   0.00000   0 ;     HR-    C1-    C2-   O21
 10547  10546  10549  10578      9     0.00   1.04600   1 ;     HR-    C1-    C2-   O21
 10548  10546  10549  10550      9     0.00   0.65270   3 ;     HS-    C1-    C2-    HX
 10548  10546  10549  10551      9     0.00   0.65270   3 ;     HS-    C1-    C2-    C3
 10548  10546  10549  10578      9     0.00   0.00000   0 ;     HS-    C1-    C2-   O21
 10548  10546  10549  10578      9     0.00   1.04600   1 ;     HS-    C1-    C2-   O21
 10549  10551  10554  10555      9     0.00   0.00000   0 ;     C2-    C3-   O31-   P31
 10549  10551  10554  10555      9   180.00  -3.34720   2 ;     C2-    C3-   O31-   P31
 10549  10578  10579  10580      9   180.00   5.85760   1 ;     C2-   O21-   C21-   O22
 10549  10578  10579  10580      9   180.00  11.29680   2 ;     C2-   O21-   C21-   O22
 10549  10578  10579  10618      9   180.00  11.29680   2 ;     C2-   O21-   C21-   C12
 10550  10549  10551  10552      9     0.00   0.65270   3 ;     HX-    C2-    C3-    HA
 10550  10549  10551  10553      9     0.00   0.65270   3 ;     HX-    C2-    C3-    HB
 10550  10549  10551  10554      9     0.00   0.00000   0 ;     HX-    C2-    C3-   O31
 10550  10549  10551  10554      9     0.00   1.04600   1 ;     HX-    C2-    C3-   O31
 10550  10549  10578  10579      9     0.00   1.60247   3 ;     HX-    C2-   O21-   C21
 10551  10549  10578  10579      9     0.00  -0.41840   1 ;     C3-    C2-   O21-   C21
 10551  10554  10555  10556      9     0.00   2.51040   3 ;     C3-   O31-   P31-   O32
 10551  10554  10555  10556      9     0.00   9.62320   2 ;     C3-   O31-   P31-   O32
 10551  10554  10555  10576      9     0.00   0.00000   0 ;     C3-   O31-   P31-   O33
 10551  10554  10555  10576      9     0.00   0.00000   0 ;     C3-   O31-   P31-   O33
 10551  10554  10555  10576      9     0.00   0.00000   0 ;     C3-   O31-   P31-   O33
 10551  10554  10555  10576      9     0.00   0.00000   0 ;     C3-   O31-   P31-   O33
 10551  10554  10555  10576      9     0.00   0.83680   2 ;     C3-   O31-   P31-   O33
 10551  10554  10555  10577      9     0.00   0.00000   0 ;     C3-   O31-   P31-   O34
 10551  10554  10555  10577      9     0.00   0.00000   0 ;     C3-   O31-   P31-   O34
 10551  10554  10555  10577      9     0.00   0.00000   0 ;     C3-   O31-   P31-   O34
 10551  10554  10555  10577      9     0.00   0.00000   0 ;     C3-   O31-   P31-   O34
 10551  10554  10555  10577      9     0.00   0.83680   2 ;     C3-   O31-   P31-   O34
 10552  10551  10549  10578      9     0.00   0.00000   0 ;     HA-    C3-    C2-   O21
 10552  10551  10549  10578      9     0.00   1.04600   1 ;     HA-    C3-    C2-   O21
 10552  10551  10554  10555      9     0.00   0.00000   0 ;     HA-    C3-   O31-   P31
 10552  10551  10554  10555      9     0.00   0.00000   0 ;     HA-    C3-   O31-   P31
 10552  10551  10554  10555      9     0.00   0.00000   0 ;     HA-    C3-   O31-   P31
 10552  10551  10554  10555      9     0.00   0.00000   0 ;     HA-    C3-   O31-   P31
 10552  10551  10554  10555      9     0.00   1.60247   3 ;     HA-    C3-   O31-   P31
 10553  10551  10549  10578      9     0.00   0.00000   0 ;     HB-    C3-    C2-   O21
 10553  10551  10549  10578      9     0.00   1.04600   1 ;     HB-    C3-    C2-   O21
 10553  10551  10554  10555      9     0.00   0.00000   0 ;     HB-    C3-   O31-   P31
 10553  10551  10554  10555      9     0.00   0.00000   0 ;     HB-    C3-   O31-   P31
 10553  10551  10554  10555      9     0.00   0.00000   0 ;     HB-    C3-   O31-   P31
 10553  10551  10554  10555      9     0.00   0.00000   0 ;     HB-    C3-   O31-   P31
 10553  10551  10554  10555      9     0.00   1.60247   3 ;     HB-    C3-   O31-   P31
 10554  10551  10549  10578      9     0.00   0.00000   0 ;    O31-    C3-    C2-   O21
 10554  10551  10549  10578      9     0.00   0.00000   0 ;    O31-    C3-    C2-   O21
 10554  10551  10549  10578      9     0.00   0.00000   0 ;    O31-    C3-    C2-   O21
 10554  10551  10549  10578      9     0.00   0.00000   0 ;    O31-    C3-    C2-   O21
 10554  10551  10549  10578      9     0.00   0.00000   0 ;    O31-    C3-    C2-   O21
 10554  10555  10556  10557      9     0.00   2.51040   3 ;    O31-   P31-   O32-   C31
 10554  10555  10556  10557      9     0.00   9.62320   2 ;    O31-   P31-   O32-   C31
 10555  10556  10557  10558      9     0.00   0.00000   0 ;    P31-   O32-   C31-   H1A
 10555  10556  10557  10558      9     0.00   0.00000   0 ;    P31-   O32-   C31-   H1A
 10555  10556  10557  10558      9     0.00   0.00000   0 ;    P31-   O32-   C31-   H1A
 10555  10556  10557  10558      9     0.00   0.00000   0 ;    P31-   O32-   C31-   H1A
 10555  10556  10557  10558      9     0.00   1.60247   3 ;    P31-   O32-   C31-   H1A
 10555  10556  10557  10559      9     0.00   0.00000   0 ;    P31-   O32-   C31-   H1B
 10555  10556  10557  10559      9     0.00   0.00000   0 ;    P31-   O32-   C31-   H1B
 10555  10556  10557  10559      9     0.00   0.00000   0 ;    P31-   O32-   C31-   H1B
 10555  10556  10557  10559      9     0.00   0.00000   0 ;    P31-   O32-   C31-   H1B
 10555  10556  10557  10559      9     0.00   1.60247   3 ;    P31-   O32-   C31-   H1B
 10555  10556  10557  10560      9     0.00   0.00000   0 ;    P31-   O32-   C31-   C32
 10555  10556  10557  10560      9   180.00  -3.34720   2 ;    P31-   O32-   C31-   C32
 10556  10557  10560  10561      9     0.00   0.65270   3 ;    O32-   C31-   C32-   H2A
 10556  10557  10560  10562      9     0.00   0.65270   3 ;    O32-   C31-   C32-   H2B
 10556  10557  10560  10563      9     0.00   4.18400   3 ;    O32-   C31-   C32-   N31
 10557  10556  10555  10576      9     0.00   0.00000   0 ;    C31-   O32-   P31-   O33
 10557  10556  10555  10576      9     0.00   0.00000   0 ;    C31-   O32-   P31-   O33
 10557  10556  10555  10576      9     0.00   0.00000   0 ;    C31-   O32-   P31-   O33
 10557  10556  10555  10576      9     0.00   0.00000   0 ;    C31-   O32-   P31-   O33
 10557  10556  10555  10576      9     0.00   0.83680   2 ;    C31-   O32-   P31-   O33
 10557  10556  10555  10577      9     0.00   0.00000   0 ;    C31-   O32-   P31-   O34
 10557  10556  10555  10577      9     0.00   0.00000   0 ;    C31-   O32-   P31-   O34
 10557  10556  10555  10577      9     0.00   0.00000   0 ;    C31-   O32-   P31-   O34
 10557  10556  10555  10577      9     0.00   0.00000   0 ;    C31-   O32-   P31-   O34
 10557  10556  10555  10577      9     0.00   0.83680   2 ;    C31-   O32-   P31-   O34
 10557  10560  10563  10564      9     0.00   0.65270   3 ;    C31-   C32-   N31-   C33
 10557  10560  10563  10568      9     0.00   0.65270   3 ;    C31-   C32-   N31-   C34
 10557  10560  10563  10572      9     0.00   0.65270   3 ;    C31-   C32-   N31-   C35
 10558  10557  10560  10561      9     0.00   0.65270   3 ;    H1A-   C31-   C32-   H2A
 10558  10557  10560  10562      9     0.00   0.65270   3 ;    H1A-   C31-   C32-   H2B
 10558  10557  10560  10563      9     0.00   0.65270   3 ;    H1A-   C31-   C32-   N31
 10559  10557  10560  10561      9     0.00   0.65270   3 ;    H1B-   C31-   C32-   H2A
 10559  10557  10560  10562      9     0.00   0.65270   3 ;    H1B-   C31-   C32-   H2B
 10559  10557  10560  10563      9     0.00   0.65270   3 ;    H1B-   C31-   C32-   N31
 10560  10563  10564  10565      9     0.00   0.65270   3 ;    C32-   N31-   C33-   H3A
 10560  10563  10564  10566      9     0.00   0.65270   3 ;    C32-   N31-   C33-   H3B
 10560  10563  10564  10567      9     0.00   0.65270   3 ;    C32-   N31-   C33-   H3C
 10560  10563  10568  10569      9     0.00   0.65270   3 ;    C32-   N31-   C34-   H4A
 10560  10563  10568  10570      9     0.00   0.65270   3 ;    C32-   N31-   C34-   H4B
 10560  10563  10568  10571      9     0.00   0.65270   3 ;    C32-   N31-   C34-   H4C
 10560  10563  10572  10573      9     0.00   0.65270   3 ;    C32-   N31-   C35-   H5A
 10560  10563  10572  10574      9     0.00   0.65270   3 ;    C32-   N31-   C35-   H5B
 10560  10563  10572  10575      9     0.00   0.65270   3 ;    C32-   N31-   C35-   H5C
 10561  10560  10563  10564      9     0.00   0.65270   3 ;    H2A-   C32-   N31-   C33
 10561  10560  10563  10568      9     0.00   0.65270   3 ;    H2A-   C32-   N31-   C34
 10561  10560  10563  10572      9     0.00   0.65270   3 ;    H2A-   C32-   N31-   C35
 10562  10560  10563  10564      9     0.00   0.65270   3 ;    H2B-   C32-   N31-   C33
 10562  10560  10563  10568      9     0.00   0.65270   3 ;    H2B-   C32-   N31-   C34
 10562  10560  10563  10572      9     0.00   0.65270   3 ;    H2B-   C32-   N31-   C35
 10564  10563  10568  10569      9     0.00   0.65270   3 ;    C33-   N31-   C34-   H4A
 10564  10563  10568  10570      9     0.00   0.65270   3 ;    C33-   N31-   C34-   H4B
 10564  10563  10568  10571      9     0.00   0.65270   3 ;    C33-   N31-   C34-   H4C
 10564  10563  10572  10573      9     0.00   0.65270   3 ;    C33-   N31-   C35-   H5A
 10564  10563  10572  10574      9     0.00   0.65270   3 ;    C33-   N31-   C35-   H5B
 10564  10563  10572  10575      9     0.00   0.65270   3 ;    C33-   N31-   C35-   H5C
 10565  10564  10563  10568      9     0.00   0.65270   3 ;    H3A-   C33-   N31-   C34
 10565  10564  10563  10572      9     0.00   0.65270   3 ;    H3A-   C33-   N31-   C35
 10566  10564  10563  10568      9     0.00   0.65270   3 ;    H3B-   C33-   N31-   C34
 10566  10564  10563  10572      9     0.00   0.65270   3 ;    H3B-   C33-   N31-   C35
 10567  10564  10563  10568      9     0.00   0.65270   3 ;    H3C-   C33-   N31-   C34
 10567  10564  10563  10572      9     0.00   0.65270   3 ;    H3C-   C33-   N31-   C35
 10568  10563  10572  10573      9     0.00   0.65270   3 ;    C34-   N31-   C35-   H5A
 10568  10563  10572  10574      9     0.00   0.65270   3 ;    C34-   N31-   C35-   H5B
 10568  10563  10572  10575      9     0.00   0.65270   3 ;    C34-   N31-   C35-   H5C
 10569  10568  10563  10572      9     0.00   0.65270   3 ;    H4A-   C34-   N31-   C35
 10570  10568  10563  10572      9     0.00   0.65270   3 ;    H4B-   C34-   N31-   C35
 10571  10568  10563  10572      9     0.00   0.65270   3 ;    H4C-   C34-   N31-   C35
 10578  10579  10618  10615      9   180.00   0.00000   2 ;    O21-   C21-   C12-   C13
 10578  10579  10618  10619      9   180.00   0.00000   2 ;    O21-   C21-   C12-   H2R
 10578  10579  10618  10620      9   180.00   0.00000   2 ;    O21-   C21-   C12-   H2S
 10579  10618  10615  10612      9     0.00   0.65270   3 ;    C21-   C12-   C13-   C14
 10579  10618  10615  10616      9     0.00   0.65270   3 ;    C21-   C12-   C13-   H3R
 10579  10618  10615  10617      9     0.00   0.65270   3 ;    C21-   C12-   C13-   H3S
 10580  10579  10618  10615      9   180.00   0.00000   2 ;    O22-   C21-   C12-   C13
 10580  10579  10618  10619      9     0.00   3.34720   1 ;    O22-   C21-   C12-   H2R
 10580  10579  10618  10619      9   180.00   0.33472   3 ;    O22-   C21-   C12-   H2R
 10580  10579  10618  10620      9     0.00   3.34720   1 ;    O22-   C21-   C12-   H2S
 10580  10579  10618  10620      9   180.00   0.33472   3 ;    O22-   C21-   C12-   H2S
 10581  10582  10585  10586      9     0.00   0.62760   3 ;   H14T-  C114-  C113-  H13R
 10581  10582  10585  10587      9     0.00   0.62760   3 ;   H14T-  C114-  C113-  H13S
 10581  10582  10585  10588      9     0.00   0.66944   3 ;   H14T-  C114-  C113-  C112
 10582  10585  10588  10589      9     0.00   0.66944   3 ;   C114-  C113-  C112-  H12R
 10582  10585  10588  10590      9     0.00   0.66944   3 ;   C114-  C113-  C112-  H12S
 10582  10585  10588  10591      9     0.00   0.41840   1 ;   C114-  C113-  C112-  C111
 10582  10585  10588  10591      9     0.00   0.41840   2 ;   C114-  C113-  C112-  C111
 10582  10585  10588  10591      9     0.00   0.41840   4 ;   C114-  C113-  C112-  C111
 10582  10585  10588  10591      9     0.00   0.41840   5 ;   C114-  C113-  C112-  C111
 10582  10585  10588  10591      9     0.00   1.25520   3 ;   C114-  C113-  C112-  C111
 10583  10582  10585  10586      9     0.00   0.62760   3 ;   H14R-  C114-  C113-  H13R
 10583  10582  10585  10587      9     0.00   0.62760   3 ;   H14R-  C114-  C113-  H13S
 10583  10582  10585  10588      9     0.00   0.66944   3 ;   H14R-  C114-  C113-  C112
 10584  10582  10585  10586      9     0.00   0.62760   3 ;   H14S-  C114-  C113-  H13R
 10584  10582  10585  10587      9     0.00   0.62760   3 ;   H14S-  C114-  C113-  H13S
 10584  10582  10585  10588      9     0.00   0.66944   3 ;   H14S-  C114-  C113-  C112
 10585  10588  10591  10592      9     0.00   0.66944   3 ;   C113-  C112-  C111-  H11R
 10585  10588  10591  10593      9     0.00   0.66944   3 ;   C113-  C112-  C111-  H11S
 10585  10588  10591  10594      9     0.00   0.41840   1 ;   C113-  C112-  C111-  C110
 10585  10588  10591  10594      9     0.00   0.41840   2 ;   C113-  C112-  C111-  C110
 10585  10588  10591  10594      9     0.00   0.41840   4 ;   C113-  C112-  C111-  C110
 10585  10588  10591  10594      9     0.00   0.41840   5 ;   C113-  C112-  C111-  C110
 10585  10588  10591  10594      9     0.00   1.25520   3 ;   C113-  C112-  C111-  C110
 10586  10585  10588  10589      9     0.00   0.62760   3 ;   H13R-  C113-  C112-  H12R
 10586  10585  10588  10590      9     0.00   0.62760   3 ;   H13R-  C113-  C112-  H12S
 10586  10585  10588  10591      9     0.00   0.66944   3 ;   H13R-  C113-  C112-  C111
 10587  10585  10588  10589      9     0.00   0.62760   3 ;   H13S-  C113-  C112-  H12R
 10587  10585  10588  10590      9     0.00   0.62760   3 ;   H13S-  C113-  C112-  H12S
 10587  10585  10588  10591      9     0.00   0.66944   3 ;   H13S-  C113-  C112-  C111
 10588  10591  10594  10595      9     0.00   0.66944   3 ;   C112-  C111-  C110-  H10R
 10588  10591  10594  10596      9     0.00   0.66944   3 ;   C112-  C111-  C110-  H10S
 10588  10591  10594  10597      9     0.00   0.41840   1 ;   C112-  C111-  C110-   C19
 10588  10591  10594  10597      9     0.00   0.41840   2 ;   C112-  C111-  C110-   C19
 10588  10591  10594  10597      9     0.00   0.41840   4 ;   C112-  C111-  C110-   C19
 10588  10591  10594  10597      9     0.00   0.41840   5 ;   C112-  C111-  C110-   C19
 10588  10591  10594  10597      9     0.00   1.25520   3 ;   C112-  C111-  C110-   C19
 10589  10588  10591  10592      9     0.00   0.62760   3 ;   H12R-  C112-  C111-  H11R
 10589  10588  10591  10593      9     0.00   0.62760   3 ;   H12R-  C112-  C111-  H11S
 10589  10588  10591  10594      9     0.00   0.66944   3 ;   H12R-  C112-  C111-  C110
 10590  10588  10591  10592      9     0.00   0.62760   3 ;   H12S-  C112-  C111-  H11R
 10590  10588  10591  10593      9     0.00   0.62760   3 ;   H12S-  C112-  C111-  H11S
 10590  10588  10591  10594      9     0.00   0.66944   3 ;   H12S-  C112-  C111-  C110
 10591  10594  10597  10598      9     0.00   0.66944   3 ;   C111-  C110-   C19-   H9R
 10591  10594  10597  10599      9     0.00   0.66944   3 ;   C111-  C110-   C19-   H9S
 10591  10594  10597  10600      9     0.00   0.41840   1 ;   C111-  C110-   C19-   C18
 10591  10594  10597  10600      9     0.00   0.41840   2 ;   C111-  C110-   C19-   C18
 10591  10594  10597  10600      9     0.00   0.41840   4 ;   C111-  C110-   C19-   C18
 10591  10594  10597  10600      9     0.00   0.41840   5 ;   C111-  C110-   C19-   C18
 10591  10594  10597  10600      9     0.00   1.25520   3 ;   C111-  C110-   C19-   C18
 10592  10591  10594  10595      9     0.00   0.62760   3 ;   H11R-  C111-  C110-  H10R
 10592  10591  10594  10596      9     0.00   0.62760   3 ;   H11R-  C111-  C110-  H10S
 10592  10591  10594  10597      9     0.00   0.66944   3 ;   H11R-  C111-  C110-   C19
 10593  10591  10594  10595      9     0.00   0.62760   3 ;   H11S-  C111-  C110-  H10R
 10593  10591  10594  10596      9     0.00   0.62760   3 ;   H11S-  C111-  C110-  H10S
 10593  10591  10594  10597      9     0.00   0.66944   3 ;   H11S-  C111-  C110-   C19
 10594  10597  10600  10601      9     0.00   0.66944   3 ;   C110-   C19-   C18-   H8R
 10594  10597  10600  10602      9     0.00   0.66944   3 ;   C110-   C19-   C18-   H8S
 10594  10597  10600  10603      9     0.00   0.41840   1 ;   C110-   C19-   C18-   C17
 10594  10597  10600  10603      9     0.00   0.41840   2 ;   C110-   C19-   C18-   C17
 10594  10597  10600  10603      9     0.00   0.41840   4 ;   C110-   C19-   C18-   C17
 10594  10597  10600  10603      9     0.00   0.41840   5 ;   C110-   C19-   C18-   C17
 10594  10597  10600  10603      9     0.00   1.25520   3 ;   C110-   C19-   C18-   C17
 10595  10594  10597  10598      9     0.00   0.62760   3 ;   H10R-  C110-   C19-   H9R
 10595  10594  10597  10599      9     0.00   0.62760   3 ;   H10R-  C110-   C19-   H9S
 10595  10594  10597  10600      9     0.00   0.66944   3 ;   H10R-  C110-   C19-   C18
 10596  10594  10597  10598      9     0.00   0.62760   3 ;   H10S-  C110-   C19-   H9R
 10596  10594  10597  10599      9     0.00   0.62760   3 ;   H10S-  C110-   C19-   H9S
 10596  10594  10597  10600      9     0.00   0.66944   3 ;   H10S-  C110-   C19-   C18
 10597  10600  10603  10604      9     0.00   0.66944   3 ;    C19-   C18-   C17-   H7R
 10597  10600  10603  10605      9     0.00   0.66944   3 ;    C19-   C18-   C17-   H7S
 10597  10600  10603  10606      9     0.00   0.41840   1 ;    C19-   C18-   C17-   C16
 10597  10600  10603  10606      9     0.00   0.41840   2 ;    C19-   C18-   C17-   C16
 10597  10600  10603  10606      9     0.00   0.41840   4 ;    C19-   C18-   C17-   C16
 10597  10600  10603  10606      9     0.00   0.41840   5 ;    C19-   C18-   C17-   C16
 10597  10600  10603  10606      9     0.00   1.25520   3 ;    C19-   C18-   C17-   C16
 10598  10597  10600  10601      9     0.00   0.62760   3 ;    H9R-   C19-   C18-   H8R
 10598  10597  10600  10602      9     0.00   0.62760   3 ;    H9R-   C19-   C18-   H8S
 10598  10597  10600  10603      9     0.00   0.66944   3 ;    H9R-   C19-   C18-   C17
 10599  10597  10600  10601      9     0.00   0.62760   3 ;    H9S-   C19-   C18-   H8R
 10599  10597  10600  10602      9     0.00   0.62760   3 ;    H9S-   C19-   C18-   H8S
 10599  10597  10600  10603      9     0.00   0.66944   3 ;    H9S-   C19-   C18-   C17
 10600  10603  10606  10607      9     0.00   0.66944   3 ;    C18-   C17-   C16-   H6R
 10600  10603  10606  10608      9     0.00   0.66944   3 ;    C18-   C17-   C16-   H6S
 10600  10603  10606  10609      9     0.00   0.41840   1 ;    C18-   C17-   C16-   C15
 10600  10603  10606  10609      9     0.00   0.41840   2 ;    C18-   C17-   C16-   C15
 10600  10603  10606  10609      9     0.00   0.41840   4 ;    C18-   C17-   C16-   C15
 10600  10603  10606  10609      9     0.00   0.41840   5 ;    C18-   C17-   C16-   C15
 10600  10603  10606  10609      9     0.00   1.25520   3 ;    C18-   C17-   C16-   C15
 10601  10600  10603  10604      9     0.00   0.62760   3 ;    H8R-   C18-   C17-   H7R
 10601  10600  10603  10605      9     0.00   0.62760   3 ;    H8R-   C18-   C17-   H7S
 10601  10600  10603  10606      9     0.00   0.66944   3 ;    H8R-   C18-   C17-   C16
 10602  10600  10603  10604      9     0.00   0.62760   3 ;    H8S-   C18-   C17-   H7R
 10602  10600  10603  10605      9     0.00   0.62760   3 ;    H8S-   C18-   C17-   H7S
 10602  10600  10603  10606      9     0.00   0.66944   3 ;    H8S-   C18-   C17-   C16
 10603  10606  10609  10610      9     0.00   0.66944   3 ;    C17-   C16-   C15-   H5R
 10603  10606  10609  10611      9     0.00   0.66944   3 ;    C17-   C16-   C15-   H5S
 10603  10606  10609  10612      9     0.00   0.41840   1 ;    C17-   C16-   C15-   C14
 10603  10606  10609  10612      9     0.00   0.41840   2 ;    C17-   C16-   C15-   C14
 10603  10606  10609  10612      9     0.00   0.41840   4 ;    C17-   C16-   C15-   C14
 10603  10606  10609  10612      9     0.00   0.41840   5 ;    C17-   C16-   C15-   C14
 10603  10606  10609  10612      9     0.00   1.25520   3 ;    C17-   C16-   C15-   C14
 10604  10603  10606  10607      9     0.00   0.62760   3 ;    H7R-   C17-   C16-   H6R
 10604  10603  10606  10608      9     0.00   0.62760   3 ;    H7R-   C17-   C16-   H6S
 10604  10603  10606  10609      9     0.00   0.66944   3 ;    H7R-   C17-   C16-   C15
 10605  10603  10606  10607      9     0.00   0.62760   3 ;    H7S-   C17-   C16-   H6R
 10605  10603  10606  10608      9     0.00   0.62760   3 ;    H7S-   C17-   C16-   H6S
 10605  10603  10606  10609      9     0.00   0.66944   3 ;    H7S-   C17-   C16-   C15
 10606  10609  10612  10613      9     0.00   0.66944   3 ;    C16-   C15-   C14-   H4R
 10606  10609  10612  10614      9     0.00   0.66944   3 ;    C16-   C15-   C14-   H4S
 10606  10609  10612  10615      9     0.00   0.41840   1 ;    C16-   C15-   C14-   C13
 10606  10609  10612  10615      9     0.00   0.41840   2 ;    C16-   C15-   C14-   C13
 10606  10609  10612  10615      9     0.00   0.41840   4 ;    C16-   C15-   C14-   C13
 10606  10609  10612  10615      9     0.00   0.41840   5 ;    C16-   C15-   C14-   C13
 10606  10609  10612  10615      9     0.00   1.25520   3 ;    C16-   C15-   C14-   C13
 10607  10606  10609  10610      9     0.00   0.62760   3 ;    H6R-   C16-   C15-   H5R
 10607  10606  10609  10611      9     0.00   0.62760   3 ;    H6R-   C16-   C15-   H5S
 10607  10606  10609  10612      9     0.00   0.66944   3 ;    H6R-   C16-   C15-   C14
 10608  10606  10609  10610      9     0.00   0.62760   3 ;    H6S-   C16-   C15-   H5R
 10608  10606  10609  10611      9     0.00   0.62760   3 ;    H6S-   C16-   C15-   H5S
 10608  10606  10609  10612      9     0.00   0.66944   3 ;    H6S-   C16-   C15-   C14
 10609  10612  10615  10616      9     0.00   0.66944   3 ;    C15-   C14-   C13-   H3R
 10609  10612  10615  10617      9     0.00   0.66944   3 ;    C15-   C14-   C13-   H3S
 10609  10612  10615  10618      9     0.00   0.41840   1 ;    C15-   C14-   C13-   C12
 10609  10612  10615  10618      9     0.00   0.41840   2 ;    C15-   C14-   C13-   C12
 10609  10612  10615  10618      9     0.00   0.41840   4 ;    C15-   C14-   C13-   C12
 10609  10612  10615  10618      9     0.00   0.41840   5 ;    C15-   C14-   C13-   C12
 10609  10612  10615  10618      9     0.00   1.25520   3 ;    C15-   C14-   C13-   C12
 10610  10609  10612  10613      9     0.00   0.62760   3 ;    H5R-   C15-   C14-   H4R
 10610  10609  10612  10614      9     0.00   0.62760   3 ;    H5R-   C15-   C14-   H4S
 10610  10609  10612  10615      9     0.00   0.66944   3 ;    H5R-   C15-   C14-   C13
 10611  10609  10612  10613      9     0.00   0.62760   3 ;    H5S-   C15-   C14-   H4R
 10611  10609  10612  10614      9     0.00   0.62760   3 ;    H5S-   C15-   C14-   H4S
 10611  10609  10612  10615      9     0.00   0.66944   3 ;    H5S-   C15-   C14-   C13
 10612  10615  10618  10619      9     0.00   0.66944   3 ;    C14-   C13-   C12-   H2R
 10612  10615  10618  10620      9     0.00   0.66944   3 ;    C14-   C13-   C12-   H2S
 10613  10612  10615  10616      9     0.00   0.62760   3 ;    H4R-   C14-   C13-   H3R
 10613  10612  10615  10617      9     0.00   0.62760   3 ;    H4R-   C14-   C13-   H3S
 10613  10612  10615  10618      9     0.00   0.66944   3 ;    H4R-   C14-   C13-   C12
 10614  10612  10615  10616      9     0.00   0.62760   3 ;    H4S-   C14-   C13-   H3R
 10614  10612  10615  10617      9     0.00   0.62760   3 ;    H4S-   C14-   C13-   H3S
 10614  10612  10615  10618      9     0.00   0.66944   3 ;    H4S-   C14-   C13-   C12
 10616  10615  10618  10619      9     0.00   0.62760   3 ;    H3R-   C13-   C12-   H2R
 10616  10615  10618  10620      9     0.00   0.62760   3 ;    H3R-   C13-   C12-   H2S
 10617  10615  10618  10619      9     0.00   0.62760   3 ;    H3S-   C13-   C12-   H2R
 10617  10615  10618  10620      9     0.00   0.62760   3 ;    H3S-   C13-   C12-   H2S
 10621  10622  10625  10626      9     0.00   0.62760   3 ;   H14T-  C114-  C113-  H13R
 10621  10622  10625  10627      9     0.00   0.62760   3 ;   H14T-  C114-  C113-  H13S
 10621  10622  10625  10628      9     0.00   0.66944   3 ;   H14T-  C114-  C113-  C112
 10622  10625  10628  10629      9     0.00   0.66944   3 ;   C114-  C113-  C112-  H12R
 10622  10625  10628  10630      9     0.00   0.66944   3 ;   C114-  C113-  C112-  H12S
 10622  10625  10628  10631      9     0.00   0.41840   1 ;   C114-  C113-  C112-  C111
 10622  10625  10628  10631      9     0.00   0.41840   2 ;   C114-  C113-  C112-  C111
 10622  10625  10628  10631      9     0.00   0.41840   4 ;   C114-  C113-  C112-  C111
 10622  10625  10628  10631      9     0.00   0.41840   5 ;   C114-  C113-  C112-  C111
 10622  10625  10628  10631      9     0.00   1.25520   3 ;   C114-  C113-  C112-  C111
 10623  10622  10625  10626      9     0.00   0.62760   3 ;   H14R-  C114-  C113-  H13R
 10623  10622  10625  10627      9     0.00   0.62760   3 ;   H14R-  C114-  C113-  H13S
 10623  10622  10625  10628      9     0.00   0.66944   3 ;   H14R-  C114-  C113-  C112
 10624  10622  10625  10626      9     0.00   0.62760   3 ;   H14S-  C114-  C113-  H13R
 10624  10622  10625  10627      9     0.00   0.62760   3 ;   H14S-  C114-  C113-  H13S
 10624  10622  10625  10628      9     0.00   0.66944   3 ;   H14S-  C114-  C113-  C112
 10625  10628  10631  10632      9     0.00   0.66944   3 ;   C113-  C112-  C111-  H11R
 10625  10628  10631  10633      9     0.00   0.66944   3 ;   C113-  C112-  C111-  H11S
 10625  10628  10631  10634      9     0.00   0.41840   1 ;   C113-  C112-  C111-  C110
 10625  10628  10631  10634      9     0.00   0.41840   2 ;   C113-  C112-  C111-  C110
 10625  10628  10631  10634      9     0.00   0.41840   4 ;   C113-  C112-  C111-  C110
 10625  10628  10631  10634      9     0.00   0.41840   5 ;   C113-  C112-  C111-  C110
 10625  10628  10631  10634      9     0.00   1.25520   3 ;   C113-  C112-  C111-  C110
 10626  10625  10628  10629      9     0.00   0.62760   3 ;   H13R-  C113-  C112-  H12R
 10626  10625  10628  10630      9     0.00   0.62760   3 ;   H13R-  C113-  C112-  H12S
 10626  10625  10628  10631      9     0.00   0.66944   3 ;   H13R-  C113-  C112-  C111
 10627  10625  10628  10629      9     0.00   0.62760   3 ;   H13S-  C113-  C112-  H12R
 10627  10625  10628  10630      9     0.00   0.62760   3 ;   H13S-  C113-  C112-  H12S
 10627  10625  10628  10631      9     0.00   0.66944   3 ;   H13S-  C113-  C112-  C111
 10628  10631  10634  10635      9     0.00   0.66944   3 ;   C112-  C111-  C110-  H10R
 10628  10631  10634  10636      9     0.00   0.66944   3 ;   C112-  C111-  C110-  H10S
 10628  10631  10634  10637      9     0.00   0.41840   1 ;   C112-  C111-  C110-   C19
 10628  10631  10634  10637      9     0.00   0.41840   2 ;   C112-  C111-  C110-   C19
 10628  10631  10634  10637      9     0.00   0.41840   4 ;   C112-  C111-  C110-   C19
 10628  10631  10634  10637      9     0.00   0.41840   5 ;   C112-  C111-  C110-   C19
 10628  10631  10634  10637      9     0.00   1.25520   3 ;   C112-  C111-  C110-   C19
 10629  10628  10631  10632      9     0.00   0.62760   3 ;   H12R-  C112-  C111-  H11R
 10629  10628  10631  10633      9     0.00   0.62760   3 ;   H12R-  C112-  C111-  H11S
 10629  10628  10631  10634      9     0.00   0.66944   3 ;   H12R-  C112-  C111-  C110
 10630  10628  10631  10632      9     0.00   0.62760   3 ;   H12S-  C112-  C111-  H11R
 10630  10628  10631  10633      9     0.00   0.62760   3 ;   H12S-  C112-  C111-  H11S
 10630  10628  10631  10634      9     0.00   0.66944   3 ;   H12S-  C112-  C111-  C110
 10631  10634  10637  10638      9     0.00   0.66944   3 ;   C111-  C110-   C19-   H9R
 10631  10634  10637  10639      9     0.00   0.66944   3 ;   C111-  C110-   C19-   H9S
 10631  10634  10637  10640      9     0.00   0.41840   1 ;   C111-  C110-   C19-   C18
 10631  10634  10637  10640      9     0.00   0.41840   2 ;   C111-  C110-   C19-   C18
 10631  10634  10637  10640      9     0.00   0.41840   4 ;   C111-  C110-   C19-   C18
 10631  10634  10637  10640      9     0.00   0.41840   5 ;   C111-  C110-   C19-   C18
 10631  10634  10637  10640      9     0.00   1.25520   3 ;   C111-  C110-   C19-   C18
 10632  10631  10634  10635      9     0.00   0.62760   3 ;   H11R-  C111-  C110-  H10R
 10632  10631  10634  10636      9     0.00   0.62760   3 ;   H11R-  C111-  C110-  H10S
 10632  10631  10634  10637      9     0.00   0.66944   3 ;   H11R-  C111-  C110-   C19
 10633  10631  10634  10635      9     0.00   0.62760   3 ;   H11S-  C111-  C110-  H10R
 10633  10631  10634  10636      9     0.00   0.62760   3 ;   H11S-  C111-  C110-  H10S
 10633  10631  10634  10637      9     0.00   0.66944   3 ;   H11S-  C111-  C110-   C19
 10634  10637  10640  10641      9     0.00   0.66944   3 ;   C110-   C19-   C18-   H8R
 10634  10637  10640  10642      9     0.00   0.66944   3 ;   C110-   C19-   C18-   H8S
 10634  10637  10640  10643      9     0.00   0.41840   1 ;   C110-   C19-   C18-   C17
 10634  10637  10640  10643      9     0.00   0.41840   2 ;   C110-   C19-   C18-   C17
 10634  10637  10640  10643      9     0.00   0.41840   4 ;   C110-   C19-   C18-   C17
 10634  10637  10640  10643      9     0.00   0.41840   5 ;   C110-   C19-   C18-   C17
 10634  10637  10640  10643      9     0.00   1.25520   3 ;   C110-   C19-   C18-   C17
 10635  10634  10637  10638      9     0.00   0.62760   3 ;   H10R-  C110-   C19-   H9R
 10635  10634  10637  10639      9     0.00   0.62760   3 ;   H10R-  C110-   C19-   H9S
 10635  10634  10637  10640      9     0.00   0.66944   3 ;   H10R-  C110-   C19-   C18
 10636  10634  10637  10638      9     0.00   0.62760   3 ;   H10S-  C110-   C19-   H9R
 10636  10634  10637  10639      9     0.00   0.62760   3 ;   H10S-  C110-   C19-   H9S
 10636  10634  10637  10640      9     0.00   0.66944   3 ;   H10S-  C110-   C19-   C18
 10637  10640  10643  10644      9     0.00   0.66944   3 ;    C19-   C18-   C17-   H7R
 10637  10640  10643  10645      9     0.00   0.66944   3 ;    C19-   C18-   C17-   H7S
 10637  10640  10643  10646      9     0.00   0.41840   1 ;    C19-   C18-   C17-   C16
 10637  10640  10643  10646      9     0.00   0.41840   2 ;    C19-   C18-   C17-   C16
 10637  10640  10643  10646      9     0.00   0.41840   4 ;    C19-   C18-   C17-   C16
 10637  10640  10643  10646      9     0.00   0.41840   5 ;    C19-   C18-   C17-   C16
 10637  10640  10643  10646      9     0.00   1.25520   3 ;    C19-   C18-   C17-   C16
 10638  10637  10640  10641      9     0.00   0.62760   3 ;    H9R-   C19-   C18-   H8R
 10638  10637  10640  10642      9     0.00   0.62760   3 ;    H9R-   C19-   C18-   H8S
 10638  10637  10640  10643      9     0.00   0.66944   3 ;    H9R-   C19-   C18-   C17
 10639  10637  10640  10641      9     0.00   0.62760   3 ;    H9S-   C19-   C18-   H8R
 10639  10637  10640  10642      9     0.00   0.62760   3 ;    H9S-   C19-   C18-   H8S
 10639  10637  10640  10643      9     0.00   0.66944   3 ;    H9S-   C19-   C18-   C17
 10640  10643  10646  10647      9     0.00   0.66944   3 ;    C18-   C17-   C16-   H6R
 10640  10643  10646  10648      9     0.00   0.66944   3 ;    C18-   C17-   C16-   H6S
 10640  10643  10646  10649      9     0.00   0.41840   1 ;    C18-   C17-   C16-   C15
 10640  10643  10646  10649      9     0.00   0.41840   2 ;    C18-   C17-   C16-   C15
 10640  10643  10646  10649      9     0.00   0.41840   4 ;    C18-   C17-   C16-   C15
 10640  10643  10646  10649      9     0.00   0.41840   5 ;    C18-   C17-   C16-   C15
 10640  10643  10646  10649      9     0.00   1.25520   3 ;    C18-   C17-   C16-   C15
 10641  10640  10643  10644      9     0.00   0.62760   3 ;    H8R-   C18-   C17-   H7R
 10641  10640  10643  10645      9     0.00   0.62760   3 ;    H8R-   C18-   C17-   H7S
 10641  10640  10643  10646      9     0.00   0.66944   3 ;    H8R-   C18-   C17-   C16
 10642  10640  10643  10644      9     0.00   0.62760   3 ;    H8S-   C18-   C17-   H7R
 10642  10640  10643  10645      9     0.00   0.62760   3 ;    H8S-   C18-   C17-   H7S
 10642  10640  10643  10646      9     0.00   0.66944   3 ;    H8S-   C18-   C17-   C16
 10643  10646  10649  10650      9     0.00   0.66944   3 ;    C17-   C16-   C15-   H5R
 10643  10646  10649  10651      9     0.00   0.66944   3 ;    C17-   C16-   C15-   H5S
 10643  10646  10649  10652      9     0.00   0.41840   1 ;    C17-   C16-   C15-   C14
 10643  10646  10649  10652      9     0.00   0.41840   2 ;    C17-   C16-   C15-   C14
 10643  10646  10649  10652      9     0.00   0.41840   4 ;    C17-   C16-   C15-   C14
 10643  10646  10649  10652      9     0.00   0.41840   5 ;    C17-   C16-   C15-   C14
 10643  10646  10649  10652      9     0.00   1.25520   3 ;    C17-   C16-   C15-   C14
 10644  10643  10646  10647      9     0.00   0.62760   3 ;    H7R-   C17-   C16-   H6R
 10644  10643  10646  10648      9     0.00   0.62760   3 ;    H7R-   C17-   C16-   H6S
 10644  10643  10646  10649      9     0.00   0.66944   3 ;    H7R-   C17-   C16-   C15
 10645  10643  10646  10647      9     0.00   0.62760   3 ;    H7S-   C17-   C16-   H6R
 10645  10643  10646  10648      9     0.00   0.62760   3 ;    H7S-   C17-   C16-   H6S
 10645  10643  10646  10649      9     0.00   0.66944   3 ;    H7S-   C17-   C16-   C15
 10646  10649  10652  10653      9     0.00   0.66944   3 ;    C16-   C15-   C14-   H4R
 10646  10649  10652  10654      9     0.00   0.66944   3 ;    C16-   C15-   C14-   H4S
 10646  10649  10652  10655      9     0.00   0.41840   1 ;    C16-   C15-   C14-   C13
 10646  10649  10652  10655      9     0.00   0.41840   2 ;    C16-   C15-   C14-   C13
 10646  10649  10652  10655      9     0.00   0.41840   4 ;    C16-   C15-   C14-   C13
 10646  10649  10652  10655      9     0.00   0.41840   5 ;    C16-   C15-   C14-   C13
 10646  10649  10652  10655      9     0.00   1.25520   3 ;    C16-   C15-   C14-   C13
 10647  10646  10649  10650      9     0.00   0.62760   3 ;    H6R-   C16-   C15-   H5R
 10647  10646  10649  10651      9     0.00   0.62760   3 ;    H6R-   C16-   C15-   H5S
 10647  10646  10649  10652      9     0.00   0.66944   3 ;    H6R-   C16-   C15-   C14
 10648  10646  10649  10650      9     0.00   0.62760   3 ;    H6S-   C16-   C15-   H5R
 10648  10646  10649  10651      9     0.00   0.62760   3 ;    H6S-   C16-   C15-   H5S
 10648  10646  10649  10652      9     0.00   0.66944   3 ;    H6S-   C16-   C15-   C14
 10649  10652  10655  10656      9     0.00   0.66944   3 ;    C15-   C14-   C13-   H3R
 10649  10652  10655  10657      9     0.00   0.66944   3 ;    C15-   C14-   C13-   H3S
 10649  10652  10655  10658      9     0.00   0.41840   1 ;    C15-   C14-   C13-   C12
 10649  10652  10655  10658      9     0.00   0.41840   2 ;    C15-   C14-   C13-   C12
 10649  10652  10655  10658      9     0.00   0.41840   4 ;    C15-   C14-   C13-   C12
 10649  10652  10655  10658      9     0.00   0.41840   5 ;    C15-   C14-   C13-   C12
 10649  10652  10655  10658      9     0.00   1.25520   3 ;    C15-   C14-   C13-   C12
 10650  10649  10652  10653      9     0.00   0.62760   3 ;    H5R-   C15-   C14-   H4R
 10650  10649  10652  10654      9     0.00   0.62760   3 ;    H5R-   C15-   C14-   H4S
 10650  10649  10652  10655      9     0.00   0.66944   3 ;    H5R-   C15-   C14-   C13
 10651  10649  10652  10653      9     0.00   0.62760   3 ;    H5S-   C15-   C14-   H4R
 10651  10649  10652  10654      9     0.00   0.62760   3 ;    H5S-   C15-   C14-   H4S
 10651  10649  10652  10655      9     0.00   0.66944   3 ;    H5S-   C15-   C14-   C13
 10652  10655  10658  10659      9     0.00   0.66944   3 ;    C14-   C13-   C12-   H2R
 10652  10655  10658  10660      9     0.00   0.66944   3 ;    C14-   C13-   C12-   H2S
 10652  10655  10658  10661      9     0.00   0.65270   3 ;    C14-   C13-   C12-   C11
 10653  10652  10655  10656      9     0.00   0.62760   3 ;    H4R-   C14-   C13-   H3R
 10653  10652  10655  10657      9     0.00   0.62760   3 ;    H4R-   C14-   C13-   H3S
 10653  10652  10655  10658      9     0.00   0.66944   3 ;    H4R-   C14-   C13-   C12
 10654  10652  10655  10656      9     0.00   0.62760   3 ;    H4S-   C14-   C13-   H3R
 10654  10652  10655  10657      9     0.00   0.62760   3 ;    H4S-   C14-   C13-   H3S
 10654  10652  10655  10658      9     0.00   0.66944   3 ;    H4S-   C14-   C13-   C12
 10655  10658  10661  10662      9   180.00   0.00000   2 ;    C13-   C12-   C11-   O12
 10655  10658  10661  10663      9   180.00   0.00000   2 ;    C13-   C12-   C11-   O11
 10656  10655  10658  10659      9     0.00   0.62760   3 ;    H3R-   C13-   C12-   H2R
 10656  10655  10658  10660      9     0.00   0.62760   3 ;    H3R-   C13-   C12-   H2S
 10656  10655  10658  10661      9     0.00   0.65270   3 ;    H3R-   C13-   C12-   C11
 10657  10655  10658  10659      9     0.00   0.62760   3 ;    H3S-   C13-   C12-   H2R
 10657  10655  10658  10660      9     0.00   0.62760   3 ;    H3S-   C13-   C12-   H2S
 10657  10655  10658  10661      9     0.00   0.65270   3 ;    H3S-   C13-   C12-   C11
 10658  10661  10663  10664      9   180.00  11.29680   2 ;    C12-   C11-   O11-    C1
 10659  10658  10661  10662      9     0.00   3.34720   1 ;    H2R-   C12-   C11-   O12
 10659  10658  10661  10662      9   180.00   0.33472   3 ;    H2R-   C12-   C11-   O12
 10659  10658  10661  10663      9   180.00   0.00000   2 ;    H2R-   C12-   C11-   O11
 10660  10658  10661  10662      9     0.00   3.34720   1 ;    H2S-   C12-   C11-   O12
 10660  10658  10661  10662      9   180.00   0.33472   3 ;    H2S-   C12-   C11-   O12
 10660  10658  10661  10663      9   180.00   0.00000   2 ;    H2S-   C12-   C11-   O11
 10661  10663  10664  10665      9     0.00   1.60247   3 ;    C11-   O11-    C1-    HR
 10661  10663  10664  10666      9     0.00   1.60247   3 ;    C11-   O11-    C1-    HS
 10661  10663  10664  10667      9     0.00  -0.41840   1 ;    C11-   O11-    C1-    C2
 10662  10661  10663  10664      9   180.00   5.85760   1 ;    O12-   C11-   O11-    C1
 10662  10661  10663  10664      9   180.00  11.29680   2 ;    O12-   C11-   O11-    C1
 10663  10664  10667  10668      9     0.00   0.00000   0 ;    O11-    C1-    C2-    HX
 10663  10664  10667  10668      9     0.00   1.04600   1 ;    O11-    C1-    C2-    HX
 10663  10664  10667  10669      9     0.00   0.00000   0 ;    O11-    C1-    C2-    C3
 10663  10664  10667  10669      9     0.00   0.00000   0 ;    O11-    C1-    C2-    C3
 10663  10664  10667  10669      9     0.00   0.00000   0 ;    O11-    C1-    C2-    C3
 10663  10664  10667  10669      9     0.00   0.00000   0 ;    O11-    C1-    C2-    C3
 10663  10664  10667  10669      9     0.00   0.00000   0 ;    O11-    C1-    C2-    C3
 10663  10664  10667  10696      9     0.00   1.25520   2 ;    O11-    C1-    C2-   O21
 10663  10664  10667  10696      9     0.00   4.18400   3 ;    O11-    C1-    C2-   O21
 10663  10664  10667  10696      9   180.00  -0.41840   1 ;    O11-    C1-    C2-   O21
 10664  10667  10669  10670      9     0.00   0.65270   3 ;     C1-    C2-    C3-    HA
 10664  10667  10669  10671      9     0.00   0.65270   3 ;     C1-    C2-    C3-    HB
 10664  10667  10669  10672      9   180.00   3.34720   1 ;     C1-    C2-    C3-   O31
 10664  10667  10696  10697      9     0.00  -0.41840   1 ;     C1-    C2-   O21-   C21
 10665  10664  10667  10668      9     0.00   0.65270   3 ;     HR-    C1-    C2-    HX
 10665  10664  10667  10669      9     0.00   0.65270   3 ;     HR-    C1-    C2-    C3
 10665  10664  10667  10696      9     0.00   0.00000   0 ;     HR-    C1-    C2-   O21
 10665  10664  10667  10696      9     0.00   1.04600   1 ;     HR-    C1-    C2-   O21
 10666  10664  10667  10668      9     0.00   0.65270   3 ;     HS-    C1-    C2-    HX
 10666  10664  10667  10669      9     0.00   0.65270   3 ;     HS-    C1-    C2-    C3
 10666  10664  10667  10696      9     0.00   0.00000   0 ;     HS-    C1-    C2-   O21
 10666  10664  10667  10696      9     0.00   1.04600   1 ;     HS-    C1-    C2-   O21
 10667  10669  10672  10673      9     0.00   0.00000   0 ;     C2-    C3-   O31-   P31
 10667  10669  10672  10673      9   180.00  -3.34720   2 ;     C2-    C3-   O31-   P31
 10667  10696  10697  10698      9   180.00   5.85760   1 ;     C2-   O21-   C21-   O22
 10667  10696  10697  10698      9   180.00  11.29680   2 ;     C2-   O21-   C21-   O22
 10667  10696  10697  10736      9   180.00  11.29680   2 ;     C2-   O21-   C21-   C12
 10668  10667  10669  10670      9     0.00   0.65270   3 ;     HX-    C2-    C3-    HA
 10668  10667  10669  10671      9     0.00   0.65270   3 ;     HX-    C2-    C3-    HB
 10668  10667  10669  10672      9     0.00   0.00000   0 ;     HX-    C2-    C3-   O31
 10668  10667  10669  10672      9     0.00   1.04600   1 ;     HX-    C2-    C3-   O31
 10668  10667  10696  10697      9     0.00   1.60247   3 ;     HX-    C2-   O21-   C21
 10669  10667  10696  10697      9     0.00  -0.41840   1 ;     C3-    C2-   O21-   C21
 10669  10672  10673  10674      9     0.00   2.51040   3 ;     C3-   O31-   P31-   O32
 10669  10672  10673  10674      9     0.00   9.62320   2 ;     C3-   O31-   P31-   O32
 10669  10672  10673  10694      9     0.00   0.00000   0 ;     C3-   O31-   P31-   O33
 10669  10672  10673  10694      9     0.00   0.00000   0 ;     C3-   O31-   P31-   O33
 10669  10672  10673  10694      9     0.00   0.00000   0 ;     C3-   O31-   P31-   O33
 10669  10672  10673  10694      9     0.00   0.00000   0 ;     C3-   O31-   P31-   O33
 10669  10672  10673  10694      9     0.00   0.83680   2 ;     C3-   O31-   P31-   O33
 10669  10672  10673  10695      9     0.00   0.00000   0 ;     C3-   O31-   P31-   O34
 10669  10672  10673  10695      9     0.00   0.00000   0 ;     C3-   O31-   P31-   O34
 10669  10672  10673  10695      9     0.00   0.00000   0 ;     C3-   O31-   P31-   O34
 10669  10672  10673  10695      9     0.00   0.00000   0 ;     C3-   O31-   P31-   O34
 10669  10672  10673  10695      9     0.00   0.83680   2 ;     C3-   O31-   P31-   O34
 10670  10669  10667  10696      9     0.00   0.00000   0 ;     HA-    C3-    C2-   O21
 10670  10669  10667  10696      9     0.00   1.04600   1 ;     HA-    C3-    C2-   O21
 10670  10669  10672  10673      9     0.00   0.00000   0 ;     HA-    C3-   O31-   P31
 10670  10669  10672  10673      9     0.00   0.00000   0 ;     HA-    C3-   O31-   P31
 10670  10669  10672  10673      9     0.00   0.00000   0 ;     HA-    C3-   O31-   P31
 10670  10669  10672  10673      9     0.00   0.00000   0 ;     HA-    C3-   O31-   P31
 10670  10669  10672  10673      9     0.00   1.60247   3 ;     HA-    C3-   O31-   P31
 10671  10669  10667  10696      9     0.00   0.00000   0 ;     HB-    C3-    C2-   O21
 10671  10669  10667  10696      9     0.00   1.04600   1 ;     HB-    C3-    C2-   O21
 10671  10669  10672  10673      9     0.00   0.00000   0 ;     HB-    C3-   O31-   P31
 10671  10669  10672  10673      9     0.00   0.00000   0 ;     HB-    C3-   O31-   P31
 10671  10669  10672  10673      9     0.00   0.00000   0 ;     HB-    C3-   O31-   P31
 10671  10669  10672  10673      9     0.00   0.00000   0 ;     HB-    C3-   O31-   P31
 10671  10669  10672  10673      9     0.00   1.60247   3 ;     HB-    C3-   O31-   P31
 10672  10669  10667  10696      9     0.00   0.00000   0 ;    O31-    C3-    C2-   O21
 10672  10669  10667  10696      9     0.00   0.00000   0 ;    O31-    C3-    C2-   O21
 10672  10669  10667  10696      9     0.00   0.00000   0 ;    O31-    C3-    C2-   O21
 10672  10669  10667  10696      9     0.00   0.00000   0 ;    O31-    C3-    C2-   O21
 10672  10669  10667  10696      9     0.00   0.00000   0 ;    O31-    C3-    C2-   O21
 10672  10673  10674  10675      9     0.00   2.51040   3 ;    O31-   P31-   O32-   C31
 10672  10673  10674  10675      9     0.00   9.62320   2 ;    O31-   P31-   O32-   C31
 10673  10674  10675  10676      9     0.00   0.00000   0 ;    P31-   O32-   C31-   H1A
 10673  10674  10675  10676      9     0.00   0.00000   0 ;    P31-   O32-   C31-   H1A
 10673  10674  10675  10676      9     0.00   0.00000   0 ;    P31-   O32-   C31-   H1A
 10673  10674  10675  10676      9     0.00   0.00000   0 ;    P31-   O32-   C31-   H1A
 10673  10674  10675  10676      9     0.00   1.60247   3 ;    P31-   O32-   C31-   H1A
 10673  10674  10675  10677      9     0.00   0.00000   0 ;    P31-   O32-   C31-   H1B
 10673  10674  10675  10677      9     0.00   0.00000   0 ;    P31-   O32-   C31-   H1B
 10673  10674  10675  10677      9     0.00   0.00000   0 ;    P31-   O32-   C31-   H1B
 10673  10674  10675  10677      9     0.00   0.00000   0 ;    P31-   O32-   C31-   H1B
 10673  10674  10675  10677      9     0.00   1.60247   3 ;    P31-   O32-   C31-   H1B
 10673  10674  10675  10678      9     0.00   0.00000   0 ;    P31-   O32-   C31-   C32
 10673  10674  10675  10678      9   180.00  -3.34720   2 ;    P31-   O32-   C31-   C32
 10674  10675  10678  10679      9     0.00   0.65270   3 ;    O32-   C31-   C32-   H2A
 10674  10675  10678  10680      9     0.00   0.65270   3 ;    O32-   C31-   C32-   H2B
 10674  10675  10678  10681      9     0.00   4.18400   3 ;    O32-   C31-   C32-   N31
 10675  10674  10673  10694      9     0.00   0.00000   0 ;    C31-   O32-   P31-   O33
 10675  10674  10673  10694      9     0.00   0.00000   0 ;    C31-   O32-   P31-   O33
 10675  10674  10673  10694      9     0.00   0.00000   0 ;    C31-   O32-   P31-   O33
 10675  10674  10673  10694      9     0.00   0.00000   0 ;    C31-   O32-   P31-   O33
 10675  10674  10673  10694      9     0.00   0.83680   2 ;    C31-   O32-   P31-   O33
 10675  10674  10673  10695      9     0.00   0.00000   0 ;    C31-   O32-   P31-   O34
 10675  10674  10673  10695      9     0.00   0.00000   0 ;    C31-   O32-   P31-   O34
 10675  10674  10673  10695      9     0.00   0.00000   0 ;    C31-   O32-   P31-   O34
 10675  10674  10673  10695      9     0.00   0.00000   0 ;    C31-   O32-   P31-   O34
 10675  10674  10673  10695      9     0.00   0.83680   2 ;    C31-   O32-   P31-   O34
 10675  10678  10681  10682      9     0.00   0.65270   3 ;    C31-   C32-   N31-   C33
 10675  10678  10681  10686      9     0.00   0.65270   3 ;    C31-   C32-   N31-   C34
 10675  10678  10681  10690      9     0.00   0.65270   3 ;    C31-   C32-   N31-   C35
 10676  10675  10678  10679      9     0.00   0.65270   3 ;    H1A-   C31-   C32-   H2A
 10676  10675  10678  10680      9     0.00   0.65270   3 ;    H1A-   C31-   C32-   H2B
 10676  10675  10678  10681      9     0.00   0.65270   3 ;    H1A-   C31-   C32-   N31
 10677  10675  10678  10679      9     0.00   0.65270   3 ;    H1B-   C31-   C32-   H2A
 10677  10675  10678  10680      9     0.00   0.65270   3 ;    H1B-   C31-   C32-   H2B
 10677  10675  10678  10681      9     0.00   0.65270   3 ;    H1B-   C31-   C32-   N31
 10678  10681  10682  10683      9     0.00   0.65270   3 ;    C32-   N31-   C33-   H3A
 10678  10681  10682  10684      9     0.00   0.65270   3 ;    C32-   N31-   C33-   H3B
 10678  10681  10682  10685      9     0.00   0.65270   3 ;    C32-   N31-   C33-   H3C
 10678  10681  10686  10687      9     0.00   0.65270   3 ;    C32-   N31-   C34-   H4A
 10678  10681  10686  10688      9     0.00   0.65270   3 ;    C32-   N31-   C34-   H4B
 10678  10681  10686  10689      9     0.00   0.65270   3 ;    C32-   N31-   C34-   H4C
 10678  10681  10690  10691      9     0.00   0.65270   3 ;    C32-   N31-   C35-   H5A
 10678  10681  10690  10692      9     0.00   0.65270   3 ;    C32-   N31-   C35-   H5B
 10678  10681  10690  10693      9     0.00   0.65270   3 ;    C32-   N31-   C35-   H5C
 10679  10678  10681  10682      9     0.00   0.65270   3 ;    H2A-   C32-   N31-   C33
 10679  10678  10681  10686      9     0.00   0.65270   3 ;    H2A-   C32-   N31-   C34
 10679  10678  10681  10690      9     0.00   0.65270   3 ;    H2A-   C32-   N31-   C35
 10680  10678  10681  10682      9     0.00   0.65270   3 ;    H2B-   C32-   N31-   C33
 10680  10678  10681  10686      9     0.00   0.65270   3 ;    H2B-   C32-   N31-   C34
 10680  10678  10681  10690      9     0.00   0.65270   3 ;    H2B-   C32-   N31-   C35
 10682  10681  10686  10687      9     0.00   0.65270   3 ;    C33-   N31-   C34-   H4A
 10682  10681  10686  10688      9     0.00   0.65270   3 ;    C33-   N31-   C34-   H4B
 10682  10681  10686  10689      9     0.00   0.65270   3 ;    C33-   N31-   C34-   H4C
 10682  10681  10690  10691      9     0.00   0.65270   3 ;    C33-   N31-   C35-   H5A
 10682  10681  10690  10692      9     0.00   0.65270   3 ;    C33-   N31-   C35-   H5B
 10682  10681  10690  10693      9     0.00   0.65270   3 ;    C33-   N31-   C35-   H5C
 10683  10682  10681  10686      9     0.00   0.65270   3 ;    H3A-   C33-   N31-   C34
 10683  10682  10681  10690      9     0.00   0.65270   3 ;    H3A-   C33-   N31-   C35
 10684  10682  10681  10686      9     0.00   0.65270   3 ;    H3B-   C33-   N31-   C34
 10684  10682  10681  10690      9     0.00   0.65270   3 ;    H3B-   C33-   N31-   C35
 10685  10682  10681  10686      9     0.00   0.65270   3 ;    H3C-   C33-   N31-   C34
 10685  10682  10681  10690      9     0.00   0.65270   3 ;    H3C-   C33-   N31-   C35
 10686  10681  10690  10691      9     0.00   0.65270   3 ;    C34-   N31-   C35-   H5A
 10686  10681  10690  10692      9     0.00   0.65270   3 ;    C34-   N31-   C35-   H5B
 10686  10681  10690  10693      9     0.00   0.65270   3 ;    C34-   N31-   C35-   H5C
 10687  10686  10681  10690      9     0.00   0.65270   3 ;    H4A-   C34-   N31-   C35
 10688  10686  10681  10690      9     0.00   0.65270   3 ;    H4B-   C34-   N31-   C35
 10689  10686  10681  10690      9     0.00   0.65270   3 ;    H4C-   C34-   N31-   C35
 10696  10697  10736  10733      9   180.00   0.00000   2 ;    O21-   C21-   C12-   C13
 10696  10697  10736  10737      9   180.00   0.00000   2 ;    O21-   C21-   C12-   H2R
 10696  10697  10736  10738      9   180.00   0.00000   2 ;    O21-   C21-   C12-   H2S
 10697  10736  10733  10730      9     0.00   0.65270   3 ;    C21-   C12-   C13-   C14
 10697  10736  10733  10734      9     0.00   0.65270   3 ;    C21-   C12-   C13-   H3R
 10697  10736  10733  10735      9     0.00   0.65270   3 ;    C21-   C12-   C13-   H3S
 10698  10697  10736  10733      9   180.00   0.00000   2 ;    O22-   C21-   C12-   C13
 10698  10697  10736  10737      9     0.00   3.34720   1 ;    O22-   C21-   C12-   H2R
 10698  10697  10736  10737      9   180.00   0.33472   3 ;    O22-   C21-   C12-   H2R
 10698  10697  10736  10738      9     0.00   3.34720   1 ;    O22-   C21-   C12-   H2S
 10698  10697  10736  10738      9   180.00   0.33472   3 ;    O22-   C21-   C12-   H2S
 10699  10700  10703  10704      9     0.00   0.62760   3 ;   H14T-  C114-  C113-  H13R
 10699  10700  10703  10705      9     0.00   0.62760   3 ;   H14T-  C114-  C113-  H13S
 10699  10700  10703  10706      9     0.00   0.66944   3 ;   H14T-  C114-  C113-  C112
 10700  10703  10706  10707      9     0.00   0.66944   3 ;   C114-  C113-  C112-  H12R
 10700  10703  10706  10708      9     0.00   0.66944   3 ;   C114-  C113-  C112-  H12S
 10700  10703  10706  10709      9     0.00   0.41840   1 ;   C114-  C113-  C112-  C111
 10700  10703  10706  10709      9     0.00   0.41840   2 ;   C114-  C113-  C112-  C111
 10700  10703  10706  10709      9     0.00   0.41840   4 ;   C114-  C113-  C112-  C111
 10700  10703  10706  10709      9     0.00   0.41840   5 ;   C114-  C113-  C112-  C111
 10700  10703  10706  10709      9     0.00   1.25520   3 ;   C114-  C113-  C112-  C111
 10701  10700  10703  10704      9     0.00   0.62760   3 ;   H14R-  C114-  C113-  H13R
 10701  10700  10703  10705      9     0.00   0.62760   3 ;   H14R-  C114-  C113-  H13S
 10701  10700  10703  10706      9     0.00   0.66944   3 ;   H14R-  C114-  C113-  C112
 10702  10700  10703  10704      9     0.00   0.62760   3 ;   H14S-  C114-  C113-  H13R
 10702  10700  10703  10705      9     0.00   0.62760   3 ;   H14S-  C114-  C113-  H13S
 10702  10700  10703  10706      9     0.00   0.66944   3 ;   H14S-  C114-  C113-  C112
 10703  10706  10709  10710      9     0.00   0.66944   3 ;   C113-  C112-  C111-  H11R
 10703  10706  10709  10711      9     0.00   0.66944   3 ;   C113-  C112-  C111-  H11S
 10703  10706  10709  10712      9     0.00   0.41840   1 ;   C113-  C112-  C111-  C110
 10703  10706  10709  10712      9     0.00   0.41840   2 ;   C113-  C112-  C111-  C110
 10703  10706  10709  10712      9     0.00   0.41840   4 ;   C113-  C112-  C111-  C110
 10703  10706  10709  10712      9     0.00   0.41840   5 ;   C113-  C112-  C111-  C110
 10703  10706  10709  10712      9     0.00   1.25520   3 ;   C113-  C112-  C111-  C110
 10704  10703  10706  10707      9     0.00   0.62760   3 ;   H13R-  C113-  C112-  H12R
 10704  10703  10706  10708      9     0.00   0.62760   3 ;   H13R-  C113-  C112-  H12S
 10704  10703  10706  10709      9     0.00   0.66944   3 ;   H13R-  C113-  C112-  C111
 10705  10703  10706  10707      9     0.00   0.62760   3 ;   H13S-  C113-  C112-  H12R
 10705  10703  10706  10708      9     0.00   0.62760   3 ;   H13S-  C113-  C112-  H12S
 10705  10703  10706  10709      9     0.00   0.66944   3 ;   H13S-  C113-  C112-  C111
 10706  10709  10712  10713      9     0.00   0.66944   3 ;   C112-  C111-  C110-  H10R
 10706  10709  10712  10714      9     0.00   0.66944   3 ;   C112-  C111-  C110-  H10S
 10706  10709  10712  10715      9     0.00   0.41840   1 ;   C112-  C111-  C110-   C19
 10706  10709  10712  10715      9     0.00   0.41840   2 ;   C112-  C111-  C110-   C19
 10706  10709  10712  10715      9     0.00   0.41840   4 ;   C112-  C111-  C110-   C19
 10706  10709  10712  10715      9     0.00   0.41840   5 ;   C112-  C111-  C110-   C19
 10706  10709  10712  10715      9     0.00   1.25520   3 ;   C112-  C111-  C110-   C19
 10707  10706  10709  10710      9     0.00   0.62760   3 ;   H12R-  C112-  C111-  H11R
 10707  10706  10709  10711      9     0.00   0.62760   3 ;   H12R-  C112-  C111-  H11S
 10707  10706  10709  10712      9     0.00   0.66944   3 ;   H12R-  C112-  C111-  C110
 10708  10706  10709  10710      9     0.00   0.62760   3 ;   H12S-  C112-  C111-  H11R
 10708  10706  10709  10711      9     0.00   0.62760   3 ;   H12S-  C112-  C111-  H11S
 10708  10706  10709  10712      9     0.00   0.66944   3 ;   H12S-  C112-  C111-  C110
 10709  10712  10715  10716      9     0.00   0.66944   3 ;   C111-  C110-   C19-   H9R
 10709  10712  10715  10717      9     0.00   0.66944   3 ;   C111-  C110-   C19-   H9S
 10709  10712  10715  10718      9     0.00   0.41840   1 ;   C111-  C110-   C19-   C18
 10709  10712  10715  10718      9     0.00   0.41840   2 ;   C111-  C110-   C19-   C18
 10709  10712  10715  10718      9     0.00   0.41840   4 ;   C111-  C110-   C19-   C18
 10709  10712  10715  10718      9     0.00   0.41840   5 ;   C111-  C110-   C19-   C18
 10709  10712  10715  10718      9     0.00   1.25520   3 ;   C111-  C110-   C19-   C18
 10710  10709  10712  10713      9     0.00   0.62760   3 ;   H11R-  C111-  C110-  H10R
 10710  10709  10712  10714      9     0.00   0.62760   3 ;   H11R-  C111-  C110-  H10S
 10710  10709  10712  10715      9     0.00   0.66944   3 ;   H11R-  C111-  C110-   C19
 10711  10709  10712  10713      9     0.00   0.62760   3 ;   H11S-  C111-  C110-  H10R
 10711  10709  10712  10714      9     0.00   0.62760   3 ;   H11S-  C111-  C110-  H10S
 10711  10709  10712  10715      9     0.00   0.66944   3 ;   H11S-  C111-  C110-   C19
 10712  10715  10718  10719      9     0.00   0.66944   3 ;   C110-   C19-   C18-   H8R
 10712  10715  10718  10720      9     0.00   0.66944   3 ;   C110-   C19-   C18-   H8S
 10712  10715  10718  10721      9     0.00   0.41840   1 ;   C110-   C19-   C18-   C17
 10712  10715  10718  10721      9     0.00   0.41840   2 ;   C110-   C19-   C18-   C17
 10712  10715  10718  10721      9     0.00   0.41840   4 ;   C110-   C19-   C18-   C17
 10712  10715  10718  10721      9     0.00   0.41840   5 ;   C110-   C19-   C18-   C17
 10712  10715  10718  10721      9     0.00   1.25520   3 ;   C110-   C19-   C18-   C17
 10713  10712  10715  10716      9     0.00   0.62760   3 ;   H10R-  C110-   C19-   H9R
 10713  10712  10715  10717      9     0.00   0.62760   3 ;   H10R-  C110-   C19-   H9S
 10713  10712  10715  10718      9     0.00   0.66944   3 ;   H10R-  C110-   C19-   C18
 10714  10712  10715  10716      9     0.00   0.62760   3 ;   H10S-  C110-   C19-   H9R
 10714  10712  10715  10717      9     0.00   0.62760   3 ;   H10S-  C110-   C19-   H9S
 10714  10712  10715  10718      9     0.00   0.66944   3 ;   H10S-  C110-   C19-   C18
 10715  10718  10721  10722      9     0.00   0.66944   3 ;    C19-   C18-   C17-   H7R
 10715  10718  10721  10723      9     0.00   0.66944   3 ;    C19-   C18-   C17-   H7S
 10715  10718  10721  10724      9     0.00   0.41840   1 ;    C19-   C18-   C17-   C16
 10715  10718  10721  10724      9     0.00   0.41840   2 ;    C19-   C18-   C17-   C16
 10715  10718  10721  10724      9     0.00   0.41840   4 ;    C19-   C18-   C17-   C16
 10715  10718  10721  10724      9     0.00   0.41840   5 ;    C19-   C18-   C17-   C16
 10715  10718  10721  10724      9     0.00   1.25520   3 ;    C19-   C18-   C17-   C16
 10716  10715  10718  10719      9     0.00   0.62760   3 ;    H9R-   C19-   C18-   H8R
 10716  10715  10718  10720      9     0.00   0.62760   3 ;    H9R-   C19-   C18-   H8S
 10716  10715  10718  10721      9     0.00   0.66944   3 ;    H9R-   C19-   C18-   C17
 10717  10715  10718  10719      9     0.00   0.62760   3 ;    H9S-   C19-   C18-   H8R
 10717  10715  10718  10720      9     0.00   0.62760   3 ;    H9S-   C19-   C18-   H8S
 10717  10715  10718  10721      9     0.00   0.66944   3 ;    H9S-   C19-   C18-   C17
 10718  10721  10724  10725      9     0.00   0.66944   3 ;    C18-   C17-   C16-   H6R
 10718  10721  10724  10726      9     0.00   0.66944   3 ;    C18-   C17-   C16-   H6S
 10718  10721  10724  10727      9     0.00   0.41840   1 ;    C18-   C17-   C16-   C15
 10718  10721  10724  10727      9     0.00   0.41840   2 ;    C18-   C17-   C16-   C15
 10718  10721  10724  10727      9     0.00   0.41840   4 ;    C18-   C17-   C16-   C15
 10718  10721  10724  10727      9     0.00   0.41840   5 ;    C18-   C17-   C16-   C15
 10718  10721  10724  10727      9     0.00   1.25520   3 ;    C18-   C17-   C16-   C15
 10719  10718  10721  10722      9     0.00   0.62760   3 ;    H8R-   C18-   C17-   H7R
 10719  10718  10721  10723      9     0.00   0.62760   3 ;    H8R-   C18-   C17-   H7S
 10719  10718  10721  10724      9     0.00   0.66944   3 ;    H8R-   C18-   C17-   C16
 10720  10718  10721  10722      9     0.00   0.62760   3 ;    H8S-   C18-   C17-   H7R
 10720  10718  10721  10723      9     0.00   0.62760   3 ;    H8S-   C18-   C17-   H7S
 10720  10718  10721  10724      9     0.00   0.66944   3 ;    H8S-   C18-   C17-   C16
 10721  10724  10727  10728      9     0.00   0.66944   3 ;    C17-   C16-   C15-   H5R
 10721  10724  10727  10729      9     0.00   0.66944   3 ;    C17-   C16-   C15-   H5S
 10721  10724  10727  10730      9     0.00   0.41840   1 ;    C17-   C16-   C15-   C14
 10721  10724  10727  10730      9     0.00   0.41840   2 ;    C17-   C16-   C15-   C14
 10721  10724  10727  10730      9     0.00   0.41840   4 ;    C17-   C16-   C15-   C14
 10721  10724  10727  10730      9     0.00   0.41840   5 ;    C17-   C16-   C15-   C14
 10721  10724  10727  10730      9     0.00   1.25520   3 ;    C17-   C16-   C15-   C14
 10722  10721  10724  10725      9     0.00   0.62760   3 ;    H7R-   C17-   C16-   H6R
 10722  10721  10724  10726      9     0.00   0.62760   3 ;    H7R-   C17-   C16-   H6S
 10722  10721  10724  10727      9     0.00   0.66944   3 ;    H7R-   C17-   C16-   C15
 10723  10721  10724  10725      9     0.00   0.62760   3 ;    H7S-   C17-   C16-   H6R
 10723  10721  10724  10726      9     0.00   0.62760   3 ;    H7S-   C17-   C16-   H6S
 10723  10721  10724  10727      9     0.00   0.66944   3 ;    H7S-   C17-   C16-   C15
 10724  10727  10730  10731      9     0.00   0.66944   3 ;    C16-   C15-   C14-   H4R
 10724  10727  10730  10732      9     0.00   0.66944   3 ;    C16-   C15-   C14-   H4S
 10724  10727  10730  10733      9     0.00   0.41840   1 ;    C16-   C15-   C14-   C13
 10724  10727  10730  10733      9     0.00   0.41840   2 ;    C16-   C15-   C14-   C13
 10724  10727  10730  10733      9     0.00   0.41840   4 ;    C16-   C15-   C14-   C13
 10724  10727  10730  10733      9     0.00   0.41840   5 ;    C16-   C15-   C14-   C13
 10724  10727  10730  10733      9     0.00   1.25520   3 ;    C16-   C15-   C14-   C13
 10725  10724  10727  10728      9     0.00   0.62760   3 ;    H6R-   C16-   C15-   H5R
 10725  10724  10727  10729      9     0.00   0.62760   3 ;    H6R-   C16-   C15-   H5S
 10725  10724  10727  10730      9     0.00   0.66944   3 ;    H6R-   C16-   C15-   C14
 10726  10724  10727  10728      9     0.00   0.62760   3 ;    H6S-   C16-   C15-   H5R
 10726  10724  10727  10729      9     0.00   0.62760   3 ;    H6S-   C16-   C15-   H5S
 10726  10724  10727  10730      9     0.00   0.66944   3 ;    H6S-   C16-   C15-   C14
 10727  10730  10733  10734      9     0.00   0.66944   3 ;    C15-   C14-   C13-   H3R
 10727  10730  10733  10735      9     0.00   0.66944   3 ;    C15-   C14-   C13-   H3S
 10727  10730  10733  10736      9     0.00   0.41840   1 ;    C15-   C14-   C13-   C12
 10727  10730  10733  10736      9     0.00   0.41840   2 ;    C15-   C14-   C13-   C12
 10727  10730  10733  10736      9     0.00   0.41840   4 ;    C15-   C14-   C13-   C12
 10727  10730  10733  10736      9     0.00   0.41840   5 ;    C15-   C14-   C13-   C12
 10727  10730  10733  10736      9     0.00   1.25520   3 ;    C15-   C14-   C13-   C12
 10728  10727  10730  10731      9     0.00   0.62760   3 ;    H5R-   C15-   C14-   H4R
 10728  10727  10730  10732      9     0.00   0.62760   3 ;    H5R-   C15-   C14-   H4S
 10728  10727  10730  10733      9     0.00   0.66944   3 ;    H5R-   C15-   C14-   C13
 10729  10727  10730  10731      9     0.00   0.62760   3 ;    H5S-   C15-   C14-   H4R
 10729  10727  10730  10732      9     0.00   0.62760   3 ;    H5S-   C15-   C14-   H4S
 10729  10727  10730  10733      9     0.00   0.66944   3 ;    H5S-   C15-   C14-   C13
 10730  10733  10736  10737      9     0.00   0.66944   3 ;    C14-   C13-   C12-   H2R
 10730  10733  10736  10738      9     0.00   0.66944   3 ;    C14-   C13-   C12-   H2S
 10731  10730  10733  10734      9     0.00   0.62760   3 ;    H4R-   C14-   C13-   H3R
 10731  10730  10733  10735      9     0.00   0.62760   3 ;    H4R-   C14-   C13-   H3S
 10731  10730  10733  10736      9     0.00   0.66944   3 ;    H4R-   C14-   C13-   C12
 10732  10730  10733  10734      9     0.00   0.62760   3 ;    H4S-   C14-   C13-   H3R
 10732  10730  10733  10735      9     0.00   0.62760   3 ;    H4S-   C14-   C13-   H3S
 10732  10730  10733  10736      9     0.00   0.66944   3 ;    H4S-   C14-   C13-   C12
 10734  10733  10736  10737      9     0.00   0.62760   3 ;    H3R-   C13-   C12-   H2R
 10734  10733  10736  10738      9     0.00   0.62760   3 ;    H3R-   C13-   C12-   H2S
 10735  10733  10736  10737      9     0.00   0.62760   3 ;    H3S-   C13-   C12-   H2R
 10735  10733  10736  10738      9     0.00   0.62760   3 ;    H3S-   C13-   C12-   H2S
 10739  10740  10743  10744      9     0.00   0.62760   3 ;   H14T-  C114-  C113-  H13R
 10739  10740  10743  10745      9     0.00   0.62760   3 ;   H14T-  C114-  C113-  H13S
 10739  10740  10743  10746      9     0.00   0.66944   3 ;   H14T-  C114-  C113-  C112
 10740  10743  10746  10747      9     0.00   0.66944   3 ;   C114-  C113-  C112-  H12R
 10740  10743  10746  10748      9     0.00   0.66944   3 ;   C114-  C113-  C112-  H12S
 10740  10743  10746  10749      9     0.00   0.41840   1 ;   C114-  C113-  C112-  C111
 10740  10743  10746  10749      9     0.00   0.41840   2 ;   C114-  C113-  C112-  C111
 10740  10743  10746  10749      9     0.00   0.41840   4 ;   C114-  C113-  C112-  C111
 10740  10743  10746  10749      9     0.00   0.41840   5 ;   C114-  C113-  C112-  C111
 10740  10743  10746  10749      9     0.00   1.25520   3 ;   C114-  C113-  C112-  C111
 10741  10740  10743  10744      9     0.00   0.62760   3 ;   H14R-  C114-  C113-  H13R
 10741  10740  10743  10745      9     0.00   0.62760   3 ;   H14R-  C114-  C113-  H13S
 10741  10740  10743  10746      9     0.00   0.66944   3 ;   H14R-  C114-  C113-  C112
 10742  10740  10743  10744      9     0.00   0.62760   3 ;   H14S-  C114-  C113-  H13R
 10742  10740  10743  10745      9     0.00   0.62760   3 ;   H14S-  C114-  C113-  H13S
 10742  10740  10743  10746      9     0.00   0.66944   3 ;   H14S-  C114-  C113-  C112
 10743  10746  10749  10750      9     0.00   0.66944   3 ;   C113-  C112-  C111-  H11R
 10743  10746  10749  10751      9     0.00   0.66944   3 ;   C113-  C112-  C111-  H11S
 10743  10746  10749  10752      9     0.00   0.41840   1 ;   C113-  C112-  C111-  C110
 10743  10746  10749  10752      9     0.00   0.41840   2 ;   C113-  C112-  C111-  C110
 10743  10746  10749  10752      9     0.00   0.41840   4 ;   C113-  C112-  C111-  C110
 10743  10746  10749  10752      9     0.00   0.41840   5 ;   C113-  C112-  C111-  C110
 10743  10746  10749  10752      9     0.00   1.25520   3 ;   C113-  C112-  C111-  C110
 10744  10743  10746  10747      9     0.00   0.62760   3 ;   H13R-  C113-  C112-  H12R
 10744  10743  10746  10748      9     0.00   0.62760   3 ;   H13R-  C113-  C112-  H12S
 10744  10743  10746  10749      9     0.00   0.66944   3 ;   H13R-  C113-  C112-  C111
 10745  10743  10746  10747      9     0.00   0.62760   3 ;   H13S-  C113-  C112-  H12R
 10745  10743  10746  10748      9     0.00   0.62760   3 ;   H13S-  C113-  C112-  H12S
 10745  10743  10746  10749      9     0.00   0.66944   3 ;   H13S-  C113-  C112-  C111
 10746  10749  10752  10753      9     0.00   0.66944   3 ;   C112-  C111-  C110-  H10R
 10746  10749  10752  10754      9     0.00   0.66944   3 ;   C112-  C111-  C110-  H10S
 10746  10749  10752  10755      9     0.00   0.41840   1 ;   C112-  C111-  C110-   C19
 10746  10749  10752  10755      9     0.00   0.41840   2 ;   C112-  C111-  C110-   C19
 10746  10749  10752  10755      9     0.00   0.41840   4 ;   C112-  C111-  C110-   C19
 10746  10749  10752  10755      9     0.00   0.41840   5 ;   C112-  C111-  C110-   C19
 10746  10749  10752  10755      9     0.00   1.25520   3 ;   C112-  C111-  C110-   C19
 10747  10746  10749  10750      9     0.00   0.62760   3 ;   H12R-  C112-  C111-  H11R
 10747  10746  10749  10751      9     0.00   0.62760   3 ;   H12R-  C112-  C111-  H11S
 10747  10746  10749  10752      9     0.00   0.66944   3 ;   H12R-  C112-  C111-  C110
 10748  10746  10749  10750      9     0.00   0.62760   3 ;   H12S-  C112-  C111-  H11R
 10748  10746  10749  10751      9     0.00   0.62760   3 ;   H12S-  C112-  C111-  H11S
 10748  10746  10749  10752      9     0.00   0.66944   3 ;   H12S-  C112-  C111-  C110
 10749  10752  10755  10756      9     0.00   0.66944   3 ;   C111-  C110-   C19-   H9R
 10749  10752  10755  10757      9     0.00   0.66944   3 ;   C111-  C110-   C19-   H9S
 10749  10752  10755  10758      9     0.00   0.41840   1 ;   C111-  C110-   C19-   C18
 10749  10752  10755  10758      9     0.00   0.41840   2 ;   C111-  C110-   C19-   C18
 10749  10752  10755  10758      9     0.00   0.41840   4 ;   C111-  C110-   C19-   C18
 10749  10752  10755  10758      9     0.00   0.41840   5 ;   C111-  C110-   C19-   C18
 10749  10752  10755  10758      9     0.00   1.25520   3 ;   C111-  C110-   C19-   C18
 10750  10749  10752  10753      9     0.00   0.62760   3 ;   H11R-  C111-  C110-  H10R
 10750  10749  10752  10754      9     0.00   0.62760   3 ;   H11R-  C111-  C110-  H10S
 10750  10749  10752  10755      9     0.00   0.66944   3 ;   H11R-  C111-  C110-   C19
 10751  10749  10752  10753      9     0.00   0.62760   3 ;   H11S-  C111-  C110-  H10R
 10751  10749  10752  10754      9     0.00   0.62760   3 ;   H11S-  C111-  C110-  H10S
 10751  10749  10752  10755      9     0.00   0.66944   3 ;   H11S-  C111-  C110-   C19
 10752  10755  10758  10759      9     0.00   0.66944   3 ;   C110-   C19-   C18-   H8R
 10752  10755  10758  10760      9     0.00   0.66944   3 ;   C110-   C19-   C18-   H8S
 10752  10755  10758  10761      9     0.00   0.41840   1 ;   C110-   C19-   C18-   C17
 10752  10755  10758  10761      9     0.00   0.41840   2 ;   C110-   C19-   C18-   C17
 10752  10755  10758  10761      9     0.00   0.41840   4 ;   C110-   C19-   C18-   C17
 10752  10755  10758  10761      9     0.00   0.41840   5 ;   C110-   C19-   C18-   C17
 10752  10755  10758  10761      9     0.00   1.25520   3 ;   C110-   C19-   C18-   C17
 10753  10752  10755  10756      9     0.00   0.62760   3 ;   H10R-  C110-   C19-   H9R
 10753  10752  10755  10757      9     0.00   0.62760   3 ;   H10R-  C110-   C19-   H9S
 10753  10752  10755  10758      9     0.00   0.66944   3 ;   H10R-  C110-   C19-   C18
 10754  10752  10755  10756      9     0.00   0.62760   3 ;   H10S-  C110-   C19-   H9R
 10754  10752  10755  10757      9     0.00   0.62760   3 ;   H10S-  C110-   C19-   H9S
 10754  10752  10755  10758      9     0.00   0.66944   3 ;   H10S-  C110-   C19-   C18
 10755  10758  10761  10762      9     0.00   0.66944   3 ;    C19-   C18-   C17-   H7R
 10755  10758  10761  10763      9     0.00   0.66944   3 ;    C19-   C18-   C17-   H7S
 10755  10758  10761  10764      9     0.00   0.41840   1 ;    C19-   C18-   C17-   C16
 10755  10758  10761  10764      9     0.00   0.41840   2 ;    C19-   C18-   C17-   C16
 10755  10758  10761  10764      9     0.00   0.41840   4 ;    C19-   C18-   C17-   C16
 10755  10758  10761  10764      9     0.00   0.41840   5 ;    C19-   C18-   C17-   C16
 10755  10758  10761  10764      9     0.00   1.25520   3 ;    C19-   C18-   C17-   C16
 10756  10755  10758  10759      9     0.00   0.62760   3 ;    H9R-   C19-   C18-   H8R
 10756  10755  10758  10760      9     0.00   0.62760   3 ;    H9R-   C19-   C18-   H8S
 10756  10755  10758  10761      9     0.00   0.66944   3 ;    H9R-   C19-   C18-   C17
 10757  10755  10758  10759      9     0.00   0.62760   3 ;    H9S-   C19-   C18-   H8R
 10757  10755  10758  10760      9     0.00   0.62760   3 ;    H9S-   C19-   C18-   H8S
 10757  10755  10758  10761      9     0.00   0.66944   3 ;    H9S-   C19-   C18-   C17
 10758  10761  10764  10765      9     0.00   0.66944   3 ;    C18-   C17-   C16-   H6R
 10758  10761  10764  10766      9     0.00   0.66944   3 ;    C18-   C17-   C16-   H6S
 10758  10761  10764  10767      9     0.00   0.41840   1 ;    C18-   C17-   C16-   C15
 10758  10761  10764  10767      9     0.00   0.41840   2 ;    C18-   C17-   C16-   C15
 10758  10761  10764  10767      9     0.00   0.41840   4 ;    C18-   C17-   C16-   C15
 10758  10761  10764  10767      9     0.00   0.41840   5 ;    C18-   C17-   C16-   C15
 10758  10761  10764  10767      9     0.00   1.25520   3 ;    C18-   C17-   C16-   C15
 10759  10758  10761  10762      9     0.00   0.62760   3 ;    H8R-   C18-   C17-   H7R
 10759  10758  10761  10763      9     0.00   0.62760   3 ;    H8R-   C18-   C17-   H7S
 10759  10758  10761  10764      9     0.00   0.66944   3 ;    H8R-   C18-   C17-   C16
 10760  10758  10761  10762      9     0.00   0.62760   3 ;    H8S-   C18-   C17-   H7R
 10760  10758  10761  10763      9     0.00   0.62760   3 ;    H8S-   C18-   C17-   H7S
 10760  10758  10761  10764      9     0.00   0.66944   3 ;    H8S-   C18-   C17-   C16
 10761  10764  10767  10768      9     0.00   0.66944   3 ;    C17-   C16-   C15-   H5R
 10761  10764  10767  10769      9     0.00   0.66944   3 ;    C17-   C16-   C15-   H5S
 10761  10764  10767  10770      9     0.00   0.41840   1 ;    C17-   C16-   C15-   C14
 10761  10764  10767  10770      9     0.00   0.41840   2 ;    C17-   C16-   C15-   C14
 10761  10764  10767  10770      9     0.00   0.41840   4 ;    C17-   C16-   C15-   C14
 10761  10764  10767  10770      9     0.00   0.41840   5 ;    C17-   C16-   C15-   C14
 10761  10764  10767  10770      9     0.00   1.25520   3 ;    C17-   C16-   C15-   C14
 10762  10761  10764  10765      9     0.00   0.62760   3 ;    H7R-   C17-   C16-   H6R
 10762  10761  10764  10766      9     0.00   0.62760   3 ;    H7R-   C17-   C16-   H6S
 10762  10761  10764  10767      9     0.00   0.66944   3 ;    H7R-   C17-   C16-   C15
 10763  10761  10764  10765      9     0.00   0.62760   3 ;    H7S-   C17-   C16-   H6R
 10763  10761  10764  10766      9     0.00   0.62760   3 ;    H7S-   C17-   C16-   H6S
 10763  10761  10764  10767      9     0.00   0.66944   3 ;    H7S-   C17-   C16-   C15
 10764  10767  10770  10771      9     0.00   0.66944   3 ;    C16-   C15-   C14-   H4R
 10764  10767  10770  10772      9     0.00   0.66944   3 ;    C16-   C15-   C14-   H4S
 10764  10767  10770  10773      9     0.00   0.41840   1 ;    C16-   C15-   C14-   C13
 10764  10767  10770  10773      9     0.00   0.41840   2 ;    C16-   C15-   C14-   C13
 10764  10767  10770  10773      9     0.00   0.41840   4 ;    C16-   C15-   C14-   C13
 10764  10767  10770  10773      9     0.00   0.41840   5 ;    C16-   C15-   C14-   C13
 10764  10767  10770  10773      9     0.00   1.25520   3 ;    C16-   C15-   C14-   C13
 10765  10764  10767  10768      9     0.00   0.62760   3 ;    H6R-   C16-   C15-   H5R
 10765  10764  10767  10769      9     0.00   0.62760   3 ;    H6R-   C16-   C15-   H5S
 10765  10764  10767  10770      9     0.00   0.66944   3 ;    H6R-   C16-   C15-   C14
 10766  10764  10767  10768      9     0.00   0.62760   3 ;    H6S-   C16-   C15-   H5R
 10766  10764  10767  10769      9     0.00   0.62760   3 ;    H6S-   C16-   C15-   H5S
 10766  10764  10767  10770      9     0.00   0.66944   3 ;    H6S-   C16-   C15-   C14
 10767  10770  10773  10774      9     0.00   0.66944   3 ;    C15-   C14-   C13-   H3R
 10767  10770  10773  10775      9     0.00   0.66944   3 ;    C15-   C14-   C13-   H3S
 10767  10770  10773  10776      9     0.00   0.41840   1 ;    C15-   C14-   C13-   C12
 10767  10770  10773  10776      9     0.00   0.41840   2 ;    C15-   C14-   C13-   C12
 10767  10770  10773  10776      9     0.00   0.41840   4 ;    C15-   C14-   C13-   C12
 10767  10770  10773  10776      9     0.00   0.41840   5 ;    C15-   C14-   C13-   C12
 10767  10770  10773  10776      9     0.00   1.25520   3 ;    C15-   C14-   C13-   C12
 10768  10767  10770  10771      9     0.00   0.62760   3 ;    H5R-   C15-   C14-   H4R
 10768  10767  10770  10772      9     0.00   0.62760   3 ;    H5R-   C15-   C14-   H4S
 10768  10767  10770  10773      9     0.00   0.66944   3 ;    H5R-   C15-   C14-   C13
 10769  10767  10770  10771      9     0.00   0.62760   3 ;    H5S-   C15-   C14-   H4R
 10769  10767  10770  10772      9     0.00   0.62760   3 ;    H5S-   C15-   C14-   H4S
 10769  10767  10770  10773      9     0.00   0.66944   3 ;    H5S-   C15-   C14-   C13
 10770  10773  10776  10777      9     0.00   0.66944   3 ;    C14-   C13-   C12-   H2R
 10770  10773  10776  10778      9     0.00   0.66944   3 ;    C14-   C13-   C12-   H2S
 10770  10773  10776  10779      9     0.00   0.65270   3 ;    C14-   C13-   C12-   C11
 10771  10770  10773  10774      9     0.00   0.62760   3 ;    H4R-   C14-   C13-   H3R
 10771  10770  10773  10775      9     0.00   0.62760   3 ;    H4R-   C14-   C13-   H3S
 10771  10770  10773  10776      9     0.00   0.66944   3 ;    H4R-   C14-   C13-   C12
 10772  10770  10773  10774      9     0.00   0.62760   3 ;    H4S-   C14-   C13-   H3R
 10772  10770  10773  10775      9     0.00   0.62760   3 ;    H4S-   C14-   C13-   H3S
 10772  10770  10773  10776      9     0.00   0.66944   3 ;    H4S-   C14-   C13-   C12
 10773  10776  10779  10780      9   180.00   0.00000   2 ;    C13-   C12-   C11-   O12
 10773  10776  10779  10781      9   180.00   0.00000   2 ;    C13-   C12-   C11-   O11
 10774  10773  10776  10777      9     0.00   0.62760   3 ;    H3R-   C13-   C12-   H2R
 10774  10773  10776  10778      9     0.00   0.62760   3 ;    H3R-   C13-   C12-   H2S
 10774  10773  10776  10779      9     0.00   0.65270   3 ;    H3R-   C13-   C12-   C11
 10775  10773  10776  10777      9     0.00   0.62760   3 ;    H3S-   C13-   C12-   H2R
 10775  10773  10776  10778      9     0.00   0.62760   3 ;    H3S-   C13-   C12-   H2S
 10775  10773  10776  10779      9     0.00   0.65270   3 ;    H3S-   C13-   C12-   C11
 10776  10779  10781  10782      9   180.00  11.29680   2 ;    C12-   C11-   O11-    C1
 10777  10776  10779  10780      9     0.00   3.34720   1 ;    H2R-   C12-   C11-   O12
 10777  10776  10779  10780      9   180.00   0.33472   3 ;    H2R-   C12-   C11-   O12
 10777  10776  10779  10781      9   180.00   0.00000   2 ;    H2R-   C12-   C11-   O11
 10778  10776  10779  10780      9     0.00   3.34720   1 ;    H2S-   C12-   C11-   O12
 10778  10776  10779  10780      9   180.00   0.33472   3 ;    H2S-   C12-   C11-   O12
 10778  10776  10779  10781      9   180.00   0.00000   2 ;    H2S-   C12-   C11-   O11
 10779  10781  10782  10783      9     0.00   1.60247   3 ;    C11-   O11-    C1-    HR
 10779  10781  10782  10784      9     0.00   1.60247   3 ;    C11-   O11-    C1-    HS
 10779  10781  10782  10785      9     0.00  -0.41840   1 ;    C11-   O11-    C1-    C2
 10780  10779  10781  10782      9   180.00   5.85760   1 ;    O12-   C11-   O11-    C1
 10780  10779  10781  10782      9   180.00  11.29680   2 ;    O12-   C11-   O11-    C1
 10781  10782  10785  10786      9     0.00   0.00000   0 ;    O11-    C1-    C2-    HX
 10781  10782  10785  10786      9     0.00   1.04600   1 ;    O11-    C1-    C2-    HX
 10781  10782  10785  10787      9     0.00   0.00000   0 ;    O11-    C1-    C2-    C3
 10781  10782  10785  10787      9     0.00   0.00000   0 ;    O11-    C1-    C2-    C3
 10781  10782  10785  10787      9     0.00   0.00000   0 ;    O11-    C1-    C2-    C3
 10781  10782  10785  10787      9     0.00   0.00000   0 ;    O11-    C1-    C2-    C3
 10781  10782  10785  10787      9     0.00   0.00000   0 ;    O11-    C1-    C2-    C3
 10781  10782  10785  10814      9     0.00   1.25520   2 ;    O11-    C1-    C2-   O21
 10781  10782  10785  10814      9     0.00   4.18400   3 ;    O11-    C1-    C2-   O21
 10781  10782  10785  10814      9   180.00  -0.41840   1 ;    O11-    C1-    C2-   O21
 10782  10785  10787  10788      9     0.00   0.65270   3 ;     C1-    C2-    C3-    HA
 10782  10785  10787  10789      9     0.00   0.65270   3 ;     C1-    C2-    C3-    HB
 10782  10785  10787  10790      9   180.00   3.34720   1 ;     C1-    C2-    C3-   O31
 10782  10785  10814  10815      9     0.00  -0.41840   1 ;     C1-    C2-   O21-   C21
 10783  10782  10785  10786      9     0.00   0.65270   3 ;     HR-    C1-    C2-    HX
 10783  10782  10785  10787      9     0.00   0.65270   3 ;     HR-    C1-    C2-    C3
 10783  10782  10785  10814      9     0.00   0.00000   0 ;     HR-    C1-    C2-   O21
 10783  10782  10785  10814      9     0.00   1.04600   1 ;     HR-    C1-    C2-   O21
 10784  10782  10785  10786      9     0.00   0.65270   3 ;     HS-    C1-    C2-    HX
 10784  10782  10785  10787      9     0.00   0.65270   3 ;     HS-    C1-    C2-    C3
 10784  10782  10785  10814      9     0.00   0.00000   0 ;     HS-    C1-    C2-   O21
 10784  10782  10785  10814      9     0.00   1.04600   1 ;     HS-    C1-    C2-   O21
 10785  10787  10790  10791      9     0.00   0.00000   0 ;     C2-    C3-   O31-   P31
 10785  10787  10790  10791      9   180.00  -3.34720   2 ;     C2-    C3-   O31-   P31
 10785  10814  10815  10816      9   180.00   5.85760   1 ;     C2-   O21-   C21-   O22
 10785  10814  10815  10816      9   180.00  11.29680   2 ;     C2-   O21-   C21-   O22
 10785  10814  10815  10854      9   180.00  11.29680   2 ;     C2-   O21-   C21-   C12
 10786  10785  10787  10788      9     0.00   0.65270   3 ;     HX-    C2-    C3-    HA
 10786  10785  10787  10789      9     0.00   0.65270   3 ;     HX-    C2-    C3-    HB
 10786  10785  10787  10790      9     0.00   0.00000   0 ;     HX-    C2-    C3-   O31
 10786  10785  10787  10790      9     0.00   1.04600   1 ;     HX-    C2-    C3-   O31
 10786  10785  10814  10815      9     0.00   1.60247   3 ;     HX-    C2-   O21-   C21
 10787  10785  10814  10815      9     0.00  -0.41840   1 ;     C3-    C2-   O21-   C21
 10787  10790  10791  10792      9     0.00   2.51040   3 ;     C3-   O31-   P31-   O32
 10787  10790  10791  10792      9     0.00   9.62320   2 ;     C3-   O31-   P31-   O32
 10787  10790  10791  10812      9     0.00   0.00000   0 ;     C3-   O31-   P31-   O33
 10787  10790  10791  10812      9     0.00   0.00000   0 ;     C3-   O31-   P31-   O33
 10787  10790  10791  10812      9     0.00   0.00000   0 ;     C3-   O31-   P31-   O33
 10787  10790  10791  10812      9     0.00   0.00000   0 ;     C3-   O31-   P31-   O33
 10787  10790  10791  10812      9     0.00   0.83680   2 ;     C3-   O31-   P31-   O33
 10787  10790  10791  10813      9     0.00   0.00000   0 ;     C3-   O31-   P31-   O34
 10787  10790  10791  10813      9     0.00   0.00000   0 ;     C3-   O31-   P31-   O34
 10787  10790  10791  10813      9     0.00   0.00000   0 ;     C3-   O31-   P31-   O34
 10787  10790  10791  10813      9     0.00   0.00000   0 ;     C3-   O31-   P31-   O34
 10787  10790  10791  10813      9     0.00   0.83680   2 ;     C3-   O31-   P31-   O34
 10788  10787  10785  10814      9     0.00   0.00000   0 ;     HA-    C3-    C2-   O21
 10788  10787  10785  10814      9     0.00   1.04600   1 ;     HA-    C3-    C2-   O21
 10788  10787  10790  10791      9     0.00   0.00000   0 ;     HA-    C3-   O31-   P31
 10788  10787  10790  10791      9     0.00   0.00000   0 ;     HA-    C3-   O31-   P31
 10788  10787  10790  10791      9     0.00   0.00000   0 ;     HA-    C3-   O31-   P31
 10788  10787  10790  10791      9     0.00   0.00000   0 ;     HA-    C3-   O31-   P31
 10788  10787  10790  10791      9     0.00   1.60247   3 ;     HA-    C3-   O31-   P31
 10789  10787  10785  10814      9     0.00   0.00000   0 ;     HB-    C3-    C2-   O21
 10789  10787  10785  10814      9     0.00   1.04600   1 ;     HB-    C3-    C2-   O21
 10789  10787  10790  10791      9     0.00   0.00000   0 ;     HB-    C3-   O31-   P31
 10789  10787  10790  10791      9     0.00   0.00000   0 ;     HB-    C3-   O31-   P31
 10789  10787  10790  10791      9     0.00   0.00000   0 ;     HB-    C3-   O31-   P31
 10789  10787  10790  10791      9     0.00   0.00000   0 ;     HB-    C3-   O31-   P31
 10789  10787  10790  10791      9     0.00   1.60247   3 ;     HB-    C3-   O31-   P31
 10790  10787  10785  10814      9     0.00   0.00000   0 ;    O31-    C3-    C2-   O21
 10790  10787  10785  10814      9     0.00   0.00000   0 ;    O31-    C3-    C2-   O21
 10790  10787  10785  10814      9     0.00   0.00000   0 ;    O31-    C3-    C2-   O21
 10790  10787  10785  10814      9     0.00   0.00000   0 ;    O31-    C3-    C2-   O21
 10790  10787  10785  10814      9     0.00   0.00000   0 ;    O31-    C3-    C2-   O21
 10790  10791  10792  10793      9     0.00   2.51040   3 ;    O31-   P31-   O32-   C31
 10790  10791  10792  10793      9     0.00   9.62320   2 ;    O31-   P31-   O32-   C31
 10791  10792  10793  10794      9     0.00   0.00000   0 ;    P31-   O32-   C31-   H1A
 10791  10792  10793  10794      9     0.00   0.00000   0 ;    P31-   O32-   C31-   H1A
 10791  10792  10793  10794      9     0.00   0.00000   0 ;    P31-   O32-   C31-   H1A
 10791  10792  10793  10794      9     0.00   0.00000   0 ;    P31-   O32-   C31-   H1A
 10791  10792  10793  10794      9     0.00   1.60247   3 ;    P31-   O32-   C31-   H1A
 10791  10792  10793  10795      9     0.00   0.00000   0 ;    P31-   O32-   C31-   H1B
 10791  10792  10793  10795      9     0.00   0.00000   0 ;    P31-   O32-   C31-   H1B
 10791  10792  10793  10795      9     0.00   0.00000   0 ;    P31-   O32-   C31-   H1B
 10791  10792  10793  10795      9     0.00   0.00000   0 ;    P31-   O32-   C31-   H1B
 10791  10792  10793  10795      9     0.00   1.60247   3 ;    P31-   O32-   C31-   H1B
 10791  10792  10793  10796      9     0.00   0.00000   0 ;    P31-   O32-   C31-   C32
 10791  10792  10793  10796      9   180.00  -3.34720   2 ;    P31-   O32-   C31-   C32
 10792  10793  10796  10797      9     0.00   0.65270   3 ;    O32-   C31-   C32-   H2A
 10792  10793  10796  10798      9     0.00   0.65270   3 ;    O32-   C31-   C32-   H2B
 10792  10793  10796  10799      9     0.00   4.18400   3 ;    O32-   C31-   C32-   N31
 10793  10792  10791  10812      9     0.00   0.00000   0 ;    C31-   O32-   P31-   O33
 10793  10792  10791  10812      9     0.00   0.00000   0 ;    C31-   O32-   P31-   O33
 10793  10792  10791  10812      9     0.00   0.00000   0 ;    C31-   O32-   P31-   O33
 10793  10792  10791  10812      9     0.00   0.00000   0 ;    C31-   O32-   P31-   O33
 10793  10792  10791  10812      9     0.00   0.83680   2 ;    C31-   O32-   P31-   O33
 10793  10792  10791  10813      9     0.00   0.00000   0 ;    C31-   O32-   P31-   O34
 10793  10792  10791  10813      9     0.00   0.00000   0 ;    C31-   O32-   P31-   O34
 10793  10792  10791  10813      9     0.00   0.00000   0 ;    C31-   O32-   P31-   O34
 10793  10792  10791  10813      9     0.00   0.00000   0 ;    C31-   O32-   P31-   O34
 10793  10792  10791  10813      9     0.00   0.83680   2 ;    C31-   O32-   P31-   O34
 10793  10796  10799  10800      9     0.00   0.65270   3 ;    C31-   C32-   N31-   C33
 10793  10796  10799  10804      9     0.00   0.65270   3 ;    C31-   C32-   N31-   C34
 10793  10796  10799  10808      9     0.00   0.65270   3 ;    C31-   C32-   N31-   C35
 10794  10793  10796  10797      9     0.00   0.65270   3 ;    H1A-   C31-   C32-   H2A
 10794  10793  10796  10798      9     0.00   0.65270   3 ;    H1A-   C31-   C32-   H2B
 10794  10793  10796  10799      9     0.00   0.65270   3 ;    H1A-   C31-   C32-   N31
 10795  10793  10796  10797      9     0.00   0.65270   3 ;    H1B-   C31-   C32-   H2A
 10795  10793  10796  10798      9     0.00   0.65270   3 ;    H1B-   C31-   C32-   H2B
 10795  10793  10796  10799      9     0.00   0.65270   3 ;    H1B-   C31-   C32-   N31
 10796  10799  10800  10801      9     0.00   0.65270   3 ;    C32-   N31-   C33-   H3A
 10796  10799  10800  10802      9     0.00   0.65270   3 ;    C32-   N31-   C33-   H3B
 10796  10799  10800  10803      9     0.00   0.65270   3 ;    C32-   N31-   C33-   H3C
 10796  10799  10804  10805      9     0.00   0.65270   3 ;    C32-   N31-   C34-   H4A
 10796  10799  10804  10806      9     0.00   0.65270   3 ;    C32-   N31-   C34-   H4B
 10796  10799  10804  10807      9     0.00   0.65270   3 ;    C32-   N31-   C34-   H4C
 10796  10799  10808  10809      9     0.00   0.65270   3 ;    C32-   N31-   C35-   H5A
 10796  10799  10808  10810      9     0.00   0.65270   3 ;    C32-   N31-   C35-   H5B
 10796  10799  10808  10811      9     0.00   0.65270   3 ;    C32-   N31-   C35-   H5C
 10797  10796  10799  10800      9     0.00   0.65270   3 ;    H2A-   C32-   N31-   C33
 10797  10796  10799  10804      9     0.00   0.65270   3 ;    H2A-   C32-   N31-   C34
 10797  10796  10799  10808      9     0.00   0.65270   3 ;    H2A-   C32-   N31-   C35
 10798  10796  10799  10800      9     0.00   0.65270   3 ;    H2B-   C32-   N31-   C33
 10798  10796  10799  10804      9     0.00   0.65270   3 ;    H2B-   C32-   N31-   C34
 10798  10796  10799  10808      9     0.00   0.65270   3 ;    H2B-   C32-   N31-   C35
 10800  10799  10804  10805      9     0.00   0.65270   3 ;    C33-   N31-   C34-   H4A
 10800  10799  10804  10806      9     0.00   0.65270   3 ;    C33-   N31-   C34-   H4B
 10800  10799  10804  10807      9     0.00   0.65270   3 ;    C33-   N31-   C34-   H4C
 10800  10799  10808  10809      9     0.00   0.65270   3 ;    C33-   N31-   C35-   H5A
 10800  10799  10808  10810      9     0.00   0.65270   3 ;    C33-   N31-   C35-   H5B
 10800  10799  10808  10811      9     0.00   0.65270   3 ;    C33-   N31-   C35-   H5C
 10801  10800  10799  10804      9     0.00   0.65270   3 ;    H3A-   C33-   N31-   C34
 10801  10800  10799  10808      9     0.00   0.65270   3 ;    H3A-   C33-   N31-   C35
 10802  10800  10799  10804      9     0.00   0.65270   3 ;    H3B-   C33-   N31-   C34
 10802  10800  10799  10808      9     0.00   0.65270   3 ;    H3B-   C33-   N31-   C35
 10803  10800  10799  10804      9     0.00   0.65270   3 ;    H3C-   C33-   N31-   C34
 10803  10800  10799  10808      9     0.00   0.65270   3 ;    H3C-   C33-   N31-   C35
 10804  10799  10808  10809      9     0.00   0.65270   3 ;    C34-   N31-   C35-   H5A
 10804  10799  10808  10810      9     0.00   0.65270   3 ;    C34-   N31-   C35-   H5B
 10804  10799  10808  10811      9     0.00   0.65270   3 ;    C34-   N31-   C35-   H5C
 10805  10804  10799  10808      9     0.00   0.65270   3 ;    H4A-   C34-   N31-   C35
 10806  10804  10799  10808      9     0.00   0.65270   3 ;    H4B-   C34-   N31-   C35
 10807  10804  10799  10808      9     0.00   0.65270   3 ;    H4C-   C34-   N31-   C35
 10814  10815  10854  10851      9   180.00   0.00000   2 ;    O21-   C21-   C12-   C13
 10814  10815  10854  10855      9   180.00   0.00000   2 ;    O21-   C21-   C12-   H2R
 10814  10815  10854  10856      9   180.00   0.00000   2 ;    O21-   C21-   C12-   H2S
 10815  10854  10851  10848      9     0.00   0.65270   3 ;    C21-   C12-   C13-   C14
 10815  10854  10851  10852      9     0.00   0.65270   3 ;    C21-   C12-   C13-   H3R
 10815  10854  10851  10853      9     0.00   0.65270   3 ;    C21-   C12-   C13-   H3S
 10816  10815  10854  10851      9   180.00   0.00000   2 ;    O22-   C21-   C12-   C13
 10816  10815  10854  10855      9     0.00   3.34720   1 ;    O22-   C21-   C12-   H2R
 10816  10815  10854  10855      9   180.00   0.33472   3 ;    O22-   C21-   C12-   H2R
 10816  10815  10854  10856      9     0.00   3.34720   1 ;    O22-   C21-   C12-   H2S
 10816  10815  10854  10856      9   180.00   0.33472   3 ;    O22-   C21-   C12-   H2S
 10817  10818  10821  10822      9     0.00   0.62760   3 ;   H14T-  C114-  C113-  H13R
 10817  10818  10821  10823      9     0.00   0.62760   3 ;   H14T-  C114-  C113-  H13S
 10817  10818  10821  10824      9     0.00   0.66944   3 ;   H14T-  C114-  C113-  C112
 10818  10821  10824  10825      9     0.00   0.66944   3 ;   C114-  C113-  C112-  H12R
 10818  10821  10824  10826      9     0.00   0.66944   3 ;   C114-  C113-  C112-  H12S
 10818  10821  10824  10827      9     0.00   0.41840   1 ;   C114-  C113-  C112-  C111
 10818  10821  10824  10827      9     0.00   0.41840   2 ;   C114-  C113-  C112-  C111
 10818  10821  10824  10827      9     0.00   0.41840   4 ;   C114-  C113-  C112-  C111
 10818  10821  10824  10827      9     0.00   0.41840   5 ;   C114-  C113-  C112-  C111
 10818  10821  10824  10827      9     0.00   1.25520   3 ;   C114-  C113-  C112-  C111
 10819  10818  10821  10822      9     0.00   0.62760   3 ;   H14R-  C114-  C113-  H13R
 10819  10818  10821  10823      9     0.00   0.62760   3 ;   H14R-  C114-  C113-  H13S
 10819  10818  10821  10824      9     0.00   0.66944   3 ;   H14R-  C114-  C113-  C112
 10820  10818  10821  10822      9     0.00   0.62760   3 ;   H14S-  C114-  C113-  H13R
 10820  10818  10821  10823      9     0.00   0.62760   3 ;   H14S-  C114-  C113-  H13S
 10820  10818  10821  10824      9     0.00   0.66944   3 ;   H14S-  C114-  C113-  C112
 10821  10824  10827  10828      9     0.00   0.66944   3 ;   C113-  C112-  C111-  H11R
 10821  10824  10827  10829      9     0.00   0.66944   3 ;   C113-  C112-  C111-  H11S
 10821  10824  10827  10830      9     0.00   0.41840   1 ;   C113-  C112-  C111-  C110
 10821  10824  10827  10830      9     0.00   0.41840   2 ;   C113-  C112-  C111-  C110
 10821  10824  10827  10830      9     0.00   0.41840   4 ;   C113-  C112-  C111-  C110
 10821  10824  10827  10830      9     0.00   0.41840   5 ;   C113-  C112-  C111-  C110
 10821  10824  10827  10830      9     0.00   1.25520   3 ;   C113-  C112-  C111-  C110
 10822  10821  10824  10825      9     0.00   0.62760   3 ;   H13R-  C113-  C112-  H12R
 10822  10821  10824  10826      9     0.00   0.62760   3 ;   H13R-  C113-  C112-  H12S
 10822  10821  10824  10827      9     0.00   0.66944   3 ;   H13R-  C113-  C112-  C111
 10823  10821  10824  10825      9     0.00   0.62760   3 ;   H13S-  C113-  C112-  H12R
 10823  10821  10824  10826      9     0.00   0.62760   3 ;   H13S-  C113-  C112-  H12S
 10823  10821  10824  10827      9     0.00   0.66944   3 ;   H13S-  C113-  C112-  C111
 10824  10827  10830  10831      9     0.00   0.66944   3 ;   C112-  C111-  C110-  H10R
 10824  10827  10830  10832      9     0.00   0.66944   3 ;   C112-  C111-  C110-  H10S
 10824  10827  10830  10833      9     0.00   0.41840   1 ;   C112-  C111-  C110-   C19
 10824  10827  10830  10833      9     0.00   0.41840   2 ;   C112-  C111-  C110-   C19
 10824  10827  10830  10833      9     0.00   0.41840   4 ;   C112-  C111-  C110-   C19
 10824  10827  10830  10833      9     0.00   0.41840   5 ;   C112-  C111-  C110-   C19
 10824  10827  10830  10833      9     0.00   1.25520   3 ;   C112-  C111-  C110-   C19
 10825  10824  10827  10828      9     0.00   0.62760   3 ;   H12R-  C112-  C111-  H11R
 10825  10824  10827  10829      9     0.00   0.62760   3 ;   H12R-  C112-  C111-  H11S
 10825  10824  10827  10830      9     0.00   0.66944   3 ;   H12R-  C112-  C111-  C110
 10826  10824  10827  10828      9     0.00   0.62760   3 ;   H12S-  C112-  C111-  H11R
 10826  10824  10827  10829      9     0.00   0.62760   3 ;   H12S-  C112-  C111-  H11S
 10826  10824  10827  10830      9     0.00   0.66944   3 ;   H12S-  C112-  C111-  C110
 10827  10830  10833  10834      9     0.00   0.66944   3 ;   C111-  C110-   C19-   H9R
 10827  10830  10833  10835      9     0.00   0.66944   3 ;   C111-  C110-   C19-   H9S
 10827  10830  10833  10836      9     0.00   0.41840   1 ;   C111-  C110-   C19-   C18
 10827  10830  10833  10836      9     0.00   0.41840   2 ;   C111-  C110-   C19-   C18
 10827  10830  10833  10836      9     0.00   0.41840   4 ;   C111-  C110-   C19-   C18
 10827  10830  10833  10836      9     0.00   0.41840   5 ;   C111-  C110-   C19-   C18
 10827  10830  10833  10836      9     0.00   1.25520   3 ;   C111-  C110-   C19-   C18
 10828  10827  10830  10831      9     0.00   0.62760   3 ;   H11R-  C111-  C110-  H10R
 10828  10827  10830  10832      9     0.00   0.62760   3 ;   H11R-  C111-  C110-  H10S
 10828  10827  10830  10833      9     0.00   0.66944   3 ;   H11R-  C111-  C110-   C19
 10829  10827  10830  10831      9     0.00   0.62760   3 ;   H11S-  C111-  C110-  H10R
 10829  10827  10830  10832      9     0.00   0.62760   3 ;   H11S-  C111-  C110-  H10S
 10829  10827  10830  10833      9     0.00   0.66944   3 ;   H11S-  C111-  C110-   C19
 10830  10833  10836  10837      9     0.00   0.66944   3 ;   C110-   C19-   C18-   H8R
 10830  10833  10836  10838      9     0.00   0.66944   3 ;   C110-   C19-   C18-   H8S
 10830  10833  10836  10839      9     0.00   0.41840   1 ;   C110-   C19-   C18-   C17
 10830  10833  10836  10839      9     0.00   0.41840   2 ;   C110-   C19-   C18-   C17
 10830  10833  10836  10839      9     0.00   0.41840   4 ;   C110-   C19-   C18-   C17
 10830  10833  10836  10839      9     0.00   0.41840   5 ;   C110-   C19-   C18-   C17
 10830  10833  10836  10839      9     0.00   1.25520   3 ;   C110-   C19-   C18-   C17
 10831  10830  10833  10834      9     0.00   0.62760   3 ;   H10R-  C110-   C19-   H9R
 10831  10830  10833  10835      9     0.00   0.62760   3 ;   H10R-  C110-   C19-   H9S
 10831  10830  10833  10836      9     0.00   0.66944   3 ;   H10R-  C110-   C19-   C18
 10832  10830  10833  10834      9     0.00   0.62760   3 ;   H10S-  C110-   C19-   H9R
 10832  10830  10833  10835      9     0.00   0.62760   3 ;   H10S-  C110-   C19-   H9S
 10832  10830  10833  10836      9     0.00   0.66944   3 ;   H10S-  C110-   C19-   C18
 10833  10836  10839  10840      9     0.00   0.66944   3 ;    C19-   C18-   C17-   H7R
 10833  10836  10839  10841      9     0.00   0.66944   3 ;    C19-   C18-   C17-   H7S
 10833  10836  10839  10842      9     0.00   0.41840   1 ;    C19-   C18-   C17-   C16
 10833  10836  10839  10842      9     0.00   0.41840   2 ;    C19-   C18-   C17-   C16
 10833  10836  10839  10842      9     0.00   0.41840   4 ;    C19-   C18-   C17-   C16
 10833  10836  10839  10842      9     0.00   0.41840   5 ;    C19-   C18-   C17-   C16
 10833  10836  10839  10842      9     0.00   1.25520   3 ;    C19-   C18-   C17-   C16
 10834  10833  10836  10837      9     0.00   0.62760   3 ;    H9R-   C19-   C18-   H8R
 10834  10833  10836  10838      9     0.00   0.62760   3 ;    H9R-   C19-   C18-   H8S
 10834  10833  10836  10839      9     0.00   0.66944   3 ;    H9R-   C19-   C18-   C17
 10835  10833  10836  10837      9     0.00   0.62760   3 ;    H9S-   C19-   C18-   H8R
 10835  10833  10836  10838      9     0.00   0.62760   3 ;    H9S-   C19-   C18-   H8S
 10835  10833  10836  10839      9     0.00   0.66944   3 ;    H9S-   C19-   C18-   C17
 10836  10839  10842  10843      9     0.00   0.66944   3 ;    C18-   C17-   C16-   H6R
 10836  10839  10842  10844      9     0.00   0.66944   3 ;    C18-   C17-   C16-   H6S
 10836  10839  10842  10845      9     0.00   0.41840   1 ;    C18-   C17-   C16-   C15
 10836  10839  10842  10845      9     0.00   0.41840   2 ;    C18-   C17-   C16-   C15
 10836  10839  10842  10845      9     0.00   0.41840   4 ;    C18-   C17-   C16-   C15
 10836  10839  10842  10845      9     0.00   0.41840   5 ;    C18-   C17-   C16-   C15
 10836  10839  10842  10845      9     0.00   1.25520   3 ;    C18-   C17-   C16-   C15
 10837  10836  10839  10840      9     0.00   0.62760   3 ;    H8R-   C18-   C17-   H7R
 10837  10836  10839  10841      9     0.00   0.62760   3 ;    H8R-   C18-   C17-   H7S
 10837  10836  10839  10842      9     0.00   0.66944   3 ;    H8R-   C18-   C17-   C16
 10838  10836  10839  10840      9     0.00   0.62760   3 ;    H8S-   C18-   C17-   H7R
 10838  10836  10839  10841      9     0.00   0.62760   3 ;    H8S-   C18-   C17-   H7S
 10838  10836  10839  10842      9     0.00   0.66944   3 ;    H8S-   C18-   C17-   C16
 10839  10842  10845  10846      9     0.00   0.66944   3 ;    C17-   C16-   C15-   H5R
 10839  10842  10845  10847      9     0.00   0.66944   3 ;    C17-   C16-   C15-   H5S
 10839  10842  10845  10848      9     0.00   0.41840   1 ;    C17-   C16-   C15-   C14
 10839  10842  10845  10848      9     0.00   0.41840   2 ;    C17-   C16-   C15-   C14
 10839  10842  10845  10848      9     0.00   0.41840   4 ;    C17-   C16-   C15-   C14
 10839  10842  10845  10848      9     0.00   0.41840   5 ;    C17-   C16-   C15-   C14
 10839  10842  10845  10848      9     0.00   1.25520   3 ;    C17-   C16-   C15-   C14
 10840  10839  10842  10843      9     0.00   0.62760   3 ;    H7R-   C17-   C16-   H6R
 10840  10839  10842  10844      9     0.00   0.62760   3 ;    H7R-   C17-   C16-   H6S
 10840  10839  10842  10845      9     0.00   0.66944   3 ;    H7R-   C17-   C16-   C15
 10841  10839  10842  10843      9     0.00   0.62760   3 ;    H7S-   C17-   C16-   H6R
 10841  10839  10842  10844      9     0.00   0.62760   3 ;    H7S-   C17-   C16-   H6S
 10841  10839  10842  10845      9     0.00   0.66944   3 ;    H7S-   C17-   C16-   C15
 10842  10845  10848  10849      9     0.00   0.66944   3 ;    C16-   C15-   C14-   H4R
 10842  10845  10848  10850      9     0.00   0.66944   3 ;    C16-   C15-   C14-   H4S
 10842  10845  10848  10851      9     0.00   0.41840   1 ;    C16-   C15-   C14-   C13
 10842  10845  10848  10851      9     0.00   0.41840   2 ;    C16-   C15-   C14-   C13
 10842  10845  10848  10851      9     0.00   0.41840   4 ;    C16-   C15-   C14-   C13
 10842  10845  10848  10851      9     0.00   0.41840   5 ;    C16-   C15-   C14-   C13
 10842  10845  10848  10851      9     0.00   1.25520   3 ;    C16-   C15-   C14-   C13
 10843  10842  10845  10846      9     0.00   0.62760   3 ;    H6R-   C16-   C15-   H5R
 10843  10842  10845  10847      9     0.00   0.62760   3 ;    H6R-   C16-   C15-   H5S
 10843  10842  10845  10848      9     0.00   0.66944   3 ;    H6R-   C16-   C15-   C14
 10844  10842  10845  10846      9     0.00   0.62760   3 ;    H6S-   C16-   C15-   H5R
 10844  10842  10845  10847      9     0.00   0.62760   3 ;    H6S-   C16-   C15-   H5S
 10844  10842  10845  10848      9     0.00   0.66944   3 ;    H6S-   C16-   C15-   C14
 10845  10848  10851  10852      9     0.00   0.66944   3 ;    C15-   C14-   C13-   H3R
 10845  10848  10851  10853      9     0.00   0.66944   3 ;    C15-   C14-   C13-   H3S
 10845  10848  10851  10854      9     0.00   0.41840   1 ;    C15-   C14-   C13-   C12
 10845  10848  10851  10854      9     0.00   0.41840   2 ;    C15-   C14-   C13-   C12
 10845  10848  10851  10854      9     0.00   0.41840   4 ;    C15-   C14-   C13-   C12
 10845  10848  10851  10854      9     0.00   0.41840   5 ;    C15-   C14-   C13-   C12
 10845  10848  10851  10854      9     0.00   1.25520   3 ;    C15-   C14-   C13-   C12
 10846  10845  10848  10849      9     0.00   0.62760   3 ;    H5R-   C15-   C14-   H4R
 10846  10845  10848  10850      9     0.00   0.62760   3 ;    H5R-   C15-   C14-   H4S
 10846  10845  10848  10851      9     0.00   0.66944   3 ;    H5R-   C15-   C14-   C13
 10847  10845  10848  10849      9     0.00   0.62760   3 ;    H5S-   C15-   C14-   H4R
 10847  10845  10848  10850      9     0.00   0.62760   3 ;    H5S-   C15-   C14-   H4S
 10847  10845  10848  10851      9     0.00   0.66944   3 ;    H5S-   C15-   C14-   C13
 10848  10851  10854  10855      9     0.00   0.66944   3 ;    C14-   C13-   C12-   H2R
 10848  10851  10854  10856      9     0.00   0.66944   3 ;    C14-   C13-   C12-   H2S
 10849  10848  10851  10852      9     0.00   0.62760   3 ;    H4R-   C14-   C13-   H3R
 10849  10848  10851  10853      9     0.00   0.62760   3 ;    H4R-   C14-   C13-   H3S
 10849  10848  10851  10854      9     0.00   0.66944   3 ;    H4R-   C14-   C13-   C12
 10850  10848  10851  10852      9     0.00   0.62760   3 ;    H4S-   C14-   C13-   H3R
 10850  10848  10851  10853      9     0.00   0.62760   3 ;    H4S-   C14-   C13-   H3S
 10850  10848  10851  10854      9     0.00   0.66944   3 ;    H4S-   C14-   C13-   C12
 10852  10851  10854  10855      9     0.00   0.62760   3 ;    H3R-   C13-   C12-   H2R
 10852  10851  10854  10856      9     0.00   0.62760   3 ;    H3R-   C13-   C12-   H2S
 10853  10851  10854  10855      9     0.00   0.62760   3 ;    H3S-   C13-   C12-   H2R
 10853  10851  10854  10856      9     0.00   0.62760   3 ;    H3S-   C13-   C12-   H2S
 10857  10858  10861  10862      9     0.00   0.62760   3 ;   H14T-  C114-  C113-  H13R
 10857  10858  10861  10863      9     0.00   0.62760   3 ;   H14T-  C114-  C113-  H13S
 10857  10858  10861  10864      9     0.00   0.66944   3 ;   H14T-  C114-  C113-  C112
 10858  10861  10864  10865      9     0.00   0.66944   3 ;   C114-  C113-  C112-  H12R
 10858  10861  10864  10866      9     0.00   0.66944   3 ;   C114-  C113-  C112-  H12S
 10858  10861  10864  10867      9     0.00   0.41840   1 ;   C114-  C113-  C112-  C111
 10858  10861  10864  10867      9     0.00   0.41840   2 ;   C114-  C113-  C112-  C111
 10858  10861  10864  10867      9     0.00   0.41840   4 ;   C114-  C113-  C112-  C111
 10858  10861  10864  10867      9     0.00   0.41840   5 ;   C114-  C113-  C112-  C111
 10858  10861  10864  10867      9     0.00   1.25520   3 ;   C114-  C113-  C112-  C111
 10859  10858  10861  10862      9     0.00   0.62760   3 ;   H14R-  C114-  C113-  H13R
 10859  10858  10861  10863      9     0.00   0.62760   3 ;   H14R-  C114-  C113-  H13S
 10859  10858  10861  10864      9     0.00   0.66944   3 ;   H14R-  C114-  C113-  C112
 10860  10858  10861  10862      9     0.00   0.62760   3 ;   H14S-  C114-  C113-  H13R
 10860  10858  10861  10863      9     0.00   0.62760   3 ;   H14S-  C114-  C113-  H13S
 10860  10858  10861  10864      9     0.00   0.66944   3 ;   H14S-  C114-  C113-  C112
 10861  10864  10867  10868      9     0.00   0.66944   3 ;   C113-  C112-  C111-  H11R
 10861  10864  10867  10869      9     0.00   0.66944   3 ;   C113-  C112-  C111-  H11S
 10861  10864  10867  10870      9     0.00   0.41840   1 ;   C113-  C112-  C111-  C110
 10861  10864  10867  10870      9     0.00   0.41840   2 ;   C113-  C112-  C111-  C110
 10861  10864  10867  10870      9     0.00   0.41840   4 ;   C113-  C112-  C111-  C110
 10861  10864  10867  10870      9     0.00   0.41840   5 ;   C113-  C112-  C111-  C110
 10861  10864  10867  10870      9     0.00   1.25520   3 ;   C113-  C112-  C111-  C110
 10862  10861  10864  10865      9     0.00   0.62760   3 ;   H13R-  C113-  C112-  H12R
 10862  10861  10864  10866      9     0.00   0.62760   3 ;   H13R-  C113-  C112-  H12S
 10862  10861  10864  10867      9     0.00   0.66944   3 ;   H13R-  C113-  C112-  C111
 10863  10861  10864  10865      9     0.00   0.62760   3 ;   H13S-  C113-  C112-  H12R
 10863  10861  10864  10866      9     0.00   0.62760   3 ;   H13S-  C113-  C112-  H12S
 10863  10861  10864  10867      9     0.00   0.66944   3 ;   H13S-  C113-  C112-  C111
 10864  10867  10870  10871      9     0.00   0.66944   3 ;   C112-  C111-  C110-  H10R
 10864  10867  10870  10872      9     0.00   0.66944   3 ;   C112-  C111-  C110-  H10S
 10864  10867  10870  10873      9     0.00   0.41840   1 ;   C112-  C111-  C110-   C19
 10864  10867  10870  10873      9     0.00   0.41840   2 ;   C112-  C111-  C110-   C19
 10864  10867  10870  10873      9     0.00   0.41840   4 ;   C112-  C111-  C110-   C19
 10864  10867  10870  10873      9     0.00   0.41840   5 ;   C112-  C111-  C110-   C19
 10864  10867  10870  10873      9     0.00   1.25520   3 ;   C112-  C111-  C110-   C19
 10865  10864  10867  10868      9     0.00   0.62760   3 ;   H12R-  C112-  C111-  H11R
 10865  10864  10867  10869      9     0.00   0.62760   3 ;   H12R-  C112-  C111-  H11S
 10865  10864  10867  10870      9     0.00   0.66944   3 ;   H12R-  C112-  C111-  C110
 10866  10864  10867  10868      9     0.00   0.62760   3 ;   H12S-  C112-  C111-  H11R
 10866  10864  10867  10869      9     0.00   0.62760   3 ;   H12S-  C112-  C111-  H11S
 10866  10864  10867  10870      9     0.00   0.66944   3 ;   H12S-  C112-  C111-  C110
 10867  10870  10873  10874      9     0.00   0.66944   3 ;   C111-  C110-   C19-   H9R
 10867  10870  10873  10875      9     0.00   0.66944   3 ;   C111-  C110-   C19-   H9S
 10867  10870  10873  10876      9     0.00   0.41840   1 ;   C111-  C110-   C19-   C18
 10867  10870  10873  10876      9     0.00   0.41840   2 ;   C111-  C110-   C19-   C18
 10867  10870  10873  10876      9     0.00   0.41840   4 ;   C111-  C110-   C19-   C18
 10867  10870  10873  10876      9     0.00   0.41840   5 ;   C111-  C110-   C19-   C18
 10867  10870  10873  10876      9     0.00   1.25520   3 ;   C111-  C110-   C19-   C18
 10868  10867  10870  10871      9     0.00   0.62760   3 ;   H11R-  C111-  C110-  H10R
 10868  10867  10870  10872      9     0.00   0.62760   3 ;   H11R-  C111-  C110-  H10S
 10868  10867  10870  10873      9     0.00   0.66944   3 ;   H11R-  C111-  C110-   C19
 10869  10867  10870  10871      9     0.00   0.62760   3 ;   H11S-  C111-  C110-  H10R
 10869  10867  10870  10872      9     0.00   0.62760   3 ;   H11S-  C111-  C110-  H10S
 10869  10867  10870  10873      9     0.00   0.66944   3 ;   H11S-  C111-  C110-   C19
 10870  10873  10876  10877      9     0.00   0.66944   3 ;   C110-   C19-   C18-   H8R
 10870  10873  10876  10878      9     0.00   0.66944   3 ;   C110-   C19-   C18-   H8S
 10870  10873  10876  10879      9     0.00   0.41840   1 ;   C110-   C19-   C18-   C17
 10870  10873  10876  10879      9     0.00   0.41840   2 ;   C110-   C19-   C18-   C17
 10870  10873  10876  10879      9     0.00   0.41840   4 ;   C110-   C19-   C18-   C17
 10870  10873  10876  10879      9     0.00   0.41840   5 ;   C110-   C19-   C18-   C17
 10870  10873  10876  10879      9     0.00   1.25520   3 ;   C110-   C19-   C18-   C17
 10871  10870  10873  10874      9     0.00   0.62760   3 ;   H10R-  C110-   C19-   H9R
 10871  10870  10873  10875      9     0.00   0.62760   3 ;   H10R-  C110-   C19-   H9S
 10871  10870  10873  10876      9     0.00   0.66944   3 ;   H10R-  C110-   C19-   C18
 10872  10870  10873  10874      9     0.00   0.62760   3 ;   H10S-  C110-   C19-   H9R
 10872  10870  10873  10875      9     0.00   0.62760   3 ;   H10S-  C110-   C19-   H9S
 10872  10870  10873  10876      9     0.00   0.66944   3 ;   H10S-  C110-   C19-   C18
 10873  10876  10879  10880      9     0.00   0.66944   3 ;    C19-   C18-   C17-   H7R
 10873  10876  10879  10881      9     0.00   0.66944   3 ;    C19-   C18-   C17-   H7S
 10873  10876  10879  10882      9     0.00   0.41840   1 ;    C19-   C18-   C17-   C16
 10873  10876  10879  10882      9     0.00   0.41840   2 ;    C19-   C18-   C17-   C16
 10873  10876  10879  10882      9     0.00   0.41840   4 ;    C19-   C18-   C17-   C16
 10873  10876  10879  10882      9     0.00   0.41840   5 ;    C19-   C18-   C17-   C16
 10873  10876  10879  10882      9     0.00   1.25520   3 ;    C19-   C18-   C17-   C16
 10874  10873  10876  10877      9     0.00   0.62760   3 ;    H9R-   C19-   C18-   H8R
 10874  10873  10876  10878      9     0.00   0.62760   3 ;    H9R-   C19-   C18-   H8S
 10874  10873  10876  10879      9     0.00   0.66944   3 ;    H9R-   C19-   C18-   C17
 10875  10873  10876  10877      9     0.00   0.62760   3 ;    H9S-   C19-   C18-   H8R
 10875  10873  10876  10878      9     0.00   0.62760   3 ;    H9S-   C19-   C18-   H8S
 10875  10873  10876  10879      9     0.00   0.66944   3 ;    H9S-   C19-   C18-   C17
 10876  10879  10882  10883      9     0.00   0.66944   3 ;    C18-   C17-   C16-   H6R
 10876  10879  10882  10884      9     0.00   0.66944   3 ;    C18-   C17-   C16-   H6S
 10876  10879  10882  10885      9     0.00   0.41840   1 ;    C18-   C17-   C16-   C15
 10876  10879  10882  10885      9     0.00   0.41840   2 ;    C18-   C17-   C16-   C15
 10876  10879  10882  10885      9     0.00   0.41840   4 ;    C18-   C17-   C16-   C15
 10876  10879  10882  10885      9     0.00   0.41840   5 ;    C18-   C17-   C16-   C15
 10876  10879  10882  10885      9     0.00   1.25520   3 ;    C18-   C17-   C16-   C15
 10877  10876  10879  10880      9     0.00   0.62760   3 ;    H8R-   C18-   C17-   H7R
 10877  10876  10879  10881      9     0.00   0.62760   3 ;    H8R-   C18-   C17-   H7S
 10877  10876  10879  10882      9     0.00   0.66944   3 ;    H8R-   C18-   C17-   C16
 10878  10876  10879  10880      9     0.00   0.62760   3 ;    H8S-   C18-   C17-   H7R
 10878  10876  10879  10881      9     0.00   0.62760   3 ;    H8S-   C18-   C17-   H7S
 10878  10876  10879  10882      9     0.00   0.66944   3 ;    H8S-   C18-   C17-   C16
 10879  10882  10885  10886      9     0.00   0.66944   3 ;    C17-   C16-   C15-   H5R
 10879  10882  10885  10887      9     0.00   0.66944   3 ;    C17-   C16-   C15-   H5S
 10879  10882  10885  10888      9     0.00   0.41840   1 ;    C17-   C16-   C15-   C14
 10879  10882  10885  10888      9     0.00   0.41840   2 ;    C17-   C16-   C15-   C14
 10879  10882  10885  10888      9     0.00   0.41840   4 ;    C17-   C16-   C15-   C14
 10879  10882  10885  10888      9     0.00   0.41840   5 ;    C17-   C16-   C15-   C14
 10879  10882  10885  10888      9     0.00   1.25520   3 ;    C17-   C16-   C15-   C14
 10880  10879  10882  10883      9     0.00   0.62760   3 ;    H7R-   C17-   C16-   H6R
 10880  10879  10882  10884      9     0.00   0.62760   3 ;    H7R-   C17-   C16-   H6S
 10880  10879  10882  10885      9     0.00   0.66944   3 ;    H7R-   C17-   C16-   C15
 10881  10879  10882  10883      9     0.00   0.62760   3 ;    H7S-   C17-   C16-   H6R
 10881  10879  10882  10884      9     0.00   0.62760   3 ;    H7S-   C17-   C16-   H6S
 10881  10879  10882  10885      9     0.00   0.66944   3 ;    H7S-   C17-   C16-   C15
 10882  10885  10888  10889      9     0.00   0.66944   3 ;    C16-   C15-   C14-   H4R
 10882  10885  10888  10890      9     0.00   0.66944   3 ;    C16-   C15-   C14-   H4S
 10882  10885  10888  10891      9     0.00   0.41840   1 ;    C16-   C15-   C14-   C13
 10882  10885  10888  10891      9     0.00   0.41840   2 ;    C16-   C15-   C14-   C13
 10882  10885  10888  10891      9     0.00   0.41840   4 ;    C16-   C15-   C14-   C13
 10882  10885  10888  10891      9     0.00   0.41840   5 ;    C16-   C15-   C14-   C13
 10882  10885  10888  10891      9     0.00   1.25520   3 ;    C16-   C15-   C14-   C13
 10883  10882  10885  10886      9     0.00   0.62760   3 ;    H6R-   C16-   C15-   H5R
 10883  10882  10885  10887      9     0.00   0.62760   3 ;    H6R-   C16-   C15-   H5S
 10883  10882  10885  10888      9     0.00   0.66944   3 ;    H6R-   C16-   C15-   C14
 10884  10882  10885  10886      9     0.00   0.62760   3 ;    H6S-   C16-   C15-   H5R
 10884  10882  10885  10887      9     0.00   0.62760   3 ;    H6S-   C16-   C15-   H5S
 10884  10882  10885  10888      9     0.00   0.66944   3 ;    H6S-   C16-   C15-   C14
 10885  10888  10891  10892      9     0.00   0.66944   3 ;    C15-   C14-   C13-   H3R
 10885  10888  10891  10893      9     0.00   0.66944   3 ;    C15-   C14-   C13-   H3S
 10885  10888  10891  10894      9     0.00   0.41840   1 ;    C15-   C14-   C13-   C12
 10885  10888  10891  10894      9     0.00   0.41840   2 ;    C15-   C14-   C13-   C12
 10885  10888  10891  10894      9     0.00   0.41840   4 ;    C15-   C14-   C13-   C12
 10885  10888  10891  10894      9     0.00   0.41840   5 ;    C15-   C14-   C13-   C12
 10885  10888  10891  10894      9     0.00   1.25520   3 ;    C15-   C14-   C13-   C12
 10886  10885  10888  10889      9     0.00   0.62760   3 ;    H5R-   C15-   C14-   H4R
 10886  10885  10888  10890      9     0.00   0.62760   3 ;    H5R-   C15-   C14-   H4S
 10886  10885  10888  10891      9     0.00   0.66944   3 ;    H5R-   C15-   C14-   C13
 10887  10885  10888  10889      9     0.00   0.62760   3 ;    H5S-   C15-   C14-   H4R
 10887  10885  10888  10890      9     0.00   0.62760   3 ;    H5S-   C15-   C14-   H4S
 10887  10885  10888  10891      9     0.00   0.66944   3 ;    H5S-   C15-   C14-   C13
 10888  10891  10894  10895      9     0.00   0.66944   3 ;    C14-   C13-   C12-   H2R
 10888  10891  10894  10896      9     0.00   0.66944   3 ;    C14-   C13-   C12-   H2S
 10888  10891  10894  10897      9     0.00   0.65270   3 ;    C14-   C13-   C12-   C11
 10889  10888  10891  10892      9     0.00   0.62760   3 ;    H4R-   C14-   C13-   H3R
 10889  10888  10891  10893      9     0.00   0.62760   3 ;    H4R-   C14-   C13-   H3S
 10889  10888  10891  10894      9     0.00   0.66944   3 ;    H4R-   C14-   C13-   C12
 10890  10888  10891  10892      9     0.00   0.62760   3 ;    H4S-   C14-   C13-   H3R
 10890  10888  10891  10893      9     0.00   0.62760   3 ;    H4S-   C14-   C13-   H3S
 10890  10888  10891  10894      9     0.00   0.66944   3 ;    H4S-   C14-   C13-   C12
 10891  10894  10897  10898      9   180.00   0.00000   2 ;    C13-   C12-   C11-   O12
 10891  10894  10897  10899      9   180.00   0.00000   2 ;    C13-   C12-   C11-   O11
 10892  10891  10894  10895      9     0.00   0.62760   3 ;    H3R-   C13-   C12-   H2R
 10892  10891  10894  10896      9     0.00   0.62760   3 ;    H3R-   C13-   C12-   H2S
 10892  10891  10894  10897      9     0.00   0.65270   3 ;    H3R-   C13-   C12-   C11
 10893  10891  10894  10895      9     0.00   0.62760   3 ;    H3S-   C13-   C12-   H2R
 10893  10891  10894  10896      9     0.00   0.62760   3 ;    H3S-   C13-   C12-   H2S
 10893  10891  10894  10897      9     0.00   0.65270   3 ;    H3S-   C13-   C12-   C11
 10894  10897  10899  10900      9   180.00  11.29680   2 ;    C12-   C11-   O11-    C1
 10895  10894  10897  10898      9     0.00   3.34720   1 ;    H2R-   C12-   C11-   O12
 10895  10894  10897  10898      9   180.00   0.33472   3 ;    H2R-   C12-   C11-   O12
 10895  10894  10897  10899      9   180.00   0.00000   2 ;    H2R-   C12-   C11-   O11
 10896  10894  10897  10898      9     0.00   3.34720   1 ;    H2S-   C12-   C11-   O12
 10896  10894  10897  10898      9   180.00   0.33472   3 ;    H2S-   C12-   C11-   O12
 10896  10894  10897  10899      9   180.00   0.00000   2 ;    H2S-   C12-   C11-   O11
 10897  10899  10900  10901      9     0.00   1.60247   3 ;    C11-   O11-    C1-    HR
 10897  10899  10900  10902      9     0.00   1.60247   3 ;    C11-   O11-    C1-    HS
 10897  10899  10900  10903      9     0.00  -0.41840   1 ;    C11-   O11-    C1-    C2
 10898  10897  10899  10900      9   180.00   5.85760   1 ;    O12-   C11-   O11-    C1
 10898  10897  10899  10900      9   180.00  11.29680   2 ;    O12-   C11-   O11-    C1
 10899  10900  10903  10904      9     0.00   0.00000   0 ;    O11-    C1-    C2-    HX
 10899  10900  10903  10904      9     0.00   1.04600   1 ;    O11-    C1-    C2-    HX
 10899  10900  10903  10905      9     0.00   0.00000   0 ;    O11-    C1-    C2-    C3
 10899  10900  10903  10905      9     0.00   0.00000   0 ;    O11-    C1-    C2-    C3
 10899  10900  10903  10905      9     0.00   0.00000   0 ;    O11-    C1-    C2-    C3
 10899  10900  10903  10905      9     0.00   0.00000   0 ;    O11-    C1-    C2-    C3
 10899  10900  10903  10905      9     0.00   0.00000   0 ;    O11-    C1-    C2-    C3
 10899  10900  10903  10932      9     0.00   1.25520   2 ;    O11-    C1-    C2-   O21
 10899  10900  10903  10932      9     0.00   4.18400   3 ;    O11-    C1-    C2-   O21
 10899  10900  10903  10932      9   180.00  -0.41840   1 ;    O11-    C1-    C2-   O21
 10900  10903  10905  10906      9     0.00   0.65270   3 ;     C1-    C2-    C3-    HA
 10900  10903  10905  10907      9     0.00   0.65270   3 ;     C1-    C2-    C3-    HB
 10900  10903  10905  10908      9   180.00   3.34720   1 ;     C1-    C2-    C3-   O31
 10900  10903  10932  10933      9     0.00  -0.41840   1 ;     C1-    C2-   O21-   C21
 10901  10900  10903  10904      9     0.00   0.65270   3 ;     HR-    C1-    C2-    HX
 10901  10900  10903  10905      9     0.00   0.65270   3 ;     HR-    C1-    C2-    C3
 10901  10900  10903  10932      9     0.00   0.00000   0 ;     HR-    C1-    C2-   O21
 10901  10900  10903  10932      9     0.00   1.04600   1 ;     HR-    C1-    C2-   O21
 10902  10900  10903  10904      9     0.00   0.65270   3 ;     HS-    C1-    C2-    HX
 10902  10900  10903  10905      9     0.00   0.65270   3 ;     HS-    C1-    C2-    C3
 10902  10900  10903  10932      9     0.00   0.00000   0 ;     HS-    C1-    C2-   O21
 10902  10900  10903  10932      9     0.00   1.04600   1 ;     HS-    C1-    C2-   O21
 10903  10905  10908  10909      9     0.00   0.00000   0 ;     C2-    C3-   O31-   P31
 10903  10905  10908  10909      9   180.00  -3.34720   2 ;     C2-    C3-   O31-   P31
 10903  10932  10933  10934      9   180.00   5.85760   1 ;     C2-   O21-   C21-   O22
 10903  10932  10933  10934      9   180.00  11.29680   2 ;     C2-   O21-   C21-   O22
 10903  10932  10933  10972      9   180.00  11.29680   2 ;     C2-   O21-   C21-   C12
 10904  10903  10905  10906      9     0.00   0.65270   3 ;     HX-    C2-    C3-    HA
 10904  10903  10905  10907      9     0.00   0.65270   3 ;     HX-    C2-    C3-    HB
 10904  10903  10905  10908      9     0.00   0.00000   0 ;     HX-    C2-    C3-   O31
 10904  10903  10905  10908      9     0.00   1.04600   1 ;     HX-    C2-    C3-   O31
 10904  10903  10932  10933      9     0.00   1.60247   3 ;     HX-    C2-   O21-   C21
 10905  10903  10932  10933      9     0.00  -0.41840   1 ;     C3-    C2-   O21-   C21
 10905  10908  10909  10910      9     0.00   2.51040   3 ;     C3-   O31-   P31-   O32
 10905  10908  10909  10910      9     0.00   9.62320   2 ;     C3-   O31-   P31-   O32
 10905  10908  10909  10930      9     0.00   0.00000   0 ;     C3-   O31-   P31-   O33
 10905  10908  10909  10930      9     0.00   0.00000   0 ;     C3-   O31-   P31-   O33
 10905  10908  10909  10930      9     0.00   0.00000   0 ;     C3-   O31-   P31-   O33
 10905  10908  10909  10930      9     0.00   0.00000   0 ;     C3-   O31-   P31-   O33
 10905  10908  10909  10930      9     0.00   0.83680   2 ;     C3-   O31-   P31-   O33
 10905  10908  10909  10931      9     0.00   0.00000   0 ;     C3-   O31-   P31-   O34
 10905  10908  10909  10931      9     0.00   0.00000   0 ;     C3-   O31-   P31-   O34
 10905  10908  10909  10931      9     0.00   0.00000   0 ;     C3-   O31-   P31-   O34
 10905  10908  10909  10931      9     0.00   0.00000   0 ;     C3-   O31-   P31-   O34
 10905  10908  10909  10931      9     0.00   0.83680   2 ;     C3-   O31-   P31-   O34
 10906  10905  10903  10932      9     0.00   0.00000   0 ;     HA-    C3-    C2-   O21
 10906  10905  10903  10932      9     0.00   1.04600   1 ;     HA-    C3-    C2-   O21
 10906  10905  10908  10909      9     0.00   0.00000   0 ;     HA-    C3-   O31-   P31
 10906  10905  10908  10909      9     0.00   0.00000   0 ;     HA-    C3-   O31-   P31
 10906  10905  10908  10909      9     0.00   0.00000   0 ;     HA-    C3-   O31-   P31
 10906  10905  10908  10909      9     0.00   0.00000   0 ;     HA-    C3-   O31-   P31
 10906  10905  10908  10909      9     0.00   1.60247   3 ;     HA-    C3-   O31-   P31
 10907  10905  10903  10932      9     0.00   0.00000   0 ;     HB-    C3-    C2-   O21
 10907  10905  10903  10932      9     0.00   1.04600   1 ;     HB-    C3-    C2-   O21
 10907  10905  10908  10909      9     0.00   0.00000   0 ;     HB-    C3-   O31-   P31
 10907  10905  10908  10909      9     0.00   0.00000   0 ;     HB-    C3-   O31-   P31
 10907  10905  10908  10909      9     0.00   0.00000   0 ;     HB-    C3-   O31-   P31
 10907  10905  10908  10909      9     0.00   0.00000   0 ;     HB-    C3-   O31-   P31
 10907  10905  10908  10909      9     0.00   1.60247   3 ;     HB-    C3-   O31-   P31
 10908  10905  10903  10932      9     0.00   0.00000   0 ;    O31-    C3-    C2-   O21
 10908  10905  10903  10932      9     0.00   0.00000   0 ;    O31-    C3-    C2-   O21
 10908  10905  10903  10932      9     0.00   0.00000   0 ;    O31-    C3-    C2-   O21
 10908  10905  10903  10932      9     0.00   0.00000   0 ;    O31-    C3-    C2-   O21
 10908  10905  10903  10932      9     0.00   0.00000   0 ;    O31-    C3-    C2-   O21
 10908  10909  10910  10911      9     0.00   2.51040   3 ;    O31-   P31-   O32-   C31
 10908  10909  10910  10911      9     0.00   9.62320   2 ;    O31-   P31-   O32-   C31
 10909  10910  10911  10912      9     0.00   0.00000   0 ;    P31-   O32-   C31-   H1A
 10909  10910  10911  10912      9     0.00   0.00000   0 ;    P31-   O32-   C31-   H1A
 10909  10910  10911  10912      9     0.00   0.00000   0 ;    P31-   O32-   C31-   H1A
 10909  10910  10911  10912      9     0.00   0.00000   0 ;    P31-   O32-   C31-   H1A
 10909  10910  10911  10912      9     0.00   1.60247   3 ;    P31-   O32-   C31-   H1A
 10909  10910  10911  10913      9     0.00   0.00000   0 ;    P31-   O32-   C31-   H1B
 10909  10910  10911  10913      9     0.00   0.00000   0 ;    P31-   O32-   C31-   H1B
 10909  10910  10911  10913      9     0.00   0.00000   0 ;    P31-   O32-   C31-   H1B
 10909  10910  10911  10913      9     0.00   0.00000   0 ;    P31-   O32-   C31-   H1B
 10909  10910  10911  10913      9     0.00   1.60247   3 ;    P31-   O32-   C31-   H1B
 10909  10910  10911  10914      9     0.00   0.00000   0 ;    P31-   O32-   C31-   C32
 10909  10910  10911  10914      9   180.00  -3.34720   2 ;    P31-   O32-   C31-   C32
 10910  10911  10914  10915      9     0.00   0.65270   3 ;    O32-   C31-   C32-   H2A
 10910  10911  10914  10916      9     0.00   0.65270   3 ;    O32-   C31-   C32-   H2B
 10910  10911  10914  10917      9     0.00   4.18400   3 ;    O32-   C31-   C32-   N31
 10911  10910  10909  10930      9     0.00   0.00000   0 ;    C31-   O32-   P31-   O33
 10911  10910  10909  10930      9     0.00   0.00000   0 ;    C31-   O32-   P31-   O33
 10911  10910  10909  10930      9     0.00   0.00000   0 ;    C31-   O32-   P31-   O33
 10911  10910  10909  10930      9     0.00   0.00000   0 ;    C31-   O32-   P31-   O33
 10911  10910  10909  10930      9     0.00   0.83680   2 ;    C31-   O32-   P31-   O33
 10911  10910  10909  10931      9     0.00   0.00000   0 ;    C31-   O32-   P31-   O34
 10911  10910  10909  10931      9     0.00   0.00000   0 ;    C31-   O32-   P31-   O34
 10911  10910  10909  10931      9     0.00   0.00000   0 ;    C31-   O32-   P31-   O34
 10911  10910  10909  10931      9     0.00   0.00000   0 ;    C31-   O32-   P31-   O34
 10911  10910  10909  10931      9     0.00   0.83680   2 ;    C31-   O32-   P31-   O34
 10911  10914  10917  10918      9     0.00   0.65270   3 ;    C31-   C32-   N31-   C33
 10911  10914  10917  10922      9     0.00   0.65270   3 ;    C31-   C32-   N31-   C34
 10911  10914  10917  10926      9     0.00   0.65270   3 ;    C31-   C32-   N31-   C35
 10912  10911  10914  10915      9     0.00   0.65270   3 ;    H1A-   C31-   C32-   H2A
 10912  10911  10914  10916      9     0.00   0.65270   3 ;    H1A-   C31-   C32-   H2B
 10912  10911  10914  10917      9     0.00   0.65270   3 ;    H1A-   C31-   C32-   N31
 10913  10911  10914  10915      9     0.00   0.65270   3 ;    H1B-   C31-   C32-   H2A
 10913  10911  10914  10916      9     0.00   0.65270   3 ;    H1B-   C31-   C32-   H2B
 10913  10911  10914  10917      9     0.00   0.65270   3 ;    H1B-   C31-   C32-   N31
 10914  10917  10918  10919      9     0.00   0.65270   3 ;    C32-   N31-   C33-   H3A
 10914  10917  10918  10920      9     0.00   0.65270   3 ;    C32-   N31-   C33-   H3B
 10914  10917  10918  10921      9     0.00   0.65270   3 ;    C32-   N31-   C33-   H3C
 10914  10917  10922  10923      9     0.00   0.65270   3 ;    C32-   N31-   C34-   H4A
 10914  10917  10922  10924      9     0.00   0.65270   3 ;    C32-   N31-   C34-   H4B
 10914  10917  10922  10925      9     0.00   0.65270   3 ;    C32-   N31-   C34-   H4C
 10914  10917  10926  10927      9     0.00   0.65270   3 ;    C32-   N31-   C35-   H5A
 10914  10917  10926  10928      9     0.00   0.65270   3 ;    C32-   N31-   C35-   H5B
 10914  10917  10926  10929      9     0.00   0.65270   3 ;    C32-   N31-   C35-   H5C
 10915  10914  10917  10918      9     0.00   0.65270   3 ;    H2A-   C32-   N31-   C33
 10915  10914  10917  10922      9     0.00   0.65270   3 ;    H2A-   C32-   N31-   C34
 10915  10914  10917  10926      9     0.00   0.65270   3 ;    H2A-   C32-   N31-   C35
 10916  10914  10917  10918      9     0.00   0.65270   3 ;    H2B-   C32-   N31-   C33
 10916  10914  10917  10922      9     0.00   0.65270   3 ;    H2B-   C32-   N31-   C34
 10916  10914  10917  10926      9     0.00   0.65270   3 ;    H2B-   C32-   N31-   C35
 10918  10917  10922  10923      9     0.00   0.65270   3 ;    C33-   N31-   C34-   H4A
 10918  10917  10922  10924      9     0.00   0.65270   3 ;    C33-   N31-   C34-   H4B
 10918  10917  10922  10925      9     0.00   0.65270   3 ;    C33-   N31-   C34-   H4C
 10918  10917  10926  10927      9     0.00   0.65270   3 ;    C33-   N31-   C35-   H5A
 10918  10917  10926  10928      9     0.00   0.65270   3 ;    C33-   N31-   C35-   H5B
 10918  10917  10926  10929      9     0.00   0.65270   3 ;    C33-   N31-   C35-   H5C
 10919  10918  10917  10922      9     0.00   0.65270   3 ;    H3A-   C33-   N31-   C34
 10919  10918  10917  10926      9     0.00   0.65270   3 ;    H3A-   C33-   N31-   C35
 10920  10918  10917  10922      9     0.00   0.65270   3 ;    H3B-   C33-   N31-   C34
 10920  10918  10917  10926      9     0.00   0.65270   3 ;    H3B-   C33-   N31-   C35
 10921  10918  10917  10922      9     0.00   0.65270   3 ;    H3C-   C33-   N31-   C34
 10921  10918  10917  10926      9     0.00   0.65270   3 ;    H3C-   C33-   N31-   C35
 10922  10917  10926  10927      9     0.00   0.65270   3 ;    C34-   N31-   C35-   H5A
 10922  10917  10926  10928      9     0.00   0.65270   3 ;    C34-   N31-   C35-   H5B
 10922  10917  10926  10929      9     0.00   0.65270   3 ;    C34-   N31-   C35-   H5C
 10923  10922  10917  10926      9     0.00   0.65270   3 ;    H4A-   C34-   N31-   C35
 10924  10922  10917  10926      9     0.00   0.65270   3 ;    H4B-   C34-   N31-   C35
 10925  10922  10917  10926      9     0.00   0.65270   3 ;    H4C-   C34-   N31-   C35
 10932  10933  10972  10969      9   180.00   0.00000   2 ;    O21-   C21-   C12-   C13
 10932  10933  10972  10973      9   180.00   0.00000   2 ;    O21-   C21-   C12-   H2R
 10932  10933  10972  10974      9   180.00   0.00000   2 ;    O21-   C21-   C12-   H2S
 10933  10972  10969  10966      9     0.00   0.65270   3 ;    C21-   C12-   C13-   C14
 10933  10972  10969  10970      9     0.00   0.65270   3 ;    C21-   C12-   C13-   H3R
 10933  10972  10969  10971      9     0.00   0.65270   3 ;    C21-   C12-   C13-   H3S
 10934  10933  10972  10969      9   180.00   0.00000   2 ;    O22-   C21-   C12-   C13
 10934  10933  10972  10973      9     0.00   3.34720   1 ;    O22-   C21-   C12-   H2R
 10934  10933  10972  10973      9   180.00   0.33472   3 ;    O22-   C21-   C12-   H2R
 10934  10933  10972  10974      9     0.00   3.34720   1 ;    O22-   C21-   C12-   H2S
 10934  10933  10972  10974      9   180.00   0.33472   3 ;    O22-   C21-   C12-   H2S
 10935  10936  10939  10940      9     0.00   0.62760   3 ;   H14T-  C114-  C113-  H13R
 10935  10936  10939  10941      9     0.00   0.62760   3 ;   H14T-  C114-  C113-  H13S
 10935  10936  10939  10942      9     0.00   0.66944   3 ;   H14T-  C114-  C113-  C112
 10936  10939  10942  10943      9     0.00   0.66944   3 ;   C114-  C113-  C112-  H12R
 10936  10939  10942  10944      9     0.00   0.66944   3 ;   C114-  C113-  C112-  H12S
 10936  10939  10942  10945      9     0.00   0.41840   1 ;   C114-  C113-  C112-  C111
 10936  10939  10942  10945      9     0.00   0.41840   2 ;   C114-  C113-  C112-  C111
 10936  10939  10942  10945      9     0.00   0.41840   4 ;   C114-  C113-  C112-  C111
 10936  10939  10942  10945      9     0.00   0.41840   5 ;   C114-  C113-  C112-  C111
 10936  10939  10942  10945      9     0.00   1.25520   3 ;   C114-  C113-  C112-  C111
 10937  10936  10939  10940      9     0.00   0.62760   3 ;   H14R-  C114-  C113-  H13R
 10937  10936  10939  10941      9     0.00   0.62760   3 ;   H14R-  C114-  C113-  H13S
 10937  10936  10939  10942      9     0.00   0.66944   3 ;   H14R-  C114-  C113-  C112
 10938  10936  10939  10940      9     0.00   0.62760   3 ;   H14S-  C114-  C113-  H13R
 10938  10936  10939  10941      9     0.00   0.62760   3 ;   H14S-  C114-  C113-  H13S
 10938  10936  10939  10942      9     0.00   0.66944   3 ;   H14S-  C114-  C113-  C112
 10939  10942  10945  10946      9     0.00   0.66944   3 ;   C113-  C112-  C111-  H11R
 10939  10942  10945  10947      9     0.00   0.66944   3 ;   C113-  C112-  C111-  H11S
 10939  10942  10945  10948      9     0.00   0.41840   1 ;   C113-  C112-  C111-  C110
 10939  10942  10945  10948      9     0.00   0.41840   2 ;   C113-  C112-  C111-  C110
 10939  10942  10945  10948      9     0.00   0.41840   4 ;   C113-  C112-  C111-  C110
 10939  10942  10945  10948      9     0.00   0.41840   5 ;   C113-  C112-  C111-  C110
 10939  10942  10945  10948      9     0.00   1.25520   3 ;   C113-  C112-  C111-  C110
 10940  10939  10942  10943      9     0.00   0.62760   3 ;   H13R-  C113-  C112-  H12R
 10940  10939  10942  10944      9     0.00   0.62760   3 ;   H13R-  C113-  C112-  H12S
 10940  10939  10942  10945      9     0.00   0.66944   3 ;   H13R-  C113-  C112-  C111
 10941  10939  10942  10943      9     0.00   0.62760   3 ;   H13S-  C113-  C112-  H12R
 10941  10939  10942  10944      9     0.00   0.62760   3 ;   H13S-  C113-  C112-  H12S
 10941  10939  10942  10945      9     0.00   0.66944   3 ;   H13S-  C113-  C112-  C111
 10942  10945  10948  10949      9     0.00   0.66944   3 ;   C112-  C111-  C110-  H10R
 10942  10945  10948  10950      9     0.00   0.66944   3 ;   C112-  C111-  C110-  H10S
 10942  10945  10948  10951      9     0.00   0.41840   1 ;   C112-  C111-  C110-   C19
 10942  10945  10948  10951      9     0.00   0.41840   2 ;   C112-  C111-  C110-   C19
 10942  10945  10948  10951      9     0.00   0.41840   4 ;   C112-  C111-  C110-   C19
 10942  10945  10948  10951      9     0.00   0.41840   5 ;   C112-  C111-  C110-   C19
 10942  10945  10948  10951      9     0.00   1.25520   3 ;   C112-  C111-  C110-   C19
 10943  10942  10945  10946      9     0.00   0.62760   3 ;   H12R-  C112-  C111-  H11R
 10943  10942  10945  10947      9     0.00   0.62760   3 ;   H12R-  C112-  C111-  H11S
 10943  10942  10945  10948      9     0.00   0.66944   3 ;   H12R-  C112-  C111-  C110
 10944  10942  10945  10946      9     0.00   0.62760   3 ;   H12S-  C112-  C111-  H11R
 10944  10942  10945  10947      9     0.00   0.62760   3 ;   H12S-  C112-  C111-  H11S
 10944  10942  10945  10948      9     0.00   0.66944   3 ;   H12S-  C112-  C111-  C110
 10945  10948  10951  10952      9     0.00   0.66944   3 ;   C111-  C110-   C19-   H9R
 10945  10948  10951  10953      9     0.00   0.66944   3 ;   C111-  C110-   C19-   H9S
 10945  10948  10951  10954      9     0.00   0.41840   1 ;   C111-  C110-   C19-   C18
 10945  10948  10951  10954      9     0.00   0.41840   2 ;   C111-  C110-   C19-   C18
 10945  10948  10951  10954      9     0.00   0.41840   4 ;   C111-  C110-   C19-   C18
 10945  10948  10951  10954      9     0.00   0.41840   5 ;   C111-  C110-   C19-   C18
 10945  10948  10951  10954      9     0.00   1.25520   3 ;   C111-  C110-   C19-   C18
 10946  10945  10948  10949      9     0.00   0.62760   3 ;   H11R-  C111-  C110-  H10R
 10946  10945  10948  10950      9     0.00   0.62760   3 ;   H11R-  C111-  C110-  H10S
 10946  10945  10948  10951      9     0.00   0.66944   3 ;   H11R-  C111-  C110-   C19
 10947  10945  10948  10949      9     0.00   0.62760   3 ;   H11S-  C111-  C110-  H10R
 10947  10945  10948  10950      9     0.00   0.62760   3 ;   H11S-  C111-  C110-  H10S
 10947  10945  10948  10951      9     0.00   0.66944   3 ;   H11S-  C111-  C110-   C19
 10948  10951  10954  10955      9     0.00   0.66944   3 ;   C110-   C19-   C18-   H8R
 10948  10951  10954  10956      9     0.00   0.66944   3 ;   C110-   C19-   C18-   H8S
 10948  10951  10954  10957      9     0.00   0.41840   1 ;   C110-   C19-   C18-   C17
 10948  10951  10954  10957      9     0.00   0.41840   2 ;   C110-   C19-   C18-   C17
 10948  10951  10954  10957      9     0.00   0.41840   4 ;   C110-   C19-   C18-   C17
 10948  10951  10954  10957      9     0.00   0.41840   5 ;   C110-   C19-   C18-   C17
 10948  10951  10954  10957      9     0.00   1.25520   3 ;   C110-   C19-   C18-   C17
 10949  10948  10951  10952      9     0.00   0.62760   3 ;   H10R-  C110-   C19-   H9R
 10949  10948  10951  10953      9     0.00   0.62760   3 ;   H10R-  C110-   C19-   H9S
 10949  10948  10951  10954      9     0.00   0.66944   3 ;   H10R-  C110-   C19-   C18
 10950  10948  10951  10952      9     0.00   0.62760   3 ;   H10S-  C110-   C19-   H9R
 10950  10948  10951  10953      9     0.00   0.62760   3 ;   H10S-  C110-   C19-   H9S
 10950  10948  10951  10954      9     0.00   0.66944   3 ;   H10S-  C110-   C19-   C18
 10951  10954  10957  10958      9     0.00   0.66944   3 ;    C19-   C18-   C17-   H7R
 10951  10954  10957  10959      9     0.00   0.66944   3 ;    C19-   C18-   C17-   H7S
 10951  10954  10957  10960      9     0.00   0.41840   1 ;    C19-   C18-   C17-   C16
 10951  10954  10957  10960      9     0.00   0.41840   2 ;    C19-   C18-   C17-   C16
 10951  10954  10957  10960      9     0.00   0.41840   4 ;    C19-   C18-   C17-   C16
 10951  10954  10957  10960      9     0.00   0.41840   5 ;    C19-   C18-   C17-   C16
 10951  10954  10957  10960      9     0.00   1.25520   3 ;    C19-   C18-   C17-   C16
 10952  10951  10954  10955      9     0.00   0.62760   3 ;    H9R-   C19-   C18-   H8R
 10952  10951  10954  10956      9     0.00   0.62760   3 ;    H9R-   C19-   C18-   H8S
 10952  10951  10954  10957      9     0.00   0.66944   3 ;    H9R-   C19-   C18-   C17
 10953  10951  10954  10955      9     0.00   0.62760   3 ;    H9S-   C19-   C18-   H8R
 10953  10951  10954  10956      9     0.00   0.62760   3 ;    H9S-   C19-   C18-   H8S
 10953  10951  10954  10957      9     0.00   0.66944   3 ;    H9S-   C19-   C18-   C17
 10954  10957  10960  10961      9     0.00   0.66944   3 ;    C18-   C17-   C16-   H6R
 10954  10957  10960  10962      9     0.00   0.66944   3 ;    C18-   C17-   C16-   H6S
 10954  10957  10960  10963      9     0.00   0.41840   1 ;    C18-   C17-   C16-   C15
 10954  10957  10960  10963      9     0.00   0.41840   2 ;    C18-   C17-   C16-   C15
 10954  10957  10960  10963      9     0.00   0.41840   4 ;    C18-   C17-   C16-   C15
 10954  10957  10960  10963      9     0.00   0.41840   5 ;    C18-   C17-   C16-   C15
 10954  10957  10960  10963      9     0.00   1.25520   3 ;    C18-   C17-   C16-   C15
 10955  10954  10957  10958      9     0.00   0.62760   3 ;    H8R-   C18-   C17-   H7R
 10955  10954  10957  10959      9     0.00   0.62760   3 ;    H8R-   C18-   C17-   H7S
 10955  10954  10957  10960      9     0.00   0.66944   3 ;    H8R-   C18-   C17-   C16
 10956  10954  10957  10958      9     0.00   0.62760   3 ;    H8S-   C18-   C17-   H7R
 10956  10954  10957  10959      9     0.00   0.62760   3 ;    H8S-   C18-   C17-   H7S
 10956  10954  10957  10960      9     0.00   0.66944   3 ;    H8S-   C18-   C17-   C16
 10957  10960  10963  10964      9     0.00   0.66944   3 ;    C17-   C16-   C15-   H5R
 10957  10960  10963  10965      9     0.00   0.66944   3 ;    C17-   C16-   C15-   H5S
 10957  10960  10963  10966      9     0.00   0.41840   1 ;    C17-   C16-   C15-   C14
 10957  10960  10963  10966      9     0.00   0.41840   2 ;    C17-   C16-   C15-   C14
 10957  10960  10963  10966      9     0.00   0.41840   4 ;    C17-   C16-   C15-   C14
 10957  10960  10963  10966      9     0.00   0.41840   5 ;    C17-   C16-   C15-   C14
 10957  10960  10963  10966      9     0.00   1.25520   3 ;    C17-   C16-   C15-   C14
 10958  10957  10960  10961      9     0.00   0.62760   3 ;    H7R-   C17-   C16-   H6R
 10958  10957  10960  10962      9     0.00   0.62760   3 ;    H7R-   C17-   C16-   H6S
 10958  10957  10960  10963      9     0.00   0.66944   3 ;    H7R-   C17-   C16-   C15
 10959  10957  10960  10961      9     0.00   0.62760   3 ;    H7S-   C17-   C16-   H6R
 10959  10957  10960  10962      9     0.00   0.62760   3 ;    H7S-   C17-   C16-   H6S
 10959  10957  10960  10963      9     0.00   0.66944   3 ;    H7S-   C17-   C16-   C15
 10960  10963  10966  10967      9     0.00   0.66944   3 ;    C16-   C15-   C14-   H4R
 10960  10963  10966  10968      9     0.00   0.66944   3 ;    C16-   C15-   C14-   H4S
 10960  10963  10966  10969      9     0.00   0.41840   1 ;    C16-   C15-   C14-   C13
 10960  10963  10966  10969      9     0.00   0.41840   2 ;    C16-   C15-   C14-   C13
 10960  10963  10966  10969      9     0.00   0.41840   4 ;    C16-   C15-   C14-   C13
 10960  10963  10966  10969      9     0.00   0.41840   5 ;    C16-   C15-   C14-   C13
 10960  10963  10966  10969      9     0.00   1.25520   3 ;    C16-   C15-   C14-   C13
 10961  10960  10963  10964      9     0.00   0.62760   3 ;    H6R-   C16-   C15-   H5R
 10961  10960  10963  10965      9     0.00   0.62760   3 ;    H6R-   C16-   C15-   H5S
 10961  10960  10963  10966      9     0.00   0.66944   3 ;    H6R-   C16-   C15-   C14
 10962  10960  10963  10964      9     0.00   0.62760   3 ;    H6S-   C16-   C15-   H5R
 10962  10960  10963  10965      9     0.00   0.62760   3 ;    H6S-   C16-   C15-   H5S
 10962  10960  10963  10966      9     0.00   0.66944   3 ;    H6S-   C16-   C15-   C14
 10963  10966  10969  10970      9     0.00   0.66944   3 ;    C15-   C14-   C13-   H3R
 10963  10966  10969  10971      9     0.00   0.66944   3 ;    C15-   C14-   C13-   H3S
 10963  10966  10969  10972      9     0.00   0.41840   1 ;    C15-   C14-   C13-   C12
 10963  10966  10969  10972      9     0.00   0.41840   2 ;    C15-   C14-   C13-   C12
 10963  10966  10969  10972      9     0.00   0.41840   4 ;    C15-   C14-   C13-   C12
 10963  10966  10969  10972      9     0.00   0.41840   5 ;    C15-   C14-   C13-   C12
 10963  10966  10969  10972      9     0.00   1.25520   3 ;    C15-   C14-   C13-   C12
 10964  10963  10966  10967      9     0.00   0.62760   3 ;    H5R-   C15-   C14-   H4R
 10964  10963  10966  10968      9     0.00   0.62760   3 ;    H5R-   C15-   C14-   H4S
 10964  10963  10966  10969      9     0.00   0.66944   3 ;    H5R-   C15-   C14-   C13
 10965  10963  10966  10967      9     0.00   0.62760   3 ;    H5S-   C15-   C14-   H4R
 10965  10963  10966  10968      9     0.00   0.62760   3 ;    H5S-   C15-   C14-   H4S
 10965  10963  10966  10969      9     0.00   0.66944   3 ;    H5S-   C15-   C14-   C13
 10966  10969  10972  10973      9     0.00   0.66944   3 ;    C14-   C13-   C12-   H2R
 10966  10969  10972  10974      9     0.00   0.66944   3 ;    C14-   C13-   C12-   H2S
 10967  10966  10969  10970      9     0.00   0.62760   3 ;    H4R-   C14-   C13-   H3R
 10967  10966  10969  10971      9     0.00   0.62760   3 ;    H4R-   C14-   C13-   H3S
 10967  10966  10969  10972      9     0.00   0.66944   3 ;    H4R-   C14-   C13-   C12
 10968  10966  10969  10970      9     0.00   0.62760   3 ;    H4S-   C14-   C13-   H3R
 10968  10966  10969  10971      9     0.00   0.62760   3 ;    H4S-   C14-   C13-   H3S
 10968  10966  10969  10972      9     0.00   0.66944   3 ;    H4S-   C14-   C13-   C12
 10970  10969  10972  10973      9     0.00   0.62760   3 ;    H3R-   C13-   C12-   H2R
 10970  10969  10972  10974      9     0.00   0.62760   3 ;    H3R-   C13-   C12-   H2S
 10971  10969  10972  10973      9     0.00   0.62760   3 ;    H3S-   C13-   C12-   H2R
 10971  10969  10972  10974      9     0.00   0.62760   3 ;    H3S-   C13-   C12-   H2S
 10975  10976  10979  10980      9     0.00   0.62760   3 ;   H14T-  C114-  C113-  H13R
 10975  10976  10979  10981      9     0.00   0.62760   3 ;   H14T-  C114-  C113-  H13S
 10975  10976  10979  10982      9     0.00   0.66944   3 ;   H14T-  C114-  C113-  C112
 10976  10979  10982  10983      9     0.00   0.66944   3 ;   C114-  C113-  C112-  H12R
 10976  10979  10982  10984      9     0.00   0.66944   3 ;   C114-  C113-  C112-  H12S
 10976  10979  10982  10985      9     0.00   0.41840   1 ;   C114-  C113-  C112-  C111
 10976  10979  10982  10985      9     0.00   0.41840   2 ;   C114-  C113-  C112-  C111
 10976  10979  10982  10985      9     0.00   0.41840   4 ;   C114-  C113-  C112-  C111
 10976  10979  10982  10985      9     0.00   0.41840   5 ;   C114-  C113-  C112-  C111
 10976  10979  10982  10985      9     0.00   1.25520   3 ;   C114-  C113-  C112-  C111
 10977  10976  10979  10980      9     0.00   0.62760   3 ;   H14R-  C114-  C113-  H13R
 10977  10976  10979  10981      9     0.00   0.62760   3 ;   H14R-  C114-  C113-  H13S
 10977  10976  10979  10982      9     0.00   0.66944   3 ;   H14R-  C114-  C113-  C112
 10978  10976  10979  10980      9     0.00   0.62760   3 ;   H14S-  C114-  C113-  H13R
 10978  10976  10979  10981      9     0.00   0.62760   3 ;   H14S-  C114-  C113-  H13S
 10978  10976  10979  10982      9     0.00   0.66944   3 ;   H14S-  C114-  C113-  C112
 10979  10982  10985  10986      9     0.00   0.66944   3 ;   C113-  C112-  C111-  H11R
 10979  10982  10985  10987      9     0.00   0.66944   3 ;   C113-  C112-  C111-  H11S
 10979  10982  10985  10988      9     0.00   0.41840   1 ;   C113-  C112-  C111-  C110
 10979  10982  10985  10988      9     0.00   0.41840   2 ;   C113-  C112-  C111-  C110
 10979  10982  10985  10988      9     0.00   0.41840   4 ;   C113-  C112-  C111-  C110
 10979  10982  10985  10988      9     0.00   0.41840   5 ;   C113-  C112-  C111-  C110
 10979  10982  10985  10988      9     0.00   1.25520   3 ;   C113-  C112-  C111-  C110
 10980  10979  10982  10983      9     0.00   0.62760   3 ;   H13R-  C113-  C112-  H12R
 10980  10979  10982  10984      9     0.00   0.62760   3 ;   H13R-  C113-  C112-  H12S
 10980  10979  10982  10985      9     0.00   0.66944   3 ;   H13R-  C113-  C112-  C111
 10981  10979  10982  10983      9     0.00   0.62760   3 ;   H13S-  C113-  C112-  H12R
 10981  10979  10982  10984      9     0.00   0.62760   3 ;   H13S-  C113-  C112-  H12S
 10981  10979  10982  10985      9     0.00   0.66944   3 ;   H13S-  C113-  C112-  C111
 10982  10985  10988  10989      9     0.00   0.66944   3 ;   C112-  C111-  C110-  H10R
 10982  10985  10988  10990      9     0.00   0.66944   3 ;   C112-  C111-  C110-  H10S
 10982  10985  10988  10991      9     0.00   0.41840   1 ;   C112-  C111-  C110-   C19
 10982  10985  10988  10991      9     0.00   0.41840   2 ;   C112-  C111-  C110-   C19
 10982  10985  10988  10991      9     0.00   0.41840   4 ;   C112-  C111-  C110-   C19
 10982  10985  10988  10991      9     0.00   0.41840   5 ;   C112-  C111-  C110-   C19
 10982  10985  10988  10991      9     0.00   1.25520   3 ;   C112-  C111-  C110-   C19
 10983  10982  10985  10986      9     0.00   0.62760   3 ;   H12R-  C112-  C111-  H11R
 10983  10982  10985  10987      9     0.00   0.62760   3 ;   H12R-  C112-  C111-  H11S
 10983  10982  10985  10988      9     0.00   0.66944   3 ;   H12R-  C112-  C111-  C110
 10984  10982  10985  10986      9     0.00   0.62760   3 ;   H12S-  C112-  C111-  H11R
 10984  10982  10985  10987      9     0.00   0.62760   3 ;   H12S-  C112-  C111-  H11S
 10984  10982  10985  10988      9     0.00   0.66944   3 ;   H12S-  C112-  C111-  C110
 10985  10988  10991  10992      9     0.00   0.66944   3 ;   C111-  C110-   C19-   H9R
 10985  10988  10991  10993      9     0.00   0.66944   3 ;   C111-  C110-   C19-   H9S
 10985  10988  10991  10994      9     0.00   0.41840   1 ;   C111-  C110-   C19-   C18
 10985  10988  10991  10994      9     0.00   0.41840   2 ;   C111-  C110-   C19-   C18
 10985  10988  10991  10994      9     0.00   0.41840   4 ;   C111-  C110-   C19-   C18
 10985  10988  10991  10994      9     0.00   0.41840   5 ;   C111-  C110-   C19-   C18
 10985  10988  10991  10994      9     0.00   1.25520   3 ;   C111-  C110-   C19-   C18
 10986  10985  10988  10989      9     0.00   0.62760   3 ;   H11R-  C111-  C110-  H10R
 10986  10985  10988  10990      9     0.00   0.62760   3 ;   H11R-  C111-  C110-  H10S
 10986  10985  10988  10991      9     0.00   0.66944   3 ;   H11R-  C111-  C110-   C19
 10987  10985  10988  10989      9     0.00   0.62760   3 ;   H11S-  C111-  C110-  H10R
 10987  10985  10988  10990      9     0.00   0.62760   3 ;   H11S-  C111-  C110-  H10S
 10987  10985  10988  10991      9     0.00   0.66944   3 ;   H11S-  C111-  C110-   C19
 10988  10991  10994  10995      9     0.00   0.66944   3 ;   C110-   C19-   C18-   H8R
 10988  10991  10994  10996      9     0.00   0.66944   3 ;   C110-   C19-   C18-   H8S
 10988  10991  10994  10997      9     0.00   0.41840   1 ;   C110-   C19-   C18-   C17
 10988  10991  10994  10997      9     0.00   0.41840   2 ;   C110-   C19-   C18-   C17
 10988  10991  10994  10997      9     0.00   0.41840   4 ;   C110-   C19-   C18-   C17
 10988  10991  10994  10997      9     0.00   0.41840   5 ;   C110-   C19-   C18-   C17
 10988  10991  10994  10997      9     0.00   1.25520   3 ;   C110-   C19-   C18-   C17
 10989  10988  10991  10992      9     0.00   0.62760   3 ;   H10R-  C110-   C19-   H9R
 10989  10988  10991  10993      9     0.00   0.62760   3 ;   H10R-  C110-   C19-   H9S
 10989  10988  10991  10994      9     0.00   0.66944   3 ;   H10R-  C110-   C19-   C18
 10990  10988  10991  10992      9     0.00   0.62760   3 ;   H10S-  C110-   C19-   H9R
 10990  10988  10991  10993      9     0.00   0.62760   3 ;   H10S-  C110-   C19-   H9S
 10990  10988  10991  10994      9     0.00   0.66944   3 ;   H10S-  C110-   C19-   C18
 10991  10994  10997  10998      9     0.00   0.66944   3 ;    C19-   C18-   C17-   H7R
 10991  10994  10997  10999      9     0.00   0.66944   3 ;    C19-   C18-   C17-   H7S
 10991  10994  10997  11000      9     0.00   0.41840   1 ;    C19-   C18-   C17-   C16
 10991  10994  10997  11000      9     0.00   0.41840   2 ;    C19-   C18-   C17-   C16
 10991  10994  10997  11000      9     0.00   0.41840   4 ;    C19-   C18-   C17-   C16
 10991  10994  10997  11000      9     0.00   0.41840   5 ;    C19-   C18-   C17-   C16
 10991  10994  10997  11000      9     0.00   1.25520   3 ;    C19-   C18-   C17-   C16
 10992  10991  10994  10995      9     0.00   0.62760   3 ;    H9R-   C19-   C18-   H8R
 10992  10991  10994  10996      9     0.00   0.62760   3 ;    H9R-   C19-   C18-   H8S
 10992  10991  10994  10997      9     0.00   0.66944   3 ;    H9R-   C19-   C18-   C17
 10993  10991  10994  10995      9     0.00   0.62760   3 ;    H9S-   C19-   C18-   H8R
 10993  10991  10994  10996      9     0.00   0.62760   3 ;    H9S-   C19-   C18-   H8S
 10993  10991  10994  10997      9     0.00   0.66944   3 ;    H9S-   C19-   C18-   C17
 10994  10997  11000  11001      9     0.00   0.66944   3 ;    C18-   C17-   C16-   H6R
 10994  10997  11000  11002      9     0.00   0.66944   3 ;    C18-   C17-   C16-   H6S
 10994  10997  11000  11003      9     0.00   0.41840   1 ;    C18-   C17-   C16-   C15
 10994  10997  11000  11003      9     0.00   0.41840   2 ;    C18-   C17-   C16-   C15
 10994  10997  11000  11003      9     0.00   0.41840   4 ;    C18-   C17-   C16-   C15
 10994  10997  11000  11003      9     0.00   0.41840   5 ;    C18-   C17-   C16-   C15
 10994  10997  11000  11003      9     0.00   1.25520   3 ;    C18-   C17-   C16-   C15
 10995  10994  10997  10998      9     0.00   0.62760   3 ;    H8R-   C18-   C17-   H7R
 10995  10994  10997  10999      9     0.00   0.62760   3 ;    H8R-   C18-   C17-   H7S
 10995  10994  10997  11000      9     0.00   0.66944   3 ;    H8R-   C18-   C17-   C16
 10996  10994  10997  10998      9     0.00   0.62760   3 ;    H8S-   C18-   C17-   H7R
 10996  10994  10997  10999      9     0.00   0.62760   3 ;    H8S-   C18-   C17-   H7S
 10996  10994  10997  11000      9     0.00   0.66944   3 ;    H8S-   C18-   C17-   C16
 10997  11000  11003  11004      9     0.00   0.66944   3 ;    C17-   C16-   C15-   H5R
 10997  11000  11003  11005      9     0.00   0.66944   3 ;    C17-   C16-   C15-   H5S
 10997  11000  11003  11006      9     0.00   0.41840   1 ;    C17-   C16-   C15-   C14
 10997  11000  11003  11006      9     0.00   0.41840   2 ;    C17-   C16-   C15-   C14
 10997  11000  11003  11006      9     0.00   0.41840   4 ;    C17-   C16-   C15-   C14
 10997  11000  11003  11006      9     0.00   0.41840   5 ;    C17-   C16-   C15-   C14
 10997  11000  11003  11006      9     0.00   1.25520   3 ;    C17-   C16-   C15-   C14
 10998  10997  11000  11001      9     0.00   0.62760   3 ;    H7R-   C17-   C16-   H6R
 10998  10997  11000  11002      9     0.00   0.62760   3 ;    H7R-   C17-   C16-   H6S
 10998  10997  11000  11003      9     0.00   0.66944   3 ;    H7R-   C17-   C16-   C15
 10999  10997  11000  11001      9     0.00   0.62760   3 ;    H7S-   C17-   C16-   H6R
 10999  10997  11000  11002      9     0.00   0.62760   3 ;    H7S-   C17-   C16-   H6S
 10999  10997  11000  11003      9     0.00   0.66944   3 ;    H7S-   C17-   C16-   C15
 11000  11003  11006  11007      9     0.00   0.66944   3 ;    C16-   C15-   C14-   H4R
 11000  11003  11006  11008      9     0.00   0.66944   3 ;    C16-   C15-   C14-   H4S
 11000  11003  11006  11009      9     0.00   0.41840   1 ;    C16-   C15-   C14-   C13
 11000  11003  11006  11009      9     0.00   0.41840   2 ;    C16-   C15-   C14-   C13
 11000  11003  11006  11009      9     0.00   0.41840   4 ;    C16-   C15-   C14-   C13
 11000  11003  11006  11009      9     0.00   0.41840   5 ;    C16-   C15-   C14-   C13
 11000  11003  11006  11009      9     0.00   1.25520   3 ;    C16-   C15-   C14-   C13
 11001  11000  11003  11004      9     0.00   0.62760   3 ;    H6R-   C16-   C15-   H5R
 11001  11000  11003  11005      9     0.00   0.62760   3 ;    H6R-   C16-   C15-   H5S
 11001  11000  11003  11006      9     0.00   0.66944   3 ;    H6R-   C16-   C15-   C14
 11002  11000  11003  11004      9     0.00   0.62760   3 ;    H6S-   C16-   C15-   H5R
 11002  11000  11003  11005      9     0.00   0.62760   3 ;    H6S-   C16-   C15-   H5S
 11002  11000  11003  11006      9     0.00   0.66944   3 ;    H6S-   C16-   C15-   C14
 11003  11006  11009  11010      9     0.00   0.66944   3 ;    C15-   C14-   C13-   H3R
 11003  11006  11009  11011      9     0.00   0.66944   3 ;    C15-   C14-   C13-   H3S
 11003  11006  11009  11012      9     0.00   0.41840   1 ;    C15-   C14-   C13-   C12
 11003  11006  11009  11012      9     0.00   0.41840   2 ;    C15-   C14-   C13-   C12
 11003  11006  11009  11012      9     0.00   0.41840   4 ;    C15-   C14-   C13-   C12
 11003  11006  11009  11012      9     0.00   0.41840   5 ;    C15-   C14-   C13-   C12
 11003  11006  11009  11012      9     0.00   1.25520   3 ;    C15-   C14-   C13-   C12
 11004  11003  11006  11007      9     0.00   0.62760   3 ;    H5R-   C15-   C14-   H4R
 11004  11003  11006  11008      9     0.00   0.62760   3 ;    H5R-   C15-   C14-   H4S
 11004  11003  11006  11009      9     0.00   0.66944   3 ;    H5R-   C15-   C14-   C13
 11005  11003  11006  11007      9     0.00   0.62760   3 ;    H5S-   C15-   C14-   H4R
 11005  11003  11006  11008      9     0.00   0.62760   3 ;    H5S-   C15-   C14-   H4S
 11005  11003  11006  11009      9     0.00   0.66944   3 ;    H5S-   C15-   C14-   C13
 11006  11009  11012  11013      9     0.00   0.66944   3 ;    C14-   C13-   C12-   H2R
 11006  11009  11012  11014      9     0.00   0.66944   3 ;    C14-   C13-   C12-   H2S
 11006  11009  11012  11015      9     0.00   0.65270   3 ;    C14-   C13-   C12-   C11
 11007  11006  11009  11010      9     0.00   0.62760   3 ;    H4R-   C14-   C13-   H3R
 11007  11006  11009  11011      9     0.00   0.62760   3 ;    H4R-   C14-   C13-   H3S
 11007  11006  11009  11012      9     0.00   0.66944   3 ;    H4R-   C14-   C13-   C12
 11008  11006  11009  11010      9     0.00   0.62760   3 ;    H4S-   C14-   C13-   H3R
 11008  11006  11009  11011      9     0.00   0.62760   3 ;    H4S-   C14-   C13-   H3S
 11008  11006  11009  11012      9     0.00   0.66944   3 ;    H4S-   C14-   C13-   C12
 11009  11012  11015  11016      9   180.00   0.00000   2 ;    C13-   C12-   C11-   O12
 11009  11012  11015  11017      9   180.00   0.00000   2 ;    C13-   C12-   C11-   O11
 11010  11009  11012  11013      9     0.00   0.62760   3 ;    H3R-   C13-   C12-   H2R
 11010  11009  11012  11014      9     0.00   0.62760   3 ;    H3R-   C13-   C12-   H2S
 11010  11009  11012  11015      9     0.00   0.65270   3 ;    H3R-   C13-   C12-   C11
 11011  11009  11012  11013      9     0.00   0.62760   3 ;    H3S-   C13-   C12-   H2R
 11011  11009  11012  11014      9     0.00   0.62760   3 ;    H3S-   C13-   C12-   H2S
 11011  11009  11012  11015      9     0.00   0.65270   3 ;    H3S-   C13-   C12-   C11
 11012  11015  11017  11018      9   180.00  11.29680   2 ;    C12-   C11-   O11-    C1
 11013  11012  11015  11016      9     0.00   3.34720   1 ;    H2R-   C12-   C11-   O12
 11013  11012  11015  11016      9   180.00   0.33472   3 ;    H2R-   C12-   C11-   O12
 11013  11012  11015  11017      9   180.00   0.00000   2 ;    H2R-   C12-   C11-   O11
 11014  11012  11015  11016      9     0.00   3.34720   1 ;    H2S-   C12-   C11-   O12
 11014  11012  11015  11016      9   180.00   0.33472   3 ;    H2S-   C12-   C11-   O12
 11014  11012  11015  11017      9   180.00   0.00000   2 ;    H2S-   C12-   C11-   O11
 11015  11017  11018  11019      9     0.00   1.60247   3 ;    C11-   O11-    C1-    HR
 11015  11017  11018  11020      9     0.00   1.60247   3 ;    C11-   O11-    C1-    HS
 11015  11017  11018  11021      9     0.00  -0.41840   1 ;    C11-   O11-    C1-    C2
 11016  11015  11017  11018      9   180.00   5.85760   1 ;    O12-   C11-   O11-    C1
 11016  11015  11017  11018      9   180.00  11.29680   2 ;    O12-   C11-   O11-    C1
 11017  11018  11021  11022      9     0.00   0.00000   0 ;    O11-    C1-    C2-    HX
 11017  11018  11021  11022      9     0.00   1.04600   1 ;    O11-    C1-    C2-    HX
 11017  11018  11021  11023      9     0.00   0.00000   0 ;    O11-    C1-    C2-    C3
 11017  11018  11021  11023      9     0.00   0.00000   0 ;    O11-    C1-    C2-    C3
 11017  11018  11021  11023      9     0.00   0.00000   0 ;    O11-    C1-    C2-    C3
 11017  11018  11021  11023      9     0.00   0.00000   0 ;    O11-    C1-    C2-    C3
 11017  11018  11021  11023      9     0.00   0.00000   0 ;    O11-    C1-    C2-    C3
 11017  11018  11021  11050      9     0.00   1.25520   2 ;    O11-    C1-    C2-   O21
 11017  11018  11021  11050      9     0.00   4.18400   3 ;    O11-    C1-    C2-   O21
 11017  11018  11021  11050      9   180.00  -0.41840   1 ;    O11-    C1-    C2-   O21
 11018  11021  11023  11024      9     0.00   0.65270   3 ;     C1-    C2-    C3-    HA
 11018  11021  11023  11025      9     0.00   0.65270   3 ;     C1-    C2-    C3-    HB
 11018  11021  11023  11026      9   180.00   3.34720   1 ;     C1-    C2-    C3-   O31
 11018  11021  11050  11051      9     0.00  -0.41840   1 ;     C1-    C2-   O21-   C21
 11019  11018  11021  11022      9     0.00   0.65270   3 ;     HR-    C1-    C2-    HX
 11019  11018  11021  11023      9     0.00   0.65270   3 ;     HR-    C1-    C2-    C3
 11019  11018  11021  11050      9     0.00   0.00000   0 ;     HR-    C1-    C2-   O21
 11019  11018  11021  11050      9     0.00   1.04600   1 ;     HR-    C1-    C2-   O21
 11020  11018  11021  11022      9     0.00   0.65270   3 ;     HS-    C1-    C2-    HX
 11020  11018  11021  11023      9     0.00   0.65270   3 ;     HS-    C1-    C2-    C3
 11020  11018  11021  11050      9     0.00   0.00000   0 ;     HS-    C1-    C2-   O21
 11020  11018  11021  11050      9     0.00   1.04600   1 ;     HS-    C1-    C2-   O21
 11021  11023  11026  11027      9     0.00   0.00000   0 ;     C2-    C3-   O31-   P31
 11021  11023  11026  11027      9   180.00  -3.34720   2 ;     C2-    C3-   O31-   P31
 11021  11050  11051  11052      9   180.00   5.85760   1 ;     C2-   O21-   C21-   O22
 11021  11050  11051  11052      9   180.00  11.29680   2 ;     C2-   O21-   C21-   O22
 11021  11050  11051  11090      9   180.00  11.29680   2 ;     C2-   O21-   C21-   C12
 11022  11021  11023  11024      9     0.00   0.65270   3 ;     HX-    C2-    C3-    HA
 11022  11021  11023  11025      9     0.00   0.65270   3 ;     HX-    C2-    C3-    HB
 11022  11021  11023  11026      9     0.00   0.00000   0 ;     HX-    C2-    C3-   O31
 11022  11021  11023  11026      9     0.00   1.04600   1 ;     HX-    C2-    C3-   O31
 11022  11021  11050  11051      9     0.00   1.60247   3 ;     HX-    C2-   O21-   C21
 11023  11021  11050  11051      9     0.00  -0.41840   1 ;     C3-    C2-   O21-   C21
 11023  11026  11027  11028      9     0.00   2.51040   3 ;     C3-   O31-   P31-   O32
 11023  11026  11027  11028      9     0.00   9.62320   2 ;     C3-   O31-   P31-   O32
 11023  11026  11027  11048      9     0.00   0.00000   0 ;     C3-   O31-   P31-   O33
 11023  11026  11027  11048      9     0.00   0.00000   0 ;     C3-   O31-   P31-   O33
 11023  11026  11027  11048      9     0.00   0.00000   0 ;     C3-   O31-   P31-   O33
 11023  11026  11027  11048      9     0.00   0.00000   0 ;     C3-   O31-   P31-   O33
 11023  11026  11027  11048      9     0.00   0.83680   2 ;     C3-   O31-   P31-   O33
 11023  11026  11027  11049      9     0.00   0.00000   0 ;     C3-   O31-   P31-   O34
 11023  11026  11027  11049      9     0.00   0.00000   0 ;     C3-   O31-   P31-   O34
 11023  11026  11027  11049      9     0.00   0.00000   0 ;     C3-   O31-   P31-   O34
 11023  11026  11027  11049      9     0.00   0.00000   0 ;     C3-   O31-   P31-   O34
 11023  11026  11027  11049      9     0.00   0.83680   2 ;     C3-   O31-   P31-   O34
 11024  11023  11021  11050      9     0.00   0.00000   0 ;     HA-    C3-    C2-   O21
 11024  11023  11021  11050      9     0.00   1.04600   1 ;     HA-    C3-    C2-   O21
 11024  11023  11026  11027      9     0.00   0.00000   0 ;     HA-    C3-   O31-   P31
 11024  11023  11026  11027      9     0.00   0.00000   0 ;     HA-    C3-   O31-   P31
 11024  11023  11026  11027      9     0.00   0.00000   0 ;     HA-    C3-   O31-   P31
 11024  11023  11026  11027      9     0.00   0.00000   0 ;     HA-    C3-   O31-   P31
 11024  11023  11026  11027      9     0.00   1.60247   3 ;     HA-    C3-   O31-   P31
 11025  11023  11021  11050      9     0.00   0.00000   0 ;     HB-    C3-    C2-   O21
 11025  11023  11021  11050      9     0.00   1.04600   1 ;     HB-    C3-    C2-   O21
 11025  11023  11026  11027      9     0.00   0.00000   0 ;     HB-    C3-   O31-   P31
 11025  11023  11026  11027      9     0.00   0.00000   0 ;     HB-    C3-   O31-   P31
 11025  11023  11026  11027      9     0.00   0.00000   0 ;     HB-    C3-   O31-   P31
 11025  11023  11026  11027      9     0.00   0.00000   0 ;     HB-    C3-   O31-   P31
 11025  11023  11026  11027      9     0.00   1.60247   3 ;     HB-    C3-   O31-   P31
 11026  11023  11021  11050      9     0.00   0.00000   0 ;    O31-    C3-    C2-   O21
 11026  11023  11021  11050      9     0.00   0.00000   0 ;    O31-    C3-    C2-   O21
 11026  11023  11021  11050      9     0.00   0.00000   0 ;    O31-    C3-    C2-   O21
 11026  11023  11021  11050      9     0.00   0.00000   0 ;    O31-    C3-    C2-   O21
 11026  11023  11021  11050      9     0.00   0.00000   0 ;    O31-    C3-    C2-   O21
 11026  11027  11028  11029      9     0.00   2.51040   3 ;    O31-   P31-   O32-   C31
 11026  11027  11028  11029      9     0.00   9.62320   2 ;    O31-   P31-   O32-   C31
 11027  11028  11029  11030      9     0.00   0.00000   0 ;    P31-   O32-   C31-   H1A
 11027  11028  11029  11030      9     0.00   0.00000   0 ;    P31-   O32-   C31-   H1A
 11027  11028  11029  11030      9     0.00   0.00000   0 ;    P31-   O32-   C31-   H1A
 11027  11028  11029  11030      9     0.00   0.00000   0 ;    P31-   O32-   C31-   H1A
 11027  11028  11029  11030      9     0.00   1.60247   3 ;    P31-   O32-   C31-   H1A
 11027  11028  11029  11031      9     0.00   0.00000   0 ;    P31-   O32-   C31-   H1B
 11027  11028  11029  11031      9     0.00   0.00000   0 ;    P31-   O32-   C31-   H1B
 11027  11028  11029  11031      9     0.00   0.00000   0 ;    P31-   O32-   C31-   H1B
 11027  11028  11029  11031      9     0.00   0.00000   0 ;    P31-   O32-   C31-   H1B
 11027  11028  11029  11031      9     0.00   1.60247   3 ;    P31-   O32-   C31-   H1B
 11027  11028  11029  11032      9     0.00   0.00000   0 ;    P31-   O32-   C31-   C32
 11027  11028  11029  11032      9   180.00  -3.34720   2 ;    P31-   O32-   C31-   C32
 11028  11029  11032  11033      9     0.00   0.65270   3 ;    O32-   C31-   C32-   H2A
 11028  11029  11032  11034      9     0.00   0.65270   3 ;    O32-   C31-   C32-   H2B
 11028  11029  11032  11035      9     0.00   4.18400   3 ;    O32-   C31-   C32-   N31
 11029  11028  11027  11048      9     0.00   0.00000   0 ;    C31-   O32-   P31-   O33
 11029  11028  11027  11048      9     0.00   0.00000   0 ;    C31-   O32-   P31-   O33
 11029  11028  11027  11048      9     0.00   0.00000   0 ;    C31-   O32-   P31-   O33
 11029  11028  11027  11048      9     0.00   0.00000   0 ;    C31-   O32-   P31-   O33
 11029  11028  11027  11048      9     0.00   0.83680   2 ;    C31-   O32-   P31-   O33
 11029  11028  11027  11049      9     0.00   0.00000   0 ;    C31-   O32-   P31-   O34
 11029  11028  11027  11049      9     0.00   0.00000   0 ;    C31-   O32-   P31-   O34
 11029  11028  11027  11049      9     0.00   0.00000   0 ;    C31-   O32-   P31-   O34
 11029  11028  11027  11049      9     0.00   0.00000   0 ;    C31-   O32-   P31-   O34
 11029  11028  11027  11049      9     0.00   0.83680   2 ;    C31-   O32-   P31-   O34
 11029  11032  11035  11036      9     0.00   0.65270   3 ;    C31-   C32-   N31-   C33
 11029  11032  11035  11040      9     0.00   0.65270   3 ;    C31-   C32-   N31-   C34
 11029  11032  11035  11044      9     0.00   0.65270   3 ;    C31-   C32-   N31-   C35
 11030  11029  11032  11033      9     0.00   0.65270   3 ;    H1A-   C31-   C32-   H2A
 11030  11029  11032  11034      9     0.00   0.65270   3 ;    H1A-   C31-   C32-   H2B
 11030  11029  11032  11035      9     0.00   0.65270   3 ;    H1A-   C31-   C32-   N31
 11031  11029  11032  11033      9     0.00   0.65270   3 ;    H1B-   C31-   C32-   H2A
 11031  11029  11032  11034      9     0.00   0.65270   3 ;    H1B-   C31-   C32-   H2B
 11031  11029  11032  11035      9     0.00   0.65270   3 ;    H1B-   C31-   C32-   N31
 11032  11035  11036  11037      9     0.00   0.65270   3 ;    C32-   N31-   C33-   H3A
 11032  11035  11036  11038      9     0.00   0.65270   3 ;    C32-   N31-   C33-   H3B
 11032  11035  11036  11039      9     0.00   0.65270   3 ;    C32-   N31-   C33-   H3C
 11032  11035  11040  11041      9     0.00   0.65270   3 ;    C32-   N31-   C34-   H4A
 11032  11035  11040  11042      9     0.00   0.65270   3 ;    C32-   N31-   C34-   H4B
 11032  11035  11040  11043      9     0.00   0.65270   3 ;    C32-   N31-   C34-   H4C
 11032  11035  11044  11045      9     0.00   0.65270   3 ;    C32-   N31-   C35-   H5A
 11032  11035  11044  11046      9     0.00   0.65270   3 ;    C32-   N31-   C35-   H5B
 11032  11035  11044  11047      9     0.00   0.65270   3 ;    C32-   N31-   C35-   H5C
 11033  11032  11035  11036      9     0.00   0.65270   3 ;    H2A-   C32-   N31-   C33
 11033  11032  11035  11040      9     0.00   0.65270   3 ;    H2A-   C32-   N31-   C34
 11033  11032  11035  11044      9     0.00   0.65270   3 ;    H2A-   C32-   N31-   C35
 11034  11032  11035  11036      9     0.00   0.65270   3 ;    H2B-   C32-   N31-   C33
 11034  11032  11035  11040      9     0.00   0.65270   3 ;    H2B-   C32-   N31-   C34
 11034  11032  11035  11044      9     0.00   0.65270   3 ;    H2B-   C32-   N31-   C35
 11036  11035  11040  11041      9     0.00   0.65270   3 ;    C33-   N31-   C34-   H4A
 11036  11035  11040  11042      9     0.00   0.65270   3 ;    C33-   N31-   C34-   H4B
 11036  11035  11040  11043      9     0.00   0.65270   3 ;    C33-   N31-   C34-   H4C
 11036  11035  11044  11045      9     0.00   0.65270   3 ;    C33-   N31-   C35-   H5A
 11036  11035  11044  11046      9     0.00   0.65270   3 ;    C33-   N31-   C35-   H5B
 11036  11035  11044  11047      9     0.00   0.65270   3 ;    C33-   N31-   C35-   H5C
 11037  11036  11035  11040      9     0.00   0.65270   3 ;    H3A-   C33-   N31-   C34
 11037  11036  11035  11044      9     0.00   0.65270   3 ;    H3A-   C33-   N31-   C35
 11038  11036  11035  11040      9     0.00   0.65270   3 ;    H3B-   C33-   N31-   C34
 11038  11036  11035  11044      9     0.00   0.65270   3 ;    H3B-   C33-   N31-   C35
 11039  11036  11035  11040      9     0.00   0.65270   3 ;    H3C-   C33-   N31-   C34
 11039  11036  11035  11044      9     0.00   0.65270   3 ;    H3C-   C33-   N31-   C35
 11040  11035  11044  11045      9     0.00   0.65270   3 ;    C34-   N31-   C35-   H5A
 11040  11035  11044  11046      9     0.00   0.65270   3 ;    C34-   N31-   C35-   H5B
 11040  11035  11044  11047      9     0.00   0.65270   3 ;    C34-   N31-   C35-   H5C
 11041  11040  11035  11044      9     0.00   0.65270   3 ;    H4A-   C34-   N31-   C35
 11042  11040  11035  11044      9     0.00   0.65270   3 ;    H4B-   C34-   N31-   C35
 11043  11040  11035  11044      9     0.00   0.65270   3 ;    H4C-   C34-   N31-   C35
 11050  11051  11090  11087      9   180.00   0.00000   2 ;    O21-   C21-   C12-   C13
 11050  11051  11090  11091      9   180.00   0.00000   2 ;    O21-   C21-   C12-   H2R
 11050  11051  11090  11092      9   180.00   0.00000   2 ;    O21-   C21-   C12-   H2S
 11051  11090  11087  11084      9     0.00   0.65270   3 ;    C21-   C12-   C13-   C14
 11051  11090  11087  11088      9     0.00   0.65270   3 ;    C21-   C12-   C13-   H3R
 11051  11090  11087  11089      9     0.00   0.65270   3 ;    C21-   C12-   C13-   H3S
 11052  11051  11090  11087      9   180.00   0.00000   2 ;    O22-   C21-   C12-   C13
 11052  11051  11090  11091      9     0.00   3.34720   1 ;    O22-   C21-   C12-   H2R
 11052  11051  11090  11091      9   180.00   0.33472   3 ;    O22-   C21-   C12-   H2R
 11052  11051  11090  11092      9     0.00   3.34720   1 ;    O22-   C21-   C12-   H2S
 11052  11051  11090  11092      9   180.00   0.33472   3 ;    O22-   C21-   C12-   H2S
 11053  11054  11057  11058      9     0.00   0.62760   3 ;   H14T-  C114-  C113-  H13R
 11053  11054  11057  11059      9     0.00   0.62760   3 ;   H14T-  C114-  C113-  H13S
 11053  11054  11057  11060      9     0.00   0.66944   3 ;   H14T-  C114-  C113-  C112
 11054  11057  11060  11061      9     0.00   0.66944   3 ;   C114-  C113-  C112-  H12R
 11054  11057  11060  11062      9     0.00   0.66944   3 ;   C114-  C113-  C112-  H12S
 11054  11057  11060  11063      9     0.00   0.41840   1 ;   C114-  C113-  C112-  C111
 11054  11057  11060  11063      9     0.00   0.41840   2 ;   C114-  C113-  C112-  C111
 11054  11057  11060  11063      9     0.00   0.41840   4 ;   C114-  C113-  C112-  C111
 11054  11057  11060  11063      9     0.00   0.41840   5 ;   C114-  C113-  C112-  C111
 11054  11057  11060  11063      9     0.00   1.25520   3 ;   C114-  C113-  C112-  C111
 11055  11054  11057  11058      9     0.00   0.62760   3 ;   H14R-  C114-  C113-  H13R
 11055  11054  11057  11059      9     0.00   0.62760   3 ;   H14R-  C114-  C113-  H13S
 11055  11054  11057  11060      9     0.00   0.66944   3 ;   H14R-  C114-  C113-  C112
 11056  11054  11057  11058      9     0.00   0.62760   3 ;   H14S-  C114-  C113-  H13R
 11056  11054  11057  11059      9     0.00   0.62760   3 ;   H14S-  C114-  C113-  H13S
 11056  11054  11057  11060      9     0.00   0.66944   3 ;   H14S-  C114-  C113-  C112
 11057  11060  11063  11064      9     0.00   0.66944   3 ;   C113-  C112-  C111-  H11R
 11057  11060  11063  11065      9     0.00   0.66944   3 ;   C113-  C112-  C111-  H11S
 11057  11060  11063  11066      9     0.00   0.41840   1 ;   C113-  C112-  C111-  C110
 11057  11060  11063  11066      9     0.00   0.41840   2 ;   C113-  C112-  C111-  C110
 11057  11060  11063  11066      9     0.00   0.41840   4 ;   C113-  C112-  C111-  C110
 11057  11060  11063  11066      9     0.00   0.41840   5 ;   C113-  C112-  C111-  C110
 11057  11060  11063  11066      9     0.00   1.25520   3 ;   C113-  C112-  C111-  C110
 11058  11057  11060  11061      9     0.00   0.62760   3 ;   H13R-  C113-  C112-  H12R
 11058  11057  11060  11062      9     0.00   0.62760   3 ;   H13R-  C113-  C112-  H12S
 11058  11057  11060  11063      9     0.00   0.66944   3 ;   H13R-  C113-  C112-  C111
 11059  11057  11060  11061      9     0.00   0.62760   3 ;   H13S-  C113-  C112-  H12R
 11059  11057  11060  11062      9     0.00   0.62760   3 ;   H13S-  C113-  C112-  H12S
 11059  11057  11060  11063      9     0.00   0.66944   3 ;   H13S-  C113-  C112-  C111
 11060  11063  11066  11067      9     0.00   0.66944   3 ;   C112-  C111-  C110-  H10R
 11060  11063  11066  11068      9     0.00   0.66944   3 ;   C112-  C111-  C110-  H10S
 11060  11063  11066  11069      9     0.00   0.41840   1 ;   C112-  C111-  C110-   C19
 11060  11063  11066  11069      9     0.00   0.41840   2 ;   C112-  C111-  C110-   C19
 11060  11063  11066  11069      9     0.00   0.41840   4 ;   C112-  C111-  C110-   C19
 11060  11063  11066  11069      9     0.00   0.41840   5 ;   C112-  C111-  C110-   C19
 11060  11063  11066  11069      9     0.00   1.25520   3 ;   C112-  C111-  C110-   C19
 11061  11060  11063  11064      9     0.00   0.62760   3 ;   H12R-  C112-  C111-  H11R
 11061  11060  11063  11065      9     0.00   0.62760   3 ;   H12R-  C112-  C111-  H11S
 11061  11060  11063  11066      9     0.00   0.66944   3 ;   H12R-  C112-  C111-  C110
 11062  11060  11063  11064      9     0.00   0.62760   3 ;   H12S-  C112-  C111-  H11R
 11062  11060  11063  11065      9     0.00   0.62760   3 ;   H12S-  C112-  C111-  H11S
 11062  11060  11063  11066      9     0.00   0.66944   3 ;   H12S-  C112-  C111-  C110
 11063  11066  11069  11070      9     0.00   0.66944   3 ;   C111-  C110-   C19-   H9R
 11063  11066  11069  11071      9     0.00   0.66944   3 ;   C111-  C110-   C19-   H9S
 11063  11066  11069  11072      9     0.00   0.41840   1 ;   C111-  C110-   C19-   C18
 11063  11066  11069  11072      9     0.00   0.41840   2 ;   C111-  C110-   C19-   C18
 11063  11066  11069  11072      9     0.00   0.41840   4 ;   C111-  C110-   C19-   C18
 11063  11066  11069  11072      9     0.00   0.41840   5 ;   C111-  C110-   C19-   C18
 11063  11066  11069  11072      9     0.00   1.25520   3 ;   C111-  C110-   C19-   C18
 11064  11063  11066  11067      9     0.00   0.62760   3 ;   H11R-  C111-  C110-  H10R
 11064  11063  11066  11068      9     0.00   0.62760   3 ;   H11R-  C111-  C110-  H10S
 11064  11063  11066  11069      9     0.00   0.66944   3 ;   H11R-  C111-  C110-   C19
 11065  11063  11066  11067      9     0.00   0.62760   3 ;   H11S-  C111-  C110-  H10R
 11065  11063  11066  11068      9     0.00   0.62760   3 ;   H11S-  C111-  C110-  H10S
 11065  11063  11066  11069      9     0.00   0.66944   3 ;   H11S-  C111-  C110-   C19
 11066  11069  11072  11073      9     0.00   0.66944   3 ;   C110-   C19-   C18-   H8R
 11066  11069  11072  11074      9     0.00   0.66944   3 ;   C110-   C19-   C18-   H8S
 11066  11069  11072  11075      9     0.00   0.41840   1 ;   C110-   C19-   C18-   C17
 11066  11069  11072  11075      9     0.00   0.41840   2 ;   C110-   C19-   C18-   C17
 11066  11069  11072  11075      9     0.00   0.41840   4 ;   C110-   C19-   C18-   C17
 11066  11069  11072  11075      9     0.00   0.41840   5 ;   C110-   C19-   C18-   C17
 11066  11069  11072  11075      9     0.00   1.25520   3 ;   C110-   C19-   C18-   C17
 11067  11066  11069  11070      9     0.00   0.62760   3 ;   H10R-  C110-   C19-   H9R
 11067  11066  11069  11071      9     0.00   0.62760   3 ;   H10R-  C110-   C19-   H9S
 11067  11066  11069  11072      9     0.00   0.66944   3 ;   H10R-  C110-   C19-   C18
 11068  11066  11069  11070      9     0.00   0.62760   3 ;   H10S-  C110-   C19-   H9R
 11068  11066  11069  11071      9     0.00   0.62760   3 ;   H10S-  C110-   C19-   H9S
 11068  11066  11069  11072      9     0.00   0.66944   3 ;   H10S-  C110-   C19-   C18
 11069  11072  11075  11076      9     0.00   0.66944   3 ;    C19-   C18-   C17-   H7R
 11069  11072  11075  11077      9     0.00   0.66944   3 ;    C19-   C18-   C17-   H7S
 11069  11072  11075  11078      9     0.00   0.41840   1 ;    C19-   C18-   C17-   C16
 11069  11072  11075  11078      9     0.00   0.41840   2 ;    C19-   C18-   C17-   C16
 11069  11072  11075  11078      9     0.00   0.41840   4 ;    C19-   C18-   C17-   C16
 11069  11072  11075  11078      9     0.00   0.41840   5 ;    C19-   C18-   C17-   C16
 11069  11072  11075  11078      9     0.00   1.25520   3 ;    C19-   C18-   C17-   C16
 11070  11069  11072  11073      9     0.00   0.62760   3 ;    H9R-   C19-   C18-   H8R
 11070  11069  11072  11074      9     0.00   0.62760   3 ;    H9R-   C19-   C18-   H8S
 11070  11069  11072  11075      9     0.00   0.66944   3 ;    H9R-   C19-   C18-   C17
 11071  11069  11072  11073      9     0.00   0.62760   3 ;    H9S-   C19-   C18-   H8R
 11071  11069  11072  11074      9     0.00   0.62760   3 ;    H9S-   C19-   C18-   H8S
 11071  11069  11072  11075      9     0.00   0.66944   3 ;    H9S-   C19-   C18-   C17
 11072  11075  11078  11079      9     0.00   0.66944   3 ;    C18-   C17-   C16-   H6R
 11072  11075  11078  11080      9     0.00   0.66944   3 ;    C18-   C17-   C16-   H6S
 11072  11075  11078  11081      9     0.00   0.41840   1 ;    C18-   C17-   C16-   C15
 11072  11075  11078  11081      9     0.00   0.41840   2 ;    C18-   C17-   C16-   C15
 11072  11075  11078  11081      9     0.00   0.41840   4 ;    C18-   C17-   C16-   C15
 11072  11075  11078  11081      9     0.00   0.41840   5 ;    C18-   C17-   C16-   C15
 11072  11075  11078  11081      9     0.00   1.25520   3 ;    C18-   C17-   C16-   C15
 11073  11072  11075  11076      9     0.00   0.62760   3 ;    H8R-   C18-   C17-   H7R
 11073  11072  11075  11077      9     0.00   0.62760   3 ;    H8R-   C18-   C17-   H7S
 11073  11072  11075  11078      9     0.00   0.66944   3 ;    H8R-   C18-   C17-   C16
 11074  11072  11075  11076      9     0.00   0.62760   3 ;    H8S-   C18-   C17-   H7R
 11074  11072  11075  11077      9     0.00   0.62760   3 ;    H8S-   C18-   C17-   H7S
 11074  11072  11075  11078      9     0.00   0.66944   3 ;    H8S-   C18-   C17-   C16
 11075  11078  11081  11082      9     0.00   0.66944   3 ;    C17-   C16-   C15-   H5R
 11075  11078  11081  11083      9     0.00   0.66944   3 ;    C17-   C16-   C15-   H5S
 11075  11078  11081  11084      9     0.00   0.41840   1 ;    C17-   C16-   C15-   C14
 11075  11078  11081  11084      9     0.00   0.41840   2 ;    C17-   C16-   C15-   C14
 11075  11078  11081  11084      9     0.00   0.41840   4 ;    C17-   C16-   C15-   C14
 11075  11078  11081  11084      9     0.00   0.41840   5 ;    C17-   C16-   C15-   C14
 11075  11078  11081  11084      9     0.00   1.25520   3 ;    C17-   C16-   C15-   C14
 11076  11075  11078  11079      9     0.00   0.62760   3 ;    H7R-   C17-   C16-   H6R
 11076  11075  11078  11080      9     0.00   0.62760   3 ;    H7R-   C17-   C16-   H6S
 11076  11075  11078  11081      9     0.00   0.66944   3 ;    H7R-   C17-   C16-   C15
 11077  11075  11078  11079      9     0.00   0.62760   3 ;    H7S-   C17-   C16-   H6R
 11077  11075  11078  11080      9     0.00   0.62760   3 ;    H7S-   C17-   C16-   H6S
 11077  11075  11078  11081      9     0.00   0.66944   3 ;    H7S-   C17-   C16-   C15
 11078  11081  11084  11085      9     0.00   0.66944   3 ;    C16-   C15-   C14-   H4R
 11078  11081  11084  11086      9     0.00   0.66944   3 ;    C16-   C15-   C14-   H4S
 11078  11081  11084  11087      9     0.00   0.41840   1 ;    C16-   C15-   C14-   C13
 11078  11081  11084  11087      9     0.00   0.41840   2 ;    C16-   C15-   C14-   C13
 11078  11081  11084  11087      9     0.00   0.41840   4 ;    C16-   C15-   C14-   C13
 11078  11081  11084  11087      9     0.00   0.41840   5 ;    C16-   C15-   C14-   C13
 11078  11081  11084  11087      9     0.00   1.25520   3 ;    C16-   C15-   C14-   C13
 11079  11078  11081  11082      9     0.00   0.62760   3 ;    H6R-   C16-   C15-   H5R
 11079  11078  11081  11083      9     0.00   0.62760   3 ;    H6R-   C16-   C15-   H5S
 11079  11078  11081  11084      9     0.00   0.66944   3 ;    H6R-   C16-   C15-   C14
 11080  11078  11081  11082      9     0.00   0.62760   3 ;    H6S-   C16-   C15-   H5R
 11080  11078  11081  11083      9     0.00   0.62760   3 ;    H6S-   C16-   C15-   H5S
 11080  11078  11081  11084      9     0.00   0.66944   3 ;    H6S-   C16-   C15-   C14
 11081  11084  11087  11088      9     0.00   0.66944   3 ;    C15-   C14-   C13-   H3R
 11081  11084  11087  11089      9     0.00   0.66944   3 ;    C15-   C14-   C13-   H3S
 11081  11084  11087  11090      9     0.00   0.41840   1 ;    C15-   C14-   C13-   C12
 11081  11084  11087  11090      9     0.00   0.41840   2 ;    C15-   C14-   C13-   C12
 11081  11084  11087  11090      9     0.00   0.41840   4 ;    C15-   C14-   C13-   C12
 11081  11084  11087  11090      9     0.00   0.41840   5 ;    C15-   C14-   C13-   C12
 11081  11084  11087  11090      9     0.00   1.25520   3 ;    C15-   C14-   C13-   C12
 11082  11081  11084  11085      9     0.00   0.62760   3 ;    H5R-   C15-   C14-   H4R
 11082  11081  11084  11086      9     0.00   0.62760   3 ;    H5R-   C15-   C14-   H4S
 11082  11081  11084  11087      9     0.00   0.66944   3 ;    H5R-   C15-   C14-   C13
 11083  11081  11084  11085      9     0.00   0.62760   3 ;    H5S-   C15-   C14-   H4R
 11083  11081  11084  11086      9     0.00   0.62760   3 ;    H5S-   C15-   C14-   H4S
 11083  11081  11084  11087      9     0.00   0.66944   3 ;    H5S-   C15-   C14-   C13
 11084  11087  11090  11091      9     0.00   0.66944   3 ;    C14-   C13-   C12-   H2R
 11084  11087  11090  11092      9     0.00   0.66944   3 ;    C14-   C13-   C12-   H2S
 11085  11084  11087  11088      9     0.00   0.62760   3 ;    H4R-   C14-   C13-   H3R
 11085  11084  11087  11089      9     0.00   0.62760   3 ;    H4R-   C14-   C13-   H3S
 11085  11084  11087  11090      9     0.00   0.66944   3 ;    H4R-   C14-   C13-   C12
 11086  11084  11087  11088      9     0.00   0.62760   3 ;    H4S-   C14-   C13-   H3R
 11086  11084  11087  11089      9     0.00   0.62760   3 ;    H4S-   C14-   C13-   H3S
 11086  11084  11087  11090      9     0.00   0.66944   3 ;    H4S-   C14-   C13-   C12
 11088  11087  11090  11091      9     0.00   0.62760   3 ;    H3R-   C13-   C12-   H2R
 11088  11087  11090  11092      9     0.00   0.62760   3 ;    H3R-   C13-   C12-   H2S
 11089  11087  11090  11091      9     0.00   0.62760   3 ;    H3S-   C13-   C12-   H2R
 11089  11087  11090  11092      9     0.00   0.62760   3 ;    H3S-   C13-   C12-   H2S
 11093  11094  11097  11098      9     0.00   0.62760   3 ;   H14T-  C114-  C113-  H13R
 11093  11094  11097  11099      9     0.00   0.62760   3 ;   H14T-  C114-  C113-  H13S
 11093  11094  11097  11100      9     0.00   0.66944   3 ;   H14T-  C114-  C113-  C112
 11094  11097  11100  11101      9     0.00   0.66944   3 ;   C114-  C113-  C112-  H12R
 11094  11097  11100  11102      9     0.00   0.66944   3 ;   C114-  C113-  C112-  H12S
 11094  11097  11100  11103      9     0.00   0.41840   1 ;   C114-  C113-  C112-  C111
 11094  11097  11100  11103      9     0.00   0.41840   2 ;   C114-  C113-  C112-  C111
 11094  11097  11100  11103      9     0.00   0.41840   4 ;   C114-  C113-  C112-  C111
 11094  11097  11100  11103      9     0.00   0.41840   5 ;   C114-  C113-  C112-  C111
 11094  11097  11100  11103      9     0.00   1.25520   3 ;   C114-  C113-  C112-  C111
 11095  11094  11097  11098      9     0.00   0.62760   3 ;   H14R-  C114-  C113-  H13R
 11095  11094  11097  11099      9     0.00   0.62760   3 ;   H14R-  C114-  C113-  H13S
 11095  11094  11097  11100      9     0.00   0.66944   3 ;   H14R-  C114-  C113-  C112
 11096  11094  11097  11098      9     0.00   0.62760   3 ;   H14S-  C114-  C113-  H13R
 11096  11094  11097  11099      9     0.00   0.62760   3 ;   H14S-  C114-  C113-  H13S
 11096  11094  11097  11100      9     0.00   0.66944   3 ;   H14S-  C114-  C113-  C112
 11097  11100  11103  11104      9     0.00   0.66944   3 ;   C113-  C112-  C111-  H11R
 11097  11100  11103  11105      9     0.00   0.66944   3 ;   C113-  C112-  C111-  H11S
 11097  11100  11103  11106      9     0.00   0.41840   1 ;   C113-  C112-  C111-  C110
 11097  11100  11103  11106      9     0.00   0.41840   2 ;   C113-  C112-  C111-  C110
 11097  11100  11103  11106      9     0.00   0.41840   4 ;   C113-  C112-  C111-  C110
 11097  11100  11103  11106      9     0.00   0.41840   5 ;   C113-  C112-  C111-  C110
 11097  11100  11103  11106      9     0.00   1.25520   3 ;   C113-  C112-  C111-  C110
 11098  11097  11100  11101      9     0.00   0.62760   3 ;   H13R-  C113-  C112-  H12R
 11098  11097  11100  11102      9     0.00   0.62760   3 ;   H13R-  C113-  C112-  H12S
 11098  11097  11100  11103      9     0.00   0.66944   3 ;   H13R-  C113-  C112-  C111
 11099  11097  11100  11101      9     0.00   0.62760   3 ;   H13S-  C113-  C112-  H12R
 11099  11097  11100  11102      9     0.00   0.62760   3 ;   H13S-  C113-  C112-  H12S
 11099  11097  11100  11103      9     0.00   0.66944   3 ;   H13S-  C113-  C112-  C111
 11100  11103  11106  11107      9     0.00   0.66944   3 ;   C112-  C111-  C110-  H10R
 11100  11103  11106  11108      9     0.00   0.66944   3 ;   C112-  C111-  C110-  H10S
 11100  11103  11106  11109      9     0.00   0.41840   1 ;   C112-  C111-  C110-   C19
 11100  11103  11106  11109      9     0.00   0.41840   2 ;   C112-  C111-  C110-   C19
 11100  11103  11106  11109      9     0.00   0.41840   4 ;   C112-  C111-  C110-   C19
 11100  11103  11106  11109      9     0.00   0.41840   5 ;   C112-  C111-  C110-   C19
 11100  11103  11106  11109      9     0.00   1.25520   3 ;   C112-  C111-  C110-   C19
 11101  11100  11103  11104      9     0.00   0.62760   3 ;   H12R-  C112-  C111-  H11R
 11101  11100  11103  11105      9     0.00   0.62760   3 ;   H12R-  C112-  C111-  H11S
 11101  11100  11103  11106      9     0.00   0.66944   3 ;   H12R-  C112-  C111-  C110
 11102  11100  11103  11104      9     0.00   0.62760   3 ;   H12S-  C112-  C111-  H11R
 11102  11100  11103  11105      9     0.00   0.62760   3 ;   H12S-  C112-  C111-  H11S
 11102  11100  11103  11106      9     0.00   0.66944   3 ;   H12S-  C112-  C111-  C110
 11103  11106  11109  11110      9     0.00   0.66944   3 ;   C111-  C110-   C19-   H9R
 11103  11106  11109  11111      9     0.00   0.66944   3 ;   C111-  C110-   C19-   H9S
 11103  11106  11109  11112      9     0.00   0.41840   1 ;   C111-  C110-   C19-   C18
 11103  11106  11109  11112      9     0.00   0.41840   2 ;   C111-  C110-   C19-   C18
 11103  11106  11109  11112      9     0.00   0.41840   4 ;   C111-  C110-   C19-   C18
 11103  11106  11109  11112      9     0.00   0.41840   5 ;   C111-  C110-   C19-   C18
 11103  11106  11109  11112      9     0.00   1.25520   3 ;   C111-  C110-   C19-   C18
 11104  11103  11106  11107      9     0.00   0.62760   3 ;   H11R-  C111-  C110-  H10R
 11104  11103  11106  11108      9     0.00   0.62760   3 ;   H11R-  C111-  C110-  H10S
 11104  11103  11106  11109      9     0.00   0.66944   3 ;   H11R-  C111-  C110-   C19
 11105  11103  11106  11107      9     0.00   0.62760   3 ;   H11S-  C111-  C110-  H10R
 11105  11103  11106  11108      9     0.00   0.62760   3 ;   H11S-  C111-  C110-  H10S
 11105  11103  11106  11109      9     0.00   0.66944   3 ;   H11S-  C111-  C110-   C19
 11106  11109  11112  11113      9     0.00   0.66944   3 ;   C110-   C19-   C18-   H8R
 11106  11109  11112  11114      9     0.00   0.66944   3 ;   C110-   C19-   C18-   H8S
 11106  11109  11112  11115      9     0.00   0.41840   1 ;   C110-   C19-   C18-   C17
 11106  11109  11112  11115      9     0.00   0.41840   2 ;   C110-   C19-   C18-   C17
 11106  11109  11112  11115      9     0.00   0.41840   4 ;   C110-   C19-   C18-   C17
 11106  11109  11112  11115      9     0.00   0.41840   5 ;   C110-   C19-   C18-   C17
 11106  11109  11112  11115      9     0.00   1.25520   3 ;   C110-   C19-   C18-   C17
 11107  11106  11109  11110      9     0.00   0.62760   3 ;   H10R-  C110-   C19-   H9R
 11107  11106  11109  11111      9     0.00   0.62760   3 ;   H10R-  C110-   C19-   H9S
 11107  11106  11109  11112      9     0.00   0.66944   3 ;   H10R-  C110-   C19-   C18
 11108  11106  11109  11110      9     0.00   0.62760   3 ;   H10S-  C110-   C19-   H9R
 11108  11106  11109  11111      9     0.00   0.62760   3 ;   H10S-  C110-   C19-   H9S
 11108  11106  11109  11112      9     0.00   0.66944   3 ;   H10S-  C110-   C19-   C18
 11109  11112  11115  11116      9     0.00   0.66944   3 ;    C19-   C18-   C17-   H7R
 11109  11112  11115  11117      9     0.00   0.66944   3 ;    C19-   C18-   C17-   H7S
 11109  11112  11115  11118      9     0.00   0.41840   1 ;    C19-   C18-   C17-   C16
 11109  11112  11115  11118      9     0.00   0.41840   2 ;    C19-   C18-   C17-   C16
 11109  11112  11115  11118      9     0.00   0.41840   4 ;    C19-   C18-   C17-   C16
 11109  11112  11115  11118      9     0.00   0.41840   5 ;    C19-   C18-   C17-   C16
 11109  11112  11115  11118      9     0.00   1.25520   3 ;    C19-   C18-   C17-   C16
 11110  11109  11112  11113      9     0.00   0.62760   3 ;    H9R-   C19-   C18-   H8R
 11110  11109  11112  11114      9     0.00   0.62760   3 ;    H9R-   C19-   C18-   H8S
 11110  11109  11112  11115      9     0.00   0.66944   3 ;    H9R-   C19-   C18-   C17
 11111  11109  11112  11113      9     0.00   0.62760   3 ;    H9S-   C19-   C18-   H8R
 11111  11109  11112  11114      9     0.00   0.62760   3 ;    H9S-   C19-   C18-   H8S
 11111  11109  11112  11115      9     0.00   0.66944   3 ;    H9S-   C19-   C18-   C17
 11112  11115  11118  11119      9     0.00   0.66944   3 ;    C18-   C17-   C16-   H6R
 11112  11115  11118  11120      9     0.00   0.66944   3 ;    C18-   C17-   C16-   H6S
 11112  11115  11118  11121      9     0.00   0.41840   1 ;    C18-   C17-   C16-   C15
 11112  11115  11118  11121      9     0.00   0.41840   2 ;    C18-   C17-   C16-   C15
 11112  11115  11118  11121      9     0.00   0.41840   4 ;    C18-   C17-   C16-   C15
 11112  11115  11118  11121      9     0.00   0.41840   5 ;    C18-   C17-   C16-   C15
 11112  11115  11118  11121      9     0.00   1.25520   3 ;    C18-   C17-   C16-   C15
 11113  11112  11115  11116      9     0.00   0.62760   3 ;    H8R-   C18-   C17-   H7R
 11113  11112  11115  11117      9     0.00   0.62760   3 ;    H8R-   C18-   C17-   H7S
 11113  11112  11115  11118      9     0.00   0.66944   3 ;    H8R-   C18-   C17-   C16
 11114  11112  11115  11116      9     0.00   0.62760   3 ;    H8S-   C18-   C17-   H7R
 11114  11112  11115  11117      9     0.00   0.62760   3 ;    H8S-   C18-   C17-   H7S
 11114  11112  11115  11118      9     0.00   0.66944   3 ;    H8S-   C18-   C17-   C16
 11115  11118  11121  11122      9     0.00   0.66944   3 ;    C17-   C16-   C15-   H5R
 11115  11118  11121  11123      9     0.00   0.66944   3 ;    C17-   C16-   C15-   H5S
 11115  11118  11121  11124      9     0.00   0.41840   1 ;    C17-   C16-   C15-   C14
 11115  11118  11121  11124      9     0.00   0.41840   2 ;    C17-   C16-   C15-   C14
 11115  11118  11121  11124      9     0.00   0.41840   4 ;    C17-   C16-   C15-   C14
 11115  11118  11121  11124      9     0.00   0.41840   5 ;    C17-   C16-   C15-   C14
 11115  11118  11121  11124      9     0.00   1.25520   3 ;    C17-   C16-   C15-   C14
 11116  11115  11118  11119      9     0.00   0.62760   3 ;    H7R-   C17-   C16-   H6R
 11116  11115  11118  11120      9     0.00   0.62760   3 ;    H7R-   C17-   C16-   H6S
 11116  11115  11118  11121      9     0.00   0.66944   3 ;    H7R-   C17-   C16-   C15
 11117  11115  11118  11119      9     0.00   0.62760   3 ;    H7S-   C17-   C16-   H6R
 11117  11115  11118  11120      9     0.00   0.62760   3 ;    H7S-   C17-   C16-   H6S
 11117  11115  11118  11121      9     0.00   0.66944   3 ;    H7S-   C17-   C16-   C15
 11118  11121  11124  11125      9     0.00   0.66944   3 ;    C16-   C15-   C14-   H4R
 11118  11121  11124  11126      9     0.00   0.66944   3 ;    C16-   C15-   C14-   H4S
 11118  11121  11124  11127      9     0.00   0.41840   1 ;    C16-   C15-   C14-   C13
 11118  11121  11124  11127      9     0.00   0.41840   2 ;    C16-   C15-   C14-   C13
 11118  11121  11124  11127      9     0.00   0.41840   4 ;    C16-   C15-   C14-   C13
 11118  11121  11124  11127      9     0.00   0.41840   5 ;    C16-   C15-   C14-   C13
 11118  11121  11124  11127      9     0.00   1.25520   3 ;    C16-   C15-   C14-   C13
 11119  11118  11121  11122      9     0.00   0.62760   3 ;    H6R-   C16-   C15-   H5R
 11119  11118  11121  11123      9     0.00   0.62760   3 ;    H6R-   C16-   C15-   H5S
 11119  11118  11121  11124      9     0.00   0.66944   3 ;    H6R-   C16-   C15-   C14
 11120  11118  11121  11122      9     0.00   0.62760   3 ;    H6S-   C16-   C15-   H5R
 11120  11118  11121  11123      9     0.00   0.62760   3 ;    H6S-   C16-   C15-   H5S
 11120  11118  11121  11124      9     0.00   0.66944   3 ;    H6S-   C16-   C15-   C14
 11121  11124  11127  11128      9     0.00   0.66944   3 ;    C15-   C14-   C13-   H3R
 11121  11124  11127  11129      9     0.00   0.66944   3 ;    C15-   C14-   C13-   H3S
 11121  11124  11127  11130      9     0.00   0.41840   1 ;    C15-   C14-   C13-   C12
 11121  11124  11127  11130      9     0.00   0.41840   2 ;    C15-   C14-   C13-   C12
 11121  11124  11127  11130      9     0.00   0.41840   4 ;    C15-   C14-   C13-   C12
 11121  11124  11127  11130      9     0.00   0.41840   5 ;    C15-   C14-   C13-   C12
 11121  11124  11127  11130      9     0.00   1.25520   3 ;    C15-   C14-   C13-   C12
 11122  11121  11124  11125      9     0.00   0.62760   3 ;    H5R-   C15-   C14-   H4R
 11122  11121  11124  11126      9     0.00   0.62760   3 ;    H5R-   C15-   C14-   H4S
 11122  11121  11124  11127      9     0.00   0.66944   3 ;    H5R-   C15-   C14-   C13
 11123  11121  11124  11125      9     0.00   0.62760   3 ;    H5S-   C15-   C14-   H4R
 11123  11121  11124  11126      9     0.00   0.62760   3 ;    H5S-   C15-   C14-   H4S
 11123  11121  11124  11127      9     0.00   0.66944   3 ;    H5S-   C15-   C14-   C13
 11124  11127  11130  11131      9     0.00   0.66944   3 ;    C14-   C13-   C12-   H2R
 11124  11127  11130  11132      9     0.00   0.66944   3 ;    C14-   C13-   C12-   H2S
 11124  11127  11130  11133      9     0.00   0.65270   3 ;    C14-   C13-   C12-   C11
 11125  11124  11127  11128      9     0.00   0.62760   3 ;    H4R-   C14-   C13-   H3R
 11125  11124  11127  11129      9     0.00   0.62760   3 ;    H4R-   C14-   C13-   H3S
 11125  11124  11127  11130      9     0.00   0.66944   3 ;    H4R-   C14-   C13-   C12
 11126  11124  11127  11128      9     0.00   0.62760   3 ;    H4S-   C14-   C13-   H3R
 11126  11124  11127  11129      9     0.00   0.62760   3 ;    H4S-   C14-   C13-   H3S
 11126  11124  11127  11130      9     0.00   0.66944   3 ;    H4S-   C14-   C13-   C12
 11127  11130  11133  11134      9   180.00   0.00000   2 ;    C13-   C12-   C11-   O12
 11127  11130  11133  11135      9   180.00   0.00000   2 ;    C13-   C12-   C11-   O11
 11128  11127  11130  11131      9     0.00   0.62760   3 ;    H3R-   C13-   C12-   H2R
 11128  11127  11130  11132      9     0.00   0.62760   3 ;    H3R-   C13-   C12-   H2S
 11128  11127  11130  11133      9     0.00   0.65270   3 ;    H3R-   C13-   C12-   C11
 11129  11127  11130  11131      9     0.00   0.62760   3 ;    H3S-   C13-   C12-   H2R
 11129  11127  11130  11132      9     0.00   0.62760   3 ;    H3S-   C13-   C12-   H2S
 11129  11127  11130  11133      9     0.00   0.65270   3 ;    H3S-   C13-   C12-   C11
 11130  11133  11135  11136      9   180.00  11.29680   2 ;    C12-   C11-   O11-    C1
 11131  11130  11133  11134      9     0.00   3.34720   1 ;    H2R-   C12-   C11-   O12
 11131  11130  11133  11134      9   180.00   0.33472   3 ;    H2R-   C12-   C11-   O12
 11131  11130  11133  11135      9   180.00   0.00000   2 ;    H2R-   C12-   C11-   O11
 11132  11130  11133  11134      9     0.00   3.34720   1 ;    H2S-   C12-   C11-   O12
 11132  11130  11133  11134      9   180.00   0.33472   3 ;    H2S-   C12-   C11-   O12
 11132  11130  11133  11135      9   180.00   0.00000   2 ;    H2S-   C12-   C11-   O11
 11133  11135  11136  11137      9     0.00   1.60247   3 ;    C11-   O11-    C1-    HR
 11133  11135  11136  11138      9     0.00   1.60247   3 ;    C11-   O11-    C1-    HS
 11133  11135  11136  11139      9     0.00  -0.41840   1 ;    C11-   O11-    C1-    C2
 11134  11133  11135  11136      9   180.00   5.85760   1 ;    O12-   C11-   O11-    C1
 11134  11133  11135  11136      9   180.00  11.29680   2 ;    O12-   C11-   O11-    C1
 11135  11136  11139  11140      9     0.00   0.00000   0 ;    O11-    C1-    C2-    HX
 11135  11136  11139  11140      9     0.00   1.04600   1 ;    O11-    C1-    C2-    HX
 11135  11136  11139  11141      9     0.00   0.00000   0 ;    O11-    C1-    C2-    C3
 11135  11136  11139  11141      9     0.00   0.00000   0 ;    O11-    C1-    C2-    C3
 11135  11136  11139  11141      9     0.00   0.00000   0 ;    O11-    C1-    C2-    C3
 11135  11136  11139  11141      9     0.00   0.00000   0 ;    O11-    C1-    C2-    C3
 11135  11136  11139  11141      9     0.00   0.00000   0 ;    O11-    C1-    C2-    C3
 11135  11136  11139  11168      9     0.00   1.25520   2 ;    O11-    C1-    C2-   O21
 11135  11136  11139  11168      9     0.00   4.18400   3 ;    O11-    C1-    C2-   O21
 11135  11136  11139  11168      9   180.00  -0.41840   1 ;    O11-    C1-    C2-   O21
 11136  11139  11141  11142      9     0.00   0.65270   3 ;     C1-    C2-    C3-    HA
 11136  11139  11141  11143      9     0.00   0.65270   3 ;     C1-    C2-    C3-    HB
 11136  11139  11141  11144      9   180.00   3.34720   1 ;     C1-    C2-    C3-   O31
 11136  11139  11168  11169      9     0.00  -0.41840   1 ;     C1-    C2-   O21-   C21
 11137  11136  11139  11140      9     0.00   0.65270   3 ;     HR-    C1-    C2-    HX
 11137  11136  11139  11141      9     0.00   0.65270   3 ;     HR-    C1-    C2-    C3
 11137  11136  11139  11168      9     0.00   0.00000   0 ;     HR-    C1-    C2-   O21
 11137  11136  11139  11168      9     0.00   1.04600   1 ;     HR-    C1-    C2-   O21
 11138  11136  11139  11140      9     0.00   0.65270   3 ;     HS-    C1-    C2-    HX
 11138  11136  11139  11141      9     0.00   0.65270   3 ;     HS-    C1-    C2-    C3
 11138  11136  11139  11168      9     0.00   0.00000   0 ;     HS-    C1-    C2-   O21
 11138  11136  11139  11168      9     0.00   1.04600   1 ;     HS-    C1-    C2-   O21
 11139  11141  11144  11145      9     0.00   0.00000   0 ;     C2-    C3-   O31-   P31
 11139  11141  11144  11145      9   180.00  -3.34720   2 ;     C2-    C3-   O31-   P31
 11139  11168  11169  11170      9   180.00   5.85760   1 ;     C2-   O21-   C21-   O22
 11139  11168  11169  11170      9   180.00  11.29680   2 ;     C2-   O21-   C21-   O22
 11139  11168  11169  11208      9   180.00  11.29680   2 ;     C2-   O21-   C21-   C12
 11140  11139  11141  11142      9     0.00   0.65270   3 ;     HX-    C2-    C3-    HA
 11140  11139  11141  11143      9     0.00   0.65270   3 ;     HX-    C2-    C3-    HB
 11140  11139  11141  11144      9     0.00   0.00000   0 ;     HX-    C2-    C3-   O31
 11140  11139  11141  11144      9     0.00   1.04600   1 ;     HX-    C2-    C3-   O31
 11140  11139  11168  11169      9     0.00   1.60247   3 ;     HX-    C2-   O21-   C21
 11141  11139  11168  11169      9     0.00  -0.41840   1 ;     C3-    C2-   O21-   C21
 11141  11144  11145  11146      9     0.00   2.51040   3 ;     C3-   O31-   P31-   O32
 11141  11144  11145  11146      9     0.00   9.62320   2 ;     C3-   O31-   P31-   O32
 11141  11144  11145  11166      9     0.00   0.00000   0 ;     C3-   O31-   P31-   O33
 11141  11144  11145  11166      9     0.00   0.00000   0 ;     C3-   O31-   P31-   O33
 11141  11144  11145  11166      9     0.00   0.00000   0 ;     C3-   O31-   P31-   O33
 11141  11144  11145  11166      9     0.00   0.00000   0 ;     C3-   O31-   P31-   O33
 11141  11144  11145  11166      9     0.00   0.83680   2 ;     C3-   O31-   P31-   O33
 11141  11144  11145  11167      9     0.00   0.00000   0 ;     C3-   O31-   P31-   O34
 11141  11144  11145  11167      9     0.00   0.00000   0 ;     C3-   O31-   P31-   O34
 11141  11144  11145  11167      9     0.00   0.00000   0 ;     C3-   O31-   P31-   O34
 11141  11144  11145  11167      9     0.00   0.00000   0 ;     C3-   O31-   P31-   O34
 11141  11144  11145  11167      9     0.00   0.83680   2 ;     C3-   O31-   P31-   O34
 11142  11141  11139  11168      9     0.00   0.00000   0 ;     HA-    C3-    C2-   O21
 11142  11141  11139  11168      9     0.00   1.04600   1 ;     HA-    C3-    C2-   O21
 11142  11141  11144  11145      9     0.00   0.00000   0 ;     HA-    C3-   O31-   P31
 11142  11141  11144  11145      9     0.00   0.00000   0 ;     HA-    C3-   O31-   P31
 11142  11141  11144  11145      9     0.00   0.00000   0 ;     HA-    C3-   O31-   P31
 11142  11141  11144  11145      9     0.00   0.00000   0 ;     HA-    C3-   O31-   P31
 11142  11141  11144  11145      9     0.00   1.60247   3 ;     HA-    C3-   O31-   P31
 11143  11141  11139  11168      9     0.00   0.00000   0 ;     HB-    C3-    C2-   O21
 11143  11141  11139  11168      9     0.00   1.04600   1 ;     HB-    C3-    C2-   O21
 11143  11141  11144  11145      9     0.00   0.00000   0 ;     HB-    C3-   O31-   P31
 11143  11141  11144  11145      9     0.00   0.00000   0 ;     HB-    C3-   O31-   P31
 11143  11141  11144  11145      9     0.00   0.00000   0 ;     HB-    C3-   O31-   P31
 11143  11141  11144  11145      9     0.00   0.00000   0 ;     HB-    C3-   O31-   P31
 11143  11141  11144  11145      9     0.00   1.60247   3 ;     HB-    C3-   O31-   P31
 11144  11141  11139  11168      9     0.00   0.00000   0 ;    O31-    C3-    C2-   O21
 11144  11141  11139  11168      9     0.00   0.00000   0 ;    O31-    C3-    C2-   O21
 11144  11141  11139  11168      9     0.00   0.00000   0 ;    O31-    C3-    C2-   O21
 11144  11141  11139  11168      9     0.00   0.00000   0 ;    O31-    C3-    C2-   O21
 11144  11141  11139  11168      9     0.00   0.00000   0 ;    O31-    C3-    C2-   O21
 11144  11145  11146  11147      9     0.00   2.51040   3 ;    O31-   P31-   O32-   C31
 11144  11145  11146  11147      9     0.00   9.62320   2 ;    O31-   P31-   O32-   C31
 11145  11146  11147  11148      9     0.00   0.00000   0 ;    P31-   O32-   C31-   H1A
 11145  11146  11147  11148      9     0.00   0.00000   0 ;    P31-   O32-   C31-   H1A
 11145  11146  11147  11148      9     0.00   0.00000   0 ;    P31-   O32-   C31-   H1A
 11145  11146  11147  11148      9     0.00   0.00000   0 ;    P31-   O32-   C31-   H1A
 11145  11146  11147  11148      9     0.00   1.60247   3 ;    P31-   O32-   C31-   H1A
 11145  11146  11147  11149      9     0.00   0.00000   0 ;    P31-   O32-   C31-   H1B
 11145  11146  11147  11149      9     0.00   0.00000   0 ;    P31-   O32-   C31-   H1B
 11145  11146  11147  11149      9     0.00   0.00000   0 ;    P31-   O32-   C31-   H1B
 11145  11146  11147  11149      9     0.00   0.00000   0 ;    P31-   O32-   C31-   H1B
 11145  11146  11147  11149      9     0.00   1.60247   3 ;    P31-   O32-   C31-   H1B
 11145  11146  11147  11150      9     0.00   0.00000   0 ;    P31-   O32-   C31-   C32
 11145  11146  11147  11150      9   180.00  -3.34720   2 ;    P31-   O32-   C31-   C32
 11146  11147  11150  11151      9     0.00   0.65270   3 ;    O32-   C31-   C32-   H2A
 11146  11147  11150  11152      9     0.00   0.65270   3 ;    O32-   C31-   C32-   H2B
 11146  11147  11150  11153      9     0.00   4.18400   3 ;    O32-   C31-   C32-   N31
 11147  11146  11145  11166      9     0.00   0.00000   0 ;    C31-   O32-   P31-   O33
 11147  11146  11145  11166      9     0.00   0.00000   0 ;    C31-   O32-   P31-   O33
 11147  11146  11145  11166      9     0.00   0.00000   0 ;    C31-   O32-   P31-   O33
 11147  11146  11145  11166      9     0.00   0.00000   0 ;    C31-   O32-   P31-   O33
 11147  11146  11145  11166      9     0.00   0.83680   2 ;    C31-   O32-   P31-   O33
 11147  11146  11145  11167      9     0.00   0.00000   0 ;    C31-   O32-   P31-   O34
 11147  11146  11145  11167      9     0.00   0.00000   0 ;    C31-   O32-   P31-   O34
 11147  11146  11145  11167      9     0.00   0.00000   0 ;    C31-   O32-   P31-   O34
 11147  11146  11145  11167      9     0.00   0.00000   0 ;    C31-   O32-   P31-   O34
 11147  11146  11145  11167      9     0.00   0.83680   2 ;    C31-   O32-   P31-   O34
 11147  11150  11153  11154      9     0.00   0.65270   3 ;    C31-   C32-   N31-   C33
 11147  11150  11153  11158      9     0.00   0.65270   3 ;    C31-   C32-   N31-   C34
 11147  11150  11153  11162      9     0.00   0.65270   3 ;    C31-   C32-   N31-   C35
 11148  11147  11150  11151      9     0.00   0.65270   3 ;    H1A-   C31-   C32-   H2A
 11148  11147  11150  11152      9     0.00   0.65270   3 ;    H1A-   C31-   C32-   H2B
 11148  11147  11150  11153      9     0.00   0.65270   3 ;    H1A-   C31-   C32-   N31
 11149  11147  11150  11151      9     0.00   0.65270   3 ;    H1B-   C31-   C32-   H2A
 11149  11147  11150  11152      9     0.00   0.65270   3 ;    H1B-   C31-   C32-   H2B
 11149  11147  11150  11153      9     0.00   0.65270   3 ;    H1B-   C31-   C32-   N31
 11150  11153  11154  11155      9     0.00   0.65270   3 ;    C32-   N31-   C33-   H3A
 11150  11153  11154  11156      9     0.00   0.65270   3 ;    C32-   N31-   C33-   H3B
 11150  11153  11154  11157      9     0.00   0.65270   3 ;    C32-   N31-   C33-   H3C
 11150  11153  11158  11159      9     0.00   0.65270   3 ;    C32-   N31-   C34-   H4A
 11150  11153  11158  11160      9     0.00   0.65270   3 ;    C32-   N31-   C34-   H4B
 11150  11153  11158  11161      9     0.00   0.65270   3 ;    C32-   N31-   C34-   H4C
 11150  11153  11162  11163      9     0.00   0.65270   3 ;    C32-   N31-   C35-   H5A
 11150  11153  11162  11164      9     0.00   0.65270   3 ;    C32-   N31-   C35-   H5B
 11150  11153  11162  11165      9     0.00   0.65270   3 ;    C32-   N31-   C35-   H5C
 11151  11150  11153  11154      9     0.00   0.65270   3 ;    H2A-   C32-   N31-   C33
 11151  11150  11153  11158      9     0.00   0.65270   3 ;    H2A-   C32-   N31-   C34
 11151  11150  11153  11162      9     0.00   0.65270   3 ;    H2A-   C32-   N31-   C35
 11152  11150  11153  11154      9     0.00   0.65270   3 ;    H2B-   C32-   N31-   C33
 11152  11150  11153  11158      9     0.00   0.65270   3 ;    H2B-   C32-   N31-   C34
 11152  11150  11153  11162      9     0.00   0.65270   3 ;    H2B-   C32-   N31-   C35
 11154  11153  11158  11159      9     0.00   0.65270   3 ;    C33-   N31-   C34-   H4A
 11154  11153  11158  11160      9     0.00   0.65270   3 ;    C33-   N31-   C34-   H4B
 11154  11153  11158  11161      9     0.00   0.65270   3 ;    C33-   N31-   C34-   H4C
 11154  11153  11162  11163      9     0.00   0.65270   3 ;    C33-   N31-   C35-   H5A
 11154  11153  11162  11164      9     0.00   0.65270   3 ;    C33-   N31-   C35-   H5B
 11154  11153  11162  11165      9     0.00   0.65270   3 ;    C33-   N31-   C35-   H5C
 11155  11154  11153  11158      9     0.00   0.65270   3 ;    H3A-   C33-   N31-   C34
 11155  11154  11153  11162      9     0.00   0.65270   3 ;    H3A-   C33-   N31-   C35
 11156  11154  11153  11158      9     0.00   0.65270   3 ;    H3B-   C33-   N31-   C34
 11156  11154  11153  11162      9     0.00   0.65270   3 ;    H3B-   C33-   N31-   C35
 11157  11154  11153  11158      9     0.00   0.65270   3 ;    H3C-   C33-   N31-   C34
 11157  11154  11153  11162      9     0.00   0.65270   3 ;    H3C-   C33-   N31-   C35
 11158  11153  11162  11163      9     0.00   0.65270   3 ;    C34-   N31-   C35-   H5A
 11158  11153  11162  11164      9     0.00   0.65270   3 ;    C34-   N31-   C35-   H5B
 11158  11153  11162  11165      9     0.00   0.65270   3 ;    C34-   N31-   C35-   H5C
 11159  11158  11153  11162      9     0.00   0.65270   3 ;    H4A-   C34-   N31-   C35
 11160  11158  11153  11162      9     0.00   0.65270   3 ;    H4B-   C34-   N31-   C35
 11161  11158  11153  11162      9     0.00   0.65270   3 ;    H4C-   C34-   N31-   C35
 11168  11169  11208  11205      9   180.00   0.00000   2 ;    O21-   C21-   C12-   C13
 11168  11169  11208  11209      9   180.00   0.00000   2 ;    O21-   C21-   C12-   H2R
 11168  11169  11208  11210      9   180.00   0.00000   2 ;    O21-   C21-   C12-   H2S
 11169  11208  11205  11202      9     0.00   0.65270   3 ;    C21-   C12-   C13-   C14
 11169  11208  11205  11206      9     0.00   0.65270   3 ;    C21-   C12-   C13-   H3R
 11169  11208  11205  11207      9     0.00   0.65270   3 ;    C21-   C12-   C13-   H3S
 11170  11169  11208  11205      9   180.00   0.00000   2 ;    O22-   C21-   C12-   C13
 11170  11169  11208  11209      9     0.00   3.34720   1 ;    O22-   C21-   C12-   H2R
 11170  11169  11208  11209      9   180.00   0.33472   3 ;    O22-   C21-   C12-   H2R
 11170  11169  11208  11210      9     0.00   3.34720   1 ;    O22-   C21-   C12-   H2S
 11170  11169  11208  11210      9   180.00   0.33472   3 ;    O22-   C21-   C12-   H2S
 11171  11172  11175  11176      9     0.00   0.62760   3 ;   H14T-  C114-  C113-  H13R
 11171  11172  11175  11177      9     0.00   0.62760   3 ;   H14T-  C114-  C113-  H13S
 11171  11172  11175  11178      9     0.00   0.66944   3 ;   H14T-  C114-  C113-  C112
 11172  11175  11178  11179      9     0.00   0.66944   3 ;   C114-  C113-  C112-  H12R
 11172  11175  11178  11180      9     0.00   0.66944   3 ;   C114-  C113-  C112-  H12S
 11172  11175  11178  11181      9     0.00   0.41840   1 ;   C114-  C113-  C112-  C111
 11172  11175  11178  11181      9     0.00   0.41840   2 ;   C114-  C113-  C112-  C111
 11172  11175  11178  11181      9     0.00   0.41840   4 ;   C114-  C113-  C112-  C111
 11172  11175  11178  11181      9     0.00   0.41840   5 ;   C114-  C113-  C112-  C111
 11172  11175  11178  11181      9     0.00   1.25520   3 ;   C114-  C113-  C112-  C111
 11173  11172  11175  11176      9     0.00   0.62760   3 ;   H14R-  C114-  C113-  H13R
 11173  11172  11175  11177      9     0.00   0.62760   3 ;   H14R-  C114-  C113-  H13S
 11173  11172  11175  11178      9     0.00   0.66944   3 ;   H14R-  C114-  C113-  C112
 11174  11172  11175  11176      9     0.00   0.62760   3 ;   H14S-  C114-  C113-  H13R
 11174  11172  11175  11177      9     0.00   0.62760   3 ;   H14S-  C114-  C113-  H13S
 11174  11172  11175  11178      9     0.00   0.66944   3 ;   H14S-  C114-  C113-  C112
 11175  11178  11181  11182      9     0.00   0.66944   3 ;   C113-  C112-  C111-  H11R
 11175  11178  11181  11183      9     0.00   0.66944   3 ;   C113-  C112-  C111-  H11S
 11175  11178  11181  11184      9     0.00   0.41840   1 ;   C113-  C112-  C111-  C110
 11175  11178  11181  11184      9     0.00   0.41840   2 ;   C113-  C112-  C111-  C110
 11175  11178  11181  11184      9     0.00   0.41840   4 ;   C113-  C112-  C111-  C110
 11175  11178  11181  11184      9     0.00   0.41840   5 ;   C113-  C112-  C111-  C110
 11175  11178  11181  11184      9     0.00   1.25520   3 ;   C113-  C112-  C111-  C110
 11176  11175  11178  11179      9     0.00   0.62760   3 ;   H13R-  C113-  C112-  H12R
 11176  11175  11178  11180      9     0.00   0.62760   3 ;   H13R-  C113-  C112-  H12S
 11176  11175  11178  11181      9     0.00   0.66944   3 ;   H13R-  C113-  C112-  C111
 11177  11175  11178  11179      9     0.00   0.62760   3 ;   H13S-  C113-  C112-  H12R
 11177  11175  11178  11180      9     0.00   0.62760   3 ;   H13S-  C113-  C112-  H12S
 11177  11175  11178  11181      9     0.00   0.66944   3 ;   H13S-  C113-  C112-  C111
 11178  11181  11184  11185      9     0.00   0.66944   3 ;   C112-  C111-  C110-  H10R
 11178  11181  11184  11186      9     0.00   0.66944   3 ;   C112-  C111-  C110-  H10S
 11178  11181  11184  11187      9     0.00   0.41840   1 ;   C112-  C111-  C110-   C19
 11178  11181  11184  11187      9     0.00   0.41840   2 ;   C112-  C111-  C110-   C19
 11178  11181  11184  11187      9     0.00   0.41840   4 ;   C112-  C111-  C110-   C19
 11178  11181  11184  11187      9     0.00   0.41840   5 ;   C112-  C111-  C110-   C19
 11178  11181  11184  11187      9     0.00   1.25520   3 ;   C112-  C111-  C110-   C19
 11179  11178  11181  11182      9     0.00   0.62760   3 ;   H12R-  C112-  C111-  H11R
 11179  11178  11181  11183      9     0.00   0.62760   3 ;   H12R-  C112-  C111-  H11S
 11179  11178  11181  11184      9     0.00   0.66944   3 ;   H12R-  C112-  C111-  C110
 11180  11178  11181  11182      9     0.00   0.62760   3 ;   H12S-  C112-  C111-  H11R
 11180  11178  11181  11183      9     0.00   0.62760   3 ;   H12S-  C112-  C111-  H11S
 11180  11178  11181  11184      9     0.00   0.66944   3 ;   H12S-  C112-  C111-  C110
 11181  11184  11187  11188      9     0.00   0.66944   3 ;   C111-  C110-   C19-   H9R
 11181  11184  11187  11189      9     0.00   0.66944   3 ;   C111-  C110-   C19-   H9S
 11181  11184  11187  11190      9     0.00   0.41840   1 ;   C111-  C110-   C19-   C18
 11181  11184  11187  11190      9     0.00   0.41840   2 ;   C111-  C110-   C19-   C18
 11181  11184  11187  11190      9     0.00   0.41840   4 ;   C111-  C110-   C19-   C18
 11181  11184  11187  11190      9     0.00   0.41840   5 ;   C111-  C110-   C19-   C18
 11181  11184  11187  11190      9     0.00   1.25520   3 ;   C111-  C110-   C19-   C18
 11182  11181  11184  11185      9     0.00   0.62760   3 ;   H11R-  C111-  C110-  H10R
 11182  11181  11184  11186      9     0.00   0.62760   3 ;   H11R-  C111-  C110-  H10S
 11182  11181  11184  11187      9     0.00   0.66944   3 ;   H11R-  C111-  C110-   C19
 11183  11181  11184  11185      9     0.00   0.62760   3 ;   H11S-  C111-  C110-  H10R
 11183  11181  11184  11186      9     0.00   0.62760   3 ;   H11S-  C111-  C110-  H10S
 11183  11181  11184  11187      9     0.00   0.66944   3 ;   H11S-  C111-  C110-   C19
 11184  11187  11190  11191      9     0.00   0.66944   3 ;   C110-   C19-   C18-   H8R
 11184  11187  11190  11192      9     0.00   0.66944   3 ;   C110-   C19-   C18-   H8S
 11184  11187  11190  11193      9     0.00   0.41840   1 ;   C110-   C19-   C18-   C17
 11184  11187  11190  11193      9     0.00   0.41840   2 ;   C110-   C19-   C18-   C17
 11184  11187  11190  11193      9     0.00   0.41840   4 ;   C110-   C19-   C18-   C17
 11184  11187  11190  11193      9     0.00   0.41840   5 ;   C110-   C19-   C18-   C17
 11184  11187  11190  11193      9     0.00   1.25520   3 ;   C110-   C19-   C18-   C17
 11185  11184  11187  11188      9     0.00   0.62760   3 ;   H10R-  C110-   C19-   H9R
 11185  11184  11187  11189      9     0.00   0.62760   3 ;   H10R-  C110-   C19-   H9S
 11185  11184  11187  11190      9     0.00   0.66944   3 ;   H10R-  C110-   C19-   C18
 11186  11184  11187  11188      9     0.00   0.62760   3 ;   H10S-  C110-   C19-   H9R
 11186  11184  11187  11189      9     0.00   0.62760   3 ;   H10S-  C110-   C19-   H9S
 11186  11184  11187  11190      9     0.00   0.66944   3 ;   H10S-  C110-   C19-   C18
 11187  11190  11193  11194      9     0.00   0.66944   3 ;    C19-   C18-   C17-   H7R
 11187  11190  11193  11195      9     0.00   0.66944   3 ;    C19-   C18-   C17-   H7S
 11187  11190  11193  11196      9     0.00   0.41840   1 ;    C19-   C18-   C17-   C16
 11187  11190  11193  11196      9     0.00   0.41840   2 ;    C19-   C18-   C17-   C16
 11187  11190  11193  11196      9     0.00   0.41840   4 ;    C19-   C18-   C17-   C16
 11187  11190  11193  11196      9     0.00   0.41840   5 ;    C19-   C18-   C17-   C16
 11187  11190  11193  11196      9     0.00   1.25520   3 ;    C19-   C18-   C17-   C16
 11188  11187  11190  11191      9     0.00   0.62760   3 ;    H9R-   C19-   C18-   H8R
 11188  11187  11190  11192      9     0.00   0.62760   3 ;    H9R-   C19-   C18-   H8S
 11188  11187  11190  11193      9     0.00   0.66944   3 ;    H9R-   C19-   C18-   C17
 11189  11187  11190  11191      9     0.00   0.62760   3 ;    H9S-   C19-   C18-   H8R
 11189  11187  11190  11192      9     0.00   0.62760   3 ;    H9S-   C19-   C18-   H8S
 11189  11187  11190  11193      9     0.00   0.66944   3 ;    H9S-   C19-   C18-   C17
 11190  11193  11196  11197      9     0.00   0.66944   3 ;    C18-   C17-   C16-   H6R
 11190  11193  11196  11198      9     0.00   0.66944   3 ;    C18-   C17-   C16-   H6S
 11190  11193  11196  11199      9     0.00   0.41840   1 ;    C18-   C17-   C16-   C15
 11190  11193  11196  11199      9     0.00   0.41840   2 ;    C18-   C17-   C16-   C15
 11190  11193  11196  11199      9     0.00   0.41840   4 ;    C18-   C17-   C16-   C15
 11190  11193  11196  11199      9     0.00   0.41840   5 ;    C18-   C17-   C16-   C15
 11190  11193  11196  11199      9     0.00   1.25520   3 ;    C18-   C17-   C16-   C15
 11191  11190  11193  11194      9     0.00   0.62760   3 ;    H8R-   C18-   C17-   H7R
 11191  11190  11193  11195      9     0.00   0.62760   3 ;    H8R-   C18-   C17-   H7S
 11191  11190  11193  11196      9     0.00   0.66944   3 ;    H8R-   C18-   C17-   C16
 11192  11190  11193  11194      9     0.00   0.62760   3 ;    H8S-   C18-   C17-   H7R
 11192  11190  11193  11195      9     0.00   0.62760   3 ;    H8S-   C18-   C17-   H7S
 11192  11190  11193  11196      9     0.00   0.66944   3 ;    H8S-   C18-   C17-   C16
 11193  11196  11199  11200      9     0.00   0.66944   3 ;    C17-   C16-   C15-   H5R
 11193  11196  11199  11201      9     0.00   0.66944   3 ;    C17-   C16-   C15-   H5S
 11193  11196  11199  11202      9     0.00   0.41840   1 ;    C17-   C16-   C15-   C14
 11193  11196  11199  11202      9     0.00   0.41840   2 ;    C17-   C16-   C15-   C14
 11193  11196  11199  11202      9     0.00   0.41840   4 ;    C17-   C16-   C15-   C14
 11193  11196  11199  11202      9     0.00   0.41840   5 ;    C17-   C16-   C15-   C14
 11193  11196  11199  11202      9     0.00   1.25520   3 ;    C17-   C16-   C15-   C14
 11194  11193  11196  11197      9     0.00   0.62760   3 ;    H7R-   C17-   C16-   H6R
 11194  11193  11196  11198      9     0.00   0.62760   3 ;    H7R-   C17-   C16-   H6S
 11194  11193  11196  11199      9     0.00   0.66944   3 ;    H7R-   C17-   C16-   C15
 11195  11193  11196  11197      9     0.00   0.62760   3 ;    H7S-   C17-   C16-   H6R
 11195  11193  11196  11198      9     0.00   0.62760   3 ;    H7S-   C17-   C16-   H6S
 11195  11193  11196  11199      9     0.00   0.66944   3 ;    H7S-   C17-   C16-   C15
 11196  11199  11202  11203      9     0.00   0.66944   3 ;    C16-   C15-   C14-   H4R
 11196  11199  11202  11204      9     0.00   0.66944   3 ;    C16-   C15-   C14-   H4S
 11196  11199  11202  11205      9     0.00   0.41840   1 ;    C16-   C15-   C14-   C13
 11196  11199  11202  11205      9     0.00   0.41840   2 ;    C16-   C15-   C14-   C13
 11196  11199  11202  11205      9     0.00   0.41840   4 ;    C16-   C15-   C14-   C13
 11196  11199  11202  11205      9     0.00   0.41840   5 ;    C16-   C15-   C14-   C13
 11196  11199  11202  11205      9     0.00   1.25520   3 ;    C16-   C15-   C14-   C13
 11197  11196  11199  11200      9     0.00   0.62760   3 ;    H6R-   C16-   C15-   H5R
 11197  11196  11199  11201      9     0.00   0.62760   3 ;    H6R-   C16-   C15-   H5S
 11197  11196  11199  11202      9     0.00   0.66944   3 ;    H6R-   C16-   C15-   C14
 11198  11196  11199  11200      9     0.00   0.62760   3 ;    H6S-   C16-   C15-   H5R
 11198  11196  11199  11201      9     0.00   0.62760   3 ;    H6S-   C16-   C15-   H5S
 11198  11196  11199  11202      9     0.00   0.66944   3 ;    H6S-   C16-   C15-   C14
 11199  11202  11205  11206      9     0.00   0.66944   3 ;    C15-   C14-   C13-   H3R
 11199  11202  11205  11207      9     0.00   0.66944   3 ;    C15-   C14-   C13-   H3S
 11199  11202  11205  11208      9     0.00   0.41840   1 ;    C15-   C14-   C13-   C12
 11199  11202  11205  11208      9     0.00   0.41840   2 ;    C15-   C14-   C13-   C12
 11199  11202  11205  11208      9     0.00   0.41840   4 ;    C15-   C14-   C13-   C12
 11199  11202  11205  11208      9     0.00   0.41840   5 ;    C15-   C14-   C13-   C12
 11199  11202  11205  11208      9     0.00   1.25520   3 ;    C15-   C14-   C13-   C12
 11200  11199  11202  11203      9     0.00   0.62760   3 ;    H5R-   C15-   C14-   H4R
 11200  11199  11202  11204      9     0.00   0.62760   3 ;    H5R-   C15-   C14-   H4S
 11200  11199  11202  11205      9     0.00   0.66944   3 ;    H5R-   C15-   C14-   C13
 11201  11199  11202  11203      9     0.00   0.62760   3 ;    H5S-   C15-   C14-   H4R
 11201  11199  11202  11204      9     0.00   0.62760   3 ;    H5S-   C15-   C14-   H4S
 11201  11199  11202  11205      9     0.00   0.66944   3 ;    H5S-   C15-   C14-   C13
 11202  11205  11208  11209      9     0.00   0.66944   3 ;    C14-   C13-   C12-   H2R
 11202  11205  11208  11210      9     0.00   0.66944   3 ;    C14-   C13-   C12-   H2S
 11203  11202  11205  11206      9     0.00   0.62760   3 ;    H4R-   C14-   C13-   H3R
 11203  11202  11205  11207      9     0.00   0.62760   3 ;    H4R-   C14-   C13-   H3S
 11203  11202  11205  11208      9     0.00   0.66944   3 ;    H4R-   C14-   C13-   C12
 11204  11202  11205  11206      9     0.00   0.62760   3 ;    H4S-   C14-   C13-   H3R
 11204  11202  11205  11207      9     0.00   0.62760   3 ;    H4S-   C14-   C13-   H3S
 11204  11202  11205  11208      9     0.00   0.66944   3 ;    H4S-   C14-   C13-   C12
 11206  11205  11208  11209      9     0.00   0.62760   3 ;    H3R-   C13-   C12-   H2R
 11206  11205  11208  11210      9     0.00   0.62760   3 ;    H3R-   C13-   C12-   H2S
 11207  11205  11208  11209      9     0.00   0.62760   3 ;    H3S-   C13-   C12-   H2R
 11207  11205  11208  11210      9     0.00   0.62760   3 ;    H3S-   C13-   C12-   H2S
 11211  11212  11215  11216      9     0.00   0.62760   3 ;   H14T-  C114-  C113-  H13R
 11211  11212  11215  11217      9     0.00   0.62760   3 ;   H14T-  C114-  C113-  H13S
 11211  11212  11215  11218      9     0.00   0.66944   3 ;   H14T-  C114-  C113-  C112
 11212  11215  11218  11219      9     0.00   0.66944   3 ;   C114-  C113-  C112-  H12R
 11212  11215  11218  11220      9     0.00   0.66944   3 ;   C114-  C113-  C112-  H12S
 11212  11215  11218  11221      9     0.00   0.41840   1 ;   C114-  C113-  C112-  C111
 11212  11215  11218  11221      9     0.00   0.41840   2 ;   C114-  C113-  C112-  C111
 11212  11215  11218  11221      9     0.00   0.41840   4 ;   C114-  C113-  C112-  C111
 11212  11215  11218  11221      9     0.00   0.41840   5 ;   C114-  C113-  C112-  C111
 11212  11215  11218  11221      9     0.00   1.25520   3 ;   C114-  C113-  C112-  C111
 11213  11212  11215  11216      9     0.00   0.62760   3 ;   H14R-  C114-  C113-  H13R
 11213  11212  11215  11217      9     0.00   0.62760   3 ;   H14R-  C114-  C113-  H13S
 11213  11212  11215  11218      9     0.00   0.66944   3 ;   H14R-  C114-  C113-  C112
 11214  11212  11215  11216      9     0.00   0.62760   3 ;   H14S-  C114-  C113-  H13R
 11214  11212  11215  11217      9     0.00   0.62760   3 ;   H14S-  C114-  C113-  H13S
 11214  11212  11215  11218      9     0.00   0.66944   3 ;   H14S-  C114-  C113-  C112
 11215  11218  11221  11222      9     0.00   0.66944   3 ;   C113-  C112-  C111-  H11R
 11215  11218  11221  11223      9     0.00   0.66944   3 ;   C113-  C112-  C111-  H11S
 11215  11218  11221  11224      9     0.00   0.41840   1 ;   C113-  C112-  C111-  C110
 11215  11218  11221  11224      9     0.00   0.41840   2 ;   C113-  C112-  C111-  C110
 11215  11218  11221  11224      9     0.00   0.41840   4 ;   C113-  C112-  C111-  C110
 11215  11218  11221  11224      9     0.00   0.41840   5 ;   C113-  C112-  C111-  C110
 11215  11218  11221  11224      9     0.00   1.25520   3 ;   C113-  C112-  C111-  C110
 11216  11215  11218  11219      9     0.00   0.62760   3 ;   H13R-  C113-  C112-  H12R
 11216  11215  11218  11220      9     0.00   0.62760   3 ;   H13R-  C113-  C112-  H12S
 11216  11215  11218  11221      9     0.00   0.66944   3 ;   H13R-  C113-  C112-  C111
 11217  11215  11218  11219      9     0.00   0.62760   3 ;   H13S-  C113-  C112-  H12R
 11217  11215  11218  11220      9     0.00   0.62760   3 ;   H13S-  C113-  C112-  H12S
 11217  11215  11218  11221      9     0.00   0.66944   3 ;   H13S-  C113-  C112-  C111
 11218  11221  11224  11225      9     0.00   0.66944   3 ;   C112-  C111-  C110-  H10R
 11218  11221  11224  11226      9     0.00   0.66944   3 ;   C112-  C111-  C110-  H10S
 11218  11221  11224  11227      9     0.00   0.41840   1 ;   C112-  C111-  C110-   C19
 11218  11221  11224  11227      9     0.00   0.41840   2 ;   C112-  C111-  C110-   C19
 11218  11221  11224  11227      9     0.00   0.41840   4 ;   C112-  C111-  C110-   C19
 11218  11221  11224  11227      9     0.00   0.41840   5 ;   C112-  C111-  C110-   C19
 11218  11221  11224  11227      9     0.00   1.25520   3 ;   C112-  C111-  C110-   C19
 11219  11218  11221  11222      9     0.00   0.62760   3 ;   H12R-  C112-  C111-  H11R
 11219  11218  11221  11223      9     0.00   0.62760   3 ;   H12R-  C112-  C111-  H11S
 11219  11218  11221  11224      9     0.00   0.66944   3 ;   H12R-  C112-  C111-  C110
 11220  11218  11221  11222      9     0.00   0.62760   3 ;   H12S-  C112-  C111-  H11R
 11220  11218  11221  11223      9     0.00   0.62760   3 ;   H12S-  C112-  C111-  H11S
 11220  11218  11221  11224      9     0.00   0.66944   3 ;   H12S-  C112-  C111-  C110
 11221  11224  11227  11228      9     0.00   0.66944   3 ;   C111-  C110-   C19-   H9R
 11221  11224  11227  11229      9     0.00   0.66944   3 ;   C111-  C110-   C19-   H9S
 11221  11224  11227  11230      9     0.00   0.41840   1 ;   C111-  C110-   C19-   C18
 11221  11224  11227  11230      9     0.00   0.41840   2 ;   C111-  C110-   C19-   C18
 11221  11224  11227  11230      9     0.00   0.41840   4 ;   C111-  C110-   C19-   C18
 11221  11224  11227  11230      9     0.00   0.41840   5 ;   C111-  C110-   C19-   C18
 11221  11224  11227  11230      9     0.00   1.25520   3 ;   C111-  C110-   C19-   C18
 11222  11221  11224  11225      9     0.00   0.62760   3 ;   H11R-  C111-  C110-  H10R
 11222  11221  11224  11226      9     0.00   0.62760   3 ;   H11R-  C111-  C110-  H10S
 11222  11221  11224  11227      9     0.00   0.66944   3 ;   H11R-  C111-  C110-   C19
 11223  11221  11224  11225      9     0.00   0.62760   3 ;   H11S-  C111-  C110-  H10R
 11223  11221  11224  11226      9     0.00   0.62760   3 ;   H11S-  C111-  C110-  H10S
 11223  11221  11224  11227      9     0.00   0.66944   3 ;   H11S-  C111-  C110-   C19
 11224  11227  11230  11231      9     0.00   0.66944   3 ;   C110-   C19-   C18-   H8R
 11224  11227  11230  11232      9     0.00   0.66944   3 ;   C110-   C19-   C18-   H8S
 11224  11227  11230  11233      9     0.00   0.41840   1 ;   C110-   C19-   C18-   C17
 11224  11227  11230  11233      9     0.00   0.41840   2 ;   C110-   C19-   C18-   C17
 11224  11227  11230  11233      9     0.00   0.41840   4 ;   C110-   C19-   C18-   C17
 11224  11227  11230  11233      9     0.00   0.41840   5 ;   C110-   C19-   C18-   C17
 11224  11227  11230  11233      9     0.00   1.25520   3 ;   C110-   C19-   C18-   C17
 11225  11224  11227  11228      9     0.00   0.62760   3 ;   H10R-  C110-   C19-   H9R
 11225  11224  11227  11229      9     0.00   0.62760   3 ;   H10R-  C110-   C19-   H9S
 11225  11224  11227  11230      9     0.00   0.66944   3 ;   H10R-  C110-   C19-   C18
 11226  11224  11227  11228      9     0.00   0.62760   3 ;   H10S-  C110-   C19-   H9R
 11226  11224  11227  11229      9     0.00   0.62760   3 ;   H10S-  C110-   C19-   H9S
 11226  11224  11227  11230      9     0.00   0.66944   3 ;   H10S-  C110-   C19-   C18
 11227  11230  11233  11234      9     0.00   0.66944   3 ;    C19-   C18-   C17-   H7R
 11227  11230  11233  11235      9     0.00   0.66944   3 ;    C19-   C18-   C17-   H7S
 11227  11230  11233  11236      9     0.00   0.41840   1 ;    C19-   C18-   C17-   C16
 11227  11230  11233  11236      9     0.00   0.41840   2 ;    C19-   C18-   C17-   C16
 11227  11230  11233  11236      9     0.00   0.41840   4 ;    C19-   C18-   C17-   C16
 11227  11230  11233  11236      9     0.00   0.41840   5 ;    C19-   C18-   C17-   C16
 11227  11230  11233  11236      9     0.00   1.25520   3 ;    C19-   C18-   C17-   C16
 11228  11227  11230  11231      9     0.00   0.62760   3 ;    H9R-   C19-   C18-   H8R
 11228  11227  11230  11232      9     0.00   0.62760   3 ;    H9R-   C19-   C18-   H8S
 11228  11227  11230  11233      9     0.00   0.66944   3 ;    H9R-   C19-   C18-   C17
 11229  11227  11230  11231      9     0.00   0.62760   3 ;    H9S-   C19-   C18-   H8R
 11229  11227  11230  11232      9     0.00   0.62760   3 ;    H9S-   C19-   C18-   H8S
 11229  11227  11230  11233      9     0.00   0.66944   3 ;    H9S-   C19-   C18-   C17
 11230  11233  11236  11237      9     0.00   0.66944   3 ;    C18-   C17-   C16-   H6R
 11230  11233  11236  11238      9     0.00   0.66944   3 ;    C18-   C17-   C16-   H6S
 11230  11233  11236  11239      9     0.00   0.41840   1 ;    C18-   C17-   C16-   C15
 11230  11233  11236  11239      9     0.00   0.41840   2 ;    C18-   C17-   C16-   C15
 11230  11233  11236  11239      9     0.00   0.41840   4 ;    C18-   C17-   C16-   C15
 11230  11233  11236  11239      9     0.00   0.41840   5 ;    C18-   C17-   C16-   C15
 11230  11233  11236  11239      9     0.00   1.25520   3 ;    C18-   C17-   C16-   C15
 11231  11230  11233  11234      9     0.00   0.62760   3 ;    H8R-   C18-   C17-   H7R
 11231  11230  11233  11235      9     0.00   0.62760   3 ;    H8R-   C18-   C17-   H7S
 11231  11230  11233  11236      9     0.00   0.66944   3 ;    H8R-   C18-   C17-   C16
 11232  11230  11233  11234      9     0.00   0.62760   3 ;    H8S-   C18-   C17-   H7R
 11232  11230  11233  11235      9     0.00   0.62760   3 ;    H8S-   C18-   C17-   H7S
 11232  11230  11233  11236      9     0.00   0.66944   3 ;    H8S-   C18-   C17-   C16
 11233  11236  11239  11240      9     0.00   0.66944   3 ;    C17-   C16-   C15-   H5R
 11233  11236  11239  11241      9     0.00   0.66944   3 ;    C17-   C16-   C15-   H5S
 11233  11236  11239  11242      9     0.00   0.41840   1 ;    C17-   C16-   C15-   C14
 11233  11236  11239  11242      9     0.00   0.41840   2 ;    C17-   C16-   C15-   C14
 11233  11236  11239  11242      9     0.00   0.41840   4 ;    C17-   C16-   C15-   C14
 11233  11236  11239  11242      9     0.00   0.41840   5 ;    C17-   C16-   C15-   C14
 11233  11236  11239  11242      9     0.00   1.25520   3 ;    C17-   C16-   C15-   C14
 11234  11233  11236  11237      9     0.00   0.62760   3 ;    H7R-   C17-   C16-   H6R
 11234  11233  11236  11238      9     0.00   0.62760   3 ;    H7R-   C17-   C16-   H6S
 11234  11233  11236  11239      9     0.00   0.66944   3 ;    H7R-   C17-   C16-   C15
 11235  11233  11236  11237      9     0.00   0.62760   3 ;    H7S-   C17-   C16-   H6R
 11235  11233  11236  11238      9     0.00   0.62760   3 ;    H7S-   C17-   C16-   H6S
 11235  11233  11236  11239      9     0.00   0.66944   3 ;    H7S-   C17-   C16-   C15
 11236  11239  11242  11243      9     0.00   0.66944   3 ;    C16-   C15-   C14-   H4R
 11236  11239  11242  11244      9     0.00   0.66944   3 ;    C16-   C15-   C14-   H4S
 11236  11239  11242  11245      9     0.00   0.41840   1 ;    C16-   C15-   C14-   C13
 11236  11239  11242  11245      9     0.00   0.41840   2 ;    C16-   C15-   C14-   C13
 11236  11239  11242  11245      9     0.00   0.41840   4 ;    C16-   C15-   C14-   C13
 11236  11239  11242  11245      9     0.00   0.41840   5 ;    C16-   C15-   C14-   C13
 11236  11239  11242  11245      9     0.00   1.25520   3 ;    C16-   C15-   C14-   C13
 11237  11236  11239  11240      9     0.00   0.62760   3 ;    H6R-   C16-   C15-   H5R
 11237  11236  11239  11241      9     0.00   0.62760   3 ;    H6R-   C16-   C15-   H5S
 11237  11236  11239  11242      9     0.00   0.66944   3 ;    H6R-   C16-   C15-   C14
 11238  11236  11239  11240      9     0.00   0.62760   3 ;    H6S-   C16-   C15-   H5R
 11238  11236  11239  11241      9     0.00   0.62760   3 ;    H6S-   C16-   C15-   H5S
 11238  11236  11239  11242      9     0.00   0.66944   3 ;    H6S-   C16-   C15-   C14
 11239  11242  11245  11246      9     0.00   0.66944   3 ;    C15-   C14-   C13-   H3R
 11239  11242  11245  11247      9     0.00   0.66944   3 ;    C15-   C14-   C13-   H3S
 11239  11242  11245  11248      9     0.00   0.41840   1 ;    C15-   C14-   C13-   C12
 11239  11242  11245  11248      9     0.00   0.41840   2 ;    C15-   C14-   C13-   C12
 11239  11242  11245  11248      9     0.00   0.41840   4 ;    C15-   C14-   C13-   C12
 11239  11242  11245  11248      9     0.00   0.41840   5 ;    C15-   C14-   C13-   C12
 11239  11242  11245  11248      9     0.00   1.25520   3 ;    C15-   C14-   C13-   C12
 11240  11239  11242  11243      9     0.00   0.62760   3 ;    H5R-   C15-   C14-   H4R
 11240  11239  11242  11244      9     0.00   0.62760   3 ;    H5R-   C15-   C14-   H4S
 11240  11239  11242  11245      9     0.00   0.66944   3 ;    H5R-   C15-   C14-   C13
 11241  11239  11242  11243      9     0.00   0.62760   3 ;    H5S-   C15-   C14-   H4R
 11241  11239  11242  11244      9     0.00   0.62760   3 ;    H5S-   C15-   C14-   H4S
 11241  11239  11242  11245      9     0.00   0.66944   3 ;    H5S-   C15-   C14-   C13
 11242  11245  11248  11249      9     0.00   0.66944   3 ;    C14-   C13-   C12-   H2R
 11242  11245  11248  11250      9     0.00   0.66944   3 ;    C14-   C13-   C12-   H2S
 11242  11245  11248  11251      9     0.00   0.65270   3 ;    C14-   C13-   C12-   C11
 11243  11242  11245  11246      9     0.00   0.62760   3 ;    H4R-   C14-   C13-   H3R
 11243  11242  11245  11247      9     0.00   0.62760   3 ;    H4R-   C14-   C13-   H3S
 11243  11242  11245  11248      9     0.00   0.66944   3 ;    H4R-   C14-   C13-   C12
 11244  11242  11245  11246      9     0.00   0.62760   3 ;    H4S-   C14-   C13-   H3R
 11244  11242  11245  11247      9     0.00   0.62760   3 ;    H4S-   C14-   C13-   H3S
 11244  11242  11245  11248      9     0.00   0.66944   3 ;    H4S-   C14-   C13-   C12
 11245  11248  11251  11252      9   180.00   0.00000   2 ;    C13-   C12-   C11-   O12
 11245  11248  11251  11253      9   180.00   0.00000   2 ;    C13-   C12-   C11-   O11
 11246  11245  11248  11249      9     0.00   0.62760   3 ;    H3R-   C13-   C12-   H2R
 11246  11245  11248  11250      9     0.00   0.62760   3 ;    H3R-   C13-   C12-   H2S
 11246  11245  11248  11251      9     0.00   0.65270   3 ;    H3R-   C13-   C12-   C11
 11247  11245  11248  11249      9     0.00   0.62760   3 ;    H3S-   C13-   C12-   H2R
 11247  11245  11248  11250      9     0.00   0.62760   3 ;    H3S-   C13-   C12-   H2S
 11247  11245  11248  11251      9     0.00   0.65270   3 ;    H3S-   C13-   C12-   C11
 11248  11251  11253  11254      9   180.00  11.29680   2 ;    C12-   C11-   O11-    C1
 11249  11248  11251  11252      9     0.00   3.34720   1 ;    H2R-   C12-   C11-   O12
 11249  11248  11251  11252      9   180.00   0.33472   3 ;    H2R-   C12-   C11-   O12
 11249  11248  11251  11253      9   180.00   0.00000   2 ;    H2R-   C12-   C11-   O11
 11250  11248  11251  11252      9     0.00   3.34720   1 ;    H2S-   C12-   C11-   O12
 11250  11248  11251  11252      9   180.00   0.33472   3 ;    H2S-   C12-   C11-   O12
 11250  11248  11251  11253      9   180.00   0.00000   2 ;    H2S-   C12-   C11-   O11
 11251  11253  11254  11255      9     0.00   1.60247   3 ;    C11-   O11-    C1-    HR
 11251  11253  11254  11256      9     0.00   1.60247   3 ;    C11-   O11-    C1-    HS
 11251  11253  11254  11257      9     0.00  -0.41840   1 ;    C11-   O11-    C1-    C2
 11252  11251  11253  11254      9   180.00   5.85760   1 ;    O12-   C11-   O11-    C1
 11252  11251  11253  11254      9   180.00  11.29680   2 ;    O12-   C11-   O11-    C1
 11253  11254  11257  11258      9     0.00   0.00000   0 ;    O11-    C1-    C2-    HX
 11253  11254  11257  11258      9     0.00   1.04600   1 ;    O11-    C1-    C2-    HX
 11253  11254  11257  11259      9     0.00   0.00000   0 ;    O11-    C1-    C2-    C3
 11253  11254  11257  11259      9     0.00   0.00000   0 ;    O11-    C1-    C2-    C3
 11253  11254  11257  11259      9     0.00   0.00000   0 ;    O11-    C1-    C2-    C3
 11253  11254  11257  11259      9     0.00   0.00000   0 ;    O11-    C1-    C2-    C3
 11253  11254  11257  11259      9     0.00   0.00000   0 ;    O11-    C1-    C2-    C3
 11253  11254  11257  11286      9     0.00   1.25520   2 ;    O11-    C1-    C2-   O21
 11253  11254  11257  11286      9     0.00   4.18400   3 ;    O11-    C1-    C2-   O21
 11253  11254  11257  11286      9   180.00  -0.41840   1 ;    O11-    C1-    C2-   O21
 11254  11257  11259  11260      9     0.00   0.65270   3 ;     C1-    C2-    C3-    HA
 11254  11257  11259  11261      9     0.00   0.65270   3 ;     C1-    C2-    C3-    HB
 11254  11257  11259  11262      9   180.00   3.34720   1 ;     C1-    C2-    C3-   O31
 11254  11257  11286  11287      9     0.00  -0.41840   1 ;     C1-    C2-   O21-   C21
 11255  11254  11257  11258      9     0.00   0.65270   3 ;     HR-    C1-    C2-    HX
 11255  11254  11257  11259      9     0.00   0.65270   3 ;     HR-    C1-    C2-    C3
 11255  11254  11257  11286      9     0.00   0.00000   0 ;     HR-    C1-    C2-   O21
 11255  11254  11257  11286      9     0.00   1.04600   1 ;     HR-    C1-    C2-   O21
 11256  11254  11257  11258      9     0.00   0.65270   3 ;     HS-    C1-    C2-    HX
 11256  11254  11257  11259      9     0.00   0.65270   3 ;     HS-    C1-    C2-    C3
 11256  11254  11257  11286      9     0.00   0.00000   0 ;     HS-    C1-    C2-   O21
 11256  11254  11257  11286      9     0.00   1.04600   1 ;     HS-    C1-    C2-   O21
 11257  11259  11262  11263      9     0.00   0.00000   0 ;     C2-    C3-   O31-   P31
 11257  11259  11262  11263      9   180.00  -3.34720   2 ;     C2-    C3-   O31-   P31
 11257  11286  11287  11288      9   180.00   5.85760   1 ;     C2-   O21-   C21-   O22
 11257  11286  11287  11288      9   180.00  11.29680   2 ;     C2-   O21-   C21-   O22
 11257  11286  11287  11326      9   180.00  11.29680   2 ;     C2-   O21-   C21-   C12
 11258  11257  11259  11260      9     0.00   0.65270   3 ;     HX-    C2-    C3-    HA
 11258  11257  11259  11261      9     0.00   0.65270   3 ;     HX-    C2-    C3-    HB
 11258  11257  11259  11262      9     0.00   0.00000   0 ;     HX-    C2-    C3-   O31
 11258  11257  11259  11262      9     0.00   1.04600   1 ;     HX-    C2-    C3-   O31
 11258  11257  11286  11287      9     0.00   1.60247   3 ;     HX-    C2-   O21-   C21
 11259  11257  11286  11287      9     0.00  -0.41840   1 ;     C3-    C2-   O21-   C21
 11259  11262  11263  11264      9     0.00   2.51040   3 ;     C3-   O31-   P31-   O32
 11259  11262  11263  11264      9     0.00   9.62320   2 ;     C3-   O31-   P31-   O32
 11259  11262  11263  11284      9     0.00   0.00000   0 ;     C3-   O31-   P31-   O33
 11259  11262  11263  11284      9     0.00   0.00000   0 ;     C3-   O31-   P31-   O33
 11259  11262  11263  11284      9     0.00   0.00000   0 ;     C3-   O31-   P31-   O33
 11259  11262  11263  11284      9     0.00   0.00000   0 ;     C3-   O31-   P31-   O33
 11259  11262  11263  11284      9     0.00   0.83680   2 ;     C3-   O31-   P31-   O33
 11259  11262  11263  11285      9     0.00   0.00000   0 ;     C3-   O31-   P31-   O34
 11259  11262  11263  11285      9     0.00   0.00000   0 ;     C3-   O31-   P31-   O34
 11259  11262  11263  11285      9     0.00   0.00000   0 ;     C3-   O31-   P31-   O34
 11259  11262  11263  11285      9     0.00   0.00000   0 ;     C3-   O31-   P31-   O34
 11259  11262  11263  11285      9     0.00   0.83680   2 ;     C3-   O31-   P31-   O34
 11260  11259  11257  11286      9     0.00   0.00000   0 ;     HA-    C3-    C2-   O21
 11260  11259  11257  11286      9     0.00   1.04600   1 ;     HA-    C3-    C2-   O21
 11260  11259  11262  11263      9     0.00   0.00000   0 ;     HA-    C3-   O31-   P31
 11260  11259  11262  11263      9     0.00   0.00000   0 ;     HA-    C3-   O31-   P31
 11260  11259  11262  11263      9     0.00   0.00000   0 ;     HA-    C3-   O31-   P31
 11260  11259  11262  11263      9     0.00   0.00000   0 ;     HA-    C3-   O31-   P31
 11260  11259  11262  11263      9     0.00   1.60247   3 ;     HA-    C3-   O31-   P31
 11261  11259  11257  11286      9     0.00   0.00000   0 ;     HB-    C3-    C2-   O21
 11261  11259  11257  11286      9     0.00   1.04600   1 ;     HB-    C3-    C2-   O21
 11261  11259  11262  11263      9     0.00   0.00000   0 ;     HB-    C3-   O31-   P31
 11261  11259  11262  11263      9     0.00   0.00000   0 ;     HB-    C3-   O31-   P31
 11261  11259  11262  11263      9     0.00   0.00000   0 ;     HB-    C3-   O31-   P31
 11261  11259  11262  11263      9     0.00   0.00000   0 ;     HB-    C3-   O31-   P31
 11261  11259  11262  11263      9     0.00   1.60247   3 ;     HB-    C3-   O31-   P31
 11262  11259  11257  11286      9     0.00   0.00000   0 ;    O31-    C3-    C2-   O21
 11262  11259  11257  11286      9     0.00   0.00000   0 ;    O31-    C3-    C2-   O21
 11262  11259  11257  11286      9     0.00   0.00000   0 ;    O31-    C3-    C2-   O21
 11262  11259  11257  11286      9     0.00   0.00000   0 ;    O31-    C3-    C2-   O21
 11262  11259  11257  11286      9     0.00   0.00000   0 ;    O31-    C3-    C2-   O21
 11262  11263  11264  11265      9     0.00   2.51040   3 ;    O31-   P31-   O32-   C31
 11262  11263  11264  11265      9     0.00   9.62320   2 ;    O31-   P31-   O32-   C31
 11263  11264  11265  11266      9     0.00   0.00000   0 ;    P31-   O32-   C31-   H1A
 11263  11264  11265  11266      9     0.00   0.00000   0 ;    P31-   O32-   C31-   H1A
 11263  11264  11265  11266      9     0.00   0.00000   0 ;    P31-   O32-   C31-   H1A
 11263  11264  11265  11266      9     0.00   0.00000   0 ;    P31-   O32-   C31-   H1A
 11263  11264  11265  11266      9     0.00   1.60247   3 ;    P31-   O32-   C31-   H1A
 11263  11264  11265  11267      9     0.00   0.00000   0 ;    P31-   O32-   C31-   H1B
 11263  11264  11265  11267      9     0.00   0.00000   0 ;    P31-   O32-   C31-   H1B
 11263  11264  11265  11267      9     0.00   0.00000   0 ;    P31-   O32-   C31-   H1B
 11263  11264  11265  11267      9     0.00   0.00000   0 ;    P31-   O32-   C31-   H1B
 11263  11264  11265  11267      9     0.00   1.60247   3 ;    P31-   O32-   C31-   H1B
 11263  11264  11265  11268      9     0.00   0.00000   0 ;    P31-   O32-   C31-   C32
 11263  11264  11265  11268      9   180.00  -3.34720   2 ;    P31-   O32-   C31-   C32
 11264  11265  11268  11269      9     0.00   0.65270   3 ;    O32-   C31-   C32-   H2A
 11264  11265  11268  11270      9     0.00   0.65270   3 ;    O32-   C31-   C32-   H2B
 11264  11265  11268  11271      9     0.00   4.18400   3 ;    O32-   C31-   C32-   N31
 11265  11264  11263  11284      9     0.00   0.00000   0 ;    C31-   O32-   P31-   O33
 11265  11264  11263  11284      9     0.00   0.00000   0 ;    C31-   O32-   P31-   O33
 11265  11264  11263  11284      9     0.00   0.00000   0 ;    C31-   O32-   P31-   O33
 11265  11264  11263  11284      9     0.00   0.00000   0 ;    C31-   O32-   P31-   O33
 11265  11264  11263  11284      9     0.00   0.83680   2 ;    C31-   O32-   P31-   O33
 11265  11264  11263  11285      9     0.00   0.00000   0 ;    C31-   O32-   P31-   O34
 11265  11264  11263  11285      9     0.00   0.00000   0 ;    C31-   O32-   P31-   O34
 11265  11264  11263  11285      9     0.00   0.00000   0 ;    C31-   O32-   P31-   O34
 11265  11264  11263  11285      9     0.00   0.00000   0 ;    C31-   O32-   P31-   O34
 11265  11264  11263  11285      9     0.00   0.83680   2 ;    C31-   O32-   P31-   O34
 11265  11268  11271  11272      9     0.00   0.65270   3 ;    C31-   C32-   N31-   C33
 11265  11268  11271  11276      9     0.00   0.65270   3 ;    C31-   C32-   N31-   C34
 11265  11268  11271  11280      9     0.00   0.65270   3 ;    C31-   C32-   N31-   C35
 11266  11265  11268  11269      9     0.00   0.65270   3 ;    H1A-   C31-   C32-   H2A
 11266  11265  11268  11270      9     0.00   0.65270   3 ;    H1A-   C31-   C32-   H2B
 11266  11265  11268  11271      9     0.00   0.65270   3 ;    H1A-   C31-   C32-   N31
 11267  11265  11268  11269      9     0.00   0.65270   3 ;    H1B-   C31-   C32-   H2A
 11267  11265  11268  11270      9     0.00   0.65270   3 ;    H1B-   C31-   C32-   H2B
 11267  11265  11268  11271      9     0.00   0.65270   3 ;    H1B-   C31-   C32-   N31
 11268  11271  11272  11273      9     0.00   0.65270   3 ;    C32-   N31-   C33-   H3A
 11268  11271  11272  11274      9     0.00   0.65270   3 ;    C32-   N31-   C33-   H3B
 11268  11271  11272  11275      9     0.00   0.65270   3 ;    C32-   N31-   C33-   H3C
 11268  11271  11276  11277      9     0.00   0.65270   3 ;    C32-   N31-   C34-   H4A
 11268  11271  11276  11278      9     0.00   0.65270   3 ;    C32-   N31-   C34-   H4B
 11268  11271  11276  11279      9     0.00   0.65270   3 ;    C32-   N31-   C34-   H4C
 11268  11271  11280  11281      9     0.00   0.65270   3 ;    C32-   N31-   C35-   H5A
 11268  11271  11280  11282      9     0.00   0.65270   3 ;    C32-   N31-   C35-   H5B
 11268  11271  11280  11283      9     0.00   0.65270   3 ;    C32-   N31-   C35-   H5C
 11269  11268  11271  11272      9     0.00   0.65270   3 ;    H2A-   C32-   N31-   C33
 11269  11268  11271  11276      9     0.00   0.65270   3 ;    H2A-   C32-   N31-   C34
 11269  11268  11271  11280      9     0.00   0.65270   3 ;    H2A-   C32-   N31-   C35
 11270  11268  11271  11272      9     0.00   0.65270   3 ;    H2B-   C32-   N31-   C33
 11270  11268  11271  11276      9     0.00   0.65270   3 ;    H2B-   C32-   N31-   C34
 11270  11268  11271  11280      9     0.00   0.65270   3 ;    H2B-   C32-   N31-   C35
 11272  11271  11276  11277      9     0.00   0.65270   3 ;    C33-   N31-   C34-   H4A
 11272  11271  11276  11278      9     0.00   0.65270   3 ;    C33-   N31-   C34-   H4B
 11272  11271  11276  11279      9     0.00   0.65270   3 ;    C33-   N31-   C34-   H4C
 11272  11271  11280  11281      9     0.00   0.65270   3 ;    C33-   N31-   C35-   H5A
 11272  11271  11280  11282      9     0.00   0.65270   3 ;    C33-   N31-   C35-   H5B
 11272  11271  11280  11283      9     0.00   0.65270   3 ;    C33-   N31-   C35-   H5C
 11273  11272  11271  11276      9     0.00   0.65270   3 ;    H3A-   C33-   N31-   C34
 11273  11272  11271  11280      9     0.00   0.65270   3 ;    H3A-   C33-   N31-   C35
 11274  11272  11271  11276      9     0.00   0.65270   3 ;    H3B-   C33-   N31-   C34
 11274  11272  11271  11280      9     0.00   0.65270   3 ;    H3B-   C33-   N31-   C35
 11275  11272  11271  11276      9     0.00   0.65270   3 ;    H3C-   C33-   N31-   C34
 11275  11272  11271  11280      9     0.00   0.65270   3 ;    H3C-   C33-   N31-   C35
 11276  11271  11280  11281      9     0.00   0.65270   3 ;    C34-   N31-   C35-   H5A
 11276  11271  11280  11282      9     0.00   0.65270   3 ;    C34-   N31-   C35-   H5B
 11276  11271  11280  11283      9     0.00   0.65270   3 ;    C34-   N31-   C35-   H5C
 11277  11276  11271  11280      9     0.00   0.65270   3 ;    H4A-   C34-   N31-   C35
 11278  11276  11271  11280      9     0.00   0.65270   3 ;    H4B-   C34-   N31-   C35
 11279  11276  11271  11280      9     0.00   0.65270   3 ;    H4C-   C34-   N31-   C35
 11286  11287  11326  11323      9   180.00   0.00000   2 ;    O21-   C21-   C12-   C13
 11286  11287  11326  11327      9   180.00   0.00000   2 ;    O21-   C21-   C12-   H2R
 11286  11287  11326  11328      9   180.00   0.00000   2 ;    O21-   C21-   C12-   H2S
 11287  11326  11323  11320      9     0.00   0.65270   3 ;    C21-   C12-   C13-   C14
 11287  11326  11323  11324      9     0.00   0.65270   3 ;    C21-   C12-   C13-   H3R
 11287  11326  11323  11325      9     0.00   0.65270   3 ;    C21-   C12-   C13-   H3S
 11288  11287  11326  11323      9   180.00   0.00000   2 ;    O22-   C21-   C12-   C13
 11288  11287  11326  11327      9     0.00   3.34720   1 ;    O22-   C21-   C12-   H2R
 11288  11287  11326  11327      9   180.00   0.33472   3 ;    O22-   C21-   C12-   H2R
 11288  11287  11326  11328      9     0.00   3.34720   1 ;    O22-   C21-   C12-   H2S
 11288  11287  11326  11328      9   180.00   0.33472   3 ;    O22-   C21-   C12-   H2S
 11289  11290  11293  11294      9     0.00   0.62760   3 ;   H14T-  C114-  C113-  H13R
 11289  11290  11293  11295      9     0.00   0.62760   3 ;   H14T-  C114-  C113-  H13S
 11289  11290  11293  11296      9     0.00   0.66944   3 ;   H14T-  C114-  C113-  C112
 11290  11293  11296  11297      9     0.00   0.66944   3 ;   C114-  C113-  C112-  H12R
 11290  11293  11296  11298      9     0.00   0.66944   3 ;   C114-  C113-  C112-  H12S
 11290  11293  11296  11299      9     0.00   0.41840   1 ;   C114-  C113-  C112-  C111
 11290  11293  11296  11299      9     0.00   0.41840   2 ;   C114-  C113-  C112-  C111
 11290  11293  11296  11299      9     0.00   0.41840   4 ;   C114-  C113-  C112-  C111
 11290  11293  11296  11299      9     0.00   0.41840   5 ;   C114-  C113-  C112-  C111
 11290  11293  11296  11299      9     0.00   1.25520   3 ;   C114-  C113-  C112-  C111
 11291  11290  11293  11294      9     0.00   0.62760   3 ;   H14R-  C114-  C113-  H13R
 11291  11290  11293  11295      9     0.00   0.62760   3 ;   H14R-  C114-  C113-  H13S
 11291  11290  11293  11296      9     0.00   0.66944   3 ;   H14R-  C114-  C113-  C112
 11292  11290  11293  11294      9     0.00   0.62760   3 ;   H14S-  C114-  C113-  H13R
 11292  11290  11293  11295      9     0.00   0.62760   3 ;   H14S-  C114-  C113-  H13S
 11292  11290  11293  11296      9     0.00   0.66944   3 ;   H14S-  C114-  C113-  C112
 11293  11296  11299  11300      9     0.00   0.66944   3 ;   C113-  C112-  C111-  H11R
 11293  11296  11299  11301      9     0.00   0.66944   3 ;   C113-  C112-  C111-  H11S
 11293  11296  11299  11302      9     0.00   0.41840   1 ;   C113-  C112-  C111-  C110
 11293  11296  11299  11302      9     0.00   0.41840   2 ;   C113-  C112-  C111-  C110
 11293  11296  11299  11302      9     0.00   0.41840   4 ;   C113-  C112-  C111-  C110
 11293  11296  11299  11302      9     0.00   0.41840   5 ;   C113-  C112-  C111-  C110
 11293  11296  11299  11302      9     0.00   1.25520   3 ;   C113-  C112-  C111-  C110
 11294  11293  11296  11297      9     0.00   0.62760   3 ;   H13R-  C113-  C112-  H12R
 11294  11293  11296  11298      9     0.00   0.62760   3 ;   H13R-  C113-  C112-  H12S
 11294  11293  11296  11299      9     0.00   0.66944   3 ;   H13R-  C113-  C112-  C111
 11295  11293  11296  11297      9     0.00   0.62760   3 ;   H13S-  C113-  C112-  H12R
 11295  11293  11296  11298      9     0.00   0.62760   3 ;   H13S-  C113-  C112-  H12S
 11295  11293  11296  11299      9     0.00   0.66944   3 ;   H13S-  C113-  C112-  C111
 11296  11299  11302  11303      9     0.00   0.66944   3 ;   C112-  C111-  C110-  H10R
 11296  11299  11302  11304      9     0.00   0.66944   3 ;   C112-  C111-  C110-  H10S
 11296  11299  11302  11305      9     0.00   0.41840   1 ;   C112-  C111-  C110-   C19
 11296  11299  11302  11305      9     0.00   0.41840   2 ;   C112-  C111-  C110-   C19
 11296  11299  11302  11305      9     0.00   0.41840   4 ;   C112-  C111-  C110-   C19
 11296  11299  11302  11305      9     0.00   0.41840   5 ;   C112-  C111-  C110-   C19
 11296  11299  11302  11305      9     0.00   1.25520   3 ;   C112-  C111-  C110-   C19
 11297  11296  11299  11300      9     0.00   0.62760   3 ;   H12R-  C112-  C111-  H11R
 11297  11296  11299  11301      9     0.00   0.62760   3 ;   H12R-  C112-  C111-  H11S
 11297  11296  11299  11302      9     0.00   0.66944   3 ;   H12R-  C112-  C111-  C110
 11298  11296  11299  11300      9     0.00   0.62760   3 ;   H12S-  C112-  C111-  H11R
 11298  11296  11299  11301      9     0.00   0.62760   3 ;   H12S-  C112-  C111-  H11S
 11298  11296  11299  11302      9     0.00   0.66944   3 ;   H12S-  C112-  C111-  C110
 11299  11302  11305  11306      9     0.00   0.66944   3 ;   C111-  C110-   C19-   H9R
 11299  11302  11305  11307      9     0.00   0.66944   3 ;   C111-  C110-   C19-   H9S
 11299  11302  11305  11308      9     0.00   0.41840   1 ;   C111-  C110-   C19-   C18
 11299  11302  11305  11308      9     0.00   0.41840   2 ;   C111-  C110-   C19-   C18
 11299  11302  11305  11308      9     0.00   0.41840   4 ;   C111-  C110-   C19-   C18
 11299  11302  11305  11308      9     0.00   0.41840   5 ;   C111-  C110-   C19-   C18
 11299  11302  11305  11308      9     0.00   1.25520   3 ;   C111-  C110-   C19-   C18
 11300  11299  11302  11303      9     0.00   0.62760   3 ;   H11R-  C111-  C110-  H10R
 11300  11299  11302  11304      9     0.00   0.62760   3 ;   H11R-  C111-  C110-  H10S
 11300  11299  11302  11305      9     0.00   0.66944   3 ;   H11R-  C111-  C110-   C19
 11301  11299  11302  11303      9     0.00   0.62760   3 ;   H11S-  C111-  C110-  H10R
 11301  11299  11302  11304      9     0.00   0.62760   3 ;   H11S-  C111-  C110-  H10S
 11301  11299  11302  11305      9     0.00   0.66944   3 ;   H11S-  C111-  C110-   C19
 11302  11305  11308  11309      9     0.00   0.66944   3 ;   C110-   C19-   C18-   H8R
 11302  11305  11308  11310      9     0.00   0.66944   3 ;   C110-   C19-   C18-   H8S
 11302  11305  11308  11311      9     0.00   0.41840   1 ;   C110-   C19-   C18-   C17
 11302  11305  11308  11311      9     0.00   0.41840   2 ;   C110-   C19-   C18-   C17
 11302  11305  11308  11311      9     0.00   0.41840   4 ;   C110-   C19-   C18-   C17
 11302  11305  11308  11311      9     0.00   0.41840   5 ;   C110-   C19-   C18-   C17
 11302  11305  11308  11311      9     0.00   1.25520   3 ;   C110-   C19-   C18-   C17
 11303  11302  11305  11306      9     0.00   0.62760   3 ;   H10R-  C110-   C19-   H9R
 11303  11302  11305  11307      9     0.00   0.62760   3 ;   H10R-  C110-   C19-   H9S
 11303  11302  11305  11308      9     0.00   0.66944   3 ;   H10R-  C110-   C19-   C18
 11304  11302  11305  11306      9     0.00   0.62760   3 ;   H10S-  C110-   C19-   H9R
 11304  11302  11305  11307      9     0.00   0.62760   3 ;   H10S-  C110-   C19-   H9S
 11304  11302  11305  11308      9     0.00   0.66944   3 ;   H10S-  C110-   C19-   C18
 11305  11308  11311  11312      9     0.00   0.66944   3 ;    C19-   C18-   C17-   H7R
 11305  11308  11311  11313      9     0.00   0.66944   3 ;    C19-   C18-   C17-   H7S
 11305  11308  11311  11314      9     0.00   0.41840   1 ;    C19-   C18-   C17-   C16
 11305  11308  11311  11314      9     0.00   0.41840   2 ;    C19-   C18-   C17-   C16
 11305  11308  11311  11314      9     0.00   0.41840   4 ;    C19-   C18-   C17-   C16
 11305  11308  11311  11314      9     0.00   0.41840   5 ;    C19-   C18-   C17-   C16
 11305  11308  11311  11314      9     0.00   1.25520   3 ;    C19-   C18-   C17-   C16
 11306  11305  11308  11309      9     0.00   0.62760   3 ;    H9R-   C19-   C18-   H8R
 11306  11305  11308  11310      9     0.00   0.62760   3 ;    H9R-   C19-   C18-   H8S
 11306  11305  11308  11311      9     0.00   0.66944   3 ;    H9R-   C19-   C18-   C17
 11307  11305  11308  11309      9     0.00   0.62760   3 ;    H9S-   C19-   C18-   H8R
 11307  11305  11308  11310      9     0.00   0.62760   3 ;    H9S-   C19-   C18-   H8S
 11307  11305  11308  11311      9     0.00   0.66944   3 ;    H9S-   C19-   C18-   C17
 11308  11311  11314  11315      9     0.00   0.66944   3 ;    C18-   C17-   C16-   H6R
 11308  11311  11314  11316      9     0.00   0.66944   3 ;    C18-   C17-   C16-   H6S
 11308  11311  11314  11317      9     0.00   0.41840   1 ;    C18-   C17-   C16-   C15
 11308  11311  11314  11317      9     0.00   0.41840   2 ;    C18-   C17-   C16-   C15
 11308  11311  11314  11317      9     0.00   0.41840   4 ;    C18-   C17-   C16-   C15
 11308  11311  11314  11317      9     0.00   0.41840   5 ;    C18-   C17-   C16-   C15
 11308  11311  11314  11317      9     0.00   1.25520   3 ;    C18-   C17-   C16-   C15
 11309  11308  11311  11312      9     0.00   0.62760   3 ;    H8R-   C18-   C17-   H7R
 11309  11308  11311  11313      9     0.00   0.62760   3 ;    H8R-   C18-   C17-   H7S
 11309  11308  11311  11314      9     0.00   0.66944   3 ;    H8R-   C18-   C17-   C16
 11310  11308  11311  11312      9     0.00   0.62760   3 ;    H8S-   C18-   C17-   H7R
 11310  11308  11311  11313      9     0.00   0.62760   3 ;    H8S-   C18-   C17-   H7S
 11310  11308  11311  11314      9     0.00   0.66944   3 ;    H8S-   C18-   C17-   C16
 11311  11314  11317  11318      9     0.00   0.66944   3 ;    C17-   C16-   C15-   H5R
 11311  11314  11317  11319      9     0.00   0.66944   3 ;    C17-   C16-   C15-   H5S
 11311  11314  11317  11320      9     0.00   0.41840   1 ;    C17-   C16-   C15-   C14
 11311  11314  11317  11320      9     0.00   0.41840   2 ;    C17-   C16-   C15-   C14
 11311  11314  11317  11320      9     0.00   0.41840   4 ;    C17-   C16-   C15-   C14
 11311  11314  11317  11320      9     0.00   0.41840   5 ;    C17-   C16-   C15-   C14
 11311  11314  11317  11320      9     0.00   1.25520   3 ;    C17-   C16-   C15-   C14
 11312  11311  11314  11315      9     0.00   0.62760   3 ;    H7R-   C17-   C16-   H6R
 11312  11311  11314  11316      9     0.00   0.62760   3 ;    H7R-   C17-   C16-   H6S
 11312  11311  11314  11317      9     0.00   0.66944   3 ;    H7R-   C17-   C16-   C15
 11313  11311  11314  11315      9     0.00   0.62760   3 ;    H7S-   C17-   C16-   H6R
 11313  11311  11314  11316      9     0.00   0.62760   3 ;    H7S-   C17-   C16-   H6S
 11313  11311  11314  11317      9     0.00   0.66944   3 ;    H7S-   C17-   C16-   C15
 11314  11317  11320  11321      9     0.00   0.66944   3 ;    C16-   C15-   C14-   H4R
 11314  11317  11320  11322      9     0.00   0.66944   3 ;    C16-   C15-   C14-   H4S
 11314  11317  11320  11323      9     0.00   0.41840   1 ;    C16-   C15-   C14-   C13
 11314  11317  11320  11323      9     0.00   0.41840   2 ;    C16-   C15-   C14-   C13
 11314  11317  11320  11323      9     0.00   0.41840   4 ;    C16-   C15-   C14-   C13
 11314  11317  11320  11323      9     0.00   0.41840   5 ;    C16-   C15-   C14-   C13
 11314  11317  11320  11323      9     0.00   1.25520   3 ;    C16-   C15-   C14-   C13
 11315  11314  11317  11318      9     0.00   0.62760   3 ;    H6R-   C16-   C15-   H5R
 11315  11314  11317  11319      9     0.00   0.62760   3 ;    H6R-   C16-   C15-   H5S
 11315  11314  11317  11320      9     0.00   0.66944   3 ;    H6R-   C16-   C15-   C14
 11316  11314  11317  11318      9     0.00   0.62760   3 ;    H6S-   C16-   C15-   H5R
 11316  11314  11317  11319      9     0.00   0.62760   3 ;    H6S-   C16-   C15-   H5S
 11316  11314  11317  11320      9     0.00   0.66944   3 ;    H6S-   C16-   C15-   C14
 11317  11320  11323  11324      9     0.00   0.66944   3 ;    C15-   C14-   C13-   H3R
 11317  11320  11323  11325      9     0.00   0.66944   3 ;    C15-   C14-   C13-   H3S
 11317  11320  11323  11326      9     0.00   0.41840   1 ;    C15-   C14-   C13-   C12
 11317  11320  11323  11326      9     0.00   0.41840   2 ;    C15-   C14-   C13-   C12
 11317  11320  11323  11326      9     0.00   0.41840   4 ;    C15-   C14-   C13-   C12
 11317  11320  11323  11326      9     0.00   0.41840   5 ;    C15-   C14-   C13-   C12
 11317  11320  11323  11326      9     0.00   1.25520   3 ;    C15-   C14-   C13-   C12
 11318  11317  11320  11321      9     0.00   0.62760   3 ;    H5R-   C15-   C14-   H4R
 11318  11317  11320  11322      9     0.00   0.62760   3 ;    H5R-   C15-   C14-   H4S
 11318  11317  11320  11323      9     0.00   0.66944   3 ;    H5R-   C15-   C14-   C13
 11319  11317  11320  11321      9     0.00   0.62760   3 ;    H5S-   C15-   C14-   H4R
 11319  11317  11320  11322      9     0.00   0.62760   3 ;    H5S-   C15-   C14-   H4S
 11319  11317  11320  11323      9     0.00   0.66944   3 ;    H5S-   C15-   C14-   C13
 11320  11323  11326  11327      9     0.00   0.66944   3 ;    C14-   C13-   C12-   H2R
 11320  11323  11326  11328      9     0.00   0.66944   3 ;    C14-   C13-   C12-   H2S
 11321  11320  11323  11324      9     0.00   0.62760   3 ;    H4R-   C14-   C13-   H3R
 11321  11320  11323  11325      9     0.00   0.62760   3 ;    H4R-   C14-   C13-   H3S
 11321  11320  11323  11326      9     0.00   0.66944   3 ;    H4R-   C14-   C13-   C12
 11322  11320  11323  11324      9     0.00   0.62760   3 ;    H4S-   C14-   C13-   H3R
 11322  11320  11323  11325      9     0.00   0.62760   3 ;    H4S-   C14-   C13-   H3S
 11322  11320  11323  11326      9     0.00   0.66944   3 ;    H4S-   C14-   C13-   C12
 11324  11323  11326  11327      9     0.00   0.62760   3 ;    H3R-   C13-   C12-   H2R
 11324  11323  11326  11328      9     0.00   0.62760   3 ;    H3R-   C13-   C12-   H2S
 11325  11323  11326  11327      9     0.00   0.62760   3 ;    H3S-   C13-   C12-   H2R
 11325  11323  11326  11328      9     0.00   0.62760   3 ;    H3S-   C13-   C12-   H2S
 11329  11330  11333  11334      9     0.00   0.62760   3 ;   H14T-  C114-  C113-  H13R
 11329  11330  11333  11335      9     0.00   0.62760   3 ;   H14T-  C114-  C113-  H13S
 11329  11330  11333  11336      9     0.00   0.66944   3 ;   H14T-  C114-  C113-  C112
 11330  11333  11336  11337      9     0.00   0.66944   3 ;   C114-  C113-  C112-  H12R
 11330  11333  11336  11338      9     0.00   0.66944   3 ;   C114-  C113-  C112-  H12S
 11330  11333  11336  11339      9     0.00   0.41840   1 ;   C114-  C113-  C112-  C111
 11330  11333  11336  11339      9     0.00   0.41840   2 ;   C114-  C113-  C112-  C111
 11330  11333  11336  11339      9     0.00   0.41840   4 ;   C114-  C113-  C112-  C111
 11330  11333  11336  11339      9     0.00   0.41840   5 ;   C114-  C113-  C112-  C111
 11330  11333  11336  11339      9     0.00   1.25520   3 ;   C114-  C113-  C112-  C111
 11331  11330  11333  11334      9     0.00   0.62760   3 ;   H14R-  C114-  C113-  H13R
 11331  11330  11333  11335      9     0.00   0.62760   3 ;   H14R-  C114-  C113-  H13S
 11331  11330  11333  11336      9     0.00   0.66944   3 ;   H14R-  C114-  C113-  C112
 11332  11330  11333  11334      9     0.00   0.62760   3 ;   H14S-  C114-  C113-  H13R
 11332  11330  11333  11335      9     0.00   0.62760   3 ;   H14S-  C114-  C113-  H13S
 11332  11330  11333  11336      9     0.00   0.66944   3 ;   H14S-  C114-  C113-  C112
 11333  11336  11339  11340      9     0.00   0.66944   3 ;   C113-  C112-  C111-  H11R
 11333  11336  11339  11341      9     0.00   0.66944   3 ;   C113-  C112-  C111-  H11S
 11333  11336  11339  11342      9     0.00   0.41840   1 ;   C113-  C112-  C111-  C110
 11333  11336  11339  11342      9     0.00   0.41840   2 ;   C113-  C112-  C111-  C110
 11333  11336  11339  11342      9     0.00   0.41840   4 ;   C113-  C112-  C111-  C110
 11333  11336  11339  11342      9     0.00   0.41840   5 ;   C113-  C112-  C111-  C110
 11333  11336  11339  11342      9     0.00   1.25520   3 ;   C113-  C112-  C111-  C110
 11334  11333  11336  11337      9     0.00   0.62760   3 ;   H13R-  C113-  C112-  H12R
 11334  11333  11336  11338      9     0.00   0.62760   3 ;   H13R-  C113-  C112-  H12S
 11334  11333  11336  11339      9     0.00   0.66944   3 ;   H13R-  C113-  C112-  C111
 11335  11333  11336  11337      9     0.00   0.62760   3 ;   H13S-  C113-  C112-  H12R
 11335  11333  11336  11338      9     0.00   0.62760   3 ;   H13S-  C113-  C112-  H12S
 11335  11333  11336  11339      9     0.00   0.66944   3 ;   H13S-  C113-  C112-  C111
 11336  11339  11342  11343      9     0.00   0.66944   3 ;   C112-  C111-  C110-  H10R
 11336  11339  11342  11344      9     0.00   0.66944   3 ;   C112-  C111-  C110-  H10S
 11336  11339  11342  11345      9     0.00   0.41840   1 ;   C112-  C111-  C110-   C19
 11336  11339  11342  11345      9     0.00   0.41840   2 ;   C112-  C111-  C110-   C19
 11336  11339  11342  11345      9     0.00   0.41840   4 ;   C112-  C111-  C110-   C19
 11336  11339  11342  11345      9     0.00   0.41840   5 ;   C112-  C111-  C110-   C19
 11336  11339  11342  11345      9     0.00   1.25520   3 ;   C112-  C111-  C110-   C19
 11337  11336  11339  11340      9     0.00   0.62760   3 ;   H12R-  C112-  C111-  H11R
 11337  11336  11339  11341      9     0.00   0.62760   3 ;   H12R-  C112-  C111-  H11S
 11337  11336  11339  11342      9     0.00   0.66944   3 ;   H12R-  C112-  C111-  C110
 11338  11336  11339  11340      9     0.00   0.62760   3 ;   H12S-  C112-  C111-  H11R
 11338  11336  11339  11341      9     0.00   0.62760   3 ;   H12S-  C112-  C111-  H11S
 11338  11336  11339  11342      9     0.00   0.66944   3 ;   H12S-  C112-  C111-  C110
 11339  11342  11345  11346      9     0.00   0.66944   3 ;   C111-  C110-   C19-   H9R
 11339  11342  11345  11347      9     0.00   0.66944   3 ;   C111-  C110-   C19-   H9S
 11339  11342  11345  11348      9     0.00   0.41840   1 ;   C111-  C110-   C19-   C18
 11339  11342  11345  11348      9     0.00   0.41840   2 ;   C111-  C110-   C19-   C18
 11339  11342  11345  11348      9     0.00   0.41840   4 ;   C111-  C110-   C19-   C18
 11339  11342  11345  11348      9     0.00   0.41840   5 ;   C111-  C110-   C19-   C18
 11339  11342  11345  11348      9     0.00   1.25520   3 ;   C111-  C110-   C19-   C18
 11340  11339  11342  11343      9     0.00   0.62760   3 ;   H11R-  C111-  C110-  H10R
 11340  11339  11342  11344      9     0.00   0.62760   3 ;   H11R-  C111-  C110-  H10S
 11340  11339  11342  11345      9     0.00   0.66944   3 ;   H11R-  C111-  C110-   C19
 11341  11339  11342  11343      9     0.00   0.62760   3 ;   H11S-  C111-  C110-  H10R
 11341  11339  11342  11344      9     0.00   0.62760   3 ;   H11S-  C111-  C110-  H10S
 11341  11339  11342  11345      9     0.00   0.66944   3 ;   H11S-  C111-  C110-   C19
 11342  11345  11348  11349      9     0.00   0.66944   3 ;   C110-   C19-   C18-   H8R
 11342  11345  11348  11350      9     0.00   0.66944   3 ;   C110-   C19-   C18-   H8S
 11342  11345  11348  11351      9     0.00   0.41840   1 ;   C110-   C19-   C18-   C17
 11342  11345  11348  11351      9     0.00   0.41840   2 ;   C110-   C19-   C18-   C17
 11342  11345  11348  11351      9     0.00   0.41840   4 ;   C110-   C19-   C18-   C17
 11342  11345  11348  11351      9     0.00   0.41840   5 ;   C110-   C19-   C18-   C17
 11342  11345  11348  11351      9     0.00   1.25520   3 ;   C110-   C19-   C18-   C17
 11343  11342  11345  11346      9     0.00   0.62760   3 ;   H10R-  C110-   C19-   H9R
 11343  11342  11345  11347      9     0.00   0.62760   3 ;   H10R-  C110-   C19-   H9S
 11343  11342  11345  11348      9     0.00   0.66944   3 ;   H10R-  C110-   C19-   C18
 11344  11342  11345  11346      9     0.00   0.62760   3 ;   H10S-  C110-   C19-   H9R
 11344  11342  11345  11347      9     0.00   0.62760   3 ;   H10S-  C110-   C19-   H9S
 11344  11342  11345  11348      9     0.00   0.66944   3 ;   H10S-  C110-   C19-   C18
 11345  11348  11351  11352      9     0.00   0.66944   3 ;    C19-   C18-   C17-   H7R
 11345  11348  11351  11353      9     0.00   0.66944   3 ;    C19-   C18-   C17-   H7S
 11345  11348  11351  11354      9     0.00   0.41840   1 ;    C19-   C18-   C17-   C16
 11345  11348  11351  11354      9     0.00   0.41840   2 ;    C19-   C18-   C17-   C16
 11345  11348  11351  11354      9     0.00   0.41840   4 ;    C19-   C18-   C17-   C16
 11345  11348  11351  11354      9     0.00   0.41840   5 ;    C19-   C18-   C17-   C16
 11345  11348  11351  11354      9     0.00   1.25520   3 ;    C19-   C18-   C17-   C16
 11346  11345  11348  11349      9     0.00   0.62760   3 ;    H9R-   C19-   C18-   H8R
 11346  11345  11348  11350      9     0.00   0.62760   3 ;    H9R-   C19-   C18-   H8S
 11346  11345  11348  11351      9     0.00   0.66944   3 ;    H9R-   C19-   C18-   C17
 11347  11345  11348  11349      9     0.00   0.62760   3 ;    H9S-   C19-   C18-   H8R
 11347  11345  11348  11350      9     0.00   0.62760   3 ;    H9S-   C19-   C18-   H8S
 11347  11345  11348  11351      9     0.00   0.66944   3 ;    H9S-   C19-   C18-   C17
 11348  11351  11354  11355      9     0.00   0.66944   3 ;    C18-   C17-   C16-   H6R
 11348  11351  11354  11356      9     0.00   0.66944   3 ;    C18-   C17-   C16-   H6S
 11348  11351  11354  11357      9     0.00   0.41840   1 ;    C18-   C17-   C16-   C15
 11348  11351  11354  11357      9     0.00   0.41840   2 ;    C18-   C17-   C16-   C15
 11348  11351  11354  11357      9     0.00   0.41840   4 ;    C18-   C17-   C16-   C15
 11348  11351  11354  11357      9     0.00   0.41840   5 ;    C18-   C17-   C16-   C15
 11348  11351  11354  11357      9     0.00   1.25520   3 ;    C18-   C17-   C16-   C15
 11349  11348  11351  11352      9     0.00   0.62760   3 ;    H8R-   C18-   C17-   H7R
 11349  11348  11351  11353      9     0.00   0.62760   3 ;    H8R-   C18-   C17-   H7S
 11349  11348  11351  11354      9     0.00   0.66944   3 ;    H8R-   C18-   C17-   C16
 11350  11348  11351  11352      9     0.00   0.62760   3 ;    H8S-   C18-   C17-   H7R
 11350  11348  11351  11353      9     0.00   0.62760   3 ;    H8S-   C18-   C17-   H7S
 11350  11348  11351  11354      9     0.00   0.66944   3 ;    H8S-   C18-   C17-   C16
 11351  11354  11357  11358      9     0.00   0.66944   3 ;    C17-   C16-   C15-   H5R
 11351  11354  11357  11359      9     0.00   0.66944   3 ;    C17-   C16-   C15-   H5S
 11351  11354  11357  11360      9     0.00   0.41840   1 ;    C17-   C16-   C15-   C14
 11351  11354  11357  11360      9     0.00   0.41840   2 ;    C17-   C16-   C15-   C14
 11351  11354  11357  11360      9     0.00   0.41840   4 ;    C17-   C16-   C15-   C14
 11351  11354  11357  11360      9     0.00   0.41840   5 ;    C17-   C16-   C15-   C14
 11351  11354  11357  11360      9     0.00   1.25520   3 ;    C17-   C16-   C15-   C14
 11352  11351  11354  11355      9     0.00   0.62760   3 ;    H7R-   C17-   C16-   H6R
 11352  11351  11354  11356      9     0.00   0.62760   3 ;    H7R-   C17-   C16-   H6S
 11352  11351  11354  11357      9     0.00   0.66944   3 ;    H7R-   C17-   C16-   C15
 11353  11351  11354  11355      9     0.00   0.62760   3 ;    H7S-   C17-   C16-   H6R
 11353  11351  11354  11356      9     0.00   0.62760   3 ;    H7S-   C17-   C16-   H6S
 11353  11351  11354  11357      9     0.00   0.66944   3 ;    H7S-   C17-   C16-   C15
 11354  11357  11360  11361      9     0.00   0.66944   3 ;    C16-   C15-   C14-   H4R
 11354  11357  11360  11362      9     0.00   0.66944   3 ;    C16-   C15-   C14-   H4S
 11354  11357  11360  11363      9     0.00   0.41840   1 ;    C16-   C15-   C14-   C13
 11354  11357  11360  11363      9     0.00   0.41840   2 ;    C16-   C15-   C14-   C13
 11354  11357  11360  11363      9     0.00   0.41840   4 ;    C16-   C15-   C14-   C13
 11354  11357  11360  11363      9     0.00   0.41840   5 ;    C16-   C15-   C14-   C13
 11354  11357  11360  11363      9     0.00   1.25520   3 ;    C16-   C15-   C14-   C13
 11355  11354  11357  11358      9     0.00   0.62760   3 ;    H6R-   C16-   C15-   H5R
 11355  11354  11357  11359      9     0.00   0.62760   3 ;    H6R-   C16-   C15-   H5S
 11355  11354  11357  11360      9     0.00   0.66944   3 ;    H6R-   C16-   C15-   C14
 11356  11354  11357  11358      9     0.00   0.62760   3 ;    H6S-   C16-   C15-   H5R
 11356  11354  11357  11359      9     0.00   0.62760   3 ;    H6S-   C16-   C15-   H5S
 11356  11354  11357  11360      9     0.00   0.66944   3 ;    H6S-   C16-   C15-   C14
 11357  11360  11363  11364      9     0.00   0.66944   3 ;    C15-   C14-   C13-   H3R
 11357  11360  11363  11365      9     0.00   0.66944   3 ;    C15-   C14-   C13-   H3S
 11357  11360  11363  11366      9     0.00   0.41840   1 ;    C15-   C14-   C13-   C12
 11357  11360  11363  11366      9     0.00   0.41840   2 ;    C15-   C14-   C13-   C12
 11357  11360  11363  11366      9     0.00   0.41840   4 ;    C15-   C14-   C13-   C12
 11357  11360  11363  11366      9     0.00   0.41840   5 ;    C15-   C14-   C13-   C12
 11357  11360  11363  11366      9     0.00   1.25520   3 ;    C15-   C14-   C13-   C12
 11358  11357  11360  11361      9     0.00   0.62760   3 ;    H5R-   C15-   C14-   H4R
 11358  11357  11360  11362      9     0.00   0.62760   3 ;    H5R-   C15-   C14-   H4S
 11358  11357  11360  11363      9     0.00   0.66944   3 ;    H5R-   C15-   C14-   C13
 11359  11357  11360  11361      9     0.00   0.62760   3 ;    H5S-   C15-   C14-   H4R
 11359  11357  11360  11362      9     0.00   0.62760   3 ;    H5S-   C15-   C14-   H4S
 11359  11357  11360  11363      9     0.00   0.66944   3 ;    H5S-   C15-   C14-   C13
 11360  11363  11366  11367      9     0.00   0.66944   3 ;    C14-   C13-   C12-   H2R
 11360  11363  11366  11368      9     0.00   0.66944   3 ;    C14-   C13-   C12-   H2S
 11360  11363  11366  11369      9     0.00   0.65270   3 ;    C14-   C13-   C12-   C11
 11361  11360  11363  11364      9     0.00   0.62760   3 ;    H4R-   C14-   C13-   H3R
 11361  11360  11363  11365      9     0.00   0.62760   3 ;    H4R-   C14-   C13-   H3S
 11361  11360  11363  11366      9     0.00   0.66944   3 ;    H4R-   C14-   C13-   C12
 11362  11360  11363  11364      9     0.00   0.62760   3 ;    H4S-   C14-   C13-   H3R
 11362  11360  11363  11365      9     0.00   0.62760   3 ;    H4S-   C14-   C13-   H3S
 11362  11360  11363  11366      9     0.00   0.66944   3 ;    H4S-   C14-   C13-   C12
 11363  11366  11369  11370      9   180.00   0.00000   2 ;    C13-   C12-   C11-   O12
 11363  11366  11369  11371      9   180.00   0.00000   2 ;    C13-   C12-   C11-   O11
 11364  11363  11366  11367      9     0.00   0.62760   3 ;    H3R-   C13-   C12-   H2R
 11364  11363  11366  11368      9     0.00   0.62760   3 ;    H3R-   C13-   C12-   H2S
 11364  11363  11366  11369      9     0.00   0.65270   3 ;    H3R-   C13-   C12-   C11
 11365  11363  11366  11367      9     0.00   0.62760   3 ;    H3S-   C13-   C12-   H2R
 11365  11363  11366  11368      9     0.00   0.62760   3 ;    H3S-   C13-   C12-   H2S
 11365  11363  11366  11369      9     0.00   0.65270   3 ;    H3S-   C13-   C12-   C11
 11366  11369  11371  11372      9   180.00  11.29680   2 ;    C12-   C11-   O11-    C1
 11367  11366  11369  11370      9     0.00   3.34720   1 ;    H2R-   C12-   C11-   O12
 11367  11366  11369  11370      9   180.00   0.33472   3 ;    H2R-   C12-   C11-   O12
 11367  11366  11369  11371      9   180.00   0.00000   2 ;    H2R-   C12-   C11-   O11
 11368  11366  11369  11370      9     0.00   3.34720   1 ;    H2S-   C12-   C11-   O12
 11368  11366  11369  11370      9   180.00   0.33472   3 ;    H2S-   C12-   C11-   O12
 11368  11366  11369  11371      9   180.00   0.00000   2 ;    H2S-   C12-   C11-   O11
 11369  11371  11372  11373      9     0.00   1.60247   3 ;    C11-   O11-    C1-    HR
 11369  11371  11372  11374      9     0.00   1.60247   3 ;    C11-   O11-    C1-    HS
 11369  11371  11372  11375      9     0.00  -0.41840   1 ;    C11-   O11-    C1-    C2
 11370  11369  11371  11372      9   180.00   5.85760   1 ;    O12-   C11-   O11-    C1
 11370  11369  11371  11372      9   180.00  11.29680   2 ;    O12-   C11-   O11-    C1
 11371  11372  11375  11376      9     0.00   0.00000   0 ;    O11-    C1-    C2-    HX
 11371  11372  11375  11376      9     0.00   1.04600   1 ;    O11-    C1-    C2-    HX
 11371  11372  11375  11377      9     0.00   0.00000   0 ;    O11-    C1-    C2-    C3
 11371  11372  11375  11377      9     0.00   0.00000   0 ;    O11-    C1-    C2-    C3
 11371  11372  11375  11377      9     0.00   0.00000   0 ;    O11-    C1-    C2-    C3
 11371  11372  11375  11377      9     0.00   0.00000   0 ;    O11-    C1-    C2-    C3
 11371  11372  11375  11377      9     0.00   0.00000   0 ;    O11-    C1-    C2-    C3
 11371  11372  11375  11404      9     0.00   1.25520   2 ;    O11-    C1-    C2-   O21
 11371  11372  11375  11404      9     0.00   4.18400   3 ;    O11-    C1-    C2-   O21
 11371  11372  11375  11404      9   180.00  -0.41840   1 ;    O11-    C1-    C2-   O21
 11372  11375  11377  11378      9     0.00   0.65270   3 ;     C1-    C2-    C3-    HA
 11372  11375  11377  11379      9     0.00   0.65270   3 ;     C1-    C2-    C3-    HB
 11372  11375  11377  11380      9   180.00   3.34720   1 ;     C1-    C2-    C3-   O31
 11372  11375  11404  11405      9     0.00  -0.41840   1 ;     C1-    C2-   O21-   C21
 11373  11372  11375  11376      9     0.00   0.65270   3 ;     HR-    C1-    C2-    HX
 11373  11372  11375  11377      9     0.00   0.65270   3 ;     HR-    C1-    C2-    C3
 11373  11372  11375  11404      9     0.00   0.00000   0 ;     HR-    C1-    C2-   O21
 11373  11372  11375  11404      9     0.00   1.04600   1 ;     HR-    C1-    C2-   O21
 11374  11372  11375  11376      9     0.00   0.65270   3 ;     HS-    C1-    C2-    HX
 11374  11372  11375  11377      9     0.00   0.65270   3 ;     HS-    C1-    C2-    C3
 11374  11372  11375  11404      9     0.00   0.00000   0 ;     HS-    C1-    C2-   O21
 11374  11372  11375  11404      9     0.00   1.04600   1 ;     HS-    C1-    C2-   O21
 11375  11377  11380  11381      9     0.00   0.00000   0 ;     C2-    C3-   O31-   P31
 11375  11377  11380  11381      9   180.00  -3.34720   2 ;     C2-    C3-   O31-   P31
 11375  11404  11405  11406      9   180.00   5.85760   1 ;     C2-   O21-   C21-   O22
 11375  11404  11405  11406      9   180.00  11.29680   2 ;     C2-   O21-   C21-   O22
 11375  11404  11405  11444      9   180.00  11.29680   2 ;     C2-   O21-   C21-   C12
 11376  11375  11377  11378      9     0.00   0.65270   3 ;     HX-    C2-    C3-    HA
 11376  11375  11377  11379      9     0.00   0.65270   3 ;     HX-    C2-    C3-    HB
 11376  11375  11377  11380      9     0.00   0.00000   0 ;     HX-    C2-    C3-   O31
 11376  11375  11377  11380      9     0.00   1.04600   1 ;     HX-    C2-    C3-   O31
 11376  11375  11404  11405      9     0.00   1.60247   3 ;     HX-    C2-   O21-   C21
 11377  11375  11404  11405      9     0.00  -0.41840   1 ;     C3-    C2-   O21-   C21
 11377  11380  11381  11382      9     0.00   2.51040   3 ;     C3-   O31-   P31-   O32
 11377  11380  11381  11382      9     0.00   9.62320   2 ;     C3-   O31-   P31-   O32
 11377  11380  11381  11402      9     0.00   0.00000   0 ;     C3-   O31-   P31-   O33
 11377  11380  11381  11402      9     0.00   0.00000   0 ;     C3-   O31-   P31-   O33
 11377  11380  11381  11402      9     0.00   0.00000   0 ;     C3-   O31-   P31-   O33
 11377  11380  11381  11402      9     0.00   0.00000   0 ;     C3-   O31-   P31-   O33
 11377  11380  11381  11402      9     0.00   0.83680   2 ;     C3-   O31-   P31-   O33
 11377  11380  11381  11403      9     0.00   0.00000   0 ;     C3-   O31-   P31-   O34
 11377  11380  11381  11403      9     0.00   0.00000   0 ;     C3-   O31-   P31-   O34
 11377  11380  11381  11403      9     0.00   0.00000   0 ;     C3-   O31-   P31-   O34
 11377  11380  11381  11403      9     0.00   0.00000   0 ;     C3-   O31-   P31-   O34
 11377  11380  11381  11403      9     0.00   0.83680   2 ;     C3-   O31-   P31-   O34
 11378  11377  11375  11404      9     0.00   0.00000   0 ;     HA-    C3-    C2-   O21
 11378  11377  11375  11404      9     0.00   1.04600   1 ;     HA-    C3-    C2-   O21
 11378  11377  11380  11381      9     0.00   0.00000   0 ;     HA-    C3-   O31-   P31
 11378  11377  11380  11381      9     0.00   0.00000   0 ;     HA-    C3-   O31-   P31
 11378  11377  11380  11381      9     0.00   0.00000   0 ;     HA-    C3-   O31-   P31
 11378  11377  11380  11381      9     0.00   0.00000   0 ;     HA-    C3-   O31-   P31
 11378  11377  11380  11381      9     0.00   1.60247   3 ;     HA-    C3-   O31-   P31
 11379  11377  11375  11404      9     0.00   0.00000   0 ;     HB-    C3-    C2-   O21
 11379  11377  11375  11404      9     0.00   1.04600   1 ;     HB-    C3-    C2-   O21
 11379  11377  11380  11381      9     0.00   0.00000   0 ;     HB-    C3-   O31-   P31
 11379  11377  11380  11381      9     0.00   0.00000   0 ;     HB-    C3-   O31-   P31
 11379  11377  11380  11381      9     0.00   0.00000   0 ;     HB-    C3-   O31-   P31
 11379  11377  11380  11381      9     0.00   0.00000   0 ;     HB-    C3-   O31-   P31
 11379  11377  11380  11381      9     0.00   1.60247   3 ;     HB-    C3-   O31-   P31
 11380  11377  11375  11404      9     0.00   0.00000   0 ;    O31-    C3-    C2-   O21
 11380  11377  11375  11404      9     0.00   0.00000   0 ;    O31-    C3-    C2-   O21
 11380  11377  11375  11404      9     0.00   0.00000   0 ;    O31-    C3-    C2-   O21
 11380  11377  11375  11404      9     0.00   0.00000   0 ;    O31-    C3-    C2-   O21
 11380  11377  11375  11404      9     0.00   0.00000   0 ;    O31-    C3-    C2-   O21
 11380  11381  11382  11383      9     0.00   2.51040   3 ;    O31-   P31-   O32-   C31
 11380  11381  11382  11383      9     0.00   9.62320   2 ;    O31-   P31-   O32-   C31
 11381  11382  11383  11384      9     0.00   0.00000   0 ;    P31-   O32-   C31-   H1A
 11381  11382  11383  11384      9     0.00   0.00000   0 ;    P31-   O32-   C31-   H1A
 11381  11382  11383  11384      9     0.00   0.00000   0 ;    P31-   O32-   C31-   H1A
 11381  11382  11383  11384      9     0.00   0.00000   0 ;    P31-   O32-   C31-   H1A
 11381  11382  11383  11384      9     0.00   1.60247   3 ;    P31-   O32-   C31-   H1A
 11381  11382  11383  11385      9     0.00   0.00000   0 ;    P31-   O32-   C31-   H1B
 11381  11382  11383  11385      9     0.00   0.00000   0 ;    P31-   O32-   C31-   H1B
 11381  11382  11383  11385      9     0.00   0.00000   0 ;    P31-   O32-   C31-   H1B
 11381  11382  11383  11385      9     0.00   0.00000   0 ;    P31-   O32-   C31-   H1B
 11381  11382  11383  11385      9     0.00   1.60247   3 ;    P31-   O32-   C31-   H1B
 11381  11382  11383  11386      9     0.00   0.00000   0 ;    P31-   O32-   C31-   C32
 11381  11382  11383  11386      9   180.00  -3.34720   2 ;    P31-   O32-   C31-   C32
 11382  11383  11386  11387      9     0.00   0.65270   3 ;    O32-   C31-   C32-   H2A
 11382  11383  11386  11388      9     0.00   0.65270   3 ;    O32-   C31-   C32-   H2B
 11382  11383  11386  11389      9     0.00   4.18400   3 ;    O32-   C31-   C32-   N31
 11383  11382  11381  11402      9     0.00   0.00000   0 ;    C31-   O32-   P31-   O33
 11383  11382  11381  11402      9     0.00   0.00000   0 ;    C31-   O32-   P31-   O33
 11383  11382  11381  11402      9     0.00   0.00000   0 ;    C31-   O32-   P31-   O33
 11383  11382  11381  11402      9     0.00   0.00000   0 ;    C31-   O32-   P31-   O33
 11383  11382  11381  11402      9     0.00   0.83680   2 ;    C31-   O32-   P31-   O33
 11383  11382  11381  11403      9     0.00   0.00000   0 ;    C31-   O32-   P31-   O34
 11383  11382  11381  11403      9     0.00   0.00000   0 ;    C31-   O32-   P31-   O34
 11383  11382  11381  11403      9     0.00   0.00000   0 ;    C31-   O32-   P31-   O34
 11383  11382  11381  11403      9     0.00   0.00000   0 ;    C31-   O32-   P31-   O34
 11383  11382  11381  11403      9     0.00   0.83680   2 ;    C31-   O32-   P31-   O34
 11383  11386  11389  11390      9     0.00   0.65270   3 ;    C31-   C32-   N31-   C33
 11383  11386  11389  11394      9     0.00   0.65270   3 ;    C31-   C32-   N31-   C34
 11383  11386  11389  11398      9     0.00   0.65270   3 ;    C31-   C32-   N31-   C35
 11384  11383  11386  11387      9     0.00   0.65270   3 ;    H1A-   C31-   C32-   H2A
 11384  11383  11386  11388      9     0.00   0.65270   3 ;    H1A-   C31-   C32-   H2B
 11384  11383  11386  11389      9     0.00   0.65270   3 ;    H1A-   C31-   C32-   N31
 11385  11383  11386  11387      9     0.00   0.65270   3 ;    H1B-   C31-   C32-   H2A
 11385  11383  11386  11388      9     0.00   0.65270   3 ;    H1B-   C31-   C32-   H2B
 11385  11383  11386  11389      9     0.00   0.65270   3 ;    H1B-   C31-   C32-   N31
 11386  11389  11390  11391      9     0.00   0.65270   3 ;    C32-   N31-   C33-   H3A
 11386  11389  11390  11392      9     0.00   0.65270   3 ;    C32-   N31-   C33-   H3B
 11386  11389  11390  11393      9     0.00   0.65270   3 ;    C32-   N31-   C33-   H3C
 11386  11389  11394  11395      9     0.00   0.65270   3 ;    C32-   N31-   C34-   H4A
 11386  11389  11394  11396      9     0.00   0.65270   3 ;    C32-   N31-   C34-   H4B
 11386  11389  11394  11397      9     0.00   0.65270   3 ;    C32-   N31-   C34-   H4C
 11386  11389  11398  11399      9     0.00   0.65270   3 ;    C32-   N31-   C35-   H5A
 11386  11389  11398  11400      9     0.00   0.65270   3 ;    C32-   N31-   C35-   H5B
 11386  11389  11398  11401      9     0.00   0.65270   3 ;    C32-   N31-   C35-   H5C
 11387  11386  11389  11390      9     0.00   0.65270   3 ;    H2A-   C32-   N31-   C33
 11387  11386  11389  11394      9     0.00   0.65270   3 ;    H2A-   C32-   N31-   C34
 11387  11386  11389  11398      9     0.00   0.65270   3 ;    H2A-   C32-   N31-   C35
 11388  11386  11389  11390      9     0.00   0.65270   3 ;    H2B-   C32-   N31-   C33
 11388  11386  11389  11394      9     0.00   0.65270   3 ;    H2B-   C32-   N31-   C34
 11388  11386  11389  11398      9     0.00   0.65270   3 ;    H2B-   C32-   N31-   C35
 11390  11389  11394  11395      9     0.00   0.65270   3 ;    C33-   N31-   C34-   H4A
 11390  11389  11394  11396      9     0.00   0.65270   3 ;    C33-   N31-   C34-   H4B
 11390  11389  11394  11397      9     0.00   0.65270   3 ;    C33-   N31-   C34-   H4C
 11390  11389  11398  11399      9     0.00   0.65270   3 ;    C33-   N31-   C35-   H5A
 11390  11389  11398  11400      9     0.00   0.65270   3 ;    C33-   N31-   C35-   H5B
 11390  11389  11398  11401      9     0.00   0.65270   3 ;    C33-   N31-   C35-   H5C
 11391  11390  11389  11394      9     0.00   0.65270   3 ;    H3A-   C33-   N31-   C34
 11391  11390  11389  11398      9     0.00   0.65270   3 ;    H3A-   C33-   N31-   C35
 11392  11390  11389  11394      9     0.00   0.65270   3 ;    H3B-   C33-   N31-   C34
 11392  11390  11389  11398      9     0.00   0.65270   3 ;    H3B-   C33-   N31-   C35
 11393  11390  11389  11394      9     0.00   0.65270   3 ;    H3C-   C33-   N31-   C34
 11393  11390  11389  11398      9     0.00   0.65270   3 ;    H3C-   C33-   N31-   C35
 11394  11389  11398  11399      9     0.00   0.65270   3 ;    C34-   N31-   C35-   H5A
 11394  11389  11398  11400      9     0.00   0.65270   3 ;    C34-   N31-   C35-   H5B
 11394  11389  11398  11401      9     0.00   0.65270   3 ;    C34-   N31-   C35-   H5C
 11395  11394  11389  11398      9     0.00   0.65270   3 ;    H4A-   C34-   N31-   C35
 11396  11394  11389  11398      9     0.00   0.65270   3 ;    H4B-   C34-   N31-   C35
 11397  11394  11389  11398      9     0.00   0.65270   3 ;    H4C-   C34-   N31-   C35
 11404  11405  11444  11441      9   180.00   0.00000   2 ;    O21-   C21-   C12-   C13
 11404  11405  11444  11445      9   180.00   0.00000   2 ;    O21-   C21-   C12-   H2R
 11404  11405  11444  11446      9   180.00   0.00000   2 ;    O21-   C21-   C12-   H2S
 11405  11444  11441  11438      9     0.00   0.65270   3 ;    C21-   C12-   C13-   C14
 11405  11444  11441  11442      9     0.00   0.65270   3 ;    C21-   C12-   C13-   H3R
 11405  11444  11441  11443      9     0.00   0.65270   3 ;    C21-   C12-   C13-   H3S
 11406  11405  11444  11441      9   180.00   0.00000   2 ;    O22-   C21-   C12-   C13
 11406  11405  11444  11445      9     0.00   3.34720   1 ;    O22-   C21-   C12-   H2R
 11406  11405  11444  11445      9   180.00   0.33472   3 ;    O22-   C21-   C12-   H2R
 11406  11405  11444  11446      9     0.00   3.34720   1 ;    O22-   C21-   C12-   H2S
 11406  11405  11444  11446      9   180.00   0.33472   3 ;    O22-   C21-   C12-   H2S
 11407  11408  11411  11412      9     0.00   0.62760   3 ;   H14T-  C114-  C113-  H13R
 11407  11408  11411  11413      9     0.00   0.62760   3 ;   H14T-  C114-  C113-  H13S
 11407  11408  11411  11414      9     0.00   0.66944   3 ;   H14T-  C114-  C113-  C112
 11408  11411  11414  11415      9     0.00   0.66944   3 ;   C114-  C113-  C112-  H12R
 11408  11411  11414  11416      9     0.00   0.66944   3 ;   C114-  C113-  C112-  H12S
 11408  11411  11414  11417      9     0.00   0.41840   1 ;   C114-  C113-  C112-  C111
 11408  11411  11414  11417      9     0.00   0.41840   2 ;   C114-  C113-  C112-  C111
 11408  11411  11414  11417      9     0.00   0.41840   4 ;   C114-  C113-  C112-  C111
 11408  11411  11414  11417      9     0.00   0.41840   5 ;   C114-  C113-  C112-  C111
 11408  11411  11414  11417      9     0.00   1.25520   3 ;   C114-  C113-  C112-  C111
 11409  11408  11411  11412      9     0.00   0.62760   3 ;   H14R-  C114-  C113-  H13R
 11409  11408  11411  11413      9     0.00   0.62760   3 ;   H14R-  C114-  C113-  H13S
 11409  11408  11411  11414      9     0.00   0.66944   3 ;   H14R-  C114-  C113-  C112
 11410  11408  11411  11412      9     0.00   0.62760   3 ;   H14S-  C114-  C113-  H13R
 11410  11408  11411  11413      9     0.00   0.62760   3 ;   H14S-  C114-  C113-  H13S
 11410  11408  11411  11414      9     0.00   0.66944   3 ;   H14S-  C114-  C113-  C112
 11411  11414  11417  11418      9     0.00   0.66944   3 ;   C113-  C112-  C111-  H11R
 11411  11414  11417  11419      9     0.00   0.66944   3 ;   C113-  C112-  C111-  H11S
 11411  11414  11417  11420      9     0.00   0.41840   1 ;   C113-  C112-  C111-  C110
 11411  11414  11417  11420      9     0.00   0.41840   2 ;   C113-  C112-  C111-  C110
 11411  11414  11417  11420      9     0.00   0.41840   4 ;   C113-  C112-  C111-  C110
 11411  11414  11417  11420      9     0.00   0.41840   5 ;   C113-  C112-  C111-  C110
 11411  11414  11417  11420      9     0.00   1.25520   3 ;   C113-  C112-  C111-  C110
 11412  11411  11414  11415      9     0.00   0.62760   3 ;   H13R-  C113-  C112-  H12R
 11412  11411  11414  11416      9     0.00   0.62760   3 ;   H13R-  C113-  C112-  H12S
 11412  11411  11414  11417      9     0.00   0.66944   3 ;   H13R-  C113-  C112-  C111
 11413  11411  11414  11415      9     0.00   0.62760   3 ;   H13S-  C113-  C112-  H12R
 11413  11411  11414  11416      9     0.00   0.62760   3 ;   H13S-  C113-  C112-  H12S
 11413  11411  11414  11417      9     0.00   0.66944   3 ;   H13S-  C113-  C112-  C111
 11414  11417  11420  11421      9     0.00   0.66944   3 ;   C112-  C111-  C110-  H10R
 11414  11417  11420  11422      9     0.00   0.66944   3 ;   C112-  C111-  C110-  H10S
 11414  11417  11420  11423      9     0.00   0.41840   1 ;   C112-  C111-  C110-   C19
 11414  11417  11420  11423      9     0.00   0.41840   2 ;   C112-  C111-  C110-   C19
 11414  11417  11420  11423      9     0.00   0.41840   4 ;   C112-  C111-  C110-   C19
 11414  11417  11420  11423      9     0.00   0.41840   5 ;   C112-  C111-  C110-   C19
 11414  11417  11420  11423      9     0.00   1.25520   3 ;   C112-  C111-  C110-   C19
 11415  11414  11417  11418      9     0.00   0.62760   3 ;   H12R-  C112-  C111-  H11R
 11415  11414  11417  11419      9     0.00   0.62760   3 ;   H12R-  C112-  C111-  H11S
 11415  11414  11417  11420      9     0.00   0.66944   3 ;   H12R-  C112-  C111-  C110
 11416  11414  11417  11418      9     0.00   0.62760   3 ;   H12S-  C112-  C111-  H11R
 11416  11414  11417  11419      9     0.00   0.62760   3 ;   H12S-  C112-  C111-  H11S
 11416  11414  11417  11420      9     0.00   0.66944   3 ;   H12S-  C112-  C111-  C110
 11417  11420  11423  11424      9     0.00   0.66944   3 ;   C111-  C110-   C19-   H9R
 11417  11420  11423  11425      9     0.00   0.66944   3 ;   C111-  C110-   C19-   H9S
 11417  11420  11423  11426      9     0.00   0.41840   1 ;   C111-  C110-   C19-   C18
 11417  11420  11423  11426      9     0.00   0.41840   2 ;   C111-  C110-   C19-   C18
 11417  11420  11423  11426      9     0.00   0.41840   4 ;   C111-  C110-   C19-   C18
 11417  11420  11423  11426      9     0.00   0.41840   5 ;   C111-  C110-   C19-   C18
 11417  11420  11423  11426      9     0.00   1.25520   3 ;   C111-  C110-   C19-   C18
 11418  11417  11420  11421      9     0.00   0.62760   3 ;   H11R-  C111-  C110-  H10R
 11418  11417  11420  11422      9     0.00   0.62760   3 ;   H11R-  C111-  C110-  H10S
 11418  11417  11420  11423      9     0.00   0.66944   3 ;   H11R-  C111-  C110-   C19
 11419  11417  11420  11421      9     0.00   0.62760   3 ;   H11S-  C111-  C110-  H10R
 11419  11417  11420  11422      9     0.00   0.62760   3 ;   H11S-  C111-  C110-  H10S
 11419  11417  11420  11423      9     0.00   0.66944   3 ;   H11S-  C111-  C110-   C19
 11420  11423  11426  11427      9     0.00   0.66944   3 ;   C110-   C19-   C18-   H8R
 11420  11423  11426  11428      9     0.00   0.66944   3 ;   C110-   C19-   C18-   H8S
 11420  11423  11426  11429      9     0.00   0.41840   1 ;   C110-   C19-   C18-   C17
 11420  11423  11426  11429      9     0.00   0.41840   2 ;   C110-   C19-   C18-   C17
 11420  11423  11426  11429      9     0.00   0.41840   4 ;   C110-   C19-   C18-   C17
 11420  11423  11426  11429      9     0.00   0.41840   5 ;   C110-   C19-   C18-   C17
 11420  11423  11426  11429      9     0.00   1.25520   3 ;   C110-   C19-   C18-   C17
 11421  11420  11423  11424      9     0.00   0.62760   3 ;   H10R-  C110-   C19-   H9R
 11421  11420  11423  11425      9     0.00   0.62760   3 ;   H10R-  C110-   C19-   H9S
 11421  11420  11423  11426      9     0.00   0.66944   3 ;   H10R-  C110-   C19-   C18
 11422  11420  11423  11424      9     0.00   0.62760   3 ;   H10S-  C110-   C19-   H9R
 11422  11420  11423  11425      9     0.00   0.62760   3 ;   H10S-  C110-   C19-   H9S
 11422  11420  11423  11426      9     0.00   0.66944   3 ;   H10S-  C110-   C19-   C18
 11423  11426  11429  11430      9     0.00   0.66944   3 ;    C19-   C18-   C17-   H7R
 11423  11426  11429  11431      9     0.00   0.66944   3 ;    C19-   C18-   C17-   H7S
 11423  11426  11429  11432      9     0.00   0.41840   1 ;    C19-   C18-   C17-   C16
 11423  11426  11429  11432      9     0.00   0.41840   2 ;    C19-   C18-   C17-   C16
 11423  11426  11429  11432      9     0.00   0.41840   4 ;    C19-   C18-   C17-   C16
 11423  11426  11429  11432      9     0.00   0.41840   5 ;    C19-   C18-   C17-   C16
 11423  11426  11429  11432      9     0.00   1.25520   3 ;    C19-   C18-   C17-   C16
 11424  11423  11426  11427      9     0.00   0.62760   3 ;    H9R-   C19-   C18-   H8R
 11424  11423  11426  11428      9     0.00   0.62760   3 ;    H9R-   C19-   C18-   H8S
 11424  11423  11426  11429      9     0.00   0.66944   3 ;    H9R-   C19-   C18-   C17
 11425  11423  11426  11427      9     0.00   0.62760   3 ;    H9S-   C19-   C18-   H8R
 11425  11423  11426  11428      9     0.00   0.62760   3 ;    H9S-   C19-   C18-   H8S
 11425  11423  11426  11429      9     0.00   0.66944   3 ;    H9S-   C19-   C18-   C17
 11426  11429  11432  11433      9     0.00   0.66944   3 ;    C18-   C17-   C16-   H6R
 11426  11429  11432  11434      9     0.00   0.66944   3 ;    C18-   C17-   C16-   H6S
 11426  11429  11432  11435      9     0.00   0.41840   1 ;    C18-   C17-   C16-   C15
 11426  11429  11432  11435      9     0.00   0.41840   2 ;    C18-   C17-   C16-   C15
 11426  11429  11432  11435      9     0.00   0.41840   4 ;    C18-   C17-   C16-   C15
 11426  11429  11432  11435      9     0.00   0.41840   5 ;    C18-   C17-   C16-   C15
 11426  11429  11432  11435      9     0.00   1.25520   3 ;    C18-   C17-   C16-   C15
 11427  11426  11429  11430      9     0.00   0.62760   3 ;    H8R-   C18-   C17-   H7R
 11427  11426  11429  11431      9     0.00   0.62760   3 ;    H8R-   C18-   C17-   H7S
 11427  11426  11429  11432      9     0.00   0.66944   3 ;    H8R-   C18-   C17-   C16
 11428  11426  11429  11430      9     0.00   0.62760   3 ;    H8S-   C18-   C17-   H7R
 11428  11426  11429  11431      9     0.00   0.62760   3 ;    H8S-   C18-   C17-   H7S
 11428  11426  11429  11432      9     0.00   0.66944   3 ;    H8S-   C18-   C17-   C16
 11429  11432  11435  11436      9     0.00   0.66944   3 ;    C17-   C16-   C15-   H5R
 11429  11432  11435  11437      9     0.00   0.66944   3 ;    C17-   C16-   C15-   H5S
 11429  11432  11435  11438      9     0.00   0.41840   1 ;    C17-   C16-   C15-   C14
 11429  11432  11435  11438      9     0.00   0.41840   2 ;    C17-   C16-   C15-   C14
 11429  11432  11435  11438      9     0.00   0.41840   4 ;    C17-   C16-   C15-   C14
 11429  11432  11435  11438      9     0.00   0.41840   5 ;    C17-   C16-   C15-   C14
 11429  11432  11435  11438      9     0.00   1.25520   3 ;    C17-   C16-   C15-   C14
 11430  11429  11432  11433      9     0.00   0.62760   3 ;    H7R-   C17-   C16-   H6R
 11430  11429  11432  11434      9     0.00   0.62760   3 ;    H7R-   C17-   C16-   H6S
 11430  11429  11432  11435      9     0.00   0.66944   3 ;    H7R-   C17-   C16-   C15
 11431  11429  11432  11433      9     0.00   0.62760   3 ;    H7S-   C17-   C16-   H6R
 11431  11429  11432  11434      9     0.00   0.62760   3 ;    H7S-   C17-   C16-   H6S
 11431  11429  11432  11435      9     0.00   0.66944   3 ;    H7S-   C17-   C16-   C15
 11432  11435  11438  11439      9     0.00   0.66944   3 ;    C16-   C15-   C14-   H4R
 11432  11435  11438  11440      9     0.00   0.66944   3 ;    C16-   C15-   C14-   H4S
 11432  11435  11438  11441      9     0.00   0.41840   1 ;    C16-   C15-   C14-   C13
 11432  11435  11438  11441      9     0.00   0.41840   2 ;    C16-   C15-   C14-   C13
 11432  11435  11438  11441      9     0.00   0.41840   4 ;    C16-   C15-   C14-   C13
 11432  11435  11438  11441      9     0.00   0.41840   5 ;    C16-   C15-   C14-   C13
 11432  11435  11438  11441      9     0.00   1.25520   3 ;    C16-   C15-   C14-   C13
 11433  11432  11435  11436      9     0.00   0.62760   3 ;    H6R-   C16-   C15-   H5R
 11433  11432  11435  11437      9     0.00   0.62760   3 ;    H6R-   C16-   C15-   H5S
 11433  11432  11435  11438      9     0.00   0.66944   3 ;    H6R-   C16-   C15-   C14
 11434  11432  11435  11436      9     0.00   0.62760   3 ;    H6S-   C16-   C15-   H5R
 11434  11432  11435  11437      9     0.00   0.62760   3 ;    H6S-   C16-   C15-   H5S
 11434  11432  11435  11438      9     0.00   0.66944   3 ;    H6S-   C16-   C15-   C14
 11435  11438  11441  11442      9     0.00   0.66944   3 ;    C15-   C14-   C13-   H3R
 11435  11438  11441  11443      9     0.00   0.66944   3 ;    C15-   C14-   C13-   H3S
 11435  11438  11441  11444      9     0.00   0.41840   1 ;    C15-   C14-   C13-   C12
 11435  11438  11441  11444      9     0.00   0.41840   2 ;    C15-   C14-   C13-   C12
 11435  11438  11441  11444      9     0.00   0.41840   4 ;    C15-   C14-   C13-   C12
 11435  11438  11441  11444      9     0.00   0.41840   5 ;    C15-   C14-   C13-   C12
 11435  11438  11441  11444      9     0.00   1.25520   3 ;    C15-   C14-   C13-   C12
 11436  11435  11438  11439      9     0.00   0.62760   3 ;    H5R-   C15-   C14-   H4R
 11436  11435  11438  11440      9     0.00   0.62760   3 ;    H5R-   C15-   C14-   H4S
 11436  11435  11438  11441      9     0.00   0.66944   3 ;    H5R-   C15-   C14-   C13
 11437  11435  11438  11439      9     0.00   0.62760   3 ;    H5S-   C15-   C14-   H4R
 11437  11435  11438  11440      9     0.00   0.62760   3 ;    H5S-   C15-   C14-   H4S
 11437  11435  11438  11441      9     0.00   0.66944   3 ;    H5S-   C15-   C14-   C13
 11438  11441  11444  11445      9     0.00   0.66944   3 ;    C14-   C13-   C12-   H2R
 11438  11441  11444  11446      9     0.00   0.66944   3 ;    C14-   C13-   C12-   H2S
 11439  11438  11441  11442      9     0.00   0.62760   3 ;    H4R-   C14-   C13-   H3R
 11439  11438  11441  11443      9     0.00   0.62760   3 ;    H4R-   C14-   C13-   H3S
 11439  11438  11441  11444      9     0.00   0.66944   3 ;    H4R-   C14-   C13-   C12
 11440  11438  11441  11442      9     0.00   0.62760   3 ;    H4S-   C14-   C13-   H3R
 11440  11438  11441  11443      9     0.00   0.62760   3 ;    H4S-   C14-   C13-   H3S
 11440  11438  11441  11444      9     0.00   0.66944   3 ;    H4S-   C14-   C13-   C12
 11442  11441  11444  11445      9     0.00   0.62760   3 ;    H3R-   C13-   C12-   H2R
 11442  11441  11444  11446      9     0.00   0.62760   3 ;    H3R-   C13-   C12-   H2S
 11443  11441  11444  11445      9     0.00   0.62760   3 ;    H3S-   C13-   C12-   H2R
 11443  11441  11444  11446      9     0.00   0.62760   3 ;    H3S-   C13-   C12-   H2S
 11447  11448  11451  11452      9     0.00   0.62760   3 ;   H14T-  C114-  C113-  H13R
 11447  11448  11451  11453      9     0.00   0.62760   3 ;   H14T-  C114-  C113-  H13S
 11447  11448  11451  11454      9     0.00   0.66944   3 ;   H14T-  C114-  C113-  C112
 11448  11451  11454  11455      9     0.00   0.66944   3 ;   C114-  C113-  C112-  H12R
 11448  11451  11454  11456      9     0.00   0.66944   3 ;   C114-  C113-  C112-  H12S
 11448  11451  11454  11457      9     0.00   0.41840   1 ;   C114-  C113-  C112-  C111
 11448  11451  11454  11457      9     0.00   0.41840   2 ;   C114-  C113-  C112-  C111
 11448  11451  11454  11457      9     0.00   0.41840   4 ;   C114-  C113-  C112-  C111
 11448  11451  11454  11457      9     0.00   0.41840   5 ;   C114-  C113-  C112-  C111
 11448  11451  11454  11457      9     0.00   1.25520   3 ;   C114-  C113-  C112-  C111
 11449  11448  11451  11452      9     0.00   0.62760   3 ;   H14R-  C114-  C113-  H13R
 11449  11448  11451  11453      9     0.00   0.62760   3 ;   H14R-  C114-  C113-  H13S
 11449  11448  11451  11454      9     0.00   0.66944   3 ;   H14R-  C114-  C113-  C112
 11450  11448  11451  11452      9     0.00   0.62760   3 ;   H14S-  C114-  C113-  H13R
 11450  11448  11451  11453      9     0.00   0.62760   3 ;   H14S-  C114-  C113-  H13S
 11450  11448  11451  11454      9     0.00   0.66944   3 ;   H14S-  C114-  C113-  C112
 11451  11454  11457  11458      9     0.00   0.66944   3 ;   C113-  C112-  C111-  H11R
 11451  11454  11457  11459      9     0.00   0.66944   3 ;   C113-  C112-  C111-  H11S
 11451  11454  11457  11460      9     0.00   0.41840   1 ;   C113-  C112-  C111-  C110
 11451  11454  11457  11460      9     0.00   0.41840   2 ;   C113-  C112-  C111-  C110
 11451  11454  11457  11460      9     0.00   0.41840   4 ;   C113-  C112-  C111-  C110
 11451  11454  11457  11460      9     0.00   0.41840   5 ;   C113-  C112-  C111-  C110
 11451  11454  11457  11460      9     0.00   1.25520   3 ;   C113-  C112-  C111-  C110
 11452  11451  11454  11455      9     0.00   0.62760   3 ;   H13R-  C113-  C112-  H12R
 11452  11451  11454  11456      9     0.00   0.62760   3 ;   H13R-  C113-  C112-  H12S
 11452  11451  11454  11457      9     0.00   0.66944   3 ;   H13R-  C113-  C112-  C111
 11453  11451  11454  11455      9     0.00   0.62760   3 ;   H13S-  C113-  C112-  H12R
 11453  11451  11454  11456      9     0.00   0.62760   3 ;   H13S-  C113-  C112-  H12S
 11453  11451  11454  11457      9     0.00   0.66944   3 ;   H13S-  C113-  C112-  C111
 11454  11457  11460  11461      9     0.00   0.66944   3 ;   C112-  C111-  C110-  H10R
 11454  11457  11460  11462      9     0.00   0.66944   3 ;   C112-  C111-  C110-  H10S
 11454  11457  11460  11463      9     0.00   0.41840   1 ;   C112-  C111-  C110-   C19
 11454  11457  11460  11463      9     0.00   0.41840   2 ;   C112-  C111-  C110-   C19
 11454  11457  11460  11463      9     0.00   0.41840   4 ;   C112-  C111-  C110-   C19
 11454  11457  11460  11463      9     0.00   0.41840   5 ;   C112-  C111-  C110-   C19
 11454  11457  11460  11463      9     0.00   1.25520   3 ;   C112-  C111-  C110-   C19
 11455  11454  11457  11458      9     0.00   0.62760   3 ;   H12R-  C112-  C111-  H11R
 11455  11454  11457  11459      9     0.00   0.62760   3 ;   H12R-  C112-  C111-  H11S
 11455  11454  11457  11460      9     0.00   0.66944   3 ;   H12R-  C112-  C111-  C110
 11456  11454  11457  11458      9     0.00   0.62760   3 ;   H12S-  C112-  C111-  H11R
 11456  11454  11457  11459      9     0.00   0.62760   3 ;   H12S-  C112-  C111-  H11S
 11456  11454  11457  11460      9     0.00   0.66944   3 ;   H12S-  C112-  C111-  C110
 11457  11460  11463  11464      9     0.00   0.66944   3 ;   C111-  C110-   C19-   H9R
 11457  11460  11463  11465      9     0.00   0.66944   3 ;   C111-  C110-   C19-   H9S
 11457  11460  11463  11466      9     0.00   0.41840   1 ;   C111-  C110-   C19-   C18
 11457  11460  11463  11466      9     0.00   0.41840   2 ;   C111-  C110-   C19-   C18
 11457  11460  11463  11466      9     0.00   0.41840   4 ;   C111-  C110-   C19-   C18
 11457  11460  11463  11466      9     0.00   0.41840   5 ;   C111-  C110-   C19-   C18
 11457  11460  11463  11466      9     0.00   1.25520   3 ;   C111-  C110-   C19-   C18
 11458  11457  11460  11461      9     0.00   0.62760   3 ;   H11R-  C111-  C110-  H10R
 11458  11457  11460  11462      9     0.00   0.62760   3 ;   H11R-  C111-  C110-  H10S
 11458  11457  11460  11463      9     0.00   0.66944   3 ;   H11R-  C111-  C110-   C19
 11459  11457  11460  11461      9     0.00   0.62760   3 ;   H11S-  C111-  C110-  H10R
 11459  11457  11460  11462      9     0.00   0.62760   3 ;   H11S-  C111-  C110-  H10S
 11459  11457  11460  11463      9     0.00   0.66944   3 ;   H11S-  C111-  C110-   C19
 11460  11463  11466  11467      9     0.00   0.66944   3 ;   C110-   C19-   C18-   H8R
 11460  11463  11466  11468      9     0.00   0.66944   3 ;   C110-   C19-   C18-   H8S
 11460  11463  11466  11469      9     0.00   0.41840   1 ;   C110-   C19-   C18-   C17
 11460  11463  11466  11469      9     0.00   0.41840   2 ;   C110-   C19-   C18-   C17
 11460  11463  11466  11469      9     0.00   0.41840   4 ;   C110-   C19-   C18-   C17
 11460  11463  11466  11469      9     0.00   0.41840   5 ;   C110-   C19-   C18-   C17
 11460  11463  11466  11469      9     0.00   1.25520   3 ;   C110-   C19-   C18-   C17
 11461  11460  11463  11464      9     0.00   0.62760   3 ;   H10R-  C110-   C19-   H9R
 11461  11460  11463  11465      9     0.00   0.62760   3 ;   H10R-  C110-   C19-   H9S
 11461  11460  11463  11466      9     0.00   0.66944   3 ;   H10R-  C110-   C19-   C18
 11462  11460  11463  11464      9     0.00   0.62760   3 ;   H10S-  C110-   C19-   H9R
 11462  11460  11463  11465      9     0.00   0.62760   3 ;   H10S-  C110-   C19-   H9S
 11462  11460  11463  11466      9     0.00   0.66944   3 ;   H10S-  C110-   C19-   C18
 11463  11466  11469  11470      9     0.00   0.66944   3 ;    C19-   C18-   C17-   H7R
 11463  11466  11469  11471      9     0.00   0.66944   3 ;    C19-   C18-   C17-   H7S
 11463  11466  11469  11472      9     0.00   0.41840   1 ;    C19-   C18-   C17-   C16
 11463  11466  11469  11472      9     0.00   0.41840   2 ;    C19-   C18-   C17-   C16
 11463  11466  11469  11472      9     0.00   0.41840   4 ;    C19-   C18-   C17-   C16
 11463  11466  11469  11472      9     0.00   0.41840   5 ;    C19-   C18-   C17-   C16
 11463  11466  11469  11472      9     0.00   1.25520   3 ;    C19-   C18-   C17-   C16
 11464  11463  11466  11467      9     0.00   0.62760   3 ;    H9R-   C19-   C18-   H8R
 11464  11463  11466  11468      9     0.00   0.62760   3 ;    H9R-   C19-   C18-   H8S
 11464  11463  11466  11469      9     0.00   0.66944   3 ;    H9R-   C19-   C18-   C17
 11465  11463  11466  11467      9     0.00   0.62760   3 ;    H9S-   C19-   C18-   H8R
 11465  11463  11466  11468      9     0.00   0.62760   3 ;    H9S-   C19-   C18-   H8S
 11465  11463  11466  11469      9     0.00   0.66944   3 ;    H9S-   C19-   C18-   C17
 11466  11469  11472  11473      9     0.00   0.66944   3 ;    C18-   C17-   C16-   H6R
 11466  11469  11472  11474      9     0.00   0.66944   3 ;    C18-   C17-   C16-   H6S
 11466  11469  11472  11475      9     0.00   0.41840   1 ;    C18-   C17-   C16-   C15
 11466  11469  11472  11475      9     0.00   0.41840   2 ;    C18-   C17-   C16-   C15
 11466  11469  11472  11475      9     0.00   0.41840   4 ;    C18-   C17-   C16-   C15
 11466  11469  11472  11475      9     0.00   0.41840   5 ;    C18-   C17-   C16-   C15
 11466  11469  11472  11475      9     0.00   1.25520   3 ;    C18-   C17-   C16-   C15
 11467  11466  11469  11470      9     0.00   0.62760   3 ;    H8R-   C18-   C17-   H7R
 11467  11466  11469  11471      9     0.00   0.62760   3 ;    H8R-   C18-   C17-   H7S
 11467  11466  11469  11472      9     0.00   0.66944   3 ;    H8R-   C18-   C17-   C16
 11468  11466  11469  11470      9     0.00   0.62760   3 ;    H8S-   C18-   C17-   H7R
 11468  11466  11469  11471      9     0.00   0.62760   3 ;    H8S-   C18-   C17-   H7S
 11468  11466  11469  11472      9     0.00   0.66944   3 ;    H8S-   C18-   C17-   C16
 11469  11472  11475  11476      9     0.00   0.66944   3 ;    C17-   C16-   C15-   H5R
 11469  11472  11475  11477      9     0.00   0.66944   3 ;    C17-   C16-   C15-   H5S
 11469  11472  11475  11478      9     0.00   0.41840   1 ;    C17-   C16-   C15-   C14
 11469  11472  11475  11478      9     0.00   0.41840   2 ;    C17-   C16-   C15-   C14
 11469  11472  11475  11478      9     0.00   0.41840   4 ;    C17-   C16-   C15-   C14
 11469  11472  11475  11478      9     0.00   0.41840   5 ;    C17-   C16-   C15-   C14
 11469  11472  11475  11478      9     0.00   1.25520   3 ;    C17-   C16-   C15-   C14
 11470  11469  11472  11473      9     0.00   0.62760   3 ;    H7R-   C17-   C16-   H6R
 11470  11469  11472  11474      9     0.00   0.62760   3 ;    H7R-   C17-   C16-   H6S
 11470  11469  11472  11475      9     0.00   0.66944   3 ;    H7R-   C17-   C16-   C15
 11471  11469  11472  11473      9     0.00   0.62760   3 ;    H7S-   C17-   C16-   H6R
 11471  11469  11472  11474      9     0.00   0.62760   3 ;    H7S-   C17-   C16-   H6S
 11471  11469  11472  11475      9     0.00   0.66944   3 ;    H7S-   C17-   C16-   C15
 11472  11475  11478  11479      9     0.00   0.66944   3 ;    C16-   C15-   C14-   H4R
 11472  11475  11478  11480      9     0.00   0.66944   3 ;    C16-   C15-   C14-   H4S
 11472  11475  11478  11481      9     0.00   0.41840   1 ;    C16-   C15-   C14-   C13
 11472  11475  11478  11481      9     0.00   0.41840   2 ;    C16-   C15-   C14-   C13
 11472  11475  11478  11481      9     0.00   0.41840   4 ;    C16-   C15-   C14-   C13
 11472  11475  11478  11481      9     0.00   0.41840   5 ;    C16-   C15-   C14-   C13
 11472  11475  11478  11481      9     0.00   1.25520   3 ;    C16-   C15-   C14-   C13
 11473  11472  11475  11476      9     0.00   0.62760   3 ;    H6R-   C16-   C15-   H5R
 11473  11472  11475  11477      9     0.00   0.62760   3 ;    H6R-   C16-   C15-   H5S
 11473  11472  11475  11478      9     0.00   0.66944   3 ;    H6R-   C16-   C15-   C14
 11474  11472  11475  11476      9     0.00   0.62760   3 ;    H6S-   C16-   C15-   H5R
 11474  11472  11475  11477      9     0.00   0.62760   3 ;    H6S-   C16-   C15-   H5S
 11474  11472  11475  11478      9     0.00   0.66944   3 ;    H6S-   C16-   C15-   C14
 11475  11478  11481  11482      9     0.00   0.66944   3 ;    C15-   C14-   C13-   H3R
 11475  11478  11481  11483      9     0.00   0.66944   3 ;    C15-   C14-   C13-   H3S
 11475  11478  11481  11484      9     0.00   0.41840   1 ;    C15-   C14-   C13-   C12
 11475  11478  11481  11484      9     0.00   0.41840   2 ;    C15-   C14-   C13-   C12
 11475  11478  11481  11484      9     0.00   0.41840   4 ;    C15-   C14-   C13-   C12
 11475  11478  11481  11484      9     0.00   0.41840   5 ;    C15-   C14-   C13-   C12
 11475  11478  11481  11484      9     0.00   1.25520   3 ;    C15-   C14-   C13-   C12
 11476  11475  11478  11479      9     0.00   0.62760   3 ;    H5R-   C15-   C14-   H4R
 11476  11475  11478  11480      9     0.00   0.62760   3 ;    H5R-   C15-   C14-   H4S
 11476  11475  11478  11481      9     0.00   0.66944   3 ;    H5R-   C15-   C14-   C13
 11477  11475  11478  11479      9     0.00   0.62760   3 ;    H5S-   C15-   C14-   H4R
 11477  11475  11478  11480      9     0.00   0.62760   3 ;    H5S-   C15-   C14-   H4S
 11477  11475  11478  11481      9     0.00   0.66944   3 ;    H5S-   C15-   C14-   C13
 11478  11481  11484  11485      9     0.00   0.66944   3 ;    C14-   C13-   C12-   H2R
 11478  11481  11484  11486      9     0.00   0.66944   3 ;    C14-   C13-   C12-   H2S
 11478  11481  11484  11487      9     0.00   0.65270   3 ;    C14-   C13-   C12-   C11
 11479  11478  11481  11482      9     0.00   0.62760   3 ;    H4R-   C14-   C13-   H3R
 11479  11478  11481  11483      9     0.00   0.62760   3 ;    H4R-   C14-   C13-   H3S
 11479  11478  11481  11484      9     0.00   0.66944   3 ;    H4R-   C14-   C13-   C12
 11480  11478  11481  11482      9     0.00   0.62760   3 ;    H4S-   C14-   C13-   H3R
 11480  11478  11481  11483      9     0.00   0.62760   3 ;    H4S-   C14-   C13-   H3S
 11480  11478  11481  11484      9     0.00   0.66944   3 ;    H4S-   C14-   C13-   C12
 11481  11484  11487  11488      9   180.00   0.00000   2 ;    C13-   C12-   C11-   O12
 11481  11484  11487  11489      9   180.00   0.00000   2 ;    C13-   C12-   C11-   O11
 11482  11481  11484  11485      9     0.00   0.62760   3 ;    H3R-   C13-   C12-   H2R
 11482  11481  11484  11486      9     0.00   0.62760   3 ;    H3R-   C13-   C12-   H2S
 11482  11481  11484  11487      9     0.00   0.65270   3 ;    H3R-   C13-   C12-   C11
 11483  11481  11484  11485      9     0.00   0.62760   3 ;    H3S-   C13-   C12-   H2R
 11483  11481  11484  11486      9     0.00   0.62760   3 ;    H3S-   C13-   C12-   H2S
 11483  11481  11484  11487      9     0.00   0.65270   3 ;    H3S-   C13-   C12-   C11
 11484  11487  11489  11490      9   180.00  11.29680   2 ;    C12-   C11-   O11-    C1
 11485  11484  11487  11488      9     0.00   3.34720   1 ;    H2R-   C12-   C11-   O12
 11485  11484  11487  11488      9   180.00   0.33472   3 ;    H2R-   C12-   C11-   O12
 11485  11484  11487  11489      9   180.00   0.00000   2 ;    H2R-   C12-   C11-   O11
 11486  11484  11487  11488      9     0.00   3.34720   1 ;    H2S-   C12-   C11-   O12
 11486  11484  11487  11488      9   180.00   0.33472   3 ;    H2S-   C12-   C11-   O12
 11486  11484  11487  11489      9   180.00   0.00000   2 ;    H2S-   C12-   C11-   O11
 11487  11489  11490  11491      9     0.00   1.60247   3 ;    C11-   O11-    C1-    HR
 11487  11489  11490  11492      9     0.00   1.60247   3 ;    C11-   O11-    C1-    HS
 11487  11489  11490  11493      9     0.00  -0.41840   1 ;    C11-   O11-    C1-    C2
 11488  11487  11489  11490      9   180.00   5.85760   1 ;    O12-   C11-   O11-    C1
 11488  11487  11489  11490      9   180.00  11.29680   2 ;    O12-   C11-   O11-    C1
 11489  11490  11493  11494      9     0.00   0.00000   0 ;    O11-    C1-    C2-    HX
 11489  11490  11493  11494      9     0.00   1.04600   1 ;    O11-    C1-    C2-    HX
 11489  11490  11493  11495      9     0.00   0.00000   0 ;    O11-    C1-    C2-    C3
 11489  11490  11493  11495      9     0.00   0.00000   0 ;    O11-    C1-    C2-    C3
 11489  11490  11493  11495      9     0.00   0.00000   0 ;    O11-    C1-    C2-    C3
 11489  11490  11493  11495      9     0.00   0.00000   0 ;    O11-    C1-    C2-    C3
 11489  11490  11493  11495      9     0.00   0.00000   0 ;    O11-    C1-    C2-    C3
 11489  11490  11493  11522      9     0.00   1.25520   2 ;    O11-    C1-    C2-   O21
 11489  11490  11493  11522      9     0.00   4.18400   3 ;    O11-    C1-    C2-   O21
 11489  11490  11493  11522      9   180.00  -0.41840   1 ;    O11-    C1-    C2-   O21
 11490  11493  11495  11496      9     0.00   0.65270   3 ;     C1-    C2-    C3-    HA
 11490  11493  11495  11497      9     0.00   0.65270   3 ;     C1-    C2-    C3-    HB
 11490  11493  11495  11498      9   180.00   3.34720   1 ;     C1-    C2-    C3-   O31
 11490  11493  11522  11523      9     0.00  -0.41840   1 ;     C1-    C2-   O21-   C21
 11491  11490  11493  11494      9     0.00   0.65270   3 ;     HR-    C1-    C2-    HX
 11491  11490  11493  11495      9     0.00   0.65270   3 ;     HR-    C1-    C2-    C3
 11491  11490  11493  11522      9     0.00   0.00000   0 ;     HR-    C1-    C2-   O21
 11491  11490  11493  11522      9     0.00   1.04600   1 ;     HR-    C1-    C2-   O21
 11492  11490  11493  11494      9     0.00   0.65270   3 ;     HS-    C1-    C2-    HX
 11492  11490  11493  11495      9     0.00   0.65270   3 ;     HS-    C1-    C2-    C3
 11492  11490  11493  11522      9     0.00   0.00000   0 ;     HS-    C1-    C2-   O21
 11492  11490  11493  11522      9     0.00   1.04600   1 ;     HS-    C1-    C2-   O21
 11493  11495  11498  11499      9     0.00   0.00000   0 ;     C2-    C3-   O31-   P31
 11493  11495  11498  11499      9   180.00  -3.34720   2 ;     C2-    C3-   O31-   P31
 11493  11522  11523  11524      9   180.00   5.85760   1 ;     C2-   O21-   C21-   O22
 11493  11522  11523  11524      9   180.00  11.29680   2 ;     C2-   O21-   C21-   O22
 11493  11522  11523  11562      9   180.00  11.29680   2 ;     C2-   O21-   C21-   C12
 11494  11493  11495  11496      9     0.00   0.65270   3 ;     HX-    C2-    C3-    HA
 11494  11493  11495  11497      9     0.00   0.65270   3 ;     HX-    C2-    C3-    HB
 11494  11493  11495  11498      9     0.00   0.00000   0 ;     HX-    C2-    C3-   O31
 11494  11493  11495  11498      9     0.00   1.04600   1 ;     HX-    C2-    C3-   O31
 11494  11493  11522  11523      9     0.00   1.60247   3 ;     HX-    C2-   O21-   C21
 11495  11493  11522  11523      9     0.00  -0.41840   1 ;     C3-    C2-   O21-   C21
 11495  11498  11499  11500      9     0.00   2.51040   3 ;     C3-   O31-   P31-   O32
 11495  11498  11499  11500      9     0.00   9.62320   2 ;     C3-   O31-   P31-   O32
 11495  11498  11499  11520      9     0.00   0.00000   0 ;     C3-   O31-   P31-   O33
 11495  11498  11499  11520      9     0.00   0.00000   0 ;     C3-   O31-   P31-   O33
 11495  11498  11499  11520      9     0.00   0.00000   0 ;     C3-   O31-   P31-   O33
 11495  11498  11499  11520      9     0.00   0.00000   0 ;     C3-   O31-   P31-   O33
 11495  11498  11499  11520      9     0.00   0.83680   2 ;     C3-   O31-   P31-   O33
 11495  11498  11499  11521      9     0.00   0.00000   0 ;     C3-   O31-   P31-   O34
 11495  11498  11499  11521      9     0.00   0.00000   0 ;     C3-   O31-   P31-   O34
 11495  11498  11499  11521      9     0.00   0.00000   0 ;     C3-   O31-   P31-   O34
 11495  11498  11499  11521      9     0.00   0.00000   0 ;     C3-   O31-   P31-   O34
 11495  11498  11499  11521      9     0.00   0.83680   2 ;     C3-   O31-   P31-   O34
 11496  11495  11493  11522      9     0.00   0.00000   0 ;     HA-    C3-    C2-   O21
 11496  11495  11493  11522      9     0.00   1.04600   1 ;     HA-    C3-    C2-   O21
 11496  11495  11498  11499      9     0.00   0.00000   0 ;     HA-    C3-   O31-   P31
 11496  11495  11498  11499      9     0.00   0.00000   0 ;     HA-    C3-   O31-   P31
 11496  11495  11498  11499      9     0.00   0.00000   0 ;     HA-    C3-   O31-   P31
 11496  11495  11498  11499      9     0.00   0.00000   0 ;     HA-    C3-   O31-   P31
 11496  11495  11498  11499      9     0.00   1.60247   3 ;     HA-    C3-   O31-   P31
 11497  11495  11493  11522      9     0.00   0.00000   0 ;     HB-    C3-    C2-   O21
 11497  11495  11493  11522      9     0.00   1.04600   1 ;     HB-    C3-    C2-   O21
 11497  11495  11498  11499      9     0.00   0.00000   0 ;     HB-    C3-   O31-   P31
 11497  11495  11498  11499      9     0.00   0.00000   0 ;     HB-    C3-   O31-   P31
 11497  11495  11498  11499      9     0.00   0.00000   0 ;     HB-    C3-   O31-   P31
 11497  11495  11498  11499      9     0.00   0.00000   0 ;     HB-    C3-   O31-   P31
 11497  11495  11498  11499      9     0.00   1.60247   3 ;     HB-    C3-   O31-   P31
 11498  11495  11493  11522      9     0.00   0.00000   0 ;    O31-    C3-    C2-   O21
 11498  11495  11493  11522      9     0.00   0.00000   0 ;    O31-    C3-    C2-   O21
 11498  11495  11493  11522      9     0.00   0.00000   0 ;    O31-    C3-    C2-   O21
 11498  11495  11493  11522      9     0.00   0.00000   0 ;    O31-    C3-    C2-   O21
 11498  11495  11493  11522      9     0.00   0.00000   0 ;    O31-    C3-    C2-   O21
 11498  11499  11500  11501      9     0.00   2.51040   3 ;    O31-   P31-   O32-   C31
 11498  11499  11500  11501      9     0.00   9.62320   2 ;    O31-   P31-   O32-   C31
 11499  11500  11501  11502      9     0.00   0.00000   0 ;    P31-   O32-   C31-   H1A
 11499  11500  11501  11502      9     0.00   0.00000   0 ;    P31-   O32-   C31-   H1A
 11499  11500  11501  11502      9     0.00   0.00000   0 ;    P31-   O32-   C31-   H1A
 11499  11500  11501  11502      9     0.00   0.00000   0 ;    P31-   O32-   C31-   H1A
 11499  11500  11501  11502      9     0.00   1.60247   3 ;    P31-   O32-   C31-   H1A
 11499  11500  11501  11503      9     0.00   0.00000   0 ;    P31-   O32-   C31-   H1B
 11499  11500  11501  11503      9     0.00   0.00000   0 ;    P31-   O32-   C31-   H1B
 11499  11500  11501  11503      9     0.00   0.00000   0 ;    P31-   O32-   C31-   H1B
 11499  11500  11501  11503      9     0.00   0.00000   0 ;    P31-   O32-   C31-   H1B
 11499  11500  11501  11503      9     0.00   1.60247   3 ;    P31-   O32-   C31-   H1B
 11499  11500  11501  11504      9     0.00   0.00000   0 ;    P31-   O32-   C31-   C32
 11499  11500  11501  11504      9   180.00  -3.34720   2 ;    P31-   O32-   C31-   C32
 11500  11501  11504  11505      9     0.00   0.65270   3 ;    O32-   C31-   C32-   H2A
 11500  11501  11504  11506      9     0.00   0.65270   3 ;    O32-   C31-   C32-   H2B
 11500  11501  11504  11507      9     0.00   4.18400   3 ;    O32-   C31-   C32-   N31
 11501  11500  11499  11520      9     0.00   0.00000   0 ;    C31-   O32-   P31-   O33
 11501  11500  11499  11520      9     0.00   0.00000   0 ;    C31-   O32-   P31-   O33
 11501  11500  11499  11520      9     0.00   0.00000   0 ;    C31-   O32-   P31-   O33
 11501  11500  11499  11520      9     0.00   0.00000   0 ;    C31-   O32-   P31-   O33
 11501  11500  11499  11520      9     0.00   0.83680   2 ;    C31-   O32-   P31-   O33
 11501  11500  11499  11521      9     0.00   0.00000   0 ;    C31-   O32-   P31-   O34
 11501  11500  11499  11521      9     0.00   0.00000   0 ;    C31-   O32-   P31-   O34
 11501  11500  11499  11521      9     0.00   0.00000   0 ;    C31-   O32-   P31-   O34
 11501  11500  11499  11521      9     0.00   0.00000   0 ;    C31-   O32-   P31-   O34
 11501  11500  11499  11521      9     0.00   0.83680   2 ;    C31-   O32-   P31-   O34
 11501  11504  11507  11508      9     0.00   0.65270   3 ;    C31-   C32-   N31-   C33
 11501  11504  11507  11512      9     0.00   0.65270   3 ;    C31-   C32-   N31-   C34
 11501  11504  11507  11516      9     0.00   0.65270   3 ;    C31-   C32-   N31-   C35
 11502  11501  11504  11505      9     0.00   0.65270   3 ;    H1A-   C31-   C32-   H2A
 11502  11501  11504  11506      9     0.00   0.65270   3 ;    H1A-   C31-   C32-   H2B
 11502  11501  11504  11507      9     0.00   0.65270   3 ;    H1A-   C31-   C32-   N31
 11503  11501  11504  11505      9     0.00   0.65270   3 ;    H1B-   C31-   C32-   H2A
 11503  11501  11504  11506      9     0.00   0.65270   3 ;    H1B-   C31-   C32-   H2B
 11503  11501  11504  11507      9     0.00   0.65270   3 ;    H1B-   C31-   C32-   N31
 11504  11507  11508  11509      9     0.00   0.65270   3 ;    C32-   N31-   C33-   H3A
 11504  11507  11508  11510      9     0.00   0.65270   3 ;    C32-   N31-   C33-   H3B
 11504  11507  11508  11511      9     0.00   0.65270   3 ;    C32-   N31-   C33-   H3C
 11504  11507  11512  11513      9     0.00   0.65270   3 ;    C32-   N31-   C34-   H4A
 11504  11507  11512  11514      9     0.00   0.65270   3 ;    C32-   N31-   C34-   H4B
 11504  11507  11512  11515      9     0.00   0.65270   3 ;    C32-   N31-   C34-   H4C
 11504  11507  11516  11517      9     0.00   0.65270   3 ;    C32-   N31-   C35-   H5A
 11504  11507  11516  11518      9     0.00   0.65270   3 ;    C32-   N31-   C35-   H5B
 11504  11507  11516  11519      9     0.00   0.65270   3 ;    C32-   N31-   C35-   H5C
 11505  11504  11507  11508      9     0.00   0.65270   3 ;    H2A-   C32-   N31-   C33
 11505  11504  11507  11512      9     0.00   0.65270   3 ;    H2A-   C32-   N31-   C34
 11505  11504  11507  11516      9     0.00   0.65270   3 ;    H2A-   C32-   N31-   C35
 11506  11504  11507  11508      9     0.00   0.65270   3 ;    H2B-   C32-   N31-   C33
 11506  11504  11507  11512      9     0.00   0.65270   3 ;    H2B-   C32-   N31-   C34
 11506  11504  11507  11516      9     0.00   0.65270   3 ;    H2B-   C32-   N31-   C35
 11508  11507  11512  11513      9     0.00   0.65270   3 ;    C33-   N31-   C34-   H4A
 11508  11507  11512  11514      9     0.00   0.65270   3 ;    C33-   N31-   C34-   H4B
 11508  11507  11512  11515      9     0.00   0.65270   3 ;    C33-   N31-   C34-   H4C
 11508  11507  11516  11517      9     0.00   0.65270   3 ;    C33-   N31-   C35-   H5A
 11508  11507  11516  11518      9     0.00   0.65270   3 ;    C33-   N31-   C35-   H5B
 11508  11507  11516  11519      9     0.00   0.65270   3 ;    C33-   N31-   C35-   H5C
 11509  11508  11507  11512      9     0.00   0.65270   3 ;    H3A-   C33-   N31-   C34
 11509  11508  11507  11516      9     0.00   0.65270   3 ;    H3A-   C33-   N31-   C35
 11510  11508  11507  11512      9     0.00   0.65270   3 ;    H3B-   C33-   N31-   C34
 11510  11508  11507  11516      9     0.00   0.65270   3 ;    H3B-   C33-   N31-   C35
 11511  11508  11507  11512      9     0.00   0.65270   3 ;    H3C-   C33-   N31-   C34
 11511  11508  11507  11516      9     0.00   0.65270   3 ;    H3C-   C33-   N31-   C35
 11512  11507  11516  11517      9     0.00   0.65270   3 ;    C34-   N31-   C35-   H5A
 11512  11507  11516  11518      9     0.00   0.65270   3 ;    C34-   N31-   C35-   H5B
 11512  11507  11516  11519      9     0.00   0.65270   3 ;    C34-   N31-   C35-   H5C
 11513  11512  11507  11516      9     0.00   0.65270   3 ;    H4A-   C34-   N31-   C35
 11514  11512  11507  11516      9     0.00   0.65270   3 ;    H4B-   C34-   N31-   C35
 11515  11512  11507  11516      9     0.00   0.65270   3 ;    H4C-   C34-   N31-   C35
 11522  11523  11562  11559      9   180.00   0.00000   2 ;    O21-   C21-   C12-   C13
 11522  11523  11562  11563      9   180.00   0.00000   2 ;    O21-   C21-   C12-   H2R
 11522  11523  11562  11564      9   180.00   0.00000   2 ;    O21-   C21-   C12-   H2S
 11523  11562  11559  11556      9     0.00   0.65270   3 ;    C21-   C12-   C13-   C14
 11523  11562  11559  11560      9     0.00   0.65270   3 ;    C21-   C12-   C13-   H3R
 11523  11562  11559  11561      9     0.00   0.65270   3 ;    C21-   C12-   C13-   H3S
 11524  11523  11562  11559      9   180.00   0.00000   2 ;    O22-   C21-   C12-   C13
 11524  11523  11562  11563      9     0.00   3.34720   1 ;    O22-   C21-   C12-   H2R
 11524  11523  11562  11563      9   180.00   0.33472   3 ;    O22-   C21-   C12-   H2R
 11524  11523  11562  11564      9     0.00   3.34720   1 ;    O22-   C21-   C12-   H2S
 11524  11523  11562  11564      9   180.00   0.33472   3 ;    O22-   C21-   C12-   H2S
 11525  11526  11529  11530      9     0.00   0.62760   3 ;   H14T-  C114-  C113-  H13R
 11525  11526  11529  11531      9     0.00   0.62760   3 ;   H14T-  C114-  C113-  H13S
 11525  11526  11529  11532      9     0.00   0.66944   3 ;   H14T-  C114-  C113-  C112
 11526  11529  11532  11533      9     0.00   0.66944   3 ;   C114-  C113-  C112-  H12R
 11526  11529  11532  11534      9     0.00   0.66944   3 ;   C114-  C113-  C112-  H12S
 11526  11529  11532  11535      9     0.00   0.41840   1 ;   C114-  C113-  C112-  C111
 11526  11529  11532  11535      9     0.00   0.41840   2 ;   C114-  C113-  C112-  C111
 11526  11529  11532  11535      9     0.00   0.41840   4 ;   C114-  C113-  C112-  C111
 11526  11529  11532  11535      9     0.00   0.41840   5 ;   C114-  C113-  C112-  C111
 11526  11529  11532  11535      9     0.00   1.25520   3 ;   C114-  C113-  C112-  C111
 11527  11526  11529  11530      9     0.00   0.62760   3 ;   H14R-  C114-  C113-  H13R
 11527  11526  11529  11531      9     0.00   0.62760   3 ;   H14R-  C114-  C113-  H13S
 11527  11526  11529  11532      9     0.00   0.66944   3 ;   H14R-  C114-  C113-  C112
 11528  11526  11529  11530      9     0.00   0.62760   3 ;   H14S-  C114-  C113-  H13R
 11528  11526  11529  11531      9     0.00   0.62760   3 ;   H14S-  C114-  C113-  H13S
 11528  11526  11529  11532      9     0.00   0.66944   3 ;   H14S-  C114-  C113-  C112
 11529  11532  11535  11536      9     0.00   0.66944   3 ;   C113-  C112-  C111-  H11R
 11529  11532  11535  11537      9     0.00   0.66944   3 ;   C113-  C112-  C111-  H11S
 11529  11532  11535  11538      9     0.00   0.41840   1 ;   C113-  C112-  C111-  C110
 11529  11532  11535  11538      9     0.00   0.41840   2 ;   C113-  C112-  C111-  C110
 11529  11532  11535  11538      9     0.00   0.41840   4 ;   C113-  C112-  C111-  C110
 11529  11532  11535  11538      9     0.00   0.41840   5 ;   C113-  C112-  C111-  C110
 11529  11532  11535  11538      9     0.00   1.25520   3 ;   C113-  C112-  C111-  C110
 11530  11529  11532  11533      9     0.00   0.62760   3 ;   H13R-  C113-  C112-  H12R
 11530  11529  11532  11534      9     0.00   0.62760   3 ;   H13R-  C113-  C112-  H12S
 11530  11529  11532  11535      9     0.00   0.66944   3 ;   H13R-  C113-  C112-  C111
 11531  11529  11532  11533      9     0.00   0.62760   3 ;   H13S-  C113-  C112-  H12R
 11531  11529  11532  11534      9     0.00   0.62760   3 ;   H13S-  C113-  C112-  H12S
 11531  11529  11532  11535      9     0.00   0.66944   3 ;   H13S-  C113-  C112-  C111
 11532  11535  11538  11539      9     0.00   0.66944   3 ;   C112-  C111-  C110-  H10R
 11532  11535  11538  11540      9     0.00   0.66944   3 ;   C112-  C111-  C110-  H10S
 11532  11535  11538  11541      9     0.00   0.41840   1 ;   C112-  C111-  C110-   C19
 11532  11535  11538  11541      9     0.00   0.41840   2 ;   C112-  C111-  C110-   C19
 11532  11535  11538  11541      9     0.00   0.41840   4 ;   C112-  C111-  C110-   C19
 11532  11535  11538  11541      9     0.00   0.41840   5 ;   C112-  C111-  C110-   C19
 11532  11535  11538  11541      9     0.00   1.25520   3 ;   C112-  C111-  C110-   C19
 11533  11532  11535  11536      9     0.00   0.62760   3 ;   H12R-  C112-  C111-  H11R
 11533  11532  11535  11537      9     0.00   0.62760   3 ;   H12R-  C112-  C111-  H11S
 11533  11532  11535  11538      9     0.00   0.66944   3 ;   H12R-  C112-  C111-  C110
 11534  11532  11535  11536      9     0.00   0.62760   3 ;   H12S-  C112-  C111-  H11R
 11534  11532  11535  11537      9     0.00   0.62760   3 ;   H12S-  C112-  C111-  H11S
 11534  11532  11535  11538      9     0.00   0.66944   3 ;   H12S-  C112-  C111-  C110
 11535  11538  11541  11542      9     0.00   0.66944   3 ;   C111-  C110-   C19-   H9R
 11535  11538  11541  11543      9     0.00   0.66944   3 ;   C111-  C110-   C19-   H9S
 11535  11538  11541  11544      9     0.00   0.41840   1 ;   C111-  C110-   C19-   C18
 11535  11538  11541  11544      9     0.00   0.41840   2 ;   C111-  C110-   C19-   C18
 11535  11538  11541  11544      9     0.00   0.41840   4 ;   C111-  C110-   C19-   C18
 11535  11538  11541  11544      9     0.00   0.41840   5 ;   C111-  C110-   C19-   C18
 11535  11538  11541  11544      9     0.00   1.25520   3 ;   C111-  C110-   C19-   C18
 11536  11535  11538  11539      9     0.00   0.62760   3 ;   H11R-  C111-  C110-  H10R
 11536  11535  11538  11540      9     0.00   0.62760   3 ;   H11R-  C111-  C110-  H10S
 11536  11535  11538  11541      9     0.00   0.66944   3 ;   H11R-  C111-  C110-   C19
 11537  11535  11538  11539      9     0.00   0.62760   3 ;   H11S-  C111-  C110-  H10R
 11537  11535  11538  11540      9     0.00   0.62760   3 ;   H11S-  C111-  C110-  H10S
 11537  11535  11538  11541      9     0.00   0.66944   3 ;   H11S-  C111-  C110-   C19
 11538  11541  11544  11545      9     0.00   0.66944   3 ;   C110-   C19-   C18-   H8R
 11538  11541  11544  11546      9     0.00   0.66944   3 ;   C110-   C19-   C18-   H8S
 11538  11541  11544  11547      9     0.00   0.41840   1 ;   C110-   C19-   C18-   C17
 11538  11541  11544  11547      9     0.00   0.41840   2 ;   C110-   C19-   C18-   C17
 11538  11541  11544  11547      9     0.00   0.41840   4 ;   C110-   C19-   C18-   C17
 11538  11541  11544  11547      9     0.00   0.41840   5 ;   C110-   C19-   C18-   C17
 11538  11541  11544  11547      9     0.00   1.25520   3 ;   C110-   C19-   C18-   C17
 11539  11538  11541  11542      9     0.00   0.62760   3 ;   H10R-  C110-   C19-   H9R
 11539  11538  11541  11543      9     0.00   0.62760   3 ;   H10R-  C110-   C19-   H9S
 11539  11538  11541  11544      9     0.00   0.66944   3 ;   H10R-  C110-   C19-   C18
 11540  11538  11541  11542      9     0.00   0.62760   3 ;   H10S-  C110-   C19-   H9R
 11540  11538  11541  11543      9     0.00   0.62760   3 ;   H10S-  C110-   C19-   H9S
 11540  11538  11541  11544      9     0.00   0.66944   3 ;   H10S-  C110-   C19-   C18
 11541  11544  11547  11548      9     0.00   0.66944   3 ;    C19-   C18-   C17-   H7R
 11541  11544  11547  11549      9     0.00   0.66944   3 ;    C19-   C18-   C17-   H7S
 11541  11544  11547  11550      9     0.00   0.41840   1 ;    C19-   C18-   C17-   C16
 11541  11544  11547  11550      9     0.00   0.41840   2 ;    C19-   C18-   C17-   C16
 11541  11544  11547  11550      9     0.00   0.41840   4 ;    C19-   C18-   C17-   C16
 11541  11544  11547  11550      9     0.00   0.41840   5 ;    C19-   C18-   C17-   C16
 11541  11544  11547  11550      9     0.00   1.25520   3 ;    C19-   C18-   C17-   C16
 11542  11541  11544  11545      9     0.00   0.62760   3 ;    H9R-   C19-   C18-   H8R
 11542  11541  11544  11546      9     0.00   0.62760   3 ;    H9R-   C19-   C18-   H8S
 11542  11541  11544  11547      9     0.00   0.66944   3 ;    H9R-   C19-   C18-   C17
 11543  11541  11544  11545      9     0.00   0.62760   3 ;    H9S-   C19-   C18-   H8R
 11543  11541  11544  11546      9     0.00   0.62760   3 ;    H9S-   C19-   C18-   H8S
 11543  11541  11544  11547      9     0.00   0.66944   3 ;    H9S-   C19-   C18-   C17
 11544  11547  11550  11551      9     0.00   0.66944   3 ;    C18-   C17-   C16-   H6R
 11544  11547  11550  11552      9     0.00   0.66944   3 ;    C18-   C17-   C16-   H6S
 11544  11547  11550  11553      9     0.00   0.41840   1 ;    C18-   C17-   C16-   C15
 11544  11547  11550  11553      9     0.00   0.41840   2 ;    C18-   C17-   C16-   C15
 11544  11547  11550  11553      9     0.00   0.41840   4 ;    C18-   C17-   C16-   C15
 11544  11547  11550  11553      9     0.00   0.41840   5 ;    C18-   C17-   C16-   C15
 11544  11547  11550  11553      9     0.00   1.25520   3 ;    C18-   C17-   C16-   C15
 11545  11544  11547  11548      9     0.00   0.62760   3 ;    H8R-   C18-   C17-   H7R
 11545  11544  11547  11549      9     0.00   0.62760   3 ;    H8R-   C18-   C17-   H7S
 11545  11544  11547  11550      9     0.00   0.66944   3 ;    H8R-   C18-   C17-   C16
 11546  11544  11547  11548      9     0.00   0.62760   3 ;    H8S-   C18-   C17-   H7R
 11546  11544  11547  11549      9     0.00   0.62760   3 ;    H8S-   C18-   C17-   H7S
 11546  11544  11547  11550      9     0.00   0.66944   3 ;    H8S-   C18-   C17-   C16
 11547  11550  11553  11554      9     0.00   0.66944   3 ;    C17-   C16-   C15-   H5R
 11547  11550  11553  11555      9     0.00   0.66944   3 ;    C17-   C16-   C15-   H5S
 11547  11550  11553  11556      9     0.00   0.41840   1 ;    C17-   C16-   C15-   C14
 11547  11550  11553  11556      9     0.00   0.41840   2 ;    C17-   C16-   C15-   C14
 11547  11550  11553  11556      9     0.00   0.41840   4 ;    C17-   C16-   C15-   C14
 11547  11550  11553  11556      9     0.00   0.41840   5 ;    C17-   C16-   C15-   C14
 11547  11550  11553  11556      9     0.00   1.25520   3 ;    C17-   C16-   C15-   C14
 11548  11547  11550  11551      9     0.00   0.62760   3 ;    H7R-   C17-   C16-   H6R
 11548  11547  11550  11552      9     0.00   0.62760   3 ;    H7R-   C17-   C16-   H6S
 11548  11547  11550  11553      9     0.00   0.66944   3 ;    H7R-   C17-   C16-   C15
 11549  11547  11550  11551      9     0.00   0.62760   3 ;    H7S-   C17-   C16-   H6R
 11549  11547  11550  11552      9     0.00   0.62760   3 ;    H7S-   C17-   C16-   H6S
 11549  11547  11550  11553      9     0.00   0.66944   3 ;    H7S-   C17-   C16-   C15
 11550  11553  11556  11557      9     0.00   0.66944   3 ;    C16-   C15-   C14-   H4R
 11550  11553  11556  11558      9     0.00   0.66944   3 ;    C16-   C15-   C14-   H4S
 11550  11553  11556  11559      9     0.00   0.41840   1 ;    C16-   C15-   C14-   C13
 11550  11553  11556  11559      9     0.00   0.41840   2 ;    C16-   C15-   C14-   C13
 11550  11553  11556  11559      9     0.00   0.41840   4 ;    C16-   C15-   C14-   C13
 11550  11553  11556  11559      9     0.00   0.41840   5 ;    C16-   C15-   C14-   C13
 11550  11553  11556  11559      9     0.00   1.25520   3 ;    C16-   C15-   C14-   C13
 11551  11550  11553  11554      9     0.00   0.62760   3 ;    H6R-   C16-   C15-   H5R
 11551  11550  11553  11555      9     0.00   0.62760   3 ;    H6R-   C16-   C15-   H5S
 11551  11550  11553  11556      9     0.00   0.66944   3 ;    H6R-   C16-   C15-   C14
 11552  11550  11553  11554      9     0.00   0.62760   3 ;    H6S-   C16-   C15-   H5R
 11552  11550  11553  11555      9     0.00   0.62760   3 ;    H6S-   C16-   C15-   H5S
 11552  11550  11553  11556      9     0.00   0.66944   3 ;    H6S-   C16-   C15-   C14
 11553  11556  11559  11560      9     0.00   0.66944   3 ;    C15-   C14-   C13-   H3R
 11553  11556  11559  11561      9     0.00   0.66944   3 ;    C15-   C14-   C13-   H3S
 11553  11556  11559  11562      9     0.00   0.41840   1 ;    C15-   C14-   C13-   C12
 11553  11556  11559  11562      9     0.00   0.41840   2 ;    C15-   C14-   C13-   C12
 11553  11556  11559  11562      9     0.00   0.41840   4 ;    C15-   C14-   C13-   C12
 11553  11556  11559  11562      9     0.00   0.41840   5 ;    C15-   C14-   C13-   C12
 11553  11556  11559  11562      9     0.00   1.25520   3 ;    C15-   C14-   C13-   C12
 11554  11553  11556  11557      9     0.00   0.62760   3 ;    H5R-   C15-   C14-   H4R
 11554  11553  11556  11558      9     0.00   0.62760   3 ;    H5R-   C15-   C14-   H4S
 11554  11553  11556  11559      9     0.00   0.66944   3 ;    H5R-   C15-   C14-   C13
 11555  11553  11556  11557      9     0.00   0.62760   3 ;    H5S-   C15-   C14-   H4R
 11555  11553  11556  11558      9     0.00   0.62760   3 ;    H5S-   C15-   C14-   H4S
 11555  11553  11556  11559      9     0.00   0.66944   3 ;    H5S-   C15-   C14-   C13
 11556  11559  11562  11563      9     0.00   0.66944   3 ;    C14-   C13-   C12-   H2R
 11556  11559  11562  11564      9     0.00   0.66944   3 ;    C14-   C13-   C12-   H2S
 11557  11556  11559  11560      9     0.00   0.62760   3 ;    H4R-   C14-   C13-   H3R
 11557  11556  11559  11561      9     0.00   0.62760   3 ;    H4R-   C14-   C13-   H3S
 11557  11556  11559  11562      9     0.00   0.66944   3 ;    H4R-   C14-   C13-   C12
 11558  11556  11559  11560      9     0.00   0.62760   3 ;    H4S-   C14-   C13-   H3R
 11558  11556  11559  11561      9     0.00   0.62760   3 ;    H4S-   C14-   C13-   H3S
 11558  11556  11559  11562      9     0.00   0.66944   3 ;    H4S-   C14-   C13-   C12
 11560  11559  11562  11563      9     0.00   0.62760   3 ;    H3R-   C13-   C12-   H2R
 11560  11559  11562  11564      9     0.00   0.62760   3 ;    H3R-   C13-   C12-   H2S
 11561  11559  11562  11563      9     0.00   0.62760   3 ;    H3S-   C13-   C12-   H2R
 11561  11559  11562  11564      9     0.00   0.62760   3 ;    H3S-   C13-   C12-   H2S
 11565  11566  11569  11570      9     0.00   0.62760   3 ;   H14T-  C114-  C113-  H13R
 11565  11566  11569  11571      9     0.00   0.62760   3 ;   H14T-  C114-  C113-  H13S
 11565  11566  11569  11572      9     0.00   0.66944   3 ;   H14T-  C114-  C113-  C112
 11566  11569  11572  11573      9     0.00   0.66944   3 ;   C114-  C113-  C112-  H12R
 11566  11569  11572  11574      9     0.00   0.66944   3 ;   C114-  C113-  C112-  H12S
 11566  11569  11572  11575      9     0.00   0.41840   1 ;   C114-  C113-  C112-  C111
 11566  11569  11572  11575      9     0.00   0.41840   2 ;   C114-  C113-  C112-  C111
 11566  11569  11572  11575      9     0.00   0.41840   4 ;   C114-  C113-  C112-  C111
 11566  11569  11572  11575      9     0.00   0.41840   5 ;   C114-  C113-  C112-  C111
 11566  11569  11572  11575      9     0.00   1.25520   3 ;   C114-  C113-  C112-  C111
 11567  11566  11569  11570      9     0.00   0.62760   3 ;   H14R-  C114-  C113-  H13R
 11567  11566  11569  11571      9     0.00   0.62760   3 ;   H14R-  C114-  C113-  H13S
 11567  11566  11569  11572      9     0.00   0.66944   3 ;   H14R-  C114-  C113-  C112
 11568  11566  11569  11570      9     0.00   0.62760   3 ;   H14S-  C114-  C113-  H13R
 11568  11566  11569  11571      9     0.00   0.62760   3 ;   H14S-  C114-  C113-  H13S
 11568  11566  11569  11572      9     0.00   0.66944   3 ;   H14S-  C114-  C113-  C112
 11569  11572  11575  11576      9     0.00   0.66944   3 ;   C113-  C112-  C111-  H11R
 11569  11572  11575  11577      9     0.00   0.66944   3 ;   C113-  C112-  C111-  H11S
 11569  11572  11575  11578      9     0.00   0.41840   1 ;   C113-  C112-  C111-  C110
 11569  11572  11575  11578      9     0.00   0.41840   2 ;   C113-  C112-  C111-  C110
 11569  11572  11575  11578      9     0.00   0.41840   4 ;   C113-  C112-  C111-  C110
 11569  11572  11575  11578      9     0.00   0.41840   5 ;   C113-  C112-  C111-  C110
 11569  11572  11575  11578      9     0.00   1.25520   3 ;   C113-  C112-  C111-  C110
 11570  11569  11572  11573      9     0.00   0.62760   3 ;   H13R-  C113-  C112-  H12R
 11570  11569  11572  11574      9     0.00   0.62760   3 ;   H13R-  C113-  C112-  H12S
 11570  11569  11572  11575      9     0.00   0.66944   3 ;   H13R-  C113-  C112-  C111
 11571  11569  11572  11573      9     0.00   0.62760   3 ;   H13S-  C113-  C112-  H12R
 11571  11569  11572  11574      9     0.00   0.62760   3 ;   H13S-  C113-  C112-  H12S
 11571  11569  11572  11575      9     0.00   0.66944   3 ;   H13S-  C113-  C112-  C111
 11572  11575  11578  11579      9     0.00   0.66944   3 ;   C112-  C111-  C110-  H10R
 11572  11575  11578  11580      9     0.00   0.66944   3 ;   C112-  C111-  C110-  H10S
 11572  11575  11578  11581      9     0.00   0.41840   1 ;   C112-  C111-  C110-   C19
 11572  11575  11578  11581      9     0.00   0.41840   2 ;   C112-  C111-  C110-   C19
 11572  11575  11578  11581      9     0.00   0.41840   4 ;   C112-  C111-  C110-   C19
 11572  11575  11578  11581      9     0.00   0.41840   5 ;   C112-  C111-  C110-   C19
 11572  11575  11578  11581      9     0.00   1.25520   3 ;   C112-  C111-  C110-   C19
 11573  11572  11575  11576      9     0.00   0.62760   3 ;   H12R-  C112-  C111-  H11R
 11573  11572  11575  11577      9     0.00   0.62760   3 ;   H12R-  C112-  C111-  H11S
 11573  11572  11575  11578      9     0.00   0.66944   3 ;   H12R-  C112-  C111-  C110
 11574  11572  11575  11576      9     0.00   0.62760   3 ;   H12S-  C112-  C111-  H11R
 11574  11572  11575  11577      9     0.00   0.62760   3 ;   H12S-  C112-  C111-  H11S
 11574  11572  11575  11578      9     0.00   0.66944   3 ;   H12S-  C112-  C111-  C110
 11575  11578  11581  11582      9     0.00   0.66944   3 ;   C111-  C110-   C19-   H9R
 11575  11578  11581  11583      9     0.00   0.66944   3 ;   C111-  C110-   C19-   H9S
 11575  11578  11581  11584      9     0.00   0.41840   1 ;   C111-  C110-   C19-   C18
 11575  11578  11581  11584      9     0.00   0.41840   2 ;   C111-  C110-   C19-   C18
 11575  11578  11581  11584      9     0.00   0.41840   4 ;   C111-  C110-   C19-   C18
 11575  11578  11581  11584      9     0.00   0.41840   5 ;   C111-  C110-   C19-   C18
 11575  11578  11581  11584      9     0.00   1.25520   3 ;   C111-  C110-   C19-   C18
 11576  11575  11578  11579      9     0.00   0.62760   3 ;   H11R-  C111-  C110-  H10R
 11576  11575  11578  11580      9     0.00   0.62760   3 ;   H11R-  C111-  C110-  H10S
 11576  11575  11578  11581      9     0.00   0.66944   3 ;   H11R-  C111-  C110-   C19
 11577  11575  11578  11579      9     0.00   0.62760   3 ;   H11S-  C111-  C110-  H10R
 11577  11575  11578  11580      9     0.00   0.62760   3 ;   H11S-  C111-  C110-  H10S
 11577  11575  11578  11581      9     0.00   0.66944   3 ;   H11S-  C111-  C110-   C19
 11578  11581  11584  11585      9     0.00   0.66944   3 ;   C110-   C19-   C18-   H8R
 11578  11581  11584  11586      9     0.00   0.66944   3 ;   C110-   C19-   C18-   H8S
 11578  11581  11584  11587      9     0.00   0.41840   1 ;   C110-   C19-   C18-   C17
 11578  11581  11584  11587      9     0.00   0.41840   2 ;   C110-   C19-   C18-   C17
 11578  11581  11584  11587      9     0.00   0.41840   4 ;   C110-   C19-   C18-   C17
 11578  11581  11584  11587      9     0.00   0.41840   5 ;   C110-   C19-   C18-   C17
 11578  11581  11584  11587      9     0.00   1.25520   3 ;   C110-   C19-   C18-   C17
 11579  11578  11581  11582      9     0.00   0.62760   3 ;   H10R-  C110-   C19-   H9R
 11579  11578  11581  11583      9     0.00   0.62760   3 ;   H10R-  C110-   C19-   H9S
 11579  11578  11581  11584      9     0.00   0.66944   3 ;   H10R-  C110-   C19-   C18
 11580  11578  11581  11582      9     0.00   0.62760   3 ;   H10S-  C110-   C19-   H9R
 11580  11578  11581  11583      9     0.00   0.62760   3 ;   H10S-  C110-   C19-   H9S
 11580  11578  11581  11584      9     0.00   0.66944   3 ;   H10S-  C110-   C19-   C18
 11581  11584  11587  11588      9     0.00   0.66944   3 ;    C19-   C18-   C17-   H7R
 11581  11584  11587  11589      9     0.00   0.66944   3 ;    C19-   C18-   C17-   H7S
 11581  11584  11587  11590      9     0.00   0.41840   1 ;    C19-   C18-   C17-   C16
 11581  11584  11587  11590      9     0.00   0.41840   2 ;    C19-   C18-   C17-   C16
 11581  11584  11587  11590      9     0.00   0.41840   4 ;    C19-   C18-   C17-   C16
 11581  11584  11587  11590      9     0.00   0.41840   5 ;    C19-   C18-   C17-   C16
 11581  11584  11587  11590      9     0.00   1.25520   3 ;    C19-   C18-   C17-   C16
 11582  11581  11584  11585      9     0.00   0.62760   3 ;    H9R-   C19-   C18-   H8R
 11582  11581  11584  11586      9     0.00   0.62760   3 ;    H9R-   C19-   C18-   H8S
 11582  11581  11584  11587      9     0.00   0.66944   3 ;    H9R-   C19-   C18-   C17
 11583  11581  11584  11585      9     0.00   0.62760   3 ;    H9S-   C19-   C18-   H8R
 11583  11581  11584  11586      9     0.00   0.62760   3 ;    H9S-   C19-   C18-   H8S
 11583  11581  11584  11587      9     0.00   0.66944   3 ;    H9S-   C19-   C18-   C17
 11584  11587  11590  11591      9     0.00   0.66944   3 ;    C18-   C17-   C16-   H6R
 11584  11587  11590  11592      9     0.00   0.66944   3 ;    C18-   C17-   C16-   H6S
 11584  11587  11590  11593      9     0.00   0.41840   1 ;    C18-   C17-   C16-   C15
 11584  11587  11590  11593      9     0.00   0.41840   2 ;    C18-   C17-   C16-   C15
 11584  11587  11590  11593      9     0.00   0.41840   4 ;    C18-   C17-   C16-   C15
 11584  11587  11590  11593      9     0.00   0.41840   5 ;    C18-   C17-   C16-   C15
 11584  11587  11590  11593      9     0.00   1.25520   3 ;    C18-   C17-   C16-   C15
 11585  11584  11587  11588      9     0.00   0.62760   3 ;    H8R-   C18-   C17-   H7R
 11585  11584  11587  11589      9     0.00   0.62760   3 ;    H8R-   C18-   C17-   H7S
 11585  11584  11587  11590      9     0.00   0.66944   3 ;    H8R-   C18-   C17-   C16
 11586  11584  11587  11588      9     0.00   0.62760   3 ;    H8S-   C18-   C17-   H7R
 11586  11584  11587  11589      9     0.00   0.62760   3 ;    H8S-   C18-   C17-   H7S
 11586  11584  11587  11590      9     0.00   0.66944   3 ;    H8S-   C18-   C17-   C16
 11587  11590  11593  11594      9     0.00   0.66944   3 ;    C17-   C16-   C15-   H5R
 11587  11590  11593  11595      9     0.00   0.66944   3 ;    C17-   C16-   C15-   H5S
 11587  11590  11593  11596      9     0.00   0.41840   1 ;    C17-   C16-   C15-   C14
 11587  11590  11593  11596      9     0.00   0.41840   2 ;    C17-   C16-   C15-   C14
 11587  11590  11593  11596      9     0.00   0.41840   4 ;    C17-   C16-   C15-   C14
 11587  11590  11593  11596      9     0.00   0.41840   5 ;    C17-   C16-   C15-   C14
 11587  11590  11593  11596      9     0.00   1.25520   3 ;    C17-   C16-   C15-   C14
 11588  11587  11590  11591      9     0.00   0.62760   3 ;    H7R-   C17-   C16-   H6R
 11588  11587  11590  11592      9     0.00   0.62760   3 ;    H7R-   C17-   C16-   H6S
 11588  11587  11590  11593      9     0.00   0.66944   3 ;    H7R-   C17-   C16-   C15
 11589  11587  11590  11591      9     0.00   0.62760   3 ;    H7S-   C17-   C16-   H6R
 11589  11587  11590  11592      9     0.00   0.62760   3 ;    H7S-   C17-   C16-   H6S
 11589  11587  11590  11593      9     0.00   0.66944   3 ;    H7S-   C17-   C16-   C15
 11590  11593  11596  11597      9     0.00   0.66944   3 ;    C16-   C15-   C14-   H4R
 11590  11593  11596  11598      9     0.00   0.66944   3 ;    C16-   C15-   C14-   H4S
 11590  11593  11596  11599      9     0.00   0.41840   1 ;    C16-   C15-   C14-   C13
 11590  11593  11596  11599      9     0.00   0.41840   2 ;    C16-   C15-   C14-   C13
 11590  11593  11596  11599      9     0.00   0.41840   4 ;    C16-   C15-   C14-   C13
 11590  11593  11596  11599      9     0.00   0.41840   5 ;    C16-   C15-   C14-   C13
 11590  11593  11596  11599      9     0.00   1.25520   3 ;    C16-   C15-   C14-   C13
 11591  11590  11593  11594      9     0.00   0.62760   3 ;    H6R-   C16-   C15-   H5R
 11591  11590  11593  11595      9     0.00   0.62760   3 ;    H6R-   C16-   C15-   H5S
 11591  11590  11593  11596      9     0.00   0.66944   3 ;    H6R-   C16-   C15-   C14
 11592  11590  11593  11594      9     0.00   0.62760   3 ;    H6S-   C16-   C15-   H5R
 11592  11590  11593  11595      9     0.00   0.62760   3 ;    H6S-   C16-   C15-   H5S
 11592  11590  11593  11596      9     0.00   0.66944   3 ;    H6S-   C16-   C15-   C14
 11593  11596  11599  11600      9     0.00   0.66944   3 ;    C15-   C14-   C13-   H3R
 11593  11596  11599  11601      9     0.00   0.66944   3 ;    C15-   C14-   C13-   H3S
 11593  11596  11599  11602      9     0.00   0.41840   1 ;    C15-   C14-   C13-   C12
 11593  11596  11599  11602      9     0.00   0.41840   2 ;    C15-   C14-   C13-   C12
 11593  11596  11599  11602      9     0.00   0.41840   4 ;    C15-   C14-   C13-   C12
 11593  11596  11599  11602      9     0.00   0.41840   5 ;    C15-   C14-   C13-   C12
 11593  11596  11599  11602      9     0.00   1.25520   3 ;    C15-   C14-   C13-   C12
 11594  11593  11596  11597      9     0.00   0.62760   3 ;    H5R-   C15-   C14-   H4R
 11594  11593  11596  11598      9     0.00   0.62760   3 ;    H5R-   C15-   C14-   H4S
 11594  11593  11596  11599      9     0.00   0.66944   3 ;    H5R-   C15-   C14-   C13
 11595  11593  11596  11597      9     0.00   0.62760   3 ;    H5S-   C15-   C14-   H4R
 11595  11593  11596  11598      9     0.00   0.62760   3 ;    H5S-   C15-   C14-   H4S
 11595  11593  11596  11599      9     0.00   0.66944   3 ;    H5S-   C15-   C14-   C13
 11596  11599  11602  11603      9     0.00   0.66944   3 ;    C14-   C13-   C12-   H2R
 11596  11599  11602  11604      9     0.00   0.66944   3 ;    C14-   C13-   C12-   H2S
 11596  11599  11602  11605      9     0.00   0.65270   3 ;    C14-   C13-   C12-   C11
 11597  11596  11599  11600      9     0.00   0.62760   3 ;    H4R-   C14-   C13-   H3R
 11597  11596  11599  11601      9     0.00   0.62760   3 ;    H4R-   C14-   C13-   H3S
 11597  11596  11599  11602      9     0.00   0.66944   3 ;    H4R-   C14-   C13-   C12
 11598  11596  11599  11600      9     0.00   0.62760   3 ;    H4S-   C14-   C13-   H3R
 11598  11596  11599  11601      9     0.00   0.62760   3 ;    H4S-   C14-   C13-   H3S
 11598  11596  11599  11602      9     0.00   0.66944   3 ;    H4S-   C14-   C13-   C12
 11599  11602  11605  11606      9   180.00   0.00000   2 ;    C13-   C12-   C11-   O12
 11599  11602  11605  11607      9   180.00   0.00000   2 ;    C13-   C12-   C11-   O11
 11600  11599  11602  11603      9     0.00   0.62760   3 ;    H3R-   C13-   C12-   H2R
 11600  11599  11602  11604      9     0.00   0.62760   3 ;    H3R-   C13-   C12-   H2S
 11600  11599  11602  11605      9     0.00   0.65270   3 ;    H3R-   C13-   C12-   C11
 11601  11599  11602  11603      9     0.00   0.62760   3 ;    H3S-   C13-   C12-   H2R
 11601  11599  11602  11604      9     0.00   0.62760   3 ;    H3S-   C13-   C12-   H2S
 11601  11599  11602  11605      9     0.00   0.65270   3 ;    H3S-   C13-   C12-   C11
 11602  11605  11607  11608      9   180.00  11.29680   2 ;    C12-   C11-   O11-    C1
 11603  11602  11605  11606      9     0.00   3.34720   1 ;    H2R-   C12-   C11-   O12
 11603  11602  11605  11606      9   180.00   0.33472   3 ;    H2R-   C12-   C11-   O12
 11603  11602  11605  11607      9   180.00   0.00000   2 ;    H2R-   C12-   C11-   O11
 11604  11602  11605  11606      9     0.00   3.34720   1 ;    H2S-   C12-   C11-   O12
 11604  11602  11605  11606      9   180.00   0.33472   3 ;    H2S-   C12-   C11-   O12
 11604  11602  11605  11607      9   180.00   0.00000   2 ;    H2S-   C12-   C11-   O11
 11605  11607  11608  11609      9     0.00   1.60247   3 ;    C11-   O11-    C1-    HR
 11605  11607  11608  11610      9     0.00   1.60247   3 ;    C11-   O11-    C1-    HS
 11605  11607  11608  11611      9     0.00  -0.41840   1 ;    C11-   O11-    C1-    C2
 11606  11605  11607  11608      9   180.00   5.85760   1 ;    O12-   C11-   O11-    C1
 11606  11605  11607  11608      9   180.00  11.29680   2 ;    O12-   C11-   O11-    C1
 11607  11608  11611  11612      9     0.00   0.00000   0 ;    O11-    C1-    C2-    HX
 11607  11608  11611  11612      9     0.00   1.04600   1 ;    O11-    C1-    C2-    HX
 11607  11608  11611  11613      9     0.00   0.00000   0 ;    O11-    C1-    C2-    C3
 11607  11608  11611  11613      9     0.00   0.00000   0 ;    O11-    C1-    C2-    C3
 11607  11608  11611  11613      9     0.00   0.00000   0 ;    O11-    C1-    C2-    C3
 11607  11608  11611  11613      9     0.00   0.00000   0 ;    O11-    C1-    C2-    C3
 11607  11608  11611  11613      9     0.00   0.00000   0 ;    O11-    C1-    C2-    C3
 11607  11608  11611  11640      9     0.00   1.25520   2 ;    O11-    C1-    C2-   O21
 11607  11608  11611  11640      9     0.00   4.18400   3 ;    O11-    C1-    C2-   O21
 11607  11608  11611  11640      9   180.00  -0.41840   1 ;    O11-    C1-    C2-   O21
 11608  11611  11613  11614      9     0.00   0.65270   3 ;     C1-    C2-    C3-    HA
 11608  11611  11613  11615      9     0.00   0.65270   3 ;     C1-    C2-    C3-    HB
 11608  11611  11613  11616      9   180.00   3.34720   1 ;     C1-    C2-    C3-   O31
 11608  11611  11640  11641      9     0.00  -0.41840   1 ;     C1-    C2-   O21-   C21
 11609  11608  11611  11612      9     0.00   0.65270   3 ;     HR-    C1-    C2-    HX
 11609  11608  11611  11613      9     0.00   0.65270   3 ;     HR-    C1-    C2-    C3
 11609  11608  11611  11640      9     0.00   0.00000   0 ;     HR-    C1-    C2-   O21
 11609  11608  11611  11640      9     0.00   1.04600   1 ;     HR-    C1-    C2-   O21
 11610  11608  11611  11612      9     0.00   0.65270   3 ;     HS-    C1-    C2-    HX
 11610  11608  11611  11613      9     0.00   0.65270   3 ;     HS-    C1-    C2-    C3
 11610  11608  11611  11640      9     0.00   0.00000   0 ;     HS-    C1-    C2-   O21
 11610  11608  11611  11640      9     0.00   1.04600   1 ;     HS-    C1-    C2-   O21
 11611  11613  11616  11617      9     0.00   0.00000   0 ;     C2-    C3-   O31-   P31
 11611  11613  11616  11617      9   180.00  -3.34720   2 ;     C2-    C3-   O31-   P31
 11611  11640  11641  11642      9   180.00   5.85760   1 ;     C2-   O21-   C21-   O22
 11611  11640  11641  11642      9   180.00  11.29680   2 ;     C2-   O21-   C21-   O22
 11611  11640  11641  11680      9   180.00  11.29680   2 ;     C2-   O21-   C21-   C12
 11612  11611  11613  11614      9     0.00   0.65270   3 ;     HX-    C2-    C3-    HA
 11612  11611  11613  11615      9     0.00   0.65270   3 ;     HX-    C2-    C3-    HB
 11612  11611  11613  11616      9     0.00   0.00000   0 ;     HX-    C2-    C3-   O31
 11612  11611  11613  11616      9     0.00   1.04600   1 ;     HX-    C2-    C3-   O31
 11612  11611  11640  11641      9     0.00   1.60247   3 ;     HX-    C2-   O21-   C21
 11613  11611  11640  11641      9     0.00  -0.41840   1 ;     C3-    C2-   O21-   C21
 11613  11616  11617  11618      9     0.00   2.51040   3 ;     C3-   O31-   P31-   O32
 11613  11616  11617  11618      9     0.00   9.62320   2 ;     C3-   O31-   P31-   O32
 11613  11616  11617  11638      9     0.00   0.00000   0 ;     C3-   O31-   P31-   O33
 11613  11616  11617  11638      9     0.00   0.00000   0 ;     C3-   O31-   P31-   O33
 11613  11616  11617  11638      9     0.00   0.00000   0 ;     C3-   O31-   P31-   O33
 11613  11616  11617  11638      9     0.00   0.00000   0 ;     C3-   O31-   P31-   O33
 11613  11616  11617  11638      9     0.00   0.83680   2 ;     C3-   O31-   P31-   O33
 11613  11616  11617  11639      9     0.00   0.00000   0 ;     C3-   O31-   P31-   O34
 11613  11616  11617  11639      9     0.00   0.00000   0 ;     C3-   O31-   P31-   O34
 11613  11616  11617  11639      9     0.00   0.00000   0 ;     C3-   O31-   P31-   O34
 11613  11616  11617  11639      9     0.00   0.00000   0 ;     C3-   O31-   P31-   O34
 11613  11616  11617  11639      9     0.00   0.83680   2 ;     C3-   O31-   P31-   O34
 11614  11613  11611  11640      9     0.00   0.00000   0 ;     HA-    C3-    C2-   O21
 11614  11613  11611  11640      9     0.00   1.04600   1 ;     HA-    C3-    C2-   O21
 11614  11613  11616  11617      9     0.00   0.00000   0 ;     HA-    C3-   O31-   P31
 11614  11613  11616  11617      9     0.00   0.00000   0 ;     HA-    C3-   O31-   P31
 11614  11613  11616  11617      9     0.00   0.00000   0 ;     HA-    C3-   O31-   P31
 11614  11613  11616  11617      9     0.00   0.00000   0 ;     HA-    C3-   O31-   P31
 11614  11613  11616  11617      9     0.00   1.60247   3 ;     HA-    C3-   O31-   P31
 11615  11613  11611  11640      9     0.00   0.00000   0 ;     HB-    C3-    C2-   O21
 11615  11613  11611  11640      9     0.00   1.04600   1 ;     HB-    C3-    C2-   O21
 11615  11613  11616  11617      9     0.00   0.00000   0 ;     HB-    C3-   O31-   P31
 11615  11613  11616  11617      9     0.00   0.00000   0 ;     HB-    C3-   O31-   P31
 11615  11613  11616  11617      9     0.00   0.00000   0 ;     HB-    C3-   O31-   P31
 11615  11613  11616  11617      9     0.00   0.00000   0 ;     HB-    C3-   O31-   P31
 11615  11613  11616  11617      9     0.00   1.60247   3 ;     HB-    C3-   O31-   P31
 11616  11613  11611  11640      9     0.00   0.00000   0 ;    O31-    C3-    C2-   O21
 11616  11613  11611  11640      9     0.00   0.00000   0 ;    O31-    C3-    C2-   O21
 11616  11613  11611  11640      9     0.00   0.00000   0 ;    O31-    C3-    C2-   O21
 11616  11613  11611  11640      9     0.00   0.00000   0 ;    O31-    C3-    C2-   O21
 11616  11613  11611  11640      9     0.00   0.00000   0 ;    O31-    C3-    C2-   O21
 11616  11617  11618  11619      9     0.00   2.51040   3 ;    O31-   P31-   O32-   C31
 11616  11617  11618  11619      9     0.00   9.62320   2 ;    O31-   P31-   O32-   C31
 11617  11618  11619  11620      9     0.00   0.00000   0 ;    P31-   O32-   C31-   H1A
 11617  11618  11619  11620      9     0.00   0.00000   0 ;    P31-   O32-   C31-   H1A
 11617  11618  11619  11620      9     0.00   0.00000   0 ;    P31-   O32-   C31-   H1A
 11617  11618  11619  11620      9     0.00   0.00000   0 ;    P31-   O32-   C31-   H1A
 11617  11618  11619  11620      9     0.00   1.60247   3 ;    P31-   O32-   C31-   H1A
 11617  11618  11619  11621      9     0.00   0.00000   0 ;    P31-   O32-   C31-   H1B
 11617  11618  11619  11621      9     0.00   0.00000   0 ;    P31-   O32-   C31-   H1B
 11617  11618  11619  11621      9     0.00   0.00000   0 ;    P31-   O32-   C31-   H1B
 11617  11618  11619  11621      9     0.00   0.00000   0 ;    P31-   O32-   C31-   H1B
 11617  11618  11619  11621      9     0.00   1.60247   3 ;    P31-   O32-   C31-   H1B
 11617  11618  11619  11622      9     0.00   0.00000   0 ;    P31-   O32-   C31-   C32
 11617  11618  11619  11622      9   180.00  -3.34720   2 ;    P31-   O32-   C31-   C32
 11618  11619  11622  11623      9     0.00   0.65270   3 ;    O32-   C31-   C32-   H2A
 11618  11619  11622  11624      9     0.00   0.65270   3 ;    O32-   C31-   C32-   H2B
 11618  11619  11622  11625      9     0.00   4.18400   3 ;    O32-   C31-   C32-   N31
 11619  11618  11617  11638      9     0.00   0.00000   0 ;    C31-   O32-   P31-   O33
 11619  11618  11617  11638      9     0.00   0.00000   0 ;    C31-   O32-   P31-   O33
 11619  11618  11617  11638      9     0.00   0.00000   0 ;    C31-   O32-   P31-   O33
 11619  11618  11617  11638      9     0.00   0.00000   0 ;    C31-   O32-   P31-   O33
 11619  11618  11617  11638      9     0.00   0.83680   2 ;    C31-   O32-   P31-   O33
 11619  11618  11617  11639      9     0.00   0.00000   0 ;    C31-   O32-   P31-   O34
 11619  11618  11617  11639      9     0.00   0.00000   0 ;    C31-   O32-   P31-   O34
 11619  11618  11617  11639      9     0.00   0.00000   0 ;    C31-   O32-   P31-   O34
 11619  11618  11617  11639      9     0.00   0.00000   0 ;    C31-   O32-   P31-   O34
 11619  11618  11617  11639      9     0.00   0.83680   2 ;    C31-   O32-   P31-   O34
 11619  11622  11625  11626      9     0.00   0.65270   3 ;    C31-   C32-   N31-   C33
 11619  11622  11625  11630      9     0.00   0.65270   3 ;    C31-   C32-   N31-   C34
 11619  11622  11625  11634      9     0.00   0.65270   3 ;    C31-   C32-   N31-   C35
 11620  11619  11622  11623      9     0.00   0.65270   3 ;    H1A-   C31-   C32-   H2A
 11620  11619  11622  11624      9     0.00   0.65270   3 ;    H1A-   C31-   C32-   H2B
 11620  11619  11622  11625      9     0.00   0.65270   3 ;    H1A-   C31-   C32-   N31
 11621  11619  11622  11623      9     0.00   0.65270   3 ;    H1B-   C31-   C32-   H2A
 11621  11619  11622  11624      9     0.00   0.65270   3 ;    H1B-   C31-   C32-   H2B
 11621  11619  11622  11625      9     0.00   0.65270   3 ;    H1B-   C31-   C32-   N31
 11622  11625  11626  11627      9     0.00   0.65270   3 ;    C32-   N31-   C33-   H3A
 11622  11625  11626  11628      9     0.00   0.65270   3 ;    C32-   N31-   C33-   H3B
 11622  11625  11626  11629      9     0.00   0.65270   3 ;    C32-   N31-   C33-   H3C
 11622  11625  11630  11631      9     0.00   0.65270   3 ;    C32-   N31-   C34-   H4A
 11622  11625  11630  11632      9     0.00   0.65270   3 ;    C32-   N31-   C34-   H4B
 11622  11625  11630  11633      9     0.00   0.65270   3 ;    C32-   N31-   C34-   H4C
 11622  11625  11634  11635      9     0.00   0.65270   3 ;    C32-   N31-   C35-   H5A
 11622  11625  11634  11636      9     0.00   0.65270   3 ;    C32-   N31-   C35-   H5B
 11622  11625  11634  11637      9     0.00   0.65270   3 ;    C32-   N31-   C35-   H5C
 11623  11622  11625  11626      9     0.00   0.65270   3 ;    H2A-   C32-   N31-   C33
 11623  11622  11625  11630      9     0.00   0.65270   3 ;    H2A-   C32-   N31-   C34
 11623  11622  11625  11634      9     0.00   0.65270   3 ;    H2A-   C32-   N31-   C35
 11624  11622  11625  11626      9     0.00   0.65270   3 ;    H2B-   C32-   N31-   C33
 11624  11622  11625  11630      9     0.00   0.65270   3 ;    H2B-   C32-   N31-   C34
 11624  11622  11625  11634      9     0.00   0.65270   3 ;    H2B-   C32-   N31-   C35
 11626  11625  11630  11631      9     0.00   0.65270   3 ;    C33-   N31-   C34-   H4A
 11626  11625  11630  11632      9     0.00   0.65270   3 ;    C33-   N31-   C34-   H4B
 11626  11625  11630  11633      9     0.00   0.65270   3 ;    C33-   N31-   C34-   H4C
 11626  11625  11634  11635      9     0.00   0.65270   3 ;    C33-   N31-   C35-   H5A
 11626  11625  11634  11636      9     0.00   0.65270   3 ;    C33-   N31-   C35-   H5B
 11626  11625  11634  11637      9     0.00   0.65270   3 ;    C33-   N31-   C35-   H5C
 11627  11626  11625  11630      9     0.00   0.65270   3 ;    H3A-   C33-   N31-   C34
 11627  11626  11625  11634      9     0.00   0.65270   3 ;    H3A-   C33-   N31-   C35
 11628  11626  11625  11630      9     0.00   0.65270   3 ;    H3B-   C33-   N31-   C34
 11628  11626  11625  11634      9     0.00   0.65270   3 ;    H3B-   C33-   N31-   C35
 11629  11626  11625  11630      9     0.00   0.65270   3 ;    H3C-   C33-   N31-   C34
 11629  11626  11625  11634      9     0.00   0.65270   3 ;    H3C-   C33-   N31-   C35
 11630  11625  11634  11635      9     0.00   0.65270   3 ;    C34-   N31-   C35-   H5A
 11630  11625  11634  11636      9     0.00   0.65270   3 ;    C34-   N31-   C35-   H5B
 11630  11625  11634  11637      9     0.00   0.65270   3 ;    C34-   N31-   C35-   H5C
 11631  11630  11625  11634      9     0.00   0.65270   3 ;    H4A-   C34-   N31-   C35
 11632  11630  11625  11634      9     0.00   0.65270   3 ;    H4B-   C34-   N31-   C35
 11633  11630  11625  11634      9     0.00   0.65270   3 ;    H4C-   C34-   N31-   C35
 11640  11641  11680  11677      9   180.00   0.00000   2 ;    O21-   C21-   C12-   C13
 11640  11641  11680  11681      9   180.00   0.00000   2 ;    O21-   C21-   C12-   H2R
 11640  11641  11680  11682      9   180.00   0.00000   2 ;    O21-   C21-   C12-   H2S
 11641  11680  11677  11674      9     0.00   0.65270   3 ;    C21-   C12-   C13-   C14
 11641  11680  11677  11678      9     0.00   0.65270   3 ;    C21-   C12-   C13-   H3R
 11641  11680  11677  11679      9     0.00   0.65270   3 ;    C21-   C12-   C13-   H3S
 11642  11641  11680  11677      9   180.00   0.00000   2 ;    O22-   C21-   C12-   C13
 11642  11641  11680  11681      9     0.00   3.34720   1 ;    O22-   C21-   C12-   H2R
 11642  11641  11680  11681      9   180.00   0.33472   3 ;    O22-   C21-   C12-   H2R
 11642  11641  11680  11682      9     0.00   3.34720   1 ;    O22-   C21-   C12-   H2S
 11642  11641  11680  11682      9   180.00   0.33472   3 ;    O22-   C21-   C12-   H2S
 11643  11644  11647  11648      9     0.00   0.62760   3 ;   H14T-  C114-  C113-  H13R
 11643  11644  11647  11649      9     0.00   0.62760   3 ;   H14T-  C114-  C113-  H13S
 11643  11644  11647  11650      9     0.00   0.66944   3 ;   H14T-  C114-  C113-  C112
 11644  11647  11650  11651      9     0.00   0.66944   3 ;   C114-  C113-  C112-  H12R
 11644  11647  11650  11652      9     0.00   0.66944   3 ;   C114-  C113-  C112-  H12S
 11644  11647  11650  11653      9     0.00   0.41840   1 ;   C114-  C113-  C112-  C111
 11644  11647  11650  11653      9     0.00   0.41840   2 ;   C114-  C113-  C112-  C111
 11644  11647  11650  11653      9     0.00   0.41840   4 ;   C114-  C113-  C112-  C111
 11644  11647  11650  11653      9     0.00   0.41840   5 ;   C114-  C113-  C112-  C111
 11644  11647  11650  11653      9     0.00   1.25520   3 ;   C114-  C113-  C112-  C111
 11645  11644  11647  11648      9     0.00   0.62760   3 ;   H14R-  C114-  C113-  H13R
 11645  11644  11647  11649      9     0.00   0.62760   3 ;   H14R-  C114-  C113-  H13S
 11645  11644  11647  11650      9     0.00   0.66944   3 ;   H14R-  C114-  C113-  C112
 11646  11644  11647  11648      9     0.00   0.62760   3 ;   H14S-  C114-  C113-  H13R
 11646  11644  11647  11649      9     0.00   0.62760   3 ;   H14S-  C114-  C113-  H13S
 11646  11644  11647  11650      9     0.00   0.66944   3 ;   H14S-  C114-  C113-  C112
 11647  11650  11653  11654      9     0.00   0.66944   3 ;   C113-  C112-  C111-  H11R
 11647  11650  11653  11655      9     0.00   0.66944   3 ;   C113-  C112-  C111-  H11S
 11647  11650  11653  11656      9     0.00   0.41840   1 ;   C113-  C112-  C111-  C110
 11647  11650  11653  11656      9     0.00   0.41840   2 ;   C113-  C112-  C111-  C110
 11647  11650  11653  11656      9     0.00   0.41840   4 ;   C113-  C112-  C111-  C110
 11647  11650  11653  11656      9     0.00   0.41840   5 ;   C113-  C112-  C111-  C110
 11647  11650  11653  11656      9     0.00   1.25520   3 ;   C113-  C112-  C111-  C110
 11648  11647  11650  11651      9     0.00   0.62760   3 ;   H13R-  C113-  C112-  H12R
 11648  11647  11650  11652      9     0.00   0.62760   3 ;   H13R-  C113-  C112-  H12S
 11648  11647  11650  11653      9     0.00   0.66944   3 ;   H13R-  C113-  C112-  C111
 11649  11647  11650  11651      9     0.00   0.62760   3 ;   H13S-  C113-  C112-  H12R
 11649  11647  11650  11652      9     0.00   0.62760   3 ;   H13S-  C113-  C112-  H12S
 11649  11647  11650  11653      9     0.00   0.66944   3 ;   H13S-  C113-  C112-  C111
 11650  11653  11656  11657      9     0.00   0.66944   3 ;   C112-  C111-  C110-  H10R
 11650  11653  11656  11658      9     0.00   0.66944   3 ;   C112-  C111-  C110-  H10S
 11650  11653  11656  11659      9     0.00   0.41840   1 ;   C112-  C111-  C110-   C19
 11650  11653  11656  11659      9     0.00   0.41840   2 ;   C112-  C111-  C110-   C19
 11650  11653  11656  11659      9     0.00   0.41840   4 ;   C112-  C111-  C110-   C19
 11650  11653  11656  11659      9     0.00   0.41840   5 ;   C112-  C111-  C110-   C19
 11650  11653  11656  11659      9     0.00   1.25520   3 ;   C112-  C111-  C110-   C19
 11651  11650  11653  11654      9     0.00   0.62760   3 ;   H12R-  C112-  C111-  H11R
 11651  11650  11653  11655      9     0.00   0.62760   3 ;   H12R-  C112-  C111-  H11S
 11651  11650  11653  11656      9     0.00   0.66944   3 ;   H12R-  C112-  C111-  C110
 11652  11650  11653  11654      9     0.00   0.62760   3 ;   H12S-  C112-  C111-  H11R
 11652  11650  11653  11655      9     0.00   0.62760   3 ;   H12S-  C112-  C111-  H11S
 11652  11650  11653  11656      9     0.00   0.66944   3 ;   H12S-  C112-  C111-  C110
 11653  11656  11659  11660      9     0.00   0.66944   3 ;   C111-  C110-   C19-   H9R
 11653  11656  11659  11661      9     0.00   0.66944   3 ;   C111-  C110-   C19-   H9S
 11653  11656  11659  11662      9     0.00   0.41840   1 ;   C111-  C110-   C19-   C18
 11653  11656  11659  11662      9     0.00   0.41840   2 ;   C111-  C110-   C19-   C18
 11653  11656  11659  11662      9     0.00   0.41840   4 ;   C111-  C110-   C19-   C18
 11653  11656  11659  11662      9     0.00   0.41840   5 ;   C111-  C110-   C19-   C18
 11653  11656  11659  11662      9     0.00   1.25520   3 ;   C111-  C110-   C19-   C18
 11654  11653  11656  11657      9     0.00   0.62760   3 ;   H11R-  C111-  C110-  H10R
 11654  11653  11656  11658      9     0.00   0.62760   3 ;   H11R-  C111-  C110-  H10S
 11654  11653  11656  11659      9     0.00   0.66944   3 ;   H11R-  C111-  C110-   C19
 11655  11653  11656  11657      9     0.00   0.62760   3 ;   H11S-  C111-  C110-  H10R
 11655  11653  11656  11658      9     0.00   0.62760   3 ;   H11S-  C111-  C110-  H10S
 11655  11653  11656  11659      9     0.00   0.66944   3 ;   H11S-  C111-  C110-   C19
 11656  11659  11662  11663      9     0.00   0.66944   3 ;   C110-   C19-   C18-   H8R
 11656  11659  11662  11664      9     0.00   0.66944   3 ;   C110-   C19-   C18-   H8S
 11656  11659  11662  11665      9     0.00   0.41840   1 ;   C110-   C19-   C18-   C17
 11656  11659  11662  11665      9     0.00   0.41840   2 ;   C110-   C19-   C18-   C17
 11656  11659  11662  11665      9     0.00   0.41840   4 ;   C110-   C19-   C18-   C17
 11656  11659  11662  11665      9     0.00   0.41840   5 ;   C110-   C19-   C18-   C17
 11656  11659  11662  11665      9     0.00   1.25520   3 ;   C110-   C19-   C18-   C17
 11657  11656  11659  11660      9     0.00   0.62760   3 ;   H10R-  C110-   C19-   H9R
 11657  11656  11659  11661      9     0.00   0.62760   3 ;   H10R-  C110-   C19-   H9S
 11657  11656  11659  11662      9     0.00   0.66944   3 ;   H10R-  C110-   C19-   C18
 11658  11656  11659  11660      9     0.00   0.62760   3 ;   H10S-  C110-   C19-   H9R
 11658  11656  11659  11661      9     0.00   0.62760   3 ;   H10S-  C110-   C19-   H9S
 11658  11656  11659  11662      9     0.00   0.66944   3 ;   H10S-  C110-   C19-   C18
 11659  11662  11665  11666      9     0.00   0.66944   3 ;    C19-   C18-   C17-   H7R
 11659  11662  11665  11667      9     0.00   0.66944   3 ;    C19-   C18-   C17-   H7S
 11659  11662  11665  11668      9     0.00   0.41840   1 ;    C19-   C18-   C17-   C16
 11659  11662  11665  11668      9     0.00   0.41840   2 ;    C19-   C18-   C17-   C16
 11659  11662  11665  11668      9     0.00   0.41840   4 ;    C19-   C18-   C17-   C16
 11659  11662  11665  11668      9     0.00   0.41840   5 ;    C19-   C18-   C17-   C16
 11659  11662  11665  11668      9     0.00   1.25520   3 ;    C19-   C18-   C17-   C16
 11660  11659  11662  11663      9     0.00   0.62760   3 ;    H9R-   C19-   C18-   H8R
 11660  11659  11662  11664      9     0.00   0.62760   3 ;    H9R-   C19-   C18-   H8S
 11660  11659  11662  11665      9     0.00   0.66944   3 ;    H9R-   C19-   C18-   C17
 11661  11659  11662  11663      9     0.00   0.62760   3 ;    H9S-   C19-   C18-   H8R
 11661  11659  11662  11664      9     0.00   0.62760   3 ;    H9S-   C19-   C18-   H8S
 11661  11659  11662  11665      9     0.00   0.66944   3 ;    H9S-   C19-   C18-   C17
 11662  11665  11668  11669      9     0.00   0.66944   3 ;    C18-   C17-   C16-   H6R
 11662  11665  11668  11670      9     0.00   0.66944   3 ;    C18-   C17-   C16-   H6S
 11662  11665  11668  11671      9     0.00   0.41840   1 ;    C18-   C17-   C16-   C15
 11662  11665  11668  11671      9     0.00   0.41840   2 ;    C18-   C17-   C16-   C15
 11662  11665  11668  11671      9     0.00   0.41840   4 ;    C18-   C17-   C16-   C15
 11662  11665  11668  11671      9     0.00   0.41840   5 ;    C18-   C17-   C16-   C15
 11662  11665  11668  11671      9     0.00   1.25520   3 ;    C18-   C17-   C16-   C15
 11663  11662  11665  11666      9     0.00   0.62760   3 ;    H8R-   C18-   C17-   H7R
 11663  11662  11665  11667      9     0.00   0.62760   3 ;    H8R-   C18-   C17-   H7S
 11663  11662  11665  11668      9     0.00   0.66944   3 ;    H8R-   C18-   C17-   C16
 11664  11662  11665  11666      9     0.00   0.62760   3 ;    H8S-   C18-   C17-   H7R
 11664  11662  11665  11667      9     0.00   0.62760   3 ;    H8S-   C18-   C17-   H7S
 11664  11662  11665  11668      9     0.00   0.66944   3 ;    H8S-   C18-   C17-   C16
 11665  11668  11671  11672      9     0.00   0.66944   3 ;    C17-   C16-   C15-   H5R
 11665  11668  11671  11673      9     0.00   0.66944   3 ;    C17-   C16-   C15-   H5S
 11665  11668  11671  11674      9     0.00   0.41840   1 ;    C17-   C16-   C15-   C14
 11665  11668  11671  11674      9     0.00   0.41840   2 ;    C17-   C16-   C15-   C14
 11665  11668  11671  11674      9     0.00   0.41840   4 ;    C17-   C16-   C15-   C14
 11665  11668  11671  11674      9     0.00   0.41840   5 ;    C17-   C16-   C15-   C14
 11665  11668  11671  11674      9     0.00   1.25520   3 ;    C17-   C16-   C15-   C14
 11666  11665  11668  11669      9     0.00   0.62760   3 ;    H7R-   C17-   C16-   H6R
 11666  11665  11668  11670      9     0.00   0.62760   3 ;    H7R-   C17-   C16-   H6S
 11666  11665  11668  11671      9     0.00   0.66944   3 ;    H7R-   C17-   C16-   C15
 11667  11665  11668  11669      9     0.00   0.62760   3 ;    H7S-   C17-   C16-   H6R
 11667  11665  11668  11670      9     0.00   0.62760   3 ;    H7S-   C17-   C16-   H6S
 11667  11665  11668  11671      9     0.00   0.66944   3 ;    H7S-   C17-   C16-   C15
 11668  11671  11674  11675      9     0.00   0.66944   3 ;    C16-   C15-   C14-   H4R
 11668  11671  11674  11676      9     0.00   0.66944   3 ;    C16-   C15-   C14-   H4S
 11668  11671  11674  11677      9     0.00   0.41840   1 ;    C16-   C15-   C14-   C13
 11668  11671  11674  11677      9     0.00   0.41840   2 ;    C16-   C15-   C14-   C13
 11668  11671  11674  11677      9     0.00   0.41840   4 ;    C16-   C15-   C14-   C13
 11668  11671  11674  11677      9     0.00   0.41840   5 ;    C16-   C15-   C14-   C13
 11668  11671  11674  11677      9     0.00   1.25520   3 ;    C16-   C15-   C14-   C13
 11669  11668  11671  11672      9     0.00   0.62760   3 ;    H6R-   C16-   C15-   H5R
 11669  11668  11671  11673      9     0.00   0.62760   3 ;    H6R-   C16-   C15-   H5S
 11669  11668  11671  11674      9     0.00   0.66944   3 ;    H6R-   C16-   C15-   C14
 11670  11668  11671  11672      9     0.00   0.62760   3 ;    H6S-   C16-   C15-   H5R
 11670  11668  11671  11673      9     0.00   0.62760   3 ;    H6S-   C16-   C15-   H5S
 11670  11668  11671  11674      9     0.00   0.66944   3 ;    H6S-   C16-   C15-   C14
 11671  11674  11677  11678      9     0.00   0.66944   3 ;    C15-   C14-   C13-   H3R
 11671  11674  11677  11679      9     0.00   0.66944   3 ;    C15-   C14-   C13-   H3S
 11671  11674  11677  11680      9     0.00   0.41840   1 ;    C15-   C14-   C13-   C12
 11671  11674  11677  11680      9     0.00   0.41840   2 ;    C15-   C14-   C13-   C12
 11671  11674  11677  11680      9     0.00   0.41840   4 ;    C15-   C14-   C13-   C12
 11671  11674  11677  11680      9     0.00   0.41840   5 ;    C15-   C14-   C13-   C12
 11671  11674  11677  11680      9     0.00   1.25520   3 ;    C15-   C14-   C13-   C12
 11672  11671  11674  11675      9     0.00   0.62760   3 ;    H5R-   C15-   C14-   H4R
 11672  11671  11674  11676      9     0.00   0.62760   3 ;    H5R-   C15-   C14-   H4S
 11672  11671  11674  11677      9     0.00   0.66944   3 ;    H5R-   C15-   C14-   C13
 11673  11671  11674  11675      9     0.00   0.62760   3 ;    H5S-   C15-   C14-   H4R
 11673  11671  11674  11676      9     0.00   0.62760   3 ;    H5S-   C15-   C14-   H4S
 11673  11671  11674  11677      9     0.00   0.66944   3 ;    H5S-   C15-   C14-   C13
 11674  11677  11680  11681      9     0.00   0.66944   3 ;    C14-   C13-   C12-   H2R
 11674  11677  11680  11682      9     0.00   0.66944   3 ;    C14-   C13-   C12-   H2S
 11675  11674  11677  11678      9     0.00   0.62760   3 ;    H4R-   C14-   C13-   H3R
 11675  11674  11677  11679      9     0.00   0.62760   3 ;    H4R-   C14-   C13-   H3S
 11675  11674  11677  11680      9     0.00   0.66944   3 ;    H4R-   C14-   C13-   C12
 11676  11674  11677  11678      9     0.00   0.62760   3 ;    H4S-   C14-   C13-   H3R
 11676  11674  11677  11679      9     0.00   0.62760   3 ;    H4S-   C14-   C13-   H3S
 11676  11674  11677  11680      9     0.00   0.66944   3 ;    H4S-   C14-   C13-   C12
 11678  11677  11680  11681      9     0.00   0.62760   3 ;    H3R-   C13-   C12-   H2R
 11678  11677  11680  11682      9     0.00   0.62760   3 ;    H3R-   C13-   C12-   H2S
 11679  11677  11680  11681      9     0.00   0.62760   3 ;    H3S-   C13-   C12-   H2R
 11679  11677  11680  11682      9     0.00   0.62760   3 ;    H3S-   C13-   C12-   H2S
 11683  11684  11687  11688      9     0.00   0.62760   3 ;   H14T-  C114-  C113-  H13R
 11683  11684  11687  11689      9     0.00   0.62760   3 ;   H14T-  C114-  C113-  H13S
 11683  11684  11687  11690      9     0.00   0.66944   3 ;   H14T-  C114-  C113-  C112
 11684  11687  11690  11691      9     0.00   0.66944   3 ;   C114-  C113-  C112-  H12R
 11684  11687  11690  11692      9     0.00   0.66944   3 ;   C114-  C113-  C112-  H12S
 11684  11687  11690  11693      9     0.00   0.41840   1 ;   C114-  C113-  C112-  C111
 11684  11687  11690  11693      9     0.00   0.41840   2 ;   C114-  C113-  C112-  C111
 11684  11687  11690  11693      9     0.00   0.41840   4 ;   C114-  C113-  C112-  C111
 11684  11687  11690  11693      9     0.00   0.41840   5 ;   C114-  C113-  C112-  C111
 11684  11687  11690  11693      9     0.00   1.25520   3 ;   C114-  C113-  C112-  C111
 11685  11684  11687  11688      9     0.00   0.62760   3 ;   H14R-  C114-  C113-  H13R
 11685  11684  11687  11689      9     0.00   0.62760   3 ;   H14R-  C114-  C113-  H13S
 11685  11684  11687  11690      9     0.00   0.66944   3 ;   H14R-  C114-  C113-  C112
 11686  11684  11687  11688      9     0.00   0.62760   3 ;   H14S-  C114-  C113-  H13R
 11686  11684  11687  11689      9     0.00   0.62760   3 ;   H14S-  C114-  C113-  H13S
 11686  11684  11687  11690      9     0.00   0.66944   3 ;   H14S-  C114-  C113-  C112
 11687  11690  11693  11694      9     0.00   0.66944   3 ;   C113-  C112-  C111-  H11R
 11687  11690  11693  11695      9     0.00   0.66944   3 ;   C113-  C112-  C111-  H11S
 11687  11690  11693  11696      9     0.00   0.41840   1 ;   C113-  C112-  C111-  C110
 11687  11690  11693  11696      9     0.00   0.41840   2 ;   C113-  C112-  C111-  C110
 11687  11690  11693  11696      9     0.00   0.41840   4 ;   C113-  C112-  C111-  C110
 11687  11690  11693  11696      9     0.00   0.41840   5 ;   C113-  C112-  C111-  C110
 11687  11690  11693  11696      9     0.00   1.25520   3 ;   C113-  C112-  C111-  C110
 11688  11687  11690  11691      9     0.00   0.62760   3 ;   H13R-  C113-  C112-  H12R
 11688  11687  11690  11692      9     0.00   0.62760   3 ;   H13R-  C113-  C112-  H12S
 11688  11687  11690  11693      9     0.00   0.66944   3 ;   H13R-  C113-  C112-  C111
 11689  11687  11690  11691      9     0.00   0.62760   3 ;   H13S-  C113-  C112-  H12R
 11689  11687  11690  11692      9     0.00   0.62760   3 ;   H13S-  C113-  C112-  H12S
 11689  11687  11690  11693      9     0.00   0.66944   3 ;   H13S-  C113-  C112-  C111
 11690  11693  11696  11697      9     0.00   0.66944   3 ;   C112-  C111-  C110-  H10R
 11690  11693  11696  11698      9     0.00   0.66944   3 ;   C112-  C111-  C110-  H10S
 11690  11693  11696  11699      9     0.00   0.41840   1 ;   C112-  C111-  C110-   C19
 11690  11693  11696  11699      9     0.00   0.41840   2 ;   C112-  C111-  C110-   C19
 11690  11693  11696  11699      9     0.00   0.41840   4 ;   C112-  C111-  C110-   C19
 11690  11693  11696  11699      9     0.00   0.41840   5 ;   C112-  C111-  C110-   C19
 11690  11693  11696  11699      9     0.00   1.25520   3 ;   C112-  C111-  C110-   C19
 11691  11690  11693  11694      9     0.00   0.62760   3 ;   H12R-  C112-  C111-  H11R
 11691  11690  11693  11695      9     0.00   0.62760   3 ;   H12R-  C112-  C111-  H11S
 11691  11690  11693  11696      9     0.00   0.66944   3 ;   H12R-  C112-  C111-  C110
 11692  11690  11693  11694      9     0.00   0.62760   3 ;   H12S-  C112-  C111-  H11R
 11692  11690  11693  11695      9     0.00   0.62760   3 ;   H12S-  C112-  C111-  H11S
 11692  11690  11693  11696      9     0.00   0.66944   3 ;   H12S-  C112-  C111-  C110
 11693  11696  11699  11700      9     0.00   0.66944   3 ;   C111-  C110-   C19-   H9R
 11693  11696  11699  11701      9     0.00   0.66944   3 ;   C111-  C110-   C19-   H9S
 11693  11696  11699  11702      9     0.00   0.41840   1 ;   C111-  C110-   C19-   C18
 11693  11696  11699  11702      9     0.00   0.41840   2 ;   C111-  C110-   C19-   C18
 11693  11696  11699  11702      9     0.00   0.41840   4 ;   C111-  C110-   C19-   C18
 11693  11696  11699  11702      9     0.00   0.41840   5 ;   C111-  C110-   C19-   C18
 11693  11696  11699  11702      9     0.00   1.25520   3 ;   C111-  C110-   C19-   C18
 11694  11693  11696  11697      9     0.00   0.62760   3 ;   H11R-  C111-  C110-  H10R
 11694  11693  11696  11698      9     0.00   0.62760   3 ;   H11R-  C111-  C110-  H10S
 11694  11693  11696  11699      9     0.00   0.66944   3 ;   H11R-  C111-  C110-   C19
 11695  11693  11696  11697      9     0.00   0.62760   3 ;   H11S-  C111-  C110-  H10R
 11695  11693  11696  11698      9     0.00   0.62760   3 ;   H11S-  C111-  C110-  H10S
 11695  11693  11696  11699      9     0.00   0.66944   3 ;   H11S-  C111-  C110-   C19
 11696  11699  11702  11703      9     0.00   0.66944   3 ;   C110-   C19-   C18-   H8R
 11696  11699  11702  11704      9     0.00   0.66944   3 ;   C110-   C19-   C18-   H8S
 11696  11699  11702  11705      9     0.00   0.41840   1 ;   C110-   C19-   C18-   C17
 11696  11699  11702  11705      9     0.00   0.41840   2 ;   C110-   C19-   C18-   C17
 11696  11699  11702  11705      9     0.00   0.41840   4 ;   C110-   C19-   C18-   C17
 11696  11699  11702  11705      9     0.00   0.41840   5 ;   C110-   C19-   C18-   C17
 11696  11699  11702  11705      9     0.00   1.25520   3 ;   C110-   C19-   C18-   C17
 11697  11696  11699  11700      9     0.00   0.62760   3 ;   H10R-  C110-   C19-   H9R
 11697  11696  11699  11701      9     0.00   0.62760   3 ;   H10R-  C110-   C19-   H9S
 11697  11696  11699  11702      9     0.00   0.66944   3 ;   H10R-  C110-   C19-   C18
 11698  11696  11699  11700      9     0.00   0.62760   3 ;   H10S-  C110-   C19-   H9R
 11698  11696  11699  11701      9     0.00   0.62760   3 ;   H10S-  C110-   C19-   H9S
 11698  11696  11699  11702      9     0.00   0.66944   3 ;   H10S-  C110-   C19-   C18
 11699  11702  11705  11706      9     0.00   0.66944   3 ;    C19-   C18-   C17-   H7R
 11699  11702  11705  11707      9     0.00   0.66944   3 ;    C19-   C18-   C17-   H7S
 11699  11702  11705  11708      9     0.00   0.41840   1 ;    C19-   C18-   C17-   C16
 11699  11702  11705  11708      9     0.00   0.41840   2 ;    C19-   C18-   C17-   C16
 11699  11702  11705  11708      9     0.00   0.41840   4 ;    C19-   C18-   C17-   C16
 11699  11702  11705  11708      9     0.00   0.41840   5 ;    C19-   C18-   C17-   C16
 11699  11702  11705  11708      9     0.00   1.25520   3 ;    C19-   C18-   C17-   C16
 11700  11699  11702  11703      9     0.00   0.62760   3 ;    H9R-   C19-   C18-   H8R
 11700  11699  11702  11704      9     0.00   0.62760   3 ;    H9R-   C19-   C18-   H8S
 11700  11699  11702  11705      9     0.00   0.66944   3 ;    H9R-   C19-   C18-   C17
 11701  11699  11702  11703      9     0.00   0.62760   3 ;    H9S-   C19-   C18-   H8R
 11701  11699  11702  11704      9     0.00   0.62760   3 ;    H9S-   C19-   C18-   H8S
 11701  11699  11702  11705      9     0.00   0.66944   3 ;    H9S-   C19-   C18-   C17
 11702  11705  11708  11709      9     0.00   0.66944   3 ;    C18-   C17-   C16-   H6R
 11702  11705  11708  11710      9     0.00   0.66944   3 ;    C18-   C17-   C16-   H6S
 11702  11705  11708  11711      9     0.00   0.41840   1 ;    C18-   C17-   C16-   C15
 11702  11705  11708  11711      9     0.00   0.41840   2 ;    C18-   C17-   C16-   C15
 11702  11705  11708  11711      9     0.00   0.41840   4 ;    C18-   C17-   C16-   C15
 11702  11705  11708  11711      9     0.00   0.41840   5 ;    C18-   C17-   C16-   C15
 11702  11705  11708  11711      9     0.00   1.25520   3 ;    C18-   C17-   C16-   C15
 11703  11702  11705  11706      9     0.00   0.62760   3 ;    H8R-   C18-   C17-   H7R
 11703  11702  11705  11707      9     0.00   0.62760   3 ;    H8R-   C18-   C17-   H7S
 11703  11702  11705  11708      9     0.00   0.66944   3 ;    H8R-   C18-   C17-   C16
 11704  11702  11705  11706      9     0.00   0.62760   3 ;    H8S-   C18-   C17-   H7R
 11704  11702  11705  11707      9     0.00   0.62760   3 ;    H8S-   C18-   C17-   H7S
 11704  11702  11705  11708      9     0.00   0.66944   3 ;    H8S-   C18-   C17-   C16
 11705  11708  11711  11712      9     0.00   0.66944   3 ;    C17-   C16-   C15-   H5R
 11705  11708  11711  11713      9     0.00   0.66944   3 ;    C17-   C16-   C15-   H5S
 11705  11708  11711  11714      9     0.00   0.41840   1 ;    C17-   C16-   C15-   C14
 11705  11708  11711  11714      9     0.00   0.41840   2 ;    C17-   C16-   C15-   C14
 11705  11708  11711  11714      9     0.00   0.41840   4 ;    C17-   C16-   C15-   C14
 11705  11708  11711  11714      9     0.00   0.41840   5 ;    C17-   C16-   C15-   C14
 11705  11708  11711  11714      9     0.00   1.25520   3 ;    C17-   C16-   C15-   C14
 11706  11705  11708  11709      9     0.00   0.62760   3 ;    H7R-   C17-   C16-   H6R
 11706  11705  11708  11710      9     0.00   0.62760   3 ;    H7R-   C17-   C16-   H6S
 11706  11705  11708  11711      9     0.00   0.66944   3 ;    H7R-   C17-   C16-   C15
 11707  11705  11708  11709      9     0.00   0.62760   3 ;    H7S-   C17-   C16-   H6R
 11707  11705  11708  11710      9     0.00   0.62760   3 ;    H7S-   C17-   C16-   H6S
 11707  11705  11708  11711      9     0.00   0.66944   3 ;    H7S-   C17-   C16-   C15
 11708  11711  11714  11715      9     0.00   0.66944   3 ;    C16-   C15-   C14-   H4R
 11708  11711  11714  11716      9     0.00   0.66944   3 ;    C16-   C15-   C14-   H4S
 11708  11711  11714  11717      9     0.00   0.41840   1 ;    C16-   C15-   C14-   C13
 11708  11711  11714  11717      9     0.00   0.41840   2 ;    C16-   C15-   C14-   C13
 11708  11711  11714  11717      9     0.00   0.41840   4 ;    C16-   C15-   C14-   C13
 11708  11711  11714  11717      9     0.00   0.41840   5 ;    C16-   C15-   C14-   C13
 11708  11711  11714  11717      9     0.00   1.25520   3 ;    C16-   C15-   C14-   C13
 11709  11708  11711  11712      9     0.00   0.62760   3 ;    H6R-   C16-   C15-   H5R
 11709  11708  11711  11713      9     0.00   0.62760   3 ;    H6R-   C16-   C15-   H5S
 11709  11708  11711  11714      9     0.00   0.66944   3 ;    H6R-   C16-   C15-   C14
 11710  11708  11711  11712      9     0.00   0.62760   3 ;    H6S-   C16-   C15-   H5R
 11710  11708  11711  11713      9     0.00   0.62760   3 ;    H6S-   C16-   C15-   H5S
 11710  11708  11711  11714      9     0.00   0.66944   3 ;    H6S-   C16-   C15-   C14
 11711  11714  11717  11718      9     0.00   0.66944   3 ;    C15-   C14-   C13-   H3R
 11711  11714  11717  11719      9     0.00   0.66944   3 ;    C15-   C14-   C13-   H3S
 11711  11714  11717  11720      9     0.00   0.41840   1 ;    C15-   C14-   C13-   C12
 11711  11714  11717  11720      9     0.00   0.41840   2 ;    C15-   C14-   C13-   C12
 11711  11714  11717  11720      9     0.00   0.41840   4 ;    C15-   C14-   C13-   C12
 11711  11714  11717  11720      9     0.00   0.41840   5 ;    C15-   C14-   C13-   C12
 11711  11714  11717  11720      9     0.00   1.25520   3 ;    C15-   C14-   C13-   C12
 11712  11711  11714  11715      9     0.00   0.62760   3 ;    H5R-   C15-   C14-   H4R
 11712  11711  11714  11716      9     0.00   0.62760   3 ;    H5R-   C15-   C14-   H4S
 11712  11711  11714  11717      9     0.00   0.66944   3 ;    H5R-   C15-   C14-   C13
 11713  11711  11714  11715      9     0.00   0.62760   3 ;    H5S-   C15-   C14-   H4R
 11713  11711  11714  11716      9     0.00   0.62760   3 ;    H5S-   C15-   C14-   H4S
 11713  11711  11714  11717      9     0.00   0.66944   3 ;    H5S-   C15-   C14-   C13
 11714  11717  11720  11721      9     0.00   0.66944   3 ;    C14-   C13-   C12-   H2R
 11714  11717  11720  11722      9     0.00   0.66944   3 ;    C14-   C13-   C12-   H2S
 11714  11717  11720  11723      9     0.00   0.65270   3 ;    C14-   C13-   C12-   C11
 11715  11714  11717  11718      9     0.00   0.62760   3 ;    H4R-   C14-   C13-   H3R
 11715  11714  11717  11719      9     0.00   0.62760   3 ;    H4R-   C14-   C13-   H3S
 11715  11714  11717  11720      9     0.00   0.66944   3 ;    H4R-   C14-   C13-   C12
 11716  11714  11717  11718      9     0.00   0.62760   3 ;    H4S-   C14-   C13-   H3R
 11716  11714  11717  11719      9     0.00   0.62760   3 ;    H4S-   C14-   C13-   H3S
 11716  11714  11717  11720      9     0.00   0.66944   3 ;    H4S-   C14-   C13-   C12
 11717  11720  11723  11724      9   180.00   0.00000   2 ;    C13-   C12-   C11-   O12
 11717  11720  11723  11725      9   180.00   0.00000   2 ;    C13-   C12-   C11-   O11
 11718  11717  11720  11721      9     0.00   0.62760   3 ;    H3R-   C13-   C12-   H2R
 11718  11717  11720  11722      9     0.00   0.62760   3 ;    H3R-   C13-   C12-   H2S
 11718  11717  11720  11723      9     0.00   0.65270   3 ;    H3R-   C13-   C12-   C11
 11719  11717  11720  11721      9     0.00   0.62760   3 ;    H3S-   C13-   C12-   H2R
 11719  11717  11720  11722      9     0.00   0.62760   3 ;    H3S-   C13-   C12-   H2S
 11719  11717  11720  11723      9     0.00   0.65270   3 ;    H3S-   C13-   C12-   C11
 11720  11723  11725  11726      9   180.00  11.29680   2 ;    C12-   C11-   O11-    C1
 11721  11720  11723  11724      9     0.00   3.34720   1 ;    H2R-   C12-   C11-   O12
 11721  11720  11723  11724      9   180.00   0.33472   3 ;    H2R-   C12-   C11-   O12
 11721  11720  11723  11725      9   180.00   0.00000   2 ;    H2R-   C12-   C11-   O11
 11722  11720  11723  11724      9     0.00   3.34720   1 ;    H2S-   C12-   C11-   O12
 11722  11720  11723  11724      9   180.00   0.33472   3 ;    H2S-   C12-   C11-   O12
 11722  11720  11723  11725      9   180.00   0.00000   2 ;    H2S-   C12-   C11-   O11
 11723  11725  11726  11727      9     0.00   1.60247   3 ;    C11-   O11-    C1-    HR
 11723  11725  11726  11728      9     0.00   1.60247   3 ;    C11-   O11-    C1-    HS
 11723  11725  11726  11729      9     0.00  -0.41840   1 ;    C11-   O11-    C1-    C2
 11724  11723  11725  11726      9   180.00   5.85760   1 ;    O12-   C11-   O11-    C1
 11724  11723  11725  11726      9   180.00  11.29680   2 ;    O12-   C11-   O11-    C1
 11725  11726  11729  11730      9     0.00   0.00000   0 ;    O11-    C1-    C2-    HX
 11725  11726  11729  11730      9     0.00   1.04600   1 ;    O11-    C1-    C2-    HX
 11725  11726  11729  11731      9     0.00   0.00000   0 ;    O11-    C1-    C2-    C3
 11725  11726  11729  11731      9     0.00   0.00000   0 ;    O11-    C1-    C2-    C3
 11725  11726  11729  11731      9     0.00   0.00000   0 ;    O11-    C1-    C2-    C3
 11725  11726  11729  11731      9     0.00   0.00000   0 ;    O11-    C1-    C2-    C3
 11725  11726  11729  11731      9     0.00   0.00000   0 ;    O11-    C1-    C2-    C3
 11725  11726  11729  11758      9     0.00   1.25520   2 ;    O11-    C1-    C2-   O21
 11725  11726  11729  11758      9     0.00   4.18400   3 ;    O11-    C1-    C2-   O21
 11725  11726  11729  11758      9   180.00  -0.41840   1 ;    O11-    C1-    C2-   O21
 11726  11729  11731  11732      9     0.00   0.65270   3 ;     C1-    C2-    C3-    HA
 11726  11729  11731  11733      9     0.00   0.65270   3 ;     C1-    C2-    C3-    HB
 11726  11729  11731  11734      9   180.00   3.34720   1 ;     C1-    C2-    C3-   O31
 11726  11729  11758  11759      9     0.00  -0.41840   1 ;     C1-    C2-   O21-   C21
 11727  11726  11729  11730      9     0.00   0.65270   3 ;     HR-    C1-    C2-    HX
 11727  11726  11729  11731      9     0.00   0.65270   3 ;     HR-    C1-    C2-    C3
 11727  11726  11729  11758      9     0.00   0.00000   0 ;     HR-    C1-    C2-   O21
 11727  11726  11729  11758      9     0.00   1.04600   1 ;     HR-    C1-    C2-   O21
 11728  11726  11729  11730      9     0.00   0.65270   3 ;     HS-    C1-    C2-    HX
 11728  11726  11729  11731      9     0.00   0.65270   3 ;     HS-    C1-    C2-    C3
 11728  11726  11729  11758      9     0.00   0.00000   0 ;     HS-    C1-    C2-   O21
 11728  11726  11729  11758      9     0.00   1.04600   1 ;     HS-    C1-    C2-   O21
 11729  11731  11734  11735      9     0.00   0.00000   0 ;     C2-    C3-   O31-   P31
 11729  11731  11734  11735      9   180.00  -3.34720   2 ;     C2-    C3-   O31-   P31
 11729  11758  11759  11760      9   180.00   5.85760   1 ;     C2-   O21-   C21-   O22
 11729  11758  11759  11760      9   180.00  11.29680   2 ;     C2-   O21-   C21-   O22
 11729  11758  11759  11798      9   180.00  11.29680   2 ;     C2-   O21-   C21-   C12
 11730  11729  11731  11732      9     0.00   0.65270   3 ;     HX-    C2-    C3-    HA
 11730  11729  11731  11733      9     0.00   0.65270   3 ;     HX-    C2-    C3-    HB
 11730  11729  11731  11734      9     0.00   0.00000   0 ;     HX-    C2-    C3-   O31
 11730  11729  11731  11734      9     0.00   1.04600   1 ;     HX-    C2-    C3-   O31
 11730  11729  11758  11759      9     0.00   1.60247   3 ;     HX-    C2-   O21-   C21
 11731  11729  11758  11759      9     0.00  -0.41840   1 ;     C3-    C2-   O21-   C21
 11731  11734  11735  11736      9     0.00   2.51040   3 ;     C3-   O31-   P31-   O32
 11731  11734  11735  11736      9     0.00   9.62320   2 ;     C3-   O31-   P31-   O32
 11731  11734  11735  11756      9     0.00   0.00000   0 ;     C3-   O31-   P31-   O33
 11731  11734  11735  11756      9     0.00   0.00000   0 ;     C3-   O31-   P31-   O33
 11731  11734  11735  11756      9     0.00   0.00000   0 ;     C3-   O31-   P31-   O33
 11731  11734  11735  11756      9     0.00   0.00000   0 ;     C3-   O31-   P31-   O33
 11731  11734  11735  11756      9     0.00   0.83680   2 ;     C3-   O31-   P31-   O33
 11731  11734  11735  11757      9     0.00   0.00000   0 ;     C3-   O31-   P31-   O34
 11731  11734  11735  11757      9     0.00   0.00000   0 ;     C3-   O31-   P31-   O34
 11731  11734  11735  11757      9     0.00   0.00000   0 ;     C3-   O31-   P31-   O34
 11731  11734  11735  11757      9     0.00   0.00000   0 ;     C3-   O31-   P31-   O34
 11731  11734  11735  11757      9     0.00   0.83680   2 ;     C3-   O31-   P31-   O34
 11732  11731  11729  11758      9     0.00   0.00000   0 ;     HA-    C3-    C2-   O21
 11732  11731  11729  11758      9     0.00   1.04600   1 ;     HA-    C3-    C2-   O21
 11732  11731  11734  11735      9     0.00   0.00000   0 ;     HA-    C3-   O31-   P31
 11732  11731  11734  11735      9     0.00   0.00000   0 ;     HA-    C3-   O31-   P31
 11732  11731  11734  11735      9     0.00   0.00000   0 ;     HA-    C3-   O31-   P31
 11732  11731  11734  11735      9     0.00   0.00000   0 ;     HA-    C3-   O31-   P31
 11732  11731  11734  11735      9     0.00   1.60247   3 ;     HA-    C3-   O31-   P31
 11733  11731  11729  11758      9     0.00   0.00000   0 ;     HB-    C3-    C2-   O21
 11733  11731  11729  11758      9     0.00   1.04600   1 ;     HB-    C3-    C2-   O21
 11733  11731  11734  11735      9     0.00   0.00000   0 ;     HB-    C3-   O31-   P31
 11733  11731  11734  11735      9     0.00   0.00000   0 ;     HB-    C3-   O31-   P31
 11733  11731  11734  11735      9     0.00   0.00000   0 ;     HB-    C3-   O31-   P31
 11733  11731  11734  11735      9     0.00   0.00000   0 ;     HB-    C3-   O31-   P31
 11733  11731  11734  11735      9     0.00   1.60247   3 ;     HB-    C3-   O31-   P31
 11734  11731  11729  11758      9     0.00   0.00000   0 ;    O31-    C3-    C2-   O21
 11734  11731  11729  11758      9     0.00   0.00000   0 ;    O31-    C3-    C2-   O21
 11734  11731  11729  11758      9     0.00   0.00000   0 ;    O31-    C3-    C2-   O21
 11734  11731  11729  11758      9     0.00   0.00000   0 ;    O31-    C3-    C2-   O21
 11734  11731  11729  11758      9     0.00   0.00000   0 ;    O31-    C3-    C2-   O21
 11734  11735  11736  11737      9     0.00   2.51040   3 ;    O31-   P31-   O32-   C31
 11734  11735  11736  11737      9     0.00   9.62320   2 ;    O31-   P31-   O32-   C31
 11735  11736  11737  11738      9     0.00   0.00000   0 ;    P31-   O32-   C31-   H1A
 11735  11736  11737  11738      9     0.00   0.00000   0 ;    P31-   O32-   C31-   H1A
 11735  11736  11737  11738      9     0.00   0.00000   0 ;    P31-   O32-   C31-   H1A
 11735  11736  11737  11738      9     0.00   0.00000   0 ;    P31-   O32-   C31-   H1A
 11735  11736  11737  11738      9     0.00   1.60247   3 ;    P31-   O32-   C31-   H1A
 11735  11736  11737  11739      9     0.00   0.00000   0 ;    P31-   O32-   C31-   H1B
 11735  11736  11737  11739      9     0.00   0.00000   0 ;    P31-   O32-   C31-   H1B
 11735  11736  11737  11739      9     0.00   0.00000   0 ;    P31-   O32-   C31-   H1B
 11735  11736  11737  11739      9     0.00   0.00000   0 ;    P31-   O32-   C31-   H1B
 11735  11736  11737  11739      9     0.00   1.60247   3 ;    P31-   O32-   C31-   H1B
 11735  11736  11737  11740      9     0.00   0.00000   0 ;    P31-   O32-   C31-   C32
 11735  11736  11737  11740      9   180.00  -3.34720   2 ;    P31-   O32-   C31-   C32
 11736  11737  11740  11741      9     0.00   0.65270   3 ;    O32-   C31-   C32-   H2A
 11736  11737  11740  11742      9     0.00   0.65270   3 ;    O32-   C31-   C32-   H2B
 11736  11737  11740  11743      9     0.00   4.18400   3 ;    O32-   C31-   C32-   N31
 11737  11736  11735  11756      9     0.00   0.00000   0 ;    C31-   O32-   P31-   O33
 11737  11736  11735  11756      9     0.00   0.00000   0 ;    C31-   O32-   P31-   O33
 11737  11736  11735  11756      9     0.00   0.00000   0 ;    C31-   O32-   P31-   O33
 11737  11736  11735  11756      9     0.00   0.00000   0 ;    C31-   O32-   P31-   O33
 11737  11736  11735  11756      9     0.00   0.83680   2 ;    C31-   O32-   P31-   O33
 11737  11736  11735  11757      9     0.00   0.00000   0 ;    C31-   O32-   P31-   O34
 11737  11736  11735  11757      9     0.00   0.00000   0 ;    C31-   O32-   P31-   O34
 11737  11736  11735  11757      9     0.00   0.00000   0 ;    C31-   O32-   P31-   O34
 11737  11736  11735  11757      9     0.00   0.00000   0 ;    C31-   O32-   P31-   O34
 11737  11736  11735  11757      9     0.00   0.83680   2 ;    C31-   O32-   P31-   O34
 11737  11740  11743  11744      9     0.00   0.65270   3 ;    C31-   C32-   N31-   C33
 11737  11740  11743  11748      9     0.00   0.65270   3 ;    C31-   C32-   N31-   C34
 11737  11740  11743  11752      9     0.00   0.65270   3 ;    C31-   C32-   N31-   C35
 11738  11737  11740  11741      9     0.00   0.65270   3 ;    H1A-   C31-   C32-   H2A
 11738  11737  11740  11742      9     0.00   0.65270   3 ;    H1A-   C31-   C32-   H2B
 11738  11737  11740  11743      9     0.00   0.65270   3 ;    H1A-   C31-   C32-   N31
 11739  11737  11740  11741      9     0.00   0.65270   3 ;    H1B-   C31-   C32-   H2A
 11739  11737  11740  11742      9     0.00   0.65270   3 ;    H1B-   C31-   C32-   H2B
 11739  11737  11740  11743      9     0.00   0.65270   3 ;    H1B-   C31-   C32-   N31
 11740  11743  11744  11745      9     0.00   0.65270   3 ;    C32-   N31-   C33-   H3A
 11740  11743  11744  11746      9     0.00   0.65270   3 ;    C32-   N31-   C33-   H3B
 11740  11743  11744  11747      9     0.00   0.65270   3 ;    C32-   N31-   C33-   H3C
 11740  11743  11748  11749      9     0.00   0.65270   3 ;    C32-   N31-   C34-   H4A
 11740  11743  11748  11750      9     0.00   0.65270   3 ;    C32-   N31-   C34-   H4B
 11740  11743  11748  11751      9     0.00   0.65270   3 ;    C32-   N31-   C34-   H4C
 11740  11743  11752  11753      9     0.00   0.65270   3 ;    C32-   N31-   C35-   H5A
 11740  11743  11752  11754      9     0.00   0.65270   3 ;    C32-   N31-   C35-   H5B
 11740  11743  11752  11755      9     0.00   0.65270   3 ;    C32-   N31-   C35-   H5C
 11741  11740  11743  11744      9     0.00   0.65270   3 ;    H2A-   C32-   N31-   C33
 11741  11740  11743  11748      9     0.00   0.65270   3 ;    H2A-   C32-   N31-   C34
 11741  11740  11743  11752      9     0.00   0.65270   3 ;    H2A-   C32-   N31-   C35
 11742  11740  11743  11744      9     0.00   0.65270   3 ;    H2B-   C32-   N31-   C33
 11742  11740  11743  11748      9     0.00   0.65270   3 ;    H2B-   C32-   N31-   C34
 11742  11740  11743  11752      9     0.00   0.65270   3 ;    H2B-   C32-   N31-   C35
 11744  11743  11748  11749      9     0.00   0.65270   3 ;    C33-   N31-   C34-   H4A
 11744  11743  11748  11750      9     0.00   0.65270   3 ;    C33-   N31-   C34-   H4B
 11744  11743  11748  11751      9     0.00   0.65270   3 ;    C33-   N31-   C34-   H4C
 11744  11743  11752  11753      9     0.00   0.65270   3 ;    C33-   N31-   C35-   H5A
 11744  11743  11752  11754      9     0.00   0.65270   3 ;    C33-   N31-   C35-   H5B
 11744  11743  11752  11755      9     0.00   0.65270   3 ;    C33-   N31-   C35-   H5C
 11745  11744  11743  11748      9     0.00   0.65270   3 ;    H3A-   C33-   N31-   C34
 11745  11744  11743  11752      9     0.00   0.65270   3 ;    H3A-   C33-   N31-   C35
 11746  11744  11743  11748      9     0.00   0.65270   3 ;    H3B-   C33-   N31-   C34
 11746  11744  11743  11752      9     0.00   0.65270   3 ;    H3B-   C33-   N31-   C35
 11747  11744  11743  11748      9     0.00   0.65270   3 ;    H3C-   C33-   N31-   C34
 11747  11744  11743  11752      9     0.00   0.65270   3 ;    H3C-   C33-   N31-   C35
 11748  11743  11752  11753      9     0.00   0.65270   3 ;    C34-   N31-   C35-   H5A
 11748  11743  11752  11754      9     0.00   0.65270   3 ;    C34-   N31-   C35-   H5B
 11748  11743  11752  11755      9     0.00   0.65270   3 ;    C34-   N31-   C35-   H5C
 11749  11748  11743  11752      9     0.00   0.65270   3 ;    H4A-   C34-   N31-   C35
 11750  11748  11743  11752      9     0.00   0.65270   3 ;    H4B-   C34-   N31-   C35
 11751  11748  11743  11752      9     0.00   0.65270   3 ;    H4C-   C34-   N31-   C35
 11758  11759  11798  11795      9   180.00   0.00000   2 ;    O21-   C21-   C12-   C13
 11758  11759  11798  11799      9   180.00   0.00000   2 ;    O21-   C21-   C12-   H2R
 11758  11759  11798  11800      9   180.00   0.00000   2 ;    O21-   C21-   C12-   H2S
 11759  11798  11795  11792      9     0.00   0.65270   3 ;    C21-   C12-   C13-   C14
 11759  11798  11795  11796      9     0.00   0.65270   3 ;    C21-   C12-   C13-   H3R
 11759  11798  11795  11797      9     0.00   0.65270   3 ;    C21-   C12-   C13-   H3S
 11760  11759  11798  11795      9   180.00   0.00000   2 ;    O22-   C21-   C12-   C13
 11760  11759  11798  11799      9     0.00   3.34720   1 ;    O22-   C21-   C12-   H2R
 11760  11759  11798  11799      9   180.00   0.33472   3 ;    O22-   C21-   C12-   H2R
 11760  11759  11798  11800      9     0.00   3.34720   1 ;    O22-   C21-   C12-   H2S
 11760  11759  11798  11800      9   180.00   0.33472   3 ;    O22-   C21-   C12-   H2S
 11761  11762  11765  11766      9     0.00   0.62760   3 ;   H14T-  C114-  C113-  H13R
 11761  11762  11765  11767      9     0.00   0.62760   3 ;   H14T-  C114-  C113-  H13S
 11761  11762  11765  11768      9     0.00   0.66944   3 ;   H14T-  C114-  C113-  C112
 11762  11765  11768  11769      9     0.00   0.66944   3 ;   C114-  C113-  C112-  H12R
 11762  11765  11768  11770      9     0.00   0.66944   3 ;   C114-  C113-  C112-  H12S
 11762  11765  11768  11771      9     0.00   0.41840   1 ;   C114-  C113-  C112-  C111
 11762  11765  11768  11771      9     0.00   0.41840   2 ;   C114-  C113-  C112-  C111
 11762  11765  11768  11771      9     0.00   0.41840   4 ;   C114-  C113-  C112-  C111
 11762  11765  11768  11771      9     0.00   0.41840   5 ;   C114-  C113-  C112-  C111
 11762  11765  11768  11771      9     0.00   1.25520   3 ;   C114-  C113-  C112-  C111
 11763  11762  11765  11766      9     0.00   0.62760   3 ;   H14R-  C114-  C113-  H13R
 11763  11762  11765  11767      9     0.00   0.62760   3 ;   H14R-  C114-  C113-  H13S
 11763  11762  11765  11768      9     0.00   0.66944   3 ;   H14R-  C114-  C113-  C112
 11764  11762  11765  11766      9     0.00   0.62760   3 ;   H14S-  C114-  C113-  H13R
 11764  11762  11765  11767      9     0.00   0.62760   3 ;   H14S-  C114-  C113-  H13S
 11764  11762  11765  11768      9     0.00   0.66944   3 ;   H14S-  C114-  C113-  C112
 11765  11768  11771  11772      9     0.00   0.66944   3 ;   C113-  C112-  C111-  H11R
 11765  11768  11771  11773      9     0.00   0.66944   3 ;   C113-  C112-  C111-  H11S
 11765  11768  11771  11774      9     0.00   0.41840   1 ;   C113-  C112-  C111-  C110
 11765  11768  11771  11774      9     0.00   0.41840   2 ;   C113-  C112-  C111-  C110
 11765  11768  11771  11774      9     0.00   0.41840   4 ;   C113-  C112-  C111-  C110
 11765  11768  11771  11774      9     0.00   0.41840   5 ;   C113-  C112-  C111-  C110
 11765  11768  11771  11774      9     0.00   1.25520   3 ;   C113-  C112-  C111-  C110
 11766  11765  11768  11769      9     0.00   0.62760   3 ;   H13R-  C113-  C112-  H12R
 11766  11765  11768  11770      9     0.00   0.62760   3 ;   H13R-  C113-  C112-  H12S
 11766  11765  11768  11771      9     0.00   0.66944   3 ;   H13R-  C113-  C112-  C111
 11767  11765  11768  11769      9     0.00   0.62760   3 ;   H13S-  C113-  C112-  H12R
 11767  11765  11768  11770      9     0.00   0.62760   3 ;   H13S-  C113-  C112-  H12S
 11767  11765  11768  11771      9     0.00   0.66944   3 ;   H13S-  C113-  C112-  C111
 11768  11771  11774  11775      9     0.00   0.66944   3 ;   C112-  C111-  C110-  H10R
 11768  11771  11774  11776      9     0.00   0.66944   3 ;   C112-  C111-  C110-  H10S
 11768  11771  11774  11777      9     0.00   0.41840   1 ;   C112-  C111-  C110-   C19
 11768  11771  11774  11777      9     0.00   0.41840   2 ;   C112-  C111-  C110-   C19
 11768  11771  11774  11777      9     0.00   0.41840   4 ;   C112-  C111-  C110-   C19
 11768  11771  11774  11777      9     0.00   0.41840   5 ;   C112-  C111-  C110-   C19
 11768  11771  11774  11777      9     0.00   1.25520   3 ;   C112-  C111-  C110-   C19
 11769  11768  11771  11772      9     0.00   0.62760   3 ;   H12R-  C112-  C111-  H11R
 11769  11768  11771  11773      9     0.00   0.62760   3 ;   H12R-  C112-  C111-  H11S
 11769  11768  11771  11774      9     0.00   0.66944   3 ;   H12R-  C112-  C111-  C110
 11770  11768  11771  11772      9     0.00   0.62760   3 ;   H12S-  C112-  C111-  H11R
 11770  11768  11771  11773      9     0.00   0.62760   3 ;   H12S-  C112-  C111-  H11S
 11770  11768  11771  11774      9     0.00   0.66944   3 ;   H12S-  C112-  C111-  C110
 11771  11774  11777  11778      9     0.00   0.66944   3 ;   C111-  C110-   C19-   H9R
 11771  11774  11777  11779      9     0.00   0.66944   3 ;   C111-  C110-   C19-   H9S
 11771  11774  11777  11780      9     0.00   0.41840   1 ;   C111-  C110-   C19-   C18
 11771  11774  11777  11780      9     0.00   0.41840   2 ;   C111-  C110-   C19-   C18
 11771  11774  11777  11780      9     0.00   0.41840   4 ;   C111-  C110-   C19-   C18
 11771  11774  11777  11780      9     0.00   0.41840   5 ;   C111-  C110-   C19-   C18
 11771  11774  11777  11780      9     0.00   1.25520   3 ;   C111-  C110-   C19-   C18
 11772  11771  11774  11775      9     0.00   0.62760   3 ;   H11R-  C111-  C110-  H10R
 11772  11771  11774  11776      9     0.00   0.62760   3 ;   H11R-  C111-  C110-  H10S
 11772  11771  11774  11777      9     0.00   0.66944   3 ;   H11R-  C111-  C110-   C19
 11773  11771  11774  11775      9     0.00   0.62760   3 ;   H11S-  C111-  C110-  H10R
 11773  11771  11774  11776      9     0.00   0.62760   3 ;   H11S-  C111-  C110-  H10S
 11773  11771  11774  11777      9     0.00   0.66944   3 ;   H11S-  C111-  C110-   C19
 11774  11777  11780  11781      9     0.00   0.66944   3 ;   C110-   C19-   C18-   H8R
 11774  11777  11780  11782      9     0.00   0.66944   3 ;   C110-   C19-   C18-   H8S
 11774  11777  11780  11783      9     0.00   0.41840   1 ;   C110-   C19-   C18-   C17
 11774  11777  11780  11783      9     0.00   0.41840   2 ;   C110-   C19-   C18-   C17
 11774  11777  11780  11783      9     0.00   0.41840   4 ;   C110-   C19-   C18-   C17
 11774  11777  11780  11783      9     0.00   0.41840   5 ;   C110-   C19-   C18-   C17
 11774  11777  11780  11783      9     0.00   1.25520   3 ;   C110-   C19-   C18-   C17
 11775  11774  11777  11778      9     0.00   0.62760   3 ;   H10R-  C110-   C19-   H9R
 11775  11774  11777  11779      9     0.00   0.62760   3 ;   H10R-  C110-   C19-   H9S
 11775  11774  11777  11780      9     0.00   0.66944   3 ;   H10R-  C110-   C19-   C18
 11776  11774  11777  11778      9     0.00   0.62760   3 ;   H10S-  C110-   C19-   H9R
 11776  11774  11777  11779      9     0.00   0.62760   3 ;   H10S-  C110-   C19-   H9S
 11776  11774  11777  11780      9     0.00   0.66944   3 ;   H10S-  C110-   C19-   C18
 11777  11780  11783  11784      9     0.00   0.66944   3 ;    C19-   C18-   C17-   H7R
 11777  11780  11783  11785      9     0.00   0.66944   3 ;    C19-   C18-   C17-   H7S
 11777  11780  11783  11786      9     0.00   0.41840   1 ;    C19-   C18-   C17-   C16
 11777  11780  11783  11786      9     0.00   0.41840   2 ;    C19-   C18-   C17-   C16
 11777  11780  11783  11786      9     0.00   0.41840   4 ;    C19-   C18-   C17-   C16
 11777  11780  11783  11786      9     0.00   0.41840   5 ;    C19-   C18-   C17-   C16
 11777  11780  11783  11786      9     0.00   1.25520   3 ;    C19-   C18-   C17-   C16
 11778  11777  11780  11781      9     0.00   0.62760   3 ;    H9R-   C19-   C18-   H8R
 11778  11777  11780  11782      9     0.00   0.62760   3 ;    H9R-   C19-   C18-   H8S
 11778  11777  11780  11783      9     0.00   0.66944   3 ;    H9R-   C19-   C18-   C17
 11779  11777  11780  11781      9     0.00   0.62760   3 ;    H9S-   C19-   C18-   H8R
 11779  11777  11780  11782      9     0.00   0.62760   3 ;    H9S-   C19-   C18-   H8S
 11779  11777  11780  11783      9     0.00   0.66944   3 ;    H9S-   C19-   C18-   C17
 11780  11783  11786  11787      9     0.00   0.66944   3 ;    C18-   C17-   C16-   H6R
 11780  11783  11786  11788      9     0.00   0.66944   3 ;    C18-   C17-   C16-   H6S
 11780  11783  11786  11789      9     0.00   0.41840   1 ;    C18-   C17-   C16-   C15
 11780  11783  11786  11789      9     0.00   0.41840   2 ;    C18-   C17-   C16-   C15
 11780  11783  11786  11789      9     0.00   0.41840   4 ;    C18-   C17-   C16-   C15
 11780  11783  11786  11789      9     0.00   0.41840   5 ;    C18-   C17-   C16-   C15
 11780  11783  11786  11789      9     0.00   1.25520   3 ;    C18-   C17-   C16-   C15
 11781  11780  11783  11784      9     0.00   0.62760   3 ;    H8R-   C18-   C17-   H7R
 11781  11780  11783  11785      9     0.00   0.62760   3 ;    H8R-   C18-   C17-   H7S
 11781  11780  11783  11786      9     0.00   0.66944   3 ;    H8R-   C18-   C17-   C16
 11782  11780  11783  11784      9     0.00   0.62760   3 ;    H8S-   C18-   C17-   H7R
 11782  11780  11783  11785      9     0.00   0.62760   3 ;    H8S-   C18-   C17-   H7S
 11782  11780  11783  11786      9     0.00   0.66944   3 ;    H8S-   C18-   C17-   C16
 11783  11786  11789  11790      9     0.00   0.66944   3 ;    C17-   C16-   C15-   H5R
 11783  11786  11789  11791      9     0.00   0.66944   3 ;    C17-   C16-   C15-   H5S
 11783  11786  11789  11792      9     0.00   0.41840   1 ;    C17-   C16-   C15-   C14
 11783  11786  11789  11792      9     0.00   0.41840   2 ;    C17-   C16-   C15-   C14
 11783  11786  11789  11792      9     0.00   0.41840   4 ;    C17-   C16-   C15-   C14
 11783  11786  11789  11792      9     0.00   0.41840   5 ;    C17-   C16-   C15-   C14
 11783  11786  11789  11792      9     0.00   1.25520   3 ;    C17-   C16-   C15-   C14
 11784  11783  11786  11787      9     0.00   0.62760   3 ;    H7R-   C17-   C16-   H6R
 11784  11783  11786  11788      9     0.00   0.62760   3 ;    H7R-   C17-   C16-   H6S
 11784  11783  11786  11789      9     0.00   0.66944   3 ;    H7R-   C17-   C16-   C15
 11785  11783  11786  11787      9     0.00   0.62760   3 ;    H7S-   C17-   C16-   H6R
 11785  11783  11786  11788      9     0.00   0.62760   3 ;    H7S-   C17-   C16-   H6S
 11785  11783  11786  11789      9     0.00   0.66944   3 ;    H7S-   C17-   C16-   C15
 11786  11789  11792  11793      9     0.00   0.66944   3 ;    C16-   C15-   C14-   H4R
 11786  11789  11792  11794      9     0.00   0.66944   3 ;    C16-   C15-   C14-   H4S
 11786  11789  11792  11795      9     0.00   0.41840   1 ;    C16-   C15-   C14-   C13
 11786  11789  11792  11795      9     0.00   0.41840   2 ;    C16-   C15-   C14-   C13
 11786  11789  11792  11795      9     0.00   0.41840   4 ;    C16-   C15-   C14-   C13
 11786  11789  11792  11795      9     0.00   0.41840   5 ;    C16-   C15-   C14-   C13
 11786  11789  11792  11795      9     0.00   1.25520   3 ;    C16-   C15-   C14-   C13
 11787  11786  11789  11790      9     0.00   0.62760   3 ;    H6R-   C16-   C15-   H5R
 11787  11786  11789  11791      9     0.00   0.62760   3 ;    H6R-   C16-   C15-   H5S
 11787  11786  11789  11792      9     0.00   0.66944   3 ;    H6R-   C16-   C15-   C14
 11788  11786  11789  11790      9     0.00   0.62760   3 ;    H6S-   C16-   C15-   H5R
 11788  11786  11789  11791      9     0.00   0.62760   3 ;    H6S-   C16-   C15-   H5S
 11788  11786  11789  11792      9     0.00   0.66944   3 ;    H6S-   C16-   C15-   C14
 11789  11792  11795  11796      9     0.00   0.66944   3 ;    C15-   C14-   C13-   H3R
 11789  11792  11795  11797      9     0.00   0.66944   3 ;    C15-   C14-   C13-   H3S
 11789  11792  11795  11798      9     0.00   0.41840   1 ;    C15-   C14-   C13-   C12
 11789  11792  11795  11798      9     0.00   0.41840   2 ;    C15-   C14-   C13-   C12
 11789  11792  11795  11798      9     0.00   0.41840   4 ;    C15-   C14-   C13-   C12
 11789  11792  11795  11798      9     0.00   0.41840   5 ;    C15-   C14-   C13-   C12
 11789  11792  11795  11798      9     0.00   1.25520   3 ;    C15-   C14-   C13-   C12
 11790  11789  11792  11793      9     0.00   0.62760   3 ;    H5R-   C15-   C14-   H4R
 11790  11789  11792  11794      9     0.00   0.62760   3 ;    H5R-   C15-   C14-   H4S
 11790  11789  11792  11795      9     0.00   0.66944   3 ;    H5R-   C15-   C14-   C13
 11791  11789  11792  11793      9     0.00   0.62760   3 ;    H5S-   C15-   C14-   H4R
 11791  11789  11792  11794      9     0.00   0.62760   3 ;    H5S-   C15-   C14-   H4S
 11791  11789  11792  11795      9     0.00   0.66944   3 ;    H5S-   C15-   C14-   C13
 11792  11795  11798  11799      9     0.00   0.66944   3 ;    C14-   C13-   C12-   H2R
 11792  11795  11798  11800      9     0.00   0.66944   3 ;    C14-   C13-   C12-   H2S
 11793  11792  11795  11796      9     0.00   0.62760   3 ;    H4R-   C14-   C13-   H3R
 11793  11792  11795  11797      9     0.00   0.62760   3 ;    H4R-   C14-   C13-   H3S
 11793  11792  11795  11798      9     0.00   0.66944   3 ;    H4R-   C14-   C13-   C12
 11794  11792  11795  11796      9     0.00   0.62760   3 ;    H4S-   C14-   C13-   H3R
 11794  11792  11795  11797      9     0.00   0.62760   3 ;    H4S-   C14-   C13-   H3S
 11794  11792  11795  11798      9     0.00   0.66944   3 ;    H4S-   C14-   C13-   C12
 11796  11795  11798  11799      9     0.00   0.62760   3 ;    H3R-   C13-   C12-   H2R
 11796  11795  11798  11800      9     0.00   0.62760   3 ;    H3R-   C13-   C12-   H2S
 11797  11795  11798  11799      9     0.00   0.62760   3 ;    H3S-   C13-   C12-   H2R
 11797  11795  11798  11800      9     0.00   0.62760   3 ;    H3S-   C13-   C12-   H2S
 11801  11802  11805  11806      9     0.00   0.62760   3 ;   H14T-  C114-  C113-  H13R
 11801  11802  11805  11807      9     0.00   0.62760   3 ;   H14T-  C114-  C113-  H13S
 11801  11802  11805  11808      9     0.00   0.66944   3 ;   H14T-  C114-  C113-  C112
 11802  11805  11808  11809      9     0.00   0.66944   3 ;   C114-  C113-  C112-  H12R
 11802  11805  11808  11810      9     0.00   0.66944   3 ;   C114-  C113-  C112-  H12S
 11802  11805  11808  11811      9     0.00   0.41840   1 ;   C114-  C113-  C112-  C111
 11802  11805  11808  11811      9     0.00   0.41840   2 ;   C114-  C113-  C112-  C111
 11802  11805  11808  11811      9     0.00   0.41840   4 ;   C114-  C113-  C112-  C111
 11802  11805  11808  11811      9     0.00   0.41840   5 ;   C114-  C113-  C112-  C111
 11802  11805  11808  11811      9     0.00   1.25520   3 ;   C114-  C113-  C112-  C111
 11803  11802  11805  11806      9     0.00   0.62760   3 ;   H14R-  C114-  C113-  H13R
 11803  11802  11805  11807      9     0.00   0.62760   3 ;   H14R-  C114-  C113-  H13S
 11803  11802  11805  11808      9     0.00   0.66944   3 ;   H14R-  C114-  C113-  C112
 11804  11802  11805  11806      9     0.00   0.62760   3 ;   H14S-  C114-  C113-  H13R
 11804  11802  11805  11807      9     0.00   0.62760   3 ;   H14S-  C114-  C113-  H13S
 11804  11802  11805  11808      9     0.00   0.66944   3 ;   H14S-  C114-  C113-  C112
 11805  11808  11811  11812      9     0.00   0.66944   3 ;   C113-  C112-  C111-  H11R
 11805  11808  11811  11813      9     0.00   0.66944   3 ;   C113-  C112-  C111-  H11S
 11805  11808  11811  11814      9     0.00   0.41840   1 ;   C113-  C112-  C111-  C110
 11805  11808  11811  11814      9     0.00   0.41840   2 ;   C113-  C112-  C111-  C110
 11805  11808  11811  11814      9     0.00   0.41840   4 ;   C113-  C112-  C111-  C110
 11805  11808  11811  11814      9     0.00   0.41840   5 ;   C113-  C112-  C111-  C110
 11805  11808  11811  11814      9     0.00   1.25520   3 ;   C113-  C112-  C111-  C110
 11806  11805  11808  11809      9     0.00   0.62760   3 ;   H13R-  C113-  C112-  H12R
 11806  11805  11808  11810      9     0.00   0.62760   3 ;   H13R-  C113-  C112-  H12S
 11806  11805  11808  11811      9     0.00   0.66944   3 ;   H13R-  C113-  C112-  C111
 11807  11805  11808  11809      9     0.00   0.62760   3 ;   H13S-  C113-  C112-  H12R
 11807  11805  11808  11810      9     0.00   0.62760   3 ;   H13S-  C113-  C112-  H12S
 11807  11805  11808  11811      9     0.00   0.66944   3 ;   H13S-  C113-  C112-  C111
 11808  11811  11814  11815      9     0.00   0.66944   3 ;   C112-  C111-  C110-  H10R
 11808  11811  11814  11816      9     0.00   0.66944   3 ;   C112-  C111-  C110-  H10S
 11808  11811  11814  11817      9     0.00   0.41840   1 ;   C112-  C111-  C110-   C19
 11808  11811  11814  11817      9     0.00   0.41840   2 ;   C112-  C111-  C110-   C19
 11808  11811  11814  11817      9     0.00   0.41840   4 ;   C112-  C111-  C110-   C19
 11808  11811  11814  11817      9     0.00   0.41840   5 ;   C112-  C111-  C110-   C19
 11808  11811  11814  11817      9     0.00   1.25520   3 ;   C112-  C111-  C110-   C19
 11809  11808  11811  11812      9     0.00   0.62760   3 ;   H12R-  C112-  C111-  H11R
 11809  11808  11811  11813      9     0.00   0.62760   3 ;   H12R-  C112-  C111-  H11S
 11809  11808  11811  11814      9     0.00   0.66944   3 ;   H12R-  C112-  C111-  C110
 11810  11808  11811  11812      9     0.00   0.62760   3 ;   H12S-  C112-  C111-  H11R
 11810  11808  11811  11813      9     0.00   0.62760   3 ;   H12S-  C112-  C111-  H11S
 11810  11808  11811  11814      9     0.00   0.66944   3 ;   H12S-  C112-  C111-  C110
 11811  11814  11817  11818      9     0.00   0.66944   3 ;   C111-  C110-   C19-   H9R
 11811  11814  11817  11819      9     0.00   0.66944   3 ;   C111-  C110-   C19-   H9S
 11811  11814  11817  11820      9     0.00   0.41840   1 ;   C111-  C110-   C19-   C18
 11811  11814  11817  11820      9     0.00   0.41840   2 ;   C111-  C110-   C19-   C18
 11811  11814  11817  11820      9     0.00   0.41840   4 ;   C111-  C110-   C19-   C18
 11811  11814  11817  11820      9     0.00   0.41840   5 ;   C111-  C110-   C19-   C18
 11811  11814  11817  11820      9     0.00   1.25520   3 ;   C111-  C110-   C19-   C18
 11812  11811  11814  11815      9     0.00   0.62760   3 ;   H11R-  C111-  C110-  H10R
 11812  11811  11814  11816      9     0.00   0.62760   3 ;   H11R-  C111-  C110-  H10S
 11812  11811  11814  11817      9     0.00   0.66944   3 ;   H11R-  C111-  C110-   C19
 11813  11811  11814  11815      9     0.00   0.62760   3 ;   H11S-  C111-  C110-  H10R
 11813  11811  11814  11816      9     0.00   0.62760   3 ;   H11S-  C111-  C110-  H10S
 11813  11811  11814  11817      9     0.00   0.66944   3 ;   H11S-  C111-  C110-   C19
 11814  11817  11820  11821      9     0.00   0.66944   3 ;   C110-   C19-   C18-   H8R
 11814  11817  11820  11822      9     0.00   0.66944   3 ;   C110-   C19-   C18-   H8S
 11814  11817  11820  11823      9     0.00   0.41840   1 ;   C110-   C19-   C18-   C17
 11814  11817  11820  11823      9     0.00   0.41840   2 ;   C110-   C19-   C18-   C17
 11814  11817  11820  11823      9     0.00   0.41840   4 ;   C110-   C19-   C18-   C17
 11814  11817  11820  11823      9     0.00   0.41840   5 ;   C110-   C19-   C18-   C17
 11814  11817  11820  11823      9     0.00   1.25520   3 ;   C110-   C19-   C18-   C17
 11815  11814  11817  11818      9     0.00   0.62760   3 ;   H10R-  C110-   C19-   H9R
 11815  11814  11817  11819      9     0.00   0.62760   3 ;   H10R-  C110-   C19-   H9S
 11815  11814  11817  11820      9     0.00   0.66944   3 ;   H10R-  C110-   C19-   C18
 11816  11814  11817  11818      9     0.00   0.62760   3 ;   H10S-  C110-   C19-   H9R
 11816  11814  11817  11819      9     0.00   0.62760   3 ;   H10S-  C110-   C19-   H9S
 11816  11814  11817  11820      9     0.00   0.66944   3 ;   H10S-  C110-   C19-   C18
 11817  11820  11823  11824      9     0.00   0.66944   3 ;    C19-   C18-   C17-   H7R
 11817  11820  11823  11825      9     0.00   0.66944   3 ;    C19-   C18-   C17-   H7S
 11817  11820  11823  11826      9     0.00   0.41840   1 ;    C19-   C18-   C17-   C16
 11817  11820  11823  11826      9     0.00   0.41840   2 ;    C19-   C18-   C17-   C16
 11817  11820  11823  11826      9     0.00   0.41840   4 ;    C19-   C18-   C17-   C16
 11817  11820  11823  11826      9     0.00   0.41840   5 ;    C19-   C18-   C17-   C16
 11817  11820  11823  11826      9     0.00   1.25520   3 ;    C19-   C18-   C17-   C16
 11818  11817  11820  11821      9     0.00   0.62760   3 ;    H9R-   C19-   C18-   H8R
 11818  11817  11820  11822      9     0.00   0.62760   3 ;    H9R-   C19-   C18-   H8S
 11818  11817  11820  11823      9     0.00   0.66944   3 ;    H9R-   C19-   C18-   C17
 11819  11817  11820  11821      9     0.00   0.62760   3 ;    H9S-   C19-   C18-   H8R
 11819  11817  11820  11822      9     0.00   0.62760   3 ;    H9S-   C19-   C18-   H8S
 11819  11817  11820  11823      9     0.00   0.66944   3 ;    H9S-   C19-   C18-   C17
 11820  11823  11826  11827      9     0.00   0.66944   3 ;    C18-   C17-   C16-   H6R
 11820  11823  11826  11828      9     0.00   0.66944   3 ;    C18-   C17-   C16-   H6S
 11820  11823  11826  11829      9     0.00   0.41840   1 ;    C18-   C17-   C16-   C15
 11820  11823  11826  11829      9     0.00   0.41840   2 ;    C18-   C17-   C16-   C15
 11820  11823  11826  11829      9     0.00   0.41840   4 ;    C18-   C17-   C16-   C15
 11820  11823  11826  11829      9     0.00   0.41840   5 ;    C18-   C17-   C16-   C15
 11820  11823  11826  11829      9     0.00   1.25520   3 ;    C18-   C17-   C16-   C15
 11821  11820  11823  11824      9     0.00   0.62760   3 ;    H8R-   C18-   C17-   H7R
 11821  11820  11823  11825      9     0.00   0.62760   3 ;    H8R-   C18-   C17-   H7S
 11821  11820  11823  11826      9     0.00   0.66944   3 ;    H8R-   C18-   C17-   C16
 11822  11820  11823  11824      9     0.00   0.62760   3 ;    H8S-   C18-   C17-   H7R
 11822  11820  11823  11825      9     0.00   0.62760   3 ;    H8S-   C18-   C17-   H7S
 11822  11820  11823  11826      9     0.00   0.66944   3 ;    H8S-   C18-   C17-   C16
 11823  11826  11829  11830      9     0.00   0.66944   3 ;    C17-   C16-   C15-   H5R
 11823  11826  11829  11831      9     0.00   0.66944   3 ;    C17-   C16-   C15-   H5S
 11823  11826  11829  11832      9     0.00   0.41840   1 ;    C17-   C16-   C15-   C14
 11823  11826  11829  11832      9     0.00   0.41840   2 ;    C17-   C16-   C15-   C14
 11823  11826  11829  11832      9     0.00   0.41840   4 ;    C17-   C16-   C15-   C14
 11823  11826  11829  11832      9     0.00   0.41840   5 ;    C17-   C16-   C15-   C14
 11823  11826  11829  11832      9     0.00   1.25520   3 ;    C17-   C16-   C15-   C14
 11824  11823  11826  11827      9     0.00   0.62760   3 ;    H7R-   C17-   C16-   H6R
 11824  11823  11826  11828      9     0.00   0.62760   3 ;    H7R-   C17-   C16-   H6S
 11824  11823  11826  11829      9     0.00   0.66944   3 ;    H7R-   C17-   C16-   C15
 11825  11823  11826  11827      9     0.00   0.62760   3 ;    H7S-   C17-   C16-   H6R
 11825  11823  11826  11828      9     0.00   0.62760   3 ;    H7S-   C17-   C16-   H6S
 11825  11823  11826  11829      9     0.00   0.66944   3 ;    H7S-   C17-   C16-   C15
 11826  11829  11832  11833      9     0.00   0.66944   3 ;    C16-   C15-   C14-   H4R
 11826  11829  11832  11834      9     0.00   0.66944   3 ;    C16-   C15-   C14-   H4S
 11826  11829  11832  11835      9     0.00   0.41840   1 ;    C16-   C15-   C14-   C13
 11826  11829  11832  11835      9     0.00   0.41840   2 ;    C16-   C15-   C14-   C13
 11826  11829  11832  11835      9     0.00   0.41840   4 ;    C16-   C15-   C14-   C13
 11826  11829  11832  11835      9     0.00   0.41840   5 ;    C16-   C15-   C14-   C13
 11826  11829  11832  11835      9     0.00   1.25520   3 ;    C16-   C15-   C14-   C13
 11827  11826  11829  11830      9     0.00   0.62760   3 ;    H6R-   C16-   C15-   H5R
 11827  11826  11829  11831      9     0.00   0.62760   3 ;    H6R-   C16-   C15-   H5S
 11827  11826  11829  11832      9     0.00   0.66944   3 ;    H6R-   C16-   C15-   C14
 11828  11826  11829  11830      9     0.00   0.62760   3 ;    H6S-   C16-   C15-   H5R
 11828  11826  11829  11831      9     0.00   0.62760   3 ;    H6S-   C16-   C15-   H5S
 11828  11826  11829  11832      9     0.00   0.66944   3 ;    H6S-   C16-   C15-   C14
 11829  11832  11835  11836      9     0.00   0.66944   3 ;    C15-   C14-   C13-   H3R
 11829  11832  11835  11837      9     0.00   0.66944   3 ;    C15-   C14-   C13-   H3S
 11829  11832  11835  11838      9     0.00   0.41840   1 ;    C15-   C14-   C13-   C12
 11829  11832  11835  11838      9     0.00   0.41840   2 ;    C15-   C14-   C13-   C12
 11829  11832  11835  11838      9     0.00   0.41840   4 ;    C15-   C14-   C13-   C12
 11829  11832  11835  11838      9     0.00   0.41840   5 ;    C15-   C14-   C13-   C12
 11829  11832  11835  11838      9     0.00   1.25520   3 ;    C15-   C14-   C13-   C12
 11830  11829  11832  11833      9     0.00   0.62760   3 ;    H5R-   C15-   C14-   H4R
 11830  11829  11832  11834      9     0.00   0.62760   3 ;    H5R-   C15-   C14-   H4S
 11830  11829  11832  11835      9     0.00   0.66944   3 ;    H5R-   C15-   C14-   C13
 11831  11829  11832  11833      9     0.00   0.62760   3 ;    H5S-   C15-   C14-   H4R
 11831  11829  11832  11834      9     0.00   0.62760   3 ;    H5S-   C15-   C14-   H4S
 11831  11829  11832  11835      9     0.00   0.66944   3 ;    H5S-   C15-   C14-   C13
 11832  11835  11838  11839      9     0.00   0.66944   3 ;    C14-   C13-   C12-   H2R
 11832  11835  11838  11840      9     0.00   0.66944   3 ;    C14-   C13-   C12-   H2S
 11832  11835  11838  11841      9     0.00   0.65270   3 ;    C14-   C13-   C12-   C11
 11833  11832  11835  11836      9     0.00   0.62760   3 ;    H4R-   C14-   C13-   H3R
 11833  11832  11835  11837      9     0.00   0.62760   3 ;    H4R-   C14-   C13-   H3S
 11833  11832  11835  11838      9     0.00   0.66944   3 ;    H4R-   C14-   C13-   C12
 11834  11832  11835  11836      9     0.00   0.62760   3 ;    H4S-   C14-   C13-   H3R
 11834  11832  11835  11837      9     0.00   0.62760   3 ;    H4S-   C14-   C13-   H3S
 11834  11832  11835  11838      9     0.00   0.66944   3 ;    H4S-   C14-   C13-   C12
 11835  11838  11841  11842      9   180.00   0.00000   2 ;    C13-   C12-   C11-   O12
 11835  11838  11841  11843      9   180.00   0.00000   2 ;    C13-   C12-   C11-   O11
 11836  11835  11838  11839      9     0.00   0.62760   3 ;    H3R-   C13-   C12-   H2R
 11836  11835  11838  11840      9     0.00   0.62760   3 ;    H3R-   C13-   C12-   H2S
 11836  11835  11838  11841      9     0.00   0.65270   3 ;    H3R-   C13-   C12-   C11
 11837  11835  11838  11839      9     0.00   0.62760   3 ;    H3S-   C13-   C12-   H2R
 11837  11835  11838  11840      9     0.00   0.62760   3 ;    H3S-   C13-   C12-   H2S
 11837  11835  11838  11841      9     0.00   0.65270   3 ;    H3S-   C13-   C12-   C11
 11838  11841  11843  11844      9   180.00  11.29680   2 ;    C12-   C11-   O11-    C1
 11839  11838  11841  11842      9     0.00   3.34720   1 ;    H2R-   C12-   C11-   O12
 11839  11838  11841  11842      9   180.00   0.33472   3 ;    H2R-   C12-   C11-   O12
 11839  11838  11841  11843      9   180.00   0.00000   2 ;    H2R-   C12-   C11-   O11
 11840  11838  11841  11842      9     0.00   3.34720   1 ;    H2S-   C12-   C11-   O12
 11840  11838  11841  11842      9   180.00   0.33472   3 ;    H2S-   C12-   C11-   O12
 11840  11838  11841  11843      9   180.00   0.00000   2 ;    H2S-   C12-   C11-   O11
 11841  11843  11844  11845      9     0.00   1.60247   3 ;    C11-   O11-    C1-    HR
 11841  11843  11844  11846      9     0.00   1.60247   3 ;    C11-   O11-    C1-    HS
 11841  11843  11844  11847      9     0.00  -0.41840   1 ;    C11-   O11-    C1-    C2
 11842  11841  11843  11844      9   180.00   5.85760   1 ;    O12-   C11-   O11-    C1
 11842  11841  11843  11844      9   180.00  11.29680   2 ;    O12-   C11-   O11-    C1
 11843  11844  11847  11848      9     0.00   0.00000   0 ;    O11-    C1-    C2-    HX
 11843  11844  11847  11848      9     0.00   1.04600   1 ;    O11-    C1-    C2-    HX
 11843  11844  11847  11849      9     0.00   0.00000   0 ;    O11-    C1-    C2-    C3
 11843  11844  11847  11849      9     0.00   0.00000   0 ;    O11-    C1-    C2-    C3
 11843  11844  11847  11849      9     0.00   0.00000   0 ;    O11-    C1-    C2-    C3
 11843  11844  11847  11849      9     0.00   0.00000   0 ;    O11-    C1-    C2-    C3
 11843  11844  11847  11849      9     0.00   0.00000   0 ;    O11-    C1-    C2-    C3
 11843  11844  11847  11876      9     0.00   1.25520   2 ;    O11-    C1-    C2-   O21
 11843  11844  11847  11876      9     0.00   4.18400   3 ;    O11-    C1-    C2-   O21
 11843  11844  11847  11876      9   180.00  -0.41840   1 ;    O11-    C1-    C2-   O21
 11844  11847  11849  11850      9     0.00   0.65270   3 ;     C1-    C2-    C3-    HA
 11844  11847  11849  11851      9     0.00   0.65270   3 ;     C1-    C2-    C3-    HB
 11844  11847  11849  11852      9   180.00   3.34720   1 ;     C1-    C2-    C3-   O31
 11844  11847  11876  11877      9     0.00  -0.41840   1 ;     C1-    C2-   O21-   C21
 11845  11844  11847  11848      9     0.00   0.65270   3 ;     HR-    C1-    C2-    HX
 11845  11844  11847  11849      9     0.00   0.65270   3 ;     HR-    C1-    C2-    C3
 11845  11844  11847  11876      9     0.00   0.00000   0 ;     HR-    C1-    C2-   O21
 11845  11844  11847  11876      9     0.00   1.04600   1 ;     HR-    C1-    C2-   O21
 11846  11844  11847  11848      9     0.00   0.65270   3 ;     HS-    C1-    C2-    HX
 11846  11844  11847  11849      9     0.00   0.65270   3 ;     HS-    C1-    C2-    C3
 11846  11844  11847  11876      9     0.00   0.00000   0 ;     HS-    C1-    C2-   O21
 11846  11844  11847  11876      9     0.00   1.04600   1 ;     HS-    C1-    C2-   O21
 11847  11849  11852  11853      9     0.00   0.00000   0 ;     C2-    C3-   O31-   P31
 11847  11849  11852  11853      9   180.00  -3.34720   2 ;     C2-    C3-   O31-   P31
 11847  11876  11877  11878      9   180.00   5.85760   1 ;     C2-   O21-   C21-   O22
 11847  11876  11877  11878      9   180.00  11.29680   2 ;     C2-   O21-   C21-   O22
 11847  11876  11877  11916      9   180.00  11.29680   2 ;     C2-   O21-   C21-   C12
 11848  11847  11849  11850      9     0.00   0.65270   3 ;     HX-    C2-    C3-    HA
 11848  11847  11849  11851      9     0.00   0.65270   3 ;     HX-    C2-    C3-    HB
 11848  11847  11849  11852      9     0.00   0.00000   0 ;     HX-    C2-    C3-   O31
 11848  11847  11849  11852      9     0.00   1.04600   1 ;     HX-    C2-    C3-   O31
 11848  11847  11876  11877      9     0.00   1.60247   3 ;     HX-    C2-   O21-   C21
 11849  11847  11876  11877      9     0.00  -0.41840   1 ;     C3-    C2-   O21-   C21
 11849  11852  11853  11854      9     0.00   2.51040   3 ;     C3-   O31-   P31-   O32
 11849  11852  11853  11854      9     0.00   9.62320   2 ;     C3-   O31-   P31-   O32
 11849  11852  11853  11874      9     0.00   0.00000   0 ;     C3-   O31-   P31-   O33
 11849  11852  11853  11874      9     0.00   0.00000   0 ;     C3-   O31-   P31-   O33
 11849  11852  11853  11874      9     0.00   0.00000   0 ;     C3-   O31-   P31-   O33
 11849  11852  11853  11874      9     0.00   0.00000   0 ;     C3-   O31-   P31-   O33
 11849  11852  11853  11874      9     0.00   0.83680   2 ;     C3-   O31-   P31-   O33
 11849  11852  11853  11875      9     0.00   0.00000   0 ;     C3-   O31-   P31-   O34
 11849  11852  11853  11875      9     0.00   0.00000   0 ;     C3-   O31-   P31-   O34
 11849  11852  11853  11875      9     0.00   0.00000   0 ;     C3-   O31-   P31-   O34
 11849  11852  11853  11875      9     0.00   0.00000   0 ;     C3-   O31-   P31-   O34
 11849  11852  11853  11875      9     0.00   0.83680   2 ;     C3-   O31-   P31-   O34
 11850  11849  11847  11876      9     0.00   0.00000   0 ;     HA-    C3-    C2-   O21
 11850  11849  11847  11876      9     0.00   1.04600   1 ;     HA-    C3-    C2-   O21
 11850  11849  11852  11853      9     0.00   0.00000   0 ;     HA-    C3-   O31-   P31
 11850  11849  11852  11853      9     0.00   0.00000   0 ;     HA-    C3-   O31-   P31
 11850  11849  11852  11853      9     0.00   0.00000   0 ;     HA-    C3-   O31-   P31
 11850  11849  11852  11853      9     0.00   0.00000   0 ;     HA-    C3-   O31-   P31
 11850  11849  11852  11853      9     0.00   1.60247   3 ;     HA-    C3-   O31-   P31
 11851  11849  11847  11876      9     0.00   0.00000   0 ;     HB-    C3-    C2-   O21
 11851  11849  11847  11876      9     0.00   1.04600   1 ;     HB-    C3-    C2-   O21
 11851  11849  11852  11853      9     0.00   0.00000   0 ;     HB-    C3-   O31-   P31
 11851  11849  11852  11853      9     0.00   0.00000   0 ;     HB-    C3-   O31-   P31
 11851  11849  11852  11853      9     0.00   0.00000   0 ;     HB-    C3-   O31-   P31
 11851  11849  11852  11853      9     0.00   0.00000   0 ;     HB-    C3-   O31-   P31
 11851  11849  11852  11853      9     0.00   1.60247   3 ;     HB-    C3-   O31-   P31
 11852  11849  11847  11876      9     0.00   0.00000   0 ;    O31-    C3-    C2-   O21
 11852  11849  11847  11876      9     0.00   0.00000   0 ;    O31-    C3-    C2-   O21
 11852  11849  11847  11876      9     0.00   0.00000   0 ;    O31-    C3-    C2-   O21
 11852  11849  11847  11876      9     0.00   0.00000   0 ;    O31-    C3-    C2-   O21
 11852  11849  11847  11876      9     0.00   0.00000   0 ;    O31-    C3-    C2-   O21
 11852  11853  11854  11855      9     0.00   2.51040   3 ;    O31-   P31-   O32-   C31
 11852  11853  11854  11855      9     0.00   9.62320   2 ;    O31-   P31-   O32-   C31
 11853  11854  11855  11856      9     0.00   0.00000   0 ;    P31-   O32-   C31-   H1A
 11853  11854  11855  11856      9     0.00   0.00000   0 ;    P31-   O32-   C31-   H1A
 11853  11854  11855  11856      9     0.00   0.00000   0 ;    P31-   O32-   C31-   H1A
 11853  11854  11855  11856      9     0.00   0.00000   0 ;    P31-   O32-   C31-   H1A
 11853  11854  11855  11856      9     0.00   1.60247   3 ;    P31-   O32-   C31-   H1A
 11853  11854  11855  11857      9     0.00   0.00000   0 ;    P31-   O32-   C31-   H1B
 11853  11854  11855  11857      9     0.00   0.00000   0 ;    P31-   O32-   C31-   H1B
 11853  11854  11855  11857      9     0.00   0.00000   0 ;    P31-   O32-   C31-   H1B
 11853  11854  11855  11857      9     0.00   0.00000   0 ;    P31-   O32-   C31-   H1B
 11853  11854  11855  11857      9     0.00   1.60247   3 ;    P31-   O32-   C31-   H1B
 11853  11854  11855  11858      9     0.00   0.00000   0 ;    P31-   O32-   C31-   C32
 11853  11854  11855  11858      9   180.00  -3.34720   2 ;    P31-   O32-   C31-   C32
 11854  11855  11858  11859      9     0.00   0.65270   3 ;    O32-   C31-   C32-   H2A
 11854  11855  11858  11860      9     0.00   0.65270   3 ;    O32-   C31-   C32-   H2B
 11854  11855  11858  11861      9     0.00   4.18400   3 ;    O32-   C31-   C32-   N31
 11855  11854  11853  11874      9     0.00   0.00000   0 ;    C31-   O32-   P31-   O33
 11855  11854  11853  11874      9     0.00   0.00000   0 ;    C31-   O32-   P31-   O33
 11855  11854  11853  11874      9     0.00   0.00000   0 ;    C31-   O32-   P31-   O33
 11855  11854  11853  11874      9     0.00   0.00000   0 ;    C31-   O32-   P31-   O33
 11855  11854  11853  11874      9     0.00   0.83680   2 ;    C31-   O32-   P31-   O33
 11855  11854  11853  11875      9     0.00   0.00000   0 ;    C31-   O32-   P31-   O34
 11855  11854  11853  11875      9     0.00   0.00000   0 ;    C31-   O32-   P31-   O34
 11855  11854  11853  11875      9     0.00   0.00000   0 ;    C31-   O32-   P31-   O34
 11855  11854  11853  11875      9     0.00   0.00000   0 ;    C31-   O32-   P31-   O34
 11855  11854  11853  11875      9     0.00   0.83680   2 ;    C31-   O32-   P31-   O34
 11855  11858  11861  11862      9     0.00   0.65270   3 ;    C31-   C32-   N31-   C33
 11855  11858  11861  11866      9     0.00   0.65270   3 ;    C31-   C32-   N31-   C34
 11855  11858  11861  11870      9     0.00   0.65270   3 ;    C31-   C32-   N31-   C35
 11856  11855  11858  11859      9     0.00   0.65270   3 ;    H1A-   C31-   C32-   H2A
 11856  11855  11858  11860      9     0.00   0.65270   3 ;    H1A-   C31-   C32-   H2B
 11856  11855  11858  11861      9     0.00   0.65270   3 ;    H1A-   C31-   C32-   N31
 11857  11855  11858  11859      9     0.00   0.65270   3 ;    H1B-   C31-   C32-   H2A
 11857  11855  11858  11860      9     0.00   0.65270   3 ;    H1B-   C31-   C32-   H2B
 11857  11855  11858  11861      9     0.00   0.65270   3 ;    H1B-   C31-   C32-   N31
 11858  11861  11862  11863      9     0.00   0.65270   3 ;    C32-   N31-   C33-   H3A
 11858  11861  11862  11864      9     0.00   0.65270   3 ;    C32-   N31-   C33-   H3B
 11858  11861  11862  11865      9     0.00   0.65270   3 ;    C32-   N31-   C33-   H3C
 11858  11861  11866  11867      9     0.00   0.65270   3 ;    C32-   N31-   C34-   H4A
 11858  11861  11866  11868      9     0.00   0.65270   3 ;    C32-   N31-   C34-   H4B
 11858  11861  11866  11869      9     0.00   0.65270   3 ;    C32-   N31-   C34-   H4C
 11858  11861  11870  11871      9     0.00   0.65270   3 ;    C32-   N31-   C35-   H5A
 11858  11861  11870  11872      9     0.00   0.65270   3 ;    C32-   N31-   C35-   H5B
 11858  11861  11870  11873      9     0.00   0.65270   3 ;    C32-   N31-   C35-   H5C
 11859  11858  11861  11862      9     0.00   0.65270   3 ;    H2A-   C32-   N31-   C33
 11859  11858  11861  11866      9     0.00   0.65270   3 ;    H2A-   C32-   N31-   C34
 11859  11858  11861  11870      9     0.00   0.65270   3 ;    H2A-   C32-   N31-   C35
 11860  11858  11861  11862      9     0.00   0.65270   3 ;    H2B-   C32-   N31-   C33
 11860  11858  11861  11866      9     0.00   0.65270   3 ;    H2B-   C32-   N31-   C34
 11860  11858  11861  11870      9     0.00   0.65270   3 ;    H2B-   C32-   N31-   C35
 11862  11861  11866  11867      9     0.00   0.65270   3 ;    C33-   N31-   C34-   H4A
 11862  11861  11866  11868      9     0.00   0.65270   3 ;    C33-   N31-   C34-   H4B
 11862  11861  11866  11869      9     0.00   0.65270   3 ;    C33-   N31-   C34-   H4C
 11862  11861  11870  11871      9     0.00   0.65270   3 ;    C33-   N31-   C35-   H5A
 11862  11861  11870  11872      9     0.00   0.65270   3 ;    C33-   N31-   C35-   H5B
 11862  11861  11870  11873      9     0.00   0.65270   3 ;    C33-   N31-   C35-   H5C
 11863  11862  11861  11866      9     0.00   0.65270   3 ;    H3A-   C33-   N31-   C34
 11863  11862  11861  11870      9     0.00   0.65270   3 ;    H3A-   C33-   N31-   C35
 11864  11862  11861  11866      9     0.00   0.65270   3 ;    H3B-   C33-   N31-   C34
 11864  11862  11861  11870      9     0.00   0.65270   3 ;    H3B-   C33-   N31-   C35
 11865  11862  11861  11866      9     0.00   0.65270   3 ;    H3C-   C33-   N31-   C34
 11865  11862  11861  11870      9     0.00   0.65270   3 ;    H3C-   C33-   N31-   C35
 11866  11861  11870  11871      9     0.00   0.65270   3 ;    C34-   N31-   C35-   H5A
 11866  11861  11870  11872      9     0.00   0.65270   3 ;    C34-   N31-   C35-   H5B
 11866  11861  11870  11873      9     0.00   0.65270   3 ;    C34-   N31-   C35-   H5C
 11867  11866  11861  11870      9     0.00   0.65270   3 ;    H4A-   C34-   N31-   C35
 11868  11866  11861  11870      9     0.00   0.65270   3 ;    H4B-   C34-   N31-   C35
 11869  11866  11861  11870      9     0.00   0.65270   3 ;    H4C-   C34-   N31-   C35
 11876  11877  11916  11913      9   180.00   0.00000   2 ;    O21-   C21-   C12-   C13
 11876  11877  11916  11917      9   180.00   0.00000   2 ;    O21-   C21-   C12-   H2R
 11876  11877  11916  11918      9   180.00   0.00000   2 ;    O21-   C21-   C12-   H2S
 11877  11916  11913  11910      9     0.00   0.65270   3 ;    C21-   C12-   C13-   C14
 11877  11916  11913  11914      9     0.00   0.65270   3 ;    C21-   C12-   C13-   H3R
 11877  11916  11913  11915      9     0.00   0.65270   3 ;    C21-   C12-   C13-   H3S
 11878  11877  11916  11913      9   180.00   0.00000   2 ;    O22-   C21-   C12-   C13
 11878  11877  11916  11917      9     0.00   3.34720   1 ;    O22-   C21-   C12-   H2R
 11878  11877  11916  11917      9   180.00   0.33472   3 ;    O22-   C21-   C12-   H2R
 11878  11877  11916  11918      9     0.00   3.34720   1 ;    O22-   C21-   C12-   H2S
 11878  11877  11916  11918      9   180.00   0.33472   3 ;    O22-   C21-   C12-   H2S
 11879  11880  11883  11884      9     0.00   0.62760   3 ;   H14T-  C114-  C113-  H13R
 11879  11880  11883  11885      9     0.00   0.62760   3 ;   H14T-  C114-  C113-  H13S
 11879  11880  11883  11886      9     0.00   0.66944   3 ;   H14T-  C114-  C113-  C112
 11880  11883  11886  11887      9     0.00   0.66944   3 ;   C114-  C113-  C112-  H12R
 11880  11883  11886  11888      9     0.00   0.66944   3 ;   C114-  C113-  C112-  H12S
 11880  11883  11886  11889      9     0.00   0.41840   1 ;   C114-  C113-  C112-  C111
 11880  11883  11886  11889      9     0.00   0.41840   2 ;   C114-  C113-  C112-  C111
 11880  11883  11886  11889      9     0.00   0.41840   4 ;   C114-  C113-  C112-  C111
 11880  11883  11886  11889      9     0.00   0.41840   5 ;   C114-  C113-  C112-  C111
 11880  11883  11886  11889      9     0.00   1.25520   3 ;   C114-  C113-  C112-  C111
 11881  11880  11883  11884      9     0.00   0.62760   3 ;   H14R-  C114-  C113-  H13R
 11881  11880  11883  11885      9     0.00   0.62760   3 ;   H14R-  C114-  C113-  H13S
 11881  11880  11883  11886      9     0.00   0.66944   3 ;   H14R-  C114-  C113-  C112
 11882  11880  11883  11884      9     0.00   0.62760   3 ;   H14S-  C114-  C113-  H13R
 11882  11880  11883  11885      9     0.00   0.62760   3 ;   H14S-  C114-  C113-  H13S
 11882  11880  11883  11886      9     0.00   0.66944   3 ;   H14S-  C114-  C113-  C112
 11883  11886  11889  11890      9     0.00   0.66944   3 ;   C113-  C112-  C111-  H11R
 11883  11886  11889  11891      9     0.00   0.66944   3 ;   C113-  C112-  C111-  H11S
 11883  11886  11889  11892      9     0.00   0.41840   1 ;   C113-  C112-  C111-  C110
 11883  11886  11889  11892      9     0.00   0.41840   2 ;   C113-  C112-  C111-  C110
 11883  11886  11889  11892      9     0.00   0.41840   4 ;   C113-  C112-  C111-  C110
 11883  11886  11889  11892      9     0.00   0.41840   5 ;   C113-  C112-  C111-  C110
 11883  11886  11889  11892      9     0.00   1.25520   3 ;   C113-  C112-  C111-  C110
 11884  11883  11886  11887      9     0.00   0.62760   3 ;   H13R-  C113-  C112-  H12R
 11884  11883  11886  11888      9     0.00   0.62760   3 ;   H13R-  C113-  C112-  H12S
 11884  11883  11886  11889      9     0.00   0.66944   3 ;   H13R-  C113-  C112-  C111
 11885  11883  11886  11887      9     0.00   0.62760   3 ;   H13S-  C113-  C112-  H12R
 11885  11883  11886  11888      9     0.00   0.62760   3 ;   H13S-  C113-  C112-  H12S
 11885  11883  11886  11889      9     0.00   0.66944   3 ;   H13S-  C113-  C112-  C111
 11886  11889  11892  11893      9     0.00   0.66944   3 ;   C112-  C111-  C110-  H10R
 11886  11889  11892  11894      9     0.00   0.66944   3 ;   C112-  C111-  C110-  H10S
 11886  11889  11892  11895      9     0.00   0.41840   1 ;   C112-  C111-  C110-   C19
 11886  11889  11892  11895      9     0.00   0.41840   2 ;   C112-  C111-  C110-   C19
 11886  11889  11892  11895      9     0.00   0.41840   4 ;   C112-  C111-  C110-   C19
 11886  11889  11892  11895      9     0.00   0.41840   5 ;   C112-  C111-  C110-   C19
 11886  11889  11892  11895      9     0.00   1.25520   3 ;   C112-  C111-  C110-   C19
 11887  11886  11889  11890      9     0.00   0.62760   3 ;   H12R-  C112-  C111-  H11R
 11887  11886  11889  11891      9     0.00   0.62760   3 ;   H12R-  C112-  C111-  H11S
 11887  11886  11889  11892      9     0.00   0.66944   3 ;   H12R-  C112-  C111-  C110
 11888  11886  11889  11890      9     0.00   0.62760   3 ;   H12S-  C112-  C111-  H11R
 11888  11886  11889  11891      9     0.00   0.62760   3 ;   H12S-  C112-  C111-  H11S
 11888  11886  11889  11892      9     0.00   0.66944   3 ;   H12S-  C112-  C111-  C110
 11889  11892  11895  11896      9     0.00   0.66944   3 ;   C111-  C110-   C19-   H9R
 11889  11892  11895  11897      9     0.00   0.66944   3 ;   C111-  C110-   C19-   H9S
 11889  11892  11895  11898      9     0.00   0.41840   1 ;   C111-  C110-   C19-   C18
 11889  11892  11895  11898      9     0.00   0.41840   2 ;   C111-  C110-   C19-   C18
 11889  11892  11895  11898      9     0.00   0.41840   4 ;   C111-  C110-   C19-   C18
 11889  11892  11895  11898      9     0.00   0.41840   5 ;   C111-  C110-   C19-   C18
 11889  11892  11895  11898      9     0.00   1.25520   3 ;   C111-  C110-   C19-   C18
 11890  11889  11892  11893      9     0.00   0.62760   3 ;   H11R-  C111-  C110-  H10R
 11890  11889  11892  11894      9     0.00   0.62760   3 ;   H11R-  C111-  C110-  H10S
 11890  11889  11892  11895      9     0.00   0.66944   3 ;   H11R-  C111-  C110-   C19
 11891  11889  11892  11893      9     0.00   0.62760   3 ;   H11S-  C111-  C110-  H10R
 11891  11889  11892  11894      9     0.00   0.62760   3 ;   H11S-  C111-  C110-  H10S
 11891  11889  11892  11895      9     0.00   0.66944   3 ;   H11S-  C111-  C110-   C19
 11892  11895  11898  11899      9     0.00   0.66944   3 ;   C110-   C19-   C18-   H8R
 11892  11895  11898  11900      9     0.00   0.66944   3 ;   C110-   C19-   C18-   H8S
 11892  11895  11898  11901      9     0.00   0.41840   1 ;   C110-   C19-   C18-   C17
 11892  11895  11898  11901      9     0.00   0.41840   2 ;   C110-   C19-   C18-   C17
 11892  11895  11898  11901      9     0.00   0.41840   4 ;   C110-   C19-   C18-   C17
 11892  11895  11898  11901      9     0.00   0.41840   5 ;   C110-   C19-   C18-   C17
 11892  11895  11898  11901      9     0.00   1.25520   3 ;   C110-   C19-   C18-   C17
 11893  11892  11895  11896      9     0.00   0.62760   3 ;   H10R-  C110-   C19-   H9R
 11893  11892  11895  11897      9     0.00   0.62760   3 ;   H10R-  C110-   C19-   H9S
 11893  11892  11895  11898      9     0.00   0.66944   3 ;   H10R-  C110-   C19-   C18
 11894  11892  11895  11896      9     0.00   0.62760   3 ;   H10S-  C110-   C19-   H9R
 11894  11892  11895  11897      9     0.00   0.62760   3 ;   H10S-  C110-   C19-   H9S
 11894  11892  11895  11898      9     0.00   0.66944   3 ;   H10S-  C110-   C19-   C18
 11895  11898  11901  11902      9     0.00   0.66944   3 ;    C19-   C18-   C17-   H7R
 11895  11898  11901  11903      9     0.00   0.66944   3 ;    C19-   C18-   C17-   H7S
 11895  11898  11901  11904      9     0.00   0.41840   1 ;    C19-   C18-   C17-   C16
 11895  11898  11901  11904      9     0.00   0.41840   2 ;    C19-   C18-   C17-   C16
 11895  11898  11901  11904      9     0.00   0.41840   4 ;    C19-   C18-   C17-   C16
 11895  11898  11901  11904      9     0.00   0.41840   5 ;    C19-   C18-   C17-   C16
 11895  11898  11901  11904      9     0.00   1.25520   3 ;    C19-   C18-   C17-   C16
 11896  11895  11898  11899      9     0.00   0.62760   3 ;    H9R-   C19-   C18-   H8R
 11896  11895  11898  11900      9     0.00   0.62760   3 ;    H9R-   C19-   C18-   H8S
 11896  11895  11898  11901      9     0.00   0.66944   3 ;    H9R-   C19-   C18-   C17
 11897  11895  11898  11899      9     0.00   0.62760   3 ;    H9S-   C19-   C18-   H8R
 11897  11895  11898  11900      9     0.00   0.62760   3 ;    H9S-   C19-   C18-   H8S
 11897  11895  11898  11901      9     0.00   0.66944   3 ;    H9S-   C19-   C18-   C17
 11898  11901  11904  11905      9     0.00   0.66944   3 ;    C18-   C17-   C16-   H6R
 11898  11901  11904  11906      9     0.00   0.66944   3 ;    C18-   C17-   C16-   H6S
 11898  11901  11904  11907      9     0.00   0.41840   1 ;    C18-   C17-   C16-   C15
 11898  11901  11904  11907      9     0.00   0.41840   2 ;    C18-   C17-   C16-   C15
 11898  11901  11904  11907      9     0.00   0.41840   4 ;    C18-   C17-   C16-   C15
 11898  11901  11904  11907      9     0.00   0.41840   5 ;    C18-   C17-   C16-   C15
 11898  11901  11904  11907      9     0.00   1.25520   3 ;    C18-   C17-   C16-   C15
 11899  11898  11901  11902      9     0.00   0.62760   3 ;    H8R-   C18-   C17-   H7R
 11899  11898  11901  11903      9     0.00   0.62760   3 ;    H8R-   C18-   C17-   H7S
 11899  11898  11901  11904      9     0.00   0.66944   3 ;    H8R-   C18-   C17-   C16
 11900  11898  11901  11902      9     0.00   0.62760   3 ;    H8S-   C18-   C17-   H7R
 11900  11898  11901  11903      9     0.00   0.62760   3 ;    H8S-   C18-   C17-   H7S
 11900  11898  11901  11904      9     0.00   0.66944   3 ;    H8S-   C18-   C17-   C16
 11901  11904  11907  11908      9     0.00   0.66944   3 ;    C17-   C16-   C15-   H5R
 11901  11904  11907  11909      9     0.00   0.66944   3 ;    C17-   C16-   C15-   H5S
 11901  11904  11907  11910      9     0.00   0.41840   1 ;    C17-   C16-   C15-   C14
 11901  11904  11907  11910      9     0.00   0.41840   2 ;    C17-   C16-   C15-   C14
 11901  11904  11907  11910      9     0.00   0.41840   4 ;    C17-   C16-   C15-   C14
 11901  11904  11907  11910      9     0.00   0.41840   5 ;    C17-   C16-   C15-   C14
 11901  11904  11907  11910      9     0.00   1.25520   3 ;    C17-   C16-   C15-   C14
 11902  11901  11904  11905      9     0.00   0.62760   3 ;    H7R-   C17-   C16-   H6R
 11902  11901  11904  11906      9     0.00   0.62760   3 ;    H7R-   C17-   C16-   H6S
 11902  11901  11904  11907      9     0.00   0.66944   3 ;    H7R-   C17-   C16-   C15
 11903  11901  11904  11905      9     0.00   0.62760   3 ;    H7S-   C17-   C16-   H6R
 11903  11901  11904  11906      9     0.00   0.62760   3 ;    H7S-   C17-   C16-   H6S
 11903  11901  11904  11907      9     0.00   0.66944   3 ;    H7S-   C17-   C16-   C15
 11904  11907  11910  11911      9     0.00   0.66944   3 ;    C16-   C15-   C14-   H4R
 11904  11907  11910  11912      9     0.00   0.66944   3 ;    C16-   C15-   C14-   H4S
 11904  11907  11910  11913      9     0.00   0.41840   1 ;    C16-   C15-   C14-   C13
 11904  11907  11910  11913      9     0.00   0.41840   2 ;    C16-   C15-   C14-   C13
 11904  11907  11910  11913      9     0.00   0.41840   4 ;    C16-   C15-   C14-   C13
 11904  11907  11910  11913      9     0.00   0.41840   5 ;    C16-   C15-   C14-   C13
 11904  11907  11910  11913      9     0.00   1.25520   3 ;    C16-   C15-   C14-   C13
 11905  11904  11907  11908      9     0.00   0.62760   3 ;    H6R-   C16-   C15-   H5R
 11905  11904  11907  11909      9     0.00   0.62760   3 ;    H6R-   C16-   C15-   H5S
 11905  11904  11907  11910      9     0.00   0.66944   3 ;    H6R-   C16-   C15-   C14
 11906  11904  11907  11908      9     0.00   0.62760   3 ;    H6S-   C16-   C15-   H5R
 11906  11904  11907  11909      9     0.00   0.62760   3 ;    H6S-   C16-   C15-   H5S
 11906  11904  11907  11910      9     0.00   0.66944   3 ;    H6S-   C16-   C15-   C14
 11907  11910  11913  11914      9     0.00   0.66944   3 ;    C15-   C14-   C13-   H3R
 11907  11910  11913  11915      9     0.00   0.66944   3 ;    C15-   C14-   C13-   H3S
 11907  11910  11913  11916      9     0.00   0.41840   1 ;    C15-   C14-   C13-   C12
 11907  11910  11913  11916      9     0.00   0.41840   2 ;    C15-   C14-   C13-   C12
 11907  11910  11913  11916      9     0.00   0.41840   4 ;    C15-   C14-   C13-   C12
 11907  11910  11913  11916      9     0.00   0.41840   5 ;    C15-   C14-   C13-   C12
 11907  11910  11913  11916      9     0.00   1.25520   3 ;    C15-   C14-   C13-   C12
 11908  11907  11910  11911      9     0.00   0.62760   3 ;    H5R-   C15-   C14-   H4R
 11908  11907  11910  11912      9     0.00   0.62760   3 ;    H5R-   C15-   C14-   H4S
 11908  11907  11910  11913      9     0.00   0.66944   3 ;    H5R-   C15-   C14-   C13
 11909  11907  11910  11911      9     0.00   0.62760   3 ;    H5S-   C15-   C14-   H4R
 11909  11907  11910  11912      9     0.00   0.62760   3 ;    H5S-   C15-   C14-   H4S
 11909  11907  11910  11913      9     0.00   0.66944   3 ;    H5S-   C15-   C14-   C13
 11910  11913  11916  11917      9     0.00   0.66944   3 ;    C14-   C13-   C12-   H2R
 11910  11913  11916  11918      9     0.00   0.66944   3 ;    C14-   C13-   C12-   H2S
 11911  11910  11913  11914      9     0.00   0.62760   3 ;    H4R-   C14-   C13-   H3R
 11911  11910  11913  11915      9     0.00   0.62760   3 ;    H4R-   C14-   C13-   H3S
 11911  11910  11913  11916      9     0.00   0.66944   3 ;    H4R-   C14-   C13-   C12
 11912  11910  11913  11914      9     0.00   0.62760   3 ;    H4S-   C14-   C13-   H3R
 11912  11910  11913  11915      9     0.00   0.62760   3 ;    H4S-   C14-   C13-   H3S
 11912  11910  11913  11916      9     0.00   0.66944   3 ;    H4S-   C14-   C13-   C12
 11914  11913  11916  11917      9     0.00   0.62760   3 ;    H3R-   C13-   C12-   H2R
 11914  11913  11916  11918      9     0.00   0.62760   3 ;    H3R-   C13-   C12-   H2S
 11915  11913  11916  11917      9     0.00   0.62760   3 ;    H3S-   C13-   C12-   H2R
 11915  11913  11916  11918      9     0.00   0.62760   3 ;    H3S-   C13-   C12-   H2S
 11919  11920  11923  11924      9     0.00   0.62760   3 ;   H14T-  C114-  C113-  H13R
 11919  11920  11923  11925      9     0.00   0.62760   3 ;   H14T-  C114-  C113-  H13S
 11919  11920  11923  11926      9     0.00   0.66944   3 ;   H14T-  C114-  C113-  C112
 11920  11923  11926  11927      9     0.00   0.66944   3 ;   C114-  C113-  C112-  H12R
 11920  11923  11926  11928      9     0.00   0.66944   3 ;   C114-  C113-  C112-  H12S
 11920  11923  11926  11929      9     0.00   0.41840   1 ;   C114-  C113-  C112-  C111
 11920  11923  11926  11929      9     0.00   0.41840   2 ;   C114-  C113-  C112-  C111
 11920  11923  11926  11929      9     0.00   0.41840   4 ;   C114-  C113-  C112-  C111
 11920  11923  11926  11929      9     0.00   0.41840   5 ;   C114-  C113-  C112-  C111
 11920  11923  11926  11929      9     0.00   1.25520   3 ;   C114-  C113-  C112-  C111
 11921  11920  11923  11924      9     0.00   0.62760   3 ;   H14R-  C114-  C113-  H13R
 11921  11920  11923  11925      9     0.00   0.62760   3 ;   H14R-  C114-  C113-  H13S
 11921  11920  11923  11926      9     0.00   0.66944   3 ;   H14R-  C114-  C113-  C112
 11922  11920  11923  11924      9     0.00   0.62760   3 ;   H14S-  C114-  C113-  H13R
 11922  11920  11923  11925      9     0.00   0.62760   3 ;   H14S-  C114-  C113-  H13S
 11922  11920  11923  11926      9     0.00   0.66944   3 ;   H14S-  C114-  C113-  C112
 11923  11926  11929  11930      9     0.00   0.66944   3 ;   C113-  C112-  C111-  H11R
 11923  11926  11929  11931      9     0.00   0.66944   3 ;   C113-  C112-  C111-  H11S
 11923  11926  11929  11932      9     0.00   0.41840   1 ;   C113-  C112-  C111-  C110
 11923  11926  11929  11932      9     0.00   0.41840   2 ;   C113-  C112-  C111-  C110
 11923  11926  11929  11932      9     0.00   0.41840   4 ;   C113-  C112-  C111-  C110
 11923  11926  11929  11932      9     0.00   0.41840   5 ;   C113-  C112-  C111-  C110
 11923  11926  11929  11932      9     0.00   1.25520   3 ;   C113-  C112-  C111-  C110
 11924  11923  11926  11927      9     0.00   0.62760   3 ;   H13R-  C113-  C112-  H12R
 11924  11923  11926  11928      9     0.00   0.62760   3 ;   H13R-  C113-  C112-  H12S
 11924  11923  11926  11929      9     0.00   0.66944   3 ;   H13R-  C113-  C112-  C111
 11925  11923  11926  11927      9     0.00   0.62760   3 ;   H13S-  C113-  C112-  H12R
 11925  11923  11926  11928      9     0.00   0.62760   3 ;   H13S-  C113-  C112-  H12S
 11925  11923  11926  11929      9     0.00   0.66944   3 ;   H13S-  C113-  C112-  C111
 11926  11929  11932  11933      9     0.00   0.66944   3 ;   C112-  C111-  C110-  H10R
 11926  11929  11932  11934      9     0.00   0.66944   3 ;   C112-  C111-  C110-  H10S
 11926  11929  11932  11935      9     0.00   0.41840   1 ;   C112-  C111-  C110-   C19
 11926  11929  11932  11935      9     0.00   0.41840   2 ;   C112-  C111-  C110-   C19
 11926  11929  11932  11935      9     0.00   0.41840   4 ;   C112-  C111-  C110-   C19
 11926  11929  11932  11935      9     0.00   0.41840   5 ;   C112-  C111-  C110-   C19
 11926  11929  11932  11935      9     0.00   1.25520   3 ;   C112-  C111-  C110-   C19
 11927  11926  11929  11930      9     0.00   0.62760   3 ;   H12R-  C112-  C111-  H11R
 11927  11926  11929  11931      9     0.00   0.62760   3 ;   H12R-  C112-  C111-  H11S
 11927  11926  11929  11932      9     0.00   0.66944   3 ;   H12R-  C112-  C111-  C110
 11928  11926  11929  11930      9     0.00   0.62760   3 ;   H12S-  C112-  C111-  H11R
 11928  11926  11929  11931      9     0.00   0.62760   3 ;   H12S-  C112-  C111-  H11S
 11928  11926  11929  11932      9     0.00   0.66944   3 ;   H12S-  C112-  C111-  C110
 11929  11932  11935  11936      9     0.00   0.66944   3 ;   C111-  C110-   C19-   H9R
 11929  11932  11935  11937      9     0.00   0.66944   3 ;   C111-  C110-   C19-   H9S
 11929  11932  11935  11938      9     0.00   0.41840   1 ;   C111-  C110-   C19-   C18
 11929  11932  11935  11938      9     0.00   0.41840   2 ;   C111-  C110-   C19-   C18
 11929  11932  11935  11938      9     0.00   0.41840   4 ;   C111-  C110-   C19-   C18
 11929  11932  11935  11938      9     0.00   0.41840   5 ;   C111-  C110-   C19-   C18
 11929  11932  11935  11938      9     0.00   1.25520   3 ;   C111-  C110-   C19-   C18
 11930  11929  11932  11933      9     0.00   0.62760   3 ;   H11R-  C111-  C110-  H10R
 11930  11929  11932  11934      9     0.00   0.62760   3 ;   H11R-  C111-  C110-  H10S
 11930  11929  11932  11935      9     0.00   0.66944   3 ;   H11R-  C111-  C110-   C19
 11931  11929  11932  11933      9     0.00   0.62760   3 ;   H11S-  C111-  C110-  H10R
 11931  11929  11932  11934      9     0.00   0.62760   3 ;   H11S-  C111-  C110-  H10S
 11931  11929  11932  11935      9     0.00   0.66944   3 ;   H11S-  C111-  C110-   C19
 11932  11935  11938  11939      9     0.00   0.66944   3 ;   C110-   C19-   C18-   H8R
 11932  11935  11938  11940      9     0.00   0.66944   3 ;   C110-   C19-   C18-   H8S
 11932  11935  11938  11941      9     0.00   0.41840   1 ;   C110-   C19-   C18-   C17
 11932  11935  11938  11941      9     0.00   0.41840   2 ;   C110-   C19-   C18-   C17
 11932  11935  11938  11941      9     0.00   0.41840   4 ;   C110-   C19-   C18-   C17
 11932  11935  11938  11941      9     0.00   0.41840   5 ;   C110-   C19-   C18-   C17
 11932  11935  11938  11941      9     0.00   1.25520   3 ;   C110-   C19-   C18-   C17
 11933  11932  11935  11936      9     0.00   0.62760   3 ;   H10R-  C110-   C19-   H9R
 11933  11932  11935  11937      9     0.00   0.62760   3 ;   H10R-  C110-   C19-   H9S
 11933  11932  11935  11938      9     0.00   0.66944   3 ;   H10R-  C110-   C19-   C18
 11934  11932  11935  11936      9     0.00   0.62760   3 ;   H10S-  C110-   C19-   H9R
 11934  11932  11935  11937      9     0.00   0.62760   3 ;   H10S-  C110-   C19-   H9S
 11934  11932  11935  11938      9     0.00   0.66944   3 ;   H10S-  C110-   C19-   C18
 11935  11938  11941  11942      9     0.00   0.66944   3 ;    C19-   C18-   C17-   H7R
 11935  11938  11941  11943      9     0.00   0.66944   3 ;    C19-   C18-   C17-   H7S
 11935  11938  11941  11944      9     0.00   0.41840   1 ;    C19-   C18-   C17-   C16
 11935  11938  11941  11944      9     0.00   0.41840   2 ;    C19-   C18-   C17-   C16
 11935  11938  11941  11944      9     0.00   0.41840   4 ;    C19-   C18-   C17-   C16
 11935  11938  11941  11944      9     0.00   0.41840   5 ;    C19-   C18-   C17-   C16
 11935  11938  11941  11944      9     0.00   1.25520   3 ;    C19-   C18-   C17-   C16
 11936  11935  11938  11939      9     0.00   0.62760   3 ;    H9R-   C19-   C18-   H8R
 11936  11935  11938  11940      9     0.00   0.62760   3 ;    H9R-   C19-   C18-   H8S
 11936  11935  11938  11941      9     0.00   0.66944   3 ;    H9R-   C19-   C18-   C17
 11937  11935  11938  11939      9     0.00   0.62760   3 ;    H9S-   C19-   C18-   H8R
 11937  11935  11938  11940      9     0.00   0.62760   3 ;    H9S-   C19-   C18-   H8S
 11937  11935  11938  11941      9     0.00   0.66944   3 ;    H9S-   C19-   C18-   C17
 11938  11941  11944  11945      9     0.00   0.66944   3 ;    C18-   C17-   C16-   H6R
 11938  11941  11944  11946      9     0.00   0.66944   3 ;    C18-   C17-   C16-   H6S
 11938  11941  11944  11947      9     0.00   0.41840   1 ;    C18-   C17-   C16-   C15
 11938  11941  11944  11947      9     0.00   0.41840   2 ;    C18-   C17-   C16-   C15
 11938  11941  11944  11947      9     0.00   0.41840   4 ;    C18-   C17-   C16-   C15
 11938  11941  11944  11947      9     0.00   0.41840   5 ;    C18-   C17-   C16-   C15
 11938  11941  11944  11947      9     0.00   1.25520   3 ;    C18-   C17-   C16-   C15
 11939  11938  11941  11942      9     0.00   0.62760   3 ;    H8R-   C18-   C17-   H7R
 11939  11938  11941  11943      9     0.00   0.62760   3 ;    H8R-   C18-   C17-   H7S
 11939  11938  11941  11944      9     0.00   0.66944   3 ;    H8R-   C18-   C17-   C16
 11940  11938  11941  11942      9     0.00   0.62760   3 ;    H8S-   C18-   C17-   H7R
 11940  11938  11941  11943      9     0.00   0.62760   3 ;    H8S-   C18-   C17-   H7S
 11940  11938  11941  11944      9     0.00   0.66944   3 ;    H8S-   C18-   C17-   C16
 11941  11944  11947  11948      9     0.00   0.66944   3 ;    C17-   C16-   C15-   H5R
 11941  11944  11947  11949      9     0.00   0.66944   3 ;    C17-   C16-   C15-   H5S
 11941  11944  11947  11950      9     0.00   0.41840   1 ;    C17-   C16-   C15-   C14
 11941  11944  11947  11950      9     0.00   0.41840   2 ;    C17-   C16-   C15-   C14
 11941  11944  11947  11950      9     0.00   0.41840   4 ;    C17-   C16-   C15-   C14
 11941  11944  11947  11950      9     0.00   0.41840   5 ;    C17-   C16-   C15-   C14
 11941  11944  11947  11950      9     0.00   1.25520   3 ;    C17-   C16-   C15-   C14
 11942  11941  11944  11945      9     0.00   0.62760   3 ;    H7R-   C17-   C16-   H6R
 11942  11941  11944  11946      9     0.00   0.62760   3 ;    H7R-   C17-   C16-   H6S
 11942  11941  11944  11947      9     0.00   0.66944   3 ;    H7R-   C17-   C16-   C15
 11943  11941  11944  11945      9     0.00   0.62760   3 ;    H7S-   C17-   C16-   H6R
 11943  11941  11944  11946      9     0.00   0.62760   3 ;    H7S-   C17-   C16-   H6S
 11943  11941  11944  11947      9     0.00   0.66944   3 ;    H7S-   C17-   C16-   C15
 11944  11947  11950  11951      9     0.00   0.66944   3 ;    C16-   C15-   C14-   H4R
 11944  11947  11950  11952      9     0.00   0.66944   3 ;    C16-   C15-   C14-   H4S
 11944  11947  11950  11953      9     0.00   0.41840   1 ;    C16-   C15-   C14-   C13
 11944  11947  11950  11953      9     0.00   0.41840   2 ;    C16-   C15-   C14-   C13
 11944  11947  11950  11953      9     0.00   0.41840   4 ;    C16-   C15-   C14-   C13
 11944  11947  11950  11953      9     0.00   0.41840   5 ;    C16-   C15-   C14-   C13
 11944  11947  11950  11953      9     0.00   1.25520   3 ;    C16-   C15-   C14-   C13
 11945  11944  11947  11948      9     0.00   0.62760   3 ;    H6R-   C16-   C15-   H5R
 11945  11944  11947  11949      9     0.00   0.62760   3 ;    H6R-   C16-   C15-   H5S
 11945  11944  11947  11950      9     0.00   0.66944   3 ;    H6R-   C16-   C15-   C14
 11946  11944  11947  11948      9     0.00   0.62760   3 ;    H6S-   C16-   C15-   H5R
 11946  11944  11947  11949      9     0.00   0.62760   3 ;    H6S-   C16-   C15-   H5S
 11946  11944  11947  11950      9     0.00   0.66944   3 ;    H6S-   C16-   C15-   C14
 11947  11950  11953  11954      9     0.00   0.66944   3 ;    C15-   C14-   C13-   H3R
 11947  11950  11953  11955      9     0.00   0.66944   3 ;    C15-   C14-   C13-   H3S
 11947  11950  11953  11956      9     0.00   0.41840   1 ;    C15-   C14-   C13-   C12
 11947  11950  11953  11956      9     0.00   0.41840   2 ;    C15-   C14-   C13-   C12
 11947  11950  11953  11956      9     0.00   0.41840   4 ;    C15-   C14-   C13-   C12
 11947  11950  11953  11956      9     0.00   0.41840   5 ;    C15-   C14-   C13-   C12
 11947  11950  11953  11956      9     0.00   1.25520   3 ;    C15-   C14-   C13-   C12
 11948  11947  11950  11951      9     0.00   0.62760   3 ;    H5R-   C15-   C14-   H4R
 11948  11947  11950  11952      9     0.00   0.62760   3 ;    H5R-   C15-   C14-   H4S
 11948  11947  11950  11953      9     0.00   0.66944   3 ;    H5R-   C15-   C14-   C13
 11949  11947  11950  11951      9     0.00   0.62760   3 ;    H5S-   C15-   C14-   H4R
 11949  11947  11950  11952      9     0.00   0.62760   3 ;    H5S-   C15-   C14-   H4S
 11949  11947  11950  11953      9     0.00   0.66944   3 ;    H5S-   C15-   C14-   C13
 11950  11953  11956  11957      9     0.00   0.66944   3 ;    C14-   C13-   C12-   H2R
 11950  11953  11956  11958      9     0.00   0.66944   3 ;    C14-   C13-   C12-   H2S
 11950  11953  11956  11959      9     0.00   0.65270   3 ;    C14-   C13-   C12-   C11
 11951  11950  11953  11954      9     0.00   0.62760   3 ;    H4R-   C14-   C13-   H3R
 11951  11950  11953  11955      9     0.00   0.62760   3 ;    H4R-   C14-   C13-   H3S
 11951  11950  11953  11956      9     0.00   0.66944   3 ;    H4R-   C14-   C13-   C12
 11952  11950  11953  11954      9     0.00   0.62760   3 ;    H4S-   C14-   C13-   H3R
 11952  11950  11953  11955      9     0.00   0.62760   3 ;    H4S-   C14-   C13-   H3S
 11952  11950  11953  11956      9     0.00   0.66944   3 ;    H4S-   C14-   C13-   C12
 11953  11956  11959  11960      9   180.00   0.00000   2 ;    C13-   C12-   C11-   O12
 11953  11956  11959  11961      9   180.00   0.00000   2 ;    C13-   C12-   C11-   O11
 11954  11953  11956  11957      9     0.00   0.62760   3 ;    H3R-   C13-   C12-   H2R
 11954  11953  11956  11958      9     0.00   0.62760   3 ;    H3R-   C13-   C12-   H2S
 11954  11953  11956  11959      9     0.00   0.65270   3 ;    H3R-   C13-   C12-   C11
 11955  11953  11956  11957      9     0.00   0.62760   3 ;    H3S-   C13-   C12-   H2R
 11955  11953  11956  11958      9     0.00   0.62760   3 ;    H3S-   C13-   C12-   H2S
 11955  11953  11956  11959      9     0.00   0.65270   3 ;    H3S-   C13-   C12-   C11
 11956  11959  11961  11962      9   180.00  11.29680   2 ;    C12-   C11-   O11-    C1
 11957  11956  11959  11960      9     0.00   3.34720   1 ;    H2R-   C12-   C11-   O12
 11957  11956  11959  11960      9   180.00   0.33472   3 ;    H2R-   C12-   C11-   O12
 11957  11956  11959  11961      9   180.00   0.00000   2 ;    H2R-   C12-   C11-   O11
 11958  11956  11959  11960      9     0.00   3.34720   1 ;    H2S-   C12-   C11-   O12
 11958  11956  11959  11960      9   180.00   0.33472   3 ;    H2S-   C12-   C11-   O12
 11958  11956  11959  11961      9   180.00   0.00000   2 ;    H2S-   C12-   C11-   O11
 11959  11961  11962  11963      9     0.00   1.60247   3 ;    C11-   O11-    C1-    HR
 11959  11961  11962  11964      9     0.00   1.60247   3 ;    C11-   O11-    C1-    HS
 11959  11961  11962  11965      9     0.00  -0.41840   1 ;    C11-   O11-    C1-    C2
 11960  11959  11961  11962      9   180.00   5.85760   1 ;    O12-   C11-   O11-    C1
 11960  11959  11961  11962      9   180.00  11.29680   2 ;    O12-   C11-   O11-    C1
 11961  11962  11965  11966      9     0.00   0.00000   0 ;    O11-    C1-    C2-    HX
 11961  11962  11965  11966      9     0.00   1.04600   1 ;    O11-    C1-    C2-    HX
 11961  11962  11965  11967      9     0.00   0.00000   0 ;    O11-    C1-    C2-    C3
 11961  11962  11965  11967      9     0.00   0.00000   0 ;    O11-    C1-    C2-    C3
 11961  11962  11965  11967      9     0.00   0.00000   0 ;    O11-    C1-    C2-    C3
 11961  11962  11965  11967      9     0.00   0.00000   0 ;    O11-    C1-    C2-    C3
 11961  11962  11965  11967      9     0.00   0.00000   0 ;    O11-    C1-    C2-    C3
 11961  11962  11965  11994      9     0.00   1.25520   2 ;    O11-    C1-    C2-   O21
 11961  11962  11965  11994      9     0.00   4.18400   3 ;    O11-    C1-    C2-   O21
 11961  11962  11965  11994      9   180.00  -0.41840   1 ;    O11-    C1-    C2-   O21
 11962  11965  11967  11968      9     0.00   0.65270   3 ;     C1-    C2-    C3-    HA
 11962  11965  11967  11969      9     0.00   0.65270   3 ;     C1-    C2-    C3-    HB
 11962  11965  11967  11970      9   180.00   3.34720   1 ;     C1-    C2-    C3-   O31
 11962  11965  11994  11995      9     0.00  -0.41840   1 ;     C1-    C2-   O21-   C21
 11963  11962  11965  11966      9     0.00   0.65270   3 ;     HR-    C1-    C2-    HX
 11963  11962  11965  11967      9     0.00   0.65270   3 ;     HR-    C1-    C2-    C3
 11963  11962  11965  11994      9     0.00   0.00000   0 ;     HR-    C1-    C2-   O21
 11963  11962  11965  11994      9     0.00   1.04600   1 ;     HR-    C1-    C2-   O21
 11964  11962  11965  11966      9     0.00   0.65270   3 ;     HS-    C1-    C2-    HX
 11964  11962  11965  11967      9     0.00   0.65270   3 ;     HS-    C1-    C2-    C3
 11964  11962  11965  11994      9     0.00   0.00000   0 ;     HS-    C1-    C2-   O21
 11964  11962  11965  11994      9     0.00   1.04600   1 ;     HS-    C1-    C2-   O21
 11965  11967  11970  11971      9     0.00   0.00000   0 ;     C2-    C3-   O31-   P31
 11965  11967  11970  11971      9   180.00  -3.34720   2 ;     C2-    C3-   O31-   P31
 11965  11994  11995  11996      9   180.00   5.85760   1 ;     C2-   O21-   C21-   O22
 11965  11994  11995  11996      9   180.00  11.29680   2 ;     C2-   O21-   C21-   O22
 11965  11994  11995  12034      9   180.00  11.29680   2 ;     C2-   O21-   C21-   C12
 11966  11965  11967  11968      9     0.00   0.65270   3 ;     HX-    C2-    C3-    HA
 11966  11965  11967  11969      9     0.00   0.65270   3 ;     HX-    C2-    C3-    HB
 11966  11965  11967  11970      9     0.00   0.00000   0 ;     HX-    C2-    C3-   O31
 11966  11965  11967  11970      9     0.00   1.04600   1 ;     HX-    C2-    C3-   O31
 11966  11965  11994  11995      9     0.00   1.60247   3 ;     HX-    C2-   O21-   C21
 11967  11965  11994  11995      9     0.00  -0.41840   1 ;     C3-    C2-   O21-   C21
 11967  11970  11971  11972      9     0.00   2.51040   3 ;     C3-   O31-   P31-   O32
 11967  11970  11971  11972      9     0.00   9.62320   2 ;     C3-   O31-   P31-   O32
 11967  11970  11971  11992      9     0.00   0.00000   0 ;     C3-   O31-   P31-   O33
 11967  11970  11971  11992      9     0.00   0.00000   0 ;     C3-   O31-   P31-   O33
 11967  11970  11971  11992      9     0.00   0.00000   0 ;     C3-   O31-   P31-   O33
 11967  11970  11971  11992      9     0.00   0.00000   0 ;     C3-   O31-   P31-   O33
 11967  11970  11971  11992      9     0.00   0.83680   2 ;     C3-   O31-   P31-   O33
 11967  11970  11971  11993      9     0.00   0.00000   0 ;     C3-   O31-   P31-   O34
 11967  11970  11971  11993      9     0.00   0.00000   0 ;     C3-   O31-   P31-   O34
 11967  11970  11971  11993      9     0.00   0.00000   0 ;     C3-   O31-   P31-   O34
 11967  11970  11971  11993      9     0.00   0.00000   0 ;     C3-   O31-   P31-   O34
 11967  11970  11971  11993      9     0.00   0.83680   2 ;     C3-   O31-   P31-   O34
 11968  11967  11965  11994      9     0.00   0.00000   0 ;     HA-    C3-    C2-   O21
 11968  11967  11965  11994      9     0.00   1.04600   1 ;     HA-    C3-    C2-   O21
 11968  11967  11970  11971      9     0.00   0.00000   0 ;     HA-    C3-   O31-   P31
 11968  11967  11970  11971      9     0.00   0.00000   0 ;     HA-    C3-   O31-   P31
 11968  11967  11970  11971      9     0.00   0.00000   0 ;     HA-    C3-   O31-   P31
 11968  11967  11970  11971      9     0.00   0.00000   0 ;     HA-    C3-   O31-   P31
 11968  11967  11970  11971      9     0.00   1.60247   3 ;     HA-    C3-   O31-   P31
 11969  11967  11965  11994      9     0.00   0.00000   0 ;     HB-    C3-    C2-   O21
 11969  11967  11965  11994      9     0.00   1.04600   1 ;     HB-    C3-    C2-   O21
 11969  11967  11970  11971      9     0.00   0.00000   0 ;     HB-    C3-   O31-   P31
 11969  11967  11970  11971      9     0.00   0.00000   0 ;     HB-    C3-   O31-   P31
 11969  11967  11970  11971      9     0.00   0.00000   0 ;     HB-    C3-   O31-   P31
 11969  11967  11970  11971      9     0.00   0.00000   0 ;     HB-    C3-   O31-   P31
 11969  11967  11970  11971      9     0.00   1.60247   3 ;     HB-    C3-   O31-   P31
 11970  11967  11965  11994      9     0.00   0.00000   0 ;    O31-    C3-    C2-   O21
 11970  11967  11965  11994      9     0.00   0.00000   0 ;    O31-    C3-    C2-   O21
 11970  11967  11965  11994      9     0.00   0.00000   0 ;    O31-    C3-    C2-   O21
 11970  11967  11965  11994      9     0.00   0.00000   0 ;    O31-    C3-    C2-   O21
 11970  11967  11965  11994      9     0.00   0.00000   0 ;    O31-    C3-    C2-   O21
 11970  11971  11972  11973      9     0.00   2.51040   3 ;    O31-   P31-   O32-   C31
 11970  11971  11972  11973      9     0.00   9.62320   2 ;    O31-   P31-   O32-   C31
 11971  11972  11973  11974      9     0.00   0.00000   0 ;    P31-   O32-   C31-   H1A
 11971  11972  11973  11974      9     0.00   0.00000   0 ;    P31-   O32-   C31-   H1A
 11971  11972  11973  11974      9     0.00   0.00000   0 ;    P31-   O32-   C31-   H1A
 11971  11972  11973  11974      9     0.00   0.00000   0 ;    P31-   O32-   C31-   H1A
 11971  11972  11973  11974      9     0.00   1.60247   3 ;    P31-   O32-   C31-   H1A
 11971  11972  11973  11975      9     0.00   0.00000   0 ;    P31-   O32-   C31-   H1B
 11971  11972  11973  11975      9     0.00   0.00000   0 ;    P31-   O32-   C31-   H1B
 11971  11972  11973  11975      9     0.00   0.00000   0 ;    P31-   O32-   C31-   H1B
 11971  11972  11973  11975      9     0.00   0.00000   0 ;    P31-   O32-   C31-   H1B
 11971  11972  11973  11975      9     0.00   1.60247   3 ;    P31-   O32-   C31-   H1B
 11971  11972  11973  11976      9     0.00   0.00000   0 ;    P31-   O32-   C31-   C32
 11971  11972  11973  11976      9   180.00  -3.34720   2 ;    P31-   O32-   C31-   C32
 11972  11973  11976  11977      9     0.00   0.65270   3 ;    O32-   C31-   C32-   H2A
 11972  11973  11976  11978      9     0.00   0.65270   3 ;    O32-   C31-   C32-   H2B
 11972  11973  11976  11979      9     0.00   4.18400   3 ;    O32-   C31-   C32-   N31
 11973  11972  11971  11992      9     0.00   0.00000   0 ;    C31-   O32-   P31-   O33
 11973  11972  11971  11992      9     0.00   0.00000   0 ;    C31-   O32-   P31-   O33
 11973  11972  11971  11992      9     0.00   0.00000   0 ;    C31-   O32-   P31-   O33
 11973  11972  11971  11992      9     0.00   0.00000   0 ;    C31-   O32-   P31-   O33
 11973  11972  11971  11992      9     0.00   0.83680   2 ;    C31-   O32-   P31-   O33
 11973  11972  11971  11993      9     0.00   0.00000   0 ;    C31-   O32-   P31-   O34
 11973  11972  11971  11993      9     0.00   0.00000   0 ;    C31-   O32-   P31-   O34
 11973  11972  11971  11993      9     0.00   0.00000   0 ;    C31-   O32-   P31-   O34
 11973  11972  11971  11993      9     0.00   0.00000   0 ;    C31-   O32-   P31-   O34
 11973  11972  11971  11993      9     0.00   0.83680   2 ;    C31-   O32-   P31-   O34
 11973  11976  11979  11980      9     0.00   0.65270   3 ;    C31-   C32-   N31-   C33
 11973  11976  11979  11984      9     0.00   0.65270   3 ;    C31-   C32-   N31-   C34
 11973  11976  11979  11988      9     0.00   0.65270   3 ;    C31-   C32-   N31-   C35
 11974  11973  11976  11977      9     0.00   0.65270   3 ;    H1A-   C31-   C32-   H2A
 11974  11973  11976  11978      9     0.00   0.65270   3 ;    H1A-   C31-   C32-   H2B
 11974  11973  11976  11979      9     0.00   0.65270   3 ;    H1A-   C31-   C32-   N31
 11975  11973  11976  11977      9     0.00   0.65270   3 ;    H1B-   C31-   C32-   H2A
 11975  11973  11976  11978      9     0.00   0.65270   3 ;    H1B-   C31-   C32-   H2B
 11975  11973  11976  11979      9     0.00   0.65270   3 ;    H1B-   C31-   C32-   N31
 11976  11979  11980  11981      9     0.00   0.65270   3 ;    C32-   N31-   C33-   H3A
 11976  11979  11980  11982      9     0.00   0.65270   3 ;    C32-   N31-   C33-   H3B
 11976  11979  11980  11983      9     0.00   0.65270   3 ;    C32-   N31-   C33-   H3C
 11976  11979  11984  11985      9     0.00   0.65270   3 ;    C32-   N31-   C34-   H4A
 11976  11979  11984  11986      9     0.00   0.65270   3 ;    C32-   N31-   C34-   H4B
 11976  11979  11984  11987      9     0.00   0.65270   3 ;    C32-   N31-   C34-   H4C
 11976  11979  11988  11989      9     0.00   0.65270   3 ;    C32-   N31-   C35-   H5A
 11976  11979  11988  11990      9     0.00   0.65270   3 ;    C32-   N31-   C35-   H5B
 11976  11979  11988  11991      9     0.00   0.65270   3 ;    C32-   N31-   C35-   H5C
 11977  11976  11979  11980      9     0.00   0.65270   3 ;    H2A-   C32-   N31-   C33
 11977  11976  11979  11984      9     0.00   0.65270   3 ;    H2A-   C32-   N31-   C34
 11977  11976  11979  11988      9     0.00   0.65270   3 ;    H2A-   C32-   N31-   C35
 11978  11976  11979  11980      9     0.00   0.65270   3 ;    H2B-   C32-   N31-   C33
 11978  11976  11979  11984      9     0.00   0.65270   3 ;    H2B-   C32-   N31-   C34
 11978  11976  11979  11988      9     0.00   0.65270   3 ;    H2B-   C32-   N31-   C35
 11980  11979  11984  11985      9     0.00   0.65270   3 ;    C33-   N31-   C34-   H4A
 11980  11979  11984  11986      9     0.00   0.65270   3 ;    C33-   N31-   C34-   H4B
 11980  11979  11984  11987      9     0.00   0.65270   3 ;    C33-   N31-   C34-   H4C
 11980  11979  11988  11989      9     0.00   0.65270   3 ;    C33-   N31-   C35-   H5A
 11980  11979  11988  11990      9     0.00   0.65270   3 ;    C33-   N31-   C35-   H5B
 11980  11979  11988  11991      9     0.00   0.65270   3 ;    C33-   N31-   C35-   H5C
 11981  11980  11979  11984      9     0.00   0.65270   3 ;    H3A-   C33-   N31-   C34
 11981  11980  11979  11988      9     0.00   0.65270   3 ;    H3A-   C33-   N31-   C35
 11982  11980  11979  11984      9     0.00   0.65270   3 ;    H3B-   C33-   N31-   C34
 11982  11980  11979  11988      9     0.00   0.65270   3 ;    H3B-   C33-   N31-   C35
 11983  11980  11979  11984      9     0.00   0.65270   3 ;    H3C-   C33-   N31-   C34
 11983  11980  11979  11988      9     0.00   0.65270   3 ;    H3C-   C33-   N31-   C35
 11984  11979  11988  11989      9     0.00   0.65270   3 ;    C34-   N31-   C35-   H5A
 11984  11979  11988  11990      9     0.00   0.65270   3 ;    C34-   N31-   C35-   H5B
 11984  11979  11988  11991      9     0.00   0.65270   3 ;    C34-   N31-   C35-   H5C
 11985  11984  11979  11988      9     0.00   0.65270   3 ;    H4A-   C34-   N31-   C35
 11986  11984  11979  11988      9     0.00   0.65270   3 ;    H4B-   C34-   N31-   C35
 11987  11984  11979  11988      9     0.00   0.65270   3 ;    H4C-   C34-   N31-   C35
 11994  11995  12034  12031      9   180.00   0.00000   2 ;    O21-   C21-   C12-   C13
 11994  11995  12034  12035      9   180.00   0.00000   2 ;    O21-   C21-   C12-   H2R
 11994  11995  12034  12036      9   180.00   0.00000   2 ;    O21-   C21-   C12-   H2S
 11995  12034  12031  12028      9     0.00   0.65270   3 ;    C21-   C12-   C13-   C14
 11995  12034  12031  12032      9     0.00   0.65270   3 ;    C21-   C12-   C13-   H3R
 11995  12034  12031  12033      9     0.00   0.65270   3 ;    C21-   C12-   C13-   H3S
 11996  11995  12034  12031      9   180.00   0.00000   2 ;    O22-   C21-   C12-   C13
 11996  11995  12034  12035      9     0.00   3.34720   1 ;    O22-   C21-   C12-   H2R
 11996  11995  12034  12035      9   180.00   0.33472   3 ;    O22-   C21-   C12-   H2R
 11996  11995  12034  12036      9     0.00   3.34720   1 ;    O22-   C21-   C12-   H2S
 11996  11995  12034  12036      9   180.00   0.33472   3 ;    O22-   C21-   C12-   H2S
 11997  11998  12001  12002      9     0.00   0.62760   3 ;   H14T-  C114-  C113-  H13R
 11997  11998  12001  12003      9     0.00   0.62760   3 ;   H14T-  C114-  C113-  H13S
 11997  11998  12001  12004      9     0.00   0.66944   3 ;   H14T-  C114-  C113-  C112
 11998  12001  12004  12005      9     0.00   0.66944   3 ;   C114-  C113-  C112-  H12R
 11998  12001  12004  12006      9     0.00   0.66944   3 ;   C114-  C113-  C112-  H12S
 11998  12001  12004  12007      9     0.00   0.41840   1 ;   C114-  C113-  C112-  C111
 11998  12001  12004  12007      9     0.00   0.41840   2 ;   C114-  C113-  C112-  C111
 11998  12001  12004  12007      9     0.00   0.41840   4 ;   C114-  C113-  C112-  C111
 11998  12001  12004  12007      9     0.00   0.41840   5 ;   C114-  C113-  C112-  C111
 11998  12001  12004  12007      9     0.00   1.25520   3 ;   C114-  C113-  C112-  C111
 11999  11998  12001  12002      9     0.00   0.62760   3 ;   H14R-  C114-  C113-  H13R
 11999  11998  12001  12003      9     0.00   0.62760   3 ;   H14R-  C114-  C113-  H13S
 11999  11998  12001  12004      9     0.00   0.66944   3 ;   H14R-  C114-  C113-  C112
 12000  11998  12001  12002      9     0.00   0.62760   3 ;   H14S-  C114-  C113-  H13R
 12000  11998  12001  12003      9     0.00   0.62760   3 ;   H14S-  C114-  C113-  H13S
 12000  11998  12001  12004      9     0.00   0.66944   3 ;   H14S-  C114-  C113-  C112
 12001  12004  12007  12008      9     0.00   0.66944   3 ;   C113-  C112-  C111-  H11R
 12001  12004  12007  12009      9     0.00   0.66944   3 ;   C113-  C112-  C111-  H11S
 12001  12004  12007  12010      9     0.00   0.41840   1 ;   C113-  C112-  C111-  C110
 12001  12004  12007  12010      9     0.00   0.41840   2 ;   C113-  C112-  C111-  C110
 12001  12004  12007  12010      9     0.00   0.41840   4 ;   C113-  C112-  C111-  C110
 12001  12004  12007  12010      9     0.00   0.41840   5 ;   C113-  C112-  C111-  C110
 12001  12004  12007  12010      9     0.00   1.25520   3 ;   C113-  C112-  C111-  C110
 12002  12001  12004  12005      9     0.00   0.62760   3 ;   H13R-  C113-  C112-  H12R
 12002  12001  12004  12006      9     0.00   0.62760   3 ;   H13R-  C113-  C112-  H12S
 12002  12001  12004  12007      9     0.00   0.66944   3 ;   H13R-  C113-  C112-  C111
 12003  12001  12004  12005      9     0.00   0.62760   3 ;   H13S-  C113-  C112-  H12R
 12003  12001  12004  12006      9     0.00   0.62760   3 ;   H13S-  C113-  C112-  H12S
 12003  12001  12004  12007      9     0.00   0.66944   3 ;   H13S-  C113-  C112-  C111
 12004  12007  12010  12011      9     0.00   0.66944   3 ;   C112-  C111-  C110-  H10R
 12004  12007  12010  12012      9     0.00   0.66944   3 ;   C112-  C111-  C110-  H10S
 12004  12007  12010  12013      9     0.00   0.41840   1 ;   C112-  C111-  C110-   C19
 12004  12007  12010  12013      9     0.00   0.41840   2 ;   C112-  C111-  C110-   C19
 12004  12007  12010  12013      9     0.00   0.41840   4 ;   C112-  C111-  C110-   C19
 12004  12007  12010  12013      9     0.00   0.41840   5 ;   C112-  C111-  C110-   C19
 12004  12007  12010  12013      9     0.00   1.25520   3 ;   C112-  C111-  C110-   C19
 12005  12004  12007  12008      9     0.00   0.62760   3 ;   H12R-  C112-  C111-  H11R
 12005  12004  12007  12009      9     0.00   0.62760   3 ;   H12R-  C112-  C111-  H11S
 12005  12004  12007  12010      9     0.00   0.66944   3 ;   H12R-  C112-  C111-  C110
 12006  12004  12007  12008      9     0.00   0.62760   3 ;   H12S-  C112-  C111-  H11R
 12006  12004  12007  12009      9     0.00   0.62760   3 ;   H12S-  C112-  C111-  H11S
 12006  12004  12007  12010      9     0.00   0.66944   3 ;   H12S-  C112-  C111-  C110
 12007  12010  12013  12014      9     0.00   0.66944   3 ;   C111-  C110-   C19-   H9R
 12007  12010  12013  12015      9     0.00   0.66944   3 ;   C111-  C110-   C19-   H9S
 12007  12010  12013  12016      9     0.00   0.41840   1 ;   C111-  C110-   C19-   C18
 12007  12010  12013  12016      9     0.00   0.41840   2 ;   C111-  C110-   C19-   C18
 12007  12010  12013  12016      9     0.00   0.41840   4 ;   C111-  C110-   C19-   C18
 12007  12010  12013  12016      9     0.00   0.41840   5 ;   C111-  C110-   C19-   C18
 12007  12010  12013  12016      9     0.00   1.25520   3 ;   C111-  C110-   C19-   C18
 12008  12007  12010  12011      9     0.00   0.62760   3 ;   H11R-  C111-  C110-  H10R
 12008  12007  12010  12012      9     0.00   0.62760   3 ;   H11R-  C111-  C110-  H10S
 12008  12007  12010  12013      9     0.00   0.66944   3 ;   H11R-  C111-  C110-   C19
 12009  12007  12010  12011      9     0.00   0.62760   3 ;   H11S-  C111-  C110-  H10R
 12009  12007  12010  12012      9     0.00   0.62760   3 ;   H11S-  C111-  C110-  H10S
 12009  12007  12010  12013      9     0.00   0.66944   3 ;   H11S-  C111-  C110-   C19
 12010  12013  12016  12017      9     0.00   0.66944   3 ;   C110-   C19-   C18-   H8R
 12010  12013  12016  12018      9     0.00   0.66944   3 ;   C110-   C19-   C18-   H8S
 12010  12013  12016  12019      9     0.00   0.41840   1 ;   C110-   C19-   C18-   C17
 12010  12013  12016  12019      9     0.00   0.41840   2 ;   C110-   C19-   C18-   C17
 12010  12013  12016  12019      9     0.00   0.41840   4 ;   C110-   C19-   C18-   C17
 12010  12013  12016  12019      9     0.00   0.41840   5 ;   C110-   C19-   C18-   C17
 12010  12013  12016  12019      9     0.00   1.25520   3 ;   C110-   C19-   C18-   C17
 12011  12010  12013  12014      9     0.00   0.62760   3 ;   H10R-  C110-   C19-   H9R
 12011  12010  12013  12015      9     0.00   0.62760   3 ;   H10R-  C110-   C19-   H9S
 12011  12010  12013  12016      9     0.00   0.66944   3 ;   H10R-  C110-   C19-   C18
 12012  12010  12013  12014      9     0.00   0.62760   3 ;   H10S-  C110-   C19-   H9R
 12012  12010  12013  12015      9     0.00   0.62760   3 ;   H10S-  C110-   C19-   H9S
 12012  12010  12013  12016      9     0.00   0.66944   3 ;   H10S-  C110-   C19-   C18
 12013  12016  12019  12020      9     0.00   0.66944   3 ;    C19-   C18-   C17-   H7R
 12013  12016  12019  12021      9     0.00   0.66944   3 ;    C19-   C18-   C17-   H7S
 12013  12016  12019  12022      9     0.00   0.41840   1 ;    C19-   C18-   C17-   C16
 12013  12016  12019  12022      9     0.00   0.41840   2 ;    C19-   C18-   C17-   C16
 12013  12016  12019  12022      9     0.00   0.41840   4 ;    C19-   C18-   C17-   C16
 12013  12016  12019  12022      9     0.00   0.41840   5 ;    C19-   C18-   C17-   C16
 12013  12016  12019  12022      9     0.00   1.25520   3 ;    C19-   C18-   C17-   C16
 12014  12013  12016  12017      9     0.00   0.62760   3 ;    H9R-   C19-   C18-   H8R
 12014  12013  12016  12018      9     0.00   0.62760   3 ;    H9R-   C19-   C18-   H8S
 12014  12013  12016  12019      9     0.00   0.66944   3 ;    H9R-   C19-   C18-   C17
 12015  12013  12016  12017      9     0.00   0.62760   3 ;    H9S-   C19-   C18-   H8R
 12015  12013  12016  12018      9     0.00   0.62760   3 ;    H9S-   C19-   C18-   H8S
 12015  12013  12016  12019      9     0.00   0.66944   3 ;    H9S-   C19-   C18-   C17
 12016  12019  12022  12023      9     0.00   0.66944   3 ;    C18-   C17-   C16-   H6R
 12016  12019  12022  12024      9     0.00   0.66944   3 ;    C18-   C17-   C16-   H6S
 12016  12019  12022  12025      9     0.00   0.41840   1 ;    C18-   C17-   C16-   C15
 12016  12019  12022  12025      9     0.00   0.41840   2 ;    C18-   C17-   C16-   C15
 12016  12019  12022  12025      9     0.00   0.41840   4 ;    C18-   C17-   C16-   C15
 12016  12019  12022  12025      9     0.00   0.41840   5 ;    C18-   C17-   C16-   C15
 12016  12019  12022  12025      9     0.00   1.25520   3 ;    C18-   C17-   C16-   C15
 12017  12016  12019  12020      9     0.00   0.62760   3 ;    H8R-   C18-   C17-   H7R
 12017  12016  12019  12021      9     0.00   0.62760   3 ;    H8R-   C18-   C17-   H7S
 12017  12016  12019  12022      9     0.00   0.66944   3 ;    H8R-   C18-   C17-   C16
 12018  12016  12019  12020      9     0.00   0.62760   3 ;    H8S-   C18-   C17-   H7R
 12018  12016  12019  12021      9     0.00   0.62760   3 ;    H8S-   C18-   C17-   H7S
 12018  12016  12019  12022      9     0.00   0.66944   3 ;    H8S-   C18-   C17-   C16
 12019  12022  12025  12026      9     0.00   0.66944   3 ;    C17-   C16-   C15-   H5R
 12019  12022  12025  12027      9     0.00   0.66944   3 ;    C17-   C16-   C15-   H5S
 12019  12022  12025  12028      9     0.00   0.41840   1 ;    C17-   C16-   C15-   C14
 12019  12022  12025  12028      9     0.00   0.41840   2 ;    C17-   C16-   C15-   C14
 12019  12022  12025  12028      9     0.00   0.41840   4 ;    C17-   C16-   C15-   C14
 12019  12022  12025  12028      9     0.00   0.41840   5 ;    C17-   C16-   C15-   C14
 12019  12022  12025  12028      9     0.00   1.25520   3 ;    C17-   C16-   C15-   C14
 12020  12019  12022  12023      9     0.00   0.62760   3 ;    H7R-   C17-   C16-   H6R
 12020  12019  12022  12024      9     0.00   0.62760   3 ;    H7R-   C17-   C16-   H6S
 12020  12019  12022  12025      9     0.00   0.66944   3 ;    H7R-   C17-   C16-   C15
 12021  12019  12022  12023      9     0.00   0.62760   3 ;    H7S-   C17-   C16-   H6R
 12021  12019  12022  12024      9     0.00   0.62760   3 ;    H7S-   C17-   C16-   H6S
 12021  12019  12022  12025      9     0.00   0.66944   3 ;    H7S-   C17-   C16-   C15
 12022  12025  12028  12029      9     0.00   0.66944   3 ;    C16-   C15-   C14-   H4R
 12022  12025  12028  12030      9     0.00   0.66944   3 ;    C16-   C15-   C14-   H4S
 12022  12025  12028  12031      9     0.00   0.41840   1 ;    C16-   C15-   C14-   C13
 12022  12025  12028  12031      9     0.00   0.41840   2 ;    C16-   C15-   C14-   C13
 12022  12025  12028  12031      9     0.00   0.41840   4 ;    C16-   C15-   C14-   C13
 12022  12025  12028  12031      9     0.00   0.41840   5 ;    C16-   C15-   C14-   C13
 12022  12025  12028  12031      9     0.00   1.25520   3 ;    C16-   C15-   C14-   C13
 12023  12022  12025  12026      9     0.00   0.62760   3 ;    H6R-   C16-   C15-   H5R
 12023  12022  12025  12027      9     0.00   0.62760   3 ;    H6R-   C16-   C15-   H5S
 12023  12022  12025  12028      9     0.00   0.66944   3 ;    H6R-   C16-   C15-   C14
 12024  12022  12025  12026      9     0.00   0.62760   3 ;    H6S-   C16-   C15-   H5R
 12024  12022  12025  12027      9     0.00   0.62760   3 ;    H6S-   C16-   C15-   H5S
 12024  12022  12025  12028      9     0.00   0.66944   3 ;    H6S-   C16-   C15-   C14
 12025  12028  12031  12032      9     0.00   0.66944   3 ;    C15-   C14-   C13-   H3R
 12025  12028  12031  12033      9     0.00   0.66944   3 ;    C15-   C14-   C13-   H3S
 12025  12028  12031  12034      9     0.00   0.41840   1 ;    C15-   C14-   C13-   C12
 12025  12028  12031  12034      9     0.00   0.41840   2 ;    C15-   C14-   C13-   C12
 12025  12028  12031  12034      9     0.00   0.41840   4 ;    C15-   C14-   C13-   C12
 12025  12028  12031  12034      9     0.00   0.41840   5 ;    C15-   C14-   C13-   C12
 12025  12028  12031  12034      9     0.00   1.25520   3 ;    C15-   C14-   C13-   C12
 12026  12025  12028  12029      9     0.00   0.62760   3 ;    H5R-   C15-   C14-   H4R
 12026  12025  12028  12030      9     0.00   0.62760   3 ;    H5R-   C15-   C14-   H4S
 12026  12025  12028  12031      9     0.00   0.66944   3 ;    H5R-   C15-   C14-   C13
 12027  12025  12028  12029      9     0.00   0.62760   3 ;    H5S-   C15-   C14-   H4R
 12027  12025  12028  12030      9     0.00   0.62760   3 ;    H5S-   C15-   C14-   H4S
 12027  12025  12028  12031      9     0.00   0.66944   3 ;    H5S-   C15-   C14-   C13
 12028  12031  12034  12035      9     0.00   0.66944   3 ;    C14-   C13-   C12-   H2R
 12028  12031  12034  12036      9     0.00   0.66944   3 ;    C14-   C13-   C12-   H2S
 12029  12028  12031  12032      9     0.00   0.62760   3 ;    H4R-   C14-   C13-   H3R
 12029  12028  12031  12033      9     0.00   0.62760   3 ;    H4R-   C14-   C13-   H3S
 12029  12028  12031  12034      9     0.00   0.66944   3 ;    H4R-   C14-   C13-   C12
 12030  12028  12031  12032      9     0.00   0.62760   3 ;    H4S-   C14-   C13-   H3R
 12030  12028  12031  12033      9     0.00   0.62760   3 ;    H4S-   C14-   C13-   H3S
 12030  12028  12031  12034      9     0.00   0.66944   3 ;    H4S-   C14-   C13-   C12
 12032  12031  12034  12035      9     0.00   0.62760   3 ;    H3R-   C13-   C12-   H2R
 12032  12031  12034  12036      9     0.00   0.62760   3 ;    H3R-   C13-   C12-   H2S
 12033  12031  12034  12035      9     0.00   0.62760   3 ;    H3S-   C13-   C12-   H2R
 12033  12031  12034  12036      9     0.00   0.62760   3 ;    H3S-   C13-   C12-   H2S
 12037  12038  12041  12042      9     0.00   0.62760   3 ;   H14T-  C114-  C113-  H13R
 12037  12038  12041  12043      9     0.00   0.62760   3 ;   H14T-  C114-  C113-  H13S
 12037  12038  12041  12044      9     0.00   0.66944   3 ;   H14T-  C114-  C113-  C112
 12038  12041  12044  12045      9     0.00   0.66944   3 ;   C114-  C113-  C112-  H12R
 12038  12041  12044  12046      9     0.00   0.66944   3 ;   C114-  C113-  C112-  H12S
 12038  12041  12044  12047      9     0.00   0.41840   1 ;   C114-  C113-  C112-  C111
 12038  12041  12044  12047      9     0.00   0.41840   2 ;   C114-  C113-  C112-  C111
 12038  12041  12044  12047      9     0.00   0.41840   4 ;   C114-  C113-  C112-  C111
 12038  12041  12044  12047      9     0.00   0.41840   5 ;   C114-  C113-  C112-  C111
 12038  12041  12044  12047      9     0.00   1.25520   3 ;   C114-  C113-  C112-  C111
 12039  12038  12041  12042      9     0.00   0.62760   3 ;   H14R-  C114-  C113-  H13R
 12039  12038  12041  12043      9     0.00   0.62760   3 ;   H14R-  C114-  C113-  H13S
 12039  12038  12041  12044      9     0.00   0.66944   3 ;   H14R-  C114-  C113-  C112
 12040  12038  12041  12042      9     0.00   0.62760   3 ;   H14S-  C114-  C113-  H13R
 12040  12038  12041  12043      9     0.00   0.62760   3 ;   H14S-  C114-  C113-  H13S
 12040  12038  12041  12044      9     0.00   0.66944   3 ;   H14S-  C114-  C113-  C112
 12041  12044  12047  12048      9     0.00   0.66944   3 ;   C113-  C112-  C111-  H11R
 12041  12044  12047  12049      9     0.00   0.66944   3 ;   C113-  C112-  C111-  H11S
 12041  12044  12047  12050      9     0.00   0.41840   1 ;   C113-  C112-  C111-  C110
 12041  12044  12047  12050      9     0.00   0.41840   2 ;   C113-  C112-  C111-  C110
 12041  12044  12047  12050      9     0.00   0.41840   4 ;   C113-  C112-  C111-  C110
 12041  12044  12047  12050      9     0.00   0.41840   5 ;   C113-  C112-  C111-  C110
 12041  12044  12047  12050      9     0.00   1.25520   3 ;   C113-  C112-  C111-  C110
 12042  12041  12044  12045      9     0.00   0.62760   3 ;   H13R-  C113-  C112-  H12R
 12042  12041  12044  12046      9     0.00   0.62760   3 ;   H13R-  C113-  C112-  H12S
 12042  12041  12044  12047      9     0.00   0.66944   3 ;   H13R-  C113-  C112-  C111
 12043  12041  12044  12045      9     0.00   0.62760   3 ;   H13S-  C113-  C112-  H12R
 12043  12041  12044  12046      9     0.00   0.62760   3 ;   H13S-  C113-  C112-  H12S
 12043  12041  12044  12047      9     0.00   0.66944   3 ;   H13S-  C113-  C112-  C111
 12044  12047  12050  12051      9     0.00   0.66944   3 ;   C112-  C111-  C110-  H10R
 12044  12047  12050  12052      9     0.00   0.66944   3 ;   C112-  C111-  C110-  H10S
 12044  12047  12050  12053      9     0.00   0.41840   1 ;   C112-  C111-  C110-   C19
 12044  12047  12050  12053      9     0.00   0.41840   2 ;   C112-  C111-  C110-   C19
 12044  12047  12050  12053      9     0.00   0.41840   4 ;   C112-  C111-  C110-   C19
 12044  12047  12050  12053      9     0.00   0.41840   5 ;   C112-  C111-  C110-   C19
 12044  12047  12050  12053      9     0.00   1.25520   3 ;   C112-  C111-  C110-   C19
 12045  12044  12047  12048      9     0.00   0.62760   3 ;   H12R-  C112-  C111-  H11R
 12045  12044  12047  12049      9     0.00   0.62760   3 ;   H12R-  C112-  C111-  H11S
 12045  12044  12047  12050      9     0.00   0.66944   3 ;   H12R-  C112-  C111-  C110
 12046  12044  12047  12048      9     0.00   0.62760   3 ;   H12S-  C112-  C111-  H11R
 12046  12044  12047  12049      9     0.00   0.62760   3 ;   H12S-  C112-  C111-  H11S
 12046  12044  12047  12050      9     0.00   0.66944   3 ;   H12S-  C112-  C111-  C110
 12047  12050  12053  12054      9     0.00   0.66944   3 ;   C111-  C110-   C19-   H9R
 12047  12050  12053  12055      9     0.00   0.66944   3 ;   C111-  C110-   C19-   H9S
 12047  12050  12053  12056      9     0.00   0.41840   1 ;   C111-  C110-   C19-   C18
 12047  12050  12053  12056      9     0.00   0.41840   2 ;   C111-  C110-   C19-   C18
 12047  12050  12053  12056      9     0.00   0.41840   4 ;   C111-  C110-   C19-   C18
 12047  12050  12053  12056      9     0.00   0.41840   5 ;   C111-  C110-   C19-   C18
 12047  12050  12053  12056      9     0.00   1.25520   3 ;   C111-  C110-   C19-   C18
 12048  12047  12050  12051      9     0.00   0.62760   3 ;   H11R-  C111-  C110-  H10R
 12048  12047  12050  12052      9     0.00   0.62760   3 ;   H11R-  C111-  C110-  H10S
 12048  12047  12050  12053      9     0.00   0.66944   3 ;   H11R-  C111-  C110-   C19
 12049  12047  12050  12051      9     0.00   0.62760   3 ;   H11S-  C111-  C110-  H10R
 12049  12047  12050  12052      9     0.00   0.62760   3 ;   H11S-  C111-  C110-  H10S
 12049  12047  12050  12053      9     0.00   0.66944   3 ;   H11S-  C111-  C110-   C19
 12050  12053  12056  12057      9     0.00   0.66944   3 ;   C110-   C19-   C18-   H8R
 12050  12053  12056  12058      9     0.00   0.66944   3 ;   C110-   C19-   C18-   H8S
 12050  12053  12056  12059      9     0.00   0.41840   1 ;   C110-   C19-   C18-   C17
 12050  12053  12056  12059      9     0.00   0.41840   2 ;   C110-   C19-   C18-   C17
 12050  12053  12056  12059      9     0.00   0.41840   4 ;   C110-   C19-   C18-   C17
 12050  12053  12056  12059      9     0.00   0.41840   5 ;   C110-   C19-   C18-   C17
 12050  12053  12056  12059      9     0.00   1.25520   3 ;   C110-   C19-   C18-   C17
 12051  12050  12053  12054      9     0.00   0.62760   3 ;   H10R-  C110-   C19-   H9R
 12051  12050  12053  12055      9     0.00   0.62760   3 ;   H10R-  C110-   C19-   H9S
 12051  12050  12053  12056      9     0.00   0.66944   3 ;   H10R-  C110-   C19-   C18
 12052  12050  12053  12054      9     0.00   0.62760   3 ;   H10S-  C110-   C19-   H9R
 12052  12050  12053  12055      9     0.00   0.62760   3 ;   H10S-  C110-   C19-   H9S
 12052  12050  12053  12056      9     0.00   0.66944   3 ;   H10S-  C110-   C19-   C18
 12053  12056  12059  12060      9     0.00   0.66944   3 ;    C19-   C18-   C17-   H7R
 12053  12056  12059  12061      9     0.00   0.66944   3 ;    C19-   C18-   C17-   H7S
 12053  12056  12059  12062      9     0.00   0.41840   1 ;    C19-   C18-   C17-   C16
 12053  12056  12059  12062      9     0.00   0.41840   2 ;    C19-   C18-   C17-   C16
 12053  12056  12059  12062      9     0.00   0.41840   4 ;    C19-   C18-   C17-   C16
 12053  12056  12059  12062      9     0.00   0.41840   5 ;    C19-   C18-   C17-   C16
 12053  12056  12059  12062      9     0.00   1.25520   3 ;    C19-   C18-   C17-   C16
 12054  12053  12056  12057      9     0.00   0.62760   3 ;    H9R-   C19-   C18-   H8R
 12054  12053  12056  12058      9     0.00   0.62760   3 ;    H9R-   C19-   C18-   H8S
 12054  12053  12056  12059      9     0.00   0.66944   3 ;    H9R-   C19-   C18-   C17
 12055  12053  12056  12057      9     0.00   0.62760   3 ;    H9S-   C19-   C18-   H8R
 12055  12053  12056  12058      9     0.00   0.62760   3 ;    H9S-   C19-   C18-   H8S
 12055  12053  12056  12059      9     0.00   0.66944   3 ;    H9S-   C19-   C18-   C17
 12056  12059  12062  12063      9     0.00   0.66944   3 ;    C18-   C17-   C16-   H6R
 12056  12059  12062  12064      9     0.00   0.66944   3 ;    C18-   C17-   C16-   H6S
 12056  12059  12062  12065      9     0.00   0.41840   1 ;    C18-   C17-   C16-   C15
 12056  12059  12062  12065      9     0.00   0.41840   2 ;    C18-   C17-   C16-   C15
 12056  12059  12062  12065      9     0.00   0.41840   4 ;    C18-   C17-   C16-   C15
 12056  12059  12062  12065      9     0.00   0.41840   5 ;    C18-   C17-   C16-   C15
 12056  12059  12062  12065      9     0.00   1.25520   3 ;    C18-   C17-   C16-   C15
 12057  12056  12059  12060      9     0.00   0.62760   3 ;    H8R-   C18-   C17-   H7R
 12057  12056  12059  12061      9     0.00   0.62760   3 ;    H8R-   C18-   C17-   H7S
 12057  12056  12059  12062      9     0.00   0.66944   3 ;    H8R-   C18-   C17-   C16
 12058  12056  12059  12060      9     0.00   0.62760   3 ;    H8S-   C18-   C17-   H7R
 12058  12056  12059  12061      9     0.00   0.62760   3 ;    H8S-   C18-   C17-   H7S
 12058  12056  12059  12062      9     0.00   0.66944   3 ;    H8S-   C18-   C17-   C16
 12059  12062  12065  12066      9     0.00   0.66944   3 ;    C17-   C16-   C15-   H5R
 12059  12062  12065  12067      9     0.00   0.66944   3 ;    C17-   C16-   C15-   H5S
 12059  12062  12065  12068      9     0.00   0.41840   1 ;    C17-   C16-   C15-   C14
 12059  12062  12065  12068      9     0.00   0.41840   2 ;    C17-   C16-   C15-   C14
 12059  12062  12065  12068      9     0.00   0.41840   4 ;    C17-   C16-   C15-   C14
 12059  12062  12065  12068      9     0.00   0.41840   5 ;    C17-   C16-   C15-   C14
 12059  12062  12065  12068      9     0.00   1.25520   3 ;    C17-   C16-   C15-   C14
 12060  12059  12062  12063      9     0.00   0.62760   3 ;    H7R-   C17-   C16-   H6R
 12060  12059  12062  12064      9     0.00   0.62760   3 ;    H7R-   C17-   C16-   H6S
 12060  12059  12062  12065      9     0.00   0.66944   3 ;    H7R-   C17-   C16-   C15
 12061  12059  12062  12063      9     0.00   0.62760   3 ;    H7S-   C17-   C16-   H6R
 12061  12059  12062  12064      9     0.00   0.62760   3 ;    H7S-   C17-   C16-   H6S
 12061  12059  12062  12065      9     0.00   0.66944   3 ;    H7S-   C17-   C16-   C15
 12062  12065  12068  12069      9     0.00   0.66944   3 ;    C16-   C15-   C14-   H4R
 12062  12065  12068  12070      9     0.00   0.66944   3 ;    C16-   C15-   C14-   H4S
 12062  12065  12068  12071      9     0.00   0.41840   1 ;    C16-   C15-   C14-   C13
 12062  12065  12068  12071      9     0.00   0.41840   2 ;    C16-   C15-   C14-   C13
 12062  12065  12068  12071      9     0.00   0.41840   4 ;    C16-   C15-   C14-   C13
 12062  12065  12068  12071      9     0.00   0.41840   5 ;    C16-   C15-   C14-   C13
 12062  12065  12068  12071      9     0.00   1.25520   3 ;    C16-   C15-   C14-   C13
 12063  12062  12065  12066      9     0.00   0.62760   3 ;    H6R-   C16-   C15-   H5R
 12063  12062  12065  12067      9     0.00   0.62760   3 ;    H6R-   C16-   C15-   H5S
 12063  12062  12065  12068      9     0.00   0.66944   3 ;    H6R-   C16-   C15-   C14
 12064  12062  12065  12066      9     0.00   0.62760   3 ;    H6S-   C16-   C15-   H5R
 12064  12062  12065  12067      9     0.00   0.62760   3 ;    H6S-   C16-   C15-   H5S
 12064  12062  12065  12068      9     0.00   0.66944   3 ;    H6S-   C16-   C15-   C14
 12065  12068  12071  12072      9     0.00   0.66944   3 ;    C15-   C14-   C13-   H3R
 12065  12068  12071  12073      9     0.00   0.66944   3 ;    C15-   C14-   C13-   H3S
 12065  12068  12071  12074      9     0.00   0.41840   1 ;    C15-   C14-   C13-   C12
 12065  12068  12071  12074      9     0.00   0.41840   2 ;    C15-   C14-   C13-   C12
 12065  12068  12071  12074      9     0.00   0.41840   4 ;    C15-   C14-   C13-   C12
 12065  12068  12071  12074      9     0.00   0.41840   5 ;    C15-   C14-   C13-   C12
 12065  12068  12071  12074      9     0.00   1.25520   3 ;    C15-   C14-   C13-   C12
 12066  12065  12068  12069      9     0.00   0.62760   3 ;    H5R-   C15-   C14-   H4R
 12066  12065  12068  12070      9     0.00   0.62760   3 ;    H5R-   C15-   C14-   H4S
 12066  12065  12068  12071      9     0.00   0.66944   3 ;    H5R-   C15-   C14-   C13
 12067  12065  12068  12069      9     0.00   0.62760   3 ;    H5S-   C15-   C14-   H4R
 12067  12065  12068  12070      9     0.00   0.62760   3 ;    H5S-   C15-   C14-   H4S
 12067  12065  12068  12071      9     0.00   0.66944   3 ;    H5S-   C15-   C14-   C13
 12068  12071  12074  12075      9     0.00   0.66944   3 ;    C14-   C13-   C12-   H2R
 12068  12071  12074  12076      9     0.00   0.66944   3 ;    C14-   C13-   C12-   H2S
 12068  12071  12074  12077      9     0.00   0.65270   3 ;    C14-   C13-   C12-   C11
 12069  12068  12071  12072      9     0.00   0.62760   3 ;    H4R-   C14-   C13-   H3R
 12069  12068  12071  12073      9     0.00   0.62760   3 ;    H4R-   C14-   C13-   H3S
 12069  12068  12071  12074      9     0.00   0.66944   3 ;    H4R-   C14-   C13-   C12
 12070  12068  12071  12072      9     0.00   0.62760   3 ;    H4S-   C14-   C13-   H3R
 12070  12068  12071  12073      9     0.00   0.62760   3 ;    H4S-   C14-   C13-   H3S
 12070  12068  12071  12074      9     0.00   0.66944   3 ;    H4S-   C14-   C13-   C12
 12071  12074  12077  12078      9   180.00   0.00000   2 ;    C13-   C12-   C11-   O12
 12071  12074  12077  12079      9   180.00   0.00000   2 ;    C13-   C12-   C11-   O11
 12072  12071  12074  12075      9     0.00   0.62760   3 ;    H3R-   C13-   C12-   H2R
 12072  12071  12074  12076      9     0.00   0.62760   3 ;    H3R-   C13-   C12-   H2S
 12072  12071  12074  12077      9     0.00   0.65270   3 ;    H3R-   C13-   C12-   C11
 12073  12071  12074  12075      9     0.00   0.62760   3 ;    H3S-   C13-   C12-   H2R
 12073  12071  12074  12076      9     0.00   0.62760   3 ;    H3S-   C13-   C12-   H2S
 12073  12071  12074  12077      9     0.00   0.65270   3 ;    H3S-   C13-   C12-   C11
 12074  12077  12079  12080      9   180.00  11.29680   2 ;    C12-   C11-   O11-    C1
 12075  12074  12077  12078      9     0.00   3.34720   1 ;    H2R-   C12-   C11-   O12
 12075  12074  12077  12078      9   180.00   0.33472   3 ;    H2R-   C12-   C11-   O12
 12075  12074  12077  12079      9   180.00   0.00000   2 ;    H2R-   C12-   C11-   O11
 12076  12074  12077  12078      9     0.00   3.34720   1 ;    H2S-   C12-   C11-   O12
 12076  12074  12077  12078      9   180.00   0.33472   3 ;    H2S-   C12-   C11-   O12
 12076  12074  12077  12079      9   180.00   0.00000   2 ;    H2S-   C12-   C11-   O11
 12077  12079  12080  12081      9     0.00   1.60247   3 ;    C11-   O11-    C1-    HR
 12077  12079  12080  12082      9     0.00   1.60247   3 ;    C11-   O11-    C1-    HS
 12077  12079  12080  12083      9     0.00  -0.41840   1 ;    C11-   O11-    C1-    C2
 12078  12077  12079  12080      9   180.00   5.85760   1 ;    O12-   C11-   O11-    C1
 12078  12077  12079  12080      9   180.00  11.29680   2 ;    O12-   C11-   O11-    C1
 12079  12080  12083  12084      9     0.00   0.00000   0 ;    O11-    C1-    C2-    HX
 12079  12080  12083  12084      9     0.00   1.04600   1 ;    O11-    C1-    C2-    HX
 12079  12080  12083  12085      9     0.00   0.00000   0 ;    O11-    C1-    C2-    C3
 12079  12080  12083  12085      9     0.00   0.00000   0 ;    O11-    C1-    C2-    C3
 12079  12080  12083  12085      9     0.00   0.00000   0 ;    O11-    C1-    C2-    C3
 12079  12080  12083  12085      9     0.00   0.00000   0 ;    O11-    C1-    C2-    C3
 12079  12080  12083  12085      9     0.00   0.00000   0 ;    O11-    C1-    C2-    C3
 12079  12080  12083  12112      9     0.00   1.25520   2 ;    O11-    C1-    C2-   O21
 12079  12080  12083  12112      9     0.00   4.18400   3 ;    O11-    C1-    C2-   O21
 12079  12080  12083  12112      9   180.00  -0.41840   1 ;    O11-    C1-    C2-   O21
 12080  12083  12085  12086      9     0.00   0.65270   3 ;     C1-    C2-    C3-    HA
 12080  12083  12085  12087      9     0.00   0.65270   3 ;     C1-    C2-    C3-    HB
 12080  12083  12085  12088      9   180.00   3.34720   1 ;     C1-    C2-    C3-   O31
 12080  12083  12112  12113      9     0.00  -0.41840   1 ;     C1-    C2-   O21-   C21
 12081  12080  12083  12084      9     0.00   0.65270   3 ;     HR-    C1-    C2-    HX
 12081  12080  12083  12085      9     0.00   0.65270   3 ;     HR-    C1-    C2-    C3
 12081  12080  12083  12112      9     0.00   0.00000   0 ;     HR-    C1-    C2-   O21
 12081  12080  12083  12112      9     0.00   1.04600   1 ;     HR-    C1-    C2-   O21
 12082  12080  12083  12084      9     0.00   0.65270   3 ;     HS-    C1-    C2-    HX
 12082  12080  12083  12085      9     0.00   0.65270   3 ;     HS-    C1-    C2-    C3
 12082  12080  12083  12112      9     0.00   0.00000   0 ;     HS-    C1-    C2-   O21
 12082  12080  12083  12112      9     0.00   1.04600   1 ;     HS-    C1-    C2-   O21
 12083  12085  12088  12089      9     0.00   0.00000   0 ;     C2-    C3-   O31-   P31
 12083  12085  12088  12089      9   180.00  -3.34720   2 ;     C2-    C3-   O31-   P31
 12083  12112  12113  12114      9   180.00   5.85760   1 ;     C2-   O21-   C21-   O22
 12083  12112  12113  12114      9   180.00  11.29680   2 ;     C2-   O21-   C21-   O22
 12083  12112  12113  12152      9   180.00  11.29680   2 ;     C2-   O21-   C21-   C12
 12084  12083  12085  12086      9     0.00   0.65270   3 ;     HX-    C2-    C3-    HA
 12084  12083  12085  12087      9     0.00   0.65270   3 ;     HX-    C2-    C3-    HB
 12084  12083  12085  12088      9     0.00   0.00000   0 ;     HX-    C2-    C3-   O31
 12084  12083  12085  12088      9     0.00   1.04600   1 ;     HX-    C2-    C3-   O31
 12084  12083  12112  12113      9     0.00   1.60247   3 ;     HX-    C2-   O21-   C21
 12085  12083  12112  12113      9     0.00  -0.41840   1 ;     C3-    C2-   O21-   C21
 12085  12088  12089  12090      9     0.00   2.51040   3 ;     C3-   O31-   P31-   O32
 12085  12088  12089  12090      9     0.00   9.62320   2 ;     C3-   O31-   P31-   O32
 12085  12088  12089  12110      9     0.00   0.00000   0 ;     C3-   O31-   P31-   O33
 12085  12088  12089  12110      9     0.00   0.00000   0 ;     C3-   O31-   P31-   O33
 12085  12088  12089  12110      9     0.00   0.00000   0 ;     C3-   O31-   P31-   O33
 12085  12088  12089  12110      9     0.00   0.00000   0 ;     C3-   O31-   P31-   O33
 12085  12088  12089  12110      9     0.00   0.83680   2 ;     C3-   O31-   P31-   O33
 12085  12088  12089  12111      9     0.00   0.00000   0 ;     C3-   O31-   P31-   O34
 12085  12088  12089  12111      9     0.00   0.00000   0 ;     C3-   O31-   P31-   O34
 12085  12088  12089  12111      9     0.00   0.00000   0 ;     C3-   O31-   P31-   O34
 12085  12088  12089  12111      9     0.00   0.00000   0 ;     C3-   O31-   P31-   O34
 12085  12088  12089  12111      9     0.00   0.83680   2 ;     C3-   O31-   P31-   O34
 12086  12085  12083  12112      9     0.00   0.00000   0 ;     HA-    C3-    C2-   O21
 12086  12085  12083  12112      9     0.00   1.04600   1 ;     HA-    C3-    C2-   O21
 12086  12085  12088  12089      9     0.00   0.00000   0 ;     HA-    C3-   O31-   P31
 12086  12085  12088  12089      9     0.00   0.00000   0 ;     HA-    C3-   O31-   P31
 12086  12085  12088  12089      9     0.00   0.00000   0 ;     HA-    C3-   O31-   P31
 12086  12085  12088  12089      9     0.00   0.00000   0 ;     HA-    C3-   O31-   P31
 12086  12085  12088  12089      9     0.00   1.60247   3 ;     HA-    C3-   O31-   P31
 12087  12085  12083  12112      9     0.00   0.00000   0 ;     HB-    C3-    C2-   O21
 12087  12085  12083  12112      9     0.00   1.04600   1 ;     HB-    C3-    C2-   O21
 12087  12085  12088  12089      9     0.00   0.00000   0 ;     HB-    C3-   O31-   P31
 12087  12085  12088  12089      9     0.00   0.00000   0 ;     HB-    C3-   O31-   P31
 12087  12085  12088  12089      9     0.00   0.00000   0 ;     HB-    C3-   O31-   P31
 12087  12085  12088  12089      9     0.00   0.00000   0 ;     HB-    C3-   O31-   P31
 12087  12085  12088  12089      9     0.00   1.60247   3 ;     HB-    C3-   O31-   P31
 12088  12085  12083  12112      9     0.00   0.00000   0 ;    O31-    C3-    C2-   O21
 12088  12085  12083  12112      9     0.00   0.00000   0 ;    O31-    C3-    C2-   O21
 12088  12085  12083  12112      9     0.00   0.00000   0 ;    O31-    C3-    C2-   O21
 12088  12085  12083  12112      9     0.00   0.00000   0 ;    O31-    C3-    C2-   O21
 12088  12085  12083  12112      9     0.00   0.00000   0 ;    O31-    C3-    C2-   O21
 12088  12089  12090  12091      9     0.00   2.51040   3 ;    O31-   P31-   O32-   C31
 12088  12089  12090  12091      9     0.00   9.62320   2 ;    O31-   P31-   O32-   C31
 12089  12090  12091  12092      9     0.00   0.00000   0 ;    P31-   O32-   C31-   H1A
 12089  12090  12091  12092      9     0.00   0.00000   0 ;    P31-   O32-   C31-   H1A
 12089  12090  12091  12092      9     0.00   0.00000   0 ;    P31-   O32-   C31-   H1A
 12089  12090  12091  12092      9     0.00   0.00000   0 ;    P31-   O32-   C31-   H1A
 12089  12090  12091  12092      9     0.00   1.60247   3 ;    P31-   O32-   C31-   H1A
 12089  12090  12091  12093      9     0.00   0.00000   0 ;    P31-   O32-   C31-   H1B
 12089  12090  12091  12093      9     0.00   0.00000   0 ;    P31-   O32-   C31-   H1B
 12089  12090  12091  12093      9     0.00   0.00000   0 ;    P31-   O32-   C31-   H1B
 12089  12090  12091  12093      9     0.00   0.00000   0 ;    P31-   O32-   C31-   H1B
 12089  12090  12091  12093      9     0.00   1.60247   3 ;    P31-   O32-   C31-   H1B
 12089  12090  12091  12094      9     0.00   0.00000   0 ;    P31-   O32-   C31-   C32
 12089  12090  12091  12094      9   180.00  -3.34720   2 ;    P31-   O32-   C31-   C32
 12090  12091  12094  12095      9     0.00   0.65270   3 ;    O32-   C31-   C32-   H2A
 12090  12091  12094  12096      9     0.00   0.65270   3 ;    O32-   C31-   C32-   H2B
 12090  12091  12094  12097      9     0.00   4.18400   3 ;    O32-   C31-   C32-   N31
 12091  12090  12089  12110      9     0.00   0.00000   0 ;    C31-   O32-   P31-   O33
 12091  12090  12089  12110      9     0.00   0.00000   0 ;    C31-   O32-   P31-   O33
 12091  12090  12089  12110      9     0.00   0.00000   0 ;    C31-   O32-   P31-   O33
 12091  12090  12089  12110      9     0.00   0.00000   0 ;    C31-   O32-   P31-   O33
 12091  12090  12089  12110      9     0.00   0.83680   2 ;    C31-   O32-   P31-   O33
 12091  12090  12089  12111      9     0.00   0.00000   0 ;    C31-   O32-   P31-   O34
 12091  12090  12089  12111      9     0.00   0.00000   0 ;    C31-   O32-   P31-   O34
 12091  12090  12089  12111      9     0.00   0.00000   0 ;    C31-   O32-   P31-   O34
 12091  12090  12089  12111      9     0.00   0.00000   0 ;    C31-   O32-   P31-   O34
 12091  12090  12089  12111      9     0.00   0.83680   2 ;    C31-   O32-   P31-   O34
 12091  12094  12097  12098      9     0.00   0.65270   3 ;    C31-   C32-   N31-   C33
 12091  12094  12097  12102      9     0.00   0.65270   3 ;    C31-   C32-   N31-   C34
 12091  12094  12097  12106      9     0.00   0.65270   3 ;    C31-   C32-   N31-   C35
 12092  12091  12094  12095      9     0.00   0.65270   3 ;    H1A-   C31-   C32-   H2A
 12092  12091  12094  12096      9     0.00   0.65270   3 ;    H1A-   C31-   C32-   H2B
 12092  12091  12094  12097      9     0.00   0.65270   3 ;    H1A-   C31-   C32-   N31
 12093  12091  12094  12095      9     0.00   0.65270   3 ;    H1B-   C31-   C32-   H2A
 12093  12091  12094  12096      9     0.00   0.65270   3 ;    H1B-   C31-   C32-   H2B
 12093  12091  12094  12097      9     0.00   0.65270   3 ;    H1B-   C31-   C32-   N31
 12094  12097  12098  12099      9     0.00   0.65270   3 ;    C32-   N31-   C33-   H3A
 12094  12097  12098  12100      9     0.00   0.65270   3 ;    C32-   N31-   C33-   H3B
 12094  12097  12098  12101      9     0.00   0.65270   3 ;    C32-   N31-   C33-   H3C
 12094  12097  12102  12103      9     0.00   0.65270   3 ;    C32-   N31-   C34-   H4A
 12094  12097  12102  12104      9     0.00   0.65270   3 ;    C32-   N31-   C34-   H4B
 12094  12097  12102  12105      9     0.00   0.65270   3 ;    C32-   N31-   C34-   H4C
 12094  12097  12106  12107      9     0.00   0.65270   3 ;    C32-   N31-   C35-   H5A
 12094  12097  12106  12108      9     0.00   0.65270   3 ;    C32-   N31-   C35-   H5B
 12094  12097  12106  12109      9     0.00   0.65270   3 ;    C32-   N31-   C35-   H5C
 12095  12094  12097  12098      9     0.00   0.65270   3 ;    H2A-   C32-   N31-   C33
 12095  12094  12097  12102      9     0.00   0.65270   3 ;    H2A-   C32-   N31-   C34
 12095  12094  12097  12106      9     0.00   0.65270   3 ;    H2A-   C32-   N31-   C35
 12096  12094  12097  12098      9     0.00   0.65270   3 ;    H2B-   C32-   N31-   C33
 12096  12094  12097  12102      9     0.00   0.65270   3 ;    H2B-   C32-   N31-   C34
 12096  12094  12097  12106      9     0.00   0.65270   3 ;    H2B-   C32-   N31-   C35
 12098  12097  12102  12103      9     0.00   0.65270   3 ;    C33-   N31-   C34-   H4A
 12098  12097  12102  12104      9     0.00   0.65270   3 ;    C33-   N31-   C34-   H4B
 12098  12097  12102  12105      9     0.00   0.65270   3 ;    C33-   N31-   C34-   H4C
 12098  12097  12106  12107      9     0.00   0.65270   3 ;    C33-   N31-   C35-   H5A
 12098  12097  12106  12108      9     0.00   0.65270   3 ;    C33-   N31-   C35-   H5B
 12098  12097  12106  12109      9     0.00   0.65270   3 ;    C33-   N31-   C35-   H5C
 12099  12098  12097  12102      9     0.00   0.65270   3 ;    H3A-   C33-   N31-   C34
 12099  12098  12097  12106      9     0.00   0.65270   3 ;    H3A-   C33-   N31-   C35
 12100  12098  12097  12102      9     0.00   0.65270   3 ;    H3B-   C33-   N31-   C34
 12100  12098  12097  12106      9     0.00   0.65270   3 ;    H3B-   C33-   N31-   C35
 12101  12098  12097  12102      9     0.00   0.65270   3 ;    H3C-   C33-   N31-   C34
 12101  12098  12097  12106      9     0.00   0.65270   3 ;    H3C-   C33-   N31-   C35
 12102  12097  12106  12107      9     0.00   0.65270   3 ;    C34-   N31-   C35-   H5A
 12102  12097  12106  12108      9     0.00   0.65270   3 ;    C34-   N31-   C35-   H5B
 12102  12097  12106  12109      9     0.00   0.65270   3 ;    C34-   N31-   C35-   H5C
 12103  12102  12097  12106      9     0.00   0.65270   3 ;    H4A-   C34-   N31-   C35
 12104  12102  12097  12106      9     0.00   0.65270   3 ;    H4B-   C34-   N31-   C35
 12105  12102  12097  12106      9     0.00   0.65270   3 ;    H4C-   C34-   N31-   C35
 12112  12113  12152  12149      9   180.00   0.00000   2 ;    O21-   C21-   C12-   C13
 12112  12113  12152  12153      9   180.00   0.00000   2 ;    O21-   C21-   C12-   H2R
 12112  12113  12152  12154      9   180.00   0.00000   2 ;    O21-   C21-   C12-   H2S
 12113  12152  12149  12146      9     0.00   0.65270   3 ;    C21-   C12-   C13-   C14
 12113  12152  12149  12150      9     0.00   0.65270   3 ;    C21-   C12-   C13-   H3R
 12113  12152  12149  12151      9     0.00   0.65270   3 ;    C21-   C12-   C13-   H3S
 12114  12113  12152  12149      9   180.00   0.00000   2 ;    O22-   C21-   C12-   C13
 12114  12113  12152  12153      9     0.00   3.34720   1 ;    O22-   C21-   C12-   H2R
 12114  12113  12152  12153      9   180.00   0.33472   3 ;    O22-   C21-   C12-   H2R
 12114  12113  12152  12154      9     0.00   3.34720   1 ;    O22-   C21-   C12-   H2S
 12114  12113  12152  12154      9   180.00   0.33472   3 ;    O22-   C21-   C12-   H2S
 12115  12116  12119  12120      9     0.00   0.62760   3 ;   H14T-  C114-  C113-  H13R
 12115  12116  12119  12121      9     0.00   0.62760   3 ;   H14T-  C114-  C113-  H13S
 12115  12116  12119  12122      9     0.00   0.66944   3 ;   H14T-  C114-  C113-  C112
 12116  12119  12122  12123      9     0.00   0.66944   3 ;   C114-  C113-  C112-  H12R
 12116  12119  12122  12124      9     0.00   0.66944   3 ;   C114-  C113-  C112-  H12S
 12116  12119  12122  12125      9     0.00   0.41840   1 ;   C114-  C113-  C112-  C111
 12116  12119  12122  12125      9     0.00   0.41840   2 ;   C114-  C113-  C112-  C111
 12116  12119  12122  12125      9     0.00   0.41840   4 ;   C114-  C113-  C112-  C111
 12116  12119  12122  12125      9     0.00   0.41840   5 ;   C114-  C113-  C112-  C111
 12116  12119  12122  12125      9     0.00   1.25520   3 ;   C114-  C113-  C112-  C111
 12117  12116  12119  12120      9     0.00   0.62760   3 ;   H14R-  C114-  C113-  H13R
 12117  12116  12119  12121      9     0.00   0.62760   3 ;   H14R-  C114-  C113-  H13S
 12117  12116  12119  12122      9     0.00   0.66944   3 ;   H14R-  C114-  C113-  C112
 12118  12116  12119  12120      9     0.00   0.62760   3 ;   H14S-  C114-  C113-  H13R
 12118  12116  12119  12121      9     0.00   0.62760   3 ;   H14S-  C114-  C113-  H13S
 12118  12116  12119  12122      9     0.00   0.66944   3 ;   H14S-  C114-  C113-  C112
 12119  12122  12125  12126      9     0.00   0.66944   3 ;   C113-  C112-  C111-  H11R
 12119  12122  12125  12127      9     0.00   0.66944   3 ;   C113-  C112-  C111-  H11S
 12119  12122  12125  12128      9     0.00   0.41840   1 ;   C113-  C112-  C111-  C110
 12119  12122  12125  12128      9     0.00   0.41840   2 ;   C113-  C112-  C111-  C110
 12119  12122  12125  12128      9     0.00   0.41840   4 ;   C113-  C112-  C111-  C110
 12119  12122  12125  12128      9     0.00   0.41840   5 ;   C113-  C112-  C111-  C110
 12119  12122  12125  12128      9     0.00   1.25520   3 ;   C113-  C112-  C111-  C110
 12120  12119  12122  12123      9     0.00   0.62760   3 ;   H13R-  C113-  C112-  H12R
 12120  12119  12122  12124      9     0.00   0.62760   3 ;   H13R-  C113-  C112-  H12S
 12120  12119  12122  12125      9     0.00   0.66944   3 ;   H13R-  C113-  C112-  C111
 12121  12119  12122  12123      9     0.00   0.62760   3 ;   H13S-  C113-  C112-  H12R
 12121  12119  12122  12124      9     0.00   0.62760   3 ;   H13S-  C113-  C112-  H12S
 12121  12119  12122  12125      9     0.00   0.66944   3 ;   H13S-  C113-  C112-  C111
 12122  12125  12128  12129      9     0.00   0.66944   3 ;   C112-  C111-  C110-  H10R
 12122  12125  12128  12130      9     0.00   0.66944   3 ;   C112-  C111-  C110-  H10S
 12122  12125  12128  12131      9     0.00   0.41840   1 ;   C112-  C111-  C110-   C19
 12122  12125  12128  12131      9     0.00   0.41840   2 ;   C112-  C111-  C110-   C19
 12122  12125  12128  12131      9     0.00   0.41840   4 ;   C112-  C111-  C110-   C19
 12122  12125  12128  12131      9     0.00   0.41840   5 ;   C112-  C111-  C110-   C19
 12122  12125  12128  12131      9     0.00   1.25520   3 ;   C112-  C111-  C110-   C19
 12123  12122  12125  12126      9     0.00   0.62760   3 ;   H12R-  C112-  C111-  H11R
 12123  12122  12125  12127      9     0.00   0.62760   3 ;   H12R-  C112-  C111-  H11S
 12123  12122  12125  12128      9     0.00   0.66944   3 ;   H12R-  C112-  C111-  C110
 12124  12122  12125  12126      9     0.00   0.62760   3 ;   H12S-  C112-  C111-  H11R
 12124  12122  12125  12127      9     0.00   0.62760   3 ;   H12S-  C112-  C111-  H11S
 12124  12122  12125  12128      9     0.00   0.66944   3 ;   H12S-  C112-  C111-  C110
 12125  12128  12131  12132      9     0.00   0.66944   3 ;   C111-  C110-   C19-   H9R
 12125  12128  12131  12133      9     0.00   0.66944   3 ;   C111-  C110-   C19-   H9S
 12125  12128  12131  12134      9     0.00   0.41840   1 ;   C111-  C110-   C19-   C18
 12125  12128  12131  12134      9     0.00   0.41840   2 ;   C111-  C110-   C19-   C18
 12125  12128  12131  12134      9     0.00   0.41840   4 ;   C111-  C110-   C19-   C18
 12125  12128  12131  12134      9     0.00   0.41840   5 ;   C111-  C110-   C19-   C18
 12125  12128  12131  12134      9     0.00   1.25520   3 ;   C111-  C110-   C19-   C18
 12126  12125  12128  12129      9     0.00   0.62760   3 ;   H11R-  C111-  C110-  H10R
 12126  12125  12128  12130      9     0.00   0.62760   3 ;   H11R-  C111-  C110-  H10S
 12126  12125  12128  12131      9     0.00   0.66944   3 ;   H11R-  C111-  C110-   C19
 12127  12125  12128  12129      9     0.00   0.62760   3 ;   H11S-  C111-  C110-  H10R
 12127  12125  12128  12130      9     0.00   0.62760   3 ;   H11S-  C111-  C110-  H10S
 12127  12125  12128  12131      9     0.00   0.66944   3 ;   H11S-  C111-  C110-   C19
 12128  12131  12134  12135      9     0.00   0.66944   3 ;   C110-   C19-   C18-   H8R
 12128  12131  12134  12136      9     0.00   0.66944   3 ;   C110-   C19-   C18-   H8S
 12128  12131  12134  12137      9     0.00   0.41840   1 ;   C110-   C19-   C18-   C17
 12128  12131  12134  12137      9     0.00   0.41840   2 ;   C110-   C19-   C18-   C17
 12128  12131  12134  12137      9     0.00   0.41840   4 ;   C110-   C19-   C18-   C17
 12128  12131  12134  12137      9     0.00   0.41840   5 ;   C110-   C19-   C18-   C17
 12128  12131  12134  12137      9     0.00   1.25520   3 ;   C110-   C19-   C18-   C17
 12129  12128  12131  12132      9     0.00   0.62760   3 ;   H10R-  C110-   C19-   H9R
 12129  12128  12131  12133      9     0.00   0.62760   3 ;   H10R-  C110-   C19-   H9S
 12129  12128  12131  12134      9     0.00   0.66944   3 ;   H10R-  C110-   C19-   C18
 12130  12128  12131  12132      9     0.00   0.62760   3 ;   H10S-  C110-   C19-   H9R
 12130  12128  12131  12133      9     0.00   0.62760   3 ;   H10S-  C110-   C19-   H9S
 12130  12128  12131  12134      9     0.00   0.66944   3 ;   H10S-  C110-   C19-   C18
 12131  12134  12137  12138      9     0.00   0.66944   3 ;    C19-   C18-   C17-   H7R
 12131  12134  12137  12139      9     0.00   0.66944   3 ;    C19-   C18-   C17-   H7S
 12131  12134  12137  12140      9     0.00   0.41840   1 ;    C19-   C18-   C17-   C16
 12131  12134  12137  12140      9     0.00   0.41840   2 ;    C19-   C18-   C17-   C16
 12131  12134  12137  12140      9     0.00   0.41840   4 ;    C19-   C18-   C17-   C16
 12131  12134  12137  12140      9     0.00   0.41840   5 ;    C19-   C18-   C17-   C16
 12131  12134  12137  12140      9     0.00   1.25520   3 ;    C19-   C18-   C17-   C16
 12132  12131  12134  12135      9     0.00   0.62760   3 ;    H9R-   C19-   C18-   H8R
 12132  12131  12134  12136      9     0.00   0.62760   3 ;    H9R-   C19-   C18-   H8S
 12132  12131  12134  12137      9     0.00   0.66944   3 ;    H9R-   C19-   C18-   C17
 12133  12131  12134  12135      9     0.00   0.62760   3 ;    H9S-   C19-   C18-   H8R
 12133  12131  12134  12136      9     0.00   0.62760   3 ;    H9S-   C19-   C18-   H8S
 12133  12131  12134  12137      9     0.00   0.66944   3 ;    H9S-   C19-   C18-   C17
 12134  12137  12140  12141      9     0.00   0.66944   3 ;    C18-   C17-   C16-   H6R
 12134  12137  12140  12142      9     0.00   0.66944   3 ;    C18-   C17-   C16-   H6S
 12134  12137  12140  12143      9     0.00   0.41840   1 ;    C18-   C17-   C16-   C15
 12134  12137  12140  12143      9     0.00   0.41840   2 ;    C18-   C17-   C16-   C15
 12134  12137  12140  12143      9     0.00   0.41840   4 ;    C18-   C17-   C16-   C15
 12134  12137  12140  12143      9     0.00   0.41840   5 ;    C18-   C17-   C16-   C15
 12134  12137  12140  12143      9     0.00   1.25520   3 ;    C18-   C17-   C16-   C15
 12135  12134  12137  12138      9     0.00   0.62760   3 ;    H8R-   C18-   C17-   H7R
 12135  12134  12137  12139      9     0.00   0.62760   3 ;    H8R-   C18-   C17-   H7S
 12135  12134  12137  12140      9     0.00   0.66944   3 ;    H8R-   C18-   C17-   C16
 12136  12134  12137  12138      9     0.00   0.62760   3 ;    H8S-   C18-   C17-   H7R
 12136  12134  12137  12139      9     0.00   0.62760   3 ;    H8S-   C18-   C17-   H7S
 12136  12134  12137  12140      9     0.00   0.66944   3 ;    H8S-   C18-   C17-   C16
 12137  12140  12143  12144      9     0.00   0.66944   3 ;    C17-   C16-   C15-   H5R
 12137  12140  12143  12145      9     0.00   0.66944   3 ;    C17-   C16-   C15-   H5S
 12137  12140  12143  12146      9     0.00   0.41840   1 ;    C17-   C16-   C15-   C14
 12137  12140  12143  12146      9     0.00   0.41840   2 ;    C17-   C16-   C15-   C14
 12137  12140  12143  12146      9     0.00   0.41840   4 ;    C17-   C16-   C15-   C14
 12137  12140  12143  12146      9     0.00   0.41840   5 ;    C17-   C16-   C15-   C14
 12137  12140  12143  12146      9     0.00   1.25520   3 ;    C17-   C16-   C15-   C14
 12138  12137  12140  12141      9     0.00   0.62760   3 ;    H7R-   C17-   C16-   H6R
 12138  12137  12140  12142      9     0.00   0.62760   3 ;    H7R-   C17-   C16-   H6S
 12138  12137  12140  12143      9     0.00   0.66944   3 ;    H7R-   C17-   C16-   C15
 12139  12137  12140  12141      9     0.00   0.62760   3 ;    H7S-   C17-   C16-   H6R
 12139  12137  12140  12142      9     0.00   0.62760   3 ;    H7S-   C17-   C16-   H6S
 12139  12137  12140  12143      9     0.00   0.66944   3 ;    H7S-   C17-   C16-   C15
 12140  12143  12146  12147      9     0.00   0.66944   3 ;    C16-   C15-   C14-   H4R
 12140  12143  12146  12148      9     0.00   0.66944   3 ;    C16-   C15-   C14-   H4S
 12140  12143  12146  12149      9     0.00   0.41840   1 ;    C16-   C15-   C14-   C13
 12140  12143  12146  12149      9     0.00   0.41840   2 ;    C16-   C15-   C14-   C13
 12140  12143  12146  12149      9     0.00   0.41840   4 ;    C16-   C15-   C14-   C13
 12140  12143  12146  12149      9     0.00   0.41840   5 ;    C16-   C15-   C14-   C13
 12140  12143  12146  12149      9     0.00   1.25520   3 ;    C16-   C15-   C14-   C13
 12141  12140  12143  12144      9     0.00   0.62760   3 ;    H6R-   C16-   C15-   H5R
 12141  12140  12143  12145      9     0.00   0.62760   3 ;    H6R-   C16-   C15-   H5S
 12141  12140  12143  12146      9     0.00   0.66944   3 ;    H6R-   C16-   C15-   C14
 12142  12140  12143  12144      9     0.00   0.62760   3 ;    H6S-   C16-   C15-   H5R
 12142  12140  12143  12145      9     0.00   0.62760   3 ;    H6S-   C16-   C15-   H5S
 12142  12140  12143  12146      9     0.00   0.66944   3 ;    H6S-   C16-   C15-   C14
 12143  12146  12149  12150      9     0.00   0.66944   3 ;    C15-   C14-   C13-   H3R
 12143  12146  12149  12151      9     0.00   0.66944   3 ;    C15-   C14-   C13-   H3S
 12143  12146  12149  12152      9     0.00   0.41840   1 ;    C15-   C14-   C13-   C12
 12143  12146  12149  12152      9     0.00   0.41840   2 ;    C15-   C14-   C13-   C12
 12143  12146  12149  12152      9     0.00   0.41840   4 ;    C15-   C14-   C13-   C12
 12143  12146  12149  12152      9     0.00   0.41840   5 ;    C15-   C14-   C13-   C12
 12143  12146  12149  12152      9     0.00   1.25520   3 ;    C15-   C14-   C13-   C12
 12144  12143  12146  12147      9     0.00   0.62760   3 ;    H5R-   C15-   C14-   H4R
 12144  12143  12146  12148      9     0.00   0.62760   3 ;    H5R-   C15-   C14-   H4S
 12144  12143  12146  12149      9     0.00   0.66944   3 ;    H5R-   C15-   C14-   C13
 12145  12143  12146  12147      9     0.00   0.62760   3 ;    H5S-   C15-   C14-   H4R
 12145  12143  12146  12148      9     0.00   0.62760   3 ;    H5S-   C15-   C14-   H4S
 12145  12143  12146  12149      9     0.00   0.66944   3 ;    H5S-   C15-   C14-   C13
 12146  12149  12152  12153      9     0.00   0.66944   3 ;    C14-   C13-   C12-   H2R
 12146  12149  12152  12154      9     0.00   0.66944   3 ;    C14-   C13-   C12-   H2S
 12147  12146  12149  12150      9     0.00   0.62760   3 ;    H4R-   C14-   C13-   H3R
 12147  12146  12149  12151      9     0.00   0.62760   3 ;    H4R-   C14-   C13-   H3S
 12147  12146  12149  12152      9     0.00   0.66944   3 ;    H4R-   C14-   C13-   C12
 12148  12146  12149  12150      9     0.00   0.62760   3 ;    H4S-   C14-   C13-   H3R
 12148  12146  12149  12151      9     0.00   0.62760   3 ;    H4S-   C14-   C13-   H3S
 12148  12146  12149  12152      9     0.00   0.66944   3 ;    H4S-   C14-   C13-   C12
 12150  12149  12152  12153      9     0.00   0.62760   3 ;    H3R-   C13-   C12-   H2R
 12150  12149  12152  12154      9     0.00   0.62760   3 ;    H3R-   C13-   C12-   H2S
 12151  12149  12152  12153      9     0.00   0.62760   3 ;    H3S-   C13-   C12-   H2R
 12151  12149  12152  12154      9     0.00   0.62760   3 ;    H3S-   C13-   C12-   H2S
 12155  12156  12159  12160      9     0.00   0.62760   3 ;   H14T-  C114-  C113-  H13R
 12155  12156  12159  12161      9     0.00   0.62760   3 ;   H14T-  C114-  C113-  H13S
 12155  12156  12159  12162      9     0.00   0.66944   3 ;   H14T-  C114-  C113-  C112
 12156  12159  12162  12163      9     0.00   0.66944   3 ;   C114-  C113-  C112-  H12R
 12156  12159  12162  12164      9     0.00   0.66944   3 ;   C114-  C113-  C112-  H12S
 12156  12159  12162  12165      9     0.00   0.41840   1 ;   C114-  C113-  C112-  C111
 12156  12159  12162  12165      9     0.00   0.41840   2 ;   C114-  C113-  C112-  C111
 12156  12159  12162  12165      9     0.00   0.41840   4 ;   C114-  C113-  C112-  C111
 12156  12159  12162  12165      9     0.00   0.41840   5 ;   C114-  C113-  C112-  C111
 12156  12159  12162  12165      9     0.00   1.25520   3 ;   C114-  C113-  C112-  C111
 12157  12156  12159  12160      9     0.00   0.62760   3 ;   H14R-  C114-  C113-  H13R
 12157  12156  12159  12161      9     0.00   0.62760   3 ;   H14R-  C114-  C113-  H13S
 12157  12156  12159  12162      9     0.00   0.66944   3 ;   H14R-  C114-  C113-  C112
 12158  12156  12159  12160      9     0.00   0.62760   3 ;   H14S-  C114-  C113-  H13R
 12158  12156  12159  12161      9     0.00   0.62760   3 ;   H14S-  C114-  C113-  H13S
 12158  12156  12159  12162      9     0.00   0.66944   3 ;   H14S-  C114-  C113-  C112
 12159  12162  12165  12166      9     0.00   0.66944   3 ;   C113-  C112-  C111-  H11R
 12159  12162  12165  12167      9     0.00   0.66944   3 ;   C113-  C112-  C111-  H11S
 12159  12162  12165  12168      9     0.00   0.41840   1 ;   C113-  C112-  C111-  C110
 12159  12162  12165  12168      9     0.00   0.41840   2 ;   C113-  C112-  C111-  C110
 12159  12162  12165  12168      9     0.00   0.41840   4 ;   C113-  C112-  C111-  C110
 12159  12162  12165  12168      9     0.00   0.41840   5 ;   C113-  C112-  C111-  C110
 12159  12162  12165  12168      9     0.00   1.25520   3 ;   C113-  C112-  C111-  C110
 12160  12159  12162  12163      9     0.00   0.62760   3 ;   H13R-  C113-  C112-  H12R
 12160  12159  12162  12164      9     0.00   0.62760   3 ;   H13R-  C113-  C112-  H12S
 12160  12159  12162  12165      9     0.00   0.66944   3 ;   H13R-  C113-  C112-  C111
 12161  12159  12162  12163      9     0.00   0.62760   3 ;   H13S-  C113-  C112-  H12R
 12161  12159  12162  12164      9     0.00   0.62760   3 ;   H13S-  C113-  C112-  H12S
 12161  12159  12162  12165      9     0.00   0.66944   3 ;   H13S-  C113-  C112-  C111
 12162  12165  12168  12169      9     0.00   0.66944   3 ;   C112-  C111-  C110-  H10R
 12162  12165  12168  12170      9     0.00   0.66944   3 ;   C112-  C111-  C110-  H10S
 12162  12165  12168  12171      9     0.00   0.41840   1 ;   C112-  C111-  C110-   C19
 12162  12165  12168  12171      9     0.00   0.41840   2 ;   C112-  C111-  C110-   C19
 12162  12165  12168  12171      9     0.00   0.41840   4 ;   C112-  C111-  C110-   C19
 12162  12165  12168  12171      9     0.00   0.41840   5 ;   C112-  C111-  C110-   C19
 12162  12165  12168  12171      9     0.00   1.25520   3 ;   C112-  C111-  C110-   C19
 12163  12162  12165  12166      9     0.00   0.62760   3 ;   H12R-  C112-  C111-  H11R
 12163  12162  12165  12167      9     0.00   0.62760   3 ;   H12R-  C112-  C111-  H11S
 12163  12162  12165  12168      9     0.00   0.66944   3 ;   H12R-  C112-  C111-  C110
 12164  12162  12165  12166      9     0.00   0.62760   3 ;   H12S-  C112-  C111-  H11R
 12164  12162  12165  12167      9     0.00   0.62760   3 ;   H12S-  C112-  C111-  H11S
 12164  12162  12165  12168      9     0.00   0.66944   3 ;   H12S-  C112-  C111-  C110
 12165  12168  12171  12172      9     0.00   0.66944   3 ;   C111-  C110-   C19-   H9R
 12165  12168  12171  12173      9     0.00   0.66944   3 ;   C111-  C110-   C19-   H9S
 12165  12168  12171  12174      9     0.00   0.41840   1 ;   C111-  C110-   C19-   C18
 12165  12168  12171  12174      9     0.00   0.41840   2 ;   C111-  C110-   C19-   C18
 12165  12168  12171  12174      9     0.00   0.41840   4 ;   C111-  C110-   C19-   C18
 12165  12168  12171  12174      9     0.00   0.41840   5 ;   C111-  C110-   C19-   C18
 12165  12168  12171  12174      9     0.00   1.25520   3 ;   C111-  C110-   C19-   C18
 12166  12165  12168  12169      9     0.00   0.62760   3 ;   H11R-  C111-  C110-  H10R
 12166  12165  12168  12170      9     0.00   0.62760   3 ;   H11R-  C111-  C110-  H10S
 12166  12165  12168  12171      9     0.00   0.66944   3 ;   H11R-  C111-  C110-   C19
 12167  12165  12168  12169      9     0.00   0.62760   3 ;   H11S-  C111-  C110-  H10R
 12167  12165  12168  12170      9     0.00   0.62760   3 ;   H11S-  C111-  C110-  H10S
 12167  12165  12168  12171      9     0.00   0.66944   3 ;   H11S-  C111-  C110-   C19
 12168  12171  12174  12175      9     0.00   0.66944   3 ;   C110-   C19-   C18-   H8R
 12168  12171  12174  12176      9     0.00   0.66944   3 ;   C110-   C19-   C18-   H8S
 12168  12171  12174  12177      9     0.00   0.41840   1 ;   C110-   C19-   C18-   C17
 12168  12171  12174  12177      9     0.00   0.41840   2 ;   C110-   C19-   C18-   C17
 12168  12171  12174  12177      9     0.00   0.41840   4 ;   C110-   C19-   C18-   C17
 12168  12171  12174  12177      9     0.00   0.41840   5 ;   C110-   C19-   C18-   C17
 12168  12171  12174  12177      9     0.00   1.25520   3 ;   C110-   C19-   C18-   C17
 12169  12168  12171  12172      9     0.00   0.62760   3 ;   H10R-  C110-   C19-   H9R
 12169  12168  12171  12173      9     0.00   0.62760   3 ;   H10R-  C110-   C19-   H9S
 12169  12168  12171  12174      9     0.00   0.66944   3 ;   H10R-  C110-   C19-   C18
 12170  12168  12171  12172      9     0.00   0.62760   3 ;   H10S-  C110-   C19-   H9R
 12170  12168  12171  12173      9     0.00   0.62760   3 ;   H10S-  C110-   C19-   H9S
 12170  12168  12171  12174      9     0.00   0.66944   3 ;   H10S-  C110-   C19-   C18
 12171  12174  12177  12178      9     0.00   0.66944   3 ;    C19-   C18-   C17-   H7R
 12171  12174  12177  12179      9     0.00   0.66944   3 ;    C19-   C18-   C17-   H7S
 12171  12174  12177  12180      9     0.00   0.41840   1 ;    C19-   C18-   C17-   C16
 12171  12174  12177  12180      9     0.00   0.41840   2 ;    C19-   C18-   C17-   C16
 12171  12174  12177  12180      9     0.00   0.41840   4 ;    C19-   C18-   C17-   C16
 12171  12174  12177  12180      9     0.00   0.41840   5 ;    C19-   C18-   C17-   C16
 12171  12174  12177  12180      9     0.00   1.25520   3 ;    C19-   C18-   C17-   C16
 12172  12171  12174  12175      9     0.00   0.62760   3 ;    H9R-   C19-   C18-   H8R
 12172  12171  12174  12176      9     0.00   0.62760   3 ;    H9R-   C19-   C18-   H8S
 12172  12171  12174  12177      9     0.00   0.66944   3 ;    H9R-   C19-   C18-   C17
 12173  12171  12174  12175      9     0.00   0.62760   3 ;    H9S-   C19-   C18-   H8R
 12173  12171  12174  12176      9     0.00   0.62760   3 ;    H9S-   C19-   C18-   H8S
 12173  12171  12174  12177      9     0.00   0.66944   3 ;    H9S-   C19-   C18-   C17
 12174  12177  12180  12181      9     0.00   0.66944   3 ;    C18-   C17-   C16-   H6R
 12174  12177  12180  12182      9     0.00   0.66944   3 ;    C18-   C17-   C16-   H6S
 12174  12177  12180  12183      9     0.00   0.41840   1 ;    C18-   C17-   C16-   C15
 12174  12177  12180  12183      9     0.00   0.41840   2 ;    C18-   C17-   C16-   C15
 12174  12177  12180  12183      9     0.00   0.41840   4 ;    C18-   C17-   C16-   C15
 12174  12177  12180  12183      9     0.00   0.41840   5 ;    C18-   C17-   C16-   C15
 12174  12177  12180  12183      9     0.00   1.25520   3 ;    C18-   C17-   C16-   C15
 12175  12174  12177  12178      9     0.00   0.62760   3 ;    H8R-   C18-   C17-   H7R
 12175  12174  12177  12179      9     0.00   0.62760   3 ;    H8R-   C18-   C17-   H7S
 12175  12174  12177  12180      9     0.00   0.66944   3 ;    H8R-   C18-   C17-   C16
 12176  12174  12177  12178      9     0.00   0.62760   3 ;    H8S-   C18-   C17-   H7R
 12176  12174  12177  12179      9     0.00   0.62760   3 ;    H8S-   C18-   C17-   H7S
 12176  12174  12177  12180      9     0.00   0.66944   3 ;    H8S-   C18-   C17-   C16
 12177  12180  12183  12184      9     0.00   0.66944   3 ;    C17-   C16-   C15-   H5R
 12177  12180  12183  12185      9     0.00   0.66944   3 ;    C17-   C16-   C15-   H5S
 12177  12180  12183  12186      9     0.00   0.41840   1 ;    C17-   C16-   C15-   C14
 12177  12180  12183  12186      9     0.00   0.41840   2 ;    C17-   C16-   C15-   C14
 12177  12180  12183  12186      9     0.00   0.41840   4 ;    C17-   C16-   C15-   C14
 12177  12180  12183  12186      9     0.00   0.41840   5 ;    C17-   C16-   C15-   C14
 12177  12180  12183  12186      9     0.00   1.25520   3 ;    C17-   C16-   C15-   C14
 12178  12177  12180  12181      9     0.00   0.62760   3 ;    H7R-   C17-   C16-   H6R
 12178  12177  12180  12182      9     0.00   0.62760   3 ;    H7R-   C17-   C16-   H6S
 12178  12177  12180  12183      9     0.00   0.66944   3 ;    H7R-   C17-   C16-   C15
 12179  12177  12180  12181      9     0.00   0.62760   3 ;    H7S-   C17-   C16-   H6R
 12179  12177  12180  12182      9     0.00   0.62760   3 ;    H7S-   C17-   C16-   H6S
 12179  12177  12180  12183      9     0.00   0.66944   3 ;    H7S-   C17-   C16-   C15
 12180  12183  12186  12187      9     0.00   0.66944   3 ;    C16-   C15-   C14-   H4R
 12180  12183  12186  12188      9     0.00   0.66944   3 ;    C16-   C15-   C14-   H4S
 12180  12183  12186  12189      9     0.00   0.41840   1 ;    C16-   C15-   C14-   C13
 12180  12183  12186  12189      9     0.00   0.41840   2 ;    C16-   C15-   C14-   C13
 12180  12183  12186  12189      9     0.00   0.41840   4 ;    C16-   C15-   C14-   C13
 12180  12183  12186  12189      9     0.00   0.41840   5 ;    C16-   C15-   C14-   C13
 12180  12183  12186  12189      9     0.00   1.25520   3 ;    C16-   C15-   C14-   C13
 12181  12180  12183  12184      9     0.00   0.62760   3 ;    H6R-   C16-   C15-   H5R
 12181  12180  12183  12185      9     0.00   0.62760   3 ;    H6R-   C16-   C15-   H5S
 12181  12180  12183  12186      9     0.00   0.66944   3 ;    H6R-   C16-   C15-   C14
 12182  12180  12183  12184      9     0.00   0.62760   3 ;    H6S-   C16-   C15-   H5R
 12182  12180  12183  12185      9     0.00   0.62760   3 ;    H6S-   C16-   C15-   H5S
 12182  12180  12183  12186      9     0.00   0.66944   3 ;    H6S-   C16-   C15-   C14
 12183  12186  12189  12190      9     0.00   0.66944   3 ;    C15-   C14-   C13-   H3R
 12183  12186  12189  12191      9     0.00   0.66944   3 ;    C15-   C14-   C13-   H3S
 12183  12186  12189  12192      9     0.00   0.41840   1 ;    C15-   C14-   C13-   C12
 12183  12186  12189  12192      9     0.00   0.41840   2 ;    C15-   C14-   C13-   C12
 12183  12186  12189  12192      9     0.00   0.41840   4 ;    C15-   C14-   C13-   C12
 12183  12186  12189  12192      9     0.00   0.41840   5 ;    C15-   C14-   C13-   C12
 12183  12186  12189  12192      9     0.00   1.25520   3 ;    C15-   C14-   C13-   C12
 12184  12183  12186  12187      9     0.00   0.62760   3 ;    H5R-   C15-   C14-   H4R
 12184  12183  12186  12188      9     0.00   0.62760   3 ;    H5R-   C15-   C14-   H4S
 12184  12183  12186  12189      9     0.00   0.66944   3 ;    H5R-   C15-   C14-   C13
 12185  12183  12186  12187      9     0.00   0.62760   3 ;    H5S-   C15-   C14-   H4R
 12185  12183  12186  12188      9     0.00   0.62760   3 ;    H5S-   C15-   C14-   H4S
 12185  12183  12186  12189      9     0.00   0.66944   3 ;    H5S-   C15-   C14-   C13
 12186  12189  12192  12193      9     0.00   0.66944   3 ;    C14-   C13-   C12-   H2R
 12186  12189  12192  12194      9     0.00   0.66944   3 ;    C14-   C13-   C12-   H2S
 12186  12189  12192  12195      9     0.00   0.65270   3 ;    C14-   C13-   C12-   C11
 12187  12186  12189  12190      9     0.00   0.62760   3 ;    H4R-   C14-   C13-   H3R
 12187  12186  12189  12191      9     0.00   0.62760   3 ;    H4R-   C14-   C13-   H3S
 12187  12186  12189  12192      9     0.00   0.66944   3 ;    H4R-   C14-   C13-   C12
 12188  12186  12189  12190      9     0.00   0.62760   3 ;    H4S-   C14-   C13-   H3R
 12188  12186  12189  12191      9     0.00   0.62760   3 ;    H4S-   C14-   C13-   H3S
 12188  12186  12189  12192      9     0.00   0.66944   3 ;    H4S-   C14-   C13-   C12
 12189  12192  12195  12196      9   180.00   0.00000   2 ;    C13-   C12-   C11-   O12
 12189  12192  12195  12197      9   180.00   0.00000   2 ;    C13-   C12-   C11-   O11
 12190  12189  12192  12193      9     0.00   0.62760   3 ;    H3R-   C13-   C12-   H2R
 12190  12189  12192  12194      9     0.00   0.62760   3 ;    H3R-   C13-   C12-   H2S
 12190  12189  12192  12195      9     0.00   0.65270   3 ;    H3R-   C13-   C12-   C11
 12191  12189  12192  12193      9     0.00   0.62760   3 ;    H3S-   C13-   C12-   H2R
 12191  12189  12192  12194      9     0.00   0.62760   3 ;    H3S-   C13-   C12-   H2S
 12191  12189  12192  12195      9     0.00   0.65270   3 ;    H3S-   C13-   C12-   C11
 12192  12195  12197  12198      9   180.00  11.29680   2 ;    C12-   C11-   O11-    C1
 12193  12192  12195  12196      9     0.00   3.34720   1 ;    H2R-   C12-   C11-   O12
 12193  12192  12195  12196      9   180.00   0.33472   3 ;    H2R-   C12-   C11-   O12
 12193  12192  12195  12197      9   180.00   0.00000   2 ;    H2R-   C12-   C11-   O11
 12194  12192  12195  12196      9     0.00   3.34720   1 ;    H2S-   C12-   C11-   O12
 12194  12192  12195  12196      9   180.00   0.33472   3 ;    H2S-   C12-   C11-   O12
 12194  12192  12195  12197      9   180.00   0.00000   2 ;    H2S-   C12-   C11-   O11
 12195  12197  12198  12199      9     0.00   1.60247   3 ;    C11-   O11-    C1-    HR
 12195  12197  12198  12200      9     0.00   1.60247   3 ;    C11-   O11-    C1-    HS
 12195  12197  12198  12201      9     0.00  -0.41840   1 ;    C11-   O11-    C1-    C2
 12196  12195  12197  12198      9   180.00   5.85760   1 ;    O12-   C11-   O11-    C1
 12196  12195  12197  12198      9   180.00  11.29680   2 ;    O12-   C11-   O11-    C1
 12197  12198  12201  12202      9     0.00   0.00000   0 ;    O11-    C1-    C2-    HX
 12197  12198  12201  12202      9     0.00   1.04600   1 ;    O11-    C1-    C2-    HX
 12197  12198  12201  12203      9     0.00   0.00000   0 ;    O11-    C1-    C2-    C3
 12197  12198  12201  12203      9     0.00   0.00000   0 ;    O11-    C1-    C2-    C3
 12197  12198  12201  12203      9     0.00   0.00000   0 ;    O11-    C1-    C2-    C3
 12197  12198  12201  12203      9     0.00   0.00000   0 ;    O11-    C1-    C2-    C3
 12197  12198  12201  12203      9     0.00   0.00000   0 ;    O11-    C1-    C2-    C3
 12197  12198  12201  12230      9     0.00   1.25520   2 ;    O11-    C1-    C2-   O21
 12197  12198  12201  12230      9     0.00   4.18400   3 ;    O11-    C1-    C2-   O21
 12197  12198  12201  12230      9   180.00  -0.41840   1 ;    O11-    C1-    C2-   O21
 12198  12201  12203  12204      9     0.00   0.65270   3 ;     C1-    C2-    C3-    HA
 12198  12201  12203  12205      9     0.00   0.65270   3 ;     C1-    C2-    C3-    HB
 12198  12201  12203  12206      9   180.00   3.34720   1 ;     C1-    C2-    C3-   O31
 12198  12201  12230  12231      9     0.00  -0.41840   1 ;     C1-    C2-   O21-   C21
 12199  12198  12201  12202      9     0.00   0.65270   3 ;     HR-    C1-    C2-    HX
 12199  12198  12201  12203      9     0.00   0.65270   3 ;     HR-    C1-    C2-    C3
 12199  12198  12201  12230      9     0.00   0.00000   0 ;     HR-    C1-    C2-   O21
 12199  12198  12201  12230      9     0.00   1.04600   1 ;     HR-    C1-    C2-   O21
 12200  12198  12201  12202      9     0.00   0.65270   3 ;     HS-    C1-    C2-    HX
 12200  12198  12201  12203      9     0.00   0.65270   3 ;     HS-    C1-    C2-    C3
 12200  12198  12201  12230      9     0.00   0.00000   0 ;     HS-    C1-    C2-   O21
 12200  12198  12201  12230      9     0.00   1.04600   1 ;     HS-    C1-    C2-   O21
 12201  12203  12206  12207      9     0.00   0.00000   0 ;     C2-    C3-   O31-   P31
 12201  12203  12206  12207      9   180.00  -3.34720   2 ;     C2-    C3-   O31-   P31
 12201  12230  12231  12232      9   180.00   5.85760   1 ;     C2-   O21-   C21-   O22
 12201  12230  12231  12232      9   180.00  11.29680   2 ;     C2-   O21-   C21-   O22
 12201  12230  12231  12270      9   180.00  11.29680   2 ;     C2-   O21-   C21-   C12
 12202  12201  12203  12204      9     0.00   0.65270   3 ;     HX-    C2-    C3-    HA
 12202  12201  12203  12205      9     0.00   0.65270   3 ;     HX-    C2-    C3-    HB
 12202  12201  12203  12206      9     0.00   0.00000   0 ;     HX-    C2-    C3-   O31
 12202  12201  12203  12206      9     0.00   1.04600   1 ;     HX-    C2-    C3-   O31
 12202  12201  12230  12231      9     0.00   1.60247   3 ;     HX-    C2-   O21-   C21
 12203  12201  12230  12231      9     0.00  -0.41840   1 ;     C3-    C2-   O21-   C21
 12203  12206  12207  12208      9     0.00   2.51040   3 ;     C3-   O31-   P31-   O32
 12203  12206  12207  12208      9     0.00   9.62320   2 ;     C3-   O31-   P31-   O32
 12203  12206  12207  12228      9     0.00   0.00000   0 ;     C3-   O31-   P31-   O33
 12203  12206  12207  12228      9     0.00   0.00000   0 ;     C3-   O31-   P31-   O33
 12203  12206  12207  12228      9     0.00   0.00000   0 ;     C3-   O31-   P31-   O33
 12203  12206  12207  12228      9     0.00   0.00000   0 ;     C3-   O31-   P31-   O33
 12203  12206  12207  12228      9     0.00   0.83680   2 ;     C3-   O31-   P31-   O33
 12203  12206  12207  12229      9     0.00   0.00000   0 ;     C3-   O31-   P31-   O34
 12203  12206  12207  12229      9     0.00   0.00000   0 ;     C3-   O31-   P31-   O34
 12203  12206  12207  12229      9     0.00   0.00000   0 ;     C3-   O31-   P31-   O34
 12203  12206  12207  12229      9     0.00   0.00000   0 ;     C3-   O31-   P31-   O34
 12203  12206  12207  12229      9     0.00   0.83680   2 ;     C3-   O31-   P31-   O34
 12204  12203  12201  12230      9     0.00   0.00000   0 ;     HA-    C3-    C2-   O21
 12204  12203  12201  12230      9     0.00   1.04600   1 ;     HA-    C3-    C2-   O21
 12204  12203  12206  12207      9     0.00   0.00000   0 ;     HA-    C3-   O31-   P31
 12204  12203  12206  12207      9     0.00   0.00000   0 ;     HA-    C3-   O31-   P31
 12204  12203  12206  12207      9     0.00   0.00000   0 ;     HA-    C3-   O31-   P31
 12204  12203  12206  12207      9     0.00   0.00000   0 ;     HA-    C3-   O31-   P31
 12204  12203  12206  12207      9     0.00   1.60247   3 ;     HA-    C3-   O31-   P31
 12205  12203  12201  12230      9     0.00   0.00000   0 ;     HB-    C3-    C2-   O21
 12205  12203  12201  12230      9     0.00   1.04600   1 ;     HB-    C3-    C2-   O21
 12205  12203  12206  12207      9     0.00   0.00000   0 ;     HB-    C3-   O31-   P31
 12205  12203  12206  12207      9     0.00   0.00000   0 ;     HB-    C3-   O31-   P31
 12205  12203  12206  12207      9     0.00   0.00000   0 ;     HB-    C3-   O31-   P31
 12205  12203  12206  12207      9     0.00   0.00000   0 ;     HB-    C3-   O31-   P31
 12205  12203  12206  12207      9     0.00   1.60247   3 ;     HB-    C3-   O31-   P31
 12206  12203  12201  12230      9     0.00   0.00000   0 ;    O31-    C3-    C2-   O21
 12206  12203  12201  12230      9     0.00   0.00000   0 ;    O31-    C3-    C2-   O21
 12206  12203  12201  12230      9     0.00   0.00000   0 ;    O31-    C3-    C2-   O21
 12206  12203  12201  12230      9     0.00   0.00000   0 ;    O31-    C3-    C2-   O21
 12206  12203  12201  12230      9     0.00   0.00000   0 ;    O31-    C3-    C2-   O21
 12206  12207  12208  12209      9     0.00   2.51040   3 ;    O31-   P31-   O32-   C31
 12206  12207  12208  12209      9     0.00   9.62320   2 ;    O31-   P31-   O32-   C31
 12207  12208  12209  12210      9     0.00   0.00000   0 ;    P31-   O32-   C31-   H1A
 12207  12208  12209  12210      9     0.00   0.00000   0 ;    P31-   O32-   C31-   H1A
 12207  12208  12209  12210      9     0.00   0.00000   0 ;    P31-   O32-   C31-   H1A
 12207  12208  12209  12210      9     0.00   0.00000   0 ;    P31-   O32-   C31-   H1A
 12207  12208  12209  12210      9     0.00   1.60247   3 ;    P31-   O32-   C31-   H1A
 12207  12208  12209  12211      9     0.00   0.00000   0 ;    P31-   O32-   C31-   H1B
 12207  12208  12209  12211      9     0.00   0.00000   0 ;    P31-   O32-   C31-   H1B
 12207  12208  12209  12211      9     0.00   0.00000   0 ;    P31-   O32-   C31-   H1B
 12207  12208  12209  12211      9     0.00   0.00000   0 ;    P31-   O32-   C31-   H1B
 12207  12208  12209  12211      9     0.00   1.60247   3 ;    P31-   O32-   C31-   H1B
 12207  12208  12209  12212      9     0.00   0.00000   0 ;    P31-   O32-   C31-   C32
 12207  12208  12209  12212      9   180.00  -3.34720   2 ;    P31-   O32-   C31-   C32
 12208  12209  12212  12213      9     0.00   0.65270   3 ;    O32-   C31-   C32-   H2A
 12208  12209  12212  12214      9     0.00   0.65270   3 ;    O32-   C31-   C32-   H2B
 12208  12209  12212  12215      9     0.00   4.18400   3 ;    O32-   C31-   C32-   N31
 12209  12208  12207  12228      9     0.00   0.00000   0 ;    C31-   O32-   P31-   O33
 12209  12208  12207  12228      9     0.00   0.00000   0 ;    C31-   O32-   P31-   O33
 12209  12208  12207  12228      9     0.00   0.00000   0 ;    C31-   O32-   P31-   O33
 12209  12208  12207  12228      9     0.00   0.00000   0 ;    C31-   O32-   P31-   O33
 12209  12208  12207  12228      9     0.00   0.83680   2 ;    C31-   O32-   P31-   O33
 12209  12208  12207  12229      9     0.00   0.00000   0 ;    C31-   O32-   P31-   O34
 12209  12208  12207  12229      9     0.00   0.00000   0 ;    C31-   O32-   P31-   O34
 12209  12208  12207  12229      9     0.00   0.00000   0 ;    C31-   O32-   P31-   O34
 12209  12208  12207  12229      9     0.00   0.00000   0 ;    C31-   O32-   P31-   O34
 12209  12208  12207  12229      9     0.00   0.83680   2 ;    C31-   O32-   P31-   O34
 12209  12212  12215  12216      9     0.00   0.65270   3 ;    C31-   C32-   N31-   C33
 12209  12212  12215  12220      9     0.00   0.65270   3 ;    C31-   C32-   N31-   C34
 12209  12212  12215  12224      9     0.00   0.65270   3 ;    C31-   C32-   N31-   C35
 12210  12209  12212  12213      9     0.00   0.65270   3 ;    H1A-   C31-   C32-   H2A
 12210  12209  12212  12214      9     0.00   0.65270   3 ;    H1A-   C31-   C32-   H2B
 12210  12209  12212  12215      9     0.00   0.65270   3 ;    H1A-   C31-   C32-   N31
 12211  12209  12212  12213      9     0.00   0.65270   3 ;    H1B-   C31-   C32-   H2A
 12211  12209  12212  12214      9     0.00   0.65270   3 ;    H1B-   C31-   C32-   H2B
 12211  12209  12212  12215      9     0.00   0.65270   3 ;    H1B-   C31-   C32-   N31
 12212  12215  12216  12217      9     0.00   0.65270   3 ;    C32-   N31-   C33-   H3A
 12212  12215  12216  12218      9     0.00   0.65270   3 ;    C32-   N31-   C33-   H3B
 12212  12215  12216  12219      9     0.00   0.65270   3 ;    C32-   N31-   C33-   H3C
 12212  12215  12220  12221      9     0.00   0.65270   3 ;    C32-   N31-   C34-   H4A
 12212  12215  12220  12222      9     0.00   0.65270   3 ;    C32-   N31-   C34-   H4B
 12212  12215  12220  12223      9     0.00   0.65270   3 ;    C32-   N31-   C34-   H4C
 12212  12215  12224  12225      9     0.00   0.65270   3 ;    C32-   N31-   C35-   H5A
 12212  12215  12224  12226      9     0.00   0.65270   3 ;    C32-   N31-   C35-   H5B
 12212  12215  12224  12227      9     0.00   0.65270   3 ;    C32-   N31-   C35-   H5C
 12213  12212  12215  12216      9     0.00   0.65270   3 ;    H2A-   C32-   N31-   C33
 12213  12212  12215  12220      9     0.00   0.65270   3 ;    H2A-   C32-   N31-   C34
 12213  12212  12215  12224      9     0.00   0.65270   3 ;    H2A-   C32-   N31-   C35
 12214  12212  12215  12216      9     0.00   0.65270   3 ;    H2B-   C32-   N31-   C33
 12214  12212  12215  12220      9     0.00   0.65270   3 ;    H2B-   C32-   N31-   C34
 12214  12212  12215  12224      9     0.00   0.65270   3 ;    H2B-   C32-   N31-   C35
 12216  12215  12220  12221      9     0.00   0.65270   3 ;    C33-   N31-   C34-   H4A
 12216  12215  12220  12222      9     0.00   0.65270   3 ;    C33-   N31-   C34-   H4B
 12216  12215  12220  12223      9     0.00   0.65270   3 ;    C33-   N31-   C34-   H4C
 12216  12215  12224  12225      9     0.00   0.65270   3 ;    C33-   N31-   C35-   H5A
 12216  12215  12224  12226      9     0.00   0.65270   3 ;    C33-   N31-   C35-   H5B
 12216  12215  12224  12227      9     0.00   0.65270   3 ;    C33-   N31-   C35-   H5C
 12217  12216  12215  12220      9     0.00   0.65270   3 ;    H3A-   C33-   N31-   C34
 12217  12216  12215  12224      9     0.00   0.65270   3 ;    H3A-   C33-   N31-   C35
 12218  12216  12215  12220      9     0.00   0.65270   3 ;    H3B-   C33-   N31-   C34
 12218  12216  12215  12224      9     0.00   0.65270   3 ;    H3B-   C33-   N31-   C35
 12219  12216  12215  12220      9     0.00   0.65270   3 ;    H3C-   C33-   N31-   C34
 12219  12216  12215  12224      9     0.00   0.65270   3 ;    H3C-   C33-   N31-   C35
 12220  12215  12224  12225      9     0.00   0.65270   3 ;    C34-   N31-   C35-   H5A
 12220  12215  12224  12226      9     0.00   0.65270   3 ;    C34-   N31-   C35-   H5B
 12220  12215  12224  12227      9     0.00   0.65270   3 ;    C34-   N31-   C35-   H5C
 12221  12220  12215  12224      9     0.00   0.65270   3 ;    H4A-   C34-   N31-   C35
 12222  12220  12215  12224      9     0.00   0.65270   3 ;    H4B-   C34-   N31-   C35
 12223  12220  12215  12224      9     0.00   0.65270   3 ;    H4C-   C34-   N31-   C35
 12230  12231  12270  12267      9   180.00   0.00000   2 ;    O21-   C21-   C12-   C13
 12230  12231  12270  12271      9   180.00   0.00000   2 ;    O21-   C21-   C12-   H2R
 12230  12231  12270  12272      9   180.00   0.00000   2 ;    O21-   C21-   C12-   H2S
 12231  12270  12267  12264      9     0.00   0.65270   3 ;    C21-   C12-   C13-   C14
 12231  12270  12267  12268      9     0.00   0.65270   3 ;    C21-   C12-   C13-   H3R
 12231  12270  12267  12269      9     0.00   0.65270   3 ;    C21-   C12-   C13-   H3S
 12232  12231  12270  12267      9   180.00   0.00000   2 ;    O22-   C21-   C12-   C13
 12232  12231  12270  12271      9     0.00   3.34720   1 ;    O22-   C21-   C12-   H2R
 12232  12231  12270  12271      9   180.00   0.33472   3 ;    O22-   C21-   C12-   H2R
 12232  12231  12270  12272      9     0.00   3.34720   1 ;    O22-   C21-   C12-   H2S
 12232  12231  12270  12272      9   180.00   0.33472   3 ;    O22-   C21-   C12-   H2S
 12233  12234  12237  12238      9     0.00   0.62760   3 ;   H14T-  C114-  C113-  H13R
 12233  12234  12237  12239      9     0.00   0.62760   3 ;   H14T-  C114-  C113-  H13S
 12233  12234  12237  12240      9     0.00   0.66944   3 ;   H14T-  C114-  C113-  C112
 12234  12237  12240  12241      9     0.00   0.66944   3 ;   C114-  C113-  C112-  H12R
 12234  12237  12240  12242      9     0.00   0.66944   3 ;   C114-  C113-  C112-  H12S
 12234  12237  12240  12243      9     0.00   0.41840   1 ;   C114-  C113-  C112-  C111
 12234  12237  12240  12243      9     0.00   0.41840   2 ;   C114-  C113-  C112-  C111
 12234  12237  12240  12243      9     0.00   0.41840   4 ;   C114-  C113-  C112-  C111
 12234  12237  12240  12243      9     0.00   0.41840   5 ;   C114-  C113-  C112-  C111
 12234  12237  12240  12243      9     0.00   1.25520   3 ;   C114-  C113-  C112-  C111
 12235  12234  12237  12238      9     0.00   0.62760   3 ;   H14R-  C114-  C113-  H13R
 12235  12234  12237  12239      9     0.00   0.62760   3 ;   H14R-  C114-  C113-  H13S
 12235  12234  12237  12240      9     0.00   0.66944   3 ;   H14R-  C114-  C113-  C112
 12236  12234  12237  12238      9     0.00   0.62760   3 ;   H14S-  C114-  C113-  H13R
 12236  12234  12237  12239      9     0.00   0.62760   3 ;   H14S-  C114-  C113-  H13S
 12236  12234  12237  12240      9     0.00   0.66944   3 ;   H14S-  C114-  C113-  C112
 12237  12240  12243  12244      9     0.00   0.66944   3 ;   C113-  C112-  C111-  H11R
 12237  12240  12243  12245      9     0.00   0.66944   3 ;   C113-  C112-  C111-  H11S
 12237  12240  12243  12246      9     0.00   0.41840   1 ;   C113-  C112-  C111-  C110
 12237  12240  12243  12246      9     0.00   0.41840   2 ;   C113-  C112-  C111-  C110
 12237  12240  12243  12246      9     0.00   0.41840   4 ;   C113-  C112-  C111-  C110
 12237  12240  12243  12246      9     0.00   0.41840   5 ;   C113-  C112-  C111-  C110
 12237  12240  12243  12246      9     0.00   1.25520   3 ;   C113-  C112-  C111-  C110
 12238  12237  12240  12241      9     0.00   0.62760   3 ;   H13R-  C113-  C112-  H12R
 12238  12237  12240  12242      9     0.00   0.62760   3 ;   H13R-  C113-  C112-  H12S
 12238  12237  12240  12243      9     0.00   0.66944   3 ;   H13R-  C113-  C112-  C111
 12239  12237  12240  12241      9     0.00   0.62760   3 ;   H13S-  C113-  C112-  H12R
 12239  12237  12240  12242      9     0.00   0.62760   3 ;   H13S-  C113-  C112-  H12S
 12239  12237  12240  12243      9     0.00   0.66944   3 ;   H13S-  C113-  C112-  C111
 12240  12243  12246  12247      9     0.00   0.66944   3 ;   C112-  C111-  C110-  H10R
 12240  12243  12246  12248      9     0.00   0.66944   3 ;   C112-  C111-  C110-  H10S
 12240  12243  12246  12249      9     0.00   0.41840   1 ;   C112-  C111-  C110-   C19
 12240  12243  12246  12249      9     0.00   0.41840   2 ;   C112-  C111-  C110-   C19
 12240  12243  12246  12249      9     0.00   0.41840   4 ;   C112-  C111-  C110-   C19
 12240  12243  12246  12249      9     0.00   0.41840   5 ;   C112-  C111-  C110-   C19
 12240  12243  12246  12249      9     0.00   1.25520   3 ;   C112-  C111-  C110-   C19
 12241  12240  12243  12244      9     0.00   0.62760   3 ;   H12R-  C112-  C111-  H11R
 12241  12240  12243  12245      9     0.00   0.62760   3 ;   H12R-  C112-  C111-  H11S
 12241  12240  12243  12246      9     0.00   0.66944   3 ;   H12R-  C112-  C111-  C110
 12242  12240  12243  12244      9     0.00   0.62760   3 ;   H12S-  C112-  C111-  H11R
 12242  12240  12243  12245      9     0.00   0.62760   3 ;   H12S-  C112-  C111-  H11S
 12242  12240  12243  12246      9     0.00   0.66944   3 ;   H12S-  C112-  C111-  C110
 12243  12246  12249  12250      9     0.00   0.66944   3 ;   C111-  C110-   C19-   H9R
 12243  12246  12249  12251      9     0.00   0.66944   3 ;   C111-  C110-   C19-   H9S
 12243  12246  12249  12252      9     0.00   0.41840   1 ;   C111-  C110-   C19-   C18
 12243  12246  12249  12252      9     0.00   0.41840   2 ;   C111-  C110-   C19-   C18
 12243  12246  12249  12252      9     0.00   0.41840   4 ;   C111-  C110-   C19-   C18
 12243  12246  12249  12252      9     0.00   0.41840   5 ;   C111-  C110-   C19-   C18
 12243  12246  12249  12252      9     0.00   1.25520   3 ;   C111-  C110-   C19-   C18
 12244  12243  12246  12247      9     0.00   0.62760   3 ;   H11R-  C111-  C110-  H10R
 12244  12243  12246  12248      9     0.00   0.62760   3 ;   H11R-  C111-  C110-  H10S
 12244  12243  12246  12249      9     0.00   0.66944   3 ;   H11R-  C111-  C110-   C19
 12245  12243  12246  12247      9     0.00   0.62760   3 ;   H11S-  C111-  C110-  H10R
 12245  12243  12246  12248      9     0.00   0.62760   3 ;   H11S-  C111-  C110-  H10S
 12245  12243  12246  12249      9     0.00   0.66944   3 ;   H11S-  C111-  C110-   C19
 12246  12249  12252  12253      9     0.00   0.66944   3 ;   C110-   C19-   C18-   H8R
 12246  12249  12252  12254      9     0.00   0.66944   3 ;   C110-   C19-   C18-   H8S
 12246  12249  12252  12255      9     0.00   0.41840   1 ;   C110-   C19-   C18-   C17
 12246  12249  12252  12255      9     0.00   0.41840   2 ;   C110-   C19-   C18-   C17
 12246  12249  12252  12255      9     0.00   0.41840   4 ;   C110-   C19-   C18-   C17
 12246  12249  12252  12255      9     0.00   0.41840   5 ;   C110-   C19-   C18-   C17
 12246  12249  12252  12255      9     0.00   1.25520   3 ;   C110-   C19-   C18-   C17
 12247  12246  12249  12250      9     0.00   0.62760   3 ;   H10R-  C110-   C19-   H9R
 12247  12246  12249  12251      9     0.00   0.62760   3 ;   H10R-  C110-   C19-   H9S
 12247  12246  12249  12252      9     0.00   0.66944   3 ;   H10R-  C110-   C19-   C18
 12248  12246  12249  12250      9     0.00   0.62760   3 ;   H10S-  C110-   C19-   H9R
 12248  12246  12249  12251      9     0.00   0.62760   3 ;   H10S-  C110-   C19-   H9S
 12248  12246  12249  12252      9     0.00   0.66944   3 ;   H10S-  C110-   C19-   C18
 12249  12252  12255  12256      9     0.00   0.66944   3 ;    C19-   C18-   C17-   H7R
 12249  12252  12255  12257      9     0.00   0.66944   3 ;    C19-   C18-   C17-   H7S
 12249  12252  12255  12258      9     0.00   0.41840   1 ;    C19-   C18-   C17-   C16
 12249  12252  12255  12258      9     0.00   0.41840   2 ;    C19-   C18-   C17-   C16
 12249  12252  12255  12258      9     0.00   0.41840   4 ;    C19-   C18-   C17-   C16
 12249  12252  12255  12258      9     0.00   0.41840   5 ;    C19-   C18-   C17-   C16
 12249  12252  12255  12258      9     0.00   1.25520   3 ;    C19-   C18-   C17-   C16
 12250  12249  12252  12253      9     0.00   0.62760   3 ;    H9R-   C19-   C18-   H8R
 12250  12249  12252  12254      9     0.00   0.62760   3 ;    H9R-   C19-   C18-   H8S
 12250  12249  12252  12255      9     0.00   0.66944   3 ;    H9R-   C19-   C18-   C17
 12251  12249  12252  12253      9     0.00   0.62760   3 ;    H9S-   C19-   C18-   H8R
 12251  12249  12252  12254      9     0.00   0.62760   3 ;    H9S-   C19-   C18-   H8S
 12251  12249  12252  12255      9     0.00   0.66944   3 ;    H9S-   C19-   C18-   C17
 12252  12255  12258  12259      9     0.00   0.66944   3 ;    C18-   C17-   C16-   H6R
 12252  12255  12258  12260      9     0.00   0.66944   3 ;    C18-   C17-   C16-   H6S
 12252  12255  12258  12261      9     0.00   0.41840   1 ;    C18-   C17-   C16-   C15
 12252  12255  12258  12261      9     0.00   0.41840   2 ;    C18-   C17-   C16-   C15
 12252  12255  12258  12261      9     0.00   0.41840   4 ;    C18-   C17-   C16-   C15
 12252  12255  12258  12261      9     0.00   0.41840   5 ;    C18-   C17-   C16-   C15
 12252  12255  12258  12261      9     0.00   1.25520   3 ;    C18-   C17-   C16-   C15
 12253  12252  12255  12256      9     0.00   0.62760   3 ;    H8R-   C18-   C17-   H7R
 12253  12252  12255  12257      9     0.00   0.62760   3 ;    H8R-   C18-   C17-   H7S
 12253  12252  12255  12258      9     0.00   0.66944   3 ;    H8R-   C18-   C17-   C16
 12254  12252  12255  12256      9     0.00   0.62760   3 ;    H8S-   C18-   C17-   H7R
 12254  12252  12255  12257      9     0.00   0.62760   3 ;    H8S-   C18-   C17-   H7S
 12254  12252  12255  12258      9     0.00   0.66944   3 ;    H8S-   C18-   C17-   C16
 12255  12258  12261  12262      9     0.00   0.66944   3 ;    C17-   C16-   C15-   H5R
 12255  12258  12261  12263      9     0.00   0.66944   3 ;    C17-   C16-   C15-   H5S
 12255  12258  12261  12264      9     0.00   0.41840   1 ;    C17-   C16-   C15-   C14
 12255  12258  12261  12264      9     0.00   0.41840   2 ;    C17-   C16-   C15-   C14
 12255  12258  12261  12264      9     0.00   0.41840   4 ;    C17-   C16-   C15-   C14
 12255  12258  12261  12264      9     0.00   0.41840   5 ;    C17-   C16-   C15-   C14
 12255  12258  12261  12264      9     0.00   1.25520   3 ;    C17-   C16-   C15-   C14
 12256  12255  12258  12259      9     0.00   0.62760   3 ;    H7R-   C17-   C16-   H6R
 12256  12255  12258  12260      9     0.00   0.62760   3 ;    H7R-   C17-   C16-   H6S
 12256  12255  12258  12261      9     0.00   0.66944   3 ;    H7R-   C17-   C16-   C15
 12257  12255  12258  12259      9     0.00   0.62760   3 ;    H7S-   C17-   C16-   H6R
 12257  12255  12258  12260      9     0.00   0.62760   3 ;    H7S-   C17-   C16-   H6S
 12257  12255  12258  12261      9     0.00   0.66944   3 ;    H7S-   C17-   C16-   C15
 12258  12261  12264  12265      9     0.00   0.66944   3 ;    C16-   C15-   C14-   H4R
 12258  12261  12264  12266      9     0.00   0.66944   3 ;    C16-   C15-   C14-   H4S
 12258  12261  12264  12267      9     0.00   0.41840   1 ;    C16-   C15-   C14-   C13
 12258  12261  12264  12267      9     0.00   0.41840   2 ;    C16-   C15-   C14-   C13
 12258  12261  12264  12267      9     0.00   0.41840   4 ;    C16-   C15-   C14-   C13
 12258  12261  12264  12267      9     0.00   0.41840   5 ;    C16-   C15-   C14-   C13
 12258  12261  12264  12267      9     0.00   1.25520   3 ;    C16-   C15-   C14-   C13
 12259  12258  12261  12262      9     0.00   0.62760   3 ;    H6R-   C16-   C15-   H5R
 12259  12258  12261  12263      9     0.00   0.62760   3 ;    H6R-   C16-   C15-   H5S
 12259  12258  12261  12264      9     0.00   0.66944   3 ;    H6R-   C16-   C15-   C14
 12260  12258  12261  12262      9     0.00   0.62760   3 ;    H6S-   C16-   C15-   H5R
 12260  12258  12261  12263      9     0.00   0.62760   3 ;    H6S-   C16-   C15-   H5S
 12260  12258  12261  12264      9     0.00   0.66944   3 ;    H6S-   C16-   C15-   C14
 12261  12264  12267  12268      9     0.00   0.66944   3 ;    C15-   C14-   C13-   H3R
 12261  12264  12267  12269      9     0.00   0.66944   3 ;    C15-   C14-   C13-   H3S
 12261  12264  12267  12270      9     0.00   0.41840   1 ;    C15-   C14-   C13-   C12
 12261  12264  12267  12270      9     0.00   0.41840   2 ;    C15-   C14-   C13-   C12
 12261  12264  12267  12270      9     0.00   0.41840   4 ;    C15-   C14-   C13-   C12
 12261  12264  12267  12270      9     0.00   0.41840   5 ;    C15-   C14-   C13-   C12
 12261  12264  12267  12270      9     0.00   1.25520   3 ;    C15-   C14-   C13-   C12
 12262  12261  12264  12265      9     0.00   0.62760   3 ;    H5R-   C15-   C14-   H4R
 12262  12261  12264  12266      9     0.00   0.62760   3 ;    H5R-   C15-   C14-   H4S
 12262  12261  12264  12267      9     0.00   0.66944   3 ;    H5R-   C15-   C14-   C13
 12263  12261  12264  12265      9     0.00   0.62760   3 ;    H5S-   C15-   C14-   H4R
 12263  12261  12264  12266      9     0.00   0.62760   3 ;    H5S-   C15-   C14-   H4S
 12263  12261  12264  12267      9     0.00   0.66944   3 ;    H5S-   C15-   C14-   C13
 12264  12267  12270  12271      9     0.00   0.66944   3 ;    C14-   C13-   C12-   H2R
 12264  12267  12270  12272      9     0.00   0.66944   3 ;    C14-   C13-   C12-   H2S
 12265  12264  12267  12268      9     0.00   0.62760   3 ;    H4R-   C14-   C13-   H3R
 12265  12264  12267  12269      9     0.00   0.62760   3 ;    H4R-   C14-   C13-   H3S
 12265  12264  12267  12270      9     0.00   0.66944   3 ;    H4R-   C14-   C13-   C12
 12266  12264  12267  12268      9     0.00   0.62760   3 ;    H4S-   C14-   C13-   H3R
 12266  12264  12267  12269      9     0.00   0.62760   3 ;    H4S-   C14-   C13-   H3S
 12266  12264  12267  12270      9     0.00   0.66944   3 ;    H4S-   C14-   C13-   C12
 12268  12267  12270  12271      9     0.00   0.62760   3 ;    H3R-   C13-   C12-   H2R
 12268  12267  12270  12272      9     0.00   0.62760   3 ;    H3R-   C13-   C12-   H2S
 12269  12267  12270  12271      9     0.00   0.62760   3 ;    H3S-   C13-   C12-   H2R
 12269  12267  12270  12272      9     0.00   0.62760   3 ;    H3S-   C13-   C12-   H2S
 12273  12274  12277  12278      9     0.00   0.62760   3 ;   H14T-  C114-  C113-  H13R
 12273  12274  12277  12279      9     0.00   0.62760   3 ;   H14T-  C114-  C113-  H13S
 12273  12274  12277  12280      9     0.00   0.66944   3 ;   H14T-  C114-  C113-  C112
 12274  12277  12280  12281      9     0.00   0.66944   3 ;   C114-  C113-  C112-  H12R
 12274  12277  12280  12282      9     0.00   0.66944   3 ;   C114-  C113-  C112-  H12S
 12274  12277  12280  12283      9     0.00   0.41840   1 ;   C114-  C113-  C112-  C111
 12274  12277  12280  12283      9     0.00   0.41840   2 ;   C114-  C113-  C112-  C111
 12274  12277  12280  12283      9     0.00   0.41840   4 ;   C114-  C113-  C112-  C111
 12274  12277  12280  12283      9     0.00   0.41840   5 ;   C114-  C113-  C112-  C111
 12274  12277  12280  12283      9     0.00   1.25520   3 ;   C114-  C113-  C112-  C111
 12275  12274  12277  12278      9     0.00   0.62760   3 ;   H14R-  C114-  C113-  H13R
 12275  12274  12277  12279      9     0.00   0.62760   3 ;   H14R-  C114-  C113-  H13S
 12275  12274  12277  12280      9     0.00   0.66944   3 ;   H14R-  C114-  C113-  C112
 12276  12274  12277  12278      9     0.00   0.62760   3 ;   H14S-  C114-  C113-  H13R
 12276  12274  12277  12279      9     0.00   0.62760   3 ;   H14S-  C114-  C113-  H13S
 12276  12274  12277  12280      9     0.00   0.66944   3 ;   H14S-  C114-  C113-  C112
 12277  12280  12283  12284      9     0.00   0.66944   3 ;   C113-  C112-  C111-  H11R
 12277  12280  12283  12285      9     0.00   0.66944   3 ;   C113-  C112-  C111-  H11S
 12277  12280  12283  12286      9     0.00   0.41840   1 ;   C113-  C112-  C111-  C110
 12277  12280  12283  12286      9     0.00   0.41840   2 ;   C113-  C112-  C111-  C110
 12277  12280  12283  12286      9     0.00   0.41840   4 ;   C113-  C112-  C111-  C110
 12277  12280  12283  12286      9     0.00   0.41840   5 ;   C113-  C112-  C111-  C110
 12277  12280  12283  12286      9     0.00   1.25520   3 ;   C113-  C112-  C111-  C110
 12278  12277  12280  12281      9     0.00   0.62760   3 ;   H13R-  C113-  C112-  H12R
 12278  12277  12280  12282      9     0.00   0.62760   3 ;   H13R-  C113-  C112-  H12S
 12278  12277  12280  12283      9     0.00   0.66944   3 ;   H13R-  C113-  C112-  C111
 12279  12277  12280  12281      9     0.00   0.62760   3 ;   H13S-  C113-  C112-  H12R
 12279  12277  12280  12282      9     0.00   0.62760   3 ;   H13S-  C113-  C112-  H12S
 12279  12277  12280  12283      9     0.00   0.66944   3 ;   H13S-  C113-  C112-  C111
 12280  12283  12286  12287      9     0.00   0.66944   3 ;   C112-  C111-  C110-  H10R
 12280  12283  12286  12288      9     0.00   0.66944   3 ;   C112-  C111-  C110-  H10S
 12280  12283  12286  12289      9     0.00   0.41840   1 ;   C112-  C111-  C110-   C19
 12280  12283  12286  12289      9     0.00   0.41840   2 ;   C112-  C111-  C110-   C19
 12280  12283  12286  12289      9     0.00   0.41840   4 ;   C112-  C111-  C110-   C19
 12280  12283  12286  12289      9     0.00   0.41840   5 ;   C112-  C111-  C110-   C19
 12280  12283  12286  12289      9     0.00   1.25520   3 ;   C112-  C111-  C110-   C19
 12281  12280  12283  12284      9     0.00   0.62760   3 ;   H12R-  C112-  C111-  H11R
 12281  12280  12283  12285      9     0.00   0.62760   3 ;   H12R-  C112-  C111-  H11S
 12281  12280  12283  12286      9     0.00   0.66944   3 ;   H12R-  C112-  C111-  C110
 12282  12280  12283  12284      9     0.00   0.62760   3 ;   H12S-  C112-  C111-  H11R
 12282  12280  12283  12285      9     0.00   0.62760   3 ;   H12S-  C112-  C111-  H11S
 12282  12280  12283  12286      9     0.00   0.66944   3 ;   H12S-  C112-  C111-  C110
 12283  12286  12289  12290      9     0.00   0.66944   3 ;   C111-  C110-   C19-   H9R
 12283  12286  12289  12291      9     0.00   0.66944   3 ;   C111-  C110-   C19-   H9S
 12283  12286  12289  12292      9     0.00   0.41840   1 ;   C111-  C110-   C19-   C18
 12283  12286  12289  12292      9     0.00   0.41840   2 ;   C111-  C110-   C19-   C18
 12283  12286  12289  12292      9     0.00   0.41840   4 ;   C111-  C110-   C19-   C18
 12283  12286  12289  12292      9     0.00   0.41840   5 ;   C111-  C110-   C19-   C18
 12283  12286  12289  12292      9     0.00   1.25520   3 ;   C111-  C110-   C19-   C18
 12284  12283  12286  12287      9     0.00   0.62760   3 ;   H11R-  C111-  C110-  H10R
 12284  12283  12286  12288      9     0.00   0.62760   3 ;   H11R-  C111-  C110-  H10S
 12284  12283  12286  12289      9     0.00   0.66944   3 ;   H11R-  C111-  C110-   C19
 12285  12283  12286  12287      9     0.00   0.62760   3 ;   H11S-  C111-  C110-  H10R
 12285  12283  12286  12288      9     0.00   0.62760   3 ;   H11S-  C111-  C110-  H10S
 12285  12283  12286  12289      9     0.00   0.66944   3 ;   H11S-  C111-  C110-   C19
 12286  12289  12292  12293      9     0.00   0.66944   3 ;   C110-   C19-   C18-   H8R
 12286  12289  12292  12294      9     0.00   0.66944   3 ;   C110-   C19-   C18-   H8S
 12286  12289  12292  12295      9     0.00   0.41840   1 ;   C110-   C19-   C18-   C17
 12286  12289  12292  12295      9     0.00   0.41840   2 ;   C110-   C19-   C18-   C17
 12286  12289  12292  12295      9     0.00   0.41840   4 ;   C110-   C19-   C18-   C17
 12286  12289  12292  12295      9     0.00   0.41840   5 ;   C110-   C19-   C18-   C17
 12286  12289  12292  12295      9     0.00   1.25520   3 ;   C110-   C19-   C18-   C17
 12287  12286  12289  12290      9     0.00   0.62760   3 ;   H10R-  C110-   C19-   H9R
 12287  12286  12289  12291      9     0.00   0.62760   3 ;   H10R-  C110-   C19-   H9S
 12287  12286  12289  12292      9     0.00   0.66944   3 ;   H10R-  C110-   C19-   C18
 12288  12286  12289  12290      9     0.00   0.62760   3 ;   H10S-  C110-   C19-   H9R
 12288  12286  12289  12291      9     0.00   0.62760   3 ;   H10S-  C110-   C19-   H9S
 12288  12286  12289  12292      9     0.00   0.66944   3 ;   H10S-  C110-   C19-   C18
 12289  12292  12295  12296      9     0.00   0.66944   3 ;    C19-   C18-   C17-   H7R
 12289  12292  12295  12297      9     0.00   0.66944   3 ;    C19-   C18-   C17-   H7S
 12289  12292  12295  12298      9     0.00   0.41840   1 ;    C19-   C18-   C17-   C16
 12289  12292  12295  12298      9     0.00   0.41840   2 ;    C19-   C18-   C17-   C16
 12289  12292  12295  12298      9     0.00   0.41840   4 ;    C19-   C18-   C17-   C16
 12289  12292  12295  12298      9     0.00   0.41840   5 ;    C19-   C18-   C17-   C16
 12289  12292  12295  12298      9     0.00   1.25520   3 ;    C19-   C18-   C17-   C16
 12290  12289  12292  12293      9     0.00   0.62760   3 ;    H9R-   C19-   C18-   H8R
 12290  12289  12292  12294      9     0.00   0.62760   3 ;    H9R-   C19-   C18-   H8S
 12290  12289  12292  12295      9     0.00   0.66944   3 ;    H9R-   C19-   C18-   C17
 12291  12289  12292  12293      9     0.00   0.62760   3 ;    H9S-   C19-   C18-   H8R
 12291  12289  12292  12294      9     0.00   0.62760   3 ;    H9S-   C19-   C18-   H8S
 12291  12289  12292  12295      9     0.00   0.66944   3 ;    H9S-   C19-   C18-   C17
 12292  12295  12298  12299      9     0.00   0.66944   3 ;    C18-   C17-   C16-   H6R
 12292  12295  12298  12300      9     0.00   0.66944   3 ;    C18-   C17-   C16-   H6S
 12292  12295  12298  12301      9     0.00   0.41840   1 ;    C18-   C17-   C16-   C15
 12292  12295  12298  12301      9     0.00   0.41840   2 ;    C18-   C17-   C16-   C15
 12292  12295  12298  12301      9     0.00   0.41840   4 ;    C18-   C17-   C16-   C15
 12292  12295  12298  12301      9     0.00   0.41840   5 ;    C18-   C17-   C16-   C15
 12292  12295  12298  12301      9     0.00   1.25520   3 ;    C18-   C17-   C16-   C15
 12293  12292  12295  12296      9     0.00   0.62760   3 ;    H8R-   C18-   C17-   H7R
 12293  12292  12295  12297      9     0.00   0.62760   3 ;    H8R-   C18-   C17-   H7S
 12293  12292  12295  12298      9     0.00   0.66944   3 ;    H8R-   C18-   C17-   C16
 12294  12292  12295  12296      9     0.00   0.62760   3 ;    H8S-   C18-   C17-   H7R
 12294  12292  12295  12297      9     0.00   0.62760   3 ;    H8S-   C18-   C17-   H7S
 12294  12292  12295  12298      9     0.00   0.66944   3 ;    H8S-   C18-   C17-   C16
 12295  12298  12301  12302      9     0.00   0.66944   3 ;    C17-   C16-   C15-   H5R
 12295  12298  12301  12303      9     0.00   0.66944   3 ;    C17-   C16-   C15-   H5S
 12295  12298  12301  12304      9     0.00   0.41840   1 ;    C17-   C16-   C15-   C14
 12295  12298  12301  12304      9     0.00   0.41840   2 ;    C17-   C16-   C15-   C14
 12295  12298  12301  12304      9     0.00   0.41840   4 ;    C17-   C16-   C15-   C14
 12295  12298  12301  12304      9     0.00   0.41840   5 ;    C17-   C16-   C15-   C14
 12295  12298  12301  12304      9     0.00   1.25520   3 ;    C17-   C16-   C15-   C14
 12296  12295  12298  12299      9     0.00   0.62760   3 ;    H7R-   C17-   C16-   H6R
 12296  12295  12298  12300      9     0.00   0.62760   3 ;    H7R-   C17-   C16-   H6S
 12296  12295  12298  12301      9     0.00   0.66944   3 ;    H7R-   C17-   C16-   C15
 12297  12295  12298  12299      9     0.00   0.62760   3 ;    H7S-   C17-   C16-   H6R
 12297  12295  12298  12300      9     0.00   0.62760   3 ;    H7S-   C17-   C16-   H6S
 12297  12295  12298  12301      9     0.00   0.66944   3 ;    H7S-   C17-   C16-   C15
 12298  12301  12304  12305      9     0.00   0.66944   3 ;    C16-   C15-   C14-   H4R
 12298  12301  12304  12306      9     0.00   0.66944   3 ;    C16-   C15-   C14-   H4S
 12298  12301  12304  12307      9     0.00   0.41840   1 ;    C16-   C15-   C14-   C13
 12298  12301  12304  12307      9     0.00   0.41840   2 ;    C16-   C15-   C14-   C13
 12298  12301  12304  12307      9     0.00   0.41840   4 ;    C16-   C15-   C14-   C13
 12298  12301  12304  12307      9     0.00   0.41840   5 ;    C16-   C15-   C14-   C13
 12298  12301  12304  12307      9     0.00   1.25520   3 ;    C16-   C15-   C14-   C13
 12299  12298  12301  12302      9     0.00   0.62760   3 ;    H6R-   C16-   C15-   H5R
 12299  12298  12301  12303      9     0.00   0.62760   3 ;    H6R-   C16-   C15-   H5S
 12299  12298  12301  12304      9     0.00   0.66944   3 ;    H6R-   C16-   C15-   C14
 12300  12298  12301  12302      9     0.00   0.62760   3 ;    H6S-   C16-   C15-   H5R
 12300  12298  12301  12303      9     0.00   0.62760   3 ;    H6S-   C16-   C15-   H5S
 12300  12298  12301  12304      9     0.00   0.66944   3 ;    H6S-   C16-   C15-   C14
 12301  12304  12307  12308      9     0.00   0.66944   3 ;    C15-   C14-   C13-   H3R
 12301  12304  12307  12309      9     0.00   0.66944   3 ;    C15-   C14-   C13-   H3S
 12301  12304  12307  12310      9     0.00   0.41840   1 ;    C15-   C14-   C13-   C12
 12301  12304  12307  12310      9     0.00   0.41840   2 ;    C15-   C14-   C13-   C12
 12301  12304  12307  12310      9     0.00   0.41840   4 ;    C15-   C14-   C13-   C12
 12301  12304  12307  12310      9     0.00   0.41840   5 ;    C15-   C14-   C13-   C12
 12301  12304  12307  12310      9     0.00   1.25520   3 ;    C15-   C14-   C13-   C12
 12302  12301  12304  12305      9     0.00   0.62760   3 ;    H5R-   C15-   C14-   H4R
 12302  12301  12304  12306      9     0.00   0.62760   3 ;    H5R-   C15-   C14-   H4S
 12302  12301  12304  12307      9     0.00   0.66944   3 ;    H5R-   C15-   C14-   C13
 12303  12301  12304  12305      9     0.00   0.62760   3 ;    H5S-   C15-   C14-   H4R
 12303  12301  12304  12306      9     0.00   0.62760   3 ;    H5S-   C15-   C14-   H4S
 12303  12301  12304  12307      9     0.00   0.66944   3 ;    H5S-   C15-   C14-   C13
 12304  12307  12310  12311      9     0.00   0.66944   3 ;    C14-   C13-   C12-   H2R
 12304  12307  12310  12312      9     0.00   0.66944   3 ;    C14-   C13-   C12-   H2S
 12304  12307  12310  12313      9     0.00   0.65270   3 ;    C14-   C13-   C12-   C11
 12305  12304  12307  12308      9     0.00   0.62760   3 ;    H4R-   C14-   C13-   H3R
 12305  12304  12307  12309      9     0.00   0.62760   3 ;    H4R-   C14-   C13-   H3S
 12305  12304  12307  12310      9     0.00   0.66944   3 ;    H4R-   C14-   C13-   C12
 12306  12304  12307  12308      9     0.00   0.62760   3 ;    H4S-   C14-   C13-   H3R
 12306  12304  12307  12309      9     0.00   0.62760   3 ;    H4S-   C14-   C13-   H3S
 12306  12304  12307  12310      9     0.00   0.66944   3 ;    H4S-   C14-   C13-   C12
 12307  12310  12313  12314      9   180.00   0.00000   2 ;    C13-   C12-   C11-   O12
 12307  12310  12313  12315      9   180.00   0.00000   2 ;    C13-   C12-   C11-   O11
 12308  12307  12310  12311      9     0.00   0.62760   3 ;    H3R-   C13-   C12-   H2R
 12308  12307  12310  12312      9     0.00   0.62760   3 ;    H3R-   C13-   C12-   H2S
 12308  12307  12310  12313      9     0.00   0.65270   3 ;    H3R-   C13-   C12-   C11
 12309  12307  12310  12311      9     0.00   0.62760   3 ;    H3S-   C13-   C12-   H2R
 12309  12307  12310  12312      9     0.00   0.62760   3 ;    H3S-   C13-   C12-   H2S
 12309  12307  12310  12313      9     0.00   0.65270   3 ;    H3S-   C13-   C12-   C11
 12310  12313  12315  12316      9   180.00  11.29680   2 ;    C12-   C11-   O11-    C1
 12311  12310  12313  12314      9     0.00   3.34720   1 ;    H2R-   C12-   C11-   O12
 12311  12310  12313  12314      9   180.00   0.33472   3 ;    H2R-   C12-   C11-   O12
 12311  12310  12313  12315      9   180.00   0.00000   2 ;    H2R-   C12-   C11-   O11
 12312  12310  12313  12314      9     0.00   3.34720   1 ;    H2S-   C12-   C11-   O12
 12312  12310  12313  12314      9   180.00   0.33472   3 ;    H2S-   C12-   C11-   O12
 12312  12310  12313  12315      9   180.00   0.00000   2 ;    H2S-   C12-   C11-   O11
 12313  12315  12316  12317      9     0.00   1.60247   3 ;    C11-   O11-    C1-    HR
 12313  12315  12316  12318      9     0.00   1.60247   3 ;    C11-   O11-    C1-    HS
 12313  12315  12316  12319      9     0.00  -0.41840   1 ;    C11-   O11-    C1-    C2
 12314  12313  12315  12316      9   180.00   5.85760   1 ;    O12-   C11-   O11-    C1
 12314  12313  12315  12316      9   180.00  11.29680   2 ;    O12-   C11-   O11-    C1
 12315  12316  12319  12320      9     0.00   0.00000   0 ;    O11-    C1-    C2-    HX
 12315  12316  12319  12320      9     0.00   1.04600   1 ;    O11-    C1-    C2-    HX
 12315  12316  12319  12321      9     0.00   0.00000   0 ;    O11-    C1-    C2-    C3
 12315  12316  12319  12321      9     0.00   0.00000   0 ;    O11-    C1-    C2-    C3
 12315  12316  12319  12321      9     0.00   0.00000   0 ;    O11-    C1-    C2-    C3
 12315  12316  12319  12321      9     0.00   0.00000   0 ;    O11-    C1-    C2-    C3
 12315  12316  12319  12321      9     0.00   0.00000   0 ;    O11-    C1-    C2-    C3
 12315  12316  12319  12348      9     0.00   1.25520   2 ;    O11-    C1-    C2-   O21
 12315  12316  12319  12348      9     0.00   4.18400   3 ;    O11-    C1-    C2-   O21
 12315  12316  12319  12348      9   180.00  -0.41840   1 ;    O11-    C1-    C2-   O21
 12316  12319  12321  12322      9     0.00   0.65270   3 ;     C1-    C2-    C3-    HA
 12316  12319  12321  12323      9     0.00   0.65270   3 ;     C1-    C2-    C3-    HB
 12316  12319  12321  12324      9   180.00   3.34720   1 ;     C1-    C2-    C3-   O31
 12316  12319  12348  12349      9     0.00  -0.41840   1 ;     C1-    C2-   O21-   C21
 12317  12316  12319  12320      9     0.00   0.65270   3 ;     HR-    C1-    C2-    HX
 12317  12316  12319  12321      9     0.00   0.65270   3 ;     HR-    C1-    C2-    C3
 12317  12316  12319  12348      9     0.00   0.00000   0 ;     HR-    C1-    C2-   O21
 12317  12316  12319  12348      9     0.00   1.04600   1 ;     HR-    C1-    C2-   O21
 12318  12316  12319  12320      9     0.00   0.65270   3 ;     HS-    C1-    C2-    HX
 12318  12316  12319  12321      9     0.00   0.65270   3 ;     HS-    C1-    C2-    C3
 12318  12316  12319  12348      9     0.00   0.00000   0 ;     HS-    C1-    C2-   O21
 12318  12316  12319  12348      9     0.00   1.04600   1 ;     HS-    C1-    C2-   O21
 12319  12321  12324  12325      9     0.00   0.00000   0 ;     C2-    C3-   O31-   P31
 12319  12321  12324  12325      9   180.00  -3.34720   2 ;     C2-    C3-   O31-   P31
 12319  12348  12349  12350      9   180.00   5.85760   1 ;     C2-   O21-   C21-   O22
 12319  12348  12349  12350      9   180.00  11.29680   2 ;     C2-   O21-   C21-   O22
 12319  12348  12349  12388      9   180.00  11.29680   2 ;     C2-   O21-   C21-   C12
 12320  12319  12321  12322      9     0.00   0.65270   3 ;     HX-    C2-    C3-    HA
 12320  12319  12321  12323      9     0.00   0.65270   3 ;     HX-    C2-    C3-    HB
 12320  12319  12321  12324      9     0.00   0.00000   0 ;     HX-    C2-    C3-   O31
 12320  12319  12321  12324      9     0.00   1.04600   1 ;     HX-    C2-    C3-   O31
 12320  12319  12348  12349      9     0.00   1.60247   3 ;     HX-    C2-   O21-   C21
 12321  12319  12348  12349      9     0.00  -0.41840   1 ;     C3-    C2-   O21-   C21
 12321  12324  12325  12326      9     0.00   2.51040   3 ;     C3-   O31-   P31-   O32
 12321  12324  12325  12326      9     0.00   9.62320   2 ;     C3-   O31-   P31-   O32
 12321  12324  12325  12346      9     0.00   0.00000   0 ;     C3-   O31-   P31-   O33
 12321  12324  12325  12346      9     0.00   0.00000   0 ;     C3-   O31-   P31-   O33
 12321  12324  12325  12346      9     0.00   0.00000   0 ;     C3-   O31-   P31-   O33
 12321  12324  12325  12346      9     0.00   0.00000   0 ;     C3-   O31-   P31-   O33
 12321  12324  12325  12346      9     0.00   0.83680   2 ;     C3-   O31-   P31-   O33
 12321  12324  12325  12347      9     0.00   0.00000   0 ;     C3-   O31-   P31-   O34
 12321  12324  12325  12347      9     0.00   0.00000   0 ;     C3-   O31-   P31-   O34
 12321  12324  12325  12347      9     0.00   0.00000   0 ;     C3-   O31-   P31-   O34
 12321  12324  12325  12347      9     0.00   0.00000   0 ;     C3-   O31-   P31-   O34
 12321  12324  12325  12347      9     0.00   0.83680   2 ;     C3-   O31-   P31-   O34
 12322  12321  12319  12348      9     0.00   0.00000   0 ;     HA-    C3-    C2-   O21
 12322  12321  12319  12348      9     0.00   1.04600   1 ;     HA-    C3-    C2-   O21
 12322  12321  12324  12325      9     0.00   0.00000   0 ;     HA-    C3-   O31-   P31
 12322  12321  12324  12325      9     0.00   0.00000   0 ;     HA-    C3-   O31-   P31
 12322  12321  12324  12325      9     0.00   0.00000   0 ;     HA-    C3-   O31-   P31
 12322  12321  12324  12325      9     0.00   0.00000   0 ;     HA-    C3-   O31-   P31
 12322  12321  12324  12325      9     0.00   1.60247   3 ;     HA-    C3-   O31-   P31
 12323  12321  12319  12348      9     0.00   0.00000   0 ;     HB-    C3-    C2-   O21
 12323  12321  12319  12348      9     0.00   1.04600   1 ;     HB-    C3-    C2-   O21
 12323  12321  12324  12325      9     0.00   0.00000   0 ;     HB-    C3-   O31-   P31
 12323  12321  12324  12325      9     0.00   0.00000   0 ;     HB-    C3-   O31-   P31
 12323  12321  12324  12325      9     0.00   0.00000   0 ;     HB-    C3-   O31-   P31
 12323  12321  12324  12325      9     0.00   0.00000   0 ;     HB-    C3-   O31-   P31
 12323  12321  12324  12325      9     0.00   1.60247   3 ;     HB-    C3-   O31-   P31
 12324  12321  12319  12348      9     0.00   0.00000   0 ;    O31-    C3-    C2-   O21
 12324  12321  12319  12348      9     0.00   0.00000   0 ;    O31-    C3-    C2-   O21
 12324  12321  12319  12348      9     0.00   0.00000   0 ;    O31-    C3-    C2-   O21
 12324  12321  12319  12348      9     0.00   0.00000   0 ;    O31-    C3-    C2-   O21
 12324  12321  12319  12348      9     0.00   0.00000   0 ;    O31-    C3-    C2-   O21
 12324  12325  12326  12327      9     0.00   2.51040   3 ;    O31-   P31-   O32-   C31
 12324  12325  12326  12327      9     0.00   9.62320   2 ;    O31-   P31-   O32-   C31
 12325  12326  12327  12328      9     0.00   0.00000   0 ;    P31-   O32-   C31-   H1A
 12325  12326  12327  12328      9     0.00   0.00000   0 ;    P31-   O32-   C31-   H1A
 12325  12326  12327  12328      9     0.00   0.00000   0 ;    P31-   O32-   C31-   H1A
 12325  12326  12327  12328      9     0.00   0.00000   0 ;    P31-   O32-   C31-   H1A
 12325  12326  12327  12328      9     0.00   1.60247   3 ;    P31-   O32-   C31-   H1A
 12325  12326  12327  12329      9     0.00   0.00000   0 ;    P31-   O32-   C31-   H1B
 12325  12326  12327  12329      9     0.00   0.00000   0 ;    P31-   O32-   C31-   H1B
 12325  12326  12327  12329      9     0.00   0.00000   0 ;    P31-   O32-   C31-   H1B
 12325  12326  12327  12329      9     0.00   0.00000   0 ;    P31-   O32-   C31-   H1B
 12325  12326  12327  12329      9     0.00   1.60247   3 ;    P31-   O32-   C31-   H1B
 12325  12326  12327  12330      9     0.00   0.00000   0 ;    P31-   O32-   C31-   C32
 12325  12326  12327  12330      9   180.00  -3.34720   2 ;    P31-   O32-   C31-   C32
 12326  12327  12330  12331      9     0.00   0.65270   3 ;    O32-   C31-   C32-   H2A
 12326  12327  12330  12332      9     0.00   0.65270   3 ;    O32-   C31-   C32-   H2B
 12326  12327  12330  12333      9     0.00   4.18400   3 ;    O32-   C31-   C32-   N31
 12327  12326  12325  12346      9     0.00   0.00000   0 ;    C31-   O32-   P31-   O33
 12327  12326  12325  12346      9     0.00   0.00000   0 ;    C31-   O32-   P31-   O33
 12327  12326  12325  12346      9     0.00   0.00000   0 ;    C31-   O32-   P31-   O33
 12327  12326  12325  12346      9     0.00   0.00000   0 ;    C31-   O32-   P31-   O33
 12327  12326  12325  12346      9     0.00   0.83680   2 ;    C31-   O32-   P31-   O33
 12327  12326  12325  12347      9     0.00   0.00000   0 ;    C31-   O32-   P31-   O34
 12327  12326  12325  12347      9     0.00   0.00000   0 ;    C31-   O32-   P31-   O34
 12327  12326  12325  12347      9     0.00   0.00000   0 ;    C31-   O32-   P31-   O34
 12327  12326  12325  12347      9     0.00   0.00000   0 ;    C31-   O32-   P31-   O34
 12327  12326  12325  12347      9     0.00   0.83680   2 ;    C31-   O32-   P31-   O34
 12327  12330  12333  12334      9     0.00   0.65270   3 ;    C31-   C32-   N31-   C33
 12327  12330  12333  12338      9     0.00   0.65270   3 ;    C31-   C32-   N31-   C34
 12327  12330  12333  12342      9     0.00   0.65270   3 ;    C31-   C32-   N31-   C35
 12328  12327  12330  12331      9     0.00   0.65270   3 ;    H1A-   C31-   C32-   H2A
 12328  12327  12330  12332      9     0.00   0.65270   3 ;    H1A-   C31-   C32-   H2B
 12328  12327  12330  12333      9     0.00   0.65270   3 ;    H1A-   C31-   C32-   N31
 12329  12327  12330  12331      9     0.00   0.65270   3 ;    H1B-   C31-   C32-   H2A
 12329  12327  12330  12332      9     0.00   0.65270   3 ;    H1B-   C31-   C32-   H2B
 12329  12327  12330  12333      9     0.00   0.65270   3 ;    H1B-   C31-   C32-   N31
 12330  12333  12334  12335      9     0.00   0.65270   3 ;    C32-   N31-   C33-   H3A
 12330  12333  12334  12336      9     0.00   0.65270   3 ;    C32-   N31-   C33-   H3B
 12330  12333  12334  12337      9     0.00   0.65270   3 ;    C32-   N31-   C33-   H3C
 12330  12333  12338  12339      9     0.00   0.65270   3 ;    C32-   N31-   C34-   H4A
 12330  12333  12338  12340      9     0.00   0.65270   3 ;    C32-   N31-   C34-   H4B
 12330  12333  12338  12341      9     0.00   0.65270   3 ;    C32-   N31-   C34-   H4C
 12330  12333  12342  12343      9     0.00   0.65270   3 ;    C32-   N31-   C35-   H5A
 12330  12333  12342  12344      9     0.00   0.65270   3 ;    C32-   N31-   C35-   H5B
 12330  12333  12342  12345      9     0.00   0.65270   3 ;    C32-   N31-   C35-   H5C
 12331  12330  12333  12334      9     0.00   0.65270   3 ;    H2A-   C32-   N31-   C33
 12331  12330  12333  12338      9     0.00   0.65270   3 ;    H2A-   C32-   N31-   C34
 12331  12330  12333  12342      9     0.00   0.65270   3 ;    H2A-   C32-   N31-   C35
 12332  12330  12333  12334      9     0.00   0.65270   3 ;    H2B-   C32-   N31-   C33
 12332  12330  12333  12338      9     0.00   0.65270   3 ;    H2B-   C32-   N31-   C34
 12332  12330  12333  12342      9     0.00   0.65270   3 ;    H2B-   C32-   N31-   C35
 12334  12333  12338  12339      9     0.00   0.65270   3 ;    C33-   N31-   C34-   H4A
 12334  12333  12338  12340      9     0.00   0.65270   3 ;    C33-   N31-   C34-   H4B
 12334  12333  12338  12341      9     0.00   0.65270   3 ;    C33-   N31-   C34-   H4C
 12334  12333  12342  12343      9     0.00   0.65270   3 ;    C33-   N31-   C35-   H5A
 12334  12333  12342  12344      9     0.00   0.65270   3 ;    C33-   N31-   C35-   H5B
 12334  12333  12342  12345      9     0.00   0.65270   3 ;    C33-   N31-   C35-   H5C
 12335  12334  12333  12338      9     0.00   0.65270   3 ;    H3A-   C33-   N31-   C34
 12335  12334  12333  12342      9     0.00   0.65270   3 ;    H3A-   C33-   N31-   C35
 12336  12334  12333  12338      9     0.00   0.65270   3 ;    H3B-   C33-   N31-   C34
 12336  12334  12333  12342      9     0.00   0.65270   3 ;    H3B-   C33-   N31-   C35
 12337  12334  12333  12338      9     0.00   0.65270   3 ;    H3C-   C33-   N31-   C34
 12337  12334  12333  12342      9     0.00   0.65270   3 ;    H3C-   C33-   N31-   C35
 12338  12333  12342  12343      9     0.00   0.65270   3 ;    C34-   N31-   C35-   H5A
 12338  12333  12342  12344      9     0.00   0.65270   3 ;    C34-   N31-   C35-   H5B
 12338  12333  12342  12345      9     0.00   0.65270   3 ;    C34-   N31-   C35-   H5C
 12339  12338  12333  12342      9     0.00   0.65270   3 ;    H4A-   C34-   N31-   C35
 12340  12338  12333  12342      9     0.00   0.65270   3 ;    H4B-   C34-   N31-   C35
 12341  12338  12333  12342      9     0.00   0.65270   3 ;    H4C-   C34-   N31-   C35
 12348  12349  12388  12385      9   180.00   0.00000   2 ;    O21-   C21-   C12-   C13
 12348  12349  12388  12389      9   180.00   0.00000   2 ;    O21-   C21-   C12-   H2R
 12348  12349  12388  12390      9   180.00   0.00000   2 ;    O21-   C21-   C12-   H2S
 12349  12388  12385  12382      9     0.00   0.65270   3 ;    C21-   C12-   C13-   C14
 12349  12388  12385  12386      9     0.00   0.65270   3 ;    C21-   C12-   C13-   H3R
 12349  12388  12385  12387      9     0.00   0.65270   3 ;    C21-   C12-   C13-   H3S
 12350  12349  12388  12385      9   180.00   0.00000   2 ;    O22-   C21-   C12-   C13
 12350  12349  12388  12389      9     0.00   3.34720   1 ;    O22-   C21-   C12-   H2R
 12350  12349  12388  12389      9   180.00   0.33472   3 ;    O22-   C21-   C12-   H2R
 12350  12349  12388  12390      9     0.00   3.34720   1 ;    O22-   C21-   C12-   H2S
 12350  12349  12388  12390      9   180.00   0.33472   3 ;    O22-   C21-   C12-   H2S
 12351  12352  12355  12356      9     0.00   0.62760   3 ;   H14T-  C114-  C113-  H13R
 12351  12352  12355  12357      9     0.00   0.62760   3 ;   H14T-  C114-  C113-  H13S
 12351  12352  12355  12358      9     0.00   0.66944   3 ;   H14T-  C114-  C113-  C112
 12352  12355  12358  12359      9     0.00   0.66944   3 ;   C114-  C113-  C112-  H12R
 12352  12355  12358  12360      9     0.00   0.66944   3 ;   C114-  C113-  C112-  H12S
 12352  12355  12358  12361      9     0.00   0.41840   1 ;   C114-  C113-  C112-  C111
 12352  12355  12358  12361      9     0.00   0.41840   2 ;   C114-  C113-  C112-  C111
 12352  12355  12358  12361      9     0.00   0.41840   4 ;   C114-  C113-  C112-  C111
 12352  12355  12358  12361      9     0.00   0.41840   5 ;   C114-  C113-  C112-  C111
 12352  12355  12358  12361      9     0.00   1.25520   3 ;   C114-  C113-  C112-  C111
 12353  12352  12355  12356      9     0.00   0.62760   3 ;   H14R-  C114-  C113-  H13R
 12353  12352  12355  12357      9     0.00   0.62760   3 ;   H14R-  C114-  C113-  H13S
 12353  12352  12355  12358      9     0.00   0.66944   3 ;   H14R-  C114-  C113-  C112
 12354  12352  12355  12356      9     0.00   0.62760   3 ;   H14S-  C114-  C113-  H13R
 12354  12352  12355  12357      9     0.00   0.62760   3 ;   H14S-  C114-  C113-  H13S
 12354  12352  12355  12358      9     0.00   0.66944   3 ;   H14S-  C114-  C113-  C112
 12355  12358  12361  12362      9     0.00   0.66944   3 ;   C113-  C112-  C111-  H11R
 12355  12358  12361  12363      9     0.00   0.66944   3 ;   C113-  C112-  C111-  H11S
 12355  12358  12361  12364      9     0.00   0.41840   1 ;   C113-  C112-  C111-  C110
 12355  12358  12361  12364      9     0.00   0.41840   2 ;   C113-  C112-  C111-  C110
 12355  12358  12361  12364      9     0.00   0.41840   4 ;   C113-  C112-  C111-  C110
 12355  12358  12361  12364      9     0.00   0.41840   5 ;   C113-  C112-  C111-  C110
 12355  12358  12361  12364      9     0.00   1.25520   3 ;   C113-  C112-  C111-  C110
 12356  12355  12358  12359      9     0.00   0.62760   3 ;   H13R-  C113-  C112-  H12R
 12356  12355  12358  12360      9     0.00   0.62760   3 ;   H13R-  C113-  C112-  H12S
 12356  12355  12358  12361      9     0.00   0.66944   3 ;   H13R-  C113-  C112-  C111
 12357  12355  12358  12359      9     0.00   0.62760   3 ;   H13S-  C113-  C112-  H12R
 12357  12355  12358  12360      9     0.00   0.62760   3 ;   H13S-  C113-  C112-  H12S
 12357  12355  12358  12361      9     0.00   0.66944   3 ;   H13S-  C113-  C112-  C111
 12358  12361  12364  12365      9     0.00   0.66944   3 ;   C112-  C111-  C110-  H10R
 12358  12361  12364  12366      9     0.00   0.66944   3 ;   C112-  C111-  C110-  H10S
 12358  12361  12364  12367      9     0.00   0.41840   1 ;   C112-  C111-  C110-   C19
 12358  12361  12364  12367      9     0.00   0.41840   2 ;   C112-  C111-  C110-   C19
 12358  12361  12364  12367      9     0.00   0.41840   4 ;   C112-  C111-  C110-   C19
 12358  12361  12364  12367      9     0.00   0.41840   5 ;   C112-  C111-  C110-   C19
 12358  12361  12364  12367      9     0.00   1.25520   3 ;   C112-  C111-  C110-   C19
 12359  12358  12361  12362      9     0.00   0.62760   3 ;   H12R-  C112-  C111-  H11R
 12359  12358  12361  12363      9     0.00   0.62760   3 ;   H12R-  C112-  C111-  H11S
 12359  12358  12361  12364      9     0.00   0.66944   3 ;   H12R-  C112-  C111-  C110
 12360  12358  12361  12362      9     0.00   0.62760   3 ;   H12S-  C112-  C111-  H11R
 12360  12358  12361  12363      9     0.00   0.62760   3 ;   H12S-  C112-  C111-  H11S
 12360  12358  12361  12364      9     0.00   0.66944   3 ;   H12S-  C112-  C111-  C110
 12361  12364  12367  12368      9     0.00   0.66944   3 ;   C111-  C110-   C19-   H9R
 12361  12364  12367  12369      9     0.00   0.66944   3 ;   C111-  C110-   C19-   H9S
 12361  12364  12367  12370      9     0.00   0.41840   1 ;   C111-  C110-   C19-   C18
 12361  12364  12367  12370      9     0.00   0.41840   2 ;   C111-  C110-   C19-   C18
 12361  12364  12367  12370      9     0.00   0.41840   4 ;   C111-  C110-   C19-   C18
 12361  12364  12367  12370      9     0.00   0.41840   5 ;   C111-  C110-   C19-   C18
 12361  12364  12367  12370      9     0.00   1.25520   3 ;   C111-  C110-   C19-   C18
 12362  12361  12364  12365      9     0.00   0.62760   3 ;   H11R-  C111-  C110-  H10R
 12362  12361  12364  12366      9     0.00   0.62760   3 ;   H11R-  C111-  C110-  H10S
 12362  12361  12364  12367      9     0.00   0.66944   3 ;   H11R-  C111-  C110-   C19
 12363  12361  12364  12365      9     0.00   0.62760   3 ;   H11S-  C111-  C110-  H10R
 12363  12361  12364  12366      9     0.00   0.62760   3 ;   H11S-  C111-  C110-  H10S
 12363  12361  12364  12367      9     0.00   0.66944   3 ;   H11S-  C111-  C110-   C19
 12364  12367  12370  12371      9     0.00   0.66944   3 ;   C110-   C19-   C18-   H8R
 12364  12367  12370  12372      9     0.00   0.66944   3 ;   C110-   C19-   C18-   H8S
 12364  12367  12370  12373      9     0.00   0.41840   1 ;   C110-   C19-   C18-   C17
 12364  12367  12370  12373      9     0.00   0.41840   2 ;   C110-   C19-   C18-   C17
 12364  12367  12370  12373      9     0.00   0.41840   4 ;   C110-   C19-   C18-   C17
 12364  12367  12370  12373      9     0.00   0.41840   5 ;   C110-   C19-   C18-   C17
 12364  12367  12370  12373      9     0.00   1.25520   3 ;   C110-   C19-   C18-   C17
 12365  12364  12367  12368      9     0.00   0.62760   3 ;   H10R-  C110-   C19-   H9R
 12365  12364  12367  12369      9     0.00   0.62760   3 ;   H10R-  C110-   C19-   H9S
 12365  12364  12367  12370      9     0.00   0.66944   3 ;   H10R-  C110-   C19-   C18
 12366  12364  12367  12368      9     0.00   0.62760   3 ;   H10S-  C110-   C19-   H9R
 12366  12364  12367  12369      9     0.00   0.62760   3 ;   H10S-  C110-   C19-   H9S
 12366  12364  12367  12370      9     0.00   0.66944   3 ;   H10S-  C110-   C19-   C18
 12367  12370  12373  12374      9     0.00   0.66944   3 ;    C19-   C18-   C17-   H7R
 12367  12370  12373  12375      9     0.00   0.66944   3 ;    C19-   C18-   C17-   H7S
 12367  12370  12373  12376      9     0.00   0.41840   1 ;    C19-   C18-   C17-   C16
 12367  12370  12373  12376      9     0.00   0.41840   2 ;    C19-   C18-   C17-   C16
 12367  12370  12373  12376      9     0.00   0.41840   4 ;    C19-   C18-   C17-   C16
 12367  12370  12373  12376      9     0.00   0.41840   5 ;    C19-   C18-   C17-   C16
 12367  12370  12373  12376      9     0.00   1.25520   3 ;    C19-   C18-   C17-   C16
 12368  12367  12370  12371      9     0.00   0.62760   3 ;    H9R-   C19-   C18-   H8R
 12368  12367  12370  12372      9     0.00   0.62760   3 ;    H9R-   C19-   C18-   H8S
 12368  12367  12370  12373      9     0.00   0.66944   3 ;    H9R-   C19-   C18-   C17
 12369  12367  12370  12371      9     0.00   0.62760   3 ;    H9S-   C19-   C18-   H8R
 12369  12367  12370  12372      9     0.00   0.62760   3 ;    H9S-   C19-   C18-   H8S
 12369  12367  12370  12373      9     0.00   0.66944   3 ;    H9S-   C19-   C18-   C17
 12370  12373  12376  12377      9     0.00   0.66944   3 ;    C18-   C17-   C16-   H6R
 12370  12373  12376  12378      9     0.00   0.66944   3 ;    C18-   C17-   C16-   H6S
 12370  12373  12376  12379      9     0.00   0.41840   1 ;    C18-   C17-   C16-   C15
 12370  12373  12376  12379      9     0.00   0.41840   2 ;    C18-   C17-   C16-   C15
 12370  12373  12376  12379      9     0.00   0.41840   4 ;    C18-   C17-   C16-   C15
 12370  12373  12376  12379      9     0.00   0.41840   5 ;    C18-   C17-   C16-   C15
 12370  12373  12376  12379      9     0.00   1.25520   3 ;    C18-   C17-   C16-   C15
 12371  12370  12373  12374      9     0.00   0.62760   3 ;    H8R-   C18-   C17-   H7R
 12371  12370  12373  12375      9     0.00   0.62760   3 ;    H8R-   C18-   C17-   H7S
 12371  12370  12373  12376      9     0.00   0.66944   3 ;    H8R-   C18-   C17-   C16
 12372  12370  12373  12374      9     0.00   0.62760   3 ;    H8S-   C18-   C17-   H7R
 12372  12370  12373  12375      9     0.00   0.62760   3 ;    H8S-   C18-   C17-   H7S
 12372  12370  12373  12376      9     0.00   0.66944   3 ;    H8S-   C18-   C17-   C16
 12373  12376  12379  12380      9     0.00   0.66944   3 ;    C17-   C16-   C15-   H5R
 12373  12376  12379  12381      9     0.00   0.66944   3 ;    C17-   C16-   C15-   H5S
 12373  12376  12379  12382      9     0.00   0.41840   1 ;    C17-   C16-   C15-   C14
 12373  12376  12379  12382      9     0.00   0.41840   2 ;    C17-   C16-   C15-   C14
 12373  12376  12379  12382      9     0.00   0.41840   4 ;    C17-   C16-   C15-   C14
 12373  12376  12379  12382      9     0.00   0.41840   5 ;    C17-   C16-   C15-   C14
 12373  12376  12379  12382      9     0.00   1.25520   3 ;    C17-   C16-   C15-   C14
 12374  12373  12376  12377      9     0.00   0.62760   3 ;    H7R-   C17-   C16-   H6R
 12374  12373  12376  12378      9     0.00   0.62760   3 ;    H7R-   C17-   C16-   H6S
 12374  12373  12376  12379      9     0.00   0.66944   3 ;    H7R-   C17-   C16-   C15
 12375  12373  12376  12377      9     0.00   0.62760   3 ;    H7S-   C17-   C16-   H6R
 12375  12373  12376  12378      9     0.00   0.62760   3 ;    H7S-   C17-   C16-   H6S
 12375  12373  12376  12379      9     0.00   0.66944   3 ;    H7S-   C17-   C16-   C15
 12376  12379  12382  12383      9     0.00   0.66944   3 ;    C16-   C15-   C14-   H4R
 12376  12379  12382  12384      9     0.00   0.66944   3 ;    C16-   C15-   C14-   H4S
 12376  12379  12382  12385      9     0.00   0.41840   1 ;    C16-   C15-   C14-   C13
 12376  12379  12382  12385      9     0.00   0.41840   2 ;    C16-   C15-   C14-   C13
 12376  12379  12382  12385      9     0.00   0.41840   4 ;    C16-   C15-   C14-   C13
 12376  12379  12382  12385      9     0.00   0.41840   5 ;    C16-   C15-   C14-   C13
 12376  12379  12382  12385      9     0.00   1.25520   3 ;    C16-   C15-   C14-   C13
 12377  12376  12379  12380      9     0.00   0.62760   3 ;    H6R-   C16-   C15-   H5R
 12377  12376  12379  12381      9     0.00   0.62760   3 ;    H6R-   C16-   C15-   H5S
 12377  12376  12379  12382      9     0.00   0.66944   3 ;    H6R-   C16-   C15-   C14
 12378  12376  12379  12380      9     0.00   0.62760   3 ;    H6S-   C16-   C15-   H5R
 12378  12376  12379  12381      9     0.00   0.62760   3 ;    H6S-   C16-   C15-   H5S
 12378  12376  12379  12382      9     0.00   0.66944   3 ;    H6S-   C16-   C15-   C14
 12379  12382  12385  12386      9     0.00   0.66944   3 ;    C15-   C14-   C13-   H3R
 12379  12382  12385  12387      9     0.00   0.66944   3 ;    C15-   C14-   C13-   H3S
 12379  12382  12385  12388      9     0.00   0.41840   1 ;    C15-   C14-   C13-   C12
 12379  12382  12385  12388      9     0.00   0.41840   2 ;    C15-   C14-   C13-   C12
 12379  12382  12385  12388      9     0.00   0.41840   4 ;    C15-   C14-   C13-   C12
 12379  12382  12385  12388      9     0.00   0.41840   5 ;    C15-   C14-   C13-   C12
 12379  12382  12385  12388      9     0.00   1.25520   3 ;    C15-   C14-   C13-   C12
 12380  12379  12382  12383      9     0.00   0.62760   3 ;    H5R-   C15-   C14-   H4R
 12380  12379  12382  12384      9     0.00   0.62760   3 ;    H5R-   C15-   C14-   H4S
 12380  12379  12382  12385      9     0.00   0.66944   3 ;    H5R-   C15-   C14-   C13
 12381  12379  12382  12383      9     0.00   0.62760   3 ;    H5S-   C15-   C14-   H4R
 12381  12379  12382  12384      9     0.00   0.62760   3 ;    H5S-   C15-   C14-   H4S
 12381  12379  12382  12385      9     0.00   0.66944   3 ;    H5S-   C15-   C14-   C13
 12382  12385  12388  12389      9     0.00   0.66944   3 ;    C14-   C13-   C12-   H2R
 12382  12385  12388  12390      9     0.00   0.66944   3 ;    C14-   C13-   C12-   H2S
 12383  12382  12385  12386      9     0.00   0.62760   3 ;    H4R-   C14-   C13-   H3R
 12383  12382  12385  12387      9     0.00   0.62760   3 ;    H4R-   C14-   C13-   H3S
 12383  12382  12385  12388      9     0.00   0.66944   3 ;    H4R-   C14-   C13-   C12
 12384  12382  12385  12386      9     0.00   0.62760   3 ;    H4S-   C14-   C13-   H3R
 12384  12382  12385  12387      9     0.00   0.62760   3 ;    H4S-   C14-   C13-   H3S
 12384  12382  12385  12388      9     0.00   0.66944   3 ;    H4S-   C14-   C13-   C12
 12386  12385  12388  12389      9     0.00   0.62760   3 ;    H3R-   C13-   C12-   H2R
 12386  12385  12388  12390      9     0.00   0.62760   3 ;    H3R-   C13-   C12-   H2S
 12387  12385  12388  12389      9     0.00   0.62760   3 ;    H3S-   C13-   C12-   H2R
 12387  12385  12388  12390      9     0.00   0.62760   3 ;    H3S-   C13-   C12-   H2S
 12391  12392  12395  12396      9     0.00   0.62760   3 ;   H14T-  C114-  C113-  H13R
 12391  12392  12395  12397      9     0.00   0.62760   3 ;   H14T-  C114-  C113-  H13S
 12391  12392  12395  12398      9     0.00   0.66944   3 ;   H14T-  C114-  C113-  C112
 12392  12395  12398  12399      9     0.00   0.66944   3 ;   C114-  C113-  C112-  H12R
 12392  12395  12398  12400      9     0.00   0.66944   3 ;   C114-  C113-  C112-  H12S
 12392  12395  12398  12401      9     0.00   0.41840   1 ;   C114-  C113-  C112-  C111
 12392  12395  12398  12401      9     0.00   0.41840   2 ;   C114-  C113-  C112-  C111
 12392  12395  12398  12401      9     0.00   0.41840   4 ;   C114-  C113-  C112-  C111
 12392  12395  12398  12401      9     0.00   0.41840   5 ;   C114-  C113-  C112-  C111
 12392  12395  12398  12401      9     0.00   1.25520   3 ;   C114-  C113-  C112-  C111
 12393  12392  12395  12396      9     0.00   0.62760   3 ;   H14R-  C114-  C113-  H13R
 12393  12392  12395  12397      9     0.00   0.62760   3 ;   H14R-  C114-  C113-  H13S
 12393  12392  12395  12398      9     0.00   0.66944   3 ;   H14R-  C114-  C113-  C112
 12394  12392  12395  12396      9     0.00   0.62760   3 ;   H14S-  C114-  C113-  H13R
 12394  12392  12395  12397      9     0.00   0.62760   3 ;   H14S-  C114-  C113-  H13S
 12394  12392  12395  12398      9     0.00   0.66944   3 ;   H14S-  C114-  C113-  C112
 12395  12398  12401  12402      9     0.00   0.66944   3 ;   C113-  C112-  C111-  H11R
 12395  12398  12401  12403      9     0.00   0.66944   3 ;   C113-  C112-  C111-  H11S
 12395  12398  12401  12404      9     0.00   0.41840   1 ;   C113-  C112-  C111-  C110
 12395  12398  12401  12404      9     0.00   0.41840   2 ;   C113-  C112-  C111-  C110
 12395  12398  12401  12404      9     0.00   0.41840   4 ;   C113-  C112-  C111-  C110
 12395  12398  12401  12404      9     0.00   0.41840   5 ;   C113-  C112-  C111-  C110
 12395  12398  12401  12404      9     0.00   1.25520   3 ;   C113-  C112-  C111-  C110
 12396  12395  12398  12399      9     0.00   0.62760   3 ;   H13R-  C113-  C112-  H12R
 12396  12395  12398  12400      9     0.00   0.62760   3 ;   H13R-  C113-  C112-  H12S
 12396  12395  12398  12401      9     0.00   0.66944   3 ;   H13R-  C113-  C112-  C111
 12397  12395  12398  12399      9     0.00   0.62760   3 ;   H13S-  C113-  C112-  H12R
 12397  12395  12398  12400      9     0.00   0.62760   3 ;   H13S-  C113-  C112-  H12S
 12397  12395  12398  12401      9     0.00   0.66944   3 ;   H13S-  C113-  C112-  C111
 12398  12401  12404  12405      9     0.00   0.66944   3 ;   C112-  C111-  C110-  H10R
 12398  12401  12404  12406      9     0.00   0.66944   3 ;   C112-  C111-  C110-  H10S
 12398  12401  12404  12407      9     0.00   0.41840   1 ;   C112-  C111-  C110-   C19
 12398  12401  12404  12407      9     0.00   0.41840   2 ;   C112-  C111-  C110-   C19
 12398  12401  12404  12407      9     0.00   0.41840   4 ;   C112-  C111-  C110-   C19
 12398  12401  12404  12407      9     0.00   0.41840   5 ;   C112-  C111-  C110-   C19
 12398  12401  12404  12407      9     0.00   1.25520   3 ;   C112-  C111-  C110-   C19
 12399  12398  12401  12402      9     0.00   0.62760   3 ;   H12R-  C112-  C111-  H11R
 12399  12398  12401  12403      9     0.00   0.62760   3 ;   H12R-  C112-  C111-  H11S
 12399  12398  12401  12404      9     0.00   0.66944   3 ;   H12R-  C112-  C111-  C110
 12400  12398  12401  12402      9     0.00   0.62760   3 ;   H12S-  C112-  C111-  H11R
 12400  12398  12401  12403      9     0.00   0.62760   3 ;   H12S-  C112-  C111-  H11S
 12400  12398  12401  12404      9     0.00   0.66944   3 ;   H12S-  C112-  C111-  C110
 12401  12404  12407  12408      9     0.00   0.66944   3 ;   C111-  C110-   C19-   H9R
 12401  12404  12407  12409      9     0.00   0.66944   3 ;   C111-  C110-   C19-   H9S
 12401  12404  12407  12410      9     0.00   0.41840   1 ;   C111-  C110-   C19-   C18
 12401  12404  12407  12410      9     0.00   0.41840   2 ;   C111-  C110-   C19-   C18
 12401  12404  12407  12410      9     0.00   0.41840   4 ;   C111-  C110-   C19-   C18
 12401  12404  12407  12410      9     0.00   0.41840   5 ;   C111-  C110-   C19-   C18
 12401  12404  12407  12410      9     0.00   1.25520   3 ;   C111-  C110-   C19-   C18
 12402  12401  12404  12405      9     0.00   0.62760   3 ;   H11R-  C111-  C110-  H10R
 12402  12401  12404  12406      9     0.00   0.62760   3 ;   H11R-  C111-  C110-  H10S
 12402  12401  12404  12407      9     0.00   0.66944   3 ;   H11R-  C111-  C110-   C19
 12403  12401  12404  12405      9     0.00   0.62760   3 ;   H11S-  C111-  C110-  H10R
 12403  12401  12404  12406      9     0.00   0.62760   3 ;   H11S-  C111-  C110-  H10S
 12403  12401  12404  12407      9     0.00   0.66944   3 ;   H11S-  C111-  C110-   C19
 12404  12407  12410  12411      9     0.00   0.66944   3 ;   C110-   C19-   C18-   H8R
 12404  12407  12410  12412      9     0.00   0.66944   3 ;   C110-   C19-   C18-   H8S
 12404  12407  12410  12413      9     0.00   0.41840   1 ;   C110-   C19-   C18-   C17
 12404  12407  12410  12413      9     0.00   0.41840   2 ;   C110-   C19-   C18-   C17
 12404  12407  12410  12413      9     0.00   0.41840   4 ;   C110-   C19-   C18-   C17
 12404  12407  12410  12413      9     0.00   0.41840   5 ;   C110-   C19-   C18-   C17
 12404  12407  12410  12413      9     0.00   1.25520   3 ;   C110-   C19-   C18-   C17
 12405  12404  12407  12408      9     0.00   0.62760   3 ;   H10R-  C110-   C19-   H9R
 12405  12404  12407  12409      9     0.00   0.62760   3 ;   H10R-  C110-   C19-   H9S
 12405  12404  12407  12410      9     0.00   0.66944   3 ;   H10R-  C110-   C19-   C18
 12406  12404  12407  12408      9     0.00   0.62760   3 ;   H10S-  C110-   C19-   H9R
 12406  12404  12407  12409      9     0.00   0.62760   3 ;   H10S-  C110-   C19-   H9S
 12406  12404  12407  12410      9     0.00   0.66944   3 ;   H10S-  C110-   C19-   C18
 12407  12410  12413  12414      9     0.00   0.66944   3 ;    C19-   C18-   C17-   H7R
 12407  12410  12413  12415      9     0.00   0.66944   3 ;    C19-   C18-   C17-   H7S
 12407  12410  12413  12416      9     0.00   0.41840   1 ;    C19-   C18-   C17-   C16
 12407  12410  12413  12416      9     0.00   0.41840   2 ;    C19-   C18-   C17-   C16
 12407  12410  12413  12416      9     0.00   0.41840   4 ;    C19-   C18-   C17-   C16
 12407  12410  12413  12416      9     0.00   0.41840   5 ;    C19-   C18-   C17-   C16
 12407  12410  12413  12416      9     0.00   1.25520   3 ;    C19-   C18-   C17-   C16
 12408  12407  12410  12411      9     0.00   0.62760   3 ;    H9R-   C19-   C18-   H8R
 12408  12407  12410  12412      9     0.00   0.62760   3 ;    H9R-   C19-   C18-   H8S
 12408  12407  12410  12413      9     0.00   0.66944   3 ;    H9R-   C19-   C18-   C17
 12409  12407  12410  12411      9     0.00   0.62760   3 ;    H9S-   C19-   C18-   H8R
 12409  12407  12410  12412      9     0.00   0.62760   3 ;    H9S-   C19-   C18-   H8S
 12409  12407  12410  12413      9     0.00   0.66944   3 ;    H9S-   C19-   C18-   C17
 12410  12413  12416  12417      9     0.00   0.66944   3 ;    C18-   C17-   C16-   H6R
 12410  12413  12416  12418      9     0.00   0.66944   3 ;    C18-   C17-   C16-   H6S
 12410  12413  12416  12419      9     0.00   0.41840   1 ;    C18-   C17-   C16-   C15
 12410  12413  12416  12419      9     0.00   0.41840   2 ;    C18-   C17-   C16-   C15
 12410  12413  12416  12419      9     0.00   0.41840   4 ;    C18-   C17-   C16-   C15
 12410  12413  12416  12419      9     0.00   0.41840   5 ;    C18-   C17-   C16-   C15
 12410  12413  12416  12419      9     0.00   1.25520   3 ;    C18-   C17-   C16-   C15
 12411  12410  12413  12414      9     0.00   0.62760   3 ;    H8R-   C18-   C17-   H7R
 12411  12410  12413  12415      9     0.00   0.62760   3 ;    H8R-   C18-   C17-   H7S
 12411  12410  12413  12416      9     0.00   0.66944   3 ;    H8R-   C18-   C17-   C16
 12412  12410  12413  12414      9     0.00   0.62760   3 ;    H8S-   C18-   C17-   H7R
 12412  12410  12413  12415      9     0.00   0.62760   3 ;    H8S-   C18-   C17-   H7S
 12412  12410  12413  12416      9     0.00   0.66944   3 ;    H8S-   C18-   C17-   C16
 12413  12416  12419  12420      9     0.00   0.66944   3 ;    C17-   C16-   C15-   H5R
 12413  12416  12419  12421      9     0.00   0.66944   3 ;    C17-   C16-   C15-   H5S
 12413  12416  12419  12422      9     0.00   0.41840   1 ;    C17-   C16-   C15-   C14
 12413  12416  12419  12422      9     0.00   0.41840   2 ;    C17-   C16-   C15-   C14
 12413  12416  12419  12422      9     0.00   0.41840   4 ;    C17-   C16-   C15-   C14
 12413  12416  12419  12422      9     0.00   0.41840   5 ;    C17-   C16-   C15-   C14
 12413  12416  12419  12422      9     0.00   1.25520   3 ;    C17-   C16-   C15-   C14
 12414  12413  12416  12417      9     0.00   0.62760   3 ;    H7R-   C17-   C16-   H6R
 12414  12413  12416  12418      9     0.00   0.62760   3 ;    H7R-   C17-   C16-   H6S
 12414  12413  12416  12419      9     0.00   0.66944   3 ;    H7R-   C17-   C16-   C15
 12415  12413  12416  12417      9     0.00   0.62760   3 ;    H7S-   C17-   C16-   H6R
 12415  12413  12416  12418      9     0.00   0.62760   3 ;    H7S-   C17-   C16-   H6S
 12415  12413  12416  12419      9     0.00   0.66944   3 ;    H7S-   C17-   C16-   C15
 12416  12419  12422  12423      9     0.00   0.66944   3 ;    C16-   C15-   C14-   H4R
 12416  12419  12422  12424      9     0.00   0.66944   3 ;    C16-   C15-   C14-   H4S
 12416  12419  12422  12425      9     0.00   0.41840   1 ;    C16-   C15-   C14-   C13
 12416  12419  12422  12425      9     0.00   0.41840   2 ;    C16-   C15-   C14-   C13
 12416  12419  12422  12425      9     0.00   0.41840   4 ;    C16-   C15-   C14-   C13
 12416  12419  12422  12425      9     0.00   0.41840   5 ;    C16-   C15-   C14-   C13
 12416  12419  12422  12425      9     0.00   1.25520   3 ;    C16-   C15-   C14-   C13
 12417  12416  12419  12420      9     0.00   0.62760   3 ;    H6R-   C16-   C15-   H5R
 12417  12416  12419  12421      9     0.00   0.62760   3 ;    H6R-   C16-   C15-   H5S
 12417  12416  12419  12422      9     0.00   0.66944   3 ;    H6R-   C16-   C15-   C14
 12418  12416  12419  12420      9     0.00   0.62760   3 ;    H6S-   C16-   C15-   H5R
 12418  12416  12419  12421      9     0.00   0.62760   3 ;    H6S-   C16-   C15-   H5S
 12418  12416  12419  12422      9     0.00   0.66944   3 ;    H6S-   C16-   C15-   C14
 12419  12422  12425  12426      9     0.00   0.66944   3 ;    C15-   C14-   C13-   H3R
 12419  12422  12425  12427      9     0.00   0.66944   3 ;    C15-   C14-   C13-   H3S
 12419  12422  12425  12428      9     0.00   0.41840   1 ;    C15-   C14-   C13-   C12
 12419  12422  12425  12428      9     0.00   0.41840   2 ;    C15-   C14-   C13-   C12
 12419  12422  12425  12428      9     0.00   0.41840   4 ;    C15-   C14-   C13-   C12
 12419  12422  12425  12428      9     0.00   0.41840   5 ;    C15-   C14-   C13-   C12
 12419  12422  12425  12428      9     0.00   1.25520   3 ;    C15-   C14-   C13-   C12
 12420  12419  12422  12423      9     0.00   0.62760   3 ;    H5R-   C15-   C14-   H4R
 12420  12419  12422  12424      9     0.00   0.62760   3 ;    H5R-   C15-   C14-   H4S
 12420  12419  12422  12425      9     0.00   0.66944   3 ;    H5R-   C15-   C14-   C13
 12421  12419  12422  12423      9     0.00   0.62760   3 ;    H5S-   C15-   C14-   H4R
 12421  12419  12422  12424      9     0.00   0.62760   3 ;    H5S-   C15-   C14-   H4S
 12421  12419  12422  12425      9     0.00   0.66944   3 ;    H5S-   C15-   C14-   C13
 12422  12425  12428  12429      9     0.00   0.66944   3 ;    C14-   C13-   C12-   H2R
 12422  12425  12428  12430      9     0.00   0.66944   3 ;    C14-   C13-   C12-   H2S
 12422  12425  12428  12431      9     0.00   0.65270   3 ;    C14-   C13-   C12-   C11
 12423  12422  12425  12426      9     0.00   0.62760   3 ;    H4R-   C14-   C13-   H3R
 12423  12422  12425  12427      9     0.00   0.62760   3 ;    H4R-   C14-   C13-   H3S
 12423  12422  12425  12428      9     0.00   0.66944   3 ;    H4R-   C14-   C13-   C12
 12424  12422  12425  12426      9     0.00   0.62760   3 ;    H4S-   C14-   C13-   H3R
 12424  12422  12425  12427      9     0.00   0.62760   3 ;    H4S-   C14-   C13-   H3S
 12424  12422  12425  12428      9     0.00   0.66944   3 ;    H4S-   C14-   C13-   C12
 12425  12428  12431  12432      9   180.00   0.00000   2 ;    C13-   C12-   C11-   O12
 12425  12428  12431  12433      9   180.00   0.00000   2 ;    C13-   C12-   C11-   O11
 12426  12425  12428  12429      9     0.00   0.62760   3 ;    H3R-   C13-   C12-   H2R
 12426  12425  12428  12430      9     0.00   0.62760   3 ;    H3R-   C13-   C12-   H2S
 12426  12425  12428  12431      9     0.00   0.65270   3 ;    H3R-   C13-   C12-   C11
 12427  12425  12428  12429      9     0.00   0.62760   3 ;    H3S-   C13-   C12-   H2R
 12427  12425  12428  12430      9     0.00   0.62760   3 ;    H3S-   C13-   C12-   H2S
 12427  12425  12428  12431      9     0.00   0.65270   3 ;    H3S-   C13-   C12-   C11
 12428  12431  12433  12434      9   180.00  11.29680   2 ;    C12-   C11-   O11-    C1
 12429  12428  12431  12432      9     0.00   3.34720   1 ;    H2R-   C12-   C11-   O12
 12429  12428  12431  12432      9   180.00   0.33472   3 ;    H2R-   C12-   C11-   O12
 12429  12428  12431  12433      9   180.00   0.00000   2 ;    H2R-   C12-   C11-   O11
 12430  12428  12431  12432      9     0.00   3.34720   1 ;    H2S-   C12-   C11-   O12
 12430  12428  12431  12432      9   180.00   0.33472   3 ;    H2S-   C12-   C11-   O12
 12430  12428  12431  12433      9   180.00   0.00000   2 ;    H2S-   C12-   C11-   O11
 12431  12433  12434  12435      9     0.00   1.60247   3 ;    C11-   O11-    C1-    HR
 12431  12433  12434  12436      9     0.00   1.60247   3 ;    C11-   O11-    C1-    HS
 12431  12433  12434  12437      9     0.00  -0.41840   1 ;    C11-   O11-    C1-    C2
 12432  12431  12433  12434      9   180.00   5.85760   1 ;    O12-   C11-   O11-    C1
 12432  12431  12433  12434      9   180.00  11.29680   2 ;    O12-   C11-   O11-    C1
 12433  12434  12437  12438      9     0.00   0.00000   0 ;    O11-    C1-    C2-    HX
 12433  12434  12437  12438      9     0.00   1.04600   1 ;    O11-    C1-    C2-    HX
 12433  12434  12437  12439      9     0.00   0.00000   0 ;    O11-    C1-    C2-    C3
 12433  12434  12437  12439      9     0.00   0.00000   0 ;    O11-    C1-    C2-    C3
 12433  12434  12437  12439      9     0.00   0.00000   0 ;    O11-    C1-    C2-    C3
 12433  12434  12437  12439      9     0.00   0.00000   0 ;    O11-    C1-    C2-    C3
 12433  12434  12437  12439      9     0.00   0.00000   0 ;    O11-    C1-    C2-    C3
 12433  12434  12437  12466      9     0.00   1.25520   2 ;    O11-    C1-    C2-   O21
 12433  12434  12437  12466      9     0.00   4.18400   3 ;    O11-    C1-    C2-   O21
 12433  12434  12437  12466      9   180.00  -0.41840   1 ;    O11-    C1-    C2-   O21
 12434  12437  12439  12440      9     0.00   0.65270   3 ;     C1-    C2-    C3-    HA
 12434  12437  12439  12441      9     0.00   0.65270   3 ;     C1-    C2-    C3-    HB
 12434  12437  12439  12442      9   180.00   3.34720   1 ;     C1-    C2-    C3-   O31
 12434  12437  12466  12467      9     0.00  -0.41840   1 ;     C1-    C2-   O21-   C21
 12435  12434  12437  12438      9     0.00   0.65270   3 ;     HR-    C1-    C2-    HX
 12435  12434  12437  12439      9     0.00   0.65270   3 ;     HR-    C1-    C2-    C3
 12435  12434  12437  12466      9     0.00   0.00000   0 ;     HR-    C1-    C2-   O21
 12435  12434  12437  12466      9     0.00   1.04600   1 ;     HR-    C1-    C2-   O21
 12436  12434  12437  12438      9     0.00   0.65270   3 ;     HS-    C1-    C2-    HX
 12436  12434  12437  12439      9     0.00   0.65270   3 ;     HS-    C1-    C2-    C3
 12436  12434  12437  12466      9     0.00   0.00000   0 ;     HS-    C1-    C2-   O21
 12436  12434  12437  12466      9     0.00   1.04600   1 ;     HS-    C1-    C2-   O21
 12437  12439  12442  12443      9     0.00   0.00000   0 ;     C2-    C3-   O31-   P31
 12437  12439  12442  12443      9   180.00  -3.34720   2 ;     C2-    C3-   O31-   P31
 12437  12466  12467  12468      9   180.00   5.85760   1 ;     C2-   O21-   C21-   O22
 12437  12466  12467  12468      9   180.00  11.29680   2 ;     C2-   O21-   C21-   O22
 12437  12466  12467  12506      9   180.00  11.29680   2 ;     C2-   O21-   C21-   C12
 12438  12437  12439  12440      9     0.00   0.65270   3 ;     HX-    C2-    C3-    HA
 12438  12437  12439  12441      9     0.00   0.65270   3 ;     HX-    C2-    C3-    HB
 12438  12437  12439  12442      9     0.00   0.00000   0 ;     HX-    C2-    C3-   O31
 12438  12437  12439  12442      9     0.00   1.04600   1 ;     HX-    C2-    C3-   O31
 12438  12437  12466  12467      9     0.00   1.60247   3 ;     HX-    C2-   O21-   C21
 12439  12437  12466  12467      9     0.00  -0.41840   1 ;     C3-    C2-   O21-   C21
 12439  12442  12443  12444      9     0.00   2.51040   3 ;     C3-   O31-   P31-   O32
 12439  12442  12443  12444      9     0.00   9.62320   2 ;     C3-   O31-   P31-   O32
 12439  12442  12443  12464      9     0.00   0.00000   0 ;     C3-   O31-   P31-   O33
 12439  12442  12443  12464      9     0.00   0.00000   0 ;     C3-   O31-   P31-   O33
 12439  12442  12443  12464      9     0.00   0.00000   0 ;     C3-   O31-   P31-   O33
 12439  12442  12443  12464      9     0.00   0.00000   0 ;     C3-   O31-   P31-   O33
 12439  12442  12443  12464      9     0.00   0.83680   2 ;     C3-   O31-   P31-   O33
 12439  12442  12443  12465      9     0.00   0.00000   0 ;     C3-   O31-   P31-   O34
 12439  12442  12443  12465      9     0.00   0.00000   0 ;     C3-   O31-   P31-   O34
 12439  12442  12443  12465      9     0.00   0.00000   0 ;     C3-   O31-   P31-   O34
 12439  12442  12443  12465      9     0.00   0.00000   0 ;     C3-   O31-   P31-   O34
 12439  12442  12443  12465      9     0.00   0.83680   2 ;     C3-   O31-   P31-   O34
 12440  12439  12437  12466      9     0.00   0.00000   0 ;     HA-    C3-    C2-   O21
 12440  12439  12437  12466      9     0.00   1.04600   1 ;     HA-    C3-    C2-   O21
 12440  12439  12442  12443      9     0.00   0.00000   0 ;     HA-    C3-   O31-   P31
 12440  12439  12442  12443      9     0.00   0.00000   0 ;     HA-    C3-   O31-   P31
 12440  12439  12442  12443      9     0.00   0.00000   0 ;     HA-    C3-   O31-   P31
 12440  12439  12442  12443      9     0.00   0.00000   0 ;     HA-    C3-   O31-   P31
 12440  12439  12442  12443      9     0.00   1.60247   3 ;     HA-    C3-   O31-   P31
 12441  12439  12437  12466      9     0.00   0.00000   0 ;     HB-    C3-    C2-   O21
 12441  12439  12437  12466      9     0.00   1.04600   1 ;     HB-    C3-    C2-   O21
 12441  12439  12442  12443      9     0.00   0.00000   0 ;     HB-    C3-   O31-   P31
 12441  12439  12442  12443      9     0.00   0.00000   0 ;     HB-    C3-   O31-   P31
 12441  12439  12442  12443      9     0.00   0.00000   0 ;     HB-    C3-   O31-   P31
 12441  12439  12442  12443      9     0.00   0.00000   0 ;     HB-    C3-   O31-   P31
 12441  12439  12442  12443      9     0.00   1.60247   3 ;     HB-    C3-   O31-   P31
 12442  12439  12437  12466      9     0.00   0.00000   0 ;    O31-    C3-    C2-   O21
 12442  12439  12437  12466      9     0.00   0.00000   0 ;    O31-    C3-    C2-   O21
 12442  12439  12437  12466      9     0.00   0.00000   0 ;    O31-    C3-    C2-   O21
 12442  12439  12437  12466      9     0.00   0.00000   0 ;    O31-    C3-    C2-   O21
 12442  12439  12437  12466      9     0.00   0.00000   0 ;    O31-    C3-    C2-   O21
 12442  12443  12444  12445      9     0.00   2.51040   3 ;    O31-   P31-   O32-   C31
 12442  12443  12444  12445      9     0.00   9.62320   2 ;    O31-   P31-   O32-   C31
 12443  12444  12445  12446      9     0.00   0.00000   0 ;    P31-   O32-   C31-   H1A
 12443  12444  12445  12446      9     0.00   0.00000   0 ;    P31-   O32-   C31-   H1A
 12443  12444  12445  12446      9     0.00   0.00000   0 ;    P31-   O32-   C31-   H1A
 12443  12444  12445  12446      9     0.00   0.00000   0 ;    P31-   O32-   C31-   H1A
 12443  12444  12445  12446      9     0.00   1.60247   3 ;    P31-   O32-   C31-   H1A
 12443  12444  12445  12447      9     0.00   0.00000   0 ;    P31-   O32-   C31-   H1B
 12443  12444  12445  12447      9     0.00   0.00000   0 ;    P31-   O32-   C31-   H1B
 12443  12444  12445  12447      9     0.00   0.00000   0 ;    P31-   O32-   C31-   H1B
 12443  12444  12445  12447      9     0.00   0.00000   0 ;    P31-   O32-   C31-   H1B
 12443  12444  12445  12447      9     0.00   1.60247   3 ;    P31-   O32-   C31-   H1B
 12443  12444  12445  12448      9     0.00   0.00000   0 ;    P31-   O32-   C31-   C32
 12443  12444  12445  12448      9   180.00  -3.34720   2 ;    P31-   O32-   C31-   C32
 12444  12445  12448  12449      9     0.00   0.65270   3 ;    O32-   C31-   C32-   H2A
 12444  12445  12448  12450      9     0.00   0.65270   3 ;    O32-   C31-   C32-   H2B
 12444  12445  12448  12451      9     0.00   4.18400   3 ;    O32-   C31-   C32-   N31
 12445  12444  12443  12464      9     0.00   0.00000   0 ;    C31-   O32-   P31-   O33
 12445  12444  12443  12464      9     0.00   0.00000   0 ;    C31-   O32-   P31-   O33
 12445  12444  12443  12464      9     0.00   0.00000   0 ;    C31-   O32-   P31-   O33
 12445  12444  12443  12464      9     0.00   0.00000   0 ;    C31-   O32-   P31-   O33
 12445  12444  12443  12464      9     0.00   0.83680   2 ;    C31-   O32-   P31-   O33
 12445  12444  12443  12465      9     0.00   0.00000   0 ;    C31-   O32-   P31-   O34
 12445  12444  12443  12465      9     0.00   0.00000   0 ;    C31-   O32-   P31-   O34
 12445  12444  12443  12465      9     0.00   0.00000   0 ;    C31-   O32-   P31-   O34
 12445  12444  12443  12465      9     0.00   0.00000   0 ;    C31-   O32-   P31-   O34
 12445  12444  12443  12465      9     0.00   0.83680   2 ;    C31-   O32-   P31-   O34
 12445  12448  12451  12452      9     0.00   0.65270   3 ;    C31-   C32-   N31-   C33
 12445  12448  12451  12456      9     0.00   0.65270   3 ;    C31-   C32-   N31-   C34
 12445  12448  12451  12460      9     0.00   0.65270   3 ;    C31-   C32-   N31-   C35
 12446  12445  12448  12449      9     0.00   0.65270   3 ;    H1A-   C31-   C32-   H2A
 12446  12445  12448  12450      9     0.00   0.65270   3 ;    H1A-   C31-   C32-   H2B
 12446  12445  12448  12451      9     0.00   0.65270   3 ;    H1A-   C31-   C32-   N31
 12447  12445  12448  12449      9     0.00   0.65270   3 ;    H1B-   C31-   C32-   H2A
 12447  12445  12448  12450      9     0.00   0.65270   3 ;    H1B-   C31-   C32-   H2B
 12447  12445  12448  12451      9     0.00   0.65270   3 ;    H1B-   C31-   C32-   N31
 12448  12451  12452  12453      9     0.00   0.65270   3 ;    C32-   N31-   C33-   H3A
 12448  12451  12452  12454      9     0.00   0.65270   3 ;    C32-   N31-   C33-   H3B
 12448  12451  12452  12455      9     0.00   0.65270   3 ;    C32-   N31-   C33-   H3C
 12448  12451  12456  12457      9     0.00   0.65270   3 ;    C32-   N31-   C34-   H4A
 12448  12451  12456  12458      9     0.00   0.65270   3 ;    C32-   N31-   C34-   H4B
 12448  12451  12456  12459      9     0.00   0.65270   3 ;    C32-   N31-   C34-   H4C
 12448  12451  12460  12461      9     0.00   0.65270   3 ;    C32-   N31-   C35-   H5A
 12448  12451  12460  12462      9     0.00   0.65270   3 ;    C32-   N31-   C35-   H5B
 12448  12451  12460  12463      9     0.00   0.65270   3 ;    C32-   N31-   C35-   H5C
 12449  12448  12451  12452      9     0.00   0.65270   3 ;    H2A-   C32-   N31-   C33
 12449  12448  12451  12456      9     0.00   0.65270   3 ;    H2A-   C32-   N31-   C34
 12449  12448  12451  12460      9     0.00   0.65270   3 ;    H2A-   C32-   N31-   C35
 12450  12448  12451  12452      9     0.00   0.65270   3 ;    H2B-   C32-   N31-   C33
 12450  12448  12451  12456      9     0.00   0.65270   3 ;    H2B-   C32-   N31-   C34
 12450  12448  12451  12460      9     0.00   0.65270   3 ;    H2B-   C32-   N31-   C35
 12452  12451  12456  12457      9     0.00   0.65270   3 ;    C33-   N31-   C34-   H4A
 12452  12451  12456  12458      9     0.00   0.65270   3 ;    C33-   N31-   C34-   H4B
 12452  12451  12456  12459      9     0.00   0.65270   3 ;    C33-   N31-   C34-   H4C
 12452  12451  12460  12461      9     0.00   0.65270   3 ;    C33-   N31-   C35-   H5A
 12452  12451  12460  12462      9     0.00   0.65270   3 ;    C33-   N31-   C35-   H5B
 12452  12451  12460  12463      9     0.00   0.65270   3 ;    C33-   N31-   C35-   H5C
 12453  12452  12451  12456      9     0.00   0.65270   3 ;    H3A-   C33-   N31-   C34
 12453  12452  12451  12460      9     0.00   0.65270   3 ;    H3A-   C33-   N31-   C35
 12454  12452  12451  12456      9     0.00   0.65270   3 ;    H3B-   C33-   N31-   C34
 12454  12452  12451  12460      9     0.00   0.65270   3 ;    H3B-   C33-   N31-   C35
 12455  12452  12451  12456      9     0.00   0.65270   3 ;    H3C-   C33-   N31-   C34
 12455  12452  12451  12460      9     0.00   0.65270   3 ;    H3C-   C33-   N31-   C35
 12456  12451  12460  12461      9     0.00   0.65270   3 ;    C34-   N31-   C35-   H5A
 12456  12451  12460  12462      9     0.00   0.65270   3 ;    C34-   N31-   C35-   H5B
 12456  12451  12460  12463      9     0.00   0.65270   3 ;    C34-   N31-   C35-   H5C
 12457  12456  12451  12460      9     0.00   0.65270   3 ;    H4A-   C34-   N31-   C35
 12458  12456  12451  12460      9     0.00   0.65270   3 ;    H4B-   C34-   N31-   C35
 12459  12456  12451  12460      9     0.00   0.65270   3 ;    H4C-   C34-   N31-   C35
 12466  12467  12506  12503      9   180.00   0.00000   2 ;    O21-   C21-   C12-   C13
 12466  12467  12506  12507      9   180.00   0.00000   2 ;    O21-   C21-   C12-   H2R
 12466  12467  12506  12508      9   180.00   0.00000   2 ;    O21-   C21-   C12-   H2S
 12467  12506  12503  12500      9     0.00   0.65270   3 ;    C21-   C12-   C13-   C14
 12467  12506  12503  12504      9     0.00   0.65270   3 ;    C21-   C12-   C13-   H3R
 12467  12506  12503  12505      9     0.00   0.65270   3 ;    C21-   C12-   C13-   H3S
 12468  12467  12506  12503      9   180.00   0.00000   2 ;    O22-   C21-   C12-   C13
 12468  12467  12506  12507      9     0.00   3.34720   1 ;    O22-   C21-   C12-   H2R
 12468  12467  12506  12507      9   180.00   0.33472   3 ;    O22-   C21-   C12-   H2R
 12468  12467  12506  12508      9     0.00   3.34720   1 ;    O22-   C21-   C12-   H2S
 12468  12467  12506  12508      9   180.00   0.33472   3 ;    O22-   C21-   C12-   H2S
 12469  12470  12473  12474      9     0.00   0.62760   3 ;   H14T-  C114-  C113-  H13R
 12469  12470  12473  12475      9     0.00   0.62760   3 ;   H14T-  C114-  C113-  H13S
 12469  12470  12473  12476      9     0.00   0.66944   3 ;   H14T-  C114-  C113-  C112
 12470  12473  12476  12477      9     0.00   0.66944   3 ;   C114-  C113-  C112-  H12R
 12470  12473  12476  12478      9     0.00   0.66944   3 ;   C114-  C113-  C112-  H12S
 12470  12473  12476  12479      9     0.00   0.41840   1 ;   C114-  C113-  C112-  C111
 12470  12473  12476  12479      9     0.00   0.41840   2 ;   C114-  C113-  C112-  C111
 12470  12473  12476  12479      9     0.00   0.41840   4 ;   C114-  C113-  C112-  C111
 12470  12473  12476  12479      9     0.00   0.41840   5 ;   C114-  C113-  C112-  C111
 12470  12473  12476  12479      9     0.00   1.25520   3 ;   C114-  C113-  C112-  C111
 12471  12470  12473  12474      9     0.00   0.62760   3 ;   H14R-  C114-  C113-  H13R
 12471  12470  12473  12475      9     0.00   0.62760   3 ;   H14R-  C114-  C113-  H13S
 12471  12470  12473  12476      9     0.00   0.66944   3 ;   H14R-  C114-  C113-  C112
 12472  12470  12473  12474      9     0.00   0.62760   3 ;   H14S-  C114-  C113-  H13R
 12472  12470  12473  12475      9     0.00   0.62760   3 ;   H14S-  C114-  C113-  H13S
 12472  12470  12473  12476      9     0.00   0.66944   3 ;   H14S-  C114-  C113-  C112
 12473  12476  12479  12480      9     0.00   0.66944   3 ;   C113-  C112-  C111-  H11R
 12473  12476  12479  12481      9     0.00   0.66944   3 ;   C113-  C112-  C111-  H11S
 12473  12476  12479  12482      9     0.00   0.41840   1 ;   C113-  C112-  C111-  C110
 12473  12476  12479  12482      9     0.00   0.41840   2 ;   C113-  C112-  C111-  C110
 12473  12476  12479  12482      9     0.00   0.41840   4 ;   C113-  C112-  C111-  C110
 12473  12476  12479  12482      9     0.00   0.41840   5 ;   C113-  C112-  C111-  C110
 12473  12476  12479  12482      9     0.00   1.25520   3 ;   C113-  C112-  C111-  C110
 12474  12473  12476  12477      9     0.00   0.62760   3 ;   H13R-  C113-  C112-  H12R
 12474  12473  12476  12478      9     0.00   0.62760   3 ;   H13R-  C113-  C112-  H12S
 12474  12473  12476  12479      9     0.00   0.66944   3 ;   H13R-  C113-  C112-  C111
 12475  12473  12476  12477      9     0.00   0.62760   3 ;   H13S-  C113-  C112-  H12R
 12475  12473  12476  12478      9     0.00   0.62760   3 ;   H13S-  C113-  C112-  H12S
 12475  12473  12476  12479      9     0.00   0.66944   3 ;   H13S-  C113-  C112-  C111
 12476  12479  12482  12483      9     0.00   0.66944   3 ;   C112-  C111-  C110-  H10R
 12476  12479  12482  12484      9     0.00   0.66944   3 ;   C112-  C111-  C110-  H10S
 12476  12479  12482  12485      9     0.00   0.41840   1 ;   C112-  C111-  C110-   C19
 12476  12479  12482  12485      9     0.00   0.41840   2 ;   C112-  C111-  C110-   C19
 12476  12479  12482  12485      9     0.00   0.41840   4 ;   C112-  C111-  C110-   C19
 12476  12479  12482  12485      9     0.00   0.41840   5 ;   C112-  C111-  C110-   C19
 12476  12479  12482  12485      9     0.00   1.25520   3 ;   C112-  C111-  C110-   C19
 12477  12476  12479  12480      9     0.00   0.62760   3 ;   H12R-  C112-  C111-  H11R
 12477  12476  12479  12481      9     0.00   0.62760   3 ;   H12R-  C112-  C111-  H11S
 12477  12476  12479  12482      9     0.00   0.66944   3 ;   H12R-  C112-  C111-  C110
 12478  12476  12479  12480      9     0.00   0.62760   3 ;   H12S-  C112-  C111-  H11R
 12478  12476  12479  12481      9     0.00   0.62760   3 ;   H12S-  C112-  C111-  H11S
 12478  12476  12479  12482      9     0.00   0.66944   3 ;   H12S-  C112-  C111-  C110
 12479  12482  12485  12486      9     0.00   0.66944   3 ;   C111-  C110-   C19-   H9R
 12479  12482  12485  12487      9     0.00   0.66944   3 ;   C111-  C110-   C19-   H9S
 12479  12482  12485  12488      9     0.00   0.41840   1 ;   C111-  C110-   C19-   C18
 12479  12482  12485  12488      9     0.00   0.41840   2 ;   C111-  C110-   C19-   C18
 12479  12482  12485  12488      9     0.00   0.41840   4 ;   C111-  C110-   C19-   C18
 12479  12482  12485  12488      9     0.00   0.41840   5 ;   C111-  C110-   C19-   C18
 12479  12482  12485  12488      9     0.00   1.25520   3 ;   C111-  C110-   C19-   C18
 12480  12479  12482  12483      9     0.00   0.62760   3 ;   H11R-  C111-  C110-  H10R
 12480  12479  12482  12484      9     0.00   0.62760   3 ;   H11R-  C111-  C110-  H10S
 12480  12479  12482  12485      9     0.00   0.66944   3 ;   H11R-  C111-  C110-   C19
 12481  12479  12482  12483      9     0.00   0.62760   3 ;   H11S-  C111-  C110-  H10R
 12481  12479  12482  12484      9     0.00   0.62760   3 ;   H11S-  C111-  C110-  H10S
 12481  12479  12482  12485      9     0.00   0.66944   3 ;   H11S-  C111-  C110-   C19
 12482  12485  12488  12489      9     0.00   0.66944   3 ;   C110-   C19-   C18-   H8R
 12482  12485  12488  12490      9     0.00   0.66944   3 ;   C110-   C19-   C18-   H8S
 12482  12485  12488  12491      9     0.00   0.41840   1 ;   C110-   C19-   C18-   C17
 12482  12485  12488  12491      9     0.00   0.41840   2 ;   C110-   C19-   C18-   C17
 12482  12485  12488  12491      9     0.00   0.41840   4 ;   C110-   C19-   C18-   C17
 12482  12485  12488  12491      9     0.00   0.41840   5 ;   C110-   C19-   C18-   C17
 12482  12485  12488  12491      9     0.00   1.25520   3 ;   C110-   C19-   C18-   C17
 12483  12482  12485  12486      9     0.00   0.62760   3 ;   H10R-  C110-   C19-   H9R
 12483  12482  12485  12487      9     0.00   0.62760   3 ;   H10R-  C110-   C19-   H9S
 12483  12482  12485  12488      9     0.00   0.66944   3 ;   H10R-  C110-   C19-   C18
 12484  12482  12485  12486      9     0.00   0.62760   3 ;   H10S-  C110-   C19-   H9R
 12484  12482  12485  12487      9     0.00   0.62760   3 ;   H10S-  C110-   C19-   H9S
 12484  12482  12485  12488      9     0.00   0.66944   3 ;   H10S-  C110-   C19-   C18
 12485  12488  12491  12492      9     0.00   0.66944   3 ;    C19-   C18-   C17-   H7R
 12485  12488  12491  12493      9     0.00   0.66944   3 ;    C19-   C18-   C17-   H7S
 12485  12488  12491  12494      9     0.00   0.41840   1 ;    C19-   C18-   C17-   C16
 12485  12488  12491  12494      9     0.00   0.41840   2 ;    C19-   C18-   C17-   C16
 12485  12488  12491  12494      9     0.00   0.41840   4 ;    C19-   C18-   C17-   C16
 12485  12488  12491  12494      9     0.00   0.41840   5 ;    C19-   C18-   C17-   C16
 12485  12488  12491  12494      9     0.00   1.25520   3 ;    C19-   C18-   C17-   C16
 12486  12485  12488  12489      9     0.00   0.62760   3 ;    H9R-   C19-   C18-   H8R
 12486  12485  12488  12490      9     0.00   0.62760   3 ;    H9R-   C19-   C18-   H8S
 12486  12485  12488  12491      9     0.00   0.66944   3 ;    H9R-   C19-   C18-   C17
 12487  12485  12488  12489      9     0.00   0.62760   3 ;    H9S-   C19-   C18-   H8R
 12487  12485  12488  12490      9     0.00   0.62760   3 ;    H9S-   C19-   C18-   H8S
 12487  12485  12488  12491      9     0.00   0.66944   3 ;    H9S-   C19-   C18-   C17
 12488  12491  12494  12495      9     0.00   0.66944   3 ;    C18-   C17-   C16-   H6R
 12488  12491  12494  12496      9     0.00   0.66944   3 ;    C18-   C17-   C16-   H6S
 12488  12491  12494  12497      9     0.00   0.41840   1 ;    C18-   C17-   C16-   C15
 12488  12491  12494  12497      9     0.00   0.41840   2 ;    C18-   C17-   C16-   C15
 12488  12491  12494  12497      9     0.00   0.41840   4 ;    C18-   C17-   C16-   C15
 12488  12491  12494  12497      9     0.00   0.41840   5 ;    C18-   C17-   C16-   C15
 12488  12491  12494  12497      9     0.00   1.25520   3 ;    C18-   C17-   C16-   C15
 12489  12488  12491  12492      9     0.00   0.62760   3 ;    H8R-   C18-   C17-   H7R
 12489  12488  12491  12493      9     0.00   0.62760   3 ;    H8R-   C18-   C17-   H7S
 12489  12488  12491  12494      9     0.00   0.66944   3 ;    H8R-   C18-   C17-   C16
 12490  12488  12491  12492      9     0.00   0.62760   3 ;    H8S-   C18-   C17-   H7R
 12490  12488  12491  12493      9     0.00   0.62760   3 ;    H8S-   C18-   C17-   H7S
 12490  12488  12491  12494      9     0.00   0.66944   3 ;    H8S-   C18-   C17-   C16
 12491  12494  12497  12498      9     0.00   0.66944   3 ;    C17-   C16-   C15-   H5R
 12491  12494  12497  12499      9     0.00   0.66944   3 ;    C17-   C16-   C15-   H5S
 12491  12494  12497  12500      9     0.00   0.41840   1 ;    C17-   C16-   C15-   C14
 12491  12494  12497  12500      9     0.00   0.41840   2 ;    C17-   C16-   C15-   C14
 12491  12494  12497  12500      9     0.00   0.41840   4 ;    C17-   C16-   C15-   C14
 12491  12494  12497  12500      9     0.00   0.41840   5 ;    C17-   C16-   C15-   C14
 12491  12494  12497  12500      9     0.00   1.25520   3 ;    C17-   C16-   C15-   C14
 12492  12491  12494  12495      9     0.00   0.62760   3 ;    H7R-   C17-   C16-   H6R
 12492  12491  12494  12496      9     0.00   0.62760   3 ;    H7R-   C17-   C16-   H6S
 12492  12491  12494  12497      9     0.00   0.66944   3 ;    H7R-   C17-   C16-   C15
 12493  12491  12494  12495      9     0.00   0.62760   3 ;    H7S-   C17-   C16-   H6R
 12493  12491  12494  12496      9     0.00   0.62760   3 ;    H7S-   C17-   C16-   H6S
 12493  12491  12494  12497      9     0.00   0.66944   3 ;    H7S-   C17-   C16-   C15
 12494  12497  12500  12501      9     0.00   0.66944   3 ;    C16-   C15-   C14-   H4R
 12494  12497  12500  12502      9     0.00   0.66944   3 ;    C16-   C15-   C14-   H4S
 12494  12497  12500  12503      9     0.00   0.41840   1 ;    C16-   C15-   C14-   C13
 12494  12497  12500  12503      9     0.00   0.41840   2 ;    C16-   C15-   C14-   C13
 12494  12497  12500  12503      9     0.00   0.41840   4 ;    C16-   C15-   C14-   C13
 12494  12497  12500  12503      9     0.00   0.41840   5 ;    C16-   C15-   C14-   C13
 12494  12497  12500  12503      9     0.00   1.25520   3 ;    C16-   C15-   C14-   C13
 12495  12494  12497  12498      9     0.00   0.62760   3 ;    H6R-   C16-   C15-   H5R
 12495  12494  12497  12499      9     0.00   0.62760   3 ;    H6R-   C16-   C15-   H5S
 12495  12494  12497  12500      9     0.00   0.66944   3 ;    H6R-   C16-   C15-   C14
 12496  12494  12497  12498      9     0.00   0.62760   3 ;    H6S-   C16-   C15-   H5R
 12496  12494  12497  12499      9     0.00   0.62760   3 ;    H6S-   C16-   C15-   H5S
 12496  12494  12497  12500      9     0.00   0.66944   3 ;    H6S-   C16-   C15-   C14
 12497  12500  12503  12504      9     0.00   0.66944   3 ;    C15-   C14-   C13-   H3R
 12497  12500  12503  12505      9     0.00   0.66944   3 ;    C15-   C14-   C13-   H3S
 12497  12500  12503  12506      9     0.00   0.41840   1 ;    C15-   C14-   C13-   C12
 12497  12500  12503  12506      9     0.00   0.41840   2 ;    C15-   C14-   C13-   C12
 12497  12500  12503  12506      9     0.00   0.41840   4 ;    C15-   C14-   C13-   C12
 12497  12500  12503  12506      9     0.00   0.41840   5 ;    C15-   C14-   C13-   C12
 12497  12500  12503  12506      9     0.00   1.25520   3 ;    C15-   C14-   C13-   C12
 12498  12497  12500  12501      9     0.00   0.62760   3 ;    H5R-   C15-   C14-   H4R
 12498  12497  12500  12502      9     0.00   0.62760   3 ;    H5R-   C15-   C14-   H4S
 12498  12497  12500  12503      9     0.00   0.66944   3 ;    H5R-   C15-   C14-   C13
 12499  12497  12500  12501      9     0.00   0.62760   3 ;    H5S-   C15-   C14-   H4R
 12499  12497  12500  12502      9     0.00   0.62760   3 ;    H5S-   C15-   C14-   H4S
 12499  12497  12500  12503      9     0.00   0.66944   3 ;    H5S-   C15-   C14-   C13
 12500  12503  12506  12507      9     0.00   0.66944   3 ;    C14-   C13-   C12-   H2R
 12500  12503  12506  12508      9     0.00   0.66944   3 ;    C14-   C13-   C12-   H2S
 12501  12500  12503  12504      9     0.00   0.62760   3 ;    H4R-   C14-   C13-   H3R
 12501  12500  12503  12505      9     0.00   0.62760   3 ;    H4R-   C14-   C13-   H3S
 12501  12500  12503  12506      9     0.00   0.66944   3 ;    H4R-   C14-   C13-   C12
 12502  12500  12503  12504      9     0.00   0.62760   3 ;    H4S-   C14-   C13-   H3R
 12502  12500  12503  12505      9     0.00   0.62760   3 ;    H4S-   C14-   C13-   H3S
 12502  12500  12503  12506      9     0.00   0.66944   3 ;    H4S-   C14-   C13-   C12
 12504  12503  12506  12507      9     0.00   0.62760   3 ;    H3R-   C13-   C12-   H2R
 12504  12503  12506  12508      9     0.00   0.62760   3 ;    H3R-   C13-   C12-   H2S
 12505  12503  12506  12507      9     0.00   0.62760   3 ;    H3S-   C13-   C12-   H2R
 12505  12503  12506  12508      9     0.00   0.62760   3 ;    H3S-   C13-   C12-   H2S
 12509  12510  12513  12514      9     0.00   0.62760   3 ;   H14T-  C114-  C113-  H13R
 12509  12510  12513  12515      9     0.00   0.62760   3 ;   H14T-  C114-  C113-  H13S
 12509  12510  12513  12516      9     0.00   0.66944   3 ;   H14T-  C114-  C113-  C112
 12510  12513  12516  12517      9     0.00   0.66944   3 ;   C114-  C113-  C112-  H12R
 12510  12513  12516  12518      9     0.00   0.66944   3 ;   C114-  C113-  C112-  H12S
 12510  12513  12516  12519      9     0.00   0.41840   1 ;   C114-  C113-  C112-  C111
 12510  12513  12516  12519      9     0.00   0.41840   2 ;   C114-  C113-  C112-  C111
 12510  12513  12516  12519      9     0.00   0.41840   4 ;   C114-  C113-  C112-  C111
 12510  12513  12516  12519      9     0.00   0.41840   5 ;   C114-  C113-  C112-  C111
 12510  12513  12516  12519      9     0.00   1.25520   3 ;   C114-  C113-  C112-  C111
 12511  12510  12513  12514      9     0.00   0.62760   3 ;   H14R-  C114-  C113-  H13R
 12511  12510  12513  12515      9     0.00   0.62760   3 ;   H14R-  C114-  C113-  H13S
 12511  12510  12513  12516      9     0.00   0.66944   3 ;   H14R-  C114-  C113-  C112
 12512  12510  12513  12514      9     0.00   0.62760   3 ;   H14S-  C114-  C113-  H13R
 12512  12510  12513  12515      9     0.00   0.62760   3 ;   H14S-  C114-  C113-  H13S
 12512  12510  12513  12516      9     0.00   0.66944   3 ;   H14S-  C114-  C113-  C112
 12513  12516  12519  12520      9     0.00   0.66944   3 ;   C113-  C112-  C111-  H11R
 12513  12516  12519  12521      9     0.00   0.66944   3 ;   C113-  C112-  C111-  H11S
 12513  12516  12519  12522      9     0.00   0.41840   1 ;   C113-  C112-  C111-  C110
 12513  12516  12519  12522      9     0.00   0.41840   2 ;   C113-  C112-  C111-  C110
 12513  12516  12519  12522      9     0.00   0.41840   4 ;   C113-  C112-  C111-  C110
 12513  12516  12519  12522      9     0.00   0.41840   5 ;   C113-  C112-  C111-  C110
 12513  12516  12519  12522      9     0.00   1.25520   3 ;   C113-  C112-  C111-  C110
 12514  12513  12516  12517      9     0.00   0.62760   3 ;   H13R-  C113-  C112-  H12R
 12514  12513  12516  12518      9     0.00   0.62760   3 ;   H13R-  C113-  C112-  H12S
 12514  12513  12516  12519      9     0.00   0.66944   3 ;   H13R-  C113-  C112-  C111
 12515  12513  12516  12517      9     0.00   0.62760   3 ;   H13S-  C113-  C112-  H12R
 12515  12513  12516  12518      9     0.00   0.62760   3 ;   H13S-  C113-  C112-  H12S
 12515  12513  12516  12519      9     0.00   0.66944   3 ;   H13S-  C113-  C112-  C111
 12516  12519  12522  12523      9     0.00   0.66944   3 ;   C112-  C111-  C110-  H10R
 12516  12519  12522  12524      9     0.00   0.66944   3 ;   C112-  C111-  C110-  H10S
 12516  12519  12522  12525      9     0.00   0.41840   1 ;   C112-  C111-  C110-   C19
 12516  12519  12522  12525      9     0.00   0.41840   2 ;   C112-  C111-  C110-   C19
 12516  12519  12522  12525      9     0.00   0.41840   4 ;   C112-  C111-  C110-   C19
 12516  12519  12522  12525      9     0.00   0.41840   5 ;   C112-  C111-  C110-   C19
 12516  12519  12522  12525      9     0.00   1.25520   3 ;   C112-  C111-  C110-   C19
 12517  12516  12519  12520      9     0.00   0.62760   3 ;   H12R-  C112-  C111-  H11R
 12517  12516  12519  12521      9     0.00   0.62760   3 ;   H12R-  C112-  C111-  H11S
 12517  12516  12519  12522      9     0.00   0.66944   3 ;   H12R-  C112-  C111-  C110
 12518  12516  12519  12520      9     0.00   0.62760   3 ;   H12S-  C112-  C111-  H11R
 12518  12516  12519  12521      9     0.00   0.62760   3 ;   H12S-  C112-  C111-  H11S
 12518  12516  12519  12522      9     0.00   0.66944   3 ;   H12S-  C112-  C111-  C110
 12519  12522  12525  12526      9     0.00   0.66944   3 ;   C111-  C110-   C19-   H9R
 12519  12522  12525  12527      9     0.00   0.66944   3 ;   C111-  C110-   C19-   H9S
 12519  12522  12525  12528      9     0.00   0.41840   1 ;   C111-  C110-   C19-   C18
 12519  12522  12525  12528      9     0.00   0.41840   2 ;   C111-  C110-   C19-   C18
 12519  12522  12525  12528      9     0.00   0.41840   4 ;   C111-  C110-   C19-   C18
 12519  12522  12525  12528      9     0.00   0.41840   5 ;   C111-  C110-   C19-   C18
 12519  12522  12525  12528      9     0.00   1.25520   3 ;   C111-  C110-   C19-   C18
 12520  12519  12522  12523      9     0.00   0.62760   3 ;   H11R-  C111-  C110-  H10R
 12520  12519  12522  12524      9     0.00   0.62760   3 ;   H11R-  C111-  C110-  H10S
 12520  12519  12522  12525      9     0.00   0.66944   3 ;   H11R-  C111-  C110-   C19
 12521  12519  12522  12523      9     0.00   0.62760   3 ;   H11S-  C111-  C110-  H10R
 12521  12519  12522  12524      9     0.00   0.62760   3 ;   H11S-  C111-  C110-  H10S
 12521  12519  12522  12525      9     0.00   0.66944   3 ;   H11S-  C111-  C110-   C19
 12522  12525  12528  12529      9     0.00   0.66944   3 ;   C110-   C19-   C18-   H8R
 12522  12525  12528  12530      9     0.00   0.66944   3 ;   C110-   C19-   C18-   H8S
 12522  12525  12528  12531      9     0.00   0.41840   1 ;   C110-   C19-   C18-   C17
 12522  12525  12528  12531      9     0.00   0.41840   2 ;   C110-   C19-   C18-   C17
 12522  12525  12528  12531      9     0.00   0.41840   4 ;   C110-   C19-   C18-   C17
 12522  12525  12528  12531      9     0.00   0.41840   5 ;   C110-   C19-   C18-   C17
 12522  12525  12528  12531      9     0.00   1.25520   3 ;   C110-   C19-   C18-   C17
 12523  12522  12525  12526      9     0.00   0.62760   3 ;   H10R-  C110-   C19-   H9R
 12523  12522  12525  12527      9     0.00   0.62760   3 ;   H10R-  C110-   C19-   H9S
 12523  12522  12525  12528      9     0.00   0.66944   3 ;   H10R-  C110-   C19-   C18
 12524  12522  12525  12526      9     0.00   0.62760   3 ;   H10S-  C110-   C19-   H9R
 12524  12522  12525  12527      9     0.00   0.62760   3 ;   H10S-  C110-   C19-   H9S
 12524  12522  12525  12528      9     0.00   0.66944   3 ;   H10S-  C110-   C19-   C18
 12525  12528  12531  12532      9     0.00   0.66944   3 ;    C19-   C18-   C17-   H7R
 12525  12528  12531  12533      9     0.00   0.66944   3 ;    C19-   C18-   C17-   H7S
 12525  12528  12531  12534      9     0.00   0.41840   1 ;    C19-   C18-   C17-   C16
 12525  12528  12531  12534      9     0.00   0.41840   2 ;    C19-   C18-   C17-   C16
 12525  12528  12531  12534      9     0.00   0.41840   4 ;    C19-   C18-   C17-   C16
 12525  12528  12531  12534      9     0.00   0.41840   5 ;    C19-   C18-   C17-   C16
 12525  12528  12531  12534      9     0.00   1.25520   3 ;    C19-   C18-   C17-   C16
 12526  12525  12528  12529      9     0.00   0.62760   3 ;    H9R-   C19-   C18-   H8R
 12526  12525  12528  12530      9     0.00   0.62760   3 ;    H9R-   C19-   C18-   H8S
 12526  12525  12528  12531      9     0.00   0.66944   3 ;    H9R-   C19-   C18-   C17
 12527  12525  12528  12529      9     0.00   0.62760   3 ;    H9S-   C19-   C18-   H8R
 12527  12525  12528  12530      9     0.00   0.62760   3 ;    H9S-   C19-   C18-   H8S
 12527  12525  12528  12531      9     0.00   0.66944   3 ;    H9S-   C19-   C18-   C17
 12528  12531  12534  12535      9     0.00   0.66944   3 ;    C18-   C17-   C16-   H6R
 12528  12531  12534  12536      9     0.00   0.66944   3 ;    C18-   C17-   C16-   H6S
 12528  12531  12534  12537      9     0.00   0.41840   1 ;    C18-   C17-   C16-   C15
 12528  12531  12534  12537      9     0.00   0.41840   2 ;    C18-   C17-   C16-   C15
 12528  12531  12534  12537      9     0.00   0.41840   4 ;    C18-   C17-   C16-   C15
 12528  12531  12534  12537      9     0.00   0.41840   5 ;    C18-   C17-   C16-   C15
 12528  12531  12534  12537      9     0.00   1.25520   3 ;    C18-   C17-   C16-   C15
 12529  12528  12531  12532      9     0.00   0.62760   3 ;    H8R-   C18-   C17-   H7R
 12529  12528  12531  12533      9     0.00   0.62760   3 ;    H8R-   C18-   C17-   H7S
 12529  12528  12531  12534      9     0.00   0.66944   3 ;    H8R-   C18-   C17-   C16
 12530  12528  12531  12532      9     0.00   0.62760   3 ;    H8S-   C18-   C17-   H7R
 12530  12528  12531  12533      9     0.00   0.62760   3 ;    H8S-   C18-   C17-   H7S
 12530  12528  12531  12534      9     0.00   0.66944   3 ;    H8S-   C18-   C17-   C16
 12531  12534  12537  12538      9     0.00   0.66944   3 ;    C17-   C16-   C15-   H5R
 12531  12534  12537  12539      9     0.00   0.66944   3 ;    C17-   C16-   C15-   H5S
 12531  12534  12537  12540      9     0.00   0.41840   1 ;    C17-   C16-   C15-   C14
 12531  12534  12537  12540      9     0.00   0.41840   2 ;    C17-   C16-   C15-   C14
 12531  12534  12537  12540      9     0.00   0.41840   4 ;    C17-   C16-   C15-   C14
 12531  12534  12537  12540      9     0.00   0.41840   5 ;    C17-   C16-   C15-   C14
 12531  12534  12537  12540      9     0.00   1.25520   3 ;    C17-   C16-   C15-   C14
 12532  12531  12534  12535      9     0.00   0.62760   3 ;    H7R-   C17-   C16-   H6R
 12532  12531  12534  12536      9     0.00   0.62760   3 ;    H7R-   C17-   C16-   H6S
 12532  12531  12534  12537      9     0.00   0.66944   3 ;    H7R-   C17-   C16-   C15
 12533  12531  12534  12535      9     0.00   0.62760   3 ;    H7S-   C17-   C16-   H6R
 12533  12531  12534  12536      9     0.00   0.62760   3 ;    H7S-   C17-   C16-   H6S
 12533  12531  12534  12537      9     0.00   0.66944   3 ;    H7S-   C17-   C16-   C15
 12534  12537  12540  12541      9     0.00   0.66944   3 ;    C16-   C15-   C14-   H4R
 12534  12537  12540  12542      9     0.00   0.66944   3 ;    C16-   C15-   C14-   H4S
 12534  12537  12540  12543      9     0.00   0.41840   1 ;    C16-   C15-   C14-   C13
 12534  12537  12540  12543      9     0.00   0.41840   2 ;    C16-   C15-   C14-   C13
 12534  12537  12540  12543      9     0.00   0.41840   4 ;    C16-   C15-   C14-   C13
 12534  12537  12540  12543      9     0.00   0.41840   5 ;    C16-   C15-   C14-   C13
 12534  12537  12540  12543      9     0.00   1.25520   3 ;    C16-   C15-   C14-   C13
 12535  12534  12537  12538      9     0.00   0.62760   3 ;    H6R-   C16-   C15-   H5R
 12535  12534  12537  12539      9     0.00   0.62760   3 ;    H6R-   C16-   C15-   H5S
 12535  12534  12537  12540      9     0.00   0.66944   3 ;    H6R-   C16-   C15-   C14
 12536  12534  12537  12538      9     0.00   0.62760   3 ;    H6S-   C16-   C15-   H5R
 12536  12534  12537  12539      9     0.00   0.62760   3 ;    H6S-   C16-   C15-   H5S
 12536  12534  12537  12540      9     0.00   0.66944   3 ;    H6S-   C16-   C15-   C14
 12537  12540  12543  12544      9     0.00   0.66944   3 ;    C15-   C14-   C13-   H3R
 12537  12540  12543  12545      9     0.00   0.66944   3 ;    C15-   C14-   C13-   H3S
 12537  12540  12543  12546      9     0.00   0.41840   1 ;    C15-   C14-   C13-   C12
 12537  12540  12543  12546      9     0.00   0.41840   2 ;    C15-   C14-   C13-   C12
 12537  12540  12543  12546      9     0.00   0.41840   4 ;    C15-   C14-   C13-   C12
 12537  12540  12543  12546      9     0.00   0.41840   5 ;    C15-   C14-   C13-   C12
 12537  12540  12543  12546      9     0.00   1.25520   3 ;    C15-   C14-   C13-   C12
 12538  12537  12540  12541      9     0.00   0.62760   3 ;    H5R-   C15-   C14-   H4R
 12538  12537  12540  12542      9     0.00   0.62760   3 ;    H5R-   C15-   C14-   H4S
 12538  12537  12540  12543      9     0.00   0.66944   3 ;    H5R-   C15-   C14-   C13
 12539  12537  12540  12541      9     0.00   0.62760   3 ;    H5S-   C15-   C14-   H4R
 12539  12537  12540  12542      9     0.00   0.62760   3 ;    H5S-   C15-   C14-   H4S
 12539  12537  12540  12543      9     0.00   0.66944   3 ;    H5S-   C15-   C14-   C13
 12540  12543  12546  12547      9     0.00   0.66944   3 ;    C14-   C13-   C12-   H2R
 12540  12543  12546  12548      9     0.00   0.66944   3 ;    C14-   C13-   C12-   H2S
 12540  12543  12546  12549      9     0.00   0.65270   3 ;    C14-   C13-   C12-   C11
 12541  12540  12543  12544      9     0.00   0.62760   3 ;    H4R-   C14-   C13-   H3R
 12541  12540  12543  12545      9     0.00   0.62760   3 ;    H4R-   C14-   C13-   H3S
 12541  12540  12543  12546      9     0.00   0.66944   3 ;    H4R-   C14-   C13-   C12
 12542  12540  12543  12544      9     0.00   0.62760   3 ;    H4S-   C14-   C13-   H3R
 12542  12540  12543  12545      9     0.00   0.62760   3 ;    H4S-   C14-   C13-   H3S
 12542  12540  12543  12546      9     0.00   0.66944   3 ;    H4S-   C14-   C13-   C12
 12543  12546  12549  12550      9   180.00   0.00000   2 ;    C13-   C12-   C11-   O12
 12543  12546  12549  12551      9   180.00   0.00000   2 ;    C13-   C12-   C11-   O11
 12544  12543  12546  12547      9     0.00   0.62760   3 ;    H3R-   C13-   C12-   H2R
 12544  12543  12546  12548      9     0.00   0.62760   3 ;    H3R-   C13-   C12-   H2S
 12544  12543  12546  12549      9     0.00   0.65270   3 ;    H3R-   C13-   C12-   C11
 12545  12543  12546  12547      9     0.00   0.62760   3 ;    H3S-   C13-   C12-   H2R
 12545  12543  12546  12548      9     0.00   0.62760   3 ;    H3S-   C13-   C12-   H2S
 12545  12543  12546  12549      9     0.00   0.65270   3 ;    H3S-   C13-   C12-   C11
 12546  12549  12551  12552      9   180.00  11.29680   2 ;    C12-   C11-   O11-    C1
 12547  12546  12549  12550      9     0.00   3.34720   1 ;    H2R-   C12-   C11-   O12
 12547  12546  12549  12550      9   180.00   0.33472   3 ;    H2R-   C12-   C11-   O12
 12547  12546  12549  12551      9   180.00   0.00000   2 ;    H2R-   C12-   C11-   O11
 12548  12546  12549  12550      9     0.00   3.34720   1 ;    H2S-   C12-   C11-   O12
 12548  12546  12549  12550      9   180.00   0.33472   3 ;    H2S-   C12-   C11-   O12
 12548  12546  12549  12551      9   180.00   0.00000   2 ;    H2S-   C12-   C11-   O11
 12549  12551  12552  12553      9     0.00   1.60247   3 ;    C11-   O11-    C1-    HR
 12549  12551  12552  12554      9     0.00   1.60247   3 ;    C11-   O11-    C1-    HS
 12549  12551  12552  12555      9     0.00  -0.41840   1 ;    C11-   O11-    C1-    C2
 12550  12549  12551  12552      9   180.00   5.85760   1 ;    O12-   C11-   O11-    C1
 12550  12549  12551  12552      9   180.00  11.29680   2 ;    O12-   C11-   O11-    C1
 12551  12552  12555  12556      9     0.00   0.00000   0 ;    O11-    C1-    C2-    HX
 12551  12552  12555  12556      9     0.00   1.04600   1 ;    O11-    C1-    C2-    HX
 12551  12552  12555  12557      9     0.00   0.00000   0 ;    O11-    C1-    C2-    C3
 12551  12552  12555  12557      9     0.00   0.00000   0 ;    O11-    C1-    C2-    C3
 12551  12552  12555  12557      9     0.00   0.00000   0 ;    O11-    C1-    C2-    C3
 12551  12552  12555  12557      9     0.00   0.00000   0 ;    O11-    C1-    C2-    C3
 12551  12552  12555  12557      9     0.00   0.00000   0 ;    O11-    C1-    C2-    C3
 12551  12552  12555  12584      9     0.00   1.25520   2 ;    O11-    C1-    C2-   O21
 12551  12552  12555  12584      9     0.00   4.18400   3 ;    O11-    C1-    C2-   O21
 12551  12552  12555  12584      9   180.00  -0.41840   1 ;    O11-    C1-    C2-   O21
 12552  12555  12557  12558      9     0.00   0.65270   3 ;     C1-    C2-    C3-    HA
 12552  12555  12557  12559      9     0.00   0.65270   3 ;     C1-    C2-    C3-    HB
 12552  12555  12557  12560      9   180.00   3.34720   1 ;     C1-    C2-    C3-   O31
 12552  12555  12584  12585      9     0.00  -0.41840   1 ;     C1-    C2-   O21-   C21
 12553  12552  12555  12556      9     0.00   0.65270   3 ;     HR-    C1-    C2-    HX
 12553  12552  12555  12557      9     0.00   0.65270   3 ;     HR-    C1-    C2-    C3
 12553  12552  12555  12584      9     0.00   0.00000   0 ;     HR-    C1-    C2-   O21
 12553  12552  12555  12584      9     0.00   1.04600   1 ;     HR-    C1-    C2-   O21
 12554  12552  12555  12556      9     0.00   0.65270   3 ;     HS-    C1-    C2-    HX
 12554  12552  12555  12557      9     0.00   0.65270   3 ;     HS-    C1-    C2-    C3
 12554  12552  12555  12584      9     0.00   0.00000   0 ;     HS-    C1-    C2-   O21
 12554  12552  12555  12584      9     0.00   1.04600   1 ;     HS-    C1-    C2-   O21
 12555  12557  12560  12561      9     0.00   0.00000   0 ;     C2-    C3-   O31-   P31
 12555  12557  12560  12561      9   180.00  -3.34720   2 ;     C2-    C3-   O31-   P31
 12555  12584  12585  12586      9   180.00   5.85760   1 ;     C2-   O21-   C21-   O22
 12555  12584  12585  12586      9   180.00  11.29680   2 ;     C2-   O21-   C21-   O22
 12555  12584  12585  12624      9   180.00  11.29680   2 ;     C2-   O21-   C21-   C12
 12556  12555  12557  12558      9     0.00   0.65270   3 ;     HX-    C2-    C3-    HA
 12556  12555  12557  12559      9     0.00   0.65270   3 ;     HX-    C2-    C3-    HB
 12556  12555  12557  12560      9     0.00   0.00000   0 ;     HX-    C2-    C3-   O31
 12556  12555  12557  12560      9     0.00   1.04600   1 ;     HX-    C2-    C3-   O31
 12556  12555  12584  12585      9     0.00   1.60247   3 ;     HX-    C2-   O21-   C21
 12557  12555  12584  12585      9     0.00  -0.41840   1 ;     C3-    C2-   O21-   C21
 12557  12560  12561  12562      9     0.00   2.51040   3 ;     C3-   O31-   P31-   O32
 12557  12560  12561  12562      9     0.00   9.62320   2 ;     C3-   O31-   P31-   O32
 12557  12560  12561  12582      9     0.00   0.00000   0 ;     C3-   O31-   P31-   O33
 12557  12560  12561  12582      9     0.00   0.00000   0 ;     C3-   O31-   P31-   O33
 12557  12560  12561  12582      9     0.00   0.00000   0 ;     C3-   O31-   P31-   O33
 12557  12560  12561  12582      9     0.00   0.00000   0 ;     C3-   O31-   P31-   O33
 12557  12560  12561  12582      9     0.00   0.83680   2 ;     C3-   O31-   P31-   O33
 12557  12560  12561  12583      9     0.00   0.00000   0 ;     C3-   O31-   P31-   O34
 12557  12560  12561  12583      9     0.00   0.00000   0 ;     C3-   O31-   P31-   O34
 12557  12560  12561  12583      9     0.00   0.00000   0 ;     C3-   O31-   P31-   O34
 12557  12560  12561  12583      9     0.00   0.00000   0 ;     C3-   O31-   P31-   O34
 12557  12560  12561  12583      9     0.00   0.83680   2 ;     C3-   O31-   P31-   O34
 12558  12557  12555  12584      9     0.00   0.00000   0 ;     HA-    C3-    C2-   O21
 12558  12557  12555  12584      9     0.00   1.04600   1 ;     HA-    C3-    C2-   O21
 12558  12557  12560  12561      9     0.00   0.00000   0 ;     HA-    C3-   O31-   P31
 12558  12557  12560  12561      9     0.00   0.00000   0 ;     HA-    C3-   O31-   P31
 12558  12557  12560  12561      9     0.00   0.00000   0 ;     HA-    C3-   O31-   P31
 12558  12557  12560  12561      9     0.00   0.00000   0 ;     HA-    C3-   O31-   P31
 12558  12557  12560  12561      9     0.00   1.60247   3 ;     HA-    C3-   O31-   P31
 12559  12557  12555  12584      9     0.00   0.00000   0 ;     HB-    C3-    C2-   O21
 12559  12557  12555  12584      9     0.00   1.04600   1 ;     HB-    C3-    C2-   O21
 12559  12557  12560  12561      9     0.00   0.00000   0 ;     HB-    C3-   O31-   P31
 12559  12557  12560  12561      9     0.00   0.00000   0 ;     HB-    C3-   O31-   P31
 12559  12557  12560  12561      9     0.00   0.00000   0 ;     HB-    C3-   O31-   P31
 12559  12557  12560  12561      9     0.00   0.00000   0 ;     HB-    C3-   O31-   P31
 12559  12557  12560  12561      9     0.00   1.60247   3 ;     HB-    C3-   O31-   P31
 12560  12557  12555  12584      9     0.00   0.00000   0 ;    O31-    C3-    C2-   O21
 12560  12557  12555  12584      9     0.00   0.00000   0 ;    O31-    C3-    C2-   O21
 12560  12557  12555  12584      9     0.00   0.00000   0 ;    O31-    C3-    C2-   O21
 12560  12557  12555  12584      9     0.00   0.00000   0 ;    O31-    C3-    C2-   O21
 12560  12557  12555  12584      9     0.00   0.00000   0 ;    O31-    C3-    C2-   O21
 12560  12561  12562  12563      9     0.00   2.51040   3 ;    O31-   P31-   O32-   C31
 12560  12561  12562  12563      9     0.00   9.62320   2 ;    O31-   P31-   O32-   C31
 12561  12562  12563  12564      9     0.00   0.00000   0 ;    P31-   O32-   C31-   H1A
 12561  12562  12563  12564      9     0.00   0.00000   0 ;    P31-   O32-   C31-   H1A
 12561  12562  12563  12564      9     0.00   0.00000   0 ;    P31-   O32-   C31-   H1A
 12561  12562  12563  12564      9     0.00   0.00000   0 ;    P31-   O32-   C31-   H1A
 12561  12562  12563  12564      9     0.00   1.60247   3 ;    P31-   O32-   C31-   H1A
 12561  12562  12563  12565      9     0.00   0.00000   0 ;    P31-   O32-   C31-   H1B
 12561  12562  12563  12565      9     0.00   0.00000   0 ;    P31-   O32-   C31-   H1B
 12561  12562  12563  12565      9     0.00   0.00000   0 ;    P31-   O32-   C31-   H1B
 12561  12562  12563  12565      9     0.00   0.00000   0 ;    P31-   O32-   C31-   H1B
 12561  12562  12563  12565      9     0.00   1.60247   3 ;    P31-   O32-   C31-   H1B
 12561  12562  12563  12566      9     0.00   0.00000   0 ;    P31-   O32-   C31-   C32
 12561  12562  12563  12566      9   180.00  -3.34720   2 ;    P31-   O32-   C31-   C32
 12562  12563  12566  12567      9     0.00   0.65270   3 ;    O32-   C31-   C32-   H2A
 12562  12563  12566  12568      9     0.00   0.65270   3 ;    O32-   C31-   C32-   H2B
 12562  12563  12566  12569      9     0.00   4.18400   3 ;    O32-   C31-   C32-   N31
 12563  12562  12561  12582      9     0.00   0.00000   0 ;    C31-   O32-   P31-   O33
 12563  12562  12561  12582      9     0.00   0.00000   0 ;    C31-   O32-   P31-   O33
 12563  12562  12561  12582      9     0.00   0.00000   0 ;    C31-   O32-   P31-   O33
 12563  12562  12561  12582      9     0.00   0.00000   0 ;    C31-   O32-   P31-   O33
 12563  12562  12561  12582      9     0.00   0.83680   2 ;    C31-   O32-   P31-   O33
 12563  12562  12561  12583      9     0.00   0.00000   0 ;    C31-   O32-   P31-   O34
 12563  12562  12561  12583      9     0.00   0.00000   0 ;    C31-   O32-   P31-   O34
 12563  12562  12561  12583      9     0.00   0.00000   0 ;    C31-   O32-   P31-   O34
 12563  12562  12561  12583      9     0.00   0.00000   0 ;    C31-   O32-   P31-   O34
 12563  12562  12561  12583      9     0.00   0.83680   2 ;    C31-   O32-   P31-   O34
 12563  12566  12569  12570      9     0.00   0.65270   3 ;    C31-   C32-   N31-   C33
 12563  12566  12569  12574      9     0.00   0.65270   3 ;    C31-   C32-   N31-   C34
 12563  12566  12569  12578      9     0.00   0.65270   3 ;    C31-   C32-   N31-   C35
 12564  12563  12566  12567      9     0.00   0.65270   3 ;    H1A-   C31-   C32-   H2A
 12564  12563  12566  12568      9     0.00   0.65270   3 ;    H1A-   C31-   C32-   H2B
 12564  12563  12566  12569      9     0.00   0.65270   3 ;    H1A-   C31-   C32-   N31
 12565  12563  12566  12567      9     0.00   0.65270   3 ;    H1B-   C31-   C32-   H2A
 12565  12563  12566  12568      9     0.00   0.65270   3 ;    H1B-   C31-   C32-   H2B
 12565  12563  12566  12569      9     0.00   0.65270   3 ;    H1B-   C31-   C32-   N31
 12566  12569  12570  12571      9     0.00   0.65270   3 ;    C32-   N31-   C33-   H3A
 12566  12569  12570  12572      9     0.00   0.65270   3 ;    C32-   N31-   C33-   H3B
 12566  12569  12570  12573      9     0.00   0.65270   3 ;    C32-   N31-   C33-   H3C
 12566  12569  12574  12575      9     0.00   0.65270   3 ;    C32-   N31-   C34-   H4A
 12566  12569  12574  12576      9     0.00   0.65270   3 ;    C32-   N31-   C34-   H4B
 12566  12569  12574  12577      9     0.00   0.65270   3 ;    C32-   N31-   C34-   H4C
 12566  12569  12578  12579      9     0.00   0.65270   3 ;    C32-   N31-   C35-   H5A
 12566  12569  12578  12580      9     0.00   0.65270   3 ;    C32-   N31-   C35-   H5B
 12566  12569  12578  12581      9     0.00   0.65270   3 ;    C32-   N31-   C35-   H5C
 12567  12566  12569  12570      9     0.00   0.65270   3 ;    H2A-   C32-   N31-   C33
 12567  12566  12569  12574      9     0.00   0.65270   3 ;    H2A-   C32-   N31-   C34
 12567  12566  12569  12578      9     0.00   0.65270   3 ;    H2A-   C32-   N31-   C35
 12568  12566  12569  12570      9     0.00   0.65270   3 ;    H2B-   C32-   N31-   C33
 12568  12566  12569  12574      9     0.00   0.65270   3 ;    H2B-   C32-   N31-   C34
 12568  12566  12569  12578      9     0.00   0.65270   3 ;    H2B-   C32-   N31-   C35
 12570  12569  12574  12575      9     0.00   0.65270   3 ;    C33-   N31-   C34-   H4A
 12570  12569  12574  12576      9     0.00   0.65270   3 ;    C33-   N31-   C34-   H4B
 12570  12569  12574  12577      9     0.00   0.65270   3 ;    C33-   N31-   C34-   H4C
 12570  12569  12578  12579      9     0.00   0.65270   3 ;    C33-   N31-   C35-   H5A
 12570  12569  12578  12580      9     0.00   0.65270   3 ;    C33-   N31-   C35-   H5B
 12570  12569  12578  12581      9     0.00   0.65270   3 ;    C33-   N31-   C35-   H5C
 12571  12570  12569  12574      9     0.00   0.65270   3 ;    H3A-   C33-   N31-   C34
 12571  12570  12569  12578      9     0.00   0.65270   3 ;    H3A-   C33-   N31-   C35
 12572  12570  12569  12574      9     0.00   0.65270   3 ;    H3B-   C33-   N31-   C34
 12572  12570  12569  12578      9     0.00   0.65270   3 ;    H3B-   C33-   N31-   C35
 12573  12570  12569  12574      9     0.00   0.65270   3 ;    H3C-   C33-   N31-   C34
 12573  12570  12569  12578      9     0.00   0.65270   3 ;    H3C-   C33-   N31-   C35
 12574  12569  12578  12579      9     0.00   0.65270   3 ;    C34-   N31-   C35-   H5A
 12574  12569  12578  12580      9     0.00   0.65270   3 ;    C34-   N31-   C35-   H5B
 12574  12569  12578  12581      9     0.00   0.65270   3 ;    C34-   N31-   C35-   H5C
 12575  12574  12569  12578      9     0.00   0.65270   3 ;    H4A-   C34-   N31-   C35
 12576  12574  12569  12578      9     0.00   0.65270   3 ;    H4B-   C34-   N31-   C35
 12577  12574  12569  12578      9     0.00   0.65270   3 ;    H4C-   C34-   N31-   C35
 12584  12585  12624  12621      9   180.00   0.00000   2 ;    O21-   C21-   C12-   C13
 12584  12585  12624  12625      9   180.00   0.00000   2 ;    O21-   C21-   C12-   H2R
 12584  12585  12624  12626      9   180.00   0.00000   2 ;    O21-   C21-   C12-   H2S
 12585  12624  12621  12618      9     0.00   0.65270   3 ;    C21-   C12-   C13-   C14
 12585  12624  12621  12622      9     0.00   0.65270   3 ;    C21-   C12-   C13-   H3R
 12585  12624  12621  12623      9     0.00   0.65270   3 ;    C21-   C12-   C13-   H3S
 12586  12585  12624  12621      9   180.00   0.00000   2 ;    O22-   C21-   C12-   C13
 12586  12585  12624  12625      9     0.00   3.34720   1 ;    O22-   C21-   C12-   H2R
 12586  12585  12624  12625      9   180.00   0.33472   3 ;    O22-   C21-   C12-   H2R
 12586  12585  12624  12626      9     0.00   3.34720   1 ;    O22-   C21-   C12-   H2S
 12586  12585  12624  12626      9   180.00   0.33472   3 ;    O22-   C21-   C12-   H2S
 12587  12588  12591  12592      9     0.00   0.62760   3 ;   H14T-  C114-  C113-  H13R
 12587  12588  12591  12593      9     0.00   0.62760   3 ;   H14T-  C114-  C113-  H13S
 12587  12588  12591  12594      9     0.00   0.66944   3 ;   H14T-  C114-  C113-  C112
 12588  12591  12594  12595      9     0.00   0.66944   3 ;   C114-  C113-  C112-  H12R
 12588  12591  12594  12596      9     0.00   0.66944   3 ;   C114-  C113-  C112-  H12S
 12588  12591  12594  12597      9     0.00   0.41840   1 ;   C114-  C113-  C112-  C111
 12588  12591  12594  12597      9     0.00   0.41840   2 ;   C114-  C113-  C112-  C111
 12588  12591  12594  12597      9     0.00   0.41840   4 ;   C114-  C113-  C112-  C111
 12588  12591  12594  12597      9     0.00   0.41840   5 ;   C114-  C113-  C112-  C111
 12588  12591  12594  12597      9     0.00   1.25520   3 ;   C114-  C113-  C112-  C111
 12589  12588  12591  12592      9     0.00   0.62760   3 ;   H14R-  C114-  C113-  H13R
 12589  12588  12591  12593      9     0.00   0.62760   3 ;   H14R-  C114-  C113-  H13S
 12589  12588  12591  12594      9     0.00   0.66944   3 ;   H14R-  C114-  C113-  C112
 12590  12588  12591  12592      9     0.00   0.62760   3 ;   H14S-  C114-  C113-  H13R
 12590  12588  12591  12593      9     0.00   0.62760   3 ;   H14S-  C114-  C113-  H13S
 12590  12588  12591  12594      9     0.00   0.66944   3 ;   H14S-  C114-  C113-  C112
 12591  12594  12597  12598      9     0.00   0.66944   3 ;   C113-  C112-  C111-  H11R
 12591  12594  12597  12599      9     0.00   0.66944   3 ;   C113-  C112-  C111-  H11S
 12591  12594  12597  12600      9     0.00   0.41840   1 ;   C113-  C112-  C111-  C110
 12591  12594  12597  12600      9     0.00   0.41840   2 ;   C113-  C112-  C111-  C110
 12591  12594  12597  12600      9     0.00   0.41840   4 ;   C113-  C112-  C111-  C110
 12591  12594  12597  12600      9     0.00   0.41840   5 ;   C113-  C112-  C111-  C110
 12591  12594  12597  12600      9     0.00   1.25520   3 ;   C113-  C112-  C111-  C110
 12592  12591  12594  12595      9     0.00   0.62760   3 ;   H13R-  C113-  C112-  H12R
 12592  12591  12594  12596      9     0.00   0.62760   3 ;   H13R-  C113-  C112-  H12S
 12592  12591  12594  12597      9     0.00   0.66944   3 ;   H13R-  C113-  C112-  C111
 12593  12591  12594  12595      9     0.00   0.62760   3 ;   H13S-  C113-  C112-  H12R
 12593  12591  12594  12596      9     0.00   0.62760   3 ;   H13S-  C113-  C112-  H12S
 12593  12591  12594  12597      9     0.00   0.66944   3 ;   H13S-  C113-  C112-  C111
 12594  12597  12600  12601      9     0.00   0.66944   3 ;   C112-  C111-  C110-  H10R
 12594  12597  12600  12602      9     0.00   0.66944   3 ;   C112-  C111-  C110-  H10S
 12594  12597  12600  12603      9     0.00   0.41840   1 ;   C112-  C111-  C110-   C19
 12594  12597  12600  12603      9     0.00   0.41840   2 ;   C112-  C111-  C110-   C19
 12594  12597  12600  12603      9     0.00   0.41840   4 ;   C112-  C111-  C110-   C19
 12594  12597  12600  12603      9     0.00   0.41840   5 ;   C112-  C111-  C110-   C19
 12594  12597  12600  12603      9     0.00   1.25520   3 ;   C112-  C111-  C110-   C19
 12595  12594  12597  12598      9     0.00   0.62760   3 ;   H12R-  C112-  C111-  H11R
 12595  12594  12597  12599      9     0.00   0.62760   3 ;   H12R-  C112-  C111-  H11S
 12595  12594  12597  12600      9     0.00   0.66944   3 ;   H12R-  C112-  C111-  C110
 12596  12594  12597  12598      9     0.00   0.62760   3 ;   H12S-  C112-  C111-  H11R
 12596  12594  12597  12599      9     0.00   0.62760   3 ;   H12S-  C112-  C111-  H11S
 12596  12594  12597  12600      9     0.00   0.66944   3 ;   H12S-  C112-  C111-  C110
 12597  12600  12603  12604      9     0.00   0.66944   3 ;   C111-  C110-   C19-   H9R
 12597  12600  12603  12605      9     0.00   0.66944   3 ;   C111-  C110-   C19-   H9S
 12597  12600  12603  12606      9     0.00   0.41840   1 ;   C111-  C110-   C19-   C18
 12597  12600  12603  12606      9     0.00   0.41840   2 ;   C111-  C110-   C19-   C18
 12597  12600  12603  12606      9     0.00   0.41840   4 ;   C111-  C110-   C19-   C18
 12597  12600  12603  12606      9     0.00   0.41840   5 ;   C111-  C110-   C19-   C18
 12597  12600  12603  12606      9     0.00   1.25520   3 ;   C111-  C110-   C19-   C18
 12598  12597  12600  12601      9     0.00   0.62760   3 ;   H11R-  C111-  C110-  H10R
 12598  12597  12600  12602      9     0.00   0.62760   3 ;   H11R-  C111-  C110-  H10S
 12598  12597  12600  12603      9     0.00   0.66944   3 ;   H11R-  C111-  C110-   C19
 12599  12597  12600  12601      9     0.00   0.62760   3 ;   H11S-  C111-  C110-  H10R
 12599  12597  12600  12602      9     0.00   0.62760   3 ;   H11S-  C111-  C110-  H10S
 12599  12597  12600  12603      9     0.00   0.66944   3 ;   H11S-  C111-  C110-   C19
 12600  12603  12606  12607      9     0.00   0.66944   3 ;   C110-   C19-   C18-   H8R
 12600  12603  12606  12608      9     0.00   0.66944   3 ;   C110-   C19-   C18-   H8S
 12600  12603  12606  12609      9     0.00   0.41840   1 ;   C110-   C19-   C18-   C17
 12600  12603  12606  12609      9     0.00   0.41840   2 ;   C110-   C19-   C18-   C17
 12600  12603  12606  12609      9     0.00   0.41840   4 ;   C110-   C19-   C18-   C17
 12600  12603  12606  12609      9     0.00   0.41840   5 ;   C110-   C19-   C18-   C17
 12600  12603  12606  12609      9     0.00   1.25520   3 ;   C110-   C19-   C18-   C17
 12601  12600  12603  12604      9     0.00   0.62760   3 ;   H10R-  C110-   C19-   H9R
 12601  12600  12603  12605      9     0.00   0.62760   3 ;   H10R-  C110-   C19-   H9S
 12601  12600  12603  12606      9     0.00   0.66944   3 ;   H10R-  C110-   C19-   C18
 12602  12600  12603  12604      9     0.00   0.62760   3 ;   H10S-  C110-   C19-   H9R
 12602  12600  12603  12605      9     0.00   0.62760   3 ;   H10S-  C110-   C19-   H9S
 12602  12600  12603  12606      9     0.00   0.66944   3 ;   H10S-  C110-   C19-   C18
 12603  12606  12609  12610      9     0.00   0.66944   3 ;    C19-   C18-   C17-   H7R
 12603  12606  12609  12611      9     0.00   0.66944   3 ;    C19-   C18-   C17-   H7S
 12603  12606  12609  12612      9     0.00   0.41840   1 ;    C19-   C18-   C17-   C16
 12603  12606  12609  12612      9     0.00   0.41840   2 ;    C19-   C18-   C17-   C16
 12603  12606  12609  12612      9     0.00   0.41840   4 ;    C19-   C18-   C17-   C16
 12603  12606  12609  12612      9     0.00   0.41840   5 ;    C19-   C18-   C17-   C16
 12603  12606  12609  12612      9     0.00   1.25520   3 ;    C19-   C18-   C17-   C16
 12604  12603  12606  12607      9     0.00   0.62760   3 ;    H9R-   C19-   C18-   H8R
 12604  12603  12606  12608      9     0.00   0.62760   3 ;    H9R-   C19-   C18-   H8S
 12604  12603  12606  12609      9     0.00   0.66944   3 ;    H9R-   C19-   C18-   C17
 12605  12603  12606  12607      9     0.00   0.62760   3 ;    H9S-   C19-   C18-   H8R
 12605  12603  12606  12608      9     0.00   0.62760   3 ;    H9S-   C19-   C18-   H8S
 12605  12603  12606  12609      9     0.00   0.66944   3 ;    H9S-   C19-   C18-   C17
 12606  12609  12612  12613      9     0.00   0.66944   3 ;    C18-   C17-   C16-   H6R
 12606  12609  12612  12614      9     0.00   0.66944   3 ;    C18-   C17-   C16-   H6S
 12606  12609  12612  12615      9     0.00   0.41840   1 ;    C18-   C17-   C16-   C15
 12606  12609  12612  12615      9     0.00   0.41840   2 ;    C18-   C17-   C16-   C15
 12606  12609  12612  12615      9     0.00   0.41840   4 ;    C18-   C17-   C16-   C15
 12606  12609  12612  12615      9     0.00   0.41840   5 ;    C18-   C17-   C16-   C15
 12606  12609  12612  12615      9     0.00   1.25520   3 ;    C18-   C17-   C16-   C15
 12607  12606  12609  12610      9     0.00   0.62760   3 ;    H8R-   C18-   C17-   H7R
 12607  12606  12609  12611      9     0.00   0.62760   3 ;    H8R-   C18-   C17-   H7S
 12607  12606  12609  12612      9     0.00   0.66944   3 ;    H8R-   C18-   C17-   C16
 12608  12606  12609  12610      9     0.00   0.62760   3 ;    H8S-   C18-   C17-   H7R
 12608  12606  12609  12611      9     0.00   0.62760   3 ;    H8S-   C18-   C17-   H7S
 12608  12606  12609  12612      9     0.00   0.66944   3 ;    H8S-   C18-   C17-   C16
 12609  12612  12615  12616      9     0.00   0.66944   3 ;    C17-   C16-   C15-   H5R
 12609  12612  12615  12617      9     0.00   0.66944   3 ;    C17-   C16-   C15-   H5S
 12609  12612  12615  12618      9     0.00   0.41840   1 ;    C17-   C16-   C15-   C14
 12609  12612  12615  12618      9     0.00   0.41840   2 ;    C17-   C16-   C15-   C14
 12609  12612  12615  12618      9     0.00   0.41840   4 ;    C17-   C16-   C15-   C14
 12609  12612  12615  12618      9     0.00   0.41840   5 ;    C17-   C16-   C15-   C14
 12609  12612  12615  12618      9     0.00   1.25520   3 ;    C17-   C16-   C15-   C14
 12610  12609  12612  12613      9     0.00   0.62760   3 ;    H7R-   C17-   C16-   H6R
 12610  12609  12612  12614      9     0.00   0.62760   3 ;    H7R-   C17-   C16-   H6S
 12610  12609  12612  12615      9     0.00   0.66944   3 ;    H7R-   C17-   C16-   C15
 12611  12609  12612  12613      9     0.00   0.62760   3 ;    H7S-   C17-   C16-   H6R
 12611  12609  12612  12614      9     0.00   0.62760   3 ;    H7S-   C17-   C16-   H6S
 12611  12609  12612  12615      9     0.00   0.66944   3 ;    H7S-   C17-   C16-   C15
 12612  12615  12618  12619      9     0.00   0.66944   3 ;    C16-   C15-   C14-   H4R
 12612  12615  12618  12620      9     0.00   0.66944   3 ;    C16-   C15-   C14-   H4S
 12612  12615  12618  12621      9     0.00   0.41840   1 ;    C16-   C15-   C14-   C13
 12612  12615  12618  12621      9     0.00   0.41840   2 ;    C16-   C15-   C14-   C13
 12612  12615  12618  12621      9     0.00   0.41840   4 ;    C16-   C15-   C14-   C13
 12612  12615  12618  12621      9     0.00   0.41840   5 ;    C16-   C15-   C14-   C13
 12612  12615  12618  12621      9     0.00   1.25520   3 ;    C16-   C15-   C14-   C13
 12613  12612  12615  12616      9     0.00   0.62760   3 ;    H6R-   C16-   C15-   H5R
 12613  12612  12615  12617      9     0.00   0.62760   3 ;    H6R-   C16-   C15-   H5S
 12613  12612  12615  12618      9     0.00   0.66944   3 ;    H6R-   C16-   C15-   C14
 12614  12612  12615  12616      9     0.00   0.62760   3 ;    H6S-   C16-   C15-   H5R
 12614  12612  12615  12617      9     0.00   0.62760   3 ;    H6S-   C16-   C15-   H5S
 12614  12612  12615  12618      9     0.00   0.66944   3 ;    H6S-   C16-   C15-   C14
 12615  12618  12621  12622      9     0.00   0.66944   3 ;    C15-   C14-   C13-   H3R
 12615  12618  12621  12623      9     0.00   0.66944   3 ;    C15-   C14-   C13-   H3S
 12615  12618  12621  12624      9     0.00   0.41840   1 ;    C15-   C14-   C13-   C12
 12615  12618  12621  12624      9     0.00   0.41840   2 ;    C15-   C14-   C13-   C12
 12615  12618  12621  12624      9     0.00   0.41840   4 ;    C15-   C14-   C13-   C12
 12615  12618  12621  12624      9     0.00   0.41840   5 ;    C15-   C14-   C13-   C12
 12615  12618  12621  12624      9     0.00   1.25520   3 ;    C15-   C14-   C13-   C12
 12616  12615  12618  12619      9     0.00   0.62760   3 ;    H5R-   C15-   C14-   H4R
 12616  12615  12618  12620      9     0.00   0.62760   3 ;    H5R-   C15-   C14-   H4S
 12616  12615  12618  12621      9     0.00   0.66944   3 ;    H5R-   C15-   C14-   C13
 12617  12615  12618  12619      9     0.00   0.62760   3 ;    H5S-   C15-   C14-   H4R
 12617  12615  12618  12620      9     0.00   0.62760   3 ;    H5S-   C15-   C14-   H4S
 12617  12615  12618  12621      9     0.00   0.66944   3 ;    H5S-   C15-   C14-   C13
 12618  12621  12624  12625      9     0.00   0.66944   3 ;    C14-   C13-   C12-   H2R
 12618  12621  12624  12626      9     0.00   0.66944   3 ;    C14-   C13-   C12-   H2S
 12619  12618  12621  12622      9     0.00   0.62760   3 ;    H4R-   C14-   C13-   H3R
 12619  12618  12621  12623      9     0.00   0.62760   3 ;    H4R-   C14-   C13-   H3S
 12619  12618  12621  12624      9     0.00   0.66944   3 ;    H4R-   C14-   C13-   C12
 12620  12618  12621  12622      9     0.00   0.62760   3 ;    H4S-   C14-   C13-   H3R
 12620  12618  12621  12623      9     0.00   0.62760   3 ;    H4S-   C14-   C13-   H3S
 12620  12618  12621  12624      9     0.00   0.66944   3 ;    H4S-   C14-   C13-   C12
 12622  12621  12624  12625      9     0.00   0.62760   3 ;    H3R-   C13-   C12-   H2R
 12622  12621  12624  12626      9     0.00   0.62760   3 ;    H3R-   C13-   C12-   H2S
 12623  12621  12624  12625      9     0.00   0.62760   3 ;    H3S-   C13-   C12-   H2R
 12623  12621  12624  12626      9     0.00   0.62760   3 ;    H3S-   C13-   C12-   H2S
 12627  12628  12631  12632      9     0.00   0.62760   3 ;   H14T-  C114-  C113-  H13R
 12627  12628  12631  12633      9     0.00   0.62760   3 ;   H14T-  C114-  C113-  H13S
 12627  12628  12631  12634      9     0.00   0.66944   3 ;   H14T-  C114-  C113-  C112
 12628  12631  12634  12635      9     0.00   0.66944   3 ;   C114-  C113-  C112-  H12R
 12628  12631  12634  12636      9     0.00   0.66944   3 ;   C114-  C113-  C112-  H12S
 12628  12631  12634  12637      9     0.00   0.41840   1 ;   C114-  C113-  C112-  C111
 12628  12631  12634  12637      9     0.00   0.41840   2 ;   C114-  C113-  C112-  C111
 12628  12631  12634  12637      9     0.00   0.41840   4 ;   C114-  C113-  C112-  C111
 12628  12631  12634  12637      9     0.00   0.41840   5 ;   C114-  C113-  C112-  C111
 12628  12631  12634  12637      9     0.00   1.25520   3 ;   C114-  C113-  C112-  C111
 12629  12628  12631  12632      9     0.00   0.62760   3 ;   H14R-  C114-  C113-  H13R
 12629  12628  12631  12633      9     0.00   0.62760   3 ;   H14R-  C114-  C113-  H13S
 12629  12628  12631  12634      9     0.00   0.66944   3 ;   H14R-  C114-  C113-  C112
 12630  12628  12631  12632      9     0.00   0.62760   3 ;   H14S-  C114-  C113-  H13R
 12630  12628  12631  12633      9     0.00   0.62760   3 ;   H14S-  C114-  C113-  H13S
 12630  12628  12631  12634      9     0.00   0.66944   3 ;   H14S-  C114-  C113-  C112
 12631  12634  12637  12638      9     0.00   0.66944   3 ;   C113-  C112-  C111-  H11R
 12631  12634  12637  12639      9     0.00   0.66944   3 ;   C113-  C112-  C111-  H11S
 12631  12634  12637  12640      9     0.00   0.41840   1 ;   C113-  C112-  C111-  C110
 12631  12634  12637  12640      9     0.00   0.41840   2 ;   C113-  C112-  C111-  C110
 12631  12634  12637  12640      9     0.00   0.41840   4 ;   C113-  C112-  C111-  C110
 12631  12634  12637  12640      9     0.00   0.41840   5 ;   C113-  C112-  C111-  C110
 12631  12634  12637  12640      9     0.00   1.25520   3 ;   C113-  C112-  C111-  C110
 12632  12631  12634  12635      9     0.00   0.62760   3 ;   H13R-  C113-  C112-  H12R
 12632  12631  12634  12636      9     0.00   0.62760   3 ;   H13R-  C113-  C112-  H12S
 12632  12631  12634  12637      9     0.00   0.66944   3 ;   H13R-  C113-  C112-  C111
 12633  12631  12634  12635      9     0.00   0.62760   3 ;   H13S-  C113-  C112-  H12R
 12633  12631  12634  12636      9     0.00   0.62760   3 ;   H13S-  C113-  C112-  H12S
 12633  12631  12634  12637      9     0.00   0.66944   3 ;   H13S-  C113-  C112-  C111
 12634  12637  12640  12641      9     0.00   0.66944   3 ;   C112-  C111-  C110-  H10R
 12634  12637  12640  12642      9     0.00   0.66944   3 ;   C112-  C111-  C110-  H10S
 12634  12637  12640  12643      9     0.00   0.41840   1 ;   C112-  C111-  C110-   C19
 12634  12637  12640  12643      9     0.00   0.41840   2 ;   C112-  C111-  C110-   C19
 12634  12637  12640  12643      9     0.00   0.41840   4 ;   C112-  C111-  C110-   C19
 12634  12637  12640  12643      9     0.00   0.41840   5 ;   C112-  C111-  C110-   C19
 12634  12637  12640  12643      9     0.00   1.25520   3 ;   C112-  C111-  C110-   C19
 12635  12634  12637  12638      9     0.00   0.62760   3 ;   H12R-  C112-  C111-  H11R
 12635  12634  12637  12639      9     0.00   0.62760   3 ;   H12R-  C112-  C111-  H11S
 12635  12634  12637  12640      9     0.00   0.66944   3 ;   H12R-  C112-  C111-  C110
 12636  12634  12637  12638      9     0.00   0.62760   3 ;   H12S-  C112-  C111-  H11R
 12636  12634  12637  12639      9     0.00   0.62760   3 ;   H12S-  C112-  C111-  H11S
 12636  12634  12637  12640      9     0.00   0.66944   3 ;   H12S-  C112-  C111-  C110
 12637  12640  12643  12644      9     0.00   0.66944   3 ;   C111-  C110-   C19-   H9R
 12637  12640  12643  12645      9     0.00   0.66944   3 ;   C111-  C110-   C19-   H9S
 12637  12640  12643  12646      9     0.00   0.41840   1 ;   C111-  C110-   C19-   C18
 12637  12640  12643  12646      9     0.00   0.41840   2 ;   C111-  C110-   C19-   C18
 12637  12640  12643  12646      9     0.00   0.41840   4 ;   C111-  C110-   C19-   C18
 12637  12640  12643  12646      9     0.00   0.41840   5 ;   C111-  C110-   C19-   C18
 12637  12640  12643  12646      9     0.00   1.25520   3 ;   C111-  C110-   C19-   C18
 12638  12637  12640  12641      9     0.00   0.62760   3 ;   H11R-  C111-  C110-  H10R
 12638  12637  12640  12642      9     0.00   0.62760   3 ;   H11R-  C111-  C110-  H10S
 12638  12637  12640  12643      9     0.00   0.66944   3 ;   H11R-  C111-  C110-   C19
 12639  12637  12640  12641      9     0.00   0.62760   3 ;   H11S-  C111-  C110-  H10R
 12639  12637  12640  12642      9     0.00   0.62760   3 ;   H11S-  C111-  C110-  H10S
 12639  12637  12640  12643      9     0.00   0.66944   3 ;   H11S-  C111-  C110-   C19
 12640  12643  12646  12647      9     0.00   0.66944   3 ;   C110-   C19-   C18-   H8R
 12640  12643  12646  12648      9     0.00   0.66944   3 ;   C110-   C19-   C18-   H8S
 12640  12643  12646  12649      9     0.00   0.41840   1 ;   C110-   C19-   C18-   C17
 12640  12643  12646  12649      9     0.00   0.41840   2 ;   C110-   C19-   C18-   C17
 12640  12643  12646  12649      9     0.00   0.41840   4 ;   C110-   C19-   C18-   C17
 12640  12643  12646  12649      9     0.00   0.41840   5 ;   C110-   C19-   C18-   C17
 12640  12643  12646  12649      9     0.00   1.25520   3 ;   C110-   C19-   C18-   C17
 12641  12640  12643  12644      9     0.00   0.62760   3 ;   H10R-  C110-   C19-   H9R
 12641  12640  12643  12645      9     0.00   0.62760   3 ;   H10R-  C110-   C19-   H9S
 12641  12640  12643  12646      9     0.00   0.66944   3 ;   H10R-  C110-   C19-   C18
 12642  12640  12643  12644      9     0.00   0.62760   3 ;   H10S-  C110-   C19-   H9R
 12642  12640  12643  12645      9     0.00   0.62760   3 ;   H10S-  C110-   C19-   H9S
 12642  12640  12643  12646      9     0.00   0.66944   3 ;   H10S-  C110-   C19-   C18
 12643  12646  12649  12650      9     0.00   0.66944   3 ;    C19-   C18-   C17-   H7R
 12643  12646  12649  12651      9     0.00   0.66944   3 ;    C19-   C18-   C17-   H7S
 12643  12646  12649  12652      9     0.00   0.41840   1 ;    C19-   C18-   C17-   C16
 12643  12646  12649  12652      9     0.00   0.41840   2 ;    C19-   C18-   C17-   C16
 12643  12646  12649  12652      9     0.00   0.41840   4 ;    C19-   C18-   C17-   C16
 12643  12646  12649  12652      9     0.00   0.41840   5 ;    C19-   C18-   C17-   C16
 12643  12646  12649  12652      9     0.00   1.25520   3 ;    C19-   C18-   C17-   C16
 12644  12643  12646  12647      9     0.00   0.62760   3 ;    H9R-   C19-   C18-   H8R
 12644  12643  12646  12648      9     0.00   0.62760   3 ;    H9R-   C19-   C18-   H8S
 12644  12643  12646  12649      9     0.00   0.66944   3 ;    H9R-   C19-   C18-   C17
 12645  12643  12646  12647      9     0.00   0.62760   3 ;    H9S-   C19-   C18-   H8R
 12645  12643  12646  12648      9     0.00   0.62760   3 ;    H9S-   C19-   C18-   H8S
 12645  12643  12646  12649      9     0.00   0.66944   3 ;    H9S-   C19-   C18-   C17
 12646  12649  12652  12653      9     0.00   0.66944   3 ;    C18-   C17-   C16-   H6R
 12646  12649  12652  12654      9     0.00   0.66944   3 ;    C18-   C17-   C16-   H6S
 12646  12649  12652  12655      9     0.00   0.41840   1 ;    C18-   C17-   C16-   C15
 12646  12649  12652  12655      9     0.00   0.41840   2 ;    C18-   C17-   C16-   C15
 12646  12649  12652  12655      9     0.00   0.41840   4 ;    C18-   C17-   C16-   C15
 12646  12649  12652  12655      9     0.00   0.41840   5 ;    C18-   C17-   C16-   C15
 12646  12649  12652  12655      9     0.00   1.25520   3 ;    C18-   C17-   C16-   C15
 12647  12646  12649  12650      9     0.00   0.62760   3 ;    H8R-   C18-   C17-   H7R
 12647  12646  12649  12651      9     0.00   0.62760   3 ;    H8R-   C18-   C17-   H7S
 12647  12646  12649  12652      9     0.00   0.66944   3 ;    H8R-   C18-   C17-   C16
 12648  12646  12649  12650      9     0.00   0.62760   3 ;    H8S-   C18-   C17-   H7R
 12648  12646  12649  12651      9     0.00   0.62760   3 ;    H8S-   C18-   C17-   H7S
 12648  12646  12649  12652      9     0.00   0.66944   3 ;    H8S-   C18-   C17-   C16
 12649  12652  12655  12656      9     0.00   0.66944   3 ;    C17-   C16-   C15-   H5R
 12649  12652  12655  12657      9     0.00   0.66944   3 ;    C17-   C16-   C15-   H5S
 12649  12652  12655  12658      9     0.00   0.41840   1 ;    C17-   C16-   C15-   C14
 12649  12652  12655  12658      9     0.00   0.41840   2 ;    C17-   C16-   C15-   C14
 12649  12652  12655  12658      9     0.00   0.41840   4 ;    C17-   C16-   C15-   C14
 12649  12652  12655  12658      9     0.00   0.41840   5 ;    C17-   C16-   C15-   C14
 12649  12652  12655  12658      9     0.00   1.25520   3 ;    C17-   C16-   C15-   C14
 12650  12649  12652  12653      9     0.00   0.62760   3 ;    H7R-   C17-   C16-   H6R
 12650  12649  12652  12654      9     0.00   0.62760   3 ;    H7R-   C17-   C16-   H6S
 12650  12649  12652  12655      9     0.00   0.66944   3 ;    H7R-   C17-   C16-   C15
 12651  12649  12652  12653      9     0.00   0.62760   3 ;    H7S-   C17-   C16-   H6R
 12651  12649  12652  12654      9     0.00   0.62760   3 ;    H7S-   C17-   C16-   H6S
 12651  12649  12652  12655      9     0.00   0.66944   3 ;    H7S-   C17-   C16-   C15
 12652  12655  12658  12659      9     0.00   0.66944   3 ;    C16-   C15-   C14-   H4R
 12652  12655  12658  12660      9     0.00   0.66944   3 ;    C16-   C15-   C14-   H4S
 12652  12655  12658  12661      9     0.00   0.41840   1 ;    C16-   C15-   C14-   C13
 12652  12655  12658  12661      9     0.00   0.41840   2 ;    C16-   C15-   C14-   C13
 12652  12655  12658  12661      9     0.00   0.41840   4 ;    C16-   C15-   C14-   C13
 12652  12655  12658  12661      9     0.00   0.41840   5 ;    C16-   C15-   C14-   C13
 12652  12655  12658  12661      9     0.00   1.25520   3 ;    C16-   C15-   C14-   C13
 12653  12652  12655  12656      9     0.00   0.62760   3 ;    H6R-   C16-   C15-   H5R
 12653  12652  12655  12657      9     0.00   0.62760   3 ;    H6R-   C16-   C15-   H5S
 12653  12652  12655  12658      9     0.00   0.66944   3 ;    H6R-   C16-   C15-   C14
 12654  12652  12655  12656      9     0.00   0.62760   3 ;    H6S-   C16-   C15-   H5R
 12654  12652  12655  12657      9     0.00   0.62760   3 ;    H6S-   C16-   C15-   H5S
 12654  12652  12655  12658      9     0.00   0.66944   3 ;    H6S-   C16-   C15-   C14
 12655  12658  12661  12662      9     0.00   0.66944   3 ;    C15-   C14-   C13-   H3R
 12655  12658  12661  12663      9     0.00   0.66944   3 ;    C15-   C14-   C13-   H3S
 12655  12658  12661  12664      9     0.00   0.41840   1 ;    C15-   C14-   C13-   C12
 12655  12658  12661  12664      9     0.00   0.41840   2 ;    C15-   C14-   C13-   C12
 12655  12658  12661  12664      9     0.00   0.41840   4 ;    C15-   C14-   C13-   C12
 12655  12658  12661  12664      9     0.00   0.41840   5 ;    C15-   C14-   C13-   C12
 12655  12658  12661  12664      9     0.00   1.25520   3 ;    C15-   C14-   C13-   C12
 12656  12655  12658  12659      9     0.00   0.62760   3 ;    H5R-   C15-   C14-   H4R
 12656  12655  12658  12660      9     0.00   0.62760   3 ;    H5R-   C15-   C14-   H4S
 12656  12655  12658  12661      9     0.00   0.66944   3 ;    H5R-   C15-   C14-   C13
 12657  12655  12658  12659      9     0.00   0.62760   3 ;    H5S-   C15-   C14-   H4R
 12657  12655  12658  12660      9     0.00   0.62760   3 ;    H5S-   C15-   C14-   H4S
 12657  12655  12658  12661      9     0.00   0.66944   3 ;    H5S-   C15-   C14-   C13
 12658  12661  12664  12665      9     0.00   0.66944   3 ;    C14-   C13-   C12-   H2R
 12658  12661  12664  12666      9     0.00   0.66944   3 ;    C14-   C13-   C12-   H2S
 12658  12661  12664  12667      9     0.00   0.65270   3 ;    C14-   C13-   C12-   C11
 12659  12658  12661  12662      9     0.00   0.62760   3 ;    H4R-   C14-   C13-   H3R
 12659  12658  12661  12663      9     0.00   0.62760   3 ;    H4R-   C14-   C13-   H3S
 12659  12658  12661  12664      9     0.00   0.66944   3 ;    H4R-   C14-   C13-   C12
 12660  12658  12661  12662      9     0.00   0.62760   3 ;    H4S-   C14-   C13-   H3R
 12660  12658  12661  12663      9     0.00   0.62760   3 ;    H4S-   C14-   C13-   H3S
 12660  12658  12661  12664      9     0.00   0.66944   3 ;    H4S-   C14-   C13-   C12
 12661  12664  12667  12668      9   180.00   0.00000   2 ;    C13-   C12-   C11-   O12
 12661  12664  12667  12669      9   180.00   0.00000   2 ;    C13-   C12-   C11-   O11
 12662  12661  12664  12665      9     0.00   0.62760   3 ;    H3R-   C13-   C12-   H2R
 12662  12661  12664  12666      9     0.00   0.62760   3 ;    H3R-   C13-   C12-   H2S
 12662  12661  12664  12667      9     0.00   0.65270   3 ;    H3R-   C13-   C12-   C11
 12663  12661  12664  12665      9     0.00   0.62760   3 ;    H3S-   C13-   C12-   H2R
 12663  12661  12664  12666      9     0.00   0.62760   3 ;    H3S-   C13-   C12-   H2S
 12663  12661  12664  12667      9     0.00   0.65270   3 ;    H3S-   C13-   C12-   C11
 12664  12667  12669  12670      9   180.00  11.29680   2 ;    C12-   C11-   O11-    C1
 12665  12664  12667  12668      9     0.00   3.34720   1 ;    H2R-   C12-   C11-   O12
 12665  12664  12667  12668      9   180.00   0.33472   3 ;    H2R-   C12-   C11-   O12
 12665  12664  12667  12669      9   180.00   0.00000   2 ;    H2R-   C12-   C11-   O11
 12666  12664  12667  12668      9     0.00   3.34720   1 ;    H2S-   C12-   C11-   O12
 12666  12664  12667  12668      9   180.00   0.33472   3 ;    H2S-   C12-   C11-   O12
 12666  12664  12667  12669      9   180.00   0.00000   2 ;    H2S-   C12-   C11-   O11
 12667  12669  12670  12671      9     0.00   1.60247   3 ;    C11-   O11-    C1-    HR
 12667  12669  12670  12672      9     0.00   1.60247   3 ;    C11-   O11-    C1-    HS
 12667  12669  12670  12673      9     0.00  -0.41840   1 ;    C11-   O11-    C1-    C2
 12668  12667  12669  12670      9   180.00   5.85760   1 ;    O12-   C11-   O11-    C1
 12668  12667  12669  12670      9   180.00  11.29680   2 ;    O12-   C11-   O11-    C1
 12669  12670  12673  12674      9     0.00   0.00000   0 ;    O11-    C1-    C2-    HX
 12669  12670  12673  12674      9     0.00   1.04600   1 ;    O11-    C1-    C2-    HX
 12669  12670  12673  12675      9     0.00   0.00000   0 ;    O11-    C1-    C2-    C3
 12669  12670  12673  12675      9     0.00   0.00000   0 ;    O11-    C1-    C2-    C3
 12669  12670  12673  12675      9     0.00   0.00000   0 ;    O11-    C1-    C2-    C3
 12669  12670  12673  12675      9     0.00   0.00000   0 ;    O11-    C1-    C2-    C3
 12669  12670  12673  12675      9     0.00   0.00000   0 ;    O11-    C1-    C2-    C3
 12669  12670  12673  12702      9     0.00   1.25520   2 ;    O11-    C1-    C2-   O21
 12669  12670  12673  12702      9     0.00   4.18400   3 ;    O11-    C1-    C2-   O21
 12669  12670  12673  12702      9   180.00  -0.41840   1 ;    O11-    C1-    C2-   O21
 12670  12673  12675  12676      9     0.00   0.65270   3 ;     C1-    C2-    C3-    HA
 12670  12673  12675  12677      9     0.00   0.65270   3 ;     C1-    C2-    C3-    HB
 12670  12673  12675  12678      9   180.00   3.34720   1 ;     C1-    C2-    C3-   O31
 12670  12673  12702  12703      9     0.00  -0.41840   1 ;     C1-    C2-   O21-   C21
 12671  12670  12673  12674      9     0.00   0.65270   3 ;     HR-    C1-    C2-    HX
 12671  12670  12673  12675      9     0.00   0.65270   3 ;     HR-    C1-    C2-    C3
 12671  12670  12673  12702      9     0.00   0.00000   0 ;     HR-    C1-    C2-   O21
 12671  12670  12673  12702      9     0.00   1.04600   1 ;     HR-    C1-    C2-   O21
 12672  12670  12673  12674      9     0.00   0.65270   3 ;     HS-    C1-    C2-    HX
 12672  12670  12673  12675      9     0.00   0.65270   3 ;     HS-    C1-    C2-    C3
 12672  12670  12673  12702      9     0.00   0.00000   0 ;     HS-    C1-    C2-   O21
 12672  12670  12673  12702      9     0.00   1.04600   1 ;     HS-    C1-    C2-   O21
 12673  12675  12678  12679      9     0.00   0.00000   0 ;     C2-    C3-   O31-   P31
 12673  12675  12678  12679      9   180.00  -3.34720   2 ;     C2-    C3-   O31-   P31
 12673  12702  12703  12704      9   180.00   5.85760   1 ;     C2-   O21-   C21-   O22
 12673  12702  12703  12704      9   180.00  11.29680   2 ;     C2-   O21-   C21-   O22
 12673  12702  12703  12742      9   180.00  11.29680   2 ;     C2-   O21-   C21-   C12
 12674  12673  12675  12676      9     0.00   0.65270   3 ;     HX-    C2-    C3-    HA
 12674  12673  12675  12677      9     0.00   0.65270   3 ;     HX-    C2-    C3-    HB
 12674  12673  12675  12678      9     0.00   0.00000   0 ;     HX-    C2-    C3-   O31
 12674  12673  12675  12678      9     0.00   1.04600   1 ;     HX-    C2-    C3-   O31
 12674  12673  12702  12703      9     0.00   1.60247   3 ;     HX-    C2-   O21-   C21
 12675  12673  12702  12703      9     0.00  -0.41840   1 ;     C3-    C2-   O21-   C21
 12675  12678  12679  12680      9     0.00   2.51040   3 ;     C3-   O31-   P31-   O32
 12675  12678  12679  12680      9     0.00   9.62320   2 ;     C3-   O31-   P31-   O32
 12675  12678  12679  12700      9     0.00   0.00000   0 ;     C3-   O31-   P31-   O33
 12675  12678  12679  12700      9     0.00   0.00000   0 ;     C3-   O31-   P31-   O33
 12675  12678  12679  12700      9     0.00   0.00000   0 ;     C3-   O31-   P31-   O33
 12675  12678  12679  12700      9     0.00   0.00000   0 ;     C3-   O31-   P31-   O33
 12675  12678  12679  12700      9     0.00   0.83680   2 ;     C3-   O31-   P31-   O33
 12675  12678  12679  12701      9     0.00   0.00000   0 ;     C3-   O31-   P31-   O34
 12675  12678  12679  12701      9     0.00   0.00000   0 ;     C3-   O31-   P31-   O34
 12675  12678  12679  12701      9     0.00   0.00000   0 ;     C3-   O31-   P31-   O34
 12675  12678  12679  12701      9     0.00   0.00000   0 ;     C3-   O31-   P31-   O34
 12675  12678  12679  12701      9     0.00   0.83680   2 ;     C3-   O31-   P31-   O34
 12676  12675  12673  12702      9     0.00   0.00000   0 ;     HA-    C3-    C2-   O21
 12676  12675  12673  12702      9     0.00   1.04600   1 ;     HA-    C3-    C2-   O21
 12676  12675  12678  12679      9     0.00   0.00000   0 ;     HA-    C3-   O31-   P31
 12676  12675  12678  12679      9     0.00   0.00000   0 ;     HA-    C3-   O31-   P31
 12676  12675  12678  12679      9     0.00   0.00000   0 ;     HA-    C3-   O31-   P31
 12676  12675  12678  12679      9     0.00   0.00000   0 ;     HA-    C3-   O31-   P31
 12676  12675  12678  12679      9     0.00   1.60247   3 ;     HA-    C3-   O31-   P31
 12677  12675  12673  12702      9     0.00   0.00000   0 ;     HB-    C3-    C2-   O21
 12677  12675  12673  12702      9     0.00   1.04600   1 ;     HB-    C3-    C2-   O21
 12677  12675  12678  12679      9     0.00   0.00000   0 ;     HB-    C3-   O31-   P31
 12677  12675  12678  12679      9     0.00   0.00000   0 ;     HB-    C3-   O31-   P31
 12677  12675  12678  12679      9     0.00   0.00000   0 ;     HB-    C3-   O31-   P31
 12677  12675  12678  12679      9     0.00   0.00000   0 ;     HB-    C3-   O31-   P31
 12677  12675  12678  12679      9     0.00   1.60247   3 ;     HB-    C3-   O31-   P31
 12678  12675  12673  12702      9     0.00   0.00000   0 ;    O31-    C3-    C2-   O21
 12678  12675  12673  12702      9     0.00   0.00000   0 ;    O31-    C3-    C2-   O21
 12678  12675  12673  12702      9     0.00   0.00000   0 ;    O31-    C3-    C2-   O21
 12678  12675  12673  12702      9     0.00   0.00000   0 ;    O31-    C3-    C2-   O21
 12678  12675  12673  12702      9     0.00   0.00000   0 ;    O31-    C3-    C2-   O21
 12678  12679  12680  12681      9     0.00   2.51040   3 ;    O31-   P31-   O32-   C31
 12678  12679  12680  12681      9     0.00   9.62320   2 ;    O31-   P31-   O32-   C31
 12679  12680  12681  12682      9     0.00   0.00000   0 ;    P31-   O32-   C31-   H1A
 12679  12680  12681  12682      9     0.00   0.00000   0 ;    P31-   O32-   C31-   H1A
 12679  12680  12681  12682      9     0.00   0.00000   0 ;    P31-   O32-   C31-   H1A
 12679  12680  12681  12682      9     0.00   0.00000   0 ;    P31-   O32-   C31-   H1A
 12679  12680  12681  12682      9     0.00   1.60247   3 ;    P31-   O32-   C31-   H1A
 12679  12680  12681  12683      9     0.00   0.00000   0 ;    P31-   O32-   C31-   H1B
 12679  12680  12681  12683      9     0.00   0.00000   0 ;    P31-   O32-   C31-   H1B
 12679  12680  12681  12683      9     0.00   0.00000   0 ;    P31-   O32-   C31-   H1B
 12679  12680  12681  12683      9     0.00   0.00000   0 ;    P31-   O32-   C31-   H1B
 12679  12680  12681  12683      9     0.00   1.60247   3 ;    P31-   O32-   C31-   H1B
 12679  12680  12681  12684      9     0.00   0.00000   0 ;    P31-   O32-   C31-   C32
 12679  12680  12681  12684      9   180.00  -3.34720   2 ;    P31-   O32-   C31-   C32
 12680  12681  12684  12685      9     0.00   0.65270   3 ;    O32-   C31-   C32-   H2A
 12680  12681  12684  12686      9     0.00   0.65270   3 ;    O32-   C31-   C32-   H2B
 12680  12681  12684  12687      9     0.00   4.18400   3 ;    O32-   C31-   C32-   N31
 12681  12680  12679  12700      9     0.00   0.00000   0 ;    C31-   O32-   P31-   O33
 12681  12680  12679  12700      9     0.00   0.00000   0 ;    C31-   O32-   P31-   O33
 12681  12680  12679  12700      9     0.00   0.00000   0 ;    C31-   O32-   P31-   O33
 12681  12680  12679  12700      9     0.00   0.00000   0 ;    C31-   O32-   P31-   O33
 12681  12680  12679  12700      9     0.00   0.83680   2 ;    C31-   O32-   P31-   O33
 12681  12680  12679  12701      9     0.00   0.00000   0 ;    C31-   O32-   P31-   O34
 12681  12680  12679  12701      9     0.00   0.00000   0 ;    C31-   O32-   P31-   O34
 12681  12680  12679  12701      9     0.00   0.00000   0 ;    C31-   O32-   P31-   O34
 12681  12680  12679  12701      9     0.00   0.00000   0 ;    C31-   O32-   P31-   O34
 12681  12680  12679  12701      9     0.00   0.83680   2 ;    C31-   O32-   P31-   O34
 12681  12684  12687  12688      9     0.00   0.65270   3 ;    C31-   C32-   N31-   C33
 12681  12684  12687  12692      9     0.00   0.65270   3 ;    C31-   C32-   N31-   C34
 12681  12684  12687  12696      9     0.00   0.65270   3 ;    C31-   C32-   N31-   C35
 12682  12681  12684  12685      9     0.00   0.65270   3 ;    H1A-   C31-   C32-   H2A
 12682  12681  12684  12686      9     0.00   0.65270   3 ;    H1A-   C31-   C32-   H2B
 12682  12681  12684  12687      9     0.00   0.65270   3 ;    H1A-   C31-   C32-   N31
 12683  12681  12684  12685      9     0.00   0.65270   3 ;    H1B-   C31-   C32-   H2A
 12683  12681  12684  12686      9     0.00   0.65270   3 ;    H1B-   C31-   C32-   H2B
 12683  12681  12684  12687      9     0.00   0.65270   3 ;    H1B-   C31-   C32-   N31
 12684  12687  12688  12689      9     0.00   0.65270   3 ;    C32-   N31-   C33-   H3A
 12684  12687  12688  12690      9     0.00   0.65270   3 ;    C32-   N31-   C33-   H3B
 12684  12687  12688  12691      9     0.00   0.65270   3 ;    C32-   N31-   C33-   H3C
 12684  12687  12692  12693      9     0.00   0.65270   3 ;    C32-   N31-   C34-   H4A
 12684  12687  12692  12694      9     0.00   0.65270   3 ;    C32-   N31-   C34-   H4B
 12684  12687  12692  12695      9     0.00   0.65270   3 ;    C32-   N31-   C34-   H4C
 12684  12687  12696  12697      9     0.00   0.65270   3 ;    C32-   N31-   C35-   H5A
 12684  12687  12696  12698      9     0.00   0.65270   3 ;    C32-   N31-   C35-   H5B
 12684  12687  12696  12699      9     0.00   0.65270   3 ;    C32-   N31-   C35-   H5C
 12685  12684  12687  12688      9     0.00   0.65270   3 ;    H2A-   C32-   N31-   C33
 12685  12684  12687  12692      9     0.00   0.65270   3 ;    H2A-   C32-   N31-   C34
 12685  12684  12687  12696      9     0.00   0.65270   3 ;    H2A-   C32-   N31-   C35
 12686  12684  12687  12688      9     0.00   0.65270   3 ;    H2B-   C32-   N31-   C33
 12686  12684  12687  12692      9     0.00   0.65270   3 ;    H2B-   C32-   N31-   C34
 12686  12684  12687  12696      9     0.00   0.65270   3 ;    H2B-   C32-   N31-   C35
 12688  12687  12692  12693      9     0.00   0.65270   3 ;    C33-   N31-   C34-   H4A
 12688  12687  12692  12694      9     0.00   0.65270   3 ;    C33-   N31-   C34-   H4B
 12688  12687  12692  12695      9     0.00   0.65270   3 ;    C33-   N31-   C34-   H4C
 12688  12687  12696  12697      9     0.00   0.65270   3 ;    C33-   N31-   C35-   H5A
 12688  12687  12696  12698      9     0.00   0.65270   3 ;    C33-   N31-   C35-   H5B
 12688  12687  12696  12699      9     0.00   0.65270   3 ;    C33-   N31-   C35-   H5C
 12689  12688  12687  12692      9     0.00   0.65270   3 ;    H3A-   C33-   N31-   C34
 12689  12688  12687  12696      9     0.00   0.65270   3 ;    H3A-   C33-   N31-   C35
 12690  12688  12687  12692      9     0.00   0.65270   3 ;    H3B-   C33-   N31-   C34
 12690  12688  12687  12696      9     0.00   0.65270   3 ;    H3B-   C33-   N31-   C35
 12691  12688  12687  12692      9     0.00   0.65270   3 ;    H3C-   C33-   N31-   C34
 12691  12688  12687  12696      9     0.00   0.65270   3 ;    H3C-   C33-   N31-   C35
 12692  12687  12696  12697      9     0.00   0.65270   3 ;    C34-   N31-   C35-   H5A
 12692  12687  12696  12698      9     0.00   0.65270   3 ;    C34-   N31-   C35-   H5B
 12692  12687  12696  12699      9     0.00   0.65270   3 ;    C34-   N31-   C35-   H5C
 12693  12692  12687  12696      9     0.00   0.65270   3 ;    H4A-   C34-   N31-   C35
 12694  12692  12687  12696      9     0.00   0.65270   3 ;    H4B-   C34-   N31-   C35
 12695  12692  12687  12696      9     0.00   0.65270   3 ;    H4C-   C34-   N31-   C35
 12702  12703  12742  12739      9   180.00   0.00000   2 ;    O21-   C21-   C12-   C13
 12702  12703  12742  12743      9   180.00   0.00000   2 ;    O21-   C21-   C12-   H2R
 12702  12703  12742  12744      9   180.00   0.00000   2 ;    O21-   C21-   C12-   H2S
 12703  12742  12739  12736      9     0.00   0.65270   3 ;    C21-   C12-   C13-   C14
 12703  12742  12739  12740      9     0.00   0.65270   3 ;    C21-   C12-   C13-   H3R
 12703  12742  12739  12741      9     0.00   0.65270   3 ;    C21-   C12-   C13-   H3S
 12704  12703  12742  12739      9   180.00   0.00000   2 ;    O22-   C21-   C12-   C13
 12704  12703  12742  12743      9     0.00   3.34720   1 ;    O22-   C21-   C12-   H2R
 12704  12703  12742  12743      9   180.00   0.33472   3 ;    O22-   C21-   C12-   H2R
 12704  12703  12742  12744      9     0.00   3.34720   1 ;    O22-   C21-   C12-   H2S
 12704  12703  12742  12744      9   180.00   0.33472   3 ;    O22-   C21-   C12-   H2S
 12705  12706  12709  12710      9     0.00   0.62760   3 ;   H14T-  C114-  C113-  H13R
 12705  12706  12709  12711      9     0.00   0.62760   3 ;   H14T-  C114-  C113-  H13S
 12705  12706  12709  12712      9     0.00   0.66944   3 ;   H14T-  C114-  C113-  C112
 12706  12709  12712  12713      9     0.00   0.66944   3 ;   C114-  C113-  C112-  H12R
 12706  12709  12712  12714      9     0.00   0.66944   3 ;   C114-  C113-  C112-  H12S
 12706  12709  12712  12715      9     0.00   0.41840   1 ;   C114-  C113-  C112-  C111
 12706  12709  12712  12715      9     0.00   0.41840   2 ;   C114-  C113-  C112-  C111
 12706  12709  12712  12715      9     0.00   0.41840   4 ;   C114-  C113-  C112-  C111
 12706  12709  12712  12715      9     0.00   0.41840   5 ;   C114-  C113-  C112-  C111
 12706  12709  12712  12715      9     0.00   1.25520   3 ;   C114-  C113-  C112-  C111
 12707  12706  12709  12710      9     0.00   0.62760   3 ;   H14R-  C114-  C113-  H13R
 12707  12706  12709  12711      9     0.00   0.62760   3 ;   H14R-  C114-  C113-  H13S
 12707  12706  12709  12712      9     0.00   0.66944   3 ;   H14R-  C114-  C113-  C112
 12708  12706  12709  12710      9     0.00   0.62760   3 ;   H14S-  C114-  C113-  H13R
 12708  12706  12709  12711      9     0.00   0.62760   3 ;   H14S-  C114-  C113-  H13S
 12708  12706  12709  12712      9     0.00   0.66944   3 ;   H14S-  C114-  C113-  C112
 12709  12712  12715  12716      9     0.00   0.66944   3 ;   C113-  C112-  C111-  H11R
 12709  12712  12715  12717      9     0.00   0.66944   3 ;   C113-  C112-  C111-  H11S
 12709  12712  12715  12718      9     0.00   0.41840   1 ;   C113-  C112-  C111-  C110
 12709  12712  12715  12718      9     0.00   0.41840   2 ;   C113-  C112-  C111-  C110
 12709  12712  12715  12718      9     0.00   0.41840   4 ;   C113-  C112-  C111-  C110
 12709  12712  12715  12718      9     0.00   0.41840   5 ;   C113-  C112-  C111-  C110
 12709  12712  12715  12718      9     0.00   1.25520   3 ;   C113-  C112-  C111-  C110
 12710  12709  12712  12713      9     0.00   0.62760   3 ;   H13R-  C113-  C112-  H12R
 12710  12709  12712  12714      9     0.00   0.62760   3 ;   H13R-  C113-  C112-  H12S
 12710  12709  12712  12715      9     0.00   0.66944   3 ;   H13R-  C113-  C112-  C111
 12711  12709  12712  12713      9     0.00   0.62760   3 ;   H13S-  C113-  C112-  H12R
 12711  12709  12712  12714      9     0.00   0.62760   3 ;   H13S-  C113-  C112-  H12S
 12711  12709  12712  12715      9     0.00   0.66944   3 ;   H13S-  C113-  C112-  C111
 12712  12715  12718  12719      9     0.00   0.66944   3 ;   C112-  C111-  C110-  H10R
 12712  12715  12718  12720      9     0.00   0.66944   3 ;   C112-  C111-  C110-  H10S
 12712  12715  12718  12721      9     0.00   0.41840   1 ;   C112-  C111-  C110-   C19
 12712  12715  12718  12721      9     0.00   0.41840   2 ;   C112-  C111-  C110-   C19
 12712  12715  12718  12721      9     0.00   0.41840   4 ;   C112-  C111-  C110-   C19
 12712  12715  12718  12721      9     0.00   0.41840   5 ;   C112-  C111-  C110-   C19
 12712  12715  12718  12721      9     0.00   1.25520   3 ;   C112-  C111-  C110-   C19
 12713  12712  12715  12716      9     0.00   0.62760   3 ;   H12R-  C112-  C111-  H11R
 12713  12712  12715  12717      9     0.00   0.62760   3 ;   H12R-  C112-  C111-  H11S
 12713  12712  12715  12718      9     0.00   0.66944   3 ;   H12R-  C112-  C111-  C110
 12714  12712  12715  12716      9     0.00   0.62760   3 ;   H12S-  C112-  C111-  H11R
 12714  12712  12715  12717      9     0.00   0.62760   3 ;   H12S-  C112-  C111-  H11S
 12714  12712  12715  12718      9     0.00   0.66944   3 ;   H12S-  C112-  C111-  C110
 12715  12718  12721  12722      9     0.00   0.66944   3 ;   C111-  C110-   C19-   H9R
 12715  12718  12721  12723      9     0.00   0.66944   3 ;   C111-  C110-   C19-   H9S
 12715  12718  12721  12724      9     0.00   0.41840   1 ;   C111-  C110-   C19-   C18
 12715  12718  12721  12724      9     0.00   0.41840   2 ;   C111-  C110-   C19-   C18
 12715  12718  12721  12724      9     0.00   0.41840   4 ;   C111-  C110-   C19-   C18
 12715  12718  12721  12724      9     0.00   0.41840   5 ;   C111-  C110-   C19-   C18
 12715  12718  12721  12724      9     0.00   1.25520   3 ;   C111-  C110-   C19-   C18
 12716  12715  12718  12719      9     0.00   0.62760   3 ;   H11R-  C111-  C110-  H10R
 12716  12715  12718  12720      9     0.00   0.62760   3 ;   H11R-  C111-  C110-  H10S
 12716  12715  12718  12721      9     0.00   0.66944   3 ;   H11R-  C111-  C110-   C19
 12717  12715  12718  12719      9     0.00   0.62760   3 ;   H11S-  C111-  C110-  H10R
 12717  12715  12718  12720      9     0.00   0.62760   3 ;   H11S-  C111-  C110-  H10S
 12717  12715  12718  12721      9     0.00   0.66944   3 ;   H11S-  C111-  C110-   C19
 12718  12721  12724  12725      9     0.00   0.66944   3 ;   C110-   C19-   C18-   H8R
 12718  12721  12724  12726      9     0.00   0.66944   3 ;   C110-   C19-   C18-   H8S
 12718  12721  12724  12727      9     0.00   0.41840   1 ;   C110-   C19-   C18-   C17
 12718  12721  12724  12727      9     0.00   0.41840   2 ;   C110-   C19-   C18-   C17
 12718  12721  12724  12727      9     0.00   0.41840   4 ;   C110-   C19-   C18-   C17
 12718  12721  12724  12727      9     0.00   0.41840   5 ;   C110-   C19-   C18-   C17
 12718  12721  12724  12727      9     0.00   1.25520   3 ;   C110-   C19-   C18-   C17
 12719  12718  12721  12722      9     0.00   0.62760   3 ;   H10R-  C110-   C19-   H9R
 12719  12718  12721  12723      9     0.00   0.62760   3 ;   H10R-  C110-   C19-   H9S
 12719  12718  12721  12724      9     0.00   0.66944   3 ;   H10R-  C110-   C19-   C18
 12720  12718  12721  12722      9     0.00   0.62760   3 ;   H10S-  C110-   C19-   H9R
 12720  12718  12721  12723      9     0.00   0.62760   3 ;   H10S-  C110-   C19-   H9S
 12720  12718  12721  12724      9     0.00   0.66944   3 ;   H10S-  C110-   C19-   C18
 12721  12724  12727  12728      9     0.00   0.66944   3 ;    C19-   C18-   C17-   H7R
 12721  12724  12727  12729      9     0.00   0.66944   3 ;    C19-   C18-   C17-   H7S
 12721  12724  12727  12730      9     0.00   0.41840   1 ;    C19-   C18-   C17-   C16
 12721  12724  12727  12730      9     0.00   0.41840   2 ;    C19-   C18-   C17-   C16
 12721  12724  12727  12730      9     0.00   0.41840   4 ;    C19-   C18-   C17-   C16
 12721  12724  12727  12730      9     0.00   0.41840   5 ;    C19-   C18-   C17-   C16
 12721  12724  12727  12730      9     0.00   1.25520   3 ;    C19-   C18-   C17-   C16
 12722  12721  12724  12725      9     0.00   0.62760   3 ;    H9R-   C19-   C18-   H8R
 12722  12721  12724  12726      9     0.00   0.62760   3 ;    H9R-   C19-   C18-   H8S
 12722  12721  12724  12727      9     0.00   0.66944   3 ;    H9R-   C19-   C18-   C17
 12723  12721  12724  12725      9     0.00   0.62760   3 ;    H9S-   C19-   C18-   H8R
 12723  12721  12724  12726      9     0.00   0.62760   3 ;    H9S-   C19-   C18-   H8S
 12723  12721  12724  12727      9     0.00   0.66944   3 ;    H9S-   C19-   C18-   C17
 12724  12727  12730  12731      9     0.00   0.66944   3 ;    C18-   C17-   C16-   H6R
 12724  12727  12730  12732      9     0.00   0.66944   3 ;    C18-   C17-   C16-   H6S
 12724  12727  12730  12733      9     0.00   0.41840   1 ;    C18-   C17-   C16-   C15
 12724  12727  12730  12733      9     0.00   0.41840   2 ;    C18-   C17-   C16-   C15
 12724  12727  12730  12733      9     0.00   0.41840   4 ;    C18-   C17-   C16-   C15
 12724  12727  12730  12733      9     0.00   0.41840   5 ;    C18-   C17-   C16-   C15
 12724  12727  12730  12733      9     0.00   1.25520   3 ;    C18-   C17-   C16-   C15
 12725  12724  12727  12728      9     0.00   0.62760   3 ;    H8R-   C18-   C17-   H7R
 12725  12724  12727  12729      9     0.00   0.62760   3 ;    H8R-   C18-   C17-   H7S
 12725  12724  12727  12730      9     0.00   0.66944   3 ;    H8R-   C18-   C17-   C16
 12726  12724  12727  12728      9     0.00   0.62760   3 ;    H8S-   C18-   C17-   H7R
 12726  12724  12727  12729      9     0.00   0.62760   3 ;    H8S-   C18-   C17-   H7S
 12726  12724  12727  12730      9     0.00   0.66944   3 ;    H8S-   C18-   C17-   C16
 12727  12730  12733  12734      9     0.00   0.66944   3 ;    C17-   C16-   C15-   H5R
 12727  12730  12733  12735      9     0.00   0.66944   3 ;    C17-   C16-   C15-   H5S
 12727  12730  12733  12736      9     0.00   0.41840   1 ;    C17-   C16-   C15-   C14
 12727  12730  12733  12736      9     0.00   0.41840   2 ;    C17-   C16-   C15-   C14
 12727  12730  12733  12736      9     0.00   0.41840   4 ;    C17-   C16-   C15-   C14
 12727  12730  12733  12736      9     0.00   0.41840   5 ;    C17-   C16-   C15-   C14
 12727  12730  12733  12736      9     0.00   1.25520   3 ;    C17-   C16-   C15-   C14
 12728  12727  12730  12731      9     0.00   0.62760   3 ;    H7R-   C17-   C16-   H6R
 12728  12727  12730  12732      9     0.00   0.62760   3 ;    H7R-   C17-   C16-   H6S
 12728  12727  12730  12733      9     0.00   0.66944   3 ;    H7R-   C17-   C16-   C15
 12729  12727  12730  12731      9     0.00   0.62760   3 ;    H7S-   C17-   C16-   H6R
 12729  12727  12730  12732      9     0.00   0.62760   3 ;    H7S-   C17-   C16-   H6S
 12729  12727  12730  12733      9     0.00   0.66944   3 ;    H7S-   C17-   C16-   C15
 12730  12733  12736  12737      9     0.00   0.66944   3 ;    C16-   C15-   C14-   H4R
 12730  12733  12736  12738      9     0.00   0.66944   3 ;    C16-   C15-   C14-   H4S
 12730  12733  12736  12739      9     0.00   0.41840   1 ;    C16-   C15-   C14-   C13
 12730  12733  12736  12739      9     0.00   0.41840   2 ;    C16-   C15-   C14-   C13
 12730  12733  12736  12739      9     0.00   0.41840   4 ;    C16-   C15-   C14-   C13
 12730  12733  12736  12739      9     0.00   0.41840   5 ;    C16-   C15-   C14-   C13
 12730  12733  12736  12739      9     0.00   1.25520   3 ;    C16-   C15-   C14-   C13
 12731  12730  12733  12734      9     0.00   0.62760   3 ;    H6R-   C16-   C15-   H5R
 12731  12730  12733  12735      9     0.00   0.62760   3 ;    H6R-   C16-   C15-   H5S
 12731  12730  12733  12736      9     0.00   0.66944   3 ;    H6R-   C16-   C15-   C14
 12732  12730  12733  12734      9     0.00   0.62760   3 ;    H6S-   C16-   C15-   H5R
 12732  12730  12733  12735      9     0.00   0.62760   3 ;    H6S-   C16-   C15-   H5S
 12732  12730  12733  12736      9     0.00   0.66944   3 ;    H6S-   C16-   C15-   C14
 12733  12736  12739  12740      9     0.00   0.66944   3 ;    C15-   C14-   C13-   H3R
 12733  12736  12739  12741      9     0.00   0.66944   3 ;    C15-   C14-   C13-   H3S
 12733  12736  12739  12742      9     0.00   0.41840   1 ;    C15-   C14-   C13-   C12
 12733  12736  12739  12742      9     0.00   0.41840   2 ;    C15-   C14-   C13-   C12
 12733  12736  12739  12742      9     0.00   0.41840   4 ;    C15-   C14-   C13-   C12
 12733  12736  12739  12742      9     0.00   0.41840   5 ;    C15-   C14-   C13-   C12
 12733  12736  12739  12742      9     0.00   1.25520   3 ;    C15-   C14-   C13-   C12
 12734  12733  12736  12737      9     0.00   0.62760   3 ;    H5R-   C15-   C14-   H4R
 12734  12733  12736  12738      9     0.00   0.62760   3 ;    H5R-   C15-   C14-   H4S
 12734  12733  12736  12739      9     0.00   0.66944   3 ;    H5R-   C15-   C14-   C13
 12735  12733  12736  12737      9     0.00   0.62760   3 ;    H5S-   C15-   C14-   H4R
 12735  12733  12736  12738      9     0.00   0.62760   3 ;    H5S-   C15-   C14-   H4S
 12735  12733  12736  12739      9     0.00   0.66944   3 ;    H5S-   C15-   C14-   C13
 12736  12739  12742  12743      9     0.00   0.66944   3 ;    C14-   C13-   C12-   H2R
 12736  12739  12742  12744      9     0.00   0.66944   3 ;    C14-   C13-   C12-   H2S
 12737  12736  12739  12740      9     0.00   0.62760   3 ;    H4R-   C14-   C13-   H3R
 12737  12736  12739  12741      9     0.00   0.62760   3 ;    H4R-   C14-   C13-   H3S
 12737  12736  12739  12742      9     0.00   0.66944   3 ;    H4R-   C14-   C13-   C12
 12738  12736  12739  12740      9     0.00   0.62760   3 ;    H4S-   C14-   C13-   H3R
 12738  12736  12739  12741      9     0.00   0.62760   3 ;    H4S-   C14-   C13-   H3S
 12738  12736  12739  12742      9     0.00   0.66944   3 ;    H4S-   C14-   C13-   C12
 12740  12739  12742  12743      9     0.00   0.62760   3 ;    H3R-   C13-   C12-   H2R
 12740  12739  12742  12744      9     0.00   0.62760   3 ;    H3R-   C13-   C12-   H2S
 12741  12739  12742  12743      9     0.00   0.62760   3 ;    H3S-   C13-   C12-   H2R
 12741  12739  12742  12744      9     0.00   0.62760   3 ;    H3S-   C13-   C12-   H2S
 12745  12746  12749  12750      9     0.00   0.62760   3 ;   H14T-  C114-  C113-  H13R
 12745  12746  12749  12751      9     0.00   0.62760   3 ;   H14T-  C114-  C113-  H13S
 12745  12746  12749  12752      9     0.00   0.66944   3 ;   H14T-  C114-  C113-  C112
 12746  12749  12752  12753      9     0.00   0.66944   3 ;   C114-  C113-  C112-  H12R
 12746  12749  12752  12754      9     0.00   0.66944   3 ;   C114-  C113-  C112-  H12S
 12746  12749  12752  12755      9     0.00   0.41840   1 ;   C114-  C113-  C112-  C111
 12746  12749  12752  12755      9     0.00   0.41840   2 ;   C114-  C113-  C112-  C111
 12746  12749  12752  12755      9     0.00   0.41840   4 ;   C114-  C113-  C112-  C111
 12746  12749  12752  12755      9     0.00   0.41840   5 ;   C114-  C113-  C112-  C111
 12746  12749  12752  12755      9     0.00   1.25520   3 ;   C114-  C113-  C112-  C111
 12747  12746  12749  12750      9     0.00   0.62760   3 ;   H14R-  C114-  C113-  H13R
 12747  12746  12749  12751      9     0.00   0.62760   3 ;   H14R-  C114-  C113-  H13S
 12747  12746  12749  12752      9     0.00   0.66944   3 ;   H14R-  C114-  C113-  C112
 12748  12746  12749  12750      9     0.00   0.62760   3 ;   H14S-  C114-  C113-  H13R
 12748  12746  12749  12751      9     0.00   0.62760   3 ;   H14S-  C114-  C113-  H13S
 12748  12746  12749  12752      9     0.00   0.66944   3 ;   H14S-  C114-  C113-  C112
 12749  12752  12755  12756      9     0.00   0.66944   3 ;   C113-  C112-  C111-  H11R
 12749  12752  12755  12757      9     0.00   0.66944   3 ;   C113-  C112-  C111-  H11S
 12749  12752  12755  12758      9     0.00   0.41840   1 ;   C113-  C112-  C111-  C110
 12749  12752  12755  12758      9     0.00   0.41840   2 ;   C113-  C112-  C111-  C110
 12749  12752  12755  12758      9     0.00   0.41840   4 ;   C113-  C112-  C111-  C110
 12749  12752  12755  12758      9     0.00   0.41840   5 ;   C113-  C112-  C111-  C110
 12749  12752  12755  12758      9     0.00   1.25520   3 ;   C113-  C112-  C111-  C110
 12750  12749  12752  12753      9     0.00   0.62760   3 ;   H13R-  C113-  C112-  H12R
 12750  12749  12752  12754      9     0.00   0.62760   3 ;   H13R-  C113-  C112-  H12S
 12750  12749  12752  12755      9     0.00   0.66944   3 ;   H13R-  C113-  C112-  C111
 12751  12749  12752  12753      9     0.00   0.62760   3 ;   H13S-  C113-  C112-  H12R
 12751  12749  12752  12754      9     0.00   0.62760   3 ;   H13S-  C113-  C112-  H12S
 12751  12749  12752  12755      9     0.00   0.66944   3 ;   H13S-  C113-  C112-  C111
 12752  12755  12758  12759      9     0.00   0.66944   3 ;   C112-  C111-  C110-  H10R
 12752  12755  12758  12760      9     0.00   0.66944   3 ;   C112-  C111-  C110-  H10S
 12752  12755  12758  12761      9     0.00   0.41840   1 ;   C112-  C111-  C110-   C19
 12752  12755  12758  12761      9     0.00   0.41840   2 ;   C112-  C111-  C110-   C19
 12752  12755  12758  12761      9     0.00   0.41840   4 ;   C112-  C111-  C110-   C19
 12752  12755  12758  12761      9     0.00   0.41840   5 ;   C112-  C111-  C110-   C19
 12752  12755  12758  12761      9     0.00   1.25520   3 ;   C112-  C111-  C110-   C19
 12753  12752  12755  12756      9     0.00   0.62760   3 ;   H12R-  C112-  C111-  H11R
 12753  12752  12755  12757      9     0.00   0.62760   3 ;   H12R-  C112-  C111-  H11S
 12753  12752  12755  12758      9     0.00   0.66944   3 ;   H12R-  C112-  C111-  C110
 12754  12752  12755  12756      9     0.00   0.62760   3 ;   H12S-  C112-  C111-  H11R
 12754  12752  12755  12757      9     0.00   0.62760   3 ;   H12S-  C112-  C111-  H11S
 12754  12752  12755  12758      9     0.00   0.66944   3 ;   H12S-  C112-  C111-  C110
 12755  12758  12761  12762      9     0.00   0.66944   3 ;   C111-  C110-   C19-   H9R
 12755  12758  12761  12763      9     0.00   0.66944   3 ;   C111-  C110-   C19-   H9S
 12755  12758  12761  12764      9     0.00   0.41840   1 ;   C111-  C110-   C19-   C18
 12755  12758  12761  12764      9     0.00   0.41840   2 ;   C111-  C110-   C19-   C18
 12755  12758  12761  12764      9     0.00   0.41840   4 ;   C111-  C110-   C19-   C18
 12755  12758  12761  12764      9     0.00   0.41840   5 ;   C111-  C110-   C19-   C18
 12755  12758  12761  12764      9     0.00   1.25520   3 ;   C111-  C110-   C19-   C18
 12756  12755  12758  12759      9     0.00   0.62760   3 ;   H11R-  C111-  C110-  H10R
 12756  12755  12758  12760      9     0.00   0.62760   3 ;   H11R-  C111-  C110-  H10S
 12756  12755  12758  12761      9     0.00   0.66944   3 ;   H11R-  C111-  C110-   C19
 12757  12755  12758  12759      9     0.00   0.62760   3 ;   H11S-  C111-  C110-  H10R
 12757  12755  12758  12760      9     0.00   0.62760   3 ;   H11S-  C111-  C110-  H10S
 12757  12755  12758  12761      9     0.00   0.66944   3 ;   H11S-  C111-  C110-   C19
 12758  12761  12764  12765      9     0.00   0.66944   3 ;   C110-   C19-   C18-   H8R
 12758  12761  12764  12766      9     0.00   0.66944   3 ;   C110-   C19-   C18-   H8S
 12758  12761  12764  12767      9     0.00   0.41840   1 ;   C110-   C19-   C18-   C17
 12758  12761  12764  12767      9     0.00   0.41840   2 ;   C110-   C19-   C18-   C17
 12758  12761  12764  12767      9     0.00   0.41840   4 ;   C110-   C19-   C18-   C17
 12758  12761  12764  12767      9     0.00   0.41840   5 ;   C110-   C19-   C18-   C17
 12758  12761  12764  12767      9     0.00   1.25520   3 ;   C110-   C19-   C18-   C17
 12759  12758  12761  12762      9     0.00   0.62760   3 ;   H10R-  C110-   C19-   H9R
 12759  12758  12761  12763      9     0.00   0.62760   3 ;   H10R-  C110-   C19-   H9S
 12759  12758  12761  12764      9     0.00   0.66944   3 ;   H10R-  C110-   C19-   C18
 12760  12758  12761  12762      9     0.00   0.62760   3 ;   H10S-  C110-   C19-   H9R
 12760  12758  12761  12763      9     0.00   0.62760   3 ;   H10S-  C110-   C19-   H9S
 12760  12758  12761  12764      9     0.00   0.66944   3 ;   H10S-  C110-   C19-   C18
 12761  12764  12767  12768      9     0.00   0.66944   3 ;    C19-   C18-   C17-   H7R
 12761  12764  12767  12769      9     0.00   0.66944   3 ;    C19-   C18-   C17-   H7S
 12761  12764  12767  12770      9     0.00   0.41840   1 ;    C19-   C18-   C17-   C16
 12761  12764  12767  12770      9     0.00   0.41840   2 ;    C19-   C18-   C17-   C16
 12761  12764  12767  12770      9     0.00   0.41840   4 ;    C19-   C18-   C17-   C16
 12761  12764  12767  12770      9     0.00   0.41840   5 ;    C19-   C18-   C17-   C16
 12761  12764  12767  12770      9     0.00   1.25520   3 ;    C19-   C18-   C17-   C16
 12762  12761  12764  12765      9     0.00   0.62760   3 ;    H9R-   C19-   C18-   H8R
 12762  12761  12764  12766      9     0.00   0.62760   3 ;    H9R-   C19-   C18-   H8S
 12762  12761  12764  12767      9     0.00   0.66944   3 ;    H9R-   C19-   C18-   C17
 12763  12761  12764  12765      9     0.00   0.62760   3 ;    H9S-   C19-   C18-   H8R
 12763  12761  12764  12766      9     0.00   0.62760   3 ;    H9S-   C19-   C18-   H8S
 12763  12761  12764  12767      9     0.00   0.66944   3 ;    H9S-   C19-   C18-   C17
 12764  12767  12770  12771      9     0.00   0.66944   3 ;    C18-   C17-   C16-   H6R
 12764  12767  12770  12772      9     0.00   0.66944   3 ;    C18-   C17-   C16-   H6S
 12764  12767  12770  12773      9     0.00   0.41840   1 ;    C18-   C17-   C16-   C15
 12764  12767  12770  12773      9     0.00   0.41840   2 ;    C18-   C17-   C16-   C15
 12764  12767  12770  12773      9     0.00   0.41840   4 ;    C18-   C17-   C16-   C15
 12764  12767  12770  12773      9     0.00   0.41840   5 ;    C18-   C17-   C16-   C15
 12764  12767  12770  12773      9     0.00   1.25520   3 ;    C18-   C17-   C16-   C15
 12765  12764  12767  12768      9     0.00   0.62760   3 ;    H8R-   C18-   C17-   H7R
 12765  12764  12767  12769      9     0.00   0.62760   3 ;    H8R-   C18-   C17-   H7S
 12765  12764  12767  12770      9     0.00   0.66944   3 ;    H8R-   C18-   C17-   C16
 12766  12764  12767  12768      9     0.00   0.62760   3 ;    H8S-   C18-   C17-   H7R
 12766  12764  12767  12769      9     0.00   0.62760   3 ;    H8S-   C18-   C17-   H7S
 12766  12764  12767  12770      9     0.00   0.66944   3 ;    H8S-   C18-   C17-   C16
 12767  12770  12773  12774      9     0.00   0.66944   3 ;    C17-   C16-   C15-   H5R
 12767  12770  12773  12775      9     0.00   0.66944   3 ;    C17-   C16-   C15-   H5S
 12767  12770  12773  12776      9     0.00   0.41840   1 ;    C17-   C16-   C15-   C14
 12767  12770  12773  12776      9     0.00   0.41840   2 ;    C17-   C16-   C15-   C14
 12767  12770  12773  12776      9     0.00   0.41840   4 ;    C17-   C16-   C15-   C14
 12767  12770  12773  12776      9     0.00   0.41840   5 ;    C17-   C16-   C15-   C14
 12767  12770  12773  12776      9     0.00   1.25520   3 ;    C17-   C16-   C15-   C14
 12768  12767  12770  12771      9     0.00   0.62760   3 ;    H7R-   C17-   C16-   H6R
 12768  12767  12770  12772      9     0.00   0.62760   3 ;    H7R-   C17-   C16-   H6S
 12768  12767  12770  12773      9     0.00   0.66944   3 ;    H7R-   C17-   C16-   C15
 12769  12767  12770  12771      9     0.00   0.62760   3 ;    H7S-   C17-   C16-   H6R
 12769  12767  12770  12772      9     0.00   0.62760   3 ;    H7S-   C17-   C16-   H6S
 12769  12767  12770  12773      9     0.00   0.66944   3 ;    H7S-   C17-   C16-   C15
 12770  12773  12776  12777      9     0.00   0.66944   3 ;    C16-   C15-   C14-   H4R
 12770  12773  12776  12778      9     0.00   0.66944   3 ;    C16-   C15-   C14-   H4S
 12770  12773  12776  12779      9     0.00   0.41840   1 ;    C16-   C15-   C14-   C13
 12770  12773  12776  12779      9     0.00   0.41840   2 ;    C16-   C15-   C14-   C13
 12770  12773  12776  12779      9     0.00   0.41840   4 ;    C16-   C15-   C14-   C13
 12770  12773  12776  12779      9     0.00   0.41840   5 ;    C16-   C15-   C14-   C13
 12770  12773  12776  12779      9     0.00   1.25520   3 ;    C16-   C15-   C14-   C13
 12771  12770  12773  12774      9     0.00   0.62760   3 ;    H6R-   C16-   C15-   H5R
 12771  12770  12773  12775      9     0.00   0.62760   3 ;    H6R-   C16-   C15-   H5S
 12771  12770  12773  12776      9     0.00   0.66944   3 ;    H6R-   C16-   C15-   C14
 12772  12770  12773  12774      9     0.00   0.62760   3 ;    H6S-   C16-   C15-   H5R
 12772  12770  12773  12775      9     0.00   0.62760   3 ;    H6S-   C16-   C15-   H5S
 12772  12770  12773  12776      9     0.00   0.66944   3 ;    H6S-   C16-   C15-   C14
 12773  12776  12779  12780      9     0.00   0.66944   3 ;    C15-   C14-   C13-   H3R
 12773  12776  12779  12781      9     0.00   0.66944   3 ;    C15-   C14-   C13-   H3S
 12773  12776  12779  12782      9     0.00   0.41840   1 ;    C15-   C14-   C13-   C12
 12773  12776  12779  12782      9     0.00   0.41840   2 ;    C15-   C14-   C13-   C12
 12773  12776  12779  12782      9     0.00   0.41840   4 ;    C15-   C14-   C13-   C12
 12773  12776  12779  12782      9     0.00   0.41840   5 ;    C15-   C14-   C13-   C12
 12773  12776  12779  12782      9     0.00   1.25520   3 ;    C15-   C14-   C13-   C12
 12774  12773  12776  12777      9     0.00   0.62760   3 ;    H5R-   C15-   C14-   H4R
 12774  12773  12776  12778      9     0.00   0.62760   3 ;    H5R-   C15-   C14-   H4S
 12774  12773  12776  12779      9     0.00   0.66944   3 ;    H5R-   C15-   C14-   C13
 12775  12773  12776  12777      9     0.00   0.62760   3 ;    H5S-   C15-   C14-   H4R
 12775  12773  12776  12778      9     0.00   0.62760   3 ;    H5S-   C15-   C14-   H4S
 12775  12773  12776  12779      9     0.00   0.66944   3 ;    H5S-   C15-   C14-   C13
 12776  12779  12782  12783      9     0.00   0.66944   3 ;    C14-   C13-   C12-   H2R
 12776  12779  12782  12784      9     0.00   0.66944   3 ;    C14-   C13-   C12-   H2S
 12776  12779  12782  12785      9     0.00   0.65270   3 ;    C14-   C13-   C12-   C11
 12777  12776  12779  12780      9     0.00   0.62760   3 ;    H4R-   C14-   C13-   H3R
 12777  12776  12779  12781      9     0.00   0.62760   3 ;    H4R-   C14-   C13-   H3S
 12777  12776  12779  12782      9     0.00   0.66944   3 ;    H4R-   C14-   C13-   C12
 12778  12776  12779  12780      9     0.00   0.62760   3 ;    H4S-   C14-   C13-   H3R
 12778  12776  12779  12781      9     0.00   0.62760   3 ;    H4S-   C14-   C13-   H3S
 12778  12776  12779  12782      9     0.00   0.66944   3 ;    H4S-   C14-   C13-   C12
 12779  12782  12785  12786      9   180.00   0.00000   2 ;    C13-   C12-   C11-   O12
 12779  12782  12785  12787      9   180.00   0.00000   2 ;    C13-   C12-   C11-   O11
 12780  12779  12782  12783      9     0.00   0.62760   3 ;    H3R-   C13-   C12-   H2R
 12780  12779  12782  12784      9     0.00   0.62760   3 ;    H3R-   C13-   C12-   H2S
 12780  12779  12782  12785      9     0.00   0.65270   3 ;    H3R-   C13-   C12-   C11
 12781  12779  12782  12783      9     0.00   0.62760   3 ;    H3S-   C13-   C12-   H2R
 12781  12779  12782  12784      9     0.00   0.62760   3 ;    H3S-   C13-   C12-   H2S
 12781  12779  12782  12785      9     0.00   0.65270   3 ;    H3S-   C13-   C12-   C11
 12782  12785  12787  12788      9   180.00  11.29680   2 ;    C12-   C11-   O11-    C1
 12783  12782  12785  12786      9     0.00   3.34720   1 ;    H2R-   C12-   C11-   O12
 12783  12782  12785  12786      9   180.00   0.33472   3 ;    H2R-   C12-   C11-   O12
 12783  12782  12785  12787      9   180.00   0.00000   2 ;    H2R-   C12-   C11-   O11
 12784  12782  12785  12786      9     0.00   3.34720   1 ;    H2S-   C12-   C11-   O12
 12784  12782  12785  12786      9   180.00   0.33472   3 ;    H2S-   C12-   C11-   O12
 12784  12782  12785  12787      9   180.00   0.00000   2 ;    H2S-   C12-   C11-   O11
 12785  12787  12788  12789      9     0.00   1.60247   3 ;    C11-   O11-    C1-    HR
 12785  12787  12788  12790      9     0.00   1.60247   3 ;    C11-   O11-    C1-    HS
 12785  12787  12788  12791      9     0.00  -0.41840   1 ;    C11-   O11-    C1-    C2
 12786  12785  12787  12788      9   180.00   5.85760   1 ;    O12-   C11-   O11-    C1
 12786  12785  12787  12788      9   180.00  11.29680   2 ;    O12-   C11-   O11-    C1
 12787  12788  12791  12792      9     0.00   0.00000   0 ;    O11-    C1-    C2-    HX
 12787  12788  12791  12792      9     0.00   1.04600   1 ;    O11-    C1-    C2-    HX
 12787  12788  12791  12793      9     0.00   0.00000   0 ;    O11-    C1-    C2-    C3
 12787  12788  12791  12793      9     0.00   0.00000   0 ;    O11-    C1-    C2-    C3
 12787  12788  12791  12793      9     0.00   0.00000   0 ;    O11-    C1-    C2-    C3
 12787  12788  12791  12793      9     0.00   0.00000   0 ;    O11-    C1-    C2-    C3
 12787  12788  12791  12793      9     0.00   0.00000   0 ;    O11-    C1-    C2-    C3
 12787  12788  12791  12820      9     0.00   1.25520   2 ;    O11-    C1-    C2-   O21
 12787  12788  12791  12820      9     0.00   4.18400   3 ;    O11-    C1-    C2-   O21
 12787  12788  12791  12820      9   180.00  -0.41840   1 ;    O11-    C1-    C2-   O21
 12788  12791  12793  12794      9     0.00   0.65270   3 ;     C1-    C2-    C3-    HA
 12788  12791  12793  12795      9     0.00   0.65270   3 ;     C1-    C2-    C3-    HB
 12788  12791  12793  12796      9   180.00   3.34720   1 ;     C1-    C2-    C3-   O31
 12788  12791  12820  12821      9     0.00  -0.41840   1 ;     C1-    C2-   O21-   C21
 12789  12788  12791  12792      9     0.00   0.65270   3 ;     HR-    C1-    C2-    HX
 12789  12788  12791  12793      9     0.00   0.65270   3 ;     HR-    C1-    C2-    C3
 12789  12788  12791  12820      9     0.00   0.00000   0 ;     HR-    C1-    C2-   O21
 12789  12788  12791  12820      9     0.00   1.04600   1 ;     HR-    C1-    C2-   O21
 12790  12788  12791  12792      9     0.00   0.65270   3 ;     HS-    C1-    C2-    HX
 12790  12788  12791  12793      9     0.00   0.65270   3 ;     HS-    C1-    C2-    C3
 12790  12788  12791  12820      9     0.00   0.00000   0 ;     HS-    C1-    C2-   O21
 12790  12788  12791  12820      9     0.00   1.04600   1 ;     HS-    C1-    C2-   O21
 12791  12793  12796  12797      9     0.00   0.00000   0 ;     C2-    C3-   O31-   P31
 12791  12793  12796  12797      9   180.00  -3.34720   2 ;     C2-    C3-   O31-   P31
 12791  12820  12821  12822      9   180.00   5.85760   1 ;     C2-   O21-   C21-   O22
 12791  12820  12821  12822      9   180.00  11.29680   2 ;     C2-   O21-   C21-   O22
 12791  12820  12821  12860      9   180.00  11.29680   2 ;     C2-   O21-   C21-   C12
 12792  12791  12793  12794      9     0.00   0.65270   3 ;     HX-    C2-    C3-    HA
 12792  12791  12793  12795      9     0.00   0.65270   3 ;     HX-    C2-    C3-    HB
 12792  12791  12793  12796      9     0.00   0.00000   0 ;     HX-    C2-    C3-   O31
 12792  12791  12793  12796      9     0.00   1.04600   1 ;     HX-    C2-    C3-   O31
 12792  12791  12820  12821      9     0.00   1.60247   3 ;     HX-    C2-   O21-   C21
 12793  12791  12820  12821      9     0.00  -0.41840   1 ;     C3-    C2-   O21-   C21
 12793  12796  12797  12798      9     0.00   2.51040   3 ;     C3-   O31-   P31-   O32
 12793  12796  12797  12798      9     0.00   9.62320   2 ;     C3-   O31-   P31-   O32
 12793  12796  12797  12818      9     0.00   0.00000   0 ;     C3-   O31-   P31-   O33
 12793  12796  12797  12818      9     0.00   0.00000   0 ;     C3-   O31-   P31-   O33
 12793  12796  12797  12818      9     0.00   0.00000   0 ;     C3-   O31-   P31-   O33
 12793  12796  12797  12818      9     0.00   0.00000   0 ;     C3-   O31-   P31-   O33
 12793  12796  12797  12818      9     0.00   0.83680   2 ;     C3-   O31-   P31-   O33
 12793  12796  12797  12819      9     0.00   0.00000   0 ;     C3-   O31-   P31-   O34
 12793  12796  12797  12819      9     0.00   0.00000   0 ;     C3-   O31-   P31-   O34
 12793  12796  12797  12819      9     0.00   0.00000   0 ;     C3-   O31-   P31-   O34
 12793  12796  12797  12819      9     0.00   0.00000   0 ;     C3-   O31-   P31-   O34
 12793  12796  12797  12819      9     0.00   0.83680   2 ;     C3-   O31-   P31-   O34
 12794  12793  12791  12820      9     0.00   0.00000   0 ;     HA-    C3-    C2-   O21
 12794  12793  12791  12820      9     0.00   1.04600   1 ;     HA-    C3-    C2-   O21
 12794  12793  12796  12797      9     0.00   0.00000   0 ;     HA-    C3-   O31-   P31
 12794  12793  12796  12797      9     0.00   0.00000   0 ;     HA-    C3-   O31-   P31
 12794  12793  12796  12797      9     0.00   0.00000   0 ;     HA-    C3-   O31-   P31
 12794  12793  12796  12797      9     0.00   0.00000   0 ;     HA-    C3-   O31-   P31
 12794  12793  12796  12797      9     0.00   1.60247   3 ;     HA-    C3-   O31-   P31
 12795  12793  12791  12820      9     0.00   0.00000   0 ;     HB-    C3-    C2-   O21
 12795  12793  12791  12820      9     0.00   1.04600   1 ;     HB-    C3-    C2-   O21
 12795  12793  12796  12797      9     0.00   0.00000   0 ;     HB-    C3-   O31-   P31
 12795  12793  12796  12797      9     0.00   0.00000   0 ;     HB-    C3-   O31-   P31
 12795  12793  12796  12797      9     0.00   0.00000   0 ;     HB-    C3-   O31-   P31
 12795  12793  12796  12797      9     0.00   0.00000   0 ;     HB-    C3-   O31-   P31
 12795  12793  12796  12797      9     0.00   1.60247   3 ;     HB-    C3-   O31-   P31
 12796  12793  12791  12820      9     0.00   0.00000   0 ;    O31-    C3-    C2-   O21
 12796  12793  12791  12820      9     0.00   0.00000   0 ;    O31-    C3-    C2-   O21
 12796  12793  12791  12820      9     0.00   0.00000   0 ;    O31-    C3-    C2-   O21
 12796  12793  12791  12820      9     0.00   0.00000   0 ;    O31-    C3-    C2-   O21
 12796  12793  12791  12820      9     0.00   0.00000   0 ;    O31-    C3-    C2-   O21
 12796  12797  12798  12799      9     0.00   2.51040   3 ;    O31-   P31-   O32-   C31
 12796  12797  12798  12799      9     0.00   9.62320   2 ;    O31-   P31-   O32-   C31
 12797  12798  12799  12800      9     0.00   0.00000   0 ;    P31-   O32-   C31-   H1A
 12797  12798  12799  12800      9     0.00   0.00000   0 ;    P31-   O32-   C31-   H1A
 12797  12798  12799  12800      9     0.00   0.00000   0 ;    P31-   O32-   C31-   H1A
 12797  12798  12799  12800      9     0.00   0.00000   0 ;    P31-   O32-   C31-   H1A
 12797  12798  12799  12800      9     0.00   1.60247   3 ;    P31-   O32-   C31-   H1A
 12797  12798  12799  12801      9     0.00   0.00000   0 ;    P31-   O32-   C31-   H1B
 12797  12798  12799  12801      9     0.00   0.00000   0 ;    P31-   O32-   C31-   H1B
 12797  12798  12799  12801      9     0.00   0.00000   0 ;    P31-   O32-   C31-   H1B
 12797  12798  12799  12801      9     0.00   0.00000   0 ;    P31-   O32-   C31-   H1B
 12797  12798  12799  12801      9     0.00   1.60247   3 ;    P31-   O32-   C31-   H1B
 12797  12798  12799  12802      9     0.00   0.00000   0 ;    P31-   O32-   C31-   C32
 12797  12798  12799  12802      9   180.00  -3.34720   2 ;    P31-   O32-   C31-   C32
 12798  12799  12802  12803      9     0.00   0.65270   3 ;    O32-   C31-   C32-   H2A
 12798  12799  12802  12804      9     0.00   0.65270   3 ;    O32-   C31-   C32-   H2B
 12798  12799  12802  12805      9     0.00   4.18400   3 ;    O32-   C31-   C32-   N31
 12799  12798  12797  12818      9     0.00   0.00000   0 ;    C31-   O32-   P31-   O33
 12799  12798  12797  12818      9     0.00   0.00000   0 ;    C31-   O32-   P31-   O33
 12799  12798  12797  12818      9     0.00   0.00000   0 ;    C31-   O32-   P31-   O33
 12799  12798  12797  12818      9     0.00   0.00000   0 ;    C31-   O32-   P31-   O33
 12799  12798  12797  12818      9     0.00   0.83680   2 ;    C31-   O32-   P31-   O33
 12799  12798  12797  12819      9     0.00   0.00000   0 ;    C31-   O32-   P31-   O34
 12799  12798  12797  12819      9     0.00   0.00000   0 ;    C31-   O32-   P31-   O34
 12799  12798  12797  12819      9     0.00   0.00000   0 ;    C31-   O32-   P31-   O34
 12799  12798  12797  12819      9     0.00   0.00000   0 ;    C31-   O32-   P31-   O34
 12799  12798  12797  12819      9     0.00   0.83680   2 ;    C31-   O32-   P31-   O34
 12799  12802  12805  12806      9     0.00   0.65270   3 ;    C31-   C32-   N31-   C33
 12799  12802  12805  12810      9     0.00   0.65270   3 ;    C31-   C32-   N31-   C34
 12799  12802  12805  12814      9     0.00   0.65270   3 ;    C31-   C32-   N31-   C35
 12800  12799  12802  12803      9     0.00   0.65270   3 ;    H1A-   C31-   C32-   H2A
 12800  12799  12802  12804      9     0.00   0.65270   3 ;    H1A-   C31-   C32-   H2B
 12800  12799  12802  12805      9     0.00   0.65270   3 ;    H1A-   C31-   C32-   N31
 12801  12799  12802  12803      9     0.00   0.65270   3 ;    H1B-   C31-   C32-   H2A
 12801  12799  12802  12804      9     0.00   0.65270   3 ;    H1B-   C31-   C32-   H2B
 12801  12799  12802  12805      9     0.00   0.65270   3 ;    H1B-   C31-   C32-   N31
 12802  12805  12806  12807      9     0.00   0.65270   3 ;    C32-   N31-   C33-   H3A
 12802  12805  12806  12808      9     0.00   0.65270   3 ;    C32-   N31-   C33-   H3B
 12802  12805  12806  12809      9     0.00   0.65270   3 ;    C32-   N31-   C33-   H3C
 12802  12805  12810  12811      9     0.00   0.65270   3 ;    C32-   N31-   C34-   H4A
 12802  12805  12810  12812      9     0.00   0.65270   3 ;    C32-   N31-   C34-   H4B
 12802  12805  12810  12813      9     0.00   0.65270   3 ;    C32-   N31-   C34-   H4C
 12802  12805  12814  12815      9     0.00   0.65270   3 ;    C32-   N31-   C35-   H5A
 12802  12805  12814  12816      9     0.00   0.65270   3 ;    C32-   N31-   C35-   H5B
 12802  12805  12814  12817      9     0.00   0.65270   3 ;    C32-   N31-   C35-   H5C
 12803  12802  12805  12806      9     0.00   0.65270   3 ;    H2A-   C32-   N31-   C33
 12803  12802  12805  12810      9     0.00   0.65270   3 ;    H2A-   C32-   N31-   C34
 12803  12802  12805  12814      9     0.00   0.65270   3 ;    H2A-   C32-   N31-   C35
 12804  12802  12805  12806      9     0.00   0.65270   3 ;    H2B-   C32-   N31-   C33
 12804  12802  12805  12810      9     0.00   0.65270   3 ;    H2B-   C32-   N31-   C34
 12804  12802  12805  12814      9     0.00   0.65270   3 ;    H2B-   C32-   N31-   C35
 12806  12805  12810  12811      9     0.00   0.65270   3 ;    C33-   N31-   C34-   H4A
 12806  12805  12810  12812      9     0.00   0.65270   3 ;    C33-   N31-   C34-   H4B
 12806  12805  12810  12813      9     0.00   0.65270   3 ;    C33-   N31-   C34-   H4C
 12806  12805  12814  12815      9     0.00   0.65270   3 ;    C33-   N31-   C35-   H5A
 12806  12805  12814  12816      9     0.00   0.65270   3 ;    C33-   N31-   C35-   H5B
 12806  12805  12814  12817      9     0.00   0.65270   3 ;    C33-   N31-   C35-   H5C
 12807  12806  12805  12810      9     0.00   0.65270   3 ;    H3A-   C33-   N31-   C34
 12807  12806  12805  12814      9     0.00   0.65270   3 ;    H3A-   C33-   N31-   C35
 12808  12806  12805  12810      9     0.00   0.65270   3 ;    H3B-   C33-   N31-   C34
 12808  12806  12805  12814      9     0.00   0.65270   3 ;    H3B-   C33-   N31-   C35
 12809  12806  12805  12810      9     0.00   0.65270   3 ;    H3C-   C33-   N31-   C34
 12809  12806  12805  12814      9     0.00   0.65270   3 ;    H3C-   C33-   N31-   C35
 12810  12805  12814  12815      9     0.00   0.65270   3 ;    C34-   N31-   C35-   H5A
 12810  12805  12814  12816      9     0.00   0.65270   3 ;    C34-   N31-   C35-   H5B
 12810  12805  12814  12817      9     0.00   0.65270   3 ;    C34-   N31-   C35-   H5C
 12811  12810  12805  12814      9     0.00   0.65270   3 ;    H4A-   C34-   N31-   C35
 12812  12810  12805  12814      9     0.00   0.65270   3 ;    H4B-   C34-   N31-   C35
 12813  12810  12805  12814      9     0.00   0.65270   3 ;    H4C-   C34-   N31-   C35
 12820  12821  12860  12857      9   180.00   0.00000   2 ;    O21-   C21-   C12-   C13
 12820  12821  12860  12861      9   180.00   0.00000   2 ;    O21-   C21-   C12-   H2R
 12820  12821  12860  12862      9   180.00   0.00000   2 ;    O21-   C21-   C12-   H2S
 12821  12860  12857  12854      9     0.00   0.65270   3 ;    C21-   C12-   C13-   C14
 12821  12860  12857  12858      9     0.00   0.65270   3 ;    C21-   C12-   C13-   H3R
 12821  12860  12857  12859      9     0.00   0.65270   3 ;    C21-   C12-   C13-   H3S
 12822  12821  12860  12857      9   180.00   0.00000   2 ;    O22-   C21-   C12-   C13
 12822  12821  12860  12861      9     0.00   3.34720   1 ;    O22-   C21-   C12-   H2R
 12822  12821  12860  12861      9   180.00   0.33472   3 ;    O22-   C21-   C12-   H2R
 12822  12821  12860  12862      9     0.00   3.34720   1 ;    O22-   C21-   C12-   H2S
 12822  12821  12860  12862      9   180.00   0.33472   3 ;    O22-   C21-   C12-   H2S
 12823  12824  12827  12828      9     0.00   0.62760   3 ;   H14T-  C114-  C113-  H13R
 12823  12824  12827  12829      9     0.00   0.62760   3 ;   H14T-  C114-  C113-  H13S
 12823  12824  12827  12830      9     0.00   0.66944   3 ;   H14T-  C114-  C113-  C112
 12824  12827  12830  12831      9     0.00   0.66944   3 ;   C114-  C113-  C112-  H12R
 12824  12827  12830  12832      9     0.00   0.66944   3 ;   C114-  C113-  C112-  H12S
 12824  12827  12830  12833      9     0.00   0.41840   1 ;   C114-  C113-  C112-  C111
 12824  12827  12830  12833      9     0.00   0.41840   2 ;   C114-  C113-  C112-  C111
 12824  12827  12830  12833      9     0.00   0.41840   4 ;   C114-  C113-  C112-  C111
 12824  12827  12830  12833      9     0.00   0.41840   5 ;   C114-  C113-  C112-  C111
 12824  12827  12830  12833      9     0.00   1.25520   3 ;   C114-  C113-  C112-  C111
 12825  12824  12827  12828      9     0.00   0.62760   3 ;   H14R-  C114-  C113-  H13R
 12825  12824  12827  12829      9     0.00   0.62760   3 ;   H14R-  C114-  C113-  H13S
 12825  12824  12827  12830      9     0.00   0.66944   3 ;   H14R-  C114-  C113-  C112
 12826  12824  12827  12828      9     0.00   0.62760   3 ;   H14S-  C114-  C113-  H13R
 12826  12824  12827  12829      9     0.00   0.62760   3 ;   H14S-  C114-  C113-  H13S
 12826  12824  12827  12830      9     0.00   0.66944   3 ;   H14S-  C114-  C113-  C112
 12827  12830  12833  12834      9     0.00   0.66944   3 ;   C113-  C112-  C111-  H11R
 12827  12830  12833  12835      9     0.00   0.66944   3 ;   C113-  C112-  C111-  H11S
 12827  12830  12833  12836      9     0.00   0.41840   1 ;   C113-  C112-  C111-  C110
 12827  12830  12833  12836      9     0.00   0.41840   2 ;   C113-  C112-  C111-  C110
 12827  12830  12833  12836      9     0.00   0.41840   4 ;   C113-  C112-  C111-  C110
 12827  12830  12833  12836      9     0.00   0.41840   5 ;   C113-  C112-  C111-  C110
 12827  12830  12833  12836      9     0.00   1.25520   3 ;   C113-  C112-  C111-  C110
 12828  12827  12830  12831      9     0.00   0.62760   3 ;   H13R-  C113-  C112-  H12R
 12828  12827  12830  12832      9     0.00   0.62760   3 ;   H13R-  C113-  C112-  H12S
 12828  12827  12830  12833      9     0.00   0.66944   3 ;   H13R-  C113-  C112-  C111
 12829  12827  12830  12831      9     0.00   0.62760   3 ;   H13S-  C113-  C112-  H12R
 12829  12827  12830  12832      9     0.00   0.62760   3 ;   H13S-  C113-  C112-  H12S
 12829  12827  12830  12833      9     0.00   0.66944   3 ;   H13S-  C113-  C112-  C111
 12830  12833  12836  12837      9     0.00   0.66944   3 ;   C112-  C111-  C110-  H10R
 12830  12833  12836  12838      9     0.00   0.66944   3 ;   C112-  C111-  C110-  H10S
 12830  12833  12836  12839      9     0.00   0.41840   1 ;   C112-  C111-  C110-   C19
 12830  12833  12836  12839      9     0.00   0.41840   2 ;   C112-  C111-  C110-   C19
 12830  12833  12836  12839      9     0.00   0.41840   4 ;   C112-  C111-  C110-   C19
 12830  12833  12836  12839      9     0.00   0.41840   5 ;   C112-  C111-  C110-   C19
 12830  12833  12836  12839      9     0.00   1.25520   3 ;   C112-  C111-  C110-   C19
 12831  12830  12833  12834      9     0.00   0.62760   3 ;   H12R-  C112-  C111-  H11R
 12831  12830  12833  12835      9     0.00   0.62760   3 ;   H12R-  C112-  C111-  H11S
 12831  12830  12833  12836      9     0.00   0.66944   3 ;   H12R-  C112-  C111-  C110
 12832  12830  12833  12834      9     0.00   0.62760   3 ;   H12S-  C112-  C111-  H11R
 12832  12830  12833  12835      9     0.00   0.62760   3 ;   H12S-  C112-  C111-  H11S
 12832  12830  12833  12836      9     0.00   0.66944   3 ;   H12S-  C112-  C111-  C110
 12833  12836  12839  12840      9     0.00   0.66944   3 ;   C111-  C110-   C19-   H9R
 12833  12836  12839  12841      9     0.00   0.66944   3 ;   C111-  C110-   C19-   H9S
 12833  12836  12839  12842      9     0.00   0.41840   1 ;   C111-  C110-   C19-   C18
 12833  12836  12839  12842      9     0.00   0.41840   2 ;   C111-  C110-   C19-   C18
 12833  12836  12839  12842      9     0.00   0.41840   4 ;   C111-  C110-   C19-   C18
 12833  12836  12839  12842      9     0.00   0.41840   5 ;   C111-  C110-   C19-   C18
 12833  12836  12839  12842      9     0.00   1.25520   3 ;   C111-  C110-   C19-   C18
 12834  12833  12836  12837      9     0.00   0.62760   3 ;   H11R-  C111-  C110-  H10R
 12834  12833  12836  12838      9     0.00   0.62760   3 ;   H11R-  C111-  C110-  H10S
 12834  12833  12836  12839      9     0.00   0.66944   3 ;   H11R-  C111-  C110-   C19
 12835  12833  12836  12837      9     0.00   0.62760   3 ;   H11S-  C111-  C110-  H10R
 12835  12833  12836  12838      9     0.00   0.62760   3 ;   H11S-  C111-  C110-  H10S
 12835  12833  12836  12839      9     0.00   0.66944   3 ;   H11S-  C111-  C110-   C19
 12836  12839  12842  12843      9     0.00   0.66944   3 ;   C110-   C19-   C18-   H8R
 12836  12839  12842  12844      9     0.00   0.66944   3 ;   C110-   C19-   C18-   H8S
 12836  12839  12842  12845      9     0.00   0.41840   1 ;   C110-   C19-   C18-   C17
 12836  12839  12842  12845      9     0.00   0.41840   2 ;   C110-   C19-   C18-   C17
 12836  12839  12842  12845      9     0.00   0.41840   4 ;   C110-   C19-   C18-   C17
 12836  12839  12842  12845      9     0.00   0.41840   5 ;   C110-   C19-   C18-   C17
 12836  12839  12842  12845      9     0.00   1.25520   3 ;   C110-   C19-   C18-   C17
 12837  12836  12839  12840      9     0.00   0.62760   3 ;   H10R-  C110-   C19-   H9R
 12837  12836  12839  12841      9     0.00   0.62760   3 ;   H10R-  C110-   C19-   H9S
 12837  12836  12839  12842      9     0.00   0.66944   3 ;   H10R-  C110-   C19-   C18
 12838  12836  12839  12840      9     0.00   0.62760   3 ;   H10S-  C110-   C19-   H9R
 12838  12836  12839  12841      9     0.00   0.62760   3 ;   H10S-  C110-   C19-   H9S
 12838  12836  12839  12842      9     0.00   0.66944   3 ;   H10S-  C110-   C19-   C18
 12839  12842  12845  12846      9     0.00   0.66944   3 ;    C19-   C18-   C17-   H7R
 12839  12842  12845  12847      9     0.00   0.66944   3 ;    C19-   C18-   C17-   H7S
 12839  12842  12845  12848      9     0.00   0.41840   1 ;    C19-   C18-   C17-   C16
 12839  12842  12845  12848      9     0.00   0.41840   2 ;    C19-   C18-   C17-   C16
 12839  12842  12845  12848      9     0.00   0.41840   4 ;    C19-   C18-   C17-   C16
 12839  12842  12845  12848      9     0.00   0.41840   5 ;    C19-   C18-   C17-   C16
 12839  12842  12845  12848      9     0.00   1.25520   3 ;    C19-   C18-   C17-   C16
 12840  12839  12842  12843      9     0.00   0.62760   3 ;    H9R-   C19-   C18-   H8R
 12840  12839  12842  12844      9     0.00   0.62760   3 ;    H9R-   C19-   C18-   H8S
 12840  12839  12842  12845      9     0.00   0.66944   3 ;    H9R-   C19-   C18-   C17
 12841  12839  12842  12843      9     0.00   0.62760   3 ;    H9S-   C19-   C18-   H8R
 12841  12839  12842  12844      9     0.00   0.62760   3 ;    H9S-   C19-   C18-   H8S
 12841  12839  12842  12845      9     0.00   0.66944   3 ;    H9S-   C19-   C18-   C17
 12842  12845  12848  12849      9     0.00   0.66944   3 ;    C18-   C17-   C16-   H6R
 12842  12845  12848  12850      9     0.00   0.66944   3 ;    C18-   C17-   C16-   H6S
 12842  12845  12848  12851      9     0.00   0.41840   1 ;    C18-   C17-   C16-   C15
 12842  12845  12848  12851      9     0.00   0.41840   2 ;    C18-   C17-   C16-   C15
 12842  12845  12848  12851      9     0.00   0.41840   4 ;    C18-   C17-   C16-   C15
 12842  12845  12848  12851      9     0.00   0.41840   5 ;    C18-   C17-   C16-   C15
 12842  12845  12848  12851      9     0.00   1.25520   3 ;    C18-   C17-   C16-   C15
 12843  12842  12845  12846      9     0.00   0.62760   3 ;    H8R-   C18-   C17-   H7R
 12843  12842  12845  12847      9     0.00   0.62760   3 ;    H8R-   C18-   C17-   H7S
 12843  12842  12845  12848      9     0.00   0.66944   3 ;    H8R-   C18-   C17-   C16
 12844  12842  12845  12846      9     0.00   0.62760   3 ;    H8S-   C18-   C17-   H7R
 12844  12842  12845  12847      9     0.00   0.62760   3 ;    H8S-   C18-   C17-   H7S
 12844  12842  12845  12848      9     0.00   0.66944   3 ;    H8S-   C18-   C17-   C16
 12845  12848  12851  12852      9     0.00   0.66944   3 ;    C17-   C16-   C15-   H5R
 12845  12848  12851  12853      9     0.00   0.66944   3 ;    C17-   C16-   C15-   H5S
 12845  12848  12851  12854      9     0.00   0.41840   1 ;    C17-   C16-   C15-   C14
 12845  12848  12851  12854      9     0.00   0.41840   2 ;    C17-   C16-   C15-   C14
 12845  12848  12851  12854      9     0.00   0.41840   4 ;    C17-   C16-   C15-   C14
 12845  12848  12851  12854      9     0.00   0.41840   5 ;    C17-   C16-   C15-   C14
 12845  12848  12851  12854      9     0.00   1.25520   3 ;    C17-   C16-   C15-   C14
 12846  12845  12848  12849      9     0.00   0.62760   3 ;    H7R-   C17-   C16-   H6R
 12846  12845  12848  12850      9     0.00   0.62760   3 ;    H7R-   C17-   C16-   H6S
 12846  12845  12848  12851      9     0.00   0.66944   3 ;    H7R-   C17-   C16-   C15
 12847  12845  12848  12849      9     0.00   0.62760   3 ;    H7S-   C17-   C16-   H6R
 12847  12845  12848  12850      9     0.00   0.62760   3 ;    H7S-   C17-   C16-   H6S
 12847  12845  12848  12851      9     0.00   0.66944   3 ;    H7S-   C17-   C16-   C15
 12848  12851  12854  12855      9     0.00   0.66944   3 ;    C16-   C15-   C14-   H4R
 12848  12851  12854  12856      9     0.00   0.66944   3 ;    C16-   C15-   C14-   H4S
 12848  12851  12854  12857      9     0.00   0.41840   1 ;    C16-   C15-   C14-   C13
 12848  12851  12854  12857      9     0.00   0.41840   2 ;    C16-   C15-   C14-   C13
 12848  12851  12854  12857      9     0.00   0.41840   4 ;    C16-   C15-   C14-   C13
 12848  12851  12854  12857      9     0.00   0.41840   5 ;    C16-   C15-   C14-   C13
 12848  12851  12854  12857      9     0.00   1.25520   3 ;    C16-   C15-   C14-   C13
 12849  12848  12851  12852      9     0.00   0.62760   3 ;    H6R-   C16-   C15-   H5R
 12849  12848  12851  12853      9     0.00   0.62760   3 ;    H6R-   C16-   C15-   H5S
 12849  12848  12851  12854      9     0.00   0.66944   3 ;    H6R-   C16-   C15-   C14
 12850  12848  12851  12852      9     0.00   0.62760   3 ;    H6S-   C16-   C15-   H5R
 12850  12848  12851  12853      9     0.00   0.62760   3 ;    H6S-   C16-   C15-   H5S
 12850  12848  12851  12854      9     0.00   0.66944   3 ;    H6S-   C16-   C15-   C14
 12851  12854  12857  12858      9     0.00   0.66944   3 ;    C15-   C14-   C13-   H3R
 12851  12854  12857  12859      9     0.00   0.66944   3 ;    C15-   C14-   C13-   H3S
 12851  12854  12857  12860      9     0.00   0.41840   1 ;    C15-   C14-   C13-   C12
 12851  12854  12857  12860      9     0.00   0.41840   2 ;    C15-   C14-   C13-   C12
 12851  12854  12857  12860      9     0.00   0.41840   4 ;    C15-   C14-   C13-   C12
 12851  12854  12857  12860      9     0.00   0.41840   5 ;    C15-   C14-   C13-   C12
 12851  12854  12857  12860      9     0.00   1.25520   3 ;    C15-   C14-   C13-   C12
 12852  12851  12854  12855      9     0.00   0.62760   3 ;    H5R-   C15-   C14-   H4R
 12852  12851  12854  12856      9     0.00   0.62760   3 ;    H5R-   C15-   C14-   H4S
 12852  12851  12854  12857      9     0.00   0.66944   3 ;    H5R-   C15-   C14-   C13
 12853  12851  12854  12855      9     0.00   0.62760   3 ;    H5S-   C15-   C14-   H4R
 12853  12851  12854  12856      9     0.00   0.62760   3 ;    H5S-   C15-   C14-   H4S
 12853  12851  12854  12857      9     0.00   0.66944   3 ;    H5S-   C15-   C14-   C13
 12854  12857  12860  12861      9     0.00   0.66944   3 ;    C14-   C13-   C12-   H2R
 12854  12857  12860  12862      9     0.00   0.66944   3 ;    C14-   C13-   C12-   H2S
 12855  12854  12857  12858      9     0.00   0.62760   3 ;    H4R-   C14-   C13-   H3R
 12855  12854  12857  12859      9     0.00   0.62760   3 ;    H4R-   C14-   C13-   H3S
 12855  12854  12857  12860      9     0.00   0.66944   3 ;    H4R-   C14-   C13-   C12
 12856  12854  12857  12858      9     0.00   0.62760   3 ;    H4S-   C14-   C13-   H3R
 12856  12854  12857  12859      9     0.00   0.62760   3 ;    H4S-   C14-   C13-   H3S
 12856  12854  12857  12860      9     0.00   0.66944   3 ;    H4S-   C14-   C13-   C12
 12858  12857  12860  12861      9     0.00   0.62760   3 ;    H3R-   C13-   C12-   H2R
 12858  12857  12860  12862      9     0.00   0.62760   3 ;    H3R-   C13-   C12-   H2S
 12859  12857  12860  12861      9     0.00   0.62760   3 ;    H3S-   C13-   C12-   H2R
 12859  12857  12860  12862      9     0.00   0.62760   3 ;    H3S-   C13-   C12-   H2S
 12863  12864  12867  12868      9     0.00   0.62760   3 ;   H14T-  C114-  C113-  H13R
 12863  12864  12867  12869      9     0.00   0.62760   3 ;   H14T-  C114-  C113-  H13S
 12863  12864  12867  12870      9     0.00   0.66944   3 ;   H14T-  C114-  C113-  C112
 12864  12867  12870  12871      9     0.00   0.66944   3 ;   C114-  C113-  C112-  H12R
 12864  12867  12870  12872      9     0.00   0.66944   3 ;   C114-  C113-  C112-  H12S
 12864  12867  12870  12873      9     0.00   0.41840   1 ;   C114-  C113-  C112-  C111
 12864  12867  12870  12873      9     0.00   0.41840   2 ;   C114-  C113-  C112-  C111
 12864  12867  12870  12873      9     0.00   0.41840   4 ;   C114-  C113-  C112-  C111
 12864  12867  12870  12873      9     0.00   0.41840   5 ;   C114-  C113-  C112-  C111
 12864  12867  12870  12873      9     0.00   1.25520   3 ;   C114-  C113-  C112-  C111
 12865  12864  12867  12868      9     0.00   0.62760   3 ;   H14R-  C114-  C113-  H13R
 12865  12864  12867  12869      9     0.00   0.62760   3 ;   H14R-  C114-  C113-  H13S
 12865  12864  12867  12870      9     0.00   0.66944   3 ;   H14R-  C114-  C113-  C112
 12866  12864  12867  12868      9     0.00   0.62760   3 ;   H14S-  C114-  C113-  H13R
 12866  12864  12867  12869      9     0.00   0.62760   3 ;   H14S-  C114-  C113-  H13S
 12866  12864  12867  12870      9     0.00   0.66944   3 ;   H14S-  C114-  C113-  C112
 12867  12870  12873  12874      9     0.00   0.66944   3 ;   C113-  C112-  C111-  H11R
 12867  12870  12873  12875      9     0.00   0.66944   3 ;   C113-  C112-  C111-  H11S
 12867  12870  12873  12876      9     0.00   0.41840   1 ;   C113-  C112-  C111-  C110
 12867  12870  12873  12876      9     0.00   0.41840   2 ;   C113-  C112-  C111-  C110
 12867  12870  12873  12876      9     0.00   0.41840   4 ;   C113-  C112-  C111-  C110
 12867  12870  12873  12876      9     0.00   0.41840   5 ;   C113-  C112-  C111-  C110
 12867  12870  12873  12876      9     0.00   1.25520   3 ;   C113-  C112-  C111-  C110
 12868  12867  12870  12871      9     0.00   0.62760   3 ;   H13R-  C113-  C112-  H12R
 12868  12867  12870  12872      9     0.00   0.62760   3 ;   H13R-  C113-  C112-  H12S
 12868  12867  12870  12873      9     0.00   0.66944   3 ;   H13R-  C113-  C112-  C111
 12869  12867  12870  12871      9     0.00   0.62760   3 ;   H13S-  C113-  C112-  H12R
 12869  12867  12870  12872      9     0.00   0.62760   3 ;   H13S-  C113-  C112-  H12S
 12869  12867  12870  12873      9     0.00   0.66944   3 ;   H13S-  C113-  C112-  C111
 12870  12873  12876  12877      9     0.00   0.66944   3 ;   C112-  C111-  C110-  H10R
 12870  12873  12876  12878      9     0.00   0.66944   3 ;   C112-  C111-  C110-  H10S
 12870  12873  12876  12879      9     0.00   0.41840   1 ;   C112-  C111-  C110-   C19
 12870  12873  12876  12879      9     0.00   0.41840   2 ;   C112-  C111-  C110-   C19
 12870  12873  12876  12879      9     0.00   0.41840   4 ;   C112-  C111-  C110-   C19
 12870  12873  12876  12879      9     0.00   0.41840   5 ;   C112-  C111-  C110-   C19
 12870  12873  12876  12879      9     0.00   1.25520   3 ;   C112-  C111-  C110-   C19
 12871  12870  12873  12874      9     0.00   0.62760   3 ;   H12R-  C112-  C111-  H11R
 12871  12870  12873  12875      9     0.00   0.62760   3 ;   H12R-  C112-  C111-  H11S
 12871  12870  12873  12876      9     0.00   0.66944   3 ;   H12R-  C112-  C111-  C110
 12872  12870  12873  12874      9     0.00   0.62760   3 ;   H12S-  C112-  C111-  H11R
 12872  12870  12873  12875      9     0.00   0.62760   3 ;   H12S-  C112-  C111-  H11S
 12872  12870  12873  12876      9     0.00   0.66944   3 ;   H12S-  C112-  C111-  C110
 12873  12876  12879  12880      9     0.00   0.66944   3 ;   C111-  C110-   C19-   H9R
 12873  12876  12879  12881      9     0.00   0.66944   3 ;   C111-  C110-   C19-   H9S
 12873  12876  12879  12882      9     0.00   0.41840   1 ;   C111-  C110-   C19-   C18
 12873  12876  12879  12882      9     0.00   0.41840   2 ;   C111-  C110-   C19-   C18
 12873  12876  12879  12882      9     0.00   0.41840   4 ;   C111-  C110-   C19-   C18
 12873  12876  12879  12882      9     0.00   0.41840   5 ;   C111-  C110-   C19-   C18
 12873  12876  12879  12882      9     0.00   1.25520   3 ;   C111-  C110-   C19-   C18
 12874  12873  12876  12877      9     0.00   0.62760   3 ;   H11R-  C111-  C110-  H10R
 12874  12873  12876  12878      9     0.00   0.62760   3 ;   H11R-  C111-  C110-  H10S
 12874  12873  12876  12879      9     0.00   0.66944   3 ;   H11R-  C111-  C110-   C19
 12875  12873  12876  12877      9     0.00   0.62760   3 ;   H11S-  C111-  C110-  H10R
 12875  12873  12876  12878      9     0.00   0.62760   3 ;   H11S-  C111-  C110-  H10S
 12875  12873  12876  12879      9     0.00   0.66944   3 ;   H11S-  C111-  C110-   C19
 12876  12879  12882  12883      9     0.00   0.66944   3 ;   C110-   C19-   C18-   H8R
 12876  12879  12882  12884      9     0.00   0.66944   3 ;   C110-   C19-   C18-   H8S
 12876  12879  12882  12885      9     0.00   0.41840   1 ;   C110-   C19-   C18-   C17
 12876  12879  12882  12885      9     0.00   0.41840   2 ;   C110-   C19-   C18-   C17
 12876  12879  12882  12885      9     0.00   0.41840   4 ;   C110-   C19-   C18-   C17
 12876  12879  12882  12885      9     0.00   0.41840   5 ;   C110-   C19-   C18-   C17
 12876  12879  12882  12885      9     0.00   1.25520   3 ;   C110-   C19-   C18-   C17
 12877  12876  12879  12880      9     0.00   0.62760   3 ;   H10R-  C110-   C19-   H9R
 12877  12876  12879  12881      9     0.00   0.62760   3 ;   H10R-  C110-   C19-   H9S
 12877  12876  12879  12882      9     0.00   0.66944   3 ;   H10R-  C110-   C19-   C18
 12878  12876  12879  12880      9     0.00   0.62760   3 ;   H10S-  C110-   C19-   H9R
 12878  12876  12879  12881      9     0.00   0.62760   3 ;   H10S-  C110-   C19-   H9S
 12878  12876  12879  12882      9     0.00   0.66944   3 ;   H10S-  C110-   C19-   C18
 12879  12882  12885  12886      9     0.00   0.66944   3 ;    C19-   C18-   C17-   H7R
 12879  12882  12885  12887      9     0.00   0.66944   3 ;    C19-   C18-   C17-   H7S
 12879  12882  12885  12888      9     0.00   0.41840   1 ;    C19-   C18-   C17-   C16
 12879  12882  12885  12888      9     0.00   0.41840   2 ;    C19-   C18-   C17-   C16
 12879  12882  12885  12888      9     0.00   0.41840   4 ;    C19-   C18-   C17-   C16
 12879  12882  12885  12888      9     0.00   0.41840   5 ;    C19-   C18-   C17-   C16
 12879  12882  12885  12888      9     0.00   1.25520   3 ;    C19-   C18-   C17-   C16
 12880  12879  12882  12883      9     0.00   0.62760   3 ;    H9R-   C19-   C18-   H8R
 12880  12879  12882  12884      9     0.00   0.62760   3 ;    H9R-   C19-   C18-   H8S
 12880  12879  12882  12885      9     0.00   0.66944   3 ;    H9R-   C19-   C18-   C17
 12881  12879  12882  12883      9     0.00   0.62760   3 ;    H9S-   C19-   C18-   H8R
 12881  12879  12882  12884      9     0.00   0.62760   3 ;    H9S-   C19-   C18-   H8S
 12881  12879  12882  12885      9     0.00   0.66944   3 ;    H9S-   C19-   C18-   C17
 12882  12885  12888  12889      9     0.00   0.66944   3 ;    C18-   C17-   C16-   H6R
 12882  12885  12888  12890      9     0.00   0.66944   3 ;    C18-   C17-   C16-   H6S
 12882  12885  12888  12891      9     0.00   0.41840   1 ;    C18-   C17-   C16-   C15
 12882  12885  12888  12891      9     0.00   0.41840   2 ;    C18-   C17-   C16-   C15
 12882  12885  12888  12891      9     0.00   0.41840   4 ;    C18-   C17-   C16-   C15
 12882  12885  12888  12891      9     0.00   0.41840   5 ;    C18-   C17-   C16-   C15
 12882  12885  12888  12891      9     0.00   1.25520   3 ;    C18-   C17-   C16-   C15
 12883  12882  12885  12886      9     0.00   0.62760   3 ;    H8R-   C18-   C17-   H7R
 12883  12882  12885  12887      9     0.00   0.62760   3 ;    H8R-   C18-   C17-   H7S
 12883  12882  12885  12888      9     0.00   0.66944   3 ;    H8R-   C18-   C17-   C16
 12884  12882  12885  12886      9     0.00   0.62760   3 ;    H8S-   C18-   C17-   H7R
 12884  12882  12885  12887      9     0.00   0.62760   3 ;    H8S-   C18-   C17-   H7S
 12884  12882  12885  12888      9     0.00   0.66944   3 ;    H8S-   C18-   C17-   C16
 12885  12888  12891  12892      9     0.00   0.66944   3 ;    C17-   C16-   C15-   H5R
 12885  12888  12891  12893      9     0.00   0.66944   3 ;    C17-   C16-   C15-   H5S
 12885  12888  12891  12894      9     0.00   0.41840   1 ;    C17-   C16-   C15-   C14
 12885  12888  12891  12894      9     0.00   0.41840   2 ;    C17-   C16-   C15-   C14
 12885  12888  12891  12894      9     0.00   0.41840   4 ;    C17-   C16-   C15-   C14
 12885  12888  12891  12894      9     0.00   0.41840   5 ;    C17-   C16-   C15-   C14
 12885  12888  12891  12894      9     0.00   1.25520   3 ;    C17-   C16-   C15-   C14
 12886  12885  12888  12889      9     0.00   0.62760   3 ;    H7R-   C17-   C16-   H6R
 12886  12885  12888  12890      9     0.00   0.62760   3 ;    H7R-   C17-   C16-   H6S
 12886  12885  12888  12891      9     0.00   0.66944   3 ;    H7R-   C17-   C16-   C15
 12887  12885  12888  12889      9     0.00   0.62760   3 ;    H7S-   C17-   C16-   H6R
 12887  12885  12888  12890      9     0.00   0.62760   3 ;    H7S-   C17-   C16-   H6S
 12887  12885  12888  12891      9     0.00   0.66944   3 ;    H7S-   C17-   C16-   C15
 12888  12891  12894  12895      9     0.00   0.66944   3 ;    C16-   C15-   C14-   H4R
 12888  12891  12894  12896      9     0.00   0.66944   3 ;    C16-   C15-   C14-   H4S
 12888  12891  12894  12897      9     0.00   0.41840   1 ;    C16-   C15-   C14-   C13
 12888  12891  12894  12897      9     0.00   0.41840   2 ;    C16-   C15-   C14-   C13
 12888  12891  12894  12897      9     0.00   0.41840   4 ;    C16-   C15-   C14-   C13
 12888  12891  12894  12897      9     0.00   0.41840   5 ;    C16-   C15-   C14-   C13
 12888  12891  12894  12897      9     0.00   1.25520   3 ;    C16-   C15-   C14-   C13
 12889  12888  12891  12892      9     0.00   0.62760   3 ;    H6R-   C16-   C15-   H5R
 12889  12888  12891  12893      9     0.00   0.62760   3 ;    H6R-   C16-   C15-   H5S
 12889  12888  12891  12894      9     0.00   0.66944   3 ;    H6R-   C16-   C15-   C14
 12890  12888  12891  12892      9     0.00   0.62760   3 ;    H6S-   C16-   C15-   H5R
 12890  12888  12891  12893      9     0.00   0.62760   3 ;    H6S-   C16-   C15-   H5S
 12890  12888  12891  12894      9     0.00   0.66944   3 ;    H6S-   C16-   C15-   C14
 12891  12894  12897  12898      9     0.00   0.66944   3 ;    C15-   C14-   C13-   H3R
 12891  12894  12897  12899      9     0.00   0.66944   3 ;    C15-   C14-   C13-   H3S
 12891  12894  12897  12900      9     0.00   0.41840   1 ;    C15-   C14-   C13-   C12
 12891  12894  12897  12900      9     0.00   0.41840   2 ;    C15-   C14-   C13-   C12
 12891  12894  12897  12900      9     0.00   0.41840   4 ;    C15-   C14-   C13-   C12
 12891  12894  12897  12900      9     0.00   0.41840   5 ;    C15-   C14-   C13-   C12
 12891  12894  12897  12900      9     0.00   1.25520   3 ;    C15-   C14-   C13-   C12
 12892  12891  12894  12895      9     0.00   0.62760   3 ;    H5R-   C15-   C14-   H4R
 12892  12891  12894  12896      9     0.00   0.62760   3 ;    H5R-   C15-   C14-   H4S
 12892  12891  12894  12897      9     0.00   0.66944   3 ;    H5R-   C15-   C14-   C13
 12893  12891  12894  12895      9     0.00   0.62760   3 ;    H5S-   C15-   C14-   H4R
 12893  12891  12894  12896      9     0.00   0.62760   3 ;    H5S-   C15-   C14-   H4S
 12893  12891  12894  12897      9     0.00   0.66944   3 ;    H5S-   C15-   C14-   C13
 12894  12897  12900  12901      9     0.00   0.66944   3 ;    C14-   C13-   C12-   H2R
 12894  12897  12900  12902      9     0.00   0.66944   3 ;    C14-   C13-   C12-   H2S
 12894  12897  12900  12903      9     0.00   0.65270   3 ;    C14-   C13-   C12-   C11
 12895  12894  12897  12898      9     0.00   0.62760   3 ;    H4R-   C14-   C13-   H3R
 12895  12894  12897  12899      9     0.00   0.62760   3 ;    H4R-   C14-   C13-   H3S
 12895  12894  12897  12900      9     0.00   0.66944   3 ;    H4R-   C14-   C13-   C12
 12896  12894  12897  12898      9     0.00   0.62760   3 ;    H4S-   C14-   C13-   H3R
 12896  12894  12897  12899      9     0.00   0.62760   3 ;    H4S-   C14-   C13-   H3S
 12896  12894  12897  12900      9     0.00   0.66944   3 ;    H4S-   C14-   C13-   C12
 12897  12900  12903  12904      9   180.00   0.00000   2 ;    C13-   C12-   C11-   O12
 12897  12900  12903  12905      9   180.00   0.00000   2 ;    C13-   C12-   C11-   O11
 12898  12897  12900  12901      9     0.00   0.62760   3 ;    H3R-   C13-   C12-   H2R
 12898  12897  12900  12902      9     0.00   0.62760   3 ;    H3R-   C13-   C12-   H2S
 12898  12897  12900  12903      9     0.00   0.65270   3 ;    H3R-   C13-   C12-   C11
 12899  12897  12900  12901      9     0.00   0.62760   3 ;    H3S-   C13-   C12-   H2R
 12899  12897  12900  12902      9     0.00   0.62760   3 ;    H3S-   C13-   C12-   H2S
 12899  12897  12900  12903      9     0.00   0.65270   3 ;    H3S-   C13-   C12-   C11
 12900  12903  12905  12906      9   180.00  11.29680   2 ;    C12-   C11-   O11-    C1
 12901  12900  12903  12904      9     0.00   3.34720   1 ;    H2R-   C12-   C11-   O12
 12901  12900  12903  12904      9   180.00   0.33472   3 ;    H2R-   C12-   C11-   O12
 12901  12900  12903  12905      9   180.00   0.00000   2 ;    H2R-   C12-   C11-   O11
 12902  12900  12903  12904      9     0.00   3.34720   1 ;    H2S-   C12-   C11-   O12
 12902  12900  12903  12904      9   180.00   0.33472   3 ;    H2S-   C12-   C11-   O12
 12902  12900  12903  12905      9   180.00   0.00000   2 ;    H2S-   C12-   C11-   O11
 12903  12905  12906  12907      9     0.00   1.60247   3 ;    C11-   O11-    C1-    HR
 12903  12905  12906  12908      9     0.00   1.60247   3 ;    C11-   O11-    C1-    HS
 12903  12905  12906  12909      9     0.00  -0.41840   1 ;    C11-   O11-    C1-    C2
 12904  12903  12905  12906      9   180.00   5.85760   1 ;    O12-   C11-   O11-    C1
 12904  12903  12905  12906      9   180.00  11.29680   2 ;    O12-   C11-   O11-    C1
 12905  12906  12909  12910      9     0.00   0.00000   0 ;    O11-    C1-    C2-    HX
 12905  12906  12909  12910      9     0.00   1.04600   1 ;    O11-    C1-    C2-    HX
 12905  12906  12909  12911      9     0.00   0.00000   0 ;    O11-    C1-    C2-    C3
 12905  12906  12909  12911      9     0.00   0.00000   0 ;    O11-    C1-    C2-    C3
 12905  12906  12909  12911      9     0.00   0.00000   0 ;    O11-    C1-    C2-    C3
 12905  12906  12909  12911      9     0.00   0.00000   0 ;    O11-    C1-    C2-    C3
 12905  12906  12909  12911      9     0.00   0.00000   0 ;    O11-    C1-    C2-    C3
 12905  12906  12909  12938      9     0.00   1.25520   2 ;    O11-    C1-    C2-   O21
 12905  12906  12909  12938      9     0.00   4.18400   3 ;    O11-    C1-    C2-   O21
 12905  12906  12909  12938      9   180.00  -0.41840   1 ;    O11-    C1-    C2-   O21
 12906  12909  12911  12912      9     0.00   0.65270   3 ;     C1-    C2-    C3-    HA
 12906  12909  12911  12913      9     0.00   0.65270   3 ;     C1-    C2-    C3-    HB
 12906  12909  12911  12914      9   180.00   3.34720   1 ;     C1-    C2-    C3-   O31
 12906  12909  12938  12939      9     0.00  -0.41840   1 ;     C1-    C2-   O21-   C21
 12907  12906  12909  12910      9     0.00   0.65270   3 ;     HR-    C1-    C2-    HX
 12907  12906  12909  12911      9     0.00   0.65270   3 ;     HR-    C1-    C2-    C3
 12907  12906  12909  12938      9     0.00   0.00000   0 ;     HR-    C1-    C2-   O21
 12907  12906  12909  12938      9     0.00   1.04600   1 ;     HR-    C1-    C2-   O21
 12908  12906  12909  12910      9     0.00   0.65270   3 ;     HS-    C1-    C2-    HX
 12908  12906  12909  12911      9     0.00   0.65270   3 ;     HS-    C1-    C2-    C3
 12908  12906  12909  12938      9     0.00   0.00000   0 ;     HS-    C1-    C2-   O21
 12908  12906  12909  12938      9     0.00   1.04600   1 ;     HS-    C1-    C2-   O21
 12909  12911  12914  12915      9     0.00   0.00000   0 ;     C2-    C3-   O31-   P31
 12909  12911  12914  12915      9   180.00  -3.34720   2 ;     C2-    C3-   O31-   P31
 12909  12938  12939  12940      9   180.00   5.85760   1 ;     C2-   O21-   C21-   O22
 12909  12938  12939  12940      9   180.00  11.29680   2 ;     C2-   O21-   C21-   O22
 12909  12938  12939  12978      9   180.00  11.29680   2 ;     C2-   O21-   C21-   C12
 12910  12909  12911  12912      9     0.00   0.65270   3 ;     HX-    C2-    C3-    HA
 12910  12909  12911  12913      9     0.00   0.65270   3 ;     HX-    C2-    C3-    HB
 12910  12909  12911  12914      9     0.00   0.00000   0 ;     HX-    C2-    C3-   O31
 12910  12909  12911  12914      9     0.00   1.04600   1 ;     HX-    C2-    C3-   O31
 12910  12909  12938  12939      9     0.00   1.60247   3 ;     HX-    C2-   O21-   C21
 12911  12909  12938  12939      9     0.00  -0.41840   1 ;     C3-    C2-   O21-   C21
 12911  12914  12915  12916      9     0.00   2.51040   3 ;     C3-   O31-   P31-   O32
 12911  12914  12915  12916      9     0.00   9.62320   2 ;     C3-   O31-   P31-   O32
 12911  12914  12915  12936      9     0.00   0.00000   0 ;     C3-   O31-   P31-   O33
 12911  12914  12915  12936      9     0.00   0.00000   0 ;     C3-   O31-   P31-   O33
 12911  12914  12915  12936      9     0.00   0.00000   0 ;     C3-   O31-   P31-   O33
 12911  12914  12915  12936      9     0.00   0.00000   0 ;     C3-   O31-   P31-   O33
 12911  12914  12915  12936      9     0.00   0.83680   2 ;     C3-   O31-   P31-   O33
 12911  12914  12915  12937      9     0.00   0.00000   0 ;     C3-   O31-   P31-   O34
 12911  12914  12915  12937      9     0.00   0.00000   0 ;     C3-   O31-   P31-   O34
 12911  12914  12915  12937      9     0.00   0.00000   0 ;     C3-   O31-   P31-   O34
 12911  12914  12915  12937      9     0.00   0.00000   0 ;     C3-   O31-   P31-   O34
 12911  12914  12915  12937      9     0.00   0.83680   2 ;     C3-   O31-   P31-   O34
 12912  12911  12909  12938      9     0.00   0.00000   0 ;     HA-    C3-    C2-   O21
 12912  12911  12909  12938      9     0.00   1.04600   1 ;     HA-    C3-    C2-   O21
 12912  12911  12914  12915      9     0.00   0.00000   0 ;     HA-    C3-   O31-   P31
 12912  12911  12914  12915      9     0.00   0.00000   0 ;     HA-    C3-   O31-   P31
 12912  12911  12914  12915      9     0.00   0.00000   0 ;     HA-    C3-   O31-   P31
 12912  12911  12914  12915      9     0.00   0.00000   0 ;     HA-    C3-   O31-   P31
 12912  12911  12914  12915      9     0.00   1.60247   3 ;     HA-    C3-   O31-   P31
 12913  12911  12909  12938      9     0.00   0.00000   0 ;     HB-    C3-    C2-   O21
 12913  12911  12909  12938      9     0.00   1.04600   1 ;     HB-    C3-    C2-   O21
 12913  12911  12914  12915      9     0.00   0.00000   0 ;     HB-    C3-   O31-   P31
 12913  12911  12914  12915      9     0.00   0.00000   0 ;     HB-    C3-   O31-   P31
 12913  12911  12914  12915      9     0.00   0.00000   0 ;     HB-    C3-   O31-   P31
 12913  12911  12914  12915      9     0.00   0.00000   0 ;     HB-    C3-   O31-   P31
 12913  12911  12914  12915      9     0.00   1.60247   3 ;     HB-    C3-   O31-   P31
 12914  12911  12909  12938      9     0.00   0.00000   0 ;    O31-    C3-    C2-   O21
 12914  12911  12909  12938      9     0.00   0.00000   0 ;    O31-    C3-    C2-   O21
 12914  12911  12909  12938      9     0.00   0.00000   0 ;    O31-    C3-    C2-   O21
 12914  12911  12909  12938      9     0.00   0.00000   0 ;    O31-    C3-    C2-   O21
 12914  12911  12909  12938      9     0.00   0.00000   0 ;    O31-    C3-    C2-   O21
 12914  12915  12916  12917      9     0.00   2.51040   3 ;    O31-   P31-   O32-   C31
 12914  12915  12916  12917      9     0.00   9.62320   2 ;    O31-   P31-   O32-   C31
 12915  12916  12917  12918      9     0.00   0.00000   0 ;    P31-   O32-   C31-   H1A
 12915  12916  12917  12918      9     0.00   0.00000   0 ;    P31-   O32-   C31-   H1A
 12915  12916  12917  12918      9     0.00   0.00000   0 ;    P31-   O32-   C31-   H1A
 12915  12916  12917  12918      9     0.00   0.00000   0 ;    P31-   O32-   C31-   H1A
 12915  12916  12917  12918      9     0.00   1.60247   3 ;    P31-   O32-   C31-   H1A
 12915  12916  12917  12919      9     0.00   0.00000   0 ;    P31-   O32-   C31-   H1B
 12915  12916  12917  12919      9     0.00   0.00000   0 ;    P31-   O32-   C31-   H1B
 12915  12916  12917  12919      9     0.00   0.00000   0 ;    P31-   O32-   C31-   H1B
 12915  12916  12917  12919      9     0.00   0.00000   0 ;    P31-   O32-   C31-   H1B
 12915  12916  12917  12919      9     0.00   1.60247   3 ;    P31-   O32-   C31-   H1B
 12915  12916  12917  12920      9     0.00   0.00000   0 ;    P31-   O32-   C31-   C32
 12915  12916  12917  12920      9   180.00  -3.34720   2 ;    P31-   O32-   C31-   C32
 12916  12917  12920  12921      9     0.00   0.65270   3 ;    O32-   C31-   C32-   H2A
 12916  12917  12920  12922      9     0.00   0.65270   3 ;    O32-   C31-   C32-   H2B
 12916  12917  12920  12923      9     0.00   4.18400   3 ;    O32-   C31-   C32-   N31
 12917  12916  12915  12936      9     0.00   0.00000   0 ;    C31-   O32-   P31-   O33
 12917  12916  12915  12936      9     0.00   0.00000   0 ;    C31-   O32-   P31-   O33
 12917  12916  12915  12936      9     0.00   0.00000   0 ;    C31-   O32-   P31-   O33
 12917  12916  12915  12936      9     0.00   0.00000   0 ;    C31-   O32-   P31-   O33
 12917  12916  12915  12936      9     0.00   0.83680   2 ;    C31-   O32-   P31-   O33
 12917  12916  12915  12937      9     0.00   0.00000   0 ;    C31-   O32-   P31-   O34
 12917  12916  12915  12937      9     0.00   0.00000   0 ;    C31-   O32-   P31-   O34
 12917  12916  12915  12937      9     0.00   0.00000   0 ;    C31-   O32-   P31-   O34
 12917  12916  12915  12937      9     0.00   0.00000   0 ;    C31-   O32-   P31-   O34
 12917  12916  12915  12937      9     0.00   0.83680   2 ;    C31-   O32-   P31-   O34
 12917  12920  12923  12924      9     0.00   0.65270   3 ;    C31-   C32-   N31-   C33
 12917  12920  12923  12928      9     0.00   0.65270   3 ;    C31-   C32-   N31-   C34
 12917  12920  12923  12932      9     0.00   0.65270   3 ;    C31-   C32-   N31-   C35
 12918  12917  12920  12921      9     0.00   0.65270   3 ;    H1A-   C31-   C32-   H2A
 12918  12917  12920  12922      9     0.00   0.65270   3 ;    H1A-   C31-   C32-   H2B
 12918  12917  12920  12923      9     0.00   0.65270   3 ;    H1A-   C31-   C32-   N31
 12919  12917  12920  12921      9     0.00   0.65270   3 ;    H1B-   C31-   C32-   H2A
 12919  12917  12920  12922      9     0.00   0.65270   3 ;    H1B-   C31-   C32-   H2B
 12919  12917  12920  12923      9     0.00   0.65270   3 ;    H1B-   C31-   C32-   N31
 12920  12923  12924  12925      9     0.00   0.65270   3 ;    C32-   N31-   C33-   H3A
 12920  12923  12924  12926      9     0.00   0.65270   3 ;    C32-   N31-   C33-   H3B
 12920  12923  12924  12927      9     0.00   0.65270   3 ;    C32-   N31-   C33-   H3C
 12920  12923  12928  12929      9     0.00   0.65270   3 ;    C32-   N31-   C34-   H4A
 12920  12923  12928  12930      9     0.00   0.65270   3 ;    C32-   N31-   C34-   H4B
 12920  12923  12928  12931      9     0.00   0.65270   3 ;    C32-   N31-   C34-   H4C
 12920  12923  12932  12933      9     0.00   0.65270   3 ;    C32-   N31-   C35-   H5A
 12920  12923  12932  12934      9     0.00   0.65270   3 ;    C32-   N31-   C35-   H5B
 12920  12923  12932  12935      9     0.00   0.65270   3 ;    C32-   N31-   C35-   H5C
 12921  12920  12923  12924      9     0.00   0.65270   3 ;    H2A-   C32-   N31-   C33
 12921  12920  12923  12928      9     0.00   0.65270   3 ;    H2A-   C32-   N31-   C34
 12921  12920  12923  12932      9     0.00   0.65270   3 ;    H2A-   C32-   N31-   C35
 12922  12920  12923  12924      9     0.00   0.65270   3 ;    H2B-   C32-   N31-   C33
 12922  12920  12923  12928      9     0.00   0.65270   3 ;    H2B-   C32-   N31-   C34
 12922  12920  12923  12932      9     0.00   0.65270   3 ;    H2B-   C32-   N31-   C35
 12924  12923  12928  12929      9     0.00   0.65270   3 ;    C33-   N31-   C34-   H4A
 12924  12923  12928  12930      9     0.00   0.65270   3 ;    C33-   N31-   C34-   H4B
 12924  12923  12928  12931      9     0.00   0.65270   3 ;    C33-   N31-   C34-   H4C
 12924  12923  12932  12933      9     0.00   0.65270   3 ;    C33-   N31-   C35-   H5A
 12924  12923  12932  12934      9     0.00   0.65270   3 ;    C33-   N31-   C35-   H5B
 12924  12923  12932  12935      9     0.00   0.65270   3 ;    C33-   N31-   C35-   H5C
 12925  12924  12923  12928      9     0.00   0.65270   3 ;    H3A-   C33-   N31-   C34
 12925  12924  12923  12932      9     0.00   0.65270   3 ;    H3A-   C33-   N31-   C35
 12926  12924  12923  12928      9     0.00   0.65270   3 ;    H3B-   C33-   N31-   C34
 12926  12924  12923  12932      9     0.00   0.65270   3 ;    H3B-   C33-   N31-   C35
 12927  12924  12923  12928      9     0.00   0.65270   3 ;    H3C-   C33-   N31-   C34
 12927  12924  12923  12932      9     0.00   0.65270   3 ;    H3C-   C33-   N31-   C35
 12928  12923  12932  12933      9     0.00   0.65270   3 ;    C34-   N31-   C35-   H5A
 12928  12923  12932  12934      9     0.00   0.65270   3 ;    C34-   N31-   C35-   H5B
 12928  12923  12932  12935      9     0.00   0.65270   3 ;    C34-   N31-   C35-   H5C
 12929  12928  12923  12932      9     0.00   0.65270   3 ;    H4A-   C34-   N31-   C35
 12930  12928  12923  12932      9     0.00   0.65270   3 ;    H4B-   C34-   N31-   C35
 12931  12928  12923  12932      9     0.00   0.65270   3 ;    H4C-   C34-   N31-   C35
 12938  12939  12978  12975      9   180.00   0.00000   2 ;    O21-   C21-   C12-   C13
 12938  12939  12978  12979      9   180.00   0.00000   2 ;    O21-   C21-   C12-   H2R
 12938  12939  12978  12980      9   180.00   0.00000   2 ;    O21-   C21-   C12-   H2S
 12939  12978  12975  12972      9     0.00   0.65270   3 ;    C21-   C12-   C13-   C14
 12939  12978  12975  12976      9     0.00   0.65270   3 ;    C21-   C12-   C13-   H3R
 12939  12978  12975  12977      9     0.00   0.65270   3 ;    C21-   C12-   C13-   H3S
 12940  12939  12978  12975      9   180.00   0.00000   2 ;    O22-   C21-   C12-   C13
 12940  12939  12978  12979      9     0.00   3.34720   1 ;    O22-   C21-   C12-   H2R
 12940  12939  12978  12979      9   180.00   0.33472   3 ;    O22-   C21-   C12-   H2R
 12940  12939  12978  12980      9     0.00   3.34720   1 ;    O22-   C21-   C12-   H2S
 12940  12939  12978  12980      9   180.00   0.33472   3 ;    O22-   C21-   C12-   H2S
 12941  12942  12945  12946      9     0.00   0.62760   3 ;   H14T-  C114-  C113-  H13R
 12941  12942  12945  12947      9     0.00   0.62760   3 ;   H14T-  C114-  C113-  H13S
 12941  12942  12945  12948      9     0.00   0.66944   3 ;   H14T-  C114-  C113-  C112
 12942  12945  12948  12949      9     0.00   0.66944   3 ;   C114-  C113-  C112-  H12R
 12942  12945  12948  12950      9     0.00   0.66944   3 ;   C114-  C113-  C112-  H12S
 12942  12945  12948  12951      9     0.00   0.41840   1 ;   C114-  C113-  C112-  C111
 12942  12945  12948  12951      9     0.00   0.41840   2 ;   C114-  C113-  C112-  C111
 12942  12945  12948  12951      9     0.00   0.41840   4 ;   C114-  C113-  C112-  C111
 12942  12945  12948  12951      9     0.00   0.41840   5 ;   C114-  C113-  C112-  C111
 12942  12945  12948  12951      9     0.00   1.25520   3 ;   C114-  C113-  C112-  C111
 12943  12942  12945  12946      9     0.00   0.62760   3 ;   H14R-  C114-  C113-  H13R
 12943  12942  12945  12947      9     0.00   0.62760   3 ;   H14R-  C114-  C113-  H13S
 12943  12942  12945  12948      9     0.00   0.66944   3 ;   H14R-  C114-  C113-  C112
 12944  12942  12945  12946      9     0.00   0.62760   3 ;   H14S-  C114-  C113-  H13R
 12944  12942  12945  12947      9     0.00   0.62760   3 ;   H14S-  C114-  C113-  H13S
 12944  12942  12945  12948      9     0.00   0.66944   3 ;   H14S-  C114-  C113-  C112
 12945  12948  12951  12952      9     0.00   0.66944   3 ;   C113-  C112-  C111-  H11R
 12945  12948  12951  12953      9     0.00   0.66944   3 ;   C113-  C112-  C111-  H11S
 12945  12948  12951  12954      9     0.00   0.41840   1 ;   C113-  C112-  C111-  C110
 12945  12948  12951  12954      9     0.00   0.41840   2 ;   C113-  C112-  C111-  C110
 12945  12948  12951  12954      9     0.00   0.41840   4 ;   C113-  C112-  C111-  C110
 12945  12948  12951  12954      9     0.00   0.41840   5 ;   C113-  C112-  C111-  C110
 12945  12948  12951  12954      9     0.00   1.25520   3 ;   C113-  C112-  C111-  C110
 12946  12945  12948  12949      9     0.00   0.62760   3 ;   H13R-  C113-  C112-  H12R
 12946  12945  12948  12950      9     0.00   0.62760   3 ;   H13R-  C113-  C112-  H12S
 12946  12945  12948  12951      9     0.00   0.66944   3 ;   H13R-  C113-  C112-  C111
 12947  12945  12948  12949      9     0.00   0.62760   3 ;   H13S-  C113-  C112-  H12R
 12947  12945  12948  12950      9     0.00   0.62760   3 ;   H13S-  C113-  C112-  H12S
 12947  12945  12948  12951      9     0.00   0.66944   3 ;   H13S-  C113-  C112-  C111
 12948  12951  12954  12955      9     0.00   0.66944   3 ;   C112-  C111-  C110-  H10R
 12948  12951  12954  12956      9     0.00   0.66944   3 ;   C112-  C111-  C110-  H10S
 12948  12951  12954  12957      9     0.00   0.41840   1 ;   C112-  C111-  C110-   C19
 12948  12951  12954  12957      9     0.00   0.41840   2 ;   C112-  C111-  C110-   C19
 12948  12951  12954  12957      9     0.00   0.41840   4 ;   C112-  C111-  C110-   C19
 12948  12951  12954  12957      9     0.00   0.41840   5 ;   C112-  C111-  C110-   C19
 12948  12951  12954  12957      9     0.00   1.25520   3 ;   C112-  C111-  C110-   C19
 12949  12948  12951  12952      9     0.00   0.62760   3 ;   H12R-  C112-  C111-  H11R
 12949  12948  12951  12953      9     0.00   0.62760   3 ;   H12R-  C112-  C111-  H11S
 12949  12948  12951  12954      9     0.00   0.66944   3 ;   H12R-  C112-  C111-  C110
 12950  12948  12951  12952      9     0.00   0.62760   3 ;   H12S-  C112-  C111-  H11R
 12950  12948  12951  12953      9     0.00   0.62760   3 ;   H12S-  C112-  C111-  H11S
 12950  12948  12951  12954      9     0.00   0.66944   3 ;   H12S-  C112-  C111-  C110
 12951  12954  12957  12958      9     0.00   0.66944   3 ;   C111-  C110-   C19-   H9R
 12951  12954  12957  12959      9     0.00   0.66944   3 ;   C111-  C110-   C19-   H9S
 12951  12954  12957  12960      9     0.00   0.41840   1 ;   C111-  C110-   C19-   C18
 12951  12954  12957  12960      9     0.00   0.41840   2 ;   C111-  C110-   C19-   C18
 12951  12954  12957  12960      9     0.00   0.41840   4 ;   C111-  C110-   C19-   C18
 12951  12954  12957  12960      9     0.00   0.41840   5 ;   C111-  C110-   C19-   C18
 12951  12954  12957  12960      9     0.00   1.25520   3 ;   C111-  C110-   C19-   C18
 12952  12951  12954  12955      9     0.00   0.62760   3 ;   H11R-  C111-  C110-  H10R
 12952  12951  12954  12956      9     0.00   0.62760   3 ;   H11R-  C111-  C110-  H10S
 12952  12951  12954  12957      9     0.00   0.66944   3 ;   H11R-  C111-  C110-   C19
 12953  12951  12954  12955      9     0.00   0.62760   3 ;   H11S-  C111-  C110-  H10R
 12953  12951  12954  12956      9     0.00   0.62760   3 ;   H11S-  C111-  C110-  H10S
 12953  12951  12954  12957      9     0.00   0.66944   3 ;   H11S-  C111-  C110-   C19
 12954  12957  12960  12961      9     0.00   0.66944   3 ;   C110-   C19-   C18-   H8R
 12954  12957  12960  12962      9     0.00   0.66944   3 ;   C110-   C19-   C18-   H8S
 12954  12957  12960  12963      9     0.00   0.41840   1 ;   C110-   C19-   C18-   C17
 12954  12957  12960  12963      9     0.00   0.41840   2 ;   C110-   C19-   C18-   C17
 12954  12957  12960  12963      9     0.00   0.41840   4 ;   C110-   C19-   C18-   C17
 12954  12957  12960  12963      9     0.00   0.41840   5 ;   C110-   C19-   C18-   C17
 12954  12957  12960  12963      9     0.00   1.25520   3 ;   C110-   C19-   C18-   C17
 12955  12954  12957  12958      9     0.00   0.62760   3 ;   H10R-  C110-   C19-   H9R
 12955  12954  12957  12959      9     0.00   0.62760   3 ;   H10R-  C110-   C19-   H9S
 12955  12954  12957  12960      9     0.00   0.66944   3 ;   H10R-  C110-   C19-   C18
 12956  12954  12957  12958      9     0.00   0.62760   3 ;   H10S-  C110-   C19-   H9R
 12956  12954  12957  12959      9     0.00   0.62760   3 ;   H10S-  C110-   C19-   H9S
 12956  12954  12957  12960      9     0.00   0.66944   3 ;   H10S-  C110-   C19-   C18
 12957  12960  12963  12964      9     0.00   0.66944   3 ;    C19-   C18-   C17-   H7R
 12957  12960  12963  12965      9     0.00   0.66944   3 ;    C19-   C18-   C17-   H7S
 12957  12960  12963  12966      9     0.00   0.41840   1 ;    C19-   C18-   C17-   C16
 12957  12960  12963  12966      9     0.00   0.41840   2 ;    C19-   C18-   C17-   C16
 12957  12960  12963  12966      9     0.00   0.41840   4 ;    C19-   C18-   C17-   C16
 12957  12960  12963  12966      9     0.00   0.41840   5 ;    C19-   C18-   C17-   C16
 12957  12960  12963  12966      9     0.00   1.25520   3 ;    C19-   C18-   C17-   C16
 12958  12957  12960  12961      9     0.00   0.62760   3 ;    H9R-   C19-   C18-   H8R
 12958  12957  12960  12962      9     0.00   0.62760   3 ;    H9R-   C19-   C18-   H8S
 12958  12957  12960  12963      9     0.00   0.66944   3 ;    H9R-   C19-   C18-   C17
 12959  12957  12960  12961      9     0.00   0.62760   3 ;    H9S-   C19-   C18-   H8R
 12959  12957  12960  12962      9     0.00   0.62760   3 ;    H9S-   C19-   C18-   H8S
 12959  12957  12960  12963      9     0.00   0.66944   3 ;    H9S-   C19-   C18-   C17
 12960  12963  12966  12967      9     0.00   0.66944   3 ;    C18-   C17-   C16-   H6R
 12960  12963  12966  12968      9     0.00   0.66944   3 ;    C18-   C17-   C16-   H6S
 12960  12963  12966  12969      9     0.00   0.41840   1 ;    C18-   C17-   C16-   C15
 12960  12963  12966  12969      9     0.00   0.41840   2 ;    C18-   C17-   C16-   C15
 12960  12963  12966  12969      9     0.00   0.41840   4 ;    C18-   C17-   C16-   C15
 12960  12963  12966  12969      9     0.00   0.41840   5 ;    C18-   C17-   C16-   C15
 12960  12963  12966  12969      9     0.00   1.25520   3 ;    C18-   C17-   C16-   C15
 12961  12960  12963  12964      9     0.00   0.62760   3 ;    H8R-   C18-   C17-   H7R
 12961  12960  12963  12965      9     0.00   0.62760   3 ;    H8R-   C18-   C17-   H7S
 12961  12960  12963  12966      9     0.00   0.66944   3 ;    H8R-   C18-   C17-   C16
 12962  12960  12963  12964      9     0.00   0.62760   3 ;    H8S-   C18-   C17-   H7R
 12962  12960  12963  12965      9     0.00   0.62760   3 ;    H8S-   C18-   C17-   H7S
 12962  12960  12963  12966      9     0.00   0.66944   3 ;    H8S-   C18-   C17-   C16
 12963  12966  12969  12970      9     0.00   0.66944   3 ;    C17-   C16-   C15-   H5R
 12963  12966  12969  12971      9     0.00   0.66944   3 ;    C17-   C16-   C15-   H5S
 12963  12966  12969  12972      9     0.00   0.41840   1 ;    C17-   C16-   C15-   C14
 12963  12966  12969  12972      9     0.00   0.41840   2 ;    C17-   C16-   C15-   C14
 12963  12966  12969  12972      9     0.00   0.41840   4 ;    C17-   C16-   C15-   C14
 12963  12966  12969  12972      9     0.00   0.41840   5 ;    C17-   C16-   C15-   C14
 12963  12966  12969  12972      9     0.00   1.25520   3 ;    C17-   C16-   C15-   C14
 12964  12963  12966  12967      9     0.00   0.62760   3 ;    H7R-   C17-   C16-   H6R
 12964  12963  12966  12968      9     0.00   0.62760   3 ;    H7R-   C17-   C16-   H6S
 12964  12963  12966  12969      9     0.00   0.66944   3 ;    H7R-   C17-   C16-   C15
 12965  12963  12966  12967      9     0.00   0.62760   3 ;    H7S-   C17-   C16-   H6R
 12965  12963  12966  12968      9     0.00   0.62760   3 ;    H7S-   C17-   C16-   H6S
 12965  12963  12966  12969      9     0.00   0.66944   3 ;    H7S-   C17-   C16-   C15
 12966  12969  12972  12973      9     0.00   0.66944   3 ;    C16-   C15-   C14-   H4R
 12966  12969  12972  12974      9     0.00   0.66944   3 ;    C16-   C15-   C14-   H4S
 12966  12969  12972  12975      9     0.00   0.41840   1 ;    C16-   C15-   C14-   C13
 12966  12969  12972  12975      9     0.00   0.41840   2 ;    C16-   C15-   C14-   C13
 12966  12969  12972  12975      9     0.00   0.41840   4 ;    C16-   C15-   C14-   C13
 12966  12969  12972  12975      9     0.00   0.41840   5 ;    C16-   C15-   C14-   C13
 12966  12969  12972  12975      9     0.00   1.25520   3 ;    C16-   C15-   C14-   C13
 12967  12966  12969  12970      9     0.00   0.62760   3 ;    H6R-   C16-   C15-   H5R
 12967  12966  12969  12971      9     0.00   0.62760   3 ;    H6R-   C16-   C15-   H5S
 12967  12966  12969  12972      9     0.00   0.66944   3 ;    H6R-   C16-   C15-   C14
 12968  12966  12969  12970      9     0.00   0.62760   3 ;    H6S-   C16-   C15-   H5R
 12968  12966  12969  12971      9     0.00   0.62760   3 ;    H6S-   C16-   C15-   H5S
 12968  12966  12969  12972      9     0.00   0.66944   3 ;    H6S-   C16-   C15-   C14
 12969  12972  12975  12976      9     0.00   0.66944   3 ;    C15-   C14-   C13-   H3R
 12969  12972  12975  12977      9     0.00   0.66944   3 ;    C15-   C14-   C13-   H3S
 12969  12972  12975  12978      9     0.00   0.41840   1 ;    C15-   C14-   C13-   C12
 12969  12972  12975  12978      9     0.00   0.41840   2 ;    C15-   C14-   C13-   C12
 12969  12972  12975  12978      9     0.00   0.41840   4 ;    C15-   C14-   C13-   C12
 12969  12972  12975  12978      9     0.00   0.41840   5 ;    C15-   C14-   C13-   C12
 12969  12972  12975  12978      9     0.00   1.25520   3 ;    C15-   C14-   C13-   C12
 12970  12969  12972  12973      9     0.00   0.62760   3 ;    H5R-   C15-   C14-   H4R
 12970  12969  12972  12974      9     0.00   0.62760   3 ;    H5R-   C15-   C14-   H4S
 12970  12969  12972  12975      9     0.00   0.66944   3 ;    H5R-   C15-   C14-   C13
 12971  12969  12972  12973      9     0.00   0.62760   3 ;    H5S-   C15-   C14-   H4R
 12971  12969  12972  12974      9     0.00   0.62760   3 ;    H5S-   C15-   C14-   H4S
 12971  12969  12972  12975      9     0.00   0.66944   3 ;    H5S-   C15-   C14-   C13
 12972  12975  12978  12979      9     0.00   0.66944   3 ;    C14-   C13-   C12-   H2R
 12972  12975  12978  12980      9     0.00   0.66944   3 ;    C14-   C13-   C12-   H2S
 12973  12972  12975  12976      9     0.00   0.62760   3 ;    H4R-   C14-   C13-   H3R
 12973  12972  12975  12977      9     0.00   0.62760   3 ;    H4R-   C14-   C13-   H3S
 12973  12972  12975  12978      9     0.00   0.66944   3 ;    H4R-   C14-   C13-   C12
 12974  12972  12975  12976      9     0.00   0.62760   3 ;    H4S-   C14-   C13-   H3R
 12974  12972  12975  12977      9     0.00   0.62760   3 ;    H4S-   C14-   C13-   H3S
 12974  12972  12975  12978      9     0.00   0.66944   3 ;    H4S-   C14-   C13-   C12
 12976  12975  12978  12979      9     0.00   0.62760   3 ;    H3R-   C13-   C12-   H2R
 12976  12975  12978  12980      9     0.00   0.62760   3 ;    H3R-   C13-   C12-   H2S
 12977  12975  12978  12979      9     0.00   0.62760   3 ;    H3S-   C13-   C12-   H2R
 12977  12975  12978  12980      9     0.00   0.62760   3 ;    H3S-   C13-   C12-   H2S
 12981  12982  12985  12986      9     0.00   0.62760   3 ;   H14T-  C114-  C113-  H13R
 12981  12982  12985  12987      9     0.00   0.62760   3 ;   H14T-  C114-  C113-  H13S
 12981  12982  12985  12988      9     0.00   0.66944   3 ;   H14T-  C114-  C113-  C112
 12982  12985  12988  12989      9     0.00   0.66944   3 ;   C114-  C113-  C112-  H12R
 12982  12985  12988  12990      9     0.00   0.66944   3 ;   C114-  C113-  C112-  H12S
 12982  12985  12988  12991      9     0.00   0.41840   1 ;   C114-  C113-  C112-  C111
 12982  12985  12988  12991      9     0.00   0.41840   2 ;   C114-  C113-  C112-  C111
 12982  12985  12988  12991      9     0.00   0.41840   4 ;   C114-  C113-  C112-  C111
 12982  12985  12988  12991      9     0.00   0.41840   5 ;   C114-  C113-  C112-  C111
 12982  12985  12988  12991      9     0.00   1.25520   3 ;   C114-  C113-  C112-  C111
 12983  12982  12985  12986      9     0.00   0.62760   3 ;   H14R-  C114-  C113-  H13R
 12983  12982  12985  12987      9     0.00   0.62760   3 ;   H14R-  C114-  C113-  H13S
 12983  12982  12985  12988      9     0.00   0.66944   3 ;   H14R-  C114-  C113-  C112
 12984  12982  12985  12986      9     0.00   0.62760   3 ;   H14S-  C114-  C113-  H13R
 12984  12982  12985  12987      9     0.00   0.62760   3 ;   H14S-  C114-  C113-  H13S
 12984  12982  12985  12988      9     0.00   0.66944   3 ;   H14S-  C114-  C113-  C112
 12985  12988  12991  12992      9     0.00   0.66944   3 ;   C113-  C112-  C111-  H11R
 12985  12988  12991  12993      9     0.00   0.66944   3 ;   C113-  C112-  C111-  H11S
 12985  12988  12991  12994      9     0.00   0.41840   1 ;   C113-  C112-  C111-  C110
 12985  12988  12991  12994      9     0.00   0.41840   2 ;   C113-  C112-  C111-  C110
 12985  12988  12991  12994      9     0.00   0.41840   4 ;   C113-  C112-  C111-  C110
 12985  12988  12991  12994      9     0.00   0.41840   5 ;   C113-  C112-  C111-  C110
 12985  12988  12991  12994      9     0.00   1.25520   3 ;   C113-  C112-  C111-  C110
 12986  12985  12988  12989      9     0.00   0.62760   3 ;   H13R-  C113-  C112-  H12R
 12986  12985  12988  12990      9     0.00   0.62760   3 ;   H13R-  C113-  C112-  H12S
 12986  12985  12988  12991      9     0.00   0.66944   3 ;   H13R-  C113-  C112-  C111
 12987  12985  12988  12989      9     0.00   0.62760   3 ;   H13S-  C113-  C112-  H12R
 12987  12985  12988  12990      9     0.00   0.62760   3 ;   H13S-  C113-  C112-  H12S
 12987  12985  12988  12991      9     0.00   0.66944   3 ;   H13S-  C113-  C112-  C111
 12988  12991  12994  12995      9     0.00   0.66944   3 ;   C112-  C111-  C110-  H10R
 12988  12991  12994  12996      9     0.00   0.66944   3 ;   C112-  C111-  C110-  H10S
 12988  12991  12994  12997      9     0.00   0.41840   1 ;   C112-  C111-  C110-   C19
 12988  12991  12994  12997      9     0.00   0.41840   2 ;   C112-  C111-  C110-   C19
 12988  12991  12994  12997      9     0.00   0.41840   4 ;   C112-  C111-  C110-   C19
 12988  12991  12994  12997      9     0.00   0.41840   5 ;   C112-  C111-  C110-   C19
 12988  12991  12994  12997      9     0.00   1.25520   3 ;   C112-  C111-  C110-   C19
 12989  12988  12991  12992      9     0.00   0.62760   3 ;   H12R-  C112-  C111-  H11R
 12989  12988  12991  12993      9     0.00   0.62760   3 ;   H12R-  C112-  C111-  H11S
 12989  12988  12991  12994      9     0.00   0.66944   3 ;   H12R-  C112-  C111-  C110
 12990  12988  12991  12992      9     0.00   0.62760   3 ;   H12S-  C112-  C111-  H11R
 12990  12988  12991  12993      9     0.00   0.62760   3 ;   H12S-  C112-  C111-  H11S
 12990  12988  12991  12994      9     0.00   0.66944   3 ;   H12S-  C112-  C111-  C110
 12991  12994  12997  12998      9     0.00   0.66944   3 ;   C111-  C110-   C19-   H9R
 12991  12994  12997  12999      9     0.00   0.66944   3 ;   C111-  C110-   C19-   H9S
 12991  12994  12997  13000      9     0.00   0.41840   1 ;   C111-  C110-   C19-   C18
 12991  12994  12997  13000      9     0.00   0.41840   2 ;   C111-  C110-   C19-   C18
 12991  12994  12997  13000      9     0.00   0.41840   4 ;   C111-  C110-   C19-   C18
 12991  12994  12997  13000      9     0.00   0.41840   5 ;   C111-  C110-   C19-   C18
 12991  12994  12997  13000      9     0.00   1.25520   3 ;   C111-  C110-   C19-   C18
 12992  12991  12994  12995      9     0.00   0.62760   3 ;   H11R-  C111-  C110-  H10R
 12992  12991  12994  12996      9     0.00   0.62760   3 ;   H11R-  C111-  C110-  H10S
 12992  12991  12994  12997      9     0.00   0.66944   3 ;   H11R-  C111-  C110-   C19
 12993  12991  12994  12995      9     0.00   0.62760   3 ;   H11S-  C111-  C110-  H10R
 12993  12991  12994  12996      9     0.00   0.62760   3 ;   H11S-  C111-  C110-  H10S
 12993  12991  12994  12997      9     0.00   0.66944   3 ;   H11S-  C111-  C110-   C19
 12994  12997  13000  13001      9     0.00   0.66944   3 ;   C110-   C19-   C18-   H8R
 12994  12997  13000  13002      9     0.00   0.66944   3 ;   C110-   C19-   C18-   H8S
 12994  12997  13000  13003      9     0.00   0.41840   1 ;   C110-   C19-   C18-   C17
 12994  12997  13000  13003      9     0.00   0.41840   2 ;   C110-   C19-   C18-   C17
 12994  12997  13000  13003      9     0.00   0.41840   4 ;   C110-   C19-   C18-   C17
 12994  12997  13000  13003      9     0.00   0.41840   5 ;   C110-   C19-   C18-   C17
 12994  12997  13000  13003      9     0.00   1.25520   3 ;   C110-   C19-   C18-   C17
 12995  12994  12997  12998      9     0.00   0.62760   3 ;   H10R-  C110-   C19-   H9R
 12995  12994  12997  12999      9     0.00   0.62760   3 ;   H10R-  C110-   C19-   H9S
 12995  12994  12997  13000      9     0.00   0.66944   3 ;   H10R-  C110-   C19-   C18
 12996  12994  12997  12998      9     0.00   0.62760   3 ;   H10S-  C110-   C19-   H9R
 12996  12994  12997  12999      9     0.00   0.62760   3 ;   H10S-  C110-   C19-   H9S
 12996  12994  12997  13000      9     0.00   0.66944   3 ;   H10S-  C110-   C19-   C18
 12997  13000  13003  13004      9     0.00   0.66944   3 ;    C19-   C18-   C17-   H7R
 12997  13000  13003  13005      9     0.00   0.66944   3 ;    C19-   C18-   C17-   H7S
 12997  13000  13003  13006      9     0.00   0.41840   1 ;    C19-   C18-   C17-   C16
 12997  13000  13003  13006      9     0.00   0.41840   2 ;    C19-   C18-   C17-   C16
 12997  13000  13003  13006      9     0.00   0.41840   4 ;    C19-   C18-   C17-   C16
 12997  13000  13003  13006      9     0.00   0.41840   5 ;    C19-   C18-   C17-   C16
 12997  13000  13003  13006      9     0.00   1.25520   3 ;    C19-   C18-   C17-   C16
 12998  12997  13000  13001      9     0.00   0.62760   3 ;    H9R-   C19-   C18-   H8R
 12998  12997  13000  13002      9     0.00   0.62760   3 ;    H9R-   C19-   C18-   H8S
 12998  12997  13000  13003      9     0.00   0.66944   3 ;    H9R-   C19-   C18-   C17
 12999  12997  13000  13001      9     0.00   0.62760   3 ;    H9S-   C19-   C18-   H8R
 12999  12997  13000  13002      9     0.00   0.62760   3 ;    H9S-   C19-   C18-   H8S
 12999  12997  13000  13003      9     0.00   0.66944   3 ;    H9S-   C19-   C18-   C17
 13000  13003  13006  13007      9     0.00   0.66944   3 ;    C18-   C17-   C16-   H6R
 13000  13003  13006  13008      9     0.00   0.66944   3 ;    C18-   C17-   C16-   H6S
 13000  13003  13006  13009      9     0.00   0.41840   1 ;    C18-   C17-   C16-   C15
 13000  13003  13006  13009      9     0.00   0.41840   2 ;    C18-   C17-   C16-   C15
 13000  13003  13006  13009      9     0.00   0.41840   4 ;    C18-   C17-   C16-   C15
 13000  13003  13006  13009      9     0.00   0.41840   5 ;    C18-   C17-   C16-   C15
 13000  13003  13006  13009      9     0.00   1.25520   3 ;    C18-   C17-   C16-   C15
 13001  13000  13003  13004      9     0.00   0.62760   3 ;    H8R-   C18-   C17-   H7R
 13001  13000  13003  13005      9     0.00   0.62760   3 ;    H8R-   C18-   C17-   H7S
 13001  13000  13003  13006      9     0.00   0.66944   3 ;    H8R-   C18-   C17-   C16
 13002  13000  13003  13004      9     0.00   0.62760   3 ;    H8S-   C18-   C17-   H7R
 13002  13000  13003  13005      9     0.00   0.62760   3 ;    H8S-   C18-   C17-   H7S
 13002  13000  13003  13006      9     0.00   0.66944   3 ;    H8S-   C18-   C17-   C16
 13003  13006  13009  13010      9     0.00   0.66944   3 ;    C17-   C16-   C15-   H5R
 13003  13006  13009  13011      9     0.00   0.66944   3 ;    C17-   C16-   C15-   H5S
 13003  13006  13009  13012      9     0.00   0.41840   1 ;    C17-   C16-   C15-   C14
 13003  13006  13009  13012      9     0.00   0.41840   2 ;    C17-   C16-   C15-   C14
 13003  13006  13009  13012      9     0.00   0.41840   4 ;    C17-   C16-   C15-   C14
 13003  13006  13009  13012      9     0.00   0.41840   5 ;    C17-   C16-   C15-   C14
 13003  13006  13009  13012      9     0.00   1.25520   3 ;    C17-   C16-   C15-   C14
 13004  13003  13006  13007      9     0.00   0.62760   3 ;    H7R-   C17-   C16-   H6R
 13004  13003  13006  13008      9     0.00   0.62760   3 ;    H7R-   C17-   C16-   H6S
 13004  13003  13006  13009      9     0.00   0.66944   3 ;    H7R-   C17-   C16-   C15
 13005  13003  13006  13007      9     0.00   0.62760   3 ;    H7S-   C17-   C16-   H6R
 13005  13003  13006  13008      9     0.00   0.62760   3 ;    H7S-   C17-   C16-   H6S
 13005  13003  13006  13009      9     0.00   0.66944   3 ;    H7S-   C17-   C16-   C15
 13006  13009  13012  13013      9     0.00   0.66944   3 ;    C16-   C15-   C14-   H4R
 13006  13009  13012  13014      9     0.00   0.66944   3 ;    C16-   C15-   C14-   H4S
 13006  13009  13012  13015      9     0.00   0.41840   1 ;    C16-   C15-   C14-   C13
 13006  13009  13012  13015      9     0.00   0.41840   2 ;    C16-   C15-   C14-   C13
 13006  13009  13012  13015      9     0.00   0.41840   4 ;    C16-   C15-   C14-   C13
 13006  13009  13012  13015      9     0.00   0.41840   5 ;    C16-   C15-   C14-   C13
 13006  13009  13012  13015      9     0.00   1.25520   3 ;    C16-   C15-   C14-   C13
 13007  13006  13009  13010      9     0.00   0.62760   3 ;    H6R-   C16-   C15-   H5R
 13007  13006  13009  13011      9     0.00   0.62760   3 ;    H6R-   C16-   C15-   H5S
 13007  13006  13009  13012      9     0.00   0.66944   3 ;    H6R-   C16-   C15-   C14
 13008  13006  13009  13010      9     0.00   0.62760   3 ;    H6S-   C16-   C15-   H5R
 13008  13006  13009  13011      9     0.00   0.62760   3 ;    H6S-   C16-   C15-   H5S
 13008  13006  13009  13012      9     0.00   0.66944   3 ;    H6S-   C16-   C15-   C14
 13009  13012  13015  13016      9     0.00   0.66944   3 ;    C15-   C14-   C13-   H3R
 13009  13012  13015  13017      9     0.00   0.66944   3 ;    C15-   C14-   C13-   H3S
 13009  13012  13015  13018      9     0.00   0.41840   1 ;    C15-   C14-   C13-   C12
 13009  13012  13015  13018      9     0.00   0.41840   2 ;    C15-   C14-   C13-   C12
 13009  13012  13015  13018      9     0.00   0.41840   4 ;    C15-   C14-   C13-   C12
 13009  13012  13015  13018      9     0.00   0.41840   5 ;    C15-   C14-   C13-   C12
 13009  13012  13015  13018      9     0.00   1.25520   3 ;    C15-   C14-   C13-   C12
 13010  13009  13012  13013      9     0.00   0.62760   3 ;    H5R-   C15-   C14-   H4R
 13010  13009  13012  13014      9     0.00   0.62760   3 ;    H5R-   C15-   C14-   H4S
 13010  13009  13012  13015      9     0.00   0.66944   3 ;    H5R-   C15-   C14-   C13
 13011  13009  13012  13013      9     0.00   0.62760   3 ;    H5S-   C15-   C14-   H4R
 13011  13009  13012  13014      9     0.00   0.62760   3 ;    H5S-   C15-   C14-   H4S
 13011  13009  13012  13015      9     0.00   0.66944   3 ;    H5S-   C15-   C14-   C13
 13012  13015  13018  13019      9     0.00   0.66944   3 ;    C14-   C13-   C12-   H2R
 13012  13015  13018  13020      9     0.00   0.66944   3 ;    C14-   C13-   C12-   H2S
 13012  13015  13018  13021      9     0.00   0.65270   3 ;    C14-   C13-   C12-   C11
 13013  13012  13015  13016      9     0.00   0.62760   3 ;    H4R-   C14-   C13-   H3R
 13013  13012  13015  13017      9     0.00   0.62760   3 ;    H4R-   C14-   C13-   H3S
 13013  13012  13015  13018      9     0.00   0.66944   3 ;    H4R-   C14-   C13-   C12
 13014  13012  13015  13016      9     0.00   0.62760   3 ;    H4S-   C14-   C13-   H3R
 13014  13012  13015  13017      9     0.00   0.62760   3 ;    H4S-   C14-   C13-   H3S
 13014  13012  13015  13018      9     0.00   0.66944   3 ;    H4S-   C14-   C13-   C12
 13015  13018  13021  13022      9   180.00   0.00000   2 ;    C13-   C12-   C11-   O12
 13015  13018  13021  13023      9   180.00   0.00000   2 ;    C13-   C12-   C11-   O11
 13016  13015  13018  13019      9     0.00   0.62760   3 ;    H3R-   C13-   C12-   H2R
 13016  13015  13018  13020      9     0.00   0.62760   3 ;    H3R-   C13-   C12-   H2S
 13016  13015  13018  13021      9     0.00   0.65270   3 ;    H3R-   C13-   C12-   C11
 13017  13015  13018  13019      9     0.00   0.62760   3 ;    H3S-   C13-   C12-   H2R
 13017  13015  13018  13020      9     0.00   0.62760   3 ;    H3S-   C13-   C12-   H2S
 13017  13015  13018  13021      9     0.00   0.65270   3 ;    H3S-   C13-   C12-   C11
 13018  13021  13023  13024      9   180.00  11.29680   2 ;    C12-   C11-   O11-    C1
 13019  13018  13021  13022      9     0.00   3.34720   1 ;    H2R-   C12-   C11-   O12
 13019  13018  13021  13022      9   180.00   0.33472   3 ;    H2R-   C12-   C11-   O12
 13019  13018  13021  13023      9   180.00   0.00000   2 ;    H2R-   C12-   C11-   O11
 13020  13018  13021  13022      9     0.00   3.34720   1 ;    H2S-   C12-   C11-   O12
 13020  13018  13021  13022      9   180.00   0.33472   3 ;    H2S-   C12-   C11-   O12
 13020  13018  13021  13023      9   180.00   0.00000   2 ;    H2S-   C12-   C11-   O11
 13021  13023  13024  13025      9     0.00   1.60247   3 ;    C11-   O11-    C1-    HR
 13021  13023  13024  13026      9     0.00   1.60247   3 ;    C11-   O11-    C1-    HS
 13021  13023  13024  13027      9     0.00  -0.41840   1 ;    C11-   O11-    C1-    C2
 13022  13021  13023  13024      9   180.00   5.85760   1 ;    O12-   C11-   O11-    C1
 13022  13021  13023  13024      9   180.00  11.29680   2 ;    O12-   C11-   O11-    C1
 13023  13024  13027  13028      9     0.00   0.00000   0 ;    O11-    C1-    C2-    HX
 13023  13024  13027  13028      9     0.00   1.04600   1 ;    O11-    C1-    C2-    HX
 13023  13024  13027  13029      9     0.00   0.00000   0 ;    O11-    C1-    C2-    C3
 13023  13024  13027  13029      9     0.00   0.00000   0 ;    O11-    C1-    C2-    C3
 13023  13024  13027  13029      9     0.00   0.00000   0 ;    O11-    C1-    C2-    C3
 13023  13024  13027  13029      9     0.00   0.00000   0 ;    O11-    C1-    C2-    C3
 13023  13024  13027  13029      9     0.00   0.00000   0 ;    O11-    C1-    C2-    C3
 13023  13024  13027  13056      9     0.00   1.25520   2 ;    O11-    C1-    C2-   O21
 13023  13024  13027  13056      9     0.00   4.18400   3 ;    O11-    C1-    C2-   O21
 13023  13024  13027  13056      9   180.00  -0.41840   1 ;    O11-    C1-    C2-   O21
 13024  13027  13029  13030      9     0.00   0.65270   3 ;     C1-    C2-    C3-    HA
 13024  13027  13029  13031      9     0.00   0.65270   3 ;     C1-    C2-    C3-    HB
 13024  13027  13029  13032      9   180.00   3.34720   1 ;     C1-    C2-    C3-   O31
 13024  13027  13056  13057      9     0.00  -0.41840   1 ;     C1-    C2-   O21-   C21
 13025  13024  13027  13028      9     0.00   0.65270   3 ;     HR-    C1-    C2-    HX
 13025  13024  13027  13029      9     0.00   0.65270   3 ;     HR-    C1-    C2-    C3
 13025  13024  13027  13056      9     0.00   0.00000   0 ;     HR-    C1-    C2-   O21
 13025  13024  13027  13056      9     0.00   1.04600   1 ;     HR-    C1-    C2-   O21
 13026  13024  13027  13028      9     0.00   0.65270   3 ;     HS-    C1-    C2-    HX
 13026  13024  13027  13029      9     0.00   0.65270   3 ;     HS-    C1-    C2-    C3
 13026  13024  13027  13056      9     0.00   0.00000   0 ;     HS-    C1-    C2-   O21
 13026  13024  13027  13056      9     0.00   1.04600   1 ;     HS-    C1-    C2-   O21
 13027  13029  13032  13033      9     0.00   0.00000   0 ;     C2-    C3-   O31-   P31
 13027  13029  13032  13033      9   180.00  -3.34720   2 ;     C2-    C3-   O31-   P31
 13027  13056  13057  13058      9   180.00   5.85760   1 ;     C2-   O21-   C21-   O22
 13027  13056  13057  13058      9   180.00  11.29680   2 ;     C2-   O21-   C21-   O22
 13027  13056  13057  13096      9   180.00  11.29680   2 ;     C2-   O21-   C21-   C12
 13028  13027  13029  13030      9     0.00   0.65270   3 ;     HX-    C2-    C3-    HA
 13028  13027  13029  13031      9     0.00   0.65270   3 ;     HX-    C2-    C3-    HB
 13028  13027  13029  13032      9     0.00   0.00000   0 ;     HX-    C2-    C3-   O31
 13028  13027  13029  13032      9     0.00   1.04600   1 ;     HX-    C2-    C3-   O31
 13028  13027  13056  13057      9     0.00   1.60247   3 ;     HX-    C2-   O21-   C21
 13029  13027  13056  13057      9     0.00  -0.41840   1 ;     C3-    C2-   O21-   C21
 13029  13032  13033  13034      9     0.00   2.51040   3 ;     C3-   O31-   P31-   O32
 13029  13032  13033  13034      9     0.00   9.62320   2 ;     C3-   O31-   P31-   O32
 13029  13032  13033  13054      9     0.00   0.00000   0 ;     C3-   O31-   P31-   O33
 13029  13032  13033  13054      9     0.00   0.00000   0 ;     C3-   O31-   P31-   O33
 13029  13032  13033  13054      9     0.00   0.00000   0 ;     C3-   O31-   P31-   O33
 13029  13032  13033  13054      9     0.00   0.00000   0 ;     C3-   O31-   P31-   O33
 13029  13032  13033  13054      9     0.00   0.83680   2 ;     C3-   O31-   P31-   O33
 13029  13032  13033  13055      9     0.00   0.00000   0 ;     C3-   O31-   P31-   O34
 13029  13032  13033  13055      9     0.00   0.00000   0 ;     C3-   O31-   P31-   O34
 13029  13032  13033  13055      9     0.00   0.00000   0 ;     C3-   O31-   P31-   O34
 13029  13032  13033  13055      9     0.00   0.00000   0 ;     C3-   O31-   P31-   O34
 13029  13032  13033  13055      9     0.00   0.83680   2 ;     C3-   O31-   P31-   O34
 13030  13029  13027  13056      9     0.00   0.00000   0 ;     HA-    C3-    C2-   O21
 13030  13029  13027  13056      9     0.00   1.04600   1 ;     HA-    C3-    C2-   O21
 13030  13029  13032  13033      9     0.00   0.00000   0 ;     HA-    C3-   O31-   P31
 13030  13029  13032  13033      9     0.00   0.00000   0 ;     HA-    C3-   O31-   P31
 13030  13029  13032  13033      9     0.00   0.00000   0 ;     HA-    C3-   O31-   P31
 13030  13029  13032  13033      9     0.00   0.00000   0 ;     HA-    C3-   O31-   P31
 13030  13029  13032  13033      9     0.00   1.60247   3 ;     HA-    C3-   O31-   P31
 13031  13029  13027  13056      9     0.00   0.00000   0 ;     HB-    C3-    C2-   O21
 13031  13029  13027  13056      9     0.00   1.04600   1 ;     HB-    C3-    C2-   O21
 13031  13029  13032  13033      9     0.00   0.00000   0 ;     HB-    C3-   O31-   P31
 13031  13029  13032  13033      9     0.00   0.00000   0 ;     HB-    C3-   O31-   P31
 13031  13029  13032  13033      9     0.00   0.00000   0 ;     HB-    C3-   O31-   P31
 13031  13029  13032  13033      9     0.00   0.00000   0 ;     HB-    C3-   O31-   P31
 13031  13029  13032  13033      9     0.00   1.60247   3 ;     HB-    C3-   O31-   P31
 13032  13029  13027  13056      9     0.00   0.00000   0 ;    O31-    C3-    C2-   O21
 13032  13029  13027  13056      9     0.00   0.00000   0 ;    O31-    C3-    C2-   O21
 13032  13029  13027  13056      9     0.00   0.00000   0 ;    O31-    C3-    C2-   O21
 13032  13029  13027  13056      9     0.00   0.00000   0 ;    O31-    C3-    C2-   O21
 13032  13029  13027  13056      9     0.00   0.00000   0 ;    O31-    C3-    C2-   O21
 13032  13033  13034  13035      9     0.00   2.51040   3 ;    O31-   P31-   O32-   C31
 13032  13033  13034  13035      9     0.00   9.62320   2 ;    O31-   P31-   O32-   C31
 13033  13034  13035  13036      9     0.00   0.00000   0 ;    P31-   O32-   C31-   H1A
 13033  13034  13035  13036      9     0.00   0.00000   0 ;    P31-   O32-   C31-   H1A
 13033  13034  13035  13036      9     0.00   0.00000   0 ;    P31-   O32-   C31-   H1A
 13033  13034  13035  13036      9     0.00   0.00000   0 ;    P31-   O32-   C31-   H1A
 13033  13034  13035  13036      9     0.00   1.60247   3 ;    P31-   O32-   C31-   H1A
 13033  13034  13035  13037      9     0.00   0.00000   0 ;    P31-   O32-   C31-   H1B
 13033  13034  13035  13037      9     0.00   0.00000   0 ;    P31-   O32-   C31-   H1B
 13033  13034  13035  13037      9     0.00   0.00000   0 ;    P31-   O32-   C31-   H1B
 13033  13034  13035  13037      9     0.00   0.00000   0 ;    P31-   O32-   C31-   H1B
 13033  13034  13035  13037      9     0.00   1.60247   3 ;    P31-   O32-   C31-   H1B
 13033  13034  13035  13038      9     0.00   0.00000   0 ;    P31-   O32-   C31-   C32
 13033  13034  13035  13038      9   180.00  -3.34720   2 ;    P31-   O32-   C31-   C32
 13034  13035  13038  13039      9     0.00   0.65270   3 ;    O32-   C31-   C32-   H2A
 13034  13035  13038  13040      9     0.00   0.65270   3 ;    O32-   C31-   C32-   H2B
 13034  13035  13038  13041      9     0.00   4.18400   3 ;    O32-   C31-   C32-   N31
 13035  13034  13033  13054      9     0.00   0.00000   0 ;    C31-   O32-   P31-   O33
 13035  13034  13033  13054      9     0.00   0.00000   0 ;    C31-   O32-   P31-   O33
 13035  13034  13033  13054      9     0.00   0.00000   0 ;    C31-   O32-   P31-   O33
 13035  13034  13033  13054      9     0.00   0.00000   0 ;    C31-   O32-   P31-   O33
 13035  13034  13033  13054      9     0.00   0.83680   2 ;    C31-   O32-   P31-   O33
 13035  13034  13033  13055      9     0.00   0.00000   0 ;    C31-   O32-   P31-   O34
 13035  13034  13033  13055      9     0.00   0.00000   0 ;    C31-   O32-   P31-   O34
 13035  13034  13033  13055      9     0.00   0.00000   0 ;    C31-   O32-   P31-   O34
 13035  13034  13033  13055      9     0.00   0.00000   0 ;    C31-   O32-   P31-   O34
 13035  13034  13033  13055      9     0.00   0.83680   2 ;    C31-   O32-   P31-   O34
 13035  13038  13041  13042      9     0.00   0.65270   3 ;    C31-   C32-   N31-   C33
 13035  13038  13041  13046      9     0.00   0.65270   3 ;    C31-   C32-   N31-   C34
 13035  13038  13041  13050      9     0.00   0.65270   3 ;    C31-   C32-   N31-   C35
 13036  13035  13038  13039      9     0.00   0.65270   3 ;    H1A-   C31-   C32-   H2A
 13036  13035  13038  13040      9     0.00   0.65270   3 ;    H1A-   C31-   C32-   H2B
 13036  13035  13038  13041      9     0.00   0.65270   3 ;    H1A-   C31-   C32-   N31
 13037  13035  13038  13039      9     0.00   0.65270   3 ;    H1B-   C31-   C32-   H2A
 13037  13035  13038  13040      9     0.00   0.65270   3 ;    H1B-   C31-   C32-   H2B
 13037  13035  13038  13041      9     0.00   0.65270   3 ;    H1B-   C31-   C32-   N31
 13038  13041  13042  13043      9     0.00   0.65270   3 ;    C32-   N31-   C33-   H3A
 13038  13041  13042  13044      9     0.00   0.65270   3 ;    C32-   N31-   C33-   H3B
 13038  13041  13042  13045      9     0.00   0.65270   3 ;    C32-   N31-   C33-   H3C
 13038  13041  13046  13047      9     0.00   0.65270   3 ;    C32-   N31-   C34-   H4A
 13038  13041  13046  13048      9     0.00   0.65270   3 ;    C32-   N31-   C34-   H4B
 13038  13041  13046  13049      9     0.00   0.65270   3 ;    C32-   N31-   C34-   H4C
 13038  13041  13050  13051      9     0.00   0.65270   3 ;    C32-   N31-   C35-   H5A
 13038  13041  13050  13052      9     0.00   0.65270   3 ;    C32-   N31-   C35-   H5B
 13038  13041  13050  13053      9     0.00   0.65270   3 ;    C32-   N31-   C35-   H5C
 13039  13038  13041  13042      9     0.00   0.65270   3 ;    H2A-   C32-   N31-   C33
 13039  13038  13041  13046      9     0.00   0.65270   3 ;    H2A-   C32-   N31-   C34
 13039  13038  13041  13050      9     0.00   0.65270   3 ;    H2A-   C32-   N31-   C35
 13040  13038  13041  13042      9     0.00   0.65270   3 ;    H2B-   C32-   N31-   C33
 13040  13038  13041  13046      9     0.00   0.65270   3 ;    H2B-   C32-   N31-   C34
 13040  13038  13041  13050      9     0.00   0.65270   3 ;    H2B-   C32-   N31-   C35
 13042  13041  13046  13047      9     0.00   0.65270   3 ;    C33-   N31-   C34-   H4A
 13042  13041  13046  13048      9     0.00   0.65270   3 ;    C33-   N31-   C34-   H4B
 13042  13041  13046  13049      9     0.00   0.65270   3 ;    C33-   N31-   C34-   H4C
 13042  13041  13050  13051      9     0.00   0.65270   3 ;    C33-   N31-   C35-   H5A
 13042  13041  13050  13052      9     0.00   0.65270   3 ;    C33-   N31-   C35-   H5B
 13042  13041  13050  13053      9     0.00   0.65270   3 ;    C33-   N31-   C35-   H5C
 13043  13042  13041  13046      9     0.00   0.65270   3 ;    H3A-   C33-   N31-   C34
 13043  13042  13041  13050      9     0.00   0.65270   3 ;    H3A-   C33-   N31-   C35
 13044  13042  13041  13046      9     0.00   0.65270   3 ;    H3B-   C33-   N31-   C34
 13044  13042  13041  13050      9     0.00   0.65270   3 ;    H3B-   C33-   N31-   C35
 13045  13042  13041  13046      9     0.00   0.65270   3 ;    H3C-   C33-   N31-   C34
 13045  13042  13041  13050      9     0.00   0.65270   3 ;    H3C-   C33-   N31-   C35
 13046  13041  13050  13051      9     0.00   0.65270   3 ;    C34-   N31-   C35-   H5A
 13046  13041  13050  13052      9     0.00   0.65270   3 ;    C34-   N31-   C35-   H5B
 13046  13041  13050  13053      9     0.00   0.65270   3 ;    C34-   N31-   C35-   H5C
 13047  13046  13041  13050      9     0.00   0.65270   3 ;    H4A-   C34-   N31-   C35
 13048  13046  13041  13050      9     0.00   0.65270   3 ;    H4B-   C34-   N31-   C35
 13049  13046  13041  13050      9     0.00   0.65270   3 ;    H4C-   C34-   N31-   C35
 13056  13057  13096  13093      9   180.00   0.00000   2 ;    O21-   C21-   C12-   C13
 13056  13057  13096  13097      9   180.00   0.00000   2 ;    O21-   C21-   C12-   H2R
 13056  13057  13096  13098      9   180.00   0.00000   2 ;    O21-   C21-   C12-   H2S
 13057  13096  13093  13090      9     0.00   0.65270   3 ;    C21-   C12-   C13-   C14
 13057  13096  13093  13094      9     0.00   0.65270   3 ;    C21-   C12-   C13-   H3R
 13057  13096  13093  13095      9     0.00   0.65270   3 ;    C21-   C12-   C13-   H3S
 13058  13057  13096  13093      9   180.00   0.00000   2 ;    O22-   C21-   C12-   C13
 13058  13057  13096  13097      9     0.00   3.34720   1 ;    O22-   C21-   C12-   H2R
 13058  13057  13096  13097      9   180.00   0.33472   3 ;    O22-   C21-   C12-   H2R
 13058  13057  13096  13098      9     0.00   3.34720   1 ;    O22-   C21-   C12-   H2S
 13058  13057  13096  13098      9   180.00   0.33472   3 ;    O22-   C21-   C12-   H2S
 13059  13060  13063  13064      9     0.00   0.62760   3 ;   H14T-  C114-  C113-  H13R
 13059  13060  13063  13065      9     0.00   0.62760   3 ;   H14T-  C114-  C113-  H13S
 13059  13060  13063  13066      9     0.00   0.66944   3 ;   H14T-  C114-  C113-  C112
 13060  13063  13066  13067      9     0.00   0.66944   3 ;   C114-  C113-  C112-  H12R
 13060  13063  13066  13068      9     0.00   0.66944   3 ;   C114-  C113-  C112-  H12S
 13060  13063  13066  13069      9     0.00   0.41840   1 ;   C114-  C113-  C112-  C111
 13060  13063  13066  13069      9     0.00   0.41840   2 ;   C114-  C113-  C112-  C111
 13060  13063  13066  13069      9     0.00   0.41840   4 ;   C114-  C113-  C112-  C111
 13060  13063  13066  13069      9     0.00   0.41840   5 ;   C114-  C113-  C112-  C111
 13060  13063  13066  13069      9     0.00   1.25520   3 ;   C114-  C113-  C112-  C111
 13061  13060  13063  13064      9     0.00   0.62760   3 ;   H14R-  C114-  C113-  H13R
 13061  13060  13063  13065      9     0.00   0.62760   3 ;   H14R-  C114-  C113-  H13S
 13061  13060  13063  13066      9     0.00   0.66944   3 ;   H14R-  C114-  C113-  C112
 13062  13060  13063  13064      9     0.00   0.62760   3 ;   H14S-  C114-  C113-  H13R
 13062  13060  13063  13065      9     0.00   0.62760   3 ;   H14S-  C114-  C113-  H13S
 13062  13060  13063  13066      9     0.00   0.66944   3 ;   H14S-  C114-  C113-  C112
 13063  13066  13069  13070      9     0.00   0.66944   3 ;   C113-  C112-  C111-  H11R
 13063  13066  13069  13071      9     0.00   0.66944   3 ;   C113-  C112-  C111-  H11S
 13063  13066  13069  13072      9     0.00   0.41840   1 ;   C113-  C112-  C111-  C110
 13063  13066  13069  13072      9     0.00   0.41840   2 ;   C113-  C112-  C111-  C110
 13063  13066  13069  13072      9     0.00   0.41840   4 ;   C113-  C112-  C111-  C110
 13063  13066  13069  13072      9     0.00   0.41840   5 ;   C113-  C112-  C111-  C110
 13063  13066  13069  13072      9     0.00   1.25520   3 ;   C113-  C112-  C111-  C110
 13064  13063  13066  13067      9     0.00   0.62760   3 ;   H13R-  C113-  C112-  H12R
 13064  13063  13066  13068      9     0.00   0.62760   3 ;   H13R-  C113-  C112-  H12S
 13064  13063  13066  13069      9     0.00   0.66944   3 ;   H13R-  C113-  C112-  C111
 13065  13063  13066  13067      9     0.00   0.62760   3 ;   H13S-  C113-  C112-  H12R
 13065  13063  13066  13068      9     0.00   0.62760   3 ;   H13S-  C113-  C112-  H12S
 13065  13063  13066  13069      9     0.00   0.66944   3 ;   H13S-  C113-  C112-  C111
 13066  13069  13072  13073      9     0.00   0.66944   3 ;   C112-  C111-  C110-  H10R
 13066  13069  13072  13074      9     0.00   0.66944   3 ;   C112-  C111-  C110-  H10S
 13066  13069  13072  13075      9     0.00   0.41840   1 ;   C112-  C111-  C110-   C19
 13066  13069  13072  13075      9     0.00   0.41840   2 ;   C112-  C111-  C110-   C19
 13066  13069  13072  13075      9     0.00   0.41840   4 ;   C112-  C111-  C110-   C19
 13066  13069  13072  13075      9     0.00   0.41840   5 ;   C112-  C111-  C110-   C19
 13066  13069  13072  13075      9     0.00   1.25520   3 ;   C112-  C111-  C110-   C19
 13067  13066  13069  13070      9     0.00   0.62760   3 ;   H12R-  C112-  C111-  H11R
 13067  13066  13069  13071      9     0.00   0.62760   3 ;   H12R-  C112-  C111-  H11S
 13067  13066  13069  13072      9     0.00   0.66944   3 ;   H12R-  C112-  C111-  C110
 13068  13066  13069  13070      9     0.00   0.62760   3 ;   H12S-  C112-  C111-  H11R
 13068  13066  13069  13071      9     0.00   0.62760   3 ;   H12S-  C112-  C111-  H11S
 13068  13066  13069  13072      9     0.00   0.66944   3 ;   H12S-  C112-  C111-  C110
 13069  13072  13075  13076      9     0.00   0.66944   3 ;   C111-  C110-   C19-   H9R
 13069  13072  13075  13077      9     0.00   0.66944   3 ;   C111-  C110-   C19-   H9S
 13069  13072  13075  13078      9     0.00   0.41840   1 ;   C111-  C110-   C19-   C18
 13069  13072  13075  13078      9     0.00   0.41840   2 ;   C111-  C110-   C19-   C18
 13069  13072  13075  13078      9     0.00   0.41840   4 ;   C111-  C110-   C19-   C18
 13069  13072  13075  13078      9     0.00   0.41840   5 ;   C111-  C110-   C19-   C18
 13069  13072  13075  13078      9     0.00   1.25520   3 ;   C111-  C110-   C19-   C18
 13070  13069  13072  13073      9     0.00   0.62760   3 ;   H11R-  C111-  C110-  H10R
 13070  13069  13072  13074      9     0.00   0.62760   3 ;   H11R-  C111-  C110-  H10S
 13070  13069  13072  13075      9     0.00   0.66944   3 ;   H11R-  C111-  C110-   C19
 13071  13069  13072  13073      9     0.00   0.62760   3 ;   H11S-  C111-  C110-  H10R
 13071  13069  13072  13074      9     0.00   0.62760   3 ;   H11S-  C111-  C110-  H10S
 13071  13069  13072  13075      9     0.00   0.66944   3 ;   H11S-  C111-  C110-   C19
 13072  13075  13078  13079      9     0.00   0.66944   3 ;   C110-   C19-   C18-   H8R
 13072  13075  13078  13080      9     0.00   0.66944   3 ;   C110-   C19-   C18-   H8S
 13072  13075  13078  13081      9     0.00   0.41840   1 ;   C110-   C19-   C18-   C17
 13072  13075  13078  13081      9     0.00   0.41840   2 ;   C110-   C19-   C18-   C17
 13072  13075  13078  13081      9     0.00   0.41840   4 ;   C110-   C19-   C18-   C17
 13072  13075  13078  13081      9     0.00   0.41840   5 ;   C110-   C19-   C18-   C17
 13072  13075  13078  13081      9     0.00   1.25520   3 ;   C110-   C19-   C18-   C17
 13073  13072  13075  13076      9     0.00   0.62760   3 ;   H10R-  C110-   C19-   H9R
 13073  13072  13075  13077      9     0.00   0.62760   3 ;   H10R-  C110-   C19-   H9S
 13073  13072  13075  13078      9     0.00   0.66944   3 ;   H10R-  C110-   C19-   C18
 13074  13072  13075  13076      9     0.00   0.62760   3 ;   H10S-  C110-   C19-   H9R
 13074  13072  13075  13077      9     0.00   0.62760   3 ;   H10S-  C110-   C19-   H9S
 13074  13072  13075  13078      9     0.00   0.66944   3 ;   H10S-  C110-   C19-   C18
 13075  13078  13081  13082      9     0.00   0.66944   3 ;    C19-   C18-   C17-   H7R
 13075  13078  13081  13083      9     0.00   0.66944   3 ;    C19-   C18-   C17-   H7S
 13075  13078  13081  13084      9     0.00   0.41840   1 ;    C19-   C18-   C17-   C16
 13075  13078  13081  13084      9     0.00   0.41840   2 ;    C19-   C18-   C17-   C16
 13075  13078  13081  13084      9     0.00   0.41840   4 ;    C19-   C18-   C17-   C16
 13075  13078  13081  13084      9     0.00   0.41840   5 ;    C19-   C18-   C17-   C16
 13075  13078  13081  13084      9     0.00   1.25520   3 ;    C19-   C18-   C17-   C16
 13076  13075  13078  13079      9     0.00   0.62760   3 ;    H9R-   C19-   C18-   H8R
 13076  13075  13078  13080      9     0.00   0.62760   3 ;    H9R-   C19-   C18-   H8S
 13076  13075  13078  13081      9     0.00   0.66944   3 ;    H9R-   C19-   C18-   C17
 13077  13075  13078  13079      9     0.00   0.62760   3 ;    H9S-   C19-   C18-   H8R
 13077  13075  13078  13080      9     0.00   0.62760   3 ;    H9S-   C19-   C18-   H8S
 13077  13075  13078  13081      9     0.00   0.66944   3 ;    H9S-   C19-   C18-   C17
 13078  13081  13084  13085      9     0.00   0.66944   3 ;    C18-   C17-   C16-   H6R
 13078  13081  13084  13086      9     0.00   0.66944   3 ;    C18-   C17-   C16-   H6S
 13078  13081  13084  13087      9     0.00   0.41840   1 ;    C18-   C17-   C16-   C15
 13078  13081  13084  13087      9     0.00   0.41840   2 ;    C18-   C17-   C16-   C15
 13078  13081  13084  13087      9     0.00   0.41840   4 ;    C18-   C17-   C16-   C15
 13078  13081  13084  13087      9     0.00   0.41840   5 ;    C18-   C17-   C16-   C15
 13078  13081  13084  13087      9     0.00   1.25520   3 ;    C18-   C17-   C16-   C15
 13079  13078  13081  13082      9     0.00   0.62760   3 ;    H8R-   C18-   C17-   H7R
 13079  13078  13081  13083      9     0.00   0.62760   3 ;    H8R-   C18-   C17-   H7S
 13079  13078  13081  13084      9     0.00   0.66944   3 ;    H8R-   C18-   C17-   C16
 13080  13078  13081  13082      9     0.00   0.62760   3 ;    H8S-   C18-   C17-   H7R
 13080  13078  13081  13083      9     0.00   0.62760   3 ;    H8S-   C18-   C17-   H7S
 13080  13078  13081  13084      9     0.00   0.66944   3 ;    H8S-   C18-   C17-   C16
 13081  13084  13087  13088      9     0.00   0.66944   3 ;    C17-   C16-   C15-   H5R
 13081  13084  13087  13089      9     0.00   0.66944   3 ;    C17-   C16-   C15-   H5S
 13081  13084  13087  13090      9     0.00   0.41840   1 ;    C17-   C16-   C15-   C14
 13081  13084  13087  13090      9     0.00   0.41840   2 ;    C17-   C16-   C15-   C14
 13081  13084  13087  13090      9     0.00   0.41840   4 ;    C17-   C16-   C15-   C14
 13081  13084  13087  13090      9     0.00   0.41840   5 ;    C17-   C16-   C15-   C14
 13081  13084  13087  13090      9     0.00   1.25520   3 ;    C17-   C16-   C15-   C14
 13082  13081  13084  13085      9     0.00   0.62760   3 ;    H7R-   C17-   C16-   H6R
 13082  13081  13084  13086      9     0.00   0.62760   3 ;    H7R-   C17-   C16-   H6S
 13082  13081  13084  13087      9     0.00   0.66944   3 ;    H7R-   C17-   C16-   C15
 13083  13081  13084  13085      9     0.00   0.62760   3 ;    H7S-   C17-   C16-   H6R
 13083  13081  13084  13086      9     0.00   0.62760   3 ;    H7S-   C17-   C16-   H6S
 13083  13081  13084  13087      9     0.00   0.66944   3 ;    H7S-   C17-   C16-   C15
 13084  13087  13090  13091      9     0.00   0.66944   3 ;    C16-   C15-   C14-   H4R
 13084  13087  13090  13092      9     0.00   0.66944   3 ;    C16-   C15-   C14-   H4S
 13084  13087  13090  13093      9     0.00   0.41840   1 ;    C16-   C15-   C14-   C13
 13084  13087  13090  13093      9     0.00   0.41840   2 ;    C16-   C15-   C14-   C13
 13084  13087  13090  13093      9     0.00   0.41840   4 ;    C16-   C15-   C14-   C13
 13084  13087  13090  13093      9     0.00   0.41840   5 ;    C16-   C15-   C14-   C13
 13084  13087  13090  13093      9     0.00   1.25520   3 ;    C16-   C15-   C14-   C13
 13085  13084  13087  13088      9     0.00   0.62760   3 ;    H6R-   C16-   C15-   H5R
 13085  13084  13087  13089      9     0.00   0.62760   3 ;    H6R-   C16-   C15-   H5S
 13085  13084  13087  13090      9     0.00   0.66944   3 ;    H6R-   C16-   C15-   C14
 13086  13084  13087  13088      9     0.00   0.62760   3 ;    H6S-   C16-   C15-   H5R
 13086  13084  13087  13089      9     0.00   0.62760   3 ;    H6S-   C16-   C15-   H5S
 13086  13084  13087  13090      9     0.00   0.66944   3 ;    H6S-   C16-   C15-   C14
 13087  13090  13093  13094      9     0.00   0.66944   3 ;    C15-   C14-   C13-   H3R
 13087  13090  13093  13095      9     0.00   0.66944   3 ;    C15-   C14-   C13-   H3S
 13087  13090  13093  13096      9     0.00   0.41840   1 ;    C15-   C14-   C13-   C12
 13087  13090  13093  13096      9     0.00   0.41840   2 ;    C15-   C14-   C13-   C12
 13087  13090  13093  13096      9     0.00   0.41840   4 ;    C15-   C14-   C13-   C12
 13087  13090  13093  13096      9     0.00   0.41840   5 ;    C15-   C14-   C13-   C12
 13087  13090  13093  13096      9     0.00   1.25520   3 ;    C15-   C14-   C13-   C12
 13088  13087  13090  13091      9     0.00   0.62760   3 ;    H5R-   C15-   C14-   H4R
 13088  13087  13090  13092      9     0.00   0.62760   3 ;    H5R-   C15-   C14-   H4S
 13088  13087  13090  13093      9     0.00   0.66944   3 ;    H5R-   C15-   C14-   C13
 13089  13087  13090  13091      9     0.00   0.62760   3 ;    H5S-   C15-   C14-   H4R
 13089  13087  13090  13092      9     0.00   0.62760   3 ;    H5S-   C15-   C14-   H4S
 13089  13087  13090  13093      9     0.00   0.66944   3 ;    H5S-   C15-   C14-   C13
 13090  13093  13096  13097      9     0.00   0.66944   3 ;    C14-   C13-   C12-   H2R
 13090  13093  13096  13098      9     0.00   0.66944   3 ;    C14-   C13-   C12-   H2S
 13091  13090  13093  13094      9     0.00   0.62760   3 ;    H4R-   C14-   C13-   H3R
 13091  13090  13093  13095      9     0.00   0.62760   3 ;    H4R-   C14-   C13-   H3S
 13091  13090  13093  13096      9     0.00   0.66944   3 ;    H4R-   C14-   C13-   C12
 13092  13090  13093  13094      9     0.00   0.62760   3 ;    H4S-   C14-   C13-   H3R
 13092  13090  13093  13095      9     0.00   0.62760   3 ;    H4S-   C14-   C13-   H3S
 13092  13090  13093  13096      9     0.00   0.66944   3 ;    H4S-   C14-   C13-   C12
 13094  13093  13096  13097      9     0.00   0.62760   3 ;    H3R-   C13-   C12-   H2R
 13094  13093  13096  13098      9     0.00   0.62760   3 ;    H3R-   C13-   C12-   H2S
 13095  13093  13096  13097      9     0.00   0.62760   3 ;    H3S-   C13-   C12-   H2R
 13095  13093  13096  13098      9     0.00   0.62760   3 ;    H3S-   C13-   C12-   H2S
 13099  13100  13103  13104      9     0.00   0.62760   3 ;   H14T-  C114-  C113-  H13R
 13099  13100  13103  13105      9     0.00   0.62760   3 ;   H14T-  C114-  C113-  H13S
 13099  13100  13103  13106      9     0.00   0.66944   3 ;   H14T-  C114-  C113-  C112
 13100  13103  13106  13107      9     0.00   0.66944   3 ;   C114-  C113-  C112-  H12R
 13100  13103  13106  13108      9     0.00   0.66944   3 ;   C114-  C113-  C112-  H12S
 13100  13103  13106  13109      9     0.00   0.41840   1 ;   C114-  C113-  C112-  C111
 13100  13103  13106  13109      9     0.00   0.41840   2 ;   C114-  C113-  C112-  C111
 13100  13103  13106  13109      9     0.00   0.41840   4 ;   C114-  C113-  C112-  C111
 13100  13103  13106  13109      9     0.00   0.41840   5 ;   C114-  C113-  C112-  C111
 13100  13103  13106  13109      9     0.00   1.25520   3 ;   C114-  C113-  C112-  C111
 13101  13100  13103  13104      9     0.00   0.62760   3 ;   H14R-  C114-  C113-  H13R
 13101  13100  13103  13105      9     0.00   0.62760   3 ;   H14R-  C114-  C113-  H13S
 13101  13100  13103  13106      9     0.00   0.66944   3 ;   H14R-  C114-  C113-  C112
 13102  13100  13103  13104      9     0.00   0.62760   3 ;   H14S-  C114-  C113-  H13R
 13102  13100  13103  13105      9     0.00   0.62760   3 ;   H14S-  C114-  C113-  H13S
 13102  13100  13103  13106      9     0.00   0.66944   3 ;   H14S-  C114-  C113-  C112
 13103  13106  13109  13110      9     0.00   0.66944   3 ;   C113-  C112-  C111-  H11R
 13103  13106  13109  13111      9     0.00   0.66944   3 ;   C113-  C112-  C111-  H11S
 13103  13106  13109  13112      9     0.00   0.41840   1 ;   C113-  C112-  C111-  C110
 13103  13106  13109  13112      9     0.00   0.41840   2 ;   C113-  C112-  C111-  C110
 13103  13106  13109  13112      9     0.00   0.41840   4 ;   C113-  C112-  C111-  C110
 13103  13106  13109  13112      9     0.00   0.41840   5 ;   C113-  C112-  C111-  C110
 13103  13106  13109  13112      9     0.00   1.25520   3 ;   C113-  C112-  C111-  C110
 13104  13103  13106  13107      9     0.00   0.62760   3 ;   H13R-  C113-  C112-  H12R
 13104  13103  13106  13108      9     0.00   0.62760   3 ;   H13R-  C113-  C112-  H12S
 13104  13103  13106  13109      9     0.00   0.66944   3 ;   H13R-  C113-  C112-  C111
 13105  13103  13106  13107      9     0.00   0.62760   3 ;   H13S-  C113-  C112-  H12R
 13105  13103  13106  13108      9     0.00   0.62760   3 ;   H13S-  C113-  C112-  H12S
 13105  13103  13106  13109      9     0.00   0.66944   3 ;   H13S-  C113-  C112-  C111
 13106  13109  13112  13113      9     0.00   0.66944   3 ;   C112-  C111-  C110-  H10R
 13106  13109  13112  13114      9     0.00   0.66944   3 ;   C112-  C111-  C110-  H10S
 13106  13109  13112  13115      9     0.00   0.41840   1 ;   C112-  C111-  C110-   C19
 13106  13109  13112  13115      9     0.00   0.41840   2 ;   C112-  C111-  C110-   C19
 13106  13109  13112  13115      9     0.00   0.41840   4 ;   C112-  C111-  C110-   C19
 13106  13109  13112  13115      9     0.00   0.41840   5 ;   C112-  C111-  C110-   C19
 13106  13109  13112  13115      9     0.00   1.25520   3 ;   C112-  C111-  C110-   C19
 13107  13106  13109  13110      9     0.00   0.62760   3 ;   H12R-  C112-  C111-  H11R
 13107  13106  13109  13111      9     0.00   0.62760   3 ;   H12R-  C112-  C111-  H11S
 13107  13106  13109  13112      9     0.00   0.66944   3 ;   H12R-  C112-  C111-  C110
 13108  13106  13109  13110      9     0.00   0.62760   3 ;   H12S-  C112-  C111-  H11R
 13108  13106  13109  13111      9     0.00   0.62760   3 ;   H12S-  C112-  C111-  H11S
 13108  13106  13109  13112      9     0.00   0.66944   3 ;   H12S-  C112-  C111-  C110
 13109  13112  13115  13116      9     0.00   0.66944   3 ;   C111-  C110-   C19-   H9R
 13109  13112  13115  13117      9     0.00   0.66944   3 ;   C111-  C110-   C19-   H9S
 13109  13112  13115  13118      9     0.00   0.41840   1 ;   C111-  C110-   C19-   C18
 13109  13112  13115  13118      9     0.00   0.41840   2 ;   C111-  C110-   C19-   C18
 13109  13112  13115  13118      9     0.00   0.41840   4 ;   C111-  C110-   C19-   C18
 13109  13112  13115  13118      9     0.00   0.41840   5 ;   C111-  C110-   C19-   C18
 13109  13112  13115  13118      9     0.00   1.25520   3 ;   C111-  C110-   C19-   C18
 13110  13109  13112  13113      9     0.00   0.62760   3 ;   H11R-  C111-  C110-  H10R
 13110  13109  13112  13114      9     0.00   0.62760   3 ;   H11R-  C111-  C110-  H10S
 13110  13109  13112  13115      9     0.00   0.66944   3 ;   H11R-  C111-  C110-   C19
 13111  13109  13112  13113      9     0.00   0.62760   3 ;   H11S-  C111-  C110-  H10R
 13111  13109  13112  13114      9     0.00   0.62760   3 ;   H11S-  C111-  C110-  H10S
 13111  13109  13112  13115      9     0.00   0.66944   3 ;   H11S-  C111-  C110-   C19
 13112  13115  13118  13119      9     0.00   0.66944   3 ;   C110-   C19-   C18-   H8R
 13112  13115  13118  13120      9     0.00   0.66944   3 ;   C110-   C19-   C18-   H8S
 13112  13115  13118  13121      9     0.00   0.41840   1 ;   C110-   C19-   C18-   C17
 13112  13115  13118  13121      9     0.00   0.41840   2 ;   C110-   C19-   C18-   C17
 13112  13115  13118  13121      9     0.00   0.41840   4 ;   C110-   C19-   C18-   C17
 13112  13115  13118  13121      9     0.00   0.41840   5 ;   C110-   C19-   C18-   C17
 13112  13115  13118  13121      9     0.00   1.25520   3 ;   C110-   C19-   C18-   C17
 13113  13112  13115  13116      9     0.00   0.62760   3 ;   H10R-  C110-   C19-   H9R
 13113  13112  13115  13117      9     0.00   0.62760   3 ;   H10R-  C110-   C19-   H9S
 13113  13112  13115  13118      9     0.00   0.66944   3 ;   H10R-  C110-   C19-   C18
 13114  13112  13115  13116      9     0.00   0.62760   3 ;   H10S-  C110-   C19-   H9R
 13114  13112  13115  13117      9     0.00   0.62760   3 ;   H10S-  C110-   C19-   H9S
 13114  13112  13115  13118      9     0.00   0.66944   3 ;   H10S-  C110-   C19-   C18
 13115  13118  13121  13122      9     0.00   0.66944   3 ;    C19-   C18-   C17-   H7R
 13115  13118  13121  13123      9     0.00   0.66944   3 ;    C19-   C18-   C17-   H7S
 13115  13118  13121  13124      9     0.00   0.41840   1 ;    C19-   C18-   C17-   C16
 13115  13118  13121  13124      9     0.00   0.41840   2 ;    C19-   C18-   C17-   C16
 13115  13118  13121  13124      9     0.00   0.41840   4 ;    C19-   C18-   C17-   C16
 13115  13118  13121  13124      9     0.00   0.41840   5 ;    C19-   C18-   C17-   C16
 13115  13118  13121  13124      9     0.00   1.25520   3 ;    C19-   C18-   C17-   C16
 13116  13115  13118  13119      9     0.00   0.62760   3 ;    H9R-   C19-   C18-   H8R
 13116  13115  13118  13120      9     0.00   0.62760   3 ;    H9R-   C19-   C18-   H8S
 13116  13115  13118  13121      9     0.00   0.66944   3 ;    H9R-   C19-   C18-   C17
 13117  13115  13118  13119      9     0.00   0.62760   3 ;    H9S-   C19-   C18-   H8R
 13117  13115  13118  13120      9     0.00   0.62760   3 ;    H9S-   C19-   C18-   H8S
 13117  13115  13118  13121      9     0.00   0.66944   3 ;    H9S-   C19-   C18-   C17
 13118  13121  13124  13125      9     0.00   0.66944   3 ;    C18-   C17-   C16-   H6R
 13118  13121  13124  13126      9     0.00   0.66944   3 ;    C18-   C17-   C16-   H6S
 13118  13121  13124  13127      9     0.00   0.41840   1 ;    C18-   C17-   C16-   C15
 13118  13121  13124  13127      9     0.00   0.41840   2 ;    C18-   C17-   C16-   C15
 13118  13121  13124  13127      9     0.00   0.41840   4 ;    C18-   C17-   C16-   C15
 13118  13121  13124  13127      9     0.00   0.41840   5 ;    C18-   C17-   C16-   C15
 13118  13121  13124  13127      9     0.00   1.25520   3 ;    C18-   C17-   C16-   C15
 13119  13118  13121  13122      9     0.00   0.62760   3 ;    H8R-   C18-   C17-   H7R
 13119  13118  13121  13123      9     0.00   0.62760   3 ;    H8R-   C18-   C17-   H7S
 13119  13118  13121  13124      9     0.00   0.66944   3 ;    H8R-   C18-   C17-   C16
 13120  13118  13121  13122      9     0.00   0.62760   3 ;    H8S-   C18-   C17-   H7R
 13120  13118  13121  13123      9     0.00   0.62760   3 ;    H8S-   C18-   C17-   H7S
 13120  13118  13121  13124      9     0.00   0.66944   3 ;    H8S-   C18-   C17-   C16
 13121  13124  13127  13128      9     0.00   0.66944   3 ;    C17-   C16-   C15-   H5R
 13121  13124  13127  13129      9     0.00   0.66944   3 ;    C17-   C16-   C15-   H5S
 13121  13124  13127  13130      9     0.00   0.41840   1 ;    C17-   C16-   C15-   C14
 13121  13124  13127  13130      9     0.00   0.41840   2 ;    C17-   C16-   C15-   C14
 13121  13124  13127  13130      9     0.00   0.41840   4 ;    C17-   C16-   C15-   C14
 13121  13124  13127  13130      9     0.00   0.41840   5 ;    C17-   C16-   C15-   C14
 13121  13124  13127  13130      9     0.00   1.25520   3 ;    C17-   C16-   C15-   C14
 13122  13121  13124  13125      9     0.00   0.62760   3 ;    H7R-   C17-   C16-   H6R
 13122  13121  13124  13126      9     0.00   0.62760   3 ;    H7R-   C17-   C16-   H6S
 13122  13121  13124  13127      9     0.00   0.66944   3 ;    H7R-   C17-   C16-   C15
 13123  13121  13124  13125      9     0.00   0.62760   3 ;    H7S-   C17-   C16-   H6R
 13123  13121  13124  13126      9     0.00   0.62760   3 ;    H7S-   C17-   C16-   H6S
 13123  13121  13124  13127      9     0.00   0.66944   3 ;    H7S-   C17-   C16-   C15
 13124  13127  13130  13131      9     0.00   0.66944   3 ;    C16-   C15-   C14-   H4R
 13124  13127  13130  13132      9     0.00   0.66944   3 ;    C16-   C15-   C14-   H4S
 13124  13127  13130  13133      9     0.00   0.41840   1 ;    C16-   C15-   C14-   C13
 13124  13127  13130  13133      9     0.00   0.41840   2 ;    C16-   C15-   C14-   C13
 13124  13127  13130  13133      9     0.00   0.41840   4 ;    C16-   C15-   C14-   C13
 13124  13127  13130  13133      9     0.00   0.41840   5 ;    C16-   C15-   C14-   C13
 13124  13127  13130  13133      9     0.00   1.25520   3 ;    C16-   C15-   C14-   C13
 13125  13124  13127  13128      9     0.00   0.62760   3 ;    H6R-   C16-   C15-   H5R
 13125  13124  13127  13129      9     0.00   0.62760   3 ;    H6R-   C16-   C15-   H5S
 13125  13124  13127  13130      9     0.00   0.66944   3 ;    H6R-   C16-   C15-   C14
 13126  13124  13127  13128      9     0.00   0.62760   3 ;    H6S-   C16-   C15-   H5R
 13126  13124  13127  13129      9     0.00   0.62760   3 ;    H6S-   C16-   C15-   H5S
 13126  13124  13127  13130      9     0.00   0.66944   3 ;    H6S-   C16-   C15-   C14
 13127  13130  13133  13134      9     0.00   0.66944   3 ;    C15-   C14-   C13-   H3R
 13127  13130  13133  13135      9     0.00   0.66944   3 ;    C15-   C14-   C13-   H3S
 13127  13130  13133  13136      9     0.00   0.41840   1 ;    C15-   C14-   C13-   C12
 13127  13130  13133  13136      9     0.00   0.41840   2 ;    C15-   C14-   C13-   C12
 13127  13130  13133  13136      9     0.00   0.41840   4 ;    C15-   C14-   C13-   C12
 13127  13130  13133  13136      9     0.00   0.41840   5 ;    C15-   C14-   C13-   C12
 13127  13130  13133  13136      9     0.00   1.25520   3 ;    C15-   C14-   C13-   C12
 13128  13127  13130  13131      9     0.00   0.62760   3 ;    H5R-   C15-   C14-   H4R
 13128  13127  13130  13132      9     0.00   0.62760   3 ;    H5R-   C15-   C14-   H4S
 13128  13127  13130  13133      9     0.00   0.66944   3 ;    H5R-   C15-   C14-   C13
 13129  13127  13130  13131      9     0.00   0.62760   3 ;    H5S-   C15-   C14-   H4R
 13129  13127  13130  13132      9     0.00   0.62760   3 ;    H5S-   C15-   C14-   H4S
 13129  13127  13130  13133      9     0.00   0.66944   3 ;    H5S-   C15-   C14-   C13
 13130  13133  13136  13137      9     0.00   0.66944   3 ;    C14-   C13-   C12-   H2R
 13130  13133  13136  13138      9     0.00   0.66944   3 ;    C14-   C13-   C12-   H2S
 13130  13133  13136  13139      9     0.00   0.65270   3 ;    C14-   C13-   C12-   C11
 13131  13130  13133  13134      9     0.00   0.62760   3 ;    H4R-   C14-   C13-   H3R
 13131  13130  13133  13135      9     0.00   0.62760   3 ;    H4R-   C14-   C13-   H3S
 13131  13130  13133  13136      9     0.00   0.66944   3 ;    H4R-   C14-   C13-   C12
 13132  13130  13133  13134      9     0.00   0.62760   3 ;    H4S-   C14-   C13-   H3R
 13132  13130  13133  13135      9     0.00   0.62760   3 ;    H4S-   C14-   C13-   H3S
 13132  13130  13133  13136      9     0.00   0.66944   3 ;    H4S-   C14-   C13-   C12
 13133  13136  13139  13140      9   180.00   0.00000   2 ;    C13-   C12-   C11-   O12
 13133  13136  13139  13141      9   180.00   0.00000   2 ;    C13-   C12-   C11-   O11
 13134  13133  13136  13137      9     0.00   0.62760   3 ;    H3R-   C13-   C12-   H2R
 13134  13133  13136  13138      9     0.00   0.62760   3 ;    H3R-   C13-   C12-   H2S
 13134  13133  13136  13139      9     0.00   0.65270   3 ;    H3R-   C13-   C12-   C11
 13135  13133  13136  13137      9     0.00   0.62760   3 ;    H3S-   C13-   C12-   H2R
 13135  13133  13136  13138      9     0.00   0.62760   3 ;    H3S-   C13-   C12-   H2S
 13135  13133  13136  13139      9     0.00   0.65270   3 ;    H3S-   C13-   C12-   C11
 13136  13139  13141  13142      9   180.00  11.29680   2 ;    C12-   C11-   O11-    C1
 13137  13136  13139  13140      9     0.00   3.34720   1 ;    H2R-   C12-   C11-   O12
 13137  13136  13139  13140      9   180.00   0.33472   3 ;    H2R-   C12-   C11-   O12
 13137  13136  13139  13141      9   180.00   0.00000   2 ;    H2R-   C12-   C11-   O11
 13138  13136  13139  13140      9     0.00   3.34720   1 ;    H2S-   C12-   C11-   O12
 13138  13136  13139  13140      9   180.00   0.33472   3 ;    H2S-   C12-   C11-   O12
 13138  13136  13139  13141      9   180.00   0.00000   2 ;    H2S-   C12-   C11-   O11
 13139  13141  13142  13143      9     0.00   1.60247   3 ;    C11-   O11-    C1-    HR
 13139  13141  13142  13144      9     0.00   1.60247   3 ;    C11-   O11-    C1-    HS
 13139  13141  13142  13145      9     0.00  -0.41840   1 ;    C11-   O11-    C1-    C2
 13140  13139  13141  13142      9   180.00   5.85760   1 ;    O12-   C11-   O11-    C1
 13140  13139  13141  13142      9   180.00  11.29680   2 ;    O12-   C11-   O11-    C1
 13141  13142  13145  13146      9     0.00   0.00000   0 ;    O11-    C1-    C2-    HX
 13141  13142  13145  13146      9     0.00   1.04600   1 ;    O11-    C1-    C2-    HX
 13141  13142  13145  13147      9     0.00   0.00000   0 ;    O11-    C1-    C2-    C3
 13141  13142  13145  13147      9     0.00   0.00000   0 ;    O11-    C1-    C2-    C3
 13141  13142  13145  13147      9     0.00   0.00000   0 ;    O11-    C1-    C2-    C3
 13141  13142  13145  13147      9     0.00   0.00000   0 ;    O11-    C1-    C2-    C3
 13141  13142  13145  13147      9     0.00   0.00000   0 ;    O11-    C1-    C2-    C3
 13141  13142  13145  13174      9     0.00   1.25520   2 ;    O11-    C1-    C2-   O21
 13141  13142  13145  13174      9     0.00   4.18400   3 ;    O11-    C1-    C2-   O21
 13141  13142  13145  13174      9   180.00  -0.41840   1 ;    O11-    C1-    C2-   O21
 13142  13145  13147  13148      9     0.00   0.65270   3 ;     C1-    C2-    C3-    HA
 13142  13145  13147  13149      9     0.00   0.65270   3 ;     C1-    C2-    C3-    HB
 13142  13145  13147  13150      9   180.00   3.34720   1 ;     C1-    C2-    C3-   O31
 13142  13145  13174  13175      9     0.00  -0.41840   1 ;     C1-    C2-   O21-   C21
 13143  13142  13145  13146      9     0.00   0.65270   3 ;     HR-    C1-    C2-    HX
 13143  13142  13145  13147      9     0.00   0.65270   3 ;     HR-    C1-    C2-    C3
 13143  13142  13145  13174      9     0.00   0.00000   0 ;     HR-    C1-    C2-   O21
 13143  13142  13145  13174      9     0.00   1.04600   1 ;     HR-    C1-    C2-   O21
 13144  13142  13145  13146      9     0.00   0.65270   3 ;     HS-    C1-    C2-    HX
 13144  13142  13145  13147      9     0.00   0.65270   3 ;     HS-    C1-    C2-    C3
 13144  13142  13145  13174      9     0.00   0.00000   0 ;     HS-    C1-    C2-   O21
 13144  13142  13145  13174      9     0.00   1.04600   1 ;     HS-    C1-    C2-   O21
 13145  13147  13150  13151      9     0.00   0.00000   0 ;     C2-    C3-   O31-   P31
 13145  13147  13150  13151      9   180.00  -3.34720   2 ;     C2-    C3-   O31-   P31
 13145  13174  13175  13176      9   180.00   5.85760   1 ;     C2-   O21-   C21-   O22
 13145  13174  13175  13176      9   180.00  11.29680   2 ;     C2-   O21-   C21-   O22
 13145  13174  13175  13214      9   180.00  11.29680   2 ;     C2-   O21-   C21-   C12
 13146  13145  13147  13148      9     0.00   0.65270   3 ;     HX-    C2-    C3-    HA
 13146  13145  13147  13149      9     0.00   0.65270   3 ;     HX-    C2-    C3-    HB
 13146  13145  13147  13150      9     0.00   0.00000   0 ;     HX-    C2-    C3-   O31
 13146  13145  13147  13150      9     0.00   1.04600   1 ;     HX-    C2-    C3-   O31
 13146  13145  13174  13175      9     0.00   1.60247   3 ;     HX-    C2-   O21-   C21
 13147  13145  13174  13175      9     0.00  -0.41840   1 ;     C3-    C2-   O21-   C21
 13147  13150  13151  13152      9     0.00   2.51040   3 ;     C3-   O31-   P31-   O32
 13147  13150  13151  13152      9     0.00   9.62320   2 ;     C3-   O31-   P31-   O32
 13147  13150  13151  13172      9     0.00   0.00000   0 ;     C3-   O31-   P31-   O33
 13147  13150  13151  13172      9     0.00   0.00000   0 ;     C3-   O31-   P31-   O33
 13147  13150  13151  13172      9     0.00   0.00000   0 ;     C3-   O31-   P31-   O33
 13147  13150  13151  13172      9     0.00   0.00000   0 ;     C3-   O31-   P31-   O33
 13147  13150  13151  13172      9     0.00   0.83680   2 ;     C3-   O31-   P31-   O33
 13147  13150  13151  13173      9     0.00   0.00000   0 ;     C3-   O31-   P31-   O34
 13147  13150  13151  13173      9     0.00   0.00000   0 ;     C3-   O31-   P31-   O34
 13147  13150  13151  13173      9     0.00   0.00000   0 ;     C3-   O31-   P31-   O34
 13147  13150  13151  13173      9     0.00   0.00000   0 ;     C3-   O31-   P31-   O34
 13147  13150  13151  13173      9     0.00   0.83680   2 ;     C3-   O31-   P31-   O34
 13148  13147  13145  13174      9     0.00   0.00000   0 ;     HA-    C3-    C2-   O21
 13148  13147  13145  13174      9     0.00   1.04600   1 ;     HA-    C3-    C2-   O21
 13148  13147  13150  13151      9     0.00   0.00000   0 ;     HA-    C3-   O31-   P31
 13148  13147  13150  13151      9     0.00   0.00000   0 ;     HA-    C3-   O31-   P31
 13148  13147  13150  13151      9     0.00   0.00000   0 ;     HA-    C3-   O31-   P31
 13148  13147  13150  13151      9     0.00   0.00000   0 ;     HA-    C3-   O31-   P31
 13148  13147  13150  13151      9     0.00   1.60247   3 ;     HA-    C3-   O31-   P31
 13149  13147  13145  13174      9     0.00   0.00000   0 ;     HB-    C3-    C2-   O21
 13149  13147  13145  13174      9     0.00   1.04600   1 ;     HB-    C3-    C2-   O21
 13149  13147  13150  13151      9     0.00   0.00000   0 ;     HB-    C3-   O31-   P31
 13149  13147  13150  13151      9     0.00   0.00000   0 ;     HB-    C3-   O31-   P31
 13149  13147  13150  13151      9     0.00   0.00000   0 ;     HB-    C3-   O31-   P31
 13149  13147  13150  13151      9     0.00   0.00000   0 ;     HB-    C3-   O31-   P31
 13149  13147  13150  13151      9     0.00   1.60247   3 ;     HB-    C3-   O31-   P31
 13150  13147  13145  13174      9     0.00   0.00000   0 ;    O31-    C3-    C2-   O21
 13150  13147  13145  13174      9     0.00   0.00000   0 ;    O31-    C3-    C2-   O21
 13150  13147  13145  13174      9     0.00   0.00000   0 ;    O31-    C3-    C2-   O21
 13150  13147  13145  13174      9     0.00   0.00000   0 ;    O31-    C3-    C2-   O21
 13150  13147  13145  13174      9     0.00   0.00000   0 ;    O31-    C3-    C2-   O21
 13150  13151  13152  13153      9     0.00   2.51040   3 ;    O31-   P31-   O32-   C31
 13150  13151  13152  13153      9     0.00   9.62320   2 ;    O31-   P31-   O32-   C31
 13151  13152  13153  13154      9     0.00   0.00000   0 ;    P31-   O32-   C31-   H1A
 13151  13152  13153  13154      9     0.00   0.00000   0 ;    P31-   O32-   C31-   H1A
 13151  13152  13153  13154      9     0.00   0.00000   0 ;    P31-   O32-   C31-   H1A
 13151  13152  13153  13154      9     0.00   0.00000   0 ;    P31-   O32-   C31-   H1A
 13151  13152  13153  13154      9     0.00   1.60247   3 ;    P31-   O32-   C31-   H1A
 13151  13152  13153  13155      9     0.00   0.00000   0 ;    P31-   O32-   C31-   H1B
 13151  13152  13153  13155      9     0.00   0.00000   0 ;    P31-   O32-   C31-   H1B
 13151  13152  13153  13155      9     0.00   0.00000   0 ;    P31-   O32-   C31-   H1B
 13151  13152  13153  13155      9     0.00   0.00000   0 ;    P31-   O32-   C31-   H1B
 13151  13152  13153  13155      9     0.00   1.60247   3 ;    P31-   O32-   C31-   H1B
 13151  13152  13153  13156      9     0.00   0.00000   0 ;    P31-   O32-   C31-   C32
 13151  13152  13153  13156      9   180.00  -3.34720   2 ;    P31-   O32-   C31-   C32
 13152  13153  13156  13157      9     0.00   0.65270   3 ;    O32-   C31-   C32-   H2A
 13152  13153  13156  13158      9     0.00   0.65270   3 ;    O32-   C31-   C32-   H2B
 13152  13153  13156  13159      9     0.00   4.18400   3 ;    O32-   C31-   C32-   N31
 13153  13152  13151  13172      9     0.00   0.00000   0 ;    C31-   O32-   P31-   O33
 13153  13152  13151  13172      9     0.00   0.00000   0 ;    C31-   O32-   P31-   O33
 13153  13152  13151  13172      9     0.00   0.00000   0 ;    C31-   O32-   P31-   O33
 13153  13152  13151  13172      9     0.00   0.00000   0 ;    C31-   O32-   P31-   O33
 13153  13152  13151  13172      9     0.00   0.83680   2 ;    C31-   O32-   P31-   O33
 13153  13152  13151  13173      9     0.00   0.00000   0 ;    C31-   O32-   P31-   O34
 13153  13152  13151  13173      9     0.00   0.00000   0 ;    C31-   O32-   P31-   O34
 13153  13152  13151  13173      9     0.00   0.00000   0 ;    C31-   O32-   P31-   O34
 13153  13152  13151  13173      9     0.00   0.00000   0 ;    C31-   O32-   P31-   O34
 13153  13152  13151  13173      9     0.00   0.83680   2 ;    C31-   O32-   P31-   O34
 13153  13156  13159  13160      9     0.00   0.65270   3 ;    C31-   C32-   N31-   C33
 13153  13156  13159  13164      9     0.00   0.65270   3 ;    C31-   C32-   N31-   C34
 13153  13156  13159  13168      9     0.00   0.65270   3 ;    C31-   C32-   N31-   C35
 13154  13153  13156  13157      9     0.00   0.65270   3 ;    H1A-   C31-   C32-   H2A
 13154  13153  13156  13158      9     0.00   0.65270   3 ;    H1A-   C31-   C32-   H2B
 13154  13153  13156  13159      9     0.00   0.65270   3 ;    H1A-   C31-   C32-   N31
 13155  13153  13156  13157      9     0.00   0.65270   3 ;    H1B-   C31-   C32-   H2A
 13155  13153  13156  13158      9     0.00   0.65270   3 ;    H1B-   C31-   C32-   H2B
 13155  13153  13156  13159      9     0.00   0.65270   3 ;    H1B-   C31-   C32-   N31
 13156  13159  13160  13161      9     0.00   0.65270   3 ;    C32-   N31-   C33-   H3A
 13156  13159  13160  13162      9     0.00   0.65270   3 ;    C32-   N31-   C33-   H3B
 13156  13159  13160  13163      9     0.00   0.65270   3 ;    C32-   N31-   C33-   H3C
 13156  13159  13164  13165      9     0.00   0.65270   3 ;    C32-   N31-   C34-   H4A
 13156  13159  13164  13166      9     0.00   0.65270   3 ;    C32-   N31-   C34-   H4B
 13156  13159  13164  13167      9     0.00   0.65270   3 ;    C32-   N31-   C34-   H4C
 13156  13159  13168  13169      9     0.00   0.65270   3 ;    C32-   N31-   C35-   H5A
 13156  13159  13168  13170      9     0.00   0.65270   3 ;    C32-   N31-   C35-   H5B
 13156  13159  13168  13171      9     0.00   0.65270   3 ;    C32-   N31-   C35-   H5C
 13157  13156  13159  13160      9     0.00   0.65270   3 ;    H2A-   C32-   N31-   C33
 13157  13156  13159  13164      9     0.00   0.65270   3 ;    H2A-   C32-   N31-   C34
 13157  13156  13159  13168      9     0.00   0.65270   3 ;    H2A-   C32-   N31-   C35
 13158  13156  13159  13160      9     0.00   0.65270   3 ;    H2B-   C32-   N31-   C33
 13158  13156  13159  13164      9     0.00   0.65270   3 ;    H2B-   C32-   N31-   C34
 13158  13156  13159  13168      9     0.00   0.65270   3 ;    H2B-   C32-   N31-   C35
 13160  13159  13164  13165      9     0.00   0.65270   3 ;    C33-   N31-   C34-   H4A
 13160  13159  13164  13166      9     0.00   0.65270   3 ;    C33-   N31-   C34-   H4B
 13160  13159  13164  13167      9     0.00   0.65270   3 ;    C33-   N31-   C34-   H4C
 13160  13159  13168  13169      9     0.00   0.65270   3 ;    C33-   N31-   C35-   H5A
 13160  13159  13168  13170      9     0.00   0.65270   3 ;    C33-   N31-   C35-   H5B
 13160  13159  13168  13171      9     0.00   0.65270   3 ;    C33-   N31-   C35-   H5C
 13161  13160  13159  13164      9     0.00   0.65270   3 ;    H3A-   C33-   N31-   C34
 13161  13160  13159  13168      9     0.00   0.65270   3 ;    H3A-   C33-   N31-   C35
 13162  13160  13159  13164      9     0.00   0.65270   3 ;    H3B-   C33-   N31-   C34
 13162  13160  13159  13168      9     0.00   0.65270   3 ;    H3B-   C33-   N31-   C35
 13163  13160  13159  13164      9     0.00   0.65270   3 ;    H3C-   C33-   N31-   C34
 13163  13160  13159  13168      9     0.00   0.65270   3 ;    H3C-   C33-   N31-   C35
 13164  13159  13168  13169      9     0.00   0.65270   3 ;    C34-   N31-   C35-   H5A
 13164  13159  13168  13170      9     0.00   0.65270   3 ;    C34-   N31-   C35-   H5B
 13164  13159  13168  13171      9     0.00   0.65270   3 ;    C34-   N31-   C35-   H5C
 13165  13164  13159  13168      9     0.00   0.65270   3 ;    H4A-   C34-   N31-   C35
 13166  13164  13159  13168      9     0.00   0.65270   3 ;    H4B-   C34-   N31-   C35
 13167  13164  13159  13168      9     0.00   0.65270   3 ;    H4C-   C34-   N31-   C35
 13174  13175  13214  13211      9   180.00   0.00000   2 ;    O21-   C21-   C12-   C13
 13174  13175  13214  13215      9   180.00   0.00000   2 ;    O21-   C21-   C12-   H2R
 13174  13175  13214  13216      9   180.00   0.00000   2 ;    O21-   C21-   C12-   H2S
 13175  13214  13211  13208      9     0.00   0.65270   3 ;    C21-   C12-   C13-   C14
 13175  13214  13211  13212      9     0.00   0.65270   3 ;    C21-   C12-   C13-   H3R
 13175  13214  13211  13213      9     0.00   0.65270   3 ;    C21-   C12-   C13-   H3S
 13176  13175  13214  13211      9   180.00   0.00000   2 ;    O22-   C21-   C12-   C13
 13176  13175  13214  13215      9     0.00   3.34720   1 ;    O22-   C21-   C12-   H2R
 13176  13175  13214  13215      9   180.00   0.33472   3 ;    O22-   C21-   C12-   H2R
 13176  13175  13214  13216      9     0.00   3.34720   1 ;    O22-   C21-   C12-   H2S
 13176  13175  13214  13216      9   180.00   0.33472   3 ;    O22-   C21-   C12-   H2S
 13177  13178  13181  13182      9     0.00   0.62760   3 ;   H14T-  C114-  C113-  H13R
 13177  13178  13181  13183      9     0.00   0.62760   3 ;   H14T-  C114-  C113-  H13S
 13177  13178  13181  13184      9     0.00   0.66944   3 ;   H14T-  C114-  C113-  C112
 13178  13181  13184  13185      9     0.00   0.66944   3 ;   C114-  C113-  C112-  H12R
 13178  13181  13184  13186      9     0.00   0.66944   3 ;   C114-  C113-  C112-  H12S
 13178  13181  13184  13187      9     0.00   0.41840   1 ;   C114-  C113-  C112-  C111
 13178  13181  13184  13187      9     0.00   0.41840   2 ;   C114-  C113-  C112-  C111
 13178  13181  13184  13187      9     0.00   0.41840   4 ;   C114-  C113-  C112-  C111
 13178  13181  13184  13187      9     0.00   0.41840   5 ;   C114-  C113-  C112-  C111
 13178  13181  13184  13187      9     0.00   1.25520   3 ;   C114-  C113-  C112-  C111
 13179  13178  13181  13182      9     0.00   0.62760   3 ;   H14R-  C114-  C113-  H13R
 13179  13178  13181  13183      9     0.00   0.62760   3 ;   H14R-  C114-  C113-  H13S
 13179  13178  13181  13184      9     0.00   0.66944   3 ;   H14R-  C114-  C113-  C112
 13180  13178  13181  13182      9     0.00   0.62760   3 ;   H14S-  C114-  C113-  H13R
 13180  13178  13181  13183      9     0.00   0.62760   3 ;   H14S-  C114-  C113-  H13S
 13180  13178  13181  13184      9     0.00   0.66944   3 ;   H14S-  C114-  C113-  C112
 13181  13184  13187  13188      9     0.00   0.66944   3 ;   C113-  C112-  C111-  H11R
 13181  13184  13187  13189      9     0.00   0.66944   3 ;   C113-  C112-  C111-  H11S
 13181  13184  13187  13190      9     0.00   0.41840   1 ;   C113-  C112-  C111-  C110
 13181  13184  13187  13190      9     0.00   0.41840   2 ;   C113-  C112-  C111-  C110
 13181  13184  13187  13190      9     0.00   0.41840   4 ;   C113-  C112-  C111-  C110
 13181  13184  13187  13190      9     0.00   0.41840   5 ;   C113-  C112-  C111-  C110
 13181  13184  13187  13190      9     0.00   1.25520   3 ;   C113-  C112-  C111-  C110
 13182  13181  13184  13185      9     0.00   0.62760   3 ;   H13R-  C113-  C112-  H12R
 13182  13181  13184  13186      9     0.00   0.62760   3 ;   H13R-  C113-  C112-  H12S
 13182  13181  13184  13187      9     0.00   0.66944   3 ;   H13R-  C113-  C112-  C111
 13183  13181  13184  13185      9     0.00   0.62760   3 ;   H13S-  C113-  C112-  H12R
 13183  13181  13184  13186      9     0.00   0.62760   3 ;   H13S-  C113-  C112-  H12S
 13183  13181  13184  13187      9     0.00   0.66944   3 ;   H13S-  C113-  C112-  C111
 13184  13187  13190  13191      9     0.00   0.66944   3 ;   C112-  C111-  C110-  H10R
 13184  13187  13190  13192      9     0.00   0.66944   3 ;   C112-  C111-  C110-  H10S
 13184  13187  13190  13193      9     0.00   0.41840   1 ;   C112-  C111-  C110-   C19
 13184  13187  13190  13193      9     0.00   0.41840   2 ;   C112-  C111-  C110-   C19
 13184  13187  13190  13193      9     0.00   0.41840   4 ;   C112-  C111-  C110-   C19
 13184  13187  13190  13193      9     0.00   0.41840   5 ;   C112-  C111-  C110-   C19
 13184  13187  13190  13193      9     0.00   1.25520   3 ;   C112-  C111-  C110-   C19
 13185  13184  13187  13188      9     0.00   0.62760   3 ;   H12R-  C112-  C111-  H11R
 13185  13184  13187  13189      9     0.00   0.62760   3 ;   H12R-  C112-  C111-  H11S
 13185  13184  13187  13190      9     0.00   0.66944   3 ;   H12R-  C112-  C111-  C110
 13186  13184  13187  13188      9     0.00   0.62760   3 ;   H12S-  C112-  C111-  H11R
 13186  13184  13187  13189      9     0.00   0.62760   3 ;   H12S-  C112-  C111-  H11S
 13186  13184  13187  13190      9     0.00   0.66944   3 ;   H12S-  C112-  C111-  C110
 13187  13190  13193  13194      9     0.00   0.66944   3 ;   C111-  C110-   C19-   H9R
 13187  13190  13193  13195      9     0.00   0.66944   3 ;   C111-  C110-   C19-   H9S
 13187  13190  13193  13196      9     0.00   0.41840   1 ;   C111-  C110-   C19-   C18
 13187  13190  13193  13196      9     0.00   0.41840   2 ;   C111-  C110-   C19-   C18
 13187  13190  13193  13196      9     0.00   0.41840   4 ;   C111-  C110-   C19-   C18
 13187  13190  13193  13196      9     0.00   0.41840   5 ;   C111-  C110-   C19-   C18
 13187  13190  13193  13196      9     0.00   1.25520   3 ;   C111-  C110-   C19-   C18
 13188  13187  13190  13191      9     0.00   0.62760   3 ;   H11R-  C111-  C110-  H10R
 13188  13187  13190  13192      9     0.00   0.62760   3 ;   H11R-  C111-  C110-  H10S
 13188  13187  13190  13193      9     0.00   0.66944   3 ;   H11R-  C111-  C110-   C19
 13189  13187  13190  13191      9     0.00   0.62760   3 ;   H11S-  C111-  C110-  H10R
 13189  13187  13190  13192      9     0.00   0.62760   3 ;   H11S-  C111-  C110-  H10S
 13189  13187  13190  13193      9     0.00   0.66944   3 ;   H11S-  C111-  C110-   C19
 13190  13193  13196  13197      9     0.00   0.66944   3 ;   C110-   C19-   C18-   H8R
 13190  13193  13196  13198      9     0.00   0.66944   3 ;   C110-   C19-   C18-   H8S
 13190  13193  13196  13199      9     0.00   0.41840   1 ;   C110-   C19-   C18-   C17
 13190  13193  13196  13199      9     0.00   0.41840   2 ;   C110-   C19-   C18-   C17
 13190  13193  13196  13199      9     0.00   0.41840   4 ;   C110-   C19-   C18-   C17
 13190  13193  13196  13199      9     0.00   0.41840   5 ;   C110-   C19-   C18-   C17
 13190  13193  13196  13199      9     0.00   1.25520   3 ;   C110-   C19-   C18-   C17
 13191  13190  13193  13194      9     0.00   0.62760   3 ;   H10R-  C110-   C19-   H9R
 13191  13190  13193  13195      9     0.00   0.62760   3 ;   H10R-  C110-   C19-   H9S
 13191  13190  13193  13196      9     0.00   0.66944   3 ;   H10R-  C110-   C19-   C18
 13192  13190  13193  13194      9     0.00   0.62760   3 ;   H10S-  C110-   C19-   H9R
 13192  13190  13193  13195      9     0.00   0.62760   3 ;   H10S-  C110-   C19-   H9S
 13192  13190  13193  13196      9     0.00   0.66944   3 ;   H10S-  C110-   C19-   C18
 13193  13196  13199  13200      9     0.00   0.66944   3 ;    C19-   C18-   C17-   H7R
 13193  13196  13199  13201      9     0.00   0.66944   3 ;    C19-   C18-   C17-   H7S
 13193  13196  13199  13202      9     0.00   0.41840   1 ;    C19-   C18-   C17-   C16
 13193  13196  13199  13202      9     0.00   0.41840   2 ;    C19-   C18-   C17-   C16
 13193  13196  13199  13202      9     0.00   0.41840   4 ;    C19-   C18-   C17-   C16
 13193  13196  13199  13202      9     0.00   0.41840   5 ;    C19-   C18-   C17-   C16
 13193  13196  13199  13202      9     0.00   1.25520   3 ;    C19-   C18-   C17-   C16
 13194  13193  13196  13197      9     0.00   0.62760   3 ;    H9R-   C19-   C18-   H8R
 13194  13193  13196  13198      9     0.00   0.62760   3 ;    H9R-   C19-   C18-   H8S
 13194  13193  13196  13199      9     0.00   0.66944   3 ;    H9R-   C19-   C18-   C17
 13195  13193  13196  13197      9     0.00   0.62760   3 ;    H9S-   C19-   C18-   H8R
 13195  13193  13196  13198      9     0.00   0.62760   3 ;    H9S-   C19-   C18-   H8S
 13195  13193  13196  13199      9     0.00   0.66944   3 ;    H9S-   C19-   C18-   C17
 13196  13199  13202  13203      9     0.00   0.66944   3 ;    C18-   C17-   C16-   H6R
 13196  13199  13202  13204      9     0.00   0.66944   3 ;    C18-   C17-   C16-   H6S
 13196  13199  13202  13205      9     0.00   0.41840   1 ;    C18-   C17-   C16-   C15
 13196  13199  13202  13205      9     0.00   0.41840   2 ;    C18-   C17-   C16-   C15
 13196  13199  13202  13205      9     0.00   0.41840   4 ;    C18-   C17-   C16-   C15
 13196  13199  13202  13205      9     0.00   0.41840   5 ;    C18-   C17-   C16-   C15
 13196  13199  13202  13205      9     0.00   1.25520   3 ;    C18-   C17-   C16-   C15
 13197  13196  13199  13200      9     0.00   0.62760   3 ;    H8R-   C18-   C17-   H7R
 13197  13196  13199  13201      9     0.00   0.62760   3 ;    H8R-   C18-   C17-   H7S
 13197  13196  13199  13202      9     0.00   0.66944   3 ;    H8R-   C18-   C17-   C16
 13198  13196  13199  13200      9     0.00   0.62760   3 ;    H8S-   C18-   C17-   H7R
 13198  13196  13199  13201      9     0.00   0.62760   3 ;    H8S-   C18-   C17-   H7S
 13198  13196  13199  13202      9     0.00   0.66944   3 ;    H8S-   C18-   C17-   C16
 13199  13202  13205  13206      9     0.00   0.66944   3 ;    C17-   C16-   C15-   H5R
 13199  13202  13205  13207      9     0.00   0.66944   3 ;    C17-   C16-   C15-   H5S
 13199  13202  13205  13208      9     0.00   0.41840   1 ;    C17-   C16-   C15-   C14
 13199  13202  13205  13208      9     0.00   0.41840   2 ;    C17-   C16-   C15-   C14
 13199  13202  13205  13208      9     0.00   0.41840   4 ;    C17-   C16-   C15-   C14
 13199  13202  13205  13208      9     0.00   0.41840   5 ;    C17-   C16-   C15-   C14
 13199  13202  13205  13208      9     0.00   1.25520   3 ;    C17-   C16-   C15-   C14
 13200  13199  13202  13203      9     0.00   0.62760   3 ;    H7R-   C17-   C16-   H6R
 13200  13199  13202  13204      9     0.00   0.62760   3 ;    H7R-   C17-   C16-   H6S
 13200  13199  13202  13205      9     0.00   0.66944   3 ;    H7R-   C17-   C16-   C15
 13201  13199  13202  13203      9     0.00   0.62760   3 ;    H7S-   C17-   C16-   H6R
 13201  13199  13202  13204      9     0.00   0.62760   3 ;    H7S-   C17-   C16-   H6S
 13201  13199  13202  13205      9     0.00   0.66944   3 ;    H7S-   C17-   C16-   C15
 13202  13205  13208  13209      9     0.00   0.66944   3 ;    C16-   C15-   C14-   H4R
 13202  13205  13208  13210      9     0.00   0.66944   3 ;    C16-   C15-   C14-   H4S
 13202  13205  13208  13211      9     0.00   0.41840   1 ;    C16-   C15-   C14-   C13
 13202  13205  13208  13211      9     0.00   0.41840   2 ;    C16-   C15-   C14-   C13
 13202  13205  13208  13211      9     0.00   0.41840   4 ;    C16-   C15-   C14-   C13
 13202  13205  13208  13211      9     0.00   0.41840   5 ;    C16-   C15-   C14-   C13
 13202  13205  13208  13211      9     0.00   1.25520   3 ;    C16-   C15-   C14-   C13
 13203  13202  13205  13206      9     0.00   0.62760   3 ;    H6R-   C16-   C15-   H5R
 13203  13202  13205  13207      9     0.00   0.62760   3 ;    H6R-   C16-   C15-   H5S
 13203  13202  13205  13208      9     0.00   0.66944   3 ;    H6R-   C16-   C15-   C14
 13204  13202  13205  13206      9     0.00   0.62760   3 ;    H6S-   C16-   C15-   H5R
 13204  13202  13205  13207      9     0.00   0.62760   3 ;    H6S-   C16-   C15-   H5S
 13204  13202  13205  13208      9     0.00   0.66944   3 ;    H6S-   C16-   C15-   C14
 13205  13208  13211  13212      9     0.00   0.66944   3 ;    C15-   C14-   C13-   H3R
 13205  13208  13211  13213      9     0.00   0.66944   3 ;    C15-   C14-   C13-   H3S
 13205  13208  13211  13214      9     0.00   0.41840   1 ;    C15-   C14-   C13-   C12
 13205  13208  13211  13214      9     0.00   0.41840   2 ;    C15-   C14-   C13-   C12
 13205  13208  13211  13214      9     0.00   0.41840   4 ;    C15-   C14-   C13-   C12
 13205  13208  13211  13214      9     0.00   0.41840   5 ;    C15-   C14-   C13-   C12
 13205  13208  13211  13214      9     0.00   1.25520   3 ;    C15-   C14-   C13-   C12
 13206  13205  13208  13209      9     0.00   0.62760   3 ;    H5R-   C15-   C14-   H4R
 13206  13205  13208  13210      9     0.00   0.62760   3 ;    H5R-   C15-   C14-   H4S
 13206  13205  13208  13211      9     0.00   0.66944   3 ;    H5R-   C15-   C14-   C13
 13207  13205  13208  13209      9     0.00   0.62760   3 ;    H5S-   C15-   C14-   H4R
 13207  13205  13208  13210      9     0.00   0.62760   3 ;    H5S-   C15-   C14-   H4S
 13207  13205  13208  13211      9     0.00   0.66944   3 ;    H5S-   C15-   C14-   C13
 13208  13211  13214  13215      9     0.00   0.66944   3 ;    C14-   C13-   C12-   H2R
 13208  13211  13214  13216      9     0.00   0.66944   3 ;    C14-   C13-   C12-   H2S
 13209  13208  13211  13212      9     0.00   0.62760   3 ;    H4R-   C14-   C13-   H3R
 13209  13208  13211  13213      9     0.00   0.62760   3 ;    H4R-   C14-   C13-   H3S
 13209  13208  13211  13214      9     0.00   0.66944   3 ;    H4R-   C14-   C13-   C12
 13210  13208  13211  13212      9     0.00   0.62760   3 ;    H4S-   C14-   C13-   H3R
 13210  13208  13211  13213      9     0.00   0.62760   3 ;    H4S-   C14-   C13-   H3S
 13210  13208  13211  13214      9     0.00   0.66944   3 ;    H4S-   C14-   C13-   C12
 13212  13211  13214  13215      9     0.00   0.62760   3 ;    H3R-   C13-   C12-   H2R
 13212  13211  13214  13216      9     0.00   0.62760   3 ;    H3R-   C13-   C12-   H2S
 13213  13211  13214  13215      9     0.00   0.62760   3 ;    H3S-   C13-   C12-   H2R
 13213  13211  13214  13216      9     0.00   0.62760   3 ;    H3S-   C13-   C12-   H2S
 13217  13218  13221  13222      9     0.00   0.62760   3 ;   H14T-  C114-  C113-  H13R
 13217  13218  13221  13223      9     0.00   0.62760   3 ;   H14T-  C114-  C113-  H13S
 13217  13218  13221  13224      9     0.00   0.66944   3 ;   H14T-  C114-  C113-  C112
 13218  13221  13224  13225      9     0.00   0.66944   3 ;   C114-  C113-  C112-  H12R
 13218  13221  13224  13226      9     0.00   0.66944   3 ;   C114-  C113-  C112-  H12S
 13218  13221  13224  13227      9     0.00   0.41840   1 ;   C114-  C113-  C112-  C111
 13218  13221  13224  13227      9     0.00   0.41840   2 ;   C114-  C113-  C112-  C111
 13218  13221  13224  13227      9     0.00   0.41840   4 ;   C114-  C113-  C112-  C111
 13218  13221  13224  13227      9     0.00   0.41840   5 ;   C114-  C113-  C112-  C111
 13218  13221  13224  13227      9     0.00   1.25520   3 ;   C114-  C113-  C112-  C111
 13219  13218  13221  13222      9     0.00   0.62760   3 ;   H14R-  C114-  C113-  H13R
 13219  13218  13221  13223      9     0.00   0.62760   3 ;   H14R-  C114-  C113-  H13S
 13219  13218  13221  13224      9     0.00   0.66944   3 ;   H14R-  C114-  C113-  C112
 13220  13218  13221  13222      9     0.00   0.62760   3 ;   H14S-  C114-  C113-  H13R
 13220  13218  13221  13223      9     0.00   0.62760   3 ;   H14S-  C114-  C113-  H13S
 13220  13218  13221  13224      9     0.00   0.66944   3 ;   H14S-  C114-  C113-  C112
 13221  13224  13227  13228      9     0.00   0.66944   3 ;   C113-  C112-  C111-  H11R
 13221  13224  13227  13229      9     0.00   0.66944   3 ;   C113-  C112-  C111-  H11S
 13221  13224  13227  13230      9     0.00   0.41840   1 ;   C113-  C112-  C111-  C110
 13221  13224  13227  13230      9     0.00   0.41840   2 ;   C113-  C112-  C111-  C110
 13221  13224  13227  13230      9     0.00   0.41840   4 ;   C113-  C112-  C111-  C110
 13221  13224  13227  13230      9     0.00   0.41840   5 ;   C113-  C112-  C111-  C110
 13221  13224  13227  13230      9     0.00   1.25520   3 ;   C113-  C112-  C111-  C110
 13222  13221  13224  13225      9     0.00   0.62760   3 ;   H13R-  C113-  C112-  H12R
 13222  13221  13224  13226      9     0.00   0.62760   3 ;   H13R-  C113-  C112-  H12S
 13222  13221  13224  13227      9     0.00   0.66944   3 ;   H13R-  C113-  C112-  C111
 13223  13221  13224  13225      9     0.00   0.62760   3 ;   H13S-  C113-  C112-  H12R
 13223  13221  13224  13226      9     0.00   0.62760   3 ;   H13S-  C113-  C112-  H12S
 13223  13221  13224  13227      9     0.00   0.66944   3 ;   H13S-  C113-  C112-  C111
 13224  13227  13230  13231      9     0.00   0.66944   3 ;   C112-  C111-  C110-  H10R
 13224  13227  13230  13232      9     0.00   0.66944   3 ;   C112-  C111-  C110-  H10S
 13224  13227  13230  13233      9     0.00   0.41840   1 ;   C112-  C111-  C110-   C19
 13224  13227  13230  13233      9     0.00   0.41840   2 ;   C112-  C111-  C110-   C19
 13224  13227  13230  13233      9     0.00   0.41840   4 ;   C112-  C111-  C110-   C19
 13224  13227  13230  13233      9     0.00   0.41840   5 ;   C112-  C111-  C110-   C19
 13224  13227  13230  13233      9     0.00   1.25520   3 ;   C112-  C111-  C110-   C19
 13225  13224  13227  13228      9     0.00   0.62760   3 ;   H12R-  C112-  C111-  H11R
 13225  13224  13227  13229      9     0.00   0.62760   3 ;   H12R-  C112-  C111-  H11S
 13225  13224  13227  13230      9     0.00   0.66944   3 ;   H12R-  C112-  C111-  C110
 13226  13224  13227  13228      9     0.00   0.62760   3 ;   H12S-  C112-  C111-  H11R
 13226  13224  13227  13229      9     0.00   0.62760   3 ;   H12S-  C112-  C111-  H11S
 13226  13224  13227  13230      9     0.00   0.66944   3 ;   H12S-  C112-  C111-  C110
 13227  13230  13233  13234      9     0.00   0.66944   3 ;   C111-  C110-   C19-   H9R
 13227  13230  13233  13235      9     0.00   0.66944   3 ;   C111-  C110-   C19-   H9S
 13227  13230  13233  13236      9     0.00   0.41840   1 ;   C111-  C110-   C19-   C18
 13227  13230  13233  13236      9     0.00   0.41840   2 ;   C111-  C110-   C19-   C18
 13227  13230  13233  13236      9     0.00   0.41840   4 ;   C111-  C110-   C19-   C18
 13227  13230  13233  13236      9     0.00   0.41840   5 ;   C111-  C110-   C19-   C18
 13227  13230  13233  13236      9     0.00   1.25520   3 ;   C111-  C110-   C19-   C18
 13228  13227  13230  13231      9     0.00   0.62760   3 ;   H11R-  C111-  C110-  H10R
 13228  13227  13230  13232      9     0.00   0.62760   3 ;   H11R-  C111-  C110-  H10S
 13228  13227  13230  13233      9     0.00   0.66944   3 ;   H11R-  C111-  C110-   C19
 13229  13227  13230  13231      9     0.00   0.62760   3 ;   H11S-  C111-  C110-  H10R
 13229  13227  13230  13232      9     0.00   0.62760   3 ;   H11S-  C111-  C110-  H10S
 13229  13227  13230  13233      9     0.00   0.66944   3 ;   H11S-  C111-  C110-   C19
 13230  13233  13236  13237      9     0.00   0.66944   3 ;   C110-   C19-   C18-   H8R
 13230  13233  13236  13238      9     0.00   0.66944   3 ;   C110-   C19-   C18-   H8S
 13230  13233  13236  13239      9     0.00   0.41840   1 ;   C110-   C19-   C18-   C17
 13230  13233  13236  13239      9     0.00   0.41840   2 ;   C110-   C19-   C18-   C17
 13230  13233  13236  13239      9     0.00   0.41840   4 ;   C110-   C19-   C18-   C17
 13230  13233  13236  13239      9     0.00   0.41840   5 ;   C110-   C19-   C18-   C17
 13230  13233  13236  13239      9     0.00   1.25520   3 ;   C110-   C19-   C18-   C17
 13231  13230  13233  13234      9     0.00   0.62760   3 ;   H10R-  C110-   C19-   H9R
 13231  13230  13233  13235      9     0.00   0.62760   3 ;   H10R-  C110-   C19-   H9S
 13231  13230  13233  13236      9     0.00   0.66944   3 ;   H10R-  C110-   C19-   C18
 13232  13230  13233  13234      9     0.00   0.62760   3 ;   H10S-  C110-   C19-   H9R
 13232  13230  13233  13235      9     0.00   0.62760   3 ;   H10S-  C110-   C19-   H9S
 13232  13230  13233  13236      9     0.00   0.66944   3 ;   H10S-  C110-   C19-   C18
 13233  13236  13239  13240      9     0.00   0.66944   3 ;    C19-   C18-   C17-   H7R
 13233  13236  13239  13241      9     0.00   0.66944   3 ;    C19-   C18-   C17-   H7S
 13233  13236  13239  13242      9     0.00   0.41840   1 ;    C19-   C18-   C17-   C16
 13233  13236  13239  13242      9     0.00   0.41840   2 ;    C19-   C18-   C17-   C16
 13233  13236  13239  13242      9     0.00   0.41840   4 ;    C19-   C18-   C17-   C16
 13233  13236  13239  13242      9     0.00   0.41840   5 ;    C19-   C18-   C17-   C16
 13233  13236  13239  13242      9     0.00   1.25520   3 ;    C19-   C18-   C17-   C16
 13234  13233  13236  13237      9     0.00   0.62760   3 ;    H9R-   C19-   C18-   H8R
 13234  13233  13236  13238      9     0.00   0.62760   3 ;    H9R-   C19-   C18-   H8S
 13234  13233  13236  13239      9     0.00   0.66944   3 ;    H9R-   C19-   C18-   C17
 13235  13233  13236  13237      9     0.00   0.62760   3 ;    H9S-   C19-   C18-   H8R
 13235  13233  13236  13238      9     0.00   0.62760   3 ;    H9S-   C19-   C18-   H8S
 13235  13233  13236  13239      9     0.00   0.66944   3 ;    H9S-   C19-   C18-   C17
 13236  13239  13242  13243      9     0.00   0.66944   3 ;    C18-   C17-   C16-   H6R
 13236  13239  13242  13244      9     0.00   0.66944   3 ;    C18-   C17-   C16-   H6S
 13236  13239  13242  13245      9     0.00   0.41840   1 ;    C18-   C17-   C16-   C15
 13236  13239  13242  13245      9     0.00   0.41840   2 ;    C18-   C17-   C16-   C15
 13236  13239  13242  13245      9     0.00   0.41840   4 ;    C18-   C17-   C16-   C15
 13236  13239  13242  13245      9     0.00   0.41840   5 ;    C18-   C17-   C16-   C15
 13236  13239  13242  13245      9     0.00   1.25520   3 ;    C18-   C17-   C16-   C15
 13237  13236  13239  13240      9     0.00   0.62760   3 ;    H8R-   C18-   C17-   H7R
 13237  13236  13239  13241      9     0.00   0.62760   3 ;    H8R-   C18-   C17-   H7S
 13237  13236  13239  13242      9     0.00   0.66944   3 ;    H8R-   C18-   C17-   C16
 13238  13236  13239  13240      9     0.00   0.62760   3 ;    H8S-   C18-   C17-   H7R
 13238  13236  13239  13241      9     0.00   0.62760   3 ;    H8S-   C18-   C17-   H7S
 13238  13236  13239  13242      9     0.00   0.66944   3 ;    H8S-   C18-   C17-   C16
 13239  13242  13245  13246      9     0.00   0.66944   3 ;    C17-   C16-   C15-   H5R
 13239  13242  13245  13247      9     0.00   0.66944   3 ;    C17-   C16-   C15-   H5S
 13239  13242  13245  13248      9     0.00   0.41840   1 ;    C17-   C16-   C15-   C14
 13239  13242  13245  13248      9     0.00   0.41840   2 ;    C17-   C16-   C15-   C14
 13239  13242  13245  13248      9     0.00   0.41840   4 ;    C17-   C16-   C15-   C14
 13239  13242  13245  13248      9     0.00   0.41840   5 ;    C17-   C16-   C15-   C14
 13239  13242  13245  13248      9     0.00   1.25520   3 ;    C17-   C16-   C15-   C14
 13240  13239  13242  13243      9     0.00   0.62760   3 ;    H7R-   C17-   C16-   H6R
 13240  13239  13242  13244      9     0.00   0.62760   3 ;    H7R-   C17-   C16-   H6S
 13240  13239  13242  13245      9     0.00   0.66944   3 ;    H7R-   C17-   C16-   C15
 13241  13239  13242  13243      9     0.00   0.62760   3 ;    H7S-   C17-   C16-   H6R
 13241  13239  13242  13244      9     0.00   0.62760   3 ;    H7S-   C17-   C16-   H6S
 13241  13239  13242  13245      9     0.00   0.66944   3 ;    H7S-   C17-   C16-   C15
 13242  13245  13248  13249      9     0.00   0.66944   3 ;    C16-   C15-   C14-   H4R
 13242  13245  13248  13250      9     0.00   0.66944   3 ;    C16-   C15-   C14-   H4S
 13242  13245  13248  13251      9     0.00   0.41840   1 ;    C16-   C15-   C14-   C13
 13242  13245  13248  13251      9     0.00   0.41840   2 ;    C16-   C15-   C14-   C13
 13242  13245  13248  13251      9     0.00   0.41840   4 ;    C16-   C15-   C14-   C13
 13242  13245  13248  13251      9     0.00   0.41840   5 ;    C16-   C15-   C14-   C13
 13242  13245  13248  13251      9     0.00   1.25520   3 ;    C16-   C15-   C14-   C13
 13243  13242  13245  13246      9     0.00   0.62760   3 ;    H6R-   C16-   C15-   H5R
 13243  13242  13245  13247      9     0.00   0.62760   3 ;    H6R-   C16-   C15-   H5S
 13243  13242  13245  13248      9     0.00   0.66944   3 ;    H6R-   C16-   C15-   C14
 13244  13242  13245  13246      9     0.00   0.62760   3 ;    H6S-   C16-   C15-   H5R
 13244  13242  13245  13247      9     0.00   0.62760   3 ;    H6S-   C16-   C15-   H5S
 13244  13242  13245  13248      9     0.00   0.66944   3 ;    H6S-   C16-   C15-   C14
 13245  13248  13251  13252      9     0.00   0.66944   3 ;    C15-   C14-   C13-   H3R
 13245  13248  13251  13253      9     0.00   0.66944   3 ;    C15-   C14-   C13-   H3S
 13245  13248  13251  13254      9     0.00   0.41840   1 ;    C15-   C14-   C13-   C12
 13245  13248  13251  13254      9     0.00   0.41840   2 ;    C15-   C14-   C13-   C12
 13245  13248  13251  13254      9     0.00   0.41840   4 ;    C15-   C14-   C13-   C12
 13245  13248  13251  13254      9     0.00   0.41840   5 ;    C15-   C14-   C13-   C12
 13245  13248  13251  13254      9     0.00   1.25520   3 ;    C15-   C14-   C13-   C12
 13246  13245  13248  13249      9     0.00   0.62760   3 ;    H5R-   C15-   C14-   H4R
 13246  13245  13248  13250      9     0.00   0.62760   3 ;    H5R-   C15-   C14-   H4S
 13246  13245  13248  13251      9     0.00   0.66944   3 ;    H5R-   C15-   C14-   C13
 13247  13245  13248  13249      9     0.00   0.62760   3 ;    H5S-   C15-   C14-   H4R
 13247  13245  13248  13250      9     0.00   0.62760   3 ;    H5S-   C15-   C14-   H4S
 13247  13245  13248  13251      9     0.00   0.66944   3 ;    H5S-   C15-   C14-   C13
 13248  13251  13254  13255      9     0.00   0.66944   3 ;    C14-   C13-   C12-   H2R
 13248  13251  13254  13256      9     0.00   0.66944   3 ;    C14-   C13-   C12-   H2S
 13248  13251  13254  13257      9     0.00   0.65270   3 ;    C14-   C13-   C12-   C11
 13249  13248  13251  13252      9     0.00   0.62760   3 ;    H4R-   C14-   C13-   H3R
 13249  13248  13251  13253      9     0.00   0.62760   3 ;    H4R-   C14-   C13-   H3S
 13249  13248  13251  13254      9     0.00   0.66944   3 ;    H4R-   C14-   C13-   C12
 13250  13248  13251  13252      9     0.00   0.62760   3 ;    H4S-   C14-   C13-   H3R
 13250  13248  13251  13253      9     0.00   0.62760   3 ;    H4S-   C14-   C13-   H3S
 13250  13248  13251  13254      9     0.00   0.66944   3 ;    H4S-   C14-   C13-   C12
 13251  13254  13257  13258      9   180.00   0.00000   2 ;    C13-   C12-   C11-   O12
 13251  13254  13257  13259      9   180.00   0.00000   2 ;    C13-   C12-   C11-   O11
 13252  13251  13254  13255      9     0.00   0.62760   3 ;    H3R-   C13-   C12-   H2R
 13252  13251  13254  13256      9     0.00   0.62760   3 ;    H3R-   C13-   C12-   H2S
 13252  13251  13254  13257      9     0.00   0.65270   3 ;    H3R-   C13-   C12-   C11
 13253  13251  13254  13255      9     0.00   0.62760   3 ;    H3S-   C13-   C12-   H2R
 13253  13251  13254  13256      9     0.00   0.62760   3 ;    H3S-   C13-   C12-   H2S
 13253  13251  13254  13257      9     0.00   0.65270   3 ;    H3S-   C13-   C12-   C11
 13254  13257  13259  13260      9   180.00  11.29680   2 ;    C12-   C11-   O11-    C1
 13255  13254  13257  13258      9     0.00   3.34720   1 ;    H2R-   C12-   C11-   O12
 13255  13254  13257  13258      9   180.00   0.33472   3 ;    H2R-   C12-   C11-   O12
 13255  13254  13257  13259      9   180.00   0.00000   2 ;    H2R-   C12-   C11-   O11
 13256  13254  13257  13258      9     0.00   3.34720   1 ;    H2S-   C12-   C11-   O12
 13256  13254  13257  13258      9   180.00   0.33472   3 ;    H2S-   C12-   C11-   O12
 13256  13254  13257  13259      9   180.00   0.00000   2 ;    H2S-   C12-   C11-   O11
 13257  13259  13260  13261      9     0.00   1.60247   3 ;    C11-   O11-    C1-    HR
 13257  13259  13260  13262      9     0.00   1.60247   3 ;    C11-   O11-    C1-    HS
 13257  13259  13260  13263      9     0.00  -0.41840   1 ;    C11-   O11-    C1-    C2
 13258  13257  13259  13260      9   180.00   5.85760   1 ;    O12-   C11-   O11-    C1
 13258  13257  13259  13260      9   180.00  11.29680   2 ;    O12-   C11-   O11-    C1
 13259  13260  13263  13264      9     0.00   0.00000   0 ;    O11-    C1-    C2-    HX
 13259  13260  13263  13264      9     0.00   1.04600   1 ;    O11-    C1-    C2-    HX
 13259  13260  13263  13265      9     0.00   0.00000   0 ;    O11-    C1-    C2-    C3
 13259  13260  13263  13265      9     0.00   0.00000   0 ;    O11-    C1-    C2-    C3
 13259  13260  13263  13265      9     0.00   0.00000   0 ;    O11-    C1-    C2-    C3
 13259  13260  13263  13265      9     0.00   0.00000   0 ;    O11-    C1-    C2-    C3
 13259  13260  13263  13265      9     0.00   0.00000   0 ;    O11-    C1-    C2-    C3
 13259  13260  13263  13292      9     0.00   1.25520   2 ;    O11-    C1-    C2-   O21
 13259  13260  13263  13292      9     0.00   4.18400   3 ;    O11-    C1-    C2-   O21
 13259  13260  13263  13292      9   180.00  -0.41840   1 ;    O11-    C1-    C2-   O21
 13260  13263  13265  13266      9     0.00   0.65270   3 ;     C1-    C2-    C3-    HA
 13260  13263  13265  13267      9     0.00   0.65270   3 ;     C1-    C2-    C3-    HB
 13260  13263  13265  13268      9   180.00   3.34720   1 ;     C1-    C2-    C3-   O31
 13260  13263  13292  13293      9     0.00  -0.41840   1 ;     C1-    C2-   O21-   C21
 13261  13260  13263  13264      9     0.00   0.65270   3 ;     HR-    C1-    C2-    HX
 13261  13260  13263  13265      9     0.00   0.65270   3 ;     HR-    C1-    C2-    C3
 13261  13260  13263  13292      9     0.00   0.00000   0 ;     HR-    C1-    C2-   O21
 13261  13260  13263  13292      9     0.00   1.04600   1 ;     HR-    C1-    C2-   O21
 13262  13260  13263  13264      9     0.00   0.65270   3 ;     HS-    C1-    C2-    HX
 13262  13260  13263  13265      9     0.00   0.65270   3 ;     HS-    C1-    C2-    C3
 13262  13260  13263  13292      9     0.00   0.00000   0 ;     HS-    C1-    C2-   O21
 13262  13260  13263  13292      9     0.00   1.04600   1 ;     HS-    C1-    C2-   O21
 13263  13265  13268  13269      9     0.00   0.00000   0 ;     C2-    C3-   O31-   P31
 13263  13265  13268  13269      9   180.00  -3.34720   2 ;     C2-    C3-   O31-   P31
 13263  13292  13293  13294      9   180.00   5.85760   1 ;     C2-   O21-   C21-   O22
 13263  13292  13293  13294      9   180.00  11.29680   2 ;     C2-   O21-   C21-   O22
 13263  13292  13293  13332      9   180.00  11.29680   2 ;     C2-   O21-   C21-   C12
 13264  13263  13265  13266      9     0.00   0.65270   3 ;     HX-    C2-    C3-    HA
 13264  13263  13265  13267      9     0.00   0.65270   3 ;     HX-    C2-    C3-    HB
 13264  13263  13265  13268      9     0.00   0.00000   0 ;     HX-    C2-    C3-   O31
 13264  13263  13265  13268      9     0.00   1.04600   1 ;     HX-    C2-    C3-   O31
 13264  13263  13292  13293      9     0.00   1.60247   3 ;     HX-    C2-   O21-   C21
 13265  13263  13292  13293      9     0.00  -0.41840   1 ;     C3-    C2-   O21-   C21
 13265  13268  13269  13270      9     0.00   2.51040   3 ;     C3-   O31-   P31-   O32
 13265  13268  13269  13270      9     0.00   9.62320   2 ;     C3-   O31-   P31-   O32
 13265  13268  13269  13290      9     0.00   0.00000   0 ;     C3-   O31-   P31-   O33
 13265  13268  13269  13290      9     0.00   0.00000   0 ;     C3-   O31-   P31-   O33
 13265  13268  13269  13290      9     0.00   0.00000   0 ;     C3-   O31-   P31-   O33
 13265  13268  13269  13290      9     0.00   0.00000   0 ;     C3-   O31-   P31-   O33
 13265  13268  13269  13290      9     0.00   0.83680   2 ;     C3-   O31-   P31-   O33
 13265  13268  13269  13291      9     0.00   0.00000   0 ;     C3-   O31-   P31-   O34
 13265  13268  13269  13291      9     0.00   0.00000   0 ;     C3-   O31-   P31-   O34
 13265  13268  13269  13291      9     0.00   0.00000   0 ;     C3-   O31-   P31-   O34
 13265  13268  13269  13291      9     0.00   0.00000   0 ;     C3-   O31-   P31-   O34
 13265  13268  13269  13291      9     0.00   0.83680   2 ;     C3-   O31-   P31-   O34
 13266  13265  13263  13292      9     0.00   0.00000   0 ;     HA-    C3-    C2-   O21
 13266  13265  13263  13292      9     0.00   1.04600   1 ;     HA-    C3-    C2-   O21
 13266  13265  13268  13269      9     0.00   0.00000   0 ;     HA-    C3-   O31-   P31
 13266  13265  13268  13269      9     0.00   0.00000   0 ;     HA-    C3-   O31-   P31
 13266  13265  13268  13269      9     0.00   0.00000   0 ;     HA-    C3-   O31-   P31
 13266  13265  13268  13269      9     0.00   0.00000   0 ;     HA-    C3-   O31-   P31
 13266  13265  13268  13269      9     0.00   1.60247   3 ;     HA-    C3-   O31-   P31
 13267  13265  13263  13292      9     0.00   0.00000   0 ;     HB-    C3-    C2-   O21
 13267  13265  13263  13292      9     0.00   1.04600   1 ;     HB-    C3-    C2-   O21
 13267  13265  13268  13269      9     0.00   0.00000   0 ;     HB-    C3-   O31-   P31
 13267  13265  13268  13269      9     0.00   0.00000   0 ;     HB-    C3-   O31-   P31
 13267  13265  13268  13269      9     0.00   0.00000   0 ;     HB-    C3-   O31-   P31
 13267  13265  13268  13269      9     0.00   0.00000   0 ;     HB-    C3-   O31-   P31
 13267  13265  13268  13269      9     0.00   1.60247   3 ;     HB-    C3-   O31-   P31
 13268  13265  13263  13292      9     0.00   0.00000   0 ;    O31-    C3-    C2-   O21
 13268  13265  13263  13292      9     0.00   0.00000   0 ;    O31-    C3-    C2-   O21
 13268  13265  13263  13292      9     0.00   0.00000   0 ;    O31-    C3-    C2-   O21
 13268  13265  13263  13292      9     0.00   0.00000   0 ;    O31-    C3-    C2-   O21
 13268  13265  13263  13292      9     0.00   0.00000   0 ;    O31-    C3-    C2-   O21
 13268  13269  13270  13271      9     0.00   2.51040   3 ;    O31-   P31-   O32-   C31
 13268  13269  13270  13271      9     0.00   9.62320   2 ;    O31-   P31-   O32-   C31
 13269  13270  13271  13272      9     0.00   0.00000   0 ;    P31-   O32-   C31-   H1A
 13269  13270  13271  13272      9     0.00   0.00000   0 ;    P31-   O32-   C31-   H1A
 13269  13270  13271  13272      9     0.00   0.00000   0 ;    P31-   O32-   C31-   H1A
 13269  13270  13271  13272      9     0.00   0.00000   0 ;    P31-   O32-   C31-   H1A
 13269  13270  13271  13272      9     0.00   1.60247   3 ;    P31-   O32-   C31-   H1A
 13269  13270  13271  13273      9     0.00   0.00000   0 ;    P31-   O32-   C31-   H1B
 13269  13270  13271  13273      9     0.00   0.00000   0 ;    P31-   O32-   C31-   H1B
 13269  13270  13271  13273      9     0.00   0.00000   0 ;    P31-   O32-   C31-   H1B
 13269  13270  13271  13273      9     0.00   0.00000   0 ;    P31-   O32-   C31-   H1B
 13269  13270  13271  13273      9     0.00   1.60247   3 ;    P31-   O32-   C31-   H1B
 13269  13270  13271  13274      9     0.00   0.00000   0 ;    P31-   O32-   C31-   C32
 13269  13270  13271  13274      9   180.00  -3.34720   2 ;    P31-   O32-   C31-   C32
 13270  13271  13274  13275      9     0.00   0.65270   3 ;    O32-   C31-   C32-   H2A
 13270  13271  13274  13276      9     0.00   0.65270   3 ;    O32-   C31-   C32-   H2B
 13270  13271  13274  13277      9     0.00   4.18400   3 ;    O32-   C31-   C32-   N31
 13271  13270  13269  13290      9     0.00   0.00000   0 ;    C31-   O32-   P31-   O33
 13271  13270  13269  13290      9     0.00   0.00000   0 ;    C31-   O32-   P31-   O33
 13271  13270  13269  13290      9     0.00   0.00000   0 ;    C31-   O32-   P31-   O33
 13271  13270  13269  13290      9     0.00   0.00000   0 ;    C31-   O32-   P31-   O33
 13271  13270  13269  13290      9     0.00   0.83680   2 ;    C31-   O32-   P31-   O33
 13271  13270  13269  13291      9     0.00   0.00000   0 ;    C31-   O32-   P31-   O34
 13271  13270  13269  13291      9     0.00   0.00000   0 ;    C31-   O32-   P31-   O34
 13271  13270  13269  13291      9     0.00   0.00000   0 ;    C31-   O32-   P31-   O34
 13271  13270  13269  13291      9     0.00   0.00000   0 ;    C31-   O32-   P31-   O34
 13271  13270  13269  13291      9     0.00   0.83680   2 ;    C31-   O32-   P31-   O34
 13271  13274  13277  13278      9     0.00   0.65270   3 ;    C31-   C32-   N31-   C33
 13271  13274  13277  13282      9     0.00   0.65270   3 ;    C31-   C32-   N31-   C34
 13271  13274  13277  13286      9     0.00   0.65270   3 ;    C31-   C32-   N31-   C35
 13272  13271  13274  13275      9     0.00   0.65270   3 ;    H1A-   C31-   C32-   H2A
 13272  13271  13274  13276      9     0.00   0.65270   3 ;    H1A-   C31-   C32-   H2B
 13272  13271  13274  13277      9     0.00   0.65270   3 ;    H1A-   C31-   C32-   N31
 13273  13271  13274  13275      9     0.00   0.65270   3 ;    H1B-   C31-   C32-   H2A
 13273  13271  13274  13276      9     0.00   0.65270   3 ;    H1B-   C31-   C32-   H2B
 13273  13271  13274  13277      9     0.00   0.65270   3 ;    H1B-   C31-   C32-   N31
 13274  13277  13278  13279      9     0.00   0.65270   3 ;    C32-   N31-   C33-   H3A
 13274  13277  13278  13280      9     0.00   0.65270   3 ;    C32-   N31-   C33-   H3B
 13274  13277  13278  13281      9     0.00   0.65270   3 ;    C32-   N31-   C33-   H3C
 13274  13277  13282  13283      9     0.00   0.65270   3 ;    C32-   N31-   C34-   H4A
 13274  13277  13282  13284      9     0.00   0.65270   3 ;    C32-   N31-   C34-   H4B
 13274  13277  13282  13285      9     0.00   0.65270   3 ;    C32-   N31-   C34-   H4C
 13274  13277  13286  13287      9     0.00   0.65270   3 ;    C32-   N31-   C35-   H5A
 13274  13277  13286  13288      9     0.00   0.65270   3 ;    C32-   N31-   C35-   H5B
 13274  13277  13286  13289      9     0.00   0.65270   3 ;    C32-   N31-   C35-   H5C
 13275  13274  13277  13278      9     0.00   0.65270   3 ;    H2A-   C32-   N31-   C33
 13275  13274  13277  13282      9     0.00   0.65270   3 ;    H2A-   C32-   N31-   C34
 13275  13274  13277  13286      9     0.00   0.65270   3 ;    H2A-   C32-   N31-   C35
 13276  13274  13277  13278      9     0.00   0.65270   3 ;    H2B-   C32-   N31-   C33
 13276  13274  13277  13282      9     0.00   0.65270   3 ;    H2B-   C32-   N31-   C34
 13276  13274  13277  13286      9     0.00   0.65270   3 ;    H2B-   C32-   N31-   C35
 13278  13277  13282  13283      9     0.00   0.65270   3 ;    C33-   N31-   C34-   H4A
 13278  13277  13282  13284      9     0.00   0.65270   3 ;    C33-   N31-   C34-   H4B
 13278  13277  13282  13285      9     0.00   0.65270   3 ;    C33-   N31-   C34-   H4C
 13278  13277  13286  13287      9     0.00   0.65270   3 ;    C33-   N31-   C35-   H5A
 13278  13277  13286  13288      9     0.00   0.65270   3 ;    C33-   N31-   C35-   H5B
 13278  13277  13286  13289      9     0.00   0.65270   3 ;    C33-   N31-   C35-   H5C
 13279  13278  13277  13282      9     0.00   0.65270   3 ;    H3A-   C33-   N31-   C34
 13279  13278  13277  13286      9     0.00   0.65270   3 ;    H3A-   C33-   N31-   C35
 13280  13278  13277  13282      9     0.00   0.65270   3 ;    H3B-   C33-   N31-   C34
 13280  13278  13277  13286      9     0.00   0.65270   3 ;    H3B-   C33-   N31-   C35
 13281  13278  13277  13282      9     0.00   0.65270   3 ;    H3C-   C33-   N31-   C34
 13281  13278  13277  13286      9     0.00   0.65270   3 ;    H3C-   C33-   N31-   C35
 13282  13277  13286  13287      9     0.00   0.65270   3 ;    C34-   N31-   C35-   H5A
 13282  13277  13286  13288      9     0.00   0.65270   3 ;    C34-   N31-   C35-   H5B
 13282  13277  13286  13289      9     0.00   0.65270   3 ;    C34-   N31-   C35-   H5C
 13283  13282  13277  13286      9     0.00   0.65270   3 ;    H4A-   C34-   N31-   C35
 13284  13282  13277  13286      9     0.00   0.65270   3 ;    H4B-   C34-   N31-   C35
 13285  13282  13277  13286      9     0.00   0.65270   3 ;    H4C-   C34-   N31-   C35
 13292  13293  13332  13329      9   180.00   0.00000   2 ;    O21-   C21-   C12-   C13
 13292  13293  13332  13333      9   180.00   0.00000   2 ;    O21-   C21-   C12-   H2R
 13292  13293  13332  13334      9   180.00   0.00000   2 ;    O21-   C21-   C12-   H2S
 13293  13332  13329  13326      9     0.00   0.65270   3 ;    C21-   C12-   C13-   C14
 13293  13332  13329  13330      9     0.00   0.65270   3 ;    C21-   C12-   C13-   H3R
 13293  13332  13329  13331      9     0.00   0.65270   3 ;    C21-   C12-   C13-   H3S
 13294  13293  13332  13329      9   180.00   0.00000   2 ;    O22-   C21-   C12-   C13
 13294  13293  13332  13333      9     0.00   3.34720   1 ;    O22-   C21-   C12-   H2R
 13294  13293  13332  13333      9   180.00   0.33472   3 ;    O22-   C21-   C12-   H2R
 13294  13293  13332  13334      9     0.00   3.34720   1 ;    O22-   C21-   C12-   H2S
 13294  13293  13332  13334      9   180.00   0.33472   3 ;    O22-   C21-   C12-   H2S
 13295  13296  13299  13300      9     0.00   0.62760   3 ;   H14T-  C114-  C113-  H13R
 13295  13296  13299  13301      9     0.00   0.62760   3 ;   H14T-  C114-  C113-  H13S
 13295  13296  13299  13302      9     0.00   0.66944   3 ;   H14T-  C114-  C113-  C112
 13296  13299  13302  13303      9     0.00   0.66944   3 ;   C114-  C113-  C112-  H12R
 13296  13299  13302  13304      9     0.00   0.66944   3 ;   C114-  C113-  C112-  H12S
 13296  13299  13302  13305      9     0.00   0.41840   1 ;   C114-  C113-  C112-  C111
 13296  13299  13302  13305      9     0.00   0.41840   2 ;   C114-  C113-  C112-  C111
 13296  13299  13302  13305      9     0.00   0.41840   4 ;   C114-  C113-  C112-  C111
 13296  13299  13302  13305      9     0.00   0.41840   5 ;   C114-  C113-  C112-  C111
 13296  13299  13302  13305      9     0.00   1.25520   3 ;   C114-  C113-  C112-  C111
 13297  13296  13299  13300      9     0.00   0.62760   3 ;   H14R-  C114-  C113-  H13R
 13297  13296  13299  13301      9     0.00   0.62760   3 ;   H14R-  C114-  C113-  H13S
 13297  13296  13299  13302      9     0.00   0.66944   3 ;   H14R-  C114-  C113-  C112
 13298  13296  13299  13300      9     0.00   0.62760   3 ;   H14S-  C114-  C113-  H13R
 13298  13296  13299  13301      9     0.00   0.62760   3 ;   H14S-  C114-  C113-  H13S
 13298  13296  13299  13302      9     0.00   0.66944   3 ;   H14S-  C114-  C113-  C112
 13299  13302  13305  13306      9     0.00   0.66944   3 ;   C113-  C112-  C111-  H11R
 13299  13302  13305  13307      9     0.00   0.66944   3 ;   C113-  C112-  C111-  H11S
 13299  13302  13305  13308      9     0.00   0.41840   1 ;   C113-  C112-  C111-  C110
 13299  13302  13305  13308      9     0.00   0.41840   2 ;   C113-  C112-  C111-  C110
 13299  13302  13305  13308      9     0.00   0.41840   4 ;   C113-  C112-  C111-  C110
 13299  13302  13305  13308      9     0.00   0.41840   5 ;   C113-  C112-  C111-  C110
 13299  13302  13305  13308      9     0.00   1.25520   3 ;   C113-  C112-  C111-  C110
 13300  13299  13302  13303      9     0.00   0.62760   3 ;   H13R-  C113-  C112-  H12R
 13300  13299  13302  13304      9     0.00   0.62760   3 ;   H13R-  C113-  C112-  H12S
 13300  13299  13302  13305      9     0.00   0.66944   3 ;   H13R-  C113-  C112-  C111
 13301  13299  13302  13303      9     0.00   0.62760   3 ;   H13S-  C113-  C112-  H12R
 13301  13299  13302  13304      9     0.00   0.62760   3 ;   H13S-  C113-  C112-  H12S
 13301  13299  13302  13305      9     0.00   0.66944   3 ;   H13S-  C113-  C112-  C111
 13302  13305  13308  13309      9     0.00   0.66944   3 ;   C112-  C111-  C110-  H10R
 13302  13305  13308  13310      9     0.00   0.66944   3 ;   C112-  C111-  C110-  H10S
 13302  13305  13308  13311      9     0.00   0.41840   1 ;   C112-  C111-  C110-   C19
 13302  13305  13308  13311      9     0.00   0.41840   2 ;   C112-  C111-  C110-   C19
 13302  13305  13308  13311      9     0.00   0.41840   4 ;   C112-  C111-  C110-   C19
 13302  13305  13308  13311      9     0.00   0.41840   5 ;   C112-  C111-  C110-   C19
 13302  13305  13308  13311      9     0.00   1.25520   3 ;   C112-  C111-  C110-   C19
 13303  13302  13305  13306      9     0.00   0.62760   3 ;   H12R-  C112-  C111-  H11R
 13303  13302  13305  13307      9     0.00   0.62760   3 ;   H12R-  C112-  C111-  H11S
 13303  13302  13305  13308      9     0.00   0.66944   3 ;   H12R-  C112-  C111-  C110
 13304  13302  13305  13306      9     0.00   0.62760   3 ;   H12S-  C112-  C111-  H11R
 13304  13302  13305  13307      9     0.00   0.62760   3 ;   H12S-  C112-  C111-  H11S
 13304  13302  13305  13308      9     0.00   0.66944   3 ;   H12S-  C112-  C111-  C110
 13305  13308  13311  13312      9     0.00   0.66944   3 ;   C111-  C110-   C19-   H9R
 13305  13308  13311  13313      9     0.00   0.66944   3 ;   C111-  C110-   C19-   H9S
 13305  13308  13311  13314      9     0.00   0.41840   1 ;   C111-  C110-   C19-   C18
 13305  13308  13311  13314      9     0.00   0.41840   2 ;   C111-  C110-   C19-   C18
 13305  13308  13311  13314      9     0.00   0.41840   4 ;   C111-  C110-   C19-   C18
 13305  13308  13311  13314      9     0.00   0.41840   5 ;   C111-  C110-   C19-   C18
 13305  13308  13311  13314      9     0.00   1.25520   3 ;   C111-  C110-   C19-   C18
 13306  13305  13308  13309      9     0.00   0.62760   3 ;   H11R-  C111-  C110-  H10R
 13306  13305  13308  13310      9     0.00   0.62760   3 ;   H11R-  C111-  C110-  H10S
 13306  13305  13308  13311      9     0.00   0.66944   3 ;   H11R-  C111-  C110-   C19
 13307  13305  13308  13309      9     0.00   0.62760   3 ;   H11S-  C111-  C110-  H10R
 13307  13305  13308  13310      9     0.00   0.62760   3 ;   H11S-  C111-  C110-  H10S
 13307  13305  13308  13311      9     0.00   0.66944   3 ;   H11S-  C111-  C110-   C19
 13308  13311  13314  13315      9     0.00   0.66944   3 ;   C110-   C19-   C18-   H8R
 13308  13311  13314  13316      9     0.00   0.66944   3 ;   C110-   C19-   C18-   H8S
 13308  13311  13314  13317      9     0.00   0.41840   1 ;   C110-   C19-   C18-   C17
 13308  13311  13314  13317      9     0.00   0.41840   2 ;   C110-   C19-   C18-   C17
 13308  13311  13314  13317      9     0.00   0.41840   4 ;   C110-   C19-   C18-   C17
 13308  13311  13314  13317      9     0.00   0.41840   5 ;   C110-   C19-   C18-   C17
 13308  13311  13314  13317      9     0.00   1.25520   3 ;   C110-   C19-   C18-   C17
 13309  13308  13311  13312      9     0.00   0.62760   3 ;   H10R-  C110-   C19-   H9R
 13309  13308  13311  13313      9     0.00   0.62760   3 ;   H10R-  C110-   C19-   H9S
 13309  13308  13311  13314      9     0.00   0.66944   3 ;   H10R-  C110-   C19-   C18
 13310  13308  13311  13312      9     0.00   0.62760   3 ;   H10S-  C110-   C19-   H9R
 13310  13308  13311  13313      9     0.00   0.62760   3 ;   H10S-  C110-   C19-   H9S
 13310  13308  13311  13314      9     0.00   0.66944   3 ;   H10S-  C110-   C19-   C18
 13311  13314  13317  13318      9     0.00   0.66944   3 ;    C19-   C18-   C17-   H7R
 13311  13314  13317  13319      9     0.00   0.66944   3 ;    C19-   C18-   C17-   H7S
 13311  13314  13317  13320      9     0.00   0.41840   1 ;    C19-   C18-   C17-   C16
 13311  13314  13317  13320      9     0.00   0.41840   2 ;    C19-   C18-   C17-   C16
 13311  13314  13317  13320      9     0.00   0.41840   4 ;    C19-   C18-   C17-   C16
 13311  13314  13317  13320      9     0.00   0.41840   5 ;    C19-   C18-   C17-   C16
 13311  13314  13317  13320      9     0.00   1.25520   3 ;    C19-   C18-   C17-   C16
 13312  13311  13314  13315      9     0.00   0.62760   3 ;    H9R-   C19-   C18-   H8R
 13312  13311  13314  13316      9     0.00   0.62760   3 ;    H9R-   C19-   C18-   H8S
 13312  13311  13314  13317      9     0.00   0.66944   3 ;    H9R-   C19-   C18-   C17
 13313  13311  13314  13315      9     0.00   0.62760   3 ;    H9S-   C19-   C18-   H8R
 13313  13311  13314  13316      9     0.00   0.62760   3 ;    H9S-   C19-   C18-   H8S
 13313  13311  13314  13317      9     0.00   0.66944   3 ;    H9S-   C19-   C18-   C17
 13314  13317  13320  13321      9     0.00   0.66944   3 ;    C18-   C17-   C16-   H6R
 13314  13317  13320  13322      9     0.00   0.66944   3 ;    C18-   C17-   C16-   H6S
 13314  13317  13320  13323      9     0.00   0.41840   1 ;    C18-   C17-   C16-   C15
 13314  13317  13320  13323      9     0.00   0.41840   2 ;    C18-   C17-   C16-   C15
 13314  13317  13320  13323      9     0.00   0.41840   4 ;    C18-   C17-   C16-   C15
 13314  13317  13320  13323      9     0.00   0.41840   5 ;    C18-   C17-   C16-   C15
 13314  13317  13320  13323      9     0.00   1.25520   3 ;    C18-   C17-   C16-   C15
 13315  13314  13317  13318      9     0.00   0.62760   3 ;    H8R-   C18-   C17-   H7R
 13315  13314  13317  13319      9     0.00   0.62760   3 ;    H8R-   C18-   C17-   H7S
 13315  13314  13317  13320      9     0.00   0.66944   3 ;    H8R-   C18-   C17-   C16
 13316  13314  13317  13318      9     0.00   0.62760   3 ;    H8S-   C18-   C17-   H7R
 13316  13314  13317  13319      9     0.00   0.62760   3 ;    H8S-   C18-   C17-   H7S
 13316  13314  13317  13320      9     0.00   0.66944   3 ;    H8S-   C18-   C17-   C16
 13317  13320  13323  13324      9     0.00   0.66944   3 ;    C17-   C16-   C15-   H5R
 13317  13320  13323  13325      9     0.00   0.66944   3 ;    C17-   C16-   C15-   H5S
 13317  13320  13323  13326      9     0.00   0.41840   1 ;    C17-   C16-   C15-   C14
 13317  13320  13323  13326      9     0.00   0.41840   2 ;    C17-   C16-   C15-   C14
 13317  13320  13323  13326      9     0.00   0.41840   4 ;    C17-   C16-   C15-   C14
 13317  13320  13323  13326      9     0.00   0.41840   5 ;    C17-   C16-   C15-   C14
 13317  13320  13323  13326      9     0.00   1.25520   3 ;    C17-   C16-   C15-   C14
 13318  13317  13320  13321      9     0.00   0.62760   3 ;    H7R-   C17-   C16-   H6R
 13318  13317  13320  13322      9     0.00   0.62760   3 ;    H7R-   C17-   C16-   H6S
 13318  13317  13320  13323      9     0.00   0.66944   3 ;    H7R-   C17-   C16-   C15
 13319  13317  13320  13321      9     0.00   0.62760   3 ;    H7S-   C17-   C16-   H6R
 13319  13317  13320  13322      9     0.00   0.62760   3 ;    H7S-   C17-   C16-   H6S
 13319  13317  13320  13323      9     0.00   0.66944   3 ;    H7S-   C17-   C16-   C15
 13320  13323  13326  13327      9     0.00   0.66944   3 ;    C16-   C15-   C14-   H4R
 13320  13323  13326  13328      9     0.00   0.66944   3 ;    C16-   C15-   C14-   H4S
 13320  13323  13326  13329      9     0.00   0.41840   1 ;    C16-   C15-   C14-   C13
 13320  13323  13326  13329      9     0.00   0.41840   2 ;    C16-   C15-   C14-   C13
 13320  13323  13326  13329      9     0.00   0.41840   4 ;    C16-   C15-   C14-   C13
 13320  13323  13326  13329      9     0.00   0.41840   5 ;    C16-   C15-   C14-   C13
 13320  13323  13326  13329      9     0.00   1.25520   3 ;    C16-   C15-   C14-   C13
 13321  13320  13323  13324      9     0.00   0.62760   3 ;    H6R-   C16-   C15-   H5R
 13321  13320  13323  13325      9     0.00   0.62760   3 ;    H6R-   C16-   C15-   H5S
 13321  13320  13323  13326      9     0.00   0.66944   3 ;    H6R-   C16-   C15-   C14
 13322  13320  13323  13324      9     0.00   0.62760   3 ;    H6S-   C16-   C15-   H5R
 13322  13320  13323  13325      9     0.00   0.62760   3 ;    H6S-   C16-   C15-   H5S
 13322  13320  13323  13326      9     0.00   0.66944   3 ;    H6S-   C16-   C15-   C14
 13323  13326  13329  13330      9     0.00   0.66944   3 ;    C15-   C14-   C13-   H3R
 13323  13326  13329  13331      9     0.00   0.66944   3 ;    C15-   C14-   C13-   H3S
 13323  13326  13329  13332      9     0.00   0.41840   1 ;    C15-   C14-   C13-   C12
 13323  13326  13329  13332      9     0.00   0.41840   2 ;    C15-   C14-   C13-   C12
 13323  13326  13329  13332      9     0.00   0.41840   4 ;    C15-   C14-   C13-   C12
 13323  13326  13329  13332      9     0.00   0.41840   5 ;    C15-   C14-   C13-   C12
 13323  13326  13329  13332      9     0.00   1.25520   3 ;    C15-   C14-   C13-   C12
 13324  13323  13326  13327      9     0.00   0.62760   3 ;    H5R-   C15-   C14-   H4R
 13324  13323  13326  13328      9     0.00   0.62760   3 ;    H5R-   C15-   C14-   H4S
 13324  13323  13326  13329      9     0.00   0.66944   3 ;    H5R-   C15-   C14-   C13
 13325  13323  13326  13327      9     0.00   0.62760   3 ;    H5S-   C15-   C14-   H4R
 13325  13323  13326  13328      9     0.00   0.62760   3 ;    H5S-   C15-   C14-   H4S
 13325  13323  13326  13329      9     0.00   0.66944   3 ;    H5S-   C15-   C14-   C13
 13326  13329  13332  13333      9     0.00   0.66944   3 ;    C14-   C13-   C12-   H2R
 13326  13329  13332  13334      9     0.00   0.66944   3 ;    C14-   C13-   C12-   H2S
 13327  13326  13329  13330      9     0.00   0.62760   3 ;    H4R-   C14-   C13-   H3R
 13327  13326  13329  13331      9     0.00   0.62760   3 ;    H4R-   C14-   C13-   H3S
 13327  13326  13329  13332      9     0.00   0.66944   3 ;    H4R-   C14-   C13-   C12
 13328  13326  13329  13330      9     0.00   0.62760   3 ;    H4S-   C14-   C13-   H3R
 13328  13326  13329  13331      9     0.00   0.62760   3 ;    H4S-   C14-   C13-   H3S
 13328  13326  13329  13332      9     0.00   0.66944   3 ;    H4S-   C14-   C13-   C12
 13330  13329  13332  13333      9     0.00   0.62760   3 ;    H3R-   C13-   C12-   H2R
 13330  13329  13332  13334      9     0.00   0.62760   3 ;    H3R-   C13-   C12-   H2S
 13331  13329  13332  13333      9     0.00   0.62760   3 ;    H3S-   C13-   C12-   H2R
 13331  13329  13332  13334      9     0.00   0.62760   3 ;    H3S-   C13-   C12-   H2S
 13335  13336  13339  13340      9     0.00   0.62760   3 ;   H14T-  C114-  C113-  H13R
 13335  13336  13339  13341      9     0.00   0.62760   3 ;   H14T-  C114-  C113-  H13S
 13335  13336  13339  13342      9     0.00   0.66944   3 ;   H14T-  C114-  C113-  C112
 13336  13339  13342  13343      9     0.00   0.66944   3 ;   C114-  C113-  C112-  H12R
 13336  13339  13342  13344      9     0.00   0.66944   3 ;   C114-  C113-  C112-  H12S
 13336  13339  13342  13345      9     0.00   0.41840   1 ;   C114-  C113-  C112-  C111
 13336  13339  13342  13345      9     0.00   0.41840   2 ;   C114-  C113-  C112-  C111
 13336  13339  13342  13345      9     0.00   0.41840   4 ;   C114-  C113-  C112-  C111
 13336  13339  13342  13345      9     0.00   0.41840   5 ;   C114-  C113-  C112-  C111
 13336  13339  13342  13345      9     0.00   1.25520   3 ;   C114-  C113-  C112-  C111
 13337  13336  13339  13340      9     0.00   0.62760   3 ;   H14R-  C114-  C113-  H13R
 13337  13336  13339  13341      9     0.00   0.62760   3 ;   H14R-  C114-  C113-  H13S
 13337  13336  13339  13342      9     0.00   0.66944   3 ;   H14R-  C114-  C113-  C112
 13338  13336  13339  13340      9     0.00   0.62760   3 ;   H14S-  C114-  C113-  H13R
 13338  13336  13339  13341      9     0.00   0.62760   3 ;   H14S-  C114-  C113-  H13S
 13338  13336  13339  13342      9     0.00   0.66944   3 ;   H14S-  C114-  C113-  C112
 13339  13342  13345  13346      9     0.00   0.66944   3 ;   C113-  C112-  C111-  H11R
 13339  13342  13345  13347      9     0.00   0.66944   3 ;   C113-  C112-  C111-  H11S
 13339  13342  13345  13348      9     0.00   0.41840   1 ;   C113-  C112-  C111-  C110
 13339  13342  13345  13348      9     0.00   0.41840   2 ;   C113-  C112-  C111-  C110
 13339  13342  13345  13348      9     0.00   0.41840   4 ;   C113-  C112-  C111-  C110
 13339  13342  13345  13348      9     0.00   0.41840   5 ;   C113-  C112-  C111-  C110
 13339  13342  13345  13348      9     0.00   1.25520   3 ;   C113-  C112-  C111-  C110
 13340  13339  13342  13343      9     0.00   0.62760   3 ;   H13R-  C113-  C112-  H12R
 13340  13339  13342  13344      9     0.00   0.62760   3 ;   H13R-  C113-  C112-  H12S
 13340  13339  13342  13345      9     0.00   0.66944   3 ;   H13R-  C113-  C112-  C111
 13341  13339  13342  13343      9     0.00   0.62760   3 ;   H13S-  C113-  C112-  H12R
 13341  13339  13342  13344      9     0.00   0.62760   3 ;   H13S-  C113-  C112-  H12S
 13341  13339  13342  13345      9     0.00   0.66944   3 ;   H13S-  C113-  C112-  C111
 13342  13345  13348  13349      9     0.00   0.66944   3 ;   C112-  C111-  C110-  H10R
 13342  13345  13348  13350      9     0.00   0.66944   3 ;   C112-  C111-  C110-  H10S
 13342  13345  13348  13351      9     0.00   0.41840   1 ;   C112-  C111-  C110-   C19
 13342  13345  13348  13351      9     0.00   0.41840   2 ;   C112-  C111-  C110-   C19
 13342  13345  13348  13351      9     0.00   0.41840   4 ;   C112-  C111-  C110-   C19
 13342  13345  13348  13351      9     0.00   0.41840   5 ;   C112-  C111-  C110-   C19
 13342  13345  13348  13351      9     0.00   1.25520   3 ;   C112-  C111-  C110-   C19
 13343  13342  13345  13346      9     0.00   0.62760   3 ;   H12R-  C112-  C111-  H11R
 13343  13342  13345  13347      9     0.00   0.62760   3 ;   H12R-  C112-  C111-  H11S
 13343  13342  13345  13348      9     0.00   0.66944   3 ;   H12R-  C112-  C111-  C110
 13344  13342  13345  13346      9     0.00   0.62760   3 ;   H12S-  C112-  C111-  H11R
 13344  13342  13345  13347      9     0.00   0.62760   3 ;   H12S-  C112-  C111-  H11S
 13344  13342  13345  13348      9     0.00   0.66944   3 ;   H12S-  C112-  C111-  C110
 13345  13348  13351  13352      9     0.00   0.66944   3 ;   C111-  C110-   C19-   H9R
 13345  13348  13351  13353      9     0.00   0.66944   3 ;   C111-  C110-   C19-   H9S
 13345  13348  13351  13354      9     0.00   0.41840   1 ;   C111-  C110-   C19-   C18
 13345  13348  13351  13354      9     0.00   0.41840   2 ;   C111-  C110-   C19-   C18
 13345  13348  13351  13354      9     0.00   0.41840   4 ;   C111-  C110-   C19-   C18
 13345  13348  13351  13354      9     0.00   0.41840   5 ;   C111-  C110-   C19-   C18
 13345  13348  13351  13354      9     0.00   1.25520   3 ;   C111-  C110-   C19-   C18
 13346  13345  13348  13349      9     0.00   0.62760   3 ;   H11R-  C111-  C110-  H10R
 13346  13345  13348  13350      9     0.00   0.62760   3 ;   H11R-  C111-  C110-  H10S
 13346  13345  13348  13351      9     0.00   0.66944   3 ;   H11R-  C111-  C110-   C19
 13347  13345  13348  13349      9     0.00   0.62760   3 ;   H11S-  C111-  C110-  H10R
 13347  13345  13348  13350      9     0.00   0.62760   3 ;   H11S-  C111-  C110-  H10S
 13347  13345  13348  13351      9     0.00   0.66944   3 ;   H11S-  C111-  C110-   C19
 13348  13351  13354  13355      9     0.00   0.66944   3 ;   C110-   C19-   C18-   H8R
 13348  13351  13354  13356      9     0.00   0.66944   3 ;   C110-   C19-   C18-   H8S
 13348  13351  13354  13357      9     0.00   0.41840   1 ;   C110-   C19-   C18-   C17
 13348  13351  13354  13357      9     0.00   0.41840   2 ;   C110-   C19-   C18-   C17
 13348  13351  13354  13357      9     0.00   0.41840   4 ;   C110-   C19-   C18-   C17
 13348  13351  13354  13357      9     0.00   0.41840   5 ;   C110-   C19-   C18-   C17
 13348  13351  13354  13357      9     0.00   1.25520   3 ;   C110-   C19-   C18-   C17
 13349  13348  13351  13352      9     0.00   0.62760   3 ;   H10R-  C110-   C19-   H9R
 13349  13348  13351  13353      9     0.00   0.62760   3 ;   H10R-  C110-   C19-   H9S
 13349  13348  13351  13354      9     0.00   0.66944   3 ;   H10R-  C110-   C19-   C18
 13350  13348  13351  13352      9     0.00   0.62760   3 ;   H10S-  C110-   C19-   H9R
 13350  13348  13351  13353      9     0.00   0.62760   3 ;   H10S-  C110-   C19-   H9S
 13350  13348  13351  13354      9     0.00   0.66944   3 ;   H10S-  C110-   C19-   C18
 13351  13354  13357  13358      9     0.00   0.66944   3 ;    C19-   C18-   C17-   H7R
 13351  13354  13357  13359      9     0.00   0.66944   3 ;    C19-   C18-   C17-   H7S
 13351  13354  13357  13360      9     0.00   0.41840   1 ;    C19-   C18-   C17-   C16
 13351  13354  13357  13360      9     0.00   0.41840   2 ;    C19-   C18-   C17-   C16
 13351  13354  13357  13360      9     0.00   0.41840   4 ;    C19-   C18-   C17-   C16
 13351  13354  13357  13360      9     0.00   0.41840   5 ;    C19-   C18-   C17-   C16
 13351  13354  13357  13360      9     0.00   1.25520   3 ;    C19-   C18-   C17-   C16
 13352  13351  13354  13355      9     0.00   0.62760   3 ;    H9R-   C19-   C18-   H8R
 13352  13351  13354  13356      9     0.00   0.62760   3 ;    H9R-   C19-   C18-   H8S
 13352  13351  13354  13357      9     0.00   0.66944   3 ;    H9R-   C19-   C18-   C17
 13353  13351  13354  13355      9     0.00   0.62760   3 ;    H9S-   C19-   C18-   H8R
 13353  13351  13354  13356      9     0.00   0.62760   3 ;    H9S-   C19-   C18-   H8S
 13353  13351  13354  13357      9     0.00   0.66944   3 ;    H9S-   C19-   C18-   C17
 13354  13357  13360  13361      9     0.00   0.66944   3 ;    C18-   C17-   C16-   H6R
 13354  13357  13360  13362      9     0.00   0.66944   3 ;    C18-   C17-   C16-   H6S
 13354  13357  13360  13363      9     0.00   0.41840   1 ;    C18-   C17-   C16-   C15
 13354  13357  13360  13363      9     0.00   0.41840   2 ;    C18-   C17-   C16-   C15
 13354  13357  13360  13363      9     0.00   0.41840   4 ;    C18-   C17-   C16-   C15
 13354  13357  13360  13363      9     0.00   0.41840   5 ;    C18-   C17-   C16-   C15
 13354  13357  13360  13363      9     0.00   1.25520   3 ;    C18-   C17-   C16-   C15
 13355  13354  13357  13358      9     0.00   0.62760   3 ;    H8R-   C18-   C17-   H7R
 13355  13354  13357  13359      9     0.00   0.62760   3 ;    H8R-   C18-   C17-   H7S
 13355  13354  13357  13360      9     0.00   0.66944   3 ;    H8R-   C18-   C17-   C16
 13356  13354  13357  13358      9     0.00   0.62760   3 ;    H8S-   C18-   C17-   H7R
 13356  13354  13357  13359      9     0.00   0.62760   3 ;    H8S-   C18-   C17-   H7S
 13356  13354  13357  13360      9     0.00   0.66944   3 ;    H8S-   C18-   C17-   C16
 13357  13360  13363  13364      9     0.00   0.66944   3 ;    C17-   C16-   C15-   H5R
 13357  13360  13363  13365      9     0.00   0.66944   3 ;    C17-   C16-   C15-   H5S
 13357  13360  13363  13366      9     0.00   0.41840   1 ;    C17-   C16-   C15-   C14
 13357  13360  13363  13366      9     0.00   0.41840   2 ;    C17-   C16-   C15-   C14
 13357  13360  13363  13366      9     0.00   0.41840   4 ;    C17-   C16-   C15-   C14
 13357  13360  13363  13366      9     0.00   0.41840   5 ;    C17-   C16-   C15-   C14
 13357  13360  13363  13366      9     0.00   1.25520   3 ;    C17-   C16-   C15-   C14
 13358  13357  13360  13361      9     0.00   0.62760   3 ;    H7R-   C17-   C16-   H6R
 13358  13357  13360  13362      9     0.00   0.62760   3 ;    H7R-   C17-   C16-   H6S
 13358  13357  13360  13363      9     0.00   0.66944   3 ;    H7R-   C17-   C16-   C15
 13359  13357  13360  13361      9     0.00   0.62760   3 ;    H7S-   C17-   C16-   H6R
 13359  13357  13360  13362      9     0.00   0.62760   3 ;    H7S-   C17-   C16-   H6S
 13359  13357  13360  13363      9     0.00   0.66944   3 ;    H7S-   C17-   C16-   C15
 13360  13363  13366  13367      9     0.00   0.66944   3 ;    C16-   C15-   C14-   H4R
 13360  13363  13366  13368      9     0.00   0.66944   3 ;    C16-   C15-   C14-   H4S
 13360  13363  13366  13369      9     0.00   0.41840   1 ;    C16-   C15-   C14-   C13
 13360  13363  13366  13369      9     0.00   0.41840   2 ;    C16-   C15-   C14-   C13
 13360  13363  13366  13369      9     0.00   0.41840   4 ;    C16-   C15-   C14-   C13
 13360  13363  13366  13369      9     0.00   0.41840   5 ;    C16-   C15-   C14-   C13
 13360  13363  13366  13369      9     0.00   1.25520   3 ;    C16-   C15-   C14-   C13
 13361  13360  13363  13364      9     0.00   0.62760   3 ;    H6R-   C16-   C15-   H5R
 13361  13360  13363  13365      9     0.00   0.62760   3 ;    H6R-   C16-   C15-   H5S
 13361  13360  13363  13366      9     0.00   0.66944   3 ;    H6R-   C16-   C15-   C14
 13362  13360  13363  13364      9     0.00   0.62760   3 ;    H6S-   C16-   C15-   H5R
 13362  13360  13363  13365      9     0.00   0.62760   3 ;    H6S-   C16-   C15-   H5S
 13362  13360  13363  13366      9     0.00   0.66944   3 ;    H6S-   C16-   C15-   C14
 13363  13366  13369  13370      9     0.00   0.66944   3 ;    C15-   C14-   C13-   H3R
 13363  13366  13369  13371      9     0.00   0.66944   3 ;    C15-   C14-   C13-   H3S
 13363  13366  13369  13372      9     0.00   0.41840   1 ;    C15-   C14-   C13-   C12
 13363  13366  13369  13372      9     0.00   0.41840   2 ;    C15-   C14-   C13-   C12
 13363  13366  13369  13372      9     0.00   0.41840   4 ;    C15-   C14-   C13-   C12
 13363  13366  13369  13372      9     0.00   0.41840   5 ;    C15-   C14-   C13-   C12
 13363  13366  13369  13372      9     0.00   1.25520   3 ;    C15-   C14-   C13-   C12
 13364  13363  13366  13367      9     0.00   0.62760   3 ;    H5R-   C15-   C14-   H4R
 13364  13363  13366  13368      9     0.00   0.62760   3 ;    H5R-   C15-   C14-   H4S
 13364  13363  13366  13369      9     0.00   0.66944   3 ;    H5R-   C15-   C14-   C13
 13365  13363  13366  13367      9     0.00   0.62760   3 ;    H5S-   C15-   C14-   H4R
 13365  13363  13366  13368      9     0.00   0.62760   3 ;    H5S-   C15-   C14-   H4S
 13365  13363  13366  13369      9     0.00   0.66944   3 ;    H5S-   C15-   C14-   C13
 13366  13369  13372  13373      9     0.00   0.66944   3 ;    C14-   C13-   C12-   H2R
 13366  13369  13372  13374      9     0.00   0.66944   3 ;    C14-   C13-   C12-   H2S
 13366  13369  13372  13375      9     0.00   0.65270   3 ;    C14-   C13-   C12-   C11
 13367  13366  13369  13370      9     0.00   0.62760   3 ;    H4R-   C14-   C13-   H3R
 13367  13366  13369  13371      9     0.00   0.62760   3 ;    H4R-   C14-   C13-   H3S
 13367  13366  13369  13372      9     0.00   0.66944   3 ;    H4R-   C14-   C13-   C12
 13368  13366  13369  13370      9     0.00   0.62760   3 ;    H4S-   C14-   C13-   H3R
 13368  13366  13369  13371      9     0.00   0.62760   3 ;    H4S-   C14-   C13-   H3S
 13368  13366  13369  13372      9     0.00   0.66944   3 ;    H4S-   C14-   C13-   C12
 13369  13372  13375  13376      9   180.00   0.00000   2 ;    C13-   C12-   C11-   O12
 13369  13372  13375  13377      9   180.00   0.00000   2 ;    C13-   C12-   C11-   O11
 13370  13369  13372  13373      9     0.00   0.62760   3 ;    H3R-   C13-   C12-   H2R
 13370  13369  13372  13374      9     0.00   0.62760   3 ;    H3R-   C13-   C12-   H2S
 13370  13369  13372  13375      9     0.00   0.65270   3 ;    H3R-   C13-   C12-   C11
 13371  13369  13372  13373      9     0.00   0.62760   3 ;    H3S-   C13-   C12-   H2R
 13371  13369  13372  13374      9     0.00   0.62760   3 ;    H3S-   C13-   C12-   H2S
 13371  13369  13372  13375      9     0.00   0.65270   3 ;    H3S-   C13-   C12-   C11
 13372  13375  13377  13378      9   180.00  11.29680   2 ;    C12-   C11-   O11-    C1
 13373  13372  13375  13376      9     0.00   3.34720   1 ;    H2R-   C12-   C11-   O12
 13373  13372  13375  13376      9   180.00   0.33472   3 ;    H2R-   C12-   C11-   O12
 13373  13372  13375  13377      9   180.00   0.00000   2 ;    H2R-   C12-   C11-   O11
 13374  13372  13375  13376      9     0.00   3.34720   1 ;    H2S-   C12-   C11-   O12
 13374  13372  13375  13376      9   180.00   0.33472   3 ;    H2S-   C12-   C11-   O12
 13374  13372  13375  13377      9   180.00   0.00000   2 ;    H2S-   C12-   C11-   O11
 13375  13377  13378  13379      9     0.00   1.60247   3 ;    C11-   O11-    C1-    HR
 13375  13377  13378  13380      9     0.00   1.60247   3 ;    C11-   O11-    C1-    HS
 13375  13377  13378  13381      9     0.00  -0.41840   1 ;    C11-   O11-    C1-    C2
 13376  13375  13377  13378      9   180.00   5.85760   1 ;    O12-   C11-   O11-    C1
 13376  13375  13377  13378      9   180.00  11.29680   2 ;    O12-   C11-   O11-    C1
 13377  13378  13381  13382      9     0.00   0.00000   0 ;    O11-    C1-    C2-    HX
 13377  13378  13381  13382      9     0.00   1.04600   1 ;    O11-    C1-    C2-    HX
 13377  13378  13381  13383      9     0.00   0.00000   0 ;    O11-    C1-    C2-    C3
 13377  13378  13381  13383      9     0.00   0.00000   0 ;    O11-    C1-    C2-    C3
 13377  13378  13381  13383      9     0.00   0.00000   0 ;    O11-    C1-    C2-    C3
 13377  13378  13381  13383      9     0.00   0.00000   0 ;    O11-    C1-    C2-    C3
 13377  13378  13381  13383      9     0.00   0.00000   0 ;    O11-    C1-    C2-    C3
 13377  13378  13381  13410      9     0.00   1.25520   2 ;    O11-    C1-    C2-   O21
 13377  13378  13381  13410      9     0.00   4.18400   3 ;    O11-    C1-    C2-   O21
 13377  13378  13381  13410      9   180.00  -0.41840   1 ;    O11-    C1-    C2-   O21
 13378  13381  13383  13384      9     0.00   0.65270   3 ;     C1-    C2-    C3-    HA
 13378  13381  13383  13385      9     0.00   0.65270   3 ;     C1-    C2-    C3-    HB
 13378  13381  13383  13386      9   180.00   3.34720   1 ;     C1-    C2-    C3-   O31
 13378  13381  13410  13411      9     0.00  -0.41840   1 ;     C1-    C2-   O21-   C21
 13379  13378  13381  13382      9     0.00   0.65270   3 ;     HR-    C1-    C2-    HX
 13379  13378  13381  13383      9     0.00   0.65270   3 ;     HR-    C1-    C2-    C3
 13379  13378  13381  13410      9     0.00   0.00000   0 ;     HR-    C1-    C2-   O21
 13379  13378  13381  13410      9     0.00   1.04600   1 ;     HR-    C1-    C2-   O21
 13380  13378  13381  13382      9     0.00   0.65270   3 ;     HS-    C1-    C2-    HX
 13380  13378  13381  13383      9     0.00   0.65270   3 ;     HS-    C1-    C2-    C3
 13380  13378  13381  13410      9     0.00   0.00000   0 ;     HS-    C1-    C2-   O21
 13380  13378  13381  13410      9     0.00   1.04600   1 ;     HS-    C1-    C2-   O21
 13381  13383  13386  13387      9     0.00   0.00000   0 ;     C2-    C3-   O31-   P31
 13381  13383  13386  13387      9   180.00  -3.34720   2 ;     C2-    C3-   O31-   P31
 13381  13410  13411  13412      9   180.00   5.85760   1 ;     C2-   O21-   C21-   O22
 13381  13410  13411  13412      9   180.00  11.29680   2 ;     C2-   O21-   C21-   O22
 13381  13410  13411  13450      9   180.00  11.29680   2 ;     C2-   O21-   C21-   C12
 13382  13381  13383  13384      9     0.00   0.65270   3 ;     HX-    C2-    C3-    HA
 13382  13381  13383  13385      9     0.00   0.65270   3 ;     HX-    C2-    C3-    HB
 13382  13381  13383  13386      9     0.00   0.00000   0 ;     HX-    C2-    C3-   O31
 13382  13381  13383  13386      9     0.00   1.04600   1 ;     HX-    C2-    C3-   O31
 13382  13381  13410  13411      9     0.00   1.60247   3 ;     HX-    C2-   O21-   C21
 13383  13381  13410  13411      9     0.00  -0.41840   1 ;     C3-    C2-   O21-   C21
 13383  13386  13387  13388      9     0.00   2.51040   3 ;     C3-   O31-   P31-   O32
 13383  13386  13387  13388      9     0.00   9.62320   2 ;     C3-   O31-   P31-   O32
 13383  13386  13387  13408      9     0.00   0.00000   0 ;     C3-   O31-   P31-   O33
 13383  13386  13387  13408      9     0.00   0.00000   0 ;     C3-   O31-   P31-   O33
 13383  13386  13387  13408      9     0.00   0.00000   0 ;     C3-   O31-   P31-   O33
 13383  13386  13387  13408      9     0.00   0.00000   0 ;     C3-   O31-   P31-   O33
 13383  13386  13387  13408      9     0.00   0.83680   2 ;     C3-   O31-   P31-   O33
 13383  13386  13387  13409      9     0.00   0.00000   0 ;     C3-   O31-   P31-   O34
 13383  13386  13387  13409      9     0.00   0.00000   0 ;     C3-   O31-   P31-   O34
 13383  13386  13387  13409      9     0.00   0.00000   0 ;     C3-   O31-   P31-   O34
 13383  13386  13387  13409      9     0.00   0.00000   0 ;     C3-   O31-   P31-   O34
 13383  13386  13387  13409      9     0.00   0.83680   2 ;     C3-   O31-   P31-   O34
 13384  13383  13381  13410      9     0.00   0.00000   0 ;     HA-    C3-    C2-   O21
 13384  13383  13381  13410      9     0.00   1.04600   1 ;     HA-    C3-    C2-   O21
 13384  13383  13386  13387      9     0.00   0.00000   0 ;     HA-    C3-   O31-   P31
 13384  13383  13386  13387      9     0.00   0.00000   0 ;     HA-    C3-   O31-   P31
 13384  13383  13386  13387      9     0.00   0.00000   0 ;     HA-    C3-   O31-   P31
 13384  13383  13386  13387      9     0.00   0.00000   0 ;     HA-    C3-   O31-   P31
 13384  13383  13386  13387      9     0.00   1.60247   3 ;     HA-    C3-   O31-   P31
 13385  13383  13381  13410      9     0.00   0.00000   0 ;     HB-    C3-    C2-   O21
 13385  13383  13381  13410      9     0.00   1.04600   1 ;     HB-    C3-    C2-   O21
 13385  13383  13386  13387      9     0.00   0.00000   0 ;     HB-    C3-   O31-   P31
 13385  13383  13386  13387      9     0.00   0.00000   0 ;     HB-    C3-   O31-   P31
 13385  13383  13386  13387      9     0.00   0.00000   0 ;     HB-    C3-   O31-   P31
 13385  13383  13386  13387      9     0.00   0.00000   0 ;     HB-    C3-   O31-   P31
 13385  13383  13386  13387      9     0.00   1.60247   3 ;     HB-    C3-   O31-   P31
 13386  13383  13381  13410      9     0.00   0.00000   0 ;    O31-    C3-    C2-   O21
 13386  13383  13381  13410      9     0.00   0.00000   0 ;    O31-    C3-    C2-   O21
 13386  13383  13381  13410      9     0.00   0.00000   0 ;    O31-    C3-    C2-   O21
 13386  13383  13381  13410      9     0.00   0.00000   0 ;    O31-    C3-    C2-   O21
 13386  13383  13381  13410      9     0.00   0.00000   0 ;    O31-    C3-    C2-   O21
 13386  13387  13388  13389      9     0.00   2.51040   3 ;    O31-   P31-   O32-   C31
 13386  13387  13388  13389      9     0.00   9.62320   2 ;    O31-   P31-   O32-   C31
 13387  13388  13389  13390      9     0.00   0.00000   0 ;    P31-   O32-   C31-   H1A
 13387  13388  13389  13390      9     0.00   0.00000   0 ;    P31-   O32-   C31-   H1A
 13387  13388  13389  13390      9     0.00   0.00000   0 ;    P31-   O32-   C31-   H1A
 13387  13388  13389  13390      9     0.00   0.00000   0 ;    P31-   O32-   C31-   H1A
 13387  13388  13389  13390      9     0.00   1.60247   3 ;    P31-   O32-   C31-   H1A
 13387  13388  13389  13391      9     0.00   0.00000   0 ;    P31-   O32-   C31-   H1B
 13387  13388  13389  13391      9     0.00   0.00000   0 ;    P31-   O32-   C31-   H1B
 13387  13388  13389  13391      9     0.00   0.00000   0 ;    P31-   O32-   C31-   H1B
 13387  13388  13389  13391      9     0.00   0.00000   0 ;    P31-   O32-   C31-   H1B
 13387  13388  13389  13391      9     0.00   1.60247   3 ;    P31-   O32-   C31-   H1B
 13387  13388  13389  13392      9     0.00   0.00000   0 ;    P31-   O32-   C31-   C32
 13387  13388  13389  13392      9   180.00  -3.34720   2 ;    P31-   O32-   C31-   C32
 13388  13389  13392  13393      9     0.00   0.65270   3 ;    O32-   C31-   C32-   H2A
 13388  13389  13392  13394      9     0.00   0.65270   3 ;    O32-   C31-   C32-   H2B
 13388  13389  13392  13395      9     0.00   4.18400   3 ;    O32-   C31-   C32-   N31
 13389  13388  13387  13408      9     0.00   0.00000   0 ;    C31-   O32-   P31-   O33
 13389  13388  13387  13408      9     0.00   0.00000   0 ;    C31-   O32-   P31-   O33
 13389  13388  13387  13408      9     0.00   0.00000   0 ;    C31-   O32-   P31-   O33
 13389  13388  13387  13408      9     0.00   0.00000   0 ;    C31-   O32-   P31-   O33
 13389  13388  13387  13408      9     0.00   0.83680   2 ;    C31-   O32-   P31-   O33
 13389  13388  13387  13409      9     0.00   0.00000   0 ;    C31-   O32-   P31-   O34
 13389  13388  13387  13409      9     0.00   0.00000   0 ;    C31-   O32-   P31-   O34
 13389  13388  13387  13409      9     0.00   0.00000   0 ;    C31-   O32-   P31-   O34
 13389  13388  13387  13409      9     0.00   0.00000   0 ;    C31-   O32-   P31-   O34
 13389  13388  13387  13409      9     0.00   0.83680   2 ;    C31-   O32-   P31-   O34
 13389  13392  13395  13396      9     0.00   0.65270   3 ;    C31-   C32-   N31-   C33
 13389  13392  13395  13400      9     0.00   0.65270   3 ;    C31-   C32-   N31-   C34
 13389  13392  13395  13404      9     0.00   0.65270   3 ;    C31-   C32-   N31-   C35
 13390  13389  13392  13393      9     0.00   0.65270   3 ;    H1A-   C31-   C32-   H2A
 13390  13389  13392  13394      9     0.00   0.65270   3 ;    H1A-   C31-   C32-   H2B
 13390  13389  13392  13395      9     0.00   0.65270   3 ;    H1A-   C31-   C32-   N31
 13391  13389  13392  13393      9     0.00   0.65270   3 ;    H1B-   C31-   C32-   H2A
 13391  13389  13392  13394      9     0.00   0.65270   3 ;    H1B-   C31-   C32-   H2B
 13391  13389  13392  13395      9     0.00   0.65270   3 ;    H1B-   C31-   C32-   N31
 13392  13395  13396  13397      9     0.00   0.65270   3 ;    C32-   N31-   C33-   H3A
 13392  13395  13396  13398      9     0.00   0.65270   3 ;    C32-   N31-   C33-   H3B
 13392  13395  13396  13399      9     0.00   0.65270   3 ;    C32-   N31-   C33-   H3C
 13392  13395  13400  13401      9     0.00   0.65270   3 ;    C32-   N31-   C34-   H4A
 13392  13395  13400  13402      9     0.00   0.65270   3 ;    C32-   N31-   C34-   H4B
 13392  13395  13400  13403      9     0.00   0.65270   3 ;    C32-   N31-   C34-   H4C
 13392  13395  13404  13405      9     0.00   0.65270   3 ;    C32-   N31-   C35-   H5A
 13392  13395  13404  13406      9     0.00   0.65270   3 ;    C32-   N31-   C35-   H5B
 13392  13395  13404  13407      9     0.00   0.65270   3 ;    C32-   N31-   C35-   H5C
 13393  13392  13395  13396      9     0.00   0.65270   3 ;    H2A-   C32-   N31-   C33
 13393  13392  13395  13400      9     0.00   0.65270   3 ;    H2A-   C32-   N31-   C34
 13393  13392  13395  13404      9     0.00   0.65270   3 ;    H2A-   C32-   N31-   C35
 13394  13392  13395  13396      9     0.00   0.65270   3 ;    H2B-   C32-   N31-   C33
 13394  13392  13395  13400      9     0.00   0.65270   3 ;    H2B-   C32-   N31-   C34
 13394  13392  13395  13404      9     0.00   0.65270   3 ;    H2B-   C32-   N31-   C35
 13396  13395  13400  13401      9     0.00   0.65270   3 ;    C33-   N31-   C34-   H4A
 13396  13395  13400  13402      9     0.00   0.65270   3 ;    C33-   N31-   C34-   H4B
 13396  13395  13400  13403      9     0.00   0.65270   3 ;    C33-   N31-   C34-   H4C
 13396  13395  13404  13405      9     0.00   0.65270   3 ;    C33-   N31-   C35-   H5A
 13396  13395  13404  13406      9     0.00   0.65270   3 ;    C33-   N31-   C35-   H5B
 13396  13395  13404  13407      9     0.00   0.65270   3 ;    C33-   N31-   C35-   H5C
 13397  13396  13395  13400      9     0.00   0.65270   3 ;    H3A-   C33-   N31-   C34
 13397  13396  13395  13404      9     0.00   0.65270   3 ;    H3A-   C33-   N31-   C35
 13398  13396  13395  13400      9     0.00   0.65270   3 ;    H3B-   C33-   N31-   C34
 13398  13396  13395  13404      9     0.00   0.65270   3 ;    H3B-   C33-   N31-   C35
 13399  13396  13395  13400      9     0.00   0.65270   3 ;    H3C-   C33-   N31-   C34
 13399  13396  13395  13404      9     0.00   0.65270   3 ;    H3C-   C33-   N31-   C35
 13400  13395  13404  13405      9     0.00   0.65270   3 ;    C34-   N31-   C35-   H5A
 13400  13395  13404  13406      9     0.00   0.65270   3 ;    C34-   N31-   C35-   H5B
 13400  13395  13404  13407      9     0.00   0.65270   3 ;    C34-   N31-   C35-   H5C
 13401  13400  13395  13404      9     0.00   0.65270   3 ;    H4A-   C34-   N31-   C35
 13402  13400  13395  13404      9     0.00   0.65270   3 ;    H4B-   C34-   N31-   C35
 13403  13400  13395  13404      9     0.00   0.65270   3 ;    H4C-   C34-   N31-   C35
 13410  13411  13450  13447      9   180.00   0.00000   2 ;    O21-   C21-   C12-   C13
 13410  13411  13450  13451      9   180.00   0.00000   2 ;    O21-   C21-   C12-   H2R
 13410  13411  13450  13452      9   180.00   0.00000   2 ;    O21-   C21-   C12-   H2S
 13411  13450  13447  13444      9     0.00   0.65270   3 ;    C21-   C12-   C13-   C14
 13411  13450  13447  13448      9     0.00   0.65270   3 ;    C21-   C12-   C13-   H3R
 13411  13450  13447  13449      9     0.00   0.65270   3 ;    C21-   C12-   C13-   H3S
 13412  13411  13450  13447      9   180.00   0.00000   2 ;    O22-   C21-   C12-   C13
 13412  13411  13450  13451      9     0.00   3.34720   1 ;    O22-   C21-   C12-   H2R
 13412  13411  13450  13451      9   180.00   0.33472   3 ;    O22-   C21-   C12-   H2R
 13412  13411  13450  13452      9     0.00   3.34720   1 ;    O22-   C21-   C12-   H2S
 13412  13411  13450  13452      9   180.00   0.33472   3 ;    O22-   C21-   C12-   H2S
 13413  13414  13417  13418      9     0.00   0.62760   3 ;   H14T-  C114-  C113-  H13R
 13413  13414  13417  13419      9     0.00   0.62760   3 ;   H14T-  C114-  C113-  H13S
 13413  13414  13417  13420      9     0.00   0.66944   3 ;   H14T-  C114-  C113-  C112
 13414  13417  13420  13421      9     0.00   0.66944   3 ;   C114-  C113-  C112-  H12R
 13414  13417  13420  13422      9     0.00   0.66944   3 ;   C114-  C113-  C112-  H12S
 13414  13417  13420  13423      9     0.00   0.41840   1 ;   C114-  C113-  C112-  C111
 13414  13417  13420  13423      9     0.00   0.41840   2 ;   C114-  C113-  C112-  C111
 13414  13417  13420  13423      9     0.00   0.41840   4 ;   C114-  C113-  C112-  C111
 13414  13417  13420  13423      9     0.00   0.41840   5 ;   C114-  C113-  C112-  C111
 13414  13417  13420  13423      9     0.00   1.25520   3 ;   C114-  C113-  C112-  C111
 13415  13414  13417  13418      9     0.00   0.62760   3 ;   H14R-  C114-  C113-  H13R
 13415  13414  13417  13419      9     0.00   0.62760   3 ;   H14R-  C114-  C113-  H13S
 13415  13414  13417  13420      9     0.00   0.66944   3 ;   H14R-  C114-  C113-  C112
 13416  13414  13417  13418      9     0.00   0.62760   3 ;   H14S-  C114-  C113-  H13R
 13416  13414  13417  13419      9     0.00   0.62760   3 ;   H14S-  C114-  C113-  H13S
 13416  13414  13417  13420      9     0.00   0.66944   3 ;   H14S-  C114-  C113-  C112
 13417  13420  13423  13424      9     0.00   0.66944   3 ;   C113-  C112-  C111-  H11R
 13417  13420  13423  13425      9     0.00   0.66944   3 ;   C113-  C112-  C111-  H11S
 13417  13420  13423  13426      9     0.00   0.41840   1 ;   C113-  C112-  C111-  C110
 13417  13420  13423  13426      9     0.00   0.41840   2 ;   C113-  C112-  C111-  C110
 13417  13420  13423  13426      9     0.00   0.41840   4 ;   C113-  C112-  C111-  C110
 13417  13420  13423  13426      9     0.00   0.41840   5 ;   C113-  C112-  C111-  C110
 13417  13420  13423  13426      9     0.00   1.25520   3 ;   C113-  C112-  C111-  C110
 13418  13417  13420  13421      9     0.00   0.62760   3 ;   H13R-  C113-  C112-  H12R
 13418  13417  13420  13422      9     0.00   0.62760   3 ;   H13R-  C113-  C112-  H12S
 13418  13417  13420  13423      9     0.00   0.66944   3 ;   H13R-  C113-  C112-  C111
 13419  13417  13420  13421      9     0.00   0.62760   3 ;   H13S-  C113-  C112-  H12R
 13419  13417  13420  13422      9     0.00   0.62760   3 ;   H13S-  C113-  C112-  H12S
 13419  13417  13420  13423      9     0.00   0.66944   3 ;   H13S-  C113-  C112-  C111
 13420  13423  13426  13427      9     0.00   0.66944   3 ;   C112-  C111-  C110-  H10R
 13420  13423  13426  13428      9     0.00   0.66944   3 ;   C112-  C111-  C110-  H10S
 13420  13423  13426  13429      9     0.00   0.41840   1 ;   C112-  C111-  C110-   C19
 13420  13423  13426  13429      9     0.00   0.41840   2 ;   C112-  C111-  C110-   C19
 13420  13423  13426  13429      9     0.00   0.41840   4 ;   C112-  C111-  C110-   C19
 13420  13423  13426  13429      9     0.00   0.41840   5 ;   C112-  C111-  C110-   C19
 13420  13423  13426  13429      9     0.00   1.25520   3 ;   C112-  C111-  C110-   C19
 13421  13420  13423  13424      9     0.00   0.62760   3 ;   H12R-  C112-  C111-  H11R
 13421  13420  13423  13425      9     0.00   0.62760   3 ;   H12R-  C112-  C111-  H11S
 13421  13420  13423  13426      9     0.00   0.66944   3 ;   H12R-  C112-  C111-  C110
 13422  13420  13423  13424      9     0.00   0.62760   3 ;   H12S-  C112-  C111-  H11R
 13422  13420  13423  13425      9     0.00   0.62760   3 ;   H12S-  C112-  C111-  H11S
 13422  13420  13423  13426      9     0.00   0.66944   3 ;   H12S-  C112-  C111-  C110
 13423  13426  13429  13430      9     0.00   0.66944   3 ;   C111-  C110-   C19-   H9R
 13423  13426  13429  13431      9     0.00   0.66944   3 ;   C111-  C110-   C19-   H9S
 13423  13426  13429  13432      9     0.00   0.41840   1 ;   C111-  C110-   C19-   C18
 13423  13426  13429  13432      9     0.00   0.41840   2 ;   C111-  C110-   C19-   C18
 13423  13426  13429  13432      9     0.00   0.41840   4 ;   C111-  C110-   C19-   C18
 13423  13426  13429  13432      9     0.00   0.41840   5 ;   C111-  C110-   C19-   C18
 13423  13426  13429  13432      9     0.00   1.25520   3 ;   C111-  C110-   C19-   C18
 13424  13423  13426  13427      9     0.00   0.62760   3 ;   H11R-  C111-  C110-  H10R
 13424  13423  13426  13428      9     0.00   0.62760   3 ;   H11R-  C111-  C110-  H10S
 13424  13423  13426  13429      9     0.00   0.66944   3 ;   H11R-  C111-  C110-   C19
 13425  13423  13426  13427      9     0.00   0.62760   3 ;   H11S-  C111-  C110-  H10R
 13425  13423  13426  13428      9     0.00   0.62760   3 ;   H11S-  C111-  C110-  H10S
 13425  13423  13426  13429      9     0.00   0.66944   3 ;   H11S-  C111-  C110-   C19
 13426  13429  13432  13433      9     0.00   0.66944   3 ;   C110-   C19-   C18-   H8R
 13426  13429  13432  13434      9     0.00   0.66944   3 ;   C110-   C19-   C18-   H8S
 13426  13429  13432  13435      9     0.00   0.41840   1 ;   C110-   C19-   C18-   C17
 13426  13429  13432  13435      9     0.00   0.41840   2 ;   C110-   C19-   C18-   C17
 13426  13429  13432  13435      9     0.00   0.41840   4 ;   C110-   C19-   C18-   C17
 13426  13429  13432  13435      9     0.00   0.41840   5 ;   C110-   C19-   C18-   C17
 13426  13429  13432  13435      9     0.00   1.25520   3 ;   C110-   C19-   C18-   C17
 13427  13426  13429  13430      9     0.00   0.62760   3 ;   H10R-  C110-   C19-   H9R
 13427  13426  13429  13431      9     0.00   0.62760   3 ;   H10R-  C110-   C19-   H9S
 13427  13426  13429  13432      9     0.00   0.66944   3 ;   H10R-  C110-   C19-   C18
 13428  13426  13429  13430      9     0.00   0.62760   3 ;   H10S-  C110-   C19-   H9R
 13428  13426  13429  13431      9     0.00   0.62760   3 ;   H10S-  C110-   C19-   H9S
 13428  13426  13429  13432      9     0.00   0.66944   3 ;   H10S-  C110-   C19-   C18
 13429  13432  13435  13436      9     0.00   0.66944   3 ;    C19-   C18-   C17-   H7R
 13429  13432  13435  13437      9     0.00   0.66944   3 ;    C19-   C18-   C17-   H7S
 13429  13432  13435  13438      9     0.00   0.41840   1 ;    C19-   C18-   C17-   C16
 13429  13432  13435  13438      9     0.00   0.41840   2 ;    C19-   C18-   C17-   C16
 13429  13432  13435  13438      9     0.00   0.41840   4 ;    C19-   C18-   C17-   C16
 13429  13432  13435  13438      9     0.00   0.41840   5 ;    C19-   C18-   C17-   C16
 13429  13432  13435  13438      9     0.00   1.25520   3 ;    C19-   C18-   C17-   C16
 13430  13429  13432  13433      9     0.00   0.62760   3 ;    H9R-   C19-   C18-   H8R
 13430  13429  13432  13434      9     0.00   0.62760   3 ;    H9R-   C19-   C18-   H8S
 13430  13429  13432  13435      9     0.00   0.66944   3 ;    H9R-   C19-   C18-   C17
 13431  13429  13432  13433      9     0.00   0.62760   3 ;    H9S-   C19-   C18-   H8R
 13431  13429  13432  13434      9     0.00   0.62760   3 ;    H9S-   C19-   C18-   H8S
 13431  13429  13432  13435      9     0.00   0.66944   3 ;    H9S-   C19-   C18-   C17
 13432  13435  13438  13439      9     0.00   0.66944   3 ;    C18-   C17-   C16-   H6R
 13432  13435  13438  13440      9     0.00   0.66944   3 ;    C18-   C17-   C16-   H6S
 13432  13435  13438  13441      9     0.00   0.41840   1 ;    C18-   C17-   C16-   C15
 13432  13435  13438  13441      9     0.00   0.41840   2 ;    C18-   C17-   C16-   C15
 13432  13435  13438  13441      9     0.00   0.41840   4 ;    C18-   C17-   C16-   C15
 13432  13435  13438  13441      9     0.00   0.41840   5 ;    C18-   C17-   C16-   C15
 13432  13435  13438  13441      9     0.00   1.25520   3 ;    C18-   C17-   C16-   C15
 13433  13432  13435  13436      9     0.00   0.62760   3 ;    H8R-   C18-   C17-   H7R
 13433  13432  13435  13437      9     0.00   0.62760   3 ;    H8R-   C18-   C17-   H7S
 13433  13432  13435  13438      9     0.00   0.66944   3 ;    H8R-   C18-   C17-   C16
 13434  13432  13435  13436      9     0.00   0.62760   3 ;    H8S-   C18-   C17-   H7R
 13434  13432  13435  13437      9     0.00   0.62760   3 ;    H8S-   C18-   C17-   H7S
 13434  13432  13435  13438      9     0.00   0.66944   3 ;    H8S-   C18-   C17-   C16
 13435  13438  13441  13442      9     0.00   0.66944   3 ;    C17-   C16-   C15-   H5R
 13435  13438  13441  13443      9     0.00   0.66944   3 ;    C17-   C16-   C15-   H5S
 13435  13438  13441  13444      9     0.00   0.41840   1 ;    C17-   C16-   C15-   C14
 13435  13438  13441  13444      9     0.00   0.41840   2 ;    C17-   C16-   C15-   C14
 13435  13438  13441  13444      9     0.00   0.41840   4 ;    C17-   C16-   C15-   C14
 13435  13438  13441  13444      9     0.00   0.41840   5 ;    C17-   C16-   C15-   C14
 13435  13438  13441  13444      9     0.00   1.25520   3 ;    C17-   C16-   C15-   C14
 13436  13435  13438  13439      9     0.00   0.62760   3 ;    H7R-   C17-   C16-   H6R
 13436  13435  13438  13440      9     0.00   0.62760   3 ;    H7R-   C17-   C16-   H6S
 13436  13435  13438  13441      9     0.00   0.66944   3 ;    H7R-   C17-   C16-   C15
 13437  13435  13438  13439      9     0.00   0.62760   3 ;    H7S-   C17-   C16-   H6R
 13437  13435  13438  13440      9     0.00   0.62760   3 ;    H7S-   C17-   C16-   H6S
 13437  13435  13438  13441      9     0.00   0.66944   3 ;    H7S-   C17-   C16-   C15
 13438  13441  13444  13445      9     0.00   0.66944   3 ;    C16-   C15-   C14-   H4R
 13438  13441  13444  13446      9     0.00   0.66944   3 ;    C16-   C15-   C14-   H4S
 13438  13441  13444  13447      9     0.00   0.41840   1 ;    C16-   C15-   C14-   C13
 13438  13441  13444  13447      9     0.00   0.41840   2 ;    C16-   C15-   C14-   C13
 13438  13441  13444  13447      9     0.00   0.41840   4 ;    C16-   C15-   C14-   C13
 13438  13441  13444  13447      9     0.00   0.41840   5 ;    C16-   C15-   C14-   C13
 13438  13441  13444  13447      9     0.00   1.25520   3 ;    C16-   C15-   C14-   C13
 13439  13438  13441  13442      9     0.00   0.62760   3 ;    H6R-   C16-   C15-   H5R
 13439  13438  13441  13443      9     0.00   0.62760   3 ;    H6R-   C16-   C15-   H5S
 13439  13438  13441  13444      9     0.00   0.66944   3 ;    H6R-   C16-   C15-   C14
 13440  13438  13441  13442      9     0.00   0.62760   3 ;    H6S-   C16-   C15-   H5R
 13440  13438  13441  13443      9     0.00   0.62760   3 ;    H6S-   C16-   C15-   H5S
 13440  13438  13441  13444      9     0.00   0.66944   3 ;    H6S-   C16-   C15-   C14
 13441  13444  13447  13448      9     0.00   0.66944   3 ;    C15-   C14-   C13-   H3R
 13441  13444  13447  13449      9     0.00   0.66944   3 ;    C15-   C14-   C13-   H3S
 13441  13444  13447  13450      9     0.00   0.41840   1 ;    C15-   C14-   C13-   C12
 13441  13444  13447  13450      9     0.00   0.41840   2 ;    C15-   C14-   C13-   C12
 13441  13444  13447  13450      9     0.00   0.41840   4 ;    C15-   C14-   C13-   C12
 13441  13444  13447  13450      9     0.00   0.41840   5 ;    C15-   C14-   C13-   C12
 13441  13444  13447  13450      9     0.00   1.25520   3 ;    C15-   C14-   C13-   C12
 13442  13441  13444  13445      9     0.00   0.62760   3 ;    H5R-   C15-   C14-   H4R
 13442  13441  13444  13446      9     0.00   0.62760   3 ;    H5R-   C15-   C14-   H4S
 13442  13441  13444  13447      9     0.00   0.66944   3 ;    H5R-   C15-   C14-   C13
 13443  13441  13444  13445      9     0.00   0.62760   3 ;    H5S-   C15-   C14-   H4R
 13443  13441  13444  13446      9     0.00   0.62760   3 ;    H5S-   C15-   C14-   H4S
 13443  13441  13444  13447      9     0.00   0.66944   3 ;    H5S-   C15-   C14-   C13
 13444  13447  13450  13451      9     0.00   0.66944   3 ;    C14-   C13-   C12-   H2R
 13444  13447  13450  13452      9     0.00   0.66944   3 ;    C14-   C13-   C12-   H2S
 13445  13444  13447  13448      9     0.00   0.62760   3 ;    H4R-   C14-   C13-   H3R
 13445  13444  13447  13449      9     0.00   0.62760   3 ;    H4R-   C14-   C13-   H3S
 13445  13444  13447  13450      9     0.00   0.66944   3 ;    H4R-   C14-   C13-   C12
 13446  13444  13447  13448      9     0.00   0.62760   3 ;    H4S-   C14-   C13-   H3R
 13446  13444  13447  13449      9     0.00   0.62760   3 ;    H4S-   C14-   C13-   H3S
 13446  13444  13447  13450      9     0.00   0.66944   3 ;    H4S-   C14-   C13-   C12
 13448  13447  13450  13451      9     0.00   0.62760   3 ;    H3R-   C13-   C12-   H2R
 13448  13447  13450  13452      9     0.00   0.62760   3 ;    H3R-   C13-   C12-   H2S
 13449  13447  13450  13451      9     0.00   0.62760   3 ;    H3S-   C13-   C12-   H2R
 13449  13447  13450  13452      9     0.00   0.62760   3 ;    H3S-   C13-   C12-   H2S
 13453  13454  13457  13458      9     0.00   0.62760   3 ;   H14T-  C114-  C113-  H13R
 13453  13454  13457  13459      9     0.00   0.62760   3 ;   H14T-  C114-  C113-  H13S
 13453  13454  13457  13460      9     0.00   0.66944   3 ;   H14T-  C114-  C113-  C112
 13454  13457  13460  13461      9     0.00   0.66944   3 ;   C114-  C113-  C112-  H12R
 13454  13457  13460  13462      9     0.00   0.66944   3 ;   C114-  C113-  C112-  H12S
 13454  13457  13460  13463      9     0.00   0.41840   1 ;   C114-  C113-  C112-  C111
 13454  13457  13460  13463      9     0.00   0.41840   2 ;   C114-  C113-  C112-  C111
 13454  13457  13460  13463      9     0.00   0.41840   4 ;   C114-  C113-  C112-  C111
 13454  13457  13460  13463      9     0.00   0.41840   5 ;   C114-  C113-  C112-  C111
 13454  13457  13460  13463      9     0.00   1.25520   3 ;   C114-  C113-  C112-  C111
 13455  13454  13457  13458      9     0.00   0.62760   3 ;   H14R-  C114-  C113-  H13R
 13455  13454  13457  13459      9     0.00   0.62760   3 ;   H14R-  C114-  C113-  H13S
 13455  13454  13457  13460      9     0.00   0.66944   3 ;   H14R-  C114-  C113-  C112
 13456  13454  13457  13458      9     0.00   0.62760   3 ;   H14S-  C114-  C113-  H13R
 13456  13454  13457  13459      9     0.00   0.62760   3 ;   H14S-  C114-  C113-  H13S
 13456  13454  13457  13460      9     0.00   0.66944   3 ;   H14S-  C114-  C113-  C112
 13457  13460  13463  13464      9     0.00   0.66944   3 ;   C113-  C112-  C111-  H11R
 13457  13460  13463  13465      9     0.00   0.66944   3 ;   C113-  C112-  C111-  H11S
 13457  13460  13463  13466      9     0.00   0.41840   1 ;   C113-  C112-  C111-  C110
 13457  13460  13463  13466      9     0.00   0.41840   2 ;   C113-  C112-  C111-  C110
 13457  13460  13463  13466      9     0.00   0.41840   4 ;   C113-  C112-  C111-  C110
 13457  13460  13463  13466      9     0.00   0.41840   5 ;   C113-  C112-  C111-  C110
 13457  13460  13463  13466      9     0.00   1.25520   3 ;   C113-  C112-  C111-  C110
 13458  13457  13460  13461      9     0.00   0.62760   3 ;   H13R-  C113-  C112-  H12R
 13458  13457  13460  13462      9     0.00   0.62760   3 ;   H13R-  C113-  C112-  H12S
 13458  13457  13460  13463      9     0.00   0.66944   3 ;   H13R-  C113-  C112-  C111
 13459  13457  13460  13461      9     0.00   0.62760   3 ;   H13S-  C113-  C112-  H12R
 13459  13457  13460  13462      9     0.00   0.62760   3 ;   H13S-  C113-  C112-  H12S
 13459  13457  13460  13463      9     0.00   0.66944   3 ;   H13S-  C113-  C112-  C111
 13460  13463  13466  13467      9     0.00   0.66944   3 ;   C112-  C111-  C110-  H10R
 13460  13463  13466  13468      9     0.00   0.66944   3 ;   C112-  C111-  C110-  H10S
 13460  13463  13466  13469      9     0.00   0.41840   1 ;   C112-  C111-  C110-   C19
 13460  13463  13466  13469      9     0.00   0.41840   2 ;   C112-  C111-  C110-   C19
 13460  13463  13466  13469      9     0.00   0.41840   4 ;   C112-  C111-  C110-   C19
 13460  13463  13466  13469      9     0.00   0.41840   5 ;   C112-  C111-  C110-   C19
 13460  13463  13466  13469      9     0.00   1.25520   3 ;   C112-  C111-  C110-   C19
 13461  13460  13463  13464      9     0.00   0.62760   3 ;   H12R-  C112-  C111-  H11R
 13461  13460  13463  13465      9     0.00   0.62760   3 ;   H12R-  C112-  C111-  H11S
 13461  13460  13463  13466      9     0.00   0.66944   3 ;   H12R-  C112-  C111-  C110
 13462  13460  13463  13464      9     0.00   0.62760   3 ;   H12S-  C112-  C111-  H11R
 13462  13460  13463  13465      9     0.00   0.62760   3 ;   H12S-  C112-  C111-  H11S
 13462  13460  13463  13466      9     0.00   0.66944   3 ;   H12S-  C112-  C111-  C110
 13463  13466  13469  13470      9     0.00   0.66944   3 ;   C111-  C110-   C19-   H9R
 13463  13466  13469  13471      9     0.00   0.66944   3 ;   C111-  C110-   C19-   H9S
 13463  13466  13469  13472      9     0.00   0.41840   1 ;   C111-  C110-   C19-   C18
 13463  13466  13469  13472      9     0.00   0.41840   2 ;   C111-  C110-   C19-   C18
 13463  13466  13469  13472      9     0.00   0.41840   4 ;   C111-  C110-   C19-   C18
 13463  13466  13469  13472      9     0.00   0.41840   5 ;   C111-  C110-   C19-   C18
 13463  13466  13469  13472      9     0.00   1.25520   3 ;   C111-  C110-   C19-   C18
 13464  13463  13466  13467      9     0.00   0.62760   3 ;   H11R-  C111-  C110-  H10R
 13464  13463  13466  13468      9     0.00   0.62760   3 ;   H11R-  C111-  C110-  H10S
 13464  13463  13466  13469      9     0.00   0.66944   3 ;   H11R-  C111-  C110-   C19
 13465  13463  13466  13467      9     0.00   0.62760   3 ;   H11S-  C111-  C110-  H10R
 13465  13463  13466  13468      9     0.00   0.62760   3 ;   H11S-  C111-  C110-  H10S
 13465  13463  13466  13469      9     0.00   0.66944   3 ;   H11S-  C111-  C110-   C19
 13466  13469  13472  13473      9     0.00   0.66944   3 ;   C110-   C19-   C18-   H8R
 13466  13469  13472  13474      9     0.00   0.66944   3 ;   C110-   C19-   C18-   H8S
 13466  13469  13472  13475      9     0.00   0.41840   1 ;   C110-   C19-   C18-   C17
 13466  13469  13472  13475      9     0.00   0.41840   2 ;   C110-   C19-   C18-   C17
 13466  13469  13472  13475      9     0.00   0.41840   4 ;   C110-   C19-   C18-   C17
 13466  13469  13472  13475      9     0.00   0.41840   5 ;   C110-   C19-   C18-   C17
 13466  13469  13472  13475      9     0.00   1.25520   3 ;   C110-   C19-   C18-   C17
 13467  13466  13469  13470      9     0.00   0.62760   3 ;   H10R-  C110-   C19-   H9R
 13467  13466  13469  13471      9     0.00   0.62760   3 ;   H10R-  C110-   C19-   H9S
 13467  13466  13469  13472      9     0.00   0.66944   3 ;   H10R-  C110-   C19-   C18
 13468  13466  13469  13470      9     0.00   0.62760   3 ;   H10S-  C110-   C19-   H9R
 13468  13466  13469  13471      9     0.00   0.62760   3 ;   H10S-  C110-   C19-   H9S
 13468  13466  13469  13472      9     0.00   0.66944   3 ;   H10S-  C110-   C19-   C18
 13469  13472  13475  13476      9     0.00   0.66944   3 ;    C19-   C18-   C17-   H7R
 13469  13472  13475  13477      9     0.00   0.66944   3 ;    C19-   C18-   C17-   H7S
 13469  13472  13475  13478      9     0.00   0.41840   1 ;    C19-   C18-   C17-   C16
 13469  13472  13475  13478      9     0.00   0.41840   2 ;    C19-   C18-   C17-   C16
 13469  13472  13475  13478      9     0.00   0.41840   4 ;    C19-   C18-   C17-   C16
 13469  13472  13475  13478      9     0.00   0.41840   5 ;    C19-   C18-   C17-   C16
 13469  13472  13475  13478      9     0.00   1.25520   3 ;    C19-   C18-   C17-   C16
 13470  13469  13472  13473      9     0.00   0.62760   3 ;    H9R-   C19-   C18-   H8R
 13470  13469  13472  13474      9     0.00   0.62760   3 ;    H9R-   C19-   C18-   H8S
 13470  13469  13472  13475      9     0.00   0.66944   3 ;    H9R-   C19-   C18-   C17
 13471  13469  13472  13473      9     0.00   0.62760   3 ;    H9S-   C19-   C18-   H8R
 13471  13469  13472  13474      9     0.00   0.62760   3 ;    H9S-   C19-   C18-   H8S
 13471  13469  13472  13475      9     0.00   0.66944   3 ;    H9S-   C19-   C18-   C17
 13472  13475  13478  13479      9     0.00   0.66944   3 ;    C18-   C17-   C16-   H6R
 13472  13475  13478  13480      9     0.00   0.66944   3 ;    C18-   C17-   C16-   H6S
 13472  13475  13478  13481      9     0.00   0.41840   1 ;    C18-   C17-   C16-   C15
 13472  13475  13478  13481      9     0.00   0.41840   2 ;    C18-   C17-   C16-   C15
 13472  13475  13478  13481      9     0.00   0.41840   4 ;    C18-   C17-   C16-   C15
 13472  13475  13478  13481      9     0.00   0.41840   5 ;    C18-   C17-   C16-   C15
 13472  13475  13478  13481      9     0.00   1.25520   3 ;    C18-   C17-   C16-   C15
 13473  13472  13475  13476      9     0.00   0.62760   3 ;    H8R-   C18-   C17-   H7R
 13473  13472  13475  13477      9     0.00   0.62760   3 ;    H8R-   C18-   C17-   H7S
 13473  13472  13475  13478      9     0.00   0.66944   3 ;    H8R-   C18-   C17-   C16
 13474  13472  13475  13476      9     0.00   0.62760   3 ;    H8S-   C18-   C17-   H7R
 13474  13472  13475  13477      9     0.00   0.62760   3 ;    H8S-   C18-   C17-   H7S
 13474  13472  13475  13478      9     0.00   0.66944   3 ;    H8S-   C18-   C17-   C16
 13475  13478  13481  13482      9     0.00   0.66944   3 ;    C17-   C16-   C15-   H5R
 13475  13478  13481  13483      9     0.00   0.66944   3 ;    C17-   C16-   C15-   H5S
 13475  13478  13481  13484      9     0.00   0.41840   1 ;    C17-   C16-   C15-   C14
 13475  13478  13481  13484      9     0.00   0.41840   2 ;    C17-   C16-   C15-   C14
 13475  13478  13481  13484      9     0.00   0.41840   4 ;    C17-   C16-   C15-   C14
 13475  13478  13481  13484      9     0.00   0.41840   5 ;    C17-   C16-   C15-   C14
 13475  13478  13481  13484      9     0.00   1.25520   3 ;    C17-   C16-   C15-   C14
 13476  13475  13478  13479      9     0.00   0.62760   3 ;    H7R-   C17-   C16-   H6R
 13476  13475  13478  13480      9     0.00   0.62760   3 ;    H7R-   C17-   C16-   H6S
 13476  13475  13478  13481      9     0.00   0.66944   3 ;    H7R-   C17-   C16-   C15
 13477  13475  13478  13479      9     0.00   0.62760   3 ;    H7S-   C17-   C16-   H6R
 13477  13475  13478  13480      9     0.00   0.62760   3 ;    H7S-   C17-   C16-   H6S
 13477  13475  13478  13481      9     0.00   0.66944   3 ;    H7S-   C17-   C16-   C15
 13478  13481  13484  13485      9     0.00   0.66944   3 ;    C16-   C15-   C14-   H4R
 13478  13481  13484  13486      9     0.00   0.66944   3 ;    C16-   C15-   C14-   H4S
 13478  13481  13484  13487      9     0.00   0.41840   1 ;    C16-   C15-   C14-   C13
 13478  13481  13484  13487      9     0.00   0.41840   2 ;    C16-   C15-   C14-   C13
 13478  13481  13484  13487      9     0.00   0.41840   4 ;    C16-   C15-   C14-   C13
 13478  13481  13484  13487      9     0.00   0.41840   5 ;    C16-   C15-   C14-   C13
 13478  13481  13484  13487      9     0.00   1.25520   3 ;    C16-   C15-   C14-   C13
 13479  13478  13481  13482      9     0.00   0.62760   3 ;    H6R-   C16-   C15-   H5R
 13479  13478  13481  13483      9     0.00   0.62760   3 ;    H6R-   C16-   C15-   H5S
 13479  13478  13481  13484      9     0.00   0.66944   3 ;    H6R-   C16-   C15-   C14
 13480  13478  13481  13482      9     0.00   0.62760   3 ;    H6S-   C16-   C15-   H5R
 13480  13478  13481  13483      9     0.00   0.62760   3 ;    H6S-   C16-   C15-   H5S
 13480  13478  13481  13484      9     0.00   0.66944   3 ;    H6S-   C16-   C15-   C14
 13481  13484  13487  13488      9     0.00   0.66944   3 ;    C15-   C14-   C13-   H3R
 13481  13484  13487  13489      9     0.00   0.66944   3 ;    C15-   C14-   C13-   H3S
 13481  13484  13487  13490      9     0.00   0.41840   1 ;    C15-   C14-   C13-   C12
 13481  13484  13487  13490      9     0.00   0.41840   2 ;    C15-   C14-   C13-   C12
 13481  13484  13487  13490      9     0.00   0.41840   4 ;    C15-   C14-   C13-   C12
 13481  13484  13487  13490      9     0.00   0.41840   5 ;    C15-   C14-   C13-   C12
 13481  13484  13487  13490      9     0.00   1.25520   3 ;    C15-   C14-   C13-   C12
 13482  13481  13484  13485      9     0.00   0.62760   3 ;    H5R-   C15-   C14-   H4R
 13482  13481  13484  13486      9     0.00   0.62760   3 ;    H5R-   C15-   C14-   H4S
 13482  13481  13484  13487      9     0.00   0.66944   3 ;    H5R-   C15-   C14-   C13
 13483  13481  13484  13485      9     0.00   0.62760   3 ;    H5S-   C15-   C14-   H4R
 13483  13481  13484  13486      9     0.00   0.62760   3 ;    H5S-   C15-   C14-   H4S
 13483  13481  13484  13487      9     0.00   0.66944   3 ;    H5S-   C15-   C14-   C13
 13484  13487  13490  13491      9     0.00   0.66944   3 ;    C14-   C13-   C12-   H2R
 13484  13487  13490  13492      9     0.00   0.66944   3 ;    C14-   C13-   C12-   H2S
 13484  13487  13490  13493      9     0.00   0.65270   3 ;    C14-   C13-   C12-   C11
 13485  13484  13487  13488      9     0.00   0.62760   3 ;    H4R-   C14-   C13-   H3R
 13485  13484  13487  13489      9     0.00   0.62760   3 ;    H4R-   C14-   C13-   H3S
 13485  13484  13487  13490      9     0.00   0.66944   3 ;    H4R-   C14-   C13-   C12
 13486  13484  13487  13488      9     0.00   0.62760   3 ;    H4S-   C14-   C13-   H3R
 13486  13484  13487  13489      9     0.00   0.62760   3 ;    H4S-   C14-   C13-   H3S
 13486  13484  13487  13490      9     0.00   0.66944   3 ;    H4S-   C14-   C13-   C12
 13487  13490  13493  13494      9   180.00   0.00000   2 ;    C13-   C12-   C11-   O12
 13487  13490  13493  13495      9   180.00   0.00000   2 ;    C13-   C12-   C11-   O11
 13488  13487  13490  13491      9     0.00   0.62760   3 ;    H3R-   C13-   C12-   H2R
 13488  13487  13490  13492      9     0.00   0.62760   3 ;    H3R-   C13-   C12-   H2S
 13488  13487  13490  13493      9     0.00   0.65270   3 ;    H3R-   C13-   C12-   C11
 13489  13487  13490  13491      9     0.00   0.62760   3 ;    H3S-   C13-   C12-   H2R
 13489  13487  13490  13492      9     0.00   0.62760   3 ;    H3S-   C13-   C12-   H2S
 13489  13487  13490  13493      9     0.00   0.65270   3 ;    H3S-   C13-   C12-   C11
 13490  13493  13495  13496      9   180.00  11.29680   2 ;    C12-   C11-   O11-    C1
 13491  13490  13493  13494      9     0.00   3.34720   1 ;    H2R-   C12-   C11-   O12
 13491  13490  13493  13494      9   180.00   0.33472   3 ;    H2R-   C12-   C11-   O12
 13491  13490  13493  13495      9   180.00   0.00000   2 ;    H2R-   C12-   C11-   O11
 13492  13490  13493  13494      9     0.00   3.34720   1 ;    H2S-   C12-   C11-   O12
 13492  13490  13493  13494      9   180.00   0.33472   3 ;    H2S-   C12-   C11-   O12
 13492  13490  13493  13495      9   180.00   0.00000   2 ;    H2S-   C12-   C11-   O11
 13493  13495  13496  13497      9     0.00   1.60247   3 ;    C11-   O11-    C1-    HR
 13493  13495  13496  13498      9     0.00   1.60247   3 ;    C11-   O11-    C1-    HS
 13493  13495  13496  13499      9     0.00  -0.41840   1 ;    C11-   O11-    C1-    C2
 13494  13493  13495  13496      9   180.00   5.85760   1 ;    O12-   C11-   O11-    C1
 13494  13493  13495  13496      9   180.00  11.29680   2 ;    O12-   C11-   O11-    C1
 13495  13496  13499  13500      9     0.00   0.00000   0 ;    O11-    C1-    C2-    HX
 13495  13496  13499  13500      9     0.00   1.04600   1 ;    O11-    C1-    C2-    HX
 13495  13496  13499  13501      9     0.00   0.00000   0 ;    O11-    C1-    C2-    C3
 13495  13496  13499  13501      9     0.00   0.00000   0 ;    O11-    C1-    C2-    C3
 13495  13496  13499  13501      9     0.00   0.00000   0 ;    O11-    C1-    C2-    C3
 13495  13496  13499  13501      9     0.00   0.00000   0 ;    O11-    C1-    C2-    C3
 13495  13496  13499  13501      9     0.00   0.00000   0 ;    O11-    C1-    C2-    C3
 13495  13496  13499  13528      9     0.00   1.25520   2 ;    O11-    C1-    C2-   O21
 13495  13496  13499  13528      9     0.00   4.18400   3 ;    O11-    C1-    C2-   O21
 13495  13496  13499  13528      9   180.00  -0.41840   1 ;    O11-    C1-    C2-   O21
 13496  13499  13501  13502      9     0.00   0.65270   3 ;     C1-    C2-    C3-    HA
 13496  13499  13501  13503      9     0.00   0.65270   3 ;     C1-    C2-    C3-    HB
 13496  13499  13501  13504      9   180.00   3.34720   1 ;     C1-    C2-    C3-   O31
 13496  13499  13528  13529      9     0.00  -0.41840   1 ;     C1-    C2-   O21-   C21
 13497  13496  13499  13500      9     0.00   0.65270   3 ;     HR-    C1-    C2-    HX
 13497  13496  13499  13501      9     0.00   0.65270   3 ;     HR-    C1-    C2-    C3
 13497  13496  13499  13528      9     0.00   0.00000   0 ;     HR-    C1-    C2-   O21
 13497  13496  13499  13528      9     0.00   1.04600   1 ;     HR-    C1-    C2-   O21
 13498  13496  13499  13500      9     0.00   0.65270   3 ;     HS-    C1-    C2-    HX
 13498  13496  13499  13501      9     0.00   0.65270   3 ;     HS-    C1-    C2-    C3
 13498  13496  13499  13528      9     0.00   0.00000   0 ;     HS-    C1-    C2-   O21
 13498  13496  13499  13528      9     0.00   1.04600   1 ;     HS-    C1-    C2-   O21
 13499  13501  13504  13505      9     0.00   0.00000   0 ;     C2-    C3-   O31-   P31
 13499  13501  13504  13505      9   180.00  -3.34720   2 ;     C2-    C3-   O31-   P31
 13499  13528  13529  13530      9   180.00   5.85760   1 ;     C2-   O21-   C21-   O22
 13499  13528  13529  13530      9   180.00  11.29680   2 ;     C2-   O21-   C21-   O22
 13499  13528  13529  13568      9   180.00  11.29680   2 ;     C2-   O21-   C21-   C12
 13500  13499  13501  13502      9     0.00   0.65270   3 ;     HX-    C2-    C3-    HA
 13500  13499  13501  13503      9     0.00   0.65270   3 ;     HX-    C2-    C3-    HB
 13500  13499  13501  13504      9     0.00   0.00000   0 ;     HX-    C2-    C3-   O31
 13500  13499  13501  13504      9     0.00   1.04600   1 ;     HX-    C2-    C3-   O31
 13500  13499  13528  13529      9     0.00   1.60247   3 ;     HX-    C2-   O21-   C21
 13501  13499  13528  13529      9     0.00  -0.41840   1 ;     C3-    C2-   O21-   C21
 13501  13504  13505  13506      9     0.00   2.51040   3 ;     C3-   O31-   P31-   O32
 13501  13504  13505  13506      9     0.00   9.62320   2 ;     C3-   O31-   P31-   O32
 13501  13504  13505  13526      9     0.00   0.00000   0 ;     C3-   O31-   P31-   O33
 13501  13504  13505  13526      9     0.00   0.00000   0 ;     C3-   O31-   P31-   O33
 13501  13504  13505  13526      9     0.00   0.00000   0 ;     C3-   O31-   P31-   O33
 13501  13504  13505  13526      9     0.00   0.00000   0 ;     C3-   O31-   P31-   O33
 13501  13504  13505  13526      9     0.00   0.83680   2 ;     C3-   O31-   P31-   O33
 13501  13504  13505  13527      9     0.00   0.00000   0 ;     C3-   O31-   P31-   O34
 13501  13504  13505  13527      9     0.00   0.00000   0 ;     C3-   O31-   P31-   O34
 13501  13504  13505  13527      9     0.00   0.00000   0 ;     C3-   O31-   P31-   O34
 13501  13504  13505  13527      9     0.00   0.00000   0 ;     C3-   O31-   P31-   O34
 13501  13504  13505  13527      9     0.00   0.83680   2 ;     C3-   O31-   P31-   O34
 13502  13501  13499  13528      9     0.00   0.00000   0 ;     HA-    C3-    C2-   O21
 13502  13501  13499  13528      9     0.00   1.04600   1 ;     HA-    C3-    C2-   O21
 13502  13501  13504  13505      9     0.00   0.00000   0 ;     HA-    C3-   O31-   P31
 13502  13501  13504  13505      9     0.00   0.00000   0 ;     HA-    C3-   O31-   P31
 13502  13501  13504  13505      9     0.00   0.00000   0 ;     HA-    C3-   O31-   P31
 13502  13501  13504  13505      9     0.00   0.00000   0 ;     HA-    C3-   O31-   P31
 13502  13501  13504  13505      9     0.00   1.60247   3 ;     HA-    C3-   O31-   P31
 13503  13501  13499  13528      9     0.00   0.00000   0 ;     HB-    C3-    C2-   O21
 13503  13501  13499  13528      9     0.00   1.04600   1 ;     HB-    C3-    C2-   O21
 13503  13501  13504  13505      9     0.00   0.00000   0 ;     HB-    C3-   O31-   P31
 13503  13501  13504  13505      9     0.00   0.00000   0 ;     HB-    C3-   O31-   P31
 13503  13501  13504  13505      9     0.00   0.00000   0 ;     HB-    C3-   O31-   P31
 13503  13501  13504  13505      9     0.00   0.00000   0 ;     HB-    C3-   O31-   P31
 13503  13501  13504  13505      9     0.00   1.60247   3 ;     HB-    C3-   O31-   P31
 13504  13501  13499  13528      9     0.00   0.00000   0 ;    O31-    C3-    C2-   O21
 13504  13501  13499  13528      9     0.00   0.00000   0 ;    O31-    C3-    C2-   O21
 13504  13501  13499  13528      9     0.00   0.00000   0 ;    O31-    C3-    C2-   O21
 13504  13501  13499  13528      9     0.00   0.00000   0 ;    O31-    C3-    C2-   O21
 13504  13501  13499  13528      9     0.00   0.00000   0 ;    O31-    C3-    C2-   O21
 13504  13505  13506  13507      9     0.00   2.51040   3 ;    O31-   P31-   O32-   C31
 13504  13505  13506  13507      9     0.00   9.62320   2 ;    O31-   P31-   O32-   C31
 13505  13506  13507  13508      9     0.00   0.00000   0 ;    P31-   O32-   C31-   H1A
 13505  13506  13507  13508      9     0.00   0.00000   0 ;    P31-   O32-   C31-   H1A
 13505  13506  13507  13508      9     0.00   0.00000   0 ;    P31-   O32-   C31-   H1A
 13505  13506  13507  13508      9     0.00   0.00000   0 ;    P31-   O32-   C31-   H1A
 13505  13506  13507  13508      9     0.00   1.60247   3 ;    P31-   O32-   C31-   H1A
 13505  13506  13507  13509      9     0.00   0.00000   0 ;    P31-   O32-   C31-   H1B
 13505  13506  13507  13509      9     0.00   0.00000   0 ;    P31-   O32-   C31-   H1B
 13505  13506  13507  13509      9     0.00   0.00000   0 ;    P31-   O32-   C31-   H1B
 13505  13506  13507  13509      9     0.00   0.00000   0 ;    P31-   O32-   C31-   H1B
 13505  13506  13507  13509      9     0.00   1.60247   3 ;    P31-   O32-   C31-   H1B
 13505  13506  13507  13510      9     0.00   0.00000   0 ;    P31-   O32-   C31-   C32
 13505  13506  13507  13510      9   180.00  -3.34720   2 ;    P31-   O32-   C31-   C32
 13506  13507  13510  13511      9     0.00   0.65270   3 ;    O32-   C31-   C32-   H2A
 13506  13507  13510  13512      9     0.00   0.65270   3 ;    O32-   C31-   C32-   H2B
 13506  13507  13510  13513      9     0.00   4.18400   3 ;    O32-   C31-   C32-   N31
 13507  13506  13505  13526      9     0.00   0.00000   0 ;    C31-   O32-   P31-   O33
 13507  13506  13505  13526      9     0.00   0.00000   0 ;    C31-   O32-   P31-   O33
 13507  13506  13505  13526      9     0.00   0.00000   0 ;    C31-   O32-   P31-   O33
 13507  13506  13505  13526      9     0.00   0.00000   0 ;    C31-   O32-   P31-   O33
 13507  13506  13505  13526      9     0.00   0.83680   2 ;    C31-   O32-   P31-   O33
 13507  13506  13505  13527      9     0.00   0.00000   0 ;    C31-   O32-   P31-   O34
 13507  13506  13505  13527      9     0.00   0.00000   0 ;    C31-   O32-   P31-   O34
 13507  13506  13505  13527      9     0.00   0.00000   0 ;    C31-   O32-   P31-   O34
 13507  13506  13505  13527      9     0.00   0.00000   0 ;    C31-   O32-   P31-   O34
 13507  13506  13505  13527      9     0.00   0.83680   2 ;    C31-   O32-   P31-   O34
 13507  13510  13513  13514      9     0.00   0.65270   3 ;    C31-   C32-   N31-   C33
 13507  13510  13513  13518      9     0.00   0.65270   3 ;    C31-   C32-   N31-   C34
 13507  13510  13513  13522      9     0.00   0.65270   3 ;    C31-   C32-   N31-   C35
 13508  13507  13510  13511      9     0.00   0.65270   3 ;    H1A-   C31-   C32-   H2A
 13508  13507  13510  13512      9     0.00   0.65270   3 ;    H1A-   C31-   C32-   H2B
 13508  13507  13510  13513      9     0.00   0.65270   3 ;    H1A-   C31-   C32-   N31
 13509  13507  13510  13511      9     0.00   0.65270   3 ;    H1B-   C31-   C32-   H2A
 13509  13507  13510  13512      9     0.00   0.65270   3 ;    H1B-   C31-   C32-   H2B
 13509  13507  13510  13513      9     0.00   0.65270   3 ;    H1B-   C31-   C32-   N31
 13510  13513  13514  13515      9     0.00   0.65270   3 ;    C32-   N31-   C33-   H3A
 13510  13513  13514  13516      9     0.00   0.65270   3 ;    C32-   N31-   C33-   H3B
 13510  13513  13514  13517      9     0.00   0.65270   3 ;    C32-   N31-   C33-   H3C
 13510  13513  13518  13519      9     0.00   0.65270   3 ;    C32-   N31-   C34-   H4A
 13510  13513  13518  13520      9     0.00   0.65270   3 ;    C32-   N31-   C34-   H4B
 13510  13513  13518  13521      9     0.00   0.65270   3 ;    C32-   N31-   C34-   H4C
 13510  13513  13522  13523      9     0.00   0.65270   3 ;    C32-   N31-   C35-   H5A
 13510  13513  13522  13524      9     0.00   0.65270   3 ;    C32-   N31-   C35-   H5B
 13510  13513  13522  13525      9     0.00   0.65270   3 ;    C32-   N31-   C35-   H5C
 13511  13510  13513  13514      9     0.00   0.65270   3 ;    H2A-   C32-   N31-   C33
 13511  13510  13513  13518      9     0.00   0.65270   3 ;    H2A-   C32-   N31-   C34
 13511  13510  13513  13522      9     0.00   0.65270   3 ;    H2A-   C32-   N31-   C35
 13512  13510  13513  13514      9     0.00   0.65270   3 ;    H2B-   C32-   N31-   C33
 13512  13510  13513  13518      9     0.00   0.65270   3 ;    H2B-   C32-   N31-   C34
 13512  13510  13513  13522      9     0.00   0.65270   3 ;    H2B-   C32-   N31-   C35
 13514  13513  13518  13519      9     0.00   0.65270   3 ;    C33-   N31-   C34-   H4A
 13514  13513  13518  13520      9     0.00   0.65270   3 ;    C33-   N31-   C34-   H4B
 13514  13513  13518  13521      9     0.00   0.65270   3 ;    C33-   N31-   C34-   H4C
 13514  13513  13522  13523      9     0.00   0.65270   3 ;    C33-   N31-   C35-   H5A
 13514  13513  13522  13524      9     0.00   0.65270   3 ;    C33-   N31-   C35-   H5B
 13514  13513  13522  13525      9     0.00   0.65270   3 ;    C33-   N31-   C35-   H5C
 13515  13514  13513  13518      9     0.00   0.65270   3 ;    H3A-   C33-   N31-   C34
 13515  13514  13513  13522      9     0.00   0.65270   3 ;    H3A-   C33-   N31-   C35
 13516  13514  13513  13518      9     0.00   0.65270   3 ;    H3B-   C33-   N31-   C34
 13516  13514  13513  13522      9     0.00   0.65270   3 ;    H3B-   C33-   N31-   C35
 13517  13514  13513  13518      9     0.00   0.65270   3 ;    H3C-   C33-   N31-   C34
 13517  13514  13513  13522      9     0.00   0.65270   3 ;    H3C-   C33-   N31-   C35
 13518  13513  13522  13523      9     0.00   0.65270   3 ;    C34-   N31-   C35-   H5A
 13518  13513  13522  13524      9     0.00   0.65270   3 ;    C34-   N31-   C35-   H5B
 13518  13513  13522  13525      9     0.00   0.65270   3 ;    C34-   N31-   C35-   H5C
 13519  13518  13513  13522      9     0.00   0.65270   3 ;    H4A-   C34-   N31-   C35
 13520  13518  13513  13522      9     0.00   0.65270   3 ;    H4B-   C34-   N31-   C35
 13521  13518  13513  13522      9     0.00   0.65270   3 ;    H4C-   C34-   N31-   C35
 13528  13529  13568  13565      9   180.00   0.00000   2 ;    O21-   C21-   C12-   C13
 13528  13529  13568  13569      9   180.00   0.00000   2 ;    O21-   C21-   C12-   H2R
 13528  13529  13568  13570      9   180.00   0.00000   2 ;    O21-   C21-   C12-   H2S
 13529  13568  13565  13562      9     0.00   0.65270   3 ;    C21-   C12-   C13-   C14
 13529  13568  13565  13566      9     0.00   0.65270   3 ;    C21-   C12-   C13-   H3R
 13529  13568  13565  13567      9     0.00   0.65270   3 ;    C21-   C12-   C13-   H3S
 13530  13529  13568  13565      9   180.00   0.00000   2 ;    O22-   C21-   C12-   C13
 13530  13529  13568  13569      9     0.00   3.34720   1 ;    O22-   C21-   C12-   H2R
 13530  13529  13568  13569      9   180.00   0.33472   3 ;    O22-   C21-   C12-   H2R
 13530  13529  13568  13570      9     0.00   3.34720   1 ;    O22-   C21-   C12-   H2S
 13530  13529  13568  13570      9   180.00   0.33472   3 ;    O22-   C21-   C12-   H2S
 13531  13532  13535  13536      9     0.00   0.62760   3 ;   H14T-  C114-  C113-  H13R
 13531  13532  13535  13537      9     0.00   0.62760   3 ;   H14T-  C114-  C113-  H13S
 13531  13532  13535  13538      9     0.00   0.66944   3 ;   H14T-  C114-  C113-  C112
 13532  13535  13538  13539      9     0.00   0.66944   3 ;   C114-  C113-  C112-  H12R
 13532  13535  13538  13540      9     0.00   0.66944   3 ;   C114-  C113-  C112-  H12S
 13532  13535  13538  13541      9     0.00   0.41840   1 ;   C114-  C113-  C112-  C111
 13532  13535  13538  13541      9     0.00   0.41840   2 ;   C114-  C113-  C112-  C111
 13532  13535  13538  13541      9     0.00   0.41840   4 ;   C114-  C113-  C112-  C111
 13532  13535  13538  13541      9     0.00   0.41840   5 ;   C114-  C113-  C112-  C111
 13532  13535  13538  13541      9     0.00   1.25520   3 ;   C114-  C113-  C112-  C111
 13533  13532  13535  13536      9     0.00   0.62760   3 ;   H14R-  C114-  C113-  H13R
 13533  13532  13535  13537      9     0.00   0.62760   3 ;   H14R-  C114-  C113-  H13S
 13533  13532  13535  13538      9     0.00   0.66944   3 ;   H14R-  C114-  C113-  C112
 13534  13532  13535  13536      9     0.00   0.62760   3 ;   H14S-  C114-  C113-  H13R
 13534  13532  13535  13537      9     0.00   0.62760   3 ;   H14S-  C114-  C113-  H13S
 13534  13532  13535  13538      9     0.00   0.66944   3 ;   H14S-  C114-  C113-  C112
 13535  13538  13541  13542      9     0.00   0.66944   3 ;   C113-  C112-  C111-  H11R
 13535  13538  13541  13543      9     0.00   0.66944   3 ;   C113-  C112-  C111-  H11S
 13535  13538  13541  13544      9     0.00   0.41840   1 ;   C113-  C112-  C111-  C110
 13535  13538  13541  13544      9     0.00   0.41840   2 ;   C113-  C112-  C111-  C110
 13535  13538  13541  13544      9     0.00   0.41840   4 ;   C113-  C112-  C111-  C110
 13535  13538  13541  13544      9     0.00   0.41840   5 ;   C113-  C112-  C111-  C110
 13535  13538  13541  13544      9     0.00   1.25520   3 ;   C113-  C112-  C111-  C110
 13536  13535  13538  13539      9     0.00   0.62760   3 ;   H13R-  C113-  C112-  H12R
 13536  13535  13538  13540      9     0.00   0.62760   3 ;   H13R-  C113-  C112-  H12S
 13536  13535  13538  13541      9     0.00   0.66944   3 ;   H13R-  C113-  C112-  C111
 13537  13535  13538  13539      9     0.00   0.62760   3 ;   H13S-  C113-  C112-  H12R
 13537  13535  13538  13540      9     0.00   0.62760   3 ;   H13S-  C113-  C112-  H12S
 13537  13535  13538  13541      9     0.00   0.66944   3 ;   H13S-  C113-  C112-  C111
 13538  13541  13544  13545      9     0.00   0.66944   3 ;   C112-  C111-  C110-  H10R
 13538  13541  13544  13546      9     0.00   0.66944   3 ;   C112-  C111-  C110-  H10S
 13538  13541  13544  13547      9     0.00   0.41840   1 ;   C112-  C111-  C110-   C19
 13538  13541  13544  13547      9     0.00   0.41840   2 ;   C112-  C111-  C110-   C19
 13538  13541  13544  13547      9     0.00   0.41840   4 ;   C112-  C111-  C110-   C19
 13538  13541  13544  13547      9     0.00   0.41840   5 ;   C112-  C111-  C110-   C19
 13538  13541  13544  13547      9     0.00   1.25520   3 ;   C112-  C111-  C110-   C19
 13539  13538  13541  13542      9     0.00   0.62760   3 ;   H12R-  C112-  C111-  H11R
 13539  13538  13541  13543      9     0.00   0.62760   3 ;   H12R-  C112-  C111-  H11S
 13539  13538  13541  13544      9     0.00   0.66944   3 ;   H12R-  C112-  C111-  C110
 13540  13538  13541  13542      9     0.00   0.62760   3 ;   H12S-  C112-  C111-  H11R
 13540  13538  13541  13543      9     0.00   0.62760   3 ;   H12S-  C112-  C111-  H11S
 13540  13538  13541  13544      9     0.00   0.66944   3 ;   H12S-  C112-  C111-  C110
 13541  13544  13547  13548      9     0.00   0.66944   3 ;   C111-  C110-   C19-   H9R
 13541  13544  13547  13549      9     0.00   0.66944   3 ;   C111-  C110-   C19-   H9S
 13541  13544  13547  13550      9     0.00   0.41840   1 ;   C111-  C110-   C19-   C18
 13541  13544  13547  13550      9     0.00   0.41840   2 ;   C111-  C110-   C19-   C18
 13541  13544  13547  13550      9     0.00   0.41840   4 ;   C111-  C110-   C19-   C18
 13541  13544  13547  13550      9     0.00   0.41840   5 ;   C111-  C110-   C19-   C18
 13541  13544  13547  13550      9     0.00   1.25520   3 ;   C111-  C110-   C19-   C18
 13542  13541  13544  13545      9     0.00   0.62760   3 ;   H11R-  C111-  C110-  H10R
 13542  13541  13544  13546      9     0.00   0.62760   3 ;   H11R-  C111-  C110-  H10S
 13542  13541  13544  13547      9     0.00   0.66944   3 ;   H11R-  C111-  C110-   C19
 13543  13541  13544  13545      9     0.00   0.62760   3 ;   H11S-  C111-  C110-  H10R
 13543  13541  13544  13546      9     0.00   0.62760   3 ;   H11S-  C111-  C110-  H10S
 13543  13541  13544  13547      9     0.00   0.66944   3 ;   H11S-  C111-  C110-   C19
 13544  13547  13550  13551      9     0.00   0.66944   3 ;   C110-   C19-   C18-   H8R
 13544  13547  13550  13552      9     0.00   0.66944   3 ;   C110-   C19-   C18-   H8S
 13544  13547  13550  13553      9     0.00   0.41840   1 ;   C110-   C19-   C18-   C17
 13544  13547  13550  13553      9     0.00   0.41840   2 ;   C110-   C19-   C18-   C17
 13544  13547  13550  13553      9     0.00   0.41840   4 ;   C110-   C19-   C18-   C17
 13544  13547  13550  13553      9     0.00   0.41840   5 ;   C110-   C19-   C18-   C17
 13544  13547  13550  13553      9     0.00   1.25520   3 ;   C110-   C19-   C18-   C17
 13545  13544  13547  13548      9     0.00   0.62760   3 ;   H10R-  C110-   C19-   H9R
 13545  13544  13547  13549      9     0.00   0.62760   3 ;   H10R-  C110-   C19-   H9S
 13545  13544  13547  13550      9     0.00   0.66944   3 ;   H10R-  C110-   C19-   C18
 13546  13544  13547  13548      9     0.00   0.62760   3 ;   H10S-  C110-   C19-   H9R
 13546  13544  13547  13549      9     0.00   0.62760   3 ;   H10S-  C110-   C19-   H9S
 13546  13544  13547  13550      9     0.00   0.66944   3 ;   H10S-  C110-   C19-   C18
 13547  13550  13553  13554      9     0.00   0.66944   3 ;    C19-   C18-   C17-   H7R
 13547  13550  13553  13555      9     0.00   0.66944   3 ;    C19-   C18-   C17-   H7S
 13547  13550  13553  13556      9     0.00   0.41840   1 ;    C19-   C18-   C17-   C16
 13547  13550  13553  13556      9     0.00   0.41840   2 ;    C19-   C18-   C17-   C16
 13547  13550  13553  13556      9     0.00   0.41840   4 ;    C19-   C18-   C17-   C16
 13547  13550  13553  13556      9     0.00   0.41840   5 ;    C19-   C18-   C17-   C16
 13547  13550  13553  13556      9     0.00   1.25520   3 ;    C19-   C18-   C17-   C16
 13548  13547  13550  13551      9     0.00   0.62760   3 ;    H9R-   C19-   C18-   H8R
 13548  13547  13550  13552      9     0.00   0.62760   3 ;    H9R-   C19-   C18-   H8S
 13548  13547  13550  13553      9     0.00   0.66944   3 ;    H9R-   C19-   C18-   C17
 13549  13547  13550  13551      9     0.00   0.62760   3 ;    H9S-   C19-   C18-   H8R
 13549  13547  13550  13552      9     0.00   0.62760   3 ;    H9S-   C19-   C18-   H8S
 13549  13547  13550  13553      9     0.00   0.66944   3 ;    H9S-   C19-   C18-   C17
 13550  13553  13556  13557      9     0.00   0.66944   3 ;    C18-   C17-   C16-   H6R
 13550  13553  13556  13558      9     0.00   0.66944   3 ;    C18-   C17-   C16-   H6S
 13550  13553  13556  13559      9     0.00   0.41840   1 ;    C18-   C17-   C16-   C15
 13550  13553  13556  13559      9     0.00   0.41840   2 ;    C18-   C17-   C16-   C15
 13550  13553  13556  13559      9     0.00   0.41840   4 ;    C18-   C17-   C16-   C15
 13550  13553  13556  13559      9     0.00   0.41840   5 ;    C18-   C17-   C16-   C15
 13550  13553  13556  13559      9     0.00   1.25520   3 ;    C18-   C17-   C16-   C15
 13551  13550  13553  13554      9     0.00   0.62760   3 ;    H8R-   C18-   C17-   H7R
 13551  13550  13553  13555      9     0.00   0.62760   3 ;    H8R-   C18-   C17-   H7S
 13551  13550  13553  13556      9     0.00   0.66944   3 ;    H8R-   C18-   C17-   C16
 13552  13550  13553  13554      9     0.00   0.62760   3 ;    H8S-   C18-   C17-   H7R
 13552  13550  13553  13555      9     0.00   0.62760   3 ;    H8S-   C18-   C17-   H7S
 13552  13550  13553  13556      9     0.00   0.66944   3 ;    H8S-   C18-   C17-   C16
 13553  13556  13559  13560      9     0.00   0.66944   3 ;    C17-   C16-   C15-   H5R
 13553  13556  13559  13561      9     0.00   0.66944   3 ;    C17-   C16-   C15-   H5S
 13553  13556  13559  13562      9     0.00   0.41840   1 ;    C17-   C16-   C15-   C14
 13553  13556  13559  13562      9     0.00   0.41840   2 ;    C17-   C16-   C15-   C14
 13553  13556  13559  13562      9     0.00   0.41840   4 ;    C17-   C16-   C15-   C14
 13553  13556  13559  13562      9     0.00   0.41840   5 ;    C17-   C16-   C15-   C14
 13553  13556  13559  13562      9     0.00   1.25520   3 ;    C17-   C16-   C15-   C14
 13554  13553  13556  13557      9     0.00   0.62760   3 ;    H7R-   C17-   C16-   H6R
 13554  13553  13556  13558      9     0.00   0.62760   3 ;    H7R-   C17-   C16-   H6S
 13554  13553  13556  13559      9     0.00   0.66944   3 ;    H7R-   C17-   C16-   C15
 13555  13553  13556  13557      9     0.00   0.62760   3 ;    H7S-   C17-   C16-   H6R
 13555  13553  13556  13558      9     0.00   0.62760   3 ;    H7S-   C17-   C16-   H6S
 13555  13553  13556  13559      9     0.00   0.66944   3 ;    H7S-   C17-   C16-   C15
 13556  13559  13562  13563      9     0.00   0.66944   3 ;    C16-   C15-   C14-   H4R
 13556  13559  13562  13564      9     0.00   0.66944   3 ;    C16-   C15-   C14-   H4S
 13556  13559  13562  13565      9     0.00   0.41840   1 ;    C16-   C15-   C14-   C13
 13556  13559  13562  13565      9     0.00   0.41840   2 ;    C16-   C15-   C14-   C13
 13556  13559  13562  13565      9     0.00   0.41840   4 ;    C16-   C15-   C14-   C13
 13556  13559  13562  13565      9     0.00   0.41840   5 ;    C16-   C15-   C14-   C13
 13556  13559  13562  13565      9     0.00   1.25520   3 ;    C16-   C15-   C14-   C13
 13557  13556  13559  13560      9     0.00   0.62760   3 ;    H6R-   C16-   C15-   H5R
 13557  13556  13559  13561      9     0.00   0.62760   3 ;    H6R-   C16-   C15-   H5S
 13557  13556  13559  13562      9     0.00   0.66944   3 ;    H6R-   C16-   C15-   C14
 13558  13556  13559  13560      9     0.00   0.62760   3 ;    H6S-   C16-   C15-   H5R
 13558  13556  13559  13561      9     0.00   0.62760   3 ;    H6S-   C16-   C15-   H5S
 13558  13556  13559  13562      9     0.00   0.66944   3 ;    H6S-   C16-   C15-   C14
 13559  13562  13565  13566      9     0.00   0.66944   3 ;    C15-   C14-   C13-   H3R
 13559  13562  13565  13567      9     0.00   0.66944   3 ;    C15-   C14-   C13-   H3S
 13559  13562  13565  13568      9     0.00   0.41840   1 ;    C15-   C14-   C13-   C12
 13559  13562  13565  13568      9     0.00   0.41840   2 ;    C15-   C14-   C13-   C12
 13559  13562  13565  13568      9     0.00   0.41840   4 ;    C15-   C14-   C13-   C12
 13559  13562  13565  13568      9     0.00   0.41840   5 ;    C15-   C14-   C13-   C12
 13559  13562  13565  13568      9     0.00   1.25520   3 ;    C15-   C14-   C13-   C12
 13560  13559  13562  13563      9     0.00   0.62760   3 ;    H5R-   C15-   C14-   H4R
 13560  13559  13562  13564      9     0.00   0.62760   3 ;    H5R-   C15-   C14-   H4S
 13560  13559  13562  13565      9     0.00   0.66944   3 ;    H5R-   C15-   C14-   C13
 13561  13559  13562  13563      9     0.00   0.62760   3 ;    H5S-   C15-   C14-   H4R
 13561  13559  13562  13564      9     0.00   0.62760   3 ;    H5S-   C15-   C14-   H4S
 13561  13559  13562  13565      9     0.00   0.66944   3 ;    H5S-   C15-   C14-   C13
 13562  13565  13568  13569      9     0.00   0.66944   3 ;    C14-   C13-   C12-   H2R
 13562  13565  13568  13570      9     0.00   0.66944   3 ;    C14-   C13-   C12-   H2S
 13563  13562  13565  13566      9     0.00   0.62760   3 ;    H4R-   C14-   C13-   H3R
 13563  13562  13565  13567      9     0.00   0.62760   3 ;    H4R-   C14-   C13-   H3S
 13563  13562  13565  13568      9     0.00   0.66944   3 ;    H4R-   C14-   C13-   C12
 13564  13562  13565  13566      9     0.00   0.62760   3 ;    H4S-   C14-   C13-   H3R
 13564  13562  13565  13567      9     0.00   0.62760   3 ;    H4S-   C14-   C13-   H3S
 13564  13562  13565  13568      9     0.00   0.66944   3 ;    H4S-   C14-   C13-   C12
 13566  13565  13568  13569      9     0.00   0.62760   3 ;    H3R-   C13-   C12-   H2R
 13566  13565  13568  13570      9     0.00   0.62760   3 ;    H3R-   C13-   C12-   H2S
 13567  13565  13568  13569      9     0.00   0.62760   3 ;    H3S-   C13-   C12-   H2R
 13567  13565  13568  13570      9     0.00   0.62760   3 ;    H3S-   C13-   C12-   H2S
 13571  13572  13575  13576      9     0.00   0.62760   3 ;   H14T-  C114-  C113-  H13R
 13571  13572  13575  13577      9     0.00   0.62760   3 ;   H14T-  C114-  C113-  H13S
 13571  13572  13575  13578      9     0.00   0.66944   3 ;   H14T-  C114-  C113-  C112
 13572  13575  13578  13579      9     0.00   0.66944   3 ;   C114-  C113-  C112-  H12R
 13572  13575  13578  13580      9     0.00   0.66944   3 ;   C114-  C113-  C112-  H12S
 13572  13575  13578  13581      9     0.00   0.41840   1 ;   C114-  C113-  C112-  C111
 13572  13575  13578  13581      9     0.00   0.41840   2 ;   C114-  C113-  C112-  C111
 13572  13575  13578  13581      9     0.00   0.41840   4 ;   C114-  C113-  C112-  C111
 13572  13575  13578  13581      9     0.00   0.41840   5 ;   C114-  C113-  C112-  C111
 13572  13575  13578  13581      9     0.00   1.25520   3 ;   C114-  C113-  C112-  C111
 13573  13572  13575  13576      9     0.00   0.62760   3 ;   H14R-  C114-  C113-  H13R
 13573  13572  13575  13577      9     0.00   0.62760   3 ;   H14R-  C114-  C113-  H13S
 13573  13572  13575  13578      9     0.00   0.66944   3 ;   H14R-  C114-  C113-  C112
 13574  13572  13575  13576      9     0.00   0.62760   3 ;   H14S-  C114-  C113-  H13R
 13574  13572  13575  13577      9     0.00   0.62760   3 ;   H14S-  C114-  C113-  H13S
 13574  13572  13575  13578      9     0.00   0.66944   3 ;   H14S-  C114-  C113-  C112
 13575  13578  13581  13582      9     0.00   0.66944   3 ;   C113-  C112-  C111-  H11R
 13575  13578  13581  13583      9     0.00   0.66944   3 ;   C113-  C112-  C111-  H11S
 13575  13578  13581  13584      9     0.00   0.41840   1 ;   C113-  C112-  C111-  C110
 13575  13578  13581  13584      9     0.00   0.41840   2 ;   C113-  C112-  C111-  C110
 13575  13578  13581  13584      9     0.00   0.41840   4 ;   C113-  C112-  C111-  C110
 13575  13578  13581  13584      9     0.00   0.41840   5 ;   C113-  C112-  C111-  C110
 13575  13578  13581  13584      9     0.00   1.25520   3 ;   C113-  C112-  C111-  C110
 13576  13575  13578  13579      9     0.00   0.62760   3 ;   H13R-  C113-  C112-  H12R
 13576  13575  13578  13580      9     0.00   0.62760   3 ;   H13R-  C113-  C112-  H12S
 13576  13575  13578  13581      9     0.00   0.66944   3 ;   H13R-  C113-  C112-  C111
 13577  13575  13578  13579      9     0.00   0.62760   3 ;   H13S-  C113-  C112-  H12R
 13577  13575  13578  13580      9     0.00   0.62760   3 ;   H13S-  C113-  C112-  H12S
 13577  13575  13578  13581      9     0.00   0.66944   3 ;   H13S-  C113-  C112-  C111
 13578  13581  13584  13585      9     0.00   0.66944   3 ;   C112-  C111-  C110-  H10R
 13578  13581  13584  13586      9     0.00   0.66944   3 ;   C112-  C111-  C110-  H10S
 13578  13581  13584  13587      9     0.00   0.41840   1 ;   C112-  C111-  C110-   C19
 13578  13581  13584  13587      9     0.00   0.41840   2 ;   C112-  C111-  C110-   C19
 13578  13581  13584  13587      9     0.00   0.41840   4 ;   C112-  C111-  C110-   C19
 13578  13581  13584  13587      9     0.00   0.41840   5 ;   C112-  C111-  C110-   C19
 13578  13581  13584  13587      9     0.00   1.25520   3 ;   C112-  C111-  C110-   C19
 13579  13578  13581  13582      9     0.00   0.62760   3 ;   H12R-  C112-  C111-  H11R
 13579  13578  13581  13583      9     0.00   0.62760   3 ;   H12R-  C112-  C111-  H11S
 13579  13578  13581  13584      9     0.00   0.66944   3 ;   H12R-  C112-  C111-  C110
 13580  13578  13581  13582      9     0.00   0.62760   3 ;   H12S-  C112-  C111-  H11R
 13580  13578  13581  13583      9     0.00   0.62760   3 ;   H12S-  C112-  C111-  H11S
 13580  13578  13581  13584      9     0.00   0.66944   3 ;   H12S-  C112-  C111-  C110
 13581  13584  13587  13588      9     0.00   0.66944   3 ;   C111-  C110-   C19-   H9R
 13581  13584  13587  13589      9     0.00   0.66944   3 ;   C111-  C110-   C19-   H9S
 13581  13584  13587  13590      9     0.00   0.41840   1 ;   C111-  C110-   C19-   C18
 13581  13584  13587  13590      9     0.00   0.41840   2 ;   C111-  C110-   C19-   C18
 13581  13584  13587  13590      9     0.00   0.41840   4 ;   C111-  C110-   C19-   C18
 13581  13584  13587  13590      9     0.00   0.41840   5 ;   C111-  C110-   C19-   C18
 13581  13584  13587  13590      9     0.00   1.25520   3 ;   C111-  C110-   C19-   C18
 13582  13581  13584  13585      9     0.00   0.62760   3 ;   H11R-  C111-  C110-  H10R
 13582  13581  13584  13586      9     0.00   0.62760   3 ;   H11R-  C111-  C110-  H10S
 13582  13581  13584  13587      9     0.00   0.66944   3 ;   H11R-  C111-  C110-   C19
 13583  13581  13584  13585      9     0.00   0.62760   3 ;   H11S-  C111-  C110-  H10R
 13583  13581  13584  13586      9     0.00   0.62760   3 ;   H11S-  C111-  C110-  H10S
 13583  13581  13584  13587      9     0.00   0.66944   3 ;   H11S-  C111-  C110-   C19
 13584  13587  13590  13591      9     0.00   0.66944   3 ;   C110-   C19-   C18-   H8R
 13584  13587  13590  13592      9     0.00   0.66944   3 ;   C110-   C19-   C18-   H8S
 13584  13587  13590  13593      9     0.00   0.41840   1 ;   C110-   C19-   C18-   C17
 13584  13587  13590  13593      9     0.00   0.41840   2 ;   C110-   C19-   C18-   C17
 13584  13587  13590  13593      9     0.00   0.41840   4 ;   C110-   C19-   C18-   C17
 13584  13587  13590  13593      9     0.00   0.41840   5 ;   C110-   C19-   C18-   C17
 13584  13587  13590  13593      9     0.00   1.25520   3 ;   C110-   C19-   C18-   C17
 13585  13584  13587  13588      9     0.00   0.62760   3 ;   H10R-  C110-   C19-   H9R
 13585  13584  13587  13589      9     0.00   0.62760   3 ;   H10R-  C110-   C19-   H9S
 13585  13584  13587  13590      9     0.00   0.66944   3 ;   H10R-  C110-   C19-   C18
 13586  13584  13587  13588      9     0.00   0.62760   3 ;   H10S-  C110-   C19-   H9R
 13586  13584  13587  13589      9     0.00   0.62760   3 ;   H10S-  C110-   C19-   H9S
 13586  13584  13587  13590      9     0.00   0.66944   3 ;   H10S-  C110-   C19-   C18
 13587  13590  13593  13594      9     0.00   0.66944   3 ;    C19-   C18-   C17-   H7R
 13587  13590  13593  13595      9     0.00   0.66944   3 ;    C19-   C18-   C17-   H7S
 13587  13590  13593  13596      9     0.00   0.41840   1 ;    C19-   C18-   C17-   C16
 13587  13590  13593  13596      9     0.00   0.41840   2 ;    C19-   C18-   C17-   C16
 13587  13590  13593  13596      9     0.00   0.41840   4 ;    C19-   C18-   C17-   C16
 13587  13590  13593  13596      9     0.00   0.41840   5 ;    C19-   C18-   C17-   C16
 13587  13590  13593  13596      9     0.00   1.25520   3 ;    C19-   C18-   C17-   C16
 13588  13587  13590  13591      9     0.00   0.62760   3 ;    H9R-   C19-   C18-   H8R
 13588  13587  13590  13592      9     0.00   0.62760   3 ;    H9R-   C19-   C18-   H8S
 13588  13587  13590  13593      9     0.00   0.66944   3 ;    H9R-   C19-   C18-   C17
 13589  13587  13590  13591      9     0.00   0.62760   3 ;    H9S-   C19-   C18-   H8R
 13589  13587  13590  13592      9     0.00   0.62760   3 ;    H9S-   C19-   C18-   H8S
 13589  13587  13590  13593      9     0.00   0.66944   3 ;    H9S-   C19-   C18-   C17
 13590  13593  13596  13597      9     0.00   0.66944   3 ;    C18-   C17-   C16-   H6R
 13590  13593  13596  13598      9     0.00   0.66944   3 ;    C18-   C17-   C16-   H6S
 13590  13593  13596  13599      9     0.00   0.41840   1 ;    C18-   C17-   C16-   C15
 13590  13593  13596  13599      9     0.00   0.41840   2 ;    C18-   C17-   C16-   C15
 13590  13593  13596  13599      9     0.00   0.41840   4 ;    C18-   C17-   C16-   C15
 13590  13593  13596  13599      9     0.00   0.41840   5 ;    C18-   C17-   C16-   C15
 13590  13593  13596  13599      9     0.00   1.25520   3 ;    C18-   C17-   C16-   C15
 13591  13590  13593  13594      9     0.00   0.62760   3 ;    H8R-   C18-   C17-   H7R
 13591  13590  13593  13595      9     0.00   0.62760   3 ;    H8R-   C18-   C17-   H7S
 13591  13590  13593  13596      9     0.00   0.66944   3 ;    H8R-   C18-   C17-   C16
 13592  13590  13593  13594      9     0.00   0.62760   3 ;    H8S-   C18-   C17-   H7R
 13592  13590  13593  13595      9     0.00   0.62760   3 ;    H8S-   C18-   C17-   H7S
 13592  13590  13593  13596      9     0.00   0.66944   3 ;    H8S-   C18-   C17-   C16
 13593  13596  13599  13600      9     0.00   0.66944   3 ;    C17-   C16-   C15-   H5R
 13593  13596  13599  13601      9     0.00   0.66944   3 ;    C17-   C16-   C15-   H5S
 13593  13596  13599  13602      9     0.00   0.41840   1 ;    C17-   C16-   C15-   C14
 13593  13596  13599  13602      9     0.00   0.41840   2 ;    C17-   C16-   C15-   C14
 13593  13596  13599  13602      9     0.00   0.41840   4 ;    C17-   C16-   C15-   C14
 13593  13596  13599  13602      9     0.00   0.41840   5 ;    C17-   C16-   C15-   C14
 13593  13596  13599  13602      9     0.00   1.25520   3 ;    C17-   C16-   C15-   C14
 13594  13593  13596  13597      9     0.00   0.62760   3 ;    H7R-   C17-   C16-   H6R
 13594  13593  13596  13598      9     0.00   0.62760   3 ;    H7R-   C17-   C16-   H6S
 13594  13593  13596  13599      9     0.00   0.66944   3 ;    H7R-   C17-   C16-   C15
 13595  13593  13596  13597      9     0.00   0.62760   3 ;    H7S-   C17-   C16-   H6R
 13595  13593  13596  13598      9     0.00   0.62760   3 ;    H7S-   C17-   C16-   H6S
 13595  13593  13596  13599      9     0.00   0.66944   3 ;    H7S-   C17-   C16-   C15
 13596  13599  13602  13603      9     0.00   0.66944   3 ;    C16-   C15-   C14-   H4R
 13596  13599  13602  13604      9     0.00   0.66944   3 ;    C16-   C15-   C14-   H4S
 13596  13599  13602  13605      9     0.00   0.41840   1 ;    C16-   C15-   C14-   C13
 13596  13599  13602  13605      9     0.00   0.41840   2 ;    C16-   C15-   C14-   C13
 13596  13599  13602  13605      9     0.00   0.41840   4 ;    C16-   C15-   C14-   C13
 13596  13599  13602  13605      9     0.00   0.41840   5 ;    C16-   C15-   C14-   C13
 13596  13599  13602  13605      9     0.00   1.25520   3 ;    C16-   C15-   C14-   C13
 13597  13596  13599  13600      9     0.00   0.62760   3 ;    H6R-   C16-   C15-   H5R
 13597  13596  13599  13601      9     0.00   0.62760   3 ;    H6R-   C16-   C15-   H5S
 13597  13596  13599  13602      9     0.00   0.66944   3 ;    H6R-   C16-   C15-   C14
 13598  13596  13599  13600      9     0.00   0.62760   3 ;    H6S-   C16-   C15-   H5R
 13598  13596  13599  13601      9     0.00   0.62760   3 ;    H6S-   C16-   C15-   H5S
 13598  13596  13599  13602      9     0.00   0.66944   3 ;    H6S-   C16-   C15-   C14
 13599  13602  13605  13606      9     0.00   0.66944   3 ;    C15-   C14-   C13-   H3R
 13599  13602  13605  13607      9     0.00   0.66944   3 ;    C15-   C14-   C13-   H3S
 13599  13602  13605  13608      9     0.00   0.41840   1 ;    C15-   C14-   C13-   C12
 13599  13602  13605  13608      9     0.00   0.41840   2 ;    C15-   C14-   C13-   C12
 13599  13602  13605  13608      9     0.00   0.41840   4 ;    C15-   C14-   C13-   C12
 13599  13602  13605  13608      9     0.00   0.41840   5 ;    C15-   C14-   C13-   C12
 13599  13602  13605  13608      9     0.00   1.25520   3 ;    C15-   C14-   C13-   C12
 13600  13599  13602  13603      9     0.00   0.62760   3 ;    H5R-   C15-   C14-   H4R
 13600  13599  13602  13604      9     0.00   0.62760   3 ;    H5R-   C15-   C14-   H4S
 13600  13599  13602  13605      9     0.00   0.66944   3 ;    H5R-   C15-   C14-   C13
 13601  13599  13602  13603      9     0.00   0.62760   3 ;    H5S-   C15-   C14-   H4R
 13601  13599  13602  13604      9     0.00   0.62760   3 ;    H5S-   C15-   C14-   H4S
 13601  13599  13602  13605      9     0.00   0.66944   3 ;    H5S-   C15-   C14-   C13
 13602  13605  13608  13609      9     0.00   0.66944   3 ;    C14-   C13-   C12-   H2R
 13602  13605  13608  13610      9     0.00   0.66944   3 ;    C14-   C13-   C12-   H2S
 13602  13605  13608  13611      9     0.00   0.65270   3 ;    C14-   C13-   C12-   C11
 13603  13602  13605  13606      9     0.00   0.62760   3 ;    H4R-   C14-   C13-   H3R
 13603  13602  13605  13607      9     0.00   0.62760   3 ;    H4R-   C14-   C13-   H3S
 13603  13602  13605  13608      9     0.00   0.66944   3 ;    H4R-   C14-   C13-   C12
 13604  13602  13605  13606      9     0.00   0.62760   3 ;    H4S-   C14-   C13-   H3R
 13604  13602  13605  13607      9     0.00   0.62760   3 ;    H4S-   C14-   C13-   H3S
 13604  13602  13605  13608      9     0.00   0.66944   3 ;    H4S-   C14-   C13-   C12
 13605  13608  13611  13612      9   180.00   0.00000   2 ;    C13-   C12-   C11-   O12
 13605  13608  13611  13613      9   180.00   0.00000   2 ;    C13-   C12-   C11-   O11
 13606  13605  13608  13609      9     0.00   0.62760   3 ;    H3R-   C13-   C12-   H2R
 13606  13605  13608  13610      9     0.00   0.62760   3 ;    H3R-   C13-   C12-   H2S
 13606  13605  13608  13611      9     0.00   0.65270   3 ;    H3R-   C13-   C12-   C11
 13607  13605  13608  13609      9     0.00   0.62760   3 ;    H3S-   C13-   C12-   H2R
 13607  13605  13608  13610      9     0.00   0.62760   3 ;    H3S-   C13-   C12-   H2S
 13607  13605  13608  13611      9     0.00   0.65270   3 ;    H3S-   C13-   C12-   C11
 13608  13611  13613  13614      9   180.00  11.29680   2 ;    C12-   C11-   O11-    C1
 13609  13608  13611  13612      9     0.00   3.34720   1 ;    H2R-   C12-   C11-   O12
 13609  13608  13611  13612      9   180.00   0.33472   3 ;    H2R-   C12-   C11-   O12
 13609  13608  13611  13613      9   180.00   0.00000   2 ;    H2R-   C12-   C11-   O11
 13610  13608  13611  13612      9     0.00   3.34720   1 ;    H2S-   C12-   C11-   O12
 13610  13608  13611  13612      9   180.00   0.33472   3 ;    H2S-   C12-   C11-   O12
 13610  13608  13611  13613      9   180.00   0.00000   2 ;    H2S-   C12-   C11-   O11
 13611  13613  13614  13615      9     0.00   1.60247   3 ;    C11-   O11-    C1-    HR
 13611  13613  13614  13616      9     0.00   1.60247   3 ;    C11-   O11-    C1-    HS
 13611  13613  13614  13617      9     0.00  -0.41840   1 ;    C11-   O11-    C1-    C2
 13612  13611  13613  13614      9   180.00   5.85760   1 ;    O12-   C11-   O11-    C1
 13612  13611  13613  13614      9   180.00  11.29680   2 ;    O12-   C11-   O11-    C1
 13613  13614  13617  13618      9     0.00   0.00000   0 ;    O11-    C1-    C2-    HX
 13613  13614  13617  13618      9     0.00   1.04600   1 ;    O11-    C1-    C2-    HX
 13613  13614  13617  13619      9     0.00   0.00000   0 ;    O11-    C1-    C2-    C3
 13613  13614  13617  13619      9     0.00   0.00000   0 ;    O11-    C1-    C2-    C3
 13613  13614  13617  13619      9     0.00   0.00000   0 ;    O11-    C1-    C2-    C3
 13613  13614  13617  13619      9     0.00   0.00000   0 ;    O11-    C1-    C2-    C3
 13613  13614  13617  13619      9     0.00   0.00000   0 ;    O11-    C1-    C2-    C3
 13613  13614  13617  13646      9     0.00   1.25520   2 ;    O11-    C1-    C2-   O21
 13613  13614  13617  13646      9     0.00   4.18400   3 ;    O11-    C1-    C2-   O21
 13613  13614  13617  13646      9   180.00  -0.41840   1 ;    O11-    C1-    C2-   O21
 13614  13617  13619  13620      9     0.00   0.65270   3 ;     C1-    C2-    C3-    HA
 13614  13617  13619  13621      9     0.00   0.65270   3 ;     C1-    C2-    C3-    HB
 13614  13617  13619  13622      9   180.00   3.34720   1 ;     C1-    C2-    C3-   O31
 13614  13617  13646  13647      9     0.00  -0.41840   1 ;     C1-    C2-   O21-   C21
 13615  13614  13617  13618      9     0.00   0.65270   3 ;     HR-    C1-    C2-    HX
 13615  13614  13617  13619      9     0.00   0.65270   3 ;     HR-    C1-    C2-    C3
 13615  13614  13617  13646      9     0.00   0.00000   0 ;     HR-    C1-    C2-   O21
 13615  13614  13617  13646      9     0.00   1.04600   1 ;     HR-    C1-    C2-   O21
 13616  13614  13617  13618      9     0.00   0.65270   3 ;     HS-    C1-    C2-    HX
 13616  13614  13617  13619      9     0.00   0.65270   3 ;     HS-    C1-    C2-    C3
 13616  13614  13617  13646      9     0.00   0.00000   0 ;     HS-    C1-    C2-   O21
 13616  13614  13617  13646      9     0.00   1.04600   1 ;     HS-    C1-    C2-   O21
 13617  13619  13622  13623      9     0.00   0.00000   0 ;     C2-    C3-   O31-   P31
 13617  13619  13622  13623      9   180.00  -3.34720   2 ;     C2-    C3-   O31-   P31
 13617  13646  13647  13648      9   180.00   5.85760   1 ;     C2-   O21-   C21-   O22
 13617  13646  13647  13648      9   180.00  11.29680   2 ;     C2-   O21-   C21-   O22
 13617  13646  13647  13686      9   180.00  11.29680   2 ;     C2-   O21-   C21-   C12
 13618  13617  13619  13620      9     0.00   0.65270   3 ;     HX-    C2-    C3-    HA
 13618  13617  13619  13621      9     0.00   0.65270   3 ;     HX-    C2-    C3-    HB
 13618  13617  13619  13622      9     0.00   0.00000   0 ;     HX-    C2-    C3-   O31
 13618  13617  13619  13622      9     0.00   1.04600   1 ;     HX-    C2-    C3-   O31
 13618  13617  13646  13647      9     0.00   1.60247   3 ;     HX-    C2-   O21-   C21
 13619  13617  13646  13647      9     0.00  -0.41840   1 ;     C3-    C2-   O21-   C21
 13619  13622  13623  13624      9     0.00   2.51040   3 ;     C3-   O31-   P31-   O32
 13619  13622  13623  13624      9     0.00   9.62320   2 ;     C3-   O31-   P31-   O32
 13619  13622  13623  13644      9     0.00   0.00000   0 ;     C3-   O31-   P31-   O33
 13619  13622  13623  13644      9     0.00   0.00000   0 ;     C3-   O31-   P31-   O33
 13619  13622  13623  13644      9     0.00   0.00000   0 ;     C3-   O31-   P31-   O33
 13619  13622  13623  13644      9     0.00   0.00000   0 ;     C3-   O31-   P31-   O33
 13619  13622  13623  13644      9     0.00   0.83680   2 ;     C3-   O31-   P31-   O33
 13619  13622  13623  13645      9     0.00   0.00000   0 ;     C3-   O31-   P31-   O34
 13619  13622  13623  13645      9     0.00   0.00000   0 ;     C3-   O31-   P31-   O34
 13619  13622  13623  13645      9     0.00   0.00000   0 ;     C3-   O31-   P31-   O34
 13619  13622  13623  13645      9     0.00   0.00000   0 ;     C3-   O31-   P31-   O34
 13619  13622  13623  13645      9     0.00   0.83680   2 ;     C3-   O31-   P31-   O34
 13620  13619  13617  13646      9     0.00   0.00000   0 ;     HA-    C3-    C2-   O21
 13620  13619  13617  13646      9     0.00   1.04600   1 ;     HA-    C3-    C2-   O21
 13620  13619  13622  13623      9     0.00   0.00000   0 ;     HA-    C3-   O31-   P31
 13620  13619  13622  13623      9     0.00   0.00000   0 ;     HA-    C3-   O31-   P31
 13620  13619  13622  13623      9     0.00   0.00000   0 ;     HA-    C3-   O31-   P31
 13620  13619  13622  13623      9     0.00   0.00000   0 ;     HA-    C3-   O31-   P31
 13620  13619  13622  13623      9     0.00   1.60247   3 ;     HA-    C3-   O31-   P31
 13621  13619  13617  13646      9     0.00   0.00000   0 ;     HB-    C3-    C2-   O21
 13621  13619  13617  13646      9     0.00   1.04600   1 ;     HB-    C3-    C2-   O21
 13621  13619  13622  13623      9     0.00   0.00000   0 ;     HB-    C3-   O31-   P31
 13621  13619  13622  13623      9     0.00   0.00000   0 ;     HB-    C3-   O31-   P31
 13621  13619  13622  13623      9     0.00   0.00000   0 ;     HB-    C3-   O31-   P31
 13621  13619  13622  13623      9     0.00   0.00000   0 ;     HB-    C3-   O31-   P31
 13621  13619  13622  13623      9     0.00   1.60247   3 ;     HB-    C3-   O31-   P31
 13622  13619  13617  13646      9     0.00   0.00000   0 ;    O31-    C3-    C2-   O21
 13622  13619  13617  13646      9     0.00   0.00000   0 ;    O31-    C3-    C2-   O21
 13622  13619  13617  13646      9     0.00   0.00000   0 ;    O31-    C3-    C2-   O21
 13622  13619  13617  13646      9     0.00   0.00000   0 ;    O31-    C3-    C2-   O21
 13622  13619  13617  13646      9     0.00   0.00000   0 ;    O31-    C3-    C2-   O21
 13622  13623  13624  13625      9     0.00   2.51040   3 ;    O31-   P31-   O32-   C31
 13622  13623  13624  13625      9     0.00   9.62320   2 ;    O31-   P31-   O32-   C31
 13623  13624  13625  13626      9     0.00   0.00000   0 ;    P31-   O32-   C31-   H1A
 13623  13624  13625  13626      9     0.00   0.00000   0 ;    P31-   O32-   C31-   H1A
 13623  13624  13625  13626      9     0.00   0.00000   0 ;    P31-   O32-   C31-   H1A
 13623  13624  13625  13626      9     0.00   0.00000   0 ;    P31-   O32-   C31-   H1A
 13623  13624  13625  13626      9     0.00   1.60247   3 ;    P31-   O32-   C31-   H1A
 13623  13624  13625  13627      9     0.00   0.00000   0 ;    P31-   O32-   C31-   H1B
 13623  13624  13625  13627      9     0.00   0.00000   0 ;    P31-   O32-   C31-   H1B
 13623  13624  13625  13627      9     0.00   0.00000   0 ;    P31-   O32-   C31-   H1B
 13623  13624  13625  13627      9     0.00   0.00000   0 ;    P31-   O32-   C31-   H1B
 13623  13624  13625  13627      9     0.00   1.60247   3 ;    P31-   O32-   C31-   H1B
 13623  13624  13625  13628      9     0.00   0.00000   0 ;    P31-   O32-   C31-   C32
 13623  13624  13625  13628      9   180.00  -3.34720   2 ;    P31-   O32-   C31-   C32
 13624  13625  13628  13629      9     0.00   0.65270   3 ;    O32-   C31-   C32-   H2A
 13624  13625  13628  13630      9     0.00   0.65270   3 ;    O32-   C31-   C32-   H2B
 13624  13625  13628  13631      9     0.00   4.18400   3 ;    O32-   C31-   C32-   N31
 13625  13624  13623  13644      9     0.00   0.00000   0 ;    C31-   O32-   P31-   O33
 13625  13624  13623  13644      9     0.00   0.00000   0 ;    C31-   O32-   P31-   O33
 13625  13624  13623  13644      9     0.00   0.00000   0 ;    C31-   O32-   P31-   O33
 13625  13624  13623  13644      9     0.00   0.00000   0 ;    C31-   O32-   P31-   O33
 13625  13624  13623  13644      9     0.00   0.83680   2 ;    C31-   O32-   P31-   O33
 13625  13624  13623  13645      9     0.00   0.00000   0 ;    C31-   O32-   P31-   O34
 13625  13624  13623  13645      9     0.00   0.00000   0 ;    C31-   O32-   P31-   O34
 13625  13624  13623  13645      9     0.00   0.00000   0 ;    C31-   O32-   P31-   O34
 13625  13624  13623  13645      9     0.00   0.00000   0 ;    C31-   O32-   P31-   O34
 13625  13624  13623  13645      9     0.00   0.83680   2 ;    C31-   O32-   P31-   O34
 13625  13628  13631  13632      9     0.00   0.65270   3 ;    C31-   C32-   N31-   C33
 13625  13628  13631  13636      9     0.00   0.65270   3 ;    C31-   C32-   N31-   C34
 13625  13628  13631  13640      9     0.00   0.65270   3 ;    C31-   C32-   N31-   C35
 13626  13625  13628  13629      9     0.00   0.65270   3 ;    H1A-   C31-   C32-   H2A
 13626  13625  13628  13630      9     0.00   0.65270   3 ;    H1A-   C31-   C32-   H2B
 13626  13625  13628  13631      9     0.00   0.65270   3 ;    H1A-   C31-   C32-   N31
 13627  13625  13628  13629      9     0.00   0.65270   3 ;    H1B-   C31-   C32-   H2A
 13627  13625  13628  13630      9     0.00   0.65270   3 ;    H1B-   C31-   C32-   H2B
 13627  13625  13628  13631      9     0.00   0.65270   3 ;    H1B-   C31-   C32-   N31
 13628  13631  13632  13633      9     0.00   0.65270   3 ;    C32-   N31-   C33-   H3A
 13628  13631  13632  13634      9     0.00   0.65270   3 ;    C32-   N31-   C33-   H3B
 13628  13631  13632  13635      9     0.00   0.65270   3 ;    C32-   N31-   C33-   H3C
 13628  13631  13636  13637      9     0.00   0.65270   3 ;    C32-   N31-   C34-   H4A
 13628  13631  13636  13638      9     0.00   0.65270   3 ;    C32-   N31-   C34-   H4B
 13628  13631  13636  13639      9     0.00   0.65270   3 ;    C32-   N31-   C34-   H4C
 13628  13631  13640  13641      9     0.00   0.65270   3 ;    C32-   N31-   C35-   H5A
 13628  13631  13640  13642      9     0.00   0.65270   3 ;    C32-   N31-   C35-   H5B
 13628  13631  13640  13643      9     0.00   0.65270   3 ;    C32-   N31-   C35-   H5C
 13629  13628  13631  13632      9     0.00   0.65270   3 ;    H2A-   C32-   N31-   C33
 13629  13628  13631  13636      9     0.00   0.65270   3 ;    H2A-   C32-   N31-   C34
 13629  13628  13631  13640      9     0.00   0.65270   3 ;    H2A-   C32-   N31-   C35
 13630  13628  13631  13632      9     0.00   0.65270   3 ;    H2B-   C32-   N31-   C33
 13630  13628  13631  13636      9     0.00   0.65270   3 ;    H2B-   C32-   N31-   C34
 13630  13628  13631  13640      9     0.00   0.65270   3 ;    H2B-   C32-   N31-   C35
 13632  13631  13636  13637      9     0.00   0.65270   3 ;    C33-   N31-   C34-   H4A
 13632  13631  13636  13638      9     0.00   0.65270   3 ;    C33-   N31-   C34-   H4B
 13632  13631  13636  13639      9     0.00   0.65270   3 ;    C33-   N31-   C34-   H4C
 13632  13631  13640  13641      9     0.00   0.65270   3 ;    C33-   N31-   C35-   H5A
 13632  13631  13640  13642      9     0.00   0.65270   3 ;    C33-   N31-   C35-   H5B
 13632  13631  13640  13643      9     0.00   0.65270   3 ;    C33-   N31-   C35-   H5C
 13633  13632  13631  13636      9     0.00   0.65270   3 ;    H3A-   C33-   N31-   C34
 13633  13632  13631  13640      9     0.00   0.65270   3 ;    H3A-   C33-   N31-   C35
 13634  13632  13631  13636      9     0.00   0.65270   3 ;    H3B-   C33-   N31-   C34
 13634  13632  13631  13640      9     0.00   0.65270   3 ;    H3B-   C33-   N31-   C35
 13635  13632  13631  13636      9     0.00   0.65270   3 ;    H3C-   C33-   N31-   C34
 13635  13632  13631  13640      9     0.00   0.65270   3 ;    H3C-   C33-   N31-   C35
 13636  13631  13640  13641      9     0.00   0.65270   3 ;    C34-   N31-   C35-   H5A
 13636  13631  13640  13642      9     0.00   0.65270   3 ;    C34-   N31-   C35-   H5B
 13636  13631  13640  13643      9     0.00   0.65270   3 ;    C34-   N31-   C35-   H5C
 13637  13636  13631  13640      9     0.00   0.65270   3 ;    H4A-   C34-   N31-   C35
 13638  13636  13631  13640      9     0.00   0.65270   3 ;    H4B-   C34-   N31-   C35
 13639  13636  13631  13640      9     0.00   0.65270   3 ;    H4C-   C34-   N31-   C35
 13646  13647  13686  13683      9   180.00   0.00000   2 ;    O21-   C21-   C12-   C13
 13646  13647  13686  13687      9   180.00   0.00000   2 ;    O21-   C21-   C12-   H2R
 13646  13647  13686  13688      9   180.00   0.00000   2 ;    O21-   C21-   C12-   H2S
 13647  13686  13683  13680      9     0.00   0.65270   3 ;    C21-   C12-   C13-   C14
 13647  13686  13683  13684      9     0.00   0.65270   3 ;    C21-   C12-   C13-   H3R
 13647  13686  13683  13685      9     0.00   0.65270   3 ;    C21-   C12-   C13-   H3S
 13648  13647  13686  13683      9   180.00   0.00000   2 ;    O22-   C21-   C12-   C13
 13648  13647  13686  13687      9     0.00   3.34720   1 ;    O22-   C21-   C12-   H2R
 13648  13647  13686  13687      9   180.00   0.33472   3 ;    O22-   C21-   C12-   H2R
 13648  13647  13686  13688      9     0.00   3.34720   1 ;    O22-   C21-   C12-   H2S
 13648  13647  13686  13688      9   180.00   0.33472   3 ;    O22-   C21-   C12-   H2S
 13649  13650  13653  13654      9     0.00   0.62760   3 ;   H14T-  C114-  C113-  H13R
 13649  13650  13653  13655      9     0.00   0.62760   3 ;   H14T-  C114-  C113-  H13S
 13649  13650  13653  13656      9     0.00   0.66944   3 ;   H14T-  C114-  C113-  C112
 13650  13653  13656  13657      9     0.00   0.66944   3 ;   C114-  C113-  C112-  H12R
 13650  13653  13656  13658      9     0.00   0.66944   3 ;   C114-  C113-  C112-  H12S
 13650  13653  13656  13659      9     0.00   0.41840   1 ;   C114-  C113-  C112-  C111
 13650  13653  13656  13659      9     0.00   0.41840   2 ;   C114-  C113-  C112-  C111
 13650  13653  13656  13659      9     0.00   0.41840   4 ;   C114-  C113-  C112-  C111
 13650  13653  13656  13659      9     0.00   0.41840   5 ;   C114-  C113-  C112-  C111
 13650  13653  13656  13659      9     0.00   1.25520   3 ;   C114-  C113-  C112-  C111
 13651  13650  13653  13654      9     0.00   0.62760   3 ;   H14R-  C114-  C113-  H13R
 13651  13650  13653  13655      9     0.00   0.62760   3 ;   H14R-  C114-  C113-  H13S
 13651  13650  13653  13656      9     0.00   0.66944   3 ;   H14R-  C114-  C113-  C112
 13652  13650  13653  13654      9     0.00   0.62760   3 ;   H14S-  C114-  C113-  H13R
 13652  13650  13653  13655      9     0.00   0.62760   3 ;   H14S-  C114-  C113-  H13S
 13652  13650  13653  13656      9     0.00   0.66944   3 ;   H14S-  C114-  C113-  C112
 13653  13656  13659  13660      9     0.00   0.66944   3 ;   C113-  C112-  C111-  H11R
 13653  13656  13659  13661      9     0.00   0.66944   3 ;   C113-  C112-  C111-  H11S
 13653  13656  13659  13662      9     0.00   0.41840   1 ;   C113-  C112-  C111-  C110
 13653  13656  13659  13662      9     0.00   0.41840   2 ;   C113-  C112-  C111-  C110
 13653  13656  13659  13662      9     0.00   0.41840   4 ;   C113-  C112-  C111-  C110
 13653  13656  13659  13662      9     0.00   0.41840   5 ;   C113-  C112-  C111-  C110
 13653  13656  13659  13662      9     0.00   1.25520   3 ;   C113-  C112-  C111-  C110
 13654  13653  13656  13657      9     0.00   0.62760   3 ;   H13R-  C113-  C112-  H12R
 13654  13653  13656  13658      9     0.00   0.62760   3 ;   H13R-  C113-  C112-  H12S
 13654  13653  13656  13659      9     0.00   0.66944   3 ;   H13R-  C113-  C112-  C111
 13655  13653  13656  13657      9     0.00   0.62760   3 ;   H13S-  C113-  C112-  H12R
 13655  13653  13656  13658      9     0.00   0.62760   3 ;   H13S-  C113-  C112-  H12S
 13655  13653  13656  13659      9     0.00   0.66944   3 ;   H13S-  C113-  C112-  C111
 13656  13659  13662  13663      9     0.00   0.66944   3 ;   C112-  C111-  C110-  H10R
 13656  13659  13662  13664      9     0.00   0.66944   3 ;   C112-  C111-  C110-  H10S
 13656  13659  13662  13665      9     0.00   0.41840   1 ;   C112-  C111-  C110-   C19
 13656  13659  13662  13665      9     0.00   0.41840   2 ;   C112-  C111-  C110-   C19
 13656  13659  13662  13665      9     0.00   0.41840   4 ;   C112-  C111-  C110-   C19
 13656  13659  13662  13665      9     0.00   0.41840   5 ;   C112-  C111-  C110-   C19
 13656  13659  13662  13665      9     0.00   1.25520   3 ;   C112-  C111-  C110-   C19
 13657  13656  13659  13660      9     0.00   0.62760   3 ;   H12R-  C112-  C111-  H11R
 13657  13656  13659  13661      9     0.00   0.62760   3 ;   H12R-  C112-  C111-  H11S
 13657  13656  13659  13662      9     0.00   0.66944   3 ;   H12R-  C112-  C111-  C110
 13658  13656  13659  13660      9     0.00   0.62760   3 ;   H12S-  C112-  C111-  H11R
 13658  13656  13659  13661      9     0.00   0.62760   3 ;   H12S-  C112-  C111-  H11S
 13658  13656  13659  13662      9     0.00   0.66944   3 ;   H12S-  C112-  C111-  C110
 13659  13662  13665  13666      9     0.00   0.66944   3 ;   C111-  C110-   C19-   H9R
 13659  13662  13665  13667      9     0.00   0.66944   3 ;   C111-  C110-   C19-   H9S
 13659  13662  13665  13668      9     0.00   0.41840   1 ;   C111-  C110-   C19-   C18
 13659  13662  13665  13668      9     0.00   0.41840   2 ;   C111-  C110-   C19-   C18
 13659  13662  13665  13668      9     0.00   0.41840   4 ;   C111-  C110-   C19-   C18
 13659  13662  13665  13668      9     0.00   0.41840   5 ;   C111-  C110-   C19-   C18
 13659  13662  13665  13668      9     0.00   1.25520   3 ;   C111-  C110-   C19-   C18
 13660  13659  13662  13663      9     0.00   0.62760   3 ;   H11R-  C111-  C110-  H10R
 13660  13659  13662  13664      9     0.00   0.62760   3 ;   H11R-  C111-  C110-  H10S
 13660  13659  13662  13665      9     0.00   0.66944   3 ;   H11R-  C111-  C110-   C19
 13661  13659  13662  13663      9     0.00   0.62760   3 ;   H11S-  C111-  C110-  H10R
 13661  13659  13662  13664      9     0.00   0.62760   3 ;   H11S-  C111-  C110-  H10S
 13661  13659  13662  13665      9     0.00   0.66944   3 ;   H11S-  C111-  C110-   C19
 13662  13665  13668  13669      9     0.00   0.66944   3 ;   C110-   C19-   C18-   H8R
 13662  13665  13668  13670      9     0.00   0.66944   3 ;   C110-   C19-   C18-   H8S
 13662  13665  13668  13671      9     0.00   0.41840   1 ;   C110-   C19-   C18-   C17
 13662  13665  13668  13671      9     0.00   0.41840   2 ;   C110-   C19-   C18-   C17
 13662  13665  13668  13671      9     0.00   0.41840   4 ;   C110-   C19-   C18-   C17
 13662  13665  13668  13671      9     0.00   0.41840   5 ;   C110-   C19-   C18-   C17
 13662  13665  13668  13671      9     0.00   1.25520   3 ;   C110-   C19-   C18-   C17
 13663  13662  13665  13666      9     0.00   0.62760   3 ;   H10R-  C110-   C19-   H9R
 13663  13662  13665  13667      9     0.00   0.62760   3 ;   H10R-  C110-   C19-   H9S
 13663  13662  13665  13668      9     0.00   0.66944   3 ;   H10R-  C110-   C19-   C18
 13664  13662  13665  13666      9     0.00   0.62760   3 ;   H10S-  C110-   C19-   H9R
 13664  13662  13665  13667      9     0.00   0.62760   3 ;   H10S-  C110-   C19-   H9S
 13664  13662  13665  13668      9     0.00   0.66944   3 ;   H10S-  C110-   C19-   C18
 13665  13668  13671  13672      9     0.00   0.66944   3 ;    C19-   C18-   C17-   H7R
 13665  13668  13671  13673      9     0.00   0.66944   3 ;    C19-   C18-   C17-   H7S
 13665  13668  13671  13674      9     0.00   0.41840   1 ;    C19-   C18-   C17-   C16
 13665  13668  13671  13674      9     0.00   0.41840   2 ;    C19-   C18-   C17-   C16
 13665  13668  13671  13674      9     0.00   0.41840   4 ;    C19-   C18-   C17-   C16
 13665  13668  13671  13674      9     0.00   0.41840   5 ;    C19-   C18-   C17-   C16
 13665  13668  13671  13674      9     0.00   1.25520   3 ;    C19-   C18-   C17-   C16
 13666  13665  13668  13669      9     0.00   0.62760   3 ;    H9R-   C19-   C18-   H8R
 13666  13665  13668  13670      9     0.00   0.62760   3 ;    H9R-   C19-   C18-   H8S
 13666  13665  13668  13671      9     0.00   0.66944   3 ;    H9R-   C19-   C18-   C17
 13667  13665  13668  13669      9     0.00   0.62760   3 ;    H9S-   C19-   C18-   H8R
 13667  13665  13668  13670      9     0.00   0.62760   3 ;    H9S-   C19-   C18-   H8S
 13667  13665  13668  13671      9     0.00   0.66944   3 ;    H9S-   C19-   C18-   C17
 13668  13671  13674  13675      9     0.00   0.66944   3 ;    C18-   C17-   C16-   H6R
 13668  13671  13674  13676      9     0.00   0.66944   3 ;    C18-   C17-   C16-   H6S
 13668  13671  13674  13677      9     0.00   0.41840   1 ;    C18-   C17-   C16-   C15
 13668  13671  13674  13677      9     0.00   0.41840   2 ;    C18-   C17-   C16-   C15
 13668  13671  13674  13677      9     0.00   0.41840   4 ;    C18-   C17-   C16-   C15
 13668  13671  13674  13677      9     0.00   0.41840   5 ;    C18-   C17-   C16-   C15
 13668  13671  13674  13677      9     0.00   1.25520   3 ;    C18-   C17-   C16-   C15
 13669  13668  13671  13672      9     0.00   0.62760   3 ;    H8R-   C18-   C17-   H7R
 13669  13668  13671  13673      9     0.00   0.62760   3 ;    H8R-   C18-   C17-   H7S
 13669  13668  13671  13674      9     0.00   0.66944   3 ;    H8R-   C18-   C17-   C16
 13670  13668  13671  13672      9     0.00   0.62760   3 ;    H8S-   C18-   C17-   H7R
 13670  13668  13671  13673      9     0.00   0.62760   3 ;    H8S-   C18-   C17-   H7S
 13670  13668  13671  13674      9     0.00   0.66944   3 ;    H8S-   C18-   C17-   C16
 13671  13674  13677  13678      9     0.00   0.66944   3 ;    C17-   C16-   C15-   H5R
 13671  13674  13677  13679      9     0.00   0.66944   3 ;    C17-   C16-   C15-   H5S
 13671  13674  13677  13680      9     0.00   0.41840   1 ;    C17-   C16-   C15-   C14
 13671  13674  13677  13680      9     0.00   0.41840   2 ;    C17-   C16-   C15-   C14
 13671  13674  13677  13680      9     0.00   0.41840   4 ;    C17-   C16-   C15-   C14
 13671  13674  13677  13680      9     0.00   0.41840   5 ;    C17-   C16-   C15-   C14
 13671  13674  13677  13680      9     0.00   1.25520   3 ;    C17-   C16-   C15-   C14
 13672  13671  13674  13675      9     0.00   0.62760   3 ;    H7R-   C17-   C16-   H6R
 13672  13671  13674  13676      9     0.00   0.62760   3 ;    H7R-   C17-   C16-   H6S
 13672  13671  13674  13677      9     0.00   0.66944   3 ;    H7R-   C17-   C16-   C15
 13673  13671  13674  13675      9     0.00   0.62760   3 ;    H7S-   C17-   C16-   H6R
 13673  13671  13674  13676      9     0.00   0.62760   3 ;    H7S-   C17-   C16-   H6S
 13673  13671  13674  13677      9     0.00   0.66944   3 ;    H7S-   C17-   C16-   C15
 13674  13677  13680  13681      9     0.00   0.66944   3 ;    C16-   C15-   C14-   H4R
 13674  13677  13680  13682      9     0.00   0.66944   3 ;    C16-   C15-   C14-   H4S
 13674  13677  13680  13683      9     0.00   0.41840   1 ;    C16-   C15-   C14-   C13
 13674  13677  13680  13683      9     0.00   0.41840   2 ;    C16-   C15-   C14-   C13
 13674  13677  13680  13683      9     0.00   0.41840   4 ;    C16-   C15-   C14-   C13
 13674  13677  13680  13683      9     0.00   0.41840   5 ;    C16-   C15-   C14-   C13
 13674  13677  13680  13683      9     0.00   1.25520   3 ;    C16-   C15-   C14-   C13
 13675  13674  13677  13678      9     0.00   0.62760   3 ;    H6R-   C16-   C15-   H5R
 13675  13674  13677  13679      9     0.00   0.62760   3 ;    H6R-   C16-   C15-   H5S
 13675  13674  13677  13680      9     0.00   0.66944   3 ;    H6R-   C16-   C15-   C14
 13676  13674  13677  13678      9     0.00   0.62760   3 ;    H6S-   C16-   C15-   H5R
 13676  13674  13677  13679      9     0.00   0.62760   3 ;    H6S-   C16-   C15-   H5S
 13676  13674  13677  13680      9     0.00   0.66944   3 ;    H6S-   C16-   C15-   C14
 13677  13680  13683  13684      9     0.00   0.66944   3 ;    C15-   C14-   C13-   H3R
 13677  13680  13683  13685      9     0.00   0.66944   3 ;    C15-   C14-   C13-   H3S
 13677  13680  13683  13686      9     0.00   0.41840   1 ;    C15-   C14-   C13-   C12
 13677  13680  13683  13686      9     0.00   0.41840   2 ;    C15-   C14-   C13-   C12
 13677  13680  13683  13686      9     0.00   0.41840   4 ;    C15-   C14-   C13-   C12
 13677  13680  13683  13686      9     0.00   0.41840   5 ;    C15-   C14-   C13-   C12
 13677  13680  13683  13686      9     0.00   1.25520   3 ;    C15-   C14-   C13-   C12
 13678  13677  13680  13681      9     0.00   0.62760   3 ;    H5R-   C15-   C14-   H4R
 13678  13677  13680  13682      9     0.00   0.62760   3 ;    H5R-   C15-   C14-   H4S
 13678  13677  13680  13683      9     0.00   0.66944   3 ;    H5R-   C15-   C14-   C13
 13679  13677  13680  13681      9     0.00   0.62760   3 ;    H5S-   C15-   C14-   H4R
 13679  13677  13680  13682      9     0.00   0.62760   3 ;    H5S-   C15-   C14-   H4S
 13679  13677  13680  13683      9     0.00   0.66944   3 ;    H5S-   C15-   C14-   C13
 13680  13683  13686  13687      9     0.00   0.66944   3 ;    C14-   C13-   C12-   H2R
 13680  13683  13686  13688      9     0.00   0.66944   3 ;    C14-   C13-   C12-   H2S
 13681  13680  13683  13684      9     0.00   0.62760   3 ;    H4R-   C14-   C13-   H3R
 13681  13680  13683  13685      9     0.00   0.62760   3 ;    H4R-   C14-   C13-   H3S
 13681  13680  13683  13686      9     0.00   0.66944   3 ;    H4R-   C14-   C13-   C12
 13682  13680  13683  13684      9     0.00   0.62760   3 ;    H4S-   C14-   C13-   H3R
 13682  13680  13683  13685      9     0.00   0.62760   3 ;    H4S-   C14-   C13-   H3S
 13682  13680  13683  13686      9     0.00   0.66944   3 ;    H4S-   C14-   C13-   C12
 13684  13683  13686  13687      9     0.00   0.62760   3 ;    H3R-   C13-   C12-   H2R
 13684  13683  13686  13688      9     0.00   0.62760   3 ;    H3R-   C13-   C12-   H2S
 13685  13683  13686  13687      9     0.00   0.62760   3 ;    H3S-   C13-   C12-   H2R
 13685  13683  13686  13688      9     0.00   0.62760   3 ;    H3S-   C13-   C12-   H2S
 13689  13690  13693  13694      9     0.00   0.62760   3 ;   H14T-  C114-  C113-  H13R
 13689  13690  13693  13695      9     0.00   0.62760   3 ;   H14T-  C114-  C113-  H13S
 13689  13690  13693  13696      9     0.00   0.66944   3 ;   H14T-  C114-  C113-  C112
 13690  13693  13696  13697      9     0.00   0.66944   3 ;   C114-  C113-  C112-  H12R
 13690  13693  13696  13698      9     0.00   0.66944   3 ;   C114-  C113-  C112-  H12S
 13690  13693  13696  13699      9     0.00   0.41840   1 ;   C114-  C113-  C112-  C111
 13690  13693  13696  13699      9     0.00   0.41840   2 ;   C114-  C113-  C112-  C111
 13690  13693  13696  13699      9     0.00   0.41840   4 ;   C114-  C113-  C112-  C111
 13690  13693  13696  13699      9     0.00   0.41840   5 ;   C114-  C113-  C112-  C111
 13690  13693  13696  13699      9     0.00   1.25520   3 ;   C114-  C113-  C112-  C111
 13691  13690  13693  13694      9     0.00   0.62760   3 ;   H14R-  C114-  C113-  H13R
 13691  13690  13693  13695      9     0.00   0.62760   3 ;   H14R-  C114-  C113-  H13S
 13691  13690  13693  13696      9     0.00   0.66944   3 ;   H14R-  C114-  C113-  C112
 13692  13690  13693  13694      9     0.00   0.62760   3 ;   H14S-  C114-  C113-  H13R
 13692  13690  13693  13695      9     0.00   0.62760   3 ;   H14S-  C114-  C113-  H13S
 13692  13690  13693  13696      9     0.00   0.66944   3 ;   H14S-  C114-  C113-  C112
 13693  13696  13699  13700      9     0.00   0.66944   3 ;   C113-  C112-  C111-  H11R
 13693  13696  13699  13701      9     0.00   0.66944   3 ;   C113-  C112-  C111-  H11S
 13693  13696  13699  13702      9     0.00   0.41840   1 ;   C113-  C112-  C111-  C110
 13693  13696  13699  13702      9     0.00   0.41840   2 ;   C113-  C112-  C111-  C110
 13693  13696  13699  13702      9     0.00   0.41840   4 ;   C113-  C112-  C111-  C110
 13693  13696  13699  13702      9     0.00   0.41840   5 ;   C113-  C112-  C111-  C110
 13693  13696  13699  13702      9     0.00   1.25520   3 ;   C113-  C112-  C111-  C110
 13694  13693  13696  13697      9     0.00   0.62760   3 ;   H13R-  C113-  C112-  H12R
 13694  13693  13696  13698      9     0.00   0.62760   3 ;   H13R-  C113-  C112-  H12S
 13694  13693  13696  13699      9     0.00   0.66944   3 ;   H13R-  C113-  C112-  C111
 13695  13693  13696  13697      9     0.00   0.62760   3 ;   H13S-  C113-  C112-  H12R
 13695  13693  13696  13698      9     0.00   0.62760   3 ;   H13S-  C113-  C112-  H12S
 13695  13693  13696  13699      9     0.00   0.66944   3 ;   H13S-  C113-  C112-  C111
 13696  13699  13702  13703      9     0.00   0.66944   3 ;   C112-  C111-  C110-  H10R
 13696  13699  13702  13704      9     0.00   0.66944   3 ;   C112-  C111-  C110-  H10S
 13696  13699  13702  13705      9     0.00   0.41840   1 ;   C112-  C111-  C110-   C19
 13696  13699  13702  13705      9     0.00   0.41840   2 ;   C112-  C111-  C110-   C19
 13696  13699  13702  13705      9     0.00   0.41840   4 ;   C112-  C111-  C110-   C19
 13696  13699  13702  13705      9     0.00   0.41840   5 ;   C112-  C111-  C110-   C19
 13696  13699  13702  13705      9     0.00   1.25520   3 ;   C112-  C111-  C110-   C19
 13697  13696  13699  13700      9     0.00   0.62760   3 ;   H12R-  C112-  C111-  H11R
 13697  13696  13699  13701      9     0.00   0.62760   3 ;   H12R-  C112-  C111-  H11S
 13697  13696  13699  13702      9     0.00   0.66944   3 ;   H12R-  C112-  C111-  C110
 13698  13696  13699  13700      9     0.00   0.62760   3 ;   H12S-  C112-  C111-  H11R
 13698  13696  13699  13701      9     0.00   0.62760   3 ;   H12S-  C112-  C111-  H11S
 13698  13696  13699  13702      9     0.00   0.66944   3 ;   H12S-  C112-  C111-  C110
 13699  13702  13705  13706      9     0.00   0.66944   3 ;   C111-  C110-   C19-   H9R
 13699  13702  13705  13707      9     0.00   0.66944   3 ;   C111-  C110-   C19-   H9S
 13699  13702  13705  13708      9     0.00   0.41840   1 ;   C111-  C110-   C19-   C18
 13699  13702  13705  13708      9     0.00   0.41840   2 ;   C111-  C110-   C19-   C18
 13699  13702  13705  13708      9     0.00   0.41840   4 ;   C111-  C110-   C19-   C18
 13699  13702  13705  13708      9     0.00   0.41840   5 ;   C111-  C110-   C19-   C18
 13699  13702  13705  13708      9     0.00   1.25520   3 ;   C111-  C110-   C19-   C18
 13700  13699  13702  13703      9     0.00   0.62760   3 ;   H11R-  C111-  C110-  H10R
 13700  13699  13702  13704      9     0.00   0.62760   3 ;   H11R-  C111-  C110-  H10S
 13700  13699  13702  13705      9     0.00   0.66944   3 ;   H11R-  C111-  C110-   C19
 13701  13699  13702  13703      9     0.00   0.62760   3 ;   H11S-  C111-  C110-  H10R
 13701  13699  13702  13704      9     0.00   0.62760   3 ;   H11S-  C111-  C110-  H10S
 13701  13699  13702  13705      9     0.00   0.66944   3 ;   H11S-  C111-  C110-   C19
 13702  13705  13708  13709      9     0.00   0.66944   3 ;   C110-   C19-   C18-   H8R
 13702  13705  13708  13710      9     0.00   0.66944   3 ;   C110-   C19-   C18-   H8S
 13702  13705  13708  13711      9     0.00   0.41840   1 ;   C110-   C19-   C18-   C17
 13702  13705  13708  13711      9     0.00   0.41840   2 ;   C110-   C19-   C18-   C17
 13702  13705  13708  13711      9     0.00   0.41840   4 ;   C110-   C19-   C18-   C17
 13702  13705  13708  13711      9     0.00   0.41840   5 ;   C110-   C19-   C18-   C17
 13702  13705  13708  13711      9     0.00   1.25520   3 ;   C110-   C19-   C18-   C17
 13703  13702  13705  13706      9     0.00   0.62760   3 ;   H10R-  C110-   C19-   H9R
 13703  13702  13705  13707      9     0.00   0.62760   3 ;   H10R-  C110-   C19-   H9S
 13703  13702  13705  13708      9     0.00   0.66944   3 ;   H10R-  C110-   C19-   C18
 13704  13702  13705  13706      9     0.00   0.62760   3 ;   H10S-  C110-   C19-   H9R
 13704  13702  13705  13707      9     0.00   0.62760   3 ;   H10S-  C110-   C19-   H9S
 13704  13702  13705  13708      9     0.00   0.66944   3 ;   H10S-  C110-   C19-   C18
 13705  13708  13711  13712      9     0.00   0.66944   3 ;    C19-   C18-   C17-   H7R
 13705  13708  13711  13713      9     0.00   0.66944   3 ;    C19-   C18-   C17-   H7S
 13705  13708  13711  13714      9     0.00   0.41840   1 ;    C19-   C18-   C17-   C16
 13705  13708  13711  13714      9     0.00   0.41840   2 ;    C19-   C18-   C17-   C16
 13705  13708  13711  13714      9     0.00   0.41840   4 ;    C19-   C18-   C17-   C16
 13705  13708  13711  13714      9     0.00   0.41840   5 ;    C19-   C18-   C17-   C16
 13705  13708  13711  13714      9     0.00   1.25520   3 ;    C19-   C18-   C17-   C16
 13706  13705  13708  13709      9     0.00   0.62760   3 ;    H9R-   C19-   C18-   H8R
 13706  13705  13708  13710      9     0.00   0.62760   3 ;    H9R-   C19-   C18-   H8S
 13706  13705  13708  13711      9     0.00   0.66944   3 ;    H9R-   C19-   C18-   C17
 13707  13705  13708  13709      9     0.00   0.62760   3 ;    H9S-   C19-   C18-   H8R
 13707  13705  13708  13710      9     0.00   0.62760   3 ;    H9S-   C19-   C18-   H8S
 13707  13705  13708  13711      9     0.00   0.66944   3 ;    H9S-   C19-   C18-   C17
 13708  13711  13714  13715      9     0.00   0.66944   3 ;    C18-   C17-   C16-   H6R
 13708  13711  13714  13716      9     0.00   0.66944   3 ;    C18-   C17-   C16-   H6S
 13708  13711  13714  13717      9     0.00   0.41840   1 ;    C18-   C17-   C16-   C15
 13708  13711  13714  13717      9     0.00   0.41840   2 ;    C18-   C17-   C16-   C15
 13708  13711  13714  13717      9     0.00   0.41840   4 ;    C18-   C17-   C16-   C15
 13708  13711  13714  13717      9     0.00   0.41840   5 ;    C18-   C17-   C16-   C15
 13708  13711  13714  13717      9     0.00   1.25520   3 ;    C18-   C17-   C16-   C15
 13709  13708  13711  13712      9     0.00   0.62760   3 ;    H8R-   C18-   C17-   H7R
 13709  13708  13711  13713      9     0.00   0.62760   3 ;    H8R-   C18-   C17-   H7S
 13709  13708  13711  13714      9     0.00   0.66944   3 ;    H8R-   C18-   C17-   C16
 13710  13708  13711  13712      9     0.00   0.62760   3 ;    H8S-   C18-   C17-   H7R
 13710  13708  13711  13713      9     0.00   0.62760   3 ;    H8S-   C18-   C17-   H7S
 13710  13708  13711  13714      9     0.00   0.66944   3 ;    H8S-   C18-   C17-   C16
 13711  13714  13717  13718      9     0.00   0.66944   3 ;    C17-   C16-   C15-   H5R
 13711  13714  13717  13719      9     0.00   0.66944   3 ;    C17-   C16-   C15-   H5S
 13711  13714  13717  13720      9     0.00   0.41840   1 ;    C17-   C16-   C15-   C14
 13711  13714  13717  13720      9     0.00   0.41840   2 ;    C17-   C16-   C15-   C14
 13711  13714  13717  13720      9     0.00   0.41840   4 ;    C17-   C16-   C15-   C14
 13711  13714  13717  13720      9     0.00   0.41840   5 ;    C17-   C16-   C15-   C14
 13711  13714  13717  13720      9     0.00   1.25520   3 ;    C17-   C16-   C15-   C14
 13712  13711  13714  13715      9     0.00   0.62760   3 ;    H7R-   C17-   C16-   H6R
 13712  13711  13714  13716      9     0.00   0.62760   3 ;    H7R-   C17-   C16-   H6S
 13712  13711  13714  13717      9     0.00   0.66944   3 ;    H7R-   C17-   C16-   C15
 13713  13711  13714  13715      9     0.00   0.62760   3 ;    H7S-   C17-   C16-   H6R
 13713  13711  13714  13716      9     0.00   0.62760   3 ;    H7S-   C17-   C16-   H6S
 13713  13711  13714  13717      9     0.00   0.66944   3 ;    H7S-   C17-   C16-   C15
 13714  13717  13720  13721      9     0.00   0.66944   3 ;    C16-   C15-   C14-   H4R
 13714  13717  13720  13722      9     0.00   0.66944   3 ;    C16-   C15-   C14-   H4S
 13714  13717  13720  13723      9     0.00   0.41840   1 ;    C16-   C15-   C14-   C13
 13714  13717  13720  13723      9     0.00   0.41840   2 ;    C16-   C15-   C14-   C13
 13714  13717  13720  13723      9     0.00   0.41840   4 ;    C16-   C15-   C14-   C13
 13714  13717  13720  13723      9     0.00   0.41840   5 ;    C16-   C15-   C14-   C13
 13714  13717  13720  13723      9     0.00   1.25520   3 ;    C16-   C15-   C14-   C13
 13715  13714  13717  13718      9     0.00   0.62760   3 ;    H6R-   C16-   C15-   H5R
 13715  13714  13717  13719      9     0.00   0.62760   3 ;    H6R-   C16-   C15-   H5S
 13715  13714  13717  13720      9     0.00   0.66944   3 ;    H6R-   C16-   C15-   C14
 13716  13714  13717  13718      9     0.00   0.62760   3 ;    H6S-   C16-   C15-   H5R
 13716  13714  13717  13719      9     0.00   0.62760   3 ;    H6S-   C16-   C15-   H5S
 13716  13714  13717  13720      9     0.00   0.66944   3 ;    H6S-   C16-   C15-   C14
 13717  13720  13723  13724      9     0.00   0.66944   3 ;    C15-   C14-   C13-   H3R
 13717  13720  13723  13725      9     0.00   0.66944   3 ;    C15-   C14-   C13-   H3S
 13717  13720  13723  13726      9     0.00   0.41840   1 ;    C15-   C14-   C13-   C12
 13717  13720  13723  13726      9     0.00   0.41840   2 ;    C15-   C14-   C13-   C12
 13717  13720  13723  13726      9     0.00   0.41840   4 ;    C15-   C14-   C13-   C12
 13717  13720  13723  13726      9     0.00   0.41840   5 ;    C15-   C14-   C13-   C12
 13717  13720  13723  13726      9     0.00   1.25520   3 ;    C15-   C14-   C13-   C12
 13718  13717  13720  13721      9     0.00   0.62760   3 ;    H5R-   C15-   C14-   H4R
 13718  13717  13720  13722      9     0.00   0.62760   3 ;    H5R-   C15-   C14-   H4S
 13718  13717  13720  13723      9     0.00   0.66944   3 ;    H5R-   C15-   C14-   C13
 13719  13717  13720  13721      9     0.00   0.62760   3 ;    H5S-   C15-   C14-   H4R
 13719  13717  13720  13722      9     0.00   0.62760   3 ;    H5S-   C15-   C14-   H4S
 13719  13717  13720  13723      9     0.00   0.66944   3 ;    H5S-   C15-   C14-   C13
 13720  13723  13726  13727      9     0.00   0.66944   3 ;    C14-   C13-   C12-   H2R
 13720  13723  13726  13728      9     0.00   0.66944   3 ;    C14-   C13-   C12-   H2S
 13720  13723  13726  13729      9     0.00   0.65270   3 ;    C14-   C13-   C12-   C11
 13721  13720  13723  13724      9     0.00   0.62760   3 ;    H4R-   C14-   C13-   H3R
 13721  13720  13723  13725      9     0.00   0.62760   3 ;    H4R-   C14-   C13-   H3S
 13721  13720  13723  13726      9     0.00   0.66944   3 ;    H4R-   C14-   C13-   C12
 13722  13720  13723  13724      9     0.00   0.62760   3 ;    H4S-   C14-   C13-   H3R
 13722  13720  13723  13725      9     0.00   0.62760   3 ;    H4S-   C14-   C13-   H3S
 13722  13720  13723  13726      9     0.00   0.66944   3 ;    H4S-   C14-   C13-   C12
 13723  13726  13729  13730      9   180.00   0.00000   2 ;    C13-   C12-   C11-   O12
 13723  13726  13729  13731      9   180.00   0.00000   2 ;    C13-   C12-   C11-   O11
 13724  13723  13726  13727      9     0.00   0.62760   3 ;    H3R-   C13-   C12-   H2R
 13724  13723  13726  13728      9     0.00   0.62760   3 ;    H3R-   C13-   C12-   H2S
 13724  13723  13726  13729      9     0.00   0.65270   3 ;    H3R-   C13-   C12-   C11
 13725  13723  13726  13727      9     0.00   0.62760   3 ;    H3S-   C13-   C12-   H2R
 13725  13723  13726  13728      9     0.00   0.62760   3 ;    H3S-   C13-   C12-   H2S
 13725  13723  13726  13729      9     0.00   0.65270   3 ;    H3S-   C13-   C12-   C11
 13726  13729  13731  13732      9   180.00  11.29680   2 ;    C12-   C11-   O11-    C1
 13727  13726  13729  13730      9     0.00   3.34720   1 ;    H2R-   C12-   C11-   O12
 13727  13726  13729  13730      9   180.00   0.33472   3 ;    H2R-   C12-   C11-   O12
 13727  13726  13729  13731      9   180.00   0.00000   2 ;    H2R-   C12-   C11-   O11
 13728  13726  13729  13730      9     0.00   3.34720   1 ;    H2S-   C12-   C11-   O12
 13728  13726  13729  13730      9   180.00   0.33472   3 ;    H2S-   C12-   C11-   O12
 13728  13726  13729  13731      9   180.00   0.00000   2 ;    H2S-   C12-   C11-   O11
 13729  13731  13732  13733      9     0.00   1.60247   3 ;    C11-   O11-    C1-    HR
 13729  13731  13732  13734      9     0.00   1.60247   3 ;    C11-   O11-    C1-    HS
 13729  13731  13732  13735      9     0.00  -0.41840   1 ;    C11-   O11-    C1-    C2
 13730  13729  13731  13732      9   180.00   5.85760   1 ;    O12-   C11-   O11-    C1
 13730  13729  13731  13732      9   180.00  11.29680   2 ;    O12-   C11-   O11-    C1
 13731  13732  13735  13736      9     0.00   0.00000   0 ;    O11-    C1-    C2-    HX
 13731  13732  13735  13736      9     0.00   1.04600   1 ;    O11-    C1-    C2-    HX
 13731  13732  13735  13737      9     0.00   0.00000   0 ;    O11-    C1-    C2-    C3
 13731  13732  13735  13737      9     0.00   0.00000   0 ;    O11-    C1-    C2-    C3
 13731  13732  13735  13737      9     0.00   0.00000   0 ;    O11-    C1-    C2-    C3
 13731  13732  13735  13737      9     0.00   0.00000   0 ;    O11-    C1-    C2-    C3
 13731  13732  13735  13737      9     0.00   0.00000   0 ;    O11-    C1-    C2-    C3
 13731  13732  13735  13764      9     0.00   1.25520   2 ;    O11-    C1-    C2-   O21
 13731  13732  13735  13764      9     0.00   4.18400   3 ;    O11-    C1-    C2-   O21
 13731  13732  13735  13764      9   180.00  -0.41840   1 ;    O11-    C1-    C2-   O21
 13732  13735  13737  13738      9     0.00   0.65270   3 ;     C1-    C2-    C3-    HA
 13732  13735  13737  13739      9     0.00   0.65270   3 ;     C1-    C2-    C3-    HB
 13732  13735  13737  13740      9   180.00   3.34720   1 ;     C1-    C2-    C3-   O31
 13732  13735  13764  13765      9     0.00  -0.41840   1 ;     C1-    C2-   O21-   C21
 13733  13732  13735  13736      9     0.00   0.65270   3 ;     HR-    C1-    C2-    HX
 13733  13732  13735  13737      9     0.00   0.65270   3 ;     HR-    C1-    C2-    C3
 13733  13732  13735  13764      9     0.00   0.00000   0 ;     HR-    C1-    C2-   O21
 13733  13732  13735  13764      9     0.00   1.04600   1 ;     HR-    C1-    C2-   O21
 13734  13732  13735  13736      9     0.00   0.65270   3 ;     HS-    C1-    C2-    HX
 13734  13732  13735  13737      9     0.00   0.65270   3 ;     HS-    C1-    C2-    C3
 13734  13732  13735  13764      9     0.00   0.00000   0 ;     HS-    C1-    C2-   O21
 13734  13732  13735  13764      9     0.00   1.04600   1 ;     HS-    C1-    C2-   O21
 13735  13737  13740  13741      9     0.00   0.00000   0 ;     C2-    C3-   O31-   P31
 13735  13737  13740  13741      9   180.00  -3.34720   2 ;     C2-    C3-   O31-   P31
 13735  13764  13765  13766      9   180.00   5.85760   1 ;     C2-   O21-   C21-   O22
 13735  13764  13765  13766      9   180.00  11.29680   2 ;     C2-   O21-   C21-   O22
 13735  13764  13765  13804      9   180.00  11.29680   2 ;     C2-   O21-   C21-   C12
 13736  13735  13737  13738      9     0.00   0.65270   3 ;     HX-    C2-    C3-    HA
 13736  13735  13737  13739      9     0.00   0.65270   3 ;     HX-    C2-    C3-    HB
 13736  13735  13737  13740      9     0.00   0.00000   0 ;     HX-    C2-    C3-   O31
 13736  13735  13737  13740      9     0.00   1.04600   1 ;     HX-    C2-    C3-   O31
 13736  13735  13764  13765      9     0.00   1.60247   3 ;     HX-    C2-   O21-   C21
 13737  13735  13764  13765      9     0.00  -0.41840   1 ;     C3-    C2-   O21-   C21
 13737  13740  13741  13742      9     0.00   2.51040   3 ;     C3-   O31-   P31-   O32
 13737  13740  13741  13742      9     0.00   9.62320   2 ;     C3-   O31-   P31-   O32
 13737  13740  13741  13762      9     0.00   0.00000   0 ;     C3-   O31-   P31-   O33
 13737  13740  13741  13762      9     0.00   0.00000   0 ;     C3-   O31-   P31-   O33
 13737  13740  13741  13762      9     0.00   0.00000   0 ;     C3-   O31-   P31-   O33
 13737  13740  13741  13762      9     0.00   0.00000   0 ;     C3-   O31-   P31-   O33
 13737  13740  13741  13762      9     0.00   0.83680   2 ;     C3-   O31-   P31-   O33
 13737  13740  13741  13763      9     0.00   0.00000   0 ;     C3-   O31-   P31-   O34
 13737  13740  13741  13763      9     0.00   0.00000   0 ;     C3-   O31-   P31-   O34
 13737  13740  13741  13763      9     0.00   0.00000   0 ;     C3-   O31-   P31-   O34
 13737  13740  13741  13763      9     0.00   0.00000   0 ;     C3-   O31-   P31-   O34
 13737  13740  13741  13763      9     0.00   0.83680   2 ;     C3-   O31-   P31-   O34
 13738  13737  13735  13764      9     0.00   0.00000   0 ;     HA-    C3-    C2-   O21
 13738  13737  13735  13764      9     0.00   1.04600   1 ;     HA-    C3-    C2-   O21
 13738  13737  13740  13741      9     0.00   0.00000   0 ;     HA-    C3-   O31-   P31
 13738  13737  13740  13741      9     0.00   0.00000   0 ;     HA-    C3-   O31-   P31
 13738  13737  13740  13741      9     0.00   0.00000   0 ;     HA-    C3-   O31-   P31
 13738  13737  13740  13741      9     0.00   0.00000   0 ;     HA-    C3-   O31-   P31
 13738  13737  13740  13741      9     0.00   1.60247   3 ;     HA-    C3-   O31-   P31
 13739  13737  13735  13764      9     0.00   0.00000   0 ;     HB-    C3-    C2-   O21
 13739  13737  13735  13764      9     0.00   1.04600   1 ;     HB-    C3-    C2-   O21
 13739  13737  13740  13741      9     0.00   0.00000   0 ;     HB-    C3-   O31-   P31
 13739  13737  13740  13741      9     0.00   0.00000   0 ;     HB-    C3-   O31-   P31
 13739  13737  13740  13741      9     0.00   0.00000   0 ;     HB-    C3-   O31-   P31
 13739  13737  13740  13741      9     0.00   0.00000   0 ;     HB-    C3-   O31-   P31
 13739  13737  13740  13741      9     0.00   1.60247   3 ;     HB-    C3-   O31-   P31
 13740  13737  13735  13764      9     0.00   0.00000   0 ;    O31-    C3-    C2-   O21
 13740  13737  13735  13764      9     0.00   0.00000   0 ;    O31-    C3-    C2-   O21
 13740  13737  13735  13764      9     0.00   0.00000   0 ;    O31-    C3-    C2-   O21
 13740  13737  13735  13764      9     0.00   0.00000   0 ;    O31-    C3-    C2-   O21
 13740  13737  13735  13764      9     0.00   0.00000   0 ;    O31-    C3-    C2-   O21
 13740  13741  13742  13743      9     0.00   2.51040   3 ;    O31-   P31-   O32-   C31
 13740  13741  13742  13743      9     0.00   9.62320   2 ;    O31-   P31-   O32-   C31
 13741  13742  13743  13744      9     0.00   0.00000   0 ;    P31-   O32-   C31-   H1A
 13741  13742  13743  13744      9     0.00   0.00000   0 ;    P31-   O32-   C31-   H1A
 13741  13742  13743  13744      9     0.00   0.00000   0 ;    P31-   O32-   C31-   H1A
 13741  13742  13743  13744      9     0.00   0.00000   0 ;    P31-   O32-   C31-   H1A
 13741  13742  13743  13744      9     0.00   1.60247   3 ;    P31-   O32-   C31-   H1A
 13741  13742  13743  13745      9     0.00   0.00000   0 ;    P31-   O32-   C31-   H1B
 13741  13742  13743  13745      9     0.00   0.00000   0 ;    P31-   O32-   C31-   H1B
 13741  13742  13743  13745      9     0.00   0.00000   0 ;    P31-   O32-   C31-   H1B
 13741  13742  13743  13745      9     0.00   0.00000   0 ;    P31-   O32-   C31-   H1B
 13741  13742  13743  13745      9     0.00   1.60247   3 ;    P31-   O32-   C31-   H1B
 13741  13742  13743  13746      9     0.00   0.00000   0 ;    P31-   O32-   C31-   C32
 13741  13742  13743  13746      9   180.00  -3.34720   2 ;    P31-   O32-   C31-   C32
 13742  13743  13746  13747      9     0.00   0.65270   3 ;    O32-   C31-   C32-   H2A
 13742  13743  13746  13748      9     0.00   0.65270   3 ;    O32-   C31-   C32-   H2B
 13742  13743  13746  13749      9     0.00   4.18400   3 ;    O32-   C31-   C32-   N31
 13743  13742  13741  13762      9     0.00   0.00000   0 ;    C31-   O32-   P31-   O33
 13743  13742  13741  13762      9     0.00   0.00000   0 ;    C31-   O32-   P31-   O33
 13743  13742  13741  13762      9     0.00   0.00000   0 ;    C31-   O32-   P31-   O33
 13743  13742  13741  13762      9     0.00   0.00000   0 ;    C31-   O32-   P31-   O33
 13743  13742  13741  13762      9     0.00   0.83680   2 ;    C31-   O32-   P31-   O33
 13743  13742  13741  13763      9     0.00   0.00000   0 ;    C31-   O32-   P31-   O34
 13743  13742  13741  13763      9     0.00   0.00000   0 ;    C31-   O32-   P31-   O34
 13743  13742  13741  13763      9     0.00   0.00000   0 ;    C31-   O32-   P31-   O34
 13743  13742  13741  13763      9     0.00   0.00000   0 ;    C31-   O32-   P31-   O34
 13743  13742  13741  13763      9     0.00   0.83680   2 ;    C31-   O32-   P31-   O34
 13743  13746  13749  13750      9     0.00   0.65270   3 ;    C31-   C32-   N31-   C33
 13743  13746  13749  13754      9     0.00   0.65270   3 ;    C31-   C32-   N31-   C34
 13743  13746  13749  13758      9     0.00   0.65270   3 ;    C31-   C32-   N31-   C35
 13744  13743  13746  13747      9     0.00   0.65270   3 ;    H1A-   C31-   C32-   H2A
 13744  13743  13746  13748      9     0.00   0.65270   3 ;    H1A-   C31-   C32-   H2B
 13744  13743  13746  13749      9     0.00   0.65270   3 ;    H1A-   C31-   C32-   N31
 13745  13743  13746  13747      9     0.00   0.65270   3 ;    H1B-   C31-   C32-   H2A
 13745  13743  13746  13748      9     0.00   0.65270   3 ;    H1B-   C31-   C32-   H2B
 13745  13743  13746  13749      9     0.00   0.65270   3 ;    H1B-   C31-   C32-   N31
 13746  13749  13750  13751      9     0.00   0.65270   3 ;    C32-   N31-   C33-   H3A
 13746  13749  13750  13752      9     0.00   0.65270   3 ;    C32-   N31-   C33-   H3B
 13746  13749  13750  13753      9     0.00   0.65270   3 ;    C32-   N31-   C33-   H3C
 13746  13749  13754  13755      9     0.00   0.65270   3 ;    C32-   N31-   C34-   H4A
 13746  13749  13754  13756      9     0.00   0.65270   3 ;    C32-   N31-   C34-   H4B
 13746  13749  13754  13757      9     0.00   0.65270   3 ;    C32-   N31-   C34-   H4C
 13746  13749  13758  13759      9     0.00   0.65270   3 ;    C32-   N31-   C35-   H5A
 13746  13749  13758  13760      9     0.00   0.65270   3 ;    C32-   N31-   C35-   H5B
 13746  13749  13758  13761      9     0.00   0.65270   3 ;    C32-   N31-   C35-   H5C
 13747  13746  13749  13750      9     0.00   0.65270   3 ;    H2A-   C32-   N31-   C33
 13747  13746  13749  13754      9     0.00   0.65270   3 ;    H2A-   C32-   N31-   C34
 13747  13746  13749  13758      9     0.00   0.65270   3 ;    H2A-   C32-   N31-   C35
 13748  13746  13749  13750      9     0.00   0.65270   3 ;    H2B-   C32-   N31-   C33
 13748  13746  13749  13754      9     0.00   0.65270   3 ;    H2B-   C32-   N31-   C34
 13748  13746  13749  13758      9     0.00   0.65270   3 ;    H2B-   C32-   N31-   C35
 13750  13749  13754  13755      9     0.00   0.65270   3 ;    C33-   N31-   C34-   H4A
 13750  13749  13754  13756      9     0.00   0.65270   3 ;    C33-   N31-   C34-   H4B
 13750  13749  13754  13757      9     0.00   0.65270   3 ;    C33-   N31-   C34-   H4C
 13750  13749  13758  13759      9     0.00   0.65270   3 ;    C33-   N31-   C35-   H5A
 13750  13749  13758  13760      9     0.00   0.65270   3 ;    C33-   N31-   C35-   H5B
 13750  13749  13758  13761      9     0.00   0.65270   3 ;    C33-   N31-   C35-   H5C
 13751  13750  13749  13754      9     0.00   0.65270   3 ;    H3A-   C33-   N31-   C34
 13751  13750  13749  13758      9     0.00   0.65270   3 ;    H3A-   C33-   N31-   C35
 13752  13750  13749  13754      9     0.00   0.65270   3 ;    H3B-   C33-   N31-   C34
 13752  13750  13749  13758      9     0.00   0.65270   3 ;    H3B-   C33-   N31-   C35
 13753  13750  13749  13754      9     0.00   0.65270   3 ;    H3C-   C33-   N31-   C34
 13753  13750  13749  13758      9     0.00   0.65270   3 ;    H3C-   C33-   N31-   C35
 13754  13749  13758  13759      9     0.00   0.65270   3 ;    C34-   N31-   C35-   H5A
 13754  13749  13758  13760      9     0.00   0.65270   3 ;    C34-   N31-   C35-   H5B
 13754  13749  13758  13761      9     0.00   0.65270   3 ;    C34-   N31-   C35-   H5C
 13755  13754  13749  13758      9     0.00   0.65270   3 ;    H4A-   C34-   N31-   C35
 13756  13754  13749  13758      9     0.00   0.65270   3 ;    H4B-   C34-   N31-   C35
 13757  13754  13749  13758      9     0.00   0.65270   3 ;    H4C-   C34-   N31-   C35
 13764  13765  13804  13801      9   180.00   0.00000   2 ;    O21-   C21-   C12-   C13
 13764  13765  13804  13805      9   180.00   0.00000   2 ;    O21-   C21-   C12-   H2R
 13764  13765  13804  13806      9   180.00   0.00000   2 ;    O21-   C21-   C12-   H2S
 13765  13804  13801  13798      9     0.00   0.65270   3 ;    C21-   C12-   C13-   C14
 13765  13804  13801  13802      9     0.00   0.65270   3 ;    C21-   C12-   C13-   H3R
 13765  13804  13801  13803      9     0.00   0.65270   3 ;    C21-   C12-   C13-   H3S
 13766  13765  13804  13801      9   180.00   0.00000   2 ;    O22-   C21-   C12-   C13
 13766  13765  13804  13805      9     0.00   3.34720   1 ;    O22-   C21-   C12-   H2R
 13766  13765  13804  13805      9   180.00   0.33472   3 ;    O22-   C21-   C12-   H2R
 13766  13765  13804  13806      9     0.00   3.34720   1 ;    O22-   C21-   C12-   H2S
 13766  13765  13804  13806      9   180.00   0.33472   3 ;    O22-   C21-   C12-   H2S
 13767  13768  13771  13772      9     0.00   0.62760   3 ;   H14T-  C114-  C113-  H13R
 13767  13768  13771  13773      9     0.00   0.62760   3 ;   H14T-  C114-  C113-  H13S
 13767  13768  13771  13774      9     0.00   0.66944   3 ;   H14T-  C114-  C113-  C112
 13768  13771  13774  13775      9     0.00   0.66944   3 ;   C114-  C113-  C112-  H12R
 13768  13771  13774  13776      9     0.00   0.66944   3 ;   C114-  C113-  C112-  H12S
 13768  13771  13774  13777      9     0.00   0.41840   1 ;   C114-  C113-  C112-  C111
 13768  13771  13774  13777      9     0.00   0.41840   2 ;   C114-  C113-  C112-  C111
 13768  13771  13774  13777      9     0.00   0.41840   4 ;   C114-  C113-  C112-  C111
 13768  13771  13774  13777      9     0.00   0.41840   5 ;   C114-  C113-  C112-  C111
 13768  13771  13774  13777      9     0.00   1.25520   3 ;   C114-  C113-  C112-  C111
 13769  13768  13771  13772      9     0.00   0.62760   3 ;   H14R-  C114-  C113-  H13R
 13769  13768  13771  13773      9     0.00   0.62760   3 ;   H14R-  C114-  C113-  H13S
 13769  13768  13771  13774      9     0.00   0.66944   3 ;   H14R-  C114-  C113-  C112
 13770  13768  13771  13772      9     0.00   0.62760   3 ;   H14S-  C114-  C113-  H13R
 13770  13768  13771  13773      9     0.00   0.62760   3 ;   H14S-  C114-  C113-  H13S
 13770  13768  13771  13774      9     0.00   0.66944   3 ;   H14S-  C114-  C113-  C112
 13771  13774  13777  13778      9     0.00   0.66944   3 ;   C113-  C112-  C111-  H11R
 13771  13774  13777  13779      9     0.00   0.66944   3 ;   C113-  C112-  C111-  H11S
 13771  13774  13777  13780      9     0.00   0.41840   1 ;   C113-  C112-  C111-  C110
 13771  13774  13777  13780      9     0.00   0.41840   2 ;   C113-  C112-  C111-  C110
 13771  13774  13777  13780      9     0.00   0.41840   4 ;   C113-  C112-  C111-  C110
 13771  13774  13777  13780      9     0.00   0.41840   5 ;   C113-  C112-  C111-  C110
 13771  13774  13777  13780      9     0.00   1.25520   3 ;   C113-  C112-  C111-  C110
 13772  13771  13774  13775      9     0.00   0.62760   3 ;   H13R-  C113-  C112-  H12R
 13772  13771  13774  13776      9     0.00   0.62760   3 ;   H13R-  C113-  C112-  H12S
 13772  13771  13774  13777      9     0.00   0.66944   3 ;   H13R-  C113-  C112-  C111
 13773  13771  13774  13775      9     0.00   0.62760   3 ;   H13S-  C113-  C112-  H12R
 13773  13771  13774  13776      9     0.00   0.62760   3 ;   H13S-  C113-  C112-  H12S
 13773  13771  13774  13777      9     0.00   0.66944   3 ;   H13S-  C113-  C112-  C111
 13774  13777  13780  13781      9     0.00   0.66944   3 ;   C112-  C111-  C110-  H10R
 13774  13777  13780  13782      9     0.00   0.66944   3 ;   C112-  C111-  C110-  H10S
 13774  13777  13780  13783      9     0.00   0.41840   1 ;   C112-  C111-  C110-   C19
 13774  13777  13780  13783      9     0.00   0.41840   2 ;   C112-  C111-  C110-   C19
 13774  13777  13780  13783      9     0.00   0.41840   4 ;   C112-  C111-  C110-   C19
 13774  13777  13780  13783      9     0.00   0.41840   5 ;   C112-  C111-  C110-   C19
 13774  13777  13780  13783      9     0.00   1.25520   3 ;   C112-  C111-  C110-   C19
 13775  13774  13777  13778      9     0.00   0.62760   3 ;   H12R-  C112-  C111-  H11R
 13775  13774  13777  13779      9     0.00   0.62760   3 ;   H12R-  C112-  C111-  H11S
 13775  13774  13777  13780      9     0.00   0.66944   3 ;   H12R-  C112-  C111-  C110
 13776  13774  13777  13778      9     0.00   0.62760   3 ;   H12S-  C112-  C111-  H11R
 13776  13774  13777  13779      9     0.00   0.62760   3 ;   H12S-  C112-  C111-  H11S
 13776  13774  13777  13780      9     0.00   0.66944   3 ;   H12S-  C112-  C111-  C110
 13777  13780  13783  13784      9     0.00   0.66944   3 ;   C111-  C110-   C19-   H9R
 13777  13780  13783  13785      9     0.00   0.66944   3 ;   C111-  C110-   C19-   H9S
 13777  13780  13783  13786      9     0.00   0.41840   1 ;   C111-  C110-   C19-   C18
 13777  13780  13783  13786      9     0.00   0.41840   2 ;   C111-  C110-   C19-   C18
 13777  13780  13783  13786      9     0.00   0.41840   4 ;   C111-  C110-   C19-   C18
 13777  13780  13783  13786      9     0.00   0.41840   5 ;   C111-  C110-   C19-   C18
 13777  13780  13783  13786      9     0.00   1.25520   3 ;   C111-  C110-   C19-   C18
 13778  13777  13780  13781      9     0.00   0.62760   3 ;   H11R-  C111-  C110-  H10R
 13778  13777  13780  13782      9     0.00   0.62760   3 ;   H11R-  C111-  C110-  H10S
 13778  13777  13780  13783      9     0.00   0.66944   3 ;   H11R-  C111-  C110-   C19
 13779  13777  13780  13781      9     0.00   0.62760   3 ;   H11S-  C111-  C110-  H10R
 13779  13777  13780  13782      9     0.00   0.62760   3 ;   H11S-  C111-  C110-  H10S
 13779  13777  13780  13783      9     0.00   0.66944   3 ;   H11S-  C111-  C110-   C19
 13780  13783  13786  13787      9     0.00   0.66944   3 ;   C110-   C19-   C18-   H8R
 13780  13783  13786  13788      9     0.00   0.66944   3 ;   C110-   C19-   C18-   H8S
 13780  13783  13786  13789      9     0.00   0.41840   1 ;   C110-   C19-   C18-   C17
 13780  13783  13786  13789      9     0.00   0.41840   2 ;   C110-   C19-   C18-   C17
 13780  13783  13786  13789      9     0.00   0.41840   4 ;   C110-   C19-   C18-   C17
 13780  13783  13786  13789      9     0.00   0.41840   5 ;   C110-   C19-   C18-   C17
 13780  13783  13786  13789      9     0.00   1.25520   3 ;   C110-   C19-   C18-   C17
 13781  13780  13783  13784      9     0.00   0.62760   3 ;   H10R-  C110-   C19-   H9R
 13781  13780  13783  13785      9     0.00   0.62760   3 ;   H10R-  C110-   C19-   H9S
 13781  13780  13783  13786      9     0.00   0.66944   3 ;   H10R-  C110-   C19-   C18
 13782  13780  13783  13784      9     0.00   0.62760   3 ;   H10S-  C110-   C19-   H9R
 13782  13780  13783  13785      9     0.00   0.62760   3 ;   H10S-  C110-   C19-   H9S
 13782  13780  13783  13786      9     0.00   0.66944   3 ;   H10S-  C110-   C19-   C18
 13783  13786  13789  13790      9     0.00   0.66944   3 ;    C19-   C18-   C17-   H7R
 13783  13786  13789  13791      9     0.00   0.66944   3 ;    C19-   C18-   C17-   H7S
 13783  13786  13789  13792      9     0.00   0.41840   1 ;    C19-   C18-   C17-   C16
 13783  13786  13789  13792      9     0.00   0.41840   2 ;    C19-   C18-   C17-   C16
 13783  13786  13789  13792      9     0.00   0.41840   4 ;    C19-   C18-   C17-   C16
 13783  13786  13789  13792      9     0.00   0.41840   5 ;    C19-   C18-   C17-   C16
 13783  13786  13789  13792      9     0.00   1.25520   3 ;    C19-   C18-   C17-   C16
 13784  13783  13786  13787      9     0.00   0.62760   3 ;    H9R-   C19-   C18-   H8R
 13784  13783  13786  13788      9     0.00   0.62760   3 ;    H9R-   C19-   C18-   H8S
 13784  13783  13786  13789      9     0.00   0.66944   3 ;    H9R-   C19-   C18-   C17
 13785  13783  13786  13787      9     0.00   0.62760   3 ;    H9S-   C19-   C18-   H8R
 13785  13783  13786  13788      9     0.00   0.62760   3 ;    H9S-   C19-   C18-   H8S
 13785  13783  13786  13789      9     0.00   0.66944   3 ;    H9S-   C19-   C18-   C17
 13786  13789  13792  13793      9     0.00   0.66944   3 ;    C18-   C17-   C16-   H6R
 13786  13789  13792  13794      9     0.00   0.66944   3 ;    C18-   C17-   C16-   H6S
 13786  13789  13792  13795      9     0.00   0.41840   1 ;    C18-   C17-   C16-   C15
 13786  13789  13792  13795      9     0.00   0.41840   2 ;    C18-   C17-   C16-   C15
 13786  13789  13792  13795      9     0.00   0.41840   4 ;    C18-   C17-   C16-   C15
 13786  13789  13792  13795      9     0.00   0.41840   5 ;    C18-   C17-   C16-   C15
 13786  13789  13792  13795      9     0.00   1.25520   3 ;    C18-   C17-   C16-   C15
 13787  13786  13789  13790      9     0.00   0.62760   3 ;    H8R-   C18-   C17-   H7R
 13787  13786  13789  13791      9     0.00   0.62760   3 ;    H8R-   C18-   C17-   H7S
 13787  13786  13789  13792      9     0.00   0.66944   3 ;    H8R-   C18-   C17-   C16
 13788  13786  13789  13790      9     0.00   0.62760   3 ;    H8S-   C18-   C17-   H7R
 13788  13786  13789  13791      9     0.00   0.62760   3 ;    H8S-   C18-   C17-   H7S
 13788  13786  13789  13792      9     0.00   0.66944   3 ;    H8S-   C18-   C17-   C16
 13789  13792  13795  13796      9     0.00   0.66944   3 ;    C17-   C16-   C15-   H5R
 13789  13792  13795  13797      9     0.00   0.66944   3 ;    C17-   C16-   C15-   H5S
 13789  13792  13795  13798      9     0.00   0.41840   1 ;    C17-   C16-   C15-   C14
 13789  13792  13795  13798      9     0.00   0.41840   2 ;    C17-   C16-   C15-   C14
 13789  13792  13795  13798      9     0.00   0.41840   4 ;    C17-   C16-   C15-   C14
 13789  13792  13795  13798      9     0.00   0.41840   5 ;    C17-   C16-   C15-   C14
 13789  13792  13795  13798      9     0.00   1.25520   3 ;    C17-   C16-   C15-   C14
 13790  13789  13792  13793      9     0.00   0.62760   3 ;    H7R-   C17-   C16-   H6R
 13790  13789  13792  13794      9     0.00   0.62760   3 ;    H7R-   C17-   C16-   H6S
 13790  13789  13792  13795      9     0.00   0.66944   3 ;    H7R-   C17-   C16-   C15
 13791  13789  13792  13793      9     0.00   0.62760   3 ;    H7S-   C17-   C16-   H6R
 13791  13789  13792  13794      9     0.00   0.62760   3 ;    H7S-   C17-   C16-   H6S
 13791  13789  13792  13795      9     0.00   0.66944   3 ;    H7S-   C17-   C16-   C15
 13792  13795  13798  13799      9     0.00   0.66944   3 ;    C16-   C15-   C14-   H4R
 13792  13795  13798  13800      9     0.00   0.66944   3 ;    C16-   C15-   C14-   H4S
 13792  13795  13798  13801      9     0.00   0.41840   1 ;    C16-   C15-   C14-   C13
 13792  13795  13798  13801      9     0.00   0.41840   2 ;    C16-   C15-   C14-   C13
 13792  13795  13798  13801      9     0.00   0.41840   4 ;    C16-   C15-   C14-   C13
 13792  13795  13798  13801      9     0.00   0.41840   5 ;    C16-   C15-   C14-   C13
 13792  13795  13798  13801      9     0.00   1.25520   3 ;    C16-   C15-   C14-   C13
 13793  13792  13795  13796      9     0.00   0.62760   3 ;    H6R-   C16-   C15-   H5R
 13793  13792  13795  13797      9     0.00   0.62760   3 ;    H6R-   C16-   C15-   H5S
 13793  13792  13795  13798      9     0.00   0.66944   3 ;    H6R-   C16-   C15-   C14
 13794  13792  13795  13796      9     0.00   0.62760   3 ;    H6S-   C16-   C15-   H5R
 13794  13792  13795  13797      9     0.00   0.62760   3 ;    H6S-   C16-   C15-   H5S
 13794  13792  13795  13798      9     0.00   0.66944   3 ;    H6S-   C16-   C15-   C14
 13795  13798  13801  13802      9     0.00   0.66944   3 ;    C15-   C14-   C13-   H3R
 13795  13798  13801  13803      9     0.00   0.66944   3 ;    C15-   C14-   C13-   H3S
 13795  13798  13801  13804      9     0.00   0.41840   1 ;    C15-   C14-   C13-   C12
 13795  13798  13801  13804      9     0.00   0.41840   2 ;    C15-   C14-   C13-   C12
 13795  13798  13801  13804      9     0.00   0.41840   4 ;    C15-   C14-   C13-   C12
 13795  13798  13801  13804      9     0.00   0.41840   5 ;    C15-   C14-   C13-   C12
 13795  13798  13801  13804      9     0.00   1.25520   3 ;    C15-   C14-   C13-   C12
 13796  13795  13798  13799      9     0.00   0.62760   3 ;    H5R-   C15-   C14-   H4R
 13796  13795  13798  13800      9     0.00   0.62760   3 ;    H5R-   C15-   C14-   H4S
 13796  13795  13798  13801      9     0.00   0.66944   3 ;    H5R-   C15-   C14-   C13
 13797  13795  13798  13799      9     0.00   0.62760   3 ;    H5S-   C15-   C14-   H4R
 13797  13795  13798  13800      9     0.00   0.62760   3 ;    H5S-   C15-   C14-   H4S
 13797  13795  13798  13801      9     0.00   0.66944   3 ;    H5S-   C15-   C14-   C13
 13798  13801  13804  13805      9     0.00   0.66944   3 ;    C14-   C13-   C12-   H2R
 13798  13801  13804  13806      9     0.00   0.66944   3 ;    C14-   C13-   C12-   H2S
 13799  13798  13801  13802      9     0.00   0.62760   3 ;    H4R-   C14-   C13-   H3R
 13799  13798  13801  13803      9     0.00   0.62760   3 ;    H4R-   C14-   C13-   H3S
 13799  13798  13801  13804      9     0.00   0.66944   3 ;    H4R-   C14-   C13-   C12
 13800  13798  13801  13802      9     0.00   0.62760   3 ;    H4S-   C14-   C13-   H3R
 13800  13798  13801  13803      9     0.00   0.62760   3 ;    H4S-   C14-   C13-   H3S
 13800  13798  13801  13804      9     0.00   0.66944   3 ;    H4S-   C14-   C13-   C12
 13802  13801  13804  13805      9     0.00   0.62760   3 ;    H3R-   C13-   C12-   H2R
 13802  13801  13804  13806      9     0.00   0.62760   3 ;    H3R-   C13-   C12-   H2S
 13803  13801  13804  13805      9     0.00   0.62760   3 ;    H3S-   C13-   C12-   H2R
 13803  13801  13804  13806      9     0.00   0.62760   3 ;    H3S-   C13-   C12-   H2S
 13807  13808  13811  13812      9     0.00   0.62760   3 ;   H14T-  C114-  C113-  H13R
 13807  13808  13811  13813      9     0.00   0.62760   3 ;   H14T-  C114-  C113-  H13S
 13807  13808  13811  13814      9     0.00   0.66944   3 ;   H14T-  C114-  C113-  C112
 13808  13811  13814  13815      9     0.00   0.66944   3 ;   C114-  C113-  C112-  H12R
 13808  13811  13814  13816      9     0.00   0.66944   3 ;   C114-  C113-  C112-  H12S
 13808  13811  13814  13817      9     0.00   0.41840   1 ;   C114-  C113-  C112-  C111
 13808  13811  13814  13817      9     0.00   0.41840   2 ;   C114-  C113-  C112-  C111
 13808  13811  13814  13817      9     0.00   0.41840   4 ;   C114-  C113-  C112-  C111
 13808  13811  13814  13817      9     0.00   0.41840   5 ;   C114-  C113-  C112-  C111
 13808  13811  13814  13817      9     0.00   1.25520   3 ;   C114-  C113-  C112-  C111
 13809  13808  13811  13812      9     0.00   0.62760   3 ;   H14R-  C114-  C113-  H13R
 13809  13808  13811  13813      9     0.00   0.62760   3 ;   H14R-  C114-  C113-  H13S
 13809  13808  13811  13814      9     0.00   0.66944   3 ;   H14R-  C114-  C113-  C112
 13810  13808  13811  13812      9     0.00   0.62760   3 ;   H14S-  C114-  C113-  H13R
 13810  13808  13811  13813      9     0.00   0.62760   3 ;   H14S-  C114-  C113-  H13S
 13810  13808  13811  13814      9     0.00   0.66944   3 ;   H14S-  C114-  C113-  C112
 13811  13814  13817  13818      9     0.00   0.66944   3 ;   C113-  C112-  C111-  H11R
 13811  13814  13817  13819      9     0.00   0.66944   3 ;   C113-  C112-  C111-  H11S
 13811  13814  13817  13820      9     0.00   0.41840   1 ;   C113-  C112-  C111-  C110
 13811  13814  13817  13820      9     0.00   0.41840   2 ;   C113-  C112-  C111-  C110
 13811  13814  13817  13820      9     0.00   0.41840   4 ;   C113-  C112-  C111-  C110
 13811  13814  13817  13820      9     0.00   0.41840   5 ;   C113-  C112-  C111-  C110
 13811  13814  13817  13820      9     0.00   1.25520   3 ;   C113-  C112-  C111-  C110
 13812  13811  13814  13815      9     0.00   0.62760   3 ;   H13R-  C113-  C112-  H12R
 13812  13811  13814  13816      9     0.00   0.62760   3 ;   H13R-  C113-  C112-  H12S
 13812  13811  13814  13817      9     0.00   0.66944   3 ;   H13R-  C113-  C112-  C111
 13813  13811  13814  13815      9     0.00   0.62760   3 ;   H13S-  C113-  C112-  H12R
 13813  13811  13814  13816      9     0.00   0.62760   3 ;   H13S-  C113-  C112-  H12S
 13813  13811  13814  13817      9     0.00   0.66944   3 ;   H13S-  C113-  C112-  C111
 13814  13817  13820  13821      9     0.00   0.66944   3 ;   C112-  C111-  C110-  H10R
 13814  13817  13820  13822      9     0.00   0.66944   3 ;   C112-  C111-  C110-  H10S
 13814  13817  13820  13823      9     0.00   0.41840   1 ;   C112-  C111-  C110-   C19
 13814  13817  13820  13823      9     0.00   0.41840   2 ;   C112-  C111-  C110-   C19
 13814  13817  13820  13823      9     0.00   0.41840   4 ;   C112-  C111-  C110-   C19
 13814  13817  13820  13823      9     0.00   0.41840   5 ;   C112-  C111-  C110-   C19
 13814  13817  13820  13823      9     0.00   1.25520   3 ;   C112-  C111-  C110-   C19
 13815  13814  13817  13818      9     0.00   0.62760   3 ;   H12R-  C112-  C111-  H11R
 13815  13814  13817  13819      9     0.00   0.62760   3 ;   H12R-  C112-  C111-  H11S
 13815  13814  13817  13820      9     0.00   0.66944   3 ;   H12R-  C112-  C111-  C110
 13816  13814  13817  13818      9     0.00   0.62760   3 ;   H12S-  C112-  C111-  H11R
 13816  13814  13817  13819      9     0.00   0.62760   3 ;   H12S-  C112-  C111-  H11S
 13816  13814  13817  13820      9     0.00   0.66944   3 ;   H12S-  C112-  C111-  C110
 13817  13820  13823  13824      9     0.00   0.66944   3 ;   C111-  C110-   C19-   H9R
 13817  13820  13823  13825      9     0.00   0.66944   3 ;   C111-  C110-   C19-   H9S
 13817  13820  13823  13826      9     0.00   0.41840   1 ;   C111-  C110-   C19-   C18
 13817  13820  13823  13826      9     0.00   0.41840   2 ;   C111-  C110-   C19-   C18
 13817  13820  13823  13826      9     0.00   0.41840   4 ;   C111-  C110-   C19-   C18
 13817  13820  13823  13826      9     0.00   0.41840   5 ;   C111-  C110-   C19-   C18
 13817  13820  13823  13826      9     0.00   1.25520   3 ;   C111-  C110-   C19-   C18
 13818  13817  13820  13821      9     0.00   0.62760   3 ;   H11R-  C111-  C110-  H10R
 13818  13817  13820  13822      9     0.00   0.62760   3 ;   H11R-  C111-  C110-  H10S
 13818  13817  13820  13823      9     0.00   0.66944   3 ;   H11R-  C111-  C110-   C19
 13819  13817  13820  13821      9     0.00   0.62760   3 ;   H11S-  C111-  C110-  H10R
 13819  13817  13820  13822      9     0.00   0.62760   3 ;   H11S-  C111-  C110-  H10S
 13819  13817  13820  13823      9     0.00   0.66944   3 ;   H11S-  C111-  C110-   C19
 13820  13823  13826  13827      9     0.00   0.66944   3 ;   C110-   C19-   C18-   H8R
 13820  13823  13826  13828      9     0.00   0.66944   3 ;   C110-   C19-   C18-   H8S
 13820  13823  13826  13829      9     0.00   0.41840   1 ;   C110-   C19-   C18-   C17
 13820  13823  13826  13829      9     0.00   0.41840   2 ;   C110-   C19-   C18-   C17
 13820  13823  13826  13829      9     0.00   0.41840   4 ;   C110-   C19-   C18-   C17
 13820  13823  13826  13829      9     0.00   0.41840   5 ;   C110-   C19-   C18-   C17
 13820  13823  13826  13829      9     0.00   1.25520   3 ;   C110-   C19-   C18-   C17
 13821  13820  13823  13824      9     0.00   0.62760   3 ;   H10R-  C110-   C19-   H9R
 13821  13820  13823  13825      9     0.00   0.62760   3 ;   H10R-  C110-   C19-   H9S
 13821  13820  13823  13826      9     0.00   0.66944   3 ;   H10R-  C110-   C19-   C18
 13822  13820  13823  13824      9     0.00   0.62760   3 ;   H10S-  C110-   C19-   H9R
 13822  13820  13823  13825      9     0.00   0.62760   3 ;   H10S-  C110-   C19-   H9S
 13822  13820  13823  13826      9     0.00   0.66944   3 ;   H10S-  C110-   C19-   C18
 13823  13826  13829  13830      9     0.00   0.66944   3 ;    C19-   C18-   C17-   H7R
 13823  13826  13829  13831      9     0.00   0.66944   3 ;    C19-   C18-   C17-   H7S
 13823  13826  13829  13832      9     0.00   0.41840   1 ;    C19-   C18-   C17-   C16
 13823  13826  13829  13832      9     0.00   0.41840   2 ;    C19-   C18-   C17-   C16
 13823  13826  13829  13832      9     0.00   0.41840   4 ;    C19-   C18-   C17-   C16
 13823  13826  13829  13832      9     0.00   0.41840   5 ;    C19-   C18-   C17-   C16
 13823  13826  13829  13832      9     0.00   1.25520   3 ;    C19-   C18-   C17-   C16
 13824  13823  13826  13827      9     0.00   0.62760   3 ;    H9R-   C19-   C18-   H8R
 13824  13823  13826  13828      9     0.00   0.62760   3 ;    H9R-   C19-   C18-   H8S
 13824  13823  13826  13829      9     0.00   0.66944   3 ;    H9R-   C19-   C18-   C17
 13825  13823  13826  13827      9     0.00   0.62760   3 ;    H9S-   C19-   C18-   H8R
 13825  13823  13826  13828      9     0.00   0.62760   3 ;    H9S-   C19-   C18-   H8S
 13825  13823  13826  13829      9     0.00   0.66944   3 ;    H9S-   C19-   C18-   C17
 13826  13829  13832  13833      9     0.00   0.66944   3 ;    C18-   C17-   C16-   H6R
 13826  13829  13832  13834      9     0.00   0.66944   3 ;    C18-   C17-   C16-   H6S
 13826  13829  13832  13835      9     0.00   0.41840   1 ;    C18-   C17-   C16-   C15
 13826  13829  13832  13835      9     0.00   0.41840   2 ;    C18-   C17-   C16-   C15
 13826  13829  13832  13835      9     0.00   0.41840   4 ;    C18-   C17-   C16-   C15
 13826  13829  13832  13835      9     0.00   0.41840   5 ;    C18-   C17-   C16-   C15
 13826  13829  13832  13835      9     0.00   1.25520   3 ;    C18-   C17-   C16-   C15
 13827  13826  13829  13830      9     0.00   0.62760   3 ;    H8R-   C18-   C17-   H7R
 13827  13826  13829  13831      9     0.00   0.62760   3 ;    H8R-   C18-   C17-   H7S
 13827  13826  13829  13832      9     0.00   0.66944   3 ;    H8R-   C18-   C17-   C16
 13828  13826  13829  13830      9     0.00   0.62760   3 ;    H8S-   C18-   C17-   H7R
 13828  13826  13829  13831      9     0.00   0.62760   3 ;    H8S-   C18-   C17-   H7S
 13828  13826  13829  13832      9     0.00   0.66944   3 ;    H8S-   C18-   C17-   C16
 13829  13832  13835  13836      9     0.00   0.66944   3 ;    C17-   C16-   C15-   H5R
 13829  13832  13835  13837      9     0.00   0.66944   3 ;    C17-   C16-   C15-   H5S
 13829  13832  13835  13838      9     0.00   0.41840   1 ;    C17-   C16-   C15-   C14
 13829  13832  13835  13838      9     0.00   0.41840   2 ;    C17-   C16-   C15-   C14
 13829  13832  13835  13838      9     0.00   0.41840   4 ;    C17-   C16-   C15-   C14
 13829  13832  13835  13838      9     0.00   0.41840   5 ;    C17-   C16-   C15-   C14
 13829  13832  13835  13838      9     0.00   1.25520   3 ;    C17-   C16-   C15-   C14
 13830  13829  13832  13833      9     0.00   0.62760   3 ;    H7R-   C17-   C16-   H6R
 13830  13829  13832  13834      9     0.00   0.62760   3 ;    H7R-   C17-   C16-   H6S
 13830  13829  13832  13835      9     0.00   0.66944   3 ;    H7R-   C17-   C16-   C15
 13831  13829  13832  13833      9     0.00   0.62760   3 ;    H7S-   C17-   C16-   H6R
 13831  13829  13832  13834      9     0.00   0.62760   3 ;    H7S-   C17-   C16-   H6S
 13831  13829  13832  13835      9     0.00   0.66944   3 ;    H7S-   C17-   C16-   C15
 13832  13835  13838  13839      9     0.00   0.66944   3 ;    C16-   C15-   C14-   H4R
 13832  13835  13838  13840      9     0.00   0.66944   3 ;    C16-   C15-   C14-   H4S
 13832  13835  13838  13841      9     0.00   0.41840   1 ;    C16-   C15-   C14-   C13
 13832  13835  13838  13841      9     0.00   0.41840   2 ;    C16-   C15-   C14-   C13
 13832  13835  13838  13841      9     0.00   0.41840   4 ;    C16-   C15-   C14-   C13
 13832  13835  13838  13841      9     0.00   0.41840   5 ;    C16-   C15-   C14-   C13
 13832  13835  13838  13841      9     0.00   1.25520   3 ;    C16-   C15-   C14-   C13
 13833  13832  13835  13836      9     0.00   0.62760   3 ;    H6R-   C16-   C15-   H5R
 13833  13832  13835  13837      9     0.00   0.62760   3 ;    H6R-   C16-   C15-   H5S
 13833  13832  13835  13838      9     0.00   0.66944   3 ;    H6R-   C16-   C15-   C14
 13834  13832  13835  13836      9     0.00   0.62760   3 ;    H6S-   C16-   C15-   H5R
 13834  13832  13835  13837      9     0.00   0.62760   3 ;    H6S-   C16-   C15-   H5S
 13834  13832  13835  13838      9     0.00   0.66944   3 ;    H6S-   C16-   C15-   C14
 13835  13838  13841  13842      9     0.00   0.66944   3 ;    C15-   C14-   C13-   H3R
 13835  13838  13841  13843      9     0.00   0.66944   3 ;    C15-   C14-   C13-   H3S
 13835  13838  13841  13844      9     0.00   0.41840   1 ;    C15-   C14-   C13-   C12
 13835  13838  13841  13844      9     0.00   0.41840   2 ;    C15-   C14-   C13-   C12
 13835  13838  13841  13844      9     0.00   0.41840   4 ;    C15-   C14-   C13-   C12
 13835  13838  13841  13844      9     0.00   0.41840   5 ;    C15-   C14-   C13-   C12
 13835  13838  13841  13844      9     0.00   1.25520   3 ;    C15-   C14-   C13-   C12
 13836  13835  13838  13839      9     0.00   0.62760   3 ;    H5R-   C15-   C14-   H4R
 13836  13835  13838  13840      9     0.00   0.62760   3 ;    H5R-   C15-   C14-   H4S
 13836  13835  13838  13841      9     0.00   0.66944   3 ;    H5R-   C15-   C14-   C13
 13837  13835  13838  13839      9     0.00   0.62760   3 ;    H5S-   C15-   C14-   H4R
 13837  13835  13838  13840      9     0.00   0.62760   3 ;    H5S-   C15-   C14-   H4S
 13837  13835  13838  13841      9     0.00   0.66944   3 ;    H5S-   C15-   C14-   C13
 13838  13841  13844  13845      9     0.00   0.66944   3 ;    C14-   C13-   C12-   H2R
 13838  13841  13844  13846      9     0.00   0.66944   3 ;    C14-   C13-   C12-   H2S
 13838  13841  13844  13847      9     0.00   0.65270   3 ;    C14-   C13-   C12-   C11
 13839  13838  13841  13842      9     0.00   0.62760   3 ;    H4R-   C14-   C13-   H3R
 13839  13838  13841  13843      9     0.00   0.62760   3 ;    H4R-   C14-   C13-   H3S
 13839  13838  13841  13844      9     0.00   0.66944   3 ;    H4R-   C14-   C13-   C12
 13840  13838  13841  13842      9     0.00   0.62760   3 ;    H4S-   C14-   C13-   H3R
 13840  13838  13841  13843      9     0.00   0.62760   3 ;    H4S-   C14-   C13-   H3S
 13840  13838  13841  13844      9     0.00   0.66944   3 ;    H4S-   C14-   C13-   C12
 13841  13844  13847  13848      9   180.00   0.00000   2 ;    C13-   C12-   C11-   O12
 13841  13844  13847  13849      9   180.00   0.00000   2 ;    C13-   C12-   C11-   O11
 13842  13841  13844  13845      9     0.00   0.62760   3 ;    H3R-   C13-   C12-   H2R
 13842  13841  13844  13846      9     0.00   0.62760   3 ;    H3R-   C13-   C12-   H2S
 13842  13841  13844  13847      9     0.00   0.65270   3 ;    H3R-   C13-   C12-   C11
 13843  13841  13844  13845      9     0.00   0.62760   3 ;    H3S-   C13-   C12-   H2R
 13843  13841  13844  13846      9     0.00   0.62760   3 ;    H3S-   C13-   C12-   H2S
 13843  13841  13844  13847      9     0.00   0.65270   3 ;    H3S-   C13-   C12-   C11
 13844  13847  13849  13850      9   180.00  11.29680   2 ;    C12-   C11-   O11-    C1
 13845  13844  13847  13848      9     0.00   3.34720   1 ;    H2R-   C12-   C11-   O12
 13845  13844  13847  13848      9   180.00   0.33472   3 ;    H2R-   C12-   C11-   O12
 13845  13844  13847  13849      9   180.00   0.00000   2 ;    H2R-   C12-   C11-   O11
 13846  13844  13847  13848      9     0.00   3.34720   1 ;    H2S-   C12-   C11-   O12
 13846  13844  13847  13848      9   180.00   0.33472   3 ;    H2S-   C12-   C11-   O12
 13846  13844  13847  13849      9   180.00   0.00000   2 ;    H2S-   C12-   C11-   O11
 13847  13849  13850  13851      9     0.00   1.60247   3 ;    C11-   O11-    C1-    HR
 13847  13849  13850  13852      9     0.00   1.60247   3 ;    C11-   O11-    C1-    HS
 13847  13849  13850  13853      9     0.00  -0.41840   1 ;    C11-   O11-    C1-    C2
 13848  13847  13849  13850      9   180.00   5.85760   1 ;    O12-   C11-   O11-    C1
 13848  13847  13849  13850      9   180.00  11.29680   2 ;    O12-   C11-   O11-    C1
 13849  13850  13853  13854      9     0.00   0.00000   0 ;    O11-    C1-    C2-    HX
 13849  13850  13853  13854      9     0.00   1.04600   1 ;    O11-    C1-    C2-    HX
 13849  13850  13853  13855      9     0.00   0.00000   0 ;    O11-    C1-    C2-    C3
 13849  13850  13853  13855      9     0.00   0.00000   0 ;    O11-    C1-    C2-    C3
 13849  13850  13853  13855      9     0.00   0.00000   0 ;    O11-    C1-    C2-    C3
 13849  13850  13853  13855      9     0.00   0.00000   0 ;    O11-    C1-    C2-    C3
 13849  13850  13853  13855      9     0.00   0.00000   0 ;    O11-    C1-    C2-    C3
 13849  13850  13853  13882      9     0.00   1.25520   2 ;    O11-    C1-    C2-   O21
 13849  13850  13853  13882      9     0.00   4.18400   3 ;    O11-    C1-    C2-   O21
 13849  13850  13853  13882      9   180.00  -0.41840   1 ;    O11-    C1-    C2-   O21
 13850  13853  13855  13856      9     0.00   0.65270   3 ;     C1-    C2-    C3-    HA
 13850  13853  13855  13857      9     0.00   0.65270   3 ;     C1-    C2-    C3-    HB
 13850  13853  13855  13858      9   180.00   3.34720   1 ;     C1-    C2-    C3-   O31
 13850  13853  13882  13883      9     0.00  -0.41840   1 ;     C1-    C2-   O21-   C21
 13851  13850  13853  13854      9     0.00   0.65270   3 ;     HR-    C1-    C2-    HX
 13851  13850  13853  13855      9     0.00   0.65270   3 ;     HR-    C1-    C2-    C3
 13851  13850  13853  13882      9     0.00   0.00000   0 ;     HR-    C1-    C2-   O21
 13851  13850  13853  13882      9     0.00   1.04600   1 ;     HR-    C1-    C2-   O21
 13852  13850  13853  13854      9     0.00   0.65270   3 ;     HS-    C1-    C2-    HX
 13852  13850  13853  13855      9     0.00   0.65270   3 ;     HS-    C1-    C2-    C3
 13852  13850  13853  13882      9     0.00   0.00000   0 ;     HS-    C1-    C2-   O21
 13852  13850  13853  13882      9     0.00   1.04600   1 ;     HS-    C1-    C2-   O21
 13853  13855  13858  13859      9     0.00   0.00000   0 ;     C2-    C3-   O31-   P31
 13853  13855  13858  13859      9   180.00  -3.34720   2 ;     C2-    C3-   O31-   P31
 13853  13882  13883  13884      9   180.00   5.85760   1 ;     C2-   O21-   C21-   O22
 13853  13882  13883  13884      9   180.00  11.29680   2 ;     C2-   O21-   C21-   O22
 13853  13882  13883  13922      9   180.00  11.29680   2 ;     C2-   O21-   C21-   C12
 13854  13853  13855  13856      9     0.00   0.65270   3 ;     HX-    C2-    C3-    HA
 13854  13853  13855  13857      9     0.00   0.65270   3 ;     HX-    C2-    C3-    HB
 13854  13853  13855  13858      9     0.00   0.00000   0 ;     HX-    C2-    C3-   O31
 13854  13853  13855  13858      9     0.00   1.04600   1 ;     HX-    C2-    C3-   O31
 13854  13853  13882  13883      9     0.00   1.60247   3 ;     HX-    C2-   O21-   C21
 13855  13853  13882  13883      9     0.00  -0.41840   1 ;     C3-    C2-   O21-   C21
 13855  13858  13859  13860      9     0.00   2.51040   3 ;     C3-   O31-   P31-   O32
 13855  13858  13859  13860      9     0.00   9.62320   2 ;     C3-   O31-   P31-   O32
 13855  13858  13859  13880      9     0.00   0.00000   0 ;     C3-   O31-   P31-   O33
 13855  13858  13859  13880      9     0.00   0.00000   0 ;     C3-   O31-   P31-   O33
 13855  13858  13859  13880      9     0.00   0.00000   0 ;     C3-   O31-   P31-   O33
 13855  13858  13859  13880      9     0.00   0.00000   0 ;     C3-   O31-   P31-   O33
 13855  13858  13859  13880      9     0.00   0.83680   2 ;     C3-   O31-   P31-   O33
 13855  13858  13859  13881      9     0.00   0.00000   0 ;     C3-   O31-   P31-   O34
 13855  13858  13859  13881      9     0.00   0.00000   0 ;     C3-   O31-   P31-   O34
 13855  13858  13859  13881      9     0.00   0.00000   0 ;     C3-   O31-   P31-   O34
 13855  13858  13859  13881      9     0.00   0.00000   0 ;     C3-   O31-   P31-   O34
 13855  13858  13859  13881      9     0.00   0.83680   2 ;     C3-   O31-   P31-   O34
 13856  13855  13853  13882      9     0.00   0.00000   0 ;     HA-    C3-    C2-   O21
 13856  13855  13853  13882      9     0.00   1.04600   1 ;     HA-    C3-    C2-   O21
 13856  13855  13858  13859      9     0.00   0.00000   0 ;     HA-    C3-   O31-   P31
 13856  13855  13858  13859      9     0.00   0.00000   0 ;     HA-    C3-   O31-   P31
 13856  13855  13858  13859      9     0.00   0.00000   0 ;     HA-    C3-   O31-   P31
 13856  13855  13858  13859      9     0.00   0.00000   0 ;     HA-    C3-   O31-   P31
 13856  13855  13858  13859      9     0.00   1.60247   3 ;     HA-    C3-   O31-   P31
 13857  13855  13853  13882      9     0.00   0.00000   0 ;     HB-    C3-    C2-   O21
 13857  13855  13853  13882      9     0.00   1.04600   1 ;     HB-    C3-    C2-   O21
 13857  13855  13858  13859      9     0.00   0.00000   0 ;     HB-    C3-   O31-   P31
 13857  13855  13858  13859      9     0.00   0.00000   0 ;     HB-    C3-   O31-   P31
 13857  13855  13858  13859      9     0.00   0.00000   0 ;     HB-    C3-   O31-   P31
 13857  13855  13858  13859      9     0.00   0.00000   0 ;     HB-    C3-   O31-   P31
 13857  13855  13858  13859      9     0.00   1.60247   3 ;     HB-    C3-   O31-   P31
 13858  13855  13853  13882      9     0.00   0.00000   0 ;    O31-    C3-    C2-   O21
 13858  13855  13853  13882      9     0.00   0.00000   0 ;    O31-    C3-    C2-   O21
 13858  13855  13853  13882      9     0.00   0.00000   0 ;    O31-    C3-    C2-   O21
 13858  13855  13853  13882      9     0.00   0.00000   0 ;    O31-    C3-    C2-   O21
 13858  13855  13853  13882      9     0.00   0.00000   0 ;    O31-    C3-    C2-   O21
 13858  13859  13860  13861      9     0.00   2.51040   3 ;    O31-   P31-   O32-   C31
 13858  13859  13860  13861      9     0.00   9.62320   2 ;    O31-   P31-   O32-   C31
 13859  13860  13861  13862      9     0.00   0.00000   0 ;    P31-   O32-   C31-   H1A
 13859  13860  13861  13862      9     0.00   0.00000   0 ;    P31-   O32-   C31-   H1A
 13859  13860  13861  13862      9     0.00   0.00000   0 ;    P31-   O32-   C31-   H1A
 13859  13860  13861  13862      9     0.00   0.00000   0 ;    P31-   O32-   C31-   H1A
 13859  13860  13861  13862      9     0.00   1.60247   3 ;    P31-   O32-   C31-   H1A
 13859  13860  13861  13863      9     0.00   0.00000   0 ;    P31-   O32-   C31-   H1B
 13859  13860  13861  13863      9     0.00   0.00000   0 ;    P31-   O32-   C31-   H1B
 13859  13860  13861  13863      9     0.00   0.00000   0 ;    P31-   O32-   C31-   H1B
 13859  13860  13861  13863      9     0.00   0.00000   0 ;    P31-   O32-   C31-   H1B
 13859  13860  13861  13863      9     0.00   1.60247   3 ;    P31-   O32-   C31-   H1B
 13859  13860  13861  13864      9     0.00   0.00000   0 ;    P31-   O32-   C31-   C32
 13859  13860  13861  13864      9   180.00  -3.34720   2 ;    P31-   O32-   C31-   C32
 13860  13861  13864  13865      9     0.00   0.65270   3 ;    O32-   C31-   C32-   H2A
 13860  13861  13864  13866      9     0.00   0.65270   3 ;    O32-   C31-   C32-   H2B
 13860  13861  13864  13867      9     0.00   4.18400   3 ;    O32-   C31-   C32-   N31
 13861  13860  13859  13880      9     0.00   0.00000   0 ;    C31-   O32-   P31-   O33
 13861  13860  13859  13880      9     0.00   0.00000   0 ;    C31-   O32-   P31-   O33
 13861  13860  13859  13880      9     0.00   0.00000   0 ;    C31-   O32-   P31-   O33
 13861  13860  13859  13880      9     0.00   0.00000   0 ;    C31-   O32-   P31-   O33
 13861  13860  13859  13880      9     0.00   0.83680   2 ;    C31-   O32-   P31-   O33
 13861  13860  13859  13881      9     0.00   0.00000   0 ;    C31-   O32-   P31-   O34
 13861  13860  13859  13881      9     0.00   0.00000   0 ;    C31-   O32-   P31-   O34
 13861  13860  13859  13881      9     0.00   0.00000   0 ;    C31-   O32-   P31-   O34
 13861  13860  13859  13881      9     0.00   0.00000   0 ;    C31-   O32-   P31-   O34
 13861  13860  13859  13881      9     0.00   0.83680   2 ;    C31-   O32-   P31-   O34
 13861  13864  13867  13868      9     0.00   0.65270   3 ;    C31-   C32-   N31-   C33
 13861  13864  13867  13872      9     0.00   0.65270   3 ;    C31-   C32-   N31-   C34
 13861  13864  13867  13876      9     0.00   0.65270   3 ;    C31-   C32-   N31-   C35
 13862  13861  13864  13865      9     0.00   0.65270   3 ;    H1A-   C31-   C32-   H2A
 13862  13861  13864  13866      9     0.00   0.65270   3 ;    H1A-   C31-   C32-   H2B
 13862  13861  13864  13867      9     0.00   0.65270   3 ;    H1A-   C31-   C32-   N31
 13863  13861  13864  13865      9     0.00   0.65270   3 ;    H1B-   C31-   C32-   H2A
 13863  13861  13864  13866      9     0.00   0.65270   3 ;    H1B-   C31-   C32-   H2B
 13863  13861  13864  13867      9     0.00   0.65270   3 ;    H1B-   C31-   C32-   N31
 13864  13867  13868  13869      9     0.00   0.65270   3 ;    C32-   N31-   C33-   H3A
 13864  13867  13868  13870      9     0.00   0.65270   3 ;    C32-   N31-   C33-   H3B
 13864  13867  13868  13871      9     0.00   0.65270   3 ;    C32-   N31-   C33-   H3C
 13864  13867  13872  13873      9     0.00   0.65270   3 ;    C32-   N31-   C34-   H4A
 13864  13867  13872  13874      9     0.00   0.65270   3 ;    C32-   N31-   C34-   H4B
 13864  13867  13872  13875      9     0.00   0.65270   3 ;    C32-   N31-   C34-   H4C
 13864  13867  13876  13877      9     0.00   0.65270   3 ;    C32-   N31-   C35-   H5A
 13864  13867  13876  13878      9     0.00   0.65270   3 ;    C32-   N31-   C35-   H5B
 13864  13867  13876  13879      9     0.00   0.65270   3 ;    C32-   N31-   C35-   H5C
 13865  13864  13867  13868      9     0.00   0.65270   3 ;    H2A-   C32-   N31-   C33
 13865  13864  13867  13872      9     0.00   0.65270   3 ;    H2A-   C32-   N31-   C34
 13865  13864  13867  13876      9     0.00   0.65270   3 ;    H2A-   C32-   N31-   C35
 13866  13864  13867  13868      9     0.00   0.65270   3 ;    H2B-   C32-   N31-   C33
 13866  13864  13867  13872      9     0.00   0.65270   3 ;    H2B-   C32-   N31-   C34
 13866  13864  13867  13876      9     0.00   0.65270   3 ;    H2B-   C32-   N31-   C35
 13868  13867  13872  13873      9     0.00   0.65270   3 ;    C33-   N31-   C34-   H4A
 13868  13867  13872  13874      9     0.00   0.65270   3 ;    C33-   N31-   C34-   H4B
 13868  13867  13872  13875      9     0.00   0.65270   3 ;    C33-   N31-   C34-   H4C
 13868  13867  13876  13877      9     0.00   0.65270   3 ;    C33-   N31-   C35-   H5A
 13868  13867  13876  13878      9     0.00   0.65270   3 ;    C33-   N31-   C35-   H5B
 13868  13867  13876  13879      9     0.00   0.65270   3 ;    C33-   N31-   C35-   H5C
 13869  13868  13867  13872      9     0.00   0.65270   3 ;    H3A-   C33-   N31-   C34
 13869  13868  13867  13876      9     0.00   0.65270   3 ;    H3A-   C33-   N31-   C35
 13870  13868  13867  13872      9     0.00   0.65270   3 ;    H3B-   C33-   N31-   C34
 13870  13868  13867  13876      9     0.00   0.65270   3 ;    H3B-   C33-   N31-   C35
 13871  13868  13867  13872      9     0.00   0.65270   3 ;    H3C-   C33-   N31-   C34
 13871  13868  13867  13876      9     0.00   0.65270   3 ;    H3C-   C33-   N31-   C35
 13872  13867  13876  13877      9     0.00   0.65270   3 ;    C34-   N31-   C35-   H5A
 13872  13867  13876  13878      9     0.00   0.65270   3 ;    C34-   N31-   C35-   H5B
 13872  13867  13876  13879      9     0.00   0.65270   3 ;    C34-   N31-   C35-   H5C
 13873  13872  13867  13876      9     0.00   0.65270   3 ;    H4A-   C34-   N31-   C35
 13874  13872  13867  13876      9     0.00   0.65270   3 ;    H4B-   C34-   N31-   C35
 13875  13872  13867  13876      9     0.00   0.65270   3 ;    H4C-   C34-   N31-   C35
 13882  13883  13922  13919      9   180.00   0.00000   2 ;    O21-   C21-   C12-   C13
 13882  13883  13922  13923      9   180.00   0.00000   2 ;    O21-   C21-   C12-   H2R
 13882  13883  13922  13924      9   180.00   0.00000   2 ;    O21-   C21-   C12-   H2S
 13883  13922  13919  13916      9     0.00   0.65270   3 ;    C21-   C12-   C13-   C14
 13883  13922  13919  13920      9     0.00   0.65270   3 ;    C21-   C12-   C13-   H3R
 13883  13922  13919  13921      9     0.00   0.65270   3 ;    C21-   C12-   C13-   H3S
 13884  13883  13922  13919      9   180.00   0.00000   2 ;    O22-   C21-   C12-   C13
 13884  13883  13922  13923      9     0.00   3.34720   1 ;    O22-   C21-   C12-   H2R
 13884  13883  13922  13923      9   180.00   0.33472   3 ;    O22-   C21-   C12-   H2R
 13884  13883  13922  13924      9     0.00   3.34720   1 ;    O22-   C21-   C12-   H2S
 13884  13883  13922  13924      9   180.00   0.33472   3 ;    O22-   C21-   C12-   H2S
 13885  13886  13889  13890      9     0.00   0.62760   3 ;   H14T-  C114-  C113-  H13R
 13885  13886  13889  13891      9     0.00   0.62760   3 ;   H14T-  C114-  C113-  H13S
 13885  13886  13889  13892      9     0.00   0.66944   3 ;   H14T-  C114-  C113-  C112
 13886  13889  13892  13893      9     0.00   0.66944   3 ;   C114-  C113-  C112-  H12R
 13886  13889  13892  13894      9     0.00   0.66944   3 ;   C114-  C113-  C112-  H12S
 13886  13889  13892  13895      9     0.00   0.41840   1 ;   C114-  C113-  C112-  C111
 13886  13889  13892  13895      9     0.00   0.41840   2 ;   C114-  C113-  C112-  C111
 13886  13889  13892  13895      9     0.00   0.41840   4 ;   C114-  C113-  C112-  C111
 13886  13889  13892  13895      9     0.00   0.41840   5 ;   C114-  C113-  C112-  C111
 13886  13889  13892  13895      9     0.00   1.25520   3 ;   C114-  C113-  C112-  C111
 13887  13886  13889  13890      9     0.00   0.62760   3 ;   H14R-  C114-  C113-  H13R
 13887  13886  13889  13891      9     0.00   0.62760   3 ;   H14R-  C114-  C113-  H13S
 13887  13886  13889  13892      9     0.00   0.66944   3 ;   H14R-  C114-  C113-  C112
 13888  13886  13889  13890      9     0.00   0.62760   3 ;   H14S-  C114-  C113-  H13R
 13888  13886  13889  13891      9     0.00   0.62760   3 ;   H14S-  C114-  C113-  H13S
 13888  13886  13889  13892      9     0.00   0.66944   3 ;   H14S-  C114-  C113-  C112
 13889  13892  13895  13896      9     0.00   0.66944   3 ;   C113-  C112-  C111-  H11R
 13889  13892  13895  13897      9     0.00   0.66944   3 ;   C113-  C112-  C111-  H11S
 13889  13892  13895  13898      9     0.00   0.41840   1 ;   C113-  C112-  C111-  C110
 13889  13892  13895  13898      9     0.00   0.41840   2 ;   C113-  C112-  C111-  C110
 13889  13892  13895  13898      9     0.00   0.41840   4 ;   C113-  C112-  C111-  C110
 13889  13892  13895  13898      9     0.00   0.41840   5 ;   C113-  C112-  C111-  C110
 13889  13892  13895  13898      9     0.00   1.25520   3 ;   C113-  C112-  C111-  C110
 13890  13889  13892  13893      9     0.00   0.62760   3 ;   H13R-  C113-  C112-  H12R
 13890  13889  13892  13894      9     0.00   0.62760   3 ;   H13R-  C113-  C112-  H12S
 13890  13889  13892  13895      9     0.00   0.66944   3 ;   H13R-  C113-  C112-  C111
 13891  13889  13892  13893      9     0.00   0.62760   3 ;   H13S-  C113-  C112-  H12R
 13891  13889  13892  13894      9     0.00   0.62760   3 ;   H13S-  C113-  C112-  H12S
 13891  13889  13892  13895      9     0.00   0.66944   3 ;   H13S-  C113-  C112-  C111
 13892  13895  13898  13899      9     0.00   0.66944   3 ;   C112-  C111-  C110-  H10R
 13892  13895  13898  13900      9     0.00   0.66944   3 ;   C112-  C111-  C110-  H10S
 13892  13895  13898  13901      9     0.00   0.41840   1 ;   C112-  C111-  C110-   C19
 13892  13895  13898  13901      9     0.00   0.41840   2 ;   C112-  C111-  C110-   C19
 13892  13895  13898  13901      9     0.00   0.41840   4 ;   C112-  C111-  C110-   C19
 13892  13895  13898  13901      9     0.00   0.41840   5 ;   C112-  C111-  C110-   C19
 13892  13895  13898  13901      9     0.00   1.25520   3 ;   C112-  C111-  C110-   C19
 13893  13892  13895  13896      9     0.00   0.62760   3 ;   H12R-  C112-  C111-  H11R
 13893  13892  13895  13897      9     0.00   0.62760   3 ;   H12R-  C112-  C111-  H11S
 13893  13892  13895  13898      9     0.00   0.66944   3 ;   H12R-  C112-  C111-  C110
 13894  13892  13895  13896      9     0.00   0.62760   3 ;   H12S-  C112-  C111-  H11R
 13894  13892  13895  13897      9     0.00   0.62760   3 ;   H12S-  C112-  C111-  H11S
 13894  13892  13895  13898      9     0.00   0.66944   3 ;   H12S-  C112-  C111-  C110
 13895  13898  13901  13902      9     0.00   0.66944   3 ;   C111-  C110-   C19-   H9R
 13895  13898  13901  13903      9     0.00   0.66944   3 ;   C111-  C110-   C19-   H9S
 13895  13898  13901  13904      9     0.00   0.41840   1 ;   C111-  C110-   C19-   C18
 13895  13898  13901  13904      9     0.00   0.41840   2 ;   C111-  C110-   C19-   C18
 13895  13898  13901  13904      9     0.00   0.41840   4 ;   C111-  C110-   C19-   C18
 13895  13898  13901  13904      9     0.00   0.41840   5 ;   C111-  C110-   C19-   C18
 13895  13898  13901  13904      9     0.00   1.25520   3 ;   C111-  C110-   C19-   C18
 13896  13895  13898  13899      9     0.00   0.62760   3 ;   H11R-  C111-  C110-  H10R
 13896  13895  13898  13900      9     0.00   0.62760   3 ;   H11R-  C111-  C110-  H10S
 13896  13895  13898  13901      9     0.00   0.66944   3 ;   H11R-  C111-  C110-   C19
 13897  13895  13898  13899      9     0.00   0.62760   3 ;   H11S-  C111-  C110-  H10R
 13897  13895  13898  13900      9     0.00   0.62760   3 ;   H11S-  C111-  C110-  H10S
 13897  13895  13898  13901      9     0.00   0.66944   3 ;   H11S-  C111-  C110-   C19
 13898  13901  13904  13905      9     0.00   0.66944   3 ;   C110-   C19-   C18-   H8R
 13898  13901  13904  13906      9     0.00   0.66944   3 ;   C110-   C19-   C18-   H8S
 13898  13901  13904  13907      9     0.00   0.41840   1 ;   C110-   C19-   C18-   C17
 13898  13901  13904  13907      9     0.00   0.41840   2 ;   C110-   C19-   C18-   C17
 13898  13901  13904  13907      9     0.00   0.41840   4 ;   C110-   C19-   C18-   C17
 13898  13901  13904  13907      9     0.00   0.41840   5 ;   C110-   C19-   C18-   C17
 13898  13901  13904  13907      9     0.00   1.25520   3 ;   C110-   C19-   C18-   C17
 13899  13898  13901  13902      9     0.00   0.62760   3 ;   H10R-  C110-   C19-   H9R
 13899  13898  13901  13903      9     0.00   0.62760   3 ;   H10R-  C110-   C19-   H9S
 13899  13898  13901  13904      9     0.00   0.66944   3 ;   H10R-  C110-   C19-   C18
 13900  13898  13901  13902      9     0.00   0.62760   3 ;   H10S-  C110-   C19-   H9R
 13900  13898  13901  13903      9     0.00   0.62760   3 ;   H10S-  C110-   C19-   H9S
 13900  13898  13901  13904      9     0.00   0.66944   3 ;   H10S-  C110-   C19-   C18
 13901  13904  13907  13908      9     0.00   0.66944   3 ;    C19-   C18-   C17-   H7R
 13901  13904  13907  13909      9     0.00   0.66944   3 ;    C19-   C18-   C17-   H7S
 13901  13904  13907  13910      9     0.00   0.41840   1 ;    C19-   C18-   C17-   C16
 13901  13904  13907  13910      9     0.00   0.41840   2 ;    C19-   C18-   C17-   C16
 13901  13904  13907  13910      9     0.00   0.41840   4 ;    C19-   C18-   C17-   C16
 13901  13904  13907  13910      9     0.00   0.41840   5 ;    C19-   C18-   C17-   C16
 13901  13904  13907  13910      9     0.00   1.25520   3 ;    C19-   C18-   C17-   C16
 13902  13901  13904  13905      9     0.00   0.62760   3 ;    H9R-   C19-   C18-   H8R
 13902  13901  13904  13906      9     0.00   0.62760   3 ;    H9R-   C19-   C18-   H8S
 13902  13901  13904  13907      9     0.00   0.66944   3 ;    H9R-   C19-   C18-   C17
 13903  13901  13904  13905      9     0.00   0.62760   3 ;    H9S-   C19-   C18-   H8R
 13903  13901  13904  13906      9     0.00   0.62760   3 ;    H9S-   C19-   C18-   H8S
 13903  13901  13904  13907      9     0.00   0.66944   3 ;    H9S-   C19-   C18-   C17
 13904  13907  13910  13911      9     0.00   0.66944   3 ;    C18-   C17-   C16-   H6R
 13904  13907  13910  13912      9     0.00   0.66944   3 ;    C18-   C17-   C16-   H6S
 13904  13907  13910  13913      9     0.00   0.41840   1 ;    C18-   C17-   C16-   C15
 13904  13907  13910  13913      9     0.00   0.41840   2 ;    C18-   C17-   C16-   C15
 13904  13907  13910  13913      9     0.00   0.41840   4 ;    C18-   C17-   C16-   C15
 13904  13907  13910  13913      9     0.00   0.41840   5 ;    C18-   C17-   C16-   C15
 13904  13907  13910  13913      9     0.00   1.25520   3 ;    C18-   C17-   C16-   C15
 13905  13904  13907  13908      9     0.00   0.62760   3 ;    H8R-   C18-   C17-   H7R
 13905  13904  13907  13909      9     0.00   0.62760   3 ;    H8R-   C18-   C17-   H7S
 13905  13904  13907  13910      9     0.00   0.66944   3 ;    H8R-   C18-   C17-   C16
 13906  13904  13907  13908      9     0.00   0.62760   3 ;    H8S-   C18-   C17-   H7R
 13906  13904  13907  13909      9     0.00   0.62760   3 ;    H8S-   C18-   C17-   H7S
 13906  13904  13907  13910      9     0.00   0.66944   3 ;    H8S-   C18-   C17-   C16
 13907  13910  13913  13914      9     0.00   0.66944   3 ;    C17-   C16-   C15-   H5R
 13907  13910  13913  13915      9     0.00   0.66944   3 ;    C17-   C16-   C15-   H5S
 13907  13910  13913  13916      9     0.00   0.41840   1 ;    C17-   C16-   C15-   C14
 13907  13910  13913  13916      9     0.00   0.41840   2 ;    C17-   C16-   C15-   C14
 13907  13910  13913  13916      9     0.00   0.41840   4 ;    C17-   C16-   C15-   C14
 13907  13910  13913  13916      9     0.00   0.41840   5 ;    C17-   C16-   C15-   C14
 13907  13910  13913  13916      9     0.00   1.25520   3 ;    C17-   C16-   C15-   C14
 13908  13907  13910  13911      9     0.00   0.62760   3 ;    H7R-   C17-   C16-   H6R
 13908  13907  13910  13912      9     0.00   0.62760   3 ;    H7R-   C17-   C16-   H6S
 13908  13907  13910  13913      9     0.00   0.66944   3 ;    H7R-   C17-   C16-   C15
 13909  13907  13910  13911      9     0.00   0.62760   3 ;    H7S-   C17-   C16-   H6R
 13909  13907  13910  13912      9     0.00   0.62760   3 ;    H7S-   C17-   C16-   H6S
 13909  13907  13910  13913      9     0.00   0.66944   3 ;    H7S-   C17-   C16-   C15
 13910  13913  13916  13917      9     0.00   0.66944   3 ;    C16-   C15-   C14-   H4R
 13910  13913  13916  13918      9     0.00   0.66944   3 ;    C16-   C15-   C14-   H4S
 13910  13913  13916  13919      9     0.00   0.41840   1 ;    C16-   C15-   C14-   C13
 13910  13913  13916  13919      9     0.00   0.41840   2 ;    C16-   C15-   C14-   C13
 13910  13913  13916  13919      9     0.00   0.41840   4 ;    C16-   C15-   C14-   C13
 13910  13913  13916  13919      9     0.00   0.41840   5 ;    C16-   C15-   C14-   C13
 13910  13913  13916  13919      9     0.00   1.25520   3 ;    C16-   C15-   C14-   C13
 13911  13910  13913  13914      9     0.00   0.62760   3 ;    H6R-   C16-   C15-   H5R
 13911  13910  13913  13915      9     0.00   0.62760   3 ;    H6R-   C16-   C15-   H5S
 13911  13910  13913  13916      9     0.00   0.66944   3 ;    H6R-   C16-   C15-   C14
 13912  13910  13913  13914      9     0.00   0.62760   3 ;    H6S-   C16-   C15-   H5R
 13912  13910  13913  13915      9     0.00   0.62760   3 ;    H6S-   C16-   C15-   H5S
 13912  13910  13913  13916      9     0.00   0.66944   3 ;    H6S-   C16-   C15-   C14
 13913  13916  13919  13920      9     0.00   0.66944   3 ;    C15-   C14-   C13-   H3R
 13913  13916  13919  13921      9     0.00   0.66944   3 ;    C15-   C14-   C13-   H3S
 13913  13916  13919  13922      9     0.00   0.41840   1 ;    C15-   C14-   C13-   C12
 13913  13916  13919  13922      9     0.00   0.41840   2 ;    C15-   C14-   C13-   C12
 13913  13916  13919  13922      9     0.00   0.41840   4 ;    C15-   C14-   C13-   C12
 13913  13916  13919  13922      9     0.00   0.41840   5 ;    C15-   C14-   C13-   C12
 13913  13916  13919  13922      9     0.00   1.25520   3 ;    C15-   C14-   C13-   C12
 13914  13913  13916  13917      9     0.00   0.62760   3 ;    H5R-   C15-   C14-   H4R
 13914  13913  13916  13918      9     0.00   0.62760   3 ;    H5R-   C15-   C14-   H4S
 13914  13913  13916  13919      9     0.00   0.66944   3 ;    H5R-   C15-   C14-   C13
 13915  13913  13916  13917      9     0.00   0.62760   3 ;    H5S-   C15-   C14-   H4R
 13915  13913  13916  13918      9     0.00   0.62760   3 ;    H5S-   C15-   C14-   H4S
 13915  13913  13916  13919      9     0.00   0.66944   3 ;    H5S-   C15-   C14-   C13
 13916  13919  13922  13923      9     0.00   0.66944   3 ;    C14-   C13-   C12-   H2R
 13916  13919  13922  13924      9     0.00   0.66944   3 ;    C14-   C13-   C12-   H2S
 13917  13916  13919  13920      9     0.00   0.62760   3 ;    H4R-   C14-   C13-   H3R
 13917  13916  13919  13921      9     0.00   0.62760   3 ;    H4R-   C14-   C13-   H3S
 13917  13916  13919  13922      9     0.00   0.66944   3 ;    H4R-   C14-   C13-   C12
 13918  13916  13919  13920      9     0.00   0.62760   3 ;    H4S-   C14-   C13-   H3R
 13918  13916  13919  13921      9     0.00   0.62760   3 ;    H4S-   C14-   C13-   H3S
 13918  13916  13919  13922      9     0.00   0.66944   3 ;    H4S-   C14-   C13-   C12
 13920  13919  13922  13923      9     0.00   0.62760   3 ;    H3R-   C13-   C12-   H2R
 13920  13919  13922  13924      9     0.00   0.62760   3 ;    H3R-   C13-   C12-   H2S
 13921  13919  13922  13923      9     0.00   0.62760   3 ;    H3S-   C13-   C12-   H2R
 13921  13919  13922  13924      9     0.00   0.62760   3 ;    H3S-   C13-   C12-   H2S
 13925  13926  13929  13930      9     0.00   0.62760   3 ;   H14T-  C114-  C113-  H13R
 13925  13926  13929  13931      9     0.00   0.62760   3 ;   H14T-  C114-  C113-  H13S
 13925  13926  13929  13932      9     0.00   0.66944   3 ;   H14T-  C114-  C113-  C112
 13926  13929  13932  13933      9     0.00   0.66944   3 ;   C114-  C113-  C112-  H12R
 13926  13929  13932  13934      9     0.00   0.66944   3 ;   C114-  C113-  C112-  H12S
 13926  13929  13932  13935      9     0.00   0.41840   1 ;   C114-  C113-  C112-  C111
 13926  13929  13932  13935      9     0.00   0.41840   2 ;   C114-  C113-  C112-  C111
 13926  13929  13932  13935      9     0.00   0.41840   4 ;   C114-  C113-  C112-  C111
 13926  13929  13932  13935      9     0.00   0.41840   5 ;   C114-  C113-  C112-  C111
 13926  13929  13932  13935      9     0.00   1.25520   3 ;   C114-  C113-  C112-  C111
 13927  13926  13929  13930      9     0.00   0.62760   3 ;   H14R-  C114-  C113-  H13R
 13927  13926  13929  13931      9     0.00   0.62760   3 ;   H14R-  C114-  C113-  H13S
 13927  13926  13929  13932      9     0.00   0.66944   3 ;   H14R-  C114-  C113-  C112
 13928  13926  13929  13930      9     0.00   0.62760   3 ;   H14S-  C114-  C113-  H13R
 13928  13926  13929  13931      9     0.00   0.62760   3 ;   H14S-  C114-  C113-  H13S
 13928  13926  13929  13932      9     0.00   0.66944   3 ;   H14S-  C114-  C113-  C112
 13929  13932  13935  13936      9     0.00   0.66944   3 ;   C113-  C112-  C111-  H11R
 13929  13932  13935  13937      9     0.00   0.66944   3 ;   C113-  C112-  C111-  H11S
 13929  13932  13935  13938      9     0.00   0.41840   1 ;   C113-  C112-  C111-  C110
 13929  13932  13935  13938      9     0.00   0.41840   2 ;   C113-  C112-  C111-  C110
 13929  13932  13935  13938      9     0.00   0.41840   4 ;   C113-  C112-  C111-  C110
 13929  13932  13935  13938      9     0.00   0.41840   5 ;   C113-  C112-  C111-  C110
 13929  13932  13935  13938      9     0.00   1.25520   3 ;   C113-  C112-  C111-  C110
 13930  13929  13932  13933      9     0.00   0.62760   3 ;   H13R-  C113-  C112-  H12R
 13930  13929  13932  13934      9     0.00   0.62760   3 ;   H13R-  C113-  C112-  H12S
 13930  13929  13932  13935      9     0.00   0.66944   3 ;   H13R-  C113-  C112-  C111
 13931  13929  13932  13933      9     0.00   0.62760   3 ;   H13S-  C113-  C112-  H12R
 13931  13929  13932  13934      9     0.00   0.62760   3 ;   H13S-  C113-  C112-  H12S
 13931  13929  13932  13935      9     0.00   0.66944   3 ;   H13S-  C113-  C112-  C111
 13932  13935  13938  13939      9     0.00   0.66944   3 ;   C112-  C111-  C110-  H10R
 13932  13935  13938  13940      9     0.00   0.66944   3 ;   C112-  C111-  C110-  H10S
 13932  13935  13938  13941      9     0.00   0.41840   1 ;   C112-  C111-  C110-   C19
 13932  13935  13938  13941      9     0.00   0.41840   2 ;   C112-  C111-  C110-   C19
 13932  13935  13938  13941      9     0.00   0.41840   4 ;   C112-  C111-  C110-   C19
 13932  13935  13938  13941      9     0.00   0.41840   5 ;   C112-  C111-  C110-   C19
 13932  13935  13938  13941      9     0.00   1.25520   3 ;   C112-  C111-  C110-   C19
 13933  13932  13935  13936      9     0.00   0.62760   3 ;   H12R-  C112-  C111-  H11R
 13933  13932  13935  13937      9     0.00   0.62760   3 ;   H12R-  C112-  C111-  H11S
 13933  13932  13935  13938      9     0.00   0.66944   3 ;   H12R-  C112-  C111-  C110
 13934  13932  13935  13936      9     0.00   0.62760   3 ;   H12S-  C112-  C111-  H11R
 13934  13932  13935  13937      9     0.00   0.62760   3 ;   H12S-  C112-  C111-  H11S
 13934  13932  13935  13938      9     0.00   0.66944   3 ;   H12S-  C112-  C111-  C110
 13935  13938  13941  13942      9     0.00   0.66944   3 ;   C111-  C110-   C19-   H9R
 13935  13938  13941  13943      9     0.00   0.66944   3 ;   C111-  C110-   C19-   H9S
 13935  13938  13941  13944      9     0.00   0.41840   1 ;   C111-  C110-   C19-   C18
 13935  13938  13941  13944      9     0.00   0.41840   2 ;   C111-  C110-   C19-   C18
 13935  13938  13941  13944      9     0.00   0.41840   4 ;   C111-  C110-   C19-   C18
 13935  13938  13941  13944      9     0.00   0.41840   5 ;   C111-  C110-   C19-   C18
 13935  13938  13941  13944      9     0.00   1.25520   3 ;   C111-  C110-   C19-   C18
 13936  13935  13938  13939      9     0.00   0.62760   3 ;   H11R-  C111-  C110-  H10R
 13936  13935  13938  13940      9     0.00   0.62760   3 ;   H11R-  C111-  C110-  H10S
 13936  13935  13938  13941      9     0.00   0.66944   3 ;   H11R-  C111-  C110-   C19
 13937  13935  13938  13939      9     0.00   0.62760   3 ;   H11S-  C111-  C110-  H10R
 13937  13935  13938  13940      9     0.00   0.62760   3 ;   H11S-  C111-  C110-  H10S
 13937  13935  13938  13941      9     0.00   0.66944   3 ;   H11S-  C111-  C110-   C19
 13938  13941  13944  13945      9     0.00   0.66944   3 ;   C110-   C19-   C18-   H8R
 13938  13941  13944  13946      9     0.00   0.66944   3 ;   C110-   C19-   C18-   H8S
 13938  13941  13944  13947      9     0.00   0.41840   1 ;   C110-   C19-   C18-   C17
 13938  13941  13944  13947      9     0.00   0.41840   2 ;   C110-   C19-   C18-   C17
 13938  13941  13944  13947      9     0.00   0.41840   4 ;   C110-   C19-   C18-   C17
 13938  13941  13944  13947      9     0.00   0.41840   5 ;   C110-   C19-   C18-   C17
 13938  13941  13944  13947      9     0.00   1.25520   3 ;   C110-   C19-   C18-   C17
 13939  13938  13941  13942      9     0.00   0.62760   3 ;   H10R-  C110-   C19-   H9R
 13939  13938  13941  13943      9     0.00   0.62760   3 ;   H10R-  C110-   C19-   H9S
 13939  13938  13941  13944      9     0.00   0.66944   3 ;   H10R-  C110-   C19-   C18
 13940  13938  13941  13942      9     0.00   0.62760   3 ;   H10S-  C110-   C19-   H9R
 13940  13938  13941  13943      9     0.00   0.62760   3 ;   H10S-  C110-   C19-   H9S
 13940  13938  13941  13944      9     0.00   0.66944   3 ;   H10S-  C110-   C19-   C18
 13941  13944  13947  13948      9     0.00   0.66944   3 ;    C19-   C18-   C17-   H7R
 13941  13944  13947  13949      9     0.00   0.66944   3 ;    C19-   C18-   C17-   H7S
 13941  13944  13947  13950      9     0.00   0.41840   1 ;    C19-   C18-   C17-   C16
 13941  13944  13947  13950      9     0.00   0.41840   2 ;    C19-   C18-   C17-   C16
 13941  13944  13947  13950      9     0.00   0.41840   4 ;    C19-   C18-   C17-   C16
 13941  13944  13947  13950      9     0.00   0.41840   5 ;    C19-   C18-   C17-   C16
 13941  13944  13947  13950      9     0.00   1.25520   3 ;    C19-   C18-   C17-   C16
 13942  13941  13944  13945      9     0.00   0.62760   3 ;    H9R-   C19-   C18-   H8R
 13942  13941  13944  13946      9     0.00   0.62760   3 ;    H9R-   C19-   C18-   H8S
 13942  13941  13944  13947      9     0.00   0.66944   3 ;    H9R-   C19-   C18-   C17
 13943  13941  13944  13945      9     0.00   0.62760   3 ;    H9S-   C19-   C18-   H8R
 13943  13941  13944  13946      9     0.00   0.62760   3 ;    H9S-   C19-   C18-   H8S
 13943  13941  13944  13947      9     0.00   0.66944   3 ;    H9S-   C19-   C18-   C17
 13944  13947  13950  13951      9     0.00   0.66944   3 ;    C18-   C17-   C16-   H6R
 13944  13947  13950  13952      9     0.00   0.66944   3 ;    C18-   C17-   C16-   H6S
 13944  13947  13950  13953      9     0.00   0.41840   1 ;    C18-   C17-   C16-   C15
 13944  13947  13950  13953      9     0.00   0.41840   2 ;    C18-   C17-   C16-   C15
 13944  13947  13950  13953      9     0.00   0.41840   4 ;    C18-   C17-   C16-   C15
 13944  13947  13950  13953      9     0.00   0.41840   5 ;    C18-   C17-   C16-   C15
 13944  13947  13950  13953      9     0.00   1.25520   3 ;    C18-   C17-   C16-   C15
 13945  13944  13947  13948      9     0.00   0.62760   3 ;    H8R-   C18-   C17-   H7R
 13945  13944  13947  13949      9     0.00   0.62760   3 ;    H8R-   C18-   C17-   H7S
 13945  13944  13947  13950      9     0.00   0.66944   3 ;    H8R-   C18-   C17-   C16
 13946  13944  13947  13948      9     0.00   0.62760   3 ;    H8S-   C18-   C17-   H7R
 13946  13944  13947  13949      9     0.00   0.62760   3 ;    H8S-   C18-   C17-   H7S
 13946  13944  13947  13950      9     0.00   0.66944   3 ;    H8S-   C18-   C17-   C16
 13947  13950  13953  13954      9     0.00   0.66944   3 ;    C17-   C16-   C15-   H5R
 13947  13950  13953  13955      9     0.00   0.66944   3 ;    C17-   C16-   C15-   H5S
 13947  13950  13953  13956      9     0.00   0.41840   1 ;    C17-   C16-   C15-   C14
 13947  13950  13953  13956      9     0.00   0.41840   2 ;    C17-   C16-   C15-   C14
 13947  13950  13953  13956      9     0.00   0.41840   4 ;    C17-   C16-   C15-   C14
 13947  13950  13953  13956      9     0.00   0.41840   5 ;    C17-   C16-   C15-   C14
 13947  13950  13953  13956      9     0.00   1.25520   3 ;    C17-   C16-   C15-   C14
 13948  13947  13950  13951      9     0.00   0.62760   3 ;    H7R-   C17-   C16-   H6R
 13948  13947  13950  13952      9     0.00   0.62760   3 ;    H7R-   C17-   C16-   H6S
 13948  13947  13950  13953      9     0.00   0.66944   3 ;    H7R-   C17-   C16-   C15
 13949  13947  13950  13951      9     0.00   0.62760   3 ;    H7S-   C17-   C16-   H6R
 13949  13947  13950  13952      9     0.00   0.62760   3 ;    H7S-   C17-   C16-   H6S
 13949  13947  13950  13953      9     0.00   0.66944   3 ;    H7S-   C17-   C16-   C15
 13950  13953  13956  13957      9     0.00   0.66944   3 ;    C16-   C15-   C14-   H4R
 13950  13953  13956  13958      9     0.00   0.66944   3 ;    C16-   C15-   C14-   H4S
 13950  13953  13956  13959      9     0.00   0.41840   1 ;    C16-   C15-   C14-   C13
 13950  13953  13956  13959      9     0.00   0.41840   2 ;    C16-   C15-   C14-   C13
 13950  13953  13956  13959      9     0.00   0.41840   4 ;    C16-   C15-   C14-   C13
 13950  13953  13956  13959      9     0.00   0.41840   5 ;    C16-   C15-   C14-   C13
 13950  13953  13956  13959      9     0.00   1.25520   3 ;    C16-   C15-   C14-   C13
 13951  13950  13953  13954      9     0.00   0.62760   3 ;    H6R-   C16-   C15-   H5R
 13951  13950  13953  13955      9     0.00   0.62760   3 ;    H6R-   C16-   C15-   H5S
 13951  13950  13953  13956      9     0.00   0.66944   3 ;    H6R-   C16-   C15-   C14
 13952  13950  13953  13954      9     0.00   0.62760   3 ;    H6S-   C16-   C15-   H5R
 13952  13950  13953  13955      9     0.00   0.62760   3 ;    H6S-   C16-   C15-   H5S
 13952  13950  13953  13956      9     0.00   0.66944   3 ;    H6S-   C16-   C15-   C14
 13953  13956  13959  13960      9     0.00   0.66944   3 ;    C15-   C14-   C13-   H3R
 13953  13956  13959  13961      9     0.00   0.66944   3 ;    C15-   C14-   C13-   H3S
 13953  13956  13959  13962      9     0.00   0.41840   1 ;    C15-   C14-   C13-   C12
 13953  13956  13959  13962      9     0.00   0.41840   2 ;    C15-   C14-   C13-   C12
 13953  13956  13959  13962      9     0.00   0.41840   4 ;    C15-   C14-   C13-   C12
 13953  13956  13959  13962      9     0.00   0.41840   5 ;    C15-   C14-   C13-   C12
 13953  13956  13959  13962      9     0.00   1.25520   3 ;    C15-   C14-   C13-   C12
 13954  13953  13956  13957      9     0.00   0.62760   3 ;    H5R-   C15-   C14-   H4R
 13954  13953  13956  13958      9     0.00   0.62760   3 ;    H5R-   C15-   C14-   H4S
 13954  13953  13956  13959      9     0.00   0.66944   3 ;    H5R-   C15-   C14-   C13
 13955  13953  13956  13957      9     0.00   0.62760   3 ;    H5S-   C15-   C14-   H4R
 13955  13953  13956  13958      9     0.00   0.62760   3 ;    H5S-   C15-   C14-   H4S
 13955  13953  13956  13959      9     0.00   0.66944   3 ;    H5S-   C15-   C14-   C13
 13956  13959  13962  13963      9     0.00   0.66944   3 ;    C14-   C13-   C12-   H2R
 13956  13959  13962  13964      9     0.00   0.66944   3 ;    C14-   C13-   C12-   H2S
 13956  13959  13962  13965      9     0.00   0.65270   3 ;    C14-   C13-   C12-   C11
 13957  13956  13959  13960      9     0.00   0.62760   3 ;    H4R-   C14-   C13-   H3R
 13957  13956  13959  13961      9     0.00   0.62760   3 ;    H4R-   C14-   C13-   H3S
 13957  13956  13959  13962      9     0.00   0.66944   3 ;    H4R-   C14-   C13-   C12
 13958  13956  13959  13960      9     0.00   0.62760   3 ;    H4S-   C14-   C13-   H3R
 13958  13956  13959  13961      9     0.00   0.62760   3 ;    H4S-   C14-   C13-   H3S
 13958  13956  13959  13962      9     0.00   0.66944   3 ;    H4S-   C14-   C13-   C12
 13959  13962  13965  13966      9   180.00   0.00000   2 ;    C13-   C12-   C11-   O12
 13959  13962  13965  13967      9   180.00   0.00000   2 ;    C13-   C12-   C11-   O11
 13960  13959  13962  13963      9     0.00   0.62760   3 ;    H3R-   C13-   C12-   H2R
 13960  13959  13962  13964      9     0.00   0.62760   3 ;    H3R-   C13-   C12-   H2S
 13960  13959  13962  13965      9     0.00   0.65270   3 ;    H3R-   C13-   C12-   C11
 13961  13959  13962  13963      9     0.00   0.62760   3 ;    H3S-   C13-   C12-   H2R
 13961  13959  13962  13964      9     0.00   0.62760   3 ;    H3S-   C13-   C12-   H2S
 13961  13959  13962  13965      9     0.00   0.65270   3 ;    H3S-   C13-   C12-   C11
 13962  13965  13967  13968      9   180.00  11.29680   2 ;    C12-   C11-   O11-    C1
 13963  13962  13965  13966      9     0.00   3.34720   1 ;    H2R-   C12-   C11-   O12
 13963  13962  13965  13966      9   180.00   0.33472   3 ;    H2R-   C12-   C11-   O12
 13963  13962  13965  13967      9   180.00   0.00000   2 ;    H2R-   C12-   C11-   O11
 13964  13962  13965  13966      9     0.00   3.34720   1 ;    H2S-   C12-   C11-   O12
 13964  13962  13965  13966      9   180.00   0.33472   3 ;    H2S-   C12-   C11-   O12
 13964  13962  13965  13967      9   180.00   0.00000   2 ;    H2S-   C12-   C11-   O11
 13965  13967  13968  13969      9     0.00   1.60247   3 ;    C11-   O11-    C1-    HR
 13965  13967  13968  13970      9     0.00   1.60247   3 ;    C11-   O11-    C1-    HS
 13965  13967  13968  13971      9     0.00  -0.41840   1 ;    C11-   O11-    C1-    C2
 13966  13965  13967  13968      9   180.00   5.85760   1 ;    O12-   C11-   O11-    C1
 13966  13965  13967  13968      9   180.00  11.29680   2 ;    O12-   C11-   O11-    C1
 13967  13968  13971  13972      9     0.00   0.00000   0 ;    O11-    C1-    C2-    HX
 13967  13968  13971  13972      9     0.00   1.04600   1 ;    O11-    C1-    C2-    HX
 13967  13968  13971  13973      9     0.00   0.00000   0 ;    O11-    C1-    C2-    C3
 13967  13968  13971  13973      9     0.00   0.00000   0 ;    O11-    C1-    C2-    C3
 13967  13968  13971  13973      9     0.00   0.00000   0 ;    O11-    C1-    C2-    C3
 13967  13968  13971  13973      9     0.00   0.00000   0 ;    O11-    C1-    C2-    C3
 13967  13968  13971  13973      9     0.00   0.00000   0 ;    O11-    C1-    C2-    C3
 13967  13968  13971  14000      9     0.00   1.25520   2 ;    O11-    C1-    C2-   O21
 13967  13968  13971  14000      9     0.00   4.18400   3 ;    O11-    C1-    C2-   O21
 13967  13968  13971  14000      9   180.00  -0.41840   1 ;    O11-    C1-    C2-   O21
 13968  13971  13973  13974      9     0.00   0.65270   3 ;     C1-    C2-    C3-    HA
 13968  13971  13973  13975      9     0.00   0.65270   3 ;     C1-    C2-    C3-    HB
 13968  13971  13973  13976      9   180.00   3.34720   1 ;     C1-    C2-    C3-   O31
 13968  13971  14000  14001      9     0.00  -0.41840   1 ;     C1-    C2-   O21-   C21
 13969  13968  13971  13972      9     0.00   0.65270   3 ;     HR-    C1-    C2-    HX
 13969  13968  13971  13973      9     0.00   0.65270   3 ;     HR-    C1-    C2-    C3
 13969  13968  13971  14000      9     0.00   0.00000   0 ;     HR-    C1-    C2-   O21
 13969  13968  13971  14000      9     0.00   1.04600   1 ;     HR-    C1-    C2-   O21
 13970  13968  13971  13972      9     0.00   0.65270   3 ;     HS-    C1-    C2-    HX
 13970  13968  13971  13973      9     0.00   0.65270   3 ;     HS-    C1-    C2-    C3
 13970  13968  13971  14000      9     0.00   0.00000   0 ;     HS-    C1-    C2-   O21
 13970  13968  13971  14000      9     0.00   1.04600   1 ;     HS-    C1-    C2-   O21
 13971  13973  13976  13977      9     0.00   0.00000   0 ;     C2-    C3-   O31-   P31
 13971  13973  13976  13977      9   180.00  -3.34720   2 ;     C2-    C3-   O31-   P31
 13971  14000  14001  14002      9   180.00   5.85760   1 ;     C2-   O21-   C21-   O22
 13971  14000  14001  14002      9   180.00  11.29680   2 ;     C2-   O21-   C21-   O22
 13971  14000  14001  14040      9   180.00  11.29680   2 ;     C2-   O21-   C21-   C12
 13972  13971  13973  13974      9     0.00   0.65270   3 ;     HX-    C2-    C3-    HA
 13972  13971  13973  13975      9     0.00   0.65270   3 ;     HX-    C2-    C3-    HB
 13972  13971  13973  13976      9     0.00   0.00000   0 ;     HX-    C2-    C3-   O31
 13972  13971  13973  13976      9     0.00   1.04600   1 ;     HX-    C2-    C3-   O31
 13972  13971  14000  14001      9     0.00   1.60247   3 ;     HX-    C2-   O21-   C21
 13973  13971  14000  14001      9     0.00  -0.41840   1 ;     C3-    C2-   O21-   C21
 13973  13976  13977  13978      9     0.00   2.51040   3 ;     C3-   O31-   P31-   O32
 13973  13976  13977  13978      9     0.00   9.62320   2 ;     C3-   O31-   P31-   O32
 13973  13976  13977  13998      9     0.00   0.00000   0 ;     C3-   O31-   P31-   O33
 13973  13976  13977  13998      9     0.00   0.00000   0 ;     C3-   O31-   P31-   O33
 13973  13976  13977  13998      9     0.00   0.00000   0 ;     C3-   O31-   P31-   O33
 13973  13976  13977  13998      9     0.00   0.00000   0 ;     C3-   O31-   P31-   O33
 13973  13976  13977  13998      9     0.00   0.83680   2 ;     C3-   O31-   P31-   O33
 13973  13976  13977  13999      9     0.00   0.00000   0 ;     C3-   O31-   P31-   O34
 13973  13976  13977  13999      9     0.00   0.00000   0 ;     C3-   O31-   P31-   O34
 13973  13976  13977  13999      9     0.00   0.00000   0 ;     C3-   O31-   P31-   O34
 13973  13976  13977  13999      9     0.00   0.00000   0 ;     C3-   O31-   P31-   O34
 13973  13976  13977  13999      9     0.00   0.83680   2 ;     C3-   O31-   P31-   O34
 13974  13973  13971  14000      9     0.00   0.00000   0 ;     HA-    C3-    C2-   O21
 13974  13973  13971  14000      9     0.00   1.04600   1 ;     HA-    C3-    C2-   O21
 13974  13973  13976  13977      9     0.00   0.00000   0 ;     HA-    C3-   O31-   P31
 13974  13973  13976  13977      9     0.00   0.00000   0 ;     HA-    C3-   O31-   P31
 13974  13973  13976  13977      9     0.00   0.00000   0 ;     HA-    C3-   O31-   P31
 13974  13973  13976  13977      9     0.00   0.00000   0 ;     HA-    C3-   O31-   P31
 13974  13973  13976  13977      9     0.00   1.60247   3 ;     HA-    C3-   O31-   P31
 13975  13973  13971  14000      9     0.00   0.00000   0 ;     HB-    C3-    C2-   O21
 13975  13973  13971  14000      9     0.00   1.04600   1 ;     HB-    C3-    C2-   O21
 13975  13973  13976  13977      9     0.00   0.00000   0 ;     HB-    C3-   O31-   P31
 13975  13973  13976  13977      9     0.00   0.00000   0 ;     HB-    C3-   O31-   P31
 13975  13973  13976  13977      9     0.00   0.00000   0 ;     HB-    C3-   O31-   P31
 13975  13973  13976  13977      9     0.00   0.00000   0 ;     HB-    C3-   O31-   P31
 13975  13973  13976  13977      9     0.00   1.60247   3 ;     HB-    C3-   O31-   P31
 13976  13973  13971  14000      9     0.00   0.00000   0 ;    O31-    C3-    C2-   O21
 13976  13973  13971  14000      9     0.00   0.00000   0 ;    O31-    C3-    C2-   O21
 13976  13973  13971  14000      9     0.00   0.00000   0 ;    O31-    C3-    C2-   O21
 13976  13973  13971  14000      9     0.00   0.00000   0 ;    O31-    C3-    C2-   O21
 13976  13973  13971  14000      9     0.00   0.00000   0 ;    O31-    C3-    C2-   O21
 13976  13977  13978  13979      9     0.00   2.51040   3 ;    O31-   P31-   O32-   C31
 13976  13977  13978  13979      9     0.00   9.62320   2 ;    O31-   P31-   O32-   C31
 13977  13978  13979  13980      9     0.00   0.00000   0 ;    P31-   O32-   C31-   H1A
 13977  13978  13979  13980      9     0.00   0.00000   0 ;    P31-   O32-   C31-   H1A
 13977  13978  13979  13980      9     0.00   0.00000   0 ;    P31-   O32-   C31-   H1A
 13977  13978  13979  13980      9     0.00   0.00000   0 ;    P31-   O32-   C31-   H1A
 13977  13978  13979  13980      9     0.00   1.60247   3 ;    P31-   O32-   C31-   H1A
 13977  13978  13979  13981      9     0.00   0.00000   0 ;    P31-   O32-   C31-   H1B
 13977  13978  13979  13981      9     0.00   0.00000   0 ;    P31-   O32-   C31-   H1B
 13977  13978  13979  13981      9     0.00   0.00000   0 ;    P31-   O32-   C31-   H1B
 13977  13978  13979  13981      9     0.00   0.00000   0 ;    P31-   O32-   C31-   H1B
 13977  13978  13979  13981      9     0.00   1.60247   3 ;    P31-   O32-   C31-   H1B
 13977  13978  13979  13982      9     0.00   0.00000   0 ;    P31-   O32-   C31-   C32
 13977  13978  13979  13982      9   180.00  -3.34720   2 ;    P31-   O32-   C31-   C32
 13978  13979  13982  13983      9     0.00   0.65270   3 ;    O32-   C31-   C32-   H2A
 13978  13979  13982  13984      9     0.00   0.65270   3 ;    O32-   C31-   C32-   H2B
 13978  13979  13982  13985      9     0.00   4.18400   3 ;    O32-   C31-   C32-   N31
 13979  13978  13977  13998      9     0.00   0.00000   0 ;    C31-   O32-   P31-   O33
 13979  13978  13977  13998      9     0.00   0.00000   0 ;    C31-   O32-   P31-   O33
 13979  13978  13977  13998      9     0.00   0.00000   0 ;    C31-   O32-   P31-   O33
 13979  13978  13977  13998      9     0.00   0.00000   0 ;    C31-   O32-   P31-   O33
 13979  13978  13977  13998      9     0.00   0.83680   2 ;    C31-   O32-   P31-   O33
 13979  13978  13977  13999      9     0.00   0.00000   0 ;    C31-   O32-   P31-   O34
 13979  13978  13977  13999      9     0.00   0.00000   0 ;    C31-   O32-   P31-   O34
 13979  13978  13977  13999      9     0.00   0.00000   0 ;    C31-   O32-   P31-   O34
 13979  13978  13977  13999      9     0.00   0.00000   0 ;    C31-   O32-   P31-   O34
 13979  13978  13977  13999      9     0.00   0.83680   2 ;    C31-   O32-   P31-   O34
 13979  13982  13985  13986      9     0.00   0.65270   3 ;    C31-   C32-   N31-   C33
 13979  13982  13985  13990      9     0.00   0.65270   3 ;    C31-   C32-   N31-   C34
 13979  13982  13985  13994      9     0.00   0.65270   3 ;    C31-   C32-   N31-   C35
 13980  13979  13982  13983      9     0.00   0.65270   3 ;    H1A-   C31-   C32-   H2A
 13980  13979  13982  13984      9     0.00   0.65270   3 ;    H1A-   C31-   C32-   H2B
 13980  13979  13982  13985      9     0.00   0.65270   3 ;    H1A-   C31-   C32-   N31
 13981  13979  13982  13983      9     0.00   0.65270   3 ;    H1B-   C31-   C32-   H2A
 13981  13979  13982  13984      9     0.00   0.65270   3 ;    H1B-   C31-   C32-   H2B
 13981  13979  13982  13985      9     0.00   0.65270   3 ;    H1B-   C31-   C32-   N31
 13982  13985  13986  13987      9     0.00   0.65270   3 ;    C32-   N31-   C33-   H3A
 13982  13985  13986  13988      9     0.00   0.65270   3 ;    C32-   N31-   C33-   H3B
 13982  13985  13986  13989      9     0.00   0.65270   3 ;    C32-   N31-   C33-   H3C
 13982  13985  13990  13991      9     0.00   0.65270   3 ;    C32-   N31-   C34-   H4A
 13982  13985  13990  13992      9     0.00   0.65270   3 ;    C32-   N31-   C34-   H4B
 13982  13985  13990  13993      9     0.00   0.65270   3 ;    C32-   N31-   C34-   H4C
 13982  13985  13994  13995      9     0.00   0.65270   3 ;    C32-   N31-   C35-   H5A
 13982  13985  13994  13996      9     0.00   0.65270   3 ;    C32-   N31-   C35-   H5B
 13982  13985  13994  13997      9     0.00   0.65270   3 ;    C32-   N31-   C35-   H5C
 13983  13982  13985  13986      9     0.00   0.65270   3 ;    H2A-   C32-   N31-   C33
 13983  13982  13985  13990      9     0.00   0.65270   3 ;    H2A-   C32-   N31-   C34
 13983  13982  13985  13994      9     0.00   0.65270   3 ;    H2A-   C32-   N31-   C35
 13984  13982  13985  13986      9     0.00   0.65270   3 ;    H2B-   C32-   N31-   C33
 13984  13982  13985  13990      9     0.00   0.65270   3 ;    H2B-   C32-   N31-   C34
 13984  13982  13985  13994      9     0.00   0.65270   3 ;    H2B-   C32-   N31-   C35
 13986  13985  13990  13991      9     0.00   0.65270   3 ;    C33-   N31-   C34-   H4A
 13986  13985  13990  13992      9     0.00   0.65270   3 ;    C33-   N31-   C34-   H4B
 13986  13985  13990  13993      9     0.00   0.65270   3 ;    C33-   N31-   C34-   H4C
 13986  13985  13994  13995      9     0.00   0.65270   3 ;    C33-   N31-   C35-   H5A
 13986  13985  13994  13996      9     0.00   0.65270   3 ;    C33-   N31-   C35-   H5B
 13986  13985  13994  13997      9     0.00   0.65270   3 ;    C33-   N31-   C35-   H5C
 13987  13986  13985  13990      9     0.00   0.65270   3 ;    H3A-   C33-   N31-   C34
 13987  13986  13985  13994      9     0.00   0.65270   3 ;    H3A-   C33-   N31-   C35
 13988  13986  13985  13990      9     0.00   0.65270   3 ;    H3B-   C33-   N31-   C34
 13988  13986  13985  13994      9     0.00   0.65270   3 ;    H3B-   C33-   N31-   C35
 13989  13986  13985  13990      9     0.00   0.65270   3 ;    H3C-   C33-   N31-   C34
 13989  13986  13985  13994      9     0.00   0.65270   3 ;    H3C-   C33-   N31-   C35
 13990  13985  13994  13995      9     0.00   0.65270   3 ;    C34-   N31-   C35-   H5A
 13990  13985  13994  13996      9     0.00   0.65270   3 ;    C34-   N31-   C35-   H5B
 13990  13985  13994  13997      9     0.00   0.65270   3 ;    C34-   N31-   C35-   H5C
 13991  13990  13985  13994      9     0.00   0.65270   3 ;    H4A-   C34-   N31-   C35
 13992  13990  13985  13994      9     0.00   0.65270   3 ;    H4B-   C34-   N31-   C35
 13993  13990  13985  13994      9     0.00   0.65270   3 ;    H4C-   C34-   N31-   C35
 14000  14001  14040  14037      9   180.00   0.00000   2 ;    O21-   C21-   C12-   C13
 14000  14001  14040  14041      9   180.00   0.00000   2 ;    O21-   C21-   C12-   H2R
 14000  14001  14040  14042      9   180.00   0.00000   2 ;    O21-   C21-   C12-   H2S
 14001  14040  14037  14034      9     0.00   0.65270   3 ;    C21-   C12-   C13-   C14
 14001  14040  14037  14038      9     0.00   0.65270   3 ;    C21-   C12-   C13-   H3R
 14001  14040  14037  14039      9     0.00   0.65270   3 ;    C21-   C12-   C13-   H3S
 14002  14001  14040  14037      9   180.00   0.00000   2 ;    O22-   C21-   C12-   C13
 14002  14001  14040  14041      9     0.00   3.34720   1 ;    O22-   C21-   C12-   H2R
 14002  14001  14040  14041      9   180.00   0.33472   3 ;    O22-   C21-   C12-   H2R
 14002  14001  14040  14042      9     0.00   3.34720   1 ;    O22-   C21-   C12-   H2S
 14002  14001  14040  14042      9   180.00   0.33472   3 ;    O22-   C21-   C12-   H2S
 14003  14004  14007  14008      9     0.00   0.62760   3 ;   H14T-  C114-  C113-  H13R
 14003  14004  14007  14009      9     0.00   0.62760   3 ;   H14T-  C114-  C113-  H13S
 14003  14004  14007  14010      9     0.00   0.66944   3 ;   H14T-  C114-  C113-  C112
 14004  14007  14010  14011      9     0.00   0.66944   3 ;   C114-  C113-  C112-  H12R
 14004  14007  14010  14012      9     0.00   0.66944   3 ;   C114-  C113-  C112-  H12S
 14004  14007  14010  14013      9     0.00   0.41840   1 ;   C114-  C113-  C112-  C111
 14004  14007  14010  14013      9     0.00   0.41840   2 ;   C114-  C113-  C112-  C111
 14004  14007  14010  14013      9     0.00   0.41840   4 ;   C114-  C113-  C112-  C111
 14004  14007  14010  14013      9     0.00   0.41840   5 ;   C114-  C113-  C112-  C111
 14004  14007  14010  14013      9     0.00   1.25520   3 ;   C114-  C113-  C112-  C111
 14005  14004  14007  14008      9     0.00   0.62760   3 ;   H14R-  C114-  C113-  H13R
 14005  14004  14007  14009      9     0.00   0.62760   3 ;   H14R-  C114-  C113-  H13S
 14005  14004  14007  14010      9     0.00   0.66944   3 ;   H14R-  C114-  C113-  C112
 14006  14004  14007  14008      9     0.00   0.62760   3 ;   H14S-  C114-  C113-  H13R
 14006  14004  14007  14009      9     0.00   0.62760   3 ;   H14S-  C114-  C113-  H13S
 14006  14004  14007  14010      9     0.00   0.66944   3 ;   H14S-  C114-  C113-  C112
 14007  14010  14013  14014      9     0.00   0.66944   3 ;   C113-  C112-  C111-  H11R
 14007  14010  14013  14015      9     0.00   0.66944   3 ;   C113-  C112-  C111-  H11S
 14007  14010  14013  14016      9     0.00   0.41840   1 ;   C113-  C112-  C111-  C110
 14007  14010  14013  14016      9     0.00   0.41840   2 ;   C113-  C112-  C111-  C110
 14007  14010  14013  14016      9     0.00   0.41840   4 ;   C113-  C112-  C111-  C110
 14007  14010  14013  14016      9     0.00   0.41840   5 ;   C113-  C112-  C111-  C110
 14007  14010  14013  14016      9     0.00   1.25520   3 ;   C113-  C112-  C111-  C110
 14008  14007  14010  14011      9     0.00   0.62760   3 ;   H13R-  C113-  C112-  H12R
 14008  14007  14010  14012      9     0.00   0.62760   3 ;   H13R-  C113-  C112-  H12S
 14008  14007  14010  14013      9     0.00   0.66944   3 ;   H13R-  C113-  C112-  C111
 14009  14007  14010  14011      9     0.00   0.62760   3 ;   H13S-  C113-  C112-  H12R
 14009  14007  14010  14012      9     0.00   0.62760   3 ;   H13S-  C113-  C112-  H12S
 14009  14007  14010  14013      9     0.00   0.66944   3 ;   H13S-  C113-  C112-  C111
 14010  14013  14016  14017      9     0.00   0.66944   3 ;   C112-  C111-  C110-  H10R
 14010  14013  14016  14018      9     0.00   0.66944   3 ;   C112-  C111-  C110-  H10S
 14010  14013  14016  14019      9     0.00   0.41840   1 ;   C112-  C111-  C110-   C19
 14010  14013  14016  14019      9     0.00   0.41840   2 ;   C112-  C111-  C110-   C19
 14010  14013  14016  14019      9     0.00   0.41840   4 ;   C112-  C111-  C110-   C19
 14010  14013  14016  14019      9     0.00   0.41840   5 ;   C112-  C111-  C110-   C19
 14010  14013  14016  14019      9     0.00   1.25520   3 ;   C112-  C111-  C110-   C19
 14011  14010  14013  14014      9     0.00   0.62760   3 ;   H12R-  C112-  C111-  H11R
 14011  14010  14013  14015      9     0.00   0.62760   3 ;   H12R-  C112-  C111-  H11S
 14011  14010  14013  14016      9     0.00   0.66944   3 ;   H12R-  C112-  C111-  C110
 14012  14010  14013  14014      9     0.00   0.62760   3 ;   H12S-  C112-  C111-  H11R
 14012  14010  14013  14015      9     0.00   0.62760   3 ;   H12S-  C112-  C111-  H11S
 14012  14010  14013  14016      9     0.00   0.66944   3 ;   H12S-  C112-  C111-  C110
 14013  14016  14019  14020      9     0.00   0.66944   3 ;   C111-  C110-   C19-   H9R
 14013  14016  14019  14021      9     0.00   0.66944   3 ;   C111-  C110-   C19-   H9S
 14013  14016  14019  14022      9     0.00   0.41840   1 ;   C111-  C110-   C19-   C18
 14013  14016  14019  14022      9     0.00   0.41840   2 ;   C111-  C110-   C19-   C18
 14013  14016  14019  14022      9     0.00   0.41840   4 ;   C111-  C110-   C19-   C18
 14013  14016  14019  14022      9     0.00   0.41840   5 ;   C111-  C110-   C19-   C18
 14013  14016  14019  14022      9     0.00   1.25520   3 ;   C111-  C110-   C19-   C18
 14014  14013  14016  14017      9     0.00   0.62760   3 ;   H11R-  C111-  C110-  H10R
 14014  14013  14016  14018      9     0.00   0.62760   3 ;   H11R-  C111-  C110-  H10S
 14014  14013  14016  14019      9     0.00   0.66944   3 ;   H11R-  C111-  C110-   C19
 14015  14013  14016  14017      9     0.00   0.62760   3 ;   H11S-  C111-  C110-  H10R
 14015  14013  14016  14018      9     0.00   0.62760   3 ;   H11S-  C111-  C110-  H10S
 14015  14013  14016  14019      9     0.00   0.66944   3 ;   H11S-  C111-  C110-   C19
 14016  14019  14022  14023      9     0.00   0.66944   3 ;   C110-   C19-   C18-   H8R
 14016  14019  14022  14024      9     0.00   0.66944   3 ;   C110-   C19-   C18-   H8S
 14016  14019  14022  14025      9     0.00   0.41840   1 ;   C110-   C19-   C18-   C17
 14016  14019  14022  14025      9     0.00   0.41840   2 ;   C110-   C19-   C18-   C17
 14016  14019  14022  14025      9     0.00   0.41840   4 ;   C110-   C19-   C18-   C17
 14016  14019  14022  14025      9     0.00   0.41840   5 ;   C110-   C19-   C18-   C17
 14016  14019  14022  14025      9     0.00   1.25520   3 ;   C110-   C19-   C18-   C17
 14017  14016  14019  14020      9     0.00   0.62760   3 ;   H10R-  C110-   C19-   H9R
 14017  14016  14019  14021      9     0.00   0.62760   3 ;   H10R-  C110-   C19-   H9S
 14017  14016  14019  14022      9     0.00   0.66944   3 ;   H10R-  C110-   C19-   C18
 14018  14016  14019  14020      9     0.00   0.62760   3 ;   H10S-  C110-   C19-   H9R
 14018  14016  14019  14021      9     0.00   0.62760   3 ;   H10S-  C110-   C19-   H9S
 14018  14016  14019  14022      9     0.00   0.66944   3 ;   H10S-  C110-   C19-   C18
 14019  14022  14025  14026      9     0.00   0.66944   3 ;    C19-   C18-   C17-   H7R
 14019  14022  14025  14027      9     0.00   0.66944   3 ;    C19-   C18-   C17-   H7S
 14019  14022  14025  14028      9     0.00   0.41840   1 ;    C19-   C18-   C17-   C16
 14019  14022  14025  14028      9     0.00   0.41840   2 ;    C19-   C18-   C17-   C16
 14019  14022  14025  14028      9     0.00   0.41840   4 ;    C19-   C18-   C17-   C16
 14019  14022  14025  14028      9     0.00   0.41840   5 ;    C19-   C18-   C17-   C16
 14019  14022  14025  14028      9     0.00   1.25520   3 ;    C19-   C18-   C17-   C16
 14020  14019  14022  14023      9     0.00   0.62760   3 ;    H9R-   C19-   C18-   H8R
 14020  14019  14022  14024      9     0.00   0.62760   3 ;    H9R-   C19-   C18-   H8S
 14020  14019  14022  14025      9     0.00   0.66944   3 ;    H9R-   C19-   C18-   C17
 14021  14019  14022  14023      9     0.00   0.62760   3 ;    H9S-   C19-   C18-   H8R
 14021  14019  14022  14024      9     0.00   0.62760   3 ;    H9S-   C19-   C18-   H8S
 14021  14019  14022  14025      9     0.00   0.66944   3 ;    H9S-   C19-   C18-   C17
 14022  14025  14028  14029      9     0.00   0.66944   3 ;    C18-   C17-   C16-   H6R
 14022  14025  14028  14030      9     0.00   0.66944   3 ;    C18-   C17-   C16-   H6S
 14022  14025  14028  14031      9     0.00   0.41840   1 ;    C18-   C17-   C16-   C15
 14022  14025  14028  14031      9     0.00   0.41840   2 ;    C18-   C17-   C16-   C15
 14022  14025  14028  14031      9     0.00   0.41840   4 ;    C18-   C17-   C16-   C15
 14022  14025  14028  14031      9     0.00   0.41840   5 ;    C18-   C17-   C16-   C15
 14022  14025  14028  14031      9     0.00   1.25520   3 ;    C18-   C17-   C16-   C15
 14023  14022  14025  14026      9     0.00   0.62760   3 ;    H8R-   C18-   C17-   H7R
 14023  14022  14025  14027      9     0.00   0.62760   3 ;    H8R-   C18-   C17-   H7S
 14023  14022  14025  14028      9     0.00   0.66944   3 ;    H8R-   C18-   C17-   C16
 14024  14022  14025  14026      9     0.00   0.62760   3 ;    H8S-   C18-   C17-   H7R
 14024  14022  14025  14027      9     0.00   0.62760   3 ;    H8S-   C18-   C17-   H7S
 14024  14022  14025  14028      9     0.00   0.66944   3 ;    H8S-   C18-   C17-   C16
 14025  14028  14031  14032      9     0.00   0.66944   3 ;    C17-   C16-   C15-   H5R
 14025  14028  14031  14033      9     0.00   0.66944   3 ;    C17-   C16-   C15-   H5S
 14025  14028  14031  14034      9     0.00   0.41840   1 ;    C17-   C16-   C15-   C14
 14025  14028  14031  14034      9     0.00   0.41840   2 ;    C17-   C16-   C15-   C14
 14025  14028  14031  14034      9     0.00   0.41840   4 ;    C17-   C16-   C15-   C14
 14025  14028  14031  14034      9     0.00   0.41840   5 ;    C17-   C16-   C15-   C14
 14025  14028  14031  14034      9     0.00   1.25520   3 ;    C17-   C16-   C15-   C14
 14026  14025  14028  14029      9     0.00   0.62760   3 ;    H7R-   C17-   C16-   H6R
 14026  14025  14028  14030      9     0.00   0.62760   3 ;    H7R-   C17-   C16-   H6S
 14026  14025  14028  14031      9     0.00   0.66944   3 ;    H7R-   C17-   C16-   C15
 14027  14025  14028  14029      9     0.00   0.62760   3 ;    H7S-   C17-   C16-   H6R
 14027  14025  14028  14030      9     0.00   0.62760   3 ;    H7S-   C17-   C16-   H6S
 14027  14025  14028  14031      9     0.00   0.66944   3 ;    H7S-   C17-   C16-   C15
 14028  14031  14034  14035      9     0.00   0.66944   3 ;    C16-   C15-   C14-   H4R
 14028  14031  14034  14036      9     0.00   0.66944   3 ;    C16-   C15-   C14-   H4S
 14028  14031  14034  14037      9     0.00   0.41840   1 ;    C16-   C15-   C14-   C13
 14028  14031  14034  14037      9     0.00   0.41840   2 ;    C16-   C15-   C14-   C13
 14028  14031  14034  14037      9     0.00   0.41840   4 ;    C16-   C15-   C14-   C13
 14028  14031  14034  14037      9     0.00   0.41840   5 ;    C16-   C15-   C14-   C13
 14028  14031  14034  14037      9     0.00   1.25520   3 ;    C16-   C15-   C14-   C13
 14029  14028  14031  14032      9     0.00   0.62760   3 ;    H6R-   C16-   C15-   H5R
 14029  14028  14031  14033      9     0.00   0.62760   3 ;    H6R-   C16-   C15-   H5S
 14029  14028  14031  14034      9     0.00   0.66944   3 ;    H6R-   C16-   C15-   C14
 14030  14028  14031  14032      9     0.00   0.62760   3 ;    H6S-   C16-   C15-   H5R
 14030  14028  14031  14033      9     0.00   0.62760   3 ;    H6S-   C16-   C15-   H5S
 14030  14028  14031  14034      9     0.00   0.66944   3 ;    H6S-   C16-   C15-   C14
 14031  14034  14037  14038      9     0.00   0.66944   3 ;    C15-   C14-   C13-   H3R
 14031  14034  14037  14039      9     0.00   0.66944   3 ;    C15-   C14-   C13-   H3S
 14031  14034  14037  14040      9     0.00   0.41840   1 ;    C15-   C14-   C13-   C12
 14031  14034  14037  14040      9     0.00   0.41840   2 ;    C15-   C14-   C13-   C12
 14031  14034  14037  14040      9     0.00   0.41840   4 ;    C15-   C14-   C13-   C12
 14031  14034  14037  14040      9     0.00   0.41840   5 ;    C15-   C14-   C13-   C12
 14031  14034  14037  14040      9     0.00   1.25520   3 ;    C15-   C14-   C13-   C12
 14032  14031  14034  14035      9     0.00   0.62760   3 ;    H5R-   C15-   C14-   H4R
 14032  14031  14034  14036      9     0.00   0.62760   3 ;    H5R-   C15-   C14-   H4S
 14032  14031  14034  14037      9     0.00   0.66944   3 ;    H5R-   C15-   C14-   C13
 14033  14031  14034  14035      9     0.00   0.62760   3 ;    H5S-   C15-   C14-   H4R
 14033  14031  14034  14036      9     0.00   0.62760   3 ;    H5S-   C15-   C14-   H4S
 14033  14031  14034  14037      9     0.00   0.66944   3 ;    H5S-   C15-   C14-   C13
 14034  14037  14040  14041      9     0.00   0.66944   3 ;    C14-   C13-   C12-   H2R
 14034  14037  14040  14042      9     0.00   0.66944   3 ;    C14-   C13-   C12-   H2S
 14035  14034  14037  14038      9     0.00   0.62760   3 ;    H4R-   C14-   C13-   H3R
 14035  14034  14037  14039      9     0.00   0.62760   3 ;    H4R-   C14-   C13-   H3S
 14035  14034  14037  14040      9     0.00   0.66944   3 ;    H4R-   C14-   C13-   C12
 14036  14034  14037  14038      9     0.00   0.62760   3 ;    H4S-   C14-   C13-   H3R
 14036  14034  14037  14039      9     0.00   0.62760   3 ;    H4S-   C14-   C13-   H3S
 14036  14034  14037  14040      9     0.00   0.66944   3 ;    H4S-   C14-   C13-   C12
 14038  14037  14040  14041      9     0.00   0.62760   3 ;    H3R-   C13-   C12-   H2R
 14038  14037  14040  14042      9     0.00   0.62760   3 ;    H3R-   C13-   C12-   H2S
 14039  14037  14040  14041      9     0.00   0.62760   3 ;    H3S-   C13-   C12-   H2R
 14039  14037  14040  14042      9     0.00   0.62760   3 ;    H3S-   C13-   C12-   H2S
 14043  14044  14047  14048      9     0.00   0.62760   3 ;   H14T-  C114-  C113-  H13R
 14043  14044  14047  14049      9     0.00   0.62760   3 ;   H14T-  C114-  C113-  H13S
 14043  14044  14047  14050      9     0.00   0.66944   3 ;   H14T-  C114-  C113-  C112
 14044  14047  14050  14051      9     0.00   0.66944   3 ;   C114-  C113-  C112-  H12R
 14044  14047  14050  14052      9     0.00   0.66944   3 ;   C114-  C113-  C112-  H12S
 14044  14047  14050  14053      9     0.00   0.41840   1 ;   C114-  C113-  C112-  C111
 14044  14047  14050  14053      9     0.00   0.41840   2 ;   C114-  C113-  C112-  C111
 14044  14047  14050  14053      9     0.00   0.41840   4 ;   C114-  C113-  C112-  C111
 14044  14047  14050  14053      9     0.00   0.41840   5 ;   C114-  C113-  C112-  C111
 14044  14047  14050  14053      9     0.00   1.25520   3 ;   C114-  C113-  C112-  C111
 14045  14044  14047  14048      9     0.00   0.62760   3 ;   H14R-  C114-  C113-  H13R
 14045  14044  14047  14049      9     0.00   0.62760   3 ;   H14R-  C114-  C113-  H13S
 14045  14044  14047  14050      9     0.00   0.66944   3 ;   H14R-  C114-  C113-  C112
 14046  14044  14047  14048      9     0.00   0.62760   3 ;   H14S-  C114-  C113-  H13R
 14046  14044  14047  14049      9     0.00   0.62760   3 ;   H14S-  C114-  C113-  H13S
 14046  14044  14047  14050      9     0.00   0.66944   3 ;   H14S-  C114-  C113-  C112
 14047  14050  14053  14054      9     0.00   0.66944   3 ;   C113-  C112-  C111-  H11R
 14047  14050  14053  14055      9     0.00   0.66944   3 ;   C113-  C112-  C111-  H11S
 14047  14050  14053  14056      9     0.00   0.41840   1 ;   C113-  C112-  C111-  C110
 14047  14050  14053  14056      9     0.00   0.41840   2 ;   C113-  C112-  C111-  C110
 14047  14050  14053  14056      9     0.00   0.41840   4 ;   C113-  C112-  C111-  C110
 14047  14050  14053  14056      9     0.00   0.41840   5 ;   C113-  C112-  C111-  C110
 14047  14050  14053  14056      9     0.00   1.25520   3 ;   C113-  C112-  C111-  C110
 14048  14047  14050  14051      9     0.00   0.62760   3 ;   H13R-  C113-  C112-  H12R
 14048  14047  14050  14052      9     0.00   0.62760   3 ;   H13R-  C113-  C112-  H12S
 14048  14047  14050  14053      9     0.00   0.66944   3 ;   H13R-  C113-  C112-  C111
 14049  14047  14050  14051      9     0.00   0.62760   3 ;   H13S-  C113-  C112-  H12R
 14049  14047  14050  14052      9     0.00   0.62760   3 ;   H13S-  C113-  C112-  H12S
 14049  14047  14050  14053      9     0.00   0.66944   3 ;   H13S-  C113-  C112-  C111
 14050  14053  14056  14057      9     0.00   0.66944   3 ;   C112-  C111-  C110-  H10R
 14050  14053  14056  14058      9     0.00   0.66944   3 ;   C112-  C111-  C110-  H10S
 14050  14053  14056  14059      9     0.00   0.41840   1 ;   C112-  C111-  C110-   C19
 14050  14053  14056  14059      9     0.00   0.41840   2 ;   C112-  C111-  C110-   C19
 14050  14053  14056  14059      9     0.00   0.41840   4 ;   C112-  C111-  C110-   C19
 14050  14053  14056  14059      9     0.00   0.41840   5 ;   C112-  C111-  C110-   C19
 14050  14053  14056  14059      9     0.00   1.25520   3 ;   C112-  C111-  C110-   C19
 14051  14050  14053  14054      9     0.00   0.62760   3 ;   H12R-  C112-  C111-  H11R
 14051  14050  14053  14055      9     0.00   0.62760   3 ;   H12R-  C112-  C111-  H11S
 14051  14050  14053  14056      9     0.00   0.66944   3 ;   H12R-  C112-  C111-  C110
 14052  14050  14053  14054      9     0.00   0.62760   3 ;   H12S-  C112-  C111-  H11R
 14052  14050  14053  14055      9     0.00   0.62760   3 ;   H12S-  C112-  C111-  H11S
 14052  14050  14053  14056      9     0.00   0.66944   3 ;   H12S-  C112-  C111-  C110
 14053  14056  14059  14060      9     0.00   0.66944   3 ;   C111-  C110-   C19-   H9R
 14053  14056  14059  14061      9     0.00   0.66944   3 ;   C111-  C110-   C19-   H9S
 14053  14056  14059  14062      9     0.00   0.41840   1 ;   C111-  C110-   C19-   C18
 14053  14056  14059  14062      9     0.00   0.41840   2 ;   C111-  C110-   C19-   C18
 14053  14056  14059  14062      9     0.00   0.41840   4 ;   C111-  C110-   C19-   C18
 14053  14056  14059  14062      9     0.00   0.41840   5 ;   C111-  C110-   C19-   C18
 14053  14056  14059  14062      9     0.00   1.25520   3 ;   C111-  C110-   C19-   C18
 14054  14053  14056  14057      9     0.00   0.62760   3 ;   H11R-  C111-  C110-  H10R
 14054  14053  14056  14058      9     0.00   0.62760   3 ;   H11R-  C111-  C110-  H10S
 14054  14053  14056  14059      9     0.00   0.66944   3 ;   H11R-  C111-  C110-   C19
 14055  14053  14056  14057      9     0.00   0.62760   3 ;   H11S-  C111-  C110-  H10R
 14055  14053  14056  14058      9     0.00   0.62760   3 ;   H11S-  C111-  C110-  H10S
 14055  14053  14056  14059      9     0.00   0.66944   3 ;   H11S-  C111-  C110-   C19
 14056  14059  14062  14063      9     0.00   0.66944   3 ;   C110-   C19-   C18-   H8R
 14056  14059  14062  14064      9     0.00   0.66944   3 ;   C110-   C19-   C18-   H8S
 14056  14059  14062  14065      9     0.00   0.41840   1 ;   C110-   C19-   C18-   C17
 14056  14059  14062  14065      9     0.00   0.41840   2 ;   C110-   C19-   C18-   C17
 14056  14059  14062  14065      9     0.00   0.41840   4 ;   C110-   C19-   C18-   C17
 14056  14059  14062  14065      9     0.00   0.41840   5 ;   C110-   C19-   C18-   C17
 14056  14059  14062  14065      9     0.00   1.25520   3 ;   C110-   C19-   C18-   C17
 14057  14056  14059  14060      9     0.00   0.62760   3 ;   H10R-  C110-   C19-   H9R
 14057  14056  14059  14061      9     0.00   0.62760   3 ;   H10R-  C110-   C19-   H9S
 14057  14056  14059  14062      9     0.00   0.66944   3 ;   H10R-  C110-   C19-   C18
 14058  14056  14059  14060      9     0.00   0.62760   3 ;   H10S-  C110-   C19-   H9R
 14058  14056  14059  14061      9     0.00   0.62760   3 ;   H10S-  C110-   C19-   H9S
 14058  14056  14059  14062      9     0.00   0.66944   3 ;   H10S-  C110-   C19-   C18
 14059  14062  14065  14066      9     0.00   0.66944   3 ;    C19-   C18-   C17-   H7R
 14059  14062  14065  14067      9     0.00   0.66944   3 ;    C19-   C18-   C17-   H7S
 14059  14062  14065  14068      9     0.00   0.41840   1 ;    C19-   C18-   C17-   C16
 14059  14062  14065  14068      9     0.00   0.41840   2 ;    C19-   C18-   C17-   C16
 14059  14062  14065  14068      9     0.00   0.41840   4 ;    C19-   C18-   C17-   C16
 14059  14062  14065  14068      9     0.00   0.41840   5 ;    C19-   C18-   C17-   C16
 14059  14062  14065  14068      9     0.00   1.25520   3 ;    C19-   C18-   C17-   C16
 14060  14059  14062  14063      9     0.00   0.62760   3 ;    H9R-   C19-   C18-   H8R
 14060  14059  14062  14064      9     0.00   0.62760   3 ;    H9R-   C19-   C18-   H8S
 14060  14059  14062  14065      9     0.00   0.66944   3 ;    H9R-   C19-   C18-   C17
 14061  14059  14062  14063      9     0.00   0.62760   3 ;    H9S-   C19-   C18-   H8R
 14061  14059  14062  14064      9     0.00   0.62760   3 ;    H9S-   C19-   C18-   H8S
 14061  14059  14062  14065      9     0.00   0.66944   3 ;    H9S-   C19-   C18-   C17
 14062  14065  14068  14069      9     0.00   0.66944   3 ;    C18-   C17-   C16-   H6R
 14062  14065  14068  14070      9     0.00   0.66944   3 ;    C18-   C17-   C16-   H6S
 14062  14065  14068  14071      9     0.00   0.41840   1 ;    C18-   C17-   C16-   C15
 14062  14065  14068  14071      9     0.00   0.41840   2 ;    C18-   C17-   C16-   C15
 14062  14065  14068  14071      9     0.00   0.41840   4 ;    C18-   C17-   C16-   C15
 14062  14065  14068  14071      9     0.00   0.41840   5 ;    C18-   C17-   C16-   C15
 14062  14065  14068  14071      9     0.00   1.25520   3 ;    C18-   C17-   C16-   C15
 14063  14062  14065  14066      9     0.00   0.62760   3 ;    H8R-   C18-   C17-   H7R
 14063  14062  14065  14067      9     0.00   0.62760   3 ;    H8R-   C18-   C17-   H7S
 14063  14062  14065  14068      9     0.00   0.66944   3 ;    H8R-   C18-   C17-   C16
 14064  14062  14065  14066      9     0.00   0.62760   3 ;    H8S-   C18-   C17-   H7R
 14064  14062  14065  14067      9     0.00   0.62760   3 ;    H8S-   C18-   C17-   H7S
 14064  14062  14065  14068      9     0.00   0.66944   3 ;    H8S-   C18-   C17-   C16
 14065  14068  14071  14072      9     0.00   0.66944   3 ;    C17-   C16-   C15-   H5R
 14065  14068  14071  14073      9     0.00   0.66944   3 ;    C17-   C16-   C15-   H5S
 14065  14068  14071  14074      9     0.00   0.41840   1 ;    C17-   C16-   C15-   C14
 14065  14068  14071  14074      9     0.00   0.41840   2 ;    C17-   C16-   C15-   C14
 14065  14068  14071  14074      9     0.00   0.41840   4 ;    C17-   C16-   C15-   C14
 14065  14068  14071  14074      9     0.00   0.41840   5 ;    C17-   C16-   C15-   C14
 14065  14068  14071  14074      9     0.00   1.25520   3 ;    C17-   C16-   C15-   C14
 14066  14065  14068  14069      9     0.00   0.62760   3 ;    H7R-   C17-   C16-   H6R
 14066  14065  14068  14070      9     0.00   0.62760   3 ;    H7R-   C17-   C16-   H6S
 14066  14065  14068  14071      9     0.00   0.66944   3 ;    H7R-   C17-   C16-   C15
 14067  14065  14068  14069      9     0.00   0.62760   3 ;    H7S-   C17-   C16-   H6R
 14067  14065  14068  14070      9     0.00   0.62760   3 ;    H7S-   C17-   C16-   H6S
 14067  14065  14068  14071      9     0.00   0.66944   3 ;    H7S-   C17-   C16-   C15
 14068  14071  14074  14075      9     0.00   0.66944   3 ;    C16-   C15-   C14-   H4R
 14068  14071  14074  14076      9     0.00   0.66944   3 ;    C16-   C15-   C14-   H4S
 14068  14071  14074  14077      9     0.00   0.41840   1 ;    C16-   C15-   C14-   C13
 14068  14071  14074  14077      9     0.00   0.41840   2 ;    C16-   C15-   C14-   C13
 14068  14071  14074  14077      9     0.00   0.41840   4 ;    C16-   C15-   C14-   C13
 14068  14071  14074  14077      9     0.00   0.41840   5 ;    C16-   C15-   C14-   C13
 14068  14071  14074  14077      9     0.00   1.25520   3 ;    C16-   C15-   C14-   C13
 14069  14068  14071  14072      9     0.00   0.62760   3 ;    H6R-   C16-   C15-   H5R
 14069  14068  14071  14073      9     0.00   0.62760   3 ;    H6R-   C16-   C15-   H5S
 14069  14068  14071  14074      9     0.00   0.66944   3 ;    H6R-   C16-   C15-   C14
 14070  14068  14071  14072      9     0.00   0.62760   3 ;    H6S-   C16-   C15-   H5R
 14070  14068  14071  14073      9     0.00   0.62760   3 ;    H6S-   C16-   C15-   H5S
 14070  14068  14071  14074      9     0.00   0.66944   3 ;    H6S-   C16-   C15-   C14
 14071  14074  14077  14078      9     0.00   0.66944   3 ;    C15-   C14-   C13-   H3R
 14071  14074  14077  14079      9     0.00   0.66944   3 ;    C15-   C14-   C13-   H3S
 14071  14074  14077  14080      9     0.00   0.41840   1 ;    C15-   C14-   C13-   C12
 14071  14074  14077  14080      9     0.00   0.41840   2 ;    C15-   C14-   C13-   C12
 14071  14074  14077  14080      9     0.00   0.41840   4 ;    C15-   C14-   C13-   C12
 14071  14074  14077  14080      9     0.00   0.41840   5 ;    C15-   C14-   C13-   C12
 14071  14074  14077  14080      9     0.00   1.25520   3 ;    C15-   C14-   C13-   C12
 14072  14071  14074  14075      9     0.00   0.62760   3 ;    H5R-   C15-   C14-   H4R
 14072  14071  14074  14076      9     0.00   0.62760   3 ;    H5R-   C15-   C14-   H4S
 14072  14071  14074  14077      9     0.00   0.66944   3 ;    H5R-   C15-   C14-   C13
 14073  14071  14074  14075      9     0.00   0.62760   3 ;    H5S-   C15-   C14-   H4R
 14073  14071  14074  14076      9     0.00   0.62760   3 ;    H5S-   C15-   C14-   H4S
 14073  14071  14074  14077      9     0.00   0.66944   3 ;    H5S-   C15-   C14-   C13
 14074  14077  14080  14081      9     0.00   0.66944   3 ;    C14-   C13-   C12-   H2R
 14074  14077  14080  14082      9     0.00   0.66944   3 ;    C14-   C13-   C12-   H2S
 14074  14077  14080  14083      9     0.00   0.65270   3 ;    C14-   C13-   C12-   C11
 14075  14074  14077  14078      9     0.00   0.62760   3 ;    H4R-   C14-   C13-   H3R
 14075  14074  14077  14079      9     0.00   0.62760   3 ;    H4R-   C14-   C13-   H3S
 14075  14074  14077  14080      9     0.00   0.66944   3 ;    H4R-   C14-   C13-   C12
 14076  14074  14077  14078      9     0.00   0.62760   3 ;    H4S-   C14-   C13-   H3R
 14076  14074  14077  14079      9     0.00   0.62760   3 ;    H4S-   C14-   C13-   H3S
 14076  14074  14077  14080      9     0.00   0.66944   3 ;    H4S-   C14-   C13-   C12
 14077  14080  14083  14084      9   180.00   0.00000   2 ;    C13-   C12-   C11-   O12
 14077  14080  14083  14085      9   180.00   0.00000   2 ;    C13-   C12-   C11-   O11
 14078  14077  14080  14081      9     0.00   0.62760   3 ;    H3R-   C13-   C12-   H2R
 14078  14077  14080  14082      9     0.00   0.62760   3 ;    H3R-   C13-   C12-   H2S
 14078  14077  14080  14083      9     0.00   0.65270   3 ;    H3R-   C13-   C12-   C11
 14079  14077  14080  14081      9     0.00   0.62760   3 ;    H3S-   C13-   C12-   H2R
 14079  14077  14080  14082      9     0.00   0.62760   3 ;    H3S-   C13-   C12-   H2S
 14079  14077  14080  14083      9     0.00   0.65270   3 ;    H3S-   C13-   C12-   C11
 14080  14083  14085  14086      9   180.00  11.29680   2 ;    C12-   C11-   O11-    C1
 14081  14080  14083  14084      9     0.00   3.34720   1 ;    H2R-   C12-   C11-   O12
 14081  14080  14083  14084      9   180.00   0.33472   3 ;    H2R-   C12-   C11-   O12
 14081  14080  14083  14085      9   180.00   0.00000   2 ;    H2R-   C12-   C11-   O11
 14082  14080  14083  14084      9     0.00   3.34720   1 ;    H2S-   C12-   C11-   O12
 14082  14080  14083  14084      9   180.00   0.33472   3 ;    H2S-   C12-   C11-   O12
 14082  14080  14083  14085      9   180.00   0.00000   2 ;    H2S-   C12-   C11-   O11
 14083  14085  14086  14087      9     0.00   1.60247   3 ;    C11-   O11-    C1-    HR
 14083  14085  14086  14088      9     0.00   1.60247   3 ;    C11-   O11-    C1-    HS
 14083  14085  14086  14089      9     0.00  -0.41840   1 ;    C11-   O11-    C1-    C2
 14084  14083  14085  14086      9   180.00   5.85760   1 ;    O12-   C11-   O11-    C1
 14084  14083  14085  14086      9   180.00  11.29680   2 ;    O12-   C11-   O11-    C1
 14085  14086  14089  14090      9     0.00   0.00000   0 ;    O11-    C1-    C2-    HX
 14085  14086  14089  14090      9     0.00   1.04600   1 ;    O11-    C1-    C2-    HX
 14085  14086  14089  14091      9     0.00   0.00000   0 ;    O11-    C1-    C2-    C3
 14085  14086  14089  14091      9     0.00   0.00000   0 ;    O11-    C1-    C2-    C3
 14085  14086  14089  14091      9     0.00   0.00000   0 ;    O11-    C1-    C2-    C3
 14085  14086  14089  14091      9     0.00   0.00000   0 ;    O11-    C1-    C2-    C3
 14085  14086  14089  14091      9     0.00   0.00000   0 ;    O11-    C1-    C2-    C3
 14085  14086  14089  14118      9     0.00   1.25520   2 ;    O11-    C1-    C2-   O21
 14085  14086  14089  14118      9     0.00   4.18400   3 ;    O11-    C1-    C2-   O21
 14085  14086  14089  14118      9   180.00  -0.41840   1 ;    O11-    C1-    C2-   O21
 14086  14089  14091  14092      9     0.00   0.65270   3 ;     C1-    C2-    C3-    HA
 14086  14089  14091  14093      9     0.00   0.65270   3 ;     C1-    C2-    C3-    HB
 14086  14089  14091  14094      9   180.00   3.34720   1 ;     C1-    C2-    C3-   O31
 14086  14089  14118  14119      9     0.00  -0.41840   1 ;     C1-    C2-   O21-   C21
 14087  14086  14089  14090      9     0.00   0.65270   3 ;     HR-    C1-    C2-    HX
 14087  14086  14089  14091      9     0.00   0.65270   3 ;     HR-    C1-    C2-    C3
 14087  14086  14089  14118      9     0.00   0.00000   0 ;     HR-    C1-    C2-   O21
 14087  14086  14089  14118      9     0.00   1.04600   1 ;     HR-    C1-    C2-   O21
 14088  14086  14089  14090      9     0.00   0.65270   3 ;     HS-    C1-    C2-    HX
 14088  14086  14089  14091      9     0.00   0.65270   3 ;     HS-    C1-    C2-    C3
 14088  14086  14089  14118      9     0.00   0.00000   0 ;     HS-    C1-    C2-   O21
 14088  14086  14089  14118      9     0.00   1.04600   1 ;     HS-    C1-    C2-   O21
 14089  14091  14094  14095      9     0.00   0.00000   0 ;     C2-    C3-   O31-   P31
 14089  14091  14094  14095      9   180.00  -3.34720   2 ;     C2-    C3-   O31-   P31
 14089  14118  14119  14120      9   180.00   5.85760   1 ;     C2-   O21-   C21-   O22
 14089  14118  14119  14120      9   180.00  11.29680   2 ;     C2-   O21-   C21-   O22
 14089  14118  14119  14158      9   180.00  11.29680   2 ;     C2-   O21-   C21-   C12
 14090  14089  14091  14092      9     0.00   0.65270   3 ;     HX-    C2-    C3-    HA
 14090  14089  14091  14093      9     0.00   0.65270   3 ;     HX-    C2-    C3-    HB
 14090  14089  14091  14094      9     0.00   0.00000   0 ;     HX-    C2-    C3-   O31
 14090  14089  14091  14094      9     0.00   1.04600   1 ;     HX-    C2-    C3-   O31
 14090  14089  14118  14119      9     0.00   1.60247   3 ;     HX-    C2-   O21-   C21
 14091  14089  14118  14119      9     0.00  -0.41840   1 ;     C3-    C2-   O21-   C21
 14091  14094  14095  14096      9     0.00   2.51040   3 ;     C3-   O31-   P31-   O32
 14091  14094  14095  14096      9     0.00   9.62320   2 ;     C3-   O31-   P31-   O32
 14091  14094  14095  14116      9     0.00   0.00000   0 ;     C3-   O31-   P31-   O33
 14091  14094  14095  14116      9     0.00   0.00000   0 ;     C3-   O31-   P31-   O33
 14091  14094  14095  14116      9     0.00   0.00000   0 ;     C3-   O31-   P31-   O33
 14091  14094  14095  14116      9     0.00   0.00000   0 ;     C3-   O31-   P31-   O33
 14091  14094  14095  14116      9     0.00   0.83680   2 ;     C3-   O31-   P31-   O33
 14091  14094  14095  14117      9     0.00   0.00000   0 ;     C3-   O31-   P31-   O34
 14091  14094  14095  14117      9     0.00   0.00000   0 ;     C3-   O31-   P31-   O34
 14091  14094  14095  14117      9     0.00   0.00000   0 ;     C3-   O31-   P31-   O34
 14091  14094  14095  14117      9     0.00   0.00000   0 ;     C3-   O31-   P31-   O34
 14091  14094  14095  14117      9     0.00   0.83680   2 ;     C3-   O31-   P31-   O34
 14092  14091  14089  14118      9     0.00   0.00000   0 ;     HA-    C3-    C2-   O21
 14092  14091  14089  14118      9     0.00   1.04600   1 ;     HA-    C3-    C2-   O21
 14092  14091  14094  14095      9     0.00   0.00000   0 ;     HA-    C3-   O31-   P31
 14092  14091  14094  14095      9     0.00   0.00000   0 ;     HA-    C3-   O31-   P31
 14092  14091  14094  14095      9     0.00   0.00000   0 ;     HA-    C3-   O31-   P31
 14092  14091  14094  14095      9     0.00   0.00000   0 ;     HA-    C3-   O31-   P31
 14092  14091  14094  14095      9     0.00   1.60247   3 ;     HA-    C3-   O31-   P31
 14093  14091  14089  14118      9     0.00   0.00000   0 ;     HB-    C3-    C2-   O21
 14093  14091  14089  14118      9     0.00   1.04600   1 ;     HB-    C3-    C2-   O21
 14093  14091  14094  14095      9     0.00   0.00000   0 ;     HB-    C3-   O31-   P31
 14093  14091  14094  14095      9     0.00   0.00000   0 ;     HB-    C3-   O31-   P31
 14093  14091  14094  14095      9     0.00   0.00000   0 ;     HB-    C3-   O31-   P31
 14093  14091  14094  14095      9     0.00   0.00000   0 ;     HB-    C3-   O31-   P31
 14093  14091  14094  14095      9     0.00   1.60247   3 ;     HB-    C3-   O31-   P31
 14094  14091  14089  14118      9     0.00   0.00000   0 ;    O31-    C3-    C2-   O21
 14094  14091  14089  14118      9     0.00   0.00000   0 ;    O31-    C3-    C2-   O21
 14094  14091  14089  14118      9     0.00   0.00000   0 ;    O31-    C3-    C2-   O21
 14094  14091  14089  14118      9     0.00   0.00000   0 ;    O31-    C3-    C2-   O21
 14094  14091  14089  14118      9     0.00   0.00000   0 ;    O31-    C3-    C2-   O21
 14094  14095  14096  14097      9     0.00   2.51040   3 ;    O31-   P31-   O32-   C31
 14094  14095  14096  14097      9     0.00   9.62320   2 ;    O31-   P31-   O32-   C31
 14095  14096  14097  14098      9     0.00   0.00000   0 ;    P31-   O32-   C31-   H1A
 14095  14096  14097  14098      9     0.00   0.00000   0 ;    P31-   O32-   C31-   H1A
 14095  14096  14097  14098      9     0.00   0.00000   0 ;    P31-   O32-   C31-   H1A
 14095  14096  14097  14098      9     0.00   0.00000   0 ;    P31-   O32-   C31-   H1A
 14095  14096  14097  14098      9     0.00   1.60247   3 ;    P31-   O32-   C31-   H1A
 14095  14096  14097  14099      9     0.00   0.00000   0 ;    P31-   O32-   C31-   H1B
 14095  14096  14097  14099      9     0.00   0.00000   0 ;    P31-   O32-   C31-   H1B
 14095  14096  14097  14099      9     0.00   0.00000   0 ;    P31-   O32-   C31-   H1B
 14095  14096  14097  14099      9     0.00   0.00000   0 ;    P31-   O32-   C31-   H1B
 14095  14096  14097  14099      9     0.00   1.60247   3 ;    P31-   O32-   C31-   H1B
 14095  14096  14097  14100      9     0.00   0.00000   0 ;    P31-   O32-   C31-   C32
 14095  14096  14097  14100      9   180.00  -3.34720   2 ;    P31-   O32-   C31-   C32
 14096  14097  14100  14101      9     0.00   0.65270   3 ;    O32-   C31-   C32-   H2A
 14096  14097  14100  14102      9     0.00   0.65270   3 ;    O32-   C31-   C32-   H2B
 14096  14097  14100  14103      9     0.00   4.18400   3 ;    O32-   C31-   C32-   N31
 14097  14096  14095  14116      9     0.00   0.00000   0 ;    C31-   O32-   P31-   O33
 14097  14096  14095  14116      9     0.00   0.00000   0 ;    C31-   O32-   P31-   O33
 14097  14096  14095  14116      9     0.00   0.00000   0 ;    C31-   O32-   P31-   O33
 14097  14096  14095  14116      9     0.00   0.00000   0 ;    C31-   O32-   P31-   O33
 14097  14096  14095  14116      9     0.00   0.83680   2 ;    C31-   O32-   P31-   O33
 14097  14096  14095  14117      9     0.00   0.00000   0 ;    C31-   O32-   P31-   O34
 14097  14096  14095  14117      9     0.00   0.00000   0 ;    C31-   O32-   P31-   O34
 14097  14096  14095  14117      9     0.00   0.00000   0 ;    C31-   O32-   P31-   O34
 14097  14096  14095  14117      9     0.00   0.00000   0 ;    C31-   O32-   P31-   O34
 14097  14096  14095  14117      9     0.00   0.83680   2 ;    C31-   O32-   P31-   O34
 14097  14100  14103  14104      9     0.00   0.65270   3 ;    C31-   C32-   N31-   C33
 14097  14100  14103  14108      9     0.00   0.65270   3 ;    C31-   C32-   N31-   C34
 14097  14100  14103  14112      9     0.00   0.65270   3 ;    C31-   C32-   N31-   C35
 14098  14097  14100  14101      9     0.00   0.65270   3 ;    H1A-   C31-   C32-   H2A
 14098  14097  14100  14102      9     0.00   0.65270   3 ;    H1A-   C31-   C32-   H2B
 14098  14097  14100  14103      9     0.00   0.65270   3 ;    H1A-   C31-   C32-   N31
 14099  14097  14100  14101      9     0.00   0.65270   3 ;    H1B-   C31-   C32-   H2A
 14099  14097  14100  14102      9     0.00   0.65270   3 ;    H1B-   C31-   C32-   H2B
 14099  14097  14100  14103      9     0.00   0.65270   3 ;    H1B-   C31-   C32-   N31
 14100  14103  14104  14105      9     0.00   0.65270   3 ;    C32-   N31-   C33-   H3A
 14100  14103  14104  14106      9     0.00   0.65270   3 ;    C32-   N31-   C33-   H3B
 14100  14103  14104  14107      9     0.00   0.65270   3 ;    C32-   N31-   C33-   H3C
 14100  14103  14108  14109      9     0.00   0.65270   3 ;    C32-   N31-   C34-   H4A
 14100  14103  14108  14110      9     0.00   0.65270   3 ;    C32-   N31-   C34-   H4B
 14100  14103  14108  14111      9     0.00   0.65270   3 ;    C32-   N31-   C34-   H4C
 14100  14103  14112  14113      9     0.00   0.65270   3 ;    C32-   N31-   C35-   H5A
 14100  14103  14112  14114      9     0.00   0.65270   3 ;    C32-   N31-   C35-   H5B
 14100  14103  14112  14115      9     0.00   0.65270   3 ;    C32-   N31-   C35-   H5C
 14101  14100  14103  14104      9     0.00   0.65270   3 ;    H2A-   C32-   N31-   C33
 14101  14100  14103  14108      9     0.00   0.65270   3 ;    H2A-   C32-   N31-   C34
 14101  14100  14103  14112      9     0.00   0.65270   3 ;    H2A-   C32-   N31-   C35
 14102  14100  14103  14104      9     0.00   0.65270   3 ;    H2B-   C32-   N31-   C33
 14102  14100  14103  14108      9     0.00   0.65270   3 ;    H2B-   C32-   N31-   C34
 14102  14100  14103  14112      9     0.00   0.65270   3 ;    H2B-   C32-   N31-   C35
 14104  14103  14108  14109      9     0.00   0.65270   3 ;    C33-   N31-   C34-   H4A
 14104  14103  14108  14110      9     0.00   0.65270   3 ;    C33-   N31-   C34-   H4B
 14104  14103  14108  14111      9     0.00   0.65270   3 ;    C33-   N31-   C34-   H4C
 14104  14103  14112  14113      9     0.00   0.65270   3 ;    C33-   N31-   C35-   H5A
 14104  14103  14112  14114      9     0.00   0.65270   3 ;    C33-   N31-   C35-   H5B
 14104  14103  14112  14115      9     0.00   0.65270   3 ;    C33-   N31-   C35-   H5C
 14105  14104  14103  14108      9     0.00   0.65270   3 ;    H3A-   C33-   N31-   C34
 14105  14104  14103  14112      9     0.00   0.65270   3 ;    H3A-   C33-   N31-   C35
 14106  14104  14103  14108      9     0.00   0.65270   3 ;    H3B-   C33-   N31-   C34
 14106  14104  14103  14112      9     0.00   0.65270   3 ;    H3B-   C33-   N31-   C35
 14107  14104  14103  14108      9     0.00   0.65270   3 ;    H3C-   C33-   N31-   C34
 14107  14104  14103  14112      9     0.00   0.65270   3 ;    H3C-   C33-   N31-   C35
 14108  14103  14112  14113      9     0.00   0.65270   3 ;    C34-   N31-   C35-   H5A
 14108  14103  14112  14114      9     0.00   0.65270   3 ;    C34-   N31-   C35-   H5B
 14108  14103  14112  14115      9     0.00   0.65270   3 ;    C34-   N31-   C35-   H5C
 14109  14108  14103  14112      9     0.00   0.65270   3 ;    H4A-   C34-   N31-   C35
 14110  14108  14103  14112      9     0.00   0.65270   3 ;    H4B-   C34-   N31-   C35
 14111  14108  14103  14112      9     0.00   0.65270   3 ;    H4C-   C34-   N31-   C35
 14118  14119  14158  14155      9   180.00   0.00000   2 ;    O21-   C21-   C12-   C13
 14118  14119  14158  14159      9   180.00   0.00000   2 ;    O21-   C21-   C12-   H2R
 14118  14119  14158  14160      9   180.00   0.00000   2 ;    O21-   C21-   C12-   H2S
 14119  14158  14155  14152      9     0.00   0.65270   3 ;    C21-   C12-   C13-   C14
 14119  14158  14155  14156      9     0.00   0.65270   3 ;    C21-   C12-   C13-   H3R
 14119  14158  14155  14157      9     0.00   0.65270   3 ;    C21-   C12-   C13-   H3S
 14120  14119  14158  14155      9   180.00   0.00000   2 ;    O22-   C21-   C12-   C13
 14120  14119  14158  14159      9     0.00   3.34720   1 ;    O22-   C21-   C12-   H2R
 14120  14119  14158  14159      9   180.00   0.33472   3 ;    O22-   C21-   C12-   H2R
 14120  14119  14158  14160      9     0.00   3.34720   1 ;    O22-   C21-   C12-   H2S
 14120  14119  14158  14160      9   180.00   0.33472   3 ;    O22-   C21-   C12-   H2S
 14121  14122  14125  14126      9     0.00   0.62760   3 ;   H14T-  C114-  C113-  H13R
 14121  14122  14125  14127      9     0.00   0.62760   3 ;   H14T-  C114-  C113-  H13S
 14121  14122  14125  14128      9     0.00   0.66944   3 ;   H14T-  C114-  C113-  C112
 14122  14125  14128  14129      9     0.00   0.66944   3 ;   C114-  C113-  C112-  H12R
 14122  14125  14128  14130      9     0.00   0.66944   3 ;   C114-  C113-  C112-  H12S
 14122  14125  14128  14131      9     0.00   0.41840   1 ;   C114-  C113-  C112-  C111
 14122  14125  14128  14131      9     0.00   0.41840   2 ;   C114-  C113-  C112-  C111
 14122  14125  14128  14131      9     0.00   0.41840   4 ;   C114-  C113-  C112-  C111
 14122  14125  14128  14131      9     0.00   0.41840   5 ;   C114-  C113-  C112-  C111
 14122  14125  14128  14131      9     0.00   1.25520   3 ;   C114-  C113-  C112-  C111
 14123  14122  14125  14126      9     0.00   0.62760   3 ;   H14R-  C114-  C113-  H13R
 14123  14122  14125  14127      9     0.00   0.62760   3 ;   H14R-  C114-  C113-  H13S
 14123  14122  14125  14128      9     0.00   0.66944   3 ;   H14R-  C114-  C113-  C112
 14124  14122  14125  14126      9     0.00   0.62760   3 ;   H14S-  C114-  C113-  H13R
 14124  14122  14125  14127      9     0.00   0.62760   3 ;   H14S-  C114-  C113-  H13S
 14124  14122  14125  14128      9     0.00   0.66944   3 ;   H14S-  C114-  C113-  C112
 14125  14128  14131  14132      9     0.00   0.66944   3 ;   C113-  C112-  C111-  H11R
 14125  14128  14131  14133      9     0.00   0.66944   3 ;   C113-  C112-  C111-  H11S
 14125  14128  14131  14134      9     0.00   0.41840   1 ;   C113-  C112-  C111-  C110
 14125  14128  14131  14134      9     0.00   0.41840   2 ;   C113-  C112-  C111-  C110
 14125  14128  14131  14134      9     0.00   0.41840   4 ;   C113-  C112-  C111-  C110
 14125  14128  14131  14134      9     0.00   0.41840   5 ;   C113-  C112-  C111-  C110
 14125  14128  14131  14134      9     0.00   1.25520   3 ;   C113-  C112-  C111-  C110
 14126  14125  14128  14129      9     0.00   0.62760   3 ;   H13R-  C113-  C112-  H12R
 14126  14125  14128  14130      9     0.00   0.62760   3 ;   H13R-  C113-  C112-  H12S
 14126  14125  14128  14131      9     0.00   0.66944   3 ;   H13R-  C113-  C112-  C111
 14127  14125  14128  14129      9     0.00   0.62760   3 ;   H13S-  C113-  C112-  H12R
 14127  14125  14128  14130      9     0.00   0.62760   3 ;   H13S-  C113-  C112-  H12S
 14127  14125  14128  14131      9     0.00   0.66944   3 ;   H13S-  C113-  C112-  C111
 14128  14131  14134  14135      9     0.00   0.66944   3 ;   C112-  C111-  C110-  H10R
 14128  14131  14134  14136      9     0.00   0.66944   3 ;   C112-  C111-  C110-  H10S
 14128  14131  14134  14137      9     0.00   0.41840   1 ;   C112-  C111-  C110-   C19
 14128  14131  14134  14137      9     0.00   0.41840   2 ;   C112-  C111-  C110-   C19
 14128  14131  14134  14137      9     0.00   0.41840   4 ;   C112-  C111-  C110-   C19
 14128  14131  14134  14137      9     0.00   0.41840   5 ;   C112-  C111-  C110-   C19
 14128  14131  14134  14137      9     0.00   1.25520   3 ;   C112-  C111-  C110-   C19
 14129  14128  14131  14132      9     0.00   0.62760   3 ;   H12R-  C112-  C111-  H11R
 14129  14128  14131  14133      9     0.00   0.62760   3 ;   H12R-  C112-  C111-  H11S
 14129  14128  14131  14134      9     0.00   0.66944   3 ;   H12R-  C112-  C111-  C110
 14130  14128  14131  14132      9     0.00   0.62760   3 ;   H12S-  C112-  C111-  H11R
 14130  14128  14131  14133      9     0.00   0.62760   3 ;   H12S-  C112-  C111-  H11S
 14130  14128  14131  14134      9     0.00   0.66944   3 ;   H12S-  C112-  C111-  C110
 14131  14134  14137  14138      9     0.00   0.66944   3 ;   C111-  C110-   C19-   H9R
 14131  14134  14137  14139      9     0.00   0.66944   3 ;   C111-  C110-   C19-   H9S
 14131  14134  14137  14140      9     0.00   0.41840   1 ;   C111-  C110-   C19-   C18
 14131  14134  14137  14140      9     0.00   0.41840   2 ;   C111-  C110-   C19-   C18
 14131  14134  14137  14140      9     0.00   0.41840   4 ;   C111-  C110-   C19-   C18
 14131  14134  14137  14140      9     0.00   0.41840   5 ;   C111-  C110-   C19-   C18
 14131  14134  14137  14140      9     0.00   1.25520   3 ;   C111-  C110-   C19-   C18
 14132  14131  14134  14135      9     0.00   0.62760   3 ;   H11R-  C111-  C110-  H10R
 14132  14131  14134  14136      9     0.00   0.62760   3 ;   H11R-  C111-  C110-  H10S
 14132  14131  14134  14137      9     0.00   0.66944   3 ;   H11R-  C111-  C110-   C19
 14133  14131  14134  14135      9     0.00   0.62760   3 ;   H11S-  C111-  C110-  H10R
 14133  14131  14134  14136      9     0.00   0.62760   3 ;   H11S-  C111-  C110-  H10S
 14133  14131  14134  14137      9     0.00   0.66944   3 ;   H11S-  C111-  C110-   C19
 14134  14137  14140  14141      9     0.00   0.66944   3 ;   C110-   C19-   C18-   H8R
 14134  14137  14140  14142      9     0.00   0.66944   3 ;   C110-   C19-   C18-   H8S
 14134  14137  14140  14143      9     0.00   0.41840   1 ;   C110-   C19-   C18-   C17
 14134  14137  14140  14143      9     0.00   0.41840   2 ;   C110-   C19-   C18-   C17
 14134  14137  14140  14143      9     0.00   0.41840   4 ;   C110-   C19-   C18-   C17
 14134  14137  14140  14143      9     0.00   0.41840   5 ;   C110-   C19-   C18-   C17
 14134  14137  14140  14143      9     0.00   1.25520   3 ;   C110-   C19-   C18-   C17
 14135  14134  14137  14138      9     0.00   0.62760   3 ;   H10R-  C110-   C19-   H9R
 14135  14134  14137  14139      9     0.00   0.62760   3 ;   H10R-  C110-   C19-   H9S
 14135  14134  14137  14140      9     0.00   0.66944   3 ;   H10R-  C110-   C19-   C18
 14136  14134  14137  14138      9     0.00   0.62760   3 ;   H10S-  C110-   C19-   H9R
 14136  14134  14137  14139      9     0.00   0.62760   3 ;   H10S-  C110-   C19-   H9S
 14136  14134  14137  14140      9     0.00   0.66944   3 ;   H10S-  C110-   C19-   C18
 14137  14140  14143  14144      9     0.00   0.66944   3 ;    C19-   C18-   C17-   H7R
 14137  14140  14143  14145      9     0.00   0.66944   3 ;    C19-   C18-   C17-   H7S
 14137  14140  14143  14146      9     0.00   0.41840   1 ;    C19-   C18-   C17-   C16
 14137  14140  14143  14146      9     0.00   0.41840   2 ;    C19-   C18-   C17-   C16
 14137  14140  14143  14146      9     0.00   0.41840   4 ;    C19-   C18-   C17-   C16
 14137  14140  14143  14146      9     0.00   0.41840   5 ;    C19-   C18-   C17-   C16
 14137  14140  14143  14146      9     0.00   1.25520   3 ;    C19-   C18-   C17-   C16
 14138  14137  14140  14141      9     0.00   0.62760   3 ;    H9R-   C19-   C18-   H8R
 14138  14137  14140  14142      9     0.00   0.62760   3 ;    H9R-   C19-   C18-   H8S
 14138  14137  14140  14143      9     0.00   0.66944   3 ;    H9R-   C19-   C18-   C17
 14139  14137  14140  14141      9     0.00   0.62760   3 ;    H9S-   C19-   C18-   H8R
 14139  14137  14140  14142      9     0.00   0.62760   3 ;    H9S-   C19-   C18-   H8S
 14139  14137  14140  14143      9     0.00   0.66944   3 ;    H9S-   C19-   C18-   C17
 14140  14143  14146  14147      9     0.00   0.66944   3 ;    C18-   C17-   C16-   H6R
 14140  14143  14146  14148      9     0.00   0.66944   3 ;    C18-   C17-   C16-   H6S
 14140  14143  14146  14149      9     0.00   0.41840   1 ;    C18-   C17-   C16-   C15
 14140  14143  14146  14149      9     0.00   0.41840   2 ;    C18-   C17-   C16-   C15
 14140  14143  14146  14149      9     0.00   0.41840   4 ;    C18-   C17-   C16-   C15
 14140  14143  14146  14149      9     0.00   0.41840   5 ;    C18-   C17-   C16-   C15
 14140  14143  14146  14149      9     0.00   1.25520   3 ;    C18-   C17-   C16-   C15
 14141  14140  14143  14144      9     0.00   0.62760   3 ;    H8R-   C18-   C17-   H7R
 14141  14140  14143  14145      9     0.00   0.62760   3 ;    H8R-   C18-   C17-   H7S
 14141  14140  14143  14146      9     0.00   0.66944   3 ;    H8R-   C18-   C17-   C16
 14142  14140  14143  14144      9     0.00   0.62760   3 ;    H8S-   C18-   C17-   H7R
 14142  14140  14143  14145      9     0.00   0.62760   3 ;    H8S-   C18-   C17-   H7S
 14142  14140  14143  14146      9     0.00   0.66944   3 ;    H8S-   C18-   C17-   C16
 14143  14146  14149  14150      9     0.00   0.66944   3 ;    C17-   C16-   C15-   H5R
 14143  14146  14149  14151      9     0.00   0.66944   3 ;    C17-   C16-   C15-   H5S
 14143  14146  14149  14152      9     0.00   0.41840   1 ;    C17-   C16-   C15-   C14
 14143  14146  14149  14152      9     0.00   0.41840   2 ;    C17-   C16-   C15-   C14
 14143  14146  14149  14152      9     0.00   0.41840   4 ;    C17-   C16-   C15-   C14
 14143  14146  14149  14152      9     0.00   0.41840   5 ;    C17-   C16-   C15-   C14
 14143  14146  14149  14152      9     0.00   1.25520   3 ;    C17-   C16-   C15-   C14
 14144  14143  14146  14147      9     0.00   0.62760   3 ;    H7R-   C17-   C16-   H6R
 14144  14143  14146  14148      9     0.00   0.62760   3 ;    H7R-   C17-   C16-   H6S
 14144  14143  14146  14149      9     0.00   0.66944   3 ;    H7R-   C17-   C16-   C15
 14145  14143  14146  14147      9     0.00   0.62760   3 ;    H7S-   C17-   C16-   H6R
 14145  14143  14146  14148      9     0.00   0.62760   3 ;    H7S-   C17-   C16-   H6S
 14145  14143  14146  14149      9     0.00   0.66944   3 ;    H7S-   C17-   C16-   C15
 14146  14149  14152  14153      9     0.00   0.66944   3 ;    C16-   C15-   C14-   H4R
 14146  14149  14152  14154      9     0.00   0.66944   3 ;    C16-   C15-   C14-   H4S
 14146  14149  14152  14155      9     0.00   0.41840   1 ;    C16-   C15-   C14-   C13
 14146  14149  14152  14155      9     0.00   0.41840   2 ;    C16-   C15-   C14-   C13
 14146  14149  14152  14155      9     0.00   0.41840   4 ;    C16-   C15-   C14-   C13
 14146  14149  14152  14155      9     0.00   0.41840   5 ;    C16-   C15-   C14-   C13
 14146  14149  14152  14155      9     0.00   1.25520   3 ;    C16-   C15-   C14-   C13
 14147  14146  14149  14150      9     0.00   0.62760   3 ;    H6R-   C16-   C15-   H5R
 14147  14146  14149  14151      9     0.00   0.62760   3 ;    H6R-   C16-   C15-   H5S
 14147  14146  14149  14152      9     0.00   0.66944   3 ;    H6R-   C16-   C15-   C14
 14148  14146  14149  14150      9     0.00   0.62760   3 ;    H6S-   C16-   C15-   H5R
 14148  14146  14149  14151      9     0.00   0.62760   3 ;    H6S-   C16-   C15-   H5S
 14148  14146  14149  14152      9     0.00   0.66944   3 ;    H6S-   C16-   C15-   C14
 14149  14152  14155  14156      9     0.00   0.66944   3 ;    C15-   C14-   C13-   H3R
 14149  14152  14155  14157      9     0.00   0.66944   3 ;    C15-   C14-   C13-   H3S
 14149  14152  14155  14158      9     0.00   0.41840   1 ;    C15-   C14-   C13-   C12
 14149  14152  14155  14158      9     0.00   0.41840   2 ;    C15-   C14-   C13-   C12
 14149  14152  14155  14158      9     0.00   0.41840   4 ;    C15-   C14-   C13-   C12
 14149  14152  14155  14158      9     0.00   0.41840   5 ;    C15-   C14-   C13-   C12
 14149  14152  14155  14158      9     0.00   1.25520   3 ;    C15-   C14-   C13-   C12
 14150  14149  14152  14153      9     0.00   0.62760   3 ;    H5R-   C15-   C14-   H4R
 14150  14149  14152  14154      9     0.00   0.62760   3 ;    H5R-   C15-   C14-   H4S
 14150  14149  14152  14155      9     0.00   0.66944   3 ;    H5R-   C15-   C14-   C13
 14151  14149  14152  14153      9     0.00   0.62760   3 ;    H5S-   C15-   C14-   H4R
 14151  14149  14152  14154      9     0.00   0.62760   3 ;    H5S-   C15-   C14-   H4S
 14151  14149  14152  14155      9     0.00   0.66944   3 ;    H5S-   C15-   C14-   C13
 14152  14155  14158  14159      9     0.00   0.66944   3 ;    C14-   C13-   C12-   H2R
 14152  14155  14158  14160      9     0.00   0.66944   3 ;    C14-   C13-   C12-   H2S
 14153  14152  14155  14156      9     0.00   0.62760   3 ;    H4R-   C14-   C13-   H3R
 14153  14152  14155  14157      9     0.00   0.62760   3 ;    H4R-   C14-   C13-   H3S
 14153  14152  14155  14158      9     0.00   0.66944   3 ;    H4R-   C14-   C13-   C12
 14154  14152  14155  14156      9     0.00   0.62760   3 ;    H4S-   C14-   C13-   H3R
 14154  14152  14155  14157      9     0.00   0.62760   3 ;    H4S-   C14-   C13-   H3S
 14154  14152  14155  14158      9     0.00   0.66944   3 ;    H4S-   C14-   C13-   C12
 14156  14155  14158  14159      9     0.00   0.62760   3 ;    H3R-   C13-   C12-   H2R
 14156  14155  14158  14160      9     0.00   0.62760   3 ;    H3R-   C13-   C12-   H2S
 14157  14155  14158  14159      9     0.00   0.62760   3 ;    H3S-   C13-   C12-   H2R
 14157  14155  14158  14160      9     0.00   0.62760   3 ;    H3S-   C13-   C12-   H2S
 14161  14162  14165  14166      9     0.00   0.62760   3 ;   H14T-  C114-  C113-  H13R
 14161  14162  14165  14167      9     0.00   0.62760   3 ;   H14T-  C114-  C113-  H13S
 14161  14162  14165  14168      9     0.00   0.66944   3 ;   H14T-  C114-  C113-  C112
 14162  14165  14168  14169      9     0.00   0.66944   3 ;   C114-  C113-  C112-  H12R
 14162  14165  14168  14170      9     0.00   0.66944   3 ;   C114-  C113-  C112-  H12S
 14162  14165  14168  14171      9     0.00   0.41840   1 ;   C114-  C113-  C112-  C111
 14162  14165  14168  14171      9     0.00   0.41840   2 ;   C114-  C113-  C112-  C111
 14162  14165  14168  14171      9     0.00   0.41840   4 ;   C114-  C113-  C112-  C111
 14162  14165  14168  14171      9     0.00   0.41840   5 ;   C114-  C113-  C112-  C111
 14162  14165  14168  14171      9     0.00   1.25520   3 ;   C114-  C113-  C112-  C111
 14163  14162  14165  14166      9     0.00   0.62760   3 ;   H14R-  C114-  C113-  H13R
 14163  14162  14165  14167      9     0.00   0.62760   3 ;   H14R-  C114-  C113-  H13S
 14163  14162  14165  14168      9     0.00   0.66944   3 ;   H14R-  C114-  C113-  C112
 14164  14162  14165  14166      9     0.00   0.62760   3 ;   H14S-  C114-  C113-  H13R
 14164  14162  14165  14167      9     0.00   0.62760   3 ;   H14S-  C114-  C113-  H13S
 14164  14162  14165  14168      9     0.00   0.66944   3 ;   H14S-  C114-  C113-  C112
 14165  14168  14171  14172      9     0.00   0.66944   3 ;   C113-  C112-  C111-  H11R
 14165  14168  14171  14173      9     0.00   0.66944   3 ;   C113-  C112-  C111-  H11S
 14165  14168  14171  14174      9     0.00   0.41840   1 ;   C113-  C112-  C111-  C110
 14165  14168  14171  14174      9     0.00   0.41840   2 ;   C113-  C112-  C111-  C110
 14165  14168  14171  14174      9     0.00   0.41840   4 ;   C113-  C112-  C111-  C110
 14165  14168  14171  14174      9     0.00   0.41840   5 ;   C113-  C112-  C111-  C110
 14165  14168  14171  14174      9     0.00   1.25520   3 ;   C113-  C112-  C111-  C110
 14166  14165  14168  14169      9     0.00   0.62760   3 ;   H13R-  C113-  C112-  H12R
 14166  14165  14168  14170      9     0.00   0.62760   3 ;   H13R-  C113-  C112-  H12S
 14166  14165  14168  14171      9     0.00   0.66944   3 ;   H13R-  C113-  C112-  C111
 14167  14165  14168  14169      9     0.00   0.62760   3 ;   H13S-  C113-  C112-  H12R
 14167  14165  14168  14170      9     0.00   0.62760   3 ;   H13S-  C113-  C112-  H12S
 14167  14165  14168  14171      9     0.00   0.66944   3 ;   H13S-  C113-  C112-  C111
 14168  14171  14174  14175      9     0.00   0.66944   3 ;   C112-  C111-  C110-  H10R
 14168  14171  14174  14176      9     0.00   0.66944   3 ;   C112-  C111-  C110-  H10S
 14168  14171  14174  14177      9     0.00   0.41840   1 ;   C112-  C111-  C110-   C19
 14168  14171  14174  14177      9     0.00   0.41840   2 ;   C112-  C111-  C110-   C19
 14168  14171  14174  14177      9     0.00   0.41840   4 ;   C112-  C111-  C110-   C19
 14168  14171  14174  14177      9     0.00   0.41840   5 ;   C112-  C111-  C110-   C19
 14168  14171  14174  14177      9     0.00   1.25520   3 ;   C112-  C111-  C110-   C19
 14169  14168  14171  14172      9     0.00   0.62760   3 ;   H12R-  C112-  C111-  H11R
 14169  14168  14171  14173      9     0.00   0.62760   3 ;   H12R-  C112-  C111-  H11S
 14169  14168  14171  14174      9     0.00   0.66944   3 ;   H12R-  C112-  C111-  C110
 14170  14168  14171  14172      9     0.00   0.62760   3 ;   H12S-  C112-  C111-  H11R
 14170  14168  14171  14173      9     0.00   0.62760   3 ;   H12S-  C112-  C111-  H11S
 14170  14168  14171  14174      9     0.00   0.66944   3 ;   H12S-  C112-  C111-  C110
 14171  14174  14177  14178      9     0.00   0.66944   3 ;   C111-  C110-   C19-   H9R
 14171  14174  14177  14179      9     0.00   0.66944   3 ;   C111-  C110-   C19-   H9S
 14171  14174  14177  14180      9     0.00   0.41840   1 ;   C111-  C110-   C19-   C18
 14171  14174  14177  14180      9     0.00   0.41840   2 ;   C111-  C110-   C19-   C18
 14171  14174  14177  14180      9     0.00   0.41840   4 ;   C111-  C110-   C19-   C18
 14171  14174  14177  14180      9     0.00   0.41840   5 ;   C111-  C110-   C19-   C18
 14171  14174  14177  14180      9     0.00   1.25520   3 ;   C111-  C110-   C19-   C18
 14172  14171  14174  14175      9     0.00   0.62760   3 ;   H11R-  C111-  C110-  H10R
 14172  14171  14174  14176      9     0.00   0.62760   3 ;   H11R-  C111-  C110-  H10S
 14172  14171  14174  14177      9     0.00   0.66944   3 ;   H11R-  C111-  C110-   C19
 14173  14171  14174  14175      9     0.00   0.62760   3 ;   H11S-  C111-  C110-  H10R
 14173  14171  14174  14176      9     0.00   0.62760   3 ;   H11S-  C111-  C110-  H10S
 14173  14171  14174  14177      9     0.00   0.66944   3 ;   H11S-  C111-  C110-   C19
 14174  14177  14180  14181      9     0.00   0.66944   3 ;   C110-   C19-   C18-   H8R
 14174  14177  14180  14182      9     0.00   0.66944   3 ;   C110-   C19-   C18-   H8S
 14174  14177  14180  14183      9     0.00   0.41840   1 ;   C110-   C19-   C18-   C17
 14174  14177  14180  14183      9     0.00   0.41840   2 ;   C110-   C19-   C18-   C17
 14174  14177  14180  14183      9     0.00   0.41840   4 ;   C110-   C19-   C18-   C17
 14174  14177  14180  14183      9     0.00   0.41840   5 ;   C110-   C19-   C18-   C17
 14174  14177  14180  14183      9     0.00   1.25520   3 ;   C110-   C19-   C18-   C17
 14175  14174  14177  14178      9     0.00   0.62760   3 ;   H10R-  C110-   C19-   H9R
 14175  14174  14177  14179      9     0.00   0.62760   3 ;   H10R-  C110-   C19-   H9S
 14175  14174  14177  14180      9     0.00   0.66944   3 ;   H10R-  C110-   C19-   C18
 14176  14174  14177  14178      9     0.00   0.62760   3 ;   H10S-  C110-   C19-   H9R
 14176  14174  14177  14179      9     0.00   0.62760   3 ;   H10S-  C110-   C19-   H9S
 14176  14174  14177  14180      9     0.00   0.66944   3 ;   H10S-  C110-   C19-   C18
 14177  14180  14183  14184      9     0.00   0.66944   3 ;    C19-   C18-   C17-   H7R
 14177  14180  14183  14185      9     0.00   0.66944   3 ;    C19-   C18-   C17-   H7S
 14177  14180  14183  14186      9     0.00   0.41840   1 ;    C19-   C18-   C17-   C16
 14177  14180  14183  14186      9     0.00   0.41840   2 ;    C19-   C18-   C17-   C16
 14177  14180  14183  14186      9     0.00   0.41840   4 ;    C19-   C18-   C17-   C16
 14177  14180  14183  14186      9     0.00   0.41840   5 ;    C19-   C18-   C17-   C16
 14177  14180  14183  14186      9     0.00   1.25520   3 ;    C19-   C18-   C17-   C16
 14178  14177  14180  14181      9     0.00   0.62760   3 ;    H9R-   C19-   C18-   H8R
 14178  14177  14180  14182      9     0.00   0.62760   3 ;    H9R-   C19-   C18-   H8S
 14178  14177  14180  14183      9     0.00   0.66944   3 ;    H9R-   C19-   C18-   C17
 14179  14177  14180  14181      9     0.00   0.62760   3 ;    H9S-   C19-   C18-   H8R
 14179  14177  14180  14182      9     0.00   0.62760   3 ;    H9S-   C19-   C18-   H8S
 14179  14177  14180  14183      9     0.00   0.66944   3 ;    H9S-   C19-   C18-   C17
 14180  14183  14186  14187      9     0.00   0.66944   3 ;    C18-   C17-   C16-   H6R
 14180  14183  14186  14188      9     0.00   0.66944   3 ;    C18-   C17-   C16-   H6S
 14180  14183  14186  14189      9     0.00   0.41840   1 ;    C18-   C17-   C16-   C15
 14180  14183  14186  14189      9     0.00   0.41840   2 ;    C18-   C17-   C16-   C15
 14180  14183  14186  14189      9     0.00   0.41840   4 ;    C18-   C17-   C16-   C15
 14180  14183  14186  14189      9     0.00   0.41840   5 ;    C18-   C17-   C16-   C15
 14180  14183  14186  14189      9     0.00   1.25520   3 ;    C18-   C17-   C16-   C15
 14181  14180  14183  14184      9     0.00   0.62760   3 ;    H8R-   C18-   C17-   H7R
 14181  14180  14183  14185      9     0.00   0.62760   3 ;    H8R-   C18-   C17-   H7S
 14181  14180  14183  14186      9     0.00   0.66944   3 ;    H8R-   C18-   C17-   C16
 14182  14180  14183  14184      9     0.00   0.62760   3 ;    H8S-   C18-   C17-   H7R
 14182  14180  14183  14185      9     0.00   0.62760   3 ;    H8S-   C18-   C17-   H7S
 14182  14180  14183  14186      9     0.00   0.66944   3 ;    H8S-   C18-   C17-   C16
 14183  14186  14189  14190      9     0.00   0.66944   3 ;    C17-   C16-   C15-   H5R
 14183  14186  14189  14191      9     0.00   0.66944   3 ;    C17-   C16-   C15-   H5S
 14183  14186  14189  14192      9     0.00   0.41840   1 ;    C17-   C16-   C15-   C14
 14183  14186  14189  14192      9     0.00   0.41840   2 ;    C17-   C16-   C15-   C14
 14183  14186  14189  14192      9     0.00   0.41840   4 ;    C17-   C16-   C15-   C14
 14183  14186  14189  14192      9     0.00   0.41840   5 ;    C17-   C16-   C15-   C14
 14183  14186  14189  14192      9     0.00   1.25520   3 ;    C17-   C16-   C15-   C14
 14184  14183  14186  14187      9     0.00   0.62760   3 ;    H7R-   C17-   C16-   H6R
 14184  14183  14186  14188      9     0.00   0.62760   3 ;    H7R-   C17-   C16-   H6S
 14184  14183  14186  14189      9     0.00   0.66944   3 ;    H7R-   C17-   C16-   C15
 14185  14183  14186  14187      9     0.00   0.62760   3 ;    H7S-   C17-   C16-   H6R
 14185  14183  14186  14188      9     0.00   0.62760   3 ;    H7S-   C17-   C16-   H6S
 14185  14183  14186  14189      9     0.00   0.66944   3 ;    H7S-   C17-   C16-   C15
 14186  14189  14192  14193      9     0.00   0.66944   3 ;    C16-   C15-   C14-   H4R
 14186  14189  14192  14194      9     0.00   0.66944   3 ;    C16-   C15-   C14-   H4S
 14186  14189  14192  14195      9     0.00   0.41840   1 ;    C16-   C15-   C14-   C13
 14186  14189  14192  14195      9     0.00   0.41840   2 ;    C16-   C15-   C14-   C13
 14186  14189  14192  14195      9     0.00   0.41840   4 ;    C16-   C15-   C14-   C13
 14186  14189  14192  14195      9     0.00   0.41840   5 ;    C16-   C15-   C14-   C13
 14186  14189  14192  14195      9     0.00   1.25520   3 ;    C16-   C15-   C14-   C13
 14187  14186  14189  14190      9     0.00   0.62760   3 ;    H6R-   C16-   C15-   H5R
 14187  14186  14189  14191      9     0.00   0.62760   3 ;    H6R-   C16-   C15-   H5S
 14187  14186  14189  14192      9     0.00   0.66944   3 ;    H6R-   C16-   C15-   C14
 14188  14186  14189  14190      9     0.00   0.62760   3 ;    H6S-   C16-   C15-   H5R
 14188  14186  14189  14191      9     0.00   0.62760   3 ;    H6S-   C16-   C15-   H5S
 14188  14186  14189  14192      9     0.00   0.66944   3 ;    H6S-   C16-   C15-   C14
 14189  14192  14195  14196      9     0.00   0.66944   3 ;    C15-   C14-   C13-   H3R
 14189  14192  14195  14197      9     0.00   0.66944   3 ;    C15-   C14-   C13-   H3S
 14189  14192  14195  14198      9     0.00   0.41840   1 ;    C15-   C14-   C13-   C12
 14189  14192  14195  14198      9     0.00   0.41840   2 ;    C15-   C14-   C13-   C12
 14189  14192  14195  14198      9     0.00   0.41840   4 ;    C15-   C14-   C13-   C12
 14189  14192  14195  14198      9     0.00   0.41840   5 ;    C15-   C14-   C13-   C12
 14189  14192  14195  14198      9     0.00   1.25520   3 ;    C15-   C14-   C13-   C12
 14190  14189  14192  14193      9     0.00   0.62760   3 ;    H5R-   C15-   C14-   H4R
 14190  14189  14192  14194      9     0.00   0.62760   3 ;    H5R-   C15-   C14-   H4S
 14190  14189  14192  14195      9     0.00   0.66944   3 ;    H5R-   C15-   C14-   C13
 14191  14189  14192  14193      9     0.00   0.62760   3 ;    H5S-   C15-   C14-   H4R
 14191  14189  14192  14194      9     0.00   0.62760   3 ;    H5S-   C15-   C14-   H4S
 14191  14189  14192  14195      9     0.00   0.66944   3 ;    H5S-   C15-   C14-   C13
 14192  14195  14198  14199      9     0.00   0.66944   3 ;    C14-   C13-   C12-   H2R
 14192  14195  14198  14200      9     0.00   0.66944   3 ;    C14-   C13-   C12-   H2S
 14192  14195  14198  14201      9     0.00   0.65270   3 ;    C14-   C13-   C12-   C11
 14193  14192  14195  14196      9     0.00   0.62760   3 ;    H4R-   C14-   C13-   H3R
 14193  14192  14195  14197      9     0.00   0.62760   3 ;    H4R-   C14-   C13-   H3S
 14193  14192  14195  14198      9     0.00   0.66944   3 ;    H4R-   C14-   C13-   C12
 14194  14192  14195  14196      9     0.00   0.62760   3 ;    H4S-   C14-   C13-   H3R
 14194  14192  14195  14197      9     0.00   0.62760   3 ;    H4S-   C14-   C13-   H3S
 14194  14192  14195  14198      9     0.00   0.66944   3 ;    H4S-   C14-   C13-   C12
 14195  14198  14201  14202      9   180.00   0.00000   2 ;    C13-   C12-   C11-   O12
 14195  14198  14201  14203      9   180.00   0.00000   2 ;    C13-   C12-   C11-   O11
 14196  14195  14198  14199      9     0.00   0.62760   3 ;    H3R-   C13-   C12-   H2R
 14196  14195  14198  14200      9     0.00   0.62760   3 ;    H3R-   C13-   C12-   H2S
 14196  14195  14198  14201      9     0.00   0.65270   3 ;    H3R-   C13-   C12-   C11
 14197  14195  14198  14199      9     0.00   0.62760   3 ;    H3S-   C13-   C12-   H2R
 14197  14195  14198  14200      9     0.00   0.62760   3 ;    H3S-   C13-   C12-   H2S
 14197  14195  14198  14201      9     0.00   0.65270   3 ;    H3S-   C13-   C12-   C11
 14198  14201  14203  14204      9   180.00  11.29680   2 ;    C12-   C11-   O11-    C1
 14199  14198  14201  14202      9     0.00   3.34720   1 ;    H2R-   C12-   C11-   O12
 14199  14198  14201  14202      9   180.00   0.33472   3 ;    H2R-   C12-   C11-   O12
 14199  14198  14201  14203      9   180.00   0.00000   2 ;    H2R-   C12-   C11-   O11
 14200  14198  14201  14202      9     0.00   3.34720   1 ;    H2S-   C12-   C11-   O12
 14200  14198  14201  14202      9   180.00   0.33472   3 ;    H2S-   C12-   C11-   O12
 14200  14198  14201  14203      9   180.00   0.00000   2 ;    H2S-   C12-   C11-   O11
 14201  14203  14204  14205      9     0.00   1.60247   3 ;    C11-   O11-    C1-    HR
 14201  14203  14204  14206      9     0.00   1.60247   3 ;    C11-   O11-    C1-    HS
 14201  14203  14204  14207      9     0.00  -0.41840   1 ;    C11-   O11-    C1-    C2
 14202  14201  14203  14204      9   180.00   5.85760   1 ;    O12-   C11-   O11-    C1
 14202  14201  14203  14204      9   180.00  11.29680   2 ;    O12-   C11-   O11-    C1
 14203  14204  14207  14208      9     0.00   0.00000   0 ;    O11-    C1-    C2-    HX
 14203  14204  14207  14208      9     0.00   1.04600   1 ;    O11-    C1-    C2-    HX
 14203  14204  14207  14209      9     0.00   0.00000   0 ;    O11-    C1-    C2-    C3
 14203  14204  14207  14209      9     0.00   0.00000   0 ;    O11-    C1-    C2-    C3
 14203  14204  14207  14209      9     0.00   0.00000   0 ;    O11-    C1-    C2-    C3
 14203  14204  14207  14209      9     0.00   0.00000   0 ;    O11-    C1-    C2-    C3
 14203  14204  14207  14209      9     0.00   0.00000   0 ;    O11-    C1-    C2-    C3
 14203  14204  14207  14236      9     0.00   1.25520   2 ;    O11-    C1-    C2-   O21
 14203  14204  14207  14236      9     0.00   4.18400   3 ;    O11-    C1-    C2-   O21
 14203  14204  14207  14236      9   180.00  -0.41840   1 ;    O11-    C1-    C2-   O21
 14204  14207  14209  14210      9     0.00   0.65270   3 ;     C1-    C2-    C3-    HA
 14204  14207  14209  14211      9     0.00   0.65270   3 ;     C1-    C2-    C3-    HB
 14204  14207  14209  14212      9   180.00   3.34720   1 ;     C1-    C2-    C3-   O31
 14204  14207  14236  14237      9     0.00  -0.41840   1 ;     C1-    C2-   O21-   C21
 14205  14204  14207  14208      9     0.00   0.65270   3 ;     HR-    C1-    C2-    HX
 14205  14204  14207  14209      9     0.00   0.65270   3 ;     HR-    C1-    C2-    C3
 14205  14204  14207  14236      9     0.00   0.00000   0 ;     HR-    C1-    C2-   O21
 14205  14204  14207  14236      9     0.00   1.04600   1 ;     HR-    C1-    C2-   O21
 14206  14204  14207  14208      9     0.00   0.65270   3 ;     HS-    C1-    C2-    HX
 14206  14204  14207  14209      9     0.00   0.65270   3 ;     HS-    C1-    C2-    C3
 14206  14204  14207  14236      9     0.00   0.00000   0 ;     HS-    C1-    C2-   O21
 14206  14204  14207  14236      9     0.00   1.04600   1 ;     HS-    C1-    C2-   O21
 14207  14209  14212  14213      9     0.00   0.00000   0 ;     C2-    C3-   O31-   P31
 14207  14209  14212  14213      9   180.00  -3.34720   2 ;     C2-    C3-   O31-   P31
 14207  14236  14237  14238      9   180.00   5.85760   1 ;     C2-   O21-   C21-   O22
 14207  14236  14237  14238      9   180.00  11.29680   2 ;     C2-   O21-   C21-   O22
 14207  14236  14237  14276      9   180.00  11.29680   2 ;     C2-   O21-   C21-   C12
 14208  14207  14209  14210      9     0.00   0.65270   3 ;     HX-    C2-    C3-    HA
 14208  14207  14209  14211      9     0.00   0.65270   3 ;     HX-    C2-    C3-    HB
 14208  14207  14209  14212      9     0.00   0.00000   0 ;     HX-    C2-    C3-   O31
 14208  14207  14209  14212      9     0.00   1.04600   1 ;     HX-    C2-    C3-   O31
 14208  14207  14236  14237      9     0.00   1.60247   3 ;     HX-    C2-   O21-   C21
 14209  14207  14236  14237      9     0.00  -0.41840   1 ;     C3-    C2-   O21-   C21
 14209  14212  14213  14214      9     0.00   2.51040   3 ;     C3-   O31-   P31-   O32
 14209  14212  14213  14214      9     0.00   9.62320   2 ;     C3-   O31-   P31-   O32
 14209  14212  14213  14234      9     0.00   0.00000   0 ;     C3-   O31-   P31-   O33
 14209  14212  14213  14234      9     0.00   0.00000   0 ;     C3-   O31-   P31-   O33
 14209  14212  14213  14234      9     0.00   0.00000   0 ;     C3-   O31-   P31-   O33
 14209  14212  14213  14234      9     0.00   0.00000   0 ;     C3-   O31-   P31-   O33
 14209  14212  14213  14234      9     0.00   0.83680   2 ;     C3-   O31-   P31-   O33
 14209  14212  14213  14235      9     0.00   0.00000   0 ;     C3-   O31-   P31-   O34
 14209  14212  14213  14235      9     0.00   0.00000   0 ;     C3-   O31-   P31-   O34
 14209  14212  14213  14235      9     0.00   0.00000   0 ;     C3-   O31-   P31-   O34
 14209  14212  14213  14235      9     0.00   0.00000   0 ;     C3-   O31-   P31-   O34
 14209  14212  14213  14235      9     0.00   0.83680   2 ;     C3-   O31-   P31-   O34
 14210  14209  14207  14236      9     0.00   0.00000   0 ;     HA-    C3-    C2-   O21
 14210  14209  14207  14236      9     0.00   1.04600   1 ;     HA-    C3-    C2-   O21
 14210  14209  14212  14213      9     0.00   0.00000   0 ;     HA-    C3-   O31-   P31
 14210  14209  14212  14213      9     0.00   0.00000   0 ;     HA-    C3-   O31-   P31
 14210  14209  14212  14213      9     0.00   0.00000   0 ;     HA-    C3-   O31-   P31
 14210  14209  14212  14213      9     0.00   0.00000   0 ;     HA-    C3-   O31-   P31
 14210  14209  14212  14213      9     0.00   1.60247   3 ;     HA-    C3-   O31-   P31
 14211  14209  14207  14236      9     0.00   0.00000   0 ;     HB-    C3-    C2-   O21
 14211  14209  14207  14236      9     0.00   1.04600   1 ;     HB-    C3-    C2-   O21
 14211  14209  14212  14213      9     0.00   0.00000   0 ;     HB-    C3-   O31-   P31
 14211  14209  14212  14213      9     0.00   0.00000   0 ;     HB-    C3-   O31-   P31
 14211  14209  14212  14213      9     0.00   0.00000   0 ;     HB-    C3-   O31-   P31
 14211  14209  14212  14213      9     0.00   0.00000   0 ;     HB-    C3-   O31-   P31
 14211  14209  14212  14213      9     0.00   1.60247   3 ;     HB-    C3-   O31-   P31
 14212  14209  14207  14236      9     0.00   0.00000   0 ;    O31-    C3-    C2-   O21
 14212  14209  14207  14236      9     0.00   0.00000   0 ;    O31-    C3-    C2-   O21
 14212  14209  14207  14236      9     0.00   0.00000   0 ;    O31-    C3-    C2-   O21
 14212  14209  14207  14236      9     0.00   0.00000   0 ;    O31-    C3-    C2-   O21
 14212  14209  14207  14236      9     0.00   0.00000   0 ;    O31-    C3-    C2-   O21
 14212  14213  14214  14215      9     0.00   2.51040   3 ;    O31-   P31-   O32-   C31
 14212  14213  14214  14215      9     0.00   9.62320   2 ;    O31-   P31-   O32-   C31
 14213  14214  14215  14216      9     0.00   0.00000   0 ;    P31-   O32-   C31-   H1A
 14213  14214  14215  14216      9     0.00   0.00000   0 ;    P31-   O32-   C31-   H1A
 14213  14214  14215  14216      9     0.00   0.00000   0 ;    P31-   O32-   C31-   H1A
 14213  14214  14215  14216      9     0.00   0.00000   0 ;    P31-   O32-   C31-   H1A
 14213  14214  14215  14216      9     0.00   1.60247   3 ;    P31-   O32-   C31-   H1A
 14213  14214  14215  14217      9     0.00   0.00000   0 ;    P31-   O32-   C31-   H1B
 14213  14214  14215  14217      9     0.00   0.00000   0 ;    P31-   O32-   C31-   H1B
 14213  14214  14215  14217      9     0.00   0.00000   0 ;    P31-   O32-   C31-   H1B
 14213  14214  14215  14217      9     0.00   0.00000   0 ;    P31-   O32-   C31-   H1B
 14213  14214  14215  14217      9     0.00   1.60247   3 ;    P31-   O32-   C31-   H1B
 14213  14214  14215  14218      9     0.00   0.00000   0 ;    P31-   O32-   C31-   C32
 14213  14214  14215  14218      9   180.00  -3.34720   2 ;    P31-   O32-   C31-   C32
 14214  14215  14218  14219      9     0.00   0.65270   3 ;    O32-   C31-   C32-   H2A
 14214  14215  14218  14220      9     0.00   0.65270   3 ;    O32-   C31-   C32-   H2B
 14214  14215  14218  14221      9     0.00   4.18400   3 ;    O32-   C31-   C32-   N31
 14215  14214  14213  14234      9     0.00   0.00000   0 ;    C31-   O32-   P31-   O33
 14215  14214  14213  14234      9     0.00   0.00000   0 ;    C31-   O32-   P31-   O33
 14215  14214  14213  14234      9     0.00   0.00000   0 ;    C31-   O32-   P31-   O33
 14215  14214  14213  14234      9     0.00   0.00000   0 ;    C31-   O32-   P31-   O33
 14215  14214  14213  14234      9     0.00   0.83680   2 ;    C31-   O32-   P31-   O33
 14215  14214  14213  14235      9     0.00   0.00000   0 ;    C31-   O32-   P31-   O34
 14215  14214  14213  14235      9     0.00   0.00000   0 ;    C31-   O32-   P31-   O34
 14215  14214  14213  14235      9     0.00   0.00000   0 ;    C31-   O32-   P31-   O34
 14215  14214  14213  14235      9     0.00   0.00000   0 ;    C31-   O32-   P31-   O34
 14215  14214  14213  14235      9     0.00   0.83680   2 ;    C31-   O32-   P31-   O34
 14215  14218  14221  14222      9     0.00   0.65270   3 ;    C31-   C32-   N31-   C33
 14215  14218  14221  14226      9     0.00   0.65270   3 ;    C31-   C32-   N31-   C34
 14215  14218  14221  14230      9     0.00   0.65270   3 ;    C31-   C32-   N31-   C35
 14216  14215  14218  14219      9     0.00   0.65270   3 ;    H1A-   C31-   C32-   H2A
 14216  14215  14218  14220      9     0.00   0.65270   3 ;    H1A-   C31-   C32-   H2B
 14216  14215  14218  14221      9     0.00   0.65270   3 ;    H1A-   C31-   C32-   N31
 14217  14215  14218  14219      9     0.00   0.65270   3 ;    H1B-   C31-   C32-   H2A
 14217  14215  14218  14220      9     0.00   0.65270   3 ;    H1B-   C31-   C32-   H2B
 14217  14215  14218  14221      9     0.00   0.65270   3 ;    H1B-   C31-   C32-   N31
 14218  14221  14222  14223      9     0.00   0.65270   3 ;    C32-   N31-   C33-   H3A
 14218  14221  14222  14224      9     0.00   0.65270   3 ;    C32-   N31-   C33-   H3B
 14218  14221  14222  14225      9     0.00   0.65270   3 ;    C32-   N31-   C33-   H3C
 14218  14221  14226  14227      9     0.00   0.65270   3 ;    C32-   N31-   C34-   H4A
 14218  14221  14226  14228      9     0.00   0.65270   3 ;    C32-   N31-   C34-   H4B
 14218  14221  14226  14229      9     0.00   0.65270   3 ;    C32-   N31-   C34-   H4C
 14218  14221  14230  14231      9     0.00   0.65270   3 ;    C32-   N31-   C35-   H5A
 14218  14221  14230  14232      9     0.00   0.65270   3 ;    C32-   N31-   C35-   H5B
 14218  14221  14230  14233      9     0.00   0.65270   3 ;    C32-   N31-   C35-   H5C
 14219  14218  14221  14222      9     0.00   0.65270   3 ;    H2A-   C32-   N31-   C33
 14219  14218  14221  14226      9     0.00   0.65270   3 ;    H2A-   C32-   N31-   C34
 14219  14218  14221  14230      9     0.00   0.65270   3 ;    H2A-   C32-   N31-   C35
 14220  14218  14221  14222      9     0.00   0.65270   3 ;    H2B-   C32-   N31-   C33
 14220  14218  14221  14226      9     0.00   0.65270   3 ;    H2B-   C32-   N31-   C34
 14220  14218  14221  14230      9     0.00   0.65270   3 ;    H2B-   C32-   N31-   C35
 14222  14221  14226  14227      9     0.00   0.65270   3 ;    C33-   N31-   C34-   H4A
 14222  14221  14226  14228      9     0.00   0.65270   3 ;    C33-   N31-   C34-   H4B
 14222  14221  14226  14229      9     0.00   0.65270   3 ;    C33-   N31-   C34-   H4C
 14222  14221  14230  14231      9     0.00   0.65270   3 ;    C33-   N31-   C35-   H5A
 14222  14221  14230  14232      9     0.00   0.65270   3 ;    C33-   N31-   C35-   H5B
 14222  14221  14230  14233      9     0.00   0.65270   3 ;    C33-   N31-   C35-   H5C
 14223  14222  14221  14226      9     0.00   0.65270   3 ;    H3A-   C33-   N31-   C34
 14223  14222  14221  14230      9     0.00   0.65270   3 ;    H3A-   C33-   N31-   C35
 14224  14222  14221  14226      9     0.00   0.65270   3 ;    H3B-   C33-   N31-   C34
 14224  14222  14221  14230      9     0.00   0.65270   3 ;    H3B-   C33-   N31-   C35
 14225  14222  14221  14226      9     0.00   0.65270   3 ;    H3C-   C33-   N31-   C34
 14225  14222  14221  14230      9     0.00   0.65270   3 ;    H3C-   C33-   N31-   C35
 14226  14221  14230  14231      9     0.00   0.65270   3 ;    C34-   N31-   C35-   H5A
 14226  14221  14230  14232      9     0.00   0.65270   3 ;    C34-   N31-   C35-   H5B
 14226  14221  14230  14233      9     0.00   0.65270   3 ;    C34-   N31-   C35-   H5C
 14227  14226  14221  14230      9     0.00   0.65270   3 ;    H4A-   C34-   N31-   C35
 14228  14226  14221  14230      9     0.00   0.65270   3 ;    H4B-   C34-   N31-   C35
 14229  14226  14221  14230      9     0.00   0.65270   3 ;    H4C-   C34-   N31-   C35
 14236  14237  14276  14273      9   180.00   0.00000   2 ;    O21-   C21-   C12-   C13
 14236  14237  14276  14277      9   180.00   0.00000   2 ;    O21-   C21-   C12-   H2R
 14236  14237  14276  14278      9   180.00   0.00000   2 ;    O21-   C21-   C12-   H2S
 14237  14276  14273  14270      9     0.00   0.65270   3 ;    C21-   C12-   C13-   C14
 14237  14276  14273  14274      9     0.00   0.65270   3 ;    C21-   C12-   C13-   H3R
 14237  14276  14273  14275      9     0.00   0.65270   3 ;    C21-   C12-   C13-   H3S
 14238  14237  14276  14273      9   180.00   0.00000   2 ;    O22-   C21-   C12-   C13
 14238  14237  14276  14277      9     0.00   3.34720   1 ;    O22-   C21-   C12-   H2R
 14238  14237  14276  14277      9   180.00   0.33472   3 ;    O22-   C21-   C12-   H2R
 14238  14237  14276  14278      9     0.00   3.34720   1 ;    O22-   C21-   C12-   H2S
 14238  14237  14276  14278      9   180.00   0.33472   3 ;    O22-   C21-   C12-   H2S
 14239  14240  14243  14244      9     0.00   0.62760   3 ;   H14T-  C114-  C113-  H13R
 14239  14240  14243  14245      9     0.00   0.62760   3 ;   H14T-  C114-  C113-  H13S
 14239  14240  14243  14246      9     0.00   0.66944   3 ;   H14T-  C114-  C113-  C112
 14240  14243  14246  14247      9     0.00   0.66944   3 ;   C114-  C113-  C112-  H12R
 14240  14243  14246  14248      9     0.00   0.66944   3 ;   C114-  C113-  C112-  H12S
 14240  14243  14246  14249      9     0.00   0.41840   1 ;   C114-  C113-  C112-  C111
 14240  14243  14246  14249      9     0.00   0.41840   2 ;   C114-  C113-  C112-  C111
 14240  14243  14246  14249      9     0.00   0.41840   4 ;   C114-  C113-  C112-  C111
 14240  14243  14246  14249      9     0.00   0.41840   5 ;   C114-  C113-  C112-  C111
 14240  14243  14246  14249      9     0.00   1.25520   3 ;   C114-  C113-  C112-  C111
 14241  14240  14243  14244      9     0.00   0.62760   3 ;   H14R-  C114-  C113-  H13R
 14241  14240  14243  14245      9     0.00   0.62760   3 ;   H14R-  C114-  C113-  H13S
 14241  14240  14243  14246      9     0.00   0.66944   3 ;   H14R-  C114-  C113-  C112
 14242  14240  14243  14244      9     0.00   0.62760   3 ;   H14S-  C114-  C113-  H13R
 14242  14240  14243  14245      9     0.00   0.62760   3 ;   H14S-  C114-  C113-  H13S
 14242  14240  14243  14246      9     0.00   0.66944   3 ;   H14S-  C114-  C113-  C112
 14243  14246  14249  14250      9     0.00   0.66944   3 ;   C113-  C112-  C111-  H11R
 14243  14246  14249  14251      9     0.00   0.66944   3 ;   C113-  C112-  C111-  H11S
 14243  14246  14249  14252      9     0.00   0.41840   1 ;   C113-  C112-  C111-  C110
 14243  14246  14249  14252      9     0.00   0.41840   2 ;   C113-  C112-  C111-  C110
 14243  14246  14249  14252      9     0.00   0.41840   4 ;   C113-  C112-  C111-  C110
 14243  14246  14249  14252      9     0.00   0.41840   5 ;   C113-  C112-  C111-  C110
 14243  14246  14249  14252      9     0.00   1.25520   3 ;   C113-  C112-  C111-  C110
 14244  14243  14246  14247      9     0.00   0.62760   3 ;   H13R-  C113-  C112-  H12R
 14244  14243  14246  14248      9     0.00   0.62760   3 ;   H13R-  C113-  C112-  H12S
 14244  14243  14246  14249      9     0.00   0.66944   3 ;   H13R-  C113-  C112-  C111
 14245  14243  14246  14247      9     0.00   0.62760   3 ;   H13S-  C113-  C112-  H12R
 14245  14243  14246  14248      9     0.00   0.62760   3 ;   H13S-  C113-  C112-  H12S
 14245  14243  14246  14249      9     0.00   0.66944   3 ;   H13S-  C113-  C112-  C111
 14246  14249  14252  14253      9     0.00   0.66944   3 ;   C112-  C111-  C110-  H10R
 14246  14249  14252  14254      9     0.00   0.66944   3 ;   C112-  C111-  C110-  H10S
 14246  14249  14252  14255      9     0.00   0.41840   1 ;   C112-  C111-  C110-   C19
 14246  14249  14252  14255      9     0.00   0.41840   2 ;   C112-  C111-  C110-   C19
 14246  14249  14252  14255      9     0.00   0.41840   4 ;   C112-  C111-  C110-   C19
 14246  14249  14252  14255      9     0.00   0.41840   5 ;   C112-  C111-  C110-   C19
 14246  14249  14252  14255      9     0.00   1.25520   3 ;   C112-  C111-  C110-   C19
 14247  14246  14249  14250      9     0.00   0.62760   3 ;   H12R-  C112-  C111-  H11R
 14247  14246  14249  14251      9     0.00   0.62760   3 ;   H12R-  C112-  C111-  H11S
 14247  14246  14249  14252      9     0.00   0.66944   3 ;   H12R-  C112-  C111-  C110
 14248  14246  14249  14250      9     0.00   0.62760   3 ;   H12S-  C112-  C111-  H11R
 14248  14246  14249  14251      9     0.00   0.62760   3 ;   H12S-  C112-  C111-  H11S
 14248  14246  14249  14252      9     0.00   0.66944   3 ;   H12S-  C112-  C111-  C110
 14249  14252  14255  14256      9     0.00   0.66944   3 ;   C111-  C110-   C19-   H9R
 14249  14252  14255  14257      9     0.00   0.66944   3 ;   C111-  C110-   C19-   H9S
 14249  14252  14255  14258      9     0.00   0.41840   1 ;   C111-  C110-   C19-   C18
 14249  14252  14255  14258      9     0.00   0.41840   2 ;   C111-  C110-   C19-   C18
 14249  14252  14255  14258      9     0.00   0.41840   4 ;   C111-  C110-   C19-   C18
 14249  14252  14255  14258      9     0.00   0.41840   5 ;   C111-  C110-   C19-   C18
 14249  14252  14255  14258      9     0.00   1.25520   3 ;   C111-  C110-   C19-   C18
 14250  14249  14252  14253      9     0.00   0.62760   3 ;   H11R-  C111-  C110-  H10R
 14250  14249  14252  14254      9     0.00   0.62760   3 ;   H11R-  C111-  C110-  H10S
 14250  14249  14252  14255      9     0.00   0.66944   3 ;   H11R-  C111-  C110-   C19
 14251  14249  14252  14253      9     0.00   0.62760   3 ;   H11S-  C111-  C110-  H10R
 14251  14249  14252  14254      9     0.00   0.62760   3 ;   H11S-  C111-  C110-  H10S
 14251  14249  14252  14255      9     0.00   0.66944   3 ;   H11S-  C111-  C110-   C19
 14252  14255  14258  14259      9     0.00   0.66944   3 ;   C110-   C19-   C18-   H8R
 14252  14255  14258  14260      9     0.00   0.66944   3 ;   C110-   C19-   C18-   H8S
 14252  14255  14258  14261      9     0.00   0.41840   1 ;   C110-   C19-   C18-   C17
 14252  14255  14258  14261      9     0.00   0.41840   2 ;   C110-   C19-   C18-   C17
 14252  14255  14258  14261      9     0.00   0.41840   4 ;   C110-   C19-   C18-   C17
 14252  14255  14258  14261      9     0.00   0.41840   5 ;   C110-   C19-   C18-   C17
 14252  14255  14258  14261      9     0.00   1.25520   3 ;   C110-   C19-   C18-   C17
 14253  14252  14255  14256      9     0.00   0.62760   3 ;   H10R-  C110-   C19-   H9R
 14253  14252  14255  14257      9     0.00   0.62760   3 ;   H10R-  C110-   C19-   H9S
 14253  14252  14255  14258      9     0.00   0.66944   3 ;   H10R-  C110-   C19-   C18
 14254  14252  14255  14256      9     0.00   0.62760   3 ;   H10S-  C110-   C19-   H9R
 14254  14252  14255  14257      9     0.00   0.62760   3 ;   H10S-  C110-   C19-   H9S
 14254  14252  14255  14258      9     0.00   0.66944   3 ;   H10S-  C110-   C19-   C18
 14255  14258  14261  14262      9     0.00   0.66944   3 ;    C19-   C18-   C17-   H7R
 14255  14258  14261  14263      9     0.00   0.66944   3 ;    C19-   C18-   C17-   H7S
 14255  14258  14261  14264      9     0.00   0.41840   1 ;    C19-   C18-   C17-   C16
 14255  14258  14261  14264      9     0.00   0.41840   2 ;    C19-   C18-   C17-   C16
 14255  14258  14261  14264      9     0.00   0.41840   4 ;    C19-   C18-   C17-   C16
 14255  14258  14261  14264      9     0.00   0.41840   5 ;    C19-   C18-   C17-   C16
 14255  14258  14261  14264      9     0.00   1.25520   3 ;    C19-   C18-   C17-   C16
 14256  14255  14258  14259      9     0.00   0.62760   3 ;    H9R-   C19-   C18-   H8R
 14256  14255  14258  14260      9     0.00   0.62760   3 ;    H9R-   C19-   C18-   H8S
 14256  14255  14258  14261      9     0.00   0.66944   3 ;    H9R-   C19-   C18-   C17
 14257  14255  14258  14259      9     0.00   0.62760   3 ;    H9S-   C19-   C18-   H8R
 14257  14255  14258  14260      9     0.00   0.62760   3 ;    H9S-   C19-   C18-   H8S
 14257  14255  14258  14261      9     0.00   0.66944   3 ;    H9S-   C19-   C18-   C17
 14258  14261  14264  14265      9     0.00   0.66944   3 ;    C18-   C17-   C16-   H6R
 14258  14261  14264  14266      9     0.00   0.66944   3 ;    C18-   C17-   C16-   H6S
 14258  14261  14264  14267      9     0.00   0.41840   1 ;    C18-   C17-   C16-   C15
 14258  14261  14264  14267      9     0.00   0.41840   2 ;    C18-   C17-   C16-   C15
 14258  14261  14264  14267      9     0.00   0.41840   4 ;    C18-   C17-   C16-   C15
 14258  14261  14264  14267      9     0.00   0.41840   5 ;    C18-   C17-   C16-   C15
 14258  14261  14264  14267      9     0.00   1.25520   3 ;    C18-   C17-   C16-   C15
 14259  14258  14261  14262      9     0.00   0.62760   3 ;    H8R-   C18-   C17-   H7R
 14259  14258  14261  14263      9     0.00   0.62760   3 ;    H8R-   C18-   C17-   H7S
 14259  14258  14261  14264      9     0.00   0.66944   3 ;    H8R-   C18-   C17-   C16
 14260  14258  14261  14262      9     0.00   0.62760   3 ;    H8S-   C18-   C17-   H7R
 14260  14258  14261  14263      9     0.00   0.62760   3 ;    H8S-   C18-   C17-   H7S
 14260  14258  14261  14264      9     0.00   0.66944   3 ;    H8S-   C18-   C17-   C16
 14261  14264  14267  14268      9     0.00   0.66944   3 ;    C17-   C16-   C15-   H5R
 14261  14264  14267  14269      9     0.00   0.66944   3 ;    C17-   C16-   C15-   H5S
 14261  14264  14267  14270      9     0.00   0.41840   1 ;    C17-   C16-   C15-   C14
 14261  14264  14267  14270      9     0.00   0.41840   2 ;    C17-   C16-   C15-   C14
 14261  14264  14267  14270      9     0.00   0.41840   4 ;    C17-   C16-   C15-   C14
 14261  14264  14267  14270      9     0.00   0.41840   5 ;    C17-   C16-   C15-   C14
 14261  14264  14267  14270      9     0.00   1.25520   3 ;    C17-   C16-   C15-   C14
 14262  14261  14264  14265      9     0.00   0.62760   3 ;    H7R-   C17-   C16-   H6R
 14262  14261  14264  14266      9     0.00   0.62760   3 ;    H7R-   C17-   C16-   H6S
 14262  14261  14264  14267      9     0.00   0.66944   3 ;    H7R-   C17-   C16-   C15
 14263  14261  14264  14265      9     0.00   0.62760   3 ;    H7S-   C17-   C16-   H6R
 14263  14261  14264  14266      9     0.00   0.62760   3 ;    H7S-   C17-   C16-   H6S
 14263  14261  14264  14267      9     0.00   0.66944   3 ;    H7S-   C17-   C16-   C15
 14264  14267  14270  14271      9     0.00   0.66944   3 ;    C16-   C15-   C14-   H4R
 14264  14267  14270  14272      9     0.00   0.66944   3 ;    C16-   C15-   C14-   H4S
 14264  14267  14270  14273      9     0.00   0.41840   1 ;    C16-   C15-   C14-   C13
 14264  14267  14270  14273      9     0.00   0.41840   2 ;    C16-   C15-   C14-   C13
 14264  14267  14270  14273      9     0.00   0.41840   4 ;    C16-   C15-   C14-   C13
 14264  14267  14270  14273      9     0.00   0.41840   5 ;    C16-   C15-   C14-   C13
 14264  14267  14270  14273      9     0.00   1.25520   3 ;    C16-   C15-   C14-   C13
 14265  14264  14267  14268      9     0.00   0.62760   3 ;    H6R-   C16-   C15-   H5R
 14265  14264  14267  14269      9     0.00   0.62760   3 ;    H6R-   C16-   C15-   H5S
 14265  14264  14267  14270      9     0.00   0.66944   3 ;    H6R-   C16-   C15-   C14
 14266  14264  14267  14268      9     0.00   0.62760   3 ;    H6S-   C16-   C15-   H5R
 14266  14264  14267  14269      9     0.00   0.62760   3 ;    H6S-   C16-   C15-   H5S
 14266  14264  14267  14270      9     0.00   0.66944   3 ;    H6S-   C16-   C15-   C14
 14267  14270  14273  14274      9     0.00   0.66944   3 ;    C15-   C14-   C13-   H3R
 14267  14270  14273  14275      9     0.00   0.66944   3 ;    C15-   C14-   C13-   H3S
 14267  14270  14273  14276      9     0.00   0.41840   1 ;    C15-   C14-   C13-   C12
 14267  14270  14273  14276      9     0.00   0.41840   2 ;    C15-   C14-   C13-   C12
 14267  14270  14273  14276      9     0.00   0.41840   4 ;    C15-   C14-   C13-   C12
 14267  14270  14273  14276      9     0.00   0.41840   5 ;    C15-   C14-   C13-   C12
 14267  14270  14273  14276      9     0.00   1.25520   3 ;    C15-   C14-   C13-   C12
 14268  14267  14270  14271      9     0.00   0.62760   3 ;    H5R-   C15-   C14-   H4R
 14268  14267  14270  14272      9     0.00   0.62760   3 ;    H5R-   C15-   C14-   H4S
 14268  14267  14270  14273      9     0.00   0.66944   3 ;    H5R-   C15-   C14-   C13
 14269  14267  14270  14271      9     0.00   0.62760   3 ;    H5S-   C15-   C14-   H4R
 14269  14267  14270  14272      9     0.00   0.62760   3 ;    H5S-   C15-   C14-   H4S
 14269  14267  14270  14273      9     0.00   0.66944   3 ;    H5S-   C15-   C14-   C13
 14270  14273  14276  14277      9     0.00   0.66944   3 ;    C14-   C13-   C12-   H2R
 14270  14273  14276  14278      9     0.00   0.66944   3 ;    C14-   C13-   C12-   H2S
 14271  14270  14273  14274      9     0.00   0.62760   3 ;    H4R-   C14-   C13-   H3R
 14271  14270  14273  14275      9     0.00   0.62760   3 ;    H4R-   C14-   C13-   H3S
 14271  14270  14273  14276      9     0.00   0.66944   3 ;    H4R-   C14-   C13-   C12
 14272  14270  14273  14274      9     0.00   0.62760   3 ;    H4S-   C14-   C13-   H3R
 14272  14270  14273  14275      9     0.00   0.62760   3 ;    H4S-   C14-   C13-   H3S
 14272  14270  14273  14276      9     0.00   0.66944   3 ;    H4S-   C14-   C13-   C12
 14274  14273  14276  14277      9     0.00   0.62760   3 ;    H3R-   C13-   C12-   H2R
 14274  14273  14276  14278      9     0.00   0.62760   3 ;    H3R-   C13-   C12-   H2S
 14275  14273  14276  14277      9     0.00   0.62760   3 ;    H3S-   C13-   C12-   H2R
 14275  14273  14276  14278      9     0.00   0.62760   3 ;    H3S-   C13-   C12-   H2S
 14279  14280  14283  14284      9     0.00   0.62760   3 ;   H14T-  C114-  C113-  H13R
 14279  14280  14283  14285      9     0.00   0.62760   3 ;   H14T-  C114-  C113-  H13S
 14279  14280  14283  14286      9     0.00   0.66944   3 ;   H14T-  C114-  C113-  C112
 14280  14283  14286  14287      9     0.00   0.66944   3 ;   C114-  C113-  C112-  H12R
 14280  14283  14286  14288      9     0.00   0.66944   3 ;   C114-  C113-  C112-  H12S
 14280  14283  14286  14289      9     0.00   0.41840   1 ;   C114-  C113-  C112-  C111
 14280  14283  14286  14289      9     0.00   0.41840   2 ;   C114-  C113-  C112-  C111
 14280  14283  14286  14289      9     0.00   0.41840   4 ;   C114-  C113-  C112-  C111
 14280  14283  14286  14289      9     0.00   0.41840   5 ;   C114-  C113-  C112-  C111
 14280  14283  14286  14289      9     0.00   1.25520   3 ;   C114-  C113-  C112-  C111
 14281  14280  14283  14284      9     0.00   0.62760   3 ;   H14R-  C114-  C113-  H13R
 14281  14280  14283  14285      9     0.00   0.62760   3 ;   H14R-  C114-  C113-  H13S
 14281  14280  14283  14286      9     0.00   0.66944   3 ;   H14R-  C114-  C113-  C112
 14282  14280  14283  14284      9     0.00   0.62760   3 ;   H14S-  C114-  C113-  H13R
 14282  14280  14283  14285      9     0.00   0.62760   3 ;   H14S-  C114-  C113-  H13S
 14282  14280  14283  14286      9     0.00   0.66944   3 ;   H14S-  C114-  C113-  C112
 14283  14286  14289  14290      9     0.00   0.66944   3 ;   C113-  C112-  C111-  H11R
 14283  14286  14289  14291      9     0.00   0.66944   3 ;   C113-  C112-  C111-  H11S
 14283  14286  14289  14292      9     0.00   0.41840   1 ;   C113-  C112-  C111-  C110
 14283  14286  14289  14292      9     0.00   0.41840   2 ;   C113-  C112-  C111-  C110
 14283  14286  14289  14292      9     0.00   0.41840   4 ;   C113-  C112-  C111-  C110
 14283  14286  14289  14292      9     0.00   0.41840   5 ;   C113-  C112-  C111-  C110
 14283  14286  14289  14292      9     0.00   1.25520   3 ;   C113-  C112-  C111-  C110
 14284  14283  14286  14287      9     0.00   0.62760   3 ;   H13R-  C113-  C112-  H12R
 14284  14283  14286  14288      9     0.00   0.62760   3 ;   H13R-  C113-  C112-  H12S
 14284  14283  14286  14289      9     0.00   0.66944   3 ;   H13R-  C113-  C112-  C111
 14285  14283  14286  14287      9     0.00   0.62760   3 ;   H13S-  C113-  C112-  H12R
 14285  14283  14286  14288      9     0.00   0.62760   3 ;   H13S-  C113-  C112-  H12S
 14285  14283  14286  14289      9     0.00   0.66944   3 ;   H13S-  C113-  C112-  C111
 14286  14289  14292  14293      9     0.00   0.66944   3 ;   C112-  C111-  C110-  H10R
 14286  14289  14292  14294      9     0.00   0.66944   3 ;   C112-  C111-  C110-  H10S
 14286  14289  14292  14295      9     0.00   0.41840   1 ;   C112-  C111-  C110-   C19
 14286  14289  14292  14295      9     0.00   0.41840   2 ;   C112-  C111-  C110-   C19
 14286  14289  14292  14295      9     0.00   0.41840   4 ;   C112-  C111-  C110-   C19
 14286  14289  14292  14295      9     0.00   0.41840   5 ;   C112-  C111-  C110-   C19
 14286  14289  14292  14295      9     0.00   1.25520   3 ;   C112-  C111-  C110-   C19
 14287  14286  14289  14290      9     0.00   0.62760   3 ;   H12R-  C112-  C111-  H11R
 14287  14286  14289  14291      9     0.00   0.62760   3 ;   H12R-  C112-  C111-  H11S
 14287  14286  14289  14292      9     0.00   0.66944   3 ;   H12R-  C112-  C111-  C110
 14288  14286  14289  14290      9     0.00   0.62760   3 ;   H12S-  C112-  C111-  H11R
 14288  14286  14289  14291      9     0.00   0.62760   3 ;   H12S-  C112-  C111-  H11S
 14288  14286  14289  14292      9     0.00   0.66944   3 ;   H12S-  C112-  C111-  C110
 14289  14292  14295  14296      9     0.00   0.66944   3 ;   C111-  C110-   C19-   H9R
 14289  14292  14295  14297      9     0.00   0.66944   3 ;   C111-  C110-   C19-   H9S
 14289  14292  14295  14298      9     0.00   0.41840   1 ;   C111-  C110-   C19-   C18
 14289  14292  14295  14298      9     0.00   0.41840   2 ;   C111-  C110-   C19-   C18
 14289  14292  14295  14298      9     0.00   0.41840   4 ;   C111-  C110-   C19-   C18
 14289  14292  14295  14298      9     0.00   0.41840   5 ;   C111-  C110-   C19-   C18
 14289  14292  14295  14298      9     0.00   1.25520   3 ;   C111-  C110-   C19-   C18
 14290  14289  14292  14293      9     0.00   0.62760   3 ;   H11R-  C111-  C110-  H10R
 14290  14289  14292  14294      9     0.00   0.62760   3 ;   H11R-  C111-  C110-  H10S
 14290  14289  14292  14295      9     0.00   0.66944   3 ;   H11R-  C111-  C110-   C19
 14291  14289  14292  14293      9     0.00   0.62760   3 ;   H11S-  C111-  C110-  H10R
 14291  14289  14292  14294      9     0.00   0.62760   3 ;   H11S-  C111-  C110-  H10S
 14291  14289  14292  14295      9     0.00   0.66944   3 ;   H11S-  C111-  C110-   C19
 14292  14295  14298  14299      9     0.00   0.66944   3 ;   C110-   C19-   C18-   H8R
 14292  14295  14298  14300      9     0.00   0.66944   3 ;   C110-   C19-   C18-   H8S
 14292  14295  14298  14301      9     0.00   0.41840   1 ;   C110-   C19-   C18-   C17
 14292  14295  14298  14301      9     0.00   0.41840   2 ;   C110-   C19-   C18-   C17
 14292  14295  14298  14301      9     0.00   0.41840   4 ;   C110-   C19-   C18-   C17
 14292  14295  14298  14301      9     0.00   0.41840   5 ;   C110-   C19-   C18-   C17
 14292  14295  14298  14301      9     0.00   1.25520   3 ;   C110-   C19-   C18-   C17
 14293  14292  14295  14296      9     0.00   0.62760   3 ;   H10R-  C110-   C19-   H9R
 14293  14292  14295  14297      9     0.00   0.62760   3 ;   H10R-  C110-   C19-   H9S
 14293  14292  14295  14298      9     0.00   0.66944   3 ;   H10R-  C110-   C19-   C18
 14294  14292  14295  14296      9     0.00   0.62760   3 ;   H10S-  C110-   C19-   H9R
 14294  14292  14295  14297      9     0.00   0.62760   3 ;   H10S-  C110-   C19-   H9S
 14294  14292  14295  14298      9     0.00   0.66944   3 ;   H10S-  C110-   C19-   C18
 14295  14298  14301  14302      9     0.00   0.66944   3 ;    C19-   C18-   C17-   H7R
 14295  14298  14301  14303      9     0.00   0.66944   3 ;    C19-   C18-   C17-   H7S
 14295  14298  14301  14304      9     0.00   0.41840   1 ;    C19-   C18-   C17-   C16
 14295  14298  14301  14304      9     0.00   0.41840   2 ;    C19-   C18-   C17-   C16
 14295  14298  14301  14304      9     0.00   0.41840   4 ;    C19-   C18-   C17-   C16
 14295  14298  14301  14304      9     0.00   0.41840   5 ;    C19-   C18-   C17-   C16
 14295  14298  14301  14304      9     0.00   1.25520   3 ;    C19-   C18-   C17-   C16
 14296  14295  14298  14299      9     0.00   0.62760   3 ;    H9R-   C19-   C18-   H8R
 14296  14295  14298  14300      9     0.00   0.62760   3 ;    H9R-   C19-   C18-   H8S
 14296  14295  14298  14301      9     0.00   0.66944   3 ;    H9R-   C19-   C18-   C17
 14297  14295  14298  14299      9     0.00   0.62760   3 ;    H9S-   C19-   C18-   H8R
 14297  14295  14298  14300      9     0.00   0.62760   3 ;    H9S-   C19-   C18-   H8S
 14297  14295  14298  14301      9     0.00   0.66944   3 ;    H9S-   C19-   C18-   C17
 14298  14301  14304  14305      9     0.00   0.66944   3 ;    C18-   C17-   C16-   H6R
 14298  14301  14304  14306      9     0.00   0.66944   3 ;    C18-   C17-   C16-   H6S
 14298  14301  14304  14307      9     0.00   0.41840   1 ;    C18-   C17-   C16-   C15
 14298  14301  14304  14307      9     0.00   0.41840   2 ;    C18-   C17-   C16-   C15
 14298  14301  14304  14307      9     0.00   0.41840   4 ;    C18-   C17-   C16-   C15
 14298  14301  14304  14307      9     0.00   0.41840   5 ;    C18-   C17-   C16-   C15
 14298  14301  14304  14307      9     0.00   1.25520   3 ;    C18-   C17-   C16-   C15
 14299  14298  14301  14302      9     0.00   0.62760   3 ;    H8R-   C18-   C17-   H7R
 14299  14298  14301  14303      9     0.00   0.62760   3 ;    H8R-   C18-   C17-   H7S
 14299  14298  14301  14304      9     0.00   0.66944   3 ;    H8R-   C18-   C17-   C16
 14300  14298  14301  14302      9     0.00   0.62760   3 ;    H8S-   C18-   C17-   H7R
 14300  14298  14301  14303      9     0.00   0.62760   3 ;    H8S-   C18-   C17-   H7S
 14300  14298  14301  14304      9     0.00   0.66944   3 ;    H8S-   C18-   C17-   C16
 14301  14304  14307  14308      9     0.00   0.66944   3 ;    C17-   C16-   C15-   H5R
 14301  14304  14307  14309      9     0.00   0.66944   3 ;    C17-   C16-   C15-   H5S
 14301  14304  14307  14310      9     0.00   0.41840   1 ;    C17-   C16-   C15-   C14
 14301  14304  14307  14310      9     0.00   0.41840   2 ;    C17-   C16-   C15-   C14
 14301  14304  14307  14310      9     0.00   0.41840   4 ;    C17-   C16-   C15-   C14
 14301  14304  14307  14310      9     0.00   0.41840   5 ;    C17-   C16-   C15-   C14
 14301  14304  14307  14310      9     0.00   1.25520   3 ;    C17-   C16-   C15-   C14
 14302  14301  14304  14305      9     0.00   0.62760   3 ;    H7R-   C17-   C16-   H6R
 14302  14301  14304  14306      9     0.00   0.62760   3 ;    H7R-   C17-   C16-   H6S
 14302  14301  14304  14307      9     0.00   0.66944   3 ;    H7R-   C17-   C16-   C15
 14303  14301  14304  14305      9     0.00   0.62760   3 ;    H7S-   C17-   C16-   H6R
 14303  14301  14304  14306      9     0.00   0.62760   3 ;    H7S-   C17-   C16-   H6S
 14303  14301  14304  14307      9     0.00   0.66944   3 ;    H7S-   C17-   C16-   C15
 14304  14307  14310  14311      9     0.00   0.66944   3 ;    C16-   C15-   C14-   H4R
 14304  14307  14310  14312      9     0.00   0.66944   3 ;    C16-   C15-   C14-   H4S
 14304  14307  14310  14313      9     0.00   0.41840   1 ;    C16-   C15-   C14-   C13
 14304  14307  14310  14313      9     0.00   0.41840   2 ;    C16-   C15-   C14-   C13
 14304  14307  14310  14313      9     0.00   0.41840   4 ;    C16-   C15-   C14-   C13
 14304  14307  14310  14313      9     0.00   0.41840   5 ;    C16-   C15-   C14-   C13
 14304  14307  14310  14313      9     0.00   1.25520   3 ;    C16-   C15-   C14-   C13
 14305  14304  14307  14308      9     0.00   0.62760   3 ;    H6R-   C16-   C15-   H5R
 14305  14304  14307  14309      9     0.00   0.62760   3 ;    H6R-   C16-   C15-   H5S
 14305  14304  14307  14310      9     0.00   0.66944   3 ;    H6R-   C16-   C15-   C14
 14306  14304  14307  14308      9     0.00   0.62760   3 ;    H6S-   C16-   C15-   H5R
 14306  14304  14307  14309      9     0.00   0.62760   3 ;    H6S-   C16-   C15-   H5S
 14306  14304  14307  14310      9     0.00   0.66944   3 ;    H6S-   C16-   C15-   C14
 14307  14310  14313  14314      9     0.00   0.66944   3 ;    C15-   C14-   C13-   H3R
 14307  14310  14313  14315      9     0.00   0.66944   3 ;    C15-   C14-   C13-   H3S
 14307  14310  14313  14316      9     0.00   0.41840   1 ;    C15-   C14-   C13-   C12
 14307  14310  14313  14316      9     0.00   0.41840   2 ;    C15-   C14-   C13-   C12
 14307  14310  14313  14316      9     0.00   0.41840   4 ;    C15-   C14-   C13-   C12
 14307  14310  14313  14316      9     0.00   0.41840   5 ;    C15-   C14-   C13-   C12
 14307  14310  14313  14316      9     0.00   1.25520   3 ;    C15-   C14-   C13-   C12
 14308  14307  14310  14311      9     0.00   0.62760   3 ;    H5R-   C15-   C14-   H4R
 14308  14307  14310  14312      9     0.00   0.62760   3 ;    H5R-   C15-   C14-   H4S
 14308  14307  14310  14313      9     0.00   0.66944   3 ;    H5R-   C15-   C14-   C13
 14309  14307  14310  14311      9     0.00   0.62760   3 ;    H5S-   C15-   C14-   H4R
 14309  14307  14310  14312      9     0.00   0.62760   3 ;    H5S-   C15-   C14-   H4S
 14309  14307  14310  14313      9     0.00   0.66944   3 ;    H5S-   C15-   C14-   C13
 14310  14313  14316  14317      9     0.00   0.66944   3 ;    C14-   C13-   C12-   H2R
 14310  14313  14316  14318      9     0.00   0.66944   3 ;    C14-   C13-   C12-   H2S
 14310  14313  14316  14319      9     0.00   0.65270   3 ;    C14-   C13-   C12-   C11
 14311  14310  14313  14314      9     0.00   0.62760   3 ;    H4R-   C14-   C13-   H3R
 14311  14310  14313  14315      9     0.00   0.62760   3 ;    H4R-   C14-   C13-   H3S
 14311  14310  14313  14316      9     0.00   0.66944   3 ;    H4R-   C14-   C13-   C12
 14312  14310  14313  14314      9     0.00   0.62760   3 ;    H4S-   C14-   C13-   H3R
 14312  14310  14313  14315      9     0.00   0.62760   3 ;    H4S-   C14-   C13-   H3S
 14312  14310  14313  14316      9     0.00   0.66944   3 ;    H4S-   C14-   C13-   C12
 14313  14316  14319  14320      9   180.00   0.00000   2 ;    C13-   C12-   C11-   O12
 14313  14316  14319  14321      9   180.00   0.00000   2 ;    C13-   C12-   C11-   O11
 14314  14313  14316  14317      9     0.00   0.62760   3 ;    H3R-   C13-   C12-   H2R
 14314  14313  14316  14318      9     0.00   0.62760   3 ;    H3R-   C13-   C12-   H2S
 14314  14313  14316  14319      9     0.00   0.65270   3 ;    H3R-   C13-   C12-   C11
 14315  14313  14316  14317      9     0.00   0.62760   3 ;    H3S-   C13-   C12-   H2R
 14315  14313  14316  14318      9     0.00   0.62760   3 ;    H3S-   C13-   C12-   H2S
 14315  14313  14316  14319      9     0.00   0.65270   3 ;    H3S-   C13-   C12-   C11
 14316  14319  14321  14322      9   180.00  11.29680   2 ;    C12-   C11-   O11-    C1
 14317  14316  14319  14320      9     0.00   3.34720   1 ;    H2R-   C12-   C11-   O12
 14317  14316  14319  14320      9   180.00   0.33472   3 ;    H2R-   C12-   C11-   O12
 14317  14316  14319  14321      9   180.00   0.00000   2 ;    H2R-   C12-   C11-   O11
 14318  14316  14319  14320      9     0.00   3.34720   1 ;    H2S-   C12-   C11-   O12
 14318  14316  14319  14320      9   180.00   0.33472   3 ;    H2S-   C12-   C11-   O12
 14318  14316  14319  14321      9   180.00   0.00000   2 ;    H2S-   C12-   C11-   O11
 14319  14321  14322  14323      9     0.00   1.60247   3 ;    C11-   O11-    C1-    HR
 14319  14321  14322  14324      9     0.00   1.60247   3 ;    C11-   O11-    C1-    HS
 14319  14321  14322  14325      9     0.00  -0.41840   1 ;    C11-   O11-    C1-    C2
 14320  14319  14321  14322      9   180.00   5.85760   1 ;    O12-   C11-   O11-    C1
 14320  14319  14321  14322      9   180.00  11.29680   2 ;    O12-   C11-   O11-    C1
 14321  14322  14325  14326      9     0.00   0.00000   0 ;    O11-    C1-    C2-    HX
 14321  14322  14325  14326      9     0.00   1.04600   1 ;    O11-    C1-    C2-    HX
 14321  14322  14325  14327      9     0.00   0.00000   0 ;    O11-    C1-    C2-    C3
 14321  14322  14325  14327      9     0.00   0.00000   0 ;    O11-    C1-    C2-    C3
 14321  14322  14325  14327      9     0.00   0.00000   0 ;    O11-    C1-    C2-    C3
 14321  14322  14325  14327      9     0.00   0.00000   0 ;    O11-    C1-    C2-    C3
 14321  14322  14325  14327      9     0.00   0.00000   0 ;    O11-    C1-    C2-    C3
 14321  14322  14325  14354      9     0.00   1.25520   2 ;    O11-    C1-    C2-   O21
 14321  14322  14325  14354      9     0.00   4.18400   3 ;    O11-    C1-    C2-   O21
 14321  14322  14325  14354      9   180.00  -0.41840   1 ;    O11-    C1-    C2-   O21
 14322  14325  14327  14328      9     0.00   0.65270   3 ;     C1-    C2-    C3-    HA
 14322  14325  14327  14329      9     0.00   0.65270   3 ;     C1-    C2-    C3-    HB
 14322  14325  14327  14330      9   180.00   3.34720   1 ;     C1-    C2-    C3-   O31
 14322  14325  14354  14355      9     0.00  -0.41840   1 ;     C1-    C2-   O21-   C21
 14323  14322  14325  14326      9     0.00   0.65270   3 ;     HR-    C1-    C2-    HX
 14323  14322  14325  14327      9     0.00   0.65270   3 ;     HR-    C1-    C2-    C3
 14323  14322  14325  14354      9     0.00   0.00000   0 ;     HR-    C1-    C2-   O21
 14323  14322  14325  14354      9     0.00   1.04600   1 ;     HR-    C1-    C2-   O21
 14324  14322  14325  14326      9     0.00   0.65270   3 ;     HS-    C1-    C2-    HX
 14324  14322  14325  14327      9     0.00   0.65270   3 ;     HS-    C1-    C2-    C3
 14324  14322  14325  14354      9     0.00   0.00000   0 ;     HS-    C1-    C2-   O21
 14324  14322  14325  14354      9     0.00   1.04600   1 ;     HS-    C1-    C2-   O21
 14325  14327  14330  14331      9     0.00   0.00000   0 ;     C2-    C3-   O31-   P31
 14325  14327  14330  14331      9   180.00  -3.34720   2 ;     C2-    C3-   O31-   P31
 14325  14354  14355  14356      9   180.00   5.85760   1 ;     C2-   O21-   C21-   O22
 14325  14354  14355  14356      9   180.00  11.29680   2 ;     C2-   O21-   C21-   O22
 14325  14354  14355  14394      9   180.00  11.29680   2 ;     C2-   O21-   C21-   C12
 14326  14325  14327  14328      9     0.00   0.65270   3 ;     HX-    C2-    C3-    HA
 14326  14325  14327  14329      9     0.00   0.65270   3 ;     HX-    C2-    C3-    HB
 14326  14325  14327  14330      9     0.00   0.00000   0 ;     HX-    C2-    C3-   O31
 14326  14325  14327  14330      9     0.00   1.04600   1 ;     HX-    C2-    C3-   O31
 14326  14325  14354  14355      9     0.00   1.60247   3 ;     HX-    C2-   O21-   C21
 14327  14325  14354  14355      9     0.00  -0.41840   1 ;     C3-    C2-   O21-   C21
 14327  14330  14331  14332      9     0.00   2.51040   3 ;     C3-   O31-   P31-   O32
 14327  14330  14331  14332      9     0.00   9.62320   2 ;     C3-   O31-   P31-   O32
 14327  14330  14331  14352      9     0.00   0.00000   0 ;     C3-   O31-   P31-   O33
 14327  14330  14331  14352      9     0.00   0.00000   0 ;     C3-   O31-   P31-   O33
 14327  14330  14331  14352      9     0.00   0.00000   0 ;     C3-   O31-   P31-   O33
 14327  14330  14331  14352      9     0.00   0.00000   0 ;     C3-   O31-   P31-   O33
 14327  14330  14331  14352      9     0.00   0.83680   2 ;     C3-   O31-   P31-   O33
 14327  14330  14331  14353      9     0.00   0.00000   0 ;     C3-   O31-   P31-   O34
 14327  14330  14331  14353      9     0.00   0.00000   0 ;     C3-   O31-   P31-   O34
 14327  14330  14331  14353      9     0.00   0.00000   0 ;     C3-   O31-   P31-   O34
 14327  14330  14331  14353      9     0.00   0.00000   0 ;     C3-   O31-   P31-   O34
 14327  14330  14331  14353      9     0.00   0.83680   2 ;     C3-   O31-   P31-   O34
 14328  14327  14325  14354      9     0.00   0.00000   0 ;     HA-    C3-    C2-   O21
 14328  14327  14325  14354      9     0.00   1.04600   1 ;     HA-    C3-    C2-   O21
 14328  14327  14330  14331      9     0.00   0.00000   0 ;     HA-    C3-   O31-   P31
 14328  14327  14330  14331      9     0.00   0.00000   0 ;     HA-    C3-   O31-   P31
 14328  14327  14330  14331      9     0.00   0.00000   0 ;     HA-    C3-   O31-   P31
 14328  14327  14330  14331      9     0.00   0.00000   0 ;     HA-    C3-   O31-   P31
 14328  14327  14330  14331      9     0.00   1.60247   3 ;     HA-    C3-   O31-   P31
 14329  14327  14325  14354      9     0.00   0.00000   0 ;     HB-    C3-    C2-   O21
 14329  14327  14325  14354      9     0.00   1.04600   1 ;     HB-    C3-    C2-   O21
 14329  14327  14330  14331      9     0.00   0.00000   0 ;     HB-    C3-   O31-   P31
 14329  14327  14330  14331      9     0.00   0.00000   0 ;     HB-    C3-   O31-   P31
 14329  14327  14330  14331      9     0.00   0.00000   0 ;     HB-    C3-   O31-   P31
 14329  14327  14330  14331      9     0.00   0.00000   0 ;     HB-    C3-   O31-   P31
 14329  14327  14330  14331      9     0.00   1.60247   3 ;     HB-    C3-   O31-   P31
 14330  14327  14325  14354      9     0.00   0.00000   0 ;    O31-    C3-    C2-   O21
 14330  14327  14325  14354      9     0.00   0.00000   0 ;    O31-    C3-    C2-   O21
 14330  14327  14325  14354      9     0.00   0.00000   0 ;    O31-    C3-    C2-   O21
 14330  14327  14325  14354      9     0.00   0.00000   0 ;    O31-    C3-    C2-   O21
 14330  14327  14325  14354      9     0.00   0.00000   0 ;    O31-    C3-    C2-   O21
 14330  14331  14332  14333      9     0.00   2.51040   3 ;    O31-   P31-   O32-   C31
 14330  14331  14332  14333      9     0.00   9.62320   2 ;    O31-   P31-   O32-   C31
 14331  14332  14333  14334      9     0.00   0.00000   0 ;    P31-   O32-   C31-   H1A
 14331  14332  14333  14334      9     0.00   0.00000   0 ;    P31-   O32-   C31-   H1A
 14331  14332  14333  14334      9     0.00   0.00000   0 ;    P31-   O32-   C31-   H1A
 14331  14332  14333  14334      9     0.00   0.00000   0 ;    P31-   O32-   C31-   H1A
 14331  14332  14333  14334      9     0.00   1.60247   3 ;    P31-   O32-   C31-   H1A
 14331  14332  14333  14335      9     0.00   0.00000   0 ;    P31-   O32-   C31-   H1B
 14331  14332  14333  14335      9     0.00   0.00000   0 ;    P31-   O32-   C31-   H1B
 14331  14332  14333  14335      9     0.00   0.00000   0 ;    P31-   O32-   C31-   H1B
 14331  14332  14333  14335      9     0.00   0.00000   0 ;    P31-   O32-   C31-   H1B
 14331  14332  14333  14335      9     0.00   1.60247   3 ;    P31-   O32-   C31-   H1B
 14331  14332  14333  14336      9     0.00   0.00000   0 ;    P31-   O32-   C31-   C32
 14331  14332  14333  14336      9   180.00  -3.34720   2 ;    P31-   O32-   C31-   C32
 14332  14333  14336  14337      9     0.00   0.65270   3 ;    O32-   C31-   C32-   H2A
 14332  14333  14336  14338      9     0.00   0.65270   3 ;    O32-   C31-   C32-   H2B
 14332  14333  14336  14339      9     0.00   4.18400   3 ;    O32-   C31-   C32-   N31
 14333  14332  14331  14352      9     0.00   0.00000   0 ;    C31-   O32-   P31-   O33
 14333  14332  14331  14352      9     0.00   0.00000   0 ;    C31-   O32-   P31-   O33
 14333  14332  14331  14352      9     0.00   0.00000   0 ;    C31-   O32-   P31-   O33
 14333  14332  14331  14352      9     0.00   0.00000   0 ;    C31-   O32-   P31-   O33
 14333  14332  14331  14352      9     0.00   0.83680   2 ;    C31-   O32-   P31-   O33
 14333  14332  14331  14353      9     0.00   0.00000   0 ;    C31-   O32-   P31-   O34
 14333  14332  14331  14353      9     0.00   0.00000   0 ;    C31-   O32-   P31-   O34
 14333  14332  14331  14353      9     0.00   0.00000   0 ;    C31-   O32-   P31-   O34
 14333  14332  14331  14353      9     0.00   0.00000   0 ;    C31-   O32-   P31-   O34
 14333  14332  14331  14353      9     0.00   0.83680   2 ;    C31-   O32-   P31-   O34
 14333  14336  14339  14340      9     0.00   0.65270   3 ;    C31-   C32-   N31-   C33
 14333  14336  14339  14344      9     0.00   0.65270   3 ;    C31-   C32-   N31-   C34
 14333  14336  14339  14348      9     0.00   0.65270   3 ;    C31-   C32-   N31-   C35
 14334  14333  14336  14337      9     0.00   0.65270   3 ;    H1A-   C31-   C32-   H2A
 14334  14333  14336  14338      9     0.00   0.65270   3 ;    H1A-   C31-   C32-   H2B
 14334  14333  14336  14339      9     0.00   0.65270   3 ;    H1A-   C31-   C32-   N31
 14335  14333  14336  14337      9     0.00   0.65270   3 ;    H1B-   C31-   C32-   H2A
 14335  14333  14336  14338      9     0.00   0.65270   3 ;    H1B-   C31-   C32-   H2B
 14335  14333  14336  14339      9     0.00   0.65270   3 ;    H1B-   C31-   C32-   N31
 14336  14339  14340  14341      9     0.00   0.65270   3 ;    C32-   N31-   C33-   H3A
 14336  14339  14340  14342      9     0.00   0.65270   3 ;    C32-   N31-   C33-   H3B
 14336  14339  14340  14343      9     0.00   0.65270   3 ;    C32-   N31-   C33-   H3C
 14336  14339  14344  14345      9     0.00   0.65270   3 ;    C32-   N31-   C34-   H4A
 14336  14339  14344  14346      9     0.00   0.65270   3 ;    C32-   N31-   C34-   H4B
 14336  14339  14344  14347      9     0.00   0.65270   3 ;    C32-   N31-   C34-   H4C
 14336  14339  14348  14349      9     0.00   0.65270   3 ;    C32-   N31-   C35-   H5A
 14336  14339  14348  14350      9     0.00   0.65270   3 ;    C32-   N31-   C35-   H5B
 14336  14339  14348  14351      9     0.00   0.65270   3 ;    C32-   N31-   C35-   H5C
 14337  14336  14339  14340      9     0.00   0.65270   3 ;    H2A-   C32-   N31-   C33
 14337  14336  14339  14344      9     0.00   0.65270   3 ;    H2A-   C32-   N31-   C34
 14337  14336  14339  14348      9     0.00   0.65270   3 ;    H2A-   C32-   N31-   C35
 14338  14336  14339  14340      9     0.00   0.65270   3 ;    H2B-   C32-   N31-   C33
 14338  14336  14339  14344      9     0.00   0.65270   3 ;    H2B-   C32-   N31-   C34
 14338  14336  14339  14348      9     0.00   0.65270   3 ;    H2B-   C32-   N31-   C35
 14340  14339  14344  14345      9     0.00   0.65270   3 ;    C33-   N31-   C34-   H4A
 14340  14339  14344  14346      9     0.00   0.65270   3 ;    C33-   N31-   C34-   H4B
 14340  14339  14344  14347      9     0.00   0.65270   3 ;    C33-   N31-   C34-   H4C
 14340  14339  14348  14349      9     0.00   0.65270   3 ;    C33-   N31-   C35-   H5A
 14340  14339  14348  14350      9     0.00   0.65270   3 ;    C33-   N31-   C35-   H5B
 14340  14339  14348  14351      9     0.00   0.65270   3 ;    C33-   N31-   C35-   H5C
 14341  14340  14339  14344      9     0.00   0.65270   3 ;    H3A-   C33-   N31-   C34
 14341  14340  14339  14348      9     0.00   0.65270   3 ;    H3A-   C33-   N31-   C35
 14342  14340  14339  14344      9     0.00   0.65270   3 ;    H3B-   C33-   N31-   C34
 14342  14340  14339  14348      9     0.00   0.65270   3 ;    H3B-   C33-   N31-   C35
 14343  14340  14339  14344      9     0.00   0.65270   3 ;    H3C-   C33-   N31-   C34
 14343  14340  14339  14348      9     0.00   0.65270   3 ;    H3C-   C33-   N31-   C35
 14344  14339  14348  14349      9     0.00   0.65270   3 ;    C34-   N31-   C35-   H5A
 14344  14339  14348  14350      9     0.00   0.65270   3 ;    C34-   N31-   C35-   H5B
 14344  14339  14348  14351      9     0.00   0.65270   3 ;    C34-   N31-   C35-   H5C
 14345  14344  14339  14348      9     0.00   0.65270   3 ;    H4A-   C34-   N31-   C35
 14346  14344  14339  14348      9     0.00   0.65270   3 ;    H4B-   C34-   N31-   C35
 14347  14344  14339  14348      9     0.00   0.65270   3 ;    H4C-   C34-   N31-   C35
 14354  14355  14394  14391      9   180.00   0.00000   2 ;    O21-   C21-   C12-   C13
 14354  14355  14394  14395      9   180.00   0.00000   2 ;    O21-   C21-   C12-   H2R
 14354  14355  14394  14396      9   180.00   0.00000   2 ;    O21-   C21-   C12-   H2S
 14355  14394  14391  14388      9     0.00   0.65270   3 ;    C21-   C12-   C13-   C14
 14355  14394  14391  14392      9     0.00   0.65270   3 ;    C21-   C12-   C13-   H3R
 14355  14394  14391  14393      9     0.00   0.65270   3 ;    C21-   C12-   C13-   H3S
 14356  14355  14394  14391      9   180.00   0.00000   2 ;    O22-   C21-   C12-   C13
 14356  14355  14394  14395      9     0.00   3.34720   1 ;    O22-   C21-   C12-   H2R
 14356  14355  14394  14395      9   180.00   0.33472   3 ;    O22-   C21-   C12-   H2R
 14356  14355  14394  14396      9     0.00   3.34720   1 ;    O22-   C21-   C12-   H2S
 14356  14355  14394  14396      9   180.00   0.33472   3 ;    O22-   C21-   C12-   H2S
 14357  14358  14361  14362      9     0.00   0.62760   3 ;   H14T-  C114-  C113-  H13R
 14357  14358  14361  14363      9     0.00   0.62760   3 ;   H14T-  C114-  C113-  H13S
 14357  14358  14361  14364      9     0.00   0.66944   3 ;   H14T-  C114-  C113-  C112
 14358  14361  14364  14365      9     0.00   0.66944   3 ;   C114-  C113-  C112-  H12R
 14358  14361  14364  14366      9     0.00   0.66944   3 ;   C114-  C113-  C112-  H12S
 14358  14361  14364  14367      9     0.00   0.41840   1 ;   C114-  C113-  C112-  C111
 14358  14361  14364  14367      9     0.00   0.41840   2 ;   C114-  C113-  C112-  C111
 14358  14361  14364  14367      9     0.00   0.41840   4 ;   C114-  C113-  C112-  C111
 14358  14361  14364  14367      9     0.00   0.41840   5 ;   C114-  C113-  C112-  C111
 14358  14361  14364  14367      9     0.00   1.25520   3 ;   C114-  C113-  C112-  C111
 14359  14358  14361  14362      9     0.00   0.62760   3 ;   H14R-  C114-  C113-  H13R
 14359  14358  14361  14363      9     0.00   0.62760   3 ;   H14R-  C114-  C113-  H13S
 14359  14358  14361  14364      9     0.00   0.66944   3 ;   H14R-  C114-  C113-  C112
 14360  14358  14361  14362      9     0.00   0.62760   3 ;   H14S-  C114-  C113-  H13R
 14360  14358  14361  14363      9     0.00   0.62760   3 ;   H14S-  C114-  C113-  H13S
 14360  14358  14361  14364      9     0.00   0.66944   3 ;   H14S-  C114-  C113-  C112
 14361  14364  14367  14368      9     0.00   0.66944   3 ;   C113-  C112-  C111-  H11R
 14361  14364  14367  14369      9     0.00   0.66944   3 ;   C113-  C112-  C111-  H11S
 14361  14364  14367  14370      9     0.00   0.41840   1 ;   C113-  C112-  C111-  C110
 14361  14364  14367  14370      9     0.00   0.41840   2 ;   C113-  C112-  C111-  C110
 14361  14364  14367  14370      9     0.00   0.41840   4 ;   C113-  C112-  C111-  C110
 14361  14364  14367  14370      9     0.00   0.41840   5 ;   C113-  C112-  C111-  C110
 14361  14364  14367  14370      9     0.00   1.25520   3 ;   C113-  C112-  C111-  C110
 14362  14361  14364  14365      9     0.00   0.62760   3 ;   H13R-  C113-  C112-  H12R
 14362  14361  14364  14366      9     0.00   0.62760   3 ;   H13R-  C113-  C112-  H12S
 14362  14361  14364  14367      9     0.00   0.66944   3 ;   H13R-  C113-  C112-  C111
 14363  14361  14364  14365      9     0.00   0.62760   3 ;   H13S-  C113-  C112-  H12R
 14363  14361  14364  14366      9     0.00   0.62760   3 ;   H13S-  C113-  C112-  H12S
 14363  14361  14364  14367      9     0.00   0.66944   3 ;   H13S-  C113-  C112-  C111
 14364  14367  14370  14371      9     0.00   0.66944   3 ;   C112-  C111-  C110-  H10R
 14364  14367  14370  14372      9     0.00   0.66944   3 ;   C112-  C111-  C110-  H10S
 14364  14367  14370  14373      9     0.00   0.41840   1 ;   C112-  C111-  C110-   C19
 14364  14367  14370  14373      9     0.00   0.41840   2 ;   C112-  C111-  C110-   C19
 14364  14367  14370  14373      9     0.00   0.41840   4 ;   C112-  C111-  C110-   C19
 14364  14367  14370  14373      9     0.00   0.41840   5 ;   C112-  C111-  C110-   C19
 14364  14367  14370  14373      9     0.00   1.25520   3 ;   C112-  C111-  C110-   C19
 14365  14364  14367  14368      9     0.00   0.62760   3 ;   H12R-  C112-  C111-  H11R
 14365  14364  14367  14369      9     0.00   0.62760   3 ;   H12R-  C112-  C111-  H11S
 14365  14364  14367  14370      9     0.00   0.66944   3 ;   H12R-  C112-  C111-  C110
 14366  14364  14367  14368      9     0.00   0.62760   3 ;   H12S-  C112-  C111-  H11R
 14366  14364  14367  14369      9     0.00   0.62760   3 ;   H12S-  C112-  C111-  H11S
 14366  14364  14367  14370      9     0.00   0.66944   3 ;   H12S-  C112-  C111-  C110
 14367  14370  14373  14374      9     0.00   0.66944   3 ;   C111-  C110-   C19-   H9R
 14367  14370  14373  14375      9     0.00   0.66944   3 ;   C111-  C110-   C19-   H9S
 14367  14370  14373  14376      9     0.00   0.41840   1 ;   C111-  C110-   C19-   C18
 14367  14370  14373  14376      9     0.00   0.41840   2 ;   C111-  C110-   C19-   C18
 14367  14370  14373  14376      9     0.00   0.41840   4 ;   C111-  C110-   C19-   C18
 14367  14370  14373  14376      9     0.00   0.41840   5 ;   C111-  C110-   C19-   C18
 14367  14370  14373  14376      9     0.00   1.25520   3 ;   C111-  C110-   C19-   C18
 14368  14367  14370  14371      9     0.00   0.62760   3 ;   H11R-  C111-  C110-  H10R
 14368  14367  14370  14372      9     0.00   0.62760   3 ;   H11R-  C111-  C110-  H10S
 14368  14367  14370  14373      9     0.00   0.66944   3 ;   H11R-  C111-  C110-   C19
 14369  14367  14370  14371      9     0.00   0.62760   3 ;   H11S-  C111-  C110-  H10R
 14369  14367  14370  14372      9     0.00   0.62760   3 ;   H11S-  C111-  C110-  H10S
 14369  14367  14370  14373      9     0.00   0.66944   3 ;   H11S-  C111-  C110-   C19
 14370  14373  14376  14377      9     0.00   0.66944   3 ;   C110-   C19-   C18-   H8R
 14370  14373  14376  14378      9     0.00   0.66944   3 ;   C110-   C19-   C18-   H8S
 14370  14373  14376  14379      9     0.00   0.41840   1 ;   C110-   C19-   C18-   C17
 14370  14373  14376  14379      9     0.00   0.41840   2 ;   C110-   C19-   C18-   C17
 14370  14373  14376  14379      9     0.00   0.41840   4 ;   C110-   C19-   C18-   C17
 14370  14373  14376  14379      9     0.00   0.41840   5 ;   C110-   C19-   C18-   C17
 14370  14373  14376  14379      9     0.00   1.25520   3 ;   C110-   C19-   C18-   C17
 14371  14370  14373  14374      9     0.00   0.62760   3 ;   H10R-  C110-   C19-   H9R
 14371  14370  14373  14375      9     0.00   0.62760   3 ;   H10R-  C110-   C19-   H9S
 14371  14370  14373  14376      9     0.00   0.66944   3 ;   H10R-  C110-   C19-   C18
 14372  14370  14373  14374      9     0.00   0.62760   3 ;   H10S-  C110-   C19-   H9R
 14372  14370  14373  14375      9     0.00   0.62760   3 ;   H10S-  C110-   C19-   H9S
 14372  14370  14373  14376      9     0.00   0.66944   3 ;   H10S-  C110-   C19-   C18
 14373  14376  14379  14380      9     0.00   0.66944   3 ;    C19-   C18-   C17-   H7R
 14373  14376  14379  14381      9     0.00   0.66944   3 ;    C19-   C18-   C17-   H7S
 14373  14376  14379  14382      9     0.00   0.41840   1 ;    C19-   C18-   C17-   C16
 14373  14376  14379  14382      9     0.00   0.41840   2 ;    C19-   C18-   C17-   C16
 14373  14376  14379  14382      9     0.00   0.41840   4 ;    C19-   C18-   C17-   C16
 14373  14376  14379  14382      9     0.00   0.41840   5 ;    C19-   C18-   C17-   C16
 14373  14376  14379  14382      9     0.00   1.25520   3 ;    C19-   C18-   C17-   C16
 14374  14373  14376  14377      9     0.00   0.62760   3 ;    H9R-   C19-   C18-   H8R
 14374  14373  14376  14378      9     0.00   0.62760   3 ;    H9R-   C19-   C18-   H8S
 14374  14373  14376  14379      9     0.00   0.66944   3 ;    H9R-   C19-   C18-   C17
 14375  14373  14376  14377      9     0.00   0.62760   3 ;    H9S-   C19-   C18-   H8R
 14375  14373  14376  14378      9     0.00   0.62760   3 ;    H9S-   C19-   C18-   H8S
 14375  14373  14376  14379      9     0.00   0.66944   3 ;    H9S-   C19-   C18-   C17
 14376  14379  14382  14383      9     0.00   0.66944   3 ;    C18-   C17-   C16-   H6R
 14376  14379  14382  14384      9     0.00   0.66944   3 ;    C18-   C17-   C16-   H6S
 14376  14379  14382  14385      9     0.00   0.41840   1 ;    C18-   C17-   C16-   C15
 14376  14379  14382  14385      9     0.00   0.41840   2 ;    C18-   C17-   C16-   C15
 14376  14379  14382  14385      9     0.00   0.41840   4 ;    C18-   C17-   C16-   C15
 14376  14379  14382  14385      9     0.00   0.41840   5 ;    C18-   C17-   C16-   C15
 14376  14379  14382  14385      9     0.00   1.25520   3 ;    C18-   C17-   C16-   C15
 14377  14376  14379  14380      9     0.00   0.62760   3 ;    H8R-   C18-   C17-   H7R
 14377  14376  14379  14381      9     0.00   0.62760   3 ;    H8R-   C18-   C17-   H7S
 14377  14376  14379  14382      9     0.00   0.66944   3 ;    H8R-   C18-   C17-   C16
 14378  14376  14379  14380      9     0.00   0.62760   3 ;    H8S-   C18-   C17-   H7R
 14378  14376  14379  14381      9     0.00   0.62760   3 ;    H8S-   C18-   C17-   H7S
 14378  14376  14379  14382      9     0.00   0.66944   3 ;    H8S-   C18-   C17-   C16
 14379  14382  14385  14386      9     0.00   0.66944   3 ;    C17-   C16-   C15-   H5R
 14379  14382  14385  14387      9     0.00   0.66944   3 ;    C17-   C16-   C15-   H5S
 14379  14382  14385  14388      9     0.00   0.41840   1 ;    C17-   C16-   C15-   C14
 14379  14382  14385  14388      9     0.00   0.41840   2 ;    C17-   C16-   C15-   C14
 14379  14382  14385  14388      9     0.00   0.41840   4 ;    C17-   C16-   C15-   C14
 14379  14382  14385  14388      9     0.00   0.41840   5 ;    C17-   C16-   C15-   C14
 14379  14382  14385  14388      9     0.00   1.25520   3 ;    C17-   C16-   C15-   C14
 14380  14379  14382  14383      9     0.00   0.62760   3 ;    H7R-   C17-   C16-   H6R
 14380  14379  14382  14384      9     0.00   0.62760   3 ;    H7R-   C17-   C16-   H6S
 14380  14379  14382  14385      9     0.00   0.66944   3 ;    H7R-   C17-   C16-   C15
 14381  14379  14382  14383      9     0.00   0.62760   3 ;    H7S-   C17-   C16-   H6R
 14381  14379  14382  14384      9     0.00   0.62760   3 ;    H7S-   C17-   C16-   H6S
 14381  14379  14382  14385      9     0.00   0.66944   3 ;    H7S-   C17-   C16-   C15
 14382  14385  14388  14389      9     0.00   0.66944   3 ;    C16-   C15-   C14-   H4R
 14382  14385  14388  14390      9     0.00   0.66944   3 ;    C16-   C15-   C14-   H4S
 14382  14385  14388  14391      9     0.00   0.41840   1 ;    C16-   C15-   C14-   C13
 14382  14385  14388  14391      9     0.00   0.41840   2 ;    C16-   C15-   C14-   C13
 14382  14385  14388  14391      9     0.00   0.41840   4 ;    C16-   C15-   C14-   C13
 14382  14385  14388  14391      9     0.00   0.41840   5 ;    C16-   C15-   C14-   C13
 14382  14385  14388  14391      9     0.00   1.25520   3 ;    C16-   C15-   C14-   C13
 14383  14382  14385  14386      9     0.00   0.62760   3 ;    H6R-   C16-   C15-   H5R
 14383  14382  14385  14387      9     0.00   0.62760   3 ;    H6R-   C16-   C15-   H5S
 14383  14382  14385  14388      9     0.00   0.66944   3 ;    H6R-   C16-   C15-   C14
 14384  14382  14385  14386      9     0.00   0.62760   3 ;    H6S-   C16-   C15-   H5R
 14384  14382  14385  14387      9     0.00   0.62760   3 ;    H6S-   C16-   C15-   H5S
 14384  14382  14385  14388      9     0.00   0.66944   3 ;    H6S-   C16-   C15-   C14
 14385  14388  14391  14392      9     0.00   0.66944   3 ;    C15-   C14-   C13-   H3R
 14385  14388  14391  14393      9     0.00   0.66944   3 ;    C15-   C14-   C13-   H3S
 14385  14388  14391  14394      9     0.00   0.41840   1 ;    C15-   C14-   C13-   C12
 14385  14388  14391  14394      9     0.00   0.41840   2 ;    C15-   C14-   C13-   C12
 14385  14388  14391  14394      9     0.00   0.41840   4 ;    C15-   C14-   C13-   C12
 14385  14388  14391  14394      9     0.00   0.41840   5 ;    C15-   C14-   C13-   C12
 14385  14388  14391  14394      9     0.00   1.25520   3 ;    C15-   C14-   C13-   C12
 14386  14385  14388  14389      9     0.00   0.62760   3 ;    H5R-   C15-   C14-   H4R
 14386  14385  14388  14390      9     0.00   0.62760   3 ;    H5R-   C15-   C14-   H4S
 14386  14385  14388  14391      9     0.00   0.66944   3 ;    H5R-   C15-   C14-   C13
 14387  14385  14388  14389      9     0.00   0.62760   3 ;    H5S-   C15-   C14-   H4R
 14387  14385  14388  14390      9     0.00   0.62760   3 ;    H5S-   C15-   C14-   H4S
 14387  14385  14388  14391      9     0.00   0.66944   3 ;    H5S-   C15-   C14-   C13
 14388  14391  14394  14395      9     0.00   0.66944   3 ;    C14-   C13-   C12-   H2R
 14388  14391  14394  14396      9     0.00   0.66944   3 ;    C14-   C13-   C12-   H2S
 14389  14388  14391  14392      9     0.00   0.62760   3 ;    H4R-   C14-   C13-   H3R
 14389  14388  14391  14393      9     0.00   0.62760   3 ;    H4R-   C14-   C13-   H3S
 14389  14388  14391  14394      9     0.00   0.66944   3 ;    H4R-   C14-   C13-   C12
 14390  14388  14391  14392      9     0.00   0.62760   3 ;    H4S-   C14-   C13-   H3R
 14390  14388  14391  14393      9     0.00   0.62760   3 ;    H4S-   C14-   C13-   H3S
 14390  14388  14391  14394      9     0.00   0.66944   3 ;    H4S-   C14-   C13-   C12
 14392  14391  14394  14395      9     0.00   0.62760   3 ;    H3R-   C13-   C12-   H2R
 14392  14391  14394  14396      9     0.00   0.62760   3 ;    H3R-   C13-   C12-   H2S
 14393  14391  14394  14395      9     0.00   0.62760   3 ;    H3S-   C13-   C12-   H2R
 14393  14391  14394  14396      9     0.00   0.62760   3 ;    H3S-   C13-   C12-   H2S
 14397  14398  14401  14402      9     0.00   0.62760   3 ;   H14T-  C114-  C113-  H13R
 14397  14398  14401  14403      9     0.00   0.62760   3 ;   H14T-  C114-  C113-  H13S
 14397  14398  14401  14404      9     0.00   0.66944   3 ;   H14T-  C114-  C113-  C112
 14398  14401  14404  14405      9     0.00   0.66944   3 ;   C114-  C113-  C112-  H12R
 14398  14401  14404  14406      9     0.00   0.66944   3 ;   C114-  C113-  C112-  H12S
 14398  14401  14404  14407      9     0.00   0.41840   1 ;   C114-  C113-  C112-  C111
 14398  14401  14404  14407      9     0.00   0.41840   2 ;   C114-  C113-  C112-  C111
 14398  14401  14404  14407      9     0.00   0.41840   4 ;   C114-  C113-  C112-  C111
 14398  14401  14404  14407      9     0.00   0.41840   5 ;   C114-  C113-  C112-  C111
 14398  14401  14404  14407      9     0.00   1.25520   3 ;   C114-  C113-  C112-  C111
 14399  14398  14401  14402      9     0.00   0.62760   3 ;   H14R-  C114-  C113-  H13R
 14399  14398  14401  14403      9     0.00   0.62760   3 ;   H14R-  C114-  C113-  H13S
 14399  14398  14401  14404      9     0.00   0.66944   3 ;   H14R-  C114-  C113-  C112
 14400  14398  14401  14402      9     0.00   0.62760   3 ;   H14S-  C114-  C113-  H13R
 14400  14398  14401  14403      9     0.00   0.62760   3 ;   H14S-  C114-  C113-  H13S
 14400  14398  14401  14404      9     0.00   0.66944   3 ;   H14S-  C114-  C113-  C112
 14401  14404  14407  14408      9     0.00   0.66944   3 ;   C113-  C112-  C111-  H11R
 14401  14404  14407  14409      9     0.00   0.66944   3 ;   C113-  C112-  C111-  H11S
 14401  14404  14407  14410      9     0.00   0.41840   1 ;   C113-  C112-  C111-  C110
 14401  14404  14407  14410      9     0.00   0.41840   2 ;   C113-  C112-  C111-  C110
 14401  14404  14407  14410      9     0.00   0.41840   4 ;   C113-  C112-  C111-  C110
 14401  14404  14407  14410      9     0.00   0.41840   5 ;   C113-  C112-  C111-  C110
 14401  14404  14407  14410      9     0.00   1.25520   3 ;   C113-  C112-  C111-  C110
 14402  14401  14404  14405      9     0.00   0.62760   3 ;   H13R-  C113-  C112-  H12R
 14402  14401  14404  14406      9     0.00   0.62760   3 ;   H13R-  C113-  C112-  H12S
 14402  14401  14404  14407      9     0.00   0.66944   3 ;   H13R-  C113-  C112-  C111
 14403  14401  14404  14405      9     0.00   0.62760   3 ;   H13S-  C113-  C112-  H12R
 14403  14401  14404  14406      9     0.00   0.62760   3 ;   H13S-  C113-  C112-  H12S
 14403  14401  14404  14407      9     0.00   0.66944   3 ;   H13S-  C113-  C112-  C111
 14404  14407  14410  14411      9     0.00   0.66944   3 ;   C112-  C111-  C110-  H10R
 14404  14407  14410  14412      9     0.00   0.66944   3 ;   C112-  C111-  C110-  H10S
 14404  14407  14410  14413      9     0.00   0.41840   1 ;   C112-  C111-  C110-   C19
 14404  14407  14410  14413      9     0.00   0.41840   2 ;   C112-  C111-  C110-   C19
 14404  14407  14410  14413      9     0.00   0.41840   4 ;   C112-  C111-  C110-   C19
 14404  14407  14410  14413      9     0.00   0.41840   5 ;   C112-  C111-  C110-   C19
 14404  14407  14410  14413      9     0.00   1.25520   3 ;   C112-  C111-  C110-   C19
 14405  14404  14407  14408      9     0.00   0.62760   3 ;   H12R-  C112-  C111-  H11R
 14405  14404  14407  14409      9     0.00   0.62760   3 ;   H12R-  C112-  C111-  H11S
 14405  14404  14407  14410      9     0.00   0.66944   3 ;   H12R-  C112-  C111-  C110
 14406  14404  14407  14408      9     0.00   0.62760   3 ;   H12S-  C112-  C111-  H11R
 14406  14404  14407  14409      9     0.00   0.62760   3 ;   H12S-  C112-  C111-  H11S
 14406  14404  14407  14410      9     0.00   0.66944   3 ;   H12S-  C112-  C111-  C110
 14407  14410  14413  14414      9     0.00   0.66944   3 ;   C111-  C110-   C19-   H9R
 14407  14410  14413  14415      9     0.00   0.66944   3 ;   C111-  C110-   C19-   H9S
 14407  14410  14413  14416      9     0.00   0.41840   1 ;   C111-  C110-   C19-   C18
 14407  14410  14413  14416      9     0.00   0.41840   2 ;   C111-  C110-   C19-   C18
 14407  14410  14413  14416      9     0.00   0.41840   4 ;   C111-  C110-   C19-   C18
 14407  14410  14413  14416      9     0.00   0.41840   5 ;   C111-  C110-   C19-   C18
 14407  14410  14413  14416      9     0.00   1.25520   3 ;   C111-  C110-   C19-   C18
 14408  14407  14410  14411      9     0.00   0.62760   3 ;   H11R-  C111-  C110-  H10R
 14408  14407  14410  14412      9     0.00   0.62760   3 ;   H11R-  C111-  C110-  H10S
 14408  14407  14410  14413      9     0.00   0.66944   3 ;   H11R-  C111-  C110-   C19
 14409  14407  14410  14411      9     0.00   0.62760   3 ;   H11S-  C111-  C110-  H10R
 14409  14407  14410  14412      9     0.00   0.62760   3 ;   H11S-  C111-  C110-  H10S
 14409  14407  14410  14413      9     0.00   0.66944   3 ;   H11S-  C111-  C110-   C19
 14410  14413  14416  14417      9     0.00   0.66944   3 ;   C110-   C19-   C18-   H8R
 14410  14413  14416  14418      9     0.00   0.66944   3 ;   C110-   C19-   C18-   H8S
 14410  14413  14416  14419      9     0.00   0.41840   1 ;   C110-   C19-   C18-   C17
 14410  14413  14416  14419      9     0.00   0.41840   2 ;   C110-   C19-   C18-   C17
 14410  14413  14416  14419      9     0.00   0.41840   4 ;   C110-   C19-   C18-   C17
 14410  14413  14416  14419      9     0.00   0.41840   5 ;   C110-   C19-   C18-   C17
 14410  14413  14416  14419      9     0.00   1.25520   3 ;   C110-   C19-   C18-   C17
 14411  14410  14413  14414      9     0.00   0.62760   3 ;   H10R-  C110-   C19-   H9R
 14411  14410  14413  14415      9     0.00   0.62760   3 ;   H10R-  C110-   C19-   H9S
 14411  14410  14413  14416      9     0.00   0.66944   3 ;   H10R-  C110-   C19-   C18
 14412  14410  14413  14414      9     0.00   0.62760   3 ;   H10S-  C110-   C19-   H9R
 14412  14410  14413  14415      9     0.00   0.62760   3 ;   H10S-  C110-   C19-   H9S
 14412  14410  14413  14416      9     0.00   0.66944   3 ;   H10S-  C110-   C19-   C18
 14413  14416  14419  14420      9     0.00   0.66944   3 ;    C19-   C18-   C17-   H7R
 14413  14416  14419  14421      9     0.00   0.66944   3 ;    C19-   C18-   C17-   H7S
 14413  14416  14419  14422      9     0.00   0.41840   1 ;    C19-   C18-   C17-   C16
 14413  14416  14419  14422      9     0.00   0.41840   2 ;    C19-   C18-   C17-   C16
 14413  14416  14419  14422      9     0.00   0.41840   4 ;    C19-   C18-   C17-   C16
 14413  14416  14419  14422      9     0.00   0.41840   5 ;    C19-   C18-   C17-   C16
 14413  14416  14419  14422      9     0.00   1.25520   3 ;    C19-   C18-   C17-   C16
 14414  14413  14416  14417      9     0.00   0.62760   3 ;    H9R-   C19-   C18-   H8R
 14414  14413  14416  14418      9     0.00   0.62760   3 ;    H9R-   C19-   C18-   H8S
 14414  14413  14416  14419      9     0.00   0.66944   3 ;    H9R-   C19-   C18-   C17
 14415  14413  14416  14417      9     0.00   0.62760   3 ;    H9S-   C19-   C18-   H8R
 14415  14413  14416  14418      9     0.00   0.62760   3 ;    H9S-   C19-   C18-   H8S
 14415  14413  14416  14419      9     0.00   0.66944   3 ;    H9S-   C19-   C18-   C17
 14416  14419  14422  14423      9     0.00   0.66944   3 ;    C18-   C17-   C16-   H6R
 14416  14419  14422  14424      9     0.00   0.66944   3 ;    C18-   C17-   C16-   H6S
 14416  14419  14422  14425      9     0.00   0.41840   1 ;    C18-   C17-   C16-   C15
 14416  14419  14422  14425      9     0.00   0.41840   2 ;    C18-   C17-   C16-   C15
 14416  14419  14422  14425      9     0.00   0.41840   4 ;    C18-   C17-   C16-   C15
 14416  14419  14422  14425      9     0.00   0.41840   5 ;    C18-   C17-   C16-   C15
 14416  14419  14422  14425      9     0.00   1.25520   3 ;    C18-   C17-   C16-   C15
 14417  14416  14419  14420      9     0.00   0.62760   3 ;    H8R-   C18-   C17-   H7R
 14417  14416  14419  14421      9     0.00   0.62760   3 ;    H8R-   C18-   C17-   H7S
 14417  14416  14419  14422      9     0.00   0.66944   3 ;    H8R-   C18-   C17-   C16
 14418  14416  14419  14420      9     0.00   0.62760   3 ;    H8S-   C18-   C17-   H7R
 14418  14416  14419  14421      9     0.00   0.62760   3 ;    H8S-   C18-   C17-   H7S
 14418  14416  14419  14422      9     0.00   0.66944   3 ;    H8S-   C18-   C17-   C16
 14419  14422  14425  14426      9     0.00   0.66944   3 ;    C17-   C16-   C15-   H5R
 14419  14422  14425  14427      9     0.00   0.66944   3 ;    C17-   C16-   C15-   H5S
 14419  14422  14425  14428      9     0.00   0.41840   1 ;    C17-   C16-   C15-   C14
 14419  14422  14425  14428      9     0.00   0.41840   2 ;    C17-   C16-   C15-   C14
 14419  14422  14425  14428      9     0.00   0.41840   4 ;    C17-   C16-   C15-   C14
 14419  14422  14425  14428      9     0.00   0.41840   5 ;    C17-   C16-   C15-   C14
 14419  14422  14425  14428      9     0.00   1.25520   3 ;    C17-   C16-   C15-   C14
 14420  14419  14422  14423      9     0.00   0.62760   3 ;    H7R-   C17-   C16-   H6R
 14420  14419  14422  14424      9     0.00   0.62760   3 ;    H7R-   C17-   C16-   H6S
 14420  14419  14422  14425      9     0.00   0.66944   3 ;    H7R-   C17-   C16-   C15
 14421  14419  14422  14423      9     0.00   0.62760   3 ;    H7S-   C17-   C16-   H6R
 14421  14419  14422  14424      9     0.00   0.62760   3 ;    H7S-   C17-   C16-   H6S
 14421  14419  14422  14425      9     0.00   0.66944   3 ;    H7S-   C17-   C16-   C15
 14422  14425  14428  14429      9     0.00   0.66944   3 ;    C16-   C15-   C14-   H4R
 14422  14425  14428  14430      9     0.00   0.66944   3 ;    C16-   C15-   C14-   H4S
 14422  14425  14428  14431      9     0.00   0.41840   1 ;    C16-   C15-   C14-   C13
 14422  14425  14428  14431      9     0.00   0.41840   2 ;    C16-   C15-   C14-   C13
 14422  14425  14428  14431      9     0.00   0.41840   4 ;    C16-   C15-   C14-   C13
 14422  14425  14428  14431      9     0.00   0.41840   5 ;    C16-   C15-   C14-   C13
 14422  14425  14428  14431      9     0.00   1.25520   3 ;    C16-   C15-   C14-   C13
 14423  14422  14425  14426      9     0.00   0.62760   3 ;    H6R-   C16-   C15-   H5R
 14423  14422  14425  14427      9     0.00   0.62760   3 ;    H6R-   C16-   C15-   H5S
 14423  14422  14425  14428      9     0.00   0.66944   3 ;    H6R-   C16-   C15-   C14
 14424  14422  14425  14426      9     0.00   0.62760   3 ;    H6S-   C16-   C15-   H5R
 14424  14422  14425  14427      9     0.00   0.62760   3 ;    H6S-   C16-   C15-   H5S
 14424  14422  14425  14428      9     0.00   0.66944   3 ;    H6S-   C16-   C15-   C14
 14425  14428  14431  14432      9     0.00   0.66944   3 ;    C15-   C14-   C13-   H3R
 14425  14428  14431  14433      9     0.00   0.66944   3 ;    C15-   C14-   C13-   H3S
 14425  14428  14431  14434      9     0.00   0.41840   1 ;    C15-   C14-   C13-   C12
 14425  14428  14431  14434      9     0.00   0.41840   2 ;    C15-   C14-   C13-   C12
 14425  14428  14431  14434      9     0.00   0.41840   4 ;    C15-   C14-   C13-   C12
 14425  14428  14431  14434      9     0.00   0.41840   5 ;    C15-   C14-   C13-   C12
 14425  14428  14431  14434      9     0.00   1.25520   3 ;    C15-   C14-   C13-   C12
 14426  14425  14428  14429      9     0.00   0.62760   3 ;    H5R-   C15-   C14-   H4R
 14426  14425  14428  14430      9     0.00   0.62760   3 ;    H5R-   C15-   C14-   H4S
 14426  14425  14428  14431      9     0.00   0.66944   3 ;    H5R-   C15-   C14-   C13
 14427  14425  14428  14429      9     0.00   0.62760   3 ;    H5S-   C15-   C14-   H4R
 14427  14425  14428  14430      9     0.00   0.62760   3 ;    H5S-   C15-   C14-   H4S
 14427  14425  14428  14431      9     0.00   0.66944   3 ;    H5S-   C15-   C14-   C13
 14428  14431  14434  14435      9     0.00   0.66944   3 ;    C14-   C13-   C12-   H2R
 14428  14431  14434  14436      9     0.00   0.66944   3 ;    C14-   C13-   C12-   H2S
 14428  14431  14434  14437      9     0.00   0.65270   3 ;    C14-   C13-   C12-   C11
 14429  14428  14431  14432      9     0.00   0.62760   3 ;    H4R-   C14-   C13-   H3R
 14429  14428  14431  14433      9     0.00   0.62760   3 ;    H4R-   C14-   C13-   H3S
 14429  14428  14431  14434      9     0.00   0.66944   3 ;    H4R-   C14-   C13-   C12
 14430  14428  14431  14432      9     0.00   0.62760   3 ;    H4S-   C14-   C13-   H3R
 14430  14428  14431  14433      9     0.00   0.62760   3 ;    H4S-   C14-   C13-   H3S
 14430  14428  14431  14434      9     0.00   0.66944   3 ;    H4S-   C14-   C13-   C12
 14431  14434  14437  14438      9   180.00   0.00000   2 ;    C13-   C12-   C11-   O12
 14431  14434  14437  14439      9   180.00   0.00000   2 ;    C13-   C12-   C11-   O11
 14432  14431  14434  14435      9     0.00   0.62760   3 ;    H3R-   C13-   C12-   H2R
 14432  14431  14434  14436      9     0.00   0.62760   3 ;    H3R-   C13-   C12-   H2S
 14432  14431  14434  14437      9     0.00   0.65270   3 ;    H3R-   C13-   C12-   C11
 14433  14431  14434  14435      9     0.00   0.62760   3 ;    H3S-   C13-   C12-   H2R
 14433  14431  14434  14436      9     0.00   0.62760   3 ;    H3S-   C13-   C12-   H2S
 14433  14431  14434  14437      9     0.00   0.65270   3 ;    H3S-   C13-   C12-   C11
 14434  14437  14439  14440      9   180.00  11.29680   2 ;    C12-   C11-   O11-    C1
 14435  14434  14437  14438      9     0.00   3.34720   1 ;    H2R-   C12-   C11-   O12
 14435  14434  14437  14438      9   180.00   0.33472   3 ;    H2R-   C12-   C11-   O12
 14435  14434  14437  14439      9   180.00   0.00000   2 ;    H2R-   C12-   C11-   O11
 14436  14434  14437  14438      9     0.00   3.34720   1 ;    H2S-   C12-   C11-   O12
 14436  14434  14437  14438      9   180.00   0.33472   3 ;    H2S-   C12-   C11-   O12
 14436  14434  14437  14439      9   180.00   0.00000   2 ;    H2S-   C12-   C11-   O11
 14437  14439  14440  14441      9     0.00   1.60247   3 ;    C11-   O11-    C1-    HR
 14437  14439  14440  14442      9     0.00   1.60247   3 ;    C11-   O11-    C1-    HS
 14437  14439  14440  14443      9     0.00  -0.41840   1 ;    C11-   O11-    C1-    C2
 14438  14437  14439  14440      9   180.00   5.85760   1 ;    O12-   C11-   O11-    C1
 14438  14437  14439  14440      9   180.00  11.29680   2 ;    O12-   C11-   O11-    C1
 14439  14440  14443  14444      9     0.00   0.00000   0 ;    O11-    C1-    C2-    HX
 14439  14440  14443  14444      9     0.00   1.04600   1 ;    O11-    C1-    C2-    HX
 14439  14440  14443  14445      9     0.00   0.00000   0 ;    O11-    C1-    C2-    C3
 14439  14440  14443  14445      9     0.00   0.00000   0 ;    O11-    C1-    C2-    C3
 14439  14440  14443  14445      9     0.00   0.00000   0 ;    O11-    C1-    C2-    C3
 14439  14440  14443  14445      9     0.00   0.00000   0 ;    O11-    C1-    C2-    C3
 14439  14440  14443  14445      9     0.00   0.00000   0 ;    O11-    C1-    C2-    C3
 14439  14440  14443  14472      9     0.00   1.25520   2 ;    O11-    C1-    C2-   O21
 14439  14440  14443  14472      9     0.00   4.18400   3 ;    O11-    C1-    C2-   O21
 14439  14440  14443  14472      9   180.00  -0.41840   1 ;    O11-    C1-    C2-   O21
 14440  14443  14445  14446      9     0.00   0.65270   3 ;     C1-    C2-    C3-    HA
 14440  14443  14445  14447      9     0.00   0.65270   3 ;     C1-    C2-    C3-    HB
 14440  14443  14445  14448      9   180.00   3.34720   1 ;     C1-    C2-    C3-   O31
 14440  14443  14472  14473      9     0.00  -0.41840   1 ;     C1-    C2-   O21-   C21
 14441  14440  14443  14444      9     0.00   0.65270   3 ;     HR-    C1-    C2-    HX
 14441  14440  14443  14445      9     0.00   0.65270   3 ;     HR-    C1-    C2-    C3
 14441  14440  14443  14472      9     0.00   0.00000   0 ;     HR-    C1-    C2-   O21
 14441  14440  14443  14472      9     0.00   1.04600   1 ;     HR-    C1-    C2-   O21
 14442  14440  14443  14444      9     0.00   0.65270   3 ;     HS-    C1-    C2-    HX
 14442  14440  14443  14445      9     0.00   0.65270   3 ;     HS-    C1-    C2-    C3
 14442  14440  14443  14472      9     0.00   0.00000   0 ;     HS-    C1-    C2-   O21
 14442  14440  14443  14472      9     0.00   1.04600   1 ;     HS-    C1-    C2-   O21
 14443  14445  14448  14449      9     0.00   0.00000   0 ;     C2-    C3-   O31-   P31
 14443  14445  14448  14449      9   180.00  -3.34720   2 ;     C2-    C3-   O31-   P31
 14443  14472  14473  14474      9   180.00   5.85760   1 ;     C2-   O21-   C21-   O22
 14443  14472  14473  14474      9   180.00  11.29680   2 ;     C2-   O21-   C21-   O22
 14443  14472  14473  14512      9   180.00  11.29680   2 ;     C2-   O21-   C21-   C12
 14444  14443  14445  14446      9     0.00   0.65270   3 ;     HX-    C2-    C3-    HA
 14444  14443  14445  14447      9     0.00   0.65270   3 ;     HX-    C2-    C3-    HB
 14444  14443  14445  14448      9     0.00   0.00000   0 ;     HX-    C2-    C3-   O31
 14444  14443  14445  14448      9     0.00   1.04600   1 ;     HX-    C2-    C3-   O31
 14444  14443  14472  14473      9     0.00   1.60247   3 ;     HX-    C2-   O21-   C21
 14445  14443  14472  14473      9     0.00  -0.41840   1 ;     C3-    C2-   O21-   C21
 14445  14448  14449  14450      9     0.00   2.51040   3 ;     C3-   O31-   P31-   O32
 14445  14448  14449  14450      9     0.00   9.62320   2 ;     C3-   O31-   P31-   O32
 14445  14448  14449  14470      9     0.00   0.00000   0 ;     C3-   O31-   P31-   O33
 14445  14448  14449  14470      9     0.00   0.00000   0 ;     C3-   O31-   P31-   O33
 14445  14448  14449  14470      9     0.00   0.00000   0 ;     C3-   O31-   P31-   O33
 14445  14448  14449  14470      9     0.00   0.00000   0 ;     C3-   O31-   P31-   O33
 14445  14448  14449  14470      9     0.00   0.83680   2 ;     C3-   O31-   P31-   O33
 14445  14448  14449  14471      9     0.00   0.00000   0 ;     C3-   O31-   P31-   O34
 14445  14448  14449  14471      9     0.00   0.00000   0 ;     C3-   O31-   P31-   O34
 14445  14448  14449  14471      9     0.00   0.00000   0 ;     C3-   O31-   P31-   O34
 14445  14448  14449  14471      9     0.00   0.00000   0 ;     C3-   O31-   P31-   O34
 14445  14448  14449  14471      9     0.00   0.83680   2 ;     C3-   O31-   P31-   O34
 14446  14445  14443  14472      9     0.00   0.00000   0 ;     HA-    C3-    C2-   O21
 14446  14445  14443  14472      9     0.00   1.04600   1 ;     HA-    C3-    C2-   O21
 14446  14445  14448  14449      9     0.00   0.00000   0 ;     HA-    C3-   O31-   P31
 14446  14445  14448  14449      9     0.00   0.00000   0 ;     HA-    C3-   O31-   P31
 14446  14445  14448  14449      9     0.00   0.00000   0 ;     HA-    C3-   O31-   P31
 14446  14445  14448  14449      9     0.00   0.00000   0 ;     HA-    C3-   O31-   P31
 14446  14445  14448  14449      9     0.00   1.60247   3 ;     HA-    C3-   O31-   P31
 14447  14445  14443  14472      9     0.00   0.00000   0 ;     HB-    C3-    C2-   O21
 14447  14445  14443  14472      9     0.00   1.04600   1 ;     HB-    C3-    C2-   O21
 14447  14445  14448  14449      9     0.00   0.00000   0 ;     HB-    C3-   O31-   P31
 14447  14445  14448  14449      9     0.00   0.00000   0 ;     HB-    C3-   O31-   P31
 14447  14445  14448  14449      9     0.00   0.00000   0 ;     HB-    C3-   O31-   P31
 14447  14445  14448  14449      9     0.00   0.00000   0 ;     HB-    C3-   O31-   P31
 14447  14445  14448  14449      9     0.00   1.60247   3 ;     HB-    C3-   O31-   P31
 14448  14445  14443  14472      9     0.00   0.00000   0 ;    O31-    C3-    C2-   O21
 14448  14445  14443  14472      9     0.00   0.00000   0 ;    O31-    C3-    C2-   O21
 14448  14445  14443  14472      9     0.00   0.00000   0 ;    O31-    C3-    C2-   O21
 14448  14445  14443  14472      9     0.00   0.00000   0 ;    O31-    C3-    C2-   O21
 14448  14445  14443  14472      9     0.00   0.00000   0 ;    O31-    C3-    C2-   O21
 14448  14449  14450  14451      9     0.00   2.51040   3 ;    O31-   P31-   O32-   C31
 14448  14449  14450  14451      9     0.00   9.62320   2 ;    O31-   P31-   O32-   C31
 14449  14450  14451  14452      9     0.00   0.00000   0 ;    P31-   O32-   C31-   H1A
 14449  14450  14451  14452      9     0.00   0.00000   0 ;    P31-   O32-   C31-   H1A
 14449  14450  14451  14452      9     0.00   0.00000   0 ;    P31-   O32-   C31-   H1A
 14449  14450  14451  14452      9     0.00   0.00000   0 ;    P31-   O32-   C31-   H1A
 14449  14450  14451  14452      9     0.00   1.60247   3 ;    P31-   O32-   C31-   H1A
 14449  14450  14451  14453      9     0.00   0.00000   0 ;    P31-   O32-   C31-   H1B
 14449  14450  14451  14453      9     0.00   0.00000   0 ;    P31-   O32-   C31-   H1B
 14449  14450  14451  14453      9     0.00   0.00000   0 ;    P31-   O32-   C31-   H1B
 14449  14450  14451  14453      9     0.00   0.00000   0 ;    P31-   O32-   C31-   H1B
 14449  14450  14451  14453      9     0.00   1.60247   3 ;    P31-   O32-   C31-   H1B
 14449  14450  14451  14454      9     0.00   0.00000   0 ;    P31-   O32-   C31-   C32
 14449  14450  14451  14454      9   180.00  -3.34720   2 ;    P31-   O32-   C31-   C32
 14450  14451  14454  14455      9     0.00   0.65270   3 ;    O32-   C31-   C32-   H2A
 14450  14451  14454  14456      9     0.00   0.65270   3 ;    O32-   C31-   C32-   H2B
 14450  14451  14454  14457      9     0.00   4.18400   3 ;    O32-   C31-   C32-   N31
 14451  14450  14449  14470      9     0.00   0.00000   0 ;    C31-   O32-   P31-   O33
 14451  14450  14449  14470      9     0.00   0.00000   0 ;    C31-   O32-   P31-   O33
 14451  14450  14449  14470      9     0.00   0.00000   0 ;    C31-   O32-   P31-   O33
 14451  14450  14449  14470      9     0.00   0.00000   0 ;    C31-   O32-   P31-   O33
 14451  14450  14449  14470      9     0.00   0.83680   2 ;    C31-   O32-   P31-   O33
 14451  14450  14449  14471      9     0.00   0.00000   0 ;    C31-   O32-   P31-   O34
 14451  14450  14449  14471      9     0.00   0.00000   0 ;    C31-   O32-   P31-   O34
 14451  14450  14449  14471      9     0.00   0.00000   0 ;    C31-   O32-   P31-   O34
 14451  14450  14449  14471      9     0.00   0.00000   0 ;    C31-   O32-   P31-   O34
 14451  14450  14449  14471      9     0.00   0.83680   2 ;    C31-   O32-   P31-   O34
 14451  14454  14457  14458      9     0.00   0.65270   3 ;    C31-   C32-   N31-   C33
 14451  14454  14457  14462      9     0.00   0.65270   3 ;    C31-   C32-   N31-   C34
 14451  14454  14457  14466      9     0.00   0.65270   3 ;    C31-   C32-   N31-   C35
 14452  14451  14454  14455      9     0.00   0.65270   3 ;    H1A-   C31-   C32-   H2A
 14452  14451  14454  14456      9     0.00   0.65270   3 ;    H1A-   C31-   C32-   H2B
 14452  14451  14454  14457      9     0.00   0.65270   3 ;    H1A-   C31-   C32-   N31
 14453  14451  14454  14455      9     0.00   0.65270   3 ;    H1B-   C31-   C32-   H2A
 14453  14451  14454  14456      9     0.00   0.65270   3 ;    H1B-   C31-   C32-   H2B
 14453  14451  14454  14457      9     0.00   0.65270   3 ;    H1B-   C31-   C32-   N31
 14454  14457  14458  14459      9     0.00   0.65270   3 ;    C32-   N31-   C33-   H3A
 14454  14457  14458  14460      9     0.00   0.65270   3 ;    C32-   N31-   C33-   H3B
 14454  14457  14458  14461      9     0.00   0.65270   3 ;    C32-   N31-   C33-   H3C
 14454  14457  14462  14463      9     0.00   0.65270   3 ;    C32-   N31-   C34-   H4A
 14454  14457  14462  14464      9     0.00   0.65270   3 ;    C32-   N31-   C34-   H4B
 14454  14457  14462  14465      9     0.00   0.65270   3 ;    C32-   N31-   C34-   H4C
 14454  14457  14466  14467      9     0.00   0.65270   3 ;    C32-   N31-   C35-   H5A
 14454  14457  14466  14468      9     0.00   0.65270   3 ;    C32-   N31-   C35-   H5B
 14454  14457  14466  14469      9     0.00   0.65270   3 ;    C32-   N31-   C35-   H5C
 14455  14454  14457  14458      9     0.00   0.65270   3 ;    H2A-   C32-   N31-   C33
 14455  14454  14457  14462      9     0.00   0.65270   3 ;    H2A-   C32-   N31-   C34
 14455  14454  14457  14466      9     0.00   0.65270   3 ;    H2A-   C32-   N31-   C35
 14456  14454  14457  14458      9     0.00   0.65270   3 ;    H2B-   C32-   N31-   C33
 14456  14454  14457  14462      9     0.00   0.65270   3 ;    H2B-   C32-   N31-   C34
 14456  14454  14457  14466      9     0.00   0.65270   3 ;    H2B-   C32-   N31-   C35
 14458  14457  14462  14463      9     0.00   0.65270   3 ;    C33-   N31-   C34-   H4A
 14458  14457  14462  14464      9     0.00   0.65270   3 ;    C33-   N31-   C34-   H4B
 14458  14457  14462  14465      9     0.00   0.65270   3 ;    C33-   N31-   C34-   H4C
 14458  14457  14466  14467      9     0.00   0.65270   3 ;    C33-   N31-   C35-   H5A
 14458  14457  14466  14468      9     0.00   0.65270   3 ;    C33-   N31-   C35-   H5B
 14458  14457  14466  14469      9     0.00   0.65270   3 ;    C33-   N31-   C35-   H5C
 14459  14458  14457  14462      9     0.00   0.65270   3 ;    H3A-   C33-   N31-   C34
 14459  14458  14457  14466      9     0.00   0.65270   3 ;    H3A-   C33-   N31-   C35
 14460  14458  14457  14462      9     0.00   0.65270   3 ;    H3B-   C33-   N31-   C34
 14460  14458  14457  14466      9     0.00   0.65270   3 ;    H3B-   C33-   N31-   C35
 14461  14458  14457  14462      9     0.00   0.65270   3 ;    H3C-   C33-   N31-   C34
 14461  14458  14457  14466      9     0.00   0.65270   3 ;    H3C-   C33-   N31-   C35
 14462  14457  14466  14467      9     0.00   0.65270   3 ;    C34-   N31-   C35-   H5A
 14462  14457  14466  14468      9     0.00   0.65270   3 ;    C34-   N31-   C35-   H5B
 14462  14457  14466  14469      9     0.00   0.65270   3 ;    C34-   N31-   C35-   H5C
 14463  14462  14457  14466      9     0.00   0.65270   3 ;    H4A-   C34-   N31-   C35
 14464  14462  14457  14466      9     0.00   0.65270   3 ;    H4B-   C34-   N31-   C35
 14465  14462  14457  14466      9     0.00   0.65270   3 ;    H4C-   C34-   N31-   C35
 14472  14473  14512  14509      9   180.00   0.00000   2 ;    O21-   C21-   C12-   C13
 14472  14473  14512  14513      9   180.00   0.00000   2 ;    O21-   C21-   C12-   H2R
 14472  14473  14512  14514      9   180.00   0.00000   2 ;    O21-   C21-   C12-   H2S
 14473  14512  14509  14506      9     0.00   0.65270   3 ;    C21-   C12-   C13-   C14
 14473  14512  14509  14510      9     0.00   0.65270   3 ;    C21-   C12-   C13-   H3R
 14473  14512  14509  14511      9     0.00   0.65270   3 ;    C21-   C12-   C13-   H3S
 14474  14473  14512  14509      9   180.00   0.00000   2 ;    O22-   C21-   C12-   C13
 14474  14473  14512  14513      9     0.00   3.34720   1 ;    O22-   C21-   C12-   H2R
 14474  14473  14512  14513      9   180.00   0.33472   3 ;    O22-   C21-   C12-   H2R
 14474  14473  14512  14514      9     0.00   3.34720   1 ;    O22-   C21-   C12-   H2S
 14474  14473  14512  14514      9   180.00   0.33472   3 ;    O22-   C21-   C12-   H2S
 14475  14476  14479  14480      9     0.00   0.62760   3 ;   H14T-  C114-  C113-  H13R
 14475  14476  14479  14481      9     0.00   0.62760   3 ;   H14T-  C114-  C113-  H13S
 14475  14476  14479  14482      9     0.00   0.66944   3 ;   H14T-  C114-  C113-  C112
 14476  14479  14482  14483      9     0.00   0.66944   3 ;   C114-  C113-  C112-  H12R
 14476  14479  14482  14484      9     0.00   0.66944   3 ;   C114-  C113-  C112-  H12S
 14476  14479  14482  14485      9     0.00   0.41840   1 ;   C114-  C113-  C112-  C111
 14476  14479  14482  14485      9     0.00   0.41840   2 ;   C114-  C113-  C112-  C111
 14476  14479  14482  14485      9     0.00   0.41840   4 ;   C114-  C113-  C112-  C111
 14476  14479  14482  14485      9     0.00   0.41840   5 ;   C114-  C113-  C112-  C111
 14476  14479  14482  14485      9     0.00   1.25520   3 ;   C114-  C113-  C112-  C111
 14477  14476  14479  14480      9     0.00   0.62760   3 ;   H14R-  C114-  C113-  H13R
 14477  14476  14479  14481      9     0.00   0.62760   3 ;   H14R-  C114-  C113-  H13S
 14477  14476  14479  14482      9     0.00   0.66944   3 ;   H14R-  C114-  C113-  C112
 14478  14476  14479  14480      9     0.00   0.62760   3 ;   H14S-  C114-  C113-  H13R
 14478  14476  14479  14481      9     0.00   0.62760   3 ;   H14S-  C114-  C113-  H13S
 14478  14476  14479  14482      9     0.00   0.66944   3 ;   H14S-  C114-  C113-  C112
 14479  14482  14485  14486      9     0.00   0.66944   3 ;   C113-  C112-  C111-  H11R
 14479  14482  14485  14487      9     0.00   0.66944   3 ;   C113-  C112-  C111-  H11S
 14479  14482  14485  14488      9     0.00   0.41840   1 ;   C113-  C112-  C111-  C110
 14479  14482  14485  14488      9     0.00   0.41840   2 ;   C113-  C112-  C111-  C110
 14479  14482  14485  14488      9     0.00   0.41840   4 ;   C113-  C112-  C111-  C110
 14479  14482  14485  14488      9     0.00   0.41840   5 ;   C113-  C112-  C111-  C110
 14479  14482  14485  14488      9     0.00   1.25520   3 ;   C113-  C112-  C111-  C110
 14480  14479  14482  14483      9     0.00   0.62760   3 ;   H13R-  C113-  C112-  H12R
 14480  14479  14482  14484      9     0.00   0.62760   3 ;   H13R-  C113-  C112-  H12S
 14480  14479  14482  14485      9     0.00   0.66944   3 ;   H13R-  C113-  C112-  C111
 14481  14479  14482  14483      9     0.00   0.62760   3 ;   H13S-  C113-  C112-  H12R
 14481  14479  14482  14484      9     0.00   0.62760   3 ;   H13S-  C113-  C112-  H12S
 14481  14479  14482  14485      9     0.00   0.66944   3 ;   H13S-  C113-  C112-  C111
 14482  14485  14488  14489      9     0.00   0.66944   3 ;   C112-  C111-  C110-  H10R
 14482  14485  14488  14490      9     0.00   0.66944   3 ;   C112-  C111-  C110-  H10S
 14482  14485  14488  14491      9     0.00   0.41840   1 ;   C112-  C111-  C110-   C19
 14482  14485  14488  14491      9     0.00   0.41840   2 ;   C112-  C111-  C110-   C19
 14482  14485  14488  14491      9     0.00   0.41840   4 ;   C112-  C111-  C110-   C19
 14482  14485  14488  14491      9     0.00   0.41840   5 ;   C112-  C111-  C110-   C19
 14482  14485  14488  14491      9     0.00   1.25520   3 ;   C112-  C111-  C110-   C19
 14483  14482  14485  14486      9     0.00   0.62760   3 ;   H12R-  C112-  C111-  H11R
 14483  14482  14485  14487      9     0.00   0.62760   3 ;   H12R-  C112-  C111-  H11S
 14483  14482  14485  14488      9     0.00   0.66944   3 ;   H12R-  C112-  C111-  C110
 14484  14482  14485  14486      9     0.00   0.62760   3 ;   H12S-  C112-  C111-  H11R
 14484  14482  14485  14487      9     0.00   0.62760   3 ;   H12S-  C112-  C111-  H11S
 14484  14482  14485  14488      9     0.00   0.66944   3 ;   H12S-  C112-  C111-  C110
 14485  14488  14491  14492      9     0.00   0.66944   3 ;   C111-  C110-   C19-   H9R
 14485  14488  14491  14493      9     0.00   0.66944   3 ;   C111-  C110-   C19-   H9S
 14485  14488  14491  14494      9     0.00   0.41840   1 ;   C111-  C110-   C19-   C18
 14485  14488  14491  14494      9     0.00   0.41840   2 ;   C111-  C110-   C19-   C18
 14485  14488  14491  14494      9     0.00   0.41840   4 ;   C111-  C110-   C19-   C18
 14485  14488  14491  14494      9     0.00   0.41840   5 ;   C111-  C110-   C19-   C18
 14485  14488  14491  14494      9     0.00   1.25520   3 ;   C111-  C110-   C19-   C18
 14486  14485  14488  14489      9     0.00   0.62760   3 ;   H11R-  C111-  C110-  H10R
 14486  14485  14488  14490      9     0.00   0.62760   3 ;   H11R-  C111-  C110-  H10S
 14486  14485  14488  14491      9     0.00   0.66944   3 ;   H11R-  C111-  C110-   C19
 14487  14485  14488  14489      9     0.00   0.62760   3 ;   H11S-  C111-  C110-  H10R
 14487  14485  14488  14490      9     0.00   0.62760   3 ;   H11S-  C111-  C110-  H10S
 14487  14485  14488  14491      9     0.00   0.66944   3 ;   H11S-  C111-  C110-   C19
 14488  14491  14494  14495      9     0.00   0.66944   3 ;   C110-   C19-   C18-   H8R
 14488  14491  14494  14496      9     0.00   0.66944   3 ;   C110-   C19-   C18-   H8S
 14488  14491  14494  14497      9     0.00   0.41840   1 ;   C110-   C19-   C18-   C17
 14488  14491  14494  14497      9     0.00   0.41840   2 ;   C110-   C19-   C18-   C17
 14488  14491  14494  14497      9     0.00   0.41840   4 ;   C110-   C19-   C18-   C17
 14488  14491  14494  14497      9     0.00   0.41840   5 ;   C110-   C19-   C18-   C17
 14488  14491  14494  14497      9     0.00   1.25520   3 ;   C110-   C19-   C18-   C17
 14489  14488  14491  14492      9     0.00   0.62760   3 ;   H10R-  C110-   C19-   H9R
 14489  14488  14491  14493      9     0.00   0.62760   3 ;   H10R-  C110-   C19-   H9S
 14489  14488  14491  14494      9     0.00   0.66944   3 ;   H10R-  C110-   C19-   C18
 14490  14488  14491  14492      9     0.00   0.62760   3 ;   H10S-  C110-   C19-   H9R
 14490  14488  14491  14493      9     0.00   0.62760   3 ;   H10S-  C110-   C19-   H9S
 14490  14488  14491  14494      9     0.00   0.66944   3 ;   H10S-  C110-   C19-   C18
 14491  14494  14497  14498      9     0.00   0.66944   3 ;    C19-   C18-   C17-   H7R
 14491  14494  14497  14499      9     0.00   0.66944   3 ;    C19-   C18-   C17-   H7S
 14491  14494  14497  14500      9     0.00   0.41840   1 ;    C19-   C18-   C17-   C16
 14491  14494  14497  14500      9     0.00   0.41840   2 ;    C19-   C18-   C17-   C16
 14491  14494  14497  14500      9     0.00   0.41840   4 ;    C19-   C18-   C17-   C16
 14491  14494  14497  14500      9     0.00   0.41840   5 ;    C19-   C18-   C17-   C16
 14491  14494  14497  14500      9     0.00   1.25520   3 ;    C19-   C18-   C17-   C16
 14492  14491  14494  14495      9     0.00   0.62760   3 ;    H9R-   C19-   C18-   H8R
 14492  14491  14494  14496      9     0.00   0.62760   3 ;    H9R-   C19-   C18-   H8S
 14492  14491  14494  14497      9     0.00   0.66944   3 ;    H9R-   C19-   C18-   C17
 14493  14491  14494  14495      9     0.00   0.62760   3 ;    H9S-   C19-   C18-   H8R
 14493  14491  14494  14496      9     0.00   0.62760   3 ;    H9S-   C19-   C18-   H8S
 14493  14491  14494  14497      9     0.00   0.66944   3 ;    H9S-   C19-   C18-   C17
 14494  14497  14500  14501      9     0.00   0.66944   3 ;    C18-   C17-   C16-   H6R
 14494  14497  14500  14502      9     0.00   0.66944   3 ;    C18-   C17-   C16-   H6S
 14494  14497  14500  14503      9     0.00   0.41840   1 ;    C18-   C17-   C16-   C15
 14494  14497  14500  14503      9     0.00   0.41840   2 ;    C18-   C17-   C16-   C15
 14494  14497  14500  14503      9     0.00   0.41840   4 ;    C18-   C17-   C16-   C15
 14494  14497  14500  14503      9     0.00   0.41840   5 ;    C18-   C17-   C16-   C15
 14494  14497  14500  14503      9     0.00   1.25520   3 ;    C18-   C17-   C16-   C15
 14495  14494  14497  14498      9     0.00   0.62760   3 ;    H8R-   C18-   C17-   H7R
 14495  14494  14497  14499      9     0.00   0.62760   3 ;    H8R-   C18-   C17-   H7S
 14495  14494  14497  14500      9     0.00   0.66944   3 ;    H8R-   C18-   C17-   C16
 14496  14494  14497  14498      9     0.00   0.62760   3 ;    H8S-   C18-   C17-   H7R
 14496  14494  14497  14499      9     0.00   0.62760   3 ;    H8S-   C18-   C17-   H7S
 14496  14494  14497  14500      9     0.00   0.66944   3 ;    H8S-   C18-   C17-   C16
 14497  14500  14503  14504      9     0.00   0.66944   3 ;    C17-   C16-   C15-   H5R
 14497  14500  14503  14505      9     0.00   0.66944   3 ;    C17-   C16-   C15-   H5S
 14497  14500  14503  14506      9     0.00   0.41840   1 ;    C17-   C16-   C15-   C14
 14497  14500  14503  14506      9     0.00   0.41840   2 ;    C17-   C16-   C15-   C14
 14497  14500  14503  14506      9     0.00   0.41840   4 ;    C17-   C16-   C15-   C14
 14497  14500  14503  14506      9     0.00   0.41840   5 ;    C17-   C16-   C15-   C14
 14497  14500  14503  14506      9     0.00   1.25520   3 ;    C17-   C16-   C15-   C14
 14498  14497  14500  14501      9     0.00   0.62760   3 ;    H7R-   C17-   C16-   H6R
 14498  14497  14500  14502      9     0.00   0.62760   3 ;    H7R-   C17-   C16-   H6S
 14498  14497  14500  14503      9     0.00   0.66944   3 ;    H7R-   C17-   C16-   C15
 14499  14497  14500  14501      9     0.00   0.62760   3 ;    H7S-   C17-   C16-   H6R
 14499  14497  14500  14502      9     0.00   0.62760   3 ;    H7S-   C17-   C16-   H6S
 14499  14497  14500  14503      9     0.00   0.66944   3 ;    H7S-   C17-   C16-   C15
 14500  14503  14506  14507      9     0.00   0.66944   3 ;    C16-   C15-   C14-   H4R
 14500  14503  14506  14508      9     0.00   0.66944   3 ;    C16-   C15-   C14-   H4S
 14500  14503  14506  14509      9     0.00   0.41840   1 ;    C16-   C15-   C14-   C13
 14500  14503  14506  14509      9     0.00   0.41840   2 ;    C16-   C15-   C14-   C13
 14500  14503  14506  14509      9     0.00   0.41840   4 ;    C16-   C15-   C14-   C13
 14500  14503  14506  14509      9     0.00   0.41840   5 ;    C16-   C15-   C14-   C13
 14500  14503  14506  14509      9     0.00   1.25520   3 ;    C16-   C15-   C14-   C13
 14501  14500  14503  14504      9     0.00   0.62760   3 ;    H6R-   C16-   C15-   H5R
 14501  14500  14503  14505      9     0.00   0.62760   3 ;    H6R-   C16-   C15-   H5S
 14501  14500  14503  14506      9     0.00   0.66944   3 ;    H6R-   C16-   C15-   C14
 14502  14500  14503  14504      9     0.00   0.62760   3 ;    H6S-   C16-   C15-   H5R
 14502  14500  14503  14505      9     0.00   0.62760   3 ;    H6S-   C16-   C15-   H5S
 14502  14500  14503  14506      9     0.00   0.66944   3 ;    H6S-   C16-   C15-   C14
 14503  14506  14509  14510      9     0.00   0.66944   3 ;    C15-   C14-   C13-   H3R
 14503  14506  14509  14511      9     0.00   0.66944   3 ;    C15-   C14-   C13-   H3S
 14503  14506  14509  14512      9     0.00   0.41840   1 ;    C15-   C14-   C13-   C12
 14503  14506  14509  14512      9     0.00   0.41840   2 ;    C15-   C14-   C13-   C12
 14503  14506  14509  14512      9     0.00   0.41840   4 ;    C15-   C14-   C13-   C12
 14503  14506  14509  14512      9     0.00   0.41840   5 ;    C15-   C14-   C13-   C12
 14503  14506  14509  14512      9     0.00   1.25520   3 ;    C15-   C14-   C13-   C12
 14504  14503  14506  14507      9     0.00   0.62760   3 ;    H5R-   C15-   C14-   H4R
 14504  14503  14506  14508      9     0.00   0.62760   3 ;    H5R-   C15-   C14-   H4S
 14504  14503  14506  14509      9     0.00   0.66944   3 ;    H5R-   C15-   C14-   C13
 14505  14503  14506  14507      9     0.00   0.62760   3 ;    H5S-   C15-   C14-   H4R
 14505  14503  14506  14508      9     0.00   0.62760   3 ;    H5S-   C15-   C14-   H4S
 14505  14503  14506  14509      9     0.00   0.66944   3 ;    H5S-   C15-   C14-   C13
 14506  14509  14512  14513      9     0.00   0.66944   3 ;    C14-   C13-   C12-   H2R
 14506  14509  14512  14514      9     0.00   0.66944   3 ;    C14-   C13-   C12-   H2S
 14507  14506  14509  14510      9     0.00   0.62760   3 ;    H4R-   C14-   C13-   H3R
 14507  14506  14509  14511      9     0.00   0.62760   3 ;    H4R-   C14-   C13-   H3S
 14507  14506  14509  14512      9     0.00   0.66944   3 ;    H4R-   C14-   C13-   C12
 14508  14506  14509  14510      9     0.00   0.62760   3 ;    H4S-   C14-   C13-   H3R
 14508  14506  14509  14511      9     0.00   0.62760   3 ;    H4S-   C14-   C13-   H3S
 14508  14506  14509  14512      9     0.00   0.66944   3 ;    H4S-   C14-   C13-   C12
 14510  14509  14512  14513      9     0.00   0.62760   3 ;    H3R-   C13-   C12-   H2R
 14510  14509  14512  14514      9     0.00   0.62760   3 ;    H3R-   C13-   C12-   H2S
 14511  14509  14512  14513      9     0.00   0.62760   3 ;    H3S-   C13-   C12-   H2R
 14511  14509  14512  14514      9     0.00   0.62760   3 ;    H3S-   C13-   C12-   H2S
 14515  14516  14519  14520      9     0.00   0.62760   3 ;   H14T-  C114-  C113-  H13R
 14515  14516  14519  14521      9     0.00   0.62760   3 ;   H14T-  C114-  C113-  H13S
 14515  14516  14519  14522      9     0.00   0.66944   3 ;   H14T-  C114-  C113-  C112
 14516  14519  14522  14523      9     0.00   0.66944   3 ;   C114-  C113-  C112-  H12R
 14516  14519  14522  14524      9     0.00   0.66944   3 ;   C114-  C113-  C112-  H12S
 14516  14519  14522  14525      9     0.00   0.41840   1 ;   C114-  C113-  C112-  C111
 14516  14519  14522  14525      9     0.00   0.41840   2 ;   C114-  C113-  C112-  C111
 14516  14519  14522  14525      9     0.00   0.41840   4 ;   C114-  C113-  C112-  C111
 14516  14519  14522  14525      9     0.00   0.41840   5 ;   C114-  C113-  C112-  C111
 14516  14519  14522  14525      9     0.00   1.25520   3 ;   C114-  C113-  C112-  C111
 14517  14516  14519  14520      9     0.00   0.62760   3 ;   H14R-  C114-  C113-  H13R
 14517  14516  14519  14521      9     0.00   0.62760   3 ;   H14R-  C114-  C113-  H13S
 14517  14516  14519  14522      9     0.00   0.66944   3 ;   H14R-  C114-  C113-  C112
 14518  14516  14519  14520      9     0.00   0.62760   3 ;   H14S-  C114-  C113-  H13R
 14518  14516  14519  14521      9     0.00   0.62760   3 ;   H14S-  C114-  C113-  H13S
 14518  14516  14519  14522      9     0.00   0.66944   3 ;   H14S-  C114-  C113-  C112
 14519  14522  14525  14526      9     0.00   0.66944   3 ;   C113-  C112-  C111-  H11R
 14519  14522  14525  14527      9     0.00   0.66944   3 ;   C113-  C112-  C111-  H11S
 14519  14522  14525  14528      9     0.00   0.41840   1 ;   C113-  C112-  C111-  C110
 14519  14522  14525  14528      9     0.00   0.41840   2 ;   C113-  C112-  C111-  C110
 14519  14522  14525  14528      9     0.00   0.41840   4 ;   C113-  C112-  C111-  C110
 14519  14522  14525  14528      9     0.00   0.41840   5 ;   C113-  C112-  C111-  C110
 14519  14522  14525  14528      9     0.00   1.25520   3 ;   C113-  C112-  C111-  C110
 14520  14519  14522  14523      9     0.00   0.62760   3 ;   H13R-  C113-  C112-  H12R
 14520  14519  14522  14524      9     0.00   0.62760   3 ;   H13R-  C113-  C112-  H12S
 14520  14519  14522  14525      9     0.00   0.66944   3 ;   H13R-  C113-  C112-  C111
 14521  14519  14522  14523      9     0.00   0.62760   3 ;   H13S-  C113-  C112-  H12R
 14521  14519  14522  14524      9     0.00   0.62760   3 ;   H13S-  C113-  C112-  H12S
 14521  14519  14522  14525      9     0.00   0.66944   3 ;   H13S-  C113-  C112-  C111
 14522  14525  14528  14529      9     0.00   0.66944   3 ;   C112-  C111-  C110-  H10R
 14522  14525  14528  14530      9     0.00   0.66944   3 ;   C112-  C111-  C110-  H10S
 14522  14525  14528  14531      9     0.00   0.41840   1 ;   C112-  C111-  C110-   C19
 14522  14525  14528  14531      9     0.00   0.41840   2 ;   C112-  C111-  C110-   C19
 14522  14525  14528  14531      9     0.00   0.41840   4 ;   C112-  C111-  C110-   C19
 14522  14525  14528  14531      9     0.00   0.41840   5 ;   C112-  C111-  C110-   C19
 14522  14525  14528  14531      9     0.00   1.25520   3 ;   C112-  C111-  C110-   C19
 14523  14522  14525  14526      9     0.00   0.62760   3 ;   H12R-  C112-  C111-  H11R
 14523  14522  14525  14527      9     0.00   0.62760   3 ;   H12R-  C112-  C111-  H11S
 14523  14522  14525  14528      9     0.00   0.66944   3 ;   H12R-  C112-  C111-  C110
 14524  14522  14525  14526      9     0.00   0.62760   3 ;   H12S-  C112-  C111-  H11R
 14524  14522  14525  14527      9     0.00   0.62760   3 ;   H12S-  C112-  C111-  H11S
 14524  14522  14525  14528      9     0.00   0.66944   3 ;   H12S-  C112-  C111-  C110
 14525  14528  14531  14532      9     0.00   0.66944   3 ;   C111-  C110-   C19-   H9R
 14525  14528  14531  14533      9     0.00   0.66944   3 ;   C111-  C110-   C19-   H9S
 14525  14528  14531  14534      9     0.00   0.41840   1 ;   C111-  C110-   C19-   C18
 14525  14528  14531  14534      9     0.00   0.41840   2 ;   C111-  C110-   C19-   C18
 14525  14528  14531  14534      9     0.00   0.41840   4 ;   C111-  C110-   C19-   C18
 14525  14528  14531  14534      9     0.00   0.41840   5 ;   C111-  C110-   C19-   C18
 14525  14528  14531  14534      9     0.00   1.25520   3 ;   C111-  C110-   C19-   C18
 14526  14525  14528  14529      9     0.00   0.62760   3 ;   H11R-  C111-  C110-  H10R
 14526  14525  14528  14530      9     0.00   0.62760   3 ;   H11R-  C111-  C110-  H10S
 14526  14525  14528  14531      9     0.00   0.66944   3 ;   H11R-  C111-  C110-   C19
 14527  14525  14528  14529      9     0.00   0.62760   3 ;   H11S-  C111-  C110-  H10R
 14527  14525  14528  14530      9     0.00   0.62760   3 ;   H11S-  C111-  C110-  H10S
 14527  14525  14528  14531      9     0.00   0.66944   3 ;   H11S-  C111-  C110-   C19
 14528  14531  14534  14535      9     0.00   0.66944   3 ;   C110-   C19-   C18-   H8R
 14528  14531  14534  14536      9     0.00   0.66944   3 ;   C110-   C19-   C18-   H8S
 14528  14531  14534  14537      9     0.00   0.41840   1 ;   C110-   C19-   C18-   C17
 14528  14531  14534  14537      9     0.00   0.41840   2 ;   C110-   C19-   C18-   C17
 14528  14531  14534  14537      9     0.00   0.41840   4 ;   C110-   C19-   C18-   C17
 14528  14531  14534  14537      9     0.00   0.41840   5 ;   C110-   C19-   C18-   C17
 14528  14531  14534  14537      9     0.00   1.25520   3 ;   C110-   C19-   C18-   C17
 14529  14528  14531  14532      9     0.00   0.62760   3 ;   H10R-  C110-   C19-   H9R
 14529  14528  14531  14533      9     0.00   0.62760   3 ;   H10R-  C110-   C19-   H9S
 14529  14528  14531  14534      9     0.00   0.66944   3 ;   H10R-  C110-   C19-   C18
 14530  14528  14531  14532      9     0.00   0.62760   3 ;   H10S-  C110-   C19-   H9R
 14530  14528  14531  14533      9     0.00   0.62760   3 ;   H10S-  C110-   C19-   H9S
 14530  14528  14531  14534      9     0.00   0.66944   3 ;   H10S-  C110-   C19-   C18
 14531  14534  14537  14538      9     0.00   0.66944   3 ;    C19-   C18-   C17-   H7R
 14531  14534  14537  14539      9     0.00   0.66944   3 ;    C19-   C18-   C17-   H7S
 14531  14534  14537  14540      9     0.00   0.41840   1 ;    C19-   C18-   C17-   C16
 14531  14534  14537  14540      9     0.00   0.41840   2 ;    C19-   C18-   C17-   C16
 14531  14534  14537  14540      9     0.00   0.41840   4 ;    C19-   C18-   C17-   C16
 14531  14534  14537  14540      9     0.00   0.41840   5 ;    C19-   C18-   C17-   C16
 14531  14534  14537  14540      9     0.00   1.25520   3 ;    C19-   C18-   C17-   C16
 14532  14531  14534  14535      9     0.00   0.62760   3 ;    H9R-   C19-   C18-   H8R
 14532  14531  14534  14536      9     0.00   0.62760   3 ;    H9R-   C19-   C18-   H8S
 14532  14531  14534  14537      9     0.00   0.66944   3 ;    H9R-   C19-   C18-   C17
 14533  14531  14534  14535      9     0.00   0.62760   3 ;    H9S-   C19-   C18-   H8R
 14533  14531  14534  14536      9     0.00   0.62760   3 ;    H9S-   C19-   C18-   H8S
 14533  14531  14534  14537      9     0.00   0.66944   3 ;    H9S-   C19-   C18-   C17
 14534  14537  14540  14541      9     0.00   0.66944   3 ;    C18-   C17-   C16-   H6R
 14534  14537  14540  14542      9     0.00   0.66944   3 ;    C18-   C17-   C16-   H6S
 14534  14537  14540  14543      9     0.00   0.41840   1 ;    C18-   C17-   C16-   C15
 14534  14537  14540  14543      9     0.00   0.41840   2 ;    C18-   C17-   C16-   C15
 14534  14537  14540  14543      9     0.00   0.41840   4 ;    C18-   C17-   C16-   C15
 14534  14537  14540  14543      9     0.00   0.41840   5 ;    C18-   C17-   C16-   C15
 14534  14537  14540  14543      9     0.00   1.25520   3 ;    C18-   C17-   C16-   C15
 14535  14534  14537  14538      9     0.00   0.62760   3 ;    H8R-   C18-   C17-   H7R
 14535  14534  14537  14539      9     0.00   0.62760   3 ;    H8R-   C18-   C17-   H7S
 14535  14534  14537  14540      9     0.00   0.66944   3 ;    H8R-   C18-   C17-   C16
 14536  14534  14537  14538      9     0.00   0.62760   3 ;    H8S-   C18-   C17-   H7R
 14536  14534  14537  14539      9     0.00   0.62760   3 ;    H8S-   C18-   C17-   H7S
 14536  14534  14537  14540      9     0.00   0.66944   3 ;    H8S-   C18-   C17-   C16
 14537  14540  14543  14544      9     0.00   0.66944   3 ;    C17-   C16-   C15-   H5R
 14537  14540  14543  14545      9     0.00   0.66944   3 ;    C17-   C16-   C15-   H5S
 14537  14540  14543  14546      9     0.00   0.41840   1 ;    C17-   C16-   C15-   C14
 14537  14540  14543  14546      9     0.00   0.41840   2 ;    C17-   C16-   C15-   C14
 14537  14540  14543  14546      9     0.00   0.41840   4 ;    C17-   C16-   C15-   C14
 14537  14540  14543  14546      9     0.00   0.41840   5 ;    C17-   C16-   C15-   C14
 14537  14540  14543  14546      9     0.00   1.25520   3 ;    C17-   C16-   C15-   C14
 14538  14537  14540  14541      9     0.00   0.62760   3 ;    H7R-   C17-   C16-   H6R
 14538  14537  14540  14542      9     0.00   0.62760   3 ;    H7R-   C17-   C16-   H6S
 14538  14537  14540  14543      9     0.00   0.66944   3 ;    H7R-   C17-   C16-   C15
 14539  14537  14540  14541      9     0.00   0.62760   3 ;    H7S-   C17-   C16-   H6R
 14539  14537  14540  14542      9     0.00   0.62760   3 ;    H7S-   C17-   C16-   H6S
 14539  14537  14540  14543      9     0.00   0.66944   3 ;    H7S-   C17-   C16-   C15
 14540  14543  14546  14547      9     0.00   0.66944   3 ;    C16-   C15-   C14-   H4R
 14540  14543  14546  14548      9     0.00   0.66944   3 ;    C16-   C15-   C14-   H4S
 14540  14543  14546  14549      9     0.00   0.41840   1 ;    C16-   C15-   C14-   C13
 14540  14543  14546  14549      9     0.00   0.41840   2 ;    C16-   C15-   C14-   C13
 14540  14543  14546  14549      9     0.00   0.41840   4 ;    C16-   C15-   C14-   C13
 14540  14543  14546  14549      9     0.00   0.41840   5 ;    C16-   C15-   C14-   C13
 14540  14543  14546  14549      9     0.00   1.25520   3 ;    C16-   C15-   C14-   C13
 14541  14540  14543  14544      9     0.00   0.62760   3 ;    H6R-   C16-   C15-   H5R
 14541  14540  14543  14545      9     0.00   0.62760   3 ;    H6R-   C16-   C15-   H5S
 14541  14540  14543  14546      9     0.00   0.66944   3 ;    H6R-   C16-   C15-   C14
 14542  14540  14543  14544      9     0.00   0.62760   3 ;    H6S-   C16-   C15-   H5R
 14542  14540  14543  14545      9     0.00   0.62760   3 ;    H6S-   C16-   C15-   H5S
 14542  14540  14543  14546      9     0.00   0.66944   3 ;    H6S-   C16-   C15-   C14
 14543  14546  14549  14550      9     0.00   0.66944   3 ;    C15-   C14-   C13-   H3R
 14543  14546  14549  14551      9     0.00   0.66944   3 ;    C15-   C14-   C13-   H3S
 14543  14546  14549  14552      9     0.00   0.41840   1 ;    C15-   C14-   C13-   C12
 14543  14546  14549  14552      9     0.00   0.41840   2 ;    C15-   C14-   C13-   C12
 14543  14546  14549  14552      9     0.00   0.41840   4 ;    C15-   C14-   C13-   C12
 14543  14546  14549  14552      9     0.00   0.41840   5 ;    C15-   C14-   C13-   C12
 14543  14546  14549  14552      9     0.00   1.25520   3 ;    C15-   C14-   C13-   C12
 14544  14543  14546  14547      9     0.00   0.62760   3 ;    H5R-   C15-   C14-   H4R
 14544  14543  14546  14548      9     0.00   0.62760   3 ;    H5R-   C15-   C14-   H4S
 14544  14543  14546  14549      9     0.00   0.66944   3 ;    H5R-   C15-   C14-   C13
 14545  14543  14546  14547      9     0.00   0.62760   3 ;    H5S-   C15-   C14-   H4R
 14545  14543  14546  14548      9     0.00   0.62760   3 ;    H5S-   C15-   C14-   H4S
 14545  14543  14546  14549      9     0.00   0.66944   3 ;    H5S-   C15-   C14-   C13
 14546  14549  14552  14553      9     0.00   0.66944   3 ;    C14-   C13-   C12-   H2R
 14546  14549  14552  14554      9     0.00   0.66944   3 ;    C14-   C13-   C12-   H2S
 14546  14549  14552  14555      9     0.00   0.65270   3 ;    C14-   C13-   C12-   C11
 14547  14546  14549  14550      9     0.00   0.62760   3 ;    H4R-   C14-   C13-   H3R
 14547  14546  14549  14551      9     0.00   0.62760   3 ;    H4R-   C14-   C13-   H3S
 14547  14546  14549  14552      9     0.00   0.66944   3 ;    H4R-   C14-   C13-   C12
 14548  14546  14549  14550      9     0.00   0.62760   3 ;    H4S-   C14-   C13-   H3R
 14548  14546  14549  14551      9     0.00   0.62760   3 ;    H4S-   C14-   C13-   H3S
 14548  14546  14549  14552      9     0.00   0.66944   3 ;    H4S-   C14-   C13-   C12
 14549  14552  14555  14556      9   180.00   0.00000   2 ;    C13-   C12-   C11-   O12
 14549  14552  14555  14557      9   180.00   0.00000   2 ;    C13-   C12-   C11-   O11
 14550  14549  14552  14553      9     0.00   0.62760   3 ;    H3R-   C13-   C12-   H2R
 14550  14549  14552  14554      9     0.00   0.62760   3 ;    H3R-   C13-   C12-   H2S
 14550  14549  14552  14555      9     0.00   0.65270   3 ;    H3R-   C13-   C12-   C11
 14551  14549  14552  14553      9     0.00   0.62760   3 ;    H3S-   C13-   C12-   H2R
 14551  14549  14552  14554      9     0.00   0.62760   3 ;    H3S-   C13-   C12-   H2S
 14551  14549  14552  14555      9     0.00   0.65270   3 ;    H3S-   C13-   C12-   C11
 14552  14555  14557  14558      9   180.00  11.29680   2 ;    C12-   C11-   O11-    C1
 14553  14552  14555  14556      9     0.00   3.34720   1 ;    H2R-   C12-   C11-   O12
 14553  14552  14555  14556      9   180.00   0.33472   3 ;    H2R-   C12-   C11-   O12
 14553  14552  14555  14557      9   180.00   0.00000   2 ;    H2R-   C12-   C11-   O11
 14554  14552  14555  14556      9     0.00   3.34720   1 ;    H2S-   C12-   C11-   O12
 14554  14552  14555  14556      9   180.00   0.33472   3 ;    H2S-   C12-   C11-   O12
 14554  14552  14555  14557      9   180.00   0.00000   2 ;    H2S-   C12-   C11-   O11
 14555  14557  14558  14559      9     0.00   1.60247   3 ;    C11-   O11-    C1-    HR
 14555  14557  14558  14560      9     0.00   1.60247   3 ;    C11-   O11-    C1-    HS
 14555  14557  14558  14561      9     0.00  -0.41840   1 ;    C11-   O11-    C1-    C2
 14556  14555  14557  14558      9   180.00   5.85760   1 ;    O12-   C11-   O11-    C1
 14556  14555  14557  14558      9   180.00  11.29680   2 ;    O12-   C11-   O11-    C1
 14557  14558  14561  14562      9     0.00   0.00000   0 ;    O11-    C1-    C2-    HX
 14557  14558  14561  14562      9     0.00   1.04600   1 ;    O11-    C1-    C2-    HX
 14557  14558  14561  14563      9     0.00   0.00000   0 ;    O11-    C1-    C2-    C3
 14557  14558  14561  14563      9     0.00   0.00000   0 ;    O11-    C1-    C2-    C3
 14557  14558  14561  14563      9     0.00   0.00000   0 ;    O11-    C1-    C2-    C3
 14557  14558  14561  14563      9     0.00   0.00000   0 ;    O11-    C1-    C2-    C3
 14557  14558  14561  14563      9     0.00   0.00000   0 ;    O11-    C1-    C2-    C3
 14557  14558  14561  14590      9     0.00   1.25520   2 ;    O11-    C1-    C2-   O21
 14557  14558  14561  14590      9     0.00   4.18400   3 ;    O11-    C1-    C2-   O21
 14557  14558  14561  14590      9   180.00  -0.41840   1 ;    O11-    C1-    C2-   O21
 14558  14561  14563  14564      9     0.00   0.65270   3 ;     C1-    C2-    C3-    HA
 14558  14561  14563  14565      9     0.00   0.65270   3 ;     C1-    C2-    C3-    HB
 14558  14561  14563  14566      9   180.00   3.34720   1 ;     C1-    C2-    C3-   O31
 14558  14561  14590  14591      9     0.00  -0.41840   1 ;     C1-    C2-   O21-   C21
 14559  14558  14561  14562      9     0.00   0.65270   3 ;     HR-    C1-    C2-    HX
 14559  14558  14561  14563      9     0.00   0.65270   3 ;     HR-    C1-    C2-    C3
 14559  14558  14561  14590      9     0.00   0.00000   0 ;     HR-    C1-    C2-   O21
 14559  14558  14561  14590      9     0.00   1.04600   1 ;     HR-    C1-    C2-   O21
 14560  14558  14561  14562      9     0.00   0.65270   3 ;     HS-    C1-    C2-    HX
 14560  14558  14561  14563      9     0.00   0.65270   3 ;     HS-    C1-    C2-    C3
 14560  14558  14561  14590      9     0.00   0.00000   0 ;     HS-    C1-    C2-   O21
 14560  14558  14561  14590      9     0.00   1.04600   1 ;     HS-    C1-    C2-   O21
 14561  14563  14566  14567      9     0.00   0.00000   0 ;     C2-    C3-   O31-   P31
 14561  14563  14566  14567      9   180.00  -3.34720   2 ;     C2-    C3-   O31-   P31
 14561  14590  14591  14592      9   180.00   5.85760   1 ;     C2-   O21-   C21-   O22
 14561  14590  14591  14592      9   180.00  11.29680   2 ;     C2-   O21-   C21-   O22
 14561  14590  14591  14630      9   180.00  11.29680   2 ;     C2-   O21-   C21-   C12
 14562  14561  14563  14564      9     0.00   0.65270   3 ;     HX-    C2-    C3-    HA
 14562  14561  14563  14565      9     0.00   0.65270   3 ;     HX-    C2-    C3-    HB
 14562  14561  14563  14566      9     0.00   0.00000   0 ;     HX-    C2-    C3-   O31
 14562  14561  14563  14566      9     0.00   1.04600   1 ;     HX-    C2-    C3-   O31
 14562  14561  14590  14591      9     0.00   1.60247   3 ;     HX-    C2-   O21-   C21
 14563  14561  14590  14591      9     0.00  -0.41840   1 ;     C3-    C2-   O21-   C21
 14563  14566  14567  14568      9     0.00   2.51040   3 ;     C3-   O31-   P31-   O32
 14563  14566  14567  14568      9     0.00   9.62320   2 ;     C3-   O31-   P31-   O32
 14563  14566  14567  14588      9     0.00   0.00000   0 ;     C3-   O31-   P31-   O33
 14563  14566  14567  14588      9     0.00   0.00000   0 ;     C3-   O31-   P31-   O33
 14563  14566  14567  14588      9     0.00   0.00000   0 ;     C3-   O31-   P31-   O33
 14563  14566  14567  14588      9     0.00   0.00000   0 ;     C3-   O31-   P31-   O33
 14563  14566  14567  14588      9     0.00   0.83680   2 ;     C3-   O31-   P31-   O33
 14563  14566  14567  14589      9     0.00   0.00000   0 ;     C3-   O31-   P31-   O34
 14563  14566  14567  14589      9     0.00   0.00000   0 ;     C3-   O31-   P31-   O34
 14563  14566  14567  14589      9     0.00   0.00000   0 ;     C3-   O31-   P31-   O34
 14563  14566  14567  14589      9     0.00   0.00000   0 ;     C3-   O31-   P31-   O34
 14563  14566  14567  14589      9     0.00   0.83680   2 ;     C3-   O31-   P31-   O34
 14564  14563  14561  14590      9     0.00   0.00000   0 ;     HA-    C3-    C2-   O21
 14564  14563  14561  14590      9     0.00   1.04600   1 ;     HA-    C3-    C2-   O21
 14564  14563  14566  14567      9     0.00   0.00000   0 ;     HA-    C3-   O31-   P31
 14564  14563  14566  14567      9     0.00   0.00000   0 ;     HA-    C3-   O31-   P31
 14564  14563  14566  14567      9     0.00   0.00000   0 ;     HA-    C3-   O31-   P31
 14564  14563  14566  14567      9     0.00   0.00000   0 ;     HA-    C3-   O31-   P31
 14564  14563  14566  14567      9     0.00   1.60247   3 ;     HA-    C3-   O31-   P31
 14565  14563  14561  14590      9     0.00   0.00000   0 ;     HB-    C3-    C2-   O21
 14565  14563  14561  14590      9     0.00   1.04600   1 ;     HB-    C3-    C2-   O21
 14565  14563  14566  14567      9     0.00   0.00000   0 ;     HB-    C3-   O31-   P31
 14565  14563  14566  14567      9     0.00   0.00000   0 ;     HB-    C3-   O31-   P31
 14565  14563  14566  14567      9     0.00   0.00000   0 ;     HB-    C3-   O31-   P31
 14565  14563  14566  14567      9     0.00   0.00000   0 ;     HB-    C3-   O31-   P31
 14565  14563  14566  14567      9     0.00   1.60247   3 ;     HB-    C3-   O31-   P31
 14566  14563  14561  14590      9     0.00   0.00000   0 ;    O31-    C3-    C2-   O21
 14566  14563  14561  14590      9     0.00   0.00000   0 ;    O31-    C3-    C2-   O21
 14566  14563  14561  14590      9     0.00   0.00000   0 ;    O31-    C3-    C2-   O21
 14566  14563  14561  14590      9     0.00   0.00000   0 ;    O31-    C3-    C2-   O21
 14566  14563  14561  14590      9     0.00   0.00000   0 ;    O31-    C3-    C2-   O21
 14566  14567  14568  14569      9     0.00   2.51040   3 ;    O31-   P31-   O32-   C31
 14566  14567  14568  14569      9     0.00   9.62320   2 ;    O31-   P31-   O32-   C31
 14567  14568  14569  14570      9     0.00   0.00000   0 ;    P31-   O32-   C31-   H1A
 14567  14568  14569  14570      9     0.00   0.00000   0 ;    P31-   O32-   C31-   H1A
 14567  14568  14569  14570      9     0.00   0.00000   0 ;    P31-   O32-   C31-   H1A
 14567  14568  14569  14570      9     0.00   0.00000   0 ;    P31-   O32-   C31-   H1A
 14567  14568  14569  14570      9     0.00   1.60247   3 ;    P31-   O32-   C31-   H1A
 14567  14568  14569  14571      9     0.00   0.00000   0 ;    P31-   O32-   C31-   H1B
 14567  14568  14569  14571      9     0.00   0.00000   0 ;    P31-   O32-   C31-   H1B
 14567  14568  14569  14571      9     0.00   0.00000   0 ;    P31-   O32-   C31-   H1B
 14567  14568  14569  14571      9     0.00   0.00000   0 ;    P31-   O32-   C31-   H1B
 14567  14568  14569  14571      9     0.00   1.60247   3 ;    P31-   O32-   C31-   H1B
 14567  14568  14569  14572      9     0.00   0.00000   0 ;    P31-   O32-   C31-   C32
 14567  14568  14569  14572      9   180.00  -3.34720   2 ;    P31-   O32-   C31-   C32
 14568  14569  14572  14573      9     0.00   0.65270   3 ;    O32-   C31-   C32-   H2A
 14568  14569  14572  14574      9     0.00   0.65270   3 ;    O32-   C31-   C32-   H2B
 14568  14569  14572  14575      9     0.00   4.18400   3 ;    O32-   C31-   C32-   N31
 14569  14568  14567  14588      9     0.00   0.00000   0 ;    C31-   O32-   P31-   O33
 14569  14568  14567  14588      9     0.00   0.00000   0 ;    C31-   O32-   P31-   O33
 14569  14568  14567  14588      9     0.00   0.00000   0 ;    C31-   O32-   P31-   O33
 14569  14568  14567  14588      9     0.00   0.00000   0 ;    C31-   O32-   P31-   O33
 14569  14568  14567  14588      9     0.00   0.83680   2 ;    C31-   O32-   P31-   O33
 14569  14568  14567  14589      9     0.00   0.00000   0 ;    C31-   O32-   P31-   O34
 14569  14568  14567  14589      9     0.00   0.00000   0 ;    C31-   O32-   P31-   O34
 14569  14568  14567  14589      9     0.00   0.00000   0 ;    C31-   O32-   P31-   O34
 14569  14568  14567  14589      9     0.00   0.00000   0 ;    C31-   O32-   P31-   O34
 14569  14568  14567  14589      9     0.00   0.83680   2 ;    C31-   O32-   P31-   O34
 14569  14572  14575  14576      9     0.00   0.65270   3 ;    C31-   C32-   N31-   C33
 14569  14572  14575  14580      9     0.00   0.65270   3 ;    C31-   C32-   N31-   C34
 14569  14572  14575  14584      9     0.00   0.65270   3 ;    C31-   C32-   N31-   C35
 14570  14569  14572  14573      9     0.00   0.65270   3 ;    H1A-   C31-   C32-   H2A
 14570  14569  14572  14574      9     0.00   0.65270   3 ;    H1A-   C31-   C32-   H2B
 14570  14569  14572  14575      9     0.00   0.65270   3 ;    H1A-   C31-   C32-   N31
 14571  14569  14572  14573      9     0.00   0.65270   3 ;    H1B-   C31-   C32-   H2A
 14571  14569  14572  14574      9     0.00   0.65270   3 ;    H1B-   C31-   C32-   H2B
 14571  14569  14572  14575      9     0.00   0.65270   3 ;    H1B-   C31-   C32-   N31
 14572  14575  14576  14577      9     0.00   0.65270   3 ;    C32-   N31-   C33-   H3A
 14572  14575  14576  14578      9     0.00   0.65270   3 ;    C32-   N31-   C33-   H3B
 14572  14575  14576  14579      9     0.00   0.65270   3 ;    C32-   N31-   C33-   H3C
 14572  14575  14580  14581      9     0.00   0.65270   3 ;    C32-   N31-   C34-   H4A
 14572  14575  14580  14582      9     0.00   0.65270   3 ;    C32-   N31-   C34-   H4B
 14572  14575  14580  14583      9     0.00   0.65270   3 ;    C32-   N31-   C34-   H4C
 14572  14575  14584  14585      9     0.00   0.65270   3 ;    C32-   N31-   C35-   H5A
 14572  14575  14584  14586      9     0.00   0.65270   3 ;    C32-   N31-   C35-   H5B
 14572  14575  14584  14587      9     0.00   0.65270   3 ;    C32-   N31-   C35-   H5C
 14573  14572  14575  14576      9     0.00   0.65270   3 ;    H2A-   C32-   N31-   C33
 14573  14572  14575  14580      9     0.00   0.65270   3 ;    H2A-   C32-   N31-   C34
 14573  14572  14575  14584      9     0.00   0.65270   3 ;    H2A-   C32-   N31-   C35
 14574  14572  14575  14576      9     0.00   0.65270   3 ;    H2B-   C32-   N31-   C33
 14574  14572  14575  14580      9     0.00   0.65270   3 ;    H2B-   C32-   N31-   C34
 14574  14572  14575  14584      9     0.00   0.65270   3 ;    H2B-   C32-   N31-   C35
 14576  14575  14580  14581      9     0.00   0.65270   3 ;    C33-   N31-   C34-   H4A
 14576  14575  14580  14582      9     0.00   0.65270   3 ;    C33-   N31-   C34-   H4B
 14576  14575  14580  14583      9     0.00   0.65270   3 ;    C33-   N31-   C34-   H4C
 14576  14575  14584  14585      9     0.00   0.65270   3 ;    C33-   N31-   C35-   H5A
 14576  14575  14584  14586      9     0.00   0.65270   3 ;    C33-   N31-   C35-   H5B
 14576  14575  14584  14587      9     0.00   0.65270   3 ;    C33-   N31-   C35-   H5C
 14577  14576  14575  14580      9     0.00   0.65270   3 ;    H3A-   C33-   N31-   C34
 14577  14576  14575  14584      9     0.00   0.65270   3 ;    H3A-   C33-   N31-   C35
 14578  14576  14575  14580      9     0.00   0.65270   3 ;    H3B-   C33-   N31-   C34
 14578  14576  14575  14584      9     0.00   0.65270   3 ;    H3B-   C33-   N31-   C35
 14579  14576  14575  14580      9     0.00   0.65270   3 ;    H3C-   C33-   N31-   C34
 14579  14576  14575  14584      9     0.00   0.65270   3 ;    H3C-   C33-   N31-   C35
 14580  14575  14584  14585      9     0.00   0.65270   3 ;    C34-   N31-   C35-   H5A
 14580  14575  14584  14586      9     0.00   0.65270   3 ;    C34-   N31-   C35-   H5B
 14580  14575  14584  14587      9     0.00   0.65270   3 ;    C34-   N31-   C35-   H5C
 14581  14580  14575  14584      9     0.00   0.65270   3 ;    H4A-   C34-   N31-   C35
 14582  14580  14575  14584      9     0.00   0.65270   3 ;    H4B-   C34-   N31-   C35
 14583  14580  14575  14584      9     0.00   0.65270   3 ;    H4C-   C34-   N31-   C35
 14590  14591  14630  14627      9   180.00   0.00000   2 ;    O21-   C21-   C12-   C13
 14590  14591  14630  14631      9   180.00   0.00000   2 ;    O21-   C21-   C12-   H2R
 14590  14591  14630  14632      9   180.00   0.00000   2 ;    O21-   C21-   C12-   H2S
 14591  14630  14627  14624      9     0.00   0.65270   3 ;    C21-   C12-   C13-   C14
 14591  14630  14627  14628      9     0.00   0.65270   3 ;    C21-   C12-   C13-   H3R
 14591  14630  14627  14629      9     0.00   0.65270   3 ;    C21-   C12-   C13-   H3S
 14592  14591  14630  14627      9   180.00   0.00000   2 ;    O22-   C21-   C12-   C13
 14592  14591  14630  14631      9     0.00   3.34720   1 ;    O22-   C21-   C12-   H2R
 14592  14591  14630  14631      9   180.00   0.33472   3 ;    O22-   C21-   C12-   H2R
 14592  14591  14630  14632      9     0.00   3.34720   1 ;    O22-   C21-   C12-   H2S
 14592  14591  14630  14632      9   180.00   0.33472   3 ;    O22-   C21-   C12-   H2S
 14593  14594  14597  14598      9     0.00   0.62760   3 ;   H14T-  C114-  C113-  H13R
 14593  14594  14597  14599      9     0.00   0.62760   3 ;   H14T-  C114-  C113-  H13S
 14593  14594  14597  14600      9     0.00   0.66944   3 ;   H14T-  C114-  C113-  C112
 14594  14597  14600  14601      9     0.00   0.66944   3 ;   C114-  C113-  C112-  H12R
 14594  14597  14600  14602      9     0.00   0.66944   3 ;   C114-  C113-  C112-  H12S
 14594  14597  14600  14603      9     0.00   0.41840   1 ;   C114-  C113-  C112-  C111
 14594  14597  14600  14603      9     0.00   0.41840   2 ;   C114-  C113-  C112-  C111
 14594  14597  14600  14603      9     0.00   0.41840   4 ;   C114-  C113-  C112-  C111
 14594  14597  14600  14603      9     0.00   0.41840   5 ;   C114-  C113-  C112-  C111
 14594  14597  14600  14603      9     0.00   1.25520   3 ;   C114-  C113-  C112-  C111
 14595  14594  14597  14598      9     0.00   0.62760   3 ;   H14R-  C114-  C113-  H13R
 14595  14594  14597  14599      9     0.00   0.62760   3 ;   H14R-  C114-  C113-  H13S
 14595  14594  14597  14600      9     0.00   0.66944   3 ;   H14R-  C114-  C113-  C112
 14596  14594  14597  14598      9     0.00   0.62760   3 ;   H14S-  C114-  C113-  H13R
 14596  14594  14597  14599      9     0.00   0.62760   3 ;   H14S-  C114-  C113-  H13S
 14596  14594  14597  14600      9     0.00   0.66944   3 ;   H14S-  C114-  C113-  C112
 14597  14600  14603  14604      9     0.00   0.66944   3 ;   C113-  C112-  C111-  H11R
 14597  14600  14603  14605      9     0.00   0.66944   3 ;   C113-  C112-  C111-  H11S
 14597  14600  14603  14606      9     0.00   0.41840   1 ;   C113-  C112-  C111-  C110
 14597  14600  14603  14606      9     0.00   0.41840   2 ;   C113-  C112-  C111-  C110
 14597  14600  14603  14606      9     0.00   0.41840   4 ;   C113-  C112-  C111-  C110
 14597  14600  14603  14606      9     0.00   0.41840   5 ;   C113-  C112-  C111-  C110
 14597  14600  14603  14606      9     0.00   1.25520   3 ;   C113-  C112-  C111-  C110
 14598  14597  14600  14601      9     0.00   0.62760   3 ;   H13R-  C113-  C112-  H12R
 14598  14597  14600  14602      9     0.00   0.62760   3 ;   H13R-  C113-  C112-  H12S
 14598  14597  14600  14603      9     0.00   0.66944   3 ;   H13R-  C113-  C112-  C111
 14599  14597  14600  14601      9     0.00   0.62760   3 ;   H13S-  C113-  C112-  H12R
 14599  14597  14600  14602      9     0.00   0.62760   3 ;   H13S-  C113-  C112-  H12S
 14599  14597  14600  14603      9     0.00   0.66944   3 ;   H13S-  C113-  C112-  C111
 14600  14603  14606  14607      9     0.00   0.66944   3 ;   C112-  C111-  C110-  H10R
 14600  14603  14606  14608      9     0.00   0.66944   3 ;   C112-  C111-  C110-  H10S
 14600  14603  14606  14609      9     0.00   0.41840   1 ;   C112-  C111-  C110-   C19
 14600  14603  14606  14609      9     0.00   0.41840   2 ;   C112-  C111-  C110-   C19
 14600  14603  14606  14609      9     0.00   0.41840   4 ;   C112-  C111-  C110-   C19
 14600  14603  14606  14609      9     0.00   0.41840   5 ;   C112-  C111-  C110-   C19
 14600  14603  14606  14609      9     0.00   1.25520   3 ;   C112-  C111-  C110-   C19
 14601  14600  14603  14604      9     0.00   0.62760   3 ;   H12R-  C112-  C111-  H11R
 14601  14600  14603  14605      9     0.00   0.62760   3 ;   H12R-  C112-  C111-  H11S
 14601  14600  14603  14606      9     0.00   0.66944   3 ;   H12R-  C112-  C111-  C110
 14602  14600  14603  14604      9     0.00   0.62760   3 ;   H12S-  C112-  C111-  H11R
 14602  14600  14603  14605      9     0.00   0.62760   3 ;   H12S-  C112-  C111-  H11S
 14602  14600  14603  14606      9     0.00   0.66944   3 ;   H12S-  C112-  C111-  C110
 14603  14606  14609  14610      9     0.00   0.66944   3 ;   C111-  C110-   C19-   H9R
 14603  14606  14609  14611      9     0.00   0.66944   3 ;   C111-  C110-   C19-   H9S
 14603  14606  14609  14612      9     0.00   0.41840   1 ;   C111-  C110-   C19-   C18
 14603  14606  14609  14612      9     0.00   0.41840   2 ;   C111-  C110-   C19-   C18
 14603  14606  14609  14612      9     0.00   0.41840   4 ;   C111-  C110-   C19-   C18
 14603  14606  14609  14612      9     0.00   0.41840   5 ;   C111-  C110-   C19-   C18
 14603  14606  14609  14612      9     0.00   1.25520   3 ;   C111-  C110-   C19-   C18
 14604  14603  14606  14607      9     0.00   0.62760   3 ;   H11R-  C111-  C110-  H10R
 14604  14603  14606  14608      9     0.00   0.62760   3 ;   H11R-  C111-  C110-  H10S
 14604  14603  14606  14609      9     0.00   0.66944   3 ;   H11R-  C111-  C110-   C19
 14605  14603  14606  14607      9     0.00   0.62760   3 ;   H11S-  C111-  C110-  H10R
 14605  14603  14606  14608      9     0.00   0.62760   3 ;   H11S-  C111-  C110-  H10S
 14605  14603  14606  14609      9     0.00   0.66944   3 ;   H11S-  C111-  C110-   C19
 14606  14609  14612  14613      9     0.00   0.66944   3 ;   C110-   C19-   C18-   H8R
 14606  14609  14612  14614      9     0.00   0.66944   3 ;   C110-   C19-   C18-   H8S
 14606  14609  14612  14615      9     0.00   0.41840   1 ;   C110-   C19-   C18-   C17
 14606  14609  14612  14615      9     0.00   0.41840   2 ;   C110-   C19-   C18-   C17
 14606  14609  14612  14615      9     0.00   0.41840   4 ;   C110-   C19-   C18-   C17
 14606  14609  14612  14615      9     0.00   0.41840   5 ;   C110-   C19-   C18-   C17
 14606  14609  14612  14615      9     0.00   1.25520   3 ;   C110-   C19-   C18-   C17
 14607  14606  14609  14610      9     0.00   0.62760   3 ;   H10R-  C110-   C19-   H9R
 14607  14606  14609  14611      9     0.00   0.62760   3 ;   H10R-  C110-   C19-   H9S
 14607  14606  14609  14612      9     0.00   0.66944   3 ;   H10R-  C110-   C19-   C18
 14608  14606  14609  14610      9     0.00   0.62760   3 ;   H10S-  C110-   C19-   H9R
 14608  14606  14609  14611      9     0.00   0.62760   3 ;   H10S-  C110-   C19-   H9S
 14608  14606  14609  14612      9     0.00   0.66944   3 ;   H10S-  C110-   C19-   C18
 14609  14612  14615  14616      9     0.00   0.66944   3 ;    C19-   C18-   C17-   H7R
 14609  14612  14615  14617      9     0.00   0.66944   3 ;    C19-   C18-   C17-   H7S
 14609  14612  14615  14618      9     0.00   0.41840   1 ;    C19-   C18-   C17-   C16
 14609  14612  14615  14618      9     0.00   0.41840   2 ;    C19-   C18-   C17-   C16
 14609  14612  14615  14618      9     0.00   0.41840   4 ;    C19-   C18-   C17-   C16
 14609  14612  14615  14618      9     0.00   0.41840   5 ;    C19-   C18-   C17-   C16
 14609  14612  14615  14618      9     0.00   1.25520   3 ;    C19-   C18-   C17-   C16
 14610  14609  14612  14613      9     0.00   0.62760   3 ;    H9R-   C19-   C18-   H8R
 14610  14609  14612  14614      9     0.00   0.62760   3 ;    H9R-   C19-   C18-   H8S
 14610  14609  14612  14615      9     0.00   0.66944   3 ;    H9R-   C19-   C18-   C17
 14611  14609  14612  14613      9     0.00   0.62760   3 ;    H9S-   C19-   C18-   H8R
 14611  14609  14612  14614      9     0.00   0.62760   3 ;    H9S-   C19-   C18-   H8S
 14611  14609  14612  14615      9     0.00   0.66944   3 ;    H9S-   C19-   C18-   C17
 14612  14615  14618  14619      9     0.00   0.66944   3 ;    C18-   C17-   C16-   H6R
 14612  14615  14618  14620      9     0.00   0.66944   3 ;    C18-   C17-   C16-   H6S
 14612  14615  14618  14621      9     0.00   0.41840   1 ;    C18-   C17-   C16-   C15
 14612  14615  14618  14621      9     0.00   0.41840   2 ;    C18-   C17-   C16-   C15
 14612  14615  14618  14621      9     0.00   0.41840   4 ;    C18-   C17-   C16-   C15
 14612  14615  14618  14621      9     0.00   0.41840   5 ;    C18-   C17-   C16-   C15
 14612  14615  14618  14621      9     0.00   1.25520   3 ;    C18-   C17-   C16-   C15
 14613  14612  14615  14616      9     0.00   0.62760   3 ;    H8R-   C18-   C17-   H7R
 14613  14612  14615  14617      9     0.00   0.62760   3 ;    H8R-   C18-   C17-   H7S
 14613  14612  14615  14618      9     0.00   0.66944   3 ;    H8R-   C18-   C17-   C16
 14614  14612  14615  14616      9     0.00   0.62760   3 ;    H8S-   C18-   C17-   H7R
 14614  14612  14615  14617      9     0.00   0.62760   3 ;    H8S-   C18-   C17-   H7S
 14614  14612  14615  14618      9     0.00   0.66944   3 ;    H8S-   C18-   C17-   C16
 14615  14618  14621  14622      9     0.00   0.66944   3 ;    C17-   C16-   C15-   H5R
 14615  14618  14621  14623      9     0.00   0.66944   3 ;    C17-   C16-   C15-   H5S
 14615  14618  14621  14624      9     0.00   0.41840   1 ;    C17-   C16-   C15-   C14
 14615  14618  14621  14624      9     0.00   0.41840   2 ;    C17-   C16-   C15-   C14
 14615  14618  14621  14624      9     0.00   0.41840   4 ;    C17-   C16-   C15-   C14
 14615  14618  14621  14624      9     0.00   0.41840   5 ;    C17-   C16-   C15-   C14
 14615  14618  14621  14624      9     0.00   1.25520   3 ;    C17-   C16-   C15-   C14
 14616  14615  14618  14619      9     0.00   0.62760   3 ;    H7R-   C17-   C16-   H6R
 14616  14615  14618  14620      9     0.00   0.62760   3 ;    H7R-   C17-   C16-   H6S
 14616  14615  14618  14621      9     0.00   0.66944   3 ;    H7R-   C17-   C16-   C15
 14617  14615  14618  14619      9     0.00   0.62760   3 ;    H7S-   C17-   C16-   H6R
 14617  14615  14618  14620      9     0.00   0.62760   3 ;    H7S-   C17-   C16-   H6S
 14617  14615  14618  14621      9     0.00   0.66944   3 ;    H7S-   C17-   C16-   C15
 14618  14621  14624  14625      9     0.00   0.66944   3 ;    C16-   C15-   C14-   H4R
 14618  14621  14624  14626      9     0.00   0.66944   3 ;    C16-   C15-   C14-   H4S
 14618  14621  14624  14627      9     0.00   0.41840   1 ;    C16-   C15-   C14-   C13
 14618  14621  14624  14627      9     0.00   0.41840   2 ;    C16-   C15-   C14-   C13
 14618  14621  14624  14627      9     0.00   0.41840   4 ;    C16-   C15-   C14-   C13
 14618  14621  14624  14627      9     0.00   0.41840   5 ;    C16-   C15-   C14-   C13
 14618  14621  14624  14627      9     0.00   1.25520   3 ;    C16-   C15-   C14-   C13
 14619  14618  14621  14622      9     0.00   0.62760   3 ;    H6R-   C16-   C15-   H5R
 14619  14618  14621  14623      9     0.00   0.62760   3 ;    H6R-   C16-   C15-   H5S
 14619  14618  14621  14624      9     0.00   0.66944   3 ;    H6R-   C16-   C15-   C14
 14620  14618  14621  14622      9     0.00   0.62760   3 ;    H6S-   C16-   C15-   H5R
 14620  14618  14621  14623      9     0.00   0.62760   3 ;    H6S-   C16-   C15-   H5S
 14620  14618  14621  14624      9     0.00   0.66944   3 ;    H6S-   C16-   C15-   C14
 14621  14624  14627  14628      9     0.00   0.66944   3 ;    C15-   C14-   C13-   H3R
 14621  14624  14627  14629      9     0.00   0.66944   3 ;    C15-   C14-   C13-   H3S
 14621  14624  14627  14630      9     0.00   0.41840   1 ;    C15-   C14-   C13-   C12
 14621  14624  14627  14630      9     0.00   0.41840   2 ;    C15-   C14-   C13-   C12
 14621  14624  14627  14630      9     0.00   0.41840   4 ;    C15-   C14-   C13-   C12
 14621  14624  14627  14630      9     0.00   0.41840   5 ;    C15-   C14-   C13-   C12
 14621  14624  14627  14630      9     0.00   1.25520   3 ;    C15-   C14-   C13-   C12
 14622  14621  14624  14625      9     0.00   0.62760   3 ;    H5R-   C15-   C14-   H4R
 14622  14621  14624  14626      9     0.00   0.62760   3 ;    H5R-   C15-   C14-   H4S
 14622  14621  14624  14627      9     0.00   0.66944   3 ;    H5R-   C15-   C14-   C13
 14623  14621  14624  14625      9     0.00   0.62760   3 ;    H5S-   C15-   C14-   H4R
 14623  14621  14624  14626      9     0.00   0.62760   3 ;    H5S-   C15-   C14-   H4S
 14623  14621  14624  14627      9     0.00   0.66944   3 ;    H5S-   C15-   C14-   C13
 14624  14627  14630  14631      9     0.00   0.66944   3 ;    C14-   C13-   C12-   H2R
 14624  14627  14630  14632      9     0.00   0.66944   3 ;    C14-   C13-   C12-   H2S
 14625  14624  14627  14628      9     0.00   0.62760   3 ;    H4R-   C14-   C13-   H3R
 14625  14624  14627  14629      9     0.00   0.62760   3 ;    H4R-   C14-   C13-   H3S
 14625  14624  14627  14630      9     0.00   0.66944   3 ;    H4R-   C14-   C13-   C12
 14626  14624  14627  14628      9     0.00   0.62760   3 ;    H4S-   C14-   C13-   H3R
 14626  14624  14627  14629      9     0.00   0.62760   3 ;    H4S-   C14-   C13-   H3S
 14626  14624  14627  14630      9     0.00   0.66944   3 ;    H4S-   C14-   C13-   C12
 14628  14627  14630  14631      9     0.00   0.62760   3 ;    H3R-   C13-   C12-   H2R
 14628  14627  14630  14632      9     0.00   0.62760   3 ;    H3R-   C13-   C12-   H2S
 14629  14627  14630  14631      9     0.00   0.62760   3 ;    H3S-   C13-   C12-   H2R
 14629  14627  14630  14632      9     0.00   0.62760   3 ;    H3S-   C13-   C12-   H2S
 14633  14634  14637  14638      9     0.00   0.62760   3 ;   H14T-  C114-  C113-  H13R
 14633  14634  14637  14639      9     0.00   0.62760   3 ;   H14T-  C114-  C113-  H13S
 14633  14634  14637  14640      9     0.00   0.66944   3 ;   H14T-  C114-  C113-  C112
 14634  14637  14640  14641      9     0.00   0.66944   3 ;   C114-  C113-  C112-  H12R
 14634  14637  14640  14642      9     0.00   0.66944   3 ;   C114-  C113-  C112-  H12S
 14634  14637  14640  14643      9     0.00   0.41840   1 ;   C114-  C113-  C112-  C111
 14634  14637  14640  14643      9     0.00   0.41840   2 ;   C114-  C113-  C112-  C111
 14634  14637  14640  14643      9     0.00   0.41840   4 ;   C114-  C113-  C112-  C111
 14634  14637  14640  14643      9     0.00   0.41840   5 ;   C114-  C113-  C112-  C111
 14634  14637  14640  14643      9     0.00   1.25520   3 ;   C114-  C113-  C112-  C111
 14635  14634  14637  14638      9     0.00   0.62760   3 ;   H14R-  C114-  C113-  H13R
 14635  14634  14637  14639      9     0.00   0.62760   3 ;   H14R-  C114-  C113-  H13S
 14635  14634  14637  14640      9     0.00   0.66944   3 ;   H14R-  C114-  C113-  C112
 14636  14634  14637  14638      9     0.00   0.62760   3 ;   H14S-  C114-  C113-  H13R
 14636  14634  14637  14639      9     0.00   0.62760   3 ;   H14S-  C114-  C113-  H13S
 14636  14634  14637  14640      9     0.00   0.66944   3 ;   H14S-  C114-  C113-  C112
 14637  14640  14643  14644      9     0.00   0.66944   3 ;   C113-  C112-  C111-  H11R
 14637  14640  14643  14645      9     0.00   0.66944   3 ;   C113-  C112-  C111-  H11S
 14637  14640  14643  14646      9     0.00   0.41840   1 ;   C113-  C112-  C111-  C110
 14637  14640  14643  14646      9     0.00   0.41840   2 ;   C113-  C112-  C111-  C110
 14637  14640  14643  14646      9     0.00   0.41840   4 ;   C113-  C112-  C111-  C110
 14637  14640  14643  14646      9     0.00   0.41840   5 ;   C113-  C112-  C111-  C110
 14637  14640  14643  14646      9     0.00   1.25520   3 ;   C113-  C112-  C111-  C110
 14638  14637  14640  14641      9     0.00   0.62760   3 ;   H13R-  C113-  C112-  H12R
 14638  14637  14640  14642      9     0.00   0.62760   3 ;   H13R-  C113-  C112-  H12S
 14638  14637  14640  14643      9     0.00   0.66944   3 ;   H13R-  C113-  C112-  C111
 14639  14637  14640  14641      9     0.00   0.62760   3 ;   H13S-  C113-  C112-  H12R
 14639  14637  14640  14642      9     0.00   0.62760   3 ;   H13S-  C113-  C112-  H12S
 14639  14637  14640  14643      9     0.00   0.66944   3 ;   H13S-  C113-  C112-  C111
 14640  14643  14646  14647      9     0.00   0.66944   3 ;   C112-  C111-  C110-  H10R
 14640  14643  14646  14648      9     0.00   0.66944   3 ;   C112-  C111-  C110-  H10S
 14640  14643  14646  14649      9     0.00   0.41840   1 ;   C112-  C111-  C110-   C19
 14640  14643  14646  14649      9     0.00   0.41840   2 ;   C112-  C111-  C110-   C19
 14640  14643  14646  14649      9     0.00   0.41840   4 ;   C112-  C111-  C110-   C19
 14640  14643  14646  14649      9     0.00   0.41840   5 ;   C112-  C111-  C110-   C19
 14640  14643  14646  14649      9     0.00   1.25520   3 ;   C112-  C111-  C110-   C19
 14641  14640  14643  14644      9     0.00   0.62760   3 ;   H12R-  C112-  C111-  H11R
 14641  14640  14643  14645      9     0.00   0.62760   3 ;   H12R-  C112-  C111-  H11S
 14641  14640  14643  14646      9     0.00   0.66944   3 ;   H12R-  C112-  C111-  C110
 14642  14640  14643  14644      9     0.00   0.62760   3 ;   H12S-  C112-  C111-  H11R
 14642  14640  14643  14645      9     0.00   0.62760   3 ;   H12S-  C112-  C111-  H11S
 14642  14640  14643  14646      9     0.00   0.66944   3 ;   H12S-  C112-  C111-  C110
 14643  14646  14649  14650      9     0.00   0.66944   3 ;   C111-  C110-   C19-   H9R
 14643  14646  14649  14651      9     0.00   0.66944   3 ;   C111-  C110-   C19-   H9S
 14643  14646  14649  14652      9     0.00   0.41840   1 ;   C111-  C110-   C19-   C18
 14643  14646  14649  14652      9     0.00   0.41840   2 ;   C111-  C110-   C19-   C18
 14643  14646  14649  14652      9     0.00   0.41840   4 ;   C111-  C110-   C19-   C18
 14643  14646  14649  14652      9     0.00   0.41840   5 ;   C111-  C110-   C19-   C18
 14643  14646  14649  14652      9     0.00   1.25520   3 ;   C111-  C110-   C19-   C18
 14644  14643  14646  14647      9     0.00   0.62760   3 ;   H11R-  C111-  C110-  H10R
 14644  14643  14646  14648      9     0.00   0.62760   3 ;   H11R-  C111-  C110-  H10S
 14644  14643  14646  14649      9     0.00   0.66944   3 ;   H11R-  C111-  C110-   C19
 14645  14643  14646  14647      9     0.00   0.62760   3 ;   H11S-  C111-  C110-  H10R
 14645  14643  14646  14648      9     0.00   0.62760   3 ;   H11S-  C111-  C110-  H10S
 14645  14643  14646  14649      9     0.00   0.66944   3 ;   H11S-  C111-  C110-   C19
 14646  14649  14652  14653      9     0.00   0.66944   3 ;   C110-   C19-   C18-   H8R
 14646  14649  14652  14654      9     0.00   0.66944   3 ;   C110-   C19-   C18-   H8S
 14646  14649  14652  14655      9     0.00   0.41840   1 ;   C110-   C19-   C18-   C17
 14646  14649  14652  14655      9     0.00   0.41840   2 ;   C110-   C19-   C18-   C17
 14646  14649  14652  14655      9     0.00   0.41840   4 ;   C110-   C19-   C18-   C17
 14646  14649  14652  14655      9     0.00   0.41840   5 ;   C110-   C19-   C18-   C17
 14646  14649  14652  14655      9     0.00   1.25520   3 ;   C110-   C19-   C18-   C17
 14647  14646  14649  14650      9     0.00   0.62760   3 ;   H10R-  C110-   C19-   H9R
 14647  14646  14649  14651      9     0.00   0.62760   3 ;   H10R-  C110-   C19-   H9S
 14647  14646  14649  14652      9     0.00   0.66944   3 ;   H10R-  C110-   C19-   C18
 14648  14646  14649  14650      9     0.00   0.62760   3 ;   H10S-  C110-   C19-   H9R
 14648  14646  14649  14651      9     0.00   0.62760   3 ;   H10S-  C110-   C19-   H9S
 14648  14646  14649  14652      9     0.00   0.66944   3 ;   H10S-  C110-   C19-   C18
 14649  14652  14655  14656      9     0.00   0.66944   3 ;    C19-   C18-   C17-   H7R
 14649  14652  14655  14657      9     0.00   0.66944   3 ;    C19-   C18-   C17-   H7S
 14649  14652  14655  14658      9     0.00   0.41840   1 ;    C19-   C18-   C17-   C16
 14649  14652  14655  14658      9     0.00   0.41840   2 ;    C19-   C18-   C17-   C16
 14649  14652  14655  14658      9     0.00   0.41840   4 ;    C19-   C18-   C17-   C16
 14649  14652  14655  14658      9     0.00   0.41840   5 ;    C19-   C18-   C17-   C16
 14649  14652  14655  14658      9     0.00   1.25520   3 ;    C19-   C18-   C17-   C16
 14650  14649  14652  14653      9     0.00   0.62760   3 ;    H9R-   C19-   C18-   H8R
 14650  14649  14652  14654      9     0.00   0.62760   3 ;    H9R-   C19-   C18-   H8S
 14650  14649  14652  14655      9     0.00   0.66944   3 ;    H9R-   C19-   C18-   C17
 14651  14649  14652  14653      9     0.00   0.62760   3 ;    H9S-   C19-   C18-   H8R
 14651  14649  14652  14654      9     0.00   0.62760   3 ;    H9S-   C19-   C18-   H8S
 14651  14649  14652  14655      9     0.00   0.66944   3 ;    H9S-   C19-   C18-   C17
 14652  14655  14658  14659      9     0.00   0.66944   3 ;    C18-   C17-   C16-   H6R
 14652  14655  14658  14660      9     0.00   0.66944   3 ;    C18-   C17-   C16-   H6S
 14652  14655  14658  14661      9     0.00   0.41840   1 ;    C18-   C17-   C16-   C15
 14652  14655  14658  14661      9     0.00   0.41840   2 ;    C18-   C17-   C16-   C15
 14652  14655  14658  14661      9     0.00   0.41840   4 ;    C18-   C17-   C16-   C15
 14652  14655  14658  14661      9     0.00   0.41840   5 ;    C18-   C17-   C16-   C15
 14652  14655  14658  14661      9     0.00   1.25520   3 ;    C18-   C17-   C16-   C15
 14653  14652  14655  14656      9     0.00   0.62760   3 ;    H8R-   C18-   C17-   H7R
 14653  14652  14655  14657      9     0.00   0.62760   3 ;    H8R-   C18-   C17-   H7S
 14653  14652  14655  14658      9     0.00   0.66944   3 ;    H8R-   C18-   C17-   C16
 14654  14652  14655  14656      9     0.00   0.62760   3 ;    H8S-   C18-   C17-   H7R
 14654  14652  14655  14657      9     0.00   0.62760   3 ;    H8S-   C18-   C17-   H7S
 14654  14652  14655  14658      9     0.00   0.66944   3 ;    H8S-   C18-   C17-   C16
 14655  14658  14661  14662      9     0.00   0.66944   3 ;    C17-   C16-   C15-   H5R
 14655  14658  14661  14663      9     0.00   0.66944   3 ;    C17-   C16-   C15-   H5S
 14655  14658  14661  14664      9     0.00   0.41840   1 ;    C17-   C16-   C15-   C14
 14655  14658  14661  14664      9     0.00   0.41840   2 ;    C17-   C16-   C15-   C14
 14655  14658  14661  14664      9     0.00   0.41840   4 ;    C17-   C16-   C15-   C14
 14655  14658  14661  14664      9     0.00   0.41840   5 ;    C17-   C16-   C15-   C14
 14655  14658  14661  14664      9     0.00   1.25520   3 ;    C17-   C16-   C15-   C14
 14656  14655  14658  14659      9     0.00   0.62760   3 ;    H7R-   C17-   C16-   H6R
 14656  14655  14658  14660      9     0.00   0.62760   3 ;    H7R-   C17-   C16-   H6S
 14656  14655  14658  14661      9     0.00   0.66944   3 ;    H7R-   C17-   C16-   C15
 14657  14655  14658  14659      9     0.00   0.62760   3 ;    H7S-   C17-   C16-   H6R
 14657  14655  14658  14660      9     0.00   0.62760   3 ;    H7S-   C17-   C16-   H6S
 14657  14655  14658  14661      9     0.00   0.66944   3 ;    H7S-   C17-   C16-   C15
 14658  14661  14664  14665      9     0.00   0.66944   3 ;    C16-   C15-   C14-   H4R
 14658  14661  14664  14666      9     0.00   0.66944   3 ;    C16-   C15-   C14-   H4S
 14658  14661  14664  14667      9     0.00   0.41840   1 ;    C16-   C15-   C14-   C13
 14658  14661  14664  14667      9     0.00   0.41840   2 ;    C16-   C15-   C14-   C13
 14658  14661  14664  14667      9     0.00   0.41840   4 ;    C16-   C15-   C14-   C13
 14658  14661  14664  14667      9     0.00   0.41840   5 ;    C16-   C15-   C14-   C13
 14658  14661  14664  14667      9     0.00   1.25520   3 ;    C16-   C15-   C14-   C13
 14659  14658  14661  14662      9     0.00   0.62760   3 ;    H6R-   C16-   C15-   H5R
 14659  14658  14661  14663      9     0.00   0.62760   3 ;    H6R-   C16-   C15-   H5S
 14659  14658  14661  14664      9     0.00   0.66944   3 ;    H6R-   C16-   C15-   C14
 14660  14658  14661  14662      9     0.00   0.62760   3 ;    H6S-   C16-   C15-   H5R
 14660  14658  14661  14663      9     0.00   0.62760   3 ;    H6S-   C16-   C15-   H5S
 14660  14658  14661  14664      9     0.00   0.66944   3 ;    H6S-   C16-   C15-   C14
 14661  14664  14667  14668      9     0.00   0.66944   3 ;    C15-   C14-   C13-   H3R
 14661  14664  14667  14669      9     0.00   0.66944   3 ;    C15-   C14-   C13-   H3S
 14661  14664  14667  14670      9     0.00   0.41840   1 ;    C15-   C14-   C13-   C12
 14661  14664  14667  14670      9     0.00   0.41840   2 ;    C15-   C14-   C13-   C12
 14661  14664  14667  14670      9     0.00   0.41840   4 ;    C15-   C14-   C13-   C12
 14661  14664  14667  14670      9     0.00   0.41840   5 ;    C15-   C14-   C13-   C12
 14661  14664  14667  14670      9     0.00   1.25520   3 ;    C15-   C14-   C13-   C12
 14662  14661  14664  14665      9     0.00   0.62760   3 ;    H5R-   C15-   C14-   H4R
 14662  14661  14664  14666      9     0.00   0.62760   3 ;    H5R-   C15-   C14-   H4S
 14662  14661  14664  14667      9     0.00   0.66944   3 ;    H5R-   C15-   C14-   C13
 14663  14661  14664  14665      9     0.00   0.62760   3 ;    H5S-   C15-   C14-   H4R
 14663  14661  14664  14666      9     0.00   0.62760   3 ;    H5S-   C15-   C14-   H4S
 14663  14661  14664  14667      9     0.00   0.66944   3 ;    H5S-   C15-   C14-   C13
 14664  14667  14670  14671      9     0.00   0.66944   3 ;    C14-   C13-   C12-   H2R
 14664  14667  14670  14672      9     0.00   0.66944   3 ;    C14-   C13-   C12-   H2S
 14664  14667  14670  14673      9     0.00   0.65270   3 ;    C14-   C13-   C12-   C11
 14665  14664  14667  14668      9     0.00   0.62760   3 ;    H4R-   C14-   C13-   H3R
 14665  14664  14667  14669      9     0.00   0.62760   3 ;    H4R-   C14-   C13-   H3S
 14665  14664  14667  14670      9     0.00   0.66944   3 ;    H4R-   C14-   C13-   C12
 14666  14664  14667  14668      9     0.00   0.62760   3 ;    H4S-   C14-   C13-   H3R
 14666  14664  14667  14669      9     0.00   0.62760   3 ;    H4S-   C14-   C13-   H3S
 14666  14664  14667  14670      9     0.00   0.66944   3 ;    H4S-   C14-   C13-   C12
 14667  14670  14673  14674      9   180.00   0.00000   2 ;    C13-   C12-   C11-   O12
 14667  14670  14673  14675      9   180.00   0.00000   2 ;    C13-   C12-   C11-   O11
 14668  14667  14670  14671      9     0.00   0.62760   3 ;    H3R-   C13-   C12-   H2R
 14668  14667  14670  14672      9     0.00   0.62760   3 ;    H3R-   C13-   C12-   H2S
 14668  14667  14670  14673      9     0.00   0.65270   3 ;    H3R-   C13-   C12-   C11
 14669  14667  14670  14671      9     0.00   0.62760   3 ;    H3S-   C13-   C12-   H2R
 14669  14667  14670  14672      9     0.00   0.62760   3 ;    H3S-   C13-   C12-   H2S
 14669  14667  14670  14673      9     0.00   0.65270   3 ;    H3S-   C13-   C12-   C11
 14670  14673  14675  14676      9   180.00  11.29680   2 ;    C12-   C11-   O11-    C1
 14671  14670  14673  14674      9     0.00   3.34720   1 ;    H2R-   C12-   C11-   O12
 14671  14670  14673  14674      9   180.00   0.33472   3 ;    H2R-   C12-   C11-   O12
 14671  14670  14673  14675      9   180.00   0.00000   2 ;    H2R-   C12-   C11-   O11
 14672  14670  14673  14674      9     0.00   3.34720   1 ;    H2S-   C12-   C11-   O12
 14672  14670  14673  14674      9   180.00   0.33472   3 ;    H2S-   C12-   C11-   O12
 14672  14670  14673  14675      9   180.00   0.00000   2 ;    H2S-   C12-   C11-   O11
 14673  14675  14676  14677      9     0.00   1.60247   3 ;    C11-   O11-    C1-    HR
 14673  14675  14676  14678      9     0.00   1.60247   3 ;    C11-   O11-    C1-    HS
 14673  14675  14676  14679      9     0.00  -0.41840   1 ;    C11-   O11-    C1-    C2
 14674  14673  14675  14676      9   180.00   5.85760   1 ;    O12-   C11-   O11-    C1
 14674  14673  14675  14676      9   180.00  11.29680   2 ;    O12-   C11-   O11-    C1
 14675  14676  14679  14680      9     0.00   0.00000   0 ;    O11-    C1-    C2-    HX
 14675  14676  14679  14680      9     0.00   1.04600   1 ;    O11-    C1-    C2-    HX
 14675  14676  14679  14681      9     0.00   0.00000   0 ;    O11-    C1-    C2-    C3
 14675  14676  14679  14681      9     0.00   0.00000   0 ;    O11-    C1-    C2-    C3
 14675  14676  14679  14681      9     0.00   0.00000   0 ;    O11-    C1-    C2-    C3
 14675  14676  14679  14681      9     0.00   0.00000   0 ;    O11-    C1-    C2-    C3
 14675  14676  14679  14681      9     0.00   0.00000   0 ;    O11-    C1-    C2-    C3
 14675  14676  14679  14708      9     0.00   1.25520   2 ;    O11-    C1-    C2-   O21
 14675  14676  14679  14708      9     0.00   4.18400   3 ;    O11-    C1-    C2-   O21
 14675  14676  14679  14708      9   180.00  -0.41840   1 ;    O11-    C1-    C2-   O21
 14676  14679  14681  14682      9     0.00   0.65270   3 ;     C1-    C2-    C3-    HA
 14676  14679  14681  14683      9     0.00   0.65270   3 ;     C1-    C2-    C3-    HB
 14676  14679  14681  14684      9   180.00   3.34720   1 ;     C1-    C2-    C3-   O31
 14676  14679  14708  14709      9     0.00  -0.41840   1 ;     C1-    C2-   O21-   C21
 14677  14676  14679  14680      9     0.00   0.65270   3 ;     HR-    C1-    C2-    HX
 14677  14676  14679  14681      9     0.00   0.65270   3 ;     HR-    C1-    C2-    C3
 14677  14676  14679  14708      9     0.00   0.00000   0 ;     HR-    C1-    C2-   O21
 14677  14676  14679  14708      9     0.00   1.04600   1 ;     HR-    C1-    C2-   O21
 14678  14676  14679  14680      9     0.00   0.65270   3 ;     HS-    C1-    C2-    HX
 14678  14676  14679  14681      9     0.00   0.65270   3 ;     HS-    C1-    C2-    C3
 14678  14676  14679  14708      9     0.00   0.00000   0 ;     HS-    C1-    C2-   O21
 14678  14676  14679  14708      9     0.00   1.04600   1 ;     HS-    C1-    C2-   O21
 14679  14681  14684  14685      9     0.00   0.00000   0 ;     C2-    C3-   O31-   P31
 14679  14681  14684  14685      9   180.00  -3.34720   2 ;     C2-    C3-   O31-   P31
 14679  14708  14709  14710      9   180.00   5.85760   1 ;     C2-   O21-   C21-   O22
 14679  14708  14709  14710      9   180.00  11.29680   2 ;     C2-   O21-   C21-   O22
 14679  14708  14709  14748      9   180.00  11.29680   2 ;     C2-   O21-   C21-   C12
 14680  14679  14681  14682      9     0.00   0.65270   3 ;     HX-    C2-    C3-    HA
 14680  14679  14681  14683      9     0.00   0.65270   3 ;     HX-    C2-    C3-    HB
 14680  14679  14681  14684      9     0.00   0.00000   0 ;     HX-    C2-    C3-   O31
 14680  14679  14681  14684      9     0.00   1.04600   1 ;     HX-    C2-    C3-   O31
 14680  14679  14708  14709      9     0.00   1.60247   3 ;     HX-    C2-   O21-   C21
 14681  14679  14708  14709      9     0.00  -0.41840   1 ;     C3-    C2-   O21-   C21
 14681  14684  14685  14686      9     0.00   2.51040   3 ;     C3-   O31-   P31-   O32
 14681  14684  14685  14686      9     0.00   9.62320   2 ;     C3-   O31-   P31-   O32
 14681  14684  14685  14706      9     0.00   0.00000   0 ;     C3-   O31-   P31-   O33
 14681  14684  14685  14706      9     0.00   0.00000   0 ;     C3-   O31-   P31-   O33
 14681  14684  14685  14706      9     0.00   0.00000   0 ;     C3-   O31-   P31-   O33
 14681  14684  14685  14706      9     0.00   0.00000   0 ;     C3-   O31-   P31-   O33
 14681  14684  14685  14706      9     0.00   0.83680   2 ;     C3-   O31-   P31-   O33
 14681  14684  14685  14707      9     0.00   0.00000   0 ;     C3-   O31-   P31-   O34
 14681  14684  14685  14707      9     0.00   0.00000   0 ;     C3-   O31-   P31-   O34
 14681  14684  14685  14707      9     0.00   0.00000   0 ;     C3-   O31-   P31-   O34
 14681  14684  14685  14707      9     0.00   0.00000   0 ;     C3-   O31-   P31-   O34
 14681  14684  14685  14707      9     0.00   0.83680   2 ;     C3-   O31-   P31-   O34
 14682  14681  14679  14708      9     0.00   0.00000   0 ;     HA-    C3-    C2-   O21
 14682  14681  14679  14708      9     0.00   1.04600   1 ;     HA-    C3-    C2-   O21
 14682  14681  14684  14685      9     0.00   0.00000   0 ;     HA-    C3-   O31-   P31
 14682  14681  14684  14685      9     0.00   0.00000   0 ;     HA-    C3-   O31-   P31
 14682  14681  14684  14685      9     0.00   0.00000   0 ;     HA-    C3-   O31-   P31
 14682  14681  14684  14685      9     0.00   0.00000   0 ;     HA-    C3-   O31-   P31
 14682  14681  14684  14685      9     0.00   1.60247   3 ;     HA-    C3-   O31-   P31
 14683  14681  14679  14708      9     0.00   0.00000   0 ;     HB-    C3-    C2-   O21
 14683  14681  14679  14708      9     0.00   1.04600   1 ;     HB-    C3-    C2-   O21
 14683  14681  14684  14685      9     0.00   0.00000   0 ;     HB-    C3-   O31-   P31
 14683  14681  14684  14685      9     0.00   0.00000   0 ;     HB-    C3-   O31-   P31
 14683  14681  14684  14685      9     0.00   0.00000   0 ;     HB-    C3-   O31-   P31
 14683  14681  14684  14685      9     0.00   0.00000   0 ;     HB-    C3-   O31-   P31
 14683  14681  14684  14685      9     0.00   1.60247   3 ;     HB-    C3-   O31-   P31
 14684  14681  14679  14708      9     0.00   0.00000   0 ;    O31-    C3-    C2-   O21
 14684  14681  14679  14708      9     0.00   0.00000   0 ;    O31-    C3-    C2-   O21
 14684  14681  14679  14708      9     0.00   0.00000   0 ;    O31-    C3-    C2-   O21
 14684  14681  14679  14708      9     0.00   0.00000   0 ;    O31-    C3-    C2-   O21
 14684  14681  14679  14708      9     0.00   0.00000   0 ;    O31-    C3-    C2-   O21
 14684  14685  14686  14687      9     0.00   2.51040   3 ;    O31-   P31-   O32-   C31
 14684  14685  14686  14687      9     0.00   9.62320   2 ;    O31-   P31-   O32-   C31
 14685  14686  14687  14688      9     0.00   0.00000   0 ;    P31-   O32-   C31-   H1A
 14685  14686  14687  14688      9     0.00   0.00000   0 ;    P31-   O32-   C31-   H1A
 14685  14686  14687  14688      9     0.00   0.00000   0 ;    P31-   O32-   C31-   H1A
 14685  14686  14687  14688      9     0.00   0.00000   0 ;    P31-   O32-   C31-   H1A
 14685  14686  14687  14688      9     0.00   1.60247   3 ;    P31-   O32-   C31-   H1A
 14685  14686  14687  14689      9     0.00   0.00000   0 ;    P31-   O32-   C31-   H1B
 14685  14686  14687  14689      9     0.00   0.00000   0 ;    P31-   O32-   C31-   H1B
 14685  14686  14687  14689      9     0.00   0.00000   0 ;    P31-   O32-   C31-   H1B
 14685  14686  14687  14689      9     0.00   0.00000   0 ;    P31-   O32-   C31-   H1B
 14685  14686  14687  14689      9     0.00   1.60247   3 ;    P31-   O32-   C31-   H1B
 14685  14686  14687  14690      9     0.00   0.00000   0 ;    P31-   O32-   C31-   C32
 14685  14686  14687  14690      9   180.00  -3.34720   2 ;    P31-   O32-   C31-   C32
 14686  14687  14690  14691      9     0.00   0.65270   3 ;    O32-   C31-   C32-   H2A
 14686  14687  14690  14692      9     0.00   0.65270   3 ;    O32-   C31-   C32-   H2B
 14686  14687  14690  14693      9     0.00   4.18400   3 ;    O32-   C31-   C32-   N31
 14687  14686  14685  14706      9     0.00   0.00000   0 ;    C31-   O32-   P31-   O33
 14687  14686  14685  14706      9     0.00   0.00000   0 ;    C31-   O32-   P31-   O33
 14687  14686  14685  14706      9     0.00   0.00000   0 ;    C31-   O32-   P31-   O33
 14687  14686  14685  14706      9     0.00   0.00000   0 ;    C31-   O32-   P31-   O33
 14687  14686  14685  14706      9     0.00   0.83680   2 ;    C31-   O32-   P31-   O33
 14687  14686  14685  14707      9     0.00   0.00000   0 ;    C31-   O32-   P31-   O34
 14687  14686  14685  14707      9     0.00   0.00000   0 ;    C31-   O32-   P31-   O34
 14687  14686  14685  14707      9     0.00   0.00000   0 ;    C31-   O32-   P31-   O34
 14687  14686  14685  14707      9     0.00   0.00000   0 ;    C31-   O32-   P31-   O34
 14687  14686  14685  14707      9     0.00   0.83680   2 ;    C31-   O32-   P31-   O34
 14687  14690  14693  14694      9     0.00   0.65270   3 ;    C31-   C32-   N31-   C33
 14687  14690  14693  14698      9     0.00   0.65270   3 ;    C31-   C32-   N31-   C34
 14687  14690  14693  14702      9     0.00   0.65270   3 ;    C31-   C32-   N31-   C35
 14688  14687  14690  14691      9     0.00   0.65270   3 ;    H1A-   C31-   C32-   H2A
 14688  14687  14690  14692      9     0.00   0.65270   3 ;    H1A-   C31-   C32-   H2B
 14688  14687  14690  14693      9     0.00   0.65270   3 ;    H1A-   C31-   C32-   N31
 14689  14687  14690  14691      9     0.00   0.65270   3 ;    H1B-   C31-   C32-   H2A
 14689  14687  14690  14692      9     0.00   0.65270   3 ;    H1B-   C31-   C32-   H2B
 14689  14687  14690  14693      9     0.00   0.65270   3 ;    H1B-   C31-   C32-   N31
 14690  14693  14694  14695      9     0.00   0.65270   3 ;    C32-   N31-   C33-   H3A
 14690  14693  14694  14696      9     0.00   0.65270   3 ;    C32-   N31-   C33-   H3B
 14690  14693  14694  14697      9     0.00   0.65270   3 ;    C32-   N31-   C33-   H3C
 14690  14693  14698  14699      9     0.00   0.65270   3 ;    C32-   N31-   C34-   H4A
 14690  14693  14698  14700      9     0.00   0.65270   3 ;    C32-   N31-   C34-   H4B
 14690  14693  14698  14701      9     0.00   0.65270   3 ;    C32-   N31-   C34-   H4C
 14690  14693  14702  14703      9     0.00   0.65270   3 ;    C32-   N31-   C35-   H5A
 14690  14693  14702  14704      9     0.00   0.65270   3 ;    C32-   N31-   C35-   H5B
 14690  14693  14702  14705      9     0.00   0.65270   3 ;    C32-   N31-   C35-   H5C
 14691  14690  14693  14694      9     0.00   0.65270   3 ;    H2A-   C32-   N31-   C33
 14691  14690  14693  14698      9     0.00   0.65270   3 ;    H2A-   C32-   N31-   C34
 14691  14690  14693  14702      9     0.00   0.65270   3 ;    H2A-   C32-   N31-   C35
 14692  14690  14693  14694      9     0.00   0.65270   3 ;    H2B-   C32-   N31-   C33
 14692  14690  14693  14698      9     0.00   0.65270   3 ;    H2B-   C32-   N31-   C34
 14692  14690  14693  14702      9     0.00   0.65270   3 ;    H2B-   C32-   N31-   C35
 14694  14693  14698  14699      9     0.00   0.65270   3 ;    C33-   N31-   C34-   H4A
 14694  14693  14698  14700      9     0.00   0.65270   3 ;    C33-   N31-   C34-   H4B
 14694  14693  14698  14701      9     0.00   0.65270   3 ;    C33-   N31-   C34-   H4C
 14694  14693  14702  14703      9     0.00   0.65270   3 ;    C33-   N31-   C35-   H5A
 14694  14693  14702  14704      9     0.00   0.65270   3 ;    C33-   N31-   C35-   H5B
 14694  14693  14702  14705      9     0.00   0.65270   3 ;    C33-   N31-   C35-   H5C
 14695  14694  14693  14698      9     0.00   0.65270   3 ;    H3A-   C33-   N31-   C34
 14695  14694  14693  14702      9     0.00   0.65270   3 ;    H3A-   C33-   N31-   C35
 14696  14694  14693  14698      9     0.00   0.65270   3 ;    H3B-   C33-   N31-   C34
 14696  14694  14693  14702      9     0.00   0.65270   3 ;    H3B-   C33-   N31-   C35
 14697  14694  14693  14698      9     0.00   0.65270   3 ;    H3C-   C33-   N31-   C34
 14697  14694  14693  14702      9     0.00   0.65270   3 ;    H3C-   C33-   N31-   C35
 14698  14693  14702  14703      9     0.00   0.65270   3 ;    C34-   N31-   C35-   H5A
 14698  14693  14702  14704      9     0.00   0.65270   3 ;    C34-   N31-   C35-   H5B
 14698  14693  14702  14705      9     0.00   0.65270   3 ;    C34-   N31-   C35-   H5C
 14699  14698  14693  14702      9     0.00   0.65270   3 ;    H4A-   C34-   N31-   C35
 14700  14698  14693  14702      9     0.00   0.65270   3 ;    H4B-   C34-   N31-   C35
 14701  14698  14693  14702      9     0.00   0.65270   3 ;    H4C-   C34-   N31-   C35
 14708  14709  14748  14745      9   180.00   0.00000   2 ;    O21-   C21-   C12-   C13
 14708  14709  14748  14749      9   180.00   0.00000   2 ;    O21-   C21-   C12-   H2R
 14708  14709  14748  14750      9   180.00   0.00000   2 ;    O21-   C21-   C12-   H2S
 14709  14748  14745  14742      9     0.00   0.65270   3 ;    C21-   C12-   C13-   C14
 14709  14748  14745  14746      9     0.00   0.65270   3 ;    C21-   C12-   C13-   H3R
 14709  14748  14745  14747      9     0.00   0.65270   3 ;    C21-   C12-   C13-   H3S
 14710  14709  14748  14745      9   180.00   0.00000   2 ;    O22-   C21-   C12-   C13
 14710  14709  14748  14749      9     0.00   3.34720   1 ;    O22-   C21-   C12-   H2R
 14710  14709  14748  14749      9   180.00   0.33472   3 ;    O22-   C21-   C12-   H2R
 14710  14709  14748  14750      9     0.00   3.34720   1 ;    O22-   C21-   C12-   H2S
 14710  14709  14748  14750      9   180.00   0.33472   3 ;    O22-   C21-   C12-   H2S
 14711  14712  14715  14716      9     0.00   0.62760   3 ;   H14T-  C114-  C113-  H13R
 14711  14712  14715  14717      9     0.00   0.62760   3 ;   H14T-  C114-  C113-  H13S
 14711  14712  14715  14718      9     0.00   0.66944   3 ;   H14T-  C114-  C113-  C112
 14712  14715  14718  14719      9     0.00   0.66944   3 ;   C114-  C113-  C112-  H12R
 14712  14715  14718  14720      9     0.00   0.66944   3 ;   C114-  C113-  C112-  H12S
 14712  14715  14718  14721      9     0.00   0.41840   1 ;   C114-  C113-  C112-  C111
 14712  14715  14718  14721      9     0.00   0.41840   2 ;   C114-  C113-  C112-  C111
 14712  14715  14718  14721      9     0.00   0.41840   4 ;   C114-  C113-  C112-  C111
 14712  14715  14718  14721      9     0.00   0.41840   5 ;   C114-  C113-  C112-  C111
 14712  14715  14718  14721      9     0.00   1.25520   3 ;   C114-  C113-  C112-  C111
 14713  14712  14715  14716      9     0.00   0.62760   3 ;   H14R-  C114-  C113-  H13R
 14713  14712  14715  14717      9     0.00   0.62760   3 ;   H14R-  C114-  C113-  H13S
 14713  14712  14715  14718      9     0.00   0.66944   3 ;   H14R-  C114-  C113-  C112
 14714  14712  14715  14716      9     0.00   0.62760   3 ;   H14S-  C114-  C113-  H13R
 14714  14712  14715  14717      9     0.00   0.62760   3 ;   H14S-  C114-  C113-  H13S
 14714  14712  14715  14718      9     0.00   0.66944   3 ;   H14S-  C114-  C113-  C112
 14715  14718  14721  14722      9     0.00   0.66944   3 ;   C113-  C112-  C111-  H11R
 14715  14718  14721  14723      9     0.00   0.66944   3 ;   C113-  C112-  C111-  H11S
 14715  14718  14721  14724      9     0.00   0.41840   1 ;   C113-  C112-  C111-  C110
 14715  14718  14721  14724      9     0.00   0.41840   2 ;   C113-  C112-  C111-  C110
 14715  14718  14721  14724      9     0.00   0.41840   4 ;   C113-  C112-  C111-  C110
 14715  14718  14721  14724      9     0.00   0.41840   5 ;   C113-  C112-  C111-  C110
 14715  14718  14721  14724      9     0.00   1.25520   3 ;   C113-  C112-  C111-  C110
 14716  14715  14718  14719      9     0.00   0.62760   3 ;   H13R-  C113-  C112-  H12R
 14716  14715  14718  14720      9     0.00   0.62760   3 ;   H13R-  C113-  C112-  H12S
 14716  14715  14718  14721      9     0.00   0.66944   3 ;   H13R-  C113-  C112-  C111
 14717  14715  14718  14719      9     0.00   0.62760   3 ;   H13S-  C113-  C112-  H12R
 14717  14715  14718  14720      9     0.00   0.62760   3 ;   H13S-  C113-  C112-  H12S
 14717  14715  14718  14721      9     0.00   0.66944   3 ;   H13S-  C113-  C112-  C111
 14718  14721  14724  14725      9     0.00   0.66944   3 ;   C112-  C111-  C110-  H10R
 14718  14721  14724  14726      9     0.00   0.66944   3 ;   C112-  C111-  C110-  H10S
 14718  14721  14724  14727      9     0.00   0.41840   1 ;   C112-  C111-  C110-   C19
 14718  14721  14724  14727      9     0.00   0.41840   2 ;   C112-  C111-  C110-   C19
 14718  14721  14724  14727      9     0.00   0.41840   4 ;   C112-  C111-  C110-   C19
 14718  14721  14724  14727      9     0.00   0.41840   5 ;   C112-  C111-  C110-   C19
 14718  14721  14724  14727      9     0.00   1.25520   3 ;   C112-  C111-  C110-   C19
 14719  14718  14721  14722      9     0.00   0.62760   3 ;   H12R-  C112-  C111-  H11R
 14719  14718  14721  14723      9     0.00   0.62760   3 ;   H12R-  C112-  C111-  H11S
 14719  14718  14721  14724      9     0.00   0.66944   3 ;   H12R-  C112-  C111-  C110
 14720  14718  14721  14722      9     0.00   0.62760   3 ;   H12S-  C112-  C111-  H11R
 14720  14718  14721  14723      9     0.00   0.62760   3 ;   H12S-  C112-  C111-  H11S
 14720  14718  14721  14724      9     0.00   0.66944   3 ;   H12S-  C112-  C111-  C110
 14721  14724  14727  14728      9     0.00   0.66944   3 ;   C111-  C110-   C19-   H9R
 14721  14724  14727  14729      9     0.00   0.66944   3 ;   C111-  C110-   C19-   H9S
 14721  14724  14727  14730      9     0.00   0.41840   1 ;   C111-  C110-   C19-   C18
 14721  14724  14727  14730      9     0.00   0.41840   2 ;   C111-  C110-   C19-   C18
 14721  14724  14727  14730      9     0.00   0.41840   4 ;   C111-  C110-   C19-   C18
 14721  14724  14727  14730      9     0.00   0.41840   5 ;   C111-  C110-   C19-   C18
 14721  14724  14727  14730      9     0.00   1.25520   3 ;   C111-  C110-   C19-   C18
 14722  14721  14724  14725      9     0.00   0.62760   3 ;   H11R-  C111-  C110-  H10R
 14722  14721  14724  14726      9     0.00   0.62760   3 ;   H11R-  C111-  C110-  H10S
 14722  14721  14724  14727      9     0.00   0.66944   3 ;   H11R-  C111-  C110-   C19
 14723  14721  14724  14725      9     0.00   0.62760   3 ;   H11S-  C111-  C110-  H10R
 14723  14721  14724  14726      9     0.00   0.62760   3 ;   H11S-  C111-  C110-  H10S
 14723  14721  14724  14727      9     0.00   0.66944   3 ;   H11S-  C111-  C110-   C19
 14724  14727  14730  14731      9     0.00   0.66944   3 ;   C110-   C19-   C18-   H8R
 14724  14727  14730  14732      9     0.00   0.66944   3 ;   C110-   C19-   C18-   H8S
 14724  14727  14730  14733      9     0.00   0.41840   1 ;   C110-   C19-   C18-   C17
 14724  14727  14730  14733      9     0.00   0.41840   2 ;   C110-   C19-   C18-   C17
 14724  14727  14730  14733      9     0.00   0.41840   4 ;   C110-   C19-   C18-   C17
 14724  14727  14730  14733      9     0.00   0.41840   5 ;   C110-   C19-   C18-   C17
 14724  14727  14730  14733      9     0.00   1.25520   3 ;   C110-   C19-   C18-   C17
 14725  14724  14727  14728      9     0.00   0.62760   3 ;   H10R-  C110-   C19-   H9R
 14725  14724  14727  14729      9     0.00   0.62760   3 ;   H10R-  C110-   C19-   H9S
 14725  14724  14727  14730      9     0.00   0.66944   3 ;   H10R-  C110-   C19-   C18
 14726  14724  14727  14728      9     0.00   0.62760   3 ;   H10S-  C110-   C19-   H9R
 14726  14724  14727  14729      9     0.00   0.62760   3 ;   H10S-  C110-   C19-   H9S
 14726  14724  14727  14730      9     0.00   0.66944   3 ;   H10S-  C110-   C19-   C18
 14727  14730  14733  14734      9     0.00   0.66944   3 ;    C19-   C18-   C17-   H7R
 14727  14730  14733  14735      9     0.00   0.66944   3 ;    C19-   C18-   C17-   H7S
 14727  14730  14733  14736      9     0.00   0.41840   1 ;    C19-   C18-   C17-   C16
 14727  14730  14733  14736      9     0.00   0.41840   2 ;    C19-   C18-   C17-   C16
 14727  14730  14733  14736      9     0.00   0.41840   4 ;    C19-   C18-   C17-   C16
 14727  14730  14733  14736      9     0.00   0.41840   5 ;    C19-   C18-   C17-   C16
 14727  14730  14733  14736      9     0.00   1.25520   3 ;    C19-   C18-   C17-   C16
 14728  14727  14730  14731      9     0.00   0.62760   3 ;    H9R-   C19-   C18-   H8R
 14728  14727  14730  14732      9     0.00   0.62760   3 ;    H9R-   C19-   C18-   H8S
 14728  14727  14730  14733      9     0.00   0.66944   3 ;    H9R-   C19-   C18-   C17
 14729  14727  14730  14731      9     0.00   0.62760   3 ;    H9S-   C19-   C18-   H8R
 14729  14727  14730  14732      9     0.00   0.62760   3 ;    H9S-   C19-   C18-   H8S
 14729  14727  14730  14733      9     0.00   0.66944   3 ;    H9S-   C19-   C18-   C17
 14730  14733  14736  14737      9     0.00   0.66944   3 ;    C18-   C17-   C16-   H6R
 14730  14733  14736  14738      9     0.00   0.66944   3 ;    C18-   C17-   C16-   H6S
 14730  14733  14736  14739      9     0.00   0.41840   1 ;    C18-   C17-   C16-   C15
 14730  14733  14736  14739      9     0.00   0.41840   2 ;    C18-   C17-   C16-   C15
 14730  14733  14736  14739      9     0.00   0.41840   4 ;    C18-   C17-   C16-   C15
 14730  14733  14736  14739      9     0.00   0.41840   5 ;    C18-   C17-   C16-   C15
 14730  14733  14736  14739      9     0.00   1.25520   3 ;    C18-   C17-   C16-   C15
 14731  14730  14733  14734      9     0.00   0.62760   3 ;    H8R-   C18-   C17-   H7R
 14731  14730  14733  14735      9     0.00   0.62760   3 ;    H8R-   C18-   C17-   H7S
 14731  14730  14733  14736      9     0.00   0.66944   3 ;    H8R-   C18-   C17-   C16
 14732  14730  14733  14734      9     0.00   0.62760   3 ;    H8S-   C18-   C17-   H7R
 14732  14730  14733  14735      9     0.00   0.62760   3 ;    H8S-   C18-   C17-   H7S
 14732  14730  14733  14736      9     0.00   0.66944   3 ;    H8S-   C18-   C17-   C16
 14733  14736  14739  14740      9     0.00   0.66944   3 ;    C17-   C16-   C15-   H5R
 14733  14736  14739  14741      9     0.00   0.66944   3 ;    C17-   C16-   C15-   H5S
 14733  14736  14739  14742      9     0.00   0.41840   1 ;    C17-   C16-   C15-   C14
 14733  14736  14739  14742      9     0.00   0.41840   2 ;    C17-   C16-   C15-   C14
 14733  14736  14739  14742      9     0.00   0.41840   4 ;    C17-   C16-   C15-   C14
 14733  14736  14739  14742      9     0.00   0.41840   5 ;    C17-   C16-   C15-   C14
 14733  14736  14739  14742      9     0.00   1.25520   3 ;    C17-   C16-   C15-   C14
 14734  14733  14736  14737      9     0.00   0.62760   3 ;    H7R-   C17-   C16-   H6R
 14734  14733  14736  14738      9     0.00   0.62760   3 ;    H7R-   C17-   C16-   H6S
 14734  14733  14736  14739      9     0.00   0.66944   3 ;    H7R-   C17-   C16-   C15
 14735  14733  14736  14737      9     0.00   0.62760   3 ;    H7S-   C17-   C16-   H6R
 14735  14733  14736  14738      9     0.00   0.62760   3 ;    H7S-   C17-   C16-   H6S
 14735  14733  14736  14739      9     0.00   0.66944   3 ;    H7S-   C17-   C16-   C15
 14736  14739  14742  14743      9     0.00   0.66944   3 ;    C16-   C15-   C14-   H4R
 14736  14739  14742  14744      9     0.00   0.66944   3 ;    C16-   C15-   C14-   H4S
 14736  14739  14742  14745      9     0.00   0.41840   1 ;    C16-   C15-   C14-   C13
 14736  14739  14742  14745      9     0.00   0.41840   2 ;    C16-   C15-   C14-   C13
 14736  14739  14742  14745      9     0.00   0.41840   4 ;    C16-   C15-   C14-   C13
 14736  14739  14742  14745      9     0.00   0.41840   5 ;    C16-   C15-   C14-   C13
 14736  14739  14742  14745      9     0.00   1.25520   3 ;    C16-   C15-   C14-   C13
 14737  14736  14739  14740      9     0.00   0.62760   3 ;    H6R-   C16-   C15-   H5R
 14737  14736  14739  14741      9     0.00   0.62760   3 ;    H6R-   C16-   C15-   H5S
 14737  14736  14739  14742      9     0.00   0.66944   3 ;    H6R-   C16-   C15-   C14
 14738  14736  14739  14740      9     0.00   0.62760   3 ;    H6S-   C16-   C15-   H5R
 14738  14736  14739  14741      9     0.00   0.62760   3 ;    H6S-   C16-   C15-   H5S
 14738  14736  14739  14742      9     0.00   0.66944   3 ;    H6S-   C16-   C15-   C14
 14739  14742  14745  14746      9     0.00   0.66944   3 ;    C15-   C14-   C13-   H3R
 14739  14742  14745  14747      9     0.00   0.66944   3 ;    C15-   C14-   C13-   H3S
 14739  14742  14745  14748      9     0.00   0.41840   1 ;    C15-   C14-   C13-   C12
 14739  14742  14745  14748      9     0.00   0.41840   2 ;    C15-   C14-   C13-   C12
 14739  14742  14745  14748      9     0.00   0.41840   4 ;    C15-   C14-   C13-   C12
 14739  14742  14745  14748      9     0.00   0.41840   5 ;    C15-   C14-   C13-   C12
 14739  14742  14745  14748      9     0.00   1.25520   3 ;    C15-   C14-   C13-   C12
 14740  14739  14742  14743      9     0.00   0.62760   3 ;    H5R-   C15-   C14-   H4R
 14740  14739  14742  14744      9     0.00   0.62760   3 ;    H5R-   C15-   C14-   H4S
 14740  14739  14742  14745      9     0.00   0.66944   3 ;    H5R-   C15-   C14-   C13
 14741  14739  14742  14743      9     0.00   0.62760   3 ;    H5S-   C15-   C14-   H4R
 14741  14739  14742  14744      9     0.00   0.62760   3 ;    H5S-   C15-   C14-   H4S
 14741  14739  14742  14745      9     0.00   0.66944   3 ;    H5S-   C15-   C14-   C13
 14742  14745  14748  14749      9     0.00   0.66944   3 ;    C14-   C13-   C12-   H2R
 14742  14745  14748  14750      9     0.00   0.66944   3 ;    C14-   C13-   C12-   H2S
 14743  14742  14745  14746      9     0.00   0.62760   3 ;    H4R-   C14-   C13-   H3R
 14743  14742  14745  14747      9     0.00   0.62760   3 ;    H4R-   C14-   C13-   H3S
 14743  14742  14745  14748      9     0.00   0.66944   3 ;    H4R-   C14-   C13-   C12
 14744  14742  14745  14746      9     0.00   0.62760   3 ;    H4S-   C14-   C13-   H3R
 14744  14742  14745  14747      9     0.00   0.62760   3 ;    H4S-   C14-   C13-   H3S
 14744  14742  14745  14748      9     0.00   0.66944   3 ;    H4S-   C14-   C13-   C12
 14746  14745  14748  14749      9     0.00   0.62760   3 ;    H3R-   C13-   C12-   H2R
 14746  14745  14748  14750      9     0.00   0.62760   3 ;    H3R-   C13-   C12-   H2S
 14747  14745  14748  14749      9     0.00   0.62760   3 ;    H3S-   C13-   C12-   H2R
 14747  14745  14748  14750      9     0.00   0.62760   3 ;    H3S-   C13-   C12-   H2S
 14751  14752  14755  14756      9     0.00   0.62760   3 ;   H14T-  C114-  C113-  H13R
 14751  14752  14755  14757      9     0.00   0.62760   3 ;   H14T-  C114-  C113-  H13S
 14751  14752  14755  14758      9     0.00   0.66944   3 ;   H14T-  C114-  C113-  C112
 14752  14755  14758  14759      9     0.00   0.66944   3 ;   C114-  C113-  C112-  H12R
 14752  14755  14758  14760      9     0.00   0.66944   3 ;   C114-  C113-  C112-  H12S
 14752  14755  14758  14761      9     0.00   0.41840   1 ;   C114-  C113-  C112-  C111
 14752  14755  14758  14761      9     0.00   0.41840   2 ;   C114-  C113-  C112-  C111
 14752  14755  14758  14761      9     0.00   0.41840   4 ;   C114-  C113-  C112-  C111
 14752  14755  14758  14761      9     0.00   0.41840   5 ;   C114-  C113-  C112-  C111
 14752  14755  14758  14761      9     0.00   1.25520   3 ;   C114-  C113-  C112-  C111
 14753  14752  14755  14756      9     0.00   0.62760   3 ;   H14R-  C114-  C113-  H13R
 14753  14752  14755  14757      9     0.00   0.62760   3 ;   H14R-  C114-  C113-  H13S
 14753  14752  14755  14758      9     0.00   0.66944   3 ;   H14R-  C114-  C113-  C112
 14754  14752  14755  14756      9     0.00   0.62760   3 ;   H14S-  C114-  C113-  H13R
 14754  14752  14755  14757      9     0.00   0.62760   3 ;   H14S-  C114-  C113-  H13S
 14754  14752  14755  14758      9     0.00   0.66944   3 ;   H14S-  C114-  C113-  C112
 14755  14758  14761  14762      9     0.00   0.66944   3 ;   C113-  C112-  C111-  H11R
 14755  14758  14761  14763      9     0.00   0.66944   3 ;   C113-  C112-  C111-  H11S
 14755  14758  14761  14764      9     0.00   0.41840   1 ;   C113-  C112-  C111-  C110
 14755  14758  14761  14764      9     0.00   0.41840   2 ;   C113-  C112-  C111-  C110
 14755  14758  14761  14764      9     0.00   0.41840   4 ;   C113-  C112-  C111-  C110
 14755  14758  14761  14764      9     0.00   0.41840   5 ;   C113-  C112-  C111-  C110
 14755  14758  14761  14764      9     0.00   1.25520   3 ;   C113-  C112-  C111-  C110
 14756  14755  14758  14759      9     0.00   0.62760   3 ;   H13R-  C113-  C112-  H12R
 14756  14755  14758  14760      9     0.00   0.62760   3 ;   H13R-  C113-  C112-  H12S
 14756  14755  14758  14761      9     0.00   0.66944   3 ;   H13R-  C113-  C112-  C111
 14757  14755  14758  14759      9     0.00   0.62760   3 ;   H13S-  C113-  C112-  H12R
 14757  14755  14758  14760      9     0.00   0.62760   3 ;   H13S-  C113-  C112-  H12S
 14757  14755  14758  14761      9     0.00   0.66944   3 ;   H13S-  C113-  C112-  C111
 14758  14761  14764  14765      9     0.00   0.66944   3 ;   C112-  C111-  C110-  H10R
 14758  14761  14764  14766      9     0.00   0.66944   3 ;   C112-  C111-  C110-  H10S
 14758  14761  14764  14767      9     0.00   0.41840   1 ;   C112-  C111-  C110-   C19
 14758  14761  14764  14767      9     0.00   0.41840   2 ;   C112-  C111-  C110-   C19
 14758  14761  14764  14767      9     0.00   0.41840   4 ;   C112-  C111-  C110-   C19
 14758  14761  14764  14767      9     0.00   0.41840   5 ;   C112-  C111-  C110-   C19
 14758  14761  14764  14767      9     0.00   1.25520   3 ;   C112-  C111-  C110-   C19
 14759  14758  14761  14762      9     0.00   0.62760   3 ;   H12R-  C112-  C111-  H11R
 14759  14758  14761  14763      9     0.00   0.62760   3 ;   H12R-  C112-  C111-  H11S
 14759  14758  14761  14764      9     0.00   0.66944   3 ;   H12R-  C112-  C111-  C110
 14760  14758  14761  14762      9     0.00   0.62760   3 ;   H12S-  C112-  C111-  H11R
 14760  14758  14761  14763      9     0.00   0.62760   3 ;   H12S-  C112-  C111-  H11S
 14760  14758  14761  14764      9     0.00   0.66944   3 ;   H12S-  C112-  C111-  C110
 14761  14764  14767  14768      9     0.00   0.66944   3 ;   C111-  C110-   C19-   H9R
 14761  14764  14767  14769      9     0.00   0.66944   3 ;   C111-  C110-   C19-   H9S
 14761  14764  14767  14770      9     0.00   0.41840   1 ;   C111-  C110-   C19-   C18
 14761  14764  14767  14770      9     0.00   0.41840   2 ;   C111-  C110-   C19-   C18
 14761  14764  14767  14770      9     0.00   0.41840   4 ;   C111-  C110-   C19-   C18
 14761  14764  14767  14770      9     0.00   0.41840   5 ;   C111-  C110-   C19-   C18
 14761  14764  14767  14770      9     0.00   1.25520   3 ;   C111-  C110-   C19-   C18
 14762  14761  14764  14765      9     0.00   0.62760   3 ;   H11R-  C111-  C110-  H10R
 14762  14761  14764  14766      9     0.00   0.62760   3 ;   H11R-  C111-  C110-  H10S
 14762  14761  14764  14767      9     0.00   0.66944   3 ;   H11R-  C111-  C110-   C19
 14763  14761  14764  14765      9     0.00   0.62760   3 ;   H11S-  C111-  C110-  H10R
 14763  14761  14764  14766      9     0.00   0.62760   3 ;   H11S-  C111-  C110-  H10S
 14763  14761  14764  14767      9     0.00   0.66944   3 ;   H11S-  C111-  C110-   C19
 14764  14767  14770  14771      9     0.00   0.66944   3 ;   C110-   C19-   C18-   H8R
 14764  14767  14770  14772      9     0.00   0.66944   3 ;   C110-   C19-   C18-   H8S
 14764  14767  14770  14773      9     0.00   0.41840   1 ;   C110-   C19-   C18-   C17
 14764  14767  14770  14773      9     0.00   0.41840   2 ;   C110-   C19-   C18-   C17
 14764  14767  14770  14773      9     0.00   0.41840   4 ;   C110-   C19-   C18-   C17
 14764  14767  14770  14773      9     0.00   0.41840   5 ;   C110-   C19-   C18-   C17
 14764  14767  14770  14773      9     0.00   1.25520   3 ;   C110-   C19-   C18-   C17
 14765  14764  14767  14768      9     0.00   0.62760   3 ;   H10R-  C110-   C19-   H9R
 14765  14764  14767  14769      9     0.00   0.62760   3 ;   H10R-  C110-   C19-   H9S
 14765  14764  14767  14770      9     0.00   0.66944   3 ;   H10R-  C110-   C19-   C18
 14766  14764  14767  14768      9     0.00   0.62760   3 ;   H10S-  C110-   C19-   H9R
 14766  14764  14767  14769      9     0.00   0.62760   3 ;   H10S-  C110-   C19-   H9S
 14766  14764  14767  14770      9     0.00   0.66944   3 ;   H10S-  C110-   C19-   C18
 14767  14770  14773  14774      9     0.00   0.66944   3 ;    C19-   C18-   C17-   H7R
 14767  14770  14773  14775      9     0.00   0.66944   3 ;    C19-   C18-   C17-   H7S
 14767  14770  14773  14776      9     0.00   0.41840   1 ;    C19-   C18-   C17-   C16
 14767  14770  14773  14776      9     0.00   0.41840   2 ;    C19-   C18-   C17-   C16
 14767  14770  14773  14776      9     0.00   0.41840   4 ;    C19-   C18-   C17-   C16
 14767  14770  14773  14776      9     0.00   0.41840   5 ;    C19-   C18-   C17-   C16
 14767  14770  14773  14776      9     0.00   1.25520   3 ;    C19-   C18-   C17-   C16
 14768  14767  14770  14771      9     0.00   0.62760   3 ;    H9R-   C19-   C18-   H8R
 14768  14767  14770  14772      9     0.00   0.62760   3 ;    H9R-   C19-   C18-   H8S
 14768  14767  14770  14773      9     0.00   0.66944   3 ;    H9R-   C19-   C18-   C17
 14769  14767  14770  14771      9     0.00   0.62760   3 ;    H9S-   C19-   C18-   H8R
 14769  14767  14770  14772      9     0.00   0.62760   3 ;    H9S-   C19-   C18-   H8S
 14769  14767  14770  14773      9     0.00   0.66944   3 ;    H9S-   C19-   C18-   C17
 14770  14773  14776  14777      9     0.00   0.66944   3 ;    C18-   C17-   C16-   H6R
 14770  14773  14776  14778      9     0.00   0.66944   3 ;    C18-   C17-   C16-   H6S
 14770  14773  14776  14779      9     0.00   0.41840   1 ;    C18-   C17-   C16-   C15
 14770  14773  14776  14779      9     0.00   0.41840   2 ;    C18-   C17-   C16-   C15
 14770  14773  14776  14779      9     0.00   0.41840   4 ;    C18-   C17-   C16-   C15
 14770  14773  14776  14779      9     0.00   0.41840   5 ;    C18-   C17-   C16-   C15
 14770  14773  14776  14779      9     0.00   1.25520   3 ;    C18-   C17-   C16-   C15
 14771  14770  14773  14774      9     0.00   0.62760   3 ;    H8R-   C18-   C17-   H7R
 14771  14770  14773  14775      9     0.00   0.62760   3 ;    H8R-   C18-   C17-   H7S
 14771  14770  14773  14776      9     0.00   0.66944   3 ;    H8R-   C18-   C17-   C16
 14772  14770  14773  14774      9     0.00   0.62760   3 ;    H8S-   C18-   C17-   H7R
 14772  14770  14773  14775      9     0.00   0.62760   3 ;    H8S-   C18-   C17-   H7S
 14772  14770  14773  14776      9     0.00   0.66944   3 ;    H8S-   C18-   C17-   C16
 14773  14776  14779  14780      9     0.00   0.66944   3 ;    C17-   C16-   C15-   H5R
 14773  14776  14779  14781      9     0.00   0.66944   3 ;    C17-   C16-   C15-   H5S
 14773  14776  14779  14782      9     0.00   0.41840   1 ;    C17-   C16-   C15-   C14
 14773  14776  14779  14782      9     0.00   0.41840   2 ;    C17-   C16-   C15-   C14
 14773  14776  14779  14782      9     0.00   0.41840   4 ;    C17-   C16-   C15-   C14
 14773  14776  14779  14782      9     0.00   0.41840   5 ;    C17-   C16-   C15-   C14
 14773  14776  14779  14782      9     0.00   1.25520   3 ;    C17-   C16-   C15-   C14
 14774  14773  14776  14777      9     0.00   0.62760   3 ;    H7R-   C17-   C16-   H6R
 14774  14773  14776  14778      9     0.00   0.62760   3 ;    H7R-   C17-   C16-   H6S
 14774  14773  14776  14779      9     0.00   0.66944   3 ;    H7R-   C17-   C16-   C15
 14775  14773  14776  14777      9     0.00   0.62760   3 ;    H7S-   C17-   C16-   H6R
 14775  14773  14776  14778      9     0.00   0.62760   3 ;    H7S-   C17-   C16-   H6S
 14775  14773  14776  14779      9     0.00   0.66944   3 ;    H7S-   C17-   C16-   C15
 14776  14779  14782  14783      9     0.00   0.66944   3 ;    C16-   C15-   C14-   H4R
 14776  14779  14782  14784      9     0.00   0.66944   3 ;    C16-   C15-   C14-   H4S
 14776  14779  14782  14785      9     0.00   0.41840   1 ;    C16-   C15-   C14-   C13
 14776  14779  14782  14785      9     0.00   0.41840   2 ;    C16-   C15-   C14-   C13
 14776  14779  14782  14785      9     0.00   0.41840   4 ;    C16-   C15-   C14-   C13
 14776  14779  14782  14785      9     0.00   0.41840   5 ;    C16-   C15-   C14-   C13
 14776  14779  14782  14785      9     0.00   1.25520   3 ;    C16-   C15-   C14-   C13
 14777  14776  14779  14780      9     0.00   0.62760   3 ;    H6R-   C16-   C15-   H5R
 14777  14776  14779  14781      9     0.00   0.62760   3 ;    H6R-   C16-   C15-   H5S
 14777  14776  14779  14782      9     0.00   0.66944   3 ;    H6R-   C16-   C15-   C14
 14778  14776  14779  14780      9     0.00   0.62760   3 ;    H6S-   C16-   C15-   H5R
 14778  14776  14779  14781      9     0.00   0.62760   3 ;    H6S-   C16-   C15-   H5S
 14778  14776  14779  14782      9     0.00   0.66944   3 ;    H6S-   C16-   C15-   C14
 14779  14782  14785  14786      9     0.00   0.66944   3 ;    C15-   C14-   C13-   H3R
 14779  14782  14785  14787      9     0.00   0.66944   3 ;    C15-   C14-   C13-   H3S
 14779  14782  14785  14788      9     0.00   0.41840   1 ;    C15-   C14-   C13-   C12
 14779  14782  14785  14788      9     0.00   0.41840   2 ;    C15-   C14-   C13-   C12
 14779  14782  14785  14788      9     0.00   0.41840   4 ;    C15-   C14-   C13-   C12
 14779  14782  14785  14788      9     0.00   0.41840   5 ;    C15-   C14-   C13-   C12
 14779  14782  14785  14788      9     0.00   1.25520   3 ;    C15-   C14-   C13-   C12
 14780  14779  14782  14783      9     0.00   0.62760   3 ;    H5R-   C15-   C14-   H4R
 14780  14779  14782  14784      9     0.00   0.62760   3 ;    H5R-   C15-   C14-   H4S
 14780  14779  14782  14785      9     0.00   0.66944   3 ;    H5R-   C15-   C14-   C13
 14781  14779  14782  14783      9     0.00   0.62760   3 ;    H5S-   C15-   C14-   H4R
 14781  14779  14782  14784      9     0.00   0.62760   3 ;    H5S-   C15-   C14-   H4S
 14781  14779  14782  14785      9     0.00   0.66944   3 ;    H5S-   C15-   C14-   C13
 14782  14785  14788  14789      9     0.00   0.66944   3 ;    C14-   C13-   C12-   H2R
 14782  14785  14788  14790      9     0.00   0.66944   3 ;    C14-   C13-   C12-   H2S
 14782  14785  14788  14791      9     0.00   0.65270   3 ;    C14-   C13-   C12-   C11
 14783  14782  14785  14786      9     0.00   0.62760   3 ;    H4R-   C14-   C13-   H3R
 14783  14782  14785  14787      9     0.00   0.62760   3 ;    H4R-   C14-   C13-   H3S
 14783  14782  14785  14788      9     0.00   0.66944   3 ;    H4R-   C14-   C13-   C12
 14784  14782  14785  14786      9     0.00   0.62760   3 ;    H4S-   C14-   C13-   H3R
 14784  14782  14785  14787      9     0.00   0.62760   3 ;    H4S-   C14-   C13-   H3S
 14784  14782  14785  14788      9     0.00   0.66944   3 ;    H4S-   C14-   C13-   C12
 14785  14788  14791  14792      9   180.00   0.00000   2 ;    C13-   C12-   C11-   O12
 14785  14788  14791  14793      9   180.00   0.00000   2 ;    C13-   C12-   C11-   O11
 14786  14785  14788  14789      9     0.00   0.62760   3 ;    H3R-   C13-   C12-   H2R
 14786  14785  14788  14790      9     0.00   0.62760   3 ;    H3R-   C13-   C12-   H2S
 14786  14785  14788  14791      9     0.00   0.65270   3 ;    H3R-   C13-   C12-   C11
 14787  14785  14788  14789      9     0.00   0.62760   3 ;    H3S-   C13-   C12-   H2R
 14787  14785  14788  14790      9     0.00   0.62760   3 ;    H3S-   C13-   C12-   H2S
 14787  14785  14788  14791      9     0.00   0.65270   3 ;    H3S-   C13-   C12-   C11
 14788  14791  14793  14794      9   180.00  11.29680   2 ;    C12-   C11-   O11-    C1
 14789  14788  14791  14792      9     0.00   3.34720   1 ;    H2R-   C12-   C11-   O12
 14789  14788  14791  14792      9   180.00   0.33472   3 ;    H2R-   C12-   C11-   O12
 14789  14788  14791  14793      9   180.00   0.00000   2 ;    H2R-   C12-   C11-   O11
 14790  14788  14791  14792      9     0.00   3.34720   1 ;    H2S-   C12-   C11-   O12
 14790  14788  14791  14792      9   180.00   0.33472   3 ;    H2S-   C12-   C11-   O12
 14790  14788  14791  14793      9   180.00   0.00000   2 ;    H2S-   C12-   C11-   O11
 14791  14793  14794  14795      9     0.00   1.60247   3 ;    C11-   O11-    C1-    HR
 14791  14793  14794  14796      9     0.00   1.60247   3 ;    C11-   O11-    C1-    HS
 14791  14793  14794  14797      9     0.00  -0.41840   1 ;    C11-   O11-    C1-    C2
 14792  14791  14793  14794      9   180.00   5.85760   1 ;    O12-   C11-   O11-    C1
 14792  14791  14793  14794      9   180.00  11.29680   2 ;    O12-   C11-   O11-    C1
 14793  14794  14797  14798      9     0.00   0.00000   0 ;    O11-    C1-    C2-    HX
 14793  14794  14797  14798      9     0.00   1.04600   1 ;    O11-    C1-    C2-    HX
 14793  14794  14797  14799      9     0.00   0.00000   0 ;    O11-    C1-    C2-    C3
 14793  14794  14797  14799      9     0.00   0.00000   0 ;    O11-    C1-    C2-    C3
 14793  14794  14797  14799      9     0.00   0.00000   0 ;    O11-    C1-    C2-    C3
 14793  14794  14797  14799      9     0.00   0.00000   0 ;    O11-    C1-    C2-    C3
 14793  14794  14797  14799      9     0.00   0.00000   0 ;    O11-    C1-    C2-    C3
 14793  14794  14797  14826      9     0.00   1.25520   2 ;    O11-    C1-    C2-   O21
 14793  14794  14797  14826      9     0.00   4.18400   3 ;    O11-    C1-    C2-   O21
 14793  14794  14797  14826      9   180.00  -0.41840   1 ;    O11-    C1-    C2-   O21
 14794  14797  14799  14800      9     0.00   0.65270   3 ;     C1-    C2-    C3-    HA
 14794  14797  14799  14801      9     0.00   0.65270   3 ;     C1-    C2-    C3-    HB
 14794  14797  14799  14802      9   180.00   3.34720   1 ;     C1-    C2-    C3-   O31
 14794  14797  14826  14827      9     0.00  -0.41840   1 ;     C1-    C2-   O21-   C21
 14795  14794  14797  14798      9     0.00   0.65270   3 ;     HR-    C1-    C2-    HX
 14795  14794  14797  14799      9     0.00   0.65270   3 ;     HR-    C1-    C2-    C3
 14795  14794  14797  14826      9     0.00   0.00000   0 ;     HR-    C1-    C2-   O21
 14795  14794  14797  14826      9     0.00   1.04600   1 ;     HR-    C1-    C2-   O21
 14796  14794  14797  14798      9     0.00   0.65270   3 ;     HS-    C1-    C2-    HX
 14796  14794  14797  14799      9     0.00   0.65270   3 ;     HS-    C1-    C2-    C3
 14796  14794  14797  14826      9     0.00   0.00000   0 ;     HS-    C1-    C2-   O21
 14796  14794  14797  14826      9     0.00   1.04600   1 ;     HS-    C1-    C2-   O21
 14797  14799  14802  14803      9     0.00   0.00000   0 ;     C2-    C3-   O31-   P31
 14797  14799  14802  14803      9   180.00  -3.34720   2 ;     C2-    C3-   O31-   P31
 14797  14826  14827  14828      9   180.00   5.85760   1 ;     C2-   O21-   C21-   O22
 14797  14826  14827  14828      9   180.00  11.29680   2 ;     C2-   O21-   C21-   O22
 14797  14826  14827  14866      9   180.00  11.29680   2 ;     C2-   O21-   C21-   C12
 14798  14797  14799  14800      9     0.00   0.65270   3 ;     HX-    C2-    C3-    HA
 14798  14797  14799  14801      9     0.00   0.65270   3 ;     HX-    C2-    C3-    HB
 14798  14797  14799  14802      9     0.00   0.00000   0 ;     HX-    C2-    C3-   O31
 14798  14797  14799  14802      9     0.00   1.04600   1 ;     HX-    C2-    C3-   O31
 14798  14797  14826  14827      9     0.00   1.60247   3 ;     HX-    C2-   O21-   C21
 14799  14797  14826  14827      9     0.00  -0.41840   1 ;     C3-    C2-   O21-   C21
 14799  14802  14803  14804      9     0.00   2.51040   3 ;     C3-   O31-   P31-   O32
 14799  14802  14803  14804      9     0.00   9.62320   2 ;     C3-   O31-   P31-   O32
 14799  14802  14803  14824      9     0.00   0.00000   0 ;     C3-   O31-   P31-   O33
 14799  14802  14803  14824      9     0.00   0.00000   0 ;     C3-   O31-   P31-   O33
 14799  14802  14803  14824      9     0.00   0.00000   0 ;     C3-   O31-   P31-   O33
 14799  14802  14803  14824      9     0.00   0.00000   0 ;     C3-   O31-   P31-   O33
 14799  14802  14803  14824      9     0.00   0.83680   2 ;     C3-   O31-   P31-   O33
 14799  14802  14803  14825      9     0.00   0.00000   0 ;     C3-   O31-   P31-   O34
 14799  14802  14803  14825      9     0.00   0.00000   0 ;     C3-   O31-   P31-   O34
 14799  14802  14803  14825      9     0.00   0.00000   0 ;     C3-   O31-   P31-   O34
 14799  14802  14803  14825      9     0.00   0.00000   0 ;     C3-   O31-   P31-   O34
 14799  14802  14803  14825      9     0.00   0.83680   2 ;     C3-   O31-   P31-   O34
 14800  14799  14797  14826      9     0.00   0.00000   0 ;     HA-    C3-    C2-   O21
 14800  14799  14797  14826      9     0.00   1.04600   1 ;     HA-    C3-    C2-   O21
 14800  14799  14802  14803      9     0.00   0.00000   0 ;     HA-    C3-   O31-   P31
 14800  14799  14802  14803      9     0.00   0.00000   0 ;     HA-    C3-   O31-   P31
 14800  14799  14802  14803      9     0.00   0.00000   0 ;     HA-    C3-   O31-   P31
 14800  14799  14802  14803      9     0.00   0.00000   0 ;     HA-    C3-   O31-   P31
 14800  14799  14802  14803      9     0.00   1.60247   3 ;     HA-    C3-   O31-   P31
 14801  14799  14797  14826      9     0.00   0.00000   0 ;     HB-    C3-    C2-   O21
 14801  14799  14797  14826      9     0.00   1.04600   1 ;     HB-    C3-    C2-   O21
 14801  14799  14802  14803      9     0.00   0.00000   0 ;     HB-    C3-   O31-   P31
 14801  14799  14802  14803      9     0.00   0.00000   0 ;     HB-    C3-   O31-   P31
 14801  14799  14802  14803      9     0.00   0.00000   0 ;     HB-    C3-   O31-   P31
 14801  14799  14802  14803      9     0.00   0.00000   0 ;     HB-    C3-   O31-   P31
 14801  14799  14802  14803      9     0.00   1.60247   3 ;     HB-    C3-   O31-   P31
 14802  14799  14797  14826      9     0.00   0.00000   0 ;    O31-    C3-    C2-   O21
 14802  14799  14797  14826      9     0.00   0.00000   0 ;    O31-    C3-    C2-   O21
 14802  14799  14797  14826      9     0.00   0.00000   0 ;    O31-    C3-    C2-   O21
 14802  14799  14797  14826      9     0.00   0.00000   0 ;    O31-    C3-    C2-   O21
 14802  14799  14797  14826      9     0.00   0.00000   0 ;    O31-    C3-    C2-   O21
 14802  14803  14804  14805      9     0.00   2.51040   3 ;    O31-   P31-   O32-   C31
 14802  14803  14804  14805      9     0.00   9.62320   2 ;    O31-   P31-   O32-   C31
 14803  14804  14805  14806      9     0.00   0.00000   0 ;    P31-   O32-   C31-   H1A
 14803  14804  14805  14806      9     0.00   0.00000   0 ;    P31-   O32-   C31-   H1A
 14803  14804  14805  14806      9     0.00   0.00000   0 ;    P31-   O32-   C31-   H1A
 14803  14804  14805  14806      9     0.00   0.00000   0 ;    P31-   O32-   C31-   H1A
 14803  14804  14805  14806      9     0.00   1.60247   3 ;    P31-   O32-   C31-   H1A
 14803  14804  14805  14807      9     0.00   0.00000   0 ;    P31-   O32-   C31-   H1B
 14803  14804  14805  14807      9     0.00   0.00000   0 ;    P31-   O32-   C31-   H1B
 14803  14804  14805  14807      9     0.00   0.00000   0 ;    P31-   O32-   C31-   H1B
 14803  14804  14805  14807      9     0.00   0.00000   0 ;    P31-   O32-   C31-   H1B
 14803  14804  14805  14807      9     0.00   1.60247   3 ;    P31-   O32-   C31-   H1B
 14803  14804  14805  14808      9     0.00   0.00000   0 ;    P31-   O32-   C31-   C32
 14803  14804  14805  14808      9   180.00  -3.34720   2 ;    P31-   O32-   C31-   C32
 14804  14805  14808  14809      9     0.00   0.65270   3 ;    O32-   C31-   C32-   H2A
 14804  14805  14808  14810      9     0.00   0.65270   3 ;    O32-   C31-   C32-   H2B
 14804  14805  14808  14811      9     0.00   4.18400   3 ;    O32-   C31-   C32-   N31
 14805  14804  14803  14824      9     0.00   0.00000   0 ;    C31-   O32-   P31-   O33
 14805  14804  14803  14824      9     0.00   0.00000   0 ;    C31-   O32-   P31-   O33
 14805  14804  14803  14824      9     0.00   0.00000   0 ;    C31-   O32-   P31-   O33
 14805  14804  14803  14824      9     0.00   0.00000   0 ;    C31-   O32-   P31-   O33
 14805  14804  14803  14824      9     0.00   0.83680   2 ;    C31-   O32-   P31-   O33
 14805  14804  14803  14825      9     0.00   0.00000   0 ;    C31-   O32-   P31-   O34
 14805  14804  14803  14825      9     0.00   0.00000   0 ;    C31-   O32-   P31-   O34
 14805  14804  14803  14825      9     0.00   0.00000   0 ;    C31-   O32-   P31-   O34
 14805  14804  14803  14825      9     0.00   0.00000   0 ;    C31-   O32-   P31-   O34
 14805  14804  14803  14825      9     0.00   0.83680   2 ;    C31-   O32-   P31-   O34
 14805  14808  14811  14812      9     0.00   0.65270   3 ;    C31-   C32-   N31-   C33
 14805  14808  14811  14816      9     0.00   0.65270   3 ;    C31-   C32-   N31-   C34
 14805  14808  14811  14820      9     0.00   0.65270   3 ;    C31-   C32-   N31-   C35
 14806  14805  14808  14809      9     0.00   0.65270   3 ;    H1A-   C31-   C32-   H2A
 14806  14805  14808  14810      9     0.00   0.65270   3 ;    H1A-   C31-   C32-   H2B
 14806  14805  14808  14811      9     0.00   0.65270   3 ;    H1A-   C31-   C32-   N31
 14807  14805  14808  14809      9     0.00   0.65270   3 ;    H1B-   C31-   C32-   H2A
 14807  14805  14808  14810      9     0.00   0.65270   3 ;    H1B-   C31-   C32-   H2B
 14807  14805  14808  14811      9     0.00   0.65270   3 ;    H1B-   C31-   C32-   N31
 14808  14811  14812  14813      9     0.00   0.65270   3 ;    C32-   N31-   C33-   H3A
 14808  14811  14812  14814      9     0.00   0.65270   3 ;    C32-   N31-   C33-   H3B
 14808  14811  14812  14815      9     0.00   0.65270   3 ;    C32-   N31-   C33-   H3C
 14808  14811  14816  14817      9     0.00   0.65270   3 ;    C32-   N31-   C34-   H4A
 14808  14811  14816  14818      9     0.00   0.65270   3 ;    C32-   N31-   C34-   H4B
 14808  14811  14816  14819      9     0.00   0.65270   3 ;    C32-   N31-   C34-   H4C
 14808  14811  14820  14821      9     0.00   0.65270   3 ;    C32-   N31-   C35-   H5A
 14808  14811  14820  14822      9     0.00   0.65270   3 ;    C32-   N31-   C35-   H5B
 14808  14811  14820  14823      9     0.00   0.65270   3 ;    C32-   N31-   C35-   H5C
 14809  14808  14811  14812      9     0.00   0.65270   3 ;    H2A-   C32-   N31-   C33
 14809  14808  14811  14816      9     0.00   0.65270   3 ;    H2A-   C32-   N31-   C34
 14809  14808  14811  14820      9     0.00   0.65270   3 ;    H2A-   C32-   N31-   C35
 14810  14808  14811  14812      9     0.00   0.65270   3 ;    H2B-   C32-   N31-   C33
 14810  14808  14811  14816      9     0.00   0.65270   3 ;    H2B-   C32-   N31-   C34
 14810  14808  14811  14820      9     0.00   0.65270   3 ;    H2B-   C32-   N31-   C35
 14812  14811  14816  14817      9     0.00   0.65270   3 ;    C33-   N31-   C34-   H4A
 14812  14811  14816  14818      9     0.00   0.65270   3 ;    C33-   N31-   C34-   H4B
 14812  14811  14816  14819      9     0.00   0.65270   3 ;    C33-   N31-   C34-   H4C
 14812  14811  14820  14821      9     0.00   0.65270   3 ;    C33-   N31-   C35-   H5A
 14812  14811  14820  14822      9     0.00   0.65270   3 ;    C33-   N31-   C35-   H5B
 14812  14811  14820  14823      9     0.00   0.65270   3 ;    C33-   N31-   C35-   H5C
 14813  14812  14811  14816      9     0.00   0.65270   3 ;    H3A-   C33-   N31-   C34
 14813  14812  14811  14820      9     0.00   0.65270   3 ;    H3A-   C33-   N31-   C35
 14814  14812  14811  14816      9     0.00   0.65270   3 ;    H3B-   C33-   N31-   C34
 14814  14812  14811  14820      9     0.00   0.65270   3 ;    H3B-   C33-   N31-   C35
 14815  14812  14811  14816      9     0.00   0.65270   3 ;    H3C-   C33-   N31-   C34
 14815  14812  14811  14820      9     0.00   0.65270   3 ;    H3C-   C33-   N31-   C35
 14816  14811  14820  14821      9     0.00   0.65270   3 ;    C34-   N31-   C35-   H5A
 14816  14811  14820  14822      9     0.00   0.65270   3 ;    C34-   N31-   C35-   H5B
 14816  14811  14820  14823      9     0.00   0.65270   3 ;    C34-   N31-   C35-   H5C
 14817  14816  14811  14820      9     0.00   0.65270   3 ;    H4A-   C34-   N31-   C35
 14818  14816  14811  14820      9     0.00   0.65270   3 ;    H4B-   C34-   N31-   C35
 14819  14816  14811  14820      9     0.00   0.65270   3 ;    H4C-   C34-   N31-   C35
 14826  14827  14866  14863      9   180.00   0.00000   2 ;    O21-   C21-   C12-   C13
 14826  14827  14866  14867      9   180.00   0.00000   2 ;    O21-   C21-   C12-   H2R
 14826  14827  14866  14868      9   180.00   0.00000   2 ;    O21-   C21-   C12-   H2S
 14827  14866  14863  14860      9     0.00   0.65270   3 ;    C21-   C12-   C13-   C14
 14827  14866  14863  14864      9     0.00   0.65270   3 ;    C21-   C12-   C13-   H3R
 14827  14866  14863  14865      9     0.00   0.65270   3 ;    C21-   C12-   C13-   H3S
 14828  14827  14866  14863      9   180.00   0.00000   2 ;    O22-   C21-   C12-   C13
 14828  14827  14866  14867      9     0.00   3.34720   1 ;    O22-   C21-   C12-   H2R
 14828  14827  14866  14867      9   180.00   0.33472   3 ;    O22-   C21-   C12-   H2R
 14828  14827  14866  14868      9     0.00   3.34720   1 ;    O22-   C21-   C12-   H2S
 14828  14827  14866  14868      9   180.00   0.33472   3 ;    O22-   C21-   C12-   H2S
 14829  14830  14833  14834      9     0.00   0.62760   3 ;   H14T-  C114-  C113-  H13R
 14829  14830  14833  14835      9     0.00   0.62760   3 ;   H14T-  C114-  C113-  H13S
 14829  14830  14833  14836      9     0.00   0.66944   3 ;   H14T-  C114-  C113-  C112
 14830  14833  14836  14837      9     0.00   0.66944   3 ;   C114-  C113-  C112-  H12R
 14830  14833  14836  14838      9     0.00   0.66944   3 ;   C114-  C113-  C112-  H12S
 14830  14833  14836  14839      9     0.00   0.41840   1 ;   C114-  C113-  C112-  C111
 14830  14833  14836  14839      9     0.00   0.41840   2 ;   C114-  C113-  C112-  C111
 14830  14833  14836  14839      9     0.00   0.41840   4 ;   C114-  C113-  C112-  C111
 14830  14833  14836  14839      9     0.00   0.41840   5 ;   C114-  C113-  C112-  C111
 14830  14833  14836  14839      9     0.00   1.25520   3 ;   C114-  C113-  C112-  C111
 14831  14830  14833  14834      9     0.00   0.62760   3 ;   H14R-  C114-  C113-  H13R
 14831  14830  14833  14835      9     0.00   0.62760   3 ;   H14R-  C114-  C113-  H13S
 14831  14830  14833  14836      9     0.00   0.66944   3 ;   H14R-  C114-  C113-  C112
 14832  14830  14833  14834      9     0.00   0.62760   3 ;   H14S-  C114-  C113-  H13R
 14832  14830  14833  14835      9     0.00   0.62760   3 ;   H14S-  C114-  C113-  H13S
 14832  14830  14833  14836      9     0.00   0.66944   3 ;   H14S-  C114-  C113-  C112
 14833  14836  14839  14840      9     0.00   0.66944   3 ;   C113-  C112-  C111-  H11R
 14833  14836  14839  14841      9     0.00   0.66944   3 ;   C113-  C112-  C111-  H11S
 14833  14836  14839  14842      9     0.00   0.41840   1 ;   C113-  C112-  C111-  C110
 14833  14836  14839  14842      9     0.00   0.41840   2 ;   C113-  C112-  C111-  C110
 14833  14836  14839  14842      9     0.00   0.41840   4 ;   C113-  C112-  C111-  C110
 14833  14836  14839  14842      9     0.00   0.41840   5 ;   C113-  C112-  C111-  C110
 14833  14836  14839  14842      9     0.00   1.25520   3 ;   C113-  C112-  C111-  C110
 14834  14833  14836  14837      9     0.00   0.62760   3 ;   H13R-  C113-  C112-  H12R
 14834  14833  14836  14838      9     0.00   0.62760   3 ;   H13R-  C113-  C112-  H12S
 14834  14833  14836  14839      9     0.00   0.66944   3 ;   H13R-  C113-  C112-  C111
 14835  14833  14836  14837      9     0.00   0.62760   3 ;   H13S-  C113-  C112-  H12R
 14835  14833  14836  14838      9     0.00   0.62760   3 ;   H13S-  C113-  C112-  H12S
 14835  14833  14836  14839      9     0.00   0.66944   3 ;   H13S-  C113-  C112-  C111
 14836  14839  14842  14843      9     0.00   0.66944   3 ;   C112-  C111-  C110-  H10R
 14836  14839  14842  14844      9     0.00   0.66944   3 ;   C112-  C111-  C110-  H10S
 14836  14839  14842  14845      9     0.00   0.41840   1 ;   C112-  C111-  C110-   C19
 14836  14839  14842  14845      9     0.00   0.41840   2 ;   C112-  C111-  C110-   C19
 14836  14839  14842  14845      9     0.00   0.41840   4 ;   C112-  C111-  C110-   C19
 14836  14839  14842  14845      9     0.00   0.41840   5 ;   C112-  C111-  C110-   C19
 14836  14839  14842  14845      9     0.00   1.25520   3 ;   C112-  C111-  C110-   C19
 14837  14836  14839  14840      9     0.00   0.62760   3 ;   H12R-  C112-  C111-  H11R
 14837  14836  14839  14841      9     0.00   0.62760   3 ;   H12R-  C112-  C111-  H11S
 14837  14836  14839  14842      9     0.00   0.66944   3 ;   H12R-  C112-  C111-  C110
 14838  14836  14839  14840      9     0.00   0.62760   3 ;   H12S-  C112-  C111-  H11R
 14838  14836  14839  14841      9     0.00   0.62760   3 ;   H12S-  C112-  C111-  H11S
 14838  14836  14839  14842      9     0.00   0.66944   3 ;   H12S-  C112-  C111-  C110
 14839  14842  14845  14846      9     0.00   0.66944   3 ;   C111-  C110-   C19-   H9R
 14839  14842  14845  14847      9     0.00   0.66944   3 ;   C111-  C110-   C19-   H9S
 14839  14842  14845  14848      9     0.00   0.41840   1 ;   C111-  C110-   C19-   C18
 14839  14842  14845  14848      9     0.00   0.41840   2 ;   C111-  C110-   C19-   C18
 14839  14842  14845  14848      9     0.00   0.41840   4 ;   C111-  C110-   C19-   C18
 14839  14842  14845  14848      9     0.00   0.41840   5 ;   C111-  C110-   C19-   C18
 14839  14842  14845  14848      9     0.00   1.25520   3 ;   C111-  C110-   C19-   C18
 14840  14839  14842  14843      9     0.00   0.62760   3 ;   H11R-  C111-  C110-  H10R
 14840  14839  14842  14844      9     0.00   0.62760   3 ;   H11R-  C111-  C110-  H10S
 14840  14839  14842  14845      9     0.00   0.66944   3 ;   H11R-  C111-  C110-   C19
 14841  14839  14842  14843      9     0.00   0.62760   3 ;   H11S-  C111-  C110-  H10R
 14841  14839  14842  14844      9     0.00   0.62760   3 ;   H11S-  C111-  C110-  H10S
 14841  14839  14842  14845      9     0.00   0.66944   3 ;   H11S-  C111-  C110-   C19
 14842  14845  14848  14849      9     0.00   0.66944   3 ;   C110-   C19-   C18-   H8R
 14842  14845  14848  14850      9     0.00   0.66944   3 ;   C110-   C19-   C18-   H8S
 14842  14845  14848  14851      9     0.00   0.41840   1 ;   C110-   C19-   C18-   C17
 14842  14845  14848  14851      9     0.00   0.41840   2 ;   C110-   C19-   C18-   C17
 14842  14845  14848  14851      9     0.00   0.41840   4 ;   C110-   C19-   C18-   C17
 14842  14845  14848  14851      9     0.00   0.41840   5 ;   C110-   C19-   C18-   C17
 14842  14845  14848  14851      9     0.00   1.25520   3 ;   C110-   C19-   C18-   C17
 14843  14842  14845  14846      9     0.00   0.62760   3 ;   H10R-  C110-   C19-   H9R
 14843  14842  14845  14847      9     0.00   0.62760   3 ;   H10R-  C110-   C19-   H9S
 14843  14842  14845  14848      9     0.00   0.66944   3 ;   H10R-  C110-   C19-   C18
 14844  14842  14845  14846      9     0.00   0.62760   3 ;   H10S-  C110-   C19-   H9R
 14844  14842  14845  14847      9     0.00   0.62760   3 ;   H10S-  C110-   C19-   H9S
 14844  14842  14845  14848      9     0.00   0.66944   3 ;   H10S-  C110-   C19-   C18
 14845  14848  14851  14852      9     0.00   0.66944   3 ;    C19-   C18-   C17-   H7R
 14845  14848  14851  14853      9     0.00   0.66944   3 ;    C19-   C18-   C17-   H7S
 14845  14848  14851  14854      9     0.00   0.41840   1 ;    C19-   C18-   C17-   C16
 14845  14848  14851  14854      9     0.00   0.41840   2 ;    C19-   C18-   C17-   C16
 14845  14848  14851  14854      9     0.00   0.41840   4 ;    C19-   C18-   C17-   C16
 14845  14848  14851  14854      9     0.00   0.41840   5 ;    C19-   C18-   C17-   C16
 14845  14848  14851  14854      9     0.00   1.25520   3 ;    C19-   C18-   C17-   C16
 14846  14845  14848  14849      9     0.00   0.62760   3 ;    H9R-   C19-   C18-   H8R
 14846  14845  14848  14850      9     0.00   0.62760   3 ;    H9R-   C19-   C18-   H8S
 14846  14845  14848  14851      9     0.00   0.66944   3 ;    H9R-   C19-   C18-   C17
 14847  14845  14848  14849      9     0.00   0.62760   3 ;    H9S-   C19-   C18-   H8R
 14847  14845  14848  14850      9     0.00   0.62760   3 ;    H9S-   C19-   C18-   H8S
 14847  14845  14848  14851      9     0.00   0.66944   3 ;    H9S-   C19-   C18-   C17
 14848  14851  14854  14855      9     0.00   0.66944   3 ;    C18-   C17-   C16-   H6R
 14848  14851  14854  14856      9     0.00   0.66944   3 ;    C18-   C17-   C16-   H6S
 14848  14851  14854  14857      9     0.00   0.41840   1 ;    C18-   C17-   C16-   C15
 14848  14851  14854  14857      9     0.00   0.41840   2 ;    C18-   C17-   C16-   C15
 14848  14851  14854  14857      9     0.00   0.41840   4 ;    C18-   C17-   C16-   C15
 14848  14851  14854  14857      9     0.00   0.41840   5 ;    C18-   C17-   C16-   C15
 14848  14851  14854  14857      9     0.00   1.25520   3 ;    C18-   C17-   C16-   C15
 14849  14848  14851  14852      9     0.00   0.62760   3 ;    H8R-   C18-   C17-   H7R
 14849  14848  14851  14853      9     0.00   0.62760   3 ;    H8R-   C18-   C17-   H7S
 14849  14848  14851  14854      9     0.00   0.66944   3 ;    H8R-   C18-   C17-   C16
 14850  14848  14851  14852      9     0.00   0.62760   3 ;    H8S-   C18-   C17-   H7R
 14850  14848  14851  14853      9     0.00   0.62760   3 ;    H8S-   C18-   C17-   H7S
 14850  14848  14851  14854      9     0.00   0.66944   3 ;    H8S-   C18-   C17-   C16
 14851  14854  14857  14858      9     0.00   0.66944   3 ;    C17-   C16-   C15-   H5R
 14851  14854  14857  14859      9     0.00   0.66944   3 ;    C17-   C16-   C15-   H5S
 14851  14854  14857  14860      9     0.00   0.41840   1 ;    C17-   C16-   C15-   C14
 14851  14854  14857  14860      9     0.00   0.41840   2 ;    C17-   C16-   C15-   C14
 14851  14854  14857  14860      9     0.00   0.41840   4 ;    C17-   C16-   C15-   C14
 14851  14854  14857  14860      9     0.00   0.41840   5 ;    C17-   C16-   C15-   C14
 14851  14854  14857  14860      9     0.00   1.25520   3 ;    C17-   C16-   C15-   C14
 14852  14851  14854  14855      9     0.00   0.62760   3 ;    H7R-   C17-   C16-   H6R
 14852  14851  14854  14856      9     0.00   0.62760   3 ;    H7R-   C17-   C16-   H6S
 14852  14851  14854  14857      9     0.00   0.66944   3 ;    H7R-   C17-   C16-   C15
 14853  14851  14854  14855      9     0.00   0.62760   3 ;    H7S-   C17-   C16-   H6R
 14853  14851  14854  14856      9     0.00   0.62760   3 ;    H7S-   C17-   C16-   H6S
 14853  14851  14854  14857      9     0.00   0.66944   3 ;    H7S-   C17-   C16-   C15
 14854  14857  14860  14861      9     0.00   0.66944   3 ;    C16-   C15-   C14-   H4R
 14854  14857  14860  14862      9     0.00   0.66944   3 ;    C16-   C15-   C14-   H4S
 14854  14857  14860  14863      9     0.00   0.41840   1 ;    C16-   C15-   C14-   C13
 14854  14857  14860  14863      9     0.00   0.41840   2 ;    C16-   C15-   C14-   C13
 14854  14857  14860  14863      9     0.00   0.41840   4 ;    C16-   C15-   C14-   C13
 14854  14857  14860  14863      9     0.00   0.41840   5 ;    C16-   C15-   C14-   C13
 14854  14857  14860  14863      9     0.00   1.25520   3 ;    C16-   C15-   C14-   C13
 14855  14854  14857  14858      9     0.00   0.62760   3 ;    H6R-   C16-   C15-   H5R
 14855  14854  14857  14859      9     0.00   0.62760   3 ;    H6R-   C16-   C15-   H5S
 14855  14854  14857  14860      9     0.00   0.66944   3 ;    H6R-   C16-   C15-   C14
 14856  14854  14857  14858      9     0.00   0.62760   3 ;    H6S-   C16-   C15-   H5R
 14856  14854  14857  14859      9     0.00   0.62760   3 ;    H6S-   C16-   C15-   H5S
 14856  14854  14857  14860      9     0.00   0.66944   3 ;    H6S-   C16-   C15-   C14
 14857  14860  14863  14864      9     0.00   0.66944   3 ;    C15-   C14-   C13-   H3R
 14857  14860  14863  14865      9     0.00   0.66944   3 ;    C15-   C14-   C13-   H3S
 14857  14860  14863  14866      9     0.00   0.41840   1 ;    C15-   C14-   C13-   C12
 14857  14860  14863  14866      9     0.00   0.41840   2 ;    C15-   C14-   C13-   C12
 14857  14860  14863  14866      9     0.00   0.41840   4 ;    C15-   C14-   C13-   C12
 14857  14860  14863  14866      9     0.00   0.41840   5 ;    C15-   C14-   C13-   C12
 14857  14860  14863  14866      9     0.00   1.25520   3 ;    C15-   C14-   C13-   C12
 14858  14857  14860  14861      9     0.00   0.62760   3 ;    H5R-   C15-   C14-   H4R
 14858  14857  14860  14862      9     0.00   0.62760   3 ;    H5R-   C15-   C14-   H4S
 14858  14857  14860  14863      9     0.00   0.66944   3 ;    H5R-   C15-   C14-   C13
 14859  14857  14860  14861      9     0.00   0.62760   3 ;    H5S-   C15-   C14-   H4R
 14859  14857  14860  14862      9     0.00   0.62760   3 ;    H5S-   C15-   C14-   H4S
 14859  14857  14860  14863      9     0.00   0.66944   3 ;    H5S-   C15-   C14-   C13
 14860  14863  14866  14867      9     0.00   0.66944   3 ;    C14-   C13-   C12-   H2R
 14860  14863  14866  14868      9     0.00   0.66944   3 ;    C14-   C13-   C12-   H2S
 14861  14860  14863  14864      9     0.00   0.62760   3 ;    H4R-   C14-   C13-   H3R
 14861  14860  14863  14865      9     0.00   0.62760   3 ;    H4R-   C14-   C13-   H3S
 14861  14860  14863  14866      9     0.00   0.66944   3 ;    H4R-   C14-   C13-   C12
 14862  14860  14863  14864      9     0.00   0.62760   3 ;    H4S-   C14-   C13-   H3R
 14862  14860  14863  14865      9     0.00   0.62760   3 ;    H4S-   C14-   C13-   H3S
 14862  14860  14863  14866      9     0.00   0.66944   3 ;    H4S-   C14-   C13-   C12
 14864  14863  14866  14867      9     0.00   0.62760   3 ;    H3R-   C13-   C12-   H2R
 14864  14863  14866  14868      9     0.00   0.62760   3 ;    H3R-   C13-   C12-   H2S
 14865  14863  14866  14867      9     0.00   0.62760   3 ;    H3S-   C13-   C12-   H2R
 14865  14863  14866  14868      9     0.00   0.62760   3 ;    H3S-   C13-   C12-   H2S
 14869  14870  14873  14874      9     0.00   0.62760   3 ;   H14T-  C114-  C113-  H13R
 14869  14870  14873  14875      9     0.00   0.62760   3 ;   H14T-  C114-  C113-  H13S
 14869  14870  14873  14876      9     0.00   0.66944   3 ;   H14T-  C114-  C113-  C112
 14870  14873  14876  14877      9     0.00   0.66944   3 ;   C114-  C113-  C112-  H12R
 14870  14873  14876  14878      9     0.00   0.66944   3 ;   C114-  C113-  C112-  H12S
 14870  14873  14876  14879      9     0.00   0.41840   1 ;   C114-  C113-  C112-  C111
 14870  14873  14876  14879      9     0.00   0.41840   2 ;   C114-  C113-  C112-  C111
 14870  14873  14876  14879      9     0.00   0.41840   4 ;   C114-  C113-  C112-  C111
 14870  14873  14876  14879      9     0.00   0.41840   5 ;   C114-  C113-  C112-  C111
 14870  14873  14876  14879      9     0.00   1.25520   3 ;   C114-  C113-  C112-  C111
 14871  14870  14873  14874      9     0.00   0.62760   3 ;   H14R-  C114-  C113-  H13R
 14871  14870  14873  14875      9     0.00   0.62760   3 ;   H14R-  C114-  C113-  H13S
 14871  14870  14873  14876      9     0.00   0.66944   3 ;   H14R-  C114-  C113-  C112
 14872  14870  14873  14874      9     0.00   0.62760   3 ;   H14S-  C114-  C113-  H13R
 14872  14870  14873  14875      9     0.00   0.62760   3 ;   H14S-  C114-  C113-  H13S
 14872  14870  14873  14876      9     0.00   0.66944   3 ;   H14S-  C114-  C113-  C112
 14873  14876  14879  14880      9     0.00   0.66944   3 ;   C113-  C112-  C111-  H11R
 14873  14876  14879  14881      9     0.00   0.66944   3 ;   C113-  C112-  C111-  H11S
 14873  14876  14879  14882      9     0.00   0.41840   1 ;   C113-  C112-  C111-  C110
 14873  14876  14879  14882      9     0.00   0.41840   2 ;   C113-  C112-  C111-  C110
 14873  14876  14879  14882      9     0.00   0.41840   4 ;   C113-  C112-  C111-  C110
 14873  14876  14879  14882      9     0.00   0.41840   5 ;   C113-  C112-  C111-  C110
 14873  14876  14879  14882      9     0.00   1.25520   3 ;   C113-  C112-  C111-  C110
 14874  14873  14876  14877      9     0.00   0.62760   3 ;   H13R-  C113-  C112-  H12R
 14874  14873  14876  14878      9     0.00   0.62760   3 ;   H13R-  C113-  C112-  H12S
 14874  14873  14876  14879      9     0.00   0.66944   3 ;   H13R-  C113-  C112-  C111
 14875  14873  14876  14877      9     0.00   0.62760   3 ;   H13S-  C113-  C112-  H12R
 14875  14873  14876  14878      9     0.00   0.62760   3 ;   H13S-  C113-  C112-  H12S
 14875  14873  14876  14879      9     0.00   0.66944   3 ;   H13S-  C113-  C112-  C111
 14876  14879  14882  14883      9     0.00   0.66944   3 ;   C112-  C111-  C110-  H10R
 14876  14879  14882  14884      9     0.00   0.66944   3 ;   C112-  C111-  C110-  H10S
 14876  14879  14882  14885      9     0.00   0.41840   1 ;   C112-  C111-  C110-   C19
 14876  14879  14882  14885      9     0.00   0.41840   2 ;   C112-  C111-  C110-   C19
 14876  14879  14882  14885      9     0.00   0.41840   4 ;   C112-  C111-  C110-   C19
 14876  14879  14882  14885      9     0.00   0.41840   5 ;   C112-  C111-  C110-   C19
 14876  14879  14882  14885      9     0.00   1.25520   3 ;   C112-  C111-  C110-   C19
 14877  14876  14879  14880      9     0.00   0.62760   3 ;   H12R-  C112-  C111-  H11R
 14877  14876  14879  14881      9     0.00   0.62760   3 ;   H12R-  C112-  C111-  H11S
 14877  14876  14879  14882      9     0.00   0.66944   3 ;   H12R-  C112-  C111-  C110
 14878  14876  14879  14880      9     0.00   0.62760   3 ;   H12S-  C112-  C111-  H11R
 14878  14876  14879  14881      9     0.00   0.62760   3 ;   H12S-  C112-  C111-  H11S
 14878  14876  14879  14882      9     0.00   0.66944   3 ;   H12S-  C112-  C111-  C110
 14879  14882  14885  14886      9     0.00   0.66944   3 ;   C111-  C110-   C19-   H9R
 14879  14882  14885  14887      9     0.00   0.66944   3 ;   C111-  C110-   C19-   H9S
 14879  14882  14885  14888      9     0.00   0.41840   1 ;   C111-  C110-   C19-   C18
 14879  14882  14885  14888      9     0.00   0.41840   2 ;   C111-  C110-   C19-   C18
 14879  14882  14885  14888      9     0.00   0.41840   4 ;   C111-  C110-   C19-   C18
 14879  14882  14885  14888      9     0.00   0.41840   5 ;   C111-  C110-   C19-   C18
 14879  14882  14885  14888      9     0.00   1.25520   3 ;   C111-  C110-   C19-   C18
 14880  14879  14882  14883      9     0.00   0.62760   3 ;   H11R-  C111-  C110-  H10R
 14880  14879  14882  14884      9     0.00   0.62760   3 ;   H11R-  C111-  C110-  H10S
 14880  14879  14882  14885      9     0.00   0.66944   3 ;   H11R-  C111-  C110-   C19
 14881  14879  14882  14883      9     0.00   0.62760   3 ;   H11S-  C111-  C110-  H10R
 14881  14879  14882  14884      9     0.00   0.62760   3 ;   H11S-  C111-  C110-  H10S
 14881  14879  14882  14885      9     0.00   0.66944   3 ;   H11S-  C111-  C110-   C19
 14882  14885  14888  14889      9     0.00   0.66944   3 ;   C110-   C19-   C18-   H8R
 14882  14885  14888  14890      9     0.00   0.66944   3 ;   C110-   C19-   C18-   H8S
 14882  14885  14888  14891      9     0.00   0.41840   1 ;   C110-   C19-   C18-   C17
 14882  14885  14888  14891      9     0.00   0.41840   2 ;   C110-   C19-   C18-   C17
 14882  14885  14888  14891      9     0.00   0.41840   4 ;   C110-   C19-   C18-   C17
 14882  14885  14888  14891      9     0.00   0.41840   5 ;   C110-   C19-   C18-   C17
 14882  14885  14888  14891      9     0.00   1.25520   3 ;   C110-   C19-   C18-   C17
 14883  14882  14885  14886      9     0.00   0.62760   3 ;   H10R-  C110-   C19-   H9R
 14883  14882  14885  14887      9     0.00   0.62760   3 ;   H10R-  C110-   C19-   H9S
 14883  14882  14885  14888      9     0.00   0.66944   3 ;   H10R-  C110-   C19-   C18
 14884  14882  14885  14886      9     0.00   0.62760   3 ;   H10S-  C110-   C19-   H9R
 14884  14882  14885  14887      9     0.00   0.62760   3 ;   H10S-  C110-   C19-   H9S
 14884  14882  14885  14888      9     0.00   0.66944   3 ;   H10S-  C110-   C19-   C18
 14885  14888  14891  14892      9     0.00   0.66944   3 ;    C19-   C18-   C17-   H7R
 14885  14888  14891  14893      9     0.00   0.66944   3 ;    C19-   C18-   C17-   H7S
 14885  14888  14891  14894      9     0.00   0.41840   1 ;    C19-   C18-   C17-   C16
 14885  14888  14891  14894      9     0.00   0.41840   2 ;    C19-   C18-   C17-   C16
 14885  14888  14891  14894      9     0.00   0.41840   4 ;    C19-   C18-   C17-   C16
 14885  14888  14891  14894      9     0.00   0.41840   5 ;    C19-   C18-   C17-   C16
 14885  14888  14891  14894      9     0.00   1.25520   3 ;    C19-   C18-   C17-   C16
 14886  14885  14888  14889      9     0.00   0.62760   3 ;    H9R-   C19-   C18-   H8R
 14886  14885  14888  14890      9     0.00   0.62760   3 ;    H9R-   C19-   C18-   H8S
 14886  14885  14888  14891      9     0.00   0.66944   3 ;    H9R-   C19-   C18-   C17
 14887  14885  14888  14889      9     0.00   0.62760   3 ;    H9S-   C19-   C18-   H8R
 14887  14885  14888  14890      9     0.00   0.62760   3 ;    H9S-   C19-   C18-   H8S
 14887  14885  14888  14891      9     0.00   0.66944   3 ;    H9S-   C19-   C18-   C17
 14888  14891  14894  14895      9     0.00   0.66944   3 ;    C18-   C17-   C16-   H6R
 14888  14891  14894  14896      9     0.00   0.66944   3 ;    C18-   C17-   C16-   H6S
 14888  14891  14894  14897      9     0.00   0.41840   1 ;    C18-   C17-   C16-   C15
 14888  14891  14894  14897      9     0.00   0.41840   2 ;    C18-   C17-   C16-   C15
 14888  14891  14894  14897      9     0.00   0.41840   4 ;    C18-   C17-   C16-   C15
 14888  14891  14894  14897      9     0.00   0.41840   5 ;    C18-   C17-   C16-   C15
 14888  14891  14894  14897      9     0.00   1.25520   3 ;    C18-   C17-   C16-   C15
 14889  14888  14891  14892      9     0.00   0.62760   3 ;    H8R-   C18-   C17-   H7R
 14889  14888  14891  14893      9     0.00   0.62760   3 ;    H8R-   C18-   C17-   H7S
 14889  14888  14891  14894      9     0.00   0.66944   3 ;    H8R-   C18-   C17-   C16
 14890  14888  14891  14892      9     0.00   0.62760   3 ;    H8S-   C18-   C17-   H7R
 14890  14888  14891  14893      9     0.00   0.62760   3 ;    H8S-   C18-   C17-   H7S
 14890  14888  14891  14894      9     0.00   0.66944   3 ;    H8S-   C18-   C17-   C16
 14891  14894  14897  14898      9     0.00   0.66944   3 ;    C17-   C16-   C15-   H5R
 14891  14894  14897  14899      9     0.00   0.66944   3 ;    C17-   C16-   C15-   H5S
 14891  14894  14897  14900      9     0.00   0.41840   1 ;    C17-   C16-   C15-   C14
 14891  14894  14897  14900      9     0.00   0.41840   2 ;    C17-   C16-   C15-   C14
 14891  14894  14897  14900      9     0.00   0.41840   4 ;    C17-   C16-   C15-   C14
 14891  14894  14897  14900      9     0.00   0.41840   5 ;    C17-   C16-   C15-   C14
 14891  14894  14897  14900      9     0.00   1.25520   3 ;    C17-   C16-   C15-   C14
 14892  14891  14894  14895      9     0.00   0.62760   3 ;    H7R-   C17-   C16-   H6R
 14892  14891  14894  14896      9     0.00   0.62760   3 ;    H7R-   C17-   C16-   H6S
 14892  14891  14894  14897      9     0.00   0.66944   3 ;    H7R-   C17-   C16-   C15
 14893  14891  14894  14895      9     0.00   0.62760   3 ;    H7S-   C17-   C16-   H6R
 14893  14891  14894  14896      9     0.00   0.62760   3 ;    H7S-   C17-   C16-   H6S
 14893  14891  14894  14897      9     0.00   0.66944   3 ;    H7S-   C17-   C16-   C15
 14894  14897  14900  14901      9     0.00   0.66944   3 ;    C16-   C15-   C14-   H4R
 14894  14897  14900  14902      9     0.00   0.66944   3 ;    C16-   C15-   C14-   H4S
 14894  14897  14900  14903      9     0.00   0.41840   1 ;    C16-   C15-   C14-   C13
 14894  14897  14900  14903      9     0.00   0.41840   2 ;    C16-   C15-   C14-   C13
 14894  14897  14900  14903      9     0.00   0.41840   4 ;    C16-   C15-   C14-   C13
 14894  14897  14900  14903      9     0.00   0.41840   5 ;    C16-   C15-   C14-   C13
 14894  14897  14900  14903      9     0.00   1.25520   3 ;    C16-   C15-   C14-   C13
 14895  14894  14897  14898      9     0.00   0.62760   3 ;    H6R-   C16-   C15-   H5R
 14895  14894  14897  14899      9     0.00   0.62760   3 ;    H6R-   C16-   C15-   H5S
 14895  14894  14897  14900      9     0.00   0.66944   3 ;    H6R-   C16-   C15-   C14
 14896  14894  14897  14898      9     0.00   0.62760   3 ;    H6S-   C16-   C15-   H5R
 14896  14894  14897  14899      9     0.00   0.62760   3 ;    H6S-   C16-   C15-   H5S
 14896  14894  14897  14900      9     0.00   0.66944   3 ;    H6S-   C16-   C15-   C14
 14897  14900  14903  14904      9     0.00   0.66944   3 ;    C15-   C14-   C13-   H3R
 14897  14900  14903  14905      9     0.00   0.66944   3 ;    C15-   C14-   C13-   H3S
 14897  14900  14903  14906      9     0.00   0.41840   1 ;    C15-   C14-   C13-   C12
 14897  14900  14903  14906      9     0.00   0.41840   2 ;    C15-   C14-   C13-   C12
 14897  14900  14903  14906      9     0.00   0.41840   4 ;    C15-   C14-   C13-   C12
 14897  14900  14903  14906      9     0.00   0.41840   5 ;    C15-   C14-   C13-   C12
 14897  14900  14903  14906      9     0.00   1.25520   3 ;    C15-   C14-   C13-   C12
 14898  14897  14900  14901      9     0.00   0.62760   3 ;    H5R-   C15-   C14-   H4R
 14898  14897  14900  14902      9     0.00   0.62760   3 ;    H5R-   C15-   C14-   H4S
 14898  14897  14900  14903      9     0.00   0.66944   3 ;    H5R-   C15-   C14-   C13
 14899  14897  14900  14901      9     0.00   0.62760   3 ;    H5S-   C15-   C14-   H4R
 14899  14897  14900  14902      9     0.00   0.62760   3 ;    H5S-   C15-   C14-   H4S
 14899  14897  14900  14903      9     0.00   0.66944   3 ;    H5S-   C15-   C14-   C13
 14900  14903  14906  14907      9     0.00   0.66944   3 ;    C14-   C13-   C12-   H2R
 14900  14903  14906  14908      9     0.00   0.66944   3 ;    C14-   C13-   C12-   H2S
 14900  14903  14906  14909      9     0.00   0.65270   3 ;    C14-   C13-   C12-   C11
 14901  14900  14903  14904      9     0.00   0.62760   3 ;    H4R-   C14-   C13-   H3R
 14901  14900  14903  14905      9     0.00   0.62760   3 ;    H4R-   C14-   C13-   H3S
 14901  14900  14903  14906      9     0.00   0.66944   3 ;    H4R-   C14-   C13-   C12
 14902  14900  14903  14904      9     0.00   0.62760   3 ;    H4S-   C14-   C13-   H3R
 14902  14900  14903  14905      9     0.00   0.62760   3 ;    H4S-   C14-   C13-   H3S
 14902  14900  14903  14906      9     0.00   0.66944   3 ;    H4S-   C14-   C13-   C12
 14903  14906  14909  14910      9   180.00   0.00000   2 ;    C13-   C12-   C11-   O12
 14903  14906  14909  14911      9   180.00   0.00000   2 ;    C13-   C12-   C11-   O11
 14904  14903  14906  14907      9     0.00   0.62760   3 ;    H3R-   C13-   C12-   H2R
 14904  14903  14906  14908      9     0.00   0.62760   3 ;    H3R-   C13-   C12-   H2S
 14904  14903  14906  14909      9     0.00   0.65270   3 ;    H3R-   C13-   C12-   C11
 14905  14903  14906  14907      9     0.00   0.62760   3 ;    H3S-   C13-   C12-   H2R
 14905  14903  14906  14908      9     0.00   0.62760   3 ;    H3S-   C13-   C12-   H2S
 14905  14903  14906  14909      9     0.00   0.65270   3 ;    H3S-   C13-   C12-   C11
 14906  14909  14911  14912      9   180.00  11.29680   2 ;    C12-   C11-   O11-    C1
 14907  14906  14909  14910      9     0.00   3.34720   1 ;    H2R-   C12-   C11-   O12
 14907  14906  14909  14910      9   180.00   0.33472   3 ;    H2R-   C12-   C11-   O12
 14907  14906  14909  14911      9   180.00   0.00000   2 ;    H2R-   C12-   C11-   O11
 14908  14906  14909  14910      9     0.00   3.34720   1 ;    H2S-   C12-   C11-   O12
 14908  14906  14909  14910      9   180.00   0.33472   3 ;    H2S-   C12-   C11-   O12
 14908  14906  14909  14911      9   180.00   0.00000   2 ;    H2S-   C12-   C11-   O11
 14909  14911  14912  14913      9     0.00   1.60247   3 ;    C11-   O11-    C1-    HR
 14909  14911  14912  14914      9     0.00   1.60247   3 ;    C11-   O11-    C1-    HS
 14909  14911  14912  14915      9     0.00  -0.41840   1 ;    C11-   O11-    C1-    C2
 14910  14909  14911  14912      9   180.00   5.85760   1 ;    O12-   C11-   O11-    C1
 14910  14909  14911  14912      9   180.00  11.29680   2 ;    O12-   C11-   O11-    C1
 14911  14912  14915  14916      9     0.00   0.00000   0 ;    O11-    C1-    C2-    HX
 14911  14912  14915  14916      9     0.00   1.04600   1 ;    O11-    C1-    C2-    HX
 14911  14912  14915  14917      9     0.00   0.00000   0 ;    O11-    C1-    C2-    C3
 14911  14912  14915  14917      9     0.00   0.00000   0 ;    O11-    C1-    C2-    C3
 14911  14912  14915  14917      9     0.00   0.00000   0 ;    O11-    C1-    C2-    C3
 14911  14912  14915  14917      9     0.00   0.00000   0 ;    O11-    C1-    C2-    C3
 14911  14912  14915  14917      9     0.00   0.00000   0 ;    O11-    C1-    C2-    C3
 14911  14912  14915  14944      9     0.00   1.25520   2 ;    O11-    C1-    C2-   O21
 14911  14912  14915  14944      9     0.00   4.18400   3 ;    O11-    C1-    C2-   O21
 14911  14912  14915  14944      9   180.00  -0.41840   1 ;    O11-    C1-    C2-   O21
 14912  14915  14917  14918      9     0.00   0.65270   3 ;     C1-    C2-    C3-    HA
 14912  14915  14917  14919      9     0.00   0.65270   3 ;     C1-    C2-    C3-    HB
 14912  14915  14917  14920      9   180.00   3.34720   1 ;     C1-    C2-    C3-   O31
 14912  14915  14944  14945      9     0.00  -0.41840   1 ;     C1-    C2-   O21-   C21
 14913  14912  14915  14916      9     0.00   0.65270   3 ;     HR-    C1-    C2-    HX
 14913  14912  14915  14917      9     0.00   0.65270   3 ;     HR-    C1-    C2-    C3
 14913  14912  14915  14944      9     0.00   0.00000   0 ;     HR-    C1-    C2-   O21
 14913  14912  14915  14944      9     0.00   1.04600   1 ;     HR-    C1-    C2-   O21
 14914  14912  14915  14916      9     0.00   0.65270   3 ;     HS-    C1-    C2-    HX
 14914  14912  14915  14917      9     0.00   0.65270   3 ;     HS-    C1-    C2-    C3
 14914  14912  14915  14944      9     0.00   0.00000   0 ;     HS-    C1-    C2-   O21
 14914  14912  14915  14944      9     0.00   1.04600   1 ;     HS-    C1-    C2-   O21
 14915  14917  14920  14921      9     0.00   0.00000   0 ;     C2-    C3-   O31-   P31
 14915  14917  14920  14921      9   180.00  -3.34720   2 ;     C2-    C3-   O31-   P31
 14915  14944  14945  14946      9   180.00   5.85760   1 ;     C2-   O21-   C21-   O22
 14915  14944  14945  14946      9   180.00  11.29680   2 ;     C2-   O21-   C21-   O22
 14915  14944  14945  14984      9   180.00  11.29680   2 ;     C2-   O21-   C21-   C12
 14916  14915  14917  14918      9     0.00   0.65270   3 ;     HX-    C2-    C3-    HA
 14916  14915  14917  14919      9     0.00   0.65270   3 ;     HX-    C2-    C3-    HB
 14916  14915  14917  14920      9     0.00   0.00000   0 ;     HX-    C2-    C3-   O31
 14916  14915  14917  14920      9     0.00   1.04600   1 ;     HX-    C2-    C3-   O31
 14916  14915  14944  14945      9     0.00   1.60247   3 ;     HX-    C2-   O21-   C21
 14917  14915  14944  14945      9     0.00  -0.41840   1 ;     C3-    C2-   O21-   C21
 14917  14920  14921  14922      9     0.00   2.51040   3 ;     C3-   O31-   P31-   O32
 14917  14920  14921  14922      9     0.00   9.62320   2 ;     C3-   O31-   P31-   O32
 14917  14920  14921  14942      9     0.00   0.00000   0 ;     C3-   O31-   P31-   O33
 14917  14920  14921  14942      9     0.00   0.00000   0 ;     C3-   O31-   P31-   O33
 14917  14920  14921  14942      9     0.00   0.00000   0 ;     C3-   O31-   P31-   O33
 14917  14920  14921  14942      9     0.00   0.00000   0 ;     C3-   O31-   P31-   O33
 14917  14920  14921  14942      9     0.00   0.83680   2 ;     C3-   O31-   P31-   O33
 14917  14920  14921  14943      9     0.00   0.00000   0 ;     C3-   O31-   P31-   O34
 14917  14920  14921  14943      9     0.00   0.00000   0 ;     C3-   O31-   P31-   O34
 14917  14920  14921  14943      9     0.00   0.00000   0 ;     C3-   O31-   P31-   O34
 14917  14920  14921  14943      9     0.00   0.00000   0 ;     C3-   O31-   P31-   O34
 14917  14920  14921  14943      9     0.00   0.83680   2 ;     C3-   O31-   P31-   O34
 14918  14917  14915  14944      9     0.00   0.00000   0 ;     HA-    C3-    C2-   O21
 14918  14917  14915  14944      9     0.00   1.04600   1 ;     HA-    C3-    C2-   O21
 14918  14917  14920  14921      9     0.00   0.00000   0 ;     HA-    C3-   O31-   P31
 14918  14917  14920  14921      9     0.00   0.00000   0 ;     HA-    C3-   O31-   P31
 14918  14917  14920  14921      9     0.00   0.00000   0 ;     HA-    C3-   O31-   P31
 14918  14917  14920  14921      9     0.00   0.00000   0 ;     HA-    C3-   O31-   P31
 14918  14917  14920  14921      9     0.00   1.60247   3 ;     HA-    C3-   O31-   P31
 14919  14917  14915  14944      9     0.00   0.00000   0 ;     HB-    C3-    C2-   O21
 14919  14917  14915  14944      9     0.00   1.04600   1 ;     HB-    C3-    C2-   O21
 14919  14917  14920  14921      9     0.00   0.00000   0 ;     HB-    C3-   O31-   P31
 14919  14917  14920  14921      9     0.00   0.00000   0 ;     HB-    C3-   O31-   P31
 14919  14917  14920  14921      9     0.00   0.00000   0 ;     HB-    C3-   O31-   P31
 14919  14917  14920  14921      9     0.00   0.00000   0 ;     HB-    C3-   O31-   P31
 14919  14917  14920  14921      9     0.00   1.60247   3 ;     HB-    C3-   O31-   P31
 14920  14917  14915  14944      9     0.00   0.00000   0 ;    O31-    C3-    C2-   O21
 14920  14917  14915  14944      9     0.00   0.00000   0 ;    O31-    C3-    C2-   O21
 14920  14917  14915  14944      9     0.00   0.00000   0 ;    O31-    C3-    C2-   O21
 14920  14917  14915  14944      9     0.00   0.00000   0 ;    O31-    C3-    C2-   O21
 14920  14917  14915  14944      9     0.00   0.00000   0 ;    O31-    C3-    C2-   O21
 14920  14921  14922  14923      9     0.00   2.51040   3 ;    O31-   P31-   O32-   C31
 14920  14921  14922  14923      9     0.00   9.62320   2 ;    O31-   P31-   O32-   C31
 14921  14922  14923  14924      9     0.00   0.00000   0 ;    P31-   O32-   C31-   H1A
 14921  14922  14923  14924      9     0.00   0.00000   0 ;    P31-   O32-   C31-   H1A
 14921  14922  14923  14924      9     0.00   0.00000   0 ;    P31-   O32-   C31-   H1A
 14921  14922  14923  14924      9     0.00   0.00000   0 ;    P31-   O32-   C31-   H1A
 14921  14922  14923  14924      9     0.00   1.60247   3 ;    P31-   O32-   C31-   H1A
 14921  14922  14923  14925      9     0.00   0.00000   0 ;    P31-   O32-   C31-   H1B
 14921  14922  14923  14925      9     0.00   0.00000   0 ;    P31-   O32-   C31-   H1B
 14921  14922  14923  14925      9     0.00   0.00000   0 ;    P31-   O32-   C31-   H1B
 14921  14922  14923  14925      9     0.00   0.00000   0 ;    P31-   O32-   C31-   H1B
 14921  14922  14923  14925      9     0.00   1.60247   3 ;    P31-   O32-   C31-   H1B
 14921  14922  14923  14926      9     0.00   0.00000   0 ;    P31-   O32-   C31-   C32
 14921  14922  14923  14926      9   180.00  -3.34720   2 ;    P31-   O32-   C31-   C32
 14922  14923  14926  14927      9     0.00   0.65270   3 ;    O32-   C31-   C32-   H2A
 14922  14923  14926  14928      9     0.00   0.65270   3 ;    O32-   C31-   C32-   H2B
 14922  14923  14926  14929      9     0.00   4.18400   3 ;    O32-   C31-   C32-   N31
 14923  14922  14921  14942      9     0.00   0.00000   0 ;    C31-   O32-   P31-   O33
 14923  14922  14921  14942      9     0.00   0.00000   0 ;    C31-   O32-   P31-   O33
 14923  14922  14921  14942      9     0.00   0.00000   0 ;    C31-   O32-   P31-   O33
 14923  14922  14921  14942      9     0.00   0.00000   0 ;    C31-   O32-   P31-   O33
 14923  14922  14921  14942      9     0.00   0.83680   2 ;    C31-   O32-   P31-   O33
 14923  14922  14921  14943      9     0.00   0.00000   0 ;    C31-   O32-   P31-   O34
 14923  14922  14921  14943      9     0.00   0.00000   0 ;    C31-   O32-   P31-   O34
 14923  14922  14921  14943      9     0.00   0.00000   0 ;    C31-   O32-   P31-   O34
 14923  14922  14921  14943      9     0.00   0.00000   0 ;    C31-   O32-   P31-   O34
 14923  14922  14921  14943      9     0.00   0.83680   2 ;    C31-   O32-   P31-   O34
 14923  14926  14929  14930      9     0.00   0.65270   3 ;    C31-   C32-   N31-   C33
 14923  14926  14929  14934      9     0.00   0.65270   3 ;    C31-   C32-   N31-   C34
 14923  14926  14929  14938      9     0.00   0.65270   3 ;    C31-   C32-   N31-   C35
 14924  14923  14926  14927      9     0.00   0.65270   3 ;    H1A-   C31-   C32-   H2A
 14924  14923  14926  14928      9     0.00   0.65270   3 ;    H1A-   C31-   C32-   H2B
 14924  14923  14926  14929      9     0.00   0.65270   3 ;    H1A-   C31-   C32-   N31
 14925  14923  14926  14927      9     0.00   0.65270   3 ;    H1B-   C31-   C32-   H2A
 14925  14923  14926  14928      9     0.00   0.65270   3 ;    H1B-   C31-   C32-   H2B
 14925  14923  14926  14929      9     0.00   0.65270   3 ;    H1B-   C31-   C32-   N31
 14926  14929  14930  14931      9     0.00   0.65270   3 ;    C32-   N31-   C33-   H3A
 14926  14929  14930  14932      9     0.00   0.65270   3 ;    C32-   N31-   C33-   H3B
 14926  14929  14930  14933      9     0.00   0.65270   3 ;    C32-   N31-   C33-   H3C
 14926  14929  14934  14935      9     0.00   0.65270   3 ;    C32-   N31-   C34-   H4A
 14926  14929  14934  14936      9     0.00   0.65270   3 ;    C32-   N31-   C34-   H4B
 14926  14929  14934  14937      9     0.00   0.65270   3 ;    C32-   N31-   C34-   H4C
 14926  14929  14938  14939      9     0.00   0.65270   3 ;    C32-   N31-   C35-   H5A
 14926  14929  14938  14940      9     0.00   0.65270   3 ;    C32-   N31-   C35-   H5B
 14926  14929  14938  14941      9     0.00   0.65270   3 ;    C32-   N31-   C35-   H5C
 14927  14926  14929  14930      9     0.00   0.65270   3 ;    H2A-   C32-   N31-   C33
 14927  14926  14929  14934      9     0.00   0.65270   3 ;    H2A-   C32-   N31-   C34
 14927  14926  14929  14938      9     0.00   0.65270   3 ;    H2A-   C32-   N31-   C35
 14928  14926  14929  14930      9     0.00   0.65270   3 ;    H2B-   C32-   N31-   C33
 14928  14926  14929  14934      9     0.00   0.65270   3 ;    H2B-   C32-   N31-   C34
 14928  14926  14929  14938      9     0.00   0.65270   3 ;    H2B-   C32-   N31-   C35
 14930  14929  14934  14935      9     0.00   0.65270   3 ;    C33-   N31-   C34-   H4A
 14930  14929  14934  14936      9     0.00   0.65270   3 ;    C33-   N31-   C34-   H4B
 14930  14929  14934  14937      9     0.00   0.65270   3 ;    C33-   N31-   C34-   H4C
 14930  14929  14938  14939      9     0.00   0.65270   3 ;    C33-   N31-   C35-   H5A
 14930  14929  14938  14940      9     0.00   0.65270   3 ;    C33-   N31-   C35-   H5B
 14930  14929  14938  14941      9     0.00   0.65270   3 ;    C33-   N31-   C35-   H5C
 14931  14930  14929  14934      9     0.00   0.65270   3 ;    H3A-   C33-   N31-   C34
 14931  14930  14929  14938      9     0.00   0.65270   3 ;    H3A-   C33-   N31-   C35
 14932  14930  14929  14934      9     0.00   0.65270   3 ;    H3B-   C33-   N31-   C34
 14932  14930  14929  14938      9     0.00   0.65270   3 ;    H3B-   C33-   N31-   C35
 14933  14930  14929  14934      9     0.00   0.65270   3 ;    H3C-   C33-   N31-   C34
 14933  14930  14929  14938      9     0.00   0.65270   3 ;    H3C-   C33-   N31-   C35
 14934  14929  14938  14939      9     0.00   0.65270   3 ;    C34-   N31-   C35-   H5A
 14934  14929  14938  14940      9     0.00   0.65270   3 ;    C34-   N31-   C35-   H5B
 14934  14929  14938  14941      9     0.00   0.65270   3 ;    C34-   N31-   C35-   H5C
 14935  14934  14929  14938      9     0.00   0.65270   3 ;    H4A-   C34-   N31-   C35
 14936  14934  14929  14938      9     0.00   0.65270   3 ;    H4B-   C34-   N31-   C35
 14937  14934  14929  14938      9     0.00   0.65270   3 ;    H4C-   C34-   N31-   C35
 14944  14945  14984  14981      9   180.00   0.00000   2 ;    O21-   C21-   C12-   C13
 14944  14945  14984  14985      9   180.00   0.00000   2 ;    O21-   C21-   C12-   H2R
 14944  14945  14984  14986      9   180.00   0.00000   2 ;    O21-   C21-   C12-   H2S
 14945  14984  14981  14978      9     0.00   0.65270   3 ;    C21-   C12-   C13-   C14
 14945  14984  14981  14982      9     0.00   0.65270   3 ;    C21-   C12-   C13-   H3R
 14945  14984  14981  14983      9     0.00   0.65270   3 ;    C21-   C12-   C13-   H3S
 14946  14945  14984  14981      9   180.00   0.00000   2 ;    O22-   C21-   C12-   C13
 14946  14945  14984  14985      9     0.00   3.34720   1 ;    O22-   C21-   C12-   H2R
 14946  14945  14984  14985      9   180.00   0.33472   3 ;    O22-   C21-   C12-   H2R
 14946  14945  14984  14986      9     0.00   3.34720   1 ;    O22-   C21-   C12-   H2S
 14946  14945  14984  14986      9   180.00   0.33472   3 ;    O22-   C21-   C12-   H2S
 14947  14948  14951  14952      9     0.00   0.62760   3 ;   H14T-  C114-  C113-  H13R
 14947  14948  14951  14953      9     0.00   0.62760   3 ;   H14T-  C114-  C113-  H13S
 14947  14948  14951  14954      9     0.00   0.66944   3 ;   H14T-  C114-  C113-  C112
 14948  14951  14954  14955      9     0.00   0.66944   3 ;   C114-  C113-  C112-  H12R
 14948  14951  14954  14956      9     0.00   0.66944   3 ;   C114-  C113-  C112-  H12S
 14948  14951  14954  14957      9     0.00   0.41840   1 ;   C114-  C113-  C112-  C111
 14948  14951  14954  14957      9     0.00   0.41840   2 ;   C114-  C113-  C112-  C111
 14948  14951  14954  14957      9     0.00   0.41840   4 ;   C114-  C113-  C112-  C111
 14948  14951  14954  14957      9     0.00   0.41840   5 ;   C114-  C113-  C112-  C111
 14948  14951  14954  14957      9     0.00   1.25520   3 ;   C114-  C113-  C112-  C111
 14949  14948  14951  14952      9     0.00   0.62760   3 ;   H14R-  C114-  C113-  H13R
 14949  14948  14951  14953      9     0.00   0.62760   3 ;   H14R-  C114-  C113-  H13S
 14949  14948  14951  14954      9     0.00   0.66944   3 ;   H14R-  C114-  C113-  C112
 14950  14948  14951  14952      9     0.00   0.62760   3 ;   H14S-  C114-  C113-  H13R
 14950  14948  14951  14953      9     0.00   0.62760   3 ;   H14S-  C114-  C113-  H13S
 14950  14948  14951  14954      9     0.00   0.66944   3 ;   H14S-  C114-  C113-  C112
 14951  14954  14957  14958      9     0.00   0.66944   3 ;   C113-  C112-  C111-  H11R
 14951  14954  14957  14959      9     0.00   0.66944   3 ;   C113-  C112-  C111-  H11S
 14951  14954  14957  14960      9     0.00   0.41840   1 ;   C113-  C112-  C111-  C110
 14951  14954  14957  14960      9     0.00   0.41840   2 ;   C113-  C112-  C111-  C110
 14951  14954  14957  14960      9     0.00   0.41840   4 ;   C113-  C112-  C111-  C110
 14951  14954  14957  14960      9     0.00   0.41840   5 ;   C113-  C112-  C111-  C110
 14951  14954  14957  14960      9     0.00   1.25520   3 ;   C113-  C112-  C111-  C110
 14952  14951  14954  14955      9     0.00   0.62760   3 ;   H13R-  C113-  C112-  H12R
 14952  14951  14954  14956      9     0.00   0.62760   3 ;   H13R-  C113-  C112-  H12S
 14952  14951  14954  14957      9     0.00   0.66944   3 ;   H13R-  C113-  C112-  C111
 14953  14951  14954  14955      9     0.00   0.62760   3 ;   H13S-  C113-  C112-  H12R
 14953  14951  14954  14956      9     0.00   0.62760   3 ;   H13S-  C113-  C112-  H12S
 14953  14951  14954  14957      9     0.00   0.66944   3 ;   H13S-  C113-  C112-  C111
 14954  14957  14960  14961      9     0.00   0.66944   3 ;   C112-  C111-  C110-  H10R
 14954  14957  14960  14962      9     0.00   0.66944   3 ;   C112-  C111-  C110-  H10S
 14954  14957  14960  14963      9     0.00   0.41840   1 ;   C112-  C111-  C110-   C19
 14954  14957  14960  14963      9     0.00   0.41840   2 ;   C112-  C111-  C110-   C19
 14954  14957  14960  14963      9     0.00   0.41840   4 ;   C112-  C111-  C110-   C19
 14954  14957  14960  14963      9     0.00   0.41840   5 ;   C112-  C111-  C110-   C19
 14954  14957  14960  14963      9     0.00   1.25520   3 ;   C112-  C111-  C110-   C19
 14955  14954  14957  14958      9     0.00   0.62760   3 ;   H12R-  C112-  C111-  H11R
 14955  14954  14957  14959      9     0.00   0.62760   3 ;   H12R-  C112-  C111-  H11S
 14955  14954  14957  14960      9     0.00   0.66944   3 ;   H12R-  C112-  C111-  C110
 14956  14954  14957  14958      9     0.00   0.62760   3 ;   H12S-  C112-  C111-  H11R
 14956  14954  14957  14959      9     0.00   0.62760   3 ;   H12S-  C112-  C111-  H11S
 14956  14954  14957  14960      9     0.00   0.66944   3 ;   H12S-  C112-  C111-  C110
 14957  14960  14963  14964      9     0.00   0.66944   3 ;   C111-  C110-   C19-   H9R
 14957  14960  14963  14965      9     0.00   0.66944   3 ;   C111-  C110-   C19-   H9S
 14957  14960  14963  14966      9     0.00   0.41840   1 ;   C111-  C110-   C19-   C18
 14957  14960  14963  14966      9     0.00   0.41840   2 ;   C111-  C110-   C19-   C18
 14957  14960  14963  14966      9     0.00   0.41840   4 ;   C111-  C110-   C19-   C18
 14957  14960  14963  14966      9     0.00   0.41840   5 ;   C111-  C110-   C19-   C18
 14957  14960  14963  14966      9     0.00   1.25520   3 ;   C111-  C110-   C19-   C18
 14958  14957  14960  14961      9     0.00   0.62760   3 ;   H11R-  C111-  C110-  H10R
 14958  14957  14960  14962      9     0.00   0.62760   3 ;   H11R-  C111-  C110-  H10S
 14958  14957  14960  14963      9     0.00   0.66944   3 ;   H11R-  C111-  C110-   C19
 14959  14957  14960  14961      9     0.00   0.62760   3 ;   H11S-  C111-  C110-  H10R
 14959  14957  14960  14962      9     0.00   0.62760   3 ;   H11S-  C111-  C110-  H10S
 14959  14957  14960  14963      9     0.00   0.66944   3 ;   H11S-  C111-  C110-   C19
 14960  14963  14966  14967      9     0.00   0.66944   3 ;   C110-   C19-   C18-   H8R
 14960  14963  14966  14968      9     0.00   0.66944   3 ;   C110-   C19-   C18-   H8S
 14960  14963  14966  14969      9     0.00   0.41840   1 ;   C110-   C19-   C18-   C17
 14960  14963  14966  14969      9     0.00   0.41840   2 ;   C110-   C19-   C18-   C17
 14960  14963  14966  14969      9     0.00   0.41840   4 ;   C110-   C19-   C18-   C17
 14960  14963  14966  14969      9     0.00   0.41840   5 ;   C110-   C19-   C18-   C17
 14960  14963  14966  14969      9     0.00   1.25520   3 ;   C110-   C19-   C18-   C17
 14961  14960  14963  14964      9     0.00   0.62760   3 ;   H10R-  C110-   C19-   H9R
 14961  14960  14963  14965      9     0.00   0.62760   3 ;   H10R-  C110-   C19-   H9S
 14961  14960  14963  14966      9     0.00   0.66944   3 ;   H10R-  C110-   C19-   C18
 14962  14960  14963  14964      9     0.00   0.62760   3 ;   H10S-  C110-   C19-   H9R
 14962  14960  14963  14965      9     0.00   0.62760   3 ;   H10S-  C110-   C19-   H9S
 14962  14960  14963  14966      9     0.00   0.66944   3 ;   H10S-  C110-   C19-   C18
 14963  14966  14969  14970      9     0.00   0.66944   3 ;    C19-   C18-   C17-   H7R
 14963  14966  14969  14971      9     0.00   0.66944   3 ;    C19-   C18-   C17-   H7S
 14963  14966  14969  14972      9     0.00   0.41840   1 ;    C19-   C18-   C17-   C16
 14963  14966  14969  14972      9     0.00   0.41840   2 ;    C19-   C18-   C17-   C16
 14963  14966  14969  14972      9     0.00   0.41840   4 ;    C19-   C18-   C17-   C16
 14963  14966  14969  14972      9     0.00   0.41840   5 ;    C19-   C18-   C17-   C16
 14963  14966  14969  14972      9     0.00   1.25520   3 ;    C19-   C18-   C17-   C16
 14964  14963  14966  14967      9     0.00   0.62760   3 ;    H9R-   C19-   C18-   H8R
 14964  14963  14966  14968      9     0.00   0.62760   3 ;    H9R-   C19-   C18-   H8S
 14964  14963  14966  14969      9     0.00   0.66944   3 ;    H9R-   C19-   C18-   C17
 14965  14963  14966  14967      9     0.00   0.62760   3 ;    H9S-   C19-   C18-   H8R
 14965  14963  14966  14968      9     0.00   0.62760   3 ;    H9S-   C19-   C18-   H8S
 14965  14963  14966  14969      9     0.00   0.66944   3 ;    H9S-   C19-   C18-   C17
 14966  14969  14972  14973      9     0.00   0.66944   3 ;    C18-   C17-   C16-   H6R
 14966  14969  14972  14974      9     0.00   0.66944   3 ;    C18-   C17-   C16-   H6S
 14966  14969  14972  14975      9     0.00   0.41840   1 ;    C18-   C17-   C16-   C15
 14966  14969  14972  14975      9     0.00   0.41840   2 ;    C18-   C17-   C16-   C15
 14966  14969  14972  14975      9     0.00   0.41840   4 ;    C18-   C17-   C16-   C15
 14966  14969  14972  14975      9     0.00   0.41840   5 ;    C18-   C17-   C16-   C15
 14966  14969  14972  14975      9     0.00   1.25520   3 ;    C18-   C17-   C16-   C15
 14967  14966  14969  14970      9     0.00   0.62760   3 ;    H8R-   C18-   C17-   H7R
 14967  14966  14969  14971      9     0.00   0.62760   3 ;    H8R-   C18-   C17-   H7S
 14967  14966  14969  14972      9     0.00   0.66944   3 ;    H8R-   C18-   C17-   C16
 14968  14966  14969  14970      9     0.00   0.62760   3 ;    H8S-   C18-   C17-   H7R
 14968  14966  14969  14971      9     0.00   0.62760   3 ;    H8S-   C18-   C17-   H7S
 14968  14966  14969  14972      9     0.00   0.66944   3 ;    H8S-   C18-   C17-   C16
 14969  14972  14975  14976      9     0.00   0.66944   3 ;    C17-   C16-   C15-   H5R
 14969  14972  14975  14977      9     0.00   0.66944   3 ;    C17-   C16-   C15-   H5S
 14969  14972  14975  14978      9     0.00   0.41840   1 ;    C17-   C16-   C15-   C14
 14969  14972  14975  14978      9     0.00   0.41840   2 ;    C17-   C16-   C15-   C14
 14969  14972  14975  14978      9     0.00   0.41840   4 ;    C17-   C16-   C15-   C14
 14969  14972  14975  14978      9     0.00   0.41840   5 ;    C17-   C16-   C15-   C14
 14969  14972  14975  14978      9     0.00   1.25520   3 ;    C17-   C16-   C15-   C14
 14970  14969  14972  14973      9     0.00   0.62760   3 ;    H7R-   C17-   C16-   H6R
 14970  14969  14972  14974      9     0.00   0.62760   3 ;    H7R-   C17-   C16-   H6S
 14970  14969  14972  14975      9     0.00   0.66944   3 ;    H7R-   C17-   C16-   C15
 14971  14969  14972  14973      9     0.00   0.62760   3 ;    H7S-   C17-   C16-   H6R
 14971  14969  14972  14974      9     0.00   0.62760   3 ;    H7S-   C17-   C16-   H6S
 14971  14969  14972  14975      9     0.00   0.66944   3 ;    H7S-   C17-   C16-   C15
 14972  14975  14978  14979      9     0.00   0.66944   3 ;    C16-   C15-   C14-   H4R
 14972  14975  14978  14980      9     0.00   0.66944   3 ;    C16-   C15-   C14-   H4S
 14972  14975  14978  14981      9     0.00   0.41840   1 ;    C16-   C15-   C14-   C13
 14972  14975  14978  14981      9     0.00   0.41840   2 ;    C16-   C15-   C14-   C13
 14972  14975  14978  14981      9     0.00   0.41840   4 ;    C16-   C15-   C14-   C13
 14972  14975  14978  14981      9     0.00   0.41840   5 ;    C16-   C15-   C14-   C13
 14972  14975  14978  14981      9     0.00   1.25520   3 ;    C16-   C15-   C14-   C13
 14973  14972  14975  14976      9     0.00   0.62760   3 ;    H6R-   C16-   C15-   H5R
 14973  14972  14975  14977      9     0.00   0.62760   3 ;    H6R-   C16-   C15-   H5S
 14973  14972  14975  14978      9     0.00   0.66944   3 ;    H6R-   C16-   C15-   C14
 14974  14972  14975  14976      9     0.00   0.62760   3 ;    H6S-   C16-   C15-   H5R
 14974  14972  14975  14977      9     0.00   0.62760   3 ;    H6S-   C16-   C15-   H5S
 14974  14972  14975  14978      9     0.00   0.66944   3 ;    H6S-   C16-   C15-   C14
 14975  14978  14981  14982      9     0.00   0.66944   3 ;    C15-   C14-   C13-   H3R
 14975  14978  14981  14983      9     0.00   0.66944   3 ;    C15-   C14-   C13-   H3S
 14975  14978  14981  14984      9     0.00   0.41840   1 ;    C15-   C14-   C13-   C12
 14975  14978  14981  14984      9     0.00   0.41840   2 ;    C15-   C14-   C13-   C12
 14975  14978  14981  14984      9     0.00   0.41840   4 ;    C15-   C14-   C13-   C12
 14975  14978  14981  14984      9     0.00   0.41840   5 ;    C15-   C14-   C13-   C12
 14975  14978  14981  14984      9     0.00   1.25520   3 ;    C15-   C14-   C13-   C12
 14976  14975  14978  14979      9     0.00   0.62760   3 ;    H5R-   C15-   C14-   H4R
 14976  14975  14978  14980      9     0.00   0.62760   3 ;    H5R-   C15-   C14-   H4S
 14976  14975  14978  14981      9     0.00   0.66944   3 ;    H5R-   C15-   C14-   C13
 14977  14975  14978  14979      9     0.00   0.62760   3 ;    H5S-   C15-   C14-   H4R
 14977  14975  14978  14980      9     0.00   0.62760   3 ;    H5S-   C15-   C14-   H4S
 14977  14975  14978  14981      9     0.00   0.66944   3 ;    H5S-   C15-   C14-   C13
 14978  14981  14984  14985      9     0.00   0.66944   3 ;    C14-   C13-   C12-   H2R
 14978  14981  14984  14986      9     0.00   0.66944   3 ;    C14-   C13-   C12-   H2S
 14979  14978  14981  14982      9     0.00   0.62760   3 ;    H4R-   C14-   C13-   H3R
 14979  14978  14981  14983      9     0.00   0.62760   3 ;    H4R-   C14-   C13-   H3S
 14979  14978  14981  14984      9     0.00   0.66944   3 ;    H4R-   C14-   C13-   C12
 14980  14978  14981  14982      9     0.00   0.62760   3 ;    H4S-   C14-   C13-   H3R
 14980  14978  14981  14983      9     0.00   0.62760   3 ;    H4S-   C14-   C13-   H3S
 14980  14978  14981  14984      9     0.00   0.66944   3 ;    H4S-   C14-   C13-   C12
 14982  14981  14984  14985      9     0.00   0.62760   3 ;    H3R-   C13-   C12-   H2R
 14982  14981  14984  14986      9     0.00   0.62760   3 ;    H3R-   C13-   C12-   H2S
 14983  14981  14984  14985      9     0.00   0.62760   3 ;    H3S-   C13-   C12-   H2R
 14983  14981  14984  14986      9     0.00   0.62760   3 ;    H3S-   C13-   C12-   H2S
 14987  14988  14991  14992      9     0.00   0.62760   3 ;   H14T-  C114-  C113-  H13R
 14987  14988  14991  14993      9     0.00   0.62760   3 ;   H14T-  C114-  C113-  H13S
 14987  14988  14991  14994      9     0.00   0.66944   3 ;   H14T-  C114-  C113-  C112
 14988  14991  14994  14995      9     0.00   0.66944   3 ;   C114-  C113-  C112-  H12R
 14988  14991  14994  14996      9     0.00   0.66944   3 ;   C114-  C113-  C112-  H12S
 14988  14991  14994  14997      9     0.00   0.41840   1 ;   C114-  C113-  C112-  C111
 14988  14991  14994  14997      9     0.00   0.41840   2 ;   C114-  C113-  C112-  C111
 14988  14991  14994  14997      9     0.00   0.41840   4 ;   C114-  C113-  C112-  C111
 14988  14991  14994  14997      9     0.00   0.41840   5 ;   C114-  C113-  C112-  C111
 14988  14991  14994  14997      9     0.00   1.25520   3 ;   C114-  C113-  C112-  C111
 14989  14988  14991  14992      9     0.00   0.62760   3 ;   H14R-  C114-  C113-  H13R
 14989  14988  14991  14993      9     0.00   0.62760   3 ;   H14R-  C114-  C113-  H13S
 14989  14988  14991  14994      9     0.00   0.66944   3 ;   H14R-  C114-  C113-  C112
 14990  14988  14991  14992      9     0.00   0.62760   3 ;   H14S-  C114-  C113-  H13R
 14990  14988  14991  14993      9     0.00   0.62760   3 ;   H14S-  C114-  C113-  H13S
 14990  14988  14991  14994      9     0.00   0.66944   3 ;   H14S-  C114-  C113-  C112
 14991  14994  14997  14998      9     0.00   0.66944   3 ;   C113-  C112-  C111-  H11R
 14991  14994  14997  14999      9     0.00   0.66944   3 ;   C113-  C112-  C111-  H11S
 14991  14994  14997  15000      9     0.00   0.41840   1 ;   C113-  C112-  C111-  C110
 14991  14994  14997  15000      9     0.00   0.41840   2 ;   C113-  C112-  C111-  C110
 14991  14994  14997  15000      9     0.00   0.41840   4 ;   C113-  C112-  C111-  C110
 14991  14994  14997  15000      9     0.00   0.41840   5 ;   C113-  C112-  C111-  C110
 14991  14994  14997  15000      9     0.00   1.25520   3 ;   C113-  C112-  C111-  C110
 14992  14991  14994  14995      9     0.00   0.62760   3 ;   H13R-  C113-  C112-  H12R
 14992  14991  14994  14996      9     0.00   0.62760   3 ;   H13R-  C113-  C112-  H12S
 14992  14991  14994  14997      9     0.00   0.66944   3 ;   H13R-  C113-  C112-  C111
 14993  14991  14994  14995      9     0.00   0.62760   3 ;   H13S-  C113-  C112-  H12R
 14993  14991  14994  14996      9     0.00   0.62760   3 ;   H13S-  C113-  C112-  H12S
 14993  14991  14994  14997      9     0.00   0.66944   3 ;   H13S-  C113-  C112-  C111
 14994  14997  15000  15001      9     0.00   0.66944   3 ;   C112-  C111-  C110-  H10R
 14994  14997  15000  15002      9     0.00   0.66944   3 ;   C112-  C111-  C110-  H10S
 14994  14997  15000  15003      9     0.00   0.41840   1 ;   C112-  C111-  C110-   C19
 14994  14997  15000  15003      9     0.00   0.41840   2 ;   C112-  C111-  C110-   C19
 14994  14997  15000  15003      9     0.00   0.41840   4 ;   C112-  C111-  C110-   C19
 14994  14997  15000  15003      9     0.00   0.41840   5 ;   C112-  C111-  C110-   C19
 14994  14997  15000  15003      9     0.00   1.25520   3 ;   C112-  C111-  C110-   C19
 14995  14994  14997  14998      9     0.00   0.62760   3 ;   H12R-  C112-  C111-  H11R
 14995  14994  14997  14999      9     0.00   0.62760   3 ;   H12R-  C112-  C111-  H11S
 14995  14994  14997  15000      9     0.00   0.66944   3 ;   H12R-  C112-  C111-  C110
 14996  14994  14997  14998      9     0.00   0.62760   3 ;   H12S-  C112-  C111-  H11R
 14996  14994  14997  14999      9     0.00   0.62760   3 ;   H12S-  C112-  C111-  H11S
 14996  14994  14997  15000      9     0.00   0.66944   3 ;   H12S-  C112-  C111-  C110
 14997  15000  15003  15004      9     0.00   0.66944   3 ;   C111-  C110-   C19-   H9R
 14997  15000  15003  15005      9     0.00   0.66944   3 ;   C111-  C110-   C19-   H9S
 14997  15000  15003  15006      9     0.00   0.41840   1 ;   C111-  C110-   C19-   C18
 14997  15000  15003  15006      9     0.00   0.41840   2 ;   C111-  C110-   C19-   C18
 14997  15000  15003  15006      9     0.00   0.41840   4 ;   C111-  C110-   C19-   C18
 14997  15000  15003  15006      9     0.00   0.41840   5 ;   C111-  C110-   C19-   C18
 14997  15000  15003  15006      9     0.00   1.25520   3 ;   C111-  C110-   C19-   C18
 14998  14997  15000  15001      9     0.00   0.62760   3 ;   H11R-  C111-  C110-  H10R
 14998  14997  15000  15002      9     0.00   0.62760   3 ;   H11R-  C111-  C110-  H10S
 14998  14997  15000  15003      9     0.00   0.66944   3 ;   H11R-  C111-  C110-   C19
 14999  14997  15000  15001      9     0.00   0.62760   3 ;   H11S-  C111-  C110-  H10R
 14999  14997  15000  15002      9     0.00   0.62760   3 ;   H11S-  C111-  C110-  H10S
 14999  14997  15000  15003      9     0.00   0.66944   3 ;   H11S-  C111-  C110-   C19
 15000  15003  15006  15007      9     0.00   0.66944   3 ;   C110-   C19-   C18-   H8R
 15000  15003  15006  15008      9     0.00   0.66944   3 ;   C110-   C19-   C18-   H8S
 15000  15003  15006  15009      9     0.00   0.41840   1 ;   C110-   C19-   C18-   C17
 15000  15003  15006  15009      9     0.00   0.41840   2 ;   C110-   C19-   C18-   C17
 15000  15003  15006  15009      9     0.00   0.41840   4 ;   C110-   C19-   C18-   C17
 15000  15003  15006  15009      9     0.00   0.41840   5 ;   C110-   C19-   C18-   C17
 15000  15003  15006  15009      9     0.00   1.25520   3 ;   C110-   C19-   C18-   C17
 15001  15000  15003  15004      9     0.00   0.62760   3 ;   H10R-  C110-   C19-   H9R
 15001  15000  15003  15005      9     0.00   0.62760   3 ;   H10R-  C110-   C19-   H9S
 15001  15000  15003  15006      9     0.00   0.66944   3 ;   H10R-  C110-   C19-   C18
 15002  15000  15003  15004      9     0.00   0.62760   3 ;   H10S-  C110-   C19-   H9R
 15002  15000  15003  15005      9     0.00   0.62760   3 ;   H10S-  C110-   C19-   H9S
 15002  15000  15003  15006      9     0.00   0.66944   3 ;   H10S-  C110-   C19-   C18
 15003  15006  15009  15010      9     0.00   0.66944   3 ;    C19-   C18-   C17-   H7R
 15003  15006  15009  15011      9     0.00   0.66944   3 ;    C19-   C18-   C17-   H7S
 15003  15006  15009  15012      9     0.00   0.41840   1 ;    C19-   C18-   C17-   C16
 15003  15006  15009  15012      9     0.00   0.41840   2 ;    C19-   C18-   C17-   C16
 15003  15006  15009  15012      9     0.00   0.41840   4 ;    C19-   C18-   C17-   C16
 15003  15006  15009  15012      9     0.00   0.41840   5 ;    C19-   C18-   C17-   C16
 15003  15006  15009  15012      9     0.00   1.25520   3 ;    C19-   C18-   C17-   C16
 15004  15003  15006  15007      9     0.00   0.62760   3 ;    H9R-   C19-   C18-   H8R
 15004  15003  15006  15008      9     0.00   0.62760   3 ;    H9R-   C19-   C18-   H8S
 15004  15003  15006  15009      9     0.00   0.66944   3 ;    H9R-   C19-   C18-   C17
 15005  15003  15006  15007      9     0.00   0.62760   3 ;    H9S-   C19-   C18-   H8R
 15005  15003  15006  15008      9     0.00   0.62760   3 ;    H9S-   C19-   C18-   H8S
 15005  15003  15006  15009      9     0.00   0.66944   3 ;    H9S-   C19-   C18-   C17
 15006  15009  15012  15013      9     0.00   0.66944   3 ;    C18-   C17-   C16-   H6R
 15006  15009  15012  15014      9     0.00   0.66944   3 ;    C18-   C17-   C16-   H6S
 15006  15009  15012  15015      9     0.00   0.41840   1 ;    C18-   C17-   C16-   C15
 15006  15009  15012  15015      9     0.00   0.41840   2 ;    C18-   C17-   C16-   C15
 15006  15009  15012  15015      9     0.00   0.41840   4 ;    C18-   C17-   C16-   C15
 15006  15009  15012  15015      9     0.00   0.41840   5 ;    C18-   C17-   C16-   C15
 15006  15009  15012  15015      9     0.00   1.25520   3 ;    C18-   C17-   C16-   C15
 15007  15006  15009  15010      9     0.00   0.62760   3 ;    H8R-   C18-   C17-   H7R
 15007  15006  15009  15011      9     0.00   0.62760   3 ;    H8R-   C18-   C17-   H7S
 15007  15006  15009  15012      9     0.00   0.66944   3 ;    H8R-   C18-   C17-   C16
 15008  15006  15009  15010      9     0.00   0.62760   3 ;    H8S-   C18-   C17-   H7R
 15008  15006  15009  15011      9     0.00   0.62760   3 ;    H8S-   C18-   C17-   H7S
 15008  15006  15009  15012      9     0.00   0.66944   3 ;    H8S-   C18-   C17-   C16
 15009  15012  15015  15016      9     0.00   0.66944   3 ;    C17-   C16-   C15-   H5R
 15009  15012  15015  15017      9     0.00   0.66944   3 ;    C17-   C16-   C15-   H5S
 15009  15012  15015  15018      9     0.00   0.41840   1 ;    C17-   C16-   C15-   C14
 15009  15012  15015  15018      9     0.00   0.41840   2 ;    C17-   C16-   C15-   C14
 15009  15012  15015  15018      9     0.00   0.41840   4 ;    C17-   C16-   C15-   C14
 15009  15012  15015  15018      9     0.00   0.41840   5 ;    C17-   C16-   C15-   C14
 15009  15012  15015  15018      9     0.00   1.25520   3 ;    C17-   C16-   C15-   C14
 15010  15009  15012  15013      9     0.00   0.62760   3 ;    H7R-   C17-   C16-   H6R
 15010  15009  15012  15014      9     0.00   0.62760   3 ;    H7R-   C17-   C16-   H6S
 15010  15009  15012  15015      9     0.00   0.66944   3 ;    H7R-   C17-   C16-   C15
 15011  15009  15012  15013      9     0.00   0.62760   3 ;    H7S-   C17-   C16-   H6R
 15011  15009  15012  15014      9     0.00   0.62760   3 ;    H7S-   C17-   C16-   H6S
 15011  15009  15012  15015      9     0.00   0.66944   3 ;    H7S-   C17-   C16-   C15
 15012  15015  15018  15019      9     0.00   0.66944   3 ;    C16-   C15-   C14-   H4R
 15012  15015  15018  15020      9     0.00   0.66944   3 ;    C16-   C15-   C14-   H4S
 15012  15015  15018  15021      9     0.00   0.41840   1 ;    C16-   C15-   C14-   C13
 15012  15015  15018  15021      9     0.00   0.41840   2 ;    C16-   C15-   C14-   C13
 15012  15015  15018  15021      9     0.00   0.41840   4 ;    C16-   C15-   C14-   C13
 15012  15015  15018  15021      9     0.00   0.41840   5 ;    C16-   C15-   C14-   C13
 15012  15015  15018  15021      9     0.00   1.25520   3 ;    C16-   C15-   C14-   C13
 15013  15012  15015  15016      9     0.00   0.62760   3 ;    H6R-   C16-   C15-   H5R
 15013  15012  15015  15017      9     0.00   0.62760   3 ;    H6R-   C16-   C15-   H5S
 15013  15012  15015  15018      9     0.00   0.66944   3 ;    H6R-   C16-   C15-   C14
 15014  15012  15015  15016      9     0.00   0.62760   3 ;    H6S-   C16-   C15-   H5R
 15014  15012  15015  15017      9     0.00   0.62760   3 ;    H6S-   C16-   C15-   H5S
 15014  15012  15015  15018      9     0.00   0.66944   3 ;    H6S-   C16-   C15-   C14
 15015  15018  15021  15022      9     0.00   0.66944   3 ;    C15-   C14-   C13-   H3R
 15015  15018  15021  15023      9     0.00   0.66944   3 ;    C15-   C14-   C13-   H3S
 15015  15018  15021  15024      9     0.00   0.41840   1 ;    C15-   C14-   C13-   C12
 15015  15018  15021  15024      9     0.00   0.41840   2 ;    C15-   C14-   C13-   C12
 15015  15018  15021  15024      9     0.00   0.41840   4 ;    C15-   C14-   C13-   C12
 15015  15018  15021  15024      9     0.00   0.41840   5 ;    C15-   C14-   C13-   C12
 15015  15018  15021  15024      9     0.00   1.25520   3 ;    C15-   C14-   C13-   C12
 15016  15015  15018  15019      9     0.00   0.62760   3 ;    H5R-   C15-   C14-   H4R
 15016  15015  15018  15020      9     0.00   0.62760   3 ;    H5R-   C15-   C14-   H4S
 15016  15015  15018  15021      9     0.00   0.66944   3 ;    H5R-   C15-   C14-   C13
 15017  15015  15018  15019      9     0.00   0.62760   3 ;    H5S-   C15-   C14-   H4R
 15017  15015  15018  15020      9     0.00   0.62760   3 ;    H5S-   C15-   C14-   H4S
 15017  15015  15018  15021      9     0.00   0.66944   3 ;    H5S-   C15-   C14-   C13
 15018  15021  15024  15025      9     0.00   0.66944   3 ;    C14-   C13-   C12-   H2R
 15018  15021  15024  15026      9     0.00   0.66944   3 ;    C14-   C13-   C12-   H2S
 15018  15021  15024  15027      9     0.00   0.65270   3 ;    C14-   C13-   C12-   C11
 15019  15018  15021  15022      9     0.00   0.62760   3 ;    H4R-   C14-   C13-   H3R
 15019  15018  15021  15023      9     0.00   0.62760   3 ;    H4R-   C14-   C13-   H3S
 15019  15018  15021  15024      9     0.00   0.66944   3 ;    H4R-   C14-   C13-   C12
 15020  15018  15021  15022      9     0.00   0.62760   3 ;    H4S-   C14-   C13-   H3R
 15020  15018  15021  15023      9     0.00   0.62760   3 ;    H4S-   C14-   C13-   H3S
 15020  15018  15021  15024      9     0.00   0.66944   3 ;    H4S-   C14-   C13-   C12
 15021  15024  15027  15028      9   180.00   0.00000   2 ;    C13-   C12-   C11-   O12
 15021  15024  15027  15029      9   180.00   0.00000   2 ;    C13-   C12-   C11-   O11
 15022  15021  15024  15025      9     0.00   0.62760   3 ;    H3R-   C13-   C12-   H2R
 15022  15021  15024  15026      9     0.00   0.62760   3 ;    H3R-   C13-   C12-   H2S
 15022  15021  15024  15027      9     0.00   0.65270   3 ;    H3R-   C13-   C12-   C11
 15023  15021  15024  15025      9     0.00   0.62760   3 ;    H3S-   C13-   C12-   H2R
 15023  15021  15024  15026      9     0.00   0.62760   3 ;    H3S-   C13-   C12-   H2S
 15023  15021  15024  15027      9     0.00   0.65270   3 ;    H3S-   C13-   C12-   C11
 15024  15027  15029  15030      9   180.00  11.29680   2 ;    C12-   C11-   O11-    C1
 15025  15024  15027  15028      9     0.00   3.34720   1 ;    H2R-   C12-   C11-   O12
 15025  15024  15027  15028      9   180.00   0.33472   3 ;    H2R-   C12-   C11-   O12
 15025  15024  15027  15029      9   180.00   0.00000   2 ;    H2R-   C12-   C11-   O11
 15026  15024  15027  15028      9     0.00   3.34720   1 ;    H2S-   C12-   C11-   O12
 15026  15024  15027  15028      9   180.00   0.33472   3 ;    H2S-   C12-   C11-   O12
 15026  15024  15027  15029      9   180.00   0.00000   2 ;    H2S-   C12-   C11-   O11
 15027  15029  15030  15031      9     0.00   1.60247   3 ;    C11-   O11-    C1-    HR
 15027  15029  15030  15032      9     0.00   1.60247   3 ;    C11-   O11-    C1-    HS
 15027  15029  15030  15033      9     0.00  -0.41840   1 ;    C11-   O11-    C1-    C2
 15028  15027  15029  15030      9   180.00   5.85760   1 ;    O12-   C11-   O11-    C1
 15028  15027  15029  15030      9   180.00  11.29680   2 ;    O12-   C11-   O11-    C1
 15029  15030  15033  15034      9     0.00   0.00000   0 ;    O11-    C1-    C2-    HX
 15029  15030  15033  15034      9     0.00   1.04600   1 ;    O11-    C1-    C2-    HX
 15029  15030  15033  15035      9     0.00   0.00000   0 ;    O11-    C1-    C2-    C3
 15029  15030  15033  15035      9     0.00   0.00000   0 ;    O11-    C1-    C2-    C3
 15029  15030  15033  15035      9     0.00   0.00000   0 ;    O11-    C1-    C2-    C3
 15029  15030  15033  15035      9     0.00   0.00000   0 ;    O11-    C1-    C2-    C3
 15029  15030  15033  15035      9     0.00   0.00000   0 ;    O11-    C1-    C2-    C3
 15029  15030  15033  15062      9     0.00   1.25520   2 ;    O11-    C1-    C2-   O21
 15029  15030  15033  15062      9     0.00   4.18400   3 ;    O11-    C1-    C2-   O21
 15029  15030  15033  15062      9   180.00  -0.41840   1 ;    O11-    C1-    C2-   O21
 15030  15033  15035  15036      9     0.00   0.65270   3 ;     C1-    C2-    C3-    HA
 15030  15033  15035  15037      9     0.00   0.65270   3 ;     C1-    C2-    C3-    HB
 15030  15033  15035  15038      9   180.00   3.34720   1 ;     C1-    C2-    C3-   O31
 15030  15033  15062  15063      9     0.00  -0.41840   1 ;     C1-    C2-   O21-   C21
 15031  15030  15033  15034      9     0.00   0.65270   3 ;     HR-    C1-    C2-    HX
 15031  15030  15033  15035      9     0.00   0.65270   3 ;     HR-    C1-    C2-    C3
 15031  15030  15033  15062      9     0.00   0.00000   0 ;     HR-    C1-    C2-   O21
 15031  15030  15033  15062      9     0.00   1.04600   1 ;     HR-    C1-    C2-   O21
 15032  15030  15033  15034      9     0.00   0.65270   3 ;     HS-    C1-    C2-    HX
 15032  15030  15033  15035      9     0.00   0.65270   3 ;     HS-    C1-    C2-    C3
 15032  15030  15033  15062      9     0.00   0.00000   0 ;     HS-    C1-    C2-   O21
 15032  15030  15033  15062      9     0.00   1.04600   1 ;     HS-    C1-    C2-   O21
 15033  15035  15038  15039      9     0.00   0.00000   0 ;     C2-    C3-   O31-   P31
 15033  15035  15038  15039      9   180.00  -3.34720   2 ;     C2-    C3-   O31-   P31
 15033  15062  15063  15064      9   180.00   5.85760   1 ;     C2-   O21-   C21-   O22
 15033  15062  15063  15064      9   180.00  11.29680   2 ;     C2-   O21-   C21-   O22
 15033  15062  15063  15102      9   180.00  11.29680   2 ;     C2-   O21-   C21-   C12
 15034  15033  15035  15036      9     0.00   0.65270   3 ;     HX-    C2-    C3-    HA
 15034  15033  15035  15037      9     0.00   0.65270   3 ;     HX-    C2-    C3-    HB
 15034  15033  15035  15038      9     0.00   0.00000   0 ;     HX-    C2-    C3-   O31
 15034  15033  15035  15038      9     0.00   1.04600   1 ;     HX-    C2-    C3-   O31
 15034  15033  15062  15063      9     0.00   1.60247   3 ;     HX-    C2-   O21-   C21
 15035  15033  15062  15063      9     0.00  -0.41840   1 ;     C3-    C2-   O21-   C21
 15035  15038  15039  15040      9     0.00   2.51040   3 ;     C3-   O31-   P31-   O32
 15035  15038  15039  15040      9     0.00   9.62320   2 ;     C3-   O31-   P31-   O32
 15035  15038  15039  15060      9     0.00   0.00000   0 ;     C3-   O31-   P31-   O33
 15035  15038  15039  15060      9     0.00   0.00000   0 ;     C3-   O31-   P31-   O33
 15035  15038  15039  15060      9     0.00   0.00000   0 ;     C3-   O31-   P31-   O33
 15035  15038  15039  15060      9     0.00   0.00000   0 ;     C3-   O31-   P31-   O33
 15035  15038  15039  15060      9     0.00   0.83680   2 ;     C3-   O31-   P31-   O33
 15035  15038  15039  15061      9     0.00   0.00000   0 ;     C3-   O31-   P31-   O34
 15035  15038  15039  15061      9     0.00   0.00000   0 ;     C3-   O31-   P31-   O34
 15035  15038  15039  15061      9     0.00   0.00000   0 ;     C3-   O31-   P31-   O34
 15035  15038  15039  15061      9     0.00   0.00000   0 ;     C3-   O31-   P31-   O34
 15035  15038  15039  15061      9     0.00   0.83680   2 ;     C3-   O31-   P31-   O34
 15036  15035  15033  15062      9     0.00   0.00000   0 ;     HA-    C3-    C2-   O21
 15036  15035  15033  15062      9     0.00   1.04600   1 ;     HA-    C3-    C2-   O21
 15036  15035  15038  15039      9     0.00   0.00000   0 ;     HA-    C3-   O31-   P31
 15036  15035  15038  15039      9     0.00   0.00000   0 ;     HA-    C3-   O31-   P31
 15036  15035  15038  15039      9     0.00   0.00000   0 ;     HA-    C3-   O31-   P31
 15036  15035  15038  15039      9     0.00   0.00000   0 ;     HA-    C3-   O31-   P31
 15036  15035  15038  15039      9     0.00   1.60247   3 ;     HA-    C3-   O31-   P31
 15037  15035  15033  15062      9     0.00   0.00000   0 ;     HB-    C3-    C2-   O21
 15037  15035  15033  15062      9     0.00   1.04600   1 ;     HB-    C3-    C2-   O21
 15037  15035  15038  15039      9     0.00   0.00000   0 ;     HB-    C3-   O31-   P31
 15037  15035  15038  15039      9     0.00   0.00000   0 ;     HB-    C3-   O31-   P31
 15037  15035  15038  15039      9     0.00   0.00000   0 ;     HB-    C3-   O31-   P31
 15037  15035  15038  15039      9     0.00   0.00000   0 ;     HB-    C3-   O31-   P31
 15037  15035  15038  15039      9     0.00   1.60247   3 ;     HB-    C3-   O31-   P31
 15038  15035  15033  15062      9     0.00   0.00000   0 ;    O31-    C3-    C2-   O21
 15038  15035  15033  15062      9     0.00   0.00000   0 ;    O31-    C3-    C2-   O21
 15038  15035  15033  15062      9     0.00   0.00000   0 ;    O31-    C3-    C2-   O21
 15038  15035  15033  15062      9     0.00   0.00000   0 ;    O31-    C3-    C2-   O21
 15038  15035  15033  15062      9     0.00   0.00000   0 ;    O31-    C3-    C2-   O21
 15038  15039  15040  15041      9     0.00   2.51040   3 ;    O31-   P31-   O32-   C31
 15038  15039  15040  15041      9     0.00   9.62320   2 ;    O31-   P31-   O32-   C31
 15039  15040  15041  15042      9     0.00   0.00000   0 ;    P31-   O32-   C31-   H1A
 15039  15040  15041  15042      9     0.00   0.00000   0 ;    P31-   O32-   C31-   H1A
 15039  15040  15041  15042      9     0.00   0.00000   0 ;    P31-   O32-   C31-   H1A
 15039  15040  15041  15042      9     0.00   0.00000   0 ;    P31-   O32-   C31-   H1A
 15039  15040  15041  15042      9     0.00   1.60247   3 ;    P31-   O32-   C31-   H1A
 15039  15040  15041  15043      9     0.00   0.00000   0 ;    P31-   O32-   C31-   H1B
 15039  15040  15041  15043      9     0.00   0.00000   0 ;    P31-   O32-   C31-   H1B
 15039  15040  15041  15043      9     0.00   0.00000   0 ;    P31-   O32-   C31-   H1B
 15039  15040  15041  15043      9     0.00   0.00000   0 ;    P31-   O32-   C31-   H1B
 15039  15040  15041  15043      9     0.00   1.60247   3 ;    P31-   O32-   C31-   H1B
 15039  15040  15041  15044      9     0.00   0.00000   0 ;    P31-   O32-   C31-   C32
 15039  15040  15041  15044      9   180.00  -3.34720   2 ;    P31-   O32-   C31-   C32
 15040  15041  15044  15045      9     0.00   0.65270   3 ;    O32-   C31-   C32-   H2A
 15040  15041  15044  15046      9     0.00   0.65270   3 ;    O32-   C31-   C32-   H2B
 15040  15041  15044  15047      9     0.00   4.18400   3 ;    O32-   C31-   C32-   N31
 15041  15040  15039  15060      9     0.00   0.00000   0 ;    C31-   O32-   P31-   O33
 15041  15040  15039  15060      9     0.00   0.00000   0 ;    C31-   O32-   P31-   O33
 15041  15040  15039  15060      9     0.00   0.00000   0 ;    C31-   O32-   P31-   O33
 15041  15040  15039  15060      9     0.00   0.00000   0 ;    C31-   O32-   P31-   O33
 15041  15040  15039  15060      9     0.00   0.83680   2 ;    C31-   O32-   P31-   O33
 15041  15040  15039  15061      9     0.00   0.00000   0 ;    C31-   O32-   P31-   O34
 15041  15040  15039  15061      9     0.00   0.00000   0 ;    C31-   O32-   P31-   O34
 15041  15040  15039  15061      9     0.00   0.00000   0 ;    C31-   O32-   P31-   O34
 15041  15040  15039  15061      9     0.00   0.00000   0 ;    C31-   O32-   P31-   O34
 15041  15040  15039  15061      9     0.00   0.83680   2 ;    C31-   O32-   P31-   O34
 15041  15044  15047  15048      9     0.00   0.65270   3 ;    C31-   C32-   N31-   C33
 15041  15044  15047  15052      9     0.00   0.65270   3 ;    C31-   C32-   N31-   C34
 15041  15044  15047  15056      9     0.00   0.65270   3 ;    C31-   C32-   N31-   C35
 15042  15041  15044  15045      9     0.00   0.65270   3 ;    H1A-   C31-   C32-   H2A
 15042  15041  15044  15046      9     0.00   0.65270   3 ;    H1A-   C31-   C32-   H2B
 15042  15041  15044  15047      9     0.00   0.65270   3 ;    H1A-   C31-   C32-   N31
 15043  15041  15044  15045      9     0.00   0.65270   3 ;    H1B-   C31-   C32-   H2A
 15043  15041  15044  15046      9     0.00   0.65270   3 ;    H1B-   C31-   C32-   H2B
 15043  15041  15044  15047      9     0.00   0.65270   3 ;    H1B-   C31-   C32-   N31
 15044  15047  15048  15049      9     0.00   0.65270   3 ;    C32-   N31-   C33-   H3A
 15044  15047  15048  15050      9     0.00   0.65270   3 ;    C32-   N31-   C33-   H3B
 15044  15047  15048  15051      9     0.00   0.65270   3 ;    C32-   N31-   C33-   H3C
 15044  15047  15052  15053      9     0.00   0.65270   3 ;    C32-   N31-   C34-   H4A
 15044  15047  15052  15054      9     0.00   0.65270   3 ;    C32-   N31-   C34-   H4B
 15044  15047  15052  15055      9     0.00   0.65270   3 ;    C32-   N31-   C34-   H4C
 15044  15047  15056  15057      9     0.00   0.65270   3 ;    C32-   N31-   C35-   H5A
 15044  15047  15056  15058      9     0.00   0.65270   3 ;    C32-   N31-   C35-   H5B
 15044  15047  15056  15059      9     0.00   0.65270   3 ;    C32-   N31-   C35-   H5C
 15045  15044  15047  15048      9     0.00   0.65270   3 ;    H2A-   C32-   N31-   C33
 15045  15044  15047  15052      9     0.00   0.65270   3 ;    H2A-   C32-   N31-   C34
 15045  15044  15047  15056      9     0.00   0.65270   3 ;    H2A-   C32-   N31-   C35
 15046  15044  15047  15048      9     0.00   0.65270   3 ;    H2B-   C32-   N31-   C33
 15046  15044  15047  15052      9     0.00   0.65270   3 ;    H2B-   C32-   N31-   C34
 15046  15044  15047  15056      9     0.00   0.65270   3 ;    H2B-   C32-   N31-   C35
 15048  15047  15052  15053      9     0.00   0.65270   3 ;    C33-   N31-   C34-   H4A
 15048  15047  15052  15054      9     0.00   0.65270   3 ;    C33-   N31-   C34-   H4B
 15048  15047  15052  15055      9     0.00   0.65270   3 ;    C33-   N31-   C34-   H4C
 15048  15047  15056  15057      9     0.00   0.65270   3 ;    C33-   N31-   C35-   H5A
 15048  15047  15056  15058      9     0.00   0.65270   3 ;    C33-   N31-   C35-   H5B
 15048  15047  15056  15059      9     0.00   0.65270   3 ;    C33-   N31-   C35-   H5C
 15049  15048  15047  15052      9     0.00   0.65270   3 ;    H3A-   C33-   N31-   C34
 15049  15048  15047  15056      9     0.00   0.65270   3 ;    H3A-   C33-   N31-   C35
 15050  15048  15047  15052      9     0.00   0.65270   3 ;    H3B-   C33-   N31-   C34
 15050  15048  15047  15056      9     0.00   0.65270   3 ;    H3B-   C33-   N31-   C35
 15051  15048  15047  15052      9     0.00   0.65270   3 ;    H3C-   C33-   N31-   C34
 15051  15048  15047  15056      9     0.00   0.65270   3 ;    H3C-   C33-   N31-   C35
 15052  15047  15056  15057      9     0.00   0.65270   3 ;    C34-   N31-   C35-   H5A
 15052  15047  15056  15058      9     0.00   0.65270   3 ;    C34-   N31-   C35-   H5B
 15052  15047  15056  15059      9     0.00   0.65270   3 ;    C34-   N31-   C35-   H5C
 15053  15052  15047  15056      9     0.00   0.65270   3 ;    H4A-   C34-   N31-   C35
 15054  15052  15047  15056      9     0.00   0.65270   3 ;    H4B-   C34-   N31-   C35
 15055  15052  15047  15056      9     0.00   0.65270   3 ;    H4C-   C34-   N31-   C35
 15062  15063  15102  15099      9   180.00   0.00000   2 ;    O21-   C21-   C12-   C13
 15062  15063  15102  15103      9   180.00   0.00000   2 ;    O21-   C21-   C12-   H2R
 15062  15063  15102  15104      9   180.00   0.00000   2 ;    O21-   C21-   C12-   H2S
 15063  15102  15099  15096      9     0.00   0.65270   3 ;    C21-   C12-   C13-   C14
 15063  15102  15099  15100      9     0.00   0.65270   3 ;    C21-   C12-   C13-   H3R
 15063  15102  15099  15101      9     0.00   0.65270   3 ;    C21-   C12-   C13-   H3S
 15064  15063  15102  15099      9   180.00   0.00000   2 ;    O22-   C21-   C12-   C13
 15064  15063  15102  15103      9     0.00   3.34720   1 ;    O22-   C21-   C12-   H2R
 15064  15063  15102  15103      9   180.00   0.33472   3 ;    O22-   C21-   C12-   H2R
 15064  15063  15102  15104      9     0.00   3.34720   1 ;    O22-   C21-   C12-   H2S
 15064  15063  15102  15104      9   180.00   0.33472   3 ;    O22-   C21-   C12-   H2S
 15065  15066  15069  15070      9     0.00   0.62760   3 ;   H14T-  C114-  C113-  H13R
 15065  15066  15069  15071      9     0.00   0.62760   3 ;   H14T-  C114-  C113-  H13S
 15065  15066  15069  15072      9     0.00   0.66944   3 ;   H14T-  C114-  C113-  C112
 15066  15069  15072  15073      9     0.00   0.66944   3 ;   C114-  C113-  C112-  H12R
 15066  15069  15072  15074      9     0.00   0.66944   3 ;   C114-  C113-  C112-  H12S
 15066  15069  15072  15075      9     0.00   0.41840   1 ;   C114-  C113-  C112-  C111
 15066  15069  15072  15075      9     0.00   0.41840   2 ;   C114-  C113-  C112-  C111
 15066  15069  15072  15075      9     0.00   0.41840   4 ;   C114-  C113-  C112-  C111
 15066  15069  15072  15075      9     0.00   0.41840   5 ;   C114-  C113-  C112-  C111
 15066  15069  15072  15075      9     0.00   1.25520   3 ;   C114-  C113-  C112-  C111
 15067  15066  15069  15070      9     0.00   0.62760   3 ;   H14R-  C114-  C113-  H13R
 15067  15066  15069  15071      9     0.00   0.62760   3 ;   H14R-  C114-  C113-  H13S
 15067  15066  15069  15072      9     0.00   0.66944   3 ;   H14R-  C114-  C113-  C112
 15068  15066  15069  15070      9     0.00   0.62760   3 ;   H14S-  C114-  C113-  H13R
 15068  15066  15069  15071      9     0.00   0.62760   3 ;   H14S-  C114-  C113-  H13S
 15068  15066  15069  15072      9     0.00   0.66944   3 ;   H14S-  C114-  C113-  C112
 15069  15072  15075  15076      9     0.00   0.66944   3 ;   C113-  C112-  C111-  H11R
 15069  15072  15075  15077      9     0.00   0.66944   3 ;   C113-  C112-  C111-  H11S
 15069  15072  15075  15078      9     0.00   0.41840   1 ;   C113-  C112-  C111-  C110
 15069  15072  15075  15078      9     0.00   0.41840   2 ;   C113-  C112-  C111-  C110
 15069  15072  15075  15078      9     0.00   0.41840   4 ;   C113-  C112-  C111-  C110
 15069  15072  15075  15078      9     0.00   0.41840   5 ;   C113-  C112-  C111-  C110
 15069  15072  15075  15078      9     0.00   1.25520   3 ;   C113-  C112-  C111-  C110
 15070  15069  15072  15073      9     0.00   0.62760   3 ;   H13R-  C113-  C112-  H12R
 15070  15069  15072  15074      9     0.00   0.62760   3 ;   H13R-  C113-  C112-  H12S
 15070  15069  15072  15075      9     0.00   0.66944   3 ;   H13R-  C113-  C112-  C111
 15071  15069  15072  15073      9     0.00   0.62760   3 ;   H13S-  C113-  C112-  H12R
 15071  15069  15072  15074      9     0.00   0.62760   3 ;   H13S-  C113-  C112-  H12S
 15071  15069  15072  15075      9     0.00   0.66944   3 ;   H13S-  C113-  C112-  C111
 15072  15075  15078  15079      9     0.00   0.66944   3 ;   C112-  C111-  C110-  H10R
 15072  15075  15078  15080      9     0.00   0.66944   3 ;   C112-  C111-  C110-  H10S
 15072  15075  15078  15081      9     0.00   0.41840   1 ;   C112-  C111-  C110-   C19
 15072  15075  15078  15081      9     0.00   0.41840   2 ;   C112-  C111-  C110-   C19
 15072  15075  15078  15081      9     0.00   0.41840   4 ;   C112-  C111-  C110-   C19
 15072  15075  15078  15081      9     0.00   0.41840   5 ;   C112-  C111-  C110-   C19
 15072  15075  15078  15081      9     0.00   1.25520   3 ;   C112-  C111-  C110-   C19
 15073  15072  15075  15076      9     0.00   0.62760   3 ;   H12R-  C112-  C111-  H11R
 15073  15072  15075  15077      9     0.00   0.62760   3 ;   H12R-  C112-  C111-  H11S
 15073  15072  15075  15078      9     0.00   0.66944   3 ;   H12R-  C112-  C111-  C110
 15074  15072  15075  15076      9     0.00   0.62760   3 ;   H12S-  C112-  C111-  H11R
 15074  15072  15075  15077      9     0.00   0.62760   3 ;   H12S-  C112-  C111-  H11S
 15074  15072  15075  15078      9     0.00   0.66944   3 ;   H12S-  C112-  C111-  C110
 15075  15078  15081  15082      9     0.00   0.66944   3 ;   C111-  C110-   C19-   H9R
 15075  15078  15081  15083      9     0.00   0.66944   3 ;   C111-  C110-   C19-   H9S
 15075  15078  15081  15084      9     0.00   0.41840   1 ;   C111-  C110-   C19-   C18
 15075  15078  15081  15084      9     0.00   0.41840   2 ;   C111-  C110-   C19-   C18
 15075  15078  15081  15084      9     0.00   0.41840   4 ;   C111-  C110-   C19-   C18
 15075  15078  15081  15084      9     0.00   0.41840   5 ;   C111-  C110-   C19-   C18
 15075  15078  15081  15084      9     0.00   1.25520   3 ;   C111-  C110-   C19-   C18
 15076  15075  15078  15079      9     0.00   0.62760   3 ;   H11R-  C111-  C110-  H10R
 15076  15075  15078  15080      9     0.00   0.62760   3 ;   H11R-  C111-  C110-  H10S
 15076  15075  15078  15081      9     0.00   0.66944   3 ;   H11R-  C111-  C110-   C19
 15077  15075  15078  15079      9     0.00   0.62760   3 ;   H11S-  C111-  C110-  H10R
 15077  15075  15078  15080      9     0.00   0.62760   3 ;   H11S-  C111-  C110-  H10S
 15077  15075  15078  15081      9     0.00   0.66944   3 ;   H11S-  C111-  C110-   C19
 15078  15081  15084  15085      9     0.00   0.66944   3 ;   C110-   C19-   C18-   H8R
 15078  15081  15084  15086      9     0.00   0.66944   3 ;   C110-   C19-   C18-   H8S
 15078  15081  15084  15087      9     0.00   0.41840   1 ;   C110-   C19-   C18-   C17
 15078  15081  15084  15087      9     0.00   0.41840   2 ;   C110-   C19-   C18-   C17
 15078  15081  15084  15087      9     0.00   0.41840   4 ;   C110-   C19-   C18-   C17
 15078  15081  15084  15087      9     0.00   0.41840   5 ;   C110-   C19-   C18-   C17
 15078  15081  15084  15087      9     0.00   1.25520   3 ;   C110-   C19-   C18-   C17
 15079  15078  15081  15082      9     0.00   0.62760   3 ;   H10R-  C110-   C19-   H9R
 15079  15078  15081  15083      9     0.00   0.62760   3 ;   H10R-  C110-   C19-   H9S
 15079  15078  15081  15084      9     0.00   0.66944   3 ;   H10R-  C110-   C19-   C18
 15080  15078  15081  15082      9     0.00   0.62760   3 ;   H10S-  C110-   C19-   H9R
 15080  15078  15081  15083      9     0.00   0.62760   3 ;   H10S-  C110-   C19-   H9S
 15080  15078  15081  15084      9     0.00   0.66944   3 ;   H10S-  C110-   C19-   C18
 15081  15084  15087  15088      9     0.00   0.66944   3 ;    C19-   C18-   C17-   H7R
 15081  15084  15087  15089      9     0.00   0.66944   3 ;    C19-   C18-   C17-   H7S
 15081  15084  15087  15090      9     0.00   0.41840   1 ;    C19-   C18-   C17-   C16
 15081  15084  15087  15090      9     0.00   0.41840   2 ;    C19-   C18-   C17-   C16
 15081  15084  15087  15090      9     0.00   0.41840   4 ;    C19-   C18-   C17-   C16
 15081  15084  15087  15090      9     0.00   0.41840   5 ;    C19-   C18-   C17-   C16
 15081  15084  15087  15090      9     0.00   1.25520   3 ;    C19-   C18-   C17-   C16
 15082  15081  15084  15085      9     0.00   0.62760   3 ;    H9R-   C19-   C18-   H8R
 15082  15081  15084  15086      9     0.00   0.62760   3 ;    H9R-   C19-   C18-   H8S
 15082  15081  15084  15087      9     0.00   0.66944   3 ;    H9R-   C19-   C18-   C17
 15083  15081  15084  15085      9     0.00   0.62760   3 ;    H9S-   C19-   C18-   H8R
 15083  15081  15084  15086      9     0.00   0.62760   3 ;    H9S-   C19-   C18-   H8S
 15083  15081  15084  15087      9     0.00   0.66944   3 ;    H9S-   C19-   C18-   C17
 15084  15087  15090  15091      9     0.00   0.66944   3 ;    C18-   C17-   C16-   H6R
 15084  15087  15090  15092      9     0.00   0.66944   3 ;    C18-   C17-   C16-   H6S
 15084  15087  15090  15093      9     0.00   0.41840   1 ;    C18-   C17-   C16-   C15
 15084  15087  15090  15093      9     0.00   0.41840   2 ;    C18-   C17-   C16-   C15
 15084  15087  15090  15093      9     0.00   0.41840   4 ;    C18-   C17-   C16-   C15
 15084  15087  15090  15093      9     0.00   0.41840   5 ;    C18-   C17-   C16-   C15
 15084  15087  15090  15093      9     0.00   1.25520   3 ;    C18-   C17-   C16-   C15
 15085  15084  15087  15088      9     0.00   0.62760   3 ;    H8R-   C18-   C17-   H7R
 15085  15084  15087  15089      9     0.00   0.62760   3 ;    H8R-   C18-   C17-   H7S
 15085  15084  15087  15090      9     0.00   0.66944   3 ;    H8R-   C18-   C17-   C16
 15086  15084  15087  15088      9     0.00   0.62760   3 ;    H8S-   C18-   C17-   H7R
 15086  15084  15087  15089      9     0.00   0.62760   3 ;    H8S-   C18-   C17-   H7S
 15086  15084  15087  15090      9     0.00   0.66944   3 ;    H8S-   C18-   C17-   C16
 15087  15090  15093  15094      9     0.00   0.66944   3 ;    C17-   C16-   C15-   H5R
 15087  15090  15093  15095      9     0.00   0.66944   3 ;    C17-   C16-   C15-   H5S
 15087  15090  15093  15096      9     0.00   0.41840   1 ;    C17-   C16-   C15-   C14
 15087  15090  15093  15096      9     0.00   0.41840   2 ;    C17-   C16-   C15-   C14
 15087  15090  15093  15096      9     0.00   0.41840   4 ;    C17-   C16-   C15-   C14
 15087  15090  15093  15096      9     0.00   0.41840   5 ;    C17-   C16-   C15-   C14
 15087  15090  15093  15096      9     0.00   1.25520   3 ;    C17-   C16-   C15-   C14
 15088  15087  15090  15091      9     0.00   0.62760   3 ;    H7R-   C17-   C16-   H6R
 15088  15087  15090  15092      9     0.00   0.62760   3 ;    H7R-   C17-   C16-   H6S
 15088  15087  15090  15093      9     0.00   0.66944   3 ;    H7R-   C17-   C16-   C15
 15089  15087  15090  15091      9     0.00   0.62760   3 ;    H7S-   C17-   C16-   H6R
 15089  15087  15090  15092      9     0.00   0.62760   3 ;    H7S-   C17-   C16-   H6S
 15089  15087  15090  15093      9     0.00   0.66944   3 ;    H7S-   C17-   C16-   C15
 15090  15093  15096  15097      9     0.00   0.66944   3 ;    C16-   C15-   C14-   H4R
 15090  15093  15096  15098      9     0.00   0.66944   3 ;    C16-   C15-   C14-   H4S
 15090  15093  15096  15099      9     0.00   0.41840   1 ;    C16-   C15-   C14-   C13
 15090  15093  15096  15099      9     0.00   0.41840   2 ;    C16-   C15-   C14-   C13
 15090  15093  15096  15099      9     0.00   0.41840   4 ;    C16-   C15-   C14-   C13
 15090  15093  15096  15099      9     0.00   0.41840   5 ;    C16-   C15-   C14-   C13
 15090  15093  15096  15099      9     0.00   1.25520   3 ;    C16-   C15-   C14-   C13
 15091  15090  15093  15094      9     0.00   0.62760   3 ;    H6R-   C16-   C15-   H5R
 15091  15090  15093  15095      9     0.00   0.62760   3 ;    H6R-   C16-   C15-   H5S
 15091  15090  15093  15096      9     0.00   0.66944   3 ;    H6R-   C16-   C15-   C14
 15092  15090  15093  15094      9     0.00   0.62760   3 ;    H6S-   C16-   C15-   H5R
 15092  15090  15093  15095      9     0.00   0.62760   3 ;    H6S-   C16-   C15-   H5S
 15092  15090  15093  15096      9     0.00   0.66944   3 ;    H6S-   C16-   C15-   C14
 15093  15096  15099  15100      9     0.00   0.66944   3 ;    C15-   C14-   C13-   H3R
 15093  15096  15099  15101      9     0.00   0.66944   3 ;    C15-   C14-   C13-   H3S
 15093  15096  15099  15102      9     0.00   0.41840   1 ;    C15-   C14-   C13-   C12
 15093  15096  15099  15102      9     0.00   0.41840   2 ;    C15-   C14-   C13-   C12
 15093  15096  15099  15102      9     0.00   0.41840   4 ;    C15-   C14-   C13-   C12
 15093  15096  15099  15102      9     0.00   0.41840   5 ;    C15-   C14-   C13-   C12
 15093  15096  15099  15102      9     0.00   1.25520   3 ;    C15-   C14-   C13-   C12
 15094  15093  15096  15097      9     0.00   0.62760   3 ;    H5R-   C15-   C14-   H4R
 15094  15093  15096  15098      9     0.00   0.62760   3 ;    H5R-   C15-   C14-   H4S
 15094  15093  15096  15099      9     0.00   0.66944   3 ;    H5R-   C15-   C14-   C13
 15095  15093  15096  15097      9     0.00   0.62760   3 ;    H5S-   C15-   C14-   H4R
 15095  15093  15096  15098      9     0.00   0.62760   3 ;    H5S-   C15-   C14-   H4S
 15095  15093  15096  15099      9     0.00   0.66944   3 ;    H5S-   C15-   C14-   C13
 15096  15099  15102  15103      9     0.00   0.66944   3 ;    C14-   C13-   C12-   H2R
 15096  15099  15102  15104      9     0.00   0.66944   3 ;    C14-   C13-   C12-   H2S
 15097  15096  15099  15100      9     0.00   0.62760   3 ;    H4R-   C14-   C13-   H3R
 15097  15096  15099  15101      9     0.00   0.62760   3 ;    H4R-   C14-   C13-   H3S
 15097  15096  15099  15102      9     0.00   0.66944   3 ;    H4R-   C14-   C13-   C12
 15098  15096  15099  15100      9     0.00   0.62760   3 ;    H4S-   C14-   C13-   H3R
 15098  15096  15099  15101      9     0.00   0.62760   3 ;    H4S-   C14-   C13-   H3S
 15098  15096  15099  15102      9     0.00   0.66944   3 ;    H4S-   C14-   C13-   C12
 15100  15099  15102  15103      9     0.00   0.62760   3 ;    H3R-   C13-   C12-   H2R
 15100  15099  15102  15104      9     0.00   0.62760   3 ;    H3R-   C13-   C12-   H2S
 15101  15099  15102  15103      9     0.00   0.62760   3 ;    H3S-   C13-   C12-   H2R
 15101  15099  15102  15104      9     0.00   0.62760   3 ;    H3S-   C13-   C12-   H2S
; treated as usual propers in GROMACS since Phase angle diff from 0 or 180 degrees
;    i      j      k      l   func   phase     kd      pn
    41     43     44     47      4   240.00  -1.25520   2 ;    C11-   O11-    C1-    C2
    41     43     44     47      4   300.00  -0.83680   3 ;    C11-   O11-    C1-    C2
    44     47     49     52      4    60.00   1.67360   3 ;     C1-    C2-    C3-   O31
    44     47     49     52      4   120.00   0.83680   2 ;     C1-    C2-    C3-   O31
    44     47     76     77      4   240.00  -1.25520   2 ;     C1-    C2-   O21-   C21
    44     47     76     77      4   300.00  -0.83680   3 ;     C1-    C2-   O21-   C21
    49     47     76     77      4   240.00  -1.25520   2 ;     C3-    C2-   O21-   C21
    49     47     76     77      4   300.00  -0.83680   3 ;     C3-    C2-   O21-   C21
   159    161    162    165      4   240.00  -1.25520   2 ;    C11-   O11-    C1-    C2
   159    161    162    165      4   300.00  -0.83680   3 ;    C11-   O11-    C1-    C2
   162    165    167    170      4    60.00   1.67360   3 ;     C1-    C2-    C3-   O31
   162    165    167    170      4   120.00   0.83680   2 ;     C1-    C2-    C3-   O31
   162    165    194    195      4   240.00  -1.25520   2 ;     C1-    C2-   O21-   C21
   162    165    194    195      4   300.00  -0.83680   3 ;     C1-    C2-   O21-   C21
   167    165    194    195      4   240.00  -1.25520   2 ;     C3-    C2-   O21-   C21
   167    165    194    195      4   300.00  -0.83680   3 ;     C3-    C2-   O21-   C21
   277    279    280    283      4   240.00  -1.25520   2 ;    C11-   O11-    C1-    C2
   277    279    280    283      4   300.00  -0.83680   3 ;    C11-   O11-    C1-    C2
   280    283    285    288      4    60.00   1.67360   3 ;     C1-    C2-    C3-   O31
   280    283    285    288      4   120.00   0.83680   2 ;     C1-    C2-    C3-   O31
   280    283    312    313      4   240.00  -1.25520   2 ;     C1-    C2-   O21-   C21
   280    283    312    313      4   300.00  -0.83680   3 ;     C1-    C2-   O21-   C21
   285    283    312    313      4   240.00  -1.25520   2 ;     C3-    C2-   O21-   C21
   285    283    312    313      4   300.00  -0.83680   3 ;     C3-    C2-   O21-   C21
   395    397    398    401      4   240.00  -1.25520   2 ;    C11-   O11-    C1-    C2
   395    397    398    401      4   300.00  -0.83680   3 ;    C11-   O11-    C1-    C2
   398    401    403    406      4    60.00   1.67360   3 ;     C1-    C2-    C3-   O31
   398    401    403    406      4   120.00   0.83680   2 ;     C1-    C2-    C3-   O31
   398    401    430    431      4   240.00  -1.25520   2 ;     C1-    C2-   O21-   C21
   398    401    430    431      4   300.00  -0.83680   3 ;     C1-    C2-   O21-   C21
   403    401    430    431      4   240.00  -1.25520   2 ;     C3-    C2-   O21-   C21
   403    401    430    431      4   300.00  -0.83680   3 ;     C3-    C2-   O21-   C21
   513    515    516    519      4   240.00  -1.25520   2 ;    C11-   O11-    C1-    C2
   513    515    516    519      4   300.00  -0.83680   3 ;    C11-   O11-    C1-    C2
   516    519    521    524      4    60.00   1.67360   3 ;     C1-    C2-    C3-   O31
   516    519    521    524      4   120.00   0.83680   2 ;     C1-    C2-    C3-   O31
   516    519    548    549      4   240.00  -1.25520   2 ;     C1-    C2-   O21-   C21
   516    519    548    549      4   300.00  -0.83680   3 ;     C1-    C2-   O21-   C21
   521    519    548    549      4   240.00  -1.25520   2 ;     C3-    C2-   O21-   C21
   521    519    548    549      4   300.00  -0.83680   3 ;     C3-    C2-   O21-   C21
   631    633    634    637      4   240.00  -1.25520   2 ;    C11-   O11-    C1-    C2
   631    633    634    637      4   300.00  -0.83680   3 ;    C11-   O11-    C1-    C2
   634    637    639    642      4    60.00   1.67360   3 ;     C1-    C2-    C3-   O31
   634    637    639    642      4   120.00   0.83680   2 ;     C1-    C2-    C3-   O31
   634    637    666    667      4   240.00  -1.25520   2 ;     C1-    C2-   O21-   C21
   634    637    666    667      4   300.00  -0.83680   3 ;     C1-    C2-   O21-   C21
   639    637    666    667      4   240.00  -1.25520   2 ;     C3-    C2-   O21-   C21
   639    637    666    667      4   300.00  -0.83680   3 ;     C3-    C2-   O21-   C21
   749    751    752    755      4   240.00  -1.25520   2 ;    C11-   O11-    C1-    C2
   749    751    752    755      4   300.00  -0.83680   3 ;    C11-   O11-    C1-    C2
   752    755    757    760      4    60.00   1.67360   3 ;     C1-    C2-    C3-   O31
   752    755    757    760      4   120.00   0.83680   2 ;     C1-    C2-    C3-   O31
   752    755    784    785      4   240.00  -1.25520   2 ;     C1-    C2-   O21-   C21
   752    755    784    785      4   300.00  -0.83680   3 ;     C1-    C2-   O21-   C21
   757    755    784    785      4   240.00  -1.25520   2 ;     C3-    C2-   O21-   C21
   757    755    784    785      4   300.00  -0.83680   3 ;     C3-    C2-   O21-   C21
   867    869    870    873      4   240.00  -1.25520   2 ;    C11-   O11-    C1-    C2
   867    869    870    873      4   300.00  -0.83680   3 ;    C11-   O11-    C1-    C2
   870    873    875    878      4    60.00   1.67360   3 ;     C1-    C2-    C3-   O31
   870    873    875    878      4   120.00   0.83680   2 ;     C1-    C2-    C3-   O31
   870    873    902    903      4   240.00  -1.25520   2 ;     C1-    C2-   O21-   C21
   870    873    902    903      4   300.00  -0.83680   3 ;     C1-    C2-   O21-   C21
   875    873    902    903      4   240.00  -1.25520   2 ;     C3-    C2-   O21-   C21
   875    873    902    903      4   300.00  -0.83680   3 ;     C3-    C2-   O21-   C21
   985    987    988    991      4   240.00  -1.25520   2 ;    C11-   O11-    C1-    C2
   985    987    988    991      4   300.00  -0.83680   3 ;    C11-   O11-    C1-    C2
   988    991    993    996      4    60.00   1.67360   3 ;     C1-    C2-    C3-   O31
   988    991    993    996      4   120.00   0.83680   2 ;     C1-    C2-    C3-   O31
   988    991   1020   1021      4   240.00  -1.25520   2 ;     C1-    C2-   O21-   C21
   988    991   1020   1021      4   300.00  -0.83680   3 ;     C1-    C2-   O21-   C21
   993    991   1020   1021      4   240.00  -1.25520   2 ;     C3-    C2-   O21-   C21
   993    991   1020   1021      4   300.00  -0.83680   3 ;     C3-    C2-   O21-   C21
  1103   1105   1106   1109      4   240.00  -1.25520   2 ;    C11-   O11-    C1-    C2
  1103   1105   1106   1109      4   300.00  -0.83680   3 ;    C11-   O11-    C1-    C2
  1106   1109   1111   1114      4    60.00   1.67360   3 ;     C1-    C2-    C3-   O31
  1106   1109   1111   1114      4   120.00   0.83680   2 ;     C1-    C2-    C3-   O31
  1106   1109   1138   1139      4   240.00  -1.25520   2 ;     C1-    C2-   O21-   C21
  1106   1109   1138   1139      4   300.00  -0.83680   3 ;     C1-    C2-   O21-   C21
  1111   1109   1138   1139      4   240.00  -1.25520   2 ;     C3-    C2-   O21-   C21
  1111   1109   1138   1139      4   300.00  -0.83680   3 ;     C3-    C2-   O21-   C21
  1221   1223   1224   1227      4   240.00  -1.25520   2 ;    C11-   O11-    C1-    C2
  1221   1223   1224   1227      4   300.00  -0.83680   3 ;    C11-   O11-    C1-    C2
  1224   1227   1229   1232      4    60.00   1.67360   3 ;     C1-    C2-    C3-   O31
  1224   1227   1229   1232      4   120.00   0.83680   2 ;     C1-    C2-    C3-   O31
  1224   1227   1256   1257      4   240.00  -1.25520   2 ;     C1-    C2-   O21-   C21
  1224   1227   1256   1257      4   300.00  -0.83680   3 ;     C1-    C2-   O21-   C21
  1229   1227   1256   1257      4   240.00  -1.25520   2 ;     C3-    C2-   O21-   C21
  1229   1227   1256   1257      4   300.00  -0.83680   3 ;     C3-    C2-   O21-   C21
  1339   1341   1342   1345      4   240.00  -1.25520   2 ;    C11-   O11-    C1-    C2
  1339   1341   1342   1345      4   300.00  -0.83680   3 ;    C11-   O11-    C1-    C2
  1342   1345   1347   1350      4    60.00   1.67360   3 ;     C1-    C2-    C3-   O31
  1342   1345   1347   1350      4   120.00   0.83680   2 ;     C1-    C2-    C3-   O31
  1342   1345   1374   1375      4   240.00  -1.25520   2 ;     C1-    C2-   O21-   C21
  1342   1345   1374   1375      4   300.00  -0.83680   3 ;     C1-    C2-   O21-   C21
  1347   1345   1374   1375      4   240.00  -1.25520   2 ;     C3-    C2-   O21-   C21
  1347   1345   1374   1375      4   300.00  -0.83680   3 ;     C3-    C2-   O21-   C21
  1457   1459   1460   1463      4   240.00  -1.25520   2 ;    C11-   O11-    C1-    C2
  1457   1459   1460   1463      4   300.00  -0.83680   3 ;    C11-   O11-    C1-    C2
  1460   1463   1465   1468      4    60.00   1.67360   3 ;     C1-    C2-    C3-   O31
  1460   1463   1465   1468      4   120.00   0.83680   2 ;     C1-    C2-    C3-   O31
  1460   1463   1492   1493      4   240.00  -1.25520   2 ;     C1-    C2-   O21-   C21
  1460   1463   1492   1493      4   300.00  -0.83680   3 ;     C1-    C2-   O21-   C21
  1465   1463   1492   1493      4   240.00  -1.25520   2 ;     C3-    C2-   O21-   C21
  1465   1463   1492   1493      4   300.00  -0.83680   3 ;     C3-    C2-   O21-   C21
  1575   1577   1578   1581      4   240.00  -1.25520   2 ;    C11-   O11-    C1-    C2
  1575   1577   1578   1581      4   300.00  -0.83680   3 ;    C11-   O11-    C1-    C2
  1578   1581   1583   1586      4    60.00   1.67360   3 ;     C1-    C2-    C3-   O31
  1578   1581   1583   1586      4   120.00   0.83680   2 ;     C1-    C2-    C3-   O31
  1578   1581   1610   1611      4   240.00  -1.25520   2 ;     C1-    C2-   O21-   C21
  1578   1581   1610   1611      4   300.00  -0.83680   3 ;     C1-    C2-   O21-   C21
  1583   1581   1610   1611      4   240.00  -1.25520   2 ;     C3-    C2-   O21-   C21
  1583   1581   1610   1611      4   300.00  -0.83680   3 ;     C3-    C2-   O21-   C21
  1693   1695   1696   1699      4   240.00  -1.25520   2 ;    C11-   O11-    C1-    C2
  1693   1695   1696   1699      4   300.00  -0.83680   3 ;    C11-   O11-    C1-    C2
  1696   1699   1701   1704      4    60.00   1.67360   3 ;     C1-    C2-    C3-   O31
  1696   1699   1701   1704      4   120.00   0.83680   2 ;     C1-    C2-    C3-   O31
  1696   1699   1728   1729      4   240.00  -1.25520   2 ;     C1-    C2-   O21-   C21
  1696   1699   1728   1729      4   300.00  -0.83680   3 ;     C1-    C2-   O21-   C21
  1701   1699   1728   1729      4   240.00  -1.25520   2 ;     C3-    C2-   O21-   C21
  1701   1699   1728   1729      4   300.00  -0.83680   3 ;     C3-    C2-   O21-   C21
  1811   1813   1814   1817      4   240.00  -1.25520   2 ;    C11-   O11-    C1-    C2
  1811   1813   1814   1817      4   300.00  -0.83680   3 ;    C11-   O11-    C1-    C2
  1814   1817   1819   1822      4    60.00   1.67360   3 ;     C1-    C2-    C3-   O31
  1814   1817   1819   1822      4   120.00   0.83680   2 ;     C1-    C2-    C3-   O31
  1814   1817   1846   1847      4   240.00  -1.25520   2 ;     C1-    C2-   O21-   C21
  1814   1817   1846   1847      4   300.00  -0.83680   3 ;     C1-    C2-   O21-   C21
  1819   1817   1846   1847      4   240.00  -1.25520   2 ;     C3-    C2-   O21-   C21
  1819   1817   1846   1847      4   300.00  -0.83680   3 ;     C3-    C2-   O21-   C21
  1929   1931   1932   1935      4   240.00  -1.25520   2 ;    C11-   O11-    C1-    C2
  1929   1931   1932   1935      4   300.00  -0.83680   3 ;    C11-   O11-    C1-    C2
  1932   1935   1937   1940      4    60.00   1.67360   3 ;     C1-    C2-    C3-   O31
  1932   1935   1937   1940      4   120.00   0.83680   2 ;     C1-    C2-    C3-   O31
  1932   1935   1964   1965      4   240.00  -1.25520   2 ;     C1-    C2-   O21-   C21
  1932   1935   1964   1965      4   300.00  -0.83680   3 ;     C1-    C2-   O21-   C21
  1937   1935   1964   1965      4   240.00  -1.25520   2 ;     C3-    C2-   O21-   C21
  1937   1935   1964   1965      4   300.00  -0.83680   3 ;     C3-    C2-   O21-   C21
  2047   2049   2050   2053      4   240.00  -1.25520   2 ;    C11-   O11-    C1-    C2
  2047   2049   2050   2053      4   300.00  -0.83680   3 ;    C11-   O11-    C1-    C2
  2050   2053   2055   2058      4    60.00   1.67360   3 ;     C1-    C2-    C3-   O31
  2050   2053   2055   2058      4   120.00   0.83680   2 ;     C1-    C2-    C3-   O31
  2050   2053   2082   2083      4   240.00  -1.25520   2 ;     C1-    C2-   O21-   C21
  2050   2053   2082   2083      4   300.00  -0.83680   3 ;     C1-    C2-   O21-   C21
  2055   2053   2082   2083      4   240.00  -1.25520   2 ;     C3-    C2-   O21-   C21
  2055   2053   2082   2083      4   300.00  -0.83680   3 ;     C3-    C2-   O21-   C21
  2165   2167   2168   2171      4   240.00  -1.25520   2 ;    C11-   O11-    C1-    C2
  2165   2167   2168   2171      4   300.00  -0.83680   3 ;    C11-   O11-    C1-    C2
  2168   2171   2173   2176      4    60.00   1.67360   3 ;     C1-    C2-    C3-   O31
  2168   2171   2173   2176      4   120.00   0.83680   2 ;     C1-    C2-    C3-   O31
  2168   2171   2200   2201      4   240.00  -1.25520   2 ;     C1-    C2-   O21-   C21
  2168   2171   2200   2201      4   300.00  -0.83680   3 ;     C1-    C2-   O21-   C21
  2173   2171   2200   2201      4   240.00  -1.25520   2 ;     C3-    C2-   O21-   C21
  2173   2171   2200   2201      4   300.00  -0.83680   3 ;     C3-    C2-   O21-   C21
  2283   2285   2286   2289      4   240.00  -1.25520   2 ;    C11-   O11-    C1-    C2
  2283   2285   2286   2289      4   300.00  -0.83680   3 ;    C11-   O11-    C1-    C2
  2286   2289   2291   2294      4    60.00   1.67360   3 ;     C1-    C2-    C3-   O31
  2286   2289   2291   2294      4   120.00   0.83680   2 ;     C1-    C2-    C3-   O31
  2286   2289   2318   2319      4   240.00  -1.25520   2 ;     C1-    C2-   O21-   C21
  2286   2289   2318   2319      4   300.00  -0.83680   3 ;     C1-    C2-   O21-   C21
  2291   2289   2318   2319      4   240.00  -1.25520   2 ;     C3-    C2-   O21-   C21
  2291   2289   2318   2319      4   300.00  -0.83680   3 ;     C3-    C2-   O21-   C21
  2401   2403   2404   2407      4   240.00  -1.25520   2 ;    C11-   O11-    C1-    C2
  2401   2403   2404   2407      4   300.00  -0.83680   3 ;    C11-   O11-    C1-    C2
  2404   2407   2409   2412      4    60.00   1.67360   3 ;     C1-    C2-    C3-   O31
  2404   2407   2409   2412      4   120.00   0.83680   2 ;     C1-    C2-    C3-   O31
  2404   2407   2436   2437      4   240.00  -1.25520   2 ;     C1-    C2-   O21-   C21
  2404   2407   2436   2437      4   300.00  -0.83680   3 ;     C1-    C2-   O21-   C21
  2409   2407   2436   2437      4   240.00  -1.25520   2 ;     C3-    C2-   O21-   C21
  2409   2407   2436   2437      4   300.00  -0.83680   3 ;     C3-    C2-   O21-   C21
  2519   2521   2522   2525      4   240.00  -1.25520   2 ;    C11-   O11-    C1-    C2
  2519   2521   2522   2525      4   300.00  -0.83680   3 ;    C11-   O11-    C1-    C2
  2522   2525   2527   2530      4    60.00   1.67360   3 ;     C1-    C2-    C3-   O31
  2522   2525   2527   2530      4   120.00   0.83680   2 ;     C1-    C2-    C3-   O31
  2522   2525   2554   2555      4   240.00  -1.25520   2 ;     C1-    C2-   O21-   C21
  2522   2525   2554   2555      4   300.00  -0.83680   3 ;     C1-    C2-   O21-   C21
  2527   2525   2554   2555      4   240.00  -1.25520   2 ;     C3-    C2-   O21-   C21
  2527   2525   2554   2555      4   300.00  -0.83680   3 ;     C3-    C2-   O21-   C21
  2637   2639   2640   2643      4   240.00  -1.25520   2 ;    C11-   O11-    C1-    C2
  2637   2639   2640   2643      4   300.00  -0.83680   3 ;    C11-   O11-    C1-    C2
  2640   2643   2645   2648      4    60.00   1.67360   3 ;     C1-    C2-    C3-   O31
  2640   2643   2645   2648      4   120.00   0.83680   2 ;     C1-    C2-    C3-   O31
  2640   2643   2672   2673      4   240.00  -1.25520   2 ;     C1-    C2-   O21-   C21
  2640   2643   2672   2673      4   300.00  -0.83680   3 ;     C1-    C2-   O21-   C21
  2645   2643   2672   2673      4   240.00  -1.25520   2 ;     C3-    C2-   O21-   C21
  2645   2643   2672   2673      4   300.00  -0.83680   3 ;     C3-    C2-   O21-   C21
  2755   2757   2758   2761      4   240.00  -1.25520   2 ;    C11-   O11-    C1-    C2
  2755   2757   2758   2761      4   300.00  -0.83680   3 ;    C11-   O11-    C1-    C2
  2758   2761   2763   2766      4    60.00   1.67360   3 ;     C1-    C2-    C3-   O31
  2758   2761   2763   2766      4   120.00   0.83680   2 ;     C1-    C2-    C3-   O31
  2758   2761   2790   2791      4   240.00  -1.25520   2 ;     C1-    C2-   O21-   C21
  2758   2761   2790   2791      4   300.00  -0.83680   3 ;     C1-    C2-   O21-   C21
  2763   2761   2790   2791      4   240.00  -1.25520   2 ;     C3-    C2-   O21-   C21
  2763   2761   2790   2791      4   300.00  -0.83680   3 ;     C3-    C2-   O21-   C21
  2873   2875   2876   2879      4   240.00  -1.25520   2 ;    C11-   O11-    C1-    C2
  2873   2875   2876   2879      4   300.00  -0.83680   3 ;    C11-   O11-    C1-    C2
  2876   2879   2881   2884      4    60.00   1.67360   3 ;     C1-    C2-    C3-   O31
  2876   2879   2881   2884      4   120.00   0.83680   2 ;     C1-    C2-    C3-   O31
  2876   2879   2908   2909      4   240.00  -1.25520   2 ;     C1-    C2-   O21-   C21
  2876   2879   2908   2909      4   300.00  -0.83680   3 ;     C1-    C2-   O21-   C21
  2881   2879   2908   2909      4   240.00  -1.25520   2 ;     C3-    C2-   O21-   C21
  2881   2879   2908   2909      4   300.00  -0.83680   3 ;     C3-    C2-   O21-   C21
  2991   2993   2994   2997      4   240.00  -1.25520   2 ;    C11-   O11-    C1-    C2
  2991   2993   2994   2997      4   300.00  -0.83680   3 ;    C11-   O11-    C1-    C2
  2994   2997   2999   3002      4    60.00   1.67360   3 ;     C1-    C2-    C3-   O31
  2994   2997   2999   3002      4   120.00   0.83680   2 ;     C1-    C2-    C3-   O31
  2994   2997   3026   3027      4   240.00  -1.25520   2 ;     C1-    C2-   O21-   C21
  2994   2997   3026   3027      4   300.00  -0.83680   3 ;     C1-    C2-   O21-   C21
  2999   2997   3026   3027      4   240.00  -1.25520   2 ;     C3-    C2-   O21-   C21
  2999   2997   3026   3027      4   300.00  -0.83680   3 ;     C3-    C2-   O21-   C21
  3109   3111   3112   3115      4   240.00  -1.25520   2 ;    C11-   O11-    C1-    C2
  3109   3111   3112   3115      4   300.00  -0.83680   3 ;    C11-   O11-    C1-    C2
  3112   3115   3117   3120      4    60.00   1.67360   3 ;     C1-    C2-    C3-   O31
  3112   3115   3117   3120      4   120.00   0.83680   2 ;     C1-    C2-    C3-   O31
  3112   3115   3144   3145      4   240.00  -1.25520   2 ;     C1-    C2-   O21-   C21
  3112   3115   3144   3145      4   300.00  -0.83680   3 ;     C1-    C2-   O21-   C21
  3117   3115   3144   3145      4   240.00  -1.25520   2 ;     C3-    C2-   O21-   C21
  3117   3115   3144   3145      4   300.00  -0.83680   3 ;     C3-    C2-   O21-   C21
  3227   3229   3230   3233      4   240.00  -1.25520   2 ;    C11-   O11-    C1-    C2
  3227   3229   3230   3233      4   300.00  -0.83680   3 ;    C11-   O11-    C1-    C2
  3230   3233   3235   3238      4    60.00   1.67360   3 ;     C1-    C2-    C3-   O31
  3230   3233   3235   3238      4   120.00   0.83680   2 ;     C1-    C2-    C3-   O31
  3230   3233   3262   3263      4   240.00  -1.25520   2 ;     C1-    C2-   O21-   C21
  3230   3233   3262   3263      4   300.00  -0.83680   3 ;     C1-    C2-   O21-   C21
  3235   3233   3262   3263      4   240.00  -1.25520   2 ;     C3-    C2-   O21-   C21
  3235   3233   3262   3263      4   300.00  -0.83680   3 ;     C3-    C2-   O21-   C21
  3345   3347   3348   3351      4   240.00  -1.25520   2 ;    C11-   O11-    C1-    C2
  3345   3347   3348   3351      4   300.00  -0.83680   3 ;    C11-   O11-    C1-    C2
  3348   3351   3353   3356      4    60.00   1.67360   3 ;     C1-    C2-    C3-   O31
  3348   3351   3353   3356      4   120.00   0.83680   2 ;     C1-    C2-    C3-   O31
  3348   3351   3380   3381      4   240.00  -1.25520   2 ;     C1-    C2-   O21-   C21
  3348   3351   3380   3381      4   300.00  -0.83680   3 ;     C1-    C2-   O21-   C21
  3353   3351   3380   3381      4   240.00  -1.25520   2 ;     C3-    C2-   O21-   C21
  3353   3351   3380   3381      4   300.00  -0.83680   3 ;     C3-    C2-   O21-   C21
  3463   3465   3466   3469      4   240.00  -1.25520   2 ;    C11-   O11-    C1-    C2
  3463   3465   3466   3469      4   300.00  -0.83680   3 ;    C11-   O11-    C1-    C2
  3466   3469   3471   3474      4    60.00   1.67360   3 ;     C1-    C2-    C3-   O31
  3466   3469   3471   3474      4   120.00   0.83680   2 ;     C1-    C2-    C3-   O31
  3466   3469   3498   3499      4   240.00  -1.25520   2 ;     C1-    C2-   O21-   C21
  3466   3469   3498   3499      4   300.00  -0.83680   3 ;     C1-    C2-   O21-   C21
  3471   3469   3498   3499      4   240.00  -1.25520   2 ;     C3-    C2-   O21-   C21
  3471   3469   3498   3499      4   300.00  -0.83680   3 ;     C3-    C2-   O21-   C21
  3581   3583   3584   3587      4   240.00  -1.25520   2 ;    C11-   O11-    C1-    C2
  3581   3583   3584   3587      4   300.00  -0.83680   3 ;    C11-   O11-    C1-    C2
  3584   3587   3589   3592      4    60.00   1.67360   3 ;     C1-    C2-    C3-   O31
  3584   3587   3589   3592      4   120.00   0.83680   2 ;     C1-    C2-    C3-   O31
  3584   3587   3616   3617      4   240.00  -1.25520   2 ;     C1-    C2-   O21-   C21
  3584   3587   3616   3617      4   300.00  -0.83680   3 ;     C1-    C2-   O21-   C21
  3589   3587   3616   3617      4   240.00  -1.25520   2 ;     C3-    C2-   O21-   C21
  3589   3587   3616   3617      4   300.00  -0.83680   3 ;     C3-    C2-   O21-   C21
  3699   3701   3702   3705      4   240.00  -1.25520   2 ;    C11-   O11-    C1-    C2
  3699   3701   3702   3705      4   300.00  -0.83680   3 ;    C11-   O11-    C1-    C2
  3702   3705   3707   3710      4    60.00   1.67360   3 ;     C1-    C2-    C3-   O31
  3702   3705   3707   3710      4   120.00   0.83680   2 ;     C1-    C2-    C3-   O31
  3702   3705   3734   3735      4   240.00  -1.25520   2 ;     C1-    C2-   O21-   C21
  3702   3705   3734   3735      4   300.00  -0.83680   3 ;     C1-    C2-   O21-   C21
  3707   3705   3734   3735      4   240.00  -1.25520   2 ;     C3-    C2-   O21-   C21
  3707   3705   3734   3735      4   300.00  -0.83680   3 ;     C3-    C2-   O21-   C21
  3817   3819   3820   3823      4   240.00  -1.25520   2 ;    C11-   O11-    C1-    C2
  3817   3819   3820   3823      4   300.00  -0.83680   3 ;    C11-   O11-    C1-    C2
  3820   3823   3825   3828      4    60.00   1.67360   3 ;     C1-    C2-    C3-   O31
  3820   3823   3825   3828      4   120.00   0.83680   2 ;     C1-    C2-    C3-   O31
  3820   3823   3852   3853      4   240.00  -1.25520   2 ;     C1-    C2-   O21-   C21
  3820   3823   3852   3853      4   300.00  -0.83680   3 ;     C1-    C2-   O21-   C21
  3825   3823   3852   3853      4   240.00  -1.25520   2 ;     C3-    C2-   O21-   C21
  3825   3823   3852   3853      4   300.00  -0.83680   3 ;     C3-    C2-   O21-   C21
  3935   3937   3938   3941      4   240.00  -1.25520   2 ;    C11-   O11-    C1-    C2
  3935   3937   3938   3941      4   300.00  -0.83680   3 ;    C11-   O11-    C1-    C2
  3938   3941   3943   3946      4    60.00   1.67360   3 ;     C1-    C2-    C3-   O31
  3938   3941   3943   3946      4   120.00   0.83680   2 ;     C1-    C2-    C3-   O31
  3938   3941   3970   3971      4   240.00  -1.25520   2 ;     C1-    C2-   O21-   C21
  3938   3941   3970   3971      4   300.00  -0.83680   3 ;     C1-    C2-   O21-   C21
  3943   3941   3970   3971      4   240.00  -1.25520   2 ;     C3-    C2-   O21-   C21
  3943   3941   3970   3971      4   300.00  -0.83680   3 ;     C3-    C2-   O21-   C21
  4053   4055   4056   4059      4   240.00  -1.25520   2 ;    C11-   O11-    C1-    C2
  4053   4055   4056   4059      4   300.00  -0.83680   3 ;    C11-   O11-    C1-    C2
  4056   4059   4061   4064      4    60.00   1.67360   3 ;     C1-    C2-    C3-   O31
  4056   4059   4061   4064      4   120.00   0.83680   2 ;     C1-    C2-    C3-   O31
  4056   4059   4088   4089      4   240.00  -1.25520   2 ;     C1-    C2-   O21-   C21
  4056   4059   4088   4089      4   300.00  -0.83680   3 ;     C1-    C2-   O21-   C21
  4061   4059   4088   4089      4   240.00  -1.25520   2 ;     C3-    C2-   O21-   C21
  4061   4059   4088   4089      4   300.00  -0.83680   3 ;     C3-    C2-   O21-   C21
  4171   4173   4174   4177      4   240.00  -1.25520   2 ;    C11-   O11-    C1-    C2
  4171   4173   4174   4177      4   300.00  -0.83680   3 ;    C11-   O11-    C1-    C2
  4174   4177   4179   4182      4    60.00   1.67360   3 ;     C1-    C2-    C3-   O31
  4174   4177   4179   4182      4   120.00   0.83680   2 ;     C1-    C2-    C3-   O31
  4174   4177   4206   4207      4   240.00  -1.25520   2 ;     C1-    C2-   O21-   C21
  4174   4177   4206   4207      4   300.00  -0.83680   3 ;     C1-    C2-   O21-   C21
  4179   4177   4206   4207      4   240.00  -1.25520   2 ;     C3-    C2-   O21-   C21
  4179   4177   4206   4207      4   300.00  -0.83680   3 ;     C3-    C2-   O21-   C21
  4289   4291   4292   4295      4   240.00  -1.25520   2 ;    C11-   O11-    C1-    C2
  4289   4291   4292   4295      4   300.00  -0.83680   3 ;    C11-   O11-    C1-    C2
  4292   4295   4297   4300      4    60.00   1.67360   3 ;     C1-    C2-    C3-   O31
  4292   4295   4297   4300      4   120.00   0.83680   2 ;     C1-    C2-    C3-   O31
  4292   4295   4324   4325      4   240.00  -1.25520   2 ;     C1-    C2-   O21-   C21
  4292   4295   4324   4325      4   300.00  -0.83680   3 ;     C1-    C2-   O21-   C21
  4297   4295   4324   4325      4   240.00  -1.25520   2 ;     C3-    C2-   O21-   C21
  4297   4295   4324   4325      4   300.00  -0.83680   3 ;     C3-    C2-   O21-   C21
  4407   4409   4410   4413      4   240.00  -1.25520   2 ;    C11-   O11-    C1-    C2
  4407   4409   4410   4413      4   300.00  -0.83680   3 ;    C11-   O11-    C1-    C2
  4410   4413   4415   4418      4    60.00   1.67360   3 ;     C1-    C2-    C3-   O31
  4410   4413   4415   4418      4   120.00   0.83680   2 ;     C1-    C2-    C3-   O31
  4410   4413   4442   4443      4   240.00  -1.25520   2 ;     C1-    C2-   O21-   C21
  4410   4413   4442   4443      4   300.00  -0.83680   3 ;     C1-    C2-   O21-   C21
  4415   4413   4442   4443      4   240.00  -1.25520   2 ;     C3-    C2-   O21-   C21
  4415   4413   4442   4443      4   300.00  -0.83680   3 ;     C3-    C2-   O21-   C21
  4525   4527   4528   4531      4   240.00  -1.25520   2 ;    C11-   O11-    C1-    C2
  4525   4527   4528   4531      4   300.00  -0.83680   3 ;    C11-   O11-    C1-    C2
  4528   4531   4533   4536      4    60.00   1.67360   3 ;     C1-    C2-    C3-   O31
  4528   4531   4533   4536      4   120.00   0.83680   2 ;     C1-    C2-    C3-   O31
  4528   4531   4560   4561      4   240.00  -1.25520   2 ;     C1-    C2-   O21-   C21
  4528   4531   4560   4561      4   300.00  -0.83680   3 ;     C1-    C2-   O21-   C21
  4533   4531   4560   4561      4   240.00  -1.25520   2 ;     C3-    C2-   O21-   C21
  4533   4531   4560   4561      4   300.00  -0.83680   3 ;     C3-    C2-   O21-   C21
  4643   4645   4646   4649      4   240.00  -1.25520   2 ;    C11-   O11-    C1-    C2
  4643   4645   4646   4649      4   300.00  -0.83680   3 ;    C11-   O11-    C1-    C2
  4646   4649   4651   4654      4    60.00   1.67360   3 ;     C1-    C2-    C3-   O31
  4646   4649   4651   4654      4   120.00   0.83680   2 ;     C1-    C2-    C3-   O31
  4646   4649   4678   4679      4   240.00  -1.25520   2 ;     C1-    C2-   O21-   C21
  4646   4649   4678   4679      4   300.00  -0.83680   3 ;     C1-    C2-   O21-   C21
  4651   4649   4678   4679      4   240.00  -1.25520   2 ;     C3-    C2-   O21-   C21
  4651   4649   4678   4679      4   300.00  -0.83680   3 ;     C3-    C2-   O21-   C21
  4761   4763   4764   4767      4   240.00  -1.25520   2 ;    C11-   O11-    C1-    C2
  4761   4763   4764   4767      4   300.00  -0.83680   3 ;    C11-   O11-    C1-    C2
  4764   4767   4769   4772      4    60.00   1.67360   3 ;     C1-    C2-    C3-   O31
  4764   4767   4769   4772      4   120.00   0.83680   2 ;     C1-    C2-    C3-   O31
  4764   4767   4796   4797      4   240.00  -1.25520   2 ;     C1-    C2-   O21-   C21
  4764   4767   4796   4797      4   300.00  -0.83680   3 ;     C1-    C2-   O21-   C21
  4769   4767   4796   4797      4   240.00  -1.25520   2 ;     C3-    C2-   O21-   C21
  4769   4767   4796   4797      4   300.00  -0.83680   3 ;     C3-    C2-   O21-   C21
  4879   4881   4882   4885      4   240.00  -1.25520   2 ;    C11-   O11-    C1-    C2
  4879   4881   4882   4885      4   300.00  -0.83680   3 ;    C11-   O11-    C1-    C2
  4882   4885   4887   4890      4    60.00   1.67360   3 ;     C1-    C2-    C3-   O31
  4882   4885   4887   4890      4   120.00   0.83680   2 ;     C1-    C2-    C3-   O31
  4882   4885   4914   4915      4   240.00  -1.25520   2 ;     C1-    C2-   O21-   C21
  4882   4885   4914   4915      4   300.00  -0.83680   3 ;     C1-    C2-   O21-   C21
  4887   4885   4914   4915      4   240.00  -1.25520   2 ;     C3-    C2-   O21-   C21
  4887   4885   4914   4915      4   300.00  -0.83680   3 ;     C3-    C2-   O21-   C21
  4997   4999   5000   5003      4   240.00  -1.25520   2 ;    C11-   O11-    C1-    C2
  4997   4999   5000   5003      4   300.00  -0.83680   3 ;    C11-   O11-    C1-    C2
  5000   5003   5005   5008      4    60.00   1.67360   3 ;     C1-    C2-    C3-   O31
  5000   5003   5005   5008      4   120.00   0.83680   2 ;     C1-    C2-    C3-   O31
  5000   5003   5032   5033      4   240.00  -1.25520   2 ;     C1-    C2-   O21-   C21
  5000   5003   5032   5033      4   300.00  -0.83680   3 ;     C1-    C2-   O21-   C21
  5005   5003   5032   5033      4   240.00  -1.25520   2 ;     C3-    C2-   O21-   C21
  5005   5003   5032   5033      4   300.00  -0.83680   3 ;     C3-    C2-   O21-   C21
  5115   5117   5118   5121      4   240.00  -1.25520   2 ;    C11-   O11-    C1-    C2
  5115   5117   5118   5121      4   300.00  -0.83680   3 ;    C11-   O11-    C1-    C2
  5118   5121   5123   5126      4    60.00   1.67360   3 ;     C1-    C2-    C3-   O31
  5118   5121   5123   5126      4   120.00   0.83680   2 ;     C1-    C2-    C3-   O31
  5118   5121   5150   5151      4   240.00  -1.25520   2 ;     C1-    C2-   O21-   C21
  5118   5121   5150   5151      4   300.00  -0.83680   3 ;     C1-    C2-   O21-   C21
  5123   5121   5150   5151      4   240.00  -1.25520   2 ;     C3-    C2-   O21-   C21
  5123   5121   5150   5151      4   300.00  -0.83680   3 ;     C3-    C2-   O21-   C21
  5233   5235   5236   5239      4   240.00  -1.25520   2 ;    C11-   O11-    C1-    C2
  5233   5235   5236   5239      4   300.00  -0.83680   3 ;    C11-   O11-    C1-    C2
  5236   5239   5241   5244      4    60.00   1.67360   3 ;     C1-    C2-    C3-   O31
  5236   5239   5241   5244      4   120.00   0.83680   2 ;     C1-    C2-    C3-   O31
  5236   5239   5268   5269      4   240.00  -1.25520   2 ;     C1-    C2-   O21-   C21
  5236   5239   5268   5269      4   300.00  -0.83680   3 ;     C1-    C2-   O21-   C21
  5241   5239   5268   5269      4   240.00  -1.25520   2 ;     C3-    C2-   O21-   C21
  5241   5239   5268   5269      4   300.00  -0.83680   3 ;     C3-    C2-   O21-   C21
  5351   5353   5354   5357      4   240.00  -1.25520   2 ;    C11-   O11-    C1-    C2
  5351   5353   5354   5357      4   300.00  -0.83680   3 ;    C11-   O11-    C1-    C2
  5354   5357   5359   5362      4    60.00   1.67360   3 ;     C1-    C2-    C3-   O31
  5354   5357   5359   5362      4   120.00   0.83680   2 ;     C1-    C2-    C3-   O31
  5354   5357   5386   5387      4   240.00  -1.25520   2 ;     C1-    C2-   O21-   C21
  5354   5357   5386   5387      4   300.00  -0.83680   3 ;     C1-    C2-   O21-   C21
  5359   5357   5386   5387      4   240.00  -1.25520   2 ;     C3-    C2-   O21-   C21
  5359   5357   5386   5387      4   300.00  -0.83680   3 ;     C3-    C2-   O21-   C21
  5469   5471   5472   5475      4   240.00  -1.25520   2 ;    C11-   O11-    C1-    C2
  5469   5471   5472   5475      4   300.00  -0.83680   3 ;    C11-   O11-    C1-    C2
  5472   5475   5477   5480      4    60.00   1.67360   3 ;     C1-    C2-    C3-   O31
  5472   5475   5477   5480      4   120.00   0.83680   2 ;     C1-    C2-    C3-   O31
  5472   5475   5504   5505      4   240.00  -1.25520   2 ;     C1-    C2-   O21-   C21
  5472   5475   5504   5505      4   300.00  -0.83680   3 ;     C1-    C2-   O21-   C21
  5477   5475   5504   5505      4   240.00  -1.25520   2 ;     C3-    C2-   O21-   C21
  5477   5475   5504   5505      4   300.00  -0.83680   3 ;     C3-    C2-   O21-   C21
  5587   5589   5590   5593      4   240.00  -1.25520   2 ;    C11-   O11-    C1-    C2
  5587   5589   5590   5593      4   300.00  -0.83680   3 ;    C11-   O11-    C1-    C2
  5590   5593   5595   5598      4    60.00   1.67360   3 ;     C1-    C2-    C3-   O31
  5590   5593   5595   5598      4   120.00   0.83680   2 ;     C1-    C2-    C3-   O31
  5590   5593   5622   5623      4   240.00  -1.25520   2 ;     C1-    C2-   O21-   C21
  5590   5593   5622   5623      4   300.00  -0.83680   3 ;     C1-    C2-   O21-   C21
  5595   5593   5622   5623      4   240.00  -1.25520   2 ;     C3-    C2-   O21-   C21
  5595   5593   5622   5623      4   300.00  -0.83680   3 ;     C3-    C2-   O21-   C21
  5705   5707   5708   5711      4   240.00  -1.25520   2 ;    C11-   O11-    C1-    C2
  5705   5707   5708   5711      4   300.00  -0.83680   3 ;    C11-   O11-    C1-    C2
  5708   5711   5713   5716      4    60.00   1.67360   3 ;     C1-    C2-    C3-   O31
  5708   5711   5713   5716      4   120.00   0.83680   2 ;     C1-    C2-    C3-   O31
  5708   5711   5740   5741      4   240.00  -1.25520   2 ;     C1-    C2-   O21-   C21
  5708   5711   5740   5741      4   300.00  -0.83680   3 ;     C1-    C2-   O21-   C21
  5713   5711   5740   5741      4   240.00  -1.25520   2 ;     C3-    C2-   O21-   C21
  5713   5711   5740   5741      4   300.00  -0.83680   3 ;     C3-    C2-   O21-   C21
  5823   5825   5826   5829      4   240.00  -1.25520   2 ;    C11-   O11-    C1-    C2
  5823   5825   5826   5829      4   300.00  -0.83680   3 ;    C11-   O11-    C1-    C2
  5826   5829   5831   5834      4    60.00   1.67360   3 ;     C1-    C2-    C3-   O31
  5826   5829   5831   5834      4   120.00   0.83680   2 ;     C1-    C2-    C3-   O31
  5826   5829   5858   5859      4   240.00  -1.25520   2 ;     C1-    C2-   O21-   C21
  5826   5829   5858   5859      4   300.00  -0.83680   3 ;     C1-    C2-   O21-   C21
  5831   5829   5858   5859      4   240.00  -1.25520   2 ;     C3-    C2-   O21-   C21
  5831   5829   5858   5859      4   300.00  -0.83680   3 ;     C3-    C2-   O21-   C21
  5941   5943   5944   5947      4   240.00  -1.25520   2 ;    C11-   O11-    C1-    C2
  5941   5943   5944   5947      4   300.00  -0.83680   3 ;    C11-   O11-    C1-    C2
  5944   5947   5949   5952      4    60.00   1.67360   3 ;     C1-    C2-    C3-   O31
  5944   5947   5949   5952      4   120.00   0.83680   2 ;     C1-    C2-    C3-   O31
  5944   5947   5976   5977      4   240.00  -1.25520   2 ;     C1-    C2-   O21-   C21
  5944   5947   5976   5977      4   300.00  -0.83680   3 ;     C1-    C2-   O21-   C21
  5949   5947   5976   5977      4   240.00  -1.25520   2 ;     C3-    C2-   O21-   C21
  5949   5947   5976   5977      4   300.00  -0.83680   3 ;     C3-    C2-   O21-   C21
  6059   6061   6062   6065      4   240.00  -1.25520   2 ;    C11-   O11-    C1-    C2
  6059   6061   6062   6065      4   300.00  -0.83680   3 ;    C11-   O11-    C1-    C2
  6062   6065   6067   6070      4    60.00   1.67360   3 ;     C1-    C2-    C3-   O31
  6062   6065   6067   6070      4   120.00   0.83680   2 ;     C1-    C2-    C3-   O31
  6062   6065   6094   6095      4   240.00  -1.25520   2 ;     C1-    C2-   O21-   C21
  6062   6065   6094   6095      4   300.00  -0.83680   3 ;     C1-    C2-   O21-   C21
  6067   6065   6094   6095      4   240.00  -1.25520   2 ;     C3-    C2-   O21-   C21
  6067   6065   6094   6095      4   300.00  -0.83680   3 ;     C3-    C2-   O21-   C21
  6177   6179   6180   6183      4   240.00  -1.25520   2 ;    C11-   O11-    C1-    C2
  6177   6179   6180   6183      4   300.00  -0.83680   3 ;    C11-   O11-    C1-    C2
  6180   6183   6185   6188      4    60.00   1.67360   3 ;     C1-    C2-    C3-   O31
  6180   6183   6185   6188      4   120.00   0.83680   2 ;     C1-    C2-    C3-   O31
  6180   6183   6212   6213      4   240.00  -1.25520   2 ;     C1-    C2-   O21-   C21
  6180   6183   6212   6213      4   300.00  -0.83680   3 ;     C1-    C2-   O21-   C21
  6185   6183   6212   6213      4   240.00  -1.25520   2 ;     C3-    C2-   O21-   C21
  6185   6183   6212   6213      4   300.00  -0.83680   3 ;     C3-    C2-   O21-   C21
  6295   6297   6298   6301      4   240.00  -1.25520   2 ;    C11-   O11-    C1-    C2
  6295   6297   6298   6301      4   300.00  -0.83680   3 ;    C11-   O11-    C1-    C2
  6298   6301   6303   6306      4    60.00   1.67360   3 ;     C1-    C2-    C3-   O31
  6298   6301   6303   6306      4   120.00   0.83680   2 ;     C1-    C2-    C3-   O31
  6298   6301   6330   6331      4   240.00  -1.25520   2 ;     C1-    C2-   O21-   C21
  6298   6301   6330   6331      4   300.00  -0.83680   3 ;     C1-    C2-   O21-   C21
  6303   6301   6330   6331      4   240.00  -1.25520   2 ;     C3-    C2-   O21-   C21
  6303   6301   6330   6331      4   300.00  -0.83680   3 ;     C3-    C2-   O21-   C21
  6413   6415   6416   6419      4   240.00  -1.25520   2 ;    C11-   O11-    C1-    C2
  6413   6415   6416   6419      4   300.00  -0.83680   3 ;    C11-   O11-    C1-    C2
  6416   6419   6421   6424      4    60.00   1.67360   3 ;     C1-    C2-    C3-   O31
  6416   6419   6421   6424      4   120.00   0.83680   2 ;     C1-    C2-    C3-   O31
  6416   6419   6448   6449      4   240.00  -1.25520   2 ;     C1-    C2-   O21-   C21
  6416   6419   6448   6449      4   300.00  -0.83680   3 ;     C1-    C2-   O21-   C21
  6421   6419   6448   6449      4   240.00  -1.25520   2 ;     C3-    C2-   O21-   C21
  6421   6419   6448   6449      4   300.00  -0.83680   3 ;     C3-    C2-   O21-   C21
  6531   6533   6534   6537      4   240.00  -1.25520   2 ;    C11-   O11-    C1-    C2
  6531   6533   6534   6537      4   300.00  -0.83680   3 ;    C11-   O11-    C1-    C2
  6534   6537   6539   6542      4    60.00   1.67360   3 ;     C1-    C2-    C3-   O31
  6534   6537   6539   6542      4   120.00   0.83680   2 ;     C1-    C2-    C3-   O31
  6534   6537   6566   6567      4   240.00  -1.25520   2 ;     C1-    C2-   O21-   C21
  6534   6537   6566   6567      4   300.00  -0.83680   3 ;     C1-    C2-   O21-   C21
  6539   6537   6566   6567      4   240.00  -1.25520   2 ;     C3-    C2-   O21-   C21
  6539   6537   6566   6567      4   300.00  -0.83680   3 ;     C3-    C2-   O21-   C21
  6649   6651   6652   6655      4   240.00  -1.25520   2 ;    C11-   O11-    C1-    C2
  6649   6651   6652   6655      4   300.00  -0.83680   3 ;    C11-   O11-    C1-    C2
  6652   6655   6657   6660      4    60.00   1.67360   3 ;     C1-    C2-    C3-   O31
  6652   6655   6657   6660      4   120.00   0.83680   2 ;     C1-    C2-    C3-   O31
  6652   6655   6684   6685      4   240.00  -1.25520   2 ;     C1-    C2-   O21-   C21
  6652   6655   6684   6685      4   300.00  -0.83680   3 ;     C1-    C2-   O21-   C21
  6657   6655   6684   6685      4   240.00  -1.25520   2 ;     C3-    C2-   O21-   C21
  6657   6655   6684   6685      4   300.00  -0.83680   3 ;     C3-    C2-   O21-   C21
  6767   6769   6770   6773      4   240.00  -1.25520   2 ;    C11-   O11-    C1-    C2
  6767   6769   6770   6773      4   300.00  -0.83680   3 ;    C11-   O11-    C1-    C2
  6770   6773   6775   6778      4    60.00   1.67360   3 ;     C1-    C2-    C3-   O31
  6770   6773   6775   6778      4   120.00   0.83680   2 ;     C1-    C2-    C3-   O31
  6770   6773   6802   6803      4   240.00  -1.25520   2 ;     C1-    C2-   O21-   C21
  6770   6773   6802   6803      4   300.00  -0.83680   3 ;     C1-    C2-   O21-   C21
  6775   6773   6802   6803      4   240.00  -1.25520   2 ;     C3-    C2-   O21-   C21
  6775   6773   6802   6803      4   300.00  -0.83680   3 ;     C3-    C2-   O21-   C21
  6885   6887   6888   6891      4   240.00  -1.25520   2 ;    C11-   O11-    C1-    C2
  6885   6887   6888   6891      4   300.00  -0.83680   3 ;    C11-   O11-    C1-    C2
  6888   6891   6893   6896      4    60.00   1.67360   3 ;     C1-    C2-    C3-   O31
  6888   6891   6893   6896      4   120.00   0.83680   2 ;     C1-    C2-    C3-   O31
  6888   6891   6920   6921      4   240.00  -1.25520   2 ;     C1-    C2-   O21-   C21
  6888   6891   6920   6921      4   300.00  -0.83680   3 ;     C1-    C2-   O21-   C21
  6893   6891   6920   6921      4   240.00  -1.25520   2 ;     C3-    C2-   O21-   C21
  6893   6891   6920   6921      4   300.00  -0.83680   3 ;     C3-    C2-   O21-   C21
  7003   7005   7006   7009      4   240.00  -1.25520   2 ;    C11-   O11-    C1-    C2
  7003   7005   7006   7009      4   300.00  -0.83680   3 ;    C11-   O11-    C1-    C2
  7006   7009   7011   7014      4    60.00   1.67360   3 ;     C1-    C2-    C3-   O31
  7006   7009   7011   7014      4   120.00   0.83680   2 ;     C1-    C2-    C3-   O31
  7006   7009   7038   7039      4   240.00  -1.25520   2 ;     C1-    C2-   O21-   C21
  7006   7009   7038   7039      4   300.00  -0.83680   3 ;     C1-    C2-   O21-   C21
  7011   7009   7038   7039      4   240.00  -1.25520   2 ;     C3-    C2-   O21-   C21
  7011   7009   7038   7039      4   300.00  -0.83680   3 ;     C3-    C2-   O21-   C21
  7121   7123   7124   7127      4   240.00  -1.25520   2 ;    C11-   O11-    C1-    C2
  7121   7123   7124   7127      4   300.00  -0.83680   3 ;    C11-   O11-    C1-    C2
  7124   7127   7129   7132      4    60.00   1.67360   3 ;     C1-    C2-    C3-   O31
  7124   7127   7129   7132      4   120.00   0.83680   2 ;     C1-    C2-    C3-   O31
  7124   7127   7156   7157      4   240.00  -1.25520   2 ;     C1-    C2-   O21-   C21
  7124   7127   7156   7157      4   300.00  -0.83680   3 ;     C1-    C2-   O21-   C21
  7129   7127   7156   7157      4   240.00  -1.25520   2 ;     C3-    C2-   O21-   C21
  7129   7127   7156   7157      4   300.00  -0.83680   3 ;     C3-    C2-   O21-   C21
  7239   7241   7242   7245      4   240.00  -1.25520   2 ;    C11-   O11-    C1-    C2
  7239   7241   7242   7245      4   300.00  -0.83680   3 ;    C11-   O11-    C1-    C2
  7242   7245   7247   7250      4    60.00   1.67360   3 ;     C1-    C2-    C3-   O31
  7242   7245   7247   7250      4   120.00   0.83680   2 ;     C1-    C2-    C3-   O31
  7242   7245   7274   7275      4   240.00  -1.25520   2 ;     C1-    C2-   O21-   C21
  7242   7245   7274   7275      4   300.00  -0.83680   3 ;     C1-    C2-   O21-   C21
  7247   7245   7274   7275      4   240.00  -1.25520   2 ;     C3-    C2-   O21-   C21
  7247   7245   7274   7275      4   300.00  -0.83680   3 ;     C3-    C2-   O21-   C21
  7357   7359   7360   7363      4   240.00  -1.25520   2 ;    C11-   O11-    C1-    C2
  7357   7359   7360   7363      4   300.00  -0.83680   3 ;    C11-   O11-    C1-    C2
  7360   7363   7365   7368      4    60.00   1.67360   3 ;     C1-    C2-    C3-   O31
  7360   7363   7365   7368      4   120.00   0.83680   2 ;     C1-    C2-    C3-   O31
  7360   7363   7392   7393      4   240.00  -1.25520   2 ;     C1-    C2-   O21-   C21
  7360   7363   7392   7393      4   300.00  -0.83680   3 ;     C1-    C2-   O21-   C21
  7365   7363   7392   7393      4   240.00  -1.25520   2 ;     C3-    C2-   O21-   C21
  7365   7363   7392   7393      4   300.00  -0.83680   3 ;     C3-    C2-   O21-   C21
  7475   7477   7478   7481      4   240.00  -1.25520   2 ;    C11-   O11-    C1-    C2
  7475   7477   7478   7481      4   300.00  -0.83680   3 ;    C11-   O11-    C1-    C2
  7478   7481   7483   7486      4    60.00   1.67360   3 ;     C1-    C2-    C3-   O31
  7478   7481   7483   7486      4   120.00   0.83680   2 ;     C1-    C2-    C3-   O31
  7478   7481   7510   7511      4   240.00  -1.25520   2 ;     C1-    C2-   O21-   C21
  7478   7481   7510   7511      4   300.00  -0.83680   3 ;     C1-    C2-   O21-   C21
  7483   7481   7510   7511      4   240.00  -1.25520   2 ;     C3-    C2-   O21-   C21
  7483   7481   7510   7511      4   300.00  -0.83680   3 ;     C3-    C2-   O21-   C21
  7593   7595   7596   7599      4   240.00  -1.25520   2 ;    C11-   O11-    C1-    C2
  7593   7595   7596   7599      4   300.00  -0.83680   3 ;    C11-   O11-    C1-    C2
  7596   7599   7601   7604      4    60.00   1.67360   3 ;     C1-    C2-    C3-   O31
  7596   7599   7601   7604      4   120.00   0.83680   2 ;     C1-    C2-    C3-   O31
  7596   7599   7628   7629      4   240.00  -1.25520   2 ;     C1-    C2-   O21-   C21
  7596   7599   7628   7629      4   300.00  -0.83680   3 ;     C1-    C2-   O21-   C21
  7601   7599   7628   7629      4   240.00  -1.25520   2 ;     C3-    C2-   O21-   C21
  7601   7599   7628   7629      4   300.00  -0.83680   3 ;     C3-    C2-   O21-   C21
  7711   7713   7714   7717      4   240.00  -1.25520   2 ;    C11-   O11-    C1-    C2
  7711   7713   7714   7717      4   300.00  -0.83680   3 ;    C11-   O11-    C1-    C2
  7714   7717   7719   7722      4    60.00   1.67360   3 ;     C1-    C2-    C3-   O31
  7714   7717   7719   7722      4   120.00   0.83680   2 ;     C1-    C2-    C3-   O31
  7714   7717   7746   7747      4   240.00  -1.25520   2 ;     C1-    C2-   O21-   C21
  7714   7717   7746   7747      4   300.00  -0.83680   3 ;     C1-    C2-   O21-   C21
  7719   7717   7746   7747      4   240.00  -1.25520   2 ;     C3-    C2-   O21-   C21
  7719   7717   7746   7747      4   300.00  -0.83680   3 ;     C3-    C2-   O21-   C21
  7829   7831   7832   7835      4   240.00  -1.25520   2 ;    C11-   O11-    C1-    C2
  7829   7831   7832   7835      4   300.00  -0.83680   3 ;    C11-   O11-    C1-    C2
  7832   7835   7837   7840      4    60.00   1.67360   3 ;     C1-    C2-    C3-   O31
  7832   7835   7837   7840      4   120.00   0.83680   2 ;     C1-    C2-    C3-   O31
  7832   7835   7864   7865      4   240.00  -1.25520   2 ;     C1-    C2-   O21-   C21
  7832   7835   7864   7865      4   300.00  -0.83680   3 ;     C1-    C2-   O21-   C21
  7837   7835   7864   7865      4   240.00  -1.25520   2 ;     C3-    C2-   O21-   C21
  7837   7835   7864   7865      4   300.00  -0.83680   3 ;     C3-    C2-   O21-   C21
  7947   7949   7950   7953      4   240.00  -1.25520   2 ;    C11-   O11-    C1-    C2
  7947   7949   7950   7953      4   300.00  -0.83680   3 ;    C11-   O11-    C1-    C2
  7950   7953   7955   7958      4    60.00   1.67360   3 ;     C1-    C2-    C3-   O31
  7950   7953   7955   7958      4   120.00   0.83680   2 ;     C1-    C2-    C3-   O31
  7950   7953   7982   7983      4   240.00  -1.25520   2 ;     C1-    C2-   O21-   C21
  7950   7953   7982   7983      4   300.00  -0.83680   3 ;     C1-    C2-   O21-   C21
  7955   7953   7982   7983      4   240.00  -1.25520   2 ;     C3-    C2-   O21-   C21
  7955   7953   7982   7983      4   300.00  -0.83680   3 ;     C3-    C2-   O21-   C21
  8065   8067   8068   8071      4   240.00  -1.25520   2 ;    C11-   O11-    C1-    C2
  8065   8067   8068   8071      4   300.00  -0.83680   3 ;    C11-   O11-    C1-    C2
  8068   8071   8073   8076      4    60.00   1.67360   3 ;     C1-    C2-    C3-   O31
  8068   8071   8073   8076      4   120.00   0.83680   2 ;     C1-    C2-    C3-   O31
  8068   8071   8100   8101      4   240.00  -1.25520   2 ;     C1-    C2-   O21-   C21
  8068   8071   8100   8101      4   300.00  -0.83680   3 ;     C1-    C2-   O21-   C21
  8073   8071   8100   8101      4   240.00  -1.25520   2 ;     C3-    C2-   O21-   C21
  8073   8071   8100   8101      4   300.00  -0.83680   3 ;     C3-    C2-   O21-   C21
  8183   8185   8186   8189      4   240.00  -1.25520   2 ;    C11-   O11-    C1-    C2
  8183   8185   8186   8189      4   300.00  -0.83680   3 ;    C11-   O11-    C1-    C2
  8186   8189   8191   8194      4    60.00   1.67360   3 ;     C1-    C2-    C3-   O31
  8186   8189   8191   8194      4   120.00   0.83680   2 ;     C1-    C2-    C3-   O31
  8186   8189   8218   8219      4   240.00  -1.25520   2 ;     C1-    C2-   O21-   C21
  8186   8189   8218   8219      4   300.00  -0.83680   3 ;     C1-    C2-   O21-   C21
  8191   8189   8218   8219      4   240.00  -1.25520   2 ;     C3-    C2-   O21-   C21
  8191   8189   8218   8219      4   300.00  -0.83680   3 ;     C3-    C2-   O21-   C21
  8301   8303   8304   8307      4   240.00  -1.25520   2 ;    C11-   O11-    C1-    C2
  8301   8303   8304   8307      4   300.00  -0.83680   3 ;    C11-   O11-    C1-    C2
  8304   8307   8309   8312      4    60.00   1.67360   3 ;     C1-    C2-    C3-   O31
  8304   8307   8309   8312      4   120.00   0.83680   2 ;     C1-    C2-    C3-   O31
  8304   8307   8336   8337      4   240.00  -1.25520   2 ;     C1-    C2-   O21-   C21
  8304   8307   8336   8337      4   300.00  -0.83680   3 ;     C1-    C2-   O21-   C21
  8309   8307   8336   8337      4   240.00  -1.25520   2 ;     C3-    C2-   O21-   C21
  8309   8307   8336   8337      4   300.00  -0.83680   3 ;     C3-    C2-   O21-   C21
  8419   8421   8422   8425      4   240.00  -1.25520   2 ;    C11-   O11-    C1-    C2
  8419   8421   8422   8425      4   300.00  -0.83680   3 ;    C11-   O11-    C1-    C2
  8422   8425   8427   8430      4    60.00   1.67360   3 ;     C1-    C2-    C3-   O31
  8422   8425   8427   8430      4   120.00   0.83680   2 ;     C1-    C2-    C3-   O31
  8422   8425   8454   8455      4   240.00  -1.25520   2 ;     C1-    C2-   O21-   C21
  8422   8425   8454   8455      4   300.00  -0.83680   3 ;     C1-    C2-   O21-   C21
  8427   8425   8454   8455      4   240.00  -1.25520   2 ;     C3-    C2-   O21-   C21
  8427   8425   8454   8455      4   300.00  -0.83680   3 ;     C3-    C2-   O21-   C21
  8537   8539   8540   8543      4   240.00  -1.25520   2 ;    C11-   O11-    C1-    C2
  8537   8539   8540   8543      4   300.00  -0.83680   3 ;    C11-   O11-    C1-    C2
  8540   8543   8545   8548      4    60.00   1.67360   3 ;     C1-    C2-    C3-   O31
  8540   8543   8545   8548      4   120.00   0.83680   2 ;     C1-    C2-    C3-   O31
  8540   8543   8572   8573      4   240.00  -1.25520   2 ;     C1-    C2-   O21-   C21
  8540   8543   8572   8573      4   300.00  -0.83680   3 ;     C1-    C2-   O21-   C21
  8545   8543   8572   8573      4   240.00  -1.25520   2 ;     C3-    C2-   O21-   C21
  8545   8543   8572   8573      4   300.00  -0.83680   3 ;     C3-    C2-   O21-   C21
  8655   8657   8658   8661      4   240.00  -1.25520   2 ;    C11-   O11-    C1-    C2
  8655   8657   8658   8661      4   300.00  -0.83680   3 ;    C11-   O11-    C1-    C2
  8658   8661   8663   8666      4    60.00   1.67360   3 ;     C1-    C2-    C3-   O31
  8658   8661   8663   8666      4   120.00   0.83680   2 ;     C1-    C2-    C3-   O31
  8658   8661   8690   8691      4   240.00  -1.25520   2 ;     C1-    C2-   O21-   C21
  8658   8661   8690   8691      4   300.00  -0.83680   3 ;     C1-    C2-   O21-   C21
  8663   8661   8690   8691      4   240.00  -1.25520   2 ;     C3-    C2-   O21-   C21
  8663   8661   8690   8691      4   300.00  -0.83680   3 ;     C3-    C2-   O21-   C21
  8773   8775   8776   8779      4   240.00  -1.25520   2 ;    C11-   O11-    C1-    C2
  8773   8775   8776   8779      4   300.00  -0.83680   3 ;    C11-   O11-    C1-    C2
  8776   8779   8781   8784      4    60.00   1.67360   3 ;     C1-    C2-    C3-   O31
  8776   8779   8781   8784      4   120.00   0.83680   2 ;     C1-    C2-    C3-   O31
  8776   8779   8808   8809      4   240.00  -1.25520   2 ;     C1-    C2-   O21-   C21
  8776   8779   8808   8809      4   300.00  -0.83680   3 ;     C1-    C2-   O21-   C21
  8781   8779   8808   8809      4   240.00  -1.25520   2 ;     C3-    C2-   O21-   C21
  8781   8779   8808   8809      4   300.00  -0.83680   3 ;     C3-    C2-   O21-   C21
  8891   8893   8894   8897      4   240.00  -1.25520   2 ;    C11-   O11-    C1-    C2
  8891   8893   8894   8897      4   300.00  -0.83680   3 ;    C11-   O11-    C1-    C2
  8894   8897   8899   8902      4    60.00   1.67360   3 ;     C1-    C2-    C3-   O31
  8894   8897   8899   8902      4   120.00   0.83680   2 ;     C1-    C2-    C3-   O31
  8894   8897   8926   8927      4   240.00  -1.25520   2 ;     C1-    C2-   O21-   C21
  8894   8897   8926   8927      4   300.00  -0.83680   3 ;     C1-    C2-   O21-   C21
  8899   8897   8926   8927      4   240.00  -1.25520   2 ;     C3-    C2-   O21-   C21
  8899   8897   8926   8927      4   300.00  -0.83680   3 ;     C3-    C2-   O21-   C21
  9009   9011   9012   9015      4   240.00  -1.25520   2 ;    C11-   O11-    C1-    C2
  9009   9011   9012   9015      4   300.00  -0.83680   3 ;    C11-   O11-    C1-    C2
  9012   9015   9017   9020      4    60.00   1.67360   3 ;     C1-    C2-    C3-   O31
  9012   9015   9017   9020      4   120.00   0.83680   2 ;     C1-    C2-    C3-   O31
  9012   9015   9044   9045      4   240.00  -1.25520   2 ;     C1-    C2-   O21-   C21
  9012   9015   9044   9045      4   300.00  -0.83680   3 ;     C1-    C2-   O21-   C21
  9017   9015   9044   9045      4   240.00  -1.25520   2 ;     C3-    C2-   O21-   C21
  9017   9015   9044   9045      4   300.00  -0.83680   3 ;     C3-    C2-   O21-   C21
  9127   9129   9130   9133      4   240.00  -1.25520   2 ;    C11-   O11-    C1-    C2
  9127   9129   9130   9133      4   300.00  -0.83680   3 ;    C11-   O11-    C1-    C2
  9130   9133   9135   9138      4    60.00   1.67360   3 ;     C1-    C2-    C3-   O31
  9130   9133   9135   9138      4   120.00   0.83680   2 ;     C1-    C2-    C3-   O31
  9130   9133   9162   9163      4   240.00  -1.25520   2 ;     C1-    C2-   O21-   C21
  9130   9133   9162   9163      4   300.00  -0.83680   3 ;     C1-    C2-   O21-   C21
  9135   9133   9162   9163      4   240.00  -1.25520   2 ;     C3-    C2-   O21-   C21
  9135   9133   9162   9163      4   300.00  -0.83680   3 ;     C3-    C2-   O21-   C21
  9245   9247   9248   9251      4   240.00  -1.25520   2 ;    C11-   O11-    C1-    C2
  9245   9247   9248   9251      4   300.00  -0.83680   3 ;    C11-   O11-    C1-    C2
  9248   9251   9253   9256      4    60.00   1.67360   3 ;     C1-    C2-    C3-   O31
  9248   9251   9253   9256      4   120.00   0.83680   2 ;     C1-    C2-    C3-   O31
  9248   9251   9280   9281      4   240.00  -1.25520   2 ;     C1-    C2-   O21-   C21
  9248   9251   9280   9281      4   300.00  -0.83680   3 ;     C1-    C2-   O21-   C21
  9253   9251   9280   9281      4   240.00  -1.25520   2 ;     C3-    C2-   O21-   C21
  9253   9251   9280   9281      4   300.00  -0.83680   3 ;     C3-    C2-   O21-   C21
  9363   9365   9366   9369      4   240.00  -1.25520   2 ;    C11-   O11-    C1-    C2
  9363   9365   9366   9369      4   300.00  -0.83680   3 ;    C11-   O11-    C1-    C2
  9366   9369   9371   9374      4    60.00   1.67360   3 ;     C1-    C2-    C3-   O31
  9366   9369   9371   9374      4   120.00   0.83680   2 ;     C1-    C2-    C3-   O31
  9366   9369   9398   9399      4   240.00  -1.25520   2 ;     C1-    C2-   O21-   C21
  9366   9369   9398   9399      4   300.00  -0.83680   3 ;     C1-    C2-   O21-   C21
  9371   9369   9398   9399      4   240.00  -1.25520   2 ;     C3-    C2-   O21-   C21
  9371   9369   9398   9399      4   300.00  -0.83680   3 ;     C3-    C2-   O21-   C21
  9481   9483   9484   9487      4   240.00  -1.25520   2 ;    C11-   O11-    C1-    C2
  9481   9483   9484   9487      4   300.00  -0.83680   3 ;    C11-   O11-    C1-    C2
  9484   9487   9489   9492      4    60.00   1.67360   3 ;     C1-    C2-    C3-   O31
  9484   9487   9489   9492      4   120.00   0.83680   2 ;     C1-    C2-    C3-   O31
  9484   9487   9516   9517      4   240.00  -1.25520   2 ;     C1-    C2-   O21-   C21
  9484   9487   9516   9517      4   300.00  -0.83680   3 ;     C1-    C2-   O21-   C21
  9489   9487   9516   9517      4   240.00  -1.25520   2 ;     C3-    C2-   O21-   C21
  9489   9487   9516   9517      4   300.00  -0.83680   3 ;     C3-    C2-   O21-   C21
  9599   9601   9602   9605      4   240.00  -1.25520   2 ;    C11-   O11-    C1-    C2
  9599   9601   9602   9605      4   300.00  -0.83680   3 ;    C11-   O11-    C1-    C2
  9602   9605   9607   9610      4    60.00   1.67360   3 ;     C1-    C2-    C3-   O31
  9602   9605   9607   9610      4   120.00   0.83680   2 ;     C1-    C2-    C3-   O31
  9602   9605   9634   9635      4   240.00  -1.25520   2 ;     C1-    C2-   O21-   C21
  9602   9605   9634   9635      4   300.00  -0.83680   3 ;     C1-    C2-   O21-   C21
  9607   9605   9634   9635      4   240.00  -1.25520   2 ;     C3-    C2-   O21-   C21
  9607   9605   9634   9635      4   300.00  -0.83680   3 ;     C3-    C2-   O21-   C21
  9717   9719   9720   9723      4   240.00  -1.25520   2 ;    C11-   O11-    C1-    C2
  9717   9719   9720   9723      4   300.00  -0.83680   3 ;    C11-   O11-    C1-    C2
  9720   9723   9725   9728      4    60.00   1.67360   3 ;     C1-    C2-    C3-   O31
  9720   9723   9725   9728      4   120.00   0.83680   2 ;     C1-    C2-    C3-   O31
  9720   9723   9752   9753      4   240.00  -1.25520   2 ;     C1-    C2-   O21-   C21
  9720   9723   9752   9753      4   300.00  -0.83680   3 ;     C1-    C2-   O21-   C21
  9725   9723   9752   9753      4   240.00  -1.25520   2 ;     C3-    C2-   O21-   C21
  9725   9723   9752   9753      4   300.00  -0.83680   3 ;     C3-    C2-   O21-   C21
  9835   9837   9838   9841      4   240.00  -1.25520   2 ;    C11-   O11-    C1-    C2
  9835   9837   9838   9841      4   300.00  -0.83680   3 ;    C11-   O11-    C1-    C2
  9838   9841   9843   9846      4    60.00   1.67360   3 ;     C1-    C2-    C3-   O31
  9838   9841   9843   9846      4   120.00   0.83680   2 ;     C1-    C2-    C3-   O31
  9838   9841   9870   9871      4   240.00  -1.25520   2 ;     C1-    C2-   O21-   C21
  9838   9841   9870   9871      4   300.00  -0.83680   3 ;     C1-    C2-   O21-   C21
  9843   9841   9870   9871      4   240.00  -1.25520   2 ;     C3-    C2-   O21-   C21
  9843   9841   9870   9871      4   300.00  -0.83680   3 ;     C3-    C2-   O21-   C21
  9953   9955   9956   9959      4   240.00  -1.25520   2 ;    C11-   O11-    C1-    C2
  9953   9955   9956   9959      4   300.00  -0.83680   3 ;    C11-   O11-    C1-    C2
  9956   9959   9961   9964      4    60.00   1.67360   3 ;     C1-    C2-    C3-   O31
  9956   9959   9961   9964      4   120.00   0.83680   2 ;     C1-    C2-    C3-   O31
  9956   9959   9988   9989      4   240.00  -1.25520   2 ;     C1-    C2-   O21-   C21
  9956   9959   9988   9989      4   300.00  -0.83680   3 ;     C1-    C2-   O21-   C21
  9961   9959   9988   9989      4   240.00  -1.25520   2 ;     C3-    C2-   O21-   C21
  9961   9959   9988   9989      4   300.00  -0.83680   3 ;     C3-    C2-   O21-   C21
 10071  10073  10074  10077      4   240.00  -1.25520   2 ;    C11-   O11-    C1-    C2
 10071  10073  10074  10077      4   300.00  -0.83680   3 ;    C11-   O11-    C1-    C2
 10074  10077  10079  10082      4    60.00   1.67360   3 ;     C1-    C2-    C3-   O31
 10074  10077  10079  10082      4   120.00   0.83680   2 ;     C1-    C2-    C3-   O31
 10074  10077  10106  10107      4   240.00  -1.25520   2 ;     C1-    C2-   O21-   C21
 10074  10077  10106  10107      4   300.00  -0.83680   3 ;     C1-    C2-   O21-   C21
 10079  10077  10106  10107      4   240.00  -1.25520   2 ;     C3-    C2-   O21-   C21
 10079  10077  10106  10107      4   300.00  -0.83680   3 ;     C3-    C2-   O21-   C21
 10189  10191  10192  10195      4   240.00  -1.25520   2 ;    C11-   O11-    C1-    C2
 10189  10191  10192  10195      4   300.00  -0.83680   3 ;    C11-   O11-    C1-    C2
 10192  10195  10197  10200      4    60.00   1.67360   3 ;     C1-    C2-    C3-   O31
 10192  10195  10197  10200      4   120.00   0.83680   2 ;     C1-    C2-    C3-   O31
 10192  10195  10224  10225      4   240.00  -1.25520   2 ;     C1-    C2-   O21-   C21
 10192  10195  10224  10225      4   300.00  -0.83680   3 ;     C1-    C2-   O21-   C21
 10197  10195  10224  10225      4   240.00  -1.25520   2 ;     C3-    C2-   O21-   C21
 10197  10195  10224  10225      4   300.00  -0.83680   3 ;     C3-    C2-   O21-   C21
 10307  10309  10310  10313      4   240.00  -1.25520   2 ;    C11-   O11-    C1-    C2
 10307  10309  10310  10313      4   300.00  -0.83680   3 ;    C11-   O11-    C1-    C2
 10310  10313  10315  10318      4    60.00   1.67360   3 ;     C1-    C2-    C3-   O31
 10310  10313  10315  10318      4   120.00   0.83680   2 ;     C1-    C2-    C3-   O31
 10310  10313  10342  10343      4   240.00  -1.25520   2 ;     C1-    C2-   O21-   C21
 10310  10313  10342  10343      4   300.00  -0.83680   3 ;     C1-    C2-   O21-   C21
 10315  10313  10342  10343      4   240.00  -1.25520   2 ;     C3-    C2-   O21-   C21
 10315  10313  10342  10343      4   300.00  -0.83680   3 ;     C3-    C2-   O21-   C21
 10425  10427  10428  10431      4   240.00  -1.25520   2 ;    C11-   O11-    C1-    C2
 10425  10427  10428  10431      4   300.00  -0.83680   3 ;    C11-   O11-    C1-    C2
 10428  10431  10433  10436      4    60.00   1.67360   3 ;     C1-    C2-    C3-   O31
 10428  10431  10433  10436      4   120.00   0.83680   2 ;     C1-    C2-    C3-   O31
 10428  10431  10460  10461      4   240.00  -1.25520   2 ;     C1-    C2-   O21-   C21
 10428  10431  10460  10461      4   300.00  -0.83680   3 ;     C1-    C2-   O21-   C21
 10433  10431  10460  10461      4   240.00  -1.25520   2 ;     C3-    C2-   O21-   C21
 10433  10431  10460  10461      4   300.00  -0.83680   3 ;     C3-    C2-   O21-   C21
 10543  10545  10546  10549      4   240.00  -1.25520   2 ;    C11-   O11-    C1-    C2
 10543  10545  10546  10549      4   300.00  -0.83680   3 ;    C11-   O11-    C1-    C2
 10546  10549  10551  10554      4    60.00   1.67360   3 ;     C1-    C2-    C3-   O31
 10546  10549  10551  10554      4   120.00   0.83680   2 ;     C1-    C2-    C3-   O31
 10546  10549  10578  10579      4   240.00  -1.25520   2 ;     C1-    C2-   O21-   C21
 10546  10549  10578  10579      4   300.00  -0.83680   3 ;     C1-    C2-   O21-   C21
 10551  10549  10578  10579      4   240.00  -1.25520   2 ;     C3-    C2-   O21-   C21
 10551  10549  10578  10579      4   300.00  -0.83680   3 ;     C3-    C2-   O21-   C21
 10661  10663  10664  10667      4   240.00  -1.25520   2 ;    C11-   O11-    C1-    C2
 10661  10663  10664  10667      4   300.00  -0.83680   3 ;    C11-   O11-    C1-    C2
 10664  10667  10669  10672      4    60.00   1.67360   3 ;     C1-    C2-    C3-   O31
 10664  10667  10669  10672      4   120.00   0.83680   2 ;     C1-    C2-    C3-   O31
 10664  10667  10696  10697      4   240.00  -1.25520   2 ;     C1-    C2-   O21-   C21
 10664  10667  10696  10697      4   300.00  -0.83680   3 ;     C1-    C2-   O21-   C21
 10669  10667  10696  10697      4   240.00  -1.25520   2 ;     C3-    C2-   O21-   C21
 10669  10667  10696  10697      4   300.00  -0.83680   3 ;     C3-    C2-   O21-   C21
 10779  10781  10782  10785      4   240.00  -1.25520   2 ;    C11-   O11-    C1-    C2
 10779  10781  10782  10785      4   300.00  -0.83680   3 ;    C11-   O11-    C1-    C2
 10782  10785  10787  10790      4    60.00   1.67360   3 ;     C1-    C2-    C3-   O31
 10782  10785  10787  10790      4   120.00   0.83680   2 ;     C1-    C2-    C3-   O31
 10782  10785  10814  10815      4   240.00  -1.25520   2 ;     C1-    C2-   O21-   C21
 10782  10785  10814  10815      4   300.00  -0.83680   3 ;     C1-    C2-   O21-   C21
 10787  10785  10814  10815      4   240.00  -1.25520   2 ;     C3-    C2-   O21-   C21
 10787  10785  10814  10815      4   300.00  -0.83680   3 ;     C3-    C2-   O21-   C21
 10897  10899  10900  10903      4   240.00  -1.25520   2 ;    C11-   O11-    C1-    C2
 10897  10899  10900  10903      4   300.00  -0.83680   3 ;    C11-   O11-    C1-    C2
 10900  10903  10905  10908      4    60.00   1.67360   3 ;     C1-    C2-    C3-   O31
 10900  10903  10905  10908      4   120.00   0.83680   2 ;     C1-    C2-    C3-   O31
 10900  10903  10932  10933      4   240.00  -1.25520   2 ;     C1-    C2-   O21-   C21
 10900  10903  10932  10933      4   300.00  -0.83680   3 ;     C1-    C2-   O21-   C21
 10905  10903  10932  10933      4   240.00  -1.25520   2 ;     C3-    C2-   O21-   C21
 10905  10903  10932  10933      4   300.00  -0.83680   3 ;     C3-    C2-   O21-   C21
 11015  11017  11018  11021      4   240.00  -1.25520   2 ;    C11-   O11-    C1-    C2
 11015  11017  11018  11021      4   300.00  -0.83680   3 ;    C11-   O11-    C1-    C2
 11018  11021  11023  11026      4    60.00   1.67360   3 ;     C1-    C2-    C3-   O31
 11018  11021  11023  11026      4   120.00   0.83680   2 ;     C1-    C2-    C3-   O31
 11018  11021  11050  11051      4   240.00  -1.25520   2 ;     C1-    C2-   O21-   C21
 11018  11021  11050  11051      4   300.00  -0.83680   3 ;     C1-    C2-   O21-   C21
 11023  11021  11050  11051      4   240.00  -1.25520   2 ;     C3-    C2-   O21-   C21
 11023  11021  11050  11051      4   300.00  -0.83680   3 ;     C3-    C2-   O21-   C21
 11133  11135  11136  11139      4   240.00  -1.25520   2 ;    C11-   O11-    C1-    C2
 11133  11135  11136  11139      4   300.00  -0.83680   3 ;    C11-   O11-    C1-    C2
 11136  11139  11141  11144      4    60.00   1.67360   3 ;     C1-    C2-    C3-   O31
 11136  11139  11141  11144      4   120.00   0.83680   2 ;     C1-    C2-    C3-   O31
 11136  11139  11168  11169      4   240.00  -1.25520   2 ;     C1-    C2-   O21-   C21
 11136  11139  11168  11169      4   300.00  -0.83680   3 ;     C1-    C2-   O21-   C21
 11141  11139  11168  11169      4   240.00  -1.25520   2 ;     C3-    C2-   O21-   C21
 11141  11139  11168  11169      4   300.00  -0.83680   3 ;     C3-    C2-   O21-   C21
 11251  11253  11254  11257      4   240.00  -1.25520   2 ;    C11-   O11-    C1-    C2
 11251  11253  11254  11257      4   300.00  -0.83680   3 ;    C11-   O11-    C1-    C2
 11254  11257  11259  11262      4    60.00   1.67360   3 ;     C1-    C2-    C3-   O31
 11254  11257  11259  11262      4   120.00   0.83680   2 ;     C1-    C2-    C3-   O31
 11254  11257  11286  11287      4   240.00  -1.25520   2 ;     C1-    C2-   O21-   C21
 11254  11257  11286  11287      4   300.00  -0.83680   3 ;     C1-    C2-   O21-   C21
 11259  11257  11286  11287      4   240.00  -1.25520   2 ;     C3-    C2-   O21-   C21
 11259  11257  11286  11287      4   300.00  -0.83680   3 ;     C3-    C2-   O21-   C21
 11369  11371  11372  11375      4   240.00  -1.25520   2 ;    C11-   O11-    C1-    C2
 11369  11371  11372  11375      4   300.00  -0.83680   3 ;    C11-   O11-    C1-    C2
 11372  11375  11377  11380      4    60.00   1.67360   3 ;     C1-    C2-    C3-   O31
 11372  11375  11377  11380      4   120.00   0.83680   2 ;     C1-    C2-    C3-   O31
 11372  11375  11404  11405      4   240.00  -1.25520   2 ;     C1-    C2-   O21-   C21
 11372  11375  11404  11405      4   300.00  -0.83680   3 ;     C1-    C2-   O21-   C21
 11377  11375  11404  11405      4   240.00  -1.25520   2 ;     C3-    C2-   O21-   C21
 11377  11375  11404  11405      4   300.00  -0.83680   3 ;     C3-    C2-   O21-   C21
 11487  11489  11490  11493      4   240.00  -1.25520   2 ;    C11-   O11-    C1-    C2
 11487  11489  11490  11493      4   300.00  -0.83680   3 ;    C11-   O11-    C1-    C2
 11490  11493  11495  11498      4    60.00   1.67360   3 ;     C1-    C2-    C3-   O31
 11490  11493  11495  11498      4   120.00   0.83680   2 ;     C1-    C2-    C3-   O31
 11490  11493  11522  11523      4   240.00  -1.25520   2 ;     C1-    C2-   O21-   C21
 11490  11493  11522  11523      4   300.00  -0.83680   3 ;     C1-    C2-   O21-   C21
 11495  11493  11522  11523      4   240.00  -1.25520   2 ;     C3-    C2-   O21-   C21
 11495  11493  11522  11523      4   300.00  -0.83680   3 ;     C3-    C2-   O21-   C21
 11605  11607  11608  11611      4   240.00  -1.25520   2 ;    C11-   O11-    C1-    C2
 11605  11607  11608  11611      4   300.00  -0.83680   3 ;    C11-   O11-    C1-    C2
 11608  11611  11613  11616      4    60.00   1.67360   3 ;     C1-    C2-    C3-   O31
 11608  11611  11613  11616      4   120.00   0.83680   2 ;     C1-    C2-    C3-   O31
 11608  11611  11640  11641      4   240.00  -1.25520   2 ;     C1-    C2-   O21-   C21
 11608  11611  11640  11641      4   300.00  -0.83680   3 ;     C1-    C2-   O21-   C21
 11613  11611  11640  11641      4   240.00  -1.25520   2 ;     C3-    C2-   O21-   C21
 11613  11611  11640  11641      4   300.00  -0.83680   3 ;     C3-    C2-   O21-   C21
 11723  11725  11726  11729      4   240.00  -1.25520   2 ;    C11-   O11-    C1-    C2
 11723  11725  11726  11729      4   300.00  -0.83680   3 ;    C11-   O11-    C1-    C2
 11726  11729  11731  11734      4    60.00   1.67360   3 ;     C1-    C2-    C3-   O31
 11726  11729  11731  11734      4   120.00   0.83680   2 ;     C1-    C2-    C3-   O31
 11726  11729  11758  11759      4   240.00  -1.25520   2 ;     C1-    C2-   O21-   C21
 11726  11729  11758  11759      4   300.00  -0.83680   3 ;     C1-    C2-   O21-   C21
 11731  11729  11758  11759      4   240.00  -1.25520   2 ;     C3-    C2-   O21-   C21
 11731  11729  11758  11759      4   300.00  -0.83680   3 ;     C3-    C2-   O21-   C21
 11841  11843  11844  11847      4   240.00  -1.25520   2 ;    C11-   O11-    C1-    C2
 11841  11843  11844  11847      4   300.00  -0.83680   3 ;    C11-   O11-    C1-    C2
 11844  11847  11849  11852      4    60.00   1.67360   3 ;     C1-    C2-    C3-   O31
 11844  11847  11849  11852      4   120.00   0.83680   2 ;     C1-    C2-    C3-   O31
 11844  11847  11876  11877      4   240.00  -1.25520   2 ;     C1-    C2-   O21-   C21
 11844  11847  11876  11877      4   300.00  -0.83680   3 ;     C1-    C2-   O21-   C21
 11849  11847  11876  11877      4   240.00  -1.25520   2 ;     C3-    C2-   O21-   C21
 11849  11847  11876  11877      4   300.00  -0.83680   3 ;     C3-    C2-   O21-   C21
 11959  11961  11962  11965      4   240.00  -1.25520   2 ;    C11-   O11-    C1-    C2
 11959  11961  11962  11965      4   300.00  -0.83680   3 ;    C11-   O11-    C1-    C2
 11962  11965  11967  11970      4    60.00   1.67360   3 ;     C1-    C2-    C3-   O31
 11962  11965  11967  11970      4   120.00   0.83680   2 ;     C1-    C2-    C3-   O31
 11962  11965  11994  11995      4   240.00  -1.25520   2 ;     C1-    C2-   O21-   C21
 11962  11965  11994  11995      4   300.00  -0.83680   3 ;     C1-    C2-   O21-   C21
 11967  11965  11994  11995      4   240.00  -1.25520   2 ;     C3-    C2-   O21-   C21
 11967  11965  11994  11995      4   300.00  -0.83680   3 ;     C3-    C2-   O21-   C21
 12077  12079  12080  12083      4   240.00  -1.25520   2 ;    C11-   O11-    C1-    C2
 12077  12079  12080  12083      4   300.00  -0.83680   3 ;    C11-   O11-    C1-    C2
 12080  12083  12085  12088      4    60.00   1.67360   3 ;     C1-    C2-    C3-   O31
 12080  12083  12085  12088      4   120.00   0.83680   2 ;     C1-    C2-    C3-   O31
 12080  12083  12112  12113      4   240.00  -1.25520   2 ;     C1-    C2-   O21-   C21
 12080  12083  12112  12113      4   300.00  -0.83680   3 ;     C1-    C2-   O21-   C21
 12085  12083  12112  12113      4   240.00  -1.25520   2 ;     C3-    C2-   O21-   C21
 12085  12083  12112  12113      4   300.00  -0.83680   3 ;     C3-    C2-   O21-   C21
 12195  12197  12198  12201      4   240.00  -1.25520   2 ;    C11-   O11-    C1-    C2
 12195  12197  12198  12201      4   300.00  -0.83680   3 ;    C11-   O11-    C1-    C2
 12198  12201  12203  12206      4    60.00   1.67360   3 ;     C1-    C2-    C3-   O31
 12198  12201  12203  12206      4   120.00   0.83680   2 ;     C1-    C2-    C3-   O31
 12198  12201  12230  12231      4   240.00  -1.25520   2 ;     C1-    C2-   O21-   C21
 12198  12201  12230  12231      4   300.00  -0.83680   3 ;     C1-    C2-   O21-   C21
 12203  12201  12230  12231      4   240.00  -1.25520   2 ;     C3-    C2-   O21-   C21
 12203  12201  12230  12231      4   300.00  -0.83680   3 ;     C3-    C2-   O21-   C21
 12313  12315  12316  12319      4   240.00  -1.25520   2 ;    C11-   O11-    C1-    C2
 12313  12315  12316  12319      4   300.00  -0.83680   3 ;    C11-   O11-    C1-    C2
 12316  12319  12321  12324      4    60.00   1.67360   3 ;     C1-    C2-    C3-   O31
 12316  12319  12321  12324      4   120.00   0.83680   2 ;     C1-    C2-    C3-   O31
 12316  12319  12348  12349      4   240.00  -1.25520   2 ;     C1-    C2-   O21-   C21
 12316  12319  12348  12349      4   300.00  -0.83680   3 ;     C1-    C2-   O21-   C21
 12321  12319  12348  12349      4   240.00  -1.25520   2 ;     C3-    C2-   O21-   C21
 12321  12319  12348  12349      4   300.00  -0.83680   3 ;     C3-    C2-   O21-   C21
 12431  12433  12434  12437      4   240.00  -1.25520   2 ;    C11-   O11-    C1-    C2
 12431  12433  12434  12437      4   300.00  -0.83680   3 ;    C11-   O11-    C1-    C2
 12434  12437  12439  12442      4    60.00   1.67360   3 ;     C1-    C2-    C3-   O31
 12434  12437  12439  12442      4   120.00   0.83680   2 ;     C1-    C2-    C3-   O31
 12434  12437  12466  12467      4   240.00  -1.25520   2 ;     C1-    C2-   O21-   C21
 12434  12437  12466  12467      4   300.00  -0.83680   3 ;     C1-    C2-   O21-   C21
 12439  12437  12466  12467      4   240.00  -1.25520   2 ;     C3-    C2-   O21-   C21
 12439  12437  12466  12467      4   300.00  -0.83680   3 ;     C3-    C2-   O21-   C21
 12549  12551  12552  12555      4   240.00  -1.25520   2 ;    C11-   O11-    C1-    C2
 12549  12551  12552  12555      4   300.00  -0.83680   3 ;    C11-   O11-    C1-    C2
 12552  12555  12557  12560      4    60.00   1.67360   3 ;     C1-    C2-    C3-   O31
 12552  12555  12557  12560      4   120.00   0.83680   2 ;     C1-    C2-    C3-   O31
 12552  12555  12584  12585      4   240.00  -1.25520   2 ;     C1-    C2-   O21-   C21
 12552  12555  12584  12585      4   300.00  -0.83680   3 ;     C1-    C2-   O21-   C21
 12557  12555  12584  12585      4   240.00  -1.25520   2 ;     C3-    C2-   O21-   C21
 12557  12555  12584  12585      4   300.00  -0.83680   3 ;     C3-    C2-   O21-   C21
 12667  12669  12670  12673      4   240.00  -1.25520   2 ;    C11-   O11-    C1-    C2
 12667  12669  12670  12673      4   300.00  -0.83680   3 ;    C11-   O11-    C1-    C2
 12670  12673  12675  12678      4    60.00   1.67360   3 ;     C1-    C2-    C3-   O31
 12670  12673  12675  12678      4   120.00   0.83680   2 ;     C1-    C2-    C3-   O31
 12670  12673  12702  12703      4   240.00  -1.25520   2 ;     C1-    C2-   O21-   C21
 12670  12673  12702  12703      4   300.00  -0.83680   3 ;     C1-    C2-   O21-   C21
 12675  12673  12702  12703      4   240.00  -1.25520   2 ;     C3-    C2-   O21-   C21
 12675  12673  12702  12703      4   300.00  -0.83680   3 ;     C3-    C2-   O21-   C21
 12785  12787  12788  12791      4   240.00  -1.25520   2 ;    C11-   O11-    C1-    C2
 12785  12787  12788  12791      4   300.00  -0.83680   3 ;    C11-   O11-    C1-    C2
 12788  12791  12793  12796      4    60.00   1.67360   3 ;     C1-    C2-    C3-   O31
 12788  12791  12793  12796      4   120.00   0.83680   2 ;     C1-    C2-    C3-   O31
 12788  12791  12820  12821      4   240.00  -1.25520   2 ;     C1-    C2-   O21-   C21
 12788  12791  12820  12821      4   300.00  -0.83680   3 ;     C1-    C2-   O21-   C21
 12793  12791  12820  12821      4   240.00  -1.25520   2 ;     C3-    C2-   O21-   C21
 12793  12791  12820  12821      4   300.00  -0.83680   3 ;     C3-    C2-   O21-   C21
 12903  12905  12906  12909      4   240.00  -1.25520   2 ;    C11-   O11-    C1-    C2
 12903  12905  12906  12909      4   300.00  -0.83680   3 ;    C11-   O11-    C1-    C2
 12906  12909  12911  12914      4    60.00   1.67360   3 ;     C1-    C2-    C3-   O31
 12906  12909  12911  12914      4   120.00   0.83680   2 ;     C1-    C2-    C3-   O31
 12906  12909  12938  12939      4   240.00  -1.25520   2 ;     C1-    C2-   O21-   C21
 12906  12909  12938  12939      4   300.00  -0.83680   3 ;     C1-    C2-   O21-   C21
 12911  12909  12938  12939      4   240.00  -1.25520   2 ;     C3-    C2-   O21-   C21
 12911  12909  12938  12939      4   300.00  -0.83680   3 ;     C3-    C2-   O21-   C21
 13021  13023  13024  13027      4   240.00  -1.25520   2 ;    C11-   O11-    C1-    C2
 13021  13023  13024  13027      4   300.00  -0.83680   3 ;    C11-   O11-    C1-    C2
 13024  13027  13029  13032      4    60.00   1.67360   3 ;     C1-    C2-    C3-   O31
 13024  13027  13029  13032      4   120.00   0.83680   2 ;     C1-    C2-    C3-   O31
 13024  13027  13056  13057      4   240.00  -1.25520   2 ;     C1-    C2-   O21-   C21
 13024  13027  13056  13057      4   300.00  -0.83680   3 ;     C1-    C2-   O21-   C21
 13029  13027  13056  13057      4   240.00  -1.25520   2 ;     C3-    C2-   O21-   C21
 13029  13027  13056  13057      4   300.00  -0.83680   3 ;     C3-    C2-   O21-   C21
 13139  13141  13142  13145      4   240.00  -1.25520   2 ;    C11-   O11-    C1-    C2
 13139  13141  13142  13145      4   300.00  -0.83680   3 ;    C11-   O11-    C1-    C2
 13142  13145  13147  13150      4    60.00   1.67360   3 ;     C1-    C2-    C3-   O31
 13142  13145  13147  13150      4   120.00   0.83680   2 ;     C1-    C2-    C3-   O31
 13142  13145  13174  13175      4   240.00  -1.25520   2 ;     C1-    C2-   O21-   C21
 13142  13145  13174  13175      4   300.00  -0.83680   3 ;     C1-    C2-   O21-   C21
 13147  13145  13174  13175      4   240.00  -1.25520   2 ;     C3-    C2-   O21-   C21
 13147  13145  13174  13175      4   300.00  -0.83680   3 ;     C3-    C2-   O21-   C21
 13257  13259  13260  13263      4   240.00  -1.25520   2 ;    C11-   O11-    C1-    C2
 13257  13259  13260  13263      4   300.00  -0.83680   3 ;    C11-   O11-    C1-    C2
 13260  13263  13265  13268      4    60.00   1.67360   3 ;     C1-    C2-    C3-   O31
 13260  13263  13265  13268      4   120.00   0.83680   2 ;     C1-    C2-    C3-   O31
 13260  13263  13292  13293      4   240.00  -1.25520   2 ;     C1-    C2-   O21-   C21
 13260  13263  13292  13293      4   300.00  -0.83680   3 ;     C1-    C2-   O21-   C21
 13265  13263  13292  13293      4   240.00  -1.25520   2 ;     C3-    C2-   O21-   C21
 13265  13263  13292  13293      4   300.00  -0.83680   3 ;     C3-    C2-   O21-   C21
 13375  13377  13378  13381      4   240.00  -1.25520   2 ;    C11-   O11-    C1-    C2
 13375  13377  13378  13381      4   300.00  -0.83680   3 ;    C11-   O11-    C1-    C2
 13378  13381  13383  13386      4    60.00   1.67360   3 ;     C1-    C2-    C3-   O31
 13378  13381  13383  13386      4   120.00   0.83680   2 ;     C1-    C2-    C3-   O31
 13378  13381  13410  13411      4   240.00  -1.25520   2 ;     C1-    C2-   O21-   C21
 13378  13381  13410  13411      4   300.00  -0.83680   3 ;     C1-    C2-   O21-   C21
 13383  13381  13410  13411      4   240.00  -1.25520   2 ;     C3-    C2-   O21-   C21
 13383  13381  13410  13411      4   300.00  -0.83680   3 ;     C3-    C2-   O21-   C21
 13493  13495  13496  13499      4   240.00  -1.25520   2 ;    C11-   O11-    C1-    C2
 13493  13495  13496  13499      4   300.00  -0.83680   3 ;    C11-   O11-    C1-    C2
 13496  13499  13501  13504      4    60.00   1.67360   3 ;     C1-    C2-    C3-   O31
 13496  13499  13501  13504      4   120.00   0.83680   2 ;     C1-    C2-    C3-   O31
 13496  13499  13528  13529      4   240.00  -1.25520   2 ;     C1-    C2-   O21-   C21
 13496  13499  13528  13529      4   300.00  -0.83680   3 ;     C1-    C2-   O21-   C21
 13501  13499  13528  13529      4   240.00  -1.25520   2 ;     C3-    C2-   O21-   C21
 13501  13499  13528  13529      4   300.00  -0.83680   3 ;     C3-    C2-   O21-   C21
 13611  13613  13614  13617      4   240.00  -1.25520   2 ;    C11-   O11-    C1-    C2
 13611  13613  13614  13617      4   300.00  -0.83680   3 ;    C11-   O11-    C1-    C2
 13614  13617  13619  13622      4    60.00   1.67360   3 ;     C1-    C2-    C3-   O31
 13614  13617  13619  13622      4   120.00   0.83680   2 ;     C1-    C2-    C3-   O31
 13614  13617  13646  13647      4   240.00  -1.25520   2 ;     C1-    C2-   O21-   C21
 13614  13617  13646  13647      4   300.00  -0.83680   3 ;     C1-    C2-   O21-   C21
 13619  13617  13646  13647      4   240.00  -1.25520   2 ;     C3-    C2-   O21-   C21
 13619  13617  13646  13647      4   300.00  -0.83680   3 ;     C3-    C2-   O21-   C21
 13729  13731  13732  13735      4   240.00  -1.25520   2 ;    C11-   O11-    C1-    C2
 13729  13731  13732  13735      4   300.00  -0.83680   3 ;    C11-   O11-    C1-    C2
 13732  13735  13737  13740      4    60.00   1.67360   3 ;     C1-    C2-    C3-   O31
 13732  13735  13737  13740      4   120.00   0.83680   2 ;     C1-    C2-    C3-   O31
 13732  13735  13764  13765      4   240.00  -1.25520   2 ;     C1-    C2-   O21-   C21
 13732  13735  13764  13765      4   300.00  -0.83680   3 ;     C1-    C2-   O21-   C21
 13737  13735  13764  13765      4   240.00  -1.25520   2 ;     C3-    C2-   O21-   C21
 13737  13735  13764  13765      4   300.00  -0.83680   3 ;     C3-    C2-   O21-   C21
 13847  13849  13850  13853      4   240.00  -1.25520   2 ;    C11-   O11-    C1-    C2
 13847  13849  13850  13853      4   300.00  -0.83680   3 ;    C11-   O11-    C1-    C2
 13850  13853  13855  13858      4    60.00   1.67360   3 ;     C1-    C2-    C3-   O31
 13850  13853  13855  13858      4   120.00   0.83680   2 ;     C1-    C2-    C3-   O31
 13850  13853  13882  13883      4   240.00  -1.25520   2 ;     C1-    C2-   O21-   C21
 13850  13853  13882  13883      4   300.00  -0.83680   3 ;     C1-    C2-   O21-   C21
 13855  13853  13882  13883      4   240.00  -1.25520   2 ;     C3-    C2-   O21-   C21
 13855  13853  13882  13883      4   300.00  -0.83680   3 ;     C3-    C2-   O21-   C21
 13965  13967  13968  13971      4   240.00  -1.25520   2 ;    C11-   O11-    C1-    C2
 13965  13967  13968  13971      4   300.00  -0.83680   3 ;    C11-   O11-    C1-    C2
 13968  13971  13973  13976      4    60.00   1.67360   3 ;     C1-    C2-    C3-   O31
 13968  13971  13973  13976      4   120.00   0.83680   2 ;     C1-    C2-    C3-   O31
 13968  13971  14000  14001      4   240.00  -1.25520   2 ;     C1-    C2-   O21-   C21
 13968  13971  14000  14001      4   300.00  -0.83680   3 ;     C1-    C2-   O21-   C21
 13973  13971  14000  14001      4   240.00  -1.25520   2 ;     C3-    C2-   O21-   C21
 13973  13971  14000  14001      4   300.00  -0.83680   3 ;     C3-    C2-   O21-   C21
 14083  14085  14086  14089      4   240.00  -1.25520   2 ;    C11-   O11-    C1-    C2
 14083  14085  14086  14089      4   300.00  -0.83680   3 ;    C11-   O11-    C1-    C2
 14086  14089  14091  14094      4    60.00   1.67360   3 ;     C1-    C2-    C3-   O31
 14086  14089  14091  14094      4   120.00   0.83680   2 ;     C1-    C2-    C3-   O31
 14086  14089  14118  14119      4   240.00  -1.25520   2 ;     C1-    C2-   O21-   C21
 14086  14089  14118  14119      4   300.00  -0.83680   3 ;     C1-    C2-   O21-   C21
 14091  14089  14118  14119      4   240.00  -1.25520   2 ;     C3-    C2-   O21-   C21
 14091  14089  14118  14119      4   300.00  -0.83680   3 ;     C3-    C2-   O21-   C21
 14201  14203  14204  14207      4   240.00  -1.25520   2 ;    C11-   O11-    C1-    C2
 14201  14203  14204  14207      4   300.00  -0.83680   3 ;    C11-   O11-    C1-    C2
 14204  14207  14209  14212      4    60.00   1.67360   3 ;     C1-    C2-    C3-   O31
 14204  14207  14209  14212      4   120.00   0.83680   2 ;     C1-    C2-    C3-   O31
 14204  14207  14236  14237      4   240.00  -1.25520   2 ;     C1-    C2-   O21-   C21
 14204  14207  14236  14237      4   300.00  -0.83680   3 ;     C1-    C2-   O21-   C21
 14209  14207  14236  14237      4   240.00  -1.25520   2 ;     C3-    C2-   O21-   C21
 14209  14207  14236  14237      4   300.00  -0.83680   3 ;     C3-    C2-   O21-   C21
 14319  14321  14322  14325      4   240.00  -1.25520   2 ;    C11-   O11-    C1-    C2
 14319  14321  14322  14325      4   300.00  -0.83680   3 ;    C11-   O11-    C1-    C2
 14322  14325  14327  14330      4    60.00   1.67360   3 ;     C1-    C2-    C3-   O31
 14322  14325  14327  14330      4   120.00   0.83680   2 ;     C1-    C2-    C3-   O31
 14322  14325  14354  14355      4   240.00  -1.25520   2 ;     C1-    C2-   O21-   C21
 14322  14325  14354  14355      4   300.00  -0.83680   3 ;     C1-    C2-   O21-   C21
 14327  14325  14354  14355      4   240.00  -1.25520   2 ;     C3-    C2-   O21-   C21
 14327  14325  14354  14355      4   300.00  -0.83680   3 ;     C3-    C2-   O21-   C21
 14437  14439  14440  14443      4   240.00  -1.25520   2 ;    C11-   O11-    C1-    C2
 14437  14439  14440  14443      4   300.00  -0.83680   3 ;    C11-   O11-    C1-    C2
 14440  14443  14445  14448      4    60.00   1.67360   3 ;     C1-    C2-    C3-   O31
 14440  14443  14445  14448      4   120.00   0.83680   2 ;     C1-    C2-    C3-   O31
 14440  14443  14472  14473      4   240.00  -1.25520   2 ;     C1-    C2-   O21-   C21
 14440  14443  14472  14473      4   300.00  -0.83680   3 ;     C1-    C2-   O21-   C21
 14445  14443  14472  14473      4   240.00  -1.25520   2 ;     C3-    C2-   O21-   C21
 14445  14443  14472  14473      4   300.00  -0.83680   3 ;     C3-    C2-   O21-   C21
 14555  14557  14558  14561      4   240.00  -1.25520   2 ;    C11-   O11-    C1-    C2
 14555  14557  14558  14561      4   300.00  -0.83680   3 ;    C11-   O11-    C1-    C2
 14558  14561  14563  14566      4    60.00   1.67360   3 ;     C1-    C2-    C3-   O31
 14558  14561  14563  14566      4   120.00   0.83680   2 ;     C1-    C2-    C3-   O31
 14558  14561  14590  14591      4   240.00  -1.25520   2 ;     C1-    C2-   O21-   C21
 14558  14561  14590  14591      4   300.00  -0.83680   3 ;     C1-    C2-   O21-   C21
 14563  14561  14590  14591      4   240.00  -1.25520   2 ;     C3-    C2-   O21-   C21
 14563  14561  14590  14591      4   300.00  -0.83680   3 ;     C3-    C2-   O21-   C21
 14673  14675  14676  14679      4   240.00  -1.25520   2 ;    C11-   O11-    C1-    C2
 14673  14675  14676  14679      4   300.00  -0.83680   3 ;    C11-   O11-    C1-    C2
 14676  14679  14681  14684      4    60.00   1.67360   3 ;     C1-    C2-    C3-   O31
 14676  14679  14681  14684      4   120.00   0.83680   2 ;     C1-    C2-    C3-   O31
 14676  14679  14708  14709      4   240.00  -1.25520   2 ;     C1-    C2-   O21-   C21
 14676  14679  14708  14709      4   300.00  -0.83680   3 ;     C1-    C2-   O21-   C21
 14681  14679  14708  14709      4   240.00  -1.25520   2 ;     C3-    C2-   O21-   C21
 14681  14679  14708  14709      4   300.00  -0.83680   3 ;     C3-    C2-   O21-   C21
 14791  14793  14794  14797      4   240.00  -1.25520   2 ;    C11-   O11-    C1-    C2
 14791  14793  14794  14797      4   300.00  -0.83680   3 ;    C11-   O11-    C1-    C2
 14794  14797  14799  14802      4    60.00   1.67360   3 ;     C1-    C2-    C3-   O31
 14794  14797  14799  14802      4   120.00   0.83680   2 ;     C1-    C2-    C3-   O31
 14794  14797  14826  14827      4   240.00  -1.25520   2 ;     C1-    C2-   O21-   C21
 14794  14797  14826  14827      4   300.00  -0.83680   3 ;     C1-    C2-   O21-   C21
 14799  14797  14826  14827      4   240.00  -1.25520   2 ;     C3-    C2-   O21-   C21
 14799  14797  14826  14827      4   300.00  -0.83680   3 ;     C3-    C2-   O21-   C21
 14909  14911  14912  14915      4   240.00  -1.25520   2 ;    C11-   O11-    C1-    C2
 14909  14911  14912  14915      4   300.00  -0.83680   3 ;    C11-   O11-    C1-    C2
 14912  14915  14917  14920      4    60.00   1.67360   3 ;     C1-    C2-    C3-   O31
 14912  14915  14917  14920      4   120.00   0.83680   2 ;     C1-    C2-    C3-   O31
 14912  14915  14944  14945      4   240.00  -1.25520   2 ;     C1-    C2-   O21-   C21
 14912  14915  14944  14945      4   300.00  -0.83680   3 ;     C1-    C2-   O21-   C21
 14917  14915  14944  14945      4   240.00  -1.25520   2 ;     C3-    C2-   O21-   C21
 14917  14915  14944  14945      4   300.00  -0.83680   3 ;     C3-    C2-   O21-   C21
 15027  15029  15030  15033      4   240.00  -1.25520   2 ;    C11-   O11-    C1-    C2
 15027  15029  15030  15033      4   300.00  -0.83680   3 ;    C11-   O11-    C1-    C2
 15030  15033  15035  15038      4    60.00   1.67360   3 ;     C1-    C2-    C3-   O31
 15030  15033  15035  15038      4   120.00   0.83680   2 ;     C1-    C2-    C3-   O31
 15030  15033  15062  15063      4   240.00  -1.25520   2 ;     C1-    C2-   O21-   C21
 15030  15033  15062  15063      4   300.00  -0.83680   3 ;     C1-    C2-   O21-   C21
 15035  15033  15062  15063      4   240.00  -1.25520   2 ;     C3-    C2-   O21-   C21
 15035  15033  15062  15063      4   300.00  -0.83680   3 ;     C3-    C2-   O21-   C21

[ dihedrals ] ; impropers
; treated as propers in GROMACS to use correct AMBER analytical function
;    i      j      k      l   func   phase     kd      pn
    38     42     41     43      4   180.00  43.93200   2 ;    C12-   O12-   C11-   O11
   116     78     77     76      4   180.00  43.93200   2 ;    C12-   O22-   C21-   O21
   156    160    159    161      4   180.00  43.93200   2 ;    C12-   O12-   C11-   O11
   234    196    195    194      4   180.00  43.93200   2 ;    C12-   O22-   C21-   O21
   274    278    277    279      4   180.00  43.93200   2 ;    C12-   O12-   C11-   O11
   352    314    313    312      4   180.00  43.93200   2 ;    C12-   O22-   C21-   O21
   392    396    395    397      4   180.00  43.93200   2 ;    C12-   O12-   C11-   O11
   470    432    431    430      4   180.00  43.93200   2 ;    C12-   O22-   C21-   O21
   510    514    513    515      4   180.00  43.93200   2 ;    C12-   O12-   C11-   O11
   588    550    549    548      4   180.00  43.93200   2 ;    C12-   O22-   C21-   O21
   628    632    631    633      4   180.00  43.93200   2 ;    C12-   O12-   C11-   O11
   706    668    667    666      4   180.00  43.93200   2 ;    C12-   O22-   C21-   O21
   746    750    749    751      4   180.00  43.93200   2 ;    C12-   O12-   C11-   O11
   824    786    785    784      4   180.00  43.93200   2 ;    C12-   O22-   C21-   O21
   864    868    867    869      4   180.00  43.93200   2 ;    C12-   O12-   C11-   O11
   942    904    903    902      4   180.00  43.93200   2 ;    C12-   O22-   C21-   O21
   982    986    985    987      4   180.00  43.93200   2 ;    C12-   O12-   C11-   O11
  1060   1022   1021   1020      4   180.00  43.93200   2 ;    C12-   O22-   C21-   O21
  1100   1104   1103   1105      4   180.00  43.93200   2 ;    C12-   O12-   C11-   O11
  1178   1140   1139   1138      4   180.00  43.93200   2 ;    C12-   O22-   C21-   O21
  1218   1222   1221   1223      4   180.00  43.93200   2 ;    C12-   O12-   C11-   O11
  1296   1258   1257   1256      4   180.00  43.93200   2 ;    C12-   O22-   C21-   O21
  1336   1340   1339   1341      4   180.00  43.93200   2 ;    C12-   O12-   C11-   O11
  1414   1376   1375   1374      4   180.00  43.93200   2 ;    C12-   O22-   C21-   O21
  1454   1458   1457   1459      4   180.00  43.93200   2 ;    C12-   O12-   C11-   O11
  1532   1494   1493   1492      4   180.00  43.93200   2 ;    C12-   O22-   C21-   O21
  1572   1576   1575   1577      4   180.00  43.93200   2 ;    C12-   O12-   C11-   O11
  1650   1612   1611   1610      4   180.00  43.93200   2 ;    C12-   O22-   C21-   O21
  1690   1694   1693   1695      4   180.00  43.93200   2 ;    C12-   O12-   C11-   O11
  1768   1730   1729   1728      4   180.00  43.93200   2 ;    C12-   O22-   C21-   O21
  1808   1812   1811   1813      4   180.00  43.93200   2 ;    C12-   O12-   C11-   O11
  1886   1848   1847   1846      4   180.00  43.93200   2 ;    C12-   O22-   C21-   O21
  1926   1930   1929   1931      4   180.00  43.93200   2 ;    C12-   O12-   C11-   O11
  2004   1966   1965   1964      4   180.00  43.93200   2 ;    C12-   O22-   C21-   O21
  2044   2048   2047   2049      4   180.00  43.93200   2 ;    C12-   O12-   C11-   O11
  2122   2084   2083   2082      4   180.00  43.93200   2 ;    C12-   O22-   C21-   O21
  2162   2166   2165   2167      4   180.00  43.93200   2 ;    C12-   O12-   C11-   O11
  2240   2202   2201   2200      4   180.00  43.93200   2 ;    C12-   O22-   C21-   O21
  2280   2284   2283   2285      4   180.00  43.93200   2 ;    C12-   O12-   C11-   O11
  2358   2320   2319   2318      4   180.00  43.93200   2 ;    C12-   O22-   C21-   O21
  2398   2402   2401   2403      4   180.00  43.93200   2 ;    C12-   O12-   C11-   O11
  2476   2438   2437   2436      4   180.00  43.93200   2 ;    C12-   O22-   C21-   O21
  2516   2520   2519   2521      4   180.00  43.93200   2 ;    C12-   O12-   C11-   O11
  2594   2556   2555   2554      4   180.00  43.93200   2 ;    C12-   O22-   C21-   O21
  2634   2638   2637   2639      4   180.00  43.93200   2 ;    C12-   O12-   C11-   O11
  2712   2674   2673   2672      4   180.00  43.93200   2 ;    C12-   O22-   C21-   O21
  2752   2756   2755   2757      4   180.00  43.93200   2 ;    C12-   O12-   C11-   O11
  2830   2792   2791   2790      4   180.00  43.93200   2 ;    C12-   O22-   C21-   O21
  2870   2874   2873   2875      4   180.00  43.93200   2 ;    C12-   O12-   C11-   O11
  2948   2910   2909   2908      4   180.00  43.93200   2 ;    C12-   O22-   C21-   O21
  2988   2992   2991   2993      4   180.00  43.93200   2 ;    C12-   O12-   C11-   O11
  3066   3028   3027   3026      4   180.00  43.93200   2 ;    C12-   O22-   C21-   O21
  3106   3110   3109   3111      4   180.00  43.93200   2 ;    C12-   O12-   C11-   O11
  3184   3146   3145   3144      4   180.00  43.93200   2 ;    C12-   O22-   C21-   O21
  3224   3228   3227   3229      4   180.00  43.93200   2 ;    C12-   O12-   C11-   O11
  3302   3264   3263   3262      4   180.00  43.93200   2 ;    C12-   O22-   C21-   O21
  3342   3346   3345   3347      4   180.00  43.93200   2 ;    C12-   O12-   C11-   O11
  3420   3382   3381   3380      4   180.00  43.93200   2 ;    C12-   O22-   C21-   O21
  3460   3464   3463   3465      4   180.00  43.93200   2 ;    C12-   O12-   C11-   O11
  3538   3500   3499   3498      4   180.00  43.93200   2 ;    C12-   O22-   C21-   O21
  3578   3582   3581   3583      4   180.00  43.93200   2 ;    C12-   O12-   C11-   O11
  3656   3618   3617   3616      4   180.00  43.93200   2 ;    C12-   O22-   C21-   O21
  3696   3700   3699   3701      4   180.00  43.93200   2 ;    C12-   O12-   C11-   O11
  3774   3736   3735   3734      4   180.00  43.93200   2 ;    C12-   O22-   C21-   O21
  3814   3818   3817   3819      4   180.00  43.93200   2 ;    C12-   O12-   C11-   O11
  3892   3854   3853   3852      4   180.00  43.93200   2 ;    C12-   O22-   C21-   O21
  3932   3936   3935   3937      4   180.00  43.93200   2 ;    C12-   O12-   C11-   O11
  4010   3972   3971   3970      4   180.00  43.93200   2 ;    C12-   O22-   C21-   O21
  4050   4054   4053   4055      4   180.00  43.93200   2 ;    C12-   O12-   C11-   O11
  4128   4090   4089   4088      4   180.00  43.93200   2 ;    C12-   O22-   C21-   O21
  4168   4172   4171   4173      4   180.00  43.93200   2 ;    C12-   O12-   C11-   O11
  4246   4208   4207   4206      4   180.00  43.93200   2 ;    C12-   O22-   C21-   O21
  4286   4290   4289   4291      4   180.00  43.93200   2 ;    C12-   O12-   C11-   O11
  4364   4326   4325   4324      4   180.00  43.93200   2 ;    C12-   O22-   C21-   O21
  4404   4408   4407   4409      4   180.00  43.93200   2 ;    C12-   O12-   C11-   O11
  4482   4444   4443   4442      4   180.00  43.93200   2 ;    C12-   O22-   C21-   O21
  4522   4526   4525   4527      4   180.00  43.93200   2 ;    C12-   O12-   C11-   O11
  4600   4562   4561   4560      4   180.00  43.93200   2 ;    C12-   O22-   C21-   O21
  4640   4644   4643   4645      4   180.00  43.93200   2 ;    C12-   O12-   C11-   O11
  4718   4680   4679   4678      4   180.00  43.93200   2 ;    C12-   O22-   C21-   O21
  4758   4762   4761   4763      4   180.00  43.93200   2 ;    C12-   O12-   C11-   O11
  4836   4798   4797   4796      4   180.00  43.93200   2 ;    C12-   O22-   C21-   O21
  4876   4880   4879   4881      4   180.00  43.93200   2 ;    C12-   O12-   C11-   O11
  4954   4916   4915   4914      4   180.00  43.93200   2 ;    C12-   O22-   C21-   O21
  4994   4998   4997   4999      4   180.00  43.93200   2 ;    C12-   O12-   C11-   O11
  5072   5034   5033   5032      4   180.00  43.93200   2 ;    C12-   O22-   C21-   O21
  5112   5116   5115   5117      4   180.00  43.93200   2 ;    C12-   O12-   C11-   O11
  5190   5152   5151   5150      4   180.00  43.93200   2 ;    C12-   O22-   C21-   O21
  5230   5234   5233   5235      4   180.00  43.93200   2 ;    C12-   O12-   C11-   O11
  5308   5270   5269   5268      4   180.00  43.93200   2 ;    C12-   O22-   C21-   O21
  5348   5352   5351   5353      4   180.00  43.93200   2 ;    C12-   O12-   C11-   O11
  5426   5388   5387   5386      4   180.00  43.93200   2 ;    C12-   O22-   C21-   O21
  5466   5470   5469   5471      4   180.00  43.93200   2 ;    C12-   O12-   C11-   O11
  5544   5506   5505   5504      4   180.00  43.93200   2 ;    C12-   O22-   C21-   O21
  5584   5588   5587   5589      4   180.00  43.93200   2 ;    C12-   O12-   C11-   O11
  5662   5624   5623   5622      4   180.00  43.93200   2 ;    C12-   O22-   C21-   O21
  5702   5706   5705   5707      4   180.00  43.93200   2 ;    C12-   O12-   C11-   O11
  5780   5742   5741   5740      4   180.00  43.93200   2 ;    C12-   O22-   C21-   O21
  5820   5824   5823   5825      4   180.00  43.93200   2 ;    C12-   O12-   C11-   O11
  5898   5860   5859   5858      4   180.00  43.93200   2 ;    C12-   O22-   C21-   O21
  5938   5942   5941   5943      4   180.00  43.93200   2 ;    C12-   O12-   C11-   O11
  6016   5978   5977   5976      4   180.00  43.93200   2 ;    C12-   O22-   C21-   O21
  6056   6060   6059   6061      4   180.00  43.93200   2 ;    C12-   O12-   C11-   O11
  6134   6096   6095   6094      4   180.00  43.93200   2 ;    C12-   O22-   C21-   O21
  6174   6178   6177   6179      4   180.00  43.93200   2 ;    C12-   O12-   C11-   O11
  6252   6214   6213   6212      4   180.00  43.93200   2 ;    C12-   O22-   C21-   O21
  6292   6296   6295   6297      4   180.00  43.93200   2 ;    C12-   O12-   C11-   O11
  6370   6332   6331   6330      4   180.00  43.93200   2 ;    C12-   O22-   C21-   O21
  6410   6414   6413   6415      4   180.00  43.93200   2 ;    C12-   O12-   C11-   O11
  6488   6450   6449   6448      4   180.00  43.93200   2 ;    C12-   O22-   C21-   O21
  6528   6532   6531   6533      4   180.00  43.93200   2 ;    C12-   O12-   C11-   O11
  6606   6568   6567   6566      4   180.00  43.93200   2 ;    C12-   O22-   C21-   O21
  6646   6650   6649   6651      4   180.00  43.93200   2 ;    C12-   O12-   C11-   O11
  6724   6686   6685   6684      4   180.00  43.93200   2 ;    C12-   O22-   C21-   O21
  6764   6768   6767   6769      4   180.00  43.93200   2 ;    C12-   O12-   C11-   O11
  6842   6804   6803   6802      4   180.00  43.93200   2 ;    C12-   O22-   C21-   O21
  6882   6886   6885   6887      4   180.00  43.93200   2 ;    C12-   O12-   C11-   O11
  6960   6922   6921   6920      4   180.00  43.93200   2 ;    C12-   O22-   C21-   O21
  7000   7004   7003   7005      4   180.00  43.93200   2 ;    C12-   O12-   C11-   O11
  7078   7040   7039   7038      4   180.00  43.93200   2 ;    C12-   O22-   C21-   O21
  7118   7122   7121   7123      4   180.00  43.93200   2 ;    C12-   O12-   C11-   O11
  7196   7158   7157   7156      4   180.00  43.93200   2 ;    C12-   O22-   C21-   O21
  7236   7240   7239   7241      4   180.00  43.93200   2 ;    C12-   O12-   C11-   O11
  7314   7276   7275   7274      4   180.00  43.93200   2 ;    C12-   O22-   C21-   O21
  7354   7358   7357   7359      4   180.00  43.93200   2 ;    C12-   O12-   C11-   O11
  7432   7394   7393   7392      4   180.00  43.93200   2 ;    C12-   O22-   C21-   O21
  7472   7476   7475   7477      4   180.00  43.93200   2 ;    C12-   O12-   C11-   O11
  7550   7512   7511   7510      4   180.00  43.93200   2 ;    C12-   O22-   C21-   O21
  7590   7594   7593   7595      4   180.00  43.93200   2 ;    C12-   O12-   C11-   O11
  7668   7630   7629   7628      4   180.00  43.93200   2 ;    C12-   O22-   C21-   O21
  7708   7712   7711   7713      4   180.00  43.93200   2 ;    C12-   O12-   C11-   O11
  7786   7748   7747   7746      4   180.00  43.93200   2 ;    C12-   O22-   C21-   O21
  7826   7830   7829   7831      4   180.00  43.93200   2 ;    C12-   O12-   C11-   O11
  7904   7866   7865   7864      4   180.00  43.93200   2 ;    C12-   O22-   C21-   O21
  7944   7948   7947   7949      4   180.00  43.93200   2 ;    C12-   O12-   C11-   O11
  8022   7984   7983   7982      4   180.00  43.93200   2 ;    C12-   O22-   C21-   O21
  8062   8066   8065   8067      4   180.00  43.93200   2 ;    C12-   O12-   C11-   O11
  8140   8102   8101   8100      4   180.00  43.93200   2 ;    C12-   O22-   C21-   O21
  8180   8184   8183   8185      4   180.00  43.93200   2 ;    C12-   O12-   C11-   O11
  8258   8220   8219   8218      4   180.00  43.93200   2 ;    C12-   O22-   C21-   O21
  8298   8302   8301   8303      4   180.00  43.93200   2 ;    C12-   O12-   C11-   O11
  8376   8338   8337   8336      4   180.00  43.93200   2 ;    C12-   O22-   C21-   O21
  8416   8420   8419   8421      4   180.00  43.93200   2 ;    C12-   O12-   C11-   O11
  8494   8456   8455   8454      4   180.00  43.93200   2 ;    C12-   O22-   C21-   O21
  8534   8538   8537   8539      4   180.00  43.93200   2 ;    C12-   O12-   C11-   O11
  8612   8574   8573   8572      4   180.00  43.93200   2 ;    C12-   O22-   C21-   O21
  8652   8656   8655   8657      4   180.00  43.93200   2 ;    C12-   O12-   C11-   O11
  8730   8692   8691   8690      4   180.00  43.93200   2 ;    C12-   O22-   C21-   O21
  8770   8774   8773   8775      4   180.00  43.93200   2 ;    C12-   O12-   C11-   O11
  8848   8810   8809   8808      4   180.00  43.93200   2 ;    C12-   O22-   C21-   O21
  8888   8892   8891   8893      4   180.00  43.93200   2 ;    C12-   O12-   C11-   O11
  8966   8928   8927   8926      4   180.00  43.93200   2 ;    C12-   O22-   C21-   O21
  9006   9010   9009   9011      4   180.00  43.93200   2 ;    C12-   O12-   C11-   O11
  9084   9046   9045   9044      4   180.00  43.93200   2 ;    C12-   O22-   C21-   O21
  9124   9128   9127   9129      4   180.00  43.93200   2 ;    C12-   O12-   C11-   O11
  9202   9164   9163   9162      4   180.00  43.93200   2 ;    C12-   O22-   C21-   O21
  9242   9246   9245   9247      4   180.00  43.93200   2 ;    C12-   O12-   C11-   O11
  9320   9282   9281   9280      4   180.00  43.93200   2 ;    C12-   O22-   C21-   O21
  9360   9364   9363   9365      4   180.00  43.93200   2 ;    C12-   O12-   C11-   O11
  9438   9400   9399   9398      4   180.00  43.93200   2 ;    C12-   O22-   C21-   O21
  9478   9482   9481   9483      4   180.00  43.93200   2 ;    C12-   O12-   C11-   O11
  9556   9518   9517   9516      4   180.00  43.93200   2 ;    C12-   O22-   C21-   O21
  9596   9600   9599   9601      4   180.00  43.93200   2 ;    C12-   O12-   C11-   O11
  9674   9636   9635   9634      4   180.00  43.93200   2 ;    C12-   O22-   C21-   O21
  9714   9718   9717   9719      4   180.00  43.93200   2 ;    C12-   O12-   C11-   O11
  9792   9754   9753   9752      4   180.00  43.93200   2 ;    C12-   O22-   C21-   O21
  9832   9836   9835   9837      4   180.00  43.93200   2 ;    C12-   O12-   C11-   O11
  9910   9872   9871   9870      4   180.00  43.93200   2 ;    C12-   O22-   C21-   O21
  9950   9954   9953   9955      4   180.00  43.93200   2 ;    C12-   O12-   C11-   O11
 10028   9990   9989   9988      4   180.00  43.93200   2 ;    C12-   O22-   C21-   O21
 10068  10072  10071  10073      4   180.00  43.93200   2 ;    C12-   O12-   C11-   O11
 10146  10108  10107  10106      4   180.00  43.93200   2 ;    C12-   O22-   C21-   O21
 10186  10190  10189  10191      4   180.00  43.93200   2 ;    C12-   O12-   C11-   O11
 10264  10226  10225  10224      4   180.00  43.93200   2 ;    C12-   O22-   C21-   O21
 10304  10308  10307  10309      4   180.00  43.93200   2 ;    C12-   O12-   C11-   O11
 10382  10344  10343  10342      4   180.00  43.93200   2 ;    C12-   O22-   C21-   O21
 10422  10426  10425  10427      4   180.00  43.93200   2 ;    C12-   O12-   C11-   O11
 10500  10462  10461  10460      4   180.00  43.93200   2 ;    C12-   O22-   C21-   O21
 10540  10544  10543  10545      4   180.00  43.93200   2 ;    C12-   O12-   C11-   O11
 10618  10580  10579  10578      4   180.00  43.93200   2 ;    C12-   O22-   C21-   O21
 10658  10662  10661  10663      4   180.00  43.93200   2 ;    C12-   O12-   C11-   O11
 10736  10698  10697  10696      4   180.00  43.93200   2 ;    C12-   O22-   C21-   O21
 10776  10780  10779  10781      4   180.00  43.93200   2 ;    C12-   O12-   C11-   O11
 10854  10816  10815  10814      4   180.00  43.93200   2 ;    C12-   O22-   C21-   O21
 10894  10898  10897  10899      4   180.00  43.93200   2 ;    C12-   O12-   C11-   O11
 10972  10934  10933  10932      4   180.00  43.93200   2 ;    C12-   O22-   C21-   O21
 11012  11016  11015  11017      4   180.00  43.93200   2 ;    C12-   O12-   C11-   O11
 11090  11052  11051  11050      4   180.00  43.93200   2 ;    C12-   O22-   C21-   O21
 11130  11134  11133  11135      4   180.00  43.93200   2 ;    C12-   O12-   C11-   O11
 11208  11170  11169  11168      4   180.00  43.93200   2 ;    C12-   O22-   C21-   O21
 11248  11252  11251  11253      4   180.00  43.93200   2 ;    C12-   O12-   C11-   O11
 11326  11288  11287  11286      4   180.00  43.93200   2 ;    C12-   O22-   C21-   O21
 11366  11370  11369  11371      4   180.00  43.93200   2 ;    C12-   O12-   C11-   O11
 11444  11406  11405  11404      4   180.00  43.93200   2 ;    C12-   O22-   C21-   O21
 11484  11488  11487  11489      4   180.00  43.93200   2 ;    C12-   O12-   C11-   O11
 11562  11524  11523  11522      4   180.00  43.93200   2 ;    C12-   O22-   C21-   O21
 11602  11606  11605  11607      4   180.00  43.93200   2 ;    C12-   O12-   C11-   O11
 11680  11642  11641  11640      4   180.00  43.93200   2 ;    C12-   O22-   C21-   O21
 11720  11724  11723  11725      4   180.00  43.93200   2 ;    C12-   O12-   C11-   O11
 11798  11760  11759  11758      4   180.00  43.93200   2 ;    C12-   O22-   C21-   O21
 11838  11842  11841  11843      4   180.00  43.93200   2 ;    C12-   O12-   C11-   O11
 11916  11878  11877  11876      4   180.00  43.93200   2 ;    C12-   O22-   C21-   O21
 11956  11960  11959  11961      4   180.00  43.93200   2 ;    C12-   O12-   C11-   O11
 12034  11996  11995  11994      4   180.00  43.93200   2 ;    C12-   O22-   C21-   O21
 12074  12078  12077  12079      4   180.00  43.93200   2 ;    C12-   O12-   C11-   O11
 12152  12114  12113  12112      4   180.00  43.93200   2 ;    C12-   O22-   C21-   O21
 12192  12196  12195  12197      4   180.00  43.93200   2 ;    C12-   O12-   C11-   O11
 12270  12232  12231  12230      4   180.00  43.93200   2 ;    C12-   O22-   C21-   O21
 12310  12314  12313  12315      4   180.00  43.93200   2 ;    C12-   O12-   C11-   O11
 12388  12350  12349  12348      4   180.00  43.93200   2 ;    C12-   O22-   C21-   O21
 12428  12432  12431  12433      4   180.00  43.93200   2 ;    C12-   O12-   C11-   O11
 12506  12468  12467  12466      4   180.00  43.93200   2 ;    C12-   O22-   C21-   O21
 12546  12550  12549  12551      4   180.00  43.93200   2 ;    C12-   O12-   C11-   O11
 12624  12586  12585  12584      4   180.00  43.93200   2 ;    C12-   O22-   C21-   O21
 12664  12668  12667  12669      4   180.00  43.93200   2 ;    C12-   O12-   C11-   O11
 12742  12704  12703  12702      4   180.00  43.93200   2 ;    C12-   O22-   C21-   O21
 12782  12786  12785  12787      4   180.00  43.93200   2 ;    C12-   O12-   C11-   O11
 12860  12822  12821  12820      4   180.00  43.93200   2 ;    C12-   O22-   C21-   O21
 12900  12904  12903  12905      4   180.00  43.93200   2 ;    C12-   O12-   C11-   O11
 12978  12940  12939  12938      4   180.00  43.93200   2 ;    C12-   O22-   C21-   O21
 13018  13022  13021  13023      4   180.00  43.93200   2 ;    C12-   O12-   C11-   O11
 13096  13058  13057  13056      4   180.00  43.93200   2 ;    C12-   O22-   C21-   O21
 13136  13140  13139  13141      4   180.00  43.93200   2 ;    C12-   O12-   C11-   O11
 13214  13176  13175  13174      4   180.00  43.93200   2 ;    C12-   O22-   C21-   O21
 13254  13258  13257  13259      4   180.00  43.93200   2 ;    C12-   O12-   C11-   O11
 13332  13294  13293  13292      4   180.00  43.93200   2 ;    C12-   O22-   C21-   O21
 13372  13376  13375  13377      4   180.00  43.93200   2 ;    C12-   O12-   C11-   O11
 13450  13412  13411  13410      4   180.00  43.93200   2 ;    C12-   O22-   C21-   O21
 13490  13494  13493  13495      4   180.00  43.93200   2 ;    C12-   O12-   C11-   O11
 13568  13530  13529  13528      4   180.00  43.93200   2 ;    C12-   O22-   C21-   O21
 13608  13612  13611  13613      4   180.00  43.93200   2 ;    C12-   O12-   C11-   O11
 13686  13648  13647  13646      4   180.00  43.93200   2 ;    C12-   O22-   C21-   O21
 13726  13730  13729  13731      4   180.00  43.93200   2 ;    C12-   O12-   C11-   O11
 13804  13766  13765  13764      4   180.00  43.93200   2 ;    C12-   O22-   C21-   O21
 13844  13848  13847  13849      4   180.00  43.93200   2 ;    C12-   O12-   C11-   O11
 13922  13884  13883  13882      4   180.00  43.93200   2 ;    C12-   O22-   C21-   O21
 13962  13966  13965  13967      4   180.00  43.93200   2 ;    C12-   O12-   C11-   O11
 14040  14002  14001  14000      4   180.00  43.93200   2 ;    C12-   O22-   C21-   O21
 14080  14084  14083  14085      4   180.00  43.93200   2 ;    C12-   O12-   C11-   O11
 14158  14120  14119  14118      4   180.00  43.93200   2 ;    C12-   O22-   C21-   O21
 14198  14202  14201  14203      4   180.00  43.93200   2 ;    C12-   O12-   C11-   O11
 14276  14238  14237  14236      4   180.00  43.93200   2 ;    C12-   O22-   C21-   O21
 14316  14320  14319  14321      4   180.00  43.93200   2 ;    C12-   O12-   C11-   O11
 14394  14356  14355  14354      4   180.00  43.93200   2 ;    C12-   O22-   C21-   O21
 14434  14438  14437  14439      4   180.00  43.93200   2 ;    C12-   O12-   C11-   O11
 14512  14474  14473  14472      4   180.00  43.93200   2 ;    C12-   O22-   C21-   O21
 14552  14556  14555  14557      4   180.00  43.93200   2 ;    C12-   O12-   C11-   O11
 14630  14592  14591  14590      4   180.00  43.93200   2 ;    C12-   O22-   C21-   O21
 14670  14674  14673  14675      4   180.00  43.93200   2 ;    C12-   O12-   C11-   O11
 14748  14710  14709  14708      4   180.00  43.93200   2 ;    C12-   O22-   C21-   O21
 14788  14792  14791  14793      4   180.00  43.93200   2 ;    C12-   O12-   C11-   O11
 14866  14828  14827  14826      4   180.00  43.93200   2 ;    C12-   O22-   C21-   O21
 14906  14910  14909  14911      4   180.00  43.93200   2 ;    C12-   O12-   C11-   O11
 14984  14946  14945  14944      4   180.00  43.93200   2 ;    C12-   O22-   C21-   O21
 15024  15028  15027  15029      4   180.00  43.93200   2 ;    C12-   O12-   C11-   O11
 15102  15064  15063  15062      4   180.00  43.93200   2 ;    C12-   O22-   C21-   O21

; Membrane position restraints
#ifdef POSRES
#include "posre.itp"
#endif

[ moleculetype ]
; molname       nrexcl ; TIP3P model
  WAT             2

[ atoms ]
;   nr   type  resnr residue  atom   cgnr     charge       mass
     1     OW      1     WAT     O      1     -0.834   16.00000
     2     HW      1     WAT    H1      1      0.417    1.00800
     3     HW      1     WAT    H2      1      0.417    1.00800

#ifdef FLEXIBLE
[ bonds ]
; i j   funct   length  force.c.
1   2   1   0.09572   462750.4 0.09572   462750.4
1   3   1   0.09572   462750.4 0.09572   462750.4

[ angles ]
; i j   k   funct   angle   force.c.
2   1   3   1   104.520    836.800  104.520    836.800
#else
[ settles ]
; i j   funct   length
1   1   0.09572 0.15139

[ exclusions ]
1   2   3
2   1   3
3   1   2
#endif

[ system ]
 DMPC_128

[ molecules ]
; Compound        nmols
 DMPC_128         1     
 WAT              11798
 YT0              1
